/*--------------------------------*- C++ -*----------------------------------*\
  =========                 |
  \\      /  F ield         | OpenFOAM: The Open Source CFD Toolbox
   \\    /   O peration     | Website:  https://openfoam.org
    \\  /    A nd           | Version:  12
     \\/     M anipulation  |
\*---------------------------------------------------------------------------*/
FoamFile
{
    format      ascii;
    class       volVectorField::Internal;
    location    "0.65";
    object      cloud:UTrans;
}
// * * * * * * * * * * * * * * * * * * * * * * * * * * * * * * * * * * * * * //

dimensions      [1 1 -1 0 0 0 0];

value           nonuniform List<vector> 
3750
(
(3.32271e-11 -1.27731e-09 0)
(-1.28058e-11 -1.2401e-09 0)
(-3.6505e-11 -1.21111e-09 0)
(0 0 0)
(-1.75596e-11 -1.14518e-09 0)
(2.82565e-12 -1.10854e-09 0)
(-8.56363e-12 -1.0119e-09 0)
(1.19972e-12 -1.15692e-09 0)
(1.46349e-11 -1.17432e-09 0)
(-2.26626e-11 -2.44111e-09 0)
(1.57093e-11 -9.89575e-10 0)
(-5.13949e-12 -2.29532e-09 0)
(6.443e-12 -1.04898e-09 0)
(-2.14519e-11 -1.04372e-09 0)
(4.03676e-12 -1.05534e-09 0)
(3.02838e-11 -2.45553e-09 0)
(-7.16937e-12 -1.07604e-09 0)
(-1.64184e-11 -1.19136e-09 0)
(-2.27872e-11 -1.08589e-09 0)
(-7.66253e-12 -1.05221e-09 0)
(-1.65617e-11 -1.11613e-09 0)
(-1.33452e-11 -1.19772e-09 0)
(3.20223e-12 -1.11332e-09 0)
(3.71213e-11 -1.02408e-09 0)
(1.09431e-11 -9.36286e-10 0)
(1.75375e-11 -7.72138e-10 0)
(-3.80569e-11 -1.66983e-09 0)
(6.09255e-13 -3.61852e-10 0)
(-1.1006e-11 -1.1019e-09 0)
(-1.17773e-11 -1.88741e-09 0)
(-9.63375e-13 -3.23247e-10 0)
(-1.53078e-11 -9.66628e-10 0)
(3.28571e-11 -2.18013e-09 0)
(3.35022e-11 -9.63869e-10 0)
(-2.05659e-11 -9.38577e-10 0)
(2.86522e-13 -1.07885e-09 0)
(-3.352e-11 -1.1131e-09 0)
(-1.84537e-11 -1.14569e-09 0)
(0 0 0)
(1.57017e-11 -1.08482e-09 0)
(6.182e-12 -1.29418e-09 0)
(-4.58045e-11 -1.23731e-09 0)
(4.58838e-11 -2.49157e-09 0)
(4.42761e-13 -1.03882e-09 0)
(-6.67981e-11 -2.33023e-09 0)
(1.28912e-11 -8.72573e-10 0)
(0 0 0)
(3.60253e-12 -9.76901e-10 0)
(-7.29503e-12 -1.07695e-09 0)
(-1.82951e-11 -1.09163e-09 0)
(-3.22579e-11 -1.07959e-09 0)
(-5.50159e-11 -2.56164e-09 0)
(0 0 0)
(0 0 0)
(0 0 0)
(0 0 0)
(0 0 0)
(0 0 0)
(0 0 0)
(0 0 0)
(0 0 0)
(0 0 0)
(0 0 0)
(0 0 0)
(0 0 0)
(0 0 0)
(0 0 0)
(0 0 0)
(0 0 0)
(0 0 0)
(0 0 0)
(0 0 0)
(0 0 0)
(0 0 0)
(0 0 0)
(0 0 0)
(-2.69612e-11 -1.31129e-09 0)
(2.03253e-11 -1.62244e-09 0)
(-3.92372e-11 -1.96487e-09 0)
(-3.83657e-11 -2.26748e-09 0)
(0 0 0)
(1.40025e-11 -3.7814e-10 0)
(1.43418e-11 -3.7053e-10 0)
(0 0 0)
(-3.25378e-11 -1.06486e-09 0)
(-2.58525e-12 -9.55825e-10 0)
(-8.12856e-11 -1.11548e-09 0)
(-4.79812e-12 -2.41608e-09 0)
(-3.40115e-11 -2.23889e-09 0)
(-6.79713e-11 -3.72287e-09 0)
(5.27898e-12 -9.92871e-10 0)
(9.2236e-12 -1.0377e-09 0)
(0 0 0)
(0 0 0)
(0 0 0)
(-1.83467e-11 -1.09337e-09 0)
(-3.48283e-11 -1.19152e-09 0)
(-1.04024e-11 -1.19219e-09 0)
(1.38322e-11 -1.14862e-09 0)
(1.93222e-11 -2.42837e-09 0)
(-1.73131e-11 -1.01998e-09 0)
(-2.98854e-11 -1.05778e-09 0)
(0 0 0)
(0 0 0)
(-9.33784e-12 -1.15358e-09 0)
(0 0 0)
(2.53529e-11 -2.2531e-09 0)
(-6.78633e-11 -2.03974e-09 0)
(-5.39439e-11 -1.99222e-09 0)
(-5.56732e-11 -9.8058e-10 0)
(0 0 0)
(0 0 0)
(-1.81328e-11 -1.17852e-09 0)
(0 0 0)
(1.71236e-10 -2.83888e-09 0)
(0 0 0)
(-4.84111e-11 -1.19198e-09 0)
(-6.89621e-11 -1.10597e-09 0)
(1.56993e-11 -1.00464e-09 0)
(2.05238e-11 -1.00724e-09 0)
(7.79308e-12 -8.77701e-10 0)
(-4.69312e-11 -2.33215e-09 0)
(0 0 0)
(0 0 0)
(0 0 0)
(0 0 0)
(0 0 0)
(0 0 0)
(0 0 0)
(0 0 0)
(0 0 0)
(0 0 0)
(0 0 0)
(0 0 0)
(0 0 0)
(0 0 0)
(0 0 0)
(0 0 0)
(0 0 0)
(0 0 0)
(0 0 0)
(0 0 0)
(0 0 0)
(0 0 0)
(0 0 0)
(0 0 0)
(0 0 0)
(0 0 0)
(0 0 0)
(0 0 0)
(-1.61872e-11 -3.05949e-09 0)
(0 0 0)
(0 0 0)
(4.51401e-12 -1.10674e-09 0)
(0 0 0)
(-8.74602e-11 -2.22989e-09 0)
(1.13554e-10 -2.35128e-09 0)
(3.61885e-11 -1.05971e-09 0)
(9.46242e-11 -1.12818e-09 0)
(0 0 0)
(-3.02168e-11 -1.13006e-09 0)
(0 0 0)
(-9.70385e-12 -1.06935e-09 0)
(-5.84834e-11 -2.39955e-09 0)
(0 0 0)
(1.54054e-11 -1.06145e-09 0)
(1.51532e-11 -1.08981e-09 0)
(3.0021e-11 -1.12794e-09 0)
(2.33731e-11 -1.1555e-09 0)
(6.69259e-12 -1.21048e-09 0)
(-1.21184e-11 -5.86271e-10 0)
(-3.44184e-12 -1.53968e-10 0)
(-3.25179e-11 -2.41692e-09 0)
(3.24709e-11 -2.08782e-09 0)
(-8.40827e-11 -2.37335e-09 0)
(-4.71094e-12 -1.05696e-09 0)
(-1.31247e-10 -2.66112e-09 0)
(-9.68043e-13 -4.28686e-11 0)
(-2.42186e-11 -1.05467e-09 0)
(-3.08894e-11 -1.11334e-09 0)
(6.11976e-11 -2.239e-09 0)
(6.02869e-11 -2.23719e-09 0)
(0 0 0)
(7.03683e-11 -1.00497e-09 0)
(-6.24163e-11 -2.34771e-09 0)
(0 0 0)
(-7.90367e-12 -1.11014e-09 0)
(-1.18124e-11 -1.11012e-09 0)
(6.71607e-12 -1.06372e-09 0)
(-1.16429e-10 -2.96279e-09 0)
(4.19562e-11 -2.98626e-09 0)
(-2.20277e-11 -1.00579e-09 0)
(5.34585e-12 -9.30305e-10 0)
(2.53052e-11 -9.87053e-10 0)
(-4.69877e-11 -9.68397e-10 0)
(0 0 0)
(0 0 0)
(0 0 0)
(0 0 0)
(0 0 0)
(0 0 0)
(0 0 0)
(0 0 0)
(0 0 0)
(0 0 0)
(0 0 0)
(0 0 0)
(0 0 0)
(0 0 0)
(0 0 0)
(0 0 0)
(0 0 0)
(0 0 0)
(0 0 0)
(0 0 0)
(0 0 0)
(0 0 0)
(0 0 0)
(0 0 0)
(0 0 0)
(0 0 0)
(0 0 0)
(0 0 0)
(0 0 0)
(0 0 0)
(-1.62092e-11 -1.16179e-09 0)
(1.06068e-10 -1.13091e-09 0)
(8.2401e-11 -1.25222e-09 0)
(8.84081e-11 -1.20945e-09 0)
(-2.70506e-11 -1.04411e-09 0)
(0 0 0)
(0 0 0)
(4.12486e-11 -9.13302e-10 0)
(8.3902e-11 -1.10354e-09 0)
(-2.22758e-11 -1.17499e-09 0)
(0 0 0)
(3.53238e-12 -1.16053e-09 0)
(7.50221e-11 -2.40221e-09 0)
(-5.86783e-12 -1.04608e-09 0)
(-3.41068e-11 -1.04245e-09 0)
(-3.99267e-11 -1.14199e-09 0)
(-2.89363e-11 -1.12706e-09 0)
(-1.74061e-11 -1.12598e-09 0)
(-2.83331e-11 -1.06301e-09 0)
(-5.90069e-12 -2.40531e-09 0)
(-7.80389e-12 -2.53125e-09 0)
(-1.99699e-10 -2.41386e-09 0)
(-8.99661e-11 -9.7569e-10 0)
(-5.15948e-11 -1.03052e-09 0)
(-7.45676e-11 -1.06924e-09 0)
(-1.34608e-11 -2.75119e-09 0)
(2.10932e-11 -1.15585e-09 0)
(9.65101e-12 -5.95524e-10 0)
(2.23602e-12 -1.58742e-10 0)
(1.3739e-11 -9.58946e-10 0)
(-3.27654e-11 -1.06984e-09 0)
(-4.65516e-12 -1.07098e-09 0)
(2.0968e-11 -1.08981e-09 0)
(1.6535e-11 -1.11051e-09 0)
(-5.62083e-11 -1.13132e-09 0)
(-6.16376e-11 -1.08283e-09 0)
(-5.57928e-11 -1.06267e-09 0)
(-7.0417e-11 -1.09789e-09 0)
(-1.01685e-10 -1.12289e-09 0)
(-1.46095e-10 -1.17559e-09 0)
(-1.15338e-11 -2.87502e-09 0)
(5.91466e-11 -1.05406e-09 0)
(2.09646e-11 -9.22459e-10 0)
(0 0 0)
(0 0 0)
(0 0 0)
(0 0 0)
(0 0 0)
(0 0 0)
(0 0 0)
(0 0 0)
(0 0 0)
(0 0 0)
(0 0 0)
(0 0 0)
(0 0 0)
(0 0 0)
(0 0 0)
(0 0 0)
(0 0 0)
(0 0 0)
(0 0 0)
(0 0 0)
(0 0 0)
(0 0 0)
(0 0 0)
(0 0 0)
(0 0 0)
(0 0 0)
(0 0 0)
(0 0 0)
(0 0 0)
(0 0 0)
(0 0 0)
(0 0 0)
(1.54324e-11 -1.04277e-09 0)
(0 0 0)
(3.60425e-11 -2.29111e-09 0)
(1.00819e-10 -1.64449e-09 0)
(0 0 0)
(4.98179e-11 -1.06552e-09 0)
(-3.52489e-13 -1.07254e-09 0)
(3.59057e-11 -1.08796e-09 0)
(5.36176e-11 -1.34784e-09 0)
(0 0 0)
(5.41089e-12 -1.10537e-09 0)
(0 0 0)
(1.38967e-10 -2.5243e-09 0)
(-3.66602e-11 -1.09664e-09 0)
(-3.58247e-11 -1.05578e-09 0)
(-1.05537e-12 -1.08382e-09 0)
(1.68657e-11 -1.14742e-09 0)
(-4.19097e-11 -2.48712e-09 0)
(-5.03268e-11 -1.00989e-09 0)
(-2.64632e-11 -1.06037e-09 0)
(-1.84676e-11 -1.10657e-09 0)
(-9.34543e-11 -1.0739e-09 0)
(-5.48744e-11 -1.0177e-09 0)
(-4.26463e-11 -1.19208e-09 0)
(0 0 0)
(-7.56342e-11 -1.16022e-09 0)
(-6.2743e-12 -1.18321e-09 0)
(5.6434e-11 -1.14204e-09 0)
(1.22097e-11 -1.21146e-09 0)
(3.47279e-12 -9.71187e-10 0)
(2.35135e-11 -2.48757e-09 0)
(2.36495e-11 -1.04135e-09 0)
(6.44786e-11 -1.03318e-09 0)
(3.02388e-12 -1.24472e-09 0)
(-6.165e-11 -1.19448e-09 0)
(-5.927e-11 -1.47513e-09 0)
(-3.08499e-12 -5.24509e-10 0)
(0 0 0)
(0 0 0)
(-1.69645e-11 -3.35663e-10 0)
(-9.60268e-11 -1.78127e-09 0)
(3.18171e-11 -1.05586e-09 0)
(2.09584e-11 -1.07955e-09 0)
(-1.95595e-11 -1.02793e-09 0)
(0 0 0)
(0 0 0)
(0 0 0)
(0 0 0)
(0 0 0)
(0 0 0)
(0 0 0)
(0 0 0)
(0 0 0)
(0 0 0)
(0 0 0)
(0 0 0)
(0 0 0)
(0 0 0)
(0 0 0)
(0 0 0)
(0 0 0)
(0 0 0)
(0 0 0)
(0 0 0)
(0 0 0)
(0 0 0)
(0 0 0)
(0 0 0)
(0 0 0)
(0 0 0)
(0 0 0)
(0 0 0)
(0 0 0)
(0 0 0)
(0 0 0)
(1.22961e-11 -1.06851e-09 0)
(0 0 0)
(-3.14274e-11 -1.12068e-09 0)
(4.62519e-11 -1.24141e-09 0)
(1.15758e-10 -1.23255e-09 0)
(5.38752e-11 -1.29932e-09 0)
(1.06882e-13 -2.52583e-11 0)
(3.63353e-12 -1.06688e-09 0)
(2.81951e-11 -1.11056e-09 0)
(8.9215e-11 -1.2171e-09 0)
(7.67231e-11 -1.07367e-09 0)
(8.40287e-11 -1.05454e-09 0)
(-1.63926e-11 -2.74592e-09 0)
(5.25433e-12 -1.03358e-09 0)
(-6.4556e-12 -9.75687e-10 0)
(-6.39133e-12 -1.03084e-09 0)
(7.07329e-12 -1.16669e-09 0)
(-6.04885e-11 -2.67929e-09 0)
(-5.71681e-11 -9.68444e-10 0)
(-8.09747e-13 -1.14076e-09 0)
(-3.61552e-11 -1.35962e-09 0)
(-3.08585e-11 -1.14201e-09 0)
(-9.04239e-12 -9.35192e-10 0)
(-2.35381e-11 -1.15376e-09 0)
(0 0 0)
(-1.82802e-11 -1.1099e-09 0)
(-1.03746e-11 -1.14716e-09 0)
(-2.43006e-12 -1.15232e-09 0)
(-1.19429e-11 -1.1123e-09 0)
(-1.7876e-11 -1.07747e-09 0)
(-2.73855e-11 -1.05487e-09 0)
(-3.86655e-12 -1.01708e-09 0)
(1.53691e-11 -2.90856e-09 0)
(2.44127e-11 -1.30488e-09 0)
(2.44573e-11 -1.03596e-09 0)
(1.66073e-11 -9.58239e-10 0)
(8.4329e-12 -1.06917e-09 0)
(-1.34901e-11 -1.16319e-09 0)
(0 0 0)
(-1.1491e-10 -2.41201e-09 0)
(0 0 0)
(2.11312e-12 -1.13644e-09 0)
(0 0 0)
(-1.76092e-13 -1.13331e-09 0)
(0 0 0)
(0 0 0)
(0 0 0)
(0 0 0)
(0 0 0)
(0 0 0)
(0 0 0)
(0 0 0)
(0 0 0)
(0 0 0)
(0 0 0)
(0 0 0)
(0 0 0)
(0 0 0)
(0 0 0)
(0 0 0)
(0 0 0)
(0 0 0)
(0 0 0)
(0 0 0)
(0 0 0)
(0 0 0)
(0 0 0)
(0 0 0)
(0 0 0)
(0 0 0)
(0 0 0)
(0 0 0)
(0 0 0)
(0 0 0)
(0 0 0)
(3.37948e-11 -1.00733e-09 0)
(4.12785e-11 -1.01212e-09 0)
(-2.05813e-11 -1.02592e-09 0)
(-1.02971e-11 -1.14695e-09 0)
(4.43563e-11 -1.16705e-09 0)
(3.57423e-11 -1.22398e-09 0)
(9.06663e-11 -1.23951e-09 0)
(7.29742e-11 -1.10718e-09 0)
(1.00255e-10 -2.52048e-09 0)
(7.87502e-11 -9.79508e-10 0)
(7.74635e-11 -8.8776e-10 0)
(6.02439e-12 -2.25143e-09 0)
(-5.87488e-11 -1.11042e-09 0)
(-2.63999e-11 -1.10082e-09 0)
(-1.90213e-11 -1.06221e-09 0)
(-7.4158e-11 -1.10578e-09 0)
(1.42108e-11 -1.32477e-09 0)
(0 0 0)
(-6.13024e-12 -1.18468e-09 0)
(-5.92399e-11 -1.62882e-09 0)
(-2.42828e-11 -5.80851e-10 0)
(-3.87209e-12 -1.2602e-09 0)
(4.18198e-11 -1.09905e-09 0)
(1.40839e-11 -1.11074e-09 0)
(3.72358e-12 -1.14235e-09 0)
(-8.15775e-12 -1.14574e-09 0)
(-1.51328e-11 -1.11546e-09 0)
(-1.27e-11 -1.11146e-09 0)
(-2.68215e-11 -1.09997e-09 0)
(-4.27907e-11 -1.09221e-09 0)
(-4.43159e-11 -1.09535e-09 0)
(-3.40431e-11 -1.13147e-09 0)
(-7.02305e-11 -1.19901e-09 0)
(3.48755e-11 -1.24226e-09 0)
(3.8422e-11 -1.0773e-09 0)
(1.55061e-11 -1.03991e-09 0)
(1.26161e-11 -2.41041e-09 0)
(0 0 0)
(5.43383e-12 -2.47924e-09 0)
(-3.94012e-11 -1.07102e-09 0)
(-5.62089e-12 -1.0923e-09 0)
(4.90215e-11 -1.01074e-09 0)
(-8.60897e-12 -1.14367e-09 0)
(0 0 0)
(0 0 0)
(0 0 0)
(0 0 0)
(0 0 0)
(0 0 0)
(0 0 0)
(0 0 0)
(0 0 0)
(0 0 0)
(0 0 0)
(0 0 0)
(0 0 0)
(0 0 0)
(0 0 0)
(0 0 0)
(0 0 0)
(0 0 0)
(0 0 0)
(0 0 0)
(0 0 0)
(0 0 0)
(0 0 0)
(0 0 0)
(0 0 0)
(0 0 0)
(0 0 0)
(0 0 0)
(0 0 0)
(0 0 0)
(0 0 0)
(0 0 0)
(5.77534e-11 -1.13972e-09 0)
(3.50626e-11 -1.11219e-09 0)
(-1.64586e-12 -1.10552e-09 0)
(-2.01876e-11 -1.25081e-09 0)
(-2.15973e-11 -1.23939e-09 0)
(-1.25583e-11 -1.17553e-09 0)
(4.4688e-11 -1.07465e-09 0)
(4.19292e-11 -1.01526e-09 0)
(4.31729e-11 -2.20777e-09 0)
(4.80875e-11 -2.69987e-09 0)
(1.72863e-10 -2.74217e-09 0)
(-2.17994e-11 -1.08655e-09 0)
(-5.36486e-11 -1.15786e-09 0)
(0 0 0)
(2.00322e-11 -1.06546e-09 0)
(-1.12624e-10 -1.16537e-09 0)
(-5.31972e-11 -1.14789e-09 0)
(5.73896e-11 -1.27051e-09 0)
(0 0 0)
(-2.52515e-11 -1.08116e-09 0)
(-4.8596e-11 -1.16984e-09 0)
(1.91674e-12 -1.14661e-09 0)
(3.14527e-11 -1.11856e-09 0)
(2.92366e-11 -1.12903e-09 0)
(-2.39654e-11 -1.15675e-09 0)
(-4.0162e-11 -1.10831e-09 0)
(-1.71852e-11 -1.11209e-09 0)
(-1.49442e-11 -1.11861e-09 0)
(-6.03043e-12 -4.05381e-10 0)
(-4.53321e-12 -2.86814e-10 0)
(-4.33816e-11 -1.10659e-09 0)
(-4.13072e-11 -1.13132e-09 0)
(-3.6324e-11 -1.16552e-09 0)
(-9.46125e-11 -1.18867e-09 0)
(-5.76196e-11 -1.14842e-09 0)
(-4.92505e-11 -1.08649e-09 0)
(-5.80862e-11 -1.05865e-09 0)
(-5.79017e-13 -1.04711e-09 0)
(2.22892e-11 -1.13107e-09 0)
(-6.2667e-11 -1.03088e-09 0)
(-5.04077e-11 -2.43254e-09 0)
(4.23804e-12 -2.29498e-09 0)
(1.57802e-11 -9.9632e-10 0)
(0 0 0)
(0 0 0)
(0 0 0)
(0 0 0)
(0 0 0)
(0 0 0)
(0 0 0)
(0 0 0)
(0 0 0)
(0 0 0)
(0 0 0)
(0 0 0)
(0 0 0)
(0 0 0)
(0 0 0)
(0 0 0)
(0 0 0)
(0 0 0)
(0 0 0)
(0 0 0)
(0 0 0)
(0 0 0)
(0 0 0)
(0 0 0)
(0 0 0)
(0 0 0)
(0 0 0)
(0 0 0)
(0 0 0)
(0 0 0)
(0 0 0)
(0 0 0)
(6.31706e-11 -2.38231e-09 0)
(-6.25155e-11 -1.84853e-09 0)
(-3.53861e-11 -1.35284e-09 0)
(0 0 0)
(-3.11766e-11 -1.16001e-09 0)
(-1.56251e-11 -1.15865e-09 0)
(-3.28161e-11 -1.94468e-09 0)
(-1.7401e-11 -1.34455e-09 0)
(-3.64533e-11 -1.0009e-09 0)
(-1.36399e-11 -2.19304e-09 0)
(-3.84867e-11 -9.66706e-10 0)
(1.31001e-11 -1.36734e-09 0)
(0 0 0)
(1.85143e-11 -1.07937e-09 0)
(-1.62195e-12 -1.28466e-09 0)
(0 0 0)
(-4.06249e-11 -1.06504e-09 0)
(-1.63849e-11 -1.15123e-09 0)
(8.34882e-11 -1.20657e-09 0)
(3.76686e-11 -1.24984e-09 0)
(4.13608e-11 -1.16644e-09 0)
(1.37509e-11 -1.04503e-09 0)
(4.92609e-12 -1.0908e-09 0)
(2.00226e-11 -1.13614e-09 0)
(-4.49905e-11 -1.12239e-09 0)
(-2.44247e-11 -1.09336e-09 0)
(-3.70072e-12 -1.1349e-09 0)
(-1.27981e-12 -1.10693e-09 0)
(-1.27762e-11 -1.09282e-09 0)
(0 0 0)
(-1.8834e-11 -9.94623e-10 0)
(-1.89894e-11 -1.09464e-09 0)
(-2.77451e-11 -1.2393e-09 0)
(-1.78529e-11 -2.63492e-10 0)
(-4.78572e-11 -6.88281e-10 0)
(-5.19639e-11 -1.09108e-09 0)
(-3.97491e-11 -1.10641e-09 0)
(-5.80299e-11 -1.13736e-09 0)
(-2.86261e-11 -1.35762e-09 0)
(0 0 0)
(-3.03983e-12 -1.10348e-09 0)
(-9.99884e-12 -1.03278e-09 0)
(2.90391e-11 -1.03855e-09 0)
(3.87043e-11 -1.02113e-09 0)
(0 0 0)
(0 0 0)
(0 0 0)
(0 0 0)
(0 0 0)
(0 0 0)
(0 0 0)
(0 0 0)
(0 0 0)
(0 0 0)
(0 0 0)
(0 0 0)
(0 0 0)
(0 0 0)
(0 0 0)
(0 0 0)
(0 0 0)
(0 0 0)
(0 0 0)
(0 0 0)
(0 0 0)
(0 0 0)
(0 0 0)
(0 0 0)
(0 0 0)
(0 0 0)
(0 0 0)
(0 0 0)
(0 0 0)
(0 0 0)
(0 0 0)
(-2.68718e-11 -2.45336e-09 0)
(-9.32094e-11 -2.45088e-09 0)
(-3.20177e-11 -2.29597e-09 0)
(1.72704e-11 -1.00435e-09 0)
(6.40354e-11 -1.18745e-09 0)
(2.71718e-11 -9.63346e-10 0)
(-2.45585e-11 -1.10461e-09 0)
(-6.48137e-11 -1.09246e-09 0)
(-3.99612e-12 -1.08413e-09 0)
(-1.80929e-11 -1.04158e-09 0)
(-5.15568e-12 -1.10242e-09 0)
(-1.84117e-11 -1.38262e-09 0)
(0 0 0)
(-1.69704e-11 -1.17424e-09 0)
(0 0 0)
(7.19115e-11 -1.17994e-09 0)
(1.13286e-11 -1.17044e-09 0)
(0 0 0)
(-1.26096e-11 -1.11573e-09 0)
(-2.79453e-11 -1.11194e-09 0)
(7.73274e-11 -1.17164e-09 0)
(7.76974e-11 -1.08995e-09 0)
(3.30842e-12 -1.09705e-09 0)
(-7.67995e-11 -2.87849e-09 0)
(-3.59662e-11 -1.01794e-09 0)
(-1.08518e-12 -9.55128e-10 0)
(5.04773e-11 -1.00475e-09 0)
(8.72417e-11 -1.10725e-09 0)
(0 0 0)
(-2.1419e-11 -1.08192e-09 0)
(-2.31688e-11 -9.90492e-10 0)
(-3.9625e-11 -1.10305e-09 0)
(-1.89074e-11 -1.30197e-09 0)
(0 0 0)
(4.89481e-11 -1.11617e-09 0)
(0 0 0)
(-3.14812e-11 -1.11024e-09 0)
(-7.57676e-11 -1.16334e-09 0)
(0 0 0)
(8.4062e-12 -1.19982e-09 0)
(1.83208e-11 -1.1166e-09 0)
(2.5501e-11 -1.06043e-09 0)
(8.74575e-12 -1.03226e-09 0)
(3.64151e-11 -1.07938e-09 0)
(3.01099e-11 -1.03572e-09 0)
(0 0 0)
(0 0 0)
(0 0 0)
(0 0 0)
(0 0 0)
(0 0 0)
(0 0 0)
(0 0 0)
(0 0 0)
(0 0 0)
(0 0 0)
(0 0 0)
(0 0 0)
(0 0 0)
(0 0 0)
(0 0 0)
(0 0 0)
(0 0 0)
(0 0 0)
(0 0 0)
(0 0 0)
(0 0 0)
(0 0 0)
(0 0 0)
(0 0 0)
(0 0 0)
(0 0 0)
(0 0 0)
(0 0 0)
(0 0 0)
(-2.3656e-10 -2.84859e-09 0)
(-4.12295e-11 -1.0682e-09 0)
(-5.2185e-11 -2.25774e-09 0)
(-1.05263e-11 -2.13061e-09 0)
(6.88984e-11 -2.23389e-09 0)
(1.09039e-11 -1.00904e-09 0)
(4.38464e-12 -2.54101e-09 0)
(0 0 0)
(4.13841e-12 -1.08921e-09 0)
(0 0 0)
(-9.01282e-11 -2.39548e-09 0)
(-4.82135e-11 -1.09921e-09 0)
(-1.09582e-11 -1.1121e-09 0)
(0 0 0)
(1.01368e-11 -1.08488e-09 0)
(5.78261e-11 -1.11827e-09 0)
(1.85363e-11 -1.17142e-09 0)
(1.85354e-12 -1.09333e-09 0)
(1.83086e-11 -1.12292e-09 0)
(0 0 0)
(-1.60676e-11 -1.0471e-09 0)
(5.13718e-11 -1.43676e-09 0)
(0 0 0)
(-5.22963e-11 -1.38022e-09 0)
(-1.86487e-11 -1.06204e-09 0)
(3.94411e-11 -2.16457e-09 0)
(4.04285e-11 -9.15471e-10 0)
(6.98662e-11 -2.68886e-09 0)
(2.35841e-11 -1.06429e-09 0)
(-3.5407e-13 -9.5965e-10 0)
(0 0 0)
(-1.55403e-11 -9.90566e-10 0)
(-5.5311e-11 -1.17036e-09 0)
(9.95783e-11 -1.18459e-09 0)
(4.81597e-11 -1.11214e-09 0)
(0 0 0)
(-4.25552e-11 -1.16232e-09 0)
(-7.96348e-11 -1.15655e-09 0)
(0 0 0)
(1.83521e-11 -9.65204e-10 0)
(0 0 0)
(1.49717e-11 -1.07213e-09 0)
(-1.42254e-11 -1.03411e-09 0)
(-1.14121e-11 -1.10533e-09 0)
(-3.48182e-11 -1.10408e-09 0)
(-1.6367e-11 -1.02768e-09 0)
(0 0 0)
(0 0 0)
(0 0 0)
(0 0 0)
(0 0 0)
(0 0 0)
(0 0 0)
(0 0 0)
(0 0 0)
(0 0 0)
(0 0 0)
(0 0 0)
(0 0 0)
(0 0 0)
(0 0 0)
(0 0 0)
(0 0 0)
(0 0 0)
(0 0 0)
(0 0 0)
(0 0 0)
(0 0 0)
(0 0 0)
(0 0 0)
(0 0 0)
(0 0 0)
(0 0 0)
(0 0 0)
(0 0 0)
(-1.28129e-10 -1.15492e-09 0)
(-6.50756e-11 -1.18413e-09 0)
(-5.75828e-11 -1.16281e-09 0)
(-5.15774e-11 -1.13391e-09 0)
(-2.15152e-11 -1.11418e-09 0)
(4.97348e-12 -1.04314e-09 0)
(-5.8735e-12 -2.22638e-09 0)
(-7.06723e-12 -9.84271e-10 0)
(3.46339e-11 -2.20313e-09 0)
(1.90725e-11 -2.10684e-09 0)
(0 0 0)
(-3.79081e-11 -1.13155e-09 0)
(-5.74512e-12 -1.14588e-09 0)
(4.39556e-11 -1.13669e-09 0)
(2.49983e-11 -1.14037e-09 0)
(9.81097e-11 -1.17849e-09 0)
(5.66406e-12 -1.16687e-09 0)
(1.16331e-11 -1.11739e-09 0)
(-5.13991e-12 -1.13375e-09 0)
(0 0 0)
(2.39459e-11 -1.06004e-09 0)
(-1.64995e-11 -1.2156e-09 0)
(9.12957e-11 -1.51628e-09 0)
(0 0 0)
(-2.06916e-11 -1.2179e-09 0)
(-7.11987e-11 -2.38184e-09 0)
(-6.3418e-11 -1.00218e-09 0)
(-2.69324e-11 -1.08284e-09 0)
(6.83103e-11 -1.10915e-09 0)
(6.73903e-11 -1.0529e-09 0)
(4.23996e-11 -1.06169e-09 0)
(-3.31647e-11 -1.03102e-09 0)
(-3.9051e-11 -1.13001e-09 0)
(3.50628e-11 -1.16458e-09 0)
(0 0 0)
(3.61055e-12 -1.10647e-09 0)
(-1.16543e-10 -2.52045e-09 0)
(-1.71427e-11 -1.0533e-09 0)
(0 0 0)
(0 0 0)
(-3.46473e-11 -2.43195e-09 0)
(-3.58575e-12 -1.34739e-09 0)
(-7.41055e-11 -1.7702e-09 0)
(-8.32725e-11 -1.03445e-09 0)
(-3.71031e-11 -9.81834e-10 0)
(0 0 0)
(0 0 0)
(0 0 0)
(0 0 0)
(0 0 0)
(0 0 0)
(0 0 0)
(0 0 0)
(0 0 0)
(0 0 0)
(0 0 0)
(0 0 0)
(0 0 0)
(0 0 0)
(0 0 0)
(0 0 0)
(0 0 0)
(0 0 0)
(0 0 0)
(0 0 0)
(0 0 0)
(0 0 0)
(0 0 0)
(0 0 0)
(0 0 0)
(0 0 0)
(0 0 0)
(0 0 0)
(0 0 0)
(0 0 0)
(0 0 0)
(0 0 0)
(0 0 0)
(0 0 0)
(0 0 0)
(3.47772e-11 -1.32149e-09 0)
(3.72242e-11 -1.27417e-09 0)
(0 0 0)
(0 0 0)
(0 0 0)
(-3.91171e-11 -2.80145e-09 0)
(-2.69274e-11 -1.079e-09 0)
(-2.56827e-12 -1.00222e-09 0)
(2.07366e-11 -1.02605e-09 0)
(1.87632e-12 -1.01156e-09 0)
(5.08507e-11 -2.86817e-09 0)
(3.95027e-11 -1.21126e-09 0)
(-1.30568e-12 -2.09959e-09 0)
(1.68059e-12 -9.89921e-10 0)
(1.57279e-11 -1.00562e-09 0)
(4.02937e-11 -1.11696e-09 0)
(4.02919e-12 -1.18085e-09 0)
(4.70162e-11 -1.36521e-09 0)
(5.59841e-11 -1.40227e-09 0)
(-4.48114e-11 -1.1062e-09 0)
(-4.05663e-11 -1.06851e-09 0)
(-4.40285e-11 -1.00511e-09 0)
(-1.39092e-11 -1.01972e-09 0)
(3.54127e-12 -1.07793e-09 0)
(8.12665e-12 -1.08777e-09 0)
(-4.91975e-12 -1.08137e-09 0)
(-1.32424e-11 -1.07953e-09 0)
(3.24811e-11 -1.09162e-09 0)
(4.7199e-11 -1.11458e-09 0)
(0 0 0)
(0 0 0)
(0 0 0)
(-3.10519e-11 -1.08315e-09 0)
(-4.17053e-11 -1.09251e-09 0)
(-1.96136e-11 -1.13537e-09 0)
(0 0 0)
(-1.22271e-10 -2.24849e-09 0)
(-2.08211e-10 -2.30152e-09 0)
(-8.89207e-11 -9.31124e-10 0)
(0 0 0)
(0 0 0)
(0 0 0)
(0 0 0)
(0 0 0)
(0 0 0)
(0 0 0)
(0 0 0)
(0 0 0)
(0 0 0)
(0 0 0)
(0 0 0)
(0 0 0)
(0 0 0)
(0 0 0)
(0 0 0)
(0 0 0)
(0 0 0)
(0 0 0)
(0 0 0)
(0 0 0)
(0 0 0)
(0 0 0)
(0 0 0)
(0 0 0)
(0 0 0)
(0 0 0)
(0 0 0)
(0 0 0)
(0 0 0)
(0 0 0)
(5.51614e-12 -1.23309e-09 0)
(0 0 0)
(-6.42148e-11 -2.41611e-09 0)
(1.36593e-11 -1.00489e-09 0)
(1.09791e-11 -1.12658e-09 0)
(-9.57904e-12 -1.00224e-09 0)
(5.03569e-11 -1.08207e-09 0)
(0 0 0)
(-1.50315e-10 -2.25174e-09 0)
(-1.25763e-10 -2.30563e-09 0)
(-1.05118e-10 -1.07168e-09 0)
(-4.3378e-11 -1.12847e-09 0)
(-2.53332e-11 -1.11557e-09 0)
(-3.79356e-11 -1.07191e-09 0)
(-3.64811e-11 -1.04973e-09 0)
(-1.47453e-11 -1.22424e-09 0)
(-3.10961e-11 -2.74748e-09 0)
(-1.9145e-11 -9.96143e-10 0)
(-3.62026e-11 -1.70866e-09 0)
(-5.37432e-12 -2.15288e-10 0)
(9.40962e-11 -1.09635e-09 0)
(3.24145e-12 -1.13304e-09 0)
(-4.82901e-11 -3.1147e-09 0)
(7.1904e-11 -1.33287e-09 0)
(2.77897e-11 -1.02272e-09 0)
(7.78156e-12 -9.91964e-10 0)
(4.1679e-12 -1.06512e-09 0)
(-1.38627e-11 -1.11169e-09 0)
(-1.75042e-12 -5.05534e-11 0)
(-3.64275e-11 -1.00994e-09 0)
(-6.92956e-12 -1.09053e-09 0)
(1.51413e-11 -1.44013e-09 0)
(2.54312e-11 -2.01989e-09 0)
(6.713e-11 -1.09502e-09 0)
(1.05304e-10 -1.3276e-09 0)
(0 0 0)
(7.20655e-12 -1.22863e-09 0)
(0 0 0)
(-4.42086e-11 -1.09564e-09 0)
(-1.03953e-10 -2.30484e-09 0)
(-5.04617e-11 -2.09943e-09 0)
(0 0 0)
(0 0 0)
(0 0 0)
(0 0 0)
(0 0 0)
(0 0 0)
(0 0 0)
(0 0 0)
(0 0 0)
(0 0 0)
(0 0 0)
(0 0 0)
(0 0 0)
(0 0 0)
(0 0 0)
(0 0 0)
(0 0 0)
(0 0 0)
(0 0 0)
(0 0 0)
(0 0 0)
(0 0 0)
(0 0 0)
(0 0 0)
(0 0 0)
(0 0 0)
(0 0 0)
(0 0 0)
(0 0 0)
(0 0 0)
(0 0 0)
(0 0 0)
(0 0 0)
(0 0 0)
(2.19367e-11 -1.02598e-09 0)
(-5.32083e-11 -1.12721e-09 0)
(-9.34331e-11 -1.07955e-09 0)
(-6.97805e-12 -1.04345e-09 0)
(3.52205e-12 -9.89757e-10 0)
(1.37495e-11 -1.07948e-09 0)
(-4.99502e-11 -1.19876e-09 0)
(2.44146e-11 -1.02216e-09 0)
(2.63908e-11 -1.03568e-09 0)
(-2.03953e-11 -1.16049e-09 0)
(-7.09272e-11 -1.13162e-09 0)
(-1.04704e-13 -1.06053e-09 0)
(0 0 0)
(4.35929e-13 -1.01545e-09 0)
(-4.95452e-11 -1.12212e-09 0)
(5.9247e-11 -3.00405e-09 0)
(-3.98141e-11 -1.08596e-09 0)
(-1.35678e-11 -9.47475e-10 0)
(-4.3161e-12 -9.81373e-10 0)
(1.93597e-11 -1.026e-09 0)
(4.36569e-11 -2.86502e-09 0)
(2.78027e-11 -1.13741e-09 0)
(9.26552e-12 -1.07858e-09 0)
(4.37866e-11 -1.29058e-09 0)
(1.08202e-10 -1.1967e-09 0)
(5.35129e-11 -1.01091e-09 0)
(3.13777e-11 -1.06561e-09 0)
(2.11694e-11 -1.2206e-09 0)
(-6.12702e-11 -1.15156e-09 0)
(-3.03095e-11 -1.11403e-09 0)
(-5.96296e-11 -1.02022e-09 0)
(-1.78277e-11 -1.01153e-09 0)
(6.68598e-12 -1.01455e-09 0)
(1.35453e-11 -9.89156e-10 0)
(-1.00127e-11 -2.48111e-09 0)
(2.00169e-10 -2.99625e-09 0)
(7.26564e-11 -1.05936e-09 0)
(9.15426e-11 -1.03621e-09 0)
(6.4925e-11 -2.46516e-09 0)
(-4.27781e-11 -9.51653e-10 0)
(-1.33107e-11 -9.28081e-10 0)
(9.16094e-12 -1.13162e-09 0)
(-3.81239e-12 -1.07881e-09 0)
(0 0 0)
(0 0 0)
(0 0 0)
(0 0 0)
(0 0 0)
(0 0 0)
(0 0 0)
(0 0 0)
(0 0 0)
(0 0 0)
(0 0 0)
(0 0 0)
(0 0 0)
(0 0 0)
(0 0 0)
(0 0 0)
(0 0 0)
(0 0 0)
(0 0 0)
(0 0 0)
(0 0 0)
(0 0 0)
(0 0 0)
(0 0 0)
(0 0 0)
(0 0 0)
(0 0 0)
(0 0 0)
(0 0 0)
(0 0 0)
(0 0 0)
(0 0 0)
(3.32801e-11 -2.79821e-09 0)
(3.46428e-13 -1.09218e-09 0)
(-7.66189e-11 -1.01061e-09 0)
(-7.28167e-11 -9.3771e-10 0)
(-2.17146e-11 -9.8819e-10 0)
(-5.52791e-11 -1.01622e-09 0)
(-3.68513e-11 -1.14943e-09 0)
(1.37717e-13 -1.07961e-09 0)
(-4.30425e-12 -2.50276e-09 0)
(-2.56069e-11 -1.26336e-09 0)
(0 0 0)
(2.28952e-11 -1.00343e-09 0)
(0 0 0)
(-1.47233e-11 -1.08173e-09 0)
(0 0 0)
(-7.22901e-11 -1.23134e-09 0)
(-2.77446e-11 -1.22404e-09 0)
(-4.15539e-12 -1.08115e-09 0)
(-2.39088e-11 -1.04987e-09 0)
(-5.41559e-11 -1.09566e-09 0)
(-7.03358e-11 -1.12555e-09 0)
(3.41699e-11 -2.43602e-09 0)
(7.82609e-11 -2.52564e-09 0)
(1.0008e-10 -1.1182e-09 0)
(7.31458e-11 -1.13719e-09 0)
(5.23944e-11 -1.07675e-09 0)
(-1.20661e-11 -1.10625e-09 0)
(2.73138e-11 -1.3283e-09 0)
(3.00681e-12 -1.58857e-10 0)
(1.64332e-11 -8.26769e-10 0)
(-5.09492e-13 -1.03068e-09 0)
(-1.21171e-11 -1.05153e-09 0)
(4.00332e-11 -2.32624e-09 0)
(1.00915e-11 -1.04673e-09 0)
(-5.79158e-11 -1.04387e-09 0)
(1.50575e-11 -2.18671e-09 0)
(1.0503e-10 -1.40779e-09 0)
(1.42766e-10 -2.68147e-09 0)
(-4.82704e-11 -1.07773e-09 0)
(-1.14729e-11 -9.16563e-10 0)
(-2.19621e-11 -9.57366e-10 0)
(0 0 0)
(0 0 0)
(0 0 0)
(0 0 0)
(0 0 0)
(0 0 0)
(0 0 0)
(0 0 0)
(0 0 0)
(0 0 0)
(0 0 0)
(0 0 0)
(0 0 0)
(0 0 0)
(0 0 0)
(0 0 0)
(0 0 0)
(0 0 0)
(0 0 0)
(0 0 0)
(0 0 0)
(0 0 0)
(0 0 0)
(0 0 0)
(0 0 0)
(0 0 0)
(0 0 0)
(0 0 0)
(0 0 0)
(0 0 0)
(0 0 0)
(0 0 0)
(0 0 0)
(0 0 0)
(-6.37555e-11 -1.03229e-09 0)
(5.62604e-11 -2.62644e-09 0)
(-5.90491e-11 -1.07511e-09 0)
(-4.56181e-11 -1.10911e-09 0)
(-5.40647e-11 -1.14521e-09 0)
(0 0 0)
(-1.18628e-10 -2.51046e-09 0)
(-1.58975e-11 -1.05626e-09 0)
(0 0 0)
(-2.28528e-11 -1.10691e-09 0)
(2.37502e-11 -1.20178e-09 0)
(4.49314e-11 -1.13832e-09 0)
(0 0 0)
(-2.3777e-12 -1.09975e-09 0)
(2.69654e-11 -1.18276e-09 0)
(0 0 0)
(2.38846e-11 -1.1841e-09 0)
(2.209e-12 -1.03502e-10 0)
(-3.19717e-13 -2.15513e-09 0)
(-2.31155e-11 -1.12495e-09 0)
(-5.59634e-11 -2.45728e-09 0)
(-3.86566e-11 -1.02655e-09 0)
(-4.88363e-11 -1.07142e-09 0)
(1.02484e-10 -2.83187e-09 0)
(5.86959e-11 -1.11403e-09 0)
(2.24638e-11 -1.06687e-09 0)
(0 0 0)
(4.88028e-11 -1.04562e-09 0)
(8.22928e-11 -1.14037e-09 0)
(6.7077e-11 -1.099e-09 0)
(9.67138e-14 -1.06939e-09 0)
(-3.34146e-11 -1.03297e-09 0)
(-4.41921e-11 -1.06115e-09 0)
(-5.2495e-12 -1.10667e-09 0)
(2.12657e-12 -1.1993e-09 0)
(-1.0895e-10 -2.45618e-09 0)
(-8.45856e-11 -2.28737e-09 0)
(-6.69135e-11 -2.27867e-09 0)
(6.71121e-11 -9.78469e-10 0)
(4.45939e-11 -1.67993e-09 0)
(1.77723e-12 -2.95045e-10 0)
(1.06461e-11 -9.8318e-10 0)
(0 0 0)
(0 0 0)
(0 0 0)
(0 0 0)
(0 0 0)
(0 0 0)
(0 0 0)
(0 0 0)
(0 0 0)
(0 0 0)
(0 0 0)
(0 0 0)
(0 0 0)
(0 0 0)
(0 0 0)
(0 0 0)
(0 0 0)
(0 0 0)
(0 0 0)
(0 0 0)
(0 0 0)
(0 0 0)
(0 0 0)
(0 0 0)
(0 0 0)
(0 0 0)
(0 0 0)
(0 0 0)
(0 0 0)
(0 0 0)
(0 0 0)
(0 0 0)
(0 0 0)
(-6.13176e-11 -1.17652e-09 0)
(-5.30284e-12 -1.38783e-09 0)
(0 0 0)
(-1.10168e-11 -1.12141e-09 0)
(-4.27659e-11 -1.20771e-09 0)
(0 0 0)
(-3.55003e-11 -1.15563e-09 0)
(-1.55673e-11 -1.11815e-09 0)
(-2.77079e-11 -1.08758e-09 0)
(-1.07495e-12 -1.1817e-09 0)
(0 0 0)
(6.44504e-11 -1.11338e-09 0)
(4.13399e-11 -1.11745e-09 0)
(1.38607e-11 -1.13551e-09 0)
(1.17759e-11 -1.1012e-09 0)
(3.30894e-11 -1.09014e-09 0)
(7.1903e-12 -1.13512e-09 0)
(-2.89582e-11 -1.15965e-09 0)
(-9.36152e-12 -1.15851e-09 0)
(-3.29598e-11 -1.17915e-09 0)
(-2.57908e-11 -1.17173e-09 0)
(0 0 0)
(-5.75347e-11 -1.15381e-09 0)
(-1.83905e-11 -1.25046e-09 0)
(0 0 0)
(1.24043e-10 -2.49189e-09 0)
(7.31909e-11 -1.09469e-09 0)
(1.54605e-10 -2.44135e-09 0)
(-2.39166e-11 -1.04828e-09 0)
(-9.02169e-12 -2.41061e-09 0)
(-1.81075e-12 -9.54518e-10 0)
(-2.18213e-11 -9.68482e-10 0)
(0 0 0)
(0 0 0)
(-1.10387e-10 -2.87638e-09 0)
(-2.1872e-12 -1.08321e-09 0)
(-6.22957e-11 -9.96029e-10 0)
(-3.33552e-11 -1.04301e-09 0)
(1.3698e-11 -1.08354e-09 0)
(3.59835e-11 -1.33142e-09 0)
(6.25864e-11 -2.02935e-09 0)
(5.87312e-11 -9.58793e-10 0)
(0 0 0)
(0 0 0)
(0 0 0)
(0 0 0)
(0 0 0)
(0 0 0)
(0 0 0)
(0 0 0)
(0 0 0)
(0 0 0)
(0 0 0)
(0 0 0)
(0 0 0)
(0 0 0)
(0 0 0)
(0 0 0)
(0 0 0)
(0 0 0)
(0 0 0)
(0 0 0)
(0 0 0)
(0 0 0)
(0 0 0)
(0 0 0)
(0 0 0)
(0 0 0)
(0 0 0)
(0 0 0)
(0 0 0)
(0 0 0)
(0 0 0)
(0 0 0)
(0 0 0)
(-3.39912e-12 -1.16346e-10 0)
(-2.96022e-11 -9.52525e-10 0)
(2.04603e-11 -1.20914e-09 0)
(0 0 0)
(-3.73801e-11 -1.08703e-09 0)
(5.27854e-12 -1.13762e-09 0)
(-2.97749e-12 -1.09606e-09 0)
(-1.66917e-11 -1.16574e-09 0)
(-2.09071e-11 -1.22098e-09 0)
(-1.32756e-12 -1.14592e-09 0)
(3.86101e-11 -1.12488e-09 0)
(2.93122e-12 -2.1882e-10 0)
(3.61359e-11 -1.9417e-09 0)
(1.03811e-11 -1.05473e-09 0)
(4.08322e-11 -1.0749e-09 0)
(4.03672e-11 -1.09289e-09 0)
(2.00999e-11 -1.16995e-09 0)
(0 0 0)
(2.2947e-11 -1.15326e-09 0)
(0 0 0)
(7.06531e-13 -1.18164e-09 0)
(-5.80457e-12 -1.16258e-09 0)
(-2.0799e-11 -1.27873e-09 0)
(0 0 0)
(0 0 0)
(0 0 0)
(6.72084e-11 -2.46634e-09 0)
(1.19761e-11 -2.69904e-09 0)
(-5.59678e-11 -1.07273e-09 0)
(-1.1676e-10 -2.3807e-09 0)
(-1.3289e-11 -9.05613e-10 0)
(-3.00946e-11 -9.28186e-10 0)
(1.15942e-11 -9.98066e-10 0)
(-3.28005e-11 -1.10037e-09 0)
(-1.62279e-10 -2.22052e-09 0)
(-4.9741e-11 -9.85425e-10 0)
(6.00029e-11 -9.87555e-10 0)
(-2.72281e-11 -1.12531e-09 0)
(-9.25039e-12 -1.12568e-09 0)
(4.94063e-12 -1.10817e-09 0)
(4.94201e-11 -2.01674e-09 0)
(2.0359e-12 -7.13287e-11 0)
(0 0 0)
(0 0 0)
(0 0 0)
(0 0 0)
(0 0 0)
(0 0 0)
(0 0 0)
(0 0 0)
(0 0 0)
(0 0 0)
(0 0 0)
(0 0 0)
(0 0 0)
(0 0 0)
(0 0 0)
(0 0 0)
(0 0 0)
(0 0 0)
(0 0 0)
(0 0 0)
(0 0 0)
(0 0 0)
(0 0 0)
(0 0 0)
(0 0 0)
(0 0 0)
(0 0 0)
(0 0 0)
(0 0 0)
(0 0 0)
(0 0 0)
(0 0 0)
(0 0 0)
(-1.03484e-11 -3.10965e-10 0)
(1.1506e-11 -1.11059e-09 0)
(-2.24842e-11 -1.22938e-09 0)
(2.4364e-12 -1.14714e-09 0)
(0 0 0)
(3.26134e-11 -1.11446e-09 0)
(1.06399e-11 -1.08859e-09 0)
(-6.38281e-11 -1.29416e-09 0)
(-2.67011e-11 -1.1233e-09 0)
(-2.04442e-12 -1.08655e-09 0)
(1.14101e-11 -1.03288e-09 0)
(1.46304e-11 -1.06354e-09 0)
(5.53311e-13 -1.08672e-09 0)
(3.66233e-11 -1.09398e-09 0)
(7.27499e-11 -1.08507e-09 0)
(7.88525e-12 -1.14291e-09 0)
(0 0 0)
(6.8197e-11 -1.13367e-09 0)
(7.76991e-11 -1.16988e-09 0)
(0 0 0)
(-1.34169e-11 -1.17741e-09 0)
(-3.4442e-11 -1.18156e-09 0)
(1.29545e-11 -1.18141e-09 0)
(4.18107e-11 -1.25805e-09 0)
(0 0 0)
(-2.14213e-10 -3.96406e-09 0)
(-5.13724e-11 -9.40227e-10 0)
(-9.64168e-11 -2.79933e-09 0)
(-1.89277e-11 -1.02775e-09 0)
(-4.82429e-11 -1.01416e-09 0)
(-4.02962e-11 -1.00452e-09 0)
(-3.62802e-11 -9.79038e-10 0)
(-4.88919e-11 -2.20192e-09 0)
(-6.94039e-11 -2.2286e-09 0)
(-2.38432e-11 -1.01421e-09 0)
(1.23353e-11 -1.08409e-09 0)
(0 0 0)
(-3.75364e-11 -1.22544e-09 0)
(-2.89722e-11 -2.37574e-09 0)
(1.96265e-11 -9.84503e-10 0)
(6.6005e-11 -9.78831e-10 0)
(-2.20662e-11 -1.04133e-09 0)
(-1.21847e-11 -1.02213e-09 0)
(-3.36072e-11 -1.00452e-09 0)
(0 0 0)
(0 0 0)
(0 0 0)
(0 0 0)
(0 0 0)
(0 0 0)
(0 0 0)
(0 0 0)
(0 0 0)
(0 0 0)
(0 0 0)
(0 0 0)
(0 0 0)
(0 0 0)
(0 0 0)
(0 0 0)
(0 0 0)
(0 0 0)
(0 0 0)
(0 0 0)
(0 0 0)
(0 0 0)
(0 0 0)
(0 0 0)
(0 0 0)
(0 0 0)
(0 0 0)
(0 0 0)
(0 0 0)
(0 0 0)
(0 0 0)
(4.96083e-11 -1.01972e-09 0)
(-1.0197e-11 -1.26049e-09 0)
(0 0 0)
(5.33773e-12 -1.06963e-09 0)
(5.04648e-11 -1.03597e-09 0)
(6.39526e-11 -1.07373e-09 0)
(1.87915e-12 -1.29424e-09 0)
(0 0 0)
(-1.79713e-12 -1.11601e-09 0)
(3.32891e-14 -1.05248e-09 0)
(1.15905e-11 -1.065e-09 0)
(-2.6724e-12 -1.09614e-09 0)
(1.35309e-13 -1.1275e-09 0)
(4.24907e-11 -1.11188e-09 0)
(4.142e-11 -1.09644e-09 0)
(4.78127e-12 -2.08816e-10 0)
(1.933e-11 -7.42945e-10 0)
(7.0856e-11 -1.14413e-09 0)
(4.48209e-11 -1.14661e-09 0)
(4.57674e-11 -1.26962e-09 0)
(-5.28924e-11 -1.24496e-09 0)
(0 0 0)
(-2.43725e-11 -1.09313e-09 0)
(-1.49816e-10 -3.17749e-09 0)
(-9.56417e-11 -1.12645e-09 0)
(-8.63992e-11 -1.02808e-09 0)
(-1.78006e-10 -2.30641e-09 0)
(-1.0449e-10 -1.08014e-09 0)
(-5.1191e-11 -1.103e-09 0)
(-1.30118e-11 -1.02654e-09 0)
(-2.65349e-12 -1.06788e-09 0)
(-2.20235e-11 -1.07192e-09 0)
(-1.24442e-11 -1.06123e-09 0)
(0 0 0)