/*--------------------------------*- C++ -*----------------------------------*\
  =========                 |
  \\      /  F ield         | OpenFOAM: The Open Source CFD Toolbox
   \\    /   O peration     | Website:  https://openfoam.org
    \\  /    A nd           | Version:  12
     \\/     M anipulation  |
\*---------------------------------------------------------------------------*/
FoamFile
{
    format      ascii;
    class       volScalarField::Internal;
    location    "0.65";
    object      cloud:UCoeff;
}
// * * * * * * * * * * * * * * * * * * * * * * * * * * * * * * * * * * * * * //

dimensions      [1 0 0 0 0 0 0];

value           nonuniform List<scalar> 
3750
(
3.26278e-08
3.22505e-08
3.19606e-08
0
3.1273e-08
3.08835e-08
2.9831e-08
3.13945e-08
3.15768e-08
7.35071e-08
2.95822e-08
7.19672e-08
3.02404e-08
3.0185e-08
3.03097e-08
7.36581e-08
3.05349e-08
3.17533e-08
3.06436e-08
3.02758e-08
3.0966e-08
3.18184e-08
3.09348e-08
3.13788e-08
3.00075e-08
2.46482e-08
4.76932e-08
1.19304e-08
3.08135e-08
5.29348e-08
9.39718e-09
2.86974e-08
7.07562e-08
2.92964e-08
2.90024e-08
3.0565e-08
3.09378e-08
3.12785e-08
0
3.06305e-08
3.27914e-08
3.22298e-08
7.40501e-08
3.01287e-08
7.23332e-08
2.82264e-08
0
2.94378e-08
3.05448e-08
3.07044e-08
3.05782e-08
7.47388e-08
0
0
0
0
0
0
0
0
0
0
0
0
0
0
0
0
0
0
0
0
0
0
0
0
3.2963e-08
4.44054e-08
5.83686e-08
7.16989e-08
0
1.0704e-08
1.06411e-08
0
3.04189e-08
2.91979e-08
3.09892e-08
7.32556e-08
7.13876e-08
1.24698e-07
2.9618e-08
3.01168e-08
0
0
0
3.07231e-08
3.17591e-08
3.17612e-08
3.13086e-08
7.33643e-08
2.99222e-08
3.0341e-08
0
0
3.13601e-08
0
7.15282e-08
6.92192e-08
6.86802e-08
2.94972e-08
0
0
3.16209e-08
0
7.75141e-08
0
3.17688e-08
3.08793e-08
2.97512e-08
2.97811e-08
2.82868e-08
7.23865e-08
0
0
0
0
0
0
0
0
0
0
0
0
0
0
0
0
0
0
0
0
0
0
0
0
0
0
0
0
7.95464e-08
0
0
3.08646e-08
0
7.13155e-08
7.26058e-08
3.03641e-08
3.11343e-08
0
3.11166e-08
0
3.04626e-08
7.30857e-08
0
3.03775e-08
3.06844e-08
3.10941e-08
3.13823e-08
3.19487e-08
1.54305e-08
4.11234e-09
7.32571e-08
6.97436e-08
7.28192e-08
3.03275e-08
7.57593e-08
1.17306e-09
2.9e-08
3.09396e-08
7.13911e-08
7.13764e-08
0
3.14532e-08
7.03527e-08
0
3.09012e-08
3.09013e-08
3.04013e-08
7.86584e-08
7.8877e-08
2.97653e-08
2.89043e-08
2.95561e-08
2.93542e-08
0
0
0
0
0
0
0
0
0
0
0
0
0
0
0
0
0
0
0
0
0
0
0
0
0
0
0
0
0
0
3.14466e-08
3.11738e-08
3.23993e-08
3.19712e-08
3.01907e-08
0
0
2.87172e-08
3.08645e-08
3.1585e-08
0
3.14325e-08
7.31106e-08
3.02086e-08
3.01746e-08
3.12455e-08
3.10845e-08
3.10706e-08
3.03974e-08
7.31371e-08
7.44296e-08
7.33073e-08
2.94709e-08
3.00515e-08
3.04892e-08
7.65865e-08
3.13855e-08
1.63524e-08
4.48773e-09
2.72087e-08
3.0473e-08
3.04799e-08
3.06853e-08
3.09061e-08
3.11404e-08
3.06269e-08
3.04056e-08
3.07942e-08
3.10851e-08
3.16828e-08
7.7823e-08
3.03139e-08
2.88158e-08
0
0
0
0
0
0
0
0
0
0
0
0
0
0
0
0
0
0
0
0
0
0
0
0
0
0
0
0
0
0
0
0
3.01733e-08
0
6.20938e-08
4.14821e-08
0
3.04333e-08
3.04968e-08
3.06696e-08
3.33284e-08
0
3.08501e-08
0
7.43939e-08
3.07631e-08
3.03212e-08
3.06187e-08
3.12964e-08
7.39756e-08
2.98223e-08
3.03681e-08
3.08644e-08
3.05556e-08
2.99117e-08
3.17675e-08
0
3.14548e-08
3.16682e-08
3.12533e-08
3.40915e-08
2.73083e-08
7.39868e-08
3.01595e-08
3.00888e-08
3.22965e-08
3.18009e-08
4.35743e-08
1.58312e-08
0
0
9.85553e-09
5.17403e-08
3.03207e-08
3.05748e-08
3.00107e-08
0
0
0
0
0
0
0
0
0
0
0
0
0
0
0
0
0
0
0
0
0
0
0
0
0
0
0
0
0
0
0
3.04538e-08
0
3.10176e-08
3.22717e-08
3.22285e-08
3.28534e-08
6.99602e-10
2.96479e-08
3.09091e-08
3.20496e-08
3.05387e-08
3.03375e-08
7.65607e-08
3.00711e-08
2.94242e-08
3.00409e-08
3.14968e-08
7.5912e-08
2.9361e-08
3.1225e-08
3.34371e-08
3.12428e-08
2.89612e-08
3.1364e-08
0
3.08999e-08
3.12929e-08
3.13465e-08
3.09246e-08
3.05518e-08
3.03085e-08
2.98884e-08
7.80856e-08
3.28996e-08
3.01004e-08
2.92271e-08
3.04606e-08
3.14609e-08
0
7.32352e-08
0
3.11797e-08
0
3.11466e-08
0
0
0
0
0
0
0
0
0
0
0
0
0
0
0
0
0
0
0
0
0
0
0
0
0
0
0
0
0
0
0
2.97861e-08
2.98426e-08
2.99887e-08
3.12907e-08
3.15091e-08
3.20916e-08
3.22775e-08
3.08949e-08
7.43393e-08
2.9503e-08
2.84458e-08
7.15202e-08
3.09204e-08
3.08047e-08
3.03864e-08
3.08809e-08
3.30936e-08
0
3.16835e-08
4.61806e-08
1.54989e-08
3.24525e-08
3.07908e-08
3.09082e-08
3.1242e-08
3.12778e-08
3.09586e-08
3.09157e-08
3.07957e-08
3.0718e-08
3.07523e-08
3.11327e-08
3.1852e-08
3.22766e-08
3.05557e-08
3.01419e-08
7.3189e-08
0
7.38929e-08
3.04881e-08
3.07101e-08
2.9831e-08
3.12561e-08
0
0
0
0
0
0
0
0
0
0
0
0
0
0
0
0
0
0
0
0
0
0
0
0
0
0
0
0
0
0
0
0
3.12297e-08
3.09286e-08
3.08516e-08
3.23596e-08
3.22446e-08
3.15892e-08
3.05298e-08
2.98778e-08
7.10532e-08
9.26378e-08
9.47074e-08
3.06504e-08
3.14175e-08
0
3.0422e-08
3.15394e-08
3.1313e-08
3.25688e-08
0
3.05931e-08
3.15398e-08
3.12867e-08
3.09951e-08
3.11054e-08
3.13955e-08
3.08892e-08
3.09231e-08
3.09921e-08
1.16637e-08
8.40355e-09
3.0872e-08
3.11336e-08
3.14903e-08
3.17632e-08
3.13209e-08
3.06595e-08
3.03632e-08
3.02196e-08
3.11253e-08
3.00622e-08
7.34237e-08
7.19812e-08
2.9658e-08
0
0
0
0
0
0
0
0
0
0
0
0
0
0
0
0
0
0
0
0
0
0
0
0
0
0
0
0
0
0
0
0
7.29075e-08
5.44657e-08
4.23422e-08
0
3.14313e-08
3.14139e-08
5.56399e-08
4.20753e-08
2.97153e-08
7.08912e-08
2.93308e-08
3.35075e-08
0
3.05724e-08
3.26969e-08
0
3.04238e-08
3.13363e-08
3.1938e-08
3.23539e-08
3.15017e-08
3.01979e-08
3.06939e-08
3.11784e-08
3.10407e-08
3.07243e-08
3.11635e-08
3.08666e-08
3.07163e-08
0
2.96396e-08
3.07368e-08
3.22449e-08
7.09033e-09
1.8638e-08
3.07102e-08
3.08687e-08
3.12049e-08
3.3416e-08
0
3.08299e-08
3.00627e-08
3.01302e-08
2.99414e-08
0
0
0
0
0
0
0
0
0
0
0
0
0
0
0
0
0
0
0
0
0
0
0
0
0
0
0
0
0
0
0
7.36335e-08
7.36246e-08
7.19906e-08
2.97482e-08
3.39063e-08
2.71721e-08
3.08447e-08
3.07323e-08
3.06222e-08
3.01607e-08
3.08185e-08
3.3655e-08
0
3.15764e-08
0
3.16569e-08
3.15362e-08
0
3.09612e-08
3.09238e-08
3.15745e-08
3.07145e-08
3.0761e-08
7.78503e-08
2.9905e-08
2.91899e-08
2.97652e-08
3.09067e-08
0
3.06005e-08
2.95942e-08
3.08328e-08
3.28698e-08
0
3.09765e-08
0
3.09067e-08
3.14874e-08
0
3.18395e-08
3.09712e-08
3.03686e-08
3.00568e-08
3.05774e-08
3.00994e-08
0
0
0
0
0
0
0
0
0
0
0
0
0
0
0
0
0
0
0
0
0
0
0
0
0
0
0
0
0
0
7.7656e-08
3.04584e-08
7.15877e-08
7.02106e-08
7.13423e-08
2.97996e-08
7.45267e-08
0
3.06768e-08
0
7.30557e-08
3.07954e-08
3.09223e-08
0
3.06306e-08
3.10033e-08
3.15474e-08
3.07211e-08
3.10383e-08
0
3.0221e-08
3.41778e-08
0
3.36406e-08
3.03845e-08
7.05806e-08
2.87421e-08
7.60113e-08
3.04101e-08
2.92416e-08
0
2.95933e-08
3.15483e-08
3.17255e-08
3.09333e-08
0
3.14592e-08
3.14194e-08
0
2.93069e-08
0
3.04935e-08
3.00779e-08
3.08501e-08
3.08421e-08
3.00073e-08
0
0
0
0
0
0
0
0
0
0
0
0
0
0
0
0
0
0
0
0
0
0
0
0
0
0
0
0
0
3.14478e-08
3.1696e-08
3.1471e-08
3.11654e-08
3.09461e-08
3.01762e-08
7.12493e-08
2.95213e-08
7.1e-08
6.99523e-08
0
3.11348e-08
3.12792e-08
3.11913e-08
3.12239e-08
3.16614e-08
3.14986e-08
3.09786e-08
3.11515e-08
0
3.0364e-08
3.20018e-08
3.49345e-08
0
3.20263e-08
7.2881e-08
2.97447e-08
3.06118e-08
3.09128e-08
3.03066e-08
3.03882e-08
3.00486e-08
3.11189e-08
3.14801e-08
0
3.08618e-08
7.43433e-08
3.02889e-08
0
0
7.34071e-08
4.0888e-08
5.70046e-08
3.01175e-08
2.95014e-08
0
0
0
0
0
0
0
0
0
0
0
0
0
0
0
0
0
0
0
0
0
0
0
0
0
0
0
0
0
0
0
0
0
0
0
3.30653e-08
3.2598e-08
0
0
0
7.70981e-08
3.05703e-08
2.97227e-08
2.99901e-08
2.9827e-08
7.77399e-08
3.46244e-08
6.6568e-08
2.95847e-08
2.97621e-08
3.09812e-08
3.16436e-08
3.34938e-08
3.38527e-08
3.08686e-08
3.04614e-08
2.97658e-08
2.99187e-08
3.05551e-08
3.06616e-08
3.05924e-08
3.05733e-08
3.07078e-08
3.09587e-08
0
0
0
3.06162e-08
3.07208e-08
3.11702e-08
0
7.15274e-08
7.21498e-08
2.89627e-08
0
0
0
0
0
0
0
0
0
0
0
0
0
0
0
0
0
0
0
0
0
0
0
0
0
0
0
0
0
0
0
3.2179e-08
0
7.32609e-08
2.97536e-08
3.1076e-08
2.97234e-08
3.06124e-08
0
7.15837e-08
7.21235e-08
3.05432e-08
3.11043e-08
3.09617e-08
3.04972e-08
3.02553e-08
3.20898e-08
7.65371e-08
2.96566e-08
5.19332e-08
6.60733e-09
3.07966e-08
3.11438e-08
8.00618e-08
3.31913e-08
2.99551e-08
2.9608e-08
3.04163e-08
3.09183e-08
1.40752e-09
2.82391e-08
3.06911e-08
4.1865e-08
5.96954e-08
3.07612e-08
3.31613e-08
0
3.21338e-08
0
3.07554e-08
7.2107e-08
6.98758e-08
0
0
0
0
0
0
0
0
0
0
0
0
0
0
0
0
0
0
0
0
0
0
0
0
0
0
0
0
0
0
0
0
0
0
2.99896e-08
3.10956e-08
3.06163e-08
3.01798e-08
2.95829e-08
3.05728e-08
3.18391e-08
2.99479e-08
3.00978e-08
3.14337e-08
3.11523e-08
3.03663e-08
0
2.98702e-08
3.10398e-08
7.90382e-08
3.06496e-08
2.91032e-08
2.94884e-08
2.99893e-08
7.77294e-08
3.11935e-08
3.05625e-08
3.2763e-08
3.18575e-08
2.98355e-08
3.04266e-08
3.20537e-08
3.13556e-08
3.09467e-08
2.99426e-08
2.98283e-08
2.98604e-08
2.95771e-08
7.39188e-08
7.90233e-08
3.03808e-08
3.01444e-08
7.3755e-08
2.91611e-08
2.88795e-08
3.11292e-08
3.05647e-08
0
0
0
0
0
0
0
0
0
0
0
0
0
0
0
0
0
0
0
0
0
0
0
0
0
0
0
0
0
0
0
0
7.70579e-08
3.07087e-08
2.98487e-08
2.90223e-08
2.95679e-08
2.98955e-08
3.13224e-08
3.05733e-08
7.414e-08
3.24869e-08
0
2.97392e-08
0
3.05972e-08
0
3.21826e-08
3.20901e-08
3.059e-08
3.02529e-08
3.07604e-08
3.10879e-08
7.34553e-08
7.43872e-08
3.10342e-08
3.12124e-08
3.05562e-08
3.08599e-08
3.31302e-08
4.3733e-09
2.29623e-08
3.00389e-08
3.02688e-08
7.23224e-08
3.02161e-08
3.02018e-08
5.95533e-08
4.11003e-08
7.59851e-08
3.05646e-08
2.87452e-08
2.92184e-08
0
0
0
0
0
0
0
0
0
0
0
0
0
0
0
0
0
0
0
0
0
0
0
0
0
0
0
0
0
0
0
0
0
0
3.00784e-08
7.53997e-08
3.05422e-08
3.08998e-08
3.12853e-08
0
7.42623e-08
3.0321e-08
0
3.08689e-08
3.18619e-08
3.12089e-08
0
3.07899e-08
3.16665e-08
0
3.16797e-08
3.15894e-09
6.55677e-08
3.10607e-08
7.36807e-08
3.00014e-08
3.04967e-08
7.74149e-08
3.09588e-08
3.04378e-08
0
3.02158e-08
3.12523e-08
3.08038e-08
3.04627e-08
3.00702e-08
3.0383e-08
3.08639e-08
3.18339e-08
7.36864e-08
7.19174e-08
7.18191e-08
2.94815e-08
5.00076e-08
9.1049e-09
2.95094e-08
0
0
0
0
0
0
0
0
0
0
0
0
0
0
0
0
0
0
0
0
0
0
0
0
0
0
0
0
0
0
0
0
0
3.16152e-08
3.37043e-08
0
3.10213e-08
3.19279e-08
0
3.13868e-08
3.09873e-08
3.0663e-08
3.16523e-08
0
3.09552e-08
3.09868e-08
3.11708e-08
3.0806e-08
3.06922e-08
3.1166e-08
3.14269e-08
3.14116e-08
3.16307e-08
3.1552e-08
0
3.13771e-08
3.23557e-08
0
7.40611e-08
3.07619e-08
7.35605e-08
3.02355e-08
7.31806e-08
2.91829e-08
2.9345e-08
0
0
7.78432e-08
3.06121e-08
2.96752e-08
3.01806e-08
3.06166e-08
3.81205e-08
6.30819e-08
2.92524e-08
0
0
0
0
0
0
0
0
0
0
0
0
0
0
0
0
0
0
0
0
0
0
0
0
0
0
0
0
0
0
0
0
0
3.14301e-09
2.57517e-08
3.19366e-08
0
3.06602e-08
3.11922e-08
3.07503e-08
3.14879e-08
3.20575e-08
3.12794e-08
3.10645e-08
6.35906e-09
5.87797e-08
3.03036e-08
3.05307e-08
3.07243e-08
3.15323e-08
0
3.13587e-08
0
3.16517e-08
3.14539e-08
3.26394e-08
0
0
0
7.37801e-08
7.60958e-08
3.05147e-08
7.29031e-08
2.86174e-08
2.88852e-08
2.96769e-08
3.08017e-08
7.12506e-08
2.95482e-08
2.95786e-08
3.10656e-08
3.10664e-08
3.08799e-08
5.83411e-08
2.03721e-09
0
0
0
0
0
0
0
0
0
0
0
0
0
0
0
0
0
0
0
0
0
0
0
0
0
0
0
0
0
0
0
0
0
9.37979e-09
3.09062e-08
3.21433e-08
3.12923e-08
0
3.09519e-08
3.06706e-08
3.28068e-08
3.10442e-08
3.06481e-08
3.00639e-08
3.04001e-08
3.06499e-08
3.07346e-08
3.06584e-08
3.1248e-08
0
3.11721e-08
3.15566e-08
0
3.16087e-08
3.16561e-08
3.16501e-08
3.24377e-08
0
1.27177e-07
2.9035e-08
7.71056e-08
3.00086e-08
2.98687e-08
2.97575e-08
2.94695e-08
7.09922e-08
7.12861e-08
2.98596e-08
3.06223e-08
0
3.38904e-08
7.05875e-08
2.95259e-08
2.94848e-08
3.01588e-08
2.99452e-08
2.97547e-08
0
0
0
0
0
0
0
0
0
0
0
0
0
0
0
0
0
0
0
0
0
0
0
0
0
0
0
0
0
0
0
2.9931e-08
3.24557e-08
0
3.04653e-08
3.01108e-08
3.05302e-08
3.27919e-08
0
3.09634e-08
3.02785e-08
3.04157e-08
3.07512e-08
3.10853e-08
3.09281e-08
3.07628e-08
5.73506e-09
2.05534e-08
3.12836e-08
3.12958e-08
3.25549e-08
3.23104e-08
0
3.07218e-08
8.06726e-08
3.11171e-08
3.00504e-08
7.2159e-08
3.06335e-08
3.08373e-08
2.99941e-08
3.04462e-08
3.04925e-08
3.03747e-08
0
3.04044e-08
3.02784e-08
7.77192e-08
0
3.09999e-08
0
0
3.09368e-08
0
0
0
0
0
0
0
0
0
0
0
0
0
0
0
0
0
0
0
0
0
0
0
0
0
0
0
0
0
0
0
0
0
7.32134e-08
3.03849e-08
3.04941e-08
2.99184e-08
3.04124e-08
3.06375e-08
3.23986e-08
0
3.12108e-08
3.11027e-08
3.11614e-08
3.10028e-08
3.08347e-08
3.03559e-08
3.10354e-08
0
3.0747e-08
7.29228e-08
3.00254e-08
7.86897e-08
3.14007e-08
3.00856e-08
3.11187e-08
3.31245e-08
0
3.1669e-08
3.08166e-08
3.09158e-08
3.12204e-08
3.08411e-08
3.13946e-08
0
3.01419e-08
3.11368e-08
3.12921e-08
0
3.10821e-08
3.17268e-08
0
3.17335e-08
5.69122e-08
3.97055e-08
3.04575e-08
3.18656e-08
2.87186e-08
0
0
0
0
0
0
0
0
0
0
0
0
0
0
0
0
0
0
0
0
0
0
0
0
0
0
0
0
0
0
3.04883e-08
7.3734e-08
2.80354e-08
2.97466e-08
3.03335e-08
7.16781e-08
2.94524e-08
3.03955e-08
3.08777e-08
3.10277e-08
3.14069e-08
3.13202e-08
3.0674e-08
3.01364e-08
7.17146e-08
2.8519e-08
7.09218e-08
7.09887e-08
3.14402e-08
3.27356e-08
3.22225e-08
3.11809e-08
0
3.21589e-08
3.25951e-08
0
3.14064e-08
3.13941e-08
0
3.15365e-08
0
3.05785e-08
3.12103e-08
3.05719e-08
2.98758e-08
3.1394e-08
8.45058e-09
1.62236e-08
3.12963e-08
3.17068e-08
3.11637e-08
2.96431e-08
2.95029e-08
3.0439e-08
2.97026e-08
0
0
0
0
0
0
0
0
0
0
0
0
0
0
0
0
0
0
0
0
0
0
0
0
0
0
0
0
0
0
0
3.17908e-08
7.26765e-08
7.25815e-08
3.07883e-08
3.02688e-08
2.98818e-08
3.00601e-08
7.25151e-08
2.99395e-08
3.12651e-08
5.05111e-08
4.97042e-08
7.17229e-08
2.84539e-08
2.89675e-08
2.99845e-08
3.11178e-08
3.42148e-08
1.52125e-08
5.98615e-09
3.17817e-08
0
0
3.01755e-08
3.29132e-08
0
3.0761e-08
4.851e-09
2.25513e-08
3.11448e-08
3.05901e-08
3.0865e-08
3.08616e-08
0
3.08441e-08
3.1213e-08
3.11809e-08
3.08831e-08
3.10899e-08
3.13683e-08
3.16025e-08
3.0973e-08
3.08312e-08
3.07198e-08
0
0
0
0
0
0
0
0
0
0
0
0
0
0
0
0
0
0
0
0
0
0
0
0
0
0
0
0
0
0
3.03986e-08
7.55877e-08
1.51035e-08
3.6876e-09
3.56097e-08
6.75103e-08
3.00265e-08
3.00674e-08
5.3759e-08
4.22833e-08
1.31711e-07
3.50354e-08
6.53819e-08
2.8637e-08
2.86284e-08
2.95362e-08
3.1211e-08
0
3.1998e-08
0
3.01899e-08
3.1306e-08
7.40154e-08
7.17024e-08
3.03673e-08
7.75897e-08
0
2.95777e-08
1.05566e-08
1.06914e-08
3.08515e-08
3.02208e-08
3.07608e-08
0
3.06884e-08
3.07702e-08
3.1921e-08
7.24108e-08
3.02932e-08
3.08595e-08
3.13762e-08
3.08249e-08
3.02117e-08
3.01943e-08
0
0
0
0
0
0
0
0
0
0
0
0
0
0
0
0
0
0
0
0
0
0
0
0
0
0
0
0
0
0
0
3.09943e-08
0
3.12144e-08
0
3.04723e-08
3.02277e-08
3.00607e-08
3.07717e-08
3.09025e-08
3.14137e-08
3.1307e-08
7.46925e-08
6.99631e-08
6.88154e-08
2.97187e-08
0
3.08382e-08
0
7.43587e-08
7.80309e-08
3.2515e-08
7.80076e-08
3.02846e-08
3.11739e-08
0
3.19184e-08
3.11353e-08
7.19913e-08
3.00635e-08
0
3.06378e-08
3.05934e-08
7.35267e-08
2.97482e-08
2.99428e-08
7.39204e-08
2.93311e-08
2.93706e-08
3.02939e-08
3.24869e-08
3.22396e-08
0
3.07296e-08
0
0
0
0
0
0
0
0
0
0
0
0
0
0
0
0
0
0
0
0
0
0
0
0
0
0
0
0
0
0
0
0
3.06222e-08
3.13115e-08
0
3.15153e-08
7.24495e-08
3.10921e-08
3.08249e-08
3.06158e-08
3.07856e-08
3.1e-08
0
3.10128e-08
2.96537e-08
0
6.98412e-08
1.29403e-07
7.19709e-08
2.88931e-08
2.87094e-08
0
0
3.25913e-08
3.24271e-08
3.17268e-08
0
3.15585e-08
4.72785e-08
5.29801e-08
2.97173e-08
7.13528e-08
2.98816e-08
7.19187e-08
3.0334e-08
3.04757e-08
3.08752e-08
3.07436e-08
3.069e-08
3.06072e-08
3.12989e-08
3.39142e-08
0
3.01576e-08
3.10718e-08
0
0
0
0
0
0
0
0
0
0
0
0
0
0
0
0
0
0
0
0
0
0
0
0
0
0
0
0
0
0
0
0
3.12511e-08
3.15781e-08
3.19602e-08
3.15608e-08
3.10728e-08
3.07615e-08
7.40407e-08
2.91393e-08
2.96745e-08
0
3.15068e-08
3.16548e-08
3.08427e-08
2.98501e-08
3.04772e-08
3.11107e-08
3.10189e-08
7.31534e-08
2.97368e-08
3.11422e-08
3.21487e-08
0
3.13655e-08
3.19966e-08
0
3.86125e-08
2.2592e-08
3.07963e-08
2.94231e-08
2.8947e-08
7.22713e-08
2.94583e-08
3.01087e-08
0
3.0532e-08
3.10654e-08
3.23801e-08
0
3.14513e-08
3.20908e-08
3.18459e-08
7.49805e-08
3.00434e-08
0
0
0
0
0
0
0
0
0
0
0
0
0
0
0
0
0
0
0
0
0
0
0
0
0
0
0
0
0
0
0
0
3.05034e-08
3.16533e-08
0
3.14011e-08
3.06134e-08
7.25205e-08
2.95509e-08
2.96588e-08
2.96967e-08
3.06631e-08
0
3.22316e-08
3.87321e-08
6.09944e-08
2.98214e-08
0
3.06885e-08
3.01167e-08
3.05077e-08
3.17177e-08
0
9.23594e-08
6.04001e-08
3.0937e-08
3.05795e-08
3.06075e-08
3.04178e-08
7.31289e-08
7.12825e-08
2.82364e-08
2.95609e-08
7.15955e-08
7.18578e-08
2.92651e-08
3.05275e-08
0
3.16008e-08
3.22466e-08
0
3.17689e-08
3.14817e-08
0
0
2.88356e-08
7.36134e-08
0
0
0
0
0
0
0
0
0
0
0
0
0
0
0
0
0
0
0
0
0
0
0
0
0
0
0
0
0
0
3.00691e-08
4.19328e-09
1.34969e-07
2.94477e-08
2.9526e-08
3.01417e-08
3.05902e-08
3.96505e-08
2.00984e-08
2.92041e-08
7.62787e-08
7.8239e-08
2.9949e-08
0
2.99468e-08
1.51888e-08
3.88761e-09
3.09379e-08
0
0
7.43326e-08
3.09872e-08
8.12202e-08
3.03196e-08
2.96286e-08
0
3.09059e-08
3.01964e-08
2.96926e-08
2.96614e-08
3.03173e-08
0
2.97806e-08
2.84435e-08
3.09419e-08
3.1541e-08
3.18211e-08
3.2844e-08
3.30152e-08
0
3.05337e-08
0
7.29961e-08
7.17775e-08
2.79284e-08
0
0
0
0
0
0
0
0
0
0
0
0
0
0
0
0
0
0
0
0
0
0
0
0
0
0
0
0
0
0
2.39396e-08
1.10437e-07
3.24488e-08
2.9875e-08
2.95291e-08
3.13152e-08
0
0
7.17567e-08
2.92652e-08
3.08755e-08
3.05848e-08
3.21562e-08
2.92754e-08
0
3.06184e-08
3.11536e-08
3.11039e-08
3.17424e-08
1.42876e-08
4.61484e-09
3.2961e-08
3.17713e-08
7.32536e-08
2.85007e-08
7.20916e-08
3.05112e-08
7.12928e-08
2.8933e-08
3.02392e-08
3.12778e-08
3.12348e-08
3.07656e-08
2.97428e-08
2.94423e-08
0
7.81887e-08
3.41727e-08
3.2135e-08
0
2.8921e-08
3.04354e-08
0
3.08e-08
0
0
0
0
0
0
0
0
0
0
0
0
0
0
0
0
0
0
0
0
0
0
0
0
0
0
0
0
0
0
0
2.88625e-08
7.29284e-08
7.77355e-08
2.94802e-08
2.87318e-08
3.30693e-08
0
7.11998e-08
2.96506e-08
3.00484e-08
3.11355e-08
3.1096e-08
3.12746e-08
0
2.97864e-08
3.07364e-08
3.10749e-08
3.15238e-08
0
3.23002e-08
3.11474e-08
7.37595e-08
7.32884e-08
2.9763e-08
7.08848e-08
2.95333e-08
3.74421e-08
6.23662e-08
3.00104e-08
3.23203e-08
0
3.07399e-08
3.00121e-08
2.9788e-08
2.99903e-08
3.39051e-08
2.72314e-08
3.29843e-08
0
7.31469e-08
2.9836e-08
2.91871e-08
3.10932e-08
0
0
0
0
0
0
0
0
0
0
0
0
0
0
0
0
0
0
0
0
0
0
0
0
0
0
0
0
0
0
0
0
7.43341e-08
2.61319e-09
6.92156e-08
3.02309e-08
3.18938e-08
0
3.13888e-08
3.11022e-08
0
3.06223e-08
3.16993e-08
8.5524e-09
1.54203e-08
3.12535e-08
3.06036e-08
3.10248e-08
0
7.36185e-08
7.9091e-08
3.01232e-08
7.12035e-08
7.41763e-08
2.96128e-08
7.26103e-08
2.97934e-08
2.92431e-08
3.04068e-08
3.04855e-08
3.06151e-08
3.14832e-08
3.19654e-08
3.09792e-08
3.03712e-08
3.05038e-08
3.06301e-08
3.01788e-08
5.78598e-08
4.19896e-08
7.29292e-08
2.98939e-08
7.19829e-08
3.04091e-08
0
0
0
0
0
0
0
0
0
0
0
0
0
0
0
0
0
0
0
0
0
0
0
0
0
0
0
0
0
0
0
0
0
3.01023e-08
1.29411e-07
0
0
3.12293e-08
3.15022e-08
3.0605e-08
3.16455e-08
0
3.0801e-08
0
4.79153e-08
0
7.27822e-08
3.056e-08
3.0436e-08
3.00446e-08
7.88374e-08
0
0
0
0
0
3.11745e-08
3.08629e-08
7.19988e-08
2.95568e-08
7.65478e-08
2.99555e-08
2.954e-08
3.0378e-08
3.10122e-08
3.08992e-08
3.10007e-08
3.0866e-08
3.06808e-08
3.11952e-08
3.09947e-08
3.05801e-08
2.98502e-08
2.95263e-08
7.67443e-08
0
0
0
0
0
0
0
0
0
0
0
0
0
0
0
0
0
0
0
0
0
0
0
0
0
0
0
0
0
0
0
0
0
3.04375e-08
0
3.04754e-08
3.09891e-08
3.13316e-08
3.07722e-08
2.96862e-08
3.03671e-08
3.10724e-08
3.13927e-08
0
5.24783e-08
3.0262e-08
7.33339e-08
3.04572e-08
0
0
0
3.23409e-08
3.1017e-08
3.06663e-08
3.04299e-08
7.40613e-08
7.45204e-08
0
2.99854e-08
3.03407e-08
3.11933e-08
7.59071e-08
2.92404e-08
3.01178e-08
3.07083e-08
3.11946e-08
3.08878e-08
3.01241e-08
5.93317e-09
1.11311e-07
3.15785e-08
3.09688e-08
0
7.28937e-08
2.99709e-08
3.05697e-08
0
0
0
0
0
0
0
0
0
0
0
0
0
0
0
0
0
0
0
0
0
0
0
0
0
0
0
0
0
0
0
0
3.0705e-08
0
7.27313e-08
7.24452e-08
7.19746e-08
7.17148e-08
2.99233e-08
3.03475e-08
3.09312e-08
3.09429e-08
3.0786e-08
7.34721e-08
5.69689e-08
3.87493e-08
3.05691e-08
3.01796e-08
3.07114e-08
3.17938e-08
3.1768e-08
3.20255e-08
0
3.03802e-08
7.80486e-08
3.15447e-08
4.01251e-08
1.99383e-08
3.07934e-08
3.12938e-08
3.09502e-08
0
3.07191e-08
6.01884e-08
3.93785e-08
5.34317e-08
4.37477e-08
2.87742e-08
2.91241e-08
7.89661e-08
3.16655e-08
0
2.96023e-08
3.07064e-08
3.11759e-08
0
0
0
0
0
0
0
0
0
0
0
0
0
0
0
0
0
0
0
0
0
0
0
0
0
0
0
0
0
0
0
0
2.9336e-08
3.12627e-08
3.0921e-08
2.9654e-08
2.91573e-08
3.02772e-08
3.03429e-08
3.05435e-08
7.372e-08
2.99552e-08
3.04812e-08
3.56334e-08
6.80127e-08
2.96514e-08
3.01477e-08
3.06858e-08
3.05274e-08
3.09901e-08
3.09982e-08
3.11085e-08
2.94918e-08
7.33466e-08
1.44904e-08
6.59492e-09
3.05475e-08
3.10169e-08
3.10554e-08
3.04781e-08
2.99275e-08
3.06331e-08
2.98027e-08
7.74247e-08
3.08069e-08
2.93746e-08
2.92071e-08
2.97784e-08
2.9622e-08
7.86167e-08
3.10835e-08
2.95285e-08
3.01672e-08
3.10123e-08
3.11614e-08
0
0
0
0
0
0
0
0
0
0
0
0
0
0
0
0
0
0
0
0
0
0
0
0
0
0
0
0
0
0
0
0
3.05541e-08
3.10578e-08
3.06911e-08
3.12577e-08
3.12265e-08
3.10866e-08
4.15967e-08
3.43126e-08
2.88168e-08
5.40567e-08
3.09338e-08
3.0631e-08
3.03327e-08
2.96838e-08
7.2861e-08
3.00206e-08
3.01973e-08
2.93358e-08
7.3353e-08
7.35402e-08
3.013e-08
3.03658e-08
3.07156e-08
3.1832e-08
0
2.9829e-08
3.03829e-08
2.96226e-08
2.98972e-08
3.02321e-08
7.47115e-08
3.15633e-08
3.12235e-08
7.7916e-09
2.29066e-08
2.19955e-08
2.95741e-08
3.11411e-08
3.14661e-08
3.07442e-08
3.03964e-08
3.07742e-08
3.09808e-08
0
0
0
0
0
0
0
0
0
0
0
0
0
0
0
0
0
0
0
0
0
0
0
0
0
0
0
0
0
0
0
0
3.04447e-08
3.70158e-08
6.02313e-08
2.95386e-08
7.73675e-08
3.03557e-08
2.86298e-08
2.91732e-08
2.92828e-08
3.00222e-08
7.63864e-08
2.99882e-08
2.88434e-08
2.94195e-08
3.18651e-08
3.14577e-08
7.40379e-08
7.05905e-08
3.18834e-08
0
2.98997e-08
0
8.9865e-09
1.66016e-08
5.12335e-08
4.90585e-08
3.01101e-08
3.07955e-08
3.05513e-08
3.0842e-08
3.03693e-08
3.0232e-08
7.78659e-08
0
7.07258e-08
7.01391e-08
2.84605e-08
7.47617e-08
3.01709e-08
2.9579e-08
2.99523e-08
3.06848e-08
3.07396e-08
0
0
0
0
0
0
0
0
0
0
0
0
0
0
0
0
0
0
0
0
0
0
0
0
0
0
0
0
0
0
0
0
3.08767e-08
0
3.05589e-08
3.03655e-08
3.14981e-08
7.67268e-08
2.94082e-08
3.00892e-08
2.96912e-08
2.99813e-08
3.06282e-08
3.10639e-08
2.95186e-08
2.94401e-08
3.40658e-08
3.30561e-08
1.13576e-08
4.71997e-08
3.07378e-08
4.1188e-09
2.3247e-08
3.04061e-08
3.3372e-08
0
3.10044e-08
3.04687e-08
3.08523e-08
3.06384e-08
3.06519e-08
3.12708e-08
7.43776e-08
7.82225e-08
3.12479e-08
7.34009e-08
0
0
2.87005e-08
7.63457e-08
3.04967e-08
2.97157e-08
3.09558e-08
3.13447e-08
3.10561e-08
0
3.12657e-08
0
0
0
0
0
0
0
0
0
0
0
0
0
0
0
0
0
0
0
0
0
0
0
0
0
0
0
0
0
0
2.98915e-08
2.99573e-08
3.05153e-08
3.11756e-08
0
3.12228e-08
3.13422e-08
3.08225e-08
3.04512e-08
3.02417e-08
7.40017e-08
7.22823e-08
2.87561e-08
0
3.12479e-08
0
3.2062e-08
3.11224e-08
3.09701e-08
7.47555e-08
2.92269e-08
2.92934e-08
3.04059e-08
3.59856e-08
6.85708e-08
3.04632e-08
0
3.00616e-08
3.0714e-08
3.25431e-08
0
0
3.17834e-08
3.15905e-08
3.00527e-08
7.13818e-08
2.83913e-08
7.13544e-08
2.98653e-08
3.04904e-08
7.57353e-08
0
3.05066e-08
3.13582e-08
3.15384e-08
0
0
0
0
0
0
0
0
0
0
0
0
0
0
0
0
0
0
0
0
0
0
0
0
0
0
0
0
0
0
3.00179e-08
7.19836e-08
7.12e-08
2.96076e-08
3.03254e-08
0
0
3.0682e-08
3.0132e-08
3.11329e-08
3.12969e-08
3.03756e-08
7.14405e-08
2.93803e-08
2.99846e-08
3.21821e-08
0
3.13283e-08
3.14277e-08
3.11975e-08
3.06177e-08
3.02142e-08
3.04948e-08
3.18517e-08
7.26195e-08
2.98493e-08
2.94148e-08
5.98382e-08
2.09757e-09
3.10974e-08
0
3.1822e-08
3.27564e-08
3.19005e-08
3.05721e-08
7.15215e-08
2.93579e-08
2.90412e-08
3.01149e-08
3.16928e-08
3.20003e-08
3.07348e-08
3.1265e-08
3.16993e-08
3.21716e-08
0
0
0
0
0
0
0
0
0
0
0
0
0
0
0
0
0
0
0
0
0
0
0
0
0
0
0
0
0
0
2.96726e-08
2.97815e-08
3.09253e-08
3.10913e-08
3.11365e-08
3.09587e-08
3.11445e-08
0
0
3.14624e-08
3.2211e-08
0
3.10858e-08
3.09737e-08
3.08567e-08
3.08957e-08
3.9117e-08
2.20264e-08
3.1027e-08
0
3.12193e-08
0
3.15057e-08
3.17371e-08
3.13588e-08
2.9718e-08
2.99192e-08
7.69206e-08
3.0836e-08
0
2.97804e-08
3.28244e-08
0
3.12475e-08
3.05316e-08
1.05599e-08
4.83715e-08
2.86677e-08
3.05025e-08
3.23306e-08
1.52564e-09
2.99145e-08
4.47929e-08
5.8465e-08
0
0
0
0
0
0
0
0
0
0
0
0
0
0
0
0
0
0
0
0
0
0
0
0
0
0
0
0
0
0
0
3.08177e-08
3.06798e-08
1.18636e-08
8.91023e-09
3.09183e-08
3.14762e-08
0
3.08198e-08
3.17205e-08
3.06087e-08
0
3.19271e-08
3.16492e-08
3.07697e-08
7.43521e-08
2.97966e-08
3.009e-08
3.00356e-08
0
7.37238e-08
2.92156e-08
2.94807e-08
0
3.12965e-08
3.0877e-08
3.01411e-08
3.05612e-08
7.43816e-08
0
7.29917e-08
3.01347e-08
3.16862e-08
3.16068e-08
3.10597e-08
0
7.362e-08
2.91926e-08
2.96968e-08
2.95622e-08
3.07185e-08
3.1588e-08
3.09844e-08
3.07168e-08
3.13463e-08
0
0
0
0
0
0
0
0
0
0
0
0
0
0
0
0
0
0
0
0
0
0
0
0
0
0
0
0
0
0
0
3.13777e-08
0
3.05157e-08
3.0782e-08
3.0877e-08
0
7.26382e-08
7.60655e-08
7.33476e-08
2.90987e-08
7.65176e-08
3.08259e-08
3.00736e-08
1.21399e-08
7.91986e-09
3.01554e-08
3.08211e-08
3.06714e-08
3.04732e-08
3.10545e-08
2.97424e-08
2.98767e-08
3.07874e-08
3.11158e-08
3.05026e-08
3.08636e-08
0
0
3.09508e-08
3.12974e-08
7.19362e-08
7.32995e-08
3.0665e-08
3.04401e-08
3.0645e-08
0
3.01252e-08
5.57466e-08
4.14093e-08
3.1825e-08
0
0
3.10954e-08
4.28746e-08
6.02072e-08
0
0
0
0
0
0
0
0
0
0
0
0
0
0
0
0
0
0
0
0
0
0
0
0
0
0
0
0
0
0
3.05263e-08
3.0203e-08
2.99715e-08
2.93035e-08
3.0463e-08
3.134e-08
3.13117e-08
3.07985e-08
0
7.68595e-08
3.12951e-08
3.05095e-08
0
3.031e-08
3.07676e-08
3.09604e-08
3.06252e-08
3.0434e-08
3.04468e-08
3.04905e-08
3.07802e-08
7.80686e-08
3.12971e-08
0
3.00092e-08
3.04554e-08
3.0919e-08
3.11647e-08
3.11643e-08
3.15021e-08
3.0805e-08
3.08406e-08
3.13728e-08
3.07286e-08
3.00465e-08
7.12929e-08
3.05324e-08
3.06264e-08
3.08098e-08
3.06911e-08
3.06279e-08
7.41928e-08
2.92995e-08
0
3.08553e-08
3.11507e-08
3.05733e-08
0
0
0
0
0
0
0
0
0
0
0
0
0
0
0
0
0
0
0
0
0
0
0
0
0
0
0
0
2.89071e-08
2.9349e-08
7.06537e-08
2.98747e-08
3.08146e-08
3.11861e-08
0
3.07504e-08
3.17506e-08
1.48648e-08
4.11449e-08
3.09411e-08
0
2.99141e-08
3.03898e-08
3.06452e-08
3.0726e-08
3.07736e-08
3.08977e-08
3.11937e-08
3.13349e-08
7.99084e-08
0
7.24389e-08
6.95688e-08
7.06637e-08
7.1151e-08
3.09834e-08
0
3.15113e-08
0
3.10467e-08
3.12634e-08
0
3.1052e-08
3.07703e-08
3.0639e-08
0
0
0
3.1202e-08
3.14608e-08
3.05512e-08
3.00257e-08
3.05018e-08
7.16512e-08
3.34802e-08
0
0
0
0
0
0
0
0
0
0
0
0
0
0
0
0
0
0
0
0
0
0
0
0
0
0
0
0
3.02376e-08
3.01326e-08
2.99142e-08
7.13899e-08
7.67105e-08
3.09342e-08
0
0
3.05586e-08
7.44826e-08
3.04564e-08
3.01836e-08
5.20571e-08
7.1589e-09
0
2.92834e-08
3.06865e-08
3.00188e-08
3.10109e-08
3.20445e-08
3.25356e-08
3.25575e-08
0
3.06263e-08
3.09664e-08
0
3.11257e-08
0
7.14811e-08
3.10634e-08
3.08288e-08
3.00917e-08
7.27181e-08
3.02022e-08
3.0605e-08
3.07337e-08
3.08165e-08
0
0
3.00715e-08
2.95362e-08
3.01343e-08
0
3.16925e-08
0
0
7.47561e-08
3.06144e-08
0
3.12213e-08
0
0
0
0
0
0
0
0
0
0
0
0
0
0
0
0
0
0
0
0
0
0
0
0
0
3.07332e-08
0
0
0
3.11098e-08
3.21609e-08
3.24645e-08
7.38717e-08
7.07879e-08
3.09699e-08
3.01074e-08
3.03336e-08
0
7.07218e-08
7.1001e-08
2.97787e-08
3.06502e-08
0
0
0
3.46994e-08
2.27544e-09
6.99083e-08
2.93363e-08
3.12629e-08
0
1.27191e-07
2.92147e-08
0
0
3.12736e-08
3.13414e-08
3.06615e-08
7.27622e-08
7.18127e-08
0
0
3.09606e-08
3.02974e-08
7.10737e-08
3.07906e-08
3.10522e-08
3.09986e-08
3.09917e-08
3.68916e-08
6.46597e-08
7.24718e-08
0
3.04356e-08
3.0518e-08
2.93427e-08
3.15842e-08
0
0
0
0
0
0
0
0
0
0
0
0
0
0
0
0
0
0
0
0
0
0
0
4.75284e-08
5.21859e-08
3.01168e-08
3.00682e-08
3.03211e-08
3.00474e-08
7.21557e-08
0
7.05418e-08
2.86245e-08
3.04203e-08
3.08622e-08
3.06405e-08
2.96311e-08
3.03982e-08
3.06042e-08
3.06721e-08
2.99241e-08
3.0766e-08
3.45245e-08
3.30982e-08
3.09414e-08
2.89103e-08
2.88038e-08
3.05622e-08
0
3.05306e-08
3.05766e-08
3.07969e-08
3.10824e-08
3.12866e-08
3.03662e-08
2.92266e-08
3.07398e-08
3.07135e-08
0
3.09991e-08
0
7.10477e-08
3.02469e-08
2.96179e-08
3.04383e-08
2.98561e-08
3.17966e-08
3.0278e-08
3.17591e-08
3.16806e-08
3.07015e-08
3.06496e-08
7.32121e-08
2.95978e-08
2.90367e-08
3.11449e-08
0
0
0
0
0
0
0
0
0
0
0
0
0
0
0
0
0
0
0
0
0
0
)
;


// ************************************************************************* //
