/*--------------------------------*- C++ -*----------------------------------*\
  =========                 |
  \\      /  F ield         | OpenFOAM: The Open Source CFD Toolbox
   \\    /   O peration     | Website:  https://openfoam.org
    \\  /    A nd           | Version:  12
     \\/     M anipulation  |
\*---------------------------------------------------------------------------*/
FoamFile
{
    format      ascii;
    class       volScalarField;
    location    "0.65";
    object      p;
}
// * * * * * * * * * * * * * * * * * * * * * * * * * * * * * * * * * * * * * //

dimensions      [0 2 -2 0 0 0 0];

internalField   nonuniform List<scalar> 
3750
(
0.692966
0.688999
0.682993
0.668466
0.661946
0.654896
0.646343
0.631209
0.623658
0.616212
0.597467
0.59115
0.585004
0.578389
0.571492
0.564879
0.560379
0.553131
0.546165
0.541885
0.534422
0.527156
0.523979
0.52644
0.500773
0.477075
0.48331
0.451978
0.449737
0.449345
0.421109
0.394842
0.39424
0.377796
0.367499
0.357865
0.349058
0.341003
0.333451
0.327621
0.325002
0.322498
0.317175
0.310494
0.300128
0.282272
0.266813
0.253021
0.242844
0.234044
0.225287
0.216143
0.210389
0.200801
0.191456
0.18217
0.172864
0.16355
0.154225
0.144897
0.135563
0.126225
0.116882
0.107534
0.0981791
0.0888184
0.079454
0.070092
0.0607416
0.0514018
0.0420634
0.0327209
0.0233788
0.0139948
0.00464496
0.689899
0.692247
0.691305
0.662333
0.661997
0.65635
0.652947
0.6237
0.620731
0.613322
0.600567
0.592588
0.585474
0.578791
0.5709
0.565925
0.560015
0.553356
0.54695
0.54129
0.534567
0.523309
0.518294
0.513436
0.499407
0.486956
0.480075
0.463375
0.44777
0.436524
0.420637
0.405061
0.397114
0.385097
0.368611
0.357615
0.34897
0.340797
0.331958
0.32351
0.325121
0.325914
0.318488
0.308601
0.297648
0.283658
0.269692
0.253468
0.24278
0.23413
0.225863
0.217409
0.209659
0.200789
0.191473
0.182175
0.17287
0.163555
0.154231
0.144901
0.135567
0.126228
0.116884
0.107536
0.0981792
0.088815
0.0794455
0.0700784
0.0607273
0.0513963
0.042063
0.0327203
0.023376
0.0139896
0.00463564
0.681945
0.693881
0.683298
0.670815
0.663623
0.655406
0.645575
0.629926
0.620699
0.612649
0.603159
0.593897
0.586032
0.578851
0.571976
0.566177
0.559467
0.552788
0.5465
0.541613
0.540731
0.513541
0.511926
0.506997
0.496551
0.487994
0.486564
0.477464
0.441685
0.428574
0.417386
0.407169
0.400494
0.397745
0.367484
0.358939
0.349413
0.341318
0.33072
0.316438
0.325932
0.333794
0.318424
0.305817
0.294879
0.283571
0.270242
0.255929
0.24522
0.235911
0.226978
0.218207
0.20964
0.200655
0.191441
0.182174
0.172877
0.163564
0.15424
0.144908
0.135573
0.126233
0.116888
0.107539
0.0981829
0.0888203
0.0794529
0.0700876
0.0607338
0.051394
0.0420559
0.0327169
0.0233732
0.0139928
0.00462589
0.68872
0.683544
0.668912
0.670615
0.666516
0.65605
0.644203
0.629683
0.619022
0.614509
0.604847
0.593932
0.585463
0.578739
0.572493
0.566076
0.559499
0.552717
0.544929
0.537892
0.531346
0.520152
0.512084
0.503354
0.49297
0.480459
0.491144
0.485459
0.451167
0.418596
0.413877
0.406417
0.398571
0.392426
0.380173
0.367764
0.352515
0.344327
0.336692
0.329497
0.325282
0.321118
0.313391
0.303076
0.292598
0.281589
0.269837
0.257859
0.247151
0.237314
0.227947
0.218821
0.209797
0.20069
0.191473
0.182203
0.172903
0.163586
0.154258
0.144922
0.135583
0.12624
0.116893
0.107544
0.0981899
0.0888313
0.0794701
0.0701092
0.0607562
0.051408
0.042061
0.0327168
0.0233715
0.0139905
0.0046206
0.693993
0.681005
0.67511
0.648138
0.66506
0.655238
0.647233
0.626565
0.611061
0.618609
0.604452
0.591205
0.581427
0.580357
0.573313
0.565303
0.559111
0.552833
0.542846
0.534293
0.525932
0.523809
0.512005
0.501627
0.494957
0.485737
0.48304
0.474748
0.460098
0.420925
0.413849
0.4056
0.395096
0.391431
0.388752
0.381468
0.349469
0.347014
0.343027
0.342037
0.316928
0.314399
0.309112
0.300716
0.290927
0.280479
0.269618
0.258748
0.248257
0.238293
0.228699
0.21933
0.210072
0.200828
0.191557
0.18226
0.172945
0.163617
0.154282
0.14494
0.135596
0.12625
0.116902
0.107553
0.0982003
0.088844
0.0794856
0.070127
0.0607714
0.0514183
0.0420664
0.0327179
0.0233712
0.0139892
0.00461722
0.695171
0.680147
0.670901
0.657087
0.653297
0.646344
0.65973
0.622893
0.614398
0.609343
0.597932
0.585284
0.574829
0.584345
0.573255
0.562527
0.554971
0.556582
0.540969
0.532321
0.51803
0.528527
0.510799
0.501314
0.495355
0.486543
0.478105
0.468397
0.453575
0.431629
0.418204
0.406075
0.386177
0.391156
0.396067
0.378428
0.359154
0.351357
0.345217
0.337355
0.324462
0.315845
0.308025
0.299553
0.289862
0.279787
0.269423
0.259037
0.24883
0.238901
0.229223
0.219725
0.210335
0.200994
0.191665
0.182335
0.172998
0.163657
0.154311
0.144963
0.135612
0.126262
0.116914
0.107566
0.0982131
0.0888574
0.0795001
0.0701417
0.0607838
0.0514273
0.0420716
0.03272
0.0233718
0.0139885
0.00461565
0.691778
0.682053
0.671198
0.660824
0.653635
0.647068
0.64446
0.628497
0.61992
0.604051
0.591744
0.582954
0.578198
0.577954
0.568869
0.558343
0.546461
0.558495
0.550127
0.543459
0.515683
0.518861
0.509107
0.501098
0.49406
0.485866
0.476651
0.466634
0.453767
0.43358
0.420787
0.411296
0.395836
0.392986
0.385086
0.374581
0.360679
0.353045
0.34513
0.337488
0.327669
0.318123
0.308563
0.299176
0.289436
0.279355
0.269242
0.259127
0.24911
0.239255
0.229567
0.220012
0.210552
0.201149
0.191775
0.182414
0.173057
0.163702
0.154346
0.14499
0.135634
0.126281
0.11693
0.10758
0.0982261
0.0888697
0.0795117
0.0701526
0.0607932
0.0514343
0.0420764
0.0327227
0.0233729
0.013988
0.00461471
0.691881
0.684033
0.670221
0.661605
0.655549
0.648972
0.641337
0.626273
0.618238
0.610977
0.581671
0.578956
0.581064
0.5741
0.564162
0.560739
0.549539
0.544507
0.552995
0.535967
0.526827
0.516239
0.508089
0.500597
0.493965
0.48596
0.476619
0.467733
0.461241
0.428346
0.421476
0.412223
0.401903
0.394943
0.38003
0.371473
0.361203
0.351491
0.34234
0.340454
0.330506
0.319733
0.309458
0.299349
0.28916
0.279078
0.269078
0.259116
0.249227
0.239446
0.229776
0.220207
0.210714
0.201276
0.191873
0.182489
0.173115
0.163747
0.154382
0.14502
0.13566
0.126303
0.116949
0.107595
0.0982399
0.0888821
0.0795231
0.0701628
0.060802
0.0514414
0.0420816
0.0327261
0.0233745
0.013988
0.00461426
0.693303
0.692783
0.665458
0.663601
0.658742
0.649017
0.645754
0.615419
0.612075
0.603052
0.58745
0.575378
0.588433
0.573749
0.558973
0.569094
0.554049
0.543407
0.541707
0.523456
0.52968
0.513424
0.507065
0.499199
0.496952
0.487391
0.476124
0.465533
0.455446
0.43761
0.424716
0.412663
0.403188
0.405784
0.375839
0.370744
0.361642
0.350069
0.339198
0.348209
0.333922
0.321204
0.309848
0.299073
0.288816
0.278803
0.268882
0.259028
0.24924
0.239525
0.22989
0.220328
0.210827
0.201372
0.191951
0.182552
0.173165
0.163788
0.154416
0.145049
0.135684
0.126323
0.116966
0.107611
0.0982547
0.0888951
0.0795344
0.0701728
0.0608105
0.0514484
0.042087
0.0327298
0.0233766
0.0139885
0.00461414
0.688575
0.688784
0.675427
0.668399
0.666685
0.639529
0.636639
0.619486
0.610942
0.601829
0.591328
0.583003
0.584245
0.574353
0.564403
0.562794
0.553794
0.544116
0.534942
0.521592
0.516374
0.507443
0.50677
0.495953
0.504832
0.490607
0.474952
0.462422
0.457267
0.441989
0.426986
0.412102
0.398259
0.406593
0.386689
0.374529
0.364281
0.354235
0.346955
0.343855
0.333659
0.321909
0.309414
0.298447
0.288317
0.278417
0.268619
0.258878
0.249175
0.239524
0.229928
0.220385
0.210889
0.201433
0.192005
0.182599
0.173206
0.163822
0.154446
0.145075
0.135707
0.126344
0.116985
0.107629
0.0982696
0.088908
0.0795454
0.0701826
0.0608193
0.0514557
0.0420927
0.0327339
0.0233791
0.0139893
0.0046143
0.682685
0.692551
0.678338
0.66763
0.658768
0.645235
0.638015
0.618303
0.610914
0.602274
0.594195
0.588436
0.583366
0.574963
0.56672
0.560497
0.553729
0.543343
0.53245
0.52121
0.508031
0.494656
0.508073
0.507406
0.502964
0.491121
0.472685
0.456151
0.462236
0.444768
0.429029
0.415013
0.402888
0.398724
0.387236
0.376442
0.366838
0.357785
0.349775
0.342086
0.333679
0.323426
0.307452
0.297191
0.287607
0.277963
0.268316
0.258688
0.249063
0.239469
0.229912
0.220395
0.210914
0.201464
0.192038
0.182629
0.173234
0.163848
0.154469
0.145097
0.13573
0.126366
0.117006
0.107646
0.0982842
0.0889204
0.079556
0.070192
0.060828
0.0514632
0.0420985
0.0327381
0.0233819
0.0139905
0.00461462
0.68989
0.685394
0.675911
0.666051
0.656287
0.645301
0.635539
0.621254
0.611832
0.60174
0.593478
0.593617
0.58597
0.575377
0.565358
0.558475
0.557815
0.542633
0.53039
0.519478
0.507025
0.496219
0.494584
0.513236
0.503953
0.492796
0.473377
0.464679
0.456218
0.44282
0.429546
0.417066
0.404754
0.394106
0.385045
0.376999
0.368961
0.360433
0.351704
0.343054
0.335243
0.330752
0.299954
0.295196
0.286847
0.27756
0.268064
0.258496
0.248925
0.239378
0.229859
0.220369
0.210907
0.201469
0.19205
0.182645
0.173251
0.163865
0.154485
0.145113
0.135746
0.126384
0.117023
0.107662
0.0982982
0.0889329
0.0795673
0.070202
0.0608366
0.0514704
0.0421044
0.0327426
0.0233848
0.0139919
0.00461508
0.692545
0.681319
0.673071
0.664308
0.654695
0.644233
0.634531
0.62396
0.613468
0.600909
0.589503
0.602845
0.589934
0.575226
0.561859
0.553182
0.570333
0.538313
0.530078
0.515245
0.50517
0.497465
0.492782
0.502401
0.505474
0.494203
0.481112
0.471087
0.45622
0.440563
0.429202
0.418749
0.402954
0.389126
0.381713
0.379348
0.372012
0.363005
0.353372
0.343613
0.333816
0.323073
0.306752
0.29668
0.287094
0.277439
0.267855
0.2583
0.248768
0.239259
0.229774
0.220312
0.210873
0.201452
0.192044
0.182646
0.173256
0.163872
0.154495
0.145123
0.135759
0.1264
0.117038
0.107675
0.0983107
0.0889447
0.0795785
0.070212
0.0608451
0.0514774
0.0421103
0.0327472
0.023388
0.0139935
0.00461562
0.69121
0.678468
0.671068
0.663372
0.653568
0.642461
0.632705
0.628315
0.617566
0.606878
0.599872
0.599571
0.586571
0.574392
0.562549
0.554364
0.558346
0.546348
0.538499
0.506333
0.501182
0.499464
0.487929
0.499443
0.509875
0.494085
0.482371
0.476126
0.464662
0.435656
0.427899
0.424814
0.396209
0.381769
0.372728
0.382681
0.376316
0.365243
0.355163
0.344579
0.333014
0.320956
0.308129
0.297181
0.287055
0.277263
0.267641
0.258097
0.248592
0.239118
0.229668
0.220237
0.210823
0.201421
0.192029
0.182641
0.173258
0.163879
0.154502
0.145133
0.135771
0.126413
0.117052
0.107689
0.0983237
0.0889574
0.0795904
0.0702226
0.0608541
0.0514849
0.0421166
0.0327521
0.0233914
0.0139954
0.00461627
0.681914
0.680988
0.67363
0.664091
0.653744
0.641754
0.628063
0.635536
0.620493
0.608874
0.605565
0.601332
0.584047
0.57383
0.561477
0.549704
0.559338
0.546447
0.530839
0.51106
0.496945
0.505682
0.497751
0.497589
0.498529
0.489944
0.47853
0.469914
0.463319
0.444759
0.426431
0.418271
0.402467
0.387634
0.377042
0.371742
0.377285
0.363708
0.359032
0.347114
0.332388
0.319433
0.307699
0.296976
0.286795
0.276954
0.267349
0.257839
0.248379
0.238952
0.229543
0.220147
0.210761
0.201381
0.192004
0.18263
0.173258
0.163888
0.154518
0.145152
0.13579
0.126429
0.117067
0.107703
0.0983378
0.0889708
0.0796025
0.0702335
0.0608635
0.051493
0.0421232
0.0327573
0.0233949
0.0139973
0.00461688
0.67859
0.68691
0.677624
0.66605
0.655847
0.645829
0.635425
0.632029
0.618838
0.606949
0.615381
0.600207
0.584025
0.573282
0.563567
0.555775
0.553242
0.544264
0.52671
0.51374
0.505435
0.503098
0.497431
0.493755
0.495538
0.48761
0.471779
0.46312
0.47611
0.43947
0.42705
0.416397
0.403899
0.392465
0.384935
0.383706
0.361354
0.354713
0.366031
0.350902
0.330115
0.31706
0.306227
0.295989
0.286137
0.276499
0.266981
0.25754
0.248141
0.238767
0.229404
0.220047
0.210691
0.201335
0.191977
0.182618
0.173256
0.163894
0.154531
0.145169
0.135808
0.126447
0.117084
0.10772
0.0983528
0.0889848
0.0796153
0.070245
0.0608736
0.0515016
0.0421303
0.0327628
0.023399
0.0139997
0.00461767
0.682736
0.679519
0.677482
0.666999
0.657921
0.650453
0.64098
0.632905
0.623545
0.61333
0.60922
0.597019
0.583617
0.573089
0.564203
0.55684
0.551236
0.548298
0.518517
0.514254
0.50795
0.502107
0.49421
0.484997
0.496493
0.488184
0.470071
0.463404
0.460737
0.443968
0.429861
0.417091
0.404979
0.393482
0.38526
0.382743
0.36965
0.361725
0.362665
0.358055
0.320248
0.31272
0.303855
0.294675
0.285311
0.275904
0.26653
0.257191
0.247875
0.238567
0.229258
0.219943
0.210621
0.20129
0.191951
0.182606
0.173255
0.1639
0.154543
0.145185
0.135826
0.126465
0.117102
0.107737
0.0983689
0.0889996
0.0796288
0.070257
0.0608842
0.0515106
0.0421377
0.0327686
0.0234031
0.0140019
0.00461845
0.683803
0.670051
0.682336
0.669407
0.65859
0.652105
0.643218
0.635607
0.629525
0.61855
0.60788
0.59471
0.580352
0.571716
0.5636
0.555522
0.547211
0.539324
0.524799
0.516419
0.50963
0.503365
0.496136
0.489333
0.488437
0.482185
0.469548
0.461536
0.455706
0.44456
0.430527
0.41823
0.406085
0.393487
0.381712
0.390051
0.374114
0.365983
0.359425
0.356465
0.320368
0.30992
0.302049
0.293557
0.284514
0.275281
0.266044
0.25682
0.2476
0.238369
0.229118
0.219848
0.210558
0.201253
0.191933
0.1826
0.173257
0.163908
0.154556
0.145202
0.135844
0.126484
0.117121
0.107755
0.0983859
0.0890154
0.0796432
0.0702699
0.0608955
0.0515202
0.0421455
0.0327748
0.0234078
0.0140046
0.00461941
0.688754
0.666877
0.674926
0.669112
0.659858
0.651593
0.643564
0.63743
0.635832
0.621943
0.608924
0.598616
0.572417
0.569643
0.562781
0.554055
0.54351
0.535891
0.52555
0.517306
0.510251
0.504257
0.497669
0.491292
0.484952
0.479522
0.467164
0.457154
0.458029
0.449302
0.429568
0.419312
0.407734
0.396989
0.388547
0.386694
0.375399
0.36728
0.354432
0.346798
0.335404
0.304384
0.300881
0.293134
0.283935
0.274684
0.265548
0.256452
0.247338
0.238188
0.228998
0.21977
0.210512
0.201229
0.191924
0.182601
0.173265
0.163923
0.154576
0.145224
0.135867
0.126507
0.117143
0.107775
0.0984047
0.0890324
0.0796586
0.0702835
0.0609073
0.0515302
0.0421538
0.0327812
0.0234123
0.0140073
0.00462036
0.683147
0.674711
0.677155
0.669399
0.659481
0.649966
0.642031
0.642716
0.636012
0.622074
0.607911
0.59419
0.580383
0.571794
0.563577
0.554789
0.539934
0.531704
0.523384
0.516621
0.510276
0.504191
0.496114
0.488996
0.488463
0.483661
0.46476
0.452974
0.462599
0.448069
0.431393
0.42038
0.409857
0.399598
0.390182
0.380988
0.372694
0.373942
0.344694
0.340389
0.329395
0.311618
0.304129
0.294209
0.283426
0.273961
0.264998
0.256091
0.247112
0.238049
0.228915
0.219723
0.210489
0.201222
0.191929
0.182612
0.173279
0.163938
0.154593
0.145244
0.13589
0.12653
0.117164
0.107796
0.0984242
0.0890505
0.079675
0.0702981
0.06092
0.0515409
0.0421626
0.0327881
0.0234175
0.0140104
0.00462147
0.69266
0.676733
0.686086
0.671264
0.658314
0.647259
0.635479
0.648363
0.635044
0.621165
0.608249
0.5955
0.58335
0.573411
0.565135
0.561018
0.530871
0.527066
0.520418
0.513727
0.511652
0.505014
0.493592
0.482776
0.499639
0.486072
0.469373
0.460128
0.457349
0.445547
0.432132
0.420884
0.410656
0.401347
0.391292
0.375638
0.363018
0.368476
0.350578
0.340974
0.330348
0.313603
0.304813
0.295972
0.281686
0.272833
0.26442
0.255803
0.24697
0.237982
0.228887
0.219719
0.210498
0.201239
0.191952
0.182639
0.173308
0.163969
0.154625
0.145275
0.135918
0.126556
0.117189
0.107818
0.0984451
0.0890696
0.0796923
0.0703135
0.0609333
0.0515523
0.0421719
0.0327952
0.0234225
0.0140134
0.00462251
0.696218
0.68739
0.684194
0.669586
0.654835
0.648912
0.639306
0.640447
0.630839
0.619424
0.608407
0.597359
0.584656
0.573466
0.562876
0.550625
0.535495
0.526257
0.518072
0.506768
0.51766
0.508561
0.495555
0.484871
0.501551
0.486494
0.472872
0.462858
0.453968
0.441841
0.430808
0.420887
0.410958
0.401704
0.391264
0.375145
0.367
0.356991
0.347527
0.34024
0.336799
0.307488
0.305276
0.303378
0.274623
0.27111
0.26402
0.255729
0.24698
0.238019
0.228933
0.219768
0.210548
0.201289
0.192
0.182688
0.173357
0.164016
0.154668
0.145313
0.135952
0.126586
0.117216
0.107844
0.0984682
0.0890904
0.079711
0.0703299
0.0609476
0.0515643
0.0421816
0.0328027
0.0234278
0.0140167
0.00462369
0.700425
0.69397
0.685663
0.668822
0.648098
0.652113
0.642424
0.636412
0.627955
0.61743
0.608422
0.600121
0.583963
0.573373
0.560903
0.543305
0.534364
0.52509
0.517692
0.518498
0.514724
0.50858
0.500995
0.49559
0.496589
0.484746
0.473494
0.464905
0.455342
0.438428
0.428378
0.419792
0.411441
0.402577
0.389307
0.377523
0.375173
0.345555
0.341802
0.335572
0.328078
0.314429
0.305842
0.296993
0.282481
0.273369
0.264829
0.256114
0.247215
0.238183
0.22906
0.219873
0.210639
0.201368
0.19207
0.182751
0.173416
0.16407
0.154717
0.145356
0.13599
0.12662
0.117247
0.107871
0.0984935
0.0891128
0.0797307
0.0703471
0.0609623
0.0515768
0.0421918
0.0328105
0.0234333
0.0140202
0.00462487
0.702552
0.696919
0.687848
0.670239
0.655017
0.642306
0.640511
0.634905
0.627235
0.613835
0.60749
0.612206
0.577682
0.575114
0.555751
0.542152
0.533269
0.523218
0.516083
0.534674
0.505791
0.507293
0.504965
0.499921
0.492442
0.483643
0.475525
0.469549
0.463726
0.428264
0.424552
0.418185
0.411352
0.402266
0.388461
0.377542
0.368936
0.350089
0.339364
0.33275
0.325278
0.316074
0.306576
0.296363
0.284997
0.275087
0.265801
0.256682
0.247573
0.238436
0.229251
0.220024
0.210762
0.201472
0.192159
0.182829
0.173486
0.164133
0.154773
0.145405
0.136032
0.126658
0.117282
0.107903
0.0985205
0.0891367
0.0797516
0.0703654
0.0609781
0.0515898
0.0422023
0.0328187
0.0234392
0.0140238
0.00462615
0.701988
0.698707
0.691024
0.665474
0.664376
0.635252
0.638537
0.635394
0.633065
0.603456
0.598614
0.617989
0.57945
0.574546
0.554959
0.540484
0.533612
0.526175
0.520092
0.511021
0.508729
0.511259
0.512428
0.502539
0.491931
0.478666
0.486092
0.471074
0.461047
0.426915
0.423252
0.416373
0.408354
0.40092
0.388553
0.380652
0.37318
0.342887
0.333737
0.330786
0.324598
0.317818
0.308153
0.296936
0.286203
0.276194
0.2666
0.257243
0.247984
0.23874
0.229486
0.22021
0.210914
0.201599
0.192267
0.182922
0.173567
0.164204
0.154832
0.145457
0.136081
0.126701
0.117318
0.107934
0.0985488
0.0891616
0.0797734
0.0703843
0.0609942
0.0516033
0.0422132
0.0328271
0.0234452
0.0140275
0.00462746
0.699322
0.693299
0.682123
0.669858
0.661499
0.648106
0.642114
0.633845
0.625382
0.611319
0.603874
0.602361
0.586708
0.576514
0.555095
0.537157
0.53774
0.529903
0.520196
0.497527
0.507192
0.5147
0.520741
0.505227
0.49546
0.485495
0.480661
0.466366
0.447351
0.435287
0.424879
0.415303
0.40567
0.398044
0.388364
0.380519
0.362165
0.347827
0.334231
0.326617
0.326652
0.321676
0.311071
0.297082
0.286688
0.276883
0.267169
0.257705
0.24836
0.239047
0.229737
0.220417
0.211084
0.201739
0.192384
0.183022
0.173652
0.164277
0.154896
0.145512
0.136128
0.126742
0.117356
0.107968
0.098578
0.0891874
0.0797961
0.0704038
0.0610107
0.051617
0.0422244
0.0328358
0.0234514
0.0140313
0.00462884
0.697436
0.689244
0.680204
0.671085
0.662728
0.653455
0.645408
0.633799
0.623753
0.613151
0.605054
0.596857
0.58697
0.573991
0.555221
0.536954
0.544715
0.535243
0.523003
0.509629
0.509809
0.511916
0.510706
0.503977
0.497619
0.490707
0.482783
0.453168
0.445242
0.434663
0.42478
0.415005
0.405301
0.395676
0.385674
0.376716
0.362565
0.346718
0.33492
0.323152
0.335532
0.323611
0.314976
0.297354
0.288337
0.277339
0.267477
0.258055
0.248706
0.239357
0.230001
0.220637
0.211267
0.201892
0.192512
0.183129
0.173744
0.164355
0.154963
0.14557
0.136178
0.126787
0.117395
0.108002
0.0986082
0.0892138
0.079819
0.0704236
0.0610275
0.0516311
0.0422357
0.0328446
0.0234577
0.0140351
0.00463024
0.696079
0.686103
0.678611
0.672316
0.665145
0.657123
0.650715
0.632713
0.622927
0.612594
0.603973
0.597154
0.589424
0.573114
0.55941
0.548259
0.542508
0.534684
0.526514
0.517618
0.512891
0.510313
0.503013
0.501495
0.498204
0.495984
0.466173
0.455184
0.444763
0.435819
0.424785
0.415043
0.404746
0.393358
0.381883
0.370917
0.362019
0.346911
0.339753
0.332975
0.331676
0.322811
0.314919
0.301139
0.290251
0.276518
0.267437
0.258351
0.249045
0.23967
0.230271
0.220864
0.211456
0.202049
0.192644
0.183241
0.173838
0.164435
0.155031
0.145628
0.13623
0.126833
0.117435
0.108037
0.0986389
0.0892406
0.0798423
0.0704437
0.0610445
0.0516453
0.0422473
0.0328536
0.0234641
0.014039
0.00463168
0.693423
0.680688
0.675381
0.675282
0.668253
0.658594
0.651357
0.637905
0.621575
0.610446
0.600885
0.59874
0.601416
0.569948
0.562891
0.554011
0.540108
0.53372
0.526775
0.519298
0.513852
0.513518
0.490266
0.502005
0.497484
0.487985
0.471299
0.456841
0.444407
0.434294
0.424229
0.415638
0.405463
0.390982
0.376902
0.364286
0.3602
0.350278
0.344529
0.338159
0.331294
0.322959
0.313749
0.302266
0.292666
0.276311
0.268231
0.258843
0.249447
0.240006
0.230548
0.221091
0.211644
0.202205
0.192775
0.183351
0.173932
0.164515
0.155101
0.145689
0.136283
0.126879
0.117476
0.108073
0.0986697
0.0892676
0.0798656
0.0704636
0.0610615
0.0516595
0.0422588
0.0328624
0.0234705
0.0140428
0.00463312
0.688227
0.667913
0.670278
0.686829
0.673557
0.66168
0.654222
0.648572
0.616705
0.609002
0.593294
0.595448
0.602501
0.58086
0.568553
0.563497
0.534238
0.532271
0.527452
0.520988
0.508018
0.499378
0.493225
0.51016
0.499218
0.48679
0.474536
0.459183
0.441662
0.430853
0.423625
0.41621
0.406852
0.389146
0.371631
0.351425
0.357309
0.351112
0.347909
0.344893
0.334291
0.323327
0.313049
0.302952
0.292922
0.278791
0.268973
0.259463
0.249904
0.240352
0.23082
0.221311
0.211823
0.202354
0.1929
0.183458
0.174023
0.164593
0.155169
0.14575
0.136335
0.126924
0.117515
0.108107
0.0987
0.0892939
0.0798884
0.0704832
0.0610783
0.0516736
0.0422703
0.0328712
0.0234768
0.0140467
0.00463455
0.685009
0.679645
0.683224
0.687194
0.673139
0.66031
0.656087
0.644868
0.627347
0.616785
0.611997
0.588353
0.589935
0.578939
0.567506
0.556475
0.541037
0.533645
0.529387
0.529314
0.499174
0.492993
0.506799
0.505156
0.495082
0.48488
0.474685
0.459299
0.439418
0.425862
0.425618
0.417539
0.406505
0.391085
0.375202
0.357245
0.339317
0.342969
0.349351
0.354994
0.336606
0.323228
0.31303
0.302938
0.292193
0.280513
0.270045
0.260125
0.250354
0.240679
0.23107
0.221509
0.211986
0.202489
0.193014
0.183554
0.174106
0.164665
0.155232
0.145805
0.136383
0.126967
0.117552
0.108139
0.0987282
0.0893193
0.0799106
0.0705022
0.0610946
0.0516876
0.0422816
0.0328799
0.0234829
0.0140505
0.00463597
0.696638
0.685944
0.675307
0.686867
0.671041
0.654965
0.663232
0.646945
0.63137
0.619894
0.610914
0.598485
0.585263
0.576025
0.566052
0.553868
0.540169
0.531871
0.526939
0.526872
0.513659
0.505738
0.503785
0.498581
0.490788
0.483051
0.479178
0.451155
0.43641
0.419908
0.4318
0.418829
0.406395
0.393569
0.381516
0.373142
0.340474
0.339491
0.343128
0.342831
0.332183
0.321384
0.312515
0.302874
0.292275
0.281444
0.270796
0.260619
0.250705
0.240939
0.231271
0.221671
0.212118
0.2026
0.193109
0.183637
0.174177
0.164728
0.155288
0.145854
0.136427
0.127005
0.117587
0.108171
0.0987566
0.089344
0.0799318
0.0705204
0.0611102
0.0517012
0.0422929
0.0328883
0.023489
0.0140543
0.00463737
0.703103
0.698892
0.673315
0.676617
0.669086
0.661855
0.658439
0.646847
0.631529
0.62049
0.613115
0.60977
0.578101
0.573689
0.565006
0.553927
0.536854
0.527186
0.524396
0.536759
0.522212
0.514432
0.498933
0.494249
0.4868
0.4772
0.466223
0.450559
0.442835
0.430143
0.426695
0.417627
0.406652
0.395272
0.383819
0.373235
0.361617
0.334448
0.338559
0.33554
0.3269
0.316335
0.314295
0.303795
0.292504
0.281613
0.271076
0.260871
0.250908
0.241103
0.231406
0.221784
0.212215
0.202685
0.193184
0.183703
0.174237
0.164782
0.155336
0.145898
0.136466
0.127041
0.117619
0.1082
0.0987827
0.0893667
0.0799517
0.0705381
0.0611256
0.051714
0.0423032
0.0328964
0.0234946
0.014058
0.00463873
0.703058
0.693481
0.683165
0.675944
0.669047
0.663086
0.654937
0.644395
0.629689
0.618913
0.611703
0.608957
0.585538
0.572792
0.563917
0.553139
0.536721
0.523972
0.537367
0.534601
0.522218
0.511462
0.500675
0.492872
0.484479
0.472735
0.458845
0.444286
0.451764
0.437196
0.426551
0.417877
0.407373
0.397073
0.385176
0.373065
0.357217
0.342443
0.338589
0.3332
0.324351
0.307649
0.318275
0.304402
0.292311
0.281442
0.271024
0.260888
0.250951
0.241157
0.231464
0.221842
0.212272
0.20274
0.193236
0.183753
0.174284
0.164827
0.155377
0.145937
0.136503
0.127074
0.117649
0.108227
0.0988064
0.0893879
0.079971
0.0705552
0.0611402
0.0517258
0.0423127
0.032904
0.0235
0.0140615
0.00464006
0.702133
0.693474
0.684523
0.676292
0.668408
0.663267
0.653803
0.64232
0.627793
0.616867
0.605922
0.588236
0.58245
0.568263
0.561374
0.553401
0.542797
0.535541
0.535444
0.529685
0.520262
0.509436
0.498739
0.494163
0.485778
0.469661
0.458514
0.449997
0.447203
0.434747
0.427676
0.420055
0.408164
0.400454
0.386575
0.376501
0.347471
0.338293
0.341684
0.334616
0.326905
0.310192
0.31064
0.301607
0.291194
0.280831
0.270679
0.260698
0.250852
0.241111
0.23145
0.221848
0.212291
0.202768
0.193269
0.183788
0.174321
0.164863
0.155413
0.145971
0.136536
0.127104
0.117677
0.108252
0.0988292
0.0894081
0.0799889
0.0705709
0.0611536
0.0517369
0.0423217
0.032911
0.0235051
0.0140649
0.00464135
0.700776
0.693943
0.684652
0.676494
0.66929
0.662537
0.653661
0.641745
0.628293
0.616051
0.605667
0.595861
0.588427
0.559768
0.558357
0.5548
0.547275
0.539144
0.533573
0.528173
0.518988
0.508729
0.49567
0.501355
0.493412
0.461413
0.456565
0.44976
0.443183
0.434248
0.427318
0.424807
0.406503
0.409865
0.381107
0.364275
0.349642
0.33425
0.35173
0.337091
0.327152
0.314983
0.307751
0.299381
0.289867
0.280024
0.270178
0.260383
0.250654
0.24099
0.231379
0.221812
0.212279
0.202772
0.193284
0.18381
0.174346
0.164891
0.155442
0.145999
0.136561
0.127129
0.117701
0.108275
0.0988497
0.0894266
0.0800054
0.0705854
0.0611659
0.0517472
0.0423302
0.0329177
0.02351
0.0140681
0.00464263
0.704539
0.695462
0.684209
0.67581
0.669775
0.664264
0.656873
0.642383
0.626263
0.614388
0.604234
0.601685
0.574235
0.566545
0.561428
0.557011
0.550346
0.539081
0.533361
0.530932
0.516552
0.511569
0.510152
0.487355
0.48252
0.466595
0.456927
0.449195
0.440908
0.432413
0.423622
0.409929
0.419248
0.410467
0.388911
0.366231
0.350578
0.336685
0.351459
0.339006
0.327293
0.316417
0.307243
0.298241
0.288836
0.279228
0.269605
0.259986
0.250384
0.240811
0.231266
0.221744
0.212243
0.202758
0.193285
0.183821
0.174364
0.164912
0.155466
0.146024
0.136586
0.127154
0.117724
0.108295
0.0988681
0.0894435
0.0800205
0.0705985
0.0611773
0.0517569
0.0423382
0.032924
0.0235146
0.0140712
0.0046439
0.707814
0.699402
0.681041
0.673083
0.667654
0.669406
0.667454
0.644261
0.624273
0.602567
0.595322
0.595316
0.581219
0.57006
0.562497
0.558836
0.555029
0.537724
0.531179
0.531568
0.519062
0.511751
0.505403
0.489638
0.481448
0.46547
0.456126
0.44764
0.43923
0.430817
0.423514
0.410633
0.414458
0.421438
0.393341
0.363111
0.353378
0.346957
0.343938
0.336463
0.326446
0.316538
0.3069
0.297414
0.287952
0.278492
0.269047
0.259575
0.250093
0.240609
0.23113
0.221658
0.212192
0.202731
0.193274
0.183822
0.174374
0.164928
0.155485
0.146045
0.136607
0.127174
0.117742
0.108312
0.0988843
0.0894587
0.0800342
0.0706107
0.0611879
0.0517659
0.0423456
0.0329299
0.0235188
0.0140743
0.00464516
0.711136
0.709517
0.671785
0.670173
0.660664
0.673639
0.657465
0.644515
0.625207
0.608954
0.593085
0.600394
0.584622
0.570675
0.559931
0.561702
0.561168
0.540431
0.527902
0.539434
0.52015
0.510819
0.509354
0.487201
0.487109
0.45772
0.454033
0.446064
0.436818
0.428428
0.421451
0.411033
0.407936
0.420332
0.398607
0.378653
0.355337
0.350222
0.341228
0.336211
0.326435
0.316546
0.306409
0.296544
0.287047
0.277773
0.268514
0.25918
0.249799
0.2404
0.230986
0.221563
0.212134
0.202699
0.193261
0.183822
0.174381
0.164941
0.155501
0.146062
0.136626
0.127191
0.117759
0.108328
0.0988986
0.0894722
0.0800468
0.0706219
0.0611977
0.0517742
0.0423524
0.0329353
0.0235229
0.0140772
0.00464639
0.710343
0.701175
0.682298
0.673908
0.66751
0.664599
0.655518
0.644925
0.624067
0.614758
0.604323
0.598082
0.583053
0.570044
0.554092
0.565559
0.580055
0.540681
0.53538
0.538769
0.510198
0.504175
0.494826
0.499444
0.480893
0.46416
0.455114
0.445463
0.434079
0.424377
0.420241
0.410056
0.420521
0.414871
0.400419
0.383621
0.358128
0.34208
0.348822
0.337477
0.326536
0.3165
0.305655
0.295486
0.286084
0.277165
0.268055
0.258819
0.249527
0.240205
0.230854
0.221477
0.212081
0.202669
0.193247
0.18382
0.174387
0.164951
0.155514
0.146078
0.136642
0.127208
0.117774
0.108342
0.0989122
0.0894848
0.0800578
0.0706316
0.0612064
0.0517818
0.0423587
0.0329403
0.0235268
0.0140801
0.00464759
0.710615
0.699478
0.686051
0.676716
0.669324
0.661037
0.653203
0.643326
0.628917
0.619736
0.613733
0.598569
0.582451
0.575027
0.566166
0.564996
0.565192
0.547424
0.536459
0.527952
0.516261
0.506565
0.499174
0.499618
0.469361
0.463939
0.456416
0.446771
0.430816
0.419022
0.429088
0.422478
0.419261
0.412408
0.401514
0.385558
0.362832
0.348222
0.343458
0.335293
0.326201
0.31753
0.30468
0.293098
0.284966
0.276693
0.267697
0.25851
0.249287
0.240039
0.230747
0.221413
0.212044
0.20265
0.193241
0.183821
0.174393
0.164961
0.155526
0.14609
0.136654
0.12722
0.117786
0.108354
0.0989246
0.0894958
0.0800671
0.07064
0.0612143
0.0517886
0.0423643
0.0329449
0.0235304
0.014083
0.00464883
0.711829
0.700125
0.688437
0.677167
0.668225
0.659168
0.650656
0.641371
0.630631
0.621808
0.614151
0.601617
0.588515
0.581801
0.572875
0.56548
0.559448
0.5446
0.535421
0.526696
0.515339
0.506507
0.498786
0.490488
0.475649
0.465651
0.45635
0.451909
0.429176
0.427011
0.424999
0.420355
0.419306
0.412741
0.401955
0.389294
0.367797
0.35226
0.340876
0.332635
0.331102
0.318287
0.301898
0.286879
0.285412
0.276989
0.267515
0.258227
0.249075
0.239917
0.230686
0.221384
0.212033
0.202648
0.193245
0.18383
0.174405
0.164974
0.155539
0.146103
0.136668
0.127233
0.117798
0.108366
0.0989352
0.0895055
0.0800763
0.070648
0.0612205
0.051794
0.042369
0.0329489
0.0235338
0.0140859
0.00465014
0.712466
0.701184
0.690479
0.675051
0.66605
0.657387
0.648651
0.640135
0.632145
0.622665
0.613254
0.605326
0.595913
0.586579
0.575971
0.566286
0.563779
0.535271
0.532806
0.525884
0.512543
0.505655
0.497566
0.488623
0.478067
0.466615
0.452857
0.440895
0.446374
0.434927
0.42146
0.411759
0.424068
0.413875
0.402797
0.397031
0.364466
0.351908
0.338006
0.326934
0.347461
0.321623
0.298099
0.270481
0.287083
0.277288
0.266927
0.257731
0.248877
0.239873
0.230696
0.221408
0.212056
0.20267
0.193265
0.183849
0.174423
0.16499
0.155554
0.146116
0.136678
0.127242
0.117807
0.108375
0.098944
0.0895135
0.0800834
0.0706541
0.0612257
0.0517983
0.0423729
0.0329525
0.0235371
0.0140888
0.00465159
0.713809
0.701534
0.697123
0.667579
0.663456
0.655618
0.64675
0.63817
0.634094
0.623789
0.613904
0.611414
0.602299
0.591947
0.577361