/*--------------------------------*- C++ -*----------------------------------*\
  =========                 |
  \\      /  F ield         | OpenFOAM: The Open Source CFD Toolbox
   \\    /   O peration     | Website:  https://openfoam.org
    \\  /    A nd           | Version:  12
     \\/     M anipulation  |
\*---------------------------------------------------------------------------*/
FoamFile
{
    format      ascii;
    class       surfaceScalarField;
    location    "0.65";
    object      phi.water_0;
}
// * * * * * * * * * * * * * * * * * * * * * * * * * * * * * * * * * * * * * //

dimensions      [0 3 -1 0 0 0 0];

internalField   nonuniform List<scalar> 
7375
(
1.75693e-07
-2.21384e-08
1.65304e-07
1.03895e-08
1.54217e-07
9.5022e-09
1.58863e-07
-4.69464e-09
1.38799e-07
2.1936e-08
1.31859e-07
6.89187e-09
1.30658e-07
1.19497e-09
1.30616e-07
4.64782e-11
1.48148e-07
-1.58535e-08
5.51997e-08
-4.29435e-09
1.36164e-07
1.61675e-08
1.2144e-07
1.4688e-08
1.18548e-07
1.64333e-09
1.0909e-07
9.55216e-09
1.21158e-07
-1.11024e-08
1.24707e-07
-3.50177e-09
1.2821e-07
-4.76963e-09
1.30804e-07
-2.5542e-09
1.24231e-07
6.52441e-09
1.22026e-07
2.17828e-09
1.11047e-07
1.0962e-08
1.02713e-07
8.33242e-09
1.09712e-07
-6.98819e-09
1.01923e-07
7.83803e-09
1.19602e-07
-1.7874e-08
1.06705e-07
1.29383e-08
1.08221e-07
-1.52677e-09
9.85449e-08
9.59916e-09
8.66812e-08
1.17568e-08
8.83821e-08
-1.71573e-09
9.64219e-08
-7.9483e-09
1.28417e-07
-3.10566e-08
4.08156e-08
-9.70331e-09
1.26631e-07
1.01238e-08
1.13018e-07
1.35684e-08
9.46751e-08
1.81561e-08
9.60566e-08
-1.38517e-09
9.02823e-08
4.85028e-09
9.36139e-08
-3.29792e-09
1.09185e-07
-1.47848e-08
1.08965e-07
2.32313e-10
9.79968e-08
1.19707e-08
8.08032e-08
1.72908e-08
1.00276e-07
-1.92869e-08
-3.75412e-09
6.8242e-09
6.24833e-08
2.94624e-08
9.4899e-09
5.35343e-08
5.66795e-09
3.9265e-09
-2.64406e-09
8.24046e-09
-1.98536e-08
1.70288e-08
-3.59951e-08
1.56257e-08
-5.49488e-08
1.93487e-08
-4.32587e-08
-1.05911e-08
-3.58155e-08
-7.44355e-09
-2.96073e-08
-6.20795e-09
-1.9287e-08
-1.03206e-08
-9.55802e-09
-9.72871e-09
2.67301e-10
-9.82555e-09
8.74258e-09
-8.47503e-09
1.7013e-08
-8.2706e-09
2.46339e-08
-7.62062e-09
3.18132e-08
-7.17947e-09
3.90948e-08
-7.28138e-09
4.7592e-08
-8.49724e-09
5.78673e-08
-1.02749e-08
6.82583e-08
-1.0391e-08
7.62282e-08
-7.96955e-09
7.63495e-08
-1.21351e-10
6.51335e-08
1.12162e-08
4.6659e-08
1.84742e-08
2.51007e-08
2.15584e-08
3.59093e-09
2.15098e-08
-1.81607e-08
2.17521e-08
-3.55351e-08
1.7375e-08
5.04269e-09
1.26766e-07
-7.28179e-08
8.7601e-08
5.03338e-08
1.04733e-07
-6.49549e-09
8.78515e-08
1.30436e-08
9.54045e-08
1.23667e-08
9.26701e-08
7.80551e-09
9.53849e-08
-5.89893e-10
1.01063e-07
-5.69005e-09
9.79442e-08
-1.27344e-08
9.06722e-08
3.97998e-09
1.01634e-07
5.20525e-09
1.09125e-07
8.07865e-09
1.02344e-07
9.47914e-09
1.00475e-07
1.25671e-08
6.97608e-08
1.83738e-08
6.5268e-08
-3.9672e-10
6.077e-08
-8.91461e-10
6.62568e-08
-8.71025e-09
7.16199e-08
1.10729e-09
8.32606e-08
-8.73917e-09
1.01659e-07
-6.52035e-09
1.05367e-07
4.62394e-09
9.64569e-08
1.94227e-09
1.02589e-07
2.78072e-09
8.26489e-08
2.08797e-09
9.50425e-08
-2.98459e-10
7.53707e-08
1.75554e-08
7.51311e-08
8.98925e-09
8.21618e-08
5.48499e-09
7.98183e-08
6.51686e-10
7.41574e-08
-1.55401e-09
4.00108e-08
4.31119e-09
1.03447e-08
1.95556e-08
1.13259e-09
1.92293e-08
3.7563e-10
1.44577e-08
2.02644e-08
-1.91794e-09
2.73201e-08
-8.23599e-09
2.80055e-08
4.15793e-09
3.35556e-08
-8.54233e-09
7.34998e-08
-5.57149e-08
7.11551e-08
1.85363e-09
1.69923e-08
6.68594e-08
1.6247e-08
1.78598e-08
2.88834e-11
-3.06882e-09
-1.6223e-08
2.30065e-08
1.77275e-08
-4.26367e-09
-5.0115e-08
2.48862e-08
1.22209e-08
3.69373e-08
-1.0513e-08
3.08921e-08
-1.3869e-08
2.02144e-08
-1.0654e-08
1.22545e-08
-1.37551e-08
2.20627e-08
-2.1589e-08
-2.75713e-09
-3.17806e-08
2.74798e-09
-4.20788e-08
4.09024e-09
-4.97014e-08
-2.69796e-09
-5.22526e-08
-7.17748e-09
-5.16249e-08
-1.04533e-08
-4.83774e-08
-1.17224e-08
-4.49604e-08
-1.16877e-08
-4.16574e-08
-1.09234e-08
-3.75968e-08
-1.12401e-08
-3.10349e-08
-1.38432e-08
-2.08977e-08
-1.86343e-08
-8.19293e-09
-2.29794e-08
4.96239e-09
-2.35462e-08
1.51953e-08
-1.82023e-08
1.72951e-08
-2.22099e-09
7.86616e-09
2.06452e-08
-9.69957e-09
3.60398e-08
-3.05848e-08
4.24437e-08
-4.71414e-08
3.80666e-08
-5.23295e-08
2.69408e-08
-5.38785e-08
1.89247e-08
3.12525e-09
1.03645e-07
3.79884e-08
-7.19666e-08
-6.03862e-08
4.65377e-09
-8.38431e-08
-1.59763e-08
3.37508e-08
-1.64738e-08
1.25728e-08
-2.24918e-08
1.33644e-08
-3.01896e-08
7.25884e-09
-2.10582e-08
-1.45136e-08
-1.18357e-08
-2.19661e-08
-5.42582e-09
-2.42999e-09
2.40727e-09
-2.68043e-09
2.15822e-08
-1.10963e-08
3.4477e-08
-2.97085e-09
3.58872e-08
1.06575e-08
3.52621e-08
1.82654e-08
3.04102e-08
4.81499e-09
2.50117e-08
4.50703e-09
2.00176e-08
-3.80498e-09
1.957e-08
1.56624e-09
1.77263e-08
-7.23938e-09
3.06769e-09
8.22139e-09
-6.82773e-09
1.46303e-08
-2.49815e-08
1.98386e-08
-2.33621e-08
1.178e-09
-5.63573e-08
3.53025e-08
-3.65123e-09
-5.30075e-08
-1.31067e-07
4.902e-08
-6.38238e-08
3.81125e-08
-5.97651e-08
8.31243e-10
-5.967e-08
-5.20783e-11
-4.94909e-08
-1.22591e-08
-5.28309e-08
8.66144e-09
-3.45811e-08
1.64193e-09
-1.16548e-08
-4.36477e-09
-8.48177e-08
-8.80752e-09
-1.76599e-08
2.70987e-08
-3.86154e-08
1.24554e-08
-6.08139e-08
2.63565e-08
-1.05931e-07
3.54074e-08
3.78636e-08
9.33618e-08
2.4634e-08
1.48654e-08
-1.39088e-07
-5.85991e-08
-9.97476e-08
-2.14805e-08
-1.12483e-07
9.56862e-09
-9.90036e-08
1.04312e-08
-1.09062e-07
6.82679e-09
-1.09535e-07
2.48624e-08
-8.53654e-08
1.27673e-08
-7.12971e-08
1.68238e-08
-6.39252e-08
1.28424e-08
-5.96195e-08
7.94886e-09
-4.86451e-08
1.10883e-08
-5.90693e-08
7.66708e-09
-6.56286e-08
9.30728e-09
-7.29747e-08
1.14363e-08
-8.22546e-08
6.58193e-09
-8.86261e-08
-8.05976e-10
-9.11256e-08
-7.95382e-09
-9.17941e-08
-1.10539e-08
-9.22213e-08
-1.12604e-08
-9.22598e-08
-1.08849e-08
-9.00433e-08
-1.34566e-08
-8.38347e-08
-2.00517e-08
-7.59393e-08
-2.65297e-08
-6.94664e-08
-2.94522e-08
-6.45545e-08
-2.84579e-08
-6.33378e-08
-1.94188e-08
-6.69013e-08
1.34258e-09
-7.28791e-08
2.66231e-08
-7.49259e-08
3.80866e-08
-7.26837e-08
4.02015e-08
-6.66152e-08
3.19984e-08
-6.17468e-08
2.2073e-08
-5.78298e-08
1.50084e-08
5.83407e-10
-4.87801e-08
1.34157e-08
-1.06836e-07
-2.91787e-09
8.63961e-08
1.09985e-08
-5.61454e-08
-1.13798e-07
-5.70735e-08
1.40676e-08
-4.2693e-08
-7.20112e-10
-4.17739e-08
5.83523e-09
-3.85612e-08
-1.81525e-08
7.51997e-09
-6.80474e-08
-2.90583e-08
3.40723e-08
-3.01419e-08
-1.59689e-09
-2.28135e-08
-1.88855e-08
-2.50322e-08
-7.59944e-10
-2.05313e-08
6.30328e-09
-2.29268e-08
2.08472e-08
-2.14347e-08
3.32293e-09
-2.7186e-08
1.02584e-08
-3.80934e-08
7.17565e-09
-4.97803e-08
1.27453e-08
-6.37938e-08
6.11661e-09
-7.05657e-08
1.50083e-08
-8.51044e-08
2.98964e-08
-1.0923e-07
4.46298e-08
-1.12447e-07
4.38375e-09
-1.18986e-07
3.98609e-08
6.88426e-08
5.10707e-08
-1.44954e-07
-2.5836e-08
-7.81616e-08
-2.8295e-08
-7.76763e-08
-4.514e-10
-7.78265e-08
9.81693e-11
-7.88268e-08
-1.12484e-08
-6.98519e-08
-4.01783e-10
-4.28376e-08
-2.53555e-08
-4.4695e-08
-2.50721e-09
-8.16421e-08
2.82295e-08
-7.05384e-08
1.62715e-08
-6.92671e-08
1.11842e-08
-7.2402e-08
2.91937e-08
-7.68938e-08
3.94963e-08
-2.56308e-08
4.0472e-08
-1.13112e-07
4.94247e-09
-8.48974e-08
1.06496e-08
-9.72675e-08
-8.11805e-09
-9.59905e-08
9.26104e-09
-8.94503e-08
3.78674e-09
-8.50914e-08
2.46789e-09
-6.97705e-08
9.54145e-09
-6.7206e-08
1.02028e-08
-6.09085e-08
1.05263e-08
-5.61648e-08
8.09868e-09
-5.49995e-08
6.78359e-09
-5.24972e-08
8.58592e-09
-5.65363e-08
1.17062e-08
-6.29168e-08
1.56877e-08
-7.01668e-08
1.86863e-08
-7.9652e-08
1.60671e-08
-8.95345e-08
9.07648e-09
-9.71366e-08
-3.51683e-10
-1.02022e-07
-6.16848e-09
-1.05229e-07
-8.05317e-09
-1.07022e-07
-9.09166e-09
-1.05294e-07
-1.51851e-08
-9.96508e-08
-2.56947e-08
-9.49717e-08
-3.12086e-08
-9.24289e-08
-3.19949e-08
-9.31223e-08
-2.77642e-08
-9.77705e-08
-1.47705e-08
-1.00645e-07
4.21685e-09
-9.68269e-08
2.28054e-08
-8.97551e-08
3.10149e-08
-7.94832e-08
2.99297e-08
-6.992e-08
2.24355e-08
-6.45189e-08
1.66727e-08
-6.01733e-08
1.06636e-08
-1.14478e-09
-7.27779e-08
-6.71685e-09
-5.43398e-08
-2.11433e-08
-5.48468e-08
1.03909e-08
8.86361e-08
3.37122e-08
-1.00774e-07
-8.34289e-08
-2.91585e-08
-7.33712e-08
-5.78685e-08
3.42552e-08
-8.47272e-08
8.70614e-09
1.08456e-07
2.65923e-08
-7.72337e-08
-6.62496e-08
-4.88697e-08
-3.02666e-08
-3.34587e-08
-3.46344e-08
-5.55203e-09
-2.93057e-08
-4.93737e-08
5.01816e-08
-4.95026e-08
2.09762e-08
-4.33187e-08
-2.86099e-09
-3.81082e-08
4.65909e-09
-7.6159e-08
4.56975e-08
-7.69308e-08
1.42941e-08
-7.54354e-08
4.55886e-09
-4.62814e-08
-1.42988e-08
-9.4718e-08
7.8028e-08
-6.03822e-08
1.02941e-08
-6.61813e-08
1.08581e-08
-4.57263e-08
1.92119e-08
-1.13116e-08
1.56686e-08
-4.48386e-08
7.691e-09
-5.71167e-08
-1.63055e-08
-5.61402e-08
-1.42781e-09
-5.9884e-08
3.23115e-09
-8.30799e-08
1.19475e-08
-6.68017e-08
-1.58323e-08
-3.80721e-08
-5.46424e-08
-5.08988e-08
1.03196e-08
-9.69502e-08
7.42809e-08
-1.04206e-07
2.35273e-08
-6.69224e-08
-2.54165e-08
-5.31579e-08
1.59661e-08
-4.02886e-08
2.62322e-08
-2.43528e-08
2.41271e-08
-4.38345e-08
2.38762e-08
-3.37032e-08
9.65496e-10
-4.48932e-08
3.04096e-09
-4.99815e-08
1.49538e-08
-5.02692e-08
4.57412e-09
-5.26901e-08
4.88886e-09
-4.85445e-08
5.39585e-09
-4.61096e-08
7.76794e-09
-4.29523e-08
7.36898e-09
-4.21012e-08
7.24752e-09
-4.39767e-08
8.65913e-09
-4.6236e-08
1.08451e-08
-4.956e-08
1.50302e-08
-5.4336e-08
2.04637e-08
-6.07808e-08
2.5131e-08
-6.91822e-08
2.44686e-08
-7.96385e-08
1.95327e-08
-9.15131e-08
1.1523e-08
-1.01456e-07
3.77426e-09
-1.0732e-07
-2.18865e-09
-1.08584e-07
-7.82754e-09
-1.04749e-07
-1.90203e-08
-9.97317e-08
-3.07121e-08
-9.67893e-08
-3.41509e-08
-9.50584e-08
-3.37257e-08
-9.6751e-08
-2.60715e-08
-1.00797e-07
-1.07244e-08
-1.01896e-07
5.31597e-09
-9.54392e-08
1.63489e-08
-8.54991e-08
2.1075e-08
-7.55748e-08
2.00056e-08
-6.88105e-08
1.56716e-08
-6.45104e-08
1.23734e-08
-6.14465e-08
7.60041e-09
-1.48374e-09
-1.08798e-07
-3.81942e-08
-3.81079e-08
3.28975e-09
-3.37878e-08
5.6815e-09
-6.86654e-09
6.44664e-09
-7.76211e-08
-1.35256e-08
9.58208e-08
4.11383e-08
-8.98352e-08
-6.61002e-08
-6.6107e-08
-1.59386e-08
-3.17709e-08
-7.82369e-09
-5.42128e-08
-4.44836e-08
-5.52006e-08
-2.92789e-08
-9.84379e-08
7.32007e-09
9.55585e-08
6.89071e-08
-1.1295e-07
-3.12144e-08
-8.69537e-08
-5.01976e-09
-9.25922e-08
2.77752e-09
-4.58024e-08
-4.25979e-08
-1.59489e-07
6.09817e-08
-9.8116e-08
5.08583e-08
-1.45533e-07
5.19755e-08
6.83376e-08
6.07602e-08
-1.90763e-07
-4.81102e-08
-7.90433e-08
-5.11583e-09
-8.73207e-08
2.00263e-08
-4.92743e-08
-1.86404e-08
-4.12053e-08
7.09694e-09
-4.11176e-08
7.60337e-09
-5.65378e-08
-8.85298e-10
-6.35243e-08
5.5588e-09
-7.14657e-08
1.11726e-08
-8.22921e-08
2.26521e-08
-1.42227e-07
4.26512e-08
1.74424e-08
7.75958e-08
1.2779e-08
1.48052e-08
-1.45447e-07
-5.64224e-08
-1.02569e-07
-1.93506e-08
-1.18052e-07
-1.0036e-08
-1.08604e-07
7.71039e-09
-7.54868e-08
-7.45726e-09
-6.93809e-08
1.8207e-08
-5.03195e-08
5.27451e-09
-4.43264e-08
-5.08872e-09
-4.31708e-08
1.88541e-09
-4.78272e-08
1.94592e-08
-4.46139e-08
1.83894e-09
-4.13009e-08
1.57586e-09
-3.99625e-08
4.05751e-09
-3.8971e-08
6.77638e-09
-3.8054e-08
6.45201e-09
-3.82789e-08
7.4724e-09
-3.96406e-08
1.00209e-08
-4.22852e-08
1.34897e-08
-4.5605e-08
1.835e-08
-4.91924e-08
2.40511e-08
-5.22383e-08
2.81769e-08
-5.64165e-08
2.86467e-08
-6.24785e-08
2.55948e-08
-7.03288e-08
1.93732e-08
-7.92786e-08
1.27241e-08
-8.67488e-08
5.28159e-09
-8.93282e-08
-5.2482e-09
-8.68838e-08
-2.14647e-08
-8.49266e-08
-3.26692e-08
-8.43424e-08
-3.47351e-08
-8.56666e-08
-3.24013e-08
-8.95464e-08
-2.21915e-08
-9.27927e-08
-7.47804e-09
-9.16402e-08
4.16368e-09
-8.59472e-08
1.0656e-08
-7.82775e-08
1.34054e-08
-7.1768e-08
1.34963e-08
-6.74417e-08
1.13457e-08
-6.43009e-08
9.23343e-09
-6.24186e-08
5.71893e-09
-1.27407e-09
-8.16914e-08
-9.41784e-09
-5.80052e-08
-2.03638e-08
-5.26707e-08
3.46408e-10
-5.26775e-08
6.45311e-09
-6.40151e-08
-2.18825e-09
-2.77783e-08
4.90131e-09
-7.32279e-08
-2.1325e-08
-6.30978e-08
-2.67124e-08
-1.45368e-07
-2.3094e-08
-9.06471e-08
-1.42634e-09
-1.05597e-07
-1.57269e-08
-1.10697e-07
1.24194e-08
-6.2174e-08
2.08108e-08
-1.12266e-07
1.86872e-08
-1.13204e-07
-4.08232e-09
-1.54224e-07
4.37976e-08
4.18804e-08
4.97999e-08
-1.09944e-07
-7.38214e-08
-1.09138e-07
4.84369e-08
-8.82284e-08
3.10661e-08
-4.44386e-08
1.69704e-08
-8.91533e-08
-3.39542e-09
-8.1873e-08
-1.23961e-08
-6.75078e-08
5.66112e-09
-7.61823e-08
-1.0156e-08
-6.73135e-08
-1.77181e-09
-6.11969e-08
1.48682e-09
-7.00512e-08
7.96906e-09
-7.48991e-08
1.03018e-08
-7.2525e-08
8.79854e-09
-6.27752e-08
1.29024e-08
-1.28591e-07
1.21577e-08
5.67643e-09
3.88462e-08
-1.09367e-07
3.35391e-08
-9.18821e-08
2.24023e-08
-1.09971e-07
-2.3838e-09
-1.3923e-07
2.06585e-08
-1.08548e-07
-2.26618e-08
-1.14717e-07
-2.48413e-09
-1.09616e-07
1.40906e-08
-1.08013e-07
3.76456e-09
-1.0358e-07
-9.62041e-09
-1.06927e-07
6.34267e-09
-7.65149e-08
-1.00782e-08
-7.1377e-08
-3.29897e-09
-6.93689e-08
-4.32175e-10
-6.78904e-08
2.579e-09
-6.42281e-08
3.11406e-09
-6.10815e-08
3.30537e-09
-5.89576e-08
5.3485e-09
-5.68848e-08
7.94808e-09
-5.58641e-08
1.2469e-08
-5.52602e-08
1.77461e-08
-5.4169e-08
2.29599e-08
-5.3247e-08
2.7255e-08
-5.28809e-08
2.82805e-08
-5.30673e-08
2.57813e-08
-5.49065e-08
2.12124e-08
-5.85766e-08
1.63942e-08
-6.2921e-08
9.62609e-09
-6.6336e-08
-1.83322e-09
-6.88348e-08
-1.89658e-08
-7.1325e-08
-3.0179e-08
-7.3987e-08
-3.2073e-08
-7.79807e-08
-2.84075e-08
-8.25585e-08
-1.76137e-08
-8.47825e-08
-5.25387e-09
-8.27845e-08
2.16582e-09
-7.84801e-08
6.35184e-09
-7.40481e-08
8.97352e-09
-7.01022e-08
9.55054e-09
-6.70683e-08
8.31229e-09
-6.47377e-08
6.90364e-09
-6.33575e-08
4.33947e-09
-1.02445e-09
-7.41658e-08
-2.0735e-08
-7.58072e-08
-1.87233e-08
-6.21598e-08
-1.34386e-08
-8.80914e-08
3.20573e-08
-9.52871e-08
5.00725e-09
-8.36234e-08
-6.76253e-09
-1.06056e-07
1.10754e-09
-1.34787e-07
6.50131e-10
-1.71866e-07
1.24514e-08
-1.76718e-07
1.57069e-09
-1.85267e-07
-5.33747e-09
-1.21264e-07
-4.79305e-08
-1.58509e-07
5.90705e-08
-1.38217e-07
-1.60522e-09
-1.0285e-07
-4.08587e-08
-1.29373e-07
6.96102e-08
-1.21568e-07
4.19951e-08
3.91589e-08
5.32278e-08
-1.46643e-07
-5.17725e-08
-5.29534e-08
-6.41195e-08
-7.84087e-08
4.24257e-08
-8.16337e-08
-1.70385e-10
-8.43505e-08
-9.67932e-09
-7.60872e-08
-2.60216e-09
-8.87898e-08
2.54667e-09
-9.70204e-08
6.45886e-09
-9.29084e-08
-2.62511e-09
-9.26661e-08
8.67212e-09
-8.38455e-08
1.48129e-09
-8.20866e-08
6.12183e-09
-7.99126e-08
1.07285e-08
-7.64642e-08
8.7094e-09
-5.58289e-08
1.8211e-08
-6.24027e-08
3.97079e-08
-6.19272e-08
2.1927e-08
-9.0005e-08
2.56941e-08
-9.06988e-08
2.11416e-08
-1.02478e-07
-1.11141e-08
-6.75316e-08
-3.74047e-08
-1.12535e-07
5.73604e-08
-1.24681e-07
1.4626e-08
-1.46665e-07
1.36488e-08
-1.25676e-07
-1.18686e-08
-1.1915e-07
-1.55025e-08
-1.11456e-07
-1.09927e-08
-1.0693e-07
-4.95852e-09
-1.03678e-07
-6.72648e-10
-9.95862e-08
-9.77859e-10
-9.65444e-08
2.63599e-10
-9.39097e-08
2.71383e-09
-9.0932e-08
4.97036e-09
-8.64042e-08
7.94119e-09
-8.01028e-08
1.14446e-08
-7.19166e-08
1.47737e-08
-6.38962e-08
1.92346e-08
-5.72871e-08
2.16714e-08
-5.2446e-08
2.09401e-08
-4.96898e-08
1.84563e-08
-4.94488e-08
1.61532e-08
-5.14839e-08
1.16612e-08
-5.49451e-08
1.62801e-09
-6.06689e-08
-1.32419e-08
-6.59867e-08
-2.48612e-08
-7.03637e-08
-2.76959e-08
-7.42253e-08
-2.45457e-08
-7.74674e-08
-1.43715e-08
-7.84415e-08
-4.27963e-09
-7.68613e-08
5.858e-10
-7.41913e-08
3.68202e-09
-7.15673e-08
6.34964e-09
-6.90433e-08
7.02673e-09
-6.68674e-08
6.13691e-09
-6.51332e-08
5.17018e-09
-6.40937e-08
3.30078e-09
-7.89581e-10
-1.41951e-07
-1.50087e-09
-1.52128e-07
-8.74048e-09
-1.60997e-07
-2.94051e-09
-1.37362e-07
1.00472e-08
-1.31999e-07
-1.75673e-09
-1.43812e-07
5.05061e-09
-1.44383e-07
2.0524e-10
-1.60409e-07
1.6676e-08
-1.60542e-07
1.24564e-08
-1.8107e-07
2.20822e-08
-1.97921e-07
1.34698e-08
4.13165e-09
3.89036e-08
-1.89247e-07
-3.3227e-08
-1.83508e-07
-9.29051e-09
1.89895e-08
4.49206e-08
-1.49228e-07
-4.81839e-08
-1.10135e-07
1.38013e-09
-7.10642e-08
1.4014e-08
-2.04672e-07
-1.50031e-08
5.63366e-08
6.01113e-08
-2.08572e-07
-7.79048e-08
-1.10596e-07
-1.83606e-09
-1.06177e-07
-1.40982e-08
-7.04427e-08
-3.87319e-08
-1.12369e-07
4.44731e-08
-1.11548e-07
5.63764e-09
-1.08081e-07
-6.09237e-09
-7.49395e-08
-2.44688e-08
-7.7557e-08
4.85567e-09
-8.36382e-08
1.22031e-08
-8.69029e-08
1.31399e-08
-7.71542e-08
-1.03918e-09
-3.2347e-08
-2.62662e-08
-6.09294e-08
6.76076e-08
-6.65756e-08
2.69517e-08
-6.33613e-08
2.22529e-08
-6.14582e-08
1.92385e-08
-1.04897e-07
3.23248e-08
8.47047e-08
6.0442e-08
-1.05966e-07
-3.79801e-08
-8.95764e-08
-2.99386e-09
-8.16902e-08
5.62346e-09
-7.60044e-08
-1.75543e-08
-7.54485e-08
-1.54468e-08
-7.45834e-08
-1.12155e-08
-7.13195e-08
-8.2224e-09
-7.18049e-08
-1.87299e-10
-7.3281e-08
4.98324e-10
-7.56924e-08
2.67498e-09
-7.90919e-08
6.11329e-09
-8.26348e-08
8.51331e-09
-8.43023e-08
9.6086e-09
-8.31642e-08
1.03066e-08
-7.87994e-08
1.04088e-08
-7.05897e-08
1.1025e-08
-6.00905e-08
1.11722e-08
-5.05212e-08
1.13708e-08
-4.41721e-08
1.21072e-08
-4.1423e-08
1.34042e-08
-4.22287e-08
1.24669e-08
-4.71594e-08
6.5587e-09
-5.55218e-08
-4.87944e-09
-6.26532e-08
-1.77297e-08
-6.65358e-08
-2.38132e-08
-6.97458e-08
-2.13357e-08
-7.28216e-08
-1.12955e-08
-7.41091e-08
-2.99199e-09
-7.38031e-08
2.79927e-10
-7.23345e-08
2.21352e-09
-7.04598e-08
4.47506e-09
-6.85814e-08
5.14855e-09
-6.68911e-08
4.44716e-09
-6.55159e-08
3.79575e-09
-6.46701e-08
2.45578e-09
-5.99206e-10
-1.21933e-07
-2.67524e-08
-1.8147e-07
5.01822e-08
-1.99474e-07
1.714e-08
-1.79824e-07
-7.54295e-09
-1.68885e-07
-1.2827e-08
-1.61194e-07
-2.63968e-09
-1.59713e-07
-1.28925e-09
-1.49489e-07
6.2185e-09
-1.24527e-07
-1.25055e-08
-1.16069e-07
1.32634e-08
-1.13956e-07
1.14735e-08
-1.08638e-07
3.46938e-08
-1.24544e-07
-1.7656e-08
-1.30258e-07
-3.48262e-09
-7.73727e-08
-7.96517e-09
-1.03266e-07
-2.35717e-08
-9.80465e-08
-2.839e-09
-9.25266e-08
8.49419e-09
-9.96651e-08
-8.80848e-09
-5.10528e-08
1.13828e-08
-1.27314e-07
-1.64375e-09
-6.03219e-08
-6.8828e-08
-1.27392e-07
5.11503e-08
4.76998e-08
7.80835e-08
-1.66624e-07
-3.06185e-08
-1.34148e-07
-2.71149e-08
-1.24833e-07
-1.54075e-08
-7.96894e-08
-6.95088e-08
-1.09951e-07
3.51174e-08
-1.02495e-07
3.7502e-09
-9.51692e-08
5.75518e-09
-1.21075e-07
2.48668e-08
8.14346e-08
5.93225e-08
-9.65837e-08
-3.97026e-08
-7.13702e-08
1.48095e-09
-5.49671e-08
5.79133e-09
-4.91962e-08
1.2907e-08
-4.40768e-08
2.76551e-08
-6.56821e-09
2.27042e-08
-4.71704e-08
2.16764e-09
-4.92891e-08
-8.66282e-10
-4.34053e-08
-2.60294e-10
-4.87872e-08
-1.21724e-08
-6.39435e-08
-2.90481e-10
-7.22588e-08
-2.27739e-09
-7.32685e-08
-6.5558e-09
-7.57062e-08
2.25039e-09
-7.73843e-08
2.17643e-09
-7.93754e-08
4.66604e-09
-8.08368e-08
7.57467e-09
-8.16188e-08
9.29534e-09
-8.05827e-08
8.57247e-09
-7.74904e-08
7.2143e-09
-7.2161e-08
5.07953e-09
-6.35418e-08
2.40571e-09
-5.21594e-08
-2.10106e-10
-4.06848e-08
-1.03809e-10
-3.11538e-08
2.57627e-09
-2.53444e-08
7.59477e-09
-2.35417e-08
1.06642e-08
-2.57556e-08
8.77258e-09
-3.31516e-08
2.51662e-09
-4.32947e-08
-7.58657e-09
-5.25241e-08
-1.45837e-08
-6.08066e-08
-1.30531e-08
-6.6656e-08
-5.44597e-09
-6.94247e-08
-2.23113e-10
-7.06337e-08
1.48906e-09
-7.06012e-08
2.18113e-09
-6.94788e-08
3.35284e-09
-6.80554e-08
3.72532e-09
-6.68034e-08
3.19562e-09
-6.57426e-08
2.73579e-09
-6.50947e-08
1.8087e-09
-4.33007e-10
2.89783e-08
8.83085e-08
-1.85861e-07
-2.6612e-08
-1.78569e-07
7.83045e-09
-1.87921e-07
1.71165e-09
-1.95319e-07
-3.49209e-09
-1.78605e-07
-1.91828e-08
-2.49263e-07
-2.56287e-08
-1.51066e-07
5.87563e-09
-1.53778e-07
-9.86704e-09
-1.34365e-07
-7.58308e-09
-1.29369e-07
5.04097e-09
-1.12537e-07
1.91816e-08
-1.25659e-07
-3.43276e-09
-1.18778e-07
-1.03635e-08
-1.10363e-07
-1.76727e-08
-1.03777e-07
-3.01582e-08
-1.06058e-07
-5.57671e-10
-9.46434e-08
-2.83372e-09
-8.81945e-08
-1.43576e-08
-9.24816e-08
1.55134e-08
-1.07586e-07
1.25173e-08
8.31418e-08
2.85251e-08
-4.68317e-08
-1.04887e-07
-1.88333e-08
4.83179e-08
-7.62262e-08
2.59967e-08
-1.13681e-07
1.04475e-08
-1.4467e-07
1.52656e-08
4.04142e-08
3.73143e-08
-1.53353e-07
-6.00981e-08
-1.22806e-07
-2.55447e-08
-1.08528e-07
-8.52276e-09
-1.01985e-07
1.72172e-08
-4.44583e-08
1.79557e-09
-7.20464e-08
-1.25194e-08
-6.93071e-08
-5.45742e-10
-5.60679e-08
-7.38933e-09
-4.88412e-08
5.1611e-09
-4.02402e-08
1.94646e-08
-1.9998e-08
2.66439e-09
-2.44571e-08
6.60496e-09
-2.51578e-08
-1.67215e-10
-2.55449e-08
-1.29846e-10
-2.79211e-08
-9.89713e-09
-4.7917e-08
1.97054e-08
-6.67571e-08
1.65627e-08
-8.09721e-08
8.33334e-09
-8.33506e-08
5.43845e-09
-8.62432e-08
5.06908e-09
-8.86273e-08
7.05016e-09
-8.84394e-08
7.38681e-09
-8.68509e-08
7.70677e-09
-8.35561e-08
5.27775e-09
-7.78596e-08
1.5178e-09
-6.87459e-08
-4.0342e-09
-5.76561e-08
-8.6841e-09
-4.618e-08
-1.16861e-08
-3.53359e-08
-1.09479e-08
-2.6081e-08
-6.67864e-09
-1.89945e-08
5.0836e-10
-1.53563e-08
7.02601e-09
-1.56016e-08
9.01791e-09
-2.02936e-08
7.20867e-09
-3.07038e-08
2.82372e-09
-4.5157e-08
-1.30476e-10
-5.86502e-08
4.40247e-10
-6.63883e-08
2.29222e-09
-6.93888e-08
2.77747e-09
-7.03517e-08
2.45208e-09
-7.03943e-08
2.22387e-09
-6.93195e-08
2.27819e-09
-6.78748e-08
2.28082e-09
-6.68124e-08
2.1337e-09
-6.59437e-08
1.86794e-09
-6.54242e-08
1.28998e-09
-3.00731e-10
-1.48857e-08
4.18093e-08
-5.83144e-08
1.66461e-08
-5.06386e-08
7.34794e-11
-6.31203e-08
1.40324e-08
-7.76066e-08
1.09183e-08
-7.94487e-08
-1.81513e-08
-1.09835e-07
5.02176e-09
-1.01818e-07
-1.97959e-09
-1.19157e-07
6.18026e-09
-1.0339e-07
-2.09187e-08
-4.82849e-08
-4.95718e-08
-7.58193e-08
4.62234e-08
-9.03636e-08
1.11116e-08
-8.81632e-08
-1.26695e-08
-8.56616e-08
-2.01743e-08
-4.59436e-08
-7.05963e-08
-7.61552e-08
2.96539e-08
-8.75994e-08
8.69927e-09
-1.10921e-07
1.00953e-08
-8.06979e-08
-1.45528e-08
-7.24369e-08
3.43315e-09
-6.04241e-08
1.65123e-08
1.03835e-07
1.76535e-08
-6.79054e-08
-6.59533e-08
-4.54918e-08
2.4263e-09
-1.24656e-07
-7.79821e-09
-5.64957e-08
4.46867e-08
-2.20058e-08
2.44376e-09
-7.9208e-08
-2.89594e-09
-9.13114e-08
-1.34412e-08
-9.55167e-08
-4.40439e-09
-8.66201e-08
8.32068e-09
-7.28498e-08
-1.19747e-08
-7.07057e-08
-1.39421e-08
-4.80589e-08
-2.29606e-08
-4.88319e-08
-7.60261e-09
-5.66221e-08
1.28192e-08
-4.5832e-08
9.71975e-09
-4.57033e-08
3.02421e-09
-4.21396e-08
2.15426e-09
-5.87431e-08
1.5837e-08
-7.13787e-08
1.25044e-08
-9.26768e-08
1.15197e-08
-1.02528e-07
3.05021e-08
-1.02231e-07
1.71336e-08
-1.05113e-07
1.2154e-08
-1.04917e-07
5.24254e-09
-1.03956e-07
4.10831e-09
-1.01616e-07
4.71038e-09
-9.85155e-08
4.28633e-09
-9.36154e-08
2.80669e-09
-8.6255e-08
-2.08264e-09
-7.63393e-08
-8.3979e-09
-6.43694e-08
-1.6004e-08
-5.21938e-08
-2.08597e-08
-4.09744e-08
-2.29056e-08
-3.12175e-08
-2.07047e-08
-2.42038e-08
-1.36924e-08
-1.96106e-08
-4.08475e-09
-1.86044e-08
6.01983e-09
-2.2e-08
1.24136e-08
-2.87375e-08
1.39461e-08
-3.97057e-08
1.3792e-08
-5.27305e-08
1.28944e-08
-6.22994e-08
1.00092e-08
-6.69202e-08
6.91308e-09
-6.88356e-08
4.69303e-09
-6.95203e-08
3.13695e-09
-6.94168e-08
2.12049e-09
-6.85774e-08
1.4389e-09
-6.7563e-08
1.2666e-09
-6.67666e-08
1.3378e-09
-6.60639e-08
1.16604e-09
-6.56612e-08
8.88062e-10
-1.88632e-10
2.6062e-08
2.33724e-08
4.29534e-08
-4.12497e-10
5.41017e-08
-1.13021e-08
6.68926e-08
1.11205e-09
8.42333e-08
-5.74705e-09
7.52783e-08
-8.33716e-09
7.94363e-08
2.16303e-12
8.32283e-08
-6.54602e-09
6.78161e-08
2.19068e-08
3.10054e-08
1.72757e-08
2.09018e-07
6.41317e-08
7.86111e-09
-4.36815e-08
1.09569e-08
8.01574e-09
-9.80072e-09
8.08814e-09
-4.76907e-08
1.72292e-08
1.15126e-07
5.84941e-08
-1.08019e-07
-3.88021e-08
-1.12419e-07
1.30989e-08
-1.12782e-07
1.16053e-08
-1.11045e-07
-1.64387e-08
-8.97032e-08
-1.79083e-08
-6.16039e-08
-1.1587e-08
1.7503e-08
-6.20868e-08
-2.36383e-08
-2.54848e-08
-6.06884e-08
3.94764e-08
-9.61421e-08
2.77351e-08
-5.50239e-08
3.56853e-09
-7.69089e-08
2.43289e-08
-6.21596e-08
-1.74671e-08
-7.43895e-08
-1.21126e-09
-8.3074e-08
4.28017e-09
-8.35211e-08
8.76787e-09
-9.12787e-08
-4.26053e-09
-6.89488e-08
-3.55686e-08
3.37748e-09
-9.55528e-08
-2.05197e-08
1.63706e-08
-1.96597e-08
1.16226e-08
-1.46233e-08
4.43764e-09
-2.31392e-08
1.1571e-08
-5.06808e-08
3.05465e-08
-6.73278e-08
3.1967e-08
-9.03881e-08
3.35929e-08
-1.16341e-07
3.78954e-08
-1.17825e-07
3.40275e-08
-1.1807e-07
1.83855e-08
-1.17566e-07
1.16502e-08
-1.14933e-07
2.60939e-09
-1.11015e-07
1.89649e-10
-1.05402e-07
-9.02649e-10
-9.99181e-08
-1.1971e-09
-9.06578e-08
-6.45359e-09
-8.15523e-08
-1.11882e-08
-7.24232e-08
-1.75269e-08
-6.4826e-08
-2.36013e-08
-5.74143e-08
-2.82713e-08
-5.06709e-08
-2.9649e-08
-4.38681e-08
-2.75075e-08
-3.79502e-08
-1.96102e-08
-3.39525e-08
-8.08247e-09
-3.47218e-08
6.78919e-09
-4.14123e-08
1.91041e-08
-5.07663e-08
2.33001e-08
-6.06046e-08
2.36304e-08
-6.76102e-08
1.99e-08
-6.95034e-08
1.19025e-08
-6.92353e-08
6.64518e-09
-6.90131e-08
4.47092e-09
-6.90613e-08
3.18526e-09
-6.87946e-08
1.85392e-09
-6.81541e-08
7.9848e-10
-6.74366e-08
5.49352e-10
-6.67501e-08
6.51831e-10
-6.61881e-08
6.04856e-10
-6.58477e-08
5.48416e-10
-1.13053e-10
-1.03198e-07
-2.05271e-08
-2.47972e-08
1.6268e-08
-6.11962e-08
2.47243e-08
-5.45962e-08
-4.85261e-09
-6.13876e-08
9.85614e-10
-6.26759e-08
-7.049e-09
-1.72617e-08
-4.5236e-08
-6.9429e-08
4.48541e-08
-6.19126e-08
1.32625e-08
-5.93018e-08
1.54811e-08
-2.78233e-08
3.2604e-08
-8.42291e-08
1.27243e-08
-7.02911e-08
-5.86245e-09
-6.70052e-08
4.80226e-09
-6.18631e-08
1.20871e-08
1.61911e-08
-2.01977e-08
-9.10948e-08
6.84838e-08
-1.12397e-07
3.51967e-08
-1.02414e-07
1.62219e-09
-1.06948e-07
-1.19045e-08
-7.3224e-08
-5.21645e-08
-1.30199e-07
4.40598e-08
4.50529e-08
5.45685e-08
4.21662e-08
-2.30577e-08
-1.22242e-07
-8.50447e-08
-8.02392e-08
-1.42675e-08
-4.98918e-08
-2.67788e-08
-1.07301e-07
-1.34768e-08
-6.21342e-08
3.27032e-08
-9.33815e-08
2.94022e-08
-8.21172e-08
-6.98409e-09
-7.51989e-08
1.0825e-09
-1.57586e-07
-1.91756e-08
-1.02559e-07
7.32129e-09
7.85035e-08
1.06472e-08
-6.46473e-08
-1.27613e-07
-5.91592e-08
6.19714e-09
-4.50522e-08
-9.66933e-09
-4.03887e-08
6.09799e-09
-3.88905e-08
2.86476e-08
-3.98537e-08
3.40713e-08
-3.78248e-08
3.20093e-08
-3.99683e-08
3.96779e-08
-3.45008e-08
2.82198e-08
-3.54394e-08
1.93242e-08
-3.95385e-08
1.57493e-08
-4.7392e-08
1.04629e-08
-5.33467e-08
6.14434e-09
-5.72859e-08
3.03654e-09
-5.87964e-08
3.13463e-10
-5.88709e-08
-6.37912e-09
-6.01363e-08
-9.92273e-09
-6.33722e-08
-1.4291e-08
-6.89596e-08
-1.80138e-08
-7.32458e-08
-2.39851e-08
-7.57464e-08
-2.71484e-08
-7.62781e-08
-2.69757e-08
-7.41733e-08
-2.1715e-08
-7.07659e-08
-1.14898e-08
-6.89676e-08
4.9909e-09
-6.98363e-08
1.99728e-08
-7.17279e-08
2.51918e-08
-7.32502e-08
2.51528e-08
-7.29652e-08
1.96149e-08
-7.11646e-08
1.0102e-08
-6.97595e-08
5.24014e-09
-6.89029e-08
3.61451e-09
-6.84605e-08
2.74298e-09
-6.80977e-08
1.49122e-09
-6.75799e-08
2.80815e-10
-6.70166e-08
-1.37422e-11
-6.65278e-08
1.63556e-10
-6.61772e-08
2.55002e-10
-6.59515e-08
3.2351e-10
-3.93767e-11
-4.27204e-08
-1.87793e-08
-7.26384e-08
4.63512e-08
-9.43453e-08
4.61785e-08
-1.00426e-07
1.22778e-09
-1.13611e-07
1.41708e-08
-1.4996e-07
2.93001e-08
4.83747e-08
4.5358e-08
-1.5405e-07
-4.11931e-08
-1.05403e-07
-3.58854e-08
-5.49593e-08
-3.51207e-08
-8.07698e-08
5.78246e-08
-1.66883e-07
4.23013e-09
-8.82164e-08
1.07002e-08
-9.28088e-08
8.49477e-09
-1.07276e-07
2.52031e-08
9.42038e-08
7.02294e-08
-1.09977e-07
-1.79242e-08
-7.41033e-08
-6.76941e-10
-8.49826e-08
1.25015e-08
-1.07969e-07
9.9805e-09
8.90933e-08
4.26802e-08
-1.10208e-07
-4.69563e-08
-2.89531e-08
-2.75235e-08
-2.48499e-08
-2.71608e-08
-8.38964e-08
-2.59982e-08
-7.53067e-08
-2.28571e-08
-8.6357e-08
-1.57285e-08
-4.85068e-08
-5.1327e-08
-5.1583e-08
3.57483e-08
-1.22068e-07
3.57786e-09
-6.29107e-08
3.0168e-08
-7.72168e-08
1.53886e-08
-1.04782e-07
8.67405e-09
-1.06421e-07
7.87477e-09
-1.06443e-07
9.57166e-09
4.78879e-08
9.74478e-09
-1.63625e-07
-7.24463e-08
-1.02031e-07
-7.31495e-08
-1.46098e-07
5.01646e-08
-1.41316e-07
2.50642e-08
-1.19107e-07
1.15153e-08
-1.06176e-07
1.92088e-08
-7.57132e-08
1.02872e-08
-5.76802e-08
1.09437e-08
-4.97805e-08
1.14245e-08
-4.41459e-08
1.01148e-08
-4.27131e-08
9.03011e-09
-4.37761e-08
7.20735e-09
-4.73267e-08
6.58712e-09
-5.09157e-08
3.90254e-09
-5.69063e-08
-3.88506e-10
-6.37114e-08
-3.11761e-09
-7.13147e-08
-6.68767e-09
-7.85528e-08
-1.07756e-08
-8.40242e-08
-1.85137e-08
-8.82656e-08
-2.2907e-08
-9.2526e-08
-2.27153e-08
-9.64511e-08
-1.77897e-08
-9.82074e-08
-9.73352e-09
-9.52321e-08
2.01561e-09
-9.01041e-08
1.48449e-08
-8.5671e-08
2.07587e-08
-8.10486e-08
2.05305e-08
-7.62643e-08
1.48307e-08
-7.31436e-08
6.98144e-09
-7.12347e-08
3.3313e-09
-6.9792e-08
2.17195e-09
-6.86464e-08
1.59753e-09
-6.78533e-08
6.98214e-10
-6.73554e-08
-2.16952e-10
-6.69585e-08
-4.10412e-10
-6.65823e-08
-2.12142e-10
-6.63015e-08
-2.50094e-11
-6.60715e-08
9.42709e-11
-5.39103e-13
8.46348e-08
5.98762e-08
-1.35206e-07
-2.38449e-08
-1.02507e-07
1.34789e-08
-1.15745e-07
1.44656e-08
-1.10298e-07
8.72426e-09
-1.23587e-07
4.2159e-08
-7.73741e-08
-8.64148e-10
-1.2095e-07
1.14927e-09
-1.58756e-07
1.90086e-09
5.64557e-08
3.96401e-08
-1.30202e-07
-4.15285e-08
-1.08983e-07
-1.72054e-08
-7.51689e-08
-2.27761e-08
-6.45417e-08
-2.24085e-09
-4.70788e-08
7.74025e-09
7.22407e-10
2.1017e-08
-2.19666e-08
4.76478e-09
-2.98795e-08
7.16296e-09
-2.36879e-08
6.37501e-09
-3.49975e-08
2.12901e-08
-1.37317e-08
2.10538e-08
-6.3921e-08
2.57418e-09
-7.41274e-08
-1.66582e-08
-4.18995e-08
-5.92368e-08
-1.01758e-07
3.38604e-08
-1.27551e-07
2.93614e-09
-1.33e-07
-1.01763e-08
8.91841e-08
1.45085e-08
-1.16572e-07
-4.45067e-08
-8.77729e-08
-2.64106e-08
-6.47808e-08
7.176e-09
-5.50466e-08
5.09281e-09
-6.45045e-08
1.8132e-08
-5.49263e-08
-1.04534e-09
-5.821e-08
1.27577e-08
-6.26498e-08
1.35846e-08
-1.48994e-07
1.24913e-08
2.02998e-08
5.15303e-08
-1.73452e-07
-4.57314e-08
-1.31067e-07
-1.73212e-08
-1.07448e-07
-1.10078e-08
-9.528e-08
8.00356e-09
-8.45977e-08
-4.98007e-10
-7.01082e-08
-3.54571e-09
-5.83867e-08
-2.97047e-10
-5.4174e-08
5.90211e-09
-5.2589e-08
7.4451e-09
-5.33033e-08
7.92166e-09
-5.55412e-08
8.82509e-09
-5.95933e-08
7.95466e-09
-6.55482e-08
5.56643e-09
-7.17835e-08
3.11775e-09
-7.71057e-08
-1.36552e-09
-8.14e-08
-6.48125e-09