/*--------------------------------*- C++ -*----------------------------------*\
  =========                 |
  \\      /  F ield         | OpenFOAM: The Open Source CFD Toolbox
   \\    /   O peration     | Website:  https://openfoam.org
    \\  /    A nd           | Version:  12
     \\/     M anipulation  |
\*---------------------------------------------------------------------------*/
FoamFile
{
    format      ascii;
    class       surfaceScalarField;
    location    "0.65";
    object      phi.water;
}
// * * * * * * * * * * * * * * * * * * * * * * * * * * * * * * * * * * * * * //

dimensions      [0 3 -1 0 0 0 0];

internalField   nonuniform List<scalar> 
7375
(
1.36508e-07
-8.29904e-09
1.41154e-07
-4.64339e-09
1.92864e-07
-5.42458e-08
1.451e-07
4.77649e-08
1.24447e-07
2.23898e-08
1.27287e-07
-2.79179e-09
1.74381e-07
-4.70898e-08
1.22666e-07
5.11988e-08
1.24538e-07
-5.91234e-10
1.08747e-07
1.5771e-08
1.09379e-07
-6.30547e-10
9.79596e-08
1.14027e-08
9.83342e-08
-1.41195e-09
9.20679e-08
6.32509e-09
1.04543e-07
-1.16845e-08
1.04329e-07
2.28923e-10
1.01554e-07
1.71877e-09
1.02468e-07
-8.91048e-10
9.80632e-08
4.3669e-09
9.33546e-08
4.66407e-09
9.05443e-08
2.79851e-09
5.81278e-08
3.24193e-08
2.71742e-08
3.12382e-08
2.18474e-07
1.00662e-07
2.19645e-07
-5.71308e-09
-5.54439e-09
-6.08387e-08
2.59219e-07
2.43896e-08
4.44946e-08
-7.316e-08
2.26022e-08
2.23643e-08
2.25944e-07
8.85547e-08
2.22992e-07
-1.60959e-09
4.73888e-08
-1.11115e-07
7.70602e-08
-2.95217e-08
1.16126e-07
-4.02759e-08
1.08842e-07
7.26713e-09
8.82137e-08
2.04202e-08
8.56248e-08
2.54532e-09
7.8893e-08
5.92782e-09
7.3418e-08
5.41982e-09
6.99036e-08
4.29099e-09
6.84377e-08
1.46499e-09
7.24512e-08
-3.28617e-09
6.80967e-08
4.48375e-09
8.10143e-08
-1.27906e-08
5.82189e-08
2.28176e-08
4.67442e-08
1.04003e-08
2.23439e-08
2.46489e-08
7.19469e-09
1.52541e-08
-7.7649e-09
1.48189e-08
-2.78874e-08
1.99215e-08
-4.33522e-08
1.48626e-08
-5.61165e-08
1.32255e-08
-4.81002e-08
-6.89448e-09
-4.03924e-08
-7.70739e-09
-3.29204e-08
-7.47219e-09
-2.21514e-08
-1.07686e-08
-1.22184e-08
-9.93323e-09
-2.29801e-09
-9.91999e-09
6.24122e-09
-8.53956e-09
1.45417e-08
-8.30011e-09
2.21772e-08
-7.63581e-09
2.93688e-08
-7.19135e-09
3.66666e-08
-7.29829e-09
4.51862e-08
-8.51939e-09
5.54762e-08
-1.02906e-08
6.58709e-08
-1.03946e-08
7.3822e-08
-7.95173e-09
7.39219e-08
-9.98018e-11
6.27159e-08
1.12057e-08
4.42518e-08
1.84644e-08
2.2721e-08
2.15307e-08
1.25606e-09
2.14648e-08
-2.0413e-08
2.16683e-08
-3.77075e-08
1.72935e-08
5.05082e-09
5.01133e-08
-1.82583e-09
2.87666e-08
1.73322e-08
2.39412e-07
2.67404e-08
3.39546e-08
-3.73148e-08
6.18219e-08
-6.05219e-09
4.70632e-08
1.14586e-08
2.35614e-07
5.18948e-08
5.57179e-08
-5.54792e-08
7.77268e-08
-2.20374e-08
9.01358e-08
3.95387e-09
8.64833e-08
3.02202e-09
9.27035e-08
5.95139e-09
8.18338e-08
1.03012e-08
7.33874e-08
1.56018e-08
4.59665e-08
1.48178e-08
4.27052e-08
2.5502e-09
4.1509e-08
2.49146e-09
4.42333e-08
-4.06194e-09
5.00323e-08
-1.4907e-09
6.63348e-08
-1.11331e-08
1.13473e-07
-4.3663e-08
7.48581e-08
7.0317e-08
6.65357e-08
3.99683e-08
1.29154e-07
3.873e-08
1.0642e-07
1.71973e-08
7.41423e-08
-3.02669e-08
1.10395e-07
-1.33746e-08
1.17207e-07
-8.18945e-08
9.55387e-08
4.4764e-08
1.26643e-07
5.62298e-08
1.12269e-07
1.40394e-08
2.02875e-08
-1.91091e-08
3.39431e-09
-1.2371e-08
2.60759e-08
-6.36485e-08
-9.6803e-10
3.40548e-08
1.24149e-08
6.84276e-09
2.16776e-08
-6.59212e-09
2.4785e-08
2.7887e-09
2.51929e-08
5.32092e-09
1.70906e-09
2.83087e-08
6.20082e-09
-3.0752e-09
1.82488e-08
-1.52708e-08
1.75751e-08
5.11166e-09
3.36151e-09
1.42303e-09
-5.44971e-09
3.13959e-08
-1.16881e-08
1.63528e-08
-1.1455e-08
2.4535e-08
-1.9717e-08
2.35928e-08
-2.54751e-08
2.04289e-08
-1.96406e-08
1.38879e-08
-1.30319e-08
8.1053e-09
-1.78735e-08
1.78028e-08
-2.42719e-08
-4.96076e-10
-3.42456e-08
2.26656e-09
-4.48416e-08
3.12376e-09
-5.23456e-08
-3.26446e-09
-5.47807e-08
-7.49812e-09
-5.40603e-08
-1.06403e-08
-5.0763e-08
-1.18369e-08
-4.73093e-08
-1.17537e-08
-4.3974e-08
-1.09712e-08
-3.98747e-08
-1.12906e-08
-3.32684e-08
-1.39048e-08
-2.30958e-08
-1.86921e-08
-1.03687e-08
-2.3018e-08
2.80561e-09
-2.35692e-08
1.30537e-08
-1.82002e-08
1.51082e-08
-2.15445e-09
5.65981e-09
2.0654e-08
-1.18665e-08
3.59909e-08
-3.27105e-08
4.23746e-08
-4.92162e-08
3.79703e-08
-5.44637e-08
2.69148e-08
-5.60353e-08
1.88641e-08
3.15835e-09
-9.61814e-08
-2.13718e-08
-5.96268e-09
2.3483e-08
3.33879e-09
1.71092e-08
-2.02569e-08
-1.3478e-08
-2.63799e-08
-1.34197e-10
-2.21337e-08
6.76097e-09
1.31183e-08
1.6699e-08
-2.61388e-08
-1.69217e-08
-2.54938e-08
-2.2647e-08
-1.35482e-08
-7.99164e-09
-5.17614e-09
-5.38044e-09
8.81307e-09
-8.03769e-09
1.73459e-08
1.95007e-09
1.95159e-08
1.307e-08
1.70659e-08
1.67715e-08
1.10176e-08
8.77271e-09
5.44562e-09
8.06345e-09
-3.36886e-09
4.71117e-09
-1.53772e-08
1.05025e-08
-4.6375e-08
1.99548e-08
1.27583e-07
7.07279e-08
-5.94648e-08
-2.95452e-08
-4.11427e-08
2.06092e-08
-2.00407e-08
1.78456e-08
-5.30907e-08
5.02765e-08
-9.67131e-08
1.30436e-08
-1.07371e-07
-2.71664e-09
1.3553e-07
-3.69888e-08
-3.53579e-08
-6.99077e-08
-4.98399e-08
6.91373e-08
-4.63267e-08
1.01934e-08
-7.27092e-08
8.6972e-09
-8.96509e-08
4.52447e-09
9.62011e-08
4.21386e-08
-8.72176e-08
-7.15475e-08
-4.58067e-08
-3.4499e-08
-4.71744e-08
-5.75905e-09
-5.31236e-08
8.73778e-09
-4.6983e-08
-1.24474e-09
-1.03776e-07
-1.35625e-08
-1.12284e-07
6.53825e-09
-8.79451e-08
5.78457e-08
-8.94275e-08
6.59401e-09
-1.06893e-07
1.86983e-08
-9.49167e-08
2.01817e-08
-9.38456e-08
1.60673e-08
-9.79564e-08
2.81553e-08
-8.04934e-08
6.12988e-09
-7.1529e-08
1.14646e-08
-6.59402e-08
8.29922e-09
-6.2336e-08
4.50122e-09
-5.34406e-08
8.90759e-09
-6.11907e-08
7.25406e-09
-6.77397e-08
8.81574e-09
-7.54019e-08
1.0786e-08
-8.47161e-08
6.0498e-09
-9.10176e-08
-1.19651e-09
-9.34487e-08
-8.20917e-09
-9.40784e-08
-1.12072e-08
-9.44855e-08
-1.13465e-08
-9.44978e-08
-1.09589e-08
-9.22368e-08
-1.35516e-08
-8.59852e-08
-2.01566e-08
-7.80722e-08
-2.66052e-08
-7.1586e-08
-2.95045e-08
-6.6675e-08
-2.84804e-08
-6.54888e-08
-1.93867e-08
-6.90218e-08
1.37836e-09
-7.49826e-08
2.66148e-08
-7.70304e-08
3.80386e-08
-7.48035e-08
4.01476e-08
-6.87652e-08
3.19315e-08
-6.39027e-08
2.20512e-08
-6.00054e-08
1.49657e-08
6.12569e-10
-8.5424e-08
-1.06925e-08
-4.91965e-08
-1.23777e-08
-6.74664e-08
-6.13817e-08
-5.36302e-08
6.8996e-08
-5.46366e-08
1.41406e-09
-2.99521e-08
-1.76891e-08
-1.05151e-08
-3.20896e-09
-3.13105e-08
3.76666e-09
-5.13319e-08
-2.62547e-09
-2.85702e-08
-3.02349e-08
-2.59766e-08
-7.97399e-09
-3.35084e-08
-1.18251e-09
-4.06896e-08
9.22638e-09
-3.99249e-08
1.25871e-08
-4.05262e-08
1.7544e-08
-4.20961e-08
1.03427e-08
-4.64825e-08
1.24499e-08
-5.19761e-08
1.031e-08
-6.94387e-08
2.72567e-08
-7.89645e-08
2.86667e-08
-5.56418e-08
4.76456e-08
-9.74977e-08
1.25797e-08
-1.14642e-07
3.85382e-08
-1.05133e-07
8.15442e-09
-8.21069e-08
2.5638e-08
-1.58926e-07
-7.43959e-09
-1.11285e-07
4.76013e-08
8.92871e-08
5.1368e-08
8.38916e-08
-6.67623e-08
-1.14406e-07
-1.83904e-08
-9.18401e-08
-1.37846e-08
-8.3181e-08
-5.07375e-11
-6.90163e-08
-9.59406e-09
-2.93414e-08
2.03367e-09
-7.41137e-08
-2.67752e-08
-3.46452e-08
-7.50856e-08
-7.63976e-08
3.56299e-08
-8.29136e-08
1.50997e-08
-8.7384e-08
3.19302e-09
-6.16006e-08
-3.98361e-08
-1.26786e-07
7.16566e-08
-8.5854e-08
1.82069e-08
-9.21176e-08
1.37973e-08
-9.33522e-08
2.08757e-08
-8.51842e-08
1.1812e-08
-7.78106e-08
8.69371e-09
-6.16427e-08
1.19874e-08
-6.41897e-08
8.67694e-09
-6.03122e-08
7.58719e-09
-5.72409e-08
5.22803e-09
-5.71822e-08
4.44267e-09
-5.52873e-08
7.01273e-09
-5.8872e-08
1.08388e-08
-6.51381e-08
1.5082e-08
-7.24884e-08
1.81363e-08
-8.20251e-08
1.55866e-08
-9.18979e-08
8.67636e-09
-9.94611e-08
-6.45963e-10
-1.04309e-07
-6.35912e-09
-1.07479e-07
-8.17636e-09
-1.09229e-07
-9.20956e-09
-1.07436e-07
-1.53442e-08
-1.01761e-07
-2.58318e-08
-9.70803e-08
-3.1286e-08
-9.45416e-08
-3.20434e-08
-9.52594e-08
-2.77629e-08
-9.99156e-08
-1.47307e-08
-1.02782e-07
4.24451e-09
-9.89557e-08
2.27884e-08
-9.18873e-08
3.09701e-08
-8.16178e-08
2.98778e-08
-7.2076e-08
2.23892e-08
-6.66751e-08
1.66491e-08
-6.23483e-08
1.06378e-08
-1.12267e-09
-6.74117e-08
-1.43143e-09
-8.81255e-08
7.37261e-09
9.47038e-08
4.67885e-08
-1.45046e-07
-7.59791e-08
-5.19517e-08
3.6572e-09
-6.89587e-08
-1.39237e-09
1.18484e-08
-8.40487e-08
-7.39221e-09
2.27751e-08
-7.73353e-08
-2.82031e-08
-1.23789e-08
1.46003e-10
-3.14949e-08
1.12558e-08
-3.48873e-08
1.85764e-09
-6.87196e-08
4.30478e-08
-5.63053e-08
8.74009e-10
-5.96679e-08
2.09066e-08
-6.59182e-08
1.6593e-08
-6.91616e-08
1.49878e-08
-8.46443e-08
2.60614e-08
-8.3448e-08
2.6924e-08
-7.51271e-08
2.00534e-08
-8.91375e-08
6.11699e-08
-9.1134e-08
1.44479e-08
-5.84308e-08
5.83499e-09
-5.89766e-08
9.30194e-09
-5.1039e-08
1.75234e-08
-7.5233e-08
1.63097e-08
-4.83669e-08
2.07351e-08
-2.57861e-08
2.85242e-08
1.5081e-07
4.69948e-08
-8.32495e-08
-7.28922e-08
-8.00826e-08
-1.78096e-08
-6.74764e-08
-1.184e-08
-1.02626e-07
2.58189e-08
-1.01963e-07
1.3706e-09
-1.22323e-07
-7.66309e-09
5.0672e-08
4.33042e-08
-1.12195e-07
-8.68933e-08
-8.45681e-08
-1.28063e-08
-9.82505e-08
1.58612e-08
9.14018e-08
5.90407e-08
-9.39121e-08
-3.23595e-08
-6.36485e-08
-1.20568e-08
-5.48536e-08
4.95193e-09
-5.17299e-08
1.84927e-08
-4.87894e-08
9.38863e-09
-4.9145e-08
9.04937e-09
-4.47344e-08
7.57687e-09
-4.37552e-08
7.69786e-09
-4.23141e-08
6.14611e-09
-4.27749e-08
5.68893e-09
-4.55301e-08
7.198e-09
-4.82447e-08
9.72745e-09
-5.16604e-08
1.42546e-08
-5.64798e-08
1.99015e-08
-6.29975e-08
2.4654e-08
-7.14609e-08
2.40501e-08
-8.19526e-08
1.91682e-08
-9.3819e-08
1.12205e-08
-1.03719e-07
3.54105e-09
-1.09533e-07
-2.36217e-09
-1.1074e-07
-8.00304e-09
-1.06856e-07
-1.92285e-08
-1.01848e-07
-3.084e-08
-9.89071e-08
-3.42265e-08
-9.71906e-08
-3.37601e-08
-9.89129e-08
-2.60408e-08
-1.02964e-07
-1.06798e-08
-1.04038e-07
5.31866e-09
-9.75727e-08
1.63225e-08
-8.76393e-08
2.10365e-08
-7.77236e-08
1.99619e-08
-7.09681e-08
1.5633e-08
-6.66666e-08
1.23464e-08
-6.36137e-08
7.58376e-09
-1.46986e-09
-5.44834e-08
-5.84125e-09
-3.06857e-08
-1.63497e-08
3.65371e-09
1.16594e-08
-6.27197e-08
-9.60534e-09
-2.70011e-08
-3.20237e-08
-1.22904e-07
-1.79872e-09
1.27257e-07
4.97304e-08
-8.19526e-08
-5.4026e-08
-7.69048e-08
-3.44381e-08
-4.66902e-08
-3.0067e-08
-4.11785e-08
5.74411e-09
-4.78403e-08
8.13342e-09
-1.30353e-07
2.78141e-08
-7.80916e-08
4.62527e-08
-8.24718e-08
2.52869e-08
-1.03135e-07
3.72562e-08
-1.22486e-07
3.30892e-08
-1.20247e-07
2.33139e-08
-9.58149e-08
3.71849e-09
-4.55e-08
-3.05734e-08
-1.45535e-07
6.42394e-08
-7.72726e-08
4.24958e-08
-7.23667e-08
9.29114e-10
-8.14071e-08
1.91728e-08
-5.37017e-08
-1.0005e-08
-4.97081e-08
1.17682e-08
-4.05554e-08
1.15824e-08
-2.20681e-08
1.00368e-08
2.16999e-08
2.74734e-09
-4.73063e-08
-4.62967e-09
-6.8012e-08
3.07769e-09
-6.40021e-08
-1.65029e-08
-1.19555e-07
-1.5931e-08
-1.12279e-07
-4.68503e-09
-7.52473e-08
5.16145e-08
-4.42149e-08
1.183e-08
-1.12126e-07
-2.00737e-08
-1.1476e-07
-9.03966e-09
-8.83258e-08
-1.14204e-08
-4.67614e-08
1.70479e-08
-6.14373e-08
-1.72114e-08
-5.89385e-08
-1.4581e-08
-5.3103e-08
-8.83594e-10
-5.00916e-08
1.52947e-08
-4.47033e-08
4.50115e-09
-3.99309e-08
4.27697e-09
-3.80908e-08
5.73688e-09
-3.76919e-08
7.29903e-09
-3.7722e-08
6.17632e-09
-3.88333e-08
6.80032e-09
-4.08835e-08
9.24825e-09
-4.39523e-08
1.27963e-08
-4.74884e-08
1.77908e-08
-5.11925e-08
2.36057e-08
-5.43283e-08
2.77898e-08
-5.85815e-08
2.83034e-08
-6.4696e-08
2.52828e-08
-7.25769e-08
1.91014e-08
-8.1525e-08
1.24892e-08
-8.89525e-08
5.06528e-09
-9.14771e-08
-5.4784e-09
-8.90146e-08
-2.1691e-08
-8.70747e-08
-3.278e-08
-8.65011e-08
-3.48002e-08
-8.78468e-08
-3.24145e-08
-9.17337e-08
-2.21542e-08
-9.49604e-08
-7.45329e-09
-9.37917e-08
4.14971e-09
-8.80901e-08
1.06207e-08
-8.04206e-08
1.33668e-08
-7.39171e-08
1.3458e-08
-6.95949e-08
1.13102e-08
-6.64571e-08
9.20725e-09
-6.45782e-08
5.70366e-09
-1.26708e-09
-6.7208e-08
-1.64803e-08
-5.08305e-08
-3.2893e-08
-4.79894e-08
8.81888e-09
-5.9534e-08
1.93968e-09
-7.31329e-08
-1.84246e-08
-8.14677e-08
6.53635e-09
-2.45816e-08
-7.15565e-09
-6.42962e-08
-1.55184e-08
-9.7863e-08
-8.80301e-10
-5.93303e-08
-6.90092e-08
-1.09395e-07
5.52562e-08
-1.36978e-07
3.57168e-08
-1.32754e-07
2.47043e-08
-1.16907e-07
3.00987e-08
-1.07173e-07
1.55528e-08
-1.00856e-07
3.09393e-08
-1.75573e-07
1.32872e-08
-1.16437e-07
5.92797e-08
-1.36671e-07
2.11544e-08
4.77025e-08
7.64688e-08
-1.37692e-07
-3.68595e-08
-9.73713e-08
7.70897e-10
-8.99777e-08
-6.46449e-09
-7.7581e-08
6.77602e-09
-8.17821e-08
-5.90591e-09
-6.94805e-08
-5.33417e-10
-6.01711e-08
2.27298e-09
-4.83478e-08
-1.78648e-09
-9.97063e-10
-4.46034e-08
-5.0382e-08
4.43033e-08
-5.16107e-08
4.30639e-09
-7.02663e-08
2.15264e-09
-9.82364e-08
1.22016e-08
-1.0809e-07
5.16818e-09
-7.66299e-08
2.01547e-08
-8.12568e-08
1.56279e-08
-1.20657e-07
2.05703e-08
-1.15023e-07
-1.46172e-08
-1.27165e-07
-5.81735e-10
-1.0874e-07
-2.53701e-10
-1.10367e-07
-1.59226e-08
-1.06481e-07
-1.86575e-08
-1.0312e-07
-3.20077e-09
-7.8123e-08
-8.82477e-09
-7.16617e-08
-1.96003e-09
-6.86116e-08
1.22689e-09
-6.69915e-08
4.11684e-09
-6.36834e-08
3.99101e-09
-6.1096e-08
3.58899e-09
-5.95661e-08
5.27043e-09
-5.79935e-08
7.67574e-09
-5.73337e-08
1.21366e-08
-5.69614e-08
1.74186e-08
-5.60218e-08
2.26662e-08
-5.52136e-08
2.69816e-08
-5.4929e-08
2.80189e-08
-5.51799e-08
2.55337e-08
-5.70658e-08
2.09874e-08
-6.07627e-08
1.61861e-08
-6.51145e-08
9.41708e-09
-6.85264e-08
-2.06648e-09
-7.10369e-08
-1.91805e-08
-7.35276e-08
-3.02894e-08
-7.61897e-08
-3.21383e-08
-8.01835e-08
-2.84208e-08
-8.47448e-08
-1.7593e-08
-8.69399e-08
-5.25848e-09
-8.4927e-08
2.13664e-09
-8.06217e-08
6.31507e-09
-7.61911e-08
8.93603e-09
-7.22462e-08
9.51276e-09
-6.92148e-08
8.27803e-09
-6.6887e-08
6.87825e-09
-6.55091e-08
4.32459e-09
-1.02152e-09
-8.61605e-08
-3.12288e-08
-4.66252e-08
-7.31739e-08
-6.99693e-08
3.21635e-08
-9.18998e-08
2.36296e-08
-9.41111e-08
-1.6213e-08
-9.33861e-08
5.81154e-09
-6.77894e-08
-3.30898e-08
-1.49818e-07
6.49819e-08
-2.05396e-07
5.04734e-08
-3.53514e-08
5.82707e-08
-2.30226e-07
-4.10476e-08
-1.93328e-07
8.03455e-10
-1.69684e-07
2.76273e-09
-1.36216e-07
-3.36879e-09
-1.42358e-07
2.03054e-08
-1.19006e-07
7.51055e-09
-1.21521e-07
1.58018e-08
-1.58297e-07
1.96568e-09
-7.93726e-08
3.75676e-08
-6.12181e-08
5.67245e-08
-8.03207e-08
-1.81329e-08
-8.80724e-08
8.52264e-09
-9.61145e-08
1.57766e-09
-8.98566e-08
5.18129e-10
-9.86517e-08
2.88912e-09
-9.96832e-08
4.98101e-10
-1.0017e-07
2.75978e-09
-1.1465e-07
1.26938e-08
8.07031e-08
4.81491e-08
-1.03394e-07
-5.70351e-08
-8.55339e-08
-1.46085e-08
-8.45767e-08
1.19548e-09
-6.90935e-08
-3.28174e-09
-3.42072e-08
-2.97182e-08
-6.97707e-08
5.51555e-08
-8.5659e-08
3.15161e-08
-8.53407e-08
2.00421e-08
-9.99295e-08
-1.77479e-10
-1.17058e-07
1.65525e-08
-1.11802e-07
-6.58273e-09
-1.19974e-07
-8.98695e-09
-1.35503e-07
-1.89219e-09
-1.23574e-07
-1.24864e-08
-1.17307e-07
-1.39964e-08
-1.10727e-07
-8.54013e-09
-1.06548e-07
-2.95214e-09
-1.03361e-07
9.29426e-10
-9.95417e-08
1.72118e-10
-9.69012e-08
9.48619e-10
-9.46562e-08
3.02545e-09
-9.20295e-08
5.04909e-09
-8.77767e-08
7.88392e-09
-8.16823e-08
1.13242e-08
-7.36532e-08
1.46373e-08
-6.5757e-08
1.90855e-08
-5.92445e-08
2.15065e-08
-5.44791e-08
2.07683e-08
-5.17807e-08
1.8289e-08
-5.15818e-08
1.59872e-08
-5.36459e-08
1.14812e-08
-5.71411e-08
1.42869e-09
-6.28916e-08
-1.34301e-08
-6.82046e-08
-2.49764e-08
-7.25697e-08
-2.77733e-08
-7.6415e-08
-2.45756e-08
-7.96386e-08
-1.43697e-08
-8.05916e-08
-4.30566e-09
-7.90017e-08
5.46527e-10
-7.63307e-08
3.64383e-09
-7.37061e-08
6.3112e-09
-7.11814e-08
6.9877e-09
-6.9007e-08
6.10291e-09
-6.72751e-08
5.14506e-09
-6.62376e-08
3.28588e-09
-7.89359e-10
-1.95678e-07
1.59432e-08
-1.90988e-08
4.46319e-08
-2.08433e-07
-6.57805e-08
-1.62726e-07
-2.2077e-08
-1.2461e-07
-5.65658e-08
-1.914e-07
6.9936e-08
-1.52044e-09
6.89374e-08
-2.05422e-07
-2.00298e-08
-1.72092e-07
1.48728e-08
-1.44971e-07
2.99483e-08
-1.69491e-07
-1.46301e-08
-2.35655e-07
-2.69372e-08
-1.5002e-07
1.23398e-08
-1.41582e-07
-1.33717e-08
-1.98566e-07
-1.68231e-08
-1.05571e-07
9.85261e-09
-1.01014e-07
1.01687e-08
-1.09813e-07
1.06552e-08
-8.55127e-08
1.3651e-08
-1.57693e-07
3.25949e-08
-1.02197e-07
2.26807e-08
-1.01436e-07
7.762e-09
-1.10525e-07
1.06666e-08
-1.30234e-07
2.04355e-08
-1.13789e-07
-1.35552e-08
-1.0247e-07
-1.08209e-08
-9.7813e-08
-1.89763e-09
-7.72446e-08
-7.87472e-09
-2.82427e-08
-5.58915e-10
-6.72033e-08
-1.86505e-08
-7.65685e-08
-5.92896e-09
-8.12721e-08
5.89909e-09
-1.19599e-07
3.50455e-08
8.055e-08
5.76516e-08
-1.03265e-07
-4.70405e-08
-7.13952e-08
-1.39338e-09
-5.41794e-08
2.82626e-09
-5.77601e-08
3.40321e-09
-1.33325e-07
-2.80371e-09
-6.33796e-08
1.88091e-08
-7.36786e-08
7.57119e-10
-7.40114e-08
-1.54e-09
-7.14366e-08
-1.50612e-08
-7.36918e-08
-1.11321e-08
-7.39254e-08
-7.64623e-09
-7.1442e-08
-5.43552e-09
-7.22193e-08
1.70681e-09
-7.39062e-08
1.85909e-09
-7.65632e-08
3.60568e-09
-8.02302e-08
6.6925e-09
-8.40008e-08
8.81972e-09
-8.58499e-08
9.7331e-09
-8.48476e-08
1.0322e-08
-8.05764e-08
1.03661e-08
-7.24413e-08
1.09503e-08
-6.20146e-08
1.10799e-08
-5.25164e-08
1.12701e-08
-4.62288e-08
1.20015e-08
-4.35298e-08
1.32882e-08
-4.43762e-08
1.23275e-08
-4.93416e-08
6.39409e-09
-5.77161e-08
-5.05558e-09
-6.48296e-08
-1.78629e-08
-6.87061e-08
-2.38969e-08
-7.19152e-08
-2.13667e-08
-7.49808e-08
-1.13043e-08
-7.62542e-08
-3.03247e-09
-7.59399e-08
2.31998e-10
-7.44668e-08
2.17057e-09
-7.25901e-08
4.43427e-09
-7.0711e-08
5.10817e-09
-6.90221e-08
4.4133e-09
-6.76493e-08
3.77099e-09
-6.68058e-08
2.44125e-09
-6.00769e-10
-1.87221e-07
4.99104e-08
-1.51944e-07
9.2591e-09
-2.11833e-07
-4.36988e-09
-2.30202e-07
-4.1621e-09
-3.84901e-08
4.44844e-08
-2.0792e-07
-4.62569e-08
-1.2238e-07
-1.96272e-08
-1.60031e-07
1.74435e-08
-1.30603e-07
-1.4555e-08
-1.12437e-07
1.13608e-08
-1.20582e-07
-6.5518e-09
-1.5564e-07
9.70936e-09
-1.22245e-07
-2.09312e-08
-1.26743e-07
-8.73847e-09
-1.31782e-07
-1.17839e-08
-1.05866e-07
-1.73068e-08
-9.43566e-08
-3.7852e-10
-9.41263e-08
1.0425e-08
-8.6008e-08
4.57237e-09
-8.69804e-08
3.32284e-08
-9.73307e-08
3.3031e-08
-1.18004e-07
2.84348e-08
-9.75609e-08
-1.06625e-08
-1.72237e-07
-2.19116e-09
-1.10228e-07
2.25035e-08
-1.0351e-07
-1.77203e-08
-1.09834e-07
4.42651e-09
-1.02639e-07
-1.41676e-08
-7.2212e-08
-3.09856e-08
-7.20056e-08
-1.97839e-08
-6.90004e-08
-8.84394e-09
-6.56838e-08
2.58242e-09
-1.33508e-07
7.92196e-09
-1.2404e-08
3.18848e-08
-5.95244e-08
8.0651e-11
-5.35114e-08
-7.33231e-09
-4.67982e-08
-4.43285e-09
-4.84401e-08
5.53925e-09
-5.9916e-08
8.58547e-09
-4.06078e-08
-9.18507e-10
-3.65004e-08
-3.31652e-09
-2.71665e-08
-1.08739e-08
-4.37509e-08
1.52324e-09
-6.37583e-08
8.87523e-09
-7.29214e-08
2.18283e-09
-7.41815e-08
-3.48105e-09
-7.67149e-08
4.24026e-09
-7.84677e-08
3.61186e-09
-8.05754e-08
5.71346e-09
-8.21824e-08
8.29958e-09
-8.31196e-08
9.75691e-09
-8.22316e-08
8.84518e-09
-7.92604e-08
7.35081e-09
-7.40096e-08
5.11536e-09
-6.54472e-08
2.38793e-09
-5.41176e-08
-2.49683e-10
-4.26942e-08
-1.53233e-10
-3.32163e-08
2.52355e-09
-2.74576e-08
7.52957e-09
-2.56969e-08
1.05668e-08
-2.79504e-08
8.64761e-09
-3.53713e-08
2.36535e-09
-4.55056e-08
-7.72867e-09
-5.47274e-08
-1.46752e-08
-6.29994e-08
-1.30948e-08
-6.8824e-08
-5.47989e-09
-7.1578e-08
-2.78658e-10
-7.2776e-08
1.4298e-09
-7.27316e-08
2.12595e-09
-7.16021e-08
3.30449e-09
-7.01774e-08
3.68308e-09
-6.89262e-08
3.16143e-09
-6.78678e-08
2.71128e-09
-6.7222e-08
1.79428e-09
-4.35948e-10
-1.95171e-07
3.41209e-08
-1.42143e-07
5.29879e-08
-1.74784e-07
2.65151e-08
-1.91201e-07
1.20867e-08
-1.60458e-07
1.52531e-08
-1.83444e-07
-2.39764e-08
-1.97406e-07
-3.66828e-09
-1.53755e-07
-2.42145e-08
-1.56324e-07
-1.20822e-08
-1.43685e-07
-2.75727e-09
-1.53184e-07
1.45121e-09
-1.368e-07
-5.11174e-09
-1.35465e-07
-2.10975e-08
-1.28376e-07
-1.58277e-08
-1.29856e-07
-1.17341e-08
-1.19022e-07
-2.81403e-08
-1.0016e-07
-1.92401e-08
-9.01317e-08
5.02735e-10
-7.84338e-08
-6.32532e-09
-7.29041e-08
2.74218e-08
-5.49805e-08
1.43637e-08
-1.24346e-07
2.7587e-09
-6.39671e-08
2.42961e-08
-8.14635e-08
1.45269e-08
-6.81944e-08
8.53861e-09
-7.4927e-08
-1.11021e-08
-7.55448e-08
5.03805e-09
-1.51658e-07
-3.53565e-08
-8.16905e-08
-3.41262e-09
-8.80973e-08
-1.24784e-08
-8.44702e-08
-1.2471e-08
-8.6622e-08
3.87249e-09
-8.58382e-08
7.13805e-09
-6.05139e-08
6.88578e-09
-6.19077e-08
2.08472e-09
-5.63807e-08
-1.29335e-08
-5.27818e-08
-8.69559e-09
-4.81397e-08
1.38824e-09
-3.46816e-08
-4.73816e-09
-3.31942e-08
-2.39661e-09
-2.2269e-08
-1.4387e-08
1.67667e-08
-5.06535e-08
-2.67858e-08
4.50757e-08
-5.09083e-08
3.29977e-08
-6.96632e-08
2.09378e-08
-8.30644e-08
1.06238e-08
-8.50668e-08
7.07313e-09
-8.77925e-08
6.33765e-09
-9.01421e-08
8.06309e-09
-9.00049e-08
8.16238e-09
-8.85078e-08
8.25983e-09
-8.53042e-08
5.64165e-09
-7.96815e-08
1.72818e-09
-7.06259e-08
-3.94028e-09
-5.95876e-08
-8.65028e-09
-4.81608e-08
-1.16765e-08
-3.73625e-08
-1.09516e-08
-2.8151e-08
-6.6879e-09
-2.11107e-08
4.89272e-10
-1.75186e-08
6.97473e-09
-1.78025e-08
8.93146e-09
-2.25252e-08
7.08803e-09
-3.29517e-08
2.69779e-09
-4.73942e-08
-2.32816e-10
-6.08471e-08
3.57933e-10
-6.85393e-08
2.21217e-09
-7.1517e-08
2.6988e-09
-7.24683e-08
2.38097e-09
-7.25064e-08
2.16387e-09
-7.14301e-08
2.22789e-09
-6.99868e-08
2.23941e-09
-6.89263e-08
2.10023e-09
-6.806e-08
1.8437e-09
-6.75425e-08
1.27561e-09
-3.04612e-10
-7.32986e-08
3.33195e-08
-5.58254e-08
3.51569e-08
-4.98102e-08
2.00257e-08
-6.12811e-08
2.3198e-08
-6.40746e-08
1.77105e-08
-7.80188e-08
-1.08279e-08
-8.99736e-08
8.3244e-09
-1.04166e-07
-1.03082e-08
-1.16109e-07
-1.32255e-09
-1.10369e-07
-6.12818e-09
-1.15706e-07
7.96868e-09
-8.83557e-08
-3.36425e-08
-8.60403e-08
-2.34129e-08
-8.81374e-08
-1.3892e-08
-1.01335e-07
1.46336e-09
-1.02233e-07
-2.75229e-08
-3.75259e-08
-8.48123e-08
-7.28595e-08
3.58364e-08
-8.22283e-08
3.88237e-09
-6.53521e-08
1.08226e-08
-6.60288e-08
1.43737e-08
-7.67705e-08
1.35005e-08
-1.18438e-07
-2.88897e-08
-3.54301e-08
2.68558e-08
-4.07882e-08
1.31192e-08
-5.38797e-08
2.10375e-09
-5.06751e-08
2.38314e-09
-7.22059e-08
-1.34649e-08
-5.77955e-08
-1.7823e-08
-7.09289e-08
6.55035e-10
-8.02064e-08
-3.32077e-09
-7.27095e-08
-3.62441e-09
-6.79255e-08
2.35401e-09
-7.31179e-08
1.28241e-08
-5.93464e-08
-1.15699e-08
-6.1634e-08
-1.18907e-08
-6.35464e-08
-6.71401e-09
-5.47425e-08
-6.20892e-09
-5.41062e-08
-4.876e-09
-5.77854e-08
1.526e-10
-9.87815e-08
2.45936e-08
7.68481e-08
6.73362e-08
-1.29922e-07
-3.82576e-08
-1.13666e-07
1.67421e-08
-1.06719e-07
1.49265e-08
-1.07502e-07
1.23678e-08
-1.06735e-07
6.30625e-09
-1.05657e-07
5.26001e-09
-1.03314e-07
5.71999e-09
-1.00255e-07
5.10288e-09
-9.53986e-08
3.40391e-09
-8.8091e-08
-1.66586e-09
-7.8223e-08
-8.13986e-09
-6.63156e-08
-1.58477e-08
-5.41971e-08
-2.07688e-08
-4.30196e-08
-2.2854e-08
-3.33013e-08
-2.06698e-08
-2.63207e-08
-1.36686e-08
-2.17549e-08
-4.07644e-09
-2.0787e-08
6.00677e-09
-2.42048e-08
1.23492e-08
-3.09576e-08
1.38408e-08
-4.19336e-08
1.36737e-08
-5.49365e-08
1.27701e-08
-6.44674e-08
9.88873e-09
-6.90618e-08
6.80642e-09
-7.09589e-08
4.59573e-09
-7.16321e-08
3.05388e-09
-7.1523e-08
2.0546e-09
-7.06819e-08
1.38657e-09
-6.96669e-08
1.22409e-09
-6.88711e-08
1.30373e-09
-6.81711e-08
1.1424e-09
-6.777e-08
8.73363e-10
-1.93161e-10
2.38469e-08
1.13957e-08
3.60706e-08
2.25825e-08
5.22545e-08
3.71645e-09
6.93281e-08
5.95237e-09
8.51833e-08
2.55568e-09
7.4465e-08
7.59493e-10
8.37052e-08
-1.8546e-09
8.0192e-08
-7.52868e-09
8.06872e-08
-1.82775e-09
9.91777e-08
-2.29724e-08
2.58377e-08
-1.48893e-08
8.1908e-08
6.33335e-09
3.01577e-08
2.83375e-08
6.61683e-09
9.64888e-09
1.94961e-09
6.15051e-09
-1.31096e-07
6.86888e-09
8.42505e-08
9.13436e-08
-1.28937e-07
-4.07645e-08
-7.61236e-08
-4.94356e-08
-1.11272e-07
4.56166e-08
-1.02486e-07
5.58683e-09
-9.27927e-08
3.80764e-09
-1.37579e-07
1.60607e-08
-9.71027e-08
-1.33467e-08
-5.16423e-08
-3.23413e-08
-6.60747e-08
1.65147e-08
-6.16759e-08
-2.01565e-09
-5.61796e-08
-1.89612e-08
-2.32127e-08
-5.07899e-08
-6.63221e-08
4.33224e-08
-8.03745e-08
1.07317e-08
-4.45866e-08
-3.98186e-08
-7.77942e-08
3.55616e-08
-7.78661e-08
1.36903e-08
-6.60337e-08
-2.28523e-08
-2.7944e-08
-4.98615e-08
-2.13199e-08
-1.35526e-08
-1.68871e-08
-1.07496e-08
-2.4026e-08
2.21323e-09
-4.65352e-08
2.33765e-08
-6.0534e-08
3.81176e-08
-4.3985e-08
4.85159e-08
-1.09166e-07
2.70974e-08
-1.17887e-07
2.74987e-08
-1.19287e-07
1.73559e-08
-1.19163e-07
1.22444e-08
-1.16617e-07
3.76031e-09
-1.12759e-07
1.40163e-09
-1.07201e-07
1.62496e-10
-1.01755e-07
-3.43716e-10
-9.25514e-08
-5.79951e-09
-8.34963e-08
-1.0721e-08
-7.44286e-08
-1.72076e-08
-6.68903e-08
-2.33859e-08
-5.95226e-08
-2.81364e-08
-5.28068e-08
-2.95698e-08
-4.60187e-08
-2.74579e-08
-4.01133e-08
-1.9574e-08
-3.61328e-08
-8.05694e-09
-3.69308e-08
6.80475e-09
-4.36174e-08
1.90359e-08
-5.29626e-08
2.3186e-08
-6.27824e-08
2.34934e-08
-6.97555e-08
1.97431e-08
-7.16238e-08
1.17569e-08
-7.13505e-08
6.53302e-09
-7.1129e-08
4.37403e-09
-7.1174e-08
3.09871e-09
-7.08993e-08
1.77972e-09
-7.02522e-08
7.3926e-10
-6.95319e-08
5.03368e-10
-6.88455e-08
6.16647e-10
-6.82855e-08
5.81138e-10
-6.79466e-08
5.33293e-10
-1.1786e-10
-6.59122e-08
2.63231e-08
-5.61896e-08
1.25214e-08
-6.68474e-08
1.38339e-08
-5.36072e-08
-6.54481e-09
-5.11664e-08
1.41178e-10
-5.7796e-08
7.38924e-09
-7.16228e-08
1.27029e-08
-5.96118e-08
-2.02176e-08
-5.70111e-08
-5.64931e-09
-7.19495e-08
-7.68303e-09
-9.52949e-08
9.34204e-09
-6.66063e-08
-2.23552e-08
-5.79004e-08
1.94334e-08
-5.48835e-08
6.63201e-09
-6.87136e-08
1.99807e-08
-1.19008e-07
5.64548e-08
-6.07736e-08
3.21681e-08
-1.28697e-07
2.64663e-08
5.30769e-08
6.01503e-08
-1.41305e-07
-4.65487e-08
-1.27997e-07
-9.25739e-09
-9.08371e-08
-3.42789e-08
-1.3128e-07
-4.07992e-08
-1.30558e-07
-1.2729e-08
-7.27611e-08
6.17154e-09
-6.49014e-08
8.65499e-09
-6.21355e-08
-4.78153e-09
-9.77672e-08
1.66705e-08
8.65879e-08
5.29008e-08
-1.20306e-07
-3.57946e-08
-1.2839e-07
1.6278e-08
7.03675e-08
5.33312e-08
-1.30201e-07
-5.35172e-08
-7.02533e-08
-4.62571e-08
-1.38791e-07
-4.99513e-08
-6.77097e-08
-2.63756e-08
-5.29222e-08
-2.86291e-08
-4.45028e-08
-1.9169e-08
-3.72828e-08
-5.90131e-09
-2.57095e-08
1.15381e-08
-2.4038e-08
3.73518e-08
-1.69133e-08
4.13149e-08
-3.16495e-08
4.17087e-08
-3.2856e-08
2.84303e-08
-3.60239e-08
2.05238e-08
-4.10722e-08
1.72928e-08
-4.92849e-08
1.1973e-08
-5.54001e-08
7.51689e-09
-5.94372e-08
4.19966e-09
-6.10001e-08
1.2192e-09
-6.11096e-08
-5.69007e-09
-6.24018e-08
-9.42881e-09
-6.56569e-08
-1.39524e-08
-7.12288e-08
-1.78141e-08
-7.54836e-08
-2.38816e-08
-7.79561e-08
-2.70973e-08
-7.84574e-08
-2.69566e-08
-7.63318e-08
-2.16997e-08
-7.29239e-08
-1.14648e-08
-7.11274e-08
5.00823e-09
-7.1998e-08
1.99064e-08
-7.38838e-08
2.50718e-08
-7.53941e-08
2.50037e-08
-7.50875e-08
1.94364e-08
-7.3276e-08
9.94526e-09
-7.18666e-08
5.12347e-09
-7.10076e-08
3.51485e-09
-7.05618e-08
2.65279e-09
-7.01934e-08
1.41112e-09
-6.96707e-08
2.16324e-10
-6.9105e-08
-6.2734e-11
-6.86159e-08
1.26801e-10
-6.82649e-08
2.28913e-10
-6.80401e-08
3.07268e-10
-4.45769e-11
-9.78741e-08
9.94314e-09
-7.78621e-08
-7.36204e-09
-9.20056e-08
2.78367e-08
-9.40148e-08
-4.53522e-09
-9.82148e-08
4.34132e-09
-9.85504e-08
7.72498e-09
-1.59266e-07
-2.2891e-08
-9.75944e-08
1.42142e-08
-9.17058e-08
-1.15986e-08
-1.14501e-07
1.51906e-08
-8.72395e-08
-1.77384e-08
-1.02726e-07
-5.82053e-09
-7.51139e-08
-8.09702e-09
-7.5771e-08
6.52279e-09
-7.06215e-08
1.39683e-08
-1.33344e-07
2.18748e-08
-5.05382e-08
4.67042e-08
-4.00534e-08
1.59816e-08
-1.81701e-08
3.76534e-08
-5.5591e-08
-1.01698e-08
-1.31784e-07
-3.03666e-08
-6.13568e-08
-7.12476e-09
-9.96687e-08
-2.09239e-09
-1.04686e-07
-7.7117e-09
-8.84044e-08
-1.011e-08
-6.54569e-08
-1.42925e-08
-9.24489e-08
2.22105e-08
-8.26603e-08
6.8819e-09
2.58914e-08
-5.56509e-08
-6.0429e-08
4.9654e-08
-6.18146e-08
1.76637e-08
-3.32378e-08
2.42102e-08
-8.37567e-08
-3.02923e-09
-1.03564e-07
-2.75062e-08
-1.18791e-07
-3.59484e-08
-1.39343e-07
-1.03238e-07
-1.17202e-07
4.69606e-08
-1.3915e-07
1.17656e-09
-1.2719e-07
-1.78618e-08
-1.07542e-07
-6.93009e-09
-9.80537e-08
2.74825e-08
-8.92152e-08
3.25657e-08
-6.75611e-08
2.09556e-08
-5.55913e-08
1.7136e-08
-5.01997e-08
1.51323e-08
-4.55788e-08
1.26718e-08
-4.47069e-08
1.11012e-08
-4.60512e-08
8.86115e-09
-4.97205e-08
7.86895e-09
-5.33644e-08
4.86311e-09
-5.93616e-08
3.07185e-10
-6.6154e-08
-2.6364e-09
-7.37234e-08
-6.38313e-09
-8.09093e-08
-1.06281e-08
-8.63232e-08
-1.84678e-08
-9.05223e-08
-2.28983e-08
-9.47564e-08
-2.27225e-08
-9.86486e-08
-1.78075e-08
-1.00355e-07
-9.75872e-09
-9.73442e-08
1.99774e-09
-9.22157e-08
1.47779e-08
-8.77826e-08
2.06386e-08
-8.31496e-08
2.03707e-08
-7.83627e-08
1.46494e-08
-7.52424e-08
6.82489e-09
-7.3327e-08
3.20783e-09
-7.18798e-08
2.0675e-09
-7.07315e-08
1.50433e-09
-6.99364e-08
6.15767e-10
-6.94356e-08
-2.84653e-10
-6.90358e-08
-4.62897e-10
-6.86586e-08
-2.51158e-10
-6.83783e-08
-5.26352e-11
-6.81496e-08
7.73639e-11
-5.90844e-12
-1.28726e-07
-4.75261e-10
-8.01102e-08
4.20755e-08
-9.37781e-08
4.15052e-08
-1.08124e-07
9.81091e-09
-1.04021e-07
2.38357e-10
-1.17836e-07
2.1323e-08
-1.25176e-07
-1.57117e-08
-1.02064e-07
-9.93915e-09
-9.36778e-08
-1.97804e-08
-1.5319e-07
-1.90888e-08
-8.19591e-08
6.36824e-09
-8.4957e-08
-2.79205e-09
-7.17705e-08
-2.11516e-08
-6.3789e-08
-1.54014e-09
-5.57282e-08
5.90754e-09
-5.77643e-08
2.28858e-08
-2.01657e-08
9.10563e-09
2.53782e-08
-2.95623e-08
-2.35923e-09
6.53908e-08
-3.16373e-08
1.91083e-08
-7.35187e-08
1.11887e-08
-8.78427e-08
6.29393e-09
-1.01828e-07
1.27981e-08
-1.1913e-07
1.07394e-08
-1.12099e-07
-1.7141e-08
-1.03376e-07
-2.30164e-08
-9.01119e-08
8.85644e-09
-1.63764e-07
-1.57762e-08
9.02031e-08
7.47011e-08
-9.02354e-08
-5.59189e-08
-6.50264e-08
-8.46587e-09
-4.40918e-08
2.82586e-09
-5.6492e-08
9.37092e-09
-7.32941e-08
-1.01278e-08
-1.16124e-07
6.0631e-09
3.01407e-08
4.3922e-08
-1.4652e-07
-6.78016e-08
-2.0695e-07
-3.60673e-08
-1.18666e-07
-7.54345e-09
-5.73285e-08
-6.89708e-08
-8.7287e-08
5.77425e-08
-8.98169e-08
3.60026e-08
-8.19015e-08
1.28307e-08
-6.95753e-08
4.80981e-09
-5.95666e-08
5.12361e-09
-5.60875e-08
9.19264e-09
-5.49515e-08
9.96527e-09
-5.58871e-08
9.79674e-09
-5.82141e-08
1.0196e-08
-6.22778e-08
8.92686e-09
-6.81977e-08
6.22703e-09
-7.43679e-08
3.53381e-09
-7.96168e-08
-1.13426e-09
-8.38402e-08
-6.40479e-09