/*--------------------------------*- C++ -*----------------------------------*\
  =========                 |
  \\      /  F ield         | OpenFOAM: The Open Source CFD Toolbox
   \\    /   O peration     | Website:  https://openfoam.org
    \\  /    A nd           | Version:  12
     \\/     M anipulation  |
\*---------------------------------------------------------------------------*/
FoamFile
{
    format      ascii;
    class       volVectorField;
    location    "0.65";
    object      U.water;
}
// * * * * * * * * * * * * * * * * * * * * * * * * * * * * * * * * * * * * * //

dimensions      [0 1 -1 0 0 0 0];

internalField   nonuniform List<vector> 
3750
(
(-0.000370364 0.012016 0)
(-0.000641388 0.0127509 0)
(-0.00249444 0.015732 0)
(0.00197477 0.0157657 0)
(0.00185724 0.0131961 0)
(0.000203203 0.0126566 0)
(-0.00192104 0.0148333 0)
(0.00268122 0.0145079 0)
(0.000106458 0.00900117 0)
(7.21069e-05 0.00844686 0)
(-0.000744653 0.00943943 0)
(-0.000196773 0.00728939 0)
(-0.001288 0.00919687 0)
(0.000347651 0.00875398 0)
(-0.00150399 0.00951114 0)
(-0.000582222 0.00782433 0)
(0.000891751 0.00743964 0)
(0.000986198 0.00828556 0)
(0.000628826 0.00727236 0)
(0.000448348 0.00634098 0)
(-0.000107645 0.00679215 0)
(0.00180336 0.00725177 0)
(0.00224499 0.00417419 0)
(0.00599355 0.0118955 0)
(-0.000521672 0.0224778 0)
(-0.00191115 0.010439 0)
(0.00143761 0.0130741 0)
(-0.00365245 0.0150358 0)
(0.00165418 0.00307314 0)
(0.00432724 0.0126559 0)
(0.000349367 0.0221668 0)
(-0.00697474 0.010547 0)
(-0.00316629 0.00315129 0)
(-0.00320204 0.00725034 0)
(0.000349993 0.00758151 0)
(3.6186e-05 0.00988259 0)
(0.000160396 0.0084702 0)
(0.000673645 0.00748785 0)
(0.00078227 0.00788038 0)
(7.76826e-05 0.00690812 0)
(0.000256004 0.00718979 0)
(-0.000228891 0.00627995 0)
(0.00130314 0.00721453 0)
(-0.000264214 0.00549984 0)
(0.00118339 0.0038067 0)
(-0.000150099 0.00429649 0)
(-0.000294628 0.00209648 0)
(0.00103923 0.00168675 0)
(0.000728585 -0.000235611 0)
(0.000841058 -0.00107966 0)
(0.000564767 -0.00286432 0)
(0.000649973 -0.00380487 0)
(-0.00069256 -0.00360731 0)
(-0.000796934 -0.00482311 0)
(-0.00100501 -0.00350857 0)
(-0.00113288 -0.00259867 0)
(-0.000819626 -0.00173957 0)
(-0.000659853 -0.000676295 0)
(-0.000339528 0.000201561 0)
(-0.000366211 0.00101923 0)
(-0.000391165 0.00186114 0)
(-0.000393167 0.00256041 0)
(-0.000404028 0.00334111 0)
(-0.000386302 0.00403652 0)
(-0.000370522 0.00500504 0)
(-0.00026888 0.00604724 0)
(-0.00010062 0.00700751 0)
(0.000404298 0.00758396 0)
(0.000814833 0.00709121 0)
(0.000886708 0.00563008 0)
(0.000771795 0.00330191 0)
(0.000676463 0.00116368 0)
(0.0012139 -0.000851088 0)
(0.00106882 -0.00362729 0)
(0.000558524 -0.00425487 0)
(-0.00199948 0.00536164 0)
(0.00198419 0.00418261 0)
(4.23087e-05 0.0120686 0)
(9.41965e-05 0.0117739 0)
(0.000211796 0.00339921 0)
(0.000353123 0.00376579 0)
(-0.00024191 0.0131729 0)
(-3.00858e-05 0.0153629 0)
(-0.00106097 0.00646096 0)
(0.00124416 0.00852768 0)
(0.00092414 0.0092931 0)
(0.00177526 0.00848207 0)
(0.00113734 0.00935362 0)
(0.00106949 0.00618085 0)
(-5.02235e-05 0.00317569 0)
(-0.000924331 0.00321067 0)
(-0.000264757 0.00275722 0)
(-0.000806836 0.00390313 0)
(-8.12898e-05 0.00492335 0)
(0.00016229 0.00583601 0)
(-0.00186621 0.00869135 0)
(0.00511019 0.0091633 0)
(0.00259794 0.0081566 0)
(0.0063882 0.00826246 0)
(-0.000203341 0.0118527 0)
(-0.00422901 0.00939119 0)
(-0.0011732 0.00741655 0)
(-0.00795645 0.0126098 0)
(0.0037721 0.0098295 0)
(0.00712868 0.0115989 0)
(0.000234702 0.011248 0)
(-0.00642794 0.00570299 0)
(-0.00188632 0.00198932 0)
(-0.00420488 0.00082281 0)
(0.00211738 0.000811067 0)
(0.00190859 0.000371562 0)
(0.000130594 0.000950649 0)
(0.000610823 0.00278334 0)
(7.60287e-05 0.00202693 0)
(-0.000401415 0.00071927 0)
(-0.000163322 0.000565727 0)
(-0.000149262 0.000601137 0)
(0.000616124 0.00155955 0)
(-0.00110631 0.000314988 0)
(0.00258372 0.00106308 0)
(0.00187466 -0.00112903 0)
(0.00319932 -0.00034305 0)
(0.00146341 -0.000194419 0)
(0.0018036 -0.00255567 0)
(0.00214269 -0.00195706 0)
(0.00123891 -0.00183233 0)
(0.00180945 -0.00117823 0)
(-0.000179704 -0.00130321 0)
(-5.32755e-05 -0.00325613 0)
(-0.000249914 -0.0040429 0)
(-0.000845343 -0.00495986 0)
(-0.0010641 -0.00548506 0)
(-0.00125956 -0.00552078 0)
(-0.00132777 -0.00523015 0)
(-0.00126564 -0.00491097 0)
(-0.00111272 -0.00459726 0)
(-0.0010158 -0.00422475 0)
(-0.00102731 -0.00369393 0)
(-0.00130027 -0.00285681 0)
(-0.00173254 -0.00169337 0)
(-0.00190181 -0.000373611 0)
(-0.00160658 0.000913852 0)
(-0.000440472 0.00166846 0)
(0.00124511 0.00131048 0)
(0.00271733 -8.17392e-05 0)
(0.0036449 -0.00220311 0)
(0.00370199 -0.004265 0)
(0.00297336 -0.00518448 0)
(0.00223095 -0.00635764 0)
(0.000390004 -0.0053853 0)
(-0.000882185 -0.00375258 0)
(0.00228126 -0.00353775 0)
(0.00170454 -0.0025904 0)
(6.04622e-05 0.000710912 0)
(-8.10721e-05 -0.00226265 0)
(0.000197029 -0.0030614 0)
(0.00353357 -5.02404e-05 0)
(-0.00385852 -0.000765303 0)
(-0.00240821 -0.0029236 0)
(-0.00120849 -0.00149873 0)
(-0.000177152 -0.00113867 0)
(-0.000402044 -0.000192441 0)
(0.00102193 0.00166184 0)
(0.00130475 0.0010621 0)
(0.00222735 0.00138141 0)
(0.00127708 0.000380983 0)
(0.000489721 0.000867676 0)
(-0.000353237 -0.000243232 0)
(-0.000249134 -0.000720236 0)
(-0.0010974 -0.0037353 0)
(0.000750876 0.00466524 0)
(0.00127929 0.00296662 0)
(0.00277078 -0.00366451 0)
(0.00267734 -0.00355186 0)
(0.00336044 -0.00388203 0)
(-0.00190916 -0.00613817 0)
(-9.39989e-06 -0.00785418 0)
(-0.00533037 0.00255357 0)
(-0.00115385 0.00288717 0)
(0.0065749 -0.00447939 0)
(0.0016922 -0.00620142 0)
(0.000405699 -0.00536357 0)
(0.000469376 -0.00725831 0)
(-0.000930388 -0.000796007 0)
(-0.00280379 0.00234069 0)
(-0.00263458 -0.00480217 0)
(-0.00168015 -0.00524914 0)
(-0.000459332 -0.00429749 0)
(-0.0010032 -0.00625496 0)
(-0.00040353 -0.00658572 0)
(0.000323699 -0.00649413 0)
(0.00200355 -0.00844752 0)
(0.000771148 -0.0104791 0)
(0.00105663 -0.0107514 0)
(0.00217609 -0.00798981 0)
(0.00152997 -0.00996075 0)
(0.00383047 -0.00979566 0)
(0.000730268 -0.00800041 0)
(0.00114635 -0.00750062 0)
(0.000799451 -0.00700935 0)
(0.000400682 -0.00633759 0)
(0.000949807 -0.00559182 0)
(0.000269131 -0.0055659 0)
(0.000585171 -0.00636653 0)
(0.00073228 -0.00707738 0)
(0.000181031 -0.008015 0)
(-0.000502159 -0.00892383 0)
(-0.000928648 -0.00929397 0)
(-0.00109813 -0.00940593 0)
(-0.00114208 -0.00943582 0)
(-0.00113003 -0.009487 0)
(-0.00128713 -0.00941148 0)
(-0.0017877 -0.00896221 0)
(-0.00245674 -0.00812416 0)
(-0.00288456 -0.00741615 0)
(-0.00280021 -0.00688717 0)
(-0.00198691 -0.00661296 0)
(6.22714e-05 -0.00677063 0)
(0.0030073 -0.00717717 0)
(0.00429634 -0.00758676 0)
(0.00458544 -0.0076804 0)
(0.00375007 -0.00700471 0)
(0.00249068 -0.00638145 0)
(0.00168343 -0.00702436 0)
(0.000209623 -0.00570557 0)
(0.000641657 -0.00765093 0)
(-0.000826384 -0.00741858 0)
(-0.00249915 -0.00425324 0)
(0.00196544 -0.00126326 0)
(0.00285163 -0.00681669 0)
(0.0016158 -0.00474918 0)
(0.00086251 -0.00251624 0)
(-0.000591358 -0.00159989 0)
(-0.00191231 -0.00336472 0)
(-0.000304731 -0.00284419 0)
(-0.000492647 -0.00246295 0)
(-0.000134382 -0.00342413 0)
(7.54253e-05 -0.00322851 0)
(0.00104847 -0.00428026 0)
(0.000716534 -0.00338721 0)
(0.00112263 -0.00373358 0)
(0.00169267 -0.00424167 0)
(0.00140546 -0.00435894 0)
(0.00205679 -0.00583521 0)
(0.0034293 -0.00689078 0)
(0.00614048 -0.00553838 0)
(-6.54875e-05 -0.0076932 0)
(0.00303454 -0.0107389 0)
(0.00123201 -0.0105951 0)
(0.00401955 -0.0097441 0)
(0.000135793 -0.00842623 0)
(0.0019073 -0.00899767 0)
(0.00049842 -0.0021843 0)
(-0.00706936 0.00684159 0)
(0.00213826 -0.00154035 0)
(-0.000225216 -0.0103531 0)
(-7.98758e-05 -0.00827014 0)
(-0.000865379 -0.00674893 0)
(0.00138552 -0.00511194 0)
(-0.00501005 -0.00386684 0)
(-0.00567929 -0.00433076 0)
(0.00251788 -0.00586148 0)
(0.00211131 -0.00785032 0)
(0.00116946 -0.00902418 0)
(-0.00082755 -0.00753208 0)
(0.00325203 -0.00653817 0)
(0.00230033 -0.00880723 0)
(0.000170015 -0.0105004 0)
(0.00230136 -0.00944157 0)
(0.00147006 -0.00817487 0)
(0.00053998 -0.00818588 0)
(0.0011857 -0.00693 0)
(0.00133853 -0.00627809 0)
(0.000921028 -0.00607197 0)
(0.000496079 -0.00588872 0)
(0.000333722 -0.00566506 0)
(0.000638015 -0.00553124 0)
(0.000858324 -0.00566504 0)
(0.00124562 -0.00614013 0)
(0.00142311 -0.00681241 0)
(0.00105582 -0.00763827 0)
(0.000276973 -0.00873078 0)
(-0.00068083 -0.0096926 0)
(-0.00109023 -0.0101879 0)
(-0.00107183 -0.0106463 0)
(-0.00102564 -0.0109086 0)
(-0.00139883 -0.0109515 0)
(-0.00224447 -0.0104615 0)
(-0.0029197 -0.00984294 0)
(-0.00306003 -0.00955154 0)
(-0.00283083 -0.00939164 0)
(-0.00175026 -0.00976484 0)
(0.000248561 -0.010416 0)
(0.00252646 -0.0102105 0)
(0.00354143 -0.00962908 0)
(0.00362302 -0.00871253 0)
(0.00268326 -0.00730821 0)
(0.00189658 -0.00672013 0)
(0.00123597 -0.0072415 0)
(-7.72327e-05 -0.00601615 0)
(-0.00158148 -0.0068039 0)
(0.000553782 -0.00691185 0)
(0.00140579 -0.00245766 0)
(-0.000359923 0.00134467 0)
(-0.000586827 -0.00750976 0)
(-0.0027826 -0.00717075 0)
(-0.00333889 -0.00183134 0)
(0.00165276 -0.0020409 0)
(-0.000461185 -0.00138834 0)
(-0.000356464 -0.00183119 0)
(0.000357705 -0.00432132 0)
(0.000251755 -0.00388205 0)
(0.00144038 -0.00407263 0)
(0.00124123 -0.00432144 0)
(0.00245614 -0.00596151 0)
(0.00109654 -0.00667586 0)
(0.00136416 -0.00697146 0)
(0.00011594 -0.0079285 0)
(0.0034558 -0.00738582 0)
(0.00203786 -0.00781286 0)
(0.00462314 -0.00714083 0)
(0.00230451 -0.0078009 0)
(0.00243043 -0.00924579 0)
(0.000500719 -0.00564281 0)
(0.00276206 -0.00424435 0)
(0.00175121 -0.00649634 0)
(0.00203175 -0.00419551 0)
(0.00423596 -0.00305833 0)
(-0.000948676 0.00604587 0)
(-0.00442379 0.001931 0)
(-0.00161883 -0.00821273 0)
(-0.000413688 -0.00659291 0)
(-0.00119382 -0.00972841 0)
(0.00042529 -0.0101781 0)
(-0.00140798 -0.0105716 0)
(-0.000517862 -0.00359689 0)
(-0.00203755 -0.00276452 0)
(-0.000357697 -0.00906072 0)
(0.000455941 -0.00875795 0)
(0.0010876 -0.000534651 0)
(0.00248868 0.00090011 0)
(0.00055087 -0.00716393 0)
(0.00118412 -0.00615561 0)
(0.00140417 -0.00500551 0)
(0.000979588 -0.00520498 0)
(0.00146185 -0.00500576 0)
(0.00119189 -0.00490179 0)
(0.000939299 -0.00440103 0)
(0.000727479 -0.00422104 0)
(0.000555549 -0.0042614 0)
(0.000581577 -0.00438906 0)
(0.000817226 -0.00471602 0)
(0.00125734 -0.00503678 0)
(0.00175039 -0.00538577 0)
(0.00218188 -0.00591942 0)
(0.00202582 -0.0066511 0)
(0.00143617 -0.00764483 0)
(0.000551434 -0.00878036 0)
(-0.000206278 -0.00996267 0)
(-0.00060527 -0.0108152 0)
(-0.000840586 -0.0111663 0)
(-0.00167489 -0.0109935 0)
(-0.00291871 -0.0103524 0)
(-0.0033266 -0.00998853 0)
(-0.00332171 -0.00976491 0)
(-0.00268453 -0.00968767 0)
(-0.00119551 -0.0101321 0)
(0.000576188 -0.0105898 0)
(0.00194629 -0.010283 0)
(0.00260723 -0.00934092 0)
(0.00241128 -0.00817093 0)
(0.00182363 -0.0071248 0)
(0.00144412 -0.00668568 0)
(0.000889087 -0.00726562 0)
(-0.000145379 -0.00627838 0)
(-0.000580403 -0.0052124 0)
(0.000538723 -0.00306789 0)
(0.00343982 -0.00387919 0)
(-0.00134479 -0.00131869 0)
(-0.00113936 -0.00651083 0)
(0.000949707 -0.0056241 0)
(-0.000558928 0.0030326 0)
(-0.000605234 0.000611761 0)
(-0.00188057 -0.00648437 0)
(-0.0015462 -0.00446046 0)
(0.00138372 -0.00539088 0)
(-0.000911215 -0.00617699 0)
(0.00257604 -0.0048305 0)
(0.00116801 -0.00668137 0)
(0.00175637 -0.00900275 0)
(0.00162014 -0.00977497 0)
(0.00184608 -0.010847 0)
(0.00314958 -0.0089326 0)
(5.00698e-05 -0.00959849 0)
(-0.00202643 -0.00870761 0)
(0.0047171 -0.00429175 0)
(0.0016506 -0.00606623 0)
(0.00106011 -0.0090076 0)
(0.0022507 -0.00728008 0)
(-8.96214e-05 -0.00533581 0)
(0.00143074 -0.00680674 0)
(0.00200419 -0.00424739 0)
(0.00243894 -0.00263299 0)
(0.0024087 -4.80917e-05 0)
(-0.0039484 -0.00150328 0)
(-0.00106172 -0.00579497 0)
(-0.00215114 -0.00761544 0)
(0.000386478 -0.00716423 0)
(-0.000757737 -0.00744329 0)
(0.00141024 -0.00718759 0)
(0.00260531 -0.00742118 0)
(-0.00610542 -0.00843453 0)
(-0.00125988 -0.00745183 0)
(-0.000477235 -0.00996332 0)
(0.00393673 -0.00750551 0)
(-0.00173536 -0.00641881 0)
(-0.000338495 -0.00613439 0)
(0.000379204 -0.00435811 0)
(0.00177303 -0.0053567 0)
(0.000645698 -0.00458745 0)
(0.00054066 -0.00443231 0)
(0.000480853 -0.00408686 0)
(0.000687953 -0.00364846 0)
(0.00058633 -0.00374485 0)
(0.000608064 -0.00384678 0)
(0.00083215 -0.0039437 0)
(0.00109263 -0.00431269 0)
(0.00154657 -0.00453648 0)
(0.00218952 -0.00501359 0)
(0.00271134 -0.00525369 0)
(0.00275221 -0.0055728 0)
(0.00235709 -0.0061464 0)
(0.00164498 -0.00682436 0)
(0.000887844 -0.00770959 0)
(0.000117773 -0.00863242 0)
(-0.000804382 -0.00923923 0)
(-0.00224467 -0.00911025 0)
(-0.00332528 -0.00872437 0)
(-0.0035482 -0.0086277 0)
(-0.00340711 -0.00863591 0)
(-0.00246766 -0.00893958 0)
(-0.000898407 -0.00942268 0)
(0.000503144 -0.00961613 0)
(0.00129587 -0.00926195 0)
(0.00158477 -0.00845196 0)
(0.00156453 -0.00762403 0)
(0.00130163 -0.00692939 0)
(0.00104489 -0.00659392 0)
(0.000643857 -0.00732193 0)
(-0.000136482 -0.00642846 0)
(-0.000556878 -0.00597344 0)
(-0.00286135 -0.00522691 0)
(0.000475282 -0.00684991 0)
(-0.00138364 -0.00510295 0)
(-0.00200054 -0.00594405 0)
(0.00174132 -0.00717118 0)
(0.000736149 -0.0044373 0)
(-0.00372864 -0.00562436 0)
(-0.00344821 -0.00657746 0)
(-0.00366419 -0.00468034 0)
(0.00262398 -0.0107302 0)
(0.00441703 -0.0126016 0)
(0.00281678 -0.0116547 0)
(0.00355151 -0.0137637 0)
(0.00215583 -0.0126205 0)
(0.0029902 -0.0111442 0)
(0.00113686 -0.00918872 0)
(0.00328944 -0.0103146 0)
(0.00211866 -0.0129891 0)
(0.00326568 -0.00382583 0)
(0.00207333 -0.00370268 0)
(0.00104861 -0.0111594 0)
(-0.00128811 -0.00900847 0)
(0.000184303 -0.0079243 0)
(-0.00170832 -0.00699209 0)
(0.000339671 -0.00736924 0)
(0.000722071 -0.00672837 0)
(-4.12218e-05 -0.005546 0)
(-0.00221384 -0.0025399 0)
(0.00183727 -0.00328473 0)
(-5.87868e-05 -0.00686328 0)
(-7.00854e-05 -0.00395712 0)
(0.000716349 -0.00604507 0)
(-0.000853887 -0.00728989 0)
(0.00193011 -0.00580385 0)
(0.000374139 -0.0102223 0)
(-1.83314e-05 -0.00919567 0)
(-0.000758012 -0.00854437 0)
(-0.000415614 -0.0134032 0)
(-0.000148613 -0.0117834 0)
(-0.00303046 -0.0112501 0)
(-0.00203951 -0.0113918 0)
(-0.000437489 -0.00897738 0)
(0.000446427 -0.00835573 0)
(0.0004782 -0.00871051 0)
(0.000410891 -0.00726467 0)
(0.000631561 -0.00687044 0)
(0.000706837 -0.00628445 0)
(0.000657647 -0.00624274 0)
(0.000746465 -0.00606222 0)
(0.00102679 -0.00582961 0)
(0.00149701 -0.00586413 0)
(0.00202426 -0.00569113 0)
(0.00256823 -0.00567219 0)
(0.00286113 -0.00551671 0)
(0.00288726 -0.00549476 0)
(0.00266645 -0.00548136 0)
(0.00218433 -0.00555629 0)
(0.00162924 -0.00584725 0)
(0.000904073 -0.00633599 0)
(-0.000282525 -0.00675584 0)
(-0.00205812 -0.00701754 0)
(-0.00317495 -0.00721455 0)
(-0.0033668 -0.00741965 0)
(-0.00306027 -0.00777226 0)
(-0.00199355 -0.00824604 0)
(-0.00063519 -0.00868807 0)
(0.000296006 -0.00873276 0)
(0.000783406 -0.00836045 0)
(0.00104084 -0.00786583 0)
(0.00109327 -0.00736871 0)
(0.000953457 -0.00685853 0)
(0.000787061 -0.00658949 0)
(0.00049329 -0.00742022 0)
(-0.000112283 -0.00652502 0)
(-0.00343252 -0.00871336 0)
(-0.00476173 -0.00632257 0)
(0.00218718 -0.00657807 0)
(0.00135085 -0.00750979 0)
(-0.00157806 -0.0067037 0)
(0.000653235 -0.00840952 0)
(-0.00129608 -0.00895723 0)
(0.00244591 -0.0117406 0)
(0.00314317 -0.0171726 0)
(-0.000425338 -0.0116382 0)
(0.000156937 -0.0125584 0)
(0.00102928 -0.0205677 0)
(0.00124885 -0.0177479 0)
(0.00121412 -0.0143685 0)
(0.00101182 -0.0142437 0)
(0.00355892 -0.0133836 0)
(0.00218898 -0.0118815 0)
(0.00132808 -0.00847123 0)
(0.00200721 -0.00958061 0)
(0.00480226 -0.00772725 0)
(-0.00155716 -0.0057006 0)
(0.00124799 -0.00804096 0)
(0.000889303 -0.00876531 0)
(0.00130254 -0.00875318 0)
(0.000324514 -0.00950934 0)
(-0.000478719 -0.00987319 0)
(0.000256634 -0.0094464 0)
(0.00149066 -0.0100473 0)
(6.08097e-05 -0.00130293 0)
(-0.000435098 -0.00110935 0)
(0.000254566 -0.009098 0)
(0.000570143 -0.0072685 0)
(-0.00148306 -0.00703874 0)
(-0.000493521 -0.0046267 0)
(0.00391128 -0.00396118 0)
(0.00216399 -0.00786663 0)
(0.00202353 -0.00832263 0)
(-0.00163206 -0.00839382 0)
(-0.000555869 -0.010171 0)
(0.000368014 -0.0113877 0)
(-0.00061562 -0.0127795 0)
(-0.00145056 -0.0119234 0)
(-0.000124677 -0.0107142 0)
(-0.00148491 -0.0132374 0)
(-0.000850758 -0.0124098 0)
(-0.000121568 -0.0112095 0)
(0.000200564 -0.0106258 0)
(0.000104305 -0.00997742 0)
(8.75107e-05 -0.00986346 0)
(0.000299724 -0.00959846 0)
(0.000474392 -0.00942216 0)
(0.000876072 -0.00912596 0)
(0.0013871 -0.008522 0)
(0.00188403 -0.00785556 0)
(0.00248868 -0.0069057 0)
(0.00273477 -0.00618589 0)
(0.00249383 -0.00562853 0)
(0.00206278 -0.00526463 0)
(0.00166335 -0.00510231 0)
(0.00103223 -0.00525484 0)
(-0.000115065 -0.00549822 0)
(-0.00171394 -0.00600175 0)
(-0.00280572 -0.00657534 0)
(-0.00301427 -0.00701306 0)
(-0.002605 -0.00743922 0)
(-0.00153366 -0.00781335 0)
(-0.000435152 -0.00809057 0)
(0.000122837 -0.00806642 0)
(0.000466115 -0.00783049 0)
(0.000735873 -0.00753542 0)
(0.000806154 -0.00720579 0)
(0.000706133 -0.00681409 0)
(0.000593003 -0.00659413 0)
(0.00037688 -0.00750009 0)
(-8.91039e-05 -0.00659604 0)
(-0.00116981 -0.0168968 0)
(-0.00198474 -0.00895254 0)
(-0.00189324 -0.0104955 0)
(0.000511151 -0.0169025 0)
(-0.00275397 -0.0147713 0)
(0.00322832 -0.0151528 0)
(0.00217346 -0.0110328 0)
(0.00208163 -0.00902004 0)
(0.00408599 -0.0169142 0)
(0.00478841 -0.01693 0)
(-0.00182239 -0.0160869 0)
(-0.00280865 -0.0148055 0)
(0.000915811 -0.0137486 0)
(-0.0010009 -0.0158964 0)
(0.000181172 -0.0116225 0)
(0.000324539 -0.01047 0)
(0.000974492 -0.0122961 0)
(0.003077 -0.0109824 0)
(0.00157089 -0.00967457 0)
(0.00360334 -0.00781573 0)
(0.000597182 -0.00706233 0)
(0.00151481 -0.0100725 0)
(-0.000319924 -0.0108935 0)
(-0.000862148 -0.0124901 0)
(-0.000393303 -0.013158 0)
(0.000317901 -0.011252 0)
(-7.93954e-06 -0.00839991 0)
(0.000196942 -0.00834867 0)
(0.00220057 -0.00738303 0)
(-0.00384666 -0.00565658 0)
(-0.00140991 -0.00805503 0)
(-0.000344548 -0.00781199 0)
(0.000375417 -0.00893059 0)
(0.00299314 -0.00168516 0)
(0.00142371 -0.000586924 0)
(0.00200341 -0.00866982 0)
(0.000590677 -0.00718833 0)
(0.00043746 -0.00705104 0)
(-0.000202861 -0.00529253 0)
(0.000353755 -0.00620476 0)
(-0.000613274 -0.00795116 0)
(0.000721819 -0.00681962 0)
(-0.00177879 -0.00643085 0)
(-0.00195161 -0.00743532 0)
(-0.00113673 -0.00730329 0)
(-0.000391391 -0.00731634 0)
(-1.9916e-05 -0.00742309 0)
(-8.20316e-05 -0.00725813 0)
(0.000107595 -0.00759347 0)
(0.000327137 -0.00780605 0)
(0.00057872 -0.00828971 0)
(0.000760975 -0.0086175 0)
(0.000954148 -0.00862445 0)
(0.00111872 -0.0083902 0)
(0.0013943 -0.00771408 0)
(0.00160718 -0.00675526 0)
(0.00168391 -0.00569019 0)
(0.00162302 -0.00481289 0)
(0.00154133 -0.00441563 0)
(0.00123991 -0.00433299 0)
(0.000386013 -0.00458157 0)
(-0.000990104 -0.00533954 0)
(-0.00226008 -0.00624467 0)
(-0.00260096 -0.00664101 0)
(-0.0023306 -0.00699952 0)
(-0.00133876 -0.00736948 0)
(-0.000416195 -0.00762008 0)
(-1.69503e-05 -0.00768035 0)
(0.000250556 -0.00760039 0)
(0.000512765 -0.00738931 0)
(0.000582381 -0.00712652 0)
(0.000513272 -0.0068026 0)
(0.000437713 -0.00661043 0)
(0.000282999 -0.00756471 0)
(-6.74295e-05 -0.00664822 0)
(0.00255515 -0.0173389 0)
(0.00357393 -0.0176266 0)
(-0.00338115 -0.0169504 0)
(-0.00266847 -0.0206888 0)
(-0.00138122 -0.0141022 0)
(0.00183075 -0.0117346 0)
(0.00309839 -0.0165034 0)
(0.00159917 -0.0132919 0)
(-0.000253877 -0.0148126 0)
(0.00263439 -0.0129183 0)
(-0.00211401 -0.012674 0)
(0.000296128 -0.0111476 0)
(-0.00227783 -0.0119479 0)
(-0.00105422 -0.0132049 0)
(-0.00051977 -0.0122861 0)
(-0.00204866 -0.0127649 0)
(-0.000701834 -0.00940767 0)
(0.00143965 -0.00832634 0)
(0.00230156 -0.00900693 0)
(0.00442953 -0.00903174 0)
(0.00252496 -0.00787772 0)
(0.00132847 -0.00921292 0)
(0.00214301 -0.0121796 0)
(-0.000461807 -0.0098351 0)
(-3.82481e-05 -0.00925409 0)
(-0.0012638 -0.0107494 0)
(-0.000707849 -0.0107392 0)
(-0.00272613 -0.00905536 0)
(-0.000303898 -0.00825729 0)
(-0.00140692 -0.00748494 0)
(-0.000471313 -0.00831714 0)
(-7.31089e-05 -0.00822303 0)
(0.000966538 -0.00508147 0)
(0.00344303 -0.00395122 0)
(-0.00292392 -0.00437912 0)
(0.000121163 -0.00505748 0)
(5.73544e-05 -0.00529911 0)
(0.000917584 -0.00423631 0)
(0.00116074 -0.00363895 0)
(-0.00103609 -0.00435705 0)
(-0.000645148 -0.00346906 0)
(-0.00129056 -0.00271998 0)
(-0.000391686 -0.00427762 0)
(-0.00042983 -0.00488534 0)
(-0.000278921 -0.00703753 0)
(-0.000770457 -0.00780372 0)
(0.000343213 -0.00762752 0)
(0.000447313 -0.00798692 0)
(0.000579455 -0.00802205 0)
(0.0009849 -0.00818158 0)
(0.00114057 -0.00832532 0)
(0.00113349 -0.00832186 0)
(0.00105026 -0.00815546 0)
(0.000908612 -0.00775487 0)
(0.000764397 -0.00705455 0)
(0.000594461 -0.00604125 0)
(0.000575213 -0.00485298 0)
(0.0008054 -0.00370543 0)
(0.00116036 -0.0029033 0)
(0.0012522 -0.00263338 0)
(0.000861462 -0.0025721 0)
(-4.69747e-05 -0.00308196 0)
(-0.00133804 -0.00401797 0)
(-0.00215549 -0.00497063 0)
(-0.00192446 -0.00589049 0)
(-0.000905653 -0.00670193 0)
(-0.000190802 -0.00708922 0)
(6.35411e-05 -0.00726596 0)
(0.000191376 -0.00735901 0)
(0.000382202 -0.00727391 0)
(0.000442942 -0.00704357 0)
(0.000370765 -0.00678103 0)
(0.000318928 -0.00661357 0)
(0.00020876 -0.00761018 0)
(-5.06784e-05 -0.00668732 0)
(0.00217771 -0.0103245 0)
(0.00214304 -0.0117476 0)
(0.000734094 -0.0161564 0)
(-0.000139288 -0.0191433 0)
(0.00219248 -0.0164736 0)
(-0.00380015 -0.0167189 0)
(-0.00191214 -0.0156305 0)
(-0.00141739 -0.0135304 0)
(-0.00139958 -0.0150697 0)
(0.0011075 -0.0140636 0)
(0.00175282 -0.0151676 0)
(0.000268872 -0.0129059 0)
(-0.00101555 -0.0142974 0)
(-0.000524518 -0.0136007 0)
(-0.00160564 -0.0124624 0)
(-0.00148157 -0.0124724 0)
(-0.000789462 -0.0107766 0)
(0.000133796 -0.00906059 0)
(-0.00040598 -0.0079406 0)
(0.00321475 -0.00758856 0)
(0.00323451 -0.00809821 0)
(0.00225182 -0.00578339 0)
(0.00137262 -0.00640492 0)
(0.00237156 -0.00804988 0)
(0.000116036 -0.00695121 0)
(-0.00206087 -0.00739077 0)
(0.00076576 -0.00762862 0)
(-0.00212437 -0.00674919 0)
(-0.000950464 -0.0069966 0)
(-0.00143623 -0.00890292 0)
(-0.00131558 -0.00944379 0)
(0.000764093 -0.00883733 0)
(0.00163388 -0.00742255 0)
(0.000513651 -0.00718383 0)
(0.000246284 -0.00568588 0)
(-0.00144779 -0.00570008 0)
(-0.00102126 -0.00598917 0)
(0.000907718 -0.00376804 0)
(0.000275824 -0.00438793 0)
(0.000798205 -0.00329929 0)
(-0.000457833 -0.00246985 0)
(-0.00267248 -0.000301945 0)
(0.00246908 -0.000294902 0)
(0.0022447 -0.00308209 0)
(0.000711229 -0.00588421 0)
(-6.67896e-06 -0.00794931 0)
(0.000406199 -0.00846889 0)
(0.000228953 -0.00890483 0)
(0.000560542 -0.00907595 0)
(0.000671667 -0.00914785 0)
(0.000783216 -0.00903883 0)
(0.000657751 -0.00870056 0)
(0.000453732 -0.00836911 0)
(0.000116549 -0.00766439 0)
(-0.000275386 -0.00653318 0)
(-0.000644538 -0.0054476 0)
(-0.000604921 -0.00425162 0)
(-0.000296022 -0.00328402 0)
(0.000348556 -0.00242314 0)
(0.000906634 -0.00184781 0)
(0.000930648 -0.00169824 0)
(0.000556642 -0.00189032 0)
(-0.00015877 -0.00260121 0)
(-0.000731161 -0.00390557 0)
(-0.000663916 -0.00550712 0)
(-0.000182718 -0.00668332 0)
(0.00013148 -0.00707439 0)
(0.000213234 -0.00724275 0)
(0.000221144 -0.00729866 0)
(0.000267777 -0.00725973 0)
(0.000287096 -0.00701351 0)
(0.000257477 -0.00677557 0)
(0.00022394 -0.00662036 0)
(0.000150869 -0.0076461 0)
(-3.58736e-05 -0.00671596 0)
(0.00547368 -0.00583233 0)
(0.00352598 -0.00567199 0)
(0.00320092 -0.00454343 0)
(0.00253013 -0.00624983 0)
(0.00263231 -0.00632794 0)
(-0.00176883 -0.00680249 0)
(0.00127278 -0.00832196 0)
(-0.00189548 -0.00914501 0)
(-0.00129016 -0.0114257 0)
(-0.00193308 -0.0105455 0)
(-0.00163431 -0.0108181 0)
(-0.00159728 -0.00967481 0)
(-0.00224297 -0.00834706 0)
(-0.0022881 -0.00871502 0)
(-0.00140872 -0.00945198 0)
(-0.00469036 -0.00929909 0)
(-0.00458457 -0.00666024 0)
(0.00119983 -0.00726139 0)
(-0.000141864 -0.00673768 0)
(0.00146629 -0.00621345 0)
(0.00181636 -0.00843781 0)
(0.00254859 -0.00875728 0)
(8.86884e-05 -0.00736249 0)
(0.00107716 -0.00469609 0)
(0.000954865 -0.0070779 0)
(0.000356788 -0.00345224 0)
(0.0016155 -0.00435699 0)
(-0.000573118 -0.00703198 0)
(-0.00220381 -0.00556175 0)
(-0.00126079 -0.006904 0)
(-0.00153047 -0.00733147 0)
(-1.33878e-06 -0.00738888 0)
(0.000123409 -0.0076768 0)
(0.00121012 -0.00648289 0)
(-0.000408082 -0.00606665 0)
(-0.00187844 -0.00755901 0)
(-0.000957703 -0.00594738 0)
(-0.000624855 -0.00566492 0)
(-0.00144481 -0.00665705 0)
(-0.000601857 -0.00586073 0)
(-0.000781872 -0.00712843 0)
(-2.25534e-05 -0.00176342 0)
(-0.00017811 -0.00246801 0)
(0.00295409 -0.0108858 0)
(0.00284961 -0.0115471 0)
(0.00199302 -0.010738 0)
(0.00114927 -0.0106649 0)
(0.00106391 -0.0108709 0)
(0.00106963 -0.0106137 0)
(0.000949973 -0.0102287 0)
(0.000921427 -0.00989305 0)
(0.000495186 -0.00932577 0)
(-9.54821e-05 -0.00830446 0)
(-0.00088908 -0.00722825 0)
(-0.00145502 -0.0060533 0)
(-0.00169442 -0.004868 0)
(-0.00155991 -0.00367445 0)
(-0.00102776 -0.00300379 0)
(-0.000249693 -0.00234523 0)
(0.000479101 -0.00205459 0)
(0.000818695 -0.00215488 0)
(0.000821805 -0.00264738 0)
(0.000682142 -0.00350268 0)
(0.000686371 -0.00479546 0)
(0.000737683 -0.00615034 0)
(0.000632576 -0.0067961 0)
(0.000423809 -0.0070546 0)
(0.00027348 -0.00716665 0)
(0.000220233 -0.00721447 0)
(0.000181098 -0.00717268 0)
(0.000159284 -0.0069569 0)
(0.000166997 -0.00676319 0)
(0.000146358 -0.00662161 0)
(0.000106234 -0.00767049 0)
(-2.39309e-05 -0.00673672 0)
(0.00121708 0.0016287 0)
(0.00280754 0.00335488 0)
(0.000356643 0.00419538 0)
(0.00182229 0.00620481 0)
(0.00101378 0.00670144 0)
(0.000276051 0.00756565 0)
(0.00127264 0.0087814 0)
(-0.000832434 0.00752519 0)
(3.56892e-05 0.00670885 0)
(-0.000555671 0.00621247 0)
(-0.00107817 0.00495522 0)
(-0.00133421 0.00509097 0)
(9.82528e-05 0.00274275 0)
(-0.00019144 0.00173619 0)
(0.000670176 -0.00232145 0)
(0.000236107 -0.00509895 0)
(-0.000806797 0.00103765 0)
(-0.000293007 -0.00339853 0)
(-0.00176286 -0.00975774 0)
(0.00315781 -0.00967403 0)
(0.00151808 -0.0111799 0)
(0.000341212 -0.0103835 0)
(-0.000556547 -0.0110204 0)
(-0.000343912 -0.00903966 0)
(0.000830196 -0.00859636 0)
(0.000510339 -0.00560571 0)
(-0.00102317 -0.00551331 0)
(-0.00238765 -0.00705579 0)
(-0.00222511 -0.00312505 0)
(0.00315717 -0.00406001 0)
(0.000586955 -0.00694512 0)
(-0.00279363 -0.0067899 0)
(0.00182051 -0.00615125 0)
(0.0023766 -0.00679699 0)
(-0.00148554 -0.00601054 0)
(-0.000203626 -0.00370052 0)
(0.000157378 -0.0019627 0)
(-0.000785929 -0.00167425 0)
(0.0004707 -0.0025393 0)
(0.000372764 -0.00273642 0)
(0.00465473 -0.00447455 0)
(0.00598208 -0.00655881 0)
(0.000222882 -0.00717597 0)
(0.00097691 -0.00910845 0)
(0.00112339 -0.0126945 0)
(0.000817789 -0.0126782 0)
(5.53738e-05 -0.0119061 0)
(-7.22415e-05 -0.0117172 0)
(2.99272e-05 -0.0110164 0)
(3.56494e-05 -0.0105313 0)
(-0.000279271 -0.00974305 0)
(-0.000853974 -0.00895669 0)
(-0.00158114 -0.00770342 0)
(-0.00234714 -0.00708296 0)
(-0.00276855 -0.00625474 0)
(-0.00295603 -0.00566793 0)
(-0.00267048 -0.0048908 0)
(-0.00178962 -0.00432398 0)
(-0.000608219 -0.00375251 0)
(0.000674173 -0.00358289 0)
(0.00160813 -0.00383079 0)
(0.00195138 -0.00475602 0)
(0.00203845 -0.00577595 0)
(0.00181517 -0.00673243 0)
(0.00119762 -0.00717964 0)
(0.000696742 -0.00717629 0)
(0.00046893 -0.00712136 0)
(0.00032214 -0.00712909 0)
(0.000184832 -0.00717301 0)
(9.67396e-05 -0.00711814 0)
(8.48715e-05 -0.00693937 0)
(9.07787e-05 -0.00675545 0)
(8.11766e-05 -0.00662586 0)
(6.78951e-05 -0.00769159 0)
(-1.53289e-05 -0.00675077 0)
(0.00197745 -0.00346173 0)
(0.000243767 -0.00459428 0)
(8.75703e-06 -0.00557469 0)
(-0.000681191 -0.00526468 0)
(-0.000836841 -0.00714014 0)
(-0.000335285 -0.00473055 0)
(-0.000929486 -0.00542949 0)
(-0.00109792 -0.00478081 0)
(0.000439142 -0.00625804 0)
(-0.00117194 -0.00588873 0)
(0.000988777 -0.00725992 0)
(-0.00149626 -0.0072546 0)
(0.0030184 -0.00517248 0)
(0.00161463 -0.00592626 0)
(0.00158948 -0.00597809 0)
(0.00365124 -0.00797023 0)
(0.00578973 -0.00565049 0)
(0.000195206 -0.0090905 0)
(0.000169225 -0.00519136 0)
(0.000471962 -0.00504185 0)
(-0.0016851 -0.0129499 0)
(-0.000816365 -0.0118345 0)
(-0.000844518 -0.009917 0)
(-0.00115574 -0.00736401 0)
(-0.000773467 -0.0100038 0)
(0.00147014 -0.00739291 0)
(0.000376357 -0.00683838 0)
(0.00136332 -0.00654602 0)
(-0.00148319 0.00137466 0)
(-0.000429927 -0.0031216 0)
(0.000781533 -0.0114881 0)
(0.000325081 -0.00438057 0)
(-0.00120055 -0.000693137 0)
(-0.00167828 -0.00829324 0)
(-0.00392811 -0.0086035 0)
(-0.00449197 -0.0066413 0)
(-0.0016157 -0.00651968 0)
(-0.000474782 -0.00499359 0)
(-0.000399465 -0.00536233 0)
(0.00302174 -0.00314861 0)
(0.00439909 -0.0011375 0)
(0.00572055 -0.00225909 0)
(0.00486742 -0.00224841 0)
(0.00324171 -0.0026545 0)
(0.00166881 -0.00368157 0)
(0.00140724 -0.00393476 0)
(0.00073843 -0.00446683 0)
(0.000379039 -0.00523527 0)
(2.52452e-05 -0.00585842 0)
(-8.72268e-05 -0.00611377 0)
(-0.000839639 -0.00614795 0)
(-0.00124098 -0.00617568 0)
(-0.00183485 -0.00630247 0)
(-0.00228074 -0.00681337 0)
(-0.00278362 -0.00736973 0)
(-0.00289696 -0.00774717 0)
(-0.00277313 -0.00787731 0)
(-0.00216323 -0.00785927 0)
(-0.00107934 -0.00754578 0)
(0.000634146 -0.00717194 0)
(0.00210028 -0.00702227 0)
(0.00257847 -0.00727315 0)
(0.00257995 -0.00744312 0)
(0.00209614 -0.00757153 0)
(0.00113718 -0.00743497 0)
(0.000605896 -0.00726062 0)
(0.000417605 -0.00713177 0)
(0.000308529 -0.00708531 0)
(0.000173315 -0.00710116 0)
(4.89427e-05 -0.00705021 0)
(1.63977e-05 -0.00688882 0)
(3.39377e-05 -0.00672538 0)
(3.78395e-05 -0.00661359 0)
(4.15169e-05 -0.00770068 0)
(-7.1049e-06 -0.00675994 0)
(0.00184656 -0.00830964 0)
(0.000574318 -0.00890321 0)
(0.00292775 -0.00817594 0)
(-0.00074599 -0.00922734 0)
(0.000645408 -0.0105401 0)
(0.000497096 -0.0104335 0)
(-9.62098e-06 -0.00828443 0)
(-0.000347759 -0.00803771 0)
(-0.00110152 -0.0109713 0)
(-0.000741367 -0.0112875 0)
(0.000122414 -0.0115146 0)
(-0.000150196 -0.00756403 0)
(0.000284488 -0.00643962 0)
(0.00026203 -0.00946958 0)
(0.00155244 -0.00804657 0)
(0.00158946 -0.00649959 0)
(0.00394256 -0.0043458 0)
(0.00129092 -0.00624275 0)
(0.00486243 -0.00326609 0)