/*--------------------------------*- C++ -*----------------------------------*\
  =========                 |
  \\      /  F ield         | OpenFOAM: The Open Source CFD Toolbox
   \\    /   O peration     | Website:  https://openfoam.org
    \\  /    A nd           | Version:  12
     \\/     M anipulation  |
\*---------------------------------------------------------------------------*/
FoamFile
{
    format      ascii;
    class       volVectorField;
    location    "0.65";
    object      U.water_0;
}
// * * * * * * * * * * * * * * * * * * * * * * * * * * * * * * * * * * * * * //

dimensions      [0 1 -1 0 0 0 0];

internalField   nonuniform List<vector> 
3750
(
(-0.00125658 0.0149053 0)
(0.00044344 0.0155068 0)
(0.000437756 0.0149052 0)
(-0.000226552 0.0144016 0)
(0.00193028 0.0144501 0)
(0.000828189 0.0135979 0)
(0.000505688 0.0128688 0)
(0.000236812 0.012577 0)
(-0.000282281 0.0100611 0)
(-9.40242e-05 0.00923508 0)
(-0.000761521 0.010087 0)
(-0.000283536 0.00903651 0)
(-0.00136132 0.0107844 0)
(0.000407042 0.0103834 0)
(-0.00197896 0.0111449 0)
(-0.000112577 0.0104235 0)
(0.000640133 0.0096846 0)
(0.00114012 0.00967729 0)
(0.00108583 0.00982862 0)
(0.000378594 0.00875262 0)
(-9.93022e-06 0.0082895 0)
(0.000528734 0.0102432 0)
(0.000270841 0.0104901 0)
(0.00140815 0.0101886 0)
(-0.00103147 0.0116782 0)
(0.00159604 0.0110281 0)
(2.96298e-05 0.0111855 0)
(0.000577912 0.010144 0)
(0.00112514 0.00899029 0)
(-8.1923e-05 0.00899311 0)
(0.00048652 0.00879008 0)
(-0.00274905 0.00733373 0)
(-0.00117535 0.00705739 0)
(-0.00181074 0.00781218 0)
(-0.000125138 0.00754077 0)
(-3.15531e-05 0.0100028 0)
(0.000262994 0.00924879 0)
(0.000614668 0.00851934 0)
(0.000347767 0.0094581 0)
(-0.00131505 0.00990828 0)
(0.000468329 0.0111623 0)
(0.000859986 0.00946179 0)
(0.00195432 0.00906308 0)
(-0.000268331 0.00586625 0)
(0.00137938 0.00339992 0)
(-0.000663128 0.00249402 0)
(-0.000321751 -0.000309147 0)
(0.00148819 0.000776722 0)
(0.000761134 0.000115642 0)
(0.000679098 -0.000775475 0)
(0.000663681 -0.00289213 0)
(0.00110179 -0.00272678 0)
(-0.000986318 -0.00272127 0)
(-0.000737749 -0.00490123 0)
(-0.00093758 -0.0032445 0)
(-0.00110932 -0.00227853 0)
(-0.000809525 -0.00146152 0)
(-0.00065543 -0.000415525 0)
(-0.000335373 0.000453267 0)
(-0.000364383 0.0012674 0)
(-0.000390478 0.0021076 0)
(-0.000392876 0.00280535 0)
(-0.000404007 0.00358506 0)
(-0.000386105 0.0042779 0)
(-0.000370292 0.00524511 0)
(-0.000269137 0.00628617 0)
(-0.00010206 0.00724705 0)
(0.000400232 0.00782556 0)
(0.000812979 0.007333 0)
(0.000886025 0.00587191 0)
(0.000771947 0.00354016 0)
(0.000675864 0.00140261 0)
(0.00121814 -0.000636608 0)
(0.00107218 -0.00342889 0)
(0.000558741 -0.0040353 0)
(-0.00482394 0.00993693 0)
(0.0031082 0.0107091 0)
(0.00028514 0.00795227 0)
(0.00067604 0.00749517 0)
(0.000971081 0.0076388 0)
(0.000635049 0.00696299 0)
(-0.00035017 0.00813125 0)
(1.01101e-05 0.0105718 0)
(-0.00103555 0.00972151 0)
(0.00119494 0.00954803 0)
(0.00136347 0.0101101 0)
(0.00180776 0.010061 0)
(0.00111341 0.0111386 0)
(0.000998994 0.00754698 0)
(-0.000218372 0.00537449 0)
(-0.000709678 0.00587554 0)
(-0.000855626 0.00466257 0)
(-0.000886424 0.00585561 0)
(0.000101082 0.00712393 0)
(0.000179115 0.00784581 0)
(0.000784091 0.00895423 0)
(0.000531566 0.0100642 0)
(-0.00156376 0.0111377 0)
(-0.000335484 0.00805603 0)
(-0.00162172 0.00912741 0)
(-0.000274509 0.00910373 0)
(-0.000825845 0.00615973 0)
(0.00147849 0.0086239 0)
(0.00134886 0.00706687 0)
(5.17518e-05 0.00853615 0)
(-0.000571151 0.00659643 0)
(-0.000841081 0.00431283 0)
(0.0016182 0.00301877 0)
(0.00127052 -0.000940247 0)
(0.000275552 -0.000863364 0)
(0.00257238 0.000880263 0)
(0.000372441 0.00160453 0)
(0.000717326 0.00324358 0)
(-0.000739866 0.0023185 0)
(-0.00341177 0.00447854 0)
(-0.000107623 0.00684384 0)
(0.00292485 0.00411094 0)
(0.00139852 0.00219413 0)
(-0.0016501 0.000216462 0)
(0.00214463 8.79675e-05 0)
(0.00154167 -0.00293048 0)
(0.003594 -0.0017833 0)
(0.00211569 -0.00112885 0)
(0.00217926 -0.00291246 0)
(0.00235568 -0.00170065 0)
(0.0015576 -0.00138179 0)
(0.00243747 -0.00069851 0)
(-0.000356944 -0.000796052 0)
(4.63601e-05 -0.00294781 0)
(-0.000139329 -0.00379353 0)
(-0.000794695 -0.00468888 0)
(-0.00103781 -0.00522736 0)
(-0.00124602 -0.0052728 0)
(-0.00131999 -0.00498865 0)
(-0.00126194 -0.00467429 0)
(-0.00111044 -0.00436424 0)
(-0.00101354 -0.003995 0)
(-0.00102381 -0.00346773 0)
(-0.00129594 -0.00263453 0)
(-0.00172947 -0.00147415 0)
(-0.00190105 -0.00015645 0)
(-0.00160866 0.00113059 0)
(-0.00044384 0.00188694 0)
(0.00124348 0.00153083 0)
(0.0027202 0.000139048 0)
(0.00365165 -0.00198665 0)
(0.0037128 -0.00405047 0)
(0.00297918 -0.00497907 0)
(0.00223863 -0.0061666 0)
(0.000386398 -0.00516531 0)
(-0.00146002 0.0020646 0)
(-0.000132707 0.00205741 0)
(-0.00470643 -0.00397835 0)
(0.00226658 -0.000245218 0)
(0.00128041 -0.00129969 0)
(7.81399e-05 -0.00291679 0)
(0.000555682 -0.00225412 0)
(-0.00122412 -0.00258404 0)
(-0.00221608 -0.00199006 0)
(-0.000625381 -0.00045501 0)
(0.000743365 -0.000380825 0)
(-0.000421545 0.000862749 0)
(0.000728807 0.00312057 0)
(0.000952802 0.00258761 0)
(0.00252524 0.0032191 0)
(0.000883537 0.00240748 0)
(6.50222e-05 0.00279238 0)
(-0.000695073 0.00190365 0)
(-0.000982193 0.00194684 0)
(-0.00204378 0.00118444 0)
(-0.000139229 0.00155396 0)
(0.000351105 -0.000945213 0)
(0.000904888 0.000639434 0)
(-0.000481174 -0.00239644 0)
(0.00163742 -0.00398063 0)
(-0.00314624 -0.00377575 0)
(0.00313802 -0.00397381 0)
(0.00225597 -0.00513334 0)
(0.000153774 -0.00798007 0)
(0.000427477 -0.00648183 0)
(-0.000312719 -0.00701532 0)
(0.00156724 -0.00428734 0)
(0.00152792 -0.00365267 0)
(0.00141756 -0.00548115 0)
(0.000660279 -0.00253582 0)
(0.000448657 -0.00277566 0)
(-0.000800823 -0.00506453 0)
(0.000491167 -0.00429749 0)
(0.000254469 -0.00766222 0)
(0.00149528 -0.00243983 0)
(-0.000446537 0.00381466 0)
(0.00131274 -0.00449292 0)
(-0.00015484 -0.0123832 0)
(-9.16782e-05 -0.0116657 0)
(0.00105358 -0.00824841 0)
(0.00109021 -0.0108588 0)
(0.00407063 -0.0113843 0)
(0.0011025 -0.00901225 0)
(0.00174845 -0.00771449 0)
(0.00138414 -0.00690215 0)
(0.000763127 -0.00609119 0)
(0.00125483 -0.00523218 0)
(0.000411453 -0.00523316 0)
(0.00065074 -0.00614664 0)
(0.000802455 -0.00684977 0)
(0.000231701 -0.00776936 0)
(-0.000467511 -0.00868096 0)
(-0.000906938 -0.00905915 0)
(-0.00108423 -0.00917578 0)
(-0.00113377 -0.00920834 0)
(-0.0011241 -0.00926215 0)
(-0.00128028 -0.0091891 0)
(-0.00177947 -0.00874552 0)
(-0.00244959 -0.00791006 0)
(-0.00288017 -0.00720278 0)
(-0.00279776 -0.00667565 0)
(-0.00198756 -0.0064007 0)
(5.80432e-05 -0.00655943 0)
(0.00300993 -0.00696623 0)
(0.00430201 -0.00737616 0)
(0.00459035 -0.00746788 0)
(0.00375739 -0.00678548 0)
(0.00249288 -0.00617076 0)
(0.00168928 -0.00683319 0)
(0.000206406 -0.00548627 0)
(0.00329408 -0.0059825 0)
(-0.00403164 -0.0068867 0)
(-0.00455639 -0.00355044 0)
(-0.00458995 0.00233595 0)
(0.0026103 -0.00498053 0)
(0.00171307 -0.00577985 0)
(0.00142442 -0.00491345 0)
(-0.00140776 -0.00328279 0)
(-0.00401805 -0.00204191 0)
(0.000972902 -0.00104709 0)
(-0.000247933 -0.00233255 0)
(-0.00117095 -0.00310424 0)
(-0.00171803 -0.00182722 0)
(0.0011535 -0.00242991 0)
(0.000880104 -0.00145956 0)
(0.000593008 -0.00177503 0)
(0.00131252 -0.00222555 0)
(0.000931069 -0.00259049 0)
(0.00105146 -0.00406202 0)
(0.00131818 -0.00483976 0)
(0.000664952 -0.00510937 0)
(0.00317408 -0.00763003 0)
(0.00341555 -0.0099485 0)
(-6.30516e-05 -0.0107608 0)
(0.00383582 -0.0107261 0)
(-0.000284668 -0.00363915 0)
(0.00150904 -0.00132459 0)
(-0.00105143 -0.00786091 0)
(-0.00073895 -0.00976969 0)
(-0.000562415 -0.00787661 0)
(-0.00115827 -0.00777689 0)
(-0.000193522 -0.00666594 0)
(-0.00182196 -0.0045621 0)
(-0.000283713 -0.004544 0)
(0.00278877 -0.0047343 0)
(0.00128703 -0.00622601 0)
(0.00200861 -0.00728763 0)
(0.00359126 -0.00697798 0)
(0.00464749 -0.00792847 0)
(0.00681614 -0.00591782 0)
(0.000213888 -0.00248567 0)
(-0.00281626 -0.00537149 0)
(-0.0022775 -0.0102393 0)
(0.00115481 -0.00982048 0)
(0.000539928 -0.00848907 0)
(-0.000327129 -0.00874843 0)
(0.000884991 -0.00771379 0)
(0.00164991 -0.00685508 0)
(0.0013312 -0.00624957 0)
(0.00085111 -0.00586517 0)
(0.000599641 -0.00550196 0)
(0.000825109 -0.00528264 0)
(0.000926279 -0.00540983 0)
(0.00130406 -0.00591174 0)
(0.00148336 -0.00658492 0)
(0.00110703 -0.00740279 0)
(0.000317583 -0.00849287 0)
(-0.00065327 -0.00945901 0)
(-0.00107405 -0.00995714 0)
(-0.00106264 -0.0104186 0)
(-0.00101669 -0.010687 0)
(-0.00138677 -0.010733 0)
(-0.0022309 -0.0102504 0)
(-0.00291176 -0.00963216 0)
(-0.0030546 -0.00934058 0)
(-0.00282923 -0.00917944 0)
(-0.00175337 -0.00954973 0)
(0.000243542 -0.0102022 0)
(0.00252773 -0.00999939 0)
(0.00354734 -0.00941663 0)
(0.00362959 -0.00849744 0)
(0.00268888 -0.00708798 0)
(0.00189841 -0.00650888 0)
(0.00123896 -0.00705119 0)
(-7.98914e-05 -0.00579702 0)
(-0.000423711 -0.00763446 0)
(-0.00011124 -0.00561038 0)
(0.00175576 -0.00719923 0)
(-0.00376491 0.00229606 0)
(-0.00427285 -0.000153869 0)
(-0.00493735 -0.00637199 0)
(0.00129188 -0.00496467 0)
(-0.00107924 -0.0066015 0)
(-0.00212983 0.00170683 0)
(-0.00159923 0.00150748 0)
(-0.00164628 -0.00585844 0)
(-0.00240359 -0.00474895 0)
(-0.00129356 -0.00139439 0)
(0.00208706 -0.000903531 0)
(0.00241553 -0.00470093 0)
(-0.00015031 -0.00518041 0)
(-0.000313086 -0.00496591 0)
(0.000570672 -0.00631008 0)
(0.00239505 -0.00631024 0)
(0.000717399 -0.00729021 0)
(0.000604971 -0.0050255 0)
(0.00362708 -0.00593875 0)
(0.0021877 -0.00961232 0)
(0.000212829 -0.00514758 0)
(0.00336931 -0.00354894 0)
(0.00329216 -0.00436157 0)
(-0.00126734 -0.0016124 0)
(-0.00171413 -0.00399658 0)
(-0.000169115 -0.00590401 0)
(0.000265585 -0.007355 0)
(3.76282e-05 -0.00636112 0)
(-0.000170301 -0.00554832 0)
(-0.0038958 -0.00754771 0)
(0.000203825 -0.00605782 0)
(0.00344558 -0.00680586 0)
(0.00286841 -0.00976443 0)
(0.000350865 -0.00809129 0)
(0.00170301 -0.00523396 0)
(0.00288944 -0.00421824 0)
(0.00359926 -0.00321179 0)
(0.00291436 -0.00185601 0)
(-0.00148105 -0.0026038 0)
(-0.000555608 -0.00411311 0)
(0.00049391 -0.00440742 0)
(0.00029746 -0.00519792 0)
(0.000989286 -0.00526453 0)
(0.000988168 -0.00527474 0)
(0.00107098 -0.0047145 0)
(0.000939969 -0.00437018 0)
(0.000774948 -0.00426001 0)
(0.000773816 -0.00427864 0)
(0.00095458 -0.00453888 0)
(0.00133804 -0.00483286 0)
(0.00180847 -0.00517414 0)
(0.00223295 -0.00570137 0)
(0.00207063 -0.00642615 0)
(0.00147453 -0.00741489 0)
(0.000581909 -0.00854868 0)
(-0.000184998 -0.00973337 0)
(-0.00059137 -0.0105918 0)
(-0.000826462 -0.0109475 0)
(-0.00165516 -0.010782 0)
(-0.00290493 -0.0101421 0)
(-0.00331934 -0.00977665 0)
(-0.00331764 -0.00955306 0)
(-0.00268638 -0.00947249 0)
(-0.00119995 -0.00991432 0)
(0.000574936 -0.0103743 0)
(0.00194797 -0.0100711 0)
(0.0026107 -0.00912829 0)
(0.002416 -0.00795432 0)
(0.00182761 -0.00690486 0)
(0.00144701 -0.00647397 0)
(0.000891046 -0.00707699 0)
(-0.000147094 -0.00605995 0)
(-0.00131956 -0.0039916 0)
(0.00047108 -0.00341175 0)
(0.00158877 -0.00585605 0)
(0.00273667 -0.00188533 0)
(-0.00384639 -0.00354407 0)
(-0.00157116 0.00202851 0)
(-0.00142102 0.000176152 0)
(-0.00035154 -0.00733332 0)
(-0.000271887 -0.00373405 0)
(-0.00470965 -0.0029476 0)
(-0.00214135 -0.00657655 0)
(-0.00348263 -0.0065825 0)
(0.00161613 0.00027036 0)
(0.000308082 -0.00230539 0)
(0.000277581 -0.00915784 0)
(-0.000549415 -0.00947832 0)
(-0.00142013 -0.0071633 0)
(0.00457379 -0.00637312 0)
(0.0021684 -0.00965018 0)
(0.00108249 -0.00987327 0)
(0.00104916 -0.00135117 0)
(0.000103578 -0.00226441 0)
(0.000250763 -0.00983119 0)
(0.00207658 -0.00657088 0)
(-0.000416798 -0.00453185 0)
(0.00140461 -0.00623598 0)
(6.69502e-05 -0.0040049 0)
(-0.000151612 -0.00435447 0)
(0.00023032 -0.00600963 0)
(0.000647766 -0.00698189 0)
(0.00120335 -0.00764573 0)
(-0.000486383 -0.0103105 0)
(0.000766282 -0.00527914 0)
(-5.99046e-05 0.000753407 0)
(0.00112133 -0.00435862 0)
(0.000459816 -0.0117837 0)
(-0.00208909 -0.011135 0)
(0.000724276 -0.00646406 0)
(0.000213065 -0.0084416 0)
(0.00220488 -0.00800515 0)
(0.00217948 -0.00719414 0)
(0.00078297 -0.0049231 0)
(0.000168407 -0.00298494 0)
(0.00142678 -0.00466238 0)
(0.00032525 -0.00445041 0)
(0.000232807 -0.00451243 0)
(0.000306544 -0.00426682 0)
(0.000670627 -0.00380354 0)
(0.000662034 -0.0038241 0)
(0.000719632 -0.00383663 0)
(0.000943724 -0.00385422 0)
(0.00118313 -0.00416833 0)
(0.00161223 -0.00435903 0)
(0.00223897 -0.00482001 0)
(0.00275421 -0.00505002 0)
(0.00279022 -0.00535962 0)
(0.00239075 -0.00592725 0)
(0.00167373 -0.00660091 0)
(0.000911888 -0.00748408 0)
(0.000138371 -0.00840911 0)
(-0.000783592 -0.00902166 0)
(-0.00222307 -0.00889859 0)
(-0.00331453 -0.00851098 0)
(-0.00354141 -0.00841266 0)
(-0.00340502 -0.00841848 0)
(-0.00247169 -0.00872037 0)
(-0.000902473 -0.00920428 0)
(0.000503801 -0.00940055 0)
(0.00129909 -0.00904851 0)
(0.00158854 -0.00823847 0)
(0.00156827 -0.00740733 0)
(0.00130525 -0.00670971 0)
(0.00104751 -0.00638231 0)
(0.000645474 -0.00713409 0)
(-0.000137335 -0.0062106 0)
(-0.000834635 -0.00413396 0)
(-0.00227657 -0.00499452 0)
(-0.000351397 -0.00745748 0)
(7.09427e-05 -0.00514295 0)
(-0.00117384 -0.00478964 0)
(0.00157115 -0.00449128 0)
(-0.00460039 -0.00477226 0)
(-0.00203971 -0.00760289 0)
(-0.00198998 -0.00674236 0)
(-0.00234761 -0.00627102 0)
(-0.00266054 -0.0115614 0)
(0.00242406 -0.0108385 0)
(0.00380917 -0.00743569 0)
(0.0010843 -0.0109119 0)
(-0.000500672 -0.012707 0)
(0.00238512 -0.011544 0)
(-0.00043142 -0.00358163 0)
(0.000621317 -0.00375936 0)
(0.00468207 -0.0101826 0)
(0.0039287 -0.00902563 0)
(0.00430204 -0.0063466 0)
(-0.00134994 -0.006504 0)
(-0.00238457 -0.00797402 0)
(-0.000415694 -0.00697287 0)
(-0.002196 -0.00607533 0)
(1.97972e-05 -0.00682834 0)
(0.000309394 -0.00672046 0)
(-4.92918e-05 -0.00673517 0)
(0.000705626 -0.0073297 0)
(0.00076241 -0.00816503 0)
(0.00115618 -0.00807853 0)
(0.00213481 -0.00479847 0)
(0.00530493 -0.00481799 0)
(0.000802981 -0.00384192 0)
(-0.0021923 -0.00492976 0)
(-0.00169694 -0.011974 0)
(0.000565055 -0.0102591 0)
(-0.00051378 -0.00788491 0)
(-0.000971465 -0.0123425 0)
(0.000779823 -0.0112174 0)
(-0.00106171 -0.011181 0)
(-0.000741685 -0.0110909 0)
(0.000127113 -0.00843678 0)
(0.000532585 -0.00794678 0)
(0.000332516 -0.00869796 0)
(0.000182842 -0.00738334 0)
(0.000470404 -0.00696114 0)
(0.000636156 -0.00635101 0)
(0.000654978 -0.00626819 0)
(0.000783745 -0.00603159 0)
(0.00107906 -0.00574379 0)
(0.00154881 -0.00573639 0)
(0.0020692 -0.00553282 0)
(0.00260623 -0.00549474 0)
(0.00289487 -0.00532602 0)
(0.00291718 -0.00529381 0)
(0.00269422 -0.00527337 0)
(0.00220928 -0.00534251 0)
(0.00165198 -0.00562951 0)
(0.000926567 -0.00611669 0)
(-0.000258278 -0.00653684 0)
(-0.00203508 -0.00679873 0)
(-0.00316353 -0.00699493 0)
(-0.00336006 -0.00719925 0)
(-0.00305929 -0.00755135 0)
(-0.0019967 -0.00802593 0)
(-0.000636687 -0.00847058 0)
(0.000298041 -0.00851856 0)
(0.000786899 -0.00814724 0)
(0.0010444 -0.00765199 0)
(0.00109686 -0.00715244 0)
(0.000956849 -0.0066396 0)
(0.000789604 -0.00637866 0)
(0.000494805 -0.0072334 0)
(-0.000112728 -0.00630764 0)
(-0.00207629 -0.00727588 0)
(-0.00102393 -0.00715944 0)
(-0.000365207 -0.0076699 0)
(0.0020101 -0.00635488 0)
(2.06847e-05 -0.0053315 0)
(0.0010828 -0.0069417 0)
(-0.000415086 -0.00997634 0)
(-0.00152821 -0.0128408 0)
(0.00146607 -0.014583 0)
(-0.000920845 -0.0167451 0)
(-0.00117058 -0.0170645 0)
(-0.000568 -0.0147895 0)
(0.00367614 -0.0135551 0)
(0.000112099 -0.0136202 0)
(-0.00138054 -0.0126341 0)
(0.00630356 -0.0119392 0)
(0.00374734 -0.0104138 0)
(-0.00325932 -0.00199066 0)
(-0.00116794 -0.00637991 0)
(-0.000974269 -0.00915577 0)
(0.00239991 -0.00579668 0)
(0.000310837 -0.00759468 0)
(-1.16326e-05 -0.00772969 0)
(0.000496249 -0.00740101 0)
(0.000890599 -0.00830825 0)
(-0.000313922 -0.00921384 0)
(-2.22719e-06 -0.00890273 0)
(0.0012859 -0.00847324 0)
(0.000891353 -0.00825197 0)
(0.0012437 -0.00835247 0)
(0.00212588 -0.00764929 0)
(0.00191869 -0.00665329 0)
(0.00111856 -0.00589284 0)
(0.00399494 -0.0051284 0)
(7.80076e-05 -0.00493147 0)
(0.000616183 -0.00759231 0)
(0.00218245 -0.00872931 0)
(-0.00233066 -0.00849944 0)
(-0.00140997 -0.00792144 0)
(0.0033 -0.00927659 0)
(0.0013972 -0.0130281 0)
(-0.000374993 -0.0119888 0)
(0.000427135 -0.010483 0)
(-0.00152237 -0.0133179 0)
(-0.00109407 -0.0126481 0)
(-0.000325927 -0.0113246 0)
(4.09014e-05 -0.0106701 0)
(3.29245e-06 -0.00999304 0)
(3.76946e-05 -0.00984827 0)
(0.00028811 -0.00954355 0)
(0.000484047 -0.0093304 0)
(0.000894526 -0.00900365 0)
(0.00140822 -0.00837481 0)
(0.00190371 -0.00769077 0)
(0.00250891 -0.00672609 0)
(0.0027569 -0.00599466 0)
(0.00251573 -0.00542878 0)
(0.0020828 -0.00505826 0)
(0.00168245 -0.00489087 0)
(0.00105213 -0.0050401 0)
(-9.38461e-05 -0.00528052 0)
(-0.00169421 -0.00578074 0)
(-0.00279463 -0.00635366 0)
(-0.00300745 -0.00679151 0)
(-0.00260296 -0.00721911 0)
(-0.00153443 -0.0075949 0)
(-0.000433135 -0.00787452 0)
(0.000126544 -0.00785246 0)
(0.000469845 -0.00761729 0)
(0.000739631 -0.00732186 0)
(0.000810008 -0.00699007 0)
(0.000709544 -0.00659591 0)
(0.000595541 -0.00638412 0)
(0.000378387 -0.00731419 0)
(-8.92431e-05 -0.00637929 0)
(-0.00198376 -0.0126202 0)
(-0.000633669 -0.0124964 0)
(-0.000556669 -0.0142407 0)
(0.00246587 -0.0129388 0)
(0.00106018 -0.0138734 0)
(-0.00010622 -0.0131378 0)
(0.000417926 -0.0157486 0)
(0.000235154 -0.0135709 0)
(0.00218462 -0.013684 0)
(0.00133155 -0.0180974 0)
(0.00149012 -0.018172 0)
(-0.00125581 -0.00932463 0)
(0.0018863 -0.00923064 0)
(-0.000821023 -0.0180175 0)
(0.000379828 -0.00772274 0)
(0.000949804 -0.0070737 0)
(0.00207847 -0.0140886 0)
(0.00239889 -0.00897698 0)
(-0.00349371 -0.00818549 0)
(-0.00114677 -0.00565947 0)
(-0.00250406 -0.00474493 0)
(-0.00112018 -0.010224 0)
(-0.000755425 -0.00975542 0)
(-0.00208121 -0.010108 0)
(0.00191841 -0.0112893 0)
(0.00144384 -0.0115342 0)
(-0.000522678 -0.00875744 0)
(-0.00129661 -0.0084209 0)
(0.000658006 -0.0103186 0)
(0.000946831 -0.00948655 0)
(0.000814872 -0.00959878 0)
(0.000157014 -0.00797291 0)
(0.000120457 -0.00462325 0)
(0.00608392 -0.00475197 0)
(0.00309658 -0.00579185 0)
(0.00275766 -0.00645736 0)
(0.00140762 -0.00741735 0)
(0.00136446 -0.00738847 0)
(0.00165387 -0.00058937 0)
(0.00167011 -0.00306181 0)
(0.000636957 -0.00975188 0)
(0.00171401 -0.00791607 0)
(-0.00176371 -0.00696142 0)
(-0.00235896 -0.00774106 0)
(-0.0014569 -0.00742102 0)
(-0.000628257 -0.00734834 0)
(-0.000200495 -0.00740814 0)
(-0.000209395 -0.00720779 0)
(2.71492e-05 -0.0075197 0)
(0.000282763 -0.00770565 0)
(0.000559189 -0.0081642 0)
(0.000757971 -0.00847282 0)
(0.00095961 -0.00846297 0)
(0.00112778 -0.00821756 0)
(0.00140484 -0.00753335 0)
(0.00161855 -0.00656713 0)
(0.0016967 -0.00549472 0)
(0.00163684 -0.00460997 0)
(0.00155565 -0.00420729 0)
(0.001256 -0.00412035 0)
(0.000403925 -0.00436511 0)
(-0.000971481 -0.0051198 0)
(-0.00224824 -0.00602694 0)
(-0.00259289 -0.00642392 0)
(-0.00232715 -0.00678157 0)
(-0.00133849 -0.00715253 0)
(-0.000412863 -0.00740506 0)
(-1.2735e-05 -0.00746659 0)
(0.000254454 -0.0073877 0)
(0.000516633 -0.00717655 0)
(0.000586264 -0.00691166 0)
(0.000516618 -0.00658538 0)
(0.000440194 -0.00640138 0)
(0.000284476 -0.00737975 0)
(-6.73385e-05 -0.00643218 0)
(-0.000698318 -0.0136735 0)
(0.00224269 -0.0161577 0)
(0.000846362 -0.017336 0)
(-0.00163334 -0.0171775 0)
(-0.00157031 -0.0181162 0)
(0.000509434 -0.0158822 0)
(-8.18319e-05 -0.0160458 0)
(0.00366091 -0.0146075 0)
(-0.000367691 -0.0140073 0)
(0.00237276 -0.0128876 0)
(-0.000263696 -0.0122423 0)
(0.00369591 -0.00764251 0)
(-0.00329352 -0.00911238 0)
(-0.00063705 -0.0132447 0)
(0.00142281 -0.0102279 0)
(-0.0039481 -0.0104082 0)
(-0.000536128 -0.0092364 0)
(0.00180447 -0.00819041 0)
(-5.69213e-05 -0.0096679 0)
(0.00261029 -0.00849627 0)
(-0.00327499 -0.00595326 0)
(-0.00458454 -0.00611669 0)
(0.00155971 -0.00974727 0)
(0.00154814 -0.00548914 0)
(0.0011922 -0.00576026 0)
(-0.000450956 -0.0129457 0)
(-0.00129469 -0.0128567 0)
(-0.0047906 -0.008517 0)
(0.00102035 -0.00890787 0)
(0.000902528 -0.0108833 0)
(0.00112729 -0.0112593 0)
(0.000843135 -0.010191 0)
(0.000905903 -0.00124876 0)
(0.00107191 -0.00264415 0)
(0.00111348 -0.00783274 0)
(0.00200752 -0.00567448 0)
(0.00167012 -0.00554473 0)
(0.00334676 -0.00335067 0)
(0.00380739 -0.00104925 0)
(-0.00217818 -0.00288948 0)
(-0.000291938 -0.00416943 0)
(-0.000270829 -0.00410873 0)
(-0.00115679 -0.00544431 0)
(-0.00107979 -0.00518243 0)
(-0.000686113 -0.00700272 0)
(-0.00106579 -0.00774436 0)
(0.000138362 -0.00754442 0)
(0.00030606 -0.00788891 0)
(0.000479557 -0.00791116 0)
(0.000919729 -0.00805455 0)
(0.00110302 -0.00818361 0)
(0.00111441 -0.00816423 0)
(0.00104332 -0.00798463 0)
(0.000909213 -0.00757405 0)
(0.000769501 -0.00686724 0)
(0.000601624 -0.00584885 0)
(0.000582566 -0.00465516 0)
(0.00081311 -0.003502 0)
(0.00116984 -0.00269413 0)
(0.00126429 -0.00242057 0)
(0.000876269 -0.00235506 0)
(-2.99943e-05 -0.00286119 0)
(-0.0013236 -0.00379635 0)
(-0.00214711 -0.00474949 0)
(-0.00192166 -0.00566955 0)
(-0.000904134 -0.00648348 0)
(-0.000186042 -0.00687378 0)
(6.88289e-05 -0.00705123 0)
(0.000196109 -0.00714587 0)
(0.000386563 -0.0070617 0)
(0.000447133 -0.0068295 0)
(0.00037418 -0.00656463 0)
(0.000321395 -0.00640542 0)
(0.000210209 -0.00742611 0)
(-5.04395e-05 -0.00647209 0)
(0.00206988 -0.00591881 0)
(0.000681308 -0.00807169 0)
(0.000876632 -0.0173004 0)
(-0.00109316 -0.0192097 0)
(-0.00154099 -0.0178813 0)
(-0.00151872 -0.0177523 0)
(-0.00216862 -0.0169976 0)
(-0.00070896 -0.0150419 0)
(-0.00117016 -0.0142942 0)
(0.00102357 -0.0133116 0)
(0.00246175 -0.0134371 0)
(0.00313811 -0.010445 0)
(-0.000323485 -0.0126279 0)
(-0.000108699 -0.0126667 0)
(-0.00112413 -0.0109902 0)
(-0.00230801 -0.0107377 0)
(0.000749629 -0.010269 0)
(-0.000303925 -0.00952756 0)
(-0.0015902 -0.00864392 0)
(0.00233334 -0.00898744 0)
(0.000305643 -0.00994147 0)
(-0.00167846 -0.000566543 0)
(-0.00221485 0.00211533 0)
(0.00609478 -0.00379574 0)
(-0.000205592 -0.00608677 0)
(-0.00229344 -0.00955779 0)
(0.000489366 -0.0108453 0)
(-0.00101032 -0.00464457 0)
(-0.00120773 -0.0054762 0)
(-0.00105994 -0.012557 0)
(-0.000408929 -0.0123922 0)
(0.00230466 -0.0107079 0)
(0.00302268 -0.00649724 0)
(-0.00266859 -0.0061315 0)
(0.000248106 -0.00649552 0)
(-0.000588366 -0.00599905 0)
(0.000407943 -0.00577095 0)
(0.00297007 -0.00296269 0)
(0.00156523 -0.00338368 0)
(0.000746616 -0.00238275 0)
(0.000339723 -0.00215657 0)
(0.000684671 -0.00254194 0)
(-0.000758098 -0.0024844 0)
(0.00118409 -0.00297606 0)
(0.000251431 -0.00554317 0)
(-0.000284497 -0.00770082 0)
(0.000226393 -0.0082809 0)
(9.02365e-05 -0.00875084 0)
(0.000456591 -0.00892865 0)
(0.000595659 -0.00899611 0)
(0.000731469 -0.00887922 0)
(0.000624706 -0.00852993 0)
(0.000435646 -0.00819081 0)
(0.000109393 -0.00748064 0)
(-0.000276062 -0.00634312 0)
(-0.000643112 -0.00525267 0)
(-0.000601957 -0.00405193 0)
(-0.000293003 -0.00307979 0)
(0.000352272 -0.00221492 0)
(0.00091468 -0.00163412 0)
(0.000941781 -0.00148065 0)
(0.00057079 -0.00166895 0)
(-0.00014456 -0.00237661 0)
(-0.000720786 -0.00368023 0)
(-0.0006579 -0.00528365 0)
(-0.000177017 -0.00646685 0)
(0.000138025 -0.00686073 0)
(0.00021987 -0.00703112 0)
(0.00022702 -0.00708769 0)
(0.00027267 -0.0070486 0)
(0.000291233 -0.0068006 0)
(0.000260855 -0.00656017 0)
(0.000226382 -0.00641318 0)
(0.000152304 -0.00746295 0)
(-3.55221e-05 -0.00650159 0)
(0.00723238 -0.00360914 0)
(0.000645816 -0.00406979 0)
(0.0018427 -0.00448903 0)
(0.00156034 -0.00647574 0)
(0.0014295 -0.00708225 0)
(-0.00183137 -0.00754637 0)
(0.000718289 -0.00935546 0)
(-0.00068786 -0.00991982 0)
(-0.00074724 -0.0113558 0)
(-0.0024818 -0.01008 0)
(-0.00263093 -0.00762308 0)
(0.00209922 -0.00617018 0)
(1.9413e-06 -0.00785636 0)
(-0.00199104 -0.00889587 0)
(-0.00256021 -0.008518 0)
(-0.00594641 -0.00592656 0)
(0.000499886 -0.00606317 0)
(-0.000766555 -0.00978145 0)
(-0.000998275 -0.007821 0)
(-0.000757954 -0.00744163 0)
(0.000489485 -0.00951716 0)
(0.00272873 -0.00645365 0)
(-0.00428804 0.00284641 0)
(-0.000721311 0.00235309 0)
(0.00157765 -0.00755243 0)
(0.00113533 -0.00546588 0)
(0.00364081 -0.00506357 0)
(0.00334235 -0.00644169 0)
(-0.00323849 -0.00688246 0)
(-0.0024547 -0.00907918 0)
(-0.00143192 -0.00907964 0)
(0.00120934 -0.00881104 0)
(-6.42133e-05 -0.00863709 0)
(-0.00126105 -0.00649369 0)
(-0.00142831 -0.00548536 0)
(-0.000800385 -0.0067061 0)
(0.000759933 -0.00490969 0)
(0.00106921 -0.00488749 0)
(-0.000375346 -0.00617398 0)
(-1.99472e-05 -0.00496569 0)
(-0.000603681 -0.00431853 0)
(-6.82856e-05 -0.00711628 0)
(-0.000451116 -0.00809167 0)
(0.00286486 -0.00841899 0)
(0.00278241 -0.0107503 0)
(0.00188153 -0.010404 0)
(0.0010221 -0.010452 0)
(0.000943309 -0.0106998 0)
(0.000969893 -0.0104478 0)
(0.000870955 -0.0100575 0)
(0.000864821 -0.00971722 0)
(0.000457469 -0.00914597 0)
(-0.000117236 -0.00811852 0)
(-0.000899323 -0.00703657 0)
(-0.00145999 -0.00585642 0)
(-0.001697 -0.00466587 0)
(-0.00156135 -0.00346707 0)
(-0.00102861 -0.00279434 0)
(-0.000249412 -0.00213308 0)
(0.000481517 -0.00183886 0)
(0.000824982 -0.00193588 0)
(0.000831866 -0.00242618 0)
(0.000693092 -0.00327971 0)
(0.000696517 -0.00457216 0)
(0.000747948 -0.00593144 0)
(0.000642738 -0.00658116 0)
(0.000433206 -0.00684138 0)
(0.000281224 -0.00695549 0)
(0.000226523 -0.00700429 0)
(0.000186348 -0.0069623 0)
(0.000163446 -0.00674458 0)
(0.000170359 -0.0065486 0)
(0.000148747 -0.00641542 0)
(0.00010769 -0.00748828 0)
(-2.35028e-05 -0.00652327 0)
(0.00108103 0.00181268 0)
(0.00157113 0.00374715 0)
(-0.000992908 0.00471781 0)
(0.001097 0.00614041 0)
(0.000209813 0.0061552 0)
(-0.000458525 0.00721421 0)
(0.000736627 0.00861525 0)
(0.000917902 0.00709462 0)
(0.00150452 0.00573225 0)
(0.000708785 0.00552489 0)
(0.00061081 0.0111824 0)
(-9.37539e-06 0.0106063 0)
(0.000491617 0.00107249 0)
(-0.000179416 -0.000615219 0)
(9.16002e-05 -0.0022976 0)
(-0.000803819 0.0032996 0)
(-0.000771632 0.00090063 0)
(0.0011343 -0.0098426 0)
(0.00111776 -0.0106955 0)
(-0.00138505 -0.0115308 0)
(-0.000557759 -0.0105601 0)
(0.00112514 -0.0083008 0)
(-0.00252846 -0.00409784 0)
(-0.00410981 0.000161414 0)
(0.00229277 -0.0050735 0)
(0.00143913 -0.00646821 0)
(0.000899152 -0.00560113 0)
(9.05533e-05 -0.00814484 0)
(0.000922209 -0.0067365 0)
(0.00051229 -0.00651461 0)
(0.000253205 -0.0074565 0)
(-8.63263e-05 -0.00888924 0)
(-0.00167201 -0.00889738 0)
(-0.000872861 -0.006651 0)
(-0.00410777 -0.00340168 0)
(0.00131841 -0.00136465 0)
(0.0023468 -0.00118553 0)
(0.000693863 -0.00145635 0)
(0.0014245 -0.00254714 0)
(0.000749263 -0.00268179 0)
(0.00399422 -0.00472843 0)
(0.00240422 -0.00918926 0)
(0.00320399 -0.00937213 0)
(0.00174306 -0.00883235 0)
(0.00125577 -0.0125104 0)
(0.000769183 -0.0125908 0)
(-5.96303e-05 -0.0117548 0)
(-0.000191341 -0.0115493 0)
(-7.53961e-05 -0.0108402 0)
(-4.88861e-05 -0.0103493 0)
(-0.000341871 -0.0095571 0)
(-0.000897432 -0.0087674 0)
(-0.00160972 -0.00750537 0)
(-0.00236727 -0.00687914 0)
(-0.00278081 -0.00604567 0)
(-0.0029633 -0.00545571 0)
(-0.002676 -0.00467558 0)
(-0.00179374 -0.00410831 0)
(-0.000611065 -0.00353591 0)
(0.000674532 -0.00336473 0)
(0.00161442 -0.00360949 0)
(0.00196171 -0.00453492 0)
(0.00205121 -0.00555653 0)
(0.00182936 -0.00651584 0)
(0.00121104 -0.00696657 0)
(0.000707551 -0.00696487 0)
(0.000478402 -0.00690987 0)
(0.000330678 -0.00691769 0)
(0.000191878 -0.00696272 0)
(0.000102257 -0.00690857 0)
(8.9312e-05 -0.00672785 0)
(9.42429e-05 -0.00654181 0)
(8.35488e-05 -0.00642069 0)
(6.94006e-05 -0.00751037 0)
(-1.48517e-05 -0.00653826 0)
(-0.000811143 -0.00262949 0)
(0.000559337 -0.00435639 0)
(7.14224e-05 -0.00500528 0)
(-0.000861268 -0.00491817 0)
(-0.00124603 -0.00790144 0)
(-0.00107539 -0.00524771 0)
(-0.00234517 -0.00403935 0)
(0.00155593 -0.0035937 0)
(0.00234431 -0.00669618 0)
(0.000746052 -0.00518637 0)
(0.00485866 -0.00380476 0)
(-0.00188116 -0.00499202 0)
(0.00186373 -0.00610919 0)
(0.00160251 -0.00708932 0)
(0.0016938 -0.00605662 0)
(0.00259708 -0.00389188 0)
(0.00186572 -0.00250543 0)
(0.00324791 -0.0086791 0)
(0.000537391 -0.0122216 0)
(-0.000587566 -0.0112458 0)
(-0.00374316 -0.00873805 0)
(0.00077817 -0.00933082 0)
(0.000807712 -0.00400608 0)
(-0.00228053 0.00358997 0)
(-0.00256832 -0.00592403 0)
(0.000377044 -0.00905352 0)
(-0.000558582 -0.00607167 0)
(0.000411059 -0.00473088 0)
(-6.31124e-06 -0.00506585 0)
(0.000383833 -0.00883076 0)
(0.000448616 -0.00788062 0)
(0.000567358 -0.00891893 0)
(-0.00122965 -0.00764905 0)
(-0.00190775 -0.00752516 0)
(-0.00521845 -0.00302953 0)
(-0.00597872 -0.00113592 0)
(-0.000598219 -0.00567939 0)
(-0.000304663 -0.00551448 0)
(0.00123984 -0.00586055 0)
(0.00414943 -0.00374275 0)
(0.00376644 -0.0022862 0)
(0.00443667 -0.00407662 0)
(0.00531181 -0.00358107 0)
(0.00344744 -0.00303734 0)
(0.00159091 -0.0037363 0)
(0.0012749 -0.00384405 0)
(0.000600027 -0.00429936 0)
(0.000250612 -0.00503661 0)
(-8.65553e-05 -0.00564926 0)
(-0.000174568 -0.00589665 0)
(-0.000906858 -0.00592709 0)
(-0.0012889 -0.00595113 0)
(-0.0018684 -0.00607476 0)
(-0.00230221 -0.00658542 0)
(-0.00279675 -0.00714361 0)
(-0.00290404 -0.00752542 0)
(-0.00277639 -0.00765759 0)
(-0.00216519 -0.00764261 0)
(-0.00108226 -0.00733078 0)
(0.000631503 -0.00695781 0)
(0.00210713 -0.00680584 0)
(0.00259021 -0.00705741 0)
(0.00259384 -0.00722722 0)
(0.00211302 -0.00735781 0)
(0.0011528 -0.00722355 0)
(0.000617369 -0.00704979 0)
(0.000427526 -0.00692122 0)
(0.000317468 -0.00687508 0)
(0.000181118 -0.00689188 0)
(5.51948e-05 -0.00684147 0)
(2.11498e-05 -0.00667806 0)
(3.7531e-05 -0.00651256 0)
(4.02648e-05 -0.00640934 0)
(4.30259e-05 -0.00752046 0)
(-6.60996e-06 -0.00654847 0)
(-0.000886358 -0.0038645 0)
(0.00189867 -0.00553419 0)
(0.0044455 -0.00809559 0)
(-6.37147e-05 -0.00966189 0)
(0.00112302 -0.0116268 0)
(0.00117805 -0.0119613 0)
(0.000574268 -0.0049514 0)
(0.0006044 -0.00509355 0)
(-0.000718968 -0.0126876 0)
(-0.000407244 -0.0101241 0)
(0.00413843 -0.00790203 0)
(-2.50586e-05 -0.00689967 0)
(-0.000412049 -0.00782615 0)
(-3.26109e-05 -0.010595 0)
(0.00190061 -0.00914372 0)
(0.00197727 -0.00213281 0)
(0.00260721 -0.00047693 0)
(0.000643021 -0.00843912 0)
(0.000483973 -0.00836362 0)
(-0.000612016 -0.00848807 0)