/*--------------------------------*- C++ -*----------------------------------*\
  =========                 |
  \\      /  F ield         | OpenFOAM: The Open Source CFD Toolbox
   \\    /   O peration     | Website:  https://openfoam.org
    \\  /    A nd           | Version:  12
     \\/     M anipulation  |
\*---------------------------------------------------------------------------*/
FoamFile
{
    format      ascii;
    class       volScalarField::Internal;
    location    "0.55";
    object      cloud:UCoeff;
}
// * * * * * * * * * * * * * * * * * * * * * * * * * * * * * * * * * * * * * //

dimensions      [1 0 0 0 0 0 0];

value           nonuniform List<scalar> 
3750
(
1.3276e-05
5.08122e-07
1.02807e-07
5.24706e-08
5.56124e-08
5.53502e-08
5.85154e-08
0
5.61224e-08
5.99539e-08
1.25432e-07
5.23136e-08
0
5.03594e-08
1.25067e-07
5.61383e-08
2.85224e-09
4.92043e-08
5.59853e-08
5.45529e-08
1.42087e-07
5.78421e-08
1.28391e-07
5.04014e-08
5.14163e-08
5.66636e-08
5.45059e-08
5.54597e-08
9.75737e-08
5.41295e-08
7.15229e-08
3.65268e-08
5.66861e-08
0
5.53173e-08
5.57867e-08
5.21056e-08
1.02415e-07
0
0
5.56336e-08
0
0
5.56204e-08
1.32007e-07
5.41905e-08
5.57147e-08
5.58599e-08
5.54089e-08
5.55346e-08
5.62299e-08
5.63036e-08
5.63104e-08
1.28503e-07
5.48841e-08
5.39192e-08
1.33541e-07
0
5.53997e-08
1.33693e-07
5.47237e-08
5.57244e-08
5.5927e-08
1.31191e-07
5.42379e-08
5.36028e-08
0
1.56638e-08
9.3091e-08
5.60255e-08
1.28289e-07
5.15276e-08
1.25256e-07
5.1889e-08
0
8.54877e-06
3.65782e-07
2.06389e-07
5.45183e-08
0
0
2.10328e-08
1.79482e-07
0
5.40918e-08
5.38014e-08
1.285e-07
5.49156e-08
2.24393e-07
0
0
0
5.53342e-08
0
5.70849e-08
0
1.39169e-07
7.67863e-08
1.79244e-07
4.93541e-08
0
0
5.77611e-08
8.1703e-08
0
0
5.54408e-08
5.57047e-08
0
5.63738e-08
5.28278e-08
1.48544e-07
5.52529e-08
5.42342e-08
0
0
1.28899e-07
5.39356e-08
1.33618e-07
1.31377e-07
5.91179e-08
0
0
0
5.666e-08
3.73688e-10
5.40976e-08
1.83216e-08
9.02064e-08
0
5.89039e-08
5.34697e-08
2.22508e-07
5.7483e-08
0
0
0
5.60818e-08
5.51276e-08
1.07165e-08
1.92304e-07
5.30996e-08
0
0
1.38062e-07
5.16405e-08
5.33423e-08
1.26691e-07
5.1444e-08
8.29704e-08
1.33724e-05
5.40214e-07
1.25107e-07
1.99847e-08
5.69586e-08
1.04994e-07
3.46793e-09
5.58358e-08
1.56298e-07
1.08213e-07
0
5.34557e-08
5.5125e-08
5.49433e-08
5.28717e-08
1.31917e-07
5.31085e-08
1.36553e-07
0
5.74381e-08
0
0
1.29868e-07
5.16594e-08
5.1233e-08
5.60981e-08
0
5.49233e-08
5.38116e-08
5.08562e-08
7.18952e-08
8.245e-08
1.15311e-08
5.6982e-08
5.59926e-08
0
5.42442e-08
5.36221e-08
5.19037e-08
1.2845e-07
0
0
5.62056e-08
1.31347e-07
5.36679e-08
5.44099e-08
1.33567e-07
5.34063e-08
0
5.6176e-08
0
5.57406e-08
1.39289e-07
5.3189e-08
5.49503e-08
0
5.35893e-08
5.50401e-08
5.272e-08
5.39433e-08
1.3033e-07
1.35414e-07
5.51481e-08
7.08569e-08
1.14663e-07
5.11881e-08
5.26593e-08
1.32274e-07
6.70453e-08
1.21244e-07
0
5.07397e-08
5.30896e-08
5.3452e-08
5.46268e-08
9.90349e-06
2.43991e-07
4.39334e-08
5.65787e-08
1.30565e-07
5.37732e-08
5.38479e-08
1.34326e-07
1.36244e-07
9.70147e-08
7.50693e-08
5.32897e-08
5.38429e-08
6.22417e-08
1.19932e-07
1.27173e-07
1.27246e-07
8.05685e-08
1.00663e-07
5.36807e-08
1.2742e-07
1.29439e-07
1.29913e-07
5.35477e-08
0
5.53551e-08
5.61273e-08
1.311e-07
5.41399e-08
1.31919e-07
0
5.4774e-08
2.09062e-08
9.329e-08
0
5.66565e-08
5.3835e-08
7.83381e-08
1.79055e-07
5.12569e-08
6.59422e-08
3.95908e-08
1.3141e-07
5.5107e-08
1.38306e-07
0
5.5084e-08
5.31792e-08
5.24822e-08
1.42222e-08
1.90215e-07
5.2863e-08
1.33291e-07
5.25488e-08
5.38613e-08
5.54494e-08
0
5.4052e-08
5.60167e-08
5.57961e-08
8.10161e-08
1.07392e-07
0
0
8.03394e-08
3.03751e-08
1.30978e-07
5.43174e-08
5.59815e-08
5.48005e-08
5.33818e-08
1.2635e-07
5.09878e-08
1.28536e-07
5.47649e-08
1.00201e-05
5.48398e-07
1.22237e-07
5.57522e-08
5.29278e-08
5.16414e-08
0
5.54543e-08
0
0
0
0
5.61619e-08
1.38136e-07
0
0
0
5.64146e-08
5.62876e-08
5.62124e-08
5.56966e-08
5.56111e-08
5.52828e-08
5.4456e-08
5.42587e-08
5.59085e-08
5.93793e-08
5.55732e-08
1.82278e-08
1.90416e-08
5.30873e-08
5.4531e-08
5.59807e-08
5.72413e-08
5.72753e-08
7.74713e-08
1.02484e-07
1.22789e-07
5.14525e-08
5.4074e-08
5.57116e-08
5.7307e-08
5.48896e-08
5.5008e-08
5.56994e-08
5.63756e-08
1.25573e-07
8.7062e-08
8.89609e-08
5.60323e-08
0
5.4643e-08
5.41166e-08
5.48034e-08
5.45935e-08
5.41579e-08
7.84768e-08
1.00492e-07
5.40977e-08
1.40146e-07
1.28696e-07
5.75206e-08
0
5.29917e-08
1.78397e-08
2.11435e-08
5.28736e-08
5.38929e-08
1.39241e-07
5.35298e-08
1.28818e-07
5.24759e-08
5.74384e-08
0
5.43234e-08
9.91352e-06
5.39872e-07
1.39961e-07
9.05722e-08
5.32593e-08
1.29615e-07
5.25401e-08
5.396e-08
5.55371e-08
5.55743e-08
5.54197e-08
5.55795e-08
5.56883e-08
1.21563e-08
5.69624e-08
5.54495e-08
5.50353e-08
5.55368e-08
5.53887e-08
5.57913e-08
5.5783e-08
5.58097e-08
5.57315e-08
5.60526e-08
5.51133e-08
5.42708e-08
5.5831e-08
5.31345e-08
1.38156e-07
5.3571e-08
5.24707e-08
5.33474e-08
5.46122e-08
1.38874e-07
5.6322e-08
0
0
0
0
0
5.88267e-08
5.3966e-08
1.35146e-07
5.26131e-08
0
5.51165e-08
0
2.1233e-08
8.94677e-08
3.97548e-08
5.32762e-08
5.41873e-08
5.50241e-08
5.64252e-08
5.44587e-08
5.34888e-08
5.35594e-08
1.3699e-07
5.7379e-08
2.5947e-08
3.4689e-08
4.58364e-08
4.9334e-08
4.54419e-08
5.47209e-08
1.31099e-07
5.31992e-08
7.06201e-08
1.15389e-07
5.60996e-08
5.36085e-08
5.35551e-08
5.4149e-08
5.59388e-08
5.67138e-08
7.39898e-06
4.94339e-07
1.04015e-07
0
5.619e-08
2.14972e-09
7.45787e-08
9.88735e-08
1.28302e-07
1.26963e-07
1.27164e-07
5.6171e-08
5.82361e-08
2.46719e-08
0
5.54979e-08
5.51826e-08
5.58896e-08
0
5.41305e-08
6.29576e-08
4.77763e-08
5.51081e-08
5.71113e-08
5.54351e-08
0
5.66226e-08
5.51175e-08
5.46967e-08
9.13093e-08
8.68232e-08
5.30225e-08
1.42441e-07
0
0
5.4779e-08
5.42567e-08
5.35039e-08
5.36274e-08
1.3748e-07
5.59319e-08
5.37073e-08
5.38646e-08
1.36166e-07
5.33082e-08
5.36586e-08
5.22802e-08
1.25398e-07
1.41203e-07
8.13217e-09
5.66676e-08
5.50479e-08
5.50185e-08
5.54321e-08
5.46224e-08
5.16961e-08
5.47617e-08
5.66988e-08
5.67687e-08
8.64698e-08
2.61668e-08
5.55728e-08
5.55118e-08
5.49883e-08
5.44959e-08
5.54811e-08
5.5885e-08
0
1.34493e-07
5.74325e-08
0
8.92045e-08
4.38305e-08
3.39357e-08
5.56412e-08
1.52843e-05
2.09962e-07
1.47401e-07
4.14387e-08
1.3258e-07
5.34824e-08
5.19328e-08
2.30232e-08
1.25431e-08
5.30896e-09
7.96353e-08
1.7672e-07
5.46743e-08
1.30786e-07
0
5.38112e-08
5.52508e-08
5.43334e-08
1.01784e-07
7.51223e-08
5.47707e-08
5.52028e-08
5.89942e-08
5.74419e-08
5.32624e-08
5.17228e-08
1.32121e-07
0
0
1.37879e-07
5.47576e-08
5.46161e-08
0
5.67945e-08
5.48887e-08
1.31192e-07
5.25524e-08
5.18426e-08
1.27022e-07
1.37999e-07
0
0
5.50655e-08
5.74994e-08
5.727e-08
5.55676e-08
5.21031e-08
5.11204e-08
5.77273e-08
0
5.65471e-08
5.5334e-08
5.30351e-08
1.37613e-07
5.40556e-08
1.05819e-07
6.47491e-08
5.48228e-08
5.64254e-08
5.52689e-08
5.54791e-08
5.54236e-08
5.50021e-08
5.52805e-08
5.44155e-08
5.59448e-08
3.32661e-09
6.27526e-08
4.00455e-08
5.6902e-08
5.62737e-08
5.83291e-08
2.84437e-08
4.96067e-08
8.42079e-08
2.14244e-05
3.98714e-07
1.57725e-07
0
5.57074e-08
5.57426e-08
0
1.303e-07
8.64171e-08
9.34039e-08
5.349e-08
5.20182e-08
5.56475e-08
5.39279e-08
5.65593e-08
0
0
0
0
5.9124e-08
0
0
5.65508e-08
0
5.67879e-08
5.7608e-08
0
5.41928e-08
1.31833e-07
1.34072e-07
5.45614e-08
5.48626e-08
5.50357e-08
5.48209e-08
5.48961e-08
0
5.38829e-08
8.56592e-08
2.03275e-08
1.31117e-07
5.38061e-08
5.47707e-08
5.34712e-08
5.9753e-08
0
5.55345e-08
1.27209e-07
5.32593e-08
5.44515e-08
1.42074e-07
5.93571e-08
2.31514e-08
5.42351e-08
8.35997e-08
5.42039e-08
5.3434e-08
5.39605e-08
5.26594e-08
5.6912e-08
5.45279e-08
5.40367e-08
5.41207e-08
5.4514e-08
6.89904e-08
8.99004e-08
7.18467e-08
0
5.44066e-08
5.60684e-08
0
5.61145e-08
5.61631e-08
6.50851e-08
1.26334e-07
5.64822e-08
6.45821e-06
5.58501e-07
1.76625e-07
5.41535e-08
5.45481e-08
0
5.36183e-08
1.38164e-07
0
5.49235e-08
5.49666e-08
0
5.67216e-08
0
1.3221e-07
5.41583e-08
5.37943e-08
5.4221e-08
5.49003e-08
5.26861e-08
1.3895e-07
0
0
5.5639e-08
5.35914e-08
5.70858e-08
8.23539e-08
9.15431e-08
5.22846e-08
5.34828e-08
0
0
5.48406e-08
7.09919e-08
3.91716e-08
1.49406e-07
2.01966e-07
1.27308e-07
5.35517e-08
0
8.51327e-08
2.57493e-08
1.27596e-07
5.59824e-08
5.51427e-08
8.72055e-08
2.05577e-08
5.45405e-08
5.57028e-08
5.6879e-08
5.69062e-08
0
5.95843e-08
5.19678e-08
5.38074e-08
5.40942e-08
5.51491e-08
1.36578e-07
5.6763e-08
0
5.45686e-08
5.51884e-08
1.38424e-07
5.43278e-08
5.33625e-08
5.26007e-08
5.39723e-08
5.50539e-08
5.57298e-08
5.71071e-08
5.6903e-08
0
8.58786e-08
7.3253e-08
7.98124e-08
6.59309e-06
9.6851e-07
1.74373e-07
0
1.38367e-07
5.95973e-08
4.76353e-08
0
1.751e-09
5.29984e-08
5.57269e-08
5.61598e-08
0
0
0
5.47053e-08
5.56076e-08
1.02834e-07
6.82134e-08
1.2942e-07
5.30643e-08
5.3824e-08
1.35735e-07
5.3502e-08
5.20412e-08
5.4626e-08
5.68944e-08
5.65694e-08
5.33122e-08
5.40526e-08
1.32958e-07
8.6646e-08
1.89574e-07
5.16097e-08
5.22119e-08
5.39136e-08
8.99329e-09
6.36785e-08
2.8361e-08
5.35003e-08
5.66845e-08
5.51409e-08
0
1.29198e-07
5.47274e-08
5.50442e-08
5.51952e-08
9.93374e-08
4.16604e-08
5.19722e-08
2.9882e-08
1.34723e-07
5.39762e-08
5.45013e-08
5.54546e-08
5.64082e-08
0
8.13248e-08
8.511e-08
6.99042e-08
5.55789e-08
5.43654e-08
5.45858e-08
5.60603e-08
5.50595e-08
5.43004e-08
5.4499e-08
5.48257e-08
5.49508e-08
5.94951e-08
0
5.56362e-08
5.52197e-08
5.57791e-08
5.80013e-08
5.58007e-06
1.85692e-06
1.72446e-07
0
5.56364e-08
5.33284e-08
1.29729e-07
5.50385e-08
5.60403e-08
5.5892e-08
5.59572e-08
5.62e-08
5.57946e-08
6.80209e-08
1.15096e-07
5.38552e-08
8.50148e-08
9.48211e-08
5.29615e-08
5.28475e-08
8.22722e-08
9.95385e-08
5.54838e-08
5.43925e-08
5.36796e-08
6.81414e-08
1.2043e-07
5.40029e-08
5.26017e-08
1.94696e-08
6.77404e-08
7.73881e-08
0
1.31424e-07
5.28547e-08
0
5.43028e-08
5.6147e-08
0
1.32024e-07
5.49964e-08
5.53505e-08
5.42545e-08
5.59466e-08
5.58393e-08
5.52788e-08
5.46228e-08
5.44245e-08
5.57737e-08
5.70723e-08
5.66571e-08
5.52947e-08
5.37473e-08
5.50834e-08
5.56474e-08
5.55644e-08
5.55909e-08
5.52835e-08
6.8966e-08
1.20166e-07
5.4945e-08
5.32093e-08
5.45416e-08
5.40908e-08
5.38396e-08
5.50199e-08
5.43551e-08
0
5.45122e-08
5.78424e-08
5.74629e-08
5.35816e-08
5.42016e-08
5.69371e-08
2.11953e-10
1.00013e-05
3.59409e-07
1.27597e-07
0
5.49504e-08
5.53634e-08
0
8.86324e-08
8.98212e-08
5.88748e-08
1.31568e-07
5.54626e-08
5.35495e-08
1.30302e-07
5.30543e-08
5.17006e-08
5.44407e-08
5.46492e-08
1.02857e-07
7.14001e-08
5.36503e-08
5.50567e-08
5.51584e-08
8.95275e-08
9.16045e-08
5.36119e-08
5.50391e-08
5.48209e-08
9.47877e-08
7.88279e-08
5.57949e-08
5.71319e-08
5.6904e-08
0
5.48342e-08
5.32482e-08
5.16538e-08
5.45053e-08
0
5.59873e-08
5.50391e-08
5.56858e-08
5.59597e-08
5.5278e-08
5.50401e-08
5.48423e-08
5.47771e-08
5.4199e-08
1.36864e-07
5.86029e-08
0
1.318e-07
5.47779e-08
5.43507e-08
5.50657e-08
5.61999e-08
5.57352e-08
7.30775e-08
3.39834e-08
5.5026e-08
5.6562e-08
5.44011e-08
1.32259e-07
5.31722e-08
5.33418e-08
5.38636e-08
5.4449e-08
5.38111e-08
5.56297e-08
0
1.31801e-07
5.57868e-08
0
5.79317e-08
5.86057e-08
1.00227e-05
5.0915e-07
4.5432e-08
5.63478e-08
5.56758e-08
0
1.34293e-07
0
5.54905e-08
5.40353e-08
1.03968e-07
7.53612e-08
9.89563e-09
3.72149e-08
5.28252e-08
9.6114e-08
1.47014e-08
5.5177e-08
5.52804e-08
5.52302e-08
6.22048e-08
1.24304e-07
5.51061e-08
5.54405e-08
5.5536e-08
6.43749e-08
6.07912e-08
3.83311e-08
5.70001e-08
5.77718e-08
5.52755e-08
5.53188e-08
5.60871e-08
5.64984e-08
0
0
5.51703e-08
2.86739e-08
3.25114e-09
0
5.59381e-08
5.69124e-08
5.44382e-08
5.37366e-08
5.41816e-08
5.50913e-08
5.51017e-08
5.57404e-08
5.74662e-08
1.90487e-08
2.21124e-08
5.46026e-08
5.55774e-08
5.53515e-08
1.34441e-07
1.2891e-07
5.40952e-08
5.56266e-08
5.54849e-08
5.49878e-08
5.5471e-08
5.49415e-08
1.36833e-07
5.29769e-08
5.29061e-08
5.35743e-08
5.58434e-08
1.32135e-07
5.40738e-08
5.30862e-08
5.36732e-08
5.57051e-08
5.77662e-08
5.73282e-08
5.77073e-08
1.17077e-05
9.01145e-07
9.2935e-08
5.4968e-08
5.53978e-08
5.51773e-08
5.3152e-08
5.43522e-08
5.57892e-08
5.51952e-08
5.88417e-08
5.34043e-08
5.46205e-08
5.54622e-08
5.53371e-08
5.6976e-08
0
5.52617e-08
5.54593e-08
5.5299e-08
5.52646e-08
5.50144e-08
5.52483e-08
5.64053e-08
5.59602e-08
8.43714e-08
9.56329e-08
5.53166e-08
5.91831e-08
0
5.57269e-08
5.52417e-08
5.56405e-08
5.93634e-08
0
5.40227e-08
5.47957e-08
5.6159e-08
5.62994e-08
5.52322e-08
5.55419e-08
1.31984e-07
5.41018e-08
5.49382e-08
5.54629e-08
0
6.03421e-08
5.08309e-08
5.65998e-08
5.71119e-08
5.53097e-08
5.63277e-08
5.67932e-08
5.69389e-08
9.81304e-09
3.62975e-08
0
1.12817e-08
6.39689e-08
2.89157e-08
5.61859e-08
0
0
5.51882e-08
1.3054e-07
5.25095e-08
5.33202e-08
5.41892e-08
5.6191e-08
5.53813e-08
5.45348e-08
5.49354e-08
5.48629e-08
5.67492e-08
5.76182e-08
8.60733e-06
3.75532e-07
1.02327e-07
5.46523e-08
7.53554e-08
1.07644e-07
5.34521e-08
5.42276e-08
5.44694e-08
5.53457e-08
0
5.51548e-08
5.58805e-08
5.68819e-08
1.84877e-08
2.16855e-08
5.52815e-08
5.5635e-08
5.73111e-08
5.53542e-08
5.5533e-08
5.51341e-08
5.52281e-08
5.61054e-08
5.69363e-08
5.53811e-08
5.44004e-08
5.48206e-08
6.31513e-08
5.28502e-08
5.56071e-08
0
5.49878e-08
5.51074e-08
5.50144e-08
5.4177e-08
5.3712e-08
1.35881e-07
5.33189e-08
5.40937e-08
5.39089e-08
8.32896e-08
6.81469e-08
5.69515e-08
1.4585e-08
5.47942e-08
5.47595e-08
5.46301e-08
1.39133e-07
5.39401e-08
5.22799e-08
5.74472e-08
0
5.5536e-08
0
0
5.60074e-08
5.7159e-08
5.67597e-08
5.64869e-08
5.76883e-08
5.51477e-08
5.40817e-08
0
0
5.49525e-08
1.33304e-07
5.44859e-08
0
5.59832e-08
5.48933e-08
5.50211e-08
5.64818e-08
5.5359e-08
5.53057e-08
2.10779e-05
5.30006e-07
4.46649e-08
5.35363e-08
7.57943e-08
1.10341e-07
5.42037e-08
5.3052e-08
5.42158e-08
5.56997e-08
0
5.50103e-08
5.53467e-08
6.0118e-08
0
5.62039e-08
5.48861e-08
5.57316e-08
5.50992e-08
5.47539e-08
1.02523e-07
7.33192e-08
5.38472e-08
5.68953e-08
0
5.68693e-08
5.64253e-08
5.51285e-08
5.90203e-08
0
5.58044e-08
5.56765e-08
5.52107e-08
5.58575e-08
5.47947e-08
5.50009e-08
8.46194e-08
9.66084e-08
5.36685e-08
5.36635e-08
5.3335e-08
5.75598e-08
5.58887e-08
2.37391e-08
7.39563e-08
5.27466e-08
1.28533e-07
5.36029e-08
1.36636e-07
5.37237e-08
5.24604e-08
5.37979e-08
7.37426e-08
3.58426e-08
5.52166e-08
5.60583e-08
5.58106e-08
5.8829e-08
0
5.55338e-08
5.47073e-08
5.69778e-08
5.566e-08
5.47772e-08
5.574e-08
0
5.56089e-08
5.55648e-08
8.46554e-08
5.14431e-08
3.14356e-08
5.62441e-08
5.64177e-08
1.34571e-07
5.43694e-08
4.06901e-06
5.3714e-07
4.50725e-08
5.50113e-08
5.47774e-08
5.66253e-08
5.60865e-08
5.5104e-08
5.47885e-08
5.50113e-08
5.5064e-08
5.48444e-08
0
5.44443e-08
5.82248e-08
2.08889e-08
8.30289e-08
5.39874e-08
5.4409e-08
8.78864e-08
8.96844e-08
5.34168e-08
5.3616e-08
5.87739e-08
0
5.5828e-08
5.52454e-08
2.55353e-08
1.10286e-08
5.7582e-08
5.60859e-08
5.53709e-08
5.48507e-08
5.52302e-08
5.53026e-08
5.56602e-08
5.57195e-08
5.52955e-08
5.56037e-08
5.58025e-08
5.55921e-08
5.62276e-08
5.58402e-08
5.54129e-08
5.50243e-08
1.31499e-07
5.26099e-08
1.30618e-07
5.32785e-08
1.32635e-07
5.2503e-08
5.4057e-08
5.78008e-08
5.27056e-08
5.5661e-08
5.67916e-08
5.61108e-08
5.50756e-08
1.29978e-07
0
5.6052e-08
1.32061e-07
1.30243e-07
5.32848e-08
5.42784e-08
1.29896e-07
0
5.66422e-08
5.52872e-08
5.94774e-08
1.34142e-07
5.52429e-08
9.27816e-08
8.45046e-08
5.39916e-08
2.10339e-05
3.68109e-07
2.73351e-08
5.38432e-08
5.61397e-08
0
5.65464e-08
9.30259e-08
1.68618e-08
5.48227e-08
5.51678e-08
5.5008e-08
5.44702e-08
5.50448e-08
5.69179e-08
5.60731e-08
5.27182e-08
1.30248e-07
5.30601e-08
1.3204e-07
5.52996e-08
5.5192e-08
5.39642e-08
5.64399e-08
5.88331e-08
0
5.50065e-08
5.56593e-08
5.66601e-08
5.68994e-08
5.53137e-08
5.23687e-08
5.43331e-08
5.46326e-08
5.55594e-08
0
5.54294e-08
5.69307e-08
5.73531e-08
5.50207e-08
5.47982e-08
5.48557e-08
5.58043e-08
5.50993e-08
5.53221e-08
5.45532e-08
5.5275e-08
5.49936e-08
5.60508e-08
5.61725e-08
5.53767e-08
5.54805e-08
5.50116e-08
5.29184e-08
1.3703e-07
1.36592e-07
1.2467e-07
1.19384e-07
5.00117e-08
1.33504e-07
5.27187e-08
5.55687e-08
5.2116e-08
5.61892e-08
8.70935e-09
4.03806e-08
5.4157e-08
5.48409e-08
5.4881e-08
5.5638e-08
5.57823e-08
1.35781e-07
5.3665e-08
1.28119e-07
6.33024e-08
1.13643e-05
3.60406e-07
4.50002e-08
5.47964e-08
5.83698e-08
5.63368e-08
0
5.4545e-08
5.55808e-08
5.53502e-08
5.49738e-08
5.44213e-08
5.45196e-08
5.58433e-08
7.86876e-08
1.03502e-07
5.32122e-08
5.38173e-08
5.39176e-08
5.4118e-08
1.38185e-07
5.44081e-08
5.36389e-08
5.41295e-08
5.61365e-08
5.63784e-08
5.65193e-08
5.70511e-08
5.66004e-08
5.42041e-08
5.31839e-08
5.34089e-08
5.41326e-08
5.49252e-08
0
5.52964e-08
5.62697e-08
5.63835e-08
5.49932e-08
5.47355e-08
5.57382e-08
0
5.48227e-08
5.69794e-08
5.56919e-08
0
0
5.57711e-08
0
5.77571e-09
4.65891e-08
5.64659e-08
5.70456e-08
0
0
5.71743e-08
0
5.51662e-08
5.55975e-08
5.72563e-08
0
0
1.72106e-08
1.4994e-07
7.31573e-08
0
5.29148e-08
5.46824e-08
5.47588e-08
7.16344e-08
1.13746e-07
6.7624e-08
1.16539e-07
9.34699e-08
1.02198e-07
1.14551e-05
3.69848e-07
3.14151e-07
1.24781e-07
7.60397e-08
3.1879e-08
5.34471e-08
8.26578e-08
2.47231e-08
5.57697e-08
1.30528e-07
5.28999e-08
0
1.31689e-07
5.45836e-08
5.40449e-08
5.42784e-08
5.34558e-08
5.36911e-08
5.6764e-08
5.81427e-08
5.60703e-08
5.42319e-08
5.32792e-08
1.02342e-07
7.50518e-08
5.6311e-08
5.56849e-08
5.33911e-08
5.37187e-08
5.28453e-08
5.35792e-08
5.40622e-08
5.52444e-08
5.49475e-08
5.76442e-08
0
1.38969e-07
5.48162e-08
5.35085e-08
5.53473e-08
5.41305e-08
5.23125e-08
0
5.33926e-08
1.26157e-07
1.26139e-07
5.45467e-08
1.38689e-07
0
5.42745e-08
5.81753e-08
0
5.65042e-08
0
5.66805e-08
5.59064e-08
5.63669e-08
5.57768e-08
5.66252e-08
0
5.50495e-08
5.52455e-08
5.36778e-08
5.23906e-08
1.27438e-07
2.25509e-07
5.22947e-08
1.49657e-07
1.14076e-07
5.47221e-08
5.71971e-08
1.30884e-07
5.34072e-08
6.68541e-08
1.15325e-05
2.60773e-07
2.48043e-07
5.31914e-08
5.20968e-08
1.29692e-07
1.30117e-07
5.25949e-08
5.38187e-08
5.59761e-08
5.55775e-08
1.2768e-07
5.45519e-08
5.53041e-08
5.50763e-08
5.44988e-08
5.37153e-08
5.4966e-08
5.53302e-08
5.90047e-08
5.8794e-08
0
5.54517e-08
5.49573e-08
5.51095e-08
5.55982e-08
7.69993e-08
1.09103e-07
5.33945e-08
5.41309e-08
5.31916e-08
9.58557e-08
8.22641e-08
0
1.25781e-07
5.28337e-08
1.40065e-07
5.84796e-08
5.46077e-08
5.35836e-08
5.40333e-08
8.01346e-08
4.92257e-08
1.02755e-07
5.41775e-08
5.55569e-08
5.40467e-08
5.40655e-08
2.65723e-08
8.4841e-09
5.56929e-08
5.78514e-08
0
5.48437e-08
5.7456e-08
5.65162e-08
1.06832e-07
6.70325e-08
5.38129e-08
0
0
2.32008e-07
1.28087e-07
5.04871e-08
5.33235e-08
5.49678e-08
5.54938e-08
5.59222e-08
5.74425e-08
1.57697e-08
3.34166e-08
5.08814e-08
5.53689e-08
5.60051e-08
5.59902e-08
1.149e-05
3.61208e-07
0
0
0
5.40909e-08
5.47857e-08
5.41908e-08
5.63847e-08
5.96356e-08
0
0
5.51454e-08
1.3912e-07
5.40686e-08
5.41134e-08
5.38203e-08
5.33032e-08
5.46438e-08
5.68787e-08
5.5471e-08
5.79877e-08
0
8.3267e-08
9.50068e-08
5.56065e-08
5.62767e-08
5.48933e-08
5.43693e-08
5.49461e-08
5.50557e-08
5.44725e-08
0
1.7302e-07
8.64273e-08
5.36297e-08
5.48414e-08
0
5.74263e-08
5.61832e-08
5.39407e-08
5.32359e-08
5.38226e-08
5.58227e-08
0
5.70797e-08
5.65906e-08
5.38347e-08
5.44309e-08
5.57531e-08
5.60483e-08
5.58755e-08
1.28516e-07
1.24945e-07
1.32972e-07
7.97358e-08
1.00924e-07
5.57579e-08
0
1.33084e-07
5.24586e-08
5.38428e-08
5.4254e-08
5.47755e-08
5.56785e-08
5.57318e-08
5.61335e-08
5.5678e-08
5.68776e-08
0
0
0
0
0
0
1.56122e-05
3.62083e-07
1.22197e-07
5.4214e-08
5.25871e-08
0
0
0
5.46775e-08
5.71978e-08
5.34407e-08
5.38228e-08
1.29407e-07
5.36637e-08
5.3964e-08
5.46796e-08
5.4583e-08
5.43908e-08
5.51031e-08
5.57783e-08
2.14653e-08
9.27898e-08
5.52286e-08
5.3388e-08
5.19958e-08
5.42083e-08
5.51525e-08
5.51305e-08
6.88312e-08
1.20574e-07
2.56261e-08
7.83252e-09
5.42114e-08
5.44042e-08
5.39931e-08
1.37602e-07
0
1.42136e-07
6.05866e-08
0
1.31674e-07
5.28279e-08
5.34439e-08
5.44158e-08
5.6197e-08
5.84947e-08
0
5.17984e-08
5.42942e-08
5.43627e-08
1.37337e-07
5.45029e-08
5.40919e-08
1.29177e-07
5.40497e-08
7.38552e-08
3.39704e-08
5.55508e-08
5.55948e-08
5.54945e-08
5.56967e-08
5.53224e-08
5.55004e-08
5.55798e-08
5.59862e-08
5.64049e-08
5.6374e-08
5.51039e-08
5.49168e-08
5.55357e-08
5.53845e-08
5.4167e-08
5.52324e-08
5.5793e-08
5.61421e-08
1.00039e-05
5.37005e-07
4.83766e-08
5.46807e-08
1.31898e-07
1.3363e-07
5.28118e-08
5.38471e-08
5.83771e-08
1.26923e-07
5.41923e-08
5.37288e-08
1.03374e-07
6.72618e-08
5.25007e-08
5.39684e-08
5.40312e-08
5.4027e-08
5.4733e-08
5.56747e-08
5.60214e-08
1.34978e-07
5.24429e-08
5.37158e-08
5.50453e-08
5.5087e-08
5.54251e-08
5.46172e-08
5.51263e-08
5.66607e-08
2.48042e-10
1.31464e-07
5.22029e-08
5.3152e-08
5.43521e-08
1.89227e-08
2.02382e-08
5.7451e-08
5.93471e-08
5.63373e-08
5.52431e-08
8.2181e-09
3.77575e-08
5.5258e-08
5.65154e-08
5.74824e-08
5.62648e-08
5.44083e-08
5.40006e-08
5.44542e-08
5.52475e-08
5.48476e-08
5.35662e-08
0
1.34436e-07
5.37762e-08
1.40549e-07
0
5.5467e-08
5.36009e-08
5.43632e-08
5.45895e-08
5.39911e-08
5.57024e-08
5.65747e-08
5.74108e-08
5.74795e-08
5.53886e-08
5.81094e-08
8.67541e-08
9.02175e-08
1.26804e-07
5.25466e-08
5.38521e-08
5.59539e-08
6.38865e-06
3.95245e-07
1.12065e-07
2.45541e-08
1.09131e-08
5.31116e-08
1.31067e-07
6.21659e-08
1.19796e-07
5.4555e-08
5.43733e-08
5.34773e-08
5.49229e-08
5.42865e-08
5.43956e-08
5.48502e-08
5.46711e-08
5.40043e-08
5.48981e-08
1.34679e-07
5.35998e-08
1.32066e-07
5.40639e-08
5.63563e-08
0
5.51107e-08
5.47088e-08
5.45972e-08
5.54581e-08
0
5.73724e-08
1.2721e-07
5.24065e-08
5.36244e-08
5.45975e-08
5.53719e-08
0
5.60355e-08
1.41067e-07
5.4392e-08
5.46121e-08
5.4552e-08
5.51734e-08
5.56079e-08
5.53925e-08
1.34768e-07
5.40909e-08
5.22801e-08
5.50196e-08
0
0
0
5.51595e-08
5.66251e-08
5.50327e-08
0
5.91575e-08
6.69647e-08
1.2234e-07
5.45948e-08
5.50622e-08
5.45671e-08
5.50869e-08
0
0
5.97435e-08
0
5.5089e-08
0
0
0
5.34276e-08
1.30753e-07
1.35178e-07
0
1.80448e-05
3.68501e-07
4.41764e-08
5.34225e-08
5.54402e-08
1.70336e-08
8.87922e-08
1.27808e-07
5.29182e-08
1.35628e-07
5.33528e-08
5.37224e-08
5.33537e-08
5.44175e-08
5.48264e-08
5.50082e-08
5.48372e-08
5.5184e-08
5.56058e-08
5.59751e-08
6.66257e-08
1.18027e-07
5.32541e-08
5.40194e-08
5.57824e-08
5.54193e-08
0
5.45634e-08
6.00063e-09
1.12651e-07
8.71957e-08
2.2335e-08
5.54521e-08
5.5346e-08
0
1.59477e-08
1.0073e-07
5.60126e-08
1.38569e-07
5.30102e-08
5.36527e-08
1.34212e-07
5.6996e-08
5.53824e-08
5.48725e-08
5.44432e-08
5.49085e-08
5.36814e-08
5.27131e-08
5.88486e-08
0
5.46384e-08
5.62088e-08
0
5.50204e-08
1.36886e-07
5.83717e-08
5.19918e-08
0
5.51097e-08
5.5741e-08
5.44891e-08
0
1.40359e-07
5.86219e-08
0
0
6.97445e-09
4.71855e-08
1.28228e-07
5.39122e-08
0
0
1.39991e-07
5.6986e-08
1.3331e-05
5.16528e-07
1.05715e-07
0
5.53399e-08
0
5.47494e-08
5.38439e-08
5.35056e-08
1.35259e-07
5.42633e-08
5.34146e-08
5.38018e-08
5.45183e-08
5.4649e-08
5.46428e-08
5.46394e-08
5.49485e-08
5.54603e-08
5.58354e-08
5.56147e-08
5.47505e-08
5.56373e-08
5.53407e-08
5.5486e-08
5.55581e-08
5.54903e-08
0
5.49337e-08
5.48914e-08
5.61041e-08
5.75993e-08
0
5.46342e-08
5.46341e-08
5.45163e-08
1.34686e-07
5.58081e-08
5.27067e-08
5.40068e-08
5.34848e-08
7.63612e-08
1.12237e-07
5.67102e-08
5.59058e-08
5.5984e-08
5.59053e-08
5.45467e-08
5.35918e-08
1.38883e-07
5.50043e-08
0
1.25507e-07
1.27418e-07
1.32622e-07
5.84346e-08
5.52648e-08
5.10868e-08
7.93413e-08
1.01106e-07
3.364e-09
4.84251e-08
5.50324e-08
5.97207e-08
5.72963e-08
5.4937e-08
5.51364e-08
5.41183e-08
6.85568e-08
8.68107e-08
7.83608e-08
1.91113e-08
2.25727e-08
5.68838e-08
5.6109e-08
1.57043e-05
9.08809e-07
4.59659e-08
4.79249e-08
5.50786e-08
5.45424e-08
5.60695e-08
5.5296e-08
5.50005e-08
1.2791e-07
5.31903e-08
5.41853e-08
5.49022e-08
5.4742e-08
5.48754e-08
0
5.4495e-08
0
1.20528e-08
5.62865e-08
5.58516e-08
5.64574e-08
5.59857e-08
5.5595e-08
5.57968e-08
5.58341e-08
5.61375e-08
5.43414e-08
5.4328e-08
5.51825e-08
0
0
9.58366e-08
8.14161e-08
5.36514e-08
5.61911e-08
5.22666e-08
5.55451e-08
5.45192e-08
5.54566e-08
5.55314e-08
5.55698e-08
5.64486e-08
5.71705e-08
7.68305e-08
1.12591e-07
5.49326e-08
5.4495e-08
5.35463e-08
0
5.45359e-08
1.26781e-07
9.56909e-08
7.52559e-08
5.66654e-08
5.80655e-08
0
7.11673e-08
3.69974e-08
5.35602e-08
5.47736e-08
0
0
5.64191e-08
5.75358e-08
1.37884e-07
5.39602e-08
5.40572e-08
5.38893e-08
5.53736e-08
1.68326e-10
5.58655e-08
5.47127e-08
5.59792e-08
1.3424e-07
4.06545e-06
3.97666e-07
9.35006e-08
5.33691e-08
5.31857e-08
5.86131e-08
5.75614e-08
5.40432e-08
5.35165e-08
5.35261e-08
5.42155e-08
5.49239e-08
1.31301e-08
3.78798e-08
4.8452e-08
5.58073e-08
0
1.27375e-07
1.03844e-07
5.54218e-08
5.41847e-08
5.56796e-08
5.54652e-08
5.52624e-08
5.51109e-08
5.52483e-08
5.52913e-08
5.51276e-08
5.50269e-08
5.4791e-08
5.37054e-08
5.56343e-08
9.28234e-08
8.519e-08
5.21497e-08
5.41257e-08
5.58751e-08
5.72064e-08
5.60306e-08
5.54844e-08
5.51985e-08
5.54391e-08
5.57714e-08
1.37599e-07
5.55002e-08
5.63031e-08
5.68121e-08
5.54198e-08
5.38396e-08
5.40597e-08
1.30033e-07
5.25625e-08
5.18195e-08
5.18783e-08
5.5296e-08
5.71889e-08
5.70102e-08
5.6329e-08
5.49864e-08
5.48086e-08
0
5.63654e-08
5.774e-08
5.71369e-08
5.56052e-08
5.57992e-08
5.65146e-08
5.67796e-08
5.51458e-08
5.44183e-08
0
1.31099e-07
5.41845e-08
1.64022e-07
1.00108e-07
3.88735e-05
2.61329e-07
5.18022e-08
5.40622e-08
5.37719e-08
2.16306e-08
1.11772e-07
1.06407e-07
5.31782e-08
5.31339e-08
5.40251e-08
5.41479e-08
5.4447e-08
5.5768e-08
5.65578e-08
2.46765e-08
1.0391e-08
0
1.36052e-07
5.38315e-08
5.14291e-08
5.46219e-08
5.54234e-08
5.59217e-08
5.56588e-08
5.53692e-08
5.57147e-08
0
0
5.47169e-08
5.47805e-08
5.8524e-08
1.28272e-07
5.4548e-08
5.2851e-08
5.53793e-08
6.09633e-08
0
5.55785e-08
5.49603e-08
7.23453e-08
1.11493e-07
5.39899e-08
5.48238e-08
5.56603e-08
1.40126e-07
5.64221e-08
5.56896e-08
5.45406e-08
5.4105e-08
5.39586e-08
5.3892e-08
5.39137e-08
5.49667e-08
5.57207e-08
5.59528e-08
5.68751e-08
5.58892e-08
5.45018e-08
5.35144e-08
1.55441e-08
9.36057e-08
1.38679e-07
5.36791e-08
5.2931e-08
5.57566e-08
5.78815e-08
5.62312e-08
5.29912e-08
0
5.25038e-08
5.51876e-08
1.36391e-07
5.30687e-08
5.29155e-08
1.51579e-05
2.51197e-07
5.63031e-08
5.43775e-08
5.34331e-08
5.5231e-08
5.67129e-08
0
5.55143e-08
0
1.29757e-07
5.22867e-08
0
5.68568e-08
5.89394e-08
5.37179e-08
5.35066e-08
5.51274e-08
5.53979e-08
1.32901e-07
5.2507e-08
5.50147e-08
5.98304e-08
1.26014e-07
5.40117e-08
5.3855e-08
5.42059e-08
5.4143e-08
5.30493e-08
1.29429e-07
5.29633e-08
5.28528e-08
5.67114e-08
0
5.31919e-08
5.36685e-08
1.40938e-07
5.77031e-08
5.56214e-08
5.39781e-08
5.44108e-08
5.49213e-08
5.47515e-08
5.66095e-08
5.83626e-08
5.7399e-08
5.76096e-08
5.80205e-08
5.4027e-08
5.26591e-08
5.34022e-08
5.345e-08
5.4393e-08
5.53381e-08
5.82978e-08
5.80846e-08
5.71201e-08
5.51468e-08
5.34638e-08
5.37196e-08
5.36925e-08
5.78992e-08
0
0
1.35993e-07
1.3732e-07
5.33735e-08
5.42387e-08
5.33916e-08
5.32125e-08
1.86365e-08
1.97792e-08
5.435e-08
5.55812e-08
5.49467e-08
1.17766e-05
9.35276e-08
1.25507e-07
1.29869e-07
5.2144e-08
5.30323e-08
5.53396e-08
5.64102e-08
5.57448e-08
5.35692e-08
5.42889e-08
5.36655e-08
5.37014e-08
5.47593e-08
5.50617e-08
5.60627e-08
5.55358e-08
5.60984e-08
5.58209e-08
5.4987e-08
5.47796e-08
7.68987e-08
3.27797e-08
1.34821e-07
5.357e-08
5.32309e-08
5.30134e-08
1.31371e-07
5.22458e-08
5.30879e-08
5.37676e-08
5.41824e-08
5.60485e-08
5.56361e-08
0
5.5487e-08
0
1.41767e-07
5.56363e-08
5.40726e-08
5.50783e-08
5.43996e-08
5.42479e-08
5.44187e-08
5.48807e-08
5.62123e-08
9.01496e-08
9.75713e-08
5.50514e-08
5.37312e-08
5.39036e-08
5.38249e-08
5.38066e-08
5.36125e-08
5.45985e-08
5.6126e-08
5.56578e-08
5.61209e-08
1.81791e-08
5.75172e-08
8.90934e-08
5.6416e-08
0
5.57403e-08
5.72035e-08
0
5.39042e-08
5.33226e-08
5.23688e-08
5.33448e-08
0
1.28711e-07
1.36285e-07
0
0
6.32155e-06
6.71706e-07
1.20314e-08
9.76412e-08
5.3756e-08
9.01058e-08
7.19858e-08
4.49437e-08
4.75876e-08
3.45151e-08
4.47245e-08
1.2611e-07
1.03606e-07
6.68417e-08
5.47715e-08
5.52614e-08
5.49506e-08
5.62531e-08
1.92202e-09
5.12406e-08
5.51562e-08
5.49582e-08
5.6224e-08
0
5.55564e-08
5.57356e-08
5.80553e-08
1.30914e-07
5.31459e-08
5.26335e-08
5.40706e-08
5.44385e-08
5.47169e-08
5.38558e-08
5.33354e-08
0
1.3857e-07
5.46344e-08
5.48764e-08
1.36407e-07
0
0
5.54097e-08
1.33662e-07
0
5.48021e-08
5.58564e-08
5.64531e-08
5.66294e-08
5.4631e-08
5.55673e-08
5.63297e-08
5.45524e-08
5.27529e-08
5.62236e-08
5.76184e-08
5.44903e-08
5.3923e-08
5.49056e-08
5.49157e-08
5.53909e-08
5.54648e-08
5.51983e-08
5.80436e-08
0
1.41499e-07
0
6.09355e-08
1.22711e-07
5.21032e-08
5.37413e-08
5.42638e-08
5.42857e-08
5.54275e-08
5.73752e-08
2.4414e-05
3.6251e-07
1.22573e-07
5.44133e-08
5.56713e-08
0
5.97579e-08
1.40884e-08
6.33401e-08
9.32032e-08
5.24852e-08
5.29346e-08
1.3426e-07
5.48172e-08
1.3809e-07
0
5.50535e-08
5.59936e-08
5.51381e-08
5.66539e-08
2.13653e-09
5.19538e-08
5.4206e-08
5.55865e-08
5.60127e-08
5.54878e-08
5.52746e-08
5.58901e-08
5.50647e-08
5.43173e-08
5.43607e-08
5.34796e-08
7.95627e-08
1.00451e-07
5.32281e-08
1.272e-07
1.29035e-07
5.29006e-08
5.5464e-08
5.6301e-08
5.4833e-08
5.4933e-08
5.4919e-08
0
1.30927e-07
5.57676e-08
0
5.57559e-08
0
5.53634e-08
5.89221e-08
1.02774e-08
4.07344e-08
5.16708e-08
5.50259e-08
5.68972e-08
1.32205e-07
5.25977e-08
5.37582e-08
5.51491e-08
5.55613e-08
5.55601e-08
5.53783e-08
5.56151e-08
5.67898e-08
5.90448e-08
0
5.5578e-08
5.63589e-08
4.06669e-08
3.61614e-08
0
5.30956e-08
1.33197e-07
5.43782e-08
8.40683e-06
5.39569e-07
5.1933e-08
0
5.37766e-08
5.81592e-08
0
0
0
5.41822e-08
1.32576e-07
5.39924e-08
5.25496e-08
1.37469e-07
5.71127e-08
5.76385e-08
1.53296e-08
2.72094e-08
5.4837e-08
5.51209e-08
1.86051e-09
5.10561e-08
5.54713e-08
5.72043e-08
5.64201e-08
5.51415e-08
5.45092e-08
5.61641e-08
5.47671e-08
5.45575e-08
5.40852e-08
8.4474e-08
9.10943e-08
5.28378e-08
1.2808e-07
1.29108e-07
5.37538e-08
5.47487e-08
5.55203e-08
0
5.87471e-08
5.75262e-08
5.58767e-08
1.53721e-09
5.13236e-08
5.59073e-08
0
5.45032e-08
5.52509e-08
5.97931e-08
2.37762e-08
1.43572e-08
5.47952e-08
5.52743e-08
5.61323e-08
1.32551e-07
5.48632e-08
5.51696e-08
5.54621e-08
6.46233e-08
4.5824e-08
5.56593e-08
5.58004e-08
5.59554e-08
5.58162e-08
5.69084e-08
5.51562e-08
5.57185e-08
5.57061e-08
0
1.34213e-07
5.33539e-08
0
0
5.36735e-08
2.09482e-05
1.58377e-07
0
5.4006e-08
0
5.6905e-08
5.63863e-08
5.54369e-08
1.33211e-07
0
0
5.88546e-08
1.22776e-07
5.65456e-08
1.55445e-08