/*--------------------------------*- C++ -*----------------------------------*\
  =========                 |
  \\      /  F ield         | OpenFOAM: The Open Source CFD Toolbox
   \\    /   O peration     | Website:  https://openfoam.org
    \\  /    A nd           | Version:  12
     \\/     M anipulation  |
\*---------------------------------------------------------------------------*/
FoamFile
{
    format      ascii;
    class       volVectorField::Internal;
    location    "0.55";
    object      cloud:UTrans;
}
// * * * * * * * * * * * * * * * * * * * * * * * * * * * * * * * * * * * * * //

dimensions      [1 1 -1 0 0 0 0];

value           nonuniform List<vector> 
3750
(
(-5.6463e-09 6.27994e-08 0)
(5.00965e-11 6.50991e-11 0)
(7.83121e-10 -1.90013e-09 0)
(6.01994e-11 -1.68309e-09 0)
(6.38649e-14 -1.96473e-09 0)
(-1.63847e-11 -1.94049e-09 0)
(-8.20213e-11 -2.24053e-09 0)
(0 0 0)
(3.65911e-11 -2.01186e-09 0)
(9.42372e-11 -2.12521e-09 0)
(1.19266e-11 -3.96718e-09 0)
(8.67533e-11 -1.66842e-09 0)
(0 0 0)
(-1.71065e-11 -1.50692e-09 0)
(7.57385e-11 -3.64227e-09 0)
(-2.79944e-12 -2.01367e-09 0)
(-1.27907e-12 -9.77599e-11 0)
(-2.4882e-11 -1.68482e-09 0)
(-7.39015e-12 -1.99937e-09 0)
(-3.82719e-11 -1.86744e-09 0)
(-2.74595e-10 -5.28609e-09 0)
(2.81439e-10 -2.15782e-09 0)
(3.02134e-11 -3.93982e-09 0)
(1.59914e-11 -1.51045e-09 0)
(3.59374e-11 -1.59413e-09 0)
(-3.80163e-13 -2.06317e-09 0)
(6.60142e-11 -1.86249e-09 0)
(-6.18248e-12 -1.95061e-09 0)
(7.25247e-11 -3.17517e-09 0)
(-8.62587e-11 -1.82773e-09 0)
(-8.04074e-11 -2.48722e-09 0)
(-4.40305e-11 -1.15829e-09 0)
(-2.98083e-12 -2.06543e-09 0)
(0 0 0)
(2.9004e-11 -1.9373e-09 0)
(-1.89072e-11 -1.98085e-09 0)
(3.59644e-11 -1.65251e-09 0)
(1.47574e-10 -2.97372e-09 0)
(0 0 0)
(0 0 0)
(1.86722e-11 -1.96661e-09 0)
(0 0 0)
(0 0 0)
(-1.20533e-11 -1.96544e-09 0)
(-8.71668e-11 -4.30859e-09 0)
(-1.61964e-10 -1.82803e-09 0)
(-1.04053e-10 -1.97145e-09 0)
(-1.32551e-10 -1.98326e-09 0)
(-1.53283e-10 -1.93987e-09 0)
(-6.01657e-11 -1.95661e-09 0)
(1.25005e-12 -2.02228e-09 0)
(3.67965e-11 -2.02886e-09 0)
(6.89117e-11 -2.02867e-09 0)
(-8.34774e-11 -3.94946e-09 0)
(-1.16087e-10 -1.89432e-09 0)
(-6.47187e-11 -1.80984e-09 0)
(-4.29331e-12 -4.49422e-09 0)
(0 0 0)
(-1.01522e-11 -1.94512e-09 0)
(-1.70974e-11 -4.44069e-09 0)
(-2.79791e-11 -1.88309e-09 0)
(-3.93434e-11 -1.97472e-09 0)
(-3.6011e-11 -1.99364e-09 0)
(-1.61889e-10 -4.21077e-09 0)
(-5.56031e-11 -1.83864e-09 0)
(2.33614e-11 -1.78278e-09 0)
(0 0 0)
(-2.07411e-12 -4.89608e-10 0)
(9.66701e-11 -3.02649e-09 0)
(1.92983e-11 -2.00305e-09 0)
(6.80992e-13 -3.93091e-09 0)
(-3.17542e-11 -1.60363e-09 0)
(1.22754e-10 -3.65391e-09 0)
(6.7629e-12 -1.63446e-09 0)
(0 0 0)
(-7.008e-09 7.70312e-08 0)
(1.87546e-11 -1.01241e-09 0)
(9.01643e-10 -4.22028e-09 0)
(6.79342e-12 -1.86472e-09 0)
(0 0 0)
(0 0 0)
(1.24776e-11 -7.06529e-10 0)
(2.26436e-10 -5.96131e-09 0)
(0 0 0)
(7.73997e-11 -1.82475e-09 0)
(6.37439e-11 -1.79938e-09 0)
(-7.76433e-11 -3.94954e-09 0)
(-1.51744e-11 -1.90069e-09 0)
(2.94136e-10 -6.53595e-09 0)
(0 0 0)
(0 0 0)
(0 0 0)
(6.53165e-11 -1.93796e-09 0)
(0 0 0)
(-2.09486e-10 -2.09276e-09 0)
(0 0 0)
(8.62197e-11 -4.98716e-09 0)
(6.43048e-11 -2.47855e-09 0)
(-6.71914e-12 -4.57276e-09 0)
(5.58742e-11 -1.42493e-09 0)
(0 0 0)
(0 0 0)
(3.251e-11 -2.16813e-09 0)
(9.35885e-11 -2.7142e-09 0)
(0 0 0)
(0 0 0)
(3.16246e-11 -1.94863e-09 0)
(-1.34293e-12 -1.97329e-09 0)
(0 0 0)
(-1.11817e-10 -2.03271e-09 0)
(-1.45507e-10 -1.70883e-09 0)
(1.31257e-10 -4.61347e-09 0)
(1.03254e-10 -1.74629e-09 0)
(2.45297e-11 -1.839e-09 0)
(0 0 0)
(0 0 0)
(5.37405e-11 -3.98516e-09 0)
(-1.80974e-11 -1.81237e-09 0)
(-1.80804e-10 -4.41318e-09 0)
(5.20915e-11 -4.22537e-09 0)
(-1.55935e-10 -2.29661e-09 0)
(0 0 0)
(0 0 0)
(0 0 0)
(-5.00908e-11 -2.06221e-09 0)
(1.0139e-14 -1.2919e-11 0)
(4.94439e-12 -1.86578e-09 0)
(-1.36225e-11 -6.28785e-10 0)
(-8.83094e-11 -2.90765e-09 0)
(0 0 0)
(-4.41659e-11 -2.28016e-09 0)
(-3.38532e-11 -1.77086e-09 0)
(3.85948e-10 -6.34356e-09 0)
(-7.40084e-12 -2.14142e-09 0)
(0 0 0)
(0 0 0)
(0 0 0)
(-1.16318e-10 -2.00501e-09 0)
(-1.33494e-10 -1.91544e-09 0)
(-1.67843e-11 -3.29063e-10 0)
(-2.4836e-10 -5.51246e-09 0)
(1.62706e-10 -1.73103e-09 0)
(0 0 0)
(0 0 0)
(9.91153e-11 -4.87181e-09 0)
(3.51842e-11 -1.61311e-09 0)
(-3.46996e-11 -1.75963e-09 0)
(-9.13306e-12 -3.78639e-09 0)
(-3.53989e-11 -1.59653e-09 0)
(-3.31913e-11 -2.80209e-09 0)
(-1.13399e-09 8.37571e-08 0)
(1.10367e-09 3.82704e-09 0)
(1.76662e-10 -2.871e-09 0)
(1.11041e-10 -6.83962e-10 0)
(1.43417e-10 -1.99793e-09 0)
(1.35781e-10 -3.6352e-09 0)
(1.29094e-12 -1.2196e-10 0)
(4.94428e-11 -1.98485e-09 0)
(3.87582e-10 -5.06172e-09 0)
(-5.13759e-11 -3.52712e-09 0)
(0 0 0)
(-9.02624e-11 -1.76766e-09 0)
(-9.06911e-11 -1.91772e-09 0)
(1.50288e-11 -1.90321e-09 0)
(9.85284e-11 -1.716e-09 0)
(1.04752e-10 -4.2691e-09 0)
(1.26043e-10 -1.73488e-09 0)
(-1.66785e-11 -4.72273e-09 0)
(0 0 0)
(-1.83305e-10 -2.12935e-09 0)
(0 0 0)
(0 0 0)
(2.28586e-10 -4.08737e-09 0)
(3.00057e-11 -1.61478e-09 0)
(5.89096e-11 -1.57815e-09 0)
(1.26879e-10 -2.00591e-09 0)
(0 0 0)
(1.97388e-11 -1.90135e-09 0)
(-2.05666e-11 -1.80131e-09 0)
(-1.33413e-10 -1.54216e-09 0)
(6.62275e-11 -2.426e-09 0)
(6.47883e-11 -2.95437e-09 0)
(1.63373e-11 -4.28074e-10 0)
(1.16763e-10 -2.0902e-09 0)
(-3.45868e-11 -1.99977e-09 0)
(0 0 0)
(-1.11285e-11 -1.84001e-09 0)
(-1.68986e-11 -1.78456e-09 0)
(6.61172e-11 -1.63437e-09 0)
(2.66657e-10 -3.93093e-09 0)
(0 0 0)
(0 0 0)
(1.87775e-11 -2.01992e-09 0)
(1.79412e-10 -4.21212e-09 0)
(1.1128e-10 -1.78521e-09 0)
(-2.23371e-10 -1.84136e-09 0)
(-9.27111e-11 -4.42911e-09 0)
(1.37756e-11 -1.76554e-09 0)
(0 0 0)
(-1.74642e-10 -2.00963e-09 0)
(0 0 0)
(-8.70736e-11 -1.97469e-09 0)
(1.15683e-10 -4.99884e-09 0)
(2.33342e-12 -1.74653e-09 0)
(7.29801e-11 -1.9025e-09 0)
(0 0 0)
(1.24253e-10 -1.77739e-09 0)
(-7.00914e-12 -1.9121e-09 0)
(-4.05829e-12 -1.7057e-09 0)
(3.0647e-11 -1.81288e-09 0)
(1.2294e-10 -4.11808e-09 0)
(-1.7136e-10 -4.60612e-09 0)
(-2.59415e-10 -1.9043e-09 0)
(-1.49095e-10 -2.47017e-09 0)
(-2.18259e-11 -3.80651e-09 0)
(2.24529e-11 -1.57536e-09 0)
(6.81563e-11 -1.69907e-09 0)
(-1.03405e-10 -4.29753e-09 0)
(2.56773e-11 -2.29799e-09 0)
(2.20614e-11 -4.21387e-09 0)
(0 0 0)
(1.91082e-11 -1.53819e-09 0)
(-3.30141e-11 -1.73752e-09 0)
(-8.53843e-11 -1.76755e-09 0)
(-1.35148e-10 -1.86963e-09 0)
(3.36131e-09 8.07744e-08 0)
(8.90764e-10 8.48347e-10 0)
(6.10579e-12 -1.02497e-09 0)
(3.7919e-11 -2.05482e-09 0)
(2.1231e-10 -4.13351e-09 0)
(5.40642e-11 -1.7972e-09 0)
(1.1882e-11 -1.80461e-09 0)
(9.57842e-11 -4.50398e-09 0)
(-3.09309e-11 -4.69163e-09 0)
(1.12509e-11 -3.20342e-09 0)
(-1.29312e-11 -2.25612e-09 0)
(-1.65199e-11 -1.75528e-09 0)
(2.14959e-11 -1.80408e-09 0)
(1.27092e-11 -2.05917e-09 0)
(-1.10994e-10 -3.81168e-09 0)
(-1.92267e-10 -3.82306e-09 0)
(-1.59177e-10 -3.83014e-09 0)
(-4.05386e-11 -2.66218e-09 0)
(9.13966e-11 -3.40713e-09 0)
(1.96142e-11 -1.78972e-09 0)
(7.48384e-11 -3.84597e-09 0)
(1.91402e-10 -4.03089e-09 0)
(2.7092e-10 -4.07067e-09 0)
(4.90553e-11 -1.77738e-09 0)
(0 0 0)
(6.89205e-11 -1.93976e-09 0)
(1.06462e-10 -2.00985e-09 0)
(9.48643e-11 -4.19069e-09 0)
(2.13186e-11 -1.83058e-09 0)
(2.28405e-11 -4.27069e-09 0)
(0 0 0)
(7.91534e-11 -1.88619e-09 0)
(5.22636e-11 -7.50436e-10 0)
(1.46645e-10 -3.46233e-09 0)
(0 0 0)
(-1.98078e-11 -2.06237e-09 0)
(5.24422e-12 -1.8035e-09 0)
(-2.85669e-11 -2.39869e-09 0)
(-3.20136e-13 -4.87903e-09 0)
(6.91241e-11 -1.57971e-09 0)
(-6.474e-11 -2.25592e-09 0)
(8.96941e-12 -1.1755e-09 0)
(1.57666e-10 -4.21475e-09 0)
(5.29938e-11 -1.91749e-09 0)
(-1.55927e-10 -4.89631e-09 0)
(0 0 0)
(2.68377e-11 -1.91595e-09 0)
(-5.86699e-12 -1.74565e-09 0)
(-1.82912e-12 -1.68516e-09 0)
(-3.71345e-11 -4.53071e-10 0)
(-3.75856e-10 -5.88357e-09 0)
(-1.60826e-10 -1.71052e-09 0)
(-1.11503e-10 -4.41632e-09 0)
(9.55476e-11 -1.6882e-09 0)
(7.14608e-11 -1.80443e-09 0)
(1.08088e-10 -1.94668e-09 0)
(0 0 0)
(9.68039e-12 -1.82282e-09 0)
(3.2173e-11 -2.00206e-09 0)
(-1.35581e-10 -1.9771e-09 0)
(-1.31119e-10 -2.80964e-09 0)
(-2.34017e-10 -3.91565e-09 0)
(0 0 0)
(0 0 0)
(-1.05417e-10 -2.78707e-09 0)
(-4.08324e-11 -1.09385e-09 0)
(7.3711e-11 -4.18112e-09 0)
(1.77781e-11 -1.84653e-09 0)
(8.08331e-11 -1.9974e-09 0)
(-7.92002e-11 -1.88861e-09 0)
(8.79389e-11 -1.76124e-09 0)
(3.02914e-10 -3.74202e-09 0)
(1.99089e-11 -1.55867e-09 0)
(-3.92983e-10 -3.93351e-09 0)
(-1.8157e-10 -1.7812e-09 0)
(-6.87337e-09 9.85391e-08 0)
(4.90548e-09 2.86885e-09 0)
(2.83086e-10 -1.35539e-09 0)
(3.68635e-11 -1.97734e-09 0)
(9.69311e-11 -1.721e-09 0)
(1.01635e-11 -1.61348e-09 0)
(0 0 0)
(7.29304e-11 -1.94878e-09 0)
(0 0 0)
(0 0 0)
(0 0 0)
(0 0 0)
(-3.70812e-12 -2.01589e-09 0)
(-6.82181e-11 -4.88121e-09 0)
(0 0 0)
(0 0 0)
(0 0 0)
(-3.4158e-11 -2.03937e-09 0)
(1.7134e-12 -2.02769e-09 0)
(1.04775e-10 -2.0179e-09 0)
(1.00484e-10 -1.96996e-09 0)
(7.98858e-11 -1.96299e-09 0)
(6.36689e-11 -1.9333e-09 0)
(4.51313e-11 -1.85855e-09 0)
(2.31252e-11 -1.8412e-09 0)
(2.27303e-11 -1.9921e-09 0)
(8.19162e-11 -2.32658e-09 0)
(-1.63376e-11 -1.96104e-09 0)
(2.49445e-11 -6.12787e-10 0)
(2.59117e-11 -6.16415e-10 0)
(1.19242e-10 -1.73351e-09 0)
(2.71623e-10 -1.84588e-09 0)
(2.14804e-10 -1.98736e-09 0)
(1.49463e-10 -2.11297e-09 0)
(1.22611e-10 -2.11793e-09 0)
(8.55957e-11 -2.71017e-09 0)
(9.98019e-11 -3.14326e-09 0)
(5.71912e-11 -3.43942e-09 0)
(-4.16668e-11 -1.59709e-09 0)
(-5.78441e-11 -1.82389e-09 0)
(-5.38255e-11 -1.97318e-09 0)
(-1.60976e-11 -2.12445e-09 0)
(-1.26687e-11 -1.89834e-09 0)
(-6.67868e-11 -1.90799e-09 0)
(-1.90971e-10 -1.96339e-09 0)
(-2.89623e-10 -2.01513e-09 0)
(-2.10805e-10 -3.67726e-09 0)
(-5.06347e-11 -2.77307e-09 0)
(1.15584e-11 -2.94463e-09 0)
(-1.18205e-10 -2.00026e-09 0)
(0 0 0)
(-1.92669e-10 -1.86603e-09 0)
(-3.65582e-11 -1.82825e-09 0)
(1.70639e-11 -1.89046e-09 0)
(6.62645e-11 -1.87033e-09 0)
(4.82314e-11 -1.83168e-09 0)
(1.68963e-12 -2.57847e-09 0)
(-4.36224e-11 -3.24957e-09 0)
(-6.68238e-11 -1.82571e-09 0)
(-3.45419e-10 -4.61116e-09 0)
(-3.47275e-10 -4.38869e-09 0)
(-5.75507e-11 -2.14431e-09 0)
(0 0 0)
(6.33673e-11 -1.72811e-09 0)
(-9.32959e-12 -6.17355e-10 0)
(-1.12353e-11 -7.10439e-10 0)
(-4.92719e-11 -1.71832e-09 0)
(-1.51853e-11 -1.80859e-09 0)
(1.10005e-10 -4.99371e-09 0)
(3.5886e-11 -1.77613e-09 0)
(7.043e-11 -3.98033e-09 0)
(-1.79537e-11 -1.68452e-09 0)
(-1.04545e-10 -2.13461e-09 0)
(0 0 0)
(7.13647e-12 -1.84716e-09 0)
(5.89138e-09 7.84812e-08 0)
(3.36691e-09 4.16552e-09 0)
(2.19875e-10 -3.17309e-09 0)
(3.35129e-11 -2.95599e-09 0)
(-4.2278e-11 -1.75219e-09 0)
(7.75087e-12 -4.04724e-09 0)
(7.82517e-11 -1.68834e-09 0)
(5.97136e-11 -1.81364e-09 0)
(7.60434e-11 -1.9563e-09 0)
(3.8892e-11 -1.96083e-09 0)
(-1.12924e-11 -1.9469e-09 0)
(-1.30475e-10 -1.95732e-09 0)
(-3.16184e-10 -1.94611e-09 0)
(-3.21678e-11 -4.38091e-10 0)
(-2.15532e-10 -2.08036e-09 0)
(-1.43361e-10 -1.94438e-09 0)
(-1.34326e-10 -1.90693e-09 0)
(-1.18649e-10 -1.95414e-09 0)
(-3.18904e-12 -1.94408e-09 0)
(7.57582e-11 -1.97988e-09 0)
(8.05291e-11 -1.97891e-09 0)
(8.9231e-11 -1.98101e-09 0)
(9.11224e-11 -1.97367e-09 0)
(4.16805e-11 -2.00525e-09 0)
(-6.58576e-12 -1.91879e-09 0)
(-1.70173e-11 -1.84235e-09 0)
(7.95069e-11 -1.98343e-09 0)
(8.44789e-11 -1.7397e-09 0)
(2.8743e-10 -4.87572e-09 0)
(8.10216e-11 -1.77828e-09 0)
(1.89968e-10 -1.67339e-09 0)
(5.66352e-11 -1.7595e-09 0)
(1.39447e-10 -1.86799e-09 0)
(9.05245e-11 -4.95684e-09 0)
(1.77896e-10 -2.02307e-09 0)
(0 0 0)
(0 0 0)
(0 0 0)
(0 0 0)
(0 0 0)
(-6.0297e-11 -2.27204e-09 0)
(2.1189e-11 -1.81506e-09 0)
(1.31541e-10 -4.58172e-09 0)
(2.05643e-11 -1.69634e-09 0)
(0 0 0)
(4.48013e-11 -1.91857e-09 0)
(0 0 0)
(2.95191e-11 -7.39159e-10 0)
(-1.69413e-11 -3.22726e-09 0)
(-9.89244e-12 -1.36861e-09 0)
(-1.33585e-10 -1.74906e-09 0)
(-1.47724e-10 -1.82896e-09 0)
(-1.01844e-10 -1.90792e-09 0)
(-2.99236e-11 -2.04043e-09 0)
(-7.44263e-12 -1.85932e-09 0)
(-2.83144e-11 -1.77265e-09 0)
(-6.73525e-11 -1.7778e-09 0)
(-1.3066e-10 -4.76435e-09 0)
(-7.01381e-11 -2.13025e-09 0)
(-4.49628e-11 -9.3892e-10 0)
(-5.64634e-11 -1.21193e-09 0)
(-3.40352e-11 -1.61689e-09 0)
(4.39701e-11 -1.75213e-09 0)
(3.83461e-11 -1.59944e-09 0)
(-2.65734e-11 -1.88286e-09 0)
(1.77183e-11 -4.19177e-09 0)
(-7.81696e-11 -1.74568e-09 0)
(-1.18474e-10 -2.35222e-09 0)
(4.61286e-11 -4.0131e-09 0)
(1.17752e-10 -2.0066e-09 0)
(-2.62091e-11 -1.78325e-09 0)
(-1.46553e-11 -1.77865e-09 0)
(-5.79331e-11 -1.83059e-09 0)
(-1.37607e-11 -1.99499e-09 0)
(-3.4459e-11 -2.06764e-09 0)
(2.19366e-08 8.2781e-08 0)
(1.33657e-09 2.18475e-09 0)
(1.24354e-10 -2.43009e-09 0)
(0 0 0)
(5.97605e-11 -2.01763e-09 0)
(1.04581e-12 -7.42213e-11 0)
(4.51183e-11 -2.45993e-09 0)
(3.22828e-11 -3.08366e-09 0)
(4.61647e-11 -3.93134e-09 0)
(1.19558e-10 -3.80812e-09 0)
(3.43924e-11 -3.82778e-09 0)
(-9.38755e-11 -2.01456e-09 0)
(-2.19733e-10 -2.20372e-09 0)
(-6.12541e-11 -9.1304e-10 0)
(0 0 0)
(-1.34826e-10 -1.94948e-09 0)
(-1.23981e-10 -1.92114e-09 0)
(-3.24217e-11 -1.99021e-09 0)
(0 0 0)
(9.21115e-11 -1.82753e-09 0)
(6.19956e-11 -2.16767e-09 0)
(4.32016e-11 -1.71637e-09 0)
(1.11593e-10 -1.91506e-09 0)
(7.92275e-11 -2.1043e-09 0)
(1.89529e-11 -1.94827e-09 0)
(0 0 0)
(9.7242e-12 -2.05925e-09 0)
(1.02675e-10 -1.91642e-09 0)
(-1.48883e-12 -1.88086e-09 0)
(2.84604e-10 -3.12262e-09 0)
(5.93077e-12 -2.75731e-09 0)
(4.56306e-11 -1.73138e-09 0)
(1.59479e-10 -5.32884e-09 0)
(0 0 0)
(0 0 0)
(2.07627e-10 -1.87682e-09 0)
(1.95815e-10 -1.83068e-09 0)
(1.3178e-10 -1.76927e-09 0)
(1.32011e-10 -1.78019e-09 0)
(1.50862e-10 -4.81094e-09 0)
(-1.131e-10 -1.99117e-09 0)
(-9.08322e-12 -1.79216e-09 0)
(-3.40244e-11 -1.80582e-09 0)
(1.08859e-10 -4.68234e-09 0)
(1.20132e-11 -1.75695e-09 0)
(1.96626e-11 -1.78776e-09 0)
(-3.57233e-11 -1.66747e-09 0)
(-4.50306e-11 -3.66901e-09 0)
(3.08757e-11 -5.19777e-09 0)
(-1.69402e-12 -2.84943e-10 0)
(4.36172e-11 -2.06305e-09 0)
(-5.05624e-11 -1.91215e-09 0)
(4.25419e-12 -1.91013e-09 0)
(3.75301e-11 -1.94773e-09 0)
(3.68012e-12 -1.87413e-09 0)
(-3.51242e-11 -1.61779e-09 0)
(-6.99079e-11 -1.88545e-09 0)
(-2.14861e-10 -2.05528e-09 0)
(-2.82457e-10 -2.05371e-09 0)
(-7.76059e-11 -3.10962e-09 0)
(-9.53784e-12 -9.50269e-10 0)
(-3.09324e-11 -1.96083e-09 0)
(5.58781e-12 -1.95543e-09 0)
(-3.23804e-11 -1.9071e-09 0)
(-6.90885e-11 -1.8614e-09 0)
(-4.96823e-11 -1.95197e-09 0)
(-5.21521e-11 -1.98935e-09 0)
(0 0 0)
(-1.49893e-10 -4.51631e-09 0)
(8.98991e-11 -2.13467e-09 0)
(0 0 0)
(5.80975e-11 -3.15455e-09 0)
(-8.44959e-12 -1.52998e-09 0)
(-8.24255e-12 -1.22487e-09 0)
(9.40417e-11 -1.96515e-09 0)
(1.71112e-08 5.76522e-08 0)
(8.07495e-10 -2.92079e-10 0)
(-5.19082e-10 -1.56536e-09 0)
(1.40742e-10 -1.48171e-09 0)
(1.51628e-10 -4.33437e-09 0)
(2.10727e-12 -1.7723e-09 0)
(7.143e-11 -1.63663e-09 0)
(4.00263e-11 -8.11652e-10 0)
(2.17252e-11 -4.26955e-10 0)
(6.88584e-12 -1.69361e-10 0)
(7.80703e-11 -2.45028e-09 0)
(-1.5846e-10 -5.76239e-09 0)
(-2.22861e-11 -1.8787e-09 0)
(-1.3881e-11 -4.16324e-09 0)
(0 0 0)
(-6.09244e-11 -1.80034e-09 0)
(-3.04932e-11 -1.93117e-09 0)
(5.10482e-12 -1.84805e-09 0)
(1.05442e-10 -3.41174e-09 0)
(5.41557e-11 -2.55181e-09 0)
(-9.68755e-12 -1.88754e-09 0)
(-1.21352e-11 -1.92696e-09 0)
(2.09041e-11 -2.28965e-09 0)
(7.63682e-11 -2.13615e-09 0)
(1.39338e-10 -1.74737e-09 0)
(1.82987e-11 -1.62029e-09 0)
(8.52531e-11 -4.28674e-09 0)
(0 0 0)
(0 0 0)
(2.67847e-10 -4.84718e-09 0)
(1.17115e-10 -1.88272e-09 0)
(1.29941e-10 -1.86903e-09 0)
(0 0 0)
(1.57261e-10 -2.06958e-09 0)
(1.86448e-10 -1.88907e-09 0)
(1.64876e-10 -4.19815e-09 0)
(1.62863e-10 -1.68334e-09 0)
(8.07304e-11 -1.62855e-09 0)
(-7.93668e-11 -3.81429e-09 0)
(-8.4977e-11 -4.87237e-09 0)
(0 0 0)
(0 0 0)
(-3.98092e-11 -1.91401e-09 0)
(-6.767e-11 -2.14199e-09 0)
(-7.93059e-11 -2.11946e-09 0)
(1.46248e-11 -1.96053e-09 0)
(-3.10959e-11 -1.65242e-09 0)
(-9.86791e-12 -1.56978e-09 0)
(5.63893e-12 -2.16512e-09 0)
(0 0 0)
(3.72786e-11 -2.05179e-09 0)
(-5.23892e-11 -1.93833e-09 0)
(-2.43274e-11 -1.7329e-09 0)
(-9.54735e-11 -4.82754e-09 0)
(-7.49211e-11 -1.82162e-09 0)
(-1.37873e-10 -3.46173e-09 0)
(-1.49251e-10 -1.98838e-09 0)
(-1.9203e-10 -1.88249e-09 0)
(-9.57337e-11 -2.0384e-09 0)
(-9.44252e-11 -1.93074e-09 0)
(-5.42515e-11 -1.95166e-09 0)
(-5.2808e-11 -1.94658e-09 0)
(-6.35522e-12 -1.90863e-09 0)
(-1.93966e-11 -1.93403e-09 0)
(-4.1455e-11 -1.85498e-09 0)
(-7.60821e-12 -1.99561e-09 0)
(-3.26678e-12 -1.14034e-10 0)
(-4.73489e-11 -2.13173e-09 0)
(1.19966e-11 -1.38348e-09 0)
(-1.23659e-10 -2.08214e-09 0)
(-3.28591e-12 -2.02639e-09 0)
(7.13453e-11 -2.22259e-09 0)
(2.56443e-11 -1.04617e-09 0)
(9.94335e-11 -1.73717e-09 0)
(3.67532e-11 -3.10171e-09 0)
(-5.5555e-08 7.09702e-08 0)
(-1.76846e-09 3.8886e-09 0)
(-8.21308e-10 -7.51216e-10 0)
(0 0 0)
(1.12443e-10 -1.97031e-09 0)
(2.06341e-10 -1.96595e-09 0)
(0 0 0)
(1.31243e-10 -4.11504e-09 0)
(1.62611e-10 -2.93871e-09 0)
(2.07165e-10 -3.0338e-09 0)
(1.33888e-12 -1.77299e-09 0)
(-2.07084e-10 -1.63226e-09 0)
(-8.55376e-11 -1.96612e-09 0)
(1.11066e-10 -1.80834e-09 0)
(3.58872e-11 -2.05298e-09 0)
(0 0 0)
(0 0 0)
(0 0 0)
(0 0 0)
(5.31201e-11 -2.3018e-09 0)
(0 0 0)
(0 0 0)
(-6.02711e-11 -2.05161e-09 0)
(0 0 0)
(1.75487e-10 -2.06749e-09 0)
(3.03941e-10 -2.13194e-09 0)
(0 0 0)
(1.05881e-10 -1.83237e-09 0)
(2.27245e-12 -4.25675e-09 0)
(3.95271e-11 -4.47734e-09 0)
(1.38883e-10 -1.86341e-09 0)
(8.90348e-11 -1.89383e-09 0)
(7.07947e-11 -1.91038e-09 0)
(8.23152e-11 -1.89033e-09 0)
(1.19117e-10 -1.89522e-09 0)
(0 0 0)
(1.11093e-10 -1.80434e-09 0)
(-6.08508e-11 -2.81481e-09 0)
(-2.90574e-11 -6.43554e-10 0)
(-1.90044e-10 -4.18769e-09 0)
(1.44693e-10 -1.79508e-09 0)
(3.03079e-11 -1.88732e-09 0)
(-2.69409e-11 -1.77109e-09 0)
(-7.47124e-11 -2.36453e-09 0)
(0 0 0)
(3.23515e-11 -1.95725e-09 0)
(-1.95842e-11 -3.82961e-09 0)
(-1.19788e-10 -1.74856e-09 0)
(-1.50901e-10 -1.85254e-09 0)
(2.39753e-10 -5.28291e-09 0)
(5.12174e-11 -2.32517e-09 0)
(1.54096e-11 -8.07156e-10 0)
(-2.66939e-11 -1.83079e-09 0)
(-8.41476e-11 -2.93635e-09 0)
(4.91637e-11 -1.83577e-09 0)
(-1.83395e-11 -1.76795e-09 0)
(-2.5011e-11 -1.8145e-09 0)
(-3.87865e-11 -1.70002e-09 0)
(-8.91981e-11 -2.08485e-09 0)
(-8.03233e-11 -1.86385e-09 0)
(-5.93807e-11 -1.8205e-09 0)
(9.32557e-12 -1.82895e-09 0)
(5.3865e-11 -1.86354e-09 0)
(-5.14713e-11 -2.34601e-09 0)
(-9.50307e-11 -3.03269e-09 0)
(-7.42403e-12 -2.41642e-09 0)
(0 0 0)
(-3.96059e-12 -1.85464e-09 0)
(3.54195e-12 -2.00716e-09 0)
(0 0 0)
(6.198e-13 -2.01145e-09 0)
(-4.19878e-11 -2.01558e-09 0)
(5.08271e-11 -2.32857e-09 0)
(-5.77354e-12 -4.42022e-09 0)
(-6.39916e-11 -2.04502e-09 0)
(-1.78371e-08 8.20718e-08 0)
(-1.67096e-09 7.70488e-09 0)
(-5.37451e-10 5.10067e-10 0)
(-4.40592e-12 -1.83191e-09 0)
(1.75043e-10 -1.85914e-09 0)
(0 0 0)
(8.48224e-11 -1.78227e-09 0)
(3.52487e-11 -4.88597e-09 0)
(0 0 0)
(-2.00935e-11 -1.90136e-09 0)
(-7.43616e-11 -1.90392e-09 0)
(0 0 0)
(-4.11073e-11 -2.06826e-09 0)
(0 0 0)
(6.44865e-11 -4.29791e-09 0)
(2.7831e-11 -1.83213e-09 0)
(2.60819e-11 -1.79973e-09 0)
(6.23139e-11 -1.8369e-09 0)
(1.06471e-10 -1.89636e-09 0)
(1.79915e-10 -1.69317e-09 0)
(1.21405e-10 -4.9627e-09 0)
(0 0 0)
(0 0 0)
(2.13396e-11 -1.96708e-09 0)
(9.31331e-11 -1.77946e-09 0)
(6.64837e-11 -2.10235e-09 0)
(-3.47999e-11 -2.66097e-09 0)
(-6.15085e-11 -2.76761e-09 0)
(-4.94615e-11 -1.66748e-09 0)
(1.28465e-11 -1.77227e-09 0)
(0 0 0)
(0 0 0)
(1.43084e-10 -1.88849e-09 0)
(8.32758e-12 -2.45244e-09 0)
(-2.25352e-11 -1.37937e-09 0)
(6.5097e-11 -4.40321e-09 0)
(-8.87809e-11 -6.27158e-09 0)
(-5.09114e-11 -3.84041e-09 0)
(-1.21448e-10 -1.77424e-09 0)
(0 0 0)
(2.99645e-11 -2.97758e-09 0)
(1.09643e-11 -9.20435e-10 0)
(-1.07044e-10 -3.86554e-09 0)
(-7.93765e-11 -1.99756e-09 0)
(-2.93119e-11 -1.92127e-09 0)
(4.43837e-11 -2.92531e-09 0)
(-5.97462e-12 -6.89218e-10 0)
(-6.08249e-11 -1.86573e-09 0)
(-1.10682e-10 -1.97e-09 0)
(-1.14918e-10 -2.08044e-09 0)
(-2.15912e-12 -2.08621e-09 0)
(0 0 0)
(4.94697e-11 -2.06685e-09 0)
(-2.80356e-11 -1.89372e-09 0)
(2.4584e-11 -1.80087e-09 0)
(6.60246e-11 -1.82542e-09 0)
(-3.90308e-11 -1.92168e-09 0)
(1.01132e-11 -4.72464e-09 0)
(-3.41555e-11 -2.07228e-09 0)
(0 0 0)
(-4.51003e-11 -1.86871e-09 0)
(-1.25014e-10 -1.9216e-09 0)
(9.00383e-11 -4.91063e-09 0)
(-2.55948e-11 -1.84738e-09 0)
(-1.30315e-10 -1.7569e-09 0)
(-8.42277e-11 -1.69328e-09 0)
(-5.25307e-11 -1.81496e-09 0)
(-4.31489e-11 -1.91289e-09 0)
(3.50774e-11 -1.97531e-09 0)
(3.58582e-11 -2.10511e-09 0)
(-5.32754e-11 -2.08522e-09 0)
(0 0 0)
(-4.18376e-13 -3.13642e-09 0)
(7.75806e-12 -2.58682e-09 0)
(1.05858e-13 -2.75841e-09 0)
(1.6658e-09 9.3712e-08 0)
(-2.23466e-09 1.88445e-08 0)
(1.20826e-10 6.74899e-10 0)
(0 0 0)
(-6.87889e-11 -4.93298e-09 0)
(1.97889e-10 -1.97581e-09 0)
(9.83448e-11 -1.57918e-09 0)
(0 0 0)
(3.53495e-12 -6.29965e-11 0)
(1.14476e-10 -1.90204e-09 0)
(6.10597e-11 -1.97441e-09 0)
(-2.60016e-11 -2.01554e-09 0)
(0 0 0)
(0 0 0)
(0 0 0)
(3.4167e-11 -1.88132e-09 0)
(8.25349e-11 -1.96254e-09 0)
(4.40481e-11 -3.37983e-09 0)
(-9.80335e-12 -2.07596e-09 0)
(-6.7079e-11 -4.03467e-09 0)
(1.05744e-10 -1.73237e-09 0)
(2.42601e-10 -1.78605e-09 0)
(1.17059e-10 -4.63734e-09 0)
(3.12669e-11 -1.77377e-09 0)
(2.90327e-11 -1.64717e-09 0)
(1.52907e-11 -1.87439e-09 0)
(4.43756e-11 -2.08463e-09 0)
(4.96141e-12 -2.05423e-09 0)
(6.74365e-11 -1.75605e-09 0)
(1.01124e-10 -1.82007e-09 0)
(2.03713e-10 -4.36346e-09 0)
(7.97254e-11 -2.89278e-09 0)
(-6.73463e-11 -6.30729e-09 0)
(3.16621e-11 -1.61058e-09 0)
(-4.11945e-11 -1.66148e-09 0)
(-8.70098e-11 -1.80839e-09 0)
(-1.21608e-12 -3.02766e-10 0)
(9.30607e-13 -2.10732e-09 0)
(-2.44642e-12 -9.43866e-10 0)
(-3.45773e-11 -1.8824e-09 0)
(3.28302e-11 -2.06489e-09 0)
(-5.27531e-12 -1.92133e-09 0)
(0 0 0)
(1.79791e-11 -4.0149e-09 0)
(-3.97555e-11 -1.88322e-09 0)
(-3.60682e-11 -1.91214e-09 0)
(-2.52608e-11 -1.92614e-09 0)
(-6.04194e-11 -3.44822e-09 0)
(2.35217e-11 -1.49595e-09 0)
(1.69183e-11 -1.88036e-09 0)
(-1.22177e-11 -1.07255e-09 0)
(7.04552e-11 -4.5441e-09 0)
(1.78119e-12 -1.81608e-09 0)
(-1.34373e-11 -1.86313e-09 0)
(-5.6033e-11 -1.94935e-09 0)
(-2.83939e-11 -2.03885e-09 0)
(0 0 0)
(-8.12859e-11 -2.87414e-09 0)
(5.84791e-11 -3.0246e-09 0)
(5.71111e-11 -2.46295e-09 0)
(-5.50531e-11 -1.96085e-09 0)
(-8.42042e-11 -1.84901e-09 0)
(-9.60543e-11 -1.86834e-09 0)
(-2.92284e-11 -2.00618e-09 0)
(-1.05119e-11 -1.91385e-09 0)
(-4.40962e-11 -1.84457e-09 0)
(-1.95632e-11 -1.86287e-09 0)
(-5.27467e-12 -1.89256e-09 0)
(6.44115e-12 -1.90395e-09 0)
(8.92747e-12 -2.33964e-09 0)
(0 0 0)
(1.57315e-11 -1.96687e-09 0)
(-3.87655e-11 -1.92816e-09 0)
(-1.17397e-10 -1.97671e-09 0)
(-1.24633e-10 -2.1882e-09 0)
(1.30017e-08 8.77325e-08 0)
(-1.17543e-09 2.28055e-08 0)
(1.61572e-10 -3.94011e-10 0)
(0 0 0)
(1.09961e-11 -1.96692e-09 0)
(4.60332e-12 -1.75873e-09 0)
(1.04798e-10 -4.06072e-09 0)
(1.47474e-10 -1.90623e-09 0)
(1.42872e-10 -1.9994e-09 0)
(2.03132e-10 -1.98026e-09 0)
(1.58719e-10 -1.99043e-09 0)
(7.32794e-11 -2.01814e-09 0)
(9.84946e-12 -1.98161e-09 0)
(3.8785e-12 -2.35052e-09 0)
(-9.70823e-11 -3.66509e-09 0)
(-2.29366e-11 -1.80516e-09 0)
(1.0243e-11 -2.9311e-09 0)
(-1.3274e-11 -3.02865e-09 0)
(-7.19252e-12 -1.72665e-09 0)
(-2.9478e-11 -1.7165e-09 0)
(4.83504e-12 -2.667e-09 0)
(9.10002e-12 -3.52159e-09 0)
(8.86316e-11 -1.95082e-09 0)
(1.0077e-10 -1.85062e-09 0)
(2.69855e-11 -1.78952e-09 0)
(1.65367e-13 -2.29697e-09 0)
(4.85777e-13 -4.27722e-09 0)
(3.76526e-11 -1.81808e-09 0)
(1.42116e-11 -1.69543e-09 0)
(-2.5164e-11 -6.49992e-10 0)
(-7.28593e-11 -2.37616e-09 0)
(1.56728e-11 -2.8854e-09 0)
(0 0 0)
(1.21865e-10 -4.2196e-09 0)
(-1.97391e-11 -1.71727e-09 0)
(0 0 0)
(-6.53657e-11 -1.84414e-09 0)
(-3.77945e-11 -2.01416e-09 0)
(0 0 0)
(-9.02246e-12 -4.27931e-09 0)
(3.28782e-11 -1.90784e-09 0)
(2.46865e-11 -1.94041e-09 0)
(-3.72602e-11 -1.84059e-09 0)
(-3.49499e-11 -1.99548e-09 0)
(-2.57393e-11 -1.98562e-09 0)
(-1.95686e-11 -1.93388e-09 0)
(-1.70272e-11 -1.87409e-09 0)
(-3.6474e-11 -1.8559e-09 0)
(6.26453e-11 -1.9787e-09 0)
(1.3932e-11 -2.10202e-09 0)
(-9.8137e-12 -2.06251e-09 0)
(5.33354e-13 -1.93544e-09 0)
(-4.00236e-11 -1.79527e-09 0)
(-2.65233e-14 -1.91607e-09 0)
(-2.8676e-11 -1.96776e-09 0)
(4.67592e-13 -1.9603e-09 0)
(-1.91253e-11 -1.96265e-09 0)
(-7.57689e-11 -1.93292e-09 0)
(-1.42033e-10 -2.38153e-09 0)
(-1.45093e-10 -4.22566e-09 0)
(-2.52069e-12 -1.90342e-09 0)
(-3.83461e-11 -1.7479e-09 0)
(-5.07797e-11 -1.86613e-09 0)
(-1.0451e-11 -1.82628e-09 0)
(3.26669e-11 -1.80362e-09 0)
(1.27943e-11 -1.91022e-09 0)
(-4.05748e-11 -1.84957e-09 0)
(0 0 0)
(-5.4823e-11 -1.86335e-09 0)
(-2.19061e-11 -2.1762e-09 0)
(7.15355e-11 -2.13832e-09 0)
(5.55889e-12 -1.78105e-09 0)
(-2.46995e-11 -1.83606e-09 0)
(-5.40434e-11 -2.08848e-09 0)
(-2.34334e-13 -7.76196e-12 0)
(1.80587e-08 9.66551e-08 0)
(3.32635e-10 -1.79613e-09 0)
(-1.46399e-10 -3.87938e-09 0)
(0 0 0)
(5.24566e-11 -1.90319e-09 0)
(-1.65639e-11 -1.94168e-09 0)
(0 0 0)
(2.46822e-11 -3.01014e-09 0)
(2.69251e-10 -2.869e-09 0)
(1.83883e-10 -1.96222e-09 0)
(7.57702e-11 -4.64272e-09 0)
(3.35285e-11 -1.9506e-09 0)
(2.36404e-11 -1.77807e-09 0)
(-1.51677e-10 -4.11443e-09 0)
(-6.26488e-11 -1.73362e-09 0)
(-4.60667e-11 -1.61788e-09 0)
(-2.92458e-11 -1.85749e-09 0)
(-5.20033e-11 -1.87583e-09 0)
(-1.82148e-11 -3.47246e-09 0)
(2.77692e-11 -2.24748e-09 0)
(3.39709e-11 -1.7868e-09 0)
(6.71782e-11 -1.91245e-09 0)
(5.22118e-11 -1.92222e-09 0)
(1.36337e-10 -3.11797e-09 0)
(9.25971e-11 -3.01666e-09 0)
(-4.39794e-11 -1.78319e-09 0)
(-4.6484e-11 -1.91145e-09 0)
(2.70784e-11 -1.89194e-09 0)
(1.17236e-10 -3.05588e-09 0)
(-1.28627e-10 -2.53098e-09 0)
(-1.11324e-10 -1.97853e-09 0)
(-5.3701e-11 -2.10708e-09 0)
(6.3442e-11 -2.08502e-09 0)
(0 0 0)
(2.86084e-11 -1.89312e-09 0)
(-3.28923e-12 -1.75172e-09 0)
(5.9233e-11 -1.61346e-09 0)
(-1.71074e-11 -1.86347e-09 0)
(0 0 0)
(2.02499e-11 -1.99948e-09 0)
(7.05382e-11 -1.91071e-09 0)
(3.93215e-11 -1.97115e-09 0)
(-4.16611e-11 -1.99656e-09 0)
(-2.67549e-11 -1.93372e-09 0)
(-1.20781e-12 -1.91211e-09 0)
(4.64504e-12 -1.89407e-09 0)
(-5.12789e-12 -1.88815e-09 0)
(-1.51699e-11 -1.83593e-09 0)
(1.5024e-10 -4.75134e-09 0)
(8.42658e-12 -2.25067e-09 0)
(0 0 0)
(-5.23494e-11 -4.25389e-09 0)
(-6.53576e-12 -1.88821e-09 0)
(-2.16162e-11 -1.84949e-09 0)
(5.29663e-11 -1.91372e-09 0)
(1.06103e-11 -2.01943e-09 0)
(-1.2822e-10 -1.85764e-09 0)
(-8.96278e-11 -2.49551e-09 0)
(-5.93166e-11 -1.16548e-09 0)
(-1.19443e-10 -1.90707e-09 0)
(-1.09289e-10 -2.05063e-09 0)
(-1.17886e-11 -1.85411e-09 0)
(-3.28633e-11 -4.30042e-09 0)
(-6.38787e-11 -1.74389e-09 0)
(-1.1802e-11 -1.75988e-09 0)
(-1.32678e-11 -1.806e-09 0)
(8.06884e-12 -1.85845e-09 0)
(4.378e-11 -1.80085e-09 0)
(-3.85886e-11 -1.96595e-09 0)
(0 0 0)
(-2.69952e-10 -4.25101e-09 0)
(6.53973e-11 -1.97981e-09 0)
(0 0 0)
(-3.36104e-12 -2.18499e-09 0)
(-3.52417e-11 -2.25076e-09 0)
(3.47131e-09 9.62968e-08 0)
(4.85546e-10 2.52909e-09 0)
(-9.12695e-11 -1.1262e-09 0)
(1.46563e-10 -2.02805e-09 0)
(2.24599e-10 -1.95771e-09 0)
(0 0 0)
(2.41759e-10 -4.5007e-09 0)
(0 0 0)
(9.52564e-11 -1.95113e-09 0)
(-2.15967e-11 -1.82122e-09 0)
(-3.31492e-11 -3.56386e-09 0)
(8.1428e-11 -2.64167e-09 0)
(-1.23892e-12 -3.53123e-10 0)
(-6.13169e-12 -1.30272e-09 0)
(-3.72838e-11 -1.7144e-09 0)
(-1.62102e-12 -3.36768e-09 0)
(-1.11203e-12 -5.24185e-10 0)
(-3.12328e-11 -1.92439e-09 0)
(-1.5366e-11 -1.93407e-09 0)
(-2.02882e-11 -1.92941e-09 0)
(1.58074e-11 -2.13838e-09 0)
(3.51364e-11 -4.11899e-09 0)
(1.76419e-11 -1.91806e-09 0)
(3.32247e-11 -1.94857e-09 0)
(7.77897e-12 -1.95765e-09 0)
(7.86076e-12 -2.14104e-09 0)
(7.20758e-12 -2.08149e-09 0)
(2.68518e-11 -1.36943e-09 0)
(3.38181e-12 -2.09517e-09 0)
(-1.42708e-10 -2.16468e-09 0)
(-1.12404e-10 -1.93039e-09 0)
(-6.5581e-11 -1.93653e-09 0)
(3.87252e-11 -2.00853e-09 0)
(9.38951e-11 -2.04539e-09 0)
(0 0 0)
(0 0 0)
(3.25413e-11 -1.92375e-09 0)
(1.22391e-11 -1.03117e-09 0)
(1.35718e-12 -1.11993e-10 0)
(0 0 0)
(4.12497e-11 -1.99457e-09 0)
(-3.32581e-12 -2.08675e-09 0)
(3.71847e-11 -1.85712e-09 0)
(-3.18454e-11 -1.7945e-09 0)
(-2.97924e-11 -1.83419e-09 0)
(-4.71495e-11 -1.91621e-09 0)
(-4.37557e-12 -1.91774e-09 0)
(-1.68654e-11 -1.97654e-09 0)
(-4.66874e-11 -2.13936e-09 0)
(-4.43158e-12 -7.04216e-10 0)
(-3.07909e-12 -7.98093e-10 0)
(6.77989e-11 -1.87111e-09 0)
(2.28212e-11 -1.96136e-09 0)
(-2.67209e-11 -1.94047e-09 0)
(-2.12997e-10 -4.51393e-09 0)
(-4.8915e-11 -3.99123e-09 0)
(1.49589e-10 -1.8206e-09 0)
(-3.32602e-11 -1.96577e-09 0)
(-7.38762e-11 -1.95155e-09 0)
(-1.05274e-10 -1.90442e-09 0)
(-1.07908e-10 -1.94867e-09 0)
(-9.33212e-11 -1.90081e-09 0)
(-2.19228e-10 -4.7454e-09 0)
(-2.87129e-11 -1.72779e-09 0)
(-2.39466e-11 -1.72169e-09 0)
(-1.78522e-11 -1.78032e-09 0)
(-4.10591e-11 -1.84571e-09 0)
(-5.6785e-12 -4.48558e-09 0)
(-3.70594e-11 -1.82441e-09 0)
(-2.85715e-11 -1.73731e-09 0)
(-2.86765e-11 -1.78892e-09 0)
(5.74899e-11 -1.97248e-09 0)
(2.21913e-11 -2.1688e-09 0)
(2.45713e-11 -2.12645e-09 0)
(7.07103e-11 -2.16199e-09 0)
(-1.4034e-08 1.03281e-07 0)
(-8.3157e-10 7.15133e-09 0)
(-1.71133e-10 -1.46272e-09 0)
(7.07795e-11 -1.90421e-09 0)
(3.91392e-11 -1.94452e-09 0)
(2.97952e-11 -1.92444e-09 0)
(-5.2325e-11 -1.74251e-09 0)
(7.88114e-11 -1.84806e-09 0)
(-3.60287e-11 -1.98079e-09 0)
(-2.88563e-11 -1.92609e-09 0)
(-2.59311e-11 -2.06253e-09 0)
(-3.7604e-11 -1.963e-09 0)
(6.38379e-11 -1.87284e-09 0)
(5.80749e-11 -1.95e-09 0)
(-1.94865e-11 -1.93924e-09 0)
(1.0122e-11 -2.09283e-09 0)
(0 0 0)
(-6.92203e-12 -1.93239e-09 0)
(1.81152e-11 -1.9505e-09 0)
(2.4492e-11 -1.93568e-09 0)
(7.4461e-11 -1.93123e-09 0)
(2.73658e-11 -1.90956e-09 0)
(3.07618e-11 -1.93093e-09 0)
(1.93906e-11 -2.03868e-09 0)
(1.42566e-11 -1.99699e-09 0)
(2.62436e-12 -2.86744e-09 0)
(1.49046e-11 -3.11143e-09 0)
(1.47123e-11 -1.9374e-09 0)
(-1.14807e-11 -2.30832e-09 0)
(0 0 0)
(-8.45485e-11 -1.97352e-09 0)
(-2.92168e-11 -1.93035e-09 0)
(3.87086e-11 -1.96696e-09 0)
(8.00495e-11 -2.32511e-09 0)
(0 0 0)
(6.99635e-11 -1.81888e-09 0)
(8.56506e-11 -1.88789e-09 0)
(1.32997e-10 -2.01123e-09 0)
(1.19359e-10 -2.02528e-09 0)
(5.65894e-11 -1.92887e-09 0)
(1.97895e-11 -1.95812e-09 0)
(-1.15435e-10 -4.27719e-09 0)
(-4.53908e-11 -1.82673e-09 0)
(-2.14324e-11 -1.90268e-09 0)
(-1.22786e-12 -1.95093e-09 0)
(0 0 0)
(8.50483e-12 -2.08406e-09 0)
(5.3293e-11 -1.84138e-09 0)
(9.09098e-11 -2.05512e-09 0)
(-2.55997e-11 -2.10566e-09 0)
(9.60941e-13 -1.93681e-09 0)
(2.28374e-11 -2.03136e-09 0)
(-4.20611e-11 -2.07503e-09 0)
(-1.06311e-10 -2.0866e-09 0)