/*--------------------------------*- C++ -*----------------------------------*\
  =========                 |
  \\      /  F ield         | OpenFOAM: The Open Source CFD Toolbox
   \\    /   O peration     | Website:  https://openfoam.org
    \\  /    A nd           | Version:  12
     \\/     M anipulation  |
\*---------------------------------------------------------------------------*/
FoamFile
{
    format      ascii;
    class       volScalarField;
    location    "0.55";
    object      p;
}
// * * * * * * * * * * * * * * * * * * * * * * * * * * * * * * * * * * * * * //

dimensions      [0 2 -2 0 0 0 0];

internalField   nonuniform List<scalar> 
3750
(
1.51116
1.49912
1.48909
1.48066
1.46986
1.45659
1.44461
1.44306
1.43488
1.42495
1.40526
1.39677
1.38722
1.37756
1.36782
1.35839
1.34977
1.33224
1.32445
1.31479
1.30398
1.30641
1.29934
1.28302
1.27104
1.26057
1.25127
1.24204
1.23187
1.22404
1.21602
1.19754
1.1886
1.17922
1.16878
1.15602
1.15453
1.13598
1.12652
1.1166
1.10686
1.09734
1.08814
1.07908
1.07024
1.06139
1.05213
1.04218
1.03229
1.02256
1.01286
1.00119
0.991741
0.981067
0.971973
0.962489
0.953309
0.944189
0.934933
0.925758
0.916648
0.906704
0.89644
0.885749
0.873604
0.861842
0.852421
0.84399
0.825757
0.817914
0.812035
0.798362
0.788096
0.776801
0.766679
1.51049
1.49941
1.4874
1.48192
1.47145
1.45886
1.44837
1.43459
1.43428
1.4221
1.4072
1.39694
1.38728
1.37751
1.36749
1.35761
1.34644
1.33467
1.32634
1.31734
1.30749
1.30065
1.30074
1.28214
1.26971
1.25978
1.25129
1.24382
1.23728
1.22478
1.21414
1.20041
1.18881
1.1795
1.17117
1.16143
1.15596
1.14
1.1272
1.11642
1.10672
1.09707
1.08792
1.07893
1.07014
1.06182
1.05275
1.0421
1.03212
1.02282
1.01486
0.999
0.99278
0.979965
0.972417
0.963054
0.953412
0.943835
0.934682
0.925471
0.91643
0.906864
0.896817
0.887284
0.876346
0.859603
0.851095
0.841493
0.828124
0.815739
0.813383
0.800807
0.788608
0.777089
0.768814
1.5122
1.50363
1.49012
1.47859
1.47348
1.45934
1.44489
1.43651
1.43238
1.4198
1.40622
1.39673
1.38708
1.37781
1.36716
1.35808
1.34436
1.33436
1.32781
1.32072
1.30825
1.30074
1.29511
1.28262
1.26885
1.25949
1.25107
1.24383
1.23633
1.22443
1.21578
1.20112
1.18686
1.17839
1.17288
1.16361
1.15384
1.1418
1.12608
1.11548
1.10645
1.09632
1.08746
1.07852
1.06987
1.06314
1.05402
1.04135
1.03162
1.02271
1.012
0.99951
0.989298
0.984556
0.974137
0.964209
0.953492
0.94377
0.934757
0.925569
0.91567
0.90585
0.896852
0.890118
0.874904
0.860838
0.85066
0.841641
0.830337
0.8156
0.810752
0.800837
0.788936
0.776685
0.767541
1.51075
1.50075
1.4905
1.4812
1.47201
1.46024
1.44765
1.43717
1.42699
1.42347
1.4055
1.39619
1.38662
1.37885
1.36592
1.3578
1.34679
1.33852
1.32209
1.32216
1.30962
1.30007
1.29248
1.28051
1.26757
1.25848
1.24963
1.24415
1.23641
1.22476
1.21201
1.20146
1.19144
1.17538
1.17505
1.16526
1.15427
1.14354
1.12436
1.11335
1.10755
1.0941
1.0868
1.07825
1.06849
1.06547
1.05429
1.04285
1.03031
1.02455
1.01049
0.999067
0.990997
0.98425
0.974183
0.965779
0.953094
0.942982
0.934955
0.926542
0.915705
0.90098
0.900789
0.890034
0.878136
0.858623
0.849319
0.839204
0.82794
0.819901
0.810259
0.800902
0.788094
0.778032
0.770236
1.50923
1.49916
1.48906
1.48381
1.47318
1.46169
1.44836
1.43767
1.42787
1.41947
1.4072
1.39608
1.38501
1.37475
1.37041
1.35923
1.34813
1.33776
1.32624
1.31929
1.30912
1.29907
1.28996
1.27901
1.26779
1.25761
1.24706
1.2452
1.23793
1.22342
1.2121
1.20129
1.19046
1.17939
1.17549
1.16805
1.15202
1.13992
1.12491
1.11439
1.10527
1.09638
1.08747
1.08068
1.07169
1.06462
1.05437
1.04573
1.02783
1.0221
1.01232
1.00195
0.992964
0.984612
0.973781
0.965463
0.956015
0.940177
0.935745
0.930586
0.909772
0.904852
0.902499
0.889608
0.876284
0.858316
0.849076
0.837756
0.824207
0.822546
0.809398
0.800011
0.786206
0.781604
0.769565
1.50697
1.4985
1.49374
1.48239
1.47194
1.46513
1.44777
1.43799
1.42795
1.41793
1.40657
1.39544
1.38557
1.37497
1.36916
1.35953
1.34899
1.33852
1.32819
1.31845
1.30838
1.29708
1.28769
1.2783
1.26846
1.25767
1.24755
1.24219
1.2328
1.22681
1.21295
1.20129
1.19006
1.18022
1.17658
1.16619
1.15279
1.1395
1.126
1.11416
1.10383
1.09902
1.08604
1.08297
1.07438
1.06449
1.05424
1.04419
1.02403
1.02257
1.0144
1.00404
0.994153
0.985347
0.97315
0.964907
0.953611
0.939643
0.937317
0.936261
0.916314
0.905933
0.897412
0.883677
0.873419
0.861311
0.850989
0.839495
0.820265
0.820103
0.81087
0.800869
0.789066
0.779216
0.769724
1.50375
1.49519
1.49162
1.48614
1.47513
1.46749
1.45137
1.43706
1.42785
1.41797
1.40571
1.39344
1.38691
1.38327
1.37053
1.36014
1.34966
1.33916
1.32915
1.31817
1.30895
1.29327
1.28502
1.2781
1.27071
1.25843
1.24651
1.24249
1.23288
1.22564
1.21094
1.20106
1.18891
1.18432
1.17496
1.16402
1.15197
1.1394
1.12598
1.11291
1.11
1.09821
1.08791
1.07854
1.07637
1.06475
1.05409
1.04061
1.02585
1.02888
1.01654
1.00564
0.994315
0.983594
0.975354
0.96601
0.953807
0.943644
0.937638
0.932991
0.914467
0.905344
0.895774
0.884794
0.873867
0.862775
0.853022
0.8369
0.824843
0.81422
0.812351
0.803866
0.791543
0.774741
0.765156
1.49996
1.49101
1.49908
1.48278
1.47409
1.46455
1.45295
1.44344
1.4286
1.42051
1.40523
1.38779
1.38701
1.38493
1.36947
1.36089
1.35031
1.33975
1.33101
1.31475
1.30571
1.29468
1.28258
1.27841
1.2741
1.25881
1.24871
1.24103
1.2307
1.21906
1.21438
1.20295
1.19166
1.18359
1.17364
1.16296
1.1516
1.14031
1.12648
1.11407
1.11202
1.09931
1.0886
1.07787
1.07419
1.06472
1.05478
1.03985
1.02515
1.02429
1.01621
1.0079
0.994375
0.979922
0.978572
0.969816
0.952588
0.944328
0.936592
0.928383
0.915201
0.904994
0.895437
0.886109
0.874544
0.862968
0.85418
0.837741
0.822856
0.815023
0.809622
0.799847
0.79611
0.775269
0.759716
1.5171
1.50401
1.49258
1.48337
1.47396
1.46362
1.45259
1.44252
1.435
1.41795
1.40705
1.39416
1.38814
1.38035
1.36773
1.36324
1.35104
1.3393
1.32734
1.31286
1.30709
1.29717
1.28634
1.2787
1.26993
1.25916
1.25071
1.24113
1.23007
1.21809
1.21455
1.20362
1.19291
1.18402
1.17299
1.16257
1.15077
1.14381
1.12634
1.11708
1.11021
1.09892
1.08939
1.07632
1.07481
1.06465
1.05236
1.0402
1.02781
1.01789
1.01525
1.01373
0.995362
0.976702
0.977097
0.967258
0.954744
0.944241
0.936566
0.927756
0.913612
0.904011
0.894731
0.889684
0.875118
0.860629
0.84898
0.83775
0.826182
0.817118
0.809546
0.799962
0.793403
0.771212
0.765664
1.53091
1.50617
1.4938
1.48415
1.47465
1.46356
1.45135
1.43988
1.43627
1.42134
1.41113
1.39771
1.39036
1.37845
1.36874
1.36137
1.3509
1.33948
1.32642
1.31398
1.30248
1.2985
1.28773
1.28027
1.2682
1.2561
1.25302
1.24248
1.23131
1.21969
1.20984
1.2025
1.19219
1.18735
1.17173
1.16415
1.14616
1.14411
1.12987
1.11853
1.11175
1.09678
1.0879
1.07824
1.07279
1.06599
1.04977
1.04093
1.02973
1.01945
1.01264
1.00705
0.997428
0.979802
0.974435
0.965574
0.954955
0.943091
0.937426
0.925135
0.913507
0.902853
0.891835
0.888325
0.875096
0.862185
0.849536
0.838093
0.827136
0.817352
0.811437
0.800218
0.793138
0.776101
0.76369
1.53755
1.50057
1.49305
1.48494
1.47677
1.46549
1.45
1.44196
1.436
1.41956
1.4107
1.4006
1.39136
1.38055
1.36934
1.36072
1.35153
1.34132
1.32505
1.31605
1.30273
1.29394
1.28601
1.28399
1.26865
1.25812
1.24943
1.24391
1.23207
1.21982
1.20433
1.20264
1.18742
1.18739
1.17474
1.1639
1.15374
1.14247
1.12946
1.11573
1.10894
1.09978
1.08769
1.07948
1.07112
1.06261
1.05192
1.04424
1.03093
1.02011
1.00908
1.00321
0.994785
0.983256
0.974211
0.965306
0.956694
0.948235
0.935176
0.918733
0.91309
0.90298
0.893376
0.885424
0.874286
0.86259
0.850781
0.838093
0.827042
0.815495
0.811352
0.801444
0.790846
0.778144
0.766254
1.53209
1.49877
1.49237
1.48635
1.47711
1.46536
1.45364
1.44388
1.43326
1.42224
1.4109
1.40324
1.39316
1.38459
1.36754
1.36067
1.35317
1.33735
1.32829
1.31777
1.30638
1.28903
1.28914
1.28269
1.27043
1.26068
1.24408
1.24401
1.23204
1.22021
1.20527
1.19255
1.19254
1.18537
1.17559
1.16359
1.15174
1.14066
1.12919
1.11798
1.10873
1.09932
1.08907
1.08012
1.07092
1.06136
1.05109
1.04076
1.02924
1.02079
1.01281
1.00354
0.994355
0.984096
0.974631
0.96583
0.957169
0.946339
0.934672
0.915615
0.914545
0.902428
0.893967
0.8835
0.873444
0.862585
0.85221
0.837738
0.828015
0.818
0.806167
0.802551
0.790533
0.780158
0.772621
1.51776
1.50099
1.49303
1.48869
1.47713
1.46552
1.45553
1.44668
1.43082
1.42554
1.40807
1.40451
1.39432
1.38414
1.36976
1.36155
1.35032
1.33959
1.33183
1.31683
1.30536
1.29415
1.28825
1.28319
1.26921
1.25857
1.24742
1.2399
1.23176
1.21537
1.20608
1.19655
1.19104
1.1831
1.17559
1.16342
1.15095
1.13999
1.12843
1.1183
1.10857
1.09896
1.0911
1.08108
1.07081
1.06087
1.05049
1.03922
1.02625
1.02124
1.0158
1.00385
0.994147
0.983905
0.973794
0.966923
0.959761
0.945276
0.929618
0.919164
0.912316
0.90211
0.893644
0.884152
0.873254
0.862852
0.851751
0.837405
0.829386
0.81894
0.807136
0.799136
0.788283
0.779989
0.772534
1.51199
1.49695
1.49618
1.48718
1.47692
1.46575
1.4547
1.44397
1.43102
1.42705
1.41509
1.39819
1.39836
1.38146
1.37208
1.36435
1.34723
1.33902
1.33001
1.31955
1.31037
1.29546
1.28594
1.27987
1.27131
1.26324
1.2483
1.23379
1.22642
1.21776
1.20821
1.19845
1.1899
1.18129
1.17481
1.16344
1.15261
1.14101
1.12621
1.11814
1.10833
1.09771
1.09359
1.08204
1.07062
1.06078
1.05068
1.03904
1.03031
1.02316
1.01068
1.00235
0.993613
0.983754
0.971775
0.967178
0.956961
0.945348
0.931867
0.919927
0.91103
0.901636
0.89115
0.887641
0.873403
0.863784
0.854006
0.834254
0.832176
0.820419
0.808446
0.797289
0.78461
0.779567
0.77292
1.51456
1.49824
1.49424
1.48675
1.47755
1.46559
1.45386
1.44399
1.43368
1.42632
1.41616
1.39848
1.39288
1.38249
1.37354
1.36301
1.34859
1.33944
1.3299
1.31983
1.30956
1.29802
1.28692
1.27903
1.27101
1.26351
1.24679
1.23379
1.2251
1.22049
1.20938
1.19921
1.1893
1.17881
1.17443
1.16262
1.15134
1.13926
1.12954
1.11981
1.11012
1.10101
1.09351
1.08183
1.06966
1.06074
1.05259
1.03684
1.02974
1.02296
1.01171
1.00092
0.994088
0.985338
0.974447
0.962225
0.954931
0.947323
0.932652
0.917746
0.909364
0.90274
0.893888
0.886028
0.874171
0.864313
0.853518
0.839775
0.831682
0.820751
0.809371
0.798644
0.788301
0.780285
0.771869
1.52356
1.5047
1.49546
1.48793
1.48066
1.46354
1.45469
1.44468
1.43539
1.42671
1.41273
1.40132
1.39147
1.38204
1.37716
1.36097
1.34977
1.3398
1.33008
1.32012
1.30968
1.29778
1.2865
1.2781
1.26999
1.26096
1.24895
1.23672
1.22854
1.21783
1.20939
1.1996
1.18957
1.18037
1.17
1.16081
1.15045
1.13652
1.13146
1.12104
1.1119
1.10523
1.09548
1.08171
1.06633
1.05906
1.04945
1.03798
1.02767
1.02617
1.01257
0.998743
0.995673
0.983204
0.972489
0.962418
0.953493
0.943586
0.933702
0.921269
0.908728
0.905139
0.895892
0.885553
0.875046
0.864905
0.854954
0.841232
0.832444
0.821043
0.809054
0.800022
0.79151
0.782347
0.771906
1.52015
1.51042
1.49787
1.4891
1.48085
1.46157
1.45988
1.44592
1.43618
1.42696
1.41252
1.40222
1.39023
1.37903
1.37602
1.3645
1.35087
1.34005
1.33033
1.32097
1.31125
1.29569
1.28437
1.27666
1.27045
1.26096
1.24995
1.23842
1.22604
1.22109
1.21011
1.19981
1.18974
1.17993
1.16917
1.15982
1.1521
1.13646
1.12821
1.12082
1.11191
1.10184
1.09765
1.08462
1.06713
1.05931
1.04848
1.03876
1.02736
1.02584
1.01246
1.00108
0.996059
0.978678
0.970495
0.961964
0.953436
0.941624
0.936022
0.92274
0.910477
0.905135
0.896626
0.885142
0.875689
0.865291
0.854625
0.84405
0.836335
0.821619
0.805157
0.800848
0.79488
0.784351
0.771785
1.5321
1.51357
1.50052
1.48954
1.47927
1.46748
1.46014
1.44837
1.43613
1.42609
1.41441
1.40428
1.39001
1.38011
1.37158
1.36837
1.34898
1.33948
1.3304
1.32217
1.3063
1.29692
1.28557
1.27458
1.27138
1.26219
1.25147
1.24207
1.22541
1.2194
1.21015
1.19998
1.18954
1.17908
1.16807
1.15809
1.14866
1.13763
1.12795
1.12189
1.11267
1.10294
1.09491
1.08313
1.07061
1.06071
1.04794
1.04038
1.02858
1.02376
1.01084
1.00185
0.994361
0.977041
0.96883
0.96172
0.957037
0.944127
0.933486
0.92014
0.913682
0.905573
0.896766
0.883873
0.877331
0.86586
0.854256
0.844251
0.83502
0.82448
0.804583
0.803364
0.801093
0.78333
0.773063
1.52476
1.51381
1.50194
1.48977
1.47908
1.47064
1.46105
1.45152
1.43421
1.42537
1.41503
1.40397
1.39153
1.38172
1.37237
1.36318
1.34947
1.33876
1.32904
1.31853
1.30694
1.29892
1.28794
1.27673
1.26725
1.26316
1.25115
1.24061
1.22773
1.22057
1.21066
1.19991
1.18926
1.17849
1.16658
1.15676
1.14656
1.13593
1.12802
1.12488
1.11391
1.10345
1.09328
1.08234
1.07129
1.05973
1.04911
1.04001
1.03015
1.02194
1.01006
1.00093
0.990957
0.978544
0.96688
0.960427
0.962761
0.945255
0.929207
0.91803
0.917333
0.906818
0.897205
0.883879
0.88214
0.866502
0.852175
0.843699
0.835199
0.824989
0.812001
0.806447
0.795541
0.785791
0.77645
1.51575
1.51271
1.50376
1.49025
1.47897
1.47245
1.46158
1.44988
1.43585
1.42574
1.41605
1.4042
1.39202
1.38299
1.37535
1.36004
1.34768
1.33814
1.32791
1.317
1.3058
1.3021
1.29066
1.27948
1.26841
1.25821
1.2496
1.24158
1.22854
1.22332
1.2113
1.20011
1.18861
1.17871
1.16461
1.15366
1.14564
1.13554
1.13222
1.12398
1.11362
1.10343
1.09246
1.08152
1.07165
1.05862
1.04904
1.03936
1.03011
1.02386
1.00804
1.00008
0.990002
0.979732
0.97011
0.963046
0.957353
0.94428
0.930671
0.921605
0.916131
0.907861
0.900755
0.8866
0.87371
0.865361
0.854095
0.845183
0.837257
0.828486
0.81295
0.807836
0.791893
0.786158
0.774857
1.51687
1.50883
1.50566
1.49149
1.48365
1.46938
1.46115
1.45058
1.43365
1.42571
1.41757
1.40479
1.39212
1.38297
1.37333
1.36149
1.34902
1.33821
1.32714
1.31579
1.30829
1.30356
1.29301
1.28214
1.27131
1.25208
1.2488
1.24148
1.23428
1.22089
1.21077
1.19943
1.18676
1.17848
1.16568
1.14986
1.14479
1.13853
1.13261
1.12332
1.11368
1.10406
1.09175
1.07966
1.06976
1.05882
1.0491
1.03876
1.0276
1.02246
1.00941
0.999869
0.989831
0.980555
0.971299
0.963116
0.953729
0.94215
0.932005
0.922634
0.915169
0.906781
0.899829
0.888416
0.874241
0.865815
0.852214
0.849498
0.839828
0.826256
0.815885
0.807458
0.791711
0.782274
0.77543
1.51914
1.51062
1.50135
1.49187
1.48192
1.47061
1.46098
1.44662
1.43456
1.42659
1.41874
1.40544
1.39304
1.38209
1.3737
1.36212
1.35017
1.33867
1.32696
1.3138
1.30957
1.30606
1.29429
1.28311
1.27013
1.25711
1.25203
1.24003
1.2308
1.21978
1.21025
1.20024
1.18157
1.17905
1.1649
1.15188
1.13699
1.13705
1.13564
1.12318
1.1147
1.10653
1.09082
1.07545
1.06782
1.05883
1.04989
1.03937
1.03102
1.01707
1.0078
0.997163
0.99285
0.981058
0.970561
0.964015
0.953127
0.938998
0.932759
0.923106
0.915868
0.904819
0.900892
0.887586
0.876021
0.865821
0.855141
0.848615
0.83617
0.833217
0.816794
0.801645
0.791996
0.782129
0.773191
1.5193
1.50911
1.50037
1.4922
1.48135
1.47046
1.46008
1.44666
1.43304
1.42672
1.42072
1.40656
1.39344
1.38059
1.37503
1.36284
1.35088
1.33944
1.32812
1.31747
1.31015
1.30164
1.29569
1.28598
1.2694
1.25781
1.25026
1.24084
1.2301
1.21859
1.21071
1.19744
1.1844
1.17775
1.16113
1.14843
1.14029
1.13466
1.13167
1.12474
1.1152
1.10334
1.08936
1.07613
1.06767
1.05879
1.05236
1.0398
1.03004
1.01816
1.00773
0.999739
0.992134
0.980784
0.969043
0.967379
0.945105
0.94057
0.936194
0.921834
0.918754
0.906797
0.898533
0.886971
0.876405
0.866576
0.857003
0.848018
0.837528
0.829137
0.815773
0.802641
0.791888
0.781955
0.772737
1.5206
1.50937
1.49911
1.49468
1.48066
1.46967
1.4607
1.44868
1.437
1.42671
1.41757
1.40666
1.39504
1.38304
1.37324
1.36241
1.3512
1.34013
1.32938
1.31963
1.31224
1.29609
1.29603
1.28304
1.27126
1.25991
1.25054
1.24083
1.23187
1.21457
1.21443
1.19447
1.18323
1.1732
1.1604
1.14788
1.14236
1.13024
1.12854
1.12651
1.1154
1.10206
1.08767
1.07482
1.06706
1.05794
1.05429
1.04151
1.03024
1.01829
1.0062
1.00267
0.991981
0.98096
0.971299
0.964795
0.945938
0.941942
0.934683
0.924069
0.916422
0.906139
0.896132
0.885872
0.876228
0.867083
0.858484
0.849314
0.839188
0.827357
0.814346
0.801547
0.791004
0.781012
0.771652
1.52157
1.51026
1.50089
1.49418
1.48057
1.46754
1.46238
1.45079
1.43969
1.42407
1.41637
1.40726
1.39864
1.38272
1.37081
1.36193
1.3513
1.34049
1.32965
1.31965
1.31185
1.2986
1.29453
1.28094
1.27189
1.26108
1.2508
1.2406
1.2301
1.21831
1.21229
1.19482
1.18121
1.17181
1.16116
1.15211
1.13769
1.13022
1.12571
1.12229
1.11288
1.10235
1.08464
1.07514
1.06874
1.06005
1.05408
1.04209
1.03096
1.01919
1.00932
1.00144
0.991137
0.981357
0.971066
0.961174
0.948785
0.945653
0.933767
0.92395
0.914252
0.90429
0.894064
0.884351
0.875528
0.867007
0.860572
0.851524
0.842735
0.826842
0.811173
0.798712
0.789542
0.77948
0.770628
1.52384
1.51293
1.5014
1.49843
1.48057
1.46932
1.46015
1.45137
1.43417
1.42438
1.41763
1.40784
1.39699
1.38434
1.37228
1.362
1.35143
1.34062
1.32962
1.31886
1.31508
1.30207
1.29109
1.27735
1.27328
1.26173
1.25104
1.24078
1.23053
1.2186
1.20916
1.19486
1.18118
1.17139
1.16119
1.15087
1.13773
1.13033
1.12161
1.12071
1.10928
1.09711
1.08592
1.07656
1.0719
1.06023
1.05578
1.04191
1.03208
1.01863
1.01141
1.00147
0.990823
0.98067
0.970466
0.960881
0.952379
0.948011
0.931128
0.922287
0.912883
0.902332
0.891712
0.881632
0.874736
0.867199
0.864303
0.853328
0.840679
0.826012
0.8117
0.7994
0.788083
0.777295
0.775852
1.52531
1.51432
1.50387
1.49647
1.48501
1.47279
1.45695
1.44767
1.43525
1.42277
1.4199
1.4092
1.39716
1.38501
1.37325
1.36233
1.3518
1.34147
1.33137
1.32211
1.31637
1.30024
1.28984
1.27892
1.27141
1.2614
1.2511
1.24097
1.23241
1.21624
1.20842
1.19088
1.18258
1.17173
1.16139
1.15192
1.13308
1.13059
1.12168
1.11926
1.10652
1.09173
1.08459
1.08148
1.07226
1.0618
1.05418
1.04275
1.03151
1.01833
1.0154
1.00218
0.990611
0.979867
0.968969
0.960013
0.95348
0.948783
0.933219
0.920298
0.91251
0.900456
0.889336
0.877581
0.875335
0.872658
0.864346
0.856172
0.840734
0.823182
0.809214
0.800665
0.788204
0.777564
0.776348
1.52819
1.5157
1.5041
1.49641
1.48377
1.4708
1.45897
1.44873
1.43718
1.42352
1.41987
1.40945
1.39749
1.38529
1.37341
1.3624
1.352
1.34216
1.33279
1.32288
1.31322
1.30138
1.29065
1.2803
1.27059
1.26086
1.251
1.23964
1.22958
1.21794
1.20594
1.19012
1.18544
1.17158
1.16049
1.14987
1.13657
1.13032
1.12226
1.11527
1.10523
1.09503
1.07962
1.08032
1.07219
1.06078
1.05369
1.04343
1.03194
1.01971
1.01717
1.00248
0.991038
0.977981
0.965573
0.958938
0.960377
0.948679
0.933911
0.915891
0.916239
0.89772
0.88804
0.877763
0.877167
0.86889
0.862835
0.85353
0.843065
0.825094
0.807313
0.805071
0.788004
0.780615
0.775053
1.53434
1.5189
1.50835
1.49212
1.48143
1.46906
1.45959
1.4511
1.4408
1.42725
1.41707
1.40838
1.39785
1.38524
1.37268
1.36191
1.35181
1.34203
1.33451
1.32289
1.3124
1.30137
1.29089
1.28077
1.27031
1.26038
1.251
1.23806
1.22838
1.21825
1.20447
1.19319
1.18629
1.16835
1.15938
1.15143
1.13597
1.13009
1.12256
1.11401
1.10432
1.09343
1.0825
1.07691
1.07225
1.0558
1.05447
1.04481
1.03373
1.02315
1.01513
1.00332
0.993395
0.975588
0.961689
0.96065
0.961063
0.949459
0.929928
0.919038
0.91154
0.898827
0.888769
0.880912
0.874898
0.864543
0.861679
0.851735
0.840459
0.826043
0.814455
0.799726
0.790695
0.782473
0.773552
1.5407
1.51696
1.50778
1.49386
1.48073
1.46566
1.45968
1.45344
1.44054
1.42841
1.4173
1.40833
1.40026
1.38521
1.37029
1.36186
1.35064
1.33987
1.32777
1.32233
1.31219
1.30142
1.29081
1.28008
1.26949
1.25948
1.24927
1.23786
1.22735
1.21678
1.2052
1.19502
1.18537
1.16842
1.15715
1.14791
1.13759
1.13189
1.12385
1.11464
1.10426
1.09179
1.08325
1.07296
1.06974
1.05824
1.05435
1.04586
1.03539
1.02444
1.01364
1.00312
0.991365
0.977629
0.965782
0.960332
0.955477
0.945982
0.932441
0.920476
0.90971
0.896572
0.886612
0.882667
0.874762
0.865378
0.856919
0.849961
0.841078
0.826506
0.813832
0.800118
0.792155
0.786534
0.768648
1.4991
1.50711
1.50843
1.49488
1.48192
1.47088
1.4601
1.44687
1.43839
1.42835
1.41789
1.40799
1.39661
1.38494
1.37367
1.3654
1.34819
1.33916
1.32795
1.32465
1.3125
1.30151
1.29084
1.27922
1.26815
1.25875
1.24855
1.2375
1.22642
1.21599
1.20568
1.1964
1.17926
1.17068
1.1578
1.14578
1.13487
1.13413
1.1266
1.11639
1.10651
1.08734
1.08407
1.07247
1.06586
1.05618
1.05505
1.04635
1.03754
1.02511
1.01381
1.00283
0.990993
0.978268
0.965631
0.958658
0.953079
0.9463
0.93349
0.92127
0.910626
0.89192
0.882741
0.885388
0.873982
0.866288
0.854013
0.849905
0.844598
0.826343
0.812859
0.796139
0.791326
0.787613
0.773936
1.50388
1.50724
1.50499
1.4947
1.48199
1.47123
1.4612
1.44658
1.43709
1.42901
1.41812
1.40835
1.3947
1.38431
1.37418
1.36502
1.35026
1.34091
1.3314
1.32443
1.31168
1.30211
1.2918
1.27551
1.26673
1.25885
1.24866
1.2378
1.22562
1.21477
1.20469
1.19335
1.17921
1.17352
1.15857
1.14597
1.13291
1.13154
1.13026
1.11717
1.10577
1.09303
1.08381
1.07055
1.06458
1.05771
1.05281
1.04485
1.04135
1.0247
1.0141
1.00321
0.9917
0.979598
0.962051
0.956857
0.952043
0.947889
0.933849
0.920082
0.905921
0.893298
0.889255
0.881368
0.868952
0.865896
0.861976
0.850871
0.840434
0.826559
0.814857
0.796059
0.789481
0.784736
0.774043
1.52804
1.51317
1.50501
1.49472
1.48209
1.4728
1.46124
1.4484
1.43569
1.43116
1.41708
1.40629
1.39479
1.38325
1.37367
1.36397
1.35272
1.34301
1.33386
1.32316
1.31241
1.30353
1.2865
1.27298
1.26944
1.25954
1.24862
1.237
1.22586
1.21467
1.20443
1.1934
1.18164
1.17292
1.15829
1.14784
1.13443
1.12975
1.12941
1.11601
1.10756
1.09627
1.08555
1.07483
1.06559
1.05868
1.05292
1.03816
1.03805
1.02354
1.0136
1.00351
0.992733
0.980095
0.964987
0.955899
0.952232
0.942227
0.937573
0.919236
0.900926
0.899181
0.887815
0.878013
0.870239
0.864529
0.862357
0.850424
0.836857
0.824872
0.812148
0.79864
0.787301
0.783698
0.770893
1.52644
1.51424
1.50774
1.49199
1.48369
1.47574
1.46254
1.45286
1.43978
1.42848
1.41281
1.40452
1.39615
1.38019
1.37337
1.36397
1.35476
1.34498
1.33764
1.3216
1.31236
1.30027
1.28849
1.27498
1.2685
1.25934
1.25023
1.23219
1.22872
1.21503
1.20501
1.19427
1.18319
1.17065
1.15872
1.14797
1.13581
1.13376
1.12592
1.11386
1.11022
1.09862
1.08808
1.07879
1.06607
1.05839
1.04971
1.03917
1.03235
1.02256
1.0129
1.00519
0.994084
0.978024
0.966496
0.956523
0.954397
0.940844
0.930376
0.918743
0.906102
0.898356
0.886765
0.875115
0.870735
0.858769
0.857566
0.850179
0.831969
0.824452
0.81016
0.798988
0.788417
0.780553
0.764582
1.52562
1.51271
1.50689
1.49423
1.48485
1.47152
1.46263
1.46032
1.4427
1.42666
1.41338
1.40322
1.39267
1.38152
1.37457
1.36393
1.3575
1.34586
1.33635
1.32524
1.31537
1.29712
1.28774
1.27697
1.26849
1.25858
1.24812
1.23613
1.22767
1.21608
1.20602
1.19552
1.18446
1.16769
1.15888
1.14869
1.13935
1.13318
1.12514
1.11611
1.10924
1.09977
1.08953
1.07992
1.06728
1.05861
1.04886
1.03882
1.02905
1.01973
1.01211
1.00913
0.99251
0.975778
0.967617
0.959466
0.953614
0.939725
0.92912
0.919049
0.906803
0.897018
0.886728
0.876592
0.868284
0.856976
0.855419
0.845793
0.83139
0.82954
0.804968
0.798958
0.788712
0.779274
0.765623
1.52164
1.51203
1.51041
1.49433
1.48296
1.47021
1.46689
1.45787
1.4442
1.42894
1.41618
1.40274
1.39189
1.37848
1.37355
1.36613
1.36284
1.34417
1.33604
1.32739
1.31501
1.29727
1.28768
1.27708
1.26994
1.25837
1.24767
1.23739
1.22631
1.21648
1.20717
1.19724
1.17911
1.16865
1.15894
1.14917
1.14044
1.13169
1.12594
1.11777
1.10906
1.10053
1.09014
1.08295
1.06676
1.05897
1.04779
1.03771
1.02737
1.01672
1.01609
1.00154
0.990279
0.978182
0.969174
0.960583
0.951855
0.939102
0.929794
0.921549
0.90505
0.89639
0.887065
0.87795
0.868308
0.857229
0.852308
0.842101
0.833598
0.822073
0.807019
0.801049
0.788783
0.778408
0.766903
1.5205
1.51855
1.50869
1.49493
1.48333
1.47209
1.46713
1.45761
1.44596
1.42903
1.41675
1.40637
1.39108
1.38053
1.37712
1.36328
1.35577
1.34425
1.33704
1.32764
1.31306
1.30172
1.28886
1.27578
1.27452
1.2571
1.24703
1.2393
1.22393
1.21644
1.20924
1.19344
1.17969
1.16873
1.15909
1.14986
1.14131
1.1293
1.1267
1.11939
1.10966
1.10269
1.08748
1.08237
1.07083
1.06285
1.0462
1.03709
1.02741
1.01553
1.01129
1.00039
0.988951
0.977848
0.970257
0.961432
0.954036
0.936051
0.929882
0.92002
0.907687
0.896954
0.886728
0.879758
0.871093
0.853419
0.85094
0.838247
0.833698
0.82071
0.80916
0.798095
0.787726
0.777894
0.766953
1.52606
1.51798
1.50887
1.49394
1.48355
1.47176
1.46868
1.45821
1.44655
1.43039
1.41371
1.40325
1.3938
1.38455
1.37733
1.366
1.35239
1.3411
1.33888
1.32632
1.31341
1.30767
1.29126
1.27464
1.26962
1.25947
1.24603
1.23695
1.22568
1.21645
1.20741
1.1947
1.18196
1.16908
1.15879
1.14905
1.14573
1.13191
1.12075
1.12081
1.10927
1.10045
1.08785
1.08476
1.07174
1.06131
1.0526
1.03763
1.0303
1.01169
1.00979
0.998565
0.987126
0.975606
0.972411
0.961771
0.952396
0.937237
0.932772
0.920728
0.908761
0.897534
0.885313
0.882207
0.870245
0.856339
0.848594
0.838141
0.830999
0.820067
0.808872
0.794746
0.79021
0.778416
0.766088
1.52896
1.51872
1.5078
1.49605
1.48544
1.47362
1.46665
1.45934
1.44478
1.42593
1.41451
1.40079
1.3949
1.3889
1.3805
1.36375
1.35338
1.34402
1.33688
1.32379
1.31104
1.30865
1.29269
1.2781
1.26825
1.25863
1.24684
1.23628
1.22574
1.21585
1.20739
1.1944
1.18328
1.17338
1.15802
1.14348
1.14697
1.13291
1.1247
1.11961
1.1102
1.1011
1.09049
1.08106
1.07097
1.05928
1.05532
1.04154
1.03144
1.01483
1.00673
0.996716
0.985996
0.976738
0.969586
0.960535
0.953064
0.940751
0.931988
0.92101
0.909089
0.899072
0.887814
0.879767
0.869147
0.855882
0.847527
0.838336
0.829423
0.818999
0.808371
0.797548
0.789543
0.778344
0.767279
1.53177
1.52093
1.50722
1.49733
1.48887
1.47227
1.46263
1.45498
1.44439
1.42862
1.41452
1.39877
1.39583
1.39295
1.37921
1.36579
1.35536
1.34638
1.33817
1.32072
1.31278
1.30412
1.29241
1.2801
1.26723
1.25919
1.24724
1.23564
1.22521
1.2151
1.20585
1.19379
1.186
1.17128
1.1577
1.14453
1.14328
1.13875
1.12676
1.1201
1.11151
1.10347
1.08809
1.07909
1.07023
1.06347
1.05771
1.04105
1.02899
1.01804
1.00721
0.995135
0.985468
0.976751
0.967537
0.957914
0.957589
0.942733
0.931089
0.92209
0.907559
0.902244
0.889294
0.87803
0.864719
0.854648
0.847088
0.838326
0.829314
0.81819
0.808492
0.799019
0.789778
0.778259
0.766589
1.53385
1.52052
1.50932
1.49724
1.48778
1.47086
1.46149
1.45344
1.44211
1.42927
1.41637
1.40417
1.39753
1.39263
1.37671
1.36481
1.35669
1.34949
1.33493
1.32281
1.31679
1.29964
1.29064
1.27861
1.26765
1.26264
1.24731
1.23457
1.22483
1.21329
1.20657
1.20068
1.1851
1.1682
1.15797
1.14776
1.14397
1.1363
1.12471
1.12106
1.11246
1.10077
1.08969
1.07947
1.06973
1.06702
1.05637
1.04319
1.03018
1.01856
1.00681
0.993057
0.987516
0.976449
0.966226
0.956774
0.952865
0.941699
0.930372
0.927815
0.909208
0.900683
0.889019
0.878555
0.869243
0.85366
0.846536
0.838345
0.829826
0.81694
0.808472
0.79962
0.790162
0.77839
0.76573
1.53907
1.52
1.51194
1.49429
1.48173
1.47387
1.46078
1.45557
1.44117
1.42956
1.41806
1.40709
1.39792
1.38892
1.37753
1.36607
1.35643
1.34725
1.33691
1.32535
1.31584
1.30088
1.29053
1.27654
1.26537
1.26239
1.24983
1.23747
1.22738
1.20757
1.20558
1.20293
1.18543
1.17077
1.15922
1.14851
1.14618
1.13575
1.12515
1.11676
1.11432
1.09829
1.09024
1.08064
1.07181
1.0679
1.05649
1.04372
1.031
1.0189
1.00673
0.996458
0.98527
0.975655
0.965129
0.954239
0.951216
0.939835
0.931569
0.925495
0.912467
0.901897
0.887939
0.878048
0.867697
0.856339
0.847257
0.838729
0.829314
0.818386
0.808708
0.800434
0.789274
0.779919
0.763712
1.53261
1.52463
1.51069
1.49565
1.48303
1.47346
1.46224
1.45344
1.44188
1.42991
1.41929
1.40804
1.39813
1.38794
1.37709
1.36668
1.35579
1.34589
1.3383
1.32692
1.31469
1.30192
1.2888
1.27769
1.26782
1.26086
1.24998
1.23823
1.22635
1.21203
1.20501
1.19826
1.18675
1.17209
1.16056
1.15174
1.14538
1.13637
1.12689
1.11615
1.10578
1.10123
1.09017
1.08187
1.07175
1.06944
1.05645
1.0445
1.03368
1.01959
1.00475
0.997032
0.985383
0.974513
0.964772
0.955458
0.94795
0.936997
0.931868
0.926377
0.912957
0.901151
0.888613
0.878005
0.867379
0.856542
0.84702
0.840266
0.829075
0.818812
0.807468
0.796966
0.791023
0.775261
0.764946
1.53724
1.52269
1.50829
1.49485
1.48334
1.47298
1.46162
1.45187
1.44231
1.42897
1.4207
1.40858
1.39865
1.38767
1.37621
1.36779
1.35455
1.34397
1.34273
1.32695
1.31399
1.30241
1.28966
1.2796
1.26994
1.26071
1.25031
1.23953
1.22878
1.21202
1.20444
1.19593
1.18584
1.17443
1.15993
1.1538
1.1458
1.1374
1.12989
1.11557
1.10477
1.09895
1.08645
1.08368
1.07376
1.06659
1.05554
1.04398
1.03232
1.02046
1.00772
0.999002
0.987463
0.972203
0.964189
0.956086
0.947966
0.941759
0.931209
0.920339
0.91223
0.90042
0.888085
0.878181
0.867449
0.856164
0.844665
0.843858
0.826641
0.818672
0.806808
0.790034
0.789315
0.777049
0.766065
1.52475
1.51841
1.50884
1.49244
1.48246
1.47264
1.45916
1.45019
1.44111
1.43003
1.42022
1.41133
1.40049
1.38788
1.37268
1.36301
1.35814
1.34607
1.33707
1.33058
1.31627
1.30297
1.29055
1.28147
1.27168
1.26181
1.25126
1.24067
1.2263
1.2144
1.2047
1.19535
1.18578
1.17689
1.15779
1.1561
1.14667
1.13733
1.12702
1.11736
1.10765
1.10084
1.08475
1.08041
1.07346
1.06467
1.05469
1.04397
1.03291
1.02223
1.00807
0.997035
0.98603
0.974516
0.964811
0.956336
0.947767
0.939943
0.930676
0.921636
0.914623
0.898952
0.885725
0.879355
0.867812
0.856043
0.844906
0.83872
0.828268
0.817004
0.803886
0.793061
0.786629
0.777107
0.767
1.52523
1.51666
1.50491
1.49561
1.48284
1.47009
1.4594
1.44864
1.43934
1.43044
1.41853
1.40583
1.40323
1.39024
1.37608
1.36611
1.35701
1.34789
1.32962
1.32743
1.32175
1.30343
1.29419
1.28389
1.27346
1.26349
1.252
1.24042
1.22705
1.2145
1.20474
1.19495
1.18474
1.17469
1.16264
1.1543
1.14777
1.13744
1.12357
1.11736
1.10856
1.10064
1.08264
1.08144
1.07251
1.06379
1.05459
1.0444
1.03384
1.022
1.01139
0.994997
0.985756
0.97506
0.964888
0.955407
0.946469
0.93952
0.929864
0.920848
0.913037
0.904073
0.884361
0.881783
0.868068
0.855696
0.844178
0.836995
0.830035
0.815985
0.801244
0.793961
0.786157
0.777334
0.768167
1.53079
1.51389
1.5044
1.49391
1.48319
1.47126
1.45964
1.44655
1.43857
1.43231
1.41683
1.40487
1.40598
1.39075
1.37547
1.36923
1.35378
1.34485
1.33541
1.32725
1.31833
1.30165
1.29833
1.28638
1.27461
1.26649
1.25123
1.23991
1.22721
1.21397
1.20469
1.19497
1.18384
1.17417
1.1649
1.1522
1.14921
1.136
1.12177
1.11892
1.10865
1.09832
1.08691
1.08062
1.07199
1.06311
1.05431
1.04514
1.03523
1.01878
1.00954
0.997821
0.98694
0.975509
0.964387
0.953748
0.945336
0.940701
0.92824
0.918661
0.912606
0.905533
0.889287
0.880473
0.866611
0.854548
0.843478
0.835317
0.826384
0.815192
0.803462
0.795251
0.786686
0.777945
0.769186
1.52662
1.5131
1.5031
1.49243
1.48449
1.47404
1.45509
1.44568
1.43785
1.42981
1.41913
1.40851
1.40097
1.38996
1.37831
1.36908
1.35697
1.34548
1.34055
1.3275
1.31565
1.30387
1.29699
1.28864
1.27234
1.26406
1.25304
1.24112
1.22853
1.21527
1.20408
1.19494
1.18285
1.1743
1.16536
1.1548
1.1463
1.13518
1.12406
1.11763
1.1086
1.09792
1.08829
1.07979
1.07139
1.0628
1.05432
1.04672
1.03067
1.02054
1.01074
0.999966
0.988615