/*--------------------------------*- C++ -*----------------------------------*\
  =========                 |
  \\      /  F ield         | OpenFOAM: The Open Source CFD Toolbox
   \\    /   O peration     | Website:  https://openfoam.org
    \\  /    A nd           | Version:  12
     \\/     M anipulation  |
\*---------------------------------------------------------------------------*/
FoamFile
{
    format      ascii;
    class       surfaceScalarField;
    location    "0.55";
    object      phi.water;
}
// * * * * * * * * * * * * * * * * * * * * * * * * * * * * * * * * * * * * * //

dimensions      [0 3 -1 0 0 0 0];

internalField   nonuniform List<scalar> 
7375
(
-2.40314e-07
6.83744e-08
-1.12439e-07
-7.8245e-08
-4.54892e-08
-6.23671e-08
4.78529e-09
-4.98825e-08
3.9282e-08
-3.4161e-08
7.77935e-08
-3.81458e-08
4.80716e-08
-2.37132e-08
6.08226e-08
4.00812e-08
6.39953e-08
-1.78357e-09
2.00537e-07
2.40397e-08
6.7169e-08
-2.754e-08
8.68028e-08
-2.07136e-08
9.43365e-08
-7.53412e-09
9.39345e-08
2.35987e-09
8.3771e-08
1.01781e-08
7.97621e-08
3.12835e-09
2.03901e-07
3.23389e-08
9.4083e-08
-4.74882e-08
1.06158e-07
-1.09685e-08
1.16855e-07
-9.4928e-09
6.48001e-08
-1.40834e-09
8.72755e-08
3.10959e-08
1.10877e-07
-2.38019e-08
9.43023e-08
1.55722e-08
1.00063e-07
-5.76759e-09
1.0825e-07
-8.11877e-09
1.16094e-07
-7.71528e-09
1.5222e-07
-3.61166e-08
6.97441e-08
-7.71237e-08
8.47789e-08
-1.40634e-08
2.20696e-07
2.20859e-08
1.03661e-07
-4.25031e-08
1.10448e-07
-6.85398e-09
1.21456e-07
-1.08979e-08
1.32325e-07
-9.63214e-09
1.11366e-07
-3.19635e-08
2.04931e-07
-4.15099e-08
1.11873e-07
-6.69512e-08
1.41212e-07
-3.07643e-08
1.54169e-07
-1.14155e-08
1.63853e-07
-9.69459e-09
1.76969e-07
-1.5055e-08
1.92237e-07
-1.34803e-08
2.11029e-07
-1.48332e-08
2.09603e-07
1.46453e-09
1.9328e-07
1.41521e-08
1.71512e-07
2.1565e-08
1.45787e-07
2.54408e-08
1.15267e-07
3.01685e-08
1.13405e-07
1.81789e-09
1.25733e-07
-1.23258e-08
1.02866e-07
2.26466e-08
1.32505e-07
-2.82634e-08
1.03027e-07
2.94994e-08
1.00088e-07
1.81308e-09
1.06403e-07
-5.26197e-09
1.07103e-07
-1.7262e-09
1.2256e-07
-1.68807e-08
1.25408e-07
-2.68541e-10
1.19579e-07
5.88301e-09
1.20472e-07
-2.05239e-09
1.08125e-07
1.22491e-08
1.00013e-07
9.13251e-09
1.09346e-07
-9.47823e-09
1.2371e-07
-1.55144e-08
9.34365e-08
2.95658e-08
7.88124e-08
1.46244e-08
2.10581e-07
2.76319e-08
8.65029e-08
-3.44165e-08
8.6338e-08
1.00453e-09
8.67301e-08
-3.08225e-10
9.9478e-08
-1.26088e-08
1.05262e-07
-5.88178e-09
1.14672e-07
-1.16624e-08
-3.54681e-08
-9.54511e-08
1.47237e-08
-5.3527e-08
-1.04529e-07
-9.70519e-08
-7.07666e-08
-5.63763e-08
-3.46865e-08
-1.6589e-08
-7.45339e-08
-2.9424e-08
-2.54789e-08
6.53344e-08
4.03712e-08
-4.9738e-08
-5.79566e-08
5.03922e-08
-4.99937e-08
6.65389e-08
8.16117e-09
3.86222e-08
7.62403e-10
1.63615e-08
1.54636e-09
8.43735e-09
3.17868e-10
1.19551e-08
-1.2831e-09
2.30633e-08
-1.50777e-09
3.69282e-08
-1.09882e-08
7.97111e-08
-1.00716e-08
5.63506e-08
-2.46258e-08
6.93631e-08
-2.37417e-08
5.74014e-08
2.59026e-09
4.35518e-08
1.2766e-08
-3.94948e-11
2.14055e-08
1.2502e-07
6.74027e-08
-2.35627e-08
2.33904e-09
-2.37138e-08
-5.13447e-09
-1.56859e-08
-1.59887e-08
-4.59199e-09
-1.87783e-08
-2.83083e-08
-1.27363e-08
4.60561e-08
8.56349e-09
3.77647e-08
-6.61884e-09
8.46352e-08
-2.48776e-08
6.29988e-08
-2.04371e-08
4.17467e-08
1.38311e-08
4.23874e-08
-1.16488e-08
2.75923e-08
5.5955e-09
-1.03229e-08
5.683e-09
8.12751e-08
2.90905e-08
3.46009e-08
-2.19354e-08
2.8221e-08
-2.4986e-08
3.7193e-08
-2.10913e-08
5.99796e-08
-3.11848e-08
7.02519e-08
-2.46107e-08
9.29454e-08
-3.60796e-08
1.07338e-07
-2.84126e-08
1.36836e-07
-2.91547e-08
1.5236e-07
-4.32263e-09
1.53116e-07
1.94596e-08
1.32123e-07
4.66453e-08
1.22096e-07
4.11147e-08
7.69045e-08
4.82551e-08
1.72294e-07
4.89167e-08
4.53253e-08
-7.66914e-09
1.54e-07
2.26439e-08
5.64756e-08
-3.27423e-08
8.32363e-08
-2.49477e-08
9.10246e-08
-1.20783e-08
1.05186e-07
-1.3724e-08
9.85182e-08
-1.03891e-08
1.15769e-07
-2.07105e-08
1.36588e-07
-1.63753e-08
1.37177e-07
-2.67507e-09
1.26701e-07
2.43563e-08
1.08573e-07
2.85535e-08
9.31238e-08
6.12969e-09
1.54924e-07
8.31552e-08
7.38468e-09
1.6578e-08
1.57776e-08
6.14438e-09
4.94551e-08
-6.61227e-09
6.42124e-08
-4.85162e-08
1.17798e-08
5.89362e-10
5.50514e-08
9.17216e-09
3.67277e-08
6.0899e-09
2.42209e-08
6.68657e-09
7.11022e-09
5.27408e-09
3.25838e-08
-1.4086e-07
1.821e-08
-3.17703e-08
-6.71545e-09
-2.92937e-08
-6.95182e-08
-1.27924e-07
-9.43369e-08
-1.81401e-08
-2.61483e-08
-3.03864e-09
-4.06248e-08
-7.01862e-08
-4.9766e-08
-1.14682e-07
-1.609e-08
-1.86193e-08
1.57847e-08
-9.96538e-08
-6.90011e-08
-1.06824e-07
7.93238e-09
-1.16125e-07
9.7404e-09
-1.14681e-07
-1.12603e-09
-9.40891e-08
-2.2075e-08
-1.20699e-07
2.38547e-08
-1.41334e-07
9.63225e-09
-1.21638e-07
-2.99758e-08
-1.48495e-07
-5.02655e-08
-1.47575e-07
2.90257e-08
-1.40072e-07
-4.99005e-09
-1.17355e-07
-8.72549e-09
-1.28018e-07
2.96728e-08
-1.06188e-07
4.40119e-08
-1.26973e-07
2.41829e-08
-1.32196e-07
8.69139e-11
-1.35967e-07
-1.09941e-08
-1.31773e-07
-2.31619e-08
-1.28533e-07
-1.74998e-08
-1.22612e-07
2.55569e-09
-1.34284e-07
3.65245e-09
-4.43989e-08
4.50428e-08
-4.09128e-08
-2.30529e-08
-9.90752e-08
-8.52908e-08
-1.02362e-07
-9.4916e-09
-7.09651e-08
-2.48243e-08
-4.29868e-08
-2.22953e-08
-9.11021e-09
-5.81814e-09
1.14177e-08
-4.29009e-08
-1.20401e-08
-1.66794e-09
-9.16495e-09
-2.40893e-08
2.83093e-08
-6.98728e-08
2.15609e-08
-1.71546e-08
2.09444e-08
-3.53905e-08
3.6691e-08
-4.38663e-08
3.82934e-08
-3.11517e-08
4.68854e-08
-1.23108e-08
5.39472e-08
1.25984e-08
4.82518e-08
5.17739e-08
2.50942e-08
6.46874e-08
3.75599e-08
3.56621e-08
1.77947e-08
6.93825e-08
-5.38321e-09
1.55569e-08
-4.82535e-08
1.21303e-08
-3.1885e-08
4.34416e-09
-4.49875e-08
-1.16409e-08
-3.85683e-08
-1.84978e-08
-2.94093e-08
-2.30416e-08
-3.76671e-08
-1.91971e-09
-4.1761e-08
-1.66168e-08
-3.68685e-08
-2.18112e-08
-2.97784e-08
-1.02051e-08
-8.11032e-08
7.62388e-08
-9.10615e-08
3.80221e-08
1.86759e-08
5.6338e-08
-3.13818e-08
-2.6133e-08
-5.95633e-08
4.41399e-08
-7.69543e-08
2.29847e-08
-1.03212e-07
1.85137e-08
6.13069e-09
3.23048e-09
-1.09873e-07
-4.12445e-08
-7.79038e-08
-2.27968e-08
-6.46424e-08
-8.04789e-09
-7.29037e-08
1.48808e-08
-7.46448e-08
7.08745e-09
-1.17169e-08
-1.54146e-07
2.16302e-08
-1.04516e-07
-2.47823e-08
-7.45476e-08
-9.65641e-08
-9.62276e-08
-7.46016e-08
-7.85186e-08
-4.35883e-08
-5.59255e-08
-6.24174e-08
-7.56137e-08
-3.10409e-08
-8.25956e-08
-9.95995e-09
-1.32315e-07
1.10428e-08
-3.26688e-08
4.62744e-08
-1.62382e-07
-2.0619e-08
-1.57862e-07
5.16698e-09
-1.85357e-07
2.44776e-08
-9.86758e-08
5.23084e-08
-2.15014e-07
-1.96827e-08
-2.15075e-07
7.30092e-09
-2.52777e-07
7.26223e-09
-1.55215e-07
1.58224e-08
-2.74343e-07
-6.18196e-08
-2.20783e-07
-7.84014e-09
-2.1732e-07
-1.45181e-08
-1.91704e-07
4.62551e-09
-1.64522e-07
1.83522e-08
-1.43451e-07
6.25335e-09
-1.37341e-07
-6.02338e-09
-1.47526e-07
-2.21147e-09
-1.66937e-07
-5.69051e-09
-1.64594e-07
-1.98425e-08
-1.31768e-07
-2.99355e-08
-1.54135e-07
2.73262e-08
-1.0674e-07
-1.25054e-09
-1.18135e-07
-1.27478e-08
-3.34435e-08
-1.19633e-08
-1.70297e-07
-8.27528e-08
-9.54047e-08
-4.72883e-08
-6.9279e-08
-5.01331e-08
-1.03715e-07
2.756e-08
-1.63304e-08
3.03856e-08
-1.36931e-07
-4.14251e-08
-1.18274e-07
-4.231e-08
-8.62751e-09
-1.96245e-08
-8.58609e-08
-9.81586e-08
-5.75251e-08
-6.46112e-08
-4.32443e-08
-5.75539e-08
-1.07896e-07
-1.88968e-08
-8.55208e-08
1.88317e-08
-1.05365e-07
3.17654e-08
-7.64947e-08
2.31398e-08
-1.11925e-07
1.00777e-07
-1.56558e-08
9.8122e-08
-1.29071e-07
2.27513e-08
-1.35002e-07
2.14275e-08
-1.44092e-07
2.10954e-08
-1.26161e-07
-1.21173e-08
-1.34418e-07
-3.38403e-09
-1.28275e-07
-2.35216e-08
-9.53026e-08
-5.65854e-08
-1.06695e-07
8.49992e-09
-1.04131e-07
-1.91812e-08
-9.05467e-08
-3.70756e-08
-2.61405e-08
8.60201e-08
-1.59922e-07
-7.113e-10
-8.42322e-08
1.54546e-08
-7.64529e-08
4.63669e-08
2.49977e-08
3.1897e-08
-1.03199e-07
1.362e-08
-1.00432e-07
1.91542e-08
-9.09664e-08
9.88341e-09
-9.39547e-08
6.24924e-09
-1.17646e-07
-1.75534e-08
-1.24197e-07
-1.79284e-08
-1.29906e-07
-2.33838e-09
-1.43795e-07
2.8629e-08
-1.57236e-07
1.87156e-08
3.8893e-08
-1.69358e-07
3.57919e-08
-1.0079e-07
-6.04732e-08
-1.27619e-07
-1.20535e-07
-1.00483e-07
-4.74731e-08
-9.44783e-08
-4.91486e-08
-6.58673e-08
-9.12883e-08
-3.54622e-08
-6.14465e-08
-1.32586e-08
-3.2289e-08
8.35781e-09
-1.07701e-08
5.14587e-08
2.27029e-09
3.53649e-08
-4.36318e-09
1.94957e-08
2.13927e-08
8.76129e-09
3.54996e-08
-7.07223e-08
7.76718e-08
-7.41421e-08
3.76275e-08
-8.52711e-08
1.8468e-08
-9.09381e-08
1.19942e-08
-8.01567e-08
3.95119e-09
-1.26207e-07
-1.57701e-08
-1.19813e-07
-1.42343e-08
-1.2387e-07
-1.03134e-08
-1.23862e-07
4.56909e-09
-1.15731e-07
1.00335e-08
-1.09548e-07
6.98254e-11
-1.11613e-07
-4.01969e-09
-1.16846e-07
3.02138e-09
-1.55418e-07
-2.00826e-08
-1.4151e-07
1.9415e-08
-3.06644e-08
1.86103e-08
-1.06785e-07
-5.41139e-08
-9.21836e-08
-1.6954e-08
-8.58658e-08
-1.90657e-08
-6.78969e-08
-2.99323e-08
-1.21357e-07
-2.9595e-08
-1.33262e-07
-3.72253e-08
-3.15408e-08
8.58401e-09
-1.36557e-07
-2.7107e-08
-9.11655e-08
-1.51632e-08
-1.09066e-07
-2.19479e-08
-1.06359e-07
-4.45623e-08
-7.96668e-08
-4.61164e-08
-1.0907e-07
-6.97565e-08
-1.34806e-07
-3.86102e-08
-1.40562e-07
-5.17981e-08
-1.62182e-07
2.88688e-09
-1.68939e-07
2.40577e-08
-1.83534e-07
4.40141e-08
-3.40852e-08
3.61096e-08
-1.43798e-07
5.19494e-08
-9.76586e-08
5.24434e-08
-9.88053e-08
2.36681e-08
-9.68277e-08
1.84417e-08
-8.67505e-08
1.08027e-08
-9.55857e-08
-3.2823e-09
-1.05796e-07
6.82651e-09
-1.32786e-07
2.11326e-09
-5.09214e-08
2.14928e-08
-1.89321e-07
-1.15882e-08
-2.04643e-07
-8.03538e-09
-5.76018e-08
-2.19186e-08
-1.57107e-07
-2.60291e-08
-1.64422e-07
8.28064e-09
-1.31429e-07
3.50462e-08
-1.60736e-07
7.40503e-08
-2.26352e-08
5.25903e-08
-1.37557e-07
-2.88966e-08
-1.22834e-07
2.8324e-09
-9.90716e-08
-1.50437e-08
-1.88329e-07
4.19971e-08
-1.56939e-07
4.33995e-09
-1.67599e-07
-7.26873e-09
-1.55157e-07
-1.30455e-08
-1.70378e-07
-7.37378e-09
-1.36755e-07
3.73316e-08
1.45887e-08
-1.54112e-07
3.87875e-08
-1.56375e-07
-2.66187e-08
-4.38051e-08
-6.21568e-08
-1.52579e-07
-9.57186e-08
-1.19598e-07
-8.33498e-08
-1.17559e-07
-9.33282e-08
-1.0671e-07
-7.17236e-08
-1.20394e-07
-1.86051e-08
-1.04838e-07
-2.67092e-08
-7.79378e-08
-2.48611e-08
-7.62846e-08
-6.12396e-09
-6.77529e-08
1.30786e-08
-6.33159e-08
3.1708e-08
-1.22696e-07
-2.1017e-08
-1.14031e-07
2.78097e-08
-1.18623e-07
2.32481e-08
-1.18632e-07
1.21246e-08
-1.12445e-07
-2.23592e-09
-1.12437e-07
-1.56197e-08
-1.11815e-07
-1.48566e-08
-9.20489e-08
-3.03903e-08
-1.09779e-07
2.20736e-08
-1.09958e-07
1.02122e-08
-1.03538e-07
-6.35128e-09
-9.59764e-08
-1.15813e-08
-8.71142e-08
-5.78216e-09
-1.05209e-07
-1.98808e-09
-8.26967e-08
-3.94136e-09
-1.04678e-07
-1.29176e-08
-6.87414e-08
-3.69489e-08
-9.50474e-08
9.35187e-09
-9.84864e-08
-1.56268e-08
-9.89135e-08
-3.0829e-08
-1.27934e-07
-5.35315e-08
-7.98865e-08
-2.98849e-08
-3.6923e-08
-3.40933e-08
-4.87773e-08
-1.51329e-08
-4.36607e-08
-2.01783e-08
-4.98871e-08
-1.56585e-08
-7.34207e-08
-2.17522e-08
-1.38021e-07
-3.52284e-08
-1.45906e-07
-1.03966e-08
-1.98077e-07
-3.99477e-08
-2.01396e-07
8.64731e-09
-1.88874e-07
-9.63536e-09
-1.95031e-07
3.02777e-08
-1.98468e-07
4.70067e-08
-6.46664e-08
5.94097e-08
-2.03272e-07
-1.94208e-08
-1.98208e-07
-5.74772e-08
-1.68204e-07
-8.11659e-09
-1.56483e-07
6.72071e-09
-1.48775e-07
3.09381e-09
-1.55334e-07
3.27686e-09
-1.48445e-07
-6.24335e-11
-1.39541e-07
-6.79107e-09
-1.28448e-07
8.86952e-09
-1.80634e-07
-1.29113e-08
-1.97868e-07
1.10417e-08
-6.18147e-08
5.48865e-08
-1.3822e-07
4.98675e-08
-1.42068e-07
1.21284e-08
-1.0688e-07
1.30533e-09
-1.74985e-07
-1.51289e-08
-1.36093e-07
1.05251e-08
-1.66725e-07
1.43693e-09
-1.74588e-07
1.06147e-08
-7.81222e-08
4.85171e-08
-2.28491e-07
-1.93148e-08
-1.9947e-07
2.82822e-08
-1.85461e-07
-2.09892e-08
-1.49994e-07
-4.9012e-08
-1.42752e-07
-1.46147e-08
-1.42893e-07
3.74711e-08
2.40948e-08
-1.79647e-07
5.69351e-08
-1.63816e-07
-8.19483e-09
-1.31942e-07
-1.4081e-07
-1.50434e-07
-2.32321e-08
-1.96776e-07
-3.894e-08
-1.24162e-07
-6.10207e-09
-1.43161e-07
-5.27251e-08
-2.01948e-07
-1.20767e-07
-1.87984e-07
-4.21768e-08
-1.55307e-07
-5.72021e-08
-1.51917e-07
-7.9135e-09
-1.86851e-07
5.00728e-08
-1.88665e-07
3.35211e-08
-9.72086e-08
4.76784e-08
-1.09431e-07
3.96311e-08
-1.07394e-07
2.00943e-08
-1.0152e-07
6.25019e-09
-9.37197e-08
-9.08089e-09
-7.48978e-08
-3.47935e-08
-1.09789e-07
1.815e-08
-1.1092e-08
3.15529e-08
-1.13014e-07
-3.31775e-08
-1.01102e-07
-2.85309e-09
-9.53724e-08
-1.20811e-08
-6.72002e-08
-3.90684e-08
-5.62208e-08
-1.6762e-08
-9.7771e-08
-1.41187e-08
-6.5582e-08
1.66623e-08
-9.09262e-08
1.15131e-08
1.0172e-08
2.27133e-08
-8.92053e-08
-5.02636e-08
-6.47803e-08
-4.07128e-08
-9.68297e-08
-5.07672e-08
-6.30483e-08
-3.27298e-08
-6.65942e-08
-2.69757e-08
-6.98877e-08
-3.21551e-08
-7.445e-08
-1.0725e-08
-7.66175e-08
-1.82165e-08
-9.15241e-08
-1.86433e-09
-1.5866e-07
-8.43611e-09
-1.3755e-07
-1.73952e-09
-1.30823e-07
-1.69503e-08
-1.64284e-07
-7.75526e-09
-2.03781e-07
-5.36425e-09
-1.97265e-07
3.87926e-08
-1.99376e-07
3.23879e-08
-1.8636e-07
3.25699e-08
-1.58353e-07
2.97696e-08
-2.60016e-07
3.03663e-08
-1.32229e-07
2.83636e-08
-1.43002e-07
2.65703e-09
-1.23876e-07
-1.24058e-08
-1.1927e-07
-1.51227e-09
-1.30312e-07
1.44659e-08
-1.23776e-07
-6.59818e-09
-1.00343e-07
-3.05363e-08
-1.24666e-07
3.31926e-08
-1.5478e-07
1.73337e-08
-1.77163e-07
3.16179e-08
-3.47104e-08
7.33175e-08
-1.44036e-07
2.25958e-09
-1.3577e-07
2.39278e-09
-1.33298e-07
-1.16707e-09
-1.3485e-07
-1.37321e-08
-1.29077e-07
4.75198e-09
-1.38445e-07
1.079e-08
-1.19277e-07
-7.33614e-09
-9.45035e-08
2.22992e-08
-1.6466e-07
4.93587e-08
-1.89388e-07
3.65876e-09
-1.70465e-07
1.07946e-08
-8.79861e-08
2.72797e-08
-3.93142e-08
-6.19864e-08
-1.25034e-07
-3.40938e-08
4.0714e-08
-1.52737e-07
-7.77362e-09
-2.52673e-07
-1.00647e-07
-5.57493e-08
5.26517e-08
-2.04365e-07
-3.21856e-08
-2.16121e-07
-2.92906e-08
-1.94774e-07
-2.52455e-08
-2.01813e-07
-4.52251e-08
-1.21885e-07
-4.09814e-08
-2.16039e-07
-1.05951e-07
-1.20491e-07
4.51757e-09
-1.04022e-07
-2.53633e-08
-2.12732e-07
-5.52537e-08
-1.74229e-07
-4.58933e-09
-1.23088e-07
5.13139e-08
-1.0345e-07
2.16364e-08
-9.43629e-08
9.85055e-09
-9.72294e-08
9.02404e-09
-1.26785e-07
1.89869e-08
-3.27422e-08
3.10116e-08
-1.62541e-07
-1.06062e-08
-9.92041e-08
-3.17825e-08
-1.11714e-07
-2.07946e-08
-1.19686e-07
-4.78444e-08
-1.12709e-07
-1.88659e-08
-9.46149e-08
-4.19997e-09
-8.74876e-08
-2.49532e-08
-8.57565e-08
-1.48136e-08
-5.86575e-08
-8.97858e-09
-4.95577e-08
1.33362e-09
-7.51195e-08
-6.04106e-09
-4.59619e-08
-2.56922e-08
-5.47528e-08
-3.13635e-08
-7.28241e-08
-3.21833e-08
-8.15279e-08
-2.51029e-08
-9.5138e-08
-1.46114e-08
-1.21425e-07
-5.80812e-09
-1.16168e-07
-1.4743e-08
-1.03799e-07
-3.19707e-08
-1.33397e-07
2.60897e-08
-1.88119e-07
-3.86215e-09
-1.10656e-07
-2.37565e-08
-1.13029e-07
-1.56946e-08
-1.1309e-07
-8.84815e-09
-1.43608e-07
2.52086e-08
-1.29526e-07
2.44617e-08
-1.29453e-07
3.23145e-08
-1.41057e-07
4.46287e-08
-1.43845e-07
3.22544e-08
-2.03507e-07
3.88314e-08
-1.46409e-07
2.39353e-08
-1.46937e-07
1.69163e-09
-1.0695e-07
-5.23933e-08
-1.05943e-07
-3.60027e-09
-1.97645e-07
5.26587e-08
-1.75265e-07
2.42132e-08
-8.07331e-08
3.54581e-08
-1.8597e-07
-1.96361e-08
-1.67369e-07
-1.26731e-09
-1.51667e-07
1.59159e-08
-1.19137e-07
4.00391e-08
-1.42146e-07
2.52916e-08
-1.46081e-07
6.32733e-09
-1.44767e-07
-2.48121e-09
-1.17169e-07
-4.17564e-08
-1.12754e-07
3.36559e-10
-1.5898e-07
5.7016e-08
-6.5162e-08
5.71517e-08
-5.80229e-08
1.59794e-08
-1.46573e-07
-1.98744e-08
-1.38205e-07
-6.14192e-09
-1.22764e-07
-4.53614e-09
-1.50775e-07
2.05071e-09
4.55541e-09
-5.52033e-09
-4.65975e-08
1.67117e-08
-6.33349e-08
-1.46552e-07
5.71096e-09
-6.57888e-08
2.83877e-08
-1.4624e-07
-2.46632e-08
-1.66552e-07
-1.07217e-08
-1.77926e-07
-1.93171e-08
-1.80947e-07
-2.01734e-08
-2.02e-07
-2.62126e-08
-2.17211e-07
-3.04048e-08
-1.15787e-07
-4.52366e-08
-1.99047e-07
-6.99314e-08
-1.70236e-07
-5.4174e-08
-1.91671e-07
-3.29203e-08
-1.76612e-07
-1.96485e-08
-1.39311e-07
1.33517e-08
-1.56436e-07
-1.25122e-08
-9.89189e-08
5.75952e-09
-8.37452e-08
-6.30353e-09
-5.65699e-08
-8.46338e-09
-2.87183e-08
2.27491e-09
-6.90281e-08
-2.28487e-08
-3.28684e-08
-1.53376e-08
-1.99579e-08
-3.36972e-08
-3.24384e-08
-3.48812e-08
-1.67926e-08
-3.45121e-08
1.70221e-09
-2.28665e-08
-1.4622e-08
-8.48012e-09
-4.64142e-09
-2.48964e-08
-2.43232e-08
1.03158e-08
-4.19076e-08
1.84996e-08
-1.09153e-07
8.18976e-09
-8.1338e-08
5.63232e-10
-9.9731e-08
-1.28396e-08
-1.18135e-07
-1.4108e-08
-1.05113e-07
-3.85182e-08
-1.31059e-07
1.25439e-08
-1.09892e-07
-2.74717e-08
-1.52741e-07
2.56897e-08
-4.18561e-08
1.82903e-08
-1.56449e-07
-1.80222e-08
-1.63416e-07
1.51623e-09
-1.48423e-07
-3.77095e-08
-1.75963e-07
1.15679e-08
-1.81313e-07
-3.53429e-09
-2.07158e-07
2.03798e-10
-1.51747e-07
2.14786e-08
-1.22446e-07
2.18392e-10
-1.38843e-07
6.04031e-08
-1.31952e-07
2.67802e-08
-1.22356e-07
2.79874e-08
-1.53237e-07
1.55409e-09
-1.80807e-07
3.08244e-08
-7.06167e-08
4.87706e-08
-5.37977e-08
-2.06298e-08
-2.17378e-07
3.81051e-09
-1.48293e-07
8.09166e-09
-1.18299e-07
5.10146e-09
-1.35678e-07
-2.25724e-09
-1.36899e-07
-4.6259e-11
-1.33554e-07
1.25705e-08
-1.27867e-07
3.40053e-08
-1.3052e-07
2.79437e-08
-1.43896e-07
1.97032e-08
-1.6971e-07
2.1824e-08
-8.18953e-08
3.09553e-08
-8.4189e-08
3.46565e-09
-1.70631e-07
-1.36898e-08
-1.09227e-07
-4.25306e-09
-1.03558e-07
9.19605e-09
-1.19695e-07
-2.71871e-09
-1.1916e-07
-6.67708e-09
-1.20788e-07
-4.12326e-09
-1.30994e-07
1.08109e-08
2.94084e-08
-5.45114e-09
-1.20273e-07
-4.57594e-08
2.34629e-08
-7.86927e-08
-2.96202e-08
-1.25592e-07
9.13331e-08
-1.28285e-07
-1.5497e-08
-1.36272e-07
-2.25048e-10
-1.24925e-07
-2.96931e-08
-9.9894e-08
-4.56661e-08
-1.20428e-07
-8.11182e-09
-1.58527e-07
-4.34201e-08
-8.23778e-08
-6.69004e-08
-1.2853e-07
-2.4371e-08
-1.34001e-07
-4.73372e-08
-1.33822e-07
-3.30999e-08
-1.47236e-07
-6.03663e-09
-1.19635e-07
-1.53029e-08
-1.34179e-07
7.89982e-10
-1.19943e-07
-7.04919e-09
-1.05709e-07
-2.06028e-08
-7.73972e-08
-3.7242e-08
-9.13141e-08
1.62145e-08
-9.90583e-08
-1.62817e-08
-1.36961e-07
-2.96907e-08
-1.02278e-07
-1.38769e-08
-1.19946e-07
-1.84323e-08
-1.12904e-07
-4.31308e-08
-1.1645e-07
-1.93206e-08
-1.49234e-07
-3.01823e-08
-4.99104e-08
3.60497e-08
-1.47449e-07
2.4372e-09
-1.26966e-07
-2.1718e-09
-1.20151e-07
2.51586e-09
-1.16829e-07
-1.59436e-09
-1.00467e-07
-3.06922e-08
-1.65171e-07
4.83797e-08
-5.68211e-08
1.4244e-08
-1.88904e-07
-1.5899e-08
-8.15746e-08
2.42942e-08
-2.08526e-07
-6.18621e-08
-1.54104e-07
1.93376e-08
-1.75112e-07
6.16087e-09
-2.07946e-07
3.19127e-08
-1.1538e-07
2.92974e-08
-2.17929e-07
-4.42033e-08
-2.15782e-07
-7.84617e-09
-2.13713e-07
3.38782e-10
-2.11803e-07
1.76274e-08
-9.6555e-08
4.6492e-08
-1.76384e-07
-1.66873e-08
-1.23515e-07
-2.81757e-08
-9.90809e-08
3.55325e-09
-1.1036e-07
1.28168e-08
-1.29702e-07
5.09697e-08
-1.04309e-07
2.2552e-08
-1.3917e-09
3.59186e-08
-1.25777e-07
-2.90744e-08
-1.04887e-07
-1.40819e-08
-9.57019e-08
-4.08376e-09
-9.5519e-08
-3.38025e-09
-1.14948e-07
-3.44816e-08
-7.96461e-08
3.22165e-08
-1.06912e-07
6.12705e-08
-1.09651e-07
2.9592e-08
-1.17422e-07
2.62769e-08
-1.64519e-07
1.54121e-08
-1.14548e-07
3.53091e-08
-1.18008e-07
6.9256e-09
-1.24485e-07
-7.21297e-09
-1.22789e-07
-5.99252e-09
-1.1728e-07
3.68754e-09
-1.23285e-07
3.28579e-09
-1.28947e-07
-1.08357e-09
-1.28225e-07
-3.50027e-09
-1.27059e-07
8.36217e-09
-1.68761e-08
4.36402e-08
-5.26838e-08
-9.77909e-09
-2.54644e-08
5.75644e-08
1.70053e-08
-1.07112e-07
1.30719e-08
-9.95565e-08
-1.53192e-08
-9.68847e-08
-1.84633e-09
-1.26854e-07
-2.0307e-09
-1.09755e-08
-6.8315e-11
-1.13307e-07
-6.24409e-08
-1.09505e-07
-4.7928e-08
-3.23976e-09
-1.6044e-08
-1.12711e-07
-7.2185e-08
-1.14379e-07
-4.68194e-08
-1.10382e-07
-3.63092e-08
-8.95736e-08
-2.59407e-08
-5.54311e-08
-5.04548e-08
-7.91221e-08
2.39127e-08
-8.67413e-08
-2.37789e-10
-8.67756e-08
-2.16754e-08
-1.82657e-08
5.47739e-08
-1.39163e-07
-2.30111e-08
-1.49915e-07
-5.52968e-09
-1.33121e-07
-4.51136e-08
-1.64569e-07
1.57503e-08
-1.87107e-07
-4.95939e-08
-1.65344e-07
-1.00225e-08
-1.63458e-07
-2.12064e-08
-1.57528e-07
-3.64846e-08
-1.63402e-07
4.15553e-08
-1.60604e-07
-3.61492e-10
-1.5628e-07
-6.49605e-09
-1.43492e-07
-1.17354e-08
-1.99359e-07
-1.30782e-09
-1.12571e-07
9.71326e-08
-2.3913e-07
-3.75493e-08
-1.8132e-07
1.18118e-08
-1.91829e-07
-5.55226e-09
-1.78235e-07
1.0101e-08
-1.16145e-07
3.55681e-08
-1.07384e-07
1.03797e-08
-9.91393e-08
-1.06179e-09
-1.82312e-07
-4.23038e-08
-1.45049e-07
-1.01239e-08
-1.71952e-07
-1.59973e-08
-1.6672e-07
-1.46832e-08
-1.70734e-07
2.63459e-09
-1.62327e-07
1.09627e-08
-1.35289e-07
1.89797e-08
-1.69715e-07
1.58367e-08
-9.10497e-08
5.36854e-08
-1.00154e-07
1.3586e-08
-8.73524e-08
9.06695e-10
-1.63337e-07
-3.19791e-08
-1.40042e-07
-2.19511e-09
-1.05901e-07
2.84013e-09
-1.2523e-07
-1.00421e-08
-1.28213e-07
-1.10993e-08
-1.27602e-07
-3.39323e-09
-1.31056e-07
-1.24915e-09
-5.28783e-08
4.68712e-08
-2.66147e-08
6.55902e-09
-1.52761e-07
2.91525e-08
-1.33212e-07
1.00429e-08
-1.31611e-07
2.4676e-08
-1.29969e-07
1.36126e-08
-1.10453e-07
1.57933e-08
-1.06725e-07
3.19749e-09
-1.05127e-07
-8.81103e-09
-1.11849e-07
7.29509e-10
-1.05756e-07
-2.38124e-09
-9.99882e-08
-2.48219e-09
-1.37311e-07
-1.53224e-08
-1.02834e-07
1.44502e-08
-9.51043e-08
-3.30097e-10
-6.56303e-08
1.37226e-08
-7.10265e-08
-4.38304e-09
-2.93023e-08
1.36754e-08
9.78924e-08
-1.12224e-07
-1.05032e-07
-1.09459e-07
-6.17136e-09
-7.83725e-08
-3.04337e-08
-8.03168e-08
-8.65745e-10
-7.21579e-08
-8.96309e-09
-9.78326e-08
-3.70286e-08
-8.62599e-08
-5.96001e-08
-9.40839e-08
-8.22063e-09
-9.37683e-08
-7.39924e-08
-1.25672e-07
-1.49165e-08
-1.32871e-07
-2.9111e-08
-1.48549e-07
-1.20429e-08
-5.16058e-08
1.27392e-08
-1.71838e-07
-1.3974e-08
-1.69747e-07
-4.06152e-09
-7.33414e-08
4.24453e-08
-1.66444e-07
-1.08231e-08
-1.46593e-07
-4.33046e-08
-1.71562e-07
1.7745e-08
-6.62062e-08
1.00564e-08
-1.99734e-07
-6.18985e-08
-1.8513e-07
-1.07296e-08
-1.51746e-07
-4.38546e-08
-1.86097e-07
1.12458e-08
-8.45286e-08
2.24731e-08
-2.24655e-07
-2.9308e-08
-1.85713e-07
1.36592e-08
-1.82409e-07
-9.90129e-09
-1.2143e-07
8.61738e-08
-1.43908e-07
2.11832e-08
-2.27838e-07
-2.94556e-08
-2.22031e-07
7.20842e-09
-2.15759e-07
3.21856e-09
-2.10754e-07
-6.20636e-09
-1.9467e-07
-5.98312e-09
-1.54893e-07
-6.1948e-09
-1.43239e-07
1.87192e-10
-1.47193e-07
1.39111e-09
-1.82496e-07
-8.95324e-09
-1.70876e-07
-1.98825e-08
-1.72806e-07
-1.40674e-08
-1.70578e-07
-1.70609e-08
-1.64722e-07
-3.2479e-09
-1.53205e-07
-5.5476e-10
-1.45174e-07
1.09491e-08
-1.41275e-07
1.19375e-08
-1.14733e-07
2.65959e-08
-1.17404e-07
1.64243e-08
-1.12077e-07
-4.42074e-09
-1.20649e-07
-2.34936e-08
-1.15961e-07
-6.9317e-09
-1.1726e-07
4.13924e-09
-1.21147e-07
-6.15463e-09
-1.26816e-07
-5.4306e-09
-1.27679e-07
-2.53099e-09
-1.05405e-07
-2.37782e-08
-9.71432e-08
3.71399e-08
-1.82755e-08
8.73177e-08
-1.96583e-07
-4.20581e-09
-1.59668e-07
2.60906e-08
-1.47551e-07
1.25595e-08
-1.36051e-07
2.134e-09
-1.19777e-07
-4.80752e-10
-1.19302e-07
2.72196e-09
-1.21055e-07
-7.0574e-09
-1.19641e-07
5.35723e-10
-1.08716e-07
-1.33067e-08
-1.118e-07
-5.06919e-10
-1.28696e-07
1.55786e-09
-1.50291e-07
-1.69429e-08
-1.24813e-07
2.71556e-08
-1.26924e-07
1.56755e-08
-1.48498e-07
1.71909e-08
2.2226e-08
-7.3874e-08
1.87595e-08
-1.37714e-07
-1.78381e-08
-1.42835e-07
-4.72829e-08
-9.63348e-08
-2.33709e-08
-8.09298e-08
-1.7254e-08
-7.61944e-08
-1.27912e-08
-9.97441e-08
-1.42567e-08
-1.53107e-08
1.53066e-08
-1.37253e-07
-4.64116e-08
-1.73721e-08
-3.33474e-08
-1.51354e-07
-9.35645e-08
-1.56696e-07
2.91942e-08
-1.21428e-07
-4.85506e-08
-1.47916e-07
3.86967e-08
-1.56984e-07
-3.39825e-09
-1.31903e-07
-2.94432e-08
-1.39941e-07
4.95443e-08
-1.71709e-07
1.91926e-08
-7.85352e-08
2.40477e-08
-1.80145e-07
-3.87329e-08
-1.1197e-07
-5.88223e-08
-1.7698e-07
3.11062e-09
-1.90186e-07
5.36596e-10
-8.87145e-08
1.51996e-08
-2.02775e-07
-3.26777e-08
-1.30744e-07
-5.03011e-08
-1.62723e-07
2.67073e-09
-2.0222e-07
5.05771e-08
-1.06078e-07
5.44829e-08
-1.77987e-07
2.76034e-10
-1.56385e-07
-4.19646e-10
-1.78178e-07
-7.66216e-09
-1.65408e-07
-3.80102e-09
-1.54569e-07
-7.65318e-09
-1.69088e-07
6.66781e-09
-1.7388e-07
-1.23942e-09
-1.56353e-07
-2.37222e-08
-1.20582e-07
-3.43538e-08
-1.31948e-07
1.26441e-08
-1.37169e-07
-4.93644e-09
-1.34707e-07
-2.23446e-08
-1.27893e-07
-2.08818e-08
-1.24725e-07
-2.0229e-08
-1.2581e-07
-2.16237e-09
-1.24614e-07
-1.751e-09
-1.24405e-07
1.07401e-08
-1.12964e-07
4.96103e-10
-1.05444e-07
1.80004e-08
-1.17191e-07
-2.53378e-08
-1.01658e-07
-1.77207e-08
-1.09377e-07
3.51931e-08
-1.29332e-07
1.18954e-08
-1.24328e-07
4.551e-10
-1.27796e-07
-2.68724e-09
-1.39056e-07
5.88951e-09
-1.60512e-07
1.74658e-08
-7.92208e-08
5.54571e-08
-5.63175e-08
1.56191e-08
-1.17657e-07
-9.50875e-09
-1.42921e-07
1.98578e-08
-1.35027e-07
1.8196e-08
-1.34676e-07
1.08348e-08
-1.6095e-07
2.87033e-08
-1.4473e-07
-1.50588e-08
-1.36262e-07
-5.74544e-09
-1.35433e-07
-7.88702e-09
-1.03668e-07
-3.1551e-08
-1.40821e-07
2.37109e-08
-1.24429e-07
-1.56296e-08
-1.23639e-07
-4.80965e-10
-1.40686e-07
-1.16945e-09
-1.12035e-07
1.08308e-09
-1.1671e-07
2.03527e-08
-1.08218e-07
7.50741e-09
-7.73042e-10
-1.49561e-07
-5.72082e-09
-1.72669e-07
-1.90505e-08
-1.15512e-07
-4.26221e-08
-1.09211e-07
-2.99108e-08
-1.00485e-07
-2.49552e-08
-9.63837e-08
-1.78668e-08
-1.05267e-07
-5.42962e-09
-8.38433e-08
-5.20881e-09
-1.65314e-07
-1.87596e-08
-1.3544e-07
-1.13007e-08
-5.95741e-08
-8.9972e-09
-2.22599e-07
-1.88336e-08
-7.83454e-08
1.98465e-08
-1.63399e-07
-3.39252e-08
-1.5872e-07
-1.13643e-08
-5.22128e-08
2.51139e-08
-1.51002e-07
-8.3396e-09
-1.32375e-07
-9.75639e-10
-1.13691e-07
5.11741e-09
-1.50441e-07
-3.51764e-09
-5.78748e-08
9.13734e-09
-1.813e-07
-3.17628e-08
-1.61525e-07
-1.92387e-08
-1.40797e-07
-5.68451e-09
-1.75085e-07
-1.76447e-10
-6.78354e-08
3.00684e-09
-8.38935e-08
2.02764e-08
-1.68818e-07
-2.17832e-08
-1.26456e-07
9.84259e-09
-1.39158e-07
1.28467e-08
-1.37574e-07
-2.0035e-09
-1.44804e-07
-4.32422e-10
-1.38157e-07
-1.04478e-08
-1.36752e-07
-7.74122e-09
-1.08038e-07
-2.07463e-08
-1.04664e-07
-5.70439e-09
-1.19955e-07
-9.49885e-09
-3.04145e-09
7.65239e-09
-9.50535e-08
-5.15405e-08
-7.65921e-08
-2.43578e-08
-7.41193e-08
-2.55988e-08
-1.07036e-07
-4.135e-08
-7.74249e-08
3.12288e-09
-8.4646e-08
5.05872e-09
-1.02402e-07
1.60049e-08
-1.04172e-07
1.23842e-08
-7.78927e-08
-2.60493e-08
-9.1465e-08
3.12538e-08
-1.28727e-07
1.2183e-08
-1.20094e-08
2.45726e-08
-1.08211e-07
-2.55339e-08
-9.66483e-08
-8.93103e-10
-1.00495e-07
4.30199e-09
-1.1225e-07
7.92236e-09
-1.62263e-07
7.21377e-10
-1.60497e-07
7.01577e-08
-1.37036e-07
3.2734e-08
-1.06591e-07
-1.4826e-08
-1.21011e-07
4.81403e-09
-1.47664e-07
4.60402e-08
-1.45621e-07
1.61533e-08
-1.45174e-07
8.8164e-09
-1.71581e-07
1.29242e-09
-1.55028e-07
2.3102e-08
-1.49682e-07
-1.12061e-08
-1.72867e-07
1.3535e-08
-6.25631e-08
1.86713e-08
-2.02477e-07
-4.75887e-08
-1.63176e-07
-1.96792e-09
-1.52018e-07
-1.16439e-08
-1.52468e-07
-7.06811e-10
-1.4314e-07
-8.2434e-09
-1.44486e-07
-3.10561e-08
-1.29194e-07
-7.78306e-09
-4.83111e-09
-1.2786e-07
-5.3033e-08
-1.20594e-07
-5.6621e-08
-1.20011e-07
-3.48639e-08
-1.16817e-07
-3.18812e-08
-9.59104e-08
-4.63347e-08
-1.21097e-07
7.1366e-09
-1.35002e-07
8.53059e-09
-1.34169e-07
-6.0949e-09
-1.49881e-07
-3.04851e-09
-1.52849e-07
-9.8924e-09
-4.40293e-08
4.28142e-08
-1.7707e-07
-4.26326e-08
-1.36929e-07
-2.21022e-08
-1.40905e-07
-3.02959e-08
-1.12908e-07
-3.93621e-08
-1.18047e-07
3.08858e-08
-1.18258e-07
-8.21358e-09
-1.17856e-07
-2.58446e-09
-1.11586e-07
-1.15241e-09
-1.07014e-07
-8.09073e-09
-8.84021e-08
-9.56816e-09
-1.14533e-07
-5.63188e-09
-1.30895e-07
-2.87758e-09
-1.40868e-07
4.2877e-09
-1.59826e-07
1.71514e-08
-3.65557e-08
4.02313e-08
-1.51185e-07
-2.36109e-08
-1.40066e-07
-3.31249e-08
-1.3965e-07
-4.25457e-08
-1.15938e-07
4.11474e-08
-1.13459e-07
-5.66554e-09
-1.08119e-07
-5.71421e-09
-1.05875e-07
-1.26926e-08
-1.37963e-07
-2.72083e-08
-1.00042e-07
-6.44868e-09
-9.31915e-08
-1.36341e-08
-9.45985e-08
-8.09189e-09
-8.86254e-08
1.69654e-09
-1.12296e-07
-2.83954e-08
-1.23605e-07
-1.32981e-08
-1.38983e-07
-1.16388e-08
-1.3675e-07
-4.40369e-08
-1.1284e-07
-1.93915e-08
-1.09916e-07
2.13498e-09
-1.38531e-07
4.55678e-08
-1.3978e-07
1.22218e-08
-3.39056e-08
2.75111e-08
-1.27494e-07
-3.20995e-08
-1.09346e-07
-7.34093e-09
-8.32641e-08
-1.50924e-09
-9.97444e-08
-9.31411e-09
-9.78509e-08
-2.78668e-09
-9.33225e-08
-2.24151e-10
-1.16286e-07
3.08861e-08
-1.95395e-08
6.24185e-08
-1.00491e-07
-5.80999e-09
-9.11387e-08
2.23666e-08
1.29425e-09
5.07e-08
-8.36301e-09
1.45565e-08
-8.90515e-08
-3.05557e-08
-7.69203e-08
3.89826e-09
-6.53704e-08
-2.07346e-09
-7.20827e-08
7.33143e-09
-7.22279e-08
2.15551e-08
-1.01725e-07
1.81049e-08
-1.16079e-07
2.89269e-08
-9.97478e-08
2.1713e-09
-1.43862e-07
-3.47475e-09
-1.31438e-07
-1.42457e-08
-1.34185e-07
-8.89755e-09
-1.38814e-07
3.92275e-09
-1.40258e-07
-6.79828e-09
-1.52062e-07
-1.92501e-08
-1.39068e-07
-2.07771e-08
-1.30527e-08
-1.61661e-07
4.74394e-08
-1.4677e-07
-3.8223e-08
-1.59547e-07
-1.56772e-08
-1.62845e-07
-2.86173e-08
-4.03038e-08
-8.43645e-09
-1.95968e-07
4.323e-09
-1.59597e-07
-2.78411e-08
-1.55085e-07
-1.06078e-08
-1.51394e-07
-6.73952e-09
-1.53699e-07
-6.01992e-09
-1.11088e-07
-2.28086e-10
-1.33685e-07
-2.16039e-08
-1.39079e-07
-1.67083e-08
-1.64132e-07
-5.24373e-09
-3.82324e-08
-5.92306e-09
-1.22784e-07
-4.18476e-08
-1.14484e-07
-1.78505e-08
-1.12891e-07
-4.17758e-09
-1.10334e-07
-3.71045e-09
-1.02866e-07
-1.55588e-08
-8.12584e-08
-3.14978e-08
-1.11276e-07
2.43857e-08
-1.21888e-07
7.73357e-09
-1.24878e-07
7.27762e-09
-1.14201e-07
6.40819e-09
-8.14677e-08
7.0873e-09
-1.00226e-07
-4.85284e-09
-1.25379e-07
-9.25143e-09
-4.63745e-08
3.9454e-08
-1.16875e-07
-4.43058e-08
-1.07016e-07
-1.56247e-08
-9.75785e-08
-1.51521e-08
-9.93662e-08
-1.19006e-08
-1.1496e-07
-1.16148e-08
-1.0697e-07
-1.45043e-08
-1.10127e-07
-1.04769e-08
-9.23349e-08
-2.71031e-08
-1.53817e-07
9.66968e-09
-1.46651e-07
1.89711e-08
-1.56579e-07
-3.3701e-09
-1.74625e-07
4.6254e-09
-1.00787e-07
4.31055e-08
-9.73607e-08
-2.17899e-08
-5.85257e-08
-3.6103e-08
-1.5707e-07