/*--------------------------------*- C++ -*----------------------------------*\
  =========                 |
  \\      /  F ield         | OpenFOAM: The Open Source CFD Toolbox
   \\    /   O peration     | Website:  https://openfoam.org
    \\  /    A nd           | Version:  12
     \\/     M anipulation  |
\*---------------------------------------------------------------------------*/
FoamFile
{
    format      ascii;
    class       surfaceScalarField;
    location    "0.55";
    object      phi.water_0;
}
// * * * * * * * * * * * * * * * * * * * * * * * * * * * * * * * * * * * * * //

dimensions      [0 3 -1 0 0 0 0];

internalField   nonuniform List<scalar> 
7375
(
-2.44946e-07
7.07181e-08
-1.20149e-07
-7.40944e-08
-2.70653e-08
-8.85437e-08
-1.22289e-08
-1.46483e-08
6.27677e-09
-1.83663e-08
2.00346e-08
-1.36273e-08
1.58257e-07
1.88558e-08
7.55595e-08
-7.61262e-08
6.55764e-08
1.07174e-08
8.21622e-08
-1.56834e-08
7.81714e-08
4.03625e-09
9.29564e-08
-1.66843e-08
9.89699e-08
-6.01392e-09
9.78643e-08
3.16045e-09
9.14963e-08
6.44648e-09
9.81489e-08
-8.4968e-09
1.08022e-07
-9.77462e-09
1.22552e-07
-1.34787e-08
1.11696e-07
1.07994e-08
9.36691e-08
1.89718e-08
2.13047e-07
4.06291e-08
1.0883e-07
-5.63425e-08
4.52788e-08
1.01583e-08
7.61298e-08
2.20063e-08
9.42085e-08
-1.81148e-08
1.11258e-07
-1.68813e-08
1.15871e-07
-4.52411e-09
1.34683e-07
-1.74172e-08
1.11639e-07
-3.02937e-08
1.1414e-07
-3.63285e-09
1.11001e-07
3.05927e-09
1.13997e-07
-3.01381e-09
1.14168e-07
-1.33915e-09
1.16296e-07
-2.10698e-09
9.51318e-08
2.23583e-08
2.21456e-07
3.2566e-08
9.44931e-08
-3.13613e-08
1.26621e-07
-3.34149e-08
1.43842e-07
-1.99513e-08
1.55307e-07
-9.91243e-09
1.66686e-07
-1.13951e-08
1.82588e-07
-1.79275e-08
2.00179e-07
-1.57462e-08
2.24132e-07
-1.98323e-08
2.21251e-07
2.92441e-09
2.01056e-07
1.79888e-08
1.73546e-07
2.72444e-08
1.46618e-07
2.66207e-08
1.16513e-07
2.97621e-08
1.09506e-07
6.96697e-09
1.01109e-07
8.32426e-09
1.07424e-07
-6.28881e-09
1.21963e-07
-1.31301e-08
1.12616e-07
9.4413e-09
1.07181e-07
4.21311e-09
1.14551e-07
-6.24984e-09
1.06622e-07
6.89778e-09
1.25288e-07
-2.01503e-08
1.30334e-07
-2.40245e-09
1.19678e-07
1.0633e-08
1.2242e-07
-3.87635e-09
1.06926e-07
1.53506e-08
9.52609e-08
1.26423e-08
8.56199e-08
9.50903e-09
9.41294e-08
-9.33099e-09
9.60109e-08
-2.96248e-09
9.62426e-08
-1.2032e-09
1.02612e-07
-4.31748e-09
1.07215e-07
-3.46096e-09
1.37152e-07
-2.99821e-08
5.68305e-08
2.68817e-08
9.81383e-08
1.20604e-08
9.86219e-08
-5.43101e-10
1.11194e-07
-1.46889e-08
-1.20428e-08
-9.86881e-08
3.15558e-08
-1.02098e-07
-5.17248e-08
9.93387e-09
-3.35516e-08
-8.32665e-08
-7.96906e-08
-4.85157e-08
-5.26277e-08
-3.94624e-08
-2.27725e-08
-1.10732e-08
-1.01561e-08
7.87674e-08
-5.49759e-09
-5.85341e-09
-6.41857e-08
8.89414e-09
-3.08056e-08
3.34191e-08
-1.99857e-08
1.87078e-08
-1.97362e-09
1.20618e-08
6.25382e-10
1.23064e-08
2.78692e-09
2.606e-08
-7.88452e-09
2.69312e-08
-9.47322e-09
5.18508e-08
-3.45215e-08
7.53274e-08
-3.75789e-08
7.66591e-08
9.37246e-09
5.93899e-08
3.64166e-08
7.56619e-08
2.44633e-08
1.36482e-07
4.36931e-08
-9.27668e-09
-4.70593e-09
-3.48008e-08
-6.53624e-09
4.52261e-09
-3.81164e-09
5.79714e-09
-1.82148e-08
1.95346e-08
-1.80213e-08
1.7947e-08
-1.56307e-08
9.80449e-09
3.10207e-08
2.62385e-08
-2.03321e-08
3.14148e-08
-1.8521e-09
3.70441e-08
-8.3228e-09
4.29799e-08
-7.71334e-09
5.99853e-08
-1.91338e-08
1.85402e-08
1.14526e-08
8.53723e-08
1.93703e-08
-2.32482e-09
2.82725e-09
4.45425e-09
1.31337e-08
1.89838e-08
-3.48778e-08
3.54664e-08
-2.71271e-08
5.92309e-08
-3.38611e-08
7.78507e-08
-3.5753e-08
1.04515e-07
-4.22989e-08
1.20523e-07
-3.49579e-08
1.53829e-07
-3.16541e-08
1.60586e-07
8.02494e-09
1.51168e-07
3.54941e-08
1.29873e-07
4.81307e-08
1.25533e-07
3.50604e-08
9.32136e-08
3.96157e-08
9.54526e-08
6.02462e-09
9.04224e-08
-1.20728e-09
1.07777e-07
-2.96957e-08
8.43643e-08
3.29977e-08
9.11014e-08
-3.37587e-09
9.1465e-08
-5.62659e-09
1.11213e-07
-1.06516e-08
1.06388e-07
-1.55347e-08
1.19138e-07
-1.85385e-08
1.38264e-07
-9.99638e-09
1.35629e-07
-1.22788e-09
1.29843e-07
2.27361e-08
1.14768e-07
2.90428e-08
8.45039e-08
3.88138e-08
5.78355e-08
7.16576e-08
2.33682e-08
3.21073e-08
2.12982e-08
1.60717e-10
9.8925e-09
7.0157e-09
2.18895e-08
-1.51019e-08
1.43901e-07
8.84957e-09
-1.36182e-08
-2.8898e-08
5.57681e-08
-3.79357e-09
5.95568e-09
-4.2332e-09
3.8203e-08
5.96654e-09
1.04361e-08
-1.18293e-07
4.85729e-09
-9.14382e-08
-5.10072e-08
-5.24725e-08
-6.7114e-08
-6.71606e-08
-6.44677e-08
-7.00474e-08
-5.07966e-08
-6.02533e-08
-3.27995e-08
-5.42253e-08
-1.62883e-08
-4.98816e-08
-1.03441e-08
-6.70646e-08
-4.88596e-08
-1.37444e-07
-1.18279e-08
-1.08645e-07
5.082e-09
-1.15439e-07
3.73144e-09
-1.0886e-07
-5.95388e-09
-1.0854e-07
2.40981e-09
-1.16001e-07
-1.70555e-09
-1.76569e-07
-2.53853e-09
-1.55019e-07
-3.27498e-09
-9.54866e-08
1.08897e-08
-1.3084e-07
-5.96745e-08
-1.66003e-07
1.89743e-08
-1.01862e-07
1.41693e-08
-8.60542e-08
2.58062e-08
-1.42039e-07
5.09165e-08
-1.53513e-07
6.51899e-09
-1.26557e-07
-3.04574e-08
-1.24768e-07
-1.89172e-08
-1.10622e-07
-3.23491e-08
-1.12027e-07
-1.55132e-08
-1.34334e-07
3.64764e-10
-1.21942e-07
2.02378e-08
-1.11131e-07
-1.25535e-08
-1.02736e-07
-1.6718e-08
-8.84244e-08
-2.18029e-08
-5.7296e-08
-5.09774e-08
-6.13837e-08
1.60034e-08
-3.97415e-08
-2.27188e-09
-3.12586e-08
-6.08976e-09
-4.30353e-08
-2.80525e-08
-1.23365e-08
-1.30047e-08
5.85486e-09
-4.56582e-08
2.07916e-08
-4.94087e-08
3.24555e-08
-4.68457e-08
3.26551e-08
-4.22652e-08
5.10612e-08
-5.30036e-08
7.19044e-08
-5.32382e-08
5.49253e-08
2.53064e-08
1.28617e-08
2.44149e-08
5.22089e-08
6.15738e-08
3.36891e-08
5.39344e-08
1.75399e-08
5.53649e-08
-1.89428e-08
4.34459e-08
-3.61163e-08
1.54045e-08
5.50337e-08
3.97848e-08
-5.35958e-08
-1.81596e-08
-4.60063e-08
-1.05304e-08
-4.57945e-08
-5.83828e-09
-2.87627e-08
-2.78662e-08
-3.49906e-08
-8.98976e-09
-4.11884e-08
-1.23406e-08
-4.1476e-08
-1.02339e-08
-4.0001e-08
-3.12765e-09
-6.67787e-08
-3.38323e-09
-6.23177e-08
7.74363e-08
-7.25503e-08
4.78186e-08
-7.8039e-08
2.43763e-08
-6.30096e-08
1.72192e-08
-7.50764e-08
1.15799e-08
-1.14218e-07
-7.27875e-09
-6.76231e-08
-8.4128e-09
-6.19545e-08
3.72851e-09
-6.83485e-08
-2.18781e-08
-8.09597e-08
8.20455e-09
-9.70466e-08
1.18977e-08
-7.68439e-08
-1.43824e-08
1.00403e-08
-1.50592e-07
3.08354e-09
-1.18602e-07
-5.13177e-08
-6.68407e-08
-1.15742e-07
-8.88468e-08
-4.33685e-08
-1.04282e-07
-3.53622e-08
-8.71063e-08
-4.89115e-08
-8.34486e-08
-2.05879e-08
-9.10857e-08
-3.64629e-09
-9.49141e-09
3.11929e-08
-1.65389e-07
-1.61254e-08
-1.54837e-07
-5.36251e-09
-1.55085e-07
5.5027e-09
-1.6178e-07
7.40117e-10
-1.4278e-07
-1.8234e-08
-1.90081e-07
4.31914e-08
-2.19654e-07
2.6482e-08
-2.4173e-07
2.08491e-08
-2.36586e-07
5.68663e-09
-1.52798e-07
1.64482e-08
-2.47609e-07
-4.6071e-08
-2.1572e-07
-1.97976e-08
-1.80958e-07
-8.33274e-09
-1.72056e-07
-1.01541e-08
-1.58531e-07
-3.63362e-09
-1.36284e-07
-2.76936e-10
-1.37816e-07
-1.8776e-08
-1.25025e-07
-4.67462e-08
-1.49181e-07
8.64244e-09
-1.52628e-07
3.73888e-09
-1.67975e-07
-1.6193e-08
-1.26942e-07
5.37368e-10
-1.25275e-07
-1.84017e-08
-1.23584e-07
-2.47422e-08
-9.79148e-09
-5.41644e-09
-9.98142e-08
-5.11593e-08
-8.15517e-08
-2.15758e-08
-1.01653e-07
1.41564e-08
-1.17251e-07
-1.50002e-08
-1.27908e-07
-5.64135e-08
-7.88646e-08
-3.86628e-08
-7.59421e-08
-5.2835e-08
-5.41439e-08
-6.9674e-08
-3.9881e-08
-5.65278e-08
-5.98048e-08
-3.27421e-08
1.73927e-08
2.99117e-08
-1.00365e-07
-1.43958e-08
-1.15221e-07
3.83904e-08
-1.05527e-07
5.18794e-08
-7.83844e-08
8.19408e-08
-8.1106e-08
5.64485e-08
-1.43525e-07
5.08765e-08
-1.22592e-07
4.91123e-08
-1.19294e-07
3.60769e-08
-1.31268e-07
-4.96867e-09
-1.34761e-07
-7.03665e-09
-1.59602e-07
-3.23915e-08
-1.07127e-07
-2.7913e-08
-9.03914e-08
-2.70949e-08
-9.15789e-08
-1.1153e-08
-1.05587e-07
3.81294e-09
-1.01295e-07
-8.50708e-09
5.40796e-09
5.04191e-08
-1.05259e-07
3.15097e-08
-9.59997e-08
3.74961e-08
-9.40755e-08
2.10099e-08
-9.29643e-08
1.51598e-08
-1.02609e-07
2.12253e-08
-1.03254e-07
-5.51257e-09
-7.26834e-08
-3.93854e-08
-1.11349e-07
4.23563e-08
-1.25026e-07
-9.79958e-09
-1.47699e-07
-2.2631e-08
-1.28159e-07
-7.44179e-09
-1.52105e-07
6.24288e-08
2.2474e-08
-1.83092e-07
1.7964e-08
-1.27107e-07
-7.14927e-08
-1.63845e-08
-6.00064e-08
-1.38182e-07
-8.11211e-08
-1.1167e-07
-6.15139e-08
-9.63605e-08
-6.389e-08
-5.03947e-08
-6.65542e-08
-2.09289e-08
-3.3376e-08
2.23578e-08
-1.26352e-08
1.6849e-08
-1.05616e-08
2.16083e-08
-1.01163e-08
1.18647e-08
1.54639e-08
-3.03134e-08
4.27294e-08
3.24214e-08
7.92229e-08
-1.01502e-07
2.00916e-08
-9.67809e-08
2.14451e-08
-9.86627e-08
2.15424e-08
-1.08079e-07
1.40955e-08
-9.51693e-08
3.3703e-09
-1.23312e-07
-1.79285e-08
-1.26996e-07
-1.59127e-08
-1.20184e-07
-1.50595e-08
-1.19506e-07
-1.07294e-08
-1.14812e-07
-8.32803e-09
-1.12987e-07
-2.10519e-09
-1.40973e-07
9.20929e-09
-3.94154e-08
1.0585e-08
-1.51123e-07
-3.70853e-08
-9.4123e-08
-5.3805e-08
-1.15562e-07
4.45094e-09
-1.02963e-07
-1.20567e-08
-1.00054e-07
-2.13103e-08
-9.13965e-08
-3.36522e-08
-5.54628e-08
-4.17205e-08
-1.07695e-07
5.50753e-10
-1.15239e-07
-1.50534e-08
-1.36325e-07
-1.94711e-08
-1.31426e-07
-1.83051e-08
-1.18311e-07
-1.39316e-08
-1.03471e-07
-5.29616e-08
-7.42233e-08
-8.20829e-08
-1.0236e-07
-4.15374e-08
-1.01514e-07
-5.73818e-08
-1.36098e-07
1.84208e-09
-1.30643e-07
2.39072e-08
-1.71483e-07
2.45479e-08
-1.7268e-07
3.91842e-08
-1.44945e-07
2.41809e-08
-1.0234e-07
-1.43203e-08
-1.07161e-07
6.39827e-08
-1.00914e-07
4.36014e-08
-9.15245e-08
3.86938e-08
-7.57575e-08
1.9942e-08
-1.01611e-07
2.08854e-08
-9.35664e-08
-1.50816e-08
-1.19738e-07
-6.21995e-09
-1.35237e-07
-1.40778e-08
-1.2765e-07
-3.50436e-08
-1.4829e-07
9.27618e-09
-2.02633e-07
5.54964e-08
-1.11035e-07
6.25099e-08
-8.00446e-08
2.08634e-08
-1.73455e-07
-3.20457e-08
-1.79896e-07
-8.57725e-09
-1.29898e-07
2.34396e-08
-1.25815e-07
9.85279e-09
-1.33692e-07
2.88859e-08
-1.52901e-07
1.21368e-08
-2.58033e-08
-6.0184e-09
-1.91418e-07
-5.56975e-09
-1.70088e-07
2.23786e-08
-2.06852e-07
1.61005e-08
-8.57881e-08
3.12588e-08
-1.67114e-07
-1.41595e-08
5.82722e-09
-1.30702e-07
-5.33213e-09
-1.05352e-07
-6.97819e-08
-6.61848e-08
-9.47858e-08
-1.57085e-07
-4.2609e-08
-1.12678e-07
-5.25054e-08
-2.19582e-07
-6.33513e-08
-1.30906e-07
-4.77434e-08
-1.29656e-07
-3.49836e-08
-1.11853e-07
-3.08824e-08
-9.75919e-08
-2.51885e-08
-9.34005e-08
-1.456e-08
-6.95017e-08
-8.27776e-09
-7.96782e-08
5.29052e-08
-7.81221e-08
7.60819e-08
-1.12828e-07
5.44462e-08
-1.25784e-07
3.46192e-08
-1.26088e-07
2.20652e-08
-1.18576e-07
6.58336e-09
-1.1164e-07
-3.53033e-09
-1.13619e-07
-1.59499e-08
-1.1198e-07
-1.75529e-08
-1.05662e-07
-2.13775e-08
-1.00803e-07
-1.55893e-08
-9.80646e-08
-1.10665e-08
-1.03058e-07
2.88736e-09
-8.85492e-08
-5.24583e-09
-4.34621e-08
-3.45024e-08
-1.07347e-07
2.57042e-08
-1.72061e-08
1.60258e-08
-1.27187e-07
-4.42816e-08
-1.15237e-07
-2.42544e-08
-1.14249e-07
-2.2298e-08
-1.00945e-07
-4.84815e-08
-1.67464e-08
3.42548e-08
-1.17871e-07
-5.52762e-08
-7.69752e-08
-5.51717e-08
-7.77003e-08
-1.8542e-08
-7.62264e-08
-1.96089e-08
-6.9872e-08
-2.035e-08
-8.0598e-08
-4.33791e-08
-5.38567e-08
4.92426e-08
-2.23315e-07
-3.32465e-08
-1.08683e-07
-1.14864e-08
-1.96343e-07
-6.6958e-08
-1.87442e-07
1.50066e-08
-2.00476e-07
3.7715e-08
-1.99236e-07
3.95607e-08
-1.96643e-07
1.77694e-08
-7.20963e-08
1.99866e-08
-1.88767e-07
2.22727e-08
-1.70353e-07
2.56323e-08
-1.585e-07
2.6841e-08
-1.45657e-07
7.09955e-09
-1.69429e-07
-8.30572e-09
-1.45609e-07
1.40618e-08
-1.57517e-07
5.68777e-09
-1.80449e-07
7.01385e-09
-9.67153e-08
4.211e-08
-9.76708e-08
1.22148e-08
-1.89013e-07
-1.10064e-08
-1.51379e-07
2.23106e-08
-1.33602e-07
3.08673e-09
-1.55846e-07
-1.01286e-08
-1.69999e-07
5.57584e-09
-1.63755e-07
1.57645e-08
-1.73795e-07
1.9893e-08
-1.8203e-07
3.88937e-08
-1.96038e-07
2.39015e-08
-8.67451e-08
4.57488e-08
-1.99565e-07
-5.07533e-08
-1.90691e-07
1.31423e-08
-1.75524e-07
9.338e-10
-1.49178e-07
4.91352e-09
-1.48212e-07
-1.52686e-08
-2.95444e-08
-1.4817e-07
-3.75975e-08
-1.11639e-07
-7.75937e-08
-2.92762e-08
-9.69039e-09
-1.67292e-07
-6.11524e-08
-1.68567e-07
-5.17448e-08
-1.88118e-07
-4.31615e-08
-2.01749e-07
-3.80902e-08
-1.94673e-07
-4.36173e-08
-1.88254e-07
-3.7236e-08
-1.84646e-07
-2.84659e-08
-1.80607e-07
-1.66963e-08
-1.55159e-07
-3.25479e-08
-1.30071e-07
2.91437e-08
-1.28166e-07
7.62403e-08
-1.16924e-07
4.14897e-08
-1.15016e-07
3.15183e-08
-1.09243e-07
1.62917e-08
-9.95915e-08
-2.053e-09
-8.85551e-08
-1.45673e-08
-9.45497e-08
-1.09712e-08
-8.88069e-08
-2.32962e-08
-9.5752e-08
-1.44329e-08
-6.50581e-08
-4.62837e-08
-6.42988e-08
-1.18262e-08
-8.67299e-08
2.62029e-08
-8.39618e-08
-8.01432e-09
1.69812e-08
2.28194e-08
-9.91273e-08
-1.69039e-08
-6.06099e-08
-2.24265e-08
-5.42906e-08
-5.16821e-08
-8.76573e-08
9.11216e-09
-9.99776e-08
-1.01034e-08
9.62601e-09
2.31822e-09
-6.23438e-08
-5.08732e-08
-7.9098e-08
-3.91515e-08
-9.29144e-08
-4.31654e-08
-1.00335e-07
-1.13107e-08
-1.11616e-07
-8.52772e-09
-1.33261e-07
-2.74939e-10
-1.7907e-08
1.3608e-09
-1.77183e-07
-3.11866e-09
-1.53198e-07
-4.22474e-09
-1.61153e-07
-5.0586e-09
-9.3831e-08
2.62468e-08
-2.22386e-07
-1.42164e-08
-2.13526e-07
2.88548e-08
-2.17353e-07
4.15741e-08
-2.22319e-07
2.06271e-08
-5.21556e-08
1.2973e-08
-1.79115e-07
-7.44977e-09
-1.54626e-07
-6.84368e-10
-1.41988e-07
1.42034e-08
-1.3236e-07
-2.52881e-09
-1.09686e-07
-3.12983e-08
-1.21869e-07
2.62448e-08
-1.30298e-07
1.4117e-08
-1.36955e-07
1.38113e-08
-1.14919e-07
1.96442e-08
-1.18313e-07
1.56096e-08
-1.46197e-07
1.67649e-08
-1.37098e-07
1.3212e-08
-1.36025e-07
2.01356e-09
-1.49767e-07
3.61351e-09
-1.46469e-07
2.27871e-09
-1.44447e-07
1.3742e-08
-1.45715e-07
2.09587e-08
-1.74205e-07
1.60341e-08
-1.33783e-07
3.45568e-08
-1.71462e-07
2.80691e-08
-5.40722e-08
4.60098e-08
-1.57717e-07
-4.04966e-08
-1.21921e-07
-3.64708e-08
-1.30301e-07
1.31598e-08
-1.24525e-07
-2.10445e-08
-4.6201e-08
-1.2621e-07
1.69596e-07
-3.00367e-08
8.2564e-08
-1.45899e-07
-5.44492e-08
-1.85872e-07
-2.19871e-08
-2.08069e-07
-2.95482e-08
-2.13892e-07
-3.56563e-08
-1.98586e-07
-5.08521e-08
-1.89237e-07
-5.30627e-08
-1.95477e-07
-3.05527e-08
-1.8735e-07
-3.66762e-08
-1.98693e-07
-1.11491e-08
-1.06189e-07
3.71458e-08
-8.85418e-08
1.27594e-08
-1.95081e-07
-2.846e-08
-9.29948e-08
-5.77992e-09
-1.03655e-07
4.08125e-08
-1.06299e-07
1.87439e-08
-1.23147e-07
1.4645e-08
-1.20238e-07
-1.86613e-08
-1.37293e-07
-4.74255e-08
-1.21885e-07
1.55004e-08
-1.45651e-07
9.23875e-09
-4.9117e-08
1.60706e-08
-4.42089e-08
-1.65658e-08
-1.64975e-07
-6.48836e-08
-9.39463e-08
-2.71202e-08
-6.63506e-08
-4.051e-09
-6.59977e-08
-1.59205e-08
-8.09142e-08
-9.08562e-09
4.51625e-08
-1.82546e-08
-8.49148e-08
-2.02532e-08
-7.06239e-08
-2.36739e-08
-4.89715e-08
-1.93576e-08
-8.32393e-08
-1.76239e-08
-1.02845e-07
-2.09947e-08
-1.44984e-07
-1.01583e-09
-1.30641e-07
-2.41737e-08
-1.48968e-07
8.27944e-09
-1.69065e-07
1.80797e-08
-3.68014e-08
3.2062e-08
-1.43422e-07
-5.19625e-08
-1.22296e-07
-2.67988e-08
-1.2258e-07
-6.02203e-09
-6.99753e-08
-2.66252e-08
-1.33332e-07
4.86442e-08
-1.39398e-07
3.49211e-08
-1.76796e-07
2.62773e-08
-1.9315e-07
3.67708e-08
-3.92081e-08
7.11505e-08
-1.39808e-07
-6.4864e-08
-1.31008e-07
-1.09104e-08
-1.49228e-07
3.20961e-08
-1.6551e-07
1.20643e-08
-4.82871e-08
1.21304e-08
-1.79387e-07
-1.05185e-09
-1.71229e-07
4.21278e-09
-1.66105e-07
8.68687e-09
-1.47504e-07
2.73851e-09
-1.37669e-07
5.77486e-09
-1.55476e-07
3.45714e-08
-1.48696e-07
6.43263e-09
-1.46566e-07
-1.16452e-10
-1.43667e-07
7.14303e-10
-1.40525e-07
-8.62868e-10
-1.34276e-07
7.49303e-09
-1.468e-07
3.53415e-08
-1.36692e-07
5.86707e-09
-1.21352e-07
1.81745e-08
-1.14672e-07
2.11034e-08
-8.67937e-08
1.79484e-08
-1.32331e-07
4.62759e-09
-3.28398e-08
2.32628e-08
-1.34108e-07
-4.28559e-08
-1.2072e-07
-3.74127e-08
4.81308e-08
-1.69342e-07
1.22481e-07
-9.47601e-08
5.10749e-08
-1.42695e-07
-5.24964e-10
-1.61615e-07
-1.85407e-10
-1.80756e-07
-1.17551e-08
-1.94459e-07
-1.97689e-08
-2.06939e-07
-4.04618e-08
-1.95978e-07
-6.73987e-08
-2.10018e-07
-1.64885e-08
-2.13092e-07
-3.3981e-08
-2.03515e-07
-1.85527e-08
-1.51706e-07
-1.52656e-08
-1.49211e-07
1.02642e-08
-1.82544e-07
5.1101e-09
-4.44246e-08
1.55418e-08
-1.32426e-07
-2.71338e-08
-1.05191e-07
-8.76675e-09
-8.3565e-08
-7.19977e-09
-9.32987e-08
-9.77208e-09
1.0474e-08
7.11524e-09
-4.80432e-08
-8.36265e-08
-3.50823e-08
-4.16581e-09
2.40073e-09
-2.15752e-08
3.94093e-09
-1.81065e-08
-2.47274e-08
-3.61754e-08
1.22111e-08
-6.41836e-08
6.11095e-09
2.08973e-09
-3.85848e-08
2.85728e-08
-8.34952e-08
3.48703e-08
2.44499e-08
3.53754e-08
-1.13445e-07
-4.10778e-08
-1.11905e-07
-2.49596e-08
-1.08911e-07
-2.25483e-08
-1.2053e-07
-6.00574e-09
-1.35706e-07
-4.43382e-09
-1.30342e-07
-6.43439e-09
-1.17021e-07
-3.96328e-08
-1.39339e-07
3.09125e-08
-1.45308e-07
2.23822e-08
-1.28907e-07
1.51743e-08
-1.65423e-07
-1.46612e-08
-1.76665e-07
-1.58298e-08
-2.10648e-07
-2.52594e-08
-6.37108e-08
3.8939e-08
-1.65028e-07
-7.32303e-09
-1.52121e-07
1.87796e-08
-1.57957e-07
3.21129e-08
-1.54059e-07
3.44848e-08
-1.27838e-07
4.36256e-08
-7.67484e-08
4.39041e-08
-8.73239e-08
1.33895e-09
-1.70806e-07
-4.12893e-08
-1.64664e-07
2.50015e-09
-3.32082e-08
4.10766e-08
-1.67108e-07
-2.57019e-08
-1.51585e-07
-1.13104e-08
-1.45285e-07
2.29891e-09
-1.18261e-07
-2.45365e-08
-1.4563e-07
3.31443e-08
-1.72169e-07
8.06559e-09
-1.34991e-07
2.22175e-08
-1.40977e-07
5.86933e-09
-1.14281e-07
-2.62487e-08
-1.42694e-07
2.75505e-08
-1.46589e-07
9.89253e-09
-1.71101e-07
8.10857e-09
-1.27155e-07
1.6136e-08
-1.24634e-07
1.4357e-08
-1.14482e-07
1.21194e-08
-9.40144e-08
-2.5191e-09
-1.11295e-07
2.09497e-08
-8.98291e-08
1.77906e-09
-1.35953e-07
1.44486e-09
-4.31776e-08
3.03386e-08
-1.67996e-08
-2.66176e-07
5.96141e-08
-1.67116e-07
-5.54777e-09
-1.29415e-07
-3.01413e-08
-1.32687e-07
5.66708e-09
-1.32474e-07
-1.07268e-08
-1.30004e-07
-2.22394e-08
-1.45671e-07
-2.80205e-08
-5.1609e-08
2.89075e-10
-1.53378e-07
-7.07685e-08
-1.4175e-07
-4.68274e-08
-1.59767e-07
-5.18693e-08
-1.15785e-07
-6.82077e-09
-1.59723e-07
1.67001e-09
-1.22896e-07
1.92756e-08
-1.09175e-07
5.47018e-10
-1.27941e-07
-7.53072e-09
-1.24637e-07
-1.21608e-08
-1.18002e-07
-1.39092e-08
-1.19896e-07
-8.06033e-09
-1.14321e-07
3.77046e-10
-2.49188e-08
-1.31076e-08
-1.20585e-07
-6.43568e-08
-9.07686e-08
-5.31468e-08
-1.31783e-07
2.17973e-08
-1.51567e-07
-1.63921e-08
-7.05121e-08
1.36498e-08
-6.68941e-08
-2.18966e-09
-1.82411e-07
-1.64366e-08
-1.43627e-07
-2.40943e-09
-1.15382e-07
7.94663e-09
-9.39092e-08
-6.22308e-08
-1.11239e-07
-8.57863e-09
-1.0685e-07
-2.86568e-08
-1.30192e-07
1.73366e-08
-1.50416e-07
1.42561e-08
-1.80336e-07
1.97017e-08
-1.02635e-07
4.52034e-08
-2.19639e-07
-1.04943e-08
-1.93809e-07
7.69339e-10
-1.71526e-07
-7.26114e-09
-1.82003e-07
-5.9336e-09
-1.9601e-07
-3.82292e-09
-2.07284e-07
-1.38422e-08
-1.67527e-07
1.3104e-09
-1.85941e-07
1.10157e-08
-1.7716e-07
9.99926e-09
-1.58418e-07
1.30431e-08
-1.37809e-07
1.38761e-08
-1.07497e-07
1.33135e-08
-7.97574e-08
1.57168e-08
-8.29311e-08
5.3588e-09
-1.04099e-07
-2.07482e-08
-1.00353e-07
-2.3074e-09
-7.22843e-08
1.2589e-08
-9.36841e-08
-4.3019e-09
-1.04578e-07
-4.16079e-10
-1.23798e-07
2.00513e-08
-2.4347e-08
3.65389e-08
-1.38609e-07
-9.82001e-09
-1.21676e-07
-8.95784e-09
-1.16328e-07
1.56279e-08
-1.39796e-07
2.79113e-08
-4.3457e-08
3.79394e-08
-1.69269e-07
-5.08281e-09
-1.53443e-07
-5.93334e-09
-1.47844e-07
2.42735e-09
-1.39737e-07
8.19312e-09
-1.3136e-07
5.98102e-09
-1.24737e-07
5.49647e-09
-9.16969e-08
-3.55848e-08
-1.38427e-07
1.59671e-08
-1.0077e-07
1.65499e-08
-1.12679e-07
1.23272e-08
-9.26528e-08
9.05785e-09
-2.25198e-09
-2.92546e-07
-5.46739e-08
-9.07089e-08
1.87302e-08
-8.63695e-08
-2.69015e-08
-8.41984e-08
4.34573e-09
-1.33892e-07
-1.54107e-08
-9.21435e-08
-9.88601e-09
-9.60452e-08
-2.3378e-08
-6.71886e-08
-2.78924e-08
-9.08272e-08
-4.85236e-08
-1.03034e-07
-3.5548e-08
-1.14034e-07
-4.08697e-08
-1.04922e-07
-1.49321e-08
-9.53321e-08
-6.9581e-09
-7.24302e-08
-3.66352e-09
-6.85636e-08
-4.09844e-09
-7.77119e-08
9.17487e-10
-8.95464e-08
-3.26888e-10
-1.04431e-07
-9.12945e-11
-1.29316e-07
1.54911e-08
-1.77384e-07
-3.73099e-09
-1.30883e-07
-4.70344e-09
-1.51247e-07
-4.66689e-08
-7.29968e-08
2.85816e-08
-2.24119e-07
-3.81884e-08
-1.80665e-07
-6.88281e-09
-1.51481e-07
-1.55353e-08
-1.18841e-07
-3.51889e-08
-1.79759e-07
4.46496e-08
-1.78928e-07
-3.24069e-09
-1.99723e-07
-2.59941e-08
-7.74319e-08
2.88718e-08
-1.95655e-07
-5.3076e-08
-1.10208e-07
4.75989e-08
-2.20582e-07
-2.92272e-08
-1.94798e-07
-1.15281e-08
-1.77095e-07
3.56762e-09
-1.35771e-07
2.96687e-09
-1.50919e-07
3.37567e-09
-1.4977e-07
-3.7585e-10
-1.44955e-07
-1.22753e-08
-1.4271e-07
-8.17832e-09
-1.7988e-07
-1.77807e-08
-1.51038e-07
8.35895e-09
-1.56927e-07
5.64204e-09
-1.50049e-07
5.73926e-09
-1.44859e-07
4.80987e-09
-1.38478e-07
6.66135e-09
-1.35163e-07
1.05617e-08
-1.16025e-07
-5.82484e-09
-1.08265e-07
7.9577e-09
-1.15164e-07
1.10833e-08
-1.33497e-07
-2.62992e-09
-1.30043e-07
-4.39849e-09
-1.17244e-07
-2.10761e-10
-1.20724e-07
-8.21761e-10
-1.26771e-07
6.9251e-09
-1.14394e-07
7.67388e-09
-1.00177e-07
2.07824e-08
-1.16597e-07
5.41058e-09
-1.11767e-07
-1.40245e-08
-1.3243e-07
3.74313e-08
-1.31665e-07
2.71468e-08
-1.1422e-07
2.0107e-08
-1.24347e-07
5.04441e-09
-1.26981e-07
-3.299e-09
-1.23732e-07
-8.21105e-10
-1.3729e-07
2.17509e-08
-1.20734e-07
-1.04675e-08
-1.24894e-07
9.65602e-09
-2.90903e-08
2.77977e-08
-1.01721e-07
-6.86864e-08
-1.04967e-07
1.89278e-08
-1.0498e-07
1.23408e-08
-1.14736e-07
1.8815e-08
5.84005e-08
-3.38245e-07
-8.13331e-08
-7.75864e-08
-6.88676e-08
-7.2108e-08
-2.3231e-08
-7.55937e-08
9.23795e-09
-9.5357e-08
3.73821e-09
-9.69712e-08
-9.26155e-09
-9.87057e-08
-2.14231e-08
-1.00123e-07
-2.57529e-08
-1.12856e-07
-3.666e-08
-1.14762e-07
-3.36425e-08
-1.01181e-07
-5.50124e-08
-1.28351e-07
1.22373e-08
-1.29137e-07
-6.2437e-09
-1.35228e-07
1.01982e-09
-1.45051e-07
5.68226e-09
-1.41432e-07
-1.22243e-09
-1.5064e-07
7.34358e-09
-1.66173e-07
1.54414e-08
-1.5403e-07
4.88431e-09
-1.72355e-07
1.47828e-08
-1.63122e-07
-1.56012e-08
-6.75057e-08
1.82409e-08
-1.65716e-07
-3.17001e-08
-1.74568e-07
-2.93373e-08
-1.76101e-07
-5.40472e-09
-1.79088e-07
-1.43759e-08
-7.44837e-08
2.0733e-08
-1.95123e-07
-4.58033e-08
-1.8533e-07
-1.11427e-08
-1.87321e-07
2.8714e-08
-1.90149e-07
2.75548e-08
-1.15982e-07
3.44781e-08
-1.93349e-07
-3.4061e-08
-2.1541e-07
-9.06518e-09
-2.24015e-07
1.56011e-09
-2.08201e-07
-1.22468e-08
-1.73937e-07
-3.3391e-08
-1.70686e-07
1.8668e-09
-1.66512e-07
-6.16977e-09
-1.78838e-07
-1.66476e-09
-1.67318e-07
-1.78737e-08
-1.71744e-07
-1.33553e-08
-1.60862e-07
-2.43716e-09
-1.59479e-07
4.20216e-09
-1.52236e-07
-1.5037e-09
-1.49913e-07
2.48704e-09
-1.46139e-07
2.88664e-09
-1.36494e-07
9.1685e-10
-1.05431e-07
-3.72675e-08
-9.59967e-08
-1.47638e-09
-1.1401e-07
2.88027e-08
-1.16262e-07
-3.54641e-10
-1.24862e-07
4.20207e-09
-1.17147e-07
-7.92576e-09
-1.14584e-07
-3.38462e-09
-1.16529e-07
8.87025e-09
-1.18142e-07
9.36555e-09
-1.21197e-07
2.38373e-08
-1.4138e-07
2.41518e-08
-4.17091e-08
4.69753e-08
-2.01669e-07
-1.40345e-08
-1.38912e-07
1.73523e-08
-1.40642e-07
2.20628e-08
-1.21343e-07
-1.42547e-08
-1.32242e-07
7.60032e-09
-1.36866e-07
3.80251e-09
-1.60248e-07
-6.19443e-09
-1.16591e-07
-1.69613e-09
-1.20941e-07
1.28165e-08
-1.60667e-07
1.44138e-08
-4.76616e-08
2.97636e-08
-1.58941e-07
-2.86811e-08
-1.36312e-07
-1.01834e-08
-1.30899e-07
1.47381e-08
1.44766e-08
-1.70245e-07
-4.23711e-08
-1.29442e-07
-7.13006e-08
-1.58633e-08
2.9695e-08
-1.23047e-07
-4.06093e-08
-9.76489e-08
-2.29159e-08
-8.99844e-08
-1.58468e-08
-8.51831e-08
-2.62739e-08
-9.16321e-08
-2.0895e-08
-8.02383e-08
-4.80543e-08
-1.20459e-07
6.16741e-09
-3.41512e-08
1.92056e-08
-1.63407e-07
-7.07328e-08
-1.34918e-07
1.66833e-08
-1.85749e-07
-1.65868e-09
-1.46101e-07
2.08338e-08
-1.48872e-07
1.54826e-09
-1.51714e-07
1.01848e-08
-1.49666e-07
1.32357e-08
-1.50751e-07
4.43075e-09
-1.78131e-07
-1.13462e-08
-1.40772e-07
1.81896e-09
-1.28321e-07
5.66146e-09
-1.37537e-07
-2.24843e-08
-1.49579e-07
-1.88226e-08
-1.88791e-07
-1.97013e-08
-1.60808e-07
1.25295e-08
-1.43221e-07
2.93391e-09
-1.73649e-07
-1.53749e-08
-1.8296e-07
-3.69903e-09
-1.77544e-07
2.35945e-08
-1.56415e-07
8.23653e-09
-1.33895e-07
1.16059e-08
-1.52739e-07
-1.40058e-08
-1.38985e-07
-2.27282e-08
-1.76319e-07
-1.53303e-08
-1.85606e-07
-3.05317e-09
-1.73847e-07
7.81306e-09
-1.48225e-07
-2.20185e-08
-1.39692e-07
-1.47646e-08
-1.37367e-07
-5.3436e-09
-1.33477e-07
-2.17638e-08
-1.07442e-07
-3.93901e-08
-1.26324e-07
1.64448e-08
-1.30764e-07
8.64254e-09
-1.26647e-07
-5.62022e-09
-1.30384e-07
6.22421e-09
-1.284e-07
9.02467e-10
-1.43508e-07
1.45609e-08
-5.90671e-08
3.88185e-08
-4.78931e-08
-1.14423e-08
-1.38257e-07
-3.95136e-08
-1.37891e-07
-2.14558e-09
-1.2875e-07
-3.5322e-09
-1.30253e-07
-6.42229e-09
-1.05932e-07
-2.7991e-08
-1.27615e-07
3.08683e-08
-1.39261e-07
2.10112e-08
-1.31816e-07
1.63928e-08
-1.27181e-07
1.95167e-08
-1.12934e-07
3.2249e-08
-1.37498e-07
1.053e-08
-1.30543e-07
9.06573e-09
-1.37439e-07
-2.48058e-08
-1.57352e-07
6.00237e-08
-1.4467e-07
-5.08144e-09
-1.49273e-07
8.40533e-09
-1.50601e-07
-4.86634e-09
-1.22646e-07
-2.9973e-08
-1.3738e-07
2.89517e-08
-1.40437e-07
1.60531e-08
-1.23036e-07
1.09156e-08
-1.32078e-07
-1.70358e-08
-1.0362e-07
-3.86406e-08
-8.52866e-08
-4.65216e-09
6.70471e-09
-2.13935e-07
1.73589e-08
-5.8512e-08
-1.10651e-08
-1.07418e-07
-7.8406e-08
-1.15989e-07
-3.24534e-08
-1.18756e-07
-1.89378e-08
-1.09204e-07
-2.65025e-08
-1.16539e-07
-1.91338e-08
-1.26984e-07
-9.27367e-09
-4.46833e-08
2.77278e-08
-1.66738e-07
-3.06677e-08
-1.5061e-07
1.34464e-09
-7.17698e-08
1.16932e-08
-1.63612e-07
-4.80342e-08
-1.49913e-07
-1.70111e-08
-1.3234e-07
3.26038e-09
-1.38382e-07
7.59017e-09
-1.31893e-07
3.65741e-09
-1.25081e-07
6.42403e-09
-1.23644e-07
2.99229e-09
-1.3791e-07
3.03574e-09
-1.30786e-07
-6.64044e-09
-1.58293e-07
-2.03402e-08
-1.28699e-07
2.49859e-09
-1.29963e-07
-1.75589e-08
-1.46774e-07
-2.68906e-09
-1.36203e-07
1.95827e-09
-1.38128e-07
4.9086e-09
-1.38671e-07
-1.48325e-08
-1.18189e-07
-2.41808e-08
-1.39253e-07
4.39683e-08
-1.38481e-07
7.46502e-09
-1.33217e-07
6.34104e-09
-1.28618e-07
-1.86043e-08
-1.0473e-07
-4.57797e-08
-1.20874e-07
2.01405e-09
-1.12976e-07
-1.21716e-08
-1.28456e-07
-2.95122e-08
-7.77798e-08
-2.02665e-08
-7.71841e-08
-1.55169e-08
-7.61455e-08
-6.38202e-09
-9.96815e-08
9.95465e-10
6.72935e-09
1.3223e-08
-1.14097e-07
-2.16176e-08
-1.02126e-07
-3.32833e-09
-1.04225e-07
-3.52082e-09
-1.06684e-07
8.59556e-09
-1.02269e-07
-3.51248e-09
-8.59971e-08
-1.71092e-09
-9.25772e-08
-7.01578e-09
-5.73438e-08
5.75249e-09
-8.99181e-08
-7.92724e-09
-8.66615e-08
-5.38016e-09
-9.88187e-08
8.62516e-09
-1.34094e-07
2.74853e-08
-4.65736e-08
4.40807e-08
-1.72159e-07
-3.59239e-09
-1.58915e-07
9.42771e-09
-1.54372e-07
1.17302e-08
-1.50478e-07
1.56231e-08
-1.39084e-07
2.08545e-08
-1.41794e-07
1.32406e-08
-1.5865e-07
2.40573e-08
-6.63974e-08
4.32784e-08
-1.99015e-07
-1.85324e-08
-1.5484e-07
3.74464e-09
-1.67297e-07
2.08629e-08
-1.84757e-07
1.0709e-08
-8.5507e-08
3.13033e-08
-1.96122e-07
-1.845e-08
-1.74946e-07
-4.95826e-09
-1.6689e-07
2.74872e-09
-1.88418e-07
4.49274e-09
-9.2148e-08
2.35847e-08
-1.00707e-07
3.90708e-09
-1.89223e-08
-2.16924e-07
8.63614e-08
-3.10358e-08
2.55932e-08
-1.0128e-07
-5.98458e-09
-1.14064e-07
-1.86369e-08
-1.22283e-07
-1.07195e-08
-1.36956e-07
-1.22249e-08
-1.3842e-07
-1.74747e-08
-1.42164e-07
-5.62463e-09
-1.23796e-07
9.35898e-09
-1.50453e-07
-4.01174e-09
-1.43852e-07
-5.20371e-09
-1.25492e-07
-6.78647e-09
-1.42467e-07
-3.15494e-08
-1.33864e-07
-2.56149e-08
-1.27764e-07
-2.81123e-09
-1.62282e-07
-9.20032e-09
-1.17151e-07
1.09539e-08
-1.16563e-07
4.64042e-09
-1.15678e-07
2.1071e-09
-1.11806e-07
-8.36738e-10
-1.10641e-07
-7.80569e-09
-1.21768e-07
-9.0066e-09
-1.09261e-07
-1.00084e-08
-1.22668e-07
-4.1527e-09
-1.31086e-07
5.72927e-09
-1.31624e-07
1.15294e-09
-1.74404e-07
-5.82085e-09
-1.52225e-07
1.77307e-08
-4.05303e-08
2.34264e-08
-1.34311e-07
-1.95352e-08
-1.16652e-07
-1.15649e-08
-1.09299e-07
-1.00154e-09
-1.23066e-07
-4.83729e-09
-2.75994e-08
1.79239e-08
-1.25081e-07
-5.7768e-08
-1.07228e-07
-3.14251e-08
-1.13746e-07
-2.29938e-08
-8.98012e-08
-4.48761e-08
-1.10572e-07
5.25392e-09
-1.21765e-07
4.74551e-09
-1.31432e-07
9.32206e-09
-1.2109e-07
2.88086e-09
-1.35726e-07
-5.74568e-09
-1.3957e-07
5.15683e-10
-1.4043e-07
-1.22833e-09
-1.18731e-07
-1.31029e-08
-1.1103e-07
-1.24245e-08
-9.5506e-08
-1.72349e-08
-6.87963e-08
-3.40729e-08
-9.63134e-08
3.33285e-08
-1.07877e-07
3.6369e-09
-6.93751e-08
-4.38823e-08
-9.36013e-08
3.25197e-08
-1.27968e-07
1.01946e-08
-6.40874e-08
3.18616e-08
-7.28547e-08
5.24758e-09
-6.44309e-08
1.65474e-09
-6.11334e-08
7.78218e-09
-7.25389e-08
2.64051e-08
-6.87473e-08
1.7063e-08
-3.94063e-08
-1.56982e-08
-5.91285e-08
4.43768e-08
-4.75148e-08
3.06306e-08
-8.81867e-08
2.05457e-08
-1.11149e-07
2.64344e-08
-1.27964e-07
3.88127e-08
-1.39286e-07
2.22576e-08
-1.2582e-07
1.75185e-08
-1.54372e-07
1.00005e-08
-1.54581e-07
-4.74905e-09
-1.49929e-07
-1.90297e-09
-1.50359e-07
4.92376e-09
-1.34461e-07
7.68777e-09
-1.27461e-07
-3.09288e-09
-1.257e-09
-2.68549e-07
-1.2543e-07
-1.44486e-07
7.99724e-09
-1.3822e-07
-6.23215e-09
-1.38981e-07
-1.64661e-08
-1.42937e-07
-8.22255e-09
-1.62515e-07
-4.66368e-08
-1.72279e-07
4.69091e-08
-1.58872e-07
-1.90314e-08
-1.49966e-07
4.52171e-10
-1.90513e-07
-1.44842e-08
-1.36281e-07
-6.93817e-09
-1.34485e-07
-9.9736e-09
-1.3838e-07
-2.76552e-08
-1.19037e-07
-4.37439e-08
-1.20349e-07
-1.48436e-09
-1.31617e-07
8.38827e-10
-1.15536e-07
-5.01552e-09
-1.1194e-07
1.04423e-09
-1.12679e-07
2.84582e-09
-1.10925e-07
-2.59145e-09
-1.07429e-07
-1.13025e-08
-1.19838e-07
3.4373e-09
-1.07363e-07
-2.24842e-08
-1.08195e-07
-3.32048e-09
-1.08526e-07
5.99884e-09
-1.10269e-07
2.89476e-09
-1.22008e-07
5.97793e-09
-1.08685e-07
4.40691e-09
-6.38692e-08
-2.13894e-08
-1.02464e-07
1.86693e-08
-1.12544e-07
-3.36332e-10
-1.03579e-07
-9.96686e-09
-1.00648e-07
-8.82504e-09
-1.08535e-07
-2.71519e-08
-1.04558e-07
-9.37161e-09
-1.17014e-07
-1.89694e-08
-1.41778e-07
3.23852e-10
-5.40797e-08
2.82435e-08
-1.67263e-07
-3.98997e-08
-1.50577e-07
-1.19408e-08
-1.37287e-07
-3.96796e-09
-1.10337e-07
-2.4098e-08
-1.40203e-07
2.41201e-08
-1.30054e-07
-9.53562e-09
-1.26802e-07
-4.52649e-09
-1.33056e-07
-6.98238e-09