/*--------------------------------*- C++ -*----------------------------------*\
  =========                 |
  \\      /  F ield         | OpenFOAM: The Open Source CFD Toolbox
   \\    /   O peration     | Website:  https://openfoam.org
    \\  /    A nd           | Version:  12
     \\/     M anipulation  |
\*---------------------------------------------------------------------------*/
FoamFile
{
    format      ascii;
    class       volVectorField;
    location    "0.55";
    object      U.water;
}
// * * * * * * * * * * * * * * * * * * * * * * * * * * * * * * * * * * * * * //

dimensions      [0 1 -1 0 0 0 0];

internalField   nonuniform List<vector> 
3750
(
(0.00552201 -0.0347278 0)
(-0.00799766 -0.0111299 0)
(-0.00574648 -0.00961945 0)
(-0.00342958 0.00111549 0)
(-0.0011806 0.000449068 0)
(-0.00162568 0.00492792 0)
(-0.000100789 0.00467515 0)
(0.00122146 0.00631523 0)
(0.00244101 0.00650645 0)
(0.00183464 0.0128809 0)
(-0.00115705 0.0124973 0)
(-0.00137787 0.00741622 0)
(-0.000460407 0.00776355 0)
(0.000150819 0.0089009 0)
(0.00108499 0.00815677 0)
(0.000815083 0.00756573 0)
(0.00228739 0.0136285 0)
(-0.00166538 0.0143396 0)
(-0.000131873 0.00962834 0)
(-0.000203611 0.0107336 0)
(0.000254656 0.00910202 0)
(-0.000690214 0.00701933 0)
(-0.000913579 0.0080688 0)
(0.000371283 0.00988465 0)
(-4.53527e-05 0.0087207 0)
(-2.20609e-05 0.00983907 0)
(-2.42183e-05 0.0114978 0)
(-0.00106792 0.0129685 0)
(-0.00414673 0.0109792 0)
(-0.000412555 0.00741378 0)
(0.00162745 0.0151546 0)
(-0.00173848 0.0158827 0)
(-8.46179e-05 0.0100722 0)
(-0.000272652 0.0113007 0)
(-0.00157838 0.0117322 0)
(-0.00139394 0.0123186 0)
(-0.00342924 0.0155412 0)
(-0.00396613 0.0153787 0)
(-0.00210157 0.0125027 0)
(-0.000746756 0.0140968 0)
(-0.000627703 0.0157321 0)
(-0.000976305 0.0171952 0)
(1.37231e-06 0.0178988 0)
(0.000203856 0.0196818 0)
(0.00101815 0.0219263 0)
(0.00188684 0.0208861 0)
(0.00212835 0.0179071 0)
(0.00168555 0.0153129 0)
(0.00156648 0.0128961 0)
(-0.000211658 0.0108787 0)
(-0.00126877 0.0112175 0)
(0.00092001 0.0117717 0)
(-0.00139924 0.0112545 0)
(0.00174251 0.0110844 0)
(0.000458404 0.00990107 0)
(0.000132777 0.00911056 0)
(0.00102593 0.0102964 0)
(0.000435379 0.011797 0)
(0.00159901 0.011761 0)
(0.00153605 0.0121619 0)
(0.0015558 0.0120606 0)
(0.0015181 0.0105899 0)
(0.000485316 0.0096985 0)
(-0.00122708 0.0102755 0)
(-0.00161512 0.0115794 0)
(-0.000313874 0.0101845 0)
(-0.000259774 0.00795369 0)
(0.000955248 0.0139967 0)
(-0.00220708 0.0144282 0)
(-0.000914966 0.00804962 0)
(0.000123382 0.00722291 0)
(-0.000210964 0.0087146 0)
(-0.00125829 0.00871182 0)
(-0.000710172 0.00963874 0)
(-0.00211765 0.0130395 0)
(0.00648202 -0.0219115 0)
(-0.00859115 -0.00105271 0)
(-0.00607917 -0.00915207 0)
(-0.00282339 -0.00265106 0)
(-0.00524366 -0.00573306 0)
(-0.00347911 -0.00143825 0)
(0.000997333 0.000440359 0)
(-0.00061618 0.00142904 0)
(-0.00238296 -0.000148605 0)
(0.00115146 0.00453814 0)
(-0.00121179 0.00514189 0)
(-0.00096879 0.00329216 0)
(-0.000567171 0.00130177 0)
(-5.29793e-05 0.000528771 0)
(0.000485586 0.0012016 0)
(-0.00138123 0.00293739 0)
(0.000834198 0.00544782 0)
(-0.00478788 0.00716666 0)
(-0.000525886 0.00620556 0)
(-0.000700243 0.00616424 0)
(0.00158331 0.00557332 0)
(0.00255574 0.0021684 0)
(0.00146471 0.00591973 0)
(0.00126502 0.00323704 0)
(-0.000686175 -0.00144915 0)
(-0.00126764 -0.00264483 0)
(-0.00105951 -0.00026812 0)
(-0.00284152 -0.00169033 0)
(-0.00363477 0.00146446 0)
(-0.00123873 0.00325888 0)
(-0.000584271 0.00689352 0)
(-0.00338204 0.00737893 0)
(0.000255075 0.00522693 0)
(-0.000851311 0.0025938 0)
(-0.000137786 0.00248148 0)
(-0.000181501 -5.58204e-05 0)
(-0.000192401 0.00197265 0)
(-0.00351011 0.00541095 0)
(-0.00121521 0.00194263 0)
(-0.00120673 0.0031808 0)
(-0.000931654 0.00481128 0)
(-0.00182068 0.00634974 0)
(-0.00254955 0.00739498 0)
(-0.00228039 0.00891851 0)
(-0.000697694 0.0133623 0)
(0.000102266 0.0147053 0)
(0.00162047 0.0151902 0)
(0.00353255 0.0147034 0)
(0.00430893 0.0120285 0)
(0.00228194 0.00979381 0)
(0.00226234 0.0117621 0)
(0.0002328 0.010113 0)
(-0.0012244 0.0098142 0)
(0.000502215 0.010683 0)
(-0.000804677 0.00663485 0)
(-0.00101904 0.00861401 0)
(-0.0012957 0.00941998 0)
(-0.00226236 0.00830845 0)
(-0.00199227 0.0102894 0)
(-0.00112657 0.0128139 0)
(-0.00142777 0.013869 0)
(0.0013519 0.013228 0)
(0.00211359 0.0113969 0)
(0.000284017 0.0112006 0)
(0.00292816 0.0115909 0)
(0.002421 0.00708991 0)
(0.00176059 0.000732928 0)
(0.00154166 0.00293718 0)
(-0.00301906 0.00493065 0)
(0.000140926 0.00345488 0)
(0.0013106 0.00219594 0)
(1.65451e-05 0.00205161 0)
(0.000537094 0.00218591 0)
(-8.4486e-05 0.00102472 0)
(-0.000502905 0.00445388 0)
(0.000397597 -0.0220253 0)
(-0.00556039 -0.00264705 0)
(-0.00595695 -0.00505028 0)
(-0.00653276 -0.00671588 0)
(-0.00569861 -0.00801612 0)
(-0.00313097 -0.00010003 0)
(-0.00122909 -0.0041598 0)
(-0.00306867 -0.00836754 0)
(-0.00378434 -0.0064228 0)
(-0.00275761 -0.00430846 0)
(0.000730027 -0.00859479 0)
(0.00125044 -0.0111284 0)
(0.000618356 -0.0116106 0)
(-0.000336833 -0.0101334 0)
(6.49543e-05 -0.0107524 0)
(-0.000784074 -0.0101731 0)
(-0.00224071 -0.0111147 0)
(-0.00314504 -0.0103767 0)
(-5.00214e-05 -0.0127273 0)
(0.000519876 -0.0126913 0)
(0.00105234 -0.0101204 0)
(0.00360371 -0.0124711 0)
(0.00561143 -0.00986242 0)
(0.00176727 -0.00968179 0)
(0.000240433 -0.0134377 0)
(-0.00137039 -0.0130874 0)
(-0.0020149 -0.0126773 0)
(-0.0019776 -0.0126841 0)
(0.000551021 -0.0103671 0)
(-6.7e-05 -0.0106585 0)
(0.00131646 -0.008389 0)
(-0.00148992 -0.00438304 0)
(-0.00286605 -0.00746307 0)
(-0.000448721 -0.0098036 0)
(0.000513281 -0.00784211 0)
(-0.000674769 -0.00601586 0)
(0.00202856 -0.00387648 0)
(-0.00226655 0.00053603 0)
(-0.00128988 0.000461852 0)
(-0.00295403 -0.00143893 0)
(-0.00546459 0.00139289 0)
(-0.00141363 0.00286447 0)
(-0.00377977 0.00201734 0)
(-0.00307554 0.00249117 0)
(-0.00400573 0.00432542 0)
(-0.00129747 0.00394668 0)
(0.000578386 0.00311343 0)
(0.00439915 0.00350689 0)
(0.00625047 0.0025742 0)
(0.00438963 0.00326763 0)
(0.00422036 0.00306991 0)
(0.000602922 -0.000803733 0)
(0.00129659 -0.00110078 0)
(-0.00204272 -0.00197684 0)
(-0.00229265 -0.00472883 0)
(-0.00114303 -0.00422597 0)
(-4.06122e-05 -0.00340531 0)
(0.00011824 -0.00294655 0)
(-0.00146735 -0.00365127 0)
(-0.000977248 -0.00448123 0)
(1.97205e-05 -0.00376536 0)
(0.00382629 -0.0033516 0)
(0.00336689 -0.00743108 0)
(0.00306381 -0.0029861 0)
(0.00248433 0.000828285 0)
(0.00308152 -0.00403764 0)
(0.000630094 -0.00736093 0)
(0.000510656 -0.00717446 0)
(-0.00226851 -0.00388146 0)
(-0.00172362 -0.00432049 0)
(-0.00195092 -0.00767631 0)
(-0.000293861 -0.00745131 0)
(0.00142977 -0.00569957 0)
(-0.000436001 -0.00604291 0)
(0.00104987 -0.00483419 0)
(0.00168887 -0.0261646 0)
(-0.000102879 -0.00714632 0)
(-0.00879116 -0.0109056 0)
(-0.0085719 -0.00714179 0)
(-0.00267275 -0.00868784 0)
(-0.00415102 -0.00522608 0)
(-0.00291617 -0.00707278 0)
(-0.000205934 -0.00733344 0)
(0.00377108 -0.00866864 0)
(-0.000263263 -0.0042043 0)
(-0.00059116 -0.00817939 0)
(-0.000291014 -0.0155003 0)
(-0.000238752 -0.0168705 0)
(-0.000337056 -0.0142513 0)
(0.000364208 -0.0154933 0)
(0.00110301 -0.0210038 0)
(-0.000960319 -0.0220176 0)
(-0.0011487 -0.0192705 0)
(-0.00180825 -0.0211139 0)
(-0.000827846 -0.0240285 0)
(-0.00179015 -0.0226109 0)
(0.000746925 -0.0210705 0)
(0.00334839 -0.0164239 0)
(0.00125773 -0.0140125 0)
(0.000214704 -0.013996 0)
(-0.000213372 -0.014243 0)
(-0.0013743 -0.0158759 0)
(-0.00123119 -0.0152674 0)
(-0.00030389 -0.0138649 0)
(0.00215739 -0.0128916 0)
(0.00197301 -0.0114981 0)
(-0.00233203 -0.011274 0)
(-0.0055662 -0.00735076 0)
(-0.00413102 -0.00744911 0)
(-0.0041675 -0.0102093 0)
(-0.00484916 -0.00882398 0)
(0.00060836 -0.00760016 0)
(-0.000591644 -0.00540217 0)
(-0.00105209 -0.00634539 0)
(-0.00260029 -0.0104067 0)
(-0.00380336 -0.00554436 0)
(-0.00599326 -0.00348194 0)
(-0.00562816 -0.00769965 0)
(-0.0050281 -0.00521409 0)
(-0.00266392 -0.00497704 0)
(0.000156752 -0.007012 0)
(0.00286231 -0.0105474 0)
(0.00316989 -0.009092 0)
(0.00815697 -0.00923436 0)
(0.00752739 -0.00655994 0)
(0.00490021 -0.00532284 0)
(0.00178656 -0.0103 0)
(0.00253218 -0.0132515 0)
(-0.000613754 -0.0134244 0)
(-0.00133395 -0.0127837 0)
(-0.00217368 -0.00978662 0)
(-0.00450273 -0.00873838 0)
(-0.000199694 -0.0103284 0)
(-0.00237248 -0.0105377 0)
(-0.00401207 -0.00912815 0)
(0.00260947 -0.00604573 0)
(0.0030708 -0.00641736 0)
(0.00266338 -0.00924867 0)
(0.00453225 -0.0082003 0)
(0.00142774 -0.00240003 0)
(0.00325396 -0.00404108 0)
(0.00255333 -0.00914573 0)
(0.00168624 -0.00853309 0)
(0.000800544 -0.00911417 0)
(-0.0025589 -0.0106051 0)
(-0.00213523 -0.0125057 0)
(-0.00066503 -0.0121671 0)
(0.000939618 -0.0133244 0)
(0.00152962 -0.0138649 0)
(0.00180977 -0.00902156 0)
(0.00293075 -0.0277403 0)
(-0.00478427 -0.00362369 0)
(-0.0110998 -0.0127588 0)
(-0.00634609 -0.006091 0)
(-0.0041527 -0.00968623 0)
(-0.0086504 -0.00696147 0)
(-0.00311314 -0.00570149 0)
(-0.00172955 -0.00245394 0)
(0.00111183 0.000561371 0)
(0.00308226 0.00312732 0)
(-0.000438424 0.00468349 0)
(0.00211458 0.00298893 0)
(0.0029967 -0.000173498 0)
(0.00465194 -0.00138818 0)
(0.000318988 -0.00454728 0)
(0.00102624 -0.00897734 0)
(0.00094068 -0.00931261 0)
(0.000719736 -0.00705893 0)
(-0.00265092 -0.00886263 0)
(-0.00203635 -0.0124181 0)
(-0.00145962 -0.0122457 0)
(2.90073e-05 -0.0128892 0)
(0.00109714 -0.0116161 0)
(-0.000116978 -0.010748 0)
(-0.000750584 -0.0109086 0)
(9.31713e-05 -0.0103937 0)
(-4.44966e-06 -0.0114649 0)
(0.000300005 -0.0118555 0)
(-0.000592969 -0.00769621 0)
(-0.00083946 -0.00708923 0)
(-0.000243718 -0.00965598 0)
(-0.0014861 -0.0087327 0)
(-0.00157225 -0.0070149 0)
(-0.00567688 -0.00846437 0)
(-0.00364227 -0.0119969 0)
(-0.000479016 -0.00875085 0)
(0.00119816 -0.00819635 0)
(0.00140885 -0.0102374 0)
(-0.00237553 -0.00944603 0)
(-0.00466323 -0.0102294 0)
(-0.00448063 -0.00923385 0)
(-0.00914499 -0.00880688 0)
(-0.00499097 -0.011302 0)
(-0.00422847 -0.0136163 0)
(0.000645298 -0.0144003 0)
(0.00117318 -0.0171385 0)
(0.00360923 -0.0166985 0)
(0.00328231 -0.0107672 0)
(0.00589593 -0.00729988 0)
(0.0070464 -0.00900696 0)
(0.00322661 -0.00962632 0)
(0.00147779 -0.00902396 0)
(0.000359167 -0.00820022 0)
(-0.000735369 -0.00970081 0)
(-0.000311762 -0.00925565 0)
(-0.000818341 -0.0122178 0)
(-0.00249781 -0.00795482 0)
(-0.00150048 -0.0100575 0)
(-0.0010352 -0.019815 0)
(-0.00250583 -0.0139612 0)
(0.00244835 -0.0103326 0)
(0.0010921 -0.0145869 0)
(0.00184608 -0.0150776 0)
(0.00502068 -0.0124605 0)
(0.00402733 -0.00669623 0)
(-0.00111659 -0.00792385 0)
(0.00148673 -0.0128719 0)
(-0.0011154 -0.0109852 0)
(0.0022541 -0.0102689 0)
(-0.000394252 -0.012282 0)
(-0.000750686 -0.0158385 0)
(-0.000505037 -0.0161108 0)
(0.00102437 -0.0144655 0)
(0.00263436 -0.0143231 0)
(0.00274197 -0.0124425 0)
(0.00383018 -0.0259856 0)
(-0.00476724 -0.00831657 0)
(-0.0083917 -0.0120262 0)
(-0.00588536 -0.00638176 0)
(-0.00689005 -0.014572 0)
(-0.00900348 -0.00948912 0)
(-0.00660015 -0.00747907 0)
(-0.00247602 -0.0119164 0)
(-0.00300515 -0.0104521 0)
(-0.00267152 -0.00907624 0)
(-0.00109682 -0.00741059 0)
(0.00233756 -0.00630987 0)
(0.00398079 -0.00701921 0)
(0.00459442 -0.00812739 0)
(0.00333747 -0.0101671 0)
(0.0028408 -0.0117211 0)
(0.00222211 -0.0122089 0)
(0.00151058 -0.0113955 0)
(-0.00127907 -0.0115136 0)
(-0.000933287 -0.0107621 0)
(-0.00191945 -0.00962437 0)
(0.00160537 -0.0102677 0)
(0.00121861 -0.0110582 0)
(0.000303423 -0.0102374 0)
(-0.00045689 -0.00936518 0)
(0.000368205 -0.00873806 0)
(-0.00102511 -0.00967858 0)
(0.000370083 -0.00849312 0)
(0.000243364 -0.00717514 0)
(-0.00402379 -0.00645806 0)
(-0.00136781 -0.0073186 0)
(-0.00142903 -0.00918539 0)
(-0.00310666 -0.00978273 0)
(-0.00227512 -0.0100893 0)
(-0.00166698 -0.0070321 0)
(-0.000648165 -0.00553839 0)
(-0.00234318 -0.00492493 0)
(-0.00198458 -0.00392211 0)
(-0.00287121 -0.00406534 0)
(-0.0045029 -0.00598737 0)
(-0.00417631 -0.00919592 0)
(-0.00388513 -0.0124466 0)
(-0.00369752 -0.016825 0)
(-0.00197427 -0.01912 0)
(-6.57365e-05 -0.0188532 0)
(0.00265977 -0.0193045 0)
(0.00454525 -0.018952 0)
(0.00395408 -0.0137436 0)
(-6.60808e-05 -0.0107664 0)
(0.000165527 -0.016925 0)
(-0.00014763 -0.0179414 0)
(0.00135518 -0.0159591 0)
(0.000882639 -0.015494 0)
(0.00117657 -0.0133903 0)
(-0.000295651 -0.0117162 0)
(6.89065e-05 -0.0126176 0)
(0.00286689 -0.0134435 0)
(-0.000613141 -0.0149775 0)
(0.000394663 -0.0182949 0)
(0.00119799 -0.0134531 0)
(0.00187548 -0.00983904 0)
(0.000473182 -0.0131097 0)
(0.000760695 -0.0125123 0)
(0.00177152 -0.0139923 0)
(0.00192127 -0.0160198 0)
(-0.00229605 -0.0130783 0)
(-0.000254503 -0.015108 0)
(0.00248912 -0.0134549 0)
(0.0011685 -0.013981 0)
(0.00124625 -0.0187979 0)
(-0.000817096 -0.018051 0)
(-0.00256389 -0.0159041 0)
(-0.00126659 -0.0142775 0)
(0.00251072 -0.0139977 0)
(0.00247289 -0.0119278 0)
(0.00342478 -0.0327645 0)
(-0.00222912 -0.00879799 0)
(-0.00941638 -0.0139435 0)
(-0.00525508 -0.0102314 0)
(-0.00579873 -0.0173711 0)
(-0.00188665 -0.0153032 0)
(-0.00632348 -0.0136006 0)
(-0.00635582 -0.0170824 0)
(-0.00316423 -0.01944 0)
(-0.0034166 -0.0169069 0)
(-0.00052414 -0.0157514 0)
(0.00202648 -0.0165269 0)
(0.00220874 -0.0160263 0)
(0.00115222 -0.0122558 0)
(0.00305793 -0.0103335 0)
(0.0010357 -0.0107182 0)
(-0.000307058 -0.0104701 0)
(-0.00169982 -0.00882189 0)
(-0.0028859 -0.0079205 0)
(-3.95363e-05 -0.00912137 0)
(-0.000223385 -0.00536706 0)
(-0.00087392 -0.00650823 0)
(-0.000796357 -0.010882 0)
(-0.00116618 -0.00983063 0)
(-0.00158447 -0.00741342 0)
(-0.000819788 -0.00630424 0)
(-0.000761659 -0.00564109 0)
(0.00202293 -0.00511574 0)
(0.00209787 -0.00794874 0)
(-0.000416513 -0.00475232 0)
(-0.000693432 -0.00317066 0)
(-0.00222525 -0.00739803 0)
(-0.00330479 -0.00633607 0)
(-0.00325103 -0.00492677 0)
(-0.00326992 -0.00673779 0)
(-0.00513983 -0.00591417 0)
(-0.00214205 -0.006489 0)
(-0.00270962 -0.00732882 0)
(-0.000884281 -0.00879107 0)
(7.64617e-05 -0.00945152 0)
(0.00195615 -0.00979799 0)
(0.000766552 -0.0111779 0)
(-0.0017422 -0.013579 0)
(0.000561907 -0.0172555 0)
(-0.000264335 -0.0190198 0)
(0.00280908 -0.0187587 0)
(0.00313062 -0.0186853 0)
(0.00486015 -0.0179481 0)
(0.000425454 -0.016186 0)
(-0.000272556 -0.014538 0)
(-4.51664e-05 -0.0143428 0)
(-0.000657055 -0.0129532 0)
(-0.000455065 -0.0112111 0)
(0.000376576 -0.0120041 0)
(-0.000834495 -0.0121477 0)
(-0.00229792 -0.0117439 0)
(0.000967918 -0.00989143 0)
(0.000377957 -0.0118403 0)
(0.00240159 -0.01665 0)
(0.00512369 -0.0108717 0)
(0.00245868 -0.0085291 0)
(0.000727169 -0.0134233 0)
(0.000237036 -0.0128354 0)
(-0.000722002 -0.0129031 0)
(0.00157825 -0.0135729 0)
(0.00162143 -0.0121449 0)
(-0.000148701 -0.0101273 0)
(0.00292213 -0.0108872 0)
(0.00129956 -0.0119968 0)
(0.000848363 -0.013523 0)
(-0.000765172 -0.0159663 0)
(-0.00142238 -0.0124784 0)
(-0.00324905 -0.00582644 0)
(0.000794858 -0.00844828 0)
(0.00232821 -0.0129866 0)
(-0.00120567 -0.0212463 0)
(-0.00653821 -0.00881967 0)
(-0.00334493 -0.0173379 0)
(-0.0031815 -0.011361 0)
(-0.00346423 -0.0213213 0)
(-0.00252976 -0.0195501 0)
(-0.00461631 -0.0194648 0)
(-0.0084086 -0.0156266 0)
(-0.00742884 -0.0169022 0)
(-0.002509 -0.0167954 0)
(-0.00138409 -0.0115344 0)
(-1.27448e-06 -0.0154194 0)
(0.00229035 -0.0191882 0)
(0.00305922 -0.0140883 0)
(0.00303895 -0.00986634 0)
(0.00246793 -0.0103996 0)
(0.00100996 -0.00902212 0)
(0.000520127 -0.00916594 0)
(-0.000311435 -0.00691883 0)
(0.000656319 -0.00678664 0)
(0.00222295 -0.0095976 0)
(-0.00193435 -0.0107353 0)
(-0.00136039 -0.0109887 0)
(-0.000685327 -0.0107214 0)
(-0.000758388 -0.00870652 0)
(-0.00111985 -0.00804056 0)
(-0.000757531 -0.00887156 0)
(-0.000708308 -0.00655098 0)
(-0.000796764 -0.00669536 0)
(6.12437e-06 -0.00335473 0)
(-0.00371817 -0.00269188 0)
(-0.00388893 -0.00580854 0)
(-0.00328673 -0.0063959 0)
(-0.00374249 -0.00765526 0)
(-0.00192984 -0.0100653 0)
(-6.81949e-05 -0.0101154 0)
(0.000179134 -0.0104975 0)
(-0.00155511 -0.0123898 0)
(0.00125262 -0.0121215 0)
(-0.00110381 -0.0127164 0)
(-0.00257312 -0.0113852 0)
(-0.00198485 -0.0116145 0)
(-0.000749113 -0.0105109 0)
(0.00143742 -0.0116848 0)
(0.0035737 -0.0131722 0)
(0.00353511 -0.0125442 0)
(0.00305764 -0.0137538 0)
(0.0029641 -0.0139629 0)
(0.00177126 -0.0138244 0)
(0.000334132 -0.0132463 0)
(-0.000619258 -0.0138144 0)
(-0.00269407 -0.0114296 0)
(-0.000504473 -0.0111415 0)
(0.00289129 -0.0122222 0)
(0.00141081 -0.013894 0)
(0.000971004 -0.0123914 0)
(0.0022502 -0.0137726 0)
(0.00167085 -0.0171682 0)
(0.00264435 -0.0157215 0)
(0.00521733 -0.0136591 0)
(0.00149514 -0.0131383 0)
(0.000494695 -0.0144067 0)
(0.000602057 -0.0129672 0)
(-0.00334279 -0.0121761 0)
(-0.000400964 -0.0118351 0)
(0.00226786 -0.0111779 0)
(0.00281739 -0.00915157 0)
(0.00146613 -0.00661117 0)
(0.00242767 -0.0100516 0)
(0.00167454 -0.013599 0)
(0.000417157 -0.0131413 0)
(0.00142204 -0.0108492 0)
(-0.00328877 -0.00476952 0)
(-0.00179477 -0.00245665 0)
(0.000267671 -0.00937708 0)
(0.00352255 -0.0202036 0)
(-0.000642198 -0.00142865 0)
(0.00250818 -0.0141778 0)
(-0.00129593 -0.0143693 0)
(-0.00161707 -0.0182378 0)
(-0.00187616 -0.016572 0)
(-0.00393117 -0.0192886 0)
(-0.00471352 -0.0207104 0)
(-0.0065726 -0.016 0)
(-0.00350382 -0.0150363 0)
(-0.0034206 -0.0179539 0)
(-0.00376457 -0.0178153 0)
(-0.00188183 -0.0179031 0)
(0.00148092 -0.0152442 0)
(-0.000918935 -0.0113202 0)
(0.00038058 -0.0098854 0)
(0.000516949 -0.00908252 0)
(0.00106556 -0.00682435 0)
(0.00266324 -0.00477732 0)
(-0.000664495 -0.00272589 0)
(-0.00188938 -0.00270907 0)
(-0.00144118 -0.00325549 0)
(-0.00262372 -0.00191326 0)
(-0.00346828 -0.00178275 0)
(-0.00172155 -0.00103858 0)
(-0.00295146 -0.000933659 0)
(-0.00254667 -0.000230319 0)
(-0.00012024 -0.000530768 0)
(0.00107757 -0.00368684 0)
(0.00140819 -0.00545831 0)
(-0.0011662 -0.00606747 0)
(-0.00161412 -0.00867379 0)
(-0.00194955 -0.0107554 0)
(-0.00271651 -0.0110937 0)
(-0.000212994 -0.0121174 0)
(-0.0018896 -0.0114061 0)
(-0.0017017 -0.0127412 0)
(-0.000649449 -0.00925701 0)
(0.0001764 -0.00972344 0)
(0.000519489 -0.015864 0)
(-0.00373332 -0.0156281 0)
(3.4692e-05 -0.0160014 0)
(-0.000739115 -0.0169934 0)
(0.000744449 -0.0158323 0)
(0.00196079 -0.0143776 0)
(0.00215291 -0.0138662 0)
(0.00666339 -0.0121038 0)
(0.00317828 -0.0116509 0)
(0.00302643 -0.012638 0)
(0.00198765 -0.0135687 0)
(0.002216 -0.0159843 0)
(0.000330743 -0.0127443 0)
(-0.000981111 -0.00670577 0)
(0.00308879 -0.0102871 0)
(0.00121349 -0.0140176 0)
(0.00121941 -0.0120521 0)
(-0.00227337 -0.0120883 0)
(-0.00173889 -0.0137488 0)
(0.000626829 -0.0125971 0)
(0.0036923 -0.00954259 0)
(0.00170388 -0.0104302 0)
(0.000478288 -0.0132192 0)
(6.34449e-05 -0.0153643 0)
(-0.000411662 -0.0124514 0)
(0.000216737 -0.0081575 0)
(0.00215084 -0.0105753 0)
(0.00275106 -0.0113497 0)
(0.00120797 -0.010886 0)
(-0.00135369 -0.00969557 0)
(-0.000395583 -0.0109409 0)
(-0.000887088 -0.0121611 0)
(0.000813541 -0.011946 0)
(-0.00120843 -0.00572782 0)
(-0.00123291 -0.00291485 0)
(-0.00148944 -0.0105511 0)
(-0.00140077 -0.0281865 0)
(0.00483768 -0.00329061 0)
(-0.00102607 -0.0151409 0)
(-0.000736425 -0.0102867 0)
(-0.00305569 -0.013812 0)
(-0.00215636 -0.0111882 0)
(-0.000532623 -0.0114788 0)
(-0.00186129 -0.0108382 0)
(-0.00477132 -0.0100654 0)
(-0.00479091 -0.01036 0)
(-0.00495255 -0.0110044 0)
(-0.00419112 -0.0128162 0)
(-0.00146299 -0.0119517 0)
(0.000362494 -0.0107281 0)
(0.000466039 -0.0122142 0)
(-0.00112383 -0.0120987 0)
(-0.0022965 -0.0117378 0)
(-0.00332298 -0.00887598 0)
(-0.000579845 -0.00801057 0)
(-0.00254396 -0.00951344 0)
(-0.00276994 -0.00886797 0)
(-0.00236957 -0.00927143 0)
(-0.00326172 -0.0118425 0)
(-0.00332094 -0.011315 0)
(-0.00110722 -0.010204 0)
(-0.000500283 -0.0128424 0)
(0.0016045 -0.00980889 0)
(0.00148272 -0.00827217 0)
(0.0016658 -0.0125792 0)
(0.00085541 -0.0122247 0)
(0.000701967 -0.0108779 0)
(-0.00140892 -0.0112332 0)
(0.000545407 -0.0126237 0)
(-0.00101359 -0.0106023 0)
(-0.000634469 -0.0124936 0)
(-0.000769019 -0.0136281 0)
(-0.00125098 -0.0134282 0)
(0.00199147 -0.0164156 0)
(-0.000918923 -0.0157212 0)
(0.00231307 -0.0186753 0)
(0.000171225 -0.0155352 0)
(-0.000703705 -0.016781 0)
(-0.000342688 -0.0216418 0)
(-0.000133543 -0.0208148 0)
(0.000474888 -0.0202589 0)
(0.00220577 -0.0134185 0)
(0.00240416 -0.0137638 0)
(-0.00019051 -0.0149927 0)
(0.00183677 -0.0100126 0)
(0.0020344 -0.010541 0)
(0.00348729 -0.0116123 0)
(0.00243222 -0.0115126 0)
(0.000731083 -0.00512497 0)
(-0.000858419 -0.00606539 0)
(-0.000547261 -0.0115547 0)
(0.000533335 -0.0100512 0)
(-7.81019e-05 -0.00959948 0)
(-0.00190632 -0.00824835 0)
(0.00253572 -0.00634523 0)
(0.00474305 -0.00796274 0)
(0.00283562 -0.0110478 0)
(0.00220619 -0.0110367 0)
(0.00108398 -0.0110942 0)
(0.00322212 -0.0106384 0)
(0.000231539 -0.0105485 0)
(-0.000911805 -0.0119967 0)
(-0.000837267 -0.0125818 0)
(0.000550186 -0.0114948 0)
(-0.000109293 -0.0110264 0)
(-0.000911481 -0.0124532 0)
(0.000904591 -0.0103336 0)
(0.000824377 -0.0107718 0)
(0.0029828 -0.00681504 0)
(-0.00178773 -0.00358295 0)
(-0.00183412 -0.00902861 0)
(-0.00225194 -0.0237097 0)
(0.00544317 0.00599505 0)
(-0.00198868 -0.0128333 0)
(0.000103729 -0.0065232 0)
(-0.00221179 -0.0113822 0)
(-0.00232714 -0.00324988 0)
(-0.00407902 -0.00661295 0)
(-0.00358669 -0.0107918 0)
(-0.00422286 -0.00595039 0)
(-0.00447282 -0.00567873 0)
(-0.00378888 -0.0115274 0)
(-0.00357015 -0.0102749 0)
(-0.00101337 -0.00875152 0)
(-0.00319227 -0.0074091 0)
(0.000924718 -0.0066315 0)
(-0.000112322 -0.00780869 0)
(-0.00164432 -0.00854594 0)
(0.000898584 -0.00532917 0)
(0.000120745 -0.00740836 0)
(-0.000431135 -0.012195 0)
(-0.00238276 -0.0112745 0)
(-0.000336622 -0.0146323 0)
(-0.00231155 -0.0156302 0)
(-0.000789946 -0.0148432 0)
(-0.0013736 -0.0145579 0)
(-0.00253296 -0.0152827 0)
(0.00289895 -0.0150476 0)
(-0.000106655 -0.0161604 0)
(-0.00190923 -0.0155376 0)
(-0.00230395 -0.0137872 0)
(-0.000314134 -0.0133995 0)
(0.00246662 -0.0141595 0)
(0.00144341 -0.0170938 0)
(0.00235703 -0.019475 0)
(0.000393005 -0.0187127 0)
(0.00354306 -0.017755 0)
(0.000177854 -0.0139238 0)
(0.000729778 -0.0112642 0)
(-0.000448708 -0.0104288 0)
(-0.00146689 -0.013943 0)
(0.000825204 -0.0159739 0)
(-0.00287593 -0.0130181 0)
(-0.000518894 -0.0143327 0)
(0.000135135 -0.0165508 0)
(0.00234944 -0.0160852 0)
(0.00267383 -0.0150904 0)
(-0.001109 -0.0153293 0)
(0.000796503 -0.0126164 0)
(0.00101175 -0.00909061 0)
(0.000673941 -0.00925892 0)
(0.00131544 -0.0131842 0)
(0.00152755 -0.0143855 0)
(0.00192657 -0.0100288 0)
(-0.00222352 -0.0122248 0)
(-0.00111146 -0.0129849 0)
(-0.000947294 -0.0100862 0)
(-0.000339278 -0.0116375 0)
(0.0012442 -0.00913666 0)
(0.000818201 -0.00369031 0)
(0.00269948 -0.00756684 0)
(0.0023768 -0.011852 0)
(0.00359655 -0.0132401 0)
(0.00307857 -0.0130433 0)
(0.00223793 -0.0117746 0)
(0.000669205 -0.011215 0)
(-0.0011166 -0.0105483 0)
(1.82956e-06 -0.0106803 0)
(0.000316531 -0.0103741 0)
(-0.000562825 -0.0104217 0)
(-0.00113442 -0.0094267 0)
(0.000237811 -0.0096319 0)
(-0.000210456 -0.00969424 0)
(0.00238922 -0.0079996 0)
(-0.00150924 -0.0062697 0)
(-0.00275982 -0.00634252 0)
(0.00668324 -0.0328292 0)
(-0.00296909 0.00925887 0)
(-0.00176141 -0.015883 0)
(-0.000663882 -0.00397901 0)
(0.000854075 -0.00996003 0)
(-0.000615959 -0.00649068 0)
(-0.0044726 -0.00844393 0)
(-0.0058293 -0.00747152 0)
(-0.0011832 -0.00913526 0)
(-0.00681615 -0.0095752 0)
(-0.00369407 -0.011164 0)
(-0.00199251 -0.0124888 0)
(-0.00310236 -0.0136265 0)
(-0.00282686 -0.0104688 0)
(-0.000265037 -0.00942026 0)
(-0.000137066 -0.0148064 0)
(0.000820002 -0.0126122 0)
(0.00227221 -0.0111036 0)
(-0.00307158 -0.0138638 0)
(0.000792937 -0.0153805 0)
(-0.00186958 -0.0117929 0)
(-0.00099315 -0.0123139 0)
(-0.00183382 -0.0162964 0)
(-0.00334935 -0.0146712 0)
(-0.00108583 -0.0160592 0)
(-0.00115859 -0.0134576 0)
(0.000722703 -0.0129621 0)
(0.00183361 -0.0176564 0)
(0.00019022 -0.0183577 0)
(0.00377356 -0.0149624 0)
(0.00353264 -0.0131546 0)
(0.00409075 -0.0180768 0)
(-0.000428748 -0.021494 0)
(0.000234851 -0.021553 0)
(-0.00214095 -0.020951 0)
(-0.00129382 -0.0208819 0)
(0.000184223 -0.0171235 0)
(0.000526129 -0.0130197 0)
(0.000632367 -0.0130522 0)
(-0.00208413 -0.0158333 0)
(-0.000618892 -0.016629 0)
(-0.000766365 -0.0175592 0)
(-0.00182932 -0.0172877 0)
(6.08698e-05 -0.0163537 0)
(0.000368474 -0.0149755 0)
(0.00180665 -0.0148418 0)
(0.00187702 -0.0143026 0)
(0.00402454 -0.0121021 0)
(0.0003765 -0.0110372 0)
(-0.000671374 -0.0104948 0)
(-0.00191573 -0.0107351 0)
(-0.000286728 -0.0122784 0)
(0.000451259 -0.0107005 0)
(-0.000806196 -0.0105824 0)
(0.00011229 -0.012643 0)
(-6.44829e-05 -0.0128983 0)
(-0.00168219 -0.0113222 0)
(0.0040714 -0.00997293 0)
(0.00476456 -0.00632416 0)
(0.0012359 -0.00785816 0)
(0.000799068 -0.0125173 0)
(0.00158049 -0.0138334 0)
(0.000838961 -0.0138721 0)
(-9.95886e-05 -0.0124611 0)
(-0.000323177 -0.0127206 0)
(-0.00108165 -0.0114899 0)
(-0.000397543 -0.00919501 0)
(-0.0006619 -0.0104381 0)
(0.000101185 -0.0111537 0)
(0.000294002 -0.0100719 0)
(-0.000423264 -0.00983875 0)
(0.0020065 -0.0116029 0)
(0.00223998 -0.0128872 0)
(0.00115959 -0.0127485 0)
(-9.16679e-05 -0.00818914 0)
(0.00390381 -0.0197719 0)
(-0.00670903 -0.0038357 0)
(-0.000225663 -0.0148944 0)
(-0.00244639 -0.00682211 0)
(-0.00108999 -0.0108791 0)
(-0.000374757 -0.00541277 0)
(-0.00173097 -0.00775807 0)
(-0.00135198 -0.00631523 0)
(-0.00325828 -0.00730611 0)
(-0.0048534 -0.00798999 0)
(-0.00464804 -0.00628755 0)
(6.2764e-05 -0.0104998 0)
(-0.00128496 -0.0129554 0)
(0.00392416 -0.0117855 0)
(2.94194e-05 -0.0125044 0)
(-0.00131055 -0.0147013 0)
(0.00455253 -0.0135944 0)
(7.48384e-05 -0.0155974 0)
(-0.00148702 -0.0127913 0)
(-0.00180282 -0.0111135 0)
(-0.00203223 -0.0119629 0)
(-0.00222044 -0.013393 0)
(-0.000512241 -0.0182644 0)
(-0.000920457 -0.0136475 0)
(-0.000778826 -0.0131581 0)
(-0.000985616 -0.0145739 0)
(-0.000229935 -0.0136482 0)
(0.00233166 -0.0177754 0)
(0.00159633 -0.0158899 0)
(0.0034195 -0.0134273 0)
(0.00110846 -0.0153314 0)
(-0.00124653 -0.0170106 0)
(-0.00112153 -0.0162563 0)
(-4.97293e-05 -0.0145171 0)
(0.000841863 -0.0163529 0)
(0.000734011 -0.0168117 0)
(-0.000360321 -0.0162418 0)
(-0.000863448 -0.0138076 0)
(0.000397333 -0.0129477 0)
(-0.000514356 -0.0134179 0)
(-0.0026351 -0.0130094 0)
(-0.00228752 -0.0130293 0)
(-0.00146213 -0.0125819 0)
(-0.000225855 -0.0121796 0)
(-0.000384464 -0.0123453 0)
(0.000406618 -0.0130378 0)
(0.000319954 -0.0113478 0)
(0.00167289 -0.0108065 0)
(-0.000363148 -0.0109725 0)
(-0.00130832 -0.00937545 0)
(0.000662956 -0.0105796 0)
(6.98757e-05 -0.0106287 0)
(0.000462012 -0.0102122 0)
(-0.000613222 -0.012624 0)
(-0.00124782 -0.0132564 0)
(0.000856871 -0.014936 0)
(0.00192117 -0.0119159 0)
(0.00264241 -0.00674704 0)
(0.00398576 -0.00865622 0)
(0.0011335 -0.01316 0)
(0.00150436 -0.0129449 0)
(4.87515e-06 -0.0135219 0)
(0.00040895 -0.0144255 0)
(-0.000157435 -0.0134136 0)
(0.000616375 -0.013833 0)
(-0.000553721 -0.0128731 0)
(-0.00243839 -0.0118081 0)
(-0.000187501 -0.0126189 0)
(-0.000550002 -0.011926 0)
(0.00027599 -0.0126369 0)
(0.000828249 -0.0125271 0)
(0.000696389 -0.0111754 0)
(0.000876026 -0.0119188 0)
(0.000883744 -0.0112003 0)
(0.000751883 -0.0093271 0)
(0.000773256 -0.0274615 0)
(-0.00103012 -0.00784314 0)
(-0.00440541 -0.0169336 0)
(-0.00305255 -0.00961352 0)
(-0.00206948 -0.00968014 0)
(-0.00118446 -0.00858039 0)
(-0.0020763 -0.0100367 0)
(5.10496e-05 -0.00771005 0)
(-0.0027853 -0.0106528 0)
(-0.0015622 -0.0114983 0)
(-0.00373901 -0.0098253 0)
(0.00104084 -0.0126715 0)
(-0.000695774 -0.0139142 0)
(6.80228e-07 -0.0122453 0)
(-0.00195989 -0.0153591 0)
(-0.000616137 -0.0104136 0)
(0.00229644 -0.0105742 0)
(0.000813283 -0.0138928 0)
(0.00174035 -0.0117855 0)
(-0.00177848 -0.0119666 0)
(-0.00212227 -0.0102556 0)
(-0.00196584 -0.010958 0)
(-0.000269907 -0.0151696 0)
(0.000758837 -0.014581 0)
(-0.00150085 -0.0157713 0)
(-0.00231635 -0.0117817 0)
(0.000720501 -0.00701005 0)
(0.00161606 -0.0128761 0)
(0.0034762 -0.0143516 0)
(0.00242727 -0.0124734 0)
(0.000270082 -0.0129349 0)
(-0.00046942 -0.0145135 0)
(-0.000301068 -0.0142365 0)
(-0.00086288 -0.0119208 0)
(-0.000254504 -0.0106825 0)
(-0.000675852 -0.0111708 0)
(-0.000935104 -0.00916352 0)
(-0.00131507 -0.00410753 0)
(-0.00226162 -0.00520731 0)
(-0.0016869 -0.00883265 0)
(-0.00273778 -0.00753205 0)
(-0.00285745 -0.00624343 0)
(-0.00116566 -0.00618573 0)
(0.00010095 -0.00779904 0)
(0.000662351 -0.00918252 0)
(0.00159114 -0.010243 0)
(-0.000965368 -0.00950516 0)
(0.00308077 -0.00835933 0)
(0.0008509 -0.00873613 0)
(6.34148e-05 -0.0048485 0)
(-0.000119902 -0.00637706 0)
(0.00108245 -0.00999377 0)
(-0.000654143 -0.00953941 0)
(-0.000507794 -0.0106264 0)
(-7.70895e-05 -0.011184 0)
(0.00372013 -0.0126778 0)
(0.00424394 -0.0147956 0)
(0.000145494 -0.0126683 0)
(-0.000458428 -0.0112661 0)
(0.00335786 -0.0119926 0)
(0.00227455 -0.0134037 0)
(0.0015886 -0.0144752 0)
(0.000459577 -0.0138139 0)
(-0.000683216 -0.0132619 0)
(-0.00194285 -0.014243 0)
(-0.000471265 -0.0157858 0)
(-0.000366303 -0.0117892 0)
(-0.000994918 -0.0123278 0)
(-0.00108648 -0.0157268 0)
(-0.00114286 -0.0151697 0)
(0.000443623 -0.0143073 0)
(-5.87364e-05 -0.013656 0)
(-0.000586489 -0.0135391 0)
(-0.000278999 -0.0134986 0)
(-7.2098e-05 -0.0120114 0)
(-0.00123636 -0.0252694 0)
(-0.0025054 -0.00100701 0)
(-0.00463354 -0.0147053 0)
(-0.0024809 -0.00779789 0)
(-0.00334459 -0.0121955 0)
(-0.000234603 -0.0100489 0)
(0.000759335 -0.0131841 0)
(-0.000602057 -0.0133694 0)
(0.000265906 -0.0145209 0)
(-0.000697845 -0.0144438 0)
(0.00106533 -0.00879402 0)
(-0.00201907 -0.0113568 0)
(-0.000608385 -0.0160324 0)
(-0.00335746 -0.0133225 0)
(-0.00238827 -0.0122187 0)
(0.00291791 -0.00893741 0)
(-0.000992941 -0.00929634 0)
(6.15217e-05 -0.0119844 0)
(0.000206058 -0.0111435 0)
(-0.000686094 -0.0109124 0)
(0.00023007 -0.00937323 0)
(-0.00161387 -0.00996252 0)
(-0.000547809 -0.0122937 0)
(-0.000125811 -0.0120815 0)
(0.000126207 -0.0144997 0)
(0.0020125 -0.0106674 0)
(-0.000600343 -0.00742498 0)
(-0.00214535 -0.0117885 0)
(-0.00153755 -0.0106643 0)
(0.0012218 -0.0106146 0)
(-0.000866779 -0.011635 0)
(-7.51028e-05 -0.0110739 0)
(-0.00102381 -0.0103254 0)
(-0.000643812 -0.00927069 0)
(-0.00113244 -0.00975672 0)
(-0.00081192 -0.00976421 0)
(-0.000214971 -0.00914428 0)