/*--------------------------------*- C++ -*----------------------------------*\
  =========                 |
  \\      /  F ield         | OpenFOAM: The Open Source CFD Toolbox
   \\    /   O peration     | Website:  https://openfoam.org
    \\  /    A nd           | Version:  12
     \\/     M anipulation  |
\*---------------------------------------------------------------------------*/
FoamFile
{
    format      ascii;
    class       volVectorField;
    location    "0.55";
    object      U.water_0;
}
// * * * * * * * * * * * * * * * * * * * * * * * * * * * * * * * * * * * * * //

dimensions      [0 1 -1 0 0 0 0];

internalField   nonuniform List<vector> 
3750
(
(0.00559371 -0.0351435 0)
(-0.00774496 -0.0118423 0)
(-0.00655462 -0.00931215 0)
(-0.00316996 0.00124242 0)
(-0.000331854 -0.00202696 0)
(-0.000311062 0.00209205 0)
(0.00186938 0.00758174 0)
(-0.00311589 0.0107964 0)
(0.00196039 0.00759756 0)
(-0.000155084 0.00708228 0)
(0.000219162 0.00710741 0)
(-0.00114649 0.00841076 0)
(-0.000338556 0.00815123 0)
(3.6426e-05 0.00913407 0)
(0.0008261 0.00860559 0)
(0.000232204 0.008865 0)
(0.000329321 0.00974939 0)
(-0.000134324 0.0108108 0)
(0.00106453 0.0112324 0)
(0.00108169 0.0107865 0)
(0.00225464 0.0151417 0)
(-0.00320124 0.0141954 0)
(0.000295334 0.0073324 0)
(-0.00120156 0.00687817 0)
(-0.000885214 0.00751254 0)
(-0.000361925 0.00962229 0)
(0.000143258 0.0116146 0)
(0.000376445 0.012058 0)
(0.000413289 0.011984 0)
(0.000585223 0.010766 0)
(0.000665959 0.0111566 0)
(0.000232864 0.0108517 0)
(0.00010009 0.0107244 0)
(-0.000285882 0.0111811 0)
(-0.000590059 0.0104801 0)
(0.00144014 0.0156281 0)
(-0.00250436 0.0153354 0)
(-0.00112908 0.0117069 0)
(-0.00138193 0.0134188 0)
(-0.000662024 0.0142249 0)
(-0.000611899 0.0159263 0)
(-0.00111106 0.0176129 0)
(-0.000111825 0.0185472 0)
(0.00011439 0.0207574 0)
(0.000925695 0.0231983 0)
(0.00208621 0.0218214 0)
(0.00230908 0.0183701 0)
(0.00173235 0.0154301 0)
(0.00158879 0.012991 0)
(-6.5556e-05 0.0106796 0)
(2.77266e-05 0.00971392 0)
(-0.000370546 0.0107879 0)
(-0.00059274 0.0108492 0)
(0.000905594 0.0109426 0)
(0.00057165 0.010773 0)
(0.000325891 0.00970888 0)
(0.000890508 0.0107458 0)
(0.000309356 0.0120162 0)
(0.00151793 0.0120894 0)
(0.00142298 0.012471 0)
(0.0015935 0.0121949 0)
(0.00144563 0.0105909 0)
(0.000654162 0.00934107 0)
(-0.000400797 0.00880986 0)
(5.32041e-05 0.00891969 0)
(-0.00200093 0.00872099 0)
(-0.00127873 0.00883041 0)
(-0.000767884 0.00949941 0)
(-0.00036459 0.00994999 0)
(-0.00169771 0.0110897 0)
(0.000974114 0.0090651 0)
(0.000877522 0.00871776 0)
(-0.00142639 0.00835116 0)
(-0.000420046 0.00882663 0)
(-0.000758925 0.0114726 0)
(0.00742865 -0.0220561 0)
(-0.00570776 -0.00260014 0)
(-0.00552519 -0.00859482 0)
(-0.00427951 -0.000958268 0)
(-0.00322263 -0.00735318 0)
(-0.00207782 -0.00335551 0)
(0.000477812 -0.00250828 0)
(-0.00422316 0.0039098 0)
(-0.00343526 0.00333241 0)
(-0.00249722 0.000549796 0)
(-0.000357905 0.00199857 0)
(-0.00070101 0.00313049 0)
(-0.000547076 0.00154826 0)
(0.000138163 0.000487777 0)
(-6.57363e-05 0.00107753 0)
(-0.00193329 0.00230186 0)
(-0.00221925 0.00359177 0)
(-0.00319924 0.00678956 0)
(0.00137739 0.00742933 0)
(0.00234994 0.00678491 0)
(0.00398352 0.00737068 0)
(-6.15254e-05 0.00908088 0)
(-0.000247916 0.006149 0)
(0.000278684 -0.001678 0)
(-0.00189397 -0.00159808 0)
(-0.00172965 -0.00214845 0)
(-0.000844488 0.00139258 0)
(-0.00143384 0.00167241 0)
(-0.000162447 0.00188164 0)
(-0.000323281 0.000976771 0)
(-0.00019989 0.00369483 0)
(-0.000773093 0.00344565 0)
(-0.000653805 0.00389468 0)
(-0.00132147 0.00323779 0)
(0.00203929 0.00397445 0)
(0.00357569 0.0031635 0)
(-0.000729914 0.00178764 0)
(-0.000281214 0.00122889 0)
(-0.00113184 -3.61367e-05 0)
(-0.00137382 0.00248347 0)
(-0.00098464 0.00464774 0)
(-0.00244907 0.0066627 0)
(-0.0029712 0.00822341 0)
(-0.00264328 0.0100809 0)
(-0.000890518 0.014923 0)
(0.000970937 0.0159538 0)
(0.00221117 0.0154415 0)
(0.00341989 0.0144676 0)
(0.00430064 0.0120501 0)
(0.00203722 0.0107564 0)
(0.00141801 0.00871496 0)
(-0.000694876 0.0085153 0)
(-0.00221857 0.00968538 0)
(0.0020636 0.0096786 0)
(3.45136e-05 0.00842486 0)
(-0.000408064 0.00896672 0)
(-0.00129781 0.00950384 0)
(-0.00232802 0.00877677 0)
(-0.00197692 0.0107917 0)
(-0.00126752 0.0130378 0)
(-0.0018599 0.0138895 0)
(0.000658268 0.0132391 0)
(0.00223084 0.0118285 0)
(0.00263303 0.0111083 0)
(0.00258694 0.00643205 0)
(0.00110488 0.00282649 0)
(0.000293487 0.00168008 0)
(-0.000172415 0.00109931 0)
(0.000603824 0.00138789 0)
(-0.000713186 0.00548345 0)
(0.00128128 0.00574 0)
(0.000564606 0.00111322 0)
(0.00044042 0.000967152 0)
(-0.000208012 0.00166638 0)
(-0.000239852 0.00105338 0)
(0.0005573 -0.0209989 0)
(-0.00505385 -0.00469804 0)
(-0.00450445 -0.00904543 0)
(-0.00684382 -0.00518595 0)
(-0.0057188 -0.00754287 0)
(-0.00253734 -0.00550192 0)
(-0.00194662 -0.00623113 0)
(-0.00140186 -0.00427858 0)
(-0.00728959 -0.00531322 0)
(-0.00218308 -0.00811198 0)
(-0.000663448 -0.0102036 0)
(0.00101515 -0.0110833 0)
(0.000414506 -0.0112695 0)
(0.000833188 -0.0105523 0)
(-0.00110441 -0.0110753 0)
(-0.000700999 -0.0112569 0)
(-0.00192717 -0.0128748 0)
(-0.000570719 -0.0088927 0)
(-0.00237281 -0.00984138 0)
(0.00287967 -0.012345 0)
(0.00196027 -0.0101998 0)
(0.00314253 -0.00964893 0)
(0.000732737 -0.0088999 0)
(0.00158172 -0.0118909 0)
(-0.000578702 -0.0143314 0)
(-0.00204958 -0.0122438 0)
(-0.00266597 -0.0109589 0)
(-0.00191104 -0.0105113 0)
(-0.00065254 -0.00992776 0)
(-0.000540945 -0.0105113 0)
(0.000529537 -0.0108316 0)
(-0.000491967 -0.0107893 0)
(-0.000726107 -0.0100205 0)
(-0.00226919 -0.00700337 0)
(0.00264271 -0.00496384 0)
(0.000866787 -0.00556387 0)
(0.000557333 -0.00478389 0)
(-0.000774 -0.00257742 0)
(-0.00342025 -0.00214414 0)
(-0.00431059 -0.00135013 0)
(-0.00438786 0.00104369 0)
(-0.00336336 0.00284278 0)
(-0.00453233 0.00295051 0)
(-0.00345336 0.00369416 0)
(-0.00466286 0.00663179 0)
(0.000502747 0.0057219 0)
(0.00139274 0.00270144 0)
(0.00485839 0.00281286 0)
(0.00530572 0.00235737 0)
(0.00502222 0.00206528 0)
(0.00070791 0.000807753 0)
(0.000703001 -0.00207521 0)
(9.78048e-05 0.000882272 0)
(0.000292938 -0.000332947 0)
(-0.00138549 -0.0047691 0)
(-0.000148071 -0.00465274 0)
(0.000158302 -0.00379462 0)
(-0.00018117 -0.0027404 0)
(-0.0011557 -0.00344537 0)
(-0.000168171 -0.0047333 0)
(6.94964e-06 -0.00424571 0)
(0.000498209 -0.00267119 0)
(0.00489751 -0.00472508 0)
(0.00391494 -0.00505637 0)
(0.00265491 -0.00564721 0)
(0.00223824 -0.00656156 0)
(-0.000465608 -0.00682952 0)
(-0.000624153 -0.00642266 0)
(-0.00205598 -0.00735467 0)
(0.000918015 -0.00517013 0)
(-0.00263257 -0.00455595 0)
(-0.0010258 -0.00744464 0)
(0.000975093 -0.00697933 0)
(-0.000136604 -0.00660631 0)
(0.00142495 -0.0068565 0)
(2.64396e-05 -0.0258806 0)
(-0.00330528 -0.00753849 0)
(-0.00934082 -0.0115226 0)
(-0.00603133 -0.00686671 0)
(-0.00349453 -0.00920071 0)
(-0.00298428 -0.0076363 0)
(-0.000426085 -0.00896573 0)
(0.000679501 -0.00773882 0)
(0.00129848 -0.00572759 0)
(0.000105825 -0.0059968 0)
(-0.000216853 -0.0122231 0)
(-0.000549604 -0.0146251 0)
(-0.00127484 -0.0154856 0)
(-0.00177475 -0.0153826 0)
(0.00205837 -0.0165276 0)
(0.00214298 -0.0196906 0)
(0.00113658 -0.0212161 0)
(0.000879269 -0.0223718 0)
(-0.00246062 -0.0197967 0)
(-0.00125898 -0.0200212 0)
(-0.00155436 -0.0236435 0)
(-0.000215096 -0.0203016 0)
(0.0005383 -0.0158493 0)
(-0.000509623 -0.0150166 0)
(-0.000605475 -0.0147801 0)
(-0.0011894 -0.0135927 0)
(-0.00328668 -0.013324 0)
(-0.000644173 -0.0122961 0)
(0.000615756 -0.0138576 0)
(0.00062418 -0.0146594 0)
(-0.000672448 -0.013252 0)
(-0.00223081 -0.0124478 0)
(-0.00309168 -0.0115388 0)
(-0.00315526 -0.00667024 0)
(-0.00260525 -0.00547845 0)
(-0.00252085 -0.0091646 0)
(-0.00113713 -0.00796117 0)
(-0.00171826 -0.00990095 0)
(-0.00174689 -0.0109011 0)
(-0.00334057 -0.00777129 0)
(-0.00435632 -0.00635636 0)
(-0.00600126 -0.00505456 0)
(-0.00566636 -0.00521116 0)
(-0.00383923 -0.00408218 0)
(-0.00164002 -0.00137973 0)
(0.00105089 -0.00435925 0)
(0.00349376 -0.0115044 0)
(0.00510029 -0.0110536 0)
(0.004716 -0.0090007 0)
(0.00634065 -0.0080844 0)
(0.00467925 -0.00863896 0)
(0.00279474 -0.00933362 0)
(0.00413949 -0.0109762 0)
(-0.000278853 -0.0123088 0)
(-0.00129341 -0.0123553 0)
(-0.00155335 -0.0102599 0)
(-0.00285343 -0.0101963 0)
(-0.002339 -0.0100393 0)
(-0.00166535 -0.00910157 0)
(-0.000611865 -0.00911734 0)
(-0.000347376 -0.00995431 0)
(0.0026769 -0.00464132 0)
(0.00486443 -0.00490692 0)
(0.00318701 -0.00965102 0)
(0.00304107 -0.00937005 0)
(0.0020057 -0.00943836 0)
(0.00202082 -0.00841037 0)
(0.000107642 -0.00881026 0)
(-0.0026075 -0.00892551 0)
(0.00118549 -0.00965991 0)
(-0.00203497 -0.0120318 0)
(-0.00103298 -0.0127411 0)
(-0.000689489 -0.0135836 0)
(0.00338339 -0.0123537 0)
(0.00226183 -0.0133137 0)
(0.00141804 -0.0283087 0)
(-0.00677457 -0.0039583 0)
(-0.00924488 -0.01099 0)
(-0.00649647 -0.00468527 0)
(-0.0042377 -0.0106494 0)
(-0.0063375 -0.00923203 0)
(-0.00264349 -0.00813724 0)
(-0.00133885 -0.0034103 0)
(0.00136682 0.000909258 0)
(0.000336816 0.00189828 0)
(0.00059887 0.00235919 0)
(0.00178436 0.00159699 0)
(0.00235059 -0.000824576 0)
(0.00195688 0.00122807 0)
(0.00247898 -0.00252623 0)
(0.00236044 -0.00995362 0)
(0.00208131 -0.0102464 0)
(0.000738107 -0.00832974 0)
(0.000975425 -0.00816044 0)
(-0.00353502 -0.0109716 0)
(-0.00189057 -0.0125453 0)
(-0.00145403 -0.0128536 0)
(-0.000877961 -0.0115075 0)
(-0.0014121 -0.011164 0)
(-0.00098994 -0.0111285 0)
(-0.00053651 -0.0104972 0)
(-0.00128682 -0.00783616 0)
(-0.000546435 -0.006891 0)
(-0.00198534 -0.0094609 0)
(0.000187479 -0.0107034 0)
(-0.000481848 -0.0106018 0)
(-0.00180849 -0.00989475 0)
(-0.00233401 -0.00861061 0)
(-0.00266682 -0.00635985 0)
(-0.00256746 -0.00751731 0)
(1.81786e-05 -0.0114207 0)
(0.000433955 -0.0123581 0)
(-0.00104101 -0.0122986 0)
(-0.00125159 -0.0117661 0)
(-0.0047191 -0.0103248 0)
(-0.00723757 -0.00885544 0)
(-0.00621635 -0.00809332 0)
(-0.0053407 -0.00905459 0)
(-0.00204538 -0.0115699 0)
(0.00337369 -0.0124958 0)
(0.000846457 -0.0155978 0)
(0.00360861 -0.0160439 0)
(0.0038455 -0.0154462 0)
(0.00152542 -0.0106268 0)
(0.00481538 -0.00685245 0)
(0.0053908 -0.00958884 0)
(0.00389196 -0.00855137 0)
(0.00163329 -0.00717643 0)
(-0.000245491 -0.00950214 0)
(-0.000539889 -0.00888367 0)
(-0.000958954 -0.0108404 0)
(-0.00239961 -0.0109745 0)
(-0.0032482 -0.0106978 0)
(0.000256626 -0.0138769 0)
(0.00306688 -0.0178757 0)
(0.00255009 -0.0149656 0)
(0.0038582 -0.00880062 0)
(0.00017359 -0.0133784 0)
(0.00123637 -0.0152673 0)
(0.00144473 -0.0129816 0)
(0.000762997 -0.0125689 0)
(0.00290252 -0.0127533 0)
(-0.000109834 -0.0133916 0)
(-0.00207125 -0.0082867 0)
(6.58586e-05 -0.00941604 0)
(0.000170052 -0.0164488 0)
(0.000124301 -0.0177567 0)
(0.00136501 -0.013671 0)
(0.00210601 -0.0130614 0)
(0.00137155 -0.0155543 0)
(0.00066208 -0.0245785 0)
(-0.00742225 -0.00447997 0)
(-0.00698376 -0.0112192 0)
(-0.00485462 -0.00790001 0)
(-0.00577943 -0.0127268 0)
(-0.00572761 -0.0111517 0)
(-0.00514687 -0.0112648 0)
(-0.00310453 -0.0125852 0)
(-0.00324902 -0.0109716 0)
(-0.00356917 -0.0103332 0)
(-0.00188466 -0.00911983 0)
(0.000798757 -0.00714727 0)
(0.00505916 -0.00791041 0)
(0.00915931 -0.00655951 0)
(0.0041369 -0.00742036 0)
(0.00369106 -0.0117175 0)
(0.00323917 -0.0129399 0)
(0.00252831 -0.0120836 0)
(0.00057071 -0.0117968 0)
(-0.00134379 -0.0107644 0)
(-0.00133873 -0.010645 0)
(-0.00157079 -0.0110546 0)
(-0.00129076 -0.0103979 0)
(-0.000332748 -0.00947398 0)
(0.000775386 -0.00929973 0)
(0.00080137 -0.00902473 0)
(-0.00150321 -0.00741905 0)
(-0.00122223 -0.00586895 0)
(-0.00263846 -0.00524118 0)
(-0.00208388 -0.00694474 0)
(-0.00241511 -0.0102278 0)
(-0.00160249 -0.0107094 0)
(-0.00380237 -0.0105582 0)
(0.000309899 -0.00721342 0)
(-0.00183647 -0.00460744 0)
(-0.00269645 -0.0078439 0)
(-0.00138986 -0.00835876 0)
(-0.00214039 -0.00695299 0)
(-0.00278862 -0.00659976 0)
(-0.00582322 -0.00726419 0)
(-0.00277505 -0.00686159 0)
(-0.00289366 -0.0114792 0)
(-0.00358057 -0.0149268 0)
(-0.00303221 -0.0151845 0)
(0.00189387 -0.0182556 0)
(0.00240984 -0.0194415 0)
(0.00380078 -0.0190789 0)
(0.00111571 -0.0199545 0)
(-0.000132546 -0.0132282 0)
(0.00421572 -0.0120502 0)
(0.00223766 -0.0169169 0)
(0.00328939 -0.0160924 0)
(0.00154338 -0.0153178 0)
(0.000759671 -0.0138445 0)
(0.000585653 -0.0118004 0)
(0.000421912 -0.0126405 0)
(0.00111718 -0.016347 0)
(0.00139635 -0.0132742 0)
(0.00132377 -0.00966144 0)
(0.00218419 -0.014707 0)
(0.00415246 -0.0165933 0)
(0.000982409 -0.01334 0)
(-0.00243277 -0.0145571 0)
(-0.000522438 -0.0161383 0)
(0.00019525 -0.017128 0)
(0.000459604 -0.0144396 0)
(0.00202672 -0.0152981 0)
(0.00252973 -0.0193427 0)
(0.00143499 -0.0142566 0)
(-0.0015871 -0.0128362 0)
(0.000826564 -0.0174696 0)
(0.000138832 -0.017189 0)
(0.00159277 -0.0158186 0)
(-0.00179757 -0.0143413 0)
(-0.000538975 -0.0126204 0)
(-0.00130755 -0.031512 0)
(-0.00645633 -0.00398161 0)
(-0.00645773 -0.0088716 0)
(-0.00474908 -0.00923959 0)
(-0.0048141 -0.0160066 0)
(-0.00183823 -0.0169697 0)
(-0.00389665 -0.0197223 0)
(-0.00304651 -0.0196553 0)
(-0.00306501 -0.0191023 0)
(-0.00188301 -0.0183106 0)
(-0.00130113 -0.0185505 0)
(-0.00249095 -0.0161208 0)
(0.00259462 -0.0109887 0)
(0.00612096 -0.0104916 0)
(0.00391982 -0.0120751 0)
(0.00199335 -0.0114544 0)
(0.000567311 -0.0112028 0)
(-0.000722071 -0.00937522 0)
(-0.00115833 -0.0087684 0)
(-0.00233335 -0.00898928 0)
(-0.00135864 -0.00837943 0)
(-0.00190127 -0.00948848 0)
(-0.00328719 -0.00828824 0)
(-0.00135284 -0.00653245 0)
(0.000736829 -0.00661565 0)
(-0.000284143 -0.00808308 0)
(-0.000287507 -0.0041095 0)
(0.00127785 -0.00230941 0)
(0.000844246 -0.00599082 0)
(-0.00393794 -0.00646711 0)
(-0.0002392 -0.00615823 0)
(-0.00142606 -0.00804857 0)
(-0.00252092 -0.00504526 0)
(-0.00176697 -0.002568 0)
(-0.00449776 -0.00706324 0)
(-0.00663939 -0.00751719 0)
(-0.00220787 -0.0088022 0)
(-0.00210635 -0.0102729 0)
(-0.00100914 -0.0120371 0)
(-0.000272422 -0.00800478 0)
(0.00530302 -0.00698092 0)
(0.000557536 -0.0116608 0)
(-0.000661555 -0.0134459 0)
(-0.00213879 -0.0129774 0)
(-0.00046933 -0.0162194 0)
(0.00256945 -0.0201789 0)
(0.00263254 -0.0207264 0)
(0.002327 -0.0219723 0)
(0.00244979 -0.0120227 0)
(0.00142063 -0.00992688 0)
(0.00147907 -0.016478 0)
(0.00174112 -0.0144047 0)
(1.66794e-05 -0.0126271 0)
(-0.00210705 -0.0115527 0)
(0.00149318 -0.0109585 0)
(0.000319719 -0.0130821 0)
(-0.000290334 -0.0114633 0)
(0.00237454 -0.0098659 0)
(0.0016525 -0.0116433 0)
(0.000304804 -0.0134922 0)
(0.00186155 -0.0136909 0)
(0.000447916 -0.013062 0)
(-0.000459236 -0.0135906 0)
(0.0012581 -0.0142002 0)
(0.00224466 -0.0149116 0)
(0.00268568 -0.0126953 0)
(0.001959 -0.0125475 0)
(0.00193245 -0.0152079 0)
(0.00286696 -0.0131678 0)
(-0.00144852 -0.00934104 0)
(-0.0010904 -0.0113093 0)
(-0.00129092 -0.0129197 0)
(0.000970164 -0.0120286 0)
(-0.00119398 -0.0129394 0)
(-0.0033273 -0.0112588 0)
(0.00211154 -0.0191913 0)
(-0.0013527 0.00234523 0)
(-0.00343908 -0.0120528 0)
(-0.00412307 -0.0145758 0)
(-0.0039098 -0.0198904 0)
(-0.00468916 -0.0199802 0)
(-0.00399928 -0.0201878 0)
(-0.00524773 -0.0187206 0)
(-0.00335304 -0.0192975 0)
(-0.00303611 -0.0190269 0)
(-0.00102719 -0.0192418 0)
(0.000236927 -0.014858 0)
(0.00275961 -0.0103106 0)
(0.00165436 -0.0120211 0)
(0.00206645 -0.0113855 0)
(0.00409868 -0.0104384 0)
(0.00183996 -0.00969416 0)
(0.000731714 -0.00885973 0)
(-0.00125342 -0.0103308 0)
(-0.00210108 -0.00960608 0)
(0.000651553 -0.0092985 0)
(0.000386892 -0.0129071 0)
(-0.00061427 -0.00945637 0)
(-0.000420663 -0.00521834 0)
(-0.00135744 -0.00780991 0)
(-0.000995847 -0.0101834 0)
(0.00119573 -0.00790026 0)
(-0.00135295 -0.00587851 0)
(-0.00240202 -0.00788747 0)
(-0.00414302 -0.00207138 0)
(-0.00166668 -0.00117749 0)
(-0.00250994 -0.00703904 0)
(-0.00140774 -0.00637579 0)
(-0.00350366 -0.00693998 0)
(-0.00284697 -0.0105405 0)
(-0.00049767 -0.0110144 0)
(-0.0001676 -0.0116394 0)
(0.00109918 -0.0152379 0)
(0.000791912 -0.01563 0)
(0.00063445 -0.010278 0)
(-0.00230707 -0.00909489 0)
(-0.00239195 -0.0132076 0)
(-0.000458905 -0.0111304 0)
(0.000583241 -0.00871134 0)
(0.00289816 -0.0100651 0)
(0.0033282 -0.0128886 0)
(0.00211177 -0.0158098 0)
(0.00277332 -0.0175918 0)
(0.00304927 -0.0121043 0)
(-0.00490176 -0.00894195 0)
(-0.00105728 -0.0119514 0)
(0.00210414 -0.0125076 0)
(0.000313146 -0.0157283 0)
(-0.00103409 -0.0104874 0)
(0.00171293 -0.00882949 0)
(0.00131592 -0.0157971 0)
(0.00265494 -0.0173384 0)
(0.00180134 -0.0152024 0)
(0.00172554 -0.0140284 0)
(0.0015242 -0.01479 0)
(0.00146467 -0.0152879 0)
(2.4602e-05 -0.0147151 0)
(0.000455877 -0.0126505 0)
(-0.000100853 -0.013039 0)
(0.000388364 -0.0139977 0)
(0.000809225 -0.0111751 0)
(0.00118766 -0.0115617 0)
(0.00179061 -0.0132382 0)
(0.00340164 -0.0115716 0)
(0.00282903 -0.00944212 0)
(-0.000700454 -0.0102467 0)
(-0.000487468 -0.00748173 0)
(-0.00155412 -0.00830278 0)
(-0.00325488 -0.0126019 0)
(0.00019526 -0.00840998 0)
(0.0174946 -0.0204913 0)
(0.00793231 -0.00319182 0)
(-0.00108159 -0.0153154 0)
(-0.000320601 -0.0138842 0)
(-0.00118847 -0.0181738 0)
(-0.00219233 -0.0173289 0)
(-0.00470219 -0.0201155 0)
(-0.00689967 -0.0199264 0)
(-0.00263193 -0.0194431 0)
(-0.00387302 -0.0203711 0)
(-0.000841159 -0.0201749 0)
(0.00187616 -0.0174353 0)
(0.000195762 -0.0144337 0)
(-0.000849214 -0.0148037 0)
(-0.00144797 -0.0100429 0)
(0.000675777 -0.00898116 0)
(0.000911769 -0.0113801 0)
(0.000792293 -0.00926606 0)
(-7.09012e-05 -0.0085388 0)
(-0.000825658 -0.00329116 0)
(-0.00356416 -0.000884497 0)
(0.000294968 -0.00400247 0)
(-3.43365e-05 -0.00135402 0)
(-0.00253066 0.000101528 0)
(-0.00410908 -0.000284845 0)
(-0.00436256 -4.3372e-05 0)
(-0.000212941 0.000460437 0)
(-0.000193453 -0.00125131 0)
(0.000833155 -0.00499645 0)
(0.00124095 -0.00319755 0)
(-0.00277037 -0.00355962 0)
(-0.00153126 -0.00944844 0)
(-0.00163375 -0.0107955 0)
(-0.000256088 -0.0113911 0)
(-0.00134552 -0.0130928 0)
(-0.000645959 -0.0125852 0)
(-0.0046869 -0.0119795 0)
(0.00112318 -0.01229 0)
(0.00152272 -0.0139762 0)
(0.002493 -0.0136704 0)
(-0.00349911 -0.0148354 0)
(-0.00196991 -0.0165034 0)
(-0.0012957 -0.0173515 0)
(0.000897779 -0.0129037 0)
(0.00150254 -0.0112785 0)
(0.003191 -0.0156277 0)
(0.00428589 -0.0142326 0)
(0.00358711 -0.0131381 0)
(0.00466441 -0.0138483 0)
(-0.000562522 -0.01005 0)
(0.000318623 -0.00784257 0)
(-1.55003e-05 -0.0129754 0)
(0.0007554 -0.0167532 0)
(0.00248047 -0.0101985 0)
(-0.000829943 -0.00865435 0)
(-0.00122231 -0.0132331 0)
(-0.000594186 -0.0139179 0)
(-0.00206414 -0.0132271 0)
(0.000776232 -0.0115038 0)
(0.00154723 -0.0113001 0)
(0.000788348 -0.0123185 0)
(-0.000390343 -0.0130002 0)
(-0.00145143 -0.0124346 0)
(0.000576031 -0.0127473 0)
(0.000574268 -0.0140233 0)
(0.0019763 -0.0135552 0)
(0.00029977 -0.0122287 0)
(0.00140365 -0.0126944 0)
(0.00136835 -0.0101429 0)
(0.000738149 -0.00915479 0)
(-0.00016144 -0.0103292 0)
(0.00112181 -0.00946699 0)
(-0.00229846 -0.011424 0)
(-0.000468223 -0.00922746 0)
(0.000782212 -0.007094 0)
(0.00903287 -0.0366278 0)
(0.00277249 -0.0131636 0)
(-0.000863974 -0.0172123 0)
(4.4819e-05 -0.00980367 0)
(-0.00174753 -0.0139445 0)
(-0.000746463 -0.0130427 0)
(-0.00218152 -0.0138985 0)
(-0.00232135 -0.00881474 0)
(-0.00432722 -0.0106301 0)
(-0.00406404 -0.0140198 0)
(-0.00313358 -0.012797 0)
(-0.000801084 -0.0130897 0)
(0.000507607 -0.011216 0)
(0.000762468 -0.0113054 0)
(0.0010066 -0.0109202 0)
(-0.00227403 -0.0111683 0)
(-0.00184375 -0.0130732 0)
(-0.00211187 -0.0118558 0)
(-0.00244948 -0.0113459 0)
(-0.00135223 -0.0113822 0)
(-0.0048491 -0.00650896 0)
(-0.00392151 -0.00716145 0)
(-0.00321498 -0.0111656 0)
(-0.000938652 -0.0106536 0)
(-0.00143687 -0.0118087 0)
(-0.00132982 -0.0102563 0)
(0.000498266 -0.00745155 0)
(0.00242253 -0.00977399 0)
(0.00251802 -0.0136953 0)
(0.00162981 -0.0127272 0)
(-0.0036293 -0.0094297 0)
(-0.00181141 -0.010646 0)
(-0.00273811 -0.0102102 0)
(0.000462119 -0.0113467 0)
(3.03954e-05 -0.0141426 0)
(-4.05273e-05 -0.0162285 0)
(0.000831278 -0.0136508 0)
(0.00118604 -0.0147181 0)
(0.000938379 -0.0191833 0)
(0.00122566 -0.0177513 0)
(-0.000642695 -0.0169741 0)
(-0.000319046 -0.0189281 0)
(-0.000898759 -0.020034 0)
(0.000931989 -0.0179299 0)
(-0.00137923 -0.0164722 0)
(0.00122628 -0.0158183 0)
(0.00250922 -0.0167663 0)
(0.00219418 -0.0147888 0)
(0.00297276 -0.0110492 0)
(0.00275137 -0.00946804 0)
(-0.000373216 -0.00774026 0)
(-0.00352857 -0.00912854 0)
(7.98357e-05 -0.00996276 0)
(0.0027747 -0.00839907 0)
(-0.00167995 -0.00844328 0)
(-0.000163283 -0.00988644 0)
(0.00125006 -0.0109007 0)
(0.000857375 -0.00747786 0)
(0.00193189 -0.00638867 0)
(-0.00029593 -0.0102309 0)
(0.00175616 -0.0119949 0)
(0.00175536 -0.011875 0)
(0.000347576 -0.00859424 0)
(0.000707194 -0.00947183 0)
(-5.6645e-06 -0.0138305 0)
(0.000788419 -0.0148185 0)
(-3.99929e-05 -0.0145936 0)
(0.00100488 -0.0129334 0)
(0.000674022 -0.0115597 0)
(-0.00163119 -0.0103287 0)
(0.00179501 -0.00827678 0)
(0.00148684 -0.00937325 0)
(0.00128438 -0.00996393 0)
(0.00232332 -0.0102563 0)
(-0.000391557 -0.00806341 0)
(-0.00141863 -0.0407026 0)
(0.000536266 -0.00889569 0)
(-0.00288976 -0.0113813 0)
(0.00126026 -0.00477818 0)
(-0.000974922 -0.0104611 0)
(-0.00150546 -0.00688346 0)
(-0.00311538 -0.00935858 0)
(-0.00171756 -0.00796363 0)
(-0.00558941 -0.00839779 0)
(-0.00363215 -0.00957836 0)
(-0.00361433 -0.0109395 0)
(-0.000871319 -0.00964105 0)
(0.000738577 -0.00840577 0)
(4.02098e-05 -0.00847045 0)
(0.000111355 -0.00697526 0)
(-0.000543549 -0.00679496 0)
(-0.000175382 -0.00821456 0)
(-0.000592455 -0.00974462 0)
(0.000787183 -0.0109939 0)
(0.00137665 -0.0126545 0)
(6.86147e-05 -0.0121497 0)
(-0.00524113 -0.013303 0)
(-0.00166358 -0.0107344 0)
(0.000429266 -0.0129573 0)
(-0.000357073 -0.0170058 0)
(0.000174775 -0.0154994 0)
(-0.002511 -0.0125996 0)
(0.000182575 -0.0149004 0)
(-0.00136345 -0.0173742 0)
(-0.00117568 -0.0171082 0)
(-0.0028934 -0.0118108 0)
(-0.00339082 -0.0136585 0)
(0.000963531 -0.0147821 0)
(0.000428218 -0.0157159 0)
(0.00216504 -0.0204142 0)
(0.00288132 -0.0177098 0)
(0.00357219 -0.0147824 0)
(-0.000706428 -0.0144896 0)
(-0.00041216 -0.015123 0)
(-0.00166651 -0.0146067 0)
(-0.000940011 -0.0137896 0)
(-0.00112277 -0.0132056 0)
(0.000193234 -0.0139932 0)
(0.000839301 -0.0148732 0)
(0.00107876 -0.0147099 0)
(-4.65945e-05 -0.0149586 0)
(-0.000170669 -0.0142406 0)
(0.000585836 -0.0132023 0)
(0.000460379 -0.0120439 0)
(0.00116114 -0.0111006 0)
(0.00125815 -0.0118605 0)
(-0.000624799 -0.0112368 0)
(-0.000235084 -0.0102777 0)
(0.000415255 -0.0127955 0)
(-0.000718604 -0.012014 0)
(-0.00053306 -0.00892796 0)
(0.00100225 -0.0102034 0)
(0.00295676 -0.0105621 0)
(-6.6054e-05 -0.0103908 0)
(-0.00253819 -0.00972002 0)
(0.00195305 -0.00900823 0)
(0.00315082 -0.0126042 0)
(0.00391782 -0.0121761 0)
(2.9661e-05 -0.0116349 0)
(0.000124866 -0.0129424 0)
(-0.000718863 -0.0124675 0)
(0.00139691 -0.0127857 0)
(0.000749632 -0.0122331 0)
(0.000145907 -0.0120138 0)
(-0.000754855 -0.0074083 0)
(-0.00174353 -0.00655901 0)
(0.000399511 -0.00981587 0)
(0.000310344 -0.0103378 0)
(0.000706968 -0.00945574 0)
(0.00288595 -0.00553039 0)
(-0.00427704 -0.0481467 0)
(-0.00253969 -0.00403817 0)
(-0.00151462 -0.0123432 0)
(0.00100881 -0.00160162 0)
(0.00100881 -0.0104155 0)
(-0.00110912 -0.00841391 0)
(-0.00144468 -0.00956827 0)
(-0.00306207 -0.00795582 0)
(-0.00426511 -0.01069 0)
(-0.00276887 -0.0115574 0)
(-0.00483457 -0.0110873 0)
(-0.000403724 -0.0110021 0)
(-0.00145504 -0.0122608 0)
(-0.00138283 -0.0135666 0)
(3.26698e-05 -0.0118855 0)
(0.000334142 -0.0115505 0)
(-3.58951e-05 -0.0148777 0)
(0.00105081 -0.0148112 0)
(0.00109144 -0.013999 0)
(0.000917205 -0.015491 0)
(-0.000471144 -0.0163028 0)
(-0.000932568 -0.0117847 0)
(-0.000394432 -0.00930606 0)
(-0.00282642 -0.0135232 0)
(-0.00164909 -0.0162295 0)
(-0.000649775 -0.0173578 0)
(-0.000465971 -0.0128933 0)
(-0.000198259 -0.0132279 0)
(0.000331565 -0.0186322 0)
(0.000976007 -0.0184234 0)
(0.00341706 -0.0186043 0)
(0.000137261 -0.0152834 0)
(0.00125134 -0.0153786 0)
(-0.00240412 -0.0198913 0)
(-0.00227778 -0.0214149 0)
(-0.00183756 -0.0221915 0)
(-0.0011382 -0.0188014 0)
(-0.000464297 -0.0150803 0)
(0.000525533 -0.0151275 0)
(-2.72451e-06 -0.0164584 0)
(-0.000401419 -0.0160695 0)
(-0.000726274 -0.0173467 0)
(-0.00039419 -0.0167725 0)
(0.000621906 -0.0155563 0)
(-7.25555e-05 -0.0145697 0)
(0.00064705 -0.0150052 0)
(0.00089042 -0.0147522 0)
(0.000857466 -0.0133262 0)
(-0.0022948 -0.0113923 0)
(-1.32654e-05 -0.00899127 0)
(0.00170776 -0.00945022 0)
(-2.12333e-05 -0.0118506 0)
(-1.07665e-06 -0.0107523 0)
(-0.000352654 -0.0103676 0)
(6.04318e-05 -0.0117617 0)
(0.00083621 -0.011753 0)
(0.000269092 -0.0113879 0)
(0.00213964 -0.0117644 0)
(0.00145917 -0.0132392 0)
(0.00183161 -0.00952615 0)
(0.000725279 -0.00865396 0)
(0.000994905 -0.0134441 0)
(0.000529179 -0.0135096 0)
(-0.000435113 -0.0127605 0)
(-0.000374704 -0.0134452 0)
(-0.0004869 -0.0123802 0)
(0.000607625 -0.0111407 0)
(-0.00095376 -0.0125403 0)
(0.00141994 -0.0117145 0)
(0.00208238 -0.0106381 0)
(-0.002519 -0.00739056 0)
(0.000723443 -0.0100673 0)
(0.000614715 -0.0145143 0)
(0.00206538 -0.0120354 0)
(0.00313813 -0.00942645 0)
(-0.00771534 -0.0243996 0)
(-0.00737024 -0.00589456 0)
(0.00177964 -0.0110845 0)
(-0.00213651 -0.00517915 0)
(-0.00132641 -0.0123955 0)
(-0.000448947 -0.00634507 0)
(-0.00125201 -0.00718007 0)
(-0.00123061 -0.00929888 0)
(-0.00428173 -0.00835445 0)
(-0.00232187 -0.00978297 0)
(-0.00172811 -0.00808976 0)
(-0.00267018 -0.00697214 0)
(0.00132651 -0.0124149 0)
(0.00138526 -0.013846 0)
(0.00247264 -0.0136586 0)
(0.000780164 -0.0148273 0)
(0.000793353 -0.0150349 0)
(0.00117929 -0.0150912 0)
(-0.000149833 -0.0151559 0)
(-0.000663784 -0.0145019 0)
(-0.000234207 -0.0129573 0)
(0.00071176 -0.0119388 0)
(-0.0016522 -0.0131378 0)
(-0.00207721 -0.0138454 0)
(-0.000496902 -0.0154405 0)
(0.000155007 -0.0153171 0)
(0.00214903 -0.0138546 0)
(-0.00241889 -0.015246 0)
(-0.00155445 -0.0182225 0)
(0.000653429 -0.0171577 0)
(0.00184997 -0.0150785 0)
(0.00174059 -0.0147901 0)
(-0.00253574 -0.0132702 0)
(-0.00229562 -0.01284 0)
(0.000405765 -0.0157269 0)
(0.000540468 -0.0177489 0)
(-0.000241861 -0.0176436 0)
(-5.69789e-05 -0.0160691 0)
(-0.00118951 -0.0147145 0)
(-0.000147807 -0.0137994 0)
(-0.00250768 -0.0128844 0)
(-0.00259344 -0.0120231 0)
(0.000476737 -0.0116665 0)
(0.000556396 -0.0124638 0)
(-0.000799225 -0.0126748 0)
(-0.000126058 -0.0134753 0)
(-0.000132573 -0.0123564 0)
(0.000256686 -0.0130424 0)
(-0.000210926 -0.00987294 0)
(0.00037472 -0.00486016 0)
(-0.000672854 -0.00970036 0)
(-0.000702592 -0.0116304 0)
(0.000146379 -0.0102624 0)
(-0.000690229 -0.0127748 0)
(-0.00239697 -0.0117869 0)
(0.00117269 -0.0116968 0)
(0.00170672 -0.0132319 0)
(0.00197944 -0.0135073 0)
(0.00213774 -0.0129068 0)
(0.00372937 -0.0121624 0)
(0.000594557 -0.0113723 0)
(-0.000318298 -0.0130501 0)
(-0.000927714 -0.0131421 0)
(0.00184828 -0.0129384 0)
(0.00130204 -0.0146211 0)
(0.000757641 -0.0138442 0)
(-0.000540166 -0.0147966 0)
(-0.00233533 -0.0141199 0)
(0.00156584 -0.0114792 0)
(0.00157889 -0.0139623 0)
(0.0015942 -0.0123058 0)
(-0.0018424 -0.0108811 0)
(-0.00213446 -0.0121102 0)
(0.000554715 -0.00941782 0)
(0.000628627 -0.00780101 0)
(-0.00131291 -0.0306889 0)
(-0.00241573 -0.00523674 0)
(-0.00404028 -0.012442 0)
(-0.00379311 -0.00931939 0)
(-0.0018141 -0.0105133 0)
(-0.00150904 -0.00985805 0)
(-0.00309254 -0.0110285 0)
(-0.00187772 -0.00972856 0)
(-0.00122652 -0.00975002 0)
(-0.00154217 -0.00951399 0)
(0.00132847 -0.0149319 0)
(-0.00174754 -0.0112391 0)
(-0.00146097 -0.0123496 0)
(-0.000787094 -0.0157196 0)
(-0.000339469 -0.013299 0)
(-0.000276382 -0.0133997 0)
(0.001541 -0.0139536 0)
(0.000848527 -0.0125611 0)
(0.000802467 -0.0118427 0)
(0.000549926 -0.0116147 0)
(-0.000173678 -0.012867 0)
(-5.87015e-05 -0.0133314 0)
(-0.00112692 -0.0121808 0)
(-0.00163666 -0.0120777 0)
(0.000140481 -0.0137392 0)
(0.00013661 -0.0136831 0)
(-0.000128187 -0.0130396 0)
(-0.0012011 -0.0140864 0)
(-0.000298953 -0.0124593 0)
(0.00458148 -0.0118856 0)
(0.00174555 -0.0127899 0)
(0.000787011 -0.0139507 0)
(-0.0012247 -0.0130617 0)
(-0.00283288 -0.00950002 0)
(-0.000326215 -0.00937061 0)
(-0.00108194 -0.0120094 0)
(-0.00155377 -0.00968995 0)
(-0.0020327 -0.00784834 0)
(-0.00180942 -0.00791888 0)
(-0.00082089 -0.00789191 0)
(-0.00178354 -0.00770596 0)
(-0.00147379 -0.00405683 0)
(-5.01861e-05 -0.00449704 0)
(0.000355716 -0.00922874 0)
(-0.000170266 -0.0100416 0)
(0.00125255 -0.0104199 0)
(0.000195457 -0.0108354 0)
(0.00116775 -0.00898729 0)
(0.00205918 -0.00595841 0)
(0.000540376 -0.00490154 0)
(-0.0022116 -0.00760369 0)
(-0.000271864 -0.00850897 0)
(-0.000585305 -0.00888366 0)
(0.00021924 -0.011187 0)
(0.000885576 -0.00955001 0)
(0.000882053 -0.0103441 0)
(0.00124941 -0.0158079 0)
(0.00155159 -0.0161455 0)
(0.00151603 -0.0150881 0)
(0.0027038 -0.0128309 0)
(0.00106364 -0.0125314 0)
(0.00221026 -0.0145578 0)
(0.00128085 -0.0108807 0)
(0.000417681 -0.0114092 0)
(-0.00127884 -0.0156589 0)
(0.000396722 -0.015393 0)
(0.00080588 -0.0171478 0)
(0.000630214 -0.0141357 0)
(0.000489739 -0.012666 0)
(3.35018e-05 -0.0172172 0)
(0.00157221 -0.0159088 0)
(-0.000495976 -0.0159086 0)
(-0.000732183 -0.0128778 0)
(-0.000196461 -0.00973992 0)
(-0.000266634 -0.00830457 0)
(0.0042022 -0.0288239 0)
(0.00191168 -0.00038739 0)
(-0.00476741 -0.0109357 0)
(-0.00180518 -0.0061762 0)
(-0.00112026 -0.0132525 0)
(-0.00243753 -0.0121204 0)
(0.000812737 -0.0141561 0)
(-0.000581389 -0.0139193 0)
(0.00213826 -0.0136641 0)
(-0.00106684 -0.0128233 0)
(-6.40962e-05 -0.0133919 0)
(0.000266896 -0.0138021 0)
(-0.00412077 -0.0137623 0)
(-0.00235339 -0.0131813 0)
(0.000561706 -0.0123636 0)
(0.000540706 -0.0114083 0)
(0.000534384 -0.0110834 0)
(0.000621041 -0.0117371 0)
(0.000453059 -0.0112646 0)
(-0.000116098 -0.0113625 0)
(-0.00037551 -0.0106842 0)
(-4.90547e-05 -0.0113857 0)
(-0.00043619 -0.0115512 0)
(-0.00121063 -0.00986891 0)
(-0.000576925 -0.0119441 0)
(0.000308555 -0.0138266 0)
(-0.000312221 -0.0129543 0)
(-0.000122453 -0.0122496 0)
(-0.00010597 -0.00810315 0)
(0.000875266 -0.00929033 0)
(-0.000498844 -0.0124028 0)
(0.000466098 -0.0112126 0)
(-0.00127591 -0.010431 0)
(-0.0011808 -0.00656074 0)
(-0.00319795 -0.00787616 0)
(-0.00201674 -0.0112962 0)
(-0.00142893 -0.0106981 0)