/*--------------------------------*- C++ -*----------------------------------*\
  =========                 |
  \\      /  F ield         | OpenFOAM: The Open Source CFD Toolbox
   \\    /   O peration     | Website:  https://openfoam.org
    \\  /    A nd           | Version:  12
     \\/     M anipulation  |
\*---------------------------------------------------------------------------*/
FoamFile
{
    format      ascii;
    class       volScalarField::Internal;
    location    "0.85";
    object      cloud:UCoeff;
}
// * * * * * * * * * * * * * * * * * * * * * * * * * * * * * * * * * * * * * //

dimensions      [1 0 0 0 0 0 0];

value           nonuniform List<scalar> 
3750
(
2.61186e-08
2.70654e-08
2.58669e-08
2.55977e-08
2.5638e-08
2.65067e-08
4.14549e-08
4.2985e-08
2.43554e-08
2.54737e-08
2.60098e-08
2.59281e-08
2.62345e-08
2.67505e-08
2.69155e-08
2.69121e-08
6.33046e-08
2.57273e-08
2.49023e-08
6.01238e-08
0
2.49022e-08
0
6.24141e-08
2.4792e-08
2.55325e-08
2.60692e-08
2.76833e-08
2.69371e-08
2.56873e-08
2.60955e-08
2.52988e-08
2.45854e-08
0
2.47303e-08
6.51884e-08
2.60204e-08
6.08041e-08
6.70068e-08
2.69783e-08
2.66432e-08
2.70612e-08
0
6.10568e-08
2.36324e-08
0
0
0
0
0
0
0
0
0
0
0
0
0
0
0
0
0
0
0
0
0
0
0
0
0
0
0
0
0
0
2.67762e-08
0
0
0
2.59918e-08
2.60307e-08
6.99653e-08
2.67192e-08
3.41088e-08
9.14434e-08
1.03199e-07
0
0
0
2.72018e-08
0
2.61664e-08
6.17127e-08
6.12059e-08
2.43754e-08
2.46575e-08
2.62719e-08
0
0
2.5595e-08
0
6.05183e-08
1.80845e-07
2.71373e-08
0
0
2.54832e-08
0
6.00806e-08
2.64205e-08
2.73219e-08
2.75788e-08
2.68269e-08
2.67079e-08
6.63915e-08
0
0
0
0
0
0
0
0
0
0
0
0
0
0
0
0
0
0
0
0
0
0
0
0
0
0
0
0
0
0
0
0
0
0
0
6.30117e-08
2.71253e-08
2.59346e-08
0
0
0
2.62496e-08
6.29753e-08
0
2.58242e-08
3.95311e-09
5.01025e-08
2.61967e-08
2.67057e-08
2.72064e-08
6.34503e-08
2.91478e-08
7.13471e-08
4.52417e-08
5.99135e-08
2.5019e-08
0
2.62032e-08
2.70393e-08
6.32738e-08
2.52483e-08
5.97677e-08
2.68504e-08
0
2.68795e-08
2.564e-08
6.04755e-08
2.44989e-08
5.99886e-08
3.10471e-08
5.43324e-08
2.56313e-08
0
0
0
0
0
0
0
0
0
0
0
0
0
0
0
0
0
0
0
0
0
0
0
0
0
0
0
0
0
0
0
0
0
0
0
0
0
0
6.22511e-08
0
2.63866e-08
0
2.70156e-08
6.49774e-08
6.10977e-08
2.48468e-08
2.51113e-08
2.5614e-08
2.54256e-08
2.4149e-08
1.10893e-07
2.4852e-08
1.1225e-07
2.55899e-08
2.59328e-08
2.64474e-08
2.60928e-08
2.57669e-08
2.52044e-08
2.53054e-08
0
2.60458e-08
2.78742e-08
2.80379e-08
3.55204e-08
5.3088e-08
2.62243e-08
2.67881e-08
0
2.65545e-08
2.48258e-08
6.07382e-08
2.48025e-08
0
0
0
0
0
0
0
0
0
0
0
0
0
0
0
0
0
0
0
0
0
0
0
0
0
0
0
0
0
0
0
0
0
0
0
0
0
0
0
0
1.51699e-08
2.76816e-08
2.59774e-08
0
2.78384e-08
0
6.29427e-08
2.47984e-08
6.18857e-08
2.4893e-08
6.23168e-08
6.12435e-08
0
2.56968e-08
2.60794e-08
2.64878e-08
2.80196e-08
7.75834e-09
1.361e-08
2.62082e-08
6.43167e-08
2.46618e-08
2.42731e-08
2.51588e-08
6.84162e-08
2.69665e-08
2.53186e-08
2.56716e-08
0
0
0
0
6.31033e-08
2.52371e-08
2.55236e-08
2.5841e-08
0
0
0
0
0
0
0
0
0
0
0
0
0
0
0
0
0
0
0
0
0
0
0
0
0
0
0
0
0
0
0
0
0
0
0
0
0
0
0
2.67915e-08
2.68657e-08
2.62023e-08
0
2.74852e-08
2.75875e-08
2.55642e-08
2.50129e-08
2.55957e-08
2.606e-08
2.60572e-08
2.57174e-08
2.56787e-08
2.63865e-08
2.66376e-08
2.57437e-08
2.83741e-08
2.75305e-08
2.57903e-08
2.70895e-08
2.76731e-08
2.50907e-08
2.44503e-08
2.59773e-08
2.74577e-08
2.7158e-08
2.64454e-08
2.61655e-08
2.62674e-08
2.7094e-08
2.71172e-08
2.63174e-08
2.64893e-08
0
2.7064e-08
0
0
0
0
0
0
0
0
0
0
0
0
0
0
0
0
0
0
0
0
0
0
0
0
0
0
0
0
0
0
0
0
0
0
0
0
0
0
0
0
2.59636e-08
2.48538e-08
1.05636e-07
6.18039e-08
5.99238e-08
6.01677e-08
6.21709e-08
2.58857e-08
2.61875e-08
5.61204e-09
1.55226e-08
2.62035e-08
2.63687e-08
2.62186e-08
2.63836e-08
0
6.52183e-08
2.61236e-08
2.50726e-08
2.63911e-08
2.83507e-08
0
2.61624e-08
2.57418e-08
2.64677e-08
2.6964e-08
3.81978e-08
4.79682e-08
2.52697e-08
6.43855e-08
2.68499e-08
2.57287e-08
2.57291e-08
0
2.60553e-08
0
0
0
0
0
0
0
0
0
0
0
0
0
0
0
0
0
0
0
0
0
0
0
0
0
0
0
0
0
0
0
0
0
0
0
0
0
0
0
0
6.06694e-08
6.16188e-08
2.47906e-08
2.63387e-08
0
2.6755e-08
0
2.62812e-08
2.61775e-08
0
2.58522e-08
2.64656e-08
2.63834e-08
2.64229e-08
2.14731e-09
5.85359e-08
2.61964e-08
2.60448e-08
2.59538e-08
0
2.75336e-08
2.70614e-08
2.66187e-08
0
2.64272e-08
2.67301e-08
2.67102e-08
2.65303e-08
2.61904e-08
6.68613e-08
2.59856e-08
2.62609e-08
2.82708e-08
5.86303e-08
0
0
0
0
0
0
0
0
0
0
0
0
0
0
0
0
0
0
0
0
0
0
0
0
0
0
0
0
0
0
0
0
0
0
0
0
0
0
0
0
0
9.15232e-08
2.47524e-08
2.51153e-08
2.66108e-08
0
2.70461e-08
0
2.63747e-08
2.63584e-08
2.65077e-08
2.65217e-08
6.33275e-09
1.47315e-08
3.98106e-08
4.54015e-08
2.60012e-08
2.58267e-08
2.62194e-08
6.12296e-09
5.01116e-08
0
2.6658e-08
2.68894e-08
5.01245e-09
1.74147e-08
0
0
2.66069e-08
2.70816e-08
2.77214e-08
2.73374e-08
2.5037e-08
2.54322e-08
3.63567e-08
5.02056e-08
0
0
0
0
0
0
0
0
0
0
0
0
0
0
0
0
0
0
0
0
0
0
0
0
0
0
0
0
0
0
0
0
0
0
0
0
0
0
0
0
9.34803e-09
8.02169e-09
2.5287e-08
2.68578e-08
0
2.72417e-08
0
2.59507e-08
0
2.67313e-08
2.61305e-08
0
6.3679e-08
2.50572e-08
2.50168e-08
2.53667e-08
6.43536e-08
2.55847e-08
2.51699e-08
0
2.5971e-08
2.63378e-08
0
2.66078e-08
2.70105e-08
4.52147e-09
5.14387e-08
2.6931e-08
0
2.76433e-08
0
0
1.09443e-08
7.72347e-09
6.29809e-08
2.54888e-08
2.54175e-08
0
0
0
0
0
0
0
0
0
0
0
0
0
0
0
0
0
0
0
0
0
0
0
0
0
0
0
0
0
0
0
0
0
0
0
0
0
0
0
6.30067e-08
2.51872e-08
2.4213e-08
2.72802e-08
2.75152e-08
0
2.5594e-08
2.43756e-08
2.54658e-08
0
2.62313e-08
0
2.59967e-08
2.63636e-08
0
2.64037e-08
6.21246e-08
6.03364e-08
2.48423e-08
6.35768e-08
0
2.60883e-08
2.71886e-08
2.72044e-08
0
2.49857e-08
0
2.65893e-08
2.73237e-08
0
3.12627e-08
2.10076e-08
0
2.76098e-08
6.34635e-08
0
2.40395e-08
0
0
0
0
0
0
0
0
0
0
0
0
0
0
0
0
0
0
0
0
0
0
0
0
0
0
0
0
0
0
0
0
0
0
0
0
0
6.50509e-08
2.68085e-08
6.06621e-08
2.48565e-08
6.27471e-08
2.75691e-08
2.64634e-08
2.52581e-08
6.26291e-08
0
2.58729e-08
2.53839e-08
0
2.53092e-08
2.69234e-08
2.74193e-08
2.72341e-08
2.68379e-08
2.54528e-08
2.54749e-08
2.98495e-08
5.74154e-08
2.64722e-08
2.72702e-08
2.75898e-08
0
0
2.61254e-08
2.61485e-08
6.75263e-08
0
0
2.58407e-08
6.76481e-08
2.64693e-08
2.49752e-08
6.02188e-08
0
0
0
0
0
0
0
0
0
0
0
0
0
0
0
0
0
0
0
0
0
0
0
0
0
0
0
0
0
0
0
0
0
0
0
0
0
0
2.7576e-08
0
0
2.64485e-08
2.6595e-08
6.26164e-08
3.11809e-08
5.48013e-08
2.54726e-08
2.60759e-08
6.00851e-08
6.03953e-08
2.48837e-08
2.60305e-08
2.79527e-08
0
2.64966e-08
2.62868e-08
2.62735e-08
2.59016e-08
2.54442e-08
2.49583e-08
6.71804e-08
2.8517e-08
0
2.6125e-08
2.58621e-08
7.85642e-09
1.1272e-08
2.70494e-08
2.7136e-08
2.61727e-08
0
2.75986e-08
2.79884e-08
0
0
0
0
0
0
0
0
0
0
0
0
0
0
0
0
0
0
0
0
0
0
0
0
0
0
0
0
0
0
0
0
0
0
0
0
0
0
0
0
2.75365e-08
2.6606e-08
6.20617e-08
6.37753e-08
2.53071e-08
2.59715e-08
0
2.63235e-08
2.6112e-08
6.07643e-08
5.99892e-08
2.53392e-08
2.53519e-08
2.5581e-08
2.64782e-08
2.68166e-08
2.62897e-08
2.6072e-08
2.60048e-08
2.57276e-08
2.57663e-08
2.6453e-08
1.28482e-08
3.94221e-08
2.70578e-08
2.57293e-08
3.38475e-08
5.1768e-08
0
0
2.67801e-08
2.71178e-08
2.70838e-08
6.58621e-08
2.57305e-08
6.09455e-08
0
0
0
0
0
0
0
0
0
0
0
0
0
0
0
0
0
0
0
0
0
0
0
0
0
0
0
0
0
0
0
0
0
0
0
0
0
0
0
2.64136e-08
0
2.60289e-08
2.77036e-08
2.67478e-08
0
5.03885e-08
3.24748e-08
2.54758e-08
2.52976e-08
6.21039e-08
2.5527e-08
2.59291e-08
2.5774e-08
6.35542e-08
2.57021e-08
2.53609e-08
2.58794e-08
0
2.60306e-08
2.59325e-08
2.57615e-08
2.67252e-08
2.76806e-08
2.77561e-08
2.68183e-08
2.65819e-08
0
2.48384e-08
6.38961e-08
6.46584e-08
2.51033e-08
4.34954e-08
4.26735e-08
0
0
0
0
0
0
0
0
0
0
0
0
0
0
0
0
0
0
0
0
0
0
0
0
0
0
0
0
0
0
0
0
0
0
0
0
0
0
0
0
0
2.66665e-08
2.54244e-08
2.74327e-08
0
0
2.59409e-08
2.66904e-08
0
2.61444e-08
2.6289e-08
0
2.61777e-08
6.22821e-08
2.54804e-08
6.1429e-08
6.03652e-08
6.0447e-08
0
2.50424e-08
2.52858e-08
2.54347e-08
2.52891e-08
2.67251e-08
2.81568e-08
2.76061e-08
2.70379e-08
5.0704e-08
3.17944e-08
6.02321e-08
6.52589e-08
2.62352e-08
2.55853e-08
0
0
0
0
0
0
0
0
0
0
0
0
0
0
0
0
0
0
0
0
0
0
0
0
0
0
0
0
0
0
0
0
0
0
0
0
0
0
0
0
0
0
0
2.64707e-08
2.63375e-08
7.97539e-10
6.22818e-08
2.79601e-08
2.598e-08
2.63681e-08
0
2.60836e-08
0
2.63991e-08
2.60461e-08
2.57089e-08
6.33075e-08
2.499e-08
4.30853e-08
3.75972e-08
6.18776e-08
2.55223e-08
6.2537e-08
2.45108e-08
2.51103e-08
2.59111e-08
2.74957e-08
2.76011e-08
2.89108e-08
0
2.57113e-08
6.06277e-08
7.37417e-08
5.01351e-08
6.57028e-08
0
0
0
0
0
0
0
0
0
0
0
0
0
0
0
0
0
0
0
0
0
0
0
0
0
0
0
0
0
0
0
0
0
0
0
0
0
0
0
0
0
0
0
2.65222e-08
2.68735e-08
0
2.72329e-08
2.83184e-08
2.69187e-08
2.50644e-08
2.54576e-08
2.66722e-08
0
6.37846e-08
2.5164e-08
2.61237e-08
0
2.5567e-08
2.58437e-08
0
2.70437e-08
0
2.52783e-08
6.05671e-08
3.88146e-08
4.1316e-08
2.55075e-08
0
2.86563e-08
2.69763e-08
6.25406e-08
2.48195e-08
6.28586e-08
2.57643e-08
3.17414e-08
5.80506e-08
0
0
0
0
0
0
0
0
0
0
0
0
0
0
0
0
0
0
0
0
0
0
0
0
0
0
0
0
0
0
0
0
0
0
0
0
0
0
0
0
0
0
2.61706e-08
2.66339e-08
2.67651e-08
0
6.47287e-08
2.62617e-08
2.56402e-08
7.19855e-09
1.26409e-08
0
2.61727e-08
0
2.61923e-08
2.68163e-08
0
2.6212e-08
0
0
2.62702e-08
1.06902e-07
5.93669e-08
5.92023e-08
6.06419e-08
2.70437e-08
2.9296e-08
2.69373e-08
2.56351e-08
2.50069e-08
2.54956e-08
2.62243e-08
2.65685e-08
2.66279e-08
2.6546e-08
0
0
0
0
0
0
0
0
0
0
0
0
0
0
0
0
0
0
0
0
0
0
0
0
0
0
0
0
0
0
0
0
0
0
0
0
0
0
0
0
0
0
2.6768e-08
2.66668e-08
2.68469e-08
2.68586e-08
2.69082e-08
2.69034e-08
0
2.57075e-08
2.65482e-08
2.59082e-08
2.64777e-08
0
2.6331e-08
2.67877e-08
2.63244e-08
2.65958e-08
0
2.65238e-08
6.18701e-08
5.95394e-08
5.93592e-08
2.54615e-08
2.58099e-08
2.59219e-08
2.76135e-08
2.79444e-08
2.55814e-08
2.61414e-08
2.64942e-08
2.61292e-08
2.55875e-08
2.59454e-08
0
2.47511e-08
2.6133e-08
2.57828e-08
0
0
0
0
0
0
0
0
0
0
0
0
0
0
0
0
0
0
0
0
0
0
0
0
0
0
0
0
0
0
0
0
0
0
0
0
0
0
0
2.64093e-08
2.6798e-08
2.68399e-08
2.71137e-08
2.75489e-08
0
2.58063e-08
6.13914e-08
0
2.71566e-08
6.65984e-08
2.49821e-08
0
2.65116e-08
0
2.60276e-08
6.23036e-08
2.52168e-08
6.21187e-08
2.53516e-08
2.56684e-08
2.56777e-08
2.58763e-08
2.60616e-08
6.30827e-08
6.26483e-08
2.67404e-08
0
2.62742e-08
2.57247e-08
1.30389e-08
3.40517e-09
0
2.71229e-08
6.40205e-08
2.51857e-08
2.51548e-08
0
0
0
0
0
0
0
0
0
0
0
0
0
0
0
0
0
0
0
0
0
0
0
0
0
0
0
0
0
0
0
0
0
0
0
0
0
0
6.46539e-08
2.64733e-08
2.67442e-08
2.73378e-08
0
2.67436e-08
6.04617e-08
2.47625e-08
2.55851e-08
6.69872e-08
2.63576e-08
2.57538e-08
2.51054e-08
2.55859e-08
9.03413e-09
3.96394e-08
2.61658e-08
2.62562e-08
2.62605e-08
2.64382e-08
0
2.59805e-08
2.63862e-08
0
2.65065e-08
2.68788e-08
2.7166e-08
0
2.66586e-08
2.68605e-08
0
0
2.71133e-08
2.74542e-08
2.78466e-08
0
0
0
0
0
0
0
0
0
0
0
0
0
0
0
0
0
0
0
0
0
0
0
0
0
0
0
0
0
0
0
0
0
0
0
0
0
0
0
0
2.57702e-08
2.51464e-08
2.77125e-08
2.90897e-08
0
6.07601e-08
5.98402e-08
2.48035e-08
6.06595e-08
2.65534e-08
2.71791e-08
2.44164e-08
2.49151e-08
5.76668e-09
1.57132e-08
2.69798e-08
0
2.66417e-08
0
2.61409e-08
2.66985e-08
0
0
2.66019e-08
2.73684e-08
2.68807e-08
2.71395e-08
0
2.65092e-08
2.65641e-08
2.6978e-08
2.75063e-08
0
2.67172e-08
2.85982e-08
6.03594e-08
2.49273e-08
0
0
0
0
0
0
0
0
0
0
0
0
0
0
0
0
0
0
0
0
0
0
0
0
0
0
0
0
0
0
0
0
0
0
0
0
0
0
1.05046e-07
2.47905e-08
2.61216e-08
6.59628e-08
8.90809e-08
3.52585e-08
2.49722e-08
2.58842e-08
1.13411e-09
6.4722e-08
0
0
2.5554e-08
2.56394e-08
0
2.52292e-08
2.60407e-08
0
2.63172e-08
0
2.66127e-08
0
2.63968e-08
2.6416e-08
2.68523e-08
0
2.70377e-08
2.67968e-08
2.59754e-08
2.58959e-08
2.62731e-08
2.69657e-08
2.67317e-08
2.73257e-08
6.61604e-08
2.55303e-08
0
0
0
0
0
0
0
0
0
0
0
0
0
0
0
0
0
0
0
0
0
0
0
0
0
0
0
0
0
0
0
0
0
0
0
0
0
0
0
6.22641e-08
5.99005e-08
5.97602e-08
6.13927e-08
2.63912e-08
2.5261e-08
2.56725e-08
0
0
2.74478e-08
0
2.53552e-08
2.52887e-08
2.48355e-08
6.20783e-08
2.5323e-08
6.18972e-08
2.45007e-09
5.69509e-08
6.86043e-09
4.47509e-08
2.66843e-08
0
2.59354e-08
2.63374e-08
0
2.67626e-08
2.60499e-08
6.15668e-08
2.45578e-08
2.54446e-08
2.67228e-08
2.81977e-08
6.60439e-08
2.63358e-08
0
0
0
0
0
0
0
0
0
0
0
0
0
0
0
0
0
0
0
0
0
0
0
0
0
0
0
0
0
0
0
0
0
0
0
0
0
0
0
0
0
2.58255e-08
6.2622e-08
6.20012e-08
6.16071e-08
2.60817e-08
2.61035e-08
0
9.71556e-09
8.35061e-09
2.48957e-08
6.2933e-08
6.31699e-08
2.57219e-08
2.60977e-08
2.70674e-08
0
2.56571e-08
0
2.64462e-08
1.06511e-08
6.72548e-09
6.13454e-08
2.55371e-08
2.53917e-08
6.25943e-08
2.50089e-08
2.52485e-08
6.18642e-08
2.49097e-08
2.5595e-08
2.87143e-08
0
2.63915e-08
0
0
0
0
0
0
0
0
0
0
0
0
0
0
0
0
0
0
0
0
0
0
0
0
0
0
0
0
0
0
0
0
0
0
0
0
0
0
0
0
0
2.62235e-08
2.5988e-08
2.5363e-08
2.65486e-08
2.73905e-08
2.6661e-08
2.53642e-08
6.10312e-08
6.09092e-08
6.14949e-08
0
0
2.6566e-08
2.74696e-08
0
2.72616e-08
0
2.63227e-08
2.66119e-08
2.68822e-08
6.39577e-08
6.14227e-08
2.45462e-08
6.1126e-08
2.54494e-08
6.32591e-08
2.56404e-08
2.55144e-08
2.64449e-08
1.15104e-08
4.70945e-09
2.74599e-08
2.77357e-08
0
2.64935e-08
0
0
0
0
0
0
0
0
0
0
0
0
0
0
0
0
0
0
0
0
0
0
0
0
0
0
0
0
0
0
0
0
0
0
0
0
0
0
0
0
1.06429e-07
2.48059e-08
2.56265e-08
2.63803e-08
0
2.64747e-08
2.62653e-08
2.63254e-08
6.12313e-08
1.06688e-07
2.45689e-08
4.84007e-08
2.44884e-09
2.70198e-08
2.63424e-08
6.54283e-08
2.58014e-08
2.61111e-08
2.601e-08
2.77112e-08
0
2.6062e-08
2.52073e-08
6.05892e-08
2.56368e-08
2.5535e-08
2.64269e-08
0
2.62701e-08
2.57281e-08
2.6552e-08
2.86718e-08
0
6.20358e-08
2.50091e-08
0
0
0
0
0
0
0
0
0
0
0
0
0
0
0
0
0
0
0
0
0
0
0
0
0
0
0
0
0
0
0
0
0
0
0
0
0
0
0
0
0
2.60186e-08
0
2.65616e-08
0
6.30267e-08
6.26687e-08
0
0
2.54716e-08
6.14113e-08
2.51582e-08
0
2.76064e-08
2.7306e-08
2.58291e-08
0
2.58876e-08
2.54461e-08
6.62058e-08
2.59015e-08
6.09751e-08
3.5905e-08
1.37776e-08
1.08908e-07
2.47717e-08
0
0
6.23087e-08
2.55404e-08
2.69757e-08
0
2.67925e-08
0
0
0
6.21464e-08
2.48759e-08
0
0
0
0
0
0
0
0
0
0
0
0
0
0
0
0
0
0
0
0
0
0
0
0
0
0
0
0
0
0
0
0
0
0
0
0
0
7.61744e-08
6.6089e-09
2.6172e-08
2.55885e-08
6.2395e-08
0
2.55701e-08
2.64797e-08
0
2.59255e-08
0
0
2.6753e-08
6.69535e-08
2.58132e-08
2.44155e-08
6.57018e-08
2.59072e-08
2.57265e-08
2.73792e-08
2.61712e-08
2.54473e-08
2.57492e-08
2.60811e-08
2.6235e-08
2.54596e-08
2.57128e-08
4.19042e-09
1.82281e-08
2.57519e-08
2.60156e-08
2.63157e-08
0
0
0
6.30033e-08
6.21398e-08
0
0
0
0
0
0
0
0
0
0
0
0
0
0
0
0
0
0
0
0
0
0
0
0
0
0
0
0
0
0
0
0
0
0
0
0
0
0
2.33049e-08
2.58892e-08
2.17543e-09
5.84934e-08
2.55195e-08
2.57081e-08
0
2.5736e-08
2.63675e-08
2.59661e-08
2.61737e-08
0
2.61168e-08
0
2.63981e-08
6.27048e-08
6.33104e-08
2.55859e-08
6.37774e-08
2.5346e-08
4.18334e-08
4.16011e-08
2.54146e-08
2.55593e-08
2.69945e-08
0
2.6392e-08
2.65073e-08
6.18884e-08
2.55055e-08
2.6033e-08
4.50896e-08
3.95676e-08
0
2.65891e-08
0
0
0
0
0
0
0
0
0
0
0
0
0
0
0
0
0
0
0
0
0
0
0
0
0
0
0
0
0
0
0
0
0
0
0
0
0
0
0
0
2.55156e-08
0
6.07317e-08
2.5459e-08
2.6286e-08
0
6.27709e-08
2.55761e-08
2.60055e-08
2.62914e-08
0
2.59407e-08
2.5707e-08
6.13488e-08
6.13207e-08
2.43313e-08
6.21045e-08
6.1511e-08
6.2672e-08
2.54774e-08
2.54707e-08
2.62032e-08
2.59987e-08
1.05048e-08
6.8156e-09
2.69361e-08
2.62895e-08
2.67847e-08
0
6.23429e-08
2.6006e-08
2.59366e-08
2.51199e-08
2.52849e-08
2.65122e-08
0
0
0
0
0
0
0
0
0
0
0
0
0
0
0
0
0
0
0
0
0
0
0
0
0
0
0
0
0
0
0
0
0
0
0
0
0
0
0
0
3.175e-08
9.74314e-08
2.51831e-08
0
2.54837e-08
2.73791e-08
0
2.5895e-08
2.59754e-08
2.6482e-08
2.5826e-08
6.20609e-08
6.04704e-08
5.92768e-08
6.09569e-08
6.22158e-08
2.53332e-08
2.53052e-08
2.56574e-08
2.57616e-08
2.5942e-08
2.61028e-08
2.62624e-08
2.66275e-08
2.65008e-08
2.65551e-08
2.62199e-08
0
2.65478e-08
6.46436e-08
2.56188e-08
6.23961e-08
2.54089e-08
0
0
0
0
0
0
0
0
0
0
0
0
0
0
0
0
0
0
0
0
0
0
0
0
0
0
0
0
0
0
0
0
0
0
0
0
0
0
0
0
0
0
6.12972e-08
0
2.51781e-08
0
6.0674e-08
2.62386e-08
2.5943e-08
2.55702e-08
2.58366e-08
2.63903e-08
2.69369e-08
0
0
0
0
1.13279e-08
3.99563e-08
6.20128e-08
6.03529e-08
3.37511e-08
5.16323e-08
2.53904e-08
2.56601e-08
2.61613e-08
3.84269e-08
4.87105e-08
2.6034e-08
0
2.56673e-08
6.36296e-08
2.55822e-08
2.58908e-08
2.55723e-08
2.55172e-08
0
0
0
0
0
0
0
0
0
0
0
0
0
0
0
0
0
0
0
0
0
0
0
0
0
0
0
0
0
0
0
0
0
0
0
0
0
0
0
0
0
2.59063e-08
2.65135e-08
0
2.59877e-08
2.60311e-08
6.23219e-08
2.53101e-08
0
0
0
2.77898e-08
2.6339e-08
2.4486e-08
2.36471e-08
2.51755e-08
1.22441e-07
0
2.18783e-08
2.52946e-08
2.56833e-08
2.53319e-08
1.07339e-07
2.41517e-08
2.54401e-08
2.63015e-08
2.64065e-08
2.61984e-08
6.19361e-08
4.67754e-08
3.59369e-08
2.8017e-08
0
6.21898e-08
2.51478e-08
0
0
0
0
0
0
0
0
0
0
0
0
0
0
0
0
0
0
0
0
0
0
0
0
0
0
0
0
0
0
0
0
0
0
0
0
0
0
0
0
0
2.59103e-08
0
6.23438e-08
2.53226e-08
6.01307e-08
2.48181e-08
2.48814e-08
6.62762e-08
2.71329e-08
0
2.64719e-08
2.69766e-08
2.50035e-08
2.46465e-08
2.8849e-08
6.25445e-08
2.66492e-08
2.51307e-08
2.61327e-08
3.50222e-09
1.9897e-08
0
2.58586e-08
2.64992e-08
6.44441e-08
2.48461e-08
6.03513e-08
2.46102e-08
6.14001e-08
2.73773e-08
2.86436e-08
0
2.56868e-08
2.59049e-08
0
0
0
0
0
0
0
0
0
0
0
0
0
0
0
0
0
0
0
0
0
0
0
0
0
0
0
0
0
0
0
0
0
0
0
0
0
0
0
0
0
2.64955e-08
6.76173e-08
2.58601e-08
2.48093e-08
2.4718e-08
6.08733e-08
2.48399e-08
2.63919e-08
2.68788e-08
2.66313e-08
2.64992e-08
2.48888e-08
6.11966e-08
2.48579e-08
2.63735e-08
0
2.6697e-08
2.63644e-08
2.68913e-08
0
6.39754e-08
2.53027e-08
2.48828e-08
6.56311e-08
2.56776e-08
2.44829e-08
2.52573e-08
2.52135e-08
2.50752e-08
6.77034e-08
2.82014e-08
2.59251e-08
2.56413e-08
2.62334e-08
0
0
0
0
0
0
0
0
0
0
0
0
0
0
0
0
0
0
0
0
0
0
0
0
0
0
0
0
0
0
0
0
0
0
0
0
0
0
0
0
0
5.37468e-08
2.77627e-08
2.52575e-08
2.43088e-08
2.45052e-08
2.47297e-08
6.20958e-08
2.64846e-08
2.63331e-08
6.19321e-08
8.15471e-08
3.92889e-08
2.43081e-08
2.64703e-08
0
2.65996e-08
0
0
2.48658e-08
6.63755e-08
2.59389e-08
2.47712e-08
6.17483e-08
2.59271e-08
2.61845e-08
0
2.50864e-08
2.566e-08
2.61266e-08
2.79541e-08
2.80711e-08
2.66571e-08
2.60583e-08
2.61764e-08
0
0
0
0
0
0
0
0
0
0
0
0
0
0
0
0
0
0
0
0
0
0
0
0
0
0
0
0
0
0
0
0
0
0
0
0
0
0
0
0
0
2.63317e-08
2.72923e-08
2.68879e-08
2.57085e-08
2.49225e-08
2.54036e-08
6.13352e-08
2.71452e-08
2.64683e-08
2.5239e-08
2.48677e-08
0
0
0
2.5379e-08
0
6.28083e-08
2.49519e-08
2.63199e-08
6.29199e-08
2.6152e-08
0
6.27802e-08
2.48468e-08
2.53692e-08
6.30331e-08
2.45827e-08
6.12382e-08
2.53618e-08
6.78254e-08
2.65689e-08
2.55348e-08
2.62916e-08
2.61572e-08
0
0
0
0
0
0
0
0
0
0
0
0
0
0
0
0
0
0
0
0
0
0
0
0
0
0
0
0
0
0
0
0
0
0
0
0
0
0
0
0
0
2.65015e-08
2.6677e-08
6.38884e-08
2.50406e-08
2.58509e-08
0
2.54398e-08
6.78197e-08
2.64441e-08
2.42253e-08
2.53628e-08
2.58124e-08
0
2.56005e-08
2.56298e-08
2.66684e-08
2.649e-08
2.70733e-08
2.6945e-08
8.24923e-09
1.15691e-08
6.41246e-08
0
2.62022e-08
2.58667e-08
6.13016e-08
0
0
2.59837e-08
6.72413e-08
2.60051e-08
2.57232e-08
2.71602e-08
2.73784e-08
2.61551e-08
2.61646e-08
0
0
0
0
0
0
0
0
0
0
0
0
0
0
0
0
0
0
0
0
0
0
0
0
0
0
0
0
0
0
0
0
0
0
0
0
0
0
0
2.67254e-08
2.67608e-08
2.64955e-08
6.32825e-08
2.54545e-08
2.55974e-08
0
1.12751e-08
7.47265e-09
6.23775e-08
0
2.57657e-08
6.17722e-08
2.4986e-08
2.46467e-08
2.49788e-08
6.28132e-08
2.64309e-08
2.59446e-08
1.30025e-08
1.88863e-09
0
2.61525e-08
2.65648e-08
0
6.13793e-08
2.54826e-08
2.98652e-08
6.15265e-08
2.61099e-08
2.50283e-08
6.32531e-08
6.78201e-08
2.53172e-08
2.43867e-08
2.48557e-08
0
0
0
0
0
0
0
0
0
0
0
0
0
0
0
0
0
0
0
0
0
0
0
0
0
0
0
0
0
0
0
0
0
0
0
0
0
0
0
2.65595e-08
2.69125e-08
2.69912e-08
0
1.05217e-07
6.00887e-08
2.48423e-08
2.72961e-08
0
2.67299e-08
0
6.02442e-08
6.11961e-08
2.50382e-08
2.48685e-08
2.68368e-08
2.63332e-08
6.62175e-08
2.58005e-08
2.46489e-08
2.48856e-08
2.61342e-08
2.58733e-08
2.64132e-08
2.67327e-08
2.55059e-08
2.56206e-08
2.6457e-08
2.62902e-08
2.63455e-08
2.61452e-08
6.81942e-08
2.74154e-08
2.54848e-08
2.55414e-08
2.73297e-08
2.37811e-08
0
0
0
0
0
0
0
0
0
0
0
0
0
0
0
0
0
0
0
0
0
0
0
0
0
0
0
0
0
0
0
0
0
0
0
0
0
0
0
0
2.70258e-08
2.71304e-08
0
6.27361e-08
2.58047e-08
2.65587e-08
2.6755e-08
2.68897e-08
2.61741e-08
0
0
2.57883e-08
0
2.65819e-08
2.71892e-08
2.73471e-08
2.66198e-08
6.44281e-08
2.54171e-08
2.56865e-08
0
2.51446e-08
2.68118e-08
2.67972e-08
2.67634e-08
0
2.64253e-08
2.64577e-08
2.68219e-08
2.76528e-08
2.80725e-08
2.70592e-08
6.3667e-08
2.54605e-08
0
0
0
0
0
0
0
0
0
0
0
0
0
0
0
0
0
0
0
0
0
0
0
0
0
0
0
0
0
0
0
0
0
0
0
0
0
0
0
2.71671e-08
2.70272e-08
0
2.66512e-08
2.63254e-08
2.62317e-08
2.61517e-08
2.6139e-08
6.36628e-08
2.60479e-08
0
0
6.17153e-08
2.42706e-08
2.47776e-08
0
2.73923e-08
2.64115e-08
2.61884e-08
0
2.47024e-08
0
2.64232e-08
6.32953e-08
2.65736e-08
2.67763e-08
0
2.5961e-08
6.29426e-08
2.51063e-08
2.62245e-08
2.70289e-08
2.73516e-08
2.70811e-08
2.65995e-08
2.55668e-08
2.64091e-08
0
0
0
0
0
0
0
0
0
0
0
0
0
0
0
0
0
0
0
0
0
0
0
0
0
0
0
0
0
0
0
0
0
0
0
0
0
0
1.12644e-07
6.24559e-08
5.93138e-08
2.47143e-08
2.55579e-08
2.59235e-08
2.64464e-08
2.68958e-08
2.76828e-08
2.70872e-08
0
2.56531e-08
2.5249e-08
2.42731e-08
2.44868e-08
6.6456e-08
2.72346e-08
0
2.69474e-08
0
2.60758e-08
2.56571e-08
6.13417e-08
6.16517e-08
6.4897e-08
2.57233e-08
2.50512e-08
0
2.56674e-08
2.59319e-08
6.32464e-08
2.72474e-08
0
7.78535e-09
1.14209e-08
5.00312e-08
1.51012e-09
2.63462e-08
2.61326e-08
0
0
0
0
0
0
0
0
0
0
0
0
0
0
0
0
0
0
0
0
0
0
0
0
0
0
0
0
0
0
0
0
0
0
0
0
0
6.36174e-08
2.43091e-08
2.42975e-08
0
6.26549e-09
1.48898e-08
2.61136e-08
6.79993e-08
2.67023e-08
2.49491e-08
2.47191e-08
2.53805e-08
6.10253e-08
2.49309e-08
2.75494e-08
0
2.5961e-08
2.58748e-08
2.57882e-08
2.47745e-08
6.15372e-08
0
5.19936e-08
3.2874e-08
2.61912e-08
2.56263e-08
4.75792e-08
4.401e-09
2.59941e-08
2.596e-08
6.78555e-08
2.66224e-08
2.55956e-08
2.5749e-08
2.56896e-08
2.65551e-08
0
2.62182e-08
2.5994e-08
0
0
0
0
0
0
0
0
0
0
0
0
0
0
0
0
0
0
0
0
0
0
0
0
0
0
0
0
0
0
0
0
0
0
0
2.65919e-08
0
6.68701e-09
4.40968e-08
2.52506e-08
0
2.66694e-08
2.68452e-08
2.75745e-08
2.74604e-08
2.65845e-08
6.17548e-08
2.42666e-08
0
6.10424e-08
2.53876e-08
6.16854e-08
6.06325e-08
5.99726e-08
5.97634e-08
0
2.66092e-08
0
2.68609e-08
0
2.68241e-08
2.58963e-08
0
2.76128e-08
2.75137e-08
0
0
0
0
2.75822e-08
2.63e-08
2.61603e-08
2.6314e-08
6.23094e-08
0
0
0
0
0
0
0
0
0
0
0
0
0
0
0
0
0
0
0
0
0
0
0
0
0
0
0
0
0
0
0
0
0
0
0
0
0
2.60676e-08
2.46634e-08
6.1223e-08
6.15351e-08
2.49417e-08
2.65764e-08
0
0
3.88713e-08
1.84869e-08
3.582e-08
1.1062e-08
2.58711e-08
2.6294e-08
2.66601e-08
0
2.59211e-08
2.63828e-08
0
2.58642e-08
2.63655e-08
2.62298e-08
2.61008e-08
2.64218e-08
2.5587e-08
1.06745e-07
2.51445e-08
2.69934e-08
2.58474e-08
0
0
0
6.79866e-08
2.607e-08
2.48197e-08
0
2.63209e-08
0
6.25316e-08
2.68335e-08
6.14462e-08
2.56806e-08
0
0
0
0
0
0
0
0
0
0
0
0
0
0
0
0
0
0
0
0
0
0
0
0
0
0
0
0
0
0
0
0
2.63483e-08
2.58148e-08
2.40833e-08
1.09079e-07
2.57561e-08
2.3808e-08
2.52769e-08
2.67808e-08
6.40358e-08
6.07482e-08
2.56354e-08
0
0
0
0
2.6395e-08
2.7174e-08
2.56881e-08
2.53989e-08
2.60968e-08
2.57991e-08
6.27748e-08
2.63483e-08
0
0
2.57525e-08
2.60533e-08
6.8329e-08
0
1.06287e-07
0
0
2.59823e-08
2.76331e-08
6.43042e-08
2.6205e-08
2.62725e-08
2.6547e-08
2.62594e-08
2.59064e-08
6.34486e-08
2.62497e-08
5.90954e-08
5.82167e-08
2.46535e-08
0
0
0
0
0
0
0
0
0
0
0
0
0
0
0
0
0
0
0
0
0
0
0
0
0
0
0
0
0
0
2.53732e-08
4.13357e-08
8.33057e-09
2.61382e-08
2.64114e-08
2.56484e-08
1.08361e-08
7.24899e-09
2.79433e-08
2.61813e-08
2.56139e-08
2.57418e-08
2.61394e-08
2.6335e-08
2.63454e-08
2.59155e-08
4.82211e-08
3.18552e-08
0
2.5947e-08
0
2.65735e-08
2.6841e-08
2.68645e-08
2.63041e-08
6.0939e-08
2.48516e-08
2.543e-08
0
2.60974e-08
2.56274e-08
2.47097e-08
2.46896e-08
2.57006e-08
2.59456e-08
2.60954e-08
2.57415e-08
2.66283e-08
2.53941e-08
2.65043e-08
2.67841e-08
0
2.6467e-08
2.60978e-08
2.58663e-08
2.55e-08
0
0
0
0
0
0
0
0
0
0
0
0
0
0
0
0
0
0
0
0
0
0
0
0
0
0
0
0
0
)
;


// ************************************************************************* //
