/*--------------------------------*- C++ -*----------------------------------*\
  =========                 |
  \\      /  F ield         | OpenFOAM: The Open Source CFD Toolbox
   \\    /   O peration     | Website:  https://openfoam.org
    \\  /    A nd           | Version:  12
     \\/     M anipulation  |
\*---------------------------------------------------------------------------*/
FoamFile
{
    format      ascii;
    class       volVectorField::Internal;
    location    "0.85";
    object      cloud:UTrans;
}
// * * * * * * * * * * * * * * * * * * * * * * * * * * * * * * * * * * * * * //

dimensions      [1 1 -1 0 0 0 0];

value           nonuniform List<vector> 
3750
(
(1.75295e-11 -9.28812e-10 0)
(-9.37639e-12 -1.01906e-09 0)
(-2.54726e-11 -9.05318e-10 0)
(-3.14699e-11 -8.80512e-10 0)
(-2.32745e-11 -8.84428e-10 0)
(-1.26533e-11 -9.6536e-10 0)
(9.1751e-12 -1.43532e-09 0)
(-5.49813e-11 -1.40897e-09 0)
(2.6392e-11 -7.71218e-10 0)
(-1.01399e-11 -8.69785e-10 0)
(6.26911e-12 -9.18851e-10 0)
(1.89863e-11 -9.11115e-10 0)
(2.87234e-11 -9.39357e-10 0)
(1.39062e-11 -9.88591e-10 0)
(2.63914e-11 -1.00422e-09 0)
(8.2234e-12 -1.0042e-09 0)
(-4.85845e-11 -2.16143e-09 0)
(-3.67796e-11 -8.92116e-10 0)
(1.8186e-11 -8.18786e-10 0)
(5.35671e-12 -1.85242e-09 0)
(0 0 0)
(2.40938e-11 -8.1863e-10 0)
(0 0 0)
(3.82527e-11 -2.06615e-09 0)
(-5.28747e-11 -8.07606e-10 0)
(-4.67934e-11 -8.7391e-10 0)
(-7.27873e-12 -9.24355e-10 0)
(6.82262e-11 -1.07789e-09 0)
(-6.6545e-11 -1.00445e-09 0)
(-1.34967e-11 -8.89129e-10 0)
(5.74122e-12 -9.26806e-10 0)
(2.99893e-11 -8.53606e-10 0)
(6.79722e-13 -7.91406e-10 0)
(0 0 0)
(-7.309e-11 -8.00629e-10 0)
(-1.41087e-10 -2.34846e-09 0)
(-2.3784e-11 -9.19541e-10 0)
(-1.17235e-10 -1.90667e-09 0)
(-3.14222e-10 -2.51376e-09 0)
(1.71036e-11 -1.01049e-09 0)
(1.18393e-11 -9.78354e-10 0)
(1.60556e-12 -1.01869e-09 0)
(0 0 0)
(1.1627e-10 -1.9335e-09 0)
(-8.59873e-12 -7.1107e-10 0)
(0 0 0)
(0 0 0)
(0 0 0)
(0 0 0)
(0 0 0)
(0 0 0)
(0 0 0)
(0 0 0)
(0 0 0)
(0 0 0)
(0 0 0)
(0 0 0)
(0 0 0)
(0 0 0)
(0 0 0)
(0 0 0)
(0 0 0)
(0 0 0)
(0 0 0)
(0 0 0)
(0 0 0)
(0 0 0)
(0 0 0)
(0 0 0)
(0 0 0)
(0 0 0)
(0 0 0)
(0 0 0)
(0 0 0)
(0 0 0)
(3.31618e-11 -9.90596e-10 0)
(0 0 0)
(0 0 0)
(0 0 0)
(-7.73143e-11 -9.1393e-10 0)
(-3.93141e-11 -9.19967e-10 0)
(-2.26297e-10 -2.8459e-09 0)
(-3.37545e-11 -9.85103e-10 0)
(-4.53104e-11 -1.14288e-09 0)
(-1.44375e-11 -2.59887e-09 0)
(2.67622e-13 -2.89296e-09 0)
(0 0 0)
(0 0 0)
(0 0 0)
(1.63897e-11 -1.03228e-09 0)
(0 0 0)
(4.712e-11 -9.32241e-10 0)
(1.03613e-11 -1.99926e-09 0)
(-2.4995e-13 -1.95229e-09 0)
(2.44735e-11 -7.72989e-10 0)
(3.06089e-12 -7.9764e-10 0)
(5.68e-11 -9.41585e-10 0)
(0 0 0)
(0 0 0)
(-8.21827e-11 -8.76979e-10 0)
(0 0 0)
(-1.9126e-10 -1.87543e-09 0)
(-5.14279e-10 -6.72125e-09 0)
(3.55782e-12 -1.0261e-09 0)
(0 0 0)
(0 0 0)
(3.31786e-11 -8.70075e-10 0)
(0 0 0)
(-1.11789e-10 -1.84215e-09 0)
(-1.07552e-10 -9.51209e-10 0)
(-1.17922e-10 -1.03751e-09 0)
(1.31995e-10 -1.06144e-09 0)
(3.61527e-11 -9.95374e-10 0)
(6.12911e-12 -9.84587e-10 0)
(-6.39753e-11 -2.46989e-09 0)
(0 0 0)
(0 0 0)
(0 0 0)
(0 0 0)
(0 0 0)
(0 0 0)
(0 0 0)
(0 0 0)
(0 0 0)
(0 0 0)
(0 0 0)
(0 0 0)
(0 0 0)
(0 0 0)
(0 0 0)
(0 0 0)
(0 0 0)
(0 0 0)
(0 0 0)
(0 0 0)
(0 0 0)
(0 0 0)
(0 0 0)
(0 0 0)
(0 0 0)
(0 0 0)
(0 0 0)
(0 0 0)
(0 0 0)
(0 0 0)
(0 0 0)
(0 0 0)
(0 0 0)
(0 0 0)
(0 0 0)
(7.21965e-11 -2.1217e-09 0)
(-5.69213e-11 -1.02334e-09 0)
(-4.71004e-12 -9.11912e-10 0)
(0 0 0)
(0 0 0)
(0 0 0)
(-1.31912e-10 -9.3191e-10 0)
(-5.83434e-11 -2.12041e-09 0)
(0 0 0)
(4.0055e-11 -9.00865e-10 0)
(4.96935e-12 -1.20518e-10 0)
(1.05759e-10 -1.5249e-09 0)
(1.25382e-10 -9.27815e-10 0)
(6.2532e-11 -9.82402e-10 0)
(4.74798e-11 -1.03177e-09 0)
(-1.79421e-11 -2.16747e-09 0)
(-2.7102e-11 -1.00154e-09 0)
(-9.03734e-11 -2.24168e-09 0)
(-9.46045e-11 -1.3743e-09 0)
(-5.01779e-11 -1.83004e-09 0)
(-4.9318e-11 -8.27791e-10 0)
(0 0 0)
(-4.53707e-11 -9.35767e-10 0)
(-4.95227e-12 -1.01655e-09 0)
(-6.69887e-11 -2.14923e-09 0)
(-5.04299e-11 -8.48112e-10 0)
(-2.61663e-10 -1.79893e-09 0)
(-1.63202e-10 -9.8485e-10 0)
(0 0 0)
(8.59542e-11 -9.97384e-10 0)
(3.71269e-11 -8.84136e-10 0)
(-2.24563e-11 -1.88309e-09 0)
(-1.93234e-11 -7.83722e-10 0)
(-1.56747e-10 -1.83018e-09 0)
(-1.12562e-10 -1.01875e-09 0)
(-1.98164e-10 -1.759e-09 0)
(1.20193e-11 -8.84049e-10 0)
(0 0 0)
(0 0 0)
(0 0 0)
(0 0 0)
(0 0 0)
(0 0 0)
(0 0 0)
(0 0 0)
(0 0 0)
(0 0 0)
(0 0 0)
(0 0 0)
(0 0 0)
(0 0 0)
(0 0 0)
(0 0 0)
(0 0 0)
(0 0 0)
(0 0 0)
(0 0 0)
(0 0 0)
(0 0 0)
(0 0 0)
(0 0 0)
(0 0 0)
(0 0 0)
(0 0 0)
(0 0 0)
(0 0 0)
(0 0 0)
(0 0 0)
(0 0 0)
(0 0 0)
(0 0 0)
(0 0 0)
(0 0 0)
(0 0 0)
(0 0 0)
(5.46767e-11 -2.25342e-09 0)
(0 0 0)
(-2.32374e-11 -9.53798e-10 0)
(0 0 0)
(3.42272e-11 -1.01368e-09 0)
(-2.89862e-10 -2.30281e-09 0)
(-9.50412e-11 -1.93893e-09 0)
(1.47899e-11 -8.13999e-10 0)
(2.04494e-11 -8.37182e-10 0)
(-8.92838e-12 -8.82513e-10 0)
(1.72203e-11 -8.65338e-10 0)
(-2.99089e-11 -7.53557e-10 0)
(-1.30731e-10 -3.65024e-09 0)
(-6.83204e-12 -8.14559e-10 0)
(4.15783e-11 -3.79749e-09 0)
(3.76643e-11 -8.7956e-10 0)
(2.20212e-11 -9.1148e-10 0)
(-1.69283e-11 -9.59674e-10 0)
(-3.66171e-11 -9.25846e-10 0)
(-3.12365e-11 -8.95955e-10 0)
(-3.5019e-11 -8.44971e-10 0)
(-8.02942e-11 -8.50935e-10 0)
(0 0 0)
(-4.58953e-11 -9.21064e-10 0)
(5.41817e-11 -1.09788e-09 0)
(-1.27657e-11 -1.1157e-09 0)
(-7.29143e-11 -1.26694e-09 0)
(-6.51543e-11 -1.87488e-09 0)
(3.19737e-11 -9.38297e-10 0)
(7.58317e-12 -9.92265e-10 0)
(0 0 0)
(-4.36931e-12 -9.6997e-10 0)
(-4.39779e-11 -8.11103e-10 0)
(-2.44579e-10 -1.89084e-09 0)
(-1.16755e-10 -8.01789e-10 0)
(0 0 0)
(0 0 0)
(0 0 0)
(0 0 0)
(0 0 0)
(0 0 0)
(0 0 0)
(0 0 0)
(0 0 0)
(0 0 0)
(0 0 0)
(0 0 0)
(0 0 0)
(0 0 0)
(0 0 0)
(0 0 0)
(0 0 0)
(0 0 0)
(0 0 0)
(0 0 0)
(0 0 0)
(0 0 0)
(0 0 0)
(0 0 0)
(0 0 0)
(0 0 0)
(0 0 0)
(0 0 0)
(0 0 0)
(0 0 0)
(0 0 0)
(0 0 0)
(0 0 0)
(0 0 0)
(0 0 0)
(0 0 0)
(0 0 0)
(0 0 0)
(0 0 0)
(0 0 0)
(-2.26039e-11 -5.55212e-10 0)
(3.12412e-11 -1.07942e-09 0)
(1.77621e-11 -9.15696e-10 0)
(0 0 0)
(-6.06087e-11 -1.09392e-09 0)
(0 0 0)
(-1.07909e-10 -2.11764e-09 0)
(-5.93369e-11 -8.07718e-10 0)
(-8.51057e-11 -2.01358e-09 0)
(-6.07771e-11 -8.15909e-10 0)
(-1.05964e-10 -2.05395e-09 0)
(-1.65788e-10 -1.94704e-09 0)
(0 0 0)
(1.02832e-11 -8.90037e-10 0)
(-1.95036e-11 -9.25117e-10 0)
(4.66784e-11 -9.62511e-10 0)
(8.98227e-11 -1.11032e-09 0)
(-4.11568e-14 -3.00577e-10 0)
(-8.18803e-13 -5.24708e-10 0)
(3.05702e-11 -9.36834e-10 0)
(-7.45102e-12 -2.25298e-09 0)
(-6.9736e-11 -7.94962e-10 0)
(-6.63548e-11 -7.61771e-10 0)
(-3.8117e-11 -8.40775e-10 0)
(-1.53921e-11 -2.68412e-09 0)
(1.13415e-11 -1.00943e-09 0)
(-4.95131e-12 -8.55885e-10 0)
(-4.07311e-12 -8.87789e-10 0)
(0 0 0)
(0 0 0)
(0 0 0)
(0 0 0)
(-6.89792e-12 -2.13302e-09 0)
(-7.6509e-11 -8.45157e-10 0)
(-8.07565e-11 -8.70615e-10 0)
(-1.06051e-10 -8.97038e-10 0)
(0 0 0)
(0 0 0)
(0 0 0)
(0 0 0)
(0 0 0)
(0 0 0)
(0 0 0)
(0 0 0)
(0 0 0)
(0 0 0)
(0 0 0)
(0 0 0)
(0 0 0)
(0 0 0)
(0 0 0)
(0 0 0)
(0 0 0)
(0 0 0)
(0 0 0)
(0 0 0)
(0 0 0)
(0 0 0)
(0 0 0)
(0 0 0)
(0 0 0)
(0 0 0)
(0 0 0)
(0 0 0)
(0 0 0)
(0 0 0)
(0 0 0)
(0 0 0)
(0 0 0)
(0 0 0)
(0 0 0)
(0 0 0)
(0 0 0)
(0 0 0)
(0 0 0)
(-3.19245e-11 -9.92111e-10 0)
(2.23737e-11 -9.99506e-10 0)
(3.34828e-11 -9.36178e-10 0)
(0 0 0)
(-8.97584e-11 -1.05653e-09 0)
(2.49676e-11 -1.0702e-09 0)
(-5.61045e-11 -8.76236e-10 0)
(-4.54749e-11 -8.27472e-10 0)
(-7.36169e-11 -8.77807e-10 0)
(-8.60331e-11 -9.19501e-10 0)
(-8.37787e-11 -9.19454e-10 0)
(-5.95322e-11 -8.89981e-10 0)
(-5.96231e-11 -8.86435e-10 0)
(-5.01582e-11 -9.52754e-10 0)
(6.45757e-12 -9.77869e-10 0)
(-9.71765e-12 -8.94323e-10 0)
(4.50868e-12 -1.15019e-09 0)
(3.85489e-11 -1.06411e-09 0)
(5.69917e-11 -8.96836e-10 0)
(6.33738e-11 -1.01948e-09 0)
(4.20507e-11 -1.07821e-09 0)
(-3.13936e-11 -8.35015e-10 0)
(-5.46242e-11 -7.77866e-10 0)
(-9.88422e-11 -9.10505e-10 0)
(-8.51697e-11 -1.05417e-09 0)
(-1.6537e-12 -1.02812e-09 0)
(1.9518e-11 -9.59438e-10 0)
(1.51133e-11 -9.33218e-10 0)
(2.8686e-11 -9.42443e-10 0)
(3.34531e-11 -1.02134e-09 0)
(-1.46459e-11 -1.02404e-09 0)
(1.45051e-11 -9.47454e-10 0)
(-3.06442e-11 -9.63306e-10 0)
(0 0 0)
(-6.48252e-11 -1.0169e-09 0)
(0 0 0)
(0 0 0)
(0 0 0)
(0 0 0)
(0 0 0)
(0 0 0)
(0 0 0)
(0 0 0)
(0 0 0)
(0 0 0)
(0 0 0)
(0 0 0)
(0 0 0)
(0 0 0)
(0 0 0)
(0 0 0)
(0 0 0)
(0 0 0)
(0 0 0)
(0 0 0)
(0 0 0)
(0 0 0)
(0 0 0)
(0 0 0)
(0 0 0)
(0 0 0)
(0 0 0)
(0 0 0)
(0 0 0)
(0 0 0)
(0 0 0)
(0 0 0)
(0 0 0)
(0 0 0)
(0 0 0)
(0 0 0)
(0 0 0)
(0 0 0)
(0 0 0)
(0 0 0)
(-3.33891e-12 -9.14587e-10 0)
(2.64336e-11 -8.14317e-10 0)
(-2.25388e-10 -3.11825e-09 0)
(-1.61022e-10 -2.00108e-09 0)
(-8.08787e-11 -1.8295e-09 0)
(4.23925e-12 -1.85492e-09 0)
(-5.7324e-11 -2.04117e-09 0)
(-5.79768e-11 -9.0555e-10 0)
(-6.34263e-11 -9.33245e-10 0)
(-6.73069e-12 -1.98308e-10 0)
(-1.90789e-11 -5.43334e-10 0)
(-6.77287e-11 -9.34446e-10 0)
(-5.20572e-11 -9.5097e-10 0)
(-2.66628e-11 -9.37923e-10 0)
(-6.30219e-12 -9.53779e-10 0)
(0 0 0)
(-1.10736e-10 -2.34432e-09 0)
(4.22002e-11 -9.2848e-10 0)
(5.89734e-11 -8.31907e-10 0)
(2.40817e-12 -9.54504e-10 0)
(3.93971e-11 -1.14708e-09 0)
(0 0 0)
(3.15617e-11 -9.32521e-10 0)
(-7.92254e-11 -8.90683e-10 0)
(-6.84274e-11 -9.59306e-10 0)
(-1.16901e-11 -1.00919e-09 0)
(-3.82278e-11 -1.36732e-09 0)
(-1.12042e-11 -1.57673e-09 0)
(-6.4577e-12 -8.515e-10 0)
(4.69917e-11 -2.26057e-09 0)
(-5.33459e-11 -9.96809e-10 0)
(-3.74834e-11 -8.9222e-10 0)
(-2.86038e-12 -8.93037e-10 0)
(0 0 0)
(-5.75209e-11 -9.21286e-10 0)
(0 0 0)
(0 0 0)
(0 0 0)
(0 0 0)
(0 0 0)
(0 0 0)
(0 0 0)
(0 0 0)
(0 0 0)
(0 0 0)
(0 0 0)
(0 0 0)
(0 0 0)
(0 0 0)
(0 0 0)
(0 0 0)
(0 0 0)
(0 0 0)
(0 0 0)
(0 0 0)
(0 0 0)
(0 0 0)
(0 0 0)
(0 0 0)
(0 0 0)
(0 0 0)
(0 0 0)
(0 0 0)
(0 0 0)
(0 0 0)
(0 0 0)
(0 0 0)
(0 0 0)
(0 0 0)
(0 0 0)
(0 0 0)
(0 0 0)
(0 0 0)
(0 0 0)
(0 0 0)
(-1.11671e-10 -1.89677e-09 0)
(-1.03305e-10 -1.98668e-09 0)
(-8.20181e-11 -8.05043e-10 0)
(-3.08904e-11 -9.4908e-10 0)
(0 0 0)
(-2.4536e-11 -9.88812e-10 0)
(0 0 0)
(-3.93908e-11 -9.43351e-10 0)
(-4.72677e-11 -9.33269e-10 0)
(0 0 0)
(-4.18199e-11 -9.03355e-10 0)
(-5.25167e-11 -9.60113e-10 0)
(-2.38015e-11 -9.53489e-10 0)
(-1.77904e-11 -9.57348e-10 0)
(-1.54634e-12 -7.55556e-11 0)
(5.30309e-12 -1.99791e-09 0)
(-2.78997e-11 -9.35813e-10 0)
(2.26977e-11 -9.21837e-10 0)
(2.55861e-11 -9.13334e-10 0)
(0 0 0)
(-4.41457e-11 -1.06422e-09 0)
(6.39848e-11 -1.0167e-09 0)
(1.86234e-11 -9.75912e-10 0)
(0 0 0)
(-2.80273e-11 -9.57501e-10 0)
(-4.94301e-11 -9.85491e-10 0)
(-5.22589e-11 -9.83437e-10 0)
(-6.04028e-11 -9.65784e-10 0)
(-4.81057e-11 -9.34431e-10 0)
(-5.46062e-11 -2.51538e-09 0)
(-1.75379e-12 -9.16629e-10 0)
(-1.33305e-11 -9.42171e-10 0)
(-4.45345e-12 -9.52185e-10 0)
(-4.61375e-11 -1.93602e-09 0)
(0 0 0)
(0 0 0)
(0 0 0)
(0 0 0)
(0 0 0)
(0 0 0)
(0 0 0)
(0 0 0)
(0 0 0)
(0 0 0)
(0 0 0)
(0 0 0)
(0 0 0)
(0 0 0)
(0 0 0)
(0 0 0)
(0 0 0)
(0 0 0)
(0 0 0)
(0 0 0)
(0 0 0)
(0 0 0)
(0 0 0)
(0 0 0)
(0 0 0)
(0 0 0)
(0 0 0)
(0 0 0)
(0 0 0)
(0 0 0)
(0 0 0)
(0 0 0)
(0 0 0)
(0 0 0)
(0 0 0)
(0 0 0)
(0 0 0)
(0 0 0)
(0 0 0)
(0 0 0)
(0 0 0)
(-1.50177e-10 -2.64741e-09 0)
(-3.52911e-11 -8.05112e-10 0)
(-4.78347e-11 -8.36418e-10 0)
(-1.5793e-11 -9.75209e-10 0)
(0 0 0)
(-1.48583e-11 -1.01711e-09 0)
(0 0 0)
(-3.46157e-11 -9.52331e-10 0)
(-2.17708e-11 -9.51174e-10 0)
(-2.65816e-11 -9.65167e-10 0)
(-1.22106e-11 -9.66782e-10 0)
(-4.61461e-12 -2.29651e-10 0)
(-1.05238e-11 -5.2994e-10 0)
(-3.19297e-11 -1.3612e-09 0)
(-2.13157e-11 -1.53533e-09 0)
(8.38393e-12 -9.18037e-10 0)
(3.72527e-11 -9.0121e-10 0)
(-8.07931e-12 -9.38341e-10 0)
(-6.08227e-13 -2.13431e-10 0)
(-7.75177e-12 -1.75835e-09 0)
(0 0 0)
(3.85311e-11 -9.79074e-10 0)
(2.57732e-11 -1.00172e-09 0)
(2.92129e-13 -1.83886e-10 0)
(6.18574e-13 -6.36319e-10 0)
(0 0 0)
(0 0 0)
(-1.20343e-11 -9.74888e-10 0)
(-6.71128e-11 -1.01847e-09 0)
(-5.95459e-11 -1.08223e-09 0)
(-1.06592e-12 -1.04572e-09 0)
(3.47387e-11 -8.30126e-10 0)
(-8.4107e-12 -8.66067e-10 0)
(-5.51718e-11 -1.30113e-09 0)
(-2.27267e-11 -1.65317e-09 0)
(0 0 0)
(0 0 0)
(0 0 0)
(0 0 0)
(0 0 0)
(0 0 0)
(0 0 0)
(0 0 0)
(0 0 0)
(0 0 0)
(0 0 0)
(0 0 0)
(0 0 0)
(0 0 0)
(0 0 0)
(0 0 0)
(0 0 0)
(0 0 0)
(0 0 0)
(0 0 0)
(0 0 0)
(0 0 0)
(0 0 0)
(0 0 0)
(0 0 0)
(0 0 0)
(0 0 0)
(0 0 0)
(0 0 0)
(0 0 0)
(0 0 0)
(0 0 0)
(0 0 0)
(0 0 0)
(0 0 0)
(0 0 0)
(0 0 0)
(0 0 0)
(0 0 0)
(0 0 0)
(-1.52124e-11 -3.21783e-10 0)
(-1.28572e-11 -2.7162e-10 0)
(-3.02512e-11 -8.52535e-10 0)
(-2.65661e-11 -9.9865e-10 0)
(0 0 0)
(-5.75907e-11 -1.03471e-09 0)
(0 0 0)
(-5.25012e-12 -9.13389e-10 0)
(0 0 0)
(-1.38531e-11 -9.86754e-10 0)
(-7.58923e-12 -9.30055e-10 0)
(0 0 0)
(-5.39961e-11 -2.19001e-09 0)
(-9.14487e-12 -8.32583e-10 0)
(1.34636e-12 -8.29064e-10 0)
(2.24137e-11 -8.59924e-10 0)
(1.06478e-10 -2.25432e-09 0)
(-4.83959e-11 -8.78563e-10 0)
(1.31059e-11 -8.42524e-10 0)
(0 0 0)
(1.01204e-10 -9.09658e-10 0)
(1.95956e-11 -9.49283e-10 0)
(0 0 0)
(3.83376e-11 -9.74297e-10 0)
(-4.27368e-12 -1.01376e-09 0)
(-1.21412e-12 -1.50295e-10 0)
(-3.78916e-11 -1.68471e-09 0)
(-1.82643e-11 -1.0059e-09 0)
(0 0 0)
(-1.26187e-11 -1.07599e-09 0)
(0 0 0)
(0 0 0)
(3.50167e-12 -4.20932e-10 0)
(2.61847e-12 -2.94703e-10 0)
(-9.92749e-11 -2.11919e-09 0)
(4.30751e-12 -8.71199e-10 0)
(-2.26147e-11 -8.64484e-10 0)
(0 0 0)
(0 0 0)
(0 0 0)
(0 0 0)
(0 0 0)
(0 0 0)
(0 0 0)
(0 0 0)
(0 0 0)
(0 0 0)
(0 0 0)
(0 0 0)
(0 0 0)
(0 0 0)
(0 0 0)
(0 0 0)
(0 0 0)
(0 0 0)
(0 0 0)
(0 0 0)
(0 0 0)
(0 0 0)
(0 0 0)
(0 0 0)
(0 0 0)
(0 0 0)
(0 0 0)
(0 0 0)
(0 0 0)
(0 0 0)
(0 0 0)
(0 0 0)
(0 0 0)
(0 0 0)
(0 0 0)
(0 0 0)
(0 0 0)
(0 0 0)
(0 0 0)
(-1.08078e-10 -2.1216e-09 0)
(-3.88924e-11 -8.43267e-10 0)
(-3.09992e-11 -7.58942e-10 0)
(-1.64487e-11 -1.03998e-09 0)
(9.92614e-12 -1.06325e-09 0)
(0 0 0)
(1.23314e-11 -8.8065e-10 0)
(3.22667e-11 -7.72718e-10 0)
(-4.69403e-11 -8.67861e-10 0)
(0 0 0)
(3.47612e-11 -9.38849e-10 0)
(0 0 0)
(3.2125e-11 -9.17095e-10 0)
(-1.98345e-11 -9.51709e-10 0)
(0 0 0)
(-9.80651e-12 -9.55649e-10 0)
(-1.53285e-11 -2.03937e-09 0)
(5.48953e-12 -1.86953e-09 0)
(3.71621e-11 -8.12882e-10 0)
(7.65739e-11 -2.17896e-09 0)
(0 0 0)
(8.52704e-11 -9.22217e-10 0)
(1.00726e-11 -1.03107e-09 0)
(-6.4208e-11 -1.03066e-09 0)
(0 0 0)
(-3.86078e-11 -8.25421e-10 0)
(0 0 0)
(1.90825e-12 -9.73285e-10 0)
(4.0049e-11 -1.04361e-09 0)
(0 0 0)
(-8.2879e-12 -1.14432e-09 0)
(-1.13789e-11 -7.18398e-10 0)
(0 0 0)
(-7.16301e-11 -1.07031e-09 0)
(-1.35929e-10 -2.16502e-09 0)
(0 0 0)
(-6.99816e-12 -7.44897e-10 0)
(0 0 0)
(0 0 0)
(0 0 0)
(0 0 0)
(0 0 0)
(0 0 0)
(0 0 0)
(0 0 0)
(0 0 0)
(0 0 0)
(0 0 0)
(0 0 0)
(0 0 0)
(0 0 0)
(0 0 0)
(0 0 0)
(0 0 0)
(0 0 0)
(0 0 0)
(0 0 0)
(0 0 0)
(0 0 0)
(0 0 0)
(0 0 0)
(0 0 0)
(0 0 0)
(0 0 0)
(0 0 0)
(0 0 0)
(0 0 0)
(0 0 0)
(0 0 0)
(0 0 0)
(0 0 0)
(0 0 0)
(0 0 0)
(0 0 0)
(6.84475e-11 -2.32747e-09 0)
(-2.06999e-11 -9.94039e-10 0)
(-2.03738e-11 -1.89945e-09 0)
(4.55995e-12 -8.14968e-10 0)
(-8.15832e-11 -2.09615e-09 0)
(5.49889e-11 -1.06724e-09 0)
(7.90639e-11 -9.58075e-10 0)
(3.93939e-11 -8.49575e-10 0)
(-2.24572e-11 -2.08667e-09 0)
(0 0 0)
(2.55998e-11 -9.0587e-10 0)
(9.29687e-12 -8.61711e-10 0)
(0 0 0)
(2.00946e-11 -8.54822e-10 0)
(4.64963e-12 -1.00532e-09 0)
(-8.79022e-11 -1.05012e-09 0)
(-8.00305e-11 -1.03247e-09 0)
(2.23385e-11 -9.96826e-10 0)
(-1.39755e-11 -8.67849e-10 0)
(1.73079e-11 -8.69787e-10 0)
(2.93553e-11 -1.02661e-09 0)
(1.42831e-10 -1.90737e-09 0)
(1.19379e-10 -9.54733e-10 0)
(3.84199e-11 -1.0384e-09 0)
(-8.18836e-11 -1.06758e-09 0)
(0 0 0)
(0 0 0)
(-1.31975e-11 -9.29509e-10 0)
(-2.71995e-11 -9.31366e-10 0)
(2.11304e-11 -2.59029e-09 0)
(0 0 0)
(0 0 0)
(-6.96381e-11 -9.0058e-10 0)
(-1.74986e-11 -2.60099e-09 0)
(-5.01743e-11 -9.60587e-10 0)
(-4.72077e-11 -8.24048e-10 0)
(-4.46546e-11 -1.85756e-09 0)
(0 0 0)
(0 0 0)
(0 0 0)
(0 0 0)
(0 0 0)
(0 0 0)
(0 0 0)
(0 0 0)
(0 0 0)
(0 0 0)
(0 0 0)
(0 0 0)
(0 0 0)
(0 0 0)
(0 0 0)
(0 0 0)
(0 0 0)
(0 0 0)
(0 0 0)
(0 0 0)
(0 0 0)
(0 0 0)
(0 0 0)
(0 0 0)
(0 0 0)
(0 0 0)
(0 0 0)
(0 0 0)
(0 0 0)
(0 0 0)
(0 0 0)
(0 0 0)
(0 0 0)
(0 0 0)
(0 0 0)
(0 0 0)
(0 0 0)
(0 0 0)
(-5.14878e-11 -1.06811e-09 0)
(0 0 0)
(0 0 0)
(-7.06223e-12 -9.59906e-10 0)
(-1.74083e-11 -9.73677e-10 0)
(7.22736e-11 -2.08349e-09 0)
(7.50594e-11 -1.08592e-09 0)
(7.25073e-11 -1.74276e-09 0)
(-4.13821e-12 -8.69741e-10 0)
(2.49224e-11 -9.24668e-10 0)
(9.45921e-11 -1.84357e-09 0)
(-6.16047e-13 -1.87458e-09 0)
(-2.83589e-11 -8.16873e-10 0)
(-4.06413e-11 -9.19896e-10 0)
(-3.36182e-11 -1.10663e-09 0)
(0 0 0)
(-3.74241e-11 -9.63748e-10 0)
(-2.38017e-11 -9.44392e-10 0)
(-1.56405e-11 -9.43317e-10 0)
(-4.26621e-12 -9.08865e-10 0)
(1.39348e-11 -8.67071e-10 0)
(4.49604e-11 -8.22682e-10 0)
(1.96456e-10 -2.54653e-09 0)
(-6.46997e-12 -1.16491e-09 0)
(0 0 0)
(-1.12781e-11 -9.29496e-10 0)
(4.94736e-12 -9.05225e-10 0)
(1.42407e-12 -2.76542e-10 0)
(1.64318e-12 -3.92135e-10 0)
(-5.62855e-11 -1.01599e-09 0)
(5.10464e-11 -1.0247e-09 0)
(-2.20458e-11 -9.33759e-10 0)
(0 0 0)
(-1.06077e-10 -1.06633e-09 0)
(-1.25174e-11 -1.1107e-09 0)
(0 0 0)
(0 0 0)
(0 0 0)
(0 0 0)
(0 0 0)
(0 0 0)
(0 0 0)
(0 0 0)
(0 0 0)
(0 0 0)
(0 0 0)
(0 0 0)
(0 0 0)
(0 0 0)
(0 0 0)
(0 0 0)
(0 0 0)
(0 0 0)
(0 0 0)
(0 0 0)
(0 0 0)
(0 0 0)
(0 0 0)
(0 0 0)
(0 0 0)
(0 0 0)
(0 0 0)
(0 0 0)
(0 0 0)
(0 0 0)
(0 0 0)
(0 0 0)
(0 0 0)
(0 0 0)
(0 0 0)
(0 0 0)
(0 0 0)
(0 0 0)
(0 0 0)
(0 0 0)
(-1.77279e-11 -1.06526e-09 0)
(1.47028e-11 -9.74761e-10 0)
(4.33246e-11 -2.03058e-09 0)
(-6.02275e-11 -2.19938e-09 0)
(-2.53794e-11 -8.54491e-10 0)
(-2.97197e-11 -9.14838e-10 0)
(0 0 0)
(-6.9162e-12 -9.48114e-10 0)
(-1.17888e-11 -9.28286e-10 0)
(-5.03846e-11 -1.90856e-09 0)
(-8.82652e-11 -1.83486e-09 0)
(-4.32409e-11 -8.56658e-10 0)
(-3.255e-11 -8.58271e-10 0)
(-6.02358e-11 -8.77492e-10 0)
(-5.60284e-11 -9.61103e-10 0)
(3.25501e-11 -9.94497e-10 0)
(5.34464e-12 -9.44951e-10 0)
(-3.04746e-11 -9.24136e-10 0)
(-1.45155e-11 -9.18291e-10 0)
(-3.56868e-13 -8.92907e-10 0)
(-9.5353e-13 -8.96446e-10 0)
(-2.85052e-11 -9.59936e-10 0)
(5.65244e-12 -4.92676e-10 0)
(6.70611e-11 -1.53741e-09 0)
(9.1708e-11 -1.01421e-09 0)
(4.1008e-11 -8.92117e-10 0)
(1.28083e-11 -1.16392e-09 0)
(1.50814e-11 -1.6789e-09 0)
(0 0 0)
(0 0 0)
(1.4884e-11 -9.91411e-10 0)
(-3.86398e-11 -1.02347e-09 0)
(-4.26528e-12 -1.01391e-09 0)
(-9.4826e-11 -2.4256e-09 0)
(-4.92885e-11 -8.91805e-10 0)
(-1.83965e-11 -1.92726e-09 0)
(0 0 0)
(0 0 0)
(0 0 0)
(0 0 0)
(0 0 0)
(0 0 0)
(0 0 0)
(0 0 0)
(0 0 0)
(0 0 0)
(0 0 0)
(0 0 0)
(0 0 0)
(0 0 0)
(0 0 0)
(0 0 0)
(0 0 0)
(0 0 0)
(0 0 0)
(0 0 0)
(0 0 0)
(0 0 0)
(0 0 0)
(0 0 0)
(0 0 0)
(0 0 0)
(0 0 0)
(0 0 0)
(0 0 0)
(0 0 0)
(0 0 0)
(0 0 0)
(0 0 0)
(0 0 0)
(0 0 0)
(0 0 0)
(0 0 0)
(0 0 0)
(0 0 0)
(2.51692e-11 -9.56294e-10 0)
(0 0 0)
(7.83275e-11 -9.17294e-10 0)
(-2.71393e-11 -1.08174e-09 0)
(-6.37449e-12 -9.88402e-10 0)
(0 0 0)
(-2.31945e-11 -1.77276e-09 0)
(-5.72557e-11 -1.04019e-09 0)
(-2.01471e-11 -8.69802e-10 0)
(-2.64931e-11 -8.5361e-10 0)
(-7.683e-11 -2.03456e-09 0)
(-3.65856e-11 -8.73903e-10 0)
(-1.33969e-11 -9.11315e-10 0)
(-2.96614e-11 -8.96664e-10 0)
(-1.97957e-11 -2.17774e-09 0)
(-9.74822e-12 -8.90522e-10 0)
(7.27042e-12 -8.59666e-10 0)
(-1.3328e-11 -9.06736e-10 0)
(0 0 0)
(1.73954e-11 -9.20632e-10 0)
(1.62428e-11 -9.11575e-10 0)
(2.5041e-11 -8.95658e-10 0)
(2.28553e-11 -9.86001e-10 0)
(9.86908e-11 -1.07526e-09 0)
(7.09101e-11 -1.08502e-09 0)
(4.35165e-11 -9.94243e-10 0)
(1.54404e-11 -9.72459e-10 0)
(0 0 0)
(7.9794e-11 -8.09462e-10 0)
(4.54823e-11 -2.21151e-09 0)
(-7.51004e-11 -2.28774e-09 0)
(-5.19697e-11 -8.35098e-10 0)
(-8.88049e-11 -1.53161e-09 0)
(-9.80306e-11 -1.49412e-09 0)
(0 0 0)
(0 0 0)
(0 0 0)
(0 0 0)
(0 0 0)
(0 0 0)
(0 0 0)
(0 0 0)
(0 0 0)
(0 0 0)
(0 0 0)
(0 0 0)
(0 0 0)
(0 0 0)
(0 0 0)
(0 0 0)
(0 0 0)
(0 0 0)
(0 0 0)
(0 0 0)
(0 0 0)
(0 0 0)
(0 0 0)
(0 0 0)
(0 0 0)
(0 0 0)
(0 0 0)
(0 0 0)
(0 0 0)
(0 0 0)
(0 0 0)
(0 0 0)
(0 0 0)
(0 0 0)
(0 0 0)
(0 0 0)
(0 0 0)
(0 0 0)
(0 0 0)
(0 0 0)
(0 0 0)
(9.33967e-12 -9.80603e-10 0)
(7.61848e-11 -8.62041e-10 0)
(3.84608e-11 -1.05442e-09 0)
(0 0 0)
(0 0 0)
(4.10135e-11 -9.11579e-10 0)
(-2.56907e-11 -9.82595e-10 0)
(0 0 0)
(-4.45481e-11 -9.30311e-10 0)
(-4.08207e-11 -9.44015e-10 0)
(0 0 0)
(-3.08647e-11 -9.33975e-10 0)
(-5.17799e-11 -2.05262e-09 0)
(-3.41654e-11 -8.69777e-10 0)
(-1.01555e-10 -1.96927e-09 0)
(-2.46003e-11 -1.87098e-09 0)
(8.6736e-12 -1.87921e-09 0)
(0 0 0)
(2.43646e-11 -8.30975e-10 0)
(4.14268e-11 -8.51959e-10 0)
(-3.45323e-12 -8.66323e-10 0)
(-1.32246e-11 -8.5316e-10 0)
(6.25445e-11 -9.84264e-10 0)
(6.20721e-11 -1.12617e-09 0)
(7.91039e-11 -1.06942e-09 0)
(4.92553e-11 -1.01523e-09 0)
(-7.9086e-11 -1.80074e-09 0)
(1.30673e-11 -9.82335e-10 0)
(2.63295e-11 -1.85969e-09 0)
(-5.97983e-11 -2.34846e-09 0)
(-3.58883e-11 -9.39172e-10 0)
(-1.36058e-13 -8.79945e-10 0)
(0 0 0)
(0 0 0)
(0 0 0)
(0 0 0)
(0 0 0)
(0 0 0)
(0 0 0)
(0 0 0)
(0 0 0)
(0 0 0)
(0 0 0)
(0 0 0)
(0 0 0)
(0 0 0)
(0 0 0)
(0 0 0)
(0 0 0)
(0 0 0)
(0 0 0)
(0 0 0)
(0 0 0)
(0 0 0)
(0 0 0)
(0 0 0)
(0 0 0)
(0 0 0)
(0 0 0)
(0 0 0)
(0 0 0)
(0 0 0)
(0 0 0)
(0 0 0)
(0 0 0)
(0 0 0)
(0 0 0)
(0 0 0)
(0 0 0)
(0 0 0)
(0 0 0)
(0 0 0)
(0 0 0)
(0 0 0)
(0 0 0)
(5.56544e-12 -9.62007e-10 0)
(1.74423e-11 -9.49306e-10 0)
(1.47853e-12 -2.86501e-11 0)
(1.03399e-10 -2.16657e-09 0)
(9.40617e-11 -1.1039e-09 0)
(5.50841e-11 -9.14456e-10 0)
(1.02684e-11 -9.5228e-10 0)
(0 0 0)
(-1.45095e-11 -9.25601e-10 0)
(0 0 0)
(-2.30505e-11 -9.54981e-10 0)
(-9.1803e-11 -9.17651e-10 0)
(-8.90098e-11 -8.86734e-10 0)
(-1.76256e-10 -2.14617e-09 0)
(-6.57294e-11 -8.24082e-10 0)
(-9.26717e-11 -1.3791e-09 0)
(-6.71823e-11 -1.1664e-09 0)
(1.69146e-11 -2.01521e-09 0)
(-2.6149e-11 -8.7385e-10 0)
(-4.25971e-12 -2.07828e-09 0)
(-1.49918e-11 -7.84839e-10 0)
(3.77787e-12 -8.37328e-10 0)
(-1.17513e-11 -9.09673e-10 0)
(-4.42643e-12 -1.06137e-09 0)
(3.06706e-11 -1.07141e-09 0)
(-2.86639e-11 -1.20576e-09 0)
(0 0 0)
(-2.40901e-11 -8.91096e-10 0)
(-1.97733e-10 -1.88621e-09 0)
(-1.73263e-10 -2.39783e-09 0)
(9.73708e-12 -1.63608e-09 0)
(3.0727e-11 -2.39465e-09 0)
(0 0 0)
(0 0 0)
(0 0 0)
(0 0 0)
(0 0 0)
(0 0 0)
(0 0 0)
(0 0 0)
(0 0 0)
(0 0 0)
(0 0 0)
(0 0 0)
(0 0 0)
(0 0 0)
(0 0 0)
(0 0 0)
(0 0 0)
(0 0 0)
(0 0 0)
(0 0 0)
(0 0 0)
(0 0 0)
(0 0 0)
(0 0 0)
(0 0 0)
(0 0 0)
(0 0 0)
(0 0 0)
(0 0 0)
(0 0 0)
(0 0 0)
(0 0 0)
(0 0 0)
(0 0 0)
(0 0 0)
(0 0 0)
(0 0 0)
(0 0 0)
(0 0 0)
(0 0 0)
(0 0 0)
(0 0 0)
(0 0 0)
(1.07948e-11 -9.66851e-10 0)
(2.10784e-11 -1.00029e-09 0)
(0 0 0)
(-2.55995e-11 -1.03514e-09 0)
(2.81202e-11 -1.14409e-09 0)
(2.13752e-11 -1.00465e-09 0)
(2.52381e-11 -8.32892e-10 0)
(-1.82382e-12 -8.68395e-10 0)
(-2.64461e-11 -9.80839e-10 0)
(0 0 0)
(-1.25968e-10 -2.1972e-09 0)
(-3.51556e-11 -8.41368e-10 0)
(-5.1147e-11 -9.28034e-10 0)
(0 0 0)
(-7.3516e-12 -8.7826e-10 0)
(-1.86666e-11 -9.03357e-10 0)
(0 0 0)
(-1.58026e-11 -1.01687e-09 0)
(0 0 0)
(1.0413e-11 -8.52236e-10 0)
(1.51097e-12 -1.89157e-09 0)
(-5.90842e-12 -1.19589e-09 0)
(-1.42907e-11 -1.26065e-09 0)
(-3.49716e-11 -8.722e-10 0)
(0 0 0)
(-8.944e-11 -1.17604e-09 0)
(-9.40193e-12 -1.0104e-09 0)
(-8.53428e-11 -2.07654e-09 0)
(-6.2978e-11 -8.09292e-10 0)
(-1.13179e-10 -2.10696e-09 0)
(-3.80898e-11 -8.95454e-10 0)
(-3.61088e-11 -1.13913e-09 0)
(1.14493e-10 -2.05893e-09 0)
(0 0 0)
(0 0 0)
(0 0 0)
(0 0 0)
(0 0 0)
(0 0 0)
(0 0 0)
(0 0 0)
(0 0 0)
(0 0 0)
(0 0 0)
(0 0 0)
(0 0 0)
(0 0 0)
(0 0 0)
(0 0 0)
(0 0 0)
(0 0 0)
(0 0 0)
(0 0 0)
(0 0 0)
(0 0 0)
(0 0 0)
(0 0 0)
(0 0 0)
(0 0 0)
(0 0 0)
(0 0 0)
(0 0 0)
(0 0 0)
(0 0 0)
(0 0 0)
(0 0 0)
(0 0 0)
(0 0 0)
(0 0 0)
(0 0 0)
(0 0 0)
(0 0 0)
(0 0 0)
(0 0 0)
(0 0 0)
(3.94403e-11 -9.32983e-10 0)
(3.21707e-11 -9.77002e-10 0)
(3.40044e-11 -9.89505e-10 0)
(0 0 0)
(-2.05427e-11 -2.29523e-09 0)
(5.38345e-11 -9.40799e-10 0)
(2.90021e-11 -8.84459e-10 0)
(6.30206e-12 -2.54904e-10 0)
(1.11181e-11 -4.43733e-10 0)
(0 0 0)
(-2.9044e-12 -9.34011e-10 0)
(0 0 0)
(-6.05502e-11 -9.33885e-10 0)
(-3.48156e-11 -9.94398e-10 0)
(0 0 0)
(-1.94077e-11 -9.37493e-10 0)
(0 0 0)
(0 0 0)
(-1.02788e-11 -9.43086e-10 0)
(-3.24121e-11 -3.24971e-09 0)
(-1.02846e-10 -1.77738e-09 0)
(-1.35626e-10 -1.76025e-09 0)
(-1.73295e-10 -1.89018e-09 0)
(-1.60041e-11 -1.01688e-09 0)
(-4.63217e-11 -1.24618e-09 0)
(-1.58046e-11 -1.00654e-09 0)
(-1.37873e-11 -8.84368e-10 0)
(-2.89101e-11 -8.27685e-10 0)
(-4.509e-11 -8.70653e-10 0)
(-7.24283e-11 -9.36035e-10 0)
(-5.72864e-11 -9.69612e-10 0)
(-4.27561e-11 -9.76026e-10 0)
(-2.26571e-12 -9.69166e-10 0)
(0 0 0)
(0 0 0)
(0 0 0)
(0 0 0)
(0 0 0)
(0 0 0)
(0 0 0)
(0 0 0)
(0 0 0)
(0 0 0)
(0 0 0)
(0 0 0)
(0 0 0)
(0 0 0)
(0 0 0)
(0 0 0)
(0 0 0)
(0 0 0)
(0 0 0)
(0 0 0)
(0 0 0)
(0 0 0)
(0 0 0)
(0 0 0)
(0 0 0)
(0 0 0)
(0 0 0)
(0 0 0)
(0 0 0)
(0 0 0)
(0 0 0)
(0 0 0)
(0 0 0)
(0 0 0)
(0 0 0)
(0 0 0)
(0 0 0)
(0 0 0)
(0 0 0)
(0 0 0)
(0 0 0)
(0 0 0)
(4.29607e-11 -9.89432e-10 0)
(3.17611e-11 -9.80157e-10 0)
(2.56857e-11 -9.97616e-10 0)
(2.22646e-11 -9.98827e-10 0)
(-5.67759e-12 -1.00385e-09 0)
(2.28253e-11 -1.00314e-09 0)
(0 0 0)
(1.75453e-11 -8.90894e-10 0)
(2.04106e-11 -9.69163e-10 0)
(2.81792e-11 -9.09049e-10 0)
(-6.20503e-12 -9.6267e-10 0)
(0 0 0)
(-7.77631e-11 -9.45654e-10 0)
(-6.05591e-11 -9.9041e-10 0)
(-5.0317e-11 -9.46891e-10 0)
(-3.58358e-11 -9.73249e-10 0)
(0 0 0)
(-3.35729e-11 -9.66478e-10 0)
(-1.13394e-10 -2.01066e-09 0)
(-1.44907e-10 -1.79018e-09 0)
(-1.46928e-10 -1.77367e-09 0)
(-7.17517e-11 -8.65771e-10 0)
(-8.59355e-11 -8.96328e-10 0)
(-5.44526e-11 -9.09114e-10 0)
(-8.20537e-11 -1.06994e-09 0)
(-1.64111e-11 -1.10618e-09 0)
(-1.43201e-11 -8.79477e-10 0)
(1.6977e-12 -9.311e-10 0)
(-5.69248e-11 -9.62564e-10 0)
(-5.05303e-11 -9.28589e-10 0)
(-3.54367e-11 -8.79434e-10 0)
(-2.3656e-11 -9.12612e-10 0)
(0 0 0)
(3.35035e-11 -8.05075e-10 0)
(7.83184e-11 -9.2701e-10 0)
(6.98817e-11 -8.9523e-10 0)
(0 0 0)
(0 0 0)
(0 0 0)
(0 0 0)
(0 0 0)
(0 0 0)
(0 0 0)
(0 0 0)
(0 0 0)
(0 0 0)
(0 0 0)
(0 0 0)
(0 0 0)
(0 0 0)
(0 0 0)
(0 0 0)
(0 0 0)
(0 0 0)
(0 0 0)
(0 0 0)
(0 0 0)
(0 0 0)
(0 0 0)
(0 0 0)
(0 0 0)
(0 0 0)
(0 0 0)
(0 0 0)
(0 0 0)
(0 0 0)
(0 0 0)
(0 0 0)
(0 0 0)
(0 0 0)
(0 0 0)
(0 0 0)
(0 0 0)
(0 0 0)
(0 0 0)
(5.62877e-11 -9.54571e-10 0)
(3.49635e-11 -9.9263e-10 0)
(2.16974e-11 -9.97043e-10 0)
(3.22713e-11 -1.02329e-09 0)
(2.75229e-12 -1.06665e-09 0)
(0 0 0)
(1.75075e-11 -8.99943e-10 0)
(4.58187e-11 -1.96836e-09 0)
(0 0 0)
(6.0125e-11 -1.02624e-09 0)
(-1.3364e-10 -2.48898e-09 0)
(-3.27823e-11 -8.25363e-10 0)
(0 0 0)
(-2.88576e-11 -9.65478e-10 0)
(0 0 0)
(-5.09067e-11 -9.19106e-10 0)
(-1.18966e-10 -2.05199e-09 0)
(-6.72896e-11 -8.44127e-10 0)
(-1.6428e-10 -2.03098e-09 0)
(-8.73649e-11 -8.54401e-10 0)
(-8.01216e-11 -8.83879e-10 0)
(-7.13856e-11 -8.85474e-10 0)
(-4.09845e-11 -9.05618e-10 0)
(-7.07344e-11 -9.2096e-10 0)
(-9.48485e-11 -2.12917e-09 0)
(-1.42888e-12 -2.08911e-09 0)
(-5.68084e-12 -9.87699e-10 0)
(0 0 0)
(-3.77345e-11 -9.4276e-10 0)
(-1.54484e-11 -8.92509e-10 0)
(3.00226e-12 -4.90601e-10 0)
(8.38221e-13 -1.26764e-10 0)
(0 0 0)
(4.43735e-11 -1.02374e-09 0)
(6.06154e-11 -2.22449e-09 0)
(-1.32774e-12 -8.44036e-10 0)
(-1.56845e-12 -8.41288e-10 0)
(0 0 0)
(0 0 0)
(0 0 0)
(0 0 0)
(0 0 0)
(0 0 0)
(0 0 0)
(0 0 0)
(0 0 0)
(0 0 0)
(0 0 0)
(0 0 0)
(0 0 0)
(0 0 0)
(0 0 0)
(0 0 0)
(0 0 0)
(0 0 0)
(0 0 0)
(0 0 0)
(0 0 0)
(0 0 0)
(0 0 0)
(0 0 0)
(0 0 0)
(0 0 0)
(0 0 0)
(0 0 0)
(0 0 0)
(0 0 0)
(0 0 0)
(0 0 0)
(0 0 0)
(0 0 0)
(0 0 0)
(0 0 0)
(0 0 0)
(0 0 0)
(-3.30466e-11 -2.28884e-09 0)
(5.40831e-11 -9.60747e-10 0)
(7.27074e-11 -9.8541e-10 0)
(-1.65389e-12 -1.04577e-09 0)
(0 0 0)
(-3.06243e-11 -9.87547e-10 0)
(2.15775e-11 -1.88072e-09 0)
(-2.19416e-11 -8.06471e-10 0)
(-1.85309e-12 -8.79926e-10 0)
(-6.65654e-11 -2.52953e-09 0)
(-2.08043e-11 -9.51118e-10 0)
(-1.21763e-11 -8.95224e-10 0)
(1.0042e-11 -8.36841e-10 0)
(-1.83856e-12 -8.80005e-10 0)
(1.75758e-12 -2.89642e-10 0)
(-1.29691e-11 -1.2739e-09 0)
(-3.85483e-11 -9.32572e-10 0)
(-6.25007e-11 -9.39748e-10 0)
(-7.52771e-11 -9.39214e-10 0)
(-4.28193e-11 -9.57994e-10 0)
(0 0 0)
(-7.2464e-11 -9.13284e-10 0)
(-5.15936e-11 -9.52649e-10 0)
(0 0 0)
(-2.5288e-11 -9.65085e-10 0)
(-1.48357e-11 -1.00091e-09 0)
(-1.28962e-11 -1.02883e-09 0)
(0 0 0)
(5.62009e-11 -9.78279e-10 0)
(2.02389e-11 -9.99056e-10 0)
(0 0 0)
(0 0 0)
(5.8405e-11 -1.0221e-09 0)
(4.39796e-11 -1.05634e-09 0)
(-3.82625e-13 -1.09645e-09 0)
(0 0 0)
(0 0 0)
(0 0 0)
(0 0 0)
(0 0 0)
(0 0 0)
(0 0 0)
(0 0 0)
(0 0 0)
(0 0 0)
(0 0 0)
(0 0 0)
(0 0 0)
(0 0 0)
(0 0 0)
(0 0 0)
(0 0 0)
(0 0 0)
(0 0 0)
(0 0 0)
(0 0 0)
(0 0 0)
(0 0 0)
(0 0 0)
(0 0 0)
(0 0 0)
(0 0 0)
(0 0 0)
(0 0 0)
(0 0 0)
(0 0 0)
(0 0 0)
(0 0 0)
(0 0 0)
(0 0 0)
(0 0 0)
(0 0 0)
(0 0 0)
(0 0 0)
(0 0 0)
(-4.04632e-11 -8.95888e-10 0)
(4.43175e-11 -8.39371e-10 0)
(8.05924e-11 -1.07996e-09 0)
(1.01177e-11 -1.22498e-09 0)
(0 0 0)
(-3.34387e-11 -1.90953e-09 0)
(-8.10908e-11 -1.82165e-09 0)
(-4.89356e-11 -8.08863e-10 0)
(-1.57714e-10 -1.89344e-09 0)
(-4.72863e-11 -9.68721e-10 0)
(-3.14101e-11 -1.0297e-09 0)
(1.91195e-12 -7.76876e-10 0)
(1.89537e-11 -8.19898e-10 0)
(4.00767e-12 -2.08445e-10 0)
(1.12213e-11 -5.64188e-10 0)
(1.10585e-11 -1.01074e-09 0)
(0 0 0)
(-3.54433e-11 -9.77639e-10 0)
(0 0 0)
(-2.39907e-11 -9.30742e-10 0)
(-4.43654e-11 -9.82704e-10 0)
(0 0 0)
(0 0 0)
(-1.56585e-11 -9.74365e-10 0)
(-1.57965e-11 -1.04866e-09 0)
(1.05976e-11 -1.00115e-09 0)
(-5.72349e-12 -1.0263e-09 0)
(0 0 0)
(1.56136e-11 -9.65553e-10 0)
(5.82817e-11 -9.69132e-10 0)
(7.35744e-11 -1.00793e-09 0)
(5.88978e-11 -1.06079e-09 0)
(0 0 0)
(5.04509e-11 -9.84197e-10 0)
(2.30894e-11 -1.0644e-09 0)
(-3.28332e-11 -1.99558e-09 0)
(8.35244e-12 -8.2115e-10 0)
(0 0 0)
(0 0 0)
(0 0 0)
(0 0 0)
(0 0 0)
(0 0 0)
(0 0 0)
(0 0 0)
(0 0 0)
(0 0 0)
(0 0 0)
(0 0 0)
(0 0 0)
(0 0 0)
(0 0 0)
(0 0 0)
(0 0 0)
(0 0 0)
(0 0 0)
(0 0 0)
(0 0 0)
(0 0 0)
(0 0 0)
(0 0 0)
(0 0 0)
(0 0 0)
(0 0 0)
(0 0 0)
(0 0 0)
(0 0 0)
(0 0 0)
(0 0 0)
(0 0 0)
(0 0 0)
(0 0 0)
(0 0 0)
(0 0 0)
(0 0 0)
(-1.23803e-10 -3.06664e-09 0)
(-4.90227e-12 -8.09199e-10 0)
(3.3821e-12 -9.29247e-10 0)
(6.83565e-11 -2.42151e-09 0)
(9.64939e-11 -3.01652e-09 0)
(6.71574e-11 -1.07227e-09 0)
(-3.10098e-11 -8.24554e-10 0)
(-4.96718e-11 -9.05909e-10 0)
(-2.42769e-13 -4.0983e-11 0)
(-6.81137e-13 -2.47334e-09 0)
(0 0 0)
(0 0 0)
(6.64952e-11 -8.74586e-10 0)
(8.9472e-11 -8.80323e-10 0)
(0 0 0)
(4.70321e-11 -8.46603e-10 0)
(3.19994e-11 -9.21173e-10 0)
(0 0 0)
(7.81052e-13 -9.47552e-10 0)
(0 0 0)
(-2.27604e-11 -9.75253e-10 0)
(0 0 0)
(-3.18107e-11 -9.54519e-10 0)
(-3.56572e-11 -9.56194e-10 0)
(1.34325e-11 -9.98382e-10 0)
(0 0 0)
(-6.80356e-14 -1.01641e-09 0)