/*--------------------------------*- C++ -*----------------------------------*\
  =========                 |
  \\      /  F ield         | OpenFOAM: The Open Source CFD Toolbox
   \\    /   O peration     | Website:  https://openfoam.org
    \\  /    A nd           | Version:  12
     \\/     M anipulation  |
\*---------------------------------------------------------------------------*/
FoamFile
{
    format      ascii;
    class       volScalarField;
    location    "0.85";
    object      p;
}
// * * * * * * * * * * * * * * * * * * * * * * * * * * * * * * * * * * * * * //

dimensions      [0 2 -2 0 0 0 0];

internalField   nonuniform List<scalar> 
3750
(
0.721399
0.712179
0.70299
0.69878
0.69028
0.684163
0.686264
0.65964
0.659898
0.640633
0.627681
0.614424
0.604887
0.597801
0.591697
0.585186
0.576267
0.562769
0.546544
0.523854
0.512536
0.503354
0.496376
0.490168
0.464331
0.45526
0.444333
0.439742
0.462316
0.458897
0.445751
0.432657
0.4134
0.385272
0.358777
0.339661
0.367126
0.347112
0.322935
0.346487
0.363216
0.340664
0.352519
0.333902
0.316999
0.303021
0.29039
0.278592
0.267312
0.256355
0.24563
0.235074
0.224647
0.214321
0.204073
0.193888
0.183755
0.173664
0.163611
0.153588
0.14359
0.133614
0.123653
0.113706
0.103769
0.0938437
0.0839299
0.074031
0.064146
0.0542708
0.0443981
0.0345255
0.0246773
0.0147824
0.00490899
0.719232
0.711892
0.704459
0.696895
0.688212
0.677595
0.666113
0.684114
0.677751
0.633974
0.627769
0.610676
0.60227
0.597178
0.592011
0.587762
0.580797
0.562837
0.544864
0.521228
0.511253
0.501844
0.49113
0.480866
0.475267
0.463078
0.44306
0.4254
0.477606
0.464866
0.444414
0.429098
0.41307
0.391398
0.374224
0.356066
0.356882
0.349009
0.341409
0.344018
0.350047
0.343284
0.337656
0.327342
0.314247
0.301625
0.289617
0.278109
0.266983
0.256121
0.245456
0.234942
0.224546
0.214241
0.204008
0.193835
0.18371
0.173627
0.163579
0.153561
0.143568
0.133595
0.123637
0.113691
0.103752
0.0938258
0.0839115
0.074014
0.064135
0.0542672
0.044399
0.0345309
0.024667
0.0147757
0.00490214
0.711843
0.712422
0.706139
0.695888
0.687858
0.681665
0.676408
0.677896
0.667497
0.646338
0.639286
0.59851
0.595786
0.597896
0.591354
0.594774
0.596186
0.564596
0.530611
0.521306
0.513426
0.50066
0.485528
0.470779
0.487711
0.477527
0.461489
0.446258
0.457657
0.451993
0.439249
0.425642
0.411643
0.399172
0.393
0.354632
0.355593
0.351506
0.346663
0.343999
0.341527
0.338807
0.330929
0.32173
0.31087
0.299576
0.288327
0.277257
0.266386
0.255689
0.245134
0.234695
0.224352
0.214086
0.203882
0.193731
0.183624
0.173554
0.163517
0.153508
0.143522
0.133555
0.123603
0.113661
0.103729
0.0938065
0.0838944
0.0740004
0.064122
0.0542526
0.0443866
0.0345226
0.0246595
0.0147736
0.00489476
0.689852
0.717985
0.707518
0.692405
0.683888
0.686259
0.682472
0.675035
0.663974
0.644439
0.628902
0.606141
0.588867
0.600186
0.583538
0.597244
0.584073
0.565854
0.54094
0.529087
0.517213
0.502362
0.489464
0.478017
0.480082
0.48587
0.482936
0.448148
0.445661
0.441043
0.43353
0.422926
0.410871
0.399694
0.387456
0.369485
0.36111
0.354609
0.348911
0.344099
0.33943
0.334329
0.32666
0.317796
0.307906
0.297476
0.286851
0.276206
0.26562
0.255117
0.244698
0.234357
0.224082
0.213868
0.203704
0.193583
0.1835
0.173449
0.163427
0.153431
0.143456
0.133497
0.123553
0.11362
0.103698
0.0937846
0.0838818
0.0739931
0.0641155
0.0542443
0.0443774
0.0345133
0.0246525
0.0147673
0.0048898
0.698982
0.708046
0.702127
0.687603
0.675457
0.696795
0.686379
0.677021
0.66364
0.641023
0.626969
0.613483
0.601671
0.594683
0.585617
0.580496
0.571006
0.573528
0.538797
0.530251
0.523919
0.504652
0.496707
0.483425
0.471123
0.491102
0.478354
0.457391
0.444066
0.437739
0.430874
0.42173
0.409736
0.400834
0.387702
0.374687
0.364883
0.356953
0.350196
0.344032
0.337953
0.331414
0.323604
0.314906
0.30548
0.295569
0.285392
0.275098
0.264772
0.25446
0.244182
0.233946
0.223751
0.213597
0.20348
0.193396
0.183342
0.173316
0.163313
0.153332
0.143371
0.133425
0.123492
0.11357
0.103658
0.0937542
0.0838593
0.0739751
0.0640995
0.0542296
0.0443637
0.0345018
0.0246442
0.0147604
0.00488615
0.712451
0.707702
0.701546
0.693352
0.686108
0.687618
0.681879
0.673028
0.661793
0.647358
0.627727
0.615689
0.604567
0.59437
0.583802
0.570062
0.550048
0.558334
0.55345
0.523202
0.527142
0.515168
0.506037
0.491885
0.483235
0.483724
0.474874
0.454045
0.442855
0.435809
0.430823
0.423197
0.412343
0.399895
0.387486
0.376525
0.366667
0.358286
0.350898
0.343864
0.336825
0.329441
0.321403
0.312743
0.303538
0.293928
0.284052
0.274021
0.26391
0.253768
0.243623
0.233491
0.223378
0.213288
0.203222
0.193179
0.183158
0.173158
0.163178
0.153216
0.14327
0.13334
0.12342
0.11351
0.103608
0.0937138
0.0838273
0.0739485
0.0640765
0.0542096
0.0443467
0.0344881
0.0246338
0.0147532
0.00488301
0.714415
0.709923
0.705868
0.70313
0.683465
0.682955
0.678129
0.670731
0.662256
0.661754
0.622228
0.616752
0.606217
0.595904
0.583532
0.567068
0.55892
0.551822
0.54257
0.520463
0.510231
0.527271
0.511901
0.498029
0.487338
0.481821
0.480259
0.441102
0.437685
0.432126
0.435749
0.428197
0.417214
0.398539
0.386279
0.375902
0.367066
0.358962
0.351262
0.343688
0.336048
0.328157
0.31986
0.311126
0.302
0.292552
0.282868
0.273024
0.26308
0.25308
0.243052
0.233016
0.222981
0.212955
0.202941
0.192941
0.182955
0.172984
0.163028
0.153087
0.143159
0.133244
0.123338
0.11344
0.103549
0.0936641
0.0837858
0.0739138
0.0640472
0.054185
0.0443266
0.0344722
0.0246219
0.0147455
0.00487986
0.721905
0.711917
0.710072
0.706887
0.68475
0.682821
0.676912
0.669851
0.662068
0.654537
0.637814
0.62372
0.608495
0.600573
0.592357
0.557932
0.560379
0.551796
0.537777
0.520496
0.515498
0.517309
0.510707
0.501679
0.485896
0.477584
0.46693
0.448668
0.436309
0.425029
0.445095
0.435406
0.430456
0.390807
0.381818
0.374332
0.366867
0.359287
0.351495
0.343572
0.335515
0.327257
0.318724
0.309897
0.300779
0.29141
0.281842
0.272127
0.262307
0.252419
0.24249
0.232538
0.222576
0.21261
0.202647
0.192689
0.182739
0.172799
0.162868
0.152948
0.143039
0.133139
0.123248
0.113362
0.103482
0.0936073
0.0837376
0.0738731
0.064013
0.0541567
0.0443037
0.0344544
0.0246088
0.0147372
0.00487679
0.720381
0.711734
0.707954
0.702111
0.691488
0.686603
0.676839
0.669776
0.662041
0.653946
0.648289
0.637383
0.604782
0.606203
0.571773
0.565263
0.562464
0.555923
0.548424
0.514605
0.518461
0.514282
0.510329
0.51144
0.476892
0.476303
0.461383
0.449751
0.439807
0.434494
0.4377
0.434542
0.425589
0.408254
0.37195
0.372523
0.367017
0.359831
0.351846
0.343583
0.335185
0.326634
0.317907
0.308961
0.299809
0.290467
0.280964
0.271333
0.261605
0.251805
0.241956
0.232075
0.222175
0.212264
0.202347
0.19243
0.182514
0.172603
0.162698
0.1528
0.142909
0.133027
0.12315
0.113278
0.103409
0.0935446
0.0836841
0.0738276
0.0639749
0.0541252
0.0442784
0.0344349
0.0245946
0.0147284
0.00487368
0.742572
0.706926
0.707734
0.701049
0.692919
0.695871
0.679734
0.671404
0.661966
0.653172
0.643952
0.629632
0.614515
0.597575
0.582584
0.564693
0.560617
0.555959
0.546217
0.53074
0.522584
0.510921
0.505616
0.500747
0.489488
0.489681
0.452625
0.449185
0.442072
0.437446
0.436412
0.433858
0.425327
0.387747
0.380882
0.375855
0.369435
0.361192
0.352461
0.343738
0.335005
0.326197
0.317277
0.30823
0.299031
0.289688
0.280216
0.270637
0.260968
0.251234
0.241449
0.231629
0.221784
0.211921
0.202048
0.192167
0.182284
0.172401
0.162521
0.152645
0.142775
0.132909
0.123048
0.113189
0.103332
0.0934772
0.0836264
0.0737786
0.0639337
0.0540912
0.044251
0.0344139
0.0245795
0.0147191
0.00487051
0.72896
0.724329
0.715644
0.703649
0.6874
0.703998
0.689275
0.672697
0.660459
0.6509
0.639644
0.626952
0.614457
0.599038
0.584548
0.562741
0.551532
0.565944
0.55005
0.539219
0.530892
0.503976
0.499828
0.496584
0.491559
0.483913
0.465917
0.453536
0.440864
0.433927
0.438836
0.440318
0.399644
0.388683
0.387154
0.380299
0.373292
0.362742
0.35311
0.343934
0.334896
0.325876
0.316807
0.307655
0.298399
0.289037
0.279573
0.270025
0.2604
0.250715
0.240981
0.231209
0.221409
0.211588
0.201752
0.191905
0.182052
0.172197
0.162342
0.152489
0.142638
0.132789
0.122942
0.113095
0.10325
0.0934061
0.0835652
0.0737265
0.0638898
0.054055
0.044222
0.0343916
0.0245636
0.0147094
0.00486726
0.722278
0.739321
0.723893
0.710036
0.697989
0.698991
0.690165
0.669627
0.656497
0.64876
0.636963
0.62358
0.612765
0.596544
0.581358
0.574208
0.564835
0.56132
0.552087
0.543328
0.539011
0.494656
0.491646
0.494639
0.497296
0.488321
0.473773
0.458104
0.435755
0.424234
0.445002
0.431696
0.405186
0.384588
0.398759
0.386643
0.373864
0.363189
0.353423
0.344012
0.334781
0.325603
0.316413
0.307175
0.297869
0.288489
0.279031
0.269495
0.259898
0.250246
0.240549
0.230815
0.221053
0.211267
0.201463
0.191647
0.181821
0.171991
0.16216
0.152328
0.142497
0.132665
0.122832
0.112999
0.103165
0.0933326
0.0835018
0.0736724
0.0638442
0.0540173
0.0441918
0.0343683
0.0245471
0.0146994
0.00486394
0.734614
0.73632
0.727144
0.715925
0.703775
0.699987
0.699444
0.659024
0.654442
0.646377
0.635599
0.623421
0.610454
0.593327
0.576906
0.589414
0.573831
0.561317
0.55072
0.539687
0.526222
0.501556
0.481316
0.491307
0.510731
0.49408
0.481606
0.468799
0.429668
0.430458
0.434851
0.428766
0.413361
0.393351
0.391344
0.383464
0.373034
0.363037
0.353383
0.343947
0.334624
0.325348
0.316076
0.306774
0.297423
0.288016
0.278551
0.269026
0.259447
0.24982
0.240152
0.230449
0.220717
0.210962
0.201186
0.191396
0.181595
0.171788
0.161978
0.152168
0.142356
0.132539
0.122721
0.1129
0.103079
0.0932574
0.0834369
0.0736169
0.0637974
0.0539786
0.0441606
0.0343444
0.0245302
0.0146891
0.00486056
0.744604
0.736683
0.729166
0.718956
0.705181
0.700411
0.692292
0.667284
0.656391
0.64657
0.635763
0.624153
0.611845
0.598321
0.586667
0.586959
0.574531
0.561699
0.549925
0.537404
0.523125
0.508108
0.503635
0.480171
0.495072
0.493283
0.491385
0.450499
0.440001
0.435987
0.433671
0.430975
0.429076
0.384625
0.385562
0.380067
0.371802
0.362561
0.353125
0.343737
0.334399
0.325076
0.315749
0.306405
0.297026
0.287604
0.278133
0.268612
0.259046
0.249437
0.239791
0.230113
0.220406
0.210676
0.200925
0.191158
0.181379
0.171593
0.161803
0.152011
0.142215
0.132414
0.122609
0.112802
0.102992
0.0931821
0.0833716
0.0735609
0.06375
0.0539393
0.044129
0.0343201
0.024513
0.0146788
0.00485715
0.753739
0.73545
0.726622
0.721856
0.711383
0.704206
0.702256
0.661446
0.657033
0.647922
0.63701
0.625646
0.614008
0.602566
0.592529
0.585902
0.573526
0.561187
0.549644
0.536943
0.521897
0.507521
0.495956
0.48523
0.492183
0.491536
0.483481
0.457715
0.444043
0.435673
0.43653
0.432559
0.431045
0.385098
0.38676
0.379747
0.371178
0.362144
0.352874
0.343537
0.334186
0.324832
0.315472
0.3061
0.29669
0.287245
0.277764
0.268244
0.258687
0.249092
0.239463
0.229804
0.220118
0.210409
0.20068
0.190936
0.181178
0.171411
0.161639
0.151862
0.142079
0.132292
0.1225
0.112705
0.102907
0.0931072
0.0833064
0.0735048
0.0637025
0.0538998
0.0440972
0.0342957
0.0244957
0.0146684
0.00485373
0.747918
0.732445
0.717382
0.725418
0.713178
0.703534
0.694256
0.674977
0.662433
0.650954
0.639215
0.627096
0.615725
0.605782
0.597282
0.588329
0.570395
0.560135
0.550228
0.538787
0.52031
0.50473
0.486951
0.472056
0.494288
0.491262
0.495288
0.45338
0.444304
0.430956
0.440525
0.426593
0.42182
0.400702
0.390023
0.380488
0.371268
0.362008
0.352683
0.34332
0.333948
0.324575
0.31519
0.305784
0.296366
0.286917
0.277434
0.267917
0.258365
0.24878
0.239164
0.229521
0.219852
0.210162
0.200452
0.190726
0.180987
0.171237
0.161481
0.151718
0.141949
0.132175
0.122395
0.11261
0.102823
0.0930335
0.0832421
0.0734493
0.0636554
0.0538606
0.0440657
0.0342714
0.0244785
0.0146581
0.00485035
0.743556
0.734845
0.732466
0.701804
0.704441
0.706572
0.697291
0.681548
0.666354
0.654686
0.641716
0.627729
0.616775
0.606751
0.602431
0.599514
0.561221
0.558592
0.551195
0.543436
0.5207
0.506234
0.484749
0.474966
0.47853
0.476322
0.493779
0.468997
0.455135
0.45127
0.423162
0.415154
0.424314
0.405469
0.391842
0.381132
0.371455
0.361961
0.35253
0.343125
0.333728
0.324335
0.314934
0.305518
0.296085
0.286626
0.277138
0.267621
0.258073
0.248497
0.238892
0.229262
0.219608
0.209933
0.200239
0.190529
0.180806
0.171072
0.16133
0.151581
0.141824
0.132061
0.122292
0.112519
0.102742
0.0929615
0.0831791
0.0733948
0.063609
0.0538221
0.0440345
0.0342474
0.0244615
0.014648
0.004847
0.742916
0.734147
0.724699
0.704711
0.694365
0.714319
0.704691
0.687637
0.667182
0.656813
0.64442
0.625932
0.617173
0.608961
0.60013
0.589472
0.571664
0.561975
0.554163
0.543722
0.528338
0.515715
0.474944
0.474542
0.47374
0.481587
0.483553
0.469807
0.457618
0.447633
0.435175
0.433291
0.40274
0.400488
0.391068
0.381233
0.371434
0.361834
0.352344
0.342909
0.333499
0.324097
0.314689
0.305267
0.295826
0.286362
0.276873
0.267356
0.257812
0.248242
0.238646
0.229027
0.219386
0.209723
0.200041
0.190343
0.180635
0.170916
0.161187
0.15145
0.141705
0.131952
0.122194
0.11243
0.102663
0.0928917
0.0831179
0.0733418
0.0635639
0.0537844
0.0440041
0.034224
0.0244449
0.0146381
0.00484375
0.742448
0.733927
0.724085
0.711552
0.703502
0.708088
0.702806
0.697938
0.658109
0.655208
0.645504
0.6307
0.620647
0.611252
0.600117
0.587763
0.574541
0.563536
0.553572
0.542035
0.529097
0.509483
0.487745
0.476845
0.469322
0.49064
0.480065
0.467759
0.457662
0.448106
0.436773
0.424559
0.408334
0.399784
0.390451
0.380917
0.371207
0.361598
0.352101
0.34267
0.333265
0.323866
0.314459
0.305035
0.295591
0.286125
0.276634
0.267118
0.257577
0.248012
0.238423
0.228813
0.219181
0.209528
0.199857
0.190172
0.180476
0.170769
0.161052
0.151326
0.141591
0.131849
0.1221
0.112346
0.102587
0.0928246
0.083059
0.0732907
0.0635202
0.053748
0.0439746
0.0342012
0.0244287
0.0146284
0.00484056
0.742661
0.73536
0.726203
0.716652
0.709879
0.704397
0.697397
0.686277
0.667329
0.657185
0.647481
0.633779
0.624366
0.614184
0.602068
0.587763
0.575029
0.563779
0.552633
0.540729
0.527288
0.511646
0.495651
0.484856
0.478986
0.482445
0.47447
0.464226
0.457211
0.450261
0.439152
0.42093
0.409095
0.399654
0.390103
0.38078
0.370921
0.361261
0.351788
0.342406
0.333032
0.323649
0.314246
0.304823
0.295378
0.28591
0.276419
0.266904
0.257366
0.247805
0.238221
0.228618
0.218994
0.209349
0.199686
0.190009
0.180324
0.170629
0.160925
0.151209
0.141484
0.131751
0.122011
0.112265
0.102515
0.0927606
0.0830027
0.0732418
0.0634784
0.053713
0.0439462
0.0341794
0.0244132
0.0146192
0.00483752
0.741464
0.739454
0.727564
0.718958
0.713487
0.705674
0.695355
0.682477
0.667998
0.657511
0.654929
0.638632
0.629606
0.61887
0.605915
0.586435
0.573388
0.563258
0.552591
0.540914
0.52759
0.512774
0.499435
0.489332
0.482366
0.477325
0.470548
0.463628
0.456851
0.451048
0.448514
0.410416
0.407553
0.399772
0.389553
0.381062
0.370476
0.360784
0.351407
0.3421
0.332783
0.32343
0.314048
0.304632
0.295188
0.28572
0.276228
0.266714
0.257178
0.247619
0.23804
0.228441
0.218823
0.209186
0.199532
0.189865
0.180189
0.170504
0.160807
0.1511
0.141383
0.131658
0.121927
0.112189
0.102447
0.0927
0.0829493
0.0731953
0.0634386
0.0536796
0.0439192
0.0341585
0.0243984
0.0146104
0.00483457
0.732833
0.742551
0.724205
0.718737
0.721992
0.709422
0.695255
0.681169
0.6648
0.646768
0.663754
0.647088
0.63513
0.626036
0.615443
0.577233
0.570041
0.563024
0.553488
0.542697
0.529437
0.512478
0.499726
0.490835
0.483272
0.475926
0.467329
0.462965
0.454452
0.44635
0.437312
0.420242
0.410952
0.402663
0.393599
0.377803
0.368842
0.359999
0.351011
0.341871
0.332613
0.323277
0.31389
0.304469
0.295022
0.285552
0.276059
0.266545
0.25701
0.247454
0.237879
0.228285
0.218673
0.209043
0.199398
0.189739
0.18007
0.17039
0.160699
0.150999
0.14129
0.131573
0.121849
0.112119
0.102383
0.0926432
0.0828991
0.0731515
0.063401
0.0536481
0.0438936
0.0341387
0.0243844
0.0146021
0.00483181
0.742155
0.730567
0.708318
0.720156
0.737147
0.710857
0.694749
0.681684
0.667462
0.648338
0.658455
0.64859
0.638456
0.634974
0.596223
0.587634
0.571201
0.565915
0.555793
0.546069
0.53128
0.513094
0.500107
0.490984
0.483138
0.475618
0.467515
0.460571
0.452461
0.443406
0.433409
0.422371
0.413215
0.406071
0.404678
0.367681
0.366558
0.359344
0.350788
0.341747
0.332501
0.323161
0.313767
0.304339
0.294886
0.285411
0.275915
0.266399
0.256864
0.24731
0.237737
0.228147
0.218539
0.208915
0.199277
0.189624
0.179961
0.170287
0.160602
0.150908
0.141205
0.131494
0.121777
0.112054
0.102324
0.0925905
0.0828523
0.0731106
0.0633659
0.0536186
0.0438695
0.0341201
0.0243712
0.0145942
0.00482921
0.749884
0.731768
0.714603
0.720483
0.733017
0.697795
0.692256
0.683533
0.677218
0.632814
0.659057
0.646984
0.634888
0.622244
0.60363
0.591902
0.577691
0.572711
0.557045
0.547929
0.529938
0.513495
0.502255
0.492773
0.482956
0.476162
0.467201
0.459471
0.45119
0.441575
0.431067
0.421815
0.413095
0.399194
0.397822
0.376325
0.37084
0.360587
0.351167
0.341859
0.332496
0.323099
0.313678
0.304231
0.294766
0.285287
0.275789
0.266272
0.256736
0.247183
0.237613
0.228025
0.218421
0.208802
0.199168
0.189522
0.179865
0.170195
0.160514
0.150825
0.141128
0.131424
0.121712
0.111994
0.10227
0.0925418
0.0828092
0.0730728
0.0633333
0.0535912
0.0438472
0.0341028
0.0243589
0.0145869
0.00482679
0.756942
0.736546
0.718761
0.718249
0.714609
0.701561
0.692717
0.683901
0.673052
0.648435
0.649809
0.641985
0.632032
0.615804
0.604055
0.594256
0.586156
0.585634
0.550822
0.557595
0.521843
0.511116
0.502939
0.494584
0.48584
0.476754
0.467272
0.457971
0.448915
0.439968
0.426699
0.418568
0.422094
0.380904
0.40036
0.38609
0.37268
0.361497
0.351621
0.342023
0.332518
0.323056
0.313599
0.304141
0.294672
0.285184
0.275682
0.266163
0.256627
0.247074
0.237504
0.227919
0.218318
0.208702
0.199073
0.189431
0.179777
0.170111
0.160435
0.150751
0.141059
0.131359
0.121653
0.11194
0.102221
0.0924974
0.0827696
0.0730381
0.0633033
0.0535659
0.0438266
0.0340868
0.0243476
0.0145801
0.00482456
0.75525
0.738959
0.724707
0.717476
0.710488
0.701462
0.693152
0.686326
0.684065
0.645266
0.644048
0.638181
0.630218
0.60945
0.602642
0.594884
0.585969
0.576295
0.56035
0.553485
0.544878
0.507097
0.504209
0.496278
0.487036
0.477652
0.466777
0.458228
0.448891
0.440625
0.418888
0.404454
0.420784
0.400881
0.396408
0.385258
0.372983
0.361969
0.351847
0.3421
0.332519
0.323011
0.313534
0.304063
0.294585
0.285095
0.27559
0.26607
0.256533
0.24698
0.237411
0.227827
0.218228
0.208615
0.198989
0.18935
0.179698
0.170036
0.160364
0.150684
0.140997
0.131302
0.121599
0.111891
0.102176
0.0924572
0.0827337
0.0730065
0.063276
0.0535429
0.0438078
0.0340722
0.0243372
0.0145739
0.00482252
0.753634
0.740138
0.726988
0.716779
0.708375
0.700089
0.692171
0.68451
0.674899
0.657274
0.644988
0.636789
0.620757
0.608088
0.601906
0.595472
0.584627
0.572752
0.560843
0.551434
0.541118
0.52362
0.511604
0.499092
0.489191
0.482663
0.465661
0.459782
0.451837
0.448962
0.407246
0.403234
0.413876
0.404948
0.392886
0.382832
0.372113
0.361701
0.351717
0.341999
0.332433
0.322935
0.313461
0.30399
0.294512
0.285021
0.275515
0.265994
0.256456
0.246903
0.237334
0.227751
0.218153
0.208542
0.198918
0.189281
0.179631
0.169971
0.160302
0.150626
0.140942
0.131251
0.121552
0.111847
0.102137
0.0924212
0.0827015
0.0729781
0.0632514
0.053522
0.0437907
0.034059
0.0243277
0.0145683
0.00482068
0.752802
0.74055
0.726704
0.714645
0.706365
0.698465
0.690915
0.683316
0.673769
0.663552
0.643971
0.64289
0.605692
0.604732
0.601304
0.59608
0.582784
0.569618
0.558981
0.549629
0.547024
0.534215
0.51938
0.499579
0.489325
0.481866
0.468415
0.462272
0.450975
0.439648
0.416387
0.401813
0.416749
0.403386
0.390569
0.380507
0.370681
0.360939
0.351278
0.341753
0.332287
0.322835
0.313384
0.303923
0.294449
0.28496
0.275454
0.265932
0.256395
0.246841
0.237273
0.227689
0.218092
0.208482
0.198859
0.189223
0.179575
0.169917
0.16025
0.150576
0.140896
0.131207
0.121512
0.111809
0.102102
0.0923896
0.0826731
0.0729529
0.0632295
0.0535034
0.0437755
0.0340471
0.0243193
0.0145633
0.00481902
0.755758
0.736719
0.72424
0.711372
0.704385
0.697297
0.689912
0.682321
0.674172
0.663056
0.641629
0.62868
0.610007
0.603156
0.602356
0.590504
0.574554
0.572332
0.559771
0.542932
0.557886
0.540039
0.531884
0.491
0.486461
0.481789
0.473525
0.465161
0.449366
0.441523
0.42845
0.412657
0.405082
0.395359
0.386537
0.377973
0.369109
0.36018
0.350762
0.341471
0.332127
0.322737
0.313316
0.303871
0.294403
0.284916
0.27541
0.265888
0.256349
0.246795
0.237226
0.227642
0.218045
0.208435
0.198812
0.189177
0.179531
0.169873
0.160208
0.150536
0.140857
0.131171
0.121477
0.111777
0.102072
0.0923621
0.0826482
0.0729308
0.0632102
0.053487
0.043762
0.0340366
0.0243118
0.0145588
0.00481756
0.758983
0.726446
0.723617
0.706864
0.702745
0.696308
0.689129
0.681597
0.67463
0.661075
0.641186
0.624136
0.606225
0.594347
0.609922
0.589618
0.56816
0.581903
0.566815
0.555331
0.551303
0.533228
0.520845
0.501575
0.489107
0.482675
0.475716
0.475374
0.439984
0.440313
0.435298
0.425208
0.400126
0.388756
0.382321
0.375678
0.367685
0.359457
0.350672
0.341302
0.332017
0.322669
0.31327
0.303836
0.294373
0.284887
0.275382
0.265859
0.256319
0.246764
0.237194
0.227609
0.218012
0.208402
0.198779
0.189143
0.179497
0.169841
0.160176
0.150504
0.140826
0.13114
0.121448
0.11175
0.102046
0.0923386
0.0826269
0.0729117
0.0631935
0.0534728
0.0437503
0.0340274
0.0243053
0.014555
0.00481629
0.762471
0.742126
0.739553
0.704989
0.70186
0.695297
0.688687
0.681037
0.671432
0.659013
0.642278
0.627891
0.613082
0.603059
0.600883
0.589896
0.576211
0.57363
0.564897
0.561502
0.558852
0.520147
0.516427
0.505147
0.486973
0.481081
0.473224
0.464423
0.449178
0.442234
0.437725
0.438686
0.396332
0.384233
0.380791
0.37476
0.367198
0.359049
0.350303
0.341216
0.331979
0.322654
0.313267
0.303832
0.294369
0.284881
0.275373
0.265847
0.256305
0.246747
0.237176
0.22759
0.217991
0.20838
0.198756
0.18912
0.179472
0.169815
0.16015
0.150478
0.140801
0.131116
0.121424
0.111727
0.102025
0.092319
0.0826089
0.0728956
0.0631794
0.0534607
0.0437403
0.0340196
0.0242996
0.0145516
0.0048152
0.763672
0.741048
0.730549
0.714986
0.701652
0.692016
0.690567
0.682043
0.669789
0.657621
0.644689
0.631973
0.620167
0.609581
0.601415
0.592684
0.57695
0.570584
0.563723
0.559197
0.546759
0.528252
0.519445
0.517098
0.478724
0.475895
0.469091
0.460673
0.450467
0.441339
0.432405
0.434236
0.40743
0.391005
0.382777
0.375527
0.367622
0.359274
0.350391
0.341286
0.332038
0.3227
0.313294
0.303854
0.294383
0.284891
0.27538
0.265851
0.256305
0.246745
0.237171
0.227583
0.217982
0.208368
0.198742
0.189104
0.179455
0.169797
0.160131
0.150459
0.140781
0.131096
0.121406
0.111709
0.102008
0.0923032
0.0825943
0.0728824
0.0631676
0.0534506
0.0437319
0.034013
0.0242949
0.0145488
0.0048143
0.771703
0.729299
0.726554
0.714037
0.698341
0.685513
0.699172
0.683856
0.668065
0.657353
0.647362
0.6371
0.625167
0.611867
0.599726
0.595117
0.574113
0.572783
0.566565
0.558901
0.539996
0.527064
0.516535
0.507558
0.490643
0.474236
0.466457
0.458666
0.449884
0.43781
0.418625
0.401746
0.401676
0.393336
0.385056
0.376831
0.368432
0.359716
0.350702
0.341501
0.332185
0.322795
0.313367
0.303906
0.294423
0.284922
0.275405
0.265871
0.256321
0.246757
0.237179
0.227588
0.217984
0.208367
0.198738
0.189098
0.179447
0.169787
0.16012
0.150447
0.140768
0.131083
0.121392
0.111696
0.101996
0.0922907
0.0825827
0.0728718
0.0631582
0.0534424
0.043725
0.0340075
0.024291
0.0145465
0.00481356
0.760765
0.739457
0.725632
0.713168
0.702595
0.695089
0.684609
0.677598
0.666088
0.655874
0.646779
0.64369
0.63143
0.612769
0.594427
0.592364
0.574145
0.577054
0.571186
0.568913
0.528036
0.523478
0.512478
0.505898
0.502505
0.464226
0.46367
0.457338
0.448178
0.428557
0.415626
0.408242
0.403419
0.39592
0.387313
0.378516
0.36957
0.360454
0.351193
0.34183
0.332405
0.322947
0.313471
0.303981
0.294481
0.28497
0.275445
0.265905
0.256351
0.246783
0.237201
0.227606
0.217998
0.208377
0.198745
0.189101
0.179448
0.169786
0.160117
0.150442
0.140761
0.131075
0.121384
0.111687
0.101986
0.0922818
0.0825741
0.0728637
0.0631508
0.0534359
0.0437195
0.0340032
0.0242879
0.0145447
0.00481299
0.75788
0.742756
0.725089
0.713217
0.703542
0.694329
0.680287
0.672524
0.669637
0.655775
0.641373
0.655796
0.635837
0.613876
0.58257
0.560431
0.603298
0.588712
0.572131
0.560188
0.534084
0.523235
0.50774
0.501297
0.49261
0.472867
0.465092
0.458429
0.45678
0.41261
0.409908
0.41476
0.408077
0.39927
0.389822
0.380355
0.370875
0.361345
0.351785
0.342217
0.332659
0.323117
0.313589
0.30407
0.294552
0.28503
0.275497
0.265953
0.256395
0.246823
0.237237
0.227637
0.218024
0.208399
0.198763
0.189115
0.179458
0.169793
0.160122
0.150444
0.140761
0.131073
0.12138
0.111682
0.101981
0.0922759
0.0825682
0.072858
0.0631454
0.053431
0.0437154
0.0339999
0.0242855
0.0145434
0.00481258
0.751172
0.744918
0.726846
0.715565
0.70491
0.693525
0.679653
0.665356
0.681626
0.661461
0.651438
0.647392
0.631707
0.615186
0.601351
0.565527
0.587004
0.581596
0.570866
0.565562
0.52462
0.519533
0.506227
0.496784
0.495391
0.474865
0.465299
0.45459
0.444178
0.412653
0.411566
0.429769
0.414745
0.402512
0.392284
0.382258
0.372252
0.362274
0.352384
0.342593
0.332896
0.32327
0.313698
0.304156
0.294628
0.2851
0.275565
0.266017
0.256456
0.246879
0.237287
0.227682
0.218063
0.208433
0.198791
0.189138
0.179477
0.169808
0.160132
0.150452
0.140766
0.131075
0.12138
0.111681
0.101978
0.0922729
0.0825648
0.0728543
0.0631419
0.0534277
0.0437125
0.0339975
0.0242838
0.0145425
0.00481232
0.740079
0.74306
0.734317
0.71962
0.706814
0.694832
0.683464
0.676018
0.679025
0.665634
0.656225
0.639482
0.627227
0.614983
0.596486
0.584062
0.580812
0.574205
0.563122
0.549306
0.534088
0.520193
0.503615
0.486888
0.500785
0.479831
0.463757
0.450416
0.435286
0.413474
0.431275
0.425497
0.416253
0.405198
0.394667
0.3842
0.373599
0.363123
0.352882
0.34287
0.333051
0.323371
0.313776
0.304229
0.294703
0.285178
0.275644
0.266096
0.256532
0.24695
0.237353
0.22774
0.218115
0.208477
0.198828
0.189171
0.179504
0.16983
0.16015
0.150465
0.140776
0.131082
0.121384
0.111683
0.101979
0.0922724
0.0825635
0.0728526
0.0631399
0.0534257
0.0437107
0.0339961
0.0242828
0.014542
0.00481219
0.715665
0.737297
0.75061
0.720893
0.708541
0.696357
0.685219
0.679302
0.675612
0.669647
0.666851
0.627439
0.623282
0.615792
0.592264
0.586169
0.580816
0.574054
0.5594
0.532527
0.537984
0.519548
0.505555
0.493576
0.488798
0.479558
0.460948
0.447812
0.433829
0.422898
0.433641
0.425345
0.416594
0.407099
0.397161
0.386164
0.374814
0.363743
0.353149
0.342962
0.333075
0.323384
0.313806
0.304282
0.294776
0.285265
0.275739
0.266193
0.256625
0.247038
0.237432
0.227812
0.218178
0.208532
0.198876
0.189211
0.179538
0.169858
0.160173
0.150483
0.14079
0.131092
0.121391
0.111688
0.101982
0.0922742
0.0825643
0.0728527
0.0631395
0.053425
0.0437099
0.0339953
0.0242823
0.0145419
0.00481221
0.738061
0.739145
0.740279
0.722937
0.709065
0.697561
0.685112
0.676721
0.676258
0.66864
0.657235
0.63767
0.624399
0.611959
0.595058
0.586745
0.582083
0.578918
0.571751
0.528515
0.518309
0.513251
0.508014
0.492123
0.485006
0.47991
0.457675
0.447224
0.433219
0.418985
0.437724
0.42703
0.417604
0.410137
0.400404
0.388376
0.375723
0.363907
0.353006
0.342752
0.332904
0.323285
0.313779
0.304316
0.294853
0.285369
0.275855
0.26631
0.256738
0.247143
0.237528
0.227897
0.218252
0.208597
0.198932
0.189259
0.179578
0.169892
0.160201
0.150505
0.140806
0.131105
0.121401
0.111695
0.101988
0.092278
0.0825668
0.0728541
0.0631402
0.0534253
0.0437099
0.0339953
0.0242823
0.0145421
0.00481236
0.746971
0.740095
0.733871
0.722022
0.709267
0.699768
0.685681
0.670629
0.681567
0.669476
0.655872
0.641334
0.626458
0.60775
0.593712
0.584339
0.578535
0.577795
0.566
0.550825
0.505802
0.504608
0.502413
0.491476
0.483883
0.475068
0.459564
0.447372
0.430346
0.430832
0.428111
0.421824
0.416509
0.417272
0.405789
0.391264
0.375851
0.363166
0.352209
0.342133
0.332504
0.323073
0.313712
0.30435
0.29495
0.285501
0.276
0.266456
0.256876
0.247268
0.237639
0.227995
0.218338
0.208671
0.198995
0.189312
0.179623
0.169929
0.160231
0.15053
0.140826
0.13112
0.121413
0.111705
0.101995
0.0922833
0.0825705
0.0728567
0.063142
0.0534264
0.0437105
0.0339958
0.0242827
0.0145427
0.00481265
0.748979
0.740379
0.731922
0.722385
0.711814
0.70148
0.690471
0.689165
0.662717
0.66262
0.655601
0.644297
0.62761
0.602667
0.588706
0.578389
0.570314
0.567359
0.566113
0.557276
0.508938
0.505446
0.500137
0.492302
0.483616
0.474128
0.463656
0.456774
0.414344
0.438772
0.426292
0.414453
0.412216
0.429647
0.411898
0.395054
0.37331
0.360714
0.350533
0.34109
0.331908
0.322794
0.313647
0.304422
0.295098
0.285682
0.276189
0.266636
0.257041
0.247415
0.237769
0.228107
0.218434
0.208753
0.199065
0.189371
0.179671
0.169969
0.160264
0.150557
0.140848
0.131138
0.121427
0.111716
0.102003
0.0922896
0.0825751
0.0728601
0.0631443
0.053428
0.0437117
0.0339967
0.0242835
0.0145435
0.00481309
0.748703
0.740606
0.732219
0.723159
0.713593
0.702777
0.688462
0.679492
0.666598
0.66089
0.654874
0.644506
0.626661
0.600365
0.585326
0.574787
0.56379
0.552713
0.568298
0.549687
0.523656
0.510792
0.501425
0.492357
0.483538
0.474278
0.464345
0.452881
0.434863
0.431809
0.41858
0.406109
0.42859
0.427218
0.414241
0.40416
0.361373
0.356051
0.348177
0.339794
0.331244
0.322544
0.313667
0.304595
0.29534
0.28594
0.276436
0.266859
0.257237
0.247585
0.237915
0.228232
0.21854
0.208842
0.19914
0.189434
0.179724
0.170011
0.160298
0.150585
0.140871
0.131157
0.121443
0.111728
0.102013
0.092297
0.0825805
0.0728638
0.063147
0.05343
0.0437132
0.0339979
0.0242847
0.0145446
0.00481368
0.747888
0.741403
0.73343
0.724012
0.714635
0.702006
0.686696
0.676087
0.666743
0.659956
0.653301
0.643129
0.624088
0.599785
0.583882
0.574177
0.566793
0.559303
0.55887
0.544092
0.526566
0.513624
0.502936
0.492206
0.483095
0.474868
0.466057
0.457577
0.443289
0.429519
0.421199
0.416781
0.42521
0.423823
0.412357
0.392164
0.368493
0.3545
0.346396
0.338664
0.330718
0.322467
0.313874
0.304947
0.295725
0.286302
0.276754
0.267131
0.257465
0.247777
0.238076
0.228368
0.218654
0.208938
0.19922
0.1895
0.179778
0.170056
0.160334
0.150613
0.140893
0.131175
0.121458
0.11174
0.102022
0.092304
0.0825857
0.0728675
0.0631496
0.0534321
0.0437149
0.0339992
0.0242862
0.0145459
0.00481446
0.745565
0.746396
0.736171
0.724283
0.713171
0.699881
0.684025
0.673741
0.665743
0.658978
0.653152
0.642166
0.623346
0.599332
0.580453
0.570345
0.570834
0.564843
0.554052