/*--------------------------------*- C++ -*----------------------------------*\
  =========                 |
  \\      /  F ield         | OpenFOAM: The Open Source CFD Toolbox
   \\    /   O peration     | Website:  https://openfoam.org
    \\  /    A nd           | Version:  12
     \\/     M anipulation  |
\*---------------------------------------------------------------------------*/
FoamFile
{
    format      ascii;
    class       surfaceScalarField;
    location    "0.85";
    object      phi.water;
}
// * * * * * * * * * * * * * * * * * * * * * * * * * * * * * * * * * * * * * //

dimensions      [0 3 -1 0 0 0 0];

internalField   nonuniform List<scalar> 
7375
(
1.45046e-07
9.60026e-10
1.38569e-07
6.40584e-09
1.18108e-07
2.02593e-08
1.08508e-07
9.46516e-09
8.20156e-08
2.64752e-08
3.14663e-08
5.08489e-08
2.65667e-07
1.10053e-07
2.48848e-08
-1.01597e-07
1.24997e-07
-1.01148e-07
8.83939e-08
3.69571e-08
9.17396e-08
-3.41559e-09
7.61149e-08
1.54874e-08
7.07045e-08
5.37212e-09
6.80468e-08
2.65579e-09
8.43462e-08
-1.62933e-08
9.70134e-08
-1.15392e-08
1.19548e-07
-2.25248e-08
1.23658e-07
-5.40994e-09
1.2278e-07
2.14337e-09
1.00391e-07
2.14307e-08
1.17189e-07
-1.78123e-08
1.1417e-07
3.07166e-09
1.36279e-07
-2.05255e-08
1.31806e-07
5.87179e-09
1.53859e-07
-2.34122e-08
1.32949e-07
2.0703e-08
1.08482e-07
2.46905e-08
6.60815e-08
4.36624e-08
8.95997e-08
-2.34843e-08
1.06662e-07
-1.68808e-08
9.27258e-08
1.38084e-08
1.04716e-07
-1.19835e-08
1.04351e-07
-6.61869e-10
1.27056e-07
-2.29369e-08
1.4707e-07
-1.72073e-08
1.92503e-08
1.35385e-08
9.78659e-08
3.53758e-08
7.20788e-08
2.65056e-08
-5.20064e-08
8.96566e-09
-6.37119e-08
1.23519e-08
1.91152e-08
3.00913e-08
-1.36364e-07
4.32244e-08
-4.75011e-08
2.25238e-08
-7.34094e-08
2.52378e-08
-7.64104e-08
4.46746e-09
-6.96222e-08
-6.02419e-09
-6.37403e-08
-5.88199e-09
-5.72136e-08
-6.52658e-09
-4.89188e-08
-8.29488e-09
-4.1023e-08
-7.89563e-09
-3.26685e-08
-8.35469e-09
-2.6548e-08
-6.12027e-09
-2.06401e-08
-5.90805e-09
-1.53975e-08
-5.24244e-09
-9.66129e-09
-5.73636e-09
-3.64783e-09
-6.01329e-09
2.05888e-09
-5.70686e-09
7.33636e-09
-5.27732e-09
1.17798e-08
-4.44361e-09
1.61807e-08
-4.40079e-09
2.1142e-08
-4.96142e-09
2.73934e-08
-6.25129e-09
3.5182e-08
-7.78882e-09
4.42073e-08
-9.02517e-09
5.33953e-08
-9.18823e-09
6.03403e-08
-6.94505e-09
6.17004e-08
-1.36029e-09
5.50933e-08
6.60716e-09
4.27447e-08
1.23485e-08
2.8067e-08
1.46779e-08
1.32699e-08
1.4797e-08
-3.48716e-10
1.36186e-08
-1.43199e-08
1.39708e-08
-2.62533e-08
1.19331e-08
3.92357e-09
1.19195e-07
1.05628e-08
1.03905e-07
2.06466e-08
1.11999e-07
1.20836e-08
1.0463e-07
1.77861e-08
1.1335e-07
1.86324e-08
1.39905e-07
2.54611e-08
1.18316e-07
1.61032e-08
9.5223e-08
3.48541e-08
2.63975e-07
7.52605e-08
2.8212e-08
-7.26346e-08
9.97609e-08
-7.62972e-08
6.6464e-08
4.60982e-08
7.69565e-08
-5.22643e-09
8.988e-08
-9.49046e-09
1.06668e-07
-3.32528e-08
1.20375e-07
-2.55038e-08
1.86968e-07
-8.66366e-08
1.97985e-07
-1.45362e-08
1.07222e-07
9.08661e-08
1.06475e-07
2.10804e-08
8.57454e-08
2.73533e-09
8.87959e-08
-8.75719e-10
7.21501e-08
-4.81562e-09
7.85294e-08
1.61761e-10
9.59511e-08
-4.14344e-08
1.19345e-07
-1.48598e-09
1.7569e-07
-2.5252e-08
-6.62654e-09
-9.49636e-09
1.31244e-07
6.33387e-08
8.2629e-08
3.09e-08
7.7593e-08
1.96788e-08
6.63349e-08
-6.16799e-10
7.04637e-08
-4.07921e-09
6.52201e-08
-1.73827e-08
1.02253e-07
-5.54715e-08
2.49773e-08
9.06761e-08
2.404e-08
3.6313e-08
3.88781e-09
4.59189e-08
-3.06822e-08
4.26956e-08
-4.163e-08
2.34866e-08
-3.73335e-08
2.63263e-08
-4.15879e-08
4.70466e-08
-2.69671e-08
7.90302e-09
-1.8615e-08
1.6381e-08
-1.84985e-08
4.30622e-09
-2.00864e-08
-4.43622e-09
-2.21879e-08
-3.78053e-09
-2.41486e-08
-4.56578e-09
-2.49711e-08
-7.47242e-09
-2.56917e-08
-7.17498e-09
-2.73052e-08
-6.74127e-09
-3.04883e-08
-2.93709e-09
-3.53722e-08
-1.0242e-09
-4.06143e-08
-2.42487e-13
-4.38568e-08
-2.49384e-09
-4.41989e-08
-5.67121e-09
-4.2731e-08
-7.17477e-09
-4.05884e-08
-7.41984e-09
-3.82048e-08
-6.82731e-09
-3.54057e-08
-7.19986e-09
-3.06719e-08
-9.69528e-09
-2.28467e-08
-1.40765e-08
-1.2154e-08
-1.84816e-08
2.13366e-10
-2.13926e-08
1.27961e-08
-2.17711e-08
2.29073e-08
-1.70563e-08
2.72183e-08
-5.67149e-09
2.31213e-08
1.07041e-08
1.14065e-08
2.40633e-08
-4.60469e-09
3.06891e-08
-2.15607e-08
3.1753e-08
-3.34878e-08
2.55455e-08
-3.89638e-08
1.94464e-08
-4.0996e-08
1.39649e-08
3.30621e-09
-4.23985e-09
1.05588e-07
-3.90605e-09
2.03595e-08
1.19346e-08
-3.75527e-09
1.248e-08
1.71215e-08
2.91945e-08
1.74924e-09
3.55116e-08
1.96372e-08
4.69036e-08
5.44327e-09
5.86771e-08
2.24759e-08
1.25301e-07
7.28415e-09
3.53905e-08
1.9295e-08
2.56978e-07
4.33866e-08
2.25369e-08
-5.8705e-08
3.7513e-08
-2.06778e-08
4.20112e-08
-1.40855e-08
6.4874e-09
2.38589e-09
-3.32612e-08
1.36392e-08
1.50808e-07
7.44068e-08
1.31091e-07
3.7764e-09
-8.62786e-08
-3.4623e-08
-4.30675e-08
-2.21308e-08
-3.10496e-08
-8.52647e-09
-3.3929e-08
2.00365e-09
-2.90413e-08
-9.99665e-09
-1.09522e-07
-3.37113e-08
-2.5021e-08
-1.15302e-08
-2.36797e-08
-2.82875e-09
7.76885e-09
-5.70281e-08
-8.19527e-08
8.12726e-08
-3.31253e-08
1.45112e-08
-2.23467e-08
2.00987e-08
-2.53165e-08
2.23629e-08
-4.55427e-08
1.96094e-08
-5.28857e-08
3.14715e-09
-1.13704e-07
4.28845e-08
1.01488e-07
7.37244e-08
-1.19563e-07
-2.87296e-08
-9.58752e-08
1.34658e-08
-7.90001e-08
2.95433e-08
-6.68114e-08
3.00799e-08
-7.63175e-08
3.25231e-08
-6.39892e-08
1.39979e-08
-4.41611e-08
2.72185e-08
-4.71446e-08
1.08865e-08
-3.95454e-08
8.78179e-09
-3.77361e-08
2.49692e-09
-4.04667e-08
-1.7056e-09
-4.09356e-08
-3.3117e-09
-4.11713e-08
-4.33004e-09
-4.22e-08
-6.44373e-09
-4.331e-08
-6.06493e-09
-4.63497e-08
-3.70158e-09
-5.12099e-08
1.92318e-09
-5.7962e-08
5.72786e-09
-6.4769e-08
6.80677e-09
-7.04955e-08
3.23268e-09
-7.39045e-08
-2.26215e-09
-7.55787e-08
-5.50057e-09
-7.67084e-08
-6.29017e-09
-7.71227e-08
-6.41298e-09
-7.55247e-08
-8.79785e-09
-7.03564e-08
-1.48636e-08
-6.24219e-08
-2.2011e-08
-5.4384e-08
-2.65195e-08
-4.75895e-08
-2.81872e-08
-4.27932e-08
-2.65675e-08
-4.10671e-08
-1.87825e-08
-4.29882e-08
-3.75053e-09
-4.76333e-08
1.53492e-08
-5.16156e-08
2.80455e-08
-5.34978e-08
3.25713e-08
-5.28699e-08
3.11251e-08
-4.97626e-08
2.2438e-08
-4.751e-08
1.71934e-08
-4.49538e-08
1.14083e-08
1.52944e-09
-7.14107e-08
-1.18571e-10
3.14942e-08
2.95495e-08
9.67086e-09
1.8291e-08
9.02917e-09
1.77569e-08
-2.3592e-08
3.42398e-08
-1.37366e-08
9.74222e-09
-1.24489e-08
4.34196e-09
-1.96483e-08
2.95731e-08
-4.86188e-09
-7.50455e-09
-1.31106e-08
2.75438e-08
3.1018e-08
-7.49667e-10
-1.99295e-08
-8.24825e-09
-1.37586e-07
-1.84262e-08
-4.0902e-08
4.44147e-09
-1.80193e-07
2.60802e-08
-9.40887e-08
4.43104e-08
-4.60322e-08
2.55911e-08
3.66772e-10
-4.26611e-08
-7.30452e-08
3.83973e-08
-9.26902e-08
-2.25998e-09
-8.48527e-08
-1.65327e-08
-8.02894e-08
-1.72014e-09
-6.75503e-08
-2.27357e-08
-9.11079e-08
-1.08429e-08
-1.03089e-07
5.74468e-10
-1.02313e-07
-4.64915e-09
1.30992e-07
5.34711e-08
-9.19246e-08
-3.68618e-08
-6.66359e-08
-1.05221e-08
-5.566e-08
9.59271e-09
-4.42175e-08
1.08111e-08
-5.29642e-08
2.74251e-08
-6.91103e-08
1.87797e-08
-6.24439e-08
3.57761e-08
-1.81686e-08
2.95193e-08
-6.51716e-08
1.89316e-08
-6.85664e-08
1.67259e-08
-6.02364e-08
2.12132e-08
-5.51138e-08
2.49572e-08
-4.73136e-08
2.47229e-08
-5.08765e-08
1.75607e-08
-4.18968e-08
1.82388e-08
-4.12807e-08
1.02704e-08
-3.94375e-08
6.93857e-09
-3.90883e-08
2.1477e-09
-3.97605e-08
-1.03339e-09
-4.01972e-08
-2.87499e-09
-4.0475e-08
-4.05223e-09
-4.1966e-08
-4.95277e-09
-4.41496e-08
-3.88129e-09
-4.76022e-08
-2.48995e-10
-5.17965e-08
6.1175e-09
-5.78613e-08
1.17927e-08
-6.49592e-08
1.39046e-08
-7.28704e-08
1.1144e-08
-8.00973e-08
4.96477e-09
-8.51121e-08
-4.85817e-10
-8.79922e-08
-3.41003e-09
-8.88626e-08
-5.54257e-09
-8.67798e-08
-1.08807e-08
-8.09797e-08
-2.06637e-08
-7.5091e-08
-2.78997e-08
-7.12739e-08
-3.03366e-08
-6.94151e-08
-3.00461e-08
-7.10237e-08
-2.4959e-08
-7.58207e-08
-1.39857e-08
-7.98138e-08
2.42469e-10
-7.91893e-08
1.47246e-08
-7.48492e-08
2.37054e-08
-6.83788e-08
2.61008e-08
-5.98875e-08
2.26337e-08
-5.38697e-08
1.64201e-08
-5.02295e-08
1.35526e-08
-4.71576e-08
8.336e-09
1.35098e-10
-5.78811e-08
-5.46658e-08
-9.59397e-09
-1.90262e-08
1.63152e-08
-7.78425e-09
5.68424e-08
-2.23649e-08
-2.60567e-08
4.74671e-09
4.21195e-08
5.39876e-08
-1.03809e-08
5.72318e-08
-2.07142e-08
3.9801e-08
-3.9967e-08
1.17482e-08
-2.10108e-08
8.7811e-09
-5.8837e-08
3.64701e-08
-6.09204e-08
-4.93051e-09
-1.00406e-07
2.20466e-08
-8.8717e-08
-8.27171e-09
-8.52263e-08
2.20574e-08
-7.38272e-08
3.29113e-08
-9.07015e-08
4.24654e-08
1.27623e-07
7.74267e-08
-9.6191e-08
-7.40723e-08
-8.56335e-08
-1.46724e-08
-6.81199e-08
-3.40463e-08
-6.12333e-08
-7.91186e-09
-6.1986e-08
-2.22149e-08
-5.97632e-08
-1.36753e-08
-1.54873e-07
-1.87205e-08
-5.43832e-08
9.67863e-09
-1.58129e-08
1.43553e-08
-6.65236e-08
1.45275e-08
-6.17232e-08
-1.46991e-08
-4.65518e-08
-5.732e-09
-3.24002e-08
-3.37423e-09
-2.23784e-08
1.685e-08
-1.85305e-08
1.47012e-08
-2.68609e-08
4.34868e-08
-3.03295e-08
3.29879e-08
-4.21274e-08
3.10357e-08
-4.39839e-08
1.90035e-08
-4.61027e-08
2.33319e-08
-4.22469e-08
2.11014e-08
-3.61097e-08
1.85857e-08
-3.27028e-08
1.41538e-08
-2.66912e-08
1.22272e-08
-2.502e-08
8.5992e-09
-2.34097e-08
5.32822e-09
-2.329e-08
2.02799e-09
-2.39238e-08
-3.99634e-10
-2.48869e-08
-1.91181e-09
-2.669e-08
-2.24916e-09
-2.95857e-08
-2.05704e-09
-3.37751e-08
3.08083e-10
-3.887e-08
4.84591e-09
-4.38045e-08
1.10521e-08
-4.93281e-08
1.73163e-08
-5.59633e-08
2.05398e-08
-6.41226e-08
1.93033e-08
-7.3101e-08
1.39432e-08
-8.1162e-08
7.57516e-09
-8.62382e-08
1.66616e-09
-8.73809e-08
-4.39986e-09
-8.45495e-08
-1.37121e-08
-7.95749e-08
-2.56384e-08
-7.63735e-08
-3.11011e-08
-7.44428e-08
-3.22674e-08
-7.45019e-08
-2.9987e-08
-7.8191e-08
-2.127e-08
-8.3103e-08
-9.07371e-09
-8.5026e-08
2.16528e-09
-8.15608e-08
1.12594e-08
-7.47906e-08
1.69351e-08
-6.65781e-08
1.78882e-08
-5.89769e-08
1.50324e-08
-5.42653e-08
1.17082e-08
-5.07395e-08
1.00263e-08
-4.83952e-08
5.99122e-09
-4.18501e-10
-2.58375e-08
-1.74019e-09
-1.79478e-08
-2.69155e-08
-1.54729e-08
-1.03114e-08
-1.4682e-08
-2.36201e-08
-6.49225e-08
5.54027e-08
-3.84323e-08
2.83374e-08
-4.72494e-08
6.61397e-08
-4.50343e-08
3.7586e-08
-7.29366e-08
3.95307e-08
-2.518e-08
-3.89755e-08
-6.38145e-08
7.39778e-08
-8.22623e-08
1.35676e-08
-6.35723e-08
3.58156e-09
-7.22897e-08
4.45673e-10
-4.44024e-08
-5.82997e-09
-3.41526e-08
2.24328e-08
-8.17328e-08
-2.34316e-08
-2.84519e-08
2.41458e-08
1.09226e-08
-9.64407e-10
-1.1196e-07
-5.02768e-09
-6.33409e-08
3.09197e-08
-3.7032e-08
-3.38751e-08
-4.86541e-08
-1.05929e-08
-6.63508e-08
4.02134e-09
-9.5923e-08
1.10427e-08
-7.31274e-08
-1.3117e-08
-9.81059e-09
-4.94662e-08
-5.92609e-08
6.39777e-08
-7.97908e-08
5.68079e-09
-7.82939e-08
-7.36253e-09
-7.89868e-08
-2.71575e-09
-5.10184e-08
-1.09466e-08
-2.99071e-08
-6.25505e-09
-1.46127e-08
2.79105e-08
-2.60211e-08
4.45126e-08
-2.91536e-08
3.41181e-08
-3.74427e-08
2.72925e-08
-3.34026e-08
1.92918e-08
-3.0617e-08
1.83157e-08
-2.64579e-08
1.44265e-08
-2.38251e-08
1.15209e-08
-2.04655e-08
8.86762e-09
-1.92037e-08
7.33733e-09
-1.83151e-08
4.43968e-09
-1.88137e-08
2.5266e-09
-1.98304e-08
6.16975e-10
-2.13799e-08
-3.6228e-10
-2.32935e-08
-3.35531e-10
-2.61921e-08
8.41569e-10
-3.00085e-08
4.12448e-09
-3.42048e-08
9.04219e-09
-3.79381e-08
1.47855e-08
-4.11699e-08
2.05481e-08
-4.42685e-08
2.36385e-08
-4.86506e-08
2.36853e-08
-5.48223e-08
2.0115e-08
-6.13306e-08
1.40835e-08
-6.67385e-08
7.0741e-09
-6.97385e-08
-1.39991e-09
-6.97349e-08
-1.37157e-08
-6.84279e-08
-2.69453e-08
-6.78669e-08
-3.16621e-08
-6.80544e-08
-3.20799e-08
-7.04318e-08
-2.76098e-08
-7.46277e-08
-1.70741e-08
-7.78194e-08
-5.88208e-09
-7.77086e-08
2.05439e-09
-7.38722e-08
7.42284e-09
-6.77258e-08
1.07887e-08
-6.15015e-08
1.16638e-08
-5.68689e-08
1.03997e-08
-5.35923e-08
8.43132e-09
-5.08152e-08
7.24873e-09
-4.92185e-08
4.39395e-09
-5.05349e-10
-8.89961e-08
-1.66458e-08
-1.18412e-07
8.54767e-11
-1.56269e-07
2.5919e-08
-1.91347e-07
1.24638e-08
-1.7034e-07
3.42587e-08
-1.63172e-07
2.1244e-08
-1.41757e-07
4.5933e-08
-1.28745e-07
2.60198e-08
-1.46555e-07
5.7341e-08
9.01163e-08
6.25104e-08
-1.04516e-07
-6.76734e-08
-7.28974e-08
-1.91174e-08
-6.84696e-08
-8.46264e-10
-4.59991e-08
-2.20249e-08
-1.31264e-08
-3.85687e-08
-4.7712e-08
5.65365e-08
-1.00598e-07
2.89626e-08
-6.16507e-08
-1.37752e-08
-5.15297e-08
-1.10854e-08
-5.00867e-08
-6.40537e-09
-1.21014e-07
-1.01563e-08
-4.5058e-08
2.26315e-09
-5.15115e-08
-4.59909e-09
-4.19146e-08
-5.5193e-09
-6.03038e-08
2.94318e-08
-1.08272e-07
3.37464e-08
1.01557e-07
8.39209e-08
-1.33663e-07
-4.15525e-08
-1.25841e-07
-3.42513e-09
-1.39081e-07
5.93857e-09
-1.22495e-07
-1.78834e-08
-1.07685e-07
-2.57561e-08
-3.48218e-08
-7.95751e-08
-5.74446e-08
5.08151e-08
-8.26882e-08
6.93067e-08
-7.18224e-08
2.40789e-08
-6.09489e-08
1.64189e-08
-5.61761e-08
1.4519e-08
-5.21695e-08
1.4309e-08
-4.94742e-08
1.17312e-08
-4.76626e-08
9.7093e-09
-4.53998e-08
6.60473e-09
-4.33067e-08
5.24427e-09
-4.16474e-08
2.78036e-09
-4.09218e-08
1.80098e-09
-4.10432e-08
7.3832e-10
-4.10313e-08
-3.74143e-10
-4.08685e-08
-4.98292e-10
-4.08708e-08
8.43835e-10
-4.10997e-08
4.35343e-09
-4.13194e-08
9.26192e-09
-4.1575e-08
1.5041e-08
-4.12383e-08
2.02114e-08
-4.05522e-08
2.29523e-08
-4.00148e-08
2.3148e-08
-4.06983e-08
2.07984e-08
-4.28806e-08
1.62657e-08
-4.62078e-08
1.04013e-08
-5.00849e-08
2.47714e-09
-5.41351e-08
-9.66552e-09
-5.76898e-08
-2.33906e-08
-6.00312e-08
-2.93208e-08
-6.24226e-08
-2.96884e-08
-6.55194e-08
-2.4513e-08
-6.85499e-08
-1.40437e-08
-6.99423e-08
-4.4898e-09
-6.88509e-08
9.62964e-10
-6.57933e-08
4.36508e-09
-6.20106e-08
7.00599e-09
-5.8415e-08
8.06803e-09
-5.5391e-08
7.37563e-09
-5.30813e-08
6.12133e-09
-5.10721e-08
5.23898e-09
-4.99102e-08
3.23158e-09
-4.65724e-10
-1.59302e-07
5.82008e-08
-2.08492e-07
5.09182e-08
-2.11054e-07
3.00794e-08
-2.35493e-07
3.91784e-08
-1.8413e-07
-1.7276e-08
-1.69355e-07
6.10106e-09
-1.45051e-07
2.09538e-08
-1.34698e-07
1.41877e-08
-1.10068e-07
3.38335e-08
-5.68108e-08
9.25313e-09
-9.57205e-08
-3.00336e-08
-5.19161e-08
-6.29217e-08
-8.04634e-08
2.74213e-08
-8.04346e-08
-2.2281e-08
9.43453e-08
1.26366e-07
-1.43221e-07
-4.50349e-08
-9.6391e-08
-1.81627e-08
-7.92932e-08
-3.0873e-08
-2.41697e-08
-6.59624e-08
-7.02251e-08
3.965e-08
-8.90053e-08
7.82769e-09
-6.88894e-08
-1.78297e-08
-6.37811e-08
-9.05666e-09
-1.19795e-08
-5.7321e-08
-5.21673e-08
6.87957e-08
-4.31711e-08
2.45002e-08
-4.92247e-09
4.43635e-08
-5.67127e-08
1.02377e-08
-6.73737e-08
6.54855e-09
-1.70651e-07
-5.25081e-09
-1.0615e-07
3.25948e-08
-1.4217e-07
8.81303e-09
5.28062e-08
6.86647e-08
-1.29567e-07
-1.06309e-07
-1.1795e-07
5.88809e-08
-1.09879e-07
1.60079e-08
-9.89173e-08
5.45705e-09
-9.24295e-08
8.03119e-09
-8.64932e-08
8.37267e-09
-8.1878e-08
7.11597e-09
-7.79127e-08
5.74395e-09
-7.48846e-08
3.57666e-09
-7.20202e-08
2.3798e-09
-7.01205e-08
8.80735e-10
-6.87536e-08
4.34008e-10
-6.80171e-08
1.8243e-12
-6.74194e-08
-9.71874e-10
-6.67593e-08
-1.15835e-09
-6.60609e-08
1.45394e-10
-6.42884e-08
2.58101e-09
-6.05158e-08
5.48928e-09
-5.51438e-08
9.66901e-09
-4.88423e-08
1.39099e-08
-4.29871e-08
1.70972e-08
-3.83848e-08
1.85457e-08
-3.50151e-08
1.74287e-08
-3.35464e-08
1.4797e-08
-3.4513e-08
1.1368e-08
-3.7976e-08
5.94011e-09
-4.39105e-08
-3.73094e-09
-5.08976e-08
-1.64035e-08
-5.55944e-08
-2.4624e-08
-5.896e-08
-2.63228e-08
-6.14033e-08
-2.20698e-08
-6.33048e-08
-1.21422e-08
-6.38146e-08
-3.9801e-09
-6.27564e-08
-9.53092e-11
-6.08809e-08
2.48946e-09
-5.87e-08
4.82497e-09
-5.6481e-08
5.84899e-09
-5.44144e-08
5.30885e-09
-5.27441e-08
4.45078e-09
-5.13067e-08
3.80098e-09
-5.04443e-08
2.36877e-09
-4.00893e-10
-1.98093e-07
-9.42065e-08
-1.97323e-07
5.11289e-08
-1.77158e-07
9.91426e-09
-1.50516e-07
1.40722e-08
-1.4538e-07
-2.23601e-08
-1.37684e-07
-1.67332e-09
-1.26648e-07
1.00283e-08
-1.11683e-07
-2.06991e-09
-8.46484e-08
6.73048e-09
-8.40974e-08
8.79652e-09
-1.47285e-07
3.31537e-08
7.75147e-08
5.06853e-08
-1.85512e-07
-4.81955e-08
6.70834e-08
6.6427e-08
-8.43469e-08
-6.26027e-08
-1.18393e-07
-1.09883e-08
-9.64859e-08
-4.04833e-08
-1.53695e-07
2.6336e-08
1.04559e-07
1.54978e-08
-1.28746e-07
-6.43848e-08
-7.41148e-08
-4.6803e-08
-9.69153e-08
4.21465e-09
-1.1918e-07
1.30748e-08
1.114e-07
5.00922e-08
-8.30434e-08
-7.22062e-08
6.69476e-09
-6.61442e-08
-1.00355e-08
6.11613e-08
-2.04638e-08
2.05635e-08
-2.93539e-08
1.52827e-08
-4.99025e-08
1.53514e-08
-3.84535e-08
2.09322e-08
-4.05134e-08
1.07631e-08
1.14589e-08
1.61087e-08
1.1624e-07
1.30778e-07
-1.2107e-07
-4.3316e-08
-7.2649e-08
-3.15176e-08
-6.8691e-08
1.51414e-09
-6.32654e-08
2.60548e-09
-5.82069e-08
3.31415e-09
-5.55571e-08
4.46613e-09
-5.41563e-08
4.34312e-09
-5.43761e-08
3.7965e-09
-5.54662e-08
3.46984e-09
-5.6756e-08
2.17057e-09
-5.79951e-08
1.67312e-09
-5.92749e-08
1.28159e-09
-6.1444e-08
1.19723e-09
-6.42132e-08
1.61083e-09
-6.70512e-08
2.98339e-09
-6.83358e-08
3.86562e-09
-6.72941e-08
4.44759e-09
-6.31419e-08
5.51684e-09
-5.61978e-08
6.96584e-09
-4.74002e-08
8.29954e-09
-3.84122e-08
9.55769e-09
-3.09118e-08
9.92825e-09
-2.63604e-08
1.02456e-08
-2.526e-08
1.02675e-08
-2.76185e-08
8.29861e-09
-3.36832e-08
2.33378e-09
-4.20026e-08
-8.08413e-09
-4.86529e-08
-1.79738e-08
-5.27352e-08
-2.22406e-08
-5.59528e-08
-1.88522e-08
-5.84872e-08
-9.60784e-09
-5.94417e-08
-3.0257e-09
-5.93074e-08
-2.29663e-10
-5.83621e-08
1.54398e-09
-5.6884e-08
3.34687e-09
-5.52933e-08
4.25819e-09
-5.37892e-08
3.8046e-09
-5.25401e-08
3.20132e-09
-5.14856e-08
2.74596e-09
-5.08383e-08
1.721e-09
-3.31172e-10
3.001e-08
5.21759e-08
-1.7919e-07
-7.6729e-08
-1.42685e-07
-2.84182e-08
-1.12761e-07
-1.47018e-08
-1.29144e-07
-6.20238e-09
-1.07105e-07
-2.39376e-08
-7.69302e-08
-1.98444e-08
-8.35383e-08
4.6056e-09
-7.00841e-08
-6.72374e-09
-8.28091e-08
2.08066e-08
-7.33336e-08
2.41796e-08
-2.12503e-08
-1.61263e-09
-9.08644e-08
2.04917e-08
-1.63853e-08
-7.8029e-09
-6.80364e-08
-1.09516e-08
-8.58025e-08
5.84291e-09
-1.35464e-07
9.17777e-09
-8.67436e-08
-2.12185e-08
-4.45364e-08
-2.65256e-08
-8.27172e-08
-2.6204e-08
-8.03608e-08
-5.10011e-08
-8.00464e-08
4.6693e-09
-6.78617e-08
8.8999e-10
-3.26602e-08
1.41984e-08
-1.04513e-07
-1.0905e-09
1.19678e-07
4.82133e-08
-8.98667e-08
-6.83848e-08
-5.24728e-08
-1.61305e-08
-4.25408e-08
5.35071e-09
-3.58248e-08
8.56681e-09
-3.04774e-08
1.57337e-08
3.19691e-10
-2.05494e-08
1.90414e-07
1.62135e-07
2.75532e-09
-1.89482e-08
-3.66381e-08
-3.89416e-09
-5.08374e-08
-1.74442e-08
-5.48992e-08
6.08928e-09
-5.53553e-08
3.64693e-09
-5.85622e-08
6.52099e-09
-5.89563e-08
4.86023e-09
-5.96743e-08
5.0611e-09
-6.06006e-08
4.72282e-09
-6.10986e-08
3.9678e-09
-6.16197e-08
2.6916e-09
-6.21336e-08
2.18701e-09
-6.27491e-08
1.89711e-09
-6.41921e-08
2.64022e-09
-6.61243e-08
3.543e-09
-6.74576e-08
4.31672e-09
-6.75451e-08
3.95308e-09
-6.58032e-08
2.70573e-09
-6.12246e-08
9.38293e-10
-5.36393e-08
-6.19468e-10
-4.37594e-08
-1.5804e-09
-3.28796e-08
-1.3221e-09
-2.29372e-08
-1.41695e-11
-1.58822e-08
3.19061e-09
-1.25568e-08
6.9421e-09
-1.25851e-08
8.32689e-09
-1.61592e-08
5.90793e-09
-2.35624e-08
-6.81022e-10
-3.27213e-08
-8.81482e-09
-4.15233e-08
-1.34386e-08
-4.91748e-08
-1.12008e-08
-5.39065e-08
-4.87618e-09
-5.59853e-08
-9.47004e-10
-5.67694e-08
5.54377e-10
-5.66129e-08
1.38742e-09
-5.56583e-08
2.39216e-09
-5.44015e-08
3.00133e-09
-5.32952e-08
2.69809e-09
-5.23805e-08
2.28636e-09
-5.16001e-08
1.96509e-09
-5.1121e-08
1.24136e-09
-2.60624e-10
-1.11171e-07
-9.97277e-09
-1.57291e-07
-3.25444e-08
-1.41326e-07
-4.32193e-08
-1.29578e-07
-2.645e-08
-2.02299e-07
-4.72646e-08
-1.06862e-07
-5.04648e-09
-8.10049e-08
-4.59019e-08
-9.02388e-08
1.30131e-08
-9.0408e-08
-6.69141e-09
-7.25526e-08
3.65409e-09
-4.36843e-08
-4.68864e-09
-3.71775e-08
-8.20229e-09
-4.03276e-08
2.32005e-08
-2.85147e-08
-2.00271e-08
-3.24695e-08
-6.66567e-09
-2.25913e-08
-4.03524e-09
-1.34411e-07
6.0642e-09
-4.77986e-08
6.08141e-09
-7.72194e-08
3.38786e-09
-6.41993e-08
-3.93586e-08
-4.69315e-08
-6.84911e-08
-7.8026e-08
3.62377e-08
-7.8958e-08
1.03506e-09
-6.61649e-08
1.40534e-09
-6.65335e-08
-4.31346e-11
-7.49026e-09
-1.07218e-08
-4.19688e-08
-3.32157e-08
-3.44212e-08
-2.36782e-08
-4.79679e-08
1.86009e-08
-7.06534e-08
3.23026e-08
-6.95553e-08
1.39512e-08
1.69849e-07
7.9761e-08
1.63972e-08
-2.2578e-08
-1.54484e-08
1.3003e-08
-1.58285e-08
-3.79343e-09
-4.24145e-08
9.57902e-09
-5.44526e-08
1.87449e-08
-6.38006e-08
1.29949e-08
-6.53354e-08
8.69364e-09
-6.4055e-08
3.57973e-09
-6.43656e-08
5.37172e-09
-6.71858e-08
7.54301e-09
-6.99354e-08
6.71735e-09
-7.16852e-08
4.44139e-09
-7.27951e-08
3.29695e-09
-7.33835e-08
2.48547e-09
-7.35474e-08
2.8041e-09
-7.33323e-08
3.32789e-09
-7.21299e-08
3.11437e-09
-6.96176e-08
1.44078e-09
-6.51884e-08
-1.72346e-09
-5.79205e-08
-6.32968e-09
-4.81093e-08
-1.04306e-08
-3.71316e-08
-1.25581e-08
-2.6496e-08
-1.19577e-08
-1.7171e-08
-9.33918e-09
-1.02417e-08
-3.73868e-09
-6.65741e-09
3.35775e-09
-6.32668e-09
7.99615e-09
-9.0244e-09
8.60564e-09
-1.49135e-08
5.20811e-09
-2.44265e-08
6.98163e-10
-3.64197e-08
-1.44543e-09
-4.7125e-08
-4.95508e-10
-5.30012e-08
9.99979e-10
-5.52809e-08
1.33257e-09
-5.5988e-08
1.26143e-09
-5.59011e-08
1.30045e-09
-5.50622e-08
1.55314e-09
-5.38702e-08
1.80929e-09
-5.29532e-08
1.7809e-09
-5.22753e-08
1.60817e-09
-5.16867e-08
1.37599e-09
-5.13279e-08
8.82005e-10
-1.95748e-10
-1.90438e-07
-4.18025e-08
-9.58406e-08
-1.24784e-08
-1.01782e-07
-3.68972e-08
-8.30623e-08
-4.49788e-08
-1.06543e-07
-2.37835e-08
-6.81346e-08
-4.28049e-08
-1.39329e-08
-1.01608e-07
-4.10023e-08
3.96641e-08
-6.04635e-08
1.3393e-08
-4.48931e-08
-1.13057e-08
-3.10245e-08
-1.92596e-08
-3.4132e-08
-4.79544e-09
-1.33029e-08
2.60567e-09
-2.60035e-08
-7.46232e-09
-5.05828e-08
1.79137e-08
-3.62099e-08
-1.8263e-08
-4.84325e-08
1.82868e-08
-3.79321e-08
-4.48107e-09
-5.56562e-08
2.10774e-08
-1.05996e-07
9.90025e-09
9.95374e-08
6.98967e-08
-1.17394e-07
-8.71907e-08
-9.83135e-08
-1.82316e-08
-9.59387e-08
-9.69485e-10
-6.17465e-08
-3.3266e-08
-3.02995e-08
-4.19711e-08
-1.69148e-08
-4.69064e-08
2.17468e-08
-6.27539e-08
-1.82618e-08
5.78331e-08
-1.12048e-07
1.28384e-08
-2.22843e-08
3.77794e-08
3.22122e-08
2.42341e-08
2.46032e-08
-1.44722e-08
-8.75584e-08
1.08933e-08
-3.1597e-08
5.43765e-08
-5.73842e-08
3.43328e-08
-6.37256e-08
2.56717e-08
-6.95216e-08
1.99353e-08
-7.69554e-08
1.61274e-08
-8.1599e-08
8.22328e-09
-8.58387e-08
9.61136e-09
-8.74896e-08
9.19392e-09
-8.78781e-08
7.10583e-09
-8.78305e-08
4.39384e-09
-8.68657e-08
2.33206e-09
-8.55501e-08
1.16993e-09
-8.29946e-08
2.48566e-10
-8.01313e-08
4.64585e-10
-7.62027e-08
-8.14239e-10
-7.03745e-08
-4.38745e-09
-6.25433e-08
-9.5546e-09
-5.37058e-08
-1.51672e-08
-4.4259e-08
-1.98775e-08
-3.44466e-08
-2.23705e-08
-2.48942e-08
-2.15101e-08
-1.67889e-08
-1.74445e-08
-1.11153e-08
-9.41222e-09
-8.47084e-09
7.13228e-10
-9.72697e-09
9.25227e-09
-1.40373e-08
1.2916e-08
-2.11001e-08
1.22709e-08
-3.09992e-08
1.05972e-08
-4.17081e-08
9.2635e-09
-4.94807e-08
7.27707e-09
-5.32463e-08
4.76551e-09
-5.4781e-08
2.86718e-09
-5.52446e-08
1.72497e-09
-5.50467e-08
1.10248e-09
-5.43299e-08
8.36243e-10
-5.34168e-08
8.96099e-10
-5.2716e-08
1.07994e-09
-5.21886e-08
1.08048e-09
-5.17415e-08
9.28369e-10
-5.14748e-08
6.14839e-10
-1.36596e-10
7.51354e-08
-1.33649e-08
9.43646e-08
-3.26601e-08
9.02793e-08
-3.18073e-08
6.91141e-08
-2.31283e-08
4.38083e-08
2.21197e-09
4.41505e-09
-3.36618e-09
2.13e-07
3.26404e-08
-3.35157e-08
-5.57074e-08
-2.1395e-08
1.13572e-09
-2.6025e-08
-7.12935e-09
-4.114e-08
-4.61615e-09
-6.2877e-08
1.73656e-08
-4.74437e-08
-1.21596e-08
-4.83022e-08
-6.60379e-09
-1.2505e-07
-1.73014e-08
-5.52933e-08
2.40752e-08
-5.57941e-08
1.82235e-08
-6.70656e-08
6.79038e-09
-5.68056e-08
1.08174e-08
-5.84466e-08
1.15413e-08
-2.0852e-09
1.28222e-08
-4.42701e-08
-4.54575e-08
-5.70007e-08
-1.19906e-07
-9.63932e-08
3.99879e-08
-4.55962e-08
2.80315e-08
-5.83741e-08
-3.00866e-08
-3.97914e-08
-6.66475e-08
1.27097e-07
1.08776e-07
-9.71659e-08
-5.36461e-08
-7.00007e-08
-1.5293e-08
-1.58718e-08
-1.59641e-08
2.45552e-08
-1.61962e-08
7.68656e-08
-6.74639e-08
2.59992e-09
8.5832e-08
1.63123e-09
5.53285e-08
-4.96869e-09
4.1401e-08
-1.65907e-08
3.67803e-08
-2.88842e-08
3.22287e-08
-4.8324e-08
3.55672e-08
-7.08091e-08
3.07083e-08
-8.28186e-08
2.16208e-08
-8.71113e-08
1.34867e-08
-8.7921e-08
7.91545e-09
-8.73993e-08
3.87212e-09
-8.55801e-08
5.12908e-10
-8.3232e-08
-1.17817e-09
-7.95205e-08
-3.463e-09
-7.48641e-08
-4.19179e-09
-6.9261e-08
-6.41734e-09
-6.29147e-08
-1.07337e-08
-5.63743e-08
-1.6095e-08
-5.15279e-08
-2.00137e-08
-4.71241e-08
-2.42812e-08
-4.26318e-08
-2.68628e-08
-3.73879e-08
-2.6754e-08
-3.18162e-08
-2.30163e-08
-2.68079e-08
-1.44205e-08
-2.40109e-08
-2.08375e-09
-2.54977e-08
1.07391e-08
-3.07211e-08
1.81394e-08
-3.84095e-08
1.99592e-08
-4.66682e-08
1.88559e-08
-5.23807e-08
1.49761e-08
-5.4197e-08
9.09325e-09
-5.43088e-08
4.87728e-09
-5.44096e-08
2.96798e-09
-5.45206e-08
1.8359e-09
-5.42745e-08
8.56298e-10
-5.37416e-08
3.03248e-10
-5.30948e-08
2.49233e-10
-5.25595e-08
5.4447e-10
-5.2132e-08
6.52633e-10
-5.17905e-08
5.86408e-10
-5.15856e-08
4.09435e-10
-8.86701e-11
-2.41497e-09
-1.39041e-08
-2.81518e-08
-7.46698e-09
-3.60357e-08
-2.46224e-08
-7.18462e-08
1.30537e-08
-5.88847e-08
-1.00164e-08
-6.21254e-08
5.37109e-10
3.13602e-08
-6.17989e-08
-6.98694e-08
4.58421e-08
-7.39502e-08
4.46211e-09
-8.6143e-08
4.17561e-09
-8.91094e-08
-7.21838e-10
-8.00985e-08
9.08665e-09
-7.60949e-08
-1.61632e-08
-8.90835e-08
6.38481e-09
-9.96334e-08
-6.82108e-09
-7.45504e-08
-7.6215e-10
-6.54836e-08
9.15669e-09
-7.50657e-08
1.63724e-08
-7.03503e-08
6.04031e-09
-6.1066e-08
2.25697e-09
-4.66111e-08
-1.63269e-09
-9.35525e-08
1.48383e-09
8.35319e-08
4.39468e-08
-1.41705e-07
-7.44896e-08
-8.86229e-08
-2.47646e-08
-1.163e-07
-3.59551e-09
1.16026e-07
4.42421e-08
-6.41808e-08
-5.07435e-08
-7.14928e-08
-4.61539e-08
-5.90227e-08
-2.87758e-08
-7.06799e-08
-4.95971e-09
-8.6872e-08
-8.90351e-10
1.67155e-07
2.1248e-08
-1.0894e-07
2.05081e-08
-8.5629e-08
3.08291e-08
-7.7534e-08
3.41796e-08
-6.92733e-08
3.00699e-08
-6.45208e-08
2.74763e-08
-5.85429e-08
2.95893e-08
-5.44274e-08
2.65928e-08
-4.72137e-08
1.44071e-08
-4.09333e-08
7.20627e-09
-3.79018e-08
4.88387e-09
-3.74258e-08
3.39618e-09
-3.89906e-08
2.07768e-09
-4.13225e-08
1.15373e-09
-4.42119e-08
-5.73644e-10
-4.58847e-08
-2.51903e-09
-4.69296e-08
-5.37245e-09
-4.80105e-08
-9.65279e-09
-5.00782e-08
-1.40274e-08
-5.33099e-08
-1.6782e-08
-5.65844e-08
-2.10068e-08
-5.85872e-08
-2.48601e-08
-5.92054e-08
-2.61357e-08
-5.87472e-08
-2.34745e-08
-5.70068e-08
-1.6161e-08
-5.49463e-08
-4.14427e-09
-5.46433e-08
1.0436e-08
-5.56852e-08
1.91813e-08
-5.73153e-08
2.15893e-08
-5.86398e-08
2.01803e-08
-5.80779e-08
1.44142e-08
-5.62194e-08
7.23465e-09
-5.49405e-08
3.59835e-09
-5.42482e-08
2.27569e-09
-5.39248e-08
1.51235e-09
-5.36107e-08
5.42161e-10
-5.32038e-08
-1.03754e-10
-5.27535e-08
-2.01089e-10
-5.23615e-08
1.52327e-10
-5.20537e-08
3.44471e-10
-5.18058e-08
3.37986e-10
-5.16593e-08
2.62487e-10
-4.67209e-11
-4.93057e-08
1.15237e-08
-6.71053e-08
1.03331e-08
-9.40142e-08
1.85337e-09
-9.1227e-08
1.00311e-08
-8.77491e-08
-1.24719e-08
-1.06286e-07
1.80006e-08
1.15346e-07
5.80529e-08
-1.17497e-07
-6.15782e-08
-9.49711e-08
-1.80638e-08
-9.69743e-08
5.14693e-09
-9.74596e-08
-2.26791e-10
-9.06787e-08
3.29995e-09
-9.54937e-08
-1.14652e-08
-7.63033e-08
-1.35841e-08
-8.80117e-08
4.93828e-09
-6.0572e-08
-2.75855e-08
-7.15985e-08
2.03912e-08
-6.96545e-08
1.49862e-08
-6.3531e-08
-8.31921e-11
-4.50045e-08
-1.69177e-08
-4.47372e-08
-1.90002e-09
-5.08809e-08
7.62752e-09
-2.02736e-08
1.33395e-08
-9.17362e-08
-3.02699e-09
-8.20262e-08
-3.44746e-08
-5.59206e-08
-2.97011e-08
3.3217e-08
-4.61566e-08
-4.81376e-08
3.06111e-08
-7.85752e-08
-1.766e-08
-9.54238e-08
-1.33449e-08
-1.17394e-07
1.79936e-08
-1.43579e-07
2.50282e-08
1.12496e-07
1.07066e-07
-1.69751e-07
-3.60081e-08
-1.29682e-07
-7.85099e-09
-1.2045e-07
2.42639e-08
-9.97946e-08
9.41455e-09
-8.26977e-08
1.03793e-08
-6.58485e-08
1.27401e-08
-5.25023e-08
1.32465e-08
-4.18576e-08
3.76244e-09
-3.34688e-08
-1.18258e-09
-2.81421e-08
-4.42825e-10
-2.59958e-08
1.24985e-09
-2.61542e-08
2.23604e-09
-2.80201e-08
3.01962e-09
-3.14019e-08
2.80817e-09
-3.55023e-08
1.5814e-09
-4.03852e-08
-4.89599e-10
-4.59247e-08
-4.11328e-09
-5.25076e-08
-7.44454e-09
-5.85014e-08
-1.07882e-08
-6.3296e-08
-1.62122e-08
-6.6736e-08
-2.14201e-08
-7.01926e-08
-2.26791e-08
-7.4425e-08
-1.92421e-08
-7.77212e-08
-1.28649e-08
-7.80164e-08
-3.84909e-09
-7.53035e-08
7.72311e-09
-7.21585e-08
1.60363e-08
-6.88654e-08
1.82961e-08
-6.47543e-08
1.60693e-08
-6.06225e-08
1.02824e-08
-5.76394e-08
4.25152e-09
-5.57677e-08
1.72651e-09
-5.45248e-08
1.03276e-09
-5.37005e-08
6.88022e-10
-5.31884e-08
2.99134e-11
-5.28635e-08
-4.287e-10
-5.25751e-08
-4.89531e-10
-5.22766e-08
-1.46343e-10
-5.20407e-08
1.08268e-10
-5.18482e-08
1.4491e-10
-5.17249e-08
1.38677e-10
-2.11141e-11
-9.42811e-08
9.45036e-10
-5.72954e-08
-2.65468e-08
-8.5868e-08
-8.19359e-08
-3.31384e-08
6.97308e-08
-4.88239e-08
2.87908e-09
-3.20314e-08
8.93647e-10
2.49779e-08
1.96621e-10
-1.52806e-08
-2.11066e-08
-2.16216e-08
-1.18787e-08
-2.41615e-08
7.85328e-09
-2.20882e-08
-2.29789e-09
-3.06277e-08
1.13017e-08
-4.53463e-08
3.25339e-09
-7.23467e-08
1.32763e-08
-8.04177e-08
1.21294e-08
-4.55931e-08
-6.26973e-08
-9.30888e-08
6.93162e-08
-8.80489e-08
1.09975e-08
-9.23175e-08
3.28627e-09
-8.33691e-08
-2.61327e-08
-6.74836e-08
-1.77856e-08
-3.56102e-08
-2.42458e-08
-2.06189e-08
-1.65186e-09
-1.17612e-07
-1.9272e-08
-6.48693e-08
2.60208e-08
-1.40788e-07
4.47815e-08
9.28821e-08
6.27421e-08
-1.2752e-07
-9.06369e-08
-1.10604e-07
-3.60883e-08
-1.46513e-07
-9.24698e-08
-1.01595e-07
8.76251e-08
-1.06181e-07
3.10134e-08
-2.99893e-08
2.97954e-08
-8.65394e-08
2.09021e-08
-8.56083e-08
-8.78213e-09
-7.01493e-08
8.80487e-09
-6.72875e-08
6.55266e-09
-6.27072e-08
5.79899e-09
-5.52794e-08
5.31232e-09
-4.61659e-08
4.13305e-09
-4.09073e-08
-1.49621e-09
-3.78482e-08
-4.2417e-09
-3.42428e-08
-4.04827e-09
-3.23121e-08
-6.80845e-10
-3.20798e-08
2.00377e-09
-3.32504e-08
4.1902e-09
-3.58622e-08
5.41991e-09
-3.97966e-08
5.51585e-09
-4.49464e-08
4.66018e-09
-5.11172e-08
2.05746e-09
-5.70916e-08
-1.47018e-09
-6.17178e-08
-6.16201e-09
-6.53866e-08
-1.25434e-08
-6.92575e-08
-1.75492e-08