/*--------------------------------*- C++ -*----------------------------------*\
  =========                 |
  \\      /  F ield         | OpenFOAM: The Open Source CFD Toolbox
   \\    /   O peration     | Website:  https://openfoam.org
    \\  /    A nd           | Version:  12
     \\/     M anipulation  |
\*---------------------------------------------------------------------------*/
FoamFile
{
    format      ascii;
    class       surfaceScalarField;
    location    "0.85";
    object      phi.water_0;
}
// * * * * * * * * * * * * * * * * * * * * * * * * * * * * * * * * * * * * * //

dimensions      [0 3 -1 0 0 0 0];

internalField   nonuniform List<scalar> 
7375
(
1.51324e-07
-1.2012e-08
1.53534e-07
-2.1847e-09
1.33158e-07
2.01736e-08
1.2968e-07
3.40384e-09
1.11835e-07
1.78176e-08
1.02161e-07
9.65343e-09
1.52892e-07
-4.97024e-08
8.62435e-08
6.66383e-08
7.21233e-08
1.32362e-08
7.42355e-08
-2.1804e-09
7.38061e-08
4.36452e-10
7.84446e-08
-4.57981e-09
8.4902e-08
-6.38236e-09
8.69188e-08
-1.9758e-09
1.00638e-07
-1.37131e-08
1.00298e-07
1.36845e-09
9.54512e-08
4.86315e-09
9.29381e-08
1.5328e-09
7.69611e-08
1.68998e-08
1.00534e-07
-2.44668e-08
1.26165e-07
-2.66459e-08
1.2541e-07
7.87318e-10
1.64815e-07
-3.7363e-08
6.937e-08
-1.69436e-08
1.66877e-07
1.50241e-08
1.17437e-07
4.8951e-08
1.25539e-07
-8.2159e-09
2.37484e-07
-1.15494e-07
1.15195e-07
1.2227e-07
8.23381e-08
3.25251e-08
6.88792e-08
1.33227e-08
9.58641e-08
-2.69826e-08
-1.57948e-08
-1.31651e-09
8.62228e-08
1.01796e-08
2.36398e-08
6.3726e-08
2.67049e-07
9.98284e-08
-3.77336e-08
-3.80253e-08
-7.34273e-08
3.49289e-08
1.54595e-07
1.15909e-07
1.41657e-07
1.14513e-08
-2.46229e-07
-6.42704e-08
1.49591e-07
5.50398e-08
-1.24074e-07
-6.3228e-08
-1.10404e-07
-1.47129e-08
-9.81291e-08
-1.00624e-08
-8.39424e-08
-1.32058e-08
-7.4131e-08
-9.81133e-09
-6.51181e-08
-9.01302e-09
-5.51003e-08
-1.00177e-08
-4.59728e-08
-9.12768e-09
-3.66925e-08
-9.2801e-09
-2.98732e-08
-6.81961e-09
-2.34206e-08
-6.45245e-09
-1.77493e-08
-5.67146e-09
-1.16681e-08
-6.08108e-09
-5.36957e-09
-6.29874e-09
5.72929e-10
-5.94234e-09
6.04663e-09
-5.4739e-09
1.06555e-08
-4.60866e-09
1.51944e-08
-4.53911e-09
2.02697e-08
-5.07515e-09
2.66124e-08
-6.34285e-09
3.44761e-08
-7.86346e-09
4.35623e-08
-9.08624e-09
5.28206e-08
-9.25801e-09
5.9827e-08
-7.00641e-09
6.12481e-08
-1.42088e-09
5.46688e-08
6.57924e-09
4.23391e-08
1.23299e-08
2.76611e-08
1.46778e-08
1.28452e-08
1.4816e-08
-8.33919e-10
1.36792e-08
-1.47661e-08
1.39326e-08
-2.67186e-08
1.1953e-08
3.91723e-09
1.32533e-07
-3.1277e-08
1.16305e-07
1.28681e-08
1.1516e-07
2.13302e-08
1.10092e-07
9.53762e-09
1.13404e-07
1.54717e-08
7.79022e-08
4.54853e-08
2.87409e-07
8.40062e-08
5.25562e-08
-4.2266e-08
6.36107e-08
3.44453e-09
5.87216e-08
3.9316e-09
5.8998e-08
-1.66011e-09
7.5191e-08
-2.29556e-08
1.01209e-07
-3.26629e-08
1.14069e-07
-1.38135e-08
1.33736e-07
-3.35816e-08
1.33991e-07
1.12503e-09
1.33577e-07
7.9576e-09
1.44847e-07
-8.33034e-09
6.4321e-08
-1.86647e-08
1.17435e-07
3.56136e-08
8.52417e-08
5.27601e-09
8.4993e-08
1.67189e-10
7.28267e-08
-2.63095e-08
1.16409e-07
-5.96188e-08
8.1875e-08
5.04244e-08
6.83919e-08
6.31248e-08
-1.4183e-08
7.54026e-08
4.26533e-07
1.44818e-07
-3.7847e-08
-1.04382e-07
3.70985e-08
-4.2795e-08
5.17272e-08
-9.31285e-10
3.50142e-08
-1.02032e-08
2.90867e-08
4.9048e-09
2.59722e-08
1.38415e-08
4.84418e-08
4.09915e-08
8.30327e-08
6.4881e-08
1.01225e-08
3.4885e-08
-1.04631e-08
5.46011e-08
4.43277e-08
5.97778e-08
3.53113e-08
1.98986e-08
-6.12825e-08
3.226e-08
7.46015e-09
-1.42531e-08
-3.52554e-08
-2.05124e-08
-3.71937e-08
-1.24804e-08
-3.37017e-08
-1.34538e-08
-3.15939e-08
-1.53136e-08
-3.09112e-08
-1.04941e-08
-3.09742e-08
-8.95007e-09
-3.04202e-08
-1.05717e-08
-3.01232e-08
-9.42484e-09
-3.09717e-08
-8.43159e-09
-3.35554e-08
-4.23596e-09
-3.79715e-08
-2.03636e-09
-4.28468e-08
-7.96191e-10
-4.58019e-08
-3.126e-09
-4.59035e-08
-6.1972e-09
-4.42304e-08
-7.61546e-09
-4.19086e-08
-7.79578e-09
-3.93723e-08
-7.14487e-09
-3.64514e-08
-7.46007e-09
-3.16252e-08
-9.90128e-09
-2.37236e-08
-1.42445e-08
-1.29586e-08
-1.86284e-08
-5.12782e-10
-2.1532e-08
1.21152e-08
-2.18858e-08
2.2279e-08
-1.71701e-08
2.66473e-08
-5.78901e-09
2.2609e-08
1.06175e-08
1.09056e-08
2.40334e-08
-5.10291e-09
3.06863e-08
-2.20581e-08
3.17712e-08
-3.39461e-08
2.55673e-08
-3.94473e-08
1.94343e-08
-4.14655e-08
1.39716e-08
3.28299e-09
5.17071e-08
-5.54968e-08
-3.95327e-09
6.74438e-08
1.17537e-08
5.72061e-09
2.63712e-08
-5.19756e-09
4.84422e-08
-6.82233e-09
5.46213e-08
4.02013e-08
1.09406e-07
3.03479e-08
4.92715e-08
1.73601e-08
6.52873e-08
-1.30689e-08
5.72381e-08
1.19826e-08
7.34146e-08
-1.70617e-08
6.81094e-08
-1.71304e-08
1.05497e-07
-7.25596e-08
6.02752e-08
3.12677e-08
8.18308e-08
-5.54334e-08
2.49727e-08
5.79947e-08
1.72858e-08
1.55662e-08
-5.78874e-09
1.47704e-08
-5.3162e-08
2.84126e-08
-2.72532e-08
1.02527e-08
-3.25791e-08
1.12123e-08
-5.39202e-08
2.15083e-08
-1.04664e-07
2.33775e-08
1.19171e-07
5.68678e-08
-1.07119e-07
-6.65007e-08
-5.22625e-08
9.47143e-09
-3.61872e-08
5.85501e-08
4.60983e-08
5.8597e-08
-3.23577e-08
-2.59261e-08
-4.28847e-08
-3.30347e-08
-4.73706e-08
3.03096e-09
-6.67922e-08
9.21846e-09
-6.2154e-08
3.64015e-10
-8.88104e-08
4.07756e-08
-7.64063e-08
2.8714e-08
-6.21834e-08
5.01414e-08
-6.82821e-08
4.18874e-08
-5.68466e-08
4.33025e-08
-3.63861e-08
3.87197e-08
-5.14698e-08
3.45845e-08
-2.42541e-08
5.04443e-09
-3.49948e-08
-3.51239e-09
-4.45411e-08
-1.09661e-08
-4.52266e-08
-1.17949e-08
-4.56104e-08
-1.307e-08
-4.81659e-08
-1.27581e-08
-4.75976e-08
-1.10623e-08
-4.67449e-08
-9.80284e-09
-4.68716e-08
-1.04449e-08
-4.72338e-08
-9.06267e-09
-4.96667e-08
-5.99872e-09
-5.40211e-08
1.18331e-10
-6.03771e-08
4.31969e-09
-6.68645e-08
5.69118e-09
-7.23314e-08
2.3408e-09
-7.55277e-08
-3.00088e-09
-7.70138e-08
-6.12938e-09
-7.79839e-08
-6.82572e-09
-7.82695e-08
-6.85929e-09
-7.65748e-08
-9.15479e-09
-7.13299e-08
-1.51461e-08
-6.33197e-08
-2.22547e-08
-5.52064e-08
-2.67416e-08
-4.8352e-08
-2.83863e-08
-4.34889e-08
-2.67487e-08
-4.17045e-08
-1.89544e-08
-4.35952e-08
-3.89821e-09
-4.82226e-08
1.52451e-08
-5.21757e-08
2.79865e-08
-5.40247e-08
3.25352e-08
-5.33623e-08
3.11088e-08
-5.0219e-08
2.24243e-08
-4.79687e-08
1.71844e-08
-4.53957e-08
1.13992e-08
1.50847e-09
1.84632e-07
7.01455e-08
-3.18701e-08
-5.42023e-08
-5.36196e-09
-2.10583e-08
7.59843e-09
-1.80286e-08
4.95277e-08
-4.82385e-08
3.58563e-09
8.57111e-08
2.59512e-09
3.16273e-08
-2.74495e-08
4.72011e-08
-5.07385e-08
1.01907e-08
-4.07291e-08
1.97317e-09
-4.74886e-08
-1.05842e-08
-1.08268e-07
4.20436e-08
9.60716e-08
6.91704e-08
-1.69771e-07
-4.80283e-08
6.7596e-08
5.39898e-08
-1.47077e-07
-6.90175e-08
-9.26272e-08
-3.88837e-08
-8.49369e-08
6.8594e-09
-7.61996e-08
1.93855e-08
-9.8892e-08
3.28405e-08
-9.48326e-08
7.22661e-09
-9.56492e-08
2.35201e-08
-7.78901e-08
5.6184e-09
-1.97595e-08
-2.05741e-09
-2.76317e-08
-5.85474e-08
-6.66518e-08
4.84916e-08
-3.52229e-08
2.61646e-08
-9.25168e-08
1.48575e-09
-1.66102e-08
1.19627e-08
-5.0666e-08
1.52255e-09
-4.74998e-08
-1.33916e-10
-6.62887e-08
2.71518e-08
-8.33123e-08
1.67082e-08
-7.98089e-08
3.6852e-08
-6.88773e-08
1.92992e-08
-6.10244e-08
4.23985e-08
-5.3706e-08
3.41502e-08
-4.13256e-08
3.09221e-08
-3.24415e-08
2.98357e-08
-2.19727e-08
2.41157e-08
-2.62695e-08
9.34121e-09
-3.11066e-08
1.32477e-09
-3.63817e-08
-5.69101e-09
-3.99445e-08
-8.23209e-09
-4.24115e-08
-1.0603e-08
-4.41025e-08
-1.10672e-08
-4.46305e-08
-1.05343e-08
-4.45736e-08
-9.85975e-09
-4.56237e-08
-9.39484e-09
-4.73591e-08
-7.32733e-09
-5.03979e-08
-2.95998e-09
-5.4239e-08
3.9594e-09
-5.999e-08
1.00707e-08
-6.68242e-08
1.25253e-08
-7.45164e-08
1.0033e-08
-8.15669e-08
4.04955e-09
-8.64314e-08
-1.26488e-09
-8.91848e-08
-4.07235e-09
-8.99529e-08
-6.09123e-09
-8.77933e-08
-1.13143e-08
-8.1921e-08
-2.10185e-08
-7.59492e-08
-2.82265e-08
-7.20592e-08
-3.06315e-08
-7.01348e-08
-3.03107e-08
-7.16775e-08
-2.52059e-08
-7.64279e-08
-1.42039e-08
-8.03993e-08
7.32881e-11
-7.97523e-08
1.45983e-08
-7.53833e-08
2.36175e-08
-6.88872e-08
2.60392e-08
-6.0365e-08
2.25868e-08
-5.43217e-08
1.63813e-08
-5.06687e-08
1.35319e-08
-4.75843e-08
8.31537e-09
1.188e-10
5.51852e-08
1.60506e-08
1.32204e-08
-1.27909e-08
8.20378e-10
-8.66697e-09
-2.15726e-08
4.14034e-09
1.82266e-07
8.55571e-08
-3.76188e-08
-3.19328e-08
-2.33731e-08
1.66679e-08
-8.25748e-09
3.22396e-08
-1.29437e-07
1.69651e-08
-5.84582e-08
4.49564e-08
-1.04502e-07
3.43823e-08
-7.20795e-08
1.14413e-08
-3.46796e-08
3.11013e-08
-8.783e-08
4.76836e-09
-3.1356e-08
-3.58576e-09
-7.90574e-08
-2.13161e-08
-2.03548e-08
-9.73787e-08
-2.23464e-08
8.85103e-09
-8.41278e-08
8.0939e-08
9.14655e-09
-6.03406e-08
-1.34092e-07
3.60599e-08
-4.32915e-08
4.73257e-08
-6.54997e-08
2.78839e-08
-1.00218e-07
3.16389e-08
1.11105e-07
7.33447e-08
-1.21266e-07
-5.99855e-08
-8.07655e-08
-1.43354e-08
-7.73213e-08
-1.18479e-09
-4.687e-08
-1.80153e-08
-3.66765e-08
-8.77384e-09
-3.10313e-08
-5.83744e-09
-2.64955e-08
2.20351e-08
-3.24647e-08
2.24044e-08
-3.86081e-08
4.25169e-08
-5.0613e-08
3.13042e-08
-4.4676e-08
3.69726e-08
-3.51559e-08
2.50767e-08
-3.19033e-08
2.76696e-08
-2.50172e-08
2.29497e-08
-1.765e-08
1.67485e-08
-1.61252e-08
7.81644e-09
-1.65985e-08
1.79811e-09
-1.93622e-08
-2.92731e-09
-2.14943e-08
-6.09999e-09
-2.38629e-08
-8.23444e-09
-2.58723e-08
-9.05781e-09
-2.74373e-08
-8.96925e-09
-2.93924e-08
-7.90469e-09
-3.22095e-08
-6.57783e-09
-3.62184e-08
-3.31839e-09
-4.10992e-08
1.92077e-09
-4.58158e-08
8.67596e-09
-5.11281e-08
1.53829e-08
-5.75703e-08
1.89674e-08
-6.55584e-08
1.80212e-08
-7.43942e-08
1.28853e-08
-8.23447e-08
6.68559e-09
-8.73344e-08
9.17297e-10
-8.84017e-08
-5.02391e-09
-8.55032e-08
-1.42128e-08
-8.04477e-08
-2.6074e-08
-7.71687e-08
-3.15055e-08
-7.51761e-08
-3.26241e-08
-7.5169e-08
-3.03177e-08
-7.88005e-08
-2.15744e-08
-8.36779e-08
-9.32643e-09
-8.55781e-08
1.97367e-09
-8.20887e-08
1.11089e-08
-7.52904e-08
1.68193e-08
-6.70521e-08
1.7801e-08
-5.94286e-08
1.49634e-08
-5.47018e-08
1.16547e-08
-5.11618e-08
9.99258e-09
-4.88117e-08
5.96584e-09
-4.33852e-10
1.07153e-08
-2.61539e-08
1.16611e-08
-1.37372e-08
-6.71682e-09
9.98285e-09
-1.98656e-08
1.75075e-08
2.5852e-08
4.00453e-08
-1.87888e-08
1.25097e-08
-5.20903e-08
5.03125e-08
-5.13413e-08
3.14906e-08
-8.97801e-08
5.52308e-08
-8.27846e-08
3.75775e-08
-8.13113e-08
3.25583e-08
-9.07428e-08
2.0756e-08
-6.75475e-08
8.2232e-09
-7.70318e-08
1.42527e-08
-7.33926e-08
-7.22501e-09
-1.25103e-07
3.00873e-08
3.88994e-08
7.91407e-08
7.39854e-08
-2.61448e-08
-2.24342e-07
-7.36864e-08
1.41413e-07
2.68574e-08
-1.66226e-07
-1.09622e-07
-5.62368e-08
5.00639e-08
-5.77534e-08
2.94005e-08
-6.30665e-08
3.6952e-08
-2.02571e-08
2.9787e-08
-7.24304e-08
-7.8122e-09
-7.59515e-08
-1.08142e-08
-6.5979e-08
-1.12723e-08
-6.39916e-08
-2.01864e-08
-5.4432e-08
-1.86128e-08
-6.85527e-08
8.22373e-09
-6.12396e-08
1.49468e-08
-6.37713e-08
2.53581e-08
-3.70563e-08
1.5644e-08
-3.56266e-08
2.98599e-08
-2.69262e-08
2.82588e-08
-2.9071e-08
2.72215e-08
-2.16689e-08
2.02676e-08
-1.70857e-08
1.83665e-08
-1.2619e-08
1.22818e-08
-1.15159e-08
6.71335e-09
-1.13856e-08
1.66786e-09
-1.32634e-08
-1.04944e-09
-1.51561e-08
-4.2073e-09
-1.77474e-08
-5.6432e-09
-2.01435e-08
-6.66167e-09
-2.25069e-08
-6.6059e-09
-2.48361e-08
-5.5755e-09
-2.79024e-08
-3.51154e-09
-3.17423e-08
5.21416e-10
-3.58829e-08
6.06142e-09
-3.95227e-08
1.23157e-08
-4.26433e-08
1.85035e-08
-4.56225e-08
2.19466e-08
-4.98834e-08
2.22821e-08
-5.59453e-08
1.89471e-08
-6.23647e-08
1.3105e-08
-6.76985e-08
6.25114e-09
-7.06389e-08
-2.08351e-09
-7.05746e-08
-1.42772e-08
-6.91957e-08
-2.74528e-08
-6.85757e-08
-3.21256e-08
-6.87075e-08
-3.24923e-08
-7.10317e-08
-2.79933e-08
-7.51895e-08
-1.74165e-08
-7.8357e-08
-6.15881e-09
-7.82228e-08
1.83955e-09
-7.43637e-08
7.24992e-09
-6.81925e-08
1.06482e-08
-6.19452e-08
1.15538e-08
-5.72965e-08
1.03149e-08
-5.40082e-08
8.36673e-09
-5.12193e-08
7.20432e-09
-4.96185e-08
4.36554e-09
-5.20178e-10
-7.88522e-08
2.15035e-08
-9.74532e-08
2.90452e-09
-1.32485e-07
4.36348e-08
-2.56771e-07
2.76529e-08
-1.38459e-07
3.69766e-08
-1.43847e-07
1.78423e-08
-1.33176e-07
4.07047e-08
-1.20387e-07
2.00602e-08
-1.1392e-07
4.99254e-08
-8.44722e-08
8.04845e-09
-7.35656e-08
2.07899e-08
-7.42413e-08
2.14317e-08
-7.01594e-08
4.14121e-09
-6.19357e-08
6.02902e-09
-8.22829e-08
1.38205e-08
-5.1089e-08
-1.63913e-09
-9.1139e-08
4.25898e-09
-1.27582e-08
9.64224e-09
-1.03682e-07
1.72377e-08
-7.10415e-08
-5.72495e-09
8.89833e-08
6.916e-08
-1.24097e-07
-7.31393e-08
-7.43072e-08
-2.16553e-08
-4.98681e-08
1.23865e-08
-3.97239e-08
1.96429e-08
-6.00448e-08
1.25087e-08
-7.75478e-08
5.89775e-09
-9.46022e-08
5.78211e-09
-1.03881e-07
-1.10022e-08
-6.4888e-08
-5.82057e-08
-1.14397e-07
5.8395e-08
-1.17676e-07
1.82256e-08
-1.00539e-07
9.2468e-09
-8.14209e-08
-3.34987e-09
-8.56442e-08
3.37817e-08
-6.65143e-08
9.98525e-09
-5.20686e-08
1.27758e-08
-4.54451e-08
1.36441e-08
-4.07984e-08
1.37199e-08
-3.83777e-08
9.86103e-09
-3.77691e-08
6.1048e-09
-3.75356e-08
1.43434e-09
-3.76837e-08
-9.01303e-10
-3.80338e-08
-3.85724e-09
-3.89666e-08
-4.71037e-09
-4.03283e-08
-5.3e-09
-4.11596e-08
-5.77462e-09
-4.15274e-08
-5.20764e-09
-4.18388e-08
-3.20021e-09
-4.22289e-08
9.11461e-10
-4.25087e-08
6.34124e-09
-4.27667e-08
1.25736e-08
-4.23971e-08
1.81339e-08
-4.16583e-08
2.12077e-08
-4.10544e-08
2.16783e-08
-4.16635e-08
1.95562e-08
-4.3774e-08
1.52154e-08
-4.70366e-08
9.51371e-09
-5.08514e-08
1.73132e-09
-5.48436e-08
-1.0285e-08
-5.83522e-08
-2.39442e-08
-6.06502e-08
-2.98275e-08
-6.30012e-08
-3.01413e-08
-6.60655e-08
-2.49289e-08
-6.90719e-08
-1.441e-08
-7.04447e-08
-4.78595e-09
-6.93306e-08
7.25538e-10
-6.62498e-08
4.16923e-09
-6.24465e-08
6.845e-09
-5.88334e-08
7.9408e-09
-5.57953e-08
7.27706e-09
-5.34749e-08
6.04664e-09
-5.14567e-08
5.18672e-09
-5.02902e-08
3.19957e-09
-4.80248e-10
-1.67884e-07
4.34906e-08
-2.04609e-07
4.13594e-08
-1.88439e-07
2.8662e-08
-2.94386e-07
2.30829e-08
-1.57801e-07
1.19907e-08
-1.55014e-07
1.48452e-08
-1.3408e-07
1.91662e-08
-1.28492e-07
1.31041e-08
-1.07325e-07
2.98531e-08
-9.70577e-08
-2.13742e-09
-1.04265e-07
2.70069e-08
-8.29169e-08
8.27394e-11
-6.81181e-08
-1.06576e-08
-7.44708e-08
1.31415e-08
-6.47309e-08
3.46181e-09
-6.99715e-08
2.91737e-09
-7.06058e-08
5.56375e-09
-8.5765e-08
2.48014e-08
-6.66834e-08
-1.1519e-09
-5.52188e-08
-1.73648e-08
-3.30915e-09
1.65184e-08
-4.81799e-08
-2.90148e-08
-6.13595e-08
-7.84965e-09
-4.99322e-08
9.49645e-10
-4.45704e-08
1.37717e-08
-4.92701e-08
1.70346e-08
-5.47521e-08
1.12649e-08
-6.66369e-08
1.7608e-08
-1.09625e-07
3.08671e-08
1.0429e-07
7.16953e-08
-1.41852e-07
-3.62411e-08
-1.14327e-07
-9.29909e-09
-1.4314e-07
3.65996e-08
-1.43516e-07
-1.52945e-09
-1.02619e-07
-4.67695e-09
-9.66043e-08
3.97058e-09
-8.68327e-08
3.00423e-09
-8.15952e-08
8.40664e-09
-7.64695e-08
8.59428e-09
-7.25963e-08
5.98787e-09
-6.97054e-08
3.21388e-09
-6.81279e-08
-1.4315e-10
-6.68045e-08
-2.22471e-09
-6.64411e-08
-4.22063e-09
-6.63928e-08
-4.75869e-09
-6.67081e-08
-4.98474e-09
-6.68956e-08
-5.58712e-09
-6.67897e-08
-5.31351e-09
-6.64712e-08
-3.51875e-09
-6.49359e-08
-6.23876e-10
-6.13057e-08
2.71106e-09
-5.60075e-08
7.27531e-09
-4.97281e-08
1.18545e-08
-4.38602e-08
1.53399e-08
-3.92297e-08
1.70477e-08
-3.58215e-08
1.6148e-08
-3.43041e-08
1.3698e-08
-3.52191e-08
1.04287e-08
-3.8632e-08
5.14421e-09
-4.45132e-08
-4.40377e-09
-5.14683e-08
-1.69892e-08
-5.61386e-08
-2.51572e-08
-5.948e-08
-2.67998e-08
-6.19016e-08
-2.25074e-08
-6.37835e-08
-1.25281e-08
-6.4276e-08
-4.29331e-09
-6.31977e-08
-3.52725e-10
-6.13021e-08
2.2738e-09
-5.91043e-08
4.64729e-09
-5.68717e-08
5.70826e-09
-5.47933e-08
5.19886e-09
-5.31136e-08
4.36727e-09
-5.16688e-08
3.74256e-09
-5.0802e-08
2.33335e-09
-4.15359e-10
-1.96038e-07
4.17007e-08
-1.70653e-07
1.95517e-08
-1.54309e-07
1.23181e-08
-1.42266e-07
1.24906e-08
-1.22012e-07
-8.0612e-09
-1.28436e-07
2.13348e-08
-1.16728e-07
7.57573e-09
-1.07516e-07
2.70069e-09
-8.10809e-08
3.38375e-09
-8.42446e-08
1.0044e-09
-1.61722e-07
-7.10407e-09
-6.74378e-08
1.77143e-08
-1.03968e-07
2.54438e-08
-8.51226e-08
-6.57188e-09
-7.38295e-08
-7.79567e-09
-8.0871e-08
1.06823e-08
-7.64492e-08
1.15368e-09
-1.4702e-07
-1.63662e-08
-4.27595e-08
6.25059e-09
-8.03335e-08
2.02091e-08
-3.95313e-08
-2.34725e-08
-6.06694e-08
-8.27997e-09
-5.68829e-08
-1.09442e-08
-4.12735e-08
-1.46501e-08
-2.98497e-08
2.2313e-09
-2.58123e-08
1.31253e-08
-2.14461e-08
6.70579e-09
-2.06255e-08
1.65686e-08
-1.73277e-08
2.72909e-08
2.66069e-08
2.70293e-08
-3.13395e-08
2.14861e-08
-4.62846e-08
5.58904e-09
-3.64511e-08
2.64958e-08
-5.65023e-08
1.7961e-08
-6.27138e-08
2.15498e-09
-4.2571e-08
-1.50689e-08
-5.36068e-08
1.41819e-08
-5.28911e-08
7.69102e-09
-4.92338e-08
4.93698e-09
-4.75373e-08
4.2914e-09
-4.70856e-08
2.76222e-09
-4.83336e-08
1.10483e-09
-5.06633e-08
1.05025e-10
-5.30822e-08
-1.80176e-09
-5.53605e-08
-2.48036e-09
-5.75163e-08
-2.82903e-09
-6.0386e-08
-2.71735e-09
-6.36905e-08
-2.00903e-09
-6.69366e-08
-2.72749e-10
-6.85182e-08
9.57762e-10
-6.76815e-08
1.87438e-09
-6.36686e-08
3.26238e-09
-5.68099e-08
4.99575e-09
-4.80532e-08
6.58311e-09
-3.90715e-08
8.06601e-09
-3.15562e-08
8.63273e-09
-2.69778e-08
9.11961e-09
-2.58448e-08
9.29567e-09
-2.81663e-08
7.46576e-09
-3.41967e-08
1.62656e-09
-4.2494e-08
-8.69185e-09
-4.91327e-08
-1.85185e-08
-5.31961e-08
-2.27364e-08
-5.63937e-08
-1.93097e-08
-5.89145e-08
-1.00072e-08
-5.98561e-08
-3.35159e-09
-5.97071e-08
-5.01606e-10
-5.87477e-08
1.3145e-09
-5.72567e-08
3.15638e-09
-5.56547e-08
4.1063e-09
-5.41408e-08
3.68514e-09
-5.28836e-08
3.11041e-09
-5.18229e-08
2.68248e-09
-5.11716e-08
1.68267e-09
-3.4576e-10
-1.30577e-07
-1.78224e-08
-1.18372e-07
6.07626e-09
-1.2414e-07
1.80859e-08
-1.03564e-07
-7.02923e-09
-4.16952e-08
-7.00114e-08
-1.66009e-07
3.36791e-08
-8.68864e-08
4.02175e-08
-8.96405e-08
5.48292e-09
-7.09109e-08
-1.53459e-08
-8.30614e-08
1.24315e-08
-9.1546e-08
2.29102e-09
-5.05749e-08
-2.35887e-08
-1.4987e-07
9.7126e-09
-6.39731e-08
2.22979e-08
-1.05506e-07
3.38169e-08
-7.12978e-08
-2.40085e-08
-1.02528e-07
-8.20216e-08
-9.00925e-08
8.63637e-08
-8.81457e-08
5.32104e-09
-7.97634e-08
1.16228e-08
-8.81666e-08
-1.62887e-08
-5.58151e-08
-3.96575e-08
-4.28582e-08
-2.39011e-08
-4.73146e-08
-1.07803e-08
-4.82756e-08
3.68472e-09
-4.65932e-08
1.0994e-08
-5.06722e-08
1.03737e-08
-4.20998e-08
8.85227e-09
-1.5118e-08
3.09138e-10
1.06954e-08
9.52604e-10
4.65318e-09
2.72066e-08
-8.19797e-09
1.857e-08
6.49384e-09
1.17212e-08
2.01667e-08
4.51404e-09
-9.14489e-09
3.14444e-08
-3.70767e-08
1.29345e-08
-4.50146e-08
2.24942e-08
-4.6847e-08
1.00742e-08
-5.12696e-08
9.35953e-09
-5.23721e-08
5.39399e-09
-5.37679e-08
4.15798e-09
-5.54699e-08
2.80682e-09
-5.67306e-08
1.36579e-09
-5.81289e-08
-4.03455e-10
-5.94614e-08
-1.14791e-09
-6.07977e-08
-1.49274e-09
-6.28397e-08
-6.75299e-10
-6.52764e-08
4.27616e-10
-6.69925e-08
1.44333e-09
-6.73798e-08
1.34504e-09
-6.58564e-08
3.51008e-10
-6.14498e-08
-1.14422e-09
-5.39862e-08
-2.46788e-09
-4.41839e-08
-3.21923e-09
-3.33441e-08
-2.77375e-09
-2.34126e-08
-1.29882e-09
-1.63509e-08
2.05788e-09
-1.30091e-08
5.95391e-09
-1.30163e-08
7.47301e-09
-1.65647e-08
5.17495e-09
-2.39522e-08
-1.30439e-09
-3.31024e-08
-9.36828e-09
-4.1894e-08
-1.39447e-08
-4.95414e-08
-1.16622e-08
-5.42736e-08
-5.27499e-09
-5.63467e-08
-1.27838e-09
-5.71237e-08
2.75522e-10
-5.69597e-08
1.15055e-09
-5.59969e-08
2.19372e-09
-5.47314e-08
2.8409e-09
-5.36172e-08
2.57114e-09
-5.26961e-08
2.18966e-09
-5.19106e-08
1.89758e-09
-5.14281e-08
1.20074e-09
-2.75366e-10
-8.70936e-08
-7.39678e-08
-1.63225e-07
8.1309e-08
-1.49053e-07
5.63647e-09
-1.68824e-07
1.27414e-08
5.1794e-08
4.88695e-08
-2.04113e-07
-4.80461e-08
-1.15818e-07
-4.76712e-08
-1.07061e-07
-4.45558e-09
-9.56257e-08
-2.72156e-08
-7.97436e-08
-2.61059e-09
-5.99515e-08
-1.7501e-08
-6.05734e-08
-2.32011e-08
-6.49705e-08
1.38715e-08
-7.26179e-09
-3.60736e-08
-8.18145e-08
-4.03381e-09
-4.95921e-08
5.58637e-08
9.91919e-08
1.10251e-07
-1.11553e-07
-4.72568e-08
-1.04908e-07
-1.74343e-10
-6.49088e-08
-2.78497e-08
-1.61585e-07
-3.23522e-08
-6.12143e-08
-2.65703e-08
-4.65321e-08
-3.94517e-08
-4.72506e-08
-1.00618e-08
-5.90493e-08
1.60858e-08
-5.77739e-08
9.73135e-09
-5.80577e-08
1.04479e-08
-5.1252e-08
2.04658e-09
-3.4818e-08
-1.66445e-08
2.14524e-08
-5.61091e-08
-1.39689e-08
6.22738e-08
-2.23265e-08
2.67021e-08
-1.33308e-08
2.98115e-09
3.41697e-08
-4.3425e-08
-1.31132e-08
7.86214e-08
-4.16192e-08
4.18695e-08
-5.06081e-08
3.2229e-08
-5.95087e-08
1.89748e-08
-6.02006e-08
1.06465e-08
-5.88544e-08
4.04777e-09
-5.94181e-08
4.72167e-09
-6.27158e-08
6.10454e-09
-6.60422e-08
4.69224e-09
-6.84425e-08
1.99679e-09
-7.01899e-08
5.99539e-10
-7.13709e-08
-3.11716e-10
-7.20281e-08
-1.81068e-11
-7.22573e-08
6.56735e-10
-7.14151e-08
6.01182e-10
-6.91949e-08
-8.75233e-10
-6.50109e-08
-3.83298e-09
-5.79223e-08
-8.23279e-09
-4.82433e-08
-1.21469e-08
-3.73542e-08
-1.41083e-08
-2.67777e-08
-1.33503e-08
-1.74865e-08
-1.059e-08
-1.05709e-08
-4.85772e-09
-6.98325e-09
2.36622e-09
-6.64437e-09
7.13413e-09
-9.33296e-09
7.86354e-09
-1.52068e-08
4.56948e-09
-2.47137e-08
1.38647e-10
-3.67074e-08
-1.95105e-09
-4.74279e-08
-9.41729e-10
-5.33178e-08
6.15072e-10
-5.5599e-08
1.00283e-09
-5.63021e-08
9.78727e-10
-5.62106e-08
1.05913e-09
-5.53667e-08
1.34988e-09
-5.41679e-08
1.64228e-09
-5.32446e-08
1.64796e-09
-5.25618e-08
1.50722e-09
-5.1969e-08
1.30544e-09
-5.16074e-08
8.39691e-10
-2.10614e-10
6.58458e-08
5.18339e-08
-1.47522e-07
-4.7559e-08
-1.19352e-07
-2.23039e-08
-9.0383e-08
-1.59322e-08
-4.16915e-08
1.7784e-10
-6.81367e-08
-2.13938e-08
-7.52028e-08
-4.10914e-08
-5.00159e-08
-3.04636e-08
-7.18924e-08
-4.59814e-09
-5.13925e-08
-2.23845e-08
-4.49633e-08
-2.48869e-08
-5.82515e-08
-9.41469e-09
-4.30295e-08
-1.21043e-09
-5.77011e-08
-2.1841e-08
-2.1703e-08
-4.00319e-08
-4.19991e-08
7.59548e-08
1.43321e-08
5.39201e-08
-4.03911e-08
7.94862e-09
-5.18376e-08
1.12739e-08
-6.62774e-08
-1.34099e-08
-9.49577e-08
-4.31053e-09
-7.83269e-08
-4.3475e-08
-2.46855e-08
-9.32453e-08
-1.33388e-08
-2.14085e-08
-6.77997e-08
7.0519e-08
-5.79557e-08
5.70838e-10
-5.00775e-08
1.98454e-09
-4.9352e-08
8.227e-10
-8.47827e-08
1.79213e-08
1.33872e-07
6.70725e-08
-8.68698e-08
-5.31142e-08
-5.96697e-08
-1.3753e-09
-8.95957e-08
3.10675e-08
1.36546e-07
7.3201e-08
-9.82146e-08
-2.77248e-08
-7.5688e-08
1.79604e-08
-6.66664e-08
2.39796e-08
-6.73214e-08
2.07731e-08
-7.3388e-08
1.67131e-08
-7.75499e-08
8.20965e-09
-8.17858e-08
8.95755e-09
-8.36731e-08
7.9919e-09
-8.4433e-08
5.45216e-09
-8.48477e-08
2.41141e-09
-8.43556e-08
1.07446e-10
-8.35179e-08
-1.14936e-09
-8.14251e-08
-2.11091e-09
-7.89371e-08
-1.83128e-09
-7.53399e-08
-2.99606e-09
-6.97894e-08
-6.42577e-09
-6.21829e-08
-1.14394e-08
-5.35155e-08
-1.69002e-08
-4.41971e-08
-2.14653e-08
-3.44825e-08
-2.38229e-08
-2.50009e-08
-2.28319e-08
-1.69454e-08
-1.86454e-08
-1.13061e-08
-1.04971e-08
-8.672e-09
-2.67837e-10
-9.93894e-09
8.40108e-09
-1.42562e-08
1.21808e-08
-2.13203e-08
1.16336e-08
-3.12203e-08
1.00387e-08
-4.19455e-08
8.77415e-09
-4.97376e-08
6.85047e-09
-5.35147e-08
4.39216e-09
-5.50533e-08
2.5415e-09
-5.55166e-08
1.44216e-09
-5.53169e-08
8.59547e-10
-5.45974e-08
6.30411e-10
-5.36803e-08
7.25275e-10
-5.29755e-08
9.43391e-10
-5.24448e-08
9.76824e-10
-5.19946e-08
8.5581e-10
-5.17258e-08
5.71462e-10
-1.51487e-10
1.37543e-07
9.01792e-09
9.84365e-08
-9.44692e-09
8.43574e-08
-7.07712e-09
7.29373e-08
-3.68941e-09
7.94649e-08
-5.54096e-09
5.934e-08
-1.26895e-09
2.80488e-08
-1.00173e-08
3.03259e-09
-5.44737e-09
-1.24716e-08
1.0922e-08
-2.83892e-08
-7.05689e-09
-4.88516e-08
-4.97934e-09
-8.1174e-08
2.34112e-08
-7.81777e-08
-3.39102e-09
-1.24289e-07
2.42707e-08
1.13866e-07
6.03655e-08
-1.11582e-07
-3.48809e-08
-6.74848e-08
8.68456e-09
-6.79736e-08
8.4374e-09
-5.91437e-08
2.444e-09
-7.07745e-08
-1.7791e-09
-7.65627e-08
1.47768e-09
-1.24149e-07
3.28858e-09
6.9618e-08
5.56297e-08
7.24108e-08
-2.59146e-08
-1.06784e-07
-8.65693e-08
-6.92386e-08
-3.80586e-08
-5.65405e-08
-1.01165e-08
-4.93151e-08
-6.46809e-09
-3.69943e-08
5.04594e-09
2.84863e-08
8.9856e-10
-9.99662e-09
-1.51731e-08
-9.7344e-09
-1.55222e-09
-2.65056e-09
2.39836e-08
4.93151e-08
2.06724e-08
-3.96894e-09
2.55997e-08
-9.19719e-09
2.35191e-08
-1.7127e-08
3.14299e-08
-2.70168e-08
3.0663e-08
-4.52181e-08
3.49144e-08
-6.73043e-08
3.02959e-08
-7.93004e-08
2.09537e-08
-8.37605e-08
1.2452e-08
-8.48477e-08
6.53942e-09
-8.46869e-08
2.2506e-09
-8.32426e-08
-1.33687e-09
-8.12707e-08
-3.12123e-09
-7.79306e-08
-5.4511e-09
-7.36045e-08
-6.1574e-09
-6.82903e-08
-8.31018e-09
-6.21877e-08
-1.25284e-08
-5.58409e-08
-1.77861e-08
-5.11529e-08
-2.15882e-08
-4.68805e-08
-2.57378e-08
-4.2499e-08
-2.82043e-08
-3.73452e-08
-2.79858e-08
-3.18395e-08
-2.41511e-08
-2.68747e-08
-1.54619e-08
-2.41122e-08
-3.03032e-09
-2.5615e-08
9.90387e-09
-3.0861e-08
1.74268e-08
-3.85691e-08
1.93417e-08
-4.68503e-08
1.83198e-08
-5.25878e-08
1.45117e-08
-5.44195e-08
8.68223e-09
-5.45351e-08
4.50776e-09
-5.46363e-08
2.64286e-09
-5.4749e-08
1.55491e-09
-5.45045e-08
6.15163e-10
-5.39718e-08
9.77827e-11
-5.33239e-08
7.7439e-11
-5.27869e-08
4.06545e-10
-5.23574e-08
5.47683e-10
-5.20139e-08
5.12903e-10
-5.18074e-08
3.65536e-10
-1.03497e-10
-1.33857e-08
7.39109e-08
-1.86203e-08
-4.45365e-09
-4.33344e-09
-2.14819e-08
-1.26292e-07
3.90796e-09
-4.03282e-08
2.30221e-08
-5.87493e-08
1.7585e-08
-6.20851e-08
-6.68152e-09
-7.598e-08
7.95076e-09
-7.09005e-08
5.11923e-09
-8.75495e-08
8.6897e-09
-9.73467e-08
5.83161e-09
-9.11256e-08
1.79444e-08
-9.36288e-08
-8.87735e-10
-9.8788e-08
2.94299e-08
-4.34223e-08
5.05132e-09
-9.02904e-08
1.16314e-08
-7.85331e-08
-3.07272e-09
-8.15207e-08
1.14249e-08
-7.95401e-08
4.5877e-10
-7.90732e-08
-2.24606e-09
-6.81315e-08
-9.46399e-09
-6.5387e-08
1.21119e-09
2.49697e-09
-1.27909e-08
5.95793e-09
-2.93498e-08
-4.47651e-08
-3.67902e-08
-7.05089e-08
-1.23148e-08
-7.41748e-08
-7.20733e-09
-6.93398e-08
-1.05463e-08
-4.08859e-08
-2.22948e-08
-1.66811e-08
-2.39611e-08
-3.38658e-08
1.86033e-09
-4.16238e-08
6.20585e-09
-4.68207e-08
2.89475e-08
-5.37415e-08
2.78807e-08
-6.23553e-08
3.3781e-08
-7.06842e-08
3.24842e-08
-6.6397e-08
2.85561e-08
-6.1576e-08
2.5842e-08
-5.5537e-08
2.88754e-08
-5.12403e-08
2.59991e-08
-4.39796e-08
1.3693e-08
-3.77846e-08
6.25693e-09
-3.49522e-08
3.70702e-09
-3.4761e-08
2.05946e-09
-3.66313e-08
5.33438e-10
-3.92966e-08
-4.55918e-10
-4.25144e-08
-2.23338e-09
-4.44839e-08
-4.18782e-09
-4.57927e-08
-7.00139e-09
-4.71002e-08
-1.1221e-08
-4.93605e-08
-1.55258e-08
-5.27626e-08
-1.81861e-08
-5.61907e-08
-2.23097e-08
-5.83249e-08
-2.60701e-08
-5.9048e-08
-2.72626e-08
-5.86713e-08
-2.45278e-08
-5.69936e-08
-1.71396e-08
-5.49764e-08
-5.04748e-09
-5.47038e-08
9.63122e-09
-5.57773e-08
1.85004e-08
-5.74316e-08
2.0996e-08
-5.87805e-08
1.96687e-08
-5.82409e-08
1.39721e-08
-5.63932e-08
6.83457e-09
-5.51201e-08
3.23477e-09
-5.44321e-08
1.9549e-09
-5.41122e-08
1.23506e-09
-5.38019e-08
3.04991e-10
-5.33969e-08
-3.07075e-10
-5.29479e-08
-3.71503e-10
-5.25562e-08
1.50212e-11
-5.22479e-08
2.39776e-10
-5.1999e-08
2.6458e-10
-5.18516e-08
2.18712e-10
-6.1328e-11
-1.95765e-07
-6.22306e-08
-7.51414e-08
-1.29828e-08
-3.43162e-08
-6.28548e-08
-9.09712e-08
5.99117e-08
-7.23112e-08
5.04822e-09
-6.05777e-08
5.85144e-09
-7.62222e-08
7.49918e-09
-8.35596e-08
1.51322e-08
-8.75003e-08
9.91241e-09
-9.91881e-08
1.9277e-08
-1.04925e-07
1.13905e-08
-9.72324e-08
1.13227e-08
-1.02958e-07
4.88727e-09
-7.55333e-08
1.23507e-09
-9.52512e-08
2.50272e-08
-7.4623e-08
-8.10782e-09
-8.24172e-08
4.77018e-09
-7.59525e-08
5.67716e-09
-7.30918e-08
-2.40195e-09
-6.45942e-08
-1.14894e-08
-6.21671e-08
-1.18911e-08
-5.8006e-08
-2.94991e-09
-3.56431e-08
-3.52843e-08
2.27757e-08
-8.74692e-08
-4.07054e-08
2.66909e-08
-4.9215e-08
-3.80516e-09
-6.28373e-08
7.05601e-09
-6.96257e-08
-3.68874e-09
-7.21029e-08
-2.17124e-08
-3.26797e-08
-6.46342e-08
-9.28455e-08
6.2363e-08
-9.78131e-08
1.21207e-08
-1.10409e-07
4.00088e-08
-1.31762e-07
4.97914e-08
-1.13803e-07
1.81186e-08
-1.12834e-07
3.08659e-08
-9.48934e-08
1.06156e-08
-7.93026e-08
1.02512e-08
-6.27424e-08
1.23152e-08
-4.94945e-08
1.27512e-08
-3.89213e-08
3.11975e-09
-3.06282e-08
-2.03608e-09
-2.54209e-08
-1.50028e-09
-2.35576e-08
1.96135e-10
-2.39655e-08
9.41372e-10
-2.60731e-08
1.65168e-09
-2.97083e-08
1.40183e-09
-3.40507e-08
1.54566e-10
-3.91682e-08
-1.88389e-09
-4.49164e-08
-5.47275e-09
-5.16903e-08
-8.75192e-09
-5.78564e-08
-1.202e-08
-6.28033e-08
-1.73628e-08
-6.63673e-08
-2.2506e-08
-6.99192e-08
-2.37108e-08
-7.42347e-08
-2.02123e-08
-7.76102e-08
-1.37641e-08
-7.79779e-08
-4.67968e-09
-7.53147e-08
6.96796e-09
-7.22015e-08
1.53872e-08
-6.89389e-08
1.77335e-08
-6.4853e-08
1.55828e-08
-6.07376e-08
9.8567e-09
-5.77655e-08
3.86254e-09
-5.59039e-08
1.37321e-09
-5.46685e-08
7.19604e-10
-5.385e-08
4.16644e-10
-5.33422e-08
-2.02704e-10
-5.30212e-08
-6.27979e-10
-5.27361e-08
-6.5655e-10
-5.24396e-08
-2.81312e-10
-5.22044e-08
4.97715e-12
-5.20117e-08
7.24936e-11
-5.18879e-08
9.54333e-11
-3.54008e-11
-1.09544e-07
-1.60618e-09
-1.17831e-07
-4.82827e-09
1.11435e-07
4.59872e-08
-9.03626e-08
-7.44138e-08
-4.47227e-08
-4.15043e-08
-2.81669e-08
-1.11009e-08
-3.2589e-08
1.22537e-08
-3.05947e-08
1.28552e-08
-2.8241e-08
7.24661e-09
-3.18641e-08
2.29906e-08
-2.70555e-08
6.46683e-09
-3.29888e-08
1.66435e-08
-4.3176e-08
1.50745e-08
-6.73487e-08
2.54205e-08
-7.98125e-08
3.64104e-08
-9.24317e-08
4.38128e-09
-9.70455e-08
1.1455e-08
-8.68732e-08
-3.55099e-09
-9.59019e-08
5.71604e-09
-1.12921e-07
5.58673e-09
-9.00599e-08
-3.47522e-08
-7.52965e-08
-1.77134e-08
-9.89965e-08
-1.15843e-08
1.26219e-07
2.70293e-08
-1.05333e-07
-8.14713e-08
-3.70823e-08
-7.20557e-08
-1.00162e-07
6.84158e-08
-1.1422e-07
9.15414e-09
-1.66156e-07
2.99976e-08
6.2131e-08
5.32217e-08
-1.6216e-07
-5.48899e-08
-8.12845e-08
-6.86261e-08
-9.91799e-08
5.83168e-08
-9.66383e-08
4.62542e-08
-8.26765e-08
4.15677e-09
-6.56996e-08
1.3889e-08
-6.34729e-08
8.38887e-09
-5.94386e-08
6.2169e-09
-5.22948e-08
5.17139e-09
-4.3267e-08
3.72352e-09
-3.80948e-08
-2.05253e-09
-3.51665e-08
-4.9643e-09
-3.17546e-08
-4.91223e-09
-2.99453e-08
-1.61316e-09
-2.99392e-08
9.35313e-10
-3.13449e-08
3.05738e-09
-3.41847e-08
4.24163e-09
-3.83462e-08
4.31605e-09
-4.36994e-08
3.46937e-09
-5.00648e-08
8.92634e-10
-5.62184e-08
-2.59832e-09
-6.10062e-08
-7.23224e-09
-6.48115e-08
-1.35575e-08