/*--------------------------------*- C++ -*----------------------------------*\
  =========                 |
  \\      /  F ield         | OpenFOAM: The Open Source CFD Toolbox
   \\    /   O peration     | Website:  https://openfoam.org
    \\  /    A nd           | Version:  12
     \\/     M anipulation  |
\*---------------------------------------------------------------------------*/
FoamFile
{
    format      ascii;
    class       volVectorField;
    location    "0.85";
    object      U.water_0;
}
// * * * * * * * * * * * * * * * * * * * * * * * * * * * * * * * * * * * * * //

dimensions      [0 1 -1 0 0 0 0];

internalField   nonuniform List<vector> 
3750
(
(0.000544176 0.014346 0)
(2.13459e-05 0.0108878 0)
(0.00126282 0.0118449 0)
(-0.00100281 0.0109665 0)
(-8.88479e-05 0.00804015 0)
(-0.00073062 0.00992183 0)
(-0.00369107 0.0123841 0)
(0.00280821 0.0120199 0)
(-0.00133542 0.00728525 0)
(-0.000931579 0.00667664 0)
(-0.000241353 0.00743295 0)
(0.000431574 0.00711851 0)
(-0.000145794 0.00803076 0)
(0.000860905 0.00850149 0)
(-0.000632856 0.00973677 0)
(0.000815362 0.00944736 0)
(0.00100102 0.0096975 0)
(-4.21666e-05 0.00939981 0)
(-0.00126164 0.00605199 0)
(0.0017807 0.00785417 0)
(-0.00134718 0.00925545 0)
(0.000298837 0.00963858 0)
(-0.00148548 0.010965 0)
(0.000696869 0.0101273 0)
(0.00125174 0.0111654 0)
(0.0020643 0.00940728 0)
(-0.001313 0.0108448 0)
(-0.0064798 0.0179904 0)
(0.00435995 0.0172344 0)
(0.00106502 0.0100732 0)
(0.000525988 0.00739637 0)
(-0.000779537 0.00292812 0)
(0.00182463 0.00320311 0)
(-0.00100346 0.00329338 0)
(0.00354586 0.00116425 0)
(0.00493315 0.0142732 0)
(-0.00190628 0.0116663 0)
(0.00133616 -0.00501419 0)
(0.00530971 0.00356229 0)
(-0.00120328 0.0101449 0)
(-0.00116219 -0.0030536 0)
(0.00170078 -0.000497693 0)
(-0.00303108 -0.00214635 0)
(-5.18742e-07 -0.0109956 0)
(-0.000655007 -0.00974644 0)
(-0.00124424 -0.00956852 0)
(-0.00099391 -0.00856303 0)
(-0.000876864 -0.00706769 0)
(-0.000882846 -0.00576245 0)
(-0.000820563 -0.00517067 0)
(-0.000853791 -0.00399558 0)
(-0.000682077 -0.00340713 0)
(-0.000698381 -0.00256693 0)
(-0.000652025 -0.00209503 0)
(-0.00060392 -0.00147592 0)
(-0.000527212 -0.000859778 0)
(-0.00038271 -0.000237598 0)
(-0.000288523 0.000342353 0)
(-0.000189633 0.000852511 0)
(-0.000196304 0.00128968 0)
(-0.000224552 0.0017663 0)
(-0.000254526 0.00230448 0)
(-0.00027287 0.00302458 0)
(-0.00027775 0.00386466 0)
(-0.000233877 0.00481057 0)
(-7.66117e-05 0.00565963 0)
(0.000279488 0.00620437 0)
(0.000674597 0.00596148 0)
(0.000812822 0.00504984 0)
(0.000701037 0.00351953 0)
(0.00048341 0.00201029 0)
(0.000409277 0.000552976 0)
(0.000729106 -0.000641036 0)
(0.000692881 -0.00262226 0)
(0.000361582 -0.0030466 0)
(-0.00264821 0.0121581 0)
(0.000451238 0.0106637 0)
(0.0021092 0.0118077 0)
(0.00150716 0.0116355 0)
(0.00260287 0.0107741 0)
(0.00376544 0.00945532 0)
(0.0027381 0.0186119 0)
(0.00163188 0.0169812 0)
(0.00201805 0.00538598 0)
(0.000157987 0.00656601 0)
(0.000107075 0.00593227 0)
(-0.001445 0.00609956 0)
(-0.00156543 0.00820351 0)
(-0.000914446 0.0103526 0)
(-0.00221601 0.0123442 0)
(-0.000292568 0.0139849 0)
(-0.000348204 0.012855 0)
(-0.00118434 0.0110803 0)
(-0.000950343 0.0103746 0)
(-0.000206708 0.00769371 0)
(-0.00129197 0.00551614 0)
(-0.000536138 0.00778622 0)
(-0.00389526 0.00757718 0)
(-0.00364911 0.00943579 0)
(0.00243393 0.01045 0)
(0.00563006 0.00765602 0)
(0.00317505 0.00222509 0)
(0.00237276 0.0199815 0)
(0.00183117 0.0188697 0)
(0.00129983 0.000711037 0)
(0.00125692 0.00275084 0)
(-0.00190421 0.00435396 0)
(0.000113195 0.00336617 0)
(0.000566112 0.00294651 0)
(0.00436526 0.00362999 0)
(0.00729077 0.00556329 0)
(-9.34224e-05 0.00482507 0)
(0.00533716 0.0011148 0)
(0.00958121 0.000639311 0)
(0.00240117 0.00332627 0)
(-0.00125305 0.000875336 0)
(0.00208059 -0.00241554 0)
(-0.00440001 -0.00148517 0)
(-0.00110286 -0.00318352 0)
(-0.000895146 -0.00321696 0)
(-0.00143566 -0.00282488 0)
(-0.000981233 -0.00338795 0)
(-0.000852505 -0.00315277 0)
(-0.0010751 -0.00294446 0)
(-0.000982343 -0.003075 0)
(-0.00100595 -0.00301289 0)
(-0.000699255 -0.00319661 0)
(-0.000595487 -0.0034921 0)
(-0.000463889 -0.00406758 0)
(-0.000590933 -0.00452176 0)
(-0.000726902 -0.00465675 0)
(-0.000822551 -0.00456188 0)
(-0.000830789 -0.00433397 0)
(-0.00074217 -0.00405049 0)
(-0.000694373 -0.00380765 0)
(-0.000760311 -0.00344034 0)
(-0.000982836 -0.00282665 0)
(-0.00128753 -0.0018777 0)
(-0.00157791 -0.000693193 0)
(-0.00169316 0.000564744 0)
(-0.00141329 0.00180499 0)
(-0.000607164 0.00260475 0)
(0.000538857 0.00271119 0)
(0.00156287 0.00185485 0)
(0.00231333 0.000411116 0)
(0.00258915 -0.00142681 0)
(0.00241449 -0.0029906 0)
(0.00199937 -0.00366166 0)
(0.00159607 -0.00468138 0)
(0.000375964 -0.00406187 0)
(-0.00488443 0.0046834 0)
(0.00334924 0.00227712 0)
(0.000491621 0.000235319 0)
(0.0006009 0.00144367 0)
(0.000344412 0.0021706 0)
(0.0036991 0.00607381 0)
(0.00580231 0.00765782 0)
(-0.00157839 0.00854792 0)
(0.000918337 0.00529288 0)
(0.00131178 0.00612904 0)
(-0.000179635 0.00696246 0)
(-0.0029435 0.00671341 0)
(-0.00688648 0.00882596 0)
(0.000111433 0.00721978 0)
(-0.00518376 0.00692495 0)
(0.00236811 0.00514048 0)
(0.00147347 0.00286326 0)
(0.0010872 0.000613749 0)
(0.00250543 -0.00283516 0)
(0.00149604 -0.00457536 0)
(0.00223521 -0.00316637 0)
(0.000149996 -0.00550729 0)
(9.14067e-05 -0.00722274 0)
(-0.00105901 0.000961078 0)
(-0.00048358 0.00262797 0)
(0.00447726 -0.00631291 0)
(0.00677391 -0.0068397 0)
(0.00888351 0.00260703 0)
(-0.00545291 0.00155862 0)
(-0.0057052 -0.00310594 0)
(-0.00166327 -0.00402758 0)
(6.46821e-05 -0.00513133 0)
(-0.000801277 -0.00645391 0)
(0.00391958 -0.00730456 0)
(0.00356493 -0.00799939 0)
(0.00676889 -0.00642043 0)
(0.00386156 -0.00535369 0)
(0.0048864 -0.00655861 0)
(0.00518754 -0.00519416 0)
(0.00418965 -0.00313371 0)
(-0.000484085 -0.00249259 0)
(-0.00014606 -0.0029697 0)
(-0.00178815 -0.00409255 0)
(-0.00168876 -0.00447217 0)
(-0.00151242 -0.00446021 0)
(-0.00138741 -0.00458983 0)
(-0.00112401 -0.00474812 0)
(-0.000949794 -0.00475113 0)
(-0.00104909 -0.00468449 0)
(-0.000914784 -0.00463681 0)
(-0.000678731 -0.00478189 0)
(-0.000142034 -0.0051311 0)
(0.000178183 -0.00566669 0)
(0.000299721 -0.00636178 0)
(-5.54379e-05 -0.00700171 0)
(-0.000529517 -0.00746523 0)
(-0.000703099 -0.00765767 0)
(-0.000729795 -0.00778687 0)
(-0.000708037 -0.00784227 0)
(-0.000825764 -0.00780091 0)
(-0.00125805 -0.00746743 0)
(-0.00190263 -0.00673103 0)
(-0.0024657 -0.00586858 0)
(-0.00275606 -0.00513903 0)
(-0.00269693 -0.00456242 0)
(-0.00202876 -0.00424626 0)
(-0.000547602 -0.00428629 0)
(0.00160204 -0.00449613 0)
(0.00312933 -0.00500062 0)
(0.00363757 -0.00530248 0)
(0.00358496 -0.0054372 0)
(0.00258294 -0.00513612 0)
(0.00187291 -0.00474389 0)
(0.00127837 -0.00531456 0)
(0.000257223 -0.0043347 0)
(0.00192826 0.00799534 0)
(0.00147728 0.0075757 0)
(-0.000455546 -0.00282306 0)
(-0.00186117 0.000172357 0)
(-0.00325816 0.0030524 0)
(0.00543633 0.00262945 0)
(0.00191882 0.000577121 0)
(0.00225653 -0.00106839 0)
(-0.00328074 -0.00305118 0)
(0.0011659 -0.00295152 0)
(-0.00161905 -0.00377742 0)
(0.00192394 -0.00685456 0)
(0.000765968 -0.000493321 0)
(-0.000519462 -0.00314794 0)
(0.000845902 -0.00622328 0)
(0.000151217 -0.00304098 0)
(-0.00108261 -0.0111552 0)
(0.00163026 -0.00920672 0)
(0.00176125 -0.00757437 0)
(0.00229472 -0.00831913 0)
(0.000184777 -0.00861607 0)
(0.00208605 -0.00817761 0)
(0.00256227 -0.00758277 0)
(0.00202793 -0.00574841 0)
(-0.00521462 -0.00130874 0)
(0.00209644 -0.0036516 0)
(0.0034959 -0.00735505 0)
(0.00209916 -0.00134506 0)
(-0.00126258 -0.00182532 0)
(0.000187253 -0.00521678 0)
(0.000974483 -0.00446803 0)
(0.00241155 -0.00756985 0)
(0.000748892 -0.00630965 0)
(0.0045317 -0.00648121 0)
(0.00289036 -0.00751932 0)
(0.00465074 -0.0064192 0)
(0.00343604 -0.00598765 0)
(0.00289447 -0.00454065 0)
(0.00311282 -0.00365975 0)
(0.00262205 -0.00261247 0)
(0.00151914 -0.00226108 0)
(0.00034863 -0.0027493 0)
(-0.000555011 -0.0034311 0)
(-0.000867824 -0.00380018 0)
(-0.00109311 -0.00411289 0)
(-0.0010833 -0.00432064 0)
(-0.00100573 -0.00442057 0)
(-0.000982385 -0.00442581 0)
(-0.000999961 -0.00449054 0)
(-0.000861878 -0.00461644 0)
(-0.0004955 -0.00484696 0)
(0.000177291 -0.00518702 0)
(0.000714977 -0.00566258 0)
(0.000869856 -0.006308 0)
(0.000546021 -0.00705296 0)
(-5.82836e-05 -0.00784746 0)
(-0.000512767 -0.00847733 0)
(-0.000627925 -0.00884848 0)
(-0.000646679 -0.00900935 0)
(-0.000986407 -0.00898168 0)
(-0.00176995 -0.00853363 0)
(-0.00259333 -0.00781144 0)
(-0.00293824 -0.00733294 0)
(-0.00296711 -0.00707357 0)
(-0.00263494 -0.0069942 0)
(-0.00166491 -0.00743116 0)
(-0.000167491 -0.00802232 0)
(0.00158091 -0.00808059 0)
(0.00264355 -0.00774029 0)
(0.00302811 -0.00725335 0)
(0.00275004 -0.00645361 0)
(0.00193143 -0.00553887 0)
(0.00156101 -0.00509601 0)
(0.000957065 -0.00553473 0)
(5.49965e-05 -0.00458941 0)
(0.00295289 0.00318556 0)
(-0.0041143 0.00319937 0)
(-0.00127561 0.000285045 0)
(0.000551792 -0.000783956 0)
(0.00228002 0.00900317 0)
(0.00282781 0.00739619 0)
(0.00206385 -0.00202315 0)
(0.00227218 -0.00245086 0)
(0.00103403 -0.00457108 0)
(0.00122411 -0.00471285 0)
(0.000894765 -0.00776753 0)
(0.0017982 -0.00687177 0)
(0.0055771 -0.00936788 0)
(-0.00178137 -0.0081712 0)
(0.00338931 -0.00590238 0)
(-0.00501367 -0.00650146 0)
(-0.00661222 -0.00366326 0)
(-0.00091943 -0.00189829 0)
(0.00199791 -0.00421752 0)
(-0.00130491 -0.00591518 0)
(0.00149703 -0.00403622 0)
(0.00421083 -0.00493493 0)
(0.00192096 -0.00922295 0)
(0.00123063 -0.0104467 0)
(0.000430616 9.8538e-05 0)
(4.30959e-05 0.00019879 0)
(0.0013662 -0.00918044 0)
(0.0020077 -0.00663439 0)
(-0.00193827 -0.00495699 0)
(-0.0011722 -0.00366664 0)
(-0.0012485 -0.00195458 0)
(0.00142065 -0.0040602 0)
(0.000849638 -0.00109893 0)
(0.00395132 -0.00171421 0)
(0.00190439 -0.00481086 0)
(0.00447798 -0.00378159 0)
(0.00340313 -0.00431977 0)
(0.0032211 -0.00396607 0)
(0.00276213 -0.00271641 0)
(0.00220712 -0.00202399 0)
(0.000890956 -0.00169586 0)
(0.000210009 -0.00147703 0)
(-0.000486807 -0.00185056 0)
(-0.000808838 -0.00197938 0)
(-0.00102078 -0.002275 0)
(-0.00109843 -0.0024762 0)
(-0.00106263 -0.00266278 0)
(-0.000951572 -0.00278964 0)
(-0.000857983 -0.00304289 0)
(-0.000577136 -0.00338708 0)
(-7.89872e-05 -0.00383919 0)
(0.000626788 -0.0043539 0)
(0.00128852 -0.00482358 0)
(0.00161239 -0.00538876 0)
(0.0014303 -0.00612135 0)
(0.000842679 -0.00700401 0)
(0.000252287 -0.00790094 0)
(-0.000200139 -0.00857442 0)
(-0.000594255 -0.00893404 0)
(-0.00131158 -0.00879907 0)
(-0.00245926 -0.00824924 0)
(-0.00307017 -0.00781876 0)
(-0.00319309 -0.00758377 0)
(-0.00306413 -0.00744578 0)
(-0.00234461 -0.00761505 0)
(-0.00111871 -0.00819726 0)
(0.000183423 -0.00865667 0)
(0.00132683 -0.00848392 0)
(0.00204812 -0.00787714 0)
(0.00218297 -0.00714212 0)
(0.00178434 -0.00627123 0)
(0.00136915 -0.0055277 0)
(0.00116251 -0.00516031 0)
(0.000695175 -0.00558408 0)
(-2.88865e-05 -0.00479467 0)
(0.00177128 -0.000655041 0)
(0.000105558 0.00095126 0)
(-0.00213688 -0.000995573 0)
(-0.000166435 -8.69424e-05 0)
(0.00540917 0.000834117 0)
(-0.00136233 -0.00133147 0)
(0.004561 -0.00362461 0)
(0.00239216 -0.00500176 0)
(0.00354551 -0.00711546 0)
(0.00314652 -0.00681701 0)
(0.00360857 -0.00805649 0)
(0.000950315 -0.00781342 0)
(0.000968772 -0.00744323 0)
(0.000770856 -0.00755666 0)
(-0.00154722 -0.00631894 0)
(0.000405575 -0.00877497 0)
(-0.00218548 -0.00220142 0)
(-0.000338088 0.00380915 0)
(-0.000569535 -0.00425404 0)
(-0.00236084 -0.00448113 0)
(-0.00297673 -0.000268689 0)
(0.00375958 -0.00512752 0)
(0.0026005 -0.00937744 0)
(0.00368993 -0.00865703 0)
(0.00520859 -0.0045328 0)
(-0.00261034 -0.00424786 0)
(-0.00146222 -0.00719626 0)
(-0.00222407 -0.0067283 0)
(-0.00192703 -0.00653661 0)
(-0.0020077 -0.00640665 0)
(0.000262749 -0.00501925 0)
(0.00187904 -0.00846712 0)
(0.00338441 -0.00545281 0)
(0.00258119 -0.00392064 0)
(0.00361788 -0.00290482 0)
(0.00330385 -0.00238297 0)
(0.0022135 -0.00499072 0)
(0.00211326 -0.00241845 0)
(0.0019165 -0.0018846 0)
(0.00117016 -0.00128855 0)
(0.0005709 -0.00115772 0)
(3.02891e-05 -0.00112216 0)
(-0.000227199 -0.00127683 0)
(-0.000472951 -0.00134356 0)
(-0.000673891 -0.00162229 0)
(-0.000744365 -0.00188978 0)
(-0.000742975 -0.00213092 0)
(-0.000637676 -0.00232462 0)
(-0.000464546 -0.00262014 0)
(-8.90505e-05 -0.00296084 0)
(0.00044851 -0.00336676 0)
(0.00107992 -0.00379377 0)
(0.00175265 -0.004109 0)
(0.00215207 -0.00439958 0)
(0.00215709 -0.00471521 0)
(0.00171584 -0.00527401 0)
(0.00106168 -0.00593863 0)
(0.000366283 -0.00655706 0)
(-0.000439413 -0.00703065 0)
(-0.00157859 -0.00715611 0)
(-0.00281717 -0.0069518 0)
(-0.00326159 -0.0068527 0)
(-0.00332179 -0.00682027 0)
(-0.00296124 -0.00691492 0)
(-0.00193482 -0.00731477 0)
(-0.000728019 -0.007769 0)
(0.000214155 -0.00795118 0)
(0.000897589 -0.00773717 0)
(0.0012985 -0.00714136 0)
(0.00136756 -0.00648383 0)
(0.00120736 -0.005946 0)
(0.000968205 -0.00541787 0)
(0.000830911 -0.0051345 0)
(0.000509513 -0.00562634 0)
(-5.34825e-05 -0.0049213 0)
(-0.000457179 -0.00416778 0)
(-0.00194303 -0.0103396 0)
(0.00277634 -0.0128854 0)
(0.00177255 -0.0119745 0)
(0.00603588 -0.0133812 0)
(0.00299991 -0.0150929 0)
(0.00587301 -0.0135019 0)
(0.00310402 -0.0139125 0)
(0.0037771 -0.00845377 0)
(0.00345865 -0.00761959 0)
(0.00264595 -0.00989057 0)
(0.00200169 -0.0074953 0)
(0.00143145 -0.00745962 0)
(0.000515203 -0.00890106 0)
(0.00103489 -0.00497083 0)
(-5.70864e-05 -0.00530337 0)
(0.00417719 -0.00475531 0)
(-8.28899e-05 -0.00138436 0)
(-0.00309831 -0.00764032 0)
(0.00021098 -0.00882066 0)
(-0.00169543 0.00233787 0)
(-0.00142283 0.000186211 0)
(-0.000865238 -0.00910692 0)
(0.00215015 -0.00556085 0)
(0.00186094 -0.00450647 0)
(-0.000462536 -0.00437905 0)
(-0.000496114 -0.00701656 0)
(-2.48602e-05 -0.00801003 0)
(-0.00124278 -0.00867141 0)
(-0.00336108 -0.00832077 0)
(0.00375277 -0.0084165 0)
(0.00135646 -0.0122891 0)
(0.000463426 -0.0103088 0)
(3.57212e-06 -0.00851814 0)
(0.00366455 -0.00846797 0)
(0.000835765 -0.00672497 0)
(0.00204321 -0.00626838 0)
(0.00202157 -0.00495621 0)
(0.00189299 -0.0043857 0)
(0.00136173 -0.00389172 0)
(0.000758184 -0.00368832 0)
(0.000326873 -0.00375551 0)
(5.99122e-05 -0.00380058 0)
(-0.000350196 -0.00378168 0)
(-0.000462365 -0.00381243 0)
(-0.000568794 -0.00397837 0)
(-0.000560838 -0.00407509 0)
(-0.00046841 -0.00411201 0)
(-0.00023774 -0.00418176 0)
(0.000195809 -0.00419752 0)
(0.000772117 -0.0042204 0)
(0.0013953 -0.00428183 0)
(0.00196205 -0.00424513 0)
(0.00223039 -0.00421587 0)
(0.00227103 -0.004116 0)
(0.00205204 -0.00409591 0)
(0.00155392 -0.00425236 0)
(0.000901653 -0.00452758 0)
(3.07835e-05 -0.004916 0)
(-0.00124748 -0.00530834 0)
(-0.00263475 -0.00567737 0)
(-0.00313026 -0.00593556 0)
(-0.00314837 -0.00614257 0)
(-0.00262647 -0.00644294 0)
(-0.00156764 -0.00677846 0)
(-0.000527786 -0.00705631 0)
(0.000137393 -0.00707255 0)
(0.00052374 -0.00682073 0)
(0.000805657 -0.00644548 0)
(0.000921567 -0.00606924 0)
(0.000848085 -0.00573061 0)
(0.00070383 -0.00533293 0)
(0.000604255 -0.00512145 0)
(0.000372187 -0.0056892 0)
(-4.99073e-05 -0.00500055 0)
(0.00208844 -0.0164516 0)
(0.00334383 -0.0130224 0)
(0.00441885 -0.0160126 0)
(0.0034349 -0.0180747 0)
(0.000745458 -0.015962 0)
(0.000512086 -0.016027 0)
(0.00160292 -0.0130653 0)
(0.00170577 -0.0129871 0)
(0.00421592 -0.0105672 0)
(-0.000604389 -0.00973465 0)
(0.00164924 -0.00947785 0)
(0.00264712 -0.00874127 0)
(0.000811295 -0.00806675 0)
(0.000825739 -0.00648126 0)
(0.000563551 -0.00604482 0)
(0.00049897 -0.00705253 0)
(0.00242518 -0.00590846 0)
(-0.00229228 -0.00669767 0)
(-0.000265248 -0.00665883 0)
(-0.000530585 -0.00505681 0)
(0.00443789 -0.00229703 0)
(-0.00438684 -0.00289434 0)
(-0.000800707 -0.0049726 0)
(0.00138344 -0.00516376 0)
(0.00223825 -0.00578565 0)
(0.00198044 -0.00465273 0)
(0.00159696 -0.00487202 0)
(0.00200844 -0.00531308 0)
(0.000529928 -0.00877581 0)
(0.000334682 -0.00059469 0)
(-0.000370311 -0.00166304 0)
(0.000192819 -0.012824 0)
(0.00162839 -0.0123044 0)
(-5.44468e-05 -0.00971662 0)
(0.000800207 -0.0112668 0)
(0.00212791 -0.0109983 0)
(0.00056338 -0.00939091 0)
(0.000871323 -0.00849555 0)
(0.000879635 -0.00798535 0)
(0.000623166 -0.00739039 0)
(0.000400965 -0.00709577 0)
(-0.000109333 -0.00683308 0)
(-0.000307163 -0.00675568 0)
(-0.000459281 -0.00666725 0)
(-0.000511316 -0.00664218 0)
(-0.000517805 -0.00667645 0)
(-0.000610708 -0.00666032 0)
(-0.000582776 -0.00668384 0)
(-0.000404967 -0.00669243 0)
(-3.01735e-05 -0.00661972 0)
(0.000461731 -0.00638159 0)
(0.0010763 -0.00590074 0)
(0.00163372 -0.00526588 0)
(0.00200888 -0.00465484 0)
(0.00209435 -0.00411305 0)
(0.00190207 -0.00372863 0)
(0.00153136 -0.00345962 0)
(0.00104016 -0.0034291 0)
(0.000338843 -0.00365083 0)
(-0.000772432 -0.00411667 0)
(-0.002102 -0.00481216 0)
(-0.00278784 -0.00541776 0)
(-0.00286015 -0.00577129 0)
(-0.00235384 -0.00608074 0)
(-0.00132773 -0.00630733 0)
(-0.000442084 -0.00646044 0)
(3.05689e-06 -0.0064217 0)
(0.00029518 -0.00624642 0)
(0.000547032 -0.00603435 0)
(0.000657834 -0.00581749 0)
(0.000605838 -0.00558866 0)
(0.000509411 -0.00527535 0)
(0.000437182 -0.00511324 0)
(0.000271742 -0.00574253 0)
(-4.42501e-05 -0.00505393 0)
(0.00625154 -0.0165004 0)
(0.00457221 -0.0172306 0)
(0.000751879 -0.0162577 0)
(0.00232963 -0.0134194 0)
(-0.000190851 -0.0133316 0)
(0.00167339 -0.0116731 0)
(0.00250416 -0.0116574 0)
(0.000920966 -0.0114848 0)
(0.0014814 -0.0100997 0)
(0.000790549 -0.0100155 0)
(0.00062427 -0.00655788 0)
(0.000865662 -0.00780706 0)
(-0.00099781 -0.00944283 0)
(0.00201775 -0.00977364 0)
(5.51576e-06 -0.00689224 0)
(0.000174942 -0.0066108 0)
(-0.00268167 -0.0103206 0)
(0.00150054 -0.0051875 0)
(0.00153797 -0.00658149 0)
(0.000881154 -0.00568851 0)
(-0.000143643 -0.00267893 0)
(-0.00235059 -0.00672101 0)
(-0.00041801 -0.00509129 0)
(-0.00105662 -0.00466999 0)
(0.000539666 -0.00395528 0)
(0.00177445 -0.00270733 0)
(0.000691903 -0.00221417 0)
(0.00087194 -0.00124359 0)
(0.00336445 -0.00163927 0)
(0.00503757 0.0010405 0)
(-0.000180916 0.00151565 0)
(0.000381284 -0.00246871 0)
(0.00188472 -0.00366194 0)
(0.000109469 -0.00510352 0)
(-0.000956394 -0.00460039 0)
(-0.00101954 -0.00479235 0)
(0.000297238 -0.00666177 0)
(0.000900086 -0.00492508 0)
(0.000664233 -0.00509034 0)
(0.000484543 -0.00467993 0)
(0.000234603 -0.00462433 0)
(6.46059e-05 -0.00482014 0)
(-0.000143152 -0.00497584 0)
(-0.000385625 -0.00515514 0)
(-0.00042994 -0.00543364 0)
(-0.00047187 -0.0056381 0)
(-0.000503336 -0.00588367 0)
(-0.000467958 -0.00618154 0)
(-0.000282844 -0.00656591 0)
(-7.34104e-05 -0.00683162 0)
(0.000122974 -0.00689188 0)
(0.000433877 -0.00664739 0)
(0.000788833 -0.0060759 0)
(0.00110375 -0.00526602 0)
(0.00135381 -0.00432114 0)
(0.00136089 -0.00349877 0)
(0.00123626 -0.00284674 0)
(0.00106277 -0.0025762 0)
(0.000686588 -0.0026247 0)
(-0.000112042 -0.00304155 0)
(-0.00132254 -0.00381396 0)
(-0.00229593 -0.00467039 0)
(-0.00253511 -0.00509022 0)
(-0.00215257 -0.00548769 0)
(-0.00117354 -0.0058198 0)
(-0.000416528 -0.00599027 0)
(-7.61435e-05 -0.00601257 0)
(0.000151504 -0.0059521 0)
(0.000373157 -0.00582014 0)
(0.000476419 -0.00566376 0)
(0.000430735 -0.00549592 0)
(0.000365697 -0.00523896 0)
(0.000314559 -0.0051078 0)
(0.000197322 -0.00578149 0)
(-3.74652e-05 -0.0050912 0)
(0.00357066 -0.012681 0)
(6.58223e-05 -0.0142255 0)
(0.0018009 -0.0117681 0)
(-0.000565585 -0.010427 0)
(-0.00357226 -0.00850115 0)
(0.00254185 -0.00567399 0)
(0.00219904 -0.00802682 0)
(0.000412097 -0.00960242 0)
(-0.000211011 -0.0075302 0)
(0.000248829 -0.00821385 0)
(0.00109378 -0.00725866 0)
(-0.00147589 -0.0087322 0)
(0.00116796 -0.00626398 0)
(0.000450036 -0.00589186 0)
(0.000351329 -0.00958323 0)
(-0.000669765 -0.0104545 0)
(-0.00457836 -0.00499031 0)
(0.00413874 -0.00395219 0)
(-0.00222716 -0.00906973 0)
(0.00242982 -0.00841725 0)
(-0.0031114 -0.00657842 0)
(4.91742e-05 -0.00448153 0)
(-0.000794907 -0.00491611 0)
(-0.000996135 -0.00527137 0)
(0.000229142 -0.00405786 0)
(0.000643068 -0.00447172 0)
(0.000314921 -0.00616697 0)
(0.00145703 -0.00316655 0)
(0.000887789 -0.00235612 0)
(0.000784367 0.000130558 0)
(0.00192517 0.00152599 0)
(0.000908044 -0.000885046 0)
(0.00114597 0.00105268 0)
(0.000985433 0.00221446 0)
(0.0035067 0.000183838 0)
(-0.000857465 -0.00212429 0)
(0.00192062 -0.00351263 0)
(0.000384016 -0.00468249 0)
(0.000274578 -0.00567157 0)
(0.000368419 -0.00520794 0)
(0.000315616 -0.00532757 0)
(0.00013242 -0.00544074 0)
(0.000128742 -0.00556958 0)
(2.6233e-06 -0.0057294 0)
(-8.07395e-05 -0.00589401 0)
(-0.000103184 -0.00600407 0)
(-4.31648e-05 -0.00615848 0)
(6.38276e-05 -0.00643324 0)
(0.000212166 -0.0066552 0)
(0.00024106 -0.00675049 0)
(0.000224812 -0.0067261 0)
(0.000190293 -0.00643527 0)
(0.000191159 -0.0058354 0)
(0.000209957 -0.00494209 0)
(0.000280982 -0.00386943 0)
(0.000392997 -0.00281774 0)
(0.000618144 -0.00190753 0)
(0.000826783 -0.00137818 0)
(0.000826527 -0.00124561 0)
(0.00042637 -0.00138676 0)
(-0.000433882 -0.00193705 0)
(-0.00139486 -0.00280665 0)
(-0.00196844 -0.00373532 0)
(-0.00168489 -0.00461808 0)
(-0.000811043 -0.00531792 0)
(-0.000254686 -0.00558413 0)
(-2.17094e-05 -0.00570174 0)
(0.000114375 -0.00573813 0)
(0.0002603 -0.00567715 0)
(0.00034615 -0.00555486 0)
(0.000306393 -0.00541932 0)
(0.000257511 -0.00521097 0)
(0.000224055 -0.00510092 0)
(0.000141511 -0.00580824 0)
(-3.05532e-05 -0.00511685 0)
(-0.00533759 -0.0119142 0)
(0.00385998 -0.0117302 0)
(0.00136386 -0.0126573 0)
(0.00119317 -0.017694 0)
(1.91045e-05 -0.00776379 0)
(0.00204133 -0.00338196 0)
(2.46024e-05 -0.0124823 0)
(0.000336257 -0.012858 0)
(-0.00304786 -0.00932055 0)
(0.00104543 -0.00826326 0)
(-0.000373836 -0.00698409 0)
(-0.000913173 -0.00541834 0)
(0.0032186 -0.00377994 0)
(-0.00125381 -0.00593811 0)
(-0.000314708 -0.00294497 0)
(0.00141007 -0.00487027 0)
(0.00208164 0.000422341 0)
(-0.0011535 -0.000574301 0)
(-0.000711229 -0.00920698 0)
(-0.000969349 -0.00737843 0)
(-0.00125086 -0.00758215 0)
(-0.00281807 -0.00594574 0)
(-0.00327099 -0.00707896 0)
(-0.00116838 -0.00468874 0)
(0.00125481 -0.00410345 0)
(0.00158582 -0.00580485 0)
(0.00193738 -0.00562519 0)
(0.000467542 -0.00488378 0)
(-0.00160728 -0.0053015 0)
(-0.00290619 -0.000526566 0)
(0.00354562 0.00105147 0)
(0.00178064 -0.0020393 0)
(0.000627829 -0.000857113 0)
(-0.00194557 0.00181975 0)
(0.004232 0.00124069 0)
(0.00343839 -0.00148579 0)
(0.00171192 -0.00303177 0)
(0.00109016 -0.00669365 0)
(0.00149876 -0.00657793 0)
(0.00069329 -0.00611899 0)
(0.000463219 -0.00598993 0)
(0.0004124 -0.0060504 0)
(0.000169111 -0.00633464 0)
(-6.74271e-05 -0.00676952 0)
(-0.000146037 -0.00698865 0)
(-0.000202398 -0.00708173 0)
(-0.000108837 -0.00719271 0)
(3.54939e-06 -0.00724309 0)
(6.62049e-05 -0.00723083 0)
(2.96835e-05 -0.0070847 0)
(-0.000137198 -0.00677463 0)
(-0.00041474 -0.00620174 0)
(-0.00067424 -0.00536031 0)
(-0.000846453 -0.00429381 0)
(-0.000831316 -0.00318843 0)
(-0.000648392 -0.00219989 0)
(-0.000198672 -0.00134338 0)
(0.000378423 -0.000795643 0)
(0.00070184 -0.000615822 0)
(0.000648376 -0.000721118 0)
(0.00018494 -0.00111444 0)
(-0.000439103 -0.00189394 0)
(-0.000791451 -0.00300527 0)
(-0.000627975 -0.00431974 0)
(-0.000242524 -0.0052027 0)
(-4.3287e-06 -0.00550338 0)
(7.30952e-05 -0.00562026 0)
(0.000109468 -0.00564762 0)
(0.000172829 -0.00560552 0)
(0.000218127 -0.00549535 0)
(0.000205321 -0.00536484 0)
(0.00018014 -0.00519105 0)
(0.000156594 -0.00509558 0)
(0.000100078 -0.00582719 0)
(-2.37817e-05 -0.00513418 0)
(-0.00180043 -0.00330999 0)
(0.00116672 -0.00439962 0)
(-0.00121641 -0.0126275 0)
(-0.000335729 -0.00997984 0)
(0.00143748 -0.00697209 0)
(-0.00474242 -0.00406388 0)
(-0.00502733 -0.00598574 0)
(-0.00215426 -0.00941387 0)
(-0.00179444 -0.00512151 0)
(-0.00213182 -0.00416806 0)
(-0.0034035 -0.00846683 0)
(-0.00226282 -0.0033168 0)
(-0.00123726 -0.00413697 0)
(-0.00281047 -0.00558646 0)
(-0.000713274 -0.00207946 0)
(0.00446392 -0.00218304 0)
(0.00674409 -0.00163627 0)
(-0.00114591 -0.00113873 0)
(0.00239573 -0.003299 0)
(-0.000469919 -0.00542217 0)
(0.000132027 -0.00746205 0)
(-0.00459345 -0.00658561 0)
(-0.0069977 -0.00463718 0)
(-0.00150891 -0.00335594 0)
(0.00418648 -0.00326964 0)
(0.000492389 -0.00550461 0)
(8.24324e-05 -0.00584191 0)
(-1.2753e-05 -0.00498498 0)
(-9.30829e-05 -0.00623674 0)
(0.000494078 0.002682 0)
(0.00101494 0.00212001 0)
(0.0019551 -0.00733591 0)
(0.00188999 -0.00675323 0)
(0.00135178 0.00193591 0)
(0.00258657 0.00167652 0)
(0.00327253 -0.00714397 0)
(0.00170452 -0.00670936 0)
(0.00142057 -0.00663118 0)
(0.000550022 -0.00754113 0)
(7.0654e-05 -0.00781804 0)
(0.000463928 -0.00790679 0)
(0.000765694 -0.00825126 0)
(0.000698026 -0.00843574 0)
(0.000417313 -0.00853075 0)
(0.000248408 -0.008481 0)
(0.00015189 -0.00844888 0)
(0.000122687 -0.00824319 0)
(0.00014863 -0.00808718 0)
(7.27311e-05 -0.0077538 0)
(-0.000195888 -0.0073202 0)
(-0.000633542 -0.0066564 0)
(-0.00125537 -0.00580327 0)
(-0.00178016 -0.00485046 0)
(-0.0019944 -0.00395454 0)
(-0.00186053 -0.00295485 0)
(-0.00149285 -0.00208704 0)
(-0.000779635 -0.0013449 0)
(0.000108859 -0.000933599 0)
(0.000721279 -0.000832748 0)
(0.000900654 -0.00112306 0)
(0.000702789 -0.00168129 0)
(0.000460385 -0.00254788 0)
(0.000402502 -0.00365218 0)
(0.000440058 -0.00473573 0)
(0.000368989 -0.00525822 0)
(0.000209853 -0.00547354 0)
(0.000125089 -0.00554851 0)
(0.000103617 -0.00555982 0)
(9.65689e-05 -0.00551778 0)
(0.000109169 -0.00543226 0)
(0.000123787 -0.00532861 0)
(0.000122352 -0.0051746 0)
(0.000105776 -0.00508979 0)
(6.93157e-05 -0.00583961 0)
(-1.77138e-05 -0.00514544 0)
(0.00368243 0.0117688 0)
(-0.00425884 0.0119917 0)
(-0.00162005 0.00897906 0)
(-0.00292529 0.00816445 0)
(0.000647367 0.00767589 0)
(-0.00188091 0.00689532 0)
(-0.00190907 0.00388367 0)
(-0.00136265 0.000604062 0)
(0.00130426 -5.00497e-06 0)
(-0.00308415 -0.00231303 0)
(-0.00158887 -0.00436808 0)
(0.000833467 -0.00506565 0)
(-0.00018715 -0.00905535 0)
(0.000208704 -0.0106001 0)
(0.000945487 0.000698838 0)
(0.00214792 -0.00149297 0)
(0.00287333 -0.00910626 0)
(0.000723595 -0.00632664 0)
(0.000458874 -0.00589888 0)
(-0.000566857 -0.00612 0)
(-0.00025319 -0.00703946 0)
(-0.00164527 -0.00971105 0)
(-0.00171099 -0.00267967 0)
(-0.00253134 0.0069708 0)
(-0.000247284 -0.00151015 0)
(-0.00292365 -0.00901262 0)
(-0.000763106 -0.005436 0)
(-0.000315092 -0.00487047 0)
(0.00212322 -0.00537785 0)
(0.00413161 -0.00073881 0)
(-0.00288999 0.00127202 0)
(-0.000684172 -0.000995523 0)
(0.00360511 -0.000451611 0)
(0.00526779 0.00251252 0)
(0.000325105 0.00233866 0)
(0.000773333 -0.000703291 0)
(0.00319589 -0.0012437 0)
(0.00256383 -0.00211199 0)
(0.00265143 -0.00323412 0)
(0.00169873 -0.00592505 0)
(0.001451 -0.00771922 0)
(0.000933568 -0.00826497 0)
(0.000484115 -0.00834218 0)
(0.000117559 -0.00855297 0)
(-0.000214516 -0.00844513 0)
(-0.00039014 -0.00824625 0)
(-0.000554056 -0.00799482 0)
(-0.000520405 -0.00763593 0)
(-0.000690581 -0.00712232 0)
(-0.00112303 -0.00656345 0)
(-0.00168739 -0.00583948 0)
(-0.00215698 -0.00533607 0)
(-0.00255818 -0.00484869 0)
(-0.00282839 -0.00450457 0)
(-0.00277091 -0.00398871 0)
(-0.0023084 -0.00351545 0)
(-0.00138758 -0.00292479 0)
(-0.000165821 -0.0025161 0)
(0.000898878 -0.00234803 0)
(0.00149631 -0.00269659 0)
(0.00163532 -0.00339405 0)
(0.00154903 -0.00429718 0)
(0.00132482 -0.0050592 0)
(0.00090575 -0.00545719 0)
(0.000490572 -0.0054744 0)
(0.0002863 -0.00545523 0)
(0.00015899 -0.00547586 0)
(6.85283e-05 -0.00547905 0)
(3.00563e-05 -0.0054481 0)
(3.51175e-05 -0.00538367 0)
(6.38329e-05 -0.00530513 0)
(7.22826e-05 -0.00516209 0)
(6.54581e-05 -0.00508576 0)
(4.51646e-05 -0.00584871 0)
(-1.23994e-05 -0.0051525 0)
(0.00170586 0.00245625 0)
(-0.000186786 -0.000507745 0)
(-0.00158946 -0.00349909 0)
(0.000775475 -0.003305 0)
(0.00144212 -0.00404573 0)
(0.00211463 -0.00637548 0)
(-3.5989e-05 -0.0058761 0)
(0.000433541 -0.00670038 0)
(0.000537724 -0.00733446 0)
(0.00154221 -0.00824614 0)
(0.000779091 -0.0085514 0)
(0.00267918 -0.00845736 0)
(-0.000279317 -0.00946136 0)
(0.00347527 -0.00980581 0)
(0.00281126 -0.00612095 0)
(-0.000552931 -0.00593369 0)
(0.000571279 -0.00852139 0)
(0.0010012 -0.00858175 0)
(0.00055446 -0.00774911 0)
(0.00024245 -0.0076989 0)
(-0.000438178 -0.00791731 0)
(0.000470726 -0.00575085 0)
(0.00285043 -0.00291257 0)
(-0.00246836 0.000587517 0)
(-0.00608061 -0.00170492 0)
(-0.00182122 -0.00580356 0)
(-0.000570616 -0.00636765 0)
(-0.000730093 -0.00727232 0)
(-0.00136459 -0.00503377 0)
(-0.00205763 -0.00328667 0)
(-0.00188901 -0.0021539 0)
(4.86717e-06 -0.00329176 0)
(0.000790379 -0.00489017 0)
(0.00091821 -0.00439249 0)
(0.00335198 -0.00554343 0)
(0.00312152 -0.00639864 0)
(0.00352732 -0.00572466 0)
(0.0039614 -0.00730962 0)
(0.00436475 -0.00606007 0)
(0.003963 -0.00548755 0)
(0.00246663 -0.0045012 0)
(0.00136952 -0.00414645 0)
(0.000681121 -0.003579 0)
(0.000251652 -0.00343978 0)
(-6.78103e-05 -0.00348346 0)
(-0.000251636 -0.00381058 0)
(-0.000525609 -0.00406223 0)
(-0.000688091 -0.00441033 0)
(-0.000943874 -0.00453012 0)
(-0.00135093 -0.00463405 0)
(-0.00185569 -0.00480462 0)
(-0.00215097 -0.00506384 0)
(-0.00255157 -0.00543384 0)
(-0.00277892 -0.00579577 0)
(-0.00280393 -0.00587982 0)
(-0.00250756 -0.00595112 0)
(-0.00172733 -0.0058626 0)
(-0.000462074 -0.00564008 0)
(0.00104371 -0.00539403 0)
(0.0019274 -0.00545893 0)
(0.00216387 -0.00562076 0)
(0.00206361 -0.00582623 0)
(0.00154904 -0.00590614 0)
(0.000819361 -0.00575089 0)
(0.000410125 -0.00557491 0)
(0.000247932 -0.00546838 0)
(0.000153631 -0.00542152 0)
(5.31958e-05 -0.0054061 0)
(-1.16771e-05 -0.00538243 0)
(-2.00063e-05 -0.00533507 0)
(1.81792e-05 -0.00527507 0)
(3.79551e-05 -0.00514764 0)
(3.79018e-05 -0.00507896 0)
(2.89224e-05 -0.00585337 0)
(-7.86339e-06 -0.00515636 0)
(0.00114247 -0.000489779 0)
(-6.5218e-05 -0.00758582 0)
(-0.00320362 -0.00820814 0)
(0.00474468 -0.0055663 0)
(0.000166454 -0.00649011 0)
(3.45063e-05 -0.00657554 0)
(-0.00112316 -0.00704658 0)
(0.000622633 -0.00722099 0)
(0.000220556 -0.00762564 0)
(0.000650765 -0.010218 0)
(0.000435399 -0.00901768 0)
(0.000321131 -0.00871291 0)
(-0.000300946 -0.0105308 0)
(0.00164204 -0.0103014 0)
(0.00104637 -0.00688831 0)
(-0.000390555 -0.00626292 0)