/*--------------------------------*- C++ -*----------------------------------*\
  =========                 |
  \\      /  F ield         | OpenFOAM: The Open Source CFD Toolbox
   \\    /   O peration     | Website:  https://openfoam.org
    \\  /    A nd           | Version:  12
     \\/     M anipulation  |
\*---------------------------------------------------------------------------*/
FoamFile
{
    format      ascii;
    class       volVectorField;
    location    "0.85";
    object      U.water;
}
// * * * * * * * * * * * * * * * * * * * * * * * * * * * * * * * * * * * * * //

dimensions      [0 1 -1 0 0 0 0];

internalField   nonuniform List<vector> 
3750
(
(0.00115617 0.0147099 0)
(0.000162867 0.0107915 0)
(0.000881384 0.0105961 0)
(-0.00051934 0.00943841 0)
(0.00054953 0.00646283 0)
(0.0011025 0.00520794 0)
(0.00152898 0.0148319 0)
(-0.00386694 0.0149531 0)
(-0.00652156 0.00684422 0)
(0.00106713 0.0100498 0)
(-0.000363084 0.00905134 0)
(0.0014442 0.00791692 0)
(0.000512655 0.00721586 0)
(0.000982405 0.00683454 0)
(-0.000750582 0.00797484 0)
(7.68733e-05 0.00850958 0)
(-0.000357436 0.0107685 0)
(0.000181924 0.0123177 0)
(-7.89318e-05 0.0104961 0)
(0.00188512 0.0105052 0)
(-0.00131338 0.00935998 0)
(0.000457332 0.00951001 0)
(-0.000764129 0.00977887 0)
(0.00205571 0.0110198 0)
(-0.000777777 0.0128956 0)
(0.000709845 0.010173 0)
(-0.000733617 0.0107219 0)
(-0.00379854 0.00947105 0)
(0.00132635 0.00818115 0)
(-0.000494347 0.00973253 0)
(0.000677976 0.010047 0)
(-0.000499038 0.00707276 0)
(0.000862997 0.00779746 0)
(-0.00150889 0.00987718 0)
(0.000115056 0.00821499 0)
(0.00155318 0.00890985 0)
(0.000490648 0.00631119 0)
(0.000927691 0.000441289 0)
(0.000894629 -0.000522969 0)
(-0.000696253 -0.00266938 0)
(0.000797472 -0.00901905 0)
(0.00266661 -0.00439625 0)
(0.00046309 -0.00344346 0)
(0.00163182 -0.00714208 0)
(4.4138e-05 -0.00691683 0)
(-0.000881467 -0.00774658 0)
(-0.000793039 -0.00726298 0)
(-0.000750799 -0.00613506 0)
(-0.00079535 -0.0050616 0)
(-0.000757407 -0.00461366 0)
(-0.00080582 -0.00354737 0)
(-0.000645702 -0.00303916 0)
(-0.000669757 -0.00226212 0)
(-0.000629145 -0.00183829 0)
(-0.000585353 -0.001258 0)
(-0.000511853 -0.000673219 0)
(-0.000370347 -7.68205e-05 0)
(-0.000278366 0.00048138 0)
(-0.000181487 0.00097324 0)
(-0.000189394 0.00139521 0)
(-0.000218783 0.00185919 0)
(-0.000249655 0.00238725 0)
(-0.000268712 0.00309895 0)
(-0.000274314 0.0039323 0)
(-0.000229783 0.00487164 0)
(-7.2786e-05 0.00571437 0)
(0.000283594 0.0062526 0)
(0.000676187 0.00600537 0)
(0.000814061 0.00509107 0)
(0.000700788 0.00356003 0)
(0.00048245 0.00205179 0)
(0.00040676 0.00058591 0)
(0.00073046 -0.000595862 0)
(0.000692425 -0.00255811 0)
(0.00036201 -0.00300116 0)
(0.000113737 0.0124676 0)
(0.00078776 0.00965057 0)
(0.00178127 0.011001 0)
(0.00212673 0.0111197 0)
(0.00327401 0.0105833 0)
(0.00461649 0.00931645 0)
(0.00602437 0.0125089 0)
(-0.00367974 0.00976295 0)
(-0.000370424 0.0133429 0)
(-0.00183247 0.0152393 0)
(-0.00390928 0.00649357 0)
(0.00290164 0.00766258 0)
(0.000586151 0.00662788 0)
(-0.000985346 0.00798977 0)
(-0.00233163 0.009761 0)
(-0.00288747 0.0119729 0)
(-0.00630865 0.0149142 0)
(-0.00176662 0.01662 0)
(0.00389034 0.0147 0)
(0.000762309 0.00930851 0)
(-0.00184009 0.0056438 0)
(-0.000399353 0.00835823 0)
(-0.00225875 0.00765222 0)
(-0.000816284 0.00765279 0)
(-0.00192192 0.0093115 0)
(0.00104871 0.0110479 0)
(-0.000834552 0.00618981 0)
(0.00108559 0.0068182 0)
(0.00283225 0.00636986 0)
(0.00262805 0.00324302 0)
(0.00237985 0.00728812 0)
(-0.0011128 0.0074457 0)
(-0.000769611 0.0070975 0)
(-0.00176028 0.00699934 0)
(-0.00388578 0.00797489 0)
(0.00531525 0.00625207 0)
(0.00276428 0.0021003 0)
(0.00449217 -1.83261e-05 0)
(0.00425254 -0.00224802 0)
(0.00260763 -0.00353388 0)
(0.00270501 -0.00479921 0)
(0.0046429 -0.00458746 0)
(0.000847388 -0.00199187 0)
(0.00194736 -0.00215595 0)
(0.000666112 -0.00161618 0)
(-0.000540355 -0.00152887 0)
(-0.000450045 -0.00236728 0)
(-0.000511027 -0.00236667 0)
(-0.000834928 -0.00233283 0)
(-0.000809298 -0.00258062 0)
(-0.000875721 -0.00260778 0)
(-0.000599637 -0.00285962 0)
(-0.000517663 -0.003209 0)
(-0.00040271 -0.00382611 0)
(-0.000541778 -0.00431284 0)
(-0.000686216 -0.00447408 0)
(-0.000788564 -0.0044013 0)
(-0.000801655 -0.00419278 0)
(-0.00071736 -0.00392616 0)
(-0.000673782 -0.00369709 0)
(-0.000743787 -0.00334067 0)
(-0.000969754 -0.00273533 0)
(-0.00127673 -0.00179357 0)
(-0.00156799 -0.000614476 0)
(-0.00168346 0.000637447 0)
(-0.00140354 0.00187015 0)
(-0.000597527 0.00266382 0)
(0.000546381 0.00276538 0)
(0.00156664 0.00190526 0)
(0.0023135 0.000460383 0)
(0.00258614 -0.00137707 0)
(0.00240875 -0.00294264 0)
(0.00200191 -0.0036085 0)
(0.0015947 -0.00461662 0)
(0.000378397 -0.00401716 0)
(0.00337413 0.00506903 0)
(0.00309519 -0.000936118 0)
(0.00034091 -0.000724669 0)
(0.00181663 0.000967917 0)
(0.00135275 0.000960612 0)
(0.00174153 0.00399708 0)
(0.00236957 0.00391232 0)
(0.000499103 0.00581342 0)
(0.00486574 0.00831147 0)
(-0.00225812 0.00805536 0)
(-0.00115814 0.0148135 0)
(-0.00208453 0.013713 0)
(-0.00435494 0.00348087 0)
(-0.000232686 0.00325646 0)
(-0.00364188 0.00255746 0)
(0.000506438 -0.00179011 0)
(0.000522531 0.00599475 0)
(-0.000292112 0.0145324 0)
(0.00276083 0.00318359 0)
(0.000207718 -0.00727951 0)
(0.00122177 -0.00382695 0)
(-0.00054018 -0.00346658 0)
(-0.000431953 -0.00555664 0)
(-0.000970126 -0.00417641 0)
(-0.00151357 -0.00333573 0)
(-0.000795341 -0.00512026 0)
(-0.00356855 -0.00332996 0)
(0.0055 -0.000698891 0)
(0.000950507 -0.00486152 0)
(4.77688e-05 -0.00342308 0)
(0.00058381 -0.00203051 0)
(0.00101893 -0.0030504 0)
(-0.000572398 -0.00496951 0)
(0.00229806 -0.00817243 0)
(0.00106208 -0.000595216 0)
(0.00396775 -0.000418225 0)
(0.00301817 -0.00976444 0)
(0.00384788 -0.00910148 0)
(0.00369139 -0.00775238 0)
(0.00377182 -0.00644949 0)
(0.00202716 -0.00628216 0)
(0.00264495 -0.00538541 0)
(0.00112036 -0.0046853 0)
(0.000819776 -0.00432428 0)
(0.000144172 -0.00378332 0)
(-0.000298858 -0.00381498 0)
(-0.000400765 -0.00403424 0)
(-0.000457487 -0.00413927 0)
(-0.000694586 -0.00417177 0)
(-0.000652468 -0.00420703 0)
(-0.000479632 -0.00441999 0)
(1.13579e-05 -0.00482471 0)
(0.00029869 -0.00540562 0)
(0.00039458 -0.00613646 0)
(2.00328e-05 -0.00680552 0)
(-0.000466156 -0.00729178 0)
(-0.000649613 -0.00750463 0)
(-0.00068436 -0.00765147 0)
(-0.000669814 -0.00772118 0)
(-0.000794675 -0.00769126 0)
(-0.0012336 -0.00736612 0)
(-0.00188231 -0.00663706 0)
(-0.00244742 -0.00578274 0)
(-0.00273904 -0.00506006 0)
(-0.00268221 -0.00448916 0)
(-0.00201492 -0.00417871 0)
(-0.000535093 -0.00422273 0)
(0.00161036 -0.00443647 0)
(0.0031325 -0.00494385 0)
(0.00363952 -0.00524817 0)
(0.0035853 -0.00538666 0)
(0.00258307 -0.00508955 0)
(0.00187399 -0.00469328 0)
(0.00127849 -0.00525028 0)
(0.000259503 -0.00429101 0)
(0.00643057 0.0104264 0)
(0.00311839 -0.00130561 0)
(0.000844775 -0.0022355 0)
(0.000493192 0.000785373 0)
(-0.000724665 -0.000358692 0)
(0.00193276 -0.00207863 0)
(-0.000390304 -0.00140017 0)
(0.00284165 -0.00112424 0)
(-0.0015488 -0.00059041 0)
(0.00195209 0.00049313 0)
(0.00166193 0.00124763 0)
(-0.00240652 -0.00173354 0)
(-0.00150027 -0.00351843 0)
(0.000208156 -0.00654872 0)
(0.00234681 -0.0106686 0)
(0.00395245 -0.00762142 0)
(0.00587771 -0.00863642 0)
(-0.00137903 -0.00253962 0)
(-0.000536345 -0.00316095 0)
(2.14326e-05 -0.00805101 0)
(-0.00159293 -0.00786031 0)
(0.000208865 -0.00705795 0)
(-0.00122336 -0.00670758 0)
(-0.0010605 -0.00815039 0)
(-0.00249878 -0.00788912 0)
(-0.000677419 -0.00941529 0)
(-0.000696678 -0.00141265 0)
(-0.000742318 0.00338546 0)
(0.0019383 -0.00616818 0)
(0.00367105 -0.00692418 0)
(0.00280829 -0.00463596 0)
(0.00305173 -0.00649279 0)
(0.00151009 -0.00512955 0)
(0.0045762 -0.00526279 0)
(0.0054882 -0.0042297 0)
(-0.000479008 -0.00411471 0)
(0.00120867 -0.00693398 0)
(0.00177831 -0.00623562 0)
(0.00242028 -0.00574351 0)
(0.00254203 -0.00499344 0)
(0.00237 -0.00474031 0)
(0.00233045 -0.00452458 0)
(0.00138426 -0.00421627 0)
(0.00092655 -0.00402043 0)
(0.000323736 -0.00392161 0)
(-3.1177e-05 -0.00393776 0)
(-0.000238281 -0.00398275 0)
(-0.000418892 -0.00399965 0)
(-0.000578073 -0.00410241 0)
(-0.000540018 -0.00427309 0)
(-0.000245184 -0.00454683 0)
(0.000374207 -0.00492517 0)
(0.000871308 -0.0054341 0)
(0.000994442 -0.00610849 0)
(0.000646053 -0.00687767 0)
(2.44689e-05 -0.00769193 0)
(-0.000441946 -0.0083377 0)
(-0.000567356 -0.00872304 0)
(-0.000596489 -0.00889525 0)
(-0.000946751 -0.00887655 0)
(-0.00173843 -0.00843511 0)
(-0.00256525 -0.00772123 0)
(-0.0029122 -0.00725107 0)
(-0.00294405 -0.00699816 0)
(-0.00261359 -0.00692553 0)
(-0.00164582 -0.00736829 0)
(-0.000152172 -0.0079622 0)
(0.00159174 -0.00802254 0)
(0.00265034 -0.0076858 0)
(0.00303266 -0.00720127 0)
(0.0027529 -0.00640443 0)
(0.0019342 -0.00549401 0)
(0.00156262 -0.00504649 0)
(0.000958719 -0.00547122 0)
(5.67908e-05 -0.00454707 0)
(-0.0024611 0.00872247 0)
(-0.0020347 -0.00310155 0)
(0.000723825 -7.71157e-06 0)
(0.000645521 -8.30187e-05 0)
(0.00149673 0.00186109 0)
(0.00230679 0.000798243 0)
(0.00224667 -0.0019467 0)
(0.00256505 -0.00114719 0)
(0.0014844 -0.00136073 0)
(0.000115009 -0.00122705 0)
(0.00138965 -0.00493937 0)
(-0.000648952 -0.00545257 0)
(0.00215406 -0.00952876 0)
(-0.000956761 -0.00851678 0)
(0.00377322 -0.00699677 0)
(0.00146828 -0.00769184 0)
(0.00175686 -0.00745467 0)
(0.00092266 0.00243297 0)
(-0.000639874 0.00244697 0)
(-0.00120718 -0.00800615 0)
(-0.00060385 -0.00443604 0)
(0.000328558 -0.00500517 0)
(-0.00296826 -0.00882374 0)
(-0.00259257 -0.00882202 0)
(-0.000743079 -0.00587177 0)
(0.000411304 -0.00552476 0)
(0.00345196 -0.00575539 0)
(-0.000531732 -0.0028058 0)
(-0.000982907 -0.00516985 0)
(0.00016184 -0.0051568 0)
(-0.000510449 -0.00267382 0)
(0.00128472 -0.00307994 0)
(0.000552759 -0.000229612 0)
(0.00425447 -0.000716386 0)
(0.00285932 -0.00268162 0)
(0.00295754 -0.0027261 0)
(0.00221112 -0.00458375 0)
(0.00251998 -0.00502788 0)
(0.00242361 -0.00428834 0)
(0.00232569 -0.00381045 0)
(0.00156431 -0.00344382 0)
(0.00150264 -0.00281183 0)
(0.000896204 -0.00263794 0)
(0.000524057 -0.00235866 0)
(0.000131086 -0.00234227 0)
(-0.000163288 -0.00235034 0)
(-0.00032614 -0.00243798 0)
(-0.000378177 -0.00252733 0)
(-0.000409717 -0.00277677 0)
(-0.000223514 -0.00313374 0)
(0.000202895 -0.00360565 0)
(0.000853615 -0.00414181 0)
(0.00147146 -0.0046329 0)
(0.00176001 -0.00521848 0)
(0.00154974 -0.00596943 0)
(0.000941278 -0.00686795 0)
(0.000335648 -0.00777729 0)
(-0.00012912 -0.0084607 0)
(-0.00053537 -0.00882803 0)
(-0.00126489 -0.00869972 0)
(-0.00242034 -0.00815708 0)
(-0.00303317 -0.00773577 0)
(-0.00316039 -0.00750742 0)
(-0.00303445 -0.00737535 0)
(-0.00231714 -0.00755169 0)
(-0.00109532 -0.00813842 0)
(0.000201568 -0.00860002 0)
(0.00134058 -0.00842925 0)
(0.00205823 -0.00782566 0)
(0.00219022 -0.00709339 0)
(0.0017903 -0.00622524 0)
(0.0013738 -0.00548495 0)
(0.00116507 -0.00511231 0)
(0.000697601 -0.00552154 0)
(-2.74116e-05 -0.00475371 0)
(-0.00284451 0.00049646 0)
(-0.000682593 -0.000999234 0)
(-0.00235739 -0.00238262 0)
(-0.00310028 -0.00219824 0)
(0.00339254 -0.0031322 0)
(0.00136044 -0.00496483 0)
(0.0064051 -0.00464338 0)
(0.00357531 -0.00476952 0)
(0.0029393 -0.00606508 0)
(-0.00221441 -0.00338347 0)
(0.00563644 -0.004358 0)
(1.04708e-05 -0.00664923 0)
(0.000260819 -0.00695843 0)
(0.000315676 -0.00711516 0)
(-0.00101674 -0.00470242 0)
(0.00431447 -0.0053601 0)
(0.00184134 -0.00439729 0)
(0.00508096 -0.000503263 0)
(-0.00348962 -0.00170908 0)
(-0.00121299 -0.0035953 0)
(-0.00133247 -0.00357584 0)
(-0.00135067 -0.00692533 0)
(-0.00096425 -0.00847326 0)
(3.10264e-05 -0.00735861 0)
(0.00148071 -0.00684696 0)
(-0.00128152 -0.00672097 0)
(-0.00282619 -0.00417128 0)
(0.00217151 -0.00312388 0)
(-0.000208332 -0.00698651 0)
(-0.000669026 -0.0083656 0)
(-0.000974352 -0.00675602 0)
(0.000265787 -0.00844733 0)
(0.00115506 -0.00375991 0)
(0.00370398 -0.00141259 0)
(0.0047879 -0.00140693 0)
(0.00350455 -0.00221927 0)
(0.00202147 -0.00514101 0)
(0.00185402 -0.00325334 0)
(0.00181958 -0.00315286 0)
(0.00136965 -0.00266485 0)
(0.00113138 -0.00246615 0)
(0.000924331 -0.00218959 0)
(0.000777188 -0.0020256 0)
(0.000533182 -0.00179941 0)
(0.000248284 -0.00183423 0)
(5.24244e-05 -0.00192768 0)
(-7.81549e-05 -0.0020591 0)
(-9.30651e-05 -0.00219145 0)
(-2.10162e-05 -0.00245755 0)
(0.000272174 -0.00278863 0)
(0.000743768 -0.00319628 0)
(0.00132241 -0.00363056 0)
(0.00195193 -0.00395615 0)
(0.0023156 -0.00425792 0)
(0.00229152 -0.00458605 0)
(0.0018269 -0.00515644 0)
(0.00115469 -0.00583105 0)
(0.00044469 -0.00645758 0)
(-0.000374306 -0.00693756 0)
(-0.0015257 -0.00706818 0)
(-0.00276933 -0.00687106 0)
(-0.00321803 -0.00677911 0)
(-0.00328333 -0.00675209 0)
(-0.00292516 -0.00685243 0)
(-0.00190208 -0.00725706 0)
(-0.000701401 -0.00771411 0)
(0.000234473 -0.00789841 0)
(0.000913797 -0.00768652 0)
(0.0013115 -0.00709316 0)
(0.00137765 -0.00643835 0)
(0.0012151 -0.00590273 0)
(0.000974151 -0.00537735 0)
(0.000834926 -0.00508813 0)
(0.00051209 -0.00556551 0)
(-5.20182e-05 -0.00488204 0)
(-0.00269239 -0.00576518 0)
(-0.00290225 -0.0123577 0)
(0.00115623 -0.015624 0)
(-0.000690351 -0.013391 0)
(0.00622554 -0.0148355 0)
(0.00407899 -0.0182538 0)
(0.00694972 -0.0149194 0)
(0.0037239 -0.0150069 0)
(0.00364532 -0.0117161 0)
(0.00238705 -0.00158005 0)
(0.000735375 -0.00255971 0)
(-0.000381073 -0.00879793 0)
(0.000334323 -0.00718195 0)
(-0.00141744 -0.00802472 0)
(-0.00160738 -0.00172816 0)
(0.0037281 -0.00312081 0)
(0.00234213 -0.00721879 0)
(0.0011911 -0.00380089 0)
(-0.00153781 -0.00530845 0)
(0.000691017 -0.0063295 0)
(-0.000181321 -0.00410335 0)
(-0.00159946 -0.00493689 0)
(-0.00160874 -0.00725901 0)
(-0.000394472 -0.00415803 0)
(0.00135955 -0.00511846 0)
(0.000962541 -0.00780447 0)
(0.0014699 -0.000589655 0)
(0.00115535 -0.00107248 0)
(3.16288e-05 -0.0120565 0)
(-0.00147125 -0.0130033 0)
(0.000605483 -0.0122204 0)
(-0.0016445 -0.012278 0)
(-0.00451912 -0.00655333 0)
(0.00332525 -0.0041379 0)
(0.00569766 -0.00719789 0)
(0.00193281 -0.00697695 0)
(0.00238545 -0.00696623 0)
(0.00200976 -0.00591018 0)
(0.00191669 -0.00548697 0)
(0.00155974 -0.00501487 0)
(0.00117967 -0.00473947 0)
(0.000949149 -0.00464436 0)
(0.000790815 -0.00447439 0)
(0.000414446 -0.00424337 0)
(0.00027249 -0.00409123 0)
(9.80851e-05 -0.0041119 0)
(2.17033e-05 -0.00410453 0)
(2.90279e-05 -0.00407298 0)
(0.000181981 -0.00410048 0)
(0.000548291 -0.00409259 0)
(0.00106707 -0.00410452 0)
(0.00164182 -0.0041626 0)
(0.0021675 -0.00412784 0)
(0.00240175 -0.00410249 0)
(0.00241473 -0.00400864 0)
(0.00217257 -0.0039957 0)
(0.00165507 -0.00415954 0)
(0.000986536 -0.00444159 0)
(0.000101355 -0.00483613 0)
(-0.00118913 -0.00523433 0)
(-0.00258177 -0.00560877 0)
(-0.00308177 -0.00587143 0)
(-0.00310495 -0.00608294 0)
(-0.00258635 -0.00638685 0)
(-0.00153219 -0.00672523 0)
(-0.000499007 -0.00700509 0)
(0.00016 -0.00702319 0)
(0.000542227 -0.00677374 0)
(0.000820843 -0.00640076 0)
(0.000933524 -0.00602649 0)
(0.000857291 -0.00568976 0)
(0.000710792 -0.0052946 0)
(0.000609102 -0.00507701 0)
(0.000375165 -0.00563021 0)
(-4.8449e-05 -0.00496335 0)
(0.00139937 -0.0130773 0)
(0.00351868 -0.0145005 0)
(0.00385493 -0.018999 0)
(0.00361626 -0.0185477 0)
(-0.000226819 -0.0163782 0)
(0.00036734 -0.0186435 0)
(0.00184547 -0.0144152 0)
(0.0018478 -0.0139535 0)
(0.00478486 -0.011214 0)
(0.00255036 -0.00803449 0)
(-0.00488604 -0.00701188 0)
(-0.00385474 -0.00674675 0)
(0.00151156 -0.00713572 0)
(-0.0025079 -0.00757726 0)
(0.00400591 0.00123282 0)
(0.000647729 -0.0027529 0)
(0.000968827 -0.0107563 0)
(-0.00322685 -0.00772463 0)
(-0.00353274 -0.00463705 0)
(0.00108206 -0.00419427 0)
(0.00268015 -0.0062145 0)
(-0.00152724 -0.00693959 0)
(-0.000521469 -0.00647177 0)
(-0.00259017 -0.00358767 0)
(0.00548274 -0.00413246 0)
(0.0035272 -0.00464637 0)
(0.00716785 -0.00210052 0)
(-0.000846542 -0.00238637 0)
(-0.000367209 -0.00850337 0)
(-0.000608664 -0.00733282 0)
(-0.000809747 -0.00809393 0)
(-0.00138592 -0.0146533 0)
(-0.000397104 -0.00436612 0)
(-0.00283286 -6.45392e-05 0)
(0.0054232 -0.0119806 0)
(0.00332886 -0.0124452 0)
(0.000893101 -0.0106249 0)
(0.000896852 -0.00963277 0)
(0.00091079 -0.00902695 0)
(0.000776338 -0.00835575 0)
(0.0007079 -0.00796986 0)
(0.000343798 -0.00758202 0)
(0.000239288 -0.00735448 0)
(0.000127907 -0.00711142 0)
(7.28901e-05 -0.00694411 0)
(3.18981e-05 -0.00685963 0)
(-0.000110509 -0.00675213 0)
(-0.000139528 -0.00670864 0)
(-1.93555e-05 -0.00667054 0)
(0.000302059 -0.00656701 0)
(0.000746685 -0.00630953 0)
(0.00131953 -0.00581779 0)
(0.00184056 -0.00517819 0)
(0.00218378 -0.00456691 0)
(0.00224218 -0.00402741 0)
(0.00202789 -0.00364596 0)
(0.00163852 -0.00338139 0)
(0.0011312 -0.00335587 0)
(0.00041548 -0.00358263 0)
(-0.000707734 -0.00405359 0)
(-0.00204518 -0.00475399 0)
(-0.00273574 -0.00536186 0)
(-0.00281355 -0.0057183 0)
(-0.00231124 -0.00602987 0)
(-0.00129024 -0.00625862 0)
(-0.000411742 -0.00641341 0)
(2.77884e-05 -0.00637639 0)
(0.000315852 -0.00620318 0)
(0.000564025 -0.005993 0)
(0.00067125 -0.00577768 0)
(0.000616272 -0.00555044 0)
(0.000517314 -0.00523942 0)
(0.000442706 -0.00507103 0)
(0.000275101 -0.00568569 0)
(-4.2818e-05 -0.005019 0)
(-3.74792e-05 -0.00748222 0)
(0.00659171 -0.01893 0)
(0.00104833 -0.0187406 0)
(0.00331514 -0.0150077 0)
(-0.00109675 -0.0149546 0)
(-0.000337232 -0.0134647 0)
(0.0015268 -0.0126955 0)
(0.000413376 -0.0122123 0)
(0.00164469 -0.0102799 0)
(0.00133219 -0.0110045 0)
(-0.000846482 -0.00897623 0)
(-0.000275268 -0.00187917 0)
(-0.00159881 -0.00597029 0)
(0.00268756 -0.00612951 0)
(0.00304777 -9.75777e-05 0)
(-0.00264419 -0.00939216 0)
(-0.00321686 -0.0136865 0)
(-0.00045305 -0.00945511 0)
(-0.00111719 -0.0017718 0)
(-0.00176473 -0.00162342 0)
(-0.00169377 -0.00768486 0)
(-0.00108225 -0.010023 0)
(0.000550834 -0.0101695 0)
(-0.000912404 -0.000306228 0)
(-0.000489923 0.00110647 0)
(-0.00181398 -0.00369604 0)
(0.00503968 -9.51661e-05 0)
(0.000868273 -0.000844754 0)
(0.00194251 -0.00309371 0)
(0.00256327 -0.00315586 0)
(0.00137039 -0.00301091 0)
(0.000648847 -0.00401363 0)
(0.00352302 -0.00109353 0)
(0.000903406 0.00599071 0)
(-0.000612767 0.000660038 0)
(-0.00127906 -0.00937004 0)
(-6.03514e-05 -0.00855368 0)
(0.000638762 -0.00618585 0)
(0.000575572 -0.00606848 0)
(0.000549771 -0.00553211 0)
(0.000440234 -0.00538105 0)
(0.000389112 -0.0054749 0)
(0.000265573 -0.00551727 0)
(6.94501e-05 -0.00557918 0)
(3.83203e-05 -0.00574905 0)
(-1.60353e-05 -0.0058577 0)
(-7.64139e-05 -0.00602443 0)
(-7.89763e-05 -0.00626081 0)
(6.49295e-05 -0.00659794 0)
(0.00023235 -0.00682833 0)
(0.000390414 -0.00686341 0)
(0.000666506 -0.00660149 0)
(0.000990527 -0.00601869 0)
(0.00127805 -0.00520242 0)
(0.00150359 -0.00425549 0)
(0.00148944 -0.00343343 0)
(0.00134725 -0.00278372 0)
(0.00115817 -0.00251598 0)
(0.000767938 -0.00256801 0)
(-4.3038e-05 -0.00298847 0)
(-0.00126307 -0.00376424 0)
(-0.00224178 -0.00462147 0)
(-0.00248662 -0.00504329 0)
(-0.0021079 -0.00544294 0)
(-0.00113417 -0.00577654 0)
(-0.00038457 -0.00594804 0)
(-4.96033e-05 -0.00597177 0)
(0.000173861 -0.00591271 0)
(0.000391621 -0.0057821 0)
(0.00049107 -0.005627 0)
(0.000442223 -0.00546054 0)
(0.000374418 -0.00520563 0)
(0.000320649 -0.00506804 0)
(0.000201001 -0.00572705 0)
(-3.60255e-05 -0.00505874 0)
(0.000418057 -0.00436192 0)
(-0.00325439 -0.0091192 0)
(-0.000674693 -0.0157784 0)
(-0.00154276 -0.0120025 0)
(-0.00288271 -0.0118786 0)
(-0.000993129 -0.00844611 0)
(-0.000629146 -0.0079195 0)
(-0.000209327 -0.00942913 0)
(0.00020576 -0.00714517 0)
(0.000827184 -0.00815336 0)
(0.00297798 -0.00646037 0)
(0.0024809 -0.00588124 0)
(-0.00128377 -0.00359957 0)
(0.00320195 -0.00344381 0)
(-0.00315425 -0.00564144 0)
(-0.00152934 -0.00974271 0)
(-0.00383993 -0.00906543 0)
(0.00146748 -0.00709759 0)
(-0.00145518 -0.00764994 0)
(-0.00358566 -0.00649833 0)
(-0.00587531 -0.00670072 0)
(0.00224381 -0.00591012 0)
(0.00169404 -0.00744566 0)
(0.0034074 -0.00569306 0)
(-0.00404005 -0.00622143 0)
(-0.00142306 0.00090696 0)
(-0.000897767 0.000384365 0)
(0.000500606 -0.00604599 0)
(0.000865842 -0.00451709 0)
(0.00136128 -0.00332236 0)
(0.00179403 -0.00215594 0)
(-0.000723547 -0.002534 0)
(0.00869602 0.00950514 0)
(0.00649055 0.0104807 0)
(-0.00138473 -0.00180328 0)
(-0.00278948 -0.0044512 0)
(0.000318868 -0.00484486 0)
(-0.000252789 -0.00558669 0)
(5.22467e-05 -0.0063906 0)
(0.000349873 -0.00588678 0)
(0.000440646 -0.0059518 0)
(0.000364403 -0.0059928 0)
(0.000436717 -0.00604498 0)
(0.000355271 -0.00612259 0)
(0.000293435 -0.00620212 0)
(0.000272109 -0.00623514 0)
(0.000318797 -0.00632377 0)
(0.000401579 -0.00654334 0)
(0.000519264 -0.00672081 0)
(0.000516834 -0.006782 0)
(0.000470237 -0.00673188 0)
(0.000407136 -0.00642133 0)
(0.00038187 -0.00580658 0)
(0.000377497 -0.00490325 0)
(0.000428048 -0.00382481 0)
(0.000522013 -0.00277053 0)
(0.000730933 -0.00186008 0)
(0.000924508 -0.00133232 0)
(0.000910582 -0.00120121 0)
(0.000498063 -0.00134489 0)
(-0.00037232 -0.0018976 0)
(-0.00134032 -0.00276838 0)
(-0.00191839 -0.00369814 0)
(-0.00163856 -0.00458161 0)
(-0.00077093 -0.00528116 0)
(-0.000221742 -0.00554739 0)
(5.91773e-06 -0.00566594 0)
(0.000137731 -0.00570298 0)
(0.000279782 -0.00564271 0)
(0.00036175 -0.00552135 0)
(0.000318697 -0.00538701 0)
(0.000266897 -0.00518046 0)
(0.000230602 -0.00506382 0)
(0.000145453 -0.00575641 0)
(-2.90955e-05 -0.00508703 0)
(-4.03636e-06 -0.0102615 0)
(-0.00462846 -0.0128211 0)
(-0.00311167 -0.0128861 0)
(-0.00143271 -0.016041 0)
(-0.00169333 -0.0121403 0)
(0.000406184 -0.00878877 0)
(-0.00204775 -0.010638 0)
(0.00135912 -0.0103344 0)
(-0.00125036 -0.00829111 0)
(0.00199294 -0.00778168 0)
(0.00111386 -0.00590623 0)
(0.00077085 -0.00377626 0)
(0.00285652 -0.00158631 0)
(-0.000487242 -0.0032532 0)
(-0.000222839 8.24766e-05 0)
(-0.00173627 -0.00332569 0)
(-0.000180256 -0.00487587 0)
(-0.0020382 -0.00490328 0)
(-0.00146368 -0.00789483 0)
(-0.0040668 -0.00690372 0)
(-0.00631625 -0.00449228 0)
(0.00177666 -0.00396353 0)
(0.000449888 -0.00995305 0)
(0.000734886 -0.00709729 0)
(-0.000500356 -0.00559985 0)
(0.00241968 -0.00380384 0)
(-0.00425998 -0.00232091 0)
(-0.00204346 -0.00329699 0)
(0.000354741 -0.00517502 0)
(0.000254841 -0.00475328 0)
(0.0025145 -0.00548138 0)
(0.00280371 0.00425314 0)
(0.00646221 0.00890755 0)
(-0.00223624 0.000589405 0)
(-0.000115843 -0.00102068 0)
(0.000483712 -0.00311722 0)
(0.000520001 -0.00372938 0)
(0.00057344 -0.00664922 0)
(0.00126107 -0.00695317 0)
(0.000642355 -0.00661348 0)
(0.000541551 -0.00649222 0)
(0.00058057 -0.00652145 0)
(0.000401804 -0.00675462 0)
(0.000211018 -0.00712652 0)
(0.000156518 -0.00728055 0)
(0.000107405 -0.00731266 0)
(0.000195078 -0.00736933 0)
(0.0002931 -0.00737264 0)
(0.00033522 -0.00732023 0)
(0.000276442 -0.00714161 0)
(8.52779e-05 -0.00680466 0)
(-0.000215204 -0.00621043 0)
(-0.000496061 -0.00535317 0)
(-0.000687293 -0.0042758 0)
(-0.000689166 -0.00316312 0)
(-0.000521528 -0.00216969 0)
(-8.59756e-05 -0.00131084 0)
(0.000477326 -0.000762792 0)
(0.000787471 -0.000583598 0)
(0.000721913 -0.000689892 0)
(0.000248222 -0.00108464 0)
(-0.000383504 -0.00186526 0)
(-0.000740895 -0.00297698 0)
(-0.000582551 -0.00429086 0)
(-0.000203341 -0.00517114 0)
(2.8737e-05 -0.00547138 0)
(0.000101152 -0.00558855 0)
(0.000133419 -0.00561644 0)
(0.00019293 -0.00557472 0)
(0.000234511 -0.00546514 0)
(0.000218321 -0.00533571 0)
(0.000190023 -0.00516353 0)
(0.000163495 -0.0050613 0)
(0.00010422 -0.00577812 0)
(-2.23079e-05 -0.00510713 0)
(-0.00249069 -0.00966015 0)
(-0.0018162 -0.00910749 0)
(-0.00416512 -0.0109157 0)
(-0.00331175 -0.00883633 0)
(-0.00300485 -0.00959517 0)
(-0.00520852 -0.00727937 0)
(-0.00832562 -0.00320044 0)
(0.00220861 -0.00536507 0)
(1.29551e-05 -0.00490345 0)
(-0.00115247 -0.00436283 0)
(-0.00247356 -0.00691506 0)
(-0.00167716 -0.00232128 0)
(-0.00061297 -0.0023004 0)
(-0.00178735 -0.00264567 0)
(-0.000238165 -0.00207377 0)
(-0.00129129 -0.00382099 0)
(0.00212133 -0.00331402 0)
(-0.000255748 -0.00284813 0)
(0.0026254 -0.0041049 0)
(-0.000893083 -0.00777758 0)
(0.000593413 0.00015111 0)
(-0.00383133 0.000755036 0)
(-0.00279971 -0.0100832 0)
(0.000152364 -0.00927314 0)
(6.82119e-05 -0.00646624 0)
(-0.0018261 -0.00441731 0)
(-0.00416731 -0.00280197 0)
(-0.00434647 0.000298901 0)
(0.00361049 -0.00274218 0)
(0.00187294 -0.0040575 0)
(0.00246852 -0.00348088 0)
(0.00549891 -0.00225311 0)
(-0.00225254 0.000563793 0)
(1.48074e-05 -0.000127194 0)
(0.00146587 -0.00267932 0)
(0.00221284 -0.00632303 0)
(0.00171392 -0.00569178 0)
(0.00126487 -0.00659757 0)
(0.00042853 -0.00779899 0)
(4.9644e-05 -0.00818287 0)
(0.000528834 -0.00831285 0)
(0.000896537 -0.00864562 0)
(0.000880766 -0.00879877 0)
(0.000638183 -0.00885181 0)
(0.000492918 -0.00875566 0)
(0.000406729 -0.0086757 0)
(0.000376888 -0.00842336 0)
(0.000395742 -0.00822517 0)
(0.000306554 -0.00785659 0)
(2.12293e-05 -0.00739254 0)
(-0.000434678 -0.00670338 0)
(-0.00107461 -0.00583049 0)
(-0.0016156 -0.00486333 0)
(-0.00184416 -0.00395582 0)
(-0.0017248 -0.00294764 0)
(-0.00137011 -0.00207369 0)
(-0.000669075 -0.00132747 0)
(0.000207248 -0.000913594 0)
(0.000807476 -0.000812152 0)
(0.000974986 -0.00110186 0)
(0.000767146 -0.00165964 0)
(0.00051715 -0.00252615 0)
(0.000452621 -0.00362994 0)
(0.000483591 -0.00471097 0)
(0.000406482 -0.00523164 0)
(0.000242393 -0.00544634 0)
(0.000153345 -0.00552118 0)
(0.000127754 -0.00553266 0)
(0.000116981 -0.0054908 0)
(0.000126072 -0.00540562 0)
(0.000137284 -0.00530277 0)
(0.000132578 -0.00515015 0)
(0.00011293 -0.00505843 0)
(7.35967e-05 -0.00579341 0)
(-1.62297e-05 -0.00512127 0)
(-0.00106521 0.00909894 0)
(-0.00426257 0.00885423 0)
(-0.00314054 0.0090122 0)
(-0.00471795 0.00826248 0)
(-0.00191322 0.00577541 0)
(-0.00289127 0.00239703 0)
(-0.00283635 0.0105024 0)
(-0.000653388 0.00827434 0)
(0.00130131 -0.00238792 0)
(-0.00242419 -0.00276355 0)
(-0.00132954 -0.00384255 0)
(0.00031676 -0.00382941 0)
(-0.000177622 -0.00645902 0)
(-0.000734547 -0.00802097 0)
(-0.000929773 -0.00298459 0)
(-0.000678759 -0.00495806 0)
(0.00092562 -0.00764729 0)
(0.000648825 -0.00566192 0)
(0.00117328 -0.00579602 0)
(0.000940018 -0.00542303 0)
(0.00414415 -0.00272124 0)
(-0.00583511 -0.0040223 0)
(-0.00562932 -0.00488163 0)
(0.00169295 -0.00375972 0)
(0.000379836 -0.0066845 0)
(-0.0041708 -0.00722546 0)
(-0.00581035 -0.00414115 0)
(0.00232884 0.00461675 0)
(0.00140304 0.000448513 0)
(0.00195027 -0.00717898 0)
(-0.000399447 -0.00315981 0)
(-0.000521302 -0.00034315 0)
(-0.00310415 0.00428486 0)
(0.00656254 0.00420852 0)
(0.00326301 0.000324526 0)
(0.00251022 -0.00102555 0)
(0.00356797 -0.00101111 0)
(0.0026003 -0.00218342 0)
(0.00265794 -0.00348547 0)
(0.00172544 -0.00625527 0)
(0.00152029 -0.00806671 0)
(0.00104807 -0.00860757 0)
(0.000638309 -0.0086644 0)
(0.000300413 -0.00884226 0)
(-1.16555e-05 -0.00869711 0)
(-0.000176389 -0.00846119 0)
(-0.000336236 -0.00817216 0)
(-0.000307239 -0.00777824 0)
(-0.000487023 -0.00723382 0)
(-0.000931501 -0.00664791 0)
(-0.0015086 -0.00590232 0)
(-0.00199098 -0.00538165 0)
(-0.00240529 -0.00487998 0)
(-0.00268826 -0.00452344 0)
(-0.00264246 -0.00399768 0)
(-0.00219091 -0.00351611 0)
(-0.00128055 -0.00291988 0)
(-6.94969e-05 -0.00250721 0)
(0.000983518 -0.00233713 0)
(0.00156917 -0.00268444 0)
(0.00169831 -0.00337964 0)
(0.00160383 -0.00428037 0)
(0.00137251 -0.00503989 0)
(0.000947469 -0.00543545 0)
(0.000527711 -0.0054517 0)
(0.000318859 -0.00543261 0)
(0.000187119 -0.00545314 0)
(9.27676e-05 -0.00545608 0)
(5.06471e-05 -0.00542494 0)
(5.22548e-05 -0.00536063 0)
(7.7556e-05 -0.0052826 0)
(8.27203e-05 -0.00514077 0)
(7.27657e-05 -0.0050574 0)
(4.95293e-05 -0.00580545 0)
(-1.09165e-05 -0.00513125 0)
(-0.00205707 -0.000432956 0)
(-0.000786712 -0.00204393 0)
(-0.00216719 -0.00354942 0)
(-0.00073852 -0.00334892 0)
(-0.000439644 -0.00575813 0)
(0.00102037 -0.00791642 0)
(-0.000705839 -0.00144098 0)
(-9.39576e-05 -0.00170286 0)
(3.30221e-05 -0.00715529 0)
(0.00121575 -0.00830691 0)
(0.000419666 -0.00827778 0)
(0.00200895 -0.00770541 0)
(-0.00144134 -0.00807197 0)
(0.000863675 -0.00873043 0)
(-0.000562196 -0.00817992 0)
(-7.96744e-05 -0.00769812 0)
(0.000762765 -0.00728604 0)
(0.00114761 -0.00755441 0)
(0.00100852 -0.00697007 0)
(0.00103343 -0.00635514 0)
(0.000801825 -0.00595792 0)
(-0.00118434 -0.00664499 0)
(-0.00043027 2.8677e-05 0)
(-0.00130051 -0.000922631 0)
(-0.0019377 -0.0104058 0)
(-0.00132777 -0.0105056 0)
(-0.000941279 0.000561272 0)
(0.00301599 0.00250241 0)
(-0.00543996 -0.00637061 0)
(-0.00347998 -0.00645377 0)
(-0.00225724 -0.00576717 0)
(-0.000957309 -0.00749424 0)
(-0.00407658 0.00344942 0)
(0.00388161 0.00352844 0)
(0.00489885 -0.00959023 0)
(0.00420163 -0.00813054 0)
(0.00397491 -0.00636788 0)
(0.00412163 -0.00756795 0)
(0.0044259 -0.00631159 0)
(0.00400826 -0.00579293 0)
(0.00253141 -0.00482807 0)
(0.00146582 -0.00446536 0)
(0.000807473 -0.00388241 0)
(0.000399227 -0.00372051 0)
(9.74978e-05 -0.00373487 0)
(-7.48884e-05 -0.00402983 0)
(-0.000343178 -0.00424861 0)
(-0.000506332 -0.00456504 0)
(-0.000767538 -0.00465662 0)
(-0.00118264 -0.00473627 0)
(-0.00169592 -0.00488604 0)
(-0.00200182 -0.00512711 0)
(-0.00241331 -0.0054817 0)
(-0.00265123 -0.00582818 0)
(-0.00268636 -0.00590072 0)
(-0.00239856 -0.00596284 0)
(-0.00162661 -0.0058667 0)
(-0.000369601 -0.00563858 0)
(0.00112582 -0.00538937 0)
(0.00199701 -0.00545178 0)
(0.00222447 -0.00561047 0)
(0.00211604 -0.00581378 0)
(0.00159418 -0.00589099 0)
(0.000859715 -0.00573386 0)
(0.000446767 -0.00555715 0)
(0.00028019 -0.0054502 0)
(0.000181525 -0.00540302 0)
(7.70616e-05 -0.00538712 0)
(8.75594e-06 -0.00536307 0)
(-2.88834e-06 -0.00531562 0)
(3.19515e-05 -0.00525591 0)
(4.8438e-05 -0.00512949 0)
(4.52453e-05 -0.00505363 0)
(3.33017e-05 -0.00581307 0)
(-6.39418e-06 -0.00513806 0)
(-0.000114 -0.00464325 0)
(0.00040965 -0.00759643 0)
(-0.00156398 -0.00905478 0)
(0.00311052 -0.00676686 0)
(-0.0011894 -0.00788245 0)
(-0.000110378 -0.00964472 0)
(-0.00115388 0.000154262 0)
(-0.00135957 0.000635195 0)
(-0.00120997 -0.00978422 0)
(-0.000329724 -0.0104903 0)
(-0.000461514 -0.00879678 0)
(-0.000482081 -0.00828881 0)
(-0.00142075 -0.0098518 0)
(-0.000521747 -0.00999437 0)
(-0.00163964 -0.00755512 0)