/*--------------------------------*- C++ -*----------------------------------*\
  =========                 |
  \\      /  F ield         | OpenFOAM: The Open Source CFD Toolbox
   \\    /   O peration     | Website:  https://openfoam.org
    \\  /    A nd           | Version:  12
     \\/     M anipulation  |
\*---------------------------------------------------------------------------*/
FoamFile
{
    format      ascii;
    class       IOPosition;
    location    "0.75/lagrangian/cloud";
    object      positions;
}
// * * * * * * * * * * * * * * * * * * * * * * * * * * * * * * * * * * * * * //

5478
(
(1.53761e-08 0.5 1.14909e-08 0.5) 0 7376 1
(1.53777e-08 0.5 1.06932e-08 0.5) 0 7376 1
(1.53792e-08 0.5 0.000214609 0.499785) 0 7376 2
(1.53807e-08 0.5 0.0206611 0.479339) 0 7376 2
(1.53822e-08 0.5 0.0397249 0.460275) 0 7376 2
(1.53837e-08 0.5 0.0878533 0.412147) 0 7376 2
(1.53851e-08 0.5 0.0620002 0.438) 0 7376 2
(1.53865e-08 0.5 0.133791 0.366209) 0 7376 2
(1.53879e-08 0.5 0.139754 0.360246) 0 7376 2
(0.121248 0.439376 0.0673225 0.372053) 0 7376 2
(0.202067 0.398966 0.122465 0.276502) 0 7375 1
(0.210949 0.394525 0.0203499 0.374175) 0 7375 1
(0.218282 0.390859 0.042522 0.348337) 0 7375 1
(0.193063 0.403469 0.0345499 0.368919) 0 7375 1
(0.00530654 0.22043 0.497347 0.276917) 0 7375 2
(0.0684301 0.465785 0.206929 0.258856) 1 7377 1
(0.124178 0.431498 0.437911 0.00641284) 1 7377 2
(0.327038 0.321242 0.336481 0.0152396) 1 7377 2
(0.495613 0.252194 0.0132095 0.238984) 1 2 1
(0.374082 0.312959 0.134211 0.178749) 1 2 1
(0.400332 0.139756 0.299834 0.160078) 1 2 2
(0.192026 0.141233 0.403987 0.262755) 1 2 2
(0.0136809 0.166022 0.327137 0.49316) 2 2 2
(0.716218 0.116052 0.0258387 0.141891) 2 5 1
(0.0258541 0.298433 0.487073 0.18864) 2 4 2
(0.361116 0.0325905 0.319442 0.286851) 3 7379 2
(0.391555 0.114353 0.304222 0.189869) 4 7380 2
(0.407474 0.0448651 0.296263 0.251398) 5 7381 2
(0.655268 0.0924398 0.079926 0.172366) 7 15 1
(0.400275 0.299863 0.189951 0.109912) 8 7384 1
(0.613753 0.193124 0.091175 0.101949) 9 18 1
(0.374747 0.312627 0.263275 0.0493515) 11 23 2
(0.218689 0.390656 0.116277 0.274379) 13 27 2
(0.316878 0.341561 0.256445 0.0851161) 13 26 1
(0.177533 0.0595568 0.351677 0.411234) 15 28 2
(0.129398 0.121777 0.435301 0.313524) 15 30 2
(0.343027 0.0776371 0.250849 0.328486) 16 33 1
(0.114226 0.442887 0.198734 0.244153) 17 32 1
(0.135998 0.432001 0.297321 0.13468) 17 34 1
(0.573341 0.0163574 0.213329 0.196972) 18 7394 2
(0.50833 0.245835 0.0750483 0.170787) 19 7395 1
(0.420756 0.289622 0.0570866 0.232535) 20 7396 1
(0.471569 0.264215 0.0779087 0.186307) 21 7397 1
(0.442134 0.18439 0.278933 0.0945431) 22 7398 2
(0.449163 0.125831 0.275418 0.149588) 23 7399 2
(0.358662 0.320669 0.100159 0.22051) 25 7401 1
(0.472942 0.200129 0.263529 0.0633998) 26 52 2
(0.589202 0.205399 0.0537842 0.151615) 29 59 2
(0.383691 0.00432426 0.30383 0.308155) 30 61 1
(0.494901 0.252549 0.0705481 0.182001) 31 7407 1
(0.41864 0.29068 0.130251 0.160429) 32 7408 1
(0.424959 0.287521 0.275384 0.012137) 35 71 2
(0.148079 0.0401397 0.42596 0.385821) 36 72 2
(0.0886099 0.455695 0.355426 0.100269) 113 77 2
(0.0150085 0.485696 0.00680015 0.492496) 40 81 1
(0.00562657 0.497187 0.322617 0.17457) 114 225 1
(0.46854 0.26573 0.0633397 0.20239) 38 7414 1
(0.170696 0.414652 0.126123 0.288529) 40 78 1
(0.117874 0.441063 0.278574 0.162489) 41 80 1
(0.533812 0.0792145 0.233094 0.153879) 41 7417 2
(0.223329 0.196414 0.191921 0.388336) 42 85 1
(0.232798 0.0998751 0.283726 0.383601) 43 87 1
(0.251846 0.0276157 0.346461 0.374077) 44 89 1
(0.221672 0.0910483 0.298116 0.389164) 45 91 1
(0.173195 0.342415 0.0709878 0.413402) 46 93 1
(0.134809 0.432596 0.224115 0.208481) 47 95 2
(0.0865516 0.456724 0.350873 0.105851) 123 97 2
(0.442829 0.0413589 0.278585 0.237226) 47 7423 2
(0.497006 0.251497 0.0691502 0.182347) 48 7424 1
(0.190559 0.40472 0.198445 0.206275) 49 96 1
(0.44234 0.27883 0.2475 0.0313296) 49 98 1
(0.0684103 0.465795 0.22337 0.242425) 51 103 2
(0.37142 0.31429 0.0671683 0.247122) 51 7427 1
(0.359969 0.320016 0.238025 0.0819904) 53 107 2
(0.316005 0.341997 0.228627 0.11337) 54 109 2
(1.52591e-08 0.499997 2.91958e-06 0.5) 75 7451 1
(1.52704e-08 0.499997 2.94496e-06 0.5) 75 7451 1
(1.55037e-08 0.5 0.0420668 0.457933) 0 7376 2
(1.5503e-08 0.237103 0.262897 0.5) 0 7376 1
(0.229717 0.385141 0.0279973 0.357144) 0 7375 1
(0.499705 0.235674 0.014473 0.250147) 0 7376 1
(0.677104 0.161448 0.105186 0.0562619) 0 7376 2
(0.432197 0.283901 0.282565 0.00133588) 0 0 1
(1.52814e-08 0.5 0.0722121 0.427788) 75 7451 2
(0.41107 0.294465 0.293057 0.00140794) 0 0 1
(0.0407694 0.479615 0.0175864 0.462029) 0 1 2
(1.52917e-08 0.5 0.179329 0.320671) 75 7451 2
(1.53014e-08 0.5 0.143139 0.356861) 75 7451 2
(0.000912174 0.499544 0.136111 0.363433) 75 7451 2
(0.235652 0.175702 0.382174 0.206471) 0 7375 2
(0.0814517 0.459274 0.0837502 0.375524) 75 7451 2
(0.142524 0.428738 0.300467 0.128271) 75 1 2
(0.104954 0.447523 0.176265 0.271258) 75 1 2
(0.0850343 0.457483 0.0558844 0.401598) 1 7377 1
(0.577464 0.194251 0.211268 0.0170171) 1 7377 2
(0.44609 0.276955 0.218398 0.0585573) 76 3 2
(0.527754 0.231115 0.236123 0.00500729) 1 2 2
(0.00156171 0.499219 0.0953979 0.403821) 76 3 2
(0.240778 0.379611 0.0918544 0.287757) 76 3 2
(0.00438149 0.497809 0.00751487 0.490294) 76 3 2
(0.39958 0.30021 0.0522003 0.24801) 2 5 2
(0.174788 0.412606 0.189324 0.223282) 78 7 2
(0.0563775 0.405948 0.0658633 0.471811) 4 9 1
(0.0327273 0.483636 0.0940137 0.389623) 6 13 2
(0.0369098 0.294415 0.481545 0.18713) 82 15 1
(0.18286 0.160959 0.40857 0.247611) 83 17 1
(0.490653 0.172053 0.0826202 0.254673) 79 158 1
(0.651713 0.15265 0.0214932 0.174143) 77 154 1
(0.486844 0.256578 0.199779 0.0567987) 80 160 2
(0.539357 0.230321 0.0252728 0.205049) 81 162 2
(0.011525 0.24372 0.250518 0.494238) 82 161 2
(0.0552338 0.472383 0.358951 0.113432) 86 171 1
(0.372633 0.313683 0.294281 0.019402) 89 29 2
(0.00449099 0.497755 0.32257 0.175185) 91 179 1
(0.305282 0.347359 0.103993 0.243366) 91 181 1
(0.0315138 0.484243 0.279148 0.205096) 18 37 2
(0.381348 0.0754683 0.309326 0.233858) 92 35 1
(0.213276 0.393362 0.180239 0.213123) 164 178 2
(0.129212 0.435394 0.408926 0.0264675) 166 330 1
(0.755652 0.122174 0.0508263 0.0713479) 93 37 2
(0.0719621 0.464019 0.389395 0.0746243) 98 47 2
(0.0228846 0.0427865 0.488558 0.445771) 24 48 2
(0.325319 0.0423716 0.337341 0.294969) 100 51 1
(0.294255 0.0455205 0.352872 0.307352) 101 53 1
(0.0349071 0.482546 0.415288 0.0672583) 104 207 1
(0.0012796 0.361372 0.49936 0.137988) 107 65 1
(0.106688 0.446656 0.441006 0.00564983) 177 204 2
(0.00563375 0.0746224 0.497183 0.422561) 103 205 2
(0.248964 0.375518 0.0914683 0.28405) 105 210 2
(0.324369 0.00586767 0.331948 0.337815) 105 210 1
(0.518643 0.13727 0.103409 0.240679) 106 212 1
(0.395901 0.302049 0.135542 0.166507) 107 214 2
(0.586126 0.0503365 0.156601 0.206937) 110 220 1
(0.224185 0.197218 0.19069 0.387907) 113 226 1
(0.730738 0.0394038 0.0952271 0.134631) 114 228 1
(0.752058 0.0903938 0.123971 0.0335773) 115 81 1
(0.391808 0.304096 0.148748 0.155349) 116 83 2
(0.329249 0.335376 0.0217945 0.313581) 186 368 1
(0.471103 0.0677098 0.264448 0.196739) 187 224 1
(0.130161 0.318974 0.434919 0.115945) 189 228 1
(0.100594 0.318915 0.449703 0.130788) 190 230 1
(0.019659 0.490171 0.441427 0.0487436) 116 232 2
(0.0114335 0.494283 0.27665 0.217633) 117 234 2
(0.0471306 0.476435 0.320419 0.156015) 193 236 2
(0.165374 0.417313 0.376374 0.040939) 195 240 2
(0.313558 0.343221 0.154903 0.188319) 196 242 2
(0.0460922 0.476954 0.278917 0.198037) 123 245 1
(0.390747 0.304626 0.219246 0.0853801) 198 246 2
(0.476117 0.261942 0.0423776 0.219564) 197 390 1
(0.268668 0.365666 0.113131 0.252535) 198 394 1
(1.54203e-08 0.5 0.5 3.35465e-09) 150 7452 2
(1.54206e-08 0.5 0.5 3.19499e-09) 150 7452 2
(1.5934e-08 0.5 0.0321601 0.46784) 75 7451 2
(1.54208e-08 0.5 0.14379 0.35621) 150 7452 2
(0.086997 0.456502 0.136809 0.319692) 75 1 2
(0.0886992 0.45565 0.0967125 0.358938) 75 1 2
(1.41907e-08 0.5 0.209271 0.290729) 75 7451 2
(1.42567e-08 0.5 0.271636 0.228364) 75 7451 2
(0.0533646 0.473318 0.0292765 0.444041) 75 1 2
(1.32226e-08 0.5 0.359912 0.140088) 75 7451 2
(0.157607 0.421196 0.231715 0.189481) 75 7451 2
(0.085366 0.457317 0.0154426 0.441874) 75 1 2
(0.464752 0.267624 0.0866905 0.180934) 75 7451 2
(0.282074 0.358963 0.245791 0.113172) 150 150 2
(0.383021 0.30849 0.0143346 0.294155) 150 150 2
(0.419553 0.290223 0.0364273 0.253796) 150 150 2
(0.256035 0.371983 0.0317287 0.340254) 150 150 2
(0.54296 0.22852 0.198621 0.0298987) 75 1 2
(0.141824 0.344587 0.429088 0.0845009) 75 1 1
(0.173881 0.00348373 0.41306 0.409576) 0 0 2
(0.0119526 0.494024 0.492829 0.00119436) 75 149 1
(0.0700046 0.464998 0.459967 0.00503025) 76 3 2
(0.0633802 0.46831 0.463004 0.00530566) 76 3 2
(0.330156 0.334922 0.331101 0.00382095) 76 3 2
(0.143027 0.428486 0.427107 0.00137963) 76 3 2
(0.204686 0.397657 0.185836 0.211821) 151 152 2
(0.304808 0.347596 0.0813865 0.266209) 151 152 2
(0.266482 0.366759 0.0122205 0.354538) 151 152 2
(0.964248 0.000719849 0.0178762 0.0171564) 76 151 2
(0.403484 0.295096 0.298258 0.00316163) 76 151 2
(0.169781 0.412947 0.00216239 0.41511) 77 151 2
(0.889786 0.00672499 0.0551069 0.0483819) 151 152 1
(0.463101 0.0405598 0.268449 0.22789) 151 152 1
(0.367515 0.316242 0.179592 0.136651) 151 300 1
(0.0144128 0.492794 0.301932 0.190862) 152 300 1
(0.0170326 0.491484 0.42912 0.0623634) 152 300 1
(0.173907 0.413047 0.254929 0.158118) 78 156 2
(0.217402 0.391299 0.11116 0.280139) 154 158 2
(0.364855 0.256865 0.317572 0.0607073) 155 160 1
(0.378011 0.0800711 0.310994 0.230923) 156 162 1
(0.195482 0.267601 0.402259 0.134658) 157 164 1
(0.0863389 0.456831 0.0979698 0.358861) 158 166 2
(0.249101 0.375449 0.272628 0.102821) 84 168 2
(0.250654 0.374673 0.304481 0.0701925) 85 170 2
(0.0237717 0.488114 0.269141 0.218973) 162 174 2
(0.54643 0.226785 0.152093 0.0746917) 165 180 2
(0.565118 0.217441 0.194872 0.0225694) 167 184 2
(0.250324 0.374838 0.12475 0.250088) 168 186 2
(0.379807 0.310097 0.179219 0.130878) 95 190 2
(0.132659 0.314346 0.119324 0.43367) 97 191 2
(0.00403033 0.497985 0.233436 0.264549) 170 336 1
(0.0118802 0.172825 0.49406 0.321235) 171 192 1
(0.383503 0.308249 0.055629 0.25262) 172 194 2
(0.123653 0.438173 0.333728 0.104445) 246 341 2
(0.0816036 0.459198 0.383808 0.0753898) 172 343 2
(0.218372 0.0343278 0.356486 0.390814) 172 343 1
(0.34494 0.290273 0.0372566 0.32753) 173 345 1
(0.295043 0.352478 0.325302 0.0271765) 174 347 2
(0.469044 0.0730231 0.265478 0.192455) 178 354 2
(0.245974 0.377013 0.120246 0.256767) 181 358 1
(0.3503 0.32485 0.0681422 0.256708) 182 214 2
(0.179265 0.410368 0.311838 0.098529) 108 216 2
(0.0240399 0.395504 0.48798 0.0924758) 255 359 1
(0.0517433 0.146849 0.474128 0.327279) 256 361 1
(0.104671 0.133015 0.447665 0.314649) 182 362 2
(0.0912519 0.454374 0.264313 0.190061) 183 365 2
(0.151391 0.307704 0.116601 0.424305) 185 369 1
(0.384804 0.240514 0.0670841 0.307598) 186 371 1
(0.133703 0.433149 0.357513 0.0756359) 262 373 2
(0.154168 0.422916 0.0286731 0.394243) 188 375 2
(0.358347 0.320827 0.151811 0.169015) 189 377 2
(0.245018 0.377491 0.116365 0.261126) 190 379 2
(0.309948 0.345026 0.0419694 0.303056) 191 381 2
(0.244456 0.0789545 0.298818 0.377772) 192 380 2
(0.00747225 0.217806 0.278458 0.496264) 192 383 1
(1.53902e-08 0.499999 9.98399e-07 0.5) 225 7453 1
(1.53912e-08 0.499999 9.99814e-07 0.5) 225 7453 1
(1.46081e-08 0.5 0.0519624 0.448038) 150 7452 2
(1.53922e-08 0.5 0.153336 0.346664) 225 7453 2
(1.46139e-08 0.5 0.00336525 0.496635) 150 7452 2
(0.109572 0.127336 0.317878 0.445214) 75 7451 1
(1.46197e-08 0.5 0.066045 0.433955) 150 7452 2
(0.546207 0.226897 0.071518 0.155379) 75 150 2
(0.260568 0.369716 0.188409 0.181307) 75 150 2
(0.303729 0.348135 0.0677833 0.280352) 75 150 2
(0.335925 0.293991 0.038047 0.332038) 75 150 1
(0.541335 0.106657 0.122676 0.229333) 75 150 1
(0.571947 0.030566 0.18346 0.214026) 75 150 1
(0.382261 0.0226844 0.286185 0.308869) 75 150 1
(0.198538 0.394604 0.400731 0.00612679) 225 299 1
(0.252444 0.00420298 0.373778 0.369575) 75 149 2
(0.394087 0.302957 0.286923 0.0160333) 150 298 1
(0.820381 0.0898093 0.0616275 0.0281818) 150 298 1
(0.238832 0.0414081 0.380584 0.339176) 150 150 1
(0.0432962 0.478352 0.291998 0.186354) 151 152 2
(0.0990569 0.450472 0.447018 0.00345359) 151 152 2
(0.108716 0.445642 0.269307 0.176335) 151 152 2
(0.0488832 0.007802 0.475558 0.467756) 75 149 2
(0.148752 0.00592123 0.425624 0.419703) 225 299 1
(0.0548937 0.00590811 0.466645 0.472553) 75 150 1
(0.306542 0.346729 0.339017 0.0077116) 151 152 2
(0.277293 0.361353 0.212382 0.148971) 226 301 2
(0.45414 0.27293 0.266786 0.00614439) 226 301 2
(0.565897 0.217051 0.211555 0.00549635) 226 301 2
(0.757006 0.121497 0.100109 0.0213881) 226 301 2
(0.426337 0.286832 0.0446578 0.242174) 226 301 2
(0.261218 0.247078 0.369391 0.122313) 226 301 1
(0.53161 0.234195 0.232018 0.00217708) 226 449 1
(0.13665 0.379237 0.431675 0.0524376) 226 449 2
(0.051634 0.474183 0.215992 0.258191) 226 449 1
(0.00213251 0.43719 0.0617433 0.498934) 227 449 2
(0.694197 0.152901 0.0795914 0.0733099) 227 452 2
(0.621948 0.106783 0.0822429 0.189026) 152 300 2
(0.319106 0.0623659 0.278081 0.340447) 152 303 1
(0.129436 0.435282 0.229495 0.205787) 153 305 2
(0.0690468 0.0577647 0.465477 0.407712) 228 305 1
(0.179108 0.313682 0.410446 0.0967636) 229 307 1
(0.196456 0.37622 0.401772 0.0255523) 230 309 1
(0.0749364 0.462532 0.385289 0.077243) 232 313 2
(0.06978 0.46511 0.418179 0.0469314) 233 315 2
(0.357672 0.0973451 0.223819 0.321164) 158 315 1
(0.00670823 0.492666 0.496646 0.00398028) 234 317 1
(0.253687 0.373157 0.353887 0.0192696) 160 319 2
(0.239928 0.100901 0.279135 0.380036) 161 321 1
(0.0235232 0.488238 0.478306 0.00993247) 238 325 2
(0.0378792 0.48106 0.0830964 0.397964) 239 327 2
(0.0700488 0.423926 0.0410496 0.464976) 165 329 1
(0.252693 0.232381 0.373654 0.141272) 241 331 1
(0.0933161 0.453342 0.344483 0.108859) 168 335 2
(0.233241 0.260374 0.38338 0.123006) 243 483 2
(0.372645 0.0137203 0.299957 0.313677) 244 486 1
(0.193929 0.329722 0.0733134 0.403035) 246 490 1
(0.341782 0.101393 0.329109 0.227717) 247 491 2
(0.33163 0.334185 0.0573183 0.276867) 249 496 2
(0.455033 0.214106 0.0583776 0.272484) 250 495 2
(0.647471 0.159548 0.176264 0.0167165) 251 351 1
(0.223628 0.388186 0.139656 0.24853) 253 355 2
(0.141347 0.309919 0.119407 0.429327) 254 503 2
(0.130094 0.428738 0.434953 0.00621505) 329 506 1
(0.256581 0.178254 0.193456 0.37171) 255 508 1
(0.221119 0.120907 0.268534 0.38944) 256 510 1
(0.0313627 0.139937 0.344382 0.484319) 258 511 2
(0.710383 0.0770579 0.0677506 0.144808) 259 513 2
(0.0859014 0.349007 0.457049 0.108042) 334 516 1
(0.345241 0.32738 0.0681174 0.259262) 260 518 2
(0.032354 0.118525 0.365298 0.483823) 261 517 2
(0.170469 0.414765 0.135162 0.279603) 262 522 2
(0.797719 0.0664414 0.0346993 0.101141) 263 524 1
(0.479634 0.260183 0.220571 0.0396116) 264 526 2
(0.356545 0.321727 0.12524 0.196487) 265 528 2
(1.53676e-08 0.5 4.4528e-07 0.5) 300 7454 1
(1.53696e-08 0.5 4.46695e-07 0.5) 300 7454 1
(1.38195e-08 0.5 0.0277743 0.472226) 225 7453 2
(1.53715e-08 0.5 0.161482 0.338518) 300 7454 2
(1.38438e-08 0.5 0.0137032 0.486297) 225 7453 2
(0.0576043 0.471198 0.0318005 0.439397) 150 299 2
(0.12905 0.435475 0.368615 0.0668602) 225 299 2
(0.142724 0.428638 0.324337 0.104301) 225 299 2
(0.226231 0.0314954 0.386884 0.355389) 225 299 1
(0.95554 0.0222299 0.00823074 0.0139991) 150 298 1
(0.167045 0.416478 0.404798 0.0116799) 225 447 1
(0.156882 0.421559 0.410182 0.0113771) 225 447 1
(0.17518 0.41241 0.402192 0.0102181) 225 447 1
(0.177138 0.411431 0.404255 0.00717599) 225 447 1
(0.18449 0.407755 0.399313 0.00844148) 225 447 1
(0.196893 0.401554 0.388011 0.0135429) 225 447 1
(0.20192 0.39904 0.386389 0.0126507) 225 447 1
(0.170061 0.414969 0.407794 0.00717522) 225 447 1
(0.91286 0.0435702 0.00363342 0.0399368) 225 447 1
(0.789754 0.105123 0.0201912 0.0849316) 150 298 1
(0.246965 0.376518 0.368357 0.0081602) 225 447 1
(0.2471 0.37645 0.365713 0.0107376) 225 447 1
(0.21033 0.203204 0.394835 0.191631) 300 448 1
(0.0148166 0.492592 0.230235 0.262357) 300 596 1
(0.0636635 0.468168 0.128896 0.339272) 300 596 1
(0.165127 0.417437 0.177167 0.240269) 301 596 1
(0.170115 0.414942 0.380484 0.034458) 301 596 1
(0.421963 0.289018 0.109767 0.179251) 301 596 1
(0.467873 0.266063 0.184027 0.0820368) 301 596 1
(0.571081 0.214459 0.133579 0.0808805) 301 596 1
(0.543307 0.228346 0.121632 0.106715) 301 450 2
(0.797715 0.101143 0.100727 0.000415994) 301 596 1
(0.588934 0.0802662 0.205533 0.125267) 301 450 1
(0.545027 0.227486 0.2129 0.0145868) 301 598 1
(0.228888 0.385556 0.294167 0.0913894) 301 598 1
(0.0629595 0.46852 0.303232 0.165288) 302 598 1
(0.81482 0.0925901 0.0228773 0.0697128) 302 601 2
(0.398646 0.0452639 0.255413 0.300677) 303 600 2
(0.267586 0.366207 0.286777 0.0794296) 304 605 2
(0.075486 0.156675 0.462257 0.305582) 304 456 1
(0.414831 0.0783121 0.292584 0.214272) 305 458 1
(0.572258 0.20328 0.213871 0.0105904) 306 460 1
(0.356229 0.321886 0.238109 0.0837761) 231 460 2
(0.153524 0.423238 0.415761 0.00747689) 232 462 2
(0.137567 0.431217 0.163692 0.267525) 233 464 2
(0.169193 0.175913 0.239491 0.415403) 233 464 1
(0.209437 0.395282 0.171266 0.224015) 234 466 2
(0.0144925 0.143719 0.492754 0.349034) 234 465 2
(0.283667 0.0520932 0.306073 0.358166) 235 468 1
(0.0885563 0.152503 0.303219 0.455722) 237 469 2
(0.278107 0.360946 0.311144 0.049802) 238 474 2
(0.245322 0.27316 0.104179 0.377339) 239 476 1
(0.277632 0.112597 0.248587 0.361184) 240 478 1
(0.27921 0.358789 0.00160638 0.360395) 242 482 1
(0.175667 0.412167 0.331812 0.0803542) 318 632 1
(0.360208 0.169387 0.319896 0.150508) 320 636 2
(0.32664 0.0257172 0.310963 0.33668) 321 639 1
(0.291702 0.0218942 0.354149 0.332255) 322 640 2
(0.197577 0.0476817 0.401212 0.35353) 323 642 2
(0.226587 0.0479832 0.386706 0.338723) 324 644 2
(0.318871 0.0456777 0.294887 0.340564) 325 647 1
(0.337596 0.199355 0.131847 0.331202) 326 649 1
(0.371231 0.314384 0.261364 0.0530207) 327 651 2
(0.24696 0.37652 0.301341 0.0751786) 328 653 2
(0.163786 0.0257902 0.418107 0.392317) 329 654 2
(0.279369 0.116216 0.244099 0.360315) 330 657 1
(0.317475 0.309401 0.0318616 0.341263) 331 659 1
(0.337517 0.331242 0.155439 0.175802) 332 661 2
(0.250951 0.0818101 0.292714 0.374524) 333 660 2
(0.0468409 0.193623 0.282957 0.47658) 334 662 2
(0.19468 0.0242857 0.40266 0.378374) 334 664 2
(0.255661 0.196799 0.175371 0.37217) 335 667 1
(0.31269 0.110491 0.233165 0.343655) 336 669 1
(0.217547 0.391227 0.387781 0.00344537) 338 670 1
(0.398956 0.116933 0.300522 0.183589) 338 672 2
(1.30316e-08 0.499994 5.88144e-06 0.5) 375 7455 1
(1.30325e-08 0.499994 5.89198e-06 0.5) 375 7455 1
(1.39682e-08 0.5 0.0414976 0.458502) 300 7454 2
(1.53922e-08 0.5 0.167274 0.332726) 375 7455 2
(0.506409 0.246796 0.131789 0.115007) 225 7453 2
(1.39991e-08 0.5 0.000578584 0.499421) 300 7454 2
(0.559971 0.220015 0.169507 0.0505074) 225 7453 2
(1.40295e-08 0.5 0.0782765 0.421723) 300 7454 2
(0.220314 0.252181 0.389843 0.137662) 300 448 1
(0.233432 0.266408 0.383284 0.116876) 300 448 1
(0.230477 0.121759 0.384761 0.263002) 300 448 1
(0.232831 0.138497 0.383585 0.245087) 300 448 1
(0.21245 0.0795438 0.393775 0.314231) 300 448 1
(0.284157 0.357921 0.314258 0.0436638) 300 596 1
(0.206416 0.396792 0.302069 0.0947228) 300 596 1
(0.212466 0.393767 0.311064 0.0827032) 300 596 1
(0.22649 0.386755 0.31567 0.0710853) 300 596 1
(0.241729 0.119287 0.379136 0.259848) 300 448 1
(0.270533 0.364733 0.336004 0.0287295) 300 596 1
(0.241982 0.379009 0.339359 0.0396502) 300 596 1
(0.278294 0.360853 0.318289 0.0425636) 300 596 1
(0.108853 0.445574 0.321723 0.123851) 300 596 1
(0.196663 0.0755372 0.401669 0.326131) 300 596 2
(0.0413379 0.479331 0.478185 0.00114596) 376 745 1
(0.0176172 0.491191 0.475283 0.0159083) 376 745 1
(0.122088 0.438956 0.337166 0.10179) 376 745 1
(0.280047 0.359977 0.199331 0.160645) 376 745 1
(0.287504 0.356248 0.126068 0.23018) 376 745 1
(0.10286 0.202558 0.246011 0.44857) 376 745 2
(0.510917 0.244541 0.140834 0.103707) 376 745 1
(0.575547 0.212226 0.0136151 0.198611) 376 748 2
(0.846106 0.0769472 0.0439185 0.0330286) 376 748 2
(0.415476 0.27011 0.292262 0.0221515) 376 599 1
(0.506138 0.178593 0.246931 0.0683378) 376 599 1
(0.391125 0.0830941 0.304438 0.221344) 376 599 1
(0.0908651 0.00989949 0.454567 0.444668) 376 599 1
(0.231885 0.384058 0.190315 0.193742) 377 747 1
(0.738891 0.043613 0.0869413 0.130554) 377 750 1
(0.47621 0.261895 0.0833651 0.17853) 378 752 2
(0.497941 0.248972 0.00205752 0.25103) 379 754 1
(0.282596 0.357035 0.358702 0.00166739) 381 609 1
(0.306805 0.156243 0.346597 0.190355) 382 611 1
(0.366098 0.162616 0.316951 0.154335) 383 613 1
(0.583712 0.208144 0.000293479 0.207851) 384 615 2
(0.214479 0.0753843 0.317376 0.39276) 309 615 1
(0.260461 0.192088 0.177681 0.369769) 310 617 1
(0.297177 0.351412 0.257239 0.0941729) 311 619 2
(0.256395 0.0268988 0.344904 0.371802) 312 618 2
(0.308172 0.00640746 0.345914 0.339506) 312 620 2
(0.293302 0.231569 0.12178 0.353349) 313 623 1
(0.280755 0.359623 0.325465 0.0341581) 314 625 2
(0.285248 0.357376 0.30105 0.0563256) 315 627 2
(0.351237 0.0641844 0.260197 0.324381) 316 629 1
(0.112726 0.112524 0.331113 0.443637) 318 630 2
(0.189324 0.405338 0.0395823 0.365755) 395 637 2
(0.357116 0.0905292 0.230913 0.321442) 396 788 1
(0.475157 0.262421 0.233365 0.0290567) 397 790 2
(0.395795 0.302103 0.0153673 0.286735) 398 792 2
(0.0307626 0.153134 0.331485 0.484619) 399 791 2
(0.293282 0.024832 0.353359 0.328527) 399 793 2
(0.292719 0.193538 0.160103 0.353641) 400 796 1
(0.415738 0.292131 0.240693 0.0514376) 401 798 2
(0.307222 0.346389 0.211749 0.13464) 402 800 2
(0.419185 0.208139 0.0822687 0.290407) 403 802 1
(0.296069 0.271165 0.0808 0.351965) 404 804 1
(0.0376315 0.443049 0.0381352 0.481184) 405 806 1
(0.00205832 0.498971 0.477853 0.0211179) 406 808 2
(0.0665846 0.466708 0.0446374 0.42207) 482 810 2
(0.342165 0.0405322 0.288385 0.328918) 408 809 2
(0.0499609 0.191965 0.47502 0.283054) 408 811 2
(0.236446 0.381777 0.190745 0.191032) 484 814 2
(0.168282 0.415859 0.0138766 0.401983) 485 962 1
(0.2113 0.191087 0.39435 0.203263) 485 816 1
(0.317272 0.341364 0.300068 0.0412956) 486 818 2
(0.144333 0.427833 0.0285385 0.399295) 487 966 1
(1.53961e-08 0.5 0.5 6.29602e-09) 450 7456 2
(1.53969e-08 0.5 0.5 6.14148e-09) 450 7456 2
(0.695362 0.152319 0.0858798 0.0664394) 300 7454 2
(1.53977e-08 0.5 0.137766 0.362234) 450 7456 2
(1.53932e-08 0.5 0.0226159 0.477384) 375 7455 2
(0.219406 0.390297 0.291209 0.0990875) 375 597 2
(0.274679 0.36266 0.0593563 0.303304) 375 597 2
(0.284133 0.357933 0.0247074 0.333226) 375 597 2
(1.41469e-08 0.5 0.102395 0.397605) 375 7455 2
(0.712943 0.143528 0.112807 0.0307216) 300 7454 2
(0.419861 0.0700624 0.290069 0.220007) 375 597 1
(0.434659 0.0488481 0.282671 0.233823) 375 597 1
(0.474068 0.116329 0.262966 0.146637) 375 597 1
(0.381802 0.00616798 0.309099 0.302931) 375 597 1
(0.300808 0.349596 0.236815 0.112781) 375 745 1
(0.223032 0.388484 0.25433 0.134154) 375 745 1
(0.231486 0.384257 0.228744 0.155513) 375 745 1
(0.197102 0.401449 0.19604 0.20541) 375 745 1
(0.212396 0.393802 0.0296717 0.36413) 375 745 1
(0.2167 0.39165 0.0701673 0.321483) 375 745 1
(0.24507 0.377465 0.19864 0.178825) 375 745 1
(0.255961 0.372019 0.0895908 0.282428) 375 745 1
(0.275731 0.362135 0.00585346 0.356281) 375 745 1
(0.327703 0.134627 0.336148 0.201522) 450 746 1
(0.488478 0.152169 0.255761 0.103592) 450 746 1
(0.369918 0.303182 0.315041 0.0118592) 450 894 2
(0.256957 0.338497 0.0330249 0.371522) 451 894 2
(0.463147 0.268427 0.00633349 0.262093) 451 748 2
(0.89297 0.0535152 0.0534935 2.17659e-05) 451 894 1
(0.968566 0.00711786 0.00859908 0.0157169) 451 894 2
(0.0226734 0.129176 0.488663 0.359487) 451 748 1
(0.00989663 0.126225 0.495052 0.368827) 451 748 1
(0.00287544 0.168716 0.498562 0.329846) 451 748 1
(0.216876 0.00287588 0.391562 0.388686) 451 748 1
(0.205108 0.397446 0.239876 0.15757) 451 896 1
(0.0694053 0.465297 0.0713577 0.39394) 451 896 1
(0.225004 0.387498 0.299802 0.0876955) 452 896 1
(0.622971 0.179499 0.00901511 0.188514) 452 896 2
(0.615237 0.00145046 0.190931 0.192381) 452 899 1
(0.368878 0.315561 0.118244 0.197317) 453 901 2
(0.488222 0.238415 0.017474 0.255889) 454 903 1
(0.013146 0.493427 0.0378361 0.455591) 381 758 2
(0.207333 0.396334 0.147725 0.248609) 457 760 2
(0.405664 0.08443 0.297168 0.212738) 458 762 1
(0.0716912 0.464154 0.0134622 0.450692) 385 766 2
(0.118211 0.0260479 0.440895 0.414847) 385 765 2
(0.195826 0.00228362 0.402087 0.399804) 386 767 2
(0.222889 0.0449588 0.343597 0.388556) 387 770 1
(0.225836 0.0941785 0.292903 0.387082) 388 772 1
(0.254191 0.068709 0.304196 0.372905) 389 774 1
(0.28421 0.0178841 0.340011 0.357895) 390 776 1
(0.299438 0.045676 0.304605 0.350281) 391 778 1
(0.276896 0.0560298 0.305522 0.361552) 392 780 1
(0.779253 0.082449 0.0279242 0.110373) 394 784 1
(0.0184735 0.0868357 0.403928 0.490763) 396 785 2
(0.435035 0.282483 0.175458 0.107024) 472 939 2
(0.18727 0.1144 0.291965 0.406365) 473 938 2
(0.308897 0.0809129 0.264639 0.345552) 473 941 1
(0.297373 0.351314 0.278607 0.0727063) 474 943 2
(0.140864 0.11051 0.319058 0.429568) 475 942 2
(0.324925 0.259814 0.337537 0.0777238) 550 945 1
(0.122674 0.319585 0.438663 0.119078) 551 947 1
(0.463942 0.0811218 0.268029 0.186907) 477 948 2
(0.435312 0.174939 0.107405 0.282344) 478 951 1
(0.0981205 0.45094 0.327594 0.123346) 554 953 2
(0.0957133 0.452143 0.241112 0.211032) 555 955 2
(0.046125 0.476938 0.46779 0.00914781) 555 1103 1
(0.26901 0.354342 0.365495 0.0111528) 556 957 1
(0.2547 0.37265 0.33867 0.0339801) 482 959 2
(0.21208 0.0715232 0.322437 0.39396) 483 958 2
(0.355523 0.322239 0.0317242 0.290514) 558 961 2
(0.256488 0.371756 0.101963 0.269794) 559 963 2
(0.302533 0.348734 0.133981 0.214752) 560 965 2
(0.289532 0.355234 0.269297 0.0859368) 561 967 2
(0.167441 0.41628 0.141132 0.275148) 487 969 2
(1.53902e-08 0.5 0.5 8.86719e-09) 525 7457 2
(1.53912e-08 0.5 0.5 8.65163e-09) 525 7457 2
(1.35056e-08 0.5 0.0417572 0.458243) 450 7456 2
(1.53922e-08 0.5 0.0999985 0.400001) 525 7457 2
(1.35315e-08 0.5 0.00772088 0.492279) 450 7456 2
(0.17612 0.41194 0.139849 0.272091) 450 746 2
(0.21275 0.393625 0.253703 0.139922) 375 597 2
(0.169642 0.415179 0.144167 0.271012) 450 746 2
(0.2336 0.3832 0.0887007 0.294499) 450 746 2
(0.315807 0.30354 0.0385567 0.342097) 375 7455 1
(0.284871 0.357564 0.167841 0.189723) 450 894 1
(0.208758 0.395621 0.108117 0.287504) 450 894 1
(0.219356 0.390322 0.0748053 0.315517) 450 894 1
(0.20664 0.39668 0.0780046 0.318676) 450 894 1
(0.25978 0.36978 0.37011 0.000329517) 450 894 2
(0.266976 0.366512 0.0342768 0.332235) 450 894 1
(1.53932e-08 0.5 0.0480336 0.451966) 525 7457 2
(0.40729 0.292653 0.296355 0.00370159) 525 895 1
(0.454937 0.130732 0.272532 0.141799) 525 895 1
(0.283293 0.358353 0.0409176 0.317436) 450 894 1
(0.291653 0.354173 0.0233771 0.330796) 450 894 1
(0.291412 0.354294 0.0805843 0.27371) 450 894 1
(0.283105 0.358447 0.126041 0.232406) 450 894 1
(0.490197 0.0703863 0.254901 0.184515) 525 895 1
(0.473797 0.263102 0.209763 0.053339) 525 1043 1
(0.748951 0.00309225 0.125524 0.122432) 525 1043 2
(0.240086 0.233657 0.379957 0.1463) 525 1043 2
(0.27075 0.364279 0.364625 0.000345976) 600 1044 1
(0.0994304 0.188709 0.450285 0.261576) 600 1044 1
(0.220331 0.389835 0.0856856 0.304149) 526 897 2
(0.540211 0.229894 0.0516409 0.178253) 526 897 2
(0.273289 0.363356 0.0998041 0.263552) 526 1046 2
(0.835921 0.0820395 0.0576151 0.0244244) 526 1045 1
(0.287396 0.192659 0.356302 0.163643) 526 897 1
(0.164857 0.417571 0.277501 0.14007) 526 1045 1
(0.129613 0.000658126 0.434536 0.435194) 451 897 1
(0.0429683 0.478516 0.0497713 0.428745) 526 1045 1
(0.0516227 0.474189 0.151325 0.322863) 526 1045 1
(0.26723 0.304881 0.0615043 0.366385) 527 1045 2
(0.866779 0.0666104 0.0129924 0.053618) 527 1045 1
(0.038258 0.364224 0.480871 0.116647) 528 1049 2
(0.299006 0.0403592 0.310138 0.350497) 455 905 1
(0.202347 0.398827 0.0235661 0.37526) 532 909 2
(0.24735 0.376325 0.303053 0.0732717) 535 915 2
(0.0874788 0.0933933 0.456261 0.362867) 460 914 2
(0.214806 0.0112224 0.392597 0.381374) 461 916 2
(0.237395 0.0773108 0.303992 0.381303) 462 919 1
(0.24483 0.110616 0.266968 0.377585) 463 921 1
(0.215241 0.0124348 0.392379 0.379945) 464 922 2
(0.265269 0.367365 0.000398007 0.366967) 466 927 2
(0.277185 0.283315 0.0780929 0.361407) 467 929 1
(0.0865409 0.190459 0.45673 0.26627) 543 931 1
(0.134415 0.165588 0.267205 0.432792) 469 930 2
(0.00101631 0.191449 0.308043 0.499492) 470 932 2
(0.289726 0.0256394 0.355137 0.329498) 470 934 2
(0.315561 0.181917 0.160303 0.34222) 471 937 1
(0.325666 0.0663563 0.337167 0.270811) 546 1085 2
(0.335707 0.220339 0.111808 0.332147) 547 1088 1
(0.304767 0.347616 0.13709 0.210526) 548 1090 2
(0.0917197 0.106142 0.45414 0.347998) 548 1089 2
(0.320783 0.325175 0.339608 0.0144335) 624 1092 1
(0.289617 0.355191 0.167061 0.188131) 625 1094 2
(0.244894 0.377553 0.298878 0.0786747) 626 1096 2
(0.417564 0.291218 0.101678 0.18954) 552 1098 2
(0.254595 0.1195 0.372703 0.253202) 627 1098 1
(0.0126119 0.19533 0.493694 0.298364) 628 1100 1
(0.189979 0.405011 0.0307219 0.374289) 555 1104 2
(0.161503 0.0781239 0.419248 0.341124) 630 1104 1
(0.335827 0.321198 0.332086 0.010888) 631 1106 1
(0.26438 0.36781 0.0902436 0.277566) 632 1108 2
(0.208334 0.395833 0.00429657 0.391537) 633 1110 2
(0.238003 0.372914 0.380998 0.00808413) 634 1112 1
(0.197977 0.158667 0.401012 0.242345) 635 1114 1
(0.200068 0.00718783 0.399966 0.392778) 636 1116 1
(0.517641 0.241179 0.206226 0.0349539) 562 1117 1
(1.51844e-08 0.5 0.49992 8.02134e-05) 600 7458 2
(1.51918e-08 0.5 0.499928 7.23012e-05) 600 7458 2
(0.0377603 0.48112 0.17618 0.30494) 525 7457 2
(1.5199e-08 0.5 0.0290768 0.470923) 600 7458 2
(0.157243 0.421378 0.389862 0.0315167) 525 895 2
(0.0401433 0.479928 0.00807428 0.471854) 525 7457 2
(0.327821 0.035053 0.336089 0.301036) 450 894 2
(0.120468 0.439766 0.122338 0.317428) 525 1043 1
(0.210215 0.394893 0.309669 0.0852232) 525 895 2
(0.12486 0.43757 0.125737 0.311832) 525 1043 1