/*--------------------------------*- C++ -*----------------------------------*\
  =========                 |
  \\      /  F ield         | OpenFOAM: The Open Source CFD Toolbox
   \\    /   O peration     | Website:  https://openfoam.org
    \\  /    A nd           | Version:  12
     \\/     M anipulation  |
\*---------------------------------------------------------------------------*/
FoamFile
{
    format      ascii;
    class       vectorField;
    location    "0.75/lagrangian/cloud";
    object      U;
}
// * * * * * * * * * * * * * * * * * * * * * * * * * * * * * * * * * * * * * //


5478
(
(1.38304e-12 -1.32116e-05 0)
(1.35808e-12 -1.32129e-05 0)
(1.33357e-12 -1.32142e-05 0)
(1.3095e-12 -1.32155e-05 0)
(1.28587e-12 -1.32168e-05 0)
(1.26266e-12 -1.3218e-05 0)
(1.23987e-12 -1.32193e-05 0)
(1.21749e-12 -1.32205e-05 0)
(1.19552e-12 -1.32217e-05 0)
(-0.000364107 -0.000121937 0)
(0.00139993 -0.000109948 0)
(0.00241772 -0.00359558 0)
(0.00167706 -0.0047834 0)
(0.00148127 -0.00433231 0)
(0.000473534 -0.00279737 0)
(-0.000407488 -0.00156344 0)
(-0.000731199 0.00133093 0)
(-0.00180115 -0.00147455 0)
(-0.00113927 -0.000258255 0)
(0.000192156 0.000390238 0)
(-0.00218966 0.000274863 0)
(-0.00225967 -0.00446297 0)
(0.00396045 -0.00536374 0)
(0.0020774 -0.0201382 0)
(-0.00267221 -0.0264647 0)
(-0.000280528 -0.028112 0)
(-0.000543189 -0.0278869 0)
(0.000451233 -0.0304811 0)
(0.000134283 -0.0261957 0)
(-0.000447838 -0.0301835 0)
(-0.000362944 -0.0263223 0)
(0.000438762 -0.0252416 0)
(0.00143754 -0.02177 0)
(0.000268937 -0.0252462 0)
(0.000562146 -0.021002 0)
(9.40241e-05 -0.0194599 0)
(-3.56308e-05 -0.0198947 0)
(0.000115538 -0.0250408 0)
(0.000353913 -0.0253065 0)
(-0.00033564 -0.0230928 0)
(-0.000371361 -0.0276882 0)
(0.000248101 -0.0311373 0)
(-0.000153778 -0.0297475 0)
(-8.71858e-05 -0.030602 0)
(-3.18323e-05 -0.0294847 0)
(-0.0010223 -0.0256084 0)
(-0.000124648 -0.0250928 0)
(0.00107938 -0.0214211 0)
(0.00024222 -0.0215507 0)
(-0.00124574 -0.0254031 0)
(-0.00128989 -0.025292 0)
(0.000381637 -0.0199951 0)
(-6.56562e-06 -0.0210922 0)
(-0.000894846 -0.0164969 0)
(-0.000813605 -0.0149667 0)
(-0.00131088 -0.0218724 0)
(-0.000437605 -0.0267126 0)
(0.000154208 -0.0235686 0)
(-0.000963286 -0.021167 0)
(-0.00106168 -0.0191039 0)
(1.28715e-05 -0.0156404 0)
(0.00020638 -0.0143522 0)
(-0.000518772 -0.0132544 0)
(-0.000428687 -0.0126519 0)
(-4.3426e-05 -0.0125536 0)
(0.00122365 -0.00969844 0)
(0.00231879 -0.011793 0)
(0.000621714 -0.0234801 0)
(0.000144182 -0.0260723 0)
(-0.000596862 -0.0249274 0)
(0.00106158 -0.0254101 0)
(0.00149055 -0.0160914 0)
(-0.000829801 -0.026422 0)
(0.000325843 -0.0207049 0)
(0.000378645 -0.0203956 0)
(2.44753e-12 -1.31338e-05 0)
(2.33258e-12 -1.31435e-05 0)
(1.55791e-06 -1.33418e-05 0)
(1.52951e-06 -1.33408e-05 0)
(0.00191794 -0.00457807 0)
(0.000345895 -1.6132e-05 0)
(0.000454019 -2.74152e-05 0)
(0.00169557 -0.0063378 0)
(2.22303e-12 -1.31529e-05 0)
(0.00115309 -0.00525361 0)
(0.000989113 -0.000212557 0)
(2.11861e-12 -1.31618e-05 0)
(2.01908e-12 -1.31702e-05 0)
(0.000452038 -0.000972702 0)
(-3.94833e-06 -0.00239363 0)
(0.00041301 -0.0011458 0)
(0.000252538 -0.0012627 0)
(0.000381019 -0.0013602 0)
(-0.000474584 0.000490324 0)
(-0.00323133 -0.00037058 0)
(0.00155711 -0.00301975 0)
(-0.00279341 -0.00251715 0)
(-0.00112704 -0.00270354 0)
(-0.000229454 0.00019167 0)
(0.000245405 -0.00026346 0)
(0.00137243 -0.0116271 0)
(-0.00269955 -0.0277487 0)
(-0.00150174 -0.0259603 0)
(-0.00126949 -0.0277995 0)
(-0.000414483 -0.0251198 0)
(0.000680295 -0.0270431 0)
(-0.00180762 -0.035318 0)
(-0.0107091 -0.0183049 0)
(2.16807e-05 -0.0323378 0)
(-0.000435053 -0.0339549 0)
(-0.000733399 -0.0296084 0)
(6.68131e-05 -0.025672 0)
(-0.000363556 -0.0231187 0)
(0.00081619 -0.0204217 0)
(-0.00111685 -0.0232834 0)
(0.000818017 -0.0169572 0)
(0.00120266 -0.0212677 0)
(-0.00191656 -0.0354371 0)
(0.00078268 -0.0290211 0)
(-0.00188883 -0.0207663 0)
(0.000353586 -0.0241963 0)
(0.00140144 -0.0208965 0)
(0.00016964 -0.0227773 0)
(0.000809238 -0.0237682 0)
(0.000671173 -0.019742 0)
(-0.000149852 -0.0177003 0)
(0.000950292 -0.0300385 0)
(-0.000726029 -0.0286555 0)
(0.000593868 -0.0202142 0)
(0.000134163 -0.0203169 0)
(0.000112823 -0.0256082 0)
(-0.00136942 -0.0247422 0)
(0.000256328 -0.0244005 0)
(-0.00167886 -0.0228403 0)
(-0.00109699 -0.019538 0)
(-0.0023212 -0.019427 0)
(-0.000576995 -0.0162104 0)
(-0.000371127 -0.0263708 0)
(-0.0011991 -0.0306927 0)
(-0.00163091 -0.024345 0)
(-0.00161062 -0.0233572 0)
(-0.00167423 -0.0215522 0)
(-0.00189928 -0.0212327 0)
(-0.000735785 -0.0201563 0)
(-0.00200524 -0.0167295 0)
(-0.00189442 -0.0175277 0)
(0.00278276 -0.0139233 0)
(0.00349282 -0.012533 0)
(-0.000912575 -0.0208904 0)
(0.00462497 -0.0146875 0)
(5.15569e-14 -1.32413e-05 0)
(5.12048e-14 -1.32414e-05 0)
(-2.17536e-06 -1.36888e-05 0)
(5.08551e-14 -1.32416e-05 0)
(0.000388979 -0.00136548 0)
(0.000386428 -0.00139716 0)
(-7.52903e-06 -1.21536e-05 0)
(-7.17348e-06 -1.22136e-05 0)
(0.000399257 -0.00146161 0)
(-9.58731e-06 -1.13056e-05 0)
(0.000299298 -0.000566171 0)
(0.000388444 -0.0014291 0)
(0.00141047 -0.0015715 0)
(0.00347571 -0.00342713 0)
(-0.00679542 -0.000155423 0)
(-0.00712429 -0.000500844 0)
(0.00458095 -0.00542807 0)
(0.00174576 -0.00182571 0)
(0.000446205 -0.00173109 0)
(0.000185161 -0.00539055 0)
(0.000982112 -0.00248628 0)
(5.53171e-05 -0.00295935 0)
(-0.00193804 -0.000848328 0)
(0.000796112 -0.00255897 0)
(0.00200761 -0.000273815 0)
(0.000181699 -0.00212537 0)
(-0.0006067 -0.00322526 0)
(-0.000914619 -0.00381563 0)
(-0.00353975 0.00108163 0)
(0.000205345 -0.00493248 0)
(-0.00379619 -0.0062095 0)
(-0.00197738 -0.00178177 0)
(-0.00163145 -0.0016576 0)
(-0.00243412 -0.00278823 0)
(-0.00229525 -0.00243 0)
(-0.00116017 -0.00103565 0)
(-0.00534983 -0.0310732 0)
(-0.00269942 -0.0371325 0)
(-0.000467891 -0.0341203 0)
(-0.000474445 -0.0354782 0)
(-0.000558691 -0.0341659 0)
(-0.00167807 -0.0312917 0)
(-0.0014506 -0.0325403 0)
(-0.00255769 -0.0340805 0)
(0.000765063 -0.0327506 0)
(-0.00113812 -0.0326431 0)
(-0.0017906 -0.0298533 0)
(-0.000709088 -0.0272576 0)
(0.000456723 -0.0277698 0)
(-0.000331667 -0.0268506 0)
(0.0011833 -0.0303009 0)
(0.000448142 -0.0284688 0)
(0.000473259 -0.0255314 0)
(-0.000295068 -0.035568 0)
(0.00130428 -0.0312688 0)
(0.00147089 -0.031171 0)
(-0.000242106 -0.0342461 0)
(0.000410821 -0.0374978 0)
(0.000347303 -0.0353821 0)
(-0.00263418 -0.0276887 0)
(0.00108184 -0.0275276 0)
(-0.000892109 -0.0273595 0)
(2.87199e-05 -0.0317438 0)
(-0.000368081 -0.0316978 0)
(-0.0003837 -0.0293661 0)
(-0.00031007 -0.0309921 0)
(0.000320517 -0.0352698 0)
(0.00120147 -0.0307528 0)
(0.00133965 -0.0333834 0)
(-0.00101986 -0.0341428 0)
(-0.00141027 -0.03103 0)
(-0.00224291 -0.0290846 0)
(-0.00362145 -0.0307605 0)
(-0.00405717 -0.0287335 0)
(-0.00360772 -0.0308014 0)
(1.59392e-12 -1.3221e-05 0)
(1.57082e-12 -1.32219e-05 0)
(-6.74009e-07 -1.25431e-05 0)
(1.54806e-12 -1.32227e-05 0)
(-6.69368e-07 -1.25481e-05 0)
(0.000731131 -0.000682104 0)
(-6.64759e-07 -1.25531e-05 0)
(0.000383698 -0.00222632 0)
(0.000228933 -0.00132048 0)
(0.000983723 -0.000846547 0)
(0.000257158 -0.00215924 0)
(0.000320591 -0.00248626 0)
(0.000280153 -0.00254662 0)
(0.000208231 -0.00263564 0)
(0.00231725 0.000463319 0)
(0.0010682 -0.00285892 0)
(0.000435764 0.000257482 0)
(0.000142495 -0.00550536 0)
(0.00575412 0.00202029 0)
(0.00144577 -0.00402435 0)
(0.00100614 -0.00171938 0)
(0.000861688 -0.00102369 0)
(0.000844349 -0.00304886 0)
(0.00386554 7.32058e-05 0)
(9.32328e-05 -0.0027045 0)
(0.000803093 -0.00343339 0)
(0.000453359 -9.50062e-06 0)
(-0.00155138 -0.0026602 0)
(-0.000105654 -0.00275127 0)
(-0.00061122 -0.00306458 0)
(-0.000214717 0.00273167 0)
(-0.000432165 0.00161546 0)
(0.000818333 0.000789765 0)
(-0.00277612 0.000694416 0)
(-0.00332328 -0.00381871 0)
(0.000216012 -0.000738671 0)
(-0.00900959 -0.0155248 0)
(-0.00828669 -0.0222763 0)
(-0.0058455 -0.0290269 0)
(-0.00584623 -0.0388304 0)
(-0.00393741 -0.0374348 0)
(-0.00293865 -0.0372609 0)
(-0.0011019 -0.0380269 0)
(-0.000125406 -0.0366724 0)
(-0.000366355 -0.0351689 0)
(-0.00112663 -0.0379941 0)
(-0.000360656 -0.0395864 0)
(-0.000638212 -0.0444359 0)
(-0.000136413 -0.0434986 0)
(-0.0024248 -0.0430169 0)
(-0.00162279 -0.0426282 0)
(1.4991e-05 -0.0394842 0)
(-0.000543357 -0.0423145 0)
(0.00078425 -0.0361631 0)
(-0.000664894 -0.0414318 0)
(-0.000434106 -0.0400588 0)
(0.000173883 -0.0355573 0)
(0.00237654 -0.0365491 0)
(-0.00073276 -0.038233 0)
(-0.00117221 -0.0386766 0)
(-0.0017105 -0.0379582 0)
(8.24964e-05 -0.0377902 0)
(-0.000694956 -0.0382595 0)
(0.00100149 -0.0377949 0)
(0.00013422 -0.0354614 0)
(0.000120244 -0.0348849 0)
(0.0036934 -0.0361456 0)
(-0.000317342 -0.0386248 0)
(-7.34165e-06 -0.0343795 0)
(-0.000553564 -0.0390445 0)
(0.000961258 -0.037969 0)
(0.00182088 -0.0354933 0)
(-0.00108111 -0.0353539 0)
(-0.0021285 -0.0367408 0)
(-0.00270682 -0.0362165 0)
(5.23689e-13 -1.32059e-05 0)
(5.13111e-13 -1.32076e-05 0)
(1.18667e-06 -1.18611e-05 0)
(5.02746e-13 -1.32092e-05 0)
(1.16937e-06 -1.18821e-05 0)
(-0.00158228 -0.00140476 0)
(0.000109362 0.000609159 0)
(-0.0016693 -0.000266023 0)
(0.00526685 -0.00512557 0)
(0.000965577 -0.00611118 0)
(0.00103829 -0.00302847 0)
(0.00128527 -0.00552611 0)
(0.00089865 -0.00465209 0)
(0.00118131 -0.00260155 0)
(0.000912406 -0.00616113 0)
(0.00123634 -0.00615488 0)
(0.000924845 -0.00631918 0)
(0.00130104 -0.00529485 0)
(-0.00151948 -0.00246589 0)
(-0.000900693 -0.00406706 0)
(0.00162631 -0.00523076 0)
(0.00163169 -0.00530372 0)
(6.7908e-05 -0.000504952 0)
(0.00142139 -0.00415209 0)
(0.00145056 -0.00422603 0)
(0.000982856 -0.00269467 0)
(0.00101906 -0.00219397 0)
(0.000540009 0.00119066 0)
(0.000547177 0.00123877 0)
(0.00023775 -0.000680891 0)
(0.000757337 0.00220111 0)
(-4.88984e-05 -0.00166256 0)
(-0.000823039 -0.000479747 0)
(-0.00116886 -0.000952474 0)
(-0.00190048 0.00198225 0)
(-0.00451825 -0.00485138 0)
(0.000720567 -0.0267771 0)
(-0.000341343 -0.0373819 0)
(-0.00341572 -0.0371854 0)
(-0.00363241 -0.0359246 0)
(-0.00179782 -0.0372435 0)
(-0.00040032 -0.0364046 0)
(-0.000330028 -0.0392435 0)
(-0.000177006 -0.0346405 0)
(-0.000549465 -0.0332085 0)
(-0.000274216 -0.0332435 0)
(-0.000463052 -0.0356119 0)
(0.000247946 -0.0389226 0)
(0.000292947 -0.039139 0)
(-0.00151479 -0.0439111 0)
(-0.000319697 -0.0412979 0)
(-0.00109934 -0.0421999 0)
(-0.00123246 -0.0445428 0)
(0.000181794 -0.0436137 0)
(0.000524838 -0.0398432 0)
(-0.000802767 -0.0389041 0)
(-0.000677748 -0.0366882 0)
(-0.00046857 -0.0371896 0)
(-0.000630906 -0.0378061 0)
(-0.000467332 -0.0366985 0)
(0.000165419 -0.0363682 0)
(0.000441232 -0.0381671 0)
(0.00082044 -0.0400071 0)
(-2.51982e-06 -0.0401143 0)
(-0.000270556 -0.0359216 0)
(8.20822e-06 -0.0360858 0)
(-0.000349443 -0.0365626 0)
(-0.000296705 -0.0371855 0)
(-2.98948e-05 -0.0370231 0)
(0.000263606 -0.0314091 0)
(0.00110518 -0.0284724 0)
(0.000389229 -0.0311641 0)
(0.00135219 -0.0347123 0)
(-0.00161256 -0.0328233 0)
(-0.0027119 -0.0314272 0)
(2.12541e-11 -1.09425e-05 0)
(4.1609e-11 -1.09432e-05 0)
(-8.73274e-07 -1.20199e-05 0)
(4.26847e-11 -1.32227e-05 0)
(-0.00208555 -8.18921e-05 0)
(-8.55424e-07 -1.20462e-05 0)
(0.00398632 -0.00439256 0)
(-8.37941e-07 -1.20719e-05 0)
(6.57352e-05 -0.00317517 0)
(0.001179 -0.00152863 0)
(5.95187e-05 -0.00043845 0)
(8.60818e-05 -0.0016321 0)
(6.22483e-05 -0.00229751 0)
(0.00126103 -0.00413402 0)
(0.00128417 -0.003857 0)
(0.0012814 -0.00377745 0)
(0.00127862 -0.00374214 0)
(5.57441e-05 -0.00648295 0)
(0.00123214 -0.00400848 0)
(0.00118048 -0.000808165 0)
(0.00118038 -0.00080708 0)
(0.00121601 -0.000149766 0)
(0.000654333 -0.00509904 0)
(0.000519911 0.000206905 0)
(0.000641642 -0.00678634 0)
(0.000755376 -0.00621858 0)
(0.000736427 -0.00533385 0)
(0.000885151 -0.00328346 0)
(0.00771078 -0.0111356 0)
(0.00132569 -0.00769867 0)
(0.0138733 -0.00259068 0)
(0.0131208 -0.00457685 0)
(0.0290703 -0.007737 0)
(0.0306019 -0.0085468 0)
(0.00321707 -0.00901404 0)
(-0.00178233 -0.00961427 0)
(-0.0133708 -0.021897 0)
(-0.00806597 -0.0257345 0)
(-0.00120303 -0.0405787 0)
(-0.00190455 -0.0429695 0)
(-0.00267508 -0.0379738 0)
(-0.00134988 -0.0361462 0)
(-0.00130502 -0.0341335 0)
(-0.00101657 -0.0331545 0)
(-0.00093535 -0.0323524 0)
(-0.000905374 -0.0307041 0)
(-0.00077799 -0.0319333 0)
(-0.000600136 -0.0319608 0)
(-0.0007874 -0.0323754 0)
(-0.000234431 -0.0351901 0)
(-0.000608617 -0.0373701 0)
(0.000306699 -0.0385851 0)
(-0.000817794 -0.0401565 0)
(-0.000365725 -0.0394995 0)
(-0.000390221 -0.0390584 0)
(-8.88789e-05 -0.0341281 0)
(-3.44866e-05 -0.0366065 0)
(0.000170383 -0.0382123 0)
(-0.000255626 -0.0356902 0)
(0.000143005 -0.0345988 0)
(0.000338046 -0.0365147 0)
(0.00116236 -0.0382506 0)
(0.0013048 -0.038651 0)
(-0.00119148 -0.0373828 0)
(-0.00192759 -0.0363623 0)
(-0.00260296 -0.0349741 0)
(-0.00222483 -0.0348391 0)
(-0.0015258 -0.0308608 0)
(-0.0011509 -0.0314224 0)
(-0.000644421 -0.032268 0)
(0.000199358 -0.0354006 0)
(-0.000831264 -0.0317708 0)
(-0.000747319 -0.0316723 0)
(0.00111121 -0.0340617 0)
(-0.00044071 -0.0330302 0)
(4.08095e-13 -1.32249e-05 0)
(4.02786e-13 -1.32256e-05 0)
(0.000768606 -0.00295805 0)
(3.97546e-13 -1.32263e-05 0)
(4.20638e-11 -1.32236e-05 0)
(-0.000814141 -0.00149264 0)
(-0.000528163 -0.00159854 0)
(0.00156433 -0.00278962 0)
(-1.02763e-06 -1.21509e-05 0)
(0.000824197 -0.00303772 0)
(0.00255401 -0.00329801 0)
(0.00261265 -0.00343512 0)
(0.00225264 -0.00328846 0)
(0.00103336 -0.00644047 0)
(0.00197428 -0.00152661 0)
(0.00141862 -0.0056227 0)
(0.00141412 -0.00565806 0)
(0.00114557 -0.000548448 0)
(0.00105215 -0.000974665 0)
(0.00106004 -0.00117939 0)
(0.0013792 -0.00531102 0)
(0.00136059 -0.0055875 0)
(0.0011367 -0.00117094 0)
(-0.00164447 -0.00526615 0)
(-0.00166286 -0.00391319 0)
(0.00222167 -0.00227021 0)
(0.00286757 0.000204843 0)
(-9.66559e-05 -0.000390801 0)
(0.00289163 -0.00306822 0)
(0.000986208 -0.00134449 0)
(-0.00100292 -0.00776613 0)
(0.000796307 -0.00718626 0)
(0.00395538 -0.00426773 0)
(-0.00206844 -0.00580495 0)
(-0.00224299 -0.00230035 0)
(-0.00228445 1.76791e-05 0)
(-0.00694527 -0.0111886 0)
(-0.00615881 -0.0147367 0)
(-0.00308423 -0.0233532 0)
(0.00136937 -0.0406866 0)
(0.000761544 -0.0429293 0)
(-0.00356544 -0.0395897 0)
(-0.00267559 -0.0428807 0)
(-0.00122927 -0.0394766 0)
(-7.22133e-05 -0.03482 0)
(0.000588728 -0.0336719 0)
(0.000163377 -0.0337334 0)
(0.000491383 -0.0353177 0)
(0.000638917 -0.0360055 0)
(0.000391404 -0.0369917 0)
(-0.000169061 -0.03774 0)
(-0.000261249 -0.0379728 0)
(-0.000370175 -0.0381723 0)
(-0.000411796 -0.0357962 0)
(-0.000883124 -0.0350899 0)
(-0.000434121 -0.0337079 0)
(1.04149e-05 -0.0337932 0)
(0.00100535 -0.0315017 0)
(-4.22632e-05 -0.0337109 0)
(0.000378817 -0.0341264 0)
(7.6158e-05 -0.0342499 0)
(0.0004195 -0.0343635 0)
(-0.000620397 -0.0356358 0)
(0.000109368 -0.0347163 0)
(0.000106961 -0.0341961 0)
(-1.47299e-05 -0.0318523 0)
(-0.0010541 -0.0314867 0)
(-5.76386e-05 -0.0328434 0)
(-0.00140311 -0.0362048 0)
(-0.00156238 -0.0379566 0)
(3.39855e-05 -0.0387444 0)
(2.48687e-05 -0.0407076 0)
(-0.000539896 -0.0410164 0)
(-0.000704878 -0.0403436 0)
(0.000437453 -0.0381928 0)
(1.89448e-12 -1.3221e-05 0)
(1.86703e-12 -1.32219e-05 0)
(-1.53916e-06 -1.15986e-05 0)
(1.83997e-12 -1.32227e-05 0)
(-1.51899e-06 -1.16208e-05 0)
(-0.00139472 -0.00238804 0)
(0.00117811 -0.00224057 0)
(-0.00143543 -0.00229008 0)
(-0.00174504 -0.00259636 0)
(0.000746059 -0.00615375 0)
(0.00198515 -0.00716171 0)
(0.00212334 -0.0060699 0)
(0.00236025 -0.00603018 0)
(0.00240408 -0.00578969 0)
(0.00213417 -0.00150577 0)
(0.00228354 -0.00154738 0)
(1.8133e-12 -1.32236e-05 0)
(0.00203981 0.000815593 0)
(0.00249068 0.000985653 0)
(0.0019885 -0.00619238 0)
(0.00237975 -0.00157862 0)
(0.00333648 -0.00161536 0)
(0.00336354 -0.00152798 0)
(0.00274193 0.000951605 0)
(0.00421904 -0.00441891 0)
(0.00687914 -0.00506727 0)
(0.00516747 0.00108972 0)
(0.00040706 -0.00376688 0)
(3.88665e-05 -0.0045062 0)
(0.000198289 -0.000243011 0)
(0.000319161 0.00213095 0)
(0.00945954 -0.00241291 0)
(-0.000956086 -0.0037748 0)
(-0.000992017 -0.00148373 0)
(-0.00232084 0.00135653 0)
(-0.00103224 -0.00295808 0)
(-0.00214711 -0.00335723 0)
(-0.00313599 -0.00513315 0)
(-0.000633941 -0.00572728 0)
(-0.00607078 -0.00653147 0)
(-0.00089481 -0.0412372 0)
(-0.00320046 -0.0419504 0)
(-0.00415297 -0.0443022 0)
(-0.000615382 -0.0389182 0)
(0.00019364 -0.0363464 0)
(0.000318081 -0.0346491 0)
(5.33945e-05 -0.0346753 0)
(-0.000327118 -0.0346934 0)
(6.63493e-05 -0.0352234 0)
(0.000487598 -0.0356059 0)
(-0.000151368 -0.0361138 0)
(0.000213951 -0.0349599 0)
(-0.000378036 -0.0349872 0)
(-0.00066951 -0.033434 0)
(-0.000398406 -0.0319847 0)
(-0.000620718 -0.0335113 0)
(-0.0011631 -0.0320715 0)
(-0.000330982 -0.0320035 0)
(-0.000747846 -0.0327456 0)
(-0.000280462 -0.0329392 0)
(-5.58568e-05 -0.0335124 0)
(-4.37203e-05 -0.0344183 0)
(-0.000338476 -0.034752 0)
(2.26707e-05 -0.0351174 0)
(-0.00038163 -0.036305 0)
(0.00016213 -0.0353863 0)
(-0.00176559 -0.0340805 0)
(0.000331142 -0.0380066 0)
(5.36163e-05 -0.0386365 0)
(-0.000357825 -0.0389751 0)
(0.000233748 -0.0416419 0)
(0.000319331 -0.043065 0)
(-0.000870775 -0.0402455 0)
(0.000191499 -0.0415024 0)
(0.00112719 -0.0400848 0)
(2.24333e-07 -1.30615e-05 0)
(2.1865e-07 -1.30676e-05 0)
(0.000488709 -0.000816387 0)
(2.13112e-07 -1.30736e-05 0)
(0.00104861 -0.00127893 0)
(0.000428287 -0.000782745 0)
(0.00203337 -0.000792725 0)
(0.00205386 -0.00291478 0)
(0.000662014 0.000977299 0)
(0.00205115 -0.00302894 0)
(0.00221045 0.00122234 0)
(0.00236116 0.000393895 0)
(0.00244543 -5.04515e-05 0)
(0.00244569 -0.00033929 0)
(0.00262878 -0.00365664 0)
(0.00273324 -0.00372967 0)
(2.07714e-07 -1.30794e-05 0)
(2.02453e-07 -1.3085e-05 0)
(-0.000253689 -0.00187342 0)
(-0.000364873 -0.000917765 0)
(-0.000445146 -0.000932439 0)
(-2.82484e-06 -1.11315e-05 0)
(-0.000555094 -0.00126913 0)
(0.00287796 -0.00377947 0)
(-0.000903471 -0.00160613 0)
(0.000834531 -0.00101748 0)
(7.04776e-05 -0.00286243 0)
(-0.00108634 -0.00197208 0)
(-0.00173061 -0.0103644 0)
(-0.00058447 -0.00123499 0)
(-0.000631897 -0.0016898 0)
(-0.000768417 -0.000436591 0)
(-0.00128789 -0.00296367 0)
(-0.000961908 -2.11005e-05 0)
(-0.000578566 -0.000485767 0)
(-0.000838233 -0.00571456 0)
(0.00188513 -0.0131691 0)
(-0.00123267 -0.00542072 0)
(-0.00303085 -0.0106467 0)
(-0.0032033 -0.0105882 0)
(0.000190119 -0.0399693 0)
(-0.00208406 -0.0416887 0)
(-0.00394725 -0.0390307 0)
(-0.000440163 -0.0375105 0)
(0.000109799 -0.0338128 0)
(0.000941365 -0.0331111 0)
(0.000299029 -0.0334318 0)
(-0.000237497 -0.0334963 0)
(-0.000728013 -0.0322227 0)
(-0.00103613 -0.0330975 0)
(-0.00127897 -0.0314419 0)
(-0.00189783 -0.0328917 0)
(-0.000471325 -0.0315208 0)
(-0.000324619 -0.0304778 0)
(0.000929265 -0.0287789 0)
(1.05296e-05 -0.0303455 0)
(-0.000699822 -0.0303579 0)
(-0.000293452 -0.0320025 0)
(-7.49279e-05 -0.03234 0)
(0.000767615 -0.0326818 0)
(-0.000315611 -0.0352761 0)
(-6.19937e-05 -0.0347705 0)
(0.00028313 -0.0354646 0)
(0.000315924 -0.0369715 0)
(7.52021e-05 -0.0373791 0)
(0.000771219 -0.038504 0)
(7.48121e-05 -0.0397811 0)
(-0.000320929 -0.0408733 0)
(0.000750763 -0.0437405 0)
(0.000457069 -0.0406775 0)
(0.000586332 -0.0419141 0)
(-0.00121895 -0.0408913 0)
(-0.000432927 -0.0412203 0)
(-0.000546716 -0.0410721 0)
(-0.000610895 -0.0413498 0)
(2.01119e-12 -1.32059e-05 0)
(1.97058e-12 -1.32076e-05 0)
(1.24016e-05 -0.000901113 0)
(1.9308e-12 -1.32093e-05 0)
(1.05289e-05 -0.000877003 0)
(0.000948577 -0.000479556 0)
(0.00041024 -0.00452875 0)
(-0.00130571 -0.00133265 0)
(0.000600423 -0.00452333 0)
(0.00284236 -0.00164489 0)
(0.000161883 -0.00414702 0)
(0.00139942 -0.000722996 0)
(0.00254204 -0.00133984 0)
(0.000274755 -0.00444315 0)
(0.00266991 -0.00192036 0)
(1.77118e-05 -0.00193938 0)
(0.00109777 -0.00318344 0)
(-0.00128938 -0.00329242 0)
(-0.00230678 -0.00175873 0)
(0.00181499 -0.00168471 0)
(0.00313566 -0.00144116 0)
(0.00242118 -0.00460462 0)
(0.00203997 -0.00444719 0)
(0.00200231 -0.00428661 0)
(0.000674726 0.000105487 0)
(0.000630238 0.000231663 0)
(-0.00496599 -0.00431162 0)
(-0.00544561 -0.00379094 0)
(0.00162688 -0.00358491 0)
(-0.00079285 -0.00293922 0)
(-0.00114293 -0.00282314 0)
(-0.000735053 -0.000462711 0)
(-0.00063811 -0.00086414 0)
(-0.000745554 0.000238667 0)
(-0.000751136 -0.00570623 0)
(-0.000642519 -0.00468326 0)
(-0.00075924 -0.00516925 0)
(0.00126308 -0.00567755 0)
(-0.00760153 -0.0157549 0)
(-0.00240215 -0.017785 0)
(-0.00244854 -0.0420743 0)
(-0.00438512 -0.0386223 0)
(-0.00501227 -0.0384819 0)
(-0.00465061 -0.0371639 0)
(-0.00302425 -0.0359241 0)
(-0.00148165 -0.0337161 0)
(-0.0020377 -0.0364243 0)
(-0.00122397 -0.0335903 0)
(-0.00123115 -0.0325405 0)
(-0.000592602 -0.0325593 0)
(-0.00123297 -0.0313476 0)
(-0.000291243 -0.0319883 0)
(-0.00021871 -0.0297278 0)
(-0.0001835 -0.032934 0)
(0.000196808 -0.0373519 0)
(0.00122033 -0.0378948 0)
(0.00126172 -0.037104 0)
(7.40112e-05 -0.038855 0)
(0.000394632 -0.0404314 0)
(0.000964359 -0.0383691 0)
(0.000319368 -0.0380233 0)
(0.000582338 -0.0369839 0)
(-0.000510425 -0.0392885 0)
(0.000576483 -0.040277 0)
(0.000522573 -0.0410367 0)
(0.000979461 -0.0418474 0)
(0.00133216 -0.0414363 0)
(-0.000589047 -0.0431664 0)
(0.000325585 -0.0448908 0)
(0.000804969 -0.0431008 0)
(-0.00104597 -0.0424558 0)
(0.00058949 -0.0430807 0)
(-0.000821418 -0.0437822 0)
(0.000531336 -0.0421959 0)
(-0.000530753 -0.0441156 0)
(7.31891e-13 -1.3221e-05 0)
(7.21287e-13 -1.32219e-05 0)
(0.000552915 -0.000902312 0)
(7.10837e-13 -1.32227e-05 0)
(-0.00170821 -0.00134058 0)
(0.0025889 -0.00192794 0)
(-0.00324676 -0.00208871 0)
(0.000821366 -0.00185345 0)
(0.000559681 -0.00467378 0)
(0.000377949 -0.00102301 0)
(0.000806425 -0.00163558 0)
(0.000629653 -0.00365344 0)
(0.00229069 -0.00373915 0)
(7.00537e-13 -1.32236e-05 0)
(-0.0021759 -0.00109004 0)
(0.0054775 -0.00281622 0)
(0.00250042 -0.000198825 0)
(0.00283516 -0.000548664 0)
(0.00290422 -0.00264124 0)
(0.00277518 -0.00155803 0)
(0.00278922 -0.00258281 0)
(0.00275202 -0.00256484 0)
(0.0025923 -0.00260666 0)
(0.000789253 -0.00371349 0)
(0.000846399 0.00108742 0)
(0.000867495 -0.00129926 0)
(0.0017161 -0.00215869 0)
(0.00144584 0.000429946 0)
(0.0018666 -0.00150301 0)
(0.000293077 -0.00213524 0)
(0.000378738 -0.00239278 0)
(0.000230241 -0.00255803 0)
(-0.000938934 0.000441391 0)
(-0.000766679 -0.000699538 0)
(-0.000664419 0.000702713 0)
(-0.000480838 -0.003195 0)
(-0.0034158 -0.00655462 0)
(-0.00103968 -0.0135202 0)
(0.00337124 -0.0266538 0)
(-0.00270891 -0.0396432 0)
(-0.00495277 -0.0390149 0)
(-0.00586486 -0.0349538 0)
(-0.00559419 -0.0338081 0)
(-0.00386915 -0.0357594 0)
(-0.00163282 -0.0359488 0)
(-0.000581018 -0.0360043 0)
(-0.000753481 -0.0364101 0)
(-0.000335305 -0.0377312 0)
(-0.000344811 -0.0368336 0)
(0.000429331 -0.0362809 0)
(-0.000454062 -0.0340564 0)
(-0.000208334 -0.0397276 0)
(-0.000268919 -0.0416367 0)
(0.000384036 -0.0435679 0)
(-0.000136915 -0.042454 0)
(0.000157399 -0.0432492 0)
(-9.68311e-06 -0.0445398 0)
(-0.00028888 -0.0452982 0)
(8.31114e-05 -0.0451043 0)
(-0.00012814 -0.0408934 0)
(0.000362331 -0.040543 0)
(0.000567486 -0.0416788 0)
(-2.22459e-05 -0.0460589 0)
(0.000282165 -0.0424177 0)
(-2.5869e-05 -0.0443626 0)
(0.000672881 -0.0440279 0)
(-9.19192e-05 -0.044997 0)
(0.000695696 -0.0444347 0)
(0.000170564 -0.0456249 0)
(5.33663e-05 -0.0439143 0)
(-0.00046805 -0.0425317 0)
(0.000154467 -0.0413773 0)
(-0.000162066 -0.0398732 0)
(3.69933e-05 -0.0405399 0)
(-7.18154e-05 -0.0426848 0)
(1.82774e-12 -1.32166e-05 0)
(1.79819e-12 -1.32176e-05 0)
(5.15353e-05 -0.00105755 0)
(1.76912e-12 -1.32187e-05 0)
(0.000107422 -0.000935253 0)
(0.000643312 -0.000559214 0)
(0.00466478 -0.00252951 0)
(0.00483772 -0.00318702 0)
(-0.00256006 -0.000767299 0)
(-0.00275892 -0.000941627 0)
(0.00263969 -0.0040354 0)
(-0.00119059 -0.000315776 0)
(0.00252995 -0.00298545 0)
(0.0022467 -0.00340525 0)
(0.00133494 -0.00104792 0)
(0.00246403 -0.00211448 0)
(0.00377869 -0.00148325 0)
(0.00305543 -0.00292782 0)
(0.0031729 -0.00455542 0)
(0.00273392 -0.00431502 0)
(0.00270581 -0.00158729 0)
(0.00305797 -0.00106765 0)
(0.00308367 -0.00426272 0)
(0.00195594 0.00239666 0)
(0.00160341 -0.00163963 0)
(0.00168694 0.000914619 0)
(0.000174916 -0.00346766 0)
(0.000131683 0.00235485 0)
(-4.71362e-07 -0.00278779 0)
(4.30092e-05 -0.00108939 0)
(-0.00125193 -0.000783936 0)
(-0.000254982 -0.0029198 0)
(0.000283478 -0.00255513 0)
(0.000998447 -0.00363101 0)
(0.000959871 -0.00425345 0)
(-0.00644961 -0.00587091 0)
(-0.0054239 -0.00788121 0)
(0.000667602 -0.010373 0)
(-0.0020291 -0.0340436 0)
(-0.0037148 -0.0363097 0)
(-0.00576439 -0.0346956 0)
(-0.00416565 -0.0353216 0)
(-0.00360923 -0.0369757 0)
(-0.00177423 -0.0394228 0)
(-0.0014981 -0.0386195 0)
(-0.00130373 -0.0388973 0)
(-0.000573169 -0.0403963 0)
(0.000113328 -0.0432418 0)
(8.85213e-05 -0.0419749 0)
(-0.00109616 -0.0419282 0)
(0.000649523 -0.0420971 0)
(-0.000244419 -0.0439411 0)
(0.000308786 -0.043466 0)
(6.92089e-05 -0.0421073 0)
(0.000509444 -0.0423438 0)
(-0.000294033 -0.0438563 0)
(-0.00092645 -0.0451696 0)
(-0.000309943 -0.0445022 0)
(0.00063463 -0.0452553 0)
(-0.000384256 -0.0454798 0)
(-0.000424778 -0.043694 0)
(0.000203151 -0.0444458 0)
(0.00224191 -0.0454437 0)
(0.000367099 -0.0454924 0)
(-0.000498923 -0.0462802 0)
(0.000535343 -0.0445148 0)
(0.000217678 -0.0415608 0)
(-0.00036524 -0.0417829 0)
(-0.00013845 -0.0405733 0)
(-0.000358628 -0.0408634 0)
(-0.000549935 -0.042608 0)
(0.00011108 -0.0422184 0)
(-0.000264925 -0.0412814 0)
(-0.000104435 -0.0409641 0)
(-0.000125713 -0.041181 0)
(-3.68178e-13 -1.32249e-05 0)
(-3.63394e-13 -1.32256e-05 0)
(0.00161429 -0.000914246 0)
(-3.58672e-13 -1.32263e-05 0)
(0.00309281 -0.00189121 0)
(0.00247031 -0.00285688 0)
(0.003431 -0.00402298 0)
(0.00181795 -0.00105099 0)
(0.0032304 -0.00403492 0)
(-0.000411407 -0.000811845 0)
(0.00319091 -0.00394771 0)
(0.00347165 -0.00401277 0)
(5.54131e-05 -0.00157865 0)
(-1.6535e-07 -0.00164688 0)
(0.000689614 -0.00515355 0)
(0.000521488 -0.000967869 0)
(0.000815111 -0.00202249 0)
(0.00177886 -0.00522361 0)
(0.00136349 -0.00545401 0)
(0.00127865 -0.00545418 0)
(0.00126966 -0.00532652 0)
(0.00188242 -0.00475415 0)
(0.00183825 -0.005438 0)
(0.00417552 -0.00221901 0)
(0.00132272 -0.00410305 0)
(0.000958796 -0.00453257 0)
(-0.000319262 -0.00393299 0)
(0.000252116 -0.00380334 0)
(-0.001105 -0.00403629 0)
(-0.00116621 -0.000592962 0)
(-0.00131595 -0.00269209 0)
(-0.0011377 -0.00125624 0)
(0.00249464 -0.00312799 0)
(0.00300262 -0.00584233 0)
(-0.0131749 -0.0101586 0)
(-0.000323695 -0.0149098 0)
(-0.00376115 -0.0189565 0)
(0.00131117 -0.0371053 0)
(-0.00228774 -0.0352162 0)
(-0.00223584 -0.0356755 0)
(-0.00206588 -0.0340499 0)
(0.000446048 -0.0363521 0)
(-0.00210937 -0.0405486 0)
(-0.000942616 -0.0425963 0)
(-0.000376014 -0.0406943 0)
(-0.00125467 -0.041055 0)
(-0.000318637 -0.0438913 0)
(-0.000569817 -0.0453079 0)
(-8.30542e-06 -0.0452096 0)
(-0.000566737 -0.0443275 0)
(3.00324e-05 -0.0411877 0)
(0.00065121 -0.0403491 0)
(0.000957464 -0.0417758 0)
(-0.000211958 -0.0429877 0)
(-0.000678225 -0.0441495 0)
(-0.000451874 -0.0425333 0)
(-6.7787e-05 -0.0412783 0)
(-0.000282179 -0.0432123 0)
(0.000835437 -0.0431588 0)
(-0.000608388 -0.0430259 0)
(0.000386201 -0.0457244 0)
(-2.44417e-05 -0.0452724 0)
(0.00104839 -0.044239 0)
(0.00105979 -0.0397302 0)
(9.1141e-05 -0.0389815 0)
(0.000106558 -0.0400983 0)
(0.000468644 -0.0406344 0)
(4.2814e-05 -0.0378376 0)
(-0.00018706 -0.0370746 0)
(-0.000321459 -0.0376925 0)
(-0.000325394 -0.0375186 0)
(-0.000297515 -0.0368924 0)
(-0.000337448 -0.036666 0)
(-0.000586913 -0.0370447 0)
(-8.92421e-05 -0.0383893 0)
(5.06476e-12 -1.32166e-05 0)
(4.9829e-12 -1.32176e-05 0)
(0.000554535 -0.000624112 0)
(4.90237e-12 -1.32187e-05 0)
(5.49186e-07 -9.98251e-06 0)
(0.00203474 1.60642e-05 0)
(0.00199204 0.000104536 0)
(0.00199001 0.000331409 0)
(0.0021933 0.000528777 0)
(0.00318358 -0.00114832 0)
(0.00268313 -0.00151706 0)
(0.00127182 -0.000548609 0)
(0.00165306 -0.0014721 0)
(0.00182829 -0.0011416 0)
(0.00203281 -0.00113262 0)
(0.00208535 -0.000776396 0)
(0.00448424 -0.00431436 0)
(0.00453869 -0.00428112 0)
(0.00368358 -0.00354517 0)
(0.0039351 -0.00395607 0)
(0.00544492 -0.000840143 0)
(0.00374599 -0.00365805 0)
(0.00607268 -0.00127626 0)
(0.00417529 -0.0037406 0)
(0.00346518 -0.00319112 0)
(0.000241077 0.000140955 0)
(-0.000307866 -0.00223476 0)
(-0.00085255 -0.00307436 0)
(-0.00203216 -0.000282267 0)
(-0.00250711 -0.00407124 0)
(-0.00238523 -0.00270514 0)
(-0.00231748 -0.00424389 0)
(-0.00151806 -0.00590127 0)
(-0.00110979 -0.00162905 0)
(0.000878122 -0.00582372 0)
(-0.000976462 -0.0081778 0)
(0.000648523 -0.00729337 0)
(0.00167799 -0.0135533 0)
(0.00287031 -0.0243428 0)
(-0.00224792 -0.0373254 0)
(-0.000845632 -0.0361012 0)
(-0.000144823 -0.0371972 0)
(-1.48906e-05 -0.0383728 0)
(-0.0003814 -0.0401092 0)
(-0.000377208 -0.0403554 0)
(-0.00094074 -0.0402671 0)
(-0.00102446 -0.0394343 0)
(7.90851e-05 -0.0410073 0)
(-6.00016e-05 -0.0405237 0)
(0.000140985 -0.0385165 0)
(0.000771452 -0.0391111 0)
(-0.000229826 -0.0403817 0)
(-0.000294478 -0.0413159 0)
(0.000216266 -0.0403086 0)
(0.000264218 -0.0397009 0)
(0.000509231 -0.0410307 0)
(-0.000122401 -0.0414643 0)
(0.000107273 -0.0410516 0)
(0.00040429 -0.0411191 0)
(7.06074e-05 -0.0425829 0)
(0.000797994 -0.043357 0)
(0.000399011 -0.0425982 0)
(-0.000118186 -0.036724 0)
(8.0235e-05 -0.0367336 0)
(4.39989e-05 -0.0370254 0)
(-7.54998e-05 -0.0372284 0)
(-0.000463647 -0.0327961 0)
(-0.000224026 -0.0340238 0)
(0.000344037 -0.0332058 0)
(0.000228503 -0.0354021 0)
(0.000585274 -0.0346553 0)
(0.00024021 -0.0337153 0)
(-0.00076312 -0.0355632 0)
(-0.000209806 -0.0376083 0)
(-0.000234717 -0.037111 0)
(-1.23746e-12 -1.31994e-05 0)
(-1.20943e-12 -1.32016e-05 0)
(0.00288487 -2.20367e-05 0)
(-1.18204e-12 -1.32036e-05 0)
(0.0014666 -0.000358122 0)
(0.000941457 -0.00179968 0)
(0.00364798 -0.00329688 0)
(0.00602029 -0.00224244 0)
(0.00132644 -0.00192808 0)
(0.00233316 -0.00258262 0)
(0.00447135 -0.000425784 0)
(-0.000909804 -0.00357061 0)
(-1.15527e-12 -1.32057e-05 0)
(-1.12911e-12 -1.32077e-05 0)
(-1.10354e-12 -1.32096e-05 0)
(-1.07854e-12 -1.32115e-05 0)
(0.00190079 -0.00199609 0)
(0.00221246 -0.00184639 0)
(0.00312144 -0.00291533 0)
(0.00359767 -0.00293267 0)
(-0.000343678 -0.00288707 0)