/*--------------------------------*- C++ -*----------------------------------*\
  =========                 |
  \\      /  F ield         | OpenFOAM: The Open Source CFD Toolbox
   \\    /   O peration     | Website:  https://openfoam.org
    \\  /    A nd           | Version:  12
     \\/     M anipulation  |
\*---------------------------------------------------------------------------*/
FoamFile
{
    format      ascii;
    class       IOPosition;
    location    "0.3/lagrangian/cloud";
    object      positions;
}
// * * * * * * * * * * * * * * * * * * * * * * * * * * * * * * * * * * * * * //

4461
(
(3.06122e-07 0.5 0.5 6.25551e-09) 0 7376 2
(3.06189e-07 0.5 0.5 6.01123e-09) 0 7376 2
(0.0025166 0.498742 0.402067 0.0966748) 0 7375 1
(0.00356616 0.498217 0.364932 0.133285) 0 7375 1
(0.00307713 0.498461 0.388133 0.110329) 0 7375 1
(0.0687909 0.291115 0.465605 0.174489) 0 7375 2
(0.0659651 0.27641 0.467017 0.190607) 0 7375 2
(0.0286 0.4857 0.150993 0.334707) 1 0 1
(0.318134 0.340933 0.256473 0.0844603) 1 7377 1
(0.336953 0.299986 0.331524 0.031538) 1 7377 2
(0.516554 0.241723 0.174582 0.0671411) 1 2 1
(0.605275 0.197362 0.132086 0.065276) 2 7378 1
(0.383076 0.308462 0.236507 0.0719552) 3 7379 1
(0.536915 0.231543 0.00958756 0.221955) 4 7380 1
(0.107935 0.446032 0.300399 0.145634) 6 10 1
(0.1509 0.154089 0.270461 0.42455) 8 14 2
(0.228746 0.255406 0.385627 0.13022) 8 16 2
(0.522844 0.111176 0.238578 0.127402) 9 7385 2
(0.50984 0.24508 0.18141 0.0636699) 10 7386 1
(0.206973 0.396514 0.113992 0.282522) 11 20 1
(0.412089 0.293956 0.193211 0.100745) 12 25 2
(0.229188 0.223448 0.161958 0.385406) 13 27 1
(0.237803 0.194494 0.186604 0.381098) 14 29 1
(0.402813 0.0587949 0.239799 0.298594) 15 31 1
(0.562213 0.0940573 0.124836 0.218893) 16 33 1
(0.537264 0.231368 0.149204 0.0821642) 17 7393 1
(0.144426 0.427787 0.174365 0.253422) 18 34 1
(0.147211 0.426395 0.288058 0.138336) 18 36 1
(0.297362 0.230205 0.121114 0.351319) 20 38 2
(0.469493 0.265253 0.0353513 0.229902) 21 40 1
(0.208032 0.395984 0.322468 0.0735158) 23 44 1
(0.29322 0.229536 0.123854 0.35339) 24 49 1
(0.479936 0.133074 0.126958 0.260032) 25 51 1
(0.672798 0.163601 0.0521464 0.111455) 26 7402 1
(0.097755 0.12384 0.327283 0.451122) 27 52 2
(0.161027 0.158549 0.419486 0.260937) 27 54 2
(0.655567 0.00755642 0.172216 0.16466) 28 56 2
(0.522102 0.238949 0.227957 0.0109918) 29 7405 1
(0.23098 0.38451 0.0802593 0.304251) 30 58 1
(0.246609 0.376695 0.105427 0.271269) 32 62 1
(0.553789 0.223106 0.0551493 0.167956) 33 64 1
(0.0864033 0.456798 0.232494 0.224304) 34 66 1
(0.348766 0.325617 0.209529 0.116088) 34 68 1
(0.429327 0.0769968 0.285337 0.20834) 35 7411 2
(0.59353 0.203235 0.144602 0.0586326) 36 72 1
(0.344808 0.327596 0.12058 0.207016) 37 74 1
(0.880983 0.0125767 0.046932 0.0595087) 39 76 2
(0.67422 0.16289 0.030302 0.132588) 41 83 2
(0.627967 0.110738 0.0752782 0.186016) 42 82 2
(0.23872 0.38064 0.156888 0.223752) 43 84 1
(0.210091 0.394954 0.117095 0.27786) 43 86 1
(0.0479853 0.357415 0.118592 0.476007) 45 91 1
(0.0327746 0.45544 0.0281725 0.483613) 46 93 1
(0.00482802 0.497586 0.225876 0.27171) 47 95 2
(0.787587 0.0333811 0.0728254 0.106207) 47 95 1
(0.0203011 0.489849 0.364576 0.125274) 123 97 2
(0.444127 0.277936 0.035264 0.242672) 48 94 1
(0.360577 0.319711 0.18355 0.136161) 48 96 1
(0.471518 0.179003 0.264241 0.0852384) 49 7425 2
(0.413305 0.114285 0.293348 0.179062) 50 7426 2
(0.72971 0.123207 0.0119382 0.135145) 52 105 1
(0.297943 0.351029 0.193555 0.157474) 54 109 2
(0.298493 0.320006 0.0307473 0.350753) 55 111 1
(0.32241 0.288424 0.0503717 0.338795) 56 113 1
(0.343507 0.328246 0.323811 0.00443525) 57 115 2
(0.276214 0.361893 0.220893 0.141) 58 117 2
(0.0169933 0.280405 0.211099 0.491503) 59 116 2
(0.631478 0.184261 0.109979 0.0742824) 59 118 1
(0.447725 0.276137 0.127408 0.148729) 60 118 1
(0.448406 0.275797 0.17461 0.101187) 60 120 1
(0.492563 0.219997 0.253718 0.0337216) 61 7437 2
(0.321499 0.299908 0.0393418 0.33925) 62 125 1
(0.19739 0.401305 0.164256 0.237049) 63 126 1
(0.287251 0.192806 0.356375 0.163569) 64 128 2
(0.471781 0.0295548 0.264109 0.234554) 65 130 2
(3.06524e-07 0.5 0.5 6.7337e-09) 75 7451 2
(3.06567e-07 0.5 0.5 6.31744e-09) 75 7451 2
(3.4296e-07 0.5 0.0465231 0.453477) 0 7376 2
(3.42015e-07 0.232892 0.267108 0.5) 0 7376 1
(0.806066 0.0969671 0.011308 0.0856591) 0 7375 1
(0.645691 0.177155 0.0373397 0.139815) 0 0 1
(0.733932 0.133034 0.0362226 0.0968116) 0 0 1
(0.908349 0.00738009 0.0458257 0.0384456) 0 0 2
(0.0788522 0.377872 0.460574 0.0827019) 75 1 1
(0.670414 0.00904121 0.164793 0.155752) 0 0 2
(0.262778 0.216559 0.152052 0.368611) 0 1 1
(0.335632 0.332184 0.0223322 0.309852) 76 149 1
(0.232312 0.114562 0.383844 0.269282) 76 3 1
(0.0159462 0.492027 0.410214 0.0818133) 77 153 1
(0.0444299 0.477785 0.275728 0.202057) 79 9 2
(0.538045 0.215349 0.0156282 0.230978) 79 155 2
(0.278421 0.352646 0.36079 0.00814415) 79 157 2
(0.755311 0.048942 0.122344 0.0734025) 80 159 2
(0.626371 0.11436 0.186815 0.0724545) 83 17 1
(0.309826 0.252449 0.345087 0.0926383) 84 19 1
(0.256519 0.371741 0.11548 0.256261) 85 167 1
(0.28904 0.35548 0.238605 0.116875) 85 169 1
(0.563356 0.0516276 0.166695 0.218322) 86 172 1
(0.352271 0.323865 0.262548 0.0613164) 87 174 2
(0.351731 0.324135 0.0241057 0.300029) 88 176 2
(0.649605 0.0154725 0.175198 0.159725) 90 31 1
(0.0628434 0.468578 0.117761 0.350818) 92 181 1
(0.0643216 0.467839 0.08933 0.378509) 93 183 1
(0.0852277 0.457386 0.0992259 0.35816) 94 185 1
(0.116818 0.441591 0.12346 0.318131) 95 187 1
(0.308709 0.345646 0.337111 0.00853469) 96 43 2
(0.0370355 0.197326 0.284156 0.481482) 96 189 2
(0.270988 0.364506 0.0195345 0.344971) 171 338 1
(0.286813 0.119988 0.236606 0.356594) 96 192 1
(0.393924 0.303038 0.00769738 0.295341) 97 194 2
(0.158455 0.225081 0.420773 0.195692) 97 193 2
(0.622813 0.188594 0.134853 0.0537409) 100 51 2
(0.544966 0.227517 0.144755 0.0827614) 102 55 2
(0.278574 0.189847 0.360713 0.170866) 103 57 1
(0.0613289 0.469336 0.192039 0.277296) 104 205 1
(0.571653 0.182404 0.214174 0.0317696) 104 59 1
(0.370113 0.314943 0.221333 0.0936105) 105 207 1
(0.42248 0.166241 0.28876 0.122519) 105 209 2
(0.791801 0.0431999 0.1041 0.0608998) 106 211 2
(0.911894 0.0239041 0.0440529 0.0201489) 107 213 2
(0.25816 0.0591277 0.37092 0.311792) 110 71 1
(0.214317 0.392842 0.363153 0.0296885) 112 75 2
(0.0807472 0.383155 0.459626 0.0764711) 113 77 1
(0.249735 0.275415 0.375133 0.0997175) 114 79 1
(0.0536986 0.473151 0.274744 0.198407) 116 231 1
(0.372378 0.313811 0.222644 0.0911668) 117 233 1
(0.160209 0.144739 0.275156 0.419895) 117 234 1
(0.00756212 0.496219 0.396212 0.100007) 118 236 2
(0.122281 0.43886 0.291482 0.147378) 194 238 2
(0.136477 0.431762 0.0546216 0.37714) 195 386 1
(0.296211 0.351895 0.204925 0.14697) 195 388 1
(0.930597 0.0347014 0.0278328 0.00686858) 196 390 1
(0.131401 0.387059 0.434299 0.0472403) 122 243 2
(0.625126 0.0147596 0.187437 0.172677) 123 97 1
(0.399364 0.300318 0.188621 0.111697) 124 99 2
(0.1728 0.4136 0.0725348 0.341065) 125 247 1
(0.165601 0.417199 0.297864 0.119335) 125 249 1
(0.00991944 0.49504 0.00433903 0.490701) 126 252 2
(0.221428 0.185267 0.204019 0.389286) 126 252 1
(0.379983 0.221768 0.0882408 0.310008) 127 254 1
(0.411442 0.0366747 0.257604 0.294279) 128 256 1
(0.379705 0.0964752 0.213672 0.310148) 129 258 1
(0.36698 0.183827 0.132683 0.31651) 130 260 1
(0.340356 0.200323 0.1295 0.329822) 131 262 1
(0.463943 0.0348474 0.268029 0.233181) 133 265 2
(0.576142 0.211929 0.203148 0.00878144) 134 268 2
(0.884875 0.0575625 0.0285892 0.0289733) 135 121 2
(0.0217972 0.229574 0.259527 0.489101) 136 269 2
(0.332364 0.333818 0.155925 0.177892) 211 272 2
(0.00848793 0.495756 0.351211 0.144545) 212 274 2
(3.06332e-07 0.5 0.5 8.19917e-09) 150 7452 2
(3.06386e-07 0.5 0.5 7.79344e-09) 150 7452 2
(3.05394e-07 0.5 0.0746085 0.425391) 75 7451 2
(3.06439e-07 0.5 0.14379 0.35621) 150 7452 2
(0.578646 0.0341084 0.210677 0.176568) 75 1 1
(0.485789 0.257105 0.179733 0.0773719) 75 1 2
(0.21113 0.394435 0.0431259 0.351309) 75 7451 2
(0.422973 0.288513 0.114666 0.173847) 75 1 2
(0.315997 0.223495 0.342001 0.118507) 75 1 1
(0.599746 0.200127 0.0200595 0.180068) 75 1 2
(0.381097 0.309451 0.211577 0.0978745) 75 149 1
(0.477503 0.261248 0.233767 0.0274811) 75 149 1
(0.242031 0.378985 0.082048 0.296937) 75 149 1
(0.0905484 0.454726 0.0388022 0.415924) 151 298 1
(0.213965 0.35378 0.393017 0.0392376) 151 152 1
(0.0268048 0.486598 0.149872 0.336726) 152 154 2
(0.393362 0.303319 0.12979 0.173529) 153 156 2
(0.28756 0.352793 0.35622 0.00342737) 154 158 1
(0.456485 0.182232 0.271758 0.0895255) 155 160 1
(0.450912 0.274544 0.00520457 0.269339) 156 162 2
(0.622682 0.0328291 0.188659 0.15583) 157 312 2
(0.520856 0.178063 0.239572 0.0615088) 159 168 1
(0.411452 0.162531 0.294274 0.131743) 160 170 1
(0.661042 0.147125 0.0223542 0.169479) 161 318 2
(0.127301 0.263025 0.173324 0.43635) 162 320 2
(0.475238 0.262381 0.219916 0.0424651) 163 176 2
(0.324755 0.337622 0.00921019 0.328412) 164 324 1
(0.0303078 0.484846 0.282688 0.202158) 164 326 1
(0.256553 0.0214753 0.371724 0.350248) 165 180 1
(0.274936 0.245395 0.362532 0.117137) 166 182 1
(0.341053 0.329473 0.143306 0.186168) 167 330 1
(0.132421 0.43379 0.418932 0.0148576) 167 333 2
(0.258967 0.0539326 0.316584 0.370517) 167 333 1
(0.314925 0.319343 0.023195 0.342538) 168 335 1
(0.242522 0.378739 0.261683 0.117056) 169 337 2
(0.06382 0.438895 0.0291946 0.46809) 170 339 1
(0.324641 0.33768 0.117478 0.220201) 172 340 1
(0.320969 0.339516 0.277728 0.0617875) 173 196 2
(0.15172 0.42414 0.0383794 0.385761) 174 344 1
(0.098252 0.450874 0.392317 0.0585571) 174 346 1
(0.23377 0.0931195 0.383115 0.289996) 175 200 1
(0.274054 0.0514433 0.362973 0.31153) 176 202 1
(0.481101 0.25945 0.237723 0.0217266) 177 352 1
(0.117588 0.441206 0.253428 0.187778) 179 354 1
(0.246592 0.376704 0.302925 0.0737791) 181 212 2
(0.0325525 0.12762 0.483724 0.356103) 182 214 1
(0.0635567 0.468222 0.0490463 0.419175) 109 218 2
(0.178091 0.410955 0.234303 0.176652) 185 220 2
(0.235238 0.382381 0.217617 0.164763) 112 224 2
(0.0937394 0.0682599 0.38487 0.45313) 113 223 2
(0.164529 0.417735 0.0428549 0.37488) 188 226 2
(0.239007 0.380497 0.312325 0.0681715) 189 228 2
(0.336001 0.331196 0.332 0.000803378) 189 376 2
(0.577481 0.131464 0.0797955 0.211259) 190 379 1
(0.736862 0.0529579 0.0786112 0.131569) 191 381 1
(0.466353 0.266823 0.120111 0.146712) 192 383 2
(0.142723 0.428638 0.0941621 0.334476) 193 385 2
(0.139681 0.430159 0.367289 0.0628709) 269 387 2
(0.463321 0.184814 0.26834 0.083526) 271 391 1
(0.157738 0.421131 0.299506 0.121625) 272 393 2
(0.090855 0.1559 0.454573 0.298672) 197 392 2
(0.508332 0.155206 0.245834 0.0906279) 198 394 2
(0.019 0.4905 0.223171 0.267329) 273 543 1
(0.350614 0.324693 0.267162 0.0575308) 274 545 1
(0.0797256 0.152195 0.460137 0.307942) 275 399 1
(0.431819 0.000173189 0.284091 0.283917) 201 400 2
(0.693205 0.0123524 0.153397 0.141045) 202 402 2
(0.657655 0.14867 0.0225021 0.171173) 203 405 1
(0.385485 0.307258 0.231156 0.0761016) 204 407 2
(0.324522 0.337739 0.293866 0.0438726) 205 409 2
(0.321921 0.0181707 0.339039 0.320869) 206 410 2
(0.357924 0.0115214 0.309517 0.321038) 208 412 2
(0.285601 0.0593766 0.297823 0.3572) 209 414 2
(0.108633 0.0879426 0.445684 0.357741) 209 416 2
(0.110099 0.444951 0.438145 0.00680579) 285 567 1
(3.06332e-07 0.5 0.5 7.50009e-09) 225 7453 2
(3.06386e-07 0.5 0.5 7.16274e-09) 225 7453 2
(3.0649e-07 0.5 0.0511736 0.448826) 150 7452 2
(3.06439e-07 0.5 0.153335 0.346665) 225 7453 2
(0.278119 0.360941 0.234993 0.125948) 150 150 2
(0.323523 0.338238 0.235091 0.103148) 150 150 2
(0.309818 0.345091 0.195153 0.149938) 150 150 2
(0.348011 0.325994 0.300173 0.0258214) 150 298 1
(0.346229 0.0522134 0.326886 0.274672) 150 150 1
(0.224235 0.174807 0.387883 0.213075) 150 150 1
(0.337874 0.00841486 0.331063 0.322648) 150 150 1
(0.32948 0.33526 0.27263 0.0626299) 150 298 1
(0.313438 0.343281 0.231994 0.111286) 150 298 1
(0.339327 0.247604 0.330337 0.0827325) 150 298 2
(0.137154 0.431423 0.327651 0.103772) 226 301 2
(0.270659 0.024235 0.340436 0.364671) 151 301 1
(0.0646775 0.143805 0.323856 0.467661) 152 303 1
(0.0056274 0.0430899 0.497186 0.454096) 228 305 1
(0.0299733 0.0240174 0.485013 0.460996) 229 307 1
(0.117057 0.441472 0.412159 0.0293126) 231 311 2
(0.574249 0.0915361 0.121339 0.212875) 232 459 2
(0.517291 0.241354 0.0188276 0.222527) 233 464 2
(0.390663 0.304668 0.219209 0.0854591) 234 466 2
(0.348465 0.325768 0.308537 0.0172309) 235 468 2
(0.471161 0.182791 0.26442 0.0816287) 236 321 1
(0.508613 0.245693 0.000370018 0.245323) 237 323 2
(0.0999146 0.450043 0.39762 0.0524224) 312 620 1
(0.082098 0.20469 0.458951 0.254261) 313 474 1
(0.0964419 0.444973 0.451779 0.00680595) 314 476 1
(0.335632 0.332184 0.0102839 0.3219) 240 478 2
(0.0992186 0.09994 0.350451 0.450391) 240 478 1
(0.174599 0.351799 0.0609012 0.412701) 241 480 1
(0.13344 0.43328 0.283334 0.149946) 242 482 2
(0.167035 0.416482 0.156722 0.25976) 243 484 2
(0.13586 0.43207 0.178973 0.253097) 244 486 2
(0.124475 0.437762 0.252456 0.185306) 245 488 2
(0.3532 0.3234 0.113047 0.210353) 246 490 2
(0.235272 0.382364 0.294592 0.0877717) 247 343 2
(0.0706261 0.464687 0.112123 0.352564) 248 491 1
(0.266355 0.0452825 0.366823 0.32154) 248 345 1
(0.270505 0.288666 0.364748 0.076082) 249 347 1
(0.225593 0.387203 0.0257596 0.361444) 250 349 2
(0.275579 0.120465 0.36221 0.241745) 251 351 1
(0.273486 0.363257 0.284322 0.0789347) 253 355 2
(0.145639 0.427181 0.416651 0.0105295) 179 357 2
(0.128456 0.297933 0.137839 0.435772) 180 359 1
(0.317116 0.0755923 0.26585 0.341442) 181 361 1
(0.0816997 0.11375 0.45915 0.3454) 182 362 2
(0.0175871 0.179299 0.491206 0.311907) 183 364 2
(0.0141505 0.120311 0.492925 0.372614) 259 367 1
(0.225077 0.0250928 0.387461 0.362369) 185 368 2
(0.240263 0.379869 0.0769816 0.302887) 187 373 2
(0.23514 0.38243 0.287886 0.094544) 263 375 2
(0.00295064 0.498525 0.10714 0.391385) 263 523 1
(0.152716 0.230551 0.423642 0.193091) 264 525 2
(0.350698 0.12593 0.324651 0.198721) 265 527 2
(0.400734 0.0685576 0.231075 0.299633) 266 530 1
(0.0575203 0.130373 0.47124 0.340867) 267 531 2
(0.0221144 0.488943 0.412261 0.0766816) 269 536 2
(0.24723 0.376385 0.280156 0.0962292) 270 538 2
(0.103935 0.295925 0.448033 0.152108) 346 540 1
(0.271204 0.154529 0.209869 0.364398) 272 542 1
(0.469292 0.265354 0.0190248 0.246329) 348 544 2
(0.473005 0.263497 0.096078 0.167419) 349 546 2
(0.15721 0.421395 0.0949103 0.326485) 350 548 2
(0.190061 0.40497 0.314092 0.0908777) 276 550 2
(0.504434 0.247783 0.121369 0.126415) 277 403 2
(0.419782 0.290109 0.194708 0.0954007) 278 405 2
(0.148566 0.111803 0.313914 0.425717) 279 553 2
(0.080545 0.117728 0.459727 0.341999) 279 555 2
(0.199459 0.0410443 0.40027 0.359226) 280 557 2
(0.461164 0.269418 0.265324 0.00409414) 282 562 2
(0.816061 0.0232557 0.0687141 0.0919697) 283 564 1
(0.685165 0.0906201 0.157417 0.0667972) 284 565 2
(0.082376 0.458812 0.320814 0.137998) 285 568 2
(3.06122e-07 0.5 0.5 9.9678e-09) 300 7454 2
(3.06189e-07 0.5 0.5 9.60303e-09) 300 7454 2
(3.0649e-07 0.5 0.027165 0.472835) 225 7453 2
(3.06254e-07 0.5 0.161481 0.338519) 300 7454 2
(0.367552 0.316224 0.196045 0.120179) 225 299 2
(0.541347 0.229326 0.0169192 0.212407) 225 7453 2
(0.368023 0.315988 0.065006 0.250982) 225 299 2
(0.439314 0.280343 0.114148 0.166195) 225 299 2
(0.318011 0.0119184 0.340995 0.329076) 225 299 1
(0.19521 0.270092 0.402395 0.132303) 225 299 1
(0.298763 0.350619 0.322522 0.028097) 225 447 1
(0.322795 0.338602 0.252259 0.0863436) 225 447 1
(0.321894 0.339053 0.160707 0.178346) 225 447 1
(0.225374 0.387313 0.0576079 0.329705) 225 447 1
(0.103176 0.374964 0.0734478 0.448412) 226 447 2
(0.622319 0.188841 0.140729 0.0481116) 226 450 2
(0.355417 0.00952623 0.312765 0.322292) 227 449 2
(0.242392 0.0849463 0.293858 0.378804) 228 454 1
(0.0639472 0.188139 0.279888 0.468026) 229 456 1
(0.0490904 0.0158735 0.475455 0.459581) 230 457 2
(0.318466 0.340767 0.298997 0.0417706) 306 608 1
(0.131088 0.397455 0.434456 0.0370009) 307 610 2
(0.110981 0.147528 0.296981 0.44451) 309 612 2
(0.350113 0.324944 0.0615985 0.263345) 310 617 2
(0.346962 0.326519 0.071226 0.255293) 311 619 2
(0.17717 0.411415 0.35069 0.0607246) 387 621 2
(0.317319 0.341341 0.0505704 0.29077) 388 769 1
(0.00204828 0.498976 0.21725 0.281726) 388 771 1
(0.526098 0.0198356 0.236951 0.217116) 389 625 1
(0.120461 0.43977 0.0924682 0.347302) 390 627 2
(0.278336 0.360832 0.310481 0.0503504) 391 629 2
(0.0251935 0.168351 0.487403 0.319052) 391 629 1
(0.184389 0.365337 0.042468 0.407805) 317 631 1
(0.0935835 0.453208 0.363591 0.089617) 318 633 2
(0.153939 0.423031 0.342175 0.0808556) 319 635 2
(0.186447 0.330243 0.0765338 0.406777) 320 637 1
(0.094306 0.111996 0.452847 0.340851) 321 638 2
(0.184271 0.407864 0.165461 0.242403) 323 643 2
(0.323086 0.0135362 0.324921 0.338457) 324 642 2
(0.277127 0.045059 0.361436 0.316377) 324 496 1
(0.326117 0.288499 0.336941 0.0484424) 325 498 1
(0.37901 0.310495 0.191203 0.119291) 326 500 2
(0.0163486 0.491826 0.154812 0.337014) 252 502 2
(0.0280616 0.485969 0.0895716 0.396398) 253 504 2
(0.0286262 0.0794147 0.406272 0.485687) 254 503 2
(0.0716071 0.0763375 0.464196 0.387859) 254 505 2
(0.337725 0.331137 0.0217715 0.309366) 256 510 2
(0.382432 0.308784 0.18958 0.119203) 257 512 2
(0.357013 0.321494 0.216306 0.105187) 258 514 2
(0.309637 0.0188215 0.32636 0.345182) 259 516 1
(0.385978 0.0421172 0.307011 0.264894) 260 517 2
(0.307905 0.0174285 0.346048 0.328619) 261 519 2
(0.0192687 0.490366 0.146643 0.343723) 337 670 1
(0.33132 0.330248 0.33434 0.00409167) 338 672 2
(0.428626 0.0948361 0.285687 0.190851) 339 674 2
(0.439278 0.0346464 0.245714 0.280361) 340 677 1
(0.352148 0.00821768 0.323926 0.315708) 341 678 2
(0.120612 0.111547 0.328147 0.439694) 343 680 2
(0.217026 0.391487 0.0686629 0.322824) 344 685 2
(0.23744 0.38128 0.0601457 0.321134) 345 687 2
(0.137922 0.431039 0.259186 0.171853) 346 689 2
(0.0867235 0.456638 0.435948 0.0206905) 347 691 2
(0.134986 0.432507 0.17401 0.258497) 423 693 2
(0.375667 0.312167 0.293315 0.0188512) 424 695 2
(0.0447991 0.4776 0.303244 0.174356) 425 697 2
(0.181457 0.409272 0.0389127 0.370359) 351 699 2
(0.0056933 0.147947 0.497153 0.349206) 351 698 2
(0.425158 0.0220046 0.287421 0.265416) 352 700 2
(0.848169 0.0277205 0.0759155 0.048195) 353 702 2
(0.615474 0.192263 0.109038 0.0832248) 354 705 2
(0.306323 0.346838 0.147284 0.199555) 355 707 2
(0.291829 0.354086 0.0956678 0.258418) 356 709 2
(0.171021 0.299984 0.414489 0.114506) 357 710 2
(0.279597 0.360202 0.0796783 0.280523) 358 712 1
(0.563139 0.0666385 0.151792 0.21843) 359 715 1
(3.06332e-07 0.5 0.5 9.21669e-09) 375 7455 2
(3.06386e-07 0.5 0.5 8.86807e-09) 375 7455 2
(3.06318e-07 0.5 0.0415227 0.458477) 300 7454 2
(3.06439e-07 0.5 0.167269 0.332731) 375 7455 2
(0.304248 0.347876 0.133557 0.214319) 300 448 2
(0.335826 0.332087 0.200163 0.131924) 300 448 2
(0.359044 0.320478 0.134014 0.186464) 300 448 2
(0.381857 0.309072 0.056401 0.252671) 300 448 2
(0.204993 0.0643743 0.397504 0.333129) 300 448 1
(0.217746 0.0396198 0.391127 0.351507) 300 448 1
(0.238844 0.380578 0.310832 0.0697462) 300 596 1
(0.267143 0.29154 0.366429 0.0748888) 300 596 2
(0.324842 0.337579 0.265406 0.0721727) 300 596 1
(0.195768 0.402116 0.0584008 0.343715) 300 596 1
(0.160094 0.271955 0.147998 0.419953) 301 596 2
(0.65924 0.17038 0.0721047 0.0982751) 301 599 2
(0.0682577 0.191686 0.274185 0.465871) 302 598 2
(0.473902 0.263049 0.164381 0.0986676) 303 603 2
(0.25938 0.37031 0.305904 0.0644057) 304 605 2
(0.299542 0.335616 0.0146125 0.350229) 305 607 1
(0.16203 0.199715 0.219271 0.418985) 306 609 1
(0.0590162 0.325882 0.470492 0.14461) 382 611 1
(0.502467 0.0749924 0.248767 0.173774) 383 761 2
(0.371113 0.101054 0.21339 0.314444) 384 764 1
(0.014361 0.346371 0.49282 0.146448) 460 766 1
(0.164164 0.305993 0.417918 0.111925) 461 768 1
(0.360998 0.319501 0.0635028 0.255998) 462 770 2
(0.525685 0.237158 0.0924426 0.144715) 463 918 1
(0.547904 0.226048 0.193482 0.0325663) 464 774 2
(0.513893 0.243054 0.206779 0.0362744) 465 776 2
(0.503884 0.248058 0.0965497 0.151508) 466 924 1
(0.242794 0.378603 0.187733 0.19087) 467 926 1
(0.382421 0.0561071 0.30879 0.252683) 392 779 2
(0.509763 0.0851481 0.15997 0.245118) 393 782 1
(0.63774 0.137506 0.18113 0.0436241) 394 783 2
(0.126763 0.436618 0.0368449 0.399774) 395 785 1
(0.765168 0.117416 0.0266898 0.0907263) 397 790 2
(0.261653 0.075699 0.293475 0.369173) 398 792 1
(0.103198 0.111503 0.448401 0.336898) 399 793 2
(0.0793604 0.434318 0.46032 0.0260017) 400 795 2
(0.00969996 0.49515 0.286151 0.208999) 401 797 1
(0.295784 0.352108 0.319323 0.0327847) 402 799 1
(0.325869 0.264302 0.337065 0.0727635) 403 653 1
(0.339867 0.330067 0.0169051 0.313162) 404 801 1
(0.269382 0.164628 0.200681 0.365309) 329 655 1
(0.278923 0.275305 0.0852336 0.360539) 330 657 1
(0.290407 0.354796 0.310648 0.0441485) 331 659 2
(0.276112 0.361944 0.270975 0.090969) 332 661 2
(0.337201 0.306191 0.0252086 0.3314) 333 663 1
(0.451331 0.185234 0.0891002 0.274335) 334 665 1
(0.655048 0.0491006 0.123375 0.172476) 335 667 1
(0.445962 0.116258 0.277019 0.160761) 336 668 2
(0.359634 0.0602461 0.320183 0.259937) 412 671 1
(0.725422 0.137289 0.119118 0.0181717) 413 821 1
(0.532164 0.119673 0.114245 0.233918) 414 824 1
(0.149662 0.127088 0.425169 0.298081) 415 825 2
(0.0681918 0.0728754 0.393029 0.465904) 417 827 2
(0.0294324 0.168896 0.316388 0.485284) 418 829 2
(0.0136891 0.138686 0.35447 0.493155) 419 831 2
(0.189872 0.0240893 0.380975 0.405064) 420 833 2
(0.123196 0.438402 0.0634415 0.374961) 421 838 2
(0.122621 0.43869 0.0399274 0.398762) 422 840 2
(0.224785 0.387608 0.305367 0.0822407) 497 988 1
(0.356422 0.0212959 0.321789 0.300493) 498 842 1
(0.121352 0.261848 0.439324 0.177476) 499 844 1
(0.0355498 0.411532 0.0706934 0.482225) 425 846 1
(0.140603 0.407336 0.0223623 0.429698) 426 848 1
(0.230971 0.384515 0.339596 0.0449184) 427 850 2
(0.483113 0.258443 0.062679 0.195764) 428 703 2
(0.514039 0.24298 0.228116 0.0148645) 429 705 2
(0.185403 0.0648557 0.342443 0.407299) 430 853 2
(0.0596927 0.110738 0.470154 0.359415) 430 855 2
(0.238691 0.0255772 0.380654 0.355077) 431 857 2
(0.219685 0.0491287 0.341029 0.390157) 432 860 1
(0.260533 0.00588955 0.363844 0.369733) 433 862 1
(3.06503e-07 0.5 0.5 1.07613e-08) 450 7456 2
(3.06548e-07 0.5 0.5 1.03968e-08) 450 7456 2
(3.27946e-05 0.0707182 0.429265 0.499984) 300 7454 1
(3.06591e-07 0.5 0.137766 0.362234) 450 7456 2
(0.38846 0.30577 0.0807641 0.225006) 375 597 2
(0.379253 0.310373 0.17482 0.135553) 375 597 2
(0.416054 0.291973 0.082336 0.209637) 375 597 2
(0.464193 0.267903 0.149268 0.118635) 375 597 2
(0.100157 0.449922 0.123567 0.326355) 375 597 2
(0.203596 0.220498 0.398202 0.177704) 375 597 1
(0.240886 0.379557 0.283604 0.095953) 375 745 1
(0.317484 0.265194 0.341258 0.0760636) 375 745 2
(0.221065 0.114436 0.275032 0.389468) 375 746 1
(0.226198 0.386901 0.140514 0.246387) 375 745 1
(0.301461 0.254078 0.0951911 0.34927) 376 745 2
(0.394251 0.0471625 0.302875 0.255712) 376 747 2
(0.426775 0.0186945 0.286613 0.267918) 377 749 2
(0.385166 0.0731746 0.307417 0.234243) 378 751 2
(0.131941 0.204229 0.434029 0.229801) 454 754 1
(0.374898 0.29306 0.0194903 0.312551) 380 756 1
(0.563244 0.218378 0.120517 0.0978608) 381 758 2
(0.349844 0.325078 0.167535 0.157543) 382 760 2
(0.132915 0.433543 0.0243426 0.4092) 458 908 1
(0.320935 0.294219 0.0453135 0.339532) 458 911 1
(0.0584902 0.470755 0.204716 0.266038) 534 913 2
(0.131971 0.434014 0.0258408 0.408173) 535 1061 1
(0.0504231 0.474788 0.0470248 0.427764) 536 1063 1
(0.096533 0.451734 0.105886 0.345848) 537 919 2
(0.271378 0.242852 0.364311 0.121459) 538 921 1
(0.101794 0.449103 0.251343 0.19776) 539 1071 1
(0.529678 0.158405 0.235161 0.0767556) 541 927 1
(0.362529 0.0285555 0.318735 0.29018) 542 929 1
(0.757256 0.121372 0.0353173 0.0860548) 468 930 1
(0.686184 0.156908 0.0406466 0.116261) 469 784 2
(0.490979 0.254511 0.178943 0.0755675) 470 786 2
(0.370662 0.314669 0.24099 0.073679) 471 788 2
(0.438281 0.280859 0.15187 0.128989) 472 790 2
(0.242578 0.378711 0.00179796 0.376913) 473 941 2
(0.0316967 0.126527 0.484152 0.357624) 473 940 2
(0.204943 0.0306216 0.397528 0.366907) 474 942 2
(0.141337 0.0761461 0.429331 0.353185) 475 944 2
(0.325142 0.337429 0.0960629 0.241366) 477 800 2
(0.315385 0.342308 0.0196613 0.322646) 478 802 2
(0.303125 0.302827 0.348437 0.04561) 479 804 1
(0.276229 0.361886 0.17208 0.189805) 405 806 2
(0.245503 0.377249 0.0548426 0.322406) 406 808 2
(0.110009 0.0623334 0.382662 0.444996) 407 807 2
(0.0415165 0.219772 0.25947 0.479242) 408 809 2
(0.251817 0.0926649 0.281427 0.374092) 409 811 2
(0.284322 0.0676676 0.290172 0.357839) 410 813 2
(0.100671 0.37674 0.449665 0.0729251) 410 815 2
(0.310082 0.223955 0.344959 0.121004) 411 817 2
(0.161811 0.254478 0.164617 0.419095) 412 820 1
(0.0521262 0.473937 0.47265 0.00128673) 413 822 2
(0.676452 0.161774 0.0492469 0.112527) 489 973 2
(0.290129 0.0633091 0.291627 0.354936) 490 975 1
(0.0433155 0.128173 0.478342 0.350169) 491 976 2
(0.198604 0.065082 0.400698 0.335616) 492 978 2
(0.156779 0.0575147 0.421611 0.364096) 493 980 2
(0.0392573 0.045822 0.434549 0.480371) 495 982 2
(0.207897 0.396051 0.367044 0.0290068) 570 1133 1
(0.130167 0.434917 0.27924 0.155676) 571 1135 1
(0.312619 0.00490487 0.343691 0.338786) 572 989 1
(0.274138 0.182437 0.362931 0.180493) 573 991 1
(0.40856 0.29572 0.074628 0.221092) 574 993 2
(0.197209 0.401396 0.0982277 0.303168) 575 995 2
(0.0830671 0.443351 0.0151151 0.458466) 501 997 1
(0.150645 0.361169 0.0635084 0.424677) 502 999 1
(0.452812 0.232542 0.273594 0.0410522) 503 852 1
(0.498648 0.250676 0.175217 0.075459) 504 854 2
(0.246156 0.376922 0.112269 0.264652) 505 1005 2
(0.260704 0.369648 0.0997427 0.269905) 506 1007 2
(0.256748 0.371626 0.0549441 0.316682) 507 1009 2
(0.223081 0.388459 0.0584014 0.330058) 508 1011 2
(0.256138 0.0533787 0.318552 0.371931) 509 1010 2
(3.06332e-07 0.5 0.5 1.10431e-08) 525 7457 2
(3.06386e-07 0.5 0.5 1.06675e-08) 525 7457 2
(3.06633e-07 0.5 0.0415194 0.45848) 450 7456 2
(3.06438e-07 0.5 0.0999984 0.400001) 525 7457 2
(0.351511 0.324244 0.155147 0.169098) 450 746 2
(0.400792 0.250023 0.299604 0.0495808) 450 746 1
(0.699546 0.124259 0.0259687 0.150227) 375 7455 1
(0.445608 0.277196 0.104975 0.172221) 450 746 2
(0.495439 0.252281 0.123736 0.128545) 450 746 2
(0.310667 0.344666 0.295515 0.0491512) 450 894 1
(0.353447 0.323277 0.312159 0.0111175) 450 894 1
(0.382237 0.308882 0.195445 0.113437) 450 894 1
(0.284616 0.258931 0.357692 0.0987609) 450 894 2
(0.115989 0.442005 0.167901 0.274104) 450 894 1
(0.505832 0.223734 0.02335 0.247084) 451 894 2
(0.306491 0.114412 0.346755 0.232343) 451 896 2
(0.102315 0.245796 0.203046 0.448843) 527 1045 2
(0.185008 0.243079 0.407496 0.164417) 527 1047 2
(0.62518 0.0395364 0.18741 0.147874) 528 1049 2
(0.0952554 0.0719677 0.380405 0.452372) 455 902 2
(0.114795 0.116606 0.325996 0.442602) 455 905 1
(0.0458379 0.438297 0.477081 0.0387842) 531 907 1
(0.0977516 0.451124 0.374735 0.0763895) 532 909 2
(0.537833 0.231083 0.0486089 0.182475) 532 1058 2
(0.164769 0.0898542 0.327761 0.417616) 532 1058 1
(0.208319 0.188417 0.207424 0.395841) 533 1060 1
(0.0855117 0.457244 0.217937 0.239307) 535 1064 2
(0.188023 0.123502 0.282487 0.405989) 536 1066 1
(0.0657357 0.467132 0.12972 0.337412) 538 1070 2
(0.0588646 0.470568 0.172738 0.29783) 614 1072 2
(0.26077 0.332436 0.369615 0.0371792) 615 1074 1
(0.349605 0.13289 0.325197 0.192307) 616 1076 1
(0.153688 0.338593 0.423156 0.0845634) 617 1078 1
(0.109536 0.445232 0.373171 0.0720608) 543 1080 2
(0.554337 0.197242 0.222832 0.0255896) 544 933 1
(0.3169 0.272572 0.34155 0.0689776) 545 935 1
(0.415353 0.0885659 0.203758 0.292324) 546 1083 2
(0.198324 0.023973 0.376865 0.400838) 546 1086 1
(0.206094 0.0886436 0.308309 0.396953) 547 1088 1
(0.0594178 0.141795 0.328497 0.470291) 549 1089 2
(0.150103 0.23094 0.424948 0.194009) 550 1093 2
(0.255848 0.372076 0.199027 0.173049) 552 949 2
(0.319671 0.158642 0.340164 0.181523) 553 951 1
(0.0345891 0.04338 0.482705 0.439325) 554 953 1
(0.209536 0.0734671 0.321765 0.395232) 480 955 1
(0.186582 0.0784452 0.328264 0.406709) 481 957 1
(0.459428 0.00501098 0.270286 0.265275) 482 958 2
(0.485689 0.0268909 0.257155 0.230264) 483 960 2
(0.49423 0.0292766 0.252885 0.223608) 484 962 2
(0.361827 0.319086 0.13914 0.179946) 560 965 2
(0.12706 0.228164 0.208306 0.43647) 561 1113 2
(0.541237 0.0284908 0.229382 0.200891) 561 1115 2
(0.0630265 0.468487 0.0940084 0.374478) 562 969 2
(0.153038 0.423481 0.41168 0.0118007) 563 971 2
(0.215685 0.12036 0.392157 0.271797) 563 971 1
(0.286803 0.115219 0.356598 0.24138) 564 973 1
(0.262349 0.368826 0.341459 0.027367) 565 1124 2
(0.275495 0.362253 0.313589 0.0486632) 566 1126 2
(0.272185 0.363907 0.308015 0.055892) 567 1128 2
(0.307931 0.346034 0.314128 0.0319064) 568 1130 2
(0.115222 0.386814 0.442389 0.0555751) 644 1132 1
(0.186378 0.340078 0.406811 0.0667328) 645 1134 1
(0.0796919 0.460154 0.141138 0.319016) 647 1284 1
(0.0168969 0.491552 0.117111 0.37444) 573 1140 2
(0.308875 0.345563 0.329005 0.0165581) 648 1288 1
(0.165221 0.41739 0.345468 0.0719219) 649 1290 1
(0.00960681 0.495197 0.0236982 0.471498) 576 1146 2
(0.0495365 0.475232 0.210638 0.264594) 577 1148 2
(0.260901 0.246189 0.12336 0.369549) 578 1150 1
(0.273953 0.0534788 0.309545 0.363024) 579 1152 1
(0.22216 0.0321263 0.38892 0.356794) 580 1153 2
(0.287073 0.0246754 0.331788 0.356464) 581 1156 1
(0.172416 0.0635086 0.350283 0.413792) 582 1158 1
(0.317179 0.0743073 0.267103 0.34141) 583 1160 1
(0.71355 0.0956349 0.143225 0.0475899) 584 1013 1
(3.06332e-07 0.5 0.5 9.56655e-09) 600 7458 2
(3.06386e-07 0.5 0.5 9.24138e-09) 600 7458 2
(3.0649e-07 0.5 0.171396 0.328603) 525 7457 2
(3.06438e-07 0.5 0.0291417 0.470858) 600 7458 2
(0.286593 0.356703 0.108356 0.248347) 525 895 2
(0.298166 0.350917 0.195772 0.155145) 525 895 2
(0.410786 0.294607 0.162186 0.132421) 525 895 2
(0.395765 0.100905 0.302117 0.201213) 525 895 1
(0.377031 0.311485 0.133309 0.178176) 525 895 2
(0.21449 0.392755 0.331455 0.0613) 525 1043 1
(0.194906 0.402547 0.355212 0.0473345) 525 1043 1