/*--------------------------------*- C++ -*----------------------------------*\
  =========                 |
  \\      /  F ield         | OpenFOAM: The Open Source CFD Toolbox
   \\    /   O peration     | Website:  https://openfoam.org
    \\  /    A nd           | Version:  12
     \\/     M anipulation  |
\*---------------------------------------------------------------------------*/
FoamFile
{
    format      ascii;
    class       vectorField;
    location    "0.3/lagrangian/cloud";
    object      U;
}
// * * * * * * * * * * * * * * * * * * * * * * * * * * * * * * * * * * * * * //


4461
(
(-8.23764e-11 -5.8915e-05 0)
(-8.0214e-11 -5.89279e-05 0)
(8.40505e-05 -0.00623084 0)
(3.506e-05 -0.00753223 0)
(3.06587e-05 -0.00762322 0)
(-0.000807006 -0.0121349 0)
(-0.00082214 -0.0122194 0)
(0.00464069 -0.0166556 0)
(0.00343221 -0.00748102 0)
(-0.00535297 -0.0187666 0)
(-0.00377422 -0.0220626 0)
(0.00366092 -0.0301302 0)
(-0.000894899 -0.0295025 0)
(-0.000180485 -0.0341699 0)
(0.000627912 -0.0335527 0)
(0.000581973 -0.0328745 0)
(0.000427805 -0.0311744 0)
(-0.000456974 -0.0286111 0)
(-0.000750031 -0.0291494 0)
(-0.000868464 -0.0299504 0)
(0.00193095 -0.0277381 0)
(0.000921513 -0.0298683 0)
(0.00028185 -0.0298747 0)
(0.000493938 -0.0300506 0)
(0.00137363 -0.0278049 0)
(-0.00068815 -0.0301551 0)
(0.000460053 -0.0280336 0)
(-2.01328e-05 -0.0300628 0)
(-0.000623551 -0.0295499 0)
(-0.000468687 -0.0288924 0)
(0.000232867 -0.030191 0)
(0.00128966 -0.0303225 0)
(-0.000687966 -0.0270267 0)
(-0.00163773 -0.0259062 0)
(-0.00179494 -0.0270011 0)
(-0.000659739 -0.026821 0)
(-0.000513264 -0.0234873 0)
(-0.000627902 -0.0283805 0)
(-0.0012281 -0.029453 0)
(-0.00314458 -0.0290492 0)
(-0.00242685 -0.0267124 0)
(0.00014269 -0.0280978 0)
(0.000455183 -0.0274326 0)
(0.000475717 -0.0270031 0)
(-0.000184494 -0.0242741 0)
(-0.00137876 -0.0291688 0)
(-0.00104299 -0.0262845 0)
(0.000324209 -0.0228996 0)
(-0.00105416 -0.0254894 0)
(-1.81747e-05 -0.0241378 0)
(-0.000306623 -0.02387 0)
(0.000414607 -0.0170427 0)
(0.00225576 -0.0169457 0)
(0.00374687 -0.0139517 0)
(0.00518788 -0.0161431 0)
(0.00448823 -0.016447 0)
(0.000735324 -0.0214561 0)
(0.000872471 -0.0207371 0)
(0.00170192 -0.0265583 0)
(-0.000519687 -0.0316707 0)
(-0.000177086 -0.0279595 0)
(0.00129924 -0.0301245 0)
(0.0015401 -0.0289845 0)
(0.00106995 -0.0276905 0)
(0.000198431 -0.0267883 0)
(-0.00131611 -0.0265322 0)
(0.000390449 -0.0272163 0)
(0.000717374 -0.0213515 0)
(0.000189932 -0.0226482 0)
(0.000779354 -0.0228952 0)
(0.00161883 -0.0242531 0)
(0.00132786 -0.0279782 0)
(-5.22706e-05 -0.0355563 0)
(0.00105725 -0.0321875 0)
(0.000368065 -0.0312632 0)
(-3.70997e-11 -5.89752e-05 0)
(-3.63136e-11 -5.89835e-05 0)
(-3.05699e-07 -6.60241e-05 0)
(-2.97507e-07 -6.58417e-05 0)
(-0.00591418 -0.0243011 0)
(-0.00586844 -0.0316089 0)
(-0.00625124 -0.0159819 0)
(-0.00699567 -0.0205778 0)
(-0.0081488 -0.0183182 0)
(-0.0113209 -0.0206157 0)
(-0.00995465 -0.0163185 0)
(-0.00254313 -0.0247118 0)
(0.000666768 -0.0297273 0)
(-0.00366306 -0.0437749 0)
(-0.00155581 -0.0322559 0)
(-0.000740318 -0.040989 0)
(-0.00099155 -0.038008 0)
(-0.00142284 -0.0388163 0)
(-0.000792197 -0.0362718 0)
(-0.00119041 -0.0340119 0)
(-0.00199917 -0.0368473 0)
(-0.00342153 -0.0322777 0)
(0.00100186 -0.0359699 0)
(-0.00205285 -0.0404168 0)
(-0.000324669 -0.0397322 0)
(-0.00289399 -0.0334141 0)
(-0.000288309 -0.0300091 0)
(0.00057078 -0.030046 0)
(0.00117518 -0.030121 0)
(7.70356e-05 -0.0309778 0)
(0.000781473 -0.0265723 0)
(0.00149494 -0.0391083 0)
(0.0038406 -0.0449055 0)
(0.00370157 -0.0376339 0)
(0.000883268 -0.0413052 0)
(-0.000215815 -0.0424163 0)
(-0.00162374 -0.0342113 0)
(-0.00238991 -0.032632 0)
(0.000420131 -0.0308837 0)
(0.000596846 -0.0312663 0)
(-0.00315036 -0.0303277 0)
(-0.00134076 -0.0376095 0)
(0.000210831 -0.0394998 0)
(2.2645e-05 -0.0410134 0)
(-0.000968441 -0.0416194 0)
(-0.000599982 -0.030793 0)
(-0.000853024 -0.0259271 0)
(-0.00159922 -0.0262359 0)
(7.29532e-05 -0.0300147 0)
(-0.00176273 -0.0261318 0)
(-0.00276565 -0.0211161 0)
(-0.0039097 -0.0297454 0)
(-0.00391194 -0.0339348 0)
(-0.00272304 -0.0341757 0)
(-0.00375268 -0.034186 0)
(-0.00163592 -0.0324221 0)
(0.00184615 -0.03151 0)
(0.00577404 -0.0218066 0)
(0.00436073 -0.0207099 0)
(0.000712907 -0.0252765 0)
(0.00067674 -0.0284002 0)
(0.000218312 -0.0278907 0)
(0.0022346 -0.0332951 0)
(0.0013335 -0.0358119 0)
(0.00261255 -0.0406767 0)
(0.000415401 -0.0421454 0)
(0.000799007 -0.0404042 0)
(-0.000181185 -0.0401859 0)
(-0.00135547 -0.0402268 0)
(-9.7644e-05 -0.0345271 0)
(0.00247172 -0.0339583 0)
(-0.00319672 -0.0304588 0)
(0.00235252 -0.0371424 0)
(0.00382981 -0.0415612 0)
(0.00289181 -0.041191 0)
(-4.25539e-11 -5.89464e-05 0)
(-4.15494e-11 -5.89568e-05 0)
(-1.40372e-06 -5.88128e-05 0)
(-4.05686e-11 -5.89669e-05 0)
(0.00218484 -0.0182025 0)
(-0.000788227 -0.0145786 0)
(0.00814608 -0.0121504 0)
(-0.00815919 -0.0134956 0)
(-0.00225341 -0.0074779 0)
(0.00951269 -0.018314 0)
(-0.0065602 -0.0123144 0)
(-0.00417659 -0.0262905 0)
(-0.00706285 -0.00713838 0)
(-0.00285234 -0.0154718 0)
(0.00665133 -0.0301341 0)
(-0.00223684 -0.0451832 0)
(-0.0045145 -0.0443853 0)
(0.000488322 -0.0474594 0)
(-0.00181767 -0.0448034 0)
(-0.00251738 -0.0456417 0)
(-0.000786145 -0.0448716 0)
(-0.00492092 -0.0440266 0)
(-0.0028923 -0.0426449 0)
(-0.00188293 -0.0455866 0)
(0.000149232 -0.0424676 0)
(-0.00166935 -0.0413719 0)
(0.000111942 -0.0419717 0)
(0.000423622 -0.0407173 0)
(6.5445e-05 -0.039197 0)
(0.000978548 -0.0397208 0)
(-0.000146199 -0.0420187 0)
(0.00119041 -0.043665 0)
(0.00176177 -0.0422768 0)
(-0.000959355 -0.0480286 0)
(-0.000414464 -0.0512276 0)
(-0.000415699 -0.0517973 0)
(0.00225437 -0.0478227 0)
(0.000446419 -0.0463403 0)
(0.000178479 -0.0474937 0)
(-0.000662849 -0.0470685 0)
(-0.00125272 -0.0451388 0)
(-0.000734375 -0.047772 0)
(0.00026051 -0.0494492 0)
(0.000673567 -0.0486066 0)
(-0.00416035 -0.0449279 0)
(-0.000672108 -0.0464063 0)
(-0.00223478 -0.0459932 0)
(-0.00073408 -0.0452328 0)
(0.000651476 -0.0374397 0)
(-5.65016e-05 -0.0380806 0)
(0.00200885 -0.0430347 0)
(-0.000465945 -0.0409941 0)
(-0.0014583 -0.0399624 0)
(-0.000364476 -0.0443205 0)
(-0.00101308 -0.0421354 0)
(-0.00500267 -0.0452479 0)
(-0.00735912 -0.0424531 0)
(-0.0077897 -0.0451955 0)
(0.00198582 -0.043592 0)
(0.00507277 -0.0386816 0)
(0.0082767 -0.0378357 0)
(0.00792284 -0.033497 0)
(0.00691359 -0.0434692 0)
(0.0079522 -0.0436642 0)
(0.00842658 -0.0458718 0)
(0.00407169 -0.0456649 0)
(0.000781611 -0.0450422 0)
(-0.000380591 -0.045637 0)
(-0.000637968 -0.0456934 0)
(-0.000267016 -0.0474755 0)
(-0.00222624 -0.047591 0)
(-0.000276566 -0.0496064 0)
(0.000771465 -0.049297 0)
(-0.000842005 -0.0482056 0)
(0.00201184 -0.0466011 0)
(-1.4976e-11 -5.89464e-05 0)
(-1.46227e-11 -5.89568e-05 0)
(-3.96108e-11 -5.89768e-05 0)
(-1.42777e-11 -5.89669e-05 0)
(-0.00169404 -0.00890109 0)
(-0.0022318 -0.0101885 0)
(-0.00184762 -0.009773 0)
(-0.00270046 -0.0123231 0)
(-0.00219755 -0.0103668 0)
(-0.000976583 -0.00706482 0)
(-0.00140295 -0.00929464 0)
(-0.00631741 -0.0125238 0)
(-0.00618091 -0.011272 0)
(-0.00651423 -0.0230309 0)
(0.00141437 -0.0315116 0)
(-0.00882116 -0.0415261 0)
(-0.00677777 -0.0485323 0)
(-0.00119602 -0.0449795 0)
(-0.00132825 -0.048182 0)
(-0.0020821 -0.0438549 0)
(0.000357832 -0.0487523 0)
(9.86194e-05 -0.0480628 0)
(-0.000113935 -0.0471116 0)
(-3.07175e-05 -0.0476624 0)
(-0.00162868 -0.0461389 0)
(-0.00327477 -0.0457374 0)
(0.000295486 -0.0457229 0)
(0.00237658 -0.0432225 0)
(0.0050052 -0.0435734 0)
(0.00423112 -0.044473 0)
(0.00344558 -0.0444657 0)
(0.000336694 -0.0465289 0)
(-0.000921798 -0.050286 0)
(-0.000766087 -0.0522004 0)
(-0.000523314 -0.0539776 0)
(0.000265914 -0.0548014 0)
(0.00200914 -0.0546916 0)
(0.00122873 -0.0550781 0)
(0.000656364 -0.0537704 0)
(-0.000863263 -0.0521649 0)
(-0.000188015 -0.0524075 0)
(0.000934988 -0.0539317 0)
(0.000157027 -0.0550177 0)
(0.000597787 -0.0534973 0)
(0.00217877 -0.0529934 0)
(-0.000388537 -0.0569692 0)
(0.00283891 -0.0518324 0)
(-0.00147024 -0.0516538 0)
(-0.00202999 -0.0540392 0)
(-0.00103178 -0.0511854 0)
(-0.00179904 -0.0507051 0)
(-2.93047e-05 -0.0525666 0)
(-0.000103779 -0.0508744 0)
(-0.000960155 -0.0508456 0)
(-0.0010408 -0.048762 0)
(-0.0019126 -0.0447716 0)
(-0.00205655 -0.0469599 0)
(-0.0061004 -0.048193 0)
(-0.00637803 -0.0496728 0)
(-0.0048152 -0.0512192 0)
(0.00290969 -0.0495581 0)
(0.00741801 -0.0474212 0)
(0.00602862 -0.0512586 0)
(0.00554478 -0.0512367 0)
(0.00710296 -0.0488881 0)
(0.00425225 -0.0489639 0)
(0.00119772 -0.0480857 0)
(-0.000770491 -0.0472387 0)
(-0.000395062 -0.0484779 0)
(-0.000519557 -0.0491322 0)
(-0.000546159 -0.0500133 0)
(0.00171936 -0.0516604 0)
(0.00360979 -0.0494363 0)
(0.00020714 -0.0497839 0)
(-0.000104568 -0.051726 0)
(-5.60447e-11 -5.8915e-05 0)
(-5.4574e-11 -5.89279e-05 0)
(-1.39408e-11 -5.89768e-05 0)
(-5.31419e-11 -5.89405e-05 0)
(-0.00262944 -0.0121389 0)
(-0.00119009 -0.0146869 0)
(-0.00194795 -0.0127044 0)
(0.00193154 -0.0132375 0)
(-0.00109319 -0.0131756 0)
(-0.00359335 -0.0200775 0)
(-0.000125496 -0.00935746 0)
(-0.00612995 -0.014736 0)
(-0.00592841 -0.0143864 0)
(-0.00641332 -0.0220899 0)
(-0.0071792 -0.0204112 0)
(-0.00867233 -0.0340284 0)
(-0.00471251 -0.0533194 0)
(-0.00455385 -0.0494778 0)
(-0.00432121 -0.0477329 0)
(-0.00359715 -0.0470061 0)
(-0.00284958 -0.0471538 0)
(-0.00149805 -0.0497485 0)
(-0.00135667 -0.048093 0)
(-0.00155256 -0.0480631 0)
(-0.000673281 -0.0479347 0)
(-0.00113505 -0.0471593 0)
(-0.00181359 -0.0467024 0)
(-0.000330617 -0.0485835 0)
(0.00295387 -0.0424126 0)
(0.00400679 -0.0426816 0)
(0.00514467 -0.0424923 0)
(0.00413788 -0.0435204 0)
(0.00208141 -0.0446808 0)
(0.000978737 -0.0488902 0)
(0.000862043 -0.0522527 0)
(0.00248706 -0.053771 0)
(0.00200902 -0.0551798 0)
(0.000581795 -0.0525506 0)
(0.000557691 -0.0538504 0)
(-0.00420141 -0.0518648 0)
(-0.00056743 -0.0522345 0)
(-0.0016084 -0.0537189 0)
(-0.000179313 -0.0533574 0)
(-0.000193919 -0.0512394 0)
(0.000207007 -0.0532757 0)
(0.00102906 -0.0558489 0)
(0.00185783 -0.0561137 0)
(0.00143598 -0.0570362 0)
(0.000843276 -0.0566838 0)
(-0.00178248 -0.0534432 0)
(-0.000865125 -0.0531027 0)
(-0.00311884 -0.0546198 0)
(-0.00492989 -0.0511552 0)
(-0.00350167 -0.0472985 0)
(-0.00146069 -0.0467508 0)
(-0.00105599 -0.0483996 0)
(-0.00488789 -0.0502474 0)
(-0.00372937 -0.0513854 0)
(-0.00562859 -0.0517724 0)
(-0.0021735 -0.0561755 0)
(0.00172392 -0.0557563 0)
(0.00484892 -0.057104 0)
(0.00689179 -0.0555067 0)
(0.00630952 -0.0530825 0)
(0.00597263 -0.0499513 0)
(0.00230953 -0.0515134 0)
(0.000753659 -0.0505975 0)
(0.000129863 -0.0488597 0)
(-0.000632687 -0.0477953 0)
(-0.00105894 -0.0511461 0)
(-0.000426886 -0.0527595 0)
(-0.000383949 -0.0528247 0)
(0.000381319 -0.0546567 0)
(-0.000659953 -0.050818 0)
(0.00311922 -0.0520551 0)
(-6.53352e-11 -5.89464e-05 0)
(-6.37924e-11 -5.89568e-05 0)
(-5.17472e-11 -5.89527e-05 0)
(-6.2286e-11 -5.89669e-05 0)
(-0.00352115 -0.0112003 0)
(-0.00211333 -0.0103486 0)
(-0.00615699 -0.0120814 0)
(-0.00240498 -0.013172 0)
(-0.0093505 -0.0100072 0)
(-0.00232985 -0.0103835 0)
(-0.00623529 -0.0130634 0)
(-0.00605506 -0.0116363 0)
(-0.00612689 -0.0136869 0)
(-0.0063747 -0.01419 0)
(-0.00458814 -0.0118798 0)
(-0.00896592 -0.0215234 0)
(-0.00288705 -0.0504576 0)
(-0.0021865 -0.0487541 0)
(-0.00544648 -0.0514593 0)
(-0.00316631 -0.0500451 0)
(-0.00341835 -0.0489038 0)
(-0.0033974 -0.0465285 0)
(-0.00205673 -0.04881 0)
(-0.00111913 -0.0499841 0)
(-0.00186797 -0.0507443 0)
(-0.00161881 -0.051134 0)
(-0.00228456 -0.0510944 0)
(-0.00247002 -0.054546 0)
(-0.00136768 -0.050869 0)
(-0.00245302 -0.0491358 0)
(0.00162323 -0.051046 0)
(0.00372158 -0.0480615 0)
(0.00511127 -0.046124 0)
(0.00599279 -0.0465964 0)
(0.0033434 -0.0516582 0)
(0.00156978 -0.0539265 0)
(0.00120028 -0.0505626 0)
(0.000692502 -0.0518895 0)
(-0.000535025 -0.0528226 0)
(-0.000486672 -0.0533559 0)
(-0.00131086 -0.0516059 0)
(-0.000839847 -0.0485933 0)
(0.000368092 -0.0469517 0)
(0.00141168 -0.0483496 0)
(0.000340561 -0.0491581 0)
(0.00085412 -0.0474725 0)
(0.000351687 -0.0482035 0)
(0.000356337 -0.0498372 0)
(0.000985351 -0.0539165 0)
(0.00246557 -0.0544527 0)
(0.00172181 -0.0541044 0)
(-0.00371487 -0.0527998 0)
(-0.0057824 -0.0442416 0)
(-0.00571952 -0.0456839 0)
(-0.00275016 -0.0486859 0)
(-0.00232859 -0.0520357 0)
(-0.0034099 -0.0530704 0)
(-0.00222791 -0.0538777 0)
(-0.000667356 -0.0556322 0)
(-0.000169647 -0.0580914 0)
(0.00112113 -0.0578741 0)
(0.00172944 -0.0567702 0)
(0.00399908 -0.0558623 0)
(0.00470252 -0.0493786 0)
(0.00595095 -0.0496964 0)
(0.00359747 -0.0499294 0)
(0.00142994 -0.0506901 0)
(-3.62795e-05 -0.0512555 0)
(-0.001135 -0.0517415 0)
(-0.00180917 -0.0525516 0)
(-0.000115084 -0.0537922 0)
(-0.000215211 -0.0542439 0)
(-0.00117359 -0.054703 0)
(-0.000522709 -0.0533275 0)
(-8.55014e-05 -0.0551048 0)
(-2.90298e-11 -5.89707e-05 0)
(-2.84147e-11 -5.89792e-05 0)
(6.30014e-05 -2.12906e-05 0)
(-2.78126e-11 -5.89876e-05 0)
(-0.0038362 -0.0130972 0)
(-0.000875571 -0.0103013 0)
(-0.00375621 -0.0127338 0)
(-0.00211129 -0.0128151 0)
(-0.00208998 -0.0126676 0)
(-0.00316785 -0.00685616 0)
(-0.00637544 -0.00683247 0)
(-0.0072203 -0.0115157 0)
(-0.00384181 -0.00908991 0)
(-0.00680378 -0.0196876 0)
(-0.0134371 -0.0272321 0)
(-0.0140698 -0.0275233 0)
(-0.00327992 -0.0507828 0)
(-0.0028657 -0.0490833 0)
(-0.00337632 -0.0490285 0)
(-0.00387899 -0.0476071 0)
(-0.00118302 -0.0485251 0)
(-0.00288933 -0.0461364 0)
(-0.00296002 -0.0457584 0)
(-0.000711146 -0.0477724 0)
(-0.000203443 -0.0530839 0)
(-0.000222181 -0.05402 0)
(-0.000943603 -0.0568784 0)
(-0.00266554 -0.0575671 0)
(-0.00374092 -0.0575506 0)
(-0.000413436 -0.0612568 0)
(0.00280296 -0.054735 0)
(0.00266611 -0.0534079 0)
(0.00510812 -0.047214 0)
(0.00132278 -0.049764 0)
(0.00169478 -0.05133 0)
(0.00096656 -0.0513916 0)
(0.000590758 -0.05042 0)
(0.00020977 -0.0510415 0)
(-1.13124e-05 -0.0510917 0)
(-8.30795e-05 -0.0514388 0)
(-0.00147452 -0.0523878 0)
(-0.00206815 -0.0508734 0)
(-0.000937553 -0.0498936 0)
(-0.000220485 -0.0489849 0)
(-0.000307495 -0.0474683 0)
(-0.000430704 -0.04629 0)
(0.000288412 -0.0468836 0)
(0.00232111 -0.0499325 0)
(0.00204297 -0.0522614 0)
(-0.000506089 -0.0514596 0)
(-0.00188479 -0.0506933 0)
(-0.00343378 -0.0459929 0)
(-0.00382685 -0.0429221 0)
(-0.00410962 -0.0435738 0)
(4.43761e-05 -0.0490126 0)
(6.84011e-05 -0.0533182 0)
(-0.00075005 -0.0554047 0)
(-0.00138426 -0.0554216 0)
(-0.00146059 -0.0572315 0)
(-0.00165133 -0.0571837 0)
(-0.00135149 -0.0580433 0)
(-0.00033044 -0.0549093 0)
(0.00280248 -0.0499756 0)
(0.00458914 -0.0466899 0)
(0.00366383 -0.0492726 0)
(0.00628669 -0.051271 0)
(0.00120503 -0.051849 0)
(0.000994843 -0.0531832 0)
(-0.00204643 -0.0530811 0)
(-0.00279916 -0.0532503 0)
(-0.000748833 -0.0552524 0)
(-0.000723009 -0.0546461 0)
(-0.000610037 -0.0534186 0)
(-0.000488595 -0.0528724 0)
(0.000697805 -0.0531038 0)
(-1.91493e-11 -5.89464e-05 0)
(-1.86976e-11 -5.89567e-05 0)
(-2.72232e-11 -5.89957e-05 0)
(-1.82565e-11 -5.89669e-05 0)
(-0.00104255 -0.00980589 0)
(-0.0001021 -0.0126201 0)
(-0.00289212 -0.00920686 0)
(-0.00193709 -0.013242 0)
(0.000928889 -0.0136506 0)
(-0.000881817 -0.00932236 0)
(-0.00367372 -0.023291 0)
(-0.00521381 -0.0243508 0)
(-0.00536758 -0.00934444 0)
(-0.0066388 -0.0228484 0)
(-0.0134319 -0.0216806 0)
(-0.0053549 -0.036106 0)
(-0.00368957 -0.0536146 0)
(-0.00399374 -0.0524495 0)
(-0.00417689 -0.046345 0)
(-0.0047308 -0.0469507 0)
(-0.00453504 -0.0476757 0)
(-0.00333408 -0.0489835 0)
(-0.00347014 -0.044553 0)
(-0.00122411 -0.0499395 0)
(0.0035342 -0.0503009 0)
(-0.00158066 -0.0557065 0)
(-0.000153669 -0.0585391 0)
(-0.00140009 -0.0618139 0)
(-0.00239669 -0.0626225 0)
(-0.00194227 -0.06167 0)
(-0.000829332 -0.0598894 0)
(0.00327045 -0.0580272 0)
(0.00434128 -0.0548413 0)
(0.00359148 -0.053456 0)
(0.000163895 -0.0538669 0)
(0.00054395 -0.0531925 0)
(0.00284359 -0.0556877 0)
(0.00400818 -0.0541693 0)
(0.000666715 -0.0523666 0)
(0.000215136 -0.0538641 0)
(-3.23446e-05 -0.054659 0)
(-0.00112421 -0.0523932 0)
(-0.000591359 -0.0512731 0)
(0.00146134 -0.047601 0)
(-0.000165929 -0.0495563 0)
(2.74873e-05 -0.0477455 0)
(0.00202735 -0.0480298 0)
(0.00216387 -0.0488179 0)
(-0.0026669 -0.0443586 0)
(-0.00635369 -0.0423557 0)
(-0.00329984 -0.0422145 0)
(-0.00323304 -0.0421223 0)
(-0.00111263 -0.0433215 0)
(-0.00235277 -0.0443129 0)
(-0.0011272 -0.0474689 0)
(0.000481072 -0.0504977 0)
(0.000486488 -0.0540314 0)
(1.1839e-05 -0.0554955 0)
(-0.000209561 -0.0559223 0)
(-0.000218472 -0.0562889 0)
(0.000122534 -0.0545136 0)
(-0.000276049 -0.0557553 0)
(0.00127914 -0.0549978 0)
(0.00289529 -0.0517111 0)
(0.00430678 -0.0532844 0)
(0.00386697 -0.0538245 0)
(0.00479556 -0.0547042 0)
(0.00291883 -0.0551806 0)
(0.00060602 -0.0561863 0)
(0.000535366 -0.0555972 0)
(-0.000794596 -0.0562733 0)
(-0.000659742 -0.0524897 0)
(-0.00147608 -0.0517603 0)
(0.000297303 -0.0506066 0)
(-0.00024821 -0.0517994 0)
(-3.86872e-11 -5.89463e-05 0)
(-3.77738e-11 -5.89567e-05 0)
(-1.78258e-11 -5.89768e-05 0)
(-3.6882e-11 -5.89669e-05 0)
(-0.00257791 -0.0101589 0)
(-0.00160766 -0.00856018 0)
(0.00436194 -0.0115498 0)
(-0.000862698 -0.0105058 0)
(-0.00342074 -0.0103908 0)
(0.00233323 -0.00989353 0)
(-0.00663241 -0.00555208 0)
(-0.00408516 -0.00796644 0)
(-0.00393879 -0.00851532 0)
(-0.00444296 -0.0181863 0)
(-0.0027693 -0.0199722 0)
(-0.00254144 -0.0217175 0)
(-0.0092199 -0.0304206 0)
(-0.00375163 -0.0441687 0)
(-0.00443672 -0.0485554 0)
(-0.000120381 -0.0497902 0)
(-0.00098395 -0.0556973 0)
(-0.00250128 -0.0531217 0)
(-0.00171693 -0.052967 0)
(-0.00198917 -0.0550527 0)
(-0.00147999 -0.0587933 0)
(-0.000683014 -0.0593297 0)
(0.0014793 -0.0615354 0)
(0.00133104 -0.0601445 0)
(0.000242489 -0.0611609 0)
(-0.000285136 -0.0640082 0)
(-0.00133314 -0.0639101 0)
(-0.00161643 -0.061881 0)
(-0.00100593 -0.0599283 0)
(0.000952508 -0.0578235 0)
(0.00137401 -0.054266 0)
(0.00221881 -0.0565174 0)
(0.00066029 -0.0575599 0)
(0.00329767 -0.0552931 0)
(0.00257674 -0.055657 0)
(0.00130538 -0.055483 0)
(0.000566352 -0.052206 0)
(-0.00138638 -0.0525738 0)
(-0.00165671 -0.0486585 0)
(0.000163579 -0.0456178 0)
(0.000581633 -0.0487769 0)
(-0.00080252 -0.0472439 0)
(-0.00178771 -0.0456263 0)
(-0.000779632 -0.0428336 0)
(-0.00110942 -0.0404937 0)
(-0.00320146 -0.0420113 0)
(-0.00028023 -0.0477267 0)
(-0.00120457 -0.0504326 0)
(-0.00035373 -0.0508368 0)
(0.000201419 -0.0521694 0)
(-0.000416511 -0.0526914 0)
(0.000894528 -0.0540546 0)
(-0.00027995 -0.0544043 0)
(-0.00058843 -0.0542876 0)
(-0.000422475 -0.0523257 0)
(-0.000471335 -0.0508879 0)
(0.000361854 -0.0525908 0)
(-0.00154978 -0.0533116 0)
(-0.000967138 -0.0553664 0)
(0.00310996 -0.055185 0)
(0.00664058 -0.0553107 0)
(0.00306849 -0.0564954 0)
(0.00750353 -0.0572678 0)
(0.0024362 -0.0563704 0)
(0.000804902 -0.0562288 0)
(0.000362335 -0.0541615 0)
(-0.000781379 -0.0532876 0)
(-0.00143827 -0.0532319 0)
(-0.00110323 -0.0497825 0)
(-0.00033105 -0.0483245 0)
(-0.00111018 -0.0500465 0)
(-2.98699e-11 -5.89463e-05 0)
(-2.9165e-11 -5.89567e-05 0)
(-3.60112e-11 -5.89767e-05 0)
(-2.84766e-11 -5.89668e-05 0)
(-0.00223182 -0.0139655 0)
(-0.000883467 -0.00965105 0)
(-0.00249751 -0.0157944 0)
(0.000936643 -0.00419009 0)
(-0.00197643 -0.016656 0)
(-0.00190162 -0.0159158 0)
(-0.00497796 -0.0084552 0)
(-0.00371155 -0.0054244 0)
(-0.00509144 -0.00473045 0)
(-0.00541448 -0.0176516 0)
(-0.00578865 -0.0172209 0)
(-0.0043615 -0.0246705 0)
(-0.00590153 -0.0333039 0)
(-0.00308169 -0.054081 0)
(-0.00170966 -0.0500025 0)
(-0.000970495 -0.0478407 0)
(-0.00110992 -0.0532597 0)
(-0.00123827 -0.053656 0)
(-0.000828051 -0.0553832 0)
(0.00102296 -0.0573037 0)
(-0.00124978 -0.0570677 0)
(0.00115648 -0.0581719 0)
(0.000574918 -0.0574277 0)
(7.14413e-05 -0.055615 0)
(0.000139188 -0.0551437 0)
(-0.000497967 -0.0560492 0)
(-0.00102394 -0.0567608 0)
(-0.00153462 -0.0569394 0)
(-0.00164462 -0.0576167 0)
(0.00283281 -0.0560371 0)
(0.00170798 -0.0576243 0)
(-0.000265313 -0.0575677 0)
(0.00138795 -0.0568929 0)
(0.00126656 -0.0567552 0)
(-0.00029823 -0.0550929 0)
(-0.000873458 -0.0544517 0)
(-0.00127445 -0.0481101 0)
(-0.00133828 -0.0515909 0)
(-0.000455873 -0.050914 0)
(-0.000637398 -0.0498698 0)
(0.000106244 -0.049537 0)
(-0.000498245 -0.045882 0)
(0.000162917 -0.0493439 0)
(-0.000445619 -0.0528608 0)
(-0.000584238 -0.05112 0)
(-0.000826071 -0.0511891 0)
(-0.00185563 -0.0534378 0)
(-0.00139051 -0.0510814 0)
(-4.68779e-05 -0.0522721 0)
(0.000168751 -0.0520611 0)
(2.43507e-05 -0.054247 0)
(0.000174371 -0.0534846 0)
(-0.000518568 -0.0539582 0)
(-0.00110385 -0.0537486 0)
(-0.000503001 -0.0545064 0)
(-0.000984903 -0.0531591 0)
(-0.000928725 -0.0536053 0)
(0.000128295 -0.0527304 0)
(0.00249256 -0.0584596 0)
(0.00490046 -0.0579865 0)
(0.00541965 -0.0584064 0)
(0.00375055 -0.0552752 0)
(0.00455788 -0.0557377 0)
(0.00174335 -0.0560875 0)
(0.00207977 -0.0538048 0)
(0.000579548 -0.0523412 0)
(0.000492508 -0.0515366 0)
(0.000126481 -0.0519777 0)
(-0.000496625 -0.0516639 0)
(-0.000408318 -0.0517408 0)
(-0.000896845 -0.0518181 0)
(-8.24465e-12 -5.89463e-05 0)
(-8.05045e-12 -5.89567e-05 0)
(-0.00280762 -0.0112372 0)
(-7.86081e-12 -5.89669e-05 0)
(-0.00131846 -0.00915231 0)
(-0.000303697 -0.0138369 0)
(-0.00453978 -0.0140348 0)
(0.00273172 -0.00628402 0)
(-0.0031288 -0.0112846 0)
(-0.00406293 -0.0158917 0)
(-0.00481506 -0.0237809 0)
(-0.00475213 -0.0177278 0)
(0.00133538 -0.0164035 0)
(-0.0040627 -0.00872312 0)
(-0.00845082 -0.0100242 0)
(-0.00645487 -0.0249378 0)
(-0.00334552 -0.0359822 0)
(-0.00267116 -0.0514277 0)
(-0.00145004 -0.0473034 0)
(0.000269362 -0.0479617 0)
(-0.00105087 -0.0499693 0)
(0.000414783 -0.0529409 0)
(-0.000674143 -0.0559961 0)
(0.000776734 -0.054272 0)
(0.00103329 -0.0539126 0)
(-0.000241537 -0.0517994 0)
(0.00077333 -0.0504431 0)
(-0.000920067 -0.051083 0)
(-0.00125522 -0.0510265 0)
(-0.000546367 -0.0496242 0)
(-0.000399246 -0.0511667 0)
(0.000712445 -0.0492232 0)
(0.00207757 -0.0506407 0)
(0.000971946 -0.0545837 0)
(1.35848e-05 -0.0557719 0)
(0.00107247 -0.0526473 0)
(0.000372772 -0.0540217 0)
(-0.000305184 -0.0511201 0)
(-0.000358187 -0.0506162 0)
(-0.00129185 -0.0513347 0)
(-0.00483626 -0.0481985 0)
(-0.00261395 -0.0510743 0)
(-0.00197513 -0.049088 0)
(-0.000976997 -0.0487246 0)
(-0.00124301 -0.0493022 0)
(-0.00191383 -0.0500741 0)
(-0.00191666 -0.0530176 0)
(0.000662998 -0.0533521 0)
(5.46529e-05 -0.0532903 0)
(-2.18287e-05 -0.0544771 0)
(-0.00121866 -0.0555747 0)
(-0.000896508 -0.0548152 0)
(0.000100081 -0.0550651 0)
(0.00033125 -0.0559392 0)
(0.000228851 -0.0555418 0)
(0.000369076 -0.0547493 0)
(-0.000218505 -0.0550451 0)
(-0.00094459 -0.0560923 0)
(-0.000256596 -0.0573629 0)
(-0.000909972 -0.0581904 0)
(-0.00118503 -0.0573694 0)
(0.000968647 -0.0562243 0)
(-0.003838 -0.0579786 0)
(0.00488153 -0.0597707 0)
(0.00243863 -0.0572678 0)
(0.00133091 -0.0569834 0)
(0.000769382 -0.0561392 0)
(0.0013515 -0.0543807 0)
(0.00191462 -0.0528189 0)
(9.13452e-05 -0.0521473 0)
(-0.000894744 -0.0510466 0)
(-0.000281717 -0.047633 0)
(0.000308161 -0.0513164 0)
(-0.000513826 -0.0513144 0)
(-0.000668579 -0.0524118 0)
(-1.19198e-11 -5.90016e-05 0)
(-1.1694e-11 -5.90082e-05 0)
(4.90853e-08 -5.17091e-05 0)
(-1.14725e-11 -5.90147e-05 0)
(1.5839e-05 -2.55136e-05 0)
(-0.00296544 -0.0130578 0)
(0.00101121 -0.0131088 0)
(-0.00231799 -0.0140744 0)
(-0.000425654 -0.0151208 0)
(-0.00164021 -0.00881782 0)
(-0.00261765 -0.0110378 0)
(-0.00344261 -0.00720266 0)
(-0.00450571 -0.00935803 0)
(-0.00483165 -0.00443314 0)
(-0.00247204 -0.0229922 0)
(-0.00496835 -0.0265153 0)
(-0.00213102 -0.0348194 0)
(-0.00240238 -0.0475184 0)
(-0.000743495 -0.0481494 0)
(-0.00204568 -0.0492851 0)
(-0.0010544 -0.0514674 0)
(-0.000638792 -0.05155 0)
(0.0011518 -0.0527259 0)
(-0.000661782 -0.0531868 0)
(-0.000949687 -0.0510331 0)
(0.00298425 -0.0483122 0)
(-0.000590087 -0.049151 0)
(-0.000646132 -0.0503074 0)
(-0.000112963 -0.0508811 0)
(-0.000124109 -0.0488067 0)
(-0.000862593 -0.0497265 0)
(-0.000169581 -0.0492293 0)
(-0.000623449 -0.0489042 0)
(0.000353151 -0.0496698 0)
(0.00069016 -0.0494948 0)
(-0.000446955 -0.049944 0)
(0.00128966 -0.0496732 0)
(0.000412872 -0.0491134 0)
(0.000815422 -0.0493566 0)
(0.000854406 -0.049739 0)
(-0.0021261 -0.0504349 0)
(-0.00126582 -0.0479524 0)
(-0.000962179 -0.05048 0)
(0.000236028 -0.0528371 0)
(-0.00053626 -0.0507905 0)
(-0.000731028 -0.0502605 0)
(0.000160054 -0.0527346 0)
(0.0011438 -0.0544831 0)
(-0.00012006 -0.0552531 0)
(-1.36681e-06 -0.0560363 0)
(-0.000941763 -0.0522144 0)
(0.000355977 -0.0531427 0)
(-0.000234337 -0.0541389 0)
(2.01994e-05 -0.0552429 0)
(-9.31736e-05 -0.0559483 0)
(6.04183e-05 -0.056444 0)
(0.000109605 -0.0564401 0)
(0.00059588 -0.0566613 0)
(-0.00137884 -0.0569458 0)
(0.00163325 -0.0575749 0)
(0.000793693 -0.0587074 0)
(0.00165137 -0.0601806 0)
(0.00272672 -0.0586307 0)
(0.00180509 -0.0576663 0)
(0.000718865 -0.0567788 0)
(0.00101101 -0.0548264 0)
(0.0012124 -0.0496092 0)
(0.000853103 -0.0513365 0)
(0.000816667 -0.0498626 0)
(0.000127609 -0.0484342 0)
(-0.000984066 -0.0470168 0)
(-0.000214414 -0.0481526 0)
(-0.000196653 -0.0493644 0)
(-0.000588422 -0.050228 0)
(-0.000270798 -0.0504553 0)
(-1.01641e-10 -5.88807e-05 0)
(-9.86807e-11 -5.88967e-05 0)
(0.000855407 -0.0129786 0)
(-9.58066e-11 -5.89122e-05 0)
(0.00127623 -0.00270491 0)
(1.91516e-06 -5.53978e-05 0)
(-0.00122174 -0.0178502 0)
(-0.00082991 -0.00953493 0)
(-0.00231234 -0.0128797 0)
(0.00163586 -0.011987 0)
(-0.00175976 -0.00886869 0)
(-0.00414725 -0.00792021 0)
(-0.00361989 -0.0122722 0)
(-0.00727092 -0.0156641 0)
(-0.00738348 -0.0146969 0)
(-0.00820736 -0.0279466 0)
(-0.00283854 -0.0317545 0)
(-0.00137168 -0.0497923 0)
(4.38219e-05 -0.0522043 0)
(-2.44097e-05 -0.0517993 0)
(0.000377338 -0.0517338 0)
(0.000762954 -0.0511388 0)
(-0.000495566 -0.0510199 0)
(-9.89367e-05 -0.0501261 0)
(0.000421853 -0.0493581 0)
(-0.000424193 -0.0491831 0)
(0.000665606 -0.0496167 0)
(-0.000153147 -0.0497381 0)
(-0.000282791 -0.0520887 0)
(-0.000325633 -0.0516203 0)
(-0.00143348 -0.0527378 0)
(0.000388125 -0.050414 0)
(0.000311453 -0.0493491 0)
(-0.000405277 -0.0482109 0)
(-0.00018404 -0.0492797 0)
(0.000724647 -0.0479029 0)
(0.000883725 -0.0474765 0)
(0.00425192 -0.0482749 0)
(0.00121151 -0.0509139 0)
(-0.00041606 -0.0508798 0)
(-0.00133217 -0.0501434 0)
(-0.00069095 -0.049415 0)
(-0.00161688 -0.0511437 0)
(-0.00069407 -0.0544132 0)
(0.00014786 -0.0511405 0)
(-0.000518609 -0.0515355 0)
(0.00015998 -0.0525622 0)
(0.000430002 -0.0540262 0)
(0.000250251 -0.0542123 0)
(0.000136353 -0.0537984 0)
(2.55763e-05 -0.0517579 0)
(-0.000610945 -0.0504963 0)
(-0.000510515 -0.0514302 0)
(-0.000542613 -0.0528053 0)
(-0.000442401 -0.054686 0)
(-0.000496077 -0.056605 0)
(-0.000928534 -0.0570545 0)
(-0.000143043 -0.0574429 0)
(0.000485863 -0.0556054 0)
(0.00129119 -0.059518 0)
(0.00140189 -0.0586383 0)
(0.000788779 -0.0594847 0)
(0.00110727 -0.0529864 0)
(0.000617949 -0.0558617 0)
(0.00141522 -0.0540393 0)
(-0.00138183 -0.0484767 0)
(-0.000659355 -0.0494488 0)
(-0.0015409 -0.0456297 0)
(0.000703171 -0.0492242 0)
(-0.000362567 -0.0499204 0)
(-0.000415009 -0.0500227 0)
(-0.000510055 -0.0499703 0)
(-0.000573867 -0.0500289 0)
(-0.000867332 -0.0506621 0)
(0.0011433 -0.0511701 0)
(-1.37944e-11 -5.90259e-05 0)
(-1.35609e-11 -5.90311e-05 0)
(-0.00221252 -0.0107002 0)
(-1.33314e-11 -5.90363e-05 0)
(-0.00285338 -0.00908112 0)
(-0.00207216 -0.0118904 0)
(-0.00250279 -0.00983695 0)
(-0.00226077 -0.00899056 0)
(-0.00246045 -0.0140074 0)
(-0.00232683 -0.0117441 0)
(-0.00448202 -0.0147745 0)
(-0.0121498 -0.012011 0)
(-0.00462787 -0.010635 0)
(-0.00452583 -0.0226794 0)
(-0.00476709 -0.0129093 0)
(-0.00236385 -0.0286263 0)
(-0.0139346 -0.0239256 0)
(-0.00255778 -0.0552041 0)
(-0.00244138 -0.0518281 0)
(-0.00117619 -0.0536296 0)
(-0.000135596 -0.0531071 0)
(0.000392473 -0.0527206 0)
(0.00237709 -0.0516888 0)
(-0.000428166 -0.052102 0)
(-6.733e-05 -0.0496989 0)
(-0.00032883 -0.0489764 0)
(-0.00220907 -0.050286 0)
(0.00052036 -0.0528914 0)
(0.000366569 -0.0543652 0)
(-0.000117111 -0.0549922 0)
(-0.000154774 -0.0553722 0)
(0.000872311 -0.0554577 0)
(0.000162621 -0.0511877 0)
(-0.00137764 -0.0525912 0)
(-0.00217611 -0.050644 0)
(-0.000397542 -0.0529076 0)
(0.00188389 -0.0496568 0)
(0.00122982 -0.0538811 0)
(0.000326517 -0.0525113 0)
(0.000910807 -0.0542365 0)
(-0.000456418 -0.0519278 0)
(-0.000524372 -0.050891 0)
(-0.00232044 -0.0511193 0)
(0.000301592 -0.0541536 0)
(0.000111622 -0.0523005 0)
(-0.000636877 -0.0495708 0)
(-0.000280055 -0.049223 0)
(9.12491e-05 -0.0532519 0)
(-2.60802e-05 -0.0528746 0)
(-0.00042919 -0.053492 0)
(-0.000648473 -0.0536567 0)
(-0.000644301 -0.0521341 0)
(-0.000125404 -0.0511137 0)
(0.000293309 -0.0525339 0)
(-0.000396008 -0.0551667 0)
(7.90132e-05 -0.0578269 0)
(0.000390661 -0.0568011 0)
(0.00133854 -0.0569192 0)
(0.000511367 -0.0573474 0)
(0.000127522 -0.0578209 0)
(-0.000740733 -0.0567742 0)
(0.000922898 -0.0567802 0)
(0.000432555 -0.0512958 0)
(-0.000191034 -0.0512922 0)
(0.000706572 -0.0501303 0)
(-0.00055963 -0.0495351 0)
(0.000249102 -0.0481504 0)
(0.00101299 -0.050159 0)
(0.000494593 -0.0504227 0)
(-0.00088696 -0.051317 0)
(-0.000807748 -0.0516143 0)
(-0.000128651 -0.0514415 0)
(0.000233672 -0.0508729 0)
(0.000936449 -0.050246 0)
(9.12062e-05 -0.0499825 0)
(-4.83963e-11 -5.89751e-05 0)
(-4.73706e-11 -5.89835e-05 0)
(1.88346e-06 -4.17528e-05 0)
(-4.63666e-11 -5.89916e-05 0)
(-0.000844001 -0.00743186 0)
(0.00057065 -0.00139439 0)
(0.00715999 -0.00896301 0)
(9.14622e-05 -0.00598878 0)
(-0.00174992 -0.000979904 0)
(-0.00392938 -0.0290625 0)
(-0.00465184 -0.00961141 0)
(0.00256283 -0.0125097 0)
(-0.00560981 -0.0119579 0)
(-0.00552428 -0.0108852 0)
(-0.00454744 -0.0243206 0)
(-0.00413993 -0.0215295 0)
(-0.00513146 -0.0216129 0)
(-0.0031004 -0.0277893 0)
(-0.00163263 -0.0552376 0)
(-0.00130945 -0.0535421 0)
(-0.00111997 -0.0566899 0)
(-0.000311534 -0.0561854 0)
(0.000497397 -0.0531379 0)
(0.000845926 -0.0548931 0)
(-0.000137435 -0.0538209 0)
(-0.000504821 -0.053417 0)
(-0.000398671 -0.0545616 0)
(0.00026016 -0.0543733 0)
(0.000171493 -0.0541636 0)
(0.000254214 -0.0545537 0)
(0.000494643 -0.055242 0)
(0.000366898 -0.0554019 0)
(-0.000586884 -0.0547296 0)
(-0.00243614 -0.0528589 0)
(-0.000339752 -0.0537332 0)
(0.000197507 -0.0541353 0)
(0.00167601 -0.053737 0)
(0.00114598 -0.053708 0)