/*--------------------------------*- C++ -*----------------------------------*\
  =========                 |
  \\      /  F ield         | OpenFOAM: The Open Source CFD Toolbox
   \\    /   O peration     | Website:  https://openfoam.org
    \\  /    A nd           | Version:  12
     \\/     M anipulation  |
\*---------------------------------------------------------------------------*/
FoamFile
{
    format      ascii;
    class       volScalarField::Internal;
    location    "0.35";
    object      cloud:UCoeff;
}
// * * * * * * * * * * * * * * * * * * * * * * * * * * * * * * * * * * * * * //

dimensions      [1 0 0 0 0 0 0];

value           nonuniform List<scalar> 
3750
(
1.09409e-07
1.23102e-07
6.875e-08
6.76037e-08
7.3073e-08
0
7.58319e-08
6.87314e-08
7.03336e-08
7.50471e-08
7.19304e-08
6.83582e-08
6.63574e-08
6.95065e-08
1.63953e-07
6.81441e-08
6.85624e-08
7.01175e-08
7.11832e-08
1.77061e-07
6.97454e-08
6.90549e-08
6.93071e-08
7.0743e-08
6.9787e-08
7.08419e-08
7.26616e-08
7.06704e-08
6.83506e-08
6.98148e-08
7.09101e-08
7.09414e-08
1.15955e-07
1.17141e-07
7.44453e-08
0
6.78477e-08
7.09465e-08
7.34234e-08
7.30871e-08
6.92035e-08
7.15652e-08
6.39639e-08
6.77587e-08
7.13495e-08
7.19579e-08
6.83206e-08
6.83204e-08
3.42952e-08
9.04833e-08
6.97713e-08
1.16355e-07
1.16747e-07
6.89146e-08
6.97741e-08
7.0702e-08
6.96334e-08
7.25683e-08
0
6.89791e-08
7.18509e-08
7.16515e-08
0
1.29059e-07
8.63299e-09
0
0
0
0
0
0
0
0
0
0
1.0645e-08
5.11277e-08
6.78876e-08
1.64326e-07
6.89769e-08
7.3096e-08
6.95153e-08
6.80185e-08
6.83555e-08
6.95435e-08
0
7.0547e-08
7.08932e-08
8.80849e-08
1.38435e-07
6.63333e-08
0
0
6.82898e-08
7.07578e-08
6.9567e-08
7.1214e-08
1.56109e-07
1.60672e-07
1.10248e-07
1.10009e-07
6.95395e-08
7.26117e-08
0
0
6.84469e-08
6.84927e-08
6.82375e-08
6.8888e-08
7.19998e-08
7.03455e-08
1.60432e-07
6.65509e-08
0
0
6.98301e-08
1.63424e-07
1.51558e-07
1.63164e-07
6.72923e-08
6.57964e-08
0
6.67186e-08
0
6.86187e-08
6.91523e-08
7.00386e-08
2.5035e-08
1.925e-08
6.78902e-08
6.94189e-08
6.85468e-08
2.72643e-07
5.96471e-08
0
0
0
0
0
0
0
0
0
0
0
0
0
0
0
0
6.83914e-08
6.46973e-08
9.86297e-08
1.26396e-07
7.22625e-08
6.92476e-08
0
7.91362e-08
1.49467e-07
6.73983e-08
6.92005e-08
0
1.72833e-07
1.21343e-07
4.50585e-09
6.36402e-08
6.66599e-08
7.2102e-08
1.64871e-07
6.6024e-08
7.45793e-08
1.89586e-08
3.87501e-08
7.07259e-08
6.89583e-08
6.82912e-08
6.92496e-08
7.38869e-08
7.17264e-08
7.14934e-08
7.1742e-08
2.43298e-08
4.78451e-08
5.35054e-08
1.59299e-07
6.91809e-08
1.61806e-07
6.5363e-08
1.00138e-07
1.30986e-07
7.24414e-08
0
6.91748e-08
6.94198e-08
6.82811e-08
7.02159e-08
6.85497e-08
6.65847e-08
6.82507e-08
7.10772e-08
7.13827e-08
6.69413e-08
8.79352e-08
1.27181e-07
6.8251e-08
6.74301e-08
6.84452e-08
0
0
0
0
0
0
0
0
0
0
0
0
0
0
0
0
0
0
6.69593e-08
1.59703e-07
5.84007e-08
7.1577e-08
7.20228e-08
0
6.63332e-08
1.64008e-07
6.59006e-08
7.45102e-08
6.33275e-08
6.89475e-08
6.8698e-08
7.11268e-08
7.10721e-08
2.22861e-08
8.3516e-08
1.02646e-07
2.76514e-08
1.80704e-08
7.01625e-08
7.3673e-08
2.80916e-08
2.01221e-08
6.89364e-08
6.88272e-08
6.89618e-08
7.19455e-08
7.13516e-08
7.06926e-08
6.93838e-08
6.85386e-08
1.68933e-07
6.67793e-08
6.83616e-08
6.72277e-08
9.06648e-08
1.04367e-07
8.67054e-09
8.51261e-08
5.42917e-08
6.90657e-08
7.03932e-08
7.10049e-08
6.8017e-08
7.07409e-08
6.98788e-08
6.6893e-08
6.8118e-08
7.08355e-08
7.06683e-08
6.89462e-08
6.86696e-08
1.01868e-07
1.18789e-07
6.48347e-08
6.53575e-08
0
0
0
0
0
0
0
0
0
0
0
0
0
0
0
0
0
0
0
6.61095e-08
1.21299e-07
9.1804e-08
6.84041e-08
6.91966e-08
6.8202e-08
6.62179e-08
6.95858e-08
7.0917e-08
2.23862e-09
6.6533e-08
6.78893e-08
7.09093e-08
0
6.80653e-08
6.76392e-08
6.90112e-08
6.93186e-08
7.08865e-08
6.9597e-08
7.09601e-08
7.33359e-08
1.30091e-08
4.53923e-08
6.86896e-08
6.92187e-08
7.08288e-08
7.05935e-08
6.9733e-08
1.67724e-07
6.64084e-08
6.86907e-08
7.03418e-08
6.89841e-08
6.92034e-08
7.05225e-08
0
6.9996e-08
7.08647e-08
7.18144e-08
7.21848e-08
7.04007e-08
6.97961e-08
1.27249e-07
9.72716e-08
6.70045e-08
6.72959e-08
6.83031e-08
6.83463e-08
6.85466e-08
0
0
6.82952e-08
7.15234e-08
1.557e-07
6.51955e-08
0
0
0
0
0
0
0
0
0
0
0
0
0
0
0
0
0
0
1.69869e-07
6.89498e-08
6.66287e-08
6.61717e-08
6.69801e-08
1.0448e-07
1.25349e-07
6.7566e-08
7.3409e-08
0
7.05139e-08
6.90443e-08
0
6.95994e-08
7.12782e-08
7.08964e-08
6.8892e-08
7.29042e-08
0
6.81585e-08
6.79767e-08
7.18497e-08
8.16635e-08
5.54827e-08
7.02704e-08
6.89895e-08
1.00906e-07
1.26874e-07
6.89501e-08
6.77752e-08
6.78479e-08
6.82881e-08
6.94485e-08
7.02021e-08
7.25037e-08
6.90523e-08
9.63195e-08
4.14297e-08
7.31478e-08
7.13156e-08
7.03673e-08
6.87869e-08
7.02391e-08
7.09796e-08
6.9891e-08
6.9429e-08
7.01401e-08
6.8624e-08
6.87144e-08
6.99732e-08
6.86527e-08
1.66966e-07
6.62238e-08
6.88854e-08
0
0
1.72096e-07
0
0
0
0
0
0
0
0
0
0
0
0
0
0
0
0
0
0
7.3977e-08
6.81123e-09
5.74362e-08
7.11615e-08
7.17671e-08
7.36596e-08
6.96738e-08
6.98483e-08
7.03948e-08
6.90017e-08
6.88154e-08
6.7935e-08
6.99848e-08
7.16579e-08
0
6.78031e-08
6.97291e-08
7.1285e-08
7.19528e-08
7.04108e-08
9.02657e-08
1.41424e-07
6.77978e-08
6.84249e-08
1.71377e-07
6.69722e-08
6.69121e-08
6.88727e-08
7.20368e-08
3.34084e-08
4.14528e-08
3.44299e-08
7.10492e-08
1.69755e-07
6.92169e-08
6.69189e-08
6.78713e-08
1.98904e-08
3.18193e-08
1.76029e-07
6.88472e-08
6.74903e-08
7.2423e-08
0
7.02103e-08
6.8812e-08
6.86282e-08
6.83648e-08
1.74073e-07
6.68338e-08
6.60904e-08
6.8775e-08
1.34906e-07
3.66579e-09
6.77048e-08
6.7597e-08
6.55136e-08
6.81632e-08
0
0
0
0
0
0
0
0
0
0
0
0
0
0
0
0
0
7.45381e-08
0
6.87873e-08
7.08058e-08
6.99156e-08
6.65124e-08
7.24148e-08
7.077e-08
6.73133e-08
6.7098e-08
6.63799e-08
6.78139e-08
6.93807e-08
7.03547e-08
6.96977e-08
6.97764e-08
7.98354e-08
5.65713e-08
7.11757e-08
7.05515e-08
1.00757e-07
1.28504e-07
7.29844e-08
1.62042e-07
6.63557e-08
6.72949e-08
6.86544e-08
7.10631e-08
6.99961e-08
1.87583e-08
3.37609e-08
6.99034e-08
7.06667e-08
7.01189e-08
6.91638e-08
6.63646e-08
6.66849e-08
6.88926e-08
6.80669e-08
6.93204e-08
7.85365e-08
5.94279e-08
7.43848e-08
1.97125e-08
3.36461e-08
6.87717e-08
6.91122e-08
6.86433e-08
6.91199e-08
6.90838e-08
1.08869e-07
1.18949e-07
7.26729e-08
1.46646e-08
1.27933e-07
1.64396e-07
6.88894e-08
6.80721e-08
0
0
0
0
0
0
0
0
0
0
0
0
0
0
0
0
0
1.26562e-07
0
7.07111e-08
6.24567e-08
3.32262e-08
2.09309e-08
1.59717e-07
7.04428e-08
6.51941e-08
6.64289e-08
6.73387e-08
6.8369e-08
6.86906e-08
1.72349e-07
6.77063e-08
1.00308e-07
1.24724e-07
6.68335e-08
6.87798e-08
3.73642e-09
1.6807e-07
6.81042e-08
6.67718e-08
1.66172e-07
6.49327e-08
6.79458e-08
7.198e-08
0
6.95186e-08
7.03053e-08
1.70047e-08
3.79089e-08
6.99733e-08
6.93561e-08
6.74366e-08
6.82003e-08
6.71259e-08
1.70428e-07
6.77972e-08
6.72454e-08
7.17662e-08
2.67693e-08
1.15709e-07
1.40996e-08
4.38779e-08
6.81268e-08
6.82157e-08
6.75822e-08
7.0588e-08
0
6.83979e-08
7.11322e-08
7.24813e-08
7.07587e-08
6.97367e-08
6.66474e-08
6.6619e-08
6.79323e-08
0
0
0
0
0
0
0
0
0
0
0
0
0
0
0
0
0
7.23755e-08
7.11153e-08
7.02256e-08
6.96754e-08
6.963e-08
7.04447e-08
7.14649e-08
6.44069e-08
6.41037e-08
6.60761e-08
1.67429e-07
6.49379e-08
6.47602e-08
6.70241e-08
1.70727e-07
6.61581e-08
7.5568e-08
1.59468e-07
7.07411e-08
7.12343e-08
7.16283e-08
7.25362e-08
3.2763e-08
9.6304e-08
6.66095e-08
6.15793e-08
0
6.80462e-08
7.0786e-08
7.08697e-08
0
6.98565e-08
7.1084e-08
7.0848e-08
3.92334e-08
8.82848e-08
6.75683e-08
6.49672e-08
1.73639e-07
6.56521e-08
6.71467e-08
6.95371e-08
7.53288e-08
0
6.87178e-08
6.87564e-08
6.93517e-08
6.72975e-08
0
6.99617e-08
7.01043e-08
7.56863e-08
0
7.08858e-08
7.01509e-08
7.20638e-08
6.84211e-08
6.8248e-08
6.91032e-08
0
0
0
0
0
0
0
0
0
0
0
0
0
0
0
0
6.94757e-08
7.09532e-08
7.09835e-08
7.34445e-08
6.89987e-08
0
6.81019e-08
6.96891e-08
6.82755e-08
6.8478e-08
6.96113e-08
1.16254e-07
1.11513e-07
6.80303e-08
7.98705e-08
1.54408e-07
1.67906e-07
6.83293e-08
6.98267e-08
6.9496e-08
6.94169e-08
7.06085e-08
7.30474e-08
7.0799e-08
1.30324e-08
1.30665e-07
1.02362e-07
6.05517e-08
3.78848e-08
6.53233e-08
6.79098e-08
7.05042e-08
6.97422e-08
7.23049e-08
1.31597e-08
4.92927e-08
6.93195e-08
7.01819e-08
7.19883e-08
6.92187e-08
6.61777e-08
1.68827e-07
6.98847e-08
6.91575e-08
6.86238e-08
6.34131e-08
0
6.91981e-08
6.90452e-08
6.76556e-08
6.69491e-08
7.67059e-08
0
6.72169e-08
0
6.88768e-08
7.00452e-08
6.9006e-08
6.9129e-08
6.77465e-08
0
0
0
0
0
0
0
0
0
0
0
0
0
0
0
6.80085e-08
7.10244e-08
0
6.70503e-08
1.71696e-07
6.68939e-08
6.95586e-08
6.98743e-08
6.93606e-08
2.13569e-08
2.84001e-08
6.90223e-08
7.50248e-08
1.16635e-07
1.09909e-07
6.85928e-08
6.95353e-08
1.72461e-07
6.76538e-08
6.83597e-08
6.88432e-08
7.0207e-08
7.27129e-08
7.12878e-08
7.05467e-08
0
6.77887e-08
7.24601e-08
6.8008e-08
6.61442e-08
6.90245e-08
6.75455e-08
6.91363e-08
7.41955e-08
0
7.071e-08
6.9568e-08
6.95349e-08
7.10172e-08
6.91513e-08
6.897e-08
6.95617e-08
7.00458e-08
8.33839e-08
1.21058e-07
8.2395e-08
6.8467e-08
0
6.63313e-08
1.6543e-07
6.9669e-08
7.54133e-08
0
6.95659e-08
1.03667e-07
1.2784e-07
3.71489e-08
5.07364e-08
5.58633e-08
2.99696e-08
0
0
0
0
0
0
0
0
0
0
0
0
0
0
0
6.76569e-08
7.02339e-08
7.14382e-08
6.97835e-08
0
7.06219e-08
6.82625e-08
0
6.6882e-08
6.73178e-08
6.73812e-08
6.63644e-08
0
0
0
0
0
0
7.01503e-08
6.99756e-08
7.02488e-08
3.16e-08
1.08755e-07
7.23762e-08
0
6.80774e-08
6.77165e-08
6.95965e-08
1.05417e-07
1.15478e-07
1.67835e-07
6.59423e-08
6.72846e-08
7.61005e-08
0
7.09663e-08
6.90639e-08
6.70424e-08
6.76964e-08
7.16654e-08
6.92299e-08
6.96068e-08
6.97856e-08
1.16486e-07
1.12566e-07
6.60054e-08
6.71202e-08
0
6.84497e-08
0
7.17276e-08
6.74354e-08
1.71736e-07
7.0614e-08
6.61584e-08
1.01394e-07
1.3074e-07
2.51904e-08
2.05187e-08
0
0
0
0
0
0
0
0
0
0
0
0
0
0
0
0
6.4479e-08
6.62411e-08
6.89376e-08
1.08771e-07
1.24008e-07
6.81589e-08
7.04151e-08
9.74103e-09
9.52007e-08
5.69129e-08
3.13318e-08
6.89081e-08
1.25041e-07
1.05023e-07
7.36594e-08
0
7.06939e-08
6.95975e-08
5.83735e-09
5.81053e-08
6.71546e-08
7.38926e-08
7.28382e-08
0
7.01535e-08
6.85564e-08
7.60356e-08
1.56818e-07
9.893e-08
1.20168e-07
6.44629e-08
6.74554e-08
6.77421e-08
6.89361e-08
7.21372e-08
7.03798e-08
9.49143e-08
9.34666e-08
1.70107e-08
7.06996e-08
6.98438e-08
6.89598e-08
6.96854e-08
7.15401e-08
7.00893e-08
6.60321e-08
6.61742e-08
6.57861e-08
6.53071e-08
6.56523e-08
6.7791e-08
0
0
7.45392e-08
7.17129e-08
6.75936e-08
6.69524e-08
0
0
0
0
0
0
0
0
0
0
0
0
0
0
0
0
0
0
6.51216e-08
6.80639e-08
7.33452e-08
8.99135e-09
1.54121e-07
6.6578e-08
6.71972e-08
6.8328e-08
6.76876e-08
6.95329e-08
7.40484e-08
0
1.69991e-07
7.22997e-08
0
1.72643e-07
1.16543e-07
9.98722e-08
6.62491e-08
6.81837e-08
6.86715e-08
7.12395e-08
7.18455e-08
7.98011e-08
1.57992e-07
6.65058e-08
0
6.70099e-08
6.98852e-08
6.6668e-08
6.72556e-08
1.07852e-07
1.21819e-07
7.35335e-08
7.14475e-08
6.72547e-08
6.63946e-08
6.60013e-08
6.58941e-08
7.09417e-08
6.95237e-08
2.86633e-08
6.06992e-08
1.22186e-07
6.87849e-08
6.62686e-08
6.59528e-08
6.47073e-08
6.72878e-08
1.71369e-07
6.76635e-08
6.79994e-08
1.67037e-07
6.85406e-08
6.74686e-08
7.0078e-08
0
0
0
0
0
0
0
0
0
0
0
0
0
0
0
0
0
0
0
6.5867e-08
7.25703e-08
7.46305e-08
0
7.05556e-08
6.9527e-08
6.80426e-08
6.78085e-08
1.14616e-07
1.08556e-07
7.13099e-08
0
6.80362e-08
1.73876e-07
1.37153e-07
2.37092e-10
6.62944e-08
6.88762e-08
6.83717e-08
6.89093e-08
6.85947e-08
1.7155e-07
6.71806e-08
6.74803e-08
7.25459e-08
6.89304e-08
0
7.18923e-08
6.76936e-08
7.26508e-08
0
6.76778e-08
6.969e-08
1.71665e-07
6.74695e-08
1.69245e-07
6.6729e-08
6.70535e-08
6.73659e-08
6.86293e-08
2.61559e-08
1.12695e-07
1.7936e-08
3.83159e-08
1.2012e-07
1.05071e-07
6.68342e-08
6.76754e-08
1.62281e-07
6.55876e-08
6.70298e-08
1.68823e-07
6.73914e-08
6.63066e-08
6.99048e-08
7.02902e-08
0
0
0
0
0
0
0
0
0
0
0
0
0
0
0
0
0
0
0
6.97896e-08
7.18476e-08
7.23161e-08
7.44638e-08
6.95755e-08
6.88805e-08
6.90816e-08
6.80967e-08
1.65357e-07
6.72975e-08
7.19434e-08
6.94151e-08
1.69647e-09
6.67551e-08
7.3508e-08
7.10343e-08
6.47503e-08
7.27058e-08
2.43872e-08
1.15735e-07
6.74097e-08
7.19109e-08
6.98656e-08
6.7981e-08
6.82929e-08
6.92333e-08
0
6.82616e-08
7.11839e-08
1.01223e-08
5.211e-08
1.16994e-07
1.11512e-07
6.84999e-08
6.96296e-08
1.73101e-07
3.12186e-08
9.68344e-08
6.9626e-09
5.53711e-08
6.72238e-08
6.89822e-08
6.9544e-08
7.10057e-08
7.10547e-08
6.77325e-08
6.77451e-08
1.70254e-07
6.51894e-08
1.09814e-07
1.06139e-07
6.8109e-08
1.13776e-07
1.14857e-07
2.61558e-08
2.14487e-08
6.82805e-08
0
0
0
0
0
0
0
0
0
0
0
0
0
0
0
0
0
0
6.89608e-08
1.02039e-08
8.03712e-08
7.24658e-08
1.33258e-07
6.59351e-08
1.10311e-07
1.03672e-07
6.40729e-08
6.84094e-08
7.14237e-08
6.85157e-08
6.72063e-08
6.7577e-08
6.9637e-08
7.02266e-08
7.07295e-08
7.08793e-08
7.01417e-08
2.96631e-08
1.80315e-08
7.16876e-08
7.05977e-08
6.98614e-08
6.97614e-08
6.86308e-08
6.70087e-08
7.1614e-08
7.01364e-08
7.08767e-08
7.03512e-08
7.04394e-08
7.10124e-08
7.02182e-08
7.28478e-08
0
6.82933e-08
6.80338e-08
1.67674e-07
6.66405e-08
6.61221e-08
6.87057e-08
1.20568e-07
1.08965e-07
6.90608e-08
6.7203e-08
0
0
6.51249e-08
6.70116e-08
1.26363e-07
9.35185e-08
6.67821e-08
6.8714e-08
7.04237e-08
6.90118e-08
6.69805e-08
0
0
0
0
0
0
0
0
0
0
0
0
0
0
0
0
0
0
8.2421e-08
1.19494e-07
7.545e-08
7.09469e-08
6.50579e-08
6.49925e-08
1.02554e-07
1.13563e-07
6.34571e-08
1.35336e-07
8.85827e-08
6.84487e-08
6.75766e-08
6.47261e-08
6.80404e-08
7.17589e-08
1.70063e-08
4.02938e-08
7.00962e-08
6.98079e-08
7.50899e-08
7.47091e-08
1.93963e-08
6.05685e-08
9.60012e-08
1.01137e-07
6.45018e-08
6.38205e-08
6.8386e-08
6.97386e-08
7.05655e-08
7.21247e-08
0
6.97901e-08
6.99062e-08
7.02975e-08
6.86616e-08
0
0
1.2646e-07
9.3619e-08
6.78522e-08
6.91213e-08
7.7542e-08
1.61696e-07
6.526e-08
1.62458e-07
1.56176e-07
6.43055e-08
6.79981e-08
6.93369e-08
6.90699e-08
6.84487e-08
1.72668e-07
6.59043e-08
6.59716e-08
0
0
0
0
0
0
0
0
0
0
0
0
0
0
0
0
0
0
0
6.77718e-08
1.72531e-07
7.21649e-08
7.05958e-08
1.65234e-07
6.48408e-08
6.75488e-08
1.62775e-07
6.51958e-08
1.14743e-07
1.0666e-07
6.77957e-08
6.77157e-08
6.68599e-08
6.85866e-08
7.28492e-08
0
7.20643e-08
7.27418e-08
6.80321e-08
7.47575e-08
2.08026e-08
1.32955e-07
6.73386e-08
6.62325e-08
6.71849e-08
6.61613e-08
6.58908e-08
7.30298e-08
7.00673e-08
6.99252e-08
7.29841e-08
0
7.07281e-08
7.13425e-08
6.71227e-08
6.77123e-08
7.30226e-08
6.74237e-08
6.613e-08
6.7522e-08
1.699e-07
6.70988e-08
6.82518e-08
6.76724e-08
6.67857e-08
6.80662e-08
6.90674e-08
6.95082e-08
6.94315e-08
7.11888e-08
6.94283e-08
9.17343e-08
1.36019e-07
6.58727e-08
6.58338e-08
0
0
0
0
0
0
0
0
0
0
0
0
0
0
0
0
0
0
0
6.67963e-08
6.84509e-08
1.72996e-07
6.82403e-08
6.68942e-08
6.7691e-08
6.83085e-08
1.22867e-07
9.53531e-08
6.46994e-08
6.70575e-08
1.68893e-07
6.55705e-08
6.55548e-08
6.83022e-08
7.13312e-08
7.05648e-08
7.27684e-08
3.61042e-08
5.97682e-08
2.61432e-08
5.7241e-08
6.88788e-08
6.86187e-08
6.71129e-08
6.7614e-08
6.62307e-08
6.688e-08
6.94907e-08
7.07776e-08
7.117e-08
0
7.18627e-08
7.07136e-08
7.03753e-08
7.10193e-08
7.30129e-08
2.40027e-08
1.09889e-07
6.61866e-08
1.68472e-07
6.68683e-08
6.80225e-08
1.22575e-07
6.53862e-08
1.78239e-08
6.97945e-08
7.01922e-08
7.02403e-08
2.57803e-08
2.38222e-08
7.10972e-08
0
0
2.2801e-08
1.22903e-07
1.45233e-07
0
0
0
0
0
0
0
0
0
0
0
0
0
0
0
0
0
0
7.03013e-08
6.86651e-08
6.88589e-08
6.91564e-08
6.90898e-08
6.95866e-08
7.02703e-08
6.86736e-08
7.82092e-08
1.26126e-07
8.73418e-08
6.80986e-08
6.61299e-08
6.67952e-08
6.80091e-08
6.74489e-08
6.79314e-08
8.4748e-08
9.13103e-08
6.40562e-08
4.34185e-08
6.91805e-08
7.11801e-08
6.99668e-08
7.21853e-08
6.75557e-08
6.55106e-08
6.76746e-08
7.03452e-08
7.18158e-08
3.56362e-08
3.02003e-08
1.41733e-07
6.85135e-08
6.8446e-08
6.96466e-08
6.9483e-08
6.90532e-08
6.86496e-08
6.895e-08
6.86669e-08
6.9492e-08
6.93658e-08
7.04954e-08
7.04566e-08
7.02289e-08
6.97144e-08
1.59329e-08
3.89166e-08
6.90936e-08
7.1568e-08
7.06639e-08
3.29492e-08
8.68916e-08
1.62939e-07
6.89398e-08
6.79273e-08
6.69856e-08
7.20217e-08
0
0
0
0
0
0
0
0
0
0
0
0
0
0
0
0
6.66332e-08
6.55834e-08
6.67321e-08
6.73118e-08
0
0
0
0
0
0
7.34749e-08
6.92136e-08
6.91461e-08
6.86378e-08
6.93082e-08
6.91162e-08
7.03863e-08
8.24663e-09
1.55823e-07
6.92007e-08
6.90222e-08
6.9637e-08
7.12096e-08
6.94205e-08
6.84568e-08
6.88742e-08
6.77421e-08
6.89085e-08
7.25326e-08
7.32302e-08
7.31526e-08
1.61804e-07
6.59309e-08
6.78477e-08
7.01731e-08
7.25041e-08
7.09685e-08
7.11058e-08
0
6.83455e-08
6.87884e-08
6.87574e-08
6.98267e-08
7.30309e-08
0
6.86111e-08
7.33548e-08
7.04584e-08
6.89752e-08
7.35487e-08
7.26997e-08
0
6.86956e-08
6.85548e-08
6.76368e-08
7.00563e-08
6.76217e-08
6.68174e-08
6.7511e-08
0
0
0
0
0
0
0
0
0
0
0
0
0
0
0
0
6.85468e-08
6.51944e-08
6.54548e-08
6.53066e-08
1.05014e-07
1.24782e-07
6.96297e-08
6.8663e-08
6.88768e-08
6.88908e-08
0
0
3.98455e-08
6.96107e-08
7.11428e-08
6.98284e-08
7.00819e-08
7.02146e-08
7.31302e-08
7.17758e-08
8.46609e-08
9.30951e-08
6.73133e-08
1.23412e-07
6.71972e-08
6.81253e-08
6.68299e-08
7.71739e-08
1.50366e-07
1.70209e-07
6.96729e-08
6.83947e-08
1.64776e-08
3.92565e-08
7.03503e-08
7.68507e-08
7.05969e-08
7.07333e-08
0
7.05732e-08
0
6.91401e-08
7.00563e-08
7.21861e-08
6.91041e-08
7.34519e-08
7.13096e-08
0
6.8057e-08
6.97719e-08
6.98404e-08
6.91214e-08
6.79546e-08
6.79172e-08
7.05405e-08
6.95223e-08
6.78034e-08
6.73647e-08
6.69577e-08
0
0
0
0
0
0
0
0
0
0
0
0
0
0
0
0
1.48851e-07
6.63251e-08
6.51794e-08
6.69338e-08
6.67653e-08
1.71213e-07
7.02333e-08
6.91832e-08
1.10172e-08
9.87996e-08
1.67555e-07
9.52799e-08
9.81259e-08
6.90699e-08
6.93846e-08
7.08759e-08
7.07434e-08
6.8791e-08
6.92058e-08
6.89441e-08
6.93672e-08
1.71899e-07
6.75222e-08
1.68632e-07
6.36718e-08
6.67914e-08
1.12611e-07
1.05206e-07
6.51481e-08
7.03256e-08
6.92565e-08
6.85908e-08
0
1.40711e-07
8.29335e-08
0
9.78194e-08
5.78796e-08
5.45387e-08
6.69848e-08
6.92521e-08
0
7.01828e-08
7.08288e-08
7.04275e-08
2.44822e-08
2.60653e-08
7.01203e-08
7.00047e-08
6.73882e-08
6.8644e-08
6.85133e-08
6.84825e-08
8.58644e-08
1.45171e-07
6.76257e-08
6.75335e-08
6.64127e-08
0
0
0
0
0
0
0
0
0
0
0
0
0
0
0
0
0
6.92078e-08
0
0
0
7.08819e-08
6.71436e-08
6.99181e-08
6.9333e-08
6.87952e-08
6.91261e-08
0
6.77735e-08
6.85055e-08
6.72172e-08
6.97037e-08
7.3432e-08
0
6.98019e-08
1.00223e-07
1.20184e-07
6.73869e-08
7.1599e-08
6.92909e-08
7.01057e-08
1.62971e-07
1.57224e-07
1.15377e-07
9.83637e-08
6.47794e-08
7.07218e-08
3.77583e-09
6.35181e-08
6.87494e-08
7.03153e-08
7.04349e-08
1.64875e-07
1.75587e-07
3.50069e-08
6.34491e-09
6.88768e-08
6.92459e-08
7.00538e-08
6.98579e-08
7.06323e-08
6.9014e-08
6.97211e-08
6.74329e-08
6.77765e-08
1.70632e-07
6.69949e-08
6.70358e-08
6.77364e-08
6.72937e-08
6.82808e-08
7.07295e-08
7.21069e-08
7.12645e-08
0
0
0
0
0
0
0
0
0
0
0
0
0
0
0
0
0
0
0
6.87156e-08
6.72641e-08
1.07001e-07
3.3212e-08
0
6.95916e-08
6.68328e-08
1.60549e-07
6.71778e-08
7.02657e-08
0
1.31354e-07
2.30367e-08
1.79469e-07
3.943e-08
6.99529e-08
7.02692e-08
6.94524e-08
6.80586e-08
1.70663e-07
6.77738e-08
6.62118e-08
0
0
0
1.64004e-07
6.65307e-08
1.08792e-07
1.1278e-07
6.83325e-08
6.83095e-08
6.86354e-08
0
0
1.14178e-07
2.60706e-08
2.96713e-08
2.70693e-08
6.63418e-08
8.46837e-08
4.60136e-08
1.71211e-07
6.82238e-08
6.73598e-08
6.80974e-08
6.89e-08
7.04522e-08
7.05149e-08
6.98518e-08
6.90462e-08
6.9662e-08
6.76319e-08
6.71005e-08
7.23714e-08
0
6.89871e-08
7.14312e-08
0
0
0
0
0
0
0
0
0
0
0
0
0
0
0
0
0
6.74677e-08
6.5161e-08
6.87021e-08
6.88485e-08
7.21217e-08
7.05492e-08
6.52486e-08
1.61825e-07
7.06949e-08
0
6.90675e-08
7.06889e-08
0
0
1.40358e-08
1.34799e-07
6.81934e-08
6.90446e-08
6.86863e-08
6.81244e-08
9.62436e-08
9.88798e-08
8.5242e-09
7.01156e-08
6.87718e-08
6.85991e-08
6.99483e-08
6.84649e-08
6.9909e-08
3.45126e-08
8.63051e-08
6.76106e-08
6.91026e-08
6.94087e-08
6.78041e-08
6.83589e-08
1.74455e-07
0
1.65589e-07
1.21592e-07
9.23113e-08
6.55558e-08
6.91023e-08
6.86216e-08
6.88602e-08
6.93128e-08
6.93272e-08
1.07181e-08
5.04768e-08
6.9596e-08
7.00196e-08
7.08783e-08
6.97823e-08
6.97797e-08
6.8739e-08
7.03462e-08
6.89651e-08
6.89532e-08
0
0
0
0
0
0
0
0
0
0
0
0
0
0
0
0
0
6.9845e-08
6.8069e-08
6.88058e-08
6.91835e-08
6.85828e-08
6.64082e-08
1.59393e-07
6.85591e-08
0
6.89343e-08
6.80879e-08
7.28384e-08
7.21322e-08
7.2291e-08
7.0216e-08
6.83531e-08
6.6327e-08
1.66517e-07
6.64501e-08
6.62808e-08
6.79002e-08
6.92828e-08
7.00862e-08
6.89627e-08
6.80044e-08
1.68746e-07
6.70622e-08
6.72376e-08
6.86396e-08
0
6.73894e-08
6.89339e-08
6.93424e-08
6.92443e-08
1.65027e-07
6.77264e-08
1.74009e-08
1.33544e-07
6.66873e-08
6.99555e-08
1.64175e-07
1.61744e-07
6.66752e-08
6.83484e-08
7.14107e-08
1.70396e-07
1.55368e-07
0
6.72025e-08
6.88278e-08
6.91367e-08
0
7.09828e-08
7.00598e-08
7.06448e-08
0
6.56935e-08
6.70122e-08
6.59768e-08
0
0
0
0
0
0
0
0
0
0
0
0
0
0
0
0
7.02673e-08
6.96141e-08
6.92323e-08
6.85532e-08
6.70188e-08
1.59537e-07
6.41669e-08
6.86083e-08
7.02698e-08
6.93486e-08
6.84973e-08
7.04663e-08
6.97211e-08
7.12723e-08
7.14482e-08
7.15945e-08
6.84471e-08
6.67455e-08
6.66992e-08
6.71404e-08
6.84369e-08
1.32065e-07
2.93726e-08
4.70383e-08
1.59588e-07
6.85002e-08
7.19358e-08
0
6.87398e-08
1.36992e-08
4.30328e-08
6.84629e-08
1.64429e-07
1.6571e-07
0
2.50676e-08
8.7424e-08
9.4344e-08
0
0
7.21506e-08
6.91528e-08
1.70391e-07
6.63864e-08
0
0
7.37182e-08
7.18828e-08
0
6.92817e-08
6.87009e-08
7.29709e-08
1.37398e-08
4.46812e-08
7.1359e-08
1.63842e-07
6.45587e-08
6.51116e-08
6.71574e-08
0
0
0
0
0
0
0
0
0
0
0
0
0
0
0
0
0
6.91218e-08
8.03487e-08
6.25884e-08
6.72479e-08
7.11679e-08
6.52849e-08
6.9594e-08
1.71343e-07
6.72007e-08
6.82883e-08
6.89425e-08
7.06813e-08
7.1167e-08
7.38249e-08
7.15708e-08
6.64062e-08
6.62702e-08
6.7444e-08
6.81097e-08
0
6.76735e-08
6.9425e-08
1.1067e-07
2.93607e-08
6.74526e-08
7.11473e-08
6.98895e-08
0
6.68157e-08
6.88556e-08
1.09072e-07
2.65437e-08
0
8.88187e-08
1.36368e-07
6.72525e-08
1.732e-07
1.03835e-07
2.56721e-07
7.12404e-08
6.63107e-08
6.70075e-08
6.74e-08
6.76394e-08
6.88402e-08
7.12545e-08
7.10566e-08
6.93612e-08
7.2392e-08
6.75409e-08
7.02317e-08
6.71241e-08
7.29859e-08
0
6.88092e-08
7.02456e-08
0
6.60956e-08
0
0
0
0
0
0
0
0
0
0
0
0
0
0
0
0
1.66998e-07
6.76298e-08
6.74107e-08
6.82206e-08
6.40498e-08
6.63663e-08
6.54168e-08
6.69227e-08
6.81971e-08
6.94869e-08
6.82456e-08
6.77455e-08
1.72119e-07
6.91529e-08
1.73709e-07
6.79813e-08
6.63204e-08
6.73122e-08
6.96829e-08
0
1.68102e-07
6.69817e-08
7.33124e-08
6.96027e-08
6.7051e-08
6.55066e-08
7.19321e-08
2.17026e-08
3.07652e-08
6.76978e-08
7.25467e-08
6.78133e-08
0
1.76548e-07
1.49323e-07
8.15985e-08
1.49957e-07
7.43453e-08
7.06604e-08
6.94188e-08
6.92229e-08
6.90259e-08
6.78782e-08
6.89825e-08
6.93894e-08
6.66467e-08
6.66925e-08
6.79628e-08
6.8631e-08
6.9576e-08
8.7328e-08
5.11412e-08
1.67355e-07
0
7.32138e-08
6.72248e-08
7.18352e-08
0
6.61244e-08
0
0
0
0
0
0
0
0
0
0
0
0
0
0
0
0
6.91729e-08
6.61832e-08
6.77566e-08
6.91673e-08
7.03565e-08
9.51404e-08
1.23973e-07
6.72178e-08
0
0
1.65282e-07
6.90315e-08
1.72722e-07
6.96867e-08
6.93889e-08
6.78849e-08
6.84291e-08
6.94051e-08
6.89378e-08
0
6.70846e-08
6.96352e-08
0
7.07704e-08
7.30415e-08
6.9843e-08
5.85741e-09
6.01415e-08
6.99996e-08
6.78435e-08
1.68971e-07
6.37852e-08
1.61684e-07
1.60992e-07
1.0934e-07
1.15754e-07
7.36079e-08
0
7.24337e-08
7.24894e-08
7.03933e-08
7.02687e-08
6.99688e-08
7.12e-08
6.68953e-08
6.47724e-08
6.58162e-08
6.70169e-08
6.89526e-08
6.88127e-08
6.91414e-08
6.76522e-08
7.25284e-08
6.73848e-08
1.87216e-07
4.83567e-08
6.52472e-08
7.00333e-08
0
0
0
0
0
0
0
0
0
0
0
0
0
0
0
0
0
6.94298e-08
3.01627e-08
1.49443e-07
2.09972e-08
6.8517e-08
6.70531e-08
6.74596e-08
6.67311e-08
6.9056e-08
6.82525e-08
0
7.04541e-08
7.03474e-08
7.14471e-08
1.12421e-07
1.14191e-07
0
7.25918e-08
7.26987e-08
6.8353e-08
6.80024e-08
9.50576e-09
5.21285e-08
6.91646e-08
7.41938e-08
0
9.14547e-08
1.41595e-07
6.65773e-08
6.64354e-08
6.85602e-08
6.91274e-08
0
0
0
3.2179e-08
9.91985e-08
7.28468e-08
1.35002e-08
4.78123e-08
7.19335e-08
7.06333e-08
7.04333e-08
6.89337e-08
6.88107e-08
6.48836e-08
6.53419e-08
6.81902e-08
6.87257e-08
6.79081e-08
6.68762e-08
1.74238e-07
6.8083e-08
6.64517e-08
6.88192e-08
1.62974e-07
6.29351e-08
0
0
0
0
0
0
0
0
0
0
0
0
0
0
0
0
0
0
6.66397e-08
0
6.92542e-08
1.64601e-07
6.61473e-08
0
6.76622e-08
6.72133e-08
9.22182e-08
1.28822e-07
6.71179e-08
7.1307e-08
6.94699e-08
6.88914e-08
7.09614e-08
7.16561e-08
7.29515e-08
7.15502e-08
6.86759e-08
6.69283e-08
6.77917e-08
6.82179e-08
6.79479e-08
6.98375e-08
7.46953e-08
6.90749e-08
6.59687e-08
1.0179e-07
1.22467e-07
0
0
3.17291e-08
8.9036e-08
1.73892e-07
6.72513e-08
9.4337e-08
1.42745e-07
8.99949e-09
5.67091e-08
7.15536e-08
7.09907e-08
7.04646e-08
7.02258e-08
6.98134e-08
6.67653e-08
6.57348e-08
6.59819e-08
6.74182e-08
6.8311e-08
6.63521e-08
1.67477e-07
6.87249e-08
3.42316e-08
9.84281e-09
7.05513e-08
6.70692e-08
6.43219e-08
6.66191e-08
0
0
0
0
0
0
0
0
0
0
0
0
0
0
0
0
0
6.66169e-08
3.68316e-08
2.64028e-09
6.86634e-08
1.74217e-07
6.79417e-08
0
0
6.69724e-08
6.74836e-08
9.34496e-08
1.3328e-07
7.20246e-08
1.76121e-07
6.92725e-08
6.8767e-08
6.75949e-08
6.9411e-08
7.0699e-08
7.01286e-08
7.13222e-08
6.89832e-08
6.67657e-08
6.85591e-08
6.94814e-08
9.31585e-08
1.38366e-07
6.57618e-08
6.76634e-08
6.81943e-08
6.88327e-08
6.89847e-08
6.92489e-08
7.02161e-08
6.9657e-08
8.43684e-08
1.57391e-07
7.43124e-08
7.27242e-08
1.58606e-09
6.8111e-08
6.96977e-08
7.05824e-08
6.84674e-08
6.36692e-08
6.54898e-08
1.63788e-07
6.62921e-08
6.8243e-08
6.80539e-08
6.90512e-08
1.11986e-07
1.18758e-07
1.71426e-08
4.10087e-08
6.7913e-08
6.69322e-08
1.59243e-07
0
0
0
0
0
0
0
0
0
0
0
0
0
0
0
0
0
6.69749e-08
6.93957e-08
6.87068e-08
6.90944e-08
6.86938e-08
6.86092e-08
6.93318e-08
6.82537e-08
6.78281e-08
6.65094e-08
1.6148e-07
6.5284e-08
6.88595e-08
0
7.05561e-08
1.67059e-07
6.71043e-08
6.95642e-08
2.71794e-08
1.80804e-08
6.85715e-08
9.10489e-08
6.62206e-08
8.14188e-08
1.31876e-07
6.97112e-08
6.73726e-08
6.66597e-08
6.70409e-08
6.8058e-08
6.83973e-08
6.98374e-08
7.07845e-08
6.96257e-08
0
1.69291e-07
1.84706e-08
3.82714e-08
7.20383e-08
7.10364e-08
7.05265e-08
7.08833e-08
8.29503e-08
1.46611e-07
6.48793e-08
6.66703e-08
6.75632e-08
6.88225e-08
6.78902e-08
1.6714e-07
6.92835e-08
6.92225e-08
7.21511e-08
6.94528e-08
6.66038e-08
6.70807e-08
6.73066e-08
6.67287e-08
0
0
0
0
0
0
0
0
0
0
0
0
0
0
0
0
0
6.91378e-08
6.8955e-08
1.64247e-07
6.64955e-08
6.92657e-08
6.81808e-08
1.64845e-07
6.57628e-08
6.72064e-08
0
6.52563e-08
6.89134e-08
6.99123e-08
6.96756e-08
0
6.79268e-08
1.24292e-07
9.00959e-08
6.72474e-08
2.57384e-08
2.08297e-08
6.84324e-08
6.8189e-08
6.85954e-08
1.04001e-07
1.35722e-07
6.81516e-08
6.63783e-08
6.66996e-08
6.88412e-08
6.73688e-08
6.8207e-08
6.71977e-08
1.65298e-07
1.62991e-07
6.88466e-08
3.64583e-08
2.0818e-08
5.99778e-08
7.60566e-08
6.25415e-08
1.72333e-07
6.79613e-08
6.51356e-08
6.64971e-08
1.68249e-07
7.0105e-08
0
6.72818e-08
6.8075e-08
1.4685e-08
3.95189e-08
6.89394e-08
6.87658e-08
6.9086e-08
6.84514e-08
9.8769e-08
3.74407e-08
0
0
0
0
0
0
0
0
0
0
0
0
0
0
0
0
0
6.71657e-08
6.78924e-08
6.76488e-08
6.69031e-08
6.93786e-08
0
6.99357e-08
0
1.58653e-07
1.64011e-07
6.52769e-08
6.8044e-08
6.66954e-08
1.68764e-07
6.71369e-08
6.78097e-08
1.1329e-07
1.09248e-07
6.64655e-08
6.68253e-08
6.83575e-08
6.70943e-08
6.76101e-08
8.91756e-08
1.48392e-07
7.25523e-08
2.02144e-08
7.05981e-08
7.07441e-08
1.11649e-07
7.8512e-08
1.44371e-07
6.29139e-08
0
6.88058e-08
6.86781e-08
0
7.17815e-08
6.9881e-08
1.76763e-07
6.89733e-08
7.14021e-08
1.7065e-07
6.48757e-08
7.04048e-08
1.54798e-07
6.77057e-08
1.25538e-08
1.71444e-07
4.61927e-08
1.62927e-07
6.67772e-08
6.76517e-08
6.86035e-08
6.93835e-08
1.0858e-07
2.91379e-08
6.68613e-08
0
0
0
0
0
0
0
0
0
0
0
0
0
0
0
0
0
6.77945e-08
6.81599e-08
6.88101e-08
6.93044e-08
0
6.88017e-08
1.71074e-07
0
6.82859e-08
6.83902e-08
6.872e-08
0
6.92275e-08
7.0991e-08
6.96154e-08
1.17549e-08
1.4471e-07
6.64363e-08
6.59767e-08
8.94548e-08
1.36248e-07
6.50466e-08
6.84426e-08
6.98947e-08
7.03989e-08
6.98763e-08
7.15245e-08
7.07167e-08
1.71947e-08
1.2463e-07
6.52988e-08
0
6.90378e-08
6.85916e-08
6.88835e-08
7.16296e-08
7.45269e-08
3.45967e-08
6.81419e-08
1.01092e-07
7.4396e-08
6.89414e-08
6.72408e-08
6.88234e-08
6.88198e-08
1.63436e-07
6.61764e-08
6.92096e-08
0
6.95674e-08
6.79185e-08
6.91604e-08
6.86422e-08
6.77146e-08
3.31245e-08
1.10393e-08
7.13252e-08
7.21223e-08
7.09487e-08
0
0
0
0
0
0
0
0
0
0
0
0
0
0
0
0
6.82435e-08
6.6083e-08
6.84233e-08
1.61776e-07
6.59938e-08
6.91773e-08
0
6.94831e-08
6.80476e-08
6.87865e-08
0
1.26387e-07
1.17836e-07
1.44657e-07
3.04123e-08
1.31113e-08
0
6.87082e-08
6.89563e-08
6.8368e-08
1.09274e-07
1.09678e-07
1.68595e-07
6.89055e-08
6.92657e-08
7.05172e-08
6.64174e-08
0
7.02611e-08
6.52764e-08
7.09048e-08
3.31925e-08
9.03485e-08
6.74037e-08
6.65827e-08
6.78877e-08
1.72382e-07
6.75451e-08
6.68422e-08
7.40514e-08
3.08661e-08
1.73791e-08
6.87965e-08
6.97e-08
0
6.96463e-08
8.04976e-08
1.57449e-07
7.08605e-08
6.87032e-08
6.68787e-08
6.69135e-08
7.20387e-08
1.07101e-07
2.51393e-08
7.12154e-08
6.89474e-08
6.88632e-08
6.85695e-08
0
0
0
0
0
0
0
0
0
0
0
0
0
0
0
0
7.13938e-08
8.71942e-08
5.2382e-08
6.65024e-08
6.70974e-08
6.63994e-08
1.74127e-07
6.73321e-08
6.65777e-08
6.82893e-08
1.77817e-08
3.62921e-08
6.78107e-08
4.30121e-08
6.37918e-08
1.62769e-07
1.63325e-07
6.74232e-08
6.93212e-08
0
0
6.89982e-08
8.75211e-08
1.50716e-07
6.95868e-08
6.83828e-08
7.06172e-08
7.45899e-08
0
6.81539e-08
6.88291e-08
6.87761e-08
6.70244e-08
6.65493e-08
1.69209e-07
6.67637e-08
1.71132e-07
6.76348e-08
6.57484e-08
6.82105e-08
7.38216e-08
7.46319e-08
0
7.12502e-08
1.75028e-07
0
6.81219e-08
7.0808e-08
7.08383e-08
6.76592e-08
6.62071e-08
6.96634e-08
7.09273e-08
6.98693e-08
6.8182e-08
7.1153e-08
7.19846e-08
7.19238e-08
6.83658e-08
0
0
0
0
0
0
0
0
0
0
0
0
0
0
0
0
7.4531e-08
7.28755e-08
6.55448e-08
6.57068e-08
6.45326e-08
1.69239e-07
6.89363e-08
6.85343e-08
6.76677e-08
6.76638e-08
7.13763e-08
6.89448e-08
0
7.00387e-08
7.19581e-08
7.04406e-08
6.90188e-08
6.81435e-08
1.23633e-08
1.40063e-07
6.70886e-08
0
0
1.02513e-07
1.29857e-07
7.18181e-08
7.20076e-08
7.33309e-08
0
6.46137e-08
6.83653e-08
6.79244e-08
0
0
7.04829e-08
7.08287e-08
0
1.10436e-07
1.15236e-07
7.232e-08
7.19702e-08
0
7.09102e-08
7.2029e-08
0
6.66639e-08
7.02787e-08
7.22404e-08
0
6.68806e-08
7.09579e-08
7.45196e-08
1.40051e-08
5.42528e-08
1.1312e-07
4.73514e-08
1.22405e-07
6.58339e-08
0
0
0
0
0
0
0
0
0
0
0
0
0
0
0
0
0
1.09816e-07