/*--------------------------------*- C++ -*----------------------------------*\
  =========                 |
  \\      /  F ield         | OpenFOAM: The Open Source CFD Toolbox
   \\    /   O peration     | Website:  https://openfoam.org
    \\  /    A nd           | Version:  12
     \\/     M anipulation  |
\*---------------------------------------------------------------------------*/
FoamFile
{
    format      ascii;
    class       volVectorField::Internal;
    location    "0.35";
    object      cloud:UTrans;
}
// * * * * * * * * * * * * * * * * * * * * * * * * * * * * * * * * * * * * * //

dimensions      [1 1 -1 0 0 0 0];

value           nonuniform List<vector> 
3750
(
(-1.4896e-10 -3.84741e-09 0)
(2.89131e-11 -4.02526e-09 0)
(2.24166e-11 -2.30374e-09 0)
(2.44406e-11 -2.20293e-09 0)
(-1.75089e-10 -2.6974e-09 0)
(0 0 0)
(-8.05825e-12 -2.97405e-09 0)
(2.86931e-11 -2.30201e-09 0)
(-4.61303e-11 -2.44614e-09 0)
(-6.3233e-11 -2.89457e-09 0)
(2.83731e-11 -2.59449e-09 0)
(1.1628e-10 -2.26619e-09 0)
(9.66485e-11 -2.09369e-09 0)
(-8.00867e-12 -2.3715e-09 0)
(2.41725e-10 -5.02634e-09 0)
(1.4951e-11 -2.25026e-09 0)
(-4.82437e-11 -2.28669e-09 0)
(-1.38302e-10 -2.42287e-09 0)
(-1.01795e-10 -2.52276e-09 0)
(-2.72991e-10 -6.30469e-09 0)
(4.83613e-11 -2.39258e-09 0)
(5.79577e-11 -2.33028e-09 0)
(5.10926e-11 -2.35303e-09 0)
(-1.43068e-12 -2.48413e-09 0)
(6.28075e-12 -2.39684e-09 0)
(8.88725e-11 -2.49167e-09 0)
(-8.97876e-12 -2.66379e-09 0)
(-4.23388e-11 -2.47708e-09 0)
(-6.89597e-11 -2.26743e-09 0)
(-5.14087e-11 -2.3988e-09 0)
(-1.29637e-10 -2.49615e-09 0)
(-1.15386e-10 -2.49981e-09 0)
(-1.81981e-11 -3.93114e-09 0)
(7.69947e-11 -4.15616e-09 0)
(6.31454e-11 -2.83525e-09 0)
(0 0 0)
(-2.25586e-11 -2.22423e-09 0)
(-9.37628e-12 -2.50287e-09 0)
(-9.61964e-12 -2.73671e-09 0)
(-1.73716e-11 -2.70427e-09 0)
(8.85413e-11 -2.34263e-09 0)
(-4.01911e-11 -2.56005e-09 0)
(-8.9962e-11 -1.8951e-09 0)
(4.44685e-12 -2.21654e-09 0)
(6.65982e-13 -2.54028e-09 0)
(2.11808e-12 -2.59716e-09 0)
(1.12087e-11 -2.26582e-09 0)
(5.50011e-11 -2.26515e-09 0)
(7.12184e-13 -1.18718e-09 0)
(-3.11511e-10 -2.8618e-09 0)
(3.20629e-11 -2.39526e-09 0)
(-3.13117e-11 -4.06461e-09 0)
(2.01768e-10 -3.96865e-09 0)
(2.77659e-11 -2.31832e-09 0)
(5.50254e-11 -2.39504e-09 0)
(9.25888e-11 -2.47861e-09 0)
(8.55403e-11 -2.38141e-09 0)
(-8.96003e-11 -2.65328e-09 0)
(0 0 0)
(-6.88678e-11 -2.32321e-09 0)
(-7.05129e-11 -2.58618e-09 0)
(-3.06458e-11 -2.56827e-09 0)
(0 0 0)
(-7.52398e-11 -4.34003e-09 0)
(-5.80585e-12 -2.84593e-10 0)
(0 0 0)
(0 0 0)
(0 0 0)
(0 0 0)
(0 0 0)
(0 0 0)
(0 0 0)
(0 0 0)
(0 0 0)
(0 0 0)
(-1.24739e-11 -3.79546e-10 0)
(-6.54972e-11 -1.78757e-09 0)
(-1.36259e-12 -2.22783e-09 0)
(2.19422e-10 -5.06479e-09 0)
(2.20757e-10 -2.31347e-09 0)
(-1.4904e-10 -2.70103e-09 0)
(1.83171e-11 -2.37224e-09 0)
(-6.22319e-11 -2.23843e-09 0)
(-3.77375e-11 -2.26861e-09 0)
(6.7415e-11 -2.37389e-09 0)
(0 0 0)
(2.0055e-10 -2.45789e-09 0)
(3.51148e-10 -2.47305e-09 0)
(2.77963e-11 -2.89903e-09 0)
(6.05457e-11 -4.17186e-09 0)
(-9.3404e-11 -2.09179e-09 0)
(0 0 0)
(0 0 0)
(-2.35243e-10 -2.25072e-09 0)
(-2.34801e-10 -2.47432e-09 0)
(-4.5825e-11 -2.37653e-09 0)
(-1.8341e-11 -2.52759e-09 0)
(-1.2801e-10 -4.35438e-09 0)
(-1.63334e-10 -4.73185e-09 0)
(-1.0181e-10 -3.41795e-09 0)
(-5.02188e-11 -3.48489e-09 0)
(3.87852e-11 -2.37417e-09 0)
(-3.18036e-11 -2.65891e-09 0)
(0 0 0)
(0 0 0)
(-1.13341e-10 -2.27414e-09 0)
(-8.51865e-11 -2.27944e-09 0)
(-1.49161e-11 -2.25847e-09 0)
(-1.91683e-11 -2.31604e-09 0)
(9.36403e-11 -2.59944e-09 0)
(1.10008e-10 -2.44516e-09 0)
(6.69278e-11 -4.71345e-09 0)
(-3.96377e-11 -2.11203e-09 0)
(0 0 0)
(0 0 0)
(1.0018e-10 -2.39864e-09 0)
(-3.0725e-10 -4.97538e-09 0)
(-1.28438e-10 -3.95061e-09 0)
(4.44126e-11 -4.96231e-09 0)
(7.76009e-11 -2.17468e-09 0)
(2.73376e-12 -2.04854e-09 0)
(0 0 0)
(2.30351e-11 -2.1266e-09 0)
(0 0 0)
(-1.45436e-11 -2.29218e-09 0)
(-5.10368e-11 -2.33915e-09 0)
(-7.13429e-11 -2.41861e-09 0)
(7.04593e-14 -8.20372e-10 0)
(1.32345e-12 -5.95766e-10 0)
(7.81347e-11 -2.2267e-09 0)
(1.12643e-11 -2.3636e-09 0)
(-1.828e-10 -2.27846e-09 0)
(-8.73629e-11 -7.07427e-09 0)
(-1.28213e-10 -1.5571e-09 0)
(0 0 0)
(0 0 0)
(0 0 0)
(0 0 0)
(0 0 0)
(0 0 0)
(0 0 0)
(0 0 0)
(0 0 0)
(0 0 0)
(0 0 0)
(0 0 0)
(0 0 0)
(0 0 0)
(0 0 0)
(0 0 0)
(-6.8015e-11 -2.27109e-09 0)
(-9.58337e-11 -1.95483e-09 0)
(-1.93189e-10 -2.94095e-09 0)
(-3.59493e-11 -4.30157e-09 0)
(-9.91029e-11 -2.624e-09 0)
(-3.59993e-11 -2.34798e-09 0)
(0 0 0)
(8.40122e-11 -2.48136e-09 0)
(2.26268e-10 -4.68648e-09 0)
(1.31343e-11 -2.18521e-09 0)
(7.76652e-11 -2.34273e-09 0)
(0 0 0)
(2.32369e-10 -5.21707e-09 0)
(1.38912e-10 -3.90157e-09 0)
(7.61662e-12 -1.47586e-10 0)
(-5.27035e-11 -1.87022e-09 0)
(-5.97617e-11 -2.12084e-09 0)
(-7.44737e-11 -2.60971e-09 0)
(-2.75354e-10 -5.10985e-09 0)
(-1.9488e-10 -2.05843e-09 0)
(-2.12556e-11 -2.84941e-09 0)
(-2.35036e-11 -7.10473e-10 0)
(-6.21406e-11 -1.4205e-09 0)
(-9.70265e-11 -2.48064e-09 0)
(-6.24117e-11 -2.32154e-09 0)
(-8.02808e-11 -2.26181e-09 0)
(-7.81966e-11 -2.34713e-09 0)
(1.62732e-11 -2.78161e-09 0)
(1.25624e-11 -2.57543e-09 0)
(-1.97387e-11 -2.5536e-09 0)
(-4.20392e-11 -2.57658e-09 0)
(8.21163e-13 -8.55946e-10 0)
(-1.48397e-11 -1.63086e-09 0)
(-6.33046e-11 -1.82072e-09 0)
(-2.45152e-10 -5.0999e-09 0)
(-8.94081e-11 -2.34056e-09 0)
(4.2478e-11 -4.83607e-09 0)
(-2.4618e-11 -2.0121e-09 0)
(6.49452e-12 -3.20227e-09 0)
(-1.40686e-11 -4.53589e-09 0)
(6.19582e-11 -2.6421e-09 0)
(0 0 0)
(-7.58228e-11 -2.34049e-09 0)
(-5.18998e-11 -2.36314e-09 0)
(5.30521e-11 -2.26179e-09 0)
(1.47179e-10 -2.43135e-09 0)
(2.24703e-10 -2.27495e-09 0)
(-2.79787e-11 -2.11513e-09 0)
(1.72583e-11 -2.2596e-09 0)
(6.48909e-11 -2.51428e-09 0)
(-3.57512e-11 -2.54309e-09 0)
(-5.37352e-11 -2.14518e-09 0)
(-1.49112e-10 -2.57149e-09 0)
(-1.84317e-10 -3.59157e-09 0)
(2.18911e-11 -2.25961e-09 0)
(-4.82873e-11 -2.18746e-09 0)
(-2.13874e-10 -2.26661e-09 0)
(0 0 0)
(0 0 0)
(0 0 0)
(0 0 0)
(0 0 0)
(0 0 0)
(0 0 0)
(0 0 0)
(0 0 0)
(0 0 0)
(0 0 0)
(0 0 0)
(0 0 0)
(0 0 0)
(0 0 0)
(0 0 0)
(0 0 0)
(0 0 0)
(-6.66873e-11 -2.14654e-09 0)
(-1.83404e-10 -4.64939e-09 0)
(-3.51187e-11 -1.47048e-09 0)
(3.14878e-11 -2.56139e-09 0)
(1.07915e-10 -2.60098e-09 0)
(0 0 0)
(6.27143e-11 -2.09302e-09 0)
(7.65144e-11 -5.06096e-09 0)
(-3.17724e-11 -2.05424e-09 0)
(5.2462e-12 -2.4438e-09 0)
(1.18128e-11 -2.20005e-09 0)
(2.471e-12 -2.32142e-09 0)
(1.41624e-10 -2.29481e-09 0)
(1.24518e-10 -2.51653e-09 0)
(-6.35143e-11 -2.5137e-09 0)
(-1.59321e-11 -7.43173e-10 0)
(-1.97338e-10 -2.75737e-09 0)
(-1.36607e-10 -3.65693e-09 0)
(-2.51158e-11 -9.61282e-10 0)
(-1.76558e-11 -5.96947e-10 0)
(-2.72846e-10 -2.41554e-09 0)
(-1.08506e-11 -2.76085e-09 0)
(-2.06542e-11 -1.02026e-09 0)
(-2.18074e-11 -7.02157e-10 0)
(-9.71745e-11 -2.3184e-09 0)
(9.2656e-12 -2.31069e-09 0)
(2.96806e-11 -2.3225e-09 0)
(-1.0704e-10 -2.59383e-09 0)
(-1.4036e-11 -2.54043e-09 0)
(2.83901e-11 -2.47933e-09 0)
(3.70068e-11 -2.36019e-09 0)
(9.77684e-11 -2.28298e-09 0)
(2.37717e-10 -5.49233e-09 0)
(-2.41073e-10 -2.11814e-09 0)
(-1.65861e-10 -2.26335e-09 0)
(-1.36321e-10 -2.16618e-09 0)
(-7.08802e-11 -3.01141e-09 0)
(-2.56606e-11 -3.39663e-09 0)
(-2.81133e-12 -2.78409e-10 0)
(-2.13619e-11 -2.87984e-09 0)
(3.56175e-11 -1.90032e-09 0)
(1.53952e-10 -2.32684e-09 0)
(9.99853e-11 -2.44997e-09 0)
(2.26402e-10 -2.49798e-09 0)
(1.4087e-10 -2.2347e-09 0)
(1.11728e-10 -2.48141e-09 0)
(3.85443e-12 -2.40515e-09 0)
(1.29799e-11 -2.14166e-09 0)
(-6.17309e-11 -2.24715e-09 0)
(-8.82569e-11 -2.49111e-09 0)
(-4.57936e-12 -2.47725e-09 0)
(2.90137e-11 -2.32112e-09 0)
(-7.82535e-12 -2.29669e-09 0)
(-7.168e-11 -3.29154e-09 0)
(-9.62651e-11 -3.46924e-09 0)
(-6.05435e-12 -1.96842e-09 0)
(-2.11243e-10 -2.0005e-09 0)
(0 0 0)
(0 0 0)
(0 0 0)
(0 0 0)
(0 0 0)
(0 0 0)
(0 0 0)
(0 0 0)
(0 0 0)
(0 0 0)
(0 0 0)
(0 0 0)
(0 0 0)
(0 0 0)
(0 0 0)
(0 0 0)
(0 0 0)
(0 0 0)
(0 0 0)
(-6.40124e-11 -2.07396e-09 0)
(-4.89209e-11 -3.62283e-09 0)
(-1.43122e-10 -2.85764e-09 0)
(2.41641e-11 -2.27307e-09 0)
(2.95337e-11 -2.3435e-09 0)
(-1.34053e-11 -2.25541e-09 0)
(-3.396e-11 -2.08396e-09 0)
(1.37428e-10 -2.37467e-09 0)
(1.35339e-11 -2.50014e-09 0)
(2.07005e-12 -7.93184e-11 0)
(7.49563e-11 -2.33036e-09 0)
(1.92128e-10 -2.2196e-09 0)
(-4.36315e-11 -2.49906e-09 0)
(0 0 0)
(6.27946e-11 -2.2426e-09 0)
(2.28376e-10 -2.19422e-09 0)
(-1.73905e-10 -2.32055e-09 0)
(-9.21772e-11 -2.35281e-09 0)
(-4.99541e-11 -2.49685e-09 0)
(-1.14294e-10 -2.37692e-09 0)
(-3.50788e-12 -2.50418e-09 0)
(3.84264e-11 -2.72808e-09 0)
(-4.27689e-12 -4.54247e-10 0)
(-1.47606e-11 -1.53809e-09 0)
(-5.52708e-11 -2.2978e-09 0)
(-2.25265e-11 -2.34555e-09 0)
(6.6847e-11 -2.49114e-09 0)
(-3.26918e-12 -2.47037e-09 0)
(-6.13229e-11 -2.39117e-09 0)
(-3.0558e-11 -5.38383e-09 0)
(-3.04924e-11 -2.10005e-09 0)
(-1.08794e-10 -2.29599e-09 0)
(-5.993e-11 -2.44658e-09 0)
(-5.73936e-11 -2.32396e-09 0)
(-1.8533e-10 -2.33691e-09 0)
(2.86781e-11 -2.4637e-09 0)
(0 0 0)
(5.23756e-11 -2.41523e-09 0)
(2.7905e-11 -2.49519e-09 0)
(-2.15759e-12 -2.5837e-09 0)
(4.69754e-11 -2.6182e-09 0)
(1.23791e-10 -2.44959e-09 0)
(1.47734e-11 -2.39763e-09 0)
(1.22451e-10 -4.21114e-09 0)
(9.00323e-11 -3.25274e-09 0)
(6.1214e-11 -2.15041e-09 0)
(2.47769e-10 -2.16213e-09 0)
(5.43456e-11 -2.26365e-09 0)
(4.12421e-12 -2.2681e-09 0)
(2.14327e-11 -2.28569e-09 0)
(0 0 0)
(0 0 0)
(-4.3513e-12 -2.2636e-09 0)
(-1.28296e-10 -2.32679e-09 0)
(-1.12138e-10 -4.57089e-09 0)
(-1.08997e-10 -1.99526e-09 0)
(0 0 0)
(0 0 0)
(0 0 0)
(0 0 0)
(0 0 0)
(0 0 0)
(0 0 0)
(0 0 0)
(0 0 0)
(0 0 0)
(0 0 0)
(0 0 0)
(0 0 0)
(0 0 0)
(0 0 0)
(0 0 0)
(0 0 0)
(0 0 0)
(3.96502e-10 -5.57439e-09 0)
(-1.07444e-10 -2.31911e-09 0)
(-9.09318e-11 -2.11711e-09 0)
(-1.11799e-10 -2.07712e-09 0)
(-1.42705e-10 -2.14437e-09 0)
(2.74049e-11 -3.61916e-09 0)
(-1.59845e-10 -3.94064e-09 0)
(1.60697e-11 -2.19973e-09 0)
(-3.41899e-11 -2.73518e-09 0)
(0 0 0)
(5.26033e-11 -2.4625e-09 0)
(1.93289e-11 -2.32997e-09 0)
(0 0 0)
(-1.10343e-11 -2.37986e-09 0)
(2.6003e-11 -2.5335e-09 0)
(-1.46795e-11 -2.49822e-09 0)
(-1.59891e-10 -2.31089e-09 0)
(1.11614e-10 -2.68461e-09 0)
(0 0 0)
(-7.26956e-11 -2.25041e-09 0)
(-9.31516e-11 -2.23366e-09 0)
(-1.17554e-10 -2.37634e-09 0)
(-5.79528e-11 -2.82095e-09 0)
(2.01998e-12 -1.9597e-09 0)
(7.05679e-11 -2.43977e-09 0)
(-6.6154e-11 -2.32422e-09 0)
(-6.37812e-11 -3.23673e-09 0)
(2.08846e-11 -4.17689e-09 0)
(1.64898e-11 -2.32159e-09 0)
(-1.63222e-10 -2.21196e-09 0)
(-1.34948e-10 -2.22024e-09 0)
(-8.04694e-11 -2.26154e-09 0)
(-1.07905e-11 -2.36627e-09 0)
(1.27553e-10 -2.43117e-09 0)
(-2.11748e-10 -2.64018e-09 0)
(-2.0171e-10 -2.32197e-09 0)
(-2.14528e-10 -3.18691e-09 0)
(-6.92418e-11 -1.4362e-09 0)
(1.20076e-11 -2.71034e-09 0)
(9.74799e-11 -2.53525e-09 0)
(5.54506e-12 -2.44964e-09 0)
(4.59542e-11 -2.30666e-09 0)
(4.67934e-11 -2.4375e-09 0)
(-5.65963e-11 -2.50531e-09 0)
(-5.80536e-11 -2.40557e-09 0)
(-3.7606e-11 -2.36424e-09 0)
(5.7985e-11 -2.42821e-09 0)
(4.23643e-11 -2.29228e-09 0)
(9.95421e-11 -2.29852e-09 0)
(1.19483e-11 -2.4137e-09 0)
(-3.50522e-12 -2.29521e-09 0)
(7.50718e-11 -5.3126e-09 0)
(9.29742e-11 -2.08251e-09 0)
(-4.5416e-11 -2.31544e-09 0)
(0 0 0)
(0 0 0)
(-4.99254e-10 -5.78666e-09 0)
(0 0 0)
(0 0 0)
(0 0 0)
(0 0 0)
(0 0 0)
(0 0 0)
(0 0 0)
(0 0 0)
(0 0 0)
(0 0 0)
(0 0 0)
(0 0 0)
(0 0 0)
(0 0 0)
(0 0 0)
(0 0 0)
(0 0 0)
(0 0 0)
(2.74505e-11 -2.79035e-09 0)
(-5.8227e-12 -2.39794e-10 0)
(-4.99698e-11 -1.97868e-09 0)
(-3.83309e-11 -2.52257e-09 0)
(-1.19248e-10 -2.57652e-09 0)
(-1.20634e-10 -2.75707e-09 0)
(3.01616e-10 -2.3673e-09 0)
(-3.857e-11 -2.40208e-09 0)
(-1.00766e-10 -2.4501e-09 0)
(4.6566e-11 -2.32578e-09 0)
(1.36817e-10 -2.30557e-09 0)
(1.52372e-10 -2.22672e-09 0)
(1.51869e-10 -2.40997e-09 0)
(4.86629e-11 -2.5686e-09 0)
(0 0 0)
(-6.84212e-11 -2.21935e-09 0)
(-2.49217e-12 -2.3916e-09 0)
(-4.45282e-11 -2.53391e-09 0)
(7.09894e-11 -2.59574e-09 0)
(9.56376e-11 -2.45175e-09 0)
(-4.08699e-11 -3.04334e-09 0)
(-1.86619e-10 -4.50831e-09 0)
(-6.55937e-12 -2.21998e-09 0)
(-7.72339e-12 -2.27503e-09 0)
(-2.10672e-10 -5.78001e-09 0)
(-2.58928e-11 -2.14835e-09 0)
(-2.18046e-12 -2.14334e-09 0)
(-5.7656e-11 -2.31403e-09 0)
(-5.17073e-13 -2.60464e-09 0)
(2.27027e-12 -1.15992e-09 0)
(-1.62327e-11 -1.37722e-09 0)
(-1.85668e-11 -1.14098e-09 0)
(-1.06422e-11 -2.30964e-09 0)
(1.28819e-10 -5.87137e-09 0)
(-1.20662e-10 -2.34243e-09 0)
(-5.7038e-11 -2.14316e-09 0)
(5.33954e-11 -2.22575e-09 0)
(-1.09646e-11 -6.84142e-10 0)
(-2.19118e-11 -1.05519e-09 0)
(1.19563e-10 -6.19671e-09 0)
(4.32911e-11 -2.31209e-09 0)
(-1.76484e-11 -2.19315e-09 0)
(1.1006e-11 -2.64114e-09 0)
(0 0 0)
(-1.98137e-11 -2.43522e-09 0)
(2.56998e-11 -2.30921e-09 0)
(2.13297e-12 -2.29304e-09 0)
(4.70893e-11 -2.26924e-09 0)
(5.35553e-10 -5.98473e-09 0)
(5.24924e-11 -2.13598e-09 0)
(2.09228e-11 -2.0732e-09 0)
(1.44092e-11 -2.30601e-09 0)
(-1.46989e-11 -4.578e-09 0)
(-5.21169e-13 -1.25388e-10 0)
(4.92015e-11 -2.21134e-09 0)
(1.27493e-11 -2.20244e-09 0)
(-1.32685e-10 -2.02034e-09 0)
(-2.59325e-10 -2.23691e-09 0)
(0 0 0)
(0 0 0)
(0 0 0)
(0 0 0)
(0 0 0)
(0 0 0)
(0 0 0)
(0 0 0)
(0 0 0)
(0 0 0)
(0 0 0)
(0 0 0)
(0 0 0)
(0 0 0)
(0 0 0)
(0 0 0)
(0 0 0)
(-3.80987e-11 -2.84514e-09 0)
(0 0 0)
(-4.86299e-11 -2.30665e-09 0)
(-4.62072e-11 -2.48948e-09 0)
(-2.03423e-10 -2.39984e-09 0)
(3.59664e-11 -2.10878e-09 0)
(3.96095e-11 -2.64008e-09 0)
(-1.26874e-10 -2.48335e-09 0)
(-5.87877e-11 -2.17712e-09 0)
(7.7188e-11 -2.15789e-09 0)
(1.44889e-10 -2.09277e-09 0)
(1.43823e-10 -2.21669e-09 0)
(1.40592e-10 -2.35597e-09 0)
(9.91694e-11 -2.44648e-09 0)
(-1.01465e-11 -2.38874e-09 0)
(6.37636e-11 -2.39503e-09 0)
(-2.08138e-11 -2.63398e-09 0)
(1.03514e-11 -1.87696e-09 0)
(1.36354e-11 -2.5241e-09 0)
(-1.52838e-11 -2.46648e-09 0)
(-2.77362e-11 -3.42391e-09 0)
(-1.8644e-10 -4.0484e-09 0)
(-1.06542e-10 -2.38635e-09 0)
(-3.91582e-10 -5.32506e-09 0)
(-1.57963e-10 -2.08979e-09 0)
(-8.0645e-11 -2.17479e-09 0)
(5.99472e-11 -2.29456e-09 0)
(-3.17631e-11 -2.51348e-09 0)
(-7.15204e-11 -2.41475e-09 0)
(6.7305e-12 -6.43859e-10 0)
(8.29081e-12 -1.11644e-09 0)
(-3.20639e-11 -2.40718e-09 0)
(-8.4032e-11 -2.47568e-09 0)
(-2.01276e-11 -2.4269e-09 0)
(-6.78033e-11 -2.33977e-09 0)
(1.19643e-11 -2.09654e-09 0)
(-1.32123e-11 -2.12379e-09 0)
(5.69948e-12 -2.31652e-09 0)
(-1.09719e-10 -2.24082e-09 0)
(-9.02221e-11 -2.35301e-09 0)
(1.85871e-10 -2.58842e-09 0)
(5.22874e-11 -2.05465e-09 0)
(-4.26634e-11 -2.83012e-09 0)
(-2.13397e-12 -6.96973e-10 0)
(-3.36209e-12 -1.14504e-09 0)
(-1.60869e-11 -2.30571e-09 0)
(-3.38353e-11 -2.33589e-09 0)
(1.29493e-11 -2.29432e-09 0)
(9.389e-11 -2.33491e-09 0)
(7.84963e-11 -2.33227e-09 0)
(8.94182e-11 -3.50524e-09 0)
(-3.0945e-11 -4.0371e-09 0)
(-6.38164e-11 -2.66406e-09 0)
(6.89889e-12 -4.70117e-10 0)
(-5.20491e-11 -3.84353e-09 0)
(-1.2911e-10 -5.0713e-09 0)
(-2.96025e-10 -2.2971e-09 0)
(-2.10821e-10 -2.23399e-09 0)
(0 0 0)
(0 0 0)
(0 0 0)
(0 0 0)
(0 0 0)
(0 0 0)
(0 0 0)
(0 0 0)
(0 0 0)
(0 0 0)
(0 0 0)
(0 0 0)
(0 0 0)
(0 0 0)
(0 0 0)
(0 0 0)
(0 0 0)
(-7.6435e-11 -4.43702e-09 0)
(0 0 0)
(6.0766e-11 -2.48043e-09 0)
(3.51281e-11 -1.77653e-09 0)
(-1.28899e-11 -1.17036e-09 0)
(-9.4781e-12 -7.06149e-10 0)
(-2.31775e-11 -5.5636e-09 0)
(2.24186e-10 -2.44619e-09 0)
(2.92281e-10 -1.97657e-09 0)
(1.03111e-10 -2.09945e-09 0)
(1.12127e-10 -2.17716e-09 0)
(9.21651e-11 -2.26825e-09 0)
(5.29296e-11 -2.29795e-09 0)
(4.59862e-10 -5.81585e-09 0)
(4.38352e-11 -2.21158e-09 0)
(3.68564e-11 -3.25866e-09 0)
(2.02709e-10 -3.8639e-09 0)
(2.16152e-11 -2.13643e-09 0)
(-3.11387e-11 -2.30627e-09 0)
(-3.78421e-12 -1.32127e-10 0)
(-5.99206e-11 -5.95898e-09 0)
(-1.79097e-10 -2.23962e-09 0)
(-2.38692e-10 -2.09452e-09 0)
(-3.2019e-10 -5.26285e-09 0)
(-1.8e-10 -1.96827e-09 0)
(-4.23057e-11 -2.23252e-09 0)
(-6.03813e-11 -2.59856e-09 0)
(0 0 0)
(4.65218e-12 -2.37261e-09 0)
(9.36858e-11 -2.44217e-09 0)
(1.46407e-12 -5.91608e-10 0)
(4.74344e-12 -1.28176e-09 0)
(3.24016e-11 -2.41352e-09 0)
(4.58019e-11 -2.35753e-09 0)
(-2.94546e-11 -2.18836e-09 0)
(-1.99284e-11 -2.25516e-09 0)
(-2.03215e-10 -2.15202e-09 0)
(-2.67036e-10 -5.63654e-09 0)
(-3.29219e-11 -2.21971e-09 0)
(-1.29823e-10 -2.16811e-09 0)
(4.45036e-11 -2.5788e-09 0)
(-1.84172e-11 -9.49275e-10 0)
(-3.06792e-10 -4.13256e-09 0)
(2.49037e-11 -4.97211e-10 0)
(8.69313e-11 -1.49535e-09 0)
(4.42055e-11 -2.24834e-09 0)
(5.25806e-11 -2.256e-09 0)
(6.87302e-11 -2.20011e-09 0)
(7.98359e-11 -2.46859e-09 0)
(0 0 0)
(5.98947e-11 -2.27186e-09 0)
(3.75664e-11 -2.51986e-09 0)
(-1.26445e-10 -2.64359e-09 0)
(-9.85704e-11 -2.4836e-09 0)
(-1.28561e-10 -2.38881e-09 0)
(4.50805e-11 -2.12017e-09 0)
(-9.22358e-11 -2.11621e-09 0)
(-9.63295e-11 -2.22964e-09 0)
(0 0 0)
(0 0 0)
(0 0 0)
(0 0 0)
(0 0 0)
(0 0 0)
(0 0 0)
(0 0 0)
(0 0 0)
(0 0 0)
(0 0 0)
(0 0 0)
(0 0 0)
(0 0 0)
(0 0 0)
(0 0 0)
(0 0 0)
(-2.04488e-10 -2.62869e-09 0)
(-1.17409e-10 -2.51576e-09 0)
(-1.22288e-10 -2.43359e-09 0)
(1.53939e-10 -2.38174e-09 0)
(3.96143e-11 -2.38232e-09 0)
(-9.2669e-11 -2.45498e-09 0)
(-8.61337e-11 -2.54954e-09 0)
(1.02528e-10 -1.93072e-09 0)
(1.19427e-10 -1.90487e-09 0)
(1.58359e-10 -2.06596e-09 0)
(1.82572e-10 -5.35209e-09 0)
(-5.09378e-11 -1.97643e-09 0)
(-7.56558e-11 -1.96092e-09 0)
(-5.29299e-11 -2.15226e-09 0)
(1.36843e-10 -5.67132e-09 0)
(-7.04056e-11 -2.07788e-09 0)
(-1.50684e-12 -2.38434e-09 0)
(-1.63821e-10 -5.33774e-09 0)
(-1.15686e-10 -2.48123e-09 0)
(-1.18602e-10 -2.52675e-09 0)
(-1.03717e-10 -2.56418e-09 0)
(-4.23785e-11 -2.65149e-09 0)
(3.14334e-11 -1.15329e-09 0)
(-2.17978e-10 -3.12564e-09 0)
(-6.87965e-11 -2.1163e-09 0)
(-1.53347e-11 -1.70821e-09 0)
(0 0 0)
(2.80788e-11 -2.24153e-09 0)
(-2.02746e-11 -2.48799e-09 0)
(3.51065e-11 -2.49557e-09 0)
(0 0 0)
(1.52775e-11 -2.40309e-09 0)
(1.43234e-10 -2.51152e-09 0)
(8.94742e-11 -2.49221e-09 0)
(-4.90764e-11 -1.43671e-09 0)
(-1.57178e-10 -3.06113e-09 0)
(-2.68658e-10 -2.18339e-09 0)
(-1.0548e-10 -1.97655e-09 0)
(-1.70671e-10 -5.96381e-09 0)
(-9.75677e-11 -2.03408e-09 0)
(-2.93868e-11 -2.16329e-09 0)
(3.90753e-11 -2.37395e-09 0)
(-1.32116e-10 -2.92053e-09 0)
(0 0 0)
(1.78003e-10 -2.29409e-09 0)
(2.81234e-10 -2.28704e-09 0)
(9.72555e-11 -2.35557e-09 0)
(4.99108e-11 -2.17593e-09 0)
(0 0 0)
(1.50309e-11 -2.41261e-09 0)
(2.1216e-10 -2.41633e-09 0)
(-7.68992e-11 -2.95807e-09 0)
(0 0 0)
(-1.41648e-11 -2.49725e-09 0)
(2.12953e-11 -2.42981e-09 0)
(1.25584e-11 -2.60712e-09 0)
(-3.67587e-11 -2.27442e-09 0)
(-8.04273e-11 -2.258e-09 0)
(-6.17769e-11 -2.3345e-09 0)
(0 0 0)
(0 0 0)
(0 0 0)
(0 0 0)
(0 0 0)
(0 0 0)
(0 0 0)
(0 0 0)
(0 0 0)
(0 0 0)
(0 0 0)
(0 0 0)
(0 0 0)
(0 0 0)
(0 0 0)
(0 0 0)
(-5.93876e-11 -2.36799e-09 0)
(4.70637e-11 -2.5031e-09 0)
(4.81945e-11 -2.50585e-09 0)
(2.72325e-11 -2.73869e-09 0)
(5.9774e-11 -2.32523e-09 0)
(0 0 0)
(-2.87673e-11 -2.24642e-09 0)
(1.3613e-10 -2.38407e-09 0)
(1.61049e-10 -2.2561e-09 0)
(-3.51651e-12 -2.27973e-09 0)
(7.78687e-12 -2.38095e-09 0)
(6.17509e-11 -4.00809e-09 0)
(-6.24629e-11 -3.54936e-09 0)
(-1.48814e-10 -2.23533e-09 0)
(-1.35631e-10 -2.68675e-09 0)
(-3.11443e-10 -4.94384e-09 0)
(-2.38307e-10 -5.39605e-09 0)
(-2.00094e-10 -2.25771e-09 0)
(-2.10043e-10 -2.39117e-09 0)
(-2.10804e-10 -2.36113e-09 0)
(-1.25106e-10 -2.36012e-09 0)
(-3.24338e-11 -2.47155e-09 0)
(-6.09777e-11 -2.6999e-09 0)
(-4.42726e-11 -2.4889e-09 0)
(-1.35279e-11 -4.12557e-10 0)
(-2.64198e-10 -3.87412e-09 0)
(-3.64654e-11 -3.13795e-09 0)
(4.01431e-11 -2.02249e-09 0)
(1.18042e-11 -1.28678e-09 0)
(2.13064e-10 -1.99752e-09 0)
(2.21701e-10 -2.21864e-09 0)
(2.12078e-10 -2.45295e-09 0)
(3.17143e-10 -2.3715e-09 0)
(7.34824e-11 -2.62895e-09 0)
(-2.45603e-11 -4.89803e-10 0)
(-1.11509e-10 -1.82307e-09 0)
(-6.15546e-11 -2.35389e-09 0)
(-1.73407e-10 -2.42649e-09 0)
(-9.59941e-12 -2.60006e-09 0)
(-1.08713e-11 -2.34565e-09 0)
(-4.85104e-11 -2.08014e-09 0)
(-1.05654e-10 -5.48878e-09 0)
(-6.93335e-11 -2.40469e-09 0)
(9.4687e-11 -2.33824e-09 0)
(6.9062e-11 -2.2916e-09 0)
(6.38715e-11 -1.85183e-09 0)
(0 0 0)
(-2.74816e-11 -2.34364e-09 0)
(-7.60577e-11 -2.32889e-09 0)
(2.74025e-11 -2.20741e-09 0)
(3.86657e-11 -2.14608e-09 0)
(9.0903e-12 -3.06204e-09 0)
(0 0 0)
(8.27296e-12 -2.16955e-09 0)
(0 0 0)
(-4.58322e-11 -2.31466e-09 0)
(1.06155e-11 -2.42025e-09 0)
(-1.08858e-10 -2.32408e-09 0)
(-3.74895e-11 -2.33733e-09 0)
(3.19334e-11 -2.21527e-09 0)
(0 0 0)
(0 0 0)
(0 0 0)
(0 0 0)
(0 0 0)
(0 0 0)
(0 0 0)
(0 0 0)
(0 0 0)
(0 0 0)
(0 0 0)
(0 0 0)
(0 0 0)
(0 0 0)
(0 0 0)
(-3.90748e-11 -2.23806e-09 0)
(-1.18678e-10 -2.50729e-09 0)
(0 0 0)
(-4.47613e-12 -2.15532e-09 0)
(-8.76667e-11 -5.76477e-09 0)
(1.40551e-10 -2.13711e-09 0)
(2.27124e-10 -2.36523e-09 0)
(1.64797e-10 -2.39905e-09 0)
(1.33893e-10 -2.35456e-09 0)
(6.83946e-12 -7.2615e-10 0)
(8.93083e-12 -9.27593e-10 0)
(4.33872e-11 -2.32769e-09 0)
(-2.27855e-11 -2.49061e-09 0)
(-5.31231e-11 -4.10878e-09 0)
(-2.63859e-10 -3.81356e-09 0)
(-2.28888e-10 -2.27834e-09 0)
(-3.39469e-10 -2.34955e-09 0)
(-3.29799e-10 -5.8319e-09 0)
(-8.32445e-11 -2.2059e-09 0)
(-2.34344e-10 -2.2571e-09 0)
(-9.20873e-11 -2.3103e-09 0)
(-3.96152e-12 -2.435e-09 0)
(1.54994e-10 -2.66406e-09 0)
(-1.27218e-10 -2.53131e-09 0)
(-1.56283e-10 -2.4611e-09 0)
(0 0 0)
(-2.90795e-11 -2.21897e-09 0)
(-1.10487e-11 -2.64469e-09 0)
(-1.09379e-11 -2.23851e-09 0)
(5.14733e-11 -2.07723e-09 0)
(1.45212e-10 -2.32373e-09 0)
(6.46739e-11 -2.19706e-09 0)
(8.26088e-11 -2.3368e-09 0)
(-5.94306e-11 -2.81107e-09 0)
(0 0 0)
(-4.35125e-11 -2.48069e-09 0)
(-1.1366e-10 -2.37431e-09 0)
(-2.03818e-10 -2.36525e-09 0)
(-1.48666e-10 -2.50504e-09 0)
(-2.13882e-11 -2.33952e-09 0)
(-3.45214e-11 -2.32316e-09 0)
(-2.10893e-11 -2.3764e-09 0)
(2.40029e-11 -2.42021e-09 0)
(8.3567e-11 -2.82931e-09 0)
(1.84946e-10 -3.9634e-09 0)
(1.21655e-11 -2.49518e-09 0)
(-1.08219e-10 -2.27619e-09 0)
(0 0 0)
(-1.34972e-10 -2.08948e-09 0)
(1.59708e-10 -5.16657e-09 0)
(1.1705e-10 -2.3833e-09 0)
(6.33929e-11 -2.93126e-09 0)
(0 0 0)
(6.94231e-11 -2.37586e-09 0)
(8.35293e-11 -3.41986e-09 0)
(1.32306e-12 -4.35298e-09 0)
(-4.06755e-11 -1.31764e-09 0)
(-4.37407e-11 -1.67518e-09 0)
(3.7517e-12 -1.79391e-09 0)
(2.03035e-11 -9.37588e-10 0)
(0 0 0)
(0 0 0)
(0 0 0)
(0 0 0)
(0 0 0)
(0 0 0)
(0 0 0)
(0 0 0)
(0 0 0)
(0 0 0)
(0 0 0)
(0 0 0)
(0 0 0)
(0 0 0)
(0 0 0)
(-8.68667e-11 -2.20598e-09 0)
(-2.69785e-11 -2.43732e-09 0)
(6.11931e-11 -2.54779e-09 0)
(1.34276e-10 -2.39275e-09 0)
(0 0 0)
(3.07648e-11 -2.47278e-09 0)
(3.65179e-11 -2.26043e-09 0)
(0 0 0)
(2.27594e-10 -2.12848e-09 0)
(1.54513e-10 -2.17272e-09 0)
(1.60622e-10 -2.17778e-09 0)
(8.29857e-11 -2.09483e-09 0)
(0 0 0)
(0 0 0)
(0 0 0)
(0 0 0)
(0 0 0)
(0 0 0)
(7.77714e-11 -2.42858e-09 0)
(-9.43486e-11 -2.41218e-09 0)
(-5.61542e-11 -2.43817e-09 0)
(-5.63908e-11 -1.19328e-09 0)
(-3.51328e-11 -3.87385e-09 0)
(-8.1954e-11 -2.63536e-09 0)
(0 0 0)
(-9.34855e-12 -2.24444e-09 0)
(6.30602e-11 -2.21195e-09 0)
(1.14596e-10 -2.37685e-09 0)
(1.4534e-10 -3.45933e-09 0)
(1.94467e-10 -3.35355e-09 0)
(7.49205e-11 -5.39381e-09 0)
(6.56318e-11 -2.0598e-09 0)
(1.31543e-10 -2.17135e-09 0)
(6.41712e-12 -3.00095e-09 0)
(0 0 0)
(2.81346e-11 -2.50455e-09 0)
(-1.06491e-10 -2.32937e-09 0)
(-1.2953e-10 -2.15059e-09 0)
(-1.06354e-10 -2.20856e-09 0)
(-2.73325e-11 -2.56965e-09 0)
(-3.09098e-11 -2.34646e-09 0)
(-7.51203e-12 -2.38055e-09 0)
(4.9331e-11 -2.39621e-09 0)
(9.66147e-11 -3.94826e-09 0)
(4.32767e-11 -3.74528e-09 0)
(-7.28266e-12 -2.06615e-09 0)
(-8.48236e-12 -2.16119e-09 0)
(0 0 0)
(3.51382e-11 -2.27696e-09 0)
(0 0 0)
(1.60032e-11 -2.57556e-09 0)
(-1.58614e-12 -2.18848e-09 0)
(3.43831e-10 -5.76069e-09 0)
(-1.14405e-11 -2.47225e-09 0)
(-2.17303e-11 -2.07897e-09 0)
(-6.40097e-11 -3.41244e-09 0)
(1.28772e-10 -4.35434e-09 0)
(4.24668e-11 -8.45701e-10 0)
(3.7176e-11 -6.54071e-10 0)
(0 0 0)
(0 0 0)
(0 0 0)
(0 0 0)
(0 0 0)
(0 0 0)
(0 0 0)
(0 0 0)
(0 0 0)
(0 0 0)
(0 0 0)
(0 0 0)
(0 0 0)
(0 0 0)
(0 0 0)
(0 0 0)
(-4.78498e-11 -1.93864e-09 0)
(-1.89348e-12 -2.08602e-09 0)
(5.58109e-11 -2.31986e-09 0)
(-1.98251e-11 -3.7056e-09 0)
(1.03562e-11 -4.22515e-09 0)
(5.15258e-11 -2.25103e-09 0)
(1.3489e-10 -2.45028e-09 0)
(1.63778e-11 -3.20675e-10 0)
(2.0752e-10 -2.99362e-09 0)
(1.40467e-10 -1.86689e-09 0)
(8.1407e-11 -1.05748e-09 0)
(-1.04058e-12 -2.31791e-09 0)
(2.21824e-10 -4.21454e-09 0)
(-2.84882e-11 -3.72056e-09 0)
(-7.099e-11 -2.75873e-09 0)
(0 0 0)
(-1.66349e-10 -2.47396e-09 0)
(-2.57057e-11 -2.37958e-09 0)
(2.09353e-12 -2.00925e-10 0)
(1.11923e-11 -1.95411e-09 0)
(-1.93057e-10 -2.15544e-09 0)
(-1.09479e-10 -2.78016e-09 0)
(-7.62501e-11 -2.67953e-09 0)
(0 0 0)
(1.89924e-10 -2.42253e-09 0)
(1.42558e-10 -2.28222e-09 0)
(1.22586e-10 -2.41763e-09 0)
(9.47715e-11 -5.08818e-09 0)
(5.85886e-11 -3.04634e-09 0)
(-6.23697e-11 -3.58242e-09 0)
(6.05251e-11 -1.9369e-09 0)
(9.99335e-11 -2.1879e-09 0)
(1.33044e-10 -2.21108e-09 0)
(4.86647e-11 -2.31989e-09 0)
(1.08767e-10 -2.61179e-09 0)
(-1.22789e-10 -2.44768e-09 0)
(-7.03908e-11 -3.16146e-09 0)
(-7.034e-11 -3.1054e-09 0)
(-1.10339e-11 -5.66942e-10 0)
(2.39756e-11 -2.48003e-09 0)
(2.18625e-11 -2.40189e-09 0)
(3.19746e-11 -2.3223e-09 0)
(5.4783e-11 -2.38702e-09 0)
(6.23171e-11 -2.55729e-09 0)
(3.5672e-12 -2.42428e-09 0)
(8.14393e-11 -2.06678e-09 0)
(1.16507e-10 -2.07708e-09 0)
(1.15792e-10 -2.04429e-09 0)
(1.04322e-10 -2.00483e-09 0)
(1.07635e-10 -2.03351e-09 0)
(3.2429e-11 -2.21915e-09 0)
(0 0 0)
(0 0 0)
(3.28341e-11 -2.84511e-09 0)
(5.48967e-11 -2.57359e-09 0)
(3.88222e-11 -2.20189e-09 0)
(-1.19762e-12 -2.14679e-09 0)
(0 0 0)
(0 0 0)
(0 0 0)
(0 0 0)
(0 0 0)
(0 0 0)
(0 0 0)
(0 0 0)
(0 0 0)
(0 0 0)
(0 0 0)
(0 0 0)
(0 0 0)
(0 0 0)
(0 0 0)
(0 0 0)
(0 0 0)
(0 0 0)
(1.81048e-12 -1.99221e-09 0)
(2.80685e-11 -2.24307e-09 0)
(-1.35395e-10 -2.72582e-09 0)
(-1.57939e-11 -3.23248e-10 0)
(-2.44354e-10 -5.32247e-09 0)
(4.69847e-11 -2.11421e-09 0)
(6.51796e-11 -2.16685e-09 0)
(2.2047e-10 -2.25564e-09 0)
(2.44372e-10 -2.19672e-09 0)
(1.32698e-10 -2.37017e-09 0)
(-5.17856e-12 -2.79742e-09 0)
(0 0 0)
(-4.86998e-11 -5.6003e-09 0)
(2.56481e-11 -2.6293e-09 0)
(0 0 0)
(3.00773e-10 -5.84439e-09 0)
(1.4954e-10 -3.67707e-09 0)
(3.61955e-11 -2.93696e-09 0)
(-1.83463e-11 -2.08667e-09 0)
(-1.54016e-10 -2.24846e-09 0)
(-2.67893e-10 -2.28107e-09 0)
(-5.0957e-11 -2.52961e-09 0)
(-1.67981e-10 -2.58117e-09 0)
(-1.71737e-11 -2.75497e-09 0)
(1.32701e-10 -5.19794e-09 0)
(1.82456e-10 -2.10061e-09 0)
(0 0 0)
(-1.97233e-11 -2.15158e-09 0)
(2.2769e-10 -2.39487e-09 0)
(9.9995e-11 -2.12003e-09 0)
(-1.06953e-10 -2.17022e-09 0)
(-4.07932e-11 -3.51254e-09 0)
(3.9573e-11 -4.17393e-09 0)
(2.16701e-11 -2.74724e-09 0)
(8.20078e-11 -2.54805e-09 0)
(2.23099e-12 -2.17285e-09 0)
(-3.61561e-11 -2.09881e-09 0)
(1.13104e-11 -2.06572e-09 0)
(-4.18417e-11 -2.05634e-09 0)
(-1.07399e-11 -2.50244e-09 0)
(-2.29761e-11 -2.37295e-09 0)
(-1.55013e-11 -1.03579e-09 0)
(-4.14832e-11 -2.10662e-09 0)
(4.94331e-11 -4.21636e-09 0)
(1.51746e-11 -2.30691e-09 0)
(1.16655e-10 -2.08512e-09 0)
(1.06873e-10 -2.05887e-09 0)
(1.06949e-10 -1.95497e-09 0)
(1.11835e-10 -2.17276e-09 0)
(1.7327e-10 -5.73069e-09 0)
(9.05064e-11 -2.20643e-09 0)
(1.48433e-10 -2.23267e-09 0)
(-6.89323e-11 -5.35474e-09 0)
(-9.49767e-11 -2.28328e-09 0)
(-2.21914e-11 -2.19127e-09 0)
(8.22562e-11 -2.42185e-09 0)
(0 0 0)
(0 0 0)
(0 0 0)
(0 0 0)
(0 0 0)
(0 0 0)
(0 0 0)
(0 0 0)
(0 0 0)
(0 0 0)
(0 0 0)
(0 0 0)
(0 0 0)
(0 0 0)
(0 0 0)
(0 0 0)
(0 0 0)
(0 0 0)
(0 0 0)
(-5.19674e-11 -2.05383e-09 0)
(-1.69182e-11 -2.6552e-09 0)
(-1.03722e-10 -2.85248e-09 0)
(0 0 0)
(-1.39519e-10 -2.46293e-09 0)
(-9.75618e-12 -2.37334e-09 0)
(9.44638e-11 -2.23939e-09 0)
(1.83241e-10 -2.21327e-09 0)
(1.55463e-10 -3.62181e-09 0)
(1.19983e-10 -3.5914e-09 0)
(4.96473e-11 -2.53609e-09 0)
(0 0 0)
(-6.45526e-11 -2.23988e-09 0)
(-1.30962e-10 -5.98472e-09 0)
(1.29897e-10 -4.58784e-09 0)
(1.17639e-13 -7.83498e-12 0)
(3.42954e-10 -2.06198e-09 0)
(1.97533e-10 -2.30655e-09 0)
(-5.64193e-11 -2.26963e-09 0)
(-2.13046e-11 -2.31791e-09 0)
(-1.40596e-10 -2.28569e-09 0)
(-2.82098e-10 -5.71158e-09 0)
(-1.1865e-10 -2.16315e-09 0)
(-8.49896e-11 -2.19072e-09 0)
(-7.06758e-11 -2.65182e-09 0)
(7.43279e-11 -2.31872e-09 0)
(0 0 0)
(9.7466e-11 -2.58921e-09 0)
(-7.93115e-11 -2.20943e-09 0)
(-2.89438e-12 -2.66281e-09 0)
(0 0 0)
(-7.98872e-11 -2.20811e-09 0)
(-1.62029e-10 -2.38251e-09 0)
(-2.61112e-10 -5.75778e-09 0)
(-1.08834e-10 -2.18869e-09 0)
(6.91989e-11 -5.52681e-09 0)
(-8.61797e-12 -2.12762e-09 0)
(6.27771e-11 -2.15455e-09 0)
(1.16404e-11 -2.18241e-09 0)
(-3.04141e-11 -2.29293e-09 0)
(9.25649e-12 -8.91908e-10 0)
(-4.96135e-11 -3.90764e-09 0)
(3.29579e-12 -6.48293e-10 0)
(3.42376e-12 -1.34563e-09 0)
(2.32542e-10 -4.04344e-09 0)
(1.57095e-10 -3.33824e-09 0)
(1.52429e-10 -2.13112e-09 0)
(4.51711e-11 -2.20887e-09 0)
(4.0938e-11 -4.87532e-09 0)
(-1.17288e-11 -2.031e-09 0)
(-9.40805e-12 -2.15342e-09 0)
(-3.3825e-10 -5.48391e-09 0)
(1.34345e-11 -2.18461e-09 0)
(-3.61117e-11 -2.0913e-09 0)
(-1.36538e-10 -2.40362e-09 0)
(2.15517e-11 -2.4425e-09 0)
(0 0 0)
(0 0 0)
(0 0 0)
(0 0 0)
(0 0 0)
(0 0 0)
(0 0 0)
(0 0 0)
(0 0 0)
(0 0 0)
(0 0 0)
(0 0 0)
(0 0 0)
(0 0 0)
(0 0 0)
(0 0 0)
(0 0 0)
(0 0 0)
(0 0 0)
(1.37618e-10 -2.39309e-09 0)
(-1.16352e-10 -2.58423e-09 0)
(-7.556e-11 -2.62993e-09 0)
(-3.30031e-11 -2.72257e-09 0)
(-2.35703e-11 -2.48355e-09 0)
(2.97519e-11 -2.31525e-09 0)
(1.62593e-10 -2.32767e-09 0)
(1.06408e-10 -2.24361e-09 0)
(2.18589e-10 -5.15761e-09 0)
(-6.72877e-11 -2.17545e-09 0)
(8.29496e-11 -2.5945e-09 0)
(7.40286e-12 -2.36329e-09 0)
(-8.62575e-13 -5.86554e-11 0)
(-4.98316e-11 -2.29954e-09 0)
(-7.14754e-11 -2.50451e-09 0)
(5.07085e-11 -2.48781e-09 0)
(6.15812e-11 -2.19059e-09 0)
(6.85773e-12 -2.66801e-09 0)
(-1.52006e-11 -8.51844e-10 0)
(-1.0393e-10 -3.84884e-09 0)
(-1.84602e-10 -2.17832e-09 0)
(-2.38607e-10 -2.58171e-09 0)
(-3.43411e-11 -2.40372e-09 0)
(-9.83008e-11 -2.23384e-09 0)
(1.47679e-14 -2.26341e-09 0)
(4.04364e-11 -2.34662e-09 0)
(0 0 0)
(1.2678e-11 -2.26059e-09 0)
(1.28334e-10 -2.52162e-09 0)
(-4.12508e-12 -3.60233e-10 0)
(-1.68895e-11 -1.8271e-09 0)
(-4.52095e-11 -3.99038e-09 0)
(-1.22409e-10 -3.64042e-09 0)
(-1.86439e-10 -2.27398e-09 0)
(-1.59171e-10 -2.37726e-09 0)
(-1.72645e-10 -5.89958e-09 0)
(6.00926e-11 -1.04997e-09 0)
(9.61709e-11 -3.16884e-09 0)
(4.86826e-13 -2.37787e-10 0)
(-4.11227e-12 -1.83198e-09 0)
(-2.88497e-11 -2.16997e-09 0)
(-7.88583e-12 -2.3245e-09 0)
(5.44001e-12 -2.37489e-09 0)
(1.31574e-10 -2.50492e-09 0)
(1.49353e-10 -2.50844e-09 0)
(1.34759e-11 -2.21425e-09 0)