/*--------------------------------*- C++ -*----------------------------------*\
  =========                 |
  \\      /  F ield         | OpenFOAM: The Open Source CFD Toolbox
   \\    /   O peration     | Website:  https://openfoam.org
    \\  /    A nd           | Version:  12
     \\/     M anipulation  |
\*---------------------------------------------------------------------------*/
FoamFile
{
    format      ascii;
    class       volScalarField;
    location    "0.35";
    object      p;
}
// * * * * * * * * * * * * * * * * * * * * * * * * * * * * * * * * * * * * * //

dimensions      [0 2 -2 0 0 0 0];

internalField   nonuniform List<scalar> 
3750
(
0.744872
0.729493
0.717807
0.708544
0.698647
0.690378
0.68062
0.669868
0.658013
0.644483
0.640163
0.636427
0.624152
0.612997
0.600887
0.586731
0.574453
0.562288
0.55296
0.542844
0.540292
0.531291
0.520137
0.509253
0.498444
0.486564
0.479201
0.469817
0.460854
0.452245
0.443599
0.434334
0.423456
0.406267
0.401314
0.396297
0.38408
0.369454
0.361043
0.354588
0.347385
0.333455
0.324155
0.314429
0.306961
0.297791
0.287855
0.277691
0.268294
0.253796
0.24664
0.239421
0.224659
0.213914
0.203918
0.19409
0.184574
0.174324
0.162251
0.151693
0.142311
0.133092
0.124016
0.115334
0.100733
0.0919468
0.0825915
0.0729933
0.0632688
0.0535037
0.0437264
0.033967
0.0242137
0.0144098
0.00473251
0.745647
0.730172
0.718154
0.707511
0.698598
0.692157
0.681454
0.671075
0.6592
0.646868
0.63998
0.632805
0.623249
0.613485
0.598109
0.586306
0.574335
0.563561
0.555106
0.54549
0.5382
0.531149
0.520241
0.509567
0.49951
0.483516
0.477255
0.468972
0.46293
0.453211
0.444573
0.435821
0.423819
0.411021
0.401528
0.392943
0.386272
0.371817
0.360576
0.351865
0.344974
0.336902
0.327344
0.313614
0.308243
0.2979
0.287867
0.276959
0.265909
0.253934
0.246704
0.239501
0.228372
0.213286
0.203771
0.193602
0.183882
0.17419
0.161754
0.152153
0.14258
0.133105
0.12351
0.113634
0.102467
0.092549
0.0828285
0.0730941
0.0633192
0.0535132
0.0437137
0.0339605
0.0241999
0.0143724
0.00470659
0.74682
0.734112
0.720176
0.703037
0.699059
0.695594
0.682353
0.673448
0.658942
0.647689
0.639108
0.630922
0.622877
0.610197
0.596447
0.58852
0.57459
0.563505
0.559638
0.545846
0.536281
0.532962
0.519934
0.509339
0.498464
0.486483
0.47704
0.466882
0.461628
0.453664
0.445625
0.439518
0.424362
0.413171
0.401107
0.393382
0.386163
0.372106
0.36144
0.347527
0.342796
0.337991
0.326685
0.315183
0.306736
0.296992
0.28794
0.276573
0.264919
0.251767
0.24693
0.242193
0.229372
0.214288
0.204257
0.192985
0.18304
0.173213
0.162538
0.152622
0.142823
0.133041
0.123254
0.113257
0.102941
0.092918
0.0830493
0.0732252
0.0634065
0.0535811
0.0437725
0.0339962
0.0242115
0.0143589
0.00466453
0.74548
0.737238
0.720642
0.703888
0.699219
0.694891
0.682351
0.672557
0.6608
0.648896
0.637627
0.628734
0.619076
0.607902
0.597326
0.592875
0.576845
0.562697
0.56161
0.546576
0.537487
0.528817
0.523881
0.509571
0.49865
0.488187
0.478258
0.468603
0.461458
0.453382
0.444936
0.434722
0.421951
0.415705
0.404306
0.394835
0.386688
0.371641
0.359083
0.351108
0.340824
0.334852
0.325291
0.315364
0.30569
0.295138
0.287482
0.276422
0.264969
0.253974
0.246968
0.239819
0.228259
0.217916
0.20438
0.192294
0.182132
0.172983
0.163
0.15298
0.143029
0.133112
0.123199
0.113204
0.103127
0.0931329
0.0832215
0.0733534
0.0635042
0.0536637
0.0438462
0.0340488
0.0242312
0.0143509
0.00464455
0.745826
0.735314
0.722826
0.706411
0.698958
0.69102
0.681277
0.67033
0.658225
0.650243
0.641239
0.627461
0.617
0.60558
0.600124
0.590202
0.577928
0.566021
0.560213
0.549516
0.539743
0.529917
0.519724
0.513581
0.498405
0.489465
0.479701
0.469247
0.462425
0.453159
0.444321
0.432016
0.42243
0.414125
0.404502
0.394768
0.385068
0.37062
0.360227
0.351192
0.342348
0.333551
0.324183
0.314949
0.305933
0.291191
0.287137
0.276017
0.265351
0.255701
0.246721
0.237932
0.227081
0.217055
0.20681
0.191794
0.180511
0.17355
0.163528
0.153313
0.143217
0.133206
0.123232
0.113235
0.103227
0.0932631
0.083342
0.0734568
0.063588
0.0537363
0.0439044
0.0340859
0.0242453
0.014345
0.00463502
0.741906
0.733564
0.721183
0.708637
0.699335
0.690834
0.678699
0.6686
0.656594
0.65212
0.640543
0.629448
0.616914
0.607344
0.598766
0.589339
0.578963
0.565717
0.561511
0.55143
0.542221
0.533006
0.519863
0.508807
0.499056
0.491682
0.482289
0.467074
0.463247
0.453263
0.443251
0.431328
0.421997
0.412187
0.404825
0.394527
0.384912
0.36912
0.359589
0.350811
0.344039
0.333236
0.322664
0.314804
0.304433
0.293248
0.284865
0.274679
0.264618
0.256665
0.246094
0.237136
0.226105
0.21608
0.205546
0.193503
0.180761
0.175757
0.16418
0.153539
0.143324
0.133264
0.123262
0.113275
0.103295
0.0933435
0.0834222
0.0735338
0.0636574
0.0537963
0.0439497
0.0341142
0.0242551
0.0143415
0.00463054
0.737107
0.735332
0.719715
0.709033
0.699122
0.688765
0.677946
0.669362
0.660326
0.65099
0.639518
0.629151
0.618011
0.608976
0.598061
0.589509
0.579587
0.567464
0.56023
0.552076
0.544667
0.531832
0.520596
0.50986
0.498105
0.494141
0.4821
0.470708
0.461446
0.457182
0.442552
0.4294
0.422129
0.408686
0.406215
0.393659
0.382946
0.371644
0.358749
0.349429
0.34604
0.3328
0.320459
0.316542
0.304393
0.293627
0.283576
0.273157
0.262019
0.25752
0.244728
0.234622
0.227372
0.215672
0.205262
0.194637
0.184307
0.174972
0.163614
0.153364
0.143285
0.133268
0.12328
0.113305
0.103344
0.093402
0.0834882
0.0735956
0.0637116
0.0538416
0.0439841
0.0341368
0.0242629
0.0143389
0.00462811
0.734489
0.732922
0.720755
0.709846
0.699453
0.687795
0.675008
0.670763
0.664114
0.650734
0.638391
0.629043
0.617958
0.607708
0.599205
0.59087
0.581139
0.566288
0.559228
0.552127
0.544305
0.533577
0.524653
0.510792
0.499207
0.492292
0.48174
0.472964
0.463518
0.455396
0.440187
0.42961
0.420784
0.411091
0.404578
0.391747
0.38161
0.370297
0.361911
0.351977
0.344597
0.332026
0.321625
0.317663
0.302878
0.293205
0.283205
0.272415
0.261072
0.254888
0.244652
0.229933
0.225934
0.220702
0.205138
0.1956
0.186721
0.175246
0.162309
0.153016
0.143195
0.133245
0.123281
0.113325
0.103381
0.0934487
0.0835393
0.0736423
0.0637527
0.0538746
0.0440115
0.0341557
0.0242706
0.014339
0.0046283
0.732396
0.730922
0.720342
0.710236
0.701146
0.687848
0.67407
0.673471
0.661826
0.650296
0.638632
0.629834
0.617323
0.605203
0.600365
0.592424
0.57868
0.565566
0.559362
0.553087
0.540349
0.537711
0.527518
0.51201
0.501375
0.491784
0.479884
0.475018
0.464092
0.454164
0.441307
0.428462
0.4204
0.411814
0.40211
0.389851
0.381364
0.368915
0.36378
0.352909
0.340751
0.33592
0.320539
0.319249
0.303124
0.293326
0.283141
0.27167
0.257797
0.253691
0.242246
0.23133
0.225851
0.218179
0.206868
0.196608
0.187047
0.176165
0.162595
0.153124
0.143209
0.13324
0.12328
0.113334
0.1034
0.0934789
0.0835729
0.0736762
0.0637844
0.0539008
0.0440306
0.0341684
0.0242783
0.0143387
0.00462666
0.735978
0.728551
0.719462
0.709583
0.699588
0.688639
0.677157
0.674415
0.660733
0.649339
0.637148
0.631821
0.616901
0.60511
0.596213
0.591005
0.579669
0.564276
0.559567
0.552264
0.542926
0.536975
0.530296
0.512079
0.507064
0.493627
0.481116
0.473035
0.462787
0.453043
0.439662
0.42969
0.420662
0.412422
0.402502
0.387506
0.383657
0.369826
0.359325
0.355083
0.342534
0.333249
0.322625
0.318174
0.304943
0.293733
0.282485
0.270751
0.258161
0.250531
0.24016
0.229865
0.227439
0.217337
0.207164
0.197007
0.187094
0.176323
0.164107
0.153389
0.143228
0.133222
0.123268
0.113334
0.103407
0.0934951
0.0835966
0.0737008
0.0638075
0.0539205
0.0440456
0.0341793
0.0242854
0.0143397
0.00462831
0.737143
0.726784
0.71916
0.709096
0.698734
0.690571
0.680574
0.672329
0.661073
0.649425
0.638509
0.631418
0.616666
0.604802
0.596505
0.586759
0.576545
0.569887
0.562015
0.553093
0.542905
0.534839
0.526528
0.515641
0.509133
0.494706
0.483609
0.471499
0.460957
0.450783
0.439539
0.429813
0.419955
0.411306
0.404414
0.39043
0.383131
0.372134
0.35874
0.355399
0.343641
0.332059
0.327214
0.315686
0.304425
0.293239
0.279651
0.270602
0.259318
0.249779
0.238965
0.22897
0.226966
0.216944
0.207393
0.196538
0.188001
0.176927
0.164799
0.153192
0.143062
0.133142
0.123237
0.113329
0.103416
0.0935121
0.0836162
0.0737169
0.0638219
0.0539332
0.0440554
0.0341855
0.0242889
0.01434
0.00462661
0.737958
0.724942
0.720399
0.70894
0.697365
0.692994
0.682149
0.672406
0.662667
0.650356
0.636914
0.628525
0.619115
0.605361
0.592892
0.589453
0.579351
0.569309
0.564487
0.553958
0.541578
0.533011
0.523095
0.515598
0.507846
0.496046
0.484203
0.469864
0.464067
0.449482
0.438843
0.430176
0.418929
0.408718
0.406071
0.394196
0.383945
0.373052
0.36185
0.354121
0.344203
0.333975
0.326449
0.316912
0.302828
0.291341
0.277067
0.271169
0.259552
0.249272
0.238348
0.229013
0.225228
0.216261
0.209516
0.195086
0.190998
0.178595
0.164796
0.151557
0.142643
0.133039
0.123213
0.113324
0.103422
0.0935234
0.0836246
0.0737241
0.0638302
0.0539419
0.0440633
0.034192
0.0242926
0.0143412
0.00462755
0.738519
0.726745
0.718491
0.709024
0.698166
0.692419
0.681767
0.673457
0.662047
0.649216
0.6367
0.627072
0.616987
0.605084
0.596953
0.591049
0.5815
0.571651
0.563508
0.552198
0.540904
0.532096
0.518861
0.515451
0.509253
0.496533
0.48438
0.4712
0.464766
0.448047
0.436512
0.43145
0.417846
0.408561
0.406401
0.396141
0.385775
0.374423
0.36323
0.354015
0.344489
0.334526
0.324907
0.315434
0.29962
0.294114
0.27955
0.268709
0.25873
0.247636
0.236781
0.231685
0.219193
0.213878
0.209718
0.199754
0.186012
0.181027
0.164037
0.153065
0.143074
0.133166
0.123252
0.113334
0.103425
0.0935234
0.083624
0.0737259
0.0638309
0.0539434
0.0440651
0.0341938
0.024292
0.0143402
0.00462594
0.738696
0.727322
0.717244
0.711236
0.695995
0.693745
0.68049
0.676504
0.661771
0.647882
0.633741
0.626595
0.616891
0.602751
0.599345
0.593812
0.583908
0.572608
0.564241
0.549875
0.53969
0.528223
0.522055
0.517626
0.506384
0.496583
0.484894
0.468754
0.464938
0.448883
0.437223
0.429526
0.41752
0.409693
0.404824
0.397873
0.388634
0.37564
0.362708
0.354152
0.344926
0.334006
0.323361
0.312153
0.302677
0.29313
0.280741
0.268813
0.258576
0.247617
0.239328
0.230397
0.219494
0.210433
0.2063
0.199843
0.18694
0.177214
0.164923
0.153819
0.143417
0.1333
0.123297
0.113348
0.103425
0.0935176
0.0836177
0.0737221
0.0638283
0.0539416
0.0440646
0.034194
0.024293
0.0143413
0.00462662
0.73873
0.72605
0.715994
0.714244
0.697121
0.693913
0.681854
0.672698
0.660251
0.646857
0.632874
0.628476
0.61459
0.605818
0.602775
0.592362
0.587276
0.571244
0.562243
0.550837
0.540348
0.530187
0.523909
0.517187
0.501925
0.496568
0.482195
0.470303
0.46135
0.449107
0.439627
0.430404
0.414177
0.408849
0.404743
0.399751
0.388048
0.376665
0.365335
0.355012
0.345796
0.333991
0.323192
0.308397
0.304481
0.291281
0.28123
0.269129
0.259403
0.246979
0.241959
0.229378
0.221376
0.211183
0.204449
0.196559
0.185766
0.175457
0.164537
0.153856
0.143498
0.133349
0.123317
0.113349
0.103416
0.0935057
0.0836074
0.0737128
0.0638213
0.0539356
0.0440601
0.0341905
0.0242883
0.0143389
0.00462479
0.738727
0.724592
0.718889
0.715174
0.701479
0.692682
0.682458
0.671659
0.66057
0.642365
0.635032
0.630237
0.617527
0.606005
0.603367
0.592758
0.58265
0.570985
0.562309
0.550208
0.540892
0.530143
0.525845
0.515224
0.503642
0.494642
0.48147
0.470036
0.460438
0.447253
0.441415
0.430355
0.417837
0.408113
0.405375
0.395835
0.390351
0.376885
0.367229
0.355649
0.345855
0.329901
0.325848
0.310292
0.303795
0.287602
0.281994
0.270392
0.262424
0.24944
0.240827
0.228718
0.224255
0.211026
0.20433
0.194347
0.184483
0.174286
0.163912
0.153575
0.143369
0.133282
0.123276
0.113319
0.103393
0.0934849
0.0835878
0.0736965
0.0638094
0.0539269
0.0440537
0.034186
0.0242854
0.0143383
0.00462509
0.739265
0.728457
0.721104
0.715357
0.701525
0.692029
0.682606
0.67094
0.659021
0.644688
0.636696
0.629314
0.620318
0.607515
0.602534
0.591811
0.579344
0.569253
0.565319
0.54779
0.542098
0.532318
0.525037
0.514876
0.503987
0.493704
0.479659
0.467886
0.458951
0.449953
0.439265
0.432057
0.41942
0.409619
0.404137
0.395486
0.391185
0.374069
0.369683
0.354486
0.343048
0.331679
0.323148
0.311162
0.302928
0.29067
0.280641
0.26999
0.265063
0.252646
0.239776
0.230759
0.223445
0.208703
0.206762
0.192232
0.183092
0.173304
0.163247
0.153162
0.143122
0.133131
0.123179
0.113254
0.103346
0.0934504
0.0835614
0.0736757
0.0637925
0.0539142
0.0440442
0.0341788
0.02428
0.0143358
0.00462339
0.740558
0.730834
0.722135
0.714234
0.703879
0.692528
0.68485
0.670505
0.657386
0.64653
0.636352
0.629353
0.619184
0.609544
0.600088
0.590675
0.581057
0.570633
0.563422
0.551091
0.538533
0.532678
0.525794
0.515028
0.503117
0.49178
0.479685
0.464644
0.45786
0.449537
0.440143
0.431578
0.421003
0.412139
0.405069
0.398756
0.387201
0.374246
0.365924
0.355331
0.341874
0.33147
0.323464
0.308587
0.303484
0.292545
0.279917
0.271876
0.263335
0.252775
0.243309
0.23093
0.220177
0.210572
0.204935
0.192793
0.182589
0.17259
0.162619
0.152704
0.142825
0.132944
0.123056
0.113167
0.103284
0.093405
0.0835273
0.0736504
0.0637734
0.0538992
0.0440326
0.0341706
0.0242751
0.014334
0.00462374
0.739767
0.725511
0.721881
0.715403
0.708744
0.693969
0.685797
0.671556
0.65784
0.648764
0.633586
0.630071
0.618725
0.610315
0.598638
0.590113
0.58398
0.570753
0.562309
0.55092
0.53659
0.533679
0.528885
0.516468
0.502225
0.48736
0.481521
0.466403
0.458177
0.449659
0.440214
0.431194
0.421545
0.413297
0.405486
0.397404
0.384486
0.371963
0.364878
0.354892
0.34001
0.329383
0.322921
0.312921
0.299391
0.294241
0.279984
0.274068
0.261733
0.252104
0.242196
0.231915
0.221538
0.210322
0.20538
0.192088
0.181947
0.171759
0.161858
0.152227
0.142535
0.132758
0.122935
0.113087
0.103225
0.09336
0.0834946
0.0736254
0.0637522
0.0538816
0.0440189
0.0341598
0.0242677
0.01433
0.00462246
0.739712
0.727524
0.723326
0.716588
0.707494
0.694065
0.684768
0.674119
0.65941
0.649357
0.635258
0.627112
0.619755
0.609213
0.598381
0.588152
0.584208
0.572563
0.563948
0.551772
0.538103
0.5354
0.522068
0.517608
0.50226
0.490526
0.481139
0.468156
0.459189
0.450582
0.440101
0.428759
0.423671
0.413516
0.404902
0.394692
0.381788
0.370521
0.365094
0.351461
0.339601
0.329132
0.324643
0.313497
0.30151
0.292391
0.28155
0.272632
0.262011
0.25163
0.241498
0.232885
0.224603
0.211785
0.203302
0.192506
0.181754
0.170646
0.16092
0.151803
0.14233
0.132626
0.122834
0.11301
0.103165
0.0933126
0.0834568
0.0735956
0.0637285
0.0538634
0.0440048
0.0341492
0.0242616
0.0143267
0.00462248
0.740337
0.730488
0.721902
0.717439
0.70511
0.694543
0.684942
0.675729
0.660834
0.647724
0.636224
0.626201
0.621475
0.608674
0.599122
0.589781
0.582162
0.572075
0.567968
0.553378
0.540337
0.530435
0.522111
0.515506
0.501971
0.492885
0.480988
0.467987
0.459746
0.4521
0.441104
0.429974
0.422161
0.412093
0.402269
0.393002
0.379361
0.374976
0.361133
0.349831
0.337998
0.332724
0.323634
0.314883
0.302285
0.290221
0.281965
0.27188
0.262118
0.251979
0.240097
0.232797
0.224207
0.213487
0.204776
0.19314
0.181375
0.169306
0.159174
0.151723
0.142342
0.132596
0.122789
0.11296
0.103117
0.0932692
0.0834196
0.0735647
0.063703
0.0538416
0.0439871
0.0341361
0.0242538
0.0143213
0.00462127
0.743328
0.732427
0.723003
0.715028
0.704094
0.694113
0.68469
0.674829
0.664139
0.648964
0.633834
0.629298
0.619136
0.609188
0.599783
0.590693
0.582229
0.57471
0.563882
0.553354
0.540227
0.531335
0.522414
0.513652
0.499921
0.495268
0.481847
0.467872
0.458677
0.452993
0.444385
0.432166
0.419764
0.410206
0.399755
0.391356
0.381269
0.373235
0.360644
0.349885
0.33925
0.331129
0.321478
0.311662
0.30253
0.291685
0.282922
0.272653
0.259667
0.249728
0.24154
0.234249
0.225936
0.211944
0.203077
0.193405
0.183876
0.170039
0.157053
0.153139
0.142629
0.13265
0.122779
0.112928
0.103079
0.0932316
0.0833828
0.0735316
0.0636761
0.0538193
0.04397
0.0341243
0.0242467
0.0143174
0.00462123
0.747603
0.732948
0.723241
0.713542
0.703181
0.692414
0.684976
0.674686
0.663631
0.650797
0.638875
0.628094
0.61825
0.609444
0.600106
0.590993
0.582348
0.574365
0.559424
0.554823
0.543107
0.532286
0.522337
0.512254
0.501148
0.49368
0.483029
0.469243
0.455438
0.451106
0.445543
0.433824
0.419687
0.409151
0.398905
0.391068
0.382685
0.373753
0.360046
0.35043
0.339246
0.329663
0.319883
0.308918
0.303656
0.290468
0.281469
0.272159
0.260237
0.248337
0.242132
0.236235
0.224707
0.212916
0.202785
0.193483
0.184391
0.171291
0.158669
0.151947
0.142489
0.132604
0.122744
0.112891
0.103041
0.0931962
0.0833471
0.0734974
0.0636482
0.0537967
0.0439518
0.0341107
0.0242363
0.0143129
0.00461929
0.746231
0.733846
0.723317
0.71313
0.703327
0.687671
0.685864
0.675123
0.664925
0.651737
0.638785
0.628373
0.617606
0.609363
0.60021
0.590794
0.581966
0.572709
0.561795
0.55358
0.544787
0.532354
0.522599
0.510839
0.502127
0.493607
0.483844
0.47193
0.455487
0.449831
0.443338
0.434284
0.420385
0.407284
0.398022
0.392022
0.383862
0.374617
0.360128
0.351245
0.339257
0.328734
0.31915
0.309736
0.30226
0.287452
0.280104
0.273607
0.261225
0.250883
0.24231
0.234131
0.223821
0.213051
0.201919
0.193827
0.183551
0.172344
0.161264
0.151869
0.142307
0.132537
0.122703
0.112853
0.103004
0.0931586
0.0833166
0.0734707
0.0636224
0.0537762
0.0439357
0.0340987
0.0242287
0.0143092
0.00461899
0.741402
0.73577
0.722325
0.71265
0.701322
0.687427
0.683201
0.675176
0.668447
0.652332
0.640868
0.628859
0.62205
0.610585
0.600319
0.589358
0.582212
0.573026
0.56322
0.552473
0.542296
0.530247
0.52385
0.510744
0.50484
0.493785
0.485185
0.470734
0.457342
0.449362
0.442608
0.43243
0.419094
0.409801
0.395612
0.39348
0.38548
0.375618
0.359815
0.350318
0.339795
0.327613
0.318762
0.310154
0.30225
0.290193
0.277763
0.270634
0.26088
0.252761
0.24228
0.233066
0.22328
0.213538
0.19842
0.194429
0.182511
0.173238
0.162524
0.152341
0.14241
0.132539
0.122674
0.112813
0.102967
0.0931235
0.083281
0.0734394
0.0635968
0.0537548
0.0439189
0.0340853
0.0242198
0.0143048
0.00461774
0.744734
0.734135
0.723069
0.712894
0.701687
0.688757
0.681642
0.673628
0.663229
0.649775
0.643666
0.632094
0.623349
0.610548
0.601248
0.587715
0.583789
0.573771
0.564938
0.550922
0.541906
0.532658
0.522581
0.511918
0.503768
0.49195
0.484201
0.471236
0.458506
0.448405
0.444244
0.429387
0.418986
0.409199
0.398729
0.391563
0.38143
0.378381
0.36099
0.350345
0.339144
0.327092
0.317855
0.310589
0.301556
0.291148
0.27839
0.26976
0.259158
0.25489
0.242154
0.232688
0.222526
0.211657
0.199977
0.193592
0.180453
0.175006
0.163239
0.15261
0.142477
0.132519
0.122628
0.112769
0.102923
0.0930857
0.0832496
0.0734105
0.0635717
0.0537351
0.0439028
0.0340735
0.0242127
0.0143013
0.00461744
0.744254
0.733145
0.723534
0.714204
0.69982
0.689907
0.680782
0.671414
0.660017
0.649804
0.642067
0.632425
0.624659
0.612238
0.602147
0.588919
0.582228
0.573643
0.564339
0.55279
0.541906
0.53522
0.521353
0.51148
0.501963
0.490774
0.480721
0.473425
0.461458
0.450049
0.439798
0.429333
0.419132
0.409456
0.400229
0.392435
0.379907
0.375751
0.363008
0.351065
0.338936
0.325166
0.315919
0.312289
0.301866
0.291266
0.27921
0.270316
0.260147
0.25293
0.242474
0.232847
0.222203
0.211077
0.198996
0.194291
0.182046
0.173028
0.16266
0.152393
0.142353
0.132431
0.12256
0.112713
0.102877
0.0930443
0.0832124
0.0733798
0.0635458
0.0537133
0.0438856
0.034061
0.0242046
0.0142972
0.0046171
0.744904
0.732665
0.723041
0.712707
0.701118
0.690521
0.680214
0.667486
0.657606
0.651997
0.640699
0.630079
0.621555
0.612568
0.604965
0.592632
0.582184
0.573819
0.565485
0.554198
0.545277
0.533865
0.519662
0.510713
0.500641
0.4894
0.482462
0.472324
0.459933
0.454143
0.438158
0.42864
0.418906
0.409443
0.400263
0.390492
0.378847
0.373772
0.363738
0.352127
0.339364
0.327928
0.318624
0.31193
0.30204
0.290743
0.27831
0.272311
0.259674
0.251569
0.242513
0.23276
0.222392
0.211606
0.200486
0.193447
0.183022
0.171794
0.161741
0.151925
0.142111
0.132294
0.12247
0.112647
0.102826
0.0930032
0.0831783
0.0733515
0.0635236
0.0536945
0.0438707
0.0340505
0.0241973
0.0142949
0.00461711
0.743803
0.733425
0.723234
0.712478
0.701379
0.690678
0.674981
0.663304
0.659375
0.650082
0.639063
0.62724
0.619307
0.61151
0.604357
0.597345
0.585105
0.573332
0.567591
0.553968
0.544303
0.533698
0.52153
0.510494
0.499791
0.486504
0.482851
0.472865
0.46171
0.45107
0.438796
0.428377
0.418095
0.409042
0.401116
0.391161
0.380498
0.367809
0.361629
0.351758
0.341844
0.332006
0.320305
0.313191
0.303631
0.289867
0.273112
0.271681
0.261697
0.25137
0.242387
0.231033
0.223201
0.212273
0.202883
0.194572
0.183462
0.170573
0.160732
0.151454
0.14188
0.132163
0.122386
0.112586
0.102779
0.0929652
0.0831457
0.0733246
0.0635016
0.0536762
0.0438561
0.0340397
0.0241907
0.0142914
0.004617
0.744168
0.734279
0.723967
0.71251
0.700987
0.690655
0.674549
0.664792
0.656707
0.648897
0.638567
0.628358
0.617275
0.609722
0.603355
0.596916
0.587773
0.575997
0.566087
0.553945
0.543488
0.535272
0.521854
0.510491
0.497106
0.48738
0.479078
0.474303
0.461663
0.451386
0.437405
0.428067
0.416525
0.408653
0.403662
0.392385
0.377496
0.363783
0.36154
0.350733
0.343581
0.334833
0.321918
0.315778
0.301592
0.289221
0.274626
0.269633
0.26289
0.250337
0.241667
0.229896
0.22575
0.211036
0.204213
0.196152
0.183419
0.171057
0.160099
0.151239
0.14178
0.13209
0.122329
0.11254
0.102739
0.0929297
0.0831154
0.0732992
0.0634801
0.0536596
0.0438434
0.0340309
0.024186
0.0142895
0.00461814
0.746147
0.73513
0.725801
0.712514
0.699177
0.688285
0.677328
0.665676
0.654351
0.649535
0.638603
0.627952
0.617027
0.608314
0.602207
0.597145
0.590162
0.576765
0.565278
0.55251
0.540774
0.53351
0.520462
0.512488
0.499162
0.488599
0.47884
0.473064
0.459737
0.44962
0.438852
0.43042
0.417057
0.409564
0.402287
0.388574
0.373682
0.363994
0.362699
0.347493
0.346328
0.339371
0.325321
0.314878
0.302547
0.290403
0.278294
0.268868
0.259567
0.247141
0.242616
0.230388
0.221512
0.210254
0.206326
0.195553
0.183473
0.171905
0.161318
0.151634
0.141874
0.132095
0.122306
0.112507
0.102705
0.0928954
0.0830836
0.0732739
0.0634603
0.0536443
0.043832
0.0340218
0.0241801
0.014288
0.00461748
0.74488
0.734247
0.723989
0.712489
0.701795
0.687418
0.680506
0.666629
0.655064
0.648137
0.638094
0.626758
0.61572
0.612414
0.601207
0.597985
0.58639
0.575348
0.56445
0.552205
0.539185
0.532502
0.519247
0.511709
0.503856
0.489393
0.47835
0.473376
0.457346
0.448077
0.438163
0.430132
0.419704
0.411486
0.398994
0.388693
0.370306
0.366108
0.360907
0.353397
0.345609
0.337252
0.325659
0.313612
0.303989
0.291696
0.27969
0.26852
0.258921
0.248745
0.242098
0.228295
0.21951
0.211435
0.204692
0.194523
0.181919
0.174543
0.162358
0.151905
0.141975
0.132112
0.122285
0.112476
0.10267
0.0928618
0.0830596
0.0732546
0.0634442
0.0536311
0.043822
0.0340157
0.0241773
0.0142869
0.00461908
0.745614
0.733836
0.723318
0.712251
0.702679
0.691269
0.67841
0.666616
0.656989
0.647939
0.638525
0.625785
0.616101
0.613818
0.603318
0.594492
0.583433
0.574
0.562923
0.555538
0.541954
0.529275
0.521626
0.510546
0.501003
0.49153
0.480139
0.467157
0.457969
0.447343
0.436064
0.431028
0.419611
0.409994
0.401145
0.387227
0.372611
0.369644
0.360908
0.352827
0.344236
0.335305
0.325635
0.312346
0.30753
0.292584
0.279315
0.267923
0.259241
0.249771
0.239865
0.228334
0.219543
0.212344
0.205685
0.193886
0.182631
0.172611
0.162237
0.151981
0.141982
0.132092
0.122252
0.112439
0.102634
0.0928328
0.0830361
0.0732363
0.0634299
0.0536202
0.0438142
0.0340098
0.0241733
0.0142866
0.00461836
0.745748
0.735994
0.723126
0.710368
0.700904
0.69093
0.679475
0.668796
0.658351
0.647915
0.637398
0.626847
0.619351
0.612559
0.604543
0.590594
0.581194
0.574127
0.566066
0.555906
0.54442
0.531798
0.518786
0.508326
0.497425
0.492699
0.480669
0.464568
0.458768
0.446768
0.436869
0.428897
0.417991
0.408346
0.400559
0.39059
0.375252
0.370303
0.361647
0.35064
0.342897
0.334102
0.324622
0.314691
0.306472
0.292496
0.278576
0.268824
0.260201
0.250488
0.239924
0.226962
0.225004
0.212389
0.204017
0.19302
0.183351
0.17098
0.161658
0.151776
0.141873
0.132018
0.122196
0.112394
0.102597
0.0928053
0.0830128
0.0732181
0.0634173
0.0536129
0.0438098
0.0340076
0.0241722
0.0142884
0.00462077
0.744344
0.73434
0.722263
0.711504
0.699604
0.692218
0.680698
0.671482
0.660601
0.648054
0.636427
0.625698
0.621674
0.610872
0.603276
0.588319
0.581659
0.574857
0.569063
0.555667
0.544135
0.532206
0.519441
0.507424
0.495438
0.491978
0.479075
0.468169
0.456895
0.446072
0.437454
0.429005
0.415235
0.405796
0.401788
0.391399
0.374534
0.372848
0.360229
0.352686
0.342717
0.333707
0.324744
0.315949
0.304631
0.292276
0.279553
0.269878
0.260888
0.251588
0.242219
0.230698
0.22567
0.213172
0.203749
0.195865
0.181997
0.171319
0.161433
0.15156
0.141724
0.131916
0.122125
0.112344
0.102562
0.0927821
0.0829973
0.0732065
0.0634087
0.0536084
0.0438079
0.0340068
0.0241727
0.0142903
0.00462021
0.742664
0.734649
0.720387
0.710642
0.699196
0.694677
0.681777
0.672023
0.660601
0.649632
0.640217
0.627309
0.621728
0.608305
0.604025
0.591221
0.582617
0.57498
0.565937
0.553838
0.543063
0.532876
0.519513
0.506858
0.495012
0.492003
0.478021
0.467108
0.457566
0.447051
0.436864
0.426642
0.415977
0.406574
0.400591
0.390778
0.374916
0.37002
0.361985
0.356754
0.341637
0.333346
0.325218
0.31537
0.303587
0.292656
0.282068
0.271088
0.262163
0.253034
0.244005
0.234659
0.221586
0.217665
0.202698
0.193431
0.182113
0.171319
0.161164
0.151319
0.14155
0.131793
0.122039
0.11228
0.10252
0.0927539
0.0829808
0.0731985
0.063406
0.0536085
0.0438105
0.0340108
0.0241764
0.0142946
0.00462328
0.742111
0.7326
0.721374
0.711238
0.701156
0.693577
0.682981
0.672098
0.660933
0.649736
0.640008
0.629574
0.621157
0.610702
0.603551
0.594094
0.583503
0.575258
0.564361
0.550826
0.541363
0.532733
0.519107
0.506288
0.492614
0.49031
0.480108
0.468545
0.458569
0.447879
0.436281
0.424722
0.416285
0.406123
0.401841
0.388578
0.382777
0.368987
0.360787
0.352511
0.341443
0.332923
0.327424
0.313772
0.30238
0.291722
0.283327
0.274069
0.263654
0.254095
0.24496
0.234458
0.224631
0.215295
0.203579
0.191896
0.18163
0.170527
0.16065
0.151001
0.141355
0.131671
0.121963
0.112237
0.102495
0.0927421
0.0829759
0.0731991
0.0634096
0.0536145
0.0438182
0.0340183
0.0241828
0.0143001
0.00462558
0.742451
0.732245
0.72176
0.711726
0.701386
0.692532
0.683386
0.672514
0.661519
0.649908
0.640588
0.63064
0.621731
0.610072
0.603575
0.593832
0.585198
0.572757
0.561657
0.551649
0.538967
0.528807
0.517893
0.506777
0.495961
0.485993
0.484178
0.470369
0.460045
0.449338
0.435949
0.422084
0.418274
0.408161
0.400602
0.389903
0.382157
0.370346
0.359692
0.34911
0.339115
0.330685
0.326813
0.315423
0.305583
0.289422
0.283335
0.277882
0.265252
0.255438
0.247153
0.233904
0.225112
0.214808
0.20439
0.194787
0.181096
0.168337
0.159893
0.150686
0.141189
0.131575
0.121909
0.112207
0.10248
0.0927362
0.0829793
0.0732071
0.063424
0.0536296
0.0438326
0.0340309
0.0241939
0.0143082
0.00462934
0.742697
0.73214
0.7219
0.71193
0.700726
0.691442
0.682072
0.673283
0.662362
0.651186
0.64165
0.631565
0.621526
0.609744
0.604754
0.5923
0.583396
0.571708
0.56067
0.550498
0.53951
0.526196
0.516853
0.50787
0.492884
0.488438
0.486957
0.472491
0.461164
0.448566
0.436814
0.423043
0.417054
0.408112
0.398995
0.389141
0.37902
0.37055
0.358493
0.345872
0.341472
0.333121
0.323298
0.317572
0.307908
0.293372
0.283612
0.278582
0.267579
0.255371
0.246466
0.235718
0.225537
0.214498
0.204604
0.19447
0.179449
0.169442
0.160073
0.15066
0.141138
0.131533
0.121881
0.112194
0.102481
0.0927488
0.0829981
0.0732292
0.0634487
0.0536544
0.0438544
0.0340494
0.0242091
0.0143189
0.00463414
0.741448
0.731748
0.721938
0.712385
0.699757
0.689996
0.679438
0.67492
0.663493
0.652719
0.642665
0.63243
0.621549
0.610027
0.602323
0.592431
0.578156
0.572334
0.561544
0.551992
0.538096
0.52443
0.515104
0.506849
0.496317
0.489187
0.482781
0.471992
0.462973
0.44904
0.437003
0.426343
0.417312
0.407307
0.39734
0.388649
0.377028
0.373642
0.358501
0.343214
0.340524
0.335574
0.323379
0.315988
0.306708
0.296747
0.284403
0.275256
0.267646
0.25936
0.247869
0.237007
0.226539
0.214467
0.20529
0.191075
0.180334
0.170132
0.160371
0.150755
0.141168
0.131543
0.121893
0.112211
0.102504
0.0927799
0.08303
0.0732656
0.0634856
0.0536897
0.0438859
0.034075
0.0242294
0.0143328
0.0046399
0.740604
0.731853
0.722091
0.711952
0.699464
0.689201
0.679843
0.674226
0.663915
0.653476
0.643711
0.634072
0.621451
0.60672
0.602502
0.588819
0.579385
0.5711
0.561
0.549931
0.539354
0.523582
0.513111
0.506954
0.497633
0.488994
0.480812
0.469874
0.462066
0.450004
0.437416
0.431883
0.417388
0.406415
0.395044
0.387909
0.377424
0.373318
0.35891
0.345088
0.342553
0.331516
0.324069
0.315125
0.305732
0.297502
0.287288
0.272056
0.267272
0.261163
0.248567
0.23806
0.2293
0.215615
0.202377
0.191674
0.180833
0.170407
0.160537
0.150866
0.141225
0.131583
0.121927
0.112249
0.102548
0.0928275
0.0830843
0.0733199
0.0635362
0.0537358
0.0439254
0.0341075
0.0242551
0.0143503
0.00464735
0.740092
0.733161
0.722139
0.71256
0.698428
0.688515
0.679667
0.675355
0.664387
0.653537
0.64462
0.630831
0.620188
0.611411
0.596872
0.589107
0.580041
0.570728
0.561179
0.547324
0.538083
0.526303
0.516443
0.502725
0.496614
0.487969
0.479133
0.468897
0.464676
0.451758
0.439983
0.43038
0.418395
0.406339
0.394302
0.389828
0.377755
0.372638
0.358536
0.34553
0.339585
0.330658
0.326073
0.314749
0.305118
0.299719
0.28764
0.274782
0.267844
0.259094
0.246549
0.237528
0.229467
0.217387
0.204421
0.192525
0.181018
0.17015
0.160575
0.150938
0.141295
0.131643
0.121982
0.112307
0.102615
0.0928979
0.083156
0.0733931
0.0636045
0.0537974
0.043978
0.0341492
0.0242866
0.0143726
0.00465548
0.73734
0.730551
0.725713
0.714018
0.699109
0.688184
0.682552
0.67399
0.664026
0.652566
0.641615
0.630867
0.618115
0.608359
0.598864
0.590954
0.580997
0.570993
0.561845
0.544862
0.538809
0.527121
0.516516
0.506166
0.492406
0.486762
0.479023
0.471047
0.465522
0.452712
0.440795
0.429606
0.418138
0.406602
0.395074
0.390581
0.379007
0.371108
0.357396
0.344095
0.338691
0.332728
0.325075
0.313824
0.309155
0.298385
0.288861
0.274606
0.269346
0.258429
0.243266
0.235719
0.232895
0.220099
0.205506
0.192998
0.180549
0.169116
0.160654
0.151047
0.141377
0.131707
0.122047
0.112384
0.102701
0.0929918
0.0832515
0.0734811
0.0636888
0.0538726
0.0440422
0.0342007
0.0243246
0.0143995
0.00466538
0.740467
0.726447
0.723117
0.716737
0.700693
0.691426
0.681021
0.672413
0.663058
0.651597
0.639279
0.628911
0.617426
0.606347
0.599633
0.593089
0.58124
0.570978
0.561088
0.548993
0.536457
0.526743