/*--------------------------------*- C++ -*----------------------------------*\
  =========                 |
  \\      /  F ield         | OpenFOAM: The Open Source CFD Toolbox
   \\    /   O peration     | Website:  https://openfoam.org
    \\  /    A nd           | Version:  12
     \\/     M anipulation  |
\*---------------------------------------------------------------------------*/
FoamFile
{
    format      ascii;
    class       surfaceScalarField;
    location    "0.35";
    object      phi.water;
}
// * * * * * * * * * * * * * * * * * * * * * * * * * * * * * * * * * * * * * //

dimensions      [0 3 -1 0 0 0 0];

internalField   nonuniform List<scalar> 
7375
(
1.79524e-07
1.12822e-08
4.96502e-08
3.68083e-09
4.42451e-08
5.43958e-09
5.48688e-08
-1.07915e-08
4.83197e-08
5.97121e-09
6.22375e-08
-1.39186e-08
7.55711e-08
-1.27546e-08
9.72381e-08
-2.16732e-08
1.1447e-07
-1.72326e-08
7.38221e-08
-7.85352e-10
7.33509e-08
5.37486e-10
1.11773e-07
3.07744e-09
1.07885e-07
3.96226e-09
1.27418e-07
-1.84358e-08
9.75289e-08
3.00027e-08
8.8559e-08
7.99704e-09
8.18558e-08
6.63784e-09
7.73285e-08
4.42613e-09
6.62098e-08
1.18298e-08
2.31016e-08
1.2734e-09
5.42903e-08
1.0025e-08
5.59704e-08
-1.69891e-09
5.09105e-08
5.12052e-09
5.37015e-08
-2.86493e-09
6.91944e-08
-1.56891e-08
2.8999e-08
4.02036e-08
1.42764e-08
1.47142e-08
1.70021e-09
1.26119e-08
6.19272e-09
-4.39629e-09
-6.6485e-09
1.27667e-08
-2.20995e-09
-4.48797e-09
8.75282e-09
-1.09675e-08
1.30726e-07
3.74435e-09
1.63556e-09
-3.7992e-08
1.6382e-08
-1.49353e-08
4.92232e-08
8.21876e-09
7.14808e-08
-2.19743e-08
2.6383e-08
3.73293e-09
1.08209e-08
1.54996e-08
-1.20594e-08
2.26661e-08
1.83563e-08
1.10823e-08
-2.19723e-08
-1.1469e-09
1.30106e-08
-3.53937e-08
1.61202e-08
-3.20747e-09
3.90149e-08
-2.28973e-08
4.34666e-08
-4.46284e-09
3.55503e-08
7.87024e-09
1.78985e-08
1.7687e-08
9.80419e-08
4.38814e-08
-1.92603e-08
-7.31291e-09
-2.24237e-08
2.95684e-09
8.52569e-08
1.80888e-08
1.67638e-08
-5.66109e-08
1.68842e-08
-1.35327e-10
1.95402e-08
-2.65856e-09
2.24615e-08
-2.95503e-09
2.57192e-08
-3.3048e-09
2.70726e-08
-1.81053e-09
8.44666e-09
1.86265e-08
-1.29964e-08
2.14044e-08
-2.3398e-08
1.03499e-08
-2.73249e-08
4.2212e-09
-3.72495e-08
9.45357e-09
5.60088e-08
3.11848e-08
-3.75582e-08
-2.95061e-08
-2.6565e-08
-1.09932e-08
-1.44115e-08
-1.21527e-08
2.83435e-09
-1.72461e-08
1.95576e-08
-1.67228e-08
2.95106e-08
-9.9536e-09
1.76744e-08
1.18364e-08
-1.59802e-08
3.36549e-08
-6.91326e-08
5.31536e-08
-1.18993e-07
4.98623e-08
1.20957e-08
2.70447e-08
2.51524e-08
-6.30195e-08
-2.94377e-08
-3.68675e-08
-2.1956e-08
-8.5241e-08
3.75814e-08
-9.01494e-08
1.17491e-08
-9.15328e-08
-1.26776e-08
-9.33041e-08
-1.08725e-08
-6.64021e-08
-4.90762e-08
-7.27603e-08
-1.08744e-08
-6.7598e-08
-5.25832e-09
-5.37616e-08
-1.3299e-08
-5.04626e-08
-7.62522e-10
-1.98175e-08
-2.7445e-08
5.79549e-08
2.95122e-08
-4.30622e-08
5.62695e-09
-2.32509e-08
-1.15773e-08
-2.06336e-08
4.22888e-09
-3.48005e-08
1.83844e-08
-3.10664e-08
7.82057e-09
-4.76607e-08
1.78545e-08
-6.26995e-08
2.50638e-08
-3.96545e-08
-2.51486e-08
-7.41798e-08
3.84847e-08
-1.07722e-07
3.03309e-08
-2.95217e-08
3.29421e-08
-1.27651e-07
-2.72841e-08
-1.08382e-07
-4.55441e-09
-1.16867e-07
2.22898e-08
-9.73803e-08
1.81605e-08
-8.66415e-08
1.04447e-09
-8.34055e-08
-8.60764e-09
-5.30704e-08
-4.13026e-08
-3.25365e-08
-1.68275e-08
-6.46358e-08
-5.89274e-09
-9.64255e-08
1.68546e-08
-1.27976e-07
-2.93175e-09
-1.01183e-07
-6.93121e-09
-9.9878e-08
4.47857e-09
-7.48406e-08
-8.87137e-09
-9.37213e-08
4.0791e-08
-1.06746e-07
2.20625e-08
-1.08069e-07
-9.28397e-10
-1.17699e-07
1.60438e-08
-1.58773e-07
-2.82728e-09
-1.42553e-07
3.9813e-09
-1.422e-07
-3.36469e-09
-1.3027e-07
-4.06036e-09
-1.24123e-07
1.14778e-08
-9.0679e-08
1.04371e-08
-1.24229e-07
2.53122e-08
-1.19948e-07
-1.32505e-09
-9.42291e-08
-7.81456e-09
-8.90733e-09
-1.7583e-08
-1.11132e-07
-2.10922e-08
-1.13687e-07
-1.23804e-09
-1.28113e-07
1.14716e-08
-1.58033e-07
2.33908e-08
-1.94796e-07
3.45914e-08
-1.90306e-07
2.0038e-08
-1.77058e-07
9.84499e-09
-1.65836e-07
-9.75574e-10
-1.573e-07
-4.35673e-09
-1.43019e-07
-4.82675e-09
-1.13365e-07
9.07255e-10
-1.30115e-07
-1.27563e-08
-1.27519e-07
-1.35881e-08
-1.18762e-07
-2.09097e-08
-1.09751e-07
-2.6257e-08
-1.00173e-07
-2.63007e-08
-9.52362e-08
-1.48902e-08
-1.0407e-07
2.06707e-08
-1.24422e-07
5.40067e-08
-1.41471e-07
7.02039e-08
-1.52373e-07
6.07659e-08
9.30427e-09
-1.21581e-07
3.19392e-08
-1.43388e-07
-9.49229e-09
-6.64166e-08
2.67926e-08
-1.86138e-07
-8.32122e-09
-1.80706e-07
6.31649e-09
-1.57543e-07
7.17327e-09
-1.76321e-07
6.12419e-09
-1.06152e-07
4.70702e-09
-1.7628e-07
-6.47626e-08
-1.63127e-07
-1.84121e-08
-1.84737e-07
9.95846e-09
-1.97238e-07
7.75462e-09
-1.33588e-07
3.38807e-08
-1.03691e-07
3.09733e-09
-1.84193e-07
-3.70525e-08
-1.4274e-07
-5.49095e-08
-1.36786e-07
-1.6818e-09
-1.9502e-07
3.3337e-08
-1.42581e-07
-2.71237e-09
-1.57148e-07
3.35345e-08
-1.80043e-07
6.47892e-09
-8.83719e-08
4.99996e-08
-1.34554e-07
-3.89032e-08
-1.37589e-07
3.13638e-08
-1.16333e-07
1.13495e-08
-1.41664e-07
-1.95274e-09
-1.41947e-07
-4.27161e-09
-1.47933e-07
-1.32035e-08
-1.40008e-07
1.04212e-08
-1.4484e-07
5.88696e-09
-1.64298e-07
1.08509e-08
-8.52647e-08
4.55813e-08
-1.12807e-07
1.08258e-08
-1.08487e-07
-1.02127e-08
-1.9379e-07
-2.22806e-08
-1.87392e-07
-1.12415e-08
-1.76501e-07
-1.79362e-08
-1.82319e-07
1.02375e-08
-1.12093e-07
4.60574e-08
-1.77847e-07
-5.84082e-08
-1.78359e-07
2.41473e-08
-1.67772e-07
2.9555e-08
-1.70678e-07
1.70742e-08
-1.79349e-07
5.87257e-09
-1.75902e-07
5.34156e-10
-1.8746e-07
8.19354e-09
-1.90964e-07
-5.98325e-10
-1.87387e-07
7.90062e-09
-1.78891e-07
2.04764e-09
-1.92886e-07
-2.17267e-09
-1.99164e-07
4.95351e-09
-2.03016e-07
3.54451e-08
-1.09479e-07
1.46008e-08
-1.92147e-07
-6.25999e-08
-1.91477e-07
-1.90756e-09
-1.87336e-07
7.3297e-09
-1.86159e-07
2.41138e-08
-1.89605e-07
3.88606e-08
-2.0137e-07
3.16026e-08
-2.14405e-07
2.28798e-08
-2.25873e-07
1.04927e-08
-2.25983e-07
-4.24653e-09
-2.21613e-07
-9.19678e-09
-2.09812e-07
-1.08938e-08
-2.08841e-07
-1.37264e-08
-2.0628e-07
-1.61488e-08
-2.03365e-07
-2.38245e-08
-2.01954e-07
-2.76675e-08
-2.00905e-07
-2.73495e-08
-2.01667e-07
-1.41283e-08
-2.01527e-07
2.05305e-08
-1.9462e-07
4.71004e-08
-1.78475e-07
5.40605e-08
-1.63829e-07
4.61216e-08
3.19519e-09
-1.70722e-07
5.98357e-10
-1.71709e-07
3.34007e-08
-1.32982e-07
-1.05652e-08
-2.00366e-07
1.75832e-08
-2.01033e-07
9.0338e-09
-1.71982e-07
1.9183e-08
-1.90947e-07
2.1449e-08
-2.19706e-07
3.1153e-08
-1.86354e-07
2.98697e-08
-1.94845e-07
-6.0323e-09
-2.45036e-07
-6.30319e-08
-2.4186e-07
2.13578e-09
-2.10491e-07
1.82036e-09
-1.98808e-07
-8.58571e-09
-2.25405e-07
-5.17844e-08
-1.39491e-07
2.50941e-08
-1.43642e-07
2.46837e-09
-2.66098e-07
-1.01239e-08
-1.40374e-07
3.89403e-08
-2.03007e-07
-2.70143e-08
-1.91995e-07
-6.60396e-09
-1.73463e-07
-1.00116e-08
-9.58925e-08
5.0025e-08
-1.56584e-07
-3.11264e-08
-1.64557e-07
1.75459e-08
-1.66685e-07
1.75445e-10
-1.6498e-07
-5.97661e-09
-1.67051e-07
-1.11324e-08
-1.55113e-07
-1.51728e-09
-1.54266e-07
5.04092e-09
-1.48193e-07
4.82707e-09
-1.2129e-07
1.74407e-08
-1.59989e-07
7.61853e-09
-1.55639e-07
2.85488e-08
-1.92539e-07
1.46192e-08
-2.13175e-07
7.21931e-09
-1.38986e-07
3.37811e-08
-1.43024e-07
1.69792e-08
-2.0761e-07
-1.50998e-08
-1.49583e-07
8.68784e-09
-2.21605e-07
-2.55015e-08
-1.94157e-07
1.47564e-10
-1.89554e-07
1.24711e-08
-1.81434e-07
-2.24753e-09
-1.60064e-07
-2.10508e-08
-1.93176e-07
4.13056e-08
-1.90365e-07
-3.4093e-09
-1.87354e-07
4.8892e-09
-1.89624e-07
4.31753e-09
-1.94182e-07
2.38566e-09
-1.97965e-07
8.73637e-09
-1.83213e-07
2.04832e-08
-1.81237e-07
1.052e-08
-1.25242e-07
7.12587e-09
-2.01503e-07
-4.93104e-08
-2.05497e-07
1.13236e-08
-1.95423e-07
1.60332e-08
-1.80286e-07
2.5677e-08
-1.8235e-07
3.36668e-08
-1.91027e-07
3.15564e-08
-2.01278e-07
2.07439e-08
-2.09108e-07
3.58385e-09
-2.10963e-07
-7.34128e-09
-2.11191e-07
-1.06656e-08
-2.16473e-07
-8.44449e-09
-2.22961e-07
-9.66031e-09
-2.2527e-07
-2.15151e-08
-2.24187e-07
-2.875e-08
-2.24297e-07
-2.72393e-08
-2.25808e-07
-1.26177e-08
-2.20442e-07
1.51649e-08
-2.04876e-07
3.1535e-08
-1.85113e-07
3.42998e-08
-1.68338e-07
2.93482e-08
-3.40282e-10
-2.21393e-07
2.63878e-08
-2.24051e-07
3.11722e-08
-1.48894e-07
3.9997e-08
-2.45028e-07
-9.20232e-09
-2.37705e-07
1.71043e-09
-2.10493e-07
-7.91369e-09
-2.34629e-07
4.55847e-08
-2.31014e-07
2.72195e-08
-2.34828e-07
3.33792e-08
-2.34641e-07
-6.15693e-09
-1.72986e-07
8.72642e-10
-2.46389e-07
-4.76424e-08
-2.16291e-07
-3.04805e-08
-2.23264e-07
-4.08142e-08
-2.28817e-07
-5.17162e-09
-2.0159e-07
-4.46714e-09
-2.0111e-07
1.98805e-09
-2.29007e-07
1.77729e-08
-1.80548e-07
-9.42188e-09
-1.91756e-07
-1.60822e-08
-1.82913e-07
-1.54471e-08
-1.6631e-07
-2.68894e-08
-1.59119e-07
1.35462e-09
-9.27002e-08
6.83037e-08
-1.82156e-07
-1.61793e-08
-1.67635e-07
-1.62046e-08
-1.41106e-07
-3.284e-08
-1.71724e-07
1.94857e-08
-1.58769e-07
-1.44732e-08
-1.57736e-07
2.39955e-09
-1.69545e-07
1.66355e-08
-1.67635e-07
1.72612e-08
-1.78845e-07
1.87505e-08
-1.67088e-07
1.67924e-08
-1.65719e-07
1.32497e-08
-1.69202e-07
1.07024e-08
-1.35348e-07
9.73309e-10
-1.47262e-07
2.86041e-08
-1.72383e-07
8.36572e-09
-1.68002e-07
4.21813e-09
-1.79523e-07
-1.42411e-08
-1.76167e-07
-3.20857e-09
-1.7032e-07
6.62436e-09
-1.814e-07
6.98184e-09
-1.01918e-07
2.51877e-08
-1.99267e-07
-2.62226e-08
-1.7415e-07
1.29523e-08
-1.73203e-07
3.94229e-09
-1.70664e-07
1.77852e-09
-1.70857e-07
2.5786e-09
-1.64128e-07
3.68212e-09
-1.38843e-07
-3.43526e-09
-1.31119e-07
1.39427e-09
-1.48342e-07
2.14249e-08
-9.8706e-08
2.65009e-08
-1.97987e-07
-1.26974e-08
-1.94573e-07
1.47545e-08
-1.79426e-07
1.24755e-08
-1.77973e-07
3.22138e-08
-1.81449e-07
3.50324e-08
-1.89122e-07
2.84173e-08
-2.02697e-07
1.71587e-08
-2.17536e-07
7.49711e-09
-2.30487e-07
2.28639e-09
-2.38498e-07
-4.33744e-10
-2.38097e-07
-1.00606e-08
-2.30493e-07
-2.91186e-08
-2.23149e-07
-3.60942e-08
-2.17507e-07
-3.28809e-08
-2.15718e-07
-1.44067e-08
-2.09877e-07
9.32428e-09
-1.96695e-07
1.83548e-08
-1.82868e-07
2.04743e-08
-1.71402e-07
1.78841e-08
-9.44033e-10
-2.39551e-07
2.30389e-08
-2.04944e-07
-9.91845e-10
-2.04343e-07
3.8593e-08
-2.34521e-07
2.09755e-08
-2.501e-07
1.47374e-08
-1.71615e-07
3.93215e-08
-2.43292e-07
-5.42552e-09
-2.23289e-07
7.21631e-09
-2.25362e-07
-3.72796e-09
-1.97856e-07
7.39713e-09
-1.87376e-07
-1.16264e-08
-2.00616e-07
-3.28418e-08
-1.9631e-07
-3.47867e-08
-2.09785e-07
-2.93417e-08
-1.92911e-07
-2.18753e-08
-1.83445e-07
-1.39332e-08
-1.75965e-07
-5.49233e-09
-1.93768e-07
-3.92661e-09
-1.62251e-07
1.21401e-10
-1.6603e-07
-1.39582e-08
-1.51266e-07
-3.20822e-08
-9.75513e-08
4.51167e-08
-1.00521e-07
6.34542e-09
-1.44505e-07
-1.08946e-08
-1.75191e-07
1.30005e-08
-1.90197e-07
-3.13939e-09
-1.06265e-07
8.94899e-09
-2.05425e-07
-4.61878e-08
-1.87981e-07
9.56277e-09
-1.51256e-07
-3.43257e-08
-1.51707e-07
1.69169e-08
-1.75646e-07
4.07838e-08
-1.57503e-07
6.14061e-10
-1.84589e-07
4.3878e-08
-1.90645e-07
1.93063e-08
-2.09239e-07
2.7162e-08
-1.15847e-07
3.44964e-08
-1.73622e-07
-3.53442e-08
-1.88856e-07
2.16082e-08
-1.89198e-07
4.6077e-09
-1.72946e-07
-3.04929e-08
-1.75689e-07
-4.66427e-10
-1.70775e-07
1.7104e-09
-1.57172e-07
-6.55415e-09
-1.50238e-07
1.79973e-08
-1.8107e-07
4.6088e-09
-1.7916e-07
1.10427e-08
-1.8242e-07
7.20211e-09
-1.92091e-07
1.15666e-08
-1.77446e-07
-1.20658e-08
-1.83929e-07
8.28822e-09
-1.91158e-07
3.75799e-09
-1.77129e-07
-1.07803e-08
-1.74459e-07
2.03275e-08
-1.51178e-07
4.47839e-09
-1.6256e-07
-4.48407e-09
-1.89921e-07
4.90738e-10
-1.67327e-07
3.46759e-08
-1.67845e-07
3.27321e-08
-1.68541e-07
3.57275e-08
-1.72338e-07
3.22151e-08
-1.81768e-07
2.65884e-08
-1.95028e-07
2.07576e-08
-2.10332e-07
1.75904e-08
-2.18448e-07
7.68215e-09
-2.13893e-07
-1.46154e-08
-2.07054e-07
-3.59569e-08
-2.0344e-07
-3.97078e-08
-2.02822e-07
-3.34983e-08
-2.03638e-07
-1.35908e-08
-1.9758e-07
3.26673e-09
-1.88376e-07
9.15162e-09
-1.80568e-07
1.26688e-08
-1.74009e-07
1.13266e-08
-3.34605e-10
-2.52422e-07
2.33221e-08
-1.30288e-07
4.36739e-08
-2.08442e-07
-6.43491e-09
-1.99376e-07
9.78228e-09
-1.92598e-07
7.9587e-09
-1.75498e-07
2.18206e-08
-1.97253e-07
1.6329e-08
-1.9057e-07
5.32992e-10
-1.80514e-07
-1.37839e-08
-1.63076e-07
-9.96581e-09
-1.52605e-07
-2.2097e-08
-1.65122e-07
-2.03255e-08
-1.73547e-07
-2.67163e-08
-1.6692e-07
-3.42656e-08
-1.60548e-07
-2.82475e-08
-1.52678e-07
-2.34418e-08
-1.37705e-07
-2.06763e-08
-1.69037e-07
2.71293e-08
-1.7116e-07
2.24488e-09
-1.84161e-07
-2.83598e-09
-9.22025e-08
1.69768e-09
-1.68575e-07
-2.46871e-09
-1.3522e-07
-2.72875e-08
-1.70882e-07
2.29124e-08
-2.12144e-07
1.23559e-08
-2.04331e-07
3.26914e-08
-1.95028e-07
-4.45652e-10
-2.24353e-07
-1.68631e-08
-2.33285e-07
-2.29843e-08
-1.18756e-07
1.70624e-08
-1.3646e-07
3.565e-08
-2.22967e-07
1.85736e-09
-1.29976e-07
3.10456e-08
-2.31092e-07
-1.9597e-08
-1.94508e-07
2.42015e-08
-1.97462e-07
3.01159e-08
-1.946e-07
3.12833e-08
-1.28769e-07
2.42155e-08
-2.10349e-07
-2.21176e-08
-2.2248e-07
-2.73356e-08
-1.83872e-07
-2.5613e-08
-1.9701e-07
1.25433e-08
-2.15466e-07
-1.91151e-08
-1.72635e-07
-8.32487e-09
-1.85373e-07
2.86821e-08
-1.94042e-07
1.32775e-08
-1.94893e-07
1.18936e-08
-1.91462e-07
1.81736e-09
-2.14335e-07
-7.46751e-09
-1.99419e-07
1.66842e-08
-1.80777e-07
-1.04604e-08
-2.25222e-07
4.58671e-08
-1.44987e-07
3.61991e-08
-1.91358e-07
-5.50184e-08
-1.94459e-07
5.67322e-09
-1.93227e-07
-5.82216e-09
-2.01835e-07
9.09437e-09
-1.76827e-07
1.1825e-08
-1.69518e-07
2.71907e-08
-1.66549e-07
3.27589e-08
-1.66604e-07
3.227e-08
-1.70605e-07
3.05893e-08
-1.75658e-07
2.58114e-08
-1.79086e-07
2.10179e-08
-1.77209e-07
5.80544e-09
-1.72526e-07
-1.92981e-08
-1.74551e-07
-3.39315e-08
-1.79691e-07
-3.45673e-08
-1.89011e-07
-2.41785e-08
-1.93368e-07
-9.23307e-09
-1.90559e-07
4.58068e-10
-1.85282e-07
3.87637e-09
-1.81159e-07
8.54742e-09
-1.76762e-07
6.93083e-09
-2.42607e-11
-2.53806e-07
3.91496e-08
-1.84825e-07
1.55938e-08
-1.99178e-07
5.96629e-09
-1.98173e-07
8.77644e-09
-1.77176e-07
-1.30379e-08
-1.59315e-07
3.95853e-09
-1.91968e-07
7.50256e-09
-1.78722e-07
-1.27133e-08
-1.68046e-07
1.70194e-08
-1.66145e-07
-1.18662e-08
-1.69822e-07
-1.84202e-08
-1.65133e-07
-2.50144e-08
-1.66424e-07
-2.54262e-08
-1.94982e-07
-5.76599e-09
-1.87177e-07
-3.6341e-08
-1.91288e-07
-2.15014e-08
-1.24392e-07
3.94302e-08
-2.10734e-07
-8.45375e-09
-2.0938e-07
-1.2591e-09
-2.08232e-07
-6.10923e-09
-1.43636e-07
6.28055e-08
-2.46057e-07
-2.55308e-08
-1.36074e-07
-1.16707e-08
-2.47161e-07
1.095e-08
-2.44902e-07
9.97107e-09
-2.28246e-07
1.60346e-08
-2.46858e-07
1.8167e-08
-2.46868e-07
-1.66827e-08
-2.70296e-07
4.43727e-10
-1.45874e-07
1.85667e-08
-2.08734e-07
-2.46719e-08
-2.28089e-07
1.89088e-08
-2.0743e-07
1.007e-08
-2.22383e-07
-4.64392e-09
-2.06277e-07
8.09572e-09
-1.98515e-07
2.23542e-08
-1.893e-07
2.20684e-08
-1.95177e-07
3.04027e-08
-2.0183e-07
-1.56903e-08
-2.38313e-07
6.99508e-09
-1.56546e-07
1.99539e-08
-2.03855e-07
-6.17481e-08
-2.47241e-07
2.2191e-08
-1.17732e-07
-1.22793e-08
-2.11747e-07
-4.79844e-10
-2.05309e-07
4.67888e-09
-1.96942e-07
3.52725e-09
-2.0719e-07
1.2065e-08
-2.3783e-07
2.3248e-08
-2.22975e-07
-4.40351e-10
-1.33106e-07
2.53912e-08
-2.20328e-07
-3.14709e-08
-1.99712e-07
1.52139e-08
-1.27554e-07
3.81791e-08
-2.32213e-07
-1.64745e-08
-2.31983e-07
-6.0526e-09
-2.25816e-07
5.2939e-09
-2.14093e-07
2.28652e-09
-1.98688e-07
1.39255e-08
-1.85206e-07
1.92775e-08
-1.7734e-07
2.44037e-08
-1.7242e-07
2.56695e-08
-1.69305e-07
2.26967e-08
-1.64695e-07
1.64077e-08
-1.5993e-07
1.0412e-09
-1.59327e-07
-1.99015e-08
-1.66116e-07
-2.71417e-08
-1.74655e-07
-2.60283e-08
-1.83292e-07
-1.55407e-08
-1.85821e-07
-6.70433e-09
-1.85011e-07
-3.50657e-10
-1.82573e-07
1.43937e-09
-1.80319e-07
6.29522e-09
-1.78349e-07
4.96223e-09
2.4902e-10
-2.48965e-07
-3.12062e-08
-1.89815e-07
-2.33923e-09
-1.97706e-07
1.19195e-08
-2.11889e-07
2.29588e-08
-1.32186e-07
3.16969e-08
-1.30673e-07
2.44572e-09
-2.51869e-07
-3.72192e-08
-1.96164e-07
-2.69393e-08
-1.66816e-07
-1.23286e-08
-1.63648e-07
-1.5034e-08
-1.85201e-07
3.16422e-09
-1.75799e-07
-3.44164e-08
-1.84234e-07
-1.88703e-08
-2.21477e-07
-1.04298e-08
-2.46343e-07
3.00568e-08
-1.67279e-07
2.51555e-08
-2.1776e-07
-3.35654e-08
-2.54639e-07
2.83391e-08
-2.58694e-07
2.7954e-09
-1.61949e-07
2.15837e-08
-2.44106e-07
-2.15957e-08
-2.48151e-07
1.74622e-08
-1.38709e-07
4.72853e-09
-2.72476e-07
2.16932e-08
-2.56047e-07
-6.45771e-09
-2.45003e-07
4.99103e-09
-2.53551e-07
-1.20552e-08
-2.44948e-07
1.57745e-08
-2.6667e-07
1.96675e-08
-2.63563e-07
1.54595e-08
-1.91173e-07
2.87807e-08
-2.73926e-07
-2.15195e-08
-2.56233e-07
-1.04174e-08
-2.40932e-07
-1.99444e-08
-1.98335e-07
-3.4502e-08
-2.20622e-07
4.46423e-08
-2.14768e-07
1.40234e-08
-2.24834e-07
-1.43898e-09
-2.26421e-07
2.99762e-08
-2.17471e-07
-1.95521e-09
-2.30814e-07
-8.38588e-09
-1.57329e-07
3.00546e-08
-2.91939e-07
-9.11683e-09
-1.53537e-07
1.66329e-08
-2.50577e-07
-2.66255e-08
-2.44493e-07
-3.9619e-09
-2.34244e-07
-6.72211e-09
-2.23079e-07
9.00312e-10
-2.28876e-07
-9.99758e-09
-1.96434e-07
8.17763e-09
-1.71754e-07
-1.55188e-09
-1.98081e-07
-5.14362e-09
-1.80528e-07
-2.31595e-09
-1.50523e-07
8.1747e-09
-1.76614e-07
9.61646e-09
-2.0267e-07
2.00645e-08
-2.03846e-07
6.46981e-09
-2.05743e-07
6.28266e-09
-1.84897e-07
-4.91283e-09
-1.75803e-07
1.01837e-08
-1.6766e-07
1.62602e-08
-1.61581e-07
1.95911e-08
-1.61215e-07
2.23308e-08
-1.63898e-07
1.90911e-08
-1.6875e-07
5.89303e-09
-1.72828e-07
-1.58237e-08
-1.76594e-07
-2.33753e-08
-1.80465e-07
-2.21566e-08
-1.84278e-07
-1.17276e-08
-1.85942e-07
-5.03992e-09
-1.84926e-07
-1.36596e-09
-1.84136e-07
6.5028e-10
-1.81918e-07
4.07886e-09
-1.79986e-07
3.03196e-09
6.24035e-11
-1.85592e-07
-8.02147e-09
-1.84872e-07
-3.08415e-09
-1.84522e-07
1.15686e-08
-1.73027e-07
1.14631e-08
-1.55042e-07
1.37117e-08
-1.60474e-07
7.79728e-09
-2.16605e-07
-2.25673e-08
-1.88084e-07
-1.39807e-08
-1.75862e-07
-2.45514e-08
-1.77123e-07
-1.558e-08
-2.02153e-07
-1.37124e-08
-1.84062e-07
-9.05872e-09
-2.16524e-07
1.35919e-08
-2.4102e-07
1.17141e-08
-2.38051e-07
-1.49735e-08
-2.39392e-07
6.77052e-08
-1.94111e-07
4.7362e-08
-2.77343e-07
-5.2366e-08
-2.59037e-07
-1.55106e-08
-2.40963e-07
3.50921e-09
-2.70085e-07
7.52704e-09
-2.77371e-07
2.47481e-08
-1.68811e-07
6.20374e-08
-2.94991e-07
-1.80438e-08
-2.50724e-07
-9.24584e-09
-2.61086e-07
1.80169e-08
-2.49799e-07
-2.35805e-08
-2.38775e-07
2.36245e-09
-2.5155e-07
3.21152e-08
-2.46692e-07
1.31182e-08
-2.24741e-07
6.82964e-09
-2.43744e-07
-5.02876e-09
-2.37615e-07
-1.65455e-08
-2.3472e-07
-2.28395e-08
-1.26745e-07
-1.80392e-08
-2.37342e-07
-1.05701e-08
-2.07093e-07
2.52537e-08
-2.25411e-07
1.45936e-08
-2.42338e-07
4.99652e-09
-2.07847e-07
7.50531e-09
-2.18565e-07
2.33279e-09
-2.01349e-07
1.29702e-08
-2.31427e-07
-1.81573e-08
-1.79584e-07
5.85096e-09
-2.08683e-07
3.69169e-10
-2.13538e-07
8.93373e-10
-2.13739e-07
-6.45532e-09
-2.04975e-07
-5.77236e-09
-2.01375e-07
-1.35978e-08
-1.83619e-07
-1.15499e-08
-1.76177e-07
-8.99329e-09
-2.10411e-07
-1.02424e-08
-1.70082e-07
-1.56883e-09
-1.68852e-07
5.20895e-09
-1.58732e-07
-4.98134e-10
-1.63298e-07
2.46302e-08
-1.57824e-07
9.9633e-10
-1.58996e-07
7.45415e-09
-1.6183e-07
-4.77523e-10
-1.52501e-07
2.49736e-09
-1.42987e-07
6.74615e-09
-1.33602e-07
1.0206e-08
-1.29546e-07
1.8275e-08
-1.30584e-07
2.01296e-08
-1.36618e-07
1.19266e-08
-1.48423e-07
-4.01831e-09
-1.56425e-07
-1.53733e-08
-1.62464e-07
-1.61172e-08
-1.70564e-07
-3.62679e-09
-1.77128e-07
1.52401e-09
-1.8003e-07
1.53649e-09
-1.81554e-07
2.17535e-09
-1.80978e-07
3.50528e-09
-1.80531e-07
2.58672e-09
-4.69802e-11
-1.82141e-07
-4.85316e-09
-1.96531e-07
1.13048e-08
-1.75229e-07
-9.63604e-09
-1.75592e-07
1.18249e-08
-1.82889e-07
2.31106e-08
-1.68683e-07
-6.40881e-09
-1.7928e-07
-1.36919e-08
-1.68802e-07
-2.44584e-08
-1.56371e-07
-3.6983e-08
-1.42476e-07
-2.94748e-08
-1.90749e-07
3.24239e-08
-1.09125e-07
3.50374e-08
-1.90708e-07
-2.84402e-08
-2.01445e-07
2.03961e-08
-1.66279e-07
7.5736e-08
-2.18302e-07
-5.24165e-09
-2.10888e-07
-2.44637e-09
-2.47526e-07
2.81903e-08
-2.49304e-07
-1.37326e-08
-2.56894e-07
1.1099e-08
-2.65344e-07
1.59768e-08
-2.59431e-07
1.88352e-08
-2.35307e-07
3.79132e-08
-2.73789e-07
2.04378e-08
-1.94075e-07
3.54786e-08
-2.96486e-07
-6.96427e-09
-2.12953e-07
1.83644e-08
-1.99908e-07
-6.47023e-09
-2.39326e-07
-5.16481e-08
-2.25133e-07
-3.51705e-09
-2.18376e-07
1.42379e-10
-2.14474e-07
-8.93059e-09
-2.13486e-07
-1.75333e-08
-2.28296e-07
-8.02938e-09
-1.11788e-07
-8.87795e-09
-2.06166e-07
-3.93734e-08
-1.91417e-07
8.40112e-09
-1.85841e-07
9.01748e-09
-2.28208e-07
5.83372e-09
-1.97881e-07
1.8657e-08
-1.98709e-07
1.13403e-09
-2.06495e-07
-2.11509e-08
-1.92594e-07
1.15283e-08
-1.54619e-07
-3.23952e-08
-1.57423e-07
3.17267e-09
-1.8338e-07
2.8722e-08
-2.02304e-07
1.24681e-08
-1.90362e-07
-1.95781e-08
-1.91607e-07
-1.2492e-08
-1.85718e-07
-1.76188e-08
-1.82053e-07
-1.26577e-08
-2.18203e-07
-1.33461e-08
-1.65408e-07
-1.31865e-08
-1.59168e-07
-1.09416e-09
-1.31236e-07
-2.87205e-08
-1.40195e-07
3.225e-08
-1.19367e-07
-1.98317e-08
-1.19458e-07
7.54545e-09
-1.34853e-07
1.49175e-08
-1.56492e-07
2.54983e-08
-1.48055e-07
-1.26864e-10
-1.35211e-07
-2.63727e-09
-1.19341e-07
2.40504e-09
-1.09032e-07
9.82069e-09
-1.09411e-07
1.2306e-08
-1.24387e-07
1.09572e-08
-1.45443e-07
5.6834e-09
-1.63785e-07
2.22454e-09
-1.74715e-07
7.30443e-09
-1.80828e-07
7.63639e-09
-1.83719e-07
4.42845e-09
-1.84401e-07
2.85859e-09
-1.82362e-07
1.46787e-09
-1.81439e-07
1.66577e-09
-2.72695e-10
-2.06295e-07
-3.75063e-09
-2.22067e-07
-1.21388e-08
-1.98853e-07
8.20936e-09
-1.96106e-07
5.04886e-09
-2.21823e-07
6.84906e-09
-2.02187e-07
1.76321e-08
-2.02797e-07
-1.30814e-08
-1.93991e-07
-3.29287e-08
-1.99885e-07
-3.10899e-08
-1.12004e-07
8.22489e-09
-1.90085e-07
-1.26762e-08
-1.76648e-07
1.75018e-08
-1.18945e-07
3.91735e-08
-1.23072e-07
2.5477e-08
-2.00369e-07
-1.35197e-08
-1.73598e-07
9.37099e-09
-1.84267e-07
6.3036e-09
-2.01034e-07
3.01856e-09
-2.03286e-07
3.20501e-08
-2.23329e-07
3.11415e-08
-2.22476e-07
1.5124e-08
-2.13686e-07
1.00449e-08
-2.43399e-07
6.76267e-08
-2.41466e-07
1.85046e-08
-2.01269e-07
-2.63866e-09
-1.9742e-07
-1.08134e-08
-1.66464e-07
-1.47924e-08
-1.80538e-07
-3.38756e-08
-1.55254e-07
-3.63503e-08
-1.79318e-07
2.05471e-08
-1.99432e-07
2.04647e-08
-1.97629e-07
-1.07334e-08
-2.0002e-07
-1.51424e-08
-2.30176e-07
-1.70045e-08
-1.82011e-07
-1.58221e-08
-2.03627e-07
-2.00162e-08
-1.95247e-07
2.15832e-11
-1.92314e-07
6.08368e-09
-2.03639e-07
1.71587e-08
-1.79064e-07
-5.9179e-09
-1.72959e-07
-4.97094e-09
-1.85992e-07
-7.90172e-09
-1.84509e-07
8.16317e-09
-1.04351e-07
1.33037e-08
-1.41305e-07
4.11921e-08
-2.16335e-07
-2.06868e-08
-2.18241e-07
-2.47511e-08
-1.98609e-07
1.83143e-09
-1.9568e-07
-1.94436e-08
-1.82397e-07
-3.05869e-08
-1.85238e-07
-7.9556e-09
-2.0397e-07
-3.40126e-08
-1.91255e-07
1.51788e-08
-2.16254e-07
1.97482e-08
-1.23486e-07
3.93576e-09
-2.11307e-07
-4.5046e-08
-1.37192e-07
7.19704e-08
-1.12564e-07
-1.70825e-08
-1.11086e-07
1.44253e-08
-1.73227e-07
-3.34545e-08
-1.48565e-07
-2.47885e-08
-1.3634e-07
-1.48631e-08
-1.28503e-07
-5.43137e-09
-1.24309e-07
5.62695e-09
-1.29098e-07
1.7095e-08
-1.43269e-07
2.51282e-08
-1.61042e-07
2.34569e-08
-1.7347e-07
1.46531e-08
-1.77666e-07
1.15007e-08
-1.79485e-07
9.45554e-09
-1.81045e-07
5.98857e-09
-1.82406e-07
4.22125e-09
-1.81726e-07
7.89552e-10
-1.81404e-07
1.34547e-09
-2.69825e-10
-2.00364e-07
-5.99565e-09
-2.09733e-07
-2.77153e-09
-1.97117e-07
-4.3234e-09
-1.7015e-07
-2.03906e-08
-2.05865e-07
4.24943e-08
-1.9349e-07
3.15685e-09
-2.01361e-07
-3.15603e-09
-1.7669e-07
-5.76002e-08
-1.85177e-07
-2.44055e-08
-1.66624e-07
-1.03281e-08
-1.90684e-07
1.11405e-08
-1.72045e-07
6.1838e-10
-1.14891e-07
-1.73919e-08
-1.2358e-07
3.42538e-08
-1.26185e-07
-1.08887e-08
-8.31652e-08
-3.37424e-08
-6.99276e-08
-7.0678e-09
-8.11106e-08
1.34648e-08
-7.37064e-08
2.38184e-08
-1.18204e-07
7.48749e-08
-1.67772e-07
6.46923e-08
-1.12292e-07
7.90026e-08
-2.08757e-07
-1.82567e-09
-1.87955e-07
-3.76198e-10
-1.66382e-07
1.68489e-08
-1.62404e-07
-1.65993e-08
-1.41054e-07
-3.65147e-08
-1.93343e-07
1.64411e-08
-8.40798e-08
-2.01001e-08
-1.79063e-07
-9.87645e-09
-1.98166e-07
-2.33991e-09
-1.81404e-07
1.60058e-08
-1.91651e-07
-4.89481e-09
-2.2203e-07
-2.58404e-08
-1.929e-07
-4.05152e-09
-2.09801e-07
-5.08238e-09
-1.86055e-07
-2.39694e-08
-1.80102e-07
1.31103e-10
-1.8288e-07
1.97354e-08
-1.75924e-07
-1.28738e-08
-1.67802e-07
-1.30929e-08
-1.74448e-07
-1.25585e-09
-1.81964e-07
1.38227e-08
-9.13747e-08
4.82976e-08
-1.94245e-07
-2.09234e-08
-1.85984e-07
1.25325e-08
-1.99236e-07
-9.46675e-09
-1.77373e-07
-2.00131e-08
-1.76081e-07
-2.07486e-08
-1.76051e-07
-3.03088e-08
-1.96167e-07
-3.11142e-08
-1.98008e-07
7.21366e-09
-2.13036e-07
-1.14257e-08
-2.21327e-07
3.02119e-08
-2.15922e-07
3.77673e-08
-1.52079e-07
1.68321e-08
-2.18665e-07
-2.58101e-08
-9.79946e-08
2.887e-08
-1.64027e-07
-4.06567e-08
-1.56558e-07
-4.09239e-08
-1.48346e-07
-3.30005e-08
-1.42974e-07
-2.02346e-08
-1.42789e-07
-5.61673e-09
-1.49381e-07
1.22193e-08
-1.6201e-07
2.97241e-08
-1.73505e-07
3.66235e-08
-1.8245e-07
3.2402e-08
-1.85624e-07
1.78281e-08
-1.84926e-07
1.08027e-08
-1.8346e-07
7.99027e-09
-1.83345e-07
5.87317e-09
-1.83439e-07
4.31632e-09
-1.82888e-07
2.40402e-10
-1.82132e-07
5.92059e-10
-5.97028e-10
-2.18262e-07
-1.98493e-09
-2.25543e-07
4.50827e-09
-2.48755e-07
1.63496e-08
-1.38812e-07
-4.61356e-09
-2.63417e-07
3.03169e-09
-2.19385e-07
6.03798e-10
-2.55442e-07
-8.57822e-09
-1.72464e-07
2.47509e-08
-1.84251e-07
-1.26184e-08
-1.76423e-07
-1.63563e-08
-2.53076e-07
-3.53878e-08
-2.46303e-07
-1.11361e-08
-1.64789e-07
2.69135e-08
-2.4645e-07
-4.79719e-08
-2.1266e-07
-4.21908e-08
-2.01582e-07
-4.142e-09
-1.75116e-07
-3.603e-08
-2.04591e-07
4.30772e-08
-1.14184e-07
5.90144e-08
-1.87327e-07
2.48362e-08
-1.62788e-07
3.82417e-08
-1.56903e-07
3.16384e-08
-1.70162e-07
1.31695e-08
-1.4067e-07
1.13064e-08
-1.55488e-07
3.04032e-08
-1.65942e-07
-7.83762e-09
-9.01787e-08
1.33051e-08
-2.0528e-07
-3.55491e-08
-7.76908e-08
2.01452e-08
-1.76978e-07
-3.42348e-08
-1.7025e-07
-9.04383e-09
-1.36681e-07
-1.77444e-08
-1.73362e-07
3.17866e-08
-2.02773e-07
3.5707e-09
-2.13056e-07
6.18989e-09
-2.28351e-07
7.88306e-09
-1.52461e-07
2.58612e-08
-1.42163e-07
-7.16147e-09
-2.01662e-07
-4.39469e-08
-1.89882e-07
-2.67105e-08
-1.84422e-07
-1.85535e-08
-1.68764e-07
-1.6914e-08
-1.6587e-07
1.09286e-08
-1.74686e-07
5.66207e-08
-2.01834e-07
6.22526e-09
-1.89679e-07
3.77243e-10
-1.81251e-07
-1.78949e-08
-1.61082e-07
-4.03862e-08
-1.501e-07
-3.17305e-08
-1.60013e-07
-2.09187e-08
-1.67153e-07
-2.22692e-08
-1.54157e-07
-4.22578e-09
-1.56712e-07
-1.04164e-08
-1.65604e-07
-3.9745e-09
-1.50436e-07
2.25987e-08
-1.40271e-07
4.79756e-08
-1.82071e-07
1.76673e-08
-1.57559e-07
5.88948e-09
-1.78655e-07
-1.95606e-08
-1.89674e-07
-2.99052e-08
-1.91732e-07
-3.0943e-08
-1.86846e-07
-2.512e-08
-1.82965e-07
-9.49785e-09
-1.82858e-07
1.21125e-08
-1.83678e-07
3.05445e-08
-1.83686e-07
3.66313e-08
-1.83072e-07
3.17888e-08
-1.82533e-07
1.72892e-08
-1.81727e-07
9.99688e-09
-1.8148e-07
7.74389e-09
-1.81633e-07
6.02654e-09
-1.82014e-07
4.69861e-09
-1.81796e-07
2.3745e-11
-1.81581e-07
3.78712e-10
-4.77167e-10
-2.19067e-07
6.37109e-10
-2.25626e-07
1.10658e-08
-2.47877e-07
-2.8793e-09
-1.03342e-07
1.6646e-08
-2.43309e-07
-2.29186e-08
-2.05111e-07
3.88445e-09
-2.09844e-07
-3.84494e-09
-1.76775e-07
-8.31802e-09
-1.51083e-07
-3.87058e-08
-1.76388e-07
8.94851e-09
-2.13228e-07
-3.82124e-08
-1.69806e-07
-1.50607e-08
-1.72795e-07
-1.40322e-08
-2.26098e-07
9.49716e-09
-2.08365e-07
-2.11806e-08
-2.57379e-07
-1.85945e-09
-1.77703e-07
5.45745e-08
-2.55769e-07
-1.4825e-09
-2.03489e-07
6.73453e-09
-1.91015e-07
1.26161e-08
-1.71778e-07
1.9004e-08
-1.754e-07
3.56236e-08
-1.76002e-07
1.19764e-08
-6.92712e-08
3.04126e-08
-1.75882e-07
-2.81967e-08
-1.45122e-07
4.36179e-09
-1.32697e-07
7.38959e-10
-1.49192e-07
-2.04086e-08
-1.22016e-07
-7.23607e-09
-1.45293e-07
-1.09579e-08
-1.48927e-07
-6.85931e-09
-6.33823e-08
2.24321e-08
-1.72414e-07
-2.44524e-08
-1.85875e-07
1.72075e-08
-1.81912e-07
2.22604e-09
-1.80558e-07
4.85035e-08
-1.54167e-07
-7.93456e-10
-1.49523e-07
-1.18049e-08
-1.6767e-07
-2.62488e-08
-1.74625e-07
-1.97559e-08
-1.82761e-07
-1.04169e-08
-1.39751e-07
6.45139e-08
-1.15412e-07
-1.341e-08
-2.18206e-07
-6.43742e-09
-1.70217e-07
-2.87255e-10
-1.89092e-07
1.92516e-08
-1.7695e-07
-3.00366e-08
-1.81232e-07
-3.61038e-08
-1.71062e-07
-4.40959e-08
-2.01205e-07
-3.26823e-08
-1.99417e-07
1.94744e-08
-2.23077e-07
1.72922e-08
-2.26524e-07
-7.07727e-09
-2.35204e-07
7.01698e-09
-2.21257e-07
8.65139e-09
-1.99302e-07
2.80537e-08
-2.00107e-07
2.02889e-08
-2.02745e-07
8.52718e-09
-2.10568e-07
-1.17374e-08
-2.20657e-07
-1.98162e-08
-2.30279e-07
-2.13215e-08
-2.36906e-07
-1.84926e-08
-2.36497e-07
-9.90647e-09
-2.2802e-07
3.63568e-09
-2.14441e-07
1.69654e-08
-2.02161e-07
2.43511e-08
-1.92915e-07
2.25432e-08
-1.89716e-07
1.40901e-08
-1.88171e-07
8.45287e-09
-1.86263e-07
5.83606e-09
-1.84609e-07
4.37253e-09
-1.8314e-07
3.23059e-09
-1.82637e-07
-4.76925e-10
-1.82053e-07
-2.03694e-10
-6.05385e-10
-2.10817e-07
5.31589e-09
-2.16227e-07
-2.50044e-08
-2.13106e-07
-3.82682e-09
-1.45075e-07
-1.04299e-08
-1.90009e-07
2.03276e-08
-1.78172e-07
-7.95333e-09
-1.68984e-07
-1.30325e-08
-1.78398e-07
-7.24197e-10
-9.64413e-08
5.11075e-09
-2.05064e-07
-4.73626e-08
-2.15649e-07
-2.54272e-08
-1.86336e-07
-3.46528e-09
-1.80442e-07
-2.35248e-08
-2.31187e-07
1.57893e-08
-1.26338e-07
3.19084e-09
-2.11146e-07
2.12225e-09
-1.86559e-07
2.70008e-08
-2.00874e-07
1.28326e-08
-1.69411e-07
-2.47288e-08
-1.84635e-07
2.78407e-08
-1.7474e-07
7.32561e-09
-1.87294e-07
6.27053e-09
-1.59088e-07
2.71606e-08
-1.30109e-07
1.12358e-09
-1.62408e-07
4.10247e-09
-1.59321e-07
2.89944e-09
-1.55764e-07
-2.78174e-09
-1.72593e-07
-5.16854e-09
-1.61782e-07
-1.80479e-08
-1.66581e-07
-4.59387e-08
-1.54694e-07
2.20916e-08
-1.21838e-07
-1.23573e-08
-1.77014e-07
2.89177e-08
-2.05931e-07
4.21742e-09
-1.83376e-07
2.13805e-08
-1.84529e-07
7.83111e-09
-1.3152e-07
-1.04409e-08
-1.63841e-07
2.05157e-08
-1.46963e-07
-4.31262e-08
-1.87729e-07
2.07976e-08
-1.07659e-07
3.39515e-08
-2.0971e-07
6.47225e-10
-9.98527e-08
4.36688e-08
-2.19331e-07
-1.2356e-08
-1.07555e-07
1.13976e-08
-1.99783e-07
-5.33408e-08
-1.72738e-07