/*--------------------------------*- C++ -*----------------------------------*\
  =========                 |
  \\      /  F ield         | OpenFOAM: The Open Source CFD Toolbox
   \\    /   O peration     | Website:  https://openfoam.org
    \\  /    A nd           | Version:  12
     \\/     M anipulation  |
\*---------------------------------------------------------------------------*/
FoamFile
{
    format      ascii;
    class       surfaceScalarField;
    location    "0.35";
    object      phi.water_0;
}
// * * * * * * * * * * * * * * * * * * * * * * * * * * * * * * * * * * * * * //

dimensions      [0 3 -1 0 0 0 0];

internalField   nonuniform List<scalar> 
7375
(
8.92108e-08
1.94364e-08
4.16802e-08
5.90162e-09
5.80204e-08
2.47321e-08
6.96663e-08
-1.18211e-08
6.6828e-08
2.17875e-09
6.81515e-08
-1.32233e-09
6.60415e-08
2.76362e-09
6.97316e-08
-3.71852e-09
2.68945e-08
1.3963e-09
1.51633e-07
4.116e-08
1.52521e-07
-8.28097e-10
3.61029e-08
-4.94123e-08
8.27133e-08
-5.08256e-09
9.05373e-08
-6.90785e-09
5.83356e-08
-9.56774e-09
7.2539e-08
-1.47797e-08
6.93687e-08
3.19893e-09
8.63575e-08
2.42364e-08
5.26891e-08
3.41942e-08
1.37643e-07
4.0774e-08
2.70904e-08
-1.52746e-08
3.85545e-08
-1.14786e-08
3.58118e-08
2.78553e-09
3.50269e-08
7.43843e-10
3.56592e-08
-6.78243e-10
6.91892e-08
-3.3842e-08
4.44738e-08
-1.67774e-08
3.74502e-08
7.09941e-09
3.93662e-08
3.91813e-08
1.18493e-08
2.73185e-08
2.65856e-09
9.14103e-09
-5.5879e-09
8.19389e-09
-1.41835e-08
8.40939e-09
7.46171e-08
3.69306e-08
8.69102e-08
-1.39849e-08
1.1045e-08
-4.73369e-08
-1.9079e-08
3.05112e-08
6.03923e-08
4.49758e-08
5.44736e-08
6.02076e-09
6.65505e-08
-1.19535e-08
-7.56713e-08
-2.35248e-08
3.92235e-08
5.15075e-08
1.569e-08
2.36489e-08
5.36825e-08
-3.83948e-08
4.63837e-08
7.2581e-09
4.73533e-08
-9.96456e-10
4.09128e-08
6.41709e-09
3.5173e-08
5.42562e-09
2.7168e-08
8.196e-09
2.54903e-08
1.95323e-09
2.20497e-08
3.22719e-09
7.91383e-09
1.42471e-08
4.73979e-09
3.44933e-09
1.62294e-08
-1.15772e-08
2.16511e-08
-5.41763e-09
3.05346e-08
-8.90929e-09
4.03538e-08
-9.87197e-09
-1.23573e-08
1.14153e-08
2.41461e-08
4.55635e-09
-1.10951e-09
2.52905e-08
-1.49841e-08
1.37636e-08
-1.89974e-08
4.2271e-09
-1.81477e-08
-8.42115e-10
-2.18477e-08
3.50422e-09
-2.03075e-08
-1.32378e-09
-1.89193e-08
-1.18513e-09
-1.06572e-08
-8.26325e-09
5.01039e-09
-1.56674e-08
2.10179e-08
-1.60082e-08
3.09544e-08
-9.9358e-09
1.94308e-08
1.15233e-08
-1.41895e-08
3.36201e-08
-6.7713e-08
5.35219e-08
-1.18135e-07
5.04198e-08
1.24441e-08
-5.6019e-08
5.49847e-08
-8.01148e-08
2.93674e-08
-4.8557e-08
-7.32022e-09
-6.5701e-08
-3.6964e-08
-4.18692e-08
2.0497e-08
-9.72088e-08
5.40044e-08
-9.83846e-08
3.89996e-09
-9.44378e-08
-7.66477e-09
-1.03897e-07
1.09678e-08
-4.08341e-08
-2.1486e-08
-1.75876e-08
-2.40744e-08
-4.55536e-08
-2.14069e-08
-1.83713e-08
-3.25972e-08
-8.90975e-09
-1.64598e-08
-5.12566e-08
-9.02913e-09
-4.55432e-08
2.19743e-08
-3.46132e-08
-7.38153e-09
-3.76913e-09
-6.95684e-09
-3.61956e-08
6.72685e-08
-1.99382e-08
2.4101e-08
-2.49831e-08
-1.02297e-08
-5.94096e-08
2.21166e-08
-8.6581e-08
2.90646e-08
-1.09568e-07
2.46232e-08
-1.2531e-07
1.49031e-08
-6.7132e-08
3.37013e-08
-8.21132e-08
-1.11148e-09
-4.73691e-08
-2.71611e-08
-1.02166e-07
-2.81712e-08
-7.0905e-08
-4.97446e-09
-6.65465e-08
4.05896e-09
-8.88308e-08
3.01706e-08
-7.95455e-08
-8.76149e-10
-6.40528e-08
2.10612e-08
-8.82673e-08
1.03348e-08
-3.94506e-08
2.73991e-08
-1.59375e-07
-1.73715e-08
-1.05918e-07
-5.7742e-09
-7.21625e-08
1.4054e-08
-5.51606e-08
-2.99869e-08
-7.82041e-08
-1.84204e-09
-8.71204e-08
1.74393e-08
-1.79143e-07
-1.09976e-08
-7.80182e-08
2.99544e-08
-1.64362e-07
-3.00404e-08
-1.46654e-07
-1.72085e-08
-1.39689e-07
-5.4712e-10
-1.35706e-07
1.40234e-09
-1.18418e-07
-9.00996e-09
-8.7129e-08
-3.05631e-08
-8.56387e-08
1.73697e-09
-1.13481e-07
4.32479e-08
-9.93676e-08
-1.06992e-08
-1.08377e-07
-3.6179e-09
-1.15161e-07
1.36663e-09
-1.23922e-07
-1.48842e-10
-1.54687e-07
1.77373e-08
-2.1151e-07
2.56279e-08
-1.91306e-07
3.18211e-08
-1.76657e-07
1.2302e-08
-1.63285e-07
2.53509e-10
-1.55051e-07
-4.04975e-09
-1.45549e-07
-1.03439e-08
-1.36278e-07
-5.80262e-09
-1.32351e-07
-5.23789e-09
-1.26225e-07
-7.31171e-09
-1.17457e-07
-1.70316e-08
-1.08982e-07
-2.41425e-08
-9.98186e-08
-2.51723e-08
-9.48907e-08
-1.48635e-08
-1.03485e-07
2.01172e-08
-1.23773e-07
5.39081e-08
-1.40794e-07
7.05402e-08
-1.52038e-07
6.16617e-08
9.76413e-09
-1.46648e-07
-1.82847e-08
-1.721e-07
5.53856e-08
-1.76831e-07
3.70872e-08
-9.54417e-08
7.74917e-09
-8.65677e-08
1.25973e-08
-1.94574e-07
-1.90221e-09
-1.6393e-07
1.43168e-08
-1.75169e-07
1.16729e-10
-1.74691e-07
-3.14168e-08
-1.56426e-07
3.5113e-09
-1.6381e-07
-1.52652e-08
-1.66196e-07
-2.06987e-08
-1.7753e-07
-2.29762e-08
-1.65268e-07
-2.69103e-08
-1.47398e-07
-2.68061e-08
-1.82312e-07
1.52536e-08
-1.68973e-07
2.06837e-08
-7.05798e-08
1.84857e-08
-1.95984e-07
2.47902e-08
-1.64145e-07
3.57405e-08
-8.03626e-08
3.1246e-08
-1.45784e-07
-3.56437e-08
-1.46598e-07
2.7812e-08
-1.52387e-07
3.01607e-08
-1.45817e-07
8.33322e-09
-1.32317e-07
1.98576e-08
-1.50398e-07
1.69696e-08
-7.66521e-08
2.35313e-08
-1.15089e-07
9.97807e-09
-1.19475e-07
-6.39232e-10
-1.06776e-07
-7.5505e-09
-1.66095e-07
-3.36916e-08
-1.35304e-07
-3.37061e-08
-1.49041e-07
3.32777e-08
-1.63913e-07
2.5207e-08
-1.4821e-07
1.18563e-08
-2.09976e-07
2.66678e-09
-1.90366e-07
1.82373e-08
-1.82533e-07
4.50208e-09
-1.07004e-07
1.98951e-08
-1.05909e-07
-7.64595e-10
-1.81789e-07
-3.00388e-08
-1.90587e-07
-3.94118e-09
-1.61866e-07
9.27405e-10
-1.81013e-07
-1.08936e-08
-1.82837e-07
-1.53846e-08
-1.96895e-07
-2.79737e-08
-2.01381e-07
5.88876e-09
-2.17251e-07
6.76785e-09
-1.34266e-07
5.23699e-08
-1.35649e-07
3.12047e-09
-2.2976e-07
-2.85583e-08
-2.0259e-07
1.43373e-09
-1.98586e-07
-7.62123e-09
-2.05682e-07
1.05972e-08
-1.86679e-07
-1.91515e-08
-1.83517e-07
1.64467e-08
-1.94051e-07
3.72288e-08
-1.99773e-07
3.72249e-08
-2.13833e-07
2.63622e-08
-2.25939e-07
1.23595e-08
-2.26357e-07
-3.63205e-09
-2.2566e-07
-1.10411e-08
-2.1897e-07
-1.24926e-08
-2.13028e-07
-1.11806e-08
-2.07638e-07
-1.27028e-08
-2.03707e-07
-2.09626e-08
-2.02047e-07
-2.58028e-08
-2.01007e-07
-2.62132e-08
-2.0185e-07
-1.40203e-08
-2.01796e-07
2.00629e-08
-1.9504e-07
4.71518e-08
-1.78784e-07
5.4282e-08
-1.63908e-07
4.67831e-08
3.54687e-09
-1.42704e-07
3.10259e-08
-2.41064e-07
-1.38803e-08
-2.22643e-07
2.11273e-08
-1.27857e-07
7.96144e-08
-1.20166e-07
6.13278e-09
-2.0662e-07
-3.86295e-08
-1.8915e-07
-7.04431e-09
-2.23374e-07
-7.56522e-09
-2.2139e-07
1.0678e-08
-2.25648e-07
7.76933e-09
-2.30663e-07
-1.01465e-08
-2.3427e-07
-1.73019e-08
-2.31005e-07
-2.6007e-08
-2.11816e-07
-4.60988e-08
-1.37456e-07
2.44252e-08
-2.21175e-07
-2.42084e-08
-2.14299e-07
9.36513e-09
-1.14211e-07
4.52957e-08
-2.15669e-07
3.96984e-09
-1.93587e-07
1.14586e-08
-1.81864e-07
1.95234e-08
-1.04969e-07
1.26066e-08
-1.68516e-07
-3.18218e-08
-1.69563e-07
2.91904e-08
-1.69711e-07
8.48142e-09
-1.64847e-07
1.49937e-08
-1.62272e-07
1.43944e-08
-1.28952e-07
-9.78841e-09
-1.29023e-07
1.00489e-08
-1.35661e-07
5.99931e-09
-1.45726e-07
2.53967e-09
-1.68849e-07
-1.26341e-08
-1.0533e-07
2.84955e-08
-1.85774e-07
-9.64173e-09
-1.84086e-07
2.32611e-08
-1.80322e-07
8.09286e-09
-2.03669e-07
2.59858e-08
-1.84031e-07
-1.38613e-09
-1.77808e-07
-1.72067e-09
-1.63401e-07
5.28411e-09
-1.61849e-07
-2.31615e-09
-1.85515e-07
-6.6789e-09
-1.90332e-07
8.75056e-10
-1.79637e-07
-9.76738e-09
-1.7485e-07
-1.56803e-08
-1.62267e-07
-2.82561e-08
-2.03511e-07
1.32706e-08
-2.01219e-07
3.59739e-09
-1.99971e-07
5.52024e-09
-1.59215e-07
1.1614e-08
-1.62389e-07
6.29392e-09
-2.00479e-07
9.436e-09
-1.93581e-07
-5.40883e-09
-1.94051e-07
-9.05306e-09
-2.13237e-07
-1.21238e-08
-2.0963e-07
2.11123e-08
-1.89064e-07
-2.19082e-09
-1.80393e-07
3.0449e-08
-1.82552e-07
3.93834e-08
-1.91406e-07
3.52166e-08
-2.02027e-07
2.29797e-08
-2.10344e-07
4.68556e-09
-2.13844e-07
-7.54123e-09
-2.15346e-07
-1.09912e-08
-2.19171e-07
-7.35628e-09
-2.24371e-07
-7.50301e-09
-2.26186e-07
-1.91487e-08
-2.24775e-07
-2.72136e-08
-2.24641e-07
-2.63477e-08
-2.2613e-07
-1.25318e-08
-2.21019e-07
1.49518e-08
-2.05495e-07
3.16267e-08
-1.85673e-07
3.44574e-08
-1.68609e-07
2.97166e-08
-1.04973e-10
-2.20785e-07
-2.58815e-08
-2.46355e-07
9.58107e-09
-2.43369e-07
1.56588e-08
-1.97205e-07
-8.45509e-09
-2.00565e-07
1.15056e-08
-2.17162e-07
1.90527e-08
-2.44224e-07
2.02242e-08
-2.50241e-07
-1.47054e-09
-2.11322e-07
-2.82399e-08
-2.264e-07
2.49029e-08
-2.34626e-07
-1.91999e-09
-2.47013e-07
-7.30868e-09
-2.43095e-07
-2.96224e-08
-1.61454e-07
-1.65441e-09
-2.28191e-07
-3.20187e-08
-2.36464e-07
-1.85095e-08
-2.34445e-07
7.34638e-09
-1.7389e-07
-1.57216e-08
-1.95241e-07
2.51056e-08
-1.927e-07
8.91713e-09
-1.89293e-07
1.61171e-08
-1.79267e-07
2.58102e-09
-1.02236e-07
1.63036e-08
-1.76273e-07
-1.99539e-08
-1.636e-07
-5.9896e-09
-1.60745e-07
1.21387e-08
-1.45402e-07
-9.48757e-10
-1.26636e-07
-2.88484e-08
-1.45741e-07
2.91536e-08
-1.50725e-07
9.44538e-09
-1.86107e-07
-3.98503e-09
-1.74135e-07
1.87716e-08
-1.61718e-07
1.57878e-08
-1.6763e-07
-3.72914e-09
-1.60279e-07
1.59098e-08
-1.6518e-07
1.2994e-08
-1.81012e-07
2.18503e-09
-1.58557e-07
1.72189e-08
-1.60459e-07
-1.43614e-09
-1.56953e-07
1.77812e-09
-1.62094e-07
2.82517e-09
-1.64559e-07
-4.21432e-09
-1.57229e-07
-6.45486e-09
-1.64939e-07
-2.05698e-09
-1.85669e-07
3.15486e-09
-1.07757e-07
1.95528e-08
-1.92947e-07
-2.4878e-08
-1.77745e-07
-1.16048e-08
-1.64645e-07
-7.57881e-09
-1.59366e-07
6.33522e-09
-1.54192e-07
2.69286e-09
-1.48976e-07
5.78247e-09
-1.37738e-07
-1.81511e-08
-1.5664e-07
8.44446e-09
-1.7652e-07
6.01769e-09
-1.96145e-07
-1.1578e-09
-1.61659e-07
8.54074e-09
-1.79855e-07
5.02613e-08
-1.81135e-07
4.0663e-08
-1.84022e-07
3.81037e-08
-1.90965e-07
2.99229e-08
-2.04297e-07
1.80169e-08
-2.19613e-07
7.77455e-09
-2.33099e-07
2.49524e-09
-2.40995e-07
5.3898e-10
-2.40359e-07
-8.13991e-09
-2.32171e-07
-2.73364e-08
-2.24337e-07
-3.5048e-08
-2.18261e-07
-3.24248e-08
-2.16198e-07
-1.45949e-08
-2.10478e-07
9.23106e-09
-1.97319e-07
1.84667e-08
-1.83434e-07
2.05699e-08
-1.71788e-07
1.8068e-08
-7.83326e-10
-2.08358e-07
-3.4381e-08
-2.31245e-07
3.42459e-08
-2.30022e-07
1.44371e-08
-2.28211e-07
3.13001e-08
-2.26416e-07
9.71133e-09
-2.17847e-07
8.26133e-09
-2.28276e-07
-1.12527e-08
-2.40394e-07
1.29768e-08
-1.47632e-07
4.64219e-08
-2.28679e-07
-1.72308e-08
-2.10042e-07
-2.291e-08
-2.19679e-07
-3.69096e-08
-1.98185e-07
-1.00556e-08
-1.8976e-07
-1.21003e-08
-1.90633e-07
-3.11547e-08
-1.97847e-07
-1.12956e-08
-2.19055e-07
-1.2924e-08
-1.03251e-07
3.5445e-08
-1.72191e-07
-2.9136e-08
-1.57329e-07
-7.70063e-09
-1.43622e-07
2.41033e-09
-1.49302e-07
8.34558e-09
-1.26311e-07
-6.6868e-09
-1.41545e-07
-4.92345e-09
-1.37592e-07
-1.00445e-08
-1.73285e-07
4.78319e-08
-1.86337e-07
1.0202e-08
-1.05469e-07
1.60044e-08
-1.75199e-07
-6.5958e-08
-1.64952e-07
4.02671e-08
-1.8119e-07
1.22932e-08
-1.7476e-07
1.23423e-08
-1.63337e-07
4.36432e-09
-1.51503e-07
-1.57239e-08
-1.88618e-07
5.30247e-08
-1.93564e-07
1.79404e-08
-1.95899e-07
4.51982e-09
-1.71149e-07
-7.28106e-09
-1.78636e-07
6.05087e-09
-1.50093e-07
-2.70406e-08
-1.7861e-07
3.13414e-08
-1.78605e-07
-4.21868e-09
-1.39849e-07
-4.5211e-08
-1.64523e-07
2.23887e-08
-1.72672e-07
1.13036e-08
-1.60165e-07
6.8471e-09
-1.8431e-07
-7.33148e-10
-1.82141e-07
-1.37742e-08
-1.60777e-07
-2.92409e-08
-1.83595e-07
2.91536e-08
-1.80577e-07
-2.16725e-09
-1.93604e-07
-2.30372e-08
-1.8919e-07
2.07042e-08
-1.90547e-07
1.17453e-08
-1.84094e-07
1.424e-09
-1.98508e-07
9.4049e-09
-1.12252e-07
4.71158e-08
-1.89862e-07
8.249e-09
-1.76325e-07
2.71258e-08
-1.73015e-07
3.47942e-08
-1.75243e-07
3.21508e-08
-1.83875e-07
2.66482e-08
-1.96879e-07
2.07785e-08
-2.12321e-07
1.79375e-08
-2.20649e-07
8.86611e-09
-2.16138e-07
-1.26514e-08
-2.08621e-07
-3.48538e-08
-2.04559e-07
-3.91107e-08
-2.03532e-07
-3.34513e-08
-2.04276e-07
-1.38514e-08
-1.98256e-07
3.21033e-09
-1.88987e-07
9.19571e-09
-1.81161e-07
1.27414e-08
-1.74514e-07
1.14191e-08
-2.1712e-10
-1.1494e-07
1.10801e-08
-2.11188e-07
7.24076e-09
-2.09278e-07
1.03739e-08
-1.99783e-07
2.1806e-08
-2.033e-07
1.32291e-08
-1.939e-07
-1.13886e-09
-1.74691e-07
-3.03464e-08
-1.72071e-07
1.03578e-08
-1.68713e-07
4.30642e-08
-1.80737e-07
-5.38256e-09
-1.65319e-07
-3.83276e-08
-1.81082e-07
-2.1147e-08
-1.663e-07
-2.49399e-08
-1.70155e-07
-4.79882e-08
-1.53775e-07
-6.47353e-09
-1.55667e-07
-1.09728e-08
-1.69348e-07
7.57837e-10
-1.326e-07
-1.30346e-09
-1.51712e-07
-1.03207e-08
-1.52265e-07
-7.14777e-09
-1.50361e-07
-1.02728e-09
-1.74579e-07
-9.44073e-09
-1.61601e-07
2.35959e-08
-2.00462e-07
3.22213e-08
-1.2204e-07
3.72547e-08
-2.23968e-07
-1.49126e-08
-2.09272e-07
-4.49444e-09
-2.02593e-07
9.16289e-09
-1.48574e-07
4.74561e-08
-1.95348e-07
-3.57794e-08
-1.8938e-07
4.33225e-09
-1.85149e-07
8.11174e-09
-1.93797e-07
1.1035e-08
-1.13027e-07
2.92274e-08
-2.16362e-07
-8.40482e-09
-1.98037e-07
-3.85309e-10
-1.9972e-07
8.24071e-09
-1.85209e-07
1.92687e-08
-2.04627e-07
2.14919e-08
-1.25712e-07
1.97642e-08
-2.18473e-07
-4.05322e-08
-2.19436e-07
-3.25575e-09
-1.22448e-07
2.49678e-08
-2.11066e-07
-1.20528e-08
-1.99375e-07
-2.54025e-09
-1.95546e-07
3.01766e-09
-1.96797e-07
5.18378e-10
-2.09458e-07
-3.25062e-09
-1.26191e-07
1.32134e-08
-2.26258e-07
-3.54096e-08
-1.92383e-07
5.43741e-09
-1.8505e-07
-3.04456e-08
-1.81555e-07
1.72094e-08
-2.0059e-07
3.04698e-08
-2.05707e-07
6.62337e-09
-2.02309e-07
6.16556e-09
-1.88061e-07
3.23876e-08
-1.91391e-07
1.36153e-08
-1.74602e-07
1.22502e-08
-1.70253e-07
3.04458e-08
-1.69492e-07
3.1389e-08
-1.7299e-07
3.01467e-08
-1.77827e-07
2.56148e-08
-1.81207e-07
2.13177e-08
-1.79259e-07
6.91716e-09
-1.74001e-07
-1.79093e-08
-1.75505e-07
-3.33501e-08
-1.80303e-07
-3.43131e-08
-1.89443e-07
-2.43125e-08
-1.93997e-07
-9.29703e-09
-1.91259e-07
4.70918e-10
-1.85963e-07
3.89806e-09
-1.81811e-07
8.58712e-09
-1.77375e-07
6.98072e-09
6.41042e-11
-1.0153e-07
3.2564e-09
-2.14974e-07
-2.39731e-09
-2.06674e-07
-1.18767e-10
-2.0238e-07
1.75132e-08
-2.03688e-07
1.43904e-08
-2.10422e-07
5.59552e-09
-1.12719e-07
-3.64725e-09
-1.31565e-07
2.9204e-08
-2.02158e-07
-5.226e-08
-1.8629e-07
-2.12505e-08
-1.72606e-07
-1.05314e-08
-1.79956e-07
-1.37972e-08
-1.71738e-07
-3.31572e-08
-1.73859e-07
-4.63402e-08
-1.71311e-07
-9.08721e-09
-1.88496e-07
6.21222e-09
-1.97123e-07
9.48145e-09
-1.74716e-07
-2.37103e-08
-1.76059e-07
-8.97719e-09
-1.81525e-07
-1.66499e-09
-1.65933e-07
-1.85004e-08
-2.24529e-07
4.92532e-08
-2.11425e-07
1.06254e-08
-2.47508e-07
2.6672e-08
-2.08703e-07
4.20743e-08
-2.34095e-07
1.04801e-08
-2.26564e-07
-1.20261e-08
-2.39674e-07
2.20484e-08
-2.23011e-07
-8.41089e-09
-2.31452e-07
1.336e-08
-2.23923e-07
-5.50135e-09
-2.17072e-07
1.26091e-09
-2.10159e-07
4.12151e-09
-1.89257e-07
8.02712e-09
-2.28782e-07
-1.03587e-08
-2.03293e-07
1.56048e-08
-2.04601e-07
9.54898e-09
-1.77939e-07
-7.27143e-09
-1.9924e-07
4.27931e-08
-2.0018e-07
2.05024e-08
-1.97359e-07
-4.33533e-08
-2.0829e-07
7.59796e-09
-1.64788e-07
-1.70267e-08
-1.9752e-07
2.03514e-08
-2.07948e-07
5.87369e-09
-2.05526e-07
5.95256e-10
-2.04014e-07
-9.93117e-10
-2.2577e-07
1.85052e-08
-1.80715e-07
-3.19762e-08
-2.19124e-07
2.96879e-09
-2.14726e-07
-1.15115e-09
-1.40954e-07
2.15039e-08
-1.34493e-07
1.35581e-08
-2.13374e-07
-1.59847e-08
-2.25394e-07
1.41203e-08
-2.28549e-07
1.16442e-08
-2.33987e-07
-1.32218e-09
-2.38657e-07
2.07205e-08
-1.99178e-07
1.58066e-08
-1.88322e-07
1.95898e-08
-1.80399e-07
2.34668e-08
-1.7505e-07
2.47968e-08
-1.71592e-07
2.21568e-08
-1.66708e-07
1.64342e-08
-1.6156e-07
1.76809e-09
-1.60261e-07
-1.92085e-08
-1.66764e-07
-2.68478e-08
-1.7515e-07
-2.59278e-08
-1.83832e-07
-1.56301e-08
-1.86466e-07
-6.66412e-09
-1.857e-07
-2.95883e-10
-1.83264e-07
1.46039e-09
-1.81006e-07
6.32705e-09
-1.79026e-07
4.99803e-09
3.2709e-10
-1.04496e-07
2.66078e-08
-1.96537e-07
-3.25048e-08
-1.95151e-07
-3.50869e-09
-1.95186e-07
1.95407e-08
-1.86735e-07
5.93966e-09
-1.97505e-07
1.24456e-08
-8.43462e-08
8.91549e-09
-2.06198e-07
-1.40005e-08
-1.88034e-07
-2.89445e-08
-1.83494e-07
-2.57906e-08
-1.7057e-07
-2.36968e-08
-2.06453e-07
2.20862e-08
-2.15473e-07
-2.63356e-08
-1.45953e-07
9.86133e-09
-2.26971e-07
-5.15439e-08
-2.34302e-07
1.11527e-08
-2.46328e-07
-2.03994e-08
-2.13184e-07
-1.29946e-08
-2.1431e-07
-5.66417e-09
-2.17116e-07
-1.05157e-09
-1.38186e-07
2.6053e-08
-2.40393e-07
-1.35502e-08
-2.36951e-07
4.57789e-08
-2.56919e-07
4.50396e-09
-2.51496e-07
8.07524e-08
-2.69843e-07
2.88273e-08
-1.77341e-07
2.14993e-08
-2.59179e-07
-1.92945e-08
-2.61822e-07
-8.41162e-09
-2.82383e-07
-4.54211e-09
-2.52233e-07
5.35571e-09
-2.52377e-07
-1.16807e-09
-2.42645e-07
-5.61117e-09
-2.40719e-07
6.10143e-09
-2.29855e-07
-2.10087e-08
-2.01686e-07
-1.26931e-08
-2.51148e-07
5.64487e-08
-1.54624e-07
2.19247e-08
-2.25302e-07
-5.13932e-08
-2.38962e-07
3.41628e-08
-1.53493e-07
3.86612e-08
-2.53017e-07
-1.86152e-08
-1.52457e-07
7.09779e-09
-2.5085e-07
-2.66521e-09
-2.45821e-07
-1.71397e-09
-2.44774e-07
-4.52273e-10
-2.48536e-07
2.76948e-09
-2.6093e-07
-1.05804e-08
-1.4016e-07
1.44542e-08
-2.22328e-07
-3.8045e-08
-1.94012e-07
-3.17343e-08
-1.38373e-07
-3.43553e-08
-1.51095e-07
2.60156e-08
-1.76581e-07
9.33832e-09
-1.85587e-07
2.29816e-08
-2.01895e-07
2.78336e-08
-2.15567e-07
1.23502e-08
-2.34194e-07
2.57055e-10
-1.87369e-07
1.20937e-08
-1.80255e-07
1.24763e-08
-1.70763e-07
1.3975e-08
-1.6382e-07
1.78531e-08
-1.62979e-07
2.13159e-08
-1.65378e-07
1.88332e-08
-1.70022e-07
6.41192e-09
-1.73928e-07
-1.53028e-08
-1.77592e-07
-2.31841e-08
-1.81349e-07
-2.21716e-08
-1.85101e-07
-1.18785e-08
-1.86745e-07
-5.02053e-09
-1.85685e-07
-1.35669e-09
-1.84908e-07
6.82028e-10
-1.82693e-07
4.1089e-09
-1.80749e-07
3.05218e-09
1.10209e-10
-1.47942e-07
8.30465e-09
-1.7295e-07
-7.82754e-09
-1.86373e-07
9.91586e-09
-1.73839e-07
7.00782e-09
-1.75447e-07
7.60845e-09
-1.93917e-07
3.06035e-08
-9.17459e-08
3.10923e-08
-2.26274e-07
-4.53897e-08
-1.97893e-07
-1.58461e-08
-2.15856e-07
-1.00289e-08
-1.28236e-07
1.44037e-08
-2.36094e-07
-3.46647e-08
-2.43806e-07
2.30919e-08
-2.31717e-07
-4.69197e-09
-1.74603e-07
1.70626e-08
-2.66561e-07
-1.9747e-08
-2.73583e-07
-1.61247e-08
-2.10437e-07
4.958e-08
-2.2533e-07
1.13758e-08
-2.38801e-07
1.24092e-08
-2.19922e-07
6.90794e-09
-2.31284e-07
1.71835e-10
-3.00664e-07
-1.10595e-08
-2.18878e-07
4.52941e-08
-2.8513e-07
-1.65114e-08
-2.80001e-07
2.68284e-08
-2.30136e-07
1.26953e-08
-2.46395e-07
-5.58085e-09
-2.50395e-07
-4.41159e-09
-2.72217e-07
-2.14225e-08
-2.36495e-07
1.07487e-08
-2.36459e-07
-3.61659e-09
-2.22135e-07
-1.99358e-08
-2.24146e-07
-3.10799e-08
-2.19854e-07
1.34042e-08
-1.4175e-07
3.26571e-08
-2.44379e-07
-5.39334e-09
-2.32406e-07
4.88366e-08
-1.5217e-07
-5.90874e-09
-2.47421e-07
6.52842e-09
-2.10724e-07
1.96406e-09
-2.16256e-07
-1.34106e-08
-1.46174e-07
6.28728e-08
-2.35179e-07
-3.68678e-08
-2.28715e-07
-1.05776e-08
-2.27738e-07
-1.42902e-09
-2.22021e-07
-4.39781e-08
-2.24294e-07
-6.01935e-09
-1.75398e-07
6.61928e-09
-1.92422e-07
-2.31987e-08
-1.98187e-07
-2.59694e-08
-8.64425e-08
-2.07793e-08
-1.77824e-07
-5.72595e-09
-1.78578e-07
8.27772e-09
-1.68046e-07
1.23235e-08
-1.66678e-07
2.64657e-08
-1.69629e-07
1.53017e-08
-1.86944e-07
1.75719e-08
-1.73873e-07
9.2038e-10
-1.57687e-07
-1.99181e-09
-1.45981e-07
2.26982e-09
-1.35327e-07
7.19873e-09
-1.30757e-07
1.6746e-08
-1.31611e-07
1.96866e-08
-1.37308e-07
1.21084e-08
-1.49097e-07
-3.51421e-09
-1.57142e-07
-1.51397e-08
-1.63e-07
-1.63135e-08
-1.71057e-07
-3.82191e-09
-1.77726e-07
1.64756e-09
-1.80723e-07
1.63969e-09
-1.82279e-07
2.2365e-09
-1.81739e-07
3.56645e-09
-1.81318e-07
2.62903e-09
-1.39143e-11
-1.82659e-07
1.62556e-08
-1.63939e-07
-2.65467e-08
-1.76513e-07
2.22644e-08
-1.82329e-07
1.28249e-08
-1.68917e-07
-4.12248e-09
-1.7297e-07
3.46574e-08
-1.51383e-07
7.74073e-09
-1.80687e-07
-1.6085e-08
-1.72628e-07
-2.39048e-08
-1.61451e-07
-2.09921e-08
-1.46864e-07
-3.29614e-10
-1.80951e-07
-2.42384e-09
-1.99616e-07
-1.49289e-10
-1.87211e-07
2.64189e-08
-1.71424e-07
-6.53678e-10
-2.36935e-07
4.33217e-08
-1.68107e-07
4.32105e-08
-2.22489e-07
-1.94652e-08
-2.3742e-07
2.63061e-08
-2.56861e-07
3.18511e-08
-2.448e-07
-5.1535e-09
-2.42108e-07
-2.51994e-09
-2.55105e-07
1.82526e-09
-2.22442e-07
1.44378e-08
-2.60359e-07
1.87774e-08
-2.83985e-07
5.80367e-09
-2.50524e-07
2.37406e-08
-2.1677e-07
-3.93348e-08
-2.34946e-07
1.3764e-08
-2.38736e-07
-1.76324e-08
-2.17214e-07
-1.06629e-08
-2.14291e-07
-6.54009e-09
-2.00295e-07
-3.39317e-08
-1.84454e-07
-4.5039e-08
-1.81808e-07
1.07843e-08
-1.66954e-07
1.56151e-08
-2.00901e-07
2.8554e-08
-2.21189e-07
2.76453e-08
-1.18975e-07
5.78546e-08
-2.30651e-07
-6.23307e-09
-2.27935e-07
-3.07704e-09
-1.35633e-07
2.00075e-08
-2.03383e-07
-3.39104e-08
-1.88076e-07
-1.10719e-08
-1.81052e-07
-1.76014e-08
-2.09259e-07
-1.26957e-08
-1.84251e-07
-2.79259e-08
-2.0372e-07
1.14526e-08
-1.86571e-07
-1.04618e-08
-1.96522e-07
-1.33844e-08
-1.96096e-07
-2.63945e-08
-7.29512e-08
-1.8742e-08
-1.74464e-07
-2.71781e-08
-1.64297e-07
-1.99291e-09
-1.51212e-07
-7.6097e-10
-1.19073e-07
-7.29066e-09
-1.36479e-07
3.2377e-08
-1.51916e-07
3.3009e-08
-1.64651e-07
1.36556e-08
-1.60807e-07
-4.21536e-09
-1.48714e-07
-8.2152e-09
-1.35953e-07
-5.56306e-09
-1.20267e-07
1.06005e-09
-1.09768e-07
9.18782e-09
-1.09783e-07
1.21229e-08
-1.24479e-07
1.11814e-08
-1.45573e-07
5.95397e-09
-1.641e-07
2.21331e-09
-1.75278e-07
7.35562e-09
-1.81506e-07
7.87482e-09
-1.84521e-07
4.65393e-09
-1.85254e-07
2.96834e-09
-1.83205e-07
1.51503e-09
-1.82282e-07
1.70286e-09
-2.58167e-10
-2.3509e-07
4.80813e-09
-1.37494e-07
4.31788e-08
-2.25603e-07
-1.28069e-08
-2.2371e-07
6.3486e-09
-1.39365e-07
3.68738e-08
-2.15517e-07
-1.18523e-08
-1.97465e-07
-1.03113e-08
-1.9511e-07
-1.82534e-08
-2.12064e-07
-4.62663e-08
-1.76539e-07
-1.54566e-08
-1.65045e-07
-1.3624e-08
-1.64228e-07
-3.24144e-09
-1.72121e-07
7.66745e-09
-1.68448e-07
2.08154e-08
-9.13709e-08
4.75006e-08
-1.90892e-07
1.87047e-08
-1.88782e-07
3.83427e-08
-1.25475e-07
4.251e-08
-2.19022e-07
-3.30472e-09
-2.37639e-07
8.98899e-09
-2.13967e-07
1.26536e-08
-2.2233e-07
5.78448e-09
-2.12175e-07
-8.41566e-09
-2.12032e-07
1.42951e-08
-2.27004e-07
3.58909e-08
-2.1795e-07
-3.30851e-09
-2.16733e-07
-2.118e-08
-9.93544e-08
9.20453e-09
-2.107e-07
-4.08076e-08
-1.92831e-07
6.03948e-09
-1.78398e-07
-2.53545e-08
-2.11506e-07
2.65683e-08
-2.17244e-07
-2.81943e-08
-1.1416e-07
-2.25198e-08
-2.12963e-07
-1.33511e-08
-2.07644e-07
8.12395e-09
-2.08569e-07
2.94791e-08
-2.05865e-07
2.49416e-08
-1.78826e-07
3.08148e-08
-1.79861e-07
-5.19763e-09
-1.78709e-07
-4.22922e-09
-1.53144e-07
-5.76192e-09
-1.75468e-07
-1.15859e-08
-1.75128e-07
-1.14119e-08
-1.68184e-07
-2.65318e-08
-2.59464e-07
3.66773e-08
-1.51812e-07
3.42506e-08
-2.21514e-07
-4.16063e-08
-2.0411e-07
-3.22075e-08
-1.91478e-07
-6.72311e-08
-1.80446e-07
-3.54723e-08
-1.07463e-07
3.38095e-08
-1.82343e-07
-7.65276e-08
-1.75351e-07
-1.0845e-08
-2.03932e-07
2.57325e-08
-1.18393e-07
3.41113e-08
-1.75927e-07
-3.2402e-08
-1.6993e-07
2.49625e-08
-1.60576e-07
4.30123e-09
-1.54791e-07
-8.33578e-09
-1.43021e-07
-1.84382e-08
-1.35194e-07
-1.33901e-08
-1.28746e-07
-5.38751e-09
-1.24814e-07
5.25512e-09
-1.29484e-07
1.67927e-08
-1.4348e-07
2.51771e-08
-1.61407e-07
2.38811e-08
-1.74144e-07
1.49491e-08
-1.78467e-07
1.1678e-08
-1.80255e-07
9.66296e-09
-1.81817e-07
6.21515e-09
-1.83223e-07
4.37248e-09
-1.82564e-07
8.53393e-10
-1.82252e-07
1.38913e-09
-2.64006e-10
-2.19777e-07
5.13953e-09
-1.81907e-07
5.31039e-09
-1.94773e-07
-7.00677e-11
-1.9153e-07
5.05986e-09
-1.50001e-07
-5.07758e-09
-2.01077e-07
3.76932e-08
-1.75429e-07
-3.41687e-08
-1.98556e-07
4.82462e-09
-2.21179e-07
-2.5669e-08
-2.03708e-07
-3.30845e-08
-1.84677e-07
-3.2655e-08
-1.73778e-07
-1.23678e-08
-1.49431e-07
-1.51697e-08
-1.06108e-07
-2.31797e-08
-7.46521e-08
1.5248e-08
-8.55574e-08
2.94231e-08
-7.24345e-08
2.50874e-08
-5.86411e-08
2.75559e-08
-9.68063e-08
3.39164e-08
-1.28464e-07
4.06464e-08
-1.58311e-07
4.41166e-08
-1.73691e-07
1.94105e-08
-1.12622e-07
5.44455e-08
-1.37563e-07
4.13665e-08
-2.01778e-07
-2.30747e-08
-1.87242e-07
-1.99368e-08
-1.80902e-07
-2.752e-08
-1.37638e-07
-3.44113e-08
-1.83796e-07
3.47621e-09
-1.98355e-07
1.8747e-08
-1.13551e-07
1.76068e-08
-2.23077e-07
-2.86651e-08
-1.95485e-07
-1.43071e-08
-9.63067e-08
3.723e-09
-2.0225e-07
-3.07238e-08
-2.13685e-07
1.7495e-08
-2.05001e-07
2.07951e-08
-1.98098e-07
1.8039e-08
-1.74494e-07
7.21114e-09
-1.68751e-07
-1.0941e-08
-1.66191e-07
-6.78899e-09
-1.70628e-07
-1.32504e-09
-1.74223e-07
-7.99097e-09
-1.89894e-07
2.32151e-09
-1.20741e-07
3.00359e-08
-2.28774e-07
-2.03495e-08
-1.90871e-07
-1.70489e-09
-1.79805e-07
-1.20314e-08
-1.87725e-07
-2.42069e-08
-1.98835e-07
-1.43815e-08
-1.25322e-07
1.34241e-08
-2.28978e-07
-3.04768e-08
-1.60131e-07
2.12449e-08
-1.44922e-07
-2.44205e-08
-2.20908e-07
-2.27197e-08
-2.1666e-07
2.73055e-08
-1.39996e-07
1.77639e-08
-2.04794e-07
-3.16874e-08
-1.77072e-07
-2.34641e-08
-1.55944e-07
-2.76103e-08
-1.47421e-07
-2.69611e-08
-1.42807e-07
-1.80043e-08
-1.43045e-07
-5.14966e-09
-1.49641e-07
1.18511e-08
-1.62398e-07
2.95485e-08
-1.74036e-07
3.68151e-08
-1.83149e-07
3.29936e-08
-1.86568e-07
1.83677e-08
-1.85918e-07
1.10279e-08
-1.84394e-07
8.13844e-09
-1.84217e-07
6.03764e-09
-1.84306e-07
4.46009e-09
-1.83773e-07
3.17894e-10
-1.8302e-07
6.33488e-10
-6.06995e-10
-2.35064e-07
9.40229e-09
-2.24096e-07
-5.65599e-09
-1.97781e-07
-2.63841e-08
-2.3476e-07
3.92436e-08
-1.35367e-07
2.14195e-08
-2.61614e-07
-5.96285e-10
-1.6122e-07
3.29999e-08
-2.41897e-07
-3.76308e-08
-2.38809e-07
-3.12246e-08
-2.32377e-07
-3.95162e-08
-2.10149e-07
-5.48825e-08
-2.40937e-07
1.82337e-08
-2.39108e-07
-1.97945e-08
-1.58836e-07
2.20306e-08
-1.6174e-07
2.13603e-08
-2.03935e-07
-5.17896e-08
-1.97622e-07
1.69505e-08
-1.91735e-07
2.41528e-08
-1.84869e-07
2.70505e-08
-1.88511e-07
4.24021e-08
-1.90002e-07
4.56083e-08
-1.10963e-07
6.5007e-08
-9.51855e-08
3.90842e-08
-1.62023e-07
-1.49773e-08
-1.47284e-07
-4.01113e-08
-1.77017e-07
9.79638e-09
-1.81776e-07
-2.4367e-08
-9.58775e-08
5.41114e-09
-1.77238e-07
-4.04316e-08
-1.80954e-07
-1.96369e-08
-1.42454e-07
2.2253e-08
-1.69238e-07
-1.88147e-09
-1.47884e-07
-3.60284e-08
-1.32915e-07
-1.12467e-08
-1.71812e-07
7.86074e-09
-2.13978e-07
5.96606e-08
-1.98767e-07
5.58412e-09
-1.90775e-07
1.00467e-08
-1.80985e-07
-2.57824e-09
-1.79666e-07
-1.22603e-08
-1.94557e-07
8.10153e-09
-1.84175e-07
-1.15885e-08
-1.94675e-07
2.50948e-09
-1.74679e-07
-1.78564e-08
-1.93573e-07
4.86236e-08
-2.07234e-07
-6.6885e-09
-1.94331e-07
-1.46081e-08
-1.64303e-07
-4.21818e-08
-1.62427e-07
-2.60833e-08
-1.40748e-07
-3.65799e-08
-1.4982e-07
2.40237e-08
-1.64327e-07
-1.43097e-08
-1.53126e-07
8.25287e-09
-8.47144e-08
3.00441e-08
-1.09317e-07
1.88309e-09
-1.90159e-07
-1.62907e-08
-1.78483e-07
7.6496e-09
-1.93187e-07
-1.5199e-08
-1.94868e-07
-2.15492e-08
-1.95707e-07
-2.67705e-08
-1.94338e-07
-2.83306e-08
-1.88394e-07
-2.39482e-08
-1.84061e-07
-9.48247e-09
-1.838e-07
1.15894e-08
-1.84576e-07
3.03249e-08
-1.84571e-07
3.68093e-08
-1.83926e-07
3.2348e-08
-1.83422e-07
1.78639e-08
-1.82594e-07
1.01991e-08
-1.82331e-07
7.87526e-09
-1.82469e-07
6.1744e-09
-1.8286e-07
4.84994e-09
-1.8267e-07
1.24868e-10
-1.82459e-07
4.20899e-10
-4.915e-10
-2.44221e-07
-5.67616e-09
-2.17436e-07
-3.24398e-08
-1.248e-07
4.81714e-08
-2.33585e-07
2.22645e-08
-1.29791e-07
4.07185e-08
-2.37564e-07
-1.59373e-08
-1.95137e-07
-9.42721e-09
-2.09667e-07
-2.3484e-08
-2.05841e-07
-3.50509e-08
-2.2008e-07
-6.74441e-08
-1.17577e-07
9.73134e-09
-2.3334e-07
8.37495e-09
-1.65291e-07
3.54724e-08
-1.34234e-07
-6.25999e-09
-2.20216e-07
-1.80621e-08
-1.86205e-07
3.71159e-08
-2.73288e-07
-2.12928e-08
-2.49605e-07
4.70394e-10
-2.28765e-07
9.03226e-09
-1.99998e-07
1.36358e-08
-1.792e-07
2.48104e-08
-1.28115e-07
1.40654e-08
-1.31346e-07
4.2315e-08
-1.59754e-07
1.16488e-08
-9.03177e-08
1.61733e-08
-1.94082e-07
-4.94551e-08
-1.61901e-07
-1.5333e-08
-1.33814e-07
-2.43821e-08
-1.55127e-07
-1.91187e-08
-1.32898e-07
-4.16658e-08
-1.35187e-07
2.42943e-08
-1.61704e-07
2.29857e-08
-1.05991e-07
3.39793e-08
-1.08492e-07
-7.74357e-09
-1.16624e-07
1.5993e-08
-1.88174e-07
-3.50646e-08
-1.82024e-07
4.09139e-08
-1.71642e-07
-3.35712e-10
-1.7252e-07
-1.69963e-09
-1.70195e-07
-1.45854e-08
-1.92539e-07
-8.97845e-09
-1.63821e-07
7.62183e-10
-1.99314e-07
3.39519e-08
-1.2435e-07
3.29002e-08
-2.05364e-07
-3.50112e-08
-1.73869e-07
-3.85772e-08
-1.91533e-07
3.05552e-09
-1.82217e-07
-1.00177e-08
-2.07786e-07
-2.66184e-09
-1.17509e-07
-1.13566e-09
-2.27204e-07
-3.09998e-08
-2.00202e-07
-2.04216e-09
-2.35554e-07
4.36901e-08
-1.96377e-07
-6.72982e-09
-1.98101e-07
3.60717e-09
-2.19652e-07
7.50129e-09
-2.08431e-07
-1.4521e-09
-2.18424e-07
-5.20599e-09
-2.22125e-07
-1.78481e-08
-2.27285e-07
-2.16112e-08
-2.3395e-07
-2.16658e-08
-2.39286e-07
-1.86121e-08
-2.38545e-07
-1.02234e-08
-2.30075e-07
3.11931e-09
-2.16276e-07
1.65259e-08
-2.03705e-07
2.42379e-08
-1.94166e-07
2.28086e-08
-1.90746e-07
1.44431e-08
-1.89183e-07
8.63555e-09
-1.87261e-07
5.95301e-09
-1.85569e-07
4.48188e-09
-1.84061e-07
3.3404e-09
-1.8354e-07
-3.98518e-10
-1.82954e-07
-1.67683e-10
-6.28664e-10
-2.53264e-07
1.5552e-08
-1.64056e-07
4.42713e-08
-1.33279e-07
1.8755e-08
-2.08791e-07
-2.518e-08
-1.72476e-07
1.85899e-09
-1.8088e-07
-7.53335e-09
-1.76262e-07
-1.40447e-08
-1.86214e-07
-1.35324e-08
-2.19047e-07
-4.49757e-09
-1.65201e-07
4.43051e-09
-1.38017e-07
-1.43593e-08
-2.24205e-07
-2.85338e-08
-2.09044e-07
1.53734e-08
-1.29746e-07
4.01623e-08
-1.50532e-07
3.86333e-09
-2.13981e-07
-2.42509e-08
-2.14267e-07
-2.1007e-08
-1.89321e-07
-2.44808e-08
-2.06513e-07
2.59602e-08
-1.79563e-07
-1.34515e-08
-1.99056e-07
4.22731e-08
-1.03289e-07
4.4019e-08
-1.81483e-07
-2.87549e-09
-1.57676e-07
-1.21575e-08
-1.47125e-07
5.45692e-09
-1.96236e-07
1.658e-09
-1.73116e-07
-3.82215e-08
-1.71228e-07
-2.80368e-08
-1.9964e-07
-3.21854e-08
-9.96488e-08
2.50217e-08
-1.73131e-07
-2.54051e-08
-1.61008e-07
9.09672e-09
-1.74896e-07
4.62075e-08
-8.81145e-08
3.1196e-08
-1.9082e-07
-6.78748e-09
-1.00085e-07
-7.96948e-11
-1.86814e-07
4.18369e-09
-1.6003e-07
-2.73991e-08
-1.70975e-07
9.15129e-09
-1.86076e-07
2.41394e-09
-1.97803e-07
7.51478e-10
-1.09774e-07
3.75544e-08
-1.9183e-07
-6.06464e-09
-1.65389e-07
4.16654e-09
-2.02291e-07
-1.73002e-10
-1.20975e-07
5.82733e-09
-1.99257e-07
-4.18667e-08
-1.67574e-07