/*--------------------------------*- C++ -*----------------------------------*\
  =========                 |
  \\      /  F ield         | OpenFOAM: The Open Source CFD Toolbox
   \\    /   O peration     | Website:  https://openfoam.org
    \\  /    A nd           | Version:  12
     \\/     M anipulation  |
\*---------------------------------------------------------------------------*/
FoamFile
{
    format      ascii;
    class       volVectorField;
    location    "0.35";
    object      U.water_0;
}
// * * * * * * * * * * * * * * * * * * * * * * * * * * * * * * * * * * * * * //

dimensions      [0 1 -1 0 0 0 0];

internalField   nonuniform List<vector> 
3750
(
(0.00158256 0.00883517 0)
(0.00114726 0.00634649 0)
(0.000422921 0.00591208 0)
(-0.00161697 0.00408882 0)
(0.000646248 0.00583722 0)
(-0.000171951 0.00716167 0)
(-0.00100962 0.00536062 0)
(-0.000535078 0.00619537 0)
(0.000644278 0.00507864 0)
(0.00174752 0.00827928 0)
(0.00109933 0.0136355 0)
(-0.00122296 0.00919491 0)
(0.000198678 0.00612274 0)
(-0.000194635 0.00712096 0)
(-0.000435536 0.00653252 0)
(0.000279315 0.00720343 0)
(0.000746256 0.00723075 0)
(0.000791715 0.00630073 0)
(0.00217264 0.00563907 0)
(0.00215014 0.00863363 0)
(-0.00135989 0.00894115 0)
(-0.00123128 0.00291298 0)
(-0.000569778 0.00229808 0)
(-0.000911776 0.00525164 0)
(-0.000873207 0.0044743 0)
(-0.00106907 0.00351318 0)
(-6.26489e-05 0.00552041 0)
(0.00136507 0.00336895 0)
(0.00211239 0.00161431 0)
(0.00193737 0.000603079 0)
(0.000777191 0.000656635 0)
(-0.000335231 0.000472538 0)
(0.000108768 -0.000733788 0)
(0.00142145 0.00316128 0)
(-0.00129897 0.00806705 0)
(-0.00343938 0.00451406 0)
(0.000434214 -0.000448916 0)
(0.0025105 0.00237937 0)
(0.00206404 0.00533353 0)
(0.000596132 0.0040435 0)
(-0.000880383 -0.00126462 0)
(0.000890689 -0.00159674 0)
(0.000232985 0.00143957 0)
(-0.00148909 0.00338479 0)
(-7.34828e-05 0.00425926 0)
(-0.000248972 0.00425027 0)
(0.000576087 0.00367333 0)
(-2.03141e-05 0.00279701 0)
(0.00148792 0.00330955 0)
(0.000594408 0.0027704 0)
(6.93959e-06 0.00228323 0)
(0.000910193 0.00136711 0)
(0.000821353 0.000172054 0)
(-0.000739813 0.000705377 0)
(-0.000852081 0.00192663 0)
(-0.00200587 0.00257679 0)
(-0.00224603 0.0018147 0)
(-0.00171389 0.00113116 0)
(0.000645031 0.000701098 0)
(0.00303151 -0.000208168 0)
(0.00208636 -0.000969188 0)
(0.00165345 -0.00106089 0)
(0.000757055 -0.00104757 0)
(0.000643954 -0.00175092 0)
(-3.51106e-05 -0.00180163 0)
(7.23287e-05 -0.00213793 0)
(-0.000239492 -0.00169326 0)
(-0.00083743 -0.000471582 0)
(-0.00107042 0.00123026 0)
(-0.00114455 0.00273639 0)
(-2.73542e-06 0.00312572 0)
(0.000837331 0.000631625 0)
(0.00248693 -0.00315373 0)
(0.00290282 -0.0115123 0)
(0.00138682 -0.0128909 0)
(0.00310741 -0.00396215 0)
(0.0022709 -0.00595913 0)
(0.000453289 -0.0056855 0)
(-0.00347754 -0.00444743 0)
(0.000479117 -0.00324078 0)
(0.00204195 -0.00759946 0)
(0.00133111 -0.0100636 0)
(0.000503924 -0.0091484 0)
(0.000402011 -0.00952866 0)
(0.00189011 -0.00574544 0)
(-0.00108174 -0.00143438 0)
(-0.00401832 -0.00360593 0)
(-0.00234046 -0.002088 0)
(-0.00186915 -0.00254626 0)
(-0.000763751 -0.00286771 0)
(-0.000205756 -0.00338954 0)
(6.05556e-05 -0.00410281 0)
(0.000888752 -0.00149672 0)
(0.00378625 -0.0018777 0)
(0.00363656 -0.00205698 0)
(-0.00140094 -0.00156152 0)
(0.000616534 -0.00445075 0)
(0.00166457 -0.00742423 0)
(0.00103244 -0.00789717 0)
(0.00135899 -0.0107555 0)
(0.000670512 -0.0109612 0)
(-0.000703033 -0.00675348 0)
(-0.00104022 -0.00677349 0)
(-0.000124262 -0.00769535 0)
(0.000820823 -0.00785667 0)
(0.000561824 -0.00824622 0)
(0.00211678 -0.00665466 0)
(0.000535812 -0.00774828 0)
(0.00274542 -0.00751349 0)
(-0.000647279 -0.00597418 0)
(-0.00159874 -0.00584081 0)
(0.000303627 -0.00951505 0)
(0.00238914 -0.0117698 0)
(0.000488331 -0.00895344 0)
(-0.00196659 -0.00625778 0)
(-0.00130985 -0.00712907 0)
(0.00330305 -0.00805999 0)
(0.000533909 -0.0117816 0)
(5.12845e-07 -0.0115198 0)
(-0.000849415 -0.0122009 0)
(-0.000704707 -0.0128954 0)
(-0.00022186 -0.0134404 0)
(0.000779785 -0.0135201 0)
(0.000767898 -0.0115859 0)
(-0.000270088 -0.011329 0)
(0.000484105 -0.00884065 0)
(0.0026422 -0.00868784 0)
(0.000516683 -0.00970882 0)
(-0.000712981 -0.0103911 0)
(-0.000215648 -0.0106701 0)
(0.000166259 -0.0121334 0)
(0.00034267 -0.0139296 0)
(0.00161872 -0.0171015 0)
(0.00106124 -0.0188099 0)
(0.00102732 -0.0193569 0)
(-0.000132271 -0.0176889 0)
(-0.000706885 -0.015655 0)
(-0.000746588 -0.0152182 0)
(4.4348e-05 -0.0140853 0)
(-9.97786e-05 -0.0131058 0)
(-0.00021118 -0.0127515 0)
(-0.00120623 -0.0120972 0)
(-0.00216917 -0.0113533 0)
(-0.00220731 -0.010513 0)
(-0.00114427 -0.00984827 0)
(0.00192627 -0.00987119 0)
(0.00535376 -0.0103098 0)
(0.00764408 -0.0133104 0)
(0.00656961 -0.0167389 0)
(0.00100247 -0.0147353 0)
(0.000593181 -0.0100917 0)
(0.00234759 -0.0155352 0)
(0.00189844 -0.0163801 0)
(0.000524185 -0.0136611 0)
(0.00139668 -0.00932309 0)
(0.00181426 -0.0133715 0)
(0.000100444 -0.0171033 0)
(-0.00193763 -0.0164912 0)
(-0.00237877 -0.0158277 0)
(-0.000764944 -0.0155493 0)
(-0.00237892 -0.015528 0)
(-0.0023135 -0.017037 0)
(-0.00174116 -0.0168348 0)
(-0.00179798 -0.0161447 0)
(-0.000990122 -0.0156734 0)
(0.00213197 -0.0152369 0)
(0.00102708 -0.014739 0)
(0.00101071 -0.0114757 0)
(0.00470129 -0.0130821 0)
(0.00299603 -0.0162109 0)
(0.00128805 -0.0119368 0)
(-0.000266555 -0.0111648 0)
(0.00347057 -0.0143508 0)
(0.00282703 -0.013156 0)
(0.000661899 -0.0146207 0)
(0.00163635 -0.0152582 0)
(6.04468e-05 -0.0120357 0)
(0.000336717 -0.00995539 0)
(-0.000368531 -0.00983937 0)
(4.59011e-05 -0.0111866 0)
(0.000322765 -0.0115559 0)
(-0.000409377 -0.0134566 0)
(-0.00257123 -0.0147982 0)
(0.00237 -0.0142683 0)
(0.00134759 -0.0140529 0)
(0.00219197 -0.0136048 0)
(-0.000771429 -0.0170185 0)
(-0.000275626 -0.017985 0)
(6.93436e-05 -0.0177195 0)
(-0.000743191 -0.0140133 0)
(0.000118976 -0.0109389 0)
(0.00111093 -0.0141001 0)
(-0.000122717 -0.0164132 0)
(0.00163847 -0.0153895 0)
(-0.00156032 -0.0175377 0)
(-0.0019637 -0.0175431 0)
(-0.0012512 -0.018138 0)
(2.63425e-05 -0.0197393 0)
(-0.00113271 -0.0204885 0)
(-5.53791e-05 -0.0176262 0)
(-7.50243e-05 -0.0133668 0)
(0.000327702 -0.0170421 0)
(-0.000581315 -0.0206272 0)
(-0.000628898 -0.0202576 0)
(0.000959654 -0.0190945 0)
(0.00104371 -0.0191114 0)
(0.00306141 -0.0183414 0)
(0.00503883 -0.0187301 0)
(0.0025117 -0.0194695 0)
(0.000951496 -0.0204642 0)
(0.000262547 -0.0222647 0)
(-0.000735289 -0.0227847 0)
(-0.00110184 -0.0227385 0)
(-0.00113736 -0.0223128 0)
(-0.000978447 -0.0215596 0)
(-0.00142147 -0.0207567 0)
(-0.00245987 -0.0203718 0)
(-0.00285503 -0.0202676 0)
(-0.00288187 -0.0201899 0)
(-0.00156054 -0.0205431 0)
(0.00246879 -0.0204817 0)
(0.0058986 -0.0192902 0)
(0.00682422 -0.0186146 0)
(0.00588114 -0.0192585 0)
(0.000712837 -0.0154784 0)
(0.00163913 -0.0123507 0)
(0.00119064 -0.0189141 0)
(0.00143209 -0.0222573 0)
(0.00198605 -0.0177178 0)
(0.000855702 -0.0120983 0)
(-0.00125825 -0.0161685 0)
(0.000361712 -0.0197166 0)
(0.00019625 -0.0197555 0)
(-0.000331389 -0.021343 0)
(0.000513711 -0.0224737 0)
(-0.000554603 -0.0231065 0)
(-0.0012217 -0.0229117 0)
(-0.00242233 -0.0216661 0)
(-0.00338145 -0.0205185 0)
(-0.000866485 -0.0168557 0)
(-1.02327e-05 -0.0175396 0)
(0.0020066 -0.0215665 0)
(0.00297111 -0.0163295 0)
(0.00187245 -0.016706 0)
(0.00123769 -0.0206578 0)
(0.00227372 -0.0181537 0)
(-0.00116304 -0.0133331 0)
(-0.00102009 -0.0135133 0)
(0.00316037 -0.0166595 0)
(0.00112432 -0.0168529 0)
(0.00284148 -0.0167788 0)
(0.00169331 -0.0146956 0)
(0.00103197 -0.0131942 0)
(0.00121069 -0.0134461 0)
(-0.000123783 -0.0125849 0)
(-0.000414782 -0.0140888 0)
(-0.00234182 -0.0155399 0)
(-0.000749696 -0.0129639 0)
(0.00146104 -0.0140995 0)
(0.00274075 -0.01736 0)
(0.00116367 -0.0167432 0)
(0.00112423 -0.0189804 0)
(0.000788668 -0.0187788 0)
(0.000807941 -0.0181044 0)
(0.000849423 -0.0171951 0)
(-0.000749989 -0.016122 0)
(-0.00236969 -0.01799 0)
(-7.01064e-05 -0.0169472 0)
(-0.00070155 -0.0160344 0)
(-0.0015666 -0.017756 0)
(-0.00123102 -0.016604 0)
(0.000549616 -0.0176038 0)
(0.000679646 -0.0199089 0)
(0.000973228 -0.0200371 0)
(0.00287225 -0.0178785 0)
(0.000661596 -0.0156083 0)
(-0.000263588 -0.017797 0)
(-0.000343319 -0.020113 0)
(-0.000889097 -0.0184567 0)
(-0.00134392 -0.0194819 0)
(-0.00128569 -0.020484 0)
(0.00032981 -0.0179417 0)
(0.00321627 -0.0176798 0)
(0.00451295 -0.0184208 0)
(0.00368434 -0.0186653 0)
(0.00195063 -0.0196354 0)
(-0.000254762 -0.02096 0)
(-0.00124648 -0.021245 0)
(-0.00140506 -0.0213915 0)
(-0.00115969 -0.0216608 0)
(-0.00101683 -0.0221175 0)
(-0.00161989 -0.0226694 0)
(-0.002206 -0.0225175 0)
(-0.00222327 -0.0224785 0)
(-0.00107905 -0.0229346 0)
(0.00173793 -0.0227061 0)
(0.00383984 -0.0206792 0)
(0.00427535 -0.0195548 0)
(0.00366718 -0.0197769 0)
(7.14103e-05 -0.0161622 0)
(-0.000298657 -0.0188317 0)
(0.00044506 -0.022748 0)
(0.00199737 -0.0231959 0)
(0.00303443 -0.0218734 0)
(0.000862068 -0.0200335 0)
(-0.0021106 -0.0206787 0)
(1.89635e-05 -0.0225597 0)
(-0.00018374 -0.0243096 0)
(-0.000951553 -0.0231173 0)
(0.0019415 -0.0216866 0)
(-0.000604219 -0.0227477 0)
(-0.00174522 -0.0242491 0)
(-0.00209962 -0.0231126 0)
(-0.00233634 -0.0185935 0)
(-0.000381968 -0.0199545 0)
(-0.00213778 -0.0229445 0)
(0.00106062 -0.0219012 0)
(0.0019643 -0.0191018 0)
(0.00136151 -0.0180251 0)
(0.00169306 -0.0188223 0)
(0.00225399 -0.0171987 0)
(0.00233008 -0.0170907 0)
(-0.000631889 -0.0138677 0)
(0.000829711 -0.0134987 0)
(0.00015551 -0.0165871 0)
(0.00065609 -0.0162751 0)
(0.000733866 -0.0148757 0)
(-0.00195124 -0.0134806 0)
(0.000680457 -0.0134433 0)
(0.000557437 -0.0143301 0)
(-0.000213637 -0.0151173 0)
(-6.31012e-05 -0.0167502 0)
(0.00240277 -0.0163097 0)
(-0.000568763 -0.0160001 0)
(0.00176988 -0.0169481 0)
(0.000179168 -0.0154438 0)
(0.000126864 -0.014906 0)
(-8.8473e-05 -0.0162339 0)
(-0.00033999 -0.0164664 0)
(0.00106186 -0.0152549 0)
(0.000765609 -0.0148878 0)
(-0.000396245 -0.0150375 0)
(0.000160222 -0.0153225 0)
(-0.00044975 -0.0164199 0)
(-0.000340576 -0.0166202 0)
(-0.000761096 -0.0140023 0)
(-0.00176861 -0.0141815 0)
(-0.00109798 -0.0178113 0)
(-0.000192674 -0.0165915 0)
(0.00137876 -0.0162615 0)
(-0.000238801 -0.0148032 0)
(-0.000609041 -0.0142626 0)
(-0.000705998 -0.0146036 0)
(0.000271293 -0.0140732 0)
(0.000746709 -0.0159613 0)
(0.00128136 -0.0179543 0)
(-0.000574188 -0.0170692 0)
(0.0033643 -0.0163895 0)
(0.00398561 -0.0179022 0)
(0.00382875 -0.0183528 0)
(0.00291427 -0.0186478 0)
(0.00124708 -0.0199563 0)
(-0.00012454 -0.0210908 0)
(-0.00068744 -0.0227423 0)
(-0.000363005 -0.0240351 0)
(-0.00053369 -0.0242548 0)
(-0.00212207 -0.0236336 0)
(-0.00315446 -0.0226968 0)
(-0.00301771 -0.0222049 0)
(-0.00142686 -0.0218906 0)
(0.0011817 -0.0214935 0)
(0.00233131 -0.0198266 0)
(0.0025184 -0.0189598 0)
(0.00221655 -0.0197966 0)
(-8.61488e-05 -0.0167614 0)
(-0.00265406 -0.0204849 0)
(0.00245722 -0.0211857 0)
(0.0016062 -0.0229183 0)
(0.00176311 -0.0220524 0)
(0.000710285 -0.0214957 0)
(0.000392322 -0.0217371 0)
(0.000243119 -0.0219908 0)
(0.000442907 -0.0232643 0)
(0.00185951 -0.019287 0)
(0.000694022 -0.0187134 0)
(-0.00106536 -0.0211282 0)
(-0.00150554 -0.0204558 0)
(-0.00145073 -0.0206026 0)
(-0.000582392 -0.0193329 0)
(-0.00233461 -0.0185475 0)
(-0.00116019 -0.0184961 0)
(0.00013088 -0.019523 0)
(0.000664635 -0.0158641 0)
(-0.000416932 -0.013785 0)
(-0.000547041 -0.0159203 0)
(0.000488694 -0.0146988 0)
(0.000423766 -0.0145646 0)
(0.000967259 -0.0137263 0)
(-0.00164116 -0.0136721 0)
(-0.00197663 -0.0139062 0)
(0.00163446 -0.0140758 0)
(0.000318854 -0.0169161 0)
(7.56064e-06 -0.0149132 0)
(-0.000803229 -0.0132858 0)
(0.00252039 -0.0157751 0)
(0.00104236 -0.016844 0)
(0.00058189 -0.0162997 0)
(0.000153904 -0.0161501 0)
(-0.00169643 -0.0162409 0)
(0.00219572 -0.0165608 0)
(0.00141343 -0.018584 0)
(0.00092319 -0.0191525 0)
(0.000703737 -0.0184683 0)
(0.00015131 -0.0162672 0)
(-0.00128175 -0.0145884 0)
(0.00088668 -0.016296 0)
(-0.000655146 -0.0175393 0)
(-0.00237332 -0.0157931 0)
(0.00107548 -0.0154672 0)
(0.0011815 -0.0167229 0)
(0.00144414 -0.0162136 0)
(-0.00138126 -0.016383 0)
(-0.000686807 -0.0169337 0)
(-0.00215037 -0.0169344 0)
(0.000960031 -0.0179026 0)
(-6.29061e-05 -0.0171934 0)
(-0.00168578 -0.017228 0)
(-0.000305643 -0.0196192 0)
(0.00108574 -0.0177451 0)
(0.00139424 -0.0177424 0)
(0.0012385 -0.0198741 0)
(0.00287641 -0.0149673 0)
(0.00242779 -0.0142849 0)
(0.00347517 -0.0181695 0)
(0.0035921 -0.0175371 0)
(0.00300844 -0.0173667 0)
(0.0021701 -0.0179211 0)
(0.00153651 -0.0188625 0)
(0.00115748 -0.0205293 0)
(0.000467597 -0.0221162 0)
(-0.00117855 -0.0223231 0)
(-0.00355727 -0.021089 0)
(-0.00401778 -0.0205343 0)
(-0.00354513 -0.0203443 0)
(-0.00149268 -0.0206006 0)
(0.000636523 -0.0201518 0)
(0.0012877 -0.0188095 0)
(0.00154858 -0.0184014 0)
(0.00140495 -0.0199487 0)
(-5.66706e-05 -0.01715 0)
(-0.00215344 -0.0162165 0)
(0.00171597 -0.0161537 0)
(0.000667141 -0.0211992 0)
(0.000809557 -0.0196 0)
(0.00115383 -0.0179985 0)
(0.000909529 -0.0179285 0)
(-0.00145556 -0.0174979 0)
(0.00113672 -0.0174863 0)
(0.00291973 -0.0162975 0)
(-0.00182833 -0.0173618 0)
(-0.00218528 -0.0173164 0)
(-0.00261974 -0.0170639 0)
(-0.00256758 -0.0161321 0)
(-0.00231943 -0.0150276 0)
(-0.00125037 -0.0160998 0)
(-0.00045481 -0.0159154 0)
(0.000214423 -0.0152151 0)
(0.00120933 -0.0142986 0)
(-0.00195597 -0.0146463 0)
(-0.00153823 -0.0138364 0)
(-0.000491878 -0.0140219 0)
(0.00137942 -0.0158504 0)
(0.00154975 -0.0156483 0)
(0.00218022 -0.0172875 0)
(0.00202183 -0.0151003 0)
(0.00139633 -0.0167815 0)
(-0.000183086 -0.0219097 0)
(0.0012161 -0.0210179 0)
(-0.000506082 -0.0168895 0)
(0.000467762 -0.0164216 0)
(0.000835631 -0.0192513 0)
(0.000708262 -0.0183044 0)
(0.00116013 -0.0189305 0)
(0.000431023 -0.0154334 0)
(0.00178701 -0.0160689 0)
(0.00129439 -0.0201217 0)
(0.000714459 -0.0196569 0)
(0.000460081 -0.0193957 0)
(0.00183171 -0.0193336 0)
(-0.00106894 -0.0158656 0)
(-0.000852654 -0.0162725 0)
(-0.000112172 -0.0217769 0)
(-0.000519232 -0.0173091 0)
(0.00111367 -0.016495 0)
(0.000426476 -0.0201433 0)
(0.000413725 -0.0192622 0)
(0.000209046 -0.0193103 0)
(-0.00100892 -0.0202893 0)
(-0.0014386 -0.0164459 0)
(-0.000863121 -0.0169524 0)
(-4.68261e-05 -0.0199703 0)
(-0.00206553 -0.0185978 0)
(0.00102551 -0.0182953 0)
(0.00174954 -0.0186695 0)
(-0.00142475 -0.0201032 0)
(-0.000171351 -0.020177 0)
(0.00394022 -0.0197872 0)
(0.00155673 -0.0183332 0)
(0.00262469 -0.0174494 0)
(0.00354582 -0.0173575 0)
(0.00351376 -0.0169856 0)
(0.00329646 -0.0170705 0)
(0.00278937 -0.0176144 0)
(0.00254019 -0.0181824 0)
(0.001351 -0.0182865 0)
(-0.00133901 -0.017753 0)
(-0.00341492 -0.0173056 0)
(-0.00373886 -0.0175559 0)
(-0.00311749 -0.0185029 0)
(-0.00134044 -0.019547 0)
(-1.97321e-05 -0.0191939 0)
(0.000498577 -0.0183235 0)
(0.000949088 -0.0182957 0)
(0.000826284 -0.0202458 0)
(1.13204e-05 -0.0174036 0)
(6.78104e-06 -0.0160352 0)
(0.000241246 -0.0156958 0)
(0.0011509 -0.0215777 0)
(0.00255686 -0.0196418 0)
(0.00152264 -0.0184931 0)
(0.000729716 -0.0192902 0)
(-0.00205652 -0.0151061 0)
(0.00164502 -0.0119228 0)
(0.000829064 -0.0164544 0)
(-0.000864047 -0.0194288 0)
(-0.00141552 -0.0173923 0)
(-0.000841876 -0.0161909 0)
(-0.00173176 -0.0178198 0)
(-0.0040162 -0.0170842 0)
(-0.00158207 -0.0166633 0)
(-0.000791874 -0.017923 0)
(-2.99336e-05 -0.0180325 0)
(-0.000377508 -0.0185859 0)
(-0.000385411 -0.0173733 0)
(0.000642096 -0.0174423 0)
(-0.00133547 -0.0169068 0)
(0.00144266 -0.018807 0)
(0.0011125 -0.0206642 0)
(0.00159714 -0.0221595 0)
(0.00432902 -0.0220964 0)
(0.000367648 -0.0221674 0)
(-0.00107463 -0.0229156 0)
(0.00156141 -0.0227931 0)
(0.000924384 -0.0225253 0)
(-0.00170174 -0.0221609 0)
(0.000185657 -0.0226991 0)
(0.000956915 -0.0213189 0)
(0.000919359 -0.0206425 0)
(0.00235934 -0.0199569 0)
(-0.000738845 -0.0190277 0)
(-0.000383941 -0.0201018 0)
(0.000737393 -0.0204775 0)
(-0.000570265 -0.0178472 0)
(0.00221099 -0.0185504 0)
(0.00265488 -0.0193513 0)
(-0.00326428 -0.01821 0)
(0.000111292 -0.02045 0)
(-0.000341948 -0.017475 0)
(-0.000160821 -0.0172822 0)
(-0.000486792 -0.0206894 0)
(4.33515e-06 -0.0193407 0)
(0.00106469 -0.0193862 0)
(0.000411941 -0.0202566 0)
(-0.00103274 -0.0183943 0)
(-0.000628126 -0.0194426 0)
(-0.000930805 -0.021105 0)
(-0.000792008 -0.0170927 0)
(0.00151658 -0.0135471 0)
(0.000742144 -0.0172079 0)
(0.00165853 -0.0220247 0)
(0.00114047 -0.0222673 0)
(0.00047485 -0.0220725 0)
(0.000592705 -0.0238828 0)
(0.00106282 -0.021642 0)
(0.00249804 -0.019077 0)
(0.00282784 -0.0181869 0)
(0.00275112 -0.0176814 0)
(0.00221815 -0.0174336 0)
(0.00162195 -0.0170741 0)
(5.5424e-05 -0.0164735 0)
(-0.00214359 -0.0159727 0)
(-0.00306874 -0.0162125 0)
(-0.00301494 -0.0169524 0)
(-0.00174088 -0.0181756 0)
(-0.000599781 -0.0188101 0)
(0.000111073 -0.0184738 0)
(0.000306073 -0.0179595 0)
(0.000790908 -0.0181256 0)
(0.000615934 -0.020363 0)
(8.88328e-06 -0.0175683 0)
(0.00129013 -0.0155934 0)
(-0.00203533 -0.0150664 0)
(-0.000701356 -0.0189313 0)
(0.00104587 -0.0185486 0)
(0.0010192 -0.0190456 0)
(-6.6355e-05 -0.0192645 0)
(2.50959e-05 -0.0142867 0)
(0.00052616 -0.0128669 0)
(-0.00196744 -0.0178465 0)
(-0.00182033 -0.0187247 0)
(-0.00238818 -0.016058 0)
(-0.00123745 -0.0176041 0)
(-0.00248606 -0.0215273 0)
(-0.00226126 -0.0179009 0)
(-0.00238493 -0.0185902 0)
(0.000744768 -0.0216713 0)
(-0.000831889 -0.0225713 0)
(-0.00152196 -0.0226008 0)
(-0.000106453 -0.0206326 0)
(0.000587689 -0.0207608 0)
(0.000869903 -0.0171762 0)
(0.00168461 -0.018402 0)
(0.00384072 -0.0236582 0)
(0.00190804 -0.0244259 0)
(0.00484666 -0.0242959 0)
(0.00263866 -0.0262973 0)
(0.000448548 -0.0225593 0)
(-0.000142786 -0.0212446 0)
(-0.000349049 -0.0253843 0)
(-7.38784e-05 -0.0265435 0)
(-3.30588e-05 -0.0263878 0)
(-0.00039753 -0.0254932 0)
(-5.31493e-05 -0.0240992 0)
(0.000255175 -0.0231206 0)
(-0.00183358 -0.022924 0)
(-0.0012098 -0.0215313 0)
(0.00246672 -0.021828 0)
(0.00179526 -0.0193334 0)
(-0.00130121 -0.0190608 0)
(0.00287379 -0.0227666 0)
(-0.000346299 -0.0196653 0)
(-0.000417225 -0.0198088 0)
(0.00016482 -0.0195989 0)
(0.000823831 -0.0205185 0)
(7.26199e-05 -0.0249386 0)
(0.000485737 -0.0235344 0)
(-0.000975293 -0.0235917 0)
(-0.000114545 -0.0248561 0)
(-0.000472365 -0.0193857 0)
(-0.00109775 -0.017704 0)
(-0.00102963 -0.0205359 0)
(-0.000470604 -0.0163229 0)
(0.00181754 -0.0149603 0)
(-0.00070316 -0.0152238 0)
(0.00181042 -0.016317 0)
(0.00109465 -0.0194427 0)
(0.00159979 -0.0203554 0)
(0.000543762 -0.0218473 0)
(0.00110464 -0.0195877 0)
(0.00132883 -0.0181842 0)
(0.0018969 -0.017371 0)
(0.00214348 -0.0165459 0)
(0.00217396 -0.016305 0)
(0.00175698 -0.0162507 0)
(0.000318838 -0.0168686 0)
(-0.00171049 -0.0172129 0)
(-0.00232799 -0.0175096 0)
(-0.00222146 -0.0178504 0)
(-0.00136253 -0.0184936 0)
(-0.000725722 -0.0188109 0)
(-0.000188897 -0.018436 0)
(-3.75035e-05 -0.0180436 0)
(0.000448804 -0.0183025 0)
(0.000352291 -0.0205797 0)
(3.86626e-05 -0.0176887 0)
(0.00258009 -0.0156094 0)
(-0.0022816 -0.0147765 0)
(0.0013268 -0.0161775 0)
(0.00124043 -0.0158686 0)
(0.000846653 -0.0170047 0)
(0.00266701 -0.017631 0)
(0.0021512 -0.0131735 0)
(-0.00200872 -0.0144148 0)
(-0.00304113 -0.0193366 0)
(-0.00211278 -0.0200862 0)
(-0.00114689 -0.0156642 0)
(-0.000215008 -0.0177692 0)
(-0.000268942 -0.0225038 0)
(0.000824296 -0.0231015 0)
(-0.00129347 -0.0201706 0)
(0.000170622 -0.0214967 0)
(-0.00113979 -0.0258057 0)
(0.00196457 -0.0235008 0)
(7.75758e-05 -0.0220877 0)
(0.000243036 -0.0229821 0)
(0.00126441 -0.0230678 0)
(-0.00028164 -0.0227183 0)
(0.00157311 -0.0265094 0)
(0.00219696 -0.0259068 0)
(0.0023398 -0.0250723 0)
(0.00146519 -0.0282896 0)
(0.00193629 -0.025244 0)
(-0.000901118 -0.023975 0)
(0.000330886 -0.0243552 0)
(-0.000537256 -0.0247967 0)
(0.000417544 -0.0249664 0)
(0.000482222 -0.0232372 0)
(-0.00108404 -0.0219184 0)
(-0.00173217 -0.0218163 0)
(-0.000695254 -0.0214944 0)
(0.00177958 -0.0177151 0)
(0.00236608 -0.0189422 0)
(0.00258184 -0.0230226 0)
(-0.00178257 -0.0183817 0)
(0.00129334 -0.0193369 0)
(0.00159074 -0.022566 0)
(-0.00136425 -0.0209967 0)
(0.003072 -0.0177797 0)
(-0.000926426 -0.0194731 0)
(-0.00041506 -0.0225818 0)
(-0.000644904 -0.0213966 0)
(-0.0018829 -0.0222167 0)
(-0.000749471 -0.0219613 0)
(0.000467319 -0.0202938 0)
(-0.00336495 -0.0182412 0)
(-0.00275502 -0.0181788 0)
(-0.00288076 -0.0126116 0)
(0.000831256 -0.0137519 0)
(0.000686322 -0.0167104 0)
(0.000676708 -0.0156768 0)
(0.00206178 -0.016379 0)
(0.00155397 -0.0164348 0)
(0.00119804 -0.0173023 0)
(-4.13156e-05 -0.015529 0)
(-4.67304e-05 -0.0158285 0)
(0.00102813 -0.0154622 0)
(0.00139829 -0.0142284 0)
(0.00214463 -0.0133774 0)
(0.00198237 -0.0129967 0)
(0.000849625 -0.0133546 0)
(-0.00149937 -0.0144339 0)
(-0.0024445 -0.0152566 0)
(-0.00227813 -0.0159674 0)
(-0.00104081 -0.0168431 0)
(-0.000254419 -0.0176334 0)
(-6.33215e-05 -0.0178643 0)
(0.000179273 -0.0176154 0)
(0.000417567 -0.0181754 0)
(0.000286837 -0.0205567 0)
(-5.40647e-06 -0.0177584 0)
(-0.000169747 -0.0178696 0)
(-0.00164365 -0.0160994 0)
(0.00160544 -0.015724 0)
(0.000709861 -0.0179972 0)
(-0.000545488 -0.0159838 0)
(0.0029863 -0.015461 0)
(0.0017628 -0.0163149 0)
(-0.00275935 -0.0161153 0)
(-0.0025686 -0.0169353 0)
(-0.000597289 -0.0162258 0)
(0.00172338 -0.0137287 0)
(-0.00103886 -0.0148918 0)
(0.000628218 -0.0190238 0)
(0.000548786 -0.0188045 0)
(-0.000184235 -0.0178762 0)
(0.000509125 -0.0198208 0)
(0.000869687 -0.0187254 0)
(0.00128732 -0.018886 0)
(0.00293957 -0.0231494 0)
(0.00191122 -0.0245931 0)
(0.00111785 -0.0253617 0)
(-3.32194e-05 -0.0246739 0)
(-0.000859339 -0.0251028 0)
(0.00328693 -0.0225568 0)
(0.00104954 -0.0236671 0)
(0.00183716 -0.0271087 0)
(0.00110554 -0.025714 0)
(-0.00216069 -0.0228054 0)
(0.000298465 -0.0228817 0)
(-0.0013461 -0.02262 0)
(-0.000513615 -0.0212118 0)
(-0.0013889 -0.0212848 0)
(-0.0027849 -0.0206991 0)
(-0.0031434 -0.0190602 0)
(0.00108912 -0.0179517 0)
(0.00325467 -0.0167999 0)
(0.00113067 -0.0180643 0)
(0.00295885 -0.0199669 0)
(0.0024371 -0.0165808 0)
(-0.000160009 -0.0172013 0)
(0.000786006 -0.0214269 0)
(0.000152294 -0.0176502 0)
(0.00187863 -0.0160757 0)
(-0.00198102 -0.0184587 0)
(-0.00100863 -0.0173412 0)
(-0.00115451 -0.0179162 0)
(-0.00250419 -0.0182462 0)
(-1.73812e-05 -0.0184172 0)
(-0.000531269 -0.0190338 0)
(-0.00232793 -0.0194768 0)
(-0.00176549 -0.0191202 0)
(-0.00162667 -0.0122829 0)
(-0.0016741 -0.0123833 0)
(0.000103926 -0.0154485 0)
(-0.000334716 -0.0138412 0)
(0.000885627 -0.013773 0)
(0.00253699 -0.0134894 0)
(0.00326562 -0.0135205 0)
(0.000868583 -0.0132499 0)
(-0.000974147 -0.0141192 0)
(-0.000803562 -0.0149083 0)
(0.000108755 -0.0151045 0)
(0.00115253 -0.013068 0)
(0.0019141 -0.0113039 0)
(0.00169944 -0.0108345 0)
(0.000851273 -0.0113719 0)
(-0.00044311 -0.013354 0)
(-0.000893538 -0.0157986 0)
(0.000284195 -0.0173192 0)
(0.000561843 -0.017953 0)
(0.00036724 -0.0182548 0)
(0.00022695 -0.0180161 0)
(0.000251534 -0.0183408 0)
(0.000214345 -0.0207014 0)
(-2.45647e-06 -0.0178383 0)
(0.000919192 -0.0214197 0)
(0.000744065 -0.0177159 0)
(-0.000123714 -0.0184775 0)
(0.00146296 -0.0214135 0)
(0.000904478 -0.0175912 0)
(0.000859449 -0.017663 0)
(-0.000661344 -0.0205674 0)
(-0.00169324 -0.019364 0)
(-0.00179661 -0.0191377 0)
(-0.000914895 -0.0179633 0)
(-0.000230252 -0.0171596 0)
(-0.000138472 -0.0159928 0)
(0.00156819 -0.0162012 0)
(0.00213464 -0.0169579 0)
(0.00289387 -0.0134608 0)
(0.00364124 -0.0133254 0)
(0.00454797 -0.0169602 0)
(0.00146838 -0.0148473 0)
(0.00089585 -0.0169835 0)
(0.000446563 -0.0221704 0)
(-0.000927204 -0.0214728 0)
(-0.00065939 -0.0219187 0)
(-0.00117404 -0.0220934 0)
(0.00137329 -0.0207421 0)
(0.00225089 -0.0214272 0)
(0.000659598 -0.021443 0)
(0.000676888 -0.0209946 0)
(-0.00123648 -0.0156398 0)
(-0.00116138 -0.0147375 0)
(-0.00101467 -0.0189294 0)
(-0.00239771 -0.0184763 0)
(0.000303175 -0.019015 0)
(-0.00212936 -0.0199647 0)
(-0.00320664 -0.0161437 0)
(-3.74189e-05 -0.0163705 0)
(0.000457064 -0.0211975 0)
(0.00214651 -0.0200588 0)
(0.00320527 -0.0194449 0)
(0.00361311 -0.0176326 0)
(-0.000142445 -0.0166513 0)
(0.000557104 -0.0181608 0)
(0.000519033 -0.0153908 0)
(-0.00175424 -0.0146885 0)
(-0.0015127 -0.0174454 0)
(-0.00215955 -0.0174016 0)
(0.00072159 -0.0194646 0)
(-0.000465743 -0.0179345 0)
(-0.00116044 -0.0183742 0)
(-0.00164348 -0.021441 0)
(-0.00274533 -0.018488 0)
(-0.00326613 -0.0174028 0)
(0.000238287 -0.0140293 0)
(-0.0052345 -0.0145013 0)
(-0.00143987 -0.017196 0)
(0.00152967 -0.0173175 0)
(0.00133507 -0.0160427 0)
(0.00101564 -0.0149938 0)
(0.00360585 -0.0170537 0)
(0.00164643 -0.0162725 0)
(9.82242e-05 -0.0154993 0)
(-0.00130021 -0.0149315 0)
(-0.00135436 -0.014067 0)
(-0.000941334 -0.0133358 0)
(-8.93078e-05 -0.0125966 0)
(0.000727622 -0.0126782 0)
(0.00142724 -0.0132988 0)
(0.00164364 -0.0152578 0)
(0.00131045 -0.0172355 0)
(0.00120476 -0.0178096 0)
(0.00107876 -0.018014 0)
(0.000614613 -0.0179859 0)
(0.000412046 -0.017697 0)
(8.24809e-05 -0.0182756 0)
(0.000153475 -0.0206468 0)
(-3.45384e-05 -0.0178607 0)
(0.000909604 -0.0218158 0)
(0.000846631 -0.0202484 0)
(-0.00199588 -0.0188023 0)
(0.000469223 -0.019359 0)
(0.000864761 -0.0167229 0)
(0.000720319 -0.0171867 0)
(-0.00183593 -0.0187734 0)
(-0.000674229 -0.0184572 0)
(-0.00267214 -0.019925 0)
(-0.00323123 -0.0196944 0)
(-0.0029613 -0.0195856 0)
(-0.00071829 -0.0177748 0)
(-0.000526424 -0.0155385 0)
(0.000106896 -0.0127036 0)
(0.00352468 -0.0091264 0)
(0.00284108 -0.00805721 0)
(0.00329466 -0.0073099 0)
(0.00369073 -0.00657697 0)
(0.00252566 -0.0072734 0)
(0.00243775 -0.0101475 0)
(0.00142083 -0.0139874 0)
(0.000854043 -0.0149822 0)
(0.00182782 -0.0143128 0)
(0.00233328 -0.0129083 0)
(-2.40872e-05 -0.0165276 0)
(-0.00134763 -0.0193939 0)
(-0.00201901 -0.0178 0)
(-0.00172345 -0.0153907 0)
(-0.00135034 -0.0156448 0)
(-0.000336369 -0.0184366 0)
(5.36838e-05 -0.0150428 0)
(0.000257922 -0.0160982 0)
(-0.00111635 -0.0198521 0)
(-0.000954553 -0.0139682 0)
(-0.00230883 -0.0147991 0)
(0.0014619 -0.0192511 0)
(0.00338041 -0.0199725 0)
(0.00278916 -0.0205676 0)
(0.00211314 -0.0189391 0)
(-0.000762151 -0.0166869 0)
(-0.000850669 -0.0163482 0)
(-0.000369785 -0.0161018 0)
(-0.00127097 -0.0160522 0)
(0.000228776 -0.0177805 0)
(0.00118732 -0.0156765 0)
(0.00151282 -0.0168664 0)
(0.00153636 -0.0207592 0)
(-0.00201174 -0.0180583 0)
(-0.00187869 -0.0179454 0)
(-0.00233815 -0.018612 0)
(-0.0012818 -0.0157293 0)
(0.000391384 -0.0165691 0)
(-0.00254851 -0.0183371 0)
(-0.0020355 -0.0152281 0)
(-0.00056169 -0.0183672 0)
(0.0020383 -0.0209151 0)
(-0.00142035 -0.0173928 0)
(-0.000922721 -0.0177778 0)
(-0.0014267 -0.0187649 0)
(-0.00223452 -0.0165605 0)
(-0.00224385 -0.0149792 0)
(-0.00140393 -0.0143699 0)
(-0.000145894 -0.0142128 0)
(0.00110247 -0.0145646 0)
(0.00252089 -0.0156262 0)
(0.00345607 -0.016782 0)
(0.00300225 -0.0178428 0)
(0.0016378 -0.0187434 0)
(0.00106306 -0.0188045 0)
(0.000779556 -0.0186015 0)
(0.000574109 -0.0182204 0)
(0.000419537 -0.0179127 0)
(6.07763e-05 -0.0183652 0)
(9.43939e-05 -0.0207906 0)
(-3.24341e-05 -0.0179005 0)
(-7.60974e-05 -0.0237747 0)
(-8.09756e-06 -0.0224079 0)
(-0.000991089 -0.0196881 0)
(0.00242609 -0.0207918 0)
(0.000461306 -0.0184709 0)
(0.00149092 -0.0195817 0)
(9.53284e-06 -0.0209278 0)
(-0.000956476 -0.0199255 0)
(-0.0029133 -0.0230437 0)
(-0.00374842 -0.0234573 0)
(-0.00347447 -0.0223386 0)
(6.85978e-05 -0.0211115 0)
(-0.00212216 -0.0224554 0)
(-0.000752893 -0.0200942 0)
(0.00107932 -0.015716 0)
(-0.0024509 -0.0183702 0)
(0.00146165 -0.0201171 0)
(0.00203442 -0.0177899 0)
(0.00406521 -0.0171398 0)
(0.00531857 -0.0188058 0)
(0.00589678 -0.0185845 0)
(0.00464605 -0.0143671 0)
(0.00493664 -0.0104055 0)
(0.00205964 -0.0125601 0)
(-0.00312863 -0.0150545 0)
(-0.000814894 -0.0160736 0)
(-0.0016036 -0.0178745 0)
(-0.00108206 -0.0136838 0)
(-0.00182197 -0.0133824 0)
(0.000190243 -0.0169338 0)
(0.00220955 -0.0151909 0)
(-0.00109936 -0.0138747 0)
(-0.00291064 -0.0144031 0)
(-0.00125952 -0.0147145 0)
(-0.00163043 -0.0156177 0)
(0.00301625 -0.0177254 0)
(0.00121045 -0.0194745 0)
(0.00159311 -0.0194457 0)
(-0.000224204 -0.018972 0)
(-0.00133263 -0.0174363 0)
(-0.00124852 -0.0173958 0)
(-0.000622036 -0.0184163 0)
(-0.00096395 -0.0174404 0)
(-0.0012144 -0.0168435 0)
(0.00296313 -0.0173515 0)
(-0.00106222 -0.0190497 0)
(-0.000235118 -0.0192684 0)
(-0.00222954 -0.0171934 0)
(-0.00231761 -0.0165464 0)
(-0.0035073 -0.0150201 0)
(0.0015082 -0.014466 0)
(-0.00123455 -0.0158676 0)
(0.00155686 -0.0158627 0)
(-0.00013498 -0.011762 0)
(-0.000887734 -0.0091992 0)
(0.00046472 -0.0140543 0)
(-6.93921e-05 -0.0176009 0)
(-0.00228952 -0.0183406 0)
(-0.00227171 -0.0195804 0)
(-0.00256164 -0.0199017 0)
(-0.00284816 -0.019579 0)
(-0.00236 -0.0193581 0)
(-0.00101135 -0.0184657 0)
(0.00117752 -0.0182014 0)
(0.00333021 -0.0183428 0)
(0.00384483 -0.0183719 0)
(0.00353568 -0.0183848 0)
(0.00196724 -0.0184246 0)
(0.00114424 -0.0184102 0)
(0.000882859 -0.018372 0)
(0.000672927 -0.0180556 0)
(0.000512872 -0.0177371 0)
(2.30611e-05 -0.0182407 0)
(5.63485e-05 -0.0206854 0)
(-6.76342e-05 -0.017891 0)
(-0.000346468 -0.0247004 0)
(-0.00155641 -0.0231394 0)
(0.00100926 -0.0170027 0)
(0.00333661 -0.0174871 0)
(0.00322913 -0.0178228 0)
(-0.000610697 -0.0176415 0)
(0.000886916 -0.0203266 0)
(-0.00323049 -0.0187056 0)
(-0.00252511 -0.0199355 0)
(-0.00433735 -0.020427 0)
(-0.00160274 -0.0159304 0)
(0.00210945 -0.0172357 0)
(0.00123812 -0.0190925 0)
(0.000812702 -0.0142182 0)
(-0.000338941 -0.0171945 0)
(-0.000808874 -0.0196993 0)
(0.000114105 -0.0221518 0)
(0.000416463 -0.0268404 0)
(0.000615129 -0.0215907 0)
(0.0018754 -0.0201074 0)
(0.00375949 -0.0193148 0)
(0.00389312 -0.0151148 0)
(0.00277367 -0.0118798 0)
(-0.000326903 -0.0127391 0)
(-0.00195458 -0.0126112 0)
(-0.00114465 -0.013428 0)
(-0.00221193 -0.0166812 0)
(-0.00102676 -0.0151244 0)
(-0.00272581 -0.0137846 0)
(-0.00249323 -0.0131645 0)
(0.0019872 -0.0120226 0)
(0.00125546 -0.0145158 0)
(6.06203e-05 -0.0131942 0)
(-0.000234232 -0.0108954 0)
(0.0020902 -0.0116525 0)
(0.000801607 -0.0147194 0)
(0.00162761 -0.0169823 0)
(0.000197967 -0.0164673 0)
(-0.000452658 -0.0178741 0)
(-0.00112552 -0.016508 0)
(0.000354982 -0.0163173 0)
(-0.000527741 -0.0165225 0)
(0.00267113 -0.0182603 0)
(0.000714029 -0.016505 0)
(0.000220045 -0.0165081 0)
(-0.00290215 -0.0187732 0)