/*--------------------------------*- C++ -*----------------------------------*\
  =========                 |
  \\      /  F ield         | OpenFOAM: The Open Source CFD Toolbox
   \\    /   O peration     | Website:  https://openfoam.org
    \\  /    A nd           | Version:  12
     \\/     M anipulation  |
\*---------------------------------------------------------------------------*/
FoamFile
{
    format      ascii;
    class       volVectorField;
    location    "0.35";
    object      U.water;
}
// * * * * * * * * * * * * * * * * * * * * * * * * * * * * * * * * * * * * * //

dimensions      [0 1 -1 0 0 0 0];

internalField   nonuniform List<vector> 
3750
(
(0.00121531 0.0113429 0)
(0.000195037 0.0107361 0)
(0.000462871 0.00493963 0)
(-0.000587571 0.00320038 0)
(0.000547755 0.00462764 0)
(-0.00137336 0.00592764 0)
(-0.00173094 0.00574353 0)
(-0.00167534 0.00814248 0)
(-0.000615851 0.00772308 0)
(0.000417939 0.00608802 0)
(0.00108804 0.00677434 0)
(0.000633779 0.00656689 0)
(0.00101554 0.00803199 0)
(-0.000684577 0.010414 0)
(0.00150781 0.0105363 0)
(0.00052568 0.00988828 0)
(0.000801572 0.00887622 0)
(0.000469274 0.00716303 0)
(0.00113586 0.00597115 0)
(0.000418045 0.00423541 0)
(-4.30579e-05 0.00395329 0)
(-0.00110557 0.00344651 0)
(-0.000615406 0.00425163 0)
(-0.00110098 0.00671798 0)
(-0.00187753 0.00703084 0)
(0.000654773 0.00350042 0)
(0.000772228 0.00246641 0)
(0.00189218 0.00070553 0)
(0.00130399 -0.000652911 0)
(0.00169448 -0.000712625 0)
(0.000250016 -0.000251832 0)
(-0.00131951 0.000604659 0)
(8.95112e-05 0.00523713 0)
(-0.00190698 0.00533954 0)
(-0.00138168 0.00161149 0)
(-0.00146165 0.00298878 0)
(-0.000643163 0.00346421 0)
(0.00105786 0.00368755 0)
(0.00195298 0.00204064 0)
(0.00214878 0.000514935 0)
(0.000395794 -0.00139973 0)
(-0.000664878 -0.000629506 0)
(-0.00148725 0.000449971 0)
(-0.00118608 0.00132572 0)
(-0.00073002 0.00241544 0)
(-4.57866e-05 0.0038197 0)
(0.000850227 0.00349007 0)
(0.000714533 0.00206991 0)
(0.00322739 0.00610134 0)
(0.000105848 0.00411775 0)
(2.14662e-06 -0.0021142 0)
(0.00120726 0.00320251 0)
(-0.00246574 0.00500955 0)
(-0.00025111 0.00157031 0)
(-0.000685028 0.00200366 0)
(-0.00170043 0.00229949 0)
(-0.00191474 0.00174768 0)
(-0.00172995 0.0013975 0)
(0.0010191 0.00124239 0)
(0.0028792 -0.000133416 0)
(0.00197041 -0.0015904 0)
(0.00161381 -0.0021892 0)
(0.00124262 -0.00265174 0)
(0.00203992 0.00122475 0)
(-0.00148244 0.00120025 0)
(-0.000430661 -0.00337014 0)
(-0.000437613 -0.00226012 0)
(-0.000913684 -0.000743339 0)
(-0.00110408 0.00107559 0)
(-0.00113396 0.00260085 0)
(1.86252e-05 0.00297126 0)
(0.000852188 0.00045984 0)
(0.00246451 -0.00332912 0)
(0.00286314 -0.0116668 0)
(0.0013607 -0.0129399 0)
(0.00265026 -0.00278931 0)
(-0.00157816 -0.00103213 0)
(-0.00158952 -0.00474433 0)
(0.000443565 -0.00554344 0)
(0.000183963 -0.00676506 0)
(-0.00134403 -0.00965871 0)
(-0.000386765 -0.00954421 0)
(-0.00257122 -0.00762372 0)
(-0.000676372 -0.00687007 0)
(-0.000260898 -0.0061522 0)
(-0.000577587 -0.00477443 0)
(-0.000927054 -0.00579772 0)
(-0.00139833 -0.00268969 0)
(-0.000106577 0.00200574 0)
(0.00187524 0.00200826 0)
(-0.00145846 -0.0023443 0)
(-2.92493e-05 -0.00282023 0)
(0.000824108 -0.00146154 0)
(0.000127636 -0.00265969 0)
(0.00153651 -0.00365642 0)
(0.000954392 -0.0048369 0)
(-0.000436061 -0.00535812 0)
(0.00208738 -0.00584955 0)
(0.00120336 -0.00755767 0)
(0.0013331 -0.00636935 0)
(0.000293487 -0.00881908 0)
(0.0001404 -0.0107751 0)
(0.000615444 -0.0109966 0)
(-1.8965e-05 -0.0104185 0)
(0.000352117 -0.00869782 0)
(-0.000626933 -0.00972827 0)
(-0.00145918 -0.00597503 0)
(0.000315155 -0.00394825 0)
(-0.00190305 -0.00519454 0)
(-0.0001304 -0.00704655 0)
(0.000378891 -0.00865189 0)
(-0.0010467 -0.00960988 0)
(0.000342574 -0.00943749 0)
(-0.00032166 -0.00870332 0)
(0.00245549 -0.00827605 0)
(0.00150218 -0.0103079 0)
(0.00110878 -0.0105521 0)
(-0.000737221 -0.0111236 0)
(-0.000371759 -0.0124201 0)
(-0.000542791 -0.0140619 0)
(8.2983e-05 -0.0123423 0)
(0.000420493 -0.013011 0)
(0.00181624 -0.0125762 0)
(0.00304978 -0.00975618 0)
(0.000154951 -0.0116003 0)
(0.000410491 -0.0123017 0)
(0.00153546 -0.00982121 0)
(-0.00352475 -0.00466113 0)
(-0.000947268 -0.00598404 0)
(-0.000305571 -0.0107564 0)
(0.000652824 -0.0122332 0)
(0.000967511 -0.0144912 0)
(0.00195537 -0.0170278 0)
(0.00135483 -0.0183995 0)
(0.000825874 -0.0193717 0)
(-0.000307295 -0.0177588 0)
(-0.000581962 -0.0159077 0)
(3.32572e-05 -0.0152153 0)
(0.00176321 -0.012798 0)
(-0.00190096 -0.0118643 0)
(-0.0010262 -0.0127108 0)
(-0.00160789 -0.0122285 0)
(-0.00236173 -0.0114608 0)
(-0.00230517 -0.0105698 0)
(-0.00115066 -0.00988768 0)
(0.0019628 -0.00989557 0)
(0.00535672 -0.0103613 0)
(0.00760295 -0.0134146 0)
(0.00649536 -0.0168068 0)
(0.000956774 -0.0147551 0)
(0.00111439 -0.0131169 0)
(-0.00225254 -0.012989 0)
(-0.00015268 -0.00971678 0)
(0.00241752 -0.0125435 0)
(0.000908079 -0.0177084 0)
(-0.00024975 -0.0162285 0)
(-0.00071736 -0.0163602 0)
(-0.00303259 -0.0138983 0)
(-0.00440169 -0.0124218 0)
(-0.00238697 -0.0158559 0)
(-0.000616491 -0.0170443 0)
(0.000351184 -0.019547 0)
(0.00110464 -0.0163136 0)
(0.00179125 -0.0109716 0)
(-0.00144905 -0.0144719 0)
(-0.00264669 -0.0151182 0)
(-0.000464468 -0.0114826 0)
(0.00239434 -0.0140975 0)
(0.000721459 -0.0147423 0)
(0.00265519 -0.0141256 0)
(0.00171818 -0.0159168 0)
(0.00126493 -0.0123722 0)
(0.00105194 -0.0110175 0)
(0.00323746 -0.0120636 0)
(0.00187524 -0.0125804 0)
(-0.00155205 -0.0142314 0)
(-0.00080863 -0.0128474 0)
(0.000513276 -0.0134599 0)
(0.000651317 -0.0142416 0)
(5.42126e-05 -0.0137772 0)
(0.000198028 -0.0155585 0)
(5.05977e-05 -0.0124108 0)
(-0.00115766 -0.00976391 0)
(-0.00074387 -0.0111389 0)
(-0.000413174 -0.0138965 0)
(0.000731627 -0.0175459 0)
(-0.00214405 -0.017587 0)
(-0.000519378 -0.0159863 0)
(0.00157353 -0.0141285 0)
(-0.000437749 -0.0140379 0)
(0.00293358 -0.0176583 0)
(0.00211927 -0.017193 0)
(0.00137732 -0.0154376 0)
(0.000982742 -0.0157876 0)
(3.62006e-05 -0.0181444 0)
(-0.00012737 -0.0175952 0)
(-0.000749919 -0.0182448 0)
(0.000571194 -0.0188433 0)
(-0.000236941 -0.0181425 0)
(-0.00013089 -0.0184205 0)
(-0.000200006 -0.0191817 0)
(0.000299273 -0.0193248 0)
(-0.000311992 -0.0150463 0)
(-0.00418338 -0.0152641 0)
(0.000875907 -0.018256 0)
(0.00159487 -0.0185734 0)
(0.00376647 -0.018516 0)
(0.00526084 -0.0186492 0)
(0.00214607 -0.0193206 0)
(0.00069649 -0.020584 0)
(0.000121636 -0.0222996 0)
(-0.000604041 -0.0227526 0)
(-0.000743059 -0.0225158 0)
(-0.000725981 -0.0216487 0)
(-0.00149058 -0.0208882 0)
(-0.00191208 -0.0204812 0)
(-0.00278137 -0.0202972 0)
(-0.00304242 -0.0202469 0)
(-0.00298502 -0.0201814 0)
(-0.00155 -0.0205366 0)
(0.00255233 -0.0204443 0)
(0.00590204 -0.0192547 0)
(0.00679382 -0.0185807 0)
(0.00579429 -0.0192738 0)
(0.000669948 -0.0154786 0)
(0.00186333 -0.0185227 0)
(0.000261831 -0.017571 0)
(-5.06779e-05 -0.0148416 0)
(-0.000115168 -0.0164298 0)
(0.000789012 -0.0193993 0)
(0.000846959 -0.0185791 0)
(0.00142228 -0.0182768 0)
(0.00244264 -0.0197297 0)
(-0.000452237 -0.0193196 0)
(-0.00109764 -0.019267 0)
(-0.00226747 -0.0222913 0)
(0.00132635 -0.0240795 0)
(0.00153834 -0.021317 0)
(-0.000619013 -0.0191183 0)
(-0.00393556 -0.0202667 0)
(-0.00106216 -0.0176768 0)
(0.000479666 -0.0142326 0)
(0.00169925 -0.0192222 0)
(0.00132418 -0.0192966 0)
(-0.000591714 -0.0176278 0)
(9.02163e-05 -0.0191376 0)
(0.001021 -0.0169977 0)
(-0.000936495 -0.0129067 0)
(0.000345643 -0.0124609 0)
(0.00178738 -0.0159829 0)
(0.000953118 -0.0166815 0)
(-4.81464e-05 -0.0152724 0)
(-7.31877e-05 -0.0155909 0)
(0.000900691 -0.0165927 0)
(0.000239477 -0.0148261 0)
(0.000556472 -0.0152211 0)
(0.00260627 -0.0134935 0)
(0.00067416 -0.0130922 0)
(0.000780641 -0.0151309 0)
(-6.9634e-05 -0.0166424 0)
(-0.000114233 -0.0190924 0)
(0.00144861 -0.0175634 0)
(0.00170848 -0.0135623 0)
(0.00202966 -0.0175594 0)
(-0.00179497 -0.0179261 0)
(-0.000766307 -0.018447 0)
(0.000231367 -0.021405 0)
(0.00138597 -0.0177274 0)
(-0.000446914 -0.0165854 0)
(-0.00125779 -0.0171509 0)
(0.00270489 -0.0173439 0)
(0.00102356 -0.0186735 0)
(0.00134348 -0.018673 0)
(0.00122419 -0.0188567 0)
(0.00100963 -0.0190141 0)
(0.000980837 -0.0190813 0)
(0.00237133 -0.0188823 0)
(0.00156951 -0.0185609 0)
(-0.00314912 -0.0146091 0)
(-0.0034478 -0.0156839 0)
(3.70452e-05 -0.0197151 0)
(0.00180062 -0.0182921 0)
(0.0031195 -0.018154 0)
(0.00400093 -0.0183862 0)
(0.0033429 -0.0186236 0)
(0.00172523 -0.0195936 0)
(-0.000321896 -0.0208534 0)
(-0.00113383 -0.021033 0)
(-0.00130557 -0.0210423 0)
(-0.00133316 -0.0213166 0)
(-0.00128108 -0.0219224 0)
(-0.00187655 -0.0225503 0)
(-0.00238126 -0.0224366 0)
(-0.00233487 -0.0224328 0)
(-0.00110117 -0.0229115 0)
(0.00176446 -0.0226507 0)
(0.00383571 -0.0206173 0)
(0.00426095 -0.0195005 0)
(0.00361763 -0.0197657 0)
(4.33528e-05 -0.0161454 0)
(0.00164269 -0.0229279 0)
(0.00219889 -0.021832 0)
(0.00184129 -0.0176699 0)
(-0.000181562 -0.0195835 0)
(0.000452703 -0.0241084 0)
(0.000411354 -0.0222774 0)
(0.00320315 -0.0219901 0)
(0.00227427 -0.0229501 0)
(0.0020726 -0.0232445 0)
(1.88388e-05 -0.0232075 0)
(-0.00287302 -0.0202211 0)
(-0.00213483 -0.0212014 0)
(-0.00106838 -0.0220053 0)
(-0.00200267 -0.0203983 0)
(-0.00160543 -0.022711 0)
(0.000460182 -0.0214039 0)
(0.000318152 -0.0187281 0)
(-0.000670526 -0.0203498 0)
(0.00165896 -0.0201054 0)
(-0.00125518 -0.0181912 0)
(-0.000634492 -0.0172283 0)
(-0.000358072 -0.0164239 0)
(0.00240284 -0.0154978 0)
(0.00160858 -0.0117817 0)
(0.000202263 -0.0135002 0)
(-0.00145868 -0.0175677 0)
(-0.00227662 -0.0150057 0)
(-0.000579958 -0.0154895 0)
(-0.000183809 -0.0163377 0)
(0.000107798 -0.0156029 0)
(0.000846636 -0.0147341 0)
(0.00240634 -0.015405 0)
(0.00231773 -0.0169666 0)
(0.00192819 -0.0169278 0)
(0.00132249 -0.0171772 0)
(0.000157816 -0.016133 0)
(0.000993326 -0.0131217 0)
(0.00160558 -0.0133347 0)
(-0.000710056 -0.0164853 0)
(0.00127189 -0.0164683 0)
(-0.00164086 -0.0165164 0)
(0.00048123 -0.0167165 0)
(0.00158821 -0.0166853 0)
(-7.66647e-05 -0.0179396 0)
(0.000529 -0.0136783 0)
(0.000552376 -0.0141164 0)
(-8.48761e-05 -0.0174663 0)
(0.000185527 -0.0169878 0)
(0.000413745 -0.0167417 0)
(2.1604e-05 -0.0171482 0)
(0.000390949 -0.0159944 0)
(0.00125091 -0.0143943 0)
(0.000638024 -0.0136968 0)
(0.00154558 -0.0133304 0)
(-0.000650268 -0.0118904 0)
(0.000581432 -0.0141663 0)
(0.00054591 -0.0188004 0)
(0.00182748 -0.0181663 0)
(0.00327677 -0.0177903 0)
(0.00348896 -0.0180469 0)
(0.00272314 -0.0184261 0)
(0.00114039 -0.019782 0)
(-0.000143003 -0.0209017 0)
(-0.000675277 -0.0225372 0)
(-0.000453186 -0.0237642 0)
(-0.000726668 -0.0240198 0)
(-0.00235261 -0.023416 0)
(-0.00328986 -0.022565 0)
(-0.00308685 -0.0221027 0)
(-0.00142096 -0.0218367 0)
(0.00119656 -0.0214427 0)
(0.00231924 -0.0197575 0)
(0.00250519 -0.0189082 0)
(0.00219396 -0.0197745 0)
(-0.000104385 -0.016727 0)
(0.00251977 -0.0233636 0)
(0.00193178 -0.0216226 0)
(0.00404724 -0.0203737 0)
(-0.000414966 -0.0211144 0)
(0.000705958 -0.0231726 0)
(0.0025436 -0.0207293 0)
(0.00282106 -0.0207241 0)
(0.00157314 -0.0232109 0)
(0.000920567 -0.0217813 0)
(0.000235538 -0.0203945 0)
(-0.000125741 -0.0187784 0)
(-0.0029387 -0.0184652 0)
(-0.00199039 -0.0194588 0)
(-0.00272982 -0.0202778 0)
(-0.00152489 -0.0197017 0)
(-0.000524037 -0.018176 0)
(-0.000819867 -0.0173636 0)
(-0.000425409 -0.0173433 0)
(-0.000303993 -0.0165971 0)
(-0.00202192 -0.0160631 0)
(-0.00266741 -0.0155596 0)
(7.67517e-05 -0.0123769 0)
(0.000580179 -0.00981634 0)
(0.0013609 -0.0124607 0)
(-0.00184058 -0.0159304 0)
(-0.000934578 -0.0171456 0)
(-0.00109608 -0.0143081 0)
(-0.00109302 -0.0153143 0)
(-0.000749724 -0.0182397 0)
(-0.00105795 -0.0161127 0)
(0.00180914 -0.0149865 0)
(0.00288342 -0.0152326 0)
(0.000112629 -0.0160384 0)
(0.00239549 -0.0174878 0)
(0.00159589 -0.018333 0)
(0.00188818 -0.0196296 0)
(0.00185133 -0.0159953 0)
(-0.000424222 -0.0145906 0)
(0.00124962 -0.0171854 0)
(-2.35566e-06 -0.0174064 0)
(-0.00132164 -0.0180391 0)
(-0.000464298 -0.0172202 0)
(-0.000386333 -0.0170976 0)
(0.000173709 -0.0165524 0)
(0.00276235 -0.0152746 0)
(-0.000202618 -0.0161325 0)
(0.000906948 -0.0173161 0)
(0.000910284 -0.0169513 0)
(0.000160284 -0.0185292 0)
(0.000204974 -0.019092 0)
(0.000640844 -0.0174097 0)
(0.000327639 -0.0176086 0)
(-0.000670833 -0.018761 0)
(0.00215755 -0.0165309 0)
(0.00239969 -0.0155898 0)
(-0.000873473 -0.016554 0)
(0.000873105 -0.0165752 0)
(0.00168804 -0.0166099 0)
(0.00331938 -0.0168721 0)
(0.0034925 -0.0168832 0)
(0.00294283 -0.016984 0)
(0.00213373 -0.0176696 0)
(0.00152716 -0.0186677 0)
(0.00112062 -0.0203525 0)
(0.000351083 -0.0219174 0)
(-0.00139038 -0.0220733 0)
(-0.00369152 -0.0208861 0)
(-0.00409283 -0.0204061 0)
(-0.00356404 -0.0202561 0)
(-0.00145937 -0.020543 0)
(0.000638004 -0.0200813 0)
(0.00127782 -0.0187435 0)
(0.00154241 -0.0183499 0)
(0.00139186 -0.0199191 0)
(-6.98203e-05 -0.0171011 0)
(0.00255275 -0.0209973 0)
(0.00211171 -0.0179069 0)
(0.00108134 -0.0172044 0)
(0.000364806 -0.0196217 0)
(0.00122322 -0.0179172 0)
(0.00312047 -0.0169446 0)
(0.000711386 -0.0178901 0)
(0.000549311 -0.0195493 0)
(-0.000795066 -0.0178497 0)
(-0.000746566 -0.017108 0)
(-0.00137241 -0.0158118 0)
(-0.00284665 -0.0157181 0)
(-0.00309508 -0.0160098 0)
(-0.00259917 -0.0154664 0)
(-0.00151091 -0.0163469 0)
(-0.00134603 -0.0161578 0)
(-0.0013699 -0.013766 0)
(0.00153044 -0.0146902 0)
(-0.000190554 -0.01736 0)
(-0.00163586 -0.0166064 0)
(-0.00148235 -0.0130028 0)
(0.00207436 -0.0126542 0)
(-0.00151235 -0.0141892 0)
(0.00128209 -0.0151026 0)
(0.00141242 -0.017971 0)
(0.000873476 -0.0199312 0)
(0.00060267 -0.0204757 0)
(-0.00279548 -0.0213216 0)
(-0.000803925 -0.0221879 0)
(-0.00125957 -0.0168546 0)
(0.0026471 -0.0127795 0)
(0.00195685 -0.0176447 0)
(0.00192329 -0.017759 0)
(0.00108189 -0.017149 0)
(0.00206402 -0.0200466 0)
(0.0028162 -0.0193052 0)
(0.00321364 -0.0193308 0)
(-0.000257656 -0.01636 0)
(0.000226079 -0.0168965 0)
(-0.00188024 -0.0207099 0)
(-0.00184385 -0.0191727 0)
(0.00068071 -0.0192367 0)
(0.000330174 -0.0197604 0)
(-0.000797552 -0.0182482 0)
(0.00209598 -0.0177478 0)
(0.000776418 -0.0184977 0)
(0.00134469 -0.0192801 0)
(0.000324668 -0.0194284 0)
(0.000897045 -0.0193132 0)
(-7.64943e-05 -0.019591 0)
(7.82405e-05 -0.018483 0)
(0.00242018 -0.0200905 0)
(0.00146411 -0.0185024 0)
(-0.00154453 -0.0164534 0)
(-0.000860344 -0.0191125 0)
(-0.001166 -0.0192004 0)
(0.000851425 -0.0200242 0)
(0.00204859 -0.018359 0)
(0.00337952 -0.016558 0)
(0.00370271 -0.016926 0)
(0.00355454 -0.0166519 0)
(0.0033147 -0.0168043 0)
(0.00279745 -0.0173888 0)
(0.00250621 -0.0179702 0)
(0.00122491 -0.0180768 0)
(-0.00152878 -0.0175567 0)
(-0.00349896 -0.0171872 0)
(-0.00378575 -0.0174799 0)
(-0.00311086 -0.0184647 0)
(-0.00132196 -0.0194957 0)
(-1.35022e-05 -0.0191193 0)
(0.000501073 -0.0182593 0)
(0.000942491 -0.0182371 0)
(0.000821672 -0.020207 0)
(4.13222e-07 -0.0173428 0)
(0.00346009 -0.0203742 0)
(0.0033272 -0.0200012 0)
(0.000520054 -0.0198839 0)
(0.00165679 -0.019185 0)
(-0.00012979 -0.0173954 0)
(0.00131314 -0.0160173 0)
(0.00100764 -0.016598 0)
(-0.000302877 -0.017849 0)
(-0.000293888 -0.017484 0)
(-0.000385025 -0.016756 0)
(-0.000868209 -0.0161859 0)
(-0.00176859 -0.0156166 0)
(-0.00194949 -0.0168944 0)
(-0.00195501 -0.0178507 0)
(-0.00265171 -0.0185392 0)
(-0.00248558 -0.018965 0)
(0.00126811 -0.0147376 0)
(0.00117076 -0.0168138 0)
(0.000683793 -0.0208158 0)
(0.000165866 -0.0204507 0)
(0.0024252 -0.0171717 0)
(-0.00217261 -0.0189087 0)
(-0.00349867 -0.0183792 0)
(0.000963017 -0.0185337 0)
(0.00193117 -0.0237215 0)
(0.00116022 -0.0237486 0)
(0.000208603 -0.0236629 0)
(-0.00111849 -0.0242983 0)
(-2.88105e-05 -0.0252829 0)
(0.00131277 -0.0202096 0)
(0.000351565 -0.017627 0)
(0.00138367 -0.0211832 0)
(0.00224378 -0.0211515 0)
(-0.000379791 -0.0216202 0)
(0.00104661 -0.0197854 0)
(0.00234544 -0.0189045 0)
(0.00230213 -0.0196374 0)
(0.0020672 -0.0181404 0)
(-0.000693787 -0.0196605 0)
(-0.000169875 -0.0214858 0)
(-0.000905453 -0.0183625 0)
(-0.00219265 -0.0182606 0)
(0.000423702 -0.0214857 0)
(-0.00171282 -0.0175247 0)
(0.0010878 -0.0168465 0)
(0.000668259 -0.0197057 0)
(0.00153586 -0.0193117 0)
(0.00134983 -0.0192085 0)
(0.000876864 -0.0205393 0)
(0.00120326 -0.0227296 0)
(0.000757846 -0.0176385 0)
(0.00163256 -0.0169573 0)
(0.00280243 -0.0205345 0)
(-0.00117806 -0.0162918 0)
(0.000292145 -0.0180957 0)
(-0.000277163 -0.0229514 0)
(-0.00111276 -0.0221041 0)
(0.000155743 -0.0222076 0)
(0.00151715 -0.0202515 0)
(0.00264653 -0.0189737 0)
(0.00292357 -0.017903 0)
(0.00281558 -0.0173988 0)
(0.00225481 -0.0171891 0)
(0.00160478 -0.0168562 0)
(-3.28699e-05 -0.0162801 0)
(-0.00223074 -0.0158473 0)
(-0.00311018 -0.0161332 0)
(-0.00302601 -0.0169022 0)
(-0.0017259 -0.0181311 0)
(-0.000606328 -0.0187455 0)
(0.000103719 -0.0184016 0)
(0.000299669 -0.017892 0)
(0.00078741 -0.0180659 0)
(0.000610356 -0.0203222 0)
(8.48263e-07 -0.0174982 0)
(7.48884e-05 -0.0191472 0)
(0.000398269 -0.0206038 0)
(-0.000117805 -0.0190307 0)
(0.00103351 -0.0195986 0)
(0.000882576 -0.0172486 0)
(-0.000346093 -0.013473 0)
(-0.00126803 -0.0174387 0)
(-0.00163974 -0.0190969 0)
(-0.000525661 -0.0170569 0)
(-0.0010701 -0.0168122 0)
(-0.00115649 -0.0159956 0)
(-0.00281202 -0.0171824 0)
(-0.00205603 -0.0185445 0)
(-0.000834649 -0.0197264 0)
(-0.00038313 -0.0228106 0)
(0.000735798 -0.019609 0)
(0.000591108 -0.0179871 0)
(6.61032e-05 -0.0231723 0)
(0.000115093 -0.0251403 0)
(0.000744736 -0.0204401 0)
(0.002258 -0.0192373 0)
(-0.0004452 -0.0235668 0)
(0.000250068 -0.0195477 0)
(0.00134667 -0.0203641 0)
(0.000425576 -0.0253337 0)
(0.00172452 -0.0254644 0)
(0.000103492 -0.0246239 0)
(-0.000378854 -0.0238393 0)
(0.000411191 -0.0252786 0)
(0.0027446 -0.0258738 0)
(-0.000192518 -0.0222949 0)
(-0.000689734 -0.0235064 0)
(-0.000214468 -0.025971 0)
(-0.00107941 -0.0239963 0)
(-0.00175802 -0.0214032 0)
(0.00250084 -0.0208832 0)
(0.00187847 -0.0214879 0)
(0.00205471 -0.0209498 0)
(0.00031859 -0.0221834 0)
(0.000696854 -0.0219588 0)
(0.00131863 -0.0218597 0)
(-0.00123252 -0.0188759 0)
(-0.000263063 -0.0216695 0)
(0.000984616 -0.0216679 0)
(-0.00101232 -0.020369 0)
(0.000476885 -0.0238348 0)
(-0.000113155 -0.0232057 0)
(0.000722218 -0.0226355 0)
(0.000704609 -0.0211017 0)
(0.00139029 -0.0201549 0)
(0.00217172 -0.018442 0)
(-0.000447623 -0.018026 0)
(0.000758511 -0.0192396 0)
(0.00152432 -0.0156236 0)
(-0.000119285 -0.0149238 0)
(-7.10873e-05 -0.0190352 0)
(0.00073983 -0.0199866 0)
(-8.4657e-05 -0.0198383 0)
(0.000434737 -0.0179305 0)
(0.00129061 -0.0179267 0)
(0.00204311 -0.0170275 0)
(0.00227579 -0.0162836 0)
(0.00225258 -0.0161062 0)
(0.00176339 -0.0160897 0)
(0.00025332 -0.016732 0)
(-0.00176419 -0.0170945 0)
(-0.0023529 -0.0174017 0)
(-0.00223273 -0.0177583 0)
(-0.00136047 -0.0184125 0)
(-0.000727826 -0.0187276 0)
(-0.000189838 -0.0183553 0)
(-3.70287e-05 -0.0179686 0)
(0.000448126 -0.0182351 0)
(0.000351201 -0.020529 0)
(3.23041e-05 -0.0176122 0)
(-0.00106742 -0.0173401 0)
(-1.35852e-05 -0.017514 0)
(0.00166347 -0.017148 0)
(0.00181402 -0.0161127 0)
(0.00263381 -0.0161202 0)
(0.00101964 -0.0153893 0)
(-0.0024986 -0.0166176 0)
(-0.00196325 -0.0179102 0)
(-0.00231656 -0.0171063 0)
(-0.00161495 -0.0175431 0)
(-0.000681136 -0.0170999 0)
(-0.00119886 -0.0182982 0)
(0.000838888 -0.0187578 0)
(0.000953639 -0.0222543 0)
(0.0013088 -0.0235292 0)
(0.00390999 -0.0232902 0)
(0.000265427 -0.0209646 0)
(-0.000510652 -0.0229934 0)
(-0.00124928 -0.0270498 0)
(0.000837791 -0.0248341 0)
(-0.000654526 -0.0255416 0)
(0.00119629 -0.0275646 0)
(0.00262105 -0.0226418 0)
(-0.000862175 -0.0228276 0)
(-0.00220926 -0.0270161 0)
(0.00021586 -0.0256424 0)
(-0.00110307 -0.0251031 0)
(0.00109406 -0.0245112 0)
(0.00245649 -0.0241705 0)
(0.00174989 -0.0237779 0)
(0.00226961 -0.0231237 0)
(-0.00073973 -0.0230079 0)
(-0.00114566 -0.0232385 0)
(-0.00160377 -0.0232289 0)
(-0.00249412 -0.0175392 0)
(0.00162478 -0.0171525 0)
(0.00134684 -0.0215332 0)
(0.000349808 -0.0210001 0)
(0.000651199 -0.02228 0)
(7.93067e-05 -0.0217352 0)
(0.000450585 -0.0213171 0)
(0.00194469 -0.0207182 0)
(-0.000881717 -0.0208592 0)
(0.00142302 -0.0204621 0)
(-0.00119044 -0.0189381 0)
(-0.000252708 -0.0199255 0)
(5.37802e-05 -0.0212075 0)
(-0.000277369 -0.0205098 0)
(-0.000313625 -0.0204916 0)
(-0.000704335 -0.0191893 0)
(-0.000618135 -0.0171663 0)
(-0.00150495 -0.0169211 0)
(-5.17711e-05 -0.0182231 0)
(0.00111623 -0.016288 0)
(0.00015718 -0.0150418 0)
(0.00190599 -0.0157875 0)
(0.000397749 -0.0158147 0)
(0.000366465 -0.0156068 0)
(-0.000851171 -0.0140233 0)
(0.000410473 -0.0151588 0)
(0.00137893 -0.0150447 0)
(0.00163698 -0.0139744 0)
(0.00226455 -0.0132246 0)
(0.0020186 -0.0128841 0)
(0.000809623 -0.013271 0)
(-0.0015531 -0.0143669 0)
(-0.002456 -0.0151783 0)
(-0.00226285 -0.0159074 0)
(-0.00101242 -0.0167964 0)
(-0.00025738 -0.0175781 0)
(-6.58615e-05 -0.0177985 0)
(0.000174911 -0.0175458 0)
(0.000410937 -0.0181117 0)
(0.000283174 -0.0205061 0)
(-9.32234e-06 -0.0176777 0)
(-0.00167052 -0.0181125 0)
(-5.31695e-05 -0.0179119 0)
(0.000581425 -0.0175627 0)
(0.00086274 -0.017672 0)
(0.000933919 -0.0164484 0)
(0.000146604 -0.0160408 0)
(-0.00190184 -0.0175261 0)
(-0.00202221 -0.0170358 0)
(-0.00326332 -0.0157367 0)
(-0.00165973 -0.0144642 0)
(0.0020309 -0.0151431 0)
(0.000852653 -0.0139075 0)
(-0.000827784 -0.0148789 0)
(0.000510302 -0.0188724 0)
(0.0025378 -0.0184495 0)
(0.00174996 -0.0190482 0)
(0.00130425 -0.0205037 0)
(-0.0018255 -0.02235 0)
(-0.000161716 -0.024984 0)
(0.00109308 -0.0252591 0)
(0.00145687 -0.0263413 0)
(0.00238855 -0.0265482 0)
(0.00439625 -0.0249852 0)
(0.000520558 -0.0242117 0)
(0.000201005 -0.0231833 0)
(0.000407362 -0.0245036 0)
(-0.000567749 -0.0242928 0)
(-0.000185319 -0.0202125 0)
(-0.000395077 -0.0222737 0)
(0.000772493 -0.0223004 0)
(0.000778227 -0.0207876 0)
(-0.00158944 -0.021404 0)
(-0.00201137 -0.0213773 0)
(-0.000976908 -0.021926 0)
(-0.000444235 -0.0166767 0)
(-0.00153333 -0.0152548 0)
(0.000399307 -0.0197262 0)
(0.000948514 -0.0181481 0)
(0.000561728 -0.0190925 0)
(0.000723977 -0.0200232 0)
(-8.41908e-05 -0.0190476 0)
(-3.01407e-05 -0.019556 0)
(-0.000589915 -0.0186325 0)
(-0.00134165 -0.0164273 0)
(0.000601085 -0.0146621 0)
(0.000850008 -0.0156476 0)
(0.000356503 -0.017844 0)
(-0.000562391 -0.0189205 0)
(-0.0010226 -0.0187148 0)
(-0.00110591 -0.01929 0)
(-0.000520325 -0.0181299 0)
(-0.00123859 -0.0172686 0)
(-0.000811484 -0.0174364 0)
(0.000235895 -0.0152926 0)
(-0.00231746 -0.012775 0)
(0.00192082 -0.0137692 0)
(-0.000470151 -0.0135413 0)
(0.00142035 -0.011329 0)
(0.000665032 -0.0108297 0)
(0.000896896 -0.0130177 0)
(-8.13258e-05 -0.0148417 0)
(0.000407749 -0.0150086 0)
(0.00130559 -0.0129411 0)
(0.00196097 -0.0112252 0)
(0.00169586 -0.0107757 0)
(0.000804648 -0.0113465 0)
(-0.000482022 -0.0133512 0)
(-0.000874475 -0.0157845 0)
(0.000291214 -0.0172638 0)
(0.000539237 -0.0178935 0)
(0.000348739 -0.0181803 0)
(0.000219985 -0.0179322 0)
(0.000246619 -0.0182667 0)
(0.00021028 -0.0206443 0)
(-4.8869e-06 -0.0177525 0)
(-0.000383703 -0.0203982 0)
(0.000423092 -0.0199235 0)
(-2.09812e-05 -0.0206374 0)
(0.0013214 -0.0190907 0)
(0.0014567 -0.0200243 0)
(-0.000549434 -0.0205889 0)
(-0.00187287 -0.020437 0)
(-0.0028568 -0.0197743 0)
(-0.00237969 -0.0185712 0)
(-0.000595506 -0.014156 0)
(0.0009348 -0.0152818 0)
(0.00298765 -0.0179023 0)
(0.00107793 -0.0142732 0)
(0.00248194 -0.0121358 0)
(0.00298935 -0.015576 0)
(0.000877731 -0.0171842 0)
(0.00107681 -0.0166034 0)
(5.95924e-05 -0.0182322 0)
(-0.000198927 -0.0196382 0)
(0.000857326 -0.0206992 0)
(0.000149194 -0.0210128 0)
(0.000828841 -0.0219598 0)
(0.00409729 -0.0231697 0)
(0.00156493 -0.0238157 0)
(0.00228754 -0.0217163 0)
(-0.000910532 -0.0192775 0)
(0.000905902 -0.0176788 0)
(-0.000844769 -0.0153439 0)
(-0.00408531 -0.0146289 0)
(0.00109836 -0.0159003 0)
(0.00010318 -0.018931 0)
(-0.000360665 -0.019576 0)
(-0.00107526 -0.0189328 0)
(-0.00142059 -0.0202873 0)
(-0.000866926 -0.0195096 0)
(-0.00369499 -0.0196056 0)
(-9.06343e-05 -0.0192856 0)
(0.00162108 -0.0183918 0)
(0.00118714 -0.0183349 0)
(0.00100673 -0.0179538 0)
(9.52649e-05 -0.0178847 0)
(-0.00119695 -0.0168551 0)
(-0.000676608 -0.0170739 0)
(-0.00137043 -0.0144254 0)
(0.0012884 -0.0125208 0)
(0.000494082 -0.0168571 0)
(-0.000211689 -0.0194133 0)
(-0.000394494 -0.0203339 0)
(-0.00143358 -0.020067 0)
(-0.00179228 -0.0178397 0)
(-0.00167904 -0.017405 0)
(-0.0015307 -0.0186849 0)
(-0.00102078 -0.0192122 0)
(0.00070011 -0.0199205 0)
(-0.000351587 -0.0157987 0)
(-0.00147118 -0.0164455 0)
(0.00218649 -0.0169786 0)
(0.000551481 -0.0123361 0)
(0.00242293 -0.0109053 0)
(0.00030407 -0.0139662 0)
(-0.00118869 -0.0161291 0)
(-0.00128704 -0.0143942 0)
(-0.000881004 -0.0133748 0)
(-2.86842e-05 -0.0125552 0)
(0.000763929 -0.0126275 0)
(0.00143215 -0.0132655 0)
(0.00162447 -0.0152515 0)
(0.00129174 -0.0171733 0)
(0.00118892 -0.017731 0)
(0.00105203 -0.0179366 0)
(0.000586677 -0.0179086 0)
(0.000396133 -0.0176192 0)
(7.76205e-05 -0.0182025 0)
(0.000149541 -0.0205906 0)
(-3.53297e-05 -0.0177733 0)
(-6.46843e-05 -0.0200948 0)
(-0.000632128 -0.0205511 0)
(-0.000300599 -0.0203435 0)
(-0.00152807 -0.0183881 0)
(0.00206532 -0.0182485 0)
(0.000140257 -0.0197202 0)
(-0.00143905 -0.0197686 0)
(-0.00387121 -0.018676 0)
(-0.00242903 -0.017312 0)
(-0.000829673 -0.0163196 0)
(-0.000740527 -0.0180276 0)
(0.000630904 -0.0180042 0)
(0.00089636 -0.0137963 0)
(0.00236149 -0.0118432 0)
(-0.000639631 -0.0124529 0)
(2.65616e-05 -0.0104599 0)
(8.96141e-05 -0.00716092 0)
(0.00150621 -0.00738885 0)
(0.00244298 -0.00718356 0)
(0.00513072 -0.00869402 0)
(0.00306534 -0.014008 0)
(0.00398789 -0.0127995 0)
(0.00247309 -0.0159988 0)
(0.000951786 -0.0198005 0)
(0.000815074 -0.0175559 0)
(-0.00192222 -0.016477 0)
(-0.00285682 -0.0146349 0)
(-0.00041014 -0.0160889 0)
(-0.00222574 -0.0135143 0)
(0.00104701 -0.012737 0)
(0.00118841 -0.0175779 0)
(0.000741773 -0.0178392 0)
(0.000154939 -0.0181331 0)
(-0.00134549 -0.0189925 0)
(-0.00137924 -0.0193329 0)
(-0.000959 -0.0191694 0)
(-0.000394139 -0.0190228 0)
(0.000794357 -0.0187338 0)
(0.00201223 -0.0183645 0)
(-0.000653497 -0.0174907 0)
(-0.0012389 -0.0168219 0)
(-0.00062639 -0.0164556 0)
(0.000984695 -0.0168324 0)
(0.00414455 -0.0135051 0)
(0.00142823 -0.0134708 0)
(-2.0608e-06 -0.0180952 0)
(-0.00080099 -0.0192844 0)
(-0.000728593 -0.0184391 0)
(-0.00148627 -0.0174501 0)
(-0.0016037 -0.0170822 0)
(-0.00181376 -0.0177491 0)
(-0.000837666 -0.0186765 0)
(0.00102802 -0.0201316 0)
(0.00187251 -0.0215486 0)
(0.00173321 -0.0219849 0)
(-0.00135533 -0.0177581 0)
(0.00155433 -0.0177667 0)
(-0.000151901 -0.0160129 0)
(-0.00171125 -0.0128123 0)
(-0.00412149 -0.0159091 0)
(-0.00286893 -0.0150684 0)
(-0.0015821 -0.0144269 0)
(-0.000173948 -0.0142071 0)
(0.00112409 -0.0145365 0)
(0.00254909 -0.0155975 0)
(0.00344133 -0.0167296 0)
(0.00293929 -0.0177945 0)
(0.00159937 -0.0186565 0)
(0.00104196 -0.018703 0)
(0.000765164 -0.0185033 0)
(0.000557379 -0.0181318 0)
(0.000405851 -0.017826 0)
(5.31194e-05 -0.0182885 0)
(9.01346e-05 -0.020729 0)
(-3.25255e-05 -0.01781 0)
(-0.000193567 -0.0202278 0)
(-7.48059e-05 -0.0217285 0)
(-2.96422e-05 -0.0226103 0)
(-0.00148444 -0.0190141 0)
(0.00132668 -0.0190851 0)
(0.000540651 -0.0232045 0)
(-0.000118069 -0.0235103 0)
(-0.000720116 -0.0205433 0)
(-0.00203038 -0.0171665 0)
(-0.00176376 -0.0179388 0)
(-0.00118488 -0.0215643 0)
(-0.00104673 -0.0238358 0)
(-0.000677829 -0.019577 0)
(-0.000997054 -0.0206599 0)
(-0.00276924 -0.0224479 0)
(-0.00301122 -0.0208077 0)
(-0.00243502 -0.0189783 0)
(0.00271277 -0.0174165 0)
(0.0052019 -0.0144052 0)
(0.00626411 -0.0152539 0)
(0.00662435 -0.0174109 0)
(0.00620812 -0.0153449 0)
(0.00132047 -0.0161348 0)
(0.000256223 -0.0152126 0)
(0.0018309 -0.0145504 0)
(-0.000463419 -0.0160199 0)
(-0.000352129 -0.013042 0)
(-0.000356282 -0.0137206 0)
(0.00076607 -0.0131647 0)
(-0.000672972 -0.0119591 0)
(-0.000171687 -0.0164447 0)
(-0.00119162 -0.0141826 0)
(0.000154722 -0.0144627 0)
(-0.00116473 -0.019266 0)
(-0.000298473 -0.0210403 0)
(0.000835844 -0.0209297 0)
(-0.00058989 -0.0182882 0)
(-0.000151103 -0.0147266 0)
(-0.00176178 -0.0175197 0)
(-0.0021357 -0.0190255 0)
(-0.00197622 -0.0176277 0)
(-0.000899132 -0.0172937 0)
(0.000229545 -0.0155095 0)
(0.00444598 -0.0157503 0)
(-5.81769e-05 -0.0178265 0)
(0.000219062 -0.0187958 0)
(-0.00156044 -0.0179496 0)
(-0.00235313 -0.0164939 0)
(-0.00268194 -0.0157192 0)
(-0.0026797 -0.015349 0)
(-0.0013572 -0.0163114 0)
(-2.29362e-05 -0.016249 0)
(0.00068371 -0.0156206 0)
(0.00183678 -0.0157506 0)
(0.00263602 -0.0149697 0)
(0.0026819 -0.0140075 0)
(-6.0163e-05 -0.0156137 0)
(0.00131937 -0.0167797 0)
(-0.00308755 -0.0170078 0)
(-0.00343281 -0.0187755 0)
(-0.00329346 -0.0191484 0)
(-0.00253304 -0.0191422 0)
(-0.00102822 -0.0183303 0)
(0.00124704 -0.0181039 0)
(0.0033435 -0.018254 0)
(0.00382362 -0.0182839 0)
(0.00348025 -0.0182996 0)
(0.00190051 -0.0183384 0)
(0.00112141 -0.0183217 0)
(0.000867402 -0.0182847 0)
(0.000655828 -0.0179709 0)
(0.000496707 -0.0176537 0)
(1.43455e-05 -0.0181655 0)
(5.18308e-05 -0.0206256 0)
(-6.60254e-05 -0.0178003 0)
(-0.000288535 -0.0213177 0)
(-0.000310984 -0.0220748 0)
(-0.000113796 -0.0225756 0)
(0.00118007 -0.0167675 0)
(-0.000833699 -0.0167137 0)
(-0.00022422 -0.0211062 0)
(-0.00012964 -0.0200517 0)
(0.000225393 -0.0180267 0)
(-0.00211259 -0.0159237 0)
(-0.000780671 -0.0157869 0)
(-0.00256767 -0.0173835 0)
(-0.000157388 -0.0183491 0)
(0.000956684 -0.0168725 0)
(-0.00178571 -0.018977 0)
(-0.00334296 -0.0212464 0)
(0.00015668 -0.0229489 0)
(0.00113946 -0.0211601 0)
(0.00181766 -0.0224287 0)
(0.00226244 -0.0208675 0)
(0.00160376 -0.0187054 0)
(0.00304724 -0.0185156 0)
(0.00274485 -0.0170216 0)
(0.000421345 -0.0166117 0)
(0.00119035 -0.0111413 0)
(0.000248734 -0.0115296 0)
(0.000368396 -0.0146423 0)
(0.000423551 -0.013275 0)
(-0.00195281 -0.0143988 0)
(0.000409656 -0.0130732 0)
(-0.00265844 -0.0123634 0)
(-0.000800828 -0.0135442 0)
(0.00067149 -0.0106946 0)
(0.000168288 -0.0116094 0)
(0.000726651 -0.0178513 0)
(0.00169197 -0.0186528 0)
(0.0019038 -0.0177465 0)
(0.000678951 -0.0155299 0)
(-0.000677569 -0.0143372 0)
(-0.00389002 -0.0164483 0)
(-0.00222948 -0.016653 0)
(-0.000733413 -0.0163435 0)
(0.00218586 -0.0149889 0)
(0.000802727 -0.0130942 0)
(0.00226063 -0.0162681 0)
(-0.000985489 -0.0188105 0)
(0.000630703 -0.0179675 0)