/*--------------------------------*- C++ -*----------------------------------*\
  =========                 |
  \\      /  F ield         | OpenFOAM: The Open Source CFD Toolbox
   \\    /   O peration     | Website:  https://openfoam.org
    \\  /    A nd           | Version:  12
     \\/     M anipulation  |
\*---------------------------------------------------------------------------*/
FoamFile
{
    format      ascii;
    class       volScalarField::Internal;
    location    "0.75";
    object      cloud:UCoeff;
}
// * * * * * * * * * * * * * * * * * * * * * * * * * * * * * * * * * * * * * //

dimensions      [1 0 0 0 0 0 0];

value           nonuniform List<scalar> 
3750
(
4.70999e-06
3.5692e-07
6.081e-08
1.77291e-08
3.31702e-08
1.45002e-08
1.43908e-08
1.46986e-08
1.444e-08
1.43228e-08
0
1.43711e-08
0
3.43659e-08
0
3.48375e-08
1.41597e-08
3.28048e-08
3.26377e-08
1.38578e-08
1.46696e-08
1.44757e-08
1.43623e-08
1.3906e-08
1.64425e-08
1.47698e-08
1.37345e-08
0
0
1.62233e-08
1.62074e-08
1.46428e-08
1.37832e-08
0
0
1.48357e-08
1.47352e-08
0
1.45655e-08
0
3.33028e-08
3.28876e-08
1.48518e-08
1.51571e-08
1.51411e-08
1.51572e-08
1.49275e-08
3.4534e-08
1.43813e-08
3.40847e-08
0
3.37985e-08
1.49254e-08
1.49131e-08
1.47384e-08
1.44145e-08
1.41374e-08
3.38223e-08
1.34572e-08
6.36934e-08
1.56089e-08
0
1.42478e-08
1.44544e-08
3.46947e-08
1.44166e-08
3.39399e-08
1.38485e-08
0
1.45478e-08
1.37909e-08
1.36548e-08
0
1.39328e-08
1.49001e-08
1.72225e-05
3.63779e-07
2.1751e-08
3.33627e-08
1.45973e-08
1.47306e-08
1.4753e-08
3.45209e-08
1.44656e-08
1.44004e-08
1.41743e-08
1.40957e-08
0
0
1.46891e-08
0
3.52559e-08
1.42851e-08
1.41099e-08
0
1.46688e-08
0
1.42581e-08
1.42653e-08
0
1.58368e-08
1.45365e-08
0
1.6696e-09
3.56438e-08
3.73111e-08
1.39392e-08
3.40994e-08
1.47003e-08
0
1.46916e-08
0
0
3.38211e-08
3.45843e-08
1.36661e-08
3.30447e-08
1.3793e-08
0
0
0
0
0
3.63868e-08
0
1.50563e-08
1.47596e-08
1.5062e-08
3.71282e-08
0
1.47514e-08
0
0
1.45705e-08
3.72163e-08
1.57838e-08
3.52816e-08
1.42306e-08
0
1.43981e-08
1.58888e-08
3.68092e-08
6.38463e-08
3.4199e-08
1.37576e-08
0
1.40231e-08
0
1.42142e-08
3.50658e-08
1.20211e-06
3.61331e-07
6.72945e-08
1.43709e-08
1.45972e-08
1.45551e-08
1.45399e-08
1.44334e-08
3.42716e-08
0
1.40954e-08
1.37678e-08
1.35903e-08
0
1.45728e-08
3.36155e-08
1.40991e-08
1.35067e-08
3.40377e-08
0
1.40862e-08
1.40176e-08
5.80411e-08
1.38378e-08
1.5011e-08
0
0
1.45253e-08
1.52624e-08
0
0
1.48136e-08
3.48224e-08
1.3931e-08
0
1.46993e-08
3.44645e-08
1.444e-08
1.37764e-08
3.35189e-08
3.30276e-08
1.3679e-08
3.60588e-08
1.51105e-08
0
1.4958e-08
1.52494e-08
1.54758e-08
3.45086e-08
0
0
1.45355e-08
1.39946e-08
3.73935e-08
3.51674e-08
1.29496e-08
1.33743e-08
0
6.00672e-08
0
3.57671e-08
1.50093e-08
1.47751e-08
7.22181e-09
7.35769e-10
6.67098e-08
1.51861e-08
1.44686e-08
3.51851e-08
0
1.42056e-08
1.48569e-08
1.42107e-08
0
0
3.50698e-06
2.87328e-07
2.08075e-08
1.42958e-08
1.39838e-08
1.4303e-08
1.45131e-08
3.42014e-08
5.87072e-08
3.91654e-08
2.78863e-08
0
1.44302e-08
3.33128e-08
3.3715e-08
1.43362e-08
1.4153e-08
1.42471e-08
1.4504e-08
1.41567e-08
0
3.42611e-08
1.4232e-08
0
1.50599e-08
1.52128e-08
1.48818e-08
0
1.51517e-08
1.52055e-08
3.60857e-08
3.47899e-08
0
1.46998e-08
1.49285e-08
1.46202e-08
1.41232e-08
3.35485e-08
1.34237e-08
1.45422e-08
1.49559e-08
1.56224e-08
0
3.30869e-08
3.41243e-08
1.45393e-08
1.42091e-08
3.42281e-08
1.46558e-08
3.38025e-08
1.41999e-08
1.37999e-08
3.29737e-08
1.45113e-08
0
0
1.36515e-08
1.42234e-08
1.49809e-08
3.61927e-08
1.45098e-08
1.53449e-08
1.43852e-08
1.41427e-08
1.45772e-08
1.49743e-08
1.49128e-08
1.48002e-08
1.43259e-08
1.42854e-08
0
1.47165e-08
1.43602e-08
1.44892e-08
1.38963e-08
5.52815e-06
3.59152e-07
2.28776e-08
1.47907e-08
3.44456e-08
1.48199e-08
1.4574e-08
0
0
1.4534e-08
1.40075e-08
1.39412e-08
3.41723e-08
1.4153e-08
1.43946e-08
1.4492e-08
1.47713e-08
0
3.57877e-08
0
1.44597e-08
1.43819e-08
1.4595e-08
1.48363e-08
1.45394e-08
1.43245e-08
1.4682e-08
1.49854e-08
1.502e-08
3.62718e-08
1.45897e-08
1.44034e-08
1.48782e-08
1.58911e-08
6.37232e-08
1.36792e-08
1.47095e-08
0
3.50888e-08
1.46677e-08
1.49929e-08
0
3.49955e-08
1.34294e-08
1.30333e-08
1.35283e-08
1.4703e-08
1.47906e-08
3.47072e-08
1.41437e-08
1.46328e-08
3.40797e-08
3.43756e-08
0
1.50588e-08
0
3.52147e-08
0
3.42622e-08
1.4677e-08
1.53443e-08
3.75053e-08
1.48749e-08
1.38243e-08
3.54566e-08
1.42349e-08
1.49554e-08
0
1.4956e-08
1.447e-08
0
1.46462e-08
0
3.51937e-08
1.41542e-08
3.51849e-06
8.02342e-07
2.816e-08
1.47676e-08
1.44991e-08
0
3.56701e-08
1.50725e-08
1.46626e-08
1.39865e-08
3.47265e-08
1.37271e-08
1.41483e-08
1.46601e-08
1.46572e-08
1.48351e-08
1.48606e-08
1.49092e-08
0
1.41961e-08
1.46306e-08
3.45353e-08
1.41692e-08
1.44636e-08
3.47639e-08
1.42115e-08
1.46633e-08
1.5053e-08
1.49275e-08
1.5368e-08
1.56287e-08
7.61822e-09
0
3.99585e-08
0
0
0
0
0
1.49268e-08
0
1.47493e-08
3.51931e-08
0
1.41352e-08
1.45366e-08
1.47244e-08
1.47291e-08
1.48483e-08
3.58783e-08
1.44934e-08
1.46464e-08
1.49602e-08
1.46896e-08
1.44871e-08
1.46368e-08
0
1.42044e-08
1.40852e-08
1.46639e-08
1.63696e-08
1.56075e-08
1.32992e-08
1.33045e-08
0
1.46991e-08
0
1.49951e-08
0
1.47685e-08
3.48192e-08
1.48185e-08
0
1.46117e-08
1.45823e-08
3.03612e-06
3.84303e-07
4.31984e-08
1.4887e-08
1.44249e-08
1.48206e-08
0
1.48166e-08
1.45156e-08
0
1.39092e-08
1.3553e-08
1.38462e-08
1.43649e-08
1.45046e-08
0
1.46018e-08
1.49306e-08
0
1.46949e-08
3.52723e-08
1.42132e-08
1.40768e-08
3.45493e-08
1.41386e-08
1.42673e-08
0
1.50974e-08
1.48873e-08
0
0
1.45992e-09
3.56869e-08
1.48657e-08
1.61672e-08
3.48207e-08
1.36382e-08
3.40326e-08
3.41622e-08
3.46113e-08
3.45497e-08
1.40866e-08
1.45087e-08
1.44693e-08
1.43032e-08
1.40295e-08
0
1.42406e-08
1.51799e-08
2.39167e-08
2.49842e-08
0
1.58674e-08
1.49153e-08
1.40702e-08
1.43422e-08
1.459e-08
1.39276e-08
3.48361e-08
1.42968e-08
3.66229e-08
1.56721e-08
3.4989e-08
1.39356e-08
1.46508e-08
0
1.48553e-08
1.50688e-08
1.49502e-08
0
1.40644e-08
1.44749e-08
1.44545e-08
1.45457e-08
1.46445e-08
3.51136e-06
3.63178e-07
3.81787e-08
7.09875e-09
1.187e-09
1.49139e-08
0
1.49692e-08
0
1.40913e-08
1.40682e-08
1.43162e-08
3.49899e-08
1.45463e-08
1.48355e-08
0
1.4583e-08
1.47359e-08
1.48225e-08
1.47147e-08
0
1.41663e-08
1.37674e-08
3.52267e-08
0
1.4437e-08
1.49247e-08
1.51116e-08
0
1.46606e-08
6.79544e-08
1.54273e-08
0
1.47288e-08
1.5178e-08
1.48635e-08
1.45414e-08
1.44337e-08
1.43522e-08
1.43817e-08
0
1.47059e-08
1.45056e-08
1.4421e-08
3.41866e-08
1.38174e-08
3.45173e-08
1.38375e-08
3.83583e-08
0
1.37922e-08
3.80701e-08
0
1.3838e-08
1.38712e-08
1.42515e-08
3.48004e-08
1.44688e-08
1.45749e-08
0
1.51775e-08
1.53084e-08
0
1.45871e-08
1.4589e-08
1.48285e-08
1.49428e-08
1.49274e-08
2.04362e-08
2.71185e-08
1.47372e-08
1.41596e-08
1.43558e-08
0
1.50519e-08
7.55384e-06
3.74338e-07
7.30201e-08
1.44337e-08
0
1.5209e-08
1.45436e-08
1.46165e-08
1.44902e-08
0
1.4534e-08
0
1.45745e-08
0
1.48634e-08
0
0
1.49185e-08
1.53864e-08
1.49498e-08
1.42716e-08
6.05903e-08
1.56218e-08
3.1115e-08
1.42735e-08
1.449e-08
1.47116e-08
1.50038e-08
2.6062e-08
2.22657e-08
1.63827e-08
1.54249e-08
3.55753e-08
1.4733e-08
1.47319e-08
3.54428e-08
1.49073e-08
0
1.47299e-08
1.44303e-08
3.5284e-08
1.41283e-08
1.45003e-08
1.49025e-08
1.45511e-08
1.46055e-08
1.46331e-08
1.48452e-08
1.4756e-08
1.49854e-08
0
3.59409e-08
1.76669e-08
1.24598e-08
3.49187e-08
1.42599e-08
1.411e-08
1.48001e-08
0
1.49019e-08
0
1.51581e-08
1.51672e-08
1.47598e-08
1.48719e-08
1.48398e-08
3.53725e-08
1.41176e-08
1.40851e-08
1.49495e-08
3.51941e-08
3.37966e-08
3.36048e-08
0
1.48945e-08
5.56679e-06
3.13297e-07
1.07664e-07
8.65131e-09
1.39698e-08
0
1.56316e-08
3.58913e-08
1.46863e-08
0
0
1.47517e-08
1.46634e-08
1.45482e-08
0
1.42979e-08
0
1.40282e-08
3.50379e-08
3.52846e-08
1.43368e-08
0
0
1.39469e-08
1.36503e-08
3.33827e-08
3.47235e-08
3.48665e-08
3.45083e-08
1.45567e-08
1.54202e-08
1.53605e-08
1.49058e-08
1.4379e-08
1.45837e-08
1.45537e-08
1.46094e-08
3.49576e-08
1.42736e-08
1.45002e-08
1.47425e-08
0
0
1.46273e-08
1.45421e-08
1.44355e-08
1.48316e-08
1.51228e-08
1.52011e-08
1.52826e-08
1.46071e-08
1.45457e-08
1.44056e-08
3.61516e-08
1.4261e-08
1.39403e-08
1.43995e-08
1.47036e-08
1.48306e-08
1.48693e-08
1.51133e-08
0
1.50625e-08
1.48115e-08
1.4874e-08
1.44972e-08
3.42546e-08
1.38116e-08
2.48619e-08
2.13313e-08
3.49058e-08
6.01619e-08
3.30946e-08
3.36909e-08
1.40357e-08
3.51532e-06
4.54576e-07
9.36464e-08
1.37654e-08
1.42616e-08
0
0
1.48965e-08
0
1.42965e-08
3.53313e-08
1.43071e-08
3.45048e-08
3.31364e-08
1.3294e-08
3.43518e-08
1.35171e-08
1.39021e-08
1.45363e-08
0
1.52752e-08
1.21109e-08
6.4187e-08
3.55122e-08
3.268e-08
1.2937e-08
0
1.43632e-08
1.50288e-08
1.52018e-08
1.59573e-08
0
1.51394e-08
0
1.5081e-08
3.58636e-08
1.4441e-08
1.44642e-08
1.47238e-08
1.45672e-08
1.50248e-08
0
3.57885e-08
1.40267e-08
1.38471e-08
1.44285e-08
1.50207e-08
0
1.53558e-08
1.5011e-08
3.49722e-08
1.36659e-08
1.37519e-08
1.47525e-08
1.50381e-08
1.45345e-08
1.45861e-08
1.49437e-08
1.49956e-08
1.49886e-08
0
1.48927e-08
1.51711e-08
1.4686e-08
1.48352e-08
0
1.42786e-08
1.40948e-08
1.40019e-08
0
1.48217e-08
1.4422e-08
3.46068e-08
3.37235e-08
6.00537e-08
4.07966e-06
2.86685e-07
3.99389e-08
1.42617e-08
1.31778e-08
3.44079e-08
1.37531e-08
0
3.59936e-08
1.41032e-08
1.42787e-08
3.5445e-08
1.37978e-08
1.39796e-08
3.54186e-08
1.37683e-08
1.37499e-08
1.4189e-08
1.4042e-08
1.44287e-08
1.46273e-08
1.4182e-08
1.43045e-08
1.5136e-08
1.36367e-08
0
1.38551e-08
1.51455e-08
0
1.57077e-08
1.59114e-08
3.58341e-08
1.40941e-08
1.52502e-08
0
1.48136e-08
1.48317e-08
1.47446e-08
1.46848e-08
1.46973e-08
1.47224e-08
1.45366e-08
1.46797e-08
1.43785e-08
1.4273e-08
1.45799e-08
1.49571e-08
1.50947e-08
1.51278e-08
1.47739e-08
3.49879e-08
1.40111e-08
1.39578e-08
1.49412e-08
1.47999e-08
1.47287e-08
1.48753e-08
1.50436e-08
0
1.50507e-08
0
3.54573e-08
1.84202e-08
3.1172e-08
1.44427e-08
0
3.44502e-08
1.43219e-08
1.45522e-08
1.46329e-08
3.58808e-08
1.4828e-08
1.49795e-08
1.50689e-08
1.49307e-08
3.04563e-06
2.21768e-07
6.68829e-08
1.40871e-08
0
3.2826e-08
1.42449e-08
1.47853e-08
3.5959e-08
1.46459e-08
1.4752e-08
1.48502e-08
1.4334e-08
3.47755e-08
1.40237e-08
1.39982e-08
1.45173e-08
3.46231e-08
1.35891e-08
1.40766e-08
3.49407e-08
1.42865e-08
1.45624e-08
1.51294e-08
2.53488e-09
9.25804e-09
0
6.61047e-08
0
0
1.51775e-08
1.51776e-08
3.43949e-08
1.51663e-08
1.52294e-08
1.49389e-08
1.47842e-08
1.45023e-08
1.44903e-08
1.48676e-08
1.47783e-08
1.48564e-08
1.45303e-08
1.45098e-08
3.47409e-08
1.44558e-08
1.48602e-08
1.48472e-08
3.62213e-08
1.45628e-08
1.42883e-08
1.43651e-08
9.36262e-10
3.29418e-08
1.44923e-08
1.45534e-08
1.47639e-08
1.48275e-08
1.46622e-08
1.4896e-08
0
1.4729e-08
1.46209e-08
0
1.43914e-08
1.47518e-08
1.49082e-08
1.49303e-08
0
0
0
0
0
0
1.52279e-08
4.10919e-06
2.94851e-07
6.14876e-08
3.34682e-08
1.33604e-08
0
3.5868e-08
1.5265e-08
0
1.48278e-08
1.4802e-08
1.45113e-08
3.46714e-08
1.43116e-08
1.44626e-08
1.44213e-08
3.55878e-08
1.40695e-08
1.37267e-08
1.45382e-08
1.42299e-08
1.40655e-08
1.47008e-08
0
1.51427e-08
0
0
0
1.64739e-08
1.56606e-08
0
0
0
1.54248e-08
1.48287e-08
1.49391e-08
3.52829e-08
1.45303e-08
1.49989e-08
0
1.49726e-08
1.48832e-08
1.48975e-08
1.48691e-08
1.46191e-08
1.46863e-08
1.53262e-08
1.50255e-08
1.47005e-08
1.46204e-08
1.43976e-08
1.44306e-08
1.4422e-08
1.45162e-08
1.46348e-08
1.46229e-08
1.43419e-08
3.52089e-08
1.44622e-08
1.46645e-08
1.48624e-08
1.49804e-08
1.48547e-08
1.44218e-08
1.44723e-08
1.50914e-08
0
1.50462e-08
1.49717e-08
1.48354e-08
1.48319e-08
0
1.46832e-08
1.55193e-08
1.58268e-08
6.32891e-06
3.6606e-07
4.30874e-08
3.69757e-09
6.14313e-09
1.46052e-08
1.55152e-08
0
1.44008e-08
1.48076e-08
1.48806e-08
1.46254e-08
1.43915e-08
1.45977e-08
1.46814e-08
1.45726e-08
1.46134e-08
1.45605e-08
3.45013e-08
1.42973e-08
0
1.46572e-08
1.47557e-08
1.50042e-08
0
1.49539e-08
1.52564e-08
1.60796e-08
0
1.53021e-08
1.5218e-08
1.50715e-08
1.48366e-08
6.43631e-08
1.50228e-08
1.44278e-08
0
1.47015e-08
1.47554e-08
1.48057e-08
1.49548e-08
1.46454e-08
1.46768e-08
0
1.43143e-08
1.45375e-08
1.49983e-08
1.53293e-08
0
1.50053e-08
1.45951e-08
0
1.4602e-08
0
0
1.41598e-08
1.47827e-08
1.45726e-08
1.46962e-08
1.53205e-08
3.51029e-08
1.47312e-08
3.60039e-08
0
1.4669e-08
1.51788e-08
0
1.50895e-08
0
0
6.15049e-08
1.36464e-08
1.39212e-08
1.52954e-08
1.58741e-08
4.928e-06
2.29872e-07
9.17398e-09
1.30937e-08
1.38982e-08
1.63648e-08
0
1.52641e-08
1.4657e-08
1.46226e-08
1.47572e-08
1.48685e-08
1.47985e-08
1.47013e-08
1.47738e-08
1.45583e-08
1.45094e-08
1.43064e-08
1.40805e-08
1.4214e-08
1.44421e-08
0
1.43831e-08
0
1.49847e-08
1.53567e-08
1.54088e-08
1.55281e-08
3.65021e-08
1.45564e-08
3.4972e-08
1.35351e-08
3.57657e-08
1.57755e-08
1.50372e-08
0
1.41647e-08
1.46956e-08
1.42874e-08
1.46113e-08
3.53389e-08
1.39305e-08
1.43279e-08
1.47382e-08
0
0
0
3.92141e-08
0
1.48745e-08
1.42321e-08
1.46295e-08
0
1.46922e-08
1.47475e-08
3.56388e-08
0
3.52698e-08
1.56335e-08
3.76831e-08
1.44946e-08
1.44128e-08
1.46409e-08
1.4707e-08
1.47045e-08
1.47631e-08
1.49758e-08
1.51697e-08
1.51912e-08
0
0
3.41125e-08
0
3.95928e-08
1.55018e-08
1.71989e-05
1.31591e-07
2.34946e-08
1.35779e-08
1.46424e-08
0
1.60566e-08
1.52751e-08
1.48344e-08
1.46771e-08
1.4476e-08
1.48017e-08
1.47502e-08
1.47066e-08
3.55561e-08
0
1.45748e-08
1.42697e-08
1.6558e-09
1.12259e-08
1.46039e-08
1.47839e-08
0
1.47953e-08
1.47131e-08
1.48259e-08
1.6121e-08
3.91154e-08
1.43112e-08
3.4796e-08
1.36539e-08
1.35976e-08
0
1.5019e-08
1.51737e-08
3.54293e-08
1.40737e-08
3.53696e-08
1.42915e-08
3.48287e-08
1.45521e-08
3.38816e-08
1.41799e-08
1.43301e-08
1.43258e-08
1.44698e-08
0
1.5729e-08
0
3.48317e-08
0
1.43561e-08
1.44221e-08
1.45771e-08
1.45587e-08
1.42934e-08
1.42779e-08
1.39079e-08
1.66137e-08
0
3.44874e-08
1.38508e-08
1.44252e-08
1.44227e-08
3.51997e-08
1.48459e-08
1.47515e-08
1.49451e-08
1.46981e-08
1.56992e-08
3.60592e-08
1.39025e-08
1.44637e-08
1.58253e-08
1.60085e-08
3.49804e-06
2.28368e-07
2.3402e-08
1.38972e-08
1.43074e-08
0
1.42449e-08
3.75318e-08
1.46275e-08
1.40458e-08
1.41595e-08
3.49956e-08
1.42617e-08
1.45216e-08
0
1.45609e-08
1.4457e-08
1.45819e-08
0
1.42275e-08
0
1.44297e-08
1.49561e-08
1.64003e-08
3.37912e-08
1.48984e-08
1.6937e-08
0
3.61081e-08
1.33042e-08
1.38939e-08
1.46914e-08
1.50506e-08
1.51581e-08
1.51423e-08
1.52167e-08
1.5334e-08
1.5605e-08
3.54802e-08
3.57465e-08
1.42026e-08
3.374e-08
3.47137e-08
1.41679e-08
1.40006e-08
1.38615e-08
3.52633e-08
1.4701e-08
0
1.40001e-08
1.43936e-08
1.36002e-08
3.40361e-08
3.38378e-08
1.42879e-08
1.46092e-08
1.4541e-08
1.48044e-08
1.62093e-08
0
1.41987e-08
1.36994e-08
1.39544e-08
3.37714e-08
3.33941e-08
1.46171e-08
1.4261e-08
3.4793e-08
1.36448e-08
3.95474e-08
0
1.52761e-08
3.34468e-08
1.49841e-08
0
1.03703e-05
2.23265e-07
4.47046e-08
1.42123e-08
1.45087e-08
1.44859e-08
1.59499e-08
3.46846e-08
1.47456e-08
1.33801e-08
3.34748e-08
1.43258e-08
1.45212e-08
1.45004e-08
1.47134e-08
5.71144e-10
1.37815e-08
1.44074e-08
1.40524e-08
1.43441e-08
0
3.50431e-08
1.49047e-08
1.47139e-08
1.44276e-08
1.45025e-08
0
1.69557e-08
0
1.38014e-08
1.41786e-08
1.50931e-08
1.48838e-08
3.67775e-08
1.50336e-08
1.56695e-08
0
1.60744e-08
1.52798e-08
1.47822e-08
1.48392e-08
1.46408e-08
1.46334e-08
1.47593e-08
1.44232e-08
3.44716e-08
0
3.52049e-08
3.39106e-08
3.35625e-08
5.80319e-08
1.40422e-08
1.37248e-08
1.39433e-08
3.66128e-09
8.22916e-09
1.46426e-08
1.48891e-08
0
1.59413e-08
1.45968e-08
3.44479e-08
1.37054e-08
1.3685e-08
5.86001e-08
3.51839e-08
1.42361e-08
3.47462e-08
1.40521e-08
2.71564e-08
4.47813e-09
1.56081e-08
1.47152e-08
0
1.48312e-08
6.43866e-06
1.71584e-07
4.44017e-08
1.40569e-08
3.43631e-08
3.37595e-08
1.40223e-08
1.49897e-08
1.54296e-08
1.4885e-08
1.47101e-08
1.46837e-08
3.50076e-08
1.40382e-08
1.44352e-08
1.47103e-08
1.47146e-08
1.44762e-08
1.41557e-08
0
3.43671e-08
1.43941e-08
1.4602e-08
1.45997e-08
1.47083e-08
0
1.50672e-08
1.63673e-08
0
1.40922e-08
3.52747e-08
1.47289e-08
0
1.47772e-08
1.47424e-08
0
1.65904e-08
0
1.47314e-08
1.42304e-08
1.47921e-08
1.49999e-08
0
1.51404e-08
0
1.49835e-08
0
1.53214e-08
0
0
0
1.49313e-08
0
0
1.46543e-08
1.43403e-08
3.36057e-08
0
1.56435e-08
3.85716e-08
0
0
0
0
0
1.53687e-08
3.83642e-08
1.47081e-08
3.33058e-08
1.57422e-08
0
1.56293e-08
1.53088e-08
1.50186e-08
0
4.0586e-06
6.69841e-07
7.11219e-08
1.32481e-08
1.44952e-08
1.4657e-08
1.45312e-08
1.44506e-08
1.48023e-08
1.44346e-08
1.54352e-08
1.48008e-08
1.4506e-08
1.41808e-08
1.43064e-08
1.45102e-08
1.46296e-08
1.45709e-08
1.43041e-08
3.41719e-08
1.43607e-08
1.4271e-08
1.47516e-08
1.48016e-08
1.46294e-08
3.56848e-08
1.47197e-08
0
3.57091e-08
1.42736e-08
1.44616e-08
1.49644e-08
1.51906e-08
1.54449e-08
0
3.89402e-08
1.66117e-08
1.61638e-08
1.39704e-08
1.47061e-08
0
0
1.43824e-08
3.5279e-08
0
1.48676e-08
0
1.47638e-08
1.45207e-08
0
1.51533e-08
1.4762e-08
1.48198e-08
1.47758e-08
1.46731e-08
0
1.43269e-08
3.4136e-08
6.59579e-08
3.70545e-08
1.3161e-08
3.3706e-08
1.30685e-08
3.20463e-08
3.77795e-08
1.5458e-08
3.52299e-08
3.54132e-08
1.38818e-08
3.57515e-08
1.53587e-08
1.57058e-08
0
1.45775e-08
1.42412e-08
4.75722e-06
5.88941e-07
4.44722e-08
1.51552e-08
0
1.47403e-08
1.44087e-08
3.51205e-08
1.39426e-08
1.44814e-08
0
1.58636e-08
1.48664e-08
3.38299e-08
0
1.48072e-08
1.4893e-08
3.45221e-08
1.3799e-08
3.42093e-08
1.41599e-08
1.456e-08
3.58351e-08
1.4033e-08
1.43023e-08
6.38378e-09
1.82399e-08
1.4092e-08
1.44771e-08
1.47977e-08
1.4725e-08
1.46384e-08
4.01701e-08
1.54321e-08
1.37353e-08
1.45153e-08
1.54175e-08
1.54362e-08
1.41831e-08
1.4643e-08
0
1.48399e-08
0
1.46912e-08
1.45815e-08
0
3.43436e-08
3.45729e-08
3.40791e-08
1.47802e-08
1.45262e-08
1.43849e-08
1.40523e-08
1.43959e-08
1.3669e-08
5.90712e-08
1.36737e-08
1.45766e-08
1.53901e-08
1.49588e-08
3.39842e-08
1.32744e-08
3.31171e-08
1.33609e-08
1.48185e-08
1.59637e-08
1.55678e-08
1.52369e-08
3.50582e-08
3.52995e-08
1.45672e-08
1.55774e-08
3.72832e-08
1.4079e-08
1.42821e-08
4.36014e-06
1.02749e-07
4.32785e-08
0
0
1.42642e-08
3.42908e-08
1.3391e-08
3.2708e-08
1.39941e-08
3.91131e-08
0
1.45705e-08
0
1.48478e-08
1.47545e-08
1.46896e-08
1.41768e-08
3.44719e-08
1.3896e-08
1.44729e-08
1.51909e-08
1.47015e-08
0
3.46722e-08
3.40371e-08
1.39492e-08
1.4042e-08
0
1.41285e-08
1.45912e-08
1.52496e-08
1.64184e-08
1.63744e-08
1.48851e-08
0
1.56202e-08
0
1.47865e-08
3.58423e-08
0
3.50425e-08
1.40212e-08
1.4665e-08
3.45397e-08
3.32132e-08
1.40894e-08
1.39598e-08
1.42444e-08
1.45615e-08
0
3.41796e-08
3.5283e-08
3.34154e-08
1.39882e-08
1.44983e-08
1.44961e-08
0
1.46845e-08
1.50107e-08
1.509e-08
1.43732e-08
1.44281e-08
1.46481e-08
1.51743e-08
0
1.57979e-08
1.56941e-08
5.93905e-09
3.85982e-09
3.51022e-08
3.59147e-08
1.45836e-08
3.53422e-08
0
4.81934e-06
6.42103e-08
1.36133e-07
3.26105e-08
3.32687e-08
1.38418e-08
3.36823e-08
1.35553e-08
1.36225e-08
1.41057e-08
1.53703e-08
1.59565e-08
1.43744e-08
1.44614e-08
1.48879e-08
3.59723e-08
1.4012e-08
1.36325e-08
1.3491e-08
1.33905e-08
3.84126e-08
1.54901e-08
0
1.41263e-08
1.43011e-08
8.5476e-10
3.22673e-08
1.42948e-08
3.43969e-08
1.45112e-08
0
4.05503e-08
1.65164e-08
1.46001e-08
6.80095e-09
1.72882e-09
3.5346e-08
1.49336e-08
0
1.61466e-08
1.63277e-08
3.50958e-08
1.3702e-08
3.50249e-08
0
1.35728e-08
3.47496e-08
0
1.41386e-08
1.43192e-08
3.43448e-08
1.44247e-08
1.46614e-08
1.47323e-08
1.44413e-08
3.54082e-08
1.42965e-08
1.44327e-08
1.47933e-08
1.48219e-08
1.4985e-08
0
1.42273e-08
1.4547e-08
1.46229e-08
1.56195e-08
0
1.65424e-08
0
0
1.49469e-08
0
1.51498e-08
1.51915e-08
1.54126e-08
4.13117e-06
3.71757e-07
6.24254e-08
3.34089e-08
1.36824e-08
1.40026e-08
1.37317e-08
1.38396e-08
1.39072e-08
1.74881e-08
3.15489e-08
1.45315e-08
1.37861e-08
1.58072e-08
3.48028e-08
1.52169e-08
1.44231e-08
1.42069e-08
1.39853e-08
1.44362e-08
1.56768e-08
1.53283e-08
0
1.42559e-08
3.46076e-08
1.40515e-08
0
1.48586e-08
1.45553e-08
1.53497e-08
0
1.54618e-08
1.68584e-08
1.58011e-08
1.46354e-08
0
1.47646e-08
1.47681e-08
1.42283e-08
3.94298e-08
1.55012e-08
1.38319e-08
1.44891e-08
0
3.45451e-08
0
5.95159e-08
2.80415e-08
1.72442e-08
0
1.46408e-08
1.45884e-08
1.46589e-08
1.47137e-08
3.46944e-08
1.43425e-08
1.47749e-08
1.48782e-08
1.49473e-08
1.49541e-08
1.48951e-08
3.45961e-08
1.39082e-08
1.40561e-08
1.38125e-08
0
4.19848e-08
1.5758e-08
1.35161e-08
1.37072e-08
0
1.43106e-08
3.39033e-08
1.4279e-08
1.5963e-08
1.94224e-06
4.75485e-07
3.98741e-08
1.39041e-08
1.41142e-08
1.40441e-08
2.4795e-08
2.02394e-08
0
1.4243e-08
3.46773e-08
3.49454e-08
1.35161e-08
1.33846e-08
3.7787e-08
0
1.41428e-08
1.40739e-08
1.42707e-08
1.49645e-08
0
0
3.44263e-08
1.33855e-08
1.394e-08
1.4255e-08
3.56872e-08
0
1.48194e-08
1.47705e-08
1.46288e-08
1.51784e-08
1.64929e-08
1.60141e-08
1.43499e-08
1.46524e-08
1.60013e-08
1.51339e-08
1.38764e-08
1.49049e-08
1.53266e-08
0
0
1.45673e-08
0
1.44305e-08
1.4803e-08
0
1.48654e-08
1.48406e-08
1.47393e-08
1.47404e-08
1.47276e-08
1.4786e-08
1.47389e-08
0
0
0
1.48207e-08
1.52696e-08
0
0
0
1.40856e-08
3.34626e-08
3.61714e-08
1.59292e-08
0
3.62498e-08
3.44168e-08
1.36865e-08
1.38349e-08
0
1.45492e-08
0
8.88062e-06
3.11061e-07
4.82554e-08
1.41142e-08
1.41921e-08
3.37092e-08
1.3421e-08
1.38535e-08
1.43166e-08
1.47935e-08
1.45961e-08
1.43883e-08
1.41739e-08
3.42611e-08
1.54144e-08
1.55338e-08
1.44953e-08
0
1.44884e-08
0
0
3.50451e-08
1.45369e-08
1.38586e-08
1.3905e-08
1.436e-08
0
1.52645e-08
1.47697e-08
1.44204e-08
3.58675e-08
1.41209e-08
4.01458e-08
1.54071e-08
1.32038e-08
1.40581e-08
1.51031e-08
1.67963e-08
3.36597e-08
1.47873e-08
0
1.50927e-08
4.92344e-09
5.27433e-09
1.44957e-08
0
1.47974e-08
1.47104e-08
1.48769e-08
1.48258e-08
0
1.47359e-08
0
1.38632e-08
1.48554e-08
1.50766e-08
1.5069e-08
0
0
0
1.51477e-08
1.50355e-08
1.48813e-08
1.47261e-08
0
0
3.73124e-08
1.54378e-08
1.61522e-08
3.58492e-08
1.4086e-08
3.42872e-08
1.4566e-08
0
1.51014e-08
1.03772e-05
1.79507e-07
4.86935e-08
3.46242e-08
1.40521e-08
1.39057e-08
3.41178e-08
0
0
1.41772e-08
1.46826e-08
1.47971e-08
1.46549e-08
1.46375e-08
1.51308e-08
1.53641e-08
1.49947e-08
1.46232e-08
1.47664e-08
0
1.50162e-08
1.53045e-08
1.46819e-08
1.44933e-08
0
1.42973e-08
1.53431e-08
1.52352e-08
3.56084e-08
1.43094e-08
1.44016e-08
1.46896e-08
3.8114e-08
1.54514e-08
1.45389e-08
1.51988e-08
3.70599e-08
1.44732e-08
1.40428e-08
1.46251e-08
1.49876e-08
1.50204e-08
1.47258e-08
3.42224e-08
1.40928e-08
3.44312e-08
3.41393e-08
1.42225e-08
1.39603e-08
3.53164e-08
0
6.04966e-08
1.41732e-08
1.44478e-08
0
1.46479e-08
1.46849e-08
1.46967e-08
1.502e-08
1.5372e-08
3.77456e-08
1.40598e-08
1.42573e-08
1.49271e-08
0
1.48925e-08
1.47886e-08
3.60269e-08
1.64156e-08
1.54356e-08
0
1.44955e-08
1.47706e-08
1.50666e-08
1.50523e-08
7.55384e-06
1.94948e-07
7.85365e-08
1.46113e-08
1.47605e-08
1.43626e-08
1.38166e-08
1.422e-08
1.41158e-08
1.45697e-08
0
1.43257e-08
1.50708e-08
1.52287e-08
1.54731e-08
1.53091e-08
1.50044e-08
1.49712e-08
0
3.5168e-08
1.47869e-08
1.4878e-08
0
0
3.4515e-08
1.43706e-08
1.47195e-08
3.57818e-08
0
1.48266e-08
1.46899e-08
2.2071e-08
2.82399e-08
1.47719e-08
1.48324e-08
1.51028e-08
1.53096e-08
3.62124e-08
1.40396e-08
1.4285e-08
0
1.46741e-08
3.46371e-08
3.42954e-08
1.41454e-08
1.46999e-08
1.42482e-08
1.45893e-08
1.45817e-08
0
3.42775e-08
1.43284e-08
0
0
1.46041e-08
1.46676e-08
1.46977e-08
1.44238e-08
1.42734e-08
3.95546e-08
1.54514e-08
0
1.45947e-08
1.51864e-08
0
5.99184e-08
1.35661e-08
1.41239e-08
1.53874e-08
1.49221e-08
0
1.47213e-08
1.48911e-08
0
0
3.02257e-06
2.57411e-07
3.05973e-08
0
1.5105e-08
1.45839e-08
1.42375e-08
0
0
3.45658e-08
3.51869e-08
1.46134e-08
4.90311e-09
5.95059e-09
1.51452e-08
1.49347e-08
1.47747e-08
1.48414e-08
1.45549e-08
1.48643e-08
1.47825e-08
1.45879e-08
1.45218e-08
3.45597e-08
1.42027e-08
1.47191e-08
3.58675e-08
1.4322e-08
1.44093e-08
1.51119e-08
1.52591e-08
1.54087e-08
1.51263e-08
1.48371e-08
1.49189e-08
1.51358e-08
3.6423e-08
1.52451e-08
1.49193e-08
1.43278e-08
1.45836e-08
3.49702e-08
1.4407e-08
1.4489e-08
1.43561e-08
1.4486e-08
1.44371e-08
1.45588e-08
1.45978e-08
1.49087e-08
1.47619e-08
0
1.49358e-08
1.47069e-08
1.4718e-08
1.45795e-08
1.4491e-08
1.4307e-08
1.42774e-08
1.55432e-08
1.6581e-08
0
3.04762e-08
1.80807e-08
1.39634e-08
3.34934e-08
1.35321e-08
1.39069e-08
1.53734e-08
1.47668e-08
1.53959e-08
0
0
1.51997e-08
3.56316e-08
4.52786e-05
1.76265e-07
1.39884e-08
1.53638e-08
1.48924e-08
1.46712e-08
0
1.44609e-08
0
1.43986e-08
1.46839e-08
1.45931e-08
1.44639e-08
1.48026e-08
3.63289e-08
1.47693e-08
1.52031e-08
7.33871e-09
1.94689e-09
0
0
1.91334e-08
2.88728e-08
1.44128e-08
1.46153e-08
1.49819e-08
1.49554e-08
1.44555e-08
1.46498e-08
1.50584e-08
1.51559e-08
1.54829e-08
1.5578e-08
1.51635e-08
3.51474e-08
1.4749e-08
1.57975e-08
3.82049e-08
1.38906e-08
1.38879e-08
1.44316e-08
1.46882e-08
1.46943e-08
1.46155e-08
1.45793e-08
1.46302e-08
1.45577e-08
1.46538e-08
1.4839e-08
1.49631e-08
1.4835e-08
1.48019e-08
1.43784e-08
1.46357e-08
1.42429e-08
1.43444e-08
1.44899e-08
1.45066e-08
1.41192e-08
1.50141e-08
1.70432e-08
0
1.63846e-08
1.52797e-08
1.34605e-08
1.30621e-08
3.2955e-08
1.31131e-08
1.41079e-08
0
1.52776e-08
1.61767e-08
3.62433e-08
1.46003e-08
1.43408e-08
2.47619e-05
1.02557e-07
1.43422e-08
0
1.50287e-08
1.51265e-08
0
1.46245e-08
1.47072e-08
3.45171e-08
1.42572e-08
1.45725e-08
3.45601e-08
1.40267e-08
3.57639e-08
1.41457e-08
1.44078e-08
1.49715e-08
1.50179e-08
1.45896e-08
3.4386e-08
1.32794e-08
1.36172e-08
5.97595e-09
3.58355e-09
1.49464e-08
0
1.50583e-08
3.54267e-08
1.45958e-08
1.44301e-08
3.7848e-08
1.55194e-08
1.4544e-08
0
1.39516e-08
3.90602e-08
1.54141e-08
1.37012e-08
1.39705e-08
1.43248e-08
1.44491e-08
1.4662e-08
1.45335e-08
1.45982e-08
1.4423e-08
1.4474e-08
1.48928e-08
1.49357e-08
1.49014e-08
1.49268e-08
1.47955e-08
1.47258e-08
1.47501e-08
0
1.44772e-08
0
3.44992e-08
3.38213e-08
1.42508e-08
1.55312e-08
1.64107e-08
0
1.59726e-08
3.57009e-08
1.36813e-08
3.38226e-08
1.31328e-08
1.35586e-08
1.44056e-08
1.50187e-08
1.63561e-08
1.50334e-08
3.36677e-08
5.63617e-08
4.76851e-06
1.81875e-07
1.35709e-08
2.6699e-08
1.91869e-08
0
1.42761e-08
1.47512e-08
1.47216e-08
1.46458e-08
1.45763e-08
1.44554e-08
1.44816e-08
1.45113e-08
1.45995e-08
3.48021e-08
1.39936e-08
1.47293e-08
3.68102e-08
1.41632e-08
1.38783e-08
1.41439e-08
1.42416e-08
1.47218e-08
0
1.50493e-08
0
1.55487e-08
0
3.40586e-08
1.41654e-08
3.96302e-08
1.53166e-08
1.41042e-08
1.4252e-08
1.4989e-08
1.5566e-08
1.56454e-08
3.609e-08
1.42031e-08
1.41483e-08
1.44282e-08
1.46937e-08
1.43651e-08
1.42509e-08
1.40507e-08
1.37701e-08
1.46029e-08
1.53475e-08
1.52457e-08
1.47213e-08
1.43987e-08
1.46553e-08
0
1.46407e-08
1.45245e-08
1.43383e-08
1.44385e-08
1.4244e-08
1.45634e-08
1.51441e-08
0
3.90998e-08
1.63803e-08
1.5156e-08
0
0
0
0
0
1.47967e-08
3.78298e-08
0
3.5892e-08
1.41975e-08
3.51252e-06
1.29636e-07
3.20708e-08
3.50706e-08
1.34485e-08
1.37826e-08
1.43061e-08
1.43023e-08
1.45568e-08
0
1.45901e-08
1.46042e-08
1.48518e-08
0
1.47633e-08
1.46607e-08
1.45091e-08
1.41255e-08
3.91386e-08
1.48212e-08
1.39549e-08
1.42139e-08
1.44254e-08
1.44322e-08
1.47251e-08
1.50441e-08
1.59165e-08
0
3.54443e-08
3.24073e-08
1.42205e-08
1.48287e-08
0
1.50199e-08
1.5152e-08
0
1.51668e-08
1.50103e-08
1.48594e-08
1.48154e-08
1.42966e-08
1.47017e-08
1.51261e-08
0
3.53181e-08
1.44563e-08
0
3.55962e-08
1.59499e-08
1.51078e-08
1.4295e-08
1.42929e-08
1.45309e-08
1.47029e-08
1.4695e-08
0
0
1.48464e-08
1.48328e-08
1.4564e-08
3.57069e-08
0
4.02839e-08
1.6188e-08
0
1.40826e-08
1.41753e-08
1.42057e-08
1.4243e-08
1.44843e-08
3.56857e-08
0
3.60294e-08
1.48368e-08
0
2.05745e-05
3.03314e-07
3.23841e-08
3.48442e-08
1.34164e-08
3.35748e-08
1.35504e-08
1.38387e-08
1.44503e-08
1.43668e-08
1.45437e-08
0
1.47173e-08
1.48273e-08
1.46831e-08
1.46495e-08
1.44549e-08
1.47649e-08
1.59006e-08
1.55748e-08
1.46728e-08
1.45237e-08
1.4711e-08
1.4668e-08
3.52346e-08
1.43553e-08
3.96066e-08
1.60984e-08
3.42416e-08
1.36518e-08
0
1.53314e-08
1.50223e-08
1.48694e-08
0
3.55983e-08
3.61445e-08
0
1.47417e-08
0
1.48346e-08
0
1.47334e-08
1.47532e-08
1.46682e-08
1.45951e-08
1.431e-08
1.48195e-08
1.51371e-08
3.63991e-08
1.45172e-08
1.41059e-08
3.55842e-08
1.43985e-08
0
1.45666e-08
0
3.47048e-08
0
1.49577e-08
1.4778e-08
1.55753e-08
0
0
1.4869e-08
3.51635e-08
1.41201e-08
3.44863e-08
1.36269e-08
1.43795e-08
0
1.39993e-08
0
1.51868e-08
1.49741e-08
2.62515e-06
2.70987e-07
1.37834e-08
1.41951e-08
1.33816e-08
3.25707e-08
3.33332e-08
1.42032e-08
1.43745e-08
1.4607e-08
0
1.46449e-08
1.46032e-08
1.49264e-08
1.47433e-08
1.4754e-08
1.46062e-08
1.47051e-08
1.50687e-08
1.50336e-08
1.426e-08
1.45075e-08
1.53931e-08
3.69132e-08
1.38486e-08
1.49339e-08
1.53492e-08
3.72469e-08
0
1.36289e-08
1.60291e-08
0
1.48953e-08
1.55076e-08
1.53609e-08
0
1.47818e-08
0
1.47716e-08
1.51298e-08
0
1.47532e-08
1.46527e-08
1.47961e-08
1.47162e-08
1.46934e-08
1.47922e-08
1.48043e-08
1.48047e-08
1.48032e-08
1.48374e-08
1.61774e-08
3.4245e-08
1.46724e-08
0
1.46906e-08
1.49231e-08
1.50127e-08
1.49394e-08
0
1.50652e-08
1.5506e-08
3.77515e-08
1.51044e-08
0
1.45584e-08
1.44553e-08
1.42793e-08
1.44535e-08
1.428e-08
3.44264e-08
1.4171e-08
0
3.55224e-08
3.51547e-08
1.23284e-05
2.07141e-07
0
0
3.3103e-08
1.37132e-08
1.39062e-08
3.46536e-08
3.41664e-08
1.39864e-08
1.48034e-08
1.42715e-08
1.47088e-08
0
1.48518e-08
1.46723e-08
0
0
0
1.45572e-08
1.39831e-08
1.44855e-08
3.83619e-08
1.45889e-08
1.3282e-08
3.78496e-08
3.83739e-08
1.49356e-08
1.37605e-08
1.32088e-08
3.86471e-08
0
1.41719e-08
1.66471e-08
0
1.49111e-08
1.52542e-08
0
1.45857e-08
1.4977e-08
0
3.48709e-08
1.4334e-08
1.44872e-08
1.45426e-08
1.45466e-08
0
1.4826e-08
1.49289e-08
1.49275e-08
1.47873e-08
1.48014e-08
1.49395e-08
1.51031e-08
1.49857e-08
1.50376e-08
1.50204e-08
1.48855e-08
1.49143e-08
2.56645e-08
2.20795e-08
0
1.52348e-08
1.52406e-08
1.50899e-08
1.49638e-08
1.48478e-08
1.49526e-08
1.49568e-08
3.35723e-08
1.37165e-08
1.35326e-08
1.48655e-08
0
1.50206e-08
4.06186e-06
4.48195e-07
7.77543e-08
1.38789e-08
5.95024e-08
1.37588e-08
1.4503e-08
1.47403e-08
1.39936e-08
1.36755e-08
3.4516e-08
1.40001e-08
3.39865e-08
1.44979e-08
1.42336e-08
1.46603e-08
0
3.4186e-08
0
3.44009e-08
1.45411e-08
1.48857e-08
1.53283e-08
1.50862e-08
4.49961e-09
5.21496e-08
1.69178e-08
0
2.28904e-08
4.48493e-08
1.41181e-08
3.45866e-08
3.45858e-08
1.45912e-08
3.77695e-08
1.47881e-08
1.45676e-08
1.4768e-08
0
3.50241e-08
1.3754e-08
1.35517e-08
1.43692e-08
1.47952e-08
1.47735e-08
0
1.45647e-08
1.47941e-08
1.45296e-08
1.49865e-08
1.48628e-08