/*--------------------------------*- C++ -*----------------------------------*\
  =========                 |
  \\      /  F ield         | OpenFOAM: The Open Source CFD Toolbox
   \\    /   O peration     | Website:  https://openfoam.org
    \\  /    A nd           | Version:  12
     \\/     M anipulation  |
\*---------------------------------------------------------------------------*/
FoamFile
{
    format      ascii;
    class       volVectorField::Internal;
    location    "0.75";
    object      cloud:UTrans;
}
// * * * * * * * * * * * * * * * * * * * * * * * * * * * * * * * * * * * * * //

dimensions      [1 1 -1 0 0 0 0];

value           nonuniform List<vector> 
3750
(
(-9.80633e-10 4.62947e-09 0)
(6.88e-10 4.05694e-11 0)
(2.24946e-10 -8.36726e-10 0)
(1.36842e-11 -5.44667e-10 0)
(3.34913e-11 -9.67442e-10 0)
(2.08875e-11 -4.98899e-10 0)
(2.95762e-12 -4.89431e-10 0)
(1.41393e-11 -5.17325e-10 0)
(2.73066e-12 -4.93866e-10 0)
(-5.68694e-13 -4.83337e-10 0)
(0 0 0)
(1.92923e-11 -4.87282e-10 0)
(0 0 0)
(1.46442e-11 -1.07745e-09 0)
(0 0 0)
(-9.72595e-12 -1.12216e-09 0)
(-6.83984e-12 -4.68788e-10 0)
(-8.2422e-12 -9.35587e-10 0)
(-1.19768e-11 -9.20879e-10 0)
(-1.65154e-11 -4.42255e-10 0)
(-2.41655e-12 -5.14837e-10 0)
(-2.86592e-12 -4.97096e-10 0)
(-6.00374e-12 -4.86835e-10 0)
(-1.50682e-11 -4.46454e-10 0)
(2.84707e-11 -6.89921e-10 0)
(2.39935e-11 -5.23565e-10 0)
(3.58075e-11 -4.30551e-10 0)
(0 0 0)
(0 0 0)
(9.5143e-11 -6.60652e-10 0)
(-3.26422e-11 -6.65013e-10 0)
(-2.36616e-11 -5.11823e-10 0)
(-9.45789e-12 -4.36073e-10 0)
(0 0 0)
(0 0 0)
(1.5807e-11 -5.30019e-10 0)
(-7.62419e-13 -5.20899e-10 0)
(0 0 0)
(-8.0619e-12 -5.05215e-10 0)
(0 0 0)
(-2.06199e-11 -9.79587e-10 0)
(-2.90214e-11 -9.42877e-10 0)
(2.71578e-11 -5.31071e-10 0)
(5.88757e-12 -5.60674e-10 0)
(-1.73712e-11 -5.58904e-10 0)
(-1.83356e-11 -5.6042e-10 0)
(-2.51782e-11 -5.38288e-10 0)
(-2.26102e-11 -1.09259e-09 0)
(1.11607e-11 -4.88452e-10 0)
(-1.00712e-11 -1.05037e-09 0)
(0 0 0)
(1.50237e-11 -1.02378e-09 0)
(1.91272e-11 -5.38337e-10 0)
(3.08346e-11 -5.36635e-10 0)
(-1.48216e-11 -5.20986e-10 0)
(-2.05871e-11 -4.91144e-10 0)
(-7.67546e-12 -4.6681e-10 0)
(-3.60672e-11 -1.02594e-09 0)
(-5.4234e-12 -4.0875e-10 0)
(-1.79884e-10 -2.15961e-09 0)
(6.57342e-11 -6.01283e-10 0)
(0 0 0)
(3.5933e-12 -4.76629e-10 0)
(5.66215e-12 -4.95145e-10 0)
(7.10841e-11 -1.10591e-09 0)
(1.35521e-11 -4.91581e-10 0)
(1.15774e-11 -1.03771e-09 0)
(-1.38935e-12 -4.41773e-10 0)
(0 0 0)
(6.42282e-11 -4.99554e-10 0)
(4.0358e-11 -4.34964e-10 0)
(7.54112e-12 -4.25229e-10 0)
(0 0 0)
(-1.88732e-11 -4.48626e-10 0)
(-1.33171e-11 -5.36129e-10 0)
(-1.41347e-08 1.40758e-08 0)
(-1.1446e-09 2.59557e-10 0)
(-3.12571e-11 -1.99967e-10 0)
(1.61263e-11 -9.84835e-10 0)
(2.14147e-11 -5.07739e-10 0)
(1.68104e-11 -5.20209e-10 0)
(4.59282e-12 -5.22533e-10 0)
(8.86738e-12 -1.09145e-09 0)
(3.08754e-11 -4.95231e-10 0)
(8.2702e-12 -4.9023e-10 0)
(-3.04458e-12 -4.70121e-10 0)
(1.01889e-11 -4.63103e-10 0)
(0 0 0)
(0 0 0)
(-3.75103e-12 -5.16622e-10 0)
(0 0 0)
(-2.44189e-11 -1.16281e-09 0)
(-5.84039e-12 -4.7993e-10 0)
(-3.75642e-11 -4.62935e-10 0)
(0 0 0)
(-1.2298e-11 -5.14615e-10 0)
(0 0 0)
(-1.39765e-11 -4.7736e-10 0)
(-2.30624e-11 -4.77645e-10 0)
(0 0 0)
(1.09007e-10 -6.182e-10 0)
(6.31707e-11 -4.98652e-10 0)
(0 0 0)
(-3.24684e-12 -6.41533e-11 0)
(-2.28598e-12 -1.44426e-09 0)
(4.99649e-11 -1.36724e-09 0)
(2.63882e-11 -4.48806e-10 0)
(2.7518e-11 -1.05197e-09 0)
(2.96137e-12 -5.17665e-10 0)
(0 0 0)
(1.60207e-11 -5.16616e-10 0)
(0 0 0)
(0 0 0)
(-5.87729e-11 -1.02466e-09 0)
(-4.73991e-11 -1.09925e-09 0)
(-4.46384e-11 -4.23894e-10 0)
(-2.40694e-11 -9.56459e-10 0)
(-2.73329e-11 -4.36155e-10 0)
(0 0 0)
(0 0 0)
(0 0 0)
(0 0 0)
(0 0 0)
(1.69965e-11 -1.27289e-09 0)
(0 0 0)
(-4.91912e-11 -5.48874e-10 0)
(-2.23443e-11 -5.22692e-10 0)
(9.34607e-12 -5.51537e-10 0)
(1.06346e-10 -1.34441e-09 0)
(0 0 0)
(-4.55915e-11 -5.20407e-10 0)
(0 0 0)
(0 0 0)
(-4.79776e-11 -5.03461e-10 0)
(-1.27765e-10 -1.34968e-09 0)
(5.93436e-11 -6.19557e-10 0)
(9.57992e-11 -1.16008e-09 0)
(-2.67563e-11 -4.74366e-10 0)
(0 0 0)
(4.10457e-11 -4.88372e-10 0)
(1.71795e-12 -6.33027e-10 0)
(-1.24249e-10 -1.31366e-09 0)
(-2.69984e-10 -2.16085e-09 0)
(1.5148e-10 -1.04681e-09 0)
(5.21261e-11 -4.30857e-10 0)
(0 0 0)
(3.57996e-11 -4.55457e-10 0)
(0 0 0)
(-1.51018e-11 -4.73421e-10 0)
(-3.1122e-11 -1.14289e-09 0)
(-8.50044e-10 1.36289e-08 0)
(-6.16413e-11 -7.40644e-10 0)
(4.01942e-11 -5.74241e-10 0)
(4.67577e-12 -4.87627e-10 0)
(1.23333e-11 -5.08037e-10 0)
(2.90385e-11 -5.035e-10 0)
(2.15811e-11 -5.02482e-10 0)
(1.92086e-11 -4.92904e-10 0)
(1.2874e-11 -1.06813e-09 0)
(0 0 0)
(2.17898e-11 -4.6267e-10 0)
(6.38684e-12 -4.34821e-10 0)
(2.84721e-11 -4.18903e-10 0)
(0 0 0)
(-2.01239e-11 -5.05549e-10 0)
(1.25378e-11 -1.00751e-09 0)
(-7.34515e-12 -4.63456e-10 0)
(-4.61537e-11 -4.10304e-10 0)
(-4.10699e-11 -1.04495e-09 0)
(0 0 0)
(-9.39191e-12 -4.62283e-10 0)
(-6.76019e-12 -4.56334e-10 0)
(-4.8331e-11 -1.60008e-09 0)
(-2.20887e-11 -4.40291e-10 0)
(7.06738e-12 -5.46721e-10 0)
(0 0 0)
(0 0 0)
(5.61714e-11 -4.98457e-10 0)
(-1.29439e-11 -5.7071e-10 0)
(0 0 0)
(0 0 0)
(9.12801e-12 -5.2812e-10 0)
(8.22889e-11 -1.11704e-09 0)
(2.4127e-11 -4.48217e-10 0)
(0 0 0)
(-1.00663e-11 -5.17481e-10 0)
(5.9691e-13 -1.08698e-09 0)
(-3.37911e-11 -4.92715e-10 0)
(-3.42497e-11 -4.34246e-10 0)
(-5.29625e-11 -9.97726e-10 0)
(-3.72107e-11 -9.54606e-10 0)
(-4.12245e-11 -4.25335e-10 0)
(-2.34965e-10 -1.21734e-09 0)
(-1.03188e-11 -5.56146e-10 0)
(0 0 0)
(1.44277e-12 -5.41746e-10 0)
(-2.36645e-11 -5.69111e-10 0)
(-3.8799e-11 -5.90415e-10 0)
(-3.74859e-12 -1.09018e-09 0)
(0 0 0)
(0 0 0)
(-2.3182e-11 -5.02006e-10 0)
(-4.58098e-11 -4.52065e-10 0)
(-1.28406e-11 -1.37759e-09 0)
(-1.45259e-11 -1.15319e-09 0)
(-2.20946e-11 -3.67119e-10 0)
(-2.55603e-11 -4.01143e-10 0)
(0 0 0)
(-1.11483e-10 -1.79211e-09 0)
(0 0 0)
(9.35257e-11 -1.20701e-09 0)
(-7.53035e-12 -5.46551e-10 0)
(-2.50155e-11 -5.24013e-10 0)
(-1.49363e-11 -2.44244e-10 0)
(-1.55063e-12 -2.46062e-11 0)
(-9.92656e-11 -2.49154e-09 0)
(1.0219e-12 -5.63494e-10 0)
(1.78271e-11 -4.96144e-10 0)
(9.88039e-11 -1.15031e-09 0)
(0 0 0)
(4.59191e-11 -4.70664e-10 0)
(3.4633e-11 -5.31111e-10 0)
(-4.04468e-12 -4.73337e-10 0)
(0 0 0)
(0 0 0)
(-2.31874e-09 1.56964e-08 0)
(4.52529e-10 5.95048e-10 0)
(-2.35734e-11 -4.09489e-11 0)
(1.3632e-11 -4.8073e-10 0)
(2.8785e-12 -4.53437e-10 0)
(9.12993e-12 -4.81479e-10 0)
(-1.66089e-11 -5.00225e-10 0)
(-3.89653e-11 -1.0604e-09 0)
(-1.29351e-10 -1.65705e-09 0)
(-3.01665e-11 -1.13882e-09 0)
(1.72601e-11 -8.6083e-10 0)
(0 0 0)
(2.16466e-11 -4.92517e-10 0)
(3.67355e-11 -9.79497e-10 0)
(1.29351e-11 -1.01674e-09 0)
(4.22955e-12 -4.8452e-10 0)
(-3.92463e-12 -4.68234e-10 0)
(1.51853e-11 -4.76342e-10 0)
(-7.62689e-12 -4.99618e-10 0)
(-3.99145e-12 -4.68559e-10 0)
(0 0 0)
(-3.80089e-11 -1.06635e-09 0)
(2.23797e-11 -4.74715e-10 0)
(0 0 0)
(2.67198e-13 -5.51418e-10 0)
(2.22691e-11 -5.65624e-10 0)
(1.8923e-11 -5.34239e-10 0)
(0 0 0)
(1.51117e-11 -5.59988e-10 0)
(1.99357e-12 -5.6536e-10 0)
(1.28451e-10 -1.23653e-09 0)
(1.33557e-10 -1.10889e-09 0)
(0 0 0)
(1.13237e-10 -5.05084e-10 0)
(-2.35467e-11 -5.38454e-10 0)
(-6.0264e-11 -5.0672e-10 0)
(-1.94624e-11 -4.6522e-10 0)
(1.11774e-11 -1.0017e-09 0)
(-1.90273e-11 -4.05572e-10 0)
(-9.95973e-12 -5.03062e-10 0)
(-1.51998e-11 -5.41343e-10 0)
(-3.60966e-11 -6.05139e-10 0)
(0 0 0)
(-6.00028e-11 -9.59359e-10 0)
(-2.69171e-12 -1.05426e-09 0)
(2.9554e-11 -5.02019e-10 0)
(5.0877e-12 -4.73181e-10 0)
(1.65558e-11 -1.06367e-09 0)
(-1.45775e-11 -5.1336e-10 0)
(-5.98124e-11 -1.02321e-09 0)
(-4.20552e-11 -4.70517e-10 0)
(-2.58979e-11 -4.36837e-10 0)
(-6.35769e-11 -9.48344e-10 0)
(-8.19387e-11 -4.93585e-10 0)
(0 0 0)
(0 0 0)
(-9.80105e-12 -4.249e-10 0)
(-1.70798e-11 -4.74172e-10 0)
(-8.73951e-12 -5.43842e-10 0)
(1.8297e-12 -1.2535e-09 0)
(-3.33204e-13 -5.00206e-10 0)
(-2.43463e-11 -5.78356e-10 0)
(-4.46833e-11 -4.86888e-10 0)
(-1.80245e-11 -4.66999e-10 0)
(-3.57949e-11 -5.05084e-10 0)
(-3.65044e-11 -5.42066e-10 0)
(1.65335e-11 -5.37232e-10 0)
(3.2069e-11 -5.25964e-10 0)
(3.09931e-11 -4.82614e-10 0)
(4.1309e-11 -4.78213e-10 0)
(0 0 0)
(1.74879e-11 -5.18878e-10 0)
(5.27453e-12 -4.86661e-10 0)
(-1.06684e-11 -4.98217e-10 0)
(6.15066e-13 -4.45874e-10 0)
(-2.18093e-09 1.61874e-08 0)
(-1.63224e-10 1.06205e-09 0)
(4.6008e-11 -2.50509e-10 0)
(7.47757e-11 -5.20717e-10 0)
(6.99102e-12 -1.08409e-09 0)
(1.52676e-11 -5.28565e-10 0)
(1.42893e-11 -5.05857e-10 0)
(0 0 0)
(0 0 0)
(-3.8346e-11 -5.00941e-10 0)
(-1.91011e-11 -4.55108e-10 0)
(-1.17219e-11 -4.49597e-10 0)
(4.36326e-11 -1.05798e-09 0)
(4.93939e-12 -4.68226e-10 0)
(-6.2795e-12 -4.89737e-10 0)
(5.08047e-12 -4.98565e-10 0)
(1.35486e-11 -5.24081e-10 0)
(0 0 0)
(1.85427e-11 -1.21318e-09 0)
(0 0 0)
(-9.67031e-12 -4.95565e-10 0)
(-2.62434e-12 -4.88633e-10 0)
(-4.37191e-12 -5.07965e-10 0)
(3.63134e-12 -5.30299e-10 0)
(9.98086e-12 -5.02798e-10 0)
(2.31679e-11 -4.82934e-10 0)
(3.09448e-11 -5.15055e-10 0)
(3.7136e-11 -5.43068e-10 0)
(1.25749e-11 -5.4748e-10 0)
(7.0227e-11 -1.25963e-09 0)
(2.80371e-11 -5.06726e-10 0)
(2.44723e-11 -4.89958e-10 0)
(2.92661e-11 -5.33432e-10 0)
(7.26105e-11 -6.29081e-10 0)
(-1.10249e-10 -2.16994e-09 0)
(-1.79883e-11 -4.26968e-10 0)
(1.41219e-11 -5.18332e-10 0)
(0 0 0)
(-3.38051e-11 -1.14487e-09 0)
(-9.158e-12 -5.14585e-10 0)
(-4.20591e-12 -5.45034e-10 0)
(0 0 0)
(6.15135e-11 -1.13006e-09 0)
(-2.31177e-11 -4.0583e-10 0)
(-9.63226e-12 -3.7428e-10 0)
(-1.02299e-11 -4.14567e-10 0)
(6.66043e-12 -5.1788e-10 0)
(1.48847e-11 -5.25837e-10 0)
(-3.31711e-11 -1.10778e-09 0)
(-1.54856e-12 -4.67426e-10 0)
(-2.48901e-11 -5.10843e-10 0)
(-6.98449e-11 -1.04798e-09 0)
(-5.11648e-11 -1.07689e-09 0)
(0 0 0)
(1.18706e-11 -5.51182e-10 0)
(0 0 0)
(-5.77336e-11 -1.15613e-09 0)
(0 0 0)
(-8.07895e-12 -1.06746e-09 0)
(-7.54118e-12 -5.15464e-10 0)
(4.18657e-11 -5.77297e-10 0)
(-7.19711e-11 -1.38683e-09 0)
(-4.92383e-11 -5.31656e-10 0)
(-3.50948e-11 -4.38284e-10 0)
(-1.01661e-11 -1.1814e-09 0)
(-3.13413e-11 -4.74464e-10 0)
(2.71508e-12 -5.41499e-10 0)
(0 0 0)
(3.33451e-11 -5.40532e-10 0)
(5.71446e-11 -4.9329e-10 0)
(0 0 0)
(1.77475e-11 -5.12372e-10 0)
(0 0 0)
(1.76493e-11 -1.15568e-09 0)
(1.18448e-11 -4.68209e-10 0)
(-1.64277e-09 1.87735e-08 0)
(5.73672e-09 -4.397e-10 0)
(-2.08583e-10 -5.13669e-10 0)
(7.7036e-11 -5.1821e-10 0)
(2.13289e-11 -4.98776e-10 0)
(0 0 0)
(-2.36675e-11 -1.20202e-09 0)
(-1.23609e-11 -5.52475e-10 0)
(-4.08233e-11 -5.12569e-10 0)
(-4.83794e-11 -4.51088e-10 0)
(-1.2416e-11 -1.11082e-09 0)
(-2.31901e-11 -4.30785e-10 0)
(-6.54766e-12 -4.67795e-10 0)
(-6.55984e-12 -5.1392e-10 0)
(-9.2554e-13 -5.13697e-10 0)
(-3.42641e-12 -5.30194e-10 0)
(1.4289e-11 -5.32399e-10 0)
(9.35126e-12 -5.37072e-10 0)
(0 0 0)
(2.35392e-11 -4.71473e-10 0)
(7.04622e-12 -5.11205e-10 0)
(1.26063e-11 -1.09298e-09 0)
(2.29173e-12 -4.69674e-10 0)
(2.21096e-11 -4.95517e-10 0)
(3.47829e-11 -1.114e-09 0)
(2.5907e-11 -4.72709e-10 0)
(3.93931e-11 -5.1275e-10 0)
(4.28114e-11 -5.49086e-10 0)
(1.97024e-11 -5.38512e-10 0)
(3.40646e-11 -5.8012e-10 0)
(3.4479e-11 -6.05861e-10 0)
(-4.01831e-12 -2.85623e-10 0)
(0 0 0)
(-2.10962e-11 -1.65541e-09 0)
(0 0 0)
(0 0 0)
(0 0 0)
(0 0 0)
(0 0 0)
(-4.81368e-12 -5.38784e-10 0)
(0 0 0)
(1.10148e-11 -5.22097e-10 0)
(9.67897e-11 -1.15146e-09 0)
(0 0 0)
(-2.84175e-11 -4.65815e-10 0)
(-2.13152e-12 -5.02643e-10 0)
(6.74883e-12 -5.19857e-10 0)
(1.26235e-11 -5.20181e-10 0)
(1.29754e-11 -5.31277e-10 0)
(-5.6475e-11 -1.22061e-09 0)
(-1.09336e-11 -4.98597e-10 0)
(-2.96257e-11 -5.11843e-10 0)
(-6.0319e-11 -5.38589e-10 0)
(-3.90873e-11 -5.152e-10 0)
(-2.29585e-11 -4.97612e-10 0)
(-1.6155e-11 -5.11566e-10 0)
(0 0 0)
(-8.08107e-12 -4.72726e-10 0)
(-3.31834e-12 -4.62281e-10 0)
(1.18907e-11 -5.14175e-10 0)
(-7.89655e-12 -6.82769e-10 0)
(-1.78234e-11 -6.04461e-10 0)
(1.75143e-12 -3.95805e-10 0)
(-4.10163e-11 -3.94109e-10 0)
(0 0 0)
(-1.43717e-11 -5.17362e-10 0)
(0 0 0)
(2.10876e-11 -5.4485e-10 0)
(0 0 0)
(4.21779e-11 -5.22298e-10 0)
(8.77713e-11 -1.11665e-09 0)
(2.61678e-11 -5.28005e-10 0)
(0 0 0)
(2.3174e-11 -5.08987e-10 0)
(1.66868e-11 -5.06546e-10 0)
(-6.85225e-10 2.02324e-08 0)
(4.10172e-10 3.74255e-10 0)
(-7.35219e-11 -4.55353e-10 0)
(7.14897e-11 -5.30262e-10 0)
(4.95878e-11 -4.90004e-10 0)
(1.36486e-11 -5.28668e-10 0)
(0 0 0)
(-7.1933e-12 -5.28422e-10 0)
(-7.41937e-12 -5.00674e-10 0)
(0 0 0)
(-2.40426e-12 -4.46977e-10 0)
(-2.96898e-12 -4.16736e-10 0)
(-2.68204e-11 -4.40749e-10 0)
(-2.27501e-11 -4.86577e-10 0)
(-1.59958e-12 -4.99727e-10 0)
(0 0 0)
(1.40764e-11 -5.08409e-10 0)
(2.66027e-11 -5.38505e-10 0)
(0 0 0)
(1.73526e-11 -5.16878e-10 0)
(1.3146e-11 -1.16336e-09 0)
(4.10789e-12 -4.73552e-10 0)
(8.2852e-13 -4.61553e-10 0)
(8.58152e-11 -1.0908e-09 0)
(2.10442e-12 -4.6698e-10 0)
(1.76972e-11 -4.78055e-10 0)
(0 0 0)
(2.53721e-11 -5.54409e-10 0)
(5.11482e-11 -5.32638e-10 0)
(0 0 0)
(0 0 0)
(-8.35194e-13 -5.42928e-11 0)
(-1.0303e-10 -1.19893e-09 0)
(-7.33926e-11 -5.27982e-10 0)
(4.78656e-11 -6.59897e-10 0)
(6.65656e-11 -1.11903e-09 0)
(2.90465e-11 -4.22893e-10 0)
(-5.02561e-13 -1.046e-09 0)
(-2.7941e-11 -1.05765e-09 0)
(-1.23142e-11 -1.10002e-09 0)
(-2.15401e-12 -1.09415e-09 0)
(1.60385e-12 -4.62408e-10 0)
(-2.19359e-13 -5.00103e-10 0)
(-4.28571e-12 -4.96511e-10 0)
(-1.18974e-11 -4.81438e-10 0)
(5.28451e-13 -4.57417e-10 0)
(0 0 0)
(-9.11715e-12 -4.75919e-10 0)
(4.42932e-11 -5.61154e-10 0)
(-1.01317e-10 -8.56862e-10 0)
(-1.20324e-11 -8.46937e-10 0)
(0 0 0)
(-6.37321e-11 -6.27622e-10 0)
(-4.43071e-11 -5.359e-10 0)
(-7.3033e-12 -4.60919e-10 0)
(-2.28736e-12 -4.85071e-10 0)
(-1.68876e-11 -5.07242e-10 0)
(-4.12566e-11 -4.46676e-10 0)
(-3.92837e-11 -1.12019e-09 0)
(-5.02346e-11 -4.78378e-10 0)
(-1.30282e-10 -1.29028e-09 0)
(3.86619e-11 -6.09951e-10 0)
(3.37211e-11 -1.13664e-09 0)
(-1.65477e-11 -4.48962e-10 0)
(-9.2064e-12 -5.13021e-10 0)
(0 0 0)
(1.54871e-11 -5.31867e-10 0)
(3.8955e-11 -5.50889e-10 0)
(3.04571e-11 -5.40154e-10 0)
(0 0 0)
(1.03441e-11 -4.60355e-10 0)
(3.74035e-11 -4.95624e-10 0)
(5.65275e-11 -4.91951e-10 0)
(3.34894e-11 -5.02364e-10 0)
(2.30552e-11 -5.12005e-10 0)
(3.6083e-10 1.77315e-08 0)
(4.31309e-10 -4.75943e-11 0)
(-9.73073e-11 -1.34822e-10 0)
(9.00837e-12 -2.44239e-10 0)
(1.52157e-12 -4.0307e-11 0)
(2.80508e-11 -5.3686e-10 0)
(0 0 0)
(3.56753e-12 -5.42801e-10 0)
(0 0 0)
(1.60837e-11 -4.62547e-10 0)
(-5.05069e-13 -4.60804e-10 0)
(1.70294e-11 -4.82445e-10 0)
(-2.47747e-11 -1.13571e-09 0)
(-1.8422e-11 -5.03196e-10 0)
(-8.92459e-12 -5.30169e-10 0)
(0 0 0)
(3.62625e-12 -5.06873e-10 0)
(2.14247e-11 -5.20529e-10 0)
(2.66771e-11 -5.28351e-10 0)
(2.51198e-11 -5.18391e-10 0)
(0 0 0)
(1.3239e-11 -4.69234e-10 0)
(-8.44047e-12 -4.34753e-10 0)
(-1.30658e-11 -1.15857e-09 0)
(0 0 0)
(1.35748e-11 -4.93421e-10 0)
(3.10812e-11 -5.37711e-10 0)
(2.5233e-11 -5.55772e-10 0)
(0 0 0)
(4.77128e-11 -5.11786e-10 0)
(1.48336e-11 -2.62876e-09 0)
(-9.73824e-12 -5.86846e-10 0)
(0 0 0)
(-2.10135e-11 -5.19886e-10 0)
(2.03394e-11 -5.62345e-10 0)
(3.07288e-11 -5.31977e-10 0)
(-3.48095e-12 -5.0307e-10 0)
(6.42677e-12 -4.93267e-10 0)
(-4.60347e-12 -4.8595e-10 0)
(3.9185e-12 -4.88601e-10 0)
(0 0 0)
(-6.88414e-12 -5.18143e-10 0)
(-1.18025e-11 -4.99682e-10 0)
(7.80665e-12 -4.92101e-10 0)
(-5.65138e-12 -1.0602e-09 0)
(2.75712e-12 -4.39093e-10 0)
(-2.02833e-11 -1.09071e-09 0)
(-3.50266e-11 -4.39423e-10 0)
(-4.90176e-11 -1.47829e-09 0)
(0 0 0)
(-1.86501e-11 -4.36561e-10 0)
(-2.88003e-11 -1.44953e-09 0)
(0 0 0)
(1.88116e-11 -4.4046e-10 0)
(1.19682e-11 -4.43549e-10 0)
(2.49575e-12 -4.76964e-10 0)
(-3.71966e-11 -1.11669e-09 0)
(-1.41311e-11 -4.96286e-10 0)
(3.71086e-12 -5.06129e-10 0)
(0 0 0)
(-4.55045e-11 -5.60823e-10 0)
(-3.35518e-12 -5.75308e-10 0)
(0 0 0)
(1.99049e-11 -5.06864e-10 0)
(-9.66297e-13 -5.07432e-10 0)
(-5.09018e-12 -5.29562e-10 0)
(9.6175e-12 -5.40228e-10 0)
(1.76286e-11 -5.38574e-10 0)
(3.20122e-11 -6.91024e-10 0)
(6.26619e-11 -8.50834e-10 0)
(1.978e-11 -5.20711e-10 0)
(2.10753e-11 -4.68355e-10 0)
(2.77969e-11 -4.85499e-10 0)
(0 0 0)
(9.39846e-12 -5.50576e-10 0)
(4.18385e-11 1.61638e-08 0)
(9.94093e-10 -2.11415e-09 0)
(-4.98759e-10 -8.7706e-10 0)
(1.83649e-11 -4.92967e-10 0)
(0 0 0)
(2.4395e-11 -5.65175e-10 0)
(2.25143e-11 -5.02778e-10 0)
(3.89027e-11 -5.08469e-10 0)
(5.55442e-11 -4.95315e-10 0)
(0 0 0)
(3.11294e-11 -5.0144e-10 0)
(0 0 0)
(-3.56275e-12 -5.06093e-10 0)
(0 0 0)
(5.46705e-12 -5.32826e-10 0)
(0 0 0)
(0 0 0)
(1.68234e-11 -5.37764e-10 0)
(1.49715e-11 -5.82728e-10 0)
(3.10437e-11 -5.40081e-10 0)
(1.81489e-11 -4.78414e-10 0)
(8.76632e-11 -1.84372e-09 0)
(1.73618e-11 -4.83881e-10 0)
(-2.73571e-11 -9.30465e-10 0)
(5.17606e-12 -4.78906e-10 0)
(8.41393e-13 -4.98402e-10 0)
(1.40825e-11 -5.18523e-10 0)
(2.31152e-11 -5.45593e-10 0)
(1.21343e-11 -8.90641e-10 0)
(-7.57756e-11 -8.11012e-10 0)
(-3.61834e-11 -6.83235e-10 0)
(1.68953e-11 -5.86441e-10 0)
(1.73267e-11 -1.19238e-09 0)
(-1.10073e-12 -5.20701e-10 0)
(1.86714e-11 -5.20266e-10 0)
(1.76321e-11 -1.17973e-09 0)
(1.00159e-11 -5.36883e-10 0)
(0 0 0)
(-2.76698e-12 -5.20408e-10 0)
(-1.19767e-11 -4.92857e-10 0)
(4.21961e-12 -1.16455e-09 0)
(-1.34212e-11 -4.65879e-10 0)
(-1.06622e-11 -4.99227e-10 0)
(-2.50565e-11 -5.35935e-10 0)
(-1.92931e-11 -5.03603e-10 0)
(-2.15075e-11 -5.08486e-10 0)
(-3.67192e-11 -5.10157e-10 0)
(-5.65385e-11 -5.28125e-10 0)
(-8.56947e-11 -5.15755e-10 0)
(1.92043e-11 -5.44003e-10 0)
(0 0 0)
(-1.01591e-10 -1.22474e-09 0)
(5.97823e-11 -6.67181e-10 0)
(5.0119e-11 -4.322e-10 0)
(7.32245e-12 -1.12908e-09 0)
(5.39805e-12 -4.77692e-10 0)
(1.262e-11 -4.64296e-10 0)
(-5.35637e-12 -5.26911e-10 0)
(0 0 0)
(-9.20988e-12 -5.36386e-10 0)
(0 0 0)
(-1.20732e-11 -5.60669e-10 0)
(-1.10258e-11 -5.61567e-10 0)
(3.60763e-13 -5.23183e-10 0)
(-1.11695e-11 -5.33534e-10 0)
(-1.03889e-11 -5.30538e-10 0)
(8.03745e-12 -1.17287e-09 0)
(2.6934e-11 -4.64353e-10 0)
(5.24404e-11 -4.59294e-10 0)
(2.16939e-11 -5.40515e-10 0)
(8.40261e-11 -1.15274e-09 0)
(7.47489e-11 -1.02181e-09 0)
(2.27498e-11 -1.0071e-09 0)
(0 0 0)
(-1.47849e-11 -5.35562e-10 0)
(-4.79365e-09 2.10929e-08 0)
(-5.15053e-10 -3.41323e-09 0)
(-6.10072e-12 -1.1828e-09 0)
(4.42183e-11 -2.11603e-10 0)
(2.64208e-12 -4.52221e-10 0)
(0 0 0)
(4.49944e-11 -6.05457e-10 0)
(1.43892e-10 -1.21507e-09 0)
(4.6935e-11 -5.14242e-10 0)
(0 0 0)
(0 0 0)
(3.44343e-11 -5.21295e-10 0)
(1.44317e-11 -5.14064e-10 0)
(2.32127e-12 -5.03697e-10 0)
(0 0 0)
(1.28886e-11 -4.80933e-10 0)
(0 0 0)
(1.05739e-11 -4.57189e-10 0)
(6.24403e-11 -1.13871e-09 0)
(8.82027e-11 -1.16102e-09 0)
(4.83671e-11 -4.82167e-10 0)
(0 0 0)
(0 0 0)
(-4.89852e-11 -4.47573e-10 0)
(-3.55864e-11 -4.2342e-10 0)
(-4.16611e-11 -9.86527e-10 0)
(8.702e-13 -1.11074e-09 0)
(1.00656e-11 -1.1241e-09 0)
(8.57237e-12 -1.09026e-09 0)
(-2.86909e-11 -5.03666e-10 0)
(-4.27148e-11 -5.84672e-10 0)
(-1.62774e-11 -5.80165e-10 0)
(1.47766e-12 -5.36829e-10 0)
(1.52197e-11 -4.88138e-10 0)
(-2.35883e-12 -5.06945e-10 0)
(2.8596e-11 -5.03392e-10 0)
(1.09875e-11 -5.09185e-10 0)
(5.00854e-11 -1.13161e-09 0)
(1.24483e-11 -4.78782e-10 0)
(4.41217e-12 -4.99317e-10 0)
(-6.59816e-13 -5.21579e-10 0)
(0 0 0)
(0 0 0)
(-1.05677e-11 -5.10841e-10 0)
(-1.01816e-11 -5.03047e-10 0)
(-6.49194e-12 -4.93431e-10 0)
(-1.98985e-11 -5.29503e-10 0)
(-3.32413e-11 -5.56425e-10 0)
(-5.9087e-11 -5.61835e-10 0)
(-4.27072e-11 -5.71218e-10 0)
(-5.11839e-13 -5.09087e-10 0)
(-1.30249e-11 -5.03304e-10 0)
(1.47281e-11 -4.90546e-10 0)
(1.52127e-10 -1.24028e-09 0)
(-1.55753e-12 -4.77816e-10 0)
(4.3887e-12 -4.49654e-10 0)
(1.16494e-11 -4.90079e-10 0)
(-8.66398e-12 -5.17903e-10 0)
(-2.04984e-11 -5.29382e-10 0)
(-9.71473e-12 -5.33311e-10 0)
(-1.78758e-12 -5.5651e-10 0)
(0 0 0)
(-6.67723e-12 -5.51617e-10 0)
(-1.78183e-11 -5.27701e-10 0)
(6.54582e-12 -5.33809e-10 0)
(-1.29271e-11 -4.98894e-10 0)
(2.37787e-11 -1.06652e-09 0)
(4.49156e-12 -4.38582e-10 0)
(2.62989e-11 -8.12366e-10 0)
(-6.16765e-12 -6.79512e-10 0)
(-2.67035e-11 -1.1276e-09 0)
(-1.6846e-11 -1.80424e-09 0)
(-1.10614e-11 -9.61089e-10 0)
(1.17909e-11 -1.01456e-09 0)
(8.30603e-12 -4.57886e-10 0)
(-3.77221e-09 1.47634e-08 0)
(-1.73914e-09 -2.88837e-10 0)
(1.81326e-10 -4.7882e-10 0)
(1.63072e-11 -4.34357e-10 0)
(3.47612e-11 -4.76601e-10 0)
(0 0 0)
(0 0 0)
(9.54609e-11 -5.27377e-10 0)
(0 0 0)
(4.61349e-11 -4.78765e-10 0)
(1.09312e-10 -1.16356e-09 0)
(3.38496e-11 -4.80737e-10 0)
(4.8292e-11 -1.08922e-09 0)
(7.01811e-11 -9.62523e-10 0)
(2.77362e-11 -3.94414e-10 0)
(-4.91122e-12 -1.07575e-09 0)
(2.29713e-11 -4.13116e-10 0)
(-2.22338e-12 -4.46369e-10 0)
(6.17385e-12 -5.02577e-10 0)
(0 0 0)
(5.39392e-11 -4.84656e-10 0)
(9.53914e-12 -3.6941e-10 0)
(1.05006e-10 -2.21148e-09 0)
(-1.03387e-11 -1.18906e-09 0)
(-2.57513e-11 -9.24111e-10 0)
(-1.02413e-11 -3.66652e-10 0)
(0 0 0)
(1.10649e-11 -4.86832e-10 0)
(-3.54182e-11 -5.47311e-10 0)
(2.20629e-11 -5.64572e-10 0)
(-6.28984e-11 -6.36904e-10 0)
(0 0 0)
(-2.14525e-11 -5.58597e-10 0)
(0 0 0)
(2.25444e-12 -5.53425e-10 0)
(2.03614e-12 -1.22108e-09 0)
(1.56318e-11 -4.93721e-10 0)
(9.72329e-12 -4.95968e-10 0)
(1.9082e-11 -5.19497e-10 0)
(1.00589e-11 -5.05334e-10 0)
(2.97274e-12 -5.48063e-10 0)
(0 0 0)
(-8.7698e-12 -1.21364e-09 0)
(3.37569e-12 -4.57164e-10 0)
(-5.16856e-12 -4.41617e-10 0)
(-1.08152e-11 -4.92716e-10 0)
(-9.44977e-12 -5.47604e-10 0)
(0 0 0)
(-3.48407e-11 -5.78881e-10 0)
(-3.27764e-11 -5.45785e-10 0)
(-2.27191e-11 -1.1345e-09 0)
(-6.68466e-12 -4.26177e-10 0)
(3.26594e-12 -4.33504e-10 0)
(5.97208e-12 -5.22475e-10 0)
(3.33462e-11 -5.48322e-10 0)
(-1.46174e-12 -5.02452e-10 0)
(-1.51733e-11 -5.06941e-10 0)
(1.49084e-12 -5.404e-10 0)
(-5.53747e-13 -5.45305e-10 0)
(6.72327e-12 -5.44598e-10 0)
(0 0 0)
(-1.00447e-12 -5.35602e-10 0)
(-1.43403e-11 -5.61864e-10 0)
(-2.49701e-12 -5.16347e-10 0)
(-2.29422e-12 -5.30206e-10 0)
(0 0 0)
(-3.65443e-12 -4.79373e-10 0)
(-4.18094e-12 -4.63117e-10 0)
(-9.40578e-12 -4.54923e-10 0)
(0 0 0)
(-1.54453e-11 -5.28724e-10 0)
(-3.77088e-11 -4.90804e-10 0)
(-5.4999e-11 -1.09809e-09 0)
(-6.21066e-11 -1.0158e-09 0)
(-3.42758e-11 -1.79242e-09 0)
(-3.87956e-09 1.66057e-08 0)
(-1.05071e-10 7.32598e-10 0)
(-1.05536e-10 -5.06969e-11 0)
(3.48087e-11 -4.76615e-10 0)
(3.10721e-11 -3.84715e-10 0)
(1.40951e-10 -1.07163e-09 0)
(6.90097e-11 -4.28084e-10 0)
(0 0 0)
(1.66602e-10 -1.22228e-09 0)
(3.09037e-11 -4.62837e-10 0)
(2.58119e-11 -4.78696e-10 0)
(1.81305e-11 -1.17898e-09 0)
(2.31398e-11 -4.36808e-10 0)
(2.45131e-11 -4.52419e-10 0)
(3.91824e-11 -1.17703e-09 0)
(2.55496e-11 -4.34153e-10 0)
(1.81542e-11 -4.3296e-10 0)
(-8.97672e-12 -4.71341e-10 0)
(-7.9394e-12 -4.58445e-10 0)
(2.14947e-11 -4.92383e-10 0)
(-3.81843e-13 -5.10944e-10 0)
(-3.3992e-11 -4.69579e-10 0)
(-2.29557e-11 -4.81151e-10 0)
(2.82242e-11 -5.57966e-10 0)
(1.04622e-11 -4.23643e-10 0)
(0 0 0)
(-1.00993e-11 -4.42217e-10 0)
(2.96434e-11 -5.58804e-10 0)
(0 0 0)
(-1.49222e-11 -6.14549e-10 0)
(-1.6469e-11 -6.35111e-10 0)
(-4.52087e-12 -1.21969e-09 0)
(6.63379e-12 -4.63024e-10 0)
(1.32172e-11 -5.69522e-10 0)
(0 0 0)
(9.43632e-12 -5.28115e-10 0)
(1.48873e-11 -5.29672e-10 0)
(1.86172e-11 -5.21445e-10 0)
(1.95022e-11 -5.15875e-10 0)
(1.73287e-11 -5.17104e-10 0)
(1.02927e-11 -5.19619e-10 0)
(1.59255e-11 -5.02394e-10 0)
(1.25183e-12 -5.15772e-10 0)
(1.50805e-11 -4.88097e-10 0)
(1.01332e-12 -4.78886e-10 0)
(-7.07513e-12 -5.06553e-10 0)
(1.21241e-12 -5.4166e-10 0)
(-3.6843e-12 -5.54718e-10 0)
(-7.7188e-13 -5.57897e-10 0)
(5.33815e-12 -5.24466e-10 0)
(-2.06231e-11 -1.13566e-09 0)
(6.74729e-12 -4.55766e-10 0)
(-2.08897e-11 -4.507e-10 0)
(7.25091e-13 -5.40168e-10 0)
(2.63571e-12 -5.26906e-10 0)
(2.51952e-12 -5.20292e-10 0)
(-1.91705e-12 -5.33963e-10 0)
(-2.98567e-12 -5.49857e-10 0)
(0 0 0)
(4.35141e-12 -5.50519e-10 0)
(0 0 0)
(1.84185e-11 -1.18083e-09 0)
(-3.1068e-13 -6.65071e-10 0)
(-8.93298e-13 -1.02997e-09 0)
(3.47903e-12 -4.94108e-10 0)
(0 0 0)
(-3.45837e-11 -1.08392e-09 0)
(-2.23379e-11 -4.82739e-10 0)
(-4.04615e-11 -5.0244e-10 0)
(4.68425e-12 -5.11435e-10 0)
(-3.83817e-11 -1.22147e-09 0)
(-2.83581e-11 -5.28782e-10 0)
(-3.28444e-11 -5.42793e-10 0)
(-2.96557e-11 -5.51473e-10 0)
(-3.70139e-11 -5.37899e-10 0)
(1.87027e-09 2.21602e-08 0)
(2.39533e-10 5.39535e-10 0)
(3.41432e-10 -4.23689e-10 0)
(1.1642e-10 -4.47555e-10 0)
(0 0 0)
(1.22537e-10 -9.29529e-10 0)
(6.18165e-11 -4.72356e-10 0)
(1.29105e-11 -5.25403e-10 0)
(9.90476e-12 -1.2302e-09 0)
(3.36102e-11 -5.11555e-10 0)
(2.05059e-11 -5.22057e-10 0)
(1.20782e-11 -5.31477e-10 0)
(1.96855e-11 -4.83938e-10 0)
(2.66043e-11 -1.11515e-09 0)
(1.17758e-11 -4.56766e-10 0)
(1.13861e-11 -4.54556e-10 0)
(6.01131e-12 -5.00848e-10 0)
(-4.27191e-11 -1.10161e-09 0)
(-2.86906e-12 -4.19759e-10 0)
(2.75531e-11 -4.6071e-10 0)
(-2.79007e-11 -1.13052e-09 0)
(8.56604e-12 -4.80016e-10 0)
(1.53009e-11 -5.0477e-10 0)
(6.22984e-11 -5.54563e-10 0)
(2.9342e-12 -8.36463e-11 0)
(1.0764e-11 -3.02823e-10 0)
(0 0 0)
(-8.89287e-11 -2.42483e-09 0)
(0 0 0)
(0 0 0)
(4.63867e-11 -5.60746e-10 0)
(3.28759e-11 -5.6171e-10 0)
(7.30433e-11 -1.07763e-09 0)
(1.53768e-11 -5.61375e-10 0)
(4.06742e-11 -5.66208e-10 0)
(1.47156e-11 -5.3975e-10 0)
(2.51835e-11 -5.24853e-10 0)
(1.81067e-11 -4.99193e-10 0)
(5.28482e-12 -4.98404e-10 0)
(8.73474e-12 -5.33178e-10 0)
(2.05087e-11 -5.24505e-10 0)
(6.13542e-12 -5.32161e-10 0)
(2.02577e-13 -5.02072e-10 0)
(7.41437e-12 -5.00146e-10 0)
(5.60378e-12 -1.11224e-09 0)
(-4.14066e-12 -4.95286e-10 0)
(-1.69126e-11 -5.32278e-10 0)
(1.47273e-12 -5.31336e-10 0)
(-6.81452e-13 -1.25639e-09 0)
(1.46705e-12 -5.05037e-10 0)
(-2.1133e-11 -4.79782e-10 0)
(-1.31481e-11 -4.86945e-10 0)
(-1.72899e-12 -3.04397e-11 0)
(-4.50588e-11 -1.08046e-09 0)
(1.67838e-12 -4.98614e-10 0)
(1.04698e-11 -5.04074e-10 0)
(8.59718e-12 -5.23492e-10 0)
(9.97331e-12 -5.29396e-10 0)
(9.06901e-13 -5.14153e-10 0)
(-2.43772e-12 -5.35905e-10 0)
(0 0 0)
(1.24175e-11 -5.2018e-10 0)
(9.68442e-12 -5.10264e-10 0)
(0 0 0)
(6.62694e-12 -4.89448e-10 0)
(1.80182e-11 -5.22135e-10 0)
(-9.77757e-12 -5.36966e-10 0)
(-5.11876e-12 -5.39117e-10 0)
(0 0 0)
(0 0 0)
(0 0 0)
(0 0 0)
(0 0 0)
(0 0 0)
(-2.51165e-11 -5.66962e-10 0)
(-1.0907e-08 1.7243e-08 0)
(4.65112e-10 3.47751e-10 0)
(4.79329e-10 -2.26971e-10 0)
(9.94611e-11 -9.89201e-10 0)
(6.53421e-11 -3.95445e-10 0)
(0 0 0)
(-1.56035e-11 -1.22127e-09 0)
(-2.9393e-11 -5.70354e-10 0)
(0 0 0)
(4.87024e-12 -5.29502e-10 0)
(8.5324e-12 -5.27048e-10 0)
(2.59396e-11 -4.99668e-10 0)
(5.47682e-11 -1.10531e-09 0)
(2.00886e-12 -4.82327e-10 0)
(6.85929e-13 -4.9592e-10 0)
(-1.5716e-11 -4.91933e-10 0)
(-1.57698e-11 -1.19362e-09 0)
(1.41138e-12 -4.60912e-10 0)
(-7.719e-12 -4.31305e-10 0)
(-9.39154e-12 -5.02706e-10 0)
(-9.09214e-12 -4.74972e-10 0)
(1.19187e-12 -4.60561e-10 0)
(1.02988e-11 -5.17618e-10 0)
(0 0 0)
(2.65143e-11 -5.587e-10 0)
(0 0 0)
(0 0 0)
(0 0 0)
(6.78558e-12 -6.93814e-10 0)
(1.14438e-11 -6.09914e-10 0)
(0 0 0)
(0 0 0)
(0 0 0)
(3.20122e-11 -5.85807e-10 0)
(1.20956e-12 -5.29602e-10 0)
(-1.52178e-11 -5.39755e-10 0)
(-1.33548e-12 -1.16411e-09 0)
(1.43987e-12 -5.02072e-10 0)
(4.29592e-12 -5.45604e-10 0)
(0 0 0)
(1.73689e-14 -5.43131e-10 0)
(2.76174e-12 -5.347e-10 0)
(-3.55948e-12 -5.36041e-10 0)
(-6.68723e-12 -5.33345e-10 0)
(-1.5754e-11 -5.09949e-10 0)
(2.41155e-13 -5.16375e-10 0)
(1.14582e-11 -5.76931e-10 0)
(1.63254e-12 -5.48137e-10 0)
(-3.722e-11 -5.16352e-10 0)
(-2.10107e-11 -5.09877e-10 0)
(-2.56544e-11 -4.89382e-10 0)
(-2.64544e-11 -4.92314e-10 0)
(-2.95986e-11 -4.91359e-10 0)
(-3.75247e-11 -4.99379e-10 0)
(-3.01594e-11 -5.10742e-10 0)
(-3.7041e-12 -5.1053e-10 0)
(4.48706e-12 -4.85022e-10 0)
(1.26788e-11 -1.15715e-09 0)
(1.67049e-11 -4.95608e-10 0)
(1.69999e-11 -5.14088e-10 0)
(2.01059e-11 -5.32382e-10 0)
(8.81863e-12 -5.43792e-10 0)
(1.7509e-11 -5.31751e-10 0)
(1.77335e-12 -4.92227e-10 0)
(1.38294e-11 -4.96605e-10 0)
(1.50805e-11 -5.54211e-10 0)
(0 0 0)
(1.35752e-11 -5.49942e-10 0)
(-1.47888e-11 -5.42844e-10 0)
(-2.22513e-11 -5.29759e-10 0)
(-9.21474e-12 -5.29823e-10 0)
(0 0 0)
(-2.67478e-12 -5.16085e-10 0)
(2.09308e-11 -5.95615e-10 0)
(-3.77193e-11 -6.256e-10 0)
(9.81213e-09 3.16675e-08 0)
(4.14575e-10 8.2951e-10 0)
(1.16915e-10 -5.12184e-10 0)
(1.07218e-11 -1.12075e-10 0)
(1.8434e-11 -1.8351e-10 0)
(7.80991e-11 -5.02889e-10 0)
(-4.45741e-11 -5.93911e-10 0)
(0 0 0)
(-2.64544e-12 -4.90333e-10 0)
(1.10856e-11 -5.27516e-10 0)
(1.30827e-11 -5.34308e-10 0)
(4.62534e-12 -5.10747e-10 0)
(-4.44638e-12 -4.89477e-10 0)
(-1.43837e-11 -5.08029e-10 0)
(-1.36836e-11 -5.15742e-10 0)
(-2.29605e-11 -5.05415e-10 0)
(-2.77749e-11 -5.08911e-10 0)
(-3.91994e-12 -5.0481e-10 0)
(5.26933e-12 -1.08962e-09 0)
(-1.16718e-12 -4.81057e-10 0)
(0 0 0)
(-1.97607e-12 -5.13694e-10 0)
(-2.51838e-12 -5.228e-10 0)
(5.66292e-12 -5.46088e-10 0)
(0 0 0)
(6.30188e-12 -5.4133e-10 0)
(-2.17092e-11 -5.69863e-10 0)
(-1.3407e-11 -6.5243e-10 0)
(0 0 0)
(3.47274e-11 -5.73653e-10 0)
(4.10727e-11 -5.65078e-10 0)
(4.8795e-11 -5.50354e-10 0)
(5.92445e-11 -5.27018e-10 0)
(2.06154e-10 -2.22439e-09 0)
(-1.0486e-11 -5.47784e-10 0)
(-2.26688e-11 -4.92257e-10 0)
(0 0 0)
(-1.52412e-11 -5.17563e-10 0)
(8.24073e-12 -5.22715e-10 0)
(1.93484e-11 -5.271e-10 0)
(7.39616e-12 -5.41399e-10 0)
(6.35573e-12 -5.12569e-10 0)
(-8.45036e-13 -5.15497e-10 0)
(0 0 0)
(-1.25461e-11 -4.82415e-10 0)
(-1.43923e-11 -5.02525e-10 0)
(4.53259e-11 -5.4368e-10 0)
(4.76853e-11 -5.75379e-10 0)
(0 0 0)
(-3.80665e-11 -5.44894e-10 0)
(-2.44515e-11 -5.07401e-10 0)
(0 0 0)
(-7.5109e-12 -5.08569e-10 0)
(0 0 0)
(0 0 0)
(4.75437e-12 -4.68824e-10 0)
(-4.29698e-12 -5.25296e-10 0)
(1.93585e-11 -5.05561e-10 0)
(3.15893e-11 -5.16326e-10 0)
(-2.20735e-11 -5.76068e-10 0)
(-5.24478e-11 -1.14544e-09 0)
(5.06177e-12 -5.20505e-10 0)
(2.65848e-11 -1.23442e-09 0)
(0 0 0)
(3.96406e-11 -5.13252e-10 0)
(2.85149e-11 -5.62072e-10 0)
(0 0 0)
(2.29818e-11 -5.53762e-10 0)
(0 0 0)
(0 0 0)
(-6.35891e-11 -1.93568e-09 0)
(-3.5926e-12 -4.24569e-10 0)
(-1.2274e-11 -4.47851e-10 0)
(4.12289e-11 -5.72579e-10 0)
(-8.41045e-11 -6.25901e-10 0)
(-1.22985e-09 2.03181e-08 0)
(4.18864e-10 -5.64419e-10 0)
(1.17102e-10 -4.52437e-11 0)
(6.25692e-11 -3.74016e-10 0)
(3.89068e-11 -4.44337e-10 0)
(2.02854e-11 -6.82003e-10 0)
(0 0 0)
(5.22416e-12 -5.70996e-10 0)
(1.2994e-11 -5.13515e-10 0)
(2.83668e-11 -5.09729e-10 0)
(2.42298e-11 -5.22386e-10 0)
(1.53741e-11 -5.33108e-10 0)
(-6.82481e-12 -5.26739e-10 0)
(-1.88663e-11 -5.17424e-10 0)
(-2.26596e-11 -5.23996e-10 0)
(-2.91781e-11 -5.03785e-10 0)