/*--------------------------------*- C++ -*----------------------------------*\
  =========                 |
  \\      /  F ield         | OpenFOAM: The Open Source CFD Toolbox
   \\    /   O peration     | Website:  https://openfoam.org
    \\  /    A nd           | Version:  12
     \\/     M anipulation  |
\*---------------------------------------------------------------------------*/
FoamFile
{
    format      ascii;
    class       volScalarField;
    location    "0.75";
    object      p;
}
// * * * * * * * * * * * * * * * * * * * * * * * * * * * * * * * * * * * * * //

dimensions      [0 2 -2 0 0 0 0];

internalField   nonuniform List<scalar> 
3750
(
1.50601
1.50205
1.5149
1.39069
1.40352
1.40324
1.39872
1.39125
1.382
1.37021
1.35528
1.3326
1.29244
1.27516
1.26636
1.25609
1.24522
1.2329
1.21946
1.20408
1.18792
1.16894
1.14446
1.10835
1.09088
1.2174
1.20115
1.16609
1.13921
1.10397
1.14323
1.14837
1.13908
1.13036
1.12054
1.1113
1.10087
1.08948
1.07646
1.06216
1.04551
1.02647
1.00985
1.00436
1.00073
0.996119
0.989932
0.981278
0.970101
0.965916
0.952294
0.937252
0.924668
0.916983
0.913099
0.895841
0.872874
0.847067
0.812472
0.79611
0.9262
0.912544
0.876507
0.847313
0.815597
0.797469
0.777382
0.765633
0.893771
0.874398
0.838734
0.802129
0.7456
0.727368
0.722967
1.49287
1.48385
1.47318
1.42788
1.41556
1.40817
1.4012
1.39343
1.38422
1.37199
1.3539
1.33013
1.2943
1.27898
1.26797
1.25697
1.24622
1.23387
1.22071
1.20662
1.19103
1.17384
1.15509
1.13712
1.1353
1.17167
1.17213
1.15939
1.15328
1.04505
1.16079
1.15568
1.13753
1.12832
1.1198
1.11157
1.10207
1.09116
1.07871
1.06468
1.04793
1.02438
0.996955
1.0026
1.00226
0.997561
0.991781
0.982974
0.972972
0.968911
0.954598
0.938358
0.917184
0.906711
0.929237
0.901924
0.875296
0.856206
0.839477
0.840407
0.882742
0.885786
0.872165
0.850181
0.801984
0.787406
0.8143
0.823126
0.853423
0.839158
0.813341
0.787143
0.751525
0.732967
0.723051
1.48385
1.47149
1.45964
1.4376
1.42324
1.41279
1.40429
1.39712
1.38959
1.37883
1.34258
1.32572
1.29865
1.2822
1.2709
1.25978
1.24758
1.23586
1.22309
1.21051
1.19562
1.18028
1.16548
1.15383
1.15187
1.15463
1.15363
1.14391
1.12893
1.10302
1.13725
1.13931
1.12857
1.12897
1.11986
1.1136
1.10488
1.09397
1.0823
1.07008
1.05673
1.03253
0.996487
1.01436
1.00891
1.00041
0.994757
0.986016
0.976249
0.969125
0.957864
0.941194
0.905167
0.876696
0.958054
0.921096
0.881043
0.862618
0.851664
0.85438
0.867244
0.873545
0.87459
0.881617
0.764604
0.763468
0.859323
0.855837
0.832774
0.810507
0.787284
0.771521
0.754992
0.736639
0.726767
1.47658
1.46325
1.45406
1.4403
1.42823
1.4169
1.40775
1.40153
1.39904
1.41056
1.30818
1.31603
1.30116
1.28651
1.27392
1.26223
1.25104
1.23857
1.22646
1.21458
1.20056
1.18656
1.17294
1.16115
1.15374
1.14846
1.14309
1.13509
1.12586
1.11915
1.12387
1.12738
1.12319
1.12279
1.12219
1.11857
1.10888
1.09753
1.08617
1.07595
1.06627
1.06538
1.08562
1.03945
1.01618
1.00027
0.999423
0.988623
0.979833
0.972796
0.96408
0.944
0.911057
0.903974
0.930251
0.921218
0.890172
0.86449
0.852968
0.855019
0.863029
0.869259
0.869964
0.858472
0.81775
0.808529
0.834923
0.835955
0.819135
0.795737
0.777674
0.765188
0.753764
0.736354
0.730133
1.47113
1.4532
1.45206
1.44341
1.43047
1.41796
1.40964
1.40177
1.39453
1.38149
1.34037
1.32045
1.30306
1.28906
1.27691
1.26541
1.25426
1.24303
1.23047
1.21856
1.20565
1.19255
1.17846
1.16483
1.15259
1.143
1.13527
1.12754
1.12042
1.11543
1.119
1.12465
1.11186
1.11028
1.13242
1.12933
1.11433
1.10127
1.09073
1.08242
1.07792
1.07798
1.07685
1.03868
1.01803
1.00544
0.998075
0.9898
0.982652
0.974977
0.960353
0.943265
0.923822
0.919439
0.919478
0.917088
0.897449
0.866237
0.851847
0.849095
0.854487
0.877084
0.873873
0.861069
0.843603
0.820545
0.819403
0.819669
0.808754
0.790956
0.774892
0.761517
0.751278
0.738162
0.725173
1.47521
1.43315
1.45665
1.45025
1.43243
1.41889
1.40749
1.40214
1.39519
1.38081
1.34915
1.32583
1.30173
1.29072
1.2805
1.26897
1.25752
1.24631
1.23553
1.2244
1.21333
1.19978
1.18438
1.16529
1.14719
1.13565
1.12709
1.11947
1.11128
1.1047
1.11025
1.14192
1.09799
1.07602
1.16269
1.14328
1.11823
1.10344
1.09327
1.08621
1.08225
1.07947
1.06495
1.03112
1.01499
1.00589
0.997719
0.989387
0.98606
0.982316
0.951206
0.941403
0.933199
0.92676
0.919346
0.912712
0.899257
0.872543
0.858574
0.843012
0.827622
0.903145
0.880479
0.861652
0.847413
0.828152
0.821148
0.816238
0.80464
0.784517
0.769347
0.757394
0.747865
0.737608
0.726737
1.51407
1.53352
1.49015
1.46806
1.42945
1.41802
1.41544
1.40574
1.39712
1.3868
1.35901
1.32569
1.30231
1.29299
1.28348
1.27235
1.26086
1.24931
1.2393
1.22984
1.22045
1.20887
1.19114
1.16357
1.13761
1.125
1.11828
1.11232
1.10154
1.08232
1.0726
1.06839
1.09716
1.10237
1.12809
1.12617
1.11392
1.10222
1.09252
1.08396
1.07835
1.07214
1.05847
1.03143
1.01662
1.00592
0.995533
0.983994
0.981492
1.01968
0.920442
0.929532
0.945793
0.933038
0.919083
0.909592
0.896847
0.881073
0.868026
0.858799
0.858749
0.881488
0.869347
0.858147
0.847042
0.834992
0.826482
0.820437
0.809733
0.772998
0.760997
0.752672
0.744436
0.735108
0.725931
1.51637
1.51356
1.50229
1.50323
1.39952
1.41065
1.41129
1.40624
1.39937
1.38117
1.36038
1.32945
1.31181
1.30068
1.28839
1.27789
1.26202
1.25024
1.24149
1.23555
1.23105
1.2192
1.20113
1.14904
1.12627
1.11555
1.11281
1.10993
1.10063
1.05518
1.03764
1.1194
1.11888
1.11224
1.11521
1.11431
1.10755
1.0992
1.09071
1.0825
1.07466
1.06601
1.05274
1.03452
1.01978
1.00739
0.994515
0.977131
0.951658
1.01766
0.955495
0.919274
0.987787
0.93623
0.913917
0.905852
0.895206
0.884414
0.874698
0.868752
0.867228
0.868224
0.863934
0.855574
0.846593
0.838505
0.831973
0.830081
0.841353
0.736976
0.748639
0.747833
0.742422
0.735089
0.725367
1.5067
1.49843
1.50816
1.46942
1.42607
1.4145
1.41006
1.40764
1.3995
1.37452
1.35321
1.33323
1.31927
1.30908
1.29829
1.28503
1.25953
1.24707
1.24111
1.23906
1.24071
1.23073
1.23265
1.11763
1.1164
1.11262
1.11016
1.11366
1.13127
1.03801
1.06764
1.1048
1.11266
1.11279
1.11141
1.10834
1.10334
1.09607
1.08823
1.07987
1.07105
1.06482
1.05127
1.03362
1.02005
1.00875
0.998223
0.987637
0.98182
0.990875
0.969791
0.956029
0.990784
0.89103
0.900045
0.90166
0.89378
0.884819
0.878868
0.8736
0.870425
0.867514
0.862654
0.853946
0.846466
0.840301
0.83287
0.824542
0.813695
0.757711
0.749983
0.747285
0.74336
0.738369
0.730459
1.49165
1.47277
1.55574
1.43802
1.42132
1.41148
1.40528
1.39549
1.38923
1.36305
1.34693
1.33264
1.32167
1.3147
1.30834
1.28378
1.25869
1.23961
1.23656
1.23808
1.23757
1.20955
1.18733
1.1591
1.13118
1.11542
1.10594
1.10321
1.10028
1.0797
1.08932
1.10347
1.10994
1.11179
1.10988
1.10572
1.09948
1.09261
1.08528
1.07641
1.06726
1.06808
1.05586
1.03017
1.01745
1.00943
1.00254
0.997418
0.996378
0.990445
0.977868
0.953689
0.940013
0.904459
0.90469
0.896899
0.891526
0.886369
0.881071
0.876506
0.872997
0.869474
0.863277
0.851212
0.845181
0.84175
0.834189
0.821386
0.831503
0.730751
0.745694
0.74773
0.746337
0.743955
0.74087
1.49683
1.48572
1.48963
1.45582
1.42883
1.41028
1.3913
1.37435
1.35325
1.34393
1.3382
1.33021
1.3219
1.315
1.30902
1.27298
1.25495
1.24104
1.23631
1.23728
1.2511
1.15178
1.14445
1.19518
1.14021
1.11214
1.0967
1.09117
1.08758
1.08614
1.11016
1.11483
1.1138
1.11071
1.10834
1.1014
1.09644
1.09009
1.08255
1.0746
1.06719
1.06477
1.05665
1.02686
1.01542
1.00912
1.00529
1.0034
1.00547
1.00432
0.985445
0.945417
0.92203
0.903229
0.901648
0.895855
0.89085
0.886055
0.881865
0.878342
0.875885
0.874169
0.870564
0.843874
0.840551
0.840299
0.826822
0.810944
0.793626
0.761401
0.756292
0.752196
0.748937
0.747651
0.755118
1.50225
1.49047
1.4726
1.4496
1.42696
1.39972
1.35107
1.33224
1.33673
1.33795
1.33432
1.32809
1.32225
1.31336
1.30686
1.26589
1.25643
1.24386
1.23258
1.222
1.20555
1.16205
1.16566
1.1833
1.13902
1.09663
1.0815
1.07514
1.08748
1.07871
1.14902
1.12799
1.11944
1.10547
1.109
1.10246
1.09423
1.08708
1.07974
1.0722
1.06534
1.05991
1.05029
1.0275
1.01722
1.01061
1.00665
1.00499
1.00541
1.0076
0.989359
0.947715
0.926336
0.897634
0.895577
0.893924
0.889441
0.884972
0.881685
0.878997
0.877995
0.881801
0.902106
0.809971
0.828794
0.831687
0.823846
0.805892
0.791446
0.774505
0.763231
0.754958
0.748429
0.744718
0.739857
1.50588
1.4977
1.46395
1.44073
1.40287
1.37088
1.34081
1.32459
1.33347
1.33583
1.33269
1.32739
1.32069
1.30906
1.29895
1.26868
1.25716
1.24566
1.23044
1.21327
1.19506
1.17019
1.16849
1.17555
1.16461
1.06463
1.06516
1.04975
1.13083
1.1241
1.12776
1.12144
1.11297
1.10633
1.10359
1.09782
1.09131
1.08469
1.07738
1.07015
1.06272
1.05474
1.04429
1.03002
1.0185
1.01067
1.00592
1.00456
1.00023
0.998688
0.986194
0.963772
0.970453
0.873817
0.889756
0.890715
0.88771
0.883751
0.880751
0.8782
0.875921
0.872827
0.869158
0.838974
0.831749
0.825915
0.820149
0.80762
0.795757
0.782039
0.768531
0.755552
0.746567
0.741432
0.735653
1.50764
1.53515
1.43931
1.4279
1.36382
1.34925
1.34372
1.33758
1.34348
1.33878
1.33324
1.32676
1.31829
1.30727
1.29357
1.27569
1.25814
1.25075
1.23029
1.20705
1.19541
1.17513
1.16399
1.15569
1.13441
1.09847
1.08758
1.08974
1.12009
1.12652
1.12017
1.11276
1.10477
1.10148
1.0994
1.09613
1.08921
1.08221
1.07524
1.06837
1.06015
1.05153
1.04175
1.03034
1.01831
1.00794
1.0007
0.999913
0.998267
0.995759
0.983256
0.967314
0.948802
0.910912
0.899277
0.891869
0.886168
0.881361
0.879122
0.877337
0.874484
0.868985
0.859697
0.844152
0.832154
0.821128
0.820672
0.809187
0.800131
0.791053
0.776467
0.752217
0.740769
0.738352
0.739317
1.45231
1.50541
1.47964
1.44916
1.33235
1.33444
1.36039
1.36062
1.3518
1.34245
1.33493
1.32741
1.31843
1.30776
1.29544
1.28277
1.26756
1.25397
1.23257
1.20695
1.18967
1.17448
1.16034
1.14564
1.12783
1.11064
1.10625
1.11063
1.12004
1.12348
1.1151
1.10447
1.09053
1.08307
1.1044
1.09824
1.08704
1.08003
1.07365
1.06681
1.05907
1.05074
1.04057
1.02931
1.01664
1.0028
0.987783
0.984554
1.00511
1.00266
0.984954
0.96566
0.945962
0.922166
0.905551
0.892563
0.883786
0.876978
0.875259
0.878617
0.876565
0.86852
0.856673
0.844356
0.831295
0.820222
0.814766
0.807052
0.803166
0.797826
0.777916
0.749143
0.730116
0.729262
0.752287
1.59508
1.51457
1.47047
1.42578
1.36155
1.3207
1.39195
1.37674
1.35509
1.3446
1.33664
1.32879
1.32056
1.31141
1.30092
1.28929
1.27554
1.26151
1.23919
1.1957
1.18086
1.16953
1.15704
1.14142
1.12163
1.10998
1.11292
1.12555
1.13224
1.12825
1.10641
1.09676
1.08004
1.05329
1.11583
1.09632
1.08386
1.07708
1.07177
1.0657
1.05898
1.0508
1.04044
1.02911
1.01612
0.999988
0.974148
0.954395
1.03496
1.01405
0.985903
0.965246
0.94584
0.927256
0.909065
0.889855
0.879835
0.862923
0.862732
0.888244
0.884971
0.871092
0.854953
0.840493
0.828145
0.81847
0.810434
0.803308
0.79771
0.793207
0.780563
0.758131
0.731054
0.711592
0.790546
1.52062
1.48644
1.46058
1.4318
1.39135
1.36251
1.36968
1.36277
1.35076
1.34442
1.33848
1.33122
1.32405
1.31614
1.30737
1.29781
1.28358
1.27361
1.26786
1.16259
1.16936
1.16554
1.15745
1.14578
1.1077
1.09524
1.10217
1.1442
1.15136
1.13037
1.09679
1.0857
1.08093
1.07223
1.08506
1.0809
1.07697
1.0746
1.0716
1.06516
1.06129
1.05225
1.0421
1.03066
1.018
1.00364
0.988635
0.984192
1.00534
0.997919
0.980708
0.963675
0.946887
0.930234
0.911744
0.888507
0.871879
0.84937
0.832292
0.917863
0.898918
0.872383
0.850752
0.836149
0.824076
0.814853
0.805884
0.796977
0.788253
0.783139
0.788232
0.776267
0.76032
0.755316
0.773769
1.48342
1.4669
1.4526
1.43246
1.41327
1.39284
1.37508
1.3444
1.35835
1.35216
1.34297
1.33488
1.32803
1.32095
1.3153
1.30993
1.28196
1.26652
1.24183
1.1937
1.17221
1.16517
1.16372
1.17855
1.07285
1.07429
1.06249
1.15701
1.17587
1.12908
1.09744
1.08608
1.08654
1.08049
1.06798
1.06792
1.07193
1.07548
1.07345
1.06492
1.06658
1.05566
1.04405
1.03357
1.02224
1.00979
0.999446
0.995332
0.994168
0.987504
0.975388
0.96236
0.948372
0.934927
0.919684
0.880968
0.868381
0.858188
0.85919
0.88979
0.891627
0.874123
0.843427
0.82746
0.817851
0.810511
0.797813
0.791365
0.780102
0.762473
0.814795
0.79846
0.780215
0.772911
0.770396
1.4604
1.44959
1.44288
1.42963
1.41756
1.40451
1.40279
1.28693
1.37738
1.36975
1.34919
1.33875
1.33133
1.325
1.32356
1.33948
1.24545
1.25664
1.23901
1.20808
1.17904
1.16582
1.16133
1.15452
1.11759
1.09801
1.0765
1.08553
1.16596
1.12711
1.09635
1.08858
1.08684
1.07444
1.05927
1.0562
1.06853
1.0821
1.08182
1.07473
1.0695
1.05871
1.04733
1.03675
1.0258
1.01514
1.00549
0.997902
0.991362
0.982727
0.971673
0.960004
0.948843
0.941752
0.951399
0.850026
0.860093
0.859568
0.867735
0.883486
0.893157
0.875334
0.830768
0.814902
0.802076
0.799347
0.783989
0.801982
0.796728
0.811958
0.772905
0.794668
0.790163
0.783569
0.775236
1.43013
1.43203
1.43544
1.42956
1.41893
1.40458
1.38601
1.34908
1.3647
1.36239
1.35042
1.34041
1.33261
1.32399
1.31504
1.30406
1.26904
1.25499
1.23904
1.21966
1.18793
1.1728
1.1674
1.15886
1.14308
1.12738
1.0934
1.0736
1.10272
1.09933
1.08704
1.08055
1.07797
1.07018
1.05079
1.03839
1.0719
1.10385
1.09676
1.08122
1.07217
1.06174
1.0507
1.03938
1.02881
1.0187
1.00869
0.998936
0.989915
0.979532
0.969104
0.958127
0.946126
0.933485
0.918681
0.880187
0.864117
0.853124
0.860681
0.893342
0.89872
0.875145
0.82798
0.799621
0.788243
0.788393
0.775175
0.838722
0.802463
0.769284
0.811297
0.798272
0.804074
0.794794
0.781719
1.38067
1.41734
1.43674
1.43517
1.42495
1.40962
1.3907
1.37107
1.36231
1.35382
1.34574
1.34171
1.33475
1.32245
1.30857
1.29314
1.27274
1.25574
1.23682
1.21322
1.19438
1.18235
1.17587
1.17047
1.16533
1.15248
1.09441
1.06811
1.0712
1.07691
1.07225
1.06535
1.06211
1.07947
1.05867
1.0137
1.07952
1.14956
1.10571
1.0798
1.07712
1.06529
1.05409
1.04269
1.0317
1.02086
1.01065
0.999924
0.988887
0.978005
0.96746
0.956636
0.943355
0.927049
0.909907
0.887859
0.867964
0.844037
0.830008
0.913219
0.901195
0.876087
0.819528
0.796122
0.766514
0.832863
0.819899
0.823271
0.809581
0.78703
0.788735
0.766477
0.832141
0.807029
0.786136
1.33403
1.43131
1.45533
1.44853
1.43592
1.4195
1.40036
1.37622
1.3653
1.34288
1.33364
1.35069
1.34246
1.32218
1.30349
1.28745
1.27258
1.25675
1.23606
1.20423
1.19308
1.18771
1.18557
1.18116
1.17905
1.19027
1.06532
1.05995
1.06243
1.06455
1.05989
1.04928
1.0338
1.11737
1.10225
1.07157
1.08466
1.10353
1.087
1.0762
1.07501
1.06795
1.05752
1.04624
1.03465
1.02382
1.01276
1.00099
0.98755
0.975745
0.965866
0.955712
0.946463
0.921663
0.906173
0.890434
0.875693
0.862303
0.858519
0.883919
0.879778
0.861545
0.827769
0.808976
0.800165
0.819029
0.824784
0.827134
0.822784
0.787874
0.786203
0.781509
0.799139
0.795013
0.783714
1.64778
1.52871
1.48905
1.46729
1.4504
1.43229
1.4121
1.38791
1.36271
1.32703
1.29653
1.37258
1.34979
1.32003
1.2958
1.28072
1.27111
1.25715
1.2324
1.19195
1.17998
1.19804
1.19765
1.18708
1.17696
1.16029
1.0918
1.07146
1.0642
1.05904
1.05095
1.0478
1.08239
1.1213
1.12172
1.0908
1.0805
1.0718
1.06325
1.0656
1.07721
1.07375
1.06192
1.0497
1.03733
1.02719
1.01608
1.0033
0.98491
0.972448
0.96287
0.952778
0.947315
0.909704
0.904525
0.892814
0.881749
0.872985
0.868787
0.870373
0.865714
0.852316
0.831977
0.815849
0.805891
0.80458
0.817891
0.839637
0.866895
0.772419
0.788932
0.790928
0.789026
0.783481
0.779386
1.60608
1.55122
1.51066
1.48426
1.46396
1.44511
1.42408
1.39484
1.36902
1.34543
1.31343
1.33526
1.32932
1.31262
1.27854
1.27196
1.26717
1.25356
1.23002
1.18561
1.15731
1.23119
1.21339
1.19058
1.17912
1.18208
1.0698
1.07456
1.06768
1.05772
1.04332
1.03087
1.13139
1.13803
1.15325
1.05899
1.06951
1.06025
1.05129
1.05433
1.08751
1.08376
1.06802
1.05166
1.04135
1.03057
1.0211
1.01104
0.976414
0.966247
0.958503
0.950259
0.941036
0.91673
0.905625
0.894864
0.886119
0.878071
0.871511
0.86652
0.859731
0.849095
0.833705
0.816644
0.799009
0.781122
0.791116
0.851921
0.858614
0.818502
0.805709
0.796752
0.785151
0.771534
0.76974
1.55529
1.53817
1.5172
1.49545
1.47613
1.45864
1.44069
1.3973
1.37321
1.38282
1.29309
1.31696
1.31379
1.32201
1.22766
1.26819
1.26829
1.2515
1.2302
1.20536
1.19455
1.21093
1.20242
1.18416
1.16619
1.14651
1.10292
1.08657
1.07537
1.06213
1.05907
1.06287
1.10439
1.12219
1.12162
1.07917
1.06214
1.07159
1.04883
1.03094
1.11236
1.09962
1.07355
1.05226
1.03979
1.03117
1.02801
1.04203
0.944492
0.957312
0.95465
0.946809
0.936203
0.921335
0.909037
0.897973
0.888684
0.880498
0.873552
0.867352
0.859785
0.848915
0.835395
0.818098
0.795424
0.755619
0.730328
0.902294
0.879565
0.83543
0.817013
0.801789
0.785064
0.760886
0.740777
1.5075
1.50436
1.52284
1.5062
1.48674
1.47497
1.4818
1.36414
1.3525
1.34549
1.32059
1.31476
1.28963
1.26715
1.2214
1.3002
1.27763
1.2533
1.23381
1.21685
1.2077
1.20329
1.1942
1.17732
1.15487
1.13309
1.10865
1.0942
1.08228
1.07355
1.0685
1.0686
1.08339
1.12227
1.12101
1.07503
1.04138
1.11205
1.07181
1.05983
1.08453
1.08963
1.07753
1.04078
1.03627
1.0262
1.01872
1.00921
0.975054
0.964546
0.955829
0.946523
0.935626
0.923572
0.91156
0.900716
0.890417
0.881369
0.874589
0.869907
0.863074
0.852574
0.840056
0.82472
0.805775
0.78262
0.782953
0.840114
0.848704
0.832712
0.824658
0.807765
0.791131
0.775601
0.770562
1.46488
1.44806
1.5387
1.51301
1.4866
1.47001
1.44748
1.38499
1.34918
1.33568
1.32487
1.31328
1.28843
1.26852
1.25547
1.27182
1.26601
1.25089
1.23539
1.22156
1.21179
1.20276
1.19243
1.17535
1.14597
1.12312
1.10765
1.09671
1.08821
1.08105
1.07164
1.06366
1.04837
1.13762
1.12481
1.09513
1.08413
1.12841
1.04322
1.06612
1.07735
1.08654
1.10393
1.00823
1.02325
1.02001
1.01242
1.00053
0.982388
0.969327
0.958044
0.947527
0.937089
0.925444
0.913236
0.902084
0.889994
0.879432
0.872387
0.873652
0.870199
0.859069
0.846761
0.834553
0.820949
0.806509
0.805416
0.810578
0.815975
0.837834
0.829318
0.811357
0.796939
0.786216
0.781872
1.46751
1.48192
1.50141
1.49176
1.4775
1.45915
1.42848
1.37942
1.3497
1.33582
1.32536
1.31427
1.29663
1.27572
1.26572
1.26324
1.25888
1.2484
1.23524
1.22287
1.21242
1.20205
1.19091
1.17078
1.14138
1.11269
1.10532
1.1001
1.09347
1.089
1.08738
1.08514
1.06807
1.10001
1.10426
1.09715
1.09324
1.10121
1.07441
1.07361
1.07567
1.07528
1.06863
1.03602
1.02755
1.01976
1.00988
0.998064
0.984606
0.971676
0.959512
0.945912
0.941918
0.927911
0.914378
0.90128
0.887804
0.875145
0.863739
0.865429
0.885082
0.875354
0.859517
0.846319
0.837686
0.824547
0.812497
0.789955
0.776514
0.855977
0.838171
0.812652
0.799177
0.790549
0.784664
1.44118
1.4907
1.47952
1.46804
1.4564
1.43675
1.41111
1.37454
1.35308
1.33969
1.32842
1.32042
1.30825
1.27295
1.26536
1.2615
1.25712
1.24917
1.23371
1.22224
1.21321
1.20041
1.18274
1.16289
1.13304
1.11722
1.10764
1.10192
1.09862
1.09666
1.10164
1.12709
1.04651
1.07856
1.09033
1.09162
1.09403
1.09414
1.08539
1.08052
1.07625
1.07006
1.05967
1.04271
1.03057
1.01996
1.00915
0.997753
0.98583
0.973967
0.962107
0.950691
0.942423
0.929247
0.915436
0.901529
0.886692
0.870422
0.84639
0.827907
0.90969
0.900082
0.887881
0.862556
0.858602
0.843956
0.82264
0.803395
0.797628
0.817203
0.813121
0.804867
0.797706
0.792533
0.786429
1.40339
1.38607
1.43387
1.44755
1.43918
1.42001
1.39842
1.3742
1.35606
1.34157
1.3294
1.33195
1.34179
1.24314
1.25961
1.26124
1.25808
1.2551
1.22746
1.22152
1.21617
1.20399
1.16761
1.15055
1.13164
1.11817
1.11017
1.10496
1.10048
1.09763
1.09822
1.09985
1.07973
1.08321
1.08605
1.08586
1.08937
1.09272
1.09317
1.08694
1.07837
1.06883
1.05758
1.04446
1.03213
1.02056
1.00913
0.997981
0.987145
0.976349
0.964988
0.954149
0.942953
0.930461
0.916817
0.902744
0.88781
0.871181
0.852353
0.838506
0.866983
0.90024
0.929069
0.860442
0.887212
0.882336
0.839512
0.815185
0.803931
0.787348
0.788139
0.792998
0.796285
0.795445
0.789004
1.4215
1.40424
1.42884
1.43974
1.42532
1.40502
1.38684
1.36982
1.35455
1.34106
1.32987
1.32128
1.30926
1.27459
1.26542
1.26391
1.26155
1.28893
1.1984
1.2202
1.22513
1.23181
1.1331
1.14659
1.12104
1.11511
1.11063
1.10603
1.10142
1.0962
1.09275
1.09177
1.09081
1.09127
1.08579
1.07754
1.07786
1.1022
1.10663
1.09324
1.08103
1.0693
1.05751
1.04508
1.03291
1.02098
1.00916
0.997784
0.98836
0.978829
0.969079
0.957674
0.946444
0.932754
0.918733
0.90468
0.890385
0.87501
0.858054
0.837397
0.823008
0.896863
0.886707
0.930204
0.917053
0.900394
0.868526
0.813466
0.793113
0.777865
0.77548
0.781815
0.804906
0.803395
0.792986
1.46061
1.45419
1.45366
1.45324
1.41652
1.39005
1.37501
1.36292
1.35166
1.33895
1.32667
1.31536
1.30093
1.28077
1.26487
1.26474
1.25458
1.24905
1.22551
1.22988
1.22478
1.20033
1.16723
1.18361
1.09063
1.10735
1.11007
1.10776
1.10292
1.09417
1.08318
1.08
1.10524
1.10391
1.08994
1.06778
1.05076
1.13109
1.12376
1.09872
1.08364
1.07015
1.05764
1.04557
1.03336
1.02131
1.00867
0.995511
0.98744
0.981404
0.975842
0.964619
0.950378
0.934995
0.920669
0.907164
0.89424
0.880273
0.866382
0.852906
0.848256
0.871619
0.889644
0.912171
0.915636
0.907595
0.876048
0.820068
0.794069
0.776275
0.760896
0.752303
0.831318
0.81428
0.79597
1.47723
1.47374
1.47164
1.49132
1.38807
1.37597
1.36564
1.35873
1.34908
1.33699
1.32446
1.31154
1.29694
1.27995
1.26525
1.25527
1.24231
1.22772
1.21819
1.23943
1.22707
1.1952
1.17165
1.15742
1.12258
1.11341
1.11196
1.11223
1.10839
1.09566
1.07296
1.05562
1.13948
1.12345
1.1014
1.08683
1.0857
1.11007
1.10593
1.10032
1.08366
1.0698
1.05752
1.0459
1.03353
1.02198
1.00905
0.988458
0.975398
0.991926
0.987572
0.973001
0.954876
0.935912
0.921565
0.909378
0.898004
0.886022
0.874632
0.863582
0.857185
0.857071
0.87245
0.908204
0.915463
0.900089
0.874355
0.836399
0.809701
0.790278
0.7767
0.775661
0.800725
0.799601
0.793487
1.46577
1.46109
1.46595
1.46127
1.42123
1.3871
1.37105
1.3599
1.34817
1.33578
1.32277
1.3091
1.29452
1.27946
1.26547
1.25065
1.23343
1.20536
1.18256
1.25558
1.22997
1.19586
1.17224
1.15266
1.12945
1.11403
1.10776
1.12692
1.12176
1.10557
1.09058
1.08859
1.11648
1.11625
1.10665
1.10106
1.09969
1.10045
1.09984
1.09343
1.08184
1.06974
1.05738
1.04552
1.0337
1.02271
1.01044
0.976121
0.94785
1.02121
1.00423
0.983083
0.959289
0.93216
0.920188
0.910867
0.901959
0.892114
0.881969
0.869857
0.854491
0.844071
0.838072
0.924952
0.921211
0.893395
0.871128
0.845937
0.824308
0.805706
0.792544
0.788576
0.789345
0.787417
0.783704
1.42891
1.43182
1.46534
1.45783
1.42879
1.39844
1.37751
1.36185
1.34837
1.33503
1.32159
1.30772
1.29357
1.27922
1.26486
1.24936
1.23269
1.2136
1.205
1.21754
1.20801
1.1867
1.16885
1.15336
1.13082
1.11019
1.08691
1.16038
1.13927
1.1127
1.09985
1.09925
1.1043
1.10755
1.1095
1.11022
1.10581
1.10254
1.09759
1.09042
1.0802
1.06858
1.05672
1.04504
1.0334
1.02197
1.00909
0.989928
0.97917
0.997724
1.00103
0.991128
0.953284
0.925317
0.917528
0.912791
0.907008
0.899335
0.890417
0.87924
0.861943
0.854425
0.862038
0.893316
0.897471
0.883254
0.867243
0.851872
0.835667
0.817085
0.810034
0.791523
0.781162
0.777679
0.773326
1.37142
1.39669
1.50064
1.47327
1.43404
1.40157
1.37921
1.36238
1.34848
1.33442
1.32065
1.30684
1.29257
1.27833
1.26398
1.2491
1.23429
1.22034
1.21145
1.20396
1.19212
1.17371
1.16001
1.16764
1.14787
1.1173
1.11892
1.14302
1.13731
1.10864
1.09025
1.10673
1.09939
1.09297
1.11726
1.12183
1.1141
1.1077
1.09914
1.08991
1.07969
1.06797
1.05581
1.04423
1.0331
1.02223
1.01105
0.999832
0.994844
0.993835
1.00003
1.01769
0.91861
0.917657
0.924325
0.919961
0.914765
0.90779
0.900991
0.892879
0.863059
0.862059
0.86874
0.876944
0.880719
0.8726
0.867731
0.857871
0.849062
0.835003
0.81634
0.78737
0.773574
0.769428
0.764653
1.32362
1.44293
1.47499
1.46201
1.43355
1.39612
1.37536
1.36052
1.3485
1.33422
1.31971
1.30634
1.29158
1.27776
1.26336
1.24886
1.23521
1.22194
1.21056
1.19901
1.18393
1.15956
1.13335
1.20272
1.16832
1.09414
1.12535
1.15882
1.15099
1.09749
1.06496
1.13148
1.09387
1.06009
1.14015
1.13223
1.11783
1.11568
1.10279
1.09069
1.07991
1.06699
1.0545
1.04298
1.03246
1.02202
1.01236
1.00371
0.997796
0.992291
0.988077
0.979147
0.94569
0.934647
0.932404
0.928606
0.923503
0.9168
0.912112
0.928532
0.838205
0.861293
0.870041
0.873009
0.873988
0.87158
0.866587
0.860782
0.857247
0.850965
0.827448
0.780222
0.758314
0.761066
0.761077
1.38045
1.39721
1.44553
1.44654
1.42585
1.38566
1.37252
1.36127
1.34815
1.33389
1.31961
1.30611
1.29168
1.27758
1.26308
1.2484
1.23519
1.22165
1.20961
1.19747
1.18438
1.17078
1.16697
1.19456
1.21892
0.996801
1.1139
1.20984
1.19739
1.07877
1.08807
1.10184
1.089
1.0754
1.09806
1.1287
1.12526
1.11512
1.10593
1.09289
1.08013
1.06485
1.05185
1.04121
1.03135
1.02178
1.01286
1.00482
0.997678
0.990117
0.980305
0.964848
0.947068
0.942596
0.943023
0.938045
0.933229
0.922924
0.904199
0.896544
0.873165
0.876031
0.877552
0.873843
0.869125
0.86829
0.871061
0.862723
0.856326
0.850743
0.828009
0.777075
0.752862
0.752921
0.768202
1.42198
1.45006
1.4397
1.43341
1.41576
1.38473
1.36827
1.36395
1.34927
1.33378
1.31951
1.30592
1.29139
1.27728
1.26253
1.24764
1.23422
1.22081
1.2084
1.19735
1.18618
1.17525
1.17088
1.17572
1.17189
1.10125
1.12869
1.16412
1.15788
1.1171
1.10561
1.0979
1.08858
1.07225
1.05551
1.12985
1.11877
1.12252
1.11513
1.09561
1.07673
1.06133
1.04851
1.03847
1.02966
1.02092
1.01252
1.0047
0.997323
0.989994
0.978855
0.952361
0.93264
0.95187
0.955084
0.945317
0.94068
0.928995
0.900838
0.884953
0.874389
0.89374
0.88956
0.876134
0.863585
0.861567
0.88811
0.86244
0.849987
0.838715
0.820219
0.786747
0.761354
0.73962
0.790399
1.41697
1.41314
1.42907
1.42669
1.41004
1.38937
1.37329
1.36106
1.34807
1.33344
1.31914
1.30561
1.29141
1.27718
1.26148
1.24658
1.23237
1.21847
1.20686
1.19868
1.18803
1.17416
1.16379
1.16519
1.20977
1.11453
1.13568
1.14586
1.14125
1.12422
1.1123
1.10183
1.09488
1.08881
1.0776
1.08169
1.06134
1.14033
1.12338
1.0987
1.06878
1.05328
1.04375
1.03544
1.02752
1.01959
1.01132
1.00397
0.998042
0.992957
0.98695
0.93548
0.905978
0.977613
0.971216
0.942318
0.932071
0.944836
0.919273
0.882796
0.859414
0.932279
0.904924
0.877879
0.852324
0.841722
0.946769
0.842096
0.83991
0.829968
0.816087
0.799152
0.788697
0.806582
0.73823
1.40719
1.39741
1.4218
1.424
1.40707
1.38944
1.37519
1.36257
1.34931
1.33434
1.31975
1.30574
1.29124
1.27706
1.26009
1.24491
1.23021
1.21579
1.20202
1.20144
1.1933
1.17321
1.15598
1.13619
1.21186
1.17074
1.15165
1.14593
1.13724
1.12578
1.11486
1.10849
1.10626
1.10368
1.07871
1.06644
1.06737
1.10079
1.10698
1.08755
1.06187
1.0447
1.03846
1.03318
1.0255
1.01822
1.01039
1.00294
0.996478
0.995886
1.01687
0.920039
0.937916
0.960136
0.956797
0.930285
0.905604
0.978454
0.948531
0.914674
0.892008
0.90577
0.894984
0.878168
0.861978
0.861259
0.881864
0.855821
0.840683
0.827853
0.815018
0.803564
0.793528
0.787792
0.761005
1.40897
1.40126
1.40756
1.40783
1.39863
1.38617
1.37504
1.36343
1.34978
1.33472
1.3202
1.30589
1.29224
1.27855
1.25765
1.24168
1.22784
1.21374
1.20248
1.19027
1.18824
1.18777
1.17749
1.17078
1.17916
1.16868
1.15634
1.14771
1.13779
1.12643
1.1132
1.11083
1.11846
1.14177
1.04907
1.06255
1.07126
1.08079
1.08554
1.07507
1.05374
1.04473
1.03908
1.03326
1.0258
1.01885
1.00905
0.999802
0.989274
0.977235
0.975255
0.971656
0.971983
0.965392
0.956386
0.940291
0.935953
0.957227
0.960246
0.940678
0.901141
0.895011
0.886079
0.876613
0.868326
0.865361
0.859825
0.84825
0.836537
0.825084
0.814127
0.804633
0.794212
0.783782
0.769142
1.41426
1.406
1.406
1.40107
1.38934
1.38179
1.37535
1.36584
1.35105
1.3348
1.3201
1.30653
1.29529
1.28272
1.2477
1.23591
1.22562
1.21044
1.20314
1.17824
1.16007
1.22987
1.20947
1.19008
1.1615
1.15687
1.15445
1.14924
1.14179
1.12966
1.1024
1.09686
1.1194
1.11826
1.08506
1.06459
1.06384
1.06939
1.07509
1.06679
1.05344
1.04756
1.04091
1.0335
1.02593
1.01811
1.00896
0.998264
0.983794
0.956686
0.945332
1.0175
1.00179
0.979883
0.964646
0.950893
0.947448
0.951901
0.963847
0.985316
0.871029
0.888812
0.877384
0.875018
0.869746
0.864632
0.851316
0.840978
0.832232
0.822492
0.813012
0.805778
0.794673
0.783429
0.77181
1.41658
1.40659
1.40571
1.40154
1.37611
1.37634
1.37898
1.3737
1.35386
1.33358
1.31885
1.3048
1.29527
1.314
1.21369
1.22733
1.22526
1.21251
1.20447
1.19231
1.19076
1.20799
1.20987
1.22121
1.1269
1.14348
1.15484
1.15199
1.14697
1.13453
1.09101
1.06941
1.13639
1.11373
1.09098
1.04899
1.04824
1.04999
1.07176
1.06661
1.05531
1.05192
1.04373
1.03382
1.02643
1.01747
1.00824
0.997974
0.986261
0.974343
0.976484
1.00011
0.998696
0.986977
0.971862
0.95424
0.947709
0.948437
0.9594
0.985633
0.873995
0.897241
0.871763
0.876328
0.872994
0.869663
0.840448
0.833164
0.827781
0.820388
0.810205
0.810276
0.796
0.782512
0.772053
1.41221
1.40319
1.40702
1.42754
1.33583
1.36256
1.39642
1.39642
1.35588
1.33237
1.31331
1.29409
1.28163
1.27173
1.24022
1.23546
1.2349
1.21052
1.20881
1.20733
1.20369
1.19208
1.1887
1.18088
1.15314
1.15098
1.15315
1.15349
1.15007
1.13762
1.10653
1.09965
1.10045
1.09961
1.08075
1.04832
1.02862
1.00371
1.07415
1.0607
1.06697
1.06037
1.04824
1.03779
1.02787
1.01737
1.00755
1.00048
0.993112
0.98923
0.993885
0.999648
0.999966
0.995956
0.981879
0.948193
0.941357
0.939216
0.94096
0.943453
0.914772
0.908555
0.887255
0.881377
0.882629
0.900867
0.807702
0.823995
0.824564
0.820384
0.815676
0.812335
0.802636
0.781808
0.770655
1.39646
1.39077
1.39135
1.39027
1.36214
1.35356
1.44349
1.45252
1.34112
1.32757
1.30988
1.282
1.267
1.25334
1.24011
1.2409
1.26751
1.18709
1.21352
1.22044
1.21406
1.18667
1.17634
1.16345
1.14955
1.16058
1.15141
1.1448
1.15949
1.14624
1.12146
1.11113
1.09386
1.08683
1.07262
1.04908
1.02971
1.01931
1.02452
1.01339
1.09019
1.06894
1.05068
1.03977
1.02883
1.01516
1.00462
0.99912
0.997162
0.996926
1.00057
1.00242
1.00486
1.01344
1.01336
0.915023
0.930292
0.929233
0.922269
0.921372
0.932682
0.923805
0.897315
0.883516
0.876571
0.86927
0.838214
0.831014
0.826074
0.820972
0.817217
0.817884
0.807082
0.782644
0.767849
1.3847
1.37797
1.37476
1.37423
1.39401
1.40134
1.42783
1.42203
1.38784
1.33971
1.31377
1.26983
1.25777
1.23442
1.22441
1.22205
1.22801
1.2338
1.23836
1.23225
1.22083
1.19267
1.17248
1.15917
1.12018
1.17752
1.14414
1.11025
1.1802
1.156
1.12211
1.1102
1.1006
1.09088
1.07365
1.04706
1.03056
1.02353
1.01693
1.02165
1.04884
1.05162
1.04607
1.04184
1.03252
1.01198
0.995531
0.996869
0.999314
1.00495
1.009
1.00496
1.0039
1.03384
0.971388
0.945038
0.936427
0.926178
0.905722
0.88759
0.963169
0.943564
0.894581
0.880038
0.870927
0.861045
0.845506
0.835327
0.828769
0.822849
0.818051
0.814134
0.807468
0.789821
0.774979
1.38051
1.37641
1.36643
1.3533
1.43888
1.42894
1.41975
1.41474
1.39798
1.34381
1.31422
1.26851
1.23654
1.21325
1.20719
1.20105
1.20016
1.28399
1.2671
1.24419
1.22779
1.20673
1.18409
1.16328
1.13858
1.13942
1.12971
1.12649
1.14592