/*--------------------------------*- C++ -*----------------------------------*\
  =========                 |
  \\      /  F ield         | OpenFOAM: The Open Source CFD Toolbox
   \\    /   O peration     | Website:  https://openfoam.org
    \\  /    A nd           | Version:  12
     \\/     M anipulation  |
\*---------------------------------------------------------------------------*/
FoamFile
{
    format      ascii;
    class       surfaceScalarField;
    location    "0.75";
    object      phi.water_0;
}
// * * * * * * * * * * * * * * * * * * * * * * * * * * * * * * * * * * * * * //

dimensions      [0 3 -1 0 0 0 0];

internalField   nonuniform List<scalar> 
7375
(
-8.82334e-08
5.62899e-08
-5.35741e-08
-1.5423e-08
2.00349e-09
-5.09824e-08
3.946e-08
-3.75303e-08
6.81159e-08
-2.91197e-08
7.82824e-08
-1.08681e-08
9.74814e-08
-1.92334e-08
9.37814e-08
3.73982e-09
1.13239e-07
-1.94711e-08
1.15761e-07
-3.70674e-09
1.09344e-07
6.41668e-09
8.24688e-08
2.71425e-08
1.31154e-07
-4.68871e-08
1.53369e-07
-2.21667e-08
1.57271e-07
-3.86265e-09
1.45807e-07
1.2993e-08
1.53728e-07
-7.93029e-09
1.2588e-07
2.91946e-08
1.19469e-07
5.09776e-09
9.78231e-08
2.02252e-08
8.94157e-08
8.41411e-09
8.80015e-08
1.39634e-09
8.06016e-08
7.39751e-09
3.84114e-08
4.21892e-08
5.08053e-07
1.28928e-07
4.55548e-08
-1.37385e-07
1.0066e-07
-5.61371e-08
1.26746e-07
-2.70933e-08
1.56555e-07
-2.8244e-08
2.75077e-07
-1.18117e-07
1.72621e-07
1.03503e-07
1.6096e-07
1.16514e-08
1.77896e-07
-1.89617e-08
1.68391e-07
7.80434e-09
1.82291e-07
-1.20775e-08
1.9436e-07
-1.0204e-08
1.90491e-07
1.91169e-09
1.9614e-07
-5.5926e-09
1.9313e-07
3.06809e-09
1.99021e-07
-3.92073e-09
1.9345e-07
9.62354e-09
2.00487e-07
-9.15113e-09
2.19424e-07
-2.09861e-08
2.24379e-07
-4.91155e-09
2.18442e-07
5.86898e-09
2.15477e-07
2.9296e-09
2.01037e-07
1.63201e-08
1.49944e-07
5.05993e-08
1.53097e-07
-3.16225e-09
9.50054e-08
5.65327e-08
1.04342e-07
-9.24289e-09
1.1047e-07
-5.04652e-09
1.18861e-07
-9.52666e-09
1.41854e-07
-2.32224e-08
1.19339e-07
2.23068e-08
1.06263e-07
1.30901e-08
1.12724e-07
-5.25629e-09
9.05805e-08
2.19474e-08
5.6054e-08
3.47565e-08
5.30712e-07
1.39145e-07
6.00303e-08
-1.40615e-07
1.08002e-07
-4.84612e-08
1.10793e-07
-1.68404e-09
1.17829e-07
-5.78432e-09
1.2717e-07
-9.35447e-09
1.39921e-07
-1.26332e-08
7.27503e-08
6.78647e-08
5.12242e-07
1.57639e-07
5.96488e-08
-1.42676e-07
1.16656e-07
-5.64029e-08
1.87791e-07
-7.04426e-08
1.78585e-08
-3.01417e-08
2.06657e-07
9.05243e-09
1.71058e-07
3.77246e-08
1.71424e-08
1.74691e-08
6.71913e-09
-2.15858e-08
2.0769e-08
2.0541e-08
-9.27107e-08
3.06312e-08
-4.74453e-08
2.88989e-08
-2.74028e-08
3.55533e-08
-1.75224e-08
3.31709e-08
-1.65126e-08
4.47025e-08
-7.79172e-09
5.10777e-08
-2.65734e-08
6.64574e-08
-1.88935e-08
1.3403e-07
-6.10901e-08
5.36486e-09
-4.42089e-08
1.55775e-07
-1.40162e-09
1.20313e-07
1.4941e-08
1.23921e-07
-7.54586e-09
1.4851e-07
-1.03321e-08
1.30001e-07
1.21092e-08
1.34702e-07
2.28697e-08
1.30648e-07
7.84652e-09
1.17621e-07
3.29203e-08
1.10034e-07
1.6078e-08
1.05387e-07
6.04385e-09
9.68492e-08
1.73643e-08
1.13421e-07
2.44604e-08
2.20713e-07
2.16358e-08
1.22958e-07
-3.70014e-08
9.8929e-08
-3.27832e-08
9.216e-08
-2.15288e-08
4.22819e-08
2.27065e-08
4.36657e-07
9.7507e-08
3.13764e-08
-1.00747e-07
9.27772e-08
-4.91232e-08
9.38071e-08
-2.02e-08
1.09467e-07
-9.84975e-09
1.28263e-07
-3.06863e-08
1.25822e-07
-7.73799e-09
1.26778e-07
-3.27756e-10
1.17592e-07
6.0039e-09
1.0928e-07
1.37191e-08
1.05821e-07
-1.64651e-09
1.1714e-07
-1.69503e-09
1.37292e-07
-2.92093e-08
2.19276e-07
-1.07707e-07
2.41532e-07
-2.96063e-08
2.6275e-07
-1.54083e-08
2.91085e-07
-2.56917e-08
2.97446e-07
9.89442e-09
3.26925e-07
2.69147e-08
2.67756e-07
5.72059e-08
2.74095e-07
4.64487e-08
2.15568e-07
5.1461e-08
1.99541e-07
1.10314e-08
1.92325e-07
-3.48925e-10
2.43608e-07
-7.78181e-08
1.29026e-07
1.358e-07
1.43821e-07
-1.85656e-09
1.69441e-07
-3.25878e-08
1.78263e-07
1.44687e-08
2.01642e-07
1.5571e-08
3.04135e-07
3.34385e-08
2.01187e-07
-3.91166e-08
1.69372e-07
-1.71456e-08
1.55655e-07
8.71692e-09
1.46111e-07
3.7216e-09
1.36681e-07
1.66205e-09
2.13063e-07
-8.8651e-08
1.28739e-07
1.54143e-07
1.95753e-07
9.13222e-08
5.61515e-08
-8.6701e-09
6.6611e-08
-6.74275e-08
6.47316e-08
-6.85633e-08
5.67572e-08
-2.20858e-08
8.01893e-08
-1.42878e-08
1.19552e-07
3.95973e-10
7.36192e-09
-8.79735e-08
3.71792e-08
-4.12072e-08
-1.611e-08
-5.79648e-08
-7.18304e-08
-4.8556e-08
-5.45959e-08
-2.91611e-08
-4.67976e-08
-1.44308e-08
-3.22525e-08
-2.37553e-08
-7.18806e-09
-2.75795e-08
-4.21224e-09
-4.95443e-08
-4.18405e-09
-6.13663e-08
-6.63822e-09
-9.19696e-08
-3.14334e-08
-1.45486e-07
9.21374e-09
-1.01256e-07
-4.46126e-08
-7.89662e-08
-7.27172e-09
-7.15209e-08
-1.66967e-08
-6.32405e-08
-1.87189e-08
-4.92234e-08
-1.38623e-09
-3.23278e-08
5.64432e-09
-2.59533e-08
1.73953e-09
-1.98536e-08
2.74151e-08
-1.71708e-08
1.30595e-08
-2.489e-08
1.3454e-08
-3.01683e-08
2.26426e-08
-1.30822e-08
7.90906e-09
1.05257e-08
-1.85884e-09
-1.76037e-09
-2.46976e-08
-8.37515e-09
-2.61863e-08
-2.83117e-09
-2.71015e-08
2.01409e-08
-2.3959e-10
1.24749e-07
-9.34556e-09
4.79068e-08
-2.18481e-08
5.98675e-08
-6.06029e-08
6.15173e-08
-2.1421e-08
7.67809e-08
-2.65245e-08
5.02436e-08
-4.45908e-09
3.00224e-08
1.33018e-08
1.80776e-08
1.16134e-08
6.03795e-09
1.81049e-08
5.39609e-09
1.42758e-08
1.71027e-08
-1.31601e-08
9.34692e-09
5.88421e-09
-5.73265e-08
3.70817e-08
2.00315e-07
2.38263e-07
1.3523e-07
3.20806e-08
1.36064e-07
-1.65654e-08
1.43719e-07
-3.22212e-08
1.53898e-07
-1.83564e-10
1.51268e-07
3.16854e-08
1.59026e-07
4.72187e-08
1.59358e-07
4.38129e-08
1.44075e-07
6.83533e-08
8.16402e-08
7.49352e-08
4.91315e-08
3.29974e-08
4.82409e-07
1.00745e-07
-8.15237e-08
-1.10788e-07
8.33561e-08
3.37126e-08
3.89736e-08
1.10644e-08
3.80559e-08
1.63008e-08
6.30747e-08
-9.70855e-09
9.86739e-08
-2.80446e-09
6.83276e-08
-7.75359e-09
5.37678e-08
-3.10815e-09
2.83565e-08
3.38388e-08
-3.09616e-09
3.52117e-08
-5.10876e-08
4.85795e-08
3.29981e-07
1.42659e-07
-3.818e-08
-8.58856e-08
9.74203e-08
-4.51478e-08
-6.0451e-08
-5.21092e-08
7.09936e-08
-3.19758e-10
-2.14783e-09
4.55617e-09
-3.15154e-09
-2.10817e-08
1.07071e-08
-2.84007e-08
2.80189e-08
-1.71989e-08
-5.779e-09
-4.21701e-08
3.40785e-08
-4.7973e-08
1.19603e-09
-7.01486e-08
-4.39309e-08
-4.81456e-08
-7.58831e-08
-6.18594e-08
-3.34247e-08
-6.50434e-08
-2.90685e-08
-7.25375e-08
-4.33875e-10
-9.67555e-08
1.78276e-08
-1.32579e-07
3.09875e-08
-1.53128e-07
1.49972e-08
-1.59752e-07
-2.15848e-08
-1.68822e-07
1.98969e-08
-1.68205e-07
-4.9169e-08
-1.57028e-07
-2.01423e-08
-1.45205e-07
-2.69014e-08
-1.54358e-07
-7.89318e-09
-1.42488e-07
-1.32561e-08
-1.10523e-07
-2.60552e-08
-1.00361e-07
-8.52728e-09
-6.9906e-08
-2.02633e-09
-6.19345e-08
4.46253e-09
-5.87772e-08
9.65836e-09
-4.28165e-08
7.25628e-09
-2.95041e-08
-5.40349e-09
-2.01099e-08
-1.15541e-08
-2.08794e-08
-2.41802e-08
-2.2922e-08
-2.41771e-08
-2.33945e-08
-2.66291e-08
-1.38304e-08
-1.00425e-08
-1.10423e-09
-2.24071e-08
-7.70981e-09
-1.55473e-08
-3.03295e-08
-3.75913e-08
-4.05508e-08
-1.06774e-08
-1.45065e-08
-5.29826e-08
-4.9882e-08
3.15136e-08
-6.77975e-08
3.12171e-08
-7.99476e-08
2.28293e-08
-6.61907e-08
4.3034e-09
-3.73231e-08
-1.40602e-08
-2.88344e-08
-2.15148e-08
1.73174e-08
-4.03278e-08
1.00019e-07
-4.61694e-08
-1.2721e-07
-1.33373e-07
-7.34273e-08
-2.37703e-08
-5.58512e-08
-3.35558e-08
-6.32065e-08
-2.42964e-08
-5.64601e-08
-7.50624e-09
-5.20382e-08
2.72632e-08
-3.72169e-08
3.23972e-08
-5.38737e-09
1.24345e-08
4.56788e-08
1.8039e-08
-1.04886e-07
2.47204e-08
6.18522e-08
6.89924e-08
8.38051e-08
7.55082e-08
-3.69152e-08
1.14233e-08
-7.89605e-09
4.27719e-09
-2.84957e-08
3.19088e-08
1.39921e-08
-2.57583e-08
2.25582e-08
-1.80306e-08
1.73095e-08
2.41502e-09
1.92385e-08
-9.78034e-09
-1.35855e-09
1.76689e-08
-9.86001e-09
4.23401e-08
-1.58569e-08
4.15677e-08
-4.8516e-08
8.20758e-08
4.87635e-08
4.24691e-08
-2.30246e-08
-1.40977e-08
-5.11001e-08
-1.69002e-08
-9.42702e-08
-8.40776e-09
-5.68598e-08
-3.71537e-08
-3.39249e-08
-1.8195e-08
-3.62217e-08
-1.91307e-08
-2.78065e-08
-3.64434e-08
-3.46374e-08
-1.06521e-08
-2.92368e-08
-3.59245e-08
1.83783e-08
-4.48901e-08
2.29969e-08
-3.00847e-08
-5.46829e-08
-3.65276e-08
-6.95059e-08
-2.78363e-08
-4.2116e-08
-3.12835e-09
-5.29522e-08
2.20453e-08
-2.60986e-08
4.25084e-08
-3.24474e-09
5.78659e-08
1.54335e-08
3.75415e-08
3.5759e-08
2.3704e-08
-7.60464e-09
9.81439e-09
3.40897e-08
-6.58894e-09
-3.27656e-08
-3.09919e-08
4.53338e-09
-5.14343e-08
-6.18449e-09
-6.24097e-08
3.08226e-09
-5.69801e-08
-1.81043e-08
-7.44397e-08
-9.34736e-09
-8.19858e-08
-8.94161e-10
-5.68338e-08
-2.63504e-08
-4.3656e-08
-9.24961e-09
-1.90521e-08
-1.51991e-08
-1.32438e-08
1.44789e-09
-2.69855e-09
-1.60039e-08
-1.08869e-08
-3.40047e-09
-2.51821e-08
-9.88521e-09
-3.47137e-08
-1.46456e-08
-4.66948e-08
-1.49199e-08
-5.29686e-08
-4.30923e-09
-6.71012e-08
-8.27468e-09
-4.86883e-08
-3.31171e-08
-6.42667e-08
-2.14112e-08
-3.94098e-08
-3.52834e-08
2.82806e-08
-1.21334e-07
-5.30841e-08
1.11715e-07
-4.27598e-08
2.17538e-08
-3.06457e-08
1.09163e-08
-1.70043e-08
-9.45796e-09
-1.48899e-08
-1.61833e-08
-7.79489e-10
-3.54736e-08
-5.93454e-09
-3.47579e-08
-4.24197e-08
-1.01129e-08
-1.47057e-07
-3.08663e-08
-1.23852e-07
-4.47758e-08
-1.19008e-07
-3.80579e-08
-1.38408e-07
-4.8968e-09
-1.16843e-07
-2.90707e-08
-9.31178e-08
2.30917e-09
-8.55132e-08
2.47923e-08
-7.68856e-08
4.59904e-09
-9.33248e-08
3.35259e-08
-1.13455e-07
4.3681e-08
-6.82788e-08
2.49778e-08
-2.71368e-08
3.50555e-08
-3.214e-08
1.65938e-08
6.66165e-09
-3.44143e-08
-1.54447e-07
-7.26954e-09
-7.02438e-09
2.62494e-08
-5.22792e-08
2.71516e-08
-4.61779e-08
-3.17787e-09
2.97891e-08
-8.54437e-08
-1.13134e-07
1.60592e-07
-7.74219e-08
7.78146e-09
-5.116e-08
1.47837e-08
-1.79811e-07
8.61581e-09
-8.35824e-09
7.28117e-08
-4.34736e-08
2.12444e-08
-4.90428e-08
-1.13313e-08
-4.19619e-08
-1.58277e-08
-3.94146e-08
-3.92991e-08
-1.98337e-08
-3.83469e-08
-1.81092e-08
-2.08723e-08
-2.27878e-08
-3.16742e-08
-2.85321e-08
-5.14293e-09
-2.04566e-08
-7.21609e-08
2.28247e-08
-4.69754e-08
1.50945e-08
-4.91825e-08
-4.65781e-08
-7.00301e-08
-4.81565e-08
-8.42548e-08
-2.6602e-08
-5.26867e-08
-8.50523e-08
-6.75431e-08
-1.1665e-08
-1.43091e-08
-5.58227e-08
-2.4309e-09
3.71281e-09
2.39725e-08
9.50327e-09
-2.83045e-08
4.46725e-08
1.64201e-08
-1.03461e-08
-1.04061e-08
-5.60507e-09
-2.16721e-08
1.57995e-08
-2.82433e-08
3.86747e-10
-3.11586e-08
5.9371e-09
-3.57246e-08
-1.35384e-08
-3.10364e-08
-1.38143e-08
-2.71334e-08
-4.74024e-09
-2.8114e-08
-2.59154e-08
-3.76532e-08
-9.55628e-11
-4.26256e-08
-1.02268e-08
-5.34979e-08
1.2755e-08
-4.75114e-08
-2.27069e-08
-5.156e-08
6.48058e-10
-3.94499e-08
-2.14694e-08
-3.69263e-08
-1.6996e-08
-3.60526e-08
-1.57937e-08
-1.13002e-08
-2.90618e-08
1.07425e-08
-2.99278e-08
5.1992e-08
-7.41409e-08
3.67429e-08
-6.53326e-09
-5.96475e-09
7.81378e-09
3.76615e-07
9.82108e-08
-1.17984e-09
-1.10365e-07
6.51144e-08
-4.56714e-08
8.10787e-08
-5.20949e-09
8.5654e-08
-1.43197e-08
6.8927e-08
1.58791e-09
3.22626e-08
1.58078e-09
4.19517e-09
-6.75897e-09
1.85054e-08
-2.42949e-08
-1.77464e-07
-3.47723e-08
-4.70628e-08
2.4557e-08
-8.46277e-08
-9.73416e-10
-8.59296e-08
-3.59517e-09
-9.10632e-08
-2.36956e-08
-8.34126e-08
-5.3417e-09
-4.98968e-08
-9.48583e-09
-9.19448e-08
4.66468e-08
-6.89131e-08
1.15497e-08
-3.92684e-08
1.34531e-08
-6.7354e-08
5.28082e-08
-5.50173e-08
2.30761e-08
-4.99546e-08
1.15309e-08
-8.44927e-08
6.34441e-10
-1.16269e-07
2.45796e-08
-8.93328e-08
-1.60516e-09
-9.39502e-08
3.18163e-08
-1.48494e-07
5.13654e-08
2.5775e-07
1.09312e-07
-2.91817e-07
-9.13252e-08
-9.50494e-08
1.10881e-08
-1.12861e-07
3.37466e-08
-1.32705e-07
2.8373e-08
-6.17901e-08
1.16092e-09
-3.76462e-08
-2.89966e-09
-3.54211e-08
-1.36949e-08
-2.64178e-08
-2.48312e-08
-2.47609e-08
-4.10595e-08
-1.52581e-08
-4.82449e-08
-1.15323e-08
-2.43243e-08
-8.33392e-09
-3.51918e-08
-6.83998e-09
-6.66934e-09
-1.36361e-08
-8.29478e-08
4.64513e-08
-4.49709e-08
-7.2642e-09
-5.4271e-08
-3.32707e-08
-7.37119e-08
-2.73295e-08
-6.98051e-08
-3.05088e-08
-1.11822e-07
-4.27618e-08
-7.89218e-08
-4.40033e-08
-8.4306e-08
-5.12436e-08
-4.56876e-08
-3.40916e-08
1.85668e-08
-5.47511e-08
-1.19789e-07
-1.71993e-08
5.01876e-08
1.96386e-08
-4.75866e-09
4.98498e-08
-1.28149e-08
2.38557e-08
-1.21284e-08
-1.76013e-10
-4.39049e-09
-1.78273e-09
-1.3908e-08
-4.06566e-09
-5.27927e-09
-2.23891e-08
1.03621e-10
-1.0171e-08
-4.57486e-09
-2.12826e-08
-5.24108e-09
5.64788e-10
6.78687e-09
-2.2097e-08
-1.04788e-08
2.99136e-08
-3.49528e-08
1.78546e-09
-3.39798e-09
-3.02483e-08
6.1425e-09
-3.10727e-08
8.31677e-09
-1.91704e-08
1.0937e-08
-1.83292e-08
1.90424e-08
-3.69842e-08
3.69579e-08
-4.82167e-08
9.31995e-08
-1.3269e-07
-2.0151e-08
1.07496e-07
-3.72888e-08
2.47765e-08
3.21196e-08
2.81807e-08
-5.7348e-08
-2.26091e-08
-7.55045e-08
-2.79858e-08
-8.58619e-08
4.98884e-09
-1.04716e-07
3.30771e-09
-1.11197e-07
8.018e-09
-1.10861e-07
1.24802e-09
-1.07772e-07
-8.68555e-09
-1.28866e-07
-2.10157e-09
-1.66272e-07
2.98798e-09
-1.20631e-07
-2.08344e-08
-1.13174e-07
-8.51728e-09
-1.13012e-07
-2.60458e-09
-1.11972e-07
-2.49882e-08
-1.00254e-07
-1.82024e-08
-1.4876e-08
-9.58416e-08
-9.76761e-08
1.26682e-07
-9.72074e-08
1.20826e-08
1.15863e-08
-9.53218e-08
-6.3977e-08
1.27192e-07
-7.08926e-08
2.99914e-08
-5.86732e-08
-6.88737e-10
-8.13371e-08
2.32981e-08
-7.3582e-08
1.7251e-08
-8.55993e-08
9.53859e-09
-9.37149e-08
3.99317e-08
-7.40376e-08
3.15665e-08
-2.07708e-08
5.60451e-08
-1.25671e-07
1.25051e-08
-1.08928e-07
-5.5983e-09
-8.34331e-08
9.36329e-09
-6.34076e-08
9.28366e-09
-5.80671e-08
-4.1797e-09
-3.8711e-08
-2.28779e-08
-3.53651e-08
-1.7041e-08
-2.93822e-08
-3.07678e-08
-3.47455e-08
-3.60604e-08
-3.72052e-08
-4.56474e-08
-3.45735e-08
-2.69556e-08
-2.98367e-08
-4.02866e-08
-3.18948e-08
-4.56493e-09
-5.33037e-09
-4.09158e-08
4.07765e-08
-9.08406e-09
-3.16542e-08
-5.34235e-08
1.35943e-08
-7.13223e-08
-8.35164e-09
-6.64485e-08
-3.57454e-08
-7.65822e-08
-3.18468e-08
-6.7068e-08
-5.39619e-08
-6.65166e-08
-5.18005e-08
-7.33535e-08
-2.72547e-08
-7.8518e-08
-5.03795e-08
-9.43349e-08
-1.38229e-09
-4.54346e-08
-2.9425e-08
-2.10635e-08
2.54787e-08
-3.16843e-10
3.29047e-09
-9.736e-09
9.34249e-09
-1.38062e-11
-1.14077e-08
-4.37228e-09
2.8973e-10
1.19392e-08
-3.87006e-08
2.40669e-08
-2.24024e-08
2.73518e-08
-2.48466e-08
2.17399e-08
6.17094e-09
-7.84476e-10
6.62569e-10
9.93662e-08
-6.92234e-08
-3.76513e-08
-6.35046e-08
9.21382e-08
3.82845e-08
2.99416e-08
3.20638e-08
2.66475e-08
-1.60719e-08
2.35794e-08
-1.55019e-08
1.30344e-09
-1.47085e-08
-6.82822e-08
1.96979e-08
2.99216e-07
1.1081e-07
-1.07408e-07
-9.07746e-08
-5.73594e-08
-2.57827e-08
-3.46477e-08
4.88373e-09
-4.94118e-08
-7.84518e-09
-6.10763e-08
-1.62013e-08
-5.34014e-08
-2.68628e-09
-4.15716e-08
-8.46964e-09
-3.33551e-08
-2.80485e-10
-3.3546e-08
1.76814e-09
-2.50036e-08
-1.73153e-08
-6.12401e-08
3.38796e-08
-6.40898e-08
5.83736e-09
-9.01304e-08
4.28658e-09
-1.07757e-07
9.10907e-09
-1.16992e-07
6.53613e-09
-1.51491e-07
9.25253e-09
-2.00247e-07
3.0056e-08
1.7116e-07
1.37054e-07
-2.06334e-07
-9.1379e-08
-2.09919e-07
1.11835e-08
1.94382e-07
1.04536e-07
-1.70104e-07
-1.04112e-07
-1.0488e-07
-3.69682e-08
-1.02777e-07
-2.82154e-09
-8.60648e-08
5.70805e-09
-8.31264e-08
1.43124e-08
-7.63927e-08
3.65268e-09
-7.95586e-08
4.30622e-08
-6.42942e-08
1.63019e-08
-3.84183e-08
2.86491e-08
-3.20111e-08
6.42418e-09
-4.18578e-08
4.30474e-09
-3.23958e-08
-5.25857e-10
-2.64324e-08
3.32013e-09
-3.03433e-08
-3.1154e-10
-3.48525e-08
-1.85581e-08
-4.72171e-08
-4.6765e-09
-5.77498e-08
-2.08244e-08
-6.20849e-08
-3.2097e-08
-6.38457e-08
-4.3699e-08
-5.48656e-08
-3.63054e-08
-6.23523e-08
-3.24946e-08
-4.80473e-08
-1.86811e-08
1.80019e-09
-5.01877e-08
4.49677e-08
2.40869e-08
-9.52554e-08
-3.89698e-08
7.73391e-08
-7.57116e-08
3.02701e-08
-5.7668e-08
-5.3789e-08
-4.85032e-08
-4.11797e-08
-3.59229e-08
-6.70927e-08
-5.2728e-08
-3.5356e-08
-6.02087e-08
-1.94378e-08
-4.27761e-08
-6.7134e-08
4.36045e-09
-4.85049e-08
1.62511e-08
-4.13156e-08
4.94778e-08
-8.34684e-09
8.09625e-08
-2.81942e-08
6.96009e-08
2.06097e-08
6.62858e-08
-8.87718e-09
7.24118e-08
-5.11526e-09
7.50514e-08
-4.06015e-08
8.0546e-08
-2.81846e-08
6.74704e-08
-1.18923e-08
1.21024e-07
-4.485e-08
-5.13011e-08
-3.08183e-08
8.13967e-08
-8.17327e-11
-3.10359e-08
4.95825e-08
-5.22092e-09
1.31765e-08
7.12209e-09
1.99239e-08
-5.84099e-09
-3.14106e-09
-1.35632e-08
-7.85998e-09
-3.00646e-08
1.34975e-09
-3.07235e-08
2.03566e-08
3.00169e-08
4.81216e-08
-6.1535e-08
1.49348e-10
-9.43744e-08
6.79077e-09
-8.43143e-08
-4.21386e-09
-8.47888e-08
-8.2358e-09
-7.93647e-08
-2.16257e-08
-7.15342e-08
-8.97752e-09
-6.75576e-08
-1.25735e-08
-6.11489e-08
-7.37866e-09
-6.06853e-08
6.85206e-10
-6.98615e-08
-8.31776e-09
-7.62827e-08
4.05991e-08
-6.69694e-08
-3.44114e-09
-8.33006e-08
2.06175e-08
-8.41165e-08
9.83187e-09
-8.92392e-08
1.16586e-08
-1.05341e-07
2.52599e-08
-1.00208e-07
2.49227e-08
-1.2517e-08
4.79647e-08
-1.09034e-07
5.31836e-09
-8.61701e-08
-1.25514e-08
-1.27518e-08
2.91514e-08
-8.85464e-08
-2.92494e-08
-7.35077e-08
-5.33008e-08
-1.09048e-07
3.2718e-08
-8.70538e-08
-1.51735e-08
-7.24961e-08
-3.9145e-10
-7.0066e-08
1.93711e-09
-4.39654e-08
1.69614e-08
-3.55195e-08
7.93582e-09
-1.80037e-08
1.11331e-08
-1.83429e-08
6.51299e-09
-1.9475e-08
5.48066e-09
-2.82002e-08
8.19919e-09
-2.798e-08
3.09977e-09
-4.80575e-08
1.92756e-08
-5.38016e-08
-1.29476e-08
-7.08149e-08
1.28855e-08
-7.50942e-08
-1.65451e-08
-8.85113e-08
-1.9454e-08
-1.2173e-07
-1.18565e-08
-1.27246e-07
-3.14958e-08
-1.4854e-07
-8.44338e-09
-1.45112e-07
-2.10109e-08
-7.44992e-09
-7.23294e-08
4.21922e-08
2.23813e-07
9.40698e-08
-5.95677e-08
-8.11824e-08
-2.5486e-08
-1.38082e-09
-5.42246e-08
-2.50459e-08
1.34105e-09
-9.57781e-08
6.70781e-09
-7.16464e-08
4.40006e-08
-7.26487e-08
2.00477e-09
-1.76077e-07
1.24535e-09
-6.70651e-08
1.53365e-09
-4.92782e-08
-8.62296e-10
-3.93254e-08
1.3724e-09
-1.06906e-08
8.49167e-10
-2.82555e-08
7.05411e-08
-4.90822e-08
-9.76936e-08
-3.938e-08
5.03399e-08
4.47417e-08
3.43553e-10
9.91185e-09
-8.45268e-09
-1.94755e-08
-8.5475e-09
-1.1591e-08
-9.69998e-09
-4.35114e-08
-8.87624e-08
4.97628e-08
2.75405e-08
-1.19699e-07
-6.08444e-08
1.39162e-07
-5.62641e-08
8.10486e-09
-6.26625e-08
2.56763e-08
-8.04167e-08
1.42828e-08
-9.40762e-08
5.65854e-09
-1.18424e-07
2.6667e-08
-9.55295e-08
-1.53756e-09
-8.67991e-08
3.9391e-08
-7.05093e-08
-1.59777e-08
-1.02522e-07
3.87341e-08
-7.28632e-08
-3.35308e-08
-9.58032e-08
1.4704e-08
-1.16163e-07
-1.0564e-09
-1.08709e-07
-1.75405e-08
-1.11906e-07
-9.50589e-09
-9.47556e-08
-2.33881e-08
-7.76368e-08
-1.64338e-08
-1.00576e-07
1.57316e-08
-6.144e-08
2.06291e-09
-1.06125e-07
4.10375e-08
-7.14816e-08
-1.51086e-08
-5.65214e-08
-5.12859e-09
-5.10378e-08
6.17465e-09
-4.087e-08
1.50919e-08
-3.70267e-08
2.08663e-08
-1.32378e-08
2.41755e-08
-5.49396e-08
4.70199e-08
-7.48321e-08
7.28716e-09
-4.62729e-08
2.94493e-10
-3.41682e-08
-4.17028e-08
-6.69107e-08
-2.05586e-08
-3.3073e-08
-7.71071e-10
-5.83859e-08
1.01392e-08
-6.02354e-08
1.45785e-09
-6.33222e-08
5.02361e-09
-5.37805e-08
7.59259e-09
-4.89889e-08
3.14394e-09
-4.47618e-08
7.40051e-09
-3.22077e-08
-6.04123e-09
-3.77971e-08
1.07413e-08
-2.54427e-08
-4.15533e-09
-3.91501e-08
1.68071e-08
-6.12726e-08
4.03612e-08
-1.15104e-07
4.10175e-08
-8.78859e-08
-1.31587e-08
-7.98358e-08
-2.54098e-08
-1.11747e-07
1.11904e-08
-1.23699e-07
-1.18055e-09
-1.73129e-07
1.77477e-08
-1.73085e-07
-6.68321e-09
-2.06021e-07
1.36331e-08
-5.81728e-09
-5.60621e-08
3.63622e-08
1.63802e-08
3.06169e-08
-9.49362e-09
-5.47618e-08
7.49204e-10
-1.12362e-08
-6.69165e-09
-1.75367e-08
-4.25407e-08
-6.10835e-08
6.5705e-08
-1.80322e-07
-4.14112e-08
-1.62007e-07
1.76882e-08
-3.76135e-08
-3.56264e-08
-1.46177e-08
-5.91915e-08
-2.6221e-08
-8.2605e-08
-1.63173e-08
-9.49382e-08
6.64184e-10
-9.54778e-08
-2.67374e-08
-1.76598e-07
3.10266e-08
-1.83597e-07
-3.23818e-08
-8.1464e-08
-5.50614e-08
-8.0535e-08
8.98285e-09
-9.94721e-08
6.74993e-10
-9.4616e-08
-1.633e-08
-1.07721e-07
-3.13718e-08
-2.17723e-07
-4.41313e-08
2.34216e-07
4.19338e-08
-3.1041e-07
-1.32329e-07
-1.35993e-07
3.89098e-08
-1.24086e-07
1.59965e-08
-1.13306e-07
3.35845e-09
-9.13146e-08
-1.75463e-08
-8.84064e-08
2.32493e-08
2.75983e-10
-9.02201e-08
-7.77915e-08
1.18252e-07
-7.65474e-08
-1.73977e-08
-5.25295e-08
1.44709e-08
-7.07006e-08
-1.53599e-08
-7.2574e-08
1.49628e-08
-6.80375e-08
-5.59311e-09
-6.68522e-08
-1.8032e-08
-7.93617e-08
3.1004e-09
-8.29873e-08
-1.97628e-08
-9.02162e-08
-9.20521e-09
-9.20937e-08
1.85484e-08
-4.85976e-08
-4.19034e-08
-1.88654e-07
-2.10067e-08
-2.94898e-08
2.7613e-08
-5.09974e-08
1.63788e-08
-5.03097e-08
5.48666e-09
-4.62206e-08
1.1474e-08
-3.49912e-08
9.63672e-09
-4.55094e-09
-6.622e-09
2.7026e-08
1.57183e-08
-1.76621e-07
9.00419e-09
2.45958e-08
8.40827e-10
-2.62765e-08
9.16929e-09
-6.54397e-08
1.88141e-08
-5.62759e-08
-9.93509e-09
-4.77545e-08
1.61753e-09
-5.21288e-08
5.83195e-09
-4.23567e-08
-4.74873e-09
-4.03059e-08
5.48556e-09
-3.28101e-08
-4.01726e-09
-2.98168e-08
4.36295e-09
-1.45753e-08
-2.18719e-08
-1.69584e-08
1.31243e-08
-1.17231e-08
-9.48749e-09
4.04943e-11
5.04295e-09
6.6888e-08
-2.62216e-08
-8.44023e-08
-7.46614e-09
5.86551e-08
4.37453e-08
-8.4639e-09
4.17954e-08
-3.41969e-08
3.68103e-08
-6.8679e-08
3.33047e-08
-1.0425e-07
5.18938e-08
-1.4058e-07
2.8268e-08
-1.50816e-07
2.20676e-08
-1.89069e-08
-5.67608e-08
4.50812e-08
-2.09492e-08
5.89962e-09
-3.45744e-08
-3.83069e-08
-1.89502e-09
-4.32101e-08
4.02818e-08
-5.87038e-08
-1.09722e-07
-1.14916e-07
-6.41719e-08
-2.59756e-08
-7.42074e-08
4.52209e-08
-1.02205e-07
-1.08802e-08
-9.03938e-08
-2.53865e-08
-1.00204e-07
-1.71654e-08
-1.08573e-07
-7.94803e-09
-8.82195e-08
-1.85888e-08
-8.56905e-08
-3.01757e-08
-2.35861e-07
-2.08255e-08
-9.65835e-08
3.10389e-08
-1.14937e-07
-3.67082e-08
-1.21147e-07
1.535e-08
-1.19428e-07
-1.04444e-09
-1.04147e-07
-3.17774e-08
-1.61336e-07
2.60829e-08
-9.33887e-08
8.78828e-08
-7.42688e-08
2.19582e-08
-2.46937e-07
4.16892e-08
-1.48015e-07
-5.83051e-08
-1.14689e-07
-1.73295e-08
-1.00797e-07
-1.1551e-08
-2.83468e-08
-9.15764e-08
-1.47657e-07
1.41134e-07
2.23263e-07
1.35852e-07
-1.50414e-07
-1.09491e-07
-1.54311e-07
-1.36802e-08
-1.09833e-07
-2.87256e-08
-1.19273e-07
-4.86008e-09
-6.32505e-08
-4.10598e-08
-8.98964e-08
2.04643e-08
-8.32416e-08
-2.46869e-08
-6.72216e-08
-1.29198e-08
-7.19921e-08
-1.49926e-08
-6.91608e-08
-1.20367e-08
-5.05425e-08
-7.01703e-11
-7.2496e-08
-2.03777e-08
-1.06318e-07
1.3029e-08
-6.68574e-08
-1.18475e-08
-5.38012e-08
3.35669e-09
-5.69975e-08
8.68264e-09
-5.49449e-08
9.42122e-09
-4.85639e-08
3.35377e-09
-4.2594e-08
-1.27219e-08
-4.54325e-09
-2.2379e-08
-2.0476e-07
7.10559e-09
-3.10126e-09
1.23207e-09
-4.21739e-08
4.77545e-08
-4.3728e-08
2.05779e-08
-5.7267e-08
3.60365e-09
-5.2011e-08
-3.63866e-09
-4.66768e-08
4.97556e-10
-3.91574e-08
-1.18689e-08
-3.51938e-08
1.52169e-09
-3.70941e-08
-2.09771e-09
-2.57535e-08
-7.122e-09
-5.84702e-08
1.05792e-08
-3.88862e-08
-6.26012e-09
-4.86481e-08
2.71562e-10
-4.19735e-08
-7.07255e-10
-4.49119e-08
-2.40016e-08
-8.98672e-08
3.70262e-08
-4.02347e-08
-4.97044e-09
-3.6217e-08
3.73961e-08
-3.64154e-08
3.66389e-08
-3.98602e-08
3.63749e-08
-1.44123e-08
2.65821e-08
-2.01986e-08
3.34257e-08
-1.67769e-08
1.82351e-08
5.32973e-08
-1.02515e-07
1.00824e-07
-6.05921e-08
-1.63222e-08
-3.08736e-08
-6.48013e-08
-7.56662e-08
3.33323e-09
-4.04103e-08
-9.43677e-08
-1.11324e-07
-4.27933e-08
-1.12723e-07
-2.36825e-08
-7.67826e-08
8.95828e-09
-9.02884e-08
2.70987e-09
-9.30093e-08
-2.17445e-08
-9.07952e-08
-1.93794e-08
-8.70053e-08
-1.16568e-08
-6.94559e-08
-3.72266e-08
-1.11572e-07
1.19399e-08
-1.41973e-07
1.09262e-08
-1.04332e-07
-6.60183e-09
-1.29931e-07
-1.25626e-08
-1.33071e-07
1.84896e-08
-1.3117e-07
-1.58783e-09
-1.62603e-07
-2.00318e-09
-1.65802e-07
2.92814e-08
-7.81264e-08
1.89882e-09
-5.73195e-08
1.15119e-09
-1.98576e-07
-1.48388e-08
-7.25497e-08
1.36107e-08
-1.05019e-07
1.51399e-08
-1.59917e-07
3.97154e-08
2.26949e-07
1.28569e-07
-1.31489e-07
-9.60855e-08
1.16435e-08
-8.60798e-09
-5.76116e-08
-3.97124e-08
-6.35893e-08
-8.12892e-09
-3.61402e-08
-5.56019e-08
-3.58019e-08
-4.82994e-09
-4.72361e-08
-3.00447e-08
-2.28962e-08
-3.87574e-09
-3.34585e-08
-1.42705e-08
-3.05409e-08
-1.58377e-08
-3.84567e-08
-7.07706e-09
-4.32667e-08
-7.15393e-09
-4.14556e-08
-1.88155e-09
-5.95411e-08
-2.29233e-09
-5.357e-08
7.05754e-09
-6.33381e-08
-2.72579e-09
-6.84833e-08
8.50167e-09
-5.89471e-08
-1.55141e-10
-5.13819e-08
1.85571e-09
-3.58564e-08
-1.25377e-08
-6.25773e-08
1.39986e-08
-8.013e-08
-4.1882e-09
-1.05939e-07
3.28419e-08
-8.83606e-08
-1.54452e-08
-6.0327e-08
1.91116e-08
-6.37526e-08
2.33815e-08
-7.05205e-08
1.10217e-08
-7.39195e-08
-2.39851e-10
-7.60471e-08
2.62491e-09
-8.19403e-08
-6.0375e-09
-7.03242e-08
-1.00791e-08
-6.24407e-08
-9.34436e-09
-5.30598e-08
-1.6575e-08
-4.85618e-08
5.43179e-09
-2.90788e-08
-2.54466e-08
-4.36988e-08
1.48888e-08
-3.93678e-08
-5.48421e-09
-5.39833e-08
-9.63098e-09
-3.30508e-08
1.55572e-08
-2.37991e-08
-1.39794e-08
-4.67224e-09
1.83163e-08
9.20412e-09
2.26225e-08
4.27559e-08
2.11718e-09
5.15162e-08
1.75565e-08
7.90224e-08
5.64291e-09
9.05595e-08
7.49581e-09
3.24457e-08
-3.73745e-08
9.62517e-08
-5.86218e-08
1.53215e-08
-4.18534e-08
-7.6642e-08
-1.49771e-07
-8.85649e-08
1.08892e-08
-5.46121e-08
-4.42557e-08
1.23368e-08
-7.08058e-08
2.41146e-09
-5.89837e-08
-1.52422e-09
-4.72186e-08
-9.08251e-09
-4.96862e-08
-1.97587e-08
-5.24365e-08
-1.66291e-08
-4.80102e-08
-1.6573e-08
-7.39348e-08
-1.13019e-08
-9.24165e-08
3.1054e-08
-7.98602e-08
-1.63007e-09
-8.93685e-08
1.99473e-09
-1.02236e-07
3.04729e-10
-7.70913e-08
-5.80056e-09
-7.76217e-08
-1.06844e-09
-8.65401e-08
6.91518e-09
-6.71749e-08
9.52021e-09
-5.55779e-08
-9.69829e-09
-6.46201e-08
1.08525e-08
-8.87437e-08
9.28467e-09
-5.31708e-08
-2.19623e-08
-2.94705e-08
-8.26304e-09
-1.8307e-09
1.21974e-08
9.52967e-08
2.88262e-08
2.91395e-08
-2.96343e-08
4.93184e-08
-2.9378e-08
4.53154e-08
-3.61672e-08
6.00022e-08
-2.29643e-08
7.44598e-08
-6.88923e-08
6.39104e-08
6.61377e-09
5.58295e-08
-2.1964e-08
1.84553e-08
3.36865e-08
-1.13562e-09
5.26591e-09
-4.5375e-09
-1.24245e-08
-6.89496e-09
-4.64951e-09
-4.31777e-10
-1.36174e-08
-9.21955e-10
-1.39603e-09
-2.51028e-09
-7.0426e-10
-2.45143e-09
6.99843e-09
-9.94153e-09
4.71594e-09
-1.89849e-08
1.7458e-08
-1.88874e-08
-2.52904e-10
-1.20483e-08
-4.98357e-09
3.58844e-09
-2.81747e-08
-3.72128e-08
5.41049e-08
-5.88498e-08
1.74485e-08
-4.89005e-08
2.28924e-08
-8.3272e-08
1.8735e-08
-7.36998e-08
9.73409e-09
-6.90624e-08
1.83184e-08
-7.69874e-08
1.87552e-08
-7.73751e-08
1.47636e-10
-8.2386e-08
6.79513e-09
-7.99147e-08
-8.50898e-09
-6.79649e-08
-2.12137e-08
-7.6633e-08
-6.76488e-10
-7.74571e-08
-1.60842e-08
-8.5244e-08
1.32185e-08
-8.54819e-08
-2.54686e-08
-6.89448e-08
-1.48145e-09
-6.01459e-08
-1.42832e-08
-6.64386e-08
-2.66059e-09
-3.51013e-08
-1.56223e-08
-3.56853e-08
-1.37535e-08
-2.36255e-08
6.37823e-09
-2.5745e-08
2.47206e-08
-5.87151e-08
3.64519e-08
-1.57357e-08
-2.52448e-08
4.80177e-09
-1.49968e-08
2.62542e-08
-1.38797e-08
4.65807e-08
-7.43398e-08
1.06196e-07
3.57752e-09
-4.57802e-08
-1.74813e-07
-9.84978e-08
-7.46148e-08
1.36039e-08
-7.92349e-08
-5.07531e-08
4.19442e-08
-1.08716e-07
-2.65256e-08
7.0409e-08
-3.7912e-08
9.86217e-09
-2.2102e-08
-2.53719e-08
-2.41835e-08
-1.76772e-08
-2.35041e-08
-1.73085e-08
-2.72726e-08
-1.28044e-08
-4.50507e-08
6.59153e-09
-3.05299e-08
1.65332e-08
-3.80727e-08
5.91265e-09
-5.0416e-08
1.43381e-08
-7.76132e-08
2.74987e-08
-6.63386e-08
-1.77519e-08
-6.652e-08
-8.87189e-10
-7.86195e-08
2.04953e-08
-5.65001e-08
-1.25994e-08
-5.6146e-08
-1.05216e-08
-4.24112e-08
-2.88243e-09
-2.45382e-08
-8.16011e-09
-1.85507e-08
-2.79499e-08
-6.24844e-09
-2.0839e-08
1.12734e-08
-5.20015e-09
3.40726e-08
5.97329e-09
5.71464e-09
-1.28956e-09
-2.24464e-09
-2.13607e-08
-2.42477e-08
-1.46831e-08
-2.95818e-08
-1.78647e-08
-6.58105e-08
-3.50671e-08
6.01907e-08
-1.19388e-07
-6.73134e-08
1.04312e-07
-4.4244e-08
1.09565e-08
-3.80841e-08
-9.47474e-10
-3.13363e-08
-1.9561e-08
-3.5916e-08
-7.00992e-11
-1.8392e-08
-3.12805e-08
-2.13836e-08
1.6117e-09
-1.37078e-08
-8.38026e-09
-1.33438e-08
6.77027e-09
-1.01626e-08
1.53447e-09
-1.39512e-08
2.09292e-08
-1.22501e-08
-1.93458e-09
-1.07957e-08
-6.37321e-09
6.06046e-08
-1.01226e-07
-7.28506e-09
1.20775e-07
-1.45228e-08
2.46117e-08
-9.22482e-10
9.30127e-09
5.86862e-09
1.19437e-08
1.43467e-08
1.15746e-09
3.04881e-08
1.86894e-09
4.54236e-08
4.12742e-09
4.82984e-08
-2.28732e-09
5.08301e-08
4.22026e-09
4.38732e-08
-1.48056e-09
4.82744e-08
-2.56152e-08
1.04511e-08
3.76373e-08
-2.50323e-08
1.93991e-08
-2.96893e-08
1.78278e-08
-5.25262e-08
-2.09038e-09
-5.07794e-08
-2.69785e-09
-3.51169e-08
-3.04637e-08
-2.75054e-08
-9.99159e-09
-1.19773e-08
-3.13082e-08
-6.80609e-09
-1.89775e-08
7.36747e-09
-7.86974e-09
5.54749e-08
-2.197e-08
-1.16441e-07
4.76925e-09
2.01506e-08
4.06592e-08
-2.53694e-08
3.02162e-08
4.32793e-08
-8.33791e-08
1.29684e-07
-4.63012e-08
1.06231e-07
1.94472e-08
-1.00304e-07
-8.37404e-08
5.3655e-09
-7.76004e-08
7.60266e-09
-1.61941e-07
3.35871e-08
2.74637e-07
5.12653e-08
-1.03256e-07
-1.45524e-07
-2.43157e-08
-7.0031e-08
-3.33076e-08
-1.63799e-08
-2.65647e-08
-2.44202e-08
-2.86077e-08
-1.52656e-08
-1.6926e-08
-2.44861e-08
-2.33231e-08
1.29886e-08
-1.8441e-08
1.1651e-08
-2.68667e-08
1.44861e-08
-3.60627e-08
2.32963e-08
-4.02845e-08
3.17205e-08
-5.76611e-08
-3.75468e-10
-7.44125e-08
1.57129e-08
-3.04034e-08
-2.35139e-08
-3.51118e-08
-7.66139e-09
-2.99952e-08
-1.56383e-08
-1.40163e-08
-1.88324e-08
-1.16811e-09
-2.10084e-08
1.55336e-08
-4.49488e-08
1.77235e-08
-2.30292e-08
3.89039e-08
-2.63807e-08
1.73998e-08
2.79398e-08
-2.87937e-08
4.48904e-08
-9.562e-08
4.52453e-08
-7.91284e-08
-3.11751e-08
-5.44438e-08
-4.22977e-08
-2.80767e-07
-1.06568e-08
3.08686e-07
9.63056e-08
-2.70448e-07
-1.13642e-07
-5.21203e-08
-9.52535e-09
-5.29479e-08
-6.61554e-10
-5.1968e-08
-2.07529e-08
-5.06467e-08
-1.39173e-09
-4.7588e-08
-3.51838e-08
-6.88339e-08
2.28573e-08
-5.42659e-08
-2.24756e-08
-5.11514e-08
3.65557e-09
-4.64069e-08
-2.72122e-09
-4.32958e-08
1.82551e-08
-4.83363e-08
3.1565e-09
-9.03048e-08
3.38531e-08
2.87149e-07
1.23497e-07
-9.27e-08
-9.39348e-08
-4.02406e-08
-2.90904e-08
-1.56431e-08
-1.5142e-08
-5.51245e-09
1.99088e-09