/*--------------------------------*- C++ -*----------------------------------*\
  =========                 |
  \\      /  F ield         | OpenFOAM: The Open Source CFD Toolbox
   \\    /   O peration     | Website:  https://openfoam.org
    \\  /    A nd           | Version:  12
     \\/     M anipulation  |
\*---------------------------------------------------------------------------*/
FoamFile
{
    format      ascii;
    class       surfaceScalarField;
    location    "0.75";
    object      phi.water;
}
// * * * * * * * * * * * * * * * * * * * * * * * * * * * * * * * * * * * * * //

dimensions      [0 3 -1 0 0 0 0];

internalField   nonuniform List<scalar> 
7375
(
-9.63647e-08
6.43466e-08
-1.37521e-07
6.75635e-08
4.0434e-07
9.10077e-08
-4.22275e-08
-1.67861e-07
3.16699e-08
-7.39529e-08
6.00491e-08
-2.87108e-08
8.81471e-08
-2.81303e-08
9.27906e-08
-4.68936e-09
1.20277e-07
-2.74993e-08
1.32125e-07
-1.31997e-08
1.38969e-07
-6.84376e-09
1.42875e-07
-3.93788e-09
1.41963e-07
2.32243e-09
1.47821e-07
-5.82869e-09
1.551e-07
-7.2056e-09
1.44311e-07
1.22956e-08
1.5029e-07
-5.98759e-09
1.26245e-07
2.53947e-08
1.24186e-07
7.49957e-10
1.11281e-07
1.1525e-08
1.12636e-07
-1.34661e-09
1.26628e-07
-1.38508e-08
1.51003e-07
-2.43725e-08
2.0099e-07
-4.99745e-08
1.48437e-08
-1.35829e-08
2.03785e-07
1.0966e-08
1.6761e-07
3.44543e-08
1.73701e-07
-7.76617e-09
2.44723e-07
-6.92673e-08
1.21658e-07
1.25556e-07
1.32187e-07
-1.06142e-08
1.61638e-07
-2.94601e-08
1.76002e-07
-1.63466e-08
1.70077e-07
4.20802e-09
1.79452e-07
-7.581e-09
1.90119e-07
-8.83179e-09
1.89683e-07
-1.48002e-09
1.98867e-07
-9.09187e-09
2.02073e-07
-3.27584e-09
2.15026e-07
-1.0891e-08
2.1705e-07
2.43929e-09
2.16493e-07
-1.72963e-09
2.04296e-07
9.9888e-09
2.05401e-07
-1.0972e-09
2.04678e-07
7.08815e-10
2.06123e-07
-1.43657e-09
1.9726e-07
1.07597e-08
1.56346e-07
4.053e-08
1.53682e-07
2.6587e-09
1.09438e-07
4.26943e-08
1.1602e-07
-6.51675e-09
1.13474e-07
3.74316e-09
1.07668e-07
4.64528e-09
1.17348e-07
-9.76975e-09
1.26983e-07
-9.51731e-09
1.35158e-07
-8.17766e-09
1.53751e-07
-1.68497e-08
1.61702e-07
-7.84576e-09
2.15483e-07
-5.10143e-08
2.25482e-08
-1.11403e-08
2.1845e-07
1.34727e-09
1.82636e-07
3.61796e-08
1.68146e-07
1.6357e-08
1.85943e-07
-1.57464e-08
1.5074e-07
3.52057e-08
1.61716e-07
-1.08787e-08
2.01003e-07
-3.96467e-08
2.03408e-08
-2.19428e-08
2.2657e-07
-8.37194e-09
1.84378e-07
4.45135e-08
2.00135e-07
-1.56023e-08
1.87875e-07
1.03491e-08
1.96327e-07
-8.36754e-09
1.64736e-07
3.35966e-08
7.34452e-09
-6.09765e-09
4.20734e-08
-1.68609e-08
8.17654e-08
1.22374e-07
-4.9754e-08
3.51431e-08
-8.18908e-08
1.94197e-08
-5.78332e-08
2.48537e-08
-3.41442e-08
2.52129e-08
-2.82319e-08
4.27123e-08
-2.21884e-08
6.19446e-08
-4.76531e-08
9.51877e-08
-4.59733e-08
1.15435e-07
-2.71599e-08
1.06721e-07
3.6879e-09
1.33531e-07
-2.5813e-08
1.26136e-07
2.94474e-09
1.29136e-07
-1.03089e-08
1.5019e-07
-7.44013e-09
1.37107e-07
8.6433e-09
1.43614e-07
1.72308e-08
1.39674e-07
3.29081e-09
1.3154e-07
1.94629e-08
1.28165e-07
2.06411e-09
1.27172e-07
-1.28576e-08
1.16686e-07
-1.28506e-08
8.95536e-08
-2.37558e-08
7.41855e-08
1.78553e-09
8.79981e-08
-2.06832e-09
1.00559e-07
2.06567e-08
6.49891e-08
2.7726e-08
4.97831e-07
9.77315e-08
-2.94416e-08
-1.4583e-07
1.48077e-07
1.37481e-08
1.14287e-07
3.98544e-09
1.0088e-07
-2.97087e-09
1.0811e-07
-5.11036e-09
1.21769e-07
-2.11044e-08
1.2472e-07
-1.18127e-08
1.29468e-07
-7.61209e-09
1.24707e-07
-1.85655e-09
1.20148e-07
3.80673e-09
1.23421e-07
-1.56765e-08
1.53051e-07
-2.719e-08
1.83825e-07
-3.24868e-08
1.69548e-07
2.08743e-08
2.12857e-07
-4.65562e-08
2.49228e-07
-3.56693e-08
2.8481e-07
-3.73778e-08
2.98647e-07
-3.21733e-09
3.24783e-07
2.02802e-08
2.71316e-07
5.72666e-08
2.78956e-07
3.1565e-08
2.31449e-07
4.33271e-08
2.27921e-07
7.23252e-09
1.9254e-07
4.1991e-08
1.41814e-07
3.99054e-08
1.56991e-07
-2.63926e-08
1.86197e-07
-3.76814e-08
1.95642e-07
-2.82705e-08
1.97743e-07
-7.81361e-09
1.71348e-07
-2.12877e-08
1.5189e-07
8.45996e-09
1.61806e-07
-8.55522e-09
1.79354e-07
1.90046e-08
1.90971e-07
9.62303e-10
2.6868e-07
-9.34559e-08
1.53694e-07
1.51033e-07
9.80961e-08
4.66725e-08
7.67343e-08
-1.62946e-08
5.69146e-08
-2.32951e-09
6.59341e-08
-1.88452e-08
1.10539e-07
-1.87291e-09
1.07983e-07
-1.30457e-08
1.0687e-07
1.1473e-08
1.04135e-07
-5.7182e-09
1.26696e-07
1.32555e-08
8.47167e-09
-8.91019e-08
6.85801e-08
-1.6487e-08
1.68572e-08
-1.45176e-08
-5.01657e-08
-2.97616e-08
-6.53667e-08
-3.12914e-08
-5.6303e-08
-2.0138e-08
-4.52972e-08
-3.37193e-08
-1.46502e-08
-3.61753e-08
-2.00795e-08
-4.56499e-08
-3.85012e-08
2.57345e-08
-1.19306e-07
-8.00292e-08
7.88668e-08
-1.11578e-07
3.48809e-08
-9.24424e-08
-4.42678e-08
-7.85202e-08
-1.10589e-08
-6.98326e-08
-2.07209e-08
-5.71461e-08
-2.02028e-08
-3.90591e-08
-8.94837e-09
-2.28391e-08
7.78278e-10
-1.67376e-08
-2.63761e-09
-5.20376e-09
8.29513e-09
-3.88993e-09
6.90595e-10
-1.43575e-08
-2.84266e-09
-2.85296e-08
1.32189e-09
-4.16456e-08
-9.95567e-09
-3.69307e-08
-2.53404e-09
-2.73577e-08
-1.13647e-08
-1.14451e-08
4.46799e-09
1.65103e-08
-6.24139e-11
1.01272e-07
1.19363e-08
-1.50591e-08
-2.93457e-08
1.79587e-08
-1.97601e-08
4.51793e-08
-2.28239e-08
4.33885e-08
-1.13769e-09
5.58055e-08
-1.85393e-08
3.64976e-08
-2.00961e-09
2.76279e-08
-2.28892e-09
2.00895e-08
-1.52342e-10
1.07806e-08
7.3029e-09
1.09653e-08
3.69487e-09
1.98348e-08
-2.41801e-08
3.03334e-08
-3.78933e-08
9.96584e-08
-1.00773e-07
8.5118e-08
-1.64908e-07
1.25553e-07
-9.0539e-08
1.37635e-07
-4.86032e-08
1.39296e-07
-3.80157e-08
1.54557e-07
-1.85111e-08
1.52685e-07
2.41624e-08
1.68169e-07
3.94591e-08
1.6891e-07
2.80215e-08
1.64291e-07
4.9652e-08
1.37692e-07
3.55079e-08
1.97571e-07
-1.60362e-08
4.91073e-08
-1.35586e-08
1.5589e-07
6.73747e-08
6.68421e-08
4.92735e-08
5.38097e-08
-1.60755e-08
3.83752e-08
8.31711e-09
2.47467e-08
-7.51718e-09
2.86272e-08
4.327e-09
2.11025e-08
-7.35521e-10
1.78636e-08
2.18343e-08
-3.42591e-08
5.3085e-08
3.47812e-07
1.19856e-07
3.17641e-08
-1.26104e-07
-8.28916e-08
-4.24676e-08
5.40709e-08
4.85618e-08
1.40672e-08
3.78652e-08
2.00997e-08
-2.48907e-08
1.53842e-08
2.63965e-09
3.03959e-09
-6.70467e-10
2.03206e-08
-5.8084e-09
2.50704e-08
-1.07828e-08
3.39931e-08
3.98919e-09
2.12326e-10
-3.45518e-08
5.7085e-08
-4.09657e-08
3.28603e-08
-5.24574e-08
-3.4096e-08
-3.96319e-08
-7.76566e-08
-5.84982e-08
-3.78222e-08
-7.03792e-08
-3.34158e-08
-8.51092e-08
-7.8801e-10
-1.23569e-07
1.56717e-08
-2.13074e-07
4.7757e-08
1.63144e-07
1.20052e-07
-2.30297e-07
-1.28556e-07
-1.69872e-07
-2.55428e-08
-1.64496e-07
-5.36017e-08
-1.5614e-07
-2.11381e-08
-1.45354e-07
-2.98963e-08
-1.48309e-07
-1.55591e-08
-1.32849e-07
-2.44074e-08
-1.03701e-07
-2.8083e-08
-9.2926e-08
-1.3523e-08
-6.3585e-08
-2.01069e-08
-5.39803e-08
-9.45886e-09
-5.05957e-08
-6.7831e-09
-4.15105e-08
-6.85024e-09
-4.02908e-08
-1.1175e-08
-3.59335e-08
-7.30203e-09
-3.8086e-08
-9.32788e-09
-3.04514e-08
-2.81015e-09
-2.51913e-08
-5.32225e-09
-2.00525e-08
6.54067e-09
-4.28007e-08
-7.40898e-09
-5.35194e-08
-9.79663e-09
-4.25119e-08
-3.28415e-08
-5.11966e-08
7.98785e-09
-4.73293e-08
-2.2929e-08
-6.78987e-08
1.89254e-08
-6.86418e-08
-1.5459e-09
-7.55416e-08
5.97827e-09
-6.18319e-08
-6.34159e-09
-3.5445e-08
-2.22887e-08
-1.96516e-08
-3.9727e-08
7.40773e-09
-6.45662e-08
-3.45987e-08
-5.7824e-08
2.2361e-08
-2.22597e-08
-4.87564e-08
-1.96939e-08
-6.00364e-08
-3.73217e-08
-6.24444e-08
-3.49953e-08
-6.45388e-08
-1.70752e-08
-5.30781e-08
1.27016e-08
-3.1407e-08
1.77879e-08
-2.26444e-08
1.95477e-08
-5.26242e-09
3.30075e-08
1.64557e-08
1.41015e-08
-1.54098e-08
1.5994e-08
-6.86695e-08
4.02862e-08
-3.08878e-09
1.14471e-09
2.58003e-08
2.01497e-08
4.67127e-09
5.3715e-09
1.87949e-09
1.10807e-08
-1.27244e-08
7.18358e-09
-2.8544e-08
2.01912e-08
-2.40465e-08
-4.93429e-09
-2.39096e-08
2.1921e-08
-3.76039e-09
3.29357e-08
8.29674e-08
3.31277e-08
-2.14293e-08
-2.32313e-08
-9.00897e-08
2.70591e-08
-4.81975e-08
6.66951e-09
-2.74028e-08
1.6898e-08
-6.25282e-08
1.04887e-08
-3.63545e-08
-2.31363e-08
-3.17696e-08
-5.20302e-09
-3.52317e-08
-2.67074e-09
-2.67271e-08
-1.90933e-08
-2.10231e-08
-1.69167e-09
-1.07212e-08
-7.72501e-09
2.88803e-09
-7.62812e-08
1.15322e-07
-3.64154e-08
-6.72269e-08
-2.41612e-08
-8.97854e-08
-2.06e-08
-4.1383e-08
-5.30763e-09
-4.80079e-08
1.9256e-08
-2.5811e-08
3.60262e-08
-1.62026e-09
6.20914e-08
2.10915e-08
1.35453e-07
4.4874e-08
5.119e-08
-4.47487e-08
1.51009e-08
1.04401e-08
-9.78269e-09
-2.87176e-08
-3.13613e-08
7.56453e-10
-4.97333e-08
-1.12187e-08
-5.88261e-08
-6.46591e-09
-5.65902e-08
-2.60654e-08
-6.74489e-08
-1.79049e-08
-6.75019e-08
-1.33316e-08
-4.84339e-08
-3.84927e-08
-3.56854e-08
-2.27976e-08
-9.47732e-09
-3.32608e-08
-6.79554e-09
-9.53162e-09
-4.77078e-09
-1.33134e-08
-1.54965e-08
3.4593e-09
-3.06284e-08
5.80437e-09
-4.09931e-08
7.55475e-09
-5.42954e-08
7.92601e-09
-6.54646e-08
1.70422e-08
-9.47798e-08
2.19064e-08
-9.57075e-08
-7.802e-09
-4.63815e-08
-8.18324e-08
-4.97259e-08
1.12984e-08
-1.00299e-07
2.58617e-08
-5.75994e-08
-2.35295e-08
-2.64126e-08
-3.12389e-08
-1.84729e-08
-1.75517e-09
-6.57648e-09
-1.80582e-08
-6.49958e-09
-2.22047e-08
-5.40811e-09
-4.07523e-08
-2.63123e-08
-4.29555e-08
-7.15534e-08
-1.33057e-08
-6.65249e-08
-2.85495e-08
-9.45138e-08
9.08176e-09
-1.04942e-07
-2.65126e-08
-1.27513e-07
-1.2425e-08
-1.17391e-07
-2.71972e-08
-1.02001e-07
-3.85848e-09
-8.42354e-08
2.22138e-11
-5.28582e-08
-1.12848e-08
-7.09646e-08
5.03899e-08
-9.87626e-08
4.08815e-08
-8.32892e-08
2.23224e-09
-6.16442e-08
1.94823e-08
-6.72401e-08
6.80941e-09
-4.31776e-08
-4.14534e-09
-6.62365e-08
2.83756e-08
-4.9426e-08
-5.55999e-09
-5.95538e-08
1.68019e-08
-7.07983e-08
3.18372e-08
-1.14446e-07
3.75458e-08
-1.03578e-07
1.10532e-08
-6.46207e-08
-4.96511e-09
-4.31642e-08
1.12307e-08
-8.184e-08
1.52868e-08
-8.61722e-08
3.22262e-08
-7.10666e-08
-7.63332e-09
-4.54682e-08
-8.70041e-09
-2.47588e-08
-1.05768e-08
-2.62223e-08
-2.14053e-08
-1.47567e-08
-1.68919e-08
-1.4487e-08
-2.94359e-09
-2.08362e-08
-1.28258e-08
-2.55727e-08
2.82993e-09
-8.77918e-09
6.34476e-08
-1.4667e-07
-1.77785e-07
-4.04381e-07
-6.22895e-08
-1.63409e-07
-4.24245e-08
-1.09015e-07
-6.89105e-08
-1.37713e-08
-5.17248e-08
-6.57156e-08
-6.52449e-08
-1.26927e-08
-2.03344e-08
-4.58813e-08
1.62734e-09
-6.54625e-10
5.09652e-08
-3.9036e-09
1.63756e-08
-1.01586e-08
1.38731e-08
1.2776e-08
-1.73075e-08
2.75655e-09
-2.14451e-08
4.89457e-09
-2.62147e-08
-6.44871e-09
-3.01786e-08
-2.47625e-09
-3.43736e-08
-2.18699e-08
-2.91055e-08
-2.30583e-08
-2.31107e-08
-1.89994e-08
-2.6459e-08
-3.57724e-08
-3.06343e-08
-1.91295e-08
-3.14893e-08
-3.24054e-08
-3.36666e-08
-7.03268e-09
-3.40921e-08
-1.33718e-08
-5.13936e-08
2.07612e-08
-4.68144e-08
1.74979e-09
-4.39544e-08
4.64755e-09
-3.8532e-08
2.50388e-09
-2.05076e-08
-9.8209e-10
-3.49258e-08
3.57366e-08
-8.68424e-08
4.36693e-08
1.49992e-07
2.76863e-07
1.55285e-07
7.65025e-09
1.34413e-08
-3.28547e-08
1.52562e-07
3.40907e-08
1.05632e-07
1.63305e-08
9.45193e-08
9.46914e-09
8.60215e-08
-9.75556e-09
6.0592e-08
4.36167e-09
1.84132e-08
1.87573e-09
-2.98654e-08
5.37723e-09
-4.88256e-08
4.71578e-09
-7.87904e-08
2.52147e-09
-6.28517e-08
-6.06142e-09
-7.79588e-08
-1.20468e-08
-8.50487e-08
-5.33529e-09
-9.32893e-08
-1.87653e-08
-1.01935e-07
4.78743e-09
-7.73069e-08
-2.53952e-08
-9.41682e-09
-7.99994e-08
-7.29324e-08
1.14001e-07
-5.20071e-08
1.93418e-08
-7.49612e-08
2.51635e-08
-6.21732e-08
6.89297e-09
-6.59515e-08
1.05877e-08
-7.51265e-08
5.75378e-09
-8.09041e-08
3.38667e-08
-7.69803e-08
-1.03659e-08
-7.07929e-08
1.05508e-08
-3.76316e-08
-1.32407e-09
-1.78611e-07
-2.16568e-08
-3.09381e-08
6.32286e-08
-6.45968e-08
2.89892e-08
-9.6508e-08
4.41264e-08
-1.09956e-07
2.85802e-08
-6.75699e-08
-1.04852e-08
-5.1023e-08
-2.41803e-08
-2.93115e-08
-3.07224e-08
5.4332e-09
-4.53215e-08
-1.33259e-08
-2.69933e-09
-1.3996e-08
-1.63962e-08
-1.25518e-08
-4.11744e-09
-8.18605e-09
-1.73216e-08
-2.67175e-09
-2.79707e-09
-7.00905e-09
-2.1741e-07
4.08779e-08
8.63251e-08
7.67251e-08
-1.28285e-08
-7.3065e-08
2.70999e-08
-1.48681e-07
-6.13119e-08
7.3887e-08
-1.10294e-07
-1.62788e-08
-8.20157e-08
-4.04336e-08
-8.46624e-08
-4.40709e-08
-5.00088e-08
-3.44462e-08
-1.66283e-08
-3.72836e-08
-2.87782e-08
1.92579e-09
-1.8168e-09
-1.4185e-08
-1.75827e-08
1.87138e-08
-1.19979e-08
-6.89785e-10
-1.05744e-08
-7.76382e-09
-5.74129e-09
-7.2358e-09
-9.48627e-09
-1.8183e-08
-2.90734e-09
-2.96071e-08
-3.83451e-09
-1.82636e-08
-4.73208e-09
-3.49618e-08
-1.43132e-09
-2.2201e-08
1.12609e-08
-4.4752e-08
2.86743e-08
-2.41532e-08
-9.05952e-09
2.46161e-08
-1.95223e-08
3.07908e-08
-1.31122e-08
-4.52627e-09
-6.19235e-10
-7.84517e-09
1.73157e-08
-1.54372e-08
5.45407e-08
-3.83718e-08
4.68721e-08
4.29319e-08
8.24799e-08
7.86072e-09
-1.27265e-07
-1.07671e-07
-7.32116e-08
-4.71499e-08
-1.15772e-07
1.07877e-08
-7.71123e-08
-5.00792e-09
-6.87639e-08
8.15032e-09
-8.14699e-08
2.2142e-08
-1.04785e-07
1.2379e-08
-1.12599e-07
1.21401e-08
-1.20592e-07
9.78621e-09
-1.16201e-07
2.26079e-09
-1.1982e-07
9.51967e-09
-1.30356e-07
1.30324e-08
-1.10857e-07
-2.56231e-08
-1.10171e-07
-1.28637e-08
-1.09084e-07
-5.30968e-09
-1.05929e-07
-2.21444e-08
-1.2175e-07
1.95278e-08
-2.04952e-07
5.62899e-08
2.19542e-07
1.01354e-07
-1.57618e-07
-1.09354e-07
-1.20569e-07
-1.78885e-08
-5.50614e-08
-4.11541e-08
-5.98315e-08
1.16631e-08
-6.03298e-08
1.1086e-08
-7.47167e-08
2.01407e-08
-6.12122e-08
2.09211e-08
-7.94552e-08
7.0665e-09
-9.27181e-08
2.38137e-08
-1.01707e-07
7.49654e-09
-1.61986e-07
3.86226e-08
-1.17962e-07
1.96533e-08
-1.05224e-07
1.60857e-08
-7.95712e-08
1.95469e-08
-6.02271e-08
1.0142e-08
-6.52518e-08
-5.46058e-09
-5.39879e-08
-3.63568e-08
-3.46061e-08
-5.01042e-08
5.91691e-08
-1.41607e-07
-3.05418e-08
8.70115e-08
-4.55131e-08
-1.56938e-09
-4.19237e-08
-7.70741e-09
-3.24796e-08
-2.69431e-08
-3.25004e-08
-2.74845e-09
-5.03617e-09
-7.75097e-08
8.30782e-08
-7.63088e-09
1.91472e-08
-9.06159e-08
1.25495e-08
2.54118e-07
1.05727e-07
-1.35543e-07
-1.28976e-07
-1.00315e-07
-5.18654e-08
-8.28462e-08
-5.83104e-08
-7.44723e-08
-5.25297e-08
-4.75955e-08
-6.13226e-08
-5.01844e-08
-3.52011e-08
-4.82074e-08
-5.07878e-11
-2.77398e-08
-3.45823e-08
-1.84948e-08
9.46927e-09
-6.20696e-09
-1.26593e-08
-7.2942e-09
-6.6017e-09
1.25368e-08
-2.6868e-08
2.2409e-09
-7.6804e-09
1.04227e-08
-3.77885e-08
1.64458e-08
-2.44725e-08
1.61073e-08
-3.47872e-08
2.69602e-08
-3.28293e-08
2.29811e-08
-4.1341e-08
1.19118e-07
-1.20302e-07
2.60202e-08
1.17192e-07
2.66253e-08
2.99233e-08
6.87016e-09
1.55008e-08
8.8144e-09
-9.8692e-09
2.42894e-08
-3.11598e-08
1.08377e-07
-1.23708e-07
8.40679e-08
7.04997e-08
-8.82597e-08
-2.38561e-08
-1.44649e-08
1.93461e-08
-7.07638e-08
9.7234e-09
-7.30422e-08
1.23442e-08
-7.70523e-08
-9.97806e-10
-7.03557e-08
1.38466e-09
-5.78986e-08
9.68479e-09
-4.5326e-08
-3.16765e-10
-3.85454e-08
5.23543e-09
-3.86458e-08
1.01809e-08
-2.99573e-08
-6.51645e-09
-5.45325e-08
3.3789e-08
-4.87384e-08
7.23824e-09
-8.29209e-08
7.71334e-09
-1.03147e-07
7.36217e-09
-1.11499e-07
2.95698e-09
-1.32879e-07
-9.92969e-10
-1.06429e-07
-6.65274e-09
-2.59971e-07
1.04891e-08
-1.10477e-08
5.19748e-08
-8.3392e-08
-3.759e-08
-2.3141e-07
-7.04185e-08
2.24725e-08
-9.5724e-08
-7.34664e-08
1.06742e-07
-9.8739e-08
3.67332e-08
-8.48856e-08
5.42128e-09
-8.47549e-08
2.07903e-08
-8.24904e-08
5.66667e-09
-8.8987e-08
3.06624e-08
-8.5681e-08
4.19057e-09
-6.96028e-08
2.10614e-08
-5.30096e-08
3.60086e-09
-4.88916e-08
1.18051e-08
-3.81593e-08
8.31573e-09
-3.67235e-08
8.70606e-09
-4.65317e-08
4.29179e-09
-6.62077e-08
-1.68527e-08
-1.23953e-07
6.37614e-09
2.69619e-07
7.0888e-08
-1.38572e-07
-1.06545e-07
-9.47708e-08
-4.58383e-08
-7.07159e-08
-3.20903e-08
-6.93188e-08
-2.79185e-08
-5.06698e-08
-2.11839e-08
-4.3117e-09
-6.20155e-08
1.00867e-07
-6.88008e-08
4.44853e-08
6.67387e-08
-1.23221e-07
4.51669e-08
1.23535e-07
-4.63145e-08
-3.87968e-08
-5.73928e-08
-4.08427e-08
-5.22508e-08
-6.40469e-08
-4.35035e-08
-6.19082e-08
-2.54103e-08
-7.97818e-08
-2.33589e-08
-3.68797e-08
1.44632e-08
-3.7872e-08
2.12148e-08
-4.13335e-08
4.64903e-08
-1.61603e-08
7.20383e-08
-3.82068e-08
7.05717e-08
-5.06794e-09
7.79343e-08
-3.52886e-08
7.6794e-08
-5.69509e-09
6.95092e-08
-2.97197e-08
6.56071e-08
-2.0782e-08
4.72137e-08
-1.65623e-08
5.78216e-08
-4.25919e-08
-6.00465e-08
7.51198e-08
3.23366e-07
1.02534e-07
-9.30668e-08
-7.07534e-08
-3.42274e-08
-2.86106e-08
-2.8599e-08
9.97441e-09
-4.49347e-08
6.53341e-09
-1.03419e-07
2.65406e-08
2.68894e-07
1.09904e-07
-1.42274e-07
-1.2096e-07
-1.5659e-07
-9.05264e-09
-1.16246e-07
-2.21845e-08
-1.1876e-07
1.2338e-08
-1.07643e-07
2.43868e-09
-1.06042e-07
-3.68039e-09
-9.19239e-08
-1.27336e-08
-7.73793e-08
-3.1328e-09
-7.32727e-08
-4.46856e-09
-6.87235e-08
-6.13459e-11
-6.48059e-08
5.60199e-09
-6.98202e-08
-1.56942e-09
-7.23083e-08
3.66157e-08
-5.58156e-08
-9.16114e-09
-7.61697e-08
2.80673e-08
-8.16745e-08
1.27918e-08
-8.72604e-08
8.54278e-09
-1.02317e-07
1.4074e-08
-1.11106e-07
2.13582e-09
-1.22534e-07
2.181e-08
-6.58114e-08
-3.54626e-09
-8.5379e-08
-1.88847e-08
-1.98917e-07
4.09154e-08
2.211e-07
8.91107e-08
-1.47449e-07
-1.23504e-07
-1.19111e-07
6.87592e-09
-1.04208e-07
-8.26716e-09
-8.68695e-08
3.24017e-09
-8.07577e-08
3.78707e-10
-6.08547e-08
1.07593e-08
-5.66337e-08
-3.07848e-11
-3.9128e-08
3.55571e-09
-3.5066e-08
-8.51661e-10
-2.49023e-08
1.76181e-09
-3.56794e-08
1.90927e-08
-4.19811e-08
1.50076e-08
-6.10698e-08
2.27574e-08
-6.74873e-08
-1.0544e-08
-7.46132e-08
1.41905e-08
8.26518e-08
-8.79981e-08
-9.66621e-08
7.17826e-08
-1.46121e-07
2.13672e-09
-1.49187e-07
-2.96682e-08
-1.59428e-07
-1.4649e-08
-1.49197e-07
-3.03248e-08
-3.40812e-08
-1.78169e-08
1.23135e-08
-2.16302e-07
1.54412e-08
3.54831e-07
1.74761e-07
-6.48683e-08
-6.85088e-08
-3.14093e-08
-7.29926e-08
1.35876e-08
-8.4981e-08
2.86769e-09
-5.26219e-08
-2.46134e-08
-3.44268e-08
-7.1247e-10
-1.02379e-07
5.68672e-09
-4.37084e-08
5.38779e-09
-3.78979e-08
4.43482e-10
-3.67554e-08
-2.70582e-09
-1.31446e-08
-1.62203e-08
-2.5173e-08
1.811e-08
-3.93977e-08
-7.50624e-09
-9.87128e-09
-1.08555e-08
-2.4029e-09
-3.41261e-08
-6.90752e-09
-3.10562e-08
-2.41716e-08
-2.70767e-08
-2.0015e-08
3.57039e-08
-1.06547e-07
-4.27865e-08
1.51e-07
8.37546e-09
5.0934e-08
-2.84083e-08
-3.42331e-08
-4.50412e-08
-1.2565e-08
-6.279e-08
2.70763e-08
-9.96687e-08
4.25933e-08
-1.11816e-07
3.85632e-08
-7.13736e-08
6.94815e-08
-1.45773e-07
-4.58326e-08
-1.5242e-07
-2.40584e-09
-1.19952e-07
-5.41005e-08
-1.3013e-07
2.23907e-08
-9.84998e-08
-2.88969e-08
-1.1506e-07
1.28802e-08
-1.24797e-07
-2.89675e-09
-1.18592e-07
-1.05481e-08
-1.19277e-07
-3.82897e-09
-1.0263e-07
-1.54919e-08
-8.62724e-08
-1.07558e-08
-9.95789e-08
1.27688e-08
-6.67923e-08
4.45852e-09
-7.56425e-08
-9.9563e-10
-6.32572e-08
1.49102e-08
-5.93936e-08
8.92799e-09
-5.71051e-08
6.25417e-09
-5.1869e-08
8.83778e-09
-5.82387e-08
8.41956e-09
-4.26143e-08
6.18544e-09
-5.10937e-08
4.93309e-09
-5.26422e-08
-1.77096e-08
-4.34751e-08
3.13308e-08
4.14212e-08
3.7279e-09
-6.47437e-08
-1.86126e-08
-6.07603e-08
3.48278e-09
-7.28209e-08
3.79346e-09
-7.47052e-08
5.12444e-09
-7.85644e-08
4.23786e-09
-7.25291e-08
4.83382e-09
-7.03661e-08
-2.19384e-09
-6.47567e-08
-1.34314e-09
-4.43426e-08
-2.12658e-08
-2.79764e-08
-1.50567e-08
-3.55788e-08
2.6695e-08
-5.55849e-08
3.50136e-08
-7.56351e-08
4.16114e-08
-1.2152e-07
3.54491e-08
-1.58295e-07
5.05901e-08
2.39906e-07
1.19869e-07
-1.95726e-07
-9.59357e-08
-1.63754e-07
-3.3233e-08
-1.93713e-07
2.8688e-10
-1.92438e-07
-1.39072e-08
-2.19549e-07
-1.55926e-09
-6.9896e-08
-6.28677e-08
1.46221e-08
-6.78134e-08
3.47759e-08
9.5499e-08
9.57191e-09
3.14373e-08
-9.04269e-09
5.70493e-09
-4.7318e-08
-3.0099e-08
-5.02383e-08
1.89375e-09
-8.49182e-08
4.32372e-08
-7.50745e-08
-2.12494e-08
-3.8279e-08
-5.05399e-08
-1.55957e-08
-6.47703e-08
-2.40577e-08
-8.48182e-08
-1.70859e-08
-9.95763e-08
5.87632e-10
-1.08431e-07
-1.52916e-08
-1.22707e-07
-2.59335e-08
-1.47271e-07
1.4693e-08
-9.49444e-08
-5.32509e-08
-1.02883e-07
1.03145e-09
-1.28412e-07
2.91481e-09
-1.71868e-07
2.19079e-08
2.30338e-07
9.3169e-08
-1.44747e-07
-7.14658e-08
-2.37091e-07
-6.42933e-08
-6.78426e-08
2.72901e-09
-7.43719e-08
-5.33612e-09
-1.1422e-07
6.78796e-08
-1.22276e-07
5.02196e-08
-1.01716e-07
1.63626e-08
-1.04136e-07
7.04742e-08
-1.45238e-07
-4.73062e-09
-1.07149e-07
-3.94022e-08
-9.36937e-08
-6.82446e-08
-6.70313e-08
-4.5437e-09
-8.32098e-08
-1.27185e-08
-8.2915e-08
1.07807e-08
-8.27697e-08
-3.04214e-09
-7.99903e-08
-1.24831e-08
-8.76185e-08
3.83816e-09
-8.91297e-08
-1.39807e-08
-9.33468e-08
-6.53883e-09
-9.69572e-08
1.73681e-08
-6.50979e-08
-2.80132e-08
-9.4461e-08
2.76861e-08
-7.31206e-08
-5.46665e-09
-6.75819e-08
3.38919e-09
-6.3639e-08
2.31113e-09
-6.21662e-08
7.99904e-09
-6.15234e-08
7.77663e-09
-6.12184e-08
5.25276e-09
-5.68491e-08
-1.63187e-11
-7.18951e-08
-2.69136e-09
-3.32845e-08
-6.54643e-09
-1.43881e-08
-1.51686e-08
-5.90646e-08
2.62538e-08
-6.11809e-08
5.59904e-09
-6.45735e-08
7.186e-09
-6.7611e-08
8.1619e-09
-6.0803e-08
-2.5702e-09
-6.09483e-08
4.92875e-09
-5.66124e-08
-5.95216e-09
-5.53182e-08
-2.61104e-09
-3.5356e-08
-4.24423e-08
4.93153e-08
-1.00756e-07
-2.99077e-08
1.05918e-07
-4.59406e-08
5.1515e-08
-1.82919e-08
1.3823e-08
-1.36386e-08
3.05591e-08
-9.27468e-09
4.62261e-08
5.23167e-08
5.65209e-08
-4.24201e-08
-1.19903e-09
-8.47827e-08
9.12877e-09
-1.23775e-07
3.80097e-08
-1.61513e-07
2.23093e-08
-1.83874e-07
1.86912e-08
6.12827e-08
-6.34302e-08
2.78392e-08
3.85464e-09
-2.17731e-08
1.29235e-08
-2.23433e-10
1.70219e-08
-1.34045e-08
-2.22873e-08
-8.15267e-09
-1.46103e-08
-5.90412e-08
-5.04074e-08
-4.93237e-08
-8.99816e-08
-3.64087e-08
-1.05589e-07
-2.42429e-08
-1.02334e-07
-1.77728e-08
-1.07578e-07
-1.96655e-08
-1.13354e-07
-1.13094e-08
-8.9886e-08
-2.17297e-08
-8.22616e-08
-2.38421e-08
-1.14699e-07
6.50489e-09
-7.49576e-08
-2.40282e-08
-1.02576e-07
-2.56319e-08
-1.14944e-07
1.35378e-08
-1.18228e-07
6.19951e-09
-8.90065e-08
-7.08999e-09
-4.26863e-08
4.63718e-08
-9.58401e-08
-1.90406e-08
-1.71996e-07
1.31752e-08
-1.40323e-07
-2.89715e-08
-4.77843e-08
-9.7333e-08
-9.57974e-08
1.14734e-07
-1.09401e-07
6.27186e-08
-1.39808e-07
4.92004e-08
-4.17897e-08
-2.72689e-08
-1.98725e-07
-4.76967e-08
-4.65163e-08
7.87638e-09
-1.30448e-07
1.49838e-08
-1.19176e-07
-1.46345e-08
-1.22552e-07
-8.22176e-09
-7.64786e-08
-3.52927e-08
-9.31838e-08
1.29139e-08
-8.79623e-08
-1.77047e-08
-7.45536e-08
-9.57059e-09
-7.73176e-08
-1.12169e-08
-7.38417e-08
-1.00148e-08
-5.91433e-08
2.66967e-09
-7.46576e-08
-1.27849e-08
-7.37171e-08
2.6463e-08
-6.53391e-08
-1.38448e-08
-6.26691e-08
7.26454e-10
-7.02991e-08
9.94099e-09
-7.32138e-08
1.09137e-08
-6.88305e-08
3.47249e-09
-7.00254e-08
6.51409e-09
-7.32753e-08
2.48591e-09
-9.49207e-08
1.89817e-08
-5.47342e-08
-4.57647e-08
2.75396e-08
-9.74425e-08
-5.33434e-08
1.07137e-07
-7.13467e-08
2.36023e-08
-6.72596e-08
3.09883e-09
-6.39366e-08
4.83881e-09
-5.84904e-08
-7.41967e-09
-5.79714e-08
4.40964e-09
-6.57702e-08
1.92621e-09
-7.31935e-08
4.00616e-09
-1.55096e-07
3.71076e-08
2.45725e-07
1.06089e-07
-1.46043e-07
-1.03648e-07
-7.89288e-08
-1.47943e-08
-5.34837e-08
-1.20227e-08
-6.82676e-08
4.47915e-08
-2.37287e-08
2.38354e-09
-8.3581e-09
4.07346e-08
-2.98155e-08
1.97404e-08
-4.15999e-08
2.06996e-08
-2.75296e-08
2.41172e-08
-3.86875e-08
3.29033e-08
-4.38733e-08
2.34467e-08
6.88687e-08
-1.14978e-07
1.00598e-07
2.631e-08
-1.48429e-07
-8.10891e-09
3.2956e-08
-1.23724e-08
-8.85658e-09
-1.67163e-08
-3.97729e-09
-7.64915e-08
1.15863e-09
-9.52299e-08
-3.01118e-08
-1.07245e-07
-2.58589e-08
-1.10163e-07
-2.08598e-08
-1.02611e-07
-2.41999e-08
-9.76412e-08
-2.46351e-08
-9.35186e-08
-1.53162e-08
-8.26499e-08
-3.37859e-08
-1.10524e-07
4.03214e-09
-1.06187e-07
3.22972e-09
-1.04353e-07
-2.58618e-08
-1.1664e-07
-1.46844e-08
-1.20386e-07
1.72846e-08
-1.17042e-07
4.08385e-09
-1.34313e-07
8.81138e-09
-1.16402e-07
2.84608e-08
-1.15795e-07
-1.84592e-08
-1.08141e-07
5.5216e-09
-1.66311e-07
2.89037e-08
2.34562e-07
9.92863e-08
-1.48775e-07
-9.21637e-08
-6.12428e-08
-2.72771e-08
-1.8626e-07
-2.83121e-08
-1.12264e-08
-7.59978e-10
-8.96995e-08
3.06632e-08
-5.88925e-08
-2.36047e-08
-6.17349e-08
1.68714e-08
-4.5101e-08
-3.09493e-08
-4.7959e-08
-4.9037e-09
-5.86547e-08
-2.4957e-08
-3.72188e-08
-8.52204e-09
-4.19563e-08
-1.3101e-08
-3.87465e-08
-1.27804e-08
-4.46603e-08
-5.30318e-09
-4.78879e-08
-6.71875e-09
-4.63404e-08
1.12199e-09
-5.88164e-08
-3.08913e-10
-4.44304e-08
1.20769e-08
-6.1781e-08
2.87549e-09
-7.2782e-08
1.17273e-08
-7.18639e-08
9.76529e-09
-7.73119e-08
1.63616e-08
-7.26105e-08
-1.96977e-09
-8.13584e-08
1.52618e-08
-7.49154e-08
-3.12712e-09
-9.27474e-08
3.662e-08
-1.46285e-07
7.77246e-09
2.45377e-07
1.10781e-07
-1.47331e-07
-1.0004e-07
-1.02167e-07
-2.15621e-08
-9.39035e-08
-5.16441e-09
-9.2895e-08
3.83028e-09
-1.0151e-07
1.20741e-09
-9.32887e-08
-3.76656e-09
-8.71421e-08
-3.33148e-09
-7.42565e-08
-8.83901e-09
-5.66461e-08
1.8361e-08
3.74687e-08
1.05096e-08
-5.32975e-08
-1.28823e-08
-5.2943e-08
-1.56926e-08
-5.86236e-08
-6.46497e-09
-3.00631e-08
1.56146e-08
-2.41125e-08
-3.32116e-09
3.17219e-09
1.34177e-08
1.76247e-08
5.14171e-09
4.60928e-08
-8.26523e-09
4.51146e-08
2.48537e-08
6.34594e-08
1.43724e-08
7.57061e-08
1.18407e-08
2.73366e-08
-2.07695e-07
3.17656e-07
2.73142e-07
1.14289e-07
-1.34586e-07
-2.03975e-07
-1.33384e-08
-1.2733e-07
-7.98631e-08
6.28172e-08
-6.48676e-08
-1.45033e-08
-8.61974e-08
-9.45021e-09
-7.54765e-08
-3.45773e-08
-6.8143e-08
-2.79824e-08
-5.84679e-08
-3.45698e-08
-5.80346e-08
-2.5068e-08
-5.19834e-08
-2.18973e-08
-6.9546e-08
-1.62229e-08
-7.92832e-08
1.44382e-08
-6.13331e-08
-1.472e-08
-8.1686e-08
-6.34184e-09
-8.08001e-08
-1.55699e-08
-5.62106e-08
-6.65649e-09
-4.72803e-08
-4.89594e-09
-4.99891e-08
1.15205e-08
-4.21961e-08
2.01719e-08
-6.06465e-08
-8.40884e-12
-6.9668e-08
1.52542e-08
-6.14263e-08
2.06623e-08
3.22888e-08
4.56886e-09
-2.35901e-08
-3.69771e-08
-1.47982e-08
-3.6433e-08
-3.22714e-08
-1.04163e-08
-3.6656e-09
-2.94026e-08
4.01294e-08
-1.32282e-08
3.53049e-08
-1.91367e-08
5.334e-08
-1.34567e-09
5.53188e-08
-3.20768e-08
4.78986e-08
3.14499e-09
3.04937e-08
-7.55207e-09
2.90902e-09
1.90923e-08
-9.00181e-09
-1.17806e-09
-1.12169e-08
-1.04735e-08
-1.16077e-08
-4.79404e-09
-5.7254e-09
-1.26011e-08
-3.78486e-09
-8.77059e-10
-2.80276e-09
-1.29111e-09
6.96889e-10
8.5771e-09
-5.2135e-09
8.69704e-09
-1.62084e-08
2.26025e-08
-2.13922e-08
1.4949e-08
-3.85951e-08
3.35644e-08
-4.027e-08
-2.95016e-10
-5.77613e-08
3.22682e-08
-5.78636e-08
-3.02496e-09
-4.01793e-08
1.89355e-08
-5.69751e-08
2.43201e-08
2.1497e-08
3.23087e-08
-6.17956e-08
-1.65786e-08
-8.05321e-08
-2.79715e-09
-8.73699e-08
1.67327e-09
-9.60776e-08
1.15578e-08
-1.02245e-07
7.37429e-09
-9.45777e-08
-1.03905e-08
-1.01596e-07
3.68725e-09
-9.33131e-08
-1.739e-08
-8.50498e-08
1.00977e-08
-6.33392e-08
-1.13166e-08
-6.6641e-08
-9.61392e-09
-7.37909e-08
-8.54286e-09
-7.05261e-08
-9.01048e-09
-4.70727e-08
-7.76051e-09
-4.07492e-08
-1.01251e-08
-2.28862e-08
-4.26503e-09
-1.51231e-08
-2.54323e-09
-2.67949e-08
3.67026e-09
-1.72275e-08
1.55368e-08
-2.48131e-08
2.19282e-08
-4.31346e-09
-8.53858e-09
2.20979e-08
-3.37312e-07
-5.2937e-07
-3.83415e-08
-1.11107e-07
-1.58055e-07
-7.64193e-08
2.6328e-07
5.30575e-08
-1.31974e-07
-1.35755e-07
-1.22947e-07
-2.50244e-08
-4.92837e-08
-8.16802e-08
-2.93227e-08
-5.45379e-08
-2.24952e-08
-3.53941e-08
-2.83536e-08
-2.87109e-08
-2.81261e-08
-2.52951e-08
-3.09674e-08
-1.90556e-08
-3.99015e-08
-7.12285e-09
-2.89813e-08
3.51835e-09
-3.29416e-08
-1.07593e-08
-3.66755e-08
-2.60753e-09
-6.00121e-08
7.926e-09
-4.1701e-08
-2.53926e-08
-2.39682e-08
-2.26284e-08
-4.68071e-08
3.50818e-08
-4.34467e-08
1.68119e-08
-4.44681e-08
5.64389e-10
-3.00052e-08
7.91623e-10
-2.46607e-09
-6.5735e-09
7.94352e-09
-5.84045e-09
-1.64003e-08
-1.29292e-08
-2.61872e-08
-2.70176e-08
-2.13682e-08
-1.51233e-08
-2.68591e-08
-2.41556e-08
-1.01236e-08
-3.02376e-08
-1.79327e-08
-1.16415e-08
-1.97166e-08
4.24555e-10
-7.47877e-08
2.1359e-08
-1.0952e-07
3.78776e-08
-7.76563e-08
-3.71814e-08
-4.07891e-08
-1.71835e-08
-4.16781e-08
-2.77146e-10
-3.5947e-08
-1.66299e-08
-3.93493e-08
-1.39185e-09
-2.17811e-08
-3.02979e-08
-2.20932e-08
-5.70873e-10
-1.25329e-08
-1.08515e-08
-8.68859e-09
4.82134e-09
-2.4755e-09
2.48385e-09
-1.54693e-09
2.14299e-08
3.37694e-09
9.92376e-09
-1.12815e-08
4.77357e-08
-4.6457e-08
3.57187e-08
-1.2106e-08
-2.06215e-09
8.0657e-09
-2.33202e-08
2.01598e-08
6.63572e-09
3.03765e-08
1.41032e-08
5.72747e-08
5.08411e-09
5.10384e-08
-1.08578e-08
5.67033e-08
-7.94673e-09
5.40554e-08
4.94999e-09
4.36002e-08
2.17907e-08
1.78774e-08
3.3362e-08
8.0914e-09
-6.04492e-10
-1.3957e-08
2.58569e-08
-2.86391e-08
-2.70801e-09
-2.92898e-08
1.07417e-08
-3.72171e-08
-3.00582e-09
-4.43821e-08
-2.07322e-09
-3.23096e-08
-2.10682e-08
-3.26801e-08
-8.30672e-09
-1.83926e-08
-2.21266e-08
-1.48015e-08
-1.37529e-08
-1.97072e-08
8.39473e-10
-7.76769e-09
-1.46905e-08
-3.16879e-08
2.72257e-08
-2.88661e-08
1.36588e-08
-4.58478e-08
3.85161e-08
-9.01377e-08
3.61195e-08
-1.59211e-08
2.53382e-07
3.17102e-07
9.13568e-08
-8.13559e-09
-1.1232e-08
2.14235e-08
7.24678e-08
-3.06419e-08
1.81033e-08
-8.2775e-08
-1.09663e-07
-9.51301e-08
3.49778e-08
-2.83784e-08
2.54205e-09
-2.23013e-08
-3.01587e-08
-2.69304e-09
-2.8903e-08
-2.99662e-08
-3.08976e-08
-2.33001e-08
-2.02781e-08
-2.96747e-08
-2.37611e-08
-3.63942e-09
-1.68725e-08
-3.36985e-09
-2.23357e-08
-5.35024e-09
-2.60437e-08
1.08976e-09
-3.45596e-08
1.64423e-08
-3.04223e-08
-2.95295e-08
3.3015e-08
-8.58344e-08
-2.53743e-08
9.25276e-08
-3.47527e-08
2.67166e-08
-2.45104e-08
-9.67758e-09
2.28271e-09
-2.60091e-08
3.66089e-08
-4.08994e-08
2.61827e-08
4.89996e-09
-1.38162e-08
2.70699e-08
-2.30446e-08
-1.7789e-08
-3.06613e-08
-7.89977e-09
-5.09438e-08
-4.12186e-09
-6.0275e-08
-2.12178e-08
-7.00254e-08
-1.8909e-09
-6.02864e-08
-9.21502e-09
-4.27395e-08
3.77325e-09
-1.77734e-07
-2.74263e-08
-2.73013e-08
1.2626e-08
-5.04548e-08
6.03095e-09
-5.52642e-08
4.01472e-09
-5.64909e-08
-1.5562e-08
-5.81085e-08
2.25653e-10
-5.1795e-08
-3.75227e-08
-6.79825e-08
1.56165e-08
-5.27979e-08
-2.56038e-08
-4.72129e-08
-7.63812e-10
-3.64589e-08
-7.87294e-09
-2.5831e-08
1.10628e-08
-5.76193e-09
-1.03481e-08
5.99722e-08
-1.72766e-08
-9.08559e-08
-1.39212e-08
5.75379e-08
4.78991e-08
7.4989e-09
2.75871e-08
1.27691e-08
1.35163e-09
1.95366e-08
7.28018e-09
3.32475e-08
-8.62684e-09
3.47316e-08