/*--------------------------------*- C++ -*----------------------------------*\
  =========                 |
  \\      /  F ield         | OpenFOAM: The Open Source CFD Toolbox
   \\    /   O peration     | Website:  https://openfoam.org
    \\  /    A nd           | Version:  12
     \\/     M anipulation  |
\*---------------------------------------------------------------------------*/
FoamFile
{
    format      ascii;
    class       volVectorField;
    location    "0.75";
    object      U.water;
}
// * * * * * * * * * * * * * * * * * * * * * * * * * * * * * * * * * * * * * //

dimensions      [0 1 -1 0 0 0 0];

internalField   nonuniform List<vector> 
3750
(
(0.00563512 -0.0155972 0)
(-0.00498582 -0.00477673 0)
(0.00486827 0.00915116 0)
(-0.00967108 0.0232755 0)
(-0.00561327 -0.00392766 0)
(-0.00323135 0.00701913 0)
(-0.00398958 0.00626732 0)
(-0.00125662 0.00960067 0)
(-0.00198016 0.0104476 0)
(-0.000640657 0.0123374 0)
(0.000675047 0.0127807 0)
(0.000890354 0.0141779 0)
(0.00182332 0.014371 0)
(-0.000139696 0.0134192 0)
(-0.000134433 0.0149553 0)
(0.00162594 0.0126547 0)
(-0.000356976 0.0141466 0)
(0.00221317 0.0118227 0)
(3.53933e-05 0.0106079 0)
(0.0011527 0.0102103 0)
(0.000509374 0.0113257 0)
(-0.000601449 0.0128753 0)
(-0.000808331 0.0131643 0)
(-0.00191405 0.0093977 0)
(0.00120062 0.00896719 0)
(-0.00138033 0.0100099 0)
(0.000507739 0.00992912 0)
(-0.000466955 0.0163512 0)
(-0.0046484 0.0207584 0)
(0.00200581 0.0182408 0)
(0.00251653 0.0125629 0)
(-0.000408016 0.0168587 0)
(-0.00122396 0.0154988 0)
(0.00039668 0.0165599 0)
(-0.000325854 0.0178694 0)
(-0.000570135 0.0170685 0)
(0.000342507 0.0168204 0)
(-0.000521675 0.0174678 0)
(-0.00016429 0.0180751 0)
(-0.000933209 0.0206611 0)
(0.000688582 0.0210879 0)
(-0.00016422 0.0218152 0)
(0.000199452 0.0207299 0)
(-0.0005528 0.0200147 0)
(0.000191226 0.0201072 0)
(0.000158457 0.0209274 0)
(0.00094221 0.0195948 0)
(0.00200584 0.0171962 0)
(-0.00133229 0.0162731 0)
(0.000822317 0.0115095 0)
(-0.00255398 0.0110989 0)
(-0.000595223 0.0104135 0)
(-0.000427152 0.0114258 0)
(0.000561637 0.0113792 0)
(0.00122854 0.0122853 0)
(-0.000211978 0.0133673 0)
(0.000231754 0.0135757 0)
(0.00059456 0.0154019 0)
(-0.00147649 0.0106422 0)
(0.000936983 0.00908161 0)
(-0.000940631 0.0117078 0)
(0.000319733 0.0115102 0)
(0.00066842 0.0170764 0)
(-0.00163196 0.0179936 0)
(0.000370098 0.0166453 0)
(-0.00083387 0.0163065 0)
(-0.0035859 0.00819211 0)
(-0.000605677 0.00919098 0)
(-0.000943863 0.0105948 0)
(0.000961736 0.0131435 0)
(-0.00111131 0.0144368 0)
(0.000304267 0.0141402 0)
(-0.000439062 0.0135035 0)
(0.00209599 0.0119275 0)
(0.00026539 0.016647 0)
(0.00538594 -0.0019985 0)
(0.0140306 0.00107063 0)
(-0.00058012 0.00122177 0)
(-0.0107019 0.0111794 0)
(-0.00700191 -0.000486082 0)
(-0.0017393 0.00488626 0)
(-0.00109375 0.000788647 0)
(0.000377059 0.00390868 0)
(-0.00369296 0.00471163 0)
(-0.00271465 0.00908854 0)
(-0.000564451 0.00651369 0)
(-0.00176808 0.00798365 0)
(-0.00146869 0.00779073 0)
(-0.000249099 0.00826836 0)
(-0.000806791 0.0131976 0)
(0.000512591 0.0134681 0)
(-0.000286673 0.0146867 0)
(0.00153894 0.0141868 0)
(0.000206751 0.0133851 0)
(0.00137288 0.0133634 0)
(-0.000398496 0.0129129 0)
(-0.00159414 0.0130018 0)
(-0.00271618 0.0121114 0)
(-0.00362835 0.0103255 0)
(-1.4273e-06 0.00868588 0)
(-0.000271305 0.00794793 0)
(0.00260388 0.010091 0)
(0.000810648 0.00794996 0)
(0.00139186 0.0208498 0)
(-0.00107335 0.0212785 0)
(0.000878091 0.00506883 0)
(-0.000133664 0.00581996 0)
(-0.000372488 0.00964197 0)
(-0.000364059 0.0110681 0)
(-0.00177441 0.010765 0)
(-0.00134719 0.0121449 0)
(-0.000594487 0.0136025 0)
(-0.000992225 0.0123836 0)
(-0.000211595 0.0123829 0)
(-0.0011217 0.0128646 0)
(-0.000521155 0.0133892 0)
(-0.00185042 0.0148754 0)
(-0.00386251 0.0173095 0)
(-0.00193803 0.0198383 0)
(-0.000345341 0.0233664 0)
(-0.00057105 0.0268289 0)
(0.000766744 0.0295965 0)
(0.00397283 0.0276804 0)
(0.0022845 0.0292457 0)
(0.00384658 0.0268673 0)
(0.00153187 0.020676 0)
(0.00124245 0.0230785 0)
(0.000463179 0.0198454 0)
(-0.00180967 0.0170611 0)
(-0.000506401 0.0152508 0)
(-0.00232231 0.0160412 0)
(-0.00337885 0.0190198 0)
(-0.000614515 0.0198309 0)
(-0.00391735 0.0175636 0)
(0.00121044 0.017333 0)
(-0.00189941 0.0163499 0)
(0.00262232 0.0152723 0)
(0.000685871 0.0189445 0)
(-0.00546114 0.0221368 0)
(0.00821122 0.0213062 0)
(-0.0006938 0.0131507 0)
(-0.000159809 0.00777859 0)
(0.000677016 0.00622401 0)
(-0.00101922 0.0054133 0)
(0.00407799 0.00729363 0)
(-0.00138797 0.01035 0)
(0.000904911 0.0109472 0)
(0.000188032 0.0112482 0)
(0.00271209 0.0100751 0)
(0.00058023 0.0129559 0)
(0.00248783 -0.0336859 0)
(0.00113248 0.0110262 0)
(-0.00498974 -0.0115909 0)
(-0.00988871 0.00324233 0)
(-0.00593981 -0.00717806 0)
(-0.00491573 0.000230633 0)
(-0.00450706 -0.00376161 0)
(-0.00455267 -0.0028611 0)
(-0.00630964 -0.00438727 0)
(-0.00898419 8.40911e-05 0)
(0.00195234 -0.00497394 0)
(0.00349175 -0.00724385 0)
(-0.00295126 -0.00868379 0)
(0.000160913 -0.0101098 0)
(-0.00144528 -0.0070339 0)
(-0.00144054 -0.00600761 0)
(0.00100077 -0.003065 0)
(0.00124329 -0.00254876 0)
(0.000892579 -0.000545521 0)
(0.00190653 -0.000802747 0)
(0.000604849 -0.000536795 0)
(-0.00101163 -0.000293213 0)
(0.000368335 -0.00249056 0)
(-0.00153977 -0.00345288 0)
(-0.0015124 -0.00364237 0)
(0.000427434 -0.00262995 0)
(0.00161202 -0.00201368 0)
(0.00150271 -0.000396126 0)
(0.00669539 0.00469993 0)
(-0.00485513 0.00355857 0)
(-0.00185314 0.00177932 0)
(-0.00012924 0.00213508 0)
(0.000352447 0.00222064 0)
(-0.000831873 0.00337207 0)
(-0.00165295 0.00355148 0)
(-0.000863044 0.0041843 0)
(-0.000866175 0.00264007 0)
(0.000500977 0.000764405 0)
(0.000882145 0.001217 0)
(-0.00154594 0.000760248 0)
(-0.00392315 0.00397993 0)
(-0.00578889 0.00219926 0)
(-0.00587707 0.00602816 0)
(-0.00625875 0.0121663 0)
(-0.00501476 0.0127551 0)
(-0.00515892 0.0145324 0)
(-0.00227021 0.0150352 0)
(0.000638838 0.0139835 0)
(0.00437628 0.0163373 0)
(0.00131916 0.0171345 0)
(0.00489175 0.0148498 0)
(0.000932473 0.0162688 0)
(0.00406164 0.0119898 0)
(0.000594677 0.0091191 0)
(0.00115082 0.00803134 0)
(0.000345035 0.00327721 0)
(-0.00109267 0.00581353 0)
(-0.00148932 0.00538821 0)
(-0.00141928 0.00211122 0)
(-0.00028749 0.00286904 0)
(0.000510855 0.00176134 0)
(0.00242577 0.0031229 0)
(0.00240482 -0.00138809 0)
(0.000859118 0.0159571 0)
(0.00224426 0.0121479 0)
(-0.00199811 -0.0035299 0)
(-9.32361e-05 0.000138996 0)
(-0.00154834 -0.00281882 0)
(-0.000514374 0.00213358 0)
(0.0014863 0.00219095 0)
(-5.15e-05 -0.000585225 0)
(-0.000885513 0.00262459 0)
(-0.000141889 0.00163139 0)
(0.00027583 0.0016277 0)
(0.00184681 0.00367402 0)
(0.00873187 -0.0124129 0)
(0.000947879 0.00372542 0)
(-0.00245304 -0.00870222 0)
(-0.00658266 -0.000424045 0)
(-0.00342057 -0.00606483 0)
(-0.00240212 -0.00456031 0)
(0.00203435 -0.00853057 0)
(0.00168283 -0.0100403 0)
(0.00213425 -0.017083 0)
(0.000485951 -0.00448942 0)
(-0.00146537 -0.00366624 0)
(-6.11843e-05 -0.0179386 0)
(-0.00545334 -0.0176695 0)
(-0.00184233 -0.0162447 0)
(-0.00336727 -0.0171276 0)
(-0.00257294 -0.0141769 0)
(-0.00238674 -0.0115502 0)
(-0.00111796 -0.0124301 0)
(-0.001355 -0.00900377 0)
(-0.0011579 -0.00709432 0)
(-0.000973035 -0.00725176 0)
(0.000123862 -0.00487067 0)
(-0.000345477 -0.00397467 0)
(-0.00108544 -0.00396712 0)
(-0.000966775 -0.00323057 0)
(-0.00212973 -0.00363399 0)
(-0.00040585 -0.00369376 0)
(-0.000908986 -0.00275222 0)
(-0.000212924 -0.00311201 0)
(-0.00464581 -0.00224862 0)
(-0.00188046 -0.00412177 0)
(-0.00452419 -0.00555812 0)
(-0.000485997 -0.0038093 0)
(-0.00166144 -0.00426667 0)
(0.000266507 -0.00513801 0)
(0.000276443 -0.00670056 0)
(0.00083163 -0.00735322 0)
(0.000487802 -0.00751364 0)
(-0.000646175 -0.00520889 0)
(-0.00280371 -0.0027457 0)
(-0.00389141 -0.00143296 0)
(-0.00660029 0.00146697 0)
(-0.00533455 0.000218577 0)
(-0.00500082 -0.00326559 0)
(-0.0041037 -0.00473465 0)
(-0.00301977 -0.00400607 0)
(-9.96556e-05 -0.00351969 0)
(0.00205623 -0.00668053 0)
(0.00289953 -0.00310279 0)
(0.00346723 -0.00106973 0)
(0.00305751 -0.00178224 0)
(0.00206668 0.000961525 0)
(0.000335585 -0.000212037 0)
(0.00356261 -0.00403099 0)
(0.000955319 -0.00188204 0)
(0.0028647 -0.000998186 0)
(-0.0012187 0.00149427 0)
(0.000532944 0.00119101 0)
(-0.00152586 -0.000725107 0)
(6.04842e-05 -0.00188234 0)
(0.00174836 -0.00253913 0)
(0.00121892 -0.00258054 0)
(0.00394902 -0.00104612 0)
(0.00725198 0.00251939 0)
(-0.00887934 0.00171174 0)
(0.00188331 -0.00510456 0)
(-0.00178137 -0.00510964 0)
(0.0013679 -0.00500901 0)
(0.00156825 -0.00305718 0)
(-0.000323195 -0.00406769 0)
(0.00160489 -0.00498552 0)
(-0.000336431 -0.00152141 0)
(-0.000766206 -0.000973287 0)
(0.000208055 -0.00107146 0)
(-0.000423279 -0.000240492 0)
(0.00189277 -0.00802174 0)
(0.00726099 0.000235492 0)
(-0.00469481 -0.0105891 0)
(-0.00683012 0.00147558 0)
(-0.00384575 -0.0061831 0)
(-0.00455132 0.000825141 0)
(-0.00175998 -0.00124258 0)
(0.00119766 0.00325917 0)
(0.00410878 0.00471158 0)
(0.00906881 0.0096841 0)
(-0.0069437 0.0102074 0)
(-0.00283361 0.00267942 0)
(-0.00532603 6.99181e-05 0)
(-0.0015658 -0.00180877 0)
(-0.00176855 -0.00421 0)
(-0.000615352 -0.00502217 0)
(-0.00304005 -0.00519558 0)
(-0.00270745 -0.00543541 0)
(-0.00112578 -0.00581583 0)
(-0.00319248 -0.00430031 0)
(-0.00129629 -0.00400547 0)
(-0.00226109 -0.00124672 0)
(-0.00121843 -0.000850824 0)
(-0.00106915 -0.000234329 0)
(-5.87315e-05 -0.000939996 0)
(0.000131249 -0.00214849 0)
(0.000209911 -0.00296318 0)
(0.000188736 -0.00468915 0)
(0.00214353 -0.00517589 0)
(0.00213575 -0.00754341 0)
(0.00108251 -0.00752594 0)
(-0.00469307 -0.00734434 0)
(0.00151235 -0.0046304 0)
(-0.00179283 -0.00490212 0)
(0.00314926 -0.00651234 0)
(-0.000405035 -0.00434284 0)
(0.000246077 -0.00265148 0)
(-0.00141653 -9.44872e-05 0)
(-0.00267477 -0.000339483 0)
(-0.00390247 -0.000762745 0)
(-0.00587211 -0.00045386 0)
(-0.00406814 -0.0038371 0)
(-0.00750081 -0.00633487 0)
(-0.00120121 -0.00569524 0)
(-0.00270153 -0.0105769 0)
(-0.00198725 -0.0108588 0)
(-0.00188529 -0.00947794 0)
(-0.000106208 -0.012909 0)
(0.000118171 -0.00944437 0)
(-0.000713798 -0.00438494 0)
(0.00336785 -0.00614194 0)
(0.00369571 -0.00665883 0)
(-0.000982076 -0.00712209 0)
(0.000640841 -0.00651165 0)
(0.000313873 -0.00613082 0)
(0.000484221 -0.00607819 0)
(0.00134153 -0.00344361 0)
(0.000887286 -0.00252106 0)
(0.00115672 -0.00656608 0)
(0.00285658 -0.00541803 0)
(-0.000316819 -0.00755217 0)
(0.0032311 -0.00781101 0)
(0.0022712 -0.00781431 0)
(0.000956016 -0.00936418 0)
(-0.00282141 -0.00446218 0)
(0.000941775 -0.00463344 0)
(0.00133164 -0.00905349 0)
(0.000398861 -0.00551756 0)
(-0.000924874 -0.0030023 0)
(-0.00221198 -0.00160423 0)
(-0.00205884 -0.00267677 0)
(-0.000452475 -0.00132004 0)
(-0.00161345 0.000459665 0)
(0.000231899 -0.00234743 0)
(-0.000449898 -0.000904705 0)
(-0.00686966 -0.00909427 0)
(-0.0133238 -0.0029715 0)
(-0.0113344 -0.0123603 0)
(-0.0116576 -0.00410277 0)
(-0.00208843 -0.00710596 0)
(-0.00557353 -0.00669385 0)
(-0.00119596 -0.00711085 0)
(-0.00205646 -0.00248533 0)
(0.00113509 0.000100678 0)
(0.00359619 0.00191414 0)
(-0.00203394 0.00383343 0)
(0.0020863 0.00161334 0)
(-0.000628151 -0.00125323 0)
(0.00131499 -0.000350224 0)
(1.17292e-05 -0.00314696 0)
(-0.000369934 -0.00267489 0)
(-0.00211838 -0.00240169 0)
(-0.00175304 -0.00307154 0)
(-0.00113537 -0.00277693 0)
(-0.00332496 -0.00239813 0)
(-0.0024291 -0.00357615 0)
(-0.00386089 -0.00370504 0)
(-0.00076114 -0.00253121 0)
(-0.000858614 -0.00335298 0)
(0.000753493 -0.00307386 0)
(0.000652803 -0.00503612 0)
(0.000902542 -0.00534065 0)
(0.00111441 -0.00416383 0)
(0.000726634 -0.00338205 0)
(0.00272275 -0.00298463 0)
(0.00180725 -0.00661577 0)
(0.00827902 0.00370298 0)
(0.00052984 0.00836822 0)
(-0.00011295 0.00697026 0)
(-0.000249965 0.0079664 0)
(-0.00132911 0.00582705 0)
(-4.38944e-05 0.0102025 0)
(-0.00244213 0.00924294 0)
(-0.00153773 0.00767901 0)
(-0.00238074 0.00339796 0)
(-0.00128318 0.000576247 0)
(-3.64065e-06 -0.00433473 0)
(0.000297526 -0.00404592 0)
(0.00155335 -0.00419593 0)
(-0.00138659 -0.00978702 0)
(-0.00123444 -0.00752731 0)
(-0.00120004 -0.0085277 0)
(-0.000137841 -0.0103997 0)
(0.00028713 -0.0099118 0)
(-0.00593676 -0.003705 0)
(0.00790451 -0.00337181 0)
(0.00415769 -0.00706972 0)
(0.00229305 -0.00504324 0)
(0.00129402 -0.00637333 0)
(0.00188199 -0.00790039 0)
(0.000452206 -0.00680083 0)
(0.00408879 -0.00529391 0)
(-0.00160775 -0.006387 0)
(0.000932553 -0.00585795 0)
(-0.000292369 -0.00824452 0)
(-0.000765474 -0.00726003 0)
(0.00141786 -0.00496535 0)
(0.00026815 -0.0112215 0)
(0.00274843 -0.0127691 0)
(0.00272806 -0.00809792 0)
(-0.000909956 -0.00716365 0)
(-0.000885987 -0.00592054 0)
(-0.00227547 -0.00445601 0)
(-0.00282417 -0.000862117 0)
(-0.000533281 -0.000589976 0)
(-0.00102811 -0.00129681 0)
(-0.000308288 -0.000857115 0)
(-0.00220557 -0.000458947 0)
(-0.000916701 -0.000188784 0)
(-1.38624e-05 0.00049379 0)
(-0.00682987 -0.0264578 0)
(-0.0163437 0.00133372 0)
(-0.0128682 0.000574999 0)
(-0.0127781 0.0026438 0)
(0.003564 -0.00496955 0)
(-0.00332755 -0.00617415 0)
(-0.000503046 -0.00889922 0)
(-0.00364014 -0.0113009 0)
(-0.00109843 -0.00524945 0)
(-0.00203283 -0.00484953 0)
(-0.000184617 -0.000493702 0)
(-0.00116003 0.000407785 0)
(-2.94194e-05 -0.00148168 0)
(-0.000495762 0.000426756 0)
(-0.00174198 -0.00197856 0)
(-0.000453457 0.000119279 0)
(-0.00153361 -0.00147392 0)
(-0.00278339 -0.00012475 0)
(-0.00245599 -0.000419932 0)
(-0.00294517 -0.000287772 0)
(-0.00210776 -0.000371703 0)
(-0.00271086 0.000961076 0)
(-0.00179037 0.00190962 0)
(-4.93951e-05 0.000926008 0)
(0.00296625 -0.000971456 0)
(-0.000712262 -0.00164754 0)
(-0.000197542 -8.89613e-05 0)
(-0.00105585 0.000827891 0)
(-0.00245932 0.003351 0)
(0.00273601 0.0047425 0)
(-0.00126601 0.00785739 0)
(0.0102188 -0.0023494 0)
(-0.000772069 -0.0130273 0)
(0.00240136 -0.0067876 0)
(-0.000823838 -0.00807769 0)
(0.00113382 -0.00699792 0)
(0.00119142 -0.00711081 0)
(0.000844338 -0.0101191 0)
(0.0018526 -0.00937873 0)
(0.00157221 -0.0122846 0)
(0.00139968 -0.010367 0)
(0.000602176 -0.0125121 0)
(0.00206914 -0.0104354 0)
(-0.00191157 -0.00954109 0)
(-0.000480604 -0.0124576 0)
(-0.000164453 -0.0109224 0)
(-0.00258463 -0.00909547 0)
(0.000669519 -0.012177 0)
(-0.00238232 -0.013908 0)
(0.00417166 0.00362619 0)
(0.00013467 0.00261906 0)
(-0.00229683 -0.0109458 0)
(0.00153713 -0.0069567 0)
(0.00107005 -0.00546029 0)
(0.00131197 -0.0062767 0)
(0.00115685 -0.00601932 0)
(0.000612511 -0.00630084 0)
(0.000815812 -0.00741122 0)
(0.000602424 -0.00760547 0)
(0.00198946 -0.00992446 0)
(0.00410443 -0.0126008 0)
(0.00174089 -0.0097755 0)
(0.001459 -0.00989859 0)
(0.00229694 -0.00932641 0)
(0.000526171 -0.00726536 0)
(-0.000756111 -0.00532199 0)
(-0.00336699 -0.0061696 0)
(-0.00436411 -0.00426882 0)
(-0.00994661 0.001293 0)
(0.0035964 0.00126442 0)
(-0.000938763 -0.00389296 0)
(-0.000369786 -0.00463059 0)
(-0.00208442 -0.00350106 0)
(-0.000409038 -0.00286097 0)
(-0.00156756 -0.00287373 0)
(0.00906751 -0.0139897 0)
(0.00617411 0.00139832 0)
(-0.00469149 -0.00727058 0)
(-0.00308638 0.011142 0)
(-0.00202645 0.00359427 0)
(-0.00271712 -0.0104188 0)
(-0.00492826 -0.00950292 0)
(-0.00541414 -0.00851718 0)
(-0.00419149 -0.00559281 0)
(-0.00368277 -0.0066077 0)
(0.000583813 -0.00244528 0)
(-0.00100883 -0.00392647 0)
(0.00211605 -0.00334851 0)
(-5.91285e-05 -0.000763551 0)
(-0.00033915 -0.000990974 0)
(-0.000896125 0.000945453 0)
(-0.00184817 -6.65892e-05 0)
(-0.00342605 0.000708372 0)
(-0.0012942 0.000723074 0)
(-0.00353297 0.00203495 0)
(-0.00155892 0.000885275 0)
(-0.00616412 0.00253969 0)
(-0.0076009 0.0068526 0)
(0.0056714 0.0058697 0)
(0.00263728 0.00243874 0)
(0.00133418 -0.00108633 0)
(-0.000591721 0.00216849 0)
(-0.00199143 0.0015552 0)
(-0.00782334 0.00763623 0)
(0.00624739 0.00304421 0)
(0.000335638 0.000558363 0)
(-0.00452119 -0.00391226 0)
(-0.00158875 -0.0118581 0)
(0.000370984 -0.00615425 0)
(0.00104172 -0.00800331 0)
(0.000408895 -0.0075929 0)
(0.00229206 -0.00561029 0)
(0.00153913 -0.00525041 0)
(0.000836399 -0.00431088 0)
(0.000725058 -0.00444772 0)
(-0.000670637 -0.00234776 0)
(0.000836159 -0.00442114 0)
(-8.95938e-05 -0.0045485 0)
(-0.00191905 -0.00596752 0)
(-0.00150231 -0.00952797 0)
(-0.000525338 -0.0121355 0)
(-0.00198409 -0.0119727 0)
(1.82084e-05 -0.0145729 0)
(0.00236929 -0.0108559 0)
(0.005871 -0.00349033 0)
(-0.00633191 -0.0108077 0)
(-0.00534399 -0.0065447 0)
(-0.00646152 -0.0027927 0)
(0.00713023 -0.00683895 0)
(0.00156188 -0.00762073 0)
(0.00184885 -0.00823736 0)
(0.00258455 -0.00785407 0)
(0.000901777 -0.00961766 0)
(0.0031487 -0.00883382 0)
(0.000629193 -0.00700853 0)
(0.00377642 -0.00817774 0)
(0.00146681 -0.00585007 0)
(0.00276639 -0.00483879 0)
(0.000920489 -0.00387876 0)
(0.000719366 -0.00390787 0)
(-0.000602415 -0.00420668 0)
(-0.00222333 -0.00547192 0)
(-0.00183995 -0.00863855 0)
(-0.00336855 0.0069077 0)
(-0.00104134 0.00583252 0)
(-0.00225549 -0.0112961 0)
(-0.00183559 -0.00762534 0)
(-0.00273106 -0.00741117 0)
(-3.63158e-05 -0.00533488 0)
(-0.00060672 -0.00533705 0)
(0.00710235 -0.0104592 0)
(-0.000750699 -0.00214391 0)
(-0.00158092 0.000880776 0)
(0.0125621 0.00530941 0)
(-0.00817117 -0.00155779 0)
(-0.00491823 -0.00443323 0)
(-0.00493943 -0.00584478 0)
(-0.0045672 -0.00519938 0)
(-0.00662686 -0.00208237 0)
(-0.00544062 -0.00190171 0)
(-0.00222496 -2.33797e-05 0)
(-0.00365801 0.0021285 0)
(-0.000102148 0.00325726 0)
(-0.00188031 0.00474389 0)
(1.21913e-05 0.00641481 0)
(-0.00306866 0.00873508 0)
(-0.000599804 0.00664285 0)
(-0.00401671 0.00875635 0)
(-0.00277731 0.00604659 0)
(-0.00349234 0.00603507 0)
(-0.00294878 0.00301639 0)
(0.00395882 -0.00293246 0)
(0.00118322 0.0133283 0)
(0.00199293 0.0110604 0)
(-0.000665572 -0.00484878 0)
(0.00120845 -0.00377024 0)
(-0.00129376 -0.00275556 0)
(-0.00099031 -0.00743512 0)
(-0.00172008 0.00796686 0)
(-0.00168462 0.00630728 0)
(0.00143656 -0.0127372 0)
(-0.00271558 -0.0122315 0)
(-0.000624491 -0.0126846 0)
(0.000754637 -0.00856186 0)
(-0.000558965 -0.0129415 0)
(-0.000579434 -0.00956642 0)
(0.000129309 -0.00639573 0)
(-0.000981353 -0.00845621 0)
(0.000178808 -0.00638051 0)
(0.00142329 -0.00919124 0)
(0.000315151 -0.00514068 0)
(0.00455892 -0.0065843 0)
(0.0008944 -0.00719511 0)
(0.00293506 -0.00370108 0)
(0.00253207 -0.00808016 0)
(0.000929016 -0.00816568 0)
(0.00190296 -0.00896098 0)
(-0.000191029 -0.0105726 0)
(0.00440638 -0.0103942 0)
(-0.000526076 -0.00632848 0)
(-0.00272706 -0.00695741 0)
(0.000827004 -0.0120384 0)
(-0.00407827 0.00400264 0)
(-0.00146573 0.000935809 0)
(0.00115818 -0.0140879 0)
(-0.000744263 -0.00648554 0)
(0.000411523 -0.00909115 0)
(-0.000824537 -0.00729116 0)
(0.00264966 -0.00573915 0)
(-0.000410079 -0.00711103 0)
(0.000497526 -0.00393923 0)
(0.000368128 -0.00389924 0)
(9.67954e-05 -0.00249051 0)
(0.00113927 -0.00361093 0)
(0.001228 -0.00305649 0)
(0.00122374 -0.00451773 0)
(-0.00111279 -0.0067 0)
(7.72031e-05 -0.00620366 0)
(-0.00111122 -0.000334128 0)
(-0.00219487 -0.000736107 0)
(-0.00226277 -0.0119973 0)
(-0.00397351 -0.0170189 0)
(-0.00132066 -0.0155876 0)
(-0.00301288 -0.0129845 0)
(-0.000194975 -0.0127032 0)
(0.00698339 -0.0173727 0)
(0.00302524 -0.00201801 0)
(0.00299564 0.00727741 0)
(0.00303578 0.00909839 0)
(-0.00528217 -0.00584806 0)
(-0.00401981 0.00297432 0)
(-0.00873752 0.000957348 0)
(-0.00856752 -0.00159893 0)
(-0.00671454 0.000740885 0)
(-0.0054632 0.00190976 0)
(-0.00497708 0.00059323 0)
(-0.00462569 0.000215493 0)
(-0.00337928 -0.000231419 0)
(-0.00422836 0.000281392 0)
(-0.0013042 -0.000342656 0)
(-0.00376951 0.000968391 0)
(0.000235762 -0.000908361 0)
(-0.00115003 -0.00303637 0)
(-0.00223241 -0.00181566 0)
(-0.000242392 -0.00253173 0)
(-0.00770077 0.000941245 0)
(0.0113922 0.00044535 0)
(0.00558086 -0.000332391 0)
(-0.00486548 0.000937858 0)
(9.78211e-05 -0.00343775 0)
(0.00213369 -0.00764601 0)
(0.00318766 -0.00731558 0)
(0.0038659 -0.0103261 0)
(0.00968781 -0.00995953 0)
(-0.00651688 -0.0108886 0)
(-0.00167822 -0.0139504 0)
(-0.00162233 -0.0136279 0)
(0.00221233 -0.01315 0)
(-0.000521541 -0.00928857 0)
(9.6623e-05 -0.0128286 0)
(-0.00142507 -0.0109879 0)
(-0.00114095 -0.0117347 0)
(-0.000657395 -0.0118451 0)
(-0.00066817 -0.0108438 0)
(-0.000729617 -0.0135085 0)
(0.00067491 -0.00849125 0)
(0.000887582 -0.00825725 0)
(-0.000836587 -0.00776843 0)
(0.00204073 -0.00334325 0)
(-6.47382e-05 -0.00639905 0)
(0.000832878 -0.00624355 0)
(0.000637061 -0.00593991 0)
(0.000586227 -0.00483481 0)
(0.000841518 -0.00414886 0)
(0.00190151 -0.00407084 0)
(-0.0013837 -0.00508675 0)
(0.00293271 -0.00261707 0)
(0.00633244 -4.47177e-05 0)
(-0.00765646 0.00189078 0)
(0.00138819 -0.00537573 0)
(0.000269312 -0.00918249 0)
(0.000382683 -0.00678389 0)
(0.00142012 -0.00688867 0)
(-0.000107206 -0.00735967 0)
(0.000579578 -0.00804838 0)
(3.10173e-05 -0.00665654 0)
(-0.000877758 -0.00539654 0)
(-0.000873824 -0.00347723 0)
(0.00321589 -0.00311912 0)
(0.00220853 -0.00329707 0)
(0.00375152 -0.00717137 0)
(0.00153402 -0.00882751 0)
(0.00307174 -0.0115381 0)
(0.00139735 0.0033203 0)
(-0.00179972 0.00244016 0)
(-0.00121403 -0.0184361 0)
(-0.00183045 -0.0165184 0)
(-0.000708426 -0.0190065 0)
(-0.00161637 -0.0207215 0)
(-0.00542946 -0.0171655 0)
(0.00017212 -0.0151326 0)
(0.00764639 -0.00295141 0)
(0.00602953 -0.000587605 0)
(-0.00406869 0.00551981 0)
(-0.00600637 0.000471517 0)
(-0.00702149 0.00220234 0)
(-0.00655969 -0.00254422 0)
(-0.00615156 0.00398355 0)
(-0.00386422 0.00195197 0)
(-0.000477661 -0.00484311 0)
(-0.00161909 -0.0055689 0)
(-0.0022453 -0.00655449 0)
(0.000924265 -0.00953121 0)
(-0.00175088 -0.00896354 0)
(-0.00363381 -0.0110631 0)
(0.00280562 -0.0108668 0)
(-0.00211221 -0.012234 0)
(0.000774129 -0.0130048 0)
(-0.000669304 -0.0112748 0)
(-0.000464567 -0.0159765 0)
(-0.00188059 0.00106226 0)
(0.00090464 0.00276513 0)
(0.000568697 -0.0118806 0)
(-0.0020421 -0.00680715 0)
(-0.00180313 -0.0104747 0)
(0.00538486 -0.0152634 0)
(0.00570057 -0.0130261 0)
(0.00418292 -0.0110124 0)
(0.00522996 -0.00982374 0)
(-0.00634335 -0.0108269 0)
(0.000457187 -0.0104829 0)
(-0.00667975 -0.00861185 0)
(0.00112353 -0.00851227 0)
(-0.00365561 -0.00545674 0)
(0.00141165 -0.0074556 0)
(-0.000397109 -0.00759589 0)
(-0.000945312 -0.0067025 0)
(0.000418418 -0.00989265 0)
(-0.00154695 -0.00914631 0)
(-0.000839384 -0.0106184 0)
(0.00104699 -0.00684908 0)
(-0.000845355 -0.00885704 0)
(0.00124965 -0.00702119 0)
(0.000282846 -0.00379674 0)
(0.00129008 -0.0085502 0)
(0.000293606 -0.00731828 0)
(0.000903454 -0.00555336 0)
(0.000706891 -0.00568152 0)
(0.000368194 -0.00459962 0)
(-8.15319e-05 -0.00513813 0)
(-0.0016023 -0.00557551 0)
(0.000478781 -0.00105403 0)
(-0.000903027 -0.00352699 0)
(-0.000306952 -0.00153436 0)
(-0.00149615 -0.00399243 0)
(0.00119809 -0.00712296 0)
(0.00104157 -0.00689688 0)
(-0.000600232 -0.00562786 0)
(0.000955738 -0.00574823 0)
(-0.000841208 -0.00625827 0)
(0.000122713 -0.00506965 0)
(-0.00330035 -0.00488539 0)
(-0.00536416 0.00194337 0)
(0.00591968 0.000620927 0)
(0.00468156 -0.00349513 0)
(0.00236786 -0.00292878 0)
(0.00323663 -0.0025649 0)
(0.00485593 -0.000318485 0)
(0.00772917 0.000802532 0)
(-0.00365181 0.00247709 0)
(-0.00217553 -0.00488226 0)
(0.0026942 -0.0105981 0)
(-0.00160819 -0.0131567 0)
(0.00116374 -0.0190954 0)
(-0.00259989 -0.02082 0)
(0.00449172 -0.0121209 0)
(-0.0026397 0.00301914 0)
(0.00513206 -0.0035463 0)
(-0.00144024 0.0071037 0)
(-0.00124066 -0.00286092 0)
(-0.00699141 0.00137126 0)
(-0.00389125 -0.0024279 0)
(-0.00225672 -0.010274 0)
(-0.00469951 -0.00894873 0)
(-0.00225452 -0.00938346 0)
(-0.00135764 -0.0144364 0)
(-0.00103691 -0.00992076 0)
(-0.000457884 -0.00982616 0)
(-0.00261159 -0.0132857 0)
(-0.00103429 -0.00702687 0)
(-0.000934778 -0.00786179 0)
(-0.00227412 -0.0133714 0)
(-1.74851e-05 -0.0111567 0)
(0.000380196 -0.0110926 0)
(0.00114976 -0.0104557 0)
(0.00796144 -0.00279724 0)
(-0.0031283 -0.00575613 0)
(0.000365084 -0.0145165 0)
(-0.00338619 -0.0123835 0)
(-0.0056784 -0.00707011 0)
(0.00708209 -0.00770286 0)
(0.00377829 -0.0121605 0)
(-0.000768775 -0.00906703 0)
(0.00370249 -0.0121095 0)
(-0.00317656 -0.00758469 0)
(-0.00208601 -0.00732778 0)
(-0.00289625 -0.0104593 0)
(-0.00105798 -0.00935879 0)
(-0.00104081 -0.0090226 0)
(0.00025534 -0.00783142 0)
(0.00172165 -0.0110247 0)
(-0.00100476 -0.0068365 0)
(0.000157812 -0.00837735 0)
(-0.0012052 -0.00790568 0)
(-0.00127672 -0.00756727 0)
(0.00113409 -0.00573474 0)
(-0.0016374 -0.00691721 0)
(0.0029727 -0.00628506 0)
(-0.00101834 -0.00460229 0)
(-0.000491841 -0.00669726 0)
(0.000284555 -0.0080084 0)
(0.000479822 -0.00658605 0)
(0.000308547 -0.00710565 0)
(-1.75715e-05 -0.00552126 0)
(-0.000172309 -0.00785748 0)
(0.00132237 -0.0062139 0)
(-0.00234 -0.00304698 0)
(-0.00516081 -0.00313722 0)
(0.00716863 0.00022051 0)
(0.00295582 -0.00461334 0)
(0.000307058 -0.00626544 0)
(0.000723428 -0.00818502 0)
(-0.000149118 -0.00593288 0)
(-0.000218024 -0.00457049 0)
(-0.000400332 -0.00709125 0)
(-0.000257958 -0.00702743 0)
(-0.000688978 -0.0108007 0)
(0.000152714 0.00471612 0)
(-0.00042443 0.00372345 0)
(0.00184534 -0.0100324 0)
(-0.000173808 -0.00747187 0)
(0.00375616 -0.0049751 0)
(0.00191819 -0.00389275 0)
(0.00555956 -0.0022983 0)
(0.00145294 -0.00201138 0)
(0.00262705 -0.00395647 0)
(0.00339916 -0.00269135 0)
(0.00461889 -0.00365291 0)
(0.00303782 -0.00322968 0)
(0.00767206 -0.0028457 0)
(-0.00180863 -0.0194783 0)
(-0.00717955 -0.000534082 0)
(-0.000705987 0.00018429 0)
(-0.0030553 0.000614577 0)
(0.00138956 -0.00161582 0)
(0.000844058 -0.00350816 0)
(-0.00304391 -0.00649242 0)
(-0.00275629 -0.00976643 0)
(-0.000153827 -0.00988844 0)
(-0.00291915 -0.01014 0)
(-0.00277231 -0.0101837 0)
(-0.000549035 -0.0082678 0)
(-0.00367799 -0.011814 0)
(-0.000718447 -0.00966947 0)
(0.00142996 -0.00742132 0)
(-0.00288049 -0.0103231 0)
(-0.001538 -0.0093997 0)
(0.00147973 -0.0100787 0)
(0.000789167 -0.0117466 0)
(-0.000750327 -0.0123205 0)
(0.00335112 -0.00917837 0)
(-0.00337704 -0.0113825 0)
(-0.00253344 -0.0141134 0)
(0.00038325 -0.0106969 0)
(0.00119469 0.00491335 0)
(0.00169457 0.000355823 0)
(0.00202113 -0.0154563 0)
(0.000849767 -0.00788938 0)
(-0.00163496 -0.00679558 0)
(0.00182468 -0.00981757 0)
(-0.00336647 -0.00465145 0)
(0.0020713 -0.0047078 0)
(-0.00229824 -0.00680385 0)
(0.000875889 -0.00401293 0)
(-0.00437471 -0.00464367 0)
(-0.000901712 -0.00508238 0)
(-0.00272049 -0.00303642 0)
(-0.00193901 -0.00409484 0)
(-0.000935358 -0.00454242 0)
(-0.000785474 -0.00447083 0)
(-0.000742153 -0.0044189 0)
(-0.000697221 -0.00564383 0)
(0.00106892 -0.00446902 0)
(0.000217867 -0.00531639 0)
(0.000804597 -0.00740061 0)
(0.0014927 -0.00582832 0)
(0.00186419 -0.00785008 0)
(0.000824664 -0.00839498 0)
(0.000606744 -0.00816648 0)
(-0.000990065 -0.0064483 0)
(0.00119387 -0.00729302 0)
(-0.00227155 -0.00969289 0)
(0.000452226 0.00451408 0)
(-0.000454876 0.00522798 0)
(-0.00147158 -0.012173 0)
(-0.000865937 -0.0106465 0)
(0.000164365 -0.00903107 0)
(-0.000631806 -0.00937793 0)
(0.00111639 -0.00943207 0)
(0.00068766 -0.00925397 0)
(0.00055109 -0.00673498 0)
(0.00388931 -0.00596114 0)
(0.00652922 0.0010485 0)
(-0.0048754 -0.00084298 0)
(-0.00181993 -0.00542349 0)
(-0.000658112 -0.00536287 0)
(0.00223362 -0.0038538 0)
(0.000675079 -0.0026594 0)
(0.0031343 -0.000615407 0)
(0.00113916 0.000611817 0)
(0.00171885 0.00325865 0)
(0.00189929 0.00475543 0)
(0.00212552 0.00530205 0)
(0.00158773 0.00731823 0)
(0.00236705 0.00914714 0)
(0.0267371 -0.0199379 0)
(-0.00268401 0.0142052 0)
(-0.0111899 -0.000506089 0)
(-0.0053815 -0.00181587 0)
(0.00301828 -0.00387154 0)
(0.00201936 -0.00508989 0)
(-0.000676461 -0.00686091 0)
(-0.000589429 -0.0056696 0)
(-0.0013917 -0.00484455 0)
(-0.00252142 -0.00608895 0)
(-0.00239652 -0.00527753 0)
(-0.00252021 -0.00505851 0)
(-0.00241367 -0.00656243 0)
(0.000994509 -0.00637703 0)
(-0.001601 -0.00610666 0)
(5.88397e-05 -0.00752082 0)
(-0.00112469 -0.00672611 0)
(0.000205075 -0.00653802 0)
(-5.01005e-05 -0.00995193 0)
(0.00188572 -0.00549543 0)
(0.00249366 -0.00330015 0)
(9.64424e-05 -0.00662586 0)
(0.00222251 -0.00725455 0)
(0.00464432 -0.00444386 0)
(0.00509448 -5.96416e-05 0)
(-0.00633473 -0.000137965 0)
(-0.0029829 -0.00334223 0)
(0.000510555 -0.00218405 0)
(-0.0051959 -0.00151808 0)
(-0.00200567 0.000479847 0)
(-0.00171079 0.00369185 0)
(0.000309057 0.00492243 0)
(-0.000275692 0.00513229 0)
(-0.000503539 0.00449156 0)
(-0.00179819 0.00337127 0)
(-0.00107517 0.00126641 0)
(-0.000411305 -0.000970545 0)
(-0.00118964 -0.00118051 0)
(6.84929e-05 -0.00114768 0)
(-0.000632844 -0.000734041 0)
(0.000650007 -0.000579305 0)
(0.000559658 -9.41443e-05 0)
(0.00125405 -0.000216013 0)
(0.000210005 0.000293121 0)
(0.00195431 -0.00132925 0)
(0.000397602 -0.00159404 0)
(0.00196288 -0.00234752 0)
(-0.000575271 -0.00418513 0)
(0.00179592 -0.00386945 0)
(-0.000197283 -0.00530333 0)
(0.00261872 -0.00575358 0)
(0.00256472 -0.00335003 0)
(0.0082472 -0.00179355 0)
(-0.0044698 -0.00242543 0)
(-0.000425353 -0.00599909 0)
(0.00066617 -0.00792196 0)
(0.000779685 -0.0105508 0)
(0.000864285 -0.00991449 0)
(-0.00152065 -0.00828062 0)
(-0.00131572 -0.0122161 0)
(-0.00289514 -0.0092951 0)
(0.000318187 -0.0084205 0)
(-0.000565281 -0.00610535 0)
(-0.00139366 -0.00560874 0)
(-0.00119287 -0.00752982 0)
(-0.000119486 -0.00560947 0)
(0.000161957 -0.00426444 0)
(-0.000399351 -0.00368106 0)
(-0.00013727 -0.00171833 0)
(-0.000256486 -0.00252636 0)
(-0.00180096 -0.00209175 0)
(0.00111197 -0.00167022 0)
(0.00117083 -0.00301002 0)
(0.00138502 -0.000966041 0)
(0.00209868 0.000378227 0)
(-0.0204551 -0.0290479 0)
(0.00392473 -0.0102367 0)
(-0.0140143 -0.0100638 0)
(-0.00240707 0.00963615 0)
(-0.00520703 -0.000100681 0)
(-0.00394115 -0.00877511 0)
(-0.00136463 -0.00724594 0)
(-0.00341508 -0.00368181 0)
(-0.00272403 -0.00306976 0)
(-0.00255995 -0.00287036 0)
(-0.00246303 -0.00270769 0)
(-0.00171641 -0.00284253 0)
(-0.00110619 -0.00439294 0)
(0.000286864 -0.00233436 0)
(-0.000716172 -0.00277068 0)
(-0.00121227 -0.00332162 0)
(-0.00025476 -0.00371919 0)
(-0.00260257 -0.00424062 0)
(-0.00126982 -0.00514465 0)
(0.00286098 -0.00345822 0)
(0.0011312 -0.00391085 0)
(0.000202401 -0.00498568 0)
(0.00063868 -0.0039938 0)
(0.000137916 -0.0010141 0)
(0.000348406 0.000541253 0)
(-0.00285432 -0.000169899 0)