/*--------------------------------*- C++ -*----------------------------------*\
  =========                 |
  \\      /  F ield         | OpenFOAM: The Open Source CFD Toolbox
   \\    /   O peration     | Website:  https://openfoam.org
    \\  /    A nd           | Version:  12
     \\/     M anipulation  |
\*---------------------------------------------------------------------------*/
FoamFile
{
    format      ascii;
    class       volVectorField;
    location    "0.75";
    object      U.water_0;
}
// * * * * * * * * * * * * * * * * * * * * * * * * * * * * * * * * * * * * * //

dimensions      [0 1 -1 0 0 0 0];

internalField   nonuniform List<vector> 
3750
(
(0.00429395 -0.0129447 0)
(-0.00875525 0.00091549 0)
(-0.00222018 -0.00702551 0)
(-0.00290973 0.00767214 0)
(-0.00346812 0.00201636 0)
(-0.00234822 0.00974101 0)
(-0.00354904 0.00764198 0)
(-0.000825978 0.010114 0)
(-0.00157961 0.0101561 0)
(-0.000359825 0.0110829 0)
(-4.56761e-05 0.0104701 0)
(-0.000576189 0.0102089 0)
(0.00282332 0.0113806 0)
(0.000778437 0.0130204 0)
(5.43971e-06 0.0149911 0)
(0.00168829 0.0123933 0)
(-0.00040754 0.0136375 0)
(0.00238847 0.0110507 0)
(7.90501e-06 0.00939249 0)
(0.00156201 0.00856666 0)
(0.000972384 0.0094495 0)
(8.4127e-05 0.00983205 0)
(0.000726751 0.00758866 0)
(0.00228845 0.0061103 0)
(0.00665225 0.0270341 0)
(-0.00726392 0.0274058 0)
(-0.00370403 0.00691829 0)
(-0.00122783 0.0106044 0)
(-0.00181863 0.0141826 0)
(-0.00637092 0.0206117 0)
(0.00417293 0.0216797 0)
(0.000671631 0.0193171 0)
(-0.00147545 0.0154703 0)
(4.59824e-05 0.0164199 0)
(-0.000522803 0.0179041 0)
(-0.000614934 0.0170343 0)
(0.000530415 0.016487 0)
(-0.000278229 0.0168141 0)
(0.000220069 0.017077 0)
(-0.000581897 0.0193607 0)
(0.00106513 0.0190609 0)
(-0.000529549 0.019828 0)
(-0.00170452 0.0206727 0)
(-0.000742298 0.0216879 0)
(0.000543688 0.0217206 0)
(0.000515588 0.0220819 0)
(0.00118279 0.0201445 0)
(0.00207402 0.0171408 0)
(-0.0012361 0.0159989 0)
(0.00103677 0.0107144 0)
(-0.00217396 0.00983341 0)
(-0.000408665 0.00960027 0)
(-0.00153908 0.0118677 0)
(-0.0011118 0.0131205 0)
(0.00308175 0.013076 0)
(0.00108087 0.01154 0)
(0.000873367 0.00995811 0)
(0.00210987 0.0095779 0)
(0.00255712 0.00739401 0)
(0.0066092 0.0281301 0)
(-0.00645822 0.0293992 0)
(-0.00352262 0.00823046 0)
(0.000145228 0.0103422 0)
(-0.00108694 0.0117573 0)
(-0.00194019 0.0119961 0)
(-0.00245508 0.0133464 0)
(0.00178891 0.00717023 0)
(0.00667571 0.0280382 0)
(-0.00629062 0.0273756 0)
(-0.00346673 0.00871294 0)
(-0.00333897 0.00609813 0)
(8.18393e-05 0.00819131 0)
(-0.00100401 0.0100142 0)
(0.00173023 0.0105994 0)
(-0.000373836 0.0162153 0)
(0.00294982 -0.00136559 0)
(0.00861819 0.00179096 0)
(-0.00961925 -0.00453413 0)
(-0.00216792 0.0046899 0)
(-0.00344159 -0.000395111 0)
(5.91078e-06 0.00591634 0)
(-3.55051e-05 0.00170749 0)
(0.00155295 0.00438884 0)
(-0.00228034 0.00428164 0)
(-0.00101769 0.00669771 0)
(-0.002555 0.00242783 0)
(-0.00288758 0.005891 0)
(-0.00111267 0.00695542 0)
(0.000274778 0.00701921 0)
(-0.00054608 0.0123472 0)
(0.000815308 0.0130498 0)
(-0.000428788 0.0142581 0)
(0.00218634 0.0134551 0)
(0.000548404 0.0124164 0)
(0.00232719 0.0121888 0)
(0.000692665 0.0112904 0)
(-7.67137e-05 0.0110291 0)
(0.000239345 0.0100609 0)
(0.00300337 0.0109537 0)
(0.00749156 0.016385 0)
(-0.00844352 0.0163559 0)
(-0.0042931 0.0119684 0)
(-0.00241667 0.00914969 0)
(-0.000170265 0.00678706 0)
(-0.00113563 0.0225051 0)
(0.000368237 0.0237815 0)
(-0.00118984 0.00655513 0)
(-0.0022222 0.00813297 0)
(-0.00018221 0.0109962 0)
(-0.00190074 0.0111083 0)
(-0.00115758 0.0124762 0)
(-2.02059e-05 0.0135412 0)
(-0.000373787 0.0118953 0)
(0.000692045 0.0114999 0)
(2.6469e-06 0.0114856 0)
(0.00107826 0.0106634 0)
(-0.00089111 0.0105731 0)
(-0.00456104 0.0174619 0)
(7.97808e-06 0.0236722 0)
(0.00119521 0.0254782 0)
(0.000276908 0.0278276 0)
(0.00139705 0.0298117 0)
(0.00447459 0.0274758 0)
(0.00279444 0.0291604 0)
(0.00426788 0.0262682 0)
(0.00205953 0.0193322 0)
(0.00129656 0.0207998 0)
(-0.00195955 0.0184081 0)
(-0.00728966 0.0218405 0)
(0.00347003 0.0188594 0)
(0.00254756 0.0129732 0)
(-0.00155165 0.0156667 0)
(0.00188989 0.0175441 0)
(0.0018544 0.0182326 0)
(0.00871607 0.0261442 0)
(-0.00963699 0.0253878 0)
(-0.00313107 0.0167052 0)
(0.000633006 0.0166951 0)
(0.000364039 0.0143069 0)
(-0.00016673 0.0145534 0)
(-0.00476619 0.017636 0)
(0.0112017 0.0158254 0)
(0.0126676 0.0146057 0)
(-0.0102684 0.0117248 0)
(-0.00311974 0.00582645 0)
(-0.00613904 0.00618629 0)
(-0.000977554 0.00659303 0)
(-0.000289785 0.00800045 0)
(0.00221724 0.00845182 0)
(0.000212352 0.0125068 0)
(0.0004205 -0.0333849 0)
(-0.00193689 0.0102861 0)
(-0.00819432 -0.0144598 0)
(-0.00784909 0.000392859 0)
(-0.00334902 -0.00798513 0)
(-0.00322881 0.000403117 0)
(-0.00312346 -0.00298361 0)
(-0.00296886 -0.00198218 0)
(-0.00350609 -0.004118 0)
(-0.0020052 -0.00449155 0)
(-0.00470765 -0.0101044 0)
(0.00266528 -0.00885457 0)
(-0.00368246 -0.0100732 0)
(-3.74531e-05 -0.0106738 0)
(-0.00117688 -0.00725169 0)
(-0.00100115 -0.00666053 0)
(0.00162345 -0.00328798 0)
(0.00174942 -0.00288284 0)
(0.00155705 -0.00143245 0)
(0.00299336 -0.00174091 0)
(0.00193464 -0.00186813 0)
(0.0006805 -0.00145911 0)
(0.00293963 -0.00298036 0)
(0.00188055 -0.00199571 0)
(0.000938245 -0.000384431 0)
(-0.00268469 0.00065835 0)
(-0.0025657 -0.000349518 0)
(-0.00237605 -0.000934814 0)
(0.00157162 0.00120563 0)
(0.0057897 0.0068007 0)
(-0.00558798 0.00975628 0)
(-0.00400366 0.0033376 0)
(-0.00149622 0.00353042 0)
(-0.00142084 0.00490025 0)
(-0.00136399 0.00360367 0)
(0.000147759 0.00486217 0)
(0.000131543 0.00277499 0)
(0.00137894 0.000394462 0)
(0.00189261 0.000687543 0)
(-7.20228e-05 0.00011816 0)
(-0.001618 0.00178112 0)
(-0.000461812 -0.00202518 0)
(0.00619989 0.0069182 0)
(-0.00113133 0.0160439 0)
(-0.00299194 0.013221 0)
(-0.00483066 0.0147496 0)
(-0.000705309 0.0151907 0)
(0.00145265 0.0138043 0)
(0.00523344 0.0159559 0)
(0.00211101 0.0163448 0)
(0.00550799 0.0131476 0)
(0.000538549 0.0124876 0)
(0.00452673 0.00693709 0)
(0.00119859 0.0175339 0)
(0.00126209 0.019083 0)
(0.00264225 -0.000812569 0)
(0.000655965 -0.000138552 0)
(9.75722e-05 0.003546 0)
(0.000952813 0.00380595 0)
(0.00168844 0.00756076 0)
(-0.00234173 0.00710328 0)
(-0.000240688 0.00726565 0)
(0.00183279 0.00353922 0)
(0.00168821 0.00159056 0)
(0.00441549 -0.00254854 0)
(0.00207411 0.0139667 0)
(0.00367159 0.0144931 0)
(0.000803363 -0.00402188 0)
(-0.00452238 0.00127533 0)
(-0.00421098 0.0016779 0)
(-0.00423167 -0.00360881 0)
(-0.00317182 0.000988784 0)
(-0.000193279 -0.000279686 0)
(-0.000363289 0.000211442 0)
(0.00242989 0.00316922 0)
(0.00615461 -0.0124357 0)
(-0.00286583 0.00333311 0)
(-0.00388592 -0.00982194 0)
(-0.00555706 -0.00123073 0)
(-0.00217792 -0.0063857 0)
(-0.00139946 -0.00475587 0)
(0.002989 -0.0077158 0)
(0.00259075 -0.00813709 0)
(0.00310496 -0.0116992 0)
(0.00117951 -0.01644 0)
(-0.00109515 -0.0158516 0)
(-0.000419638 -0.0142788 0)
(-0.00542471 -0.0178009 0)
(-0.00149049 -0.0165579 0)
(-0.00292509 -0.0173662 0)
(-0.00201944 -0.0142809 0)
(-0.00130993 -0.0119529 0)
(-0.000470765 -0.0131843 0)
(-0.000644693 -0.00937736 0)
(0.000137828 -0.007625 0)
(0.000208823 -0.00826404 0)
(0.00169105 -0.00574552 0)
(0.00140115 -0.00431198 0)
(0.000366756 -0.00341844 0)
(-0.00097102 -0.00181717 0)
(-0.00362778 -0.00194143 0)
(-0.00299294 -0.00248202 0)
(-0.00330475 -0.00237037 0)
(-0.00154976 -0.00272634 0)
(-0.00288388 0.000135719 0)
(-0.00387081 -6.47214e-05 0)
(-0.00638425 -0.00279252 0)
(-0.00226395 -0.00208875 0)
(-0.00435379 -0.00227422 0)
(0.00189763 -0.00315112 0)
(0.00271194 -0.0056742 0)
(0.00220156 -0.00751427 0)
(0.0016354 -0.00796064 0)
(0.000589262 -0.00554517 0)
(-0.00135108 -0.00291003 0)
(-0.00106609 -0.000273551 0)
(-0.000854695 0.00654951 0)
(0.00388429 0.000253945 0)
(-0.00157988 -0.00898283 0)
(-0.00230926 -0.00752904 0)
(-0.00186497 -0.00351109 0)
(0.000550829 -0.00286146 0)
(0.00284552 -0.00757936 0)
(0.00397286 -0.0032042 0)
(0.00491642 -0.0017933 0)
(0.0038819 -0.00433228 0)
(0.00305145 -0.00147625 0)
(0.00325982 -0.000897608 0)
(0.00993775 0.00026164 0)
(-0.00211463 0.00340863 0)
(-3.70943e-05 -0.00235489 0)
(-0.00109649 -0.00266382 0)
(0.00197845 -0.000637311 0)
(-0.0010445 0.000354695 0)
(-0.000962328 0.00190122 0)
(-0.000232055 0.00182778 0)
(0.000741952 0.00111154 0)
(0.0036095 0.00020204 0)
(0.00289845 -0.00273937 0)
(0.00287869 -0.00205542 0)
(0.0111471 0.000987977 0)
(-0.00506572 0.00133879 0)
(-0.0023449 -0.00466105 0)
(0.000327812 -0.00503301 0)
(-0.00416707 -0.00571382 0)
(-0.000683912 -0.00581483 0)
(-0.00183678 -0.00165567 0)
(-0.00134262 -0.00268001 0)
(-6.74915e-05 -0.0020369 0)
(-0.00127492 -0.000382722 0)
(0.00145513 -0.00952329 0)
(0.000633397 0.000824499 0)
(-0.00446514 -0.00898486 0)
(-0.00504181 0.00129196 0)
(-0.0035794 -0.00699977 0)
(-0.00460149 0.000736143 0)
(-0.00233585 -0.000598123 0)
(0.00084022 0.00405763 0)
(0.00307577 0.00471578 0)
(0.00305037 0.00446663 0)
(-0.000569013 0.00401763 0)
(-0.000572043 0.000818215 0)
(-0.00501722 -0.000606332 0)
(-0.00129764 -0.00195342 0)
(-0.000993367 -0.00422055 0)
(0.000306958 -0.00501938 0)
(-0.00224552 -0.00535385 0)
(-0.00166005 -0.00612299 0)
(0.000263804 -0.00602901 0)
(-0.0019826 -0.00472095 0)
(0.00030114 -0.00509489 0)
(-0.000616672 -0.00189492 0)
(0.000195111 -0.00140508 0)
(-0.000526182 -0.000527703 0)
(-0.000946412 -0.000625123 0)
(-0.00137286 -0.00133871 0)
(-0.00187926 -0.00216573 0)
(-0.00198584 -0.00395642 0)
(8.19763e-05 -0.00443637 0)
(5.28255e-05 -0.00461001 0)
(-0.000599855 -0.00295628 0)
(-0.00172383 -0.00603078 0)
(-0.00209361 -0.0043208 0)
(-0.00741897 9.98868e-06 0)
(0.00842012 -0.00106542 0)
(0.00323916 -0.00390502 0)
(0.00163389 -0.00386067 0)
(-0.000517044 -0.000610961 0)
(-0.00152234 -0.000546308 0)
(-0.0023013 0.000179782 0)
(-0.00360132 0.00165566 0)
(-0.0026396 -0.00130972 0)
(-0.0109786 -0.00786536 0)
(-0.00109691 -0.00966308 0)
(-0.0020424 -0.0122735 0)
(-0.000709947 -0.011779 0)
(-0.0021434 -0.00968624 0)
(0.000543651 -0.0126624 0)
(0.00174844 -0.00913243 0)
(0.00139319 -0.00535053 0)
(0.00292099 -0.00818905 0)
(0.00516244 -0.00833588 0)
(0.00127389 -0.00674291 0)
(0.00341655 -0.0045151 0)
(-0.000781835 -0.00442884 0)
(-0.00152219 -0.00677652 0)
(0.00192458 -0.00497624 0)
(0.00130159 -0.0040819 0)
(0.00128249 -0.00740818 0)
(0.000978752 -0.0030858 0)
(-0.00509958 -0.00182048 0)
(0.00543397 -0.00189376 0)
(0.0047262 -0.00667396 0)
(0.00212617 -0.0118728 0)
(0.00239035 -0.0054021 0)
(0.00445735 -0.00340403 0)
(0.000251269 -0.00734264 0)
(-0.00144044 -0.00468951 0)
(-0.00209139 -0.00414481 0)
(-0.00403608 -0.00312205 0)
(-0.0038379 -0.00339441 0)
(-0.00215701 -0.00121146 0)
(-0.00296913 -0.000189588 0)
(0.000451549 -0.00406645 0)
(-0.00139428 -0.00105747 0)
(0.00245953 -0.0165471 0)
(0.00371192 -0.00147803 0)
(-0.00482956 -0.00600644 0)
(-0.00764481 -0.00487767 0)
(-0.00262742 -0.00926982 0)
(-0.0063061 -0.00770438 0)
(-0.000819549 -0.00661184 0)
(-0.00222801 -0.00114073 0)
(0.00052992 -0.000489628 0)
(0.00281304 -0.00244116 0)
(-0.000674299 3.42301e-05 0)
(0.00442812 -0.000753995 0)
(7.76655e-05 -0.00334482 0)
(0.00191482 -0.000214834 0)
(0.000753093 -0.00273076 0)
(0.000650463 -0.00273247 0)
(-0.00123425 -0.00263896 0)
(-0.000855492 -0.00325009 0)
(0.000334261 -0.00298235 0)
(-0.00227037 -0.00269347 0)
(-0.000598934 -0.00416441 0)
(-0.00177305 -0.00474795 0)
(0.000447425 -0.00394668 0)
(-0.00149812 -0.00503893 0)
(-0.000934964 -0.0036731 0)
(-0.00133144 -0.00454023 0)
(-0.00122293 -0.00478787 0)
(-0.000900347 -0.0037353 0)
(-0.00200932 -0.00286845 0)
(-0.00209038 -0.000255051 0)
(-0.00568201 0.0022818 0)
(-0.00163649 0.00442103 0)
(-0.00227616 0.00169648 0)
(-0.00153964 0.0181533 0)
(-0.000849049 0.018763 0)
(-0.00181622 0.00325782 0)
(-1.45129e-05 0.00737036 0)
(-0.00229681 0.00854483 0)
(-0.00122442 0.00800283 0)
(-0.00190316 0.00436852 0)
(-0.00131766 0.00154233 0)
(-0.000748282 -0.00496582 0)
(-0.00231614 -0.0053253 0)
(0.000520871 -0.00580978 0)
(-0.00193167 -0.0113723 0)
(-0.00136965 -0.00799787 0)
(-0.00115928 -0.00843933 0)
(-0.00039239 -0.00941563 0)
(0.00112298 -0.00854218 0)
(0.00207037 -0.00645992 0)
(0.00172957 -0.00649407 0)
(0.00282512 -0.00687527 0)
(0.0051893 -0.00417351 0)
(0.00289993 -0.00535309 0)
(0.00194424 -0.00734092 0)
(-0.00015143 -0.00646034 0)
(0.00472335 -0.00698508 0)
(-0.00135586 -0.00873757 0)
(0.00213603 -0.00705706 0)
(0.000697557 -0.00956887 0)
(-0.000347605 0.00127172 0)
(0.00228609 0.00587744 0)
(-0.000299429 -0.0109562 0)
(0.0031941 -0.0152742 0)
(0.00455337 -0.00954782 0)
(0.00025108 -0.00728945 0)
(9.34481e-06 -0.00495064 0)
(-0.00165027 -0.00421098 0)
(-0.00211554 -0.00275736 0)
(-0.00333797 -0.00286994 0)
(-0.00356836 -0.00197347 0)
(-0.00218897 -0.00054289 0)
(-0.00397972 -0.000265682 0)
(-0.0015849 -0.000752781 0)
(0.000122634 -0.000234769 0)
(0.00175473 -0.0188237 0)
(-0.000562758 -0.000173605 0)
(-0.00496669 -0.00759514 0)
(-0.00375198 -0.00448203 0)
(-0.00220482 -0.010564 0)
(-0.0050195 -0.0054232 0)
(-0.000552943 -0.00775864 0)
(-0.00375185 -0.0114876 0)
(-0.0013459 -0.00587936 0)
(-0.00243528 -0.00816174 0)
(0.00162499 -0.00349527 0)
(-0.000839407 -0.00217097 0)
(0.00140089 -0.00388657 0)
(0.00136262 0.000288644 0)
(-0.000883738 -0.0015869 0)
(0.000732316 0.000240855 0)
(-0.000888737 -0.00175374 0)
(-0.0019825 -0.000214912 0)
(-0.00156383 -0.000509055 0)
(-0.00164588 -0.000361939 0)
(-8.18975e-05 -0.000413286 0)
(-0.000537383 -0.000309292 0)
(0.000270093 -0.00133744 0)
(-0.00404795 -0.00231286 0)
(0.0014909 -0.00199602 0)
(-0.00253526 -0.0013204 0)
(-0.00180782 0.000639175 0)
(-0.00210789 0.000938824 0)
(-0.00372728 0.00126574 0)
(-0.00476872 0.00281644 0)
(-0.0113927 0.00703045 0)
(0.00398998 0.00360378 0)
(0.00144498 -0.00376891 0)
(0.00625621 0.000367341 0)
(-0.00687281 -0.00200091 0)
(-0.00322397 -0.00589648 0)
(-0.000302588 -0.00761306 0)
(0.000314177 -0.0103264 0)
(0.00154311 -0.00920929 0)
(0.00107465 -0.0116743 0)
(0.000599366 -0.00941125 0)
(-0.000414515 -0.0124686 0)
(0.00178874 -0.0123442 0)
(-0.00276518 -0.0115386 0)
(-0.000571771 -0.0131731 0)
(-6.26345e-05 -0.0112563 0)
(-0.00288672 -0.00942841 0)
(-0.000516136 -0.0111723 0)
(-0.00579096 -0.00551741 0)
(0.00881409 -0.00428782 0)
(0.00118271 -0.00884089 0)
(-0.00371594 -0.00376946 0)
(0.00915532 -0.00369802 0)
(0.00232145 -0.00620961 0)
(0.000676807 -0.00674455 0)
(0.000365409 -0.00606618 0)
(-0.000155955 -0.00703805 0)
(0.00186306 -0.00834658 0)
(0.00241751 -0.0076917 0)
(0.00515247 -0.00838747 0)
(0.00927353 -0.00692329 0)
(-0.000728663 -0.0048973 0)
(-0.00193465 -0.00920943 0)
(0.00110976 -0.00936437 0)
(0.000505329 -0.0076099 0)
(0.00022432 -0.00503591 0)
(-0.00202161 -0.00499609 0)
(-0.00195093 -0.00357143 0)
(-0.00336955 -0.00327669 0)
(-0.00431329 -0.00338298 0)
(-0.00457842 -0.00368492 0)
(-0.00231636 -0.0038167 0)
(-0.00356348 -0.00293973 0)
(-0.00124397 -0.00260151 0)
(-0.00183358 -0.00309944 0)
(0.00731521 -0.0114791 0)
(-0.00136551 0.00249827 0)
(-0.00141794 -0.0054681 0)
(-0.00250108 -0.00275984 0)
(-0.00235315 -0.00931827 0)
(-0.00318302 -0.00568889 0)
(-0.00618159 -0.00752244 0)
(-0.00588794 -0.00749745 0)
(-0.00461282 -0.00649795 0)
(-0.00527846 -0.0088972 0)
(0.00102507 -0.00542857 0)
(-0.0011648 -0.00668736 0)
(0.00404326 -0.00386895 0)
(0.0021647 -0.00119357 0)
(0.00138804 -0.00123883 0)
(0.000515081 0.000638902 0)
(-0.00146767 -0.00072984 0)
(-0.00311665 0.00079371 0)
(-0.000742424 0.00102967 0)
(-0.00229555 0.00280345 0)
(0.000446733 0.00110908 0)
(-0.00457474 0.00152256 0)
(0.000711771 -0.000637194 0)
(-0.00161905 0.000696185 0)
(-0.000596073 0.00380036 0)
(-0.000244628 -0.00071167 0)
(-0.00149731 0.00350201 0)
(-0.00134742 0.00235443 0)
(-0.00250738 0.00165622 0)
(-0.00124676 -0.003317 0)
(-0.000531545 0.0114667 0)
(0.00147831 0.00892571 0)
(0.000559858 -0.00861969 0)
(0.00165353 -0.00371025 0)
(-0.00121874 -0.00485311 0)
(-0.00224736 -0.00566622 0)
(0.000850188 -0.00475732 0)
(0.000751016 -0.00477632 0)
(0.000311343 -0.00393191 0)
(0.000243015 -0.00395777 0)
(-0.00149452 -0.00190777 0)
(0.000140641 -0.00449196 0)
(-0.000638865 -0.00576236 0)
(-0.00205284 -0.00733054 0)
(-0.00125019 -0.0101528 0)
(-0.000175743 -0.0127742 0)
(-0.00164965 -0.0131449 0)
(0.000496606 -0.0167933 0)
(0.00225323 -0.00331803 0)
(0.000900151 -0.00175777 0)
(0.00258867 -0.0201728 0)
(-0.000148135 0.000517103 0)
(0.0019078 0.000675839 0)
(0.00066014 -0.0140756 0)
(-0.00125645 -0.00909735 0)
(0.000744642 -0.00800097 0)
(0.00197975 -0.00768106 0)
(0.000982626 -0.00940066 0)
(0.00446612 -0.00794427 0)
(0.00250937 -0.0050611 0)
(0.00546454 -0.0054599 0)
(-0.000103165 -0.00333496 0)
(0.00156921 -0.00332812 0)
(-0.00019845 -0.00304256 0)
(0.000284983 -0.00313858 0)
(-0.00013117 -0.00293017 0)
(-0.00151875 -0.0030227 0)
(-0.00112785 -0.00312898 0)
(-0.0024262 -0.00544642 0)
(-0.00357539 -0.00687934 0)
(-0.00419639 -0.00586107 0)
(-0.00303108 -0.00513942 0)
(-0.00337921 -0.00608545 0)
(0.000194649 -0.00470463 0)
(2.43278e-05 -0.00540389 0)
(0.00156731 -0.00948655 0)
(-0.00870956 0.0030992 0)
(0.00756313 -0.000127147 0)
(0.00192907 -0.00531058 0)
(-0.00426692 -0.00812145 0)
(-0.00411873 -0.00465319 0)
(-0.00529666 -0.00467354 0)
(-0.0067928 -0.00451515 0)
(-0.0084086 -0.00383348 0)
(-0.00730116 -0.00431192 0)
(-0.00344967 -0.00169245 0)
(-0.00327322 0.00106704 0)
(0.00106718 0.00319547 0)
(-0.000431784 0.00444396 0)
(0.00221196 0.0060267 0)
(-0.00382048 0.00753619 0)
(0.000690314 0.00523996 0)
(-0.0044447 0.00887038 0)
(-0.00297999 0.00691621 0)
(-0.00273503 0.00745136 0)
(-0.00215848 0.00327274 0)
(0.00113618 0.00237775 0)
(-0.00106222 0.00116835 0)
(0.00401503 -0.00392004 0)
(-0.00110975 -0.00023784 0)
(0.000747892 -0.00105955 0)
(-0.00231314 0.000251813 0)
(-0.00192717 -0.000963675 0)
(-0.00177423 -0.00222326 0)
(0.00204871 -0.00201537 0)
(0.00797643 8.68759e-05 0)
(-0.00344707 -0.00318126 0)
(-0.00181245 -0.00837792 0)
(0.000845967 -0.00572946 0)
(-0.00119041 -0.0108098 0)
(-0.00178082 -0.00764691 0)
(-0.00101361 -0.00504904 0)
(-0.00189582 -0.00780467 0)
(-0.000571609 -0.00596256 0)
(0.000365742 -0.00893085 0)
(-0.000981226 -0.00440641 0)
(0.00474052 -0.00624568 0)
(0.00121124 -0.00853554 0)
(0.00247882 -0.00489268 0)
(0.00244745 -0.00831126 0)
(0.00123163 -0.00837081 0)
(0.0028907 -0.00913093 0)
(0.00211216 -0.0100016 0)
(0.00918808 -0.00766828 0)
(-0.00422886 -0.0052709 0)
(0.000525235 -0.00797423 0)
(0.00587593 -0.00484222 0)
(-0.00839331 -0.00424783 0)
(-0.0053264 -0.0112982 0)
(0.000149376 -0.00897537 0)
(-0.00183378 -0.00432813 0)
(-0.000150908 -0.00865943 0)
(-0.000658802 -0.00634009 0)
(0.00354418 -0.0040534 0)
(0.00063166 -0.00524922 0)
(0.00131841 -0.00184825 0)
(0.000750487 -0.00199306 0)
(4.90691e-05 -0.0013919 0)
(0.000141929 -0.00286727 0)
(0.000464762 -0.00179309 0)
(0.000955994 -0.00302905 0)
(-0.00148652 -0.00519921 0)
(-0.000973236 -0.00525681 0)
(-0.00221647 -0.00808183 0)
(-0.00303808 -0.00830294 0)
(-0.00277451 -0.0103833 0)
(-0.00427957 -0.0148316 0)
(-0.00110345 -0.0135471 0)
(-0.00228003 -0.0114863 0)
(0.00187983 -0.0129676 0)
(0.00558825 -0.0195409 0)
(-9.04528e-05 0.0168575 0)
(-0.000467546 0.00470843 0)
(0.00111842 -0.00959675 0)
(-0.00487178 -0.00731831 0)
(-0.00359431 0.00335228 0)
(-0.0093025 -8.08401e-06 0)
(-0.011527 -0.00183712 0)
(-0.00948898 0.000167294 0)
(-0.00744532 0.00015856 0)
(-0.00624559 -0.00011823 0)
(-0.00465877 -0.000147045 0)
(-0.00314892 0.000329768 0)
(-0.00377075 0.000886983 0)
(4.90965e-05 -0.002753 0)
(-0.00527268 -0.000106919 0)
(0.000492605 -0.00137031 0)
(-0.00107587 -0.00440698 0)
(-0.00225876 -0.000233173 0)
(0.000627524 -0.000656834 0)
(-0.00413821 -0.00227197 0)
(-0.000434007 -0.0035087 0)
(-0.00949864 -0.0031691 0)
(0.0044081 -0.00249199 0)
(0.00423102 -0.00439312 0)
(0.00234759 -0.00787303 0)
(0.00108027 -0.00637542 0)
(0.000157998 -0.00844695 0)
(0.00201522 -0.0114392 0)
(0.00171745 -0.0106631 0)
(0.00441617 -0.00811262 0)
(0.00039892 -0.00806657 0)
(0.00257469 -0.0090343 0)
(-0.000789357 -0.0063117 0)
(-0.000518409 -0.0109652 0)
(-0.00254131 -0.00957909 0)
(-0.00191757 -0.0106204 0)
(-0.00134407 -0.0109362 0)
(-0.00135912 -0.0105852 0)
(-0.00140231 -0.0135687 0)
(0.000110905 -0.00678906 0)
(0.000152604 -0.00685671 0)
(-0.00132106 -0.00962573 0)
(0.00226524 -0.00513332 0)
(2.1514e-05 -0.00626718 0)
(0.000944098 -0.00583321 0)
(0.00146242 -0.00511442 0)
(0.00243014 -0.0031577 0)
(0.00337237 -0.00297706 0)
(0.00259916 -0.00383808 0)
(-0.000897967 -0.00569896 0)
(0.00315475 -0.00345746 0)
(-0.00262491 -0.00527681 0)
(-0.00400223 -0.00197736 0)
(0.00209783 -0.00408053 0)
(-0.000346069 -0.00852098 0)
(5.49076e-05 -0.00541062 0)
(0.00188306 -0.00521064 0)
(0.000381835 -0.00558186 0)
(0.00129926 -0.00610786 0)
(0.000884943 -0.00459772 0)
(0.000236495 -0.0038199 0)
(0.000479604 -0.0033041 0)
(0.00139876 -0.00299507 0)
(0.000597035 -0.00179641 0)
(0.00247035 -0.00547833 0)
(-0.00127867 -0.00712067 0)
(0.00208281 -0.0067698 0)
(-0.00106505 -0.00882618 0)
(-0.000968441 -0.00964001 0)
(-0.00011917 -0.0122498 0)
(-0.000998302 -0.0130787 0)
(8.25511e-05 -0.016493 0)
(-0.000780316 -0.0181053 0)
(-0.00250781 -0.0165885 0)
(0.00282606 -0.0144937 0)
(0.0104903 0.00073274 0)
(-0.00896095 -0.000844091 0)
(-0.0022036 -0.00150662 0)
(-0.00479856 -0.00385413 0)
(-0.00836915 0.00104666 0)
(-0.0102077 -0.00457317 0)
(-0.00866309 0.00225715 0)
(-0.00721476 0.00113016 0)
(-0.00160477 -0.0054904 0)
(-0.00225769 -0.00523546 0)
(-0.00231056 -0.00604446 0)
(0.00133247 -0.00905509 0)
(-0.00225076 -0.00800936 0)
(-0.00369535 -0.0133543 0)
(0.00324091 -0.0131268 0)
(-0.00267323 -0.0120267 0)
(0.00122334 -0.0132759 0)
(-0.000800698 -0.00965484 0)
(-0.00177246 -0.0111238 0)
(-0.00454326 -0.0115636 0)
(-0.0026262 -0.0111644 0)
(-0.00235308 -0.00211679 0)
(0.00174655 -0.00152494 0)
(-0.000100643 -0.0151689 0)
(0.00259385 -0.0187397 0)
(0.00200527 -0.0139239 0)
(-8.99307e-05 -0.0100673 0)
(0.00293303 -0.0081718 0)
(-0.00505987 -0.00545918 0)
(0.00812794 -0.00385258 0)
(-0.0028728 -0.00543454 0)
(0.00297197 -0.0066246 0)
(-0.00459542 -0.00367221 0)
(0.0012746 -0.00616121 0)
(-0.000477948 -0.00578289 0)
(-0.00140994 -0.00491009 0)
(-8.99227e-05 -0.00912083 0)
(-0.00212608 -0.00871612 0)
(-0.00102051 -0.0102561 0)
(0.00107628 -0.00622241 0)
(-0.00199184 -0.00851571 0)
(0.000358964 -0.00725984 0)
(8.66068e-05 -0.00447223 0)
(0.00129993 -0.00888708 0)
(0.000388049 -0.0068057 0)
(0.00136673 -0.00401068 0)
(0.00155351 -0.00345318 0)
(0.00117849 -0.00297746 0)
(0.00171539 -0.00622552 0)
(-0.00120162 -0.00695097 0)
(0.000948346 -0.00352285 0)
(-0.00203304 -0.0084177 0)
(-0.000721914 -0.00410074 0)
(-0.00277588 -0.00323286 0)
(0.000977656 -0.00598754 0)
(0.00100041 -0.00538576 0)
(-0.000681371 -0.00383379 0)
(0.00110077 -0.00374885 0)
(-0.000454744 -0.0040205 0)
(0.000915504 -0.00257437 0)
(-0.00124307 -0.00248181 0)
(0.0014553 8.941e-05 0)
(-0.00127261 -0.00158993 0)
(0.00181998 -0.0017034 0)
(0.000603622 -0.00269017 0)
(0.00129855 -0.000765723 0)
(0.00192029 0.000871311 0)
(0.000381814 -0.00510415 0)
(0.00351306 -0.00150969 0)
(0.000616144 -0.00338848 0)
(0.00399129 -0.00873613 0)
(-0.00110553 -0.0110394 0)
(0.0016756 -0.0152764 0)
(-0.00255987 -0.0157612 0)
(0.00633203 -0.0115616 0)
(-0.000603109 0.0015528 0)
(5.84107e-05 -0.0063255 0)
(-0.00468529 0.00340133 0)
(-0.00339634 -0.0075886 0)
(-0.0109625 -0.00304663 0)
(-0.00929685 -0.00497083 0)
(-0.00624273 -0.0100766 0)
(-0.00675498 -0.00783089 0)
(-0.00255946 -0.00854436 0)
(-0.00110405 -0.0140569 0)
(-0.000719636 -0.00922975 0)
(-7.99462e-05 -0.00971541 0)
(-0.00310615 -0.0132181 0)
(-0.00126637 -0.00843849 0)
(-0.000462473 -0.00959432 0)
(-0.00240782 -0.0136956 0)
(-0.000162507 -0.012173 0)
(-0.000381904 -0.0114047 0)
(-0.00179403 -0.0111608 0)
(0.000181635 -0.00826887 0)
(0.00334026 -0.00986425 0)
(0.00484538 -0.00993781 0)
(-0.0037511 -0.0112661 0)
(-0.000634121 -0.0145381 0)
(-0.000819431 -0.0133786 0)
(-0.00120957 -0.0128451 0)
(-0.00612432 -0.00592968 0)
(0.00846844 -0.00822459 0)
(0.00237505 0.00275294 0)
(0.00043058 0.000907922 0)
(-0.00156887 -0.0106463 0)
(-0.000679885 -0.0101442 0)
(-0.00122692 -0.00802199 0)
(-6.23884e-05 -0.00518709 0)
(0.00182364 -0.00997179 0)
(-0.00162649 -0.00616811 0)
(-0.000359109 -0.00762474 0)
(-0.00166127 -0.00732905 0)
(-0.00159181 -0.00698595 0)
(0.000870961 -0.00503242 0)
(-0.00213373 -0.00631231 0)
(0.00253662 -0.00715567 0)
(-0.00153207 -0.00549217 0)
(-0.000873362 -0.00630226 0)
(0.000304186 -0.00715294 0)
(0.000546689 -0.00499773 0)
(0.000430031 -0.0051028 0)
(-0.000904826 -0.00342523 0)
(0.000211879 -0.00811412 0)
(0.00301185 -0.00796119 0)
(-0.00124774 -0.00556677 0)
(0.00203443 -0.00921606 0)
(0.0016153 -0.00383296 0)
(0.00123105 -0.00309746 0)
(-0.000317994 -0.00436405 0)
(0.000407397 -0.00666531 0)
(-0.000444347 -0.00407854 0)
(-0.000407982 -0.00238394 0)
(-0.000480886 -0.00450931 0)
(-0.000302709 -0.00336268 0)
(-0.0012553 -0.00297918 0)
(0.000157464 -0.00429677 0)
(-0.00119299 -0.00599394 0)
(0.000903121 -0.00315257 0)
(-0.0014664 -0.00493976 0)
(0.00395679 -0.00446582 0)
(-0.000609853 -0.00451896 0)
(0.00413748 -0.00422602 0)
(0.00414367 -0.00373608 0)
(0.0043696 -0.00397457 0)
(0.00399709 -0.00177866 0)
(0.0046549 -0.00203322 0)
(0.00279446 -0.00114949 0)
(0.00555761 -0.0039674 0)
(-0.00158307 -0.0185828 0)
(0.000481602 -0.00429024 0)
(-0.00795395 -0.00525994 0)
(-0.00714694 -0.00366419 0)
(-0.00485571 -0.00657341 0)
(-0.00338337 -0.00772445 0)
(-0.00500888 -0.00848059 0)
(-0.00380198 -0.00842909 0)
(0.000542822 -0.00700009 0)
(-0.00270005 -0.00851863 0)
(-0.00237621 -0.00932748 0)
(7.47606e-06 -0.00768481 0)
(-0.00364354 -0.0121697 0)
(-0.000250441 -0.00935812 0)
(0.00105674 -0.00871106 0)
(-0.00222745 -0.0124546 0)
(-0.00239393 -0.00989672 0)
(0.00235209 -0.0109695 0)
(0.000477327 -0.0128946 0)
(-0.00299576 -0.0143472 0)
(0.00195298 -0.0123106 0)
(-0.0015695 -0.0130812 0)
(-0.00202244 -0.0118407 0)
(-0.00262312 -0.00524618 0)
(0.000134442 -0.00720168 0)
(0.00115481 -0.0131785 0)
(0.00226026 -0.0137663 0)
(0.00260303 0.00375462 0)
(0.00233914 0.00523177 0)
(0.00723666 -0.00683446 0)
(-0.0063427 -0.00220623 0)
(0.000122094 -0.00369588 0)
(-0.00410247 -0.00638122 0)
(0.000804174 -0.00287938 0)
(-0.00528982 -0.00311522 0)
(-0.00153529 -0.00363389 0)
(-0.0029613 -0.001875 0)
(-0.0021409 -0.00315179 0)
(-0.00113752 -0.00389728 0)
(-0.000921096 -0.00390143 0)
(-0.00108643 -0.00396662 0)
(-0.00128958 -0.00541377 0)
(0.000316827 -0.00489421 0)
(0.000351548 -0.00587798 0)
(0.000478296 -0.00718357 0)
(0.000965759 -0.00484038 0)
(0.00104095 -0.00620069 0)
(0.000255441 -0.00703545 0)
(-1.26369e-05 -0.00618215 0)
(-0.00145063 -0.00486775 0)
(0.00190503 -0.00816839 0)
(-0.00137945 -0.00651957 0)
(0.00216445 -0.00679919 0)
(0.00101707 -0.00647422 0)
(-0.000749781 -0.00649959 0)
(-0.00099085 -0.00811289 0)
(-0.000281906 -0.00719097 0)
(-0.00122781 -0.00746719 0)
(0.000667106 -0.00722354 0)
(0.000293219 -0.00686984 0)
(-0.000146474 -0.00471188 0)
(0.00170386 -0.0034953 0)
(-0.00082041 -0.00102518 0)
(0.0012571 -0.00397662 0)
(-0.000655824 -0.00420365 0)
(-0.00196859 -0.00392697 0)
(0.00245729 -0.00333089 0)
(0.000261004 -0.00306345 0)
(0.00334956 -0.00134314 0)
(0.00269923 -0.000346437 0)
(0.00313286 0.00262196 0)
(0.00183379 0.00487308 0)
(0.00171614 0.0064246 0)
(0.00105002 0.00882015 0)
(0.00216559 0.0093757 0)
(0.0175464 -0.010223 0)
(-0.00170599 0.00315896 0)
(-0.00964296 -0.0146253 0)
(-0.00142749 -0.00487548 0)
(-0.00683719 -0.00887041 0)
(-0.00236818 -0.00517635 0)
(0.00152998 -0.00613671 0)
(0.00367428 -0.00278161 0)
(0.000861683 -0.00263709 0)
(-0.00149982 -0.00558834 0)
(-0.00166619 -0.00454885 0)
(-0.0019193 -0.00475064 0)
(-0.00199283 -0.00652224 0)
(0.00192072 -0.00665148 0)
(-0.00185379 -0.00741261 0)
(0.00168604 -0.00960457 0)
(8.35605e-07 -0.00678989 0)
(0.00135726 -0.00702238 0)
(-7.98749e-05 -0.013362 0)
(0.00107767 -0.007259 0)
(0.00169456 -0.00477586 0)
(0.000258293 -0.00881582 0)
(0.00169115 -0.00747754 0)
(0.00131408 -0.00504114 0)
(-0.00262509 -0.00511611 0)
(-8.65972e-05 -0.00450291 0)
(0.00223255 -0.00188883 0)
(0.00740949 0.00482255 0)
(-0.00631286 0.00651916 0)
(-0.00260856 0.00349873 0)
(-0.00351691 0.00462171 0)
(-0.00242172 0.00581849 0)
(-0.00359545 0.00628572 0)
(-0.00371832 0.00635683 0)
(-0.000576662 0.00555699 0)
(7.68202e-05 0.00304189 0)
(-2.77053e-05 0.000184568 0)
(-0.00115793 -0.000370133 0)
(4.25204e-05 -0.000511047 0)
(-0.000679913 -0.000309169 0)
(0.000456365 -0.000342911 0)
(0.000351999 9.61386e-05 0)
(0.000889464 -0.000345279 0)
(0.000140181 -0.000168431 0)
(0.00159562 -0.00159426 0)
(-0.000814076 -0.00123467 0)
(-0.000716383 -0.00078768 0)
(-0.0031428 -0.00195957 0)
(0.00285136 -0.00166587 0)
(0.000685719 -0.00412407 0)
(0.00262666 -0.00628191 0)
(0.00217686 -0.00471329 0)
(0.00259463 -0.0073686 0)
(0.00333661 -0.00751984 0)
(0.00225683 -0.00604545 0)
(0.00103238 -0.00720856 0)
(0.000226797 -0.00949235 0)
(-0.000320109 -0.00800845 0)
(-0.00252574 -0.00583524 0)
(-0.0015717 -0.00989376 0)
(-0.00306973 -0.00735823 0)
(-0.000240572 -0.00742704 0)
(-0.00316572 -0.00672692 0)
(0.000111769 -0.00663394 0)
(-0.000812599 -0.00823566 0)
(-0.000655178 -0.00393965 0)
(-0.000455829 -0.00295213 0)
(-0.000662428 -0.00434114 0)
(0.000583447 -0.00163505 0)
(0.00107681 -0.0030353 0)
(-0.00191491 -0.00381606 0)
(0.00135207 -0.00265156 0)
(-0.000373281 -0.00192437 0)
(-0.000112117 0.00126893 0)
(0.00390849 0.00238873 0)
(-0.0030723 -0.0150147 0)
(0.00123623 -0.00385945 0)
(-0.00668105 -0.0122361 0)
(-0.00101372 -0.00567054 0)
(-0.006431 -0.0134584 0)
(-0.00715587 -0.00117291 0)
(0.00466156 -0.00057361 0)
(0.00204862 -0.00227938 0)
(-0.0012896 -0.00351388 0)
(-0.00137041 -0.00279508 0)
(-0.00160526 -0.00224024 0)
(-0.00103972 -0.00257503 0)
(-0.000261608 -0.00445015 0)
(0.00120763 -0.00274274 0)
(0.000461171 -0.00335788 0)
(0.000731894 -0.00411156 0)
(0.00232929 -0.00468927 0)
(-0.00135471 -0.00625691 0)
(0.000182539 -0.00829997 0)
(0.00129518 -0.00626452 0)
(-0.00123207 -0.00603215 0)
(-0.000600829 -0.00643176 0)
(0.000154611 -0.00520358 0)
(-0.00156556 -0.00284675 0)
(-0.00211245 -0.00185028 0)
(-0.00185064 -0.000696426 0)