/*--------------------------------*- C++ -*----------------------------------*\
  =========                 |
  \\      /  F ield         | OpenFOAM: The Open Source CFD Toolbox
   \\    /   O peration     | Website:  https://openfoam.org
    \\  /    A nd           | Version:  12
     \\/     M anipulation  |
\*---------------------------------------------------------------------------*/
FoamFile
{
    format      ascii;
    class       IOPosition;
    location    "0.3/lagrangian/cloud";
    object      positions;
}
// * * * * * * * * * * * * * * * * * * * * * * * * * * * * * * * * * * * * * //

3039
(
(0.114856 0.442572 0.42815 0.0144214) 0 15075 2
(0.186638 0.0189817 0.406681 0.387699) 0 0 2
(0.342133 0.0619477 0.266986 0.328933) 1 3 1
(0.52674 0.185752 0.23663 0.050878) 2 7377 2
(0.521943 0.239029 0.124919 0.114109) 3 7378 1
(0.450553 0.274723 0.270429 0.00429478) 4 7379 1
(0.35117 0.324415 0.0264182 0.297997) 5 8 1
(0.518508 0.240746 0.184922 0.0558239) 6 7381 1
(0.0722389 0.309678 0.463881 0.154202) 7 14 2
(0.241487 0.379257 0.211253 0.168004) 9 19 2
(0.285246 0.357377 0.268032 0.0893456) 10 21 2
(0.304883 0.347558 0.265742 0.0818161) 11 23 2
(0.318196 0.340902 0.198891 0.142011) 12 25 2
(0.296471 0.351765 0.0965499 0.255215) 13 27 2
(0.271286 0.364357 0.004467 0.35989) 14 29 2
(0.505314 0.0620624 0.247343 0.185281) 14 7389 2
(0.60139 0.199305 0.0833696 0.115935) 15 7390 1
(0.440743 0.279628 0.277761 0.00186711) 16 7391 1
(0.264489 0.367755 0.217285 0.15047) 17 35 2
(0.234164 0.382918 0.202776 0.180142) 18 37 2
(0.282916 0.00894533 0.349597 0.358542) 19 36 2
(0.209312 0.0914661 0.395344 0.303878) 19 38 2
(0.506446 0.0525078 0.194269 0.246777) 20 41 1
(0.898145 0.0509273 0.0213416 0.0295857) 21 43 2
(0.465398 0.267301 0.246116 0.0211856) 22 7397 1
(0.397452 0.301274 0.00737557 0.293899) 23 44 1
(0.373889 0.313055 0.269754 0.043301) 24 7399 1
(0.505711 0.247145 0.174 0.0731449) 25 7400 1
(0.256199 0.371901 0.170648 0.201253) 26 53 2
(0.373619 0.31319 0.219776 0.0934139) 27 55 2
(0.261125 0.221201 0.148237 0.369437) 28 57 1
(0.29601 0.206661 0.145334 0.351995) 29 59 1
(0.323002 0.306097 0.0324023 0.338499) 30 61 1
(0.351969 0.324015 0.181023 0.142992) 31 63 2
(0.121143 0.123853 0.315575 0.439428) 32 62 2
(0.154338 0.191922 0.422831 0.230908) 32 64 2
(0.468145 0.265928 0.242063 0.0238648) 33 66 1
(0.449822 0.176568 0.275089 0.0985212) 34 7409 2
(0.406319 0.253126 0.296841 0.0437152) 35 7410 2
(0.531084 0.128799 0.234458 0.105659) 36 7411 2
(0.292213 0.353893 0.136845 0.217049) 38 74 1
(0.689216 0.155392 0.104235 0.0511568) 39 78 1
(0.318977 0.0978738 0.242638 0.340511) 40 81 1
(0.413106 0.0249227 0.268525 0.293447) 41 83 1
(0.635868 0.171087 0.182066 0.0109787) 42 84 2
(0.504464 0.131985 0.247768 0.115783) 43 7418 2
(0.360391 0.122303 0.319804 0.197501) 44 7419 2
(0.0891655 0.455417 0.309453 0.145964) 45 90 1
(0.598467 0.200767 0.181705 0.019062) 47 7422 1
(0.345615 0.327193 0.135209 0.191983) 48 97 2
(0.426557 0.0571555 0.229566 0.286722) 49 96 2
(0.641575 0.110494 0.179213 0.0687189) 50 7425 2
(0.125077 0.0537515 0.38371 0.437461) 51 100 2
(0.0436792 0.247837 0.47816 0.230323) 51 102 2
(0.326649 0.24497 0.336675 0.0917054) 52 104 2
(0.562549 0.218726 0.181514 0.037211) 53 106 1
(0.41808 0.29096 0.207213 0.0837473) 54 109 2
(0.433001 0.2835 0.0150633 0.268436) 55 111 2
(0.286573 0.0587611 0.297952 0.356713) 56 110 2
(0.362135 0.318933 0.0414932 0.277439) 57 115 2
(0.353459 0.32327 0.148328 0.174942) 58 117 2
(0.770169 0.026872 0.114916 0.0880435) 59 7434 2
(0.346954 0.326523 0.281188 0.0453345) 60 120 1
(0.061822 0.469089 0.305549 0.16354) 61 122 1
(0.597845 0.201078 0.0947603 0.106317) 63 7438 1
(0.0245973 0.166954 0.320747 0.487701) 65 128 2
(0.244941 0.0305822 0.346947 0.377529) 65 131 1
(0.268805 0.365598 0.100161 0.265437) 75 150 2
(0.388831 0.0670451 0.23854 0.305585) 76 149 2
(0.241241 0.184845 0.379379 0.194535) 77 5 1
(0.0171265 0.491437 0.398632 0.0928047) 78 155 1
(0.219927 0.390036 0.366697 0.0233398) 80 11 2
(0.674515 0.0877339 0.162742 0.0750086) 80 159 2
(0.507682 0.109235 0.136924 0.246159) 81 159 2
(0.55687 0.221565 0.0084974 0.213067) 82 164 2
(0.403564 0.298218 0.183914 0.114304) 83 166 2
(0.336638 0.331681 0.150797 0.180884) 84 168 2
(0.401427 0.299287 0.117881 0.181405) 85 170 2
(0.353614 0.0453444 0.277849 0.323193) 86 172 1
(0.403484 0.298258 0.253658 0.0446004) 88 176 2
(0.647092 0.0330532 0.143401 0.176454) 89 175 2
(0.251265 0.270081 0.374368 0.104287) 164 178 1
(0.176242 0.411879 0.083679 0.3282) 90 180 2
(0.151023 0.0447219 0.424489 0.379767) 90 179 2
(0.229115 0.136751 0.248692 0.385442) 91 182 1
(0.270199 0.25691 0.10799 0.3649) 92 184 1
(0.199292 0.400354 0.168316 0.232037) 94 187 1
(0.115606 0.442197 0.273877 0.16832) 95 189 1
(0.0972355 0.451382 0.357482 0.0939004) 96 191 1
(0.159842 0.420079 0.329293 0.0907858) 97 193 1
(0.193828 0.403086 0.336316 0.0667694) 98 195 1
(0.966691 0.0166544 0.0136821 0.00297224) 99 195 1
(0.0448291 0.116544 0.361042 0.477585) 100 197 2
(0.205453 0.320951 0.0763223 0.397274) 100 200 1
(0.233138 0.383431 0.158496 0.224935) 101 202 2
(0.172586 0.0521276 0.361579 0.413707) 102 201 2
(0.0226121 0.11471 0.373984 0.488694) 103 203 2
(0.0197383 0.112354 0.377777 0.490131) 104 205 2
(0.191547 0.111641 0.292586 0.404227) 105 207 2
(0.568649 0.215675 0.157055 0.0586204) 107 65 2
(0.344193 0.327904 0.143977 0.183926) 108 67 2
(0.256221 0.37189 0.181683 0.190207) 109 69 2
(0.264288 0.367856 0.125817 0.242039) 110 71 2
(0.270263 0.296071 0.364868 0.068797) 111 73 1
(0.257263 0.157994 0.371368 0.213374) 112 75 1
(0.320769 0.339616 0.0592475 0.280368) 113 226 2
(0.0879743 0.0754215 0.456013 0.380591) 113 225 2
(0.110842 0.118711 0.325867 0.444579) 115 227 2
(0.114812 0.442594 0.198931 0.243664) 117 231 1
(0.190152 0.404924 0.0280044 0.376919) 118 233 1
(0.191077 0.404461 0.281802 0.12266) 119 89 2
(0.234581 0.127894 0.254815 0.38271) 118 236 1
(0.129784 0.435108 0.139563 0.295545) 119 238 2
(0.299466 0.134218 0.216049 0.350267) 119 238 1
(0.351234 0.324383 0.244334 0.0800489) 120 240 2
(0.268434 0.365783 0.0701099 0.295673) 121 242 2
(0.0252416 0.138949 0.34843 0.487379) 122 241 2
(0.243001 0.00678173 0.371718 0.3785) 122 244 1
(0.744673 0.0399523 0.0877111 0.127663) 124 248 1
(0.638108 0.180946 0.0449328 0.136013) 126 249 1
(0.409852 0.295074 0.201151 0.0939237) 127 105 2
(0.320827 0.316648 0.339587 0.0229382) 128 107 1
(0.206016 0.396992 0.297492 0.0994997) 129 257 1
(0.21322 0.39339 0.0957736 0.297617) 131 259 1
(0.414462 0.292769 0.253799 0.0389695) 132 115 2
(0.443105 0.278448 0.0948789 0.183569) 133 117 2
(0.218626 0.390687 0.183867 0.206821) 134 119 2
(0.387597 0.172921 0.306202 0.13328) 134 119 1
(0.343203 0.0451457 0.283253 0.328398) 134 268 1
(0.188145 0.405928 0.219778 0.186149) 135 270 2
(0.144764 0.427618 0.223759 0.203859) 151 298 1
(0.01939 0.490305 0.336063 0.154242) 151 300 1
(0.258749 0.370626 0.363154 0.00747133) 152 302 1
(0.281276 0.0643423 0.359362 0.29502) 153 156 1
(0.208967 0.395516 0.240856 0.15466) 154 307 2
(0.578507 0.210747 0.0725067 0.13824) 155 309 2
(0.465821 0.0791573 0.187932 0.26709) 156 308 2
(0.432429 0.283785 0.18495 0.0988352) 157 310 1
(0.47614 0.0541243 0.207806 0.26193) 158 312 2
(0.64702 0.17649 0.171533 0.00495667) 159 317 2
(0.574926 0.212537 0.164628 0.047909) 160 319 2
(0.337271 0.331364 0.0965012 0.234863) 161 321 2
(0.301471 0.349265 0.0178608 0.331404) 162 323 2
(0.260977 0.369511 0.0902628 0.279249) 163 325 2
(0.11996 0.399359 0.0406605 0.44002) 164 327 1
(0.133555 0.433222 0.322909 0.110313) 165 329 2
(0.187378 0.406311 0.26363 0.142681) 166 331 2
(0.101015 0.449493 0.21427 0.235223) 167 332 1
(0.221072 0.389464 0.32454 0.0649243) 168 334 1
(0.135016 0.000372533 0.432492 0.432119) 169 188 1
(0.441884 0.279058 0.166285 0.112773) 170 339 2
(0.144291 0.0358398 0.392015 0.427854) 171 338 2
(0.0303818 0.0956103 0.484809 0.389199) 171 340 2
(0.49011 0.254945 0.0830371 0.171908) 173 345 2
(0.488445 0.255778 0.176292 0.0794854) 174 347 2
(0.424624 0.104412 0.183276 0.287688) 175 349 1
(0.437289 0.184149 0.0972064 0.281356) 176 351 1
(0.246203 0.229886 0.147012 0.376898) 177 353 1
(0.206923 0.112359 0.28418 0.396538) 178 355 1
(0.170098 0.414951 0.250435 0.164516) 180 356 1
(0.120923 0.439538 0.0480277 0.391511) 181 358 1
(0.213403 0.393299 0.378257 0.0150418) 182 214 2
(0.234513 0.382743 0.327585 0.0551579) 183 216 2
(0.258191 0.370904 0.279441 0.0914639) 184 218 2
(0.287845 0.356077 0.20545 0.150627) 185 220 2
(0.391825 0.304088 0.250041 0.0540472) 186 222 2
(0.170002 0.114575 0.300424 0.414999) 186 371 1
(0.258909 0.22436 0.146186 0.370545) 187 373 1
(0.249427 0.375287 0.334616 0.0406705) 188 375 2
(0.258546 0.0094603 0.361266 0.370727) 189 374 2
(0.266813 0.0140404 0.352553 0.366593) 189 377 1
(0.305311 0.248551 0.0987934 0.347345) 190 379 1
(0.316749 0.341626 0.265205 0.0764202) 191 381 2
(0.248013 0.375993 0.20087 0.175124) 192 383 2
(0.191668 0.404166 0.33176 0.072406) 193 385 2
(0.28653 0.0415459 0.356735 0.315189) 194 386 2
(0.395893 0.104176 0.197877 0.302053) 195 389 1
(0.566527 0.042833 0.173904 0.216737) 196 391 1
(0.0627299 0.256555 0.468635 0.21208) 197 392 2
(0.563292 0.0400228 0.178331 0.218354) 199 394 2
(0.250555 0.374723 0.179263 0.19546) 200 399 2
(0.534561 0.232719 0.0946645 0.138055) 201 401 2
(0.304543 0.347728 0.135643 0.212086) 202 254 2
(0.275758 0.362121 0.212664 0.149457) 203 256 2
(0.204977 0.397512 0.0638681 0.333644) 204 404 1
(0.210379 0.394811 0.303078 0.0917329) 204 406 1
(0.103948 0.448026 0.352023 0.0960029) 205 409 2
(0.0269176 0.122595 0.486541 0.363946) 205 408 2
(0.312582 0.16596 0.343709 0.177749) 206 262 1
(0.298929 0.276215 0.350535 0.07432) 207 264 1
(0.49229 0.137827 0.253855 0.116028) 208 266 1
(0.679516 0.160242 0.105419 0.0548225) 225 447 1
(0.483231 0.258384 0.0678935 0.190491) 226 301 2
(0.330609 0.334696 0.238575 0.0961206) 227 303 2
(0.327547 0.336227 0.306097 0.0301294) 228 305 2
(0.110518 0.354121 0.0906195 0.444741) 228 454 1
(0.273412 0.363294 0.128192 0.235102) 229 456 2
(0.239627 0.380187 0.321689 0.0584973) 230 455 1
(0.399048 0.300476 0.124038 0.176438) 231 311 2
(0.247497 0.376251 0.140304 0.235947) 232 313 2
(0.413267 0.227788 0.293367 0.0655784) 233 315 1
(0.456576 0.271712 0.169185 0.102527) 234 465 1
(0.206714 0.396643 0.180697 0.215946) 235 468 2
(0.259537 0.0241146 0.370231 0.346117) 235 467 2
(0.320912 0.119807 0.219737 0.339544) 236 470 1
(0.246673 0.0341957 0.376663 0.342468) 237 471 2
(0.138122 0.0498815 0.430939 0.381058) 238 473 2
(0.111929 0.0581663 0.385869 0.444036) 240 475 2
(0.20071 0.399645 0.121367 0.278278) 241 480 2
(0.429844 0.285078 0.0536534 0.231425) 242 333 2
(0.321006 0.339497 0.0474951 0.292002) 243 335 2
(0.581078 0.209461 0.0462845 0.163177) 244 337 2
(0.33543 0.332285 0.284298 0.0479876) 245 488 2
(0.397527 0.268828 0.032408 0.301236) 246 490 1
(0.137537 0.431232 0.297927 0.133305) 248 491 1
(0.684926 0.157537 0.0670238 0.090513) 249 493 1
(0.752743 0.123629 0.0897675 0.033861) 250 349 2
(0.749004 0.0931474 0.125498 0.0323504) 251 351 1
(0.687644 0.0245724 0.131606 0.156178) 252 502 1
(0.364323 0.0740449 0.317838 0.243793) 253 503 2
(0.108282 0.445859 0.33054 0.115319) 254 505 1
(0.00654493 0.496728 0.393841 0.102886) 255 507 1
(0.0609003 0.46955 0.387432 0.082118) 256 509 1
(0.166359 0.416821 0.364335 0.0524854) 257 511 1
(0.327021 0.0125714 0.336489 0.323918) 258 365 1
(0.460014 0.167142 0.269993 0.10285) 259 367 1
(0.168658 0.415671 0.14367 0.272) 260 518 2
(0.0100479 0.075951 0.494976 0.419025) 260 517 2
(0.203343 0.131585 0.266744 0.398329) 261 520 1
(0.268602 0.269298 0.0964005 0.365699) 262 522 1
(0.276609 0.228083 0.133613 0.361695) 263 524 1
(0.28351 0.358245 0.323808 0.0344367) 264 526 2
(0.225722 0.387139 0.312972 0.0741673) 265 528 2
(0.168216 0.283318 0.132574 0.415892) 266 530 1
(0.583777 0.175291 0.0328205 0.208112) 267 532 1
(0.724636 0.0620878 0.0755943 0.137682) 268 534 1
(0.196994 0.0970897 0.401503 0.304414) 269 535 2
(0.645971 0.15025 0.177014 0.0267645) 270 537 2
(0.466293 0.179756 0.266854 0.087098) 271 391 1
(0.342676 0.0384398 0.328662 0.290222) 272 393 1
(0.257976 0.371012 0.342293 0.0287184) 273 543 1
(0.0745198 0.138552 0.46274 0.324188) 274 545 2
(0.0880827 0.0802635 0.375695 0.455959) 276 547 2
(0.322169 0.0154634 0.323452 0.338915) 277 549 2
(0.197413 0.0430835 0.35821 0.401293) 278 551 2
(0.043599 0.09673 0.38147 0.478201) 279 553 2
(0.044324 0.0589866 0.477838 0.418851) 279 555 2
(0.186453 0.209745 0.197029 0.406774) 280 558 1
(0.638445 0.180778 0.0996625 0.081115) 281 411 2
(0.230883 0.384558 0.0814399 0.303118) 282 559 1
(0.240465 0.379768 0.304005 0.0757625) 282 561 1
(0.357991 0.0861662 0.321004 0.234838) 283 415 1
(0.101737 0.0552091 0.393922 0.449131) 300 15079 1
(0.542112 0.228944 0.00290997 0.226034) 301 450 2
(0.67829 0.160855 0.0429931 0.117862) 302 452 2
(0.0222211 0.0278226 0.461067 0.488889) 303 600 2
(0.166609 0.0687561 0.347939 0.416695) 303 603 1
(0.58959 0.0598397 0.205205 0.145366) 304 456 1
(0.329178 0.335411 0.0143042 0.321107) 305 458 2
(0.298841 0.35058 0.168599 0.18198) 306 460 2
(0.254343 0.372829 0.223717 0.149112) 307 462 2
(0.114109 0.129824 0.313122 0.442946) 308 610 2
(0.324885 0.0210518 0.337558 0.316506) 308 612 2
(0.363296 0.00534275 0.313009 0.318352) 309 615 1
(0.542129 0.228936 0.0811909 0.147745) 311 619 2
(0.452819 0.27359 0.228898 0.0446921) 312 621 2
(0.342839 0.0350565 0.328581 0.293524) 313 622 2
(0.153026 0.124564 0.298923 0.423487) 315 624 2
(0.793793 0.103104 0.036821 0.0662827) 316 628 1
(0.148923 0.348749 0.0767896 0.425538) 318 630 2
(0.4263 0.216788 0.0700624 0.28685) 319 632 2
(0.123001 0.4385 0.168753 0.269747) 319 634 1
(0.672172 0.163914 0.0454203 0.118494) 320 636 1
(0.288378 0.355811 0.218769 0.137042) 321 638 1
(0.172273 0.413864 0.366229 0.0476346) 322 640 1
(0.278944 0.360528 0.315238 0.0452899) 324 496 2
(0.252401 0.373799 0.179124 0.194675) 325 498 2
(0.249192 0.375404 0.0373451 0.338059) 326 500 2
(0.454278 0.272861 0.232566 0.0402949) 327 650 1
(0.284428 0.0215002 0.336286 0.357786) 328 653 1
(0.319526 0.0207721 0.319465 0.340237) 329 655 1
(0.311856 0.107084 0.236988 0.344072) 330 657 1
(0.303721 0.204024 0.144116 0.34814) 331 659 1
(0.278414 0.360793 0.287292 0.0735005) 332 661 2
(0.201712 0.399144 0.0748356 0.324308) 333 663 2
(0.0321584 0.125762 0.483921 0.358159) 333 662 2
(0.23142 0.060015 0.324275 0.38429) 334 665 1
(0.168893 0.210377 0.205176 0.415554) 335 667 1
(0.264565 0.222603 0.145115 0.367718) 336 669 1
(0.0168196 0.49159 0.143655 0.347935) 337 670 1
(0.583231 0.0232871 0.185097 0.208384) 339 672 2
(0.298785 0.230897 0.11971 0.350607) 340 677 1
(0.259717 0.113834 0.256308 0.370142) 341 679 1
(0.294409 0.0116644 0.341131 0.352795) 342 681 1
(0.563084 0.218458 0.0178706 0.200588) 343 682 1
(0.57514 0.15584 0.05659 0.21243) 344 685 1
(0.190613 0.335049 0.0696439 0.404693) 345 687 1
(0.167979 0.274841 0.14117 0.41601) 346 689 1
(0.279557 0.360221 0.142735 0.217486) 347 542 2
(0.305696 0.347152 0.274296 0.072856) 348 544 2
(0.193548 0.403226 0.0436297 0.359596) 349 692 1
(0.130421 0.296094 0.434789 0.138696) 349 694 2
(0.420501 0.0215323 0.268217 0.28975) 350 697 1
(0.288317 0.112109 0.243733 0.355841) 351 699 1
(0.2217 0.122668 0.266482 0.38915) 352 701 1
(0.153437 0.423281 0.350194 0.0730879) 429 705 2
(0.0653282 0.467336 0.351502 0.115834) 429 853 1
(0.224334 0.112802 0.275031 0.387833) 355 707 1
(0.484309 0.128588 0.257846 0.129257) 356 560 1
(0.519083 0.240458 0.0694734 0.170985) 357 562 2
(0.350384 0.324808 0.138998 0.18581) 358 710 1
(0.00315681 0.498422 0.301288 0.197134) 358 712 1
(0.228179 0.38591 0.0442599 0.34165) 375 746 2
(0.231304 0.384348 0.151696 0.232652) 376 748 2
(0.19843 0.400785 0.243481 0.157304) 377 750 2
(0.189055 0.405472 0.246617 0.158855) 378 752 2
(0.161045 0.419477 0.217088 0.20239) 379 754 2
(0.251375 0.374313 0.177548 0.196765) 380 756 2
(0.0111401 0.49443 0.354348 0.140082) 380 755 1
(0.312564 0.0135618 0.343718 0.330156) 381 609 1
(0.225465 0.147225 0.387268 0.240043) 382 759 2
(0.548726 0.0711358 0.154501 0.225637) 383 762 1
(0.631676 0.184162 0.0469722 0.13719) 384 761 1
(0.440786 0.279607 0.0432837 0.236323) 385 617 2
(0.482983 0.195788 0.258508 0.0627204) 386 619 1
(0.181857 0.409072 0.0793845 0.329687) 388 769 1
(0.508164 0.245918 0.0655734 0.180344) 389 625 2
(0.26165 0.369175 0.282825 0.0863505) 390 775 1
(0.027671 0.486165 0.140776 0.345389) 392 777 1
(0.091052 0.454474 0.202733 0.251741) 393 779 1
(0.419514 0.290243 0.154575 0.135668) 394 635 2
(0.352964 0.323518 0.0552453 0.268273) 395 637 2
(0.255571 0.325356 0.372215 0.0468583) 396 639 1
(0.257399 0.281387 0.3713 0.0899136) 397 641 1
(0.284713 0.320436 0.357644 0.0372074) 398 643 1
(0.258288 0.370856 0.0805318 0.290324) 399 645 2
(0.211733 0.394134 0.0872587 0.306875) 400 647 2
(0.178737 0.307873 0.410631 0.102758) 401 649 1
(0.246954 0.141269 0.376523 0.235254) 402 651 1
(0.259407 0.36993 0.000366003 0.370296) 403 802 1
(0.292026 0.353987 0.304214 0.0497733) 404 804 2
(0.290679 0.354661 0.180786 0.173875) 405 806 2
(0.268375 0.365812 0.0036583 0.362154) 406 808 2
(0.00593024 0.106404 0.497035 0.390631) 406 807 2
(0.104565 0.0802274 0.36749 0.447717) 407 810 1
(0.211087 0.10145 0.293006 0.394456) 408 812 1
(0.336465 0.120764 0.211004 0.331767) 409 814 1
(0.576873 0.0374961 0.174067 0.211563) 410 816 1
(0.464446 0.267777 0.0997484 0.168029) 411 817 1
(0.392485 0.0429 0.303757 0.260857) 412 671 1
(0.655205 0.093205 0.172397 0.0791924) 413 673 1
(0.880947 0.0595264 0.0496447 0.00988169) 414 823 1
(0.210516 0.308423 0.394742 0.0863191) 415 825 2
(0.25901 0.0849874 0.285508 0.370495) 417 827 2
(0.129694 0.0771755 0.357978 0.435153) 418 829 2
(0.0506034 0.113862 0.360836 0.474698) 419 831 2
(0.0477101 0.0835477 0.392597 0.476145) 420 833 2
(0.108198 0.051177 0.394724 0.445901) 421 835 2
(0.225855 0.00182964 0.385243 0.387072) 422 837 2
(0.138156 0.336552 0.0943706 0.430922) 423 839 2
(0.060788 0.469606 0.345185 0.124421) 423 841 1
(0.361713 0.319143 0.304424 0.014719) 424 843 1
(0.323951 0.338025 0.109921 0.228103) 425 845 1
(0.215215 0.16293 0.229462 0.392392) 426 848 1
(0.196408 0.148138 0.253658 0.401796) 427 850 1
(0.0528478 0.0369258 0.43665 0.473576) 429 851 2
(0.067984 0.466008 0.0790038 0.387004) 505 1002 1
(0.107006 0.125247 0.32125 0.446497) 430 856 1
(0.130599 0.193536 0.434701 0.241164) 506 858 1
(0.0911797 0.244611 0.45441 0.209799) 507 860 1
(0.0409666 0.357408 0.122109 0.479517) 433 862 1
(0.449263 0.275369 0.132844 0.142524) 434 715 2
(0.249665 0.375168 0.0914801 0.283687) 450 895 2
(0.217915 0.391043 0.13236 0.258683) 451 897 2
(0.190517 0.404741 0.239549 0.165192) 452 899 2
(0.178834 0.400092 0.0104908 0.410583) 453 901 1
(0.186077 0.239716 0.167245 0.406961) 454 903 1
(0.186868 0.314795 0.406566 0.0917708) 455 904 2
(0.00577081 0.497115 0.316242 0.180872) 456 906 1
(0.170208 0.414896 0.122991 0.291905) 457 908 1
(0.464451 0.201859 0.267775 0.0659153) 458 910 2
(0.114161 0.442919 0.358641 0.0842781) 459 912 1
(0.17813 0.410935 0.396555 0.01438) 460 914 1
(0.153903 0.0969281 0.423048 0.32612) 461 768 1
(0.129795 0.115655 0.435103 0.319448) 462 770 1
(0.18301 0.0340883 0.408495 0.374407) 463 772 1
(0.072417 0.463791 0.0490995 0.414692) 465 922 1
(0.185554 0.407223 0.225679 0.181544) 466 778 2
(0.562957 0.113357 0.218522 0.105164) 467 780 1
(0.275648 0.0517418 0.362176 0.310434) 468 782 1
(0.129503 0.435249 0.356808 0.0784411) 469 932 1
(0.254982 0.372509 0.355975 0.0165343) 470 934 1
(0.270519 0.133459 0.36474 0.231282) 471 788 1
(0.304975 0.298946 0.347513 0.0485665) 472 790 1
(0.284911 0.357545 0.161671 0.195873) 473 792 2
(0.244959 0.377521 0.0254761 0.352045) 474 940 1
(0.00724617 0.496377 0.0575173 0.43886) 475 942 1
(0.177972 0.411014 0.410645 0.000369368) 475 944 1
(0.57185 0.0536784 0.214075 0.160397) 476 798 1
(0.30436 0.34782 0.212259 0.135561) 477 949 2
(0.280893 0.359553 0.18731 0.172244) 478 951 2
(0.257421 0.371289 0.241252 0.130037) 479 953 2
(0.232525 0.383738 0.332486 0.0512522) 480 955 2
(0.190641 0.376168 0.0285119 0.404679) 481 957 1
(0.14339 0.340845 0.08746 0.428305) 482 959 1
(0.12859 0.308778 0.126927 0.435705) 483 961 1
(0.311641 0.184518 0.159662 0.344179) 484 963 1
(0.6153 0.0812768 0.111073 0.19235) 485 965 1
(0.602561 0.19872 0.141126 0.0575938) 486 967 2
(0.711636 0.144182 0.0723554 0.0718265) 487 966 1
(0.301894 0.349053 0.227935 0.121119) 488 822 2
(0.295755 0.352122 0.19948 0.152643) 489 824 2
(0.292609 0.268311 0.353696 0.0853842) 490 826 1
(0.475033 0.0635723 0.262484 0.198911) 491 828 1
(0.273062 0.363469 0.324875 0.0385946) 492 979 2
(0.307464 0.346268 0.239886 0.106382) 493 981 2
(0.271235 0.364383 0.243969 0.120414) 494 983 2
(0.259271 0.353061 0.0173037 0.370365) 495 985 1
(0.221132 0.0922179 0.297216 0.389434) 496 987 1
(0.106846 0.126218 0.446577 0.320359) 497 988 2
(0.137161 0.43142 0.35422 0.0771996) 498 990 1
(0.309097 0.00581308 0.345452 0.339638) 499 844 1
(0.475199 0.11255 0.2624 0.14985) 500 846 1
(0.187149 0.406426 0.249987 0.156439) 501 997 2
(0.249827 0.375086 0.0798074 0.295279) 502 999 2
(0.226611 0.00192665 0.384768 0.386694) 503 998 2
(0.186603 0.406699 0.0570545 0.349644) 504 1003 2
(0.0847436 0.457628 0.366902 0.0907258) 505 1005 2
(0.198138 0.385655 0.400931 0.015276) 581 1007 1
(0.302186 0.100327 0.348907 0.24858) 582 1009 1
(0.275863 0.189449 0.17262 0.362069) 508 1011 1
(0.414396 0.137633 0.292802 0.155169) 509 864 1
(0.209645 0.0428938 0.352283 0.395177) 525 15082 1
(0.199071 0.0266418 0.373823 0.400464) 526 1043 2
(0.232342 0.383829 0.0658631 0.317966) 527 1048 2
(0.295968 0.352016 0.29145 0.0605663) 528 1050 2
(0.353651 0.00253566 0.320639 0.323174) 529 1052 1
(0.336235 0.331882 0.196515 0.135368) 530 1053 1
(0.0553051 0.472347 0.136968 0.33538) 532 1055 1
(0.186557 0.406721 0.20664 0.200081) 533 1057 1
(0.255146 0.372427 0.123291 0.249137) 534 913 2
(0.241813 0.379093 0.12942 0.249673) 535 915 2
(0.297984 0.351008 0.254978 0.0960304) 536 917 2
(0.182515 0.408743 0.396273 0.0124695) 537 919 2
(0.0512595 0.47437 0.396557 0.0778133) 537 1067 1
(0.11558 0.44221 0.40071 0.0415001) 538 1069 1
(0.0558401 0.47208 0.0566521 0.415428) 540 1071 1
(0.0984335 0.450783 0.34309 0.107693) 541 927 2
(0.182453 0.408773 0.0701314 0.338642) 542 1075 1
(0.274072 0.0546829 0.362964 0.308281) 542 1077 2
(0.337889 0.130889 0.200167 0.331056) 543 1080 1
(0.313756 0.236852 0.106271 0.343122) 544 1082 1
(0.225158 0.387421 0.0743092 0.313112) 546 1083 1
(0.0565241 0.471738 0.278804 0.192934) 546 1085 1
(0.35454 0.103601 0.32273 0.219129) 547 939 1
(0.248149 0.375925 0.0975969 0.278328) 548 941 2
(0.191543 0.404228 0.0655772 0.338651) 549 1089 1
(0.303874 0.0125172 0.348063 0.335546) 549 943 1
(0.391223 0.220892 0.304388 0.0834959) 550 945 1
(0.500634 0.249683 0.152675 0.0970085) 551 1093 1
(0.0563889 0.243637 0.471806 0.228169) 551 1095 2
(0.168714 0.0802295 0.335414 0.415643) 553 1097 2
(0.196079 0.0368281 0.365133 0.401961) 554 1099 2
(0.243931 0.378035 0.18183 0.196205) 555 1104 2
(0.253107 0.228478 0.144968 0.373447) 556 1106 1
(0.224844 0.0193852 0.368193 0.387578) 557 1108 1
(0.0405984 0.0520476 0.427653 0.479701) 559 1109 2
(0.162428 0.418786 0.148728 0.270058) 560 1114 2
(0.262173 0.368914 0.236837 0.132077) 561 1116 2
(0.508226 0.245887 0.199522 0.0463653) 562 969 2
(0.303071 0.348465 0.0162047 0.33226) 563 1117 1
(0.00234705 0.498826 0.151672 0.347155) 564 1119 1
(0.274797 0.362601 0.359555 0.00304616) 564 1121 1
(0.262355 0.11823 0.368823 0.250592) 565 975 1
(0.193526 0.273004 0.403237 0.130233) 566 1125 2
(0.426013 0.139204 0.286993 0.147789) 567 1127 2
(0.599668 0.0045876 0.200166 0.195578) 568 1129 2
(0.0141593 0.342451 0.15047 0.49292) 570 1131 2
(0.234131 0.146036 0.236899 0.382935) 571 1136 1
(0.0510138 0.0841304 0.474493 0.390363) 572 1137 2
(0.223745 0.00855201 0.379575 0.388127) 574 1139 2
(0.322465 0.338767 0.0319577 0.30681) 575 1144 2
(0.170251 0.0560773 0.358797 0.414874) 576 1143 2
(0.237476 0.0213721 0.381262 0.35989) 576 1145 2
(0.224302 0.258806 0.129043 0.387849) 577 1148 1
(0.228543 0.385729 0.332518 0.0532103) 578 1150 2
(0.160067 0.419966 0.295326 0.12464) 579 1152 2
(0.175123 0.412439 0.308639 0.1038) 580 1154 2
(0.0111713 0.0355273 0.494414 0.458887) 581 1155 2
(0.195089 0.402455 0.0915483 0.310907) 583 1160 2
(0.477442 0.261279 0.136364 0.124915) 584 1013 2
(0.411424 0.294288 0.0976279 0.19666) 585 1015 2
(0.505321 0.168438 0.0789013 0.24734) 600 1193 1
(0.465461 0.21425 0.0530199 0.267269) 601 1195 1
(0.454765 0.252621 0.0199967 0.272618) 602 1197 1
(0.721942 0.139029 0.130552 0.00847681) 603 1050 2
(0.371623 0.314189 0.223817 0.090372) 604 1200 1
(0.247773 0.376113 0.3497 0.0264138) 606 1202 1
(0.304478 0.332734 0.0150269 0.347761) 607 1207 1
(0.475483 0.258703 0.00355525 0.262259) 608 1209 1
(0.205015 0.397492 0.161287 0.236205) 609 1062 2
(0.280379 0.184111 0.1757 0.359811) 610 1210 2
(0.0801036 0.282505 0.459948 0.177444) 610 1212 2
(0.207282 0.0868365 0.396359 0.309523) 611 1066 1
(0.19299 0.163549 0.403505 0.239956) 612 1068 1
(0.211464 0.204832 0.394268 0.189436) 613 1070 1
(0.135133 0.206664 0.432433 0.225769) 614 1072 1
(0.365449 0.184666 0.317275 0.132609) 615 1074 1
(0.493121 0.25344 0.185623 0.0678171) 616 1225 2
(0.296604 0.049712 0.301986 0.351698) 617 1224 2
(0.261917 0.046003 0.369042 0.323039) 617 1226 2
(0.344304 0.182478 0.14537 0.327848) 618 1229 1
(0.319109 0.340445 0.285866 0.0545792) 619 1231 2
(0.309539 0.345231 0.127068 0.218163) 620 1233 2
(0.25212 0.37394 0.0986258 0.275314) 621 1235 2
(0.572106 0.213947 0.163986 0.0499612) 622 1236 1
(0.386364 0.262528 0.306818 0.0442898) 623 1090 1
(0.471724 0.264138 0.153516 0.110622) 624 1092 2
(0.202671 0.398665 0.176028 0.222636) 625 1240 1
(0.468701 0.0224045 0.265649 0.243245) 625 1094 1
(0.470395 0.264803 0.0377824 0.22702) 626 1096 2
(0.360547 0.319726 0.177164 0.142563) 627 1098 2
(0.495444 0.252278 0.192854 0.0594241) 628 1249 2
(0.303665 0.107166 0.348167 0.241002) 629 1250 2
(0.691822 0.154089 0.00679999 0.147289) 631 1255 2
(0.545283 0.0409603 0.186398 0.227359) 632 1257 1
(0.214182 0.0117514 0.392909 0.381158) 633 1258 2
(0.223457 0.388271 0.0121697 0.376102) 635 1263 2
(0.1766 0.4117 0.234641 0.177059) 636 1265 2
(0.52684 0.23658 0.233503 0.003077) 637 1118 2
(0.168331 0.415834 0.101168 0.314666) 638 1266 1
(0.237116 0.381442 0.326566 0.0548762) 638 1268 1
(0.308367 0.152255 0.345816 0.193562) 639 1122 1
(0.27665 0.349508 0.361675 0.0121669) 640 1124 1
(0.390114 0.304943 0.202392 0.102551) 641 1126 2
(0.485955 0.257023 0.162292 0.0947307) 642 1128 2
(0.548267 0.225867 0.0130461 0.21282) 643 1130 2
(0.444711 0.076786 0.277645 0.200859) 644 1132 1
(0.658294 0.170853 0.00221794 0.168635) 645 1282 1
(0.384977 0.0159049 0.307512 0.291607) 646 1284 2
(0.0377045 0.124177 0.356971 0.481148) 648 1286 2
(0.273587 0.363206 0.0975937 0.265613) 649 1291 2
(0.264808 0.367596 0.249835 0.117761) 650 1293 2
(0.247605 0.351871 0.0243259 0.376197) 651 1295 1
(0.148359 0.217569 0.208252 0.425821) 652 1297 1
(0.156545 0.192533 0.229195 0.421728) 653 1299 1
(0.0989141 0.201747 0.248796 0.450543) 654 1301 1
(0.120209 0.152578 0.287318 0.439896) 655 1303 1
(0.0996162 0.106798 0.450192 0.343394) 656 1304 2
(0.380275 0.309862 0.308967 0.000895639) 658 1306 1
(0.33207 0.333965 0.293388 0.0405765) 659 1162 2
(0.300305 0.349848 0.153241 0.196606) 660 1164 2
(0.358166 0.320917 0.0901099 0.230807) 675 15084 2
(0.226423 0.386789 0.0854383 0.30135) 675 1341 1
(0.665346 0.167327 0.102836 0.0644908) 676 1343 1
(0.400394 0.299803 0.155851 0.143951) 677 1345 1
(0.204165 0.397918 0.225077 0.17284) 678 1347 1
(0.0413369 0.479332 0.343402 0.13593) 679 1349 1
(0.0970405 0.291987 0.45148 0.159493) 680 1351 2
(0.139495 0.114904 0.430253 0.315349) 681 1353 2
(0.114642 0.105018 0.337661 0.442679) 683 1355 2
(0.627202 0.186399 0.0597261 0.126673) 684 1357 1
(0.333287 0.333356 0.285205 0.0481512) 685 1359 1
(0.138296 0.196137 0.430852 0.234715) 685 1361 2
(0.271662 0.164902 0.364169 0.199267) 686 1215 1
(0.258969 0.370516 0.0092862 0.361229) 687 1217 2
(0.240937 0.379531 0.105284 0.274247) 688 1219 2
(0.482916 0.258542 0.138665 0.119877) 689 1221 2
(0.254736 0.372632 0.0725871 0.300045) 690 1372 2
(0.0118839 0.111938 0.494058 0.382121) 690 1371 2
(0.359073 0.0787033 0.24176 0.320463) 691 1374 1
(0.338535 0.330732 0.317019 0.0137133) 692 1376 2
(0.163222 0.418389 0.0523354 0.366053) 693 1378 2
(0.210099 0.0402777 0.39495 0.354673) 693 1377 2
(0.284054 0.125308 0.232665 0.357973) 694 1380 1
(0.202525 0.211541 0.187196 0.398738) 695 1382 1
(0.188669 0.203904 0.201762 0.405665) 696 1384 1
(0.162257 0.18594 0.232931 0.418872) 697 1386 1
(0.148471 0.150075 0.27569 0.425764) 698 1388 1
(0.199345 0.038325 0.362002 0.400327) 699 1390 1
(0.330008 0.0342771 0.334996 0.300719) 700 1243 1
(0.324261 0.134299 0.337869 0.203571) 701 1245 1
(0.30655 0.246716 0.346725 0.100009) 702 1247 1
(0.60226 0.0528441 0.19887 0.146026) 703 1249 1
(0.0121368 0.493932 0.215181 0.27875) 705 1399 1
(0.45465 0.272675 0.216078 0.0565972) 706 1255 2
(0.699443 0.150279 0.0866494 0.0636291) 707 1405 1
(0.00763409 0.196151 0.496183 0.300032) 708 1407 2
(0.255353 0.372324 0.00327176 0.369052) 710 1412 2
(0.185475 0.407262 0.277282 0.12998) 711 1414 2
(0.0772925 0.391014 0.0703401 0.461354) 712 1416 1
(0.295835 0.352083 0.350694 0.00138864) 713 1418 2
(0.538561 0.23072 0.216811 0.0139082) 714 1271 2
(0.0372207 0.48139 0.304288 0.177102) 714 1419 1
(0.412326 0.0767338 0.293837 0.217103) 715 1273 1
(0.331729 0.334136 0.054928 0.279208) 716 1275 2
(0.307906 0.346047 0.287374 0.0586726) 717 1277 2
(0.228395 0.385803 0.0160393 0.369763) 718 1425 1
(0.215792 0.392104 0.323901 0.0682029) 719 1281 2
(0.39626 0.21516 0.30187 0.0867101) 720 1283 1
(0.14035 0.315215 0.429825 0.11461) 721 1433 2
(0.143182 0.160614 0.267795 0.428409) 723 1435 2
(0.36201 0.318995 0.20913 0.109865) 724 1440 2
(0.385163 0.307419 0.227266 0.0801527) 725 1442 2
(0.511353 0.0256808 0.218643 0.244324) 726 1444 1
(0.266934 0.0649301 0.301603 0.366533) 728 1445 2