/*--------------------------------*- C++ -*----------------------------------*\
  =========                 |
  \\      /  F ield         | OpenFOAM: The Open Source CFD Toolbox
   \\    /   O peration     | Website:  https://openfoam.org
    \\  /    A nd           | Version:  12
     \\/     M anipulation  |
\*---------------------------------------------------------------------------*/
FoamFile
{
    format      ascii;
    class       vectorField;
    location    "0.3/lagrangian/cloud";
    object      U;
}
// * * * * * * * * * * * * * * * * * * * * * * * * * * * * * * * * * * * * * //


3039
(
(0.00054821 -0.0280682 0)
(0.000926092 -0.0289879 0)
(0.000841719 -0.0296421 0)
(-0.000902213 -0.0311836 0)
(-0.000103812 -0.0320285 0)
(7.5197e-05 -0.0318485 0)
(-0.000258331 -0.0316078 0)
(-0.000575297 -0.0311234 0)
(-0.000317081 -0.0348331 0)
(6.84207e-05 -0.0331475 0)
(0.000524524 -0.0316767 0)
(0.000611165 -0.0303805 0)
(0.000588408 -0.0293221 0)
(0.000225475 -0.0290867 0)
(0.0003501 -0.024502 0)
(-0.00275353 -0.025217 0)
(0.000326739 -0.0271369 0)
(-0.00158017 -0.0286852 0)
(0.00239743 -0.0315826 0)
(0.000416795 -0.0313709 0)
(0.000150192 -0.0315117 0)
(-0.000487248 -0.0294144 0)
(0.000398251 -0.0297717 0)
(0.000340803 -0.0308767 0)
(-0.000535358 -0.0332094 0)
(7.64694e-05 -0.0331103 0)
(-0.000973263 -0.0321974 0)
(-0.002464 -0.0323304 0)
(0.00190405 -0.0354167 0)
(0.00180934 -0.0357471 0)
(0.00192515 -0.0378696 0)
(0.000971035 -0.0376264 0)
(0.000369437 -0.0358775 0)
(-0.000819406 -0.0373154 0)
(-0.00112352 -0.0366131 0)
(-0.00158034 -0.0350214 0)
(-0.000305404 -0.0318897 0)
(-0.000211951 -0.0325022 0)
(2.88745e-05 -0.0336701 0)
(-0.00080959 -0.0349782 0)
(0.000518019 -0.0349216 0)
(0.000774068 -0.0354474 0)
(0.000950685 -0.0380213 0)
(-0.000282784 -0.0398093 0)
(0.000404602 -0.0339122 0)
(-0.000294798 -0.0337025 0)
(2.16093e-05 -0.0339475 0)
(-0.000442177 -0.0361854 0)
(-0.000412957 -0.0317061 0)
(0.00287046 -0.0350503 0)
(0.00256921 -0.035364 0)
(-0.00271047 -0.0336326 0)
(-0.00118216 -0.0387701 0)
(-7.45411e-05 -0.0375756 0)
(-0.000585477 -0.034611 0)
(-0.00124748 -0.0329769 0)
(0.000537921 -0.0365613 0)
(-0.000833148 -0.0349511 0)
(-0.00202497 -0.0354652 0)
(-0.000311932 -0.035948 0)
(-2.65694e-05 -0.0384192 0)
(-0.000459852 -0.0357312 0)
(0.000315865 -0.035412 0)
(0.000246107 -0.0362698 0)
(0.000437823 -0.0346905 0)
(0.00297729 -0.0371038 0)
(0.00262545 -0.0364515 0)
(-8.02258e-06 -0.0438822 0)
(0.00152764 -0.042439 0)
(0.000736749 -0.0354794 0)
(-0.000331758 -0.0374087 0)
(-0.000341051 -0.0326375 0)
(0.00110214 -0.036226 0)
(0.000874279 -0.0426376 0)
(-0.000574167 -0.0457415 0)
(0.00189411 -0.0454168 0)
(0.00123863 -0.0444291 0)
(0.000590707 -0.0433176 0)
(-0.000792595 -0.0422997 0)
(0.00158537 -0.0414117 0)
(0.0017876 -0.0401276 0)
(0.00051334 -0.0415135 0)
(-0.000259996 -0.0410518 0)
(0.000198672 -0.040263 0)
(0.000195918 -0.0390827 0)
(-0.000607083 -0.0419577 0)
(0.00132396 -0.036062 0)
(0.000634944 -0.0373397 0)
(9.1328e-05 -0.0360509 0)
(-0.000458974 -0.0379047 0)
(-2.46372e-05 -0.0374177 0)
(0.000664008 -0.0430086 0)
(4.01525e-06 -0.0301349 0)
(-0.000347293 -0.0408127 0)
(0.000195909 -0.0448359 0)
(0.000190903 -0.0440665 0)
(0.00022358 -0.0443986 0)
(0.000458604 -0.0444148 0)
(-0.000852128 -0.0445279 0)
(-0.00350793 -0.0407061 0)
(-3.3046e-05 -0.0378129 0)
(-0.000274931 -0.0381148 0)
(-0.000847715 -0.0392481 0)
(0.000195014 -0.0396592 0)
(0.00121014 -0.0388433 0)
(0.00239608 -0.0454077 0)
(0.000868274 -0.0450875 0)
(-0.000146228 -0.0460636 0)
(-0.000125045 -0.0397506 0)
(-0.00093586 -0.0380782 0)
(-0.00135168 -0.0306606 0)
(-0.000556885 -0.0413862 0)
(-0.00022149 -0.0394468 0)
(-0.000179977 -0.0397517 0)
(-0.000861877 -0.0458837 0)
(-0.000473519 -0.0490914 0)
(-0.000376314 -0.0477667 0)
(-2.06136e-05 -0.0481749 0)
(0.00462006 -0.0477963 0)
(-0.000490078 -0.044329 0)
(-0.000746628 -0.041049 0)
(-0.000982742 -0.040431 0)
(-0.00119333 -0.0399493 0)
(-0.000483538 -0.0412437 0)
(-0.0012608 -0.0423824 0)
(0.00114977 -0.0440365 0)
(-0.00708141 -0.03805 0)
(-0.00237784 -0.0391556 0)
(0.00136088 -0.0429977 0)
(-0.000583282 -0.0481304 0)
(0.00194331 -0.044767 0)
(3.33684e-05 -0.0442356 0)
(-0.00048948 -0.0422086 0)
(0.000196147 -0.0422336 0)
(-0.000585106 -0.0487455 0)
(0.00137875 -0.0499654 0)
(0.00214434 -0.0500432 0)
(-0.00122045 -0.0485613 0)
(-0.000296185 -0.0520154 0)
(0.000727397 -0.0499672 0)
(-0.000172108 -0.0492045 0)
(0.000268504 -0.0517875 0)
(-1.45418e-05 -0.0531368 0)
(-0.000641255 -0.0544265 0)
(0.000175556 -0.0480508 0)
(-0.00113621 -0.0497046 0)
(-0.000899526 -0.0503236 0)
(0.000224436 -0.0471023 0)
(0.000148711 -0.0451147 0)
(0.00055943 -0.0449736 0)
(0.00349999 -0.0461985 0)
(0.000495173 -0.0501463 0)
(0.000558691 -0.0506144 0)
(0.00108686 -0.0507312 0)
(0.000900161 -0.0502292 0)
(0.00102929 -0.0497539 0)
(0.00140728 -0.0476869 0)
(-5.09422e-05 -0.0482149 0)
(0.000536121 -0.0491707 0)
(-0.00110326 -0.0454549 0)
(-0.000383706 -0.046683 0)
(-0.000282724 -0.0471915 0)
(-0.000680888 -0.0466185 0)
(-0.000440322 -0.0464879 0)
(-0.000159358 -0.0471923 0)
(-0.000415864 -0.0451023 0)
(0.00106257 -0.0473013 0)
(0.000355093 -0.0477661 0)
(8.74036e-05 -0.0494248 0)
(0.000428868 -0.0499425 0)
(0.00307439 -0.0481888 0)
(0.000393671 -0.0486587 0)
(-0.000217608 -0.0508623 0)
(-0.000355249 -0.0515384 0)
(-0.000436185 -0.0522781 0)
(0.00175655 -0.0510238 0)
(0.00153787 -0.0506221 0)
(0.000499211 -0.051674 0)
(0.000141621 -0.0526227 0)
(0.00151665 -0.0541336 0)
(5.69022e-05 -0.0530089 0)
(0.000446732 -0.0525892 0)
(-0.000378507 -0.0501485 0)
(-0.000411298 -0.0495854 0)
(-0.000328445 -0.0491539 0)
(0.000186423 -0.0453695 0)
(-2.16179e-05 -0.049532 0)
(-0.00039014 -0.0510382 0)
(-0.000608686 -0.0483062 0)
(0.000345558 -0.0494606 0)
(-0.000941979 -0.0530992 0)
(0.00167379 -0.0446059 0)
(-0.000128409 -0.0482163 0)
(-0.000137807 -0.0480805 0)
(-0.000789698 -0.0459467 0)
(0.00140711 -0.0494711 0)
(0.000699693 -0.0515852 0)
(-4.74125e-05 -0.0504059 0)
(0.0008738 -0.052238 0)
(0.000128816 -0.051526 0)
(-0.00194188 -0.0516577 0)
(-0.000639519 -0.0520661 0)
(0.00092463 -0.0531582 0)
(-0.000321056 -0.0532967 0)
(0.000113852 -0.0552355 0)
(-0.000953321 -0.0602145 0)
(-0.00181768 -0.0567652 0)
(-0.00112006 -0.0549891 0)
(-0.000373952 -0.0558807 0)
(-0.00023897 -0.0526244 0)
(-0.00067 -0.0513232 0)
(-0.00238257 -0.0520984 0)
(0.000232156 -0.0531153 0)
(0.0014271 -0.0534699 0)
(-0.000341601 -0.0505314 0)
(4.08138e-05 -0.0515323 0)
(-0.000277315 -0.051286 0)
(-0.000236713 -0.0476584 0)
(0.0036389 -0.0485145 0)
(0.00228526 -0.0486876 0)
(-0.000142341 -0.0496292 0)
(-0.000455277 -0.0490537 0)
(-0.000455144 -0.04902 0)
(5.82711e-06 -0.0487685 0)
(-0.000125984 -0.0464682 0)
(-0.00156382 -0.0465876 0)
(0.000172727 -0.0497777 0)
(0.000435423 -0.0482863 0)
(0.000787911 -0.0476602 0)
(0.000259757 -0.0509221 0)
(7.12619e-06 -0.0511194 0)
(0.000398332 -0.0516644 0)
(3.24347e-05 -0.0519412 0)
(-0.000226522 -0.0527038 0)
(0.00021966 -0.0524002 0)
(0.00390154 -0.0495014 0)
(0.00171018 -0.0542144 0)
(0.00101827 -0.0496218 0)
(-0.000113938 -0.0518596 0)
(0.000590613 -0.0536656 0)
(-0.00078442 -0.0522813 0)
(0.000447201 -0.0518464 0)
(-0.000117227 -0.0519631 0)
(0.000574984 -0.0522226 0)
(0.000366967 -0.052088 0)
(-0.000452815 -0.0516814 0)
(-0.000506555 -0.0497612 0)
(-0.000986386 -0.0476799 0)
(-0.00229732 -0.049133 0)
(9.54655e-05 -0.0501489 0)
(0.000629967 -0.0494904 0)
(0.00140077 -0.051045 0)
(0.000275395 -0.057607 0)
(0.000667338 -0.0548246 0)
(0.00077613 -0.0529343 0)
(-0.000230111 -0.0496326 0)
(-0.000412137 -0.0522104 0)
(-0.000827815 -0.0517128 0)
(0.000401896 -0.0532238 0)
(-4.59591e-05 -0.054495 0)
(-4.9929e-05 -0.0541163 0)
(0.000974978 -0.0572942 0)
(1.24201e-05 -0.054339 0)
(0.000508456 -0.0566607 0)
(0.000316445 -0.0587718 0)
(-0.00085757 -0.0587222 0)
(-0.00160667 -0.0570209 0)
(-7.57029e-05 -0.0553232 0)
(0.000308935 -0.0546844 0)
(0.000739377 -0.0541701 0)
(0.00086019 -0.0535218 0)
(-0.00031597 -0.0523283 0)
(0.000420509 -0.050247 0)
(0.000370746 -0.0525415 0)
(0.000346313 -0.0541575 0)
(-0.000768139 -0.0523404 0)
(-0.000431153 -0.051802 0)
(-0.000143738 -0.050536 0)
(-0.000399987 -0.0482721 0)
(-5.21905e-05 -0.0496149 0)
(5.70609e-05 -0.048178 0)
(-8.02478e-05 -0.0475843 0)
(4.70778e-05 -0.0489255 0)
(-0.001154 -0.0498209 0)
(-0.00115897 -0.0503935 0)
(-8.72255e-05 -0.0494828 0)
(0.000540642 -0.0487918 0)
(0.000601456 -0.0496364 0)
(0.000706715 -0.0512913 0)
(0.000162758 -0.0526759 0)
(0.00101979 -0.0542491 0)
(0.000289009 -0.0527761 0)
(0.00018586 -0.0521183 0)
(0.000475683 -0.0518965 0)
(-0.000143483 -0.0467457 0)
(0.000637119 -0.0498992 0)
(0.000219669 -0.0501768 0)
(0.000511591 -0.0488841 0)
(0.000374959 -0.0499184 0)
(3.08762e-05 -0.0493879 0)
(-9.72853e-05 -0.050065 0)
(-5.20872e-05 -0.0494236 0)
(0.000517106 -0.0485364 0)
(-0.00109173 -0.0501333 0)
(8.40075e-05 -0.0529139 0)
(0.00117922 -0.0498218 0)
(9.46283e-05 -0.0510719 0)
(-0.00100063 -0.0511303 0)
(-0.00114878 -0.0479498 0)
(-0.00196898 -0.0494578 0)
(0.00101171 -0.0510763 0)
(0.00126488 -0.0511797 0)
(3.94893e-05 -0.0569409 0)
(0.000473859 -0.0562715 0)
(-0.000181901 -0.0555453 0)
(-0.000180156 -0.0547811 0)
(0.000221894 -0.054118 0)
(0.001527 -0.0544364 0)
(0.0011429 -0.0545716 0)
(0.000438298 -0.0535538 0)
(0.00093261 -0.057901 0)
(0.000939874 -0.051728 0)
(0.000570904 -0.0546434 0)
(-0.000821484 -0.0574482 0)
(-0.00131523 -0.0569931 0)
(-0.00171295 -0.0568796 0)
(-0.0017068 -0.0564222 0)
(-0.000409981 -0.0556265 0)
(0.000434708 -0.0548847 0)
(0.00102001 -0.0534501 0)
(-0.000576896 -0.052549 0)
(-0.00106289 -0.0513017 0)
(0.000254674 -0.050837 0)
(-0.000387142 -0.0503236 0)
(-0.000314351 -0.0496943 0)
(0.000630822 -0.0496513 0)
(0.000800602 -0.0498909 0)
(0.000264378 -0.0498334 0)
(0.000207531 -0.0490636 0)
(0.000173848 -0.0501921 0)
(-0.000162771 -0.0504027 0)
(-0.000282627 -0.0501566 0)
(-0.000319469 -0.0507869 0)
(0.00111862 -0.0500198 0)
(-0.000176767 -0.0502017 0)
(0.000812814 -0.051149 0)
(0.00230057 -0.0511425 0)
(0.00311214 -0.0507172 0)
(0.00214453 -0.0506556 0)
(0.00100897 -0.0516559 0)
(0.000614071 -0.0520473 0)
(2.85393e-05 -0.0505571 0)
(-5.93763e-05 -0.0548542 0)
(-8.49979e-05 -0.052199 0)
(1.22669e-05 -0.0514642 0)
(-0.000158009 -0.0515639 0)
(-0.000165762 -0.0515344 0)
(-0.000394782 -0.0512273 0)
(-0.000134037 -0.051811 0)
(0.000680153 -0.0524643 0)
(-5.04629e-05 -0.0503968 0)
(-0.000175969 -0.0481765 0)
(-0.000503364 -0.0503209 0)
(-0.000156734 -0.0508035 0)
(-0.000366714 -0.0518534 0)
(2.09817e-05 -0.0501778 0)
(0.000449143 -0.0509648 0)
(-6.62351e-05 -0.0523939 0)
(0.00160812 -0.0538766 0)
(0.00311956 -0.0532888 0)
(0.000882747 -0.0505771 0)
(0.000287444 -0.0505519 0)
(-0.000133302 -0.0558128 0)
(-0.00036742 -0.0553285 0)
(-0.000276586 -0.0548689 0)
(-0.000231294 -0.0547494 0)
(0.000558953 -0.0542606 0)
(0.00103446 -0.055308 0)
(0.000146989 -0.0538647 0)
(0.00109636 -0.0541751 0)
(0.000739806 -0.0509739 0)
(-0.000232682 -0.0546234 0)
(-0.0004081 -0.0521716 0)
(-0.000354478 -0.0509635 0)
(-0.00153259 -0.0521915 0)
(-0.00102502 -0.0529306 0)
(-9.34941e-05 -0.0516708 0)
(-0.000129745 -0.0525496 0)
(-0.00115852 -0.0515505 0)
(-0.00139191 -0.051962 0)
(0.000545682 -0.0512918 0)
(-0.000198523 -0.0475415 0)
(-0.000771823 -0.0471794 0)
(-0.000700117 -0.0474085 0)
(-0.000200794 -0.0481078 0)
(-0.000298852 -0.0480187 0)
(0.000612952 -0.0500316 0)
(0.000436061 -0.0498225 0)
(0.000159725 -0.0462865 0)
(0.000561819 -0.0544973 0)
(0.00024178 -0.0558172 0)
(-0.00037787 -0.0564519 0)
(-0.00035508 -0.055143 0)
(0.000100039 -0.055122 0)
(0.000201927 -0.0546963 0)
(0.000437118 -0.0543861 0)
(0.00265923 -0.0540827 0)
(0.00289057 -0.052049 0)
(0.00251462 -0.0525272 0)
(0.000581834 -0.0542106 0)
(6.33621e-05 -0.0531651 0)
(-0.000384876 -0.0530303 0)
(0.0002054 -0.0530705 0)
(-0.000203767 -0.0531427 0)
(-0.000733424 -0.0538743 0)
(0.000127331 -0.0543702 0)
(0.00064979 -0.054758 0)
(0.000185908 -0.0552822 0)
(-0.00022212 -0.0549399 0)
(0.000265804 -0.0545647 0)
(0.000899011 -0.0509689 0)
(0.000323157 -0.0483237 0)
(-0.000340884 -0.0491037 0)
(-0.00123323 -0.0523719 0)
(-0.00093836 -0.0516309 0)
(-0.000360419 -0.0522418 0)
(-0.000218074 -0.0526628 0)
(-6.46907e-05 -0.050647 0)
(0.000968226 -0.0534679 0)
(0.000863489 -0.0516315 0)
(0.00276782 -0.0534855 0)
(0.0021791 -0.0514794 0)
(0.000202619 -0.0541773 0)
(-0.00027635 -0.0550951 0)
(-0.000123661 -0.0545195 0)
(0.00111164 -0.05438 0)
(0.00138102 -0.0543576 0)
(0.00281862 -0.0535584 0)
(0.000662117 -0.053849 0)
(0.000730886 -0.0529877 0)
(0.000466107 -0.0516838 0)
(6.17573e-05 -0.0511575 0)
(-0.00120838 -0.050391 0)
(-0.000567068 -0.0496129 0)
(-0.000490718 -0.0498871 0)
(-0.000752076 -0.0520981 0)
(-0.000497374 -0.0520377 0)
(-0.000830468 -0.0523322 0)
(-0.000718138 -0.0532177 0)
(-0.00111209 -0.0493935 0)
(-2.49244e-05 -0.0513329 0)
(0.000448102 -0.0519812 0)
(-0.00261273 -0.0515325 0)
(-0.00180076 -0.0511198 0)
(-0.000904019 -0.0486636 0)
(-0.0011961 -0.0498972 0)
(-0.00119762 -0.0517583 0)
(-0.00211581 -0.0511176 0)
(0.000295544 -0.05131 0)
(-0.00132582 -0.0538718 0)
(0.00130993 -0.0558022 0)
(0.0016129 -0.0572114 0)
(0.000303738 -0.0587457 0)
(-0.000159558 -0.0597402 0)
(-0.000210457 -0.0599274 0)
(0.000229558 -0.061172 0)
(-0.000759755 -0.0569355 0)
(-0.000466242 -0.0568075 0)
(0.00107196 -0.0550871 0)
(0.000447607 -0.0530965 0)
(0.000163025 -0.0541313 0)
(0.000486734 -0.0519681 0)
(8.58016e-05 -0.051278 0)
(0.000127973 -0.0519973 0)
(0.000798048 -0.0561029 0)
(0.00104557 -0.0540472 0)
(0.000212204 -0.0546329 0)
(-1.80829e-05 -0.0548542 0)
(0.000149649 -0.0577496 0)
(0.000326891 -0.0562966 0)
(0.000448923 -0.0554235 0)
(-0.000230971 -0.0544192 0)
(-0.000955889 -0.0516577 0)
(-0.000538865 -0.0498483 0)
(-0.000695496 -0.0497807 0)
(0.000177086 -0.0510585 0)
(-1.98146e-06 -0.0514682 0)
(-0.000534379 -0.0521758 0)
(0.000900056 -0.0505815 0)
(0.000583951 -0.0542328 0)
(0.000777694 -0.0546495 0)
(-0.000110031 -0.0534814 0)
(-0.000659372 -0.0530719 0)
(0.000203619 -0.0513642 0)
(0.000436861 -0.052204 0)
(-0.00127321 -0.0536559 0)
(0.00161678 -0.0535098 0)
(0.000130968 -0.0550453 0)
(0.000980954 -0.0525475 0)
(0.0015345 -0.0508906 0)
(-0.000609966 -0.0505199 0)
(0.000549863 -0.0517995 0)
(-0.000628716 -0.0488119 0)
(-0.000421674 -0.0480584 0)
(0.000284519 -0.0489462 0)
(0.000255724 -0.0518428 0)
(-0.000522721 -0.0524641 0)
(-0.000705243 -0.0523621 0)
(0.00179468 -0.0546594 0)
(0.0016133 -0.0565771 0)
(0.000728277 -0.053273 0)
(0.000292528 -0.0544776 0)
(-0.000625217 -0.0553919 0)
(-0.000162814 -0.0563887 0)
(-0.000336182 -0.0567917 0)
(-0.000499706 -0.0519555 0)
(-0.000309272 -0.053964 0)
(-0.00150012 -0.0552259 0)
(-8.43665e-05 -0.0579176 0)
(-0.00309419 -0.054455 0)
(0.000709288 -0.0560527 0)
(0.00123501 -0.0562726 0)
(0.00121416 -0.0600907 0)
(0.000641768 -0.0607088 0)
(5.28268e-05 -0.0620288 0)
(0.00283114 -0.0615754 0)
(0.000364809 -0.060745 0)
(-0.000989526 -0.0575445 0)
(-0.00104255 -0.0559285 0)
(0.000197139 -0.0545257 0)
(-0.000433196 -0.0550971 0)
(0.00110407 -0.0530631 0)
(0.000505606 -0.0516519 0)
(0.000212204 -0.0532946 0)
(-0.00039281 -0.0548887 0)
(-0.000897703 -0.0558381 0)
(-0.00144142 -0.0557034 0)
(-0.000342417 -0.0573087 0)
(-0.000674512 -0.0558976 0)
(-0.000473707 -0.0570504 0)
(0.000192543 -0.0561579 0)
(0.000417944 -0.0568547 0)
(0.000346626 -0.0552849 0)
(-0.000688136 -0.0538789 0)
(-0.00110808 -0.0530488 0)
(-0.00140425 -0.0521438 0)
(-0.000633223 -0.0521692 0)
(3.69805e-05 -0.0525364 0)
(0.00283325 -0.0524625 0)
(0.00141381 -0.0532011 0)
(-0.000748339 -0.0544604 0)
(-0.000152635 -0.0534007 0)
(-0.000451244 -0.0534475 0)
(-0.000790737 -0.0512103 0)
(-0.000437357 -0.0494027 0)
(0.000333863 -0.0515919 0)
(0.000745606 -0.0546178 0)
(0.00233318 -0.0521713 0)
(-0.000336698 -0.0544754 0)
(1.12438e-05 -0.0530585 0)
(-0.000252852 -0.0508116 0)
(-0.000878425 -0.0529351 0)
(-0.000346956 -0.0514853 0)
(-3.10028e-05 -0.0490164 0)
(-4.43991e-05 -0.0463714 0)
(-0.000311834 -0.0494 0)
(0.000412898 -0.0522163 0)
(-0.0022651 -0.054777 0)
(0.000217751 -0.0539944 0)
(5.08754e-05 -0.0522831 0)
(0.00164027 -0.0512271 0)
(0.000802695 -0.0537367 0)
(0.000837403 -0.0546713 0)
(0.000241925 -0.0545846 0)
(-0.000549177 -0.0555062 0)
(-0.00120402 -0.0594281 0)
(-0.000281118 -0.06085 0)
(-0.0006071 -0.0631302 0)
(0.000234812 -0.0611757 0)
(0.000729939 -0.063254 0)
(-0.000272705 -0.0582052 0)
(0.000181352 -0.0577467 0)
(0.000234065 -0.0588215 0)
(0.000147225 -0.0590585 0)
(0.00131296 -0.0583848 0)
(-0.000600798 -0.0611094 0)
(-1.87639e-05 -0.0613037 0)
(-0.00168262 -0.0579996 0)
(-0.000225997 -0.0557861 0)
(-0.00105964 -0.0555037 0)
(0.000484316 -0.0543313 0)
(0.000892935 -0.0532129 0)
(-0.000957593 -0.0543773 0)
(-0.00150638 -0.050134 0)
(-0.000944422 -0.0503177 0)
(-0.000633631 -0.0531333 0)
(-0.000291249 -0.0546674 0)
(0.000353018 -0.0557249 0)
(0.000731089 -0.0571777 0)
(-0.000289085 -0.057832 0)
(0.000954589 -0.0561136 0)
(-0.000816345 -0.0559492 0)
(-0.00103933 -0.0549906 0)
(-0.001003 -0.0542772 0)
(-0.00152824 -0.053393 0)
(-0.000140391 -0.0530959 0)
(0.00124635 -0.0526274 0)
(0.00158567 -0.0521838 0)
(0.00342444 -0.0507098 0)
(0.00163466 -0.0489392 0)
(0.000419485 -0.0513455 0)
(-8.86236e-05 -0.0526983 0)
(-3.36862e-05 -0.0497757 0)
(-0.000384521 -0.0524785 0)
(-0.000544816 -0.0526345 0)
(0.000529754 -0.0517221 0)
(0.000673545 -0.0530154 0)
(0.000841834 -0.0535018 0)
(0.00105165 -0.0541271 0)
(-0.000342864 -0.0523418 0)
(-0.00199781 -0.0523129 0)
(-0.00186251 -0.0513426 0)
(-0.00113182 -0.0501848 0)
(0.00129852 -0.0472562 0)
(-0.00069049 -0.048265 0)
(-0.00027283 -0.0492286 0)
(-0.00165571 -0.0510505 0)
(-0.000327667 -0.0509093 0)
(0.00113052 -0.0486493 0)
(0.0006582 -0.0488461 0)
(9.9307e-05 -0.0499367 0)
(8.86862e-05 -0.049204 0)
(-0.000500461 -0.0499798 0)
(-0.000411039 -0.0527508 0)
(0.000219141 -0.0555478 0)
(-0.000313209 -0.0579868 0)
(-0.000112717 -0.0591154 0)
(-0.000162899 -0.0590455 0)
(0.000141593 -0.06009 0)
(-0.000905281 -0.0620522 0)
(0.000631511 -0.0594345 0)
(0.000313735 -0.0571012 0)
(0.000111229 -0.0558074 0)
(0.00116781 -0.0573563 0)
(0.000503461 -0.0586437 0)
(-0.000418423 -0.0570604 0)
(-0.000570616 -0.0559041 0)
(-0.00201151 -0.0576947 0)
(-0.00126904 -0.0555169 0)
(-0.000455121 -0.0552224 0)
(-0.000529855 -0.0547673 0)
(0.000105197 -0.0538516 0)
(0.000549284 -0.0536008 0)
(0.00244626 -0.0526695 0)
(-0.00170758 -0.0522852 0)
(-0.00225485 -0.0507879 0)
(0.000401374 -0.050426 0)
(0.000760228 -0.0523587 0)
(0.000975074 -0.0532612 0)
(0.00123271 -0.0538797 0)
(-0.000854309 -0.0543491 0)
(-0.000788838 -0.0559273 0)
(-0.00137105 -0.0535141 0)
(0.000506542 -0.0531275 0)
(-0.0016709 -0.0532622 0)
(-0.00071988 -0.0530784 0)
(0.000310322 -0.0519702 0)
(0.000400991 -0.049244 0)
(0.00177133 -0.0478826 0)
(0.000272007 -0.0491443 0)
(-0.000616945 -0.0481343 0)
(-0.000910155 -0.0477161 0)
(-0.00128582 -0.0464765 0)
(0.00114304 -0.0531103 0)
(-0.00038012 -0.0547147 0)
(4.80006e-05 -0.0547159 0)
(0.000842205 -0.0548354 0)
(0.000153971 -0.0536632 0)
(0.000198994 -0.0538848 0)
(-0.000796165 -0.049655 0)
(-0.00217786 -0.051554 0)
(-0.00253596 -0.0518002 0)
(-0.00054897 -0.0544406 0)
(-0.00110689 -0.0528641 0)
(0.000422699 -0.0511886 0)
(0.000863512 -0.0503977 0)
(0.000435415 -0.0493719 0)
(-0.00028523 -0.0495565 0)
(-0.00168969 -0.0490615 0)
(9.29159e-05 -0.0475334 0)
(0.000788468 -0.0465081 0)
(0.000567817 -0.0446996 0)
(0.00199999 -0.0467007 0)
(0.00312235 -0.0488784 0)
(0.000991393 -0.0520382 0)
(0.00102035 -0.0544529 0)
(0.000536168 -0.0552189 0)
(-7.51318e-05 -0.0567851 0)
(0.000335994 -0.0574831 0)
(-0.000781459 -0.0574086 0)
(-0.000111929 -0.055459 0)
(-0.000934114 -0.0516344 0)
(-0.000333227 -0.0524306 0)
(-0.000770562 -0.0529157 0)
(-0.00349186 -0.0534051 0)
(-0.000513982 -0.0564552 0)
(-3.98357e-05 -0.0548278 0)
(-0.00180363 -0.0555642 0)
(-0.00235429 -0.0550207 0)
(-0.000702378 -0.0553235 0)
(0.00105459 -0.0558021 0)
(0.000484593 -0.054207 0)
(0.000427857 -0.0534144 0)
(1.40728e-05 -0.0528443 0)
(0.000222392 -0.0519789 0)
(-0.000616885 -0.0501152 0)
(-8.25825e-05 -0.0482646 0)
(0.000129151 -0.049183 0)
(0.000220566 -0.050475 0)
(0.000448964 -0.051644 0)
(0.000988467 -0.0534032 0)
(-0.000921898 -0.0544441 0)
(-0.00214755 -0.0541728 0)
(-0.00164806 -0.0504699 0)
(-0.000988628 -0.0529149 0)
(-0.000792441 -0.052484 0)
(-0.000885153 -0.051887 0)
(-7.52514e-05 -0.0464168 0)
(0.000344684 -0.0501531 0)
(0.00101211 -0.0503289 0)
(0.000983433 -0.0487401 0)
(-0.000177068 -0.0478306 0)
(-0.000532888 -0.0473041 0)
(-0.000431655 -0.0530377 0)
(1.12737e-05 -0.0542922 0)
(0.000484573 -0.0548989 0)
(0.000470914 -0.0542912 0)
(-0.000470338 -0.05531 0)
(-0.000447082 -0.0544708 0)
(0.00107697 -0.0548091 0)
(-0.00102346 -0.0513436 0)
(-0.00136776 -0.0539878 0)
(-0.00382104 -0.0526322 0)
(-0.000544752 -0.0551172 0)
(-0.000684648 -0.0525091 0)
(3.13452e-05 -0.0519052 0)
(-0.000710986 -0.0526441 0)
(0.000307985 -0.0511929 0)
(-0.000138695 -0.0522956 0)
(-0.00200855 -0.0531485 0)
(-0.00277549 -0.0522765 0)
(-0.000539635 -0.0513979 0)
(0.00288045 -0.046664 0)
(0.00376095 -0.048212 0)
(-0.00115699 -0.0512618 0)
(0.0028496 -0.0529844 0)
(0.00085536 -0.0528653 0)
(0.00085595 -0.0558136 0)
(0.000572614 -0.0532424 0)
(-0.0012955 -0.052615 0)
(-0.000563487 -0.0492379 0)
(0.000352982 -0.0478107 0)
(0.000182953 -0.0476998 0)
(0.000176199 -0.0476616 0)
(0.000831368 -0.0458026 0)
(0.000288108 -0.0459907 0)
(-0.000175178 -0.0514626 0)
(-0.000625956 -0.0527711 0)
(-0.000785779 -0.0538285 0)
(-0.000106416 -0.0554957 0)
(0.00127519 -0.052827 0)
(0.000991022 -0.0524598 0)
(0.000301244 -0.0530782 0)
(-0.00040846 -0.052251 0)
(5.33362e-05 -0.0523108 0)
(-0.000517143 -0.0503649 0)
(-0.000492628 -0.0487642 0)
(-6.13556e-05 -0.0497903 0)
(0.000141186 -0.0512664 0)
(0.00083021 -0.0525664 0)
(5.64589e-05 -0.0529081 0)
(-0.00133715 -0.0538556 0)
(-0.00209787 -0.0536754 0)
(-0.00313218 -0.0533211 0)
(-0.00149093 -0.052536 0)
(-0.000484073 -0.0526882 0)
(0.00037828 -0.0489837 0)
(0.000216938 -0.048873 0)
(0.000195642 -0.0488071 0)
(0.00134506 -0.0485644 0)
(0.000578753 -0.0504286 0)
(0.000125361 -0.0509003 0)
(-0.000671882 -0.0509463 0)
(0.000385586 -0.0557762 0)
(0.000409727 -0.0546763 0)
(-0.000174773 -0.0550851 0)
(0.000842097 -0.0546853 0)
(1.13681e-05 -0.0542432 0)
(0.000716119 -0.053435 0)
(0.000499434 -0.051694 0)
(0.00145871 -0.0537776 0)
(0.000867687 -0.0547143 0)
(1.5215e-05 -0.0553741 0)
(-0.000875808 -0.0561634 0)
(0.00104607 -0.0554853 0)
(-0.000118968 -0.0546633 0)
(-0.000335422 -0.0551752 0)
(0.00084962 -0.0554253 0)
(-0.000760316 -0.0513089 0)
(-0.000857767 -0.05547 0)
(-0.000155554 -0.0551607 0)
(0.00188127 -0.0527454 0)
(0.00452054 -0.0497154 0)
(0.00301234 -0.0525484 0)
(0.00300561 -0.0537994 0)
(0.00157203 -0.0498952 0)
(0.00220462 -0.0486221 0)
(0.00254284 -0.0475036 0)
(-4.06869e-05 -0.0484601 0)
(-0.00173508 -0.0478059 0)
(-0.00115704 -0.0466484 0)
(0.00016621 -0.0434872 0)
(0.000510845 -0.0430693 0)
(0.00123483 -0.0475178 0)
(0.000992936 -0.0457457 0)
(-0.000339264 -0.0459487 0)
(-0.000188526 -0.0485971 0)
(-4.60487e-05 -0.0515015 0)
(-7.18036e-05 -0.054594 0)
(0.00194194 -0.0515072 0)
(0.00107849 -0.0499236 0)
(0.000698666 -0.049568 0)
(-0.000173283 -0.0510356 0)
(-0.000565792 -0.0513224 0)
(-0.000120454 -0.0522635 0)
(-0.000604238 -0.0521015 0)
(-7.20722e-06 -0.0518144 0)
(-0.00106797 -0.054867 0)
(0.00134736 -0.0528603 0)
(-0.00019104 -0.0513089 0)
(0.000273384 -0.0502191 0)
(-0.00124908 -0.0474533 0)
(-0.000859047 -0.0502974 0)
(-0.00073698 -0.0513477 0)
(-0.000502629 -0.051806 0)
(0.000300474 -0.052171 0)
(-0.000166218 -0.0522373 0)
(0.000358497 -0.0491416 0)
(-0.000998973 -0.0504458 0)
(0.0012588 -0.05239 0)
(0.000903804 -0.0514766 0)
(0.000158895 -0.0530444 0)
(0.000653824 -0.0534868 0)
(0.000510571 -0.0556603 0)
(0.000850715 -0.0557433 0)
(-0.000223339 -0.05534 0)
(4.61901e-05 -0.0550874 0)
(-4.90825e-05 -0.0545984 0)
(0.000819112 -0.0536059 0)
(0.000172051 -0.052058 0)
(0.00121711 -0.0531796 0)
(0.00126116 -0.0533587 0)
(0.000580051 -0.0533392 0)
(-0.000816665 -0.0554768 0)
(-0.000651255 -0.054377 0)
(-0.000117034 -0.0536483 0)
(-0.000114235 -0.0529047 0)
(-6.53103e-06 -0.0495236 0)
(-0.000766529 -0.0510324 0)
(-0.000262241 -0.0549793 0)
(0.00155219 -0.0528634 0)
(0.00310272 -0.05384 0)
(0.00285582 -0.0542396 0)
(0.00361161 -0.0510855 0)
(0.0020715 -0.0495955 0)
(0.000920789 -0.0486079 0)
(0.00107159 -0.0447577 0)
(0.000380313 -0.0453007 0)
(0.000692987 -0.0477816 0)
(2.62899e-05 -0.0495178 0)
(-0.000861355 -0.0505826 0)
(-0.00102319 -0.0521514 0)
(-0.00131886 -0.048273 0)
(0.000517713 -0.0460469 0)
(0.000846037 -0.0460252 0)
(0.000151752 -0.048148 0)
(-0.000740246 -0.05066 0)
(0.00122382 -0.0518164 0)
(0.00110594 -0.051665 0)
(0.00183527 -0.0488385 0)
(0.000802239 -0.0481372 0)
(-0.000521986 -0.0463018 0)
(-0.00179216 -0.0495241 0)
(-0.00107297 -0.0495597 0)
(-0.000502688 -0.0515461 0)
(-0.000444627 -0.0523559 0)
(0.000802543 -0.0536577 0)
(0.000596996 -0.0521824 0)
(-0.000289526 -0.0508566 0)
(-0.000770751 -0.0522554 0)
(1.63893e-05 -0.0497229 0)
(0.00024055 -0.0500307 0)
(9.01069e-05 -0.0483071 0)
(-0.000385308 -0.0475976 0)
(0.00102128 -0.0502086 0)
(0.000693844 -0.0518294 0)
(0.000351717 -0.0532957 0)
(-0.000401945 -0.0525206 0)
(-0.00092779 -0.049602 0)
(0.00199814 -0.0569253 0)
(0.000236019 -0.0526028 0)
(0.000636886 -0.0551941 0)
(-0.00121844 -0.0580319 0)
(0.00222161 -0.0537841 0)
(0.00308778 -0.0557497 0)
(-0.00197541 -0.0559418 0)
(-0.000923223 -0.0555207 0)
(-0.000847858 -0.0544993 0)
(0.000276652 -0.054228 0)
(-0.000244717 -0.0530956 0)
(-0.00114685 -0.0492751 0)
(-5.26788e-05 -0.0501617 0)
(-0.000352428 -0.0519704 0)
(-0.00179906 -0.0527499 0)
(0.000214798 -0.0536699 0)
(0.00019452 -0.0546426 0)
(0.000425475 -0.0536282 0)
(-0.000250163 -0.0528393 0)
(8.4936e-05 -0.049749 0)
(0.000401556 -0.0541193 0)
(0.00210909 -0.0490444 0)
(0.0023875 -0.0534477 0)
(0.00177804 -0.0554965 0)
(0.000479747 -0.0499462 0)
(0.000216249 -0.046756 0)
(0.000181223 -0.0466196 0)
(0.000711463 -0.0462909 0)
(0.0022037 -0.0457165 0)
(0.000428063 -0.0470959 0)
(4.93274e-05 -0.0496808 0)
(-0.000704901 -0.0516008 0)
(-0.00121709 -0.0518607 0)
(-0.000967765 -0.0499428 0)
(-0.000156851 -0.0490392 0)
(-6.81917e-05 -0.0496774 0)
(0.000465411 -0.0495674 0)
(0.000161359 -0.0473273 0)
(-2.03499e-05 -0.0448838 0)
(0.00116422 -0.0438353 0)
(-0.000731147 -0.0457926 0)
(0.00111046 -0.0457566 0)
(-0.00126912 -0.0464246 0)
(0.000189734 -0.0480712 0)
(-0.000145039 -0.0499069 0)
(-6.33803e-05 -0.0532277 0)
(0.00382978 -0.0509972 0)
(0.00210438 -0.0525196 0)
(0.000723329 -0.0505458 0)
(-0.000399381 -0.0488844 0)
(-0.00232118 -0.0490229 0)
(-0.00292656 -0.0491998 0)
(-0.00152533 -0.0480299 0)
(-0.00129289 -0.0480206 0)
(-0.000143025 -0.0484189 0)
(0.000586564 -0.052666 0)
(0.000331392 -0.0511703 0)
(0.000480839 -0.0518036 0)
(0.000261615 -0.0522605 0)
(7.44596e-05 -0.0542058 0)
(0.00132266 -0.0554402 0)
(0.000825884 -0.0555077 0)
(0.00010591 -0.0552957 0)
(-0.000630419 -0.0575349 0)
(0.00135803 -0.0538986 0)
(0.000657439 -0.0538354 0)
(-0.000297134 -0.0553213 0)
(0.000274471 -0.0530976 0)
(0.000339367 -0.051889 0)
(-0.000248814 -0.0533793 0)
(-0.000618663 -0.0517706 0)
(-0.000556699 -0.0513776 0)
(-0.000535599 -0.0500248 0)
(-0.000744092 -0.0503487 0)
(-0.00186212 -0.0521503 0)
(-0.000427637 -0.0541792 0)
(-0.000386215 -0.0544499 0)
(-0.000979633 -0.0534657 0)
(-0.000506013 -0.0548096 0)
(0.0039049 -0.0558026 0)
(0.000678906 -0.0558303 0)
(0.000438763 -0.0554291 0)
(6.89188e-05 -0.0550485 0)
(0.000549536 -0.0526635 0)
(-0.000286292 -0.0513425 0)
(-0.00148655 -0.0502885 0)
(-0.000224096 -0.0522819 0)
(0.00134769 -0.0487803 0)
(0.00154411 -0.0507046 0)
(0.000617727 -0.0495957 0)
(8.34292e-05 -0.0526917 0)
(-0.000457628 -0.0529763 0)
(-0.00226762 -0.0508653 0)
(-0.000645627 -0.0517982 0)
(-0.000453089 -0.0496083 0)
(-0.000942196 -0.0491097 0)
(-0.000633258 -0.0479053 0)
(0.00066323 -0.0466226 0)
(0.00199746 -0.0448888 0)
(-0.000329376 -0.0450021 0)
(-0.000780373 -0.0466362 0)
(0.00123024 -0.0475302 0)
(-0.000218649 -0.0487473 0)
(-0.00136183 -0.0509406 0)
(-4.54176e-05 -0.052453 0)
(-0.000213905 -0.0493135 0)
(0.000833631 -0.0512622 0)
(0.00110006 -0.0509169 0)
(-0.00038507 -0.0493911 0)
(-0.00187651 -0.0467038 0)
(-0.000483019 -0.0463905 0)
(-0.000732542 -0.0473306 0)
(-0.00174777 -0.0486556 0)
(-0.00110276 -0.0498923 0)
(0.000713735 -0.0488225 0)
(-0.00126535 -0.0496051 0)
(0.000582985 -0.0511388 0)
(0.000998847 -0.0533013 0)
(-0.000116922 -0.0511678 0)
(5.40316e-05 -0.052757 0)
(0.000277908 -0.0540706 0)
(0.00124982 -0.0551735 0)
(3.13917e-05 -0.056551 0)
(-0.0014701 -0.0547618 0)
(-0.000183959 -0.0540741 0)
(0.0015883 -0.0545864 0)
(-0.000379503 -0.0533321 0)
(-0.00157083 -0.0485572 0)
(0.00119853 -0.0505348 0)
(0.000778495 -0.050068 0)
(-0.000866395 -0.0516688 0)
(-0.00067749 -0.0499108 0)
(-0.000454529 -0.0480509 0)
(-0.00175655 -0.0505735 0)
(-0.00052532 -0.0529383 0)
(-0.000765277 -0.0532226 0)
(0.000470807 -0.0536426 0)
(-0.000115614 -0.0534143 0)
(-3.79928e-05 -0.0541902 0)
(0.000187155 -0.055487 0)
(0.00152459 -0.0582184 0)
(0.000930959 -0.0576539 0)
(0.000599629 -0.0573996 0)
(6.18869e-05 -0.0577169 0)
(-0.000115066 -0.057233 0)
(0.000237053 -0.0555576 0)
(-0.000209669 -0.0535221 0)
(0.000507375 -0.0511056 0)
(0.000459904 -0.0513589 0)
(0.00132974 -0.0510842 0)
(0.000466678 -0.0539746 0)
(0.000295798 -0.0527584 0)
(-0.000934318 -0.0529525 0)
(-0.000225912 -0.0536791 0)
(-0.000148826 -0.053835 0)
(0.000691455 -0.0531669 0)
(9.55983e-06 -0.0523671 0)
(-8.73333e-05 -0.0518202 0)
(-0.000419169 -0.0503096 0)
(-0.000683182 -0.0496029 0)
(-0.000151309 -0.0493139 0)
(-0.00125117 -0.0480577 0)
(-0.000266641 -0.0489601 0)
(0.000706761 -0.0493612 0)
(0.00106117 -0.0480261 0)
(0.00120992 -0.0491504 0)
(0.00191089 -0.048647 0)
(0.000479944 -0.0485766 0)
(0.000748973 -0.0481784 0)
(-0.000496986 -0.0490535 0)
(-0.00130432 -0.0503148 0)
(-0.00110769 -0.0511315 0)
(0.000137319 -0.0482299 0)
(0.00118182 -0.0478804 0)
(0.000379266 -0.0526008 0)
(-0.000105562 -0.0528539 0)
(0.00086673 -0.0521061 0)
(-2.39989e-05 -0.0517023 0)
(-0.00022564 -0.0513782 0)