/*--------------------------------*- C++ -*----------------------------------*\
  =========                 |
  \\      /  F ield         | OpenFOAM: The Open Source CFD Toolbox
   \\    /   O peration     | Website:  https://openfoam.org
    \\  /    A nd           | Version:  12
     \\/     M anipulation  |
\*---------------------------------------------------------------------------*/
FoamFile
{
    format      ascii;
    class       volVectorField::Internal;
    location    "0.15";
    object      cloud:UTrans;
}
// * * * * * * * * * * * * * * * * * * * * * * * * * * * * * * * * * * * * * //

dimensions      [1 1 -1 0 0 0 0];

value           nonuniform List<vector> 
3750
(
(-1.85501e-10 -2.00672e-09 0)
(-2.63607e-10 -2.01372e-09 0)
(-7.06589e-11 -2.10483e-09 0)
(0 0 0)
(2.93835e-11 -1.9977e-09 0)
(1.08857e-10 -2.27146e-09 0)
(-1.50065e-11 -1.92391e-09 0)
(-7.69947e-11 -4.13779e-09 0)
(9.93379e-11 -2.25619e-09 0)
(-1.74559e-10 -2.28477e-09 0)
(0 0 0)
(-6.44719e-11 -1.72823e-09 0)
(4.50903e-10 -2.05696e-09 0)
(2.8861e-10 -1.93649e-09 0)
(1.5258e-10 -1.9419e-09 0)
(1.80094e-10 -1.98839e-09 0)
(6.57258e-11 -1.8085e-09 0)
(1.20007e-10 -4.58391e-09 0)
(-1.49592e-10 -1.98579e-09 0)
(4.00982e-11 -1.82852e-09 0)
(-8.7242e-11 -2.04744e-09 0)
(7.17204e-11 -2.06199e-09 0)
(6.84805e-12 -2.39485e-10 0)
(1.56134e-10 -3.68771e-09 0)
(1.14998e-10 -1.91651e-09 0)
(1.29688e-10 -2.04635e-09 0)
(1.90718e-11 -1.80135e-09 0)
(-1.25814e-10 -1.9808e-09 0)
(-9.92428e-11 -2.09835e-09 0)
(-5.03887e-11 -2.12569e-09 0)
(2.51306e-11 -2.0606e-09 0)
(3.4459e-10 -2.39055e-09 0)
(2.59223e-11 -2.43575e-09 0)
(1.02768e-10 -2.35019e-09 0)
(1.84769e-10 -2.13487e-09 0)
(6.75814e-11 -2.05398e-09 0)
(1.30524e-10 -2.0296e-09 0)
(6.9942e-11 -4.23953e-09 0)
(-6.10441e-11 -1.94977e-09 0)
(-1.08301e-10 -2.29062e-09 0)
(-5.74493e-12 -8.47841e-10 0)
(-5.38869e-12 -7.06086e-10 0)
(-2.83426e-11 -2.08127e-09 0)
(-7.33909e-12 -2.15941e-09 0)
(-2.02105e-11 -2.12876e-09 0)
(3.26969e-11 -1.91283e-09 0)
(4.16564e-11 -2.05611e-09 0)
(8.25392e-11 -2.21274e-09 0)
(-1.24079e-11 -2.09775e-09 0)
(-6.79081e-11 -2.11104e-09 0)
(-6.55405e-12 -2.14515e-09 0)
(0 0 0)
(-4.23317e-11 -1.75781e-09 0)
(4.43831e-11 -2.34224e-09 0)
(-3.43422e-11 -1.6561e-09 0)
(1.83026e-11 -1.70472e-09 0)
(4.43264e-10 -4.363e-09 0)
(1.92036e-10 -2.21699e-09 0)
(-1.54413e-11 -2.38234e-09 0)
(-1.25854e-11 -2.64892e-09 0)
(-7.23436e-11 -2.27717e-09 0)
(-1.29053e-11 -2.23292e-09 0)
(-4.34466e-11 -2.31571e-09 0)
(-3.83578e-12 -2.30486e-09 0)
(2.33203e-11 -2.32227e-09 0)
(-1.07322e-12 -2.38762e-09 0)
(-1.85683e-11 -1.96794e-09 0)
(0 0 0)
(-4.63991e-11 -2.02493e-09 0)
(7.04173e-11 -1.61199e-09 0)
(9.02947e-11 -2.00533e-09 0)
(0 0 0)
(0 0 0)
(0 0 0)
(0 0 0)
(-2.19306e-10 -1.86302e-09 0)
(-9.33856e-11 -2.06336e-09 0)
(-9.35637e-11 -1.86321e-09 0)
(1.14785e-10 -1.93026e-09 0)
(4.76206e-10 -2.04506e-09 0)
(3.37809e-10 -2.04821e-09 0)
(3.75273e-11 -1.93733e-09 0)
(-2.06518e-11 -1.70063e-09 0)
(-2.2424e-10 -1.82789e-09 0)
(-5.58749e-11 -1.78967e-09 0)
(-5.85144e-11 -1.70354e-09 0)
(2.40002e-10 -1.35073e-09 0)
(2.49923e-10 -1.91506e-09 0)
(1.29036e-10 -1.70407e-09 0)
(4.76036e-11 -1.51999e-09 0)
(1.65517e-10 -1.89831e-09 0)
(2.24724e-10 -1.98602e-09 0)
(1.30697e-10 -1.97469e-09 0)
(-9.14472e-11 -1.97027e-09 0)
(-1.44459e-10 -1.73709e-09 0)
(1.69089e-10 -1.63912e-09 0)
(1.50114e-10 -1.73419e-09 0)
(1.1388e-10 -1.85608e-09 0)
(1.69617e-10 -1.96796e-09 0)
(9.09687e-11 -2.16709e-09 0)
(-1.56881e-10 -1.8147e-09 0)
(-4.42119e-10 -1.95146e-09 0)
(-2.2555e-10 -1.88561e-09 0)
(-1.56983e-10 -1.84132e-09 0)
(-1.4944e-10 -1.79471e-09 0)
(-1.21954e-12 -1.71015e-09 0)
(-6.59859e-11 -5.08682e-09 0)
(2.97828e-11 -1.84128e-09 0)
(1.81396e-10 -2.34062e-09 0)
(3.07269e-11 -3.86845e-10 0)
(1.80959e-10 -3.14755e-09 0)
(2.52584e-11 -8.17654e-10 0)
(4.77281e-11 -1.57974e-09 0)
(-8.99358e-11 -1.78856e-09 0)
(-1.45806e-10 -1.83338e-09 0)
(-1.14093e-10 -1.87338e-09 0)
(-6.87191e-11 -1.92798e-09 0)
(2.11343e-11 -1.9869e-09 0)
(3.76083e-11 -1.77205e-09 0)
(3.15406e-10 -1.8382e-09 0)
(2.39728e-10 -1.92435e-09 0)
(5.35018e-11 -1.60218e-09 0)
(-2.28594e-11 -1.40842e-09 0)
(-1.22506e-10 -1.84843e-09 0)
(3.58654e-12 -3.43557e-09 0)
(1.99733e-10 -2.4231e-09 0)
(2.73301e-10 -1.90773e-09 0)
(-2.36743e-13 -1.6105e-09 0)
(4.39333e-11 -1.64412e-09 0)
(2.31192e-11 -1.7278e-09 0)
(1.01025e-10 -1.9034e-09 0)
(1.79296e-10 -1.29719e-09 0)
(-1.795e-10 -1.28828e-09 0)
(4.11698e-11 -1.56061e-09 0)
(-1.55619e-10 -1.93391e-09 0)
(0 0 0)
(-9.05498e-11 -1.86512e-09 0)
(3.74253e-11 -1.99279e-09 0)
(2.0952e-10 -1.69944e-09 0)
(1.00457e-10 -1.82546e-09 0)
(3.90238e-11 -4.90287e-09 0)
(2.25524e-10 -1.56959e-09 0)
(-1.02718e-10 -1.91483e-09 0)
(0 0 0)
(0 0 0)
(0 0 0)
(0 0 0)
(0 0 0)
(0 0 0)
(0 0 0)
(2.52518e-11 -1.9289e-09 0)
(-4.62448e-11 -2.02417e-09 0)
(-7.00561e-11 -1.99808e-09 0)
(-7.20655e-12 -3.72741e-09 0)
(3.6184e-11 -2.82479e-09 0)
(1.22438e-10 -2.03606e-09 0)
(3.98724e-11 -1.80073e-09 0)
(-3.48398e-11 -1.52587e-09 0)
(-3.85678e-11 -1.70743e-09 0)
(-6.73049e-12 -1.75017e-09 0)
(-5.64078e-11 -1.78043e-09 0)
(5.6332e-10 -1.99424e-09 0)
(1.02202e-10 -2.04794e-09 0)
(5.30966e-11 -1.64494e-09 0)
(-6.64165e-12 -1.63667e-09 0)
(4.81854e-11 -2.08897e-09 0)
(0 0 0)
(2.16911e-10 -4.7567e-09 0)
(1.55737e-11 -2.02061e-09 0)
(3.19466e-11 -1.70483e-09 0)
(9.09096e-11 -1.58074e-09 0)
(1.69044e-10 -1.72835e-09 0)
(2.10755e-10 -1.87588e-09 0)
(1.59429e-10 -2.15552e-09 0)
(-3.86256e-11 -5.83663e-10 0)
(-2.71193e-10 -3.69324e-09 0)
(-7.99202e-11 -1.84392e-09 0)
(6.39364e-11 -1.74584e-09 0)
(2.24305e-10 -1.91423e-09 0)
(1.23067e-10 -2.1549e-09 0)
(-6.31032e-11 -1.84032e-09 0)
(-6.28604e-11 -1.64742e-09 0)
(2.50822e-11 -1.58508e-09 0)
(1.56499e-10 -2.32071e-09 0)
(1.17861e-10 -1.10735e-09 0)
(3.97697e-11 -3.77529e-10 0)
(1.11649e-10 -1.91028e-09 0)
(-9.09726e-12 -1.82241e-09 0)
(-1.61266e-10 -1.82964e-09 0)
(-2.24285e-10 -1.76156e-09 0)
(-4.19174e-11 -1.79885e-09 0)
(-1.02658e-11 -1.85369e-09 0)
(-1.22471e-10 -3.41368e-09 0)
(9.48529e-11 -2.48001e-09 0)
(2.72089e-10 -1.84338e-09 0)
(1.88337e-10 -1.7327e-09 0)
(2.99192e-10 -1.78561e-09 0)
(2.65056e-10 -1.82204e-09 0)
(1.98133e-10 -2.09639e-09 0)
(1.03287e-10 -1.83289e-09 0)
(1.09607e-10 -1.8828e-09 0)
(-3.24952e-11 -1.86912e-09 0)
(-1.30557e-11 -1.36809e-09 0)
(2.80649e-11 -1.61473e-09 0)
(8.7396e-11 -1.94263e-09 0)
(-2.4514e-11 -1.79566e-09 0)
(4.20532e-11 -2.12808e-09 0)
(0 0 0)
(1.10241e-10 -5.16516e-09 0)
(-8.63984e-11 -1.82609e-09 0)
(-2.3185e-11 -1.86285e-09 0)
(1.48201e-12 -1.73305e-09 0)
(2.73863e-10 -4.55942e-09 0)
(2.19888e-10 -2.07665e-09 0)
(-1.18645e-10 -1.71583e-09 0)
(-3.10501e-11 -1.60971e-09 0)
(-3.26772e-11 -5.14084e-10 0)
(-7.12274e-11 -1.07524e-09 0)
(0 0 0)
(0 0 0)
(0 0 0)
(0 0 0)
(0 0 0)
(0 0 0)
(0 0 0)
(-2.45596e-11 -6.77855e-10 0)
(-2.14786e-11 -3.6921e-09 0)
(-2.74366e-11 -2.5891e-09 0)
(1.55214e-10 -1.95729e-09 0)
(-2.56658e-12 -1.91592e-09 0)
(2.19053e-10 -1.94096e-09 0)
(1.43861e-10 -1.45693e-09 0)
(-6.6079e-11 -1.53454e-09 0)
(-2.7186e-10 -1.73289e-09 0)
(-5.86014e-11 -1.78586e-09 0)
(-1.28102e-10 -1.70356e-09 0)
(2.61553e-10 -4.5393e-09 0)
(4.20033e-11 -2.19977e-09 0)
(0 0 0)
(-6.44882e-11 -1.7098e-09 0)
(-6.72551e-11 -1.85502e-09 0)
(8.44498e-11 -1.60997e-09 0)
(4.64806e-11 -1.2435e-09 0)
(1.76812e-10 -1.92458e-09 0)
(5.05194e-11 -1.76597e-09 0)
(1.33103e-10 -1.83933e-09 0)
(1.44178e-10 -1.72835e-09 0)
(1.54915e-10 -1.86261e-09 0)
(1.03905e-10 -1.9751e-09 0)
(1.73492e-10 -1.98368e-09 0)
(-2.37026e-10 -1.89381e-09 0)
(-1.84685e-10 -1.87313e-09 0)
(-3.88714e-11 -1.68358e-09 0)
(1.93796e-10 -1.79628e-09 0)
(1.75465e-10 -1.98631e-09 0)
(-5.56436e-11 -1.44377e-09 0)
(-9.92214e-11 -1.41547e-09 0)
(-6.83788e-11 -1.67176e-09 0)
(6.71856e-11 -2.26543e-09 0)
(1.95968e-10 -2.494e-09 0)
(0 0 0)
(1.17592e-10 -2.01217e-09 0)
(4.54313e-11 -2.12299e-09 0)
(-2.75148e-10 -2.27108e-09 0)
(-2.62003e-10 -3.38557e-09 0)
(-5.74811e-11 -2.07901e-09 0)
(-2.91638e-10 -1.68561e-09 0)
(1.3174e-10 -2.26615e-09 0)
(1.91312e-10 -1.88509e-09 0)
(2.3328e-10 -1.8634e-09 0)
(1.56298e-10 -1.83637e-09 0)
(5.60028e-11 -1.7715e-09 0)
(4.1243e-11 -1.88695e-09 0)
(2.49379e-11 -1.99458e-09 0)
(4.1619e-11 -1.7974e-09 0)
(3.15774e-11 -2.17384e-09 0)
(-6.51588e-11 -2.05446e-09 0)
(-1.37012e-11 -1.63057e-09 0)
(-3.43724e-12 -2.12837e-09 0)
(-4.87247e-11 -1.92491e-09 0)
(-1.62345e-10 -1.94737e-09 0)
(-1.04806e-10 -1.63575e-09 0)
(8.33199e-11 -1.77824e-09 0)
(1.45757e-10 -2.24052e-09 0)
(1.60204e-10 -1.93653e-09 0)
(-1.2306e-11 -1.84258e-09 0)
(-1.35801e-10 -1.82915e-09 0)
(1.88098e-10 -4.75833e-09 0)
(-7.49702e-11 -2.19372e-09 0)
(-3.61859e-11 -7.85431e-10 0)
(-2.69501e-11 -5.37042e-10 0)
(-1.59922e-10 -2.18069e-09 0)
(-1.19358e-10 -1.53503e-09 0)
(0 0 0)
(0 0 0)
(0 0 0)
(0 0 0)
(0 0 0)
(0 0 0)
(0 0 0)
(-1.37622e-10 -1.80471e-09 0)
(3.2685e-11 -3.13642e-09 0)
(-5.6779e-11 -3.5236e-09 0)
(0 0 0)
(-6.7631e-11 -1.87425e-09 0)
(-1.7118e-11 -2.08609e-09 0)
(1.54887e-10 -1.69232e-09 0)
(1.68907e-10 -1.83861e-09 0)
(-1.99378e-11 -1.85315e-09 0)
(-2.59293e-10 -2.097e-09 0)
(-8.19243e-11 -4.16484e-09 0)
(-6.36496e-11 -1.74183e-09 0)
(6.6678e-11 -1.77619e-09 0)
(-2.6144e-11 -1.65175e-09 0)
(-1.14883e-11 -1.64112e-09 0)
(-9.1016e-11 -1.59616e-09 0)
(2.52706e-11 -1.45666e-09 0)
(1.82531e-10 -1.951e-09 0)
(3.16021e-11 -1.91296e-09 0)
(0 0 0)
(9.9928e-12 -1.82069e-09 0)
(-4.82433e-11 -1.65187e-09 0)
(1.61147e-12 -1.66927e-09 0)
(4.22383e-11 -2.15825e-09 0)
(-1.31287e-10 -1.76089e-09 0)
(-4.96326e-11 -1.60926e-09 0)
(1.11109e-11 -1.38074e-09 0)
(-2.2537e-10 -1.64573e-09 0)
(1.02197e-10 -2.21535e-09 0)
(2.94114e-11 -2.19935e-09 0)
(-1.30864e-10 -2.11835e-09 0)
(-3.24468e-11 -1.65344e-09 0)
(-6.07902e-11 -1.64166e-09 0)
(8.62109e-12 -2.20931e-09 0)
(3.62926e-12 -1.85063e-10 0)
(4.91772e-11 -2.12555e-09 0)
(1.95305e-10 -3.17152e-09 0)
(1.75777e-10 -3.64875e-09 0)
(4.61019e-11 -1.63902e-09 0)
(2.01567e-10 -1.75738e-09 0)
(2.93104e-10 -1.84154e-09 0)
(1.33134e-10 -1.90564e-09 0)
(-2.16246e-11 -1.98806e-09 0)
(5.74537e-12 -2.0413e-09 0)
(-1.09302e-11 -1.66137e-09 0)
(-1.13648e-11 -1.95776e-09 0)
(0 0 0)
(7.72348e-11 -2.15366e-09 0)
(1.74732e-10 -2.12899e-09 0)
(8.92597e-11 -2.59712e-09 0)
(-3.94908e-11 -3.91732e-09 0)
(-5.90821e-11 -2.00069e-09 0)
(5.77184e-11 -1.94125e-09 0)
(6.70803e-11 -1.91694e-09 0)
(-1.73063e-10 -2.02097e-09 0)
(-2.10889e-10 -1.92015e-09 0)
(-2.49402e-10 -1.91241e-09 0)
(-3.67427e-11 -1.91772e-09 0)
(1.29465e-10 -2.05749e-09 0)
(1.21938e-10 -2.04217e-09 0)
(-1.31104e-11 -1.97775e-09 0)
(-6.70885e-11 -1.8902e-09 0)
(-1.40733e-10 -1.94403e-09 0)
(7.41392e-11 -1.9006e-09 0)
(-9.01237e-11 -2.12072e-09 0)
(-1.51425e-10 -5.00355e-09 0)
(-4.97625e-11 -1.08278e-09 0)
(-1.59428e-11 -2.86182e-10 0)
(0 0 0)
(0 0 0)
(0 0 0)
(0 0 0)
(0 0 0)
(0 0 0)
(0 0 0)
(6.79768e-12 -2.34642e-09 0)
(5.66958e-11 -4.4963e-09 0)
(2.74931e-11 -2.3095e-09 0)
(-1.83699e-12 -4.93592e-11 0)
(-7.47791e-11 -2.03619e-09 0)
(2.07878e-11 -2.05027e-09 0)
(8.86398e-11 -1.85149e-09 0)
(2.06353e-10 -1.86135e-09 0)
(1.0224e-10 -1.98005e-09 0)
(1.79143e-11 -1.87646e-09 0)
(-1.07808e-11 -1.86634e-09 0)
(1.62118e-11 -1.90451e-09 0)
(-6.48971e-11 -1.85464e-09 0)
(-3.77475e-11 -1.81856e-09 0)
(-3.16849e-10 -4.2487e-09 0)
(-1.83862e-15 -1.07527e-12 0)
(6.74159e-11 -3.35311e-09 0)
(8.81762e-11 -3.39164e-09 0)
(3.51318e-13 -4.24985e-10 0)
(6.51555e-13 -1.22512e-09 0)
(1.25287e-11 -2.06823e-09 0)
(-1.88177e-11 -1.6666e-09 0)
(3.97988e-11 -1.87262e-09 0)
(-1.40312e-10 -2.30817e-09 0)
(-5.20398e-11 -2.00807e-09 0)
(7.9093e-11 -1.9912e-09 0)
(5.64788e-11 -1.75593e-09 0)
(-7.4725e-11 -1.64741e-09 0)
(-8.30887e-11 -2.22108e-09 0)
(-1.40926e-10 -2.37694e-09 0)
(-5.21071e-11 -1.9878e-09 0)
(-8.69257e-11 -1.84223e-09 0)
(-2.87327e-10 -2.03256e-09 0)
(-3.88703e-11 -2.05303e-09 0)
(6.93924e-11 -2.39697e-09 0)
(2.10037e-10 -2.36077e-09 0)
(5.79214e-11 -1.9261e-09 0)
(4.94504e-11 -1.83032e-09 0)
(1.4297e-10 -1.83663e-09 0)
(6.63759e-11 -1.67196e-09 0)
(-1.95701e-12 -1.65795e-09 0)
(-4.32223e-11 -1.74203e-09 0)
(-4.97745e-12 -2.09821e-09 0)
(1.44059e-11 -1.8939e-09 0)
(-4.4073e-11 -1.86369e-09 0)
(-5.62953e-11 -1.84351e-09 0)
(-1.45009e-11 -2.29266e-09 0)
(2.88557e-11 -1.9069e-09 0)
(2.21156e-10 -1.87873e-09 0)
(6.9668e-13 -1.67565e-09 0)
(-4.99655e-11 -1.84052e-09 0)
(1.9695e-10 -1.879e-09 0)
(1.35455e-10 -1.88057e-09 0)
(6.89068e-11 -1.92154e-09 0)
(6.35297e-11 -2.00708e-09 0)
(-7.75142e-11 -1.89739e-09 0)
(-2.27771e-10 -1.9604e-09 0)
(-9.21501e-11 -2.01977e-09 0)
(7.18478e-11 -2.0863e-09 0)
(1.37177e-10 -2.41894e-09 0)
(-9.27497e-11 -2.02041e-09 0)
(-1.95117e-10 -1.79409e-09 0)
(-3.19142e-11 -1.96053e-09 0)
(1.65761e-10 -1.9539e-09 0)
(6.74144e-11 -1.94204e-09 0)
(1.1641e-11 -2.16632e-09 0)
(1.92455e-10 -4.76323e-09 0)
(0 0 0)
(0 0 0)
(0 0 0)
(0 0 0)
(0 0 0)
(0 0 0)
(0 0 0)
(0 0 0)
(-1.36752e-10 -2.27919e-09 0)
(-2.92039e-12 -2.02091e-09 0)
(-1.503e-11 -2.35356e-09 0)
(-7.73853e-12 -2.50913e-09 0)
(5.91697e-11 -2.38608e-09 0)
(1.59274e-10 -2.36203e-09 0)
(3.43003e-11 -2.22429e-09 0)
(3.76519e-11 -2.21956e-09 0)
(1.96858e-10 -1.9564e-09 0)
(9.83341e-11 -1.90891e-09 0)
(1.27081e-10 -1.89725e-09 0)
(6.0315e-11 -2.0059e-09 0)
(4.80251e-11 -1.99739e-09 0)
(-8.30232e-11 -1.77763e-09 0)
(-1.32833e-10 -1.99864e-09 0)
(-3.82252e-11 -1.97488e-09 0)
(-5.54732e-11 -1.91384e-09 0)
(-2.95574e-11 -1.94956e-09 0)
(4.70186e-11 -2.21264e-09 0)
(-1.05874e-10 -1.93236e-09 0)
(-1.09834e-10 -1.88099e-09 0)
(-2.45672e-11 -1.92968e-09 0)
(-3.52732e-11 -2.11497e-09 0)
(-1.26747e-10 -2.48218e-09 0)
(0 0 0)
(1.63826e-10 -2.02666e-09 0)
(7.99678e-11 -2.12905e-09 0)
(-1.91874e-10 -4.20269e-09 0)
(-1.64018e-10 -2.02023e-09 0)
(-3.0887e-11 -2.22135e-09 0)
(-2.39829e-11 -1.91482e-09 0)
(5.38101e-11 -1.80034e-09 0)
(-3.0422e-10 -1.82481e-09 0)
(-2.27174e-10 -1.81193e-09 0)
(-1.80906e-10 -2.52989e-09 0)
(1.8398e-10 -2.32165e-09 0)
(7.92375e-11 -2.08822e-09 0)
(1.10074e-10 -1.83315e-09 0)
(2.31546e-10 -1.92975e-09 0)
(2.99658e-10 -1.92611e-09 0)
(2.09498e-10 -1.70043e-09 0)
(1.84488e-10 -1.87905e-09 0)
(-1.98052e-11 -2.38204e-09 0)
(-1.96368e-10 -2.29689e-09 0)
(1.82333e-11 -2.32493e-09 0)
(-3.72506e-12 -1.94945e-09 0)
(-1.09303e-10 -1.85921e-09 0)
(-9.97815e-11 -1.85827e-09 0)
(-2.49918e-10 -1.5744e-09 0)
(-2.69562e-10 -1.71119e-09 0)
(2.07103e-10 -1.77901e-09 0)
(2.4808e-10 -1.81975e-09 0)
(1.16537e-10 -1.94127e-09 0)
(6.25065e-11 -1.94596e-09 0)
(5.61888e-11 -2.00577e-09 0)
(1.51602e-10 -1.98843e-09 0)
(-1.48784e-10 -1.97224e-09 0)
(-1.50193e-10 -1.84573e-09 0)
(-2.50831e-11 -5.31175e-09 0)
(1.45569e-10 -2.30931e-09 0)
(0 0 0)
(-6.6002e-12 -1.891e-09 0)
(-4.25978e-11 -1.89621e-09 0)
(-1.20737e-10 -1.97203e-09 0)
(-5.65862e-11 -1.90552e-09 0)
(-3.55572e-11 -1.92569e-09 0)
(-1.40697e-10 -2.05677e-09 0)
(-2.00431e-10 -2.14618e-09 0)
(0 0 0)
(0 0 0)
(0 0 0)
(0 0 0)
(0 0 0)
(0 0 0)
(0 0 0)
(-7.88257e-12 -3.85809e-10 0)
(-2.04113e-11 -1.31632e-09 0)
(4.04784e-11 -2.04472e-09 0)
(7.12687e-11 -1.79956e-09 0)
(-4.35656e-11 -2.17188e-09 0)
(-4.60138e-11 -2.11228e-09 0)
(-1.46594e-10 -1.83328e-09 0)
(-3.07584e-11 -1.83937e-09 0)
(1.81403e-10 -1.86688e-09 0)
(2.09235e-10 -1.89842e-09 0)
(1.69611e-10 -1.90718e-09 0)
(1.32744e-10 -1.93358e-09 0)
(2.82812e-11 -1.6792e-09 0)
(3.9859e-11 -1.87497e-09 0)
(-1.50571e-10 -2.03125e-09 0)
(-9.67236e-11 -1.86486e-09 0)
(-1.11621e-10 -1.79373e-09 0)
(1.82064e-11 -1.92419e-09 0)
(-1.70202e-10 -1.86258e-09 0)
(-1.38008e-10 -1.92077e-09 0)
(-1.20446e-10 -1.88786e-09 0)
(-7.89642e-11 -1.91384e-09 0)
(-1.00927e-10 -2.0149e-09 0)
(-3.08941e-11 -2.10597e-09 0)
(1.28598e-10 -1.48195e-09 0)
(3.11442e-10 -1.9869e-09 0)
(1.43905e-10 -2.03755e-09 0)
(2.45069e-11 -1.91651e-09 0)
(-3.36556e-10 -1.91382e-09 0)
(-1.74737e-10 -2.15259e-09 0)
(-4.15572e-11 -3.89742e-09 0)
(-2.09426e-10 -2.64787e-09 0)
(-1.38829e-10 -1.73905e-09 0)
(-6.95265e-11 -1.92096e-09 0)
(-1.29829e-11 -1.94856e-09 0)
(1.67867e-10 -2.06643e-09 0)
(0 0 0)
(1.80321e-10 -1.8692e-09 0)
(1.3232e-10 -1.83638e-09 0)
(-3.44218e-11 -1.98805e-09 0)
(1.28733e-10 -1.89117e-09 0)
(1.2773e-10 -2.11673e-09 0)
(2.00076e-10 -2.0487e-09 0)
(1.50471e-10 -1.83654e-09 0)
(-3.13254e-12 -2.06002e-09 0)
(-1.29758e-10 -3.25101e-09 0)
(-9.18871e-11 -1.28607e-09 0)
(-3.29499e-10 -3.97224e-09 0)
(-1.32199e-10 -2.21045e-09 0)
(0 0 0)
(6.04655e-11 -2.01684e-09 0)
(9.33387e-11 -1.91515e-09 0)
(3.08847e-13 -2.1368e-09 0)
(2.28291e-11 -1.89951e-09 0)
(1.94418e-11 -7.12291e-10 0)
(2.8724e-11 -2.98645e-09 0)
(-2.74387e-11 -1.96587e-09 0)
(-1.29846e-10 -1.67881e-09 0)
(-1.08256e-10 -1.86497e-09 0)
(4.75906e-10 -5.05922e-09 0)
(0 0 0)
(1.81453e-10 -2.12663e-09 0)
(2.03628e-10 -1.91175e-09 0)
(4.70919e-11 -1.89996e-09 0)
(6.65135e-11 -1.52968e-09 0)
(5.08532e-11 -1.76695e-09 0)
(0 0 0)
(-4.39899e-11 -2.26248e-09 0)
(-1.09431e-10 -1.91174e-09 0)
(0 0 0)
(0 0 0)
(0 0 0)
(0 0 0)
(0 0 0)
(0 0 0)
(-1.77422e-10 -2.30541e-09 0)
(-8.97084e-12 -2.1813e-09 0)
(-4.60509e-11 -1.74451e-09 0)
(1.04362e-10 -1.45548e-09 0)
(1.05648e-10 -1.48014e-09 0)
(1.1797e-10 -2.0995e-09 0)
(-2.90071e-10 -1.97904e-09 0)
(-1.95924e-10 -1.92712e-09 0)
(1.8316e-10 -1.65266e-09 0)
(2.54149e-10 -1.72433e-09 0)
(1.27719e-10 -1.93712e-09 0)
(1.28891e-10 -2.23335e-09 0)
(2.50158e-11 -1.96224e-09 0)
(-1.1279e-10 -1.98758e-09 0)
(-1.52504e-11 -1.64877e-09 0)
(2.47059e-10 -1.68366e-09 0)
(-2.54334e-10 -1.87264e-09 0)
(-3.24925e-11 -2.05372e-09 0)
(-3.10868e-11 -1.95814e-09 0)
(-1.79089e-10 -1.91692e-09 0)
(-1.03914e-10 -1.96461e-09 0)
(-3.90945e-11 -1.93536e-09 0)
(-5.70008e-11 -2.03863e-09 0)
(4.12716e-11 -1.72747e-09 0)
(1.61093e-10 -2.65024e-09 0)
(2.19883e-10 -4.01819e-09 0)
(1.59228e-10 -2.04925e-09 0)
(9.37333e-12 -1.00535e-09 0)
(-1.32431e-11 -2.48776e-09 0)
(-1.20332e-11 -2.40886e-09 0)
(-1.98383e-10 -2.22122e-09 0)
(-3.66868e-10 -1.93044e-09 0)
(-1.83418e-10 -1.62852e-09 0)
(-2.47056e-10 -1.83882e-09 0)
(-1.65985e-10 -1.88946e-09 0)
(-8.20588e-11 -2.02927e-09 0)
(4.57344e-11 -1.70387e-09 0)
(1.46788e-10 -1.67647e-09 0)
(0 0 0)
(2.71387e-11 -1.83661e-09 0)
(2.72821e-11 -1.89335e-09 0)
(3.59706e-11 -1.75075e-09 0)
(4.16442e-11 -1.97356e-09 0)
(2.67483e-12 -1.89422e-09 0)
(3.26061e-11 -1.84534e-09 0)
(-1.76405e-10 -3.01841e-09 0)
(-2.57089e-10 -3.31047e-09 0)
(-2.46295e-10 -1.87591e-09 0)
(-4.05454e-12 -1.52943e-09 0)
(1.1906e-11 -1.57422e-09 0)
(-1.86109e-12 -6.89444e-10 0)
(-2.83848e-12 -5.2437e-10 0)
(-3.47777e-11 -2.00712e-09 0)
(-4.17847e-11 -1.84031e-09 0)
(7.39792e-11 -2.02941e-09 0)
(4.82625e-11 -1.99615e-09 0)
(-5.12142e-11 -2.03478e-09 0)
(-7.47567e-11 -1.95625e-09 0)
(5.22634e-11 -1.89886e-09 0)
(5.08011e-11 -2.10017e-09 0)
(2.89229e-10 -2.18533e-09 0)
(-5.78463e-11 -1.7368e-09 0)
(1.6332e-11 -1.78539e-09 0)
(8.85876e-12 -1.53524e-09 0)
(-3.92316e-11 -1.40267e-09 0)
(-1.51214e-11 -1.37617e-09 0)
(-1.38565e-10 -2.188e-09 0)
(-7.90019e-11 -2.20306e-09 0)
(0 0 0)
(0 0 0)
(0 0 0)
(0 0 0)
(0 0 0)
(0 0 0)
(0 0 0)
(-3.46479e-11 -1.66535e-09 0)
(-1.06281e-10 -1.91924e-09 0)
(-1.44961e-10 -1.9148e-09 0)
(9.20024e-12 -1.93968e-09 0)
(2.84811e-12 -2.02922e-09 0)
(7.21145e-11 -2.14528e-09 0)
(-5.43759e-12 -1.96956e-09 0)
(-2.10519e-10 -1.79747e-09 0)
(-2.04879e-11 -2.21005e-09 0)
(1.04735e-11 -1.98477e-09 0)
(8.04444e-11 -1.83081e-09 0)
(9.09178e-11 -1.78645e-09 0)
(-1.86416e-10 -1.98335e-09 0)
(-3.71324e-10 -2.05011e-09 0)
(-5.10657e-12 -1.9352e-09 0)
(1.69633e-10 -1.76752e-09 0)
(1.73416e-11 -1.19933e-09 0)
(-2.65693e-10 -1.54278e-09 0)
(4.85806e-12 -1.85695e-09 0)
(-1.39778e-10 -1.94034e-09 0)
(-8.03978e-11 -1.92264e-09 0)
(-1.31887e-10 -1.80555e-09 0)
(-4.88186e-11 -2.97252e-09 0)
(1.04629e-10 -3.55801e-09 0)
(5.18993e-11 -1.56866e-09 0)
(-4.58053e-12 -1.50255e-09 0)
(1.98184e-10 -1.8091e-09 0)
(2.81898e-10 -1.899e-09 0)
(2.07682e-10 -2.0573e-09 0)
(6.01588e-12 -1.21674e-09 0)
(8.6596e-11 -2.52023e-09 0)
(1.69438e-10 -1.80243e-09 0)
(1.13191e-10 -1.73262e-09 0)
(1.5674e-10 -1.77939e-09 0)
(-3.4804e-10 -2.13491e-09 0)
(-1.09575e-10 -2.0561e-09 0)
(1.70803e-11 -1.73495e-09 0)
(1.04371e-10 -2.09394e-09 0)
(0 0 0)
(-1.11172e-12 -1.87831e-09 0)
(-1.8928e-12 -2.16993e-09 0)
(4.24251e-11 -2.23003e-09 0)
(1.00316e-10 -2.05812e-09 0)
(1.5674e-10 -1.91439e-09 0)
(1.24655e-10 -1.93879e-09 0)
(6.31592e-11 -1.9015e-09 0)
(-1.4669e-10 -2.2883e-09 0)
(-1.17564e-10 -4.35919e-09 0)
(-4.44218e-11 -1.82887e-09 0)
(-4.59671e-11 -1.59839e-09 0)
(5.16136e-11 -1.80531e-09 0)
(7.0145e-12 -2.14113e-09 0)
(-3.28892e-11 -5.5274e-10 0)
(-6.13327e-11 -9.33332e-10 0)
(4.10879e-12 -1.71251e-09 0)
(6.90374e-11 -1.92041e-09 0)
(5.2399e-11 -1.97993e-09 0)
(4.29163e-11 -1.94921e-09 0)
(4.97802e-11 -1.87127e-09 0)
(6.09483e-11 -2.09712e-09 0)
(-9.39792e-11 -2.54169e-09 0)
(-6.06146e-12 -2.07449e-10 0)
(-4.96205e-11 -1.82451e-09 0)
(1.3645e-10 -1.99142e-09 0)
(-3.65331e-11 -2.57991e-09 0)
(-8.03282e-11 -1.81954e-09 0)
(-1.67643e-10 -2.56179e-09 0)
(-1.5921e-10 -4.39708e-09 0)
(0 0 0)
(0 0 0)
(0 0 0)
(0 0 0)
(0 0 0)
(0 0 0)
(0 0 0)
(5.99877e-11 -1.86758e-09 0)
(2.00823e-11 -1.97229e-09 0)
(-9.65831e-11 -1.7084e-09 0)
(-3.58526e-11 -1.68336e-09 0)
(2.76541e-10 -1.93811e-09 0)
(1.30209e-10 -1.96353e-09 0)
(6.75432e-11 -1.9107e-09 0)
(2.92092e-11 -1.87406e-09 0)
(-1.51816e-10 -1.91968e-09 0)
(-1.69862e-10 -1.9115e-09 0)
(-1.81097e-10 -1.90329e-09 0)
(-7.17845e-11 -2.10341e-09 0)
(9.50284e-11 -1.96961e-09 0)
(8.26368e-11 -1.82759e-09 0)
(-1.26667e-11 -2.169e-09 0)
(0 0 0)
(3.89208e-11 -1.75328e-09 0)
(1.0743e-10 -2.01452e-09 0)
(3.22839e-11 -1.91895e-09 0)
(-1.32253e-10 -3.21248e-09 0)
(-1.69274e-10 -2.48137e-09 0)
(-3.57963e-11 -1.82682e-09 0)
(1.75677e-11 -1.85317e-09 0)
(-5.75627e-11 -1.98648e-09 0)
(-8.12114e-12 -1.8208e-09 0)
(1.27538e-11 -3.52297e-09 0)
(8.58068e-11 -2.47321e-09 0)
(2.75374e-11 -1.68856e-09 0)
(1.09667e-10 -2.35515e-09 0)
(1.32704e-11 -2.79597e-10 0)
(1.76906e-10 -2.57313e-09 0)
(2.94913e-10 -2.59149e-09 0)
(2.1015e-10 -2.67878e-09 0)
(4.74986e-11 -2.92146e-09 0)
(-1.09458e-12 -8.00902e-11 0)
(-2.04628e-11 -1.86357e-09 0)
(3.51819e-11 -1.84741e-09 0)
(-6.83866e-11 -1.96859e-09 0)
(9.50848e-11 -2.10674e-09 0)
(-5.1987e-11 -2.21559e-09 0)
(8.31962e-11 -2.40015e-09 0)
(4.25718e-11 -1.69325e-09 0)
(-3.39812e-11 -2.02051e-09 0)
(-3.13078e-11 -1.79704e-09 0)
(-8.97642e-11 -1.7729e-09 0)
(3.52965e-11 -1.92937e-09 0)
(3.26314e-11 -7.75682e-10 0)
(9.8838e-11 -2.39386e-09 0)
(3.4531e-11 -1.77674e-09 0)
(-1.4583e-10 -1.76311e-09 0)
(-5.40982e-11 -1.7745e-09 0)
(5.92352e-12 -2.01413e-09 0)
(3.73333e-11 -2.1379e-09 0)
(-3.15628e-11 -1.95732e-09 0)
(-3.71229e-11 -1.99122e-09 0)
(7.9795e-11 -2.29571e-09 0)
(3.54318e-11 -2.31558e-09 0)
(1.36754e-10 -1.8079e-09 0)
(3.2487e-10 -1.8873e-09 0)
(-1.36612e-12 -2.24905e-09 0)
(-1.42827e-11 -2.62867e-09 0)
(-2.94618e-11 -9.16159e-10 0)
(-2.5706e-11 -6.75504e-10 0)
(2.23785e-11 -1.88895e-09 0)
(1.26621e-10 -1.84723e-09 0)
(-1.07588e-10 -1.47021e-09 0)
(-4.26961e-10 -1.86931e-09 0)
(5.35349e-11 -2.23476e-09 0)
(1.26289e-10 -2.11005e-09 0)
(0 0 0)
(0 0 0)
(0 0 0)
(0 0 0)
(0 0 0)
(0 0 0)
(-2.09905e-10 -1.8997e-09 0)
(-2.85968e-10 -1.92581e-09 0)
(1.55867e-10 -1.88553e-09 0)
(2.52329e-10 -1.96417e-09 0)
(1.84739e-10 -3.24305e-09 0)
(1.46633e-10 -1.93656e-09 0)
(6.62328e-11 -7.0694e-10 0)
(3.43393e-11 -1.98159e-09 0)
(-3.98796e-11 -1.87675e-09 0)
(-9.64008e-11 -1.90747e-09 0)
(-4.27027e-12 -1.9016e-09 0)
(-1.34791e-10 -1.98148e-09 0)
(1.68737e-10 -2.083e-09 0)
(4.42221e-10 -1.60379e-09 0)
(5.55039e-11 -1.80675e-09 0)
(-8.27338e-11 -1.81944e-09 0)
(-4.17309e-12 -1.80353e-09 0)
(6.21819e-11 -1.69774e-09 0)
(6.93778e-11 -2.10296e-09 0)
(2.15167e-11 -4.73951e-10 0)
(8.48063e-11 -3.34913e-09 0)
(-7.3047e-12 -1.78224e-09 0)
(-5.43436e-11 -1.80933e-09 0)
(-9.58282e-11 -1.93121e-09 0)
(-1.59606e-10 -2.00037e-09 0)
(-7.78993e-11 -1.8577e-09 0)
(2.34722e-11 -1.86316e-09 0)
(1.01366e-10 -1.81144e-09 0)
(-1.14112e-10 -2.32543e-09 0)
(8.41461e-11 -2.29052e-09 0)
(9.78491e-11 -2.16064e-09 0)
(2.06323e-11 -2.03099e-09 0)
(3.84157e-11 -1.90594e-09 0)
(-1.27386e-10 -2.17834e-09 0)
(-4.39207e-11 -2.12327e-09 0)
(5.2048e-11 -1.94174e-09 0)
(5.50647e-11 -1.82386e-09 0)
(-4.21632e-11 -1.8902e-09 0)
(2.26941e-10 -5.20997e-09 0)
(0 0 0)
(1.04876e-10 -1.79796e-09 0)
(-1.12559e-10 -1.86618e-09 0)
(-9.33724e-11 -1.85615e-09 0)
(-7.63706e-12 -1.88558e-09 0)
(-2.06018e-11 -1.56802e-09 0)
(8.52441e-11 -1.88688e-09 0)
(9.88645e-11 -1.77646e-09 0)
(7.19658e-11 -1.69669e-09 0)
(2.65525e-11 -1.81465e-09 0)
(-1.67442e-11 -1.92805e-09 0)
(-1.9574e-10 -1.98259e-09 0)
(-4.70424e-11 -1.98421e-09 0)
(-1.47693e-10 -1.99751e-09 0)
(-2.2057e-10 -1.98409e-09 0)
(-2.67138e-10 -1.91335e-09 0)
(-1.71538e-11 -2.15598e-09 0)
(-1.57227e-11 -2.19187e-09 0)
(-4.02278e-11 -2.27311e-09 0)
(-4.52633e-11 -1.93752e-09 0)
(-2.1856e-10 -1.98421e-09 0)
(-5.75372e-12 -2.18148e-09 0)
(5.68561e-11 -2.28526e-09 0)
(0 0 0)
(8.14647e-11 -1.96053e-09 0)
(1.24318e-10 -2.19064e-09 0)
(8.22215e-11 -1.95511e-09 0)
(-3.11332e-12 -1.79358e-09 0)
(-1.85746e-10 -4.70541e-09 0)
(0 0 0)
(0 0 0)
(0 0 0)
(0 0 0)
(0 0 0)
(0 0 0)
(0 0 0)
(-1.75396e-11 -1.59471e-09 0)
(-6.13782e-11 -1.71668e-09 0)
(3.86624e-11 -1.84703e-09 0)
(1.90653e-10 -1.98378e-09 0)
(1.95911e-10 -2.05139e-09 0)
(2.01477e-11 -1.82477e-09 0)
(3.14437e-12 -2.16993e-09 0)
(1.5823e-11 -2.23541e-09 0)
(-5.48206e-11 -2.13942e-09 0)
(-1.49865e-11 -1.91878e-09 0)
(1.55723e-11 -1.88641e-09 0)
(-5.66309e-11 -1.92223e-09 0)
(-1.66752e-10 -1.88186e-09 0)
(2.82251e-10 -2.01947e-09 0)
(1.21348e-10 -1.67072e-09 0)
(-1.89879e-10 -2.15899e-09 0)
(-4.02846e-11 -1.93543e-09 0)
(-3.30272e-11 -2.00743e-09 0)
(8.14038e-11 -9.37973e-10 0)
(2.69674e-10 -2.24067e-09 0)
(4.16188e-11 -1.77867e-09 0)
(-2.60299e-11 -1.85339e-09 0)
(-3.98194e-11 -1.87965e-09 0)
(0 0 0)
(0 0 0)
(-4.37935e-11 -1.81129e-09 0)
(-3.8413e-11 -1.92439e-09 0)
(-7.91292e-11 -1.59304e-09 0)
(-4.91738e-11 -1.73266e-09 0)
(-3.93542e-11 -1.57917e-09 0)
(2.19417e-10 -2.38915e-09 0)
(0 0 0)
(1.61189e-10 -2.10235e-09 0)
(-4.558e-11 -2.04648e-09 0)
(-2.69677e-10 -1.98574e-09 0)
(-1.59484e-11 -2.1866e-09 0)
(2.17548e-10 -3.77412e-09 0)
(-1.58192e-10 -1.96414e-09 0)
(-8.39814e-12 -1.93747e-09 0)
(1.66998e-10 -2.36205e-09 0)
(-9.75433e-11 -2.03809e-09 0)
(-1.64131e-10 -1.95304e-09 0)
(-1.41607e-10 -1.92372e-09 0)
(-5.2862e-11 -1.91033e-09 0)
(-9.55705e-11 -1.9973e-09 0)
(2.91882e-10 -1.87288e-09 0)
(8.26773e-11 -1.81332e-09 0)
(9.12074e-12 -1.86615e-09 0)
(7.34468e-11 -1.90439e-09 0)
(-2.34912e-10 -1.86343e-09 0)
(-2.9817e-10 -1.95899e-09 0)
(-8.66305e-11 -2.00079e-09 0)
(-3.23574e-11 -1.95192e-09 0)
(-9.17851e-11 -2.00003e-09 0)
(-1.2166e-10 -2.01134e-09 0)
(-1.36793e-10 -2.26797e-09 0)
(-8.21232e-12 -2.10109e-09 0)
(-6.92082e-12 -2.27812e-09 0)
(-4.81762e-11 -1.88871e-09 0)
(-3.8546e-11 -8.64487e-10 0)
(-1.70096e-11 -5.26136e-10 0)
(1.33801e-10 -4.22877e-09 0)
(1.47346e-10 -2.41362e-09 0)
(6.99155e-11 -4.06855e-09 0)
(1.29e-10 -1.97042e-09 0)
(-5.5267e-11 -1.89082e-09 0)
(-1.81817e-10 -1.87423e-09 0)
(-2.56721e-10 -1.79595e-09 0)
(0 0 0)
(0 0 0)
(0 0 0)
(0 0 0)
(0 0 0)
(0 0 0)
(0 0 0)
(-1.29076e-10 -1.92554e-09 0)
(6.13276e-11 -2.2998e-09 0)
(1.8525e-11 -2.15144e-09 0)
(3.62982e-12 -2.11424e-09 0)
(1.25133e-10 -2.0546e-09 0)
(5.75969e-12 -1.92945e-09 0)
(-1.89081e-11 -1.96786e-09 0)
(4.21373e-11 -1.89245e-09 0)
(1.13841e-10 -1.88463e-09 0)
(1.20077e-10 -1.86305e-09 0)
(9.78404e-14 -3.19949e-09 0)
(-1.26012e-11 -1.73309e-09 0)
(-2.6611e-11 -1.01664e-09 0)
(4.34294e-11 -2.09795e-09 0)
(1.70655e-10 -4.75261e-09 0)
(-3.17959e-12 -1.71769e-09 0)
(-1.48699e-10 -1.71535e-09 0)
(-3.55787e-12 -5.50721e-11 0)
(-1.21866e-10 -2.4262e-09 0)
(6.17665e-11 -2.79115e-09 0)
(-6.93801e-12 -2.08447e-09 0)
(-1.31657e-11 -4.88537e-10 0)
(-8.66959e-11 -1.817e-09 0)
(-1.55731e-10 -3.89007e-09 0)
(-3.2691e-11 -4.50011e-09 0)
(-1.11837e-10 -1.68902e-09 0)
(-1.41604e-10 -1.52467e-09 0)
(-2.32508e-11 -1.86698e-09 0)
(0 0 0)
(-9.54236e-11 -1.77376e-09 0)
(-1.02853e-10 -2.23686e-09 0)
(4.33036e-10 -2.10486e-09 0)
(1.19357e-10 -2.36947e-09 0)
(-1.64278e-10 -2.51275e-09 0)
(9.37492e-11 -3.8025e-09 0)
(6.49996e-11 -2.46216e-09 0)
(2.59274e-11 -2.04097e-09 0)
(2.41942e-11 -2.02874e-09 0)
(-9.56987e-11 -1.85012e-09 0)
(-1.2294e-10 -1.93603e-09 0)
(-1.58758e-10 -1.83809e-09 0)
(1.99989e-11 -1.92244e-09 0)
(-4.68347e-11 -1.86009e-09 0)
(-1.27964e-10 -1.69101e-09 0)
(1.52099e-10 -1.78637e-09 0)
(2.1249e-10 -1.91661e-09 0)
(1.67365e-10 -1.88438e-09 0)
(1.06873e-10 -1.92355e-09 0)
(-5.37042e-11 -1.85384e-09 0)
(-3.195e-10 -1.63307e-09 0)
(-7.22416e-11 -1.87772e-09 0)
(5.71568e-12 -1.90018e-09 0)
(-5.91936e-11 -1.96472e-09 0)
(5.18268e-10 -2.06097e-09 0)
(2.68069e-10 -2.06379e-09 0)
(9.94549e-11 -1.98274e-09 0)
(-1.38046e-10 -1.90556e-09 0)
(-1.42611e-10 -1.93805e-09 0)
(-5.71667e-13 -1.96124e-09 0)
(-3.59242e-11 -1.93183e-09 0)
(1.57033e-10 -1.96919e-09 0)
(2.91465e-11 -7.89091e-10 0)
(-1.18014e-11 -2.20064e-09 0)
(-7.51731e-11 -2.04259e-09 0)
(3.38675e-10 -2.01463e-09 0)
(6.59529e-11 -1.95366e-09 0)
(-1.22496e-10 -1.98414e-09 0)
(-1.82753e-10 -1.81367e-09 0)
(0 0 0)
(0 0 0)
(0 0 0)
(0 0 0)
(0 0 0)
(0 0 0)
(0 0 0)
(1.02632e-11 -1.75894e-09 0)
(2.76605e-11 -1.79721e-09 0)
(-1.3609e-10 -1.89189e-09 0)
(-1.19887e-10 -1.88385e-09 0)
(-2.14747e-12 -1.8192e-09 0)
(7.95813e-11 -1.87924e-09 0)
(1.63866e-10 -1.94781e-09 0)
(1.15436e-10 -1.91356e-09 0)
(2.10888e-10 -1.84187e-09 0)
(2.01607e-10 -2.25349e-09 0)
(-1.62593e-10 -2.03808e-09 0)
(-8.96749e-13 -1.97749e-09 0)
(-3.3189e-11 -1.92662e-09 0)
(2.4821e-11 -2.02831e-09 0)
(3.02928e-10 -2.13722e-09 0)
(5.92712e-11 -2.21093e-09 0)
(-6.88236e-11 -1.99947e-09 0)
(-9.887e-11 -1.73063e-09 0)
(-5.58668e-11 -2.03159e-09 0)
(1.27689e-10 -2.08864e-09 0)
(8.76013e-11 -1.99123e-09 0)
(7.87705e-11 -2.01192e-09 0)
(4.53991e-11 -1.94948e-09 0)
(9.85308e-12 -4.18115e-10 0)
(7.09742e-11 -2.36885e-09 0)
(3.17834e-11 -8.39184e-10 0)
(-8.23362e-11 -1.88366e-09 0)
(2.144e-11 -1.91608e-09 0)
(-6.17356e-13 -1.91385e-09 0)
(-2.01872e-11 -3.68496e-09 0)
(1.4488e-10 -2.37265e-09 0)
(1.99427e-10 -2.27368e-09 0)
(1.32505e-10 -1.84237e-09 0)
(3.53722e-11 -1.79784e-09 0)
(-9.25019e-12 -1.83478e-09 0)
(-1.23954e-10 -2.30699e-09 0)
(-2.15845e-10 -2.25829e-09 0)
(4.03898e-12 -1.44248e-09 0)
(-2.24134e-10 -1.77556e-09 0)