/*--------------------------------*- C++ -*----------------------------------*\
  =========                 |
  \\      /  F ield         | OpenFOAM: The Open Source CFD Toolbox
   \\    /   O peration     | Website:  https://openfoam.org
    \\  /    A nd           | Version:  12
     \\/     M anipulation  |
\*---------------------------------------------------------------------------*/
FoamFile
{
    format      ascii;
    class       volScalarField;
    location    "0.15";
    object      p;
}
// * * * * * * * * * * * * * * * * * * * * * * * * * * * * * * * * * * * * * //

dimensions      [0 2 -2 0 0 0 0];

internalField   nonuniform List<scalar> 
3750
(
0.75274
0.740846
0.729777
0.719133
0.708888
0.700385
0.692021
0.682189
0.672733
0.663019
0.648295
0.639354
0.630197
0.620778
0.61005
0.600336
0.591485
0.582873
0.573167
0.562209
0.552665
0.543444
0.530037
0.513642
0.506241
0.497096
0.488001
0.477793
0.467479
0.457262
0.447098
0.437216
0.430527
0.421257
0.416047
0.404505
0.392685
0.381753
0.367668
0.357002
0.346162
0.327912
0.319197
0.308864
0.298145
0.28872
0.279363
0.26932
0.259425
0.249139
0.237095
0.227687
0.217746
0.205972
0.196141
0.186584
0.177369
0.169441
0.161659
0.153924
0.143742
0.134816
0.12588
0.117298
0.109529
0.0996924
0.0885425
0.0725778
0.0630058
0.0532954
0.0435456
0.033824
0.0241699
0.0145186
0.00484361
0.751339
0.739893
0.729441
0.718653
0.707055
0.700383
0.693982
0.682769
0.671662
0.661328
0.649312
0.639505
0.630489
0.621729
0.609131
0.599489
0.591134
0.581826
0.573192
0.563637
0.552376
0.540504
0.528063
0.516
0.508089
0.496737
0.48908
0.477819
0.467366
0.457172
0.447025
0.435272
0.431275
0.419407
0.420292
0.404532
0.391419
0.377368
0.36772
0.356614
0.34449
0.331247
0.320898
0.309265
0.298367
0.288809
0.279173
0.269281
0.259705
0.251046
0.234847
0.22696
0.218231
0.205204
0.195938
0.186145
0.175464
0.169314
0.161381
0.155807
0.143608
0.134645
0.125757
0.117897
0.110015
0.101263
0.0873966
0.0735735
0.0632314
0.0534173
0.0436305
0.0338378
0.0241107
0.014457
0.00481329
0.750651
0.739329
0.728647
0.719147
0.701751
0.70005
0.697183
0.683022
0.669651
0.660355
0.649754
0.638621
0.630719
0.623193
0.610126
0.597305
0.592394
0.578518
0.573152
0.56778
0.552199
0.537733
0.527718
0.51591
0.513446
0.494732
0.491672
0.476933
0.466661
0.456985
0.448213
0.436207
0.42937
0.41858
0.417813
0.40154
0.391027
0.379552
0.369503
0.357219
0.344412
0.332488
0.324082
0.309088
0.297629
0.28922
0.279018
0.268969
0.259003
0.24871
0.236622
0.227105
0.217476
0.206074
0.19627
0.186669
0.172916
0.17005
0.159392
0.156807
0.144778
0.134313
0.124555
0.11853
0.112141
0.101072
0.0899017
0.0716822
0.0627839
0.0534268
0.043796
0.034064
0.0242854
0.0144468
0.00471541
0.750505
0.73796
0.724178
0.71689
0.707218
0.700557
0.693745
0.682304
0.670433
0.660378
0.649652
0.635346
0.631658
0.626174
0.611159
0.59885
0.590366
0.579812
0.572444
0.564414
0.551339
0.538388
0.528022
0.518096
0.511314
0.500035
0.489955
0.475849
0.465707
0.457154
0.449091
0.439184
0.429248
0.419307
0.408112
0.402446
0.391588
0.379923
0.373526
0.357971
0.343508
0.331839
0.322778
0.311218
0.29996
0.29021
0.278577
0.268638
0.258641
0.248143
0.235543
0.227358
0.217374
0.20663
0.196382
0.186214
0.175291
0.167614
0.158404
0.157054
0.144179
0.133781
0.121753
0.119146
0.117188
0.100278
0.0889167
0.0714859
0.0629734
0.0536719
0.0440107
0.0342308
0.0244134
0.014482
0.00469233
0.749912
0.737765
0.722002
0.723205
0.71035
0.700787
0.691803
0.681647
0.671105
0.660936
0.651182
0.637933
0.632876
0.623088
0.610471
0.600417
0.589947
0.579071
0.572855
0.561804
0.55006
0.538296
0.527972
0.518586
0.512271
0.503854
0.489418
0.473953
0.463193
0.457001
0.45092
0.441
0.429057
0.418309
0.407187
0.397568
0.393398
0.376913
0.373431
0.357879
0.346066
0.333916
0.32333
0.31244
0.301766
0.291867
0.277878
0.268345
0.258786
0.249869
0.231713
0.228078
0.217256
0.206683
0.196541
0.186404
0.176622
0.167783
0.159339
0.153763
0.14501
0.135304
0.125352
0.118285
0.110478
0.0964294
0.0915876
0.0738091
0.0641044
0.054291
0.0444079
0.0345086
0.024571
0.014545
0.00469658
0.749157
0.731184
0.727584
0.727973
0.70978
0.70069
0.69128
0.681363
0.67134
0.6614
0.651849
0.64136
0.633183
0.622252
0.608541
0.605343
0.590056
0.57422
0.575842
0.558609
0.548804
0.538087
0.527424
0.516862
0.514417
0.504416
0.489482
0.473551
0.458596
0.45657
0.45401
0.44027
0.428765
0.417638
0.402751
0.397852
0.394151
0.381096
0.371362
0.358471
0.346698
0.335163
0.324181
0.313392
0.302821
0.291909
0.279061
0.268017
0.258414
0.249803
0.234732
0.227025
0.216774
0.20626
0.195712
0.186163
0.176742
0.167555
0.158405
0.152523
0.14685
0.137239
0.126734
0.118092
0.108595
0.0985311
0.0819123
0.0778507
0.0654843
0.0549576
0.0448284
0.034788
0.0247393
0.0146319
0.00472596
0.751463
0.737726
0.729722
0.722916
0.711315
0.701158
0.691292
0.681396
0.671409
0.661516
0.651866
0.642297
0.633478
0.623195
0.611483
0.600808
0.590667
0.578174
0.571703
0.559726
0.548957
0.538192
0.527262
0.516953
0.513301
0.501476
0.49094
0.473647
0.460859
0.456388
0.450888
0.43857
0.429492
0.416098
0.405989
0.397786
0.392561
0.381343
0.369923
0.358299
0.346997
0.335809
0.324876
0.314216
0.303717
0.292654
0.279066
0.266271
0.258232
0.249982
0.23746
0.226771
0.216386
0.205953
0.195212
0.184059
0.176132
0.168022
0.155656
0.152223
0.151102
0.138796
0.127659
0.117575
0.107401
0.0965843
0.0834694
0.0763818
0.0653129
0.0552382
0.0451527
0.0350273
0.0248856
0.0147039
0.00475817
0.758142
0.739707
0.730479
0.721182
0.711156
0.701259
0.691398
0.681337
0.671295
0.66149
0.651804
0.642401
0.6334
0.621716
0.614759
0.601062
0.592744
0.579273
0.570919
0.559927
0.549103
0.538346
0.527925
0.519208
0.507938
0.496464
0.487472
0.476731
0.463189
0.456895
0.451572
0.435757
0.431321
0.413095
0.409261
0.396747
0.39359
0.380875
0.368461
0.357938
0.347153
0.336122
0.325329
0.314908
0.304999
0.29591
0.278368
0.263005
0.258265
0.251879
0.238504
0.22573
0.216151
0.206224
0.196937
0.179106
0.175977
0.171569
0.159128
0.150037
0.150154
0.138891
0.127633
0.117073
0.106301
0.0958088
0.0817033
0.0766705
0.0645228
0.0556095
0.0454937
0.0352541
0.0250319
0.0147899
0.00479891
0.755031
0.743537
0.731638
0.720393
0.710807
0.700007
0.692367
0.68131
0.671119
0.66114
0.651364
0.64191
0.631605
0.621294
0.61783
0.602913
0.593131
0.581636
0.571343
0.560453
0.549236
0.538489
0.52801
0.517491
0.509706
0.489332
0.485653
0.481571
0.460178
0.456801
0.449463
0.445586
0.429783
0.415008
0.408314
0.398621
0.389389
0.378108
0.367853
0.358128
0.347375
0.336185
0.325485
0.31522
0.305473
0.296355
0.276484
0.27206
0.258862
0.247734
0.239199
0.222298
0.217087
0.206075
0.195626
0.184003
0.177031
0.170188
0.160286
0.151386
0.145931
0.139282
0.127015
0.117067
0.106354
0.0935007
0.0780687
0.0727629
0.0693634
0.0570403
0.045945
0.0354347
0.025107
0.0148169
0.00479753
0.755974
0.745394
0.732287
0.719671
0.711767
0.698145
0.693436
0.680348
0.670702
0.660727
0.650494
0.64143
0.631072
0.625587
0.618151
0.604768
0.59401
0.583131
0.572404
0.56182
0.549069
0.538601
0.52913
0.511591
0.509847
0.493022
0.484507
0.476302
0.464403
0.461436
0.445837
0.44594
0.428578
0.413937
0.408839
0.399353
0.386396
0.372365
0.36978
0.358718
0.348019
0.335767
0.325254
0.315159
0.305334
0.295726
0.285268
0.270829
0.258032
0.246587
0.235618
0.221423
0.221955
0.204877
0.196032
0.186498
0.177954
0.169481
0.16045
0.150887
0.142987
0.14349
0.125173
0.116522
0.108609
0.0939381
0.0799119
0.0672574
0.0675382
0.0567534
0.045885
0.0354176
0.0251116
0.0148414
0.00482251
0.753956
0.744071
0.732678
0.721397
0.712224
0.700022
0.690969
0.680378
0.670607
0.660562
0.649853
0.637789
0.633216
0.630011
0.619509
0.605024
0.594931
0.584459
0.573246
0.565491
0.54717
0.536982
0.52684
0.515106
0.50808
0.497622
0.481806
0.473882
0.463439
0.464891
0.44981
0.441125
0.427237
0.410847
0.412709
0.396069
0.385296
0.37401
0.366309
0.359387
0.350242
0.333564
0.324517
0.314873
0.30518
0.296135
0.2865
0.268753
0.255983
0.246556
0.235671
0.224267
0.217646
0.206987
0.197352
0.187933
0.178892
0.16991
0.16092
0.151166
0.142455
0.141716
0.124655
0.115374
0.10608
0.0941234
0.0817189
0.0709134
0.0650228
0.0556829
0.0454646
0.0352309
0.0250129
0.0147701
0.00478282
0.75275
0.743099
0.732994
0.723451
0.715393
0.701396
0.687742
0.679815
0.670695
0.661133
0.651145
0.640763
0.633664
0.627382
0.618615
0.605383
0.596211
0.586592
0.573081
0.5682
0.547919
0.534881
0.526303
0.51613
0.506397
0.496063
0.484195
0.474072
0.464623
0.45842
0.447805
0.439897
0.428141
0.416498
0.409374
0.397503
0.385266
0.374832
0.362305
0.360257
0.34794
0.335191
0.324611
0.314632
0.304858
0.296061
0.28337
0.268511
0.257516
0.247084
0.236521
0.226337
0.217358
0.207793
0.198311
0.18896
0.179836
0.170914
0.162129
0.153156
0.144155
0.132853
0.125912
0.113982
0.106353
0.0948162
0.0825352
0.0702569
0.0652785
0.0550737
0.0450499
0.0350001
0.0248973
0.0147414
0.00478693
0.752143
0.742387
0.732546
0.722688
0.712622
0.701685
0.690289
0.680647
0.671328
0.662089
0.652985
0.642616
0.633185
0.625516
0.615741
0.608324
0.59787
0.587103
0.577006
0.563055
0.548301
0.536776
0.526187
0.51625
0.505341
0.496154
0.484837
0.474238
0.464067
0.45536
0.44409
0.440382
0.428903
0.418349
0.409098
0.398837
0.383531
0.377883
0.362729
0.356769
0.346163
0.334571
0.324458
0.314215
0.304135
0.294173
0.281944
0.268678
0.258101
0.247518
0.236701
0.22681
0.217754
0.208502
0.19909
0.189803
0.180711
0.171793
0.163234
0.156667
0.144284
0.133234
0.121721
0.108606
0.107645
0.0955478
0.0840633
0.0727
0.062643
0.0542654
0.0446627
0.0347787
0.0247612
0.0146483
0.00473887
0.751244
0.74183
0.732245
0.722373
0.71178
0.701311
0.690968
0.681141
0.671771
0.663163
0.656131
0.64325
0.630904
0.625881
0.611014
0.612032
0.59976
0.588281
0.575915
0.563382
0.550162
0.538193
0.525351
0.517198
0.507784
0.497075
0.484807
0.474045
0.46352
0.455337
0.444352
0.436544
0.429218
0.418858
0.410142
0.393864
0.385021
0.37821
0.36676
0.35695
0.345026
0.332509
0.324756
0.313776
0.303266
0.292772
0.281435
0.269745
0.258948
0.248183
0.235997
0.225656
0.218712
0.209459
0.199764
0.190489
0.181396
0.172355
0.163436
0.153613
0.140913
0.12546
0.120154
0.111237
0.105165
0.0957592
0.0856649
0.0744266
0.0638767
0.054299
0.0445536
0.0346646
0.0246826
0.014619
0.00474249
0.749824
0.741262
0.732177
0.722565
0.711119
0.701022
0.691048
0.681237
0.671684
0.662535
0.65348
0.643116
0.633064
0.62482
0.615089
0.609986
0.600916
0.583896
0.574495
0.563607
0.551846
0.540501
0.530901
0.51991
0.506248
0.492387
0.483368
0.473117
0.46552
0.458266
0.443411
0.432438
0.429743
0.416938
0.407064
0.394647
0.385215
0.381441
0.369035
0.359046
0.345868
0.327235
0.325475
0.312453
0.302357
0.292001
0.281281
0.270109
0.259773
0.251283
0.233905
0.223154
0.219931
0.210374
0.199992
0.191018
0.182112
0.172946
0.164515
0.152893
0.140416
0.11962
0.12203
0.112692
0.10357
0.0960477
0.0884598
0.0755683
0.0646246
0.0545359
0.0445772
0.0346172
0.0246205
0.0145557
0.00469902
0.74995
0.741277
0.732614
0.724667
0.709148
0.700647
0.691108
0.681253
0.671349
0.661589
0.652132
0.642556
0.633588
0.625343
0.616488
0.607848
0.597856
0.58538
0.574717
0.564695
0.553536
0.541152
0.530761
0.520127
0.504598
0.494147
0.483405
0.472007
0.467143
0.457129
0.445424
0.43473
0.427306
0.416552
0.404967
0.394844
0.390406
0.379565
0.368214
0.357672
0.346994
0.328006
0.321694
0.311492
0.301692
0.291834
0.281601
0.269771
0.259327
0.248397
0.236986
0.225157
0.218825
0.209468
0.198684
0.191565
0.183052
0.174466
0.167284
0.15302
0.136763
0.117177
0.121252
0.112917
0.101861
0.0973435
0.0942486
0.0747069
0.0646778
0.0546029
0.0445683
0.0345768
0.024581
0.0145406
0.00470877
0.746758
0.741348
0.732426
0.722689
0.711334
0.701343
0.691108
0.681154
0.670955
0.660936
0.650814
0.639788
0.633249
0.626951
0.617599
0.607715
0.597533
0.585173
0.573712
0.567191
0.556717
0.539732
0.530119
0.519725
0.504386
0.494727
0.484784
0.475708
0.465244
0.456642
0.44637
0.436341
0.427001
0.417113
0.404373
0.404497
0.388432
0.377213
0.366566
0.356489
0.345
0.32941
0.320485
0.310689
0.300972
0.291784
0.283601
0.268101
0.260227
0.241933
0.238666
0.229853
0.220057
0.20809
0.194117
0.192549
0.18396
0.17459
0.16537
0.15519
0.13734
0.118119
0.11997
0.113312
0.10678
0.0968375
0.0884986
0.0759278
0.0650105
0.0546572
0.0445281
0.0345141
0.0245181
0.0144775
0.00466726
0.745131
0.744423
0.732893
0.722379
0.711992
0.702263
0.691124
0.681509
0.670436
0.661026
0.650605
0.636223
0.633141
0.629726
0.618307
0.60804
0.599446
0.584263
0.568774
0.572751
0.554069
0.54218
0.530562
0.518353
0.504753
0.495448
0.485443
0.475676
0.46562
0.456332
0.446733
0.437018
0.427326
0.417482
0.40676
0.40777
0.391111
0.374317
0.364345
0.356568
0.341631
0.32901
0.320111
0.310142
0.299595
0.290935
0.281029
0.269973
0.260782
0.244635
0.235477
0.228218
0.218274
0.208635
0.200791
0.191578
0.183593
0.174316
0.164435
0.153403
0.139967
0.12604
0.12405
0.114156
0.102238
0.0948003
0.0857311
0.0752342
0.0647481
0.0544703
0.0443905
0.0344109
0.0244511
0.0144572
0.00467631
0.750043
0.742308
0.73202
0.721934
0.712063
0.703538
0.691264
0.683338
0.668148
0.661203
0.651051
0.640105
0.633772
0.626695
0.616909
0.606791
0.596402
0.584055
0.57132
0.573619
0.55522
0.544573
0.531685
0.51836
0.502595
0.497146
0.485775
0.475445
0.465708
0.456428
0.447032
0.437496
0.428056
0.418691
0.409747
0.404027
0.393474
0.376015
0.360057
0.352344
0.34167
0.330853
0.320842
0.310041
0.297688
0.290221
0.279516
0.270312
0.25717
0.246844
0.236349
0.226518
0.217265
0.208537
0.202784
0.193539
0.184338
0.174685
0.164658
0.154297
0.14379
0.135376
0.122263
0.110566
0.103125
0.094507
0.0844999
0.0747203
0.0642426
0.0541028
0.0441551
0.0342598
0.0243462
0.0143786
0.0046337
0.753304
0.742095
0.730951
0.72159
0.71225
0.702913
0.691815
0.680815
0.669468
0.659106
0.654183
0.643102
0.634082
0.625334
0.615897
0.605765
0.595416
0.58469
0.574776
0.568834
0.549232
0.544794
0.532538
0.521533
0.504811
0.503463
0.484848
0.47468
0.465565
0.456516
0.447289
0.437943
0.42866
0.419667
0.411144
0.404643
0.390927
0.376026
0.358969
0.35115
0.341797
0.331981
0.322444
0.312194
0.29337
0.2894
0.276553
0.268105
0.257619
0.247446
0.236762
0.224097
0.215949
0.207401
0.207587
0.195952
0.185476
0.175429
0.16535
0.155294
0.145669
0.137769
0.122173
0.109193
0.10408
0.0955794
0.0842356
0.0734474
0.0633739
0.0536116
0.0438651
0.0340817
0.0242456
0.0143431
0.00463672
0.751429
0.740948
0.730785
0.721267
0.712006
0.702463
0.692647
0.680046
0.670484
0.661147
0.65483
0.642525
0.6338
0.624676
0.615044
0.605003
0.594819
0.584562
0.574585
0.565169
0.553893
0.537455
0.532574
0.527092
0.510289
0.501707
0.486972
0.473072
0.465554
0.45682
0.447671
0.438395
0.42907
0.419584
0.410349
0.400842
0.389335
0.378178
0.360027
0.351649
0.342486
0.332791
0.32411
0.311832
0.296277
0.284216
0.273793
0.266283
0.257671
0.248483
0.239364
0.219581
0.215291
0.21079
0.20899
0.19667
0.186289
0.176224
0.166046
0.155816
0.145805
0.135886
0.124005
0.108759
0.107388
0.0990253
0.0846471
0.0702328
0.0622493
0.0531063
0.043579
0.0338973
0.0241218
0.0142653
0.00460876
0.749065
0.739606
0.730123
0.720833
0.711576
0.702239
0.692526
0.681333
0.671487
0.661933
0.65344
0.643271
0.633894
0.624271
0.614467
0.604372
0.594317
0.584142
0.573807
0.564053
0.553029
0.541085
0.532655
0.524263
0.511533
0.49999
0.487946
0.476326
0.466817
0.457532
0.448262
0.438925
0.429502
0.419744
0.409803
0.399195
0.387681
0.375677
0.362748
0.353099
0.343689
0.333993
0.32323
0.310634
0.296287
0.283291
0.272833
0.263513
0.258164
0.249608
0.241477
0.225754
0.215233
0.211338
0.205206
0.19514
0.187015
0.177137
0.166795
0.156236
0.145628
0.135886
0.124542
0.112353
0.105925
0.0969981
0.0850512
0.0720103
0.0624226
0.0529749
0.0434264
0.0337847
0.0240552
0.0142445
0.00462691
0.74868
0.738354
0.72926
0.720334
0.711355
0.702187
0.692318
0.682097
0.672255
0.662621
0.65331
0.64392
0.634192
0.624115
0.614141
0.603819
0.593798
0.583748
0.572475
0.564286
0.553326
0.54264
0.53279
0.522451
0.51121
0.499706
0.488472
0.477607
0.467737
0.458204
0.44888
0.439603
0.430247
0.420053
0.409966
0.398485
0.386497
0.374026
0.361651
0.354567
0.345393
0.337346
0.322356
0.310042
0.295638
0.280046
0.272212
0.258789
0.261456
0.250354
0.239578
0.22795
0.220253
0.214093
0.203233
0.191809
0.189066
0.177322
0.168783
0.156651
0.145824
0.136149
0.124886
0.112069
0.104721
0.0974454
0.0869606
0.070451
0.0624586
0.052978
0.043361
0.033703
0.0239852
0.0141901
0.0045911
0.749834
0.735278
0.728255
0.719916
0.711471
0.70243
0.692575
0.682533
0.672658
0.663049
0.653682
0.644508
0.634972
0.623889
0.614177
0.603005
0.593392
0.584164
0.570331
0.566462
0.553315
0.543382
0.532835
0.521454
0.510885
0.499443
0.488749
0.478055
0.468265
0.458691
0.449482
0.440298
0.431458
0.420306
0.411453
0.398246
0.38596
0.372897
0.35663
0.356633
0.345999
0.335984
0.322738
0.3095
0.292589
0.28088
0.268306
0.263304
0.26245
0.250656
0.239641
0.227411
0.22354
0.220971
0.201459
0.192461
0.189631
0.175385
0.172637
0.154926
0.143462
0.13483
0.122744
0.116764
0.104935
0.0989095
0.0834361
0.0722084
0.0627774
0.0530727
0.0433863
0.0336778
0.0239586
0.0141896
0.00460739
0.748926
0.736613
0.728722
0.72088
0.712189
0.702699
0.692777
0.682787
0.672854
0.663238
0.65388
0.644946
0.63722
0.622333
0.615747
0.600729
0.592579
0.582968
0.572151
0.564881
0.554476
0.544732
0.533065
0.521029
0.510346
0.498693
0.487967
0.477477
0.468519
0.458954
0.450199
0.44141
0.434157
0.418322
0.405918
0.396964
0.386
0.37451
0.361304
0.354719
0.345674
0.336428
0.321909
0.309751
0.29193
0.282062
0.27172
0.264044
0.257517
0.25002
0.24199
0.231707
0.224756
0.218995
0.200378
0.199445
0.189287
0.174443
0.169228
0.150023
0.144227
0.139055
0.124667
0.11731
0.108943
0.0964769
0.0807642
0.0721524
0.0628799
0.0531335
0.0433403
0.0336314
0.0239117
0.0141522
0.00458413
0.744743
0.734768
0.729169
0.722891
0.713986
0.703606
0.693011
0.68296
0.67271
0.663112
0.653671
0.644341
0.634889
0.623875
0.614186
0.602858
0.593319
0.583077
0.572782
0.563302
0.555842
0.546576
0.533621
0.520971
0.50904
0.497406
0.48693
0.477901
0.46926
0.458194
0.45114
0.441611
0.433587
0.416833
0.404358
0.397501
0.38631
0.376622
0.362879
0.354551
0.345198
0.336463
0.319084
0.308034
0.295515
0.284654
0.27434
0.264427
0.253411
0.249752
0.245803
0.234631
0.224974
0.215944
0.204709
0.193665
0.190248
0.177511
0.166834
0.154099
0.145497
0.137468
0.126042
0.116255
0.106416
0.0951628
0.0829359
0.0729244
0.0632174
0.0530936
0.0432813
0.0335666
0.0238697
0.0141404
0.00459116
0.741787
0.735072
0.728841
0.725675
0.716636
0.704563
0.693749
0.683265
0.670793
0.66271
0.653339
0.643793
0.634197
0.624159
0.614134
0.602912
0.594822
0.583587
0.572595
0.562691
0.55824
0.54674
0.534011
0.520087
0.507175
0.495531
0.484898
0.482215
0.472315
0.455524
0.452866
0.440261
0.430054
0.414646
0.405545
0.400185
0.386371
0.374811
0.363496
0.355675
0.344134
0.332199
0.321421
0.308979
0.29751
0.286769
0.276149
0.266338
0.256643
0.249784
0.243063
0.233508
0.226088
0.216341
0.206092
0.195338
0.187914
0.177832
0.167438
0.15541
0.146014
0.13635
0.125988
0.115427
0.105305
0.0947704
0.0840746
0.0735561
0.0629852
0.0529004
0.0431189
0.0334588
0.0238006
0.0140974
0.00457774
0.743518
0.736506
0.724788
0.723223
0.719516
0.704251
0.694224
0.68427
0.676009
0.663675
0.65315
0.643203
0.633927
0.624396
0.615044
0.601597
0.598967
0.584789
0.572755
0.568132
0.554032
0.545847
0.535632
0.518152
0.504661
0.495374
0.48505
0.483373
0.47041
0.459998
0.451897
0.439853
0.428864
0.409497
0.403471
0.395926
0.384921
0.373331
0.361773
0.357289
0.343312
0.328746
0.323016
0.30894
0.298889
0.288858
0.277377
0.267692
0.258917
0.250566
0.241847
0.231007
0.227791
0.216404
0.206168
0.196289
0.187054
0.177613
0.168583
0.155395
0.146822
0.135799
0.126113
0.114176
0.104504
0.0940534
0.0860574
0.074044
0.0622493
0.0524284
0.0428666
0.0333243
0.0237412
0.0140852
0.00458291
0.747271
0.737965
0.727779
0.721696
0.714852
0.703794
0.693612
0.683349
0.673565
0.66284
0.652272
0.641845
0.633863
0.624474
0.614008
0.602886
0.600653
0.587108
0.575912
0.562414
0.554108
0.547081
0.532773
0.516858
0.504324
0.497022
0.48617
0.481701
0.472201
0.461374
0.451489
0.439796
0.42694
0.412615
0.403266
0.393982
0.38395
0.372056
0.362503
0.355137
0.342973
0.330836
0.319849
0.309697
0.300067
0.29223
0.277281
0.268879
0.259814
0.251059
0.242508
0.235166
0.222989
0.215052
0.205872
0.196418
0.186985
0.177595
0.169239
0.156443
0.150035
0.133966
0.12723
0.111964
0.103307
0.0923556
0.0880774
0.0735397
0.0604636
0.051741
0.0426034
0.0332101
0.023686
0.014055
0.00456402
0.749148
0.739539
0.730119
0.721696
0.713045
0.70309
0.69299
0.681825
0.672165
0.661929
0.651469
0.638557
0.634004
0.625768
0.61545
0.605707
0.598241
0.586844
0.575732
0.561242
0.553084
0.543938
0.531486
0.518263
0.504948
0.497324
0.489037
0.48241
0.474661
0.462978
0.451973
0.440087
0.427483
0.415286
0.402724
0.393003
0.384859
0.368614
0.362426
0.354047
0.342822
0.333437
0.31676
0.309888
0.299352
0.291223
0.283334
0.26946
0.260187
0.251494
0.242805
0.23406
0.224167
0.215077
0.205842
0.196474
0.187033
0.1776
0.168112
0.157555
0.148321
0.134469
0.125475
0.114489
0.104876
0.0940016
0.0852437
0.0710044
0.0599184
0.0515634
0.0425667
0.033215
0.0236999
0.0140843
0.00459235
0.75029
0.740629
0.731129
0.721896
0.712559
0.70285
0.693247
0.680893
0.670723
0.660783
0.652407
0.639823
0.63021
0.626531
0.616673
0.606976
0.596687
0.586429
0.575465
0.562354
0.553018
0.5426
0.530937
0.519371
0.503034
0.497361
0.490524
0.484341
0.479466
0.46389
0.453248
0.440749
0.428022
0.417339
0.400164
0.391958
0.382192
0.367854
0.363793
0.354573
0.340914
0.331739
0.316032
0.312573
0.296882
0.289781
0.28379
0.276797
0.259927
0.251871
0.243141
0.234092
0.224646
0.215304
0.205928
0.196545
0.187012
0.177372
0.16761
0.157347
0.145796
0.137032
0.125661
0.115592
0.106793
0.0934564
0.0822571
0.069893
0.0607555
0.0521987
0.0428425
0.0333424
0.023761
0.0140921
0.00457275
0.751247
0.741499
0.73186
0.722236
0.712404
0.702145
0.691584
0.679834
0.670734
0.658681
0.646162
0.638359
0.630284
0.623249
0.614762
0.606743
0.59705
0.586446
0.576715
0.560673
0.552666
0.542297
0.530015
0.521699
0.507856
0.49863
0.491259
0.484115
0.476773
0.465235
0.455336
0.44064
0.427731
0.413664
0.401147
0.392817
0.384837
0.369717
0.356639
0.353862
0.341248
0.329748
0.320556
0.313765
0.292847
0.287525
0.285287
0.281751
0.26205
0.253022
0.243805
0.234484
0.225084
0.215653
0.206173
0.196603
0.18696
0.177241
0.167539
0.158614
0.141272
0.141462
0.12396
0.115351
0.107579
0.0906302
0.0804843
0.0688427
0.0641021
0.0533213
0.0432821
0.0335523
0.0238727
0.0141702
0.00462367
0.752197
0.742375
0.732647
0.722784
0.71266
0.701771
0.690942
0.680036
0.67088
0.65612
0.645827
0.638048
0.630536
0.621323
0.616729
0.604755
0.601636
0.585552
0.573197
0.563155
0.553329
0.54425
0.526694
0.525963
0.512612
0.498414
0.491732
0.483894
0.475196
0.46529
0.454825
0.440034
0.423364
0.413668
0.402991
0.393293
0.383269
0.370051
0.35995
0.351141
0.339533
0.326347
0.323201
0.313766
0.29877
0.285697
0.286925
0.274229
0.264883
0.254457
0.244588
0.235021
0.22556
0.21611
0.20647
0.196757
0.186978
0.177054
0.166947
0.156454
0.14449
0.136868
0.12511
0.114755
0.104307
0.0922304
0.0813126
0.0708346
0.0633478
0.0533759
0.0434633
0.033688
0.0239556
0.014196
0.00461146
0.753146
0.743122
0.733513
0.723624
0.713507
0.701378
0.690407
0.679623
0.669234
0.657151
0.645081
0.638093
0.633035
0.6216
0.611346
0.60674
0.59771
0.586242
0.574804
0.56376
0.55303
0.54283
0.532136
0.523872
0.510642
0.502182
0.493691
0.484744
0.4755
0.465337
0.453126
0.435307
0.424717
0.414632
0.404309
0.39416
0.385008
0.367982
0.362735
0.349238
0.339172
0.328516
0.319254
0.31655
0.29996
0.287839
0.279489
0.274045
0.267946
0.25514
0.24499
0.235552
0.226079
0.216526
0.206795
0.196973
0.187129
0.177063
0.16683
0.15641
0.14558
0.135575
0.124825
0.114217
0.103852
0.0927189
0.0817509
0.0718348
0.0627585
0.0532311
0.0435097
0.0337715
0.0240303
0.0142573
0.00464206
0.753987
0.744052
0.734674
0.72544
0.715017
0.699887
0.68972
0.678711
0.668844
0.658376
0.648523
0.643632
0.628027
0.620765
0.611625
0.60341
0.593249
0.58624
0.576129
0.56446
0.552463
0.541217
0.534786
0.524429
0.509112
0.504511
0.495603
0.48568
0.475551
0.46176
0.44948
0.436384
0.4259
0.415869
0.40574
0.394088
0.384307
0.375877
0.360377
0.349217
0.33957
0.330045
0.321063
0.313845
0.302606
0.284409
0.283708
0.274327
0.261828
0.253312
0.244764
0.236109
0.226726
0.217125
0.207249
0.19732
0.187347
0.177269
0.167012
0.156601
0.145823
0.135127
0.124314
0.113463
0.104117
0.0929416
0.0814488
0.0721828
0.0628906
0.0532951
0.0435769
0.03384
0.0240803
0.0142738
0.00463449
0.754162
0.744223
0.735058
0.727787
0.715999
0.700023
0.687638
0.677366
0.669001
0.659196
0.648904
0.638893
0.632907
0.622012
0.611481
0.601132
0.588264
0.586851
0.578586
0.565452
0.551507
0.538465
0.534376
0.528747
0.511077
0.502009
0.496013
0.485828
0.473264
0.460211
0.449165
0.43537
0.426322
0.417155
0.408731
0.392281
0.383748
0.379862
0.362717
0.347959
0.339916
0.330968
0.321806
0.312283
0.301103
0.288932
0.282546
0.271668
0.260862
0.251538
0.244715
0.23733
0.227807
0.217794
0.207707
0.19769
0.187709
0.177691
0.167463
0.156981
0.145886
0.134717
0.124026
0.11218
0.106161
0.0934746
0.0809991
0.0725243
0.0632335
0.0534586
0.0436756
0.0339091
0.0241293
0.0143112
0.00465596
0.753635
0.744063
0.733424
0.727852
0.714057
0.700035
0.690305
0.679989
0.670453
0.660603
0.650071
0.639548
0.631301
0.621671
0.611534
0.602127
0.593014
0.586494
0.582958
0.567121
0.550188
0.540848
0.534203
0.528405
0.512226
0.496848
0.498661
0.481747
0.470949
0.459815
0.45006
0.435795
0.426841
0.417554
0.408847
0.389489
0.385951
0.382734
0.362425
0.351295
0.341463
0.33209
0.322886
0.3124
0.301013
0.289437
0.282102
0.270579
0.259313
0.247732
0.243735
0.239574
0.228803
0.218248
0.207987
0.19802
0.188087
0.178173
0.168005
0.157915
0.145905
0.134221
0.125438
0.118383
0.106231
0.0940769
0.0823549
0.0726577
0.0636089
0.0536355
0.0437675
0.0339673
0.0241673
0.0143261
0.0046566
0.753239
0.743942
0.730864
0.726723
0.71374
0.701334
0.691486
0.68171
0.672124
0.662581
0.651339
0.640052
0.63071
0.621425
0.612055
0.602726
0.588653
0.590465
0.580414
0.569173
0.550213
0.540784
0.532857
0.524071
0.511979
0.500619
0.494189
0.481605
0.469607
0.459676
0.449503
0.437576
0.427676
0.417957
0.407665
0.39567
0.389094
0.375447
0.364347
0.353574
0.342774
0.332577
0.323888
0.313863
0.301538
0.28817
0.28381
0.2696
0.258945
0.248984
0.243055
0.237003
0.227948
0.218119
0.208156
0.198344
0.188488
0.178441
0.168534
0.158948
0.145779
0.132886
0.125057
0.116278
0.105598
0.0944332
0.0834316
0.0733393
0.0636433
0.0536903
0.043811
0.0339971
0.0241928
0.0143453
0.00466789
0.752793
0.743215
0.731935
0.723204
0.71193
0.701658
0.69257
0.68328
0.674045
0.666467
0.652471
0.638214
0.630022
0.621028
0.612354
0.603544
0.592425
0.587582
0.576679
0.567545
0.554201
0.537639
0.532299
0.5219
0.511169
0.500492
0.490649
0.480919
0.468278
0.459207
0.449528
0.438901
0.428821
0.41867
0.408282
0.397498
0.387328
0.374436
0.366276
0.355857
0.343576
0.331639
0.322737
0.317096
0.303438
0.291662
0.283005
0.270645
0.259363
0.248573
0.242581
0.235422
0.227781
0.218326
0.208053
0.198754
0.188988
0.178981
0.168602
0.157698
0.145413
0.134034
0.124236
0.115142
0.105076
0.0946563
0.0838206
0.0739662
0.0637038
0.0536486
0.0438052
0.034009
0.0242082
0.0143582
0.00467393
0.753165
0.743545
0.732826
0.720577
0.70832
0.700824
0.693969
0.684764
0.674464
0.665125
0.654132
0.641509
0.630267
0.620049
0.612672
0.60544
0.594253
0.589854
0.571462
0.569297
0.549832
0.538185
0.536631
0.519576
0.51004
0.500707
0.484013
0.480752
0.470735
0.45929
0.449301
0.439373
0.429608
0.419652
0.409256
0.398388
0.38741
0.372366
0.36941
0.359997
0.344427
0.329036
0.327632
0.312788
0.303634
0.293471
0.284544
0.267976
0.263927
0.244301
0.240505
0.233958
0.228568
0.219459
0.206959
0.199535
0.190252
0.179973
0.169002
0.157038
0.144116
0.133773
0.122729
0.115079
0.104085
0.0953961
0.083163
0.0750136
0.0636253
0.0534878
0.0437497
0.0340182
0.0242215
0.0143711
0.00467571
0.754274
0.744567
0.734482
0.720248
0.702195
0.69928
0.69589
0.686924
0.673792
0.665477
0.65701
0.643687
0.630089
0.61756
0.612763
0.60589
0.599299
0.584812
0.571543
0.56452
0.55008
0.539957
0.532397
0.521113
0.509027
0.497013
0.486838
0.476785
0.473253
0.458802
0.448847
0.439654
0.430734
0.42115
0.41095
0.399651
0.385587
0.371816
0.368233
0.358239
0.345849
0.334655
0.3243
0.313168
0.304783
0.293815
0.282642
0.272581
0.260436
0.246624
0.235089
0.231837
0.226357
0.219189
0.212698
0.200208
0.192007
0.180379
0.170243
0.1554
0.141568
0.132557
0.118269
0.116888
0.103215
0.0980404
0.0788025
0.0765038
0.0624316
0.0532782
0.0436926
0.0340073
0.0242365
0.0143879
0.00469622
0.752644
0.7436
0.733904
0.718596
0.706809
0.698761
0.692301
0.691402
0.669528
0.665678
0.661553
0.646314
0.63115
0.621506
0.615184
0.605575
0.597331
0.582903
0.567685
0.560433
0.549826
0.539681
0.531279
0.523401
0.508303
0.492404
0.48914
0.475519
0.471292
0.456565
0.446716
0.439561
0.432495
0.423274
0.414695
0.400663
0.379456
0.374689
0.371401
0.35866
0.34683
0.330996
0.326784
0.315714
0.30774
0.294407
0.281302
0.274929
0.258213
0.247657
0.239357
0.232231
0.225061
0.217953
0.211056
0.19802
0.194007
0.178766
0.164768
0.150344
0.142656
0.124355
0.121229
0.118968
0.103957
0.0954622
0.0802864
0.0748608
0.0613732
0.0531374
0.0437445
0.034072
0.0242862
0.0144141
0.00469862
0.752605
0.742935
0.732489
0.720359
0.709431
0.699715
0.691768
0.691813
0.672296
0.665324
0.65871
0.648171
0.635454
0.622026
0.609281
0.603481
0.597307
0.582524
0.567314
0.559796
0.550378
0.539157
0.529701
0.519923
0.508401
0.496914
0.489958
0.477577
0.467048
0.45543
0.443642
0.439267
0.435215
0.424171
0.41632
0.399935
0.38408
0.375366
0.372242
0.358045
0.342169
0.336682
0.325557
0.314634
0.30467
0.294444
0.28433
0.273454
0.261586
0.248175
0.245026
0.23267
0.224087
0.216369
0.208081
0.199211
0.189718
0.176134
0.161228
0.148292
0.13623
0.127989
0.122994
0.113959
0.101098
0.0920193
0.0851136
0.0690623
0.064973
0.054103
0.044081
0.0342274
0.0243706
0.0144644
0.00471321
0.753115
0.742932
0.732318
0.721369
0.711038
0.701831
0.694781
0.685712
0.675226
0.664536
0.656232
0.648809
0.634539
0.621416
0.60793
0.602161
0.593869
0.582391
0.570774
0.56136
0.5527
0.536764
0.528829
0.519265
0.508682
0.498163