/*--------------------------------*- C++ -*----------------------------------*\
  =========                 |
  \\      /  F ield         | OpenFOAM: The Open Source CFD Toolbox
   \\    /   O peration     | Website:  https://openfoam.org
    \\  /    A nd           | Version:  12
     \\/     M anipulation  |
\*---------------------------------------------------------------------------*/
FoamFile
{
    format      ascii;
    class       surfaceScalarField;
    location    "0.15";
    object      phi.water;
}
// * * * * * * * * * * * * * * * * * * * * * * * * * * * * * * * * * * * * * //

dimensions      [0 3 -1 0 0 0 0];

internalField   nonuniform List<scalar> 
7375
(
1.61247e-07
2.64435e-08
1.36437e-07
2.46689e-08
1.14864e-07
2.04301e-08
1.28535e-07
-1.3672e-08
1.514e-07
-2.1633e-08
1.67699e-07
-1.62833e-08
1.72263e-07
-2.81844e-09
1.65625e-07
6.53314e-09
1.63906e-07
7.11722e-11
1.43569e-07
1.87611e-08
1.54516e-07
-1.09469e-08
1.71023e-07
-1.49827e-08
2.10441e-07
-3.92173e-08
2.25137e-07
-1.45382e-08
2.13922e-07
1.13285e-08
2.08873e-07
5.16476e-09
1.94413e-07
1.65233e-08
1.6346e-07
3.12113e-08
1.41638e-07
2.00809e-08
1.33133e-07
8.53885e-09
1.27119e-07
5.99382e-09
1.12648e-07
1.45036e-08
2.40564e-07
2.52233e-08
1.30202e-07
-4.28208e-08
1.37617e-07
-7.38099e-09
1.14316e-07
2.34042e-08
8.49529e-08
2.94948e-08
5.95668e-08
2.54114e-08
5.3768e-08
5.77446e-09
6.67521e-08
-1.30621e-08
8.8208e-08
-2.15303e-08
9.97884e-08
-1.15894e-08
1.21164e-07
-2.13738e-08
1.44368e-07
-2.32357e-08
1.81623e-07
-3.71159e-08
1.67685e-07
1.39838e-08
1.41541e-07
2.76905e-08
7.82319e-08
6.28212e-08
4.57722e-08
3.16922e-08
4.23007e-09
4.15987e-08
1.1479e-07
4.14128e-08
-2.79329e-10
-3.65132e-08
3.62236e-08
-3.65634e-08
7.41815e-08
-3.80615e-08
1.07583e-07
-3.34379e-08
1.28379e-07
-2.08193e-08
1.42409e-07
-1.40758e-08
1.41323e-07
1.05884e-09
1.31569e-07
9.72711e-09
1.53003e-07
-2.17066e-08
1.20697e-07
3.10528e-08
1.24803e-07
-4.10714e-09
1.45823e-07
-1.98452e-08
1.64906e-07
-1.91799e-08
1.78556e-07
-1.38013e-08
1.83979e-07
-3.62065e-09
1.70333e-07
1.394e-08
1.52465e-07
1.62808e-08
1.29483e-07
2.30574e-08
1.0231e-07
2.73616e-08
8.8868e-08
1.34321e-08
1.06129e-07
-1.72219e-08
1.26934e-07
-2.0754e-08
1.61112e-07
-3.41243e-08
1.86689e-07
-2.5494e-08
1.80806e-07
6.09888e-09
1.6381e-07
1.53577e-08
1.54523e-07
9.28646e-09
1.58442e-07
-2.4361e-09
1.80275e-07
-2.1708e-08
2.00435e-07
-2.20841e-08
1.92897e-07
5.53388e-09
1.45824e-07
4.70748e-08
7.07297e-08
7.50964e-08
4.20408e-08
-5.64784e-08
1.5378e-08
-4.5168e-08
1.33568e-08
-4.21467e-08
1.74077e-08
-2.45024e-08
-3.17811e-08
-6.38418e-08
1.77056e-08
-7.29576e-08
-7.16859e-09
-8.61487e-08
1.0372e-08
-1.04471e-07
2.47874e-08
-1.18801e-07
1.44009e-08
-1.16234e-07
1.61934e-08
-1.03843e-07
-2.34501e-08
-6.85151e-08
-5.03114e-08
-4.60283e-08
-6.17045e-08
-2.88231e-08
-3.17442e-08
-2.72494e-08
9.75443e-09
-3.8918e-08
1.68327e-08
1.32703e-09
-2.34825e-08
-1.55674e-08
4.82792e-08
-4.15034e-08
4.60167e-08
-4.82853e-08
1.53202e-08
-5.97531e-08
1.74615e-08
-7.62775e-08
3.10274e-08
-6.47562e-08
1.3702e-08
-9.46801e-08
-1.28974e-08
-7.31971e-08
-2.8864e-08
-1.02244e-07
5.24504e-08
-9.10073e-08
1.82584e-08
-7.62785e-08
1.06823e-08
-7.37905e-08
3.28661e-09
-8.09035e-08
-5.94936e-09
-9.80386e-08
-5.3951e-09
-1.6564e-07
4.43881e-09
-1.43106e-07
8.82884e-09
-2.13403e-07
-3.9851e-09
-4.71564e-08
8.23975e-10
-8.17745e-08
4.81109e-08
-7.31894e-08
1.98524e-08
-1.4907e-07
-1.35264e-08
-1.30323e-07
1.14248e-08
-1.07768e-07
1.90434e-08
-6.48271e-08
-1.52742e-09
-7.97173e-08
-2.19957e-08
-5.99569e-08
-5.69042e-08
-7.12701e-08
-2.67485e-08
-6.67781e-08
-3.79299e-08
-6.22848e-08
-2.53129e-08
-7.36064e-08
-2.75409e-09
-9.26816e-08
2.01337e-08
-1.16071e-07
3.19329e-08
-3.05265e-08
4.74662e-08
-1.50101e-07
-2.20136e-09
-1.51144e-07
-3.10582e-09
-1.75341e-07
4.35189e-09
-1.81585e-07
-1.29365e-08
-1.82975e-07
-1.24115e-08
-1.76598e-07
-9.99754e-09
-1.92462e-07
2.96612e-08
-1.93501e-07
1.71452e-08
-2.12579e-07
4.25695e-08
-2.1835e-07
3.53601e-08
-1.9232e-07
-1.25973e-08
-1.81491e-07
-3.00133e-08
-1.65405e-07
-3.7219e-08
-1.41733e-07
-5.77959e-08
-1.22201e-07
-4.6272e-08
-1.07128e-07
-8.97428e-09
-9.33941e-08
2.71794e-09
-1.27455e-07
4.42908e-08
-1.25835e-07
-2.75683e-09
-1.21007e-07
-2.63195e-08
-1.16329e-07
-2.65417e-08
-1.15735e-07
4.94078e-09
-1.10452e-07
4.17944e-08
-1.0492e-07
6.95658e-08
3.99245e-08
-8.01766e-08
-2.64198e-08
-6.43856e-08
-2.43593e-09
-9.28396e-08
4.49133e-08
-1.90312e-08
4.91274e-08
-1.56939e-07
-4.83796e-08
-1.44011e-07
-2.00971e-08
-1.28358e-07
4.57646e-08
-1.30524e-07
2.69524e-08
-1.43389e-07
2.72659e-08
-1.30675e-07
3.47847e-09
-1.31025e-07
-2.31013e-08
-1.51765e-07
-2.98761e-08
-1.72233e-07
-4.12373e-08
-1.57561e-07
-4.59482e-08
-1.57883e-07
1.00763e-08
-1.84557e-07
-5.65809e-09
-1.44114e-07
-1.485e-08
-1.36799e-07
-1.20947e-08
-1.1936e-07
2.99729e-08
-1.01921e-07
4.89272e-08
-1.02717e-07
1.82578e-08
-1.16607e-07
4.49174e-08
-1.32253e-07
2.93469e-08
-1.92159e-07
-4.03761e-09
-5.55186e-08
3.86813e-08
-1.89275e-07
-1.79797e-08
-1.49033e-07
2.90634e-08
-1.34312e-07
-4.0394e-09
-1.23981e-07
-7.04408e-09
-1.22446e-07
-7.48511e-09
-1.31372e-07
3.53138e-09
-1.59558e-07
3.25789e-08
-1.74212e-07
2.34832e-08
-2.11489e-07
-1.77541e-08
-3.53813e-08
2.92631e-08
-1.22964e-07
-1.57411e-08
-9.60279e-08
-8.33763e-09
-1.13186e-07
3.49352e-09
-9.8725e-08
-3.06722e-09
-7.5825e-08
-3.85665e-09
-7.6784e-08
-5.68291e-10
-1.0535e-07
5.49501e-09
-2.16886e-08
1.41528e-08
-1.44237e-07
-5.71183e-08
-1.5669e-07
-2.54771e-08
-1.75785e-07
-6.21834e-09
-1.8835e-07
9.81068e-09
-1.92122e-07
2.39054e-08
-1.87807e-07
2.76185e-08
-1.68418e-07
2.75922e-08
-1.94551e-07
2.39317e-08
-2.01311e-07
3.65435e-09
-1.9754e-07
5.80131e-10
-1.89266e-07
-2.12102e-08
-1.72785e-07
-2.88933e-08
-1.66429e-07
-1.63532e-08
-1.86469e-07
5.56452e-10
-1.18861e-07
-1.13189e-09
-1.49625e-07
2.0536e-08
-9.24936e-08
3.08015e-08
-1.2562e-07
2.04008e-08
-1.7446e-07
1.70469e-08
-2.34544e-07
2.31029e-08
-2.84355e-07
-5.59137e-09
-2.94523e-07
-3.61038e-08
-3.01728e-07
-1.67675e-09
-1.65766e-07
2.15879e-08
-2.65432e-07
-4.9059e-09
-2.3894e-07
-2.9249e-08
-2.3312e-07
-3.2139e-08
-2.31035e-07
-2.86273e-08
-2.21048e-07
-5.04462e-09
-2.00962e-07
2.17104e-08
-1.66799e-07
3.54055e-08
1.88023e-08
-7.65938e-08
-3.18637e-08
-3.63191e-08
-4.31526e-08
-1.58888e-07
1.43416e-08
-1.03794e-07
-6.40361e-09
-1.36897e-07
-1.52779e-08
-1.55292e-07
-1.70244e-09
-1.39319e-07
2.97908e-08
-1.43646e-07
3.12783e-08
-1.40571e-07
2.41901e-08
-1.43381e-07
6.28819e-09
-1.53016e-07
-1.51836e-08
-2.04461e-07
-3.00044e-08
-2.19977e-07
-2.13911e-08
-2.15627e-07
2.32408e-10
-2.13017e-07
5.26606e-09
-2.11533e-07
-7.14333e-09
-1.98284e-07
-2.82509e-08
-1.90212e-07
-2.00436e-08
-1.61101e-07
8.61769e-10
-1.53839e-07
4.12436e-08
-1.74498e-07
3.8917e-08
-1.78525e-07
4.89441e-08
-1.83507e-07
3.43282e-08
-2.03802e-07
1.6257e-08
-1.73367e-07
8.24584e-09
-2.01166e-07
9.81968e-09
-1.85552e-07
1.34493e-08
-1.96015e-07
6.42309e-09
-2.06714e-07
3.65501e-09
-2.01057e-07
-1.31419e-08
-1.87113e-07
-1.04127e-08
-1.72989e-07
1.84543e-08
-1.42786e-07
-6.71942e-09
-1.27305e-07
-3.32351e-08
-1.17262e-07
-3.06304e-08
-1.09219e-07
2.63222e-08
-8.49564e-08
-3.4062e-08
-1.27061e-07
4.43015e-08
-4.61681e-08
7.07584e-08
-4.9371e-08
-1.82736e-10
-1.69507e-07
-3.35717e-08
-1.55501e-07
-8.51076e-09
-1.37491e-07
-4.00169e-09
-1.78943e-07
-1.56667e-08
-1.98271e-07
-6.14937e-09
-1.98858e-07
-5.63167e-09
-2.05475e-07
1.62617e-08
-2.06208e-07
2.46381e-08
-1.93572e-07
1.4983e-08
-1.46971e-07
-1.92051e-08
-1.69032e-07
4.59932e-08
-1.82061e-07
1.66832e-08
-1.79156e-07
-2.32557e-09
-1.7382e-07
-2.65463e-08
-1.68045e-07
-3.46686e-08
-1.99929e-07
1.55306e-08
-2.01151e-07
1.77813e-09
-1.82769e-07
-1.95247e-08
-1.82168e-07
-3.13215e-08
-1.01468e-07
1.14869e-09
-1.14238e-07
3.317e-08
-1.31423e-07
3.28916e-08
-1.85247e-07
2.51163e-08
-2.33623e-07
4.46749e-08
-1.54818e-07
8.92783e-08
-1.66648e-07
1.02585e-08
-8.19286e-08
-6.22955e-08
-1.92598e-07
-4.34945e-08
-1.96244e-07
-2.56021e-08
-2.1495e-07
-1.34337e-08
-2.23473e-07
-2.01037e-08
-2.16301e-07
-1.2215e-08
-1.97005e-07
2.417e-09
-1.73732e-07
1.21349e-08
7.07325e-09
-1.66209e-07
-2.74146e-08
-1.14916e-07
6.02705e-08
-2.72397e-07
-2.84142e-08
-2.11495e-07
-1.67752e-08
-2.45083e-07
1.59879e-08
-2.40732e-07
-6.05429e-09
-2.08742e-07
-2.19953e-09
-1.90718e-07
1.32538e-08
-1.80547e-07
1.40178e-08
-1.92881e-07
1.6654e-08
-2.15122e-07
7.05638e-09
-2.37895e-07
-4.73031e-09
-2.6837e-07
9.08308e-09
-2.74622e-07
6.48613e-09
-2.85444e-07
1.62535e-08
-2.42035e-07
-5.05528e-08
-2.49294e-07
-2.09925e-08
-2.82746e-07
1.34085e-08
-2.50389e-07
-2.89419e-08
-2.60916e-07
5.12527e-08
-2.61571e-07
3.69106e-08
-2.25691e-07
1.30632e-08
-1.86591e-07
-4.77174e-09
-1.84346e-07
1.40119e-08
-1.75105e-07
-9.95711e-10
-1.60125e-07
-5.16032e-09
-1.40564e-07
-6.11204e-09
-1.47706e-07
1.35648e-08
-1.53967e-07
9.91587e-09
-1.51213e-07
-1.58957e-08
-1.37686e-07
-2.39402e-08
-1.29354e-07
1.0123e-08
-1.22914e-07
-1.316e-08
-1.54101e-07
-2.04801e-09
-7.40464e-08
4.32102e-08
-1.79196e-07
-2.16648e-08
-4.75747e-08
-1.28125e-08
-1.67016e-07
-3.99581e-08
-8.13782e-08
3.54454e-08
-1.02662e-07
2.11011e-08
-1.6006e-07
2.38259e-08
-1.77132e-07
8.56166e-09
-1.82756e-07
1.6217e-09
-1.83887e-07
-1.45354e-08
-1.73445e-07
-1.65915e-08
-1.58691e-07
-1.87671e-08
-1.23607e-07
-1.88219e-08
-9.47444e-08
-5.48585e-09
-7.55035e-08
-5.02835e-09
3.06459e-08
2.93634e-08
-1.30757e-07
2.89719e-09
-1.00579e-07
3.75518e-08
-9.82753e-08
-4.62966e-09
-1.07649e-07
-1.71729e-08
-1.34748e-07
-7.56985e-09
-1.55516e-07
3.62991e-08
-1.7087e-07
1.71318e-08
-2.00425e-07
1.00301e-08
-2.13856e-07
-1.789e-08
-1.87723e-07
-2.49846e-08
-1.56431e-07
1.87814e-09
-1.67555e-07
4.40161e-08
-1.91803e-07
4.91079e-08
-2.00915e-07
5.37874e-08
-1.61906e-07
4.86174e-08
-1.85685e-07
-1.77171e-08
-1.08504e-07
6.77121e-08
-2.47935e-07
-5.30558e-08
-2.63093e-07
-1.04437e-08
-2.53112e-07
-2.3414e-08
-2.32144e-07
-4.10712e-08
-2.11003e-07
-3.33553e-08
-1.94465e-07
-1.41182e-08
-1.7579e-07
-6.53719e-09
3.82925e-10
-1.49726e-07
-1.95497e-08
-2.4363e-07
-5.06282e-08
-2.66628e-07
-5.41685e-09
-1.39454e-07
6.14866e-08
-2.44738e-07
-3.0322e-08
-2.21713e-07
-3.15768e-08
-2.0337e-07
-2.05433e-08
-1.95527e-07
5.41048e-09
-1.85428e-07
3.91816e-09
-1.77688e-07
8.91335e-09
-1.77089e-07
6.38496e-09
-1.91637e-07
9.81696e-09
-2.06641e-07
2.40866e-08
-2.31677e-07
2.91583e-08
-2.60567e-07
-6.43045e-09
-1.68406e-07
6.41305e-08
-1.87052e-07
-2.34647e-09
-3.07975e-07
-6.98556e-08
-1.69267e-07
3.82633e-08
-2.55138e-07
-1.39529e-08
-2.12868e-07
-7.96273e-09
-1.66471e-07
-3.33342e-08
-1.46975e-07
-2.42676e-08
-1.76075e-07
-7.93444e-09
-1.17886e-07
-8.05682e-09
-1.11015e-07
-1.20313e-08
-8.39848e-08
-3.3484e-08
-1.18021e-07
4.76013e-08
-1.43163e-07
-1.59896e-08
-1.23071e-07
-3.59872e-08
-8.78652e-08
-8.09965e-09
-9.15201e-08
1.37779e-08
-1.08377e-07
3.69735e-09
-1.16479e-07
6.05387e-09
-1.06889e-07
-1.74265e-08
-1.26592e-07
-2.18292e-09
-1.19075e-07
3.08473e-08
-1.67773e-07
8.74039e-09
-1.59493e-07
2.71653e-08
-1.74701e-07
3.63096e-08
-1.80192e-07
2.93169e-08
-1.80998e-07
9.3673e-09
-1.74542e-07
-4.83472e-09
-1.70284e-07
-1.87927e-08
-1.59741e-07
-2.71352e-08
-1.52612e-07
-2.58957e-08
-1.46484e-07
-2.51426e-08
-1.59606e-07
7.63634e-09
-1.65578e-07
9.43184e-10
-1.41832e-07
5.31776e-09
-1.44497e-07
5.56238e-09
-1.20869e-07
1.39239e-08
-1.20982e-07
-4.51666e-09
-1.37746e-07
-4.09557e-10
-1.59789e-07
1.44733e-08
-1.6375e-07
4.02601e-08
-1.72112e-07
2.54933e-08
-1.71558e-07
9.47584e-09
-1.89102e-07
-3.49217e-10
-1.62001e-07
-5.20854e-08
-1.23473e-07
-3.62794e-08
-1.19402e-07
3.99445e-08
-1.3781e-07
6.75165e-08
-1.43373e-07
5.935e-08
-1.51955e-07
5.56499e-08
-7.39676e-08
5.91968e-08
-1.90532e-07
-1.72106e-08
-2.15837e-07
2.44248e-08
-2.42111e-07
1.58306e-08
-2.23876e-07
-4.16489e-08
-2.03516e-07
-6.14307e-08
-1.9153e-07
-4.53395e-08
-1.83025e-07
-2.26204e-08
-1.7315e-07
-1.64094e-08
-2.79511e-09
-1.40108e-07
-1.65867e-08
-1.94042e-07
3.27038e-09
-1.78502e-07
-2.09587e-08
-1.15927e-07
-1.08955e-09
-1.45787e-07
-7.72053e-10
-1.64042e-07
-1.33224e-08
-1.70951e-07
-1.3635e-08
-1.66454e-07
9.12702e-10
-1.64818e-07
2.28127e-09
-1.56965e-07
1.05976e-09
-1.52341e-07
1.76059e-09
-1.60492e-07
1.79676e-08
-1.56728e-07
2.03224e-08
-1.4786e-07
2.02892e-08
-1.53858e-07
-3.66966e-10
-1.17373e-07
2.76448e-08
-9.90268e-08
-2.06929e-08
-1.39056e-07
-2.98265e-08
-9.54341e-08
-5.35932e-09
-1.10928e-07
1.39787e-09
-1.00529e-07
-1.83619e-08
-1.14386e-07
-1.94773e-08
-1.22441e-07
-1.62123e-08
-1.51599e-07
-2.82773e-08
-9.97869e-08
-9.33791e-09
-1.16067e-07
2.04614e-09
-3.79601e-09
8.96335e-09
-9.32221e-08
-1.60737e-08
-1.43066e-07
3.38545e-08
-1.87718e-07
8.66468e-09
-1.65916e-07
-3.02104e-08
-1.75712e-07
2.35745e-08
-1.44668e-07
-2.73473e-08
-1.32294e-07
-6.3194e-09
-1.18679e-07
-3.10415e-08
-1.41943e-07
2.10804e-08
-1.2548e-07
1.42391e-08
-1.43207e-07
2.64679e-08
-1.46981e-07
3.09387e-08
-1.42714e-07
3.20425e-08
-1.33849e-07
2.0452e-08
-1.34365e-07
9.88349e-09
-1.4418e-07
4.98018e-09
-1.62794e-07
-1.78077e-10
-1.71414e-07
-1.85154e-08
-1.54278e-07
-4.34755e-08
-1.75333e-07
-4.08828e-09
-2.23392e-07
5.56953e-08
-2.18104e-07
-4.34479e-09
-1.7023e-07
-4.21267e-08
-1.50304e-07
-1.43633e-08
-1.48026e-07
1.1646e-08
-1.56806e-07
4.26255e-09
-1.61852e-07
4.63613e-09
-1.39692e-07
-7.68682e-09
-1.64939e-07
6.55079e-08
-1.55689e-07
1.62428e-08
-1.56536e-07
8.72646e-09
-2.0356e-07
-4.89843e-09
-2.41905e-07
-9.29032e-09
-2.31836e-07
4.14064e-09
-2.11051e-07
1.67945e-08
-1.78027e-07
3.44929e-08
-1.7036e-07
5.16835e-08
-1.55027e-07
4.03166e-08
-1.41049e-07
4.46154e-08
-1.80579e-07
2.20943e-08
-1.4764e-07
-6.82772e-09
-1.56124e-07
2.57912e-08
-1.45418e-07
-5.23542e-08
-1.50272e-07
-5.65758e-08
-1.66492e-07
-2.91179e-08
-1.72398e-07
-1.6712e-08
-1.72295e-07
-1.65098e-08
-2.72747e-09
-1.36446e-07
8.50734e-08
-2.54752e-07
-3.00187e-08
-2.42109e-07
-3.62023e-08
-2.07924e-07
-3.52757e-08
-1.97326e-07
-1.1371e-08
-2.09042e-07
-1.60648e-09
-2.14549e-07
-8.12884e-09
-2.04831e-07
-8.80577e-09
-2.03592e-07
1.04132e-09
-1.93273e-07
-9.25932e-09
-1.87303e-07
-4.21008e-09
-1.79891e-07
1.05548e-08
-1.78993e-07
1.9424e-08
-1.76955e-07
1.82506e-08
-1.74077e-07
-3.24527e-09
-1.27976e-07
-1.84565e-08
-1.36152e-07
-1.25182e-08
-1.59569e-07
-6.40983e-09
-1.57907e-07
-7.02161e-09
-1.50283e-07
-6.22578e-09
-1.5475e-07
-1.38959e-08
-1.66932e-07
-7.29488e-09
-1.74295e-07
-8.84956e-09
-1.68499e-07
-3.40742e-08
-1.28148e-07
-5.02978e-08
-1.5731e-07
3.12088e-08
-1.44456e-07
-3.98242e-09
-1.26132e-07
-3.43981e-08
-1.71968e-07
7.96908e-08
-2.16167e-07
5.06581e-08
-1.40181e-07
4.85213e-08
-2.63604e-07
-5.57581e-08
-2.39e-07
-9.05366e-10
-2.61875e-07
-3.44905e-08
-2.39308e-07
-2.5621e-09
-2.54212e-07
-1.24683e-08
-2.17848e-07
2.8406e-08
-2.04838e-07
1.12354e-08
-1.84854e-07
1.08443e-08
-1.58223e-07
5.41056e-09
-1.41442e-07
3.67092e-09
-1.58424e-07
2.68663e-08
-1.85768e-07
3.23239e-08
-2.02502e-07
1.65559e-08
-2.15857e-07
-7.36329e-09
-1.05075e-07
4.65986e-10
-1.4472e-07
3.66286e-08
-2.36701e-07
-5.65107e-08
-2.17721e-07
-2.11034e-08
-1.88718e-07
-2.05991e-08
-1.75522e-07
-2.94842e-08
-1.93805e-07
2.96264e-08
-1.91293e-07
1.75028e-09
-1.87477e-07
8.20398e-10
-6.25535e-08
2.05289e-08
-1.48121e-07
-5.31106e-08
-1.25178e-07
-6.70067e-09
-1.10606e-07
4.52016e-08
-1.46156e-07
2.92097e-08
-2.25815e-07
2.11242e-08
-2.03391e-07
3.45696e-08
-2.00613e-07
1.19421e-08
-1.79461e-07
1.33404e-08
-1.57344e-07
2.9567e-08
-1.33524e-07
1.64974e-08
-1.25824e-07
3.81997e-08
-1.51167e-07
4.59105e-08
-3.70709e-08
3.26191e-08
-9.49759e-08
-6.56396e-08
-1.05012e-07
-4.23179e-08
-1.30745e-07
-3.08417e-08
-1.48324e-07
-1.1537e-08
-1.57262e-07
-7.77139e-09
-1.65209e-07
-8.56091e-09
-4.55038e-10
-1.28593e-07
3.65344e-08
-1.58439e-07
-4.80621e-10
-1.80714e-07
-1.39279e-08
-1.87659e-07
-2.83323e-08
-1.73556e-07
-2.5475e-08
-1.62688e-07
-1.24747e-08
-1.67126e-07
-3.69133e-09
-2.00712e-07
2.47793e-08
-2.21039e-07
2.13673e-08
-2.06907e-07
-2.33916e-08
-1.86057e-07
-2.50605e-08
-1.59652e-07
-1.58511e-08
-1.45365e-07
5.13642e-09
-1.63761e-07
-1.44003e-08
-1.23621e-07
7.66147e-09
-1.04496e-07
-3.75828e-08
-9.87804e-08
-1.82337e-08
-1.25196e-07
2.00053e-08
-1.50441e-07
1.82228e-08
-1.46911e-07
-9.75576e-09
-1.59002e-07
-1.80492e-09
-1.65939e-07
-3.58376e-10
-1.49971e-07
-2.50732e-08
-1.87631e-07
1.67063e-09
-7.77384e-08
-5.47224e-09
-2.11773e-07
-3.81503e-08
-2.43829e-07
2.80736e-08
-1.3468e-07
6.06395e-08
-2.28308e-07
-3.08674e-08
-1.60664e-07
-1.69859e-08
-1.81748e-07
6.911e-08
-2.03546e-07
1.70865e-08
-2.2637e-07
2.19186e-08
-2.90804e-07
2.99432e-08
-3.12304e-07
1.89381e-08
-3.42984e-07
1.8211e-08
-3.22004e-07
7.71603e-09
-3.00294e-07
-7.41152e-09
-2.5069e-07
-3.83721e-08
-2.34634e-07
-1.32024e-08
-2.13393e-07
-1.75702e-08
-2.02207e-07
1.56802e-08
-1.94368e-07
2.44843e-08
-1.93031e-07
1.52188e-08
-2.04789e-07
2.30608e-09
-8.23786e-08
3.27686e-08
-2.09485e-07
-4.00189e-08
-2.55739e-07
4.07892e-08
-2.82668e-07
5.82614e-09
-2.9753e-07
-5.94811e-09
-1.84856e-07
1.28679e-08
-2.78453e-07
-2.83701e-08
-2.13785e-07
-6.57588e-08
-2.16123e-07
3.12671e-09
-1.77869e-07
-1.77246e-08
-1.88553e-07
-4.24271e-08
-1.79095e-07
-1.61587e-08
-1.6244e-07
2.85469e-08
-1.71431e-07
3.81999e-08
-1.86311e-07
3.57895e-08
-1.98144e-07
4.67546e-08
-1.58093e-07
-2.81082e-08
-1.72047e-07
2.7019e-08
-1.61874e-07
1.93944e-08
-1.50193e-07
4.86598e-09
-1.45154e-07
3.31614e-08
-1.49358e-07
-4.6381e-10
-1.54943e-07
3.94529e-08
-1.50875e-07
-1.81325e-08
-1.63693e-07
-2.94993e-08
-1.80754e-07
-1.37796e-08
-1.75418e-07
-1.68711e-08
-1.70723e-07
-1.24641e-08
-1.70784e-07
-8.49741e-09
-2.18113e-09
-1.28697e-07
2.47115e-08
-1.06963e-07
-2.22159e-08
-1.02782e-07
-1.81105e-08
-1.09539e-07
-2.15761e-08
-1.055e-07
-2.95143e-08
-1.35922e-07
-3.31e-08
-1.1726e-07
2.8692e-08
-1.27979e-07
3.54979e-08
-1.28911e-07
2.22982e-08
-1.60891e-07
8.58832e-09
-1.85674e-07
-2.7773e-10
-1.84432e-07
-1.70934e-08
-1.3944e-07
-3.98569e-08
-1.30622e-07
-2.32179e-08
-1.55352e-07
3.23902e-08
-2.01752e-07
8.72853e-09
-2.0321e-07
-1.67765e-08
-1.83764e-07
5.59149e-10
-1.87766e-07
2.22239e-08
-1.72359e-07
-2.54222e-08
-1.98108e-07
2.39436e-08
-2.23572e-07
2.28248e-08
-1.27366e-07
3.3439e-08
-2.60506e-07
-6.80766e-08
-2.32855e-07
1.79787e-08
-2.6879e-07
-2.23834e-09
-3.03557e-07
6.28411e-08
-2.81333e-07
3.84151e-08
-3.28418e-07
1.62177e-08
-1.81557e-07
-1.07082e-08
-2.83821e-07
-3.28117e-08
-2.22882e-07
7.19363e-09
-2.17388e-07
1.64249e-08
-2.61954e-07
7.45086e-08
-2.38064e-07
-4.95136e-09
-2.63256e-07
4.29647e-08
-2.42325e-07
-1.32155e-08
-2.31394e-07
-6.70284e-08
-1.80951e-07
-3.86711e-08
-1.71351e-07
-2.46481e-08
-1.56051e-07
-3.32093e-08
-1.71401e-07
3.07164e-08
-1.60192e-07
1.32757e-08
-1.67526e-07
2.2552e-08
-1.84813e-07
1.95931e-08
-1.8414e-07
2.98826e-08
-9.75361e-08
2.80956e-08
-2.29033e-07
2.01409e-08
-2.43668e-07
2.04615e-08
-2.6303e-07
1.34143e-08
-2.4648e-07
-3.68277e-09
-2.8769e-07
-3.84957e-08
-1.53882e-07
6.18928e-09
-2.3828e-07
-6.40689e-08
-2.20222e-07
-3.82129e-08
-2.31326e-07
-3.1324e-08
-2.33514e-07
-1.397e-08
-1.96323e-07
-8.64429e-09
-1.77981e-07
1.98577e-08
-1.60298e-07
1.81068e-08
-2.00925e-07
3.63347e-08
-2.4945e-08
3.52828e-10
-1.31455e-07
-1.78836e-08
-1.15615e-07
1.03412e-09
-2.10879e-08
6.50573e-08
-3.08255e-08
4.31147e-08
-4.09591e-08
9.67027e-09
-1.79844e-07
-2.40129e-08
-1.12476e-07
-3.40168e-08
-1.11041e-07
-3.09338e-08
-1.24169e-07
-6.50749e-10
-1.40164e-07
-8.74228e-10
-1.49352e-07
-3.27385e-09
-1.59965e-07
2.11827e-09
1.05308e-12
-1.09437e-07
8.71981e-09
-1.38749e-07
7.09477e-09
-1.4783e-07
-9.03108e-09
-1.47806e-07
-2.16011e-08
-1.23816e-07
-5.40563e-08
-1.43858e-07
-1.30588e-08
-1.64795e-07
4.9127e-08
-1.53457e-07
2.41593e-08
-1.53211e-07
2.20518e-08
-1.74618e-07
2.9995e-08
-1.77095e-07
2.19854e-09
-1.75536e-07
-6.96992e-08
-1.59594e-07
-5.57992e-08
-1.12977e-07
-1.8789e-08
-1.11395e-07
3.19447e-08
-1.21696e-07
1.9029e-08
-1.20124e-07
-1.95905e-08
-9.20895e-08
-2.74758e-08
-7.64231e-08
5.77755e-09
3.91453e-08
1.37271e-08
-1.22346e-07
3.18955e-08
-1.31185e-07
3.16637e-08
-1.30447e-07
3.23597e-08
-2.05596e-07
7.07171e-09
-2.29467e-07
3.95089e-08
-1.54474e-07
7.74865e-08
-2.58114e-07
1.49172e-08
-2.56042e-07
3.63433e-08
-3.01724e-07
1.08525e-08
-1.72729e-07
6.44829e-08
-2.06525e-07
9.84523e-10
-1.88992e-07
-1.03394e-08
-1.73195e-07
6.27743e-10
-2.92711e-07
-1.0162e-08
-1.4816e-07
5.61957e-08
-2.23173e-07
-3.36157e-08
-1.85296e-07
-5.33695e-08
-1.77928e-07
-7.43964e-08
-1.74208e-07
-4.3226e-08
-1.69579e-07
-3.06946e-08
-9.10858e-08
4.39547e-08
-2.11186e-07
1.43092e-10
-2.11732e-07
1.1667e-08
-1.9644e-07
7.26044e-09
-1.84065e-07
7.21757e-09
-1.69096e-07
1.4914e-08
-1.93949e-08
3.12472e-08
-1.41294e-07
-1.11e-08
-1.32417e-07
1.15846e-08
-1.3579e-07
1.67872e-08
-1.31457e-07
-8.0158e-09
-1.54896e-07
-1.50572e-08
-1.29467e-07
-1.92398e-08
-1.54647e-07
-3.95425e-08
-1.55915e-07
-3.69449e-08
-1.6998e-07
-1.72589e-08
-1.8136e-07
-2.58924e-09
-1.69949e-07
-2.00558e-08
-1.29972e-07
-2.01188e-08
-1.13312e-07
1.44628e-09
-1.55071e-07
2.70474e-08
-3.92714e-09
5.34355e-08
-1.29815e-07
-4.33321e-08
-1.11763e-07
-1.83417e-08
-4.31067e-08
-4.26225e-09
-5.40958e-09
5.41796e-09
-3.32998e-09
7.59113e-09
-7.47238e-08
4.78698e-08
-1.01254e-07
-6.73119e-09
-1.26288e-07
-4.88757e-09
-1.38575e-07
1.1637e-08
-1.57513e-07
1.80656e-08
-1.67577e-07
6.79266e-09
-1.70108e-07
4.65244e-09
7.01452e-10
-1.36277e-07
1.45391e-08
-1.6678e-07
3.75956e-08
-1.94968e-07
1.91555e-08
-2.18533e-07
-2.66257e-10
-1.61696e-07
4.38243e-08
-1.90617e-07
1.94557e-08
-2.82365e-07
-1.07184e-08
-2.57372e-07
-3.71549e-09
-2.32717e-07
-2.60348e-09
-2.09601e-07
6.87904e-09
-1.78853e-07
-2.85505e-08
-1.93448e-07
-5.51049e-08
-2.03228e-07
-4.6019e-08
-1.80751e-07
-4.12671e-08
-1.54306e-07
5.49923e-09
-1.39716e-07
4.63343e-09
-1.55246e-07
-4.06086e-09
-1.5167e-07
-3.10528e-08
-1.42606e-07
-5.43331e-08
-4.29869e-09
7.94659e-08
-1.45712e-07
2.01687e-08
-1.36253e-07
2.22046e-08
-1.25173e-07
2.12793e-08
-1.58227e-07
3.97207e-08
-1.73167e-07
5.38989e-08
-1.81732e-07
8.52602e-08
-2.13255e-07
4.64404e-08
-1.96789e-07
1.98774e-08
-2.03645e-07
1.77076e-08
-1.53664e-07
1.45023e-08
-1.62699e-07
1.00194e-08
-1.49086e-07
-2.37107e-08
-1.61718e-07
1.32601e-08
-1.87479e-07
1.55985e-08
-1.56733e-07
2.54496e-08
-1.53919e-07
-3.7151e-08
-1.68064e-07
-3.92248e-08
-1.73368e-07
-7.15916e-08
-2.46087e-07
-1.93437e-08
-2.24091e-07
3.25433e-10
-2.11494e-07
2.86228e-08
-2.31586e-07
2.02365e-08
-2.29958e-07
1.00389e-08
-2.07133e-07
-1.55647e-08
-1.70204e-07
-2.97117e-08
-1.37914e-07
-1.73755e-08
-1.03394e-07
-3.27352e-09
-1.11898e-07
-2.59608e-09
-1.24595e-07
2.42819e-08
-1.34598e-07
2.67905e-08
-1.67138e-07
2.45243e-08
-1.79994e-07
-2.20211e-09
-1.77545e-07
-2.16886e-08
-1.86385e-07
-3.07023e-08
-1.90847e-07
-3.2483e-08
-1.84555e-07
-2.35504e-08
-1.75156e-07
-1.19885e-08
-1.80197e-07
-1.50151e-08
-1.87471e-07
-1.28443e-08
-1.73722e-07
-1.23032e-08
-1.47947e-07
1.27267e-09
-1.06773e-07
-3.80844e-08
-7.66203e-08
-2.33911e-08
-1.02754e-07
7.01015e-09
-7.67292e-08
-3.02864e-08
-6.42674e-08
-7.04345e-09
-5.52423e-08
-1.99707e-09
-1.044e-07
4.65313e-08
-1.31804e-07
7.28543e-08
-1.55447e-07
1.87553e-08
-1.52697e-07
8.88825e-09
-1.52232e-07
1.76022e-08
-1.57937e-07
1.25007e-08
-1.61322e-07
8.03926e-09
2.37412e-09
-2.12288e-07
5.63214e-09
-1.83985e-07
9.29155e-09
-1.54866e-07
-9.96467e-09
-1.42781e-07
-1.23529e-08
-1.25214e-07
2.58092e-08
-1.33063e-07
2.73044e-08
-1.58029e-07
1.41376e-08
-1.72995e-07
1.12499e-08
-1.88194e-07
1.25951e-08
-1.81643e-07
3.27361e-10
-1.58038e-07
-5.26932e-08
-1.86717e-07
-2.6426e-08
-2.26966e-07
-5.71275e-09
-2.06296e-07
-6.25758e-08
-2.03139e-07
2.34155e-09
-1.77588e-07
-2.09174e-08
-1.77622e-07
-4.02754e-09
-1.82076e-07
-2.65991e-08
-8.11948e-08
-2.07461e-09
-1.19142e-07
-3.57268e-08
-1.01341e-07
2.36689e-09
-9.17932e-08
1.2657e-08
-1.23885e-07
5.40827e-08
-1.38197e-07
5.59942e-08
-1.7185e-07
8.70347e-08
-1.92033e-07
1.03689e-07
-2.01144e-07
5.55518e-08
-2.02706e-07
2.14392e-08
-1.95865e-07
1.07568e-08
-1.66598e-07
-1.47654e-08
-1.68265e-07
-3.76435e-08
-1.11892e-07
-2.9553e-08
-1.08153e-07
8.37993e-09
-1.17347e-07
2.47921e-08
-9.09915e-08
-1.85296e-09
-3.10698e-09
2.96826e-08
-1.35383e-07
-6.14374e-08
-4.90895e-08
-2.66151e-09
-2.01285e-07
-1.80505e-08
-2.15493e-07
1.24832e-08
-2.02889e-07
1.60186e-08
-1.76056e-07
-6.59677e-09
-1.45967e-07
-2.00501e-08
-1.38822e-07
-2.27093e-08
-1.47457e-07
-2.10771e-08
-1.5438e-07
-1.04526e-08
-1.49137e-07
-8.51599e-09
-1.52255e-07
5.21386e-10
-1.57265e-07
2.92924e-08
-1.70596e-07
4.01211e-08
-1.86084e-07
4.00116e-08
-1.91542e-07
3.25627e-09
-1.72291e-07
-4.09393e-08
-1.62569e-07
-4.04242e-08
-1.60518e-07
-3.45341e-08
-1.73884e-07
-1.01845e-08
-1.81511e-07
-4.36176e-09
-1.84663e-07
-1.18624e-08
-2.06785e-07
9.27714e-09
-9.4579e-08
2.86309e-08
-9.05945e-08
-3.63605e-09
-2.1218e-08
4.67752e-08
-2.64882e-08
-1.81429e-08
-1.72195e-07
-5.14693e-08
-1.16589e-07
-3.48458e-08
-1.15922e-07
-7.70981e-09
-1.30104e-07
1.21853e-08
-1.32976e-07
5.02859e-08
-1.44079e-07
8.52872e-08
-1.68004e-07
4.26807e-08
-1.76577e-07
1.74623e-08
-1.73108e-07
1.41344e-08
-1.71654e-07
1.10492e-08
-1.71307e-07
7.69565e-09
1.45024e-09
-1.70137e-07
2.53879e-08
-1.67179e-07
6.33235e-09
-1.79669e-07
2.52417e-09
-1.94666e-07
2.64344e-09
-1.81695e-07
1.28374e-08
-1.60454e-07
6.06249e-09
-1.40575e-07
-5.74161e-09
-1.51702e-07
2.23764e-08
-1.81269e-07
4.21619e-08
-2.21467e-07
3.82653e-08
-1.62162e-07
4.2719e-08
-1.76129e-07
-9.00791e-09
-2.8924e-07
-4.71159e-08
-1.77456e-07
-2.26234e-08
-2.88199e-07
-8.92921e-08
-2.6128e-07
3.20992e-09
-2.64357e-07
-9.60926e-10
-2.15565e-07
7.69632e-08
-2.06467e-07
-1.1173e-08
-2.06169e-07
-3.60245e-08
-1.84019e-07
-1.97832e-08
-1.57768e-07
-1.19852e-08
-2.57136e-07
-7.39414e-10
-2.18855e-07
1.33835e-08
-1.88903e-07
6.02355e-08
-1.80378e-07
9.61114e-08
-1.69727e-07
4.49005e-08
-1.54052e-07
7.3358e-09
-1.18752e-07
-2.45434e-08
-7.86062e-08
-5.67014e-08
-8.00923e-08
-3.61575e-08
-6.06678e-08
-4.92791e-08
-3.17343e-08
-2.05536e-08
-6.27251e-08
5.5143e-08
3.64181e-08
5.37218e-08
-6.52559e-08
-2.24576e-08
-1.44874e-07
1.81809e-08
-1.63955e-07
1.64466e-08
-2.108e-07
2.86103e-08
-2.41552e-07
4.32346e-08
-1.86277e-07
-3.92561e-08
-1.64052e-07
-2.88222e-08
-1.41557e-07
-4.2545e-08
-1.54151e-07
-1.01149e-08
-1.75297e-07
6.8626e-11
-1.82628e-07
-3.12158e-09
-1.90241e-07
-9.03688e-10
-2.0477e-07
1.50505e-08
-1.94028e-07
1.85509e-08
-1.43569e-07
-1.03378e-08
-1.17897e-07
1.41942e-08
-1.09897e-07
-4.79279e-09
-1.23503e-07
-2.73324e-08
-1.52378e-07
-1.155e-08
-1.90441e-07
3.52924e-09
-2.20916e-07
2.02911e-08
-2.22522e-07
-2.756e-09
-2.12862e-07
-2.15225e-08
-1.86051e-07
-1.75335e-08
-1.38708e-07
-1.87119e-08
-9.08095e-08
-5.11301e-08
-1.91631e-07
-4.46877e-09
-1.74072e-07
-3.76564e-08
-1.76956e-07
-4.85856e-08
-1.78824e-07
-3.29774e-08
-1.63007e-07
-2.35268e-08
-1.65035e-07
1.40708e-08
-1.56579e-07
4.3428e-08
-1.3778e-07
6.80542e-08
-1.42886e-07
4.77865e-08
-1.49887e-07
2.44639e-08
-1.53226e-07
1.74758e-08
-1.5768e-07
1.55055e-08
-1.63108e-07
1.31261e-08
3.07383e-09
-1.49337e-07
4.46082e-08
-1.85108e-07
4.21017e-08
-2.22573e-07
3.99878e-08
-2.15568e-07
-4.40724e-09
-2.28765e-07
2.57713e-08
-2.11076e-07
-1.16279e-08
-2.0095e-07
-1.5868e-08
-1.89239e-07
1.06647e-08
-1.80065e-07
3.29878e-08
-1.68047e-07
2.62468e-08
-1.4254e-07
1.67762e-08
-1.45727e-07
-5.82162e-09
-1.67194e-07
-2.61297e-08
-1.54908e-07
-3.46797e-08
-1.88373e-07
-5.58272e-08
-1.89274e-07
2.18006e-09
-9.62845e-08
6.17595e-08
-1.62478e-07
-7.46465e-09
-1.58588e-07
-1.67203e-08
-1.68659e-07
-2.59543e-08
-1.73852e-07
-1.45905e-08
-1.88651e-07
2.81377e-09
-2.06205e-07
1.68068e-08
-1.01267e-07
6.14484e-08
-7.25297e-08
3.13042e-08
-1.15143e-07
-1.28687e-08
-9.11643e-08
1.97471e-08
-1.10579e-07
2.70259e-08
-1.13413e-07
-2.31171e-08
-1.01851e-08
-5.21098e-09
-1.4817e-07
-5.12086e-08
-1.98241e-07
-5.02542e-08
-1.40154e-07
-2.7595e-08
-9.78725e-08
1.28618e-08
-6.06536e-08
1.59548e-08
-1.136e-07
3.04887e-08
-1.58647e-07
1.20585e-08
-1.32309e-07
4.11546e-08
-1.29345e-07
2.56467e-08
-1.4169e-07
5.55798e-08
-1.49999e-09
-2.65781e-08
-1.76228e-07
-5.82803e-08
-1.19704e-07
-4.8023e-08
-1.33394e-07
3.57485e-09
-1.5642e-07
2.30951e-08
-1.6976e-07
1.02178e-08
-1.87462e-07
1.67987e-08
-2.02339e-07
2.99274e-08
-2.03622e-07
1.98343e-08
-6.93957e-08
9.28309e-09
-1.32351e-07
-7.57807e-08
-1.23072e-07
-6.70082e-08
-8.08481e-08
-1.72541e-08
-1.16246e-07
2.38481e-08
-1.6752e-07
5.48028e-08
-1.81624e-07
3.43959e-08
-1.72738e-07
-1.1642e-08
-1.61034e-07
-3.32265e-08
-1.21714e-07
-5.74393e-08
-1.4174e-07
-1.32409e-10
-7.4932e-08
3.67803e-08
-2.85703e-07
2.83496e-09
-2.44788e-07
-2.75245e-08
-2.70932e-07
-2.24412e-08
-3.00693e-07
-3.21598e-09
-3.06062e-07
-1.50349e-08
-2.54824e-07
-3.71674e-08
-2.54251e-07
4.24171e-08
-2.17163e-07
3.3509e-08
-1.94788e-07
2.54121e-08
-1.87768e-07
1.74446e-08
-1.84554e-07
1.42628e-08
-1.80146e-07
1.11001e-08
-1.74368e-07
7.35083e-09
1.15526e-09
-1.12757e-07
4.13897e-08
-1.38067e-07
6.62601e-08
-1.76791e-07
7.69066e-08
-1.00081e-07
7.46322e-08
-2.04623e-07
-2.02698e-08
-2.06697e-07
-1.16427e-08
-2.19828e-07
-2.73732e-09
-2.18718e-07
9.55477e-09
-1.92938e-07
7.20655e-09
-1.58628e-07
-8.06345e-09
-1.40312e-07
-1.53989e-09
-1.55572e-07
9.43774e-09
-1.80465e-07
-1.2373e-09
-1.99657e-07
-1.54872e-08
-2.17328e-07
-3.81567e-08
-1.80748e-07
-3.44009e-08
-1.10931e-07
-8.688e-09
-1.10737e-07
-7.7346e-09
-1.30466e-07
3.0083e-09
-1.37249e-07
-1.91718e-08
-1.1642e-07
-3.5784e-08
-1.4672e-07
3.27789e-08
-1.52865e-07
2.29516e-08
-1.16254e-07
2.6023e-08
-9.12361e-08
6.286e-09
-9.27614e-08
-1.24056e-08
-7.94207e-08
5.59608e-09
-1.24739e-07
2.0771e-08
-1.34602e-07
3.90651e-08
-1.48486e-07
8.72666e-09
-1.89863e-07
-9.83209e-09
-2.14262e-07
-2.58549e-08
-2.19747e-07
-2.211e-08
-1.91522e-07
-1.53637e-08
-1.66411e-07
-9.15599e-09
-1.56254e-07
-2.91213e-08
-1.43354e-07
4.91929e-08
-1.05492e-07
1.83038e-09
-6.91522e-08
-1.06935e-08
-5.84537e-08
4.42849e-08
3.38332e-08
3.62264e-08
-1.36427e-07
-4.15054e-08
-1.45277e-07
-3.91725e-08
-1.53417e-07
1.17148e-08
-1.81336e-07
5.10136e-08