/*--------------------------------*- C++ -*----------------------------------*\
  =========                 |
  \\      /  F ield         | OpenFOAM: The Open Source CFD Toolbox
   \\    /   O peration     | Website:  https://openfoam.org
    \\  /    A nd           | Version:  12
     \\/     M anipulation  |
\*---------------------------------------------------------------------------*/
FoamFile
{
    format      ascii;
    class       surfaceScalarField;
    location    "0.15";
    object      phi.water_0;
}
// * * * * * * * * * * * * * * * * * * * * * * * * * * * * * * * * * * * * * //

dimensions      [0 3 -1 0 0 0 0];

internalField   nonuniform List<scalar> 
7375
(
1.38552e-07
1.20476e-08
1.20301e-07
1.82613e-08
1.036e-07
1.56621e-08
1.22685e-07
-1.90851e-08
1.68415e-07
-4.45481e-08
1.86972e-07
-1.85305e-08
1.78625e-07
1.01557e-08
1.65099e-07
1.34266e-08
1.65596e-07
-2.15737e-09
1.16228e-07
-2.88754e-09
1.63463e-07
3.29717e-09
1.79685e-07
-1.46091e-08
2.2023e-07
-4.04686e-08
2.27859e-07
-7.43156e-09
2.19972e-07
8.05117e-09
2.19189e-07
9.15858e-10
2.10551e-07
1.0846e-08
1.66878e-07
4.38897e-08
1.39311e-07
2.57729e-08
1.4236e-07
-3.0351e-09
1.33472e-07
8.90986e-09
9.66274e-08
-1.50793e-08
1.48043e-07
6.1142e-10
1.59195e-07
-9.68227e-09
1.45144e-07
1.24785e-08
1.25263e-07
1.99913e-08
8.65621e-08
3.8821e-08
5.943e-08
2.71352e-08
5.31248e-08
6.22509e-09
6.75538e-08
-1.45357e-08
9.32311e-08
-2.5746e-08
1.4059e-07
-4.78495e-08
1.3787e-07
2.71022e-09
1.88461e-07
-5.05797e-08
1.55652e-07
3.26095e-08
1.36841e-07
1.88625e-08
1.2108e-07
1.70935e-08
5.56869e-08
1.41089e-08
7.93322e-08
2.68507e-08
-1.38495e-08
4.23573e-08
2.5288e-08
1.13941e-08
1.76342e-08
7.92784e-09
3.4529e-08
-1.69632e-08
7.25586e-08
-3.81458e-08
1.12231e-07
-3.97033e-08
1.31945e-07
-1.97363e-08
1.45621e-07
-1.37265e-08
1.45635e-07
-4.09317e-11
1.28962e-07
1.66442e-08
1.26308e-07
2.59623e-09
1.1725e-07
7.92158e-09
1.28645e-07
-1.13954e-08
1.35609e-07
-5.76791e-09
1.70353e-07
-3.48305e-08
1.85726e-07
-1.55274e-08
1.96931e-07
-9.2604e-09
1.93122e-07
4.01998e-09
1.74798e-07
1.63926e-08
1.52712e-07
2.21608e-08
1.094e-07
4.34683e-08
1.04718e-07
4.78071e-09
1.21076e-07
-1.63229e-08
1.42041e-07
-2.09195e-08
1.7522e-07
-3.31264e-08
1.93987e-07
-1.86676e-08
1.59377e-07
3.51245e-08
1.15542e-07
-8.26066e-09
1.537e-07
1.23735e-08
1.59898e-07
-4.71518e-09
1.83079e-07
-2.30466e-08
2.04016e-07
-2.28788e-08
1.95939e-07
6.03689e-09
1.484e-07
4.75401e-08
7.32454e-08
7.51562e-08
4.20962e-08
-8.22292e-08
1.15292e-08
-6.95331e-08
5.56399e-09
-5.5303e-08
1.43147e-09
-4.88815e-08
-2.57017e-08
-3.08359e-08
-6.3239e-08
-3.59606e-08
-1.3406e-08
-9.79653e-08
7.21603e-08
-1.15157e-07
3.04814e-08
-1.27244e-07
9.92883e-09
-1.395e-07
9.36886e-09
-1.03769e-07
-3.24001e-08
-5.69217e-08
-6.14569e-08
-4.06214e-08
-5.67689e-08
-7.09051e-08
-2.81946e-08
-3.17194e-08
1.99121e-08
-1.07572e-08
-2.00466e-08
-5.05636e-09
5.09331e-09
-3.88396e-09
-8.8676e-09
-2.46938e-08
4.65828e-08
-6.71615e-08
9.04791e-08
-7.59983e-08
1.77467e-08
-1.00471e-07
9.39288e-09
-9.53567e-08
-4.49613e-09
-7.62445e-08
-2.86958e-08
-9.79914e-08
3.38799e-08
-7.92692e-08
1.28212e-09
-1.00619e-07
6.01707e-08
-8.06201e-08
7.13645e-09
-7.72412e-08
2.84631e-09
-8.41059e-08
-7.67104e-09
-1.17959e-07
6.90419e-09
-3.52305e-08
2.41397e-08
-2.03912e-07
-3.24347e-08
-2.50639e-08
-2.49861e-08
-1.32947e-07
-1.09895e-08
-1.26211e-07
1.077e-08
-1.29286e-07
2.01686e-08
-1.35659e-07
2.03389e-08
-1.42389e-07
3.35807e-08
-1.24138e-07
2.41065e-08
-1.03036e-07
-9.59224e-09
-8.42774e-08
-1.08306e-08
-8.15768e-08
-1.96636e-08
-7.93084e-08
-4.08309e-08
-6.95618e-08
-4.94499e-08
-6.2554e-08
-2.67443e-08
-7.21391e-08
-4.14133e-09
-9.1702e-08
1.95218e-08
-1.001e-07
2.50424e-08
-1.16424e-07
1.77323e-08
-1.35133e-07
2.66297e-08
-1.44559e-07
-7.07063e-10
-1.91237e-07
-1.01363e-08
-1.81976e-07
6.95513e-09
-1.85097e-07
-1.24069e-08
-1.87059e-07
-7.29877e-09
-1.55413e-07
-2.76664e-08
-1.78986e-07
3.95618e-08
-1.71533e-07
1.48597e-08
-2.27054e-07
5.02586e-08
-1.90693e-07
1.89507e-08
-1.75977e-07
-3.29846e-08
-1.50186e-07
-4.71909e-08
-1.27746e-07
-5.55662e-08
-1.19192e-07
-2.84378e-08
-1.41709e-07
6.06968e-09
-1.4248e-07
4.45486e-08
-1.38399e-07
9.83024e-09
-1.2876e-07
-1.29225e-08
-1.21866e-07
-2.97111e-08
-1.17293e-07
-2.7223e-08
-1.1697e-07
5.71479e-09
-1.11024e-07
4.15948e-08
-1.05203e-07
6.93365e-08
3.98506e-08
-1.0487e-07
-2.49129e-08
-7.97636e-08
-1.95434e-08
-7.89615e-08
6.35201e-10
-1.21052e-07
1.51536e-08
-5.98404e-08
3.02671e-08
-6.00127e-08
-1.26235e-08
-1.68657e-07
-2.33815e-08
-1.53796e-07
1.56203e-08
-1.44661e-07
5.18404e-08
-1.40196e-07
4.90291e-09
-1.44545e-07
-2.80503e-08
-1.27335e-07
-7.94781e-08
-1.47337e-07
-3.67669e-08
-1.82746e-07
7.14089e-09
-1.94968e-07
3.21341e-08
-9.26576e-08
3.17284e-08
-2.06388e-07
-3.48538e-08
-8.36735e-08
2.10088e-08
-6.19847e-08
2.57476e-08
-1.52581e-07
-2.31105e-08
-1.36657e-07
1.82231e-09
-1.34084e-07
5.78661e-08
-1.70758e-07
3.21784e-08
-7.67052e-08
3.11736e-08
-1.83599e-07
-1.2674e-08
-7.37232e-08
4.42325e-08
-2.04257e-07
-1.27295e-08
-1.43136e-07
-2.93836e-09
-1.22145e-07
-1.8144e-08
-1.21778e-07
-8.03856e-09
-1.54167e-07
-1.17526e-08
-1.32609e-07
5.33811e-08
-1.91086e-07
2.60432e-08
-4.81222e-08
-1.43195e-08
-1.27367e-07
-8.34485e-08
-1.3348e-07
1.54259e-08
-1.16904e-07
3.59323e-09
-1.11051e-07
1.44856e-08
-1.23409e-07
4.59391e-08
-1.05829e-07
6.52652e-09
-9.04048e-08
-2.52744e-08
-8.33188e-08
-1.79166e-08
-9.44431e-08
-9.50285e-09
-1.55398e-07
-3.14485e-08
-1.52787e-07
5.71106e-10
-1.80162e-07
6.30653e-10
-1.91128e-07
6.82424e-09
-1.92224e-07
2.06173e-08
-1.91621e-07
2.44399e-08
-1.979e-07
2.40106e-08
-1.91997e-07
2.04557e-08
-2.0104e-07
8.33539e-09
-2.1355e-07
2.37365e-09
-1.91177e-07
-1.54181e-08
-1.74519e-07
-2.90649e-08
-2.03114e-07
-2.97506e-08
-7.88826e-08
5.30933e-08
-1.54344e-07
-3.81291e-08
4.93128e-09
8.71207e-09
-1.36455e-07
3.84549e-08
-1.32317e-07
1.50058e-08
-1.7404e-07
6.96321e-09
-1.97015e-07
-2.44677e-08
-2.46966e-07
-3.60549e-09
-3.11646e-07
3.58761e-08
-3.16676e-07
1.42691e-08
-2.77522e-07
5.3951e-09
-2.54384e-07
-1.35437e-08
-2.33898e-07
-3.08645e-08
-2.31358e-07
-3.22517e-08
-2.30661e-07
-2.79197e-08
-2.21308e-07
-3.63754e-09
-2.01538e-07
2.18263e-08
-1.67477e-07
3.52774e-08
1.87429e-08
-1.18767e-07
-3.93848e-08
-9.88599e-08
-4.04603e-08
-1.15754e-07
-3.43989e-08
-1.16312e-07
6.72526e-08
-1.03061e-07
1.6707e-08
-1.20078e-07
4.39401e-09
-1.54444e-07
1.09837e-08
-1.61725e-07
2.29016e-08
-1.45609e-07
3.57244e-08
-1.54168e-07
1.34617e-08
-2.00098e-07
1.60011e-08
-1.31739e-07
6.88118e-09
-1.61844e-07
-3.66746e-09
-2.62937e-07
-4.3359e-08
-2.30774e-07
-2.71128e-09
-2.00067e-07
1.02112e-09
-2.10476e-07
-2.48004e-08
-1.66156e-07
-2.3525e-08
-1.40615e-07
2.06569e-10
-1.80128e-07
1.62366e-08
-2.02039e-07
2.37331e-08
-1.88556e-07
4.43835e-08
-1.88026e-07
3.16482e-08
-1.74087e-07
1.72347e-08
-1.96235e-07
9.34482e-09
-1.94511e-07
4.20567e-08
-2.17429e-07
1.01887e-08
-1.96545e-07
-2.38215e-08
-1.9514e-07
-1.9549e-08
-1.85229e-07
-1.79495e-08
-1.87914e-07
-9.06806e-09
-1.732e-07
3.86672e-08
-1.47098e-07
-5.81436e-11
-1.59158e-07
-5.33061e-08
-3.12314e-08
-7.64386e-09
-1.30664e-07
-3.67343e-08
-1.11096e-07
-1.73079e-08
-8.20969e-08
-1.4663e-08
-1.10054e-07
7.38965e-08
-1.10061e-07
5.41041e-09
-1.69696e-07
-1.72116e-08
-1.53846e-07
1.90104e-08
-1.61204e-07
-2.14462e-09
-1.88652e-07
-3.67985e-09
-1.97814e-07
9.73378e-09
-2.12594e-07
1.54103e-08
-2.05544e-07
-2.23815e-10
-2.07135e-07
2.22082e-08
-2.00983e-07
1.82875e-08
-1.84279e-07
7.3065e-09
-1.49091e-07
-1.48842e-08
-1.84355e-07
4.35994e-08
-1.90111e-07
8.12998e-09
-1.80469e-07
-2.50608e-08
-1.69587e-07
-3.99467e-08
-2.1445e-07
1.51122e-08
-1.77826e-07
1.64693e-08
-1.94778e-07
-2.15661e-08
-2.68014e-08
-6.21383e-09
-1.56642e-07
-3.58912e-08
-1.24377e-07
3.37877e-08
-1.63418e-07
4.43368e-08
-1.04029e-07
7.11141e-08
-1.40526e-07
3.53863e-08
-2.43708e-07
-1.25345e-08
-1.89332e-07
-4.30317e-08
-1.79311e-07
-4.52489e-09
-1.72764e-07
-1.83272e-08
-1.86761e-07
-1.51405e-08
-2.11102e-07
-7.91007e-09
-2.22476e-07
-1.65461e-08
-2.15912e-07
-1.02007e-08
-1.97317e-07
3.23282e-09
-1.74504e-07
1.2466e-08
7.1772e-09
-1.96394e-07
-3.98967e-08
-1.99942e-07
-3.93555e-08
-1.25839e-07
4.78673e-08
-2.50196e-07
4.08739e-08
-2.42115e-07
6.07326e-09
-2.30904e-07
-6.81662e-09
-2.11538e-07
-8.38248e-09
-1.99945e-07
1.13084e-08
-1.83214e-07
1.89927e-08
-1.97007e-07
2.52452e-08
-2.35758e-07
3.17913e-09
-1.97367e-07
2.18721e-08
-2.46675e-07
-5.40623e-09
-2.88798e-07
-1.67879e-09
-2.68212e-07
-2.35374e-08
-2.61982e-07
4.53752e-08
-2.69273e-07
-1.75093e-08
-2.446e-07
-4.86952e-08
-2.6826e-07
2.63347e-08
-2.77552e-07
2.55281e-08
-2.8115e-07
2.44999e-08
-2.37649e-07
8.82361e-10
-1.88675e-07
-1.73255e-08
-1.51152e-07
-2.02889e-08
-1.71044e-07
2.92371e-08
-1.8811e-07
8.0765e-09
-1.80801e-07
2.87975e-09
-1.61391e-07
7.81531e-09
-1.19146e-07
-6.17948e-08
-1.14232e-07
-2.28634e-08
-1.61437e-07
3.81369e-08
-1.43165e-07
-3.06511e-08
-1.24537e-07
-1.86854e-08
-1.63935e-07
-1.22363e-08
-8.90171e-08
-3.20304e-08
-1.14623e-07
-1.2411e-08
-1.48777e-07
1.53278e-08
-3.95376e-08
3.08163e-08
-1.60542e-07
-8.8816e-09
-1.31419e-07
2.7334e-08
-1.82069e-07
3.36134e-08
-1.84865e-07
2.1807e-08
-1.96832e-07
9.82238e-09
-1.96499e-07
-4.01267e-09
-1.80952e-07
-5.81382e-09
-1.88052e-07
-2.66179e-08
-1.259e-07
-1.18449e-08
-9.12496e-08
-1.37266e-08
-6.1127e-08
-1.18352e-08
-8.68629e-08
3.21561e-08
-1.4929e-10
5.31201e-08
-1.22608e-07
1.29202e-08
-1.05953e-07
-8.52507e-09
-1.10521e-07
-2.04935e-08
-1.3958e-07
-1.08873e-08
-1.57239e-07
3.27707e-08
-1.57452e-07
1.66822e-08
-1.87793e-07
8.77526e-09
-1.67611e-07
-2.63967e-08
-1.72434e-07
-3.10677e-08
-1.56379e-07
1.77321e-08
-1.72536e-07
6.0494e-08
-1.63498e-07
6.13515e-08
-1.76949e-07
4.88367e-08
-2.20937e-07
2.90718e-08
-1.26946e-07
1.90046e-08
-2.12036e-07
-7.0457e-08
-2.41681e-07
1.1503e-08
-2.60828e-07
6.42304e-09
-2.53304e-07
-1.54337e-08
-2.33111e-07
-3.67391e-08
-2.11883e-07
-3.14278e-08
-1.95577e-07
-1.30719e-08
-1.77019e-07
-6.0902e-09
5.32112e-10
-2.55047e-07
4.44238e-09
-1.7559e-07
3.59043e-08
-1.44472e-07
1.95248e-08
-2.44377e-07
-1.04021e-08
-2.32378e-07
-8.41849e-09
-2.15316e-07
-2.38797e-08
-2.04428e-07
-1.927e-08
-1.99937e-07
6.8174e-09
-1.86998e-07
6.0537e-09
-1.73874e-07
1.21211e-08
-1.78473e-07
7.74491e-09
-1.72941e-07
1.63405e-08
-2.0694e-07
2.85924e-08
-2.6133e-07
5.00452e-08
-1.59098e-07
3.05883e-08
-2.38429e-07
-2.52796e-08
-2.69668e-07
8.54621e-09
-1.57824e-07
-4.19544e-09
-2.62222e-07
-1.92665e-08
-2.50323e-07
1.12142e-08
-2.2175e-07
-4.07249e-09
-1.80894e-07
-3.99741e-08
-1.68801e-07
-2.94187e-08
-2.65489e-08
-9.40081e-09
-1.35125e-07
-1.51714e-08
-1.48378e-07
-2.97169e-08
-1.34178e-07
-1.13209e-08
-1.66591e-07
4.06431e-08
-5.7035e-08
3.28355e-08
-4.00568e-08
-3.98415e-08
-1.37988e-07
-6.81177e-08
-1.08489e-07
-9.10334e-09
-1.28633e-07
1.45812e-09
-1.89991e-07
-1.92465e-09
-4.59015e-08
2.77397e-08
-5.74805e-08
-8.31851e-10
-1.8179e-07
-1.35026e-08
-1.64829e-07
1.35415e-08
-1.90465e-07
1.67538e-08
-1.99368e-07
3.62376e-08
-1.98815e-07
3.30602e-08
-1.93963e-07
1.69547e-08
-1.86684e-07
2.54403e-09
-1.80627e-07
-1.00703e-08
-1.70162e-07
-1.62787e-08
-1.80676e-07
-1.6104e-08
-1.60521e-07
-3.21209e-08
-1.5547e-07
-1.87774e-08
-1.58617e-07
-8.68857e-09
-1.92781e-07
1.52735e-08
-1.2669e-07
3.75339e-08
-1.26653e-07
1.28833e-08
-1.28758e-07
-6.42036e-09
-1.46454e-07
-2.7979e-09
-1.68669e-07
1.13283e-08
-1.61629e-07
2.573e-08
-1.64458e-07
1.95116e-08
-1.64386e-07
8.70303e-09
-1.46859e-07
-4.43765e-08
-1.18559e-07
-5.93671e-08
-1.24263e-07
2.31992e-08
-1.23784e-07
6.00147e-08
-1.36288e-07
7.38556e-08
-1.40583e-07
5.31322e-08
-1.52908e-07
4.13969e-08
-1.66147e-07
3.03545e-08
-1.14941e-07
3.35142e-08
-2.43392e-07
-8.02017e-09
-2.4958e-07
1.26116e-08
-2.2755e-07
-3.74642e-08
-2.05684e-07
-5.86041e-08
-1.93233e-07
-4.3878e-08
-1.84666e-07
-2.16371e-08
-1.74797e-07
-1.59581e-08
-2.71066e-09
-1.9042e-07
6.22836e-08
-1.74836e-07
1.99527e-08
-1.44238e-07
-1.10747e-08
-1.37681e-07
-1.70658e-08
-1.47563e-07
1.46339e-09
-1.62197e-07
-9.24554e-09
-1.70488e-07
-1.09793e-08
-1.6757e-07
3.89932e-09
-1.64744e-07
3.22721e-09
-1.53363e-07
7.40077e-10
-1.48068e-07
2.45011e-09
-1.5181e-07
2.00826e-08
-1.57638e-07
3.44202e-08
-1.47384e-07
-1.12549e-08
-1.40129e-07
2.30205e-08
-1.40836e-07
2.62166e-08
-1.31862e-07
-4.28445e-10
-1.15283e-07
-2.0731e-08
-1.22704e-07
-1.20428e-08
-1.22897e-07
1.14073e-08
-1.10317e-07
-1.66517e-08
-1.30583e-07
-1.97087e-08
-1.53578e-07
-6.42352e-09
-2.82784e-08
1.87276e-08
-1.27123e-07
-6.79195e-08
-1.11603e-07
-4.65338e-08
-9.31542e-08
-3.07204e-08
-1.24021e-07
1.99374e-08
-9.08725e-08
5.19987e-08
-1.47602e-07
1.68878e-08
-1.95512e-07
-2.02073e-08
-1.63031e-07
-4.20133e-08
-1.77371e-07
1.57987e-08
-1.31286e-07
-4.80103e-08
-1.07458e-07
3.91175e-09
-8.98771e-08
-1.84122e-08
-1.44368e-07
4.05745e-08
-1.59865e-07
2.90388e-08
-1.6444e-07
2.13282e-08
-1.58392e-07
3.01897e-08
-1.49754e-07
2.44228e-08
-1.45782e-07
1.29828e-08
-1.52536e-07
9.29795e-09
-1.70235e-07
7.62852e-09
-1.83667e-07
-2.84739e-09
-1.97403e-07
-2.368e-09
-2.10888e-07
-1.86355e-08
-1.98873e-07
-3.111e-08
-1.99163e-07
-8.39904e-09
-1.9435e-07
1.03552e-08
-1.58707e-07
1.8909e-09
-1.54885e-07
9.06115e-09
-1.63715e-07
2.40913e-09
-1.75799e-07
9.2858e-09
-1.81628e-07
1.69842e-08
-1.42895e-07
-1.31364e-08
-1.3252e-07
9.13569e-09
-1.88085e-07
6.23499e-08
-1.32206e-07
5.44624e-08
-1.47351e-07
-4.17963e-08
-2.67094e-07
-8.56452e-09
-2.27305e-07
1.75006e-08
-1.8535e-07
3.19011e-08
-1.81168e-07
4.89504e-08
-1.71163e-07
3.13917e-08
-1.77444e-07
3.66361e-08
-1.51519e-07
7.17402e-09
-1.66708e-07
8.78824e-09
-1.59585e-07
7.22743e-09
-1.47544e-07
-4.9505e-08
-1.51932e-07
-5.42155e-08
-1.68408e-07
-2.74009e-08
-1.74473e-07
-1.55707e-08
-1.7435e-07
-1.60792e-08
-2.65652e-09
-2.45894e-07
3.71043e-08
-2.44546e-07
1.6095e-08
-2.34009e-07
-2.16124e-08
-2.13464e-07
-3.76111e-08
-1.98693e-07
-1.33083e-08
-2.08143e-07
2.04174e-10
-2.16465e-07
-2.65685e-09
-2.05961e-07
-6.60509e-09
-2.03214e-07
4.80097e-10
-1.92853e-07
-9.62105e-09
-1.84026e-07
-6.37685e-09
-1.76197e-07
1.22539e-08
-1.8026e-07
-1.25642e-08
-1.51079e-07
1.06106e-08
-2.10218e-07
3.11132e-08
-1.34888e-07
1.93379e-09
-1.76642e-07
-9.72166e-09
-1.59688e-07
1.33622e-08
-1.73262e-07
1.53116e-09
-1.6435e-07
2.49455e-09
-1.6813e-07
-1.28719e-08
-1.82923e-07
-4.91553e-09
-1.84512e-07
-4.83465e-09
-1.67213e-07
-4.96178e-08
-1.55162e-07
-2.96163e-08
-1.47126e-07
-5.51321e-08
-1.54014e-07
-2.38329e-08
-1.66786e-07
3.21782e-08
-1.32661e-07
1.80576e-08
-1.63677e-07
4.79038e-08
-2.18918e-07
3.28007e-08
-1.87608e-07
8.13945e-08
-3.23281e-07
-5.07999e-08
-1.82767e-07
1.56618e-08
-2.9352e-07
-3.84746e-08
-1.71641e-07
1.45996e-08
-2.51863e-07
-3.07966e-08
-2.27785e-07
2.39075e-09
-1.94395e-07
-1.19396e-08
-1.72939e-07
8.73369e-09
-1.54527e-07
6.01111e-09
-1.68085e-07
2.65408e-08
-1.91782e-07
3.29946e-08
-2.0393e-07
1.97771e-08
-2.02304e-07
-4.47402e-09
-2.00494e-07
-4.17742e-09
-2.13575e-07
-7.81346e-09
-1.66636e-07
7.66693e-08
-1.68148e-07
-3.47163e-09
-2.26947e-07
-8.24392e-08
-2.07257e-07
-1.99121e-08
-1.9044e-07
-7.75567e-09
-1.92554e-07
4.52284e-09
-1.80136e-07
-1.29393e-09
-1.71695e-07
6.80937e-09
-6.18848e-08
3.00013e-08
-5.80065e-08
5.88873e-09
-1.51548e-07
2.75122e-09
-1.41666e-07
4.25801e-08
-8.04655e-08
5.25506e-08
-2.25797e-07
-1.41001e-08
-2.17253e-07
6.65325e-09
-1.93399e-07
8.04735e-09
-1.67563e-07
2.31142e-08
-1.51236e-07
1.50648e-08
-1.66128e-07
2.17664e-09
-1.01857e-07
-6.56531e-09
-7.70859e-08
-1.70219e-08
-8.12157e-08
1.21359e-08
-1.04823e-07
-2.50854e-08
-1.32752e-07
-2.62855e-08
-1.50676e-07
-9.47642e-09
-1.59593e-07
-6.65174e-09
-1.67521e-07
-8.15036e-09
-3.99691e-10
-1.55244e-07
6.56393e-08
-1.73849e-07
3.46984e-08
-1.90255e-07
-5.20725e-09
-1.92579e-07
-3.52873e-08
-1.86584e-07
-1.93034e-08
-1.40189e-07
-4.61907e-08
-1.75403e-07
3.25566e-08
-2.03255e-07
2.12465e-08
-2.25541e-07
2.27666e-08
-2.0976e-07
-2.54022e-08
-1.84498e-07
-3.16388e-08
-1.57768e-07
-1.44765e-08
-1.73668e-07
3.33598e-09
-4.56712e-08
3.57535e-08
-1.95282e-07
-2.34618e-08
-1.15881e-07
-2.64207e-08
-1.12207e-07
-1.33966e-08
-1.31998e-07
3.31539e-08
-1.62671e-07
3.22034e-08
-1.64989e-07
4.81319e-09
-1.73081e-07
-4.78013e-09
-1.80182e-07
2.18557e-09
-1.75648e-07
-9.36821e-09
-1.49818e-07
-7.6226e-08
-2.05081e-07
2.3555e-08
-1.34261e-07
2.8766e-08
-1.69513e-07
1.45181e-08
-2.85678e-07
-6.13481e-09
-1.52003e-07
3.61554e-08
-1.40386e-07
3.74559e-08
-1.0622e-07
-1.37952e-09
-2.46502e-07
1.66607e-08
-2.74958e-07
2.87017e-08
-2.61432e-07
2.13586e-09
-3.22429e-07
2.25231e-08
-3.31732e-07
2.39024e-08
-3.3965e-07
-2.31929e-08
-2.8672e-07
-9.866e-08
-2.61476e-07
1.3214e-08
-2.49818e-07
-5.59189e-09
-2.31494e-07
-1.23128e-08
-2.12593e-07
7.63902e-09
-1.99087e-07
1.9489e-08
-1.9223e-07
1.29202e-08
-1.92637e-07
-4.0673e-09
-2.15375e-07
1.63631e-08
-1.43904e-07
7.54341e-08
-2.68586e-07
-2.17168e-09
-2.68084e-07
-3.97359e-09
-2.83432e-07
-1.39941e-08
-2.72599e-07
-3.07454e-08
-2.27217e-07
-5.5918e-08
-2.3281e-07
1.00133e-08
-2.25989e-07
-8.11532e-09
-2.04237e-07
-1.48735e-08
-1.57934e-07
-1.66073e-08
-1.45235e-07
-6.81002e-09
-1.65749e-07
2.32647e-08
-1.62688e-07
3.95189e-08
-1.39309e-07
2.86356e-08
-1.65026e-07
1.14737e-08
-1.9181e-07
3.30995e-08
-1.78743e-07
-5.01984e-09
-1.70149e-07
1.45199e-08
-1.87554e-07
3.24704e-08
-2.21841e-07
3.64638e-08
-1.02443e-07
2.71096e-08
-8.45592e-08
-3.43937e-08
-1.82104e-07
-3.96728e-08
-1.74619e-07
-3.25695e-08
-1.87167e-07
-1.37378e-08
-1.79823e-07
-1.68193e-08
-1.73951e-07
-1.25213e-08
-1.73624e-07
-8.47642e-09
-2.26426e-09
-1.53398e-07
-3.73178e-09
-1.27027e-07
-4.27202e-08
-1.19448e-07
-1.27867e-08
-1.14283e-07
1.05934e-08
-1.6455e-07
-2.0083e-08
-1.59772e-08
9.42234e-09
-1.68597e-07
-1.90101e-08
-1.30497e-07
3.41931e-08
-1.28051e-07
2.03206e-08
-1.63971e-07
1.05179e-08
-1.8682e-07
-8.78991e-09
-1.84087e-07
-6.82556e-08
-1.0513e-07
-2.45749e-08
-1.02275e-07
3.28982e-08
-1.79502e-07
5.37657e-08
-2.0799e-07
2.04563e-09
-2.13531e-07
-7.85504e-09
-1.93184e-07
1.28067e-08
-1.97722e-07
3.67411e-08
-2.08688e-07
1.57796e-08
-2.04379e-07
-9.18279e-09
-2.12577e-07
1.03838e-08
-2.28172e-07
3.8988e-09
-1.50233e-07
5.52851e-10
-2.94487e-07
-3.48445e-08
-2.60169e-07
4.52016e-08
-2.83742e-07
3.84834e-08
-3.0749e-07
1.75501e-08
-2.51411e-07
-1.77274e-08
-2.6585e-07
4.87186e-08
-1.53135e-07
3.78835e-08
-2.91095e-07
-4.80034e-08
-2.55122e-07
-7.27083e-09
-2.21884e-07
2.01493e-08
-2.47014e-07
4.71724e-08
-2.80805e-07
6.64646e-09
-2.80757e-07
-2.32401e-08
-1.43579e-07
-3.01877e-08
-1.99208e-07
-8.26167e-08
-1.81278e-07
-2.55535e-08
-1.86168e-07
-7.42328e-09
-1.79178e-07
6.49476e-10
-1.61304e-07
1.61478e-09
-1.64926e-07
1.65426e-08
-1.81973e-07
1.29792e-08
-1.9997e-07
3.43604e-08
-1.69465e-07
4.20023e-08
-2.31169e-07
8.04186e-09
-2.4193e-07
9.14584e-09
-2.6917e-07
1.32457e-08
-2.90054e-07
-1.01749e-08
-1.62229e-07
2.20983e-08
-2.53091e-07
-5.07179e-08
-2.26095e-07
-3.7693e-08
-2.17703e-07
-2.32662e-08
-2.17324e-07
-1.69865e-08
-2.21044e-07
-3.08943e-09
-1.91169e-07
-6.61007e-09
-1.76509e-07
2.4859e-08
-1.68298e-07
2.04241e-08
-3.37354e-08
3.0395e-08
-1.38976e-07
-1.31201e-08
-1.16248e-07
-2.91657e-08
-8.52903e-08
-1.6438e-08
-7.82518e-08
2.5432e-08
-8.16599e-08
3.98722e-08
-8.36556e-08
2.82521e-08
-2.88128e-09
3.958e-08
-1.2883e-07
-6.43874e-08
-1.19331e-07
-4.20678e-08
-1.28975e-07
-4.09405e-09
-1.43649e-07
-2.14378e-09
-1.52167e-07
-4.00239e-09
-1.62556e-07
1.91503e-09
-1.63713e-10
-1.13111e-07
9.17579e-09
-1.49718e-07
-6.11363e-09
-1.59688e-07
-2.81738e-09
-1.42768e-07
-6.32739e-09
-1.51e-07
-1.18516e-08
-1.39603e-07
-1.97428e-09
-1.6772e-07
9.10611e-09
-1.49914e-07
1.63871e-08
-1.53778e-07
2.41845e-08
-1.82044e-07
3.87838e-08
-2.10086e-07
1.92528e-08
-1.1492e-07
-1.02826e-08
-8.63872e-08
-5.31075e-08
-1.34634e-07
-7.19944e-08
-1.55265e-07
2.49335e-08
-1.25473e-07
2.27854e-08
-1.26779e-07
-7.82922e-09
-1.01399e-07
-1.25732e-08
-3.96557e-08
-2.50027e-08
-6.93903e-08
4.43538e-08
-1.27247e-07
4.91803e-08
-1.34609e-07
1.90445e-08
-1.54761e-07
2.40511e-08
-1.67577e-07
1.33624e-08
-2.22287e-07
1.98656e-08
-2.29742e-07
5.03136e-08
-2.33129e-07
4.18705e-08
-2.63895e-07
5.06944e-08
-1.61615e-07
3.47808e-08
-2.42398e-07
-2.15996e-08
-1.94218e-07
-1.31557e-08
-2.24591e-07
-1.76304e-08
-2.46924e-07
1.25428e-08
-1.33867e-07
6.31904e-08
-2.38011e-07
1.07514e-09
-2.25068e-07
-8.72432e-09
-1.96441e-07
-5.18675e-08
-1.53799e-07
-7.28294e-08
-1.40191e-07
-9.80681e-08
-1.58668e-07
-7.00473e-09
-1.78356e-07
1.22649e-08
-1.98766e-07
2.10595e-08
-2.0858e-07
1.14284e-08
-1.95873e-07
3.83515e-09
-1.80298e-07
-2.59591e-09
-1.66074e-07
2.18311e-08
-1.18794e-07
-6.4777e-09
-1.57918e-07
-5.71443e-09
-1.32305e-07
3.61905e-08
-1.43838e-07
2.47786e-08
-1.48556e-07
-5.45671e-09
-1.21806e-07
-4.65181e-09
-1.47663e-07
-2.53778e-08
-1.53678e-07
-3.16788e-08
-1.49573e-07
-2.73707e-08
-1.60063e-07
-6.49684e-09
-1.7188e-07
8.72736e-09
-1.64919e-07
-1.35705e-08
-1.31327e-07
-8.73346e-09
-1.36449e-07
2.55461e-08
-8.78474e-09
5.59602e-08
-1.03699e-07
-6.99314e-08
-1.24317e-07
-9.50842e-09
-1.05273e-07
-3.5482e-08
-6.73805e-08
-1.24604e-08
-3.45461e-08
7.03793e-09
-2.07954e-08
1.45018e-08
-2.5751e-10
1.88307e-08
-9.33618e-08
2.87197e-08
-1.29217e-07
-5.27865e-09
-1.41763e-07
8.45261e-09
-1.60513e-07
1.66071e-08
-1.7051e-07
5.99552e-09
-1.72839e-07
4.24583e-09
4.19283e-10
-1.28038e-07
1.21848e-08
-1.69399e-07
3.52464e-08
-1.90723e-07
1.85059e-08
-1.90218e-07
-6.83304e-09
-2.15296e-07
1.32266e-08
-2.38361e-07
2.109e-08
-2.55002e-07
2.57476e-08
-2.46611e-07
7.99554e-09
-2.28476e-07
6.04961e-09
-2.11122e-07
2.14298e-08
-1.88364e-07
-3.50504e-09
-1.63332e-07
-3.53151e-08
-1.65456e-07
-5.09833e-08
-1.75736e-07
-6.17147e-08
-1.76335e-07
-2.55138e-08
-1.30249e-07
2.79786e-08
-1.53589e-07
1.5511e-08
-1.9412e-07
-2.30894e-08
-2.92292e-08
1.44438e-08
-1.42131e-07
4.26988e-09
-1.63356e-07
1.68612e-08
-1.34868e-07
4.32699e-08
-1.27245e-07
1.64281e-08
-1.51233e-07
3.69729e-08
-1.75386e-07
4.35737e-08
-2.03911e-07
7.88389e-08
-2.13869e-07
5.14017e-08
-1.88598e-07
2.5423e-08
-1.61192e-07
7.37556e-09
-1.65417e-07
-1.75958e-08
-1.40168e-07
-3.8404e-08
-1.6753e-07
9.63299e-09
-1.7884e-07
2.38527e-08
-1.5404e-07
3.7746e-08
-1.83182e-07
3.02286e-08
-1.82239e-07
-9.66716e-09
-1.72534e-07
-6.22076e-08
-2.07578e-07
-3.99027e-08
-1.45775e-07
-3.65079e-09
-2.50731e-07
-5.21698e-08
-2.4622e-07
5.196e-09
-2.40467e-07
1.53066e-08
-2.32354e-07
3.31606e-09
-2.08654e-07
-1.98653e-08
-1.68438e-07
-4.28115e-08
-1.55832e-07
-4.18223e-08
-1.4497e-07
-1.74057e-08
-1.30065e-07
3.04855e-08
-1.30759e-07
3.68848e-08
-1.39524e-07
3.35431e-08
-1.69682e-07
2.47019e-08
-1.71763e-07
-2.5716e-09
-1.75855e-07
-2.12859e-08
-1.82871e-07
-2.46625e-08
-1.85582e-07
-2.46597e-08
-1.76135e-07
-1.59438e-08
-1.63513e-07
-3.89482e-09
-1.70489e-07
-6.59458e-09
-1.83244e-07
4.02162e-09
-1.87119e-07
2.9124e-08
-1.6825e-07
-1.39549e-08
-3.51267e-08
7.76367e-10
-1.15829e-07
-8.03993e-08
-7.95419e-08
-7.37024e-08
-9.17252e-08
-2.7704e-10
-8.61452e-08
1.45819e-09
-8.43189e-08
1.18154e-08
1.06139e-08
7.85068e-08
-1.40216e-07
2.8973e-08
-1.57418e-07
1.19237e-08
-1.55012e-07
6.04707e-09
-1.54493e-07
1.60892e-08
-1.60195e-07
1.16989e-08
-1.63506e-07
7.55818e-09
2.24364e-09
-2.1107e-07
3.69945e-09
-1.85397e-07
9.57226e-09
-1.57067e-07
-9.82473e-09
-1.45556e-07
-1.83448e-08
-1.45484e-07
1.31548e-08
-1.52643e-07
2.82484e-08
-1.53166e-07
2.62715e-08
-1.63818e-07
1.86474e-08
-1.79716e-07
2.19468e-08
-1.7223e-07
1.39442e-08
-1.65476e-07
-1.0259e-08
-1.83471e-07
-1.73203e-08
-2.01022e-07
-3.34319e-08
-2.0953e-07
-5.32064e-08
-1.68897e-07
-6.68296e-08
-1.75216e-07
3.42978e-08
-1.79269e-07
1.95643e-08
-1.81993e-07
-1.83218e-08
-1.47702e-07
-2.13388e-08
-1.65124e-07
-3.13588e-08
-1.26307e-07
3.06026e-08
-1.05335e-07
2.22982e-08
-1.21692e-07
3.40265e-08
-1.44361e-07
6.17225e-08
-1.7202e-07
1.21533e-07
-2.00916e-07
1.0598e-07
-2.02607e-07
5.30932e-08
-1.99626e-07
2.24416e-08
-1.83381e-07
-8.77942e-09
-1.89588e-07
-1.13896e-08
-6.16945e-08
-1.25279e-08
-1.33243e-07
-7.04115e-08
-1.10915e-07
1.65537e-10
-1.07907e-07
3.47379e-08
-9.53431e-08
1.76646e-08
-7.58701e-08
-3.02225e-08
-8.96778e-08
-4.83998e-08
-1.18781e-07
-9.88417e-09
-1.51868e-07
2.94732e-08
-2.22346e-07
1.77753e-08
-2.25439e-07
8.28975e-09
-1.81357e-07
-2.87752e-08
-1.48826e-07
-2.92159e-08
-1.40541e-07
-2.81497e-08
-1.55544e-07
-2.78085e-08
-1.7532e-07
-2.20468e-08
-1.78699e-07
-1.40265e-08
-1.59459e-07
1.1245e-08
-1.6318e-07
4.06058e-08
-1.8068e-07
5.10437e-08
-1.86907e-07
3.0929e-08
-1.88014e-07
-1.46523e-09
-1.67526e-07
-4.17739e-08
-1.5757e-07
-3.46177e-08
-1.52841e-07
-2.93889e-08
-1.63864e-07
-4.92129e-09
-1.70696e-07
2.937e-09
-1.71268e-07
-6.02228e-09
-1.72217e-07
6.72723e-09
-1.33824e-07
-9.26822e-09
-1.05594e-07
-4.35507e-08
-4.77319e-08
-5.70854e-08
-8.90245e-08
-4.08352e-08
-1.20793e-08
4.07056e-09
-1.37238e-07
-7.91811e-08
-1.23904e-07
-1.18759e-08
-1.39057e-07
2.69692e-08
-1.24307e-07
6.42245e-08
-1.37856e-07
9.379e-08
-1.68455e-07
4.25235e-08
-1.7849e-07
1.60825e-08
-1.75303e-07
1.29033e-08
-1.73808e-07
1.02054e-08
-1.73442e-07
7.1938e-09
1.31658e-09
-1.68617e-07
2.14252e-08
-1.64936e-07
5.88946e-09
-1.78245e-07
3.484e-09
-2.0259e-07
5.99972e-09
-1.93774e-07
4.33856e-09
-1.69823e-07
4.29689e-09
-1.38107e-07
-5.44406e-09
-1.43486e-07
2.40267e-08
-1.65907e-07
4.43679e-08
-1.83491e-07
3.15275e-08
-2.02374e-07
8.62405e-09
-2.10975e-07
-8.71878e-09
-2.28843e-07
-1.55641e-08
-2.49053e-07
-3.55379e-08
-1.48383e-07
-1.27808e-08
-2.68626e-07
-4.81322e-08
-2.61589e-07
1.51964e-08
-2.58643e-07
2.92628e-08
-2.48653e-07
-3.4185e-08
-2.44185e-07
-3.55064e-08
-2.13427e-07
-1.55174e-10
-1.99089e-07
7.96005e-09
-2.26836e-07
5.94587e-08
-2.20697e-07
5.33952e-08
-1.9937e-07
5.21608e-08
-1.91309e-07
4.89065e-08
-1.67619e-07
2.94029e-08
-1.4666e-07
2.97933e-09
-1.10744e-07
5.83517e-09
-9.826e-08
-2.50031e-08
-5.23706e-08
-5.90194e-08
-3.08207e-08
-9.26797e-08
-3.56961e-08
5.041e-09
-4.35287e-08
4.25705e-08
-4.70898e-08
2.07453e-08
-6.77896e-08
-9.52257e-09
-1.10445e-07
-4.55859e-09
-1.86984e-07
6.66543e-08
-2.10616e-07
5.31049e-08
-2.59772e-07
6.69319e-08
-2.22749e-07
-2.84431e-08
-1.53703e-07
-9.88299e-08
-1.52877e-07
-3.00415e-08
-1.60662e-07
-2.03651e-08
-1.81669e-07
-6.80138e-09
-1.95673e-07
-8.04237e-09
-2.0693e-07
-2.76985e-09
-2.13909e-07
1.82242e-08
-2.03735e-07
3.04318e-08
-1.72745e-07
1.98515e-08
-1.22598e-07
-1.92189e-08
-8.13561e-08
-4.31468e-08
-1.19083e-07
-4.04706e-09
-1.48884e-07
-4.81703e-09
-1.81454e-07
3.18176e-09
-2.11754e-07
2.53788e-08
-2.13706e-07
4.88865e-09
-2.06442e-07
-1.32862e-08
-1.91958e-07
-7.75715e-09
-1.77086e-07
-2.42347e-08
-1.67357e-07
-5.32797e-08
-1.46004e-07
-7.92465e-08
-1.73526e-07
-1.33133e-08
-1.34998e-07
-3.44989e-08
-1.69697e-07
-4.44813e-08
-1.60942e-07
-2.06314e-08
-1.74729e-07
4.03456e-08
-1.59744e-07
5.08693e-08
-1.37224e-07
7.28673e-08
-1.43021e-07
4.83202e-08
-1.50801e-07
2.38633e-08
-1.54432e-07
1.65357e-08
-1.59014e-07
1.47891e-08
-1.64579e-07
1.27594e-08
3.06173e-09
-1.39115e-07
4.80558e-08
-1.7612e-07
4.2894e-08
-2.19546e-07
4.69086e-08
-2.38312e-07
2.47661e-08
-2.33684e-07
-2.90332e-10
-2.11984e-07
-1.74029e-08
-2.00374e-07
-1.70544e-08
-1.87006e-07
1.06595e-08
-1.73623e-07
3.09841e-08
-1.58433e-07
1.63377e-08
-1.50436e-07
6.27051e-10
-1.48338e-07
-1.08166e-08
-1.46609e-07
-1.7293e-08
-1.55173e-07
-2.69738e-08
-1.28658e-07
-3.91657e-08
-1.66522e-07
-1.02683e-08
-1.78442e-07
2.71169e-08
-1.56905e-07
8.02418e-09
-1.73853e-07
-1.72369e-08
-1.92751e-07
-1.66084e-08
-1.95912e-07
3.00553e-09
-1.94381e-07
6.42874e-09
-1.95795e-07
1.18237e-08
-1.53443e-07
6.10349e-08
-1.25204e-07
2.16044e-08
-9.18295e-08
1.5532e-08
-8.56719e-08
2.32453e-08
-7.58479e-08
-6.91527e-09
-8.16372e-08
1.16841e-08
-8.09041e-08
-2.65617e-08
-1.6895e-07
-2.2546e-08
-5.42308e-08
-1.48914e-09
-1.90697e-07
-6.26785e-08
-1.10488e-07
1.34078e-08
-9.41763e-08
4.43346e-09
-1.35998e-07
3.23965e-08
-7.58797e-08
8.75693e-08
-1.70402e-07
8.03691e-09
-1.33911e-07
1.66138e-08
-1.66908e-07
5.05852e-08
-1.26795e-07
-1.93057e-08
-2.29351e-08
-4.97916e-08
-1.6975e-07
-8.71785e-08
-1.36934e-07
-2.13488e-09
-1.61133e-07
1.73976e-08
-1.75946e-07
6.77103e-09
-2.00749e-07
2.20332e-08
-2.05629e-07
2.3104e-08
-1.8918e-07
1.59123e-08
-1.60305e-07
-9.02369e-09
-1.39998e-07
-4.25896e-08
9.66288e-09
-3.80891e-08
-1.10892e-07
-3.67303e-08
-1.18876e-07
3.16655e-09
-1.55854e-07
4.01606e-08
-1.70009e-07
3.95329e-08
-1.64933e-07
-1.86321e-10
-1.57591e-07
-2.0629e-08
-1.44429e-07
-2.09189e-08
-1.7239e-07
3.72622e-09
-2.19971e-07
-7.9424e-09
-1.20483e-07
-2.42666e-08
-2.50211e-07
-3.54958e-08
-2.60207e-07
-2.45029e-08
-2.70164e-07
-3.45242e-08
-2.82337e-07
-5.57814e-09
-2.88936e-07
4.64759e-08
-2.65752e-07
2.74492e-08
-2.21408e-07
3.11806e-08
-1.97161e-07
2.40728e-08
-1.89604e-07
1.63073e-08
-1.86302e-07
1.32347e-08
-1.81819e-07
1.03076e-08
-1.75883e-07
6.82526e-09
1.0934e-09
-9.90968e-08
1.1595e-08
-1.23492e-07
6.62773e-08
-1.51202e-07
7.46175e-08
-1.75809e-07
4.93733e-08
-1.85117e-07
9.01729e-09
-2.00022e-07
-2.49781e-09
-2.18421e-07
1.34397e-09
-2.18213e-07
1.04516e-08
-1.90481e-07
3.25278e-09
-1.5515e-07
-1.89933e-08
-1.36619e-07
-1.79041e-08
-1.43796e-07
-3.63971e-09
-1.61064e-07
-2.49938e-11
-1.88415e-07
3.76619e-10
-2.02479e-07
-2.51013e-08
-1.78536e-07
-3.4211e-08
-1.39045e-07
-1.23747e-08
-1.20386e-07
-1.06346e-08
-1.35333e-07
-2.2897e-09
-1.55353e-07
3.41195e-09
-1.50619e-07
-1.72851e-09
-1.55618e-07
1.14272e-08
-1.60826e-07
1.70319e-08
-1.66992e-07
1.84801e-08
-1.07168e-07
1.23115e-08
-9.82581e-08
5.52916e-09
-9.71981e-08
2.11936e-08
-2.06776e-08
7.12823e-08
-1.5043e-07
-1.1492e-08
-1.69496e-07
-7.49541e-09
-1.92459e-07
6.4616e-10
-1.84328e-07
-9.62008e-09
-2.21776e-07
-2.52302e-08
-2.08522e-07
1.53253e-10
-1.79705e-07
-2.43829e-08
-8.84044e-08
9.41765e-08
-1.62004e-07
9.5759e-09
-1.28025e-07
-2.75945e-08
-7.85338e-08
-3.28778e-08
-5.54888e-08
2.75402e-08
-7.64671e-08
7.02814e-10
-1.01534e-07
-2.42114e-08
-1.43299e-07
-4.43781e-08
-1.51008e-07
5.57462e-09
-1.78573e-07
4.49621e-08
-2.16581e-07
4.47794e-08
-2.11271e-07