/*--------------------------------*- C++ -*----------------------------------*\
  =========                 |
  \\      /  F ield         | OpenFOAM: The Open Source CFD Toolbox
   \\    /   O peration     | Website:  https://openfoam.org
    \\  /    A nd           | Version:  12
     \\/     M anipulation  |
\*---------------------------------------------------------------------------*/
FoamFile
{
    format      ascii;
    class       volVectorField;
    location    "0.15";
    object      U.water_0;
}
// * * * * * * * * * * * * * * * * * * * * * * * * * * * * * * * * * * * * * //

dimensions      [0 1 -1 0 0 0 0];

internalField   nonuniform List<vector> 
3750
(
(0.000926576 0.0142954 0)
(0.000989901 0.0125189 0)
(0.0019899 0.0110102 0)
(0.000472515 0.0105512 0)
(-0.00256563 0.0133902 0)
(-0.00140207 0.0189026 0)
(-4.8305e-05 0.0181859 0)
(-0.000575308 0.0174488 0)
(-0.000622323 0.0162063 0)
(0.000172003 0.0129725 0)
(-0.000271447 0.0140736 0)
(-0.000207275 0.0161597 0)
(-0.00260623 0.0193344 0)
(-0.000843455 0.023534 0)
(0.000321396 0.0228351 0)
(-4.54853e-05 0.0218413 0)
(0.000949368 0.0212203 0)
(0.00192522 0.0190243 0)
(0.000690255 0.0160732 0)
(0.000219798 0.0128473 0)
(0.000972932 0.0125312 0)
(-0.000386404 0.0120854 0)
(-0.000986793 0.0117959 0)
(-0.00189015 0.0148289 0)
(-0.00114108 0.0159558 0)
(0.000453736 0.0133609 0)
(0.00319307 0.0103191 0)
(0.00288865 0.00645632 0)
(0.00105997 0.00529575 0)
(-0.00108783 0.00544389 0)
(-0.00236308 0.00727404 0)
(-0.0029349 0.01127 0)
(-0.000407142 0.0139054 0)
(-0.00242775 0.0165112 0)
(0.000406232 0.0176501 0)
(4.88869e-05 0.0141513 0)
(0.000354502 0.0121394 0)
(0.00124544 0.00910991 0)
(0.00184953 0.00408156 0)
(0.00321449 0.000749835 0)
(0.000476521 0.00060643 0)
(0.00116233 0.000243603 0)
(-0.00100662 0.00189302 0)
(-0.00246529 0.00416719 0)
(-0.000608028 0.00910195 0)
(-0.00115625 0.0113197 0)
(-0.00191453 0.014225 0)
(-0.00204562 0.014619 0)
(-0.000501111 0.0132821 0)
(-0.000110676 0.0116296 0)
(-0.000470366 0.0119226 0)
(-0.000597877 0.0117005 0)
(-0.00194934 0.0125745 0)
(-0.0030749 0.0154608 0)
(-0.00358735 0.0173984 0)
(-0.00235436 0.0183761 0)
(-3.79883e-05 0.0201414 0)
(0.000597787 0.0183289 0)
(0.00206561 0.0165468 0)
(0.00460323 0.0130572 0)
(0.00431926 0.00998486 0)
(0.0012173 0.008708 0)
(0.00193369 0.0116962 0)
(0.00141313 0.0166978 0)
(0.00165031 0.0161417 0)
(0.00382228 0.0149238 0)
(0.00114522 0.0147481 0)
(-0.000227312 0.0134921 0)
(-0.00228231 0.0147214 0)
(-0.00401975 0.0166486 0)
(-0.00430156 0.0197375 0)
(-0.00171716 0.0211062 0)
(0.00148528 0.0184453 0)
(0.0053339 0.0111483 0)
(0.00452766 0.00311594 0)
(0.00208238 -0.00722777 0)
(0.00140375 -0.00599219 0)
(0.00166676 -0.00357376 0)
(-0.00394525 -0.00626825 0)
(-0.00673461 -0.00352401 0)
(-0.00238027 -0.00210007 0)
(0.00354488 -0.00571389 0)
(0.0021936 -0.0110055 0)
(0.000367916 -0.0122613 0)
(0.000851438 -0.0133423 0)
(-0.000681765 -0.0104965 0)
(-0.00357376 -0.00814106 0)
(-0.00530953 -0.00612882 0)
(-0.00134251 -0.00306007 0)
(0.00151096 -0.0023122 0)
(0.0001858 -0.00329635 0)
(0.000842661 -0.00185694 0)
(-0.000226749 0.000824095 0)
(0.00352485 -0.000156598 0)
(0.00382385 -0.00421415 0)
(0.00107945 -0.00698645 0)
(-0.000986693 -0.00827371 0)
(-0.000384501 -0.010486 0)
(-0.00130715 -0.00889377 0)
(0.00357703 -0.00871594 0)
(0.00191237 -0.00778504 0)
(0.00410738 -0.00827854 0)
(0.00187031 -0.00930119 0)
(0.000360781 -0.00655184 0)
(-0.00134252 -0.00682657 0)
(-0.00116014 -0.0101437 0)
(-0.00109978 -0.00770017 0)
(-0.00228294 -0.0102969 0)
(-0.00280642 -0.00934027 0)
(0.00185936 -0.00736107 0)
(0.00224595 -0.0130694 0)
(0.0029027 -0.0128916 0)
(0.0028393 -0.0133994 0)
(0.00264027 -0.0128036 0)
(0.00375565 -0.0132159 0)
(0.000676124 -0.0121572 0)
(-0.000887439 -0.0084895 0)
(-0.00327179 -0.00857329 0)
(-0.00427521 -0.00746271 0)
(-0.00427846 -0.00587431 0)
(-0.00296899 -0.00665497 0)
(0.000257805 -0.00710894 0)
(0.00231307 -0.00700699 0)
(0.00288744 -0.00784317 0)
(0.00112218 -0.0109961 0)
(0.000632239 -0.0111383 0)
(-0.00142679 -0.0115637 0)
(-0.000809396 -0.0149008 0)
(-2.99447e-05 -0.016956 0)
(0.000162842 -0.0181772 0)
(8.12234e-05 -0.0181397 0)
(-0.000891039 -0.0148811 0)
(0.00228305 -0.0160642 0)
(0.00101211 -0.0178981 0)
(0.00129898 -0.019464 0)
(-0.00164606 -0.0198262 0)
(-0.00406938 -0.0181262 0)
(-0.00533728 -0.0159354 0)
(-0.0061841 -0.0128529 0)
(-0.00476306 -0.0110447 0)
(-0.000780771 -0.0118386 0)
(0.00051088 -0.0134741 0)
(0.00196048 -0.0119036 0)
(0.00116424 -0.0120135 0)
(5.10629e-05 -0.0123454 0)
(0.000487584 -0.0127275 0)
(0.00251068 -0.0115328 0)
(0.00663723 -0.0108453 0)
(0.00867901 -0.0111979 0)
(0.00417697 -0.0102765 0)
(-0.000408363 -0.0108389 0)
(6.64892e-05 -0.0085632 0)
(-0.000545157 -0.00729096 0)
(0.000462444 -0.00901799 0)
(0.000390366 -0.00965582 0)
(-0.00050633 -0.00622179 0)
(0.00132679 -0.0106887 0)
(0.0021495 -0.0153048 0)
(0.00156453 -0.0153888 0)
(0.00127158 -0.0142796 0)
(-0.00221538 -0.0125203 0)
(-0.0081322 -0.0117651 0)
(-0.00484679 -0.0123301 0)
(-0.000353221 -0.0153502 0)
(0.00124629 -0.017187 0)
(-0.00070773 -0.0138809 0)
(-0.00160566 -0.0165984 0)
(0.00242629 -0.0136398 0)
(0.00454448 -0.00648158 0)
(0.00230774 -0.0105629 0)
(0.000911927 -0.0138607 0)
(0.00234271 -0.011305 0)
(0.00111755 -0.0123822 0)
(-0.000469481 -0.012173 0)
(0.000895625 -0.013111 0)
(0.00226646 -0.0125936 0)
(0.000967851 -0.0115826 0)
(-0.00113538 -0.0140175 0)
(-0.000923143 -0.0116016 0)
(-5.7456e-05 -0.0111004 0)
(0.0015087 -0.00956475 0)
(0.00469978 -0.010193 0)
(0.00113517 -0.0163793 0)
(-0.00250369 -0.0120742 0)
(-0.00602346 -0.00786287 0)
(0.000919094 -0.0134834 0)
(0.00148999 -0.011743 0)
(0.00127497 -0.0102945 0)
(0.00383308 -0.0121677 0)
(0.000535617 -0.0118045 0)
(-0.003073 -0.00951457 0)
(-0.000389106 -0.00778737 0)
(7.00451e-05 -0.00923589 0)
(-0.00338588 -0.00978783 0)
(-0.00203005 -0.0100117 0)
(-0.000170942 -0.0153503 0)
(-0.000598139 -0.0181211 0)
(0.000656818 -0.0180784 0)
(0.00122185 -0.0180978 0)
(0.00233775 -0.019141 0)
(0.00336144 -0.0201197 0)
(0.00215873 -0.0191564 0)
(0.000694086 -0.0191158 0)
(-0.000607577 -0.0203442 0)
(-0.0024149 -0.0173754 0)
(-0.00208418 -0.0170231 0)
(0.00101942 -0.0136998 0)
(0.00141821 -0.0121924 0)
(0.00394762 -0.00712062 0)
(0.00619775 -0.00430331 0)
(0.00178581 -0.00960408 0)
(-0.0017517 -0.0156254 0)
(-0.00480155 -0.0171029 0)
(-0.00295174 -0.0200634 0)
(0.00262839 -0.0289507 0)
(0.00222499 -0.0304669 0)
(0.00320256 -0.0292282 0)
(0.00117431 -0.0259314 0)
(-0.00389864 -0.0230545 0)
(-0.00569843 -0.0232895 0)
(-0.00512962 -0.0235828 0)
(-0.00107364 -0.0220424 0)
(0.0029076 -0.0211746 0)
(0.00514671 -0.020861 0)
(0.00298974 -0.0144332 0)
(-0.00392972 -0.0124515 0)
(-0.00401416 -0.0107759 0)
(-0.00229513 -0.00866921 0)
(0.00402163 -0.00716378 0)
(0.00206809 -0.01074 0)
(-0.00113786 -0.0114802 0)
(0.000206366 -0.0124708 0)
(0.00251354 -0.0150996 0)
(0.00171837 -0.0148909 0)
(-0.000962407 -0.0134491 0)
(-0.00101686 -0.0170459 0)
(-0.00171465 -0.0158176 0)
(-0.00133125 -0.0153352 0)
(-0.00151813 -0.0219249 0)
(0.00206458 -0.0238603 0)
(0.00299319 -0.0209224 0)
(-0.00270308 -0.0209235 0)
(-0.00134164 -0.019311 0)
(-0.000197048 -0.0142369 0)
(-0.000611762 -0.0151966 0)
(0.000404614 -0.0193539 0)
(0.0032081 -0.0185484 0)
(0.00334181 -0.0182729 0)
(0.00221904 -0.018643 0)
(-0.000485912 -0.0179181 0)
(0.00441874 -0.0193831 0)
(0.0011834 -0.020253 0)
(-0.00113631 -0.0205627 0)
(-0.00315656 -0.0196447 0)
(-0.00171046 -0.0182412 0)
(0.000325408 -0.0183408 0)
(0.00396877 -0.0180262 0)
(0.00162976 -0.015468 0)
(-0.00112571 -0.0102764 0)
(-0.00405355 -0.00545001 0)
(-0.000586174 -0.00906768 0)
(-0.000971544 -0.0114951 0)
(0.00019182 -0.0087664 0)
(0.00565968 -0.00964521 0)
(2.95271e-05 -0.00979361 0)
(-0.00204355 -0.0131772 0)
(1.89525e-05 -0.0129912 0)
(-0.000575612 -0.013927 0)
(-0.000369729 -0.0179465 0)
(0.00156962 -0.0195618 0)
(0.000544733 -0.020335 0)
(0.00155825 -0.0210984 0)
(0.00344214 -0.0206789 0)
(0.00375785 -0.0206183 0)
(0.00221631 -0.017765 0)
(-0.00133541 -0.0149065 0)
(0.000379602 -0.0168444 0)
(-8.86068e-05 -0.0185463 0)
(-0.00197624 -0.0173659 0)
(-0.00288297 -0.0172655 0)
(5.49893e-05 -0.0177275 0)
(0.00156034 -0.0181522 0)
(-0.00474017 -0.0186813 0)
(-0.0031999 -0.0101147 0)
(-0.0019811 -0.00601777 0)
(0.00233687 -0.00941082 0)
(0.0041105 -0.0134973 0)
(0.00329179 -0.012181 0)
(0.0032877 -0.0125088 0)
(0.00115844 -0.0201285 0)
(-0.00312826 -0.0217321 0)
(-0.00154328 -0.0185802 0)
(-0.00304426 -0.0165765 0)
(-0.00266621 -0.0161127 0)
(-0.00124422 -0.0205669 0)
(-0.00118989 -0.0223424 0)
(-7.66878e-05 -0.0215703 0)
(0.0010438 -0.020528 0)
(0.00213153 -0.0210289 0)
(0.00107239 -0.016026 0)
(-0.0038877 -0.0195286 0)
(-0.00377404 -0.018974 0)
(0.00128681 -0.0156022 0)
(0.00425743 -0.018769 0)
(0.00147218 -0.0249543 0)
(0.00136118 -0.0241633 0)
(0.00115979 -0.022198 0)
(0.00144506 -0.0189976 0)
(0.00338616 -0.0179411 0)
(0.00215944 -0.0185612 0)
(0.000936913 -0.0204606 0)
(0.00171657 -0.0203683 0)
(-0.000823846 -0.0215776 0)
(-0.00313985 -0.0274618 0)
(-0.00177255 -0.0281873 0)
(0.000769439 -0.0259495 0)
(-0.00282199 -0.0262541 0)
(-0.00368055 -0.0254524 0)
(0.00191202 -0.0256378 0)
(0.00217028 -0.027022 0)
(0.00359669 -0.0276115 0)
(0.00446425 -0.025898 0)
(0.00166483 -0.0210192 0)
(0.000432491 -0.0165518 0)
(0.00237188 -0.0154518 0)
(0.00174436 -0.0172315 0)
(-7.10097e-05 -0.0174461 0)
(3.5648e-05 -0.016164 0)
(-0.00135204 -0.0133487 0)
(-0.000809926 -0.0116103 0)
(0.000726638 -0.0111132 0)
(-0.000411286 -0.0128861 0)
(-0.00354689 -0.0137209 0)
(-0.00362601 -0.0103666 0)
(-0.00197116 -0.0104547 0)
(-0.00262564 -0.01086 0)
(6.67921e-05 -0.0124121 0)
(0.000723103 -0.00925212 0)
(0.0021201 -0.00771767 0)
(0.00139246 -0.0095879 0)
(0.00233218 -0.0149775 0)
(0.0015434 -0.0184411 0)
(0.000708059 -0.019497 0)
(0.000125705 -0.0184461 0)
(0.00105856 -0.0172865 0)
(0.000611075 -0.017041 0)
(0.000227583 -0.0142023 0)
(0.000546191 -0.0116139 0)
(-0.000885059 -0.00704356 0)
(-0.000675191 -0.00542939 0)
(0.00148369 -0.00330793 0)
(0.00319683 -0.00628236 0)
(7.90485e-05 -0.0103916 0)
(-0.00203643 -0.0100982 0)
(-0.0024534 -0.0106934 0)
(0.00212227 -0.0139852 0)
(0.00305418 -0.0146835 0)
(0.000680394 -0.0172682 0)
(-0.00066856 -0.0185715 0)
(-0.00143068 -0.0175522 0)
(0.00381574 -0.0151339 0)
(0.00464775 -0.0145009 0)
(0.00581256 -0.0157628 0)
(0.00353654 -0.0176355 0)
(0.000908687 -0.0196251 0)
(-0.000973632 -0.0154395 0)
(-0.00373995 -0.016651 0)
(-0.00109928 -0.0218632 0)
(-0.000529509 -0.0247327 0)
(-0.000234845 -0.0258123 0)
(-0.00191581 -0.0246275 0)
(-0.00184026 -0.021331 0)
(-0.000432608 -0.0203157 0)
(0.000265799 -0.0209666 0)
(0.000306042 -0.0167396 0)
(-0.00249951 -0.0237219 0)
(0.000485918 -0.0217758 0)
(0.00488497 -0.0158669 0)
(0.0027068 -0.0190305 0)
(-0.000392358 -0.0235839 0)
(-0.00288171 -0.02237 0)
(-0.00288716 -0.0207463 0)
(-6.49455e-05 -0.0186281 0)
(0.000500126 -0.0176326 0)
(0.0023143 -0.0182061 0)
(0.00198297 -0.0162253 0)
(0.00219288 -0.0161334 0)
(0.00356781 -0.0190651 0)
(0.00289959 -0.023486 0)
(0.00115351 -0.02016 0)
(0.000276848 -0.0191247 0)
(0.00019536 -0.0248362 0)
(-0.00220832 -0.020716 0)
(-0.000747735 -0.0214455 0)
(-0.000177521 -0.0256687 0)
(-0.000345781 -0.022815 0)
(-0.00286038 -0.0197215 0)
(-0.00338244 -0.0161506 0)
(-0.0014124 -0.00961536 0)
(0.000707992 -0.00890056 0)
(-0.00161081 -0.0111661 0)
(-0.00130859 -0.011474 0)
(0.000275056 -0.0137534 0)
(-0.00331622 -0.0104616 0)
(-0.00390763 -0.00534872 0)
(0.000190137 -0.00689666 0)
(0.000814996 -0.0097695 0)
(0.00126303 -0.0109803 0)
(-0.000220425 -0.0119747 0)
(0.000269056 -0.00855965 0)
(-0.000964584 -0.00567567 0)
(-0.00117373 -0.00991029 0)
(0.000588452 -0.0140927 0)
(0.000648016 -0.0178554 0)
(0.00251016 -0.0177991 0)
(0.00373477 -0.0172437 0)
(0.00248594 -0.0196167 0)
(0.00123635 -0.0191578 0)
(-0.000817505 -0.0164852 0)
(-0.00145031 -0.0160763 0)
(-0.00233855 -0.0180367 0)
(-0.00344628 -0.0167969 0)
(-0.00287998 -0.0146863 0)
(-0.00159021 -0.0149515 0)
(0.00288409 -0.0155606 0)
(0.00563392 -0.0129727 0)
(0.00270844 -0.0127707 0)
(-0.00100293 -0.012131 0)
(-0.00161705 -0.0131763 0)
(0.00100132 -0.0143023 0)
(0.00307452 -0.0131652 0)
(0.00159304 -0.014749 0)
(0.000476724 -0.0165595 0)
(-0.00364981 -0.0156803 0)
(-0.00495299 -0.0122439 0)
(4.29919e-05 -0.0118156 0)
(0.00567404 -0.0124929 0)
(0.00671752 -0.0109807 0)
(0.00499245 -0.0109359 0)
(0.00347896 -0.0128335 0)
(0.00217954 -0.0154926 0)
(-0.00243061 -0.0126021 0)
(0.000640577 -0.0184764 0)
(0.00132876 -0.02583 0)
(-0.00277803 -0.0237126 0)
(-0.00552641 -0.0211086 0)
(-0.00436543 -0.0193673 0)
(-0.00206499 -0.0187864 0)
(-0.00132954 -0.0202797 0)
(-0.000184576 -0.0168701 0)
(0.00288357 -0.0168072 0)
(0.00273436 -0.0195916 0)
(-0.000219311 -0.0156984 0)
(-0.00221528 -0.0133805 0)
(-0.000434783 -0.013652 0)
(-0.00193729 -0.0155009 0)
(-0.0014121 -0.0169526 0)
(0.00189715 -0.015264 0)
(0.00103805 -0.0161202 0)
(0.000741063 -0.0159528 0)
(-0.00098964 -0.014922 0)
(0.00143047 -0.0138988 0)
(0.0022426 -0.0136615 0)
(0.00149994 -0.0148797 0)
(0.00219824 -0.0118052 0)
(0.000184998 -0.0102596 0)
(0.000276872 -0.0135581 0)
(-0.000531226 -0.0101543 0)
(-0.000329946 -0.00934682 0)
(0.00145709 -0.0129384 0)
(-0.000258648 -0.0111345 0)
(-0.00243017 -0.0119428 0)
(-0.00188594 -0.0116572 0)
(0.000447277 -0.00759449 0)
(-0.00356339 -0.00782315 0)
(-0.00311026 -0.0119221 0)
(-0.000339906 -0.0108541 0)
(0.0042859 -0.0079948 0)
(0.00406222 -0.00562684 0)
(-0.00261507 -0.0110367 0)
(-0.00487036 -0.0180159 0)
(-0.00358472 -0.0174942 0)
(0.00057379 -0.0158279 0)
(-0.00138921 -0.0155645 0)
(0.000932241 -0.0118913 0)
(-0.00016806 -0.00858072 0)
(0.0026135 -0.0105623 0)
(0.00305787 -0.0155789 0)
(0.00222292 -0.0161427 0)
(0.00354316 -0.0156132 0)
(0.00319499 -0.0133475 0)
(0.000885333 -0.0141387 0)
(-0.000793042 -0.014581 0)
(-0.000566974 -0.0145005 0)
(-0.00132386 -0.0156387 0)
(-0.000381847 -0.0190327 0)
(-0.00116518 -0.0206892 0)
(-0.00131749 -0.0204509 0)
(0.000828254 -0.0187423 0)
(0.00064646 -0.0189538 0)
(-0.000571686 -0.0171995 0)
(-0.00082722 -0.0152641 0)
(-0.000509018 -0.0160066 0)
(0.0011949 -0.0168874 0)
(0.00204148 -0.0142844 0)
(-0.0006289 -0.0119136 0)
(0.00113156 -0.0136779 0)
(0.00258249 -0.0156006 0)
(-5.75919e-05 -0.0149117 0)
(-0.00534112 -0.0138852 0)
(0.000779558 -0.0212234 0)
(0.0036096 -0.0246753 0)
(0.00697143 -0.0201563 0)
(0.00563322 -0.0156829 0)
(0.00318599 -0.0149916 0)
(0.00273454 -0.0176257 0)
(0.00338832 -0.0167503 0)
(0.00154194 -0.0155633 0)
(0.00248049 -0.0172633 0)
(-0.00466034 -0.0146206 0)
(-0.00614523 -0.0139057 0)
(-0.00472698 -0.0161541 0)
(-0.00257947 -0.0175064 0)
(-0.00216039 -0.0195883 0)
(-0.000425103 -0.0171758 0)
(0.00633726 -0.0186422 0)
(0.00161355 -0.0253385 0)
(-0.00279393 -0.0240254 0)
(-0.00189131 -0.0221219 0)
(0.000572627 -0.0199295 0)
(-0.00048462 -0.0199736 0)
(-0.000521901 -0.0206473 0)
(-0.0015341 -0.0205909 0)
(-0.000240754 -0.0210567 0)
(-8.07967e-05 -0.0178018 0)
(0.00118379 -0.0182776 0)
(0.00230072 -0.018062 0)
(-5.51341e-05 -0.016408 0)
(-0.000693186 -0.0152565 0)
(0.00352042 -0.0142464 0)
(0.00295769 -0.0124637 0)
(0.000165411 -0.011719 0)
(-0.00127483 -0.0113966 0)
(-0.00218077 -0.0147783 0)
(-0.000880413 -0.0174506 0)
(-0.00237486 -0.0171323 0)
(-0.00120551 -0.0159185 0)
(5.32093e-05 -0.0152451 0)
(-0.00079419 -0.0151146 0)
(-0.00396383 -0.0135897 0)
(-0.00586235 -0.0129884 0)
(-0.00464287 -0.0143879 0)
(0.00171813 -0.0157602 0)
(0.00441046 -0.013337 0)
(0.00438029 -0.0121672 0)
(0.000524522 -0.0190802 0)
(0.0008935 -0.0206261 0)
(-0.00186076 -0.0250155 0)
(-0.002973 -0.0251858 0)
(-0.00123847 -0.0224436 0)
(0.000413811 -0.0225228 0)
(0.000255915 -0.0212057 0)
(-1.3149e-05 -0.0236127 0)
(0.000418349 -0.020928 0)
(0.00234716 -0.0165146 0)
(0.00122668 -0.0141662 0)
(0.00141215 -0.0158327 0)
(0.00238755 -0.0184848 0)
(0.00192469 -0.0180177 0)
(0.000613704 -0.0178645 0)
(-4.23357e-05 -0.0206127 0)
(-0.00161263 -0.0210485 0)
(0.00149368 -0.018003 0)
(-0.00176223 -0.0164923 0)
(-0.0031081 -0.0198005 0)
(0.000258867 -0.0206607 0)
(0.00105654 -0.0190032 0)
(0.00128313 -0.0191151 0)
(0.000359692 -0.0177954 0)
(0.00189517 -0.0169665 0)
(0.00142579 -0.0112134 0)
(0.00196474 -0.00603937 0)
(0.00364177 -0.00949282 0)
(0.00479609 -0.0113891 0)
(0.000651655 -0.01045 0)
(-0.00184717 -0.0158611 0)
(-0.000224911 -0.0221999 0)
(0.000159577 -0.0214234 0)
(0.00125957 -0.0171227 0)
(0.000519449 -0.0149239 0)
(0.000691548 -0.0134346 0)
(-0.00127033 -0.011909 0)
(-0.00117042 -0.00937208 0)
(0.00030549 -0.00647681 0)
(-0.00441015 -0.00842633 0)
(-0.00453065 -0.0127231 0)
(-0.00055358 -0.0142028 0)
(-0.000242793 -0.0156516 0)
(-0.000714355 -0.0184072 0)
(3.01519e-05 -0.0167437 0)
(0.00422972 -0.0134392 0)
(0.0015574 -0.016399 0)
(-0.00173591 -0.0177301 0)
(-0.00443844 -0.0188966 0)
(-0.00332747 -0.0186227 0)
(-0.00174622 -0.0152726 0)
(0.00110304 -0.013606 0)
(0.000234895 -0.0189392 0)
(0.00072883 -0.0226749 0)
(-0.00229657 -0.0206417 0)
(-0.00306532 -0.018028 0)
(-0.00131146 -0.0180961 0)
(0.000915636 -0.0134158 0)
(0.00153472 -0.00789413 0)
(-0.000114458 -0.00932042 0)
(-0.00267014 -0.0113228 0)
(-0.00136948 -0.00989364 0)
(0.00304947 -0.0118924 0)
(0.0020235 -0.015592 0)
(0.000840006 -0.0170132 0)
(-3.72604e-05 -0.0170851 0)
(0.00048654 -0.0160048 0)
(-0.000510888 -0.0140275 0)
(-0.00564605 -0.0136125 0)
(-0.00128718 -0.0164463 0)
(-0.00180338 -0.0157062 0)
(0.000710793 -0.0161076 0)
(0.00193061 -0.0235913 0)
(0.00271542 -0.0219503 0)
(0.00399696 -0.0137125 0)
(0.00139549 -0.0129597 0)
(0.0053724 -0.0158727 0)
(0.000483348 -0.0229533 0)
(0.00113638 -0.0253371 0)
(-0.00132786 -0.0293627 0)
(-0.0001444 -0.0340351 0)
(-0.00264351 -0.0334156 0)
(-0.0031843 -0.0306235 0)
(0.00112783 -0.0268882 0)
(0.000186459 -0.0254751 0)
(-7.02928e-05 -0.0233563 0)
(0.00320895 -0.0216345 0)
(0.00404132 -0.0208028 0)
(0.00169346 -0.0174436 0)
(-0.00133375 -0.0165699 0)
(0.000449091 -0.0206509 0)
(0.00237588 -0.0180856 0)
(0.00301643 -0.019637 0)
(-0.0010375 -0.0268687 0)
(-0.00389657 -0.0277753 0)
(-0.00248914 -0.0276315 0)
(-0.00192331 -0.0249119 0)
(0.0015267 -0.0224535 0)
(-0.000680478 -0.0216075 0)
(-0.001842 -0.0206211 0)
(-0.000421114 -0.0185312 0)
(-0.000446767 -0.0136593 0)
(0.00203174 -0.0134991 0)
(0.00376433 -0.0163003 0)
(0.00433716 -0.0147743 0)
(0.000686966 -0.0150248 0)
(0.00341473 -0.01859 0)
(0.00180098 -0.0170063 0)
(0.00289689 -0.0150203 0)
(0.00285907 -0.0165223 0)
(0.00153299 -0.0184335 0)
(0.000407594 -0.0145833 0)
(-0.00301565 -0.00925225 0)
(-0.00181664 -0.012522 0)
(-0.00188449 -0.0170811 0)
(-0.00118772 -0.0187651 0)
(-0.00154016 -0.0182392 0)
(-0.00131183 -0.0172687 0)
(-0.00119299 -0.0196636 0)
(-0.000167283 -0.0169169 0)
(0.00181357 -0.0112465 0)
(0.000325901 -0.0122706 0)
(0.000629121 -0.0106573 0)
(1.17946e-06 -0.0106695 0)
(-0.000109181 -0.0119589 0)
(-0.00126066 -0.0074636 0)
(-0.000342741 -0.00677847 0)
(0.00307407 -0.011522 0)
(0.00300181 -0.0124427 0)
(-0.00162479 -0.0149687 0)
(-0.00397756 -0.0177865 0)
(-0.00349229 -0.0150834 0)
(-0.000591235 -0.00975882 0)
(0.00362632 -0.00704374 0)
(0.00163072 -0.0122828 0)
(-0.000476783 -0.0203862 0)
(-0.000430038 -0.0211483 0)
(0.00321368 -0.019386 0)
(0.00311624 -0.0184479 0)
(0.000603445 -0.0202042 0)
(-0.000582158 -0.0202704 0)
(-0.000227301 -0.0210212 0)
(-0.00101721 -0.0218385 0)
(-0.00411156 -0.0183003 0)
(-0.000607717 -0.0215193 0)
(0.00349346 -0.0259594 0)
(0.00180627 -0.0269583 0)
(-0.00215231 -0.0299267 0)
(-0.000168617 -0.0284628 0)
(0.00443252 -0.0256432 0)
(0.00311854 -0.0209338 0)
(-0.000507471 -0.0212609 0)
(0.000429277 -0.0261603 0)
(0.00155688 -0.0240199 0)
(0.00479428 -0.0232951 0)
(0.0021975 -0.026603 0)
(-0.00109172 -0.0289383 0)
(-0.00432684 -0.0204277 0)
(-0.00436068 -0.0169983 0)
(-0.00209816 -0.0184194 0)
(-0.0021041 -0.0179541 0)
(-0.00177541 -0.0184637 0)
(-0.000288395 -0.0158432 0)
(0.000934818 -0.0155919 0)
(0.000192159 -0.0162066 0)
(0.00343975 -0.0177953 0)
(0.00757069 -0.0176463 0)
(0.00114743 -0.018603 0)
(6.06556e-05 -0.0221241 0)
(-0.00110908 -0.0264079 0)
(-0.00165567 -0.0283031 0)
(-0.00133349 -0.0226524 0)
(-0.00254804 -0.0208719 0)
(-0.002423 -0.023372 0)
(-0.00206003 -0.0214849 0)
(-0.00176147 -0.0221827 0)
(-0.000322626 -0.0215474 0)
(0.00210287 -0.0186781 0)
(0.004407 -0.0171889 0)
(0.00371006 -0.0142161 0)
(0.00324889 -0.00692117 0)
(-0.000472616 -0.00883277 0)
(-0.00276105 -0.0133402 0)
(-0.000757035 -0.00995898 0)
(0.00443577 -0.00674869 0)
(0.0038575 -0.00776383 0)
(0.00222436 -0.00721203 0)
(-0.00111593 -0.00428384 0)
(-0.00591427 -0.00664629 0)
(-0.00425217 -0.0121938 0)
(-0.00143865 -0.012048 0)
(-0.00164143 -0.0141711 0)
(-0.000921315 -0.0146021 0)
(-0.000181347 -0.01783 0)
(-0.000114857 -0.0162453 0)
(-0.00157032 -0.0102382 0)
(-0.00344395 -0.0124766 0)
(-0.00292183 -0.0158928 0)
(-0.000430536 -0.0148733 0)
(-0.00229733 -0.0138439 0)
(-0.000928086 -0.014036 0)
(0.000583711 -0.0143205 0)
(0.00194362 -0.0167821 0)
(0.00147978 -0.0143018 0)
(0.00347449 -0.0159036 0)
(0.00209489 -0.0197454 0)
(-0.00313194 -0.0155049 0)
(-0.00427077 -0.0103177 0)
(-0.000290382 -0.0104397 0)
(0.00398428 -0.00842952 0)
(0.0024882 -0.0103569 0)
(-0.00178787 -0.0136479 0)
(-0.0002805 -0.0116493 0)
(0.00244456 -0.00665063 0)
(0.00372038 -0.00508785 0)
(7.99151e-05 -0.00840295 0)
(0.000575402 -0.0102662 0)
(0.00147689 -0.0131277 0)
(0.000215963 -0.0150142 0)
(0.000400239 -0.0198787 0)
(0.00341827 -0.0223277 0)
(0.0036816 -0.0216479 0)
(0.00312514 -0.0240909 0)
(0.000853623 -0.0210212 0)
(-8.71747e-05 -0.0208539 0)
(-8.18063e-05 -0.0214224 0)
(-0.00378758 -0.0199547 0)
(-0.000479249 -0.0230306 0)
(0.00158852 -0.0191122 0)
(0.00123986 -0.0189929 0)
(0.000125074 -0.0240464 0)
(-0.00470141 -0.0197755 0)
(-0.00656593 -0.0166597 0)
(-0.00996596 -0.0151643 0)
(-0.000802766 -0.0139788 0)
(0.00098643 -0.0153061 0)
(0.00172776 -0.0193238 0)
(0.000377855 -0.0202603 0)
(0.00198511 -0.0201077 0)
(0.0030912 -0.0185815 0)
(0.00224141 -0.0152992 0)
(0.00200523 -0.0136081 0)
(0.000686839 -0.0107468 0)
(0.00163651 -0.0102371 0)
(0.00256781 -0.0125344 0)
(-0.00042671 -0.01317 0)
(-0.000415271 -0.0139291 0)
(-0.00516221 -0.0121095 0)
(-0.00421872 -0.0125773 0)
(-0.0028018 -0.0155878 0)
(-0.000729369 -0.0161822 0)
(-8.54256e-05 -0.0162546 0)
(-0.00234971 -0.0159577 0)
(-0.00148522 -0.0154674 0)
(0.000964077 -0.0110781 0)
(0.00252246 -0.00414248 0)
(-0.00332325 -0.00532085 0)
(-0.00128649 -0.0125385 0)
(-0.00262549 -0.0121922 0)
(0.00108457 -0.00797669 0)
(0.00409622 -0.0041281 0)
(0.00464253 -0.0017936 0)
(0.00421702 4.63219e-05 0)
(-0.00265016 -0.00501834 0)
(-0.0028416 -0.0124059 0)
(0.000810478 -0.0134648 0)
(0.00125986 -0.0148189 0)
(2.51847e-05 -0.0171054 0)
(0.000391696 -0.0192326 0)
(2.63397e-05 -0.0170864 0)
(0.00123349 -0.0122257 0)
(0.00211753 -0.0138292 0)
(0.00246739 -0.0185306 0)
(0.000725345 -0.0183942 0)
(0.000332676 -0.0184778 0)
(0.00092519 -0.0235073 0)
(0.00118282 -0.0248733 0)
(0.000848462 -0.0250023 0)
(0.00224166 -0.0240482 0)
(0.0035902 -0.0219867 0)
(0.00141101 -0.0191555 0)
(-0.00268332 -0.0158163 0)
(-0.005924 -0.0155575 0)
(-0.00638901 -0.0169696 0)
(-0.00070498 -0.0139545 0)
(0.00242557 -0.0106218 0)
(0.000615445 -0.0140819 0)
(-0.00226169 -0.0164053 0)
(-0.00164333 -0.00917868 0)
(0.00179018 -0.00729332 0)
(0.00402448 -0.0136587 0)
(0.00376403 -0.0124362 0)
(0.0028933 -0.0110362 0)
(0.00418472 -0.0131271 0)
(0.00335727 -0.0166184 0)
(0.00645275 -0.0184132 0)
(0.00438622 -0.0204594 0)
(0.00266046 -0.0202413 0)
(0.00253417 -0.016877 0)
(-0.000869639 -0.0162823 0)
(-0.00250434 -0.0148189 0)
(-0.000710349 -0.0147112 0)
(0.00209106 -0.0173435 0)
(0.00639993 -0.0167348 0)
(0.00247899 -0.0165936 0)
(-0.000560897 -0.0194129 0)
(-0.00561445 -0.0165726 0)
(-0.00488474 -0.0181971 0)
(-0.00550264 -0.0172214 0)
(-0.00424154 -0.0205805 0)
(0.000480188 -0.0248702 0)
(0.00197086 -0.0232541 0)
(0.00169955 -0.024326 0)
(-0.00133284 -0.0217057 0)
(-0.00270492 -0.0178453 0)
(-0.00141273 -0.0155208 0)
(-0.00225387 -0.014614 0)
(-0.000260673 -0.0126383 0)
(0.00214268 -0.0104958 0)
(0.0018376 -0.0120965 0)
(0.00013269 -0.0159063 0)
(0.000645307 -0.0178566 0)
(-0.000563729 -0.0174725 0)
(-0.00218706 -0.0170808 0)
(-0.00246132 -0.0183473 0)
(-0.000850201 -0.0191283 0)
(0.00156338 -0.0168998 0)
(0.000783072 -0.0151364 0)
(0.00105451 -0.0171164 0)
(0.00235475 -0.0162128 0)
(0.0022769 -0.013999 0)
(-0.00204497 -0.00863429 0)
(-0.00384469 -0.00771527 0)
(-0.00669539 -0.00947991 0)
(-0.00312058 -0.00809857 0)
(-0.00222935 -0.00836207 0)
(-0.000927015 -0.00881028 0)
(0.00378534 -0.0028334 0)
(0.00320395 -0.00575182 0)
(0.000961947 -0.0161977 0)
(0.000832858 -0.0159414 0)
(0.00227638 -0.0151102 0)
(0.00140145 -0.0158493 0)
(0.000740288 -0.0181386 0)
(0.000158416 -0.0162848 0)
(0.000471769 -0.0209577 0)
(0.00295605 -0.0187136 0)
(0.000161243 -0.017204 0)
(-0.00170573 -0.0134236 0)
(0.000951641 -0.0119063 0)
(0.00205069 -0.0137884 0)
(0.00309397 -0.0137615 0)
(0.00051298 -0.0147373 0)
(-0.00141513 -0.0171811 0)
(-0.000371759 -0.0170195 0)
(-0.00229242 -0.0150148 0)
(-0.00227805 -0.0158283 0)
(-0.00350322 -0.0201506 0)
(-0.00532718 -0.0212987 0)
(-0.00358592 -0.0189136 0)
(0.00297332 -0.0152662 0)
(0.00227048 -0.016311 0)
(-0.000489436 -0.0172509 0)
(-0.0001815 -0.0177196 0)
(-0.000540316 -0.0154325 0)
(0.0022501 -0.0120011 0)
(0.00156069 -0.0101672 0)
(0.00104867 -0.00994788 0)
(0.00400298 -0.0131395 0)
(0.00556072 -0.0160404 0)
(0.00777754 -0.0183791 0)
(0.00590295 -0.0205009 0)
(0.00234702 -0.0193189 0)
(0.000438632 -0.0186098 0)
(-0.00150554 -0.0188254 0)
(-0.00127008 -0.0126688 0)
(-0.00179319 -0.00935608 0)
(0.00154037 -0.0117985 0)
(0.002156 -0.0110796 0)
(0.00209657 -0.0102288 0)
(-0.00213558 -0.00872633 0)
(-0.00548104 -0.005225 0)
(-0.00250749 -0.00835084 0)
(0.00150256 -0.0123623 0)
(-0.00197796 -0.0189425 0)
(0.00112974 -0.0220178 0)
(0.000236559 -0.0208303 0)
(-0.000331157 -0.0156824 0)
(-0.0027592 -0.0138638 0)
(-0.00359427 -0.0130635 0)
(-0.002087 -0.0136346 0)
(-0.00108509 -0.0168494 0)
(0.00052624 -0.0179638 0)
(0.00279641 -0.0150808 0)
(0.00359176 -0.0171171 0)
(0.00400871 -0.0184579 0)
(-0.000554364 -0.0178785 0)
(-0.00312258 -0.0159656 0)
(-0.00304272 -0.0161438 0)
(-0.00300642 -0.0149819 0)
(-0.00200272 -0.0157051 0)
(-0.00193709 -0.0167538 0)
(-0.00178305 -0.0155659 0)
(5.57381e-05 -0.0162486 0)
(0.00221377 -0.0156449 0)
(-0.00150828 -0.0121669 0)
(-0.00427114 -0.00654848 0)
(-0.00692339 -0.00591662 0)
(-0.00218116 -0.00491556 0)
(-0.00131094 -0.00773774 0)
(0.00172513 -0.0117009 0)
(0.00290322 -0.0133167 0)
(0.00800916 -0.0134416 0)
(0.00759462 -0.0113585 0)
(0.00255237 -0.0158591 0)
(0.000482352 -0.0180699 0)
(0.000796912 -0.0172518 0)
(0.000713068 -0.0172159 0)
(0.000449276 -0.019642 0)
(0.000125742 -0.0169694 0)
(-0.000531433 -0.0143838 0)
(-0.00197641 -0.0143822 0)
(-0.00186169 -0.0167729 0)
(-0.000395366 -0.0199695 0)
(0.000836686 -0.0204934 0)
(0.00212201 -0.0167632 0)
(0.000963394 -0.0133641 0)
(0.00301573 -0.0135329 0)
(0.00421112 -0.0137929 0)
(0.00415242 -0.0154134 0)
(0.000689029 -0.0191114 0)
(-0.000979802 -0.020998 0)
(-0.00249544 -0.0220226 0)
(-0.00511026 -0.0234555 0)
(-0.00459638 -0.0189613 0)
(-0.00143776 -0.0204391 0)
(0.000836756 -0.0256395 0)
(-0.000187803 -0.0270666 0)
(-0.00275038 -0.0251582 0)
(-0.00256461 -0.023497 0)
(-5.74962e-05 -0.0225929 0)
(0.00128951 -0.0200306 0)
(0.00479698 -0.0217066 0)
(0.00651021 -0.0220554 0)
(0.00696144 -0.0200209 0)
(0.00669985 -0.0195679 0)
(0.00444999 -0.0178844 0)
(0.0014481 -0.0152058 0)
(0.00103771 -0.012829 0)
(-0.000951384 -0.0105142 0)
(-0.00571616 -0.00705486 0)
(-0.00937821 -0.00449601 0)
(0.000563192 -0.00194689 0)
(0.00472526 -0.00215098 0)
(0.00119726 -0.00582255 0)
(-0.00420753 -0.00395494 0)
(-0.00235746 -0.00525462 0)
(0.00202813 -0.0153673 0)
(0.00458925 -0.0191154 0)
(0.00375586 -0.0241713 0)
(-2.20927e-05 -0.0249067 0)
(-0.0069373 -0.0161661 0)
(-0.00234669 -0.0109351 0)
(-0.00114179 -0.0139298 0)
(-0.00104915 -0.0166597 0)
(-0.00218513 -0.0180643 0)
(-0.00195989 -0.0199417 0)
(0.000902524 -0.0207497 0)
(0.00409617 -0.0197394 0)
(0.00481297 -0.0191339 0)
(0.00270342 -0.0151456 0)
(-0.00104548 -0.00919255 0)
(-0.00177758 -0.00757462 0)
(-0.00230898 -0.0127095 0)
(-0.00237794 -0.0160562 0)
(0.00127443 -0.0206304 0)
(0.00245181 -0.0219677 0)
(0.00057041 -0.0203175 0)
(0.000964974 -0.0173878 0)
(-0.00314595 -0.0173457 0)
(-0.00679236 -0.0171287 0)
(-0.00738373 -0.0149914 0)
(-0.0021568 -0.0153732 0)
(-0.00125576 -0.0153718 0)
(-0.00553908 -0.0140668 0)
(-0.00229266 -0.0148902 0)
(0.0026843 -0.0166389 0)
(0.00521851 -0.0171912 0)
(0.00726949 -0.0139426 0)
(0.00528435 -0.0140618 0)
(0.0026002 -0.015099 0)
(0.00184022 -0.0150015 0)
(0.00153792 -0.0154702 0)
(0.0012973 -0.0182958 0)
(0.000273828 -0.0163754 0)
(0.00424444 -0.0117586 0)
(0.00232535 -0.0139099 0)
(0.00278518 -0.0199648 0)
(0.00137923 -0.0230392 0)
(0.000183577 -0.0226654 0)
(-0.000974166 -0.0224267 0)
(-0.00202148 -0.0202898 0)
(0.0011835 -0.0184948 0)
(0.00309799 -0.0157766 0)
(0.00203492 -0.0143933 0)
(0.00117022 -0.0155463 0)
(-0.00101774 -0.0149539 0)
(-0.00134365 -0.0147458 0)
(-0.00280351 -0.0153966 0)
(-0.00234116 -0.0140044 0)
(-0.000289586 -0.0142485 0)
(0.0028007 -0.0159489 0)
(0.00175125 -0.0178298 0)
(-0.00329309 -0.0149575 0)
(-0.00349177 -0.017908 0)
(-0.00113087 -0.0203307 0)
(0.00012048 -0.0186331 0)
(0.00387196 -0.0175187 0)
(0.0060411 -0.0172721 0)
(0.0049297 -0.0139087 0)
(0.00408614 -0.0100399 0)
(0.00134296 -0.00827412 0)
(-0.00224218 -0.00689646 0)
(-0.00197586 -0.0088764 0)
(-0.00317254 -0.00764239 0)
(-0.00379658 -0.00888305 0)
(-0.00567675 -0.0100359 0)
(-0.00391616 -0.0114435 0)
(0.00191616 -0.00956577 0)
(0.00150684 -0.00991241 0)
(0.00324339 -0.00901264 0)
(0.00599173 -0.00887637 0)
(0.0053405 -0.0139837 0)
(0.00592597 -0.0139571 0)
(0.00553885 -0.0120266 0)
(-0.00240581 -0.0106546 0)
(-0.00840643 -0.00772484 0)
(-0.00705559 -0.00663123 0)
(-0.00208816 -0.0111877 0)
(-0.000419505 -0.0141139 0)
(-0.00020133 -0.0169062 0)
(0.00131682 -0.0199589 0)
(0.00233744 -0.0195592 0)
(0.000601275 -0.0188101 0)
(-0.00190605 -0.0181896 0)