/*--------------------------------*- C++ -*----------------------------------*\
  =========                 |
  \\      /  F ield         | OpenFOAM: The Open Source CFD Toolbox
   \\    /   O peration     | Website:  https://openfoam.org
    \\  /    A nd           | Version:  12
     \\/     M anipulation  |
\*---------------------------------------------------------------------------*/
FoamFile
{
    format      ascii;
    class       volVectorField;
    location    "0.15";
    object      U.water;
}
// * * * * * * * * * * * * * * * * * * * * * * * * * * * * * * * * * * * * * //

dimensions      [0 1 -1 0 0 0 0];

internalField   nonuniform List<vector> 
3750
(
(0.00152022 0.0168082 0)
(0.0014449 0.0144385 0)
(0.00226271 0.0124033 0)
(0.000724018 0.0114162 0)
(-0.00144871 0.0128237 0)
(-0.00132251 0.0170632 0)
(-0.000984477 0.0169569 0)
(-0.000832345 0.0171577 0)
(-0.000551298 0.0162405 0)
(0.000543232 0.0142322 0)
(-0.000350241 0.0148866 0)
(-0.000116067 0.0153015 0)
(-0.0025912 0.0183669 0)
(-0.00126812 0.0229238 0)
(0.000643213 0.0224167 0)
(0.000186759 0.0210079 0)
(0.00118298 0.0199438 0)
(0.00280961 0.0180904 0)
(0.000552514 0.0160365 0)
(-0.000534159 0.0125803 0)
(0.000959208 0.0117479 0)
(0.000747443 0.0121539 0)
(0.00085479 0.0169366 0)
(-0.00325239 0.0179723 0)
(-0.00210354 0.0141489 0)
(0.000793193 0.0124958 0)
(0.00276267 0.00973717 0)
(0.00283147 0.00640678 0)
(0.0011346 0.00533268 0)
(-0.00103479 0.00547925 0)
(-0.00229628 0.00701856 0)
(-0.00223477 0.00907731 0)
(-0.000490751 0.0110661 0)
(-0.00173239 0.0133927 0)
(-0.00226236 0.0168514 0)
(5.14318e-06 0.017018 0)
(0.000956668 0.0147185 0)
(0.00349458 0.0115612 0)
(0.00193088 0.00582334 0)
(0.00338972 0.000299558 0)
(0.00216659 0.00533158 0)
(-0.000641477 0.0049438 0)
(-0.00190297 0.00132604 0)
(-0.00251025 0.00446895 0)
(-0.000792999 0.00906155 0)
(-0.00119446 0.0111114 0)
(-0.00183666 0.01389 0)
(-0.00203398 0.0142291 0)
(-0.000809288 0.0132604 0)
(-0.00145936 0.0131879 0)
(0.000950573 0.0133589 0)
(-0.00025862 0.0116621 0)
(-0.00201003 0.0129439 0)
(-0.00274963 0.0156304 0)
(-0.00338951 0.016839 0)
(-0.00201794 0.017399 0)
(0.000964482 0.0183569 0)
(0.000551183 0.0161291 0)
(0.00217559 0.0142704 0)
(0.00373539 0.0115588 0)
(0.00407007 0.00897706 0)
(0.00128577 0.00759461 0)
(0.00186673 0.0104056 0)
(0.00106811 0.0153121 0)
(0.00107002 0.0157125 0)
(0.0028241 0.0160131 0)
(0.00101103 0.0179353 0)
(-0.000253401 0.015674 0)
(-0.00209328 0.0146166 0)
(-0.00390978 0.0164662 0)
(-0.00428578 0.0193669 0)
(-0.00174875 0.0207654 0)
(0.00142767 0.0181977 0)
(0.00531558 0.0109236 0)
(0.00453397 0.00286093 0)
(0.00301566 -0.00563194 0)
(0.00237971 -0.00425703 0)
(0.00245827 -0.00236945 0)
(-0.00419891 -0.0045237 0)
(-0.00257218 -0.0040429 0)
(-0.00190373 -0.00570438 0)
(0.00139548 -0.00721425 0)
(0.00164578 -0.00999679 0)
(0.00106708 -0.0113706 0)
(0.00160846 -0.0119885 0)
(-0.000781074 -0.00973915 0)
(-0.00309634 -0.00865317 0)
(-0.00568587 -0.0071899 0)
(-0.00265713 -0.00305377 0)
(0.00112043 -0.00177208 0)
(0.00127454 -0.00398275 0)
(0.000266098 -0.00229173 0)
(0.00197997 -0.00028384 0)
(0.00338683 -0.00175923 0)
(0.00136736 -0.00415801 0)
(0.00124759 -0.00565797 0)
(0.00146505 -0.0062922 0)
(0.00180798 -0.00771304 0)
(-0.00277364 -0.00815497 0)
(-0.000457428 -0.00842556 0)
(0.00359449 -0.00797129 0)
(0.0026801 -0.00916377 0)
(0.00218209 -0.00875487 0)
(0.000652269 -0.00636991 0)
(-0.00132483 -0.00683106 0)
(-0.00160227 -0.0094452 0)
(-0.000602872 -0.0098669 0)
(-0.00156375 -0.0127912 0)
(-0.00120483 -0.0147583 0)
(0.000346044 -0.00866609 0)
(0.00385668 -0.0069744 0)
(0.00338512 -0.00787263 0)
(0.00331277 -0.0112438 0)
(0.00168445 -0.0131223 0)
(0.00366192 -0.0118878 0)
(0.0027739 -0.0093339 0)
(-0.00338964 -0.00639638 0)
(-0.00611369 -0.00731088 0)
(-0.00376133 -0.00619164 0)
(-0.00381581 -0.00563043 0)
(-0.00315026 -0.00653415 0)
(0.000219977 -0.00721794 0)
(0.00240475 -0.00753857 0)
(0.00299056 -0.00908232 0)
(0.00125002 -0.00769756 0)
(0.000740224 -0.0078463 0)
(-0.00146199 -0.0132423 0)
(-0.000804876 -0.0145727 0)
(-3.9155e-05 -0.0160291 0)
(0.000187615 -0.0182353 0)
(0.000118896 -0.0177162 0)
(0.000955891 -0.0164336 0)
(0.00188656 -0.0187212 0)
(0.00215085 -0.020698 0)
(0.000235973 -0.020976 0)
(-0.00234811 -0.0195258 0)
(-0.00390997 -0.0185932 0)
(-0.00490794 -0.0170396 0)
(-0.00672518 -0.0144016 0)
(-0.00663645 -0.0122231 0)
(-0.00206138 -0.0104194 0)
(-0.00112498 -0.00938377 0)
(0.00342836 -0.00939274 0)
(0.00170849 -0.01159 0)
(0.000169979 -0.0122274 0)
(0.000408396 -0.0126466 0)
(0.00245588 -0.011452 0)
(0.00663741 -0.0107375 0)
(0.00869572 -0.0111225 0)
(0.00417564 -0.010269 0)
(-0.000236892 -0.0087445 0)
(0.00138731 -0.00665317 0)
(0.00317256 -0.00718968 0)
(0.00152191 -0.00503904 0)
(0.000264327 -0.00934674 0)
(-0.000616212 -0.0140604 0)
(0.00129782 -0.0128791 0)
(0.00235537 -0.0125104 0)
(0.00209823 -0.0140537 0)
(0.0015975 -0.0137856 0)
(-0.00243037 -0.011758 0)
(-0.00588004 -0.0127601 0)
(-0.00536458 -0.0149601 0)
(-0.00283217 -0.0158158 0)
(-6.09802e-05 -0.0148223 0)
(-0.000748287 -0.0148281 0)
(-0.00175297 -0.0165229 0)
(0.00296481 -0.0138185 0)
(0.00476945 -0.0111071 0)
(0.00213806 -0.0107737 0)
(0.00163841 -0.00979955 0)
(0.00357265 -0.00919896 0)
(0.00158405 -0.0110379 0)
(-0.00132213 -0.0149068 0)
(-0.00039506 -0.0114663 0)
(0.000786208 -0.0107804 0)
(0.00047914 -0.013766 0)
(-0.000309895 -0.0123357 0)
(-0.000224769 -0.0118712 0)
(6.64948e-06 -0.0117496 0)
(0.000737778 -0.00914562 0)
(0.0030023 -0.0111404 0)
(0.00189667 -0.0178259 0)
(-0.00171027 -0.017081 0)
(-0.000261762 -0.00845073 0)
(0.00187359 -0.00848628 0)
(0.000915253 -0.010225 0)
(-0.000736029 -0.00945071 0)
(0.000270042 -0.0110449 0)
(-0.000266487 -0.00905657 0)
(-0.00155205 -0.00732116 0)
(-0.000712862 -0.00819395 0)
(-0.00098589 -0.00689246 0)
(-0.00412577 -0.00620682 0)
(-0.00243935 -0.0106697 0)
(-0.000767678 -0.0159846 0)
(-0.000512262 -0.0178969 0)
(0.000939358 -0.018048 0)
(0.00189672 -0.0179786 0)
(0.00412574 -0.0175323 0)
(0.00251056 -0.018729 0)
(0.00134586 -0.0193601 0)
(0.000603069 -0.018574 0)
(-0.00124891 -0.0195188 0)
(-0.0025824 -0.0174095 0)
(-0.00214945 -0.0158792 0)
(0.00120786 -0.0155749 0)
(0.0021209 -0.0147381 0)
(0.00538897 -0.0103065 0)
(0.00566299 -0.0077121 0)
(0.00164677 -0.00949553 0)
(-0.00144416 -0.0155619 0)
(-0.00276612 -0.0190345 0)
(-0.00343517 -0.0239992 0)
(-0.00189246 -0.0300448 0)
(0.00217457 -0.0289372 0)
(0.00248812 -0.0229557 0)
(0.00291703 -0.0208763 0)
(-0.00333447 -0.0239259 0)
(-0.00547468 -0.0236524 0)
(-0.00506949 -0.0236852 0)
(-0.00109184 -0.0220655 0)
(0.00292255 -0.0211323 0)
(0.00518286 -0.0207814 0)
(0.00300432 -0.0143706 0)
(-0.00368938 -0.00787983 0)
(-0.00337971 -0.00569162 0)
(0.00179883 -0.00786028 0)
(0.00220169 -0.00942577 0)
(-0.0027814 -0.0124609 0)
(-0.00168908 -0.0150609 0)
(0.00252316 -0.0137062 0)
(0.00326274 -0.0135666 0)
(0.00142971 -0.013834 0)
(-0.000946639 -0.0129913 0)
(-0.00142908 -0.0147414 0)
(-0.0012256 -0.0172135 0)
(-0.00178972 -0.0213187 0)
(-0.00149365 -0.0227295 0)
(0.00156034 -0.020847 0)
(0.000185563 -0.0206287 0)
(-0.00219373 -0.0209434 0)
(-0.00197683 -0.0198241 0)
(-0.000436289 -0.0164357 0)
(0.00223691 -0.0150669 0)
(0.0018361 -0.0167325 0)
(0.00359508 -0.0167714 0)
(0.00375349 -0.0176376 0)
(0.00156882 -0.0198303 0)
(0.00129285 -0.0183282 0)
(0.000178328 -0.0185818 0)
(0.00174447 -0.0190671 0)
(-9.02899e-05 -0.0189306 0)
(-0.00155826 -0.0202216 0)
(-0.00155767 -0.0196804 0)
(-0.000870967 -0.019137 0)
(0.0021489 -0.0179814 0)
(0.00191827 -0.015588 0)
(-0.00101039 -0.0105761 0)
(0.00122505 -0.00687541 0)
(0.000933549 -0.00954104 0)
(-0.00300698 -0.00955361 0)
(0.00151651 -0.00969603 0)
(0.00381473 -0.00869705 0)
(-0.000599013 -0.00387932 0)
(-0.00298163 -0.0103169 0)
(-0.000737268 -0.0134209 0)
(0.000178326 -0.0132813 0)
(-0.00233543 -0.016304 0)
(-0.000238749 -0.0190835 0)
(-0.000533955 -0.0197048 0)
(0.00187562 -0.0203863 0)
(0.00363051 -0.0206392 0)
(0.00378867 -0.0202556 0)
(0.00122793 -0.0156806 0)
(0.00112362 -0.0142291 0)
(-0.000319302 -0.0177648 0)
(-0.0002949 -0.0179259 0)
(-0.00246778 -0.016591 0)
(-0.00308299 -0.016915 0)
(0.000128389 -0.0171864 0)
(4.69873e-05 -0.0189573 0)
(-0.00351247 -0.0200228 0)
(-0.00296607 -0.0141773 0)
(-0.000849618 -0.0093275 0)
(0.00246233 -0.00876143 0)
(0.00383348 -0.0122865 0)
(0.00311201 -0.0149478 0)
(0.00329435 -0.0208166 0)
(0.00155431 -0.0205086 0)
(-0.000905048 -0.0163122 0)
(-0.00215581 -0.0124608 0)
(-0.00385386 -0.0127939 0)
(-0.00304779 -0.017674 0)
(-0.00149786 -0.0212696 0)
(-0.00138273 -0.0225511 0)
(-0.000209384 -0.0216377 0)
(0.000994959 -0.0205358 0)
(0.00211741 -0.0209674 0)
(0.00106858 -0.0159351 0)
(-0.00304046 -0.0162914 0)
(0.000101302 -0.0134499 0)
(-0.00140901 -0.018026 0)
(-0.00170808 -0.0232806 0)
(0.000321773 -0.0233334 0)
(0.00116185 -0.0248298 0)
(0.00250362 -0.0225286 0)
(0.00219866 -0.0185343 0)
(0.00313365 -0.0174625 0)
(0.00174666 -0.0184537 0)
(3.81501e-05 -0.0193315 0)
(-0.00132085 -0.021523 0)
(-0.00170197 -0.0250255 0)
(-0.00109281 -0.0277658 0)
(-0.000812398 -0.0281809 0)
(-0.00380612 -0.0259033 0)
(-0.00339527 -0.0243175 0)
(-0.000862804 -0.0263014 0)
(-0.000355994 -0.0266264 0)
(0.00534559 -0.0254303 0)
(0.00513731 -0.0258979 0)
(0.00492327 -0.0243448 0)
(0.00222192 -0.0202572 0)
(0.00144628 -0.0180759 0)
(0.00136988 -0.017497 0)
(-0.000130093 -0.0164239 0)
(0.000418602 -0.0139703 0)
(0.0014161 -0.0134142 0)
(0.00192005 -0.0146192 0)
(-0.000427114 -0.0152597 0)
(-0.00142136 -0.0125712 0)
(-0.000829972 -0.0118425 0)
(-0.00324251 -0.0130552 0)
(-0.00261614 -0.0107351 0)
(0.000868029 -0.00977614 0)
(-0.000425288 -0.013121 0)
(-0.00138063 -0.011392 0)
(7.89183e-05 -0.00798271 0)
(0.00345009 -0.00847591 0)
(0.000945162 -0.00625272 0)
(-0.000112321 -0.0130492 0)
(-0.000146418 -0.0170818 0)
(6.98786e-05 -0.0184213 0)
(-0.00113045 -0.0172841 0)
(-0.000475023 -0.0167124 0)
(-0.000395987 -0.0153561 0)
(-4.924e-05 -0.012547 0)
(0.000948188 -0.011743 0)
(-0.000735878 -0.00801928 0)
(-0.00132181 -0.00161632 0)
(0.00152049 -0.00209254 0)
(0.002945 -0.00930065 0)
(6.26075e-05 -0.00964015 0)
(-0.00208634 -0.00959029 0)
(-0.00230159 -0.0105238 0)
(0.0022692 -0.0139852 0)
(0.00219828 -0.0154148 0)
(0.000778045 -0.0186405 0)
(-0.000756026 -0.0214293 0)
(0.000394173 -0.0205279 0)
(0.00276749 -0.0160224 0)
(0.00354006 -0.014535 0)
(0.00355095 -0.0171468 0)
(0.00434578 -0.0202914 0)
(0.00564138 -0.0184339 0)
(-0.000372096 -0.0155023 0)
(3.54483e-05 -0.013883 0)
(-0.00469074 -0.0171263 0)
(-0.00179615 -0.0252321 0)
(-0.000891745 -0.0259445 0)
(-0.00235389 -0.0245297 0)
(-0.00205297 -0.0212502 0)
(-0.000536468 -0.0202204 0)
(0.000218815 -0.0208426 0)
(0.000292287 -0.016612 0)
(-0.00306873 -0.0155061 0)
(0.001079 -0.0198223 0)
(0.000240685 -0.0249436 0)
(0.0023961 -0.0198498 0)
(-0.00119541 -0.0191368 0)
(-0.00322663 -0.0233202 0)
(-0.00260279 -0.021026 0)
(6.97792e-05 -0.0185932 0)
(0.000335935 -0.0176147 0)
(0.00184131 -0.0183538 0)
(0.00123185 -0.016516 0)
(0.000178855 -0.0171431 0)
(0.00292522 -0.0202404 0)
(0.00303344 -0.0224681 0)
(0.000597395 -0.0236238 0)
(0.000329159 -0.0203996 0)
(-0.00035908 -0.0176539 0)
(-0.00222717 -0.0234736 0)
(-0.000293459 -0.0232831 0)
(0.00050636 -0.0213786 0)
(0.000203144 -0.0227274 0)
(-0.00259961 -0.0186286 0)
(-0.00277424 -0.0147855 0)
(-0.000514374 -0.0126138 0)
(-8.33877e-05 -0.0121515 0)
(-0.000975106 -0.00906544 0)
(-0.00217083 -0.00716434 0)
(0.00153683 -0.00939545 0)
(-0.00185026 -0.012066 0)
(-0.00347831 -0.012335 0)
(0.000378829 -0.0086469 0)
(0.00182021 -0.00767089 0)
(0.000998362 -0.0100013 0)
(0.0010522 -0.00972445 0)
(0.00187165 -0.00864165 0)
(-0.000958792 -0.0107304 0)
(-0.000339216 -0.0109659 0)
(-0.00200512 -0.0124527 0)
(0.00192686 -0.0165806 0)
(0.00229834 -0.0153553 0)
(0.003078 -0.0155381 0)
(0.00149112 -0.0181628 0)
(0.000350918 -0.0179228 0)
(-0.00188244 -0.0156359 0)
(-0.00277359 -0.0153437 0)
(-0.00316423 -0.0160999 0)
(-0.00350843 -0.0147102 0)
(-0.00116645 -0.014335 0)
(-0.000947019 -0.0158159 0)
(0.00324402 -0.0137137 0)
(0.00212109 -0.0115838 0)
(0.00286612 -0.0134915 0)
(-0.000829026 -0.0115003 0)
(-0.00138382 -0.0124815 0)
(0.00148332 -0.0138097 0)
(0.00454142 -0.0135025 0)
(0.00181539 -0.0156618 0)
(0.000210073 -0.0173911 0)
(-0.00210197 -0.0181654 0)
(-0.00426505 -0.016596 0)
(-0.00262435 -0.0139874 0)
(0.0042908 -0.0123983 0)
(0.00584732 -0.0114014 0)
(0.00569996 -0.011876 0)
(0.00546224 -0.0135488 0)
(0.00247185 -0.0111933 0)
(0.00231705 -0.0110784 0)
(-0.00123758 -0.0201968 0)
(0.00047884 -0.0241338 0)
(-0.00346495 -0.0231129 0)
(-0.0058758 -0.0208426 0)
(-0.00451677 -0.0191691 0)
(-0.00216188 -0.0186278 0)
(-0.0013717 -0.0201108 0)
(-0.000192879 -0.0167001 0)
(-0.00189081 -0.0146757 0)
(-0.00165805 -0.0180077 0)
(-0.00198404 -0.0183238 0)
(0.00140382 -0.0140559 0)
(-0.00174686 -0.0124893 0)
(-0.00245474 -0.0155475 0)
(-0.00154899 -0.0170798 0)
(0.00164455 -0.0154108 0)
(0.000851489 -0.0161565 0)
(0.000369404 -0.0161437 0)
(-0.00110265 -0.0153246 0)
(0.00114749 -0.0147625 0)
(0.00240235 -0.0145364 0)
(0.00174237 -0.0151731 0)
(-0.000441619 -0.0122151 0)
(0.00334334 -0.0103029 0)
(-0.00100795 -0.0118877 0)
(-0.00381144 -0.0103742 0)
(0.00220767 -0.00978339 0)
(2.91774e-05 -0.0112354 0)
(-0.00063363 -0.0100167 0)
(-0.0023653 -0.0107676 0)
(-0.00201237 -0.0105673 0)
(-0.00042409 -0.0105123 0)
(-0.00123963 -0.0100801 0)
(0.000114604 -0.0111185 0)
(0.000388558 -0.0067338 0)
(0.00291049 -0.00321379 0)
(0.00238557 -0.00816317 0)
(-0.00270339 -0.0163423 0)
(-0.00410461 -0.0186943 0)
(-0.000412521 -0.0168156 0)
(-0.000307144 -0.0150077 0)
(0.000550131 -0.0141754 0)
(-0.00156407 -0.0124504 0)
(0.000937757 -0.0117807 0)
(0.00321254 -0.0123364 0)
(0.00301002 -0.013909 0)
(0.00349762 -0.0145135 0)
(0.00375006 -0.0140226 0)
(0.00285513 -0.012028 0)
(0.00037137 -0.0129427 0)
(-0.00132003 -0.013682 0)
(-0.00144549 -0.0139945 0)
(-0.00271415 -0.0149967 0)
(-0.00300304 -0.0163803 0)
(-0.000326879 -0.0167693 0)
(0.00227671 -0.0198941 0)
(0.00116464 -0.0210212 0)
(-0.000816431 -0.0188713 0)
(-0.00254379 -0.0156162 0)
(-0.000186777 -0.0145089 0)
(-0.00029408 -0.0153591 0)
(0.000973282 -0.0160867 0)
(0.000853887 -0.0125393 0)
(0.0031509 -0.0119813 0)
(0.00178236 -0.016106 0)
(0.000604427 -0.0156048 0)
(-0.000751992 -0.0172585 0)
(-0.0040271 -0.0217436 0)
(-0.000539931 -0.0242653 0)
(0.00288543 -0.0223891 0)
(0.00687489 -0.0189678 0)
(0.00632876 -0.0153014 0)
(0.00482328 -0.014278 0)
(0.00507102 -0.0150763 0)
(0.00306177 -0.0162553 0)
(0.0014295 -0.0160644 0)
(0.0028786 -0.0161469 0)
(-0.00502525 -0.0143069 0)
(-0.00641136 -0.0137771 0)
(-0.00486546 -0.015962 0)
(-0.00266288 -0.0172911 0)
(-0.00219426 -0.0193915 0)
(-0.000429254 -0.0169553 0)
(0.00458944 -0.0182349 0)
(-0.00140341 -0.0204741 0)
(-0.00380901 -0.0249755 0)
(-0.00075189 -0.0222057 0)
(0.000562948 -0.0196348 0)
(-0.000130086 -0.0199808 0)
(-0.00135761 -0.0206824 0)
(-0.00175825 -0.0205463 0)
(-0.000339519 -0.0209866 0)
(-3.75488e-05 -0.0180375 0)
(0.00138558 -0.0185629 0)
(0.00244051 -0.0185306 0)
(0.000455818 -0.0166153 0)
(1.66071e-05 -0.0169785 0)
(0.00102804 -0.0148393 0)
(0.00231279 -0.0119839 0)
(-0.0010342 -0.0110778 0)
(-0.00308299 -0.0103161 0)
(-0.00215419 -0.0146934 0)
(-0.00140433 -0.016068 0)
(-0.00254238 -0.015748 0)
(-0.00129205 -0.0149535 0)
(-0.000590027 -0.0151301 0)
(-0.00111617 -0.0152744 0)
(-0.00297223 -0.0126526 0)
(-1.64538e-06 -0.0126849 0)
(-0.00169984 -0.0146281 0)
(-0.00320075 -0.0134802 0)
(0.00532366 -0.0134841 0)
(0.00452366 -0.0169897 0)
(0.00180222 -0.0180082 0)
(-0.00205146 -0.0200902 0)
(-0.00228308 -0.0251946 0)
(-0.00248911 -0.0246901 0)
(-0.00190237 -0.023402 0)
(0.000691739 -0.0241159 0)
(0.00226582 -0.0230545 0)
(0.0018421 -0.0209655 0)
(0.000814487 -0.019325 0)
(0.00215925 -0.0155895 0)
(0.00101125 -0.0130709 0)
(0.00137326 -0.0147682 0)
(0.00217572 -0.017718 0)
(0.00141765 -0.0180019 0)
(-0.000366473 -0.0189241 0)
(-0.00227286 -0.0165783 0)
(0.000650798 -0.0129404 0)
(-0.000471513 -0.018145 0)
(-0.00187081 -0.0224058 0)
(-0.00264517 -0.0205792 0)
(-0.00122262 -0.0173536 0)
(0.0033215 -0.0176597 0)
(0.000582558 -0.0192569 0)
(0.000263042 -0.018221 0)
(0.00174336 -0.0123814 0)
(0.00122819 -0.0096946 0)
(0.00145316 -0.0126454 0)
(0.00252826 -0.011461 0)
(0.00238875 -0.0110026 0)
(0.00113322 -0.0164656 0)
(0.000698444 -0.020104 0)
(-0.000592803 -0.020593 0)
(0.000754193 -0.019882 0)
(0.00190334 -0.0160178 0)
(0.001345 -0.0138384 0)
(0.00244009 -0.0109565 0)
(0.00154537 -0.0125629 0)
(0.000875019 -0.00987269 0)
(-0.00176799 -0.00523318 0)
(-0.00531432 -0.00918955 0)
(-0.00481589 -0.0126282 0)
(-0.000759032 -0.0139492 0)
(-0.000379513 -0.0154086 0)
(-0.000764507 -0.018187 0)
(1.58407e-05 -0.0164907 0)
(0.00598808 -0.0147098 0)
(-0.00149682 -0.0143847 0)
(-0.00310979 -0.0165605 0)
(-0.00404006 -0.0183244 0)
(-0.00375603 -0.017856 0)
(-0.000674654 -0.0159277 0)
(0.000230393 -0.0145298 0)
(0.000382096 -0.0185752 0)
(0.000666321 -0.0222973 0)
(-0.00223065 -0.0203842 0)
(-0.00262026 -0.0182284 0)
(-0.000919397 -0.0184188 0)
(0.00145314 -0.0134921 0)
(-0.00055882 -0.0112611 0)
(-0.00156421 -0.0109619 0)
(-0.00431974 -0.00985167 0)
(-0.00170945 -0.00971479 0)
(0.00134829 -0.0110613 0)
(0.00112606 -0.0146069 0)
(-0.000185401 -0.0154861 0)
(4.78716e-05 -0.015558 0)
(0.000245543 -0.0151662 0)
(-0.00188418 -0.0131109 0)
(-0.00175645 -0.0149362 0)
(-0.00172328 -0.012863 0)
(-0.000243114 -0.0134496 0)
(0.00231464 -0.0231647 0)
(0.00197418 -0.0204288 0)
(0.00220975 -0.018367 0)
(0.00145244 -0.0181673 0)
(0.00532676 -0.0167668 0)
(0.000459728 -0.0172869 0)
(0.00156483 -0.0190735 0)
(0.000873501 -0.0245637 0)
(-0.000621232 -0.0304716 0)
(-0.000732436 -0.0340407 0)
(0.00112581 -0.0332146 0)
(0.00084396 -0.0302734 0)
(0.000276442 -0.0270098 0)
(-0.000298661 -0.0242139 0)
(-0.000403886 -0.0217399 0)
(0.00365864 -0.0202491 0)
(0.0042181 -0.0200752 0)
(0.00160566 -0.0175243 0)
(-0.00107937 -0.0176964 0)
(0.00121383 -0.0148677 0)
(-0.00145147 -0.0137591 0)
(-0.000324668 -0.021798 0)
(-0.00104189 -0.0271482 0)
(-0.00117576 -0.0292273 0)
(-0.00124451 -0.0240308 0)
(-0.00038417 -0.0230034 0)
(-0.00207459 -0.0241467 0)
(0.000405864 -0.0203218 0)
(-0.000847282 -0.0189627 0)
(-0.00452181 -0.0186797 0)
(-0.00164929 -0.0169827 0)
(0.00283922 -0.0153511 0)
(0.00308426 -0.0166993 0)
(0.0037068 -0.0174733 0)
(0.00422683 -0.0190415 0)
(0.00064935 -0.0186314 0)
(0.00363529 -0.015118 0)
(0.00333941 -0.0144568 0)
(0.00135447 -0.014648 0)
(0.00235056 -0.0137228 0)
(0.00186668 -0.0136326 0)
(0.00272222 -0.0145145 0)
(-0.00327833 -0.0143903 0)
(-0.00251443 -0.0154509 0)
(-0.00143862 -0.0178557 0)
(-0.00164521 -0.0176636 0)
(-0.00136247 -0.0169061 0)
(-0.00121072 -0.0193618 0)
(-0.000165478 -0.0166281 0)
(0.00251979 -0.0134429 0)
(-0.00023301 -0.010443 0)
(-0.000126336 -0.00850304 0)
(-0.000616328 -0.0104177 0)
(-0.00120552 -0.0109281 0)
(-0.00144617 -0.00779701 0)
(0.000462377 -0.00786159 0)
(0.00341229 -0.010754 0)
(0.00292808 -0.0127065 0)
(-0.00176295 -0.014904 0)
(-0.00353446 -0.0179134 0)
(-0.00167925 -0.0154569 0)
(-0.00139243 -0.0121753 0)
(-0.000690777 -0.0109411 0)
(0.000620908 -0.0129381 0)
(-0.00151486 -0.0189565 0)
(-0.00109919 -0.0203682 0)
(0.00215256 -0.0184488 0)
(0.0019696 -0.0175611 0)
(-0.00227395 -0.0179432 0)
(0.00104274 -0.0181483 0)
(0.000616889 -0.0213303 0)
(-0.000569537 -0.0175681 0)
(-0.00295753 -0.0178893 0)
(0.000794252 -0.023512 0)
(-0.00141763 -0.0237423 0)
(0.00376297 -0.028534 0)
(0.00236056 -0.0297428 0)
(-0.00211594 -0.031014 0)
(-0.000277561 -0.0253188 0)
(0.00231396 -0.0220064 0)
(0.000954838 -0.0237803 0)
(0.00198434 -0.0214305 0)
(0.00444792 -0.023786 0)
(0.00246866 -0.0248085 0)
(0.00353263 -0.0256011 0)
(0.000954002 -0.0262646 0)
(-0.00224588 -0.0221516 0)
(-0.00287838 -0.019711 0)
(-0.00252144 -0.0171586 0)
(-0.00372286 -0.0160159 0)
(0.000208288 -0.0165863 0)
(0.000649549 -0.0154679 0)
(0.00143206 -0.015721 0)
(0.00098368 -0.0165997 0)
(0.00471543 -0.0173926 0)
(0.00168183 -0.0135548 0)
(0.00236434 -0.0150095 0)
(0.00138282 -0.0221303 0)
(9.94262e-05 -0.0262871 0)
(0.000652555 -0.0260787 0)
(-0.00256491 -0.025716 0)
(-0.00268065 -0.0210734 0)
(-0.00276325 -0.0191746 0)
(-0.00285724 -0.0222865 0)
(-0.00397185 -0.0230072 0)
(-0.00142668 -0.0230498 0)
(0.00218665 -0.0198076 0)
(0.00410906 -0.0178724 0)
(0.00355025 -0.0152349 0)
(0.00492321 -0.01346 0)
(-0.0020385 -0.00894273 0)
(-0.000879686 -0.00866924 0)
(0.000604613 -0.0122347 0)
(0.00493421 -0.0055176 0)
(0.00374472 -0.00248163 0)
(0.000606381 -0.00313393 0)
(-1.28686e-05 -0.00821095 0)
(-0.00381111 -0.0115859 0)
(-0.00361417 -0.0115679 0)
(-0.00129265 -0.0114073 0)
(-0.00157594 -0.013712 0)
(-0.000870458 -0.0142891 0)
(-0.000173325 -0.0175716 0)
(-0.000107435 -0.0159699 0)
(-5.54365e-05 -0.0112891 0)
(-0.00292181 -0.01202 0)
(-0.0034095 -0.0147138 0)
(-0.00228449 -0.0145546 0)
(-0.00483219 -0.0128893 0)
(-0.00230052 -0.0130013 0)
(0.00347059 -0.0146388 0)
(0.0022907 -0.0168185 0)
(0.0014488 -0.0144517 0)
(0.00300421 -0.0156498 0)
(0.00136635 -0.0181103 0)
(-0.00311426 -0.0170436 0)
(-0.00546641 -0.01672 0)
(-0.000978229 -0.0137076 0)
(0.00397928 -0.00685994 0)
(0.00214717 -0.00874113 0)
(-0.00275467 -0.0133256 0)
(-0.00185515 -0.0109005 0)
(0.00148209 -0.00747848 0)
(0.000475773 -0.00103107 0)
(0.00149186 -0.00317699 0)
(0.00256272 -0.0105726 0)
(0.00349706 -0.0121395 0)
(-0.00253815 -0.0158278 0)
(0.00179856 -0.0222362 0)
(0.00213519 -0.0190545 0)
(0.00392537 -0.0193771 0)
(0.00425114 -0.025285 0)
(0.000454928 -0.0272054 0)
(0.00133602 -0.0235861 0)
(-0.0020137 -0.0186607 0)
(-0.00158902 -0.0189746 0)
(-0.000184766 -0.0179242 0)
(0.000608602 -0.0222313 0)
(0.000664664 -0.0208941 0)
(0.000224919 -0.019512 0)
(-0.00420921 -0.0191731 0)
(-0.00727568 -0.0173791 0)
(-0.00533528 -0.0180151 0)
(-0.00108963 -0.0162955 0)
(0.00135282 -0.0116303 0)
(0.00222872 -0.0156172 0)
(0.00104462 -0.02108 0)
(0.00264303 -0.0203379 0)
(0.00367357 -0.018882 0)
(0.00279118 -0.0158558 0)
(0.00281869 -0.00903363 0)
(8.57843e-05 -0.0055005 0)
(0.00150358 -0.0105701 0)
(0.00240703 -0.01311 0)
(-0.000420053 -0.0122775 0)
(-0.00211592 -0.0147551 0)
(-0.00209318 -0.0131388 0)
(-0.00597024 -0.0121795 0)
(-0.00401094 -0.0159988 0)
(-0.00206814 -0.0169427 0)
(-0.00122828 -0.0173301 0)
(-0.00313762 -0.0168151 0)
(-0.00241535 -0.0160404 0)
(-2.48178e-05 -0.0116893 0)
(0.00238321 -0.00970691 0)
(0.00177253 -0.00542335 0)
(-0.00160322 -0.00785202 0)
(-0.000716327 -0.0128094 0)
(0.00342663 -0.00717689 0)
(0.00412355 -0.00158869 0)
(0.00316079 -1.58322e-06 0)
(0.00202653 -0.00165654 0)
(-0.00176633 -0.00764253 0)
(-0.00209915 -0.0126596 0)
(0.00112411 -0.0131489 0)
(0.00138318 -0.0145041 0)
(9.50536e-05 -0.0167928 0)
(0.000414923 -0.0189593 0)
(3.66563e-05 -0.0168049 0)
(0.00194462 -0.0128563 0)
(0.0025643 -0.0142077 0)
(0.00229648 -0.0186491 0)
(6.31058e-05 -0.0200729 0)
(-0.000113286 -0.0173362 0)
(7.1038e-05 -0.0184759 0)
(0.00134175 -0.0238511 0)
(0.000745324 -0.0269537 0)
(0.00186894 -0.0247836 0)
(0.00255119 -0.0221312 0)
(-0.000663696 -0.0186881 0)
(-0.00558137 -0.0169486 0)
(-0.005853 -0.0190788 0)
(-0.00400705 -0.0194791 0)
(0.00174823 -0.0135799 0)
(0.0011428 -0.0102501 0)
(-0.000937141 -0.014971 0)
(-0.00386467 -0.0153544 0)
(-0.00379359 -0.00971687 0)
(0.00420497 -0.00308366 0)
(0.00311692 -0.00630791 0)
(0.00391625 -0.0120052 0)
(0.00370488 -0.0115954 0)
(0.00363786 -0.0135082 0)
(0.00509008 -0.016872 0)
(0.00821718 -0.0172812 0)
(0.00277513 -0.0194318 0)
(0.0024177 -0.0206375 0)
(0.00209152 -0.0194499 0)
(0.00403182 -0.0178499 0)
(3.22744e-05 -0.01535 0)
(-0.000519953 -0.0149352 0)
(0.00126477 -0.0156377 0)
(0.00213692 -0.0174846 0)
(0.00394 -0.0169163 0)
(-0.00341145 -0.0166666 0)
(-0.00463792 -0.0149554 0)
(-0.00675436 -0.0165499 0)
(-0.00266732 -0.0200869 0)
(-0.00212739 -0.0235456 0)
(0.00329737 -0.0218833 0)
(0.00131468 -0.0211877 0)
(0.00178085 -0.0237746 0)
(-0.000941877 -0.0215581 0)
(-0.00207809 -0.01806 0)
(-0.000467008 -0.0148963 0)
(-5.94944e-05 -0.0114953 0)
(-0.0013487 -0.0095807 0)
(0.000708925 -0.00986524 0)
(0.00133872 -0.0118583 0)
(-2.12019e-05 -0.0155718 0)
(-0.00034267 -0.0181039 0)
(-0.000426493 -0.0179424 0)
(-0.00291578 -0.0173906 0)
(-0.00332027 -0.0188205 0)
(-0.00175316 -0.0197808 0)
(0.000544365 -0.0178848 0)
(-0.00023622 -0.0163991 0)
(-0.000509579 -0.0181365 0)
(-0.000773247 -0.0166235 0)
(0.00143528 -0.0137272 0)
(0.00285542 -0.00876674 0)
(-0.00238339 -0.00643926 0)
(-0.0023606 -0.0090607 0)
(-0.00256645 -0.00860321 0)
(-0.00240813 -0.00664487 0)
(-0.00199986 -0.00679081 0)
(0.00252348 -0.0043063 0)
(0.00349067 -0.00814388 0)
(0.00132587 -0.0160464 0)
(0.00115262 -0.0157033 0)
(0.00241401 -0.0148751 0)
(0.00145929 -0.0156184 0)
(0.000775237 -0.0179314 0)
(0.000166434 -0.0160503 0)
(0.00109456 -0.0211376 0)
(0.00332535 -0.0188381 0)
(0.000271801 -0.0170362 0)
(-0.00114711 -0.0135127 0)
(0.00323261 -0.0112921 0)
(0.00208912 -0.0122169 0)
(0.000795184 -0.0133735 0)
(-0.000482274 -0.0156168 0)
(-0.00208251 -0.0181329 0)
(-0.00179356 -0.0180326 0)
(-0.00555363 -0.015282 0)
(-0.0039175 -0.0157574 0)
(-0.00195498 -0.0216149 0)
(-0.00484679 -0.0224701 0)
(0.00091159 -0.0204014 0)
(0.000409352 -0.0173168 0)
(0.000142055 -0.0165838 0)
(-0.00218626 -0.0173029 0)
(-0.00100911 -0.0143815 0)
(0.00251677 -0.00978028 0)
(0.000642581 -0.00895902 0)
(0.000437169 -0.00873323 0)
(0.00261632 -0.00959989 0)
(0.00396734 -0.0129546 0)
(0.00582758 -0.0157832 0)
(0.0082546 -0.0180537 0)
(0.00571869 -0.0200364 0)
(0.00209901 -0.0194452 0)
(0.000283812 -0.0194776 0)
(-1.651e-06 -0.0186398 0)
(0.000639193 -0.0147478 0)
(-0.000299554 -0.0114895 0)
(0.000754417 -0.0109485 0)
(0.000563632 -0.01142 0)
(0.00101686 -0.0105162 0)
(-0.000452067 -0.00491508 0)
(-0.00518795 -0.00430137 0)
(-0.00413012 -0.00764855 0)
(-0.000545004 -0.0116091 0)
(0.000224502 -0.0212455 0)
(0.00271176 -0.0207289 0)
(0.00157451 -0.0194294 0)
(-0.000239156 -0.0152681 0)
(-0.00258614 -0.0137044 0)
(-0.00295283 -0.0130013 0)
(-0.00090102 -0.0128709 0)
(-0.000153851 -0.014658 0)
(6.73305e-05 -0.0160489 0)
(0.00198971 -0.0144369 0)
(0.00308261 -0.0163603 0)
(0.00447721 -0.0179487 0)
(-7.91286e-05 -0.0181777 0)
(-0.00349866 -0.0166163 0)
(-0.00374756 -0.0166483 0)
(-0.00366755 -0.015633 0)
(-0.00276892 -0.0166392 0)
(-0.00269511 -0.0178284 0)
(-0.00244828 -0.0170538 0)
(-0.000525131 -0.0189047 0)
(0.00202501 -0.0154472 0)
(0.000114233 -0.00949013 0)
(0.00126212 -0.00429943 0)
(-0.00337555 -0.00207394 0)
(-0.000280339 -0.00707474 0)
(-0.000321714 -0.011621 0)
(0.0013756 -0.0109609 0)
(0.001547 -0.0125409 0)
(0.00599431 -0.013228 0)
(0.00777976 -0.0121322 0)
(0.00268917 -0.0163097 0)
(0.000700005 -0.0179027 0)
(0.000948991 -0.0170456 0)
(0.000805663 -0.0170058 0)
(0.000506196 -0.0194292 0)
(0.000140792 -0.0167559 0)
(0.00018623 -0.0148472 0)
(-0.00168268 -0.0150434 0)
(-0.0019168 -0.0170569 0)
(-0.000609875 -0.019637 0)
(0.00176622 -0.0195175 0)
(0.00230078 -0.0159182 0)
(0.000418979 -0.013337 0)
(0.00263706 -0.0141027 0)
(0.00388339 -0.0152511 0)
(0.00364063 -0.0184172 0)
(0.000212091 -0.0191037 0)
(-0.00136641 -0.0172057 0)
(-0.0027122 -0.0234707 0)
(-0.00491302 -0.0231672 0)
(-0.00438499 -0.0217076 0)
(-0.00218453 -0.0263718 0)
(-0.00107539 -0.0257662 0)
(0.00182512 -0.0250174 0)
(-0.000781792 -0.0208969 0)
(-0.00316267 -0.0196351 0)
(-0.00140134 -0.0192302 0)
(4.76644e-05 -0.0164898 0)
(0.00294067 -0.0211615 0)
(0.00425496 -0.0235728 0)
(0.00693715 -0.0195778 0)
(0.00928371 -0.0185191 0)
(0.00538658 -0.0174107 0)
(0.00207701 -0.0155956 0)
(0.000181074 -0.0135564 0)
(-0.00275963 -0.0100599 0)
(-0.00465084 -0.00750056 0)
(-0.00546164 -0.00736788 0)
(0.000482643 -0.00355111 0)
(0.00509467 -0.00322107 0)
(0.0021336 -0.00273581 0)
(-0.00202401 -0.000109479 0)
(-0.00347325 -0.00743483 0)
(0.000383333 -0.0161783 0)
(0.00103702 -0.0181227 0)
(0.00250637 -0.0234208 0)
(-0.000702819 -0.0222922 0)
(-0.00272271 -0.0150744 0)
(-0.00232413 -0.0116376 0)
(-0.000484657 -0.0136702 0)
(-0.000474422 -0.016171 0)
(-0.00142661 -0.0172127 0)
(-0.00151913 -0.0184995 0)
(0.000588029 -0.0195415 0)
(0.00325775 -0.0189348 0)
(0.00270662 -0.0172303 0)
(0.00447106 -0.0134066 0)
(0.000541482 -0.0103923 0)
(-0.0026816 -0.00949364 0)
(-0.00304317 -0.0133577 0)
(-0.0026368 -0.0167424 0)
(0.000832229 -0.0215432 0)
(0.00171612 -0.0228756 0)
(-0.000124676 -0.0211594 0)
(0.000434847 -0.017776 0)
(-0.000933114 -0.0153302 0)
(-0.00478236 -0.0114103 0)
(0.00105369 -0.0135076 0)
(-0.0018532 -0.017861 0)
(-0.00371237 -0.0175246 0)
(-0.00414853 -0.0168876 0)
(-0.00270887 -0.0157955 0)
(0.000504628 -0.0163327 0)
(0.00424451 -0.0165094 0)
(0.00689839 -0.0138269 0)
(0.00527318 -0.0140964 0)
(0.00268613 -0.0150356 0)
(0.00194319 -0.0148783 0)
(0.00161021 -0.0153499 0)
(0.00133216 -0.0181641 0)
(0.000277193 -0.0162169 0)
(0.00467831 -0.011824 0)
(0.00245723 -0.0152185 0)
(0.00228461 -0.0206981 0)
(-0.000331251 -0.0220665 0)
(0.00184179 -0.0213725 0)
(-0.000747599 -0.0221325 0)
(-0.00212209 -0.0203405 0)
(0.00118339 -0.01879 0)
(0.00327882 -0.0166263 0)
(0.00298632 -0.0155876 0)
(0.00368646 -0.0156805 0)
(-0.000643784 -0.014418 0)
(-0.00335793 -0.0156494 0)
(-0.0024952 -0.0164076 0)
(-0.00568543 -0.016911 0)
(0.00126364 -0.0184599 0)
(0.00394236 -0.0132396 0)
(0.00422345 -0.0139573 0)
(-0.00219646 -0.0145055 0)
(-0.00407856 -0.0160813 0)
(-0.00267699 -0.0179905 0)
(-0.00105491 -0.0174972 0)
(0.000989652 -0.0181232 0)
(0.00445919 -0.0151877 0)
(0.00585906 -0.00867796 0)
(0.00506313 -0.0086492 0)
(0.00195867 -0.00977691 0)
(-0.000986038 -0.00901394 0)
(-0.00314129 -0.0121478 0)
(-0.00372589 -0.00586139 0)
(-0.00421037 -0.00587858 0)
(-0.00445741 -0.0137661 0)
(-0.00253001 -0.0140364 0)
(0.00315635 -0.00870235 0)
(0.0043307 -0.00851923 0)
(0.00227481 -0.00738471 0)
(0.00288498 -0.011697 0)
(0.00473087 -0.0153361 0)
(0.00513195 -0.0123052 0)
(0.00490663 -0.0110316 0)
(-0.0038241 -0.0039148 0)
(-0.00541631 -0.00617758 0)
(-0.00534532 -0.0100027 0)
(-0.000828191 -0.0106121 0)
(0.000369232 -0.0140226 0)
(0.000243448 -0.0164425 0)
(0.00125713 -0.0189206 0)
(0.00252725 -0.0189006 0)
(0.000680938 -0.0195744 0)
(-0.00120759 -0.0144529 0)