/*--------------------------------*- C++ -*----------------------------------*\
  =========                 |
  \\      /  F ield         | OpenFOAM: The Open Source CFD Toolbox
   \\    /   O peration     | Website:  https://openfoam.org
    \\  /    A nd           | Version:  12
     \\/     M anipulation  |
\*---------------------------------------------------------------------------*/
FoamFile
{
    format      ascii;
    class       IOPosition;
    location    "1/lagrangian/cloud";
    object      positions;
}
// * * * * * * * * * * * * * * * * * * * * * * * * * * * * * * * * * * * * * //

1541
(
(0.311532 0.0325091 0.311725 0.344234) 0 15075 1
(0.356137 0.321932 0.0157906 0.306141) 1 3 2
(0.00532462 0.497338 0.23621 0.261128) 2 5 2
(0.0348873 0.289847 0.482556 0.192709) 78 7 1
(0.205998 0.397001 0.137799 0.259202) 2 2 1
(0.307807 0.346097 0.245668 0.100429) 2 4 1
(0.498364 0.217705 0.250818 0.033113) 3 7378 2
(0.489831 0.255084 0.201424 0.05366) 4 7379 1
(0.549243 0.139254 0.0861243 0.225379) 5 11 1
(0.367142 0.316429 0.288158 0.0282713) 6 13 2
(0.351911 0.324044 0.0858339 0.23821) 7 15 2
(0.276934 0.00761566 0.353917 0.361533) 8 14 2
(0.224821 0.387589 0.0935369 0.294052) 9 19 2
(0.457667 0.271167 0.0129199 0.258247) 10 21 2
(0.366749 0.316625 0.256698 0.0599277) 11 23 2
(0.345911 0.327044 0.304095 0.022949) 12 25 2
(0.42861 0.155532 0.285695 0.130164) 12 7387 2
(0.477106 0.261447 0.0487202 0.212727) 13 24 1
(0.176396 0.411802 0.21728 0.194522) 13 26 1
(0.472108 0.0349514 0.263946 0.228994) 14 7389 2
(0.452805 0.273598 0.186477 0.0871206) 16 32 1
(0.401969 0.299015 0.232216 0.0668) 19 39 2
(0.36968 0.31516 0.0441819 0.270978) 20 41 2
(0.374356 0.312822 0.0406401 0.272182) 21 43 2
(0.281939 0.359031 0.0107594 0.348271) 22 45 2
(0.435844 0.282078 0.207015 0.0750629) 22 7397 1
(0.0924358 0.453782 0.18522 0.268562) 23 44 1
(0.155251 0.422375 0.11102 0.311354) 24 46 1
(0.620314 0.189843 0.0260296 0.163813) 25 48 1
(0.238969 0.380516 0.271649 0.108867) 26 53 2
(0.385905 0.307047 0.0484601 0.258587) 27 55 2
(0.657415 0.171293 0.145708 0.0255846) 28 7403 1
(0.204562 0.0922708 0.397719 0.305448) 103 57 1
(0.217068 0.0862045 0.391466 0.305262) 29 58 2
(0.368929 0.0540347 0.261501 0.315535) 30 61 1
(0.43087 0.284565 0.0722772 0.212288) 31 7406 1
(0.18626 0.40687 0.289143 0.117727) 106 211 1
(0.08269 0.452694 0.00596135 0.458655) 32 65 1
(0.105942 0.447029 0.0526049 0.394424) 33 67 2
(0.188317 0.260024 0.145817 0.405842) 33 67 1
(0.0867187 0.456641 0.0141501 0.442491) 34 69 2
(0.448509 0.137424 0.275746 0.138321) 34 7409 2
(0.490744 0.254628 0.0462208 0.208407) 35 7410 1
(0.433424 0.283288 0.15713 0.126158) 36 7411 1
(0.441631 0.279184 0.2242 0.0549845) 37 7412 1
(0.24352 0.300593 0.37824 0.0776469) 112 75 1
(0.247554 0.376223 0.250534 0.125689) 38 77 2
(0.527979 0.0338056 0.236011 0.202205) 75 1 1
(0.0415619 0.458582 0.0206367 0.479219) 76 152 1
(0.108105 0.445948 0.0274089 0.418539) 77 153 1
(0.186725 0.406638 0.258291 0.148346) 79 155 1
(0.209103 0.334081 0.395448 0.0613673) 80 11 1
(0.0306194 0.48469 0.375243 0.109448) 153 304 1
(0.599993 0.0311242 0.200004 0.168879) 152 154 1
(0.0716215 0.0503844 0.413805 0.464189) 79 158 1
(0.142935 0.14448 0.284053 0.428533) 80 160 1
(0.256795 0.371602 0.144882 0.226721) 81 162 2
(0.339931 0.168554 0.161481 0.330035) 81 162 1
(0.0787291 0.0839764 0.376659 0.460635) 82 161 2
(0.558256 0.220872 0.10377 0.117102) 82 164 2
(0.116028 0.441986 0.316465 0.125521) 85 169 1
(0.555135 0.222432 0.146959 0.0754738) 87 25 2
(0.150613 0.424693 0.0422014 0.382492) 89 175 1
(0.172454 0.413773 0.336732 0.077041) 90 31 2
(0.0635102 0.103128 0.365116 0.468245) 16 30 2
(0.164019 0.41799 0.129017 0.288973) 92 35 2
(0.069447 0.465276 0.0776181 0.387658) 90 180 2
(0.199491 0.141627 0.258627 0.400255) 90 180 1
(0.258656 0.370672 0.304249 0.0664233) 91 182 2
(0.388661 0.251718 0.30567 0.0539515) 95 41 1
(0.167137 0.416431 0.304101 0.11233) 98 47 2
(0.00865426 0.456098 0.0395749 0.495673) 24 49 1
(0.188408 0.405796 0.240503 0.165293) 94 188 2
(0.182436 0.408782 0.0288833 0.379899) 170 190 2
(0.15583 0.371002 0.422085 0.0510829) 171 192 1
(0.0143946 0.458191 0.0346116 0.492803) 97 194 1
(0.218851 0.390575 0.179525 0.21105) 98 196 2
(0.216612 0.222351 0.169342 0.391694) 98 196 1
(0.160449 0.00286688 0.416909 0.419775) 99 195 2
(0.298687 0.350657 0.271519 0.0791379) 99 198 2
(0.343062 0.192612 0.328469 0.135857) 102 55 1
(0.511237 0.135636 0.244382 0.108746) 104 59 1
(0.637235 0.181383 0.117431 0.0639514) 105 61 2
(0.243695 0.378152 0.229411 0.148742) 106 209 1
(0.267856 0.366072 0.108953 0.257118) 181 212 2
(0.0519938 0.474003 0.20258 0.271423) 182 360 1
(0.658292 0.170854 0.120913 0.0499416) 182 362 1
(0.306513 0.346743 0.312983 0.0337604) 109 215 1
(0.467369 0.0423895 0.266316 0.223926) 109 217 2
(0.205607 0.397196 0.0629493 0.334247) 180 359 2
(0.0127387 0.0868769 0.406754 0.493631) 180 359 1
(0.239855 0.380072 0.185517 0.194555) 226 301 2
(0.252052 0.373974 0.0506801 0.323294) 227 449 1
(0.193996 0.403002 0.240302 0.1627) 153 305 2
(0.200832 0.0294933 0.370091 0.399584) 155 306 2
(0.489698 0.255151 0.0614779 0.193673) 157 310 1
(0.12277 0.438615 0.10574 0.332875) 158 312 1
(0.141172 0.0174566 0.429414 0.411957) 158 166 1
(0.212919 0.181877 0.393541 0.211664) 159 168 1
(0.0236363 0.488182 0.290913 0.197268) 86 172 2
(0.0404755 0.158594 0.321169 0.479762) 88 176 1
(0.105885 0.447058 0.00967781 0.43738) 234 317 2
(0.283561 0.35822 0.101426 0.256794) 160 319 2
(0.0955417 0.0659261 0.452229 0.386303) 160 318 2
(0.231535 0.384233 0.351738 0.0324951) 161 321 2
(0.0982736 0.0893033 0.450863 0.36156) 161 320 2
(0.252034 0.373983 0.311436 0.0625469) 162 323 2
(0.078396 0.0958614 0.460802 0.364941) 162 322 2
(0.222819 0.388591 0.333584 0.0550068) 163 325 2
(0.0563926 0.086016 0.471804 0.385788) 163 324 2
(0.166584 0.342296 0.0744122 0.416708) 164 327 1
(0.225321 0.38734 0.167455 0.219885) 165 329 2
(0.376906 0.0500289 0.311547 0.261518) 166 330 2
(0.414438 0.260215 0.0325654 0.292781) 168 335 1
(0.070149 0.101512 0.363413 0.464925) 169 337 1
(0.107044 0.08204 0.364438 0.446478) 170 339 1
(0.137947 0.108159 0.322867 0.431027) 171 341 1
(0.421602 0.289199 0.178569 0.11063) 174 344 1
(0.355296 0.322352 0.000198606 0.322153) 175 346 1
(0.0683876 0.465806 0.447363 0.0184433) 177 204 2
(0.0719643 0.464018 0.437279 0.0267384) 177 352 1
(0.0455847 0.245661 0.231547 0.477208) 175 349 1
(0.258561 0.0681672 0.302552 0.370719) 176 351 1
(0.422351 0.288824 0.0687387 0.220086) 178 206 2
(0.10474 0.44763 0.172915 0.274716) 179 354 1
(0.550684 0.224658 0.141048 0.0836098) 179 356 1
(0.18458 0.273088 0.134622 0.40771) 225 448 1
(0.132433 0.433784 0.328553 0.105231) 301 598 1
(0.0890041 0.455498 0.149919 0.305579) 227 451 1
(0.160609 0.419696 0.293787 0.125908) 228 453 1
(0.754822 0.0363191 0.122589 0.08627) 229 307 1
(0.48711 0.231524 0.256445 0.0249214) 230 309 1
(0.312343 0.339911 0.343829 0.00391715) 231 311 1
(0.021104 0.489448 0.377951 0.111497) 158 315 2
(0.262161 0.368919 0.0276939 0.341226) 306 606 1
(0.0111199 0.0734796 0.49444 0.42096) 231 459 2
(0.188444 0.405778 0.359188 0.0465901) 232 462 2
(0.0136571 0.111268 0.381903 0.493171) 233 461 2
(0.035228 0.16549 0.316896 0.482386) 233 464 1
(0.142118 0.422551 0.00638962 0.428941) 234 466 1
(0.0286705 0.0640284 0.485665 0.421636) 234 465 2
(0.229385 0.338827 0.0464803 0.385308) 235 468 1
(0.221071 0.389465 0.233145 0.15632) 236 470 2
(0.179368 0.410316 0.232755 0.177561) 237 472 2
(0.180644 0.409678 0.268729 0.140948) 238 474 2
(0.180657 0.409672 0.336382 0.0732894) 239 476 2
(0.348239 0.325881 0.320022 0.00585863) 240 477 1
(0.299407 0.350297 0.337132 0.0131648) 242 333 2
(0.377998 0.311001 0.0334617 0.277539) 243 335 2
(0.235362 0.382319 0.108582 0.273738) 244 486 2
(0.160412 0.0262075 0.393587 0.419794) 245 485 2
(0.0201388 0.0997632 0.489931 0.390167) 245 487 2
(0.179414 0.0406206 0.410293 0.369673) 246 489 2
(0.253805 0.0589799 0.314118 0.373098) 247 492 1
(0.181555 0.0529299 0.356293 0.409222) 248 494 1
(0.0065587 0.496721 0.239803 0.256918) 250 498 2
(0.796728 0.101636 0.0491898 0.0524462) 251 351 2
(0.409331 0.295334 0.106147 0.189188) 252 353 2
(0.282519 0.35874 0.285712 0.0730286) 252 501 1
(0.340629 0.197504 0.329686 0.132182) 253 355 1
(0.0856482 0.457176 0.255378 0.201798) 300 15079 2
(0.199506 0.400247 0.178873 0.221374) 375 15080 2
(0.0213605 0.48932 0.189918 0.299402) 376 745 1
(0.116785 0.441607 0.437814 0.0037937) 377 601 2
(0.0579571 0.234852 0.236169 0.471021) 302 601 1
(0.0905502 0.454725 0.173778 0.280947) 303 603 2
(0.077954 0.202323 0.2587 0.461023) 303 603 1
(0.114098 0.442951 0.179035 0.263916) 304 605 2
(0.145645 0.123693 0.303484 0.427177) 304 605 1
(0.165267 0.417367 0.131153 0.286214) 305 607 2
(0.0100344 0.494983 0.333698 0.161285) 381 609 2
(0.530398 0.0140047 0.220796 0.234801) 307 608 2
(0.0334684 0.0163691 0.466897 0.483266) 307 611 1
(0.0791774 0.460411 0.0516818 0.408729) 309 615 2
(0.160549 0.240832 0.178893 0.419725) 310 617 1
(0.224561 0.0125096 0.37521 0.387719) 311 619 1
(0.00786331 0.102235 0.496068 0.393834) 312 620 2
(0.0528516 0.0942355 0.379339 0.473574) 314 622 2
(0.0325 0.10799 0.48375 0.37576) 314 624 2
(0.00627785 0.117587 0.379274 0.496861) 316 626 2
(0.207433 0.274492 0.396284 0.121792) 316 480 1
(0.289026 0.355487 0.0644777 0.29101) 317 482 2
(0.257911 0.371045 0.172081 0.198964) 318 484 2
(0.214221 0.0492477 0.392889 0.343642) 318 632 2
(0.392148 0.0547898 0.249136 0.303926) 319 635 1
(0.260417 0.301336 0.0684554 0.369792) 320 637 1
(0.261153 0.369423 0.354263 0.0151603) 321 639 2
(0.0740929 0.0984063 0.364547 0.462954) 322 641 1
(0.09195 0.454025 0.0677725 0.386253) 400 793 1
(0.0476442 0.476178 0.283069 0.193109) 326 649 2
(0.399408 0.300296 0.00344826 0.296848) 327 648 1
(0.0458732 0.477063 0.213172 0.263891) 328 650 1
(0.374896 0.312552 0.22606 0.0864918) 328 652 1
(0.364195 0.181584 0.317902 0.136318) 329 506 1
(0.488069 0.255965 0.249661 0.00630412) 450 746 2
(0.128078 0.435961 0.161389 0.274571) 451 894 1
(0.151313 0.424343 0.263662 0.160681) 451 896 1
(0.133815 0.433093 0.233353 0.19974) 452 898 1
(0.114885 0.442557 0.2607 0.181857) 453 900 1
(0.806543 0.0967284 0.0134643 0.0832641) 380 756 2
(0.684111 0.157944 0.128555 0.0293893) 381 609 2
(0.213914 0.393043 0.251272 0.141771) 382 757 1
(0.0733979 0.463301 0.430631 0.0326704) 383 759 1
(0.305407 0.347296 0.0149369 0.332359) 384 764 2
(0.113796 0.0857405 0.443102 0.357361) 385 765 2
(0.163718 0.0393767 0.418141 0.378765) 386 767 2
(0.178298 0.0141404 0.410851 0.39671) 387 769 2
(0.141444 0.034512 0.429278 0.394766) 388 771 2
(0.156347 0.0254006 0.421826 0.396426) 389 773 2
(0.162859 0.0127459 0.41857 0.405825) 390 775 2
(0.256573 0.025655 0.346058 0.371713) 391 778 1
(0.237625 0.329167 0.381187 0.0520202) 392 631 1
(0.403709 0.298146 0.161559 0.136587) 393 633 2
(0.473895 0.263052 0.167269 0.0957832) 394 635 2
(0.280129 0.359936 0.0852924 0.274643) 395 786 2
(0.164436 0.0631812 0.354601 0.417782) 396 785 2
(0.0912546 0.0983343 0.454373 0.356038) 396 787 2
(0.158008 0.420996 0.337128 0.0838675) 473 792 2
(0.130613 0.175347 0.434694 0.259347) 398 791 2
(0.238765 0.380618 0.0426268 0.337991) 474 940 1
(0.0962629 0.451869 0.0859089 0.36596) 475 942 1
(0.0888879 0.455556 0.320552 0.135004) 401 798 2
(0.127384 0.436308 0.313811 0.122497) 404 801 1
(0.252337 0.373832 0.0202592 0.353572) 525 895 2
(0.0622304 0.468885 0.376703 0.0921815) 526 1045 1
(0.240688 0.379656 0.338691 0.0409648) 528 901 2
(0.483473 0.258264 0.0802013 0.178062) 454 902 1
(0.251122 0.374439 0.244861 0.129578) 455 904 1
(0.351772 0.324114 0.0630381 0.261076) 457 906 1
(0.412988 0.0580849 0.293506 0.235421) 458 762 1
(0.311867 0.344067 0.00121104 0.342856) 460 912 1
(0.175526 0.022984 0.389253 0.412237) 460 915 1
(0.252321 0.0679715 0.305868 0.37384) 461 917 1
(0.224888 0.174471 0.213085 0.387556) 462 919 1
(0.209729 0.181549 0.213586 0.395135) 463 921 1
(0.122732 0.0331186 0.438634 0.405516) 464 922 2
(0.173284 0.413358 0.119587 0.293771) 466 927 2
(0.492391 0.160423 0.253804 0.0933814) 467 780 1
(0.349027 0.319444 0.325487 0.00604283) 468 782 1
(0.341409 0.329296 0.0958509 0.233445) 469 784 2
(0.095905 0.452047 0.156307 0.29574) 470 935 2
(0.124083 0.06513 0.372829 0.437959) 471 934 2
(0.204269 0.133235 0.26463 0.397866) 471 937 1
(0.289057 0.355472 0.353983 0.00148822) 472 939 2
(0.10217 0.440828 0.00808655 0.448915) 473 941 1
(0.237188 0.381406 0.049552 0.331854) 549 943 2
(0.146678 0.426661 0.0821651 0.344496) 550 1091 1
(0.294314 0.160483 0.19236 0.352843) 475 945 1
(0.323588 0.178369 0.338206 0.159837) 477 800 1
(0.0375379 0.481231 0.0907617 0.390469) 525 1044 2
(0.0827346 0.280518 0.178114 0.458633) 526 1046 1
(0.298357 0.350822 0.0815955 0.269226) 528 1049 1
(0.0583492 0.470825 0.178499 0.292326) 530 1051 1
(0.314224 0.342888 0.298441 0.0444474) 531 907 2
(0.276909 0.361545 0.100076 0.261469) 532 909 2
(0.0810566 0.459472 0.423543 0.035929) 533 1059 1
(0.34649 0.263596 0.0631594 0.326755) 534 1062 1
(0.446763 0.276618 0.140915 0.135704) 535 1064 2
(0.364008 0.0246995 0.293296 0.317996) 536 1063 2
(0.427702 0.286149 0.0806799 0.205469) 537 1068 2
(0.226868 0.386566 0.0240908 0.362475) 539 1072 2
(0.184851 0.285135 0.122439 0.407574) 540 1074 1
(0.173498 0.0627185 0.350532 0.413251) 541 1076 1
(0.17202 0.41399 0.0303351 0.383655) 543 1080 2
(0.138797 0.430602 0.246791 0.183811) 544 1082 2
(0.137537 0.431231 0.423214 0.00801793) 545 1084 2
(0.18668 0.355571 0.0510891 0.40666) 546 1086 1
(0.211865 0.387892 0.00617601 0.394068) 547 1088 1
(0.208514 0.395743 0.28369 0.112053) 548 1090 2
(0.028985 0.389315 0.485507 0.0961926) 624 1092 1
(0.0920197 0.45399 0.0936704 0.36032) 626 1242 1
(0.0934629 0.453269 0.367094 0.0861748) 626 1244 1
(0.283387 0.358306 0.0277096 0.330597) 551 947 2
(0.290144 0.354928 0.0550945 0.299834) 552 949 2
(0.0551374 0.0770342 0.395397 0.472431) 600 15083 1
(0.244784 0.0867276 0.290881 0.377608) 601 1195 1
(0.266304 0.366848 0.366411 0.000436739) 602 1196 1
(0.30718 0.34641 0.297433 0.0489767) 604 1052 2
(0.247551 0.376224 0.0807818 0.295443) 605 1054 2
(0.258676 0.240777 0.370662 0.129885) 606 1056 1
(0.23536 0.185121 0.38232 0.197199) 607 1058 1
(0.329623 0.231085 0.335189 0.104104) 608 1060 1
(0.608815 0.114255 0.195592 0.0813368) 609 1062 1
(0.445005 0.178817 0.277498 0.098681) 610 1064 1
(0.387011 0.0894534 0.306494 0.217041) 611 1066 1
(0.247028 0.376486 0.341355 0.0351314) 612 1216 1
(0.249792 0.0869468 0.288157 0.375104) 613 1219 1
(0.234367 0.382817 0.0798345 0.302982) 615 1223 2
(0.182723 0.272622 0.136016 0.408638) 616 1225 1
(0.105049 0.0211293 0.426346 0.447476) 618 1226 2
(0.242028 0.313322 0.378986 0.0656643) 695 1233 1
(0.0975113 0.294543 0.156701 0.451244) 621 1235 1
(0.0733859 0.0331689 0.463307 0.430138) 622 1236 2
(0.133603 0.433198 0.253332 0.179867) 624 1241 2
(0.102947 0.42817 0.0203565 0.448527) 625 1243 1
(0.0794324 0.460284 0.336349 0.123934) 701 1393 1
(0.0296758 0.485162 0.420577 0.0645847) 628 1249 2
(0.208166 0.395917 0.166058 0.22986) 628 1100 2
(0.255033 0.372484 0.366555 0.00592853) 629 1102 2
(0.279649 0.0798764 0.360176 0.280299) 675 1341 2
(0.417867 0.0778594 0.213207 0.291066) 677 1346 1
(0.265988 0.367006 0.274566 0.0924406) 679 1350 2
(0.0531844 0.239573 0.233835 0.473408) 681 1354 1
(0.0977008 0.45115 0.389671 0.0614783) 681 1353 1
(0.290365 0.138362 0.354818 0.216455) 682 1207 1
(0.340096 0.329952 0.0321618 0.29779) 683 1209 2
(0.372641 0.313679 0.25569 0.057989) 684 1211 2
(0.072599 0.4637 0.127746 0.335955) 685 1359 1
(0.303881 0.00549199 0.348059 0.342567) 685 1213 1
(0.240955 0.180547 0.379523 0.198975) 686 1215 1
(0.191413 0.203562 0.404293 0.200732) 687 1217 1
(0.583895 0.208053 0.134219 0.0738341) 689 1370 2
(0.30657 0.140203 0.206512 0.346715) 690 1372 1
(0.142302 0.0643189 0.428849 0.36453) 691 1373 2
(0.242202 0.378899 0.123451 0.255448) 693 1378 2
(0.0877369 0.0856154 0.370516 0.456132) 695 1382 1
(0.177117 0.0707666 0.411441 0.340675) 696 1383 2
(0.29778 0.35111 0.21426 0.13685) 699 1390 2
(0.362883 0.318559 0.0137028 0.304856) 776 1540 1
(0.18885 0.141687 0.405575 0.263888) 777 1396 1
(0.0615301 0.469235 0.032638 0.436597) 704 1400 2
(0.20769 0.396155 0.061181 0.334974) 704 1251 2
(0.131232 0.434384 0.0940627 0.340321) 705 1399 1
(0.263052 0.368474 0.353692 0.0147816) 705 1401 1
(0.729297 0.0137277 0.135352 0.121624) 750 1490 2
(0.863105 0.0684477 0.0196523 0.0487954) 752 1495 2
(0.65223 0.00738948 0.166495 0.173885) 753 1497 1
(0.315191 0.342405 0.231108 0.111297) 755 1501 2
(0.230691 0.0346366 0.350018 0.384654) 757 1505 1
(0.160257 0.419872 0.196891 0.222981) 759 1509 2
(0.13743 0.16177 0.269515 0.431285) 761 1513 1
(0.0797622 0.436416 0.460119 0.0237024) 761 1364 1
(0.189811 0.405094 0.224136 0.180958) 762 1366 2
(0.264895 0.157395 0.367553 0.210157) 762 1366 1
(0.211593 0.394204 0.262061 0.132143) 763 1368 2
(0.246984 0.139645 0.376508 0.236863) 763 1368 1
(0.329123 0.335438 0.26472 0.0707187) 764 1370 2
(0.0369227 0.481539 0.336879 0.14466) 764 1518 1
(0.509512 0.0998522 0.145392 0.245244) 766 1520 2
(0.51042 0.104189 0.140601 0.24479) 767 1525 1
(0.648883 0.0812354 0.0943233 0.175559) 768 1527 1
(0.409025 0.295487 0.0722895 0.223198) 770 1530 1
(0.398611 0.300695 0.0575903 0.243104) 772 1532 1
(0.422052 0.288974 0.26427 0.0247043) 774 1390 2
(0.165739 0.0967671 0.320363 0.41713) 776 1543 1
(0.238033 0.0998479 0.281136 0.380983) 778 1547 1
(0.122379 0.224429 0.214381 0.43881) 779 1549 1
(0.417289 0.291356 0.0121949 0.279161) 780 1402 2
(0.416442 0.0849662 0.291779 0.206813) 855 1551 1
(0.111765 0.444117 0.392269 0.0518487) 781 1553 2
(0.092228 0.453886 0.308108 0.145778) 826 1493 2
(0.0547802 0.47261 0.00797122 0.464639) 753 1497 2
(0.106271 0.446865 0.240194 0.206671) 829 1499 2
(0.441951 0.279024 0.185152 0.0938721) 831 1652 2
(0.269665 0.365167 0.163905 0.201262) 832 1654 2
(0.247987 0.25986 0.116146 0.376006) 833 1656 1
(0.243549 0.115409 0.262817 0.378226) 834 1658 1
(0.221185 0.00276714 0.38664 0.389408) 835 1660 1
(0.418437 0.290781 0.265867 0.0249142) 837 1515 2
(0.0406809 0.47966 0.328546 0.151113) 837 1663 1
(0.318234 0.11263 0.340883 0.228253) 838 1517 1
(0.243932 0.378034 0.0405844 0.33745) 839 1519 2
(0.178999 0.410501 0.3629 0.0476005) 840 1521 2
(0.225491 0.156472 0.387254 0.230782) 840 1521 1
(0.298364 0.278076 0.350818 0.0727425) 841 1523 1
(0.343125 0.328437 0.0939355 0.234502) 842 1525 2
(0.324779 0.207854 0.33761 0.129757) 843 1527 1
(0.215632 0.392184 0.189841 0.202343) 846 1533 2
(0.15302 0.267229 0.42349 0.156261) 848 1537 1
(0.288124 0.290303 0.355938 0.0656355) 849 1539 1
(0.311173 0.0196099 0.344413 0.324803) 852 1545 1
(0.716253 0.04136 0.141874 0.100514) 853 1547 1
(0.177532 0.411234 0.0891198 0.322114) 928 1844 1
(0.390964 0.266874 0.304518 0.0376437) 929 1698 1
(0.0523139 0.473843 0.118309 0.355534) 930 1846 1
(0.476366 0.261817 0.258582 0.00323522) 930 1848 1
(0.0296074 0.485196 0.444609 0.0405869) 900 1640 2
(0.0943064 0.214876 0.452847 0.23797) 900 1640 1
(0.0979656 0.451017 0.144676 0.306341) 901 1642 2
(0.09443 0.029241 0.452785 0.423544) 901 1642 1
(0.0392122 0.277581 0.202813 0.480394) 827 1644 1
(0.144326 0.160472 0.267365 0.427837) 903 1792 2
(0.633056 0.183472 0.00202765 0.181444) 828 1646 2
(0.0102974 0.114077 0.494851 0.380774) 903 1646 1
(0.0984449 0.225659 0.450778 0.225119) 904 1648 1
(0.145978 0.427011 0.208627 0.218384) 905 1650 2
(0.0348514 0.482574 0.457787 0.0247873) 905 1798 1
(0.143293 0.0397641 0.388589 0.428353) 906 1798 2
(0.301566 0.123881 0.225337 0.349217) 906 1801 1
(0.303055 0.305116 0.0433562 0.348472) 907 1803 1
(0.28998 0.225393 0.129617 0.35501) 908 1805 1
(0.358276 0.00430537 0.316556 0.320862) 909 1807 1
(0.392326 0.174794 0.303837 0.129043) 911 1662 1
(0.321297 0.235351 0.339352 0.104001) 912 1664 1
(0.346974 0.282233 0.326513 0.0442803) 913 1666 1
(0.331496 0.334252 0.0115279 0.322724) 914 1668 2
(0.306321 0.34684 0.147906 0.198934) 915 1670 2
(0.308002 0.345999 0.317151 0.0288481) 916 1672 2
(0.0425492 0.478725 0.118794 0.359932) 917 1820 1
(0.0523616 0.473819 0.388348 0.0854715) 917 1822 1
(0.122316 0.438842 0.405438 0.0334044) 919 1678 2
(0.184663 0.0374086 0.407668 0.37026) 847 1683 2
(0.249383 0.0783184 0.375308 0.29699) 923 1686 1
(0.146946 0.426527 0.363923 0.0626038) 925 1838 1
(0.0989661 0.0175665 0.43295 0.450517) 852 1691 2
(0.483768 0.258116 0.253625 0.00449082) 927 1842 1
(0.270053 0.364973 0.0398023 0.325171) 1002 1991 1
(0.577469 0.124376 0.0868889 0.211265) 1003 1994 1
(0.572835 0.213583 0.107639 0.105944) 1004 1996 2
(0.00151191 0.368056 0.499244 0.131188) 1004 1995 2
(0.123453 0.438274 0.405494 0.0327799) 1050 2086 1
(0.127355 0.436322 0.17266 0.263662) 976 1791 2
(0.281889 0.359056 0.182088 0.176968) 977 1793 2
(0.341505 0.329248 0.198775 0.130473) 978 1795 2
(0.138302 0.430849 0.417476 0.0133732) 979 1797 2
(0.267134 0.315681 0.366433 0.050752) 979 1797 1
(0.232403 0.383798 0.350993 0.0328049) 980 1799 2
(0.388191 0.29639 0.00951417 0.305904) 980 1948 1
(0.300284 0.349858 0.0258927 0.323965) 981 1950 2
(0.0875812 0.113983 0.456209 0.342227) 981 1949 2
(0.429057 0.0309214 0.285472 0.25455) 982 1951 2
(0.31345 0.150592 0.343275 0.192683) 983 1953 2
(0.255773 0.372113 0.19904 0.173073) 984 1955 1
(0.189279 0.40536 0.372033 0.0333268) 985 1957 1
(0.144275 0.427862 0.0634995 0.364363) 987 1959 1
(0.332392 0.333804 0.227093 0.106711) 988 1815 2
(0.166041 0.41698 0.297459 0.11952) 989 1966 2
(0.47779 0.156473 0.104631 0.261105) 990 1968 1
(0.0421961 0.275679 0.478902 0.203223) 991 1969 2
(0.166539 0.0821129 0.41673 0.334617) 992 1823 1
(0.176473 0.154754 0.411763 0.257009) 993 1825 1
(0.293108 0.00893711 0.344509 0.353446) 919 1827 1
(0.42015 0.00207635 0.289925 0.287849) 920 1828 2
(0.000913302 0.181982 0.499543 0.317561) 921 1830 2
(0.0615704 0.0847595 0.469215 0.384455) 924 1836 2
(0.324395 0.337803 0.16512 0.172683) 1001 1841 2
(0.390252 0.304874 0.0651167 0.239757) 1002 1989 1
(0.245992 0.377004 0.0210931 0.355911) 1000 1988 2
(0.381007 0.309497 0.0206968 0.2888) 1076 2136 1
(0.313062 0.343469 0.128452 0.215017) 1076 2138 1
(0.706438 0.145417 0.146781 0.00136424) 1077 2140 2
(0.208843 0.0396268 0.355952 0.395578) 1050 15089 1
(0.468057 0.0866825 0.265971 0.179289) 1051 1940 1
(0.284171 0.357915 0.036099 0.321816) 1052 1942 2
(0.336732 0.331634 0.302572 0.0290627) 1053 1944 2
(0.160724 0.419638 0.334002 0.0856356) 1053 2092 1
(0.304506 0.300502 0.347747 0.0472452) 1054 1946 1
(0.326686 0.336657 0.0705363 0.266121) 1055 2094 1
(0.247011 0.00467829 0.371816 0.376494) 1056 2096 2
(0.134631 0.0688508 0.363834 0.432684) 1057 2098 2
(0.243268 0.00710502 0.371261 0.378366) 1058 2100 2
(0.22795 0.32025 0.386025 0.0657749) 1058 1954 1
(0.203085 0.360369 0.398457 0.0380879) 1059 1956 1
(0.17891 0.410545 0.0928202 0.317725) 1060 1958 2
(0.269172 0.365414 0.191314 0.1741) 1061 1960 2
(0.219141 0.298835 0.0915945 0.39043) 1062 2111 1
(0.081415 0.0592163 0.459293 0.400076) 1063 2112 2
(0.22536 0.38732 0.17333 0.21399) 1065 2117 2
(0.310481 0.344759 0.139858 0.204901) 1066 1970 2
(0.262785 0.323749 0.368608 0.0448583) 1067 1972 1
(0.189606 0.405197 0.0271916 0.378006) 1068 1974 2
(0.241329 0.379336 0.155242 0.224093) 1069 1976 2
(0.316101 0.34195 0.0541391 0.28781) 995 1978 2
(0.441348 0.0420385 0.237287 0.279326) 996 1977 2
(0.197607 0.201556 0.19964 0.401197) 996 1980 1
(0.218307 0.390847 0.281388 0.109458) 1072 1982 2
(0.197344 0.0618348 0.339493 0.401328) 998 1981 2
(0.263272 0.0853759 0.282988 0.368364) 999 1983 2
(0.523115 0.238442 0.090896 0.147546) 1073 2133 2
(0.154015 0.202013 0.22098 0.422993) 1074 2132 2
(0.495783 0.0184236 0.233685 0.252108) 1074 2135 1
(0.240263 0.374358 0.00551024 0.379869) 1075 2137 1
(0.18004 0.40998 0.192393 0.217587) 1125 2235 1
(0.30403 0.347985 0.129657 0.218328) 1127 2091 2
(0.273799 0.255094 0.363101 0.108007) 1128 2093 1
(0.254951 0.17777 0.194755 0.372525) 1130 2246 1
(0.24695 0.266214 0.110311 0.376525) 1131 2248 1
(0.209375 0.395312 0.331814 0.0634986) 1132 2250 2
(0.174674 0.0156457 0.397017 0.412663) 1133 2249 2
(0.295441 0.216039 0.13624 0.352279) 1133 2252 1
(0.27304 0.0141728 0.349307 0.36348) 1134 2251 2
(0.29253 0.226278 0.127457 0.353735) 1134 2254 1
(0.141891 0.291476 0.137578 0.429054) 1059 2105 1
(0.178465 0.410768 0.351405 0.0593621) 1135 2107 2
(0.220865 0.0698289 0.389567 0.319739) 1135 2107 1
(0.344841 0.0266484 0.327579 0.300931) 1136 2257 2
(0.263237 0.124464 0.243918 0.368381) 1137 2260 1
(0.19261 0.0325208 0.403695 0.371174) 1138 2261 2
(0.318491 0.340754 0.188644 0.15211) 1140 2266 2
(0.184458 0.311895 0.407771 0.0958758) 1141 2119 1
(0.0805936 0.459703 0.452936 0.00676692) 1143 2123 2
(0.287785 0.226483 0.129624 0.356108) 1143 2272 1
(0.328283 0.335858 0.255376 0.0804826) 1144 2274 2
(0.298263 0.350868 0.0902169 0.260651) 1145 2276 2
(0.116087 0.121665 0.320292 0.441956) 1070 2124 2
(0.0108295 0.494585 0.452708 0.0418772) 1145 2275 1
(0.166553 0.256389 0.416723 0.160335) 1146 2129 1
(0.171398 0.414301 0.217018 0.197283) 1147 2131 2
(0.0709605 0.0967298 0.46452 0.36779) 1147 2131 1
(0.507006 0.246497 0.0258018 0.220695) 1148 2282 2
(0.294955 0.352522 0.283789 0.0687335) 1148 2281 1
(0.541924 0.229038 0.0470824 0.181956) 1149 2135 2
(0.323254 0.338373 0.111091 0.227282) 1150 2283 1
(0.382204 0.20074 0.108158 0.308898) 1200 2385 1
(0.322683 0.338658 0.334737 0.00392162) 1203 2242 2
(0.31502 0.047529 0.34249 0.294961) 1204 2244 1
(0.337967 0.331016 0.0178496 0.313167) 1280 2395 2
(0.0997864 0.450107 0.116411 0.333696) 1206 2397 2
(0.121512 0.020175 0.419069 0.439244) 1207 2396 2
(0.108031 0.0539734 0.392011 0.445984) 1207 2399 1
(0.129179 0.329069 0.106342 0.435411) 1208 2401 1
(0.0388895 0.480555 0.223406 0.257149) 1284 2403 2
(0.527799 0.236101 0.146407 0.0896935) 1209 2402 1
(0.395903 0.302049 0.178388 0.12366) 1210 2256 2
(0.387055 0.10031 0.306473 0.206163) 1210 2256 1
(0.249498 0.375251 0.0486992 0.326552) 1211 2258 2
(0.346698 0.326651 0.0863791 0.240272) 1213 2411 2
(0.0414477 0.16923 0.310046 0.479276) 1214 2410 2
(0.244558 0.0958162 0.377721 0.281905) 1214 2412 2
(0.395293 0.0281574 0.274196 0.302354) 1215 2415 1
(0.37199 0.0756838 0.238321 0.314005) 1216 2417 1
(0.328643 0.0972732 0.238405 0.335678) 1217 2419 1
(0.241432 0.106744 0.27254 0.379284) 1218 2421 1
(0.237953 0.128611 0.252412 0.381023) 1219 2423 1
(0.200034 0.15225 0.399983 0.247733) 1296 2427 1
(0.0203009 0.48985 0.369874 0.119975) 1220 2424 1
(0.12048 0.0157394 0.43976 0.42402) 1221 2278 1
(0.315849 0.342076 0.097103 0.244973) 1222 2280 2
(0.00419972 0.4979 0.363114 0.134786) 1222 2428 1
(0.465229 0.267385 0.0918358 0.17555) 1223 2282 2
(0.119353 0.440323 0.203318 0.237005) 1223 2430 1
(0.225718 0.387141 0.150212 0.236929) 1224 2284 2
(0.341249 0.329375 0.30752 0.0218551) 1224 2432 1
(0.280754 0.278321 0.359623 0.0813018) 1225 2286 1
(0.310379 0.34481 0.00213992 0.342671) 1275 2534 2
(0.142641 0.0932253 0.335454 0.428679) 1276 2533 2
(0.122008 0.0978552 0.438996 0.341141) 1276 2535 2
(0.0634297 0.0914045 0.468285 0.376881) 1277 2537 2
(0.160326 0.419837 0.0445872 0.37525) 1355 2690 1
(0.0383378 0.480831 0.134514 0.346317) 1281 2546 2
(0.136768 0.431616 0.133897 0.297719) 1282 2548 2
(0.68045 0.15107 0.00870554 0.159775) 1284 2552 1
(0.666119 0.16694 0.157146 0.0097941) 1285 2405 2
(0.0658094 0.0676603 0.399435 0.467095) 1211 2407 1
(0.251214 0.275275 0.099118 0.374393) 1212 2409 1
(0.567968 0.216016 0.176379 0.0396368) 1289 2562 2
(0.423449 0.0104146 0.277861 0.288276) 1290 2561 2
(0.325711 0.024537 0.337145 0.312608) 1290 2563 2
(0.304656 0.347672 0.207079 0.140594) 1291 2566 2
(0.327401 0.00736354 0.3363 0.328936) 1291 2565 2
(0.307306 0.346347 0.147326 0.199021) 1292 2568 2
(0.411004 0.112538 0.18196 0.294498) 1292 2568 1
(0.02152 0.48924 0.291209 0.198031) 1367 2716 1
(0.350956 0.144142 0.324522 0.18038) 1368 2570 1
(0.22236 0.0700941 0.318726 0.38882) 1294 2569 2
(0.200908 0.00340907 0.396137 0.399546) 1295 2571 2
(0.121702 0.439149 0.214503 0.224646) 1296 2576 2
(0.518505 0.240747 0.0402453 0.200502) 1297 2429 2
(0.167473 0.416264 0.341734 0.0745294) 1298 2577 1
(0.578905 0.210547 0.161294 0.0492531) 1298 2579 1
(0.418969 0.290516 0.182197 0.108318) 1299 2433 2
(0.168804 0.415598 0.365064 0.0505336) 1299 2581 1
(0.316817 0.280291 0.341592 0.0613005) 1300 2435 1
(0.317608 0.341196 0.153784 0.187412) 1301 2437 2
(0.300765 0.189276 0.160342 0.349617) 1350 2683 1
(0.00794785 0.191686 0.496026 0.30434) 1351 2684 2
(0.131619 0.434191 0.431813 0.00237767) 1354 2691 2
(0.430934 0.284533 0.123743 0.16079) 1356 2694 1
(0.347342 0.326329 0.291901 0.0344285) 1358 2550 2
(0.536725 0.231638 0.153798 0.0778398) 1359 2700 1
(0.139838 0.430081 0.276612 0.153469) 1287 2558 2
(0.149586 0.425207 0.145813 0.279394) 1364 2562 2
(0.0937721 0.453114 0.186829 0.266285) 1364 2711 2
(0.297029 0.00131904 0.350166 0.351486) 1364 2711 1
(0.242282 0.378859 0.0943391 0.28452) 1365 2713 2
(0.280558 0.21898 0.140741 0.359721) 1365 2713 1
(0.00631697 0.112347 0.384494 0.496842) 1366 2712 2
(0.239186 0.380407 0.284273 0.0961343) 1366 2715 2
(0.215448 0.0942768 0.297999 0.392276) 1366 2715 1
(0.284335 0.0128769 0.344955 0.357832) 1367 2714 2
(0.584293 0.207854 0.00723074 0.200623) 1442 2863 1
(0.0530543 0.473473 0.128686 0.344787) 1443 2865 1
(0.358459 0.057604 0.320771 0.263167) 1443 2719 1
(0.231415 0.384292 0.344771 0.0395218) 1369 2721 2
(0.200651 0.399675 0.114562 0.285112) 1370 2723 2
(0.209422 0.0179501 0.377339 0.395289) 1370 2723 1
(0.332725 0.333637 0.246119 0.0875188) 1371 2724 1
(0.478511 0.260745 0.256353 0.00439196) 1372 2726 1
(0.460415 0.0698146 0.269793 0.199978) 1373 2580 1
(0.314988 0.210241 0.342506 0.132265) 1374 2582 1
(0.307854 0.227333 0.346073 0.118739) 1375 2584 1
(0.657629 0.0930354 0.0781499 0.171185) 1426 2831 2
(0.194889 0.402556 0.258244 0.144312) 1427 2835 1
(0.261341 0.282103 0.087226 0.369329) 1429 2840 1
(0.451675 0.274162 0.0431316 0.231031) 1431 2695 2
(0.287749 0.197891 0.356126 0.158234) 1432 2697 1
(0.260626 0.369687 0.344177 0.02551) 1433 2847 1
(0.260488 0.369756 0.344517 0.0252391) 1435 2703 2