/*--------------------------------*- C++ -*----------------------------------*\
  =========                 |
  \\      /  F ield         | OpenFOAM: The Open Source CFD Toolbox
   \\    /   O peration     | Website:  https://openfoam.org
    \\  /    A nd           | Version:  12
     \\/     M anipulation  |
\*---------------------------------------------------------------------------*/
FoamFile
{
    format      ascii;
    class       vectorField;
    location    "1/lagrangian/cloud";
    object      U;
}
// * * * * * * * * * * * * * * * * * * * * * * * * * * * * * * * * * * * * * //


1541
(
(0.000597185 -0.0228363 0)
(0.00139862 -0.0219386 0)
(0.0017213 -0.0166054 0)
(0.000486543 -0.0206533 0)
(-5.93953e-05 -0.0241254 0)
(-4.04345e-05 -0.0244613 0)
(0.000125199 -0.0273377 0)
(-0.0014043 -0.028346 0)
(-0.000286753 -0.0247731 0)
(-0.000480687 -0.0238188 0)
(0.000500569 -0.0252861 0)
(0.000554498 -0.025423 0)
(0.000193373 -0.0250077 0)
(0.000426025 -0.0249158 0)
(-1.65345e-05 -0.022946 0)
(0.000432492 -0.0192863 0)
(0.000314615 -0.0254151 0)
(-0.000669473 -0.0259338 0)
(0.000753703 -0.0238677 0)
(0.000997872 -0.0265848 0)
(0.000627058 -0.0227874 0)
(0.000523564 -0.0238039 0)
(0.000129297 -0.0234269 0)
(0.000877724 -0.0232221 0)
(0.000963538 -0.0190615 0)
(-0.000147016 -0.0252948 0)
(0.00242128 -0.0271901 0)
(0.000449995 -0.0253441 0)
(-0.001281 -0.0277327 0)
(0.000186837 -0.0264446 0)
(5.16626e-05 -0.0263377 0)
(0.000963911 -0.0272542 0)
(-0.00132298 -0.0270439 0)
(-0.000674465 -0.0269509 0)
(0.000389502 -0.0265712 0)
(-0.000302349 -0.0308081 0)
(0.00132307 -0.0306085 0)
(0.00105048 -0.0311961 0)
(0.00109507 -0.0285745 0)
(0.00156198 -0.0296046 0)
(0.00211876 -0.0299874 0)
(-0.000658114 -0.0316012 0)
(0.000249665 -0.0356863 0)
(0.000498198 -0.0371491 0)
(-0.000585597 -0.0379952 0)
(0.000752921 -0.040744 0)
(-3.83318e-05 -0.0406747 0)
(0.000932709 -0.0212212 0)
(-1.85392e-05 -0.0219697 0)
(0.000147048 -0.0208459 0)
(0.000674703 -0.020752 0)
(-0.000420457 -0.0199427 0)
(0.000927455 -0.0226755 0)
(9.85113e-05 -0.0212141 0)
(0.000922637 -0.0194762 0)
(0.000380209 -0.0199124 0)
(-0.000198569 -0.0203423 0)
(-0.000207529 -0.0207549 0)
(-0.000348894 -0.021071 0)
(0.000543075 -0.0212669 0)
(3.252e-05 -0.0228653 0)
(-0.000477236 -0.0228934 0)
(0.000656636 -0.0214893 0)
(-0.00172553 -0.0165694 0)
(0.000294223 -0.0209142 0)
(0.000194374 -0.024826 0)
(0.000797592 -0.0205131 0)
(0.000820772 -0.0203229 0)
(-0.00167766 -0.0245306 0)
(2.49679e-05 -0.0230578 0)
(0.000128695 -0.0162334 0)
(0.000517804 -0.0208141 0)
(-0.00155974 -0.0283081 0)
(-0.000642933 -0.0247397 0)
(-8.89919e-05 -0.0257991 0)
(0.000975635 -0.0289979 0)
(0.00168281 -0.0245062 0)
(0.00137132 -0.0244159 0)
(0.00101977 -0.0248021 0)
(0.000940352 -0.0245292 0)
(-0.000495484 -0.0259046 0)
(-0.00114291 -0.0261966 0)
(-0.000677177 -0.0273129 0)
(0.00183615 -0.0284077 0)
(0.00334409 -0.0344342 0)
(0.00257913 -0.0337529 0)
(0.00260793 -0.033656 0)
(0.00267492 -0.0304812 0)
(0.0040063 -0.0300669 0)
(0.00326971 -0.0375464 0)
(0.0030861 -0.0350749 0)
(0.000615879 -0.0283761 0)
(0.000570612 -0.0279008 0)
(0.000278972 -0.0262236 0)
(0.000136642 -0.0280458 0)
(0.000149963 -0.0223535 0)
(0.000542287 -0.0211355 0)
(-0.00130909 -0.0200517 0)
(0.000472016 -0.0218826 0)
(-0.00151044 -0.0220674 0)
(-0.00109143 -0.0258541 0)
(0.000950031 -0.0275622 0)
(-5.49396e-05 -0.0309029 0)
(-2.38267e-05 -0.0286711 0)
(-0.000429268 -0.029419 0)
(-0.000550304 -0.0304011 0)
(-0.00066314 -0.031036 0)
(-0.000652663 -0.0306338 0)
(-0.000597603 -0.0307357 0)
(-0.000563231 -0.030334 0)
(6.76586e-05 -0.0315799 0)
(-5.88582e-05 -0.0348905 0)
(-0.000590824 -0.033802 0)
(-0.000317011 -0.0352452 0)
(-0.000169969 -0.0338072 0)
(-8.47341e-05 -0.0303413 0)
(4.50602e-05 -0.0306297 0)
(0.00182706 -0.0319398 0)
(-0.000542842 -0.028322 0)
(0.000978901 -0.029689 0)
(-0.000427115 -0.0297821 0)
(0.000609561 -0.0340042 0)
(0.000672328 -0.0362511 0)
(-0.00046835 -0.0309852 0)
(0.000315899 -0.0330842 0)
(0.00206615 -0.0331235 0)
(0.000315036 -0.0288308 0)
(0.000303782 -0.0293864 0)
(0.000796422 -0.0260417 0)
(0.000813191 -0.0262467 0)
(-0.000105892 -0.0286692 0)
(-0.00111318 -0.0299097 0)
(-0.000860327 -0.0282491 0)
(0.000708992 -0.0242897 0)
(0.000966795 -0.0355116 0)
(-0.000334681 -0.0319189 0)
(-0.000154227 -0.0317032 0)
(-3.97415e-05 -0.0304536 0)
(0.000393814 -0.0331658 0)
(0.000405636 -0.0327797 0)
(0.000388161 -0.0330624 0)
(0.000524561 -0.0343864 0)
(-0.000359956 -0.0384053 0)
(-0.000522162 -0.039272 0)
(-0.000496029 -0.0390739 0)
(-0.000717381 -0.0380552 0)
(0.0014897 -0.0358795 0)
(0.000174662 -0.0335713 0)
(-0.000695562 -0.0364582 0)
(-8.74003e-05 -0.038547 0)
(-2.28346e-06 -0.0382232 0)
(0.000753123 -0.0350252 0)
(0.000715349 -0.0342105 0)
(5.20442e-05 -0.036493 0)
(-8.68057e-06 -0.037139 0)
(0.00045449 -0.0371908 0)
(0.000613288 -0.0362019 0)
(0.000950581 -0.0354669 0)
(0.00146172 -0.0342166 0)
(0.000890061 -0.0344309 0)
(0.000290359 -0.0298023 0)
(5.87669e-05 -0.0339777 0)
(0.000498577 -0.0321245 0)
(0.00334491 -0.0308212 0)
(0.00183374 -0.0288721 0)
(0.00131229 -0.0278567 0)
(0.00113991 -0.0282277 0)
(0.000974952 -0.0296276 0)
(0.000666627 -0.0306258 0)
(0.000483393 -0.032575 0)
(0.00119409 -0.0330093 0)
(0.00180271 -0.0386673 0)
(0.0015241 -0.037639 0)
(0.00142465 -0.0392552 0)
(0.000332457 -0.0372848 0)
(1.43199e-05 -0.0372946 0)
(3.20428e-05 -0.0377541 0)
(-0.000147292 -0.036724 0)
(-0.000368862 -0.0365215 0)
(-0.000172105 -0.0346157 0)
(-0.000983257 -0.0352215 0)
(0.000590108 -0.0386088 0)
(-5.3621e-05 -0.0377289 0)
(-0.000249606 -0.0371404 0)
(0.00093928 -0.0382359 0)
(0.000190553 -0.0389752 0)
(-0.000186651 -0.0382081 0)
(-0.0009267 -0.0383681 0)
(-0.000415775 -0.037816 0)
(-0.000682052 -0.0372183 0)
(0.0011017 -0.0361396 0)
(0.000902104 -0.034081 0)
(0.00118312 -0.0333208 0)
(0.000277586 -0.034581 0)
(-0.00182096 -0.0453376 0)
(-0.000655813 -0.0426508 0)
(0.000301288 -0.0424477 0)
(0.00100466 -0.0441055 0)
(0.00305055 -0.0399719 0)
(0.00461096 -0.0356321 0)
(0.00128225 -0.0328063 0)
(0.00221063 -0.0381863 0)
(0.00201167 -0.0375544 0)
(0.000563339 -0.0376328 0)
(0.000359596 -0.036597 0)
(0.000403948 -0.0364095 0)
(0.000215422 -0.0375205 0)
(0.000344419 -0.0371459 0)
(0.000270361 -0.0371016 0)
(0.000676999 -0.0353497 0)
(-0.000146318 -0.0360584 0)
(-0.000266024 -0.0380668 0)
(0.000270946 -0.0402099 0)
(-0.000483725 -0.0383409 0)
(-3.00168e-05 -0.0403847 0)
(9.71755e-05 -0.038078 0)
(-0.000472386 -0.0373737 0)
(0.000214803 -0.037389 0)
(-0.00104975 -0.0391264 0)
(-0.000381219 -0.0389774 0)
(-0.000352686 -0.0390903 0)
(0.000223916 -0.0408306 0)
(0.00121401 -0.036322 0)
(-6.0157e-05 -0.0483426 0)
(0.000983384 -0.0467419 0)
(0.0012659 -0.045611 0)
(0.00332601 -0.0389685 0)
(0.00364812 -0.0403078 0)
(0.00203421 -0.0395448 0)
(0.000543908 -0.0377994 0)
(0.000587773 -0.035692 0)
(0.0011651 -0.0345089 0)
(0.000303989 -0.0360199 0)
(-0.000152163 -0.0367704 0)
(-0.000314634 -0.0369378 0)
(0.000229019 -0.0371395 0)
(-0.000153528 -0.0365273 0)
(-0.000410673 -0.0369506 0)
(-0.000211202 -0.0375321 0)
(-0.000264362 -0.0389654 0)
(0.000238173 -0.0382385 0)
(0.000652948 -0.03559 0)
(0.00103448 -0.0350166 0)
(-0.000910886 -0.0375209 0)
(0.000204033 -0.0363934 0)
(0.00022018 -0.0410594 0)
(0.000890895 -0.0404231 0)
(0.000262841 -0.039586 0)
(0.000892893 -0.0405342 0)
(0.000699298 -0.0476528 0)
(0.0007823 -0.047392 0)
(0.00230528 -0.0436056 0)
(0.00181362 -0.0440883 0)
(0.000683476 -0.0412895 0)
(0.000400784 -0.0406751 0)
(0.000846377 -0.0365596 0)
(0.0014508 -0.0366501 0)
(0.00032871 -0.0382604 0)
(0.000404883 -0.0379605 0)
(0.000337033 -0.0376581 0)
(0.000128352 -0.0372155 0)
(-0.000238821 -0.036707 0)
(8.46528e-05 -0.0361133 0)
(0.000323511 -0.0357659 0)
(0.000212291 -0.0356841 0)
(-7.90793e-05 -0.0356469 0)
(-6.43505e-05 -0.0354294 0)
(-2.33084e-06 -0.0354785 0)
(0.000139674 -0.0349103 0)
(0.00112877 -0.0317402 0)
(-0.000376032 -0.0351525 0)
(-0.000221206 -0.0346737 0)
(5.3527e-05 -0.0410484 0)
(0.000119385 -0.0407673 0)
(0.000185918 -0.046322 0)
(0.000121433 -0.0444176 0)
(0.000152386 -0.0465108 0)
(-0.000663229 -0.0445149 0)
(-0.000112886 -0.0425658 0)
(-0.000156556 -0.0411044 0)
(0.000334728 -0.0396334 0)
(0.000322784 -0.0384733 0)
(0.0001889 -0.0396836 0)
(0.000633779 -0.0381417 0)
(0.000354208 -0.0385949 0)
(9.67031e-05 -0.0375078 0)
(-9.23283e-05 -0.0370591 0)
(-0.000272601 -0.0370988 0)
(-0.000118652 -0.0366425 0)
(0.000677234 -0.0356963 0)
(0.000251851 -0.0328009 0)
(5.17963e-05 -0.0335153 0)
(0.000549016 -0.0336497 0)
(2.10277e-05 -0.0295232 0)
(0.000854384 -0.0329895 0)
(0.00130388 -0.0325405 0)
(-0.000478242 -0.0307754 0)
(-6.05358e-06 -0.0342685 0)
(-0.00150983 -0.0352807 0)
(-0.000774572 -0.0420776 0)
(-0.00145851 -0.0405139 0)
(-0.000359617 -0.0392028 0)
(-0.000260223 -0.0355795 0)
(-0.00024465 -0.035436 0)
(0.000193116 -0.0352113 0)
(0.000810209 -0.0378 0)
(-0.000385456 -0.0394806 0)
(5.96364e-05 -0.0374345 0)
(9.73509e-05 -0.0358421 0)
(5.80191e-05 -0.0366277 0)
(6.71657e-05 -0.037081 0)
(0.00051835 -0.0363925 0)
(-0.000285153 -0.0373874 0)
(-1.27537e-05 -0.0370497 0)
(0.000131607 -0.0379217 0)
(0.000936936 -0.0340741 0)
(-0.000263799 -0.0350084 0)
(-0.000212508 -0.0333449 0)
(0.00105618 -0.030244 0)
(0.00128027 -0.0322454 0)
(0.00118671 -0.0289848 0)
(0.00059208 -0.0313237 0)
(-0.000105947 -0.0325757 0)
(0.000450901 -0.0324342 0)
(-0.000285087 -0.0406825 0)
(-0.000469175 -0.0387851 0)
(-0.00130535 -0.0357347 0)
(-0.000790395 -0.0377526 0)
(-0.000272798 -0.034599 0)
(0.000164493 -0.0344629 0)
(-0.000413467 -0.0319277 0)
(0.000446774 -0.033459 0)
(0.000901384 -0.0332404 0)
(0.000414544 -0.0335394 0)
(0.000532745 -0.0339551 0)
(0.000321671 -0.0350291 0)
(0.00102607 -0.0364256 0)
(-0.000607028 -0.0360234 0)
(0.00104535 -0.0395848 0)
(-7.87649e-05 -0.0382874 0)
(0.000378091 -0.0384303 0)
(0.000570084 -0.0349832 0)
(-0.000194139 -0.035165 0)
(-0.000373439 -0.0336912 0)
(0.00122679 -0.0301535 0)
(0.00103118 -0.0329672 0)
(0.000963732 -0.0328674 0)
(4.7168e-05 -0.0332548 0)
(0.000587708 -0.0348044 0)
(0.0005179 -0.0350066 0)
(-0.000370967 -0.0408273 0)
(-0.00135224 -0.0358918 0)
(-0.00113801 -0.0377328 0)
(0.000211213 -0.0336486 0)
(0.000158302 -0.0349615 0)
(-0.000218325 -0.0362378 0)
(-0.000168187 -0.0360775 0)
(-0.000522456 -0.0348757 0)
(-5.30299e-05 -0.0328329 0)
(0.000271754 -0.0331303 0)
(-0.000547862 -0.0328728 0)
(0.000413018 -0.036701 0)
(-0.000354555 -0.0348412 0)
(-0.000174196 -0.0357752 0)
(2.28836e-05 -0.0377742 0)
(-0.000313695 -0.0385378 0)
(-0.000157111 -0.0384353 0)
(7.26787e-05 -0.0350381 0)
(-0.000219197 -0.032626 0)
(-0.000362117 -0.032564 0)
(0.000181004 -0.030795 0)
(0.000697616 -0.0319571 0)
(0.00161313 -0.0329093 0)
(0.00150158 -0.0322557 0)
(0.00188631 -0.0324354 0)
(0.00266964 -0.0323996 0)
(1.59497e-05 -0.0310736 0)
(-9.38426e-05 -0.0304016 0)
(-0.000352005 -0.0316719 0)
(-0.000821266 -0.03241 0)
(-0.00253757 -0.034183 0)
(-0.00114134 -0.0320869 0)
(-0.00155675 -0.0357593 0)
(-0.00172682 -0.0320225 0)
(-0.00155654 -0.0344443 0)
(-0.00142408 -0.0346705 0)
(-0.00104469 -0.0305943 0)
(0.000286467 -0.033072 0)
(0.000635041 -0.03311 0)
(-0.000892284 -0.0381949 0)
(-0.000876628 -0.0399357 0)
(-0.000929841 -0.0384894 0)
(-0.000680936 -0.0358089 0)
(0.000371913 -0.0354439 0)
(0.000170323 -0.0356734 0)
(0.000529074 -0.0362376 0)
(0.000353015 -0.0373237 0)
(-0.0001505 -0.0380685 0)
(0.000230666 -0.0376457 0)
(-0.000536669 -0.0362597 0)
(-0.00170488 -0.0355555 0)
(-0.000668963 -0.0337684 0)
(-9.41678e-05 -0.0348473 0)
(0.000849508 -0.0344458 0)
(0.000776741 -0.0317628 0)
(0.00155555 -0.0336349 0)
(0.00232458 -0.0349432 0)
(0.00426545 -0.0364367 0)
(0.00404946 -0.0410162 0)
(0.00377035 -0.0405102 0)
(-0.000272535 -0.034003 0)
(-0.000433604 -0.0341693 0)
(-0.00143058 -0.0358224 0)
(0.000149045 -0.0360743 0)
(0.000240434 -0.0349585 0)
(-9.65019e-05 -0.035038 0)
(-2.50093e-05 -0.0357848 0)
(0.000758271 -0.0383595 0)
(1.71767e-05 -0.0412517 0)
(0.000608784 -0.0389835 0)
(-0.000807014 -0.0387091 0)
(-0.0016507 -0.0409315 0)
(-0.00102956 -0.0389862 0)
(-0.0010231 -0.0399728 0)
(-9.24148e-05 -0.0390558 0)
(-0.000348262 -0.0383428 0)
(-0.000529969 -0.039036 0)
(0.000479113 -0.0388588 0)
(-0.000159562 -0.0364667 0)
(0.000252344 -0.0351647 0)
(0.000874279 -0.0364731 0)
(-0.00118853 -0.0350579 0)
(-0.00147411 -0.0359189 0)
(-0.00035407 -0.0373197 0)
(-0.000269815 -0.0346435 0)
(-0.000146718 -0.0368887 0)
(0.000505284 -0.0365281 0)
(-0.00013631 -0.0377536 0)
(0.00076849 -0.037615 0)
(0.00196576 -0.0373086 0)
(0.00283164 -0.0359823 0)
(0.000366417 -0.0353752 0)
(-0.000342177 -0.034499 0)
(0.000441649 -0.0381851 0)
(-0.000353987 -0.0377879 0)
(-0.000398955 -0.0365843 0)
(-0.000469733 -0.0381473 0)
(-0.000537299 -0.0418158 0)
(0.000459535 -0.0396604 0)
(0.000238731 -0.0391259 0)
(-0.000634483 -0.0371831 0)
(-0.00169629 -0.0390125 0)
(-0.00168804 -0.0378515 0)
(-0.000452948 -0.0402602 0)
(-0.000830874 -0.0398264 0)
(-0.0003381 -0.0414896 0)
(-0.000145931 -0.0402247 0)
(4.07723e-05 -0.0400098 0)
(0.000134177 -0.0383638 0)
(-5.88356e-05 -0.0371908 0)
(0.000201615 -0.0371208 0)
(0.000306332 -0.0370428 0)
(0.000309383 -0.0367205 0)
(0.00157799 -0.0348194 0)
(0.00231166 -0.034081 0)
(0.00199501 -0.0364205 0)
(0.000335996 -0.0367083 0)
(-0.00013622 -0.0373454 0)
(-0.00104611 -0.0385375 0)
(-0.000762659 -0.0365996 0)
(0.000682453 -0.0352988 0)
(-4.55626e-05 -0.0375186 0)
(0.000553851 -0.0353845 0)
(0.000469749 -0.0366358 0)
(0.000221909 -0.0366835 0)
(0.000413624 -0.0338206 0)
(-0.000167577 -0.0339354 0)
(-0.000141926 -0.0344702 0)
(8.86693e-05 -0.0320835 0)
(0.000326066 -0.0327886 0)
(0.000242835 -0.0334619 0)
(0.000574682 -0.0344836 0)
(-0.00150366 -0.0382282 0)
(-0.00109546 -0.0377801 0)
(-0.00127511 -0.0375381 0)
(-0.000951199 -0.0403051 0)
(7.01581e-05 -0.041535 0)
(-0.000372272 -0.0421123 0)
(-3.94667e-05 -0.0410631 0)
(-0.000460363 -0.0388496 0)
(-0.00123814 -0.0346366 0)
(0.000611457 -0.0358957 0)
(-0.000121411 -0.0389473 0)
(-0.000842612 -0.0395466 0)
(-0.000482976 -0.0381122 0)
(-0.000710447 -0.0354536 0)
(-0.00029167 -0.0359477 0)
(-0.000570682 -0.0369493 0)
(-0.000826597 -0.0366663 0)
(-0.000246598 -0.0386892 0)
(-0.000907656 -0.0367511 0)
(8.10208e-06 -0.0376868 0)
(-0.00033011 -0.0390439 0)
(-0.000133364 -0.036138 0)
(0.000206782 -0.0343849 0)
(0.000415658 -0.0338125 0)
(0.00040884 -0.0329098 0)
(0.000442062 -0.0326572 0)
(0.000695708 -0.0309316 0)
(0.000966393 -0.0306825 0)
(0.000777128 -0.0319204 0)
(0.00121935 -0.0303151 0)
(0.00115602 -0.0359798 0)
(0.000497721 -0.0341226 0)
(0.000363292 -0.0349076 0)
(0.000346067 -0.0379923 0)
(0.000200878 -0.038946 0)
(-0.00037832 -0.0369634 0)
(-0.00104703 -0.0354565 0)
(-0.00188162 -0.0354388 0)
(-0.00109094 -0.0372238 0)
(-0.000429301 -0.0373103 0)
(0.000291133 -0.0381423 0)
(0.000300044 -0.0384792 0)
(-0.00140568 -0.036753 0)
(-0.000121762 -0.0374338 0)
(-0.000356612 -0.0385562 0)
(-0.000593393 -0.0394809 0)
(-0.000327808 -0.0383011 0)
(-0.000963062 -0.0372854 0)
(-0.000217959 -0.0367341 0)
(-0.000343771 -0.037603 0)
(3.84973e-06 -0.0379556 0)
(0.00146835 -0.0394299 0)
(6.21881e-05 -0.0359097 0)
(-0.000264451 -0.0349622 0)
(-0.000372546 -0.0339798 0)
(-9.26541e-05 -0.0345988 0)
(0.000508868 -0.0341848 0)
(0.000750634 -0.0338179 0)
(0.00121907 -0.033749 0)
(0.00307463 -0.0290665 0)
(0.000529077 -0.0336151 0)
(0.000675229 -0.0340728 0)
(-9.32546e-05 -0.0359359 0)
(8.81729e-05 -0.030917 0)
(-0.00019793 -0.0299721 0)
(-0.00114251 -0.0306156 0)
(-0.00122549 -0.0316499 0)
(-0.00140881 -0.0319058 0)
(-0.000657233 -0.0317615 0)
(-0.000536227 -0.0324776 0)
(-0.000235185 -0.0339975 0)
(-0.000197748 -0.0352668 0)
(-0.000103123 -0.0367655 0)
(2.01881e-05 -0.0387643 0)
(0.000582634 -0.0374693 0)
(-0.000782069 -0.0388123 0)
(0.0014871 -0.03825 0)
(0.00170445 -0.0372501 0)
(0.000422785 -0.0394712 0)
(0.0001381 -0.0394597 0)
(1.74101e-05 -0.0406186 0)
(-0.000275667 -0.0419088 0)
(0.000143292 -0.0361538 0)
(3.37562e-05 -0.0348644 0)
(-0.00110439 -0.0351292 0)
(0.00143053 -0.0345157 0)
(0.000865585 -0.0343078 0)
(0.00223459 -0.030727 0)
(3.12422e-05 -0.0313019 0)
(0.000336448 -0.0272276 0)
(-0.000323471 -0.0289214 0)
(8.3269e-05 -0.0280275 0)
(8.19047e-05 -0.0298202 0)
(8.79118e-05 -0.0311351 0)
(0.00035362 -0.0308633 0)
(-0.000268963 -0.0323264 0)
(-0.000277231 -0.0325447 0)
(-0.00147185 -0.0344708 0)
(0.000505741 -0.0370499 0)
(-7.20464e-05 -0.0370867 0)
(-0.000774864 -0.0378806 0)
(-0.000138409 -0.040107 0)
(0.000479617 -0.0393791 0)
(0.000347768 -0.038795 0)
(0.00137577 -0.0392502 0)
(0.00137621 -0.0386733 0)
(0.000856104 -0.0395836 0)
(0.00021972 -0.0401543 0)
(-0.000555686 -0.0408581 0)
(-0.00140516 -0.036741 0)
(-0.00133169 -0.0337136 0)
(-0.000595721 -0.0352325 0)
(0.000880217 -0.0354661 0)
(0.000759466 -0.0356006 0)
(0.00110312 -0.0354855 0)
(9.56483e-05 -0.0330686 0)
(-0.000800164 -0.0315359 0)
(0.00166967 -0.0356082 0)
(9.11427e-05 -0.0358465 0)
(-0.00033106 -0.034716 0)
(-2.09941e-05 -0.034522 0)
(0.000149699 -0.0340228 0)
(0.000213099 -0.0335638 0)
(0.000449988 -0.0344335 0)
(0.000408175 -0.0356499 0)
(0.000561409 -0.0359461 0)
(0.000221891 -0.0387338 0)
(0.000621971 -0.0382823 0)
(0.000157819 -0.039127 0)
(0.00124091 -0.0394177 0)
(0.000108882 -0.0425788 0)
(-0.000163654 -0.0397287 0)
(-7.84531e-05 -0.0405712 0)
(-0.000126136 -0.040203 0)
(-0.000206901 -0.0400599 0)
(-0.000205655 -0.0401557 0)
(-0.00298519 -0.0366636 0)
(-0.000860448 -0.0328356 0)
(0.000136963 -0.0351886 0)
(-0.000198126 -0.0354529 0)
(-0.000150212 -0.0371929 0)
(-0.000743917 -0.0379653 0)
(0.00173779 -0.0373743 0)
(0.00016111 -0.0362538 0)
(0.000764014 -0.0394739 0)
(0.000523666 -0.0376203 0)
(0.000274926 -0.0388507 0)
(0.00043451 -0.0383811 0)
(0.000363845 -0.0383756 0)
(0.00102288 -0.0388241 0)
(0.000844851 -0.0411728 0)
(0.00149651 -0.0396768 0)
(0.000976791 -0.0386925 0)
(0.000880525 -0.0388579 0)
(0.000348075 -0.0358484 0)
(0.000863968 -0.0353919 0)
(-0.000504159 -0.0371561 0)
(-0.0016294 -0.037571 0)
(-0.000129754 -0.0370302 0)
(0.000232824 -0.0360967 0)
(6.3204e-05 -0.0364983 0)
(5.02056e-05 -0.0428732 0)
(3.2562e-06 -0.0401601 0)
(6.5199e-06 -0.0400449 0)
(-0.00224016 -0.0366636 0)
(-0.0014584 -0.0349685 0)
(-0.000987402 -0.0370697 0)
(-0.000462522 -0.0394411 0)
(0.000711817 -0.0402221 0)
(0.000288244 -0.0421451 0)
(7.90473e-05 -0.0412664 0)
(0.000265961 -0.0416345 0)
(-0.000224154 -0.0449497 0)
(-7.44331e-05 -0.0448778 0)
(0.000804599 -0.0444287 0)
(0.000972675 -0.0394608 0)
(3.70985e-05 -0.0418162 0)
(0.00152996 -0.039783 0)
(0.000607379 -0.0397288 0)
(-0.00112791 -0.0365058 0)
(0.000649263 -0.0361806 0)
(-0.000933472 -0.0315949 0)
(-0.000739612 -0.0322846 0)
(-0.000300115 -0.0326826 0)
(-5.4379e-05 -0.0332631 0)
(-0.000526388 -0.0325525 0)
(-0.000150091 -0.0330092 0)
(-0.000610666 -0.0322104 0)
(-0.000584167 -0.0333309 0)
(0.00020427 -0.0368516 0)
(-0.00059508 -0.035239 0)
(-0.000633128 -0.0341425 0)
(-0.00155832 -0.040318 0)
(-0.00155921 -0.0403047 0)
(-0.000696879 -0.0392571 0)
(-0.000429959 -0.0405846 0)
(-0.000404944 -0.0427246 0)
(-0.000455696 -0.0426449 0)
(-0.000540728 -0.0432653 0)
(-0.00086525 -0.0442795 0)
(0.000347942 -0.0438596 0)
(0.000418082 -0.045039 0)
(0.000527145 -0.0425293 0)
(-0.000440436 -0.0414228 0)
(-0.000238425 -0.0391717 0)
(-0.000203559 -0.0356655 0)
(-0.000126822 -0.0312582 0)
(0.000744815 -0.0295043 0)
(-0.000470824 -0.0315534 0)
(-2.94591e-05 -0.0306021 0)
(-0.000497964 -0.0311715 0)
(-0.000173477 -0.0305782 0)
(0.000292088 -0.0314903 0)
(0.00087103 -0.0316889 0)
(-0.000337818 -0.0329755 0)
(-0.000113094 -0.0326521 0)
(-0.00019775 -0.0320131 0)
(-0.000151356 -0.0316989 0)
(-0.000483094 -0.0318052 0)
(-0.000979717 -0.0464075 0)
(-0.000262833 -0.0466368 0)
(0.000621476 -0.0451835 0)
(-9.43487e-05 -0.0441112 0)
(0.000303557 -0.0417258 0)
(0.000832014 -0.0422487 0)
(-0.000103137 -0.0421064 0)
(0.00021832 -0.0333852 0)
(-0.000541131 -0.0346961 0)
(-0.0007798 -0.035097 0)
(-0.000347678 -0.0318287 0)
(0.000119296 -0.0318343 0)
(-0.00029155 -0.032102 0)
(-0.000257791 -0.0319876 0)
(-0.000295769 -0.0331225 0)
(-0.000383798 -0.0331823 0)
(0.00023591 -0.0321749 0)
(0.000699919 -0.0310029 0)
(0.00172898 -0.0348237 0)
(0.000693183 -0.0365696 0)
(4.65916e-05 -0.0357124 0)
(0.000133879 -0.0356069 0)
(-8.09566e-05 -0.0428055 0)
(0.000239871 -0.0406764 0)
(0.000175701 -0.0431824 0)
(-6.38069e-05 -0.0427701 0)
(-0.000290924 -0.0407892 0)
(0.000558812 -0.0420389 0)
(-4.45095e-05 -0.0423619 0)
(-0.00151726 -0.0403453 0)
(-0.00215226 -0.0356599 0)
(-0.00226706 -0.0377994 0)
(-0.00166145 -0.0386227 0)
(0.000183051 -0.0332653 0)
(-0.000339424 -0.0330451 0)
(0.00058005 -0.0374117 0)
(0.0001085 -0.0356102 0)
(9.20529e-05 -0.0369975 0)
(0.000192223 -0.0399177 0)
(0.000500357 -0.0383171 0)
(0.000936426 -0.0367293 0)
(0.000748333 -0.0381699 0)
(0.000792933 -0.0392242 0)
(0.000901445 -0.0384639 0)
(-0.00174832 -0.0422929 0)
(0.000687876 -0.0400598 0)
(0.000176835 -0.0401223 0)
(-0.000174368 -0.0418917 0)
(0.000597486 -0.0422456 0)
(0.000599791 -0.0421615 0)
(0.000615283 -0.0421741 0)
(-0.000562949 -0.0413205 0)
(-0.000868683 -0.0422466 0)
(-0.00225769 -0.0395257 0)
(-0.00305519 -0.0378039 0)
(-0.000955845 -0.0361288 0)
(-0.000587224 -0.0361135 0)
(-0.000870698 -0.0356608 0)
(-0.000396259 -0.037289 0)
(0.000136866 -0.0384574 0)
(0.000167938 -0.0393375 0)
(-0.000663087 -0.0417879 0)
(0.000661866 -0.0398573 0)
(-0.000806177 -0.0424804 0)
(-0.000311284 -0.0427154 0)
(0.000774473 -0.0413253 0)
(0.000968904 -0.0395282 0)
(0.000419848 -0.0353822 0)
(0.00073307 -0.0357597 0)
(0.000698174 -0.0408207 0)
(-7.57506e-05 -0.0382578 0)
(-0.000439472 -0.0383302 0)
(-0.000382391 -0.0383769 0)
(-6.03149e-05 -0.0387294 0)
(0.000243824 -0.0381518 0)
(-7.42689e-05 -0.0389948 0)
(-0.00027337 -0.0382433 0)
(-0.00031328 -0.0392891 0)
(-0.000319239 -0.0421457 0)
(7.4784e-05 -0.0428015 0)
(2.6091e-05 -0.0425332 0)
(-0.000156302 -0.0418126 0)
(-0.00184425 -0.043124 0)
(-0.00163512 -0.03806 0)
(-0.00200622 -0.0343696 0)
(-0.000849054 -0.0342842 0)
(-0.00286049 -0.0337834 0)
(-0.000929405 -0.0356468 0)
(-4.00073e-05 -0.0342599 0)
(0.000305215 -0.0343455 0)
(0.000525341 -0.0353238 0)
(0.000359985 -0.0351722 0)
(-0.000298353 -0.0375103 0)
(-0.000688412 -0.0394502 0)
(-0.000384523 -0.0395211 0)
(-0.000549239 -0.0396863 0)
(-3.24191e-05 -0.0382256 0)
(0.000413458 -0.0397214 0)
(-0.000181899 -0.0379006 0)
(0.000935888 -0.0321854 0)
(0.00150157 -0.0333331 0)
(0.00134227 -0.0331272 0)
(0.00157627 -0.031417 0)
(0.00013964 -0.0336403 0)
(0.000638219 -0.0369243 0)
(0.000756422 -0.037406 0)
(0.000428054 -0.0376217 0)
(-0.000196951 -0.0383065 0)
(-0.000560696 -0.0388722 0)
(-0.000743296 -0.0407885 0)
(0.000136724 -0.0408834 0)
(-0.000854306 -0.0401804 0)
(-0.00300205 -0.0324755 0)
(-0.00349682 -0.0333838 0)
(-0.00213913 -0.0359613 0)
(-0.0023201 -0.034764 0)
(-0.000563347 -0.0347317 0)
(-0.000548642 -0.0356524 0)
(-0.000966504 -0.0339157 0)
(-0.00121655 -0.0335835 0)
(-0.000512937 -0.0334301 0)
(3.15178e-05 -0.0341028 0)
(-0.00018478 -0.0334162 0)
(0.000475216 -0.0331173 0)
(-1.20714e-05 -0.0359835 0)
(-0.00091328 -0.0375214 0)
(-3.79711e-05 -0.0374648 0)
(-8.00527e-05 -0.0368801 0)
(2.16808e-06 -0.0366631 0)
(5.80458e-05 -0.0359497 0)
(-3.17219e-05 -0.0352823 0)
(-0.000112548 -0.0347892 0)
(-4.05797e-05 -0.034255 0)
(0.00132657 -0.0339353 0)
(0.00228409 -0.0282469 0)
(0.000363963 -0.0308617 0)
(0.00170237 -0.033375 0)
(0.000414908 -0.0351534 0)
(7.17034e-05 -0.0366368 0)
(0.000537823 -0.0377582 0)
(0.000558841 -0.0400145 0)
(-0.0028232 -0.0336598 0)
(-0.00230964 -0.0384052 0)
(-0.00254408 -0.0376588 0)
(-0.00228102 -0.0358382 0)
(-0.00290525 -0.0339645 0)
(-0.00352491 -0.0311551 0)
(-0.00152001 -0.0343665 0)
(-0.00261793 -0.0362481 0)
(-0.00289503 -0.0356634 0)
(-0.000592178 -0.0332228 0)
(-0.000728588 -0.0332959 0)
(-0.000978597 -0.0339189 0)
(-0.000563544 -0.0339647 0)
(0.00041839 -0.0362702 0)
(-0.000156637 -0.0360343 0)
(0.00062196 -0.0346709 0)
(0.00127706 -0.0350051 0)
(-0.000290494 -0.0373786 0)
(0.00027936 -0.0348915 0)
(0.00108395 -0.0368775 0)
(-0.000379141 -0.0352848 0)
(-0.000768558 -0.0342357 0)
(-8.2098e-05 -0.0311628 0)
(0.000343401 -0.0309221 0)
(0.000379069 -0.0315871 0)
(0.00386191 -0.0301347 0)
(5.69683e-05 -0.0311667 0)
(0.00101896 -0.0325993 0)
(-0.000947994 -0.0348394 0)
(-0.0015623 -0.0326636 0)
(-0.00190327 -0.0317592 0)
(-0.00311806 -0.0337063 0)
(-0.00424639 -0.0322702 0)
(-0.00365348 -0.0293227 0)
(-0.00380291 -0.0317485 0)
(-0.00300939 -0.0303293 0)
(-0.00403983 -0.0330612 0)
(-0.00152225 -0.0367493 0)
(-0.00277036 -0.033547 0)
(-0.00107684 -0.0337819 0)
(-0.00124087 -0.033499 0)
(-0.000348767 -0.0359764 0)
(-0.000613049 -0.0374687 0)
(0.000110594 -0.0375309 0)
(0.00186772 -0.0366329 0)
(0.000936822 -0.0383609 0)
(0.000713581 -0.0366704 0)
(0.000917095 -0.0377582 0)
(0.00119224 -0.0323981 0)
(-0.00181449 -0.0318141 0)
(-0.000133168 -0.0369235 0)
(-0.000464783 -0.0366436 0)
(-0.000696937 -0.0380787 0)
(0.000533941 -0.0388986 0)
(-0.000173002 -0.0366574 0)
(-0.000627253 -0.0364848 0)
(0.00102772 -0.0354218 0)
(0.00200651 -0.0350346 0)
(0.00119847 -0.033812 0)
(-0.00137368 -0.0323702 0)
(-0.00206251 -0.0300907 0)
(-0.00228361 -0.03129 0)
(-0.000376699 -0.0358118 0)
(-0.00033062 -0.0360066 0)
(-0.00128202 -0.034931 0)
(-0.00115211 -0.0340065 0)
(-0.00162865 -0.0348817 0)
(6.62395e-05 -0.0377446 0)
(-0.00016343 -0.0339281 0)
(-0.00140942 -0.0352773 0)
(-0.000948126 -0.0357734 0)
(-0.000373591 -0.0372879 0)
(0.000455655 -0.037049 0)
(-3.69638e-05 -0.037712 0)
(-6.3115e-05 -0.0395642 0)
(0.000336782 -0.0395117 0)
(0.00076126 -0.0395748 0)
(0.000398945 -0.0388476 0)
(-0.00169582 -0.0363651 0)
(-0.000107007 -0.0319715 0)
(0.000597897 -0.0361775 0)
(-0.00100575 -0.0358841 0)
(-0.000287492 -0.0379218 0)
(-0.000673804 -0.0356444 0)
(0.000747861 -0.0379677 0)
(-0.000352972 -0.037885 0)
(0.00210499 -0.0362166 0)
(0.00136244 -0.0346264 0)
(0.00241947 -0.0347947 0)
(0.000592043 -0.032806 0)
(0.000990198 -0.0347488 0)
(0.000107517 -0.0351152 0)
(-7.18097e-05 -0.0338212 0)
(-0.000446218 -0.0339291 0)
(-0.000240115 -0.0350236 0)
(-0.000514746 -0.0347742 0)
(0.000258296 -0.0356876 0)
(-0.000224988 -0.0358007 0)
(-0.00101223 -0.038813 0)
(-8.26522e-05 -0.0384338 0)
(-0.00162471 -0.0375947 0)
(-0.000838325 -0.0381937 0)
(-0.000568974 -0.0381089 0)
(-0.000262427 -0.0390532 0)
(-0.00013482 -0.0408352 0)
(-0.00028118 -0.0408587 0)
(0.000187029 -0.0420253 0)
(-0.000591467 -0.0430339 0)
(0.000470493 -0.042761 0)
(-3.73164e-05 -0.0413254 0)
(0.000270094 -0.0394374 0)
(-0.00085204 -0.0399241 0)
(-0.00069088 -0.034276 0)
(-0.000869564 -0.0367425 0)
(3.5797e-05 -0.0379842 0)
(-0.000699393 -0.0380604 0)
(-5.00473e-05 -0.0380608 0)
(0.000434901 -0.0310773 0)
(0.000509847 -0.0327859 0)
(0.000693242 -0.0326281 0)
(0.000711513 -0.0327041 0)
(0.00171198 -0.0333667 0)
(0.00155376 -0.0354731 0)
(0.00143986 -0.0307543 0)
(0.00129325 -0.0304073 0)
(0.00110947 -0.0292383 0)
(0.00107197 -0.029735 0)
(0.00111509 -0.0299154 0)
(0.00142855 -0.0311064 0)
(0.00329584 -0.0316936 0)
(-0.000215886 -0.0336349 0)
(-0.000372277 -0.0382673 0)
(0.000882066 -0.0383659 0)
(-0.000725345 -0.038997 0)
(-5.55527e-06 -0.0387928 0)
(5.3638e-05 -0.0409437 0)
(0.000560822 -0.0435336 0)
(0.000423862 -0.0444469 0)
(0.000239632 -0.0432622 0)
(-0.000360002 -0.0430858 0)
(-0.000775816 -0.0412585 0)
(-0.000843861 -0.0394165 0)
(0.000408264 -0.0399452 0)
(9.0823e-05 -0.0396027 0)
(1.29742e-05 -0.0387592 0)
(0.000325931 -0.0348805 0)
(-0.000162019 -0.0356323 0)
(0.000884995 -0.0351963 0)
(0.000449598 -0.0368921 0)
(0.000444116 -0.0373159 0)
(0.000623515 -0.0289502 0)
(-0.000275135 -0.0325932 0)
(-8.78057e-06 -0.032415 0)
(3.05496e-05 -0.0307579 0)
(8.74913e-05 -0.030061 0)
(0.000276074 -0.0300084 0)
(0.000694537 -0.0298719 0)
(0.00170364 -0.029978 0)
(0.000682157 -0.0295869 0)
(0.000647065 -0.0301513 0)
(0.000489185 -0.0317255 0)
(0.000486706 -0.0284698 0)
(-0.00109265 -0.0271571 0)
(-0.00108407 -0.0308989 0)
(0.000877892 -0.0288888 0)
(0.000201154 -0.0281497 0)
(-7.28029e-05 -0.0371874 0)
(-0.000449651 -0.0335368 0)
(-3.99886e-05 -0.0327001 0)
(0.000115368 -0.0336777 0)
(-6.85351e-05 -0.0345555 0)
(0.000172806 -0.0372746 0)
(-5.52601e-05 -0.0397223 0)
(-0.000252352 -0.0386946 0)
(-0.000852699 -0.0377894 0)
(-0.000393168 -0.0382245 0)
(-0.000128178 -0.0390532 0)
(0.000141919 -0.0392504 0)
(-0.000882046 -0.0393502 0)
(-0.000846696 -0.0387001 0)
(-0.000259515 -0.0357929 0)
(0.000305818 -0.0347846 0)
(0.00024066 -0.0377775 0)
(0.000131456 -0.0365321 0)
(2.85188e-06 -0.035305 0)
(-0.000160648 -0.0375801 0)
(0.000119254 -0.0386451 0)
(-0.000653512 -0.036972 0)
(-0.000331621 -0.0364634 0)
(0.000179785 -0.0378066 0)
(0.000478044 -0.0364056 0)
(-0.000819263 -0.0333535 0)
(0.0021836 -0.0349655 0)
(0.00146217 -0.0381794 0)
(-0.000119052 -0.0309819 0)
(0.00291667 -0.0339877 0)
(0.0011128 -0.0338823 0)
(0.00125274 -0.0318429 0)
(0.00105312 -0.0329606 0)
(-8.34425e-05 -0.037003 0)
(0.000446259 -0.0346536 0)
(0.000174867 -0.0343784 0)
(-9.77228e-05 -0.0359025 0)
(0.000573458 -0.039496 0)
(-0.000294194 -0.0393446 0)
(-0.00163475 -0.0374206 0)
(-0.00134549 -0.0399549 0)
(-0.00109615 -0.0403175 0)
(-0.00116647 -0.0385865 0)
(-0.000364816 -0.0369388 0)
(-0.000697311 -0.0378204 0)
(0.000256899 -0.0377056 0)
(0.00011345 -0.0383073 0)
(-0.000721625 -0.0415902 0)
(-0.000520054 -0.0418779 0)
(0.000379022 -0.0426326 0)
(-0.000359891 -0.0400102 0)
(-0.00073678 -0.0396338 0)
(0.000901356 -0.0434027 0)
(0.000453252 -0.0400704 0)
(0.00412883 -0.0397844 0)
(0.00333801 -0.0376433 0)
(0.00281562 -0.0347155 0)
(0.00200879 -0.0371253 0)
(-0.00123391 -0.0384758 0)
(0.0014925 -0.0370098 0)
(-9.61986e-05 -0.0335449 0)
(0.000818988 -0.0372374 0)
(-0.000339745 -0.0378196 0)
(-5.84579e-05 -0.0368391 0)
(-2.21886e-05 -0.0368075 0)
(-0.000256932 -0.037076 0)
(-0.00137111 -0.0378151 0)
(-0.00111386 -0.0423435 0)
(-0.000508196 -0.0408604 0)
(-0.000185031 -0.0399557 0)
(-0.000691079 -0.0416224 0)
(-6.37717e-06 -0.0423585 0)
(-0.000357277 -0.0387837 0)
(0.000308629 -0.039932 0)
(0.000109812 -0.0444358 0)
(-0.000463317 -0.0427738 0)
(-0.00137085 -0.042452 0)
(-0.00048646 -0.045244 0)
(0.000331465 -0.04284 0)