/*--------------------------------*- C++ -*----------------------------------*\
  =========                 |
  \\      /  F ield         | OpenFOAM: The Open Source CFD Toolbox
   \\    /   O peration     | Website:  https://openfoam.org
    \\  /    A nd           | Version:  12
     \\/     M anipulation  |
\*---------------------------------------------------------------------------*/
FoamFile
{
    format      ascii;
    class       IOPosition;
    location    "0.1/lagrangian/cloud";
    object      positions;
}
// * * * * * * * * * * * * * * * * * * * * * * * * * * * * * * * * * * * * * //

3978
(
(2.66248e-07 0.5 0.5 7.44502e-10) 0 7376 2
(2.6625e-07 0.5 0.5 5.83597e-10) 0 7376 2
(0.359589 0.320205 0.26279 0.0574157) 1 2 1
(0.369756 0.315122 0.217458 0.0976638) 1 2 1
(0.387435 0.306283 0.237705 0.0685781) 1 2 1
(0.109245 0.0950606 0.350317 0.445378) 2 2 2
(0.807152 0.096424 0.0836311 0.0127929) 3 7379 1
(0.0144411 0.492779 0.0936963 0.399083) 3 6 1
(0.327592 0.336204 0.265576 0.0706279) 5 8 1
(0.0785442 0.460728 0.382785 0.0779432) 6 10 1
(0.292499 0.353751 0.31192 0.0418304) 7 12 1
(0.411486 0.294257 0.240141 0.054116) 8 14 1
(0.677298 0.161351 0.0981406 0.0632103) 9 16 1
(0.814391 0.0928047 0.030608 0.0621967) 10 18 1
(0.859611 0.0678312 0.0701945 0.00236325) 11 7387 2
(0.789002 0.0148812 0.105499 0.0906176) 12 24 2
(0.859357 0.0703217 0.0593857 0.010936) 13 27 2
(0.565155 0.217422 0.160775 0.0566474) 14 26 1
(0.64586 0.17707 0.0930191 0.0840507) 15 7391 1
(0.726036 0.136982 0.068922 0.06806) 16 7392 1
(0.885138 0.0153845 0.0420462 0.0574308) 17 35 1
(0.650049 0.14604 0.0289357 0.174975) 18 37 1
(0.666147 0.166927 0.125903 0.041024) 19 39 2
(0.905013 0.0235361 0.0239573 0.0474934) 20 38 2
(0.511416 0.23548 0.00881246 0.244292) 21 40 2
(0.208464 0.395768 0.299629 0.0961387) 22 42 1
(0.71234 0.14383 0.0785956 0.0652343) 23 7399 1
(0.870341 0.0648295 0.0471325 0.017697) 24 46 1
(0.861953 0.0690237 0.0608822 0.00814153) 25 51 2
(0.902972 0.0485139 0.00340908 0.0451048) 26 7402 1
(0.618673 0.190664 0.0467235 0.14394) 27 54 1
(0.782948 0.0800043 0.108526 0.0285218) 28 56 2
(0.940051 0.00839122 0.0215832 0.0299744) 29 59 1
(0.733042 0.133479 0.0542134 0.0792657) 30 60 1
(0.892255 0.000702949 0.0538723 0.0531694) 31 62 2
(0.76199 0.119005 0.0576908 0.061314) 32 65 2
(0.380333 0.267796 0.0420373 0.309834) 33 64 2
(0.606289 0.196856 0.131952 0.0649034) 34 66 1
(0.841867 0.0790663 0.0286407 0.0504256) 35 7411 1
(0.693501 0.153249 0.0327196 0.12053) 36 72 1
(0.8542 0.0609149 0.0729002 0.0119853) 37 74 2
(0.793431 0.103285 0.0403708 0.0629139) 38 76 1
(0.824913 0.0875437 0.0723844 0.0151593) 39 78 1
(0.864402 0.0581354 0.0677989 0.00966348) 40 7416 2
(0.921947 0.0381283 0.000897945 0.0390263) 41 83 1
(0.830466 0.0455414 0.0392258 0.0847672) 42 85 1
(0.734662 0.0492659 0.0834031 0.132669) 43 87 1
(0.756488 0.0736889 0.0480672 0.121756) 44 89 1
(0.933094 0.0334532 0.0332468 0.000206329) 45 88 1
(0.857941 0.0510735 0.0710295 0.019956) 46 7422 2
(0.969568 0.0152159 0.00567885 0.00953705) 47 94 1
(0.782418 0.0359772 0.0728135 0.108791) 48 97 1
(0.710533 0.137986 0.00674723 0.144733) 49 99 1
(0.679687 0.100947 0.0592099 0.160157) 50 98 2
(0.623299 0.18835 0.123248 0.0651021) 51 100 1
(0.480134 0.23152 0.0284129 0.259933) 52 102 2
(0.66171 0.169145 0.0265646 0.142581) 53 104 1
(0.498274 0.250863 0.0718328 0.17903) 54 106 1
(0.631368 0.184316 0.156814 0.0275024) 55 7431 1
(0.989839 0.00508033 0.000296641 0.00478369) 56 112 1
(0.806071 0.0109324 0.0969643 0.0860319) 57 114 2
(0.790048 0.0199843 0.104976 0.0849919) 58 116 2
(0.677197 0.0950526 0.0663489 0.161402) 59 119 1
(0.56766 0.21617 0.157229 0.0589412) 60 121 2
(0.700189 0.149905 0.00391649 0.145989) 61 123 2
(0.710301 0.0276271 0.117222 0.14485) 62 122 2
(0.514467 0.242767 0.1655 0.0772667) 63 124 1
(0.331734 0.334133 0.194838 0.139295) 64 126 1
(0.443748 0.278126 0.0850293 0.193097) 65 128 1
(0.55257 0.223715 0.0281302 0.195585) 66 130 1
(0.811246 0.0943768 0.0896724 0.00470444) 67 7443 1
(0.868628 0.0187799 0.0469059 0.0656858) 68 134 2
(0.892401 0.0537997 0.0115847 0.042215) 69 136 1
(0.922349 0.0388256 0.0191192 0.0197064) 70 141 2
(0.849793 0.0751034 0.0179712 0.0571322) 71 143 2
(2.66173e-07 0.5 0.5 1.13768e-09) 75 7451 2
(2.66175e-07 0.5 0.5 7.89501e-10) 75 7451 2
(0.0352229 0.34653 0.482389 0.135858) 76 3 1
(0.431423 0.284289 0.264925 0.0193637) 75 1 2
(0.322025 0.0973496 0.338987 0.241638) 76 3 1
(0.499395 0.250302 0.231937 0.0183654) 76 151 1
(0.63541 0.182295 0.0509433 0.131352) 78 153 1
(0.342999 0.328501 0.12706 0.201441) 78 155 1
(0.693597 0.153201 0.0524324 0.100769) 79 157 1
(0.749637 0.125182 0.102213 0.0229682) 80 159 1
(0.673921 0.163039 0.133658 0.0293815) 81 161 1
(0.581036 0.209482 0.158725 0.0507568) 82 163 1
(0.590311 0.204844 0.16335 0.0414941) 83 165 1
(0.248435 0.375783 0.131149 0.244633) 84 167 1
(0.36904 0.31548 0.07651 0.23897) 85 169 1
(0.661345 0.0633234 0.106004 0.169327) 86 172 1
(0.489683 0.198705 0.0564538 0.255158) 87 174 1
(0.586081 0.077613 0.20696 0.129347) 88 175 2
(0.594781 0.20261 0.126504 0.0761054) 89 177 1
(0.665966 0.167017 0.15799 0.00902722) 90 179 1
(0.971502 0.014249 0.0106316 0.00361742) 91 179 1
(0.829266 0.0173063 0.0853671 0.0680609) 92 183 2
(0.46139 0.180396 0.269305 0.0889087) 93 185 2
(0.68517 0.0447096 0.157415 0.112706) 94 187 2
(0.703006 0.0954236 0.0530734 0.148497) 95 190 1
(0.352538 0.323731 0.110436 0.213295) 96 191 1
(0.146119 0.426941 0.22737 0.199571) 97 193 1
(0.258541 0.370729 0.192107 0.178622) 98 195 1
(0.044074 0.477963 0.382448 0.0955149) 100 197 1
(0.0915129 0.454244 0.341557 0.112687) 101 199 1
(0.124876 0.437562 0.0729893 0.364573) 101 201 1
(0.634805 0.0394505 0.182597 0.143147) 102 203 2
(0.517783 0.19539 0.0457186 0.241108) 103 206 1
(0.565244 0.217378 0.145531 0.0718466) 104 208 2
(0.513013 0.0652653 0.178228 0.243493) 105 207 2
(0.717119 0.14144 0.0172731 0.124167) 106 212 2
(0.9517 0.00714675 0.0241499 0.0170032) 107 65 1
(0.533667 0.0236896 0.233166 0.209477) 108 67 1
(0.372629 0.313686 0.219619 0.0940664) 109 217 1
(0.695572 0.152214 0.0164501 0.135764) 110 219 1
(0.822036 0.0358222 0.0531597 0.0889818) 111 222 1
(0.237263 0.380766 0.381368 0.000602476) 112 223 2
(0.708965 0.0518455 0.145517 0.0936719) 113 225 2
(0.770613 0.114693 0.0483548 0.0663386) 114 228 2
(0.929156 0.035422 0.0302002 0.00522182) 115 230 2
(0.350078 0.324961 0.136222 0.188739) 116 231 1
(0.0939477 0.453026 0.0695898 0.383436) 117 233 1
(0.0997503 0.40369 0.0464345 0.450125) 119 235 2
(0.552367 0.200525 0.0232914 0.223816) 120 237 2
(0.671415 0.164293 0.0775565 0.0867362) 121 239 1
(0.295264 0.352368 0.338324 0.014044) 122 241 1
(0.138129 0.27161 0.159325 0.430936) 123 243 2
(0.100997 0.178762 0.270739 0.449501) 124 245 2
(0.11915 0.195604 0.440425 0.244821) 124 247 2
(0.370526 0.239076 0.314737 0.0756614) 125 249 2
(0.742469 0.0734383 0.128766 0.0553272) 126 251 2
(0.813608 0.0192557 0.0739401 0.0931958) 127 251 2
(0.785538 0.107231 0.0613539 0.0458772) 128 107 2
(0.556997 0.221501 0.0922138 0.129288) 129 109 2
(0.519356 0.240322 0.0721085 0.168213) 130 111 2
(0.717276 0.141362 0.132963 0.00839916) 131 261 1
(0.626128 0.111135 0.186936 0.0758011) 132 263 2
(0.510665 0.0767277 0.16794 0.244668) 133 266 1
(0.573448 0.152192 0.061084 0.213276) 134 268 1
(0.753814 0.0557197 0.123093 0.0673731) 135 269 2
(0.667825 0.0724794 0.166088 0.0936082) 136 271 2
(0.627892 0.0906453 0.0954088 0.186054) 137 274 1
(0.650131 0.174935 0.112614 0.0623201) 138 276 2
(0.78271 0.0280359 0.0806092 0.108645) 139 275 2
(0.806377 0.0968114 0.0296662 0.0671452) 140 277 1
(0.562465 0.218768 0.17852 0.0402474) 141 279 1
(0.609427 0.195287 0.140239 0.0550479) 142 281 1
(0.643755 0.178122 0.133539 0.044583) 143 283 1
(0.310297 0.32164 0.0232118 0.344852) 144 285 2
(0.855159 0.0337498 0.0386706 0.0724204) 145 287 2
(2.66173e-07 0.5 0.5 1.0195e-09) 150 7452 2
(2.66175e-07 0.5 0.5 7.14283e-10) 150 7452 2
(0.0406365 0.479682 0.209083 0.270598) 151 152 2
(0.158667 0.420667 0.171421 0.249246) 150 7452 2
(0.0868864 0.456557 0.0447028 0.411854) 151 152 2
(0.0412288 0.472086 0.479386 0.00729964) 151 152 1
(0.501328 0.249336 0.196036 0.0532999) 152 302 1
(0.849396 0.0103159 0.0753019 0.0649859) 153 156 1
(0.94033 0.0298349 0.00589514 0.0239398) 154 304 1
(0.76187 0.119065 0.0203936 0.0986714) 155 306 1
(0.590286 0.204857 0.0398823 0.164975) 156 308 1
(0.654791 0.172604 0.0221633 0.150441) 157 310 1
(0.510446 0.244777 0.0973691 0.147408) 158 312 1
(0.488149 0.255926 0.128784 0.127142) 159 314 1
(0.211646 0.394177 0.30523 0.0889475) 160 316 1
(0.124951 0.426109 0.011415 0.437524) 161 318 2
(0.631227 0.111836 0.0725507 0.184386) 162 320 2
(0.720971 0.0551853 0.0843292 0.139515) 163 322 2
(0.953442 0.0076057 0.0232791 0.0156734) 164 326 2
(0.930579 0.0347107 0.0176414 0.0170693) 165 329 2
(0.815552 0.043542 0.048682 0.0922239) 166 328 2
(0.637377 0.181311 0.123806 0.0575053) 167 330 1
(0.651125 0.174438 0.122821 0.051617) 168 332 1
(0.562421 0.204038 0.0147512 0.218789) 169 334 2
(0.776673 0.108224 0.00343942 0.111664) 170 336 2
(0.728617 0.064611 0.135692 0.0710807) 171 192 1
(0.907421 0.0462893 0.0187069 0.0275824) 172 194 2
(0.426407 0.286797 0.263335 0.0234613) 173 342 1
(0.1491 0.42545 0.125598 0.299852) 173 344 1
(0.18066 0.40967 0.0734027 0.336267) 174 346 1
(0.486366 0.249261 0.256817 0.00755576) 175 348 2
(0.591287 0.0569211 0.204356 0.147435) 176 350 2
(0.441213 0.058317 0.279394 0.221077) 177 352 2
(0.0762229 0.18774 0.461889 0.274149) 178 354 2
(0.118595 0.229718 0.440703 0.210985) 179 356 2
(0.201882 0.363809 0.399059 0.0352495) 180 358 2
(0.226807 0.386597 0.153387 0.233209) 181 360 1
(0.289596 0.355202 0.243199 0.112003) 182 362 1
(0.397511 0.0242412 0.301244 0.277003) 183 216 1
(0.615004 0.192498 0.1443 0.048198) 184 366 1
(0.332571 0.333714 0.0253322 0.308382) 185 368 1
(0.156175 0.421913 0.0468859 0.375027) 186 370 1
(0.193647 0.316278 0.0868988 0.403177) 188 372 2
(0.291037 0.211613 0.142868 0.354482) 189 374 2
(0.540168 0.229916 0.149779 0.0801366) 190 376 1
(0.345136 0.327432 0.051374 0.276058) 191 232 2
(0.356273 0.321863 0.0606943 0.261169) 192 234 2
(0.624992 0.158418 0.187504 0.0290858) 193 236 1
(0.579788 0.210106 0.0925317 0.117574) 194 386 1
(0.948249 0.0224612 0.0258754 0.00341422) 195 388 2
(0.82256 0.0887201 0.0219796 0.0667405) 196 391 2
(0.722475 0.121988 0.0167747 0.138762) 197 393 1
(0.529047 0.138361 0.0971155 0.235476) 198 395 1
(0.1302 0.357687 0.0772127 0.4349) 199 397 1
(0.12336 0.43832 0.357876 0.0804435) 200 399 2
(0.17127 0.414365 0.160605 0.25376) 201 401 2
(0.458693 0.270653 0.00870851 0.261945) 202 403 2
(0.274597 0.326826 0.0358755 0.362701) 203 402 2
(0.172781 0.413609 0.253163 0.160446) 204 404 1
(0.0469375 0.476531 0.194457 0.282075) 205 406 1
(0.00891591 0.495542 0.193373 0.302169) 206 408 1
(0.0950782 0.452461 0.37557 0.0768907) 207 410 1
(0.0272907 0.253804 0.486355 0.23255) 207 412 2
(0.116389 0.198393 0.243412 0.441805) 209 414 2
(0.0126665 0.440916 0.493667 0.0527506) 209 416 2
(0.101896 0.449052 0.0661664 0.382885) 210 418 1
(0.28662 0.262984 0.0937062 0.35669) 212 420 2
(0.32072 0.152298 0.187342 0.33964) 213 422 2
(0.235502 0.21063 0.171619 0.382249) 214 424 2
(0.558593 0.20498 0.0157238 0.220703) 215 426 2
(0.48495 0.257525 0.185153 0.0723717) 216 428 1
(0.208217 0.395891 0.327879 0.0680126) 217 430 1
(0.0112514 0.494374 0.468472 0.0259018) 218 432 1
(0.144449 0.35707 0.070706 0.427776) 219 434 2
(0.262559 0.240758 0.127962 0.36872) 220 436 2
(2.66173e-07 0.5 0.5 1.01117e-09) 225 7453 2
(2.66175e-07 0.5 0.5 7.53705e-10) 225 7453 2
(0.035842 0.482079 0.164068 0.318011) 151 301 2
(0.0798897 0.460055 0.165938 0.294117) 225 7453 2
(0.0358371 0.482081 0.364424 0.117657) 151 301 2
(0.00317436 0.496945 0.498413 0.00146789) 226 301 1
(0.329782 0.335109 0.186794 0.148315) 227 303 2
(0.674357 0.162822 0.0267973 0.136024) 228 451 1
(0.511852 0.244074 0.194749 0.0493255) 229 453 1
(0.454935 0.272532 0.197872 0.0746603) 230 455 1
(0.340445 0.329778 0.205528 0.12425) 231 457 1
(0.487488 0.256256 0.152936 0.10332) 232 459 1
(0.271777 0.364111 0.305318 0.0587938) 233 461 1
(0.573258 0.0568189 0.156552 0.213371) 234 463 2
(0.446881 0.153575 0.122984 0.276559) 235 465 2
(0.0237338 0.488133 0.384892 0.103241) 236 467 1
(0.246694 0.376653 0.181766 0.194887) 237 469 1
(0.581597 0.209202 0.0320599 0.177142) 238 471 1
(0.531429 0.234285 0.103509 0.130776) 239 473 1
(0.58009 0.124209 0.0857461 0.209955) 240 475 2
(0.508898 0.245551 0.150588 0.0949633) 241 480 2
(0.537359 0.231321 0.138519 0.0928018) 242 482 2
(0.626474 0.0248705 0.161892 0.186763) 243 481 2
(0.454307 0.204983 0.0678635 0.272847) 244 483 2
(0.390559 0.30472 0.138031 0.16669) 245 485 1
(0.312948 0.343526 0.202876 0.14065) 246 487 1
(0.0311627 0.216292 0.484419 0.268127) 246 489 2
(0.296691 0.122845 0.351655 0.22881) 247 491 2
(0.29103 0.296484 0.354485 0.058001) 248 493 2
(0.306937 0.346531 0.0581801 0.288351) 249 495 1
(0.526783 0.236609 0.0351758 0.201433) 250 497 1
(0.622364 0.114447 0.188818 0.0743705) 251 499 2
(0.528399 0.147311 0.235801 0.0884898) 252 501 2
(0.0937286 0.243614 0.453136 0.209522) 253 503 2
(0.0125304 0.279812 0.213923 0.493735) 255 505 2
(0.0149207 0.302555 0.49254 0.189984) 255 507 2
(0.365493 0.317253 0.0702442 0.247009) 256 509 1
(0.421476 0.289262 0.201492 0.0877703) 257 511 1
(0.685832 0.0483131 0.157084 0.108771) 258 365 1
(0.49507 0.228724 0.252465 0.0237409) 259 367 1
(0.500596 0.214658 0.249702 0.0350442) 260 369 1
(0.585152 0.0415611 0.207424 0.165863) 261 371 1
(0.3185 0.34075 0.0492115 0.291538) 262 521 1
(0.0183389 0.490831 0.47152 0.0193104) 264 523 1
(0.051419 0.474291 0.350922 0.123369) 265 525 1
(0.0371251 0.481437 0.211044 0.270394) 266 527 1
(0.201218 0.399391 0.28398 0.115411) 266 529 1
(0.467465 0.266268 0.224976 0.0412921) 267 531 1
(0.584623 0.207689 0.117455 0.090234) 268 533 1
(0.722017 0.138992 0.0259218 0.11307) 269 535 1
(0.455286 0.272357 0.0211162 0.251241) 270 537 1
(0.0973396 0.45133 0.410292 0.0410382) 272 539 1
(0.212819 0.247858 0.393591 0.145733) 272 541 2
(0.295244 0.0874811 0.264897 0.352378) 273 544 1
(0.129612 0.0675841 0.36761 0.435194) 274 546 1
(0.0819496 0.0231316 0.435894 0.459025) 275 548 1
(0.0945863 0.143582 0.309125 0.452707) 277 549 2
(0.0767261 0.407646 0.0539909 0.461637) 278 551 2
(0.115767 0.442117 0.216973 0.225143) 279 553 1
(0.0240357 0.487982 0.198847 0.289135) 280 555 1
(0.0487087 0.475646 0.327358 0.148288) 280 557 1
(0.0877759 0.456112 0.158995 0.297117) 281 559 1
(0.151015 0.229331 0.424493 0.195162) 282 561 2
(0.132952 0.10476 0.328764 0.433524) 284 563 2
(0.0410088 0.27838 0.201115 0.479496) 285 565 2
(0.224742 0.387629 0.0859166 0.301712) 285 567 1
(0.0978745 0.451063 0.30437 0.146693) 287 569 1
(0.1836 0.4082 0.371939 0.0362604) 288 571 1
(0.147752 0.384315 0.0418094 0.426124) 289 573 2
(0.154185 0.280581 0.142326 0.422907) 290 575 2
(0.0666438 0.343738 0.12294 0.466678) 291 577 2
(0.245183 0.377408 0.286701 0.0907076) 292 579 1
(0.0212352 0.489382 0.0982608 0.391122) 292 581 1
(0.0204695 0.489765 0.105709 0.384056) 293 583 1
(0.215107 0.307234 0.0852123 0.392446) 295 585 2
(2.66173e-07 0.5 0.5 9.56703e-10) 300 7454 2
(2.66175e-07 0.5 0.5 7.25832e-10) 300 7454 2
(0.0129151 0.493542 0.170979 0.322563) 226 450 2
(0.111097 0.444452 0.192591 0.251861) 300 7454 2
(0.00793384 0.496033 0.109731 0.386302) 301 450 2
(0.0323744 0.483813 0.0061215 0.477691) 301 450 2
(0.324136 0.337932 0.193397 0.144535) 302 452 2
(0.434553 0.282723 0.0792663 0.203457) 303 600 1
(0.486261 0.256869 0.107697 0.149172) 304 602 1
(0.433693 0.283153 0.121763 0.16139) 305 604 1
(0.288048 0.355976 0.10902 0.246956) 306 606 1
(0.278766 0.360617 0.131167 0.22945) 307 608 1
(0.00521052 0.497395 0.278062 0.219333) 308 610 1
(0.24352 0.37824 0.35653 0.02171) 309 612 1
(0.269953 0.279843 0.0851806 0.365024) 310 614 2
(0.10864 0.33952 0.10616 0.44568) 311 616 2
(0.0801241 0.459938 0.437058 0.0228803) 312 618 1
(0.395724 0.302138 0.163688 0.13845) 313 620 1
(0.385453 0.307273 0.135164 0.17211) 314 622 1
(0.330399 0.3348 0.182199 0.152602) 315 624 1
(0.324901 0.2348 0.102749 0.337549) 316 626 2
(0.46541 0.267295 0.0814717 0.185823) 317 631 2
(0.50708 0.24646 0.0932437 0.153216) 318 633 2
(0.504793 0.232115 0.0154883 0.247604) 319 632 2
(0.408659 0.29567 0.213405 0.0822659) 320 634 1
(0.0647795 0.37259 0.0950201 0.46761) 321 636 2
(0.146858 0.136558 0.290013 0.426571) 322 638 2
(0.201368 0.197725 0.399316 0.201591) 322 640 2
(0.405781 0.259677 0.29711 0.037433) 323 642 2
(0.0605881 0.469706 0.020632 0.449074) 324 644 1
(0.265514 0.338748 0.367243 0.0284946) 325 646 2
(0.573614 0.197487 0.213193 0.0157064) 326 648 2
(0.371812 0.314094 0.0142648 0.299829) 327 650 1
(0.078992 0.380716 0.460504 0.0797882) 328 652 2
(0.00841893 0.341672 0.495791 0.154118) 329 654 2
(0.156306 0.190261 0.231586 0.421847) 331 656 2
(0.617772 0.016051 0.175063 0.191114) 332 658 2
(0.289803 0.247025 0.108073 0.355099) 333 660 2
(0.29753 0.351235 0.0224801 0.328755) 333 662 1
(0.519759 0.240121 0.196728 0.0433932) 334 664 1
(0.374075 0.0619342 0.312963 0.251028) 335 518 1
(0.342054 0.201853 0.328973 0.12712) 336 520 1
(0.339665 0.330168 0.219156 0.111011) 337 670 1
(0.43819 0.280905 0.0952121 0.185693) 338 672 1
(0.327953 0.336023 0.163512 0.172512) 339 674 1
(0.276222 0.361889 0.184683 0.177206) 340 676 1
(0.124175 0.437913 0.183909 0.254004) 341 678 1
(0.0880068 0.455997 0.180177 0.27582) 342 680 1
(0.371499 0.314251 0.114048 0.200202) 343 682 1
(0.0341503 0.482925 0.125884 0.35704) 344 684 1
(0.0276589 0.486171 0.11088 0.375291) 345 686 1
(0.0891467 0.41098 0.455427 0.0444462) 346 688 2
(0.323565 0.102837 0.338218 0.235381) 347 690 2
(0.351191 0.106089 0.218315 0.324405) 348 693 1
(0.248885 0.0744551 0.375557 0.301102) 349 694 2
(0.0293212 0.201026 0.284314 0.485339) 351 696 2
(0.356074 0.137911 0.184052 0.321963) 352 698 2
(0.466202 0.266899 0.187564 0.0793344) 353 700 1
(0.382378 0.308811 0.113807 0.195004) 354 702 1
(0.327374 0.336313 0.201271 0.135042) 355 704 1
(0.132702 0.433649 0.372895 0.0607538) 356 706 1
(0.128325 0.435838 0.0381407 0.397697) 356 708 1
(0.242909 0.353776 0.378546 0.0247692) 357 710 2
(0.236024 0.174589 0.207399 0.381988) 359 712 2
(0.113823 0.237643 0.205445 0.443089) 360 714 2
(0.0610399 0.367744 0.46948 0.101736) 360 716 2
(0.379081 0.273659 0.310459 0.0368) 361 718 2
(0.62668 0.18666 0.00661783 0.180042) 362 720 1
(0.440714 0.279643 0.0240305 0.255612) 363 722 1
(0.13566 0.347799 0.43217 0.084371) 364 724 2
(0.106194 0.284493 0.446903 0.16241) 365 726 2
(0.036212 0.481894 0.0132259 0.468668) 366 728 1
(0.134202 0.432899 0.0825638 0.350335) 367 730 1
(0.417606 0.291197 0.13968 0.151517) 368 732 1
(0.577793 0.211104 0.0375321 0.173572) 369 734 1
(2.66173e-07 0.5 0.5 9.76934e-10) 375 7455 2
(2.66175e-07 0.5 0.5 7.35013e-10) 375 7455 2
(0.0282992 0.48585 0.226712 0.259138) 301 599 2
(0.172463 0.413768 0.150522 0.263246) 375 7455 2
(0.0385743 0.480713 0.0449882 0.435725) 376 599 2
(0.040623 0.479688 0.0522884 0.4274) 376 599 2
(0.45342 0.27329 0.0271125 0.246177) 377 601 2
(0.615915 0.192042 0.0923114 0.099731) 378 603 2
(0.561997 0.219002 0.143821 0.0751804) 379 751 1
(0.276976 0.361512 0.316832 0.04468) 380 753 1
(0.216885 0.387641 0.00391673 0.391557) 381 755 2
(0.00453816 0.473851 0.0238797 0.497731) 382 757 2
(0.398023 0.300989 0.153868 0.147121) 382 759 1
(0.711754 0.0198577 0.144123 0.124265) 383 613 1
(0.430435 0.284782 0.0905286 0.194254) 384 763 1
(0.0815284 0.459236 0.396062 0.0631736) 386 765 1
(0.146762 0.426619 0.258842 0.167777) 387 767 1
(0.416311 0.291844 0.135662 0.156182) 388 769 1
(0.121106 0.413879 0.025568 0.439447) 389 771 2
(0.0183243 0.490838 0.0828802 0.407958) 389 773 1
(0.0911246 0.454438 0.33613 0.118308) 391 775 1
(0.376684 0.2557 0.0559575 0.311658) 392 777 2
(0.664926 0.167537 0.0408844 0.126653) 393 782 2
(0.567629 0.216185 0.0596774 0.156508) 394 784 2
(0.399484 0.0479405 0.252317 0.300258) 395 783 2
(0.00293936 0.176512 0.322018 0.49853) 396 785 2
(0.271512 0.0196871 0.364244 0.344557) 396 787 2
(0.197266 0.100365 0.401367 0.301002) 397 789 2
(0.193807 0.352181 0.403097 0.0509154) 398 791 2
(0.146931 0.365249 0.0612854 0.426535) 400 793 2
(0.0298449 0.325354 0.159724 0.485078) 401 795 2
(0.292933 0.29779 0.353534 0.0557433) 401 797 2
(0.263764 0.368118 0.121559 0.246559) 402 799 1
(0.0419254 0.479037 0.0989458 0.380092) 403 801 1
(0.0264001 0.469778 0.4868 0.0170224) 404 803 2
(0.204351 0.332516 0.0653086 0.397824) 406 805 2
(0.659529 0.0478067 0.122429 0.170236) 407 807 2
(0.67053 0.164735 0.0830292 0.0817058) 408 812 2
(0.572947 0.134502 0.079024 0.213526) 409 811 2
(0.267052 0.366474 0.349361 0.0171126) 410 813 1
(0.06376 0.46812 0.175415 0.292705) 410 815 1
(0.479677 0.260162 0.183787 0.0763746) 411 817 1
(0.589521 0.0225725 0.20524 0.182667) 412 671 1
(0.427115 0.286443 0.12724 0.159203) 413 821 1
(0.364398 0.317801 0.287074 0.0307263) 414 823 1
(0.269091 0.365455 0.330735 0.0347196) 415 825 1
(0.235505 0.382247 0.235084 0.147164) 416 827 1
(0.145388 0.427306 0.208364 0.218942) 417 829 1
(0.294259 0.352871 0.142906 0.209965) 418 831 1
(0.468038 0.265981 0.156556 0.109425) 419 833 1
(0.533825 0.233088 0.122084 0.111004) 420 835 1
(0.566291 0.114191 0.216855 0.102664) 421 837 2
(0.390378 0.0270065 0.277804 0.304811) 422 840 1
(0.0287054 0.231699 0.485647 0.253949) 423 841 2
(0.308027 0.154459 0.191527 0.345986) 425 843 2
(0.271304 0.191283 0.173065 0.364348) 426 845 2
(0.383205 0.308398 0.287685 0.0207131) 427 847 1
(0.553885 0.223058 0.0258029 0.197255) 428 849 1
(0.333768 0.333116 0.137444 0.195673) 429 851 1
(0.136327 0.431837 0.393933 0.0379037) 430 853 1
(0.181481 0.40109 0.40926 0.00816976) 430 855 2
(0.452903 0.243256 0.273549 0.0302925) 431 857 2
(0.530602 0.181595 0.234699 0.0531045) 432 859 2
(0.326835 0.143651 0.336582 0.192932) 433 861 2
(0.0144945 0.247144 0.492753 0.245609) 434 863 2
(0.00160248 0.242817 0.499199 0.256381) 435 865 2
(0.23382 0.18106 0.38309 0.20203) 436 867 2
(0.580243 0.200281 0.209878 0.00959732) 437 869 2
(0.519455 0.240273 0.168942 0.071331) 438 871 1
(0.324638 0.337681 0.108095 0.229586) 439 873 1
(0.422524 0.134297 0.288738 0.154442) 440 875 2
(0.454074 0.134195 0.272963 0.138768) 441 877 2
(0.430816 0.0989944 0.284592 0.185597) 442 879 2
(0.531584 0.0681287 0.234208 0.166079) 443 881 2
(0.49757 0.1859 0.251215 0.0653149) 444 883 2
(2.66173e-07 0.5 0.5 1.02511e-09) 450 7456 2
(2.66175e-07 0.5 0.5 7.83912e-10) 450 7456 2
(0.145973 0.427014 0.103182 0.323831) 376 748 2
(0.177995 0.411003 0.124302 0.2867) 450 7456 2
(0.0898279 0.455086 0.376753 0.0783334) 376 748 2
(0.0225187 0.488741 0.400233 0.0885074) 376 748 2
(0.152308 0.423846 0.0191504 0.404695) 452 750 2
(0.639154 0.180423 0.129701 0.0507219) 453 752 2
(0.255416 0.372292 0.363013 0.00927859) 454 900 1
(0.138125 0.41827 0.0126675 0.430938) 455 902 2
(0.173097 0.409473 0.00397798 0.413451) 456 904 2
(0.338956 0.279823 0.0506993 0.330522) 457 906 2
(0.258513 0.343186 0.0275573 0.370743) 458 908 2
(0.363882 0.318059 0.153871 0.164187) 459 910 1
(0.37703 0.311485 0.139174 0.172311) 460 912 1
(0.603542 0.198229 0.192803 0.00542544) 461 768 2
(0.490513 0.254744 0.0525229 0.202221) 462 916 1
(0.167456 0.416272 0.229369 0.186903) 463 918 1
(0.152933 0.375384 0.423534 0.0481494) 463 920 2
(0.34642 0.31345 0.32679 0.0133402) 464 922 2
(0.22853 0.385735 0.209333 0.176402) 465 924 1
(0.174066 0.412967 0.240042 0.172925) 467 926 1
(0.0838387 0.399703 0.458081 0.0583776) 467 928 2
(0.30751 0.0303743 0.315871 0.346245) 469 930 2
(0.198661 0.400669 0.00568297 0.394986) 470 935 2
(0.119022 0.00749668 0.432992 0.440489) 470 935 1
(0.199985 0.0549969 0.400007 0.345011) 471 936 2
(0.154994 0.257884 0.164619 0.422503) 473 938 2
(0.268976 0.365512 0.364761 0.000751256) 474 940 1
(0.326078 0.336961 0.26888 0.0680814) 475 942 1
(0.568264 0.0724279 0.14344 0.215868) 476 944 2
(0.54813 0.10968 0.116255 0.225935) 477 946 2
(0.239755 0.380123 0.252167 0.127956) 478 948 1
(0.0640348 0.467983 0.137855 0.330128) 478 950 1
(0.0944992 0.45275 0.0823919 0.370359) 479 952 1
(0.15882 0.42059 0.269937 0.150653) 481 954 1
(0.50587 0.247065 0.128064 0.119001) 482 956 1
(0.0220689 0.281643 0.207323 0.488966) 483 958 2
(0.174086 0.109705 0.412957 0.303252) 483 960 2
(0.0609011 0.143251 0.326298 0.469549) 485 962 2
(0.0220318 0.313982 0.488984 0.175002) 485 964 2
(0.227953 0.386023 0.121154 0.264869) 486 966 1
(0.164415 0.417793 0.198312 0.219481) 487 968 1
(0.0152168 0.492392 0.19417 0.298222) 489 970 1
(0.216392 0.391804 0.348809 0.0429954) 490 826 2
(0.145897 0.427051 0.0526398 0.374412) 491 974 1
(0.13326 0.43337 0.191098 0.242272) 491 976 1
(0.124263 0.437869 0.119795 0.318074) 492 978 1
(0.364336 0.296195 0.317832 0.0216374) 493 980 2
(0.334301 0.300934 0.332849 0.0319152) 494 982 2
(0.593442 0.203279 0.17632 0.0269594) 495 984 1
(0.662215 0.00807227 0.168892 0.16082) 496 838 1
(0.545889 0.227056 0.0524204 0.174635) 497 988 1
(0.0953485 0.452326 0.0229963 0.429329) 498 990 1
(0.297277 0.296937 0.0544251 0.351362) 500 992 2
(0.61658 0.19171 0.00500367 0.186706) 501 997 2
(0.66549 0.167255 0.0543317 0.112923) 502 999 2
(0.432086 0.04182 0.242137 0.283957) 503 998 2
(0.0778172 0.222702 0.461091 0.238389) 503 1000 2
(0.303016 0.235087 0.348492 0.113405) 504 1002 2
(0.420398 0.198109 0.289801 0.0916921) 505 1004 2
(0.47275 0.208199 0.263625 0.0554263) 506 1006 2
(0.625244 0.187378 0.00177795 0.1856) 507 1008 1
(0.461695 0.244209 0.269153 0.0249433) 508 1010 2
(0.175927 0.218636 0.412037 0.193401) 509 1012 2
(0.122111 0.203863 0.235081 0.438944) 511 1014 2
(0.273085 0.176218 0.187239 0.363458) 512 1016 2
(0.0161741 0.444377 0.491913 0.047536) 512 1018 2
(0.331402 0.334299 0.102387 0.231912) 513 1020 1
(0.526246 0.236877 0.0887707 0.148106) 514 1022 1
(0.376339 0.173597 0.311831 0.138233) 515 1024 2
(0.347606 0.220674 0.326197 0.105523) 516 1026 2
(0.394825 0.201214 0.302587 0.101373) 517 1028 2
(0.302665 0.277279 0.348667 0.0713884) 518 1030 2
(0.295225 0.352387 0.0786083 0.273779) 519 1032 1
(2.66173e-07 0.5 0.5 1.10249e-09) 525 7457 2
(2.66175e-07 0.5 0.5 8.57456e-10) 525 7457 2
(0.154863 0.422569 0.103877 0.318692) 451 897 2
(0.349155 0.325423 0.318963 0.00646016) 525 895 2
(0.0835619 0.458219 0.404135 0.0540842) 451 897 2
(0.0356188 0.482191 0.396915 0.0852757) 451 897 2
(0.0702715 0.464864 0.109251 0.355613) 527 899 2
(0.485923 0.257038 0.182087 0.0749512) 528 901 2
(0.248989 0.375505 0.332425 0.0430798) 529 1049 1
(0.110387 0.444807 0.425572 0.0192346) 530 1051 1
(0.0781844 0.460908 0.335422 0.125486) 531 1053 1
(0.148994 0.425503 0.356151 0.0693519) 532 1055 1
(0.0644157 0.464458 0.00333419 0.467792) 533 1057 2
(0.456868 0.271566 0.0147042 0.256862) 534 1059 1
(0.225859 0.38707 0.124899 0.262172) 535 1061 1
(0.107548 0.446226 0.336861 0.109365) 536 1063 1
(0.0553993 0.18705 0.4723 0.28525) 536 1065 2
(0.395392 0.0361852 0.302304 0.266119) 537 1067 2
(0.578544 0.0658535 0.210728 0.144874) 538 1069 2
(0.386995 0.306503 0.140882 0.165621) 539 1071 1
(0.527836 0.236082 0.166898 0.0691838) 540 1073 1
(0.76835 0.0550251 0.115825 0.0607997) 541 927 1
(0.880506 0.0597471 0.0261508 0.0335963) 542 929 2
(0.798335 0.100833 0.0609539 0.0398787) 543 1080 2
(0.519227 0.240387 0.179023 0.0613634) 544 1082 2
(0.337436 0.15866 0.172622 0.331282) 545 1084 1
(0.111683 0.332378 0.444159 0.11178) 546 1085 2
(0.241967 0.379016 0.262533 0.116484) 548 1087 1
(0.225715 0.387142 0.313469 0.0736736) 549 1089 1
(0.0277188 0.419782 0.0663587 0.486141) 550 1091 2
(0.0704834 0.392955 0.0718034 0.464758) 551 1093 2
(0.0135768 0.322902 0.493212 0.17031) 551 1095 2
(0.354725 0.154811 0.322637 0.167826) 552 1097 2
(0.637891 0.0594523 0.181054 0.121602) 553 1099 2
(0.419272 0.290364 0.0519771 0.238387) 554 1101 1
(0.249947 0.375026 0.146296 0.228731) 555 1103 1
(0.654622 0.149757 0.172689 0.0229316) 556 1105 2
(0.683371 0.0709071 0.0874076 0.158315) 557 1108 1
(0.531963 0.0711174 0.234018 0.162901) 558 1109 2
(0.00915249 0.342901 0.152523 0.495424) 560 1111 2
(0.594838 0.108234 0.094347 0.202581) 561 1113 2
(0.441903 0.279049 0.115959 0.16309) 562 1115 1
(0.296651 0.351674 0.027473 0.324201) 563 1117 1
(0.169228 0.415386 0.298862 0.116523) 564 973 2
(0.35297 0.323515 0.307751 0.015764) 565 975 2
(0.0774132 0.461293 0.422892 0.0384011) 566 1123 1
(0.0998647 0.450068 0.145705 0.304363) 566 1125 1
(0.201232 0.399384 0.141312 0.258072) 567 1127 1
(0.440321 0.27984 0.0305466 0.249293) 568 1129 1
(0.0911813 0.329318 0.454409 0.125092) 569 1131 2
(0.179494 0.285292 0.410253 0.12496) 570 1133 2
(0.532133 0.160785 0.233933 0.0731478) 571 1135 2
(0.845819 0.0498406 0.0770906 0.0272499) 572 989 1
(0.818785 0.0710627 0.0906076 0.0195449) 573 991 1
(0.769413 0.0414806 0.115294 0.0738129) 574 993 1
(0.747748 0.126126 0.0762566 0.0498694) 575 1143 1
(0.629951 0.0258714 0.159153 0.185025) 576 1146 1
(0.515319 0.0300674 0.212273 0.242341) 577 1148 1
(0.522737 0.0240757 0.214556 0.238632) 578 1150 1
(0.560331 0.0771885 0.142646 0.219835) 579 1152 1
(0.498443 0.111381 0.139398 0.250779) 580 1154 1
(0.540545 0.0794941 0.229728 0.150233) 581 1155 2
(0.718107 0.140947 0.117241 0.023706) 582 1157 1
(0.661467 0.0204025 0.169266 0.148864) 583 1011 1
(0.427667 0.187165 0.286166 0.0990018) 584 1161 2
(0.100419 0.241924 0.44979 0.207867) 585 1163 2
(0.0199693 0.331718 0.490015 0.158298) 586 1165 2
(0.175866 0.187643 0.224424 0.412067) 588 1167 2
(0.338787 0.117485 0.213122 0.330606) 589 1169 2
(0.0213374 0.362262 0.127069 0.489331) 590 1171 2
(0.391746 0.192685 0.304127 0.111442) 590 1173 2
(0.169083 0.408112 0.415459 0.00734662) 591 1175 2
(0.140084 0.366424 0.429958 0.0635336) 592 1177 2
(0.30083 0.349585 0.0214241 0.328161) 593 1179 1
(0.0677913 0.466104 0.227569 0.238535) 594 1181 1
(2.66089e-07 0.5 0.5 1.09802e-09) 600 7458 2
(2.66091e-07 0.5 0.5 8.79462e-10) 600 7458 2
(0.0449521 0.0995632 0.377961 0.477524) 526 1043 2
(0.191675 0.404162 0.265053 0.139109) 600 1044 2
(0.0901341 0.454933 0.266569 0.188364) 526 1046 2
(0.0159036 0.492048 0.126913 0.365135) 601 1046 2