/*--------------------------------*- C++ -*----------------------------------*\
  =========                 |
  \\      /  F ield         | OpenFOAM: The Open Source CFD Toolbox
   \\    /   O peration     | Website:  https://openfoam.org
    \\  /    A nd           | Version:  12
     \\/     M anipulation  |
\*---------------------------------------------------------------------------*/
FoamFile
{
    format      ascii;
    class       vectorField;
    location    "0.1/lagrangian/cloud";
    object      U;
}
// * * * * * * * * * * * * * * * * * * * * * * * * * * * * * * * * * * * * * //


3978
(
(-1.4159e-11 -5.50341e-05 0)
(-1.41093e-11 -5.50346e-05 0)
(-0.00811031 0.000929642 0)
(-0.0079319 0.000681206 0)
(-0.00871624 0.00236512 0)
(0.01401 -0.0119456 0)
(-0.00173785 -0.00896517 0)
(-0.00192587 -0.0252661 0)
(-0.00109607 -0.0268755 0)
(-0.00268897 -0.0267098 0)
(-0.000625291 -0.026587 0)
(-0.001479 -0.0261895 0)
(-0.00248338 -0.0214726 0)
(-0.000517643 -0.014571 0)
(-0.00102485 -0.0127119 0)
(-9.71047e-05 -0.00685144 0)
(4.89551e-05 -0.00847599 0)
(-0.000479789 -0.0170334 0)
(-0.00804148 -0.0198224 0)
(-0.00747808 -0.0159422 0)
(0.00215309 -0.010163 0)
(0.00206061 -0.00954746 0)
(0.00387682 -0.00900438 0)
(0.00405789 -0.0158402 0)
(-0.000158399 -0.0199058 0)
(-0.000628982 -0.026068 0)
(-0.00354965 -0.020862 0)
(-0.00239403 -0.0182624 0)
(0.000775524 -0.00746565 0)
(0.00124731 -0.00936826 0)
(-0.00012863 -0.0170857 0)
(0.000240421 -0.00515803 0)
(0.000149843 -0.00546893 0)
(-0.000967319 -0.017395 0)
(-0.000768803 -0.00819465 0)
(0.000251672 -0.00993361 0)
(0.00242899 -0.0220552 0)
(0.000962667 -0.0226442 0)
(-0.000153955 -0.013382 0)
(-0.000115693 -0.014283 0)
(-0.00100451 -0.00779619 0)
(-0.000739468 -0.0130795 0)
(-0.0003833 -0.00655874 0)
(-0.00247622 -0.00829365 0)
(-0.00342071 -0.00773023 0)
(-0.000151716 -0.00755086 0)
(0.00214431 -0.0048387 0)
(0.00340945 -0.00427157 0)
(0.00247622 -0.00750116 0)
(-0.000480574 -0.0127186 0)
(-0.00143935 -0.0099372 0)
(0.0035941 -0.00806654 0)
(0.00463163 -0.00771187 0)
(0.00362952 -0.0143797 0)
(-2.00949e-05 -0.0192558 0)
(0.000284089 -0.0261042 0)
(-0.0062016 -0.0195199 0)
(-0.00344644 -0.024025 0)
(-0.00660921 -0.0194557 0)
(-0.00286149 -0.0122375 0)
(-0.00143441 -0.00696591 0)
(0.00212874 -0.00541123 0)
(0.00588962 -0.00631885 0)
(0.00825475 -0.0107415 0)
(0.00639647 -0.014078 0)
(0.00292332 -0.0177654 0)
(-0.000978023 -0.019435 0)
(-0.00244921 -0.0249743 0)
(-0.00547194 -0.0260866 0)
(-0.0071024 -0.0221258 0)
(-0.00901373 -0.0148482 0)
(-0.000656771 -0.0167607 0)
(8.03314e-05 -0.0121524 0)
(0.00316296 -0.0122125 0)
(-6.20105e-05 -0.0112253 0)
(-2.3534e-11 -5.5022e-05 0)
(-2.34252e-11 -5.50224e-05 0)
(-0.0120383 -0.0158522 0)
(-0.000889065 -0.0325219 0)
(-0.0109031 -0.00469342 0)
(-0.00836767 -0.00165669 0)
(-0.00178709 -0.0179661 0)
(-0.00220451 -0.00941672 0)
(-0.00141218 -0.0373504 0)
(-0.000788428 -0.0272501 0)
(-0.00259877 -0.0334096 0)
(-0.00228182 -0.0285359 0)
(-0.00470073 -0.0296517 0)
(-0.00342469 -0.0334002 0)
(-0.00248958 -0.0291752 0)
(0.00247241 -0.0337248 0)
(0.00242943 -0.0383732 0)
(0.00586324 -0.0306217 0)
(0.00120128 -0.0332355 0)
(-0.0025134 -0.0325346 0)
(-0.00369344 -0.0375989 0)
(-0.00114343 -0.0351238 0)
(0.00188838 -0.0334454 0)
(0.0018848 -0.0333764 0)
(0.00299791 -0.0354689 0)
(0.000716672 -0.0317031 0)
(-0.00266802 -0.0299596 0)
(-0.00533977 -0.0297889 0)
(-0.00472684 -0.030597 0)
(-0.00291969 -0.0254386 0)
(-0.00246516 -0.0264978 0)
(-0.000459702 -0.031921 0)
(0.0046419 -0.034441 0)
(0.00693366 -0.0384313 0)
(0.00607395 -0.0425948 0)
(0.00481017 -0.0442724 0)
(0.000974255 -0.0376642 0)
(-0.00149978 -0.0311754 0)
(-0.00502548 -0.0324049 0)
(-0.00414959 -0.0326151 0)
(-0.000214488 -0.0343463 0)
(0.000709164 -0.0308771 0)
(0.000827702 -0.0304445 0)
(0.0013724 -0.0349511 0)
(0.00260498 -0.0343703 0)
(-0.00463954 -0.0309382 0)
(-0.00544342 -0.0285036 0)
(0.00105548 -0.0244261 0)
(0.00291778 -0.0279916 0)
(-0.000709512 -0.0187537 0)
(-0.0016518 -0.0221433 0)
(0.00198103 -0.0266298 0)
(0.00572217 -0.0252383 0)
(0.00644213 -0.0234618 0)
(0.00567294 -0.025973 0)
(0.0029317 -0.0293437 0)
(0.00404453 -0.0396281 0)
(-0.00683551 -0.0393726 0)
(-0.005874 -0.0381192 0)
(-0.00516451 -0.0384336 0)
(-0.00692512 -0.0337735 0)
(-0.00366209 -0.0317712 0)
(0.00349779 -0.0362804 0)
(0.00457839 -0.0358341 0)
(0.00443005 -0.0350877 0)
(0.00166868 -0.0341183 0)
(0.00466893 -0.0337094 0)
(0.00779916 -0.0343967 0)
(0.00694001 -0.0413522 0)
(-0.00363734 -0.0408362 0)
(-0.00123096 -0.0434207 0)
(-0.00265125 -0.0477452 0)
(-0.00112581 -0.0412919 0)
(-0.0017152 -0.0472126 0)
(0.00443078 -0.0409345 0)
(-2.2497e-11 -5.5022e-05 0)
(-2.2393e-11 -5.50224e-05 0)
(-0.0136968 -0.0327695 0)
(-0.000147821 -0.014515 0)
(-0.0143705 -0.0298952 0)
(-0.0117847 -0.0295689 0)
(-0.00864641 -0.0504821 0)
(-0.00557214 -0.0201203 0)
(0.00174126 -0.0464705 0)
(-0.00381491 -0.0365785 0)
(-0.00312531 -0.0454422 0)
(-0.00415127 -0.0424566 0)
(-0.00527452 -0.0431686 0)
(-0.00561052 -0.0436081 0)
(-0.00455969 -0.0449669 0)
(-0.000595053 -0.0480429 0)
(-0.000538395 -0.0499763 0)
(0.00162007 -0.0452094 0)
(0.00281249 -0.0379999 0)
(0.000428109 -0.0326152 0)
(0.000974126 -0.0331151 0)
(-0.00328452 -0.041219 0)
(-0.00201733 -0.043283 0)
(-0.00118073 -0.045244 0)
(0.000695944 -0.0448846 0)
(-0.00334389 -0.0369896 0)
(-0.00287886 -0.0363548 0)
(4.52168e-05 -0.0419638 0)
(-0.00278246 -0.0415606 0)
(-0.00322406 -0.0492001 0)
(-0.0017526 -0.0492871 0)
(0.000542553 -0.0506469 0)
(0.00227122 -0.054943 0)
(0.00712529 -0.0541889 0)
(0.00701244 -0.0513111 0)
(0.00369776 -0.0512634 0)
(-0.000751374 -0.0511031 0)
(-0.00212769 -0.0505634 0)
(-0.00433773 -0.049274 0)
(-0.00551725 -0.0488546 0)
(-0.00515473 -0.0583584 0)
(-0.00228984 -0.0515016 0)
(-0.00155402 -0.0500826 0)
(0.00144231 -0.0486633 0)
(0.0013936 -0.0437017 0)
(-0.00404752 -0.0396957 0)
(-0.00876872 -0.0383221 0)
(-0.00643264 -0.0371882 0)
(-0.00263624 -0.0327048 0)
(-0.00156902 -0.035596 0)
(0.000211937 -0.0353155 0)
(0.00223983 -0.0373728 0)
(0.00619971 -0.036313 0)
(0.00593539 -0.0394947 0)
(0.00830837 -0.039287 0)
(0.0110498 -0.0397068 0)
(0.0113133 -0.0430245 0)
(0.00375867 -0.0464121 0)
(-0.00199568 -0.0476476 0)
(-0.00463607 -0.0470761 0)
(-0.00819108 -0.0458347 0)
(-0.00864967 -0.047141 0)
(-0.000465159 -0.0500775 0)
(0.00481155 -0.0497206 0)
(0.0051707 -0.0482567 0)
(0.000384129 -0.0487437 0)
(-0.000836788 -0.0511254 0)
(0.00321106 -0.0472982 0)
(0.00493386 -0.046746 0)
(0.00378776 -0.0468658 0)
(-0.00269122 -0.0455682 0)
(-0.00239015 -0.0470381 0)
(-0.00327847 -0.0472181 0)
(-0.00158494 -0.0486155 0)
(0.00267852 -0.0492548 0)
(-2.46039e-11 -5.5022e-05 0)
(-2.44901e-11 -5.50224e-05 0)
(-0.0138428 -0.0382141 0)
(-0.00365875 -0.00675906 0)
(-0.0163283 -0.0349324 0)
(-0.0135 -0.0313364 0)
(-0.0127928 -0.0529132 0)
(-0.00833321 -0.0338132 0)
(-0.00351616 -0.0556092 0)
(-0.000795835 -0.0434192 0)
(-0.00261939 -0.0497338 0)
(-0.00248105 -0.0451003 0)
(-0.00298212 -0.0463073 0)
(0.000760984 -0.0448391 0)
(0.00249633 -0.0440652 0)
(0.000551333 -0.0474424 0)
(-0.00382786 -0.0487936 0)
(-0.00456678 -0.0460413 0)
(-0.00344924 -0.0447804 0)
(-0.00161858 -0.0448087 0)
(0.00535695 -0.0409312 0)
(0.00645725 -0.0368681 0)
(0.00568805 -0.0427568 0)
(0.00301442 -0.0445619 0)
(-0.00220816 -0.0490166 0)
(-0.00233157 -0.0470378 0)
(0.00261852 -0.045163 0)
(0.00435864 -0.0472515 0)
(0.00410652 -0.0507583 0)
(0.000111245 -0.0518508 0)
(-0.00138177 -0.0493762 0)
(2.78462e-05 -0.0497051 0)
(0.000569456 -0.0560546 0)
(0.00367432 -0.0549195 0)
(0.00383511 -0.0507731 0)
(0.00398168 -0.049504 0)
(0.0027893 -0.0482491 0)
(-0.00129479 -0.0503018 0)
(-0.00654815 -0.0521754 0)
(-0.00569944 -0.0588071 0)
(-0.00605131 -0.061225 0)
(-0.00576005 -0.0595385 0)
(-0.00489395 -0.0564624 0)
(-0.00146762 -0.0500339 0)
(-0.00120122 -0.0498806 0)
(-0.00524951 -0.0469941 0)
(-0.0066171 -0.0450795 0)
(-0.00652864 -0.0491747 0)
(-0.00487381 -0.0491279 0)
(-0.00313968 -0.0492963 0)
(-0.00211635 -0.0547834 0)
(-0.000901867 -0.0492154 0)
(0.000774772 -0.0464642 0)
(0.00431206 -0.0507553 0)
(0.00780485 -0.0543311 0)
(0.00869435 -0.0538139 0)
(0.0110561 -0.0491212 0)
(0.00668797 -0.048402 0)
(-0.00384544 -0.0485619 0)
(-0.00539747 -0.0475458 0)
(-0.00636777 -0.0476136 0)
(-0.00775736 -0.0490239 0)
(-0.0010293 -0.0510067 0)
(0.00704718 -0.0497675 0)
(0.0077544 -0.047657 0)
(0.00279541 -0.047707 0)
(-0.00342694 -0.0510718 0)
(-0.00286867 -0.0475515 0)
(0.00213546 -0.0487024 0)
(0.00169671 -0.0486286 0)
(0.00234193 -0.0461422 0)
(-3.2054e-06 -0.0473596 0)
(-0.00127343 -0.049111 0)
(-0.0026883 -0.0508683 0)
(-0.000152323 -0.0499298 0)
(-2.46452e-11 -5.5022e-05 0)
(-2.45313e-11 -5.50224e-05 0)
(-0.013191 -0.038319 0)
(-0.00332996 -0.0114063 0)
(-0.0103152 -0.0350101 0)
(-0.00903028 -0.0322076 0)
(-0.011581 -0.052676 0)
(-0.00772453 -0.0392643 0)
(-0.00599336 -0.0539815 0)
(-0.00637685 -0.0441971 0)
(-0.00700626 -0.0496365 0)
(-0.00651658 -0.046014 0)
(-0.0058629 -0.046286 0)
(-0.00387142 -0.0507741 0)
(-0.000740332 -0.0504911 0)
(0.00167974 -0.0478254 0)
(0.00086747 -0.0470252 0)
(-0.00337158 -0.0473307 0)
(-0.00526845 -0.044891 0)
(-0.00366182 -0.0458812 0)
(-0.00139972 -0.0498845 0)
(0.00520794 -0.0426593 0)
(0.00661378 -0.0394302 0)
(0.00359528 -0.0433205 0)
(-0.000266827 -0.0468257 0)
(0.00134786 -0.0439754 0)
(0.00706598 -0.0492191 0)
(0.0065566 -0.0494628 0)
(0.00476277 -0.0498958 0)
(5.88899e-05 -0.0529815 0)
(-0.000660453 -0.0499103 0)
(0.000387718 -0.0510072 0)
(-2.80519e-05 -0.0552498 0)
(0.000228385 -0.0539199 0)
(0.000424299 -0.0508653 0)
(0.00335652 -0.0480828 0)
(0.0090403 -0.0451516 0)
(0.0054538 -0.0449619 0)
(0.00141353 -0.0427214 0)
(-0.00241681 -0.0516187 0)
(-0.00499255 -0.0546576 0)
(-0.00618681 -0.0549647 0)
(-0.00598367 -0.0563355 0)
(-0.00437171 -0.0533014 0)
(-0.00318193 -0.0532278 0)
(-0.00492238 -0.0526422 0)
(-0.00549195 -0.0522486 0)
(-0.00651381 -0.0511223 0)
(-0.00344972 -0.0481763 0)
(-0.00278968 -0.0531084 0)
(-0.00348042 -0.0547008 0)
(-0.000882776 -0.0511496 0)
(0.00191806 -0.047386 0)
(0.0065505 -0.049874 0)
(0.00850738 -0.0547059 0)
(0.00948162 -0.0492082 0)
(0.00592121 -0.0485716 0)
(0.0027233 -0.0470522 0)
(-0.0031291 -0.0454177 0)
(-0.00478596 -0.0474267 0)
(-0.00396004 -0.0453206 0)
(-0.00165501 -0.0478779 0)
(0.000318206 -0.0507068 0)
(0.00382398 -0.0508244 0)
(0.0042603 -0.0489216 0)
(0.00315198 -0.0477779 0)
(0.00219086 -0.0481337 0)
(0.000257806 -0.0475517 0)
(-0.000847181 -0.0559073 0)
(-8.58274e-05 -0.0548967 0)
(0.00187524 -0.0501771 0)
(0.00171249 -0.0485806 0)
(-0.000460547 -0.050155 0)
(-0.00123879 -0.0482618 0)
(-0.00130256 -0.0492192 0)
(-2.60428e-11 -5.5022e-05 0)
(-2.59223e-11 -5.50224e-05 0)
(-0.0127139 -0.0359206 0)
(-0.000683942 -0.018877 0)
(-0.0105128 -0.0298154 0)
(-0.00809109 -0.0306086 0)
(-0.00804259 -0.0549504 0)
(-0.00848404 -0.0253777 0)
(-0.0055315 -0.0526816 0)
(-0.00253447 -0.0432839 0)
(-0.000275827 -0.0510093 0)
(0.000532195 -0.0470002 0)
(-0.00167913 -0.0459207 0)
(-0.00517509 -0.0511166 0)
(-0.00358851 -0.0545686 0)
(-0.00198812 -0.0493693 0)
(-0.00080029 -0.0481468 0)
(-0.00537217 -0.0464183 0)
(-0.00275742 -0.0478334 0)
(-0.00224896 -0.0460873 0)
(-0.00161181 -0.0499934 0)
(-0.00168283 -0.0488538 0)
(0.00426523 -0.0412862 0)
(0.00692193 -0.0399314 0)
(0.00735999 -0.0405705 0)
(0.00710364 -0.045292 0)
(0.00814148 -0.0486067 0)
(0.0074935 -0.0534997 0)
(0.0049557 -0.0514482 0)
(0.00273697 -0.0492576 0)
(0.00135257 -0.0488466 0)
(0.00260859 -0.0474603 0)
(0.000349499 -0.052233 0)
(-0.00315597 -0.052175 0)
(-0.00141488 -0.0516267 0)
(0.00161157 -0.0487009 0)
(0.00193326 -0.0447701 0)
(0.00349358 -0.0363539 0)
(0.00282182 -0.0423348 0)
(-0.00073004 -0.0450155 0)
(-0.00331161 -0.0466408 0)
(-0.00381378 -0.0481046 0)
(-0.00709821 -0.0540085 0)
(-0.00476104 -0.0552612 0)
(-0.00370164 -0.0534958 0)
(-0.00648934 -0.0520523 0)
(-0.00698459 -0.0508183 0)
(-0.00696013 -0.0516156 0)
(-0.00342562 -0.0479091 0)
(-0.00317411 -0.0496898 0)
(-0.00368297 -0.0500707 0)
(-0.00333009 -0.0529491 0)
(0.000775915 -0.0560274 0)
(0.00577279 -0.0531584 0)
(0.00692076 -0.049854 0)
(0.0069448 -0.0461081 0)
(0.00346246 -0.0487922 0)
(-0.00376011 -0.0458193 0)
(-0.00633034 -0.0450792 0)
(-0.00284299 -0.0458904 0)
(-0.000477546 -0.0489581 0)
(3.07012e-05 -0.0489737 0)
(0.000898138 -0.0525705 0)
(0.00202257 -0.0539583 0)
(0.00537317 -0.0525796 0)
(0.00603053 -0.0499818 0)
(0.00549132 -0.0498344 0)
(0.00308167 -0.0477321 0)
(0.000498375 -0.0522629 0)
(-0.00381396 -0.0540367 0)
(-0.000231567 -0.0528956 0)
(0.00320845 -0.0530388 0)
(0.00342932 -0.0519919 0)
(0.00249368 -0.0520289 0)
(0.00106218 -0.0519803 0)
(-2.94947e-11 -5.5022e-05 0)
(-2.93583e-11 -5.50224e-05 0)
(-0.0132447 -0.035606 0)
(-0.00195205 -0.0191477 0)
(-0.0148717 -0.0319533 0)
(-0.0123373 -0.0343256 0)
(-0.00837677 -0.0501229 0)
(-0.00698152 -0.0272875 0)
(-0.00211187 -0.052208 0)
(0.000328579 -0.0450612 0)
(0.000182393 -0.0495218 0)
(-0.000381518 -0.0450694 0)
(0.000181817 -0.047171 0)
(-0.00438561 -0.0431173 0)
(-0.00409972 -0.0465781 0)
(-0.00654295 -0.0416139 0)
(-0.0036767 -0.041482 0)
(-0.00355113 -0.0453884 0)
(-0.000977668 -0.0486295 0)
(-0.00039777 -0.0515901 0)
(-0.00100702 -0.0506169 0)
(-0.00383927 -0.0504999 0)
(-0.000991043 -0.053253 0)
(0.00719392 -0.0503526 0)
(0.00738256 -0.0498177 0)
(0.00874791 -0.0482612 0)
(0.00875642 -0.0505468 0)
(0.00644622 -0.0492572 0)
(0.00380004 -0.049547 0)
(0.000632322 -0.0452829 0)
(0.0026546 -0.045738 0)
(0.00375163 -0.0464289 0)
(0.000261174 -0.0429981 0)
(-0.00329714 -0.047879 0)
(-0.00287604 -0.0513357 0)
(-0.000370101 -0.0484503 0)
(-0.00414042 -0.0436161 0)
(4.58079e-05 -0.0470054 0)
(0.00299411 -0.0494892 0)
(0.00614305 -0.0495729 0)
(0.00844169 -0.0485139 0)
(-0.000374785 -0.0490274 0)
(-0.00418902 -0.0546224 0)
(-0.00524594 -0.0509094 0)
(-0.00641938 -0.0487438 0)
(-0.00827347 -0.044709 0)
(-0.00760047 -0.0475864 0)
(-0.0048575 -0.0503346 0)
(-0.000937143 -0.047075 0)
(0.000122852 -0.0500341 0)
(-0.00180419 -0.0515141 0)
(-0.00569809 -0.0548333 0)
(-0.00285345 -0.0550362 0)
(0.00147818 -0.0556356 0)
(-0.000745131 -0.0491226 0)
(0.00147645 -0.0432333 0)
(0.010179 -0.0391071 0)
(0.00774093 -0.0427951 0)
(0.00552201 -0.0418121 0)
(0.00354825 -0.0475347 0)
(0.00332425 -0.0500952 0)
(0.00163097 -0.0501103 0)
(0.000675942 -0.0513595 0)
(5.15344e-05 -0.0563022 0)
(0.000894683 -0.0558078 0)
(0.00601097 -0.0512219 0)
(0.00561382 -0.0519002 0)
(0.00228539 -0.049133 0)
(0.000615698 -0.0478866 0)
(-0.00226632 -0.0500462 0)
(0.00135425 -0.0551027 0)
(0.00215381 -0.0534218 0)
(0.00306822 -0.0515114 0)
(0.00164125 -0.0526071 0)
(-0.000426035 -0.0535194 0)
(-3.41819e-11 -5.5022e-05 0)
(-3.40239e-11 -5.50224e-05 0)
(-0.0135724 -0.0362345 0)
(0.000398522 -0.026746 0)
(-0.0163069 -0.0320664 0)
(-0.0132358 -0.0341715 0)
(-0.00641234 -0.0456705 0)
(-0.00836696 -0.032479 0)
(-0.00307639 -0.0529503 0)
(-0.000481949 -0.0459408 0)
(-0.00128194 -0.0492841 0)
(-0.00261823 -0.0460314 0)
(-0.0014348 -0.0494172 0)
(-0.00592351 -0.0428162 0)
(-0.00624929 -0.0424509 0)
(-0.0059309 -0.0477104 0)
(0.00300078 -0.0499204 0)
(0.00400318 -0.0479345 0)
(0.00625409 -0.0503952 0)
(0.000395594 -0.0550175 0)
(-0.00159122 -0.0506726 0)
(-0.00395598 -0.0512156 0)
(-0.00519868 -0.0576323 0)
(0.000806634 -0.0640903 0)
(0.00170365 -0.064295 0)
(0.00571066 -0.0599855 0)
(0.0083179 -0.0539345 0)
(0.00173082 -0.049068 0)
(-0.00363014 -0.0484149 0)
(0.000781653 -0.0478773 0)
(0.00426825 -0.049002 0)
(0.00401162 -0.0502962 0)
(0.00308114 -0.0488116 0)
(0.00323646 -0.04953 0)
(-0.00131569 -0.0540386 0)
(-0.00136196 -0.0502185 0)
(-0.000829421 -0.0507382 0)
(0.000299029 -0.0531702 0)
(0.00325475 -0.0553096 0)
(0.00356279 -0.0503327 0)
(0.0037463 -0.0477635 0)
(0.00022269 -0.0469045 0)
(-0.00333591 -0.0440726 0)
(-0.0078193 -0.0444647 0)
(-0.0100592 -0.0426195 0)
(-0.00584196 -0.0442588 0)
(-0.00293774 -0.0486076 0)
(-0.00280545 -0.0498286 0)
(-0.00172394 -0.0478722 0)
(0.00115737 -0.0551384 0)
(0.00166321 -0.0517739 0)
(0.00277202 -0.0487662 0)
(-0.00389894 -0.0532777 0)
(-0.00102739 -0.0595434 0)
(-0.00232198 -0.0561486 0)
(-0.00312649 -0.0522067 0)
(0.00414087 -0.057913 0)
(0.004057 -0.0555894 0)
(0.00631642 -0.0543037 0)
(0.00575506 -0.0537833 0)
(0.00656943 -0.0553162 0)
(0.00393624 -0.0552272 0)
(0.00286279 -0.0535496 0)
(-0.000817546 -0.0558212 0)
(-0.00174129 -0.0572233 0)
(0.00310096 -0.0547921 0)
(0.0043139 -0.0518086 0)
(0.00461032 -0.0498853 0)
(0.00665057 -0.0453017 0)
(0.00533327 -0.0457541 0)
(0.00380711 -0.0484037 0)
(0.00231701 -0.0551259 0)
(0.00275702 -0.0504729 0)
(3.96847e-05 -0.0489895 0)
(-0.00133966 -0.0514331 0)
(-3.68206e-11 -5.50077e-05 0)
(-3.6609e-11 -5.50083e-05 0)
(-0.0150537 -0.0346588 0)
(-0.00654004 -0.0282889 0)
(-0.0144974 -0.0382872 0)
(-0.011093 -0.0370501 0)
(-0.0118368 -0.052131 0)
(-0.00887303 -0.0437737 0)
(-0.00215742 -0.0542405 0)
(-0.000599803 -0.0489101 0)
(-0.00171613 -0.050391 0)
(-0.00269662 -0.049278 0)
(-0.00352805 -0.0517695 0)
(-0.00350542 -0.0515176 0)
(-0.00342194 -0.0457351 0)
(-0.00308721 -0.0459511 0)
(0.00401685 -0.0576812 0)
(0.00684565 -0.0602571 0)
(0.00585655 -0.0598945 0)
(0.0042302 -0.0541038 0)
(0.00492477 -0.0558776 0)
(0.00480076 -0.0611296 0)
(0.00114636 -0.0635267 0)
(-0.000908874 -0.0659121 0)
(-0.000374411 -0.0609182 0)
(0.00212944 -0.0575502 0)
(0.00242183 -0.0586255 0)
(0.000357169 -0.0479838 0)
(0.00404842 -0.0532047 0)
(0.0052814 -0.0592206 0)
(0.00577931 -0.0589387 0)
(0.00250344 -0.0620805 0)
(0.00287075 -0.0623348 0)
(0.00319813 -0.0547595 0)
(-0.00145566 -0.0558424 0)
(-0.00153578 -0.0527426 0)
(-0.000782113 -0.0508936 0)
(0.000749608 -0.0538531 0)
(0.000995697 -0.0533933 0)
(-0.00132822 -0.05078 0)
(-0.00350817 -0.0488388 0)
(-0.00549616 -0.04541 0)
(-0.00788023 -0.0381242 0)
(-0.0078954 -0.0397942 0)
(-0.00653113 -0.0452172 0)
(-0.000770247 -0.0513908 0)
(0.000686303 -0.0482489 0)
(-0.00056731 -0.0469496 0)
(-0.000438992 -0.0478925 0)
(7.3062e-05 -0.0555957 0)
(-8.98627e-05 -0.0519779 0)
(0.00131944 -0.0493476 0)
(0.00101475 -0.0507099 0)
(-0.00210816 -0.052007 0)
(-0.00274371 -0.049232 0)
(1.41038e-06 -0.0486554 0)
(0.00421643 -0.0549303 0)
(0.00768835 -0.0558158 0)
(0.00474354 -0.0570797 0)
(0.00527733 -0.0515467 0)
(0.00303116 -0.0546066 0)
(0.00225233 -0.0556092 0)
(0.00155947 -0.0510568 0)
(-0.000758274 -0.0531664 0)
(-0.00320535 -0.0558939 0)
(-0.00172256 -0.0572457 0)
(0.00320818 -0.0514244 0)
(-0.000168043 -0.0492889 0)
(0.00382382 -0.0462552 0)
(0.00523613 -0.0436345 0)
(0.00293104 -0.046792 0)
(0.00214 -0.0441145 0)
(0.00125174 -0.0448992 0)
(-0.00111728 -0.0496012 0)
(-0.00115422 -0.0480712 0)
(-2.00455e-11 -5.5022e-05 0)
(-1.99528e-11 -5.50224e-05 0)
(-0.0212586 -0.0448992 0)
(-0.00751845 -0.0356556 0)
(-0.0112705 -0.0383766 0)
(-0.00969204 -0.0346565 0)
(-0.0091169 -0.0547428 0)
(-0.00786542 -0.0430764 0)
(-0.00433502 -0.0545137 0)
(-0.000857459 -0.0479638 0)
(0.000853186 -0.0511143 0)
(-0.00132191 -0.0498637 0)
(-0.00241324 -0.0507315 0)
(-0.00154702 -0.0483659 0)
(0.00107979 -0.0488078 0)
(0.00328132 -0.0511137 0)
(0.0060103 -0.0534033 0)
(0.00723383 -0.0594845 0)
(0.00305365 -0.0575095 0)
(0.00332315 -0.0530631 0)
(0.00250557 -0.0515339 0)
(0.00242701 -0.0547103 0)
(0.00154603 -0.0502135 0)
(0.000335812 -0.0573818 0)
(0.00476723 -0.0535574 0)
(0.00236787 -0.0564841 0)
(0.00284749 -0.0528435 0)
(0.00316912 -0.0489399 0)
(0.00740046 -0.0538596 0)
(0.00664668 -0.0586323 0)
(0.00520931 -0.0581093 0)
(0.00128558 -0.0540637 0)
(0.00109219 -0.0562987 0)
(0.000717306 -0.0523438 0)
(-0.00212089 -0.0533271 0)
(-0.00235202 -0.0499897 0)
(-0.00327739 -0.0504571 0)
(-0.00281548 -0.0533737 0)
(-0.000541602 -0.0503658 0)
(-0.0027949 -0.0493698 0)
(-0.0075658 -0.0482697 0)
(-0.00766378 -0.0487788 0)
(-0.00623883 -0.0488886 0)
(-0.00342938 -0.0531888 0)
(-0.00176282 -0.050116 0)
(-0.00131966 -0.049187 0)
(0.000347357 -0.0516165 0)
(0.000429248 -0.0544233 0)
(0.00245364 -0.0515561 0)
(0.000183107 -0.0525437 0)
(-0.00291708 -0.0522656 0)
(-0.000208324 -0.0498136 0)
(-0.000313861 -0.0497836 0)
(-0.0017871 -0.0458612 0)
(-0.000809806 -0.0485561 0)
(0.00407799 -0.0565686 0)
(0.00671643 -0.0541771 0)
(0.00634525 -0.0539216 0)
(0.00816053 -0.0557222 0)
(0.00416125 -0.0544682 0)
(0.00294252 -0.0548154 0)
(0.000416899 -0.0555742 0)
(0.00185706 -0.0531888 0)
(-0.000231969 -0.0506502 0)
(-0.00204196 -0.055931 0)
(-0.00587012 -0.0581484 0)
(-0.00211626 -0.0504788 0)
(-0.00263639 -0.0487343 0)
(0.00185238 -0.0492688 0)
(0.00392153 -0.0482643 0)
(0.003211 -0.0460491 0)
(0.00281785 -0.0469283 0)
(0.00199654 -0.0461301 0)
(0.00128635 -0.0485594 0)
(0.00184947 -0.0469894 0)
(-2.40958e-11 -5.5022e-05 0)
(-2.39844e-11 -5.50224e-05 0)
(-0.0136009 -0.0398524 0)
(-0.00537761 -0.0197412 0)
(-0.0109892 -0.036953 0)
(-0.0105347 -0.0375248 0)
(-0.00740933 -0.0453569 0)
(-0.00922451 -0.0469272 0)
(-0.00526833 -0.054508 0)
(-0.000931664 -0.0483029 0)
(0.000761909 -0.0501973 0)
(-0.000745755 -0.0481651 0)
(0.0015091 -0.0476806 0)
(0.00284197 -0.0480902 0)
(0.00348539 -0.0483083 0)
(0.00530643 -0.0520675 0)
(0.00535047 -0.049839 0)
(0.00531892 -0.0502529 0)
(0.000897055 -0.0561791 0)
(0.00129513 -0.0511024 0)
(0.00276972 -0.0502298 0)
(-0.00136933 -0.0504864 0)
(0.00057001 -0.0476016 0)
(0.00104345 -0.0456856 0)
(0.00098451 -0.0490658 0)
(0.00211414 -0.0476898 0)
(0.00185726 -0.0458636 0)
(0.00604312 -0.0458227 0)
(0.0056783 -0.0451937 0)
(0.0038607 -0.0451716 0)
(0.0024856 -0.0502481 0)
(0.000875344 -0.0519417 0)
(-0.00225367 -0.0525742 0)
(-0.00388986 -0.0487491 0)
(-0.00244559 -0.0472417 0)
(-0.00215254 -0.0466647 0)
(-0.00369206 -0.0490634 0)
(-0.00210517 -0.0507213 0)
(-0.000647449 -0.0496284 0)
(-0.00410902 -0.0495192 0)
(-0.00603368 -0.0456965 0)
(-0.00291352 -0.0437904 0)
(-0.00262636 -0.0477801 0)
(-0.00214726 -0.0525302 0)
(-0.00267687 -0.0517603 0)
(-0.00163653 -0.0575501 0)
(0.00157847 -0.0535253 0)
(2.8743e-05 -0.0551742 0)
(-0.000458744 -0.0516025 0)
(-0.000992314 -0.0509953 0)
(-0.00323692 -0.0534574 0)
(-0.00118702 -0.0504181 0)
(0.0051196 -0.0557842 0)
(0.00518725 -0.0531989 0)
(0.00401509 -0.0525327 0)
(0.00443121 -0.0579676 0)
(0.00682521 -0.0560758 0)
(0.00636764 -0.0569159 0)
(0.00657851 -0.0562073 0)
(0.00377086 -0.0552831 0)
(0.00189892 -0.0514574 0)
(0.00124579 -0.0551836 0)
(-0.000194553 -0.0509038 0)
(-0.00110148 -0.0497808 0)
(-0.00375829 -0.0489282 0)
(-0.00624766 -0.0522704 0)
(-0.00508838 -0.0490781 0)
(-0.00242227 -0.0468529 0)
(-0.000668496 -0.0540369 0)
(-0.00252731 -0.0514035 0)
(0.00188579 -0.0511929 0)
(0.00397564 -0.0505366 0)
(0.0019161 -0.0494105 0)
(0.00254552 -0.0501761 0)
(0.00084084 -0.0533439 0)
(-2.14051e-11 -5.5022e-05 0)
(-2.13061e-11 -5.50224e-05 0)
(-0.0253138 -0.0367557 0)
(-0.00522719 -0.0118223 0)
(-0.0114867 -0.0407188 0)
(-0.00890978 -0.0339654 0)
(-0.0097319 -0.0479946 0)
(-0.00856174 -0.0537753 0)
(-0.00672725 -0.0545742 0)
(-0.0034561 -0.0481916 0)
(-0.00272401 -0.0497654 0)
(-0.000917464 -0.047487 0)
(0.00170966 -0.046993 0)
(0.00248021 -0.0476397 0)
(0.00485673 -0.0531293 0)
(0.00559289 -0.0498891 0)
(0.0036479 -0.0513975 0)
(0.00141077 -0.0503717 0)
(0.00144116 -0.0476508 0)
(0.00124328 -0.0474567 0)
(0.00078852 -0.0481302 0)
(-0.000468418 -0.0458553 0)
(-0.00304077 -0.0493848 0)
(-0.00080761 -0.0469766 0)
(0.00147929 -0.0485251 0)
(-0.000613437 -0.0495565 0)
(0.00339737 -0.0475939 0)
(0.00481822 -0.0473567 0)
(0.00498739 -0.0462706 0)
(0.00576067 -0.0474245 0)
(0.00651451 -0.0476295 0)
(0.00338255 -0.047333 0)
(-0.000556638 -0.0487381 0)
(-0.0034942 -0.0483687 0)
(-0.00512393 -0.0493854 0)
(-0.0024851 -0.0460382 0)
(-0.00130894 -0.0472316 0)
(-0.000323254 -0.0492136 0)
(-0.00180959 -0.0506066 0)
(-0.00267285 -0.0506865 0)
(-0.00175986 -0.0504766 0)
(0.00108255 -0.0551088 0)
(0.00289251 -0.0478749 0)
(0.0010119 -0.0523868 0)
(-0.00141004 -0.051649 0)
(-0.00239384 -0.0553508 0)
(-0.00096931 -0.0541016 0)
(-0.00159206 -0.0534488 0)
(-0.001427 -0.0531541 0)
(-0.000405304 -0.0547817 0)
(5.44732e-05 -0.0537745 0)
(0.00114136 -0.0543784 0)
(0.00585452 -0.0563498 0)
(0.00360563 -0.0562175 0)
(0.00426822 -0.0559704 0)
(0.00768822 -0.056834 0)
(0.00552486 -0.0611209 0)
(0.00411076 -0.0597432 0)
(0.00388115 -0.0550123 0)
(0.00338357 -0.0555344 0)
(0.00117086 -0.053202 0)
(-0.00268965 -0.0503709 0)
(-0.00395591 -0.0485829 0)
(-0.00414688 -0.0471434 0)
(-0.00454173 -0.0457905 0)
(-0.00437137 -0.0489521 0)
(-0.00223505 -0.0486796 0)
(-0.000426746 -0.0492533 0)
(-6.23974e-05 -0.0495388 0)
(-0.00130949 -0.0504238 0)
(0.00264203 -0.0516764 0)
(0.00278992 -0.0530247 0)
(0.00243379 -0.052716 0)
(0.0031666 -0.0512365 0)
(0.000638907 -0.0547379 0)
(-1.96083e-11 -5.5022e-05 0)
(-1.95176e-11 -5.50224e-05 0)
(-0.00792631 0.000337138 0)
(-0.00336784 -0.000797597 0)
(-0.00795741 -0.00678244 0)
(-0.008415 -0.0142493 0)
(-0.0079152 -0.0535585 0)
(-0.00758604 -0.0329611 0)
(-0.00732488 -0.0515559 0)
(-0.00614751 -0.047961 0)
(-0.00507102 -0.0489911 0)
(-0.00365576 -0.0481493 0)
(0.00333806 -0.052113 0)
(0.00397702 -0.0517357 0)
(0.00402128 -0.0508686 0)
(0.00232682 -0.0519215 0)
(0.00178043 -0.0498335 0)
(0.000633444 -0.0495344 0)
(-0.00235005 -0.0481747 0)
(0.00330276 -0.0456183 0)
(0.00326722 -0.0507725 0)
(0.00356523 -0.0502195 0)
(-0.00234992 -0.0506557 0)
(-0.00118969 -0.0483913 0)
(-0.00158761 -0.0495159 0)
(-0.000852122 -0.0538083 0)
(0.00187801 -0.050739 0)
(0.00397984 -0.0489913 0)
(0.00486934 -0.0484363 0)
(0.00583482 -0.0489311 0)
(0.0049134 -0.0465296 0)
(-0.000557595 -0.0476109 0)
(1.15351e-05 -0.0406307 0)
(-0.00409508 -0.0413362 0)
(-0.004096 -0.0465602 0)
(-0.000736533 -0.0493323 0)
(0.000870452 -0.0479984 0)
(0.00303955 -0.0456426 0)
(0.00106011 -0.0481304 0)
(-0.00163314 -0.0529166 0)
(-0.00144292 -0.0505498 0)
(0.000909184 -0.0540908 0)
(0.000241801 -0.0494913 0)
(0.00341163 -0.0457541 0)
(0.00309047 -0.0460229 0)
(-0.000505031 -0.0498655 0)
(-0.00353324 -0.0511043 0)
(-0.00411846 -0.0511675 0)
(-0.000787446 -0.0526908 0)
(-3.02791e-05 -0.0527308 0)
(-0.000110785 -0.051086 0)
(0.0052536 -0.0552071 0)
(0.00428313 -0.0546617 0)
(0.00549649 -0.0548871 0)
(0.00420189 -0.0560693 0)
(0.00383351 -0.0519718 0)
(0.00383299 -0.055332 0)
(0.000512132 -0.0566899 0)
(-0.000307138 -0.0542087 0)
(-0.000258564 -0.0501493 0)
(-0.00522467 -0.0408532 0)
(-0.00467818 -0.042662 0)
(-0.00446539 -0.0473488 0)
(-0.00272033 -0.0466739 0)
(-0.00149814 -0.045084 0)
(-0.00159659 -0.0476845 0)
(-0.000399165 -0.0487987 0)
(0.00108765 -0.0485388 0)
(0.00339744 -0.0468772 0)
(0.00400975 -0.0471803 0)
(0.00403737 -0.048504 0)
(0.00404683 -0.0511921 0)
(0.00362717 -0.0512186 0)
(-0.000656703 -0.0474877 0)
(0.000594268 -0.0450852 0)
(-3.09657e-11 -5.5022e-05 0)
(-3.08225e-11 -5.50224e-05 0)
(-0.0120506 -0.0288853 0)
(-0.000169535 -0.0196866 0)
(-0.0117805 -0.0223992 0)
(-0.0122494 -0.0128063 0)
(-0.0102666 -0.0570555 0)
(-0.00696862 -0.0310338 0)
(-0.00495044 -0.0492443 0)
(-0.00585613 -0.0490217 0)
(-0.0018196 -0.0460814 0)
(0.000749719 -0.0550508 0)
(0.00336322 -0.0530479 0)
(0.00452193 -0.0522842 0)
(0.00107473 -0.0526753 0)
(-4.30251e-06 -0.0543659 0)
(7.71162e-05 -0.0517014 0)
(-0.00159658 -0.0489635 0)
(0.000117697 -0.0509582 0)
(0.00397913 -0.0529734 0)
(0.00449192 -0.0519718 0)
(0.00347808 -0.0502688 0)
(0.000993333 -0.0514571 0)
(-0.00189261 -0.0511132 0)
(-0.00196096 -0.0499167 0)
(-0.00245552 -0.0533292 0)
(-0.00122946 -0.0549809 0)
(0.00277595 -0.0536479 0)
(0.00390399 -0.0500734 0)
(0.00329229 -0.0492802 0)
(0.000327829 -0.0478434 0)
(-0.00199011 -0.0452482 0)
(-0.00411691 -0.0493547 0)
(-0.000226299 -0.0508176 0)
(-0.000926972 -0.0461327 0)
(-0.00102477 -0.0486125 0)
(-0.000241162 -0.0548589 0)
(0.00230248 -0.0496535 0)
(0.00273482 -0.0498139 0)
(0.000739872 -0.0491514 0)
(-0.000165273 -0.0488537 0)
(-0.00143295 -0.051625 0)
(-0.00321092 -0.0530592 0)
(0.00135673 -0.051192 0)
(0.00379048 -0.0498631 0)
(0.00367194 -0.0496076 0)
(0.00308308 -0.0465817 0)
(0.00101444 -0.0475025 0)
(0.000797569 -0.0532468 0)
(-0.000988846 -0.0529339 0)
(0.000285429 -0.0505131 0)
(0.000736838 -0.0530551 0)
(0.00305623 -0.0556633 0)
(0.00523379 -0.0499192 0)
(0.000856114 -0.0546751 0)
(0.00108851 -0.051929 0)
(0.00301612 -0.0493753 0)
(0.000628258 -0.0508885 0)
(-0.00172904 -0.0499576 0)
(-0.00484978 -0.0481031 0)
(-0.00540153 -0.046424 0)
(-0.00352203 -0.0481168 0)
(-0.00449651 -0.0483364 0)
(-0.00140301 -0.0489286 0)
(0.000748733 -0.0481294 0)
(-0.000650524 -0.0475664 0)
(-0.00162258 -0.0486833 0)
(-0.000432744 -0.0484733 0)
(0.00322815 -0.0469821 0)
(0.00541567 -0.0468355 0)
(0.00658894 -0.046802 0)
(0.0032462 -0.0490447 0)
(-0.00368511 -0.046821 0)
(-0.00545188 -0.0460793 0)
(0.00432085 -0.0447001 0)
(-2.64318e-11 -5.5022e-05 0)
(-2.63096e-11 -5.50224e-05 0)
(-0.00465565 -0.0354497 0)
(-0.00268394 -0.00801965 0)
(-0.0125277 -0.0385764 0)
(-0.012467 -0.0263145 0)
(-0.00972416 -0.0447688 0)
(-0.00747288 -0.0552058 0)
(-0.00547999 -0.0537115 0)
(-0.00397882 -0.0514346 0)
(-0.00108503 -0.0452585 0)
(0.00155272 -0.0545129 0)
(0.00260944 -0.0537237 0)
(0.00101931 -0.054145 0)
(0.00172183 -0.0475513 0)
(0.00060063 -0.049244 0)
(0.00200268 -0.0552715 0)
(0.0010774 -0.0508895 0)
(0.00067934 -0.0541292 0)
(0.00267465 -0.0545193 0)
(0.00345561 -0.0530127 0)
(0.00311004 -0.0516401 0)
(0.00315608 -0.0542537 0)
(0.00358268 -0.0507544 0)
(0.000270038 -0.048911 0)
(-0.000758949 -0.0527739 0)
(-0.00286995 -0.0548428 0)
(0.000746065 -0.0538387 0)
(0.0028663 -0.0519024 0)
(0.00318975 -0.0516269 0)
(0.00234321 -0.0518795 0)
(0.00149852 -0.0528893 0)
(0.000748559 -0.048387 0)
(-0.00117545 -0.0563889 0)
(-0.000251313 -0.0537622 0)
(0.000353362 -0.0508527 0)
(-0.00190177 -0.0555206 0)
(-0.00102813 -0.0530393 0)
(0.0011232 -0.0523778 0)
(0.00419974 -0.0509404 0)
(0.00386286 -0.0463981 0)
(-0.000496082 -0.0510044 0)
(-0.0034363 -0.0542292 0)
(-0.00318742 -0.0493865 0)
(0.00204389 -0.0516348 0)
(0.0024136 -0.0505575 0)
(0.00353122 -0.0486973 0)
(0.00218312 -0.0485602 0)
(0.000740591 -0.0510369 0)
(0.00243679 -0.0508564 0)
(0.00255422 -0.049538 0)
(0.000934022 -0.0551704 0)
(0.000178532 -0.0574492 0)
(0.00128778 -0.0528403 0)
(0.00139583 -0.0492049 0)