/*--------------------------------*- C++ -*----------------------------------*\
  =========                 |
  \\      /  F ield         | OpenFOAM: The Open Source CFD Toolbox
   \\    /   O peration     | Website:  https://openfoam.org
    \\  /    A nd           | Version:  12
     \\/     M anipulation  |
\*---------------------------------------------------------------------------*/
FoamFile
{
    format      ascii;
    class       IOPosition;
    location    "0.65/lagrangian/cloud";
    object      positions;
}
// * * * * * * * * * * * * * * * * * * * * * * * * * * * * * * * * * * * * * //

2228
(
(0.240376 0.145617 0.234195 0.379812) 0 1 1
(0.235092 0.0957857 0.286668 0.382454) 1 3 1
(0.209933 0.0357539 0.35928 0.395034) 2 5 1
(0.0333845 0.483308 0.121675 0.361633) 79 9 2
(0.441786 0.279107 0.176607 0.1025) 4 7379 1
(0.383575 0.308213 0.0693855 0.238827) 5 8 1
(0.0947477 0.452626 0.177458 0.275168) 6 10 1
(0.0736633 0.0801124 0.383056 0.463168) 7 12 2
(0.244191 0.00795179 0.369953 0.377904) 8 14 2
(0.029426 0.179126 0.306161 0.485287) 9 16 2
(0.121951 0.157032 0.439025 0.281993) 9 18 2
(0.401646 0.0614216 0.237756 0.299177) 10 21 1
(0.298593 0.249911 0.100792 0.350703) 11 23 1
(0.372978 0.000828299 0.313511 0.312683) 11 7386 2
(0.588711 0.197515 0.205645 0.00812907) 12 7387 2
(0.480206 0.259897 0.23311 0.0267871) 13 7388 1
(0.369945 0.315028 0.0204207 0.294607) 14 26 1
(0.0163361 0.102801 0.38903 0.491832) 15 28 2
(0.2031 0.0462186 0.39845 0.352231) 15 30 2
(0.239231 0.0649651 0.31542 0.380385) 16 33 1
(0.224153 0.0752153 0.312708 0.387924) 17 35 1
(0.19077 0.0437576 0.404615 0.360858) 18 36 2
(0.396441 0.0546205 0.247159 0.30178) 19 39 1
(0.518817 0.0328174 0.207774 0.240591) 20 41 1
(0.515317 0.17473 0.067611 0.242341) 21 43 1
(0.41693 0.291535 0.261488 0.0300474) 22 7397 1
(0.15408 0.42296 0.164338 0.258622) 23 44 1
(0.00472091 0.49764 0.286356 0.211284) 23 46 1
(0.00832518 0.495837 0.297671 0.198166) 24 48 1
(0.0347325 0.482634 0.281098 0.201535) 26 52 1
(0.71005 0.144975 0.106279 0.0386955) 28 57 2
(0.261029 0.00394495 0.365541 0.369486) 29 56 2
(0.0432022 0.220894 0.478399 0.257505) 29 58 2
(0.00208221 0.295404 0.498959 0.203555) 30 60 2
(0.115478 0.442261 0.14495 0.297311) 32 62 1
(0.37281 0.313595 0.187061 0.126534) 33 7408 1
(0.401279 0.299361 0.226859 0.0725013) 34 7409 1
(0.549366 0.225317 0.0838498 0.141467) 35 70 1
(0.167593 0.416204 0.389967 0.0262365) 36 73 2
(0.352182 0.323909 0.10413 0.219779) 37 75 2
(0.316013 0.341994 0.0958028 0.246191) 39 76 1
(0.0986756 0.450662 0.289121 0.161541) 114 79 2
(0.441333 0.279333 0.115137 0.164197) 40 81 2
(0.335862 0.0559246 0.276144 0.332069) 41 80 2
(0.192003 0.403999 0.108862 0.295136) 42 82 1
(0.284938 0.133912 0.22362 0.357531) 42 85 1
(0.405546 0.297227 0.260188 0.0370394) 43 87 2
(0.333435 0.045356 0.287926 0.333282) 44 86 2
(0.142356 0.14044 0.428822 0.288382) 44 88 2
(0.312749 0.137466 0.20616 0.343625) 45 91 1
(0.0762669 0.461867 0.189134 0.272733) 47 92 1
(0.343676 0.328162 0.0229702 0.305192) 48 94 1
(0.376755 0.311622 0.21622 0.0954019) 49 7424 1
(0.525665 0.237168 0.0212749 0.215893) 50 7425 1
(0.111051 0.046492 0.397982 0.444474) 51 100 2
(0.261925 0.00645257 0.369037 0.362585) 51 102 2
(0.414226 0.0168985 0.275988 0.292887) 76 149 2
(0.136993 0.431503 0.382532 0.0489718) 150 298 1
(0.222452 0.0124632 0.376311 0.388774) 77 151 2
(0.0265295 0.123505 0.486735 0.36323) 77 153 2
(0.206983 0.092364 0.396509 0.304145) 78 155 2
(0.39231 0.12878 0.303845 0.175065) 79 157 2
(0.513426 0.243287 0.0537784 0.189509) 84 19 2
(0.930134 0.0349328 0.03387 0.00106281) 85 169 1
(0.64789 0.176055 0.0141454 0.16191) 86 23 2
(0.418519 0.290741 0.0735775 0.217163) 87 25 2
(0.142897 0.415963 0.428552 0.0125888) 88 27 1
(0.0690323 0.197281 0.268203 0.465484) 87 174 1
(0.770042 0.112762 0.114979 0.00221751) 162 174 1
(0.182005 0.282109 0.126888 0.408998) 88 176 1
(0.0471798 0.102703 0.373707 0.47641) 89 175 2
(0.296496 0.351752 0.333241 0.0185115) 89 178 2
(0.167432 0.0270646 0.416284 0.389219) 89 177 2
(0.292464 0.353768 0.219329 0.134439) 90 180 2
(0.230209 0.0918391 0.293056 0.384895) 91 179 2
(0.309937 0.345031 0.0289268 0.316105) 95 187 1
(0.45344 0.27328 0.0770659 0.196214) 96 43 2
(0.340119 0.32994 0.0225224 0.307418) 97 45 2
(0.233363 0.383319 0.0711229 0.312196) 98 47 2
(0.198575 0.244217 0.400713 0.156496) 99 49 1
(0.032376 0.483812 0.462478 0.021334) 26 53 2
(0.201914 0.0636847 0.335358 0.399043) 99 198 1
(0.281822 0.311701 0.0473882 0.359089) 100 200 1
(0.270778 0.364611 0.182629 0.181982) 101 202 2
(0.483927 0.116668 0.258036 0.141369) 104 59 1
(0.29522 0.35239 0.158945 0.193446) 106 63 2
(0.0324658 0.0679709 0.415796 0.483767) 32 65 1
(0.231474 0.384263 0.0859175 0.298345) 180 210 2
(0.088379 0.45581 0.242352 0.213458) 181 212 2
(0.284347 0.040709 0.317117 0.357826) 106 212 1
(0.242728 0.378636 0.086717 0.291919) 107 214 2
(0.207424 0.232167 0.164121 0.396288) 107 214 1
(0.0955679 0.0753502 0.376866 0.452216) 108 213 2
(0.27762 0.225012 0.136178 0.36119) 108 216 1
(0.259766 0.353501 0.016616 0.370117) 109 218 1
(0.306879 0.0404119 0.34656 0.306149) 112 75 1
(0.302712 0.348644 0.276544 0.0720994) 114 227 1
(0.293531 0.353234 0.0468717 0.306363) 116 229 1
(0.138413 0.430793 0.165152 0.265641) 117 231 1
(0.339034 0.330483 0.16645 0.164033) 118 233 1
(0.223314 0.388343 0.196835 0.191508) 119 235 1
(0.155675 0.422163 0.183146 0.239017) 120 237 1
(0.382895 0.308553 0.240505 0.0680474) 121 93 2
(0.210154 0.394923 0.243667 0.151256) 121 241 1
(0.402979 0.0521441 0.29851 0.246366) 193 236 1
(0.447285 0.0946651 0.276358 0.181692) 194 238 1
(0.167142 0.416429 0.359451 0.0569777) 150 299 2
(0.323222 0.338389 0.273425 0.0649642) 153 304 1
(0.212209 0.393895 0.274113 0.119783) 155 160 2
(0.0423821 0.113386 0.478809 0.365423) 81 161 2
(0.213007 0.393496 0.316918 0.0765782) 155 309 2
(0.212613 0.0506834 0.34301 0.393694) 156 308 2
(0.380005 0.175119 0.134879 0.309998) 156 311 1
(0.482112 0.258944 0.178514 0.0804302) 157 313 2
(0.559432 0.220284 0.115267 0.105017) 158 315 2
(0.413997 0.293002 0.0269711 0.26603) 160 319 2
(0.253128 0.373436 0.299746 0.0736905) 237 323 2
(0.0186239 0.0231239 0.467564 0.490688) 163 322 2
(0.146519 0.156748 0.269992 0.42674) 163 325 1
(0.57735 0.0772015 0.211325 0.134123) 165 180 1
(0.324565 0.178192 0.337717 0.159526) 166 182 1
(0.236522 0.285097 0.381739 0.0966423) 167 184 1
(0.20836 0.253501 0.39582 0.142319) 168 186 1
(0.195775 0.0809668 0.402112 0.321146) 169 188 1
(0.0626499 0.468675 0.387221 0.0814543) 170 338 1
(0.0327187 0.0868594 0.483641 0.396781) 172 194 1
(0.0952581 0.24705 0.452371 0.205321) 246 341 1
(0.172481 0.36388 0.0498789 0.413759) 172 343 1
(0.246079 0.376961 0.0463436 0.330617) 173 345 2
(0.232412 0.208791 0.175003 0.383794) 173 345 1
(0.210457 0.394771 0.118639 0.276133) 174 347 2
(0.152848 0.106172 0.317403 0.423576) 174 347 1
(0.186304 0.406848 0.302177 0.104671) 175 349 2
(0.10887 0.0738942 0.371671 0.445565) 176 348 2
(0.225185 0.0286622 0.387408 0.358745) 176 350 2
(0.00630523 0.111588 0.496847 0.385259) 177 352 2
(0.201716 0.399142 0.221436 0.177705) 179 357 2
(0.247006 0.151947 0.22455 0.376497) 180 359 1
(0.222847 0.178654 0.209922 0.388576) 181 361 1
(0.105829 0.0821361 0.364949 0.447085) 183 362 2
(0.00712299 0.13015 0.496439 0.366289) 183 364 2
(0.175862 0.0510342 0.412069 0.361035) 184 366 2
(0.208708 0.395646 0.136311 0.259335) 186 222 2
(0.271451 0.364274 0.0217081 0.342566) 187 224 2
(0.253937 0.332046 0.373031 0.0409855) 188 226 1
(0.0306343 0.484683 0.394084 0.0905989) 190 230 2
(0.105675 0.447162 0.164535 0.282627) 189 377 2
(0.108952 0.122349 0.445524 0.323175) 189 376 2
(0.140398 0.429801 0.371218 0.0585831) 190 378 1
(0.286814 0.078399 0.356593 0.278194) 191 232 1
(0.308224 0.168026 0.345888 0.177862) 192 234 1
(0.382618 0.0777858 0.308691 0.230905) 225 299 1
(0.206705 0.195389 0.396648 0.201258) 226 301 1
(0.119691 0.440155 0.407509 0.0326452) 227 451 1
(0.460542 0.0247406 0.269729 0.244988) 228 453 2
(0.47808 0.103337 0.157623 0.26096) 229 456 1
(0.00635368 0.496823 0.226588 0.270235) 232 459 1
(0.298232 0.350884 0.284256 0.0666281) 233 315 2
(0.25786 0.335394 0.37107 0.0356757) 234 317 1
(0.764644 0.117678 0.045071 0.072607) 236 467 1
(0.0914945 0.454253 0.137673 0.31658) 237 472 2
(0.229526 0.385237 0.0620109 0.323226) 238 474 2
(0.353215 0.323392 0.0212321 0.30216) 239 327 2
(0.331752 0.334124 0.0197985 0.314325) 240 329 2
(0.305345 0.347327 0.0541639 0.293163) 241 331 2
(0.285868 0.357066 0.114331 0.242735) 242 333 2
(0.268768 0.365616 0.207084 0.158532) 243 335 2
(0.193889 0.403055 0.0987493 0.304306) 244 337 2
(0.048234 0.475883 0.462946 0.012937) 244 486 2
(0.255205 0.372398 0.060776 0.311622) 245 488 2
(0.183341 0.155974 0.252355 0.40833) 245 488 1
(0.20363 0.398185 0.339455 0.0587306) 246 490 2
(0.215213 0.392393 0.263222 0.129172) 247 492 2
(0.196138 0.401931 0.100767 0.301164) 248 494 2
(0.195715 0.402143 0.0148481 0.387294) 249 496 2
(0.0455685 0.0898167 0.387399 0.477216) 250 495 2
(0.113775 0.0721552 0.443113 0.370957) 250 497 2
(0.255232 0.027229 0.345155 0.372384) 251 500 1
(0.0884964 0.0381068 0.455752 0.417645) 252 501 2
(0.00993924 0.111118 0.49503 0.383912) 253 503 2
(0.416437 0.291782 0.100773 0.191008) 255 505 1
(0.550213 0.224893 0.214274 0.0106198) 256 361 2
(0.377249 0.311376 0.135474 0.175901) 257 363 2
(0.302737 0.348632 0.207517 0.141115) 258 514 2
(0.28331 0.358345 0.152068 0.206277) 259 516 2
(0.272732 0.363634 0.0673711 0.296263) 260 518 2
(0.250795 0.374602 0.00141265 0.37319) 261 520 2
(0.194155 0.00947024 0.393452 0.402923) 262 519 2
(0.187757 0.406122 0.114799 0.291322) 263 524 2
(0.141577 0.429211 0.33877 0.0904417) 264 526 2
(0.429703 0.285148 0.247073 0.0380757) 265 379 2
(0.194449 0.402776 0.373161 0.0296142) 265 527 1
(0.346995 0.326503 0.10264 0.223863) 266 381 2
(0.292056 0.353972 0.321422 0.0325501) 267 383 2
(0.155614 0.156351 0.422193 0.265842) 300 448 1
(0.237682 0.139459 0.2417 0.381159) 302 598 2
(0.0831744 0.458413 0.356222 0.10219) 302 600 1
(0.149305 0.425347 0.229436 0.195912) 303 602 1
(0.0179299 0.491035 0.154748 0.336287) 305 604 1
(0.045969 0.477015 0.0771914 0.399824) 306 606 1
(0.108896 0.407047 0.445552 0.0385055) 307 462 1
(0.121816 0.0127992 0.439092 0.426293) 308 464 1
(0.213258 0.393371 0.25592 0.137451) 310 468 2
(0.212559 0.393721 0.247873 0.145848) 312 618 1
(0.199667 0.0730118 0.327155 0.400167) 312 621 1
(0.220132 0.194079 0.195855 0.389934) 313 623 1
(0.216887 0.3635 0.0280563 0.391557) 314 625 1
(0.213264 0.393368 0.258215 0.135153) 315 627 2
(0.240251 0.379874 0.0970907 0.282784) 316 629 2
(0.0255495 0.0936899 0.393535 0.487225) 317 628 2
(0.202508 0.118643 0.280103 0.398746) 317 631 1
(0.180935 0.393808 0.015725 0.409533) 318 633 1
(0.21931 0.390345 0.11039 0.279955) 319 635 2
(0.0184143 0.131273 0.35952 0.490793) 320 634 2
(0.565038 0.171912 0.217481 0.045569) 321 490 1
(0.364986 0.202725 0.114782 0.317507) 322 641 1
(0.228078 0.0291041 0.356857 0.385961) 323 643 1
(0.201007 0.399496 0.0664576 0.333039) 325 647 2
(0.213451 0.393274 0.185831 0.207444) 326 649 2
(0.392861 0.303569 0.0795537 0.224016) 327 651 2
(0.206162 0.0112716 0.385647 0.396919) 328 650 2
(0.00991287 0.113383 0.495044 0.38166) 328 652 2
(0.114149 0.0195664 0.423359 0.442925) 330 654 2
(0.298755 0.01972 0.350623 0.330903) 330 508 1
(0.32948 0.0959407 0.33526 0.23932) 331 510 1
(0.30471 0.275324 0.347645 0.0723212) 332 512 1
(0.362597 0.318702 0.0991058 0.219596) 333 663 2
(0.257382 0.124241 0.247068 0.371309) 334 662 2
(0.053719 0.114469 0.358672 0.47314) 335 664 2
(0.0422164 0.107162 0.478892 0.37173) 335 666 2
(0.203957 0.0493413 0.398021 0.34868) 412 671 1
(0.0929334 0.453533 0.0174537 0.43608) 414 821 1
(0.0510713 0.0842002 0.474464 0.390264) 339 674 2
(0.348327 0.0926722 0.325837 0.233164) 340 528 1
(0.39417 0.266607 0.302915 0.0363086) 341 530 1
(0.410236 0.294882 0.189019 0.105863) 342 532 2
(0.287288 0.356356 0.314197 0.042159) 343 534 2
(0.189059 0.405471 0.404928 0.000542838) 375 745 1
(0.317499 0.34125 0.101136 0.240114) 377 601 2
(0.246956 0.345645 0.376522 0.0308772) 378 603 1
(0.203196 0.160352 0.398402 0.23805) 379 605 1
(0.154259 0.422871 0.405884 0.0169863) 380 755 1
(0.00358818 0.498206 0.410317 0.0878888) 381 757 1
(0.184306 0.407847 0.369742 0.0381046) 383 613 2
(0.184085 0.407957 0.266683 0.141275) 384 615 2
(0.192332 0.403834 0.181679 0.222155) 385 617 2
(0.357459 0.00817451 0.321271 0.313096) 386 619 1
(0.0475617 0.476219 0.158465 0.317754) 387 770 2
(0.0952177 0.0343985 0.452391 0.417993) 387 769 2
(0.148806 0.215608 0.209989 0.425597) 388 772 1
(0.178734 0.410633 0.397501 0.0131318) 389 774 2
(0.197482 0.401259 0.213703 0.187556) 390 776 2
(0.197377 0.401312 0.0482723 0.353039) 391 778 2
(0.0165852 0.0906311 0.401076 0.491707) 392 777 2
(0.182013 0.0143707 0.394623 0.408993) 392 780 1
(0.17317 0.101072 0.312343 0.413415) 393 782 1
(0.312272 0.343864 0.146228 0.197636) 394 783 1
(0.131712 0.434144 0.339444 0.0947) 395 785 1
(0.270436 0.364782 0.323267 0.0415149) 396 787 1
(0.546574 0.226713 0.196482 0.0302308) 397 789 1
(0.338355 0.0774789 0.330822 0.253343) 398 791 2
(0.345519 0.32724 0.129806 0.197434) 400 796 2
(0.245282 0.377359 0.155723 0.221636) 401 798 2
(0.245376 0.377312 0.159164 0.218148) 402 800 2
(0.223462 0.388269 0.126298 0.261971) 403 802 2
(0.214134 0.392933 0.0783596 0.314573) 404 804 2
(0.153303 0.423349 0.0990066 0.324342) 405 806 2
(0.261992 0.369004 0.0258141 0.34319) 406 808 2
(0.119029 0.440486 0.0879622 0.352523) 407 807 1
(0.114302 0.442849 0.27353 0.169319) 407 809 1
(0.118419 0.44079 0.268567 0.172223) 408 811 1
(0.253201 0.0699955 0.303404 0.373399) 409 814 1
(0.267676 0.105367 0.260794 0.366162) 410 816 1
(0.244866 0.0220505 0.355516 0.377567) 411 818 1
(0.109974 0.445013 0.0577354 0.387277) 488 968 1
(0.165525 0.021807 0.395431 0.417238) 414 821 2
(0.393546 0.303227 0.0846603 0.218566) 489 824 2
(0.219305 0.390348 0.0724661 0.317881) 490 826 2
(0.225999 0.203928 0.183073 0.387) 416 828 1
(0.275523 0.362239 0.0644596 0.297779) 418 829 1
(0.0474256 0.476287 0.121323 0.354965) 451 748 2
(0.25279 0.373605 0.183449 0.190156) 452 750 2
(0.209961 0.39502 0.148029 0.246991) 453 752 2
(0.226426 0.386787 0.12735 0.259436) 454 754 2
(0.219052 0.390474 0.161779 0.228695) 455 756 2
(0.233832 0.383084 0.224964 0.15812) 456 758 2
(0.22469 0.387655 0.318846 0.0688095) 457 760 2
(0.0554994 0.47225 0.0795229 0.392727) 458 908 1
(0.174821 0.0391376 0.412589 0.373452) 458 762 1
(0.170478 0.250324 0.414761 0.164437) 459 764 1
(0.283419 0.35829 0.0362835 0.322007) 460 766 2
(0.162755 0.418623 0.118555 0.300068) 535 915 2
(0.040654 0.0829082 0.396765 0.479673) 461 914 2
(0.180084 0.229531 0.180428 0.409958) 461 917 1
(0.170673 0.414663 0.402242 0.0124209) 462 919 2
(0.17635 0.411825 0.354284 0.0575405) 463 921 2
(0.155963 0.348168 0.0738509 0.422019) 464 923 1
(0.178564 0.120608 0.29011 0.410718) 465 925 1
(0.150033 0.011745 0.424983 0.413238) 466 926 2
(0.0230473 0.0685631 0.419913 0.488476) 468 928 2
(0.0120836 0.136021 0.357937 0.493958) 469 930 2
(0.0477938 0.476103 0.345677 0.130426) 469 932 1
(0.0206375 0.489681 0.120619 0.369062) 471 934 1
(0.237359 0.38132 0.360363 0.0209575) 472 790 2
(0.303741 0.348129 0.0822591 0.26587) 473 792 2
(0.340177 0.190739 0.329911 0.139172) 474 794 1
(0.240021 0.379989 0.237133 0.142857) 475 945 2
(0.288106 0.355947 0.140551 0.215396) 476 947 2
(0.263351 0.368324 0.0560911 0.312233) 477 949 2
(0.209217 0.395392 0.13892 0.256472) 478 951 2
(0.171479 0.414261 0.346259 0.068002) 479 953 2
(0.123387 0.283403 0.154903 0.438307) 480 955 1
(0.221373 0.389313 0.272147 0.117166) 481 956 1
(0.311676 0.00421546 0.344162 0.339946) 482 810 1
(0.263163 0.368419 0.336849 0.0315697) 483 960 1
(0.12262 0.43869 0.427589 0.0111014) 484 963 2
(0.246777 0.376611 0.118741 0.25787) 485 965 2
(0.00433243 0.141971 0.355863 0.497834) 486 964 2
(0.248093 0.0156063 0.360347 0.375954) 486 967 1
(0.0474253 0.476287 0.240011 0.236277) 488 971 2
(0.271898 0.364051 0.346848 0.017203) 564 973 2
(0.178914 0.410543 0.00496526 0.405578) 565 975 2
(0.392142 0.303929 0.0405313 0.263398) 491 977 2
(0.256702 0.0965037 0.371649 0.275145) 492 830 1
(0.312152 0.00345086 0.343924 0.340473) 450 894 2
(0.352372 0.323814 0.303226 0.0205885) 525 1044 2
(0.399121 0.30044 0.190527 0.109913) 526 1046 2
(0.437016 0.281492 0.041594 0.239898) 527 1048 2
(0.230197 0.0528039 0.384902 0.332098) 528 901 1
(0.242346 0.024657 0.378827 0.35417) 529 903 1
(0.25378 0.0884223 0.37311 0.284688) 530 905 1
(0.167079 0.217498 0.41646 0.198962) 531 907 1
(0.262797 0.368602 0.14859 0.220012) 532 909 2
(0.02958 0.48521 0.117119 0.368091) 533 1057 1
(0.161715 0.257337 0.419143 0.161806) 533 911 1
(0.202022 0.398989 0.121242 0.277747) 534 913 2
(0.142931 0.428535 0.0298717 0.398663) 534 1062 2
(0.0650084 0.0840883 0.467496 0.383408) 534 1061 2
(0.145038 0.287329 0.140152 0.427481) 535 1064 1
(0.20828 0.39586 0.317766 0.0780938) 536 1066 2
(0.210099 0.284268 0.110683 0.394951) 537 1068 1
(0.0232942 0.0749959 0.413357 0.488353) 539 1069 2
(0.182236 0.408882 0.340278 0.0686037) 540 1074 2
(0.178847 0.121004 0.289572 0.410576) 541 1076 1
(0.101916 0.0418327 0.449042 0.407209) 542 1077 2
(0.381337 0.231361 0.309331 0.0779703) 544 933 1
(0.278192 0.334981 0.360904 0.0259233) 545 935 1
(0.261021 0.369489 0.0291066 0.340383) 546 937 2
(0.225595 0.387202 0.0497319 0.337471) 547 939 2
(0.145268 0.420668 0.427366 0.00669825) 548 941 1
(0.386181 0.0287919 0.278118 0.30691) 549 1089 2
(0.233381 0.118221 0.265089 0.383309) 550 1091 2
(0.14383 0.157042 0.271043 0.428085) 551 1093 2
(0.479881 0.260059 0.0161633 0.243896) 552 1098 2
(0.0666547 0.0695445 0.466673 0.397128) 553 1099 2
(0.166433 0.416784 0.182929 0.233854) 555 1104 2
(0.189903 0.405049 0.300798 0.104251) 556 1106 2
(0.158965 0.414401 0.00611642 0.420518) 557 1108 1
(0.172929 0.331979 0.0815568 0.413536) 558 1110 1
(0.177791 0.299845 0.111259 0.411104) 559 1112 1
(0.207087 0.361101 0.0353551 0.396456) 560 1114 1
(0.233677 0.383161 0.276795 0.106366) 561 1116 2
(0.27119 0.364405 0.0950346 0.26937) 562 1118 2
(0.225061 0.38747 0.0459932 0.341476) 563 1120 2
(0.111829 0.444086 0.170753 0.273333) 565 1124 2
(0.109921 0.44504 0.198486 0.246554) 566 1126 2
(0.291916 0.0707026 0.354042 0.283339) 566 977 1
(0.230915 0.144225 0.384542 0.240318) 567 979 1
(0.295613 0.352194 0.112935 0.239258) 600 1193 2
(0.29258 0.0812938 0.272416 0.35371) 600 1193 1
(0.287411 0.356294 0.209217 0.147078) 601 1195 2
(0.0831062 0.120906 0.458447 0.337541) 601 1194 2
(0.317795 0.0986768 0.242426 0.341103) 602 1197 1
(0.253783 0.373109 0.349242 0.0238667) 604 1052 2
(0.280541 0.35973 0.323465 0.0362644) 605 1054 2
(0.217838 0.391081 0.0466994 0.344382) 606 1202 1
(0.0831371 0.458431 0.310699 0.147733) 606 1204 1
(0.158645 0.164569 0.420678 0.256109) 607 1058 1
(0.407208 0.296396 0.28068 0.0157155) 608 1060 2
(0.0475269 0.476237 0.276924 0.199312) 609 1208 1
(0.143423 0.411753 0.0165353 0.428288) 609 1211 1
(0.381427 0.309287 0.210552 0.0987345) 610 1213 2
(0.180937 0.202405 0.409532 0.207126) 611 1214 2
(0.30733 0.346335 0.157227 0.189107) 613 1219 2
(0.182698 0.00974015 0.408651 0.398911) 614 1220 2
(0.186933 0.406534 0.36248 0.0440535) 616 1225 2
(0.1716 0.111036 0.303163 0.4142) 617 1227 1
(0.206926 0.396537 0.335202 0.061335) 618 1228 1
(0.155722 0.422139 0.362899 0.0592401) 619 1230 1
(0.191983 0.404008 0.361309 0.0426992) 620 1232 1
(0.264139 0.0251975 0.36793 0.342733) 621 1086 1
(0.263182 0.109225 0.368409 0.259184) 622 1088 1
(0.312592 0.242861 0.343704 0.100844) 623 1090 1
(0.386499 0.224045 0.30675 0.0827058) 624 1092 1
(0.376732 0.184683 0.311634 0.126951) 625 1094 1
(0.35181 0.0205074 0.324095 0.303587) 626 1096 1
(0.433538 0.0338971 0.283231 0.249334) 627 1098 1
(0.21839 0.193403 0.197402 0.390805) 628 1249 1
(0.0378802 0.0837609 0.397299 0.48106) 630 1250 2
(0.177071 0.411465 0.230381 0.181083) 631 1255 2
(0.158447 0.371544 0.0492328 0.420776) 632 1257 1
(0.033078 0.00178862 0.481672 0.483461) 633 1259 1
(0.12255 0.438725 0.342534 0.0961911) 635 1263 2
(0.145261 0.25041 0.17696 0.427369) 636 1265 1
(0.174634 0.148835 0.263848 0.412683) 637 1267 1
(0.141352 0.00718219 0.422142 0.429324) 638 1269 1
(0.196403 0.401798 0.132351 0.269448) 640 1273 2
(0.417566 0.224692 0.0665255 0.291217) 641 1275 1
(0.217219 0.39139 0.205561 0.18583) 642 1128 2
(0.227627 0.386187 0.334811 0.0513755) 643 1130 2
(0.0508368 0.106115 0.368467 0.474582) 675 15084 1
(0.217561 0.337783 0.053436 0.391219) 675 1342 1
(0.0330539 0.126636 0.356837 0.483473) 676 1341 2
(0.245515 0.329442 0.0478009 0.377243) 676 1344 1
(0.106217 0.0593811 0.387511 0.446892) 677 1343 2
(0.32563 0.169848 0.167337 0.337185) 677 1346 1
(0.377539 0.31123 0.153402 0.157828) 678 1348 2
(0.228331 0.0658351 0.319999 0.385834) 679 1347 2
(0.0126428 0.14881 0.493679 0.344869) 679 1349 2
(0.336206 0.331897 0.130811 0.201086) 681 1205 2
(0.335249 0.332376 0.0317288 0.300647) 682 1207 2
(0.399283 0.300359 0.0471024 0.253256) 683 1209 2
(0.649187 0.109481 0.175406 0.065925) 684 1211 1
(0.3622 0.14181 0.3189 0.17709) 685 1213 1
(0.331446 0.0331596 0.334277 0.301118) 686 1215 1
(0.356148 0.321926 0.266685 0.0552415) 688 1365 1
(0.32759 0.336205 0.0857991 0.250406) 690 1372 2
(0.262985 0.170674 0.197833 0.368507) 691 1374 1
(0.240361 0.37982 0.0705371 0.309282) 693 1378 2
(0.159739 0.379351 0.04078 0.420131) 694 1380 1
(0.167382 0.0691043 0.347205 0.416309) 695 1382 1
(0.264269 0.344813 0.367865 0.0230525) 696 1235 1
(0.332548 0.333726 0.132683 0.201043) 697 1237 2
(0.306742 0.346629 0.33008 0.0165485) 698 1239 2
(0.095578 0.452211 0.356458 0.0957526) 698 1387 1
(0.247018 0.108687 0.376491 0.267803) 699 1241 1
(0.213338 0.304419 0.393331 0.0889124) 700 1243 1
(0.197642 0.401179 0.05837 0.342809) 701 1245 2
(0.214602 0.392699 0.0550807 0.337618) 702 1247 2
(0.258331 0.119696 0.251139 0.370834) 704 1397 2
(0.273273 0.363363 0.258864 0.104499) 705 1402 2
(0.199484 0.167738 0.23252 0.400258) 706 1404 1
(0.128355 0.0434213 0.435822 0.392401) 707 1405 2
(0.322751 0.267948 0.0706765 0.338624) 709 1410 1
(0.22648 0.0169973 0.369763 0.38676) 711 1411 2
(0.302593 0.0809144 0.267789 0.348703) 712 1416 1
(0.152222 0.423889 0.0410687 0.38282) 714 1420 2
(0.254525 0.175462 0.197275 0.372737) 715 1422 1
(0.49074 0.132266 0.122364 0.25463) 716 1424 1
(0.362462 0.318769 0.0589456 0.259823) 717 1277 2
(0.24251 0.378745 0.221696 0.157049) 718 1279 2
(0.219818 0.390091 0.30948 0.0806116) 719 1281 2
(0.181991 0.409005 0.0320558 0.376949) 750 1491 2
(0.14028 0.00678843 0.423072 0.42986) 750 1491 1
(0.180649 0.409675 0.371255 0.0384206) 751 1493 2
(0.116593 0.0598859 0.381818 0.441704) 752 1492 2
(0.273731 0.343593 0.0195413 0.363134) 752 1495 1
(0.0620044 0.103996 0.365002 0.468998) 753 1494 2
(0.279716 0.360142 0.343691 0.0164516) 753 1497 2
(0.00172625 0.138081 0.361056 0.499137) 754 1496 2
(0.331972 0.206454 0.12756 0.334014) 754 1499 1
(0.273429 0.363286 0.300526 0.0627593) 755 1501 2
(0.0535363 0.473232 0.20079 0.272442) 756 1500 1
(0.231039 0.384481 0.366234 0.0182468) 756 1502 1
(0.280743 0.243094 0.359629 0.116534) 758 1358 1
(0.221792 0.389104 0.0247772 0.364327) 760 1362 2
(0.273453 0.363273 0.216028 0.147245) 761 1364 2
(0.204353 0.397823 0.034764 0.363059) 762 1512 1
(0.142514 0.284151 0.144592 0.428743) 764 1516 2
(0.0587815 0.240996 0.229614 0.470609) 765 1518 2
(0.287111 0.147886 0.208558 0.356444) 766 1520 2
(0.668315 0.165843 0.0905216 0.0753211) 767 1525 2
(0.399527 0.300237 0.229969 0.0702678) 768 1527 2
(0.0363303 0.0792143 0.402621 0.481835) 770 1528 2
(0.148304 0.0213712 0.425848 0.404477) 771 1532 2
(0.207559 0.396221 0.0544956 0.341725) 773 1537 2
(0.157077 0.252702 0.16876 0.421462) 774 1539 1
(0.0297509 0.485125 0.0442852 0.440839) 775 1538 1
(0.197172 0.142352 0.401414 0.259062) 775 1392 1
(0.176405 0.411798 0.0212636 0.390534) 776 1394 2
(0.201011 0.399495 0.338932 0.0605622) 777 1396 2
(0.144994 0.427503 0.388539 0.0389636) 777 1544 1
(0.291504 0.219299 0.354248 0.134949) 778 1398 1
(0.356976 0.29838 0.321512 0.0231321) 779 1400 1
(0.0539766 0.375287 0.0977245 0.473012) 781 1550 2
(0.545862 0.227069 0.174145 0.0529239) 782 1555 2
(0.665562 0.167219 0.116066 0.0511533) 783 1557 2
(0.697169 0.0268382 0.151416 0.124578) 784 1410 1
(0.592509 0.203746 0.0664856 0.13726) 786 1560 1
(0.487381 0.0622934 0.25631 0.194016) 787 1416 1
(0.819576 0.0321162 0.0902119 0.0580957) 789 1568 2
(0.485568 0.0599555 0.197261 0.257216) 791 1573 1
(0.249089 0.259689 0.115766 0.375455) 792 1575 1
(0.827212 0.0863942 0.012491 0.0739032) 793 1428 2
(0.136632 0.431684 0.0465206 0.385163) 794 1579 2
(0.09958 0.0694752 0.380735 0.45021) 795 1578 2
(0.114509 0.442746 0.205592 0.237154) 825 1640 2
(0.138866 0.430567 0.360014 0.0705529) 826 1642 2
(0.154255 0.420559 0.00231344 0.422873) 827 1644 1
(0.161604 0.372941 0.0462565 0.419198) 828 1646 1
(0.160598 0.226761 0.19294 0.419701) 829 1648 1
(0.289755 0.355123 0.235742 0.119381) 830 1650 2
(0.229515 0.385242 0.00644699 0.378795) 831 1652 2
(0.368546 0.229199 0.0865277 0.315727) 831 1652 1
(0.40443 0.297785 0.10801 0.189775) 832 1654 2
(0.219322 0.390339 0.0742973 0.316042) 833 1656 2
(0.232383 0.383809 0.127719 0.25609) 834 1658 2
(0.220247 0.280957 0.389876 0.10892) 833 1507 1
(0.213763 0.393119 0.00576391 0.387355) 834 1509 2
(0.0706541 0.464673 0.447327 0.0173461) 760 1511 2
(0.250869 0.374565 0.134664 0.239901) 836 1513 2
(0.203655 0.398173 0.150349 0.247824) 837 1515 2
(0.251116 0.374442 0.141947 0.232495) 838 1517 2
(0.426789 0.286605 0.0650483 0.221557) 839 1519 2
(0.366118 0.316941 0.108287 0.208654) 840 1521 2
(0.255814 0.372093 0.172675 0.199418) 841 1523 2
(0.254019 0.37299 0.155729 0.217261) 842 1525 2
(0.302701 0.34865 0.294904 0.0537454) 843 1675 1
(0.239937 0.380031 0.089624 0.290407) 845 1680 2
(0.239149 0.218915 0.16151 0.380426) 846 1682 1
(0.178746 0.0282882 0.410627 0.382339) 847 1683 2
(0.127556 0.0528778 0.383344 0.436222) 849 1685 2
(0.131661 0.0853063 0.348863 0.434169) 850 1687 2
(0.214416 0.392792 0.381996 0.0107964) 850 1689 1
(0.248506 0.0667306 0.375747 0.309016) 851 1543 1
(0.255405 0.183237 0.372298 0.189061) 852 1545 1
(0.260025 0.316576 0.369987 0.0534116) 853 1547 1
(0.254583 0.372709 0.0786093 0.294099) 854 1549 2
(0.292047 0.353977 0.216322 0.137654) 855 1551 2
(0.337895 0.331053 0.303774 0.027279) 856 1553 2
(0.331601 0.3342 0.0198625 0.314337) 857 1701 1
(0.324811 0.337595 0.0225434 0.315051) 858 1557 2
(0.244467 0.369759 0.377767 0.0080077) 860 1561 1
(0.185079 0.147685 0.407461 0.259776) 861 1563 1
(0.273845 0.141464 0.363078 0.221614) 862 1565 1
(0.226081 0.152382 0.386959 0.234577) 865 1571 1
(0.488782 0.141982 0.255609 0.113628) 866 1573 1
(0.0327567 0.00422086 0.483622 0.479401) 866 1721 2
(0.205149 0.334681 0.0627452 0.397426) 867 1724 1
(0.234832 0.382584 0.126242 0.256343) 868 1726 2
(0.211393 0.394303 0.00164425 0.392659) 869 1728 2
(0.17656 0.41172 0.393419 0.0183014) 975 1937 1
(0.0363478 0.184107 0.481826 0.297719) 977 1793 1
(0.227428 0.34235 0.386286 0.0439356) 979 1797 1
(0.346422 0.0156597 0.311129 0.326789) 905 1799 1
(0.319729 0.190913 0.340136 0.149222) 906 1800 2
(0.132743 0.433628 0.316612 0.117016) 983 1805 2
(0.116649 0.349956 0.441675 0.0917196) 984 1807 1
(0.27747 0.34844 0.0128252 0.361265) 910 1809 1
(0.108059 0.445971 0.405196 0.0407742) 910 1808 1
(0.281003 0.14931 0.359499 0.210189) 911 1662 1
(0.288496 0.34462 0.355752 0.0111319) 912 1664 1
(0.280262 0.359869 0.163333 0.196536) 913 1666 2
(0.297746 0.351127 0.344419 0.00670795) 914 1668 2
(0.0693139 0.465343 0.0752946 0.390048) 915 1816 1
(0.0875752 0.171078 0.456212 0.285134) 915 1818 2
(0.0787545 0.460623 0.033896 0.426727) 916 1672 2
(0.0115857 0.494207 0.350258 0.143949) 916 1820 1
(0.239605 0.269926 0.380197 0.110272) 917 1674 1
(0.256997 0.371501 0.218694 0.152807) 918 1676 2
(0.259867 0.370067 0.328333 0.041734) 919 1678 2
(0.29454 0.35273 0.150088 0.202642) 920 1829 2
(0.257645 0.313826 0.0573515 0.371178) 921 1831 1
(0.290723 0.154155 0.200483 0.354639) 922 1833 1
(0.299675 0.122687 0.227475 0.350162) 923 1835 1
(0.429667 0.0657605 0.219406 0.285167) 924 1837 1
(0.325659 0.0093177 0.337171 0.327853) 925 1690 1
(0.270556 0.0856243 0.364722 0.279098) 926 1692 1
(0.275102 0.163558 0.362449 0.198891) 927 1694 1
(0.282009 0.242186 0.358995 0.116809) 928 1696 1
(0.284976 0.351644 0.357512 0.00586792) 929 1698 1
(0.283883 0.358058 0.0872487 0.27081) 930 1700 2
(0.282185 0.358907 0.14185 0.217057) 931 1702 2
(0.21911 0.390445 0.0962691 0.294176) 932 1704 2
(0.201243 0.337636 0.399379 0.0617426) 933 1706 1
(0.11001 0.444995 0.138355 0.30664) 861 1712 2
(0.206968 0.396516 0.0301602 0.366356) 937 1860 1
(0.251035 0.374482 0.30132 0.0731626) 939 1718 2
(0.138769 0.0568538 0.373762 0.430616) 865 1717 2
(0.274259 0.36287 0.015617 0.347254) 941 1868 1
(0.0470338 0.328951 0.147532 0.476483) 941 1871 1
(0.136387 0.431807 0.153798 0.278008) 942 1873 2
(0.172419 0.10472 0.309071 0.413791) 942 1873 1
(0.176221 0.304754 0.107136 0.41189) 943 1875 1
(0.239385 0.108849 0.380307 0.271459) 1050 1938 1
(0.181556 0.409222 0.350622 0.0585999) 977 1942 2
(0.432557 0.283721 0.0571717 0.22655) 978 1944 2
(0.639724 0.0265971 0.180138 0.153541) 980 1799 1
(0.502827 0.095828 0.248586 0.152758) 981 1801 1
(0.16719 0.416405 0.203678 0.212727) 983 1954 2
(0.120837 0.439581 0.305152 0.134429) 984 1956 2
(0.247069 0.376465 0.113865 0.262601) 985 1958 2
(0.237528 0.381236 0.0328674 0.348369) 986 1960 2
(0.198741 0.400629 0.109609 0.29102) 987 1962 2
(0.203813 0.398093 0.143683 0.25441) 988 1964 2
(0.157135 0.421433 0.137697 0.283736) 989 1966 2
(0.167687 0.416157 0.0244893 0.391667) 1065 1968 2
(0.360032 0.319984 0.0237075 0.296276) 990 1965 1
(0.189712 0.405144 0.132446 0.272698) 991 1967 1
(0.349117 0.325442 0.306782 0.0186593) 991 1969 1
(0.323274 0.338363 0.0887072 0.249656) 992 1823 2
(0.201848 0.399076 0.0707322 0.328344) 993 1971 1
(0.0721155 0.463942 0.375585 0.0883575) 993 1973 1
(0.439316 0.280342 0.130268 0.150074) 995 1978 2
(0.353052 0.323474 0.0565829 0.266891) 996 1980 2