/*--------------------------------*- C++ -*----------------------------------*\
  =========                 |
  \\      /  F ield         | OpenFOAM: The Open Source CFD Toolbox
   \\    /   O peration     | Website:  https://openfoam.org
    \\  /    A nd           | Version:  12
     \\/     M anipulation  |
\*---------------------------------------------------------------------------*/
FoamFile
{
    format      ascii;
    class       IOPosition;
    location    "0.05/lagrangian/cloud";
    object      positions;
}
// * * * * * * * * * * * * * * * * * * * * * * * * * * * * * * * * * * * * * //

3850
(
(0.000132786 0.499934 0.499934 1.86789e-16) 0 7376 2
(2.78669e-05 0.499986 0.499986 5.29027e-17) 0 7376 2
(0.0913544 0.454323 7.73802e-18 0.454323) 1 2 1
(0.859836 0.0700818 1.2307e-16 0.0700818) 1 2 1
(0.875954 0.0620232 0 0.0620232) 2 4 1
(0.876387 0.0618063 0 0.0618063) 3 6 1
(0.876335 0.0618324 2.46519e-32 0.0618324) 4 8 1
(0.781581 0.109209 8.67362e-17 0.109209) 5 10 1
(0.876477 0.0617614 0 0.0617614) 6 12 1
(0.87636 0.0618201 1.66625e-16 0.0618201) 7 14 1
(0.876335 0.0618324 2.08423e-16 0.0618324) 8 16 1
(0.876335 0.0618324 9.49173e-17 0.0618324) 9 18 1
(0.876335 0.0618324 1.34195e-16 0.0618324) 10 20 1
(0.876335 0.0618324 0 0.0618324) 11 22 1
(0.876335 0.0618324 3.81896e-16 0.0618324) 12 24 1
(0.781581 0.109209 1.2326e-32 0.109209) 13 26 1
(0.876477 0.0617614 8.67362e-17 0.0617614) 14 28 1
(0.87636 0.0618201 8.67362e-17 0.0618201) 15 30 1
(0.781581 0.109209 1.73472e-16 0.109209) 16 32 1
(0.876477 0.0617614 1.60977e-16 0.0617614) 17 34 1
(0.87636 0.0618201 8.67362e-17 0.0618201) 18 36 1
(0.876335 0.0618324 0 0.0618324) 19 38 1
(0.876335 0.0618324 8.67362e-17 0.0618324) 20 40 1
(0.876335 0.0618324 0 0.0618324) 21 42 1
(0.876335 0.0618324 0 0.0618324) 22 44 1
(0.876335 0.0618324 6.16298e-32 0.0618324) 23 46 1
(0.781581 0.109209 8.67362e-17 0.109209) 24 48 1
(0.876477 0.0617614 2.47713e-16 0.0617614) 25 50 1
(0.87636 0.0618201 0 0.0618201) 26 52 1
(0.876335 0.0618324 1.34195e-16 0.0618324) 27 54 1
(0.876335 0.0618324 8.67362e-17 0.0618324) 28 56 1
(0.876335 0.0618324 0 0.0618324) 29 58 1
(0.876335 0.0618324 0.0618324 8.67362e-17) 30 60 2
(0.781581 0.109209 8.62292e-17 0.109209) 31 62 1
(0.876477 0.0617614 8.67362e-17 0.0617614) 32 64 1
(0.87636 0.0618201 6.16298e-32 0.0618201) 33 66 1
(0.876335 0.0618324 2.9842e-16 0.0618324) 34 68 1
(0.876335 0.0618324 0.0618324 2.86102e-16) 35 70 2
(0.876335 0.0618324 7.94114e-17 0.0618324) 36 72 1
(0.781581 0.109209 1.77349e-16 0.109209) 37 74 1
(0.78172 0.10914 6.39463e-17 0.10914) 38 76 1
(0.781741 0.10913 4.40794e-16 0.10913) 39 78 1
(0.876502 0.0617491 6.29664e-17 0.0617491) 40 80 1
(0.87636 0.0618201 0 0.0618201) 41 82 1
(0.876335 0.0618324 0 0.0618324) 42 84 1
(0.876335 0.0618324 2.57282e-16 0.0618324) 43 86 1
(0.876335 0.0618324 8.1853e-17 0.0618324) 44 88 1
(0.876335 0.0618324 0 0.0618324) 45 90 1
(0.876335 0.0618324 3.69779e-32 0.0618324) 46 92 1
(0.876335 0.0618324 6.27307e-17 0.0618324) 47 94 1
(0.876335 0.0618324 1.62061e-16 0.0618324) 48 96 1
(0.876335 0.0618324 0 0.0618324) 49 98 1
(0.876335 0.0618324 1.50435e-16 0.0618324) 50 100 1
(0.876335 0.0618324 0 0.0618324) 51 102 1
(0.876335 0.0618324 0 0.0618324) 52 104 1
(0.876335 0.0618324 0 0.0618324) 53 106 1
(0.876335 0.0618324 1.73472e-16 0.0618324) 54 108 1
(0.876335 0.0618324 0 0.0618324) 55 110 1
(0.876335 0.0618324 8.67362e-17 0.0618324) 56 112 1
(0.876335 0.0618324 9.44256e-17 0.0618324) 57 114 1
(0.876335 0.0618324 7.42285e-17 0.0618324) 58 116 1
(0.876335 0.0618324 2.1275e-16 0.0618324) 59 118 1
(0.876335 0.0618324 0 0.0618324) 60 120 1
(0.781581 0.109209 1.73472e-16 0.109209) 61 122 1
(0.78172 0.10914 2.99261e-16 0.10914) 62 124 1
(0.876502 0.0617491 8.67362e-17 0.0617491) 63 126 1
(0.87636 0.0618201 8.67362e-17 0.0618201) 64 128 1
(0.876335 0.0618324 0 0.0618324) 65 130 1
(0.876335 0.0618324 2.46519e-32 0.0618324) 66 132 1
(0.876335 0.0618324 0 0.0618324) 67 134 1
(0.682202 0.158899 8.67362e-17 0.158899) 68 136 1
(0.682624 0.158688 1.29073e-17 0.158688) 69 138 1
(0.876855 0.0615726 2.13711e-16 0.0615726) 70 140 1
(0.682251 0.158874 1.3492e-16 0.158874) 71 142 1
(0.782015 0.108992 8.67362e-17 0.108992) 72 144 1
(0.000132786 0.499934 0.499934 1.83833e-16) 75 7451 2
(2.78669e-05 0.499986 0.499986 2.78751e-16) 75 7451 2
(0.0913544 0.454323 1.92817e-16 0.454323) 76 151 1
(0.859836 0.0700818 4.42286e-16 0.0700818) 76 151 1
(0.875954 0.0620232 0.0620232 8.67362e-17) 77 153 2
(0.876387 0.0618063 0.0618063 8.48795e-17) 78 155 2
(0.876335 0.0618324 1.7063e-16 0.0618324) 79 157 1
(0.876335 0.0618324 0 0.0618324) 80 159 1
(0.876335 0.0618324 1.04317e-16 0.0618324) 81 161 1
(0.876335 0.0618324 3.33229e-16 0.0618324) 82 163 1
(0.876335 0.0618324 1.46739e-16 0.0618324) 83 165 1
(0.876335 0.0618324 5.71515e-17 0.0618324) 84 167 1
(0.876335 0.0618324 1.26313e-16 0.0618324) 85 169 1
(0.876335 0.0618324 0 0.0618324) 86 171 1
(0.876335 0.0618324 1.62065e-16 0.0618324) 87 173 1
(0.876335 0.0618324 0 0.0618324) 88 175 1
(0.876335 0.0618324 6.90225e-16 0.0618324) 89 177 1
(0.876335 0.0618324 6.23204e-17 0.0618324) 90 179 1
(0.876335 0.0618324 0.0618324 4.53824e-16) 91 181 2
(0.876335 0.0618324 2.5039e-16 0.0618324) 92 183 1
(0.876335 0.0618324 0 0.0618324) 93 185 1
(0.781581 0.109209 1.68428e-16 0.109209) 94 187 1
(0.78172 0.10914 0 0.10914) 95 189 1
(0.876502 0.0617491 1.49919e-16 0.0617491) 96 191 1
(0.87636 0.0618201 0.0618201 9.88402e-17) 97 193 2
(0.876335 0.0618324 1.55221e-16 0.0618324) 98 195 1
(0.781581 0.109209 5.42513e-17 0.109209) 99 197 1
(0.78172 0.10914 0.10914 9.93214e-17) 100 199 2
(0.781741 0.10913 0.10913 2.95668e-16) 101 201 2
(0.876502 0.0617491 0 0.0617491) 102 203 1
(0.781602 0.109199 8.49559e-17 0.109199) 103 205 1
(0.876477 0.0617614 6.06372e-17 0.0617614) 104 207 1
(0.87636 0.0618201 2.07203e-16 0.0618201) 105 209 1
(0.876335 0.0618324 0 0.0618324) 106 211 1
(0.876335 0.0618324 5.85747e-17 0.0618324) 107 213 1
(0.781581 0.109209 9.39348e-17 0.109209) 108 215 1
(0.876477 0.0617614 0 0.0617614) 109 217 1
(0.87636 0.0618201 0.0618201 0) 110 219 2
(0.876335 0.0618324 0.0618324 4.55787e-16) 111 221 2
(0.876335 0.0618324 4.24533e-17 0.0618324) 112 223 1
(0.876335 0.0618324 0.0618324 3.71048e-16) 113 225 2
(0.876335 0.0618324 2.57223e-16 0.0618324) 114 227 1
(0.876335 0.0618324 0 0.0618324) 115 229 1
(0.876335 0.0618324 1.36198e-16 0.0618324) 116 231 1
(0.876335 0.0618324 3.26569e-16 0.0618324) 117 233 1
(0.876335 0.0618324 5.85747e-17 0.0618324) 118 235 1
(0.876335 0.0618324 1.45311e-16 0.0618324) 119 237 1
(0.876335 0.0618324 1.45311e-16 0.0618324) 120 239 1
(0.876335 0.0618324 2.14753e-16 0.0618324) 121 241 1
(0.876335 0.0618324 0.0618324 0) 122 243 2
(0.876335 0.0618324 0 0.0618324) 123 245 1
(0.876335 0.0618324 1.36198e-16 0.0618324) 124 247 1
(0.876335 0.0618324 8.36527e-17 0.0618324) 125 249 1
(0.876335 0.0618324 5.85747e-17 0.0618324) 126 251 1
(0.876335 0.0618324 1.45311e-16 0.0618324) 127 253 1
(0.876335 0.0618324 1.45311e-16 0.0618324) 128 255 1
(0.876335 0.0618324 2.14753e-16 0.0618324) 129 257 1
(0.876335 0.0618324 0.0618324 0) 130 259 2
(0.876335 0.0618324 7.45283e-17 0.0618324) 131 261 1
(0.876335 0.0618324 4.50154e-16 0.0618324) 132 263 1
(0.876335 0.0618324 2.5971e-16 0.0618324) 133 265 1
(0.876335 0.0618324 1.29527e-17 0.0618324) 134 267 1
(0.876335 0.0618324 0.0618324 3.1207e-16) 135 269 2
(0.876335 0.0618324 2.21002e-16 0.0618324) 136 271 1
(0.876335 0.0618324 0 0.0618324) 137 273 1
(0.876335 0.0618324 1.45311e-16 0.0618324) 138 275 1
(0.876335 0.0618324 1.42487e-16 0.0618324) 139 277 1
(0.876335 0.0618324 8.36527e-17 0.0618324) 140 279 1
(0.781581 0.109209 0 0.109209) 141 281 1
(0.876477 0.0617614 9.63989e-17 0.0617614) 142 283 1
(0.781602 0.109199 1.22058e-16 0.109199) 143 285 1
(0.876477 0.0617614 1.50314e-18 0.0617614) 144 287 1
(0.87636 0.0618201 0.0618201 0) 145 289 2
(0.781581 0.109209 2.04392e-16 0.109209) 146 291 1
(0.682337 0.158831 6.32874e-17 0.158831) 147 293 1
(0.000132786 0.499934 1.18412e-17 0.499934) 150 7452 1
(2.78669e-05 0.499986 5.4818e-17 0.499986) 150 7452 1
(0.0913544 0.454323 2.76961e-16 0.454323) 151 300 1
(0.859836 0.0700818 0 0.0700818) 151 300 1
(0.875954 0.0620232 1.79132e-16 0.0620232) 152 302 1
(0.876387 0.0618063 1.21871e-17 0.0618063) 153 304 1
(0.781581 0.109209 8.62292e-17 0.109209) 154 306 1
(0.876477 0.0617614 0 0.0617614) 155 308 1
(0.87636 0.0618201 0 0.0618201) 156 310 1
(0.876335 0.0618324 1.60965e-16 0.0618324) 157 312 1
(0.876335 0.0618324 5.44615e-16 0.0618324) 158 314 1
(0.876335 0.0618324 9.23948e-17 0.0618324) 159 316 1
(0.876335 0.0618324 7.42285e-17 0.0618324) 160 318 1
(0.876335 0.0618324 2.1275e-16 0.0618324) 161 320 1
(0.781581 0.109209 1.13885e-16 0.109209) 162 322 1
(0.78172 0.10914 8.67362e-17 0.10914) 163 324 1
(0.781741 0.10913 8.67362e-17 0.10913) 164 326 1
(0.876502 0.0617491 8.67362e-17 0.0617491) 165 328 1
(0.781602 0.109199 1.34419e-16 0.109199) 166 330 1
(0.876477 0.0617614 1.73472e-16 0.0617614) 167 332 1
(0.87636 0.0618201 0.0618201 8.18117e-18) 168 334 2
(0.876335 0.0618324 0.0618324 1.73472e-16) 169 336 2
(0.781581 0.109209 1.5835e-16 0.109209) 170 338 1
(0.78172 0.10914 0 0.10914) 171 340 1
(0.876502 0.0617491 1.73472e-16 0.0617491) 172 342 1
(0.781602 0.109199 3.07891e-16 0.109199) 173 344 1
(0.876477 0.0617614 2.46519e-32 0.0617614) 174 346 1
(0.87636 0.0618201 4.74587e-17 0.0618201) 175 348 1
(0.876335 0.0618324 0 0.0618324) 176 350 1
(0.876335 0.0618324 1.2326e-32 0.0618324) 177 352 1
(0.876335 0.0618324 8.67362e-17 0.0618324) 178 354 1
(0.876335 0.0618324 5.17845e-16 0.0618324) 179 356 1
(0.876335 0.0618324 8.67362e-17 0.0618324) 180 358 1
(0.876335 0.0618324 3.8365e-16 0.0618324) 181 360 1
(0.876335 0.0618324 1.34195e-16 0.0618324) 182 362 1
(0.876335 0.0618324 3.69779e-32 0.0618324) 183 364 1
(0.781581 0.109209 0.109209 2.38435e-16) 184 366 2
(0.876477 0.0617614 3.68625e-16 0.0617614) 185 368 1
(0.87636 0.0618201 0.0618201 6.38453e-16) 186 370 2
(0.876335 0.0618324 6.49382e-16 0.0618324) 187 372 1
(0.781581 0.109209 0.109209 7.66034e-16) 188 374 2
(0.876477 0.0617614 0.0617614 0) 189 376 2
(0.87636 0.0618201 0 0.0618201) 190 378 1
(0.876335 0.0618324 1.89724e-16 0.0618324) 191 380 1
(0.876335 0.0618324 0 0.0618324) 192 382 1
(0.876335 0.0618324 1.2326e-32 0.0618324) 193 384 1
(0.876335 0.0618324 0 0.0618324) 194 386 1
(0.876335 0.0618324 1.2326e-32 0.0618324) 195 388 1
(0.876335 0.0618324 0 0.0618324) 196 390 1
(0.876335 0.0618324 1.10934e-31 0.0618324) 197 392 1
(0.876335 0.0618324 8.67362e-17 0.0618324) 198 394 1
(0.876335 0.0618324 7.68941e-18 0.0618324) 199 396 1
(0.876335 0.0618324 4.57879e-16 0.0618324) 200 398 1
(0.876335 0.0618324 1.34195e-16 0.0618324) 201 400 1
(0.876335 0.0618324 0 0.0618324) 202 402 1
(0.876335 0.0618324 0 0.0618324) 203 404 1
(0.781581 0.109209 2.46519e-32 0.109209) 204 406 1
(0.876477 0.0617614 8.67362e-17 0.0617614) 205 408 1
(0.87636 0.0618201 1.73472e-16 0.0618201) 206 410 1
(0.876335 0.0618324 9.44256e-17 0.0618324) 207 412 1
(0.876335 0.0618324 7.42285e-17 0.0618324) 208 414 1
(0.876335 0.0618324 1.73472e-16 0.0618324) 209 416 1
(0.876335 0.0618324 1.73472e-16 0.0618324) 210 418 1
(0.781581 0.109209 2.60209e-16 0.109209) 211 420 1
(0.876477 0.0617614 5.57171e-16 0.0617614) 212 422 1
(0.87636 0.0618201 0 0.0618201) 213 424 1
(0.876335 0.0618324 2.46519e-32 0.0618324) 214 426 1
(0.876335 0.0618324 1.84889e-31 0.0618324) 215 428 1
(0.876335 0.0618324 8.67362e-17 0.0618324) 216 430 1
(0.876335 0.0618324 4.74587e-17 0.0618324) 217 432 1
(0.781581 0.109209 0 0.109209) 218 434 1
(0.876477 0.0617614 0 0.0617614) 219 436 1
(0.87636 0.0618201 8.67362e-17 0.0618201) 220 438 1
(0.876335 0.0618324 1.83053e-16 0.0618324) 221 440 1
(0.876335 0.0618324 1.6129e-16 0.0618324) 222 442 1
(0.000132786 0.499934 0.499934 1.86789e-16) 225 7453 2
(2.78669e-05 0.499986 0.499986 7.78413e-17) 225 7453 2
(0.0913544 0.454323 1.25426e-16 0.454323) 226 449 1
(0.859836 0.0700818 6.52928e-16 0.0700818) 226 449 1
(0.875954 0.0620232 4.43028e-16 0.0620232) 227 451 1
(0.876387 0.0618063 1.05e-15 0.0618063) 228 453 1
(0.876335 0.0618324 0.0618324 8.67362e-17) 229 455 2
(0.876335 0.0618324 0.0618324 0) 230 457 2
(0.876335 0.0618324 0 0.0618324) 231 459 1
(0.876335 0.0618324 5.21354e-16 0.0618324) 232 461 1
(0.876335 0.0618324 2.46519e-32 0.0618324) 233 463 1
(0.781581 0.109209 2.46519e-32 0.109209) 234 465 1
(0.876477 0.0617614 8.67362e-17 0.0617614) 235 467 1
(0.781602 0.109199 8.67362e-17 0.109199) 236 469 1
(0.876477 0.0617614 8.67362e-17 0.0617614) 237 471 1
(0.87636 0.0618201 0.0618201 8.67362e-17) 238 473 2
(0.876335 0.0618324 2.7318e-16 0.0618324) 239 475 1
(0.876335 0.0618324 8.18026e-17 0.0618324) 240 477 1
(0.876335 0.0618324 8.67362e-17 0.0618324) 241 479 1
(0.876335 0.0618324 6.43859e-16 0.0618324) 242 481 1
(0.876335 0.0618324 5.44615e-16 0.0618324) 243 483 1
(0.876335 0.0618324 0.0618324 8.67362e-17) 244 485 2
(0.876335 0.0618324 5.37022e-16 0.0618324) 245 487 1
(0.876335 0.0618324 0 0.0618324) 246 489 1
(0.876335 0.0618324 0 0.0618324) 247 491 1
(0.876335 0.0618324 1.2326e-32 0.0618324) 248 493 1
(0.876335 0.0618324 3.5635e-16 0.0618324) 249 495 1
(0.876335 0.0618324 2.67716e-16 0.0618324) 250 497 1
(0.781581 0.109209 6.19543e-17 0.109209) 251 499 1
(0.876477 0.0617614 3.31926e-16 0.0617614) 252 501 1
(0.87636 0.0618201 2.84417e-16 0.0618201) 253 503 1
(0.876335 0.0618324 8.67362e-17 0.0618324) 254 505 1
(0.876335 0.0618324 0 0.0618324) 255 507 1
(0.876335 0.0618324 6.31351e-16 0.0618324) 256 509 1
(0.876335 0.0618324 1.34195e-16 0.0618324) 257 511 1
(0.876335 0.0618324 6.16298e-32 0.0618324) 258 513 1
(0.876335 0.0618324 8.67362e-17 0.0618324) 259 515 1
(0.876335 0.0618324 2.60209e-16 0.0618324) 260 517 1
(0.876335 0.0618324 2.60209e-16 0.0618324) 261 519 1
(0.781581 0.109209 2.67177e-16 0.109209) 262 521 1
(0.876477 0.0617614 8.67362e-17 0.0617614) 263 523 1
(0.781602 0.109199 5.9123e-16 0.109199) 264 525 1
(0.876477 0.0617614 0.0617614 1.36177e-16) 265 527 2
(0.87636 0.0618201 3.70459e-16 0.0618201) 266 529 1
(0.876335 0.0618324 0 0.0618324) 267 531 1
(0.876335 0.0618324 0 0.0618324) 268 533 1
(0.876335 0.0618324 0 0.0618324) 269 535 1
(0.876335 0.0618324 0 0.0618324) 270 537 1
(0.876335 0.0618324 0 0.0618324) 271 539 1
(0.876335 0.0618324 1.2326e-31 0.0618324) 272 541 1
(0.876335 0.0618324 1.34195e-16 0.0618324) 273 543 1
(0.876335 0.0618324 0 0.0618324) 274 545 1
(0.876335 0.0618324 4.57879e-16 0.0618324) 275 547 1
(0.876335 0.0618324 1.73472e-16 0.0618324) 276 549 1
(0.876335 0.0618324 8.67362e-17 0.0618324) 277 551 1
(0.876335 0.0618324 0 0.0618324) 278 553 1
(0.876335 0.0618324 0 0.0618324) 279 555 1
(0.876335 0.0618324 8.67362e-17 0.0618324) 280 557 1
(0.876335 0.0618324 0.0618324 8.67362e-17) 281 559 2
(0.876335 0.0618324 3.47948e-16 0.0618324) 282 561 1
(0.876335 0.0618324 0 0.0618324) 283 563 1
(0.876335 0.0618324 1.73472e-16 0.0618324) 284 565 1
(0.876335 0.0618324 1.73472e-16 0.0618324) 285 567 1
(0.781581 0.109209 1.35585e-31 0.109209) 286 569 1
(0.876477 0.0617614 6.31411e-16 0.0617614) 287 571 1
(0.87636 0.0618201 0 0.0618201) 288 573 1
(0.876335 0.0618324 0 0.0618324) 289 575 1
(0.876335 0.0618324 1.84889e-31 0.0618324) 290 577 1
(0.876335 0.0618324 8.67362e-17 0.0618324) 291 579 1
(0.876335 0.0618324 4.74587e-17 0.0618324) 292 581 1
(0.781581 0.109209 0 0.109209) 293 583 1
(0.682337 0.158831 8.67362e-17 0.158831) 294 585 1
(0.876803 0.0615987 1.2326e-32 0.0615987) 295 587 1
(0.876412 0.0617941 2.40821e-16 0.0617941) 296 589 1
(0.876335 0.0618324 1.46703e-16 0.0618324) 297 591 1
(0.000132786 0.499934 0.499934 5.08799e-16) 300 7454 2
(2.78669e-05 0.499986 0.499986 3.70861e-16) 300 7454 2
(0.0913544 0.454323 3.76186e-16 0.454323) 301 598 1
(0.859836 0.0700818 8.98072e-17 0.0700818) 301 598 1
(0.875954 0.0620232 1.0259e-15 0.0620232) 302 600 1
(0.876387 0.0618063 0 0.0618063) 303 602 1
(0.876335 0.0618324 1.5574e-15 0.0618324) 304 604 1
(0.876335 0.0618324 1.65639e-15 0.0618324) 305 606 1
(0.876335 0.0618324 7.38726e-16 0.0618324) 306 608 1
(0.876335 0.0618324 9.36675e-16 0.0618324) 307 610 1
(0.876335 0.0618324 0.0618324 1.21004e-16) 308 612 2
(0.781581 0.109209 0.109209 0) 309 614 2
(0.876477 0.0617614 0.0617614 9.89751e-16) 310 616 2
(0.682218 0.158891 0.158891 2.59484e-16) 311 618 2
(0.876778 0.061611 0.061611 3.35957e-16) 312 620 2
(0.876412 0.0617941 8.7498e-16 0.0617941) 313 622 1
(0.876335 0.0618324 1.01523e-15 0.0618324) 314 624 1
(0.876335 0.0618324 6.66543e-16 0.0618324) 315 626 1
(0.876335 0.0618324 9.38883e-16 0.0618324) 316 628 1
(0.876335 0.0618324 7.55102e-17 0.0618324) 317 630 1
(0.876335 0.0618324 9.94727e-17 0.0618324) 318 632 1
(0.876335 0.0618324 9.30395e-16 0.0618324) 319 634 1
(0.876335 0.0618324 7.45506e-16 0.0618324) 320 636 1
(0.876335 0.0618324 4.54107e-16 0.0618324) 321 638 1
(0.876335 0.0618324 1.65514e-15 0.0618324) 322 640 1
(0.876335 0.0618324 7.0582e-16 0.0618324) 323 642 1
(0.579065 0.210467 1.9895e-16 0.210467) 324 644 1
(0.877208 0.0613961 0 0.0613961) 325 646 1
(0.876486 0.0617569 6.92578e-16 0.0617569) 326 648 1
(0.682202 0.158899 1.63381e-16 0.158899) 327 650 1
(0.876778 0.061611 3.97263e-16 0.061611) 328 652 1
(0.876412 0.0617941 9.78479e-16 0.0617941) 329 654 1
(0.876335 0.0618324 8.27495e-16 0.0618324) 330 656 1
(0.876335 0.0618324 1.46019e-15 0.0618324) 331 658 1
(0.876335 0.0618324 7.67529e-16 0.0618324) 332 660 1
(0.876335 0.0618324 9.30395e-16 0.0618324) 333 662 1
(0.876335 0.0618324 5.64737e-16 0.0618324) 334 664 1
(0.876335 0.0618324 1.39341e-16 0.0618324) 335 666 1
(0.876335 0.0618324 1.07192e-15 0.0618324) 336 668 1
(0.876335 0.0618324 1.36142e-15 0.0618324) 337 670 1
(0.781581 0.109209 9.68883e-16 0.109209) 338 672 1
(0.876477 0.0617614 1.69177e-15 0.0617614) 339 674 1
(0.682218 0.158891 7.5201e-16 0.158891) 340 676 1
(0.876778 0.061611 3.99625e-16 0.061611) 341 678 1
(0.876412 0.0617941 7.26743e-16 0.0617941) 342 680 1
(0.876335 0.0618324 8.97373e-16 0.0618324) 343 682 1
(0.781581 0.109209 7.88795e-16 0.109209) 344 684 1
(0.682337 0.158831 1.23167e-15 0.158831) 345 686 1
(0.876803 0.0615987 8.08378e-16 0.0615987) 346 688 1
(0.682251 0.158874 5.08236e-16 0.158874) 347 690 1
(0.782015 0.108992 8.13547e-16 0.108992) 348 692 1
(0.876554 0.061723 9.75117e-16 0.061723) 349 694 1
(0.87636 0.0618201 2.91591e-16 0.0618201) 350 696 1
(0.876335 0.0618324 8.72921e-16 0.0618324) 351 698 1
(0.876335 0.0618324 9.60149e-16 0.0618324) 352 700 1
(0.876335 0.0618324 9.54001e-16 0.0618324) 353 702 1
(0.876335 0.0618324 9.59657e-16 0.0618324) 354 704 1
(0.876335 0.0618324 1.068e-15 0.0618324) 355 706 1
(0.876335 0.0618324 6.24468e-16 0.0618324) 356 708 1
(0.781581 0.109209 8.20508e-16 0.109209) 357 710 1
(0.876477 0.0617614 7.61243e-16 0.0617614) 358 712 1
(0.87636 0.0618201 6.91768e-16 0.0618201) 359 714 1
(0.876335 0.0618324 8.10637e-16 0.0618324) 360 716 1
(0.682202 0.158899 6.83724e-16 0.158899) 361 718 1
(0.876778 0.061611 1.33904e-15 0.061611) 362 720 1
(0.876412 0.0617941 7.67561e-16 0.0617941) 363 722 1
(0.876335 0.0618324 8.0779e-16 0.0618324) 364 724 1
(0.876335 0.0618324 5.08304e-16 0.0618324) 365 726 1
(0.876335 0.0618324 5.08304e-16 0.0618324) 366 728 1
(0.876335 0.0618324 5.08304e-16 0.0618324) 367 730 1
(0.876335 0.0618324 4.9307e-16 0.0618324) 368 732 1
(0.876335 0.0618324 7.07923e-16 0.0618324) 369 734 1
(0.876335 0.0618324 1.39941e-16 0.0618324) 370 736 1
(0.876335 0.0618324 7.38726e-16 0.0618324) 371 738 1
(0.876335 0.0618324 1.71404e-15 0.0618324) 372 740 1
(0.000132786 0.499934 0.499934 5.62531e-16) 375 7455 2
(2.78669e-05 0.499986 1.24362e-16 0.499986) 375 7455 1
(0.0913544 0.454323 4.44557e-16 0.454323) 376 747 1
(0.859836 0.0700818 0.0700818 2.06679e-16) 376 747 2
(0.875954 0.0620232 1.3863e-15 0.0620232) 377 749 1
(0.876387 0.0618063 3.36554e-16 0.0618063) 378 751 1
(0.876335 0.0618324 2.38932e-16 0.0618324) 379 753 1
(0.876335 0.0618324 4.47958e-16 0.0618324) 380 755 1
(0.781581 0.109209 1.70938e-16 0.109209) 381 757 1
(0.876477 0.0617614 9.96958e-16 0.0617614) 382 759 1
(0.87636 0.0618201 6.8302e-16 0.0618201) 383 761 1
(0.876335 0.0618324 0 0.0618324) 384 763 1
(0.876335 0.0618324 1.0427e-15 0.0618324) 385 765 1
(0.876335 0.0618324 1.0449e-15 0.0618324) 386 767 1
(0.876335 0.0618324 1.81729e-15 0.0618324) 387 769 1
(0.876335 0.0618324 0 0.0618324) 388 771 1
(0.876335 0.0618324 8.1896e-16 0.0618324) 389 773 1
(0.781581 0.109209 0 0.109209) 390 775 1
(0.876477 0.0617614 9.82322e-16 0.0617614) 391 777 1
(0.87636 0.0618201 1.02636e-16 0.0618201) 392 779 1
(0.876335 0.0618324 0.0618324 1.16305e-15) 393 781 2
(0.876335 0.0618324 0.0618324 4.3963e-16) 394 783 2
(0.876335 0.0618324 0 0.0618324) 395 785 1
(0.876335 0.0618324 0 0.0618324) 396 787 1
(0.876335 0.0618324 0 0.0618324) 397 789 1
(0.781581 0.109209 0.109209 2.44276e-16) 398 791 2
(0.876477 0.0617614 0 0.0617614) 399 793 1
(0.87636 0.0618201 0 0.0618201) 400 795 1
(0.876335 0.0618324 0.0618324 1.9767e-16) 401 797 2
(0.781581 0.109209 0 0.109209) 402 799 1
(0.876477 0.0617614 0 0.0617614) 403 801 1
(0.87636 0.0618201 6.63057e-16 0.0618201) 404 803 1
(0.876335 0.0618324 2.91515e-16 0.0618324) 405 805 1
(0.876335 0.0618324 1.24442e-16 0.0618324) 406 807 1
(0.876335 0.0618324 1.78349e-16 0.0618324) 407 809 1
(0.876335 0.0618324 0 0.0618324) 408 811 1
(0.876335 0.0618324 0.0618324 7.90593e-16) 409 813 2
(0.876335 0.0618324 1.66309e-15 0.0618324) 410 815 1
(0.876335 0.0618324 3.58275e-16 0.0618324) 411 817 1
(0.682202 0.158899 0 0.158899) 412 819 1
(0.782015 0.108992 0 0.108992) 413 821 1
(0.876554 0.061723 0.061723 3.66727e-16) 414 823 2
(0.781602 0.109199 8.97331e-16 0.109199) 415 825 1
(0.876477 0.0617614 0.0617614 5.96266e-16) 416 827 2
(0.87636 0.0618201 1.51058e-15 0.0618201) 417 829 1
(0.876335 0.0618324 0.0618324 1.33114e-15) 418 831 2
(0.876335 0.0618324 0.0618324 1.36325e-16) 419 833 2
(0.781581 0.109209 0.109209 8.06998e-16) 420 835 2
(0.876477 0.0617614 0.0617614 1.00225e-15) 421 837 2
(0.87636 0.0618201 0.0618201 9.15376e-16) 422 839 2
(0.876335 0.0618324 0 0.0618324) 423 841 1
(0.876335 0.0618324 0.0618324 9.52813e-16) 424 843 2
(0.876335 0.0618324 0.0618324 1.78888e-16) 425 845 2
(0.876335 0.0618324 0.0618324 1.00208e-15) 426 847 2
(0.876335 0.0618324 0.0618324 1.00208e-15) 427 849 2
(0.876335 0.0618324 1.41669e-16 0.0618324) 428 851 1
(0.876335 0.0618324 0 0.0618324) 429 853 1
(0.876335 0.0618324 8.59347e-16 0.0618324) 430 855 1
(0.876335 0.0618324 2.08136e-17 0.0618324) 431 857 1
(0.781581 0.109209 0.109209 7.08879e-16) 432 859 2
(0.876477 0.0617614 1.22978e-15 0.0617614) 433 861 1
(0.87636 0.0618201 0 0.0618201) 434 863 1
(0.876335 0.0618324 1.01559e-15 0.0618324) 435 865 1
(0.876335 0.0618324 6.86292e-16 0.0618324) 436 867 1
(0.876335 0.0618324 0 0.0618324) 437 869 1
(0.781581 0.109209 1.08111e-16 0.109209) 438 871 1
(0.876477 0.0617614 1.33454e-16 0.0617614) 439 873 1
(0.87636 0.0618201 0 0.0618201) 440 875 1
(0.876335 0.0618324 9.42342e-17 0.0618324) 441 877 1
(0.876335 0.0618324 1.44941e-16 0.0618324) 442 879 1
(0.876335 0.0618324 2.38486e-16 0.0618324) 443 881 1
(0.876335 0.0618324 4.44675e-16 0.0618324) 444 883 1
(0.876335 0.0618324 9.20476e-16 0.0618324) 445 885 1
(0.876335 0.0618324 8.05692e-17 0.0618324) 446 887 1
(0.876335 0.0618324 3.5495e-16 0.0618324) 447 889 1
(0.000132786 0.499934 9.91116e-18 0.499934) 450 7456 1
(2.78669e-05 0.499986 0.499986 2.94622e-16) 450 7456 2
(0.0913544 0.454323 5.89669e-16 0.454323) 451 896 1
(0.859836 0.0700818 1.64994e-15 0.0700818) 451 896 1
(0.875954 0.0620232 1.01503e-15 0.0620232) 452 898 1
(0.876387 0.0618063 2.68605e-16 0.0618063) 453 900 1
(0.876335 0.0618324 0.0618324 8.05692e-17) 454 902 2
(0.876335 0.0618324 1.55459e-15 0.0618324) 455 904 1
(0.876335 0.0618324 0.0618324 5.71452e-16) 456 906 2
(0.876335 0.0618324 0 0.0618324) 457 908 1
(0.876335 0.0618324 7.78036e-16 0.0618324) 458 910 1
(0.876335 0.0618324 1.0134e-15 0.0618324) 459 912 1
(0.876335 0.0618324 3.17127e-16 0.0618324) 460 914 1
(0.876335 0.0618324 1.38115e-15 0.0618324) 461 916 1
(0.876335 0.0618324 8.11711e-16 0.0618324) 462 918 1
(0.876335 0.0618324 9.49183e-16 0.0618324) 463 920 1
(0.876335 0.0618324 9.4624e-16 0.0618324) 464 922 1
(0.781581 0.109209 7.86236e-16 0.109209) 465 924 1
(0.682337 0.158831 1.2434e-15 0.158831) 466 926 1
(0.876803 0.0615987 1.16741e-15 0.0615987) 467 928 1
(0.876412 0.0617941 1.46905e-16 0.0617941) 468 930 1
(0.781581 0.109209 1.54311e-15 0.109209) 469 932 1
(0.78172 0.10914 1.60591e-15 0.10914) 470 934 1
(0.781741 0.10913 0 0.10913) 471 936 1
(0.876502 0.0617491 5.673e-16 0.0617491) 472 938 1
(0.87636 0.0618201 3.48396e-16 0.0618201) 473 940 1
(0.876335 0.0618324 2.29132e-15 0.0618324) 474 942 1
(0.876335 0.0618324 0 0.0618324) 475 944 1
(0.876335 0.0618324 1.52491e-15 0.0618324) 476 946 1
(0.682202 0.158899 1.38104e-15 0.158899) 477 948 1
(0.782015 0.108992 1.33542e-15 0.108992) 478 950 1
(0.876554 0.061723 2.27369e-15 0.061723) 479 952 1
(0.87636 0.0618201 5.32275e-16 0.0618201) 480 954 1
(0.876335 0.0618324 2.32234e-15 0.0618324) 481 956 1
(0.876335 0.0618324 1.58005e-15 0.0618324) 482 958 1
(0.876335 0.0618324 1.6591e-15 0.0618324) 483 960 1
(0.876335 0.0618324 1.07856e-15 0.0618324) 484 962 1
(0.876335 0.0618324 2.19523e-15 0.0618324) 485 964 1
(0.876335 0.0618324 0 0.0618324) 486 966 1
(0.781581 0.109209 5.13933e-16 0.109209) 487 968 1
(0.876477 0.0617614 9.27825e-16 0.0617614) 488 970 1
(0.781602 0.109199 0.109199 4.29522e-16) 489 972 2
(0.78172 0.10914 1.60699e-15 0.10914) 490 974 1
(0.876502 0.0617491 0 0.0617491) 491 976 1
(0.87636 0.0618201 1.55619e-15 0.0618201) 492 978 1
(0.876335 0.0618324 0.0618324 4.40717e-17) 493 980 2
(0.876335 0.0618324 0.0618324 0) 494 982 2
(0.781581 0.109209 0.109209 8.06998e-16) 495 984 2
(0.876477 0.0617614 0.0617614 1.00225e-15) 496 986 2
(0.87636 0.0618201 0.0618201 9.15376e-16) 497 988 2
(0.781581 0.109209 2.60111e-16 0.109209) 498 990 1
(0.876477 0.0617614 0.0617614 1.25791e-15) 499 992 2
(0.87636 0.0618201 1.12417e-15 0.0618201) 500 994 1
(0.876335 0.0618324 0.0618324 1.00208e-15) 501 996 2
(0.876335 0.0618324 0.0618324 1.00208e-15) 502 998 2
(0.876335 0.0618324 1.41669e-16 0.0618324) 503 1000 1
(0.876335 0.0618324 0.0618324 5.09368e-16) 504 1002 2
(0.876335 0.0618324 2.2943e-15 0.0618324) 505 1004 1
(0.876335 0.0618324 0 0.0618324) 506 1006 1
(0.876335 0.0618324 1.01099e-15 0.0618324) 507 1008 1
(0.781581 0.109209 7.42808e-16 0.109209) 508 1010 1
(0.876477 0.0617614 0 0.0617614) 509 1012 1
(0.87636 0.0618201 8.62457e-16 0.0618201) 510 1014 1
(0.876335 0.0618324 1.61982e-15 0.0618324) 511 1016 1
(0.781581 0.109209 8.78625e-16 0.109209) 512 1018 1
(0.682337 0.158831 1.27911e-15 0.158831) 513 1020 1
(0.68264 0.15868 1.18403e-15 0.15868) 514 1022 1
(0.876855 0.0615726 1.58074e-15 0.0615726) 515 1024 1
(0.876412 0.0617941 1.58015e-15 0.0617941) 516 1026 1
(0.876335 0.0618324 1.52491e-15 0.0618324) 517 1028 1
(0.682202 0.158899 1.20459e-15 0.158899) 518 1030 1
(0.876778 0.061611 1.40717e-15 0.061611) 519 1032 1
(0.876412 0.0617941 9.16978e-16 0.0617941) 520 1034 1
(0.781581 0.109209 1.18775e-15 0.109209) 521 1036 1
(0.876477 0.0617614 1.3718e-15 0.0617614) 522 1038 1
(0.000132786 0.499934 0.499934 3.85954e-16) 525 7457 2
(2.78669e-05 0.499986 0.499986 1.11843e-15) 525 7457 2
(0.0913544 0.454323 0.454323 0) 526 1045 2
(0.859836 0.0700818 0.0700818 0) 526 1045 2
(0.875954 0.0620232 0 0.0620232) 527 1047 1
(0.876387 0.0618063 0.0618063 1.45647e-15) 528 1049 2
(0.876335 0.0618324 0.0618324 0) 529 1051 2
(0.781581 0.109209 0.109209 0) 530 1053 2
(0.876477 0.0617614 0 0.0617614) 531 1055 1
(0.87636 0.0618201 0 0.0618201) 532 1057 1
(0.876335 0.0618324 0.0618324 5.93414e-16) 533 1059 2
(0.876335 0.0618324 6.13838e-16 0.0618324) 534 1061 1
(0.876335 0.0618324 0 0.0618324) 535 1063 1
(0.876335 0.0618324 0 0.0618324) 536 1065 1
(0.876335 0.0618324 9.6787e-16 0.0618324) 537 1067 1
(0.876335 0.0618324 9.51476e-16 0.0618324) 538 1069 1
(0.876335 0.0618324 4.40058e-16 0.0618324) 539 1071 1
(0.876335 0.0618324 0.0618324 8.18026e-17) 540 1073 2
(0.876335 0.0618324 1.07227e-15 0.0618324) 541 1075 1
(0.876335 0.0618324 0.0618324 1.05918e-15) 542 1077 2
(0.781581 0.109209 2.40636e-17 0.109209) 543 1079 1
(0.876477 0.0617614 0.0617614 1.25012e-16) 544 1081 2
(0.781602 0.109199 5.70571e-16 0.109199) 545 1083 1
(0.876477 0.0617614 0.0617614 2.26397e-15) 546 1085 2
(0.87636 0.0618201 0.0618201 1.07634e-15) 547 1087 2
(0.876335 0.0618324 0.0618324 9.02841e-16) 548 1089 2
(0.781581 0.109209 0 0.109209) 549 1091 1
(0.876477 0.0617614 0.0617614 6.70574e-16) 550 1093 2
(0.87636 0.0618201 0.0618201 8.17943e-17) 551 1095 2
(0.876335 0.0618324 0.0618324 4.41256e-16) 552 1097 2
(0.876335 0.0618324 0 0.0618324) 553 1099 1
(0.876335 0.0618324 7.7668e-16 0.0618324) 554 1101 1
(0.876335 0.0618324 0 0.0618324) 555 1103 1
(0.682202 0.158899 2.39625e-16 0.158899) 556 1105 1
(0.876778 0.061611 9.91391e-16 0.061611) 557 1107 1
(0.876412 0.0617941 9.2755e-16 0.0617941) 558 1109 1
(0.876335 0.0618324 8.72921e-16 0.0618324) 559 1111 1
(0.876335 0.0618324 2.85407e-16 0.0618324) 560 1113 1
(0.876335 0.0618324 8.80123e-16 0.0618324) 561 1115 1
(0.876335 0.0618324 9.51289e-16 0.0618324) 562 1117 1
(0.781581 0.109209 0 0.109209) 563 1119 1
(0.876477 0.0617614 7.77757e-16 0.0617614) 564 1121 1
(0.87636 0.0618201 0 0.0618201) 565 1123 1
(0.876335 0.0618324 1.23825e-15 0.0618324) 566 1125 1
(0.876335 0.0618324 1.60281e-16 0.0618324) 567 1127 1
(0.781581 0.109209 2.40636e-17 0.109209) 568 1129 1
(0.876477 0.0617614 6.183e-16 0.0617614) 569 1131 1
(0.87636 0.0618201 9.59174e-16 0.0618201) 570 1133 1
(0.876335 0.0618324 4.86207e-16 0.0618324) 571 1135 1
(0.682202 0.158899 3.34747e-16 0.158899) 572 1137 1
(0.876778 0.061611 8.27645e-16 0.061611) 573 1139 1
(0.876412 0.0617941 9.51994e-16 0.0617941) 574 1141 1
(0.876335 0.0618324 9.86427e-16 0.0618324) 575 1143 1
(0.876335 0.0618324 9.59657e-16 0.0618324) 576 1145 1
(0.876335 0.0618324 7.85693e-16 0.0618324) 577 1147 1
(0.876335 0.0618324 7.39218e-16 0.0618324) 578 1149 1
(0.876335 0.0618324 7.85693e-16 0.0618324) 579 1151 1
(0.876335 0.0618324 9.1269e-16 0.0618324) 580 1153 1