/*--------------------------------*- C++ -*----------------------------------*\
  =========                 |
  \\      /  F ield         | OpenFOAM: The Open Source CFD Toolbox
   \\    /   O peration     | Website:  https://openfoam.org
    \\  /    A nd           | Version:  12
     \\/     M anipulation  |
\*---------------------------------------------------------------------------*/
FoamFile
{
    format      ascii;
    class       volVectorField::Internal;
    location    "0.25";
    object      cloud:UTrans;
}
// * * * * * * * * * * * * * * * * * * * * * * * * * * * * * * * * * * * * * //

dimensions      [1 1 -1 0 0 0 0];

value           nonuniform List<vector> 
3750
(
(7.36771e-09 2.86728e-08 0)
(2.71149e-09 -8.65911e-09 0)
(1.4791e-10 -6.65e-10 0)
(7.67499e-11 -4.05354e-09 0)
(-1.12184e-10 -2.48045e-09 0)
(0 0 0)
(3.82077e-11 -2.06236e-09 0)
(-2.81487e-11 -2.23021e-09 0)
(0 0 0)
(7.77661e-11 -2.33826e-09 0)
(7.90453e-11 -2.10569e-09 0)
(2.26291e-11 -4.71402e-09 0)
(1.02139e-10 -1.96391e-09 0)
(6.52697e-11 -2.44201e-09 0)
(0 0 0)
(5.19897e-11 -2.31606e-09 0)
(-3.71086e-11 -2.27181e-09 0)
(3.35383e-11 -2.20639e-09 0)
(-9.33595e-11 -5.4182e-09 0)
(8.24329e-12 -2.03976e-09 0)
(-9.0018e-11 -2.08273e-09 0)
(4.59228e-11 -2.5969e-09 0)
(3.73152e-11 -2.27373e-09 0)
(0 0 0)
(-5.21426e-11 -2.44385e-09 0)
(0 0 0)
(1.27183e-11 -5.34742e-09 0)
(2.28408e-11 -2.04608e-09 0)
(8.80989e-12 -2.52591e-09 0)
(-1.54986e-10 -5.26613e-09 0)
(4.82564e-11 -2.13642e-09 0)
(-8.67304e-11 -2.20892e-09 0)
(0 0 0)
(2.35472e-11 -2.29142e-09 0)
(-2.57061e-11 -2.29506e-09 0)
(2.47711e-12 -2.1816e-09 0)
(4.57591e-11 -2.16909e-09 0)
(-1.19264e-11 -1.93783e-09 0)
(-3.31791e-11 -2.05986e-09 0)
(-3.83904e-11 -2.47183e-09 0)
(8.82066e-12 -2.4639e-09 0)
(0 0 0)
(2.28757e-11 -2.35632e-09 0)
(5.40966e-12 -2.34068e-09 0)
(-4.94873e-11 -4.2827e-09 0)
(0 0 0)
(-5.38878e-11 -2.22291e-09 0)
(-1.74818e-10 -2.30923e-09 0)
(8.28868e-11 -5.89901e-09 0)
(2.72005e-11 -4.08965e-09 0)
(2.17235e-10 -1.94436e-09 0)
(4.14034e-11 -1.76799e-09 0)
(5.64869e-11 -2.39864e-09 0)
(0 0 0)
(3.28564e-11 -2.27491e-09 0)
(-4.11864e-11 -2.0931e-09 0)
(7.10692e-12 -5.21801e-10 0)
(-2.84747e-11 -3.03319e-09 0)
(1.18759e-11 -2.00263e-09 0)
(-1.31044e-10 -2.05296e-09 0)
(-5.76541e-11 -4.62827e-09 0)
(-3.20032e-11 -2.39995e-09 0)
(5.55319e-11 -4.66465e-09 0)
(0 0 0)
(9.67331e-11 -1.90795e-09 0)
(1.95637e-11 -2.31499e-09 0)
(2.23939e-10 -2.14101e-09 0)
(3.46317e-10 -2.30824e-09 0)
(1.82975e-10 -2.23618e-09 0)
(4.57182e-11 -2.1967e-09 0)
(5.01955e-11 -2.19648e-09 0)
(2.67439e-11 -2.40001e-09 0)
(-1.59564e-10 -4.85408e-09 0)
(-1.3801e-11 -1.99613e-09 0)
(-1.42321e-10 -2.1671e-09 0)
(8.18954e-09 4.71393e-08 0)
(-2.24395e-10 -8.65115e-09 0)
(-4.79633e-11 -1.55262e-09 0)
(-1.342e-10 -2.07197e-09 0)
(-5.65082e-13 -9.95896e-11 0)
(1.75367e-11 -3.2093e-09 0)
(2.04336e-10 -7.65126e-09 0)
(8.533e-11 -2.36952e-09 0)
(0 0 0)
(0 0 0)
(5.48321e-11 -1.99143e-09 0)
(1.2894e-10 -4.94608e-09 0)
(-2.42536e-10 -1.95858e-09 0)
(1.32283e-10 -2.16591e-09 0)
(4.98347e-11 -2.27254e-09 0)
(-3.06087e-11 -2.08867e-09 0)
(0 0 0)
(1.65688e-11 -1.99427e-09 0)
(-1.30059e-11 -2.05156e-09 0)
(3.16531e-11 -2.10259e-09 0)
(-3.20074e-11 -2.14861e-09 0)
(-1.21941e-10 -2.30197e-09 0)
(-1.66084e-10 -5.00619e-09 0)
(-3.63261e-11 -4.06961e-09 0)
(4.49506e-11 -2.13406e-09 0)
(-9.45665e-11 -2.09524e-09 0)
(0 0 0)
(1.0745e-12 -2.32251e-09 0)
(-8.34727e-12 -3.39059e-10 0)
(-4.28776e-11 -1.37775e-09 0)
(-6.74629e-10 -4.66684e-09 0)
(-4.61369e-11 -3.04791e-09 0)
(3.04051e-11 -3.44678e-09 0)
(1.8314e-11 -2.76211e-09 0)
(-2.78085e-11 -2.16239e-09 0)
(0 0 0)
(0 0 0)
(-3.95997e-11 -2.10996e-09 0)
(-1.12839e-10 -2.10013e-09 0)
(-2.50471e-11 -5.798e-09 0)
(2.91385e-11 -1.20851e-09 0)
(-8.22913e-11 -2.05079e-09 0)
(0 0 0)
(6.4947e-11 -2.24293e-09 0)
(6.39748e-12 -2.08134e-09 0)
(0 0 0)
(0 0 0)
(0 0 0)
(0 0 0)
(-1.0057e-10 -4.89022e-09 0)
(3.16495e-11 -2.10545e-09 0)
(4.20608e-11 -2.31359e-09 0)
(-5.65832e-11 -5.16249e-09 0)
(1.43157e-10 -2.18237e-09 0)
(-3.9785e-11 -2.27483e-09 0)
(3.92711e-11 -1.63e-09 0)
(1.41612e-10 -1.61808e-09 0)
(8.62889e-11 -1.93689e-09 0)
(-5.84013e-12 -2.11539e-09 0)
(0 0 0)
(2.59481e-10 -2.23955e-09 0)
(8.74073e-11 -2.77168e-09 0)
(-1.58297e-10 -4.96336e-09 0)
(7.97859e-11 -2.149e-09 0)
(2.65076e-10 -1.91011e-09 0)
(0 0 0)
(1.00196e-10 -6.17738e-09 0)
(-9.39763e-11 -3.43302e-09 0)
(1.78213e-11 -2.18641e-09 0)
(0 0 0)
(1.21152e-10 -2.21178e-09 0)
(0 0 0)
(-2.7082e-11 -1.86141e-09 0)
(-6.35271e-11 -2.09498e-09 0)
(-3.27436e-10 -4.62777e-09 0)
(5.84504e-09 4.36607e-08 0)
(-1.74366e-10 -2.10633e-09 0)
(8.31301e-11 -1.96153e-09 0)
(-2.94827e-11 -2.22672e-09 0)
(-1.44703e-10 -1.77848e-09 0)
(-8.73311e-11 -1.96108e-09 0)
(-5.0629e-11 -1.87264e-09 0)
(1.28689e-11 -2.34586e-09 0)
(-9.9799e-11 -2.17336e-09 0)
(0 0 0)
(1.39393e-10 -2.24736e-09 0)
(2.06989e-10 -1.66333e-09 0)
(6.21165e-11 -1.56586e-09 0)
(-3.15133e-11 -2.62685e-09 0)
(-5.20779e-11 -2.24048e-09 0)
(-5.36387e-11 -2.01084e-09 0)
(-1.13263e-10 -2.19033e-09 0)
(-1.28576e-10 -3.84403e-09 0)
(-3.81124e-11 -2.47838e-09 0)
(-2.68364e-10 -4.05384e-09 0)
(-2.26043e-10 -2.00948e-09 0)
(-2.34126e-10 -2.66867e-09 0)
(-1.95949e-10 -1.66144e-09 0)
(3.99239e-11 -1.97514e-09 0)
(-2.61854e-11 -2.09142e-09 0)
(1.01358e-10 -1.96994e-09 0)
(7.56439e-11 -2.19416e-09 0)
(2.28228e-11 -2.0274e-09 0)
(-8.55977e-11 -2.25167e-09 0)
(-1.80863e-10 -2.19769e-09 0)
(-1.65271e-10 -2.10678e-09 0)
(-1.91204e-10 -1.61492e-09 0)
(-1.58995e-11 -1.85737e-09 0)
(1.39187e-12 -4.23944e-09 0)
(-4.00934e-12 -2.00948e-09 0)
(1.09556e-10 -4.16583e-09 0)
(-5.5036e-11 -4.39325e-09 0)
(5.68722e-12 -2.01769e-09 0)
(-1.46291e-10 -2.10972e-09 0)
(-2.45036e-11 -2.09463e-09 0)
(4.47971e-11 -1.89571e-09 0)
(-7.46399e-11 -1.84619e-09 0)
(1.70752e-10 -5.72206e-09 0)
(1.02492e-11 -2.29599e-09 0)
(2.6516e-10 -1.88422e-09 0)
(4.33773e-10 -4.42403e-09 0)
(8.34671e-11 -1.9493e-09 0)
(-1.86251e-10 -1.92351e-09 0)
(1.10252e-10 -5.4892e-09 0)
(-1.02444e-10 -5.28248e-09 0)
(-3.86594e-11 -2.17024e-09 0)
(-1.91075e-10 -2.35872e-09 0)
(-1.51008e-10 -2.40316e-09 0)
(1.35873e-10 -2.43344e-09 0)
(1.97353e-10 -3.19907e-09 0)
(5.02707e-11 -3.54647e-09 0)
(5.71531e-11 -1.82043e-09 0)
(2.75601e-12 -1.06468e-09 0)
(1.26717e-13 -1.79714e-10 0)
(-2.1398e-11 -2.22673e-09 0)
(-1.92574e-10 -2.07976e-09 0)
(-3.22476e-11 -2.16222e-09 0)
(1.32544e-11 -2.19856e-09 0)
(-1.2951e-10 -2.24136e-09 0)
(-9.76996e-11 -2.11672e-09 0)
(3.68604e-11 -2.10401e-09 0)
(1.16349e-10 -2.28793e-09 0)
(-2.03275e-10 -2.22404e-09 0)
(-1.30171e-10 -2.00766e-09 0)
(9.35825e-11 -2.04143e-09 0)
(1.12451e-10 -2.1892e-09 0)
(1.1574e-10 -2.22065e-09 0)
(-3.5603e-12 -2.2452e-09 0)
(2.11794e-10 -1.9447e-09 0)
(-1.62197e-11 -2.11591e-09 0)
(7.96241e-09 5.39855e-08 0)
(7.59862e-10 -4.19391e-09 0)
(-1.17452e-10 -2.30126e-09 0)
(-2.32898e-10 -1.99165e-09 0)
(2.48438e-11 -2.09503e-09 0)
(-5.77498e-12 -1.9357e-09 0)
(-3.69761e-11 -2.11995e-09 0)
(-1.30171e-11 -2.2097e-09 0)
(8.79942e-11 -2.19755e-09 0)
(2.96511e-11 -2.11157e-09 0)
(1.88081e-10 -2.0621e-09 0)
(7.62195e-11 -2.46751e-09 0)
(-1.07712e-11 -2.43271e-09 0)
(4.50546e-11 -2.1455e-09 0)
(-2.09683e-12 -1.88339e-09 0)
(-8.53436e-11 -2.55423e-09 0)
(-2.17012e-10 -4.24764e-09 0)
(1.7357e-10 -1.92006e-09 0)
(-5.1963e-11 -2.07445e-09 0)
(-4.53301e-11 -3.81842e-09 0)
(-1.17432e-10 -2.92538e-09 0)
(-1.45639e-11 -4.51321e-10 0)
(-4.85088e-11 -1.40044e-09 0)
(7.02544e-12 -2.38275e-09 0)
(5.98217e-11 -3.46733e-09 0)
(-4.41729e-11 -3.25513e-09 0)
(2.78889e-11 -1.94432e-09 0)
(-1.1905e-10 -2.11434e-09 0)
(-1.77573e-10 -2.07086e-09 0)
(-1.06284e-10 -4.64562e-09 0)
(-1.28875e-10 -3.45919e-09 0)
(1.02171e-11 -2.39945e-09 0)
(9.00717e-11 -2.05957e-09 0)
(0 0 0)
(5.45093e-11 -1.99761e-09 0)
(6.02294e-11 -2.15586e-09 0)
(-7.89351e-11 -1.94794e-09 0)
(1.7934e-10 -4.17173e-09 0)
(1.28845e-11 -2.11484e-09 0)
(1.43414e-11 -2.06576e-09 0)
(-1.6296e-11 -2.10686e-09 0)
(-3.51383e-11 -2.0049e-09 0)
(-4.53183e-11 -2.27949e-09 0)
(6.62507e-11 -2.28704e-09 0)
(2.89796e-10 -2.13231e-09 0)
(1.27857e-10 -1.90372e-09 0)
(1.4869e-10 -1.84925e-09 0)
(0 0 0)
(-7.37663e-12 -2.08447e-09 0)
(3.03648e-11 -2.15995e-09 0)
(-3.36664e-10 -3.5781e-09 0)
(-3.3936e-10 -3.554e-09 0)
(-2.49612e-11 -2.28172e-09 0)
(1.42067e-10 -2.14752e-09 0)
(5.3476e-11 -2.03633e-09 0)
(-3.72504e-11 -1.68118e-09 0)
(1.44179e-10 -2.02722e-09 0)
(-4.65182e-11 -2.03553e-09 0)
(-1.62293e-11 -2.09497e-09 0)
(0 0 0)
(1.15764e-10 -2.41039e-09 0)
(6.5887e-11 -2.13774e-09 0)
(2.12942e-10 -5.05035e-09 0)
(-8.82436e-11 -1.99338e-09 0)
(-1.24353e-10 -1.9126e-09 0)
(-1.08768e-10 -2.12103e-09 0)
(-6.25471e-11 -2.60753e-09 0)
(-6.32012e-11 -2.22808e-09 0)
(1.01756e-11 -2.1373e-09 0)
(2.05041e-11 -9.64345e-10 0)
(1.68717e-11 -6.65144e-10 0)
(5.85644e-11 -2.20616e-09 0)
(4.41481e-11 -2.24183e-09 0)
(1.10084e-10 -4.71579e-09 0)
(1.19749e-11 -2.03543e-09 0)
(5.13872e-09 5.42614e-08 0)
(-4.40766e-10 -3.64618e-09 0)
(3.91551e-11 -1.80119e-09 0)
(2.68052e-11 -1.85162e-09 0)
(1.24283e-10 -4.23126e-09 0)
(1.60983e-11 -2.77097e-10 0)
(2.94204e-10 -3.84484e-09 0)
(1.3732e-10 -2.0244e-09 0)
(7.5714e-11 -2.12501e-09 0)
(1.95614e-11 -2.24597e-09 0)
(-6.58927e-11 -2.13019e-09 0)
(8.44267e-11 -2.31801e-09 0)
(1.32292e-10 -2.39712e-09 0)
(1.75287e-10 -2.43305e-09 0)
(0 0 0)
(0 0 0)
(0 0 0)
(-1.25375e-10 -2.19917e-09 0)
(-2.16763e-10 -2.09535e-09 0)
(7.03937e-11 -2.85849e-09 0)
(4.10331e-11 -1.46528e-09 0)
(4.35405e-11 -2.01848e-09 0)
(5.58987e-11 -2.12732e-09 0)
(3.48937e-11 -2.24034e-09 0)
(-6.34288e-11 -2.30047e-09 0)
(-3.98553e-11 -6.55934e-10 0)
(-1.05565e-10 -3.88548e-09 0)
(-2.2749e-10 -2.12249e-09 0)
(-2.05656e-10 -3.56185e-09 0)
(-4.30977e-12 -1.9046e-10 0)
(0 0 0)
(0 0 0)
(-7.05087e-11 -2.54167e-09 0)
(3.10727e-11 -2.26484e-09 0)
(6.61119e-11 -1.61834e-09 0)
(2.02622e-10 -2.17377e-09 0)
(6.97115e-11 -2.06891e-09 0)
(2.39781e-10 -1.96744e-09 0)
(1.53105e-10 -1.98256e-09 0)
(1.06223e-11 -1.94054e-09 0)
(3.28823e-11 -2.16663e-09 0)
(1.3771e-10 -2.46733e-09 0)
(3.39849e-10 -2.30469e-09 0)
(7.4931e-11 -2.18374e-09 0)
(2.3361e-10 -2.20029e-09 0)
(1.98919e-10 -2.23129e-09 0)
(3.68248e-12 -2.4931e-10 0)
(1.40031e-12 -1.84661e-09 0)
(-6.98753e-12 -2.065e-09 0)
(-3.77216e-11 -2.04841e-09 0)
(-2.74048e-10 -5.31741e-09 0)
(-1.62017e-10 -2.10369e-09 0)
(-7.83138e-12 -2.09022e-09 0)
(1.44835e-10 -2.17317e-09 0)
(1.75374e-10 -2.12797e-09 0)
(1.7948e-10 -2.02154e-09 0)
(1.38167e-10 -2.30907e-09 0)
(-2.11243e-11 -3.10729e-09 0)
(1.49877e-11 -2.40642e-09 0)
(4.9029e-12 -2.41347e-10 0)
(6.06971e-11 -1.49199e-09 0)
(-5.83441e-11 -1.76955e-09 0)
(7.93101e-11 -3.99866e-09 0)
(1.12628e-11 -2.42369e-09 0)
(-1.29598e-10 -2.02884e-09 0)
(0 0 0)
(-1.48222e-10 -2.33518e-09 0)
(2.48201e-11 -2.27155e-09 0)
(5.80044e-11 -2.1376e-09 0)
(-6.98638e-12 -2.09259e-09 0)
(-2.15809e-11 -2.25316e-09 0)
(2.64142e-11 -4.95585e-09 0)
(1.01699e-10 -1.96805e-09 0)
(1.44906e-10 -2.16865e-09 0)
(1.09055e-10 -2.14245e-09 0)
(6.03705e-09 5.374e-08 0)
(1.57313e-10 1.72777e-09 0)
(1.50502e-10 -2.55493e-09 0)
(1.4032e-10 -2.07638e-09 0)
(0 0 0)
(2.1149e-11 -2.07557e-09 0)
(1.66547e-10 -2.62781e-09 0)
(1.00945e-10 -1.72969e-09 0)
(2.56106e-10 -4.37607e-09 0)
(2.47649e-12 -4.61279e-09 0)
(-4.02824e-11 -9.15489e-10 0)
(1.20449e-10 -2.21588e-09 0)
(1.60941e-10 -2.36918e-09 0)
(0 0 0)
(1.96411e-10 -2.29753e-09 0)
(9.85033e-11 -2.18063e-09 0)
(-4.87697e-10 -5.54669e-09 0)
(0 0 0)
(0 0 0)
(0 0 0)
(-3.10792e-12 -2.26694e-09 0)
(2.82822e-11 -2.33055e-09 0)
(6.86443e-11 -2.22027e-09 0)
(-8.46462e-11 -2.09832e-09 0)
(-5.35276e-12 -3.33623e-10 0)
(-3.12201e-11 -1.50207e-09 0)
(5.70804e-12 -2.23871e-09 0)
(1.37315e-10 -2.319e-09 0)
(1.42511e-10 -2.01448e-09 0)
(3.21774e-11 -2.00944e-09 0)
(8.92221e-11 -4.84933e-09 0)
(-5.63864e-11 -1.98186e-09 0)
(-1.57902e-10 -2.21271e-09 0)
(-7.64082e-11 -2.01868e-09 0)
(1.5176e-10 -2.0216e-09 0)
(6.69333e-11 -1.63638e-09 0)
(-1.21556e-10 -2.05549e-09 0)
(1.27194e-11 -1.9088e-09 0)
(8.97646e-11 -1.96487e-09 0)
(-1.90706e-11 -2.30492e-09 0)
(-3.78951e-11 -2.11265e-09 0)
(1.26355e-10 -1.9796e-09 0)
(1.87579e-10 -2.2594e-09 0)
(6.34267e-12 -1.98085e-09 0)
(2.45032e-10 -1.93246e-09 0)
(3.70437e-10 -4.99677e-09 0)
(4.41249e-10 -5.73779e-09 0)
(1.20124e-11 -1.88479e-10 0)
(1.17194e-10 -3.02662e-09 0)
(-2.52535e-10 -3.45131e-09 0)
(-1.52177e-10 -1.9987e-09 0)
(-1.12549e-10 -2.06545e-09 0)
(2.22654e-11 -2.08808e-09 0)
(3.55943e-11 -2.2036e-09 0)
(3.31194e-11 -2.22849e-09 0)
(-1.27545e-11 -2.03582e-09 0)
(-1.40605e-11 -5.2284e-09 0)
(-4.39503e-13 -1.99298e-09 0)
(-3.17545e-11 -1.98928e-09 0)
(-2.88572e-11 -2.14307e-09 0)
(-7.05449e-11 -2.49047e-09 0)
(-4.01502e-11 -2.2183e-09 0)
(-8.70955e-11 -2.14121e-09 0)
(-2.11458e-11 -2.24066e-09 0)
(-1.50093e-11 -8.73508e-10 0)
(-1.13032e-10 -3.27446e-09 0)
(1.49289e-12 -1.15905e-09 0)
(1.46455e-11 -1.39366e-09 0)
(1.58802e-11 -1.21038e-09 0)
(-4.69412e-11 -1.89779e-09 0)
(-4.1981e-11 -4.97428e-09 0)
(1.28265e-10 -2.00537e-09 0)
(3.49106e-10 -2.10739e-09 0)
(-2.4169e-11 -1.98667e-09 0)
(1.08072e-10 -2.06057e-09 0)
(8.35059e-09 4.10744e-08 0)
(2.40475e-10 -5.90792e-10 0)
(2.18968e-10 -4.5744e-09 0)
(2.0811e-10 -4.13e-09 0)
(1.97404e-10 -4.35849e-09 0)
(0 0 0)
(0 0 0)
(1.70267e-10 -4.17111e-09 0)
(7.14328e-12 -1.26287e-10 0)
(-5.44019e-12 -3.18718e-10 0)
(5.34604e-11 -2.10226e-09 0)
(5.69289e-11 -2.05895e-09 0)
(0 0 0)
(1.57116e-10 -2.3909e-09 0)
(-3.72935e-11 -2.19e-09 0)
(-1.96556e-10 -5.81822e-09 0)
(-2.06487e-10 -2.20772e-09 0)
(-8.90378e-11 -2.01739e-09 0)
(-2.25166e-10 -2.02565e-09 0)
(-1.59875e-11 -2.03549e-09 0)
(-2.05974e-10 -2.01765e-09 0)
(-2.72077e-10 -2.26739e-09 0)
(-1.72269e-10 -5.39296e-09 0)
(1.92834e-11 -2.15852e-09 0)
(3.28762e-11 -2.18236e-09 0)
(1.42553e-10 -2.0966e-09 0)
(9.84896e-11 -2.09951e-09 0)
(4.83053e-11 -2.17301e-09 0)
(7.5272e-11 -2.33808e-09 0)
(-2.80183e-11 -4.73868e-10 0)
(-1.42404e-10 -2.8642e-09 0)
(-5.84939e-11 -3.80097e-09 0)
(-1.09707e-10 -1.99132e-09 0)
(-7.25444e-11 -1.82099e-09 0)
(3.63469e-11 -1.96878e-09 0)
(1.40034e-10 -2.32277e-09 0)
(3.52987e-10 -2.85107e-09 0)
(1.10521e-10 -1.55992e-09 0)
(0 0 0)
(2.15403e-12 -8.36511e-11 0)
(1.54237e-10 -3.78824e-09 0)
(6.19402e-11 -1.36953e-09 0)
(5.18549e-11 -1.29851e-09 0)
(1.0346e-10 -2.25682e-09 0)
(8.97027e-11 -4.42355e-09 0)
(-1.95984e-10 -2.07937e-09 0)
(-6.34634e-11 -2.63293e-09 0)
(1.50102e-10 -2.46481e-09 0)
(0 0 0)
(0 0 0)
(3.39976e-11 -2.12541e-09 0)
(-7.99405e-12 -3.83744e-09 0)
(7.30509e-14 -5.97589e-10 0)
(-3.77435e-16 -1.76564e-09 0)
(-8.63879e-11 -2.3676e-09 0)
(-1.1441e-11 -2.14548e-09 0)
(-2.15098e-10 -2.96591e-09 0)
(-8.4508e-12 -1.77025e-09 0)
(-4.48398e-11 -2.41121e-09 0)
(-1.75246e-10 -4.36756e-09 0)
(-1.02998e-11 -2.48598e-09 0)
(4.24401e-11 -2.30264e-09 0)
(2.78268e-11 -1.16085e-09 0)
(1.03827e-12 -4.56981e-11 0)
(-2.16829e-11 -2.32373e-09 0)
(-6.32644e-11 -2.0827e-09 0)
(1.60618e-10 -2.39433e-09 0)
(1.26106e-10 -2.1008e-09 0)
(-1.0101e-11 -1.89393e-09 0)
(4.76523e-11 -1.9159e-09 0)
(-1.3155e-11 -2.20922e-09 0)
(1.92883e-11 -2.40892e-09 0)
(2.18572e-10 -5.33663e-09 0)
(-9.68891e-11 -2.16665e-09 0)
(-1.66585e-10 -2.46908e-09 0)
(1.09765e-08 6.76704e-08 0)
(7.09061e-10 -7.73852e-10 0)
(1.69186e-10 -2.07646e-09 0)
(2.4587e-11 -1.98423e-09 0)
(2.83312e-10 -1.77199e-09 0)
(3.44429e-10 -1.981e-09 0)
(3.26074e-10 -2.11693e-09 0)
(9.75875e-11 -2.21197e-09 0)
(1.83577e-10 -3.45989e-09 0)
(-2.97624e-11 -4.62824e-09 0)
(-4.61544e-11 -2.09832e-09 0)
(-1.6181e-11 -2.1612e-09 0)
(3.53495e-10 -4.85538e-09 0)
(-4.58514e-11 -3.01004e-09 0)
(-1.8162e-11 -1.37566e-09 0)
(-2.79139e-10 -2.38848e-09 0)
(-2.62127e-11 -2.14344e-09 0)
(-1.61789e-10 -1.81224e-09 0)
(0 0 0)
(-2.90228e-10 -4.30175e-09 0)
(-1.40612e-10 -2.03136e-09 0)
(-5.35609e-11 -2.13258e-09 0)
(-1.5651e-10 -2.31771e-09 0)
(-2.75705e-11 -5.47056e-09 0)
(1.31716e-10 -2.03797e-09 0)
(9.68633e-11 -1.97336e-09 0)
(7.95298e-11 -2.34018e-09 0)
(0 0 0)
(6.2108e-11 -2.09908e-09 0)
(-4.33416e-11 -9.93366e-10 0)
(-2.16846e-11 -4.29279e-10 0)
(-6.78915e-11 -4.90317e-09 0)
(3.79744e-11 -2.19056e-09 0)
(-2.39159e-11 -1.76788e-09 0)
(-7.56522e-12 -1.82183e-09 0)
(0 0 0)
(0 0 0)
(5.0945e-11 -2.34006e-09 0)
(2.10288e-10 -2.10703e-09 0)
(8.74626e-11 -4.75739e-09 0)
(6.43534e-11 -1.96197e-09 0)
(4.4015e-11 -2.08894e-09 0)
(-7.96461e-11 -2.03108e-09 0)
(4.91298e-11 -2.24557e-09 0)
(5.92118e-11 -2.22173e-09 0)
(-8.11258e-11 -2.22755e-09 0)
(-1.53963e-10 -2.23426e-09 0)
(0 0 0)
(3.15805e-10 -2.34896e-09 0)
(1.98307e-10 -2.21879e-09 0)
(1.68162e-10 -1.97108e-09 0)
(5.49779e-11 -1.99175e-09 0)
(-8.41008e-11 -2.27805e-09 0)
(-1.35154e-11 -2.70999e-09 0)
(0 0 0)
(3.04569e-11 -2.19527e-09 0)
(4.04136e-11 -2.17254e-09 0)
(8.72662e-11 -2.20829e-09 0)
(-1.04443e-10 -2.14336e-09 0)
(-2.02963e-10 -2.12567e-09 0)
(-9.50495e-11 -2.20368e-09 0)
(3.70127e-11 -2.14585e-09 0)
(-8.42764e-12 -2.25335e-09 0)
(1.7195e-11 -2.13817e-09 0)
(-1.36557e-10 -2.15754e-09 0)
(-8.23009e-11 -1.8893e-09 0)
(-9.70561e-11 -1.95424e-09 0)
(9.6923e-12 -2.10293e-09 0)
(1.45939e-10 -2.58084e-09 0)
(1.76874e-10 -4.3426e-09 0)
(8.66272e-12 -2.05361e-09 0)
(-1.29304e-11 -2.16464e-09 0)
(2.98196e-11 -2.49871e-09 0)
(-1.34303e-10 -2.44907e-09 0)
(-4.37555e-11 -7.42975e-10 0)
(9.37618e-09 5.24079e-08 0)
(-5.05195e-10 -1.94578e-09 0)
(0 0 0)
(2.18402e-10 -2.29829e-09 0)
(1.35562e-10 -1.7231e-09 0)
(1.32432e-10 -1.93201e-09 0)
(3.01197e-10 -5.24609e-09 0)
(2.44855e-11 -2.04629e-09 0)
(3.21324e-11 -1.89028e-09 0)
(1.0506e-10 -1.78757e-09 0)
(-1.95419e-11 -2.20192e-09 0)
(-1.17459e-10 -2.00133e-09 0)
(-5.51501e-11 -2.39627e-09 0)
(4.44053e-11 -1.0791e-09 0)
(1.48175e-10 -4.30137e-09 0)
(2.51902e-10 -3.71414e-09 0)
(2.54436e-10 -4.20591e-09 0)
(4.91006e-11 -3.78697e-09 0)
(-4.7009e-11 -3.96581e-09 0)
(-4.88937e-11 -2.13595e-09 0)
(0 0 0)
(-2.66387e-10 -2.08027e-09 0)
(-3.31548e-10 -2.37397e-09 0)
(-1.46523e-10 -1.88599e-09 0)
(6.57269e-12 -1.76203e-09 0)
(5.10651e-11 -1.79217e-09 0)
(2.1516e-11 -6.9063e-10 0)
(4.47669e-11 -1.04289e-09 0)
(1.1024e-10 -2.3445e-09 0)
(5.98485e-12 -3.11375e-10 0)
(3.40755e-11 -1.88666e-09 0)
(0 0 0)
(0 0 0)
(0 0 0)
(0 0 0)
(1.06588e-10 -1.98394e-09 0)
(5.62182e-12 -4.8088e-09 0)
(-2.91024e-10 -1.90483e-09 0)
(-1.59621e-11 -2.11296e-09 0)
(-3.74617e-11 -2.0982e-09 0)
(-1.91542e-11 -2.07657e-09 0)
(3.42431e-12 -2.76558e-09 0)
(-6.46094e-12 -1.51761e-09 0)
(4.23577e-11 -3.37264e-09 0)
(-7.68079e-12 -4.06465e-09 0)
(-9.52288e-11 -2.09011e-09 0)
(-7.55455e-11 -2.1202e-09 0)
(1.44925e-11 -2.22889e-09 0)
(7.30118e-11 -2.17514e-09 0)
(2.33871e-10 -2.12605e-09 0)
(1.92712e-10 -2.31609e-09 0)
(6.67582e-11 -2.03372e-09 0)
(-1.19956e-11 -2.30928e-09 0)
(-1.02968e-10 -2.5342e-09 0)
(0 0 0)
(1.84582e-10 -2.23181e-09 0)
(1.64597e-10 -2.225e-09 0)
(3.8266e-11 -1.36481e-09 0)
(2.89468e-13 -1.16411e-11 0)
(1.1211e-11 -2.20343e-09 0)
(-2.24431e-10 -2.19107e-09 0)
(-2.338e-10 -2.19455e-09 0)
(-1.67001e-10 -2.38485e-09 0)
(-2.0386e-10 -5.36901e-09 0)
(-2.00445e-10 -2.02094e-09 0)
(-8.27205e-11 -1.8925e-09 0)
(-7.55635e-11 -1.87471e-09 0)
(-6.86247e-11 -1.97012e-09 0)
(-3.54674e-11 -2.13236e-09 0)
(7.22126e-11 -2.15037e-09 0)
(1.74293e-10 -5.15878e-09 0)
(0 0 0)
(-4.66069e-11 -2.09475e-09 0)
(-5.26681e-11 -2.5993e-09 0)
(-8.48035e-11 -2.16504e-09 0)
(7.6034e-09 5.2761e-08 0)
(0 0 0)
(2.87633e-10 -1.77491e-09 0)
(1.61986e-10 -2.34263e-09 0)
(3.23886e-10 -3.93241e-09 0)
(2.07596e-11 -1.90749e-09 0)
(-4.80158e-11 -2.16424e-09 0)
(1.10552e-11 -2.17822e-09 0)
(2.46186e-11 -2.21917e-09 0)
(3.21099e-10 -5.58058e-09 0)
(0 0 0)
(3.82963e-11 -2.06515e-09 0)
(2.61803e-11 -2.09036e-09 0)
(8.07106e-11 -2.412e-09 0)
(-1.20409e-11 -2.35973e-09 0)
(6.5251e-11 -2.24093e-09 0)
(8.59973e-11 -2.20225e-09 0)
(2.39287e-11 -2.0609e-09 0)
(-1.05565e-10 -2.05363e-09 0)
(-7.52989e-11 -2.07067e-09 0)
(-2.39344e-11 -1.89128e-09 0)
(-1.37998e-10 -2.24565e-09 0)
(-1.62688e-10 -2.35681e-09 0)
(-1.05613e-10 -2.10178e-09 0)
(0 0 0)
(-2.75046e-11 -1.93632e-09 0)
(-1.17312e-10 -2.12381e-09 0)
(1.59837e-10 -4.65917e-09 0)
(2.42207e-10 -2.16195e-09 0)
(1.97892e-10 -2.54339e-09 0)
(1.43082e-10 -2.42504e-09 0)
(7.16758e-11 -2.37272e-09 0)
(1.37962e-10 -1.94521e-09 0)
(1.24103e-10 -1.75521e-09 0)
(4.28295e-11 -4.59088e-09 0)
(2.30285e-10 -1.96761e-09 0)
(-1.10653e-11 -1.09804e-09 0)
(-3.70567e-12 -3.11475e-10 0)
(3.63857e-11 -2.03999e-09 0)
(4.4332e-11 -2.17036e-09 0)
(-2.4103e-11 -2.13274e-09 0)
(-2.12007e-11 -2.1469e-09 0)
(1.13196e-10 -3.97862e-09 0)
(-8.17458e-11 -3.02389e-09 0)
(-1.17969e-10 -2.17164e-09 0)
(0 0 0)
(0 0 0)
(-7.28419e-11 -2.14091e-09 0)
(-7.08471e-11 -2.09722e-09 0)
(8.947e-11 -2.11537e-09 0)
(6.62394e-11 -2.04221e-09 0)
(-5.10425e-11 -2.04177e-09 0)
(-1.48061e-10 -2.21255e-09 0)
(-4.52516e-11 -2.56416e-09 0)
(0 0 0)
(1.85315e-11 -2.22988e-09 0)
(5.85428e-11 -1.97615e-09 0)
(2.47706e-11 -2.47467e-09 0)
(1.29296e-10 -2.46984e-09 0)
(2.03558e-11 -5.68399e-10 0)
(3.97244e-11 -1.04072e-09 0)
(-5.65967e-12 -2.10193e-09 0)
(2.10505e-11 -2.2531e-09 0)
(-1.08427e-10 -2.29649e-09 0)
(-1.19902e-10 -3.23647e-09 0)
(-2.22665e-10 -3.35353e-09 0)
(-9.79058e-11 -1.96465e-09 0)
(-1.20279e-10 -1.92793e-09 0)
(-4.13355e-11 -2.13205e-09 0)
(-1.8972e-11 -2.17154e-09 0)
(-2.62451e-11 -1.74065e-09 0)
(4.84715e-11 -1.8074e-09 0)
(1.70826e-11 -2.53483e-09 0)
(5.42537e-11 -2.86612e-09 0)
(6.56133e-12 -3.04366e-10 0)
(3.45877e-09 4.3046e-08 0)
(1.12458e-10 -3.9925e-09 0)
(5.64715e-10 -1.61507e-09 0)
(1.72199e-10 -2.04086e-09 0)
(6.63601e-11 -2.00463e-09 0)
(7.94872e-14 -1.97765e-09 0)
(5.36468e-11 -2.01354e-09 0)
(0 0 0)
(-2.90336e-11 -2.17099e-09 0)
(-1.42543e-10 -2.34034e-09 0)
(2.32908e-11 -2.25023e-09 0)
(-1.58916e-11 -1.98742e-09 0)
(-5.92864e-11 -2.25079e-09 0)
(-3.08432e-11 -2.28061e-09 0)
(1.0246e-11 -8.01715e-10 0)
(1.22491e-11 -8.13082e-10 0)
(1.90356e-11 -2.20701e-09 0)
(-1.37879e-11 -2.15938e-09 0)
(-4.84858e-11 -2.08562e-09 0)
(-9.17535e-11 -4.27902e-09 0)
(1.01743e-11 -2.37339e-09 0)
(-3.52933e-11 -2.26595e-09 0)
(-4.56964e-11 -2.29106e-09 0)
(2.64348e-11 -2.28151e-09 0)
(1.18286e-10 -2.09654e-09 0)
(2.74385e-11 -2.11456e-09 0)
(7.16132e-11 -2.13682e-09 0)
(0 0 0)
(5.96038e-11 -2.47899e-09 0)
(6.38514e-11 -2.28765e-09 0)
(1.81655e-10 -2.23243e-09 0)
(1.34541e-10 -2.27121e-09 0)
(2.51996e-10 -4.97437e-09 0)
(3.89633e-12 -1.88034e-09 0)
(-1.26747e-10 -1.99715e-09 0)
(-2.12252e-10 -1.89909e-09 0)
(-5.31942e-11 -2.16131e-09 0)
(-4.50903e-12 -1.10755e-09 0)
(1.64039e-11 -2.37161e-09 0)
(3.13987e-11 -1.99481e-09 0)
(4.74181e-11 -2.00688e-09 0)
(3.685e-11 -2.10091e-09 0)
(8.19091e-12 -2.21051e-09 0)
(-2.45353e-11 -2.35368e-09 0)
(-1.13478e-10 -2.3283e-09 0)
(-6.11943e-11 -2.35481e-09 0)
(-4.26014e-11 -2.22343e-09 0)
(-1.41147e-10 -2.10182e-09 0)
(-1.50544e-10 -1.9802e-09 0)
(2.58534e-11 -3.60875e-09 0)
(1.27956e-11 -3.44489e-09 0)
(-1.30844e-11 -4.08601e-10 0)
(-5.14598e-11 -1.48889e-09 0)
(-1.43947e-10 -2.32286e-09 0)
(2.12452e-11 -2.31835e-09 0)
(1.58386e-10 -2.14703e-09 0)
(1.39288e-10 -2.14537e-09 0)
(-4.34962e-11 -2.34071e-09 0)
(7.09253e-11 -2.25788e-09 0)
(1.75021e-10 -2.18621e-09 0)
(5.3296e-11 -2.17079e-09 0)
(-2.05269e-10 -4.02146e-09 0)
(-2.27713e-10 -3.0361e-09 0)
(0 0 0)
(6.17909e-12 -2.10763e-09 0)
(-6.81305e-11 -2.12954e-09 0)
(7.04768e-12 -2.12905e-09 0)
(1.68981e-10 -1.99369e-09 0)
(-8.46825e-12 -1.88761e-09 0)
(-1.40509e-11 -2.24575e-09 0)
(2.03054e-11 -1.97545e-09 0)
(-8.8639e-12 -1.96254e-09 0)
(1.65037e-11 -2.71868e-09 0)
(8.74628e-11 -2.87249e-09 0)
(3.06396e-10 -2.38004e-09 0)
(-1.48328e-09 4.78921e-08 0)
(3.32961e-10 -8.15898e-10 0)
(2.03901e-10 -1.55264e-09 0)
(1.18465e-10 -2.12444e-09 0)
(1.12357e-10 -1.99889e-09 0)
(3.82234e-11 -2.04051e-09 0)
(2.11623e-10 -2.23474e-09 0)
(8.7266e-11 -5.3364e-09 0)
(-1.91752e-11 -2.53186e-09 0)
(-7.00831e-11 -2.18929e-09 0)
(4.63192e-11 -2.134e-09 0)
(-6.24392e-11 -2.3861e-09 0)
(-6.12446e-11 -2.44851e-09 0)
(5.84701e-12 -2.68551e-10 0)
(9.6177e-11 -2.95392e-09 0)
(4.8861e-11 -1.85267e-09 0)
(1.37767e-11 -1.51282e-09 0)
(-6.46649e-12 -1.84084e-09 0)
(-1.18713e-10 -2.14199e-09 0)
(-1.62345e-10 -2.10636e-09 0)
(-2.02167e-10 -2.63347e-09 0)
(-1.48092e-10 -4.42956e-09 0)
(-1.02778e-11 -2.23974e-09 0)
(9.3866e-12 -4.1521e-10 0)
(1.07759e-10 -4.11394e-09 0)
(5.26252e-11 -2.01367e-09 0)
(1.3693e-10 -1.97485e-09 0)
(5.15964e-11 -2.05553e-09 0)
(9.11568e-11 -2.0728e-09 0)
(8.65505e-11 -2.17083e-09 0)
(7.50543e-11 -5.55895e-09 0)
(7.26244e-11 -2.16538e-09 0)
(1.22603e-10 -1.9604e-09 0)
(9.34289e-11 -1.95635e-09 0)
(8.5926e-11 -2.02615e-09 0)
(-1.15064e-10 -2.115e-09 0)
(-6.48078e-11 -2.12541e-09 0)
(1.24153e-10 -1.92532e-09 0)
(1.32302e-10 -1.96273e-09 0)
(9.08716e-11 -2.01808e-09 0)
(2.41305e-11 -2.02089e-09 0)
(1.80081e-11 -3.31054e-09 0)
(-1.90186e-11 -3.69986e-09 0)
(-7.28365e-11 -2.29247e-09 0)
(0 0 0)
(-4.85256e-11 -2.27304e-09 0)
(6.36057e-12 -1.86804e-09 0)
(-8.10389e-11 -4.38745e-09 0)
(1.86768e-11 -4.22529e-09 0)
(0 0 0)
(1.70813e-11 -2.18993e-09 0)
(-2.33806e-11 -2.40399e-09 0)
(-1.00251e-10 -2.57645e-09 0)
(2.49967e-11 -1.01563e-09 0)
(1.45086e-11 -4.72367e-10 0)
(9.35171e-11 -3.52689e-09 0)
(1.48212e-10 -2.73442e-09 0)
(3.95626e-11 -2.03573e-09 0)
(6.13376e-11 -2.36685e-09 0)
(5.73655e-11 -2.24892e-09 0)
(-3.52706e-11 -2.3945e-09 0)
(-1.77197e-10 -4.23478e-09 0)
(-2.89329e-12 -5.11091e-11 0)
(-1.0249e-10 -2.16274e-09 0)
(1.12746e-10 -2.17608e-09 0)
(-4.11629e-11 -2.2227e-09 0)
(-6.59582e-11 -1.80461e-09 0)
(1.37632e-10 -2.06471e-09 0)
(1.58205e-12 -1.97606e-09 0)
(8.52769e-13 -2.06405e-09 0)
(2.88414e-11 -2.03407e-09 0)
(-6.93607e-11 -2.07951e-09 0)
(-2.43031e-10 -2.25216e-09 0)
(-1.61353e-10 -2.31151e-09 0)
(1.37433e-10 -5.501e-09 0)
(8.89462e-09 4.05311e-08 0)
(6.19682e-10 -4.27728e-09 0)
(1.02821e-11 -1.95174e-09 0)
(6.35088e-11 -2.03088e-09 0)
(9.73886e-11 -2.13379e-09 0)
(9.00411e-11 -2.20183e-09 0)
(2.16977e-11 -2.14889e-09 0)
(-3.54974e-11 -2.35e-09 0)
(3.42636e-11 -2.33925e-09 0)
(2.10967e-10 -2.10618e-09 0)
(1.16415e-11 -9.58783e-10 0)
(-3.96102e-11 -3.35801e-09 0)
(6.69865e-12 -2.19833e-09 0)
(5.26421e-11 -2.1687e-09 0)
(1.06669e-10 -2.265e-09 0)
(4.87386e-11 -2.18975e-09 0)
(3.8855e-11 -2.08745e-09 0)
(1.4101e-11 -2.13777e-09 0)
(-1.51108e-11 -8.53314e-10 0)
(-1.61569e-11 -7.01389e-10 0)
(-5.95162e-11 -2.19608e-09 0)
(-3.4791e-10 -2.33804e-09 0)
(-1.70318e-10 -2.24145e-09 0)
(3.36018e-11 -2.11766e-09 0)
(1.58317e-10 -1.91289e-09 0)
(2.77648e-10 -1.96111e-09 0)
(2.14878e-10 -5.11241e-09 0)
(-2.88875e-11 -1.97239e-09 0)
(-2.60405e-10 -2.49554e-09 0)
(-1.5688e-11 -2.45698e-09 0)
(-5.72354e-11 -2.21637e-09 0)
(2.24153e-10 -2.29042e-09 0)
(1.60057e-10 -2.06968e-09 0)
(1.0327e-10 -2.19275e-09 0)
(2.80839e-11 -2.05059e-09 0)
(2.04873e-11 -2.87435e-09 0)
(-1.95481e-11 -3.84122e-09 0)
(1.89296e-10 -2.0001e-09 0)
(7.6388e-11 -1.957e-09 0)
(1.02923e-11 -2.03269e-09 0)
(-6.49628e-11 -2.05487e-09 0)
(-1.18826e-10 -2.10784e-09 0)
(-1.1479e-10 -2.27998e-09 0)
(-9.83593e-11 -2.35544e-09 0)
(1.09928e-10 -2.32764e-09 0)
(2.53732e-10 -4.56376e-09 0)
(8.89717e-11 -1.94253e-09 0)
(1.40513e-11 -2.03504e-09 0)
(1.57309e-11 -1.94473e-09 0)
(-3.59936e-11 -2.03914e-09 0)
(-7.33296e-11 -2.2477e-09 0)
(-1.53579e-11 -1.88661e-09 0)
(2.74693e-11 -2.43035e-09 0)
(7.30219e-11 -2.32279e-09 0)
(4.46163e-11 -4.51685e-09 0)
(4.00947e-11 -2.64305e-09 0)
(-4.70278e-11 -1.33098e-09 0)
(-4.03227e-11 -2.6582e-09 0)
(5.85428e-11 -3.40728e-09 0)
(-5.94891e-12 -3.12835e-09 0)
(-4.4938e-11 -2.25095e-09 0)
(-7.27261e-11 -2.37397e-09 0)
(-6.78351e-11 -2.1106e-09 0)
(-8.44461e-11 -1.89856e-09 0)
(-3.11477e-11 -2.28172e-09 0)
(1.77672e-11 -1.96513e-09 0)
(-1.18095e-11 -1.75892e-09 0)
(1.15344e-10 -2.00287e-09 0)
(1.51077e-11 -2.0037e-09 0)
(6.16355e-11 -2.14111e-09 0)
(-8.72049e-11 -2.05599e-09 0)
(6.88048e-11 -2.19664e-09 0)
(-2.49048e-11 -2.23074e-09 0)
(-7.80489e-11 -2.3242e-09 0)
(-4.35072e-11 -2.2351e-09 0)
(1.00024e-08 5.48671e-08 0)
(3.33583e-10 -4.11007e-09 0)
(1.39405e-11 -2.89951e-10 0)
(7.6149e-11 -1.27922e-09 0)
(2.07242e-10 -2.16828e-09 0)
(7.00494e-11 -2.27492e-09 0)
(-9.61675e-11 -2.11062e-09 0)
(-1.12999e-10 -2.2073e-09 0)
(-3.82403e-12 -2.24944e-09 0)
(1.53912e-10 -2.15373e-09 0)
(2.35761e-10 -2.36869e-09 0)
(-1.31407e-10 -2.41204e-09 0)
(-4.82111e-11 -2.26451e-09 0)
(-3.70523e-11 -5.45316e-09 0)
(1.99232e-10 -2.36452e-09 0)
(0 0 0)
(9.72899e-11 -2.01538e-09 0)
(1.25745e-10 -2.1234e-09 0)
(1.79929e-10 -2.25952e-09 0)
(-2.14591e-12 -9.54131e-10 0)
(-5.73458e-11 -1.51642e-09 0)
(1.18113e-10 -3.1428e-09 0)
(-4.82173e-11 -2.15736e-09 0)
(-1.28689e-11 -1.92346e-09 0)
(4.09097e-11 -2.19768e-09 0)
(1.68675e-10 -2.16746e-09 0)
(-1.94072e-11 -2.50491e-09 0)
(9.74345e-11 -2.39007e-09 0)
(-3.70063e-10 -2.13799e-09 0)
(-4.20623e-11 -2.17674e-09 0)
(1.20234e-11 -2.05572e-09 0)
(2.59691e-10 -2.25727e-09 0)
(1.7277e-10 -2.2778e-09 0)
(1.37626e-10 -2.13321e-09 0)
(1.68362e-10 -2.03017e-09 0)
(6.27702e-12 -2.10619e-09 0)
(-7.30593e-12 -4.26076e-09 0)
(8.60715e-11 -2.42914e-09 0)
(-3.33837e-11 -1.93796e-09 0)
(-8.76636e-11 -2.08334e-09 0)
(-1.40752e-10 -2.05536e-09 0)
(-1.15778e-10 -2.12311e-09 0)
(-9.02514e-12 -2.45374e-09 0)
(0 0 0)
(6.90538e-11 -2.19782e-09 0)
(2.07664e-10 -2.1862e-09 0)
(-1.01836e-10 -2.17927e-09 0)
(-5.69036e-11 -2.15407e-09 0)
(-4.69038e-12 -2.1649e-09 0)
(-2.71819e-11 -2.06888e-09 0)
(0 0 0)
(9.45925e-11 -2.5211e-09 0)
(7.83726e-11 -1.27901e-09 0)
(5.72993e-12 -8.70193e-11 0)
(0 0 0)
(-2.08266e-11 -5.16303e-09 0)
(7.18658e-11 -2.2172e-09 0)
(1.09452e-12 -1.90789e-09 0)
(-9.93001e-11 -2.34644e-09 0)
(5.71673e-11 -2.56441e-09 0)
(1.13906e-11 -2.57158e-09 0)
(4.10431e-11 -2.44996e-09 0)
(0 0 0)
(-6.02248e-11 -2.143e-09 0)
(-1.20697e-10 -2.24496e-09 0)
(8.68056e-12 -2.09e-09 0)
(-1.03528e-10 -2.09747e-09 0)
(-1.61513e-11 -2.02635e-09 0)
(3.25648e-11 -4.5785e-09 0)
(-1.25673e-11 -2.24988e-09 0)
(-1.245e-10 -2.16124e-09 0)
(-8.62338e-11 -2.4085e-09 0)
(-6.78151e-11 -2.23186e-09 0)
(-1.4545e-11 -2.43049e-09 0)
(-4.53671e-11 -1.8258e-09 0)
(1.36387e-08 4.52115e-08 0)
(2.47221e-10 -4.06075e-09 0)
(2.14953e-10 -1.63785e-09 0)
(1.07311e-10 -2.13949e-09 0)
(1.08329e-10 -2.07517e-09 0)
(4.12694e-11 -2.07294e-09 0)
(-2.85301e-11 -2.28478e-09 0)
(-4.94648e-11 -2.16227e-09 0)
(-4.77654e-11 -2.23899e-09 0)