/*--------------------------------*- C++ -*----------------------------------*\
  =========                 |
  \\      /  F ield         | OpenFOAM: The Open Source CFD Toolbox
   \\    /   O peration     | Website:  https://openfoam.org
    \\  /    A nd           | Version:  12
     \\/     M anipulation  |
\*---------------------------------------------------------------------------*/
FoamFile
{
    format      ascii;
    class       volScalarField;
    location    "0.25";
    object      p;
}
// * * * * * * * * * * * * * * * * * * * * * * * * * * * * * * * * * * * * * //

dimensions      [0 2 -2 0 0 0 0];

internalField   nonuniform List<scalar> 
3750
(
1.4604
1.4478
1.44481
1.42747
1.41883
1.41453
1.40306
1.39397
1.38275
1.37277
1.36318
1.354
1.3443
1.33587
1.32839
1.31952
1.30994
1.29987
1.28922
1.27857
1.26777
1.25656
1.24599
1.23894
1.22858
1.21562
1.20382
1.20246
1.19055
1.17671
1.17483
1.16289
1.14959
1.13675
1.12472
1.11516
1.10567
1.09628
1.08663
1.07713
1.06879
1.05561
1.04703
1.03951
1.03257
1.01944
1.01089
1.00246
0.994823
0.980085
0.97372
0.95942
0.953291
0.948961
0.941971
0.931555
0.916777
0.900258
0.887097
0.878722
0.869952
0.861114
0.842463
0.843028
0.833189
0.823452
0.813959
0.803169
0.794189
0.783651
0.774407
0.765697
0.757227
0.744105
0.735868
1.46139
1.44249
1.44514
1.43288
1.42557
1.41303
1.39776
1.39349
1.38326
1.37245
1.36261
1.35328
1.34411
1.33614
1.32877
1.32011
1.31043
1.30033
1.28922
1.27892
1.26772
1.25598
1.24454
1.24015
1.23069
1.2148
1.20603
1.19973
1.19236
1.17847
1.17207
1.16355
1.14893
1.13444
1.12353
1.11511
1.1058
1.09653
1.08678
1.07797
1.06665
1.05585
1.04592
1.03896
1.0324
1.02122
1.01089
1.00149
0.992283
0.981371
0.972135
0.960842
0.952609
0.950306
0.94295
0.929909
0.914905
0.901304
0.888412
0.878814
0.869893
0.861861
0.846573
0.84126
0.832554
0.823154
0.81531
0.801563
0.794046
0.782652
0.773882
0.765419
0.756841
0.74501
0.735952
1.4631
1.45081
1.44391
1.43723
1.42598
1.41338
1.40051
1.38966
1.38492
1.37129
1.36148
1.35077
1.34358
1.33712
1.33053
1.32171
1.31124
1.30172
1.2877
1.28001
1.26811
1.25741
1.24405
1.23871
1.22883
1.21651
1.20612
1.19897
1.19099
1.18112
1.17145
1.16017
1.14804
1.13536
1.12465
1.11492
1.10568
1.09618
1.08674
1.07785
1.06482
1.05457
1.04261
1.03797
1.03313
1.02248
1.01013
1.00047
0.991387
0.98189
0.971631
0.960674
0.953986
0.949758
0.944823
0.928221
0.915697
0.903097
0.887697
0.878364
0.869024
0.860394
0.849679
0.842358
0.831896
0.821051
0.812279
0.804488
0.794107
0.782628
0.7731
0.764979
0.757201
0.745776
0.736207
1.45884
1.44859
1.44583
1.43702
1.42632
1.4149
1.4022
1.39105
1.38278
1.37156
1.36138
1.34695
1.34252
1.33736
1.33335
1.32422
1.31019
1.29935
1.29007
1.28188
1.26389
1.26106
1.24555
1.24024
1.22887
1.21474
1.20365
1.19911
1.19151
1.18224
1.17255
1.15772
1.14797
1.13496
1.12486
1.11552
1.10598
1.09589
1.08598
1.07707
1.06518
1.05507
1.04472
1.0372
1.0292
1.02002
1.01019
1.00072
0.991799
0.983686
0.970724
0.957338
0.953571
0.947987
0.943789
0.928149
0.91691
0.903591
0.890236
0.87856
0.869444
0.860491
0.849972
0.845291
0.831735
0.818397
0.810029
0.806705
0.794315
0.783799
0.770863
0.764151
0.756415
0.74733
0.736672
1.46022
1.44838
1.4419
1.4374
1.42703
1.41782
1.40241
1.39238
1.38213
1.37173
1.36033
1.34945
1.34241
1.3363
1.32976
1.32049
1.30988
1.30057
1.29091
1.28213
1.26697
1.25539
1.24624
1.23856
1.22952
1.21663
1.20131
1.20094
1.19306
1.17863
1.16895
1.15982
1.15147
1.13745
1.12416
1.11607
1.10668
1.09551
1.08565
1.07487
1.06511
1.05494
1.04504
1.03686
1.02707
1.01705
1.0099
1.0006
0.991492
0.980556
0.970208
0.96675
0.955054
0.945139
0.938848
0.927906
0.918962
0.906392
0.891138
0.876254
0.869859
0.861893
0.853926
0.840969
0.83138
0.817631
0.811735
0.804062
0.792569
0.781672
0.771221
0.764979
0.756348
0.747598
0.737758
1.46184
1.44936
1.44274
1.43462
1.42563
1.41596
1.40678
1.39419
1.38146
1.37337
1.35866
1.35054
1.34247
1.33544
1.32715
1.31758
1.3085
1.30283
1.28987
1.27915
1.26704
1.25569
1.24548
1.23854
1.22937
1.21522
1.20542
1.19924
1.19087
1.17975
1.16646
1.16044
1.15132
1.13986
1.12758
1.11776
1.10911
1.09466
1.08614
1.0764
1.06542
1.05444
1.04344
1.03329
1.02525
1.01181
1.00304
1.00704
0.99328
0.977324
0.975782
0.96664
0.954788
0.943449
0.93582
0.926145
0.914902
0.908575
0.891413
0.876102
0.870852
0.862717
0.854024
0.839048
0.835364
0.816325
0.814356
0.802531
0.790429
0.780637
0.769412
0.766112
0.755094
0.748449
0.737789
1.4627
1.45055
1.44308
1.43387
1.42426
1.41367
1.40463
1.39593
1.38012
1.36823
1.35962
1.35154
1.3415
1.33619
1.32611
1.31577
1.31327
1.30158
1.28694
1.27757
1.26624
1.25491
1.24316
1.23858
1.22619
1.21951
1.20754
1.19969
1.19052
1.18275
1.16754
1.1553
1.15319
1.14098
1.12868
1.119
1.11085
1.09494
1.08686
1.07929
1.06571
1.05395
1.041
1.03303
1.02575
1.01129
1.00047
1.00159
0.996281
0.982677
0.976161
0.967275
0.95357
0.940378
0.934931
0.926164
0.917862
0.906287
0.890647
0.873415
0.870461
0.863772
0.858678
0.840123
0.832744
0.820811
0.807665
0.801382
0.794375
0.780656
0.771727
0.763759
0.750126
0.75006
0.738541
1.46175
1.45077
1.4438
1.43405
1.42387
1.41051
1.40213
1.39502
1.38415
1.37079
1.35914
1.3536
1.33694
1.34034
1.32417
1.31712
1.31341
1.30185
1.28626
1.27682
1.26542
1.25488
1.24464
1.23537
1.22914
1.21795
1.20499
1.20042
1.18997
1.18269
1.16645
1.1583
1.1533
1.14136
1.12886
1.11938
1.1096
1.09695
1.08724
1.07839
1.06489
1.05468
1.04298
1.03337
1.02317
1.01408
1.00461
0.999062
0.992833
0.980696
0.977198
0.962934
0.951744
0.940464
0.937011
0.926082
0.915774
0.90405
0.891267
0.879816
0.871649
0.863366
0.854703
0.842302
0.834049
0.821407
0.808598
0.801009
0.79341
0.776215
0.772841
0.759078
0.752262
0.749132
0.74795
1.45808
1.45178
1.44519
1.43512
1.42105
1.40925
1.3986
1.39587
1.38139
1.3711
1.36285
1.35302
1.34001
1.34161
1.32467
1.31622
1.31391
1.29967
1.28523
1.27717
1.26389
1.25482
1.24573
1.23764
1.22706
1.21681
1.20699
1.19561
1.18702
1.18057
1.16664
1.16055
1.15462
1.14199
1.13063
1.12008
1.11118
1.09647
1.08686
1.07689
1.06513
1.05694
1.04281
1.03483
1.01877
1.01719
1.0075
0.998534
0.989136
0.976385
0.971516
0.96178
0.951346
0.942873
0.935213
0.925654
0.914778
0.904095
0.890819
0.883958
0.872879
0.862935
0.852527
0.841722
0.837928
0.822728
0.8101
0.800817
0.790719
0.778564
0.7708
0.7631
0.751428
0.746383
0.747693
1.45793
1.45172
1.44512
1.43548
1.42001
1.40768
1.39902
1.39218
1.3811
1.37029
1.36721
1.35449
1.34393
1.33877
1.32848
1.31812
1.31011
1.29823
1.28603
1.27568
1.26442
1.2544
1.24571
1.23783
1.22533
1.21616
1.20593
1.19673
1.18401
1.17593
1.16837
1.16258
1.15763
1.14172
1.13256
1.11983
1.11257
1.09571
1.08621
1.07559
1.06423
1.05527
1.04596
1.03289
1.02192
1.0173
1.0089
0.999065
0.988492
0.977629
0.968004
0.961513
0.950418
0.940703
0.936699
0.925221
0.914346
0.899074
0.893304
0.8898
0.872716
0.862839
0.851367
0.844334
0.838034
0.82149
0.811787
0.80164
0.790786
0.779009
0.774749
0.761547
0.747015
0.746908
0.749305
1.45831
1.45204
1.444
1.43238
1.42031
1.40859
1.39893
1.39051
1.38043
1.37402
1.36722
1.35393
1.34545
1.34157
1.33306
1.31756
1.30821
1.29693
1.28608
1.275
1.26436
1.25216
1.24471
1.23724
1.22444
1.21667
1.2057
1.19621
1.18403
1.17951
1.16827
1.1635
1.15506
1.1409
1.13206
1.12119
1.11209
1.09896
1.08559
1.07473
1.06324
1.05413
1.04316
1.03481
1.02678
1.01825
1.0101
0.999853
0.988619
0.978881
0.963897
0.96437
0.949155
0.943243
0.934985
0.924777
0.912882
0.90134
0.893662
0.886201
0.875166
0.8651
0.848097
0.846138
0.835674
0.82418
0.813462
0.803014
0.79174
0.782906
0.773565
0.760764
0.746491
0.745564
0.74503
1.46109
1.44894
1.44041
1.43047
1.4196
1.40838
1.39685
1.38953
1.37937
1.37804
1.36671
1.35016
1.34793
1.34678
1.33316
1.32024
1.30825
1.29492
1.28639
1.27502
1.26503
1.24766
1.24382
1.23921
1.22089
1.21766
1.20433
1.19713
1.18728
1.17895
1.16751
1.16478
1.15189
1.1415
1.13149
1.12094
1.10925
1.09905
1.08744
1.07529
1.06392
1.05484
1.03833
1.03508
1.03087
1.01858
1.011
1.00007
0.987677
0.976099
0.965128
0.960803
0.950282
0.948493
0.933475
0.925999
0.91085
0.903442
0.893679
0.884892
0.876662
0.864627
0.850927
0.843909
0.83439
0.826149
0.814736
0.80464
0.791845
0.783269
0.772779
0.761937
0.7516
0.745276
0.737585
1.46122
1.44757
1.44076
1.42905
1.41873
1.40831
1.39367
1.3887
1.38202
1.37925
1.36657
1.3499
1.34957
1.34203
1.33234
1.32221
1.30971
1.2978
1.28943
1.27387
1.26368
1.25138
1.24408
1.23499
1.22298
1.21411
1.20291
1.19922
1.18875
1.17873
1.16905
1.16179
1.1508
1.14116
1.13138
1.12206
1.10528
1.10032
1.087
1.07521
1.06419
1.0529
1.04132
1.03641
1.03051
1.01542
1.00593
0.998437
0.987652
0.977126
0.963616
0.960925
0.952583
0.944181
0.934003
0.925305
0.911793
0.907232
0.892512
0.881903
0.873645
0.865759
0.856966
0.843832
0.833284
0.829774
0.814729
0.8042
0.792051
0.782604
0.772788
0.763134
0.754446
0.746397
0.736316
1.46056
1.44521
1.4442
1.42659
1.41769
1.40796
1.39657
1.38916
1.382
1.37303
1.36417
1.35574
1.35077
1.33844
1.33182
1.3248
1.31062
1.2982
1.28778
1.27838
1.26468
1.2505
1.24457
1.23355
1.22283
1.21192
1.20449
1.19952
1.18862
1.17864
1.16923
1.15999
1.15033
1.14099
1.1311
1.12101
1.11027
1.09767
1.08525
1.07407
1.06536
1.05284
1.04089
1.03789
1.02702
1.01579
1.00798
0.997953
0.988076
0.978718
0.967276
0.957484
0.954285
0.941051
0.933174
0.92042
0.913384
0.907811
0.889932
0.881647
0.875822
0.867498
0.859736
0.846349
0.836207
0.82852
0.815674
0.803889
0.792025
0.782531
0.772548
0.763084
0.756865
0.749716
0.734222
1.46386
1.446
1.43994
1.42632
1.41749
1.40782
1.39788
1.38945
1.38109
1.36744
1.36368
1.35836
1.35453
1.34109
1.33258
1.32203
1.30989
1.29665
1.28094
1.28165
1.26525
1.25186
1.24389
1.23453
1.2226
1.20947
1.20505
1.20263
1.18652
1.17776
1.16865
1.15925
1.14999
1.14071
1.13106
1.12074
1.10995
1.09822
1.08707
1.071
1.06948
1.05265
1.04291
1.0348
1.02479
1.01375
1.0132
0.997257
0.988581
0.980589
0.971784
0.957664
0.945825
0.941817
0.935426
0.921952
0.913197
0.904715
0.892544
0.880531
0.880281
0.868126
0.855684
0.846449
0.837384
0.829834
0.81629
0.803783
0.790341
0.781999
0.772012
0.761698
0.759565
0.751194
0.734288
1.45743
1.44684
1.44046
1.42848
1.41786
1.40787
1.39846
1.38972
1.38018
1.36971
1.36377
1.35963
1.35265
1.34111
1.33002
1.31946
1.31021
1.2978
1.28025
1.27927
1.26823
1.25431
1.24416
1.23454
1.2238
1.21403
1.20402
1.19717
1.18693
1.17746
1.16838
1.15917
1.14982
1.14039
1.13154
1.12095
1.10984
1.09777
1.08582
1.07469
1.06694
1.05522
1.04407
1.03223
1.02413
1.0133
1.01125
0.998594
0.988701
0.983141
0.970298
0.958978
0.950583
0.9451
0.93372
0.920219
0.912638
0.903728
0.893693
0.88265
0.875929
0.867115
0.856861
0.846453
0.837189
0.827568
0.816257
0.804577
0.792946
0.783254
0.772105
0.76319
0.757617
0.750394
0.733427
1.46139
1.44103
1.44184
1.42951
1.41759
1.40729
1.39785
1.39089
1.38048
1.37193
1.3631
1.36137
1.35099
1.34008
1.32866
1.31624
1.31034
1.29541
1.28575
1.27525
1.26936
1.25357
1.24372
1.23398
1.2245
1.21674
1.20629
1.19421
1.18661
1.17778
1.16816
1.15898
1.14912
1.13942
1.13386
1.12158
1.10995
1.09686
1.08437
1.07598
1.06693
1.0567
1.04514
1.02958
1.02591
1.01502
1.00747
0.996823
0.985371
0.982011
0.971068
0.962084
0.954703
0.944452
0.932588
0.921006
0.913904
0.903894
0.894008
0.8837
0.872903
0.864146
0.858702
0.846015
0.83731
0.82712
0.816375
0.805492
0.794776
0.78451
0.771001
0.761905
0.755924
0.749337
0.74213
1.45489
1.44648
1.44118
1.43064
1.41558
1.40618
1.39575
1.39343
1.38
1.37436
1.36582
1.35962
1.35011
1.33957
1.32848
1.3173
1.30545
1.29528
1.29197
1.27565
1.26495
1.25384
1.24329
1.233
1.22325
1.21467
1.20689
1.19628
1.18778
1.17838
1.16854
1.15845
1.14793
1.13521
1.13085
1.12133
1.10937
1.09753
1.08869
1.0779
1.06787
1.05869
1.04726
1.03018
1.02319
1.01427
1.00662
0.996268
0.984651
0.97893
0.969565
0.96423
0.960924
0.945316
0.931703
0.917586
0.916519
0.904826
0.89473
0.885155
0.868447
0.865556
0.854163
0.846556
0.838967
0.827108
0.816482
0.806192
0.79604
0.783942
0.770557
0.759634
0.754926
0.748806
0.743761
1.45708
1.44732
1.43891
1.42788
1.41649
1.40669
1.3964
1.39266
1.3779
1.37799
1.36808
1.35962
1.35039
1.3396
1.32859
1.31725
1.30351
1.29947
1.28905
1.27357
1.26645
1.25414
1.2427
1.2315
1.22081
1.21153
1.20865
1.1974
1.18987
1.17997
1.16899
1.15838
1.14916
1.13399
1.12401
1.12209
1.10835
1.0999
1.09256
1.07869
1.06795
1.05782
1.04639
1.03269
1.02204
1.01287
1.00829
0.99803
0.982683
0.978354
0.973965
0.963471
0.957735
0.944434
0.931825
0.920133
0.917802
0.906129
0.895113
0.883582
0.871994
0.862955
0.850843
0.847105
0.84388
0.825558
0.816338
0.806496
0.796833
0.783564
0.770779
0.76358
0.755161
0.746864
0.739996
1.46048
1.44686
1.43767
1.42657
1.41564
1.40815
1.39378
1.39138
1.38183
1.37758
1.3715
1.36021
1.35099
1.33988
1.33059
1.31783
1.30513
1.29861
1.2879
1.27468
1.26235
1.25352
1.24185
1.22959
1.21883
1.21171
1.20623
1.19843
1.19284
1.18138
1.169
1.15703
1.14676
1.13521
1.12324
1.12058
1.11583
1.10167
1.0904
1.0766
1.06759
1.05726
1.04568
1.03185
1.02088
1.01392
1.00852
1.00237
0.985415
0.978616
0.972519
0.96061
0.957556
0.943131
0.931474
0.922753
0.91841
0.90602
0.895594
0.882099
0.873588
0.861338
0.853076
0.846964
0.839599
0.826086
0.816955
0.807447
0.796338
0.783309
0.771714
0.768814
0.755008
0.743503
0.737973
1.46067
1.44855
1.43717
1.42558
1.41362
1.40703
1.39948
1.39592
1.38247
1.37591
1.36837
1.35893
1.34929
1.33847
1.32823
1.32047
1.31128
1.29989
1.28596
1.27208
1.26348
1.25559
1.24167
1.22697
1.22405
1.21249
1.20448
1.19727
1.19026
1.18245
1.16884
1.15399
1.14557
1.13602
1.12674
1.11991
1.11295
1.10035
1.08951
1.07916
1.06847
1.05874
1.04501
1.0289
1.02629
1.01496
1.00834
1.0015
0.987182
0.978569
0.970468
0.961246
0.954966
0.94441
0.928531
0.92174
0.917863
0.905431
0.901464
0.881774
0.872855
0.86232
0.854318
0.848033
0.834935
0.826143
0.817801
0.808951
0.797339
0.782329
0.772781
0.766744
0.757362
0.749124
0.738138
1.45855
1.45391
1.43761
1.42596
1.41619
1.40856
1.40142
1.39565
1.38017
1.3741
1.36578
1.35828
1.3476
1.33565
1.32486
1.32466
1.30836
1.29903
1.28089
1.27189
1.26404
1.25389
1.24246
1.23186
1.22585
1.21356
1.202
1.19556
1.18772
1.17915
1.16972
1.154
1.14569
1.13659
1.12632
1.12476
1.1119
1.09714
1.0881
1.08227
1.06698
1.05586
1.04601
1.03496
1.0276
1.01687
1.00809
0.999593
0.988807
0.978033
0.969436
0.96171
0.955179
0.941287
0.927298
0.920624
0.92377
0.905938
0.896168
0.882504
0.878804
0.86241
0.853868
0.845084
0.834974
0.82762
0.819133
0.808262
0.796308
0.785162
0.773657
0.766406
0.758336
0.74856
0.737918
1.46504
1.44838
1.4412
1.42586
1.4177
1.40978
1.40142
1.39244
1.37952
1.37413
1.36274
1.35876
1.34651
1.33301
1.32892
1.31998
1.30825
1.29716
1.2848
1.26892
1.26656
1.25359
1.24241
1.2316
1.22949
1.21388
1.19983
1.19386
1.18579
1.17685
1.16709
1.15601
1.14677
1.13843
1.12709
1.12127
1.1116
1.09885
1.08433
1.08219
1.06794
1.05713
1.04785
1.0379
1.02828
1.01695
1.00752
0.999004
0.990548
0.977046
0.967361
0.960859
0.952461
0.943714
0.931941
0.923709
0.919008
0.908101
0.894354
0.884108
0.87574
0.864198
0.853963
0.84366
0.832605
0.829366
0.819956
0.809316
0.796526
0.783385
0.774659
0.766413
0.760009
0.749992
0.736736
1.46358
1.44928
1.44102
1.42943
1.41971
1.41038
1.40197
1.39359
1.38286
1.37116
1.36295
1.35611
1.34776
1.33317
1.32838
1.31435
1.30729
1.29686
1.28514
1.27299
1.26611
1.25125
1.2422
1.23232
1.22451
1.21328
1.20227
1.19368
1.1847
1.1752
1.1658
1.15616
1.14689
1.13854
1.12899
1.11985
1.10898
1.09744
1.08698
1.08174
1.06844
1.05837
1.04942
1.04013
1.0308
1.01522
1.00705
0.998019
0.989763
0.978293
0.964823
0.961089
0.949409
0.946441
0.93419
0.925211
0.916817
0.906811
0.895174
0.884666
0.874654
0.864439
0.854159
0.843588
0.832238
0.828134
0.816957
0.8085
0.796422
0.785417
0.775946
0.765676
0.760481
0.750538
0.739595
1.45955
1.45276
1.4423
1.43199
1.4219
1.40997
1.40219
1.39205
1.38396
1.37281
1.36276
1.35468
1.34536
1.33459
1.3248
1.3125
1.30776
1.29728
1.286
1.27392
1.26337
1.25256
1.24296
1.23229
1.22264
1.21244
1.2024
1.19409
1.18429
1.17355
1.16471
1.15598
1.14595
1.13933
1.1313
1.11985
1.10794
1.09643
1.0873
1.08458
1.06707
1.05794
1.05141
1.04268
1.02981
1.01558
1.00768
0.997099
0.987502
0.980484
0.967722
0.959278
0.948936
0.948241
0.933394
0.925456
0.916977
0.9067
0.895692
0.884672
0.873909
0.864588
0.854769
0.844901
0.836054
0.822332
0.813362
0.811433
0.794872
0.785695
0.776824
0.762586
0.762588
0.752391
0.741193
1.46563
1.45045
1.44291
1.43157
1.42039
1.41334
1.40475
1.38966
1.3879
1.37278
1.36149
1.35349
1.34439
1.33505
1.32388
1.31274
1.30535
1.29635
1.28763
1.27315
1.26157
1.25265
1.24337
1.2312
1.22156
1.21243
1.20084
1.19603
1.18492
1.16988
1.16343
1.15724
1.14359
1.14093
1.12896
1.12327
1.10972
1.09529
1.09031
1.08042
1.06857
1.05662
1.05527
1.03967
1.02987
1.01921
1.01126
0.996366
0.991838
0.983697
0.968786
0.959923
0.951897
0.945067
0.934923
0.926202
0.918774
0.907068
0.895742
0.884532
0.87365
0.865197
0.855308
0.845253
0.835359
0.825065
0.816903
0.808388
0.796329
0.786002
0.777565
0.76236
0.762223
0.754286
0.742582
1.46971
1.45021
1.44293
1.43295
1.42151
1.41186
1.40269
1.39119
1.38676
1.3746
1.36233
1.3532
1.34362
1.33822
1.32425
1.31076
1.30307
1.29498
1.28518
1.27347
1.26222
1.2533
1.24266
1.22824
1.22019
1.21122
1.20161
1.19351
1.18833
1.16961
1.16264
1.15613
1.14978
1.14043
1.13042
1.1219
1.11031
1.10199
1.08781
1.0777
1.06824
1.05675
1.05127
1.04086
1.03092
1.02016
1.01119
1.00421
0.991086
0.983261
0.97069
0.965213
0.954185
0.944546
0.934838
0.925295
0.914284
0.906973
0.899902
0.885843
0.875482
0.866225
0.856244
0.845493
0.834724
0.820422
0.821158
0.806516
0.795687
0.78455
0.776024
0.766674
0.761214
0.754201
0.745227
1.46833
1.45325
1.44491
1.43363
1.42292
1.40967
1.40224
1.39038
1.38997
1.37515
1.36088
1.35341
1.33897
1.33678
1.32395
1.31259
1.30184
1.29531
1.28466
1.2727
1.26099
1.25531
1.24456
1.23126
1.22007
1.21095
1.20135
1.18927
1.18746
1.17296
1.16237
1.15576
1.14873
1.13999
1.13058
1.12025
1.10964
1.1059
1.08896
1.07426
1.06581
1.05652
1.05131
1.04245
1.03168
1.01924
1.01027
1.00446
0.989297
0.984508
0.975008
0.965591
0.95498
0.944737
0.934499
0.924961
0.910462
0.906306
0.901911
0.887332
0.877859
0.867926
0.857546
0.84576
0.833365
0.822227
0.814604
0.809086
0.795607
0.782507
0.775833
0.767901
0.761174
0.754075
0.744894
1.4653
1.4567
1.44498
1.43082
1.42085
1.41147
1.4028
1.39263
1.3859
1.37468
1.36223
1.35135
1.34003
1.33522
1.32304
1.30966
1.30478
1.29866
1.28677
1.27205
1.25632
1.25263
1.24645
1.23403
1.21848
1.21129
1.20361
1.19239
1.18483
1.17368
1.16327
1.1548
1.14641
1.14008
1.13119
1.11842
1.11592
1.10085
1.08831
1.07465
1.06379
1.05309
1.05396
1.04585
1.03418
1.01556
1.01284
1.00395
0.985845
0.982712
0.977559
0.965199
0.954904
0.944723
0.934514
0.923953
0.912739
0.905247
0.897533
0.888802
0.879737
0.870024
0.860256
0.846612
0.831596
0.823218
0.814848
0.807104
0.796209
0.785326
0.776527
0.76664
0.761513
0.756335
0.745957
1.45645
1.4438
1.44028
1.43005
1.42322
1.41293
1.4036
1.39424
1.38553
1.37494
1.36218
1.35032
1.33779
1.33723
1.3217
1.30961
1.30227
1.30112
1.28532
1.27232
1.26107
1.25257
1.24372
1.23446
1.21607
1.2121
1.2078
1.19151
1.18317
1.17348
1.16353
1.15395
1.14422
1.14157
1.13074
1.12047
1.11544
1.10125
1.08728
1.07359
1.06209
1.05046
1.04625
1.04821
1.03314
1.0187
1.01226
1.0021
0.990195
0.982485
0.974236
0.963411
0.954801
0.944776
0.934999
0.924582
0.913527
0.904189
0.893668
0.888329
0.875366
0.872082
0.866362
0.84875
0.832954
0.824474
0.81566
0.806683
0.796899
0.7871
0.778535
0.762981
0.761293
0.760994
0.746858
1.47247
1.44641
1.43606
1.4271
1.42759
1.41559
1.40448
1.39517
1.38691
1.37202
1.36131
1.34995
1.3393
1.33254
1.32199
1.31131
1.30451
1.29599
1.28381
1.27981
1.26341
1.25266
1.24143
1.23285
1.22123
1.21345
1.20214
1.19159
1.18367
1.17352
1.16346
1.1547
1.14583
1.13922
1.12884
1.12124
1.11235
1.10144
1.09093
1.0741
1.06178
1.05257
1.04901
1.0438
1.03182
1.02147
1.013
1.00293
0.992288
0.982759
0.972437
0.959939
0.953958
0.944559
0.936227
0.924941
0.912925
0.904722
0.896769
0.882014
0.877129
0.876175
0.861123
0.848884
0.836443
0.826218
0.816683
0.807201
0.797551
0.787788
0.778127
0.767624
0.760448
0.760499
0.746955
1.47808
1.44567
1.43266
1.42812
1.42574
1.41934
1.40488
1.39487
1.38493
1.37299
1.36145
1.34938
1.33981
1.33115
1.32169
1.3114
1.30877
1.29399
1.28495
1.27725
1.26546
1.25381
1.24311
1.23441
1.22581
1.212
1.20101
1.18865
1.18465
1.17352
1.16317
1.15446
1.14571
1.13984
1.12471
1.12198
1.11148
1.10113
1.09037
1.07765
1.06439
1.05092
1.05237
1.04314
1.02906
1.02158
1.01459
1.00563
0.993248
0.983781
0.973554
0.960359
0.947109
0.943503
0.938256
0.922916
0.912802
0.904647
0.898259
0.886104
0.876648
0.871782
0.860837
0.849317
0.837781
0.827281
0.817702
0.807983
0.798294
0.788372
0.778777
0.769657
0.762178
0.757456
0.741521
1.47292
1.44794
1.43827
1.4305
1.42452
1.41654
1.40451
1.39442
1.38486
1.37316
1.36232
1.34737
1.33929
1.33074
1.32264
1.31432
1.30303
1.2946
1.28621
1.277
1.26496
1.25411
1.24425
1.23499
1.22535
1.21589
1.20288
1.18789
1.18196
1.17242
1.16246
1.15336
1.14401
1.1396
1.12814
1.12018
1.11022
1.10013
1.09147
1.08072
1.06106
1.05419
1.05095
1.04472
1.02703
1.02109
1.01273
1.00666
0.99833
0.985471
0.976523
0.960058
0.945051
0.943469
0.932186
0.920095
0.911702
0.903466
0.895409
0.888532
0.881069
0.871961
0.861146
0.849626
0.838035
0.82703
0.818971
0.808795
0.79934
0.788576
0.778974
0.770139
0.761987
0.754045
0.743662
1.46756
1.45091
1.4417
1.43268
1.42447
1.4139
1.40277
1.3928
1.38698
1.37174
1.35911
1.34792
1.33937
1.32981
1.32532
1.31169
1.30239
1.29215
1.28842
1.27997
1.26316
1.25335
1.24462
1.23596
1.22577
1.21678
1.20294
1.18908
1.18202
1.17165
1.1604
1.15317
1.14635
1.13863
1.12891
1.11945
1.10965
1.09815
1.09377
1.08244
1.06538
1.05574
1.04978
1.04215
1.03058
1.0236
1.00899
1.00938
0.994559
0.983697
0.972066
0.962453
0.94483
0.94259
0.929675
0.919552
0.90961
0.90221
0.893656
0.89154
0.886673
0.873806
0.862173
0.850155
0.837784
0.824846
0.821792
0.808598
0.801708
0.787563
0.778416
0.770207
0.761683
0.753328
0.745132
1.4658
1.45044
1.44345
1.43419
1.42515
1.41124
1.40027
1.39043
1.38797
1.37208
1.35768
1.34719
1.33973
1.3251
1.32477
1.31347
1.30348
1.29096
1.28525
1.27725
1.26376
1.25213
1.2449
1.23844
1.22434
1.21248
1.20304
1.19286
1.18444
1.17229
1.15724
1.15279
1.14951
1.13871
1.12891
1.11938
1.11026
1.09971
1.09169
1.08081
1.06903
1.05823
1.04961
1.04152
1.03237
1.02361
1.01137
1.0054
0.995728
0.981352
0.967352
0.962929
0.949281
0.940362
0.924303
0.91989
0.905727
0.902394
0.898376
0.897074
0.88618
0.874367
0.86355
0.851109
0.838833
0.825514
0.822201
0.803639
0.800175
0.789181
0.777157
0.770739
0.761069
0.752314
0.747375
1.46629
1.4512
1.44392
1.4351
1.42055
1.41036
1.39879
1.3949
1.37991
1.36974
1.35918
1.34863
1.34302
1.3234
1.32129
1.31375
1.30527
1.29699
1.28405
1.27319
1.26289
1.2529
1.24397
1.23892
1.22453
1.2121
1.20378
1.1947
1.18596
1.17551
1.16174
1.15099
1.14625
1.13823
1.1286
1.11869
1.10976
1.09993
1.09136
1.08154
1.06996
1.05937
1.04932
1.04224
1.03403
1.01894
1.01609
1.00417
0.992678
0.983981
0.968333
0.960266
0.951244
0.939526
0.925369
0.917513
0.905047
0.903779
0.900112
0.897549
0.885254
0.87411
0.864388
0.85276
0.841379
0.827794
0.816788
0.802876
0.797078
0.787531
0.776082
0.771965
0.7593
0.75093
0.750984
1.46841
1.44918
1.44342
1.43195
1.42203
1.40651
1.40563
1.39124
1.37525
1.36779
1.35903
1.34928
1.34455
1.3295
1.32169
1.31455
1.30821
1.29604
1.28059
1.27271
1.26289
1.2522
1.23955
1.23814
1.22611
1.2141
1.20507
1.19606
1.18733
1.17914
1.16139
1.15228
1.14461
1.13933
1.12866
1.11815
1.10711
1.09922
1.09183
1.08656
1.06938
1.05924
1.04775
1.04344
1.03201
1.02302
1.01523
1.00277
0.990717
0.98278
0.971018
0.958875
0.954141
0.94071
0.927892
0.919396
0.90794
0.906795
0.899974
0.893013
0.883106
0.873167
0.862982
0.850754
0.844907
0.826423
0.814639
0.804091
0.795912
0.786792
0.777026
0.769874
0.755035
0.752848
0.75189
1.46417
1.4488
1.43732
1.42774
1.41913
1.41042
1.40433
1.38769
1.37437
1.36764
1.36016
1.35384
1.34237
1.33065
1.32193
1.31458
1.30657
1.29399
1.27967
1.27406
1.26352
1.25376
1.23717
1.2362
1.2252
1.21416
1.20651
1.19683
1.18761
1.18109
1.16213
1.1517
1.14265
1.14546
1.12837
1.1196
1.111
1.0978
1.0906
1.0829
1.07206
1.06102
1.04999
1.04077
1.02933
1.0258
1.01467
1.00109
0.98838
0.984217
0.972332
0.961501
0.953164
0.941988
0.929031
0.923948
0.912969
0.904229
0.900146
0.890957
0.881768
0.872439
0.862867
0.852765
0.838949
0.825423
0.814842
0.802551
0.796003
0.786524
0.777121
0.768952
0.754587
0.753582
0.752058
1.46298
1.44933
1.43474
1.42493
1.41699
1.41189
1.40311
1.39072
1.37855
1.36872
1.36055
1.3524
1.33984
1.32855
1.32088
1.31431
1.30799
1.29391
1.27996
1.27173
1.26173
1.25295
1.2411
1.23319
1.22331
1.21252
1.20944
1.19719
1.18598
1.18157
1.16409
1.14844
1.14547
1.14855
1.12885
1.12168
1.11141
1.09982
1.08992
1.08147
1.07451
1.06286
1.05152
1.03998
1.02737
1.02608
1.01437
0.998973
0.989238
0.982263
0.972727
0.962791
0.953166
0.945112
0.933442
0.92454
0.908193
0.904742
0.902137
0.889226
0.880594
0.871943
0.863371
0.848817
0.836912
0.825098
0.813751
0.80177
0.79788
0.785909
0.777057
0.768816
0.759486
0.754781
0.750759
1.45813
1.44803
1.43619
1.42317
1.4215
1.40819
1.40485
1.39328
1.38174
1.36976
1.35963
1.35026
1.33571
1.32481
1.31901
1.31124
1.30632
1.29408
1.28031
1.27088
1.25947
1.25448
1.2415
1.23062
1.2224
1.21433
1.20932
1.19649
1.18811
1.17828
1.16546
1.1514
1.14997
1.14261
1.12559
1.12655
1.11314
1.09979
1.08846
1.07861
1.07207
1.06437
1.05327
1.04099
1.03231
1.0247
1.01285
0.999552
0.989431
0.98061
0.973928
0.96401
0.9534
0.951213
0.935555
0.921447
0.911744
0.904819
0.898211
0.888062
0.879439
0.870937
0.859961
0.847816
0.838567
0.824278
0.81277
0.805588
0.797353
0.781999
0.776279
0.769911
0.76121
0.755512
0.747692
1.45698
1.44066
1.43554
1.4239
1.41758
1.41248
1.40458
1.39452
1.3853
1.36955
1.35845
1.34518
1.32971
1.32697
1.31892
1.30996
1.29857
1.29422
1.28173
1.27345
1.26194
1.25216
1.24085
1.22782
1.22144
1.21322
1.21025
1.19754
1.19168
1.17224
1.16787
1.1558
1.15023
1.14102
1.1272
1.12285
1.11466
1.10238
1.09042
1.0736
1.07044
1.06853
1.05632
1.03888
1.02893
1.02438
1.01279
1.00086
0.990921
0.980597
0.977041
0.965838
0.955664
0.948162
0.937594
0.923797
0.913269
0.904509
0.895699
0.886329
0.878495
0.863403
0.860329
0.847191
0.837401
0.826184
0.814458
0.804967
0.795694
0.780006
0.776353
0.772165
0.760747
0.757177
0.746753
1.44853
1.44523
1.43459
1.42599
1.4184
1.41244
1.4052
1.39496
1.38421
1.37281
1.35913
1.34275
1.33215
1.32611
1.31888
1.31131
1.29608
1.28967
1.27947
1.27664
1.2634
1.25111
1.24122
1.23056
1.22127
1.20947
1.2064
1.1969
1.19094
1.17638
1.16769
1.15635
1.15123
1.13851
1.12674
1.12243
1.11881
1.10234
1.08796
1.07789
1.06914
1.06829
1.05438
1.04008
1.0314
1.02105
1.01169
1.00124
0.9908
0.98878
0.975897
0.966737
0.957591
0.944393
0.9374
0.930017
0.914475
0.904162
0.893773
0.883247
0.875607
0.863007
0.857171
0.848307
0.836434
0.82735
0.814816
0.803408
0.79695
0.783324
0.776993
0.770496
0.761971
0.755204
0.745634
1.45539
1.44438
1.43658
1.42192
1.4181
1.41215
1.40718
1.39532
1.38341
1.37218
1.3583
1.34581
1.33334
1.3246
1.31867
1.30867
1.29609
1.28875
1.28094
1.2749
1.26396
1.25234
1.24234
1.2324
1.21985
1.21166
1.20479
1.19386
1.18569
1.17696
1.16957
1.15881
1.14804
1.13528
1.13047
1.12145
1.11291
1.10002
1.08551
1.08159
1.07956
1.06348
1.05245
1.04115
1.03178
1.02106
1.01036
1.0029
0.992484
0.987851
0.979487
0.967745
0.958544
0.949613
0.93824
0.927318
0.913402
0.903118
0.892191
0.879307
0.875744
0.860091
0.855317
0.850049
0.834518
0.829886
0.81507
0.800176
0.798764
0.786381
0.778031
0.770465
0.762355
0.754052
0.745028
1.4593
1.4454
1.43414
1.42726
1.41941
1.4111
1.40344
1.39458
1.38321
1.36844
1.35862
1.34861
1.33423
1.32073
1.31908
1.30626
1.29526
1.28864
1.28208
1.27524
1.26517
1.25407
1.24325
1.23208
1.21901
1.21444
1.20344
1.19213
1.18076
1.17621
1.17333
1.16283
1.14684
1.13624
1.12881
1.11979
1.11091
1.09627
1.08899
1.08335
1.08066
1.06101
1.05087
1.04094
1.03191
1.02157
1.00825
1.00753
0.991554
0.988658
0.983063
0.967069
0.958301
0.950214
0.938183
0.925626
0.914441
0.903225
0.892172
0.880793
0.872883
0.861428
0.854165
0.845521
0.836961
0.827559
0.815631
0.799592
0.799768
0.785158
0.778382
0.771018
0.762509
0.753673
0.744707
1.46423
1.44856
1.43591
1.42558
1.42048
1.40907
1.3996
1.39155
1.3803
1.36771
1.35938
1.34684
1.33511
1.32398
1.31758
1.30551
1.29343
1.28847
1.28248
1.27767
1.26618
1.25574
1.24431
1.23284
1.22321
1.21089
1.2021
1.19223
1.18204
1.17401
1.17201
1.16176
1.15118
1.13524
1.12693
1.11771
1.11032
1.10144
1.09345
1.08164
1.074
1.05853
1.04914
1.0395
1.03313
1.02015
1.00978
1.00638
0.998673
0.992349
0.980874
0.965109
0.956552
0.946156
0.941396
0.927434
0.91479
0.903026
0.892392
0.882153
0.87226
0.861617
0.852538
0.842782
0.840621
0.824652
0.814557
0.800938
0.79307
0.785933
0.779656
0.772769
0.762975
0.753321
0.744345
1.46567
1.44802
1.4378
1.42563
1.4178
1.40643
1.40256
1.39109
1.38055
1.36371
1.361
1.34553
1.33563
1.32313
1.32114
1.30557
1.29638
1.28903
1.282
1.27532
1.26573
1.25668
1.24485
1.23485
1.22169
1.21249
1.20193
1.19297
1.18368
1.17526
1.16876
1.15995
1.15107
1.13511
1.12674
1.11573
1.11032
1.10717
1.09184
1.07588
1.07266
1.05945
1.04784
1.03665
1.03331
1.01917
1.01289
1.00674
1.0022
0.991122
0.981647
0.96573
0.956966
0.94771
0.940501
0.927809
0.915832
0.90136
0.890847
0.883592
0.872313
0.860452
0.848379
0.848183
0.835298
0.825478
0.81603
0.798476
0.787611
0.785454
0.781452
0.775545
0.76319
0.752005
0.743811
1.4662
1.45303
1.44054
1.42839
1.41867
1.40883
1.40035
1.38984
1.37739
1.3673
1.36022
1.34265
1.3333
1.32602
1.31967
1.30957
1.29868
1.28972
1.28133
1.27513
1.26447
1.25483
1.24383
1.23502
1.22432
1.2156
1.20113
1.19311
1.18434
1.17569
1.16732
1.15819
1.14816
1.13668
1.12919
1.12052
1.10815
1.10207
1.09092
1.07898
1.06998
1.05881
1.0462
1.03756
1.02989
1.02638
1.01607
1.00695
0.996894
0.988605
0.981847
0.968473
0.958103
0.948417
0.93892
0.927739
0.915993
0.903576
0.889944
0.887875
0.872859
0.859656
0.845678
0.845256
0.834749
0.825919
0.810727
0.798767
0.790273
0.786239
0.783231
0.773078
0.761233
0.748175
0.742684
1.46624
1.45189
1.44103
1.42947
1.41963
1.41028
1.40031
1.38986
1.37272
1.36838
1.3583
1.33924
1.33228
1.32782
1.32012
1.31394
1.29894
1.29029
1.28037
1.27811
1.26194
1.25255
1.24105
1.23676
1.22489
1.2145
1.20339
1.194
1.18484