/*--------------------------------*- C++ -*----------------------------------*\
  =========                 |
  \\      /  F ield         | OpenFOAM: The Open Source CFD Toolbox
   \\    /   O peration     | Website:  https://openfoam.org
    \\  /    A nd           | Version:  12
     \\/     M anipulation  |
\*---------------------------------------------------------------------------*/
FoamFile
{
    format      ascii;
    class       surfaceScalarField;
    location    "0.25";
    object      phi.water_0;
}
// * * * * * * * * * * * * * * * * * * * * * * * * * * * * * * * * * * * * * //

dimensions      [0 3 -1 0 0 0 0];

internalField   nonuniform List<scalar> 
7375
(
-1.2518e-07
-1.09908e-07
1.28463e-07
-2.52441e-07
9.54728e-08
3.00132e-08
8.71445e-08
8.47778e-09
1.73333e-07
5.06194e-08
4.21369e-08
-7.30833e-09
9.179e-08
-5.02965e-08
7.93255e-08
1.16395e-08
1.02942e-07
-2.3381e-08
1.13376e-07
-9.35546e-09
1.31471e-07
-1.67391e-08
1.38049e-07
-6.74389e-09
1.5806e-07
-2.13238e-08
1.51109e-07
5.42853e-09
1.36478e-07
1.46295e-08
1.25578e-07
1.23574e-08
1.19885e-07
5.68014e-09
1.25995e-07
-4.75005e-09
1.29893e-07
-3.88349e-09
1.4463e-07
-1.60989e-08
1.44953e-07
-4.13432e-10
1.29447e-07
1.55329e-08
1.35432e-07
-7.45919e-09
1.2298e-07
1.25772e-08
1.25598e-07
-2.6603e-09
1.36941e-07
-9.96276e-09
2.57133e-07
2.2446e-08
1.42083e-07
-2.74697e-08
1.33498e-07
9.95625e-09
2.34742e-07
4.01074e-08
1.12807e-07
-2.07399e-08
1.29585e-07
-1.82982e-08
1.43568e-07
-1.39812e-08
1.43598e-07
1.39794e-09
1.59607e-07
-1.59936e-08
1.65206e-07
-5.46173e-09
1.66615e-07
-1.28375e-09
1.62461e-07
4.18485e-09
1.63177e-07
-7.51803e-10
1.94763e-07
-3.19975e-08
1.38646e-07
8.06156e-09
1.82459e-07
2.36586e-09
2.10197e-07
-2.56014e-08
2.37921e-07
-2.52948e-08
2.15668e-07
-2.7013e-08
2.4606e-07
1.34726e-08
2.24806e-07
2.35742e-08
1.8302e-07
4.32783e-08
1.43866e-07
4.0385e-08
1.24202e-07
1.83995e-08
1.16895e-07
6.11199e-09
1.23626e-07
-6.7331e-09
1.48831e-07
-2.70279e-08
1.33616e-07
1.52142e-08
1.13238e-07
2.17687e-08
8.80625e-08
-2.2334e-08
1.56028e-07
-2.02098e-08
1.4549e-07
-3.47843e-08
1.91245e-07
-5.5676e-10
1.89512e-07
3.59408e-09
1.65844e-07
2.38204e-08
1.3559e-07
2.99852e-08
2.2287e-07
5.24793e-08
9.10378e-08
-8.93664e-09
8.72863e-08
4.76037e-09
8.55715e-08
1.68447e-09
9.08048e-08
-5.15556e-09
1.00829e-07
-1.01352e-08
9.27046e-08
8.23744e-09
1.04509e-07
-1.16651e-08
1.1679e-07
-1.22641e-08
1.28512e-07
-1.02516e-08
1.02309e-07
-2.0979e-08
1.36145e-07
1.17248e-08
1.99722e-09
-3.13441e-07
-4.81897e-08
-1.00092e-07
-8.89077e-08
-1.75285e-07
-7.83342e-08
-1.43937e-07
2.5161e-08
-9.06764e-08
-2.64214e-09
-1.02078e-07
1.0091e-09
-2.14577e-08
1.19488e-08
-9.32856e-08
-1.01747e-07
-7.02511e-08
2.35843e-10
-4.52263e-08
-3.47404e-08
-2.70929e-08
-3.56117e-08
-3.14019e-08
-4.94985e-08
9.61055e-09
-1.53668e-08
-1.29658e-08
2.80031e-08
-2.27244e-08
2.4536e-08
-2.60463e-08
1.59433e-08
-2.51822e-08
4.8147e-09
-8.57939e-09
-2.16115e-08
3.68112e-09
-1.62717e-08
-1.39681e-08
1.56458e-09
-8.7647e-09
-5.61802e-09
-3.62416e-08
4.26386e-08
3.80507e-08
6.00336e-08
-7.38204e-08
-1.72096e-08
-4.73078e-08
-2.84206e-08
-3.63739e-08
-2.06283e-08
4.89993e-09
-1.90551e-08
-9.26389e-09
-1.31623e-08
-1.34095e-08
1.41017e-08
-3.51034e-09
2.96259e-08
-3.77842e-08
1.3534e-08
-6.39763e-08
8.27901e-09
-8.05279e-08
1.60658e-09
-1.05061e-07
-2.14212e-08
-4.03281e-08
-3.25924e-08
-2.24215e-08
-2.3378e-08
-1.27234e-08
-1.13219e-08
-1.66073e-08
7.93908e-09
-3.30847e-08
1.53888e-08
3.38529e-08
4.24592e-08
-5.85078e-08
-3.98738e-08
1.13172e-09
-5.72607e-08
6.15511e-08
-8.68976e-08
9.96934e-08
-6.28088e-08
9.83694e-08
-2.64163e-08
1.36339e-07
-2.60002e-08
1.54885e-07
4.8415e-09
1.49971e-07
4.8243e-08
1.13957e-07
7.94595e-08
6.58387e-08
6.82057e-08
1.17252e-08
5.95544e-08
-3.33209e-08
3.79733e-08
3.2119e-08
4.89266e-08
-8.39569e-08
-8.8337e-09
-8.65155e-08
-2.23227e-08
-9.48364e-08
-1.41575e-08
-2.59113e-08
-4.26902e-08
-1.83448e-08
-4.15718e-08
3.63475e-09
-2.2573e-08
1.20695e-08
-4.84054e-09
2.14586e-08
1.43117e-08
1.66255e-08
3.4988e-08
2.66508e-08
4.19136e-08
-3.41347e-08
5.1486e-08
-6.60293e-08
3.73292e-08
-7.27279e-08
7.6489e-09
-8.23569e-08
2.87555e-09
-9.75794e-08
5.93638e-09
-1.32069e-07
-1.58036e-09
-9.65155e-08
-1.03928e-09
-8.65608e-08
-2.23201e-08
-7.33269e-08
-2.34847e-08
-9.50652e-08
2.26583e-10
-5.91414e-08
-2.48013e-08
8.03652e-09
-1.29176e-07
-1.17709e-07
-2.33876e-07
-1.58303e-07
-7.9816e-08
-4.34072e-08
-1.69668e-07
-7.15907e-08
-1.4612e-07
-2.62184e-08
-1.32265e-07
-1.28469e-08
-1.27116e-07
6.55471e-09
-4.6595e-08
4.33318e-09
-1.73405e-07
-5.77865e-08
-1.34689e-07
-2.76287e-08
-1.24173e-07
-4.75034e-08
-8.86474e-08
-8.45206e-08
-7.35172e-08
-3.04986e-08
-4.95918e-08
4.07607e-09
-7.01757e-08
4.51183e-08
-9.3238e-08
3.90039e-08
-1.26076e-07
3.80886e-08
-1.35974e-07
-1.31015e-08
-1.57776e-07
3.90192e-09
-1.85976e-07
-1.57418e-08
-1.50453e-07
7.48143e-09
-1.64727e-07
5.63366e-08
-1.44454e-07
3.91469e-08
-1.70944e-07
9.45533e-09
-1.84329e-07
-1.50369e-08
-1.99112e-07
-5.90572e-09
-1.8876e-07
-2.96028e-08
-2.06721e-07
4.79796e-09
-2.06614e-07
1.41384e-08
-2.22822e-07
4.63057e-08
-2.28339e-07
1.89133e-08
-2.32534e-07
1.26022e-08
-2.20652e-07
-1.25261e-08
-1.99106e-07
-4.23107e-08
-1.92386e-07
-3.92435e-08
-1.73784e-07
-4.40116e-08
-1.6459e-07
-1.88412e-08
-1.51897e-07
-3.10602e-09
-1.4766e-07
1.11519e-08
-1.57493e-07
5.20908e-09
-1.22796e-07
-2.79198e-08
-1.37295e-07
-4.41616e-08
-4.95311e-08
-3.41623e-08
-3.44399e-08
-7.73942e-08
-9.00625e-08
-1.11663e-07
-7.59377e-08
-8.75239e-08
8.61186e-09
-3.2233e-08
1.36245e-08
4.34191e-08
-2.0329e-09
9.59154e-08
-4.53632e-08
1.10854e-07
-6.93091e-08
8.39636e-08
-9.00689e-08
5.93387e-08
-8.31356e-08
4.14946e-08
-9.4626e-08
2.65697e-09
-1.34146e-07
1.58286e-08
-1.43563e-07
-5.18708e-08
-1.58726e-07
-2.44432e-08
-1.55952e-07
1.83393e-09
-1.71076e-07
-9.04055e-09
-1.61906e-07
-1.39174e-08
-1.42543e-07
-5.05122e-09
-1.19312e-07
1.17575e-08
-9.85075e-08
2.08949e-08
-1.36863e-07
8.98416e-08
-1.33136e-07
3.36025e-08
-1.22355e-07
-3.05295e-09
-9.70488e-08
-2.24598e-08
-1.34426e-07
4.32535e-08
-1.36416e-07
4.099e-10
-1.24584e-07
-1.27517e-08
-1.42122e-07
-4.78196e-09
-1.46137e-07
-1.97081e-08
-1.67756e-07
-2.4804e-08
-1.44761e-07
-1.15595e-09
-1.80152e-08
-1.08694e-07
-3.59308e-08
-1.34087e-07
-1.20195e-07
-1.72111e-07
-1.43969e-07
-2.00172e-07
-4.35306e-08
-1.7775e-07
-4.91429e-08
-1.57436e-07
-3.28267e-08
-1.26604e-07
-2.4529e-08
-1.02287e-07
-1.9986e-08
-1.30188e-07
-2.98868e-08
-1.2982e-07
-2.82801e-08
-1.98312e-07
-2.56633e-08
-9.4431e-08
-1.80082e-09
-9.37327e-08
-3.11984e-08
-7.13405e-08
-1.83177e-08
-1.46217e-07
-1.97564e-08
-1.26548e-07
1.78601e-08
-1.7442e-07
3.84312e-08
-1.89435e-07
5.03418e-08
-2.06175e-07
2.06011e-08
-2.30742e-07
6.62986e-09
-1.26332e-07
4.57661e-08
-2.17201e-07
9.94274e-09
-2.02867e-07
2.25959e-08
-1.98391e-07
4.97784e-09
-2.22955e-07
7.2516e-09
-2.35924e-07
-3.96606e-08
-2.01444e-07
-1.51805e-08
-2.2044e-07
2.37929e-08
-2.26749e-07
1.81342e-08
-2.42219e-07
1.46434e-08
-2.51445e-07
2.77618e-08
-2.62917e-07
2.38292e-08
-2.62963e-07
-7.11551e-09
-2.44048e-07
-1.46186e-08
-2.41492e-07
-4.42892e-08
-2.48385e-07
-3.66693e-08
-2.4975e-07
-1.98316e-08
-2.31663e-07
-2.11931e-08
-1.90518e-07
-2.76292e-08
-1.6839e-07
-6.35682e-08
-1.63942e-07
-3.23671e-08
-1.66459e-07
-4.16443e-08
-1.46852e-07
-5.34205e-08
-1.51602e-07
-7.26433e-08
-1.70865e-07
-9.24e-08
-1.67778e-07
-8.97174e-08
-1.50542e-07
-4.74484e-08
-1.31777e-07
2.46548e-08
-1.30078e-07
9.18935e-08
-1.30698e-07
1.10344e-07
-1.53382e-07
1.06166e-07
-1.1218e-07
1.59531e-07
-1.14891e-07
4.53503e-08
-8.53187e-08
-2.6915e-08
-1.91313e-07
-6.47785e-08
-1.77437e-07
-1.85674e-08
-1.78423e-07
-2.34561e-08
-1.73761e-07
-2.80969e-09
-1.78558e-07
-2.42115e-09
-1.7615e-07
-1.63259e-08
-1.78179e-07
-4.81826e-09
-1.82033e-07
1.37542e-08
-6.89012e-08
4.91574e-08
-1.7784e-07
1.30139e-08
-1.77373e-07
3.31362e-08
-1.51291e-07
1.73393e-08
-6.17633e-08
2.79644e-08
-1.6247e-07
-4.26412e-08
-1.49576e-07
-1.09578e-08
-1.23951e-07
7.80309e-09
-1.34475e-07
4.47746e-09
-1.50466e-07
-3.75436e-09
-1.68004e-07
-8.97823e-09
-1.76372e-07
-3.99182e-08
-5.51047e-09
-1.59473e-07
-8.09304e-08
-1.49866e-07
-1.11635e-07
-1.00363e-07
-5.19926e-08
-1.9679e-07
-8.90631e-08
-2.02167e-07
-4.12584e-08
-1.93667e-07
-4.12425e-08
-1.83497e-07
-3.66955e-08
-1.58591e-07
-4.30214e-08
-1.62584e-07
-2.61626e-08
-1.36694e-07
-5.41715e-08
-1.34654e-07
-2.77047e-08
-1.12887e-07
-2.35694e-08
-1.04395e-07
-3.96921e-08
-1.0203e-07
-1.94443e-08
-1.04494e-07
-1.62387e-08
-9.49273e-08
8.19485e-09
-1.02389e-07
4.49987e-08
-1.53063e-07
9.89608e-08
-1.79713e-07
4.67722e-08
-1.94825e-07
2.15215e-08
-1.73097e-07
2.35696e-08
-1.88243e-07
2.51892e-08
-1.82169e-07
1.65206e-08
-1.83638e-07
6.44611e-09
-2.12834e-07
-7.95199e-09
-2.25111e-07
1.69221e-08
-1.19729e-07
1.85107e-08
-2.03541e-07
-3.11257e-08
-1.75854e-07
-9.55321e-09
-1.6943e-07
9.79813e-09
-1.35822e-07
-4.52033e-09
-1.57465e-07
4.38596e-08
-1.80416e-07
1.4229e-08
-1.88288e-07
-6.89538e-09
-2.19049e-07
-1.3528e-08
-2.42021e-07
-1.36973e-08
-2.4948e-07
-1.23716e-08
-2.1831e-07
-5.21468e-08
-1.95161e-07
-5.07777e-08
-1.71388e-07
-4.06906e-08
-1.54225e-07
-4.95289e-08
-1.46326e-07
-4.95431e-08
-1.50869e-07
-4.88774e-08
-1.6031e-07
-1.09852e-07
-1.90912e-07
-6.17974e-08
-1.95809e-07
-8.36759e-08
-1.77739e-07
-6.61861e-08
-2.33876e-07
7.84303e-08
-2.25753e-07
8.37713e-08
-2.0262e-07
8.6022e-08
-9.96447e-08
1.44585e-07
-1.73601e-07
4.62751e-08
-1.38569e-07
1.03183e-08
-1.27664e-07
8.83048e-09
-1.72733e-07
-1.97087e-08
-1.77191e-07
-1.41097e-08
-1.67097e-07
-3.38953e-08
-1.98117e-07
2.82108e-08
-2.01672e-07
1.13315e-09
-1.91124e-07
-2.70396e-08
-2.11887e-07
1.59447e-08
-2.06094e-07
7.96155e-09
-1.80647e-07
2.13663e-08
-1.96243e-07
-1.85208e-08
-2.1465e-07
5.51728e-08
-1.79122e-07
2.82757e-08
-1.84524e-07
3.12209e-08
-2.17164e-07
-1.00003e-08
-2.17679e-07
-1.04427e-08
-1.9992e-07
-9.87543e-09
-1.74977e-07
-2.24797e-08
-2.05639e-07
2.69084e-08
-1.99749e-07
-1.27686e-08
-2.205e-07
-1.87597e-08
-1.81788e-08
-1.57722e-07
-1.19868e-07
-1.24522e-07
-1.27429e-07
-1.26696e-07
-4.90504e-08
-1.5896e-07
-5.57472e-08
-1.68535e-07
-3.15868e-08
-1.78881e-07
-3.27041e-08
-1.73564e-07
-4.12192e-08
-1.72977e-07
-4.53737e-08
-1.91732e-07
-5.45406e-08
-1.50799e-07
-4.6499e-08
-1.39539e-07
-3.89666e-08
-1.33053e-07
-3.00567e-08
-1.24924e-07
-4.60782e-08
-1.15634e-07
-2.87357e-08
-1.19179e-07
-1.40406e-08
-1.03128e-07
-8.91686e-09
-2.72917e-08
1.113e-07
-1.12106e-07
4.66435e-08
-1.14633e-07
4.93233e-08
-1.49519e-07
5.52479e-08
-1.73125e-07
4.56491e-08
-1.85287e-07
3.73502e-08
-1.61581e-07
-7.26076e-09
-1.85809e-07
3.25685e-08
-1.67035e-07
-2.67265e-08
-1.71857e-07
2.02112e-08
-1.4647e-07
-7.06594e-09
-1.59638e-07
-1.7958e-08
-1.50903e-07
-1.82883e-08
-1.59046e-07
1.61535e-08
-5.58972e-08
3.36778e-08
-1.0986e-07
-4.15357e-08
-1.40162e-07
4.45316e-08
-1.70036e-07
2.29785e-08
-1.93501e-07
9.93728e-09
-2.11141e-07
3.9433e-09
-2.24882e-07
-4.52814e-08
-1.6913e-07
-6.12478e-08
-1.46e-07
-7.31607e-08
-1.31144e-07
-5.49855e-08
-1.43898e-07
-3.67743e-08
-1.64712e-07
-2.87286e-08
-1.7894e-07
-3.46489e-08
-2.11442e-07
-3.06984e-08
-2.57873e-07
-1.81824e-08
-2.30446e-07
-1.92149e-08
-1.07498e-07
2.19299e-09
-2.70538e-07
-3.45206e-08
-2.59341e-07
6.64912e-08
-1.28335e-07
9.54268e-08
-1.81552e-07
5.76844e-08
-1.75425e-07
4.01489e-08
-1.73334e-07
8.22724e-09
-1.62919e-07
-1.58347e-09
-1.92715e-07
1.00874e-08
-2.14734e-07
5.7186e-09
-1.273e-07
2.00646e-08
-2.36898e-07
-4.74942e-08
-2.30777e-07
-4.9871e-09
-2.0021e-07
-1.10691e-08
-2.14463e-07
-1.64522e-08
-2.07274e-07
7.72904e-10
-2.29923e-07
4.35705e-08
-1.44202e-07
8.40204e-08
-2.49447e-07
1.93607e-08
-1.50256e-07
6.97488e-08
-2.07657e-07
-4.83986e-08
-2.06271e-07
-1.35044e-08
-2.20726e-07
4.01229e-09
-2.26315e-07
-6.59403e-09
-1.34004e-07
2.66032e-08
-2.2483e-07
-2.11229e-08
-2.02682e-07
-3.5275e-08
-2.52552e-07
3.11106e-08
-2.86519e-08
-1.87732e-07
-1.20245e-07
-1.94914e-07
-1.03904e-07
-1.77185e-07
-6.8607e-08
-1.62028e-07
-7.07489e-08
-1.4392e-07
-4.68683e-08
-1.08649e-07
-6.54256e-08
-9.34575e-08
-5.75093e-08
-1.04094e-07
-3.5692e-08
-1.20363e-07
-3.77168e-08
-1.23992e-07
-4.33131e-08
-1.52774e-07
-1.02904e-08
-1.75139e-07
-5.90686e-09
-1.52872e-07
-6.90437e-08
-1.89166e-07
5.70371e-09
-2.01616e-07
-3.64901e-09
-9.09912e-08
2.18512e-08
-1.60973e-07
-5.52926e-09
-1.8688e-07
7.30254e-08
-1.61e-07
6.98825e-08
-1.77118e-07
7.26698e-08
-1.92974e-07
6.15037e-08
-1.85552e-07
2.80338e-08
-8.40795e-08
3.26599e-08
-1.97882e-07
-3.97804e-08
-8.5303e-08
4.70233e-08
-1.86041e-07
-1.90028e-08
-1.55438e-07
-3.76699e-08
-1.75841e-07
2.4195e-09
-1.7205e-07
-2.03244e-08
-1.53024e-07
-2.84435e-09
-1.3382e-07
1.12037e-08
-6.2773e-08
2.91115e-08
-1.79608e-07
2.20559e-08
-1.7373e-07
1.71e-08
-1.67038e-07
3.24568e-09
-1.37927e-07
-2.49134e-08
-1.25513e-07
-5.71119e-08
-1.09448e-07
-7.61963e-08
-1.20643e-07
-6.07465e-08
-1.4844e-07
-2.86961e-08
-1.54332e-07
-3.2397e-08
-1.71999e-07
-1.10608e-08
-1.9335e-07
-1.32972e-08
-2.08492e-07
-1.76829e-08
-2.73432e-07
-4.75043e-08
-2.59726e-07
1.67151e-08
-1.16927e-07
4.5974e-08
-1.41293e-07
-8.97344e-09
-1.94175e-07
-1.72033e-08
-1.25672e-07
2.39999e-08
-1.5133e-07
8.20605e-08
-1.54631e-07
4.345e-08
-1.7089e-07
2.44862e-08
-1.74694e-07
2.22182e-09
-2.04391e-07
3.9383e-08
-2.05794e-07
7.12115e-09
-1.79314e-07
-6.61923e-09
-2.20261e-07
-6.54743e-09
-2.3463e-07
6.98885e-09
-1.47453e-07
4.31482e-08
-1.7483e-07
1.24294e-08
-1.67711e-07
-4.63505e-09
-2.48058e-07
-1.46209e-08
-1.95454e-07
2.88866e-08
-2.1753e-07
4.16339e-08
-2.23065e-07
2.79223e-08
-1.40848e-07
5.54928e-08
-1.45594e-07
-8.75801e-09
-2.21306e-07
-6.02265e-08
-1.77745e-07
-5.06712e-08
-1.67144e-07
1.57315e-08
-1.74592e-07
-1.54556e-08
-1.01659e-07
3.31882e-08
-2.44379e-07
-1.17333e-08
7.79633e-08
-1.7118e-07
-1.52228e-07
-1.95679e-07
-6.04252e-08
-1.81156e-07
-7.76467e-08
-2.00135e-07
-5.10492e-08
-2.09816e-07
-8.33605e-08
-1.80614e-07
-4.86461e-08
-1.71874e-07
-6.75258e-08
-2.00203e-07
-7.36386e-09
-1.96113e-07
-4.3809e-08
-2.2724e-07
-1.45297e-08
-2.55081e-07
1.98914e-08
-3.15208e-07
6.95454e-09
-2.14428e-07
1.79885e-08
-3.26921e-07
-1.9371e-08
-2.75728e-07
-5.54084e-08
-2.33159e-07
-2.11581e-08
-2.69591e-07
3.12198e-08
-2.70008e-07
2.98494e-08
-2.1585e-07
6.03323e-08
-2.13756e-07
6.83492e-08
-1.79331e-07
2.89628e-08
-1.611e-07
9.80217e-09
-1.52503e-07
2.21726e-08
-1.19558e-07
6.86672e-08
-2.15915e-07
4.64774e-09
-2.45474e-07
1.05561e-08
-1.41862e-07
1.14424e-10
-2.27869e-07
-5.01122e-08
-2.08709e-07
-3.96805e-08
-1.86329e-07
-2.50012e-08
-1.71185e-07
-7.5871e-09
-1.55492e-07
1.29846e-08
-1.73635e-07
-4.81627e-09
-1.58637e-07
2.08037e-09
-9.9722e-08
-7.92045e-09
-6.33086e-08
-6.06872e-08
-7.00321e-08
-5.15479e-08
-1.03653e-07
-4.32896e-08
-1.45669e-07
-2.08355e-08
-2.08879e-07
-1.2913e-08
-2.08716e-07
1.6222e-08
-2.08828e-07
-1.09487e-08
-2.08185e-07
-1.39393e-08
-2.15317e-07
-1.05506e-08
-2.36916e-07
-2.56823e-08
-2.4789e-07
2.76896e-08
-1.97194e-07
-2.70966e-09
-1.82347e-07
-2.38198e-08
-2.03556e-07
-4.46805e-08
-1.22951e-07
-9.70864e-09
-2.26538e-07
-9.54824e-10
-1.88998e-07
5.25614e-08
-2.16141e-07
5.16293e-08
-1.42414e-07
6.98997e-08
-2.32418e-07
-9.05974e-09
-2.25212e-07
-2.45526e-09
-2.11019e-07
-2.08118e-08
-1.94969e-07
-2.23693e-08
-1.82042e-07
-5.93852e-09
-1.58349e-07
1.9016e-08
-1.68068e-07
2.21487e-08
-1.8475e-07
1.20469e-08
-2.08217e-07
8.69675e-09
-1.81928e-07
2.62504e-09
-2.15309e-07
7.50153e-08
-2.23848e-07
3.64623e-08
-1.65688e-07
-2.66754e-09
-1.78697e-07
4.25176e-09
-2.26889e-07
-1.43489e-08
-1.42001e-07
5.83562e-09
-2.56433e-07
-5.55558e-08
-1.65431e-07
7.93353e-08
-1.6005e-07
2.74702e-08
-1.62569e-07
-7.55459e-09
1.66297e-08
-1.44418e-07
-8.85079e-08
-1.6323e-07
-1.15386e-07
-1.59747e-07
-7.94822e-08
-2.03262e-07
-5.58161e-08
-2.20524e-07
-1.96492e-08
-2.34661e-07
-3.69047e-08
-1.5445e-07
-6.34309e-09
-2.80675e-07
-6.61665e-08
-2.63386e-07
-1.44492e-08
-2.55075e-07
-2.29278e-08
-2.8531e-07
4.94186e-08
-3.1571e-07
3.73528e-08
-2.06345e-07
5.04954e-08
-3.41908e-07
-2.58002e-08
-2.77409e-07
1.51015e-08
-2.73529e-07
-2.4999e-08
-3.5605e-07
-7.56371e-08
-3.13545e-07
-1.22185e-08
-2.44813e-07
4.25843e-08
-2.43626e-07
2.47958e-08
-2.11552e-07
4.30666e-08
-2.25847e-07
2.19381e-08
-2.33771e-07
3.00959e-08
-2.43514e-07
3.10576e-08
-2.42274e-07
3.37233e-09
-2.34169e-07
4.83976e-09
-1.93458e-07
5.58182e-09
-2.18271e-07
-2.80705e-08
-1.94558e-07
-6.14099e-08
-1.54887e-07
-6.49243e-08
-1.29541e-07
-3.31927e-08
-1.0774e-07
-7.85939e-09
-1.33594e-07
2.12994e-08
-1.22462e-07
-9.16468e-09
-1.14278e-07
-1.75175e-08
-1.19398e-07
-5.85698e-08
-1.74994e-07
-4.31697e-08
-1.66969e-07
-2.87782e-09
-1.8958e-07
1.77549e-09
-2.06725e-07
4.36419e-09
-1.90622e-07
1.19536e-10
-1.94539e-07
-7.03151e-09
-1.97749e-07
-1.0729e-08
-2.20149e-07
9.7028e-09
-1.2399e-07
1.95541e-08
-2.14681e-07
-2.01005e-08
-2.05727e-07
-1.15461e-08
-2.17757e-07
-1.20322e-08
-2.63299e-07
8.62047e-10
-1.90731e-07
5.76755e-08
-2.2878e-07
3.70942e-08
-2.30821e-07
5.46028e-08
-2.17782e-07
3.85906e-08
-1.98838e-07
6.33381e-09
-2.12536e-07
5.02198e-08
-2.22658e-07
5.49851e-09
-2.3103e-07
-1.00829e-08
-1.79972e-07
-7.34269e-08
-1.61707e-07
-2.60386e-08
-1.61264e-07
1.83856e-08
-1.45688e-07
6.57308e-09
-1.46251e-07
1.26096e-08
-1.59821e-07
2.06367e-08
-7.78306e-08
6.2029e-08
-1.88085e-07
-5.37934e-10
-1.75195e-07
2.38158e-08
-1.62375e-07
3.1163e-08
-1.69258e-07
1.11351e-08
-1.81074e-07
-2.5323e-09
-1.74989e-07
-2.09356e-09
-1.64955e-07
7.75048e-08
-2.13467e-07
-9.02325e-09
-1.61931e-07
-2.6242e-08
-6.82951e-08
3.87616e-08
1.54992e-08
-7.35051e-08
-1.03464e-07
-1.91708e-07
-8.02806e-08
-1.74314e-07
-9.9644e-08
-1.9648e-07
-3.56553e-08
-2.19985e-07
-4.32766e-08
-2.04733e-07
-3.26282e-09
-2.05531e-07
-5.48151e-09
-2.57395e-07
-1.41597e-08
-2.7465e-07
3.14446e-12
-1.93472e-07
3.92808e-08
-2.90182e-07
9.54328e-09
-2.59583e-07
3.79137e-09
-2.18548e-07
9.45957e-09
-2.48081e-07
3.46814e-09
-2.30528e-07
-2.58093e-09
-2.33503e-07
-2.177e-08
-2.78644e-07
-2.97258e-08
-2.81412e-07
-9.32728e-09
-2.5711e-07
1.78467e-08
-2.63304e-07
3.13079e-08
-2.48933e-07
2.91332e-08
-2.47614e-07
2.06185e-08
-2.39212e-07
2.16932e-08
-2.52569e-07
3.39243e-10
-2.10789e-07
7.77085e-09
-2.06937e-07
-1.1634e-09
-1.71804e-07
-3.12479e-08
-1.9932e-07
-4.71997e-08
-1.75435e-07
-3.66118e-08
-1.27983e-07
2.69132e-08
-1.29856e-07
-3.13206e-08
-1.23966e-07
-1.38289e-08
-2.54142e-07
-3.52695e-08
-1.92344e-07
-2.63682e-08
-2.23162e-07
-3.40112e-08
-2.12878e-07
-1.77547e-08
-2.32495e-07
-2.31162e-08
-2.05994e-07
-3.14297e-08
-2.04727e-07
5.13426e-10
-1.99451e-07
-9.10655e-10
-1.80936e-07
-1.83957e-08
-1.8123e-07
-6.73662e-09
-1.71707e-07
-2.20032e-08
-1.92828e-07
-1.63069e-08
-1.4713e-07
2.37759e-08
-1.69034e-07
3.51082e-09
-1.89489e-07
7.20248e-09
-2.24966e-07
2.15113e-08
-2.51546e-07
2.74432e-08
-2.34051e-07
4.01801e-08
-2.11894e-07
1.50921e-08
-2.23181e-07
6.52244e-08
-2.35333e-07
5.07427e-08
-1.44632e-07
5.70604e-08
-2.13453e-07
-1.89898e-08
-1.98398e-07
-1.17339e-08
-2.23313e-07
-3.18175e-08
-1.25331e-07
1.44435e-08
-1.20908e-07
-2.92279e-08
-1.83721e-07
-5.73384e-08
-1.57849e-07
-2.11735e-08
-1.44344e-07
-8.9521e-10
-1.15383e-07
-8.40937e-09
-1.11206e-07
5.66414e-08
-1.42493e-07
2.92958e-08
-1.54241e-07
3.55641e-08
-1.44151e-07
2.26479e-08
-1.59078e-07
2.60621e-08
-1.89525e-07
2.79149e-08
-1.23221e-07
7.15547e-08
-2.29049e-07
-4.05938e-09
-2.37452e-07
-7.10834e-10
-8.29801e-08
5.88941e-09
-5.17006e-08
8.01053e-09
-1.53108e-08
-6.66595e-08
6.02874e-09
-2.27122e-07
-1.05566e-07
-1.88184e-07
-1.36266e-07
-1.94411e-07
-2.943e-08
-1.92373e-07
-4.48735e-08
-1.84684e-07
-1.0953e-08
-1.76877e-07
-1.14859e-08
-1.96734e-07
5.75516e-09
-1.77427e-07
-2.1313e-08
-1.83723e-07
4.51749e-08
-2.21145e-07
4.11519e-10
-1.78683e-07
-3.86723e-08
-1.37847e-07
1.5273e-08
-1.58151e-07
2.51279e-08
-1.48711e-07
-1.20221e-08
-1.583e-07
-1.36994e-08
-1.73957e-07
-1.4071e-08
-1.81337e-07
-1.94835e-09
-1.89609e-07
2.41834e-08
-1.89378e-07
3.10758e-08
-1.78021e-07
1.97065e-08
-1.47425e-07
-1.00815e-08
-1.37126e-07
1.13941e-08
-1.73089e-07
3.59346e-08
-1.41019e-07
-2.44702e-08
-1.61168e-07
1.89842e-08
-1.48366e-07
-4.25368e-08
-1.78134e-07
-1.69549e-08
-7.5203e-08
-1.40941e-09
-1.85793e-07
-4.90988e-08
-1.48831e-07
-2.18554e-08
-1.89418e-07
2.48258e-08
-2.32964e-07
-3.88554e-08
-1.98118e-07
-1.21871e-08
-2.20661e-07
-1.11209e-08
-2.20992e-07
-1.74234e-08
-2.40505e-07
-4.80353e-08
-2.17897e-07
-1.00585e-08
-2.34546e-07
-3.22146e-08
-2.23129e-07
-9.93463e-09
-2.0304e-07
8.16657e-09
-1.9976e-07
-1.00163e-08
-1.78687e-07
-4.35201e-08
-1.90628e-07
-4.19921e-09
-2.00086e-07
3.28992e-08
-2.10875e-07
1.43358e-08
-2.4754e-07
4.39414e-08
-2.75622e-07
5.0105e-08
-2.80936e-07
3.30952e-08
-2.6342e-07
1.97755e-08
-1.61694e-07
5.64268e-08
-2.4426e-07
1.08859e-08
-1.95795e-07
-2.14261e-10
-1.74979e-07
3.58789e-08
-1.84844e-07
-9.31863e-09
-1.72796e-07
-2.37816e-08
-1.70344e-07
-3.46221e-08
-1.41243e-07
-1.46573e-08
-1.51147e-07
-1.93239e-08
-1.86684e-07
-2.23859e-08
-2.01568e-07
-6.2888e-09
-2.18596e-07
1.39031e-08
-1.23307e-07
3.89669e-08
-1.91784e-07
-1.21742e-08
-1.80391e-07
1.59463e-08
-1.83709e-07
3.85197e-08
-1.88133e-07
2.7072e-08
-1.94574e-07
3.2504e-08
-1.73348e-07
6.68971e-09
-1.63259e-07
1.48151e-08
-1.84e-07
1.66824e-08
-2.04827e-07
2.01177e-08
-7.02807e-08
5.79464e-08
-7.11322e-08
8.86285e-09
-6.45253e-08
-1.11628e-07
-9.7792e-08
-1.26616e-07
-1.27182e-07
-1.8568e-07
-2.66773e-08
-1.56296e-07
-5.88145e-08
-1.67327e-07
-3.38438e-08
-1.70442e-07
-7.83938e-09
-1.44023e-07
-3.93746e-08
-1.85457e-07
1.15495e-10
-7.66249e-08
5.83478e-08
-2.06358e-07
3.49556e-08
-2.34083e-07
-1.83283e-08
-8.89617e-08
2.83586e-09
-8.91534e-08
1.63729e-08
-1.55484e-07
-4.70809e-08
-1.48596e-07
-2.06205e-08
-1.57568e-07
-4.7283e-09
-1.59611e-07
-1.20301e-08
-1.55215e-07
-6.34512e-09
-1.53202e-07
2.19449e-08
-1.50684e-07
2.82399e-08
-1.64754e-07
3.20942e-08
-8.557e-08
5.21278e-08
-9.75221e-08
2.52131e-08
-1.82984e-07
-1.89907e-08
-8.95599e-08
2.1613e-08
-2.02297e-07
-5.39682e-08
-1.48101e-07
-5.0599e-08
-1.65353e-07
1.2352e-10
-1.60218e-07
-6.54496e-09
-2.08349e-07
-3.09306e-09
-1.07837e-07
1.90266e-08
-2.32656e-07
-3.58575e-08
-2.17196e-07
-7.26874e-09
-2.17329e-07
-1.20542e-08
-2.2144e-07
-7.00984e-09
-2.22839e-07
-1.60233e-08
-2.31403e-07
-3.98783e-08
-2.35805e-07
-5.75877e-09
-2.58397e-07
-9.29342e-09
-2.53132e-07
-1.51991e-08
-2.44873e-07
-9.21126e-11
-2.60051e-07
2.50871e-09
-1.90332e-07
2.81553e-08
-1.94907e-07
4.30643e-09
-2.63901e-07
-3.6645e-08
-2.51549e-07
-7.14984e-10
-3.0406e-07
-4.66003e-08
-2.99162e-07
-5.00712e-09
-2.714e-07
1.12137e-08
-2.51844e-07
4.91403e-08
-1.81916e-07
-1.66462e-08
-2.04132e-07
3.32134e-08
-1.03624e-07
4.02871e-08
-1.7234e-07
-3.3943e-08
-1.52775e-07
-3.09576e-08
-1.36548e-07
-4.14007e-08
-1.42555e-07
-2.86153e-08
-1.46728e-07
-9.02972e-09
-1.47345e-07
-1.87061e-08
-1.71248e-07
1.53258e-09
-1.73561e-07
-3.97531e-09
-1.76703e-07
1.70454e-08
-1.85208e-07
4.70751e-08
-2.02715e-07
5.2087e-09
-1.84947e-07
-1.82089e-09
-2.1867e-07
7.22432e-08
-2.10791e-07
1.91934e-08
-2.13218e-07
-1.17191e-08
-1.77232e-07
1.7354e-08
-1.79764e-07
1.73477e-08
-1.65953e-07
2.8723e-09
-1.62222e-07
1.63879e-08
-1.34254e-07
2.99803e-08
-1.60226e-07
3.32007e-08
2.30139e-08
-1.56241e-07
-1.42939e-07
-1.06983e-07
-1.59661e-07
-1.38465e-07
5.83604e-09
-1.36905e-07
-6.03761e-08
-1.7622e-07
5.47052e-09
-2.08295e-07
-2.24164e-08
-1.228e-07
6.17318e-08
-1.46904e-07
2.42164e-08
-9.4577e-08
6.02002e-09
-1.9365e-07
-5.0599e-08
-1.74736e-07
7.17093e-09
-6.17513e-08
2.94431e-08
-1.6213e-07
-2.25713e-08
-1.57902e-07
-5.23239e-08
-1.65728e-07
-1.2796e-08
-1.83398e-07
1.28095e-08
-1.81536e-07
-1.38931e-08
-1.7459e-07
-1.15111e-08
-1.49801e-07
-2.84568e-09
-1.33516e-07
1.03202e-08
-1.29782e-07
2.83595e-08
-1.15984e-07
3.81858e-08
-1.3869e-07
4.79188e-08
-1.47817e-07
-1.00584e-08
-1.26916e-07
4.90511e-10
-1.53078e-07
-2.93687e-08
-6.42696e-08
1.98575e-09
-1.71725e-07
-3.17171e-08
-1.68856e-07
-9.41486e-09
-1.69052e-07
-2.89709e-09
-1.49753e-07
-4.66796e-10
-1.88547e-07
2.93599e-09
-1.84108e-07
-1.17079e-08
-1.90222e-07
-5.93985e-09
-1.90081e-07
-7.15035e-09
-1.97127e-07
-1.09882e-08
-1.12165e-07
1.65537e-08
-2.3084e-07
-2.61573e-08
-2.1102e-07
-2.91131e-08
-2.22917e-07
-3.30252e-09
-2.32473e-07
9.46464e-09
-2.28419e-07
-1.54466e-09
-1.94421e-07
-6.12964e-09
-2.17267e-07
2.68782e-08
-2.57433e-07
5.21328e-10
-2.70428e-07
1.22804e-08
-2.27192e-07
5.28745e-08
-2.51419e-07
1.92714e-08
-2.52627e-07
1.23079e-08
-2.46045e-07
-3.5907e-09
-1.20206e-07
4.36725e-08
-1.77884e-07
-4.90598e-08
-1.3999e-07
2.369e-09
-1.46514e-07
-2.92596e-08
-1.37973e-07
-3.90951e-08
-1.16185e-07
-6.24181e-08
-1.26916e-07
-1.75917e-08
-1.5677e-07
2.08244e-08
-1.30473e-07
-4.63331e-08
-1.62709e-07
-1.33627e-08
-1.43302e-07
2.49282e-08
-1.46949e-07
2.06929e-08
-2.0525e-07
5.8133e-08
-2.09553e-07
5.61626e-08
-1.30036e-07
5.86142e-08
-2.41025e-07
-3.36955e-09
-1.95708e-07
2.05274e-08
-1.94335e-07
-1.30918e-08
-1.7478e-07
-2.22329e-09
-1.8131e-07
2.38791e-08
-2.00031e-07
2.15934e-08
-1.93641e-07
9.9989e-09
-1.82039e-07
1.83808e-08
-1.73082e-07
2.42446e-08
1.07199e-08
-2.19006e-07
-1.27739e-07
-1.60605e-07
-4.72546e-08
-2.21772e-07
-6.9915e-08
-2.11445e-07
-7.29661e-08
-1.99449e-07
-6.52694e-09
-2.18647e-07
-3.21946e-09
-1.7561e-07
1.86937e-08
-1.64563e-07
1.31686e-08
-1.65555e-07
7.01127e-09
-1.60016e-07
-5.61399e-08
-1.45622e-07
-7.15109e-09
-1.42564e-07
2.60841e-08
-2.17033e-07
4.9682e-08
-1.64179e-07
3.62148e-08
-1.514e-07
-2.21314e-08
-2.29401e-07
-4.77287e-08
-2.20805e-07
-2.48308e-08
-2.02201e-07
-3.01164e-08
-1.85849e-07
-6.46413e-08
-1.67944e-07
3.82075e-08
-1.82753e-07
3.99979e-08
-1.6626e-07
2.16916e-08
-1.81966e-07
1.8669e-08
-1.86749e-07
4.13742e-08
-1.8042e-07
-5.83877e-09
-1.54074e-07
-5.57159e-08
-1.3944e-07
-1.26685e-08
-1.86459e-07
1.51463e-08
-1.96939e-07
1.06478e-09
-1.85193e-07
-1.46437e-08
-1.79751e-07
-5.90823e-09
-1.82296e-07
5.48079e-09
-1.95325e-07
1.32098e-09
-1.9954e-07
-1.7247e-09
-1.98983e-07
-7.70819e-09
-2.01921e-07
-8.0496e-09
-1.73155e-07
-1.41474e-08
-2.15573e-07
-3.08706e-08
-2.1619e-07
2.03544e-08
-2.15115e-07
-4.42228e-09
-2.44169e-07
3.813e-08
-2.64791e-07
1.90777e-08
-1.56294e-07
2.69198e-08
-2.44921e-07
-2.30325e-08
-2.36868e-07
-1.00304e-08
-2.09317e-07
-1.53949e-08
-1.97786e-07
4.09264e-08
-1.91006e-07
1.24917e-08
-1.79887e-07
1.18909e-09
-1.83123e-07
1.51327e-09
-1.44661e-07
5.21148e-09
-6.53131e-08
1.07346e-08
-1.36735e-07
-6.54074e-08
-1.39437e-07
-2.65292e-08
-1.88158e-07
8.1209e-09
-1.22947e-07
1.18252e-08
-1.24067e-07
-1.5217e-08
-2.29314e-07
-6.05297e-08
-1.3189e-07
4.2845e-08
-1.21907e-07
-2.32088e-08
-1.22629e-07
2.53911e-08
-1.11567e-07
1.07702e-08
-1.88259e-07
-3.71364e-09
-1.69529e-07
3.55123e-08
-1.49953e-07
3.90393e-08
-1.61047e-07
7.72459e-09
-1.42276e-07
1.75744e-09
-1.47975e-07
-8.90188e-09
-1.65339e-07
1.51407e-08
-1.72851e-07
3.30787e-08
-1.78682e-07
2.74247e-08
-1.58025e-07
-1.07666e-08
-1.80415e-07
4.0772e-08
-1.79881e-07
2.37125e-08
1.94487e-08
-1.44209e-07
-1.76827e-07
-2.04627e-07
-1.9149e-08
-2.12407e-07
-5.8674e-08
-2.13528e-07
-2.51956e-08
-1.96659e-07
-2.33963e-08
-1.92547e-07
-7.33292e-09
-1.85251e-07
1.13964e-08
-1.86423e-07
1.43402e-08
-2.39409e-07
1.3345e-08
-1.55029e-07
4.60813e-08
-1.7029e-07
8.0263e-09
-1.51434e-07
7.22675e-09
-2.42624e-07
-4.57312e-08
-2.04215e-07
-4.80665e-10
-1.87676e-07
7.50735e-09
-2.15693e-07
-2.21147e-08
-2.34327e-07
-6.19757e-09
-2.48808e-07
-1.81752e-08
-1.50482e-07
-2.02319e-08
-2.30043e-07
-2.11885e-08
-2.35772e-07
-3.77633e-09
-2.09966e-07
4.47191e-08
-2.1608e-07
2.47816e-08
-2.30338e-07
8.98108e-09
-2.55209e-07
1.90317e-08
-1.79448e-07
5.51239e-08
-1.65331e-07
-2.48456e-08
-2.39733e-07
-4.89906e-08
-2.17052e-07
-2.40629e-08
-2.05697e-07
-2.5999e-08
-1.96133e-07
-1.54717e-08
-1.75963e-07
-1.46895e-08
-1.87624e-07
1.29813e-08
-1.84482e-07
-4.86639e-09
-1.91776e-07
-4.14175e-10
-1.87919e-07
-1.19061e-08
-1.84014e-07
-1.80526e-08
-2.03628e-07
-1.09416e-08
-2.11163e-07
2.57359e-08
-1.25223e-07
5.23224e-08
-2.20748e-07
-3.61825e-09
-2.13128e-07
9.20607e-09
-1.96246e-07
1.00378e-08
-2.13457e-07
-6.05624e-09
-2.24273e-07
7.86738e-10
-9.55735e-08
-3.16795e-09
-1.86468e-07
-6.64929e-09
-1.66293e-07
-9.58507e-09
-1.5672e-07
-8.38355e-09
-1.58449e-07
3.24208e-09
-1.61384e-07
8.28479e-09
-1.40118e-07
-1.19604e-08
-8.17603e-08
1.6955e-08
-1.00966e-07
-6.48861e-09
-2.05161e-07
-2.75526e-08
-1.69664e-07
-2.37922e-08
-1.64478e-07
-2.04023e-08
-2.06203e-07
-1.88045e-08
-1.99882e-07
-1.01265e-08
-7.42638e-08
3.85332e-08
-1.55512e-07
-3.18982e-08
-1.46913e-07
5.84698e-10
-1.54823e-07
4.15933e-09
-1.38851e-07
1.95399e-08
-1.21676e-07
2.18656e-08
-1.19646e-07
5.69453e-09
-1.11399e-07
-6.48905e-09
-1.28341e-07
8.04114e-09
-1.51461e-07
3.81065e-08
-1.536e-07
3.48627e-08
-1.63921e-07
3.57094e-08
-7.78111e-08
4.40648e-08
-1.81607e-07
5.41198e-09
-1.79031e-07
1.93107e-08
1.23283e-08
-1.29078e-07
-2.4485e-09
-2.91949e-07
-3.20979e-08
-2.49508e-07
-9.81373e-08
-2.61985e-07
-1.27201e-08
-2.34235e-07
-5.11475e-08
-2.32969e-07
-8.59974e-09
-2.1873e-07
-2.84398e-09
-2.23943e-07
1.95521e-08
-2.36627e-07
2.60285e-08
-2.02671e-07
1.4191e-08
-1.69774e-07
-2.48719e-08
-1.78107e-07
1.36877e-08
-2.12298e-07
-1.1542e-08
-2.01093e-07
-1.16869e-08
-1.82008e-07
-1.15021e-08
-1.74098e-07
-3.03358e-08
-2.12028e-07
3.1732e-08
-2.12585e-07
-1.97884e-08
-1.03695e-07
1.24794e-08
-1.94058e-07
-6.99367e-08
-2.37286e-07
3.94892e-08
-2.14398e-07
2.18307e-08
-2.18298e-07
2.86807e-08
-2.26789e-07
1.74706e-08
-2.27006e-07
1.92484e-08
-2.18099e-07
1.79089e-09
-1.83606e-07
-1.30281e-08
-2.05432e-07
-2.95385e-08
-2.04741e-07
-2.47544e-08
-1.99253e-07
-3.14868e-08
-1.92162e-07
-2.25634e-08
-1.84802e-07
-2.20498e-08
-1.61962e-07
-9.85912e-09
-1.53137e-07
-1.36911e-08
-1.54541e-07
9.90152e-10
-1.64448e-07
-1.99886e-09
-1.77981e-07
-4.52027e-09
-1.87174e-07
-1.74773e-09
-1.74251e-07
1.28133e-08
-1.49261e-07
2.67982e-08
-1.69885e-07
1.697e-08
-1.85239e-07
2.45598e-08
-2.05944e-07
3.07432e-08
-1.83232e-07
-2.87674e-08
-2.15101e-07