/*--------------------------------*- C++ -*----------------------------------*\
  =========                 |
  \\      /  F ield         | OpenFOAM: The Open Source CFD Toolbox
   \\    /   O peration     | Website:  https://openfoam.org
    \\  /    A nd           | Version:  12
     \\/     M anipulation  |
\*---------------------------------------------------------------------------*/
FoamFile
{
    format      ascii;
    class       surfaceScalarField;
    location    "0.25";
    object      phi.water;
}
// * * * * * * * * * * * * * * * * * * * * * * * * * * * * * * * * * * * * * //

dimensions      [0 3 -1 0 0 0 0];

internalField   nonuniform List<scalar> 
7375
(
-1.37283e-07
-1.07392e-07
3.16237e-08
-1.63759e-07
1.78243e-07
-6.24343e-09
8.44995e-08
-4.78768e-08
7.7235e-08
-4.00089e-08
1.00637e-07
2.27784e-08
6.99117e-08
3.19819e-08
8.58692e-08
-1.68368e-08
9.96272e-08
-1.36197e-08
1.07997e-07
-7.2162e-09
1.18945e-07
-9.72196e-09
1.27583e-07
-8.819e-09
1.3914e-07
-1.27895e-08
1.32021e-07
5.78915e-09
1.25688e-07
6.33386e-09
1.21936e-07
5.1079e-09
1.21798e-07
1.50391e-10
1.33884e-07
-1.06546e-08
1.36874e-07
-2.97702e-09
1.54001e-07
-1.85526e-08
1.60333e-07
-6.42009e-09
1.39357e-07
2.10012e-08
1.11247e-07
2.72261e-08
1.28539e-07
-1.74662e-08
1.64344e-07
-3.6556e-08
1.60554e-07
5.35898e-09
1.36074e-07
-2.05868e-08
1.71543e-07
9.80863e-09
1.88732e-07
-1.51925e-08
1.19975e-07
2.15174e-08
1.44997e-07
2.05373e-08
1.71372e-07
-2.86018e-08
1.77501e-07
-6.12984e-09
1.60471e-07
1.879e-08
1.55759e-07
4.7194e-09
1.60839e-07
-4.95192e-09
1.61973e-07
-1.02176e-09
1.60522e-07
1.48911e-09
1.59188e-07
1.28919e-09
1.826e-07
-2.40075e-08
1.60971e-07
1.97695e-08
1.71711e-07
-1.07399e-08
1.84927e-07
-1.13321e-08
2.0816e-07
-2.11009e-08
2.26784e-07
-2.09432e-08
2.29449e-07
-4.90528e-09
2.06016e-07
2.55494e-08
1.52383e-07
5.61632e-08
2.18143e-07
7.66502e-08
7.99099e-08
-5.39823e-09
1.88624e-07
3.0839e-08
7.5047e-08
-2.68918e-08
8.4022e-08
-9.20845e-09
1.0377e-07
-1.97477e-08
1.15068e-07
-1.02025e-08
1.14404e-07
6.68075e-10
2.45855e-07
8.51861e-09
1.56855e-07
-5.09246e-08
1.76815e-07
-1.99227e-08
1.75522e-07
3.01809e-09
1.50947e-07
2.62886e-08
2.67487e-07
2.36175e-08
8.20641e-08
-4.47097e-09
9.62093e-08
3.20346e-08
7.9359e-08
1.78925e-08
7.67815e-08
2.5316e-09
1.03355e-07
-2.70319e-08
8.78194e-08
1.5707e-08
9.24104e-08
-4.49928e-09
9.48093e-08
-2.33174e-09
1.02401e-07
-7.56846e-09
1.11823e-07
-8.1565e-09
1.17214e-07
-5.51867e-09
1.1811e-07
-2.11442e-09
-1.06039e-09
-2.25387e-07
-8.46585e-08
-2.41824e-07
-2.16961e-07
-1.58006e-07
-3.5946e-08
-1.57548e-07
-4.8333e-08
-5.98671e-08
2.26223e-09
-2.38008e-08
-1.32971e-08
-1.40451e-07
-3.98919e-08
-8.21824e-08
-2.61827e-08
-5.80905e-08
-3.72614e-08
-4.18448e-08
-2.38068e-08
-2.92546e-08
-2.30363e-08
-1.21294e-08
-2.5852e-08
-2.22674e-08
-2.52648e-09
-3.70096e-08
2.05329e-08
-3.45973e-08
3.98733e-09
-2.65394e-08
-2.6777e-09
-2.24956e-08
-3.89227e-09
7.8904e-09
-4.16939e-08
-4.94514e-10
5.43939e-09
4.73391e-09
-2.40247e-08
1.52358e-08
-1.70954e-08
1.25045e-08
2.38614e-08
-7.75473e-08
6.86407e-08
-6.26698e-08
1.47621e-08
3.6993e-08
5.4406e-09
-5.15241e-08
-4.44603e-08
-5.42321e-08
-1.81907e-08
-3.80532e-08
-6.92275e-09
5.06205e-08
3.55691e-08
-6.39388e-08
-3.32396e-09
-6.247e-08
1.77656e-08
-2.5194e-10
5.12183e-08
-1.34988e-08
7.05677e-09
-9.41287e-08
-4.09492e-08
-4.4716e-08
-4.42376e-08
-2.62977e-08
-2.33404e-08
-1.69072e-08
-1.07872e-08
-1.86064e-08
3.01557e-09
-3.37971e-08
1.57897e-08
1.61703e-08
2.11008e-08
-3.20234e-08
-2.47227e-08
-3.53784e-09
-3.96259e-08
2.66228e-08
-4.19166e-08
5.77881e-08
-5.19948e-08
1.06094e-07
-7.01181e-08
1.35052e-07
-3.56373e-08
1.50046e-07
1.04037e-08
1.45617e-07
6.06371e-08
1.33405e-07
9.1051e-08
6.87551e-08
6.12578e-08
3.22357e-08
6.63422e-08
-3.18603e-08
3.66049e-08
-1.09843e-07
2.16426e-08
-9.12268e-08
9.2059e-09
-6.18892e-08
-3.99478e-08
-5.15276e-08
-9.6933e-09
-2.15178e-09
-4.08573e-08
1.44886e-08
-6.75648e-08
1.17441e-09
-6.55369e-09
2.47789e-09
1.71482e-09
5.12962e-10
2.80157e-08
1.01237e-07
6.40438e-08
-4.63392e-08
2.12111e-09
-5.29473e-08
3.89695e-08
-7.58091e-08
4.15272e-08
-1.0195e-07
2.66131e-08
-2.26478e-08
3.54704e-08
-1.18561e-07
-2.78692e-08
-1.18013e-07
-3.8429e-09
-1.03521e-07
-1.6824e-08
-9.89309e-08
-1.22051e-08
-8.86743e-08
-1.84138e-08
-7.75473e-08
-1.74954e-08
-7.24415e-08
-7.96017e-09
3.69703e-09
-2.31937e-07
-3.90054e-08
-2.39788e-07
-1.32732e-07
-2.07077e-07
-1.1286e-07
-1.50114e-07
-5.8644e-08
-1.17417e-07
-3.04335e-08
-9.96616e-08
-3.10518e-08
-1.25408e-07
-1.37373e-08
-1.56254e-07
-4.19858e-08
-1.28512e-07
-1.74212e-08
-1.27796e-07
-2.4762e-08
-1.1665e-07
-3.54851e-08
-1.21618e-07
-2.06184e-08
-1.07321e-07
-1.68223e-08
-8.56555e-08
-1.13123e-09
-7.85285e-08
-3.13829e-09
-8.42672e-08
3.09393e-09
-1.40609e-07
5.09769e-08
-7.48588e-08
3.39509e-08
-1.79233e-07
-3.12015e-08
-1.76336e-07
-2.90377e-08
-1.25644e-07
7.54261e-08
-1.09074e-07
9.68679e-09
-2.01434e-07
2.15521e-08
-1.69325e-07
-1.97522e-08
-1.51107e-07
-1.28328e-08
-1.97469e-07
1.44895e-09
-2.18362e-07
2.51811e-09
-2.26626e-07
1.34141e-09
-2.00622e-07
9.56554e-09
-2.29243e-07
2.55243e-08
-2.12882e-07
1.23594e-09
-2.06151e-07
4.39651e-08
-1.8837e-07
-1.2646e-08
-1.91845e-07
-3.70918e-08
-1.93907e-07
-4.21972e-08
-1.77124e-07
-4.21902e-08
-1.65091e-07
-2.11058e-08
-1.53169e-07
-7.29695e-09
-1.47001e-07
9.62086e-09
-1.269e-07
5.69143e-10
-1.15031e-07
-3.6844e-08
-1.07634e-07
-4.81213e-08
-1.25715e-07
-7.14001e-08
-1.08451e-07
-6.79766e-08
-6.96001e-08
-6.30286e-08
-4.9415e-08
-5.61901e-08
-1.28037e-08
-2.55977e-08
3.32962e-09
4.47001e-08
3.02154e-09
9.23284e-08
-1.88343e-08
8.33097e-08
-4.61864e-08
9.38863e-08
-1.28037e-07
1.18455e-07
-1.51567e-07
4.49515e-08
-1.56652e-07
1.2693e-08
-4.8651e-08
-6.55472e-09
-1.38713e-07
-5.90869e-08
-1.45378e-07
-3.41923e-08
-6.65594e-08
-5.75242e-09
-1.74878e-07
-3.67736e-08
-1.63898e-07
-1.092e-08
-1.40782e-07
4.8998e-09
-9.6628e-08
1.92364e-08
-1.27456e-07
3.32888e-08
-1.38055e-07
4.9568e-08
-1.28939e-07
3.24115e-08
-1.31673e-07
2.96176e-08
-1.18095e-07
2.1169e-08
-1.3178e-07
-1.41845e-08
-1.28199e-07
-7.42378e-09
-1.24628e-07
-2.05664e-08
-1.60077e-07
2.30094e-08
-1.66923e-07
-1.17565e-08
-1.69503e-07
-1.49171e-08
-1.4867e-07
-2.90911e-08
-8.61772e-09
-2.17313e-07
-8.27726e-08
-2.01086e-07
-1.24232e-07
-1.89648e-07
-7.55948e-08
-1.92308e-07
-5.59834e-08
-1.63673e-07
-5.96758e-08
-1.25188e-07
-6.95363e-08
-1.14999e-07
-2.39248e-08
-1.22059e-07
-3.49253e-08
-1.19148e-07
-2.03306e-08
-1.16653e-07
-2.75086e-08
-1.39134e-07
-1.30033e-08
-1.53203e-07
-5.31983e-08
-1.42813e-07
-2.72112e-08
-1.4115e-07
-2.79246e-09
-1.41761e-07
4.22467e-08
-6.40013e-08
6.60492e-08
-1.86857e-07
3.41868e-08
-1.89265e-07
3.60133e-08
-2.29973e-07
7.1618e-09
-1.18519e-07
1.21533e-09
-2.27967e-07
-1.28708e-09
-1.34151e-07
1.02794e-07
-2.63585e-07
1.00048e-08
-1.74568e-07
2.99089e-08
-1.63554e-07
-2.20653e-08
-2.40432e-07
-6.16234e-08
-2.58166e-07
2.02526e-08
-2.42192e-07
-1.46324e-08
-2.2366e-07
-1.13637e-08
-2.60975e-07
5.95365e-08
-1.87022e-07
7.0639e-08
-2.74773e-07
-6.26336e-09
-2.31254e-07
-5.4361e-08
-2.30137e-07
-3.78344e-08
-2.46535e-07
-2.78629e-08
-2.4964e-07
-3.86546e-08
-2.44194e-07
-2.88276e-08
-2.29589e-07
-2.19023e-08
-1.91134e-07
-2.64929e-08
-1.55383e-07
-3.51816e-08
-1.54667e-07
-3.75613e-08
-1.57665e-07
-4.51233e-08
-1.73065e-07
-5.52719e-08
-1.77523e-07
-6.35191e-08
-1.76661e-07
-6.38914e-08
-1.73752e-07
-5.85261e-08
-1.44204e-07
-5.36742e-08
-1.39131e-07
3.92307e-08
-1.49449e-07
9.87595e-08
-8.07773e-08
1.55173e-07
-9.81033e-08
1.13191e-07
-1.93913e-07
2.76629e-08
-1.68876e-07
1.99148e-08
-1.55627e-07
-5.56148e-10
-1.21069e-07
5.60463e-09
-1.59989e-07
-2.01675e-08
-1.42571e-07
-5.21416e-08
-1.28677e-07
-1.96466e-08
-1.5427e-07
-9.98191e-09
-1.84353e-07
1.8972e-08
-1.82018e-07
6.83237e-10
-1.68096e-07
3.59999e-09
-1.76249e-07
-5.74927e-09
-1.50146e-07
7.19138e-08
-1.547e-07
3.69653e-08
-1.51072e-07
2.57273e-08
-1.69314e-07
-7.24024e-09
-1.40729e-07
3.88108e-09
-1.60347e-07
1.2194e-08
-6.97596e-08
2.95097e-08
-1.73237e-07
-1.2052e-08
-1.74035e-07
-1.28574e-08
-1.8234e-07
-8.47401e-09
-1.84218e-07
-2.72138e-08
-2.51123e-08
-1.85671e-07
-9.66532e-08
-1.65024e-07
-1.23824e-07
-2.17933e-07
-6.76519e-08
-1.80931e-07
-4.81798e-08
-2.14728e-07
-2.56132e-08
-1.21631e-07
-2.04907e-08
-1.85246e-07
-1.01293e-07
-1.54344e-07
-6.58266e-08
-1.62862e-07
-1.18112e-08
-1.11701e-07
-8.03065e-08
-1.25126e-07
4.18235e-10
-1.47137e-07
-3.11866e-08
-1.42093e-07
-3.22533e-08
-1.36095e-07
-7.32657e-09
-1.06785e-07
1.40164e-08
-8.36528e-08
4.20181e-08
-1.19007e-07
6.9398e-08
-1.55545e-07
7.06186e-08
-1.98547e-07
4.76529e-08
-1.20289e-07
6.36842e-08
-1.4306e-07
2.41712e-08
-1.95139e-07
1.63364e-08
-2.09508e-07
2.24856e-08
-1.89021e-07
9.11776e-09
-1.94764e-07
-1.63209e-08
-1.4308e-07
2.63753e-08
-2.52197e-07
-5.72318e-08
-2.17646e-07
-4.7528e-09
-1.07932e-07
2.14291e-08
-1.76137e-07
-8.52883e-09
-1.48821e-07
4.27664e-08
-1.86427e-07
2.79571e-08
-1.25507e-07
2.41914e-08
-1.39049e-07
-2.19796e-08
-2.44953e-07
-6.0497e-08
-2.46485e-07
-3.96221e-08
-2.39358e-07
-3.59551e-08
-2.15886e-07
-4.51514e-08
-1.85521e-07
-5.68576e-08
-1.62292e-07
-5.84111e-08
-1.44273e-07
-5.55812e-08
-1.4324e-07
-4.6156e-08
-1.66822e-07
-3.1691e-08
-1.67275e-07
-6.30665e-08
-1.94389e-07
-3.67772e-08
-2.39969e-07
-1.308e-08
-1.74318e-07
2.2635e-08
-2.3729e-07
-3.59389e-08
-2.04677e-07
6.37248e-08
-1.83133e-07
1.30178e-07
-1.82953e-07
6.588e-08
-1.56902e-07
5.0128e-08
-1.49913e-07
1.29257e-08
-1.58e-07
7.5314e-09
-1.64644e-07
1.22482e-08
-1.93139e-07
6.35782e-09
-1.29129e-07
2.55044e-08
-1.31355e-07
-1.6103e-08
-1.37013e-07
-2.92644e-09
-2.30007e-07
-2.63796e-08
-2.33996e-07
2.32519e-09
-2.3345e-07
6.72351e-10
-1.27937e-07
3.01909e-08
-2.23703e-07
2.90336e-08
-1.8376e-07
-1.10365e-09
-2.17612e-07
5.95795e-08
-2.04945e-07
-2.21277e-08
-2.00249e-07
-8.15016e-10
-2.09743e-07
2.14687e-08
-1.89245e-07
9.01229e-09
-2.22154e-07
1.86574e-08
-2.18641e-07
-1.63718e-08
-2.17076e-07
-7.80982e-09
-2.25403e-07
-1.861e-08
-2.07477e-08
-1.70076e-07
-1.22056e-07
-1.4743e-07
-1.27663e-07
-1.65533e-07
-4.85388e-08
-1.66764e-07
-4.57132e-08
-1.77111e-07
-1.51594e-08
-1.91141e-07
-1.01134e-08
-1.35699e-07
-1.51831e-08
-1.28538e-07
-7.23411e-08
-2.4285e-07
-4.19758e-08
-7.22967e-08
3.52601e-08
-1.64687e-07
-4.42687e-08
-1.56581e-07
-4.09714e-08
-1.53172e-07
-3.37538e-08
-1.26984e-07
-3.35131e-08
-1.15965e-07
1.84603e-09
-1.06354e-07
3.20798e-08
-1.22543e-07
4.04349e-08
-7.59506e-08
7.22113e-08
-1.05107e-07
7.7105e-08
-1.18462e-07
7.53355e-08
-1.50303e-07
5.48054e-08
-1.76863e-07
4.30634e-08
-1.97223e-07
4.32879e-08
-1.98754e-07
1.065e-08
-1.10587e-07
3.65929e-08
-1.69359e-07
-5.339e-08
-1.92619e-07
-3.56991e-08
-1.73996e-07
-2.33756e-08
-1.30886e-07
-2.18995e-08
-1.10571e-07
-3.0058e-08
-1.24779e-07
1.02839e-08
-1.1438e-07
6.57669e-08
-1.13301e-07
2.28652e-08
-1.43661e-07
8.38045e-09
-1.97565e-07
-7.20998e-09
-2.18025e-07
-1.9162e-08
-1.83659e-07
-7.10471e-08
-1.73799e-07
-5.44557e-08
-1.49007e-07
-8.08253e-08
-1.14893e-07
-9.25254e-08
-1.26026e-07
-4.44487e-08
-1.47321e-07
-2.48616e-08
-1.79321e-07
3.0536e-10
-2.23724e-07
-1.86641e-08
-2.226e-07
-4.0586e-08
-2.68157e-07
-1.74184e-08
-3.30767e-07
4.08769e-08
-2.06718e-07
7.62721e-08
-1.69013e-07
2.57567e-08
-2.41392e-07
1.57944e-08
-1.87161e-07
5.76269e-08
-1.53787e-07
1.69268e-08
-1.58278e-07
1.74166e-08
-1.91167e-07
4.00125e-08
-1.97403e-07
1.84844e-08
-1.94824e-07
1.79105e-09
-1.81094e-07
-3.59908e-08
-1.53469e-07
4.76979e-09
-1.68861e-07
1.24661e-08
-2.38347e-07
4.28368e-08
-2.45598e-07
9.57618e-09
-2.31089e-07
-1.38365e-08
-1.722e-07
-2.90066e-08
-2.38517e-07
4.82084e-08
-1.25307e-07
7.22883e-08
-2.64212e-07
1.24904e-08
-1.78687e-07
7.89484e-08
-1.74165e-07
-3.56033e-09
-2.24374e-07
-6.68604e-08
-2.08101e-07
-1.16726e-08
-2.27046e-07
-9.53012e-09
-2.03025e-07
8.83028e-09
-2.46764e-07
3.59276e-08
-2.43667e-07
-2.1708e-08
1.06228e-09
-2.0777e-07
-1.06859e-07
-2.16758e-07
-1.00436e-07
-1.9269e-07
-7.45918e-08
-1.69923e-07
-6.82449e-08
-1.45859e-07
-3.61235e-08
-1.2067e-07
-3.26099e-08
-1.11413e-07
-2.66302e-08
-2.04141e-08
-2.28825e-08
-9.89496e-08
-1.018e-07
-1.34868e-07
-6.97749e-08
-1.78254e-07
-2.70842e-09
-1.76733e-07
-4.1108e-08
-2.064e-07
-4.08533e-09
-1.76721e-07
-6.63149e-08
-1.85505e-07
8.65077e-09
-1.98402e-07
-2.15402e-09
-1.49781e-07
4.00771e-08
-1.46122e-07
6.92909e-08
-1.51289e-07
8.2221e-08
-1.55946e-07
8.15945e-08
-1.68623e-07
6.74832e-08
-1.5537e-07
2.8227e-08
-1.67808e-07
8.59554e-09
-1.53874e-07
4.55439e-08
-1.36146e-07
-2.77851e-08
-1.51453e-07
8.02368e-09
-1.83016e-07
-4.13511e-09
-1.83271e-07
-2.28868e-08
-1.89417e-07
-1.57529e-08
-7.53578e-08
-4.16551e-09
-9.56749e-08
3.01882e-08
-1.86991e-07
-2.98233e-08
-1.49845e-07
3.23701e-08
-1.5287e-07
1.14057e-08
-1.68812e-07
8.73151e-09
-1.57613e-07
-3.16462e-08
-4.61844e-08
-4.01919e-08
-1.34652e-07
-1.02701e-07
-1.53859e-07
-6.29778e-08
-1.01775e-07
-6.29264e-09
-1.25041e-07
-2.11827e-08
-1.24507e-07
-2.41255e-08
-2.1968e-07
-4.30607e-08
-2.21229e-07
-2.16134e-08
-2.4876e-07
-1.3055e-08
-2.53076e-07
-1.03872e-08
-2.51327e-07
-7.94074e-09
-1.82174e-07
8.88671e-09
-1.41475e-07
3.26658e-08
-1.65924e-07
3.8815e-08
-1.70488e-07
5.87581e-08
-1.01324e-07
8.91566e-08
-1.20948e-07
3.93086e-08
-2.34962e-07
1.54878e-08
-2.21127e-07
2.22979e-09
-2.29179e-07
7.5047e-09
-1.54135e-07
3.07304e-08
-1.47227e-07
-5.65432e-10
-1.34472e-07
-2.8901e-10
-2.3398e-07
-4.42574e-08
-2.18109e-07
-6.29526e-09
-2.37114e-07
5.16877e-09
-1.36549e-07
5.8423e-08
-2.32353e-07
5.47482e-09
-1.92634e-07
3.0199e-08
-2.00526e-07
2.03813e-08
-1.7807e-07
9.84242e-09
-1.77083e-07
-4.54795e-09
-1.64731e-07
-3.35871e-08
-1.94957e-07
1.8554e-08
-2.02422e-07
-4.03417e-09
-1.1896e-07
6.67613e-08
-2.53023e-07
-1.53996e-08
-2.32571e-07
4.48997e-09
-6.29581e-08
-2.13081e-07
-8.35726e-08
-2.16149e-07
-7.37251e-08
-1.89365e-07
-9.52322e-08
-1.99866e-07
-5.70471e-08
-1.89227e-07
-4.63928e-08
-1.95449e-07
-2.67198e-08
-2.04268e-07
-1.82689e-08
-1.91192e-07
-3.76744e-08
-1.45531e-07
-8.61461e-09
-1.99514e-07
-1.50101e-08
-3.15215e-07
-2.81378e-08
-2.38964e-07
2.40356e-08
-3.89391e-07
-4.18349e-08
-2.2585e-07
-3.90023e-08
-3.0154e-07
-5.24443e-08
-3.05394e-07
-1.35349e-09
-2.50365e-07
-1.51044e-08
-2.27189e-07
4.89327e-08
-2.08805e-07
6.23588e-08
-1.94976e-07
6.56149e-08
-1.65951e-07
4.004e-08
-1.51858e-07
1.41348e-08
-1.59851e-07
1.48709e-08
-1.80296e-07
1.88585e-08
-2.00826e-07
4.12355e-08
-2.03384e-07
1.05829e-08
-2.15546e-07
-3.64246e-08
-2.12555e-07
2.00994e-08
-2.26481e-07
-3.99463e-09
-8.91254e-08
-6.60438e-10
-1.89336e-07
-9.95034e-09
-2.06382e-07
-1.4579e-08
-1.64238e-07
-7.59073e-09
-1.39235e-07
-1.346e-08
-9.48249e-08
-3.4361e-08
-6.11319e-08
-6.4722e-08
-3.78555e-08
-6.43297e-08
-1.04253e-07
-3.77376e-08
-1.5564e-07
-1.38214e-08
-1.82203e-07
2.02698e-08
-1.94453e-07
-7.07382e-09
-1.76432e-07
-4.25816e-08
-2.08809e-07
-1.10107e-08
-2.06517e-07
-2.41524e-08
-2.60349e-07
4.09104e-08
-2.54226e-07
-1.65111e-08
-2.43465e-07
-1.62179e-08
-2.17481e-07
-1.70971e-08
-1.83403e-07
-3.29845e-09
-1.96514e-07
5.23217e-08
-1.80472e-07
8.93674e-08
-1.63771e-07
7.15458e-08
-1.76006e-07
5.15435e-08
-2.29391e-07
2.47203e-08
-2.2133e-07
3.99445e-08
-2.22245e-07
6.162e-09
-1.82839e-07
-8.9896e-09
-1.53427e-07
-2.99771e-08
-1.57076e-07
3.32598e-09
-1.79616e-07
-2.17169e-08
-1.91333e-07
5.42125e-09
-2.01991e-07
1.58264e-08
-1.74369e-07
3.08011e-08
-2.03516e-07
3.50352e-08
-1.90812e-07
1.74944e-08
-1.93306e-07
2.28753e-08
-1.93354e-07
9.89034e-09
-2.07372e-07
7.35463e-09
-1.19347e-07
1.97812e-08
-2.37562e-07
-4.86158e-08
-2.22188e-07
2.75225e-08
-1.99245e-07
-3.47903e-09
-2.40522e-07
2.58765e-08
-2.75565e-07
3.95316e-08
4.2277e-08
-2.55246e-07
-8.21843e-08
-1.56938e-07
-9.18774e-08
-1.70008e-07
-8.05766e-08
-1.65349e-07
-6.4094e-08
-2.05528e-07
-6.21211e-09
-2.18783e-07
-1.56967e-08
-2.55078e-07
-2.91037e-08
-2.36909e-07
-6.58956e-09
-2.45931e-07
4.96244e-10
-2.73176e-07
1.25169e-08
-2.90059e-07
-1.11402e-08
-2.8026e-07
1.39922e-08
-3.61661e-07
-7.08264e-09
-2.30715e-07
1.46992e-08
-2.77586e-07
-5.32446e-08
-3.64351e-07
-5.54234e-08
-3.17831e-07
-1.77683e-08
-2.76089e-07
7.62289e-09
-2.46298e-07
3.60568e-08
-2.12286e-07
3.56136e-08
-2.1111e-07
3.88652e-08
-2.29068e-07
2.99395e-08
-2.44856e-07
3.06604e-08
-2.52033e-07
2.58437e-08
-2.40708e-07
2.96088e-08
-2.44487e-07
1.43625e-08
-1.53519e-07
1.41262e-08
-2.34175e-07
-3.79626e-08
-2.16592e-07
-2.39669e-08
-8.57141e-08
9.28827e-09
-1.72754e-07
-5.98041e-08
-1.5312e-07
-3.42637e-08
-1.10317e-07
-5.08266e-08
-1.07741e-07
-1.60621e-08
-1.09086e-07
-3.44514e-08
-1.21593e-07
-5.52295e-08
-1.2691e-07
-5.96754e-08
-1.63725e-07
3.67436e-10
-1.89965e-07
1.24189e-08
-1.89937e-07
2.00349e-08
-2.11864e-07
1.26905e-08
-1.27914e-07
1.61812e-08
-2.22314e-07
-5.66756e-08
-1.35182e-07
2.78178e-08
-2.43823e-07
-3.56713e-08
-2.15116e-07
1.41723e-09
-2.21181e-07
-1.005e-08
-2.25981e-07
-1.24724e-08
-2.32231e-07
2.95157e-09
-2.52246e-07
2.56857e-08
-2.29844e-07
6.69651e-08
-2.17408e-07
5.91101e-08
-2.14283e-07
4.84179e-08
-2.45372e-07
5.83133e-08
-2.09812e-07
4.73925e-09
-2.10075e-07
4.28442e-09
-2.2447e-07
5.40626e-09
-1.20219e-07
6.94942e-09
-1.95e-07
-6.04313e-08
-1.43534e-07
-7.51722e-08
-1.44896e-07
6.71463e-09
-1.3983e-07
1.07604e-08
-1.41685e-07
3.12103e-08
-1.81269e-07
2.74877e-08
-1.35752e-07
2.06881e-08
-1.53767e-07
4.08903e-08
-1.66097e-07
2.22198e-08
-1.65195e-07
6.45213e-09
-1.48295e-07
2.67929e-09
-2.06305e-07
7.28898e-09
-2.0519e-07
-1.86089e-08
-1.95062e-07
3.46435e-08
-2.21046e-07
4.98684e-08
-2.48653e-07
2.04878e-08
-3.82038e-09
-2.44296e-07
-8.32033e-08
-1.87847e-07
-7.23444e-08
-1.92616e-07
-8.051e-08
-1.19637e-07
4.32167e-09
-2.17342e-07
-4.7237e-08
-2.15774e-07
-1.72636e-08
-2.41672e-07
-2.90747e-09
-2.48829e-07
5.62294e-10
-2.56838e-07
5.88607e-09
-2.82228e-07
-6.31409e-09
-2.61377e-07
1.70395e-08
-2.57111e-07
7.06051e-09
-2.69018e-07
4.8257e-09
-2.23224e-07
-3.10935e-08
-2.16151e-07
-5.97736e-08
-2.53919e-07
-1.74756e-08
-2.59315e-07
-1.21899e-08
-2.61936e-07
1.01666e-08
-2.4752e-07
2.12744e-08
-2.47468e-07
3.5929e-08
-2.41581e-07
3.3376e-08
-2.55188e-07
4.35479e-08
-2.55393e-07
3.08656e-08
-2.39176e-07
1.20681e-08
-2.14184e-07
4.61742e-09
-2.0072e-07
-1.2861e-09
-1.67164e-07
-2.11341e-08
-1.75411e-07
-2.97992e-08
-1.74958e-07
-2.26299e-08
-1.50157e-07
-6.21632e-08
-1.72699e-07
-3.78726e-08
-1.82451e-07
-2.48609e-08
-1.82544e-07
-4.64891e-09
-1.86492e-07
-1.41807e-08
-2.06431e-07
-1.48677e-08
-2.34428e-07
-2.51267e-08
-1.44173e-07
-7.8988e-09
-2.08317e-07
-7.4027e-08
-2.01232e-07
3.20809e-09
-1.88686e-07
7.48875e-09
-1.88976e-07
1.29799e-08
-1.81115e-07
6.30687e-09
-1.15211e-07
1.82304e-08
-1.95136e-07
-3.13179e-08
-2.02692e-07
-2.60471e-08
-1.84245e-07
-1.51699e-08
-1.94456e-07
-1.69998e-09
-2.21913e-07
1.30005e-08
-2.42252e-07
2.32906e-08
-2.33505e-07
1.71133e-08
-2.46403e-07
7.98628e-08
-2.04791e-07
1.74982e-08
-2.21127e-07
6.40995e-08
-2.21877e-07
1.46766e-08
-1.90675e-07
1.97639e-08
-1.81159e-07
-7.17682e-09
-1.63763e-07
-1.19897e-08
-1.67059e-07
-3.64047e-08
-1.98411e-07
-2.96964e-08
-8.55931e-08
-5.1474e-10
-1.60443e-07
-5.69739e-08
-1.20528e-07
-3.1109e-08
-1.52466e-07
6.31483e-08
-1.61386e-07
3.41324e-08
-5.86992e-08
5.93955e-08
-1.60259e-07
3.09703e-09
-1.40893e-07
2.85368e-09
-1.46755e-07
1.23134e-08
-1.60196e-07
1.61203e-08
-2.08211e-07
8.65379e-09
-2.14747e-07
3.47661e-08
-1.93288e-07
1.35369e-08
-2.05118e-07
1.50456e-08
-2.13881e-07
2.925e-08
3.65019e-08
-2.68e-07
-5.92088e-08
-1.96635e-07
-7.19239e-08
-1.78337e-07
-9.68017e-08
-1.64117e-07
-9.94092e-09
-1.75562e-07
-3.57913e-08
-1.86668e-07
-6.15662e-09
-1.93297e-07
5.69432e-09
-1.96826e-07
4.13419e-09
-2.1527e-07
2.23226e-08
-2.13613e-07
-7.90568e-09
-1.97568e-07
1.16928e-09
-2.09471e-07
1.8965e-08
-1.99066e-07
-5.57766e-09
-1.61192e-07
-6.89668e-08
-6.46854e-08
-1.56677e-08
-1.65226e-07
-5.54718e-08
-1.59207e-07
-1.98937e-08
-1.73646e-07
2.4358e-08
-1.77433e-07
2.32524e-08
-1.75262e-07
3.37591e-08
-1.45754e-07
5.71522e-09
-1.77574e-07
7.5369e-08
-1.69601e-07
2.28935e-08
-1.36548e-07
-2.09835e-08
-1.69336e-07
3.74534e-08
-1.52117e-07
-1.85044e-08
-1.42769e-07
-2.90255e-08
-1.42678e-07
-2.95886e-08
-1.68171e-07
-4.52427e-08
-1.70188e-07
-1.34957e-08
-2.04219e-07
-3.88081e-09
-2.07923e-07
-2.3278e-08
-2.00143e-07
-1.24289e-08
-1.99594e-07
-1.26874e-08
-2.10653e-07
-3.65748e-09
-2.20219e-07
-1.55613e-08
-2.16549e-07
-1.15686e-08
-1.49046e-07
-2.33335e-09
-2.41834e-07
-4.39557e-08
-2.2026e-07
-1.40858e-08
-2.00215e-07
-7.06569e-09
-1.75339e-07
-1.8761e-08
-1.92788e-07
3.54935e-08
-2.17986e-07
-6.12035e-09
-2.11296e-07
-3.24068e-08
-2.31252e-07
4.63158e-09
-2.4435e-07
1.13799e-08
-2.69681e-07
3.87269e-08
-2.89698e-07
4.07671e-08
-1.84575e-07
5.28402e-08
-2.98893e-07
9.4616e-09
-1.61606e-07
6.84615e-08
-2.42489e-07
6.44372e-09
-1.93151e-07
-3.71353e-08
-1.80197e-07
6.94057e-09
-1.43566e-07
-4.42586e-08
-1.50676e-07
-4.8804e-09
-1.68415e-07
-1.86654e-08
-1.80629e-07
-1.74829e-08
-1.72809e-07
-8.33428e-09
-2.00792e-07
-3.19467e-08
-1.13087e-07
2.25793e-08
-2.32296e-07
-7.13455e-10
-1.85517e-07
3.35329e-08
-1.60892e-07
3.22717e-08
-1.74657e-07
1.6861e-08
-1.82223e-07
1.04197e-08
-1.80528e-07
1.06185e-08
-1.75864e-07
1.14562e-08
-1.84864e-07
1.76526e-08
-1.66273e-07
1.61747e-08
-1.6052e-07
7.78323e-09
-1.87087e-07
-5.04059e-09
-1.7756e-07
1.97226e-08
5.1559e-08
-1.72775e-07
-9.4733e-08
-1.06244e-07
-1.20786e-07
-1.70084e-07
-2.9709e-08
-1.38069e-07
-4.19557e-08
-1.52567e-07
-2.12922e-08
-1.53384e-07
-5.3383e-09
-1.73305e-07
2.38475e-08
-1.89423e-07
2.02962e-08
-2.22512e-07
1.06948e-08
-1.80366e-07
-3.40025e-09
-1.56706e-07
-2.24895e-08
-1.89306e-07
4.91569e-09
-1.89415e-07
-5.46801e-09
-9.73874e-08
2.56089e-08
-1.04448e-07
-8.60574e-09
-1.27403e-07
-3.3082e-08
-1.12037e-07
-3.41151e-08
-1.76166e-07
-5.00499e-08
-1.36849e-07
-1.78607e-08
-1.5159e-07
4.61386e-08
-5.84817e-08
5.40024e-08
-1.67424e-07
-1.69289e-09
-1.68786e-07
2.42564e-08
-6.01918e-08
5.70249e-08
-1.9429e-07
-1.50496e-08
-1.62814e-07
-3.32879e-09
-1.71374e-07
-2.06762e-08
-1.56352e-07
-4.49122e-08
-1.76397e-07
-2.51968e-08
-1.81451e-07
-1.02928e-08
-2.23087e-07
-9.37625e-09
-2.09318e-07
1.18795e-08
-2.10944e-07
-1.06752e-08
-2.13987e-07
-9.6453e-09
-2.11148e-07
-6.49626e-09
-1.93874e-07
-3.31732e-08
-2.29461e-07
2.40176e-08
-2.09368e-07
-2.24267e-08
-2.3863e-07
-1.46939e-08
-2.42972e-07
-9.74348e-09
-2.55076e-07
2.43566e-09
-1.61301e-07
2.88573e-08
-2.73007e-07
-3.77567e-08
-2.6347e-07
-1.29699e-08
-2.31872e-07
-1.8008e-08
-2.77225e-07
4.76196e-08
-2.92208e-07
7.00319e-08
-2.8951e-07
3.30445e-08
-2.58011e-07
1.49106e-08
-2.29e-07
2.59015e-08
-2.49745e-07
2.78703e-08
-1.79431e-07
-1.85241e-09
-2.14599e-07
-4.97379e-09
-9.61501e-08
3.19988e-08
-1.8843e-07
-4.1641e-08
-6.0492e-08
-3.30862e-08
-1.70187e-07
-3.41711e-08
-1.46714e-07
-4.25732e-08
-1.61071e-07
-3.1262e-09
-2.00134e-07
2.86875e-08
-1.36926e-07
4.62393e-08
-1.16911e-07
4.92294e-09
-2.3116e-07
-2.50029e-08
-2.0713e-07
7.48717e-09
-2.04816e-07
2.99569e-08
-2.02836e-07
1.48804e-08
-1.99362e-07
6.94589e-09
-1.91974e-07
3.22976e-09
-1.79963e-07
-5.55028e-10
-1.77986e-07
1.56759e-08
-1.63557e-07
1.74508e-09
-1.63229e-07
7.45404e-09
-1.73251e-07
4.97952e-09
-1.76337e-07
2.10088e-08
2.66155e-08
-1.61771e-07
-1.32206e-07
-1.38542e-07
-1.26577e-07
-1.15094e-07
-5.17433e-08
-1.28016e-07
-2.87388e-08
-1.62532e-07
1.32246e-08
-1.54956e-07
-1.29136e-08
-1.84469e-07
6.7105e-09
-1.82487e-07
1.81088e-08
-1.9276e-07
2.09681e-08
-1.72011e-07
2.2503e-08
-7.83466e-08
2.37983e-08
-2.17482e-07
-4.25498e-08
-1.77475e-07
1.17693e-09
-1.59423e-07
7.63576e-09
-1.586e-07
-9.42812e-09
-1.47812e-07
-4.34256e-08
-1.52984e-07
-2.89422e-08
-1.89934e-07
-1.36094e-08
-7.34916e-08
6.39937e-09
-1.27178e-07
-3.87125e-08
-9.30144e-08
1.79918e-08
-1.46631e-07
5.19249e-08
-1.57891e-07
3.55167e-08
-1.20371e-07
1.95058e-08
-1.41034e-07
5.61469e-09
-1.37222e-07
-8.54073e-09
-1.66908e-07
-3.81204e-08
-1.44539e-07
-1.89277e-08
-1.65139e-07
-4.59625e-09
-1.70436e-07
-4.99561e-09
-1.84096e-07
4.37963e-09
-1.81133e-07
8.9171e-09
-1.87584e-07
-4.22427e-09
-1.94206e-07
-3.02306e-09
-1.99271e-07
-3.46481e-09
-9.86966e-08
7.64643e-09
-1.83418e-07
-7.76484e-08
-1.78419e-07
1.92243e-08
-1.89368e-07
-3.74463e-09
-2.12672e-07
1.35603e-08
-2.14758e-07
4.52157e-09
-2.00288e-07
1.40924e-08
-2.5868e-07
2.06347e-08
-2.71829e-07
-2.56785e-09
-1.86207e-07
3.75775e-08
-2.75514e-07
-1.12496e-09
-2.58111e-07
5.97787e-09
-2.47411e-07
2.20074e-08
-2.37944e-07
5.29157e-09
-2.08301e-07
-3.47751e-09
-2.15418e-07
-1.15463e-08
-1.848e-07
1.41805e-08
-1.5214e-07
-3.76341e-08
-1.34868e-07
1.32159e-08
-1.53501e-07
-2.47639e-08
-5.88903e-08
1.63956e-08
-1.97575e-07
-3.54256e-08
-9.56737e-08
-5.11671e-09
-1.11987e-07
1.41625e-08
-2.03949e-07
-1.93017e-08
-1.5677e-07
-1.41163e-09
-1.51396e-07
-4.5098e-10
-1.84075e-07
7.34614e-09
-1.94001e-07
1.74128e-08
-2.20576e-07
9.88085e-09
-1.88329e-07
2.92833e-08
-1.82937e-07
1.55427e-09
-1.71018e-07
-8.69017e-09
-1.76115e-07
4.58896e-09
-1.86187e-07
2.57477e-08
-2.06082e-07
2.16395e-08
-2.09007e-07
1.03776e-08
-2.02811e-07
-1.21856e-09
-1.64432e-07
-1.75504e-08
4.72754e-08
-1.58803e-07
-1.83195e-07
-2.70341e-07
-4.16535e-08
-1.26117e-07
-5.31939e-09
-2.21886e-07
-7.1507e-08
-2.01104e-07
-9.8202e-09
-2.0667e-07
-7.34718e-09
-2.02007e-07
2.04831e-09
-1.94436e-07
1.05395e-08
-1.81707e-07
8.23947e-09
-1.76812e-07
1.76096e-08
-1.59588e-07
6.5748e-09
-2.02777e-07
6.40867e-10
-1.85666e-07
-1.78275e-08
-2.08952e-07
-1.62081e-08
-1.82042e-07
-3.23489e-08
-1.72401e-07
-6.88548e-09
-1.85257e-07
-1.78437e-08
-1.8386e-07
-1.50062e-08
-2.1058e-07
3.31211e-08
-1.01539e-07
-8.19629e-09
-1.2247e-07
3.89239e-08
-2.03975e-07
-6.52045e-09
-1.85259e-07
1.68018e-08
-1.78084e-07
1.23315e-08
-1.73468e-07
9.99166e-10
-1.83505e-07
1.4969e-09
-1.99196e-07
-2.20394e-08
-1.63299e-07
-5.48246e-08
-1.88753e-07
2.06479e-08
-1.89294e-07
-4.45491e-09
-1.85605e-07
6.90863e-10
-1.82548e-07
5.86031e-09
-1.94156e-07
7.38369e-09
-1.9913e-07
1.95152e-09
-1.9652e-07
-6.07461e-09
-1.88886e-07
-1.99307e-09
-1.26393e-07
1.25281e-09
-2.03782e-07
-4.20489e-08
-1.92207e-07
-1.54785e-08
-2.31496e-07
5.28497e-08
-2.11169e-07
-1.58064e-08
-2.30324e-07
3.2912e-08
-2.51225e-07
-2.55241e-09
-2.30784e-07
2.31708e-08
-2.17787e-07
2.18422e-08
-2.32525e-07
1.36128e-08
-1.96905e-07
-2.96425e-08
-1.96314e-07
2.11999e-08
-1.84185e-07
-6.8379e-09
-1.6741e-07
-1.85447e-08
-1.43612e-07
-3.57045e-08
-1.64656e-07
-1.28919e-08
-8.16102e-08
6.67548e-08
-1.65075e-07
-4.01907e-08
-1.45387e-07
-4.73374e-08
-1.52154e-07
-2.56359e-08
-1.7318e-07
-1.32095e-08
-1.33942e-07
2.34838e-09
-1.52394e-07
-1.40365e-08
-1.74187e-07
2.4915e-09
-1.32059e-07
-4.35395e-08
-1.35056e-07
3.9232e-09
-1.52029e-07
6.9794e-08
-1.66787e-07
3.06191e-08
-1.76242e-07
1.93361e-08
-1.26502e-07
-2.0668e-08
-1.18388e-07
-6.5601e-09
-1.22797e-07
-5.5344e-09
-1.65058e-07
4.63714e-08
-1.75187e-07
3.75607e-08
-1.85619e-07
3.20702e-08
-2.03853e-07
2.89058e-08
-2.12114e-07
4.87661e-09
-9.59028e-08
8.7093e-09
2.01186e-08
-1.29373e-07
-6.76019e-08
-2.44951e-07
-5.29174e-08
-1.83272e-07
-6.4498e-08
-2.15538e-07
-3.997e-08
-1.9698e-07
-2.8377e-08
-1.93663e-07
-1.0664e-08
-2.00956e-07
9.34239e-09
-1.99744e-07
9.32834e-09
-2.06046e-07
1.45426e-08
-2.21678e-07
-1.34072e-08
-2.18741e-07
3.60145e-09
-2.23311e-07
5.2123e-09
-2.12195e-07
1.77082e-08
-2.39501e-07
1.12634e-08
-1.65522e-07
3.36247e-08
-1.83019e-07
1.05432e-08
-1.89694e-07
-1.11676e-08
-1.61933e-07
-4.32076e-08
-3.0047e-07
-1.49421e-08
-1.30593e-07
8.52984e-09
-2.11009e-07
-2.06107e-08
-2.22325e-07
4.79595e-09
-2.20054e-07
1.45319e-08
-2.23443e-07
1.57212e-08
-2.26478e-07
4.03476e-09
-2.43836e-07
-2.77947e-08
-2.54723e-07
-1.10388e-08
-1.49247e-07
2.78246e-08
-2.31953e-07
-3.51847e-08
-2.12597e-07
-2.61763e-08
-1.96881e-07
-1.50254e-08
-1.80977e-07
-1.0043e-08
-1.8932e-07
1.57269e-08
-1.86026e-07
-1.34224e-09
-1.84899e-07
-7.20236e-09
-1.73948e-07
-1.29441e-08
-1.58537e-07
-1.41703e-08
-1.97734e-07
-4.86991e-09
-1.18468e-07
4.6649e-08
-2.46986e-07
-4.02513e-09
-1.27629e-07
5.27403e-08
-2.18289e-07
-1.49663e-08
-2.23697e-07
6.28322e-10
-2.13455e-07
1.31646e-08
-2.04056e-07
1.24427e-08
-2.39569e-07
2.47586e-09
-1.01948e-07
2.01723e-08
-1.8833e-07
-3.09565e-08
-1.81607e-07
-1.54826e-08
-1.73388e-07
-2.88276e-08
-1.09598e-07
4.15316e-08
-1.08541e-07
-1.28304e-08
-1.54897e-07
-7.34921e-08
-1.40109e-07
-5.59598e-08
-1.46048e-07
4.76942e-09
-1.83125e-07
1.15842e-08
-1.82222e-07
-1.41126e-08
-1.74632e-07
-5.24222e-09
-1.85296e-07
-3.37288e-09
-2.19152e-07
-1.03029e-08
-1.13813e-07
3.77232e-08
-1.13284e-07
4.54937e-09
-1.69891e-07
-1.14325e-08
-1.53371e-07
1.23663e-08
-1.57043e-07
2.14059e-08
-7.13685e-08
3.50507e-08
-7.73452e-08
1.44335e-10
-8.08342e-08
-1.22115e-09
-1.72406e-07
-1.0634e-09
-1.57769e-07
2.09501e-08
-1.5949e-07
3.18388e-08
-1.98065e-07
2.014e-08
-1.90966e-07
4.44991e-08
-7.03757e-08
2.97288e-08
3.82233e-08
-2.12199e-07
-1.10187e-07
-2.8937e-07
9.47791e-08
-2.38688e-07
-1.12227e-07
-2.47087e-07
-3.15706e-08
-2.31219e-07
-4.42444e-08
-2.3934e-07
-2.54153e-09
-2.29961e-07
-3.58251e-11
-2.26702e-07
6.06956e-09
-2.28118e-07
1.59597e-08
-2.3886e-07
-2.27243e-10
-2.37358e-07
2.1009e-09
-2.13612e-07
-2.07425e-08
-1.98998e-07
3.09467e-09
-1.91937e-07
4.20339e-09
-1.712e-07
1.28888e-08
-1.81448e-07
2.10064e-08
-1.86742e-07
-7.7769e-09
-9.44613e-08
5.90636e-09
-2.29767e-07
-6.52737e-08
-1.75109e-07
5.22879e-10
-1.97794e-07
2.07608e-09
-2.03416e-07
1.04189e-08
-2.16775e-07
2.78909e-08
-2.21246e-07
2.01932e-08
-2.2837e-07
1.11592e-08
-2.39797e-07
-1.39205e-08
-2.09024e-07
-4.18115e-08
-1.93662e-07
1.02266e-08
-2.08185e-07
-2.102e-08
-2.03798e-07
-3.05625e-08
-1.96567e-07
-2.22563e-08
-1.90201e-07
-1.64093e-08
-1.699e-07
-4.57374e-09
-1.67221e-07
-4.02119e-09
-1.42884e-07
-3.18648e-08
-1.47203e-07
-8.62476e-09
-1.49325e-07
-1.20486e-08
-1.59103e-07
4.90853e-09
-1.55594e-07
4.2233e-08
-1.75345e-07
1.57258e-08
-1.45069e-07
2.24634e-08
-1.70383e-07
1.01949e-08
-1.86371e-07
1.66159e-08
-2.07171e-07
3.39648e-08
-1.93004e-07
-1.70662e-09
-2.16841e-07