/*--------------------------------*- C++ -*----------------------------------*\
  =========                 |
  \\      /  F ield         | OpenFOAM: The Open Source CFD Toolbox
   \\    /   O peration     | Website:  https://openfoam.org
    \\  /    A nd           | Version:  12
     \\/     M anipulation  |
\*---------------------------------------------------------------------------*/
FoamFile
{
    format      ascii;
    class       volVectorField;
    location    "0.25";
    object      U.water;
}
// * * * * * * * * * * * * * * * * * * * * * * * * * * * * * * * * * * * * * //

dimensions      [0 1 -1 0 0 0 0];

internalField   nonuniform List<vector> 
3750
(
(-0.0135949 -0.0705356 0)
(-0.0215472 0.0289865 0)
(-0.00458911 -0.00439027 0)
(-0.00266791 0.0199958 0)
(0.00110227 0.00381146 0)
(0.00222717 0.00972422 0)
(0.000255834 0.00431391 0)
(0.000704249 0.0085173 0)
(-6.83071e-05 0.00789754 0)
(0.000313371 0.0106587 0)
(-0.00057076 0.0106628 0)
(-0.000542379 0.0117337 0)
(-0.000128408 0.0133137 0)
(-0.000691572 0.0134456 0)
(-0.000429795 0.0131999 0)
(0.000499493 0.01152 0)
(0.000665712 0.0116954 0)
(0.000688922 0.012367 0)
(0.000763914 0.0131758 0)
(-0.00107184 0.0152283 0)
(-0.000826286 0.0152168 0)
(0.000196003 0.014244 0)
(-0.000454168 0.0121047 0)
(-2.99967e-05 0.0110813 0)
(-0.000956395 0.0139517 0)
(0.000824727 0.0159358 0)
(0.000672904 0.0146061 0)
(0.00152105 0.0164141 0)
(0.000162507 0.0178969 0)
(0.00133275 0.0154457 0)
(-0.000869512 0.0133735 0)
(-0.00380273 0.0153488 0)
(-0.00225345 0.0162237 0)
(0.000113164 0.0156663 0)
(0.00120691 0.0161172 0)
(0.00160456 0.0157945 0)
(0.00149677 0.0162069 0)
(0.000980513 0.0162008 0)
(-0.000716761 0.0156042 0)
(-0.00287058 0.0167702 0)
(0.000612493 0.0174222 0)
(0.000472955 0.016466 0)
(0.000832071 0.0169831 0)
(0.000323998 0.0190799 0)
(0.000222378 0.0221686 0)
(0.000664224 0.0238335 0)
(0.00188537 0.0220579 0)
(0.00326694 0.0183296 0)
(0.00437839 0.0179357 0)
(-0.00112053 0.0145845 0)
(9.60503e-05 0.013483 0)
(-0.00258231 0.012506 0)
(-0.00191905 0.00806411 0)
(-0.00118101 0.00954949 0)
(-0.000150155 0.0105454 0)
(0.00157711 0.0115197 0)
(0.00259623 0.0165846 0)
(-0.000794209 0.0181175 0)
(0.000384929 0.0179608 0)
(0.00145317 0.0172854 0)
(0.00223151 0.0158296 0)
(0.00180486 0.0206996 0)
(0.000149377 0.0174147 0)
(0.000777577 0.00946738 0)
(0.000205197 0.00758154 0)
(-0.000711657 0.00681967 0)
(-0.00231471 0.00855494 0)
(-0.00020629 0.00891165 0)
(-0.000646084 0.00889855 0)
(0.000679079 0.00974894 0)
(-1.70504e-05 0.0097437 0)
(0.000548479 0.0100542 0)
(-0.000318314 0.0111874 0)
(-0.000534431 0.0123117 0)
(-0.00130646 0.0114359 0)
(-0.00782028 -0.0634692 0)
(-0.0148492 0.00642843 0)
(0.00468279 -0.0356662 0)
(-0.00214407 -0.000922065 0)
(-0.00217795 -0.0194325 0)
(-5.45096e-05 0.00165058 0)
(-0.000713174 -0.0106689 0)
(-0.00202636 -0.00458665 0)
(-0.00196333 -0.00868323 0)
(-0.000950649 -0.00326999 0)
(-0.00204895 -0.00575397 0)
(-0.00042543 -0.00106005 0)
(-0.000899564 -0.00208977 0)
(0.00137035 -0.00196963 0)
(0.00154896 -0.00407193 0)
(0.000329061 -0.00359899 0)
(-0.000227252 -0.00282273 0)
(-0.00348396 -0.000788444 0)
(-0.00042372 0.000557532 0)
(-0.00202568 0.00060529 0)
(-0.000831069 0.00119133 0)
(0.00288673 0.000434505 0)
(0.00412017 -0.00150865 0)
(-0.000662449 -0.0048988 0)
(-0.00190868 -0.00218627 0)
(-0.0026523 -0.00149209 0)
(-0.00242451 -0.00415139 0)
(-0.00119866 -0.00413887 0)
(0.000685826 0.000885542 0)
(0.00169307 -0.00025467 0)
(0.0028843 -0.0053808 0)
(0.00244806 -0.00281849 0)
(0.000481016 -0.00188128 0)
(-0.000419075 -0.00448711 0)
(-0.00158498 -0.00482856 0)
(-0.00287696 -0.00473319 0)
(-0.00143381 -0.00224678 0)
(-0.000217233 -0.00156793 0)
(0.00121085 -0.00313763 0)
(0.000542896 0.000714427 0)
(0.0015812 0.00028546 0)
(-0.00132347 -0.00323833 0)
(-0.00348662 0.00101033 0)
(-0.00420543 0.00399096 0)
(-0.0037747 0.00818115 0)
(-0.00117319 0.0122119 0)
(0.00318635 0.0144654 0)
(0.00640311 0.0154157 0)
(0.00811565 0.0140571 0)
(0.00161868 0.00966829 0)
(0.00387961 0.00544371 0)
(-0.000978314 -0.00110215 0)
(-0.000448874 -0.0058557 0)
(-0.000453703 -0.00795632 0)
(-0.00232549 -0.00713576 0)
(-0.000639966 -0.00406016 0)
(-0.00223329 -0.00182487 0)
(-0.00702824 7.3171e-05 0)
(-0.00190617 0.00172428 0)
(-0.000439395 0.000231218 0)
(0.00259062 0.000232361 0)
(0.0043099 0.00492386 0)
(-0.000172685 0.00316213 0)
(0.00228489 -0.00401878 0)
(0.00292397 -0.00719067 0)
(0.00232947 -0.00936667 0)
(0.00111152 -0.0065463 0)
(-0.000383944 -0.00657251 0)
(-0.000507365 -0.00912854 0)
(-0.00133023 -0.00903919 0)
(-0.00126392 -0.00995019 0)
(-0.00143013 -0.00861723 0)
(-0.000617996 -0.00757631 0)
(5.34865e-05 -0.0061587 0)
(0.00102226 -0.00672907 0)
(-0.00615831 -0.0590369 0)
(-0.0171093 0.00378885 0)
(-0.0102287 -0.0345987 0)
(-0.00533687 -0.00343513 0)
(-0.00178004 -0.0197923 0)
(-0.002111 -0.00674297 0)
(-0.000582556 -0.0131039 0)
(-0.00236888 -0.0100849 0)
(-0.0019456 -0.0114123 0)
(-0.00281909 -0.012104 0)
(-0.00318904 -0.0134545 0)
(-0.00138968 -0.0112928 0)
(-0.00110069 -0.0114069 0)
(0.00171906 -0.00876915 0)
(0.000678319 -0.0086235 0)
(-0.0011229 -0.00728953 0)
(0.000814125 -0.0107516 0)
(-0.00113904 -0.0115992 0)
(-0.00136459 -0.012527 0)
(-0.00282098 -0.0159841 0)
(0.00202073 -0.0139027 0)
(0.00232814 -0.0120528 0)
(0.00538555 -0.0155354 0)
(-0.000108038 -0.0184273 0)
(0.000169469 -0.0154396 0)
(-0.0021548 -0.0174342 0)
(-0.000571733 -0.020104 0)
(-0.000243374 -0.0213585 0)
(0.0022469 -0.0216363 0)
(0.000117207 -0.0214329 0)
(0.000153922 -0.021415 0)
(0.00390391 -0.0199414 0)
(0.000169843 -0.0195842 0)
(-0.00280913 -0.0184019 0)
(-0.00475632 -0.0186211 0)
(-0.00301009 -0.0184017 0)
(-0.00140149 -0.0165603 0)
(0.000330234 -0.0155162 0)
(0.00160039 -0.0145677 0)
(0.00161391 -0.0111288 0)
(-0.00499519 -0.0087436 0)
(-0.00599352 -0.0110319 0)
(-0.00622917 -0.0116194 0)
(-0.00626883 -0.0109805 0)
(-0.00623474 -0.00885002 0)
(-0.00469826 -0.00505115 0)
(-0.000945909 -0.00139133 0)
(0.00578407 0.000307143 0)
(0.00967767 0.00139716 0)
(0.00773597 -0.000422825 0)
(0.00858694 -0.00223536 0)
(0.008565 -0.00923105 0)
(0.00467765 -0.0143118 0)
(0.00182941 -0.015546 0)
(-0.00177714 -0.0102243 0)
(-0.0025256 -0.00832133 0)
(-0.00302018 -0.0130897 0)
(-0.00324436 -0.0108223 0)
(-0.00186883 -0.0122211 0)
(-8.6951e-05 -0.0170714 0)
(0.00221807 -0.0129965 0)
(0.00510636 -0.00885545 0)
(0.00273392 -0.0105252 0)
(0.00470944 -0.0135879 0)
(0.00376962 -0.0133377 0)
(0.00156644 -0.012494 0)
(0.00217401 -0.0121082 0)
(-0.00111155 -0.0118731 0)
(-0.000219145 -0.0126625 0)
(-0.00221285 -0.0122702 0)
(0.000275336 -0.0138658 0)
(-0.00231465 -0.0164752 0)
(-0.00149594 -0.0160296 0)
(-0.00197794 -0.0141499 0)
(0.000197348 -0.0134013 0)
(-0.00459937 -0.0602408 0)
(-0.0109521 0.00997634 0)
(-0.00594706 -0.0351477 0)
(-0.00477383 -0.0116032 0)
(-0.00441743 -0.0222458 0)
(-0.00452346 -0.0114563 0)
(-0.00236164 -0.0134286 0)
(-0.00209 -0.0111925 0)
(-0.000991714 -0.0119786 0)
(-0.0019862 -0.0106211 0)
(-0.00196957 -0.0119551 0)
(-0.00315287 -0.0123126 0)
(-0.00298347 -0.0147464 0)
(-0.000347217 -0.014132 0)
(0.00160498 -0.0125969 0)
(0.00413766 -0.00909885 0)
(0.00443773 -0.0102117 0)
(0.00256796 -0.0170508 0)
(-0.000930279 -0.020932 0)
(-0.00124399 -0.0172961 0)
(0.00350958 -0.015919 0)
(0.00458519 -0.0173043 0)
(0.000929923 -0.0200412 0)
(4.85608e-05 -0.0208787 0)
(-0.00164582 -0.0162875 0)
(-0.00278651 -0.0195033 0)
(0.00126037 -0.0242695 0)
(-0.000367831 -0.0245178 0)
(-0.000256326 -0.0228092 0)
(0.0039142 -0.0235114 0)
(0.00414893 -0.0218811 0)
(0.00166372 -0.023051 0)
(-0.00398733 -0.02535 0)
(-0.00437885 -0.0228531 0)
(-0.00408318 -0.0229718 0)
(-0.00335884 -0.0242388 0)
(-0.00206754 -0.0258112 0)
(-0.00167495 -0.0241878 0)
(-0.000758564 -0.0203649 0)
(-0.000959399 -0.0161369 0)
(-0.00297207 -0.0134294 0)
(-0.00363005 -0.014528 0)
(-0.00500804 -0.0157693 0)
(-0.00690364 -0.0170562 0)
(-0.00635048 -0.0172289 0)
(-0.00552742 -0.016697 0)
(-0.00512979 -0.0139569 0)
(0.00305535 -0.0125034 0)
(0.00987452 -0.0138646 0)
(0.0130369 -0.010828 0)
(0.0112676 -0.00905863 0)
(0.00716013 -0.0150269 0)
(0.00324771 -0.0180523 0)
(0.000596153 -0.0160542 0)
(0.00116087 -0.0119241 0)
(-0.00316039 -0.0107357 0)
(-0.00332272 -0.0139745 0)
(-0.000496311 -0.0140433 0)
(-0.00230707 -0.0137322 0)
(0.000353485 -0.0171639 0)
(-0.000294145 -0.01887 0)
(3.99698e-06 -0.0174952 0)
(-7.26664e-05 -0.0147168 0)
(0.00516984 -0.0134522 0)
(0.00372402 -0.0145302 0)
(0.00258389 -0.0140925 0)
(0.000311796 -0.0137941 0)
(-0.000526114 -0.0135098 0)
(0.000247414 -0.0148415 0)
(0.00132633 -0.0111968 0)
(0.00141594 -0.0121683 0)
(-0.000685854 -0.0168938 0)
(-0.000914439 -0.0178246 0)
(-0.00232004 -0.0176427 0)
(-0.00184269 -0.0166621 0)
(-0.00846355 -0.059862 0)
(-0.0131662 0.00926127 0)
(-0.00847553 -0.0334757 0)
(-0.00599329 -0.00901394 0)
(-0.00514298 -0.0237388 0)
(-0.00519516 -0.0124616 0)
(-0.00682364 -0.0170693 0)
(-0.00524998 -0.0160135 0)
(-0.00138664 -0.0150418 0)
(-0.00374291 -0.0128361 0)
(0.00170279 -0.0116707 0)
(-0.00172745 -0.0127581 0)
(-0.0021552 -0.0145103 0)
(-9.38806e-05 -0.0132539 0)
(0.00212669 -0.0116024 0)
(0.00530954 -0.00962024 0)
(0.00581552 -0.0092977 0)
(0.00422192 -0.0126444 0)
(0.000709717 -0.0172766 0)
(0.00200826 -0.0151828 0)
(0.00107914 -0.0129811 0)
(0.00516827 -0.017392 0)
(0.00195679 -0.0199387 0)
(0.00192362 -0.0190954 0)
(-0.0017297 -0.0185909 0)
(-0.00179417 -0.0165506 0)
(-0.00167119 -0.0190175 0)
(-0.000260485 -0.0222015 0)
(0.000401231 -0.0153502 0)
(0.00274896 -0.0138938 0)
(0.00464116 -0.0163121 0)
(0.0022679 -0.0168269 0)
(-0.0013133 -0.0139746 0)
(-0.00328853 -0.0128533 0)
(-0.00474478 -0.0194453 0)
(-0.00501319 -0.0240295 0)
(-0.00409259 -0.0248185 0)
(-0.00214696 -0.0229905 0)
(-0.00356436 -0.0199123 0)
(-0.00461632 -0.0166966 0)
(-0.00442945 -0.0132879 0)
(-0.00459648 -0.0137843 0)
(-0.00414545 -0.0153141 0)
(-0.00524347 -0.0168133 0)
(-0.0051963 -0.0178573 0)
(-0.00488461 -0.0202689 0)
(-0.00289705 -0.0199521 0)
(-6.40802e-05 -0.0210996 0)
(0.00756295 -0.0214424 0)
(0.0140831 -0.0185346 0)
(0.00910582 -0.0170267 0)
(0.0046349 -0.0157751 0)
(0.00180453 -0.0149738 0)
(0.000647352 -0.0140008 0)
(-1.07243e-05 -0.0152381 0)
(-0.00227106 -0.0174475 0)
(-0.00293309 -0.0158098 0)
(-0.00133269 -0.0130878 0)
(-0.000511835 -0.0132859 0)
(0.000453388 -0.0185075 0)
(0.000507505 -0.0225669 0)
(0.00109318 -0.0227628 0)
(0.00181014 -0.0178474 0)
(0.00305098 -0.0170323 0)
(0.00181104 -0.0195445 0)
(0.00330155 -0.0201882 0)
(-0.000781815 -0.020924 0)
(-0.000301451 -0.0204786 0)
(0.00151335 -0.0205826 0)
(0.00143043 -0.0195115 0)
(-0.000363755 -0.0202474 0)
(-0.000902882 -0.0212545 0)
(-0.000661503 -0.0219201 0)
(-0.00186565 -0.022442 0)
(-0.00196005 -0.022938 0)
(-0.0104264 -0.0637385 0)
(-0.0111304 0.0145861 0)
(-0.00404319 -0.0340582 0)
(-0.0033078 -0.00536312 0)
(-0.000318872 -0.0230115 0)
(-0.00114256 -0.0156167 0)
(-0.00519748 -0.0175687 0)
(-0.00660809 -0.0130636 0)
(-0.00262996 -0.0179057 0)
(-0.00273946 -0.0140396 0)
(-0.0025456 -0.0122043 0)
(-0.00446416 -0.0162117 0)
(-0.00289917 -0.014905 0)
(-0.00243948 -0.0133734 0)
(0.000903587 -0.0115435 0)
(0.00264702 -0.0102759 0)
(0.00541721 -0.00929817 0)
(0.00846568 -0.00744561 0)
(0.00624374 -0.00893767 0)
(0.0066579 -0.0110037 0)
(0.00331277 -0.0137525 0)
(0.00268565 -0.0161831 0)
(0.00202385 -0.0188449 0)
(0.00150263 -0.0192252 0)
(0.00083122 -0.0144309 0)
(-0.000295022 -0.0142128 0)
(-0.00348201 -0.0177719 0)
(-0.00256997 -0.0179557 0)
(-0.000951111 -0.0147137 0)
(-0.00206778 -0.0121965 0)
(0.00201117 -0.0108257 0)
(0.00360319 -0.00997834 0)
(0.00343091 -0.00852829 0)
(-0.000214031 -0.0106473 0)
(-0.00336781 -0.0176263 0)
(-0.00255795 -0.0208317 0)
(-0.00359999 -0.0185291 0)
(-0.00408329 -0.0169308 0)
(-0.00712237 -0.0149632 0)
(-0.00841934 -0.0120003 0)
(-0.00567956 -0.0115967 0)
(-0.00431357 -0.0140743 0)
(-0.00204705 -0.0163818 0)
(-0.00307373 -0.0201689 0)
(-0.00304736 -0.0213647 0)
(-0.000120814 -0.0234231 0)
(0.00416813 -0.0266117 0)
(0.00213817 -0.0242729 0)
(0.00509936 -0.0186426 0)
(0.00752483 -0.0192854 0)
(0.00565224 -0.0202711 0)
(0.00166307 -0.0157188 0)
(0.00069444 -0.0147246 0)
(0.00272344 -0.0175102 0)
(0.00110642 -0.0196021 0)
(0.000767825 -0.0194481 0)
(0.000223126 -0.017591 0)
(0.000126721 -0.0158942 0)
(0.000215247 -0.0157385 0)
(0.000537053 -0.0208282 0)
(0.000173896 -0.024143 0)
(-0.00077375 -0.0239257 0)
(-0.000357835 -0.0202339 0)
(0.00231097 -0.0194985 0)
(0.00311339 -0.0180637 0)
(0.00289409 -0.0193414 0)
(0.00167438 -0.0211648 0)
(2.19529e-06 -0.0181474 0)
(-0.00128112 -0.0199157 0)
(0.000881183 -0.0205782 0)
(0.000174564 -0.0207172 0)
(-0.000144384 -0.0201209 0)
(0.000333892 -0.0219984 0)
(-0.00147568 -0.0248243 0)
(-0.00160471 -0.0242205 0)
(-0.0125109 -0.0618922 0)
(-0.010883 0.00319778 0)
(-0.00490824 -0.0350867 0)
(-0.00563858 -0.00975534 0)
(-0.00281176 -0.0208703 0)
(-0.00184707 -0.00967625 0)
(-0.0017247 -0.0134472 0)
(-0.00484615 -0.00524284 0)
(-0.00642777 -0.00647459 0)
(-0.00177798 -0.00986993 0)
(-0.003101 -0.0143768 0)
(-0.00462449 -0.016957 0)
(-0.00182454 -0.0195506 0)
(-0.00412954 -0.018908 0)
(0.00205693 -0.0179582 0)
(0.00217753 -0.0184054 0)
(0.0028615 -0.0155352 0)
(0.00531771 -0.0134068 0)
(0.00903756 -0.0131578 0)
(0.00836545 -0.0150617 0)
(0.00734608 -0.0161576 0)
(0.00495972 -0.0155919 0)
(0.00262625 -0.0151326 0)
(0.00160573 -0.0138185 0)
(0.000147933 -0.0124349 0)
(-0.00257533 -0.0132181 0)
(-0.00292952 -0.0161502 0)
(-0.00149554 -0.0186268 0)
(-0.00164792 -0.0171942 0)
(-0.00155712 -0.0115657 0)
(0.00222937 -0.00830224 0)
(0.000183223 -0.0124749 0)
(0.00112479 -0.0144186 0)
(0.00181378 -0.0147205 0)
(0.00122536 -0.0167067 0)
(-0.000961077 -0.0152799 0)
(-0.00524064 -0.00982207 0)
(-0.00924849 -0.00823061 0)
(-0.0082136 -0.0139998 0)
(-0.00586523 -0.0128042 0)
(-0.00280373 -0.0113523 0)
(-0.00183079 -0.0123327 0)
(-0.00144167 -0.0170668 0)
(-0.00226716 -0.0227818 0)
(-0.0012736 -0.0217604 0)
(7.62542e-05 -0.0231268 0)
(0.00225676 -0.024194 0)
(0.00288129 -0.0204829 0)
(0.00199643 -0.0161594 0)
(0.00227139 -0.0151666 0)
(0.00541841 -0.016183 0)
(0.00501767 -0.01218 0)
(0.00217415 -0.0106594 0)
(0.00198251 -0.0178167 0)
(0.00141146 -0.0231013 0)
(0.000738875 -0.0223868 0)
(0.000709105 -0.0188465 0)
(0.000110937 -0.0151911 0)
(0.000533508 -0.0138191 0)
(-0.000636509 -0.0174357 0)
(-0.000407178 -0.0223048 0)
(-0.000737354 -0.0227266 0)
(0.00102963 -0.0187745 0)
(0.00288838 -0.0186985 0)
(0.00486186 -0.0209492 0)
(0.00201604 -0.0187888 0)
(0.00297788 -0.0181005 0)
(-0.000301232 -0.0177005 0)
(-0.00418928 -0.0168481 0)
(0.000725578 -0.0171872 0)
(0.000351997 -0.0192981 0)
(0.00222283 -0.0155059 0)
(0.000957013 -0.0170944 0)
(-0.000527501 -0.0227608 0)
(-0.00398551 -0.0225879 0)
(-0.0103702 -0.0582551 0)
(-0.00856129 0.00223717 0)
(-0.00855673 -0.0332032 0)
(-0.00664447 -0.0125953 0)
(-0.00358717 -0.0222564 0)
(-0.00282741 -0.015996 0)
(-0.00225457 -0.0208004 0)
(-0.00181732 -0.0178603 0)
(-0.00460618 -0.0156551 0)
(-0.00301945 -0.0166234 0)
(-0.000852649 -0.02533 0)
(-0.000972766 -0.0271408 0)
(-0.00219005 -0.0311285 0)
(-0.00466527 -0.0299381 0)
(-0.00271028 -0.0270234 0)
(0.000278272 -0.0303511 0)
(0.00163408 -0.0271707 0)
(0.0060329 -0.0211522 0)
(0.00789067 -0.0201087 0)
(0.00665083 -0.0207409 0)
(0.00522201 -0.0176292 0)
(0.000918859 -0.0157313 0)
(0.000130903 -0.0153716 0)
(0.00107214 -0.0162213 0)
(0.0010646 -0.0179193 0)
(0.000132807 -0.0193701 0)
(-0.00191361 -0.0201785 0)
(0.00100035 -0.0210538 0)
(-0.000524054 -0.019811 0)
(-6.94146e-05 -0.0132013 0)
(0.00121833 -0.0139443 0)
(-0.000706128 -0.0195648 0)
(0.000986945 -0.0177821 0)
(0.00043511 -0.0158116 0)
(-0.0013324 -0.0112208 0)
(-0.00561367 -0.00666073 0)
(-0.00597168 -0.0046183 0)
(-0.00699363 -0.00538681 0)
(-0.00413216 -0.0119749 0)
(0.000316551 -0.0168827 0)
(-0.000509137 -0.0182206 0)
(-0.00309363 -0.0180095 0)
(-0.00255888 -0.0189088 0)
(-0.0013326 -0.0207543 0)
(0.00193404 -0.0233011 0)
(-0.00183134 -0.0262283 0)
(-0.00156122 -0.0249955 0)
(-0.000391918 -0.0228021 0)
(7.11519e-05 -0.0190344 0)
(0.00252674 -0.0177528 0)
(0.00564917 -0.0175602 0)
(0.00781073 -0.0160895 0)
(0.00395933 -0.0154876 0)
(0.00168905 -0.018342 0)
(0.00133059 -0.0223738 0)
(0.000682117 -0.0222123 0)
(0.00103623 -0.0197495 0)
(-0.00183955 -0.0158426 0)
(0.000525148 -0.015304 0)
(-0.00242457 -0.0164402 0)
(0.000109373 -0.0183799 0)
(0.000712294 -0.0193206 0)
(0.00333458 -0.0182287 0)
(0.000763566 -0.0188686 0)
(0.00206244 -0.0197594 0)
(0.00170909 -0.0181331 0)
(0.00162063 -0.0177323 0)
(-7.2262e-05 -0.0192455 0)
(-0.00150719 -0.0166548 0)
(-0.00182749 -0.0169903 0)
(-0.00039529 -0.0219929 0)
(0.00314968 -0.0207204 0)
(0.00146677 -0.0216989 0)
(0.00113667 -0.0251523 0)
(-0.000836075 -0.0233494 0)
(-0.00719518 -0.0623627 0)
(-0.0067586 0.0104666 0)
(-0.0092441 -0.0327755 0)
(-0.00614818 -0.00950024 0)
(-0.00195437 -0.0207914 0)
(-0.00215139 -0.0187277 0)
(-0.00235203 -0.0238039 0)
(-0.00124407 -0.0226918 0)
(-0.000365501 -0.0238079 0)
(-0.000773032 -0.0250238 0)
(-0.000677394 -0.0279765 0)
(0.00247371 -0.0282643 0)
(-0.00160664 -0.0313452 0)
(-0.00166262 -0.0287669 0)
(-0.00508251 -0.0258559 0)
(-0.00331526 -0.0318855 0)
(-0.00130169 -0.0343911 0)
(0.00214749 -0.0299278 0)
(0.00334002 -0.02526 0)
(0.00346204 -0.0214626 0)
(0.00291628 -0.0202738 0)
(0.00268972 -0.0219042 0)
(0.002346 -0.0233007 0)
(0.00363008 -0.0235227 0)
(0.00335456 -0.0243226 0)
(0.00191863 -0.0240401 0)
(0.000198248 -0.0201062 0)
(-0.00151101 -0.0197416 0)
(-0.000891653 -0.0196896 0)
(-1.41181e-06 -0.0120004 0)
(-0.00326467 -0.0126861 0)
(-0.00251371 -0.0160746 0)
(-0.00286555 -0.0128989 0)
(-0.00229073 -0.0101429 0)
(-0.00479187 -0.0103544 0)
(-0.00582581 -0.011762 0)
(-0.0054149 -0.0112336 0)
(0.000704218 -0.0125499 0)
(0.00261238 -0.0169912 0)
(0.00315793 -0.0189534 0)
(0.000698345 -0.0198443 0)
(-0.00186001 -0.0171578 0)
(-0.00378357 -0.017607 0)
(0.000167557 -0.0181236 0)
(0.000316506 -0.0181656 0)
(-0.000366416 -0.0214899 0)
(-0.00150179 -0.0208746 0)
(-0.00196969 -0.0222652 0)
(2.81853e-05 -0.0227823 0)
(0.00230315 -0.0245321 0)
(0.00592905 -0.0242015 0)
(0.00641745 -0.0228311 0)
(0.00533311 -0.0208476 0)
(0.00308858 -0.0200539 0)
(0.00157423 -0.0216817 0)
(0.000304153 -0.0211445 0)
(-0.000690892 -0.0214291 0)
(-0.00163141 -0.0169394 0)
(-0.00248011 -0.0157336 0)
(-0.00357301 -0.0166813 0)
(0.00124623 -0.0132813 0)
(0.0019475 -0.0133799 0)
(0.00324602 -0.0131789 0)
(0.00184071 -0.014157 0)
(0.000447852 -0.0145039 0)
(0.00257002 -0.0139808 0)
(0.000638581 -0.0152189 0)
(0.0012297 -0.0163109 0)
(0.00133937 -0.0154699 0)
(-0.00143638 -0.0171071 0)
(1.29998e-05 -0.020159 0)
(0.00149552 -0.0203044 0)
(0.00239805 -0.0201347 0)
(0.0030326 -0.020736 0)
(0.00169129 -0.0176104 0)
(-0.00847141 -0.0551622 0)
(-0.00735157 0.00907626 0)
(-0.00667089 -0.0363876 0)
(-0.00190672 -0.00724808 0)
(-0.00105628 -0.0194752 0)
(-0.00026134 -0.0179414 0)
(-0.000150184 -0.0235072 0)
(8.57355e-05 -0.0235189 0)
(0.000162795 -0.0260004 0)
(-0.000626211 -0.0261574 0)
(-0.000636232 -0.0267699 0)
(0.00114689 -0.0260891 0)
(-0.000215704 -0.0255622 0)
(-0.000167567 -0.0229402 0)
(-0.00373253 -0.0202074 0)
(-0.00306804 -0.0231839 0)
(-0.00142261 -0.0255526 0)
(0.000420245 -0.0259665 0)
(0.00195951 -0.0256263 0)
(0.00335355 -0.024552 0)
(0.00339676 -0.0242521 0)
(0.00400361 -0.0252455 0)
(0.00291773 -0.0247513 0)
(0.00114567 -0.0229694 0)
(0.00222087 -0.0224367 0)
(0.000832556 -0.0206261 0)
(-0.000171554 -0.0179453 0)
(-0.00330804 -0.0166803 0)
(-0.00216823 -0.0151548 0)
(-0.00164746 -0.0142504 0)
(-0.00489061 -0.0160383 0)
(-0.00364137 -0.0177012 0)
(-0.00204763 -0.0159087 0)
(-0.000603072 -0.0161243 0)
(-0.00132811 -0.0192819 0)
(-0.00255461 -0.0207117 0)
(-0.0028966 -0.0188348 0)
(-0.00375425 -0.0180299 0)
(-0.000338622 -0.02008 0)
(0.000587925 -0.0183227 0)
(0.00107455 -0.0189146 0)
(0.00171853 -0.0186373 0)
(-0.00170427 -0.0148456 0)
(9.51894e-05 -0.0142926 0)
(-0.003668 -0.0184495 0)
(-0.0021114 -0.0186262 0)
(-0.00145181 -0.0182618 0)
(0.000579793 -0.0210393 0)
(0.00219384 -0.0232443 0)
(0.00343751 -0.0237517 0)
(0.00723672 -0.0234481 0)
(0.00432619 -0.0228737 0)
(0.00578433 -0.0206121 0)
(0.00183338 -0.0201331 0)
(0.00134601 -0.0204335 0)
(0.000556831 -0.018097 0)
(0.000610903 -0.016753 0)
(-0.000380795 -0.0157901 0)
(-0.00508973 -0.0180706 0)
(-0.00402955 -0.0147712 0)
(-0.00315156 -0.0122132 0)
(-0.00203534 -0.0134013 0)
(0.0041685 -0.012996 0)
(0.00402461 -0.015019 0)
(0.00279609 -0.0111094 0)
(0.00200073 -0.0101667 0)
(0.00095003 -0.0131324 0)
(0.00110403 -0.0134256 0)
(0.000596015 -0.0154946 0)
(-0.0010244 -0.0172282 0)
(0.00072074 -0.0207288 0)
(0.000996272 -0.0208039 0)
(0.00208187 -0.0197223 0)
(0.0026179 -0.018632 0)
(0.00245559 -0.0129175 0)
(-0.00244818 -0.0617635 0)
(-0.00737058 0.00967328 0)
(-0.00964067 -0.0354842 0)
(-0.000754465 -0.00926098 0)
(-0.00375126 -0.0202627 0)
(-0.000594471 -0.0143314 0)
(0.000136995 -0.0197179 0)
(0.000199948 -0.0188458 0)
(0.00103705 -0.0209449 0)
(0.000940005 -0.0214555 0)
(0.000253303 -0.0203643 0)
(0.00121108 -0.0200942 0)
(-0.00122198 -0.020364 0)
(-0.00374003 -0.0169495 0)
(-0.00443085 -0.0108095 0)
(-0.0037052 -0.0115204 0)
(-0.00191215 -0.0158448 0)
(0.00170295 -0.0157563 0)
(0.00206633 -0.0178682 0)
(0.00272769 -0.0174195 0)
(0.00180983 -0.0147251 0)
(0.00399039 -0.0163564 0)
(0.00203245 -0.0169043 0)
(-0.00114716 -0.0143559 0)
(0.00122525 -0.01509 0)
(-0.000586561 -0.0160333 0)
(-0.00128809 -0.0145608 0)
(-0.00216657 -0.0146085 0)
(-0.00198896 -0.013961 0)
(-0.0018604 -0.0142812 0)
(-0.00179816 -0.0182036 0)
(-0.0012844 -0.0202705 0)
(-0.000263566 -0.019135 0)
(-0.00177362 -0.0184661 0)
(-0.00129522 -0.0207887 0)
(-0.00268901 -0.0219822 0)
(-0.000756488 -0.0208216 0)
(-0.00336607 -0.017933 0)
(-0.000827283 -0.0197222 0)
(0.000183737 -0.0223845 0)
(0.000232551 -0.0209166 0)
(-0.000816942 -0.018845 0)
(0.00229982 -0.0176412 0)
(-0.00184084 -0.0196801 0)
(-0.00266317 -0.0212665 0)
(0.000134038 -0.0210581 0)
(0.00158676 -0.0224328 0)
(0.00275615 -0.0255132 0)
(0.00319345 -0.0280657 0)
(0.0039638 -0.0228102 0)
(0.00452218 -0.0233898 0)
(0.00270247 -0.0223593 0)
(0.00241663 -0.0203167 0)
(-0.000576932 -0.0211867 0)
(0.000751397 -0.0184732 0)
(-0.0027714 -0.0157974 0)
(-0.000879056 -0.0141445 0)
(-0.00135546 -0.0150235 0)
(-0.00168728 -0.0162896 0)
(-0.000876365 -0.0175049 0)
(-0.00458457 -0.0189714 0)
(-0.000490185 -0.0159909 0)
(0.00233546 -0.0164344 0)
(0.00212464 -0.0198423 0)
(0.00480621 -0.017323 0)
(0.00158603 -0.0158902 0)
(0.00130404 -0.0168508 0)
(0.00144463 -0.0173719 0)
(0.00214818 -0.0181605 0)
(0.00288951 -0.0179731 0)
(0.00231826 -0.0173093 0)
(0.000850779 -0.0165214 0)
(-0.000404619 -0.0165007 0)
(0.00137703 -0.0167693 0)
(0.00269029 -0.0148913 0)
(-0.00531149 -0.0669934 0)
(-0.00705694 0.0229776 0)
(-0.00741111 -0.0341818 0)
(-0.00193694 -0.001601 0)
(-0.00447219 -0.0213458 0)
(-0.000777465 -0.0114109 0)
(-0.000206548 -0.0182267 0)
(0.000978615 -0.0170543 0)
(0.000388137 -0.0181568 0)
(-0.00014682 -0.017343 0)
(-0.00101688 -0.0155016 0)
(0.000502112 -0.0151959 0)
(-0.000913499 -0.0178109 0)
(-0.00131275 -0.0139415 0)
(-0.00172628 -0.0102608 0)
(-0.00492746 -0.0114764 0)
(-0.00251863 -0.0120905 0)
(-0.000929304 -0.0147277 0)
(0.000869992 -0.0151907 0)
(0.00449087 -0.0140261 0)
(0.00273866 -0.0108728 0)
(0.00322878 -0.0107666 0)
(0.0023968 -0.0161492 0)
(0.0019706 -0.0121773 0)
(0.00148842 -0.01188 0)
(0.000441757 -0.0154112 0)
(-0.00170877 -0.015753 0)
(-0.00347237 -0.0166267 0)
(-0.00339618 -0.0158348 0)
(-0.00176177 -0.0167788 0)
(-0.000537943 -0.018978 0)
(-9.48074e-05 -0.0198838 0)
(-0.000132052 -0.020056 0)
(-0.00100299 -0.0205476 0)
(-0.000812644 -0.0209912 0)
(-0.00136358 -0.0205501 0)
(0.00178617 -0.0211395 0)
(-0.000438635 -0.0213782 0)
(-0.00290737 -0.0221926 0)
(-0.00156187 -0.0228214 0)
(-0.000138364 -0.0242998 0)
(0.000781767 -0.0203318 0)
(0.000524697 -0.0215861 0)
(-0.00182885 -0.0265357 0)
(-0.0028628 -0.0247431 0)
(0.0019875 -0.0256097 0)
(0.00248456 -0.0288319 0)
(0.00238747 -0.0293369 0)
(0.00284978 -0.0266162 0)
(0.00338303 -0.0240308 0)
(0.000640345 -0.0238954 0)
(0.00386306 -0.0209286 0)
(-0.000293436 -0.0187944 0)
(-0.000466831 -0.0146118 0)
(-0.00128325 -0.0138028 0)
(-0.00356077 -0.0121053 0)
(-0.00212854 -0.0103076 0)
(-0.00372322 -0.0131928 0)
(-0.00125126 -0.015013 0)
(0.000998636 -0.0181925 0)
(0.000568334 -0.0160425 0)
(0.00120668 -0.0124844 0)
(-0.00269657 -0.017742 0)
(0.000226557 -0.0216596 0)
(0.00233032 -0.0201757 0)
(0.00128548 -0.0208456 0)
(0.001268 -0.0192389 0)
(-0.000161994 -0.0177893 0)
(-0.000537506 -0.018569 0)
(-0.000449786 -0.0168748 0)
(-0.000214428 -0.0172072 0)
(0.000712333 -0.0164356 0)
(0.000952302 -0.016034 0)
(0.00264291 -0.0165104 0)
(0.00458678 -0.0180097 0)
(-0.0120931 -0.0676675 0)
(-0.0145295 0.0173715 0)
(-0.000597478 -0.032283 0)
(-0.00371856 -0.000132418 0)
(0.000469375 -0.0212002 0)
(-0.000892824 -0.0108802 0)
(0.00146148 -0.0188343 0)
(0.00227898 -0.017272 0)
(0.00238509 -0.0187369 0)
(0.00101547 -0.0168142 0)
(0.000291321 -0.0124317 0)
(-0.00150955 -0.0129563 0)
(-0.000939819 -0.0164518 0)
(0.00103055 -0.0156885 0)
(-0.000680409 -0.0152528 0)
(-0.00233583 -0.0155325 0)
(-0.00293541 -0.0156223 0)
(-0.00301191 -0.0160493 0)
(-0.00040562 -0.0116507 0)
(-0.00035773 -0.00993897 0)
(0.00415962 -0.0101443 0)
(0.00278043 -0.011182 0)
(0.0024029 -0.0150681 0)
(0.00305506 -0.0135682 0)
(7.93712e-05 -0.0126173 0)
(-0.00139442 -0.0138376 0)
(-0.00287714 -0.0135123 0)
(-0.00336473 -0.0133653 0)
(-0.00167988 -0.0138616 0)
(-0.000154265 -0.0157559 0)
(0.000375558 -0.0182402 0)
(0.000871204 -0.0181484 0)
(-0.000959549 -0.0180159 0)
(7.35801e-05 -0.0185934 0)
(-0.000543315 -0.0200039 0)
(-0.00162224 -0.0147801 0)
(-0.00290239 -0.0127194 0)
(7.77887e-05 -0.0162891 0)
(-0.00108281 -0.0167488 0)
(-0.000164164 -0.0182969 0)
(-0.000297043 -0.0212557 0)
(0.00173111 -0.0207713 0)
(-0.000269123 -0.0228513 0)
(-0.000110529 -0.0266589 0)
(0.000417459 -0.0224556 0)
(0.00235878 -0.0220802 0)
(0.00203512 -0.0266529 0)
(0.00203409 -0.0256253 0)
(0.00111209 -0.0235463 0)
(0.000406987 -0.0209314 0)
(-0.000931464 -0.0200719 0)
(0.00053035 -0.019077 0)
(-0.00141095 -0.0164533 0)
(0.00134439 -0.0125498 0)
(-0.00341926 -0.0129372 0)
(-0.00176413 -0.0103221 0)
(-0.00269631 -0.0130574 0)
(-0.00124978 -0.0143388 0)
(9.179e-05 -0.0107882 0)
(0.00147079 -0.0145318 0)
(0.0015199 -0.0161722 0)
(0.000291935 -0.0158514 0)
(-0.00146539 -0.0155347 0)
(0.000980188 -0.0170643 0)
(0.000818555 -0.0198158 0)
(0.00117644 -0.0197958 0)
(0.00069925 -0.0179951 0)
(-0.000764713 -0.0171326 0)
(0.000320184 -0.0166947 0)
(0.00169444 -0.0179021 0)
(0.00104044 -0.019851 0)
(0.00126044 -0.0206155 0)
(0.000422018 -0.0202104 0)
(0.000316728 -0.0178425 0)
(0.00503006 -0.0174841 0)
(-0.0171238 -0.053192 0)
(-0.00868054 -0.000970798 0)
(-0.00219499 -0.0311846 0)
(-0.00422192 -0.01094 0)
(0.00144138 -0.0243399 0)
(-0.000361331 -0.0187051 0)
(0.00124158 -0.0215746 0)
(0.000612321 -0.0193408 0)
(0.000502224 -0.0189965 0)
(0.00129261 -0.0176427 0)
(0.0014778 -0.0168137 0)
(-0.00200096 -0.0170804 0)
(-0.00100008 -0.0187002 0)
(0.000305648 -0.0199029 0)
(-0.00233183 -0.0192189 0)
(-0.00215933 -0.0180304 0)
(-0.00276063 -0.0178246 0)
(-0.00183688 -0.0179504 0)
(0.0019869 -0.0188917 0)
(-0.0023322 -0.0143273 0)
(0.00233149 -0.0111869 0)
(0.00168846 -0.0157659 0)
(0.00202794 -0.018254 0)
(0.00144313 -0.017082 0)
(-0.000502372 -0.0164177 0)
(-0.000900545 -0.0171727 0)
(-0.00175572 -0.0189549 0)
(-0.00250344 -0.0185902 0)
(0.00129651 -0.0159448 0)
(-0.000387149 -0.0172379 0)
(7.15827e-05 -0.0193393 0)
(0.00100835 -0.0178743 0)
(-0.000221728 -0.0160084 0)
(0.000201364 -0.0170363 0)
(-0.000760821 -0.0203902 0)
(0.000529252 -0.0192238 0)
(-0.00212392 -0.0154063 0)
(-0.000931161 -0.0155827 0)
(-0.000740474 -0.0180894 0)
(0.00305708 -0.0210397 0)
(0.000423409 -0.0226436 0)
(0.00252029 -0.0215605 0)
(0.000159099 -0.0226899 0)
(0.00123291 -0.0236314 0)
(0.00397142 -0.0213312 0)
(0.000850931 -0.0212881 0)
(-0.000677293 -0.0218636 0)
(0.00234928 -0.0197442 0)
(-0.000141048 -0.0186315 0)
(-0.00089086 -0.0168838 0)
(-0.00158827 -0.0153578 0)
(-0.000180128 -0.0141596 0)
(0.000634565 -0.010949 0)
(-0.00142039 -0.011985 0)
(-0.00302868 -0.0155593 0)
(0.000846613 -0.0150264 0)
(-0.0023914 -0.0156373 0)
(0.000498947 -0.0155677 0)
(0.000233417 -0.0139978 0)
(-0.00131028 -0.0162353 0)
(-0.00224072 -0.0147238 0)
(0.000507938 -0.0128537 0)
(0.00314897 -0.0147117 0)
(0.00220599 -0.0157563 0)
(0.00208814 -0.0150155 0)
(-0.000620354 -0.0134595 0)
(-0.00130142 -0.0121831 0)
(-0.0019434 -0.0114523 0)
(0.00167211 -0.0123885 0)
(0.00274859 -0.0154106 0)
(0.00230027 -0.0181454 0)
(0.000292007 -0.0195908 0)
(-6.57623e-05 -0.0203356 0)
(-0.000116208 -0.0136822 0)
(0.00314211 -0.015199 0)
(-0.0121816 -0.054656 0)
(-0.00116528 0.00675338 0)
(-0.00370364 -0.0323658 0)
(-0.00471556 -0.0132016 0)
(-0.00245396 -0.0234721 0)
(-0.00108219 -0.0182183 0)
(0.000374383 -0.0208433 0)
(0.000488726 -0.0193831 0)
(0.000518138 -0.0196997 0)
(0.000926635 -0.0199442 0)
(0.0014749 -0.0219719 0)
(0.000175517 -0.021933 0)
(0.000569781 -0.0217418 0)
(0.00103775 -0.0224096 0)
(0.000838771 -0.0197681 0)
(3.29927e-06 -0.0174352 0)
(-0.00124896 -0.0186144 0)
(-0.00341676 -0.0173927 0)
(0.0011408 -0.0227512 0)
(0.001126 -0.021106 0)
(0.000225816 -0.0159203 0)
(-0.000537536 -0.0200987 0)
(0.00195464 -0.0221584 0)
(0.00114696 -0.0224085 0)
(-7.21711e-05 -0.0224386 0)
(-0.000693135 -0.0232496 0)
(-0.00157345 -0.0246038 0)
(-0.000458342 -0.0205235 0)
(-0.000389628 -0.0188301 0)
(-0.00144955 -0.0221293 0)
(-0.00068987 -0.0203505 0)
(0.000451148 -0.0179082 0)
(0.00173606 -0.0160668 0)
(3.52196e-05 -0.0162405 0)
(-0.000519795 -0.0187172 0)
(-0.000989734 -0.0176462 0)
(-0.000941154 -0.0160388 0)
(-0.00184558 -0.017743 0)
(0.00115855 -0.0154273 0)
(0.00105069 -0.0170469 0)
(0.000787932 -0.018023 0)
(0.000549413 -0.0172749 0)
(0.000317917 -0.0219795 0)
(0.0012489 -0.0223203 0)
(0.000669392 -0.0210715 0)
(8.34585e-05 -0.0200575 0)
(5.29054e-05 -0.0156399 0)
(-0.000618633 -0.014566 0)
(-0.000890003 -0.0180228 0)