/*--------------------------------*- C++ -*----------------------------------*\
  =========                 |
  \\      /  F ield         | OpenFOAM: The Open Source CFD Toolbox
   \\    /   O peration     | Website:  https://openfoam.org
    \\  /    A nd           | Version:  12
     \\/     M anipulation  |
\*---------------------------------------------------------------------------*/
FoamFile
{
    format      ascii;
    class       volVectorField;
    location    "0.25";
    object      U.water_0;
}
// * * * * * * * * * * * * * * * * * * * * * * * * * * * * * * * * * * * * * //

dimensions      [0 1 -1 0 0 0 0];

internalField   nonuniform List<vector> 
3750
(
(-0.0134849 -0.0683341 0)
(-0.0256655 0.0344226 0)
(-0.00444778 -0.00590266 0)
(0.00110268 0.0165845 0)
(0.00543054 0.00809579 0)
(0.00157239 0.012001 0)
(-0.0030089 0.00427119 0)
(0.000331888 0.00893633 0)
(0.000308207 0.00770671 0)
(0.00023411 0.0110835 0)
(-0.00100085 0.0114561 0)
(-0.00107042 0.0127669 0)
(-1.97298e-05 0.0147891 0)
(-0.000633333 0.0153733 0)
(-8.70433e-05 0.0146312 0)
(0.000847561 0.0122232 0)
(0.000901683 0.011766 0)
(0.0009946 0.0118591 0)
(0.000721261 0.0124106 0)
(-0.0009145 0.0144637 0)
(-0.000679792 0.0138754 0)
(-0.000165034 0.0129745 0)
(-0.00122686 0.0128988 0)
(0.000604647 0.0118916 0)
(0.00051111 0.0117002 0)
(8.52081e-05 0.013189 0)
(0.00178758 0.0190537 0)
(-2.47291e-05 0.0204248 0)
(0.00149698 0.0145353 0)
(0.00209228 0.0180268 0)
(-0.00264949 0.0168796 0)
(-0.0031025 0.0122105 0)
(-0.00261617 0.012296 0)
(-0.00157822 0.0128346 0)
(0.000609893 0.0154724 0)
(0.00176781 0.0162137 0)
(0.00174639 0.0166587 0)
(0.00115568 0.0164964 0)
(-0.000528182 0.0158934 0)
(-0.00186103 0.017534 0)
(-0.000462661 0.0170418 0)
(0.000147518 0.0161971 0)
(4.67535e-05 0.0190198 0)
(0.000116622 0.0218382 0)
(0.000544815 0.0231667 0)
(0.00127742 0.0241693 0)
(0.00174302 0.0239189 0)
(0.00258385 0.0206871 0)
(0.00247472 0.0157683 0)
(-9.78882e-05 0.0131279 0)
(-0.000995892 0.0120901 0)
(-0.00141713 0.0113374 0)
(-0.00196904 0.0137526 0)
(-0.000438139 0.0141866 0)
(0.000370894 0.0118914 0)
(0.000747439 0.0103052 0)
(0.00120295 0.0107808 0)
(0.000662966 0.0127144 0)
(0.0007343 0.017985 0)
(0.00126023 0.0186819 0)
(0.00201686 0.0171305 0)
(0.00206085 0.0153329 0)
(0.00250346 0.0174968 0)
(-0.000251879 0.0155079 0)
(-8.53224e-05 0.0082148 0)
(-0.000780104 0.00760072 0)
(-0.00134693 0.00831525 0)
(-0.001425 0.00877971 0)
(-0.000723032 0.00944815 0)
(0.000286105 0.0102736 0)
(-0.000223012 0.0109496 0)
(0.000540983 0.0115635 0)
(-0.000203351 0.0113128 0)
(-0.00029442 0.012711 0)
(-0.00139557 0.0131539 0)
(-0.00676197 -0.0675196 0)
(-0.0143574 0.0108078 0)
(0.00435724 -0.0309293 0)
(0.00347454 0.000218897 0)
(0.00171218 -0.0199783 0)
(-0.000338501 -0.00313548 0)
(-0.00214473 -0.0104638 0)
(-0.00401669 -0.000397964 0)
(-0.00115029 -0.00877561 0)
(-0.00167853 -0.00385396 0)
(-0.00312918 -0.00558754 0)
(-0.00215948 0.000419417 0)
(-0.00133139 -0.0002009 0)
(0.00186842 0.000130976 0)
(0.00295226 -0.00229186 0)
(0.00150693 -0.00307776 0)
(0.000360796 -0.00300138 0)
(-0.00209275 -0.00177627 0)
(-0.00153074 -0.000557195 0)
(-0.00142758 -0.000203355 0)
(-2.84946e-05 -0.000803382 0)
(0.0034705 -0.00191225 0)
(0.00240063 0.000409642 0)
(-0.000782952 -0.00154055 0)
(-0.00181827 -0.00573822 0)
(-0.00224972 -0.00491095 0)
(-0.00106401 -0.00122818 0)
(-0.00315058 -0.000102792 0)
(0.000794977 -0.000366738 0)
(0.00395066 -0.00112534 0)
(0.000929844 -0.00162127 0)
(0.00081709 -0.00460789 0)
(-0.000302646 -0.00827944 0)
(-0.000827203 -0.00767374 0)
(-0.00139818 -0.00384701 0)
(-0.00272279 -0.00375531 0)
(-0.001342 -0.00201344 0)
(-0.000289276 -0.00138731 0)
(0.00134288 -0.00207398 0)
(0.000888607 -7.63249e-05 0)
(2.406e-05 -0.00135166 0)
(-0.00227203 -0.00301634 0)
(-0.00607295 0.00279033 0)
(-0.00492559 0.0076125 0)
(-0.00292744 0.0098054 0)
(-4.65329e-05 0.0120058 0)
(0.00258653 0.0147533 0)
(0.0051496 0.0158631 0)
(0.00578574 0.0133176 0)
(0.0029829 0.00871289 0)
(0.00240076 0.00403047 0)
(0.00021048 -0.00128699 0)
(0.000291771 -0.000311731 0)
(0.000351814 -0.00262601 0)
(-6.63374e-05 -0.00713365 0)
(-0.0026886 -0.0073439 0)
(-0.00341033 -0.00567271 0)
(-0.00411543 -0.0037858 0)
(-0.00236114 -0.000163278 0)
(-0.00123556 0.000788951 0)
(0.00156692 0.00180624 0)
(0.00306748 0.00194923 0)
(0.00423004 0.0017809 0)
(0.00184165 -8.64453e-05 0)
(0.00219894 -0.00568135 0)
(0.00117839 -0.00746588 0)
(0.000130402 -0.00790461 0)
(0.000361563 -0.0077538 0)
(-0.000208635 -0.00788645 0)
(-0.00152645 -0.00896298 0)
(-0.00186294 -0.00870244 0)
(-0.00171789 -0.00707709 0)
(-0.000533352 -0.00753169 0)
(0.000809208 -0.00619725 0)
(0.00121995 -0.00511753 0)
(-0.00748514 -0.057633 0)
(-0.0142942 0.00594862 0)
(-0.0103098 -0.0312881 0)
(-0.00332212 -0.00214884 0)
(-0.00182585 -0.0216553 0)
(-0.00108067 -0.00950669 0)
(0.00243557 -0.0149604 0)
(-0.00354676 -0.00756111 0)
(-0.00267706 -0.010283 0)
(-0.00345409 -0.0137614 0)
(-0.00394411 -0.0139841 0)
(-0.00467267 -0.00996482 0)
(-0.00248442 -0.00810588 0)
(0.0020555 -0.00515905 0)
(0.0031041 -0.00637041 0)
(0.00122095 -0.00728563 0)
(0.000160766 -0.0103707 0)
(-0.00154391 -0.01384 0)
(-0.000738095 -0.0142536 0)
(-0.000591281 -0.0148737 0)
(-0.00048458 -0.0154282 0)
(0.00525792 -0.0159967 0)
(0.00542744 -0.0155958 0)
(0.00044844 -0.0156667 0)
(-0.00119558 -0.0170315 0)
(-0.00234878 -0.0191668 0)
(-0.00145133 -0.018657 0)
(-0.000509563 -0.0187647 0)
(0.00129192 -0.0209039 0)
(0.0020604 -0.0214285 0)
(0.00074474 -0.0217554 0)
(-2.00411e-05 -0.0218583 0)
(-1.84058e-05 -0.0224054 0)
(-0.00115716 -0.0204047 0)
(-0.00381235 -0.0187991 0)
(-0.00269384 -0.0181243 0)
(-0.00123066 -0.0163331 0)
(9.77635e-05 -0.0152747 0)
(0.00131589 -0.0140419 0)
(0.000786454 -0.0123678 0)
(-0.00494007 -0.0103115 0)
(-0.00644563 -0.0122143 0)
(-0.00707993 -0.00960018 0)
(-0.00727777 -0.00487204 0)
(-0.00776434 -0.00599812 0)
(-0.00565947 -0.00597256 0)
(-0.001426 -0.00203375 0)
(0.00512716 0.000853379 0)
(0.0092864 0.00177263 0)
(0.00945217 -0.0010591 0)
(0.00774828 -0.0038871 0)
(0.0064626 -0.0082482 0)
(0.00534811 -0.00905158 0)
(0.00121454 -0.00912247 0)
(-0.000718352 -0.0112253 0)
(-0.00302802 -0.0127265 0)
(-0.00225747 -0.0140296 0)
(-0.0023674 -0.0158632 0)
(-0.0011945 -0.0164724 0)
(-0.000786727 -0.0165873 0)
(0.00141169 -0.0124517 0)
(0.00343155 -0.00918541 0)
(0.00492875 -0.00984636 0)
(0.00651095 -0.0121346 0)
(0.00358089 -0.0134329 0)
(-0.000401406 -0.012155 0)
(-0.000908697 -0.0106093 0)
(0.00184577 -0.0108451 0)
(0.000398633 -0.0131314 0)
(-0.000686097 -0.0127334 0)
(-0.00151137 -0.0129139 0)
(-0.00306455 -0.0144611 0)
(-0.00196104 -0.0150898 0)
(-0.00103669 -0.0140933 0)
(0.000854198 -0.0122018 0)
(-0.0066378 -0.0584968 0)
(-0.0117116 0.0150785 0)
(-0.00747432 -0.0310353 0)
(-0.00409981 -0.0107596 0)
(-0.00369159 -0.0233512 0)
(-0.00163527 -0.0135427 0)
(-0.0015023 -0.0156804 0)
(-0.000955074 -0.0108281 0)
(-0.00258162 -0.0113009 0)
(-0.00183967 -0.0110049 0)
(-0.00291496 -0.0143893 0)
(-0.00420543 -0.0116386 0)
(-0.0038587 -0.00942795 0)
(-0.0011157 -0.00831508 0)
(0.000780179 -0.00878104 0)
(0.00324011 -0.0115194 0)
(0.00355706 -0.0126945 0)
(0.00172857 -0.0164957 0)
(0.00140676 -0.0194134 0)
(0.000657477 -0.0211394 0)
(0.00221192 -0.017022 0)
(0.00297985 -0.0172969 0)
(0.00239325 -0.0210919 0)
(7.63894e-05 -0.0189939 0)
(-0.0011796 -0.0201831 0)
(-0.0017127 -0.0222391 0)
(-0.00151489 -0.0214075 0)
(0.000988986 -0.0204775 0)
(0.00129108 -0.0216752 0)
(0.00228046 -0.0226216 0)
(0.00266596 -0.0241429 0)
(0.00155665 -0.0256441 0)
(-0.00135217 -0.0263448 0)
(-0.00285666 -0.0251795 0)
(-0.00481448 -0.0232995 0)
(-0.00293924 -0.0238152 0)
(-0.00130439 -0.0260338 0)
(-0.00136471 -0.0245539 0)
(-0.00073532 -0.020306 0)
(-0.00148564 -0.0167901 0)
(-0.0022391 -0.0145307 0)
(-0.00316188 -0.0151705 0)
(-0.00351472 -0.0147015 0)
(-0.00749085 -0.0143561 0)
(-0.00980512 -0.0155126 0)
(-0.00850628 -0.0157618 0)
(-0.0048883 -0.0133077 0)
(0.00267238 -0.0120082 0)
(0.00959772 -0.0124626 0)
(0.0121692 -0.0123434 0)
(0.0105198 -0.0141908 0)
(0.0105981 -0.0136946 0)
(0.00442141 -0.0114659 0)
(-0.00124389 -0.010236 0)
(-0.00177446 -0.0116253 0)
(-0.00233544 -0.0141197 0)
(-0.00135896 -0.0160905 0)
(0.000241816 -0.0180597 0)
(-0.000617354 -0.0171967 0)
(-0.00146065 -0.017961 0)
(-0.000517848 -0.018235 0)
(0.000408676 -0.0176965 0)
(0.00262515 -0.0125643 0)
(0.00380378 -0.0117739 0)
(0.00367295 -0.0167079 0)
(0.00118163 -0.0151394 0)
(0.000340145 -0.0102735 0)
(-0.000441493 -0.0109712 0)
(-0.000551923 -0.0150363 0)
(0.000707583 -0.013397 0)
(0.000302591 -0.013005 0)
(-0.000411504 -0.0137216 0)
(-0.00118884 -0.0157983 0)
(-0.00151952 -0.0164816 0)
(-0.00109159 -0.0147604 0)
(-0.00690375 -0.0591066 0)
(-0.0122668 0.0117794 0)
(-0.0100656 -0.0288522 0)
(-0.00708559 -0.00547032 0)
(-0.00531882 -0.0232701 0)
(-0.00428272 -0.0149518 0)
(-0.00359559 -0.020677 0)
(-0.00331169 -0.0160905 0)
(-0.0025557 -0.0150337 0)
(-0.0022082 -0.0137955 0)
(-0.00029944 -0.0132037 0)
(-0.000259481 -0.0113096 0)
(-0.00247606 -0.010877 0)
(-0.00127178 -0.00966802 0)
(-0.00169363 -0.00977915 0)
(0.000929338 -0.0100193 0)
(0.00506918 -0.00910155 0)
(0.00586837 -0.0116015 0)
(0.000719918 -0.0160614 0)
(8.65555e-05 -0.017784 0)
(0.00277422 -0.0181344 0)
(0.0018443 -0.0186071 0)
(0.0022586 -0.0182331 0)
(0.000832249 -0.0173518 0)
(-0.000552877 -0.0190609 0)
(-0.000627679 -0.0213631 0)
(-0.000667892 -0.0172735 0)
(0.000279739 -0.0156651 0)
(0.000560839 -0.0175185 0)
(0.0021735 -0.0168709 0)
(0.00117941 -0.0154197 0)
(0.0038595 -0.0148162 0)
(0.000588097 -0.0151177 0)
(-0.000898049 -0.0179457 0)
(-0.00316562 -0.020622 0)
(-0.00371064 -0.0223571 0)
(-0.00221748 -0.025084 0)
(-0.00210667 -0.0236134 0)
(-0.00298437 -0.0204782 0)
(-0.00392124 -0.0175259 0)
(-0.00372382 -0.0138664 0)
(-0.00450696 -0.0142843 0)
(-0.00467731 -0.0146233 0)
(-0.00717262 -0.0157066 0)
(-0.00776976 -0.0171634 0)
(-0.00939033 -0.0175768 0)
(-0.0064108 -0.0179514 0)
(0.00352458 -0.0210634 0)
(0.00817029 -0.0220898 0)
(0.00960063 -0.0203432 0)
(0.0121571 -0.0144467 0)
(0.0107408 -0.0130112 0)
(0.00328447 -0.0147793 0)
(-0.0016117 -0.0115973 0)
(-0.00401239 -0.0135469 0)
(-0.00298382 -0.0167313 0)
(-0.00419532 -0.0168506 0)
(0.00061387 -0.0183047 0)
(-0.000180242 -0.0198489 0)
(-0.00124465 -0.0198245 0)
(0.000332935 -0.0194833 0)
(0.00211879 -0.0202052 0)
(0.00456058 -0.0190009 0)
(0.00058642 -0.0180615 0)
(0.00426836 -0.0196792 0)
(0.00132789 -0.0198162 0)
(0.00213621 -0.0179898 0)
(-0.00202323 -0.0202241 0)
(-0.00102146 -0.0217839 0)
(-0.00144238 -0.0204459 0)
(-0.000991282 -0.0184533 0)
(0.000526387 -0.0181655 0)
(-0.0011496 -0.0202591 0)
(-0.000931425 -0.0213786 0)
(-0.00150349 -0.0214655 0)
(-0.00952841 -0.0631694 0)
(-0.0102701 0.0165488 0)
(-0.00353164 -0.0318439 0)
(-0.00536591 -0.00302655 0)
(-0.00179188 -0.0221872 0)
(-0.00337304 -0.0144063 0)
(-0.0032282 -0.0189054 0)
(-0.0039696 -0.0170386 0)
(-0.00393783 -0.0176007 0)
(-0.00532407 -0.01539 0)
(-0.00334812 -0.014776 0)
(-0.00351694 -0.0137615 0)
(-0.00358744 -0.0122217 0)
(-0.00247807 -0.0113078 0)
(-0.00151362 -0.010887 0)
(-0.000674384 -0.00973453 0)
(0.00653013 -0.00605033 0)
(0.00858271 -0.00623121 0)
(0.0043965 -0.0108098 0)
(0.00351941 -0.0130222 0)
(0.00283822 -0.0164146 0)
(0.00287054 -0.0177066 0)
(0.000471856 -0.0175082 0)
(0.00144278 -0.016623 0)
(-0.000122959 -0.0163784 0)
(0.0011899 -0.0171361 0)
(0.000508325 -0.0155437 0)
(-0.00284627 -0.0148488 0)
(-0.00202535 -0.0149049 0)
(0.00137017 -0.0152549 0)
(0.00124551 -0.0110438 0)
(0.000497519 -0.00719651 0)
(0.00333919 -0.00852557 0)
(0.00155264 -0.0126563 0)
(-0.000263893 -0.0186451 0)
(-0.000487509 -0.0201007 0)
(-0.000527576 -0.0202546 0)
(-0.00438386 -0.0188482 0)
(-0.00624036 -0.0142468 0)
(-0.00546341 -0.012413 0)
(-0.00486231 -0.0132659 0)
(-0.00464883 -0.015851 0)
(-0.00459715 -0.0172709 0)
(-0.00524114 -0.0193021 0)
(-0.00456218 -0.0216652 0)
(-0.00327857 -0.0230927 0)
(-0.00129662 -0.0167336 0)
(0.00272517 -0.0197467 0)
(0.00776409 -0.0255065 0)
(0.00894706 -0.0186 0)
(0.00943811 -0.0151335 0)
(0.00363871 -0.0160952 0)
(0.000285226 -0.0164474 0)
(-0.000863376 -0.0169317 0)
(-0.00111861 -0.0178853 0)
(-0.000339425 -0.0199952 0)
(-0.000635876 -0.0168795 0)
(-0.000122276 -0.0181007 0)
(-0.000267336 -0.0228467 0)
(-0.00129998 -0.0219935 0)
(0.000372945 -0.0206772 0)
(0.000299677 -0.0210788 0)
(0.00257902 -0.0217238 0)
(0.0024016 -0.0184456 0)
(0.00352158 -0.0196764 0)
(0.00405337 -0.0198509 0)
(-0.000127216 -0.0175358 0)
(-0.00128356 -0.021181 0)
(-0.000285899 -0.0212669 0)
(-0.00036385 -0.0209075 0)
(0.00033654 -0.0171141 0)
(-0.000184142 -0.0168114 0)
(-0.0032333 -0.0205018 0)
(-0.000143438 -0.0229176 0)
(-0.000516323 -0.0231413 0)
(-0.0132374 -0.0606118 0)
(-0.0108483 0.00494677 0)
(-0.00442184 -0.0337007 0)
(-0.00619321 -0.00818874 0)
(-0.00385779 -0.0206308 0)
(-0.00467817 -0.0088561 0)
(-0.00443954 -0.0121146 0)
(-0.0040821 -0.00848306 0)
(-0.00376433 -0.0116712 0)
(-0.00413779 -0.0102236 0)
(-0.00321627 -0.0122774 0)
(-0.00280702 -0.0152924 0)
(-0.00482521 -0.0168581 0)
(-0.00100392 -0.0168448 0)
(-0.000138963 -0.0190294 0)
(0.00130441 -0.0149775 0)
(0.00494501 -0.0121545 0)
(0.00427781 -0.0157001 0)
(0.00710515 -0.0152992 0)
(0.00678894 -0.0162651 0)
(0.00653335 -0.0181607 0)
(0.00469273 -0.0178878 0)
(0.00224135 -0.013543 0)
(-0.000240386 -0.0113916 0)
(-0.000156972 -0.0114204 0)
(-0.0005379 -0.0129524 0)
(-0.00250584 -0.0159087 0)
(-0.000617396 -0.016829 0)
(-0.0017455 -0.0157675 0)
(0.000457938 -0.014307 0)
(0.00185965 -0.0138618 0)
(-0.0012348 -0.00956995 0)
(0.00144739 -0.010589 0)
(0.00269198 -0.0164462 0)
(0.0026263 -0.017588 0)
(0.000420305 -0.0140478 0)
(-0.00446863 -0.0127146 0)
(-0.00813072 -0.0108989 0)
(-0.00761272 -0.0110689 0)
(-0.00505091 -0.0134224 0)
(-0.00268631 -0.0151515 0)
(-0.00135653 -0.0161976 0)
(-0.0015896 -0.0181024 0)
(-0.00235853 -0.0204915 0)
(-0.00265327 -0.021713 0)
(0.0013289 -0.0243045 0)
(0.00240923 -0.018238 0)
(-0.0021509 -0.0124951 0)
(0.001509 -0.0161972 0)
(0.00477201 -0.0156285 0)
(0.00639805 -0.0132509 0)
(0.00379975 -0.013609 0)
(0.000798922 -0.0157691 0)
(-0.000218809 -0.017283 0)
(0.00205193 -0.0192435 0)
(0.000616213 -0.0203601 0)
(0.00141241 -0.0190407 0)
(-0.00198886 -0.0200443 0)
(0.000476991 -0.0220422 0)
(0.00135546 -0.0181852 0)
(0.000568054 -0.0161047 0)
(-0.000217839 -0.0171524 0)
(0.00096575 -0.0206528 0)
(0.00409381 -0.0224347 0)
(0.00317391 -0.0202092 0)
(0.00488307 -0.020824 0)
(-0.000571963 -0.0175355 0)
(-0.00103271 -0.0144931 0)
(-0.00187545 -0.0177132 0)
(-0.00238595 -0.0188249 0)
(0.0017882 -0.0165308 0)
(-0.00122073 -0.0162659 0)
(-0.000187132 -0.0136862 0)
(1.30156e-05 -0.0166913 0)
(0.00264616 -0.0200322 0)
(-0.0138999 -0.0573527 0)
(-0.00809906 0.00434689 0)
(-0.00722332 -0.0319219 0)
(-0.00634101 -0.0119179 0)
(-0.00525171 -0.0236023 0)
(-0.00523835 -0.0164166 0)
(-0.00599511 -0.0184189 0)
(-0.00248118 -0.0163088 0)
(-0.00294006 -0.018266 0)
(-0.00128868 -0.0205998 0)
(0.00142726 -0.0233331 0)
(0.000312656 -0.0275745 0)
(-0.00274441 -0.0267931 0)
(-0.000895522 -0.0269817 0)
(-0.0036199 -0.0306256 0)
(-0.000196987 -0.0255462 0)
(0.00160561 -0.0242908 0)
(0.00453568 -0.0241373 0)
(0.00658484 -0.0226824 0)
(0.00610031 -0.0219284 0)
(0.00420331 -0.0191816 0)
(0.000808043 -0.0167953 0)
(0.00142615 -0.0154782 0)
(0.00027615 -0.0130557 0)
(0.0012782 -0.0155856 0)
(-0.000959402 -0.0215798 0)
(-0.00125164 -0.0191002 0)
(-0.00155592 -0.0187466 0)
(-0.0024231 -0.018982 0)
(-0.00131929 -0.01676 0)
(0.000313206 -0.0177864 0)
(0.00261494 -0.0159335 0)
(0.00218229 -0.015509 0)
(0.00134144 -0.0172887 0)
(8.55902e-05 -0.012306 0)
(-0.00480515 -0.00675406 0)
(-0.00604496 -0.00635413 0)
(-0.00566557 -0.0068355 0)
(-0.00427475 -0.0110241 0)
(-0.00146009 -0.0174625 0)
(-0.000682031 -0.0202746 0)
(-0.000708463 -0.0202543 0)
(-0.00126199 -0.0204763 0)
(0.000190813 -0.0211535 0)
(-0.00152045 -0.0225488 0)
(0.0012339 -0.0247011 0)
(0.00140771 -0.0224576 0)
(-0.00249128 -0.0186952 0)
(-0.00398524 -0.0181474 0)
(-0.000944276 -0.0155861 0)
(0.00333785 -0.0160612 0)
(0.00461598 -0.0189645 0)
(0.00278149 -0.0181396 0)
(0.00316234 -0.0157224 0)
(0.00210688 -0.0187121 0)
(0.000519768 -0.0227436 0)
(-0.000830528 -0.0212765 0)
(-0.00257523 -0.0192193 0)
(0.000302076 -0.0186569 0)
(0.00395986 -0.0166223 0)
(0.00187279 -0.0161356 0)
(0.000311391 -0.0172457 0)
(-0.00070612 -0.0189732 0)
(0.00144999 -0.0194831 0)
(0.00439001 -0.0198333 0)
(0.00268516 -0.020609 0)
(0.00262022 -0.0176984 0)
(-0.000490769 -0.0162204 0)
(-0.00369327 -0.020176 0)
(-0.00322246 -0.0181352 0)
(-0.00136954 -0.0188925 0)
(0.0024829 -0.0201739 0)
(0.00306077 -0.0161735 0)
(-0.000124993 -0.0154398 0)
(0.00402441 -0.0199097 0)
(-0.0101275 -0.0575525 0)
(-0.00631576 0.0161617 0)
(-0.0084074 -0.0317715 0)
(-0.00513462 -0.0112033 0)
(-0.00472319 -0.0232901 0)
(-0.00401059 -0.0198789 0)
(-0.00457566 -0.0202666 0)
(-0.00318816 -0.0203667 0)
(-0.00251046 -0.026473 0)
(-0.00133934 -0.0249416 0)
(0.00429353 -0.0265934 0)
(0.00324618 -0.0295546 0)
(0.00299334 -0.0260346 0)
(-0.00235885 -0.0271053 0)
(-0.00207311 -0.0313173 0)
(-0.0024728 -0.0274746 0)
(-0.00312932 -0.0312541 0)
(5.8205e-05 -0.0337118 0)
(0.00261528 -0.0270876 0)
(0.00263582 -0.0225097 0)
(0.00221125 -0.0219036 0)
(0.00227571 -0.021734 0)
(0.00264422 -0.0223488 0)
(0.00490411 -0.0224112 0)
(0.00143993 -0.0238819 0)
(0.00079066 -0.0235717 0)
(0.000661298 -0.0217252 0)
(-0.00406146 -0.0207147 0)
(-0.00442408 -0.017056 0)
(-0.00412227 -0.01367 0)
(-0.00168401 -0.0138221 0)
(0.00028832 -0.01172 0)
(8.26339e-05 -0.0118576 0)
(-0.00153702 -0.0120646 0)
(-0.00310061 -0.0113595 0)
(-0.00537217 -0.0115647 0)
(-0.00365121 -0.0131487 0)
(-0.000304346 -0.0149645 0)
(0.00178433 -0.0168423 0)
(0.00171 -0.0197107 0)
(0.000308936 -0.0196018 0)
(-0.00129253 -0.0194979 0)
(-0.00179379 -0.0196225 0)
(-0.000503725 -0.0208148 0)
(0.000263771 -0.0171163 0)
(0.00146217 -0.0162138 0)
(0.000849674 -0.0197335 0)
(-0.00183086 -0.0209823 0)
(-0.00225157 -0.0236804 0)
(0.000643459 -0.0233001 0)
(0.00116 -0.0214604 0)
(0.00528097 -0.0233403 0)
(0.0046157 -0.0214502 0)
(0.00345575 -0.0177978 0)
(0.0016022 -0.0194765 0)
(-0.000294224 -0.0217756 0)
(-0.00173797 -0.0222953 0)
(-0.00406495 -0.0200961 0)
(-0.00120678 -0.0171317 0)
(0.00278862 -0.0158175 0)
(0.00180951 -0.0140464 0)
(0.0016064 -0.0135913 0)
(0.000883499 -0.013913 0)
(0.00308674 -0.0111436 0)
(0.00298815 -0.0133154 0)
(0.00214302 -0.0173779 0)
(0.0019721 -0.0160119 0)
(0.00120999 -0.0162485 0)
(-0.000875993 -0.0172567 0)
(6.22816e-05 -0.0171529 0)
(0.000807714 -0.0164659 0)
(0.0026696 -0.0188666 0)
(0.000392109 -0.0179873 0)
(0.00215564 -0.0110105 0)
(0.00228123 -0.0130742 0)
(-0.00778713 -0.0503042 0)
(-0.00781989 0.0149168 0)
(-0.0074289 -0.0344303 0)
(-0.00314397 -0.0100818 0)
(-0.00187574 -0.0236775 0)
(-0.00111519 -0.0176754 0)
(-5.14486e-05 -0.0211144 0)
(-0.00296282 -0.0218845 0)
(-0.00091217 -0.0273339 0)
(0.00111578 -0.0229441 0)
(0.00157027 -0.0239479 0)
(0.00194037 -0.0274642 0)
(0.00370964 -0.0231416 0)
(-0.000136378 -0.0214245 0)
(0.0018123 -0.0219788 0)
(-0.00133416 -0.0227187 0)
(-0.00396708 -0.0254954 0)
(-0.00129129 -0.0278154 0)
(0.00199303 -0.027105 0)
(0.00217966 -0.0258185 0)
(0.00313757 -0.0253917 0)
(0.00211775 -0.0252454 0)
(0.00233879 -0.023412 0)
(0.00148425 -0.0224495 0)
(0.000530879 -0.0228053 0)
(0.000448555 -0.0207404 0)
(-0.00156985 -0.0183204 0)
(-0.0029585 -0.0179044 0)
(-0.00447502 -0.0157576 0)
(-0.00325374 -0.0124308 0)
(-0.00340925 -0.012788 0)
(-0.00163478 -0.012766 0)
(-0.00133186 -0.0156895 0)
(-0.000612989 -0.0186232 0)
(-0.000315961 -0.0201074 0)
(-0.00188414 -0.0204284 0)
(-0.00256395 -0.0218951 0)
(-0.00233877 -0.0224497 0)
(-0.00211689 -0.0201129 0)
(-0.000824435 -0.0188875 0)
(0.000308791 -0.0190078 0)
(-8.96908e-05 -0.0182928 0)
(-0.00135214 -0.0175357 0)
(-0.000155762 -0.016784 0)
(0.00154786 -0.0154137 0)
(-0.00131423 -0.0149921 0)
(3.74592e-05 -0.0171488 0)
(0.00120659 -0.0209215 0)
(0.00200438 -0.0237587 0)
(0.00545952 -0.0242463 0)
(0.00280981 -0.0218008 0)
(0.00604474 -0.0219819 0)
(0.00438977 -0.0218538 0)
(0.00262791 -0.0167953 0)
(0.000827633 -0.0178346 0)
(-0.000123488 -0.0197592 0)
(-0.00089528 -0.0200276 0)
(-0.00265877 -0.0167314 0)
(-0.0031374 -0.0125162 0)
(-0.00242922 -0.0158055 0)
(-0.00142516 -0.0169396 0)
(-0.000370827 -0.0143894 0)
(0.00105345 -0.0122527 0)
(0.00640408 -0.0106538 0)
(0.00181572 -0.0126776 0)
(0.0025286 -0.0138848 0)
(0.00215826 -0.0126258 0)
(0.00190809 -0.0138346 0)
(0.000829577 -0.0173725 0)
(0.00117182 -0.0152809 0)
(0.00244692 -0.0177619 0)
(-0.00014195 -0.023215 0)
(-0.000372551 -0.0165651 0)
(0.00184381 -0.0061631 0)
(0.000565272 -0.0100996 0)
(-0.00066934 -0.0570645 0)
(-0.00888997 0.0137118 0)
(-0.0121522 -0.03518 0)
(-0.00379152 -0.0110952 0)
(-0.00380288 -0.0224908 0)
(-0.000584283 -0.0146476 0)
(-0.00122373 -0.0186946 0)
(-0.00166204 -0.0179537 0)
(-8.45339e-05 -0.0191101 0)
(0.00527866 -0.0179774 0)
(0.000292612 -0.0197208 0)
(-0.000741164 -0.0197166 0)
(0.00144766 -0.0158272 0)
(0.00138423 -0.0135898 0)
(-0.00109921 -0.014749 0)
(-0.00181358 -0.0153454 0)
(-0.00257674 -0.0162135 0)
(-0.000525102 -0.0167937 0)
(0.00198948 -0.0188027 0)
(0.00231318 -0.0187566 0)
(0.00224669 -0.016887 0)
(-0.000225204 -0.016425 0)
(0.000983397 -0.013717 0)
(0.000253173 -0.0143 0)
(-0.00227272 -0.0153215 0)
(-0.000378744 -0.0151572 0)
(-0.00216248 -0.0152212 0)
(-0.00176252 -0.0163015 0)
(-0.000852286 -0.0129324 0)
(-0.000400588 -0.0118912 0)
(-0.00228437 -0.0154758 0)
(-1.3154e-06 -0.0163945 0)
(-0.00271392 -0.0197004 0)
(-0.00184741 -0.0199522 0)
(-0.00148329 -0.0211331 0)
(-0.00229247 -0.0224317 0)
(-0.00308951 -0.0222088 0)
(-0.00154055 -0.0225287 0)
(-0.000397337 -0.022587 0)
(-0.000134487 -0.0221976 0)
(-4.70766e-05 -0.021221 0)
(-0.000833014 -0.0201763 0)
(-0.00253083 -0.0181155 0)
(-0.00017764 -0.017431 0)
(0.00239801 -0.0193331 0)
(0.000672916 -0.0194496 0)
(0.00230356 -0.0214682 0)
(0.00278273 -0.0257522 0)
(0.00280773 -0.0277834 0)
(0.00341631 -0.0261682 0)
(0.00305432 -0.0207955 0)
(0.0028527 -0.0201474 0)
(0.00249046 -0.0219156 0)
(0.00459448 -0.0179402 0)
(-0.00125634 -0.0177285 0)
(-0.00196959 -0.0174195 0)
(-0.00336167 -0.0164763 0)
(0.000326514 -0.0145447 0)
(-0.00157454 -0.0134031 0)
(-0.00392575 -0.0166683 0)
(-0.00146303 -0.0195917 0)
(0.000715756 -0.0209916 0)
(0.00162277 -0.0166708 0)
(0.00180256 -0.0153567 0)
(0.00233911 -0.0184344 0)
(0.00430118 -0.01721 0)
(0.00293464 -0.017449 0)
(0.00289769 -0.0182581 0)
(0.00306118 -0.0186192 0)
(0.00553285 -0.016792 0)
(0.00181372 -0.0169565 0)
(0.00082975 -0.0191121 0)
(0.00146083 -0.0137332 0)
(-0.000104545 -0.00694983 0)
(-0.00497469 -0.0103493 0)
(-0.00365095 -0.0663949 0)
(-0.00855503 0.0246461 0)
(-0.00923418 -0.034093 0)
(-0.00351862 -0.00216352 0)
(-0.00549403 -0.0227865 0)
(-0.00116378 -0.0125817 0)
(-0.00288468 -0.0176382 0)
(-0.000221011 -0.0150134 0)
(0.00119553 -0.0128823 0)
(0.00275085 -0.0133744 0)
(-0.000240942 -0.0190964 0)
(-0.00223268 -0.0138485 0)
(0.000621284 -0.0080343 0)
(-0.00141361 -0.0116761 0)
(-0.00208497 -0.0152449 0)
(-0.0014787 -0.0151899 0)
(-0.00122039 -0.0159673 0)
(-0.000357903 -0.0160815 0)
(0.0028514 -0.0149439 0)
(0.00356691 -0.0147032 0)
(0.00224106 -0.0157645 0)
(0.00253964 -0.0121603 0)
(0.00176961 -0.00897618 0)
(0.000725107 -0.0140273 0)
(0.00047981 -0.0133912 0)
(-0.000885189 -0.0125879 0)
(-0.00321808 -0.0157582 0)
(-0.00168096 -0.0159052 0)
(-0.000950616 -0.0152744 0)
(-0.00165554 -0.0165314 0)
(-0.000181082 -0.015716 0)
(-0.000764797 -0.0167371 0)
(-0.00228385 -0.0211871 0)
(-0.00126188 -0.0209559 0)
(-0.00105653 -0.0216273 0)
(-0.000401523 -0.0224966 0)
(-0.00208291 -0.0227263 0)
(-0.000209996 -0.0227386 0)
(-0.00158595 -0.0242662 0)
(-0.00161105 -0.0240924 0)
(-0.000389641 -0.0241646 0)
(-0.000281683 -0.0243839 0)
(-0.000784588 -0.0224763 0)
(-0.000723637 -0.0191359 0)
(-0.000494828 -0.0228782 0)
(0.000261534 -0.0259977 0)
(0.000102482 -0.0280672 0)
(0.00161958 -0.0304018 0)
(0.00225611 -0.0278554 0)
(0.00174352 -0.0258242 0)
(0.00127157 -0.0216569 0)
(0.00176279 -0.0185111 0)
(0.0023077 -0.014919 0)
(0.000344368 -0.0135579 0)
(-0.00166599 -0.0156189 0)
(-0.00289153 -0.0140456 0)
(-0.00319609 -0.0125357 0)
(-0.000197247 -0.0113428 0)
(-0.00206341 -0.0139848 0)
(-0.00231748 -0.0160532 0)
(-8.02856e-05 -0.016345 0)
(0.00122881 -0.017237 0)
(0.00258588 -0.0184644 0)
(-0.000574549 -0.0191034 0)
(0.00101736 -0.0189299 0)
(0.00447766 -0.0206366 0)
(0.00272466 -0.020169 0)
(0.000923805 -0.0188973 0)
(4.3206e-05 -0.0193652 0)
(-2.66766e-05 -0.0164744 0)
(-0.000594942 -0.0173218 0)
(0.00137189 -0.0165111 0)
(0.00429175 -0.0138645 0)
(0.00271064 -0.0135319 0)
(-0.00135648 -0.0135872 0)
(-0.0124837 -0.0672907 0)
(-0.0163779 0.0193761 0)
(0.00185637 -0.0320641 0)
(-0.00582745 -0.000944659 0)
(-0.000409595 -0.0222728 0)
(-0.00121363 -0.0127405 0)
(0.0014782 -0.018421 0)
(0.00230682 -0.0129873 0)
(0.00340683 -0.0129512 0)
(-0.0014226 -0.0133249 0)
(-0.000883523 -0.0174628 0)
(0.00117351 -0.011724 0)
(4.60922e-05 -0.00941258 0)
(-0.00431005 -0.0141055 0)
(-0.00117224 -0.0153963 0)
(0.000804651 -0.0176349 0)
(-0.00112333 -0.0188015 0)
(-0.000547198 -0.0165935 0)
(0.000215522 -0.0145174 0)
(0.00219592 -0.0140371 0)
(0.00341526 -0.0121682 0)
(0.00422281 -0.0113436 0)
(0.00228541 -0.0124828 0)
(-0.000560085 -0.0138773 0)
(0.00180082 -0.0131468 0)
(-0.0039621 -0.013425 0)
(-0.00276528 -0.0103428 0)
(-0.00164855 -0.010782 0)
(-0.000516324 -0.0143898 0)
(-0.000101717 -0.0154865 0)
(0.00145819 -0.0166093 0)
(-0.0013647 -0.0168185 0)
(-0.00230449 -0.0181606 0)
(-0.000464612 -0.0181594 0)
(-0.000832312 -0.019278 0)
(-0.00144195 -0.0189613 0)
(-0.00188354 -0.0146492 0)
(-0.00117372 -0.0153548 0)
(-0.00180629 -0.0195799 0)
(-0.00125051 -0.0195942 0)
(-8.1332e-05 -0.0224986 0)
(-0.000206109 -0.0230475 0)
(0.0012019 -0.0211572 0)
(0.00160854 -0.0208008 0)
(-0.00179034 -0.0230664 0)
(0.000951074 -0.0252177 0)
(0.000797518 -0.0248562 0)
(0.00142651 -0.024349 0)
(0.00128677 -0.0241852 0)
(0.0014002 -0.0229863 0)
(0.000601218 -0.0180344 0)
(-0.00140475 -0.0150171 0)
(0.00113237 -0.015208 0)
(-0.00340702 -0.012023 0)
(-0.00327797 -0.0121406 0)
(-0.00540094 -0.0122761 0)
(-0.00140739 -0.0124037 0)
(0.000990345 -0.0137282 0)
(-0.00198998 -0.0146187 0)
(-0.000385779 -0.0134188 0)
(0.000850604 -0.013381 0)
(0.00194546 -0.0149102 0)
(0.00404009 -0.0162542 0)
(0.00268987 -0.0187923 0)
(0.00227062 -0.0168752 0)
(0.00318732 -0.0184843 0)
(0.00194145 -0.0207299 0)
(-0.000691351 -0.0186854 0)
(0.000141584 -0.0177604 0)
(0.00137951 -0.0175228 0)
(0.000879086 -0.019302 0)
(0.00150815 -0.0195083 0)
(0.00282772 -0.0183974 0)
(0.00256948 -0.0172042 0)
(0.00235777 -0.0167311 0)
(-0.0149118 -0.0551403 0)
(-0.0104914 0.00324059 0)
(-0.00234832 -0.0311213 0)
(-0.00561017 -0.0149044 0)
(0.00116809 -0.0238913 0)
(-0.000569977 -0.0190254 0)
(0.00331293 -0.0208971 0)
(0.0010088 -0.0165688 0)
(-0.000105751 -0.0166588 0)
(-0.00491075 -0.0159718 0)
(-0.00122849 -0.0153308 0)
(0.00249759 -0.0133334 0)
(0.00119747 -0.0166085 0)
(-0.000287377 -0.0189045 0)
(-0.00123952 -0.0157448 0)
(-0.00173882 -0.0193553 0)
(-0.00226873 -0.0223779 0)
(-0.00208797 -0.020452 0)
(-0.0034126 -0.0187179 0)
(0.0024176 -0.0164723 0)
(0.00260905 -0.017373 0)
(0.00222835 -0.0166309 0)
(0.00179709 -0.0160677 0)
(0.000395772 -0.0172191 0)
(-0.000546946 -0.016888 0)
(-0.00310188 -0.0159097 0)
(-0.000324898 -0.0146183 0)
(6.67565e-05 -0.0167716 0)
(0.000287131 -0.0170218 0)
(-0.000777187 -0.0170131 0)
(-1.54125e-05 -0.0188182 0)
(-0.000484308 -0.0174314 0)
(-0.00101238 -0.0152664 0)
(-5.7795e-05 -0.0162739 0)
(-0.00109313 -0.02042 0)
(-0.000703917 -0.0200042 0)
(0.000711662 -0.0182808 0)
(-0.00201109 -0.0185991 0)
(-0.000204901 -0.0199177 0)
(0.00014777 -0.021292 0)
(0.00321866 -0.0233666 0)
(0.00167691 -0.0246799 0)
(0.000948924 -0.0200505 0)
(0.000290021 -0.0201294 0)
(0.000420711 -0.0225796 0)
(0.000107333 -0.0208766 0)
(0.00404341 -0.0206926 0)
(0.00165157 -0.0195304 0)
(0.000326165 -0.0180773 0)
(0.00116849 -0.0172845 0)
(0.00276791 -0.0160241 0)
(-0.00197945 -0.0104723 0)
(-0.00325182 -0.0100219 0)
(-0.00283719 -0.0132338 0)
(-0.00245153 -0.016078 0)
(-0.00207404 -0.0156679 0)
(-0.00157488 -0.0119832 0)
(-0.00143508 -0.0170318 0)
(8.31474e-05 -0.017205 0)
(-0.000950359 -0.0127907 0)
(0.0016279 -0.0116346 0)
(0.00179965 -0.0114886 0)
(0.00265924 -0.0152727 0)
(0.00369142 -0.0173865 0)
(0.00492306 -0.0134273 0)
(0.000596915 -0.0134557 0)
(-0.000177022 -0.0149031 0)
(-0.00220432 -0.0137646 0)
(1.5101e-05 -0.0133741 0)
(0.00224284 -0.0149754 0)
(0.0019471 -0.0176153 0)
(-0.000656153 -0.0169766 0)
(0.00248896 -0.0163288 0)
(0.00257927 -0.0160339 0)
(0.000985839 -0.0183619 0)
(-0.0136972 -0.0589704 0)
(-0.000955226 0.00540675 0)
(-0.00621402 -0.0315636 0)
(-0.00333315 -0.0144106 0)
(-0.00218969 -0.0232782 0)
(-0.000983394 -0.0179727 0)
(0.00138368 -0.0200839 0)
(0.000815937 -0.0177828 0)
(-0.000490174 -0.0203427 0)
(-0.00119188 -0.0180964 0)
(0.000491358 -0.0164029 0)
(0.00215594 -0.0162438 0)
(0.00125042 -0.0194274 0)
(0.00236013 -0.0219138 0)
(-0.000212732 -0.019238 0)
(-0.00304959 -0.0201349 0)
(-0.0010986 -0.0223742 0)
(-0.00274746 -0.0237059 0)
(-0.00333338 -0.0202553 0)
(0.000588763 -0.0193599 0)
(0.00197969 -0.0222686 0)
(0.00230579 -0.0207263 0)
(0.00229581 -0.0212658 0)
(0.00127508 -0.0223873 0)
(-2.31755e-05 -0.0239961 0)
(5.38698e-05 -0.0216136 0)
(-0.00147379 -0.0170478 0)
(-0.00164712 -0.0205889 0)
(-0.00111477 -0.022551 0)
(-0.00192563 -0.0210278 0)
(-0.00115681 -0.0199055 0)
(-0.000120098 -0.0174605 0)
(0.00146383 -0.0150061 0)
(-0.000293439 -0.0153147 0)
(-0.000196077 -0.0188667 0)
(-0.00117454 -0.0186716 0)
(-0.00142077 -0.0179781 0)
(-0.00143235 -0.019176 0)
(0.00103552 -0.0200169 0)
(0.00119374 -0.0161045 0)
(0.00131593 -0.0172837 0)
(0.00142575 -0.0215514 0)
(0.00200821 -0.0204041 0)
(-0.00202768 -0.0208778 0)
(-0.000950688 -0.0217144 0)
(-0.00120079 -0.0150584 0)
(0.00199245 -0.0141392 0)
(-0.000164184 -0.0175012 0)
(-0.000523931 -0.015669 0)
(-0.00025643 -0.0153997 0)
(0.000385648 -0.0163164 0)