/*--------------------------------*- C++ -*----------------------------------*\
  =========                 |
  \\      /  F ield         | OpenFOAM: The Open Source CFD Toolbox
   \\    /   O peration     | Website:  https://openfoam.org
    \\  /    A nd           | Version:  12
     \\/     M anipulation  |
\*---------------------------------------------------------------------------*/
FoamFile
{
    format      ascii;
    class       IOPosition;
    location    "0.6/lagrangian/cloud";
    object      positions;
}
// * * * * * * * * * * * * * * * * * * * * * * * * * * * * * * * * * * * * * //

2325
(
(0.00171247 0.103284 0.499144 0.39586) 0 0 2
(0.172054 0.0200219 0.393951 0.413973) 2 2 2
(0.237845 0.381077 0.0266329 0.354444) 3 7 2
(0.211622 0.394189 0.11068 0.283509) 4 9 2
(0.00155438 0.44025 0.499223 0.058973) 80 11 1
(0.341963 0.329019 0.278759 0.0502593) 5 10 1
(0.538444 0.0736917 0.230778 0.157086) 6 7381 2
(0.478666 0.248661 0.260667 0.0120055) 7 7382 2
(0.224575 0.387713 0.318436 0.0692766) 8 17 2
(0.265675 0.367162 0.36359 0.00357219) 9 19 2
(0.365366 0.317317 0.207619 0.109698) 10 21 2
(0.437332 0.281334 0.0724587 0.208875) 11 23 2
(0.0685971 0.180204 0.285497 0.465701) 12 22 2
(0.313189 0.0239636 0.343405 0.319442) 12 24 2
(0.393375 0.303312 0.00353171 0.299781) 13 24 1
(0.171431 0.414284 0.227587 0.186697) 13 26 1
(0.449839 0.0476202 0.27508 0.22746) 14 7389 2
(0.406643 0.125664 0.296678 0.171014) 15 7390 2
(0.206561 0.39672 0.346247 0.0504729) 16 33 2
(0.294677 0.352662 0.186202 0.16646) 17 35 2
(0.241391 0.379305 0.148393 0.230911) 18 37 2
(0.225206 0.387397 0.20024 0.187157) 19 39 2
(0.266379 0.366811 0.270899 0.0959116) 20 41 2
(0.377885 0.311058 0.0310467 0.280011) 21 43 2
(0.3497 0.0716189 0.253531 0.32515) 22 42 2
(0.0453731 0.207093 0.27022 0.477313) 23 44 2
(0.450207 0.0390596 0.274897 0.235837) 23 7398 2
(0.490259 0.168404 0.254871 0.0864669) 24 7399 2
(0.448909 0.252346 0.275546 0.0231996) 25 7400 2
(0.409915 0.273739 0.295042 0.021303) 26 7401 2
(0.421259 0.289371 0.0419517 0.247419) 28 7403 1
(0.219476 0.281927 0.390262 0.108335) 29 58 2
(0.268666 0.28497 0.080697 0.365667) 30 61 1
(0.53999 0.230005 0.179752 0.0502524) 31 63 2
(0.537726 0.231137 0.227386 0.00375083) 32 65 2
(0.464527 0.153664 0.267736 0.114072) 33 7408 2
(0.355474 0.322263 0.306357 0.0159061) 34 68 1
(0.410397 0.00466196 0.294801 0.290139) 35 7410 2
(0.524611 0.237695 0.134547 0.103147) 37 72 1
(0.0492929 0.054484 0.475354 0.420869) 37 74 2
(0.302179 0.00163444 0.348911 0.347276) 38 76 2
(0.418217 0.290891 0.24335 0.0475414) 40 80 1
(0.101187 0.110578 0.449407 0.338829) 115 81 1
(0.242415 0.101147 0.378793 0.277645) 41 82 2
(0.453081 0.0782529 0.195207 0.273459) 42 85 1
(0.420555 0.0954326 0.289722 0.19429) 43 7418 2
(0.267382 0.366309 0.116968 0.249341) 44 89 2
(0.0166685 0.192808 0.491666 0.298858) 44 88 2
(0.434674 0.032228 0.250435 0.282663) 45 91 1
(0.411522 0.254404 0.0398348 0.294239) 46 93 1
(0.377417 0.311291 0.17412 0.137171) 47 95 2
(0.399338 0.300331 0.283372 0.0169585) 48 96 1
(0.017767 0.491116 0.305822 0.185295) 49 98 1
(0.232484 0.383758 0.0735049 0.310253) 51 100 1
(0.487368 0.256316 0.211246 0.04507) 52 7427 1
(0.212463 0.0149391 0.393768 0.378829) 52 104 2
(0.258104 0.143702 0.227247 0.370948) 53 107 1
(0.195293 0.402353 0.0724683 0.329885) 76 152 2
(0.223216 0.123906 0.388392 0.264486) 77 153 2
(0.242363 0.195546 0.378818 0.183272) 152 154 1
(0.246036 0.078434 0.298548 0.376982) 78 156 1
(0.281189 0.19466 0.164746 0.359406) 79 158 1
(0.379148 0.310426 0.244522 0.0659042) 80 160 2
(0.67705 0.161475 0.00661095 0.154864) 81 162 2
(0.375452 0.312274 0.227706 0.0845684) 85 169 1
(0.314887 0.342557 0.0500286 0.292528) 86 171 1
(0.389871 0.305065 0.220874 0.0841908) 87 173 1
(0.412198 0.118685 0.293901 0.175216) 88 27 1
(0.1832 0.277182 0.4084 0.131218) 89 29 1
(0.123747 0.438126 0.0869986 0.351128) 89 178 2
(0.158846 0.420577 0.276895 0.143682) 164 324 1
(0.0957316 0.0397965 0.452134 0.412338) 89 177 2
(0.243333 0.378333 0.273783 0.104551) 90 180 2
(0.264237 0.00132354 0.366558 0.367881) 90 180 1
(0.180461 0.40977 0.276135 0.133634) 91 182 2
(0.183215 0.0281855 0.408393 0.380207) 91 181 2
(0.417221 0.0506612 0.240728 0.291389) 92 184 1
(0.380058 0.167884 0.309971 0.142087) 96 43 1
(0.17876 0.41062 0.264767 0.145853) 97 193 1
(0.159333 0.420334 0.320637 0.0996968) 98 195 1
(0.253829 0.014088 0.373086 0.358998) 99 49 1
(0.0502247 0.474888 0.0841241 0.390764) 101 199 1
(0.00182263 0.0945892 0.404499 0.499089) 27 55 1
(0.227634 0.386183 0.286775 0.0994079) 101 202 2
(0.297063 0.351468 0.00266959 0.348799) 102 204 2
(0.097851 0.0820943 0.451074 0.36898) 102 203 2
(0.298272 0.350864 0.0726832 0.278181) 106 209 1
(0.362025 0.0516161 0.318988 0.267372) 107 65 1
(0.0299585 0.485021 0.335741 0.149279) 34 69 2
(0.169215 0.415393 0.301538 0.113854) 182 214 2
(0.0497166 0.0919959 0.383146 0.475142) 107 214 1
(0.295326 0.352337 0.24753 0.104807) 108 216 2
(0.26648 0.0797465 0.287013 0.36676) 108 216 1
(0.216319 0.39184 0.139464 0.252377) 109 218 2
(0.28628 0.199417 0.157443 0.35686) 109 218 1
(0.279831 0.360084 0.187851 0.172233) 110 220 2
(0.349809 0.325095 0.243503 0.0815921) 111 222 2
(0.433534 0.283233 0.02171 0.261523) 114 79 2
(0.458833 0.270584 0.102119 0.168464) 116 83 2
(0.370644 0.0779656 0.314678 0.236712) 117 85 1
(0.498408 0.250796 0.206527 0.044269) 118 235 1
(0.284114 0.357943 0.198192 0.159751) 119 237 1
(0.37173 0.314135 0.211964 0.102172) 120 239 1
(0.448153 0.275924 0.259011 0.0169121) 121 241 1
(0.157692 0.421154 0.0713076 0.349846) 123 243 1
(0.422935 0.129607 0.288532 0.158926) 123 97 1
(0.216997 0.391501 0.270591 0.120911) 195 388 1
(0.422507 0.288747 0.236867 0.0518793) 196 390 1
(0.198053 0.400974 0.207783 0.193191) 151 301 2
(0.14082 0.403146 0.0264437 0.42959) 152 303 1
(0.438611 0.166856 0.280695 0.113839) 155 160 1
(0.184121 0.407939 0.394041 0.0138985) 156 310 1
(0.316725 0.207466 0.134171 0.341637) 83 166 1
(0.276808 0.361596 0.13893 0.222666) 157 313 2
(0.0134621 0.162864 0.493269 0.330405) 157 312 2
(0.403409 0.242979 0.0553169 0.298296) 158 315 1
(0.503788 0.248106 0.120903 0.127203) 159 317 2
(0.514884 0.242558 0.161321 0.0812368) 160 319 2
(0.353918 0.323041 0.0245395 0.298501) 162 323 2
(0.153137 0.0201202 0.423432 0.403311) 238 325 1
(0.0941864 0.245727 0.20718 0.452907) 164 327 1
(0.149157 0.354979 0.0704428 0.425422) 165 329 1
(0.499222 0.250389 0.19171 0.0586791) 167 184 2
(0.307359 0.34632 0.112321 0.233999) 168 186 2
(0.22544 0.38728 0.13829 0.24899) 169 188 2
(0.20446 0.39777 0.0697017 0.328068) 170 190 2
(0.200848 0.307125 0.399576 0.0924514) 171 192 1
(0.232315 0.159175 0.383842 0.224667) 172 194 1
(0.100515 0.449742 0.113198 0.336544) 174 198 2
(0.0733183 0.310939 0.463341 0.152402) 248 345 1
(0.200226 0.399887 0.364584 0.0353027) 174 347 2
(0.0769523 0.062937 0.398587 0.461524) 175 346 2
(0.190295 0.299123 0.105729 0.404852) 175 349 1
(0.183713 0.408143 0.104821 0.303323) 176 351 2
(0.16454 0.102298 0.315432 0.41773) 176 351 1
(0.223424 0.388288 0.312957 0.0753314) 177 353 2
(0.230918 0.0255634 0.358977 0.384541) 178 352 2
(0.0297056 0.123063 0.485147 0.362084) 178 354 2
(0.231288 0.384356 0.128959 0.255398) 180 359 2
(0.191068 0.36251 0.0419567 0.404466) 181 361 1
(0.248167 0.170057 0.20586 0.375917) 182 363 1
(0.247975 0.0971491 0.278863 0.376012) 183 365 1
(0.166086 0.081979 0.334978 0.416957) 185 366 2
(0.0452215 0.121238 0.356151 0.477389) 186 368 2
(0.132348 0.0706055 0.433826 0.36322) 186 370 2
(0.200497 0.399751 0.14221 0.257541) 188 226 2
(0.244094 0.377953 0.011602 0.366351) 189 228 2
(0.251936 0.362722 0.374032 0.0113104) 190 230 1
(0.0216776 0.0212165 0.467945 0.489161) 116 232 1
(0.113691 0.443154 0.26804 0.175114) 191 381 2
(0.0296141 0.175999 0.309194 0.485193) 192 380 2
(0.159795 0.420102 0.405847 0.0142551) 192 382 1
(0.287759 0.0361341 0.356121 0.319986) 193 236 1
(0.302833 0.100001 0.348584 0.248582) 194 238 1
(0.434376 0.166966 0.115846 0.282812) 225 448 1
(0.275874 0.362063 0.29497 0.0670935) 227 451 1
(0.231934 0.0526691 0.384033 0.331364) 228 305 1
(0.130157 0.434922 0.036459 0.398463) 230 455 1
(0.338116 0.105958 0.330942 0.224984) 230 457 2
(0.472333 0.0193517 0.263834 0.244482) 231 459 2
(0.0877733 0.456113 0.298574 0.157539) 233 463 1
(0.318931 0.340534 0.247035 0.0934996) 235 319 2
(0.395595 0.250885 0.302202 0.0513175) 236 321 1
(0.441485 0.279257 0.230301 0.0489563) 238 471 1
(0.0318131 0.0806174 0.403476 0.484093) 239 473 2
(0.158118 0.0315302 0.389411 0.420941) 240 475 2
(0.314421 0.34279 0.137115 0.205674) 241 331 2
(0.29623 0.351885 0.0975209 0.254364) 242 333 2
(0.283541 0.35823 0.131411 0.226819) 243 335 2
(0.274034 0.362983 0.187664 0.175319) 244 337 2
(0.252363 0.373818 0.274761 0.0990569) 245 339 2
(0.199088 0.400456 0.186632 0.213824) 246 341 2
(0.0680534 0.420257 0.0457167 0.465973) 246 490 1
(0.287354 0.356323 0.10862 0.247703) 247 492 2
(0.194077 0.0340136 0.368948 0.402961) 247 492 1
(0.208207 0.351055 0.0448416 0.395896) 248 494 1
(0.208469 0.370681 0.0250848 0.395766) 249 496 1
(0.17107 0.414465 0.300242 0.114223) 250 498 2
(0.172306 0.413847 0.182638 0.231209) 251 500 2
(0.219767 0.390116 0.0684242 0.321692) 252 502 2
(0.16426 0.055734 0.362136 0.41787) 253 501 2
(0.0359391 0.118832 0.48203 0.363198) 253 503 2
(0.123959 0.438021 0.0919986 0.346022) 255 508 2
(0.22241 0.388795 0.0853206 0.303475) 256 510 2
(0.648296 0.175852 0.132907 0.0429451) 257 363 2
(0.53832 0.23084 0.0787789 0.152061) 258 365 2
(0.390871 0.304565 0.022047 0.282518) 259 367 2
(0.317544 0.333031 0.00819728 0.341228) 260 518 1
(0.282447 0.358776 0.314295 0.0444809) 261 520 2
(0.270653 0.364674 0.243366 0.121308) 262 522 2
(0.245427 0.377287 0.199693 0.177593) 263 524 2
(0.208058 0.395971 0.22232 0.173651) 264 526 2
(0.204691 0.397654 0.320383 0.0772709) 265 528 2
(0.14308 0.374032 0.0544278 0.42846) 266 530 1
(0.366601 0.316699 0.160949 0.155751) 267 383 2
(0.0982369 0.450882 0.386482 0.0643999) 267 531 1
(0.319625 0.340188 0.0196013 0.320586) 268 385 2
(0.285848 0.357076 0.189982 0.167094) 269 387 2
(0.246901 0.37655 0.329563 0.0469867) 301 450 2
(0.111601 0.4442 0.423637 0.0205621) 302 600 1
(0.491446 0.0359034 0.218374 0.254277) 304 602 2
(0.171183 0.414408 0.0435541 0.370854) 305 604 1
(0.0147182 0.492641 0.253134 0.239507) 306 606 1
(0.208736 0.395632 0.0408238 0.354808) 307 608 1
(0.171061 0.41447 0.379562 0.0349079) 308 464 2
(0.145872 0.288763 0.427064 0.138301) 309 466 1
(0.0234466 0.488277 0.410866 0.0774102) 310 616 1
(0.283989 0.358006 0.180198 0.177808) 312 472 2
(0.0635129 0.468244 0.285524 0.18272) 314 622 1
(0.211279 0.0561425 0.338218 0.39436) 314 625 1
(0.231124 0.133295 0.251143 0.384438) 315 627 1
(0.232822 0.24992 0.133669 0.383589) 316 629 1
(0.226971 0.373793 0.0127218 0.386514) 317 631 1
(0.254159 0.37292 0.248238 0.124683) 318 633 2
(0.254898 0.372551 0.01879 0.353761) 319 635 2
(0.171713 0.0294682 0.414143 0.384675) 319 634 2
(0.214218 0.208397 0.184493 0.392891) 320 637 1
(0.233889 0.383056 0.310957 0.0720988) 321 639 2
(0.294726 0.352637 0.0806493 0.271988) 322 641 2
(0.507081 0.012054 0.24646 0.234406) 323 494 1
(0.3706 0.00235957 0.3147 0.31234) 324 644 2
(0.098847 0.0638255 0.386751 0.450577) 326 646 2
(0.208964 0.395518 0.212549 0.182969) 327 651 2
(0.239067 0.380467 0.300265 0.0802012) 328 653 2
(0.475038 0.262481 0.129696 0.132784) 329 655 2
(0.212901 0.39355 0.0761012 0.317448) 330 657 2
(0.211249 0.00767821 0.386697 0.394375) 331 656 2
(0.139292 0.430354 0.138337 0.292017) 332 661 2
(0.00136267 0.499319 0.353993 0.145325) 332 660 1
(0.188205 0.405898 0.334729 0.0711689) 333 662 1
(0.31061 0.096456 0.344695 0.248239) 334 516 1
(0.4068 0.287964 0.00863625 0.2966) 335 667 1
(0.537643 0.231179 0.0992467 0.131932) 336 669 2
(0.303795 0.348102 0.101199 0.246904) 337 671 2
(0.269235 0.365382 0.0621912 0.303191) 338 673 2
(0.137994 0.431003 0.425188 0.00581463) 415 677 2
(0.211706 0.394147 0.368016 0.0261309) 416 679 2
(0.00634969 0.0967769 0.400048 0.496825) 342 678 2
(0.326656 0.0428616 0.336672 0.29381) 342 532 1
(0.357093 0.20791 0.321453 0.113544) 343 534 1
(0.379166 0.310417 0.104823 0.205594) 344 536 2
(0.273256 0.363372 0.241446 0.121926) 345 538 2
(0.21153 0.284954 0.394235 0.109281) 375 597 1
(0.191416 0.0747146 0.404292 0.329577) 376 599 1
(0.102464 0.448768 0.0529971 0.395771) 378 749 1
(0.274797 0.331773 0.362601 0.030829) 379 605 1
(0.201912 0.24702 0.399044 0.152024) 380 607 1
(0.161538 0.0650657 0.419231 0.354165) 381 609 1
(0.0678388 0.466081 0.0445539 0.421527) 383 759 1
(0.155846 0.422077 0.398668 0.0234088) 384 615 2
(0.184995 0.407502 0.278621 0.128881) 385 617 2
(0.182067 0.408966 0.19131 0.217656) 386 619 2
(0.188875 0.405562 0.0833548 0.322207) 387 621 2
(0.315622 0.342189 0.325868 0.016321) 388 771 1
(0.0969177 0.451541 0.257602 0.193939) 389 774 2
(0.177763 0.411118 0.0138198 0.397299) 390 776 2
(0.168464 0.0180476 0.39772 0.415768) 390 776 1
(0.183121 0.204607 0.203833 0.408439) 391 778 1
(0.204213 0.343955 0.0539387 0.397893) 392 780 1
(0.207118 0.396441 0.294004 0.102437) 393 782 2
(0.202054 0.398973 0.133777 0.265195) 394 784 2
(0.194385 0.402808 0.0248772 0.37793) 395 786 2
(0.0946956 0.0392806 0.413372 0.452652) 396 785 2
(0.273638 0.363181 0.234222 0.128959) 397 787 1
(0.296345 0.351827 0.317768 0.0340589) 398 643 2
(0.178982 0.410509 0.107013 0.303495) 399 791 1
(0.143214 0.428393 0.158112 0.270281) 399 793 1
(0.105571 0.200687 0.246528 0.447215) 401 795 2
(0.338204 0.330898 0.308838 0.0220604) 402 800 2
(0.239013 0.380493 0.353061 0.0274328) 403 802 2
(0.235982 0.382009 0.316868 0.065141) 404 804 2
(0.21143 0.394285 0.284821 0.109464) 405 806 2
(0.198027 0.400986 0.256289 0.144698) 406 808 2
(0.145648 0.427176 0.290103 0.137072) 407 810 2
(0.313285 0.343358 0.200091 0.143266) 408 812 2
(0.307658 0.346171 0.227386 0.118785) 409 665 2
(0.397468 0.301266 0.0228994 0.278367) 410 813 1
(0.394083 0.302959 0.0201865 0.282772) 411 815 1
(0.0921107 0.088995 0.36495 0.453945) 412 817 2
(0.0134142 0.133088 0.360204 0.493293) 413 819 2
(0.216117 0.391941 0.0878549 0.304087) 414 824 2
(0.237916 0.381042 0.188638 0.192404) 490 826 2
(0.158289 0.420855 0.222884 0.197972) 416 828 2
(0.371026 0.10257 0.314487 0.211917) 491 828 1
(0.222788 0.153653 0.388606 0.234953) 492 830 1
(0.138768 0.04541 0.430616 0.385206) 418 831 2
(0.325344 0.337328 0.25853 0.0787981) 420 687 2
(0.181584 0.409208 0.31428 0.0949277) 450 746 2
(0.132926 0.433537 0.052766 0.380771) 451 748 2
(0.0476388 0.476181 0.0778254 0.398355) 453 752 2
(0.218425 0.390787 0.0867077 0.30408) 454 754 2
(0.193671 0.403165 0.00305231 0.400112) 455 756 2
(0.213347 0.377504 0.393327 0.0158224) 456 758 1
(0.210992 0.394504 0.0270401 0.367464) 457 760 2
(0.220606 0.389697 0.0942696 0.295427) 458 762 2
(0.229321 0.385339 0.205854 0.179485) 459 764 2
(0.224371 0.387814 0.373335 0.0144789) 460 766 2
(0.0799847 0.460008 0.410982 0.0490257) 460 914 1
(0.219473 0.108715 0.390264 0.281548) 461 768 1
(0.382909 0.222784 0.308546 0.085762) 462 770 1
(0.0928348 0.255798 0.453583 0.197785) 537 919 1
(0.237152 0.381424 0.223656 0.157768) 463 921 2
(0.0427916 0.0887544 0.38985 0.478604) 464 920 2
(0.191291 0.0335557 0.370799 0.404354) 464 923 1
(0.170081 0.0562484 0.358711 0.41496) 465 925 1
(0.0336496 0.0660163 0.483175 0.417159) 466 926 2
(0.177783 0.411109 0.0688694 0.342239) 468 931 2
(0.187313 0.406344 0.176493 0.229851) 469 933 2
(0.200174 0.399913 0.233888 0.166025) 470 935 2
(0.327919 0.336041 0.147217 0.188824) 471 937 2
(0.277769 0.361116 0.205242 0.155874) 472 790 2
(0.232183 0.383908 0.199287 0.184621) 473 792 2
(0.243415 0.378293 0.0948462 0.283447) 474 794 2
(0.323896 0.184597 0.338052 0.153455) 475 796 1
(0.269002 0.365499 0.320326 0.0451729) 476 946 1
(0.212198 0.296125 0.0977757 0.393901) 477 949 1
(0.28141 0.332982 0.0263133 0.359295) 478 951 1
(0.242331 0.378834 0.314396 0.0644385) 479 953 2
(0.20142 0.39929 0.374135 0.025155) 480 955 2
(0.171624 0.252016 0.162172 0.414188) 481 957 1
(0.129623 0.0466017 0.388587 0.435188) 482 959 1
(0.191757 0.404121 0.115042 0.289079) 484 960 1
(0.113647 0.443177 0.0917174 0.351459) 485 962 1
(0.136221 0.43189 0.0741513 0.357738) 486 964 1
(0.209342 0.242048 0.153281 0.395329) 486 967 1
(0.27286 0.36357 0.309112 0.054458) 487 969 2
(0.276207 0.361897 0.0779567 0.28394) 488 971 2
(0.23336 0.00798317 0.375337 0.38332) 489 970 2
(0.0492589 0.415691 0.0596798 0.475371) 490 975 1
(0.27114 0.36443 0.0173026 0.347128) 566 977 2
(0.173314 0.112512 0.413343 0.300831) 567 979 1
(0.365914 0.249134 0.0679087 0.317043) 493 981 1
(0.000410196 0.499795 0.123263 0.376532) 495 982 1
(0.192427 0.403786 0.121634 0.282152) 525 895 2
(0.100594 0.449703 0.0935085 0.356194) 526 897 2
(0.107681 0.0935513 0.44616 0.352608) 452 898 2
(0.351521 0.00779836 0.324239 0.316441) 527 1047 2
(0.405307 0.0843718 0.212975 0.297346) 528 1050 1
(0.418049 0.199166 0.091809 0.290975) 529 1052 1
(0.225085 0.387458 0.3845 0.0029575) 531 907 2
(0.24659 0.376705 0.366813 0.0098922) 532 909 2
(0.0849501 0.457525 0.0904206 0.367104) 533 1057 1
(0.0841821 0.457909 0.401274 0.0566351) 533 1059 1
(0.291478 0.255158 0.354261 0.0991033) 534 913 1
(0.280251 0.359875 0.265237 0.0946373) 535 915 2
(0.146296 0.0817102 0.426852 0.345142) 535 915 1
(0.2259 0.334211 0.38705 0.0528388) 536 917 1
(0.113595 0.443202 0.419719 0.0234831) 536 1066 2
(0.289888 0.355056 0.147971 0.207085) 537 1068 2
(0.0279589 0.0889153 0.397105 0.486021) 538 1067 2
(0.213065 0.00827943 0.393468 0.385188) 538 1069 2
(0.186903 0.406548 0.0772407 0.329308) 540 1074 2
(0.172901 0.398978 0.0145714 0.413549) 541 1076 1
(0.183128 0.0546611 0.353775 0.408436) 542 1078 1
(0.17877 0.410615 0.0733875 0.337227) 544 1082 2
(0.214141 0.39293 0.196804 0.196126) 545 1084 2
(0.256117 0.371941 0.322787 0.0491548) 546 1085 1
(0.242616 0.049814 0.378692 0.328878) 547 939 1
(0.23183 0.102604 0.384085 0.281481) 548 941 1
(0.226357 0.144835 0.386821 0.241986) 549 943 1
(0.143713 0.128799 0.428144 0.299344) 550 945 1
(0.488391 0.219061 0.0367433 0.255805) 551 1096 1
(0.456577 0.271711 0.256183 0.0155279) 552 1098 2
(0.431482 0.284259 0.198953 0.0853058) 553 1100 2
(0.439412 0.211962 0.0683316 0.280294) 554 1102 1
(0.170539 0.41473 0.170498 0.244233) 556 1106 2
(0.165736 0.38197 0.0351617 0.417132) 557 1108 1
(0.204892 0.230943 0.166611 0.397554) 558 1110 1
(0.177459 0.163044 0.248227 0.411271) 559 1112 1
(0.199633 0.0826079 0.317576 0.400184) 560 1114 1
(0.209943 0.0687197 0.326309 0.395029) 561 1116 1
(0.227056 0.150323 0.236149 0.386472) 562 1118 1
(0.239922 0.274969 0.10507 0.380039) 563 1120 1
(0.257463 0.371268 0.325793 0.0454759) 564 1122 2
(0.216831 0.391585 0.296618 0.0949667) 565 1124 2
(0.141097 0.429452 0.414726 0.0147261) 567 1128 2
(0.135081 0.432459 0.406408 0.0260518) 568 1130 2
(0.136341 0.431829 0.0865793 0.34525) 569 1129 1
(0.0717268 0.464137 0.0762784 0.387858) 570 1131 1
(0.0709936 0.464503 0.023182 0.441321) 601 1192 1
(0.196561 0.401719 0.240526 0.161194) 601 1195 2
(0.0416201 0.125284 0.353906 0.47919) 602 1194 2
(0.268318 0.238538 0.127303 0.365841) 602 1197 1
(0.297454 0.351273 0.00949584 0.341777) 603 1199 2
(0.300733 0.0698509 0.279782 0.349633) 603 1199 1
(0.361186 0.319407 0.255776 0.0636311) 604 1201 2
(0.318212 0.340894 0.0659811 0.274913) 605 1203 2
(0.263602 0.223507 0.368199 0.144692) 606 1056 1
(0.291511 0.195253 0.354244 0.158991) 607 1058 1
(0.325325 0.238113 0.337338 0.0992245) 608 1060 1
(0.423434 0.288283 0.0955549 0.192728) 609 1062 2
(0.170021 0.414989 0.356895 0.0580942) 610 1064 2
(0.427021 0.135753 0.286489 0.150736) 610 1064 1
(0.613498 0.193251 0.0437699 0.149481) 611 1066 2
(0.100811 0.0458208 0.449595 0.403774) 611 1214 2
(0.186701 0.106536 0.40665 0.300113) 612 1216 2
(0.624163 0.187919 0.152427 0.0354914) 614 1221 2
(0.273421 0.0103164 0.352973 0.363289) 615 1223 1
(0.175061 0.412469 0.297365 0.115105) 617 1227 2
(0.152232 0.0778253 0.346058 0.423884) 618 1229 1
(0.156578 0.421711 0.0983357 0.323376) 620 1233 2
(0.29328 0.35336 0.256361 0.0969985) 621 1086 2
(0.255588 0.372206 0.233941 0.138265) 622 1088 2
(0.2777 0.36115 0.25385 0.1073) 623 1090 2
(0.261698 0.369151 0.311786 0.0573652) 624 1092 2
(0.186956 0.406522 0.0393708 0.367151) 625 1240 1
(0.0922593 0.45387 0.343296 0.110574) 625 1242 1
(0.0954454 0.452277 0.30707 0.145208) 626 1244 1
(0.00404222 0.497979 0.189164 0.308815) 628 1246 1
(0.298629 0.350685 0.0422689 0.308417) 629 1248 1
(0.132917 0.433542 0.201546 0.231996) 630 1250 1
(0.0640712 0.0742478 0.393717 0.467964) 631 1252 2
(0.180149 0.409925 0.252493 0.157432) 632 1257 2
(0.177187 0.301665 0.109742 0.411407) 633 1259 1
(0.179689 0.0943465 0.315809 0.410156) 634 1261 1
(0.127021 0.436489 0.139045 0.297445) 636 1265 2
(0.162256 0.314609 0.104263 0.418872) 637 1267 1
(0.1762 0.0379055 0.373994 0.4119) 638 1269 1
(0.162269 0.0179474 0.418865 0.400918) 639 1270 2
(0.165085 0.417458 0.0323052 0.385152) 641 1275 2
(0.199513 0.400244 0.329663 0.0705812) 642 1277 2
(0.405012 0.0665935 0.230901 0.297494) 643 1279 1
(0.239468 0.380266 0.0126492 0.367617) 644 1132 2
(0.256184 0.371908 0.131547 0.240361) 645 1134 2
(0.244338 0.377831 0.351584 0.0262467) 675 1342 2
(0.244076 0.377962 0.0395305 0.338432) 676 1344 2
(0.209071 0.107812 0.287652 0.395465) 676 1344 1
(0.272605 0.363697 0.203416 0.160281) 677 1346 2
(0.178693 0.022103 0.410654 0.388551) 677 1345 2
(0.285707 0.357147 0.273156 0.0839907) 678 1348 2
(0.0744055 0.0833758 0.462797 0.379421) 678 1347 2
(0.263244 0.346555 0.0218225 0.368378) 679 1350 1
(0.348213 0.325893 0.0128249 0.313068) 680 1352 2
(0.159904 0.104467 0.420048 0.315581) 680 1351 2
(0.357915 0.0629879 0.258055 0.321043) 681 1354 1
(0.31788 0.15807 0.18299 0.34106) 682 1356 1
(0.0192251 0.490387 0.307781 0.182606) 683 1357 1
(0.0554391 0.47228 0.143155 0.329126) 685 1359 1
(0.066868 0.466566 0.308544 0.158022) 685 1361 1
(0.120171 0.439914 0.246834 0.19308) 687 1363 1
(0.331937 0.334032 0.00928344 0.324748) 688 1365 1
(0.317754 0.341123 0.146758 0.194365) 689 1221 2
(0.570415 0.214792 0.0289388 0.185854) 690 1371 1
(0.300318 0.126648 0.223194 0.349841) 692 1376 1
(0.19415 0.0346939 0.368231 0.402925) 694 1377 2
(0.212184 0.352396 0.041512 0.393908) 695 1382 1
(0.199124 0.0252202 0.375218 0.400438) 696 1384 1
(0.184319 0.40784 0.0178989 0.389942) 698 1388 2
(0.270518 0.0406238 0.364741 0.324117) 698 1239 1
(0.329813 0.148493 0.335093 0.1866) 699 1241 1
(0.299595 0.340853 0.350202 0.00934963) 700 1243 1
(0.292419 0.353791 0.220776 0.133014) 701 1245 2
(0.147842 0.426079 0.0456792 0.3804) 702 1393 1
(0.238121 0.00150762 0.380939 0.379432) 702 1247 1
(0.211707 0.146582 0.394147 0.247564) 703 1249 1
(0.213648 0.100809 0.393176 0.292367) 704 1251 1
(0.441111 0.279445 0.243447 0.0359979) 706 1404 2
(0.265479 0.154584 0.212677 0.367261) 707 1406 1
(0.0647452 0.0756613 0.391966 0.467627) 709 1407 2
(0.246114 0.376943 0.0812704 0.295673) 710 1412 2
(0.411986 0.023985 0.294007 0.270022) 711 1413 2
(0.294944 0.352528 0.156801 0.195727) 713 1418 2
(0.279238 0.0376712 0.360381 0.32271) 714 1419 2
(0.200016 0.399992 0.143398 0.256594) 716 1424 2
(0.247908 0.0946473 0.281398 0.376046) 717 1426 1
(0.536051 0.0546454 0.177329 0.231974) 718 1428 1
(0.392801 0.269854 0.3036 0.0337454) 719 1281 1
(0.259124 0.370438 0.110996 0.259442) 720 1283 2
(0.232711 0.383644 0.19426 0.189384) 721 1285 2
(0.0621737 0.468913 0.162759 0.306154) 750 15085 2
(0.145696 0.214802 0.21235 0.427152) 750 1491 1
(0.20117 0.342732 0.0566834 0.399415) 751 1493 1
(0.22589 0.387055 0.241284 0.145771) 752 1495 2
(0.169791 0.415104 0.0350248 0.38008) 753 1497 2
(0.22298 0.21459 0.17392 0.38851) 753 1497 1
(0.240143 0.379928 0.167915 0.212013) 754 1499 2
(0.291195 0.0837543 0.270648 0.354402) 754 1499 1
(0.265022 0.367489 0.171272 0.196216) 755 1501 2
(0.275626 0.0795312 0.282656 0.362187) 755 1501 1
(0.31791 0.341045 0.185974 0.155071) 756 1503 2
(0.0816121 0.128953 0.33024 0.459194) 757 1502 2
(0.231471 0.0291147 0.384264 0.35515) 757 1504 2
(0.529057 0.192363 0.235471 0.0431087) 758 1358 1
(0.285369 0.357315 0.0494308 0.307885) 759 1360 2
(0.264684 0.367658 0.0012494 0.366409) 761 1510 1
(0.248824 0.0528599 0.375588 0.322728) 762 1366 1
(0.296341 0.202903 0.351829 0.148927) 763 1368 1
(0.281774 0.355968 0.359113 0.00314465) 764 1370 1
(0.670945 0.164527 0.142498 0.0220293) 766 1523 2
(0.550233 0.224883 0.1529 0.0719829) 767 1525 2
(0.600265 0.180116 0.0197518 0.199867) 768 1527 1
(0.468744 0.0587617 0.265628 0.206866) 769 1528 2
(0.359678 0.0516911 0.26847 0.320161) 770 1531 1
(0.219044 0.390478 0.22478 0.165698) 772 1535 2
(0.202204 0.398898 0.0352132 0.363685) 774 1539 2
(0.202947 0.398526 0.242337 0.15619) 775 1541 2
(0.18675 0.163246 0.243379 0.406625) 776 1543 1
(0.152545 0.423727 0.315749 0.107978) 777 1396 2
(0.10513 0.447435 0.392815 0.05462) 777 1544 1
(0.206288 0.219477 0.396856 0.177379) 778 1398 1
(0.210879 0.39456 0.0945846 0.299976) 779 1400 2
(0.241828 0.379086 0.31127 0.0678156) 780 1402 2
(0.184752 0.407624 0.323023 0.0846014) 780 1550 1
(0.346863 0.326569 0.299351 0.0272175) 781 1552 1
(0.641066 0.0988951 0.0805721 0.179467) 783 1554 2
(0.523701 0.0370143 0.23815 0.201135) 784 1558 2
(0.547157 0.097761 0.226421 0.12866) 785 1560 2
(0.321181 0.339409 0.226284 0.113125) 786 1562 1
(0.693797 0.153101 0.0419865 0.111115) 788 1418 2
(0.417179 0.29141 0.281616 0.00979416) 789 1568 1
(0.672986 0.162454 0.163507 0.00105335) 791 1572 2
(0.556051 0.0045809 0.221975 0.217394) 793 1576 2
(0.260987 0.210392 0.159115 0.369507) 794 1579 1
(0.807313 0.0276726 0.0963434 0.0686708) 795 1432 1
(0.209215 0.395392 0.171296 0.224096) 796 1583 2
(0.23581 0.382095 0.139939 0.242156) 797 1585 2
(0.153432 0.423284 0.0528893 0.370395) 825 1640 2
(0.157662 0.421169 0.13542 0.285749) 826 1642 2
(0.166924 0.416538 0.255545 0.160993) 827 1644 2
(0.171129 0.414436 0.385698 0.0287382) 828 1646 2
(0.180492 0.375991 0.0337626 0.409754) 829 1648 1
(0.17387 0.384873 0.0281917 0.413065) 830 1650 1
(0.122213 0.31989 0.119004 0.438894) 831 1652 1
(0.29585 0.352075 0.121836 0.23024) 832 1654 2
(0.0754081 0.0726691 0.462296 0.389627) 832 1653 2
(0.349539 0.325231 0.314687 0.0105436) 833 1656 2
(0.380902 0.309549 0.0731862 0.236363) 834 1658 2
(0.188663 0.405668 0.0186402 0.387028) 835 1660 2
(0.00719304 0.106812 0.389592 0.496403) 836 1659 2
(0.237823 0.0855023 0.381088 0.295586) 835 1511 1
(0.262765 0.25248 0.368618 0.116138) 836 1513 1
(0.0433277 0.203107 0.275229 0.478336) 762 1515 1
(0.272529 0.167893 0.363736 0.195842) 838 1517 1
(0.205918 0.176877 0.397041 0.220164) 839 1519 1
(0.242863 0.125475 0.378568 0.253093) 840 1521 1
(0.434757 0.282621 0.236745 0.0458761) 841 1671 1
(0.376226 0.105833 0.311887 0.206054) 842 1525 1
(0.276346 0.201596 0.361827 0.160231) 843 1527 1
(0.314024 0.147851 0.342988 0.195136) 844 1529 1
(0.347801 0.326099 0.0564056 0.269694) 846 1679 1
(0.242242 0.325046 0.0538333 0.378879) 847 1684 1
(0.162153 0.0325897 0.418923 0.386334) 848 1685 2
(0.215695 0.00661012 0.385542 0.392153) 850 1687 2
(0.215429 0.392285 0.12852 0.263765) 851 1692 2
(0.337011 0.331494 0.0443506 0.287144) 852 1694 2
(0.0946057 0.452697 0.0661629 0.386534) 853 1693 1
(0.00974964 0.495125 0.379216 0.115909) 853 1695 1
(0.201513 0.399244 0.374811 0.0244323) 854 1697 1
(0.26832 0.0653086 0.36584 0.300531) 855 1551 1
(0.278985 0.170349 0.360508 0.190159) 856 1553 1
(0.32758 0.26644 0.33621 0.0697696) 857 1555 1
(0.331747 0.331381 0.334126 0.00274568) 858 1557 1
(0.351522 0.324239 0.0127747 0.311465) 859 1559 2
(0.331458 0.0898106 0.334271 0.24446) 860 1561 1
(0.234079 0.235794 0.382961 0.147166) 862 1565 1
(0.188046 0.120809 0.405977 0.285168) 863 1567 1
(0.262754 0.0685269 0.368623 0.300096) 864 1569 1
(0.162463 0.1798 0.418768 0.238969) 867 1575 1
(0.428377 0.155566 0.285811 0.130246) 868 1577 1
(0.0763037 0.0101356 0.451713 0.461848) 869 1725 2
(0.232606 0.183031 0.200666 0.383697) 869 1728 1
(0.253214 0.373393 0.336195 0.0371978) 870 1730 2
(0.224921 0.38754 0.265826 0.121714) 871 1732 2
(0.253551 0.0103731 0.373224 0.362851) 975 1789 1
(0.202223 0.0324222 0.398889 0.366466) 976 1791 1
(0.0633843 0.468308 0.411044 0.0572637) 977 1941 1
(0.0853616 0.439388 0.457319 0.0179309) 979 1797 1
(0.259989 0.314397 0.370006 0.0556086) 981 1801 1
(0.341583 0.182525 0.146684 0.329208) 907 1803 1
(0.729728 0.0524123 0.135136 0.0827238) 908 1804 2
(0.0649735 0.467513 0.406482 0.0610309) 984 1955 1
(0.193228 0.403386 0.151318 0.252068) 986 1811 2
(0.254193 0.372904 0.109642 0.263262) 912 1813 2
(0.270752 0.146275 0.364624 0.218349) 912 1664 1
(0.305737 0.325953 0.347132 0.0211791) 913 1666 1
(0.285174 0.357413 0.13922 0.218193) 914 1668 2
(0.271503 0.364248 0.243318 0.120931) 915 1670 2
(0.307177 0.346411 0.000734263 0.345677) 916 1818 1
(0.170128 0.414936 0.0322518 0.382684) 917 1820 1
(0.0992362 0.189286 0.261096 0.450382) 918 1822 2
(0.0675934 0.391924 0.466203 0.0742792) 918 1676 1
(0.181095 0.409453 0.0488464 0.360606) 919 1824 1
(0.270451 0.112237 0.364774 0.252537) 919 1678 1
(0.282426 0.346453 0.358787 0.0123342) 920 1680 1
(0.246013 0.376993 0.031047 0.345946) 921 1682 2
(0.326209 0.175514 0.161381 0.336896) 922 1833 1
(0.274973 0.00119567 0.361318 0.362513) 923 1835 1
(0.124329 0.0770167 0.437836 0.360819) 924 1836 2
(0.127675 0.0763461 0.436163 0.359816) 925 1838 2
(0.222844 0.0959454 0.388578 0.292633) 926 1840 2
(0.0363334 0.481833 0.343238 0.138595) 927 1842 1
(0.113325 0.443338 0.368362 0.074976) 928 1844 1
(0.239599 0.380201 0.360824 0.0193771) 929 1846 1
(0.296238 0.0325752 0.351881 0.319306) 930 1700 1
(0.292779 0.124337 0.35361 0.229274) 931 1702 1
(0.279779 0.181042 0.360111 0.179068) 932 1704 1
(0.272954 0.221239 0.363523 0.142284) 933 1706 1
(0.19672 0.235267 0.40164 0.166373) 934 1708 1
(0.191416 0.109307 0.404292 0.294986) 935 1710 1
(0.124333 0.437833 0.128409 0.309424) 863 1716 2
(0.237366 0.381317 0.0104021 0.370915) 939 1864 1
(0.232702 0.383649 0.261523 0.122126) 941 1722 2
(0.170612 0.0442057 0.370488 0.414694) 867 1721 2
(0.253014 0.373493 0.328809 0.0446836) 943 1726 2