/*--------------------------------*- C++ -*----------------------------------*\
  =========                 |
  \\      /  F ield         | OpenFOAM: The Open Source CFD Toolbox
   \\    /   O peration     | Website:  https://openfoam.org
    \\  /    A nd           | Version:  12
     \\/     M anipulation  |
\*---------------------------------------------------------------------------*/
FoamFile
{
    format      ascii;
    class       vectorField;
    location    "0.6/lagrangian/cloud";
    object      U;
}
// * * * * * * * * * * * * * * * * * * * * * * * * * * * * * * * * * * * * * //


2325
(
(-0.000117463 -0.0270711 0)
(-0.000300213 -0.0266515 0)
(-7.68118e-05 -0.0263328 0)
(0.000275692 -0.0265558 0)
(8.60902e-05 -0.025444 0)
(6.33281e-05 -0.0293472 0)
(-0.000474258 -0.0289841 0)
(-0.00012572 -0.0289005 0)
(-4.63957e-05 -0.0279361 0)
(0.000281256 -0.0271919 0)
(0.000158446 -0.0275935 0)
(9.20515e-05 -0.026541 0)
(-0.00094205 -0.0250946 0)
(0.000272741 -0.0245215 0)
(-0.000406041 -0.0284123 0)
(0.00100772 -0.0276908 0)
(-0.000127517 -0.0286671 0)
(0.000529355 -0.0301748 0)
(-0.000274888 -0.0295155 0)
(0.000159637 -0.0294812 0)
(0.000376783 -0.0296672 0)
(0.000176173 -0.0301257 0)
(5.209e-06 -0.0303833 0)
(0.000254145 -0.030432 0)
(-0.000759105 -0.0303028 0)
(-0.0010578 -0.0290559 0)
(-0.000678299 -0.0276753 0)
(-0.000661625 -0.0302676 0)
(-0.000336002 -0.0312593 0)
(2.22676e-05 -0.0311287 0)
(0.000125279 -0.0304378 0)
(0.0012324 -0.0296049 0)
(-0.000250661 -0.0293417 0)
(3.70953e-05 -0.0294721 0)
(-0.000903888 -0.0297675 0)
(-0.00050136 -0.0313661 0)
(0.000111452 -0.0300344 0)
(-1.30016e-05 -0.032182 0)
(0.00098742 -0.0324793 0)
(0.000186604 -0.031365 0)
(-0.000344134 -0.03017 0)
(-0.000210667 -0.0330282 0)
(-9.0226e-05 -0.0325396 0)
(-0.000671104 -0.0312118 0)
(0.000150575 -0.029306 0)
(0.000869851 -0.0327242 0)
(-0.00264852 -0.0311115 0)
(-0.00149627 -0.0299546 0)
(0.000717158 -0.028536 0)
(0.000357469 -0.0317154 0)
(0.000313305 -0.0340584 0)
(0.000646161 -0.0349213 0)
(0.000215521 -0.0369708 0)
(-1.63054e-05 -0.0362914 0)
(-0.00120045 -0.0354717 0)
(0.000225658 -0.0342028 0)
(2.92959e-05 -0.0363416 0)
(-0.000195396 -0.0363214 0)
(-0.000104336 -0.0342311 0)
(9.26707e-05 -0.0345731 0)
(0.000479952 -0.0325045 0)
(0.000348357 -0.033931 0)
(-0.000420166 -0.033039 0)
(0.00155421 -0.0314359 0)
(0.00118063 -0.027985 0)
(0.000947925 -0.0279698 0)
(0.00137396 -0.0262889 0)
(0.000476529 -0.0255009 0)
(-0.000772787 -0.022562 0)
(-0.00102298 -0.0272357 0)
(0.000216559 -0.0295885 0)
(-0.00100501 -0.0264944 0)
(-0.000818927 -0.0275559 0)
(-0.000273695 -0.0278824 0)
(-0.000885645 -0.030164 0)
(-0.000206505 -0.0327068 0)
(0.000331266 -0.0322666 0)
(-0.000122821 -0.030704 0)
(0.000468987 -0.0305765 0)
(0.00113312 -0.0291004 0)
(-0.000369818 -0.0285768 0)
(0.000358112 -0.0265586 0)
(-0.000562716 -0.0286806 0)
(0.0004845 -0.031583 0)
(0.000563233 -0.0335628 0)
(0.00165621 -0.0318217 0)
(-3.81383e-05 -0.0312245 0)
(-0.00120203 -0.0296082 0)
(-0.000223255 -0.0294001 0)
(0.00137351 -0.0354389 0)
(0.000365046 -0.0328506 0)
(0.000216969 -0.031566 0)
(0.00045934 -0.0319064 0)
(0.0010729 -0.0325596 0)
(0.00103304 -0.0334659 0)
(-0.000622409 -0.0354899 0)
(0.000618889 -0.0393982 0)
(-0.0025046 -0.0340825 0)
(-0.000808729 -0.031112 0)
(-0.000572669 -0.0301209 0)
(-0.000832453 -0.0330326 0)
(0.00155307 -0.0335141 0)
(0.00133373 -0.0340837 0)
(0.00190801 -0.0348052 0)
(0.00164731 -0.0343559 0)
(-0.000181084 -0.0334535 0)
(0.00125269 -0.0432567 0)
(0.00162067 -0.03997 0)
(-0.000239886 -0.0447572 0)
(-0.000131594 -0.0401114 0)
(0.000189695 -0.0355324 0)
(0.0010486 -0.0357238 0)
(-0.000232431 -0.0334607 0)
(-0.000206156 -0.0394936 0)
(-0.000185611 -0.0372993 0)
(0.000594731 -0.0374396 0)
(0.000179881 -0.0396521 0)
(-0.000193724 -0.041196 0)
(-0.000338094 -0.0389443 0)
(0.00030813 -0.0348285 0)
(0.00177561 -0.0332468 0)
(0.000135822 -0.0369772 0)
(-0.00150509 -0.0337213 0)
(0.000972355 -0.0350364 0)
(0.000419005 -0.0360632 0)
(0.000417179 -0.0362724 0)
(-0.00036084 -0.0355392 0)
(0.000320832 -0.0354263 0)
(4.593e-05 -0.0315428 0)
(-0.000930213 -0.0379067 0)
(0.000373964 -0.0380974 0)
(0.000211772 -0.0380354 0)
(-0.000105012 -0.0386039 0)
(0.000128497 -0.0394919 0)
(0.000240391 -0.0395541 0)
(-0.000130608 -0.0416265 0)
(3.26296e-05 -0.0426543 0)
(-0.000333962 -0.0434685 0)
(-0.000329926 -0.0449991 0)
(0.000385574 -0.0438822 0)
(0.00132718 -0.039771 0)
(0.000356179 -0.0427123 0)
(0.000700862 -0.0398413 0)
(0.00034544 -0.0396974 0)
(0.000102578 -0.0407932 0)
(0.000336421 -0.04021 0)
(-3.08806e-05 -0.0402909 0)
(-0.000268254 -0.039726 0)
(-0.000430111 -0.0385937 0)
(-0.00127086 -0.0447674 0)
(2.17874e-05 -0.0410931 0)
(-0.00170191 -0.0402739 0)
(5.6346e-05 -0.0394419 0)
(0.00117578 -0.0403954 0)
(-0.000642101 -0.0461314 0)
(0.000793779 -0.0431988 0)
(0.000256991 -0.042359 0)
(-0.000701157 -0.0421393 0)
(-0.00036053 -0.0409431 0)
(-0.000612765 -0.0421358 0)
(0.000300716 -0.0397967 0)
(-0.000970723 -0.0413316 0)
(-0.0011411 -0.0402826 0)
(-0.000191903 -0.0403884 0)
(0.000336012 -0.0369469 0)
(0.000241221 -0.0395484 0)
(0.000156313 -0.0380685 0)
(0.000282695 -0.0391941 0)
(-7.99936e-05 -0.0393464 0)
(-0.000118688 -0.0399351 0)
(-0.000466499 -0.0400276 0)
(-0.000329019 -0.0377956 0)
(-1.94507e-05 -0.0415009 0)
(0.00118743 -0.043001 0)
(0.000648733 -0.0415542 0)
(0.000187707 -0.0403428 0)
(-7.967e-06 -0.0429506 0)
(-9.7314e-05 -0.0436004 0)
(-0.00015192 -0.0438936 0)
(-5.35802e-05 -0.043342 0)
(0.000123074 -0.0430574 0)
(0.000209074 -0.043253 0)
(-1.83248e-05 -0.0440161 0)
(0.000177949 -0.0438982 0)
(0.000417732 -0.0442172 0)
(5.76385e-05 -0.04333 0)
(5.94415e-05 -0.0419549 0)
(0.000339333 -0.042842 0)
(0.00077353 -0.0436694 0)
(0.000388436 -0.0448361 0)
(0.000267687 -0.0449545 0)
(0.000264256 -0.0447522 0)
(0.000164298 -0.0445315 0)
(-0.000462819 -0.0427555 0)
(0.000861299 -0.0421957 0)
(0.000607829 -0.0415496 0)
(0.000397887 -0.0418096 0)
(0.00039102 -0.0439826 0)
(-0.000687148 -0.0453249 0)
(0.000211424 -0.0433862 0)
(0.00104086 -0.0432142 0)
(0.000226976 -0.0434354 0)
(0.000277336 -0.0408805 0)
(-0.000164474 -0.0419951 0)
(0.000382569 -0.0425021 0)
(-0.00127051 -0.0424611 0)
(-0.000834339 -0.0426564 0)
(-0.00107659 -0.0419208 0)
(0.000783875 -0.0379848 0)
(0.000868144 -0.0391463 0)
(2.50173e-05 -0.0409761 0)
(-0.000104885 -0.0414759 0)
(7.88354e-06 -0.0430671 0)
(9.84169e-05 -0.0441594 0)
(0.000952571 -0.0437325 0)
(0.00103427 -0.0422988 0)
(0.000297381 -0.0430088 0)
(-6.76203e-05 -0.0445567 0)
(-0.000230139 -0.0449858 0)
(0.000837328 -0.0442571 0)
(-0.00119118 -0.0435463 0)
(0.000175967 -0.0430277 0)
(0.00015558 -0.0428763 0)
(0.000555932 -0.042327 0)
(0.00116597 -0.04176 0)
(-0.000247639 -0.0425207 0)
(0.000139189 -0.0426348 0)
(2.57854e-05 -0.0439877 0)
(0.000437438 -0.0433967 0)
(0.000338835 -0.0428535 0)
(-0.000191302 -0.0426876 0)
(0.00112519 -0.0441419 0)
(0.000587381 -0.0451184 0)
(0.000203921 -0.0458783 0)
(-3.56194e-05 -0.0452545 0)
(0.000373995 -0.044546 0)
(-0.00125722 -0.0404917 0)
(0.000250681 -0.0407492 0)
(0.000184337 -0.0390281 0)
(-5.11267e-05 -0.0402815 0)
(-4.46311e-05 -0.0417421 0)
(-0.000456334 -0.04197 0)
(-0.000711985 -0.0445913 0)
(-0.000630029 -0.0444129 0)
(0.000188116 -0.042364 0)
(4.74102e-05 -0.042554 0)
(0.000487959 -0.0425987 0)
(0.000164808 -0.0421307 0)
(-0.000323057 -0.0417395 0)
(-0.00014494 -0.04229 0)
(-0.000212614 -0.0421858 0)
(-0.000223393 -0.0423929 0)
(7.81657e-05 -0.0427596 0)
(0.00154335 -0.0409272 0)
(-0.000547546 -0.0443455 0)
(0.000143063 -0.0435412 0)
(0.00118211 -0.042965 0)
(0.000362421 -0.0429741 0)
(0.000171519 -0.0447169 0)
(-2.24602e-05 -0.045746 0)
(3.39529e-05 -0.0461754 0)
(-1.59016e-05 -0.0460911 0)
(0.000728713 -0.0452185 0)
(0.000537624 -0.0458817 0)
(-0.000106295 -0.0454044 0)
(-0.000481427 -0.0440212 0)
(-0.000982152 -0.0432671 0)
(6.40987e-05 -0.0437663 0)
(0.000207537 -0.0427276 0)
(0.000153237 -0.043753 0)
(-0.000174176 -0.0437738 0)
(-0.000126845 -0.0436781 0)
(-9.87651e-05 -0.0435957 0)
(0.000204718 -0.0441753 0)
(0.00128232 -0.0447213 0)
(0.00050169 -0.0448225 0)
(0.000270318 -0.044865 0)
(-0.000400924 -0.0453331 0)
(-0.00023543 -0.0455519 0)
(6.83457e-05 -0.0450624 0)
(-4.60397e-05 -0.0469873 0)
(-0.000231703 -0.0443035 0)
(0.000485695 -0.0436257 0)
(0.000253384 -0.0466298 0)
(0.000398016 -0.0453767 0)
(0.000367773 -0.0439798 0)
(0.000848546 -0.0420423 0)
(-0.000117124 -0.0449665 0)
(0.000678097 -0.0442743 0)
(0.000501867 -0.0400305 0)
(0.000392792 -0.0425275 0)
(0.000222107 -0.0429163 0)
(7.05212e-07 -0.0419434 0)
(-2.4615e-05 -0.0422053 0)
(-0.000235973 -0.04317 0)
(5.69547e-05 -0.0434518 0)
(-0.000255754 -0.0424893 0)
(-0.00158826 -0.0418654 0)
(-0.000740853 -0.0417993 0)
(-0.00144737 -0.0421611 0)
(-0.00038526 -0.0475206 0)
(-0.00026229 -0.0484843 0)
(0.000525001 -0.0473008 0)
(0.000622302 -0.0475972 0)
(0.000474954 -0.0478156 0)
(0.00106685 -0.0467912 0)
(0.00022074 -0.0476163 0)
(0.000185812 -0.0474536 0)
(0.000428628 -0.0470948 0)
(0.000754808 -0.0470151 0)
(-0.000167464 -0.0464076 0)
(-5.94675e-05 -0.0458942 0)
(-0.000225148 -0.0445649 0)
(-0.000622534 -0.0440088 0)
(2.49125e-06 -0.0442812 0)
(0.000510599 -0.0438374 0)
(-1.18744e-05 -0.0448897 0)
(-0.000429468 -0.0454942 0)
(-0.000352834 -0.0449275 0)
(0.000217217 -0.0446442 0)
(0.000513813 -0.0453679 0)
(0.00131631 -0.0453177 0)
(0.000145479 -0.0451677 0)
(0.000106891 -0.0421758 0)
(0.00189059 -0.0418995 0)
(0.000266183 -0.0446696 0)
(-0.000190518 -0.0457792 0)
(0.00061685 -0.0461568 0)
(0.00134199 -0.0455106 0)
(0.000849307 -0.0468035 0)
(-0.000652227 -0.0451524 0)
(2.51789e-05 -0.0461637 0)
(0.000271088 -0.0443965 0)
(-0.000202249 -0.0456865 0)
(-0.000100182 -0.0453439 0)
(-0.00119118 -0.0414109 0)
(-0.000706078 -0.0456204 0)
(0.000488629 -0.0449702 0)
(0.000278089 -0.044979 0)
(-0.000181631 -0.0452939 0)
(-0.000178693 -0.0454152 0)
(-0.000337348 -0.0452119 0)
(-0.00149941 -0.0439257 0)
(-8.83395e-05 -0.0436439 0)
(-3.63326e-06 -0.0445836 0)
(-0.000532531 -0.0433407 0)
(-8.30635e-05 -0.0425921 0)
(-0.000338787 -0.0457296 0)
(-1.88476e-05 -0.0471747 0)
(0.000227046 -0.0484148 0)
(0.000483617 -0.0502231 0)
(-0.000378826 -0.0511671 0)
(-0.000551758 -0.0490508 0)
(0.000114962 -0.0488676 0)
(0.000326774 -0.0478665 0)
(0.000589023 -0.0478596 0)
(0.000588805 -0.0470733 0)
(-0.000111583 -0.046366 0)
(-0.000289267 -0.0465409 0)
(-0.000516898 -0.0454768 0)
(-0.000479283 -0.0457671 0)
(0.00123354 -0.0457849 0)
(-6.11142e-05 -0.0470137 0)
(-0.000515884 -0.0472618 0)
(-0.00016146 -0.0464074 0)
(-0.000520595 -0.0465574 0)
(-0.000126721 -0.0457826 0)
(0.00024545 -0.0450932 0)
(0.00042651 -0.0446903 0)
(0.000752623 -0.0452018 0)
(0.000658552 -0.0445851 0)
(0.000211495 -0.0440064 0)
(1.91435e-05 -0.0443806 0)
(-0.000277203 -0.0454177 0)
(-0.000190658 -0.0461776 0)
(0.000283896 -0.0440862 0)
(-0.000238996 -0.044435 0)
(0.000849398 -0.0467564 0)
(-0.000693405 -0.0463172 0)
(-0.000879074 -0.043844 0)
(1.57316e-05 -0.0458554 0)
(5.83528e-05 -0.0463776 0)
(0.00035348 -0.0468613 0)
(0.000658309 -0.0473402 0)
(0.000525762 -0.0476801 0)
(-0.000307027 -0.0489446 0)
(0.000769718 -0.0499242 0)
(-0.0011124 -0.0498784 0)
(-0.000183355 -0.0500348 0)
(0.000340289 -0.0488148 0)
(0.000321124 -0.0497452 0)
(9.07626e-06 -0.0476426 0)
(-0.000197415 -0.048009 0)
(8.90977e-05 -0.0481784 0)
(-0.00202993 -0.0481154 0)
(-0.0004171 -0.0502744 0)
(0.000838313 -0.0506388 0)
(-0.000372218 -0.051257 0)
(-0.000713562 -0.0489541 0)
(0.00012763 -0.0490739 0)
(0.000176124 -0.0474569 0)
(0.000474404 -0.0475393 0)
(0.000420185 -0.0474054 0)
(8.83695e-05 -0.0476617 0)
(0.000391234 -0.047818 0)
(0.000143753 -0.046634 0)
(-0.000332558 -0.0460638 0)
(-0.00065037 -0.0464792 0)
(-0.000884502 -0.0465307 0)
(-0.000445839 -0.0472071 0)
(-0.000324511 -0.0467496 0)
(-0.000338187 -0.0464992 0)
(5.63506e-05 -0.0468002 0)
(0.000389878 -0.0462085 0)
(0.000330499 -0.0459645 0)
(0.000670052 -0.0442627 0)
(0.000823929 -0.0437736 0)
(0.000362685 -0.044807 0)
(0.000189418 -0.0446436 0)
(0.000391176 -0.0441211 0)
(-0.000147979 -0.0437183 0)
(-0.000575824 -0.0422687 0)
(0.000383164 -0.0445985 0)
(0.000246476 -0.0447121 0)
(-4.19794e-05 -0.0452427 0)
(0.000877357 -0.0452138 0)
(0.00110581 -0.0456017 0)
(0.000341254 -0.0465907 0)
(0.000248424 -0.0473752 0)
(2.86555e-05 -0.0486271 0)
(5.89158e-06 -0.0485871 0)
(-0.000251854 -0.048653 0)
(0.000531413 -0.0510737 0)
(-0.00035621 -0.0512812 0)
(-0.000394281 -0.0514026 0)
(-0.000798095 -0.0519505 0)
(-9.92107e-05 -0.0517718 0)
(0.000395644 -0.0512376 0)
(0.000514196 -0.0512465 0)
(-0.000571641 -0.0490605 0)
(-0.00037852 -0.0502854 0)
(-0.000277204 -0.050782 0)
(-0.000470438 -0.0506416 0)
(-0.00078687 -0.0490168 0)
(-0.000375868 -0.0480334 0)
(0.00053033 -0.0468664 0)
(0.000580261 -0.0478327 0)
(0.00168605 -0.0444474 0)
(-7.64482e-05 -0.0448002 0)
(0.000248345 -0.0462678 0)
(0.000372188 -0.0464293 0)
(0.000198782 -0.0475034 0)
(-0.000491613 -0.0462661 0)
(-0.00140679 -0.0455883 0)
(-0.00124015 -0.0457047 0)
(-0.000387726 -0.0475789 0)
(-0.000232267 -0.0470349 0)
(9.9947e-06 -0.0465111 0)
(0.000364372 -0.0457862 0)
(-0.000242007 -0.0449905 0)
(0.000823382 -0.0443915 0)
(0.000503784 -0.0433039 0)
(0.000774105 -0.0434007 0)
(0.000254044 -0.0428004 0)
(0.000264683 -0.0413378 0)
(0.00060632 -0.0403406 0)
(-0.000730163 -0.0417781 0)
(6.2831e-05 -0.0434779 0)
(7.98588e-05 -0.0434852 0)
(0.000449059 -0.04332 0)
(0.00167449 -0.0428534 0)
(0.000109443 -0.0443158 0)
(-0.000217247 -0.0455426 0)
(0.000323175 -0.043487 0)
(0.000321037 -0.0440835 0)
(0.000350485 -0.04462 0)
(0.000276164 -0.0447592 0)
(0.000128807 -0.044511 0)
(0.000225438 -0.0453879 0)
(-0.00109575 -0.0482195 0)
(-0.000224993 -0.0488465 0)
(-0.000798995 -0.0485447 0)
(-0.000718211 -0.049687 0)
(0.000204025 -0.0511629 0)
(0.0001594 -0.0512701 0)
(-0.00111353 -0.0464164 0)
(-0.000126598 -0.0470805 0)
(0.00031389 -0.0482268 0)
(0.000893233 -0.048863 0)
(0.00037435 -0.0486764 0)
(0.000805894 -0.0477788 0)
(-0.000580375 -0.0473507 0)
(-0.000443835 -0.046667 0)
(0.000104962 -0.0463713 0)
(0.000266973 -0.0437858 0)
(0.000191464 -0.0436028 0)
(0.000368685 -0.043226 0)
(6.90578e-05 -0.0440278 0)
(-0.000302024 -0.0437159 0)
(-0.000760797 -0.0432314 0)
(-0.000902122 -0.0457261 0)
(-0.000940719 -0.0452297 0)
(-0.000685549 -0.0455977 0)
(0.000445426 -0.0464971 0)
(0.00039915 -0.0475719 0)
(0.000254339 -0.0457226 0)
(-0.00027618 -0.0451321 0)
(0.00216497 -0.0442404 0)
(0.000287491 -0.0433993 0)
(0.00158021 -0.0429755 0)
(0.000720987 -0.0407128 0)
(6.62397e-05 -0.0406165 0)
(-0.000343544 -0.0405837 0)
(0.000107983 -0.0415419 0)
(6.68789e-05 -0.0453346 0)
(0.000556672 -0.0450745 0)
(0.000608842 -0.0436357 0)
(0.000588859 -0.0423822 0)
(0.000446817 -0.0418002 0)
(0.000122303 -0.0408201 0)
(0.000217864 -0.0398844 0)
(8.26229e-05 -0.0389703 0)
(-0.000586063 -0.0390607 0)
(-0.000308651 -0.0378036 0)
(-0.00103762 -0.0359329 0)
(-0.000322963 -0.0374379 0)
(0.000331412 -0.0415984 0)
(-8.35319e-05 -0.039455 0)
(0.000536562 -0.0356028 0)
(-0.00128844 -0.0445316 0)
(-0.00105998 -0.0411142 0)
(9.81261e-05 -0.0456319 0)
(1.92602e-05 -0.0479139 0)
(-0.000344677 -0.0475852 0)
(-0.000968142 -0.0486914 0)
(-0.00139893 -0.0468414 0)
(-0.000750662 -0.0461917 0)
(-0.00020744 -0.0472421 0)
(-3.32655e-05 -0.047313 0)
(-0.000438494 -0.046784 0)
(-0.000231446 -0.0463156 0)
(-0.000132864 -0.0449305 0)
(-0.000270139 -0.0435911 0)
(-0.00016633 -0.043351 0)
(0.000574198 -0.0437214 0)
(0.000224693 -0.0433864 0)
(-0.00049942 -0.043448 0)
(-0.000719843 -0.0436498 0)
(-0.000169198 -0.0442396 0)
(8.76147e-06 -0.044466 0)
(-0.000449492 -0.0462215 0)
(-0.000349216 -0.0470535 0)
(0.000106996 -0.0463472 0)
(-0.000125949 -0.0454091 0)
(-5.29166e-05 -0.0435375 0)
(-0.00102638 -0.0400229 0)
(0.000854715 -0.0427719 0)
(-0.00095501 -0.0384926 0)
(-0.000161479 -0.0415712 0)
(0.000897409 -0.0408808 0)
(0.00075202 -0.0418475 0)
(-0.00061912 -0.0449066 0)
(-0.000546216 -0.0467183 0)
(9.90715e-05 -0.0427267 0)
(-0.000328523 -0.0423246 0)
(-0.000146411 -0.0429741 0)
(-0.000683867 -0.0376593 0)
(-0.000607284 -0.0401238 0)
(0.000547795 -0.0364999 0)
(0.00146471 -0.0353936 0)
(0.000222939 -0.035918 0)
(-0.00013997 -0.0356264 0)
(-0.000113794 -0.0330303 0)
(-0.0018036 -0.0342944 0)
(-5.97701e-05 -0.0370152 0)
(-1.95952e-05 -0.0388172 0)
(0.000394626 -0.0401806 0)
(0.000328242 -0.0415402 0)
(-0.00056154 -0.0429285 0)
(0.000310858 -0.0411066 0)
(-0.000312811 -0.0415115 0)
(-0.0013072 -0.0420528 0)
(-0.00156178 -0.0424271 0)
(0.000351689 -0.0452693 0)
(0.000302686 -0.0468379 0)
(-0.000111584 -0.0468845 0)
(7.01048e-07 -0.0459788 0)
(1.13551e-05 -0.04439 0)
(-9.74544e-05 -0.0428511 0)
(-0.000405533 -0.0430459 0)
(0.000584806 -0.044163 0)
(9.91522e-05 -0.0436016 0)
(0.000130277 -0.043837 0)
(0.000137944 -0.0432532 0)
(0.000149098 -0.0440312 0)
(-1.97895e-05 -0.0457469 0)
(5.38713e-05 -0.0461943 0)
(0.000330912 -0.0450048 0)
(0.000207464 -0.0451983 0)
(-0.0012916 -0.0400606 0)
(-0.000645348 -0.0400197 0)
(-9.27735e-05 -0.0396034 0)
(0.00021641 -0.0396108 0)
(0.000920736 -0.040494 0)
(0.00108539 -0.0395855 0)
(0.00133114 -0.0412805 0)
(0.00158446 -0.0421425 0)
(0.000893962 -0.0428738 0)
(0.000704963 -0.0400481 0)
(0.000398932 -0.0408595 0)
(-0.000450029 -0.0425331 0)
(-0.00110168 -0.0409915 0)
(-0.000147926 -0.0438898 0)
(-0.000347721 -0.0376574 0)
(-0.00029779 -0.0389488 0)
(-0.000316112 -0.0414531 0)
(-0.000826789 -0.0413991 0)
(-0.000855901 -0.0438712 0)
(-0.000664332 -0.0445036 0)
(-0.000565582 -0.044086 0)
(8.22716e-05 -0.04324 0)
(0.000365431 -0.042643 0)
(0.00294924 -0.0421202 0)
(0.000852397 -0.0430743 0)
(-0.000751589 -0.0420787 0)
(-0.000108299 -0.0415432 0)
(5.90789e-05 -0.042381 0)
(0.000937043 -0.0460867 0)
(8.65864e-05 -0.0465026 0)
(0.000161481 -0.0449295 0)
(-0.000609645 -0.0439203 0)
(-0.000708141 -0.044276 0)
(-0.00100984 -0.043987 0)
(-0.000252861 -0.0419524 0)
(0.00072065 -0.0424332 0)
(0.00069472 -0.0444166 0)
(0.0003922 -0.0437815 0)
(0.000206867 -0.0438195 0)
(7.20816e-05 -0.0443945 0)
(0.00108647 -0.0446327 0)
(0.00113049 -0.0442861 0)
(-0.000158996 -0.0447752 0)
(-0.000172258 -0.0437919 0)
(-0.000741285 -0.043855 0)
(-0.000658737 -0.0428348 0)
(-0.000306493 -0.04281 0)
(5.54717e-05 -0.0410495 0)
(0.00173463 -0.038872 0)
(0.00105584 -0.0394586 0)
(-0.000394438 -0.0425524 0)
(0.000661694 -0.0441848 0)
(0.000885284 -0.0431659 0)
(0.00102072 -0.0421675 0)
(0.000751193 -0.0409979 0)
(0.0011442 -0.0419748 0)
(0.000670249 -0.041124 0)
(0.000631825 -0.0429968 0)
(-8.56719e-05 -0.0444647 0)
(-0.000111257 -0.0460258 0)
(-3.61454e-05 -0.0465532 0)
(-0.000402741 -0.0464987 0)
(-0.00108551 -0.0450683 0)
(0.000398697 -0.0451989 0)
(0.000606678 -0.0457878 0)
(-1.53662e-05 -0.0462438 0)
(-0.000440866 -0.0463204 0)
(-0.000420685 -0.0449923 0)
(-0.000190342 -0.0440612 0)
(0.00172972 -0.0430154 0)
(0.00297018 -0.041437 0)
(0.000993982 -0.039875 0)
(5.77913e-05 -0.041227 0)
(-0.000221541 -0.0429561 0)
(7.88577e-05 -0.0436473 0)
(9.12381e-05 -0.0440157 0)
(-0.000782353 -0.042883 0)
(-0.00103134 -0.0418117 0)
(-0.000201884 -0.0418505 0)
(-1.05196e-05 -0.0437323 0)
(-0.00129393 -0.0433763 0)
(0.000156957 -0.0439757 0)
(-0.00044949 -0.0443053 0)
(9.40713e-06 -0.0437718 0)
(0.000153896 -0.0443112 0)
(0.000143793 -0.0427827 0)
(0.000205352 -0.0410684 0)
(6.85733e-05 -0.0427794 0)
(-0.000102744 -0.0425498 0)
(-0.000196641 -0.044058 0)
(-0.000421718 -0.0442349 0)
(0.000696962 -0.0439538 0)
(-0.00117585 -0.0430361 0)
(-0.000767589 -0.0434716 0)
(0.000540955 -0.0441884 0)
(-0.000637199 -0.040742 0)
(-0.000307424 -0.0457572 0)
(-0.000851513 -0.0441714 0)
(0.000554348 -0.0438925 0)
(-0.000820959 -0.0455165 0)
(0.0010361 -0.0432007 0)
(0.000223878 -0.0419281 0)
(0.00120676 -0.0434464 0)
(-0.00129175 -0.0431204 0)
(0.00130038 -0.0457166 0)
(0.000294117 -0.0476151 0)
(0.000460152 -0.0478655 0)
(-0.000783276 -0.0470135 0)
(-0.000118091 -0.0460947 0)
(-0.000263275 -0.0458658 0)
(-0.000166393 -0.0462342 0)
(-0.000141377 -0.0469319 0)
(-0.000767201 -0.0451965 0)
(0.000240209 -0.0429129 0)
(0.00191584 -0.0430386 0)
(0.000669999 -0.0404573 0)
(0.00077742 -0.0403012 0)
(-4.31563e-05 -0.0392821 0)
(0.000477135 -0.0392416 0)
(2.2717e-05 -0.0413307 0)
(0.0013969 -0.0402545 0)
(0.00147317 -0.0399832 0)
(-0.000378508 -0.0411733 0)
(0.000282374 -0.0423212 0)
(-0.000358183 -0.0424404 0)
(0.000174246 -0.0450051 0)
(-0.000164207 -0.0451181 0)
(-0.000516805 -0.0448906 0)
(-0.000281102 -0.0434236 0)
(0.000121622 -0.0428598 0)
(9.00359e-05 -0.0423811 0)
(-6.56603e-05 -0.0425896 0)
(-0.000566569 -0.0401994 0)
(0.000848444 -0.0402883 0)
(0.000111776 -0.042489 0)
(-0.000772467 -0.0428399 0)
(-0.00118965 -0.0436189 0)
(0.000794067 -0.0454417 0)
(-0.000202666 -0.0441555 0)
(-0.000719151 -0.0443604 0)
(0.000693407 -0.0454176 0)
(-9.02029e-05 -0.045463 0)
(0.000951353 -0.0447718 0)
(0.000512245 -0.0454516 0)
(0.000266029 -0.0452138 0)
(0.000678619 -0.0463816 0)
(0.00037092 -0.0470523 0)
(0.000290364 -0.0466125 0)
(0.000209347 -0.0456555 0)
(0.000127174 -0.0452794 0)
(-0.000146327 -0.046525 0)
(-2.79393e-05 -0.0465172 0)
(0.000698086 -0.0462166 0)
(-0.000404001 -0.0450973 0)
(-4.36497e-05 -0.0456033 0)
(-0.000423461 -0.046365 0)
(-0.000785218 -0.0463605 0)
(-0.00113884 -0.0457416 0)
(-7.66688e-05 -0.0430734 0)
(0.000144153 -0.0423245 0)
(0.00115815 -0.0399821 0)
(0.00100905 -0.0366749 0)
(0.000268553 -0.0388226 0)
(0.000788051 -0.0411419 0)
(0.00100304 -0.0398325 0)
(0.00214559 -0.0402548 0)
(0.00112532 -0.0411478 0)
(0.000224331 -0.0431045 0)
(-0.000231802 -0.0425788 0)
(-0.0003127 -0.045227 0)
(-0.000484923 -0.0461369 0)
(-0.000362981 -0.0455868 0)
(-0.000802227 -0.0424906 0)
(-0.000304474 -0.043517 0)
(-8.90067e-05 -0.0439202 0)
(-0.000386813 -0.0436319 0)
(0.000110463 -0.0430909 0)
(0.000220002 -0.0430084 0)
(-0.000239532 -0.0433446 0)
(-0.000681664 -0.0435091 0)
(0.00115913 -0.0400777 0)
(0.000283301 -0.0421761 0)
(0.000751786 -0.0420872 0)
(0.0011992 -0.0423883 0)
(0.00072087 -0.0432032 0)
(0.000997511 -0.0440949 0)
(0.000218969 -0.0447002 0)
(0.000862964 -0.0458504 0)
(0.000359883 -0.0463989 0)
(0.000133041 -0.0474743 0)
(0.000163056 -0.0481498 0)
(0.000274112 -0.0481892 0)
(6.49754e-05 -0.0490343 0)
(-0.00021331 -0.0483362 0)
(-8.79795e-05 -0.0473426 0)
(-1.03485e-05 -0.0467539 0)
(-8.46535e-05 -0.0454102 0)
(-7.94072e-05 -0.0457751 0)
(-0.000160967 -0.0454494 0)
(-0.000118414 -0.0448633 0)
(-0.000492593 -0.0459401 0)
(-8.00548e-05 -0.0446189 0)
(-0.000634962 -0.0442692 0)
(0.000214028 -0.0431218 0)
(0.000414128 -0.0453529 0)
(0.000165101 -0.0457187 0)
(0.000392074 -0.0449559 0)
(0.000430402 -0.044612 0)
(0.000416756 -0.0432009 0)
(0.00065335 -0.0432065 0)
(0.000927705 -0.042799 0)
(0.000143297 -0.0427189 0)
(-6.10875e-06 -0.0426018 0)
(-0.00139475 -0.0410649 0)
(-0.000546409 -0.0434524 0)
(3.30189e-05 -0.0400527 0)
(0.0010105 -0.0394749 0)
(-0.000936167 -0.0411687 0)
(-0.000264045 -0.0437967 0)
(7.54326e-05 -0.043119 0)
(-6.21113e-06 -0.0425504 0)
(-0.000181848 -0.0436693 0)
(-0.000425062 -0.0469499 0)
(0.000940905 -0.0437017 0)
(0.000485884 -0.0454892 0)
(0.000638441 -0.0455531 0)
(0.000821247 -0.0440302 0)
(0.000989362 -0.0425832 0)
(0.000628004 -0.0433625 0)
(0.000111053 -0.0431972 0)
(0.000436121 -0.0443979 0)
(-0.000218423 -0.0442411 0)
(-0.000682558 -0.0437052 0)
(-0.00036356 -0.0433708 0)
(0.000411413 -0.0478102 0)
(-0.000109689 -0.0488795 0)
(-0.000423923 -0.0491984 0)
(-0.000622548 -0.0491029 0)
(-0.000299373 -0.0495058 0)
(-0.00011467 -0.0466659 0)
(-0.000156384 -0.047188 0)
(-0.000300892 -0.0447242 0)
(6.7092e-05 -0.045727 0)
(0.000148507 -0.0460358 0)
(0.000106283 -0.0469781 0)
(0.000295461 -0.046891 0)
(5.4705e-06 -0.0453039 0)
(-0.00042101 -0.0459155 0)
(0.000682429 -0.0458091 0)
(-0.000370382 -0.0466057 0)
(-0.000251361 -0.0475506 0)
(-0.000388124 -0.0460808 0)
(0.000587074 -0.0442245 0)
(0.000376975 -0.0422563 0)
(1.91453e-05 -0.0425982 0)
(8.9345e-05 -0.0429827 0)
(-0.000266456 -0.0389904 0)
(-0.000713548 -0.0394343 0)
(-3.95272e-05 -0.0400719 0)
(-2.91563e-06 -0.0417128 0)
(4.18384e-05 -0.0413014 0)
(-0.000613255 -0.0419048 0)
(9.89329e-05 -0.044414 0)
(0.000805908 -0.0430667 0)
(0.00151304 -0.0438069 0)
(-0.000446529 -0.0453452 0)
(0.000896331 -0.0449808 0)
(0.00180558 -0.0447826 0)
(0.00110069 -0.0445388 0)
(0.00086639 -0.0446503 0)
(0.000316364 -0.0455168 0)
(0.000507535 -0.0474333 0)
(0.000685776 -0.0472855 0)
(1.15899e-05 -0.0468272 0)
(-0.000105987 -0.0466775 0)
(-0.000268208 -0.0465955 0)
(-0.000451721 -0.0453831 0)
(-4.28587e-06 -0.0496271 0)
(-0.000428319 -0.0499277 0)
(-0.000240889 -0.0504822 0)
(-0.000350408 -0.0495147 0)
(-0.000602003 -0.0497684 0)
(-0.000138862 -0.0481445 0)
(-0.000362042 -0.0471868 0)
(-0.00064991 -0.0448735 0)
(0.000972067 -0.0451715 0)
(0.00076594 -0.0456907 0)
(0.000341269 -0.0486095 0)
(9.73839e-05 -0.0489523 0)
(5.28437e-05 -0.0485364 0)
(5.16267e-05 -0.0480661 0)
(4.83851e-05 -0.0471833 0)
(-0.000933808 -0.0459122 0)
(-0.000911813 -0.0465449 0)
(0.000595062 -0.0451562 0)
(0.000556122 -0.0441245 0)
(-0.000249551 -0.0429837 0)
(6.64555e-05 -0.0428066 0)
(0.000220904 -0.0426144 0)
(-0.000173597 -0.0422833 0)
(-0.000535044 -0.0392997 0)
(-0.000265504 -0.0425012 0)
(0.000449722 -0.0427652 0)
(0.000570745 -0.0440962 0)
(5.21315e-06 -0.0461646 0)
(-0.000194981 -0.0462046 0)
(0.000740492 -0.0455608 0)
(0.000110355 -0.0454793 0)
(-0.000149337 -0.0472194 0)
(-0.000427097 -0.047851 0)
(0.000874391 -0.0452375 0)
(0.000996277 -0.0431505 0)
(0.000828748 -0.0462914 0)
(0.000758938 -0.0461334 0)
(0.00130742 -0.0409603 0)
(0.000276323 -0.0446114 0)
(7.86324e-05 -0.0471091 0)
(-0.000331871 -0.0471273 0)
(-0.000586367 -0.0454962 0)
(-0.000264585 -0.045462 0)
(-0.000702599 -0.0469566 0)
(-0.000598144 -0.0496842 0)
(-6.36971e-05 -0.0508749 0)
(-0.00108632 -0.049902 0)
(-0.000252459 -0.0499264 0)
(-0.000321026 -0.048996 0)
(-0.000161946 -0.0485958 0)
(-0.000311772 -0.0482827 0)
(0.00069904 -0.0482511 0)
(-0.000404825 -0.0470421 0)
(-0.000130182 -0.047564 0)
(-0.000226969 -0.0481666 0)
(0.000120103 -0.0477169 0)
(0.000299806 -0.0470677 0)
(8.00631e-05 -0.0471943 0)
(-0.00130127 -0.0455462 0)
(-0.000701059 -0.0464111 0)
(-0.000337207 -0.0451754 0)
(-0.00048129 -0.0447058 0)
(0.000220886 -0.0462822 0)
(0.000468006 -0.0470836 0)
(0.000101553 -0.0439917 0)
(-5.41759e-05 -0.0432723 0)
(3.21901e-05 -0.0442067 0)
(-3.99284e-05 -0.0445606 0)
(0.000682727 -0.0449247 0)
(0.000813683 -0.04721 0)
(0.00140803 -0.0456975 0)
(0.00127015 -0.0456896 0)
(0.000687778 -0.0462521 0)
(0.000327463 -0.0474732 0)
(-5.72737e-05 -0.0471035 0)
(-0.000347096 -0.0468085 0)
(0.000246191 -0.0435058 0)
(-0.00042656 -0.0441006 0)
(5.66454e-05 -0.0427478 0)
(0.000892856 -0.0412318 0)
(-0.00153049 -0.0417701 0)
(-0.000367863 -0.0404989 0)
(-0.00100713 -0.0414654 0)
(-0.00342762 -0.0430582 0)
(-0.00241447 -0.0422744 0)
(-0.00203637 -0.0420666 0)
(0.000151784 -0.0440653 0)
(-0.000784361 -0.044006 0)
(-0.000478095 -0.0462038 0)
(-0.000228408 -0.0485864 0)
(-0.00065533 -0.0476748 0)
(-0.000345408 -0.0462083 0)
(-0.000616723 -0.0460522 0)
(-0.000179185 -0.0476195 0)
(-0.00033658 -0.048336 0)
(-0.0010912 -0.0462216 0)
(-0.00041207 -0.048331 0)
(-0.000158659 -0.0469078 0)
(-0.000941735 -0.0476744 0)
(-0.000427838 -0.0459139 0)
(-0.000461645 -0.0458152 0)
(0.000353482 -0.0466508 0)
(-4.81666e-05 -0.0463449 0)
(-0.000528365 -0.0456967 0)
(-0.000566298 -0.0457586 0)
(0.000328182 -0.0450204 0)
(0.000305926 -0.0453873 0)
(0.00037175 -0.0451529 0)
(-0.000224605 -0.0473609 0)
(-0.000465274 -0.0491738 0)
(0.000245456 -0.0495239 0)
(0.000276347 -0.0491774 0)
(6.60009e-05 -0.0485905 0)
(-0.000111378 -0.0480952 0)
(-0.000258871 -0.0474276 0)
(0.000395643 -0.0469664 0)
(0.000523026 -0.0466779 0)
(0.000277467 -0.0462343 0)
(-0.000122417 -0.0454491 0)
(0.000382494 -0.0456736 0)
(-0.000227703 -0.0432798 0)
(0.000132655 -0.0438937 0)
(0.000131483 -0.0419717 0)
(0.000154025 -0.0414525 0)
(-3.3775e-05 -0.0415063 0)
(-0.00125751 -0.0410747 0)
(-0.000315972 -0.0408871 0)
(-7.88245e-05 -0.0415036 0)
(-0.000570348 -0.0425443 0)
(0.00032333 -0.0449616 0)
(-0.00014976 -0.0455456 0)
(0.00208201 -0.0350393 0)
(0.000281115 -0.0353002 0)
(-0.00069974 -0.037448 0)
(-0.000203885 -0.039383 0)
(-0.00060636 -0.0388366 0)
(-0.00175028 -0.0380582 0)
(0.000418181 -0.0389806 0)
(-0.000750758 -0.0417565 0)
(-0.000995022 -0.0413683 0)
(-0.00067619 -0.0412102 0)
(-0.00108622 -0.0417978 0)
(-0.0007315 -0.0436208 0)
(0.000322665 -0.0461286 0)
(0.000337945 -0.0472803 0)
(0.000778825 -0.0476496 0)
(-0.000205468 -0.0463838 0)
(0.00107236 -0.0456801 0)
(-0.000249644 -0.0472305 0)
(-0.000503432 -0.0454316 0)
(-0.000923645 -0.0441753 0)
(0.000315394 -0.046698 0)
(-0.000580326 -0.0439045 0)
(-3.55095e-05 -0.0478496 0)
(-8.99201e-05 -0.0482133 0)
(0.00144021 -0.0484475 0)
(0.000449984 -0.0487073 0)
(0.000316727 -0.0504438 0)
(0.000248469 -0.0512598 0)
(-0.000986426 -0.0492641 0)
(-0.000397808 -0.0481684 0)
(0.000252668 -0.0468604 0)
(0.000400434 -0.0458081 0)
(0.000689718 -0.0468986 0)
(-0.000556489 -0.043938 0)
(-0.000370505 -0.0425933 0)
(-7.14007e-05 -0.0433988 0)
(-0.000194337 -0.043234 0)
(-0.000657863 -0.0416571 0)
(-0.000377344 -0.0422909 0)
(-8.47208e-05 -0.0410137 0)
(0.000169343 -0.0416885 0)
(0.000482151 -0.0429567 0)
(-0.000225616 -0.043486 0)
(0.000839363 -0.0415729 0)
(7.35941e-05 -0.0426545 0)
(0.000298177 -0.044288 0)
(-0.000377739 -0.0453977 0)
(-0.000114031 -0.0425499 0)
(0.000728339 -0.0395622 0)
(0.000270079 -0.0375049 0)
(-0.000653157 -0.0365102 0)
(-0.000650718 -0.0392037 0)
(-0.000589029 -0.0432076 0)
(0.00121187 -0.0414897 0)
(0.000122299 -0.0407119 0)
(-9.08694e-05 -0.0433652 0)
(0.000293488 -0.0454308 0)
(0.000883258 -0.0469424 0)
(0.000470777 -0.0466474 0)
(0.000898803 -0.0456097 0)
(0.00123104 -0.0464439 0)
(0.00101082 -0.046536 0)
(0.000566868 -0.0476728 0)
(0.000298205 -0.0472971 0)
(-0.000675369 -0.0448187 0)
(-0.000737993 -0.0442806 0)
(-0.000999222 -0.0482194 0)
(0.000176213 -0.0493571 0)
(-0.000619319 -0.0496061 0)
(0.00016597 -0.0516877 0)
(-7.86782e-05 -0.0513872 0)
(-4.53892e-05 -0.0509573 0)
(-0.00105402 -0.0504199 0)
(-0.000655507 -0.0483336 0)
(-0.000875961 -0.047738 0)
(0.000360171 -0.0479875 0)