/*--------------------------------*- C++ -*----------------------------------*\
  =========                 |
  \\      /  F ield         | OpenFOAM: The Open Source CFD Toolbox
   \\    /   O peration     | Website:  https://openfoam.org
    \\  /    A nd           | Version:  12
     \\/     M anipulation  |
\*---------------------------------------------------------------------------*/
FoamFile
{
    format      ascii;
    class       volVectorField::Internal;
    location    "0.2";
    object      cloud:UTrans;
}
// * * * * * * * * * * * * * * * * * * * * * * * * * * * * * * * * * * * * * //

dimensions      [1 1 -1 0 0 0 0];

value           nonuniform List<vector> 
3750
(
(-1.30594e-11 -6.62856e-10 0)
(-2.2068e-11 -1.28158e-09 0)
(0 0 0)
(9.01477e-12 -1.74609e-09 0)
(1.37098e-10 -4.11594e-09 0)
(2.99246e-11 -2.0012e-09 0)
(5.07353e-11 -1.90781e-09 0)
(-9.54877e-11 -1.76247e-09 0)
(-1.86793e-10 -1.9518e-09 0)
(-2.68294e-10 -2.15436e-09 0)
(0 0 0)
(5.0978e-12 -2.13469e-09 0)
(1.5349e-10 -1.97766e-09 0)
(-1.53189e-11 -1.98336e-09 0)
(-4.43218e-11 -2.5397e-09 0)
(-1.87498e-10 -3.84949e-09 0)
(8.41319e-11 -1.91723e-09 0)
(-5.7501e-11 -2.00414e-09 0)
(4.58264e-11 -1.72749e-09 0)
(-3.82658e-11 -1.81028e-09 0)
(1.95383e-10 -2.11345e-09 0)
(8.28032e-11 -2.10186e-09 0)
(-2.15648e-11 -1.95518e-09 0)
(-7.15108e-11 -4.48599e-09 0)
(3.97969e-11 -1.83586e-09 0)
(-5.10159e-11 -2.01674e-09 0)
(-5.44014e-11 -2.08408e-09 0)
(-1.38081e-10 -1.97838e-09 0)
(-5.71816e-11 -2.15122e-09 0)
(4.45948e-11 -2.27588e-09 0)
(3.13354e-13 -1.54919e-11 0)
(4.37888e-11 -1.92572e-09 0)
(5.33528e-11 -1.8047e-09 0)
(-8.00287e-11 -4.79964e-09 0)
(7.59414e-11 -1.81688e-09 0)
(-1.73883e-11 -1.71219e-09 0)
(-9.59226e-11 -1.8643e-09 0)
(1.01465e-12 -2.44443e-09 0)
(-5.6196e-11 -1.46451e-09 0)
(-4.40832e-12 -2.12399e-09 0)
(1.89111e-11 -2.23958e-09 0)
(-4.70423e-11 -2.19544e-09 0)
(0 0 0)
(-7.62187e-12 -1.78191e-09 0)
(2.88028e-10 -1.91786e-09 0)
(2.73602e-10 -1.99321e-09 0)
(-1.66311e-10 -5.13304e-09 0)
(4.17464e-13 -6.86219e-10 0)
(-2.57339e-12 -6.0288e-10 0)
(1.11338e-11 -2.01717e-09 0)
(3.37785e-11 -2.15086e-09 0)
(6.48268e-11 -2.3405e-09 0)
(-1.59884e-11 -2.40014e-09 0)
(-3.51479e-11 -1.87128e-09 0)
(1.21838e-10 -1.82206e-09 0)
(2.15463e-10 -1.85171e-09 0)
(1.29349e-11 -2.99296e-09 0)
(1.18734e-10 -2.86187e-09 0)
(1.72092e-10 -2.08899e-09 0)
(-1.02622e-10 -2.2142e-09 0)
(-5.13051e-11 -2.32341e-09 0)
(0 0 0)
(1.67349e-10 -2.07839e-09 0)
(-3.92522e-11 -1.97292e-09 0)
(2.29133e-11 -2.06253e-09 0)
(-3.08015e-11 -1.94631e-09 0)
(-2.28023e-11 -2.00829e-09 0)
(0 0 0)
(1.05677e-11 -1.98054e-09 0)
(4.81761e-11 -1.76792e-09 0)
(0 0 0)
(0 0 0)
(0 0 0)
(0 0 0)
(0 0 0)
(1.17612e-10 -4.68864e-09 0)
(-4.16247e-11 -1.6339e-09 0)
(4.57997e-11 -1.90217e-09 0)
(4.46863e-11 -1.82372e-09 0)
(1.05806e-10 -1.80528e-09 0)
(1.59718e-10 -1.87829e-09 0)
(-1.88298e-11 -1.9193e-09 0)
(5.04351e-12 -2.01407e-09 0)
(-3.01233e-11 -2.05348e-09 0)
(-1.50363e-11 -1.3058e-09 0)
(2.54471e-10 -1.53183e-09 0)
(5.49499e-11 -2.01625e-09 0)
(6.62347e-11 -1.77974e-09 0)
(-1.75022e-11 -1.75341e-09 0)
(-5.96498e-11 -2.06496e-09 0)
(3.30178e-11 -7.18655e-10 0)
(3.70659e-11 -6.75341e-10 0)
(3.44217e-11 -3.49748e-09 0)
(-1.28679e-10 -2.25372e-09 0)
(-1.55597e-10 -2.3059e-09 0)
(-1.81434e-10 -4.11672e-09 0)
(1.43331e-11 -3.11386e-10 0)
(7.21622e-11 -1.35864e-09 0)
(4.99798e-11 -1.27109e-09 0)
(-2.46924e-10 -1.59093e-09 0)
(-1.94144e-10 -1.82592e-09 0)
(-8.34608e-11 -1.97276e-09 0)
(-6.76329e-11 -1.84639e-09 0)
(-6.78307e-11 -1.66872e-09 0)
(-1.66963e-10 -4.23853e-09 0)
(1.51163e-10 -1.78975e-09 0)
(5.27541e-11 -1.92357e-09 0)
(-5.16808e-11 -2.02878e-09 0)
(-5.28281e-11 -1.92348e-09 0)
(1.23235e-10 -1.9184e-09 0)
(0 0 0)
(-2.98967e-11 -1.5482e-09 0)
(-7.41191e-11 -1.7975e-09 0)
(-1.16522e-10 -1.89119e-09 0)
(-5.30681e-11 -1.95482e-09 0)
(4.25811e-11 -1.95576e-09 0)
(4.79044e-12 -1.75886e-09 0)
(2.87237e-10 -1.63607e-09 0)
(3.38038e-10 -2.01942e-09 0)
(8.61502e-11 -1.85822e-09 0)
(-6.99665e-11 -2.0461e-09 0)
(-1.21056e-10 -2.05826e-09 0)
(4.72708e-11 -4.4348e-09 0)
(8.16978e-11 -1.60749e-09 0)
(1.40201e-10 -1.50281e-09 0)
(1.73075e-10 -2.12022e-09 0)
(-3.31287e-10 -5.4082e-09 0)
(-2.2467e-11 -2.26042e-09 0)
(0 0 0)
(1.97506e-10 -1.6735e-09 0)
(-2.63869e-11 -1.12609e-09 0)
(-8.77246e-11 -1.40182e-09 0)
(9.98551e-11 -1.8523e-09 0)
(0 0 0)
(7.23674e-11 -1.86628e-09 0)
(-5.07722e-12 -2.02173e-09 0)
(-4.67597e-11 -2.07802e-09 0)
(7.08499e-11 -1.75931e-09 0)
(8.37826e-11 -3.84409e-09 0)
(1.24995e-10 -1.85926e-09 0)
(3.73091e-11 -1.93233e-09 0)
(0 0 0)
(0 0 0)
(0 0 0)
(0 0 0)
(0 0 0)
(0 0 0)
(0 0 0)
(0 0 0)
(0 0 0)
(-3.49094e-11 -4.10971e-09 0)
(9.13944e-11 -1.87438e-09 0)
(2.01217e-11 -1.78764e-09 0)
(4.3033e-11 -1.81657e-09 0)
(1.53712e-11 -1.74036e-09 0)
(-8.38059e-12 -1.75563e-09 0)
(-4.2063e-11 -1.82623e-09 0)
(-3.66164e-11 -1.89413e-09 0)
(-4.18604e-11 -1.86975e-09 0)
(2.59739e-10 -1.87829e-09 0)
(2.39188e-10 -2.20143e-09 0)
(9.79091e-11 -2.13918e-09 0)
(6.21054e-11 -1.78443e-09 0)
(1.36538e-10 -2.05097e-09 0)
(-6.71112e-11 -1.96645e-09 0)
(5.82613e-11 -1.83634e-09 0)
(3.07376e-11 -1.92984e-09 0)
(-1.2949e-10 -1.94988e-09 0)
(-1.48237e-10 -1.91182e-09 0)
(-1.55141e-10 -1.93224e-09 0)
(-9.60667e-11 -1.94146e-09 0)
(1.3536e-10 -1.9484e-09 0)
(4.8951e-11 -1.75368e-09 0)
(3.47135e-11 -1.76878e-09 0)
(-7.80905e-11 -1.77126e-09 0)
(6.75636e-12 -2.01972e-09 0)
(3.53787e-11 -2.09466e-09 0)
(-1.52901e-11 -2.15809e-09 0)
(-8.98555e-11 -1.95437e-09 0)
(-4.82664e-11 -1.9562e-09 0)
(3.07642e-11 -1.84178e-09 0)
(1.79191e-10 -1.97921e-09 0)
(7.49873e-11 -1.99284e-09 0)
(9.91479e-11 -2.02357e-09 0)
(3.81876e-11 -1.7487e-09 0)
(-7.01902e-11 -1.64837e-09 0)
(2.28073e-11 -1.60658e-09 0)
(4.31071e-11 -2.1822e-09 0)
(-1.81917e-11 -8.08203e-10 0)
(2.71037e-11 -1.77962e-09 0)
(1.14635e-10 -2.68048e-09 0)
(1.0013e-10 -1.63015e-09 0)
(7.61597e-11 -1.69103e-09 0)
(1.04214e-10 -4.29945e-09 0)
(3.71765e-11 -1.89167e-09 0)
(8.19657e-12 -1.91994e-09 0)
(1.08136e-11 -2.21213e-09 0)
(-6.03718e-12 -2.02316e-09 0)
(1.61714e-10 -1.74731e-09 0)
(5.85963e-12 -4.09385e-10 0)
(-7.67828e-12 -3.85475e-09 0)
(-1.42385e-10 -2.21195e-09 0)
(0 0 0)
(1.91515e-10 -2.11611e-09 0)
(2.81562e-10 -1.77641e-09 0)
(1.36301e-10 -1.94251e-09 0)
(5.84885e-11 -1.73446e-09 0)
(-1.24655e-10 -1.78653e-09 0)
(6.48543e-11 -4.64497e-09 0)
(-1.05113e-11 -1.85151e-09 0)
(2.41061e-11 -5.06423e-09 0)
(-1.07254e-10 -1.84193e-09 0)
(-8.07353e-11 -1.76356e-09 0)
(0 0 0)
(-1.32214e-10 -1.8667e-09 0)
(0 0 0)
(0 0 0)
(0 0 0)
(0 0 0)
(0 0 0)
(0 0 0)
(0 0 0)
(0 0 0)
(0 0 0)
(0 0 0)
(-9.64029e-11 -1.90593e-09 0)
(6.69206e-11 -1.96065e-09 0)
(1.00149e-10 -1.74574e-09 0)
(8.22293e-11 -1.86423e-09 0)
(1.62906e-10 -1.9405e-09 0)
(-2.10421e-10 -1.71847e-09 0)
(-1.06057e-10 -1.74982e-09 0)
(-3.92118e-11 -2.11104e-09 0)
(2.28697e-10 -3.75511e-09 0)
(4.27392e-11 -1.83832e-09 0)
(9.99361e-11 -1.96663e-09 0)
(-1.80058e-11 -1.96994e-09 0)
(-2.55028e-10 -1.81065e-09 0)
(-1.03161e-11 -2.1525e-09 0)
(0 0 0)
(8.46099e-11 -3.89109e-09 0)
(-4.19586e-11 -1.68107e-09 0)
(-4.24527e-11 -1.91456e-09 0)
(1.19929e-12 -1.99093e-09 0)
(-2.34673e-11 -1.93057e-09 0)
(5.36531e-11 -2.01325e-09 0)
(-1.76191e-11 -1.64749e-09 0)
(-1.53517e-10 -1.71336e-09 0)
(2.2365e-11 -1.70911e-09 0)
(2.47313e-11 -1.58998e-09 0)
(2.39775e-12 -1.60781e-09 0)
(-3.84748e-12 -2.22569e-09 0)
(0 0 0)
(-6.19871e-11 -1.87848e-09 0)
(-3.06817e-11 -1.67743e-09 0)
(-4.309e-11 -1.9299e-09 0)
(-8.50831e-11 -2.12891e-09 0)
(-1.53277e-11 -2.06826e-09 0)
(6.60079e-11 -2.0763e-09 0)
(1.30117e-10 -1.73986e-09 0)
(-2.10208e-11 -1.53785e-09 0)
(-8.04064e-11 -1.69932e-09 0)
(-1.44691e-11 -1.92016e-09 0)
(5.13249e-11 -1.96866e-09 0)
(-7.64291e-11 -2.37703e-09 0)
(4.23515e-11 -3.48413e-09 0)
(9.80771e-11 -1.84847e-09 0)
(-7.42783e-11 -1.71219e-09 0)
(7.66588e-12 -1.63975e-09 0)
(1.40172e-10 -1.78874e-09 0)
(1.01455e-10 -2.09282e-09 0)
(-3.17177e-12 -2.38221e-09 0)
(-2.18129e-11 -1.96977e-09 0)
(-1.9241e-11 -1.40724e-09 0)
(0 0 0)
(-2.64506e-10 -5.14282e-09 0)
(-1.76396e-11 -2.15748e-09 0)
(0 0 0)
(4.81922e-11 -1.93641e-09 0)
(2.80468e-11 -1.77526e-09 0)
(1.32076e-10 -1.91661e-09 0)
(6.7579e-11 -2.03664e-09 0)
(1.58349e-10 -1.8764e-09 0)
(-7.54251e-11 -1.8594e-09 0)
(-3.32569e-10 -4.6771e-09 0)
(-1.12525e-10 -1.67632e-09 0)
(-1.49525e-11 -1.91823e-09 0)
(-5.44314e-11 -1.81614e-09 0)
(-6.24465e-11 -1.75954e-09 0)
(-1.06831e-10 -1.79029e-09 0)
(0 0 0)
(0 0 0)
(0 0 0)
(0 0 0)
(0 0 0)
(0 0 0)
(0 0 0)
(0 0 0)
(0 0 0)
(0 0 0)
(5.35098e-11 -1.96678e-09 0)
(9.89187e-11 -1.88223e-09 0)
(9.52068e-11 -1.99822e-09 0)
(3.13206e-11 -2.02646e-09 0)
(4.4565e-11 -1.85944e-09 0)
(2.12627e-11 -1.82144e-09 0)
(-5.04996e-11 -1.37251e-09 0)
(9.06697e-12 -1.46401e-09 0)
(-8.31396e-11 -1.85537e-09 0)
(2.77682e-11 -3.02217e-09 0)
(5.51594e-11 -3.44163e-09 0)
(-1.06789e-10 -2.09615e-09 0)
(-1.54646e-10 -1.78682e-09 0)
(-2.61516e-11 -1.97972e-09 0)
(1.72484e-10 -1.99316e-09 0)
(4.48763e-11 -1.7727e-09 0)
(0 0 0)
(1.57251e-10 -1.96421e-09 0)
(3.18088e-11 -1.9614e-09 0)
(3.0735e-12 -1.74619e-09 0)
(5.73171e-11 -1.59246e-09 0)
(0 0 0)
(-7.27825e-11 -1.66936e-09 0)
(-2.58726e-11 -1.95753e-09 0)
(8.29344e-13 -1.66578e-09 0)
(-3.83201e-11 -4.76881e-09 0)
(0 0 0)
(3.81386e-11 -2.05003e-09 0)
(-3.68246e-11 -1.93855e-09 0)
(-8.03078e-11 -1.9242e-09 0)
(-1.07996e-10 -1.96634e-09 0)
(-1.25624e-10 -1.96122e-09 0)
(3.12554e-11 -2.06153e-09 0)
(1.55448e-10 -2.08577e-09 0)
(1.14487e-10 -1.76188e-09 0)
(8.07891e-11 -1.74486e-09 0)
(7.15046e-11 -1.70032e-09 0)
(1.32328e-11 -1.77791e-09 0)
(-1.72522e-11 -5.09584e-09 0)
(-1.44657e-10 -1.88119e-09 0)
(1.13205e-11 -1.46344e-09 0)
(1.04642e-10 -2.02285e-09 0)
(0 0 0)
(-5.52939e-11 -1.62512e-09 0)
(9.83123e-11 -1.89555e-09 0)
(-8.4349e-11 -2.374e-09 0)
(7.78292e-11 -2.32676e-09 0)
(8.27951e-11 -2.0074e-09 0)
(-5.90178e-11 -1.87042e-09 0)
(1.08315e-10 -1.90282e-09 0)
(-8.99022e-11 -1.98371e-09 0)
(2.33356e-10 -1.91471e-09 0)
(-1.0935e-10 -2.05777e-09 0)
(2.10208e-11 -2.19641e-09 0)
(6.10163e-11 -2.88676e-09 0)
(1.75076e-11 -3.69218e-09 0)
(8.02032e-12 -5.99639e-10 0)
(1.50734e-11 -9.45991e-10 0)
(-6.15376e-12 -1.80698e-09 0)
(0 0 0)
(-9.67008e-12 -1.78197e-09 0)
(-1.16909e-10 -1.7309e-09 0)
(-1.35834e-10 -1.87849e-09 0)
(-2.26402e-10 -1.81623e-09 0)
(-6.85122e-11 -1.8518e-09 0)
(0 0 0)
(0 0 0)
(0 0 0)
(0 0 0)
(0 0 0)
(0 0 0)
(0 0 0)
(0 0 0)
(0 0 0)
(0 0 0)
(1.1582e-10 -1.93664e-09 0)
(-6.42049e-11 -1.90123e-09 0)
(5.60917e-11 -2.198e-09 0)
(3.09949e-11 -1.83036e-09 0)
(1.57166e-10 -1.90909e-09 0)
(2.94011e-11 -1.79472e-09 0)
(-4.80138e-11 -1.65202e-09 0)
(-5.08094e-11 -1.76816e-09 0)
(-1.08276e-10 -1.87719e-09 0)
(-1.92484e-10 -1.94819e-09 0)
(-1.44405e-10 -1.98994e-09 0)
(-2.12509e-10 -2.07771e-09 0)
(-1.28806e-10 -1.93807e-09 0)
(-9.85775e-11 -1.80666e-09 0)
(8.95509e-11 -3.34941e-09 0)
(2.8245e-11 -8.69486e-10 0)
(2.48938e-11 -1.92132e-09 0)
(5.37987e-11 -2.17163e-09 0)
(-2.61193e-11 -8.94277e-10 0)
(-1.23654e-11 -3.57314e-10 0)
(-5.03689e-11 -1.85046e-09 0)
(-3.97488e-11 -1.89488e-09 0)
(-4.0358e-11 -1.84642e-09 0)
(-6.98452e-11 -1.91185e-09 0)
(-1.23658e-10 -1.90722e-09 0)
(-2.21907e-10 -1.97831e-09 0)
(-5.73382e-11 -2.08321e-09 0)
(-4.01923e-11 -2.08924e-09 0)
(-9.32704e-11 -1.94232e-09 0)
(-1.04427e-10 -1.95403e-09 0)
(-9.38049e-11 -1.99753e-09 0)
(-1.12021e-11 -1.97208e-09 0)
(3.57974e-11 -1.9611e-09 0)
(9.34661e-12 -2.02513e-09 0)
(-3.68821e-11 -1.94952e-09 0)
(-8.18223e-11 -1.92918e-09 0)
(-8.46014e-11 -1.75479e-09 0)
(-2.44957e-11 -1.65323e-09 0)
(8.62881e-11 -5.00847e-09 0)
(-1.0302e-10 -1.51993e-09 0)
(-4.96385e-11 -1.48459e-09 0)
(0 0 0)
(1.84894e-10 -2.57729e-09 0)
(-7.01524e-11 -3.44883e-09 0)
(-9.64775e-11 -2.28329e-09 0)
(0 0 0)
(-4.96172e-11 -2.23772e-09 0)
(2.61721e-10 -2.15911e-09 0)
(1.09199e-10 -2.13468e-09 0)
(-1.11149e-10 -2.16398e-09 0)
(-1.60189e-10 -1.91896e-09 0)
(-8.18024e-11 -1.87129e-09 0)
(-1.89343e-11 -1.93493e-09 0)
(1.10409e-10 -3.84367e-09 0)
(6.55375e-11 -2.48442e-09 0)
(-1.96155e-11 -9.82409e-10 0)
(4.38404e-12 -7.86564e-10 0)
(4.33791e-11 -1.85005e-09 0)
(4.73633e-11 -1.93529e-09 0)
(1.83936e-10 -4.02457e-09 0)
(1.16904e-10 -3.92405e-09 0)
(-1.44974e-10 -2.05728e-09 0)
(-4.02689e-10 -4.46656e-09 0)
(-1.01177e-10 -1.75667e-09 0)
(-6.02745e-11 -1.78356e-09 0)
(0 0 0)
(0 0 0)
(0 0 0)
(0 0 0)
(0 0 0)
(0 0 0)
(0 0 0)
(0 0 0)
(0 0 0)
(0 0 0)
(-1.22216e-11 -1.95328e-09 0)
(-1.97444e-11 -1.90944e-09 0)
(1.80702e-10 -2.16455e-09 0)
(4.32081e-13 -2.21542e-09 0)
(9.31442e-11 -1.99762e-09 0)
(6.74811e-11 -1.7816e-09 0)
(-1.64483e-11 -1.71927e-09 0)
(-5.94408e-11 -1.82159e-09 0)
(-4.56534e-11 -8.2313e-10 0)
(-4.89036e-11 -7.49175e-10 0)
(-2.16593e-10 -2.14266e-09 0)
(-6.95534e-11 -2.27961e-09 0)
(-3.03563e-10 -1.99784e-09 0)
(-3.71645e-11 -2.77207e-09 0)
(2.50413e-11 -1.50424e-09 0)
(-1.17048e-10 -2.16802e-09 0)
(-3.87718e-11 -2.0066e-09 0)
(-3.6792e-11 -1.93644e-09 0)
(4.93165e-11 -2.17761e-09 0)
(-1.21941e-11 -1.94136e-09 0)
(1.32531e-11 -1.9009e-09 0)
(-4.7793e-12 -1.96067e-09 0)
(-4.00211e-11 -2.01397e-09 0)
(-5.93134e-11 -1.93497e-09 0)
(-5.79482e-11 -1.69498e-09 0)
(-1.27376e-10 -1.85049e-09 0)
(-5.8653e-11 -1.98339e-09 0)
(-1.64591e-10 -2.43444e-09 0)
(-5.60269e-11 -1.84547e-09 0)
(-6.48972e-11 -1.8585e-09 0)
(1.26616e-11 -1.97165e-09 0)
(-2.81022e-10 -4.40173e-09 0)
(-3.34219e-11 -2.07214e-09 0)
(-7.62117e-12 -1.00849e-09 0)
(-6.53211e-11 -2.41748e-09 0)
(-2.17257e-11 -8.6847e-10 0)
(-8.88078e-12 -3.21688e-10 0)
(-4.25257e-11 -1.78827e-09 0)
(-5.22768e-11 -4.80173e-09 0)
(3.41525e-11 -1.81606e-09 0)
(2.98741e-12 -1.71606e-09 0)
(-5.21912e-12 -1.81426e-09 0)
(-4.73582e-11 -1.86191e-09 0)
(-1.69145e-10 -1.81547e-09 0)
(-1.35698e-10 -2.10908e-09 0)
(-2.68709e-11 -9.11729e-10 0)
(-2.51323e-11 -1.26949e-09 0)
(9.3521e-11 -3.90841e-09 0)
(3.36645e-11 -2.05747e-09 0)
(-3.39064e-12 -1.8184e-09 0)
(-9.34336e-12 -6.76656e-10 0)
(-9.09602e-12 -6.02865e-10 0)
(-7.79829e-12 -1.88409e-09 0)
(3.94643e-11 -1.95962e-09 0)
(2.39159e-11 -4.89378e-09 0)
(1.84441e-11 -1.94787e-09 0)
(-3.10529e-11 -2.12406e-09 0)
(-2.33896e-11 -1.94733e-09 0)
(-6.84983e-11 -1.99946e-09 0)
(-2.0528e-12 -2.03441e-09 0)
(-1.14765e-10 -2.11294e-09 0)
(-1.8463e-10 -2.26599e-09 0)
(-1.04748e-10 -1.91873e-09 0)
(-3.32813e-11 -1.74764e-09 0)
(-3.75873e-11 -1.59796e-09 0)
(0 0 0)
(0 0 0)
(0 0 0)
(0 0 0)
(0 0 0)
(0 0 0)
(0 0 0)
(0 0 0)
(0 0 0)
(0 0 0)
(-2.77434e-10 -1.91251e-09 0)
(-7.30024e-11 -1.92599e-09 0)
(1.10225e-10 -1.6111e-09 0)
(-1.29326e-11 -1.74109e-09 0)
(5.18896e-11 -1.76401e-09 0)
(1.68747e-10 -1.78258e-09 0)
(3.04738e-11 -1.82812e-09 0)
(-4.44142e-11 -1.75847e-09 0)
(-1.92798e-10 -2.37846e-09 0)
(0 0 0)
(-1.14666e-10 -2.08707e-09 0)
(-2.12855e-10 -2.23942e-09 0)
(-2.59658e-10 -1.97791e-09 0)
(-1.22329e-10 -2.36756e-09 0)
(-1.85815e-10 -1.94026e-09 0)
(-1.35607e-10 -1.9574e-09 0)
(-4.31121e-11 -2.15182e-09 0)
(5.22118e-11 -1.90724e-09 0)
(1.6874e-11 -2.00706e-09 0)
(1.21534e-11 -1.95836e-09 0)
(6.67544e-11 -1.90087e-09 0)
(5.75217e-11 -1.87651e-09 0)
(-6.00797e-11 -2.03867e-09 0)
(1.18831e-10 -4.74019e-09 0)
(1.35355e-11 -1.81032e-09 0)
(0 0 0)
(-1.06353e-10 -3.42037e-09 0)
(-9.50554e-11 -2.38403e-09 0)
(1.41334e-11 -1.9755e-09 0)
(7.49276e-11 -2.02347e-09 0)
(8.4646e-12 -1.91761e-09 0)
(-3.37272e-10 -4.32784e-09 0)
(-3.03328e-11 -1.84541e-09 0)
(0 0 0)
(5.01301e-11 -1.918e-09 0)
(6.6181e-12 -1.94517e-09 0)
(-6.15118e-11 -1.92284e-09 0)
(-2.79012e-11 -1.95006e-09 0)
(1.8146e-11 -1.93068e-09 0)
(1.01699e-10 -1.88353e-09 0)
(6.15541e-11 -1.92303e-09 0)
(-1.50907e-11 -1.74944e-09 0)
(-1.64264e-10 -1.77913e-09 0)
(-8.04881e-11 -1.81866e-09 0)
(-7.98434e-11 -1.93273e-09 0)
(-9.31781e-11 -1.96559e-09 0)
(-9.00259e-11 -2.05526e-09 0)
(-7.99966e-11 -2.32046e-09 0)
(-1.80418e-11 -2.59042e-09 0)
(5.84302e-11 -1.97266e-09 0)
(4.09318e-11 -1.89942e-09 0)
(0 0 0)
(7.44091e-11 -1.88128e-09 0)
(1.32217e-10 -1.92473e-09 0)
(3.10295e-11 -1.94297e-09 0)
(-9.61409e-12 -2.00884e-09 0)
(-1.75987e-10 -4.79872e-09 0)
(-1.43423e-10 -1.88534e-09 0)
(4.00878e-11 -1.9703e-09 0)
(-5.70438e-11 -2.13974e-09 0)
(-1.12879e-11 -2.1223e-09 0)
(0 0 0)
(3.84395e-11 -1.98135e-09 0)
(1.98088e-10 -2.07182e-09 0)
(-6.97234e-11 -1.84272e-09 0)
(-4.85438e-11 -1.85748e-09 0)
(0 0 0)
(0 0 0)
(0 0 0)
(0 0 0)
(0 0 0)
(0 0 0)
(0 0 0)
(0 0 0)
(0 0 0)
(-1.90974e-11 -3.60559e-10 0)
(-1.35425e-11 -1.69882e-09 0)
(8.24377e-11 -4.4891e-09 0)
(5.07283e-11 -1.81069e-09 0)
(1.38922e-10 -1.698e-09 0)
(1.53729e-10 -1.83069e-09 0)
(-1.38557e-12 -1.89837e-09 0)
(-1.75716e-10 -1.76233e-09 0)
(-1.94487e-10 -2.24025e-09 0)
(0 0 0)
(-3.97972e-11 -2.14702e-09 0)
(-3.35621e-11 -1.80639e-09 0)
(8.02284e-11 -1.83994e-09 0)
(1.43661e-10 -1.852e-09 0)
(2.13123e-11 -2.2269e-09 0)
(1.38496e-10 -3.7099e-09 0)
(-5.14662e-11 -2.48134e-09 0)
(-2.0045e-11 -2.15071e-09 0)
(3.66779e-12 -2.24684e-10 0)
(3.18942e-11 -1.55492e-09 0)
(1.64729e-10 -3.45418e-09 0)
(5.68352e-11 -2.4998e-09 0)
(2.00091e-10 -1.89562e-09 0)
(-8.53444e-12 -2.03135e-09 0)
(-2.01072e-11 -2.11756e-09 0)
(6.05769e-12 -2.30918e-09 0)
(1.87502e-11 -1.16852e-09 0)
(5.4971e-12 -2.00169e-09 0)
(-1.04783e-10 -2.24685e-09 0)
(-1.0001e-10 -5.05912e-09 0)
(-1.97043e-10 -1.96685e-09 0)
(-1.61297e-10 -1.75036e-09 0)
(-2.28647e-10 -1.71381e-09 0)
(-7.46965e-11 -1.80344e-09 0)
(7.62784e-11 -1.61284e-09 0)
(0 0 0)
(6.75612e-12 -1.74778e-09 0)
(5.93829e-12 -1.71914e-09 0)
(6.44343e-11 -1.74586e-09 0)
(1.4692e-10 -1.83521e-09 0)
(2.88901e-11 -1.99426e-09 0)
(-3.54816e-11 -1.91051e-09 0)
(-2.55968e-10 -1.76504e-09 0)
(-5.20315e-11 -1.81947e-09 0)
(-3.82929e-11 -1.82377e-09 0)
(-1.08044e-10 -3.49552e-09 0)
(-8.20959e-11 -3.05472e-09 0)
(0 0 0)
(-6.95624e-11 -2.12859e-09 0)
(-3.54048e-11 -1.98636e-09 0)
(2.98845e-11 -1.66247e-09 0)
(-1.18687e-11 -1.62811e-09 0)
(1.34273e-10 -1.76902e-09 0)
(7.91875e-11 -1.91487e-09 0)
(-1.69701e-12 -2.18955e-09 0)
(-1.15629e-10 -2.47426e-09 0)
(-7.61154e-11 -2.35514e-09 0)
(-9.21538e-12 -7.27759e-10 0)
(6.14951e-11 -3.26994e-09 0)
(0 0 0)
(5.30592e-11 -2.19804e-09 0)
(1.02084e-10 -2.11646e-09 0)
(9.149e-11 -2.04277e-09 0)
(-8.68776e-11 -2.02208e-09 0)
(-4.24579e-11 -1.8411e-09 0)
(2.33198e-12 -1.87887e-09 0)
(0 0 0)
(0 0 0)
(0 0 0)
(0 0 0)
(0 0 0)
(0 0 0)
(0 0 0)
(0 0 0)
(0 0 0)
(-2.6279e-11 -2.01724e-09 0)
(-9.45658e-11 -2.11927e-09 0)
(9.28218e-11 -1.95848e-09 0)
(1.23469e-10 -1.85365e-09 0)
(-1.02117e-11 -1.58724e-09 0)
(1.89665e-10 -5.27665e-09 0)
(-7.14381e-11 -2.45452e-09 0)
(0 0 0)
(-2.18321e-10 -2.10947e-09 0)
(-1.78089e-10 -2.3193e-09 0)
(-1.39329e-10 -1.91396e-09 0)
(1.31269e-10 -2.17589e-09 0)
(5.16542e-11 -1.79084e-09 0)
(1.80783e-11 -1.73227e-09 0)
(1.64433e-11 -1.87729e-09 0)
(-5.26511e-11 -5.00635e-09 0)
(-1.56234e-10 -1.8402e-09 0)
(-5.8892e-11 -1.84957e-09 0)
(2.47869e-12 -1.83386e-09 0)
(3.82236e-11 -1.31176e-09 0)
(1.15517e-10 -1.91271e-09 0)
(3.69477e-11 -1.91628e-09 0)
(1.59122e-10 -4.70856e-09 0)
(-5.57669e-12 -1.76957e-09 0)
(-2.54556e-11 -1.69904e-09 0)
(-2.35162e-12 -1.93561e-09 0)
(-3.35103e-11 -2.12237e-09 0)
(-4.74729e-11 -8.05797e-10 0)
(-2.60998e-10 -3.2687e-09 0)
(-1.4359e-10 -2.34628e-09 0)
(-1.23078e-10 -2.04779e-09 0)
(-1.82354e-10 -1.76826e-09 0)
(-9.88839e-11 -1.66508e-09 0)
(-8.87499e-11 -1.78327e-09 0)
(-1.4405e-11 -2.04668e-09 0)
(0 0 0)
(-7.26636e-13 -1.89416e-09 0)
(2.36031e-11 -2.12806e-09 0)
(1.12267e-11 -1.79653e-09 0)
(3.42982e-11 -1.8621e-09 0)
(-4.58965e-12 -2.00066e-09 0)
(-5.58618e-11 -2.44592e-09 0)
(-1.07423e-11 -3.79953e-10 0)
(-1.15986e-10 -3.33167e-09 0)
(-3.16252e-10 -1.58728e-09 0)
(-1.72936e-10 -2.67645e-09 0)
(-8.95702e-11 -3.16383e-09 0)
(6.22929e-11 -2.889e-09 0)
(-3.83472e-11 -2.23344e-09 0)
(0 0 0)
(-1.42291e-15 -1.68587e-09 0)
(-6.28238e-11 -1.63606e-09 0)
(1.65073e-10 -1.60767e-09 0)
(1.19054e-10 -1.9661e-09 0)
(-1.26381e-11 -2.25533e-09 0)
(3.28491e-11 -2.28686e-09 0)
(0 0 0)
(1.13224e-10 -2.0477e-09 0)
(-1.90843e-11 -1.82843e-09 0)
(1.5481e-10 -1.97159e-09 0)
(-7.1997e-11 -2.07627e-09 0)
(1.56782e-11 -9.70434e-10 0)
(2.98724e-11 -2.58515e-09 0)
(-6.85061e-11 -1.77864e-09 0)
(-4.67173e-11 -1.77514e-09 0)
(2.49748e-11 -1.77609e-09 0)
(0 0 0)
(0 0 0)
(0 0 0)
(0 0 0)
(0 0 0)
(0 0 0)
(0 0 0)
(0 0 0)
(0 0 0)
(-1.63615e-12 -2.03331e-09 0)
(2.64014e-13 -2.07305e-09 0)
(8.43374e-11 -2.83483e-09 0)
(7.15565e-11 -2.82731e-09 0)
(-8.58352e-11 -1.7342e-09 0)
(3.92207e-12 -2.24537e-09 0)
(-1.89978e-11 -2.38719e-09 0)
(-5.6803e-11 -2.28275e-09 0)
(0 0 0)
(-8.09074e-11 -2.10722e-09 0)
(-1.89883e-12 -1.7886e-09 0)
(3.72648e-11 -2.15224e-09 0)
(2.84712e-11 -1.88041e-09 0)
(-2.37377e-11 -1.97693e-09 0)
(-8.52641e-11 -2.10147e-09 0)
(1.3516e-10 -2.00014e-09 0)
(2.39284e-11 -5.27448e-10 0)
(-1.46209e-10 -2.78445e-09 0)
(-9.3731e-11 -1.62039e-09 0)
(-1.09764e-10 -1.92263e-09 0)
(-1.09934e-10 -4.41749e-09 0)
(-1.17154e-10 -1.74179e-09 0)
(-1.01813e-10 -1.84852e-09 0)
(8.23559e-12 -2.56955e-09 0)
(2.23724e-10 -3.68929e-09 0)
(3.38726e-12 -4.07678e-10 0)
(9.28752e-12 -1.40652e-09 0)
(-4.27306e-11 -2.00041e-09 0)
(-5.50602e-11 -2.05615e-09 0)
(-8.05753e-11 -2.26914e-09 0)
(-5.31192e-11 -2.34916e-09 0)
(-2.28339e-11 -1.88601e-09 0)
(-8.48798e-11 -1.81663e-09 0)
(-1.98192e-10 -3.84175e-09 0)
(2.67132e-11 -1.97935e-09 0)
(1.02542e-10 -1.9927e-09 0)
(1.59795e-11 -1.72204e-09 0)
(2.84943e-10 -1.79916e-09 0)
(1.10122e-10 -1.84802e-09 0)
(-5.28339e-12 -1.88278e-09 0)
(-5.31312e-11 -1.91876e-09 0)
(-2.09543e-11 -2.19776e-09 0)
(0 0 0)
(1.06484e-10 -1.89013e-09 0)
(-7.81546e-11 -1.8717e-09 0)
(-6.32471e-11 -1.86223e-09 0)
(2.76428e-12 -1.83927e-09 0)
(-2.28903e-10 -5.67401e-09 0)
(9.05173e-11 -2.12948e-09 0)
(3.19085e-11 -1.84327e-09 0)
(4.06757e-11 -1.68624e-09 0)
(2.52423e-11 -1.61322e-09 0)
(2.68242e-11 -1.62737e-09 0)
(4.09935e-11 -1.97458e-09 0)
(0 0 0)
(8.88661e-11 -2.15828e-09 0)
(1.13075e-10 -2.25547e-09 0)
(4.32012e-11 -2.07852e-09 0)
(3.70734e-11 -1.99625e-09 0)
(4.20209e-11 -2.06139e-09 0)
(-4.2252e-11 -2.20479e-09 0)
(0 0 0)
(-4.65857e-12 -2.04266e-09 0)
(4.63012e-11 -2.17482e-09 0)
(-7.44556e-11 -1.79609e-09 0)
(3.54285e-11 -1.84791e-09 0)
(1.64471e-11 -1.85084e-09 0)
(0 0 0)
(0 0 0)
(0 0 0)
(0 0 0)
(0 0 0)
(0 0 0)
(0 0 0)
(0 0 0)
(-1.2171e-11 -1.84929e-09 0)
(2.07823e-11 -1.70498e-09 0)
(3.27948e-11 -1.72548e-09 0)
(5.23276e-11 -1.89642e-09 0)
(-6.19909e-11 -2.01726e-09 0)
(-2.85216e-10 -1.86487e-09 0)
(-1.92097e-10 -2.13276e-09 0)
(-3.62896e-11 -2.15964e-09 0)
(-6.31387e-11 -2.13357e-09 0)
(-1.04775e-10 -1.84214e-09 0)
(4.22742e-12 -1.8472e-10 0)
(4.95124e-11 -1.57253e-09 0)
(-2.79473e-11 -1.8324e-09 0)
(-6.13828e-11 -2.19068e-09 0)
(-2.61329e-11 -2.13187e-09 0)
(4.63353e-11 -2.0343e-09 0)
(7.7984e-11 -2.00806e-09 0)
(6.92755e-12 -1.87197e-09 0)
(-9.5711e-12 -1.86279e-09 0)
(-1.43791e-10 -1.90285e-09 0)
(-2.94536e-10 -2.19863e-09 0)
(-2.69288e-10 -4.18364e-09 0)
(-1.30907e-10 -1.75154e-09 0)
(-5.24888e-11 -1.83849e-09 0)
(3.03356e-11 -1.98937e-09 0)
(8.01155e-12 -1.67506e-09 0)
(-1.13027e-10 -1.98817e-09 0)
(-1.41461e-10 -2.00011e-09 0)
(-1.01164e-10 -2.33943e-09 0)
(2.11801e-11 -2.28418e-09 0)
(1.33958e-11 -1.88856e-09 0)
(-8.80976e-11 -1.74949e-09 0)
(-4.43156e-11 -1.73818e-09 0)
(0 0 0)
(1.07686e-10 -1.73337e-09 0)
(-3.48567e-11 -1.46141e-09 0)
(1.96304e-10 -1.70063e-09 0)
(1.59693e-10 -1.732e-09 0)
(4.85277e-11 -1.58783e-09 0)
(-1.90662e-10 -1.70853e-09 0)
(-7.47807e-11 -1.80258e-09 0)
(0 0 0)
(-5.04882e-12 -1.92617e-09 0)
(2.09003e-10 -2.04818e-09 0)
(-1.22792e-11 -2.0164e-09 0)
(-4.53694e-11 -1.83941e-09 0)
(7.78225e-12 -1.91192e-09 0)
(-1.30613e-10 -4.24613e-09 0)
(2.67773e-11 -3.20363e-09 0)
(-4.38973e-11 -1.87858e-09 0)
(-8.82588e-11 -1.68152e-09 0)
(-2.92012e-11 -1.634e-09 0)
(-3.53943e-11 -1.36595e-09 0)
(-7.88937e-12 -1.64403e-09 0)
(9.44818e-11 -1.92663e-09 0)
(1.70087e-11 -6.15992e-10 0)
(3.38784e-11 -1.10999e-09 0)
(6.51676e-12 -2.18384e-09 0)
(-4.77926e-11 -1.95772e-09 0)
(-3.48276e-11 -1.94421e-09 0)
(6.08053e-11 -4.78118e-09 0)
(0 0 0)
(1.84755e-11 -1.97405e-09 0)
(1.48337e-10 -1.87719e-09 0)
(2.39063e-11 -2.8297e-09 0)
(-1.88519e-10 -3.03226e-09 0)
(0 0 0)
(0 0 0)
(0 0 0)
(0 0 0)
(0 0 0)
(0 0 0)
(0 0 0)
(0 0 0)
(0 0 0)
(0 0 0)
(1.39008e-10 -1.76014e-09 0)
(9.1742e-11 -1.69839e-09 0)
(2.90834e-10 -4.87052e-09 0)
(-4.7291e-11 -2.06301e-09 0)
(-3.25455e-10 -2.05731e-09 0)
(-8.93817e-11 -2.09916e-09 0)
(2.41423e-13 -1.9949e-09 0)
(3.1547e-11 -1.94994e-09 0)
(-3.03056e-11 -1.97243e-09 0)
(-1.39692e-12 -1.86492e-09 0)
(-4.73308e-11 -2.15128e-09 0)
(-1.50185e-10 -1.86171e-09 0)
(5.48703e-12 -1.92041e-09 0)
(-1.8048e-11 -1.89994e-09 0)
(0 0 0)
(1.65196e-11 -2.24373e-09 0)
(2.83121e-11 -1.90341e-09 0)
(7.57852e-11 -2.92721e-09 0)
(1.59956e-11 -7.10179e-10 0)
(0 0 0)
(0 0 0)
(0 0 0)
(2.71912e-11 -2.01833e-09 0)
(0 0 0)
(-1.40811e-10 -5.13582e-09 0)
(-3.66265e-11 -5.05225e-10 0)
(-9.6655e-11 -1.19166e-09 0)
(-2.17605e-10 -1.92031e-09 0)
(2.166e-11 -2.1009e-09 0)
(1.18493e-10 -1.91537e-09 0)
(-1.28026e-10 -1.98058e-09 0)
(-7.69483e-11 -1.91764e-09 0)
(-1.54195e-11 -1.73039e-09 0)
(-3.35552e-11 -1.71622e-09 0)
(-2.99233e-11 -4.02577e-09 0)
(1.96764e-10 -1.90312e-09 0)
(-5.65188e-11 -1.9031e-09 0)
(-2.56261e-10 -1.83147e-09 0)
(-9.64844e-11 -1.91796e-09 0)
(-6.31087e-11 -1.96758e-09 0)
(0 0 0)
(2.81511e-11 -2.13692e-09 0)
(2.46538e-10 -4.89254e-09 0)
(1.26916e-11 -1.86152e-09 0)
(-7.28817e-11 -1.83128e-09 0)
(-5.29809e-11 -1.19379e-09 0)
(-1.38952e-10 -2.86514e-09 0)
(-5.84277e-11 -2.45058e-09 0)
(2.01731e-11 -1.83852e-09 0)
(6.50183e-11 -1.57179e-09 0)
(7.43669e-11 -1.61612e-09 0)
(1.31241e-11 -1.6484e-09 0)
(2.11244e-11 -1.75006e-09 0)
(4.45336e-11 -1.94478e-09 0)
(0 0 0)
(2.2309e-11 -2.16191e-09 0)
(-3.1795e-11 -2.13273e-09 0)
(-5.05737e-11 -1.97491e-09 0)
(-1.17358e-10 -4.13574e-09 0)
(-1.76341e-11 -1.7635e-09 0)
(2.06238e-10 -1.94376e-09 0)
(2.48839e-10 -1.89788e-09 0)
(1.68437e-11 -1.91815e-09 0)
(-7.7143e-11 -1.90686e-09 0)
(-2.14674e-10 -1.8724e-09 0)
(0 0 0)
(0 0 0)
(0 0 0)
(0 0 0)
(0 0 0)
(0 0 0)
(0 0 0)
(0 0 0)
(0 0 0)
(1.64523e-10 -1.82307e-09 0)
(1.72095e-10 -1.94111e-09 0)
(-1.87003e-11 -1.90762e-09 0)
(-4.13427e-11 -2.13391e-09 0)
(8.04447e-12 -3.74983e-10 0)
(2.85006e-11 -1.91584e-09 0)
(-1.27101e-10 -4.19761e-09 0)
(-1.11274e-10 -1.83411e-09 0)
(-2.47168e-11 -1.82812e-09 0)
(3.15304e-11 -1.84265e-09 0)
(7.36215e-13 -1.89305e-09 0)
(-1.0698e-10 -2.02987e-09 0)
(3.54666e-11 -2.07777e-09 0)
(-4.15427e-11 -1.98998e-09 0)
(-1.05992e-10 -1.69547e-09 0)
(-4.56494e-11 -1.9104e-09 0)
(-1.79811e-11 -1.89514e-09 0)
(2.84695e-11 -1.8561e-09 0)
(9.3569e-11 -1.75587e-09 0)
(5.53079e-12 -4.47694e-09 0)
(-4.26549e-11 -1.75966e-09 0)
(4.40185e-12 -1.73042e-09 0)
(-3.77665e-11 -1.7231e-09 0)
(-5.03992e-12 -1.8228e-09 0)
(4.2014e-11 -1.99546e-09 0)
(-1.9463e-10 -2.18349e-09 0)
(-2.56746e-10 -5.0959e-09 0)
(-2.07596e-10 -2.11809e-09 0)
(0 0 0)
(-1.81423e-11 -1.89363e-09 0)
(1.56923e-10 -2.11465e-09 0)
(2.42287e-10 -2.36281e-09 0)
(3.32134e-11 -3.21736e-09 0)
(-1.40518e-10 -2.42351e-09 0)
(-1.65393e-11 -1.75277e-09 0)
(-2.97456e-12 -4.34067e-09 0)
(3.91263e-11 -1.82043e-09 0)
(-5.17077e-11 -1.81046e-09 0)
(-1.87439e-11 -6.47183e-10 0)
(-2.05874e-11 -6.90913e-10 0)
(-2.38416e-11 -1.76218e-09 0)
(2.74076e-12 -2.38939e-09 0)
(1.31793e-10 -3.84885e-09 0)
(-6.59533e-11 -1.84467e-09 0)
(6.53097e-11 -1.95545e-09 0)
(4.6419e-11 -2.16523e-09 0)
(-2.34635e-12 -4.85377e-11 0)
(-1.21593e-10 -2.1003e-09 0)
(-2.23517e-10 -2.26527e-09 0)
(1.03944e-10 -2.09411e-09 0)
(1.16194e-10 -1.89593e-09 0)
(1.84629e-10 -3.31772e-09 0)
(1.4933e-11 -2.10082e-09 0)
(-4.97546e-11 -1.71333e-09 0)
(7.08575e-11 -2.04689e-09 0)
(2.51131e-11 -2.29382e-09 0)
(1.74598e-11 -2.16417e-09 0)
(4.53544e-11 -2.08944e-09 0)
(0 0 0)
(0 0 0)
(0 0 0)
(2.62362e-10 -4.05474e-09 0)
(1.34632e-10 -1.73714e-09 0)
(-2.83169e-11 -1.98451e-09 0)
(-5.43401e-11 -1.98e-09 0)
(0 0 0)
(0 0 0)
(0 0 0)
(0 0 0)
(0 0 0)
(0 0 0)
(0 0 0)
(0 0 0)
(0 0 0)
(0 0 0)
(-2.30818e-10 -1.89649e-09 0)
(-2.9057e-11 -1.65526e-09 0)
(2.97966e-11 -1.872e-09 0)
(-4.91182e-11 -1.95465e-09 0)
(2.16328e-10 -2.09239e-09 0)
(1.47334e-10 -2.29615e-09 0)
(8.22044e-11 -2.01483e-09 0)
(-8.20185e-11 -1.91608e-09 0)
(-8.30569e-11 -1.86418e-09 0)
(-1.27301e-10 -1.72714e-09 0)
(-4.37341e-11 -1.95995e-09 0)
(9.23596e-12 -1.82677e-09 0)
(4.75638e-11 -1.84747e-09 0)
(-7.64661e-11 -1.92661e-09 0)
(-7.75578e-11 -1.83405e-09 0)
(-1.89782e-10 -2.01263e-09 0)
(-8.36954e-11 -1.96966e-09 0)
(2.37481e-11 -1.7984e-09 0)
(5.57382e-11 -2.01202e-09 0)
(0 0 0)
(1.18164e-11 -4.1069e-09 0)
(-6.04673e-12 -2.15705e-09 0)
(9.19766e-11 -3.26208e-09 0)
(4.55668e-11 -1.89106e-09 0)
(-8.40252e-11 -2.21506e-09 0)
(-1.51478e-10 -2.22127e-09 0)
(0 0 0)
(7.14054e-11 -2.04747e-09 0)
(4.9265e-11 -1.81177e-09 0)
(2.87641e-10 -2.02133e-09 0)
(1.21859e-10 -1.97584e-09 0)
(3.12692e-11 -1.97019e-09 0)
(-4.54624e-11 -1.89121e-09 0)
(-1.48774e-10 -1.90205e-09 0)
(-9.53957e-11 -1.97816e-09 0)
(-1.87525e-11 -1.88108e-09 0)
(-3.7117e-10 -1.89061e-09 0)
(-1.414e-10 -1.84801e-09 0)
(-3.18566e-11 -1.9194e-09 0)
(4.11317e-11 -1.91675e-09 0)
(6.79368e-11 -1.81629e-09 0)
(8.44519e-11 -1.87949e-09 0)
(-3.47601e-11 -4.64021e-09 0)
(-4.19553e-11 -1.81894e-09 0)
(-5.78029e-12 -1.83669e-09 0)
(-5.36911e-11 -2.32577e-09 0)
(0 0 0)
(-1.33489e-10 -2.01703e-09 0)
(5.05028e-12 -2.01935e-09 0)
(1.83175e-10 -1.73583e-09 0)
(2.32846e-10 -1.76896e-09 0)
(2.1662e-10 -1.80462e-09 0)
(6.26014e-11 -1.81416e-09 0)
(-2.16139e-11 -2.68501e-09 0)
(-2.44674e-11 -9.67994e-10 0)
(-1.54895e-10 -3.74115e-09 0)
(-6.48369e-12 -2.90152e-09 0)
(5.58613e-11 -1.97155e-09 0)
(1.2307e-10 -1.96275e-09 0)
(1.75135e-10 -3.17016e-09 0)
(2.20949e-10 -2.55985e-09 0)
(2.41893e-10 -1.77895e-09 0)
(3.81778e-11 -2.0861e-09 0)
(0 0 0)
(-5.32137e-11 -1.92565e-09 0)
(0 0 0)
(0 0 0)
(0 0 0)
(0 0 0)
(0 0 0)
(0 0 0)
(0 0 0)
(0 0 0)
(0 0 0)
(0 0 0)
(-3.25425e-10 -2.03776e-09 0)
(-2.58997e-10 -1.96959e-09 0)
(6.03432e-11 -1.9784e-09 0)
(1.10595e-10 -2.05338e-09 0)
(1.5001e-12 -2.04201e-09 0)
(-4.68616e-11 -1.70417e-09 0)
(1.21115e-11 -2.08854e-09 0)
(-4.64256e-12 -1.96344e-09 0)
(-4.54981e-11 -1.87609e-09 0)
(-6.32627e-11 -1.69725e-09 0)
(-5.45674e-11 -1.77875e-09 0)
(0 0 0)
(-1.48545e-10 -5.00257e-09 0)
(-7.28193e-12 -1.88387e-10 0)
(-7.90442e-11 -1.72613e-09 0)