/*--------------------------------*- C++ -*----------------------------------*\
  =========                 |
  \\      /  F ield         | OpenFOAM: The Open Source CFD Toolbox
   \\    /   O peration     | Website:  https://openfoam.org
    \\  /    A nd           | Version:  12
     \\/     M anipulation  |
\*---------------------------------------------------------------------------*/
FoamFile
{
    format      ascii;
    class       volScalarField::Internal;
    location    "0.2";
    object      cloud:UCoeff;
}
// * * * * * * * * * * * * * * * * * * * * * * * * * * * * * * * * * * * * * //

dimensions      [1 0 0 0 0 0 0];

value           nonuniform List<scalar> 
3750
(
2.04556e-08
3.94024e-08
0
5.39549e-08
1.32315e-07
5.68083e-08
5.57908e-08
5.41732e-08
5.63659e-08
5.86094e-08
0
5.82261e-08
5.66154e-08
5.66131e-08
7.56882e-08
1.1278e-07
5.5908e-08
5.68469e-08
5.37463e-08
5.46937e-08
5.81011e-08
5.79008e-08
5.63063e-08
1.36168e-07
5.49826e-08
5.69811e-08
5.77025e-08
5.66109e-08
5.84112e-08
5.96953e-08
4.48792e-10
5.54644e-08
5.46352e-08
1.39293e-07
5.47824e-08
5.35618e-08
5.53264e-08
7.24923e-08
4.00519e-08
5.81161e-08
5.93191e-08
5.88689e-08
0
5.43665e-08
5.61324e-08
5.69223e-08
1.42715e-07
1.98617e-08
1.8347e-08
5.69791e-08
5.84017e-08
6.03541e-08
6.09417e-08
5.53771e-08
5.48695e-08
5.52983e-08
9.31125e-08
8.64395e-08
5.78222e-08
5.90826e-08
6.01786e-08
0
5.77062e-08
5.65008e-08
5.74667e-08
5.62104e-08
5.68833e-08
0
5.65808e-08
5.42132e-08
0
0
0
0
0
1.38245e-07
5.26448e-08
5.57269e-08
5.48481e-08
5.46681e-08
5.55309e-08
5.59114e-08
5.69453e-08
5.73707e-08
4.8529e-08
5.1663e-08
5.69763e-08
5.43555e-08
5.404e-08
5.75007e-08
2.02098e-08
1.94675e-08
1.03755e-07
7.36847e-08
7.05279e-08
1.19021e-07
8.86288e-09
3.96578e-08
4.8078e-08
5.23538e-08
5.49836e-08
5.65163e-08
5.51116e-08
5.30673e-08
1.33605e-07
5.45289e-08
5.59656e-08
5.71108e-08
5.59646e-08
5.59443e-08
0
5.16055e-08
5.45614e-08
5.56389e-08
5.6309e-08
5.63165e-08
5.41017e-08
5.29633e-08
5.73061e-08
5.5253e-08
5.73025e-08
5.74578e-08
1.35355e-07
5.23469e-08
5.1124e-08
5.81513e-08
1.45478e-07
5.95323e-08
0
5.32452e-08
4.60714e-08
4.98086e-08
5.51944e-08
0
5.53347e-08
5.70277e-08
5.76363e-08
5.41233e-08
1.29334e-07
5.52892e-08
5.60578e-08
0
0
0
0
0
0
0
0
0
1.17121e-07
5.54364e-08
5.44329e-08
5.47667e-08
5.38889e-08
5.40646e-08
5.48758e-08
5.56355e-08
5.53649e-08
5.56554e-08
5.90595e-08
5.83002e-08
5.44069e-08
5.73905e-08
5.64408e-08
5.4995e-08
5.60293e-08
5.62942e-08
5.58914e-08
5.61219e-08
5.61807e-08
5.62825e-08
5.40499e-08
5.42197e-08
5.4264e-08
5.70064e-08
5.781e-08
5.84752e-08
5.63188e-08
5.63226e-08
5.50487e-08
5.66558e-08
5.67308e-08
5.7074e-08
5.39893e-08
5.28286e-08
5.23143e-08
5.873e-08
2.27825e-08
5.43845e-08
8.42384e-08
5.26302e-08
5.33336e-08
1.34267e-07
5.56082e-08
5.59176e-08
5.90358e-08
5.70435e-08
5.40551e-08
1.21014e-08
1.11101e-07
5.90815e-08
0
5.81266e-08
5.45579e-08
5.62186e-08
5.38313e-08
5.4469e-08
1.37735e-07
5.51556e-08
1.42003e-07
5.50825e-08
5.41772e-08
0
5.53768e-08
0
0
0
0
0
0
0
0
0
0
5.57896e-08
5.63773e-08
5.39838e-08
5.53184e-08
5.62192e-08
5.37845e-08
5.40347e-08
6.38214e-08
1.21122e-07
5.50125e-08
5.64581e-08
5.64672e-08
5.48973e-08
5.84164e-08
0
1.29872e-07
5.32031e-08
5.58633e-08
5.66946e-08
5.60363e-08
5.69441e-08
5.28014e-08
5.36552e-08
5.35269e-08
5.21147e-08
5.23275e-08
5.91749e-08
0
5.54679e-08
5.31566e-08
5.60327e-08
5.81869e-08
5.75271e-08
5.76237e-08
5.39383e-08
5.14795e-08
5.34334e-08
5.59204e-08
5.64597e-08
7.2939e-08
1.10213e-07
5.51504e-08
5.35796e-08
5.27086e-08
5.45073e-08
5.78133e-08
6.07598e-08
5.64659e-08
4.98465e-08
0
1.42855e-07
5.84691e-08
0
5.61056e-08
5.42925e-08
5.59313e-08
5.72004e-08
5.55087e-08
5.52611e-08
1.3828e-07
5.31853e-08
5.58989e-08
5.47648e-08
5.41222e-08
5.44985e-08
0
0
0
0
0
0
0
0
0
0
5.64398e-08
5.55281e-08
5.67984e-08
5.70814e-08
5.52502e-08
5.48175e-08
4.94103e-08
5.05629e-08
5.52196e-08
9.02531e-08
9.66155e-08
5.78522e-08
5.44992e-08
5.6574e-08
5.68004e-08
5.4267e-08
0
5.64725e-08
5.63759e-08
5.39558e-08
5.21553e-08
0
5.30776e-08
5.63326e-08
5.30159e-08
1.39092e-07
0
5.73361e-08
5.61264e-08
5.59831e-08
5.64594e-08
5.64151e-08
5.74573e-08
5.77746e-08
5.41793e-08
5.39617e-08
5.344e-08
5.43212e-08
1.42337e-07
5.55484e-08
5.0557e-08
5.70692e-08
0
5.25441e-08
5.56755e-08
6.06941e-08
6.02196e-08
5.68916e-08
5.53773e-08
5.57622e-08
5.66385e-08
5.60173e-08
5.74458e-08
6.39861e-08
8.24495e-08
1.00816e-07
1.6548e-08
2.68892e-08
5.46522e-08
0
5.43672e-08
5.38241e-08
5.55123e-08
5.49169e-08
5.51728e-08
0
0
0
0
0
0
0
0
0
0
5.61397e-08
5.57226e-08
5.88971e-08
5.49201e-08
5.58693e-08
5.45152e-08
5.28622e-08
5.42172e-08
5.54778e-08
5.63329e-08
5.6741e-08
5.7743e-08
5.61645e-08
5.46794e-08
9.14877e-08
2.44405e-08
5.59345e-08
5.86228e-08
2.51563e-08
1.03582e-08
5.51512e-08
5.56445e-08
5.5103e-08
5.58423e-08
5.58213e-08
5.66928e-08
5.76941e-08
5.77539e-08
5.61886e-08
5.63231e-08
5.67903e-08
5.64899e-08
5.63734e-08
5.70647e-08
5.62469e-08
5.60386e-08
5.40781e-08
5.28699e-08
1.4149e-07
5.12991e-08
5.08312e-08
0
7.56507e-08
1.09404e-07
5.97857e-08
0
5.9305e-08
5.86502e-08
5.82588e-08
5.85662e-08
5.59806e-08
5.5397e-08
5.60838e-08
1.10668e-07
7.21448e-08
2.66561e-08
2.16558e-08
5.01011e-08
5.38465e-08
1.31349e-07
1.30249e-07
6.00804e-08
1.32816e-07
5.41098e-08
5.43966e-08
0
0
0
0
0
0
0
0
0
0
5.62846e-08
5.58025e-08
5.86201e-08
5.90704e-08
5.67911e-08
5.43772e-08
5.36445e-08
5.48289e-08
2.1715e-08
2.00907e-08
5.84278e-08
5.97376e-08
5.70186e-08
7.50471e-08
4.1484e-08
5.86104e-08
5.6868e-08
5.61028e-08
5.86838e-08
5.61538e-08
5.57072e-08
5.6365e-08
5.69485e-08
5.60932e-08
5.33716e-08
5.51932e-08
5.66223e-08
7.0326e-08
5.27675e-08
4.87727e-08
5.64854e-08
1.35227e-07
5.7571e-08
2.87861e-08
7.22694e-08
2.49575e-08
9.72872e-09
5.42803e-08
1.3944e-07
5.4758e-08
5.36064e-08
5.47346e-08
5.52785e-08
5.4838e-08
5.80057e-08
2.53189e-08
3.67501e-08
1.09245e-07
5.74146e-08
5.47815e-08
1.97859e-08
1.82157e-08
5.552e-08
5.63579e-08
1.40343e-07
5.62258e-08
5.81203e-08
5.62205e-08
5.68001e-08
5.71644e-08
5.80332e-08
5.96648e-08
5.59357e-08
5.39759e-08
5.22128e-08
0
0
0
0
0
0
0
0
0
0
5.60571e-08
5.59995e-08
5.24119e-08
5.38972e-08
5.41699e-08
5.44652e-08
5.48944e-08
5.41039e-08
6.08008e-08
0
5.77605e-08
5.94209e-08
5.67383e-08
6.06466e-08
5.62391e-08
5.63808e-08
5.84136e-08
5.57851e-08
5.68704e-08
5.63402e-08
5.57194e-08
5.54451e-08
5.72197e-08
1.38821e-07
5.46904e-08
0
1.0426e-07
7.33361e-08
5.65275e-08
5.70618e-08
5.58918e-08
1.34668e-07
5.50895e-08
0
5.59034e-08
5.61953e-08
5.59603e-08
5.62509e-08
5.60368e-08
5.55443e-08
5.59624e-08
5.39937e-08
5.44213e-08
5.48049e-08
5.60766e-08
5.6443e-08
5.74087e-08
6.01554e-08
6.27949e-08
5.65055e-08
5.56952e-08
0
5.5505e-08
5.60204e-08
5.61737e-08
5.68888e-08
1.39434e-07
5.55945e-08
5.64747e-08
5.82907e-08
5.80996e-08
0
5.65947e-08
5.76655e-08
5.50713e-08
5.52295e-08
0
0
0
0
0
0
0
0
0
1.08558e-08
5.34055e-08
1.36183e-07
5.47022e-08
5.34622e-08
5.49937e-08
5.56788e-08
5.42424e-08
5.94111e-08
0
5.8363e-08
5.46489e-08
5.50449e-08
5.52235e-08
6.26475e-08
1.04812e-07
7.34674e-08
5.83989e-08
6.35528e-09
4.46973e-08
1.01427e-07
7.87289e-08
5.57655e-08
5.71318e-08
6.3229e-08
6.94428e-08
3.32148e-08
5.68118e-08
6.20086e-08
1.38643e-07
5.65406e-08
5.4089e-08
5.37558e-08
5.46291e-08
5.24093e-08
0
5.39735e-08
5.36424e-08
5.39657e-08
5.50383e-08
5.6733e-08
5.58169e-08
5.43855e-08
5.48022e-08
5.48469e-08
1.01681e-07
8.46084e-08
0
5.81778e-08
5.66485e-08
5.29806e-08
5.25702e-08
5.42775e-08
5.58795e-08
5.88014e-08
6.16955e-08
6.05029e-08
2.08289e-08
9.27002e-08
0
6.06839e-08
5.62702e-08
5.72761e-08
5.7052e-08
5.50437e-08
5.54616e-08
0
0
0
0
0
0
0
0
0
5.69813e-08
5.80892e-08
5.63654e-08
5.52256e-08
5.2079e-08
1.44123e-07
6.14886e-08
0
5.80834e-08
6.01991e-08
5.59077e-08
5.87007e-08
5.44769e-08
5.37953e-08
5.54441e-08
1.41456e-07
5.5103e-08
5.5144e-08
5.49564e-08
4.86125e-08
5.58762e-08
5.5881e-08
1.38484e-07
5.42245e-08
5.34092e-08
5.60902e-08
5.81025e-08
2.24884e-08
9.11677e-08
6.04448e-08
5.73479e-08
5.4317e-08
5.30424e-08
5.44071e-08
5.72965e-08
0
5.56318e-08
5.81605e-08
5.45333e-08
5.52776e-08
5.68001e-08
6.13984e-08
1.12803e-08
1.06856e-07
5.24568e-08
7.71086e-08
8.95799e-08
7.70478e-08
5.92594e-08
0
5.32527e-08
5.26788e-08
5.2427e-08
5.64636e-08
5.94796e-08
5.98033e-08
0
5.73408e-08
5.48964e-08
5.65506e-08
5.76255e-08
2.65233e-08
7.90097e-08
5.43439e-08
5.42958e-08
5.43016e-08
0
0
0
0
0
0
0
0
0
5.71525e-08
5.75779e-08
8.65692e-08
9.23176e-08
5.38419e-08
5.93777e-08
6.08117e-08
5.97677e-08
0
5.79571e-08
5.44428e-08
5.84167e-08
5.54812e-08
5.65441e-08
5.7898e-08
5.68445e-08
1.65756e-08
9.16537e-08
5.25095e-08
6.05071e-08
1.29534e-07
5.39502e-08
5.51531e-08
7.51511e-08
1.12426e-07
1.10109e-08
3.83109e-08
5.68025e-08
5.74047e-08
5.96351e-08
6.04369e-08
5.55424e-08
5.4784e-08
1.2935e-07
5.65708e-08
5.67429e-08
5.36768e-08
5.48188e-08
5.51529e-08
5.55053e-08
5.59125e-08
5.88882e-08
0
5.56204e-08
5.53999e-08
5.52876e-08
5.50176e-08
1.47881e-07
5.81954e-08
5.50652e-08
5.32632e-08
5.23936e-08
5.25635e-08
5.65216e-08
0
5.84957e-08
5.95105e-08
5.76405e-08
5.67561e-08
5.74576e-08
5.89648e-08
0
5.72531e-08
5.8654e-08
5.45459e-08
5.51186e-08
5.51485e-08
0
0
0
0
0
0
0
0
5.51305e-08
5.3478e-08
5.37195e-08
5.56649e-08
5.69903e-08
5.55485e-08
5.82998e-08
5.84938e-08
5.82278e-08
5.50833e-08
5.33378e-09
4.59294e-08
5.49426e-08
5.88225e-08
5.82008e-08
5.71689e-08
5.68968e-08
5.53847e-08
5.52821e-08
5.5789e-08
6.40587e-08
1.2688e-07
5.40738e-08
5.5017e-08
5.66804e-08
5.31265e-08
5.66998e-08
5.68486e-08
6.03541e-08
5.97758e-08
5.55699e-08
5.40191e-08
5.38696e-08
0
5.38466e-08
5.05351e-08
5.35586e-08
5.38764e-08
5.20946e-08
5.36428e-08
5.46199e-08
0
5.59866e-08
5.7426e-08
5.69709e-08
5.50254e-08
5.58289e-08
1.11841e-07
8.30599e-08
5.54636e-08
5.32287e-08
5.26426e-08
4.932e-08
5.27596e-08
5.60168e-08
1.62946e-08
2.96912e-08
5.87429e-08
5.63392e-08
5.61879e-08
1.39223e-07
0
5.65121e-08
5.55084e-08
8.51029e-08
9.63995e-08
0
0
0
0
0
0
0
0
0
0
5.41793e-08
5.34292e-08
1.40182e-07
5.74766e-08
5.76835e-08
5.7875e-08
5.67378e-08
5.62504e-08
5.64961e-08
5.53056e-08
5.84091e-08
5.53379e-08
5.59227e-08
5.5697e-08
0
5.93613e-08
5.57369e-08
8.84079e-08
2.11744e-08
0
0
0
5.69932e-08
0
1.42761e-07
1.37149e-08
3.30419e-08
5.60576e-08
5.78744e-08
5.59075e-08
5.66275e-08
5.59093e-08
5.37735e-08
5.36119e-08
1.31314e-07
5.58436e-08
5.57405e-08
5.51319e-08
5.59226e-08
5.64514e-08
0
6.20762e-08
1.35403e-07
5.52679e-08
5.49439e-08
3.21958e-08
7.42282e-08
6.14459e-08
5.50096e-08
5.19071e-08
5.24469e-08
5.28118e-08
5.40019e-08
5.61967e-08
0
5.85158e-08
5.82114e-08
5.65276e-08
1.32527e-07
5.41561e-08
5.63002e-08
5.58539e-08
5.58986e-08
5.57903e-08
5.55272e-08
0
0
0
0
0
0
0
0
0
5.49184e-08
5.62346e-08
5.57822e-08
5.82252e-08
1.01739e-08
5.32019e-08
1.22317e-07
5.49974e-08
5.48934e-08
5.50586e-08
5.56195e-08
5.71462e-08
5.76312e-08
6.03492e-08
4.97976e-08
5.58179e-08
5.56434e-08
5.52092e-08
5.40962e-08
1.36111e-07
5.4117e-08
5.37731e-08
5.3693e-08
5.48317e-08
5.67488e-08
5.88307e-08
1.42402e-07
5.81625e-08
0
5.56269e-08
5.80797e-08
6.0689e-08
9.94084e-08
7.70639e-08
5.40323e-08
1.34652e-07
5.48092e-08
5.46997e-08
1.87429e-08
2.06332e-08
5.41419e-08
7.19891e-08
1.15534e-07
5.50915e-08
5.632e-08
5.85543e-08
1.30938e-09
5.6446e-08
5.96937e-08
5.78292e-08
5.56912e-08
1.0386e-07
6.9336e-08
5.35828e-08
5.73113e-08
5.98729e-08
5.85386e-08
5.77572e-08
0
0
0
1.31682e-07
5.39114e-08
5.66273e-08
5.65841e-08
0
0
0
0
0
0
0
0
0
0
5.58138e-08
5.28951e-08
5.53874e-08
5.6306e-08
5.79016e-08
5.99437e-08
5.69717e-08
5.58943e-08
5.5318e-08
5.37895e-08
5.63626e-08
5.48762e-08
5.51167e-08
5.60081e-08
5.49773e-08
5.70265e-08
5.64827e-08
5.45562e-08
5.69315e-08
0
1.3219e-07
6.91761e-08
1.09434e-07
5.56031e-08
5.90821e-08
5.91835e-08
0
5.7318e-08
5.47141e-08
5.72435e-08
5.65717e-08
5.64718e-08
5.56052e-08
5.57842e-08
5.65811e-08
5.54872e-08
5.59944e-08
5.51769e-08
5.59144e-08
5.58873e-08
5.47726e-08
5.54897e-08
1.37787e-07
5.47929e-08
5.49884e-08
6.02018e-08
0
5.70249e-08
5.70022e-08
5.39483e-08
5.43935e-08
5.47727e-08
5.4746e-08
8.15049e-08
2.82264e-08
1.03864e-07
8.37434e-08
5.64926e-08
5.64302e-08
9.41682e-08
8.47046e-08
5.45206e-08
5.77201e-08
0
5.59882e-08
0
0
0
0
0
0
0
0
0
0
5.74781e-08
5.6648e-08
5.65687e-08
5.73997e-08
5.72459e-08
5.34755e-08
5.77426e-08
5.63954e-08
5.54364e-08
5.34004e-08
5.43396e-08
0
1.41437e-07
5.17521e-09
4.8091e-08
7.95219e-08
1.06742e-07
5.41036e-08
5.68616e-08
0
5.42712e-08
5.5536e-08
5.49829e-08
5.83661e-08
6.04709e-08
5.84532e-08
5.58065e-08
5.64465e-08
1.36794e-07
5.5717e-08
5.67864e-08
6.75294e-09
4.22469e-08
5.49944e-08
5.53216e-08
0
5.44024e-08
5.49299e-08
5.44584e-08
1.29742e-07
5.42706e-08
1.3983e-07
5.75689e-08
5.38044e-08
5.41229e-08
5.98724e-08
0
5.69489e-08
5.41448e-08
5.5625e-08
5.57585e-08
5.47981e-08
9.63903e-08
3.3146e-08
1.17128e-07
5.70438e-08
5.63881e-08
5.61615e-08
5.52958e-08
1.37735e-07
5.44242e-08
5.73173e-08
5.78092e-08
1.51105e-08
2.87628e-08
0
0
0
0
0
0
0
0
0
0
5.67905e-08
5.61238e-08
5.89437e-08
5.68361e-08
5.5614e-08
5.64136e-08
0
5.778e-08
5.5191e-08
8.23378e-08
9.43085e-08
5.36183e-08
6.0226e-08
5.80893e-08
2.89634e-08
7.18237e-08
5.43425e-08
5.34013e-08
5.3852e-08
5.70555e-08
0
5.77348e-08
5.68763e-08
5.45753e-08
5.63275e-08
5.91429e-08
5.65169e-08
1.42493e-07
5.47286e-08
5.81996e-08
0
5.69836e-08
5.44606e-08
5.45808e-08
5.89402e-08
0
5.74511e-08
5.47661e-08
1.34229e-07
5.2774e-08
5.59618e-08
8.46264e-08
2.88037e-08
5.58047e-08
5.55888e-08
5.66675e-08
1.38539e-07
5.7204e-08
5.5604e-08
5.4906e-08
5.67911e-08
5.64591e-08
5.54251e-08
5.53928e-08
5.63174e-08
1.41898e-07
5.42685e-08
5.44694e-08
5.56032e-08
5.74094e-08
5.49885e-08
5.53804e-08
5.83522e-08
5.76248e-08
5.56897e-08
0
0
0
0
0
0
0
0
0
0
5.66258e-08
5.1403e-08
5.59751e-08
5.57235e-08
5.73298e-08
5.79621e-08
1.99782e-08
1.9357e-08
5.52134e-08
5.26397e-08
5.39652e-08
5.53124e-08
1.06332e-07
7.88294e-08
5.43389e-08
5.55998e-08
5.643e-08
5.44713e-08
5.3317e-08
5.60159e-08
5.61637e-08
5.167e-08
5.53037e-08
5.37892e-08
5.91128e-08
6.01021e-08
5.96506e-08
5.31764e-08
5.29705e-08
5.79906e-08
2.47791e-08
1.1705e-08
5.53715e-08
5.44853e-08
5.50299e-08
5.51361e-08
5.708e-08
5.62667e-08
5.46679e-08
5.62063e-08
5.77322e-08
5.70758e-08
5.77251e-08
5.68884e-08
5.59322e-08
1.33909e-07
0
5.37756e-08
5.4364e-08
5.48025e-08
5.54826e-08
5.80403e-08
5.70423e-08
6.84673e-08
1.21193e-07
5.63915e-08
5.76461e-08
5.21928e-08
5.36073e-08
5.60207e-08
5.6009e-08
5.6751e-08
5.73256e-08
5.69242e-08
5.94596e-08
0
0
0
0
0
0
0
0
0
0
6.16629e-08
0
5.66524e-08
5.70329e-08
5.83383e-08
5.77753e-08
5.54207e-08
5.542e-08
5.43805e-08
5.45265e-08
5.60031e-08
1.42462e-07
5.69832e-08
5.36355e-08
5.19407e-08
5.33489e-08
5.50233e-08
5.55393e-08
5.47051e-08
5.57885e-08
5.64576e-08
5.86476e-08
5.83029e-08
5.6037e-08
5.54446e-08
5.79406e-08
6.03451e-08
5.47951e-08
5.36263e-08
5.88098e-08
5.82728e-08
5.62906e-08
5.33608e-08
5.2654e-08
5.34706e-08
5.52534e-08
5.53483e-08
5.57347e-08
5.85335e-08
6.00531e-08
0
5.54811e-08
5.61214e-08
5.71016e-08
5.66185e-08
0
5.50075e-08
5.53595e-08
6.99283e-08
6.12591e-08
1.09541e-07
5.73487e-08
5.47585e-08
5.44685e-08
5.62019e-08
5.80322e-08
5.66201e-08
5.48515e-08
5.43103e-08
5.52443e-08
7.41393e-08
1.1559e-07
5.39934e-08
5.74571e-08
0
0
0
0
0
0
0
0
0
0
0
5.66296e-08
5.50103e-08
5.53681e-08
5.67109e-08
5.69538e-08
5.6991e-08
7.36271e-08
1.10848e-07
5.37801e-08
5.70102e-08
5.59909e-08
1.40459e-07
5.88818e-08
5.26683e-08
5.1436e-08
5.32541e-08
5.47524e-08
5.4154e-08
7.64864e-08
1.11126e-07
5.93294e-08
5.88785e-08
0
5.42548e-08
5.33754e-08
5.48647e-08
5.49618e-08
5.91535e-08
0
5.61153e-08
1.40351e-07
5.66356e-08
5.57117e-08
5.40078e-08
5.38379e-08
5.47133e-08
5.29773e-08
5.51908e-08
6.04674e-08
7.30197e-09
4.63858e-08
5.58129e-08
5.57029e-08
5.66472e-08
5.61312e-08
5.5854e-08
1.36573e-07
5.44665e-08
5.42286e-08
5.561e-08
5.66955e-08
5.63356e-08
5.70861e-08
5.64294e-08
5.73823e-08
5.91315e-08
5.75755e-08
5.42412e-08
5.34878e-08
5.45008e-08
1.36748e-07
5.39922e-08
5.42634e-08
5.67525e-08
0
0
0
0
0
0
0
0
0
0
0
5.7281e-08
5.5309e-08
5.52322e-08
5.69356e-08
1.41722e-07
5.47415e-08
5.49812e-08
5.56369e-08
5.6115e-08
5.54515e-08
6.92252e-08
8.59002e-08
8.86746e-08
5.397e-08
5.25654e-08
5.37236e-08
5.41785e-08
5.50506e-08
5.87242e-08
7.71813e-08
1.1534e-07
5.94321e-08
0
5.53075e-08
5.46439e-08
5.60035e-08
5.48513e-08
5.50102e-08
5.68677e-08
5.61351e-08
5.39416e-08
5.33787e-08
5.59927e-08
5.43993e-08
5.28299e-08
5.43498e-08
5.84695e-08
5.72921e-08
6.08744e-08
0
5.69687e-08
5.56279e-08
5.8006e-08
5.72329e-08
5.66292e-08
8.63373e-08
9.12339e-08
5.37722e-08
5.5102e-08
5.60251e-08
5.53919e-08
5.55014e-08
5.64136e-08
5.61436e-08
5.77673e-08
6.08214e-08
1.30695e-08
3.15813e-08
5.34109e-08
5.55281e-08
5.66295e-08
5.68121e-08
1.3656e-07
5.32411e-08
5.38586e-08
0
0
0
0
0
0
0
0
0
0
4.30593e-08
4.84885e-08
6.92631e-08
1.12009e-07
5.74316e-08
1.88802e-08
2.09187e-08
5.48696e-08
5.53954e-08
5.44972e-08
6.03754e-08
1.35053e-07
5.54702e-08
5.38936e-08
5.29677e-08
5.42984e-08
5.51521e-08
5.59685e-08
5.71675e-08
5.62243e-08
5.46655e-08
5.65333e-08
5.77199e-08
5.64445e-08
5.70435e-08
5.58837e-08
5.53888e-08
5.68296e-08
5.74567e-08
5.6742e-08
5.35884e-08
5.7073e-08
5.61155e-08
5.34354e-08
5.31917e-08
5.38682e-08
5.43523e-08
5.91656e-08
2.11463e-08
2.12638e-08
5.62569e-08
9.05219e-08
9.56727e-08
5.55484e-08
5.50958e-08
5.53364e-08
5.58028e-08
5.61487e-08
5.55604e-08
5.54959e-08
5.65667e-08
5.55052e-08
5.51468e-08
4.98894e-08
5.90532e-08
6.62392e-09
4.5909e-08
5.57541e-08
5.57183e-08
5.54969e-08
5.691e-08
5.8675e-08
7.86583e-09
4.56125e-08
5.70372e-08
5.66412e-08
5.47368e-08
0
0
0
0
0
0
0
0
5.68962e-08
5.9082e-08
2.23415e-08
8.46628e-08
5.32995e-08
5.64519e-08
5.57102e-08
5.59879e-08
5.62467e-08
5.68204e-08
5.68751e-08
5.7049e-08
0
0
0
5.62532e-08
5.52687e-08
5.61151e-08
5.76525e-08
5.76202e-08
5.42611e-08
5.56108e-08
5.71232e-08
5.72409e-08
5.62236e-08
5.32621e-08
5.26321e-08
5.69214e-08
5.67848e-08
5.62604e-08
5.61893e-08
5.62293e-08
5.68585e-08
5.50136e-08
5.20033e-08
5.37009e-08
5.87885e-08
5.90845e-08
5.64202e-08
5.75508e-08
7.57343e-08
3.81025e-08
5.63195e-08
5.67717e-08
5.59617e-08
5.51755e-08
5.60996e-08
5.62397e-08
5.47093e-08
5.51341e-08
5.1993e-08
3.15938e-09
5.06824e-08
5.23919e-08
5.91329e-08
5.89404e-08
5.70084e-08
5.69112e-08
5.61485e-08
5.54914e-08
5.58756e-08
5.89769e-08
8.44042e-09
4.25098e-08
1.38475e-07
5.47252e-08
0
0
0
0
0
0
0
0
0
1.36681e-08
3.32678e-08
5.85144e-08
5.59805e-08
5.41339e-08
1.36007e-07
5.46912e-08
5.54416e-08
5.78665e-08
5.65063e-08
5.66047e-08
5.63099e-08
1.31637e-07
1.26728e-07
5.33532e-08
5.26276e-08
5.54976e-08
5.60261e-08
5.59049e-08
5.55346e-08
5.78196e-08
6.04318e-08
5.61795e-08
5.70864e-08
6.03027e-08
1.35711e-07
5.6729e-08
5.84091e-08
1.08848e-08
6.06037e-08
8.33997e-08
7.21993e-08
5.58207e-08
5.83395e-08
5.51408e-08
5.95698e-08
1.25852e-07
5.58301e-08
5.74935e-08
5.31586e-08
5.77364e-08
0
5.64355e-08
5.79845e-08
5.73149e-08
5.62139e-08
5.85108e-08
7.61838e-09
4.20325e-08
5.45564e-08
5.58444e-08
5.67367e-08
5.49878e-08
5.71983e-08
5.7052e-08
5.53474e-08
5.49092e-08
5.61837e-08
5.56356e-08
5.47966e-08
5.58213e-08
5.91346e-08
5.67918e-08
5.50515e-08
5.62522e-08
5.74188e-08
0
0
0
0
0
0
0
0
0
5.9797e-08
6.02748e-08
1.12203e-08
5.52559e-08
6.42956e-08
9.68922e-08
5.46142e-08
5.80372e-08
5.85367e-08
5.74035e-08
5.66125e-08
5.67299e-08
5.55306e-08
5.4791e-08
5.46091e-08
5.48575e-08
5.62552e-08
0
5.61753e-08
5.4459e-08
5.58304e-08
5.87232e-08
5.67562e-08
5.62384e-08
5.70387e-08
1.08471e-07
7.54402e-08
5.65739e-08
5.45139e-08
5.18071e-08
5.39426e-08
1.38607e-07
5.39356e-08
5.45171e-08
5.55643e-08
5.57104e-08
5.45181e-08
5.62096e-08
5.46136e-08
5.57789e-08
3.32464e-09
5.13559e-08
5.68636e-08
5.75948e-08
5.93593e-08
5.66278e-08
5.67007e-08
5.74911e-08
5.6207e-08
0
5.38401e-08
5.57276e-08
5.402e-08
5.51372e-08
5.76246e-08
5.53865e-08
5.5981e-08
5.573e-08
5.61115e-08
5.50427e-08
5.52791e-08
1.38287e-07
5.49614e-08
5.46557e-08
5.60775e-08
0
0
0
0
0
0
0
0
0
0
5.67821e-08
5.9322e-08
5.78348e-08
5.66128e-08
5.62625e-08
0
0
1.41662e-07
5.64634e-08
5.55924e-08
0
5.69814e-08
5.54536e-08
5.46752e-08
5.47453e-08
5.62289e-08
5.34458e-08
2.05417e-08
1.77297e-08
5.77826e-08
5.77883e-08
5.62674e-08
5.57145e-08
5.54831e-08
5.69173e-08
5.68978e-08
1.40854e-07
5.66431e-08
2.17598e-09
1.30814e-07
5.42541e-08
5.56715e-08
1.34229e-07
5.28891e-08
5.45692e-08
5.4989e-08
5.56032e-08
5.6018e-08
1.03789e-08
3.74699e-08
5.65819e-08
5.64553e-08
5.60553e-08
5.20277e-08
6.16817e-08
0
5.68803e-08
5.63615e-08
5.63583e-08
5.5183e-08
5.46738e-08
5.57727e-08
5.63003e-08
5.61403e-08
9.14044e-08
8.63882e-08
5.49081e-08
5.74586e-08
5.56568e-08
5.52003e-08
5.60732e-08
5.62628e-08
5.77605e-08
5.45169e-08
5.11959e-08
0
0
0
0
0
0
0
0
0
0
5.7152e-08
5.68886e-08
5.70879e-08
5.55864e-08
0
5.5651e-08
5.59055e-08
6.05348e-08
0
0
1.15999e-07
2.84561e-08
4.96011e-08
8.15685e-08
0
5.63358e-08
5.66966e-08
5.57243e-08
5.668e-08
5.71196e-08
0
5.71451e-08
5.58565e-08
5.45029e-08
1.40475e-07
5.87917e-08
5.54664e-08
5.48606e-08
5.5092e-08
5.49442e-08
0
0
0
5.53335e-08
1.06586e-07
1.14041e-08
1.35853e-07
5.42424e-08
5.4252e-08
5.50182e-08
5.58714e-08
5.72819e-08
5.51382e-08
5.70195e-08
6.18499e-08
0
8.99485e-08
9.66568e-08
3.15902e-08
1.28329e-09
1.31302e-07
5.27366e-08
5.59388e-08
5.65616e-08
5.59046e-08
5.51034e-08
5.56979e-08
5.73138e-08
5.59601e-08
5.55023e-08
5.55431e-08
5.69944e-08
5.52297e-08
1.20077e-10
5.6235e-08
5.60592e-08
0
0
0
0
0
0
0
0
0
5.61886e-08
5.80581e-08
5.77697e-08
5.54454e-08
1.29945e-07
5.46373e-08
5.53897e-08
5.74547e-08
5.82132e-08
1.00095e-07
7.42581e-08
0
5.59452e-08
5.35886e-08
5.60015e-08
5.77071e-08
5.58283e-08
5.54619e-08
5.60792e-08
1.15398e-08
1.13737e-07
5.58522e-08
5.34063e-08
5.42303e-08
5.72706e-08
5.6942e-08
5.60939e-08
5.53772e-08
5.60977e-08
5.43307e-08
1.29258e-07
5.5491e-08
5.726e-08
0
5.57061e-08
5.865e-08
1.35258e-07
5.38066e-08
5.47616e-08
5.60695e-08
5.59274e-08
5.54256e-08
1.38536e-07
5.53314e-08
0
1.36775e-07
5.45102e-08
5.54578e-08
5.62046e-08
5.41305e-08
5.08654e-08
5.25413e-08
5.51948e-08
5.28657e-08
2.15382e-08
1.57139e-08
5.56665e-08
5.59836e-08
5.61671e-08
5.5772e-08
5.54231e-08
1.02748e-07
8.59675e-08
0
5.72903e-08
5.5213e-08
0
0
0
0
0
0
0
0
0
1.39814e-07
5.82216e-08
2.46723e-08
9.90732e-09
0
5.3355e-08
5.55643e-08
5.59929e-08
1.40758e-07
4.14705e-08
8.44538e-08
0
5.78818e-08
5.39077e-08
5.70346e-08
5.517e-08
5.67035e-08
0
5.49263e-08
1.38549e-07
5.84683e-08
5.55335e-08
5.46166e-08
5.55171e-08
5.60631e-08
5.59149e-08
5.61981e-08
5.67914e-08
8.13529e-08
2.90846e-08
5.43414e-08
5.61339e-08
7.37204e-08
1.05558e-07
7.49794e-08
7.77735e-08
1.50042e-08
5.56572e-08
5.56893e-08
5.55915e-08
5.52526e-08
5.51351e-08
9.85252e-08
8.9327e-08
5.45616e-08
5.58879e-08
5.69618e-08
1.36255e-07
5.44037e-08
5.48516e-08
5.46831e-08
5.54166e-08
1.40685e-07
1.01883e-07
0
5.62061e-08
5.67546e-08
5.96021e-08
5.69679e-08
5.65982e-08
5.5551e-08
5.77225e-08
5.8613e-08
5.74471e-08
5.47992e-08
5.36148e-08
0
0
0
0
0
0
0
0
0
5.43353e-08
5.77006e-08
5.66821e-08
3.14151e-09
1.34654e-07
4.43657e-08
5.4453e-08
5.72168e-08
5.70707e-08
1.38022e-07
5.69705e-08
5.81138e-08
5.55527e-08
5.42972e-08
5.42275e-08
5.47238e-08
5.56287e-08
5.51246e-08
5.48525e-08
5.63806e-08
5.74218e-08
5.84417e-08
5.71748e-08
6.40995e-08
7.39093e-08
4.31282e-08
4.55299e-08
9.66362e-08
8.54418e-08
5.34094e-08
5.24011e-08
5.58496e-08
0
5.65273e-08
5.55601e-08
5.77548e-08
0
5.60968e-08
5.55738e-08
1.10271e-07
2.23097e-08
3.51449e-08
1.39163e-07
5.69655e-08
5.3939e-08
5.4151e-08
1.37555e-07
5.63804e-08
5.66719e-08
5.49407e-08
5.444e-08
5.65957e-08
0
3.08912e-09
7.62182e-08
5.49234e-08
0
5.60133e-08
5.86472e-08
5.5372e-08
5.86568e-08
7.25536e-09
4.37253e-08
1.39752e-07
5.59583e-08
5.45692e-08
0
0
0
0
0
0
0
0
0
5.70908e-08
5.76523e-08
5.13226e-08
0
5.35855e-08
1.29041e-07
5.50376e-08
5.56852e-08
5.92472e-08
0
0
5.6333e-08
5.48415e-08
5.55329e-08
5.49108e-08
5.40591e-08
5.523e-08
5.55203e-08
5.57114e-08
5.68008e-08
5.56999e-08
5.91685e-08
5.70488e-08
5.61948e-08
5.57264e-08
5.55514e-08
5.65596e-08
5.65589e-08
5.53079e-08
1.30594e-07
5.25331e-08
5.63366e-08
5.88286e-08
0
5.50934e-08
5.58827e-08
5.58059e-08
5.36755e-08
5.41972e-08
5.63139e-08
5.65507e-08
5.60558e-08
6.37182e-08
1.3129e-07
5.46097e-08
5.39825e-08
5.67343e-08
5.59674e-08
5.67231e-08
5.47903e-08
5.55724e-08
5.8772e-08
5.65512e-08
5.45491e-08
5.55718e-08
5.45409e-08
5.54977e-08
5.65456e-08
5.40749e-08
5.37402e-08
5.7458e-08
0
5.71844e-08
5.7039e-08
5.66717e-08
5.2314e-08
0
0
0
0
0
0
0
0
0
5.67137e-08
5.61746e-08
5.69222e-08
5.36585e-08
0
5.40786e-08
5.51185e-08
6.12203e-08
1.1881e-07
5.87958e-08
1.43449e-07
5.26707e-08
5.31064e-08
5.42735e-08
5.57683e-08
5.64032e-08
5.47e-08
5.39829e-08
5.46624e-08
1.41374e-07
5.95821e-08
5.59328e-08
5.43749e-08
5.66652e-08
5.44895e-08
5.41277e-08
5.80208e-08
0
5.57696e-08
5.48578e-08
5.62563e-08
5.69186e-08
5.87652e-08
5.77165e-08
5.71341e-08
5.69011e-08
5.48484e-08
5.65531e-08
5.43334e-08
5.5318e-08
1.37149e-07
5.76675e-08
5.82888e-08
6.83505e-08
4.41128e-08
5.63259e-08
5.6288e-08
5.51869e-08
5.52833e-08
5.60309e-08
5.53516e-08
5.51693e-08
5.61144e-08
5.53706e-08
5.53691e-08
5.52661e-08
5.47043e-08
5.47387e-08
5.52371e-08
5.60717e-08
5.54824e-08
0
5.58825e-08
4.91789e-08
5.33109e-08
5.24532e-08
0
0
0
0
0
0
0
0
0
1.21881e-08
1.15488e-07
5.53067e-08
5.4181e-08
2.61274e-08
7.81282e-09
5.54796e-08
5.45505e-08
5.94538e-08
6.12029e-08
5.79648e-08
5.34199e-08
5.35668e-08
5.47185e-08
5.57749e-08
5.49629e-08
5.43768e-08
6.87183e-08
1.19432e-07
5.59857e-08
5.84805e-08
5.73393e-08
5.62531e-08
5.54112e-08
5.37183e-08
5.25207e-08
1.44593e-08
2.91036e-08
5.50283e-08
5.35248e-08
5.3024e-08
5.91337e-08
0
5.63866e-08
5.61448e-08
5.637e-08
1.3327e-07
5.30352e-08
1.34071e-07
5.53228e-08
1.37762e-07
6.04985e-08
2.67303e-08
1.01481e-08
5.48146e-08
5.59496e-08
5.64813e-08
5.57229e-08
5.77853e-08
1.9707e-08
3.94079e-08
4.93806e-08
1.14444e-07
5.64076e-08
5.51715e-08
5.68923e-08
5.53649e-08
5.47399e-08
5.5746e-08
5.53923e-08
1.42201e-07
5.73865e-08
5.53957e-08
5.62932e-08
5.78716e-08
5.64959e-08
0
0
0
0
0
0
0
0
0
9.45657e-09
1.21241e-07
5.4228e-08
5.24928e-08
5.42658e-08
5.56444e-08
5.35418e-08
0
1.34389e-07
5.79576e-08
5.72636e-08
0
5.16978e-08
5.54888e-08
5.50939e-08
6.10658e-08
1.22325e-07
5.50679e-08
5.93533e-08
1.03142e-08
8.88434e-08
5.39919e-08
8.48472e-08
5.73755e-08
0
5.7258e-08
5.70366e-08
5.58462e-08
5.58774e-08
5.60923e-08
6.04081e-08
0
5.76902e-08
5.51434e-08
1.37715e-07
5.43845e-08
5.35718e-08
5.42207e-08
1.37093e-07
5.36488e-08
5.56134e-08
1.42955e-07
5.96531e-08
5.35899e-09
1.26866e-07
0
5.6156e-08
5.68636e-08
5.70077e-08
5.51975e-08
5.44298e-08
5.39487e-08
5.60184e-08
5.36444e-08
5.39399e-08
5.65552e-08
5.56815e-08
5.44414e-08
5.51725e-08
5.66696e-08
0
5.78705e-08
5.69037e-08
5.11014e-08
5.80807e-08
0
0
0
0
0
0
0
0
0
0
4.40009e-08
5.86261e-08
5.6344e-08
5.48754e-08
5.34994e-08
1.3817e-07
5.59919e-08
0
5.53999e-08
1.33564e-07
1.36656e-07
5.5304e-08
5.59266e-08
1.39094e-07
5.3917e-08
5.53632e-08
1.32973e-07
5.82115e-08
1.16398e-08
3.77817e-08
5.67891e-08
5.86539e-08
5.59819e-08
5.6421e-08
5.57794e-08
5.61381e-08
5.84692e-08
5.60302e-08
5.55021e-08
5.53092e-08
5.65734e-08
5.7919e-08
5.65862e-08
1.01185e-07
7.82682e-08
5.56107e-08
5.56008e-08
0
0
0
0
0
0
9.85824e-08
1.26797e-08
5.60785e-08
5.56207e-08
5.53549e-08
5.59673e-08
5.76213e-08
5.38706e-08
5.39216e-08
5.48461e-08
5.53335e-08
5.41222e-08
5.63713e-08
5.64844e-08
5.51305e-08
1.32536e-07
7.48808e-08
6.94638e-08
9.0152e-08
5.47469e-08
5.37854e-08
0
5.77227e-08
0
0
0
0
0
0
0
0
0
5.9674e-08
5.76759e-08
5.60316e-08
5.57339e-08
5.55424e-08
5.6048e-08
5.53151e-08
1.42781e-07
0
5.67437e-08
5.54907e-08
1.61901e-08
2.63136e-08
0
0
0
2.47738e-08
8.40877e-08
0
5.74475e-08
5.6544e-08
5.61622e-08
5.63162e-08
1.04729e-07
8.11958e-09
5.66749e-08
5.87618e-08
5.87314e-08
5.99225e-08
5.59567e-08
5.56065e-08
1.3889e-07
5.50449e-08
5.50017e-08
5.31116e-08
5.57781e-08
5.54747e-08
5.53309e-08
5.54935e-08
5.45651e-08
1.36039e-07
5.59451e-08
5.98329e-08
5.82463e-08
5.72525e-08
5.71673e-08
5.50216e-08
5.5616e-08
5.50581e-08
5.55234e-08
7.93615e-08
1.12367e-07
5.02348e-08
5.21186e-08
5.38358e-08
5.6796e-08
5.6229e-08
5.41406e-08
5.49429e-08
5.66924e-08
6.44553e-08
5.00874e-08
5.50655e-08
5.60796e-08
5.99882e-08
5.82698e-08
0
0
0
0
0
0
0
0
0
5.77764e-08
5.67093e-08
5.63613e-08
5.69126e-08
5.51821e-08
9.62482e-08
8.57955e-08
5.81561e-08
5.9921e-08
0
7.97707e-08
2.8917e-08
5.49792e-08
5.62912e-08
1.34744e-07
5.35043e-08
1.25649e-07
5.84425e-08
5.72256e-08
6.77636e-08
1.2371e-07
5.43558e-08
5.56013e-08
5.56665e-08
5.59525e-08
5.36661e-08
0
5.4534e-08
5.44659e-08
5.76818e-08
9.7793e-08
8.45108e-08
5.42838e-08
5.55174e-08
5.55557e-08
5.54619e-08
5.69022e-08
1.30195e-07
9.808e-08
1.28057e-07
4.91562e-09
1.3872e-07
5.73218e-08
5.81429e-08
2.82627e-08
5.84194e-08
7.23331e-08
5.50784e-08
5.54377e-08
5.61235e-08
7.5843e-08
1.15306e-07
5.5031e-08
5.45502e-08
0
5.63847e-08
5.45081e-08
5.51969e-08
5.81611e-08
5.69995e-08
5.71552e-08
7.50179e-08
5.49595e-08
5.64283e-08
0
5.72464e-08
0
0
0
0
0
0
0
0
0
5.69425e-08
5.74807e-08
1.36946e-07
5.50629e-08
5.42717e-08
5.16316e-08
5.86024e-08
5.88363e-08
5.96819e-08
5.50961e-08
5.33026e-08
5.5928e-08
5.82723e-08
5.35075e-08
1.2746e-07
5.34595e-08
6.31025e-08
5.42453e-08
5.37859e-08
5.68818e-08
1.39843e-07
5.5134e-08
5.40517e-08
5.49537e-08
5.42262e-08
5.57577e-08
2.28386e-08
1.23666e-08
5.58753e-08
5.79676e-08
1.03514e-07
7.64047e-08
5.55501e-08
5.53199e-08
5.24128e-08
5.71118e-08
5.71928e-08
5.59202e-08
1.48946e-08
2.53682e-08
5.54228e-08
5.79066e-08
5.69369e-08
5.71953e-08
5.63355e-08
5.62975e-08
5.5306e-08
5.49727e-08
7.71557e-08
3.39626e-08
9.32408e-08
8.81959e-08
5.57519e-08
5.65664e-08
5.67202e-08
1.58198e-08
9.80073e-08
1.34495e-07
0
0
0
1.12173e-07
5.3539e-08
5.3706e-08
5.80565e-08
0
0
0
0
0
0
0
0
0
0
5.51022e-08
5.37676e-08
5.41889e-08
5.64474e-08
4.95145e-08
5.1923e-08
5.45541e-08
5.67908e-08
6.06275e-08
5.77954e-08
5.43966e-08
5.41253e-08
5.65357e-08
0
5.24645e-08
1.32122e-07
5.94873e-08
2.45562e-08
8.70399e-08
5.49912e-08
0
5.6646e-08
5.52989e-08
5.78716e-08
5.61975e-08
5.50397e-08