/*--------------------------------*- C++ -*----------------------------------*\
  =========                 |
  \\      /  F ield         | OpenFOAM: The Open Source CFD Toolbox
   \\    /   O peration     | Website:  https://openfoam.org
    \\  /    A nd           | Version:  12
     \\/     M anipulation  |
\*---------------------------------------------------------------------------*/
FoamFile
{
    format      ascii;
    class       volScalarField;
    location    "0.2";
    object      p;
}
// * * * * * * * * * * * * * * * * * * * * * * * * * * * * * * * * * * * * * //

dimensions      [0 2 -2 0 0 0 0];

internalField   nonuniform List<scalar> 
3750
(
0.731004
0.714732
0.707387
0.698921
0.68966
0.68092
0.671062
0.661133
0.650709
0.638953
0.629527
0.620521
0.610493
0.602375
0.594414
0.57573
0.577125
0.566396
0.55388
0.543214
0.531479
0.524399
0.513077
0.503477
0.488615
0.479578
0.470481
0.461526
0.45141
0.441481
0.441436
0.42247
0.412423
0.40185
0.402607
0.390609
0.378475
0.368295
0.350584
0.341247
0.330636
0.318208
0.305007
0.294134
0.284294
0.273981
0.266171
0.271008
0.254917
0.244285
0.232802
0.223071
0.217825
0.210639
0.210725
0.198579
0.187536
0.168403
0.159511
0.149982
0.138374
0.139721
0.128353
0.116337
0.105574
0.094956
0.0845345
0.0751714
0.0648763
0.0546746
0.0445571
0.0345304
0.0246074
0.0147511
0.00491959
0.730115
0.717825
0.70851
0.699566
0.690519
0.681029
0.671109
0.660795
0.65085
0.637946
0.629073
0.6208
0.609787
0.602432
0.593861
0.584915
0.57321
0.56729
0.551973
0.544869
0.528812
0.528055
0.510858
0.501442
0.489774
0.479566
0.469878
0.462154
0.453055
0.444893
0.435415
0.424343
0.414293
0.406085
0.400262
0.389106
0.376272
0.363961
0.354038
0.342253
0.330094
0.3181
0.305757
0.294259
0.285005
0.273184
0.270162
0.264627
0.258804
0.244287
0.230806
0.221446
0.220516
0.217111
0.207246
0.195775
0.183827
0.169855
0.158641
0.151126
0.142119
0.138905
0.127407
0.115229
0.105284
0.0949202
0.0846678
0.074826
0.0647612
0.0546341
0.0445148
0.0344452
0.0245153
0.0146805
0.00488281
0.72525
0.721667
0.709153
0.700658
0.691796
0.682193
0.671492
0.660504
0.648533
0.637403
0.628
0.619786
0.610698
0.601567
0.594995
0.585437
0.574495
0.564791
0.553518
0.543799
0.532882
0.525436
0.511845
0.500441
0.490767
0.479242
0.468781
0.462944
0.453898
0.444732
0.434512
0.42511
0.416106
0.407713
0.400816
0.387798
0.374397
0.360522
0.358968
0.343534
0.327202
0.318005
0.306092
0.292527
0.287777
0.274474
0.270008
0.265904
0.258074
0.244859
0.226308
0.226317
0.2249
0.215675
0.204771
0.193445
0.182213
0.169316
0.156103
0.152347
0.143475
0.141377
0.127098
0.113673
0.104559
0.0945318
0.0845112
0.0745827
0.064582
0.0545402
0.0445064
0.0345165
0.0245656
0.014616
0.00477786
0.728955
0.72145
0.710868
0.701959
0.693394
0.683839
0.672119
0.661424
0.644863
0.636539
0.625699
0.619278
0.611819
0.599135
0.598852
0.586822
0.57407
0.563966
0.553513
0.543815
0.533861
0.523829
0.511172
0.498921
0.490871
0.478115
0.467399
0.465941
0.454702
0.444534
0.434683
0.4254
0.416594
0.408608
0.40033
0.387007
0.373666
0.360148
0.355086
0.346865
0.325108
0.320079
0.308394
0.295238
0.284811
0.274824
0.268897
0.270084
0.255804
0.244819
0.231757
0.232048
0.222328
0.214166
0.202749
0.190903
0.182613
0.169488
0.158038
0.149481
0.147457
0.138259
0.126107
0.113832
0.104134
0.0942882
0.0843615
0.0744081
0.0644292
0.0544322
0.044447
0.0344895
0.024559
0.0145712
0.00472615
0.730207
0.721018
0.711581
0.702973
0.694809
0.686286
0.671932
0.657753
0.645966
0.63781
0.62021
0.618882
0.615905
0.599783
0.599777
0.587106
0.572689
0.563668
0.554009
0.542759
0.534331
0.521816
0.511166
0.5001
0.490058
0.476412
0.472845
0.464385
0.454157
0.444055
0.434765
0.425611
0.416634
0.408864
0.39664
0.386733
0.374253
0.361892
0.352096
0.349524
0.331063
0.315909
0.311907
0.296443
0.282622
0.274049
0.271665
0.269965
0.256425
0.247455
0.237494
0.231093
0.222445
0.215886
0.201152
0.185711
0.185827
0.167843
0.158267
0.15085
0.146157
0.1343
0.124637
0.11377
0.103917
0.0941211
0.0842253
0.0742585
0.0643
0.0543301
0.0443796
0.0344511
0.0245201
0.0145247
0.00469466
0.73036
0.720774
0.711623
0.703404
0.695822
0.686881
0.671896
0.657692
0.644601
0.636294
0.626021
0.620723
0.614891
0.604677
0.598344
0.582837
0.57293
0.563975
0.555987
0.540407
0.532142
0.52081
0.511127
0.50176
0.491054
0.479488
0.47283
0.463764
0.453295
0.44285
0.434362
0.425701
0.415274
0.408031
0.395065
0.387516
0.374973
0.36209
0.352001
0.351051
0.334068
0.317993
0.312651
0.295751
0.281942
0.28083
0.271794
0.263542
0.256652
0.250328
0.2397
0.229237
0.220729
0.213668
0.198034
0.191322
0.183154
0.169563
0.156585
0.150613
0.143559
0.13456
0.12334
0.11424
0.104098
0.094199
0.0841556
0.0741173
0.064153
0.0542107
0.0442931
0.0343908
0.0244652
0.0144823
0.00467874
0.730344
0.720505
0.71144
0.704008
0.696122
0.684815
0.671334
0.658301
0.646612
0.635774
0.629102
0.621924
0.614623
0.607467
0.59274
0.582833
0.572684
0.56289
0.553738
0.54215
0.531738
0.520846
0.51094
0.502835
0.493578
0.480599
0.472957
0.465031
0.452259
0.439467
0.434184
0.427281
0.413068
0.410938
0.392734
0.392138
0.376055
0.36051
0.352058
0.35077
0.335437
0.319076
0.310613
0.299283
0.288076
0.284307
0.270586
0.255898
0.256122
0.255242
0.242253
0.225601
0.2178
0.208407
0.195753
0.192653
0.182313
0.170411
0.159526
0.150933
0.142401
0.129488
0.124533
0.119711
0.103876
0.0942799
0.0840355
0.073943
0.0639793
0.0540826
0.0441931
0.0343118
0.0244008
0.014435
0.00466746
0.729191
0.71955
0.710504
0.704676
0.694092
0.683253
0.670685
0.658263
0.645029
0.642748
0.632743
0.623329
0.614444
0.605417
0.594499
0.583139
0.572098
0.561512
0.554506
0.54254
0.531796
0.520012
0.510462
0.500773
0.497729
0.481821
0.473201
0.45888
0.450621
0.44018
0.436064
0.42915
0.416109
0.406785
0.396631
0.388103
0.37629
0.364087
0.355007
0.348237
0.33712
0.320912
0.311271
0.30116
0.290768
0.281782
0.268951
0.261082
0.256769
0.252234
0.241309
0.22612
0.216491
0.206391
0.19637
0.188031
0.182609
0.171678
0.159961
0.152365
0.141281
0.135696
0.125547
0.116752
0.104038
0.0936958
0.0836396
0.0737192
0.0638052
0.053937
0.0440801
0.0342303
0.0243512
0.0144054
0.00466417
0.72678
0.718265
0.707693
0.705233
0.689441
0.679929
0.669627
0.660251
0.647207
0.646434
0.634902
0.624222
0.614416
0.60507
0.596843
0.582893
0.571252
0.558727
0.558547
0.54114
0.532976
0.517259
0.509997
0.503964
0.498656
0.481598
0.466529
0.459885
0.450222
0.436226
0.439591
0.431811
0.419275
0.407454
0.398042
0.387649
0.376929
0.365768
0.355546
0.345621
0.336655
0.323007
0.313856
0.303256
0.292277
0.283957
0.264248
0.262969
0.257079
0.251416
0.240161
0.22667
0.21557
0.204375
0.194549
0.182839
0.181719
0.178058
0.157643
0.156489
0.147645
0.13386
0.124955
0.114609
0.103078
0.0932435
0.0833296
0.0734335
0.0635961
0.0537779
0.0439663
0.0341484
0.0242893
0.014368
0.00464777
0.728752
0.719385
0.70952
0.700255
0.685698
0.672271
0.669104
0.666099
0.655105
0.646974
0.635738
0.624502
0.614088
0.603537
0.592854
0.581556
0.57799
0.561019
0.554386
0.542446
0.529824
0.519727
0.508114
0.506617
0.49444
0.480123
0.465568
0.464222
0.443653
0.440371
0.439086
0.435119
0.421236
0.408807
0.396305
0.391974
0.377803
0.366571
0.355949
0.345197
0.33433
0.322269
0.322368
0.304835
0.292671
0.28534
0.268735
0.255349
0.257334
0.253926
0.239576
0.227061
0.214766
0.202342
0.190622
0.184634
0.183607
0.173881
0.161885
0.154765
0.147161
0.138018
0.124368
0.11376
0.101499
0.0928912
0.082936
0.0730904
0.0633574
0.0536221
0.0438646
0.0340805
0.0242501
0.0143519
0.00465376
0.730208
0.721194
0.712476
0.696563
0.683017
0.671162
0.668467
0.664583
0.65952
0.64903
0.636398
0.62395
0.613707
0.60222
0.590783
0.58631
0.578907
0.560527
0.552593
0.543348
0.525374
0.521672
0.509838
0.50506
0.490877
0.480004
0.465973
0.460379
0.447446
0.443536
0.440502
0.43309
0.421544
0.409672
0.398782
0.391549
0.376429
0.366923
0.35611
0.345143
0.3337
0.321937
0.321008
0.307066
0.29501
0.284088
0.270957
0.259018
0.258959
0.253067
0.239008
0.227382
0.214369
0.202184
0.193353
0.185598
0.17918
0.171047
0.161701
0.152405
0.142345
0.138759
0.126272
0.114701
0.10364
0.0926817
0.0821909
0.0726696
0.0631368
0.0534961
0.0437868
0.0340297
0.0242141
0.0143205
0.00463344
0.733071
0.72185
0.709946
0.697121
0.687542
0.677094
0.669535
0.662179
0.654213
0.651671
0.63716
0.621188
0.614885
0.603025
0.592574
0.584778
0.574899
0.562558
0.552459
0.541107
0.531787
0.519174
0.507891
0.499809
0.48909
0.478235
0.470413
0.461598
0.447285
0.445719
0.444179
0.432611
0.422007
0.409891
0.399743
0.390126
0.37759
0.367352
0.356637
0.345633
0.335282
0.324111
0.317049
0.305121
0.296944
0.28526
0.272998
0.26306
0.254037
0.256051
0.240911
0.227494
0.21361
0.201498
0.195323
0.186732
0.174854
0.169345
0.161618
0.152073
0.140486
0.137409
0.12617
0.115616
0.106719
0.0915793
0.0806008
0.0722804
0.0630202
0.0534441
0.0437602
0.0340147
0.0242085
0.0143284
0.0046419
0.733203
0.720574
0.708806
0.695006
0.692907
0.680992
0.670795
0.66189
0.653847
0.646537
0.634622
0.621082
0.618759
0.603612
0.592754
0.583231
0.57327
0.562838
0.553592
0.536662
0.530239
0.519436
0.507954
0.497568
0.487362
0.476317
0.476234
0.461703
0.454174
0.447826
0.441913
0.432152
0.422944
0.408133
0.399882
0.390828
0.376841
0.368493
0.357025
0.345563
0.337347
0.325291
0.317078
0.299853
0.299041
0.287096
0.275004
0.257674
0.257006
0.257428
0.242075
0.228284
0.212881
0.201708
0.192405
0.183336
0.175765
0.169506
0.163328
0.154548
0.141429
0.134232
0.124706
0.114884
0.104766
0.0935893
0.0824224
0.072792
0.0631935
0.0535189
0.043791
0.0340268
0.0242077
0.0143194
0.00462885
0.726845
0.718587
0.708507
0.694442
0.696156
0.682096
0.671848
0.661498
0.654293
0.644676
0.632557
0.624041
0.615821
0.60716
0.591259
0.582523
0.572401
0.561711
0.55037
0.534897
0.532301
0.520351
0.507587
0.496428
0.485752
0.478672
0.472038
0.466625
0.461456
0.450094
0.441431
0.432248
0.423442
0.406515
0.399402
0.390617
0.37718
0.369974
0.357977
0.34348
0.336511
0.328325
0.314533
0.301962
0.296696
0.287048
0.277448
0.262254
0.257985
0.251579
0.241188
0.231117
0.213633
0.201184
0.190268
0.18004
0.175475
0.169497
0.166367
0.154987
0.142846
0.134489
0.122212
0.11446
0.104238
0.0940695
0.0833456
0.0732788
0.0634392
0.0536503
0.0438642
0.0340702
0.0242378
0.0143417
0.00464392
0.724554
0.717173
0.707855
0.69707
0.690402
0.679152
0.676213
0.6646
0.655756
0.646193
0.629927
0.625314
0.611899
0.606586
0.594001
0.583319
0.572016
0.561051
0.551519
0.536262
0.530005
0.521679
0.50446
0.495009
0.482916
0.480953
0.477602
0.469317
0.459463
0.450021
0.44159
0.432071
0.420397
0.408598
0.399296
0.388965
0.378141
0.368365
0.357193
0.345389
0.33539
0.325294
0.316554
0.304699
0.295146
0.283091
0.281139
0.26818
0.25984
0.24767
0.239547
0.22943
0.21781
0.205533
0.187991
0.185254
0.175535
0.167723
0.162551
0.154799
0.140901
0.131038
0.123066
0.116796
0.104478
0.0939349
0.0836165
0.0735544
0.0636421
0.0537846
0.0439497
0.0341207
0.0242644
0.0143497
0.00463316
0.727367
0.717475
0.707577
0.698603
0.690162
0.680817
0.672086
0.66525
0.657636
0.651647
0.632554
0.61975
0.60827
0.609955
0.594282
0.584478
0.571593
0.560215
0.551483
0.536932
0.528084
0.51832
0.505201
0.49224
0.486428
0.485121
0.476422
0.468373
0.461571
0.448885
0.442821
0.434113
0.417704
0.408171
0.398917
0.387932
0.378476
0.368179
0.357498
0.345616
0.334726
0.322084
0.315823
0.309612
0.296099
0.282575
0.280193
0.269058
0.259421
0.248391
0.238581
0.229072
0.220443
0.20446
0.186325
0.186554
0.179489
0.169656
0.160248
0.148696
0.144409
0.127227
0.123558
0.121622
0.102647
0.0934583
0.0836339
0.0736919
0.0637722
0.053884
0.0440247
0.0341755
0.0243035
0.0143782
0.00465063
0.725083
0.71672
0.706432
0.69873
0.690993
0.683429
0.676612
0.666063
0.657547
0.650574
0.631804
0.617277
0.607332
0.604623
0.598838
0.577955
0.57415
0.560767
0.549709
0.537443
0.528003
0.518272
0.507581
0.495076
0.4856
0.482016
0.475215
0.467139
0.462339
0.448915
0.44475
0.431908
0.419613
0.408035
0.395991
0.390834
0.378747
0.368381
0.358435
0.344947
0.336174
0.327621
0.314149
0.307757
0.297169
0.286185
0.274952
0.26998
0.260187
0.24831
0.237307
0.227907
0.218361
0.205822
0.191336
0.184659
0.181501
0.172189
0.160501
0.149992
0.142062
0.129754
0.122491
0.11546
0.103715
0.0939151
0.0838015
0.0738061
0.0638732
0.0539684
0.0440909
0.0342224
0.0243347
0.0143872
0.00464327
0.72636
0.717996
0.704716
0.698859
0.691875
0.686058
0.683541
0.664451
0.655467
0.645576
0.632353
0.619966
0.614298
0.601211
0.592083
0.580413
0.571605
0.56019
0.548654
0.53721
0.527933
0.518992
0.51082
0.497635
0.48326
0.480022
0.474891
0.4736
0.459371
0.450193
0.44281
0.42901
0.42162
0.408594
0.397157
0.388443
0.377625
0.368013
0.35789
0.345255
0.337611
0.327919
0.317164
0.308118
0.298663
0.290382
0.2785
0.273705
0.260797
0.247238
0.234512
0.22694
0.219486
0.209468
0.190904
0.189568
0.17837
0.174777
0.159855
0.150427
0.141701
0.131185
0.121259
0.11308
0.10347
0.0937459
0.0837817
0.0738415
0.0639305
0.0540335
0.0441495
0.0342689
0.0243711
0.0144175
0.00465966
0.7289
0.723565
0.709587
0.700363
0.692555
0.685511
0.678391
0.664735
0.654434
0.643873
0.631633
0.617028
0.615824
0.604176
0.591631
0.580811
0.570231
0.559349
0.547851
0.534796
0.526781
0.520214
0.513876
0.501018
0.488289
0.480314
0.472935
0.4723
0.458452
0.446771
0.44032
0.430926
0.425664
0.408232
0.397585
0.387221
0.376684
0.366542
0.356787
0.344735
0.341145
0.329207
0.318534
0.309168
0.300146
0.291388
0.281325
0.27172
0.261499
0.245561
0.228186
0.22588
0.222162
0.209894
0.19712
0.190515
0.181296
0.172206
0.158896
0.150133
0.14245
0.130981
0.120021
0.112217
0.103144
0.0935693
0.0837664
0.0738918
0.0639905
0.0540941
0.0442006
0.0343094
0.0243944
0.0144226
0.00465464
0.729398
0.722302
0.711139
0.701208
0.693201
0.684939
0.677629
0.661401
0.653615
0.643941
0.633956
0.613085
0.611304
0.609005
0.591139
0.580921
0.570009
0.559373
0.549425
0.529986
0.524124
0.520856
0.519096
0.504599
0.492305
0.482281
0.474597
0.463937
0.461088
0.449086
0.441216
0.428801
0.421249
0.408722
0.39654
0.386166
0.375366
0.364566
0.353441
0.353717
0.33818
0.328561
0.318549
0.30995
0.30138
0.292646
0.282662
0.269401
0.256658
0.245729
0.233972
0.226673
0.219412
0.208954
0.198679
0.189939
0.185015
0.171118
0.158135
0.149095
0.137673
0.133677
0.120338
0.112627
0.103161
0.0935213
0.0837786
0.0739398
0.0640516
0.0541518
0.0442484
0.0343466
0.0244241
0.0144495
0.00467161
0.73104
0.721446
0.710732
0.699422
0.693641
0.684883
0.674099
0.662643
0.653394
0.644228
0.635863
0.617863
0.607071
0.607714
0.59066
0.580436
0.569548
0.558778
0.548082
0.539038
0.520827
0.519627
0.519011
0.505759
0.49432
0.484264
0.474634
0.464214
0.458074
0.449064
0.440634
0.426312
0.418925
0.41038
0.395691
0.385602
0.374137
0.363913
0.354229
0.352822
0.339606
0.328315
0.31658
0.310581
0.30258
0.295039
0.280615
0.267575
0.257096
0.246858
0.236553
0.227435
0.217934
0.207671
0.197294
0.189934
0.18854
0.169131
0.158636
0.149446
0.139933
0.130981
0.11848
0.114159
0.103053
0.0935993
0.0839299
0.0740483
0.0641252
0.0542026
0.0442827
0.0343667
0.0244335
0.0144498
0.00466939
0.732805
0.720584
0.710992
0.694362
0.692168
0.688616
0.669873
0.661923
0.653075
0.644079
0.635632
0.617207
0.614869
0.60459
0.589656
0.579369
0.569005
0.558142
0.546578
0.544664
0.527711
0.519173
0.514095
0.504733
0.494814
0.485048
0.474131
0.465327
0.457437
0.448063
0.438223
0.421249
0.417803
0.413899
0.397001
0.385217
0.371924
0.364346
0.360194
0.347991
0.339143
0.329118
0.312034
0.311456
0.302005
0.292298
0.280876
0.26922
0.258176
0.247735
0.237887
0.228533
0.217219
0.206967
0.195958
0.196064
0.181127
0.169894
0.159531
0.150177
0.141675
0.130382
0.122203
0.108764
0.100854
0.0939757
0.0843112
0.0742216
0.0641943
0.0542321
0.0443064
0.0343891
0.0244538
0.0144694
0.00469002
0.73138
0.718983
0.718387
0.700042
0.690852
0.681446
0.67018
0.662111
0.652842
0.64359
0.634029
0.622962
0.616221
0.604028
0.589695
0.57842
0.569122
0.558813
0.549941
0.543592
0.529063
0.520134
0.512733
0.504145
0.49496
0.484897
0.474666
0.465576
0.458992
0.447434
0.43558
0.422729
0.417273
0.411174
0.399502
0.385351
0.368165
0.363545
0.361176
0.349072
0.339725
0.325555
0.315284
0.308925
0.300415
0.291258
0.281237
0.270728
0.258688
0.248135
0.238694
0.231375
0.215666
0.207394
0.198546
0.192003
0.18052
0.169905
0.159816
0.150011
0.140454
0.12888
0.125933
0.108028
0.0981822
0.0954013
0.0847994
0.0743272
0.0642217
0.0542384
0.0443056
0.0343882
0.0244549
0.0144668
0.00467917
0.731667
0.719288
0.716968
0.703631
0.6902
0.67596
0.671014
0.661486
0.6525
0.64346
0.634077
0.624609
0.616229
0.60452
0.588577
0.576935
0.569048
0.559487
0.549985
0.540904
0.529832
0.520868
0.512512
0.504112
0.496469
0.480396
0.477076
0.463907
0.463204
0.447094
0.434458
0.421104
0.417807
0.409898
0.399681
0.388599
0.370933
0.362447
0.357026
0.347288
0.333781
0.328337
0.316406
0.307312
0.298953
0.291018
0.28213
0.273871
0.257878
0.247642
0.238554
0.229278
0.218178
0.208747
0.199645
0.190654
0.179171
0.169389
0.159584
0.149643
0.139349
0.129929
0.122123
0.111214
0.10078
0.0935218
0.0840543
0.0740983
0.0641413
0.0542195
0.0443046
0.0343955
0.0244646
0.0144832
0.00469568
0.726659
0.722517
0.721706
0.70475
0.690214
0.675748
0.666373
0.658502
0.652342
0.643593
0.634088
0.624928
0.615345
0.60362
0.590302
0.579275
0.570501
0.56019
0.549492
0.540239
0.530181
0.521154
0.512358
0.503326
0.494347
0.485479
0.473569
0.465032
0.459297
0.443521
0.435171
0.422777
0.421219
0.409006
0.398644
0.387175
0.374636
0.364595
0.356125
0.346887
0.335347
0.322725
0.314527
0.305546
0.29709
0.291697
0.28251
0.272543
0.262043
0.248384
0.239011
0.229139
0.219301
0.209749
0.200216
0.18993
0.177392
0.168771
0.159299
0.149535
0.139349
0.128218
0.124075
0.112759
0.101906
0.0930208
0.0835741
0.0738562
0.0640362
0.0541705
0.044288
0.0343935
0.0244642
0.0144808
0.00468812
0.728748
0.722107
0.715442
0.703306
0.690491
0.677892
0.666282
0.655452
0.65419
0.644101
0.63362
0.625562
0.614913
0.602956
0.590734
0.580647
0.572765
0.562322
0.54787
0.539968
0.529616
0.521342
0.512474
0.502652
0.492305
0.484006
0.473459
0.466882
0.462146
0.439679
0.437382
0.426177
0.420237
0.407271
0.398356
0.386634
0.37351
0.36635
0.357672
0.343149
0.333754
0.323257
0.313757
0.303638
0.293435
0.294244
0.28341
0.271561
0.263786
0.250409
0.239871
0.228859
0.219974
0.211274
0.203059
0.186733
0.17732
0.167995
0.159446
0.149751
0.139852
0.130334
0.123035
0.112528
0.101396
0.0926487
0.0833159
0.0737229
0.0639797
0.0541542
0.04429
0.034401
0.0244754
0.0144954
0.00470027
0.729537
0.721723
0.713672
0.702461
0.690417
0.678269
0.666452
0.65499
0.653495
0.64254
0.630186
0.628774
0.615622
0.60186
0.589451
0.58106
0.572171
0.561198
0.55036
0.540422
0.527649
0.522532
0.513615
0.502737
0.490015
0.484593
0.478676
0.466304
0.457559
0.443907
0.435666
0.426495
0.418351
0.408176
0.400927
0.386079
0.368391
0.367691
0.354362
0.344325
0.333749
0.323021
0.313681
0.304413
0.292687
0.293137
0.285522
0.26787
0.267657
0.249386
0.240933
0.227672
0.220291
0.212176
0.201962
0.188148
0.177717
0.167944
0.15943
0.149801
0.140097
0.130963
0.121464
0.113337
0.0996979
0.0922336
0.0832658
0.073748
0.0640085
0.0541766
0.0443062
0.0344147
0.0244839
0.014497
0.00470292
0.728175
0.721869
0.715068
0.70248
0.690284
0.678424
0.667297
0.65708
0.649504
0.641724
0.631913
0.629972
0.616602
0.603748
0.591869
0.581809
0.571657
0.561337
0.551383
0.53954
0.525189
0.525837
0.516601
0.504773
0.493503
0.48533
0.477405
0.466418
0.456105
0.443685
0.433998
0.424596
0.418075
0.407708
0.399103
0.388551
0.371572
0.363767
0.354574
0.34476
0.334007
0.323181
0.312632
0.307707
0.294283
0.285921
0.283797
0.271029
0.263501
0.251088
0.240367
0.228822
0.219951
0.214884
0.203389
0.186491
0.177482
0.167865
0.159007
0.149961
0.139719
0.131946
0.114669
0.114071
0.103173
0.0935012
0.0837845
0.0739952
0.0641399
0.0542524
0.0443537
0.0344452
0.0245089
0.0145189
0.00471269
0.724455
0.72206
0.720426
0.701698
0.690009
0.677758
0.667353
0.657443
0.647906
0.649366
0.629955
0.628827
0.61668
0.604688
0.593175
0.582207
0.571457
0.561204
0.549934
0.536126
0.530642
0.529309
0.519033
0.506999
0.495778
0.485616
0.475842
0.465823
0.456873
0.44014
0.432444
0.421403
0.420791
0.405311
0.399325
0.385518
0.3718
0.363866
0.355137
0.345584
0.334449
0.323482
0.31557
0.304395
0.295654
0.286066
0.279278
0.271945
0.262639
0.251409
0.239606
0.227519
0.21669
0.218052
0.199268
0.189603
0.177541
0.167324
0.158521
0.149873
0.137244
0.130817
0.114337
0.112775
0.105076
0.0950046
0.0844883
0.074336
0.0643108
0.0543482
0.0444098
0.0344787
0.0245268
0.0145266
0.00471399
0.727358
0.721724
0.715567
0.705837
0.690365
0.675232
0.666846
0.65708
0.646857
0.642674
0.633324
0.626584
0.616311
0.605226
0.594116
0.583023
0.571781
0.560899
0.549552
0.538614
0.532617
0.528045
0.521575
0.508387
0.496794
0.485449
0.474504
0.46427
0.452584
0.440783
0.43226
0.421474
0.413195
0.406452
0.396229
0.383342
0.377236
0.365914
0.356227
0.348544
0.334693
0.32087
0.312018
0.305758
0.300106
0.285512
0.275604
0.272759
0.262801
0.251232
0.239061
0.224862
0.216341
0.209196
0.192717
0.191426
0.176312
0.165381
0.158424
0.148855
0.136894
0.134097
0.116035
0.108941
0.10633
0.0957756
0.0847781
0.0745085
0.0644254
0.0544266
0.0444619
0.0345151
0.024554
0.0145483
0.00473165
0.729387
0.721303
0.713115
0.703635
0.689575
0.677579
0.667991
0.656517
0.642911
0.641923
0.633474
0.626323
0.616629
0.605659
0.594708
0.583978
0.571822
0.560975
0.549615
0.538889
0.532941
0.527739
0.518748
0.507973
0.497467
0.484916
0.472513
0.463933
0.453376
0.442887
0.430857
0.421117
0.410455
0.407994
0.396318
0.384561
0.37585
0.36591
0.355644
0.345791
0.334865
0.32546
0.319132
0.307067
0.296662
0.286487
0.277549
0.2714
0.261556
0.251846
0.240774
0.222006
0.215113
0.208078
0.195453
0.188406
0.177303
0.161816
0.160015
0.148431
0.138972
0.129546
0.119704
0.111059
0.105079
0.0945085
0.0845861
0.0745441
0.0644781
0.0544708
0.0444979
0.0345396
0.0245679
0.0145521
0.00472042
0.731168
0.720358
0.713733
0.703286
0.68804
0.677856
0.671467
0.654627
0.640682
0.639435
0.632962
0.629111
0.617789
0.605938
0.59502
0.585619
0.571516
0.561589
0.549198
0.536193
0.532497
0.529105
0.517567
0.507275
0.49807
0.484416
0.470111
0.464825
0.453002
0.441891
0.430428
0.421293
0.414135
0.406626
0.396055
0.385813
0.375647
0.365408
0.35461
0.344231
0.333624
0.327338
0.321954
0.311769
0.294465
0.286662
0.277851
0.271901
0.261198
0.253622
0.242241
0.224916
0.213479
0.202483
0.195009
0.186143
0.176199
0.164304
0.157049
0.146823
0.136228
0.128809
0.122734
0.112593
0.10452
0.0925296
0.0844112
0.0745025
0.0644896
0.0544933
0.0445184
0.0345572
0.0245828
0.0145702
0.00474021
0.732642
0.715356
0.715708
0.701901
0.688963
0.674451
0.667241
0.654245
0.641443
0.639205
0.63784
0.62779
0.616487
0.605313
0.595289
0.586096
0.573389
0.563417
0.54821
0.539611
0.532886
0.524639
0.513547
0.506643
0.497282
0.485001
0.474479
0.460898
0.451498
0.440831
0.429864
0.421502
0.418435
0.406331
0.394946
0.38648
0.375652
0.364899
0.353206
0.343588
0.330301
0.326998
0.327991
0.310846
0.296357
0.288089
0.277214
0.275754
0.260894
0.259297
0.242417
0.22548
0.211806
0.200091
0.193676
0.184871
0.17612
0.165973
0.156286
0.145521
0.130999
0.127785
0.126404
0.112855
0.102639
0.0942899
0.0846661
0.0745702
0.0645142
0.0545059
0.0445219
0.0345568
0.0245809
0.0145609
0.00472807
0.732119
0.713253
0.714047
0.698598
0.686454
0.675119
0.667552
0.655594
0.645408
0.639333
0.634062
0.629633
0.613434
0.603406
0.59611
0.588282
0.572394
0.55919
0.549701
0.54818
0.534117
0.521997
0.50714
0.506885
0.496027
0.484657
0.473682
0.461929
0.451449
0.440318
0.42903
0.425426
0.41702
0.405867
0.392276
0.387426
0.37646
0.364397
0.350998
0.345796
0.332567
0.32371
0.324632
0.318661
0.29452
0.291974
0.280512
0.273284
0.263336
0.252454
0.241447
0.224724
0.215328
0.201182
0.193551
0.184287
0.175863
0.166271
0.15673
0.145716
0.133514
0.124593
0.126055
0.110313
0.0994321
0.0967347
0.084939
0.0745458
0.0644735
0.0544815
0.0445139
0.0345558
0.024585
0.0145732
0.00473554
0.725253
0.715339
0.708328
0.696871
0.685731
0.673307
0.669399
0.654914
0.647944
0.639484
0.629436
0.62406
0.611157
0.59983
0.596798
0.585708
0.573913
0.559034
0.555203
0.542996
0.53322
0.5224
0.511742
0.505252
0.494172
0.483805
0.473457
0.462542
0.452082
0.441657
0.431584
0.423881
0.41712
0.408421
0.391936
0.385534
0.376011
0.365348
0.353756
0.343776
0.331869
0.326366
0.324046
0.316292
0.29737
0.290483
0.280222
0.271166
0.262588
0.246757
0.242642
0.224124
0.21683
0.203244
0.193913
0.184664
0.175778
0.166463
0.157728
0.146397
0.140178
0.12401
0.117996
0.109194
0.10037
0.0937451
0.0842289
0.0743411
0.0643987
0.0544404
0.0444877
0.0345408
0.0245741
0.0145608
0.00472674
0.725656
0.715597
0.706156
0.696251
0.685851
0.675286
0.665958
0.652463
0.64951
0.642184
0.632982
0.622054
0.607619
0.600736
0.59421
0.583275
0.573271
0.556242
0.555705
0.544621
0.533468
0.523005
0.514359
0.506813
0.491448
0.482886
0.473189
0.462723
0.452853
0.443327
0.433621
0.421227
0.417224
0.406728
0.395263
0.386022
0.376739
0.367495
0.355632
0.341904
0.327492
0.326021
0.317137
0.310976
0.30046
0.290104
0.279606
0.269273
0.260009
0.248623
0.241312
0.220585
0.217923
0.203952
0.193691
0.184888
0.175881
0.166518
0.156413
0.147431
0.141908
0.126364
0.117662
0.108106
0.0998692
0.0925309
0.0837015
0.0741319
0.0643009
0.0543917
0.0444634
0.0345272
0.0245676
0.014562
0.00473056
0.725466
0.71505
0.704666
0.69675
0.686524
0.677103
0.661645
0.652971
0.645869
0.646738
0.635489
0.617559
0.608192
0.601817
0.592844
0.57938
0.568386
0.561669
0.554467
0.546332
0.531302
0.522923
0.515195
0.504496
0.493899
0.484265
0.473122
0.462246
0.453366
0.445446
0.437587
0.421566
0.414164
0.406191
0.396
0.386374
0.377245
0.370758
0.359476
0.341299
0.324432
0.319688
0.31844
0.309787
0.30332
0.290188
0.277197
0.266843
0.259292
0.248445
0.241162
0.223105
0.214232
0.204904
0.193011
0.185472
0.176233
0.167591
0.155809
0.148569
0.140447
0.133403
0.118534
0.106263
0.0984732
0.0930303
0.0839351
0.0741694
0.0642948
0.0543751
0.0444436
0.0345129
0.024556
0.0145536
0.00472627
0.726801
0.715277
0.702494
0.69788
0.686163
0.673617
0.659367
0.654079
0.648426
0.64738
0.631897
0.618891
0.606796
0.603344
0.591473
0.579665
0.571642
0.567853
0.552253
0.543891
0.530955
0.526396
0.516431
0.503619
0.495236
0.486114
0.47456
0.459722
0.452953
0.447397
0.43845
0.422106
0.414683
0.4068
0.396128
0.386329
0.376048
0.37102
0.358234
0.339719
0.328565
0.320874
0.317623
0.307422
0.299307
0.289952
0.278985
0.269504
0.260709
0.244506
0.240982
0.222591
0.214167
0.204979
0.193758
0.187389
0.17574
0.171462
0.163052
0.149953
0.13775
0.128436
0.116871
0.109094
0.0959226
0.0952662
0.0844463
0.0743012
0.0643178
0.0543638
0.0444275
0.0344965
0.0245459
0.0145488
0.00472746
0.730115
0.716607
0.704115
0.695309
0.685027
0.672937
0.66132
0.655564
0.649249
0.64276
0.630744
0.617962
0.611167
0.600388
0.590294
0.579138
0.569443
0.567746
0.548656
0.544899
0.533698
0.525295
0.514878
0.505695
0.495919
0.485427
0.472989
0.460759
0.452144
0.450119
0.436517
0.423123
0.416815
0.408852
0.395606
0.388186
0.371374
0.369679
0.356123
0.342628
0.330908
0.321192
0.31999
0.302116
0.29665
0.290842
0.27923
0.271869
0.257552
0.240704
0.240328
0.224565
0.215381
0.205071
0.192486
0.18382
0.179546
0.178295
0.160577
0.150981
0.132544
0.130416
0.119117
0.111181
0.100119
0.0936273
0.0842108
0.0742919
0.0643236
0.0543626
0.0444154
0.0344801
0.0245314
0.0145399
0.00472627
0.729199
0.714921
0.704449
0.695288
0.682261
0.671966
0.660998
0.656567
0.64927
0.640662
0.631008
0.615967
0.613141
0.600091
0.589563
0.579288
0.569781
0.56193
0.551531
0.544428
0.532666
0.524441
0.512296
0.508069
0.496806
0.484966
0.472041
0.459188
0.456429
0.447003
0.437963
0.421389
0.419527
0.408374
0.39702
0.387445
0.376202
0.366509
0.356333
0.343724
0.331811
0.323867
0.31378
0.298712
0.294627
0.290766
0.278777
0.268971
0.257097
0.245774
0.238325
0.226601
0.216565
0.207454
0.189676
0.188197
0.180036
0.172564
0.160591
0.14951
0.136765
0.128081
0.116398
0.113438
0.102964
0.0943359
0.0843704
0.0743377
0.0643232
0.0543404
0.0443947
0.034459
0.0245083
0.0145266
0.00472154
0.72437
0.713986
0.703643
0.693642
0.683462
0.67264
0.661148
0.659203
0.649906
0.640627
0.631172
0.618926
0.609757
0.599354
0.589096
0.578979
0.569119
0.559759
0.553397
0.543364
0.530115
0.525832
0.514575
0.506003
0.495878
0.485459
0.471702
0.462367
0.455892
0.44302
0.438978
0.424079
0.417529
0.407595
0.39724
0.38792
0.375582
0.368439
0.359236
0.342617
0.331619
0.324185
0.312135
0.300743
0.293626
0.286497
0.276868
0.266989
0.256089
0.247843
0.238129
0.227655
0.216992
0.206854
0.195507
0.188553
0.179436
0.17066
0.15983
0.149672
0.138549
0.128483
0.11822
0.110785
0.103163
0.0961421
0.0846705
0.0744118
0.0643221
0.054305
0.0443451
0.0344103
0.0244725
0.0145052
0.00472183
0.720793
0.711501
0.702497
0.693377
0.683806
0.674053
0.665083
0.658478
0.650251
0.640122
0.631863
0.622272
0.606989
0.598461
0.588544
0.578411
0.568243
0.557504
0.555634
0.542623
0.533176
0.5245
0.513857
0.504163
0.494229
0.484022
0.472881
0.463333
0.454544
0.44511
0.43574
0.426175
0.417041
0.407125
0.39684
0.386252
0.374269
0.370409
0.357355
0.342957
0.33297
0.324616
0.311773
0.303048
0.292781
0.284291
0.274722
0.266335
0.25399
0.250838
0.239026
0.22844
0.216854
0.207522
0.197431
0.188236
0.178973
0.169813
0.159693
0.149459
0.139189
0.129376
0.118765
0.109367
0.1024
0.0986013
0.0842806
0.0743051
0.0642365
0.0542265
0.0442698
0.0343453
0.0244255
0.0144756
0.00470933
0.716266
0.708645
0.701584
0.693851
0.684465
0.675304
0.666975
0.658177
0.651993
0.637905
0.631809
0.620129
0.609301
0.598866
0.588239
0.578006
0.568038
0.561366
0.554942
0.539421
0.535985
0.523873
0.511863
0.502731
0.491863
0.482665
0.472932
0.463367
0.453728
0.443759
0.435607
0.427799
0.417528
0.406942
0.39639
0.385844
0.375434
0.367448
0.355801
0.34338
0.333136
0.323006
0.313449
0.304884
0.292
0.283736
0.272792
0.269298
0.255773
0.24838
0.238484
0.230401
0.214618
0.209051
0.198155
0.188478
0.179044
0.16947
0.159466
0.149302
0.139365
0.131186
0.11859
0.1085
0.105907
0.0959837
0.0848158
0.0742767
0.0641161
0.0541021
0.0441572
0.0342536
0.0243572
0.0144375
0.00469547
0.716015
0.705464
0.701124
0.695719
0.68506
0.675897
0.667679
0.656504
0.649848
0.64069
0.632156
0.622211
0.611027
0.599446
0.587992
0.577958
0.567183
0.566057
0.554778
0.541785
0.533342