/*--------------------------------*- C++ -*----------------------------------*\
  =========                 |
  \\      /  F ield         | OpenFOAM: The Open Source CFD Toolbox
   \\    /   O peration     | Website:  https://openfoam.org
    \\  /    A nd           | Version:  12
     \\/     M anipulation  |
\*---------------------------------------------------------------------------*/
FoamFile
{
    format      ascii;
    class       surfaceScalarField;
    location    "0.2";
    object      phi.water_0;
}
// * * * * * * * * * * * * * * * * * * * * * * * * * * * * * * * * * * * * * //

dimensions      [0 3 -1 0 0 0 0];

internalField   nonuniform List<scalar> 
7375
(
1.3492e-07
2.75554e-08
1.12536e-07
2.12963e-08
1.00116e-07
1.24202e-08
1.01027e-07
1.19138e-09
1.15479e-07
-1.43235e-08
1.31332e-07
-1.70721e-08
1.37367e-07
-6.05865e-09
1.40187e-07
-2.96302e-09
1.21007e-07
1.90303e-08
1.27062e-07
-7.36525e-09
1.37229e-07
-1.01673e-08
1.45483e-07
-6.85754e-09
1.75417e-07
-2.97916e-08
1.85238e-07
-9.8119e-09
1.70703e-07
1.62883e-08
2.84266e-07
4.29092e-08
1.43255e-07
-1.70829e-08
1.34073e-07
9.1781e-09
1.19834e-07
1.44474e-08
1.14512e-07
5.3032e-09
1.36239e-07
-2.18428e-08
1.07304e-07
2.87571e-08
1.09546e-07
-1.12818e-09
6.9333e-08
-1.21871e-08
1.11383e-07
8.9894e-09
1.01425e-07
9.90295e-09
8.78936e-08
1.3515e-08
6.3291e-08
2.45908e-08
4.01276e-08
2.32059e-08
1.54259e-07
3.99794e-08
4.59358e-08
-4.53504e-08
6.43455e-08
-1.79627e-08
7.12292e-08
-6.12677e-09
1.99961e-07
2.81774e-08
8.23573e-08
-3.97523e-08
7.7442e-08
4.81798e-09
7.19904e-08
5.39049e-09
6.05456e-08
1.15034e-08
3.31068e-08
2.74728e-08
1.80899e-08
1.50581e-08
3.07373e-08
-1.26281e-08
-1.38814e-08
-6.93047e-09
4.56336e-08
-8.27935e-09
5.9862e-08
-1.37949e-08
7.96588e-08
-1.96209e-08
1.09211e-07
-2.83676e-08
2.25823e-07
3.77871e-08
1.2029e-07
-5.10223e-08
9.55694e-08
2.58763e-08
9.45666e-08
1.00609e-09
1.11528e-07
-1.69725e-08
1.27959e-07
-1.65321e-08
1.11908e-07
1.6061e-08
2.11983e-07
5.4625e-08
9.04077e-08
-3.36938e-08
1.17993e-07
-2.75615e-08
1.25646e-07
-6.39696e-09
1.20617e-07
5.08934e-09
1.18469e-07
1.03165e-09
3.88537e-08
2.80602e-08
1.93443e-07
5.04861e-08
6.28188e-08
-2.30141e-08
8.48854e-08
-2.13052e-08
1.12703e-07
-2.81487e-08
1.16293e-07
-3.57338e-09
1.11058e-07
5.2806e-09
9.06241e-08
1.93611e-08
8.63312e-08
4.25018e-09
9.37804e-08
-6.52394e-09
1.14589e-07
-2.18042e-08
1.36407e-07
-2.29643e-08
1.28906e-07
7.50085e-09
8.18963e-08
4.70077e-08
8.29051e-09
7.36038e-08
3.92678e-08
-6.97828e-08
-2.19568e-08
-5.47673e-08
5.87531e-08
-5.73734e-08
1.51538e-08
-5.5395e-08
-7.86045e-10
-5.2401e-08
-1.71708e-08
-6.44481e-08
-5.02426e-09
-8.31377e-08
1.26315e-08
-1.02851e-07
1.67513e-08
-1.35529e-07
-5.09041e-11
-9.29311e-08
1.79681e-09
-6.93076e-08
-3.38942e-08
-8.43469e-08
-4.35766e-08
-2.26646e-08
-3.97146e-08
-1.32358e-08
-1.92401e-08
-1.65871e-08
1.98091e-08
1.72465e-08
8.64278e-09
-6.39991e-09
6.73966e-09
-2.25231e-08
2.5072e-08
-4.56092e-08
3.75337e-08
-6.72357e-08
2.67096e-08
1.92047e-08
4.83964e-08
-9.26071e-08
-1.33335e-08
-8.48417e-08
-9.8382e-09
-9.29189e-08
-3.98504e-09
-8.52237e-08
1.29422e-09
-8.6711e-08
1.13906e-08
-8.57052e-08
1.25093e-08
-7.70505e-08
1.59365e-08
-7.74157e-08
2.27812e-08
-1.02539e-07
1.28108e-08
-1.06809e-07
1.12615e-08
-1.18529e-07
-6.24199e-09
-1.18343e-07
-6.31282e-09
-8.24456e-08
-8.00751e-09
-1.34456e-07
1.36295e-08
-1.31765e-07
2.12767e-09
-1.25712e-07
-2.00752e-09
-8.85398e-08
-2.56682e-08
-1.01878e-07
4.03988e-08
-9.20039e-08
5.18429e-09
-9.8754e-08
-5.93864e-09
-1.00542e-07
-5.14234e-09
-8.9544e-08
-1.93617e-08
-5.00733e-08
-5.38143e-08
-9.56582e-08
2.5964e-08
2.51956e-08
6.05605e-09
-9.28476e-08
-7.79421e-10
-2.04623e-08
3.29444e-08
-1.60872e-07
1.12175e-08
-1.49675e-07
-1.00871e-08
-1.46535e-07
-2.18302e-08
-6.44294e-08
5.82405e-08
-8.7925e-08
4.06959e-08
-1.48968e-07
-3.80407e-08
-1.53955e-07
-3.02264e-08
-1.53407e-07
-2.81094e-08
-1.66418e-07
6.61424e-09
-1.80857e-07
2.13221e-08
-1.57716e-07
-2.23352e-08
-1.69156e-07
3.78914e-08
-1.07981e-07
-1.07996e-08
-1.59156e-07
2.79264e-08
-1.68147e-07
-1.40307e-08
-1.57177e-07
-3.8719e-08
-1.50306e-07
-8.8419e-09
-1.48755e-07
5.19374e-09
-1.36473e-07
8.3719e-09
-1.24761e-07
-7.46229e-09
-1.12018e-07
-1.92023e-08
-1.05282e-07
-2.83221e-08
-9.82719e-08
-2.99741e-08
-9.97539e-08
8.98212e-09
-1.05131e-07
5.23831e-08
-1.08876e-07
7.73465e-08
4.03644e-08
-3.32362e-08
2.80693e-08
-1.51704e-07
-2.94746e-08
-1.0174e-07
1.69494e-08
-1.13366e-07
1.08416e-08
-1.20365e-07
-1.01716e-08
-1.37568e-07
1.21798e-08
-1.47664e-07
2.27279e-08
-1.3995e-07
9.03759e-09
-1.37024e-07
-3.00658e-09
-1.19097e-07
-1.613e-08
-1.19829e-07
-3.31617e-08
-1.2969e-07
-3.37149e-08
-1.49897e-07
-1.95076e-08
-1.33537e-07
-3.55993e-08
-1.51321e-07
3.72141e-08
-1.41633e-07
-9.67213e-10
-1.32163e-07
-2.72926e-09
-1.20382e-07
1.32908e-08
-1.12867e-07
2.96361e-08
-1.10538e-07
2.43814e-08
-8.99658e-08
2.73306e-08
-1.48149e-07
4.4714e-08
-1.67675e-07
9.68849e-09
-1.51513e-07
-2.01473e-08
-1.60498e-07
1.02792e-08
-1.4314e-07
-5.96683e-09
-1.0681e-07
-2.3821e-08
-1.23086e-07
3.18878e-08
-1.12657e-07
1.23526e-08
-1.07738e-07
7.76118e-09
-1.14751e-07
1.82741e-08
-1.35524e-07
1.45317e-08
-1.46653e-07
4.81586e-09
-1.32333e-07
-2.23276e-08
-1.58615e-07
-1.18467e-08
-1.55327e-07
-1.13911e-09
-1.69585e-07
1.2251e-08
-3.36555e-08
4.57814e-08
-1.30271e-07
-1.66948e-08
-1.12327e-07
-1.52345e-08
-1.21267e-07
-4.98044e-08
-1.31831e-07
5.84178e-08
-1.60938e-07
8.10446e-09
-7.02455e-08
1.23704e-08
-1.96535e-07
-5.40657e-08
-1.42895e-07
4.17496e-09
-1.39055e-07
-4.61912e-09
-1.72092e-07
6.56462e-08
-2.21076e-07
1.06981e-08
-2.26332e-07
4.36779e-08
-1.2231e-07
2.89923e-08
-1.15453e-07
5.32146e-08
-1.73126e-07
-5.47863e-08
-1.74254e-07
-3.90669e-08
-1.66602e-07
-3.78784e-08
-1.68079e-07
-2.66318e-08
-1.59052e-07
-2.41291e-09
-1.59813e-07
2.04532e-08
-6.45091e-08
3.90081e-08
-1.73482e-07
-9.62274e-09
-9.39943e-08
6.65903e-08
-2.4846e-07
-2.3685e-08
-2.59215e-07
-6.31279e-10
-2.74943e-07
2.86358e-08
-2.83125e-07
-5.77167e-10
-2.64602e-07
-1.05511e-08
-2.40041e-07
-1.61898e-08
-2.22513e-07
-2.49907e-08
-2.14949e-07
-2.67666e-08
-2.14079e-07
-2.91922e-08
-2.1743e-07
-2.66234e-08
-2.08723e-07
2.73609e-10
-1.90456e-07
3.41138e-08
-1.5914e-07
4.60283e-08
2.1548e-08
-1.08477e-07
-1.642e-08
-1.29232e-07
-8.71797e-09
-1.18695e-07
6.41312e-09
-1.1833e-07
1.0478e-08
-1.3341e-07
4.90867e-09
-1.58833e-07
3.76037e-08
-1.65531e-07
2.94269e-08
-1.62196e-07
4.0482e-09
-1.67713e-07
2.51126e-09
-1.73736e-07
-8.39567e-09
-1.61647e-07
-4.57163e-08
-1.92256e-07
-3.1062e-09
-2.43999e-07
3.22357e-08
-1.1318e-07
-9.98549e-09
-2.34419e-07
2.37673e-09
-2.40175e-07
2.37298e-09
-1.94821e-07
-4.51717e-08
-1.76999e-07
-4.53034e-09
-1.68273e-07
2.09101e-08
-1.77256e-07
3.33651e-08
-1.96838e-07
4.69127e-08
-2.00209e-07
-3.63717e-09
-2.03292e-07
1.27722e-08
-1.85741e-07
1.40613e-08
-2.13166e-07
-1.40547e-08
-2.07178e-07
-1.20781e-08
-1.06793e-07
8.30719e-08
-2.08023e-07
-2.0591e-08
-1.84318e-07
-1.34742e-08
-1.7217e-07
-4.38646e-09
-1.53432e-07
-4.63755e-10
-1.3539e-07
-3.51066e-09
-1.04508e-07
-2.60655e-08
-1.22855e-07
-3.98046e-09
-1.4478e-07
-4.16811e-08
-1.43492e-07
-2.42661e-09
-1.48295e-07
1.70539e-08
-9.47386e-08
4.39839e-08
-1.04274e-07
-7.40541e-09
-1.80009e-07
5.8664e-08
-1.04679e-07
3.22567e-08
-1.82588e-07
-6.96411e-08
-1.94791e-07
2.01025e-08
-1.86998e-07
4.4513e-09
-2.03684e-07
1.43796e-08
-1.88154e-07
-1.13545e-08
-7.84272e-08
4.09308e-08
-2.36265e-07
1.64481e-08
-2.08233e-07
3.65502e-08
-1.94411e-07
2.83336e-08
-7.00201e-08
5.91765e-08
-1.87724e-07
-3.34873e-08
-1.60188e-07
-3.16394e-08
-1.64099e-07
-3.67897e-08
-1.72854e-07
-2.91233e-08
-1.63646e-07
-3.62096e-08
-1.8215e-07
1.59289e-08
-1.58156e-07
-3.54003e-09
-1.36404e-07
1.5466e-08
-4.11224e-08
5.14432e-08
-1.50749e-07
2.068e-08
-1.94064e-07
1.96298e-08
-2.1293e-07
1.82341e-08
-2.0311e-07
1.91075e-08
-2.05349e-07
3.75707e-09
-1.94236e-07
-1.9612e-08
-1.87889e-07
-2.25374e-08
-1.96744e-07
-1.61361e-08
-2.11732e-07
-1.1779e-08
-2.20282e-07
-2.06428e-08
-2.21409e-07
-2.54963e-08
-2.15988e-07
-5.14916e-09
-1.94065e-07
1.21887e-08
-1.68117e-07
2.00776e-08
8.96073e-09
-2.01686e-07
-1.5159e-08
-2.08854e-07
-1.54831e-09
-2.07898e-07
5.45829e-09
-2.11081e-07
1.36621e-08
-2.10804e-07
4.63213e-09
-2.23721e-07
-1.23736e-09
-2.16714e-07
2.24197e-08
-1.96217e-07
3.5311e-08
-1.99718e-07
5.98724e-09
-2.34269e-07
2.3766e-08
-1.64127e-07
4.10195e-08
-1.81289e-07
1.57302e-08
-3.21707e-07
-3.43817e-08
-1.66738e-07
4.20819e-08
-2.80909e-07
-3.87045e-08
-2.80922e-07
-4.65313e-08
-2.54945e-07
-1.99117e-08
-2.55486e-07
-6.59024e-09
-2.5421e-07
1.94364e-08
-2.30253e-07
9.40826e-09
-2.2863e-07
-4.13629e-09
-1.95903e-07
1.48722e-08
-1.84446e-07
-6.82204e-10
-1.77767e-07
7.38254e-09
-2.01042e-07
7.16921e-09
-8.83944e-08
3.30629e-08
-1.40502e-07
-1.76368e-08
-1.47698e-07
-1.50382e-08
-1.40409e-07
-2.07628e-08
-1.28702e-07
-1.60934e-08
-1.21126e-07
-8.03948e-09
-1.14933e-07
-9.70324e-09
-1.13562e-07
-2.74371e-08
-1.47009e-07
-2.2292e-08
-1.49961e-07
1.30295e-08
-1.59538e-07
7.15059e-09
-1.51994e-07
9.50999e-09
-1.34535e-07
2.51528e-08
-1.76621e-08
3.29383e-08
-2.09152e-07
4.3298e-08
-2.09977e-07
3.27531e-08
-1.048e-07
3.29509e-08
-2.07582e-07
-3.08243e-08
-2.03419e-07
-1.84821e-09
-1.56027e-07
-3.30127e-08
-7.31088e-08
6.03889e-08
-3.28845e-08
7.06749e-10
-1.73361e-07
-5.01112e-08
-8.64861e-08
1.43459e-09
-8.68387e-08
2.89756e-08
-7.16807e-08
4.3415e-08
-1.09479e-07
4.31095e-09
-1.19456e-07
-2.19846e-08
-1.36057e-07
-2.01888e-08
-1.7634e-07
9.45783e-09
-8.34903e-08
2.8386e-08
-1.95955e-07
-2.44724e-08
-1.88832e-07
-1.26613e-08
-1.61237e-07
-1.04844e-08
-1.14704e-07
4.43513e-09
-1.76252e-07
2.96011e-08
-1.60818e-07
5.59544e-08
-1.98202e-07
5.61915e-08
-1.97433e-07
1.83383e-08
-2.02445e-07
1.08332e-08
-2.16223e-07
-3.81041e-09
-2.35476e-07
-3.28508e-09
-2.50045e-07
-1.56767e-09
-2.47025e-07
-1.47991e-08
-2.30762e-07
-3.69058e-08
-2.15378e-07
-4.08815e-08
-2.03079e-07
-1.74489e-08
-1.87844e-07
-3.04911e-09
-1.70315e-07
2.54583e-09
3.18521e-09
-2.14766e-07
-1.58013e-08
-2.14458e-07
-1.85513e-09
-2.03449e-07
-5.54987e-09
-2.01711e-07
1.19253e-08
-2.05781e-07
8.70251e-09
-2.33231e-07
-2.55454e-08
-2.17736e-07
6.92506e-09
-2.00754e-07
1.83301e-08
-1.65002e-07
2.1772e-08
-1.73133e-07
3.18979e-08
-1.73536e-07
4.10046e-08
-1.9138e-07
3.35745e-08
-2.32425e-07
6.66339e-09
-2.00352e-07
1.00101e-08
-2.23122e-07
-1.59341e-08
-2.40845e-07
-2.88085e-08
-2.3003e-07
-3.09295e-08
-2.28893e-07
-5.39123e-09
-2.13589e-07
4.13279e-09
-2.02162e-07
-4.19742e-09
-1.86862e-07
-1.94367e-08
-1.47409e-07
-2.44289e-08
-1.31557e-07
-1.65331e-08
-1.28381e-07
4.20664e-09
-1.18252e-07
-2.96024e-09
-8.52424e-08
-2.8348e-10
-1.1104e-07
7.98125e-09
-1.29234e-07
3.15629e-09
-1.24295e-07
-2.57017e-08
-1.10994e-07
-2.9395e-08
-1.05951e-07
-1.3082e-08
-1.14224e-07
-1.44555e-09
-1.00167e-07
-4.14939e-08
-1.40277e-07
1.76381e-08
-1.21208e-07
-6.10111e-09
-1.56719e-07
4.22303e-08
-1.74105e-07
2.68963e-08
-1.89853e-07
3.89641e-08
-4.55224e-08
4.56157e-08
-2.43087e-07
3.42908e-08
-2.23424e-07
1.53697e-08
-1.55941e-07
1.67042e-08
-1.85556e-07
-5.00774e-09
-2.31672e-07
-8.02381e-09
-9.07128e-08
3.63528e-08
-1.484e-07
-3.52764e-08
-1.26037e-07
-2.31703e-08
-1.25486e-07
-5.11833e-08
-1.22381e-07
-1.6705e-09
-1.51649e-07
5.82436e-08
-1.25653e-07
1.72441e-08
-1.28718e-07
7.3762e-09
-1.42192e-07
-8.51029e-09
-1.49208e-07
-1.46949e-08
-1.64505e-07
-2.61112e-08
-1.33845e-07
5.03372e-08
-1.71076e-07
1.1143e-08
-1.7624e-07
-7.4972e-09
-1.65298e-07
-2.31124e-08
-1.49939e-07
-1.2424e-08
-1.53343e-07
3.4551e-08
-1.15109e-07
1.81103e-08
-1.55614e-07
4.44038e-08
-1.76944e-07
9.30149e-08
-1.78586e-07
1.4296e-08
-1.92881e-07
1.227e-08
-2.17141e-07
2.09737e-08
-2.31095e-07
1.23863e-08
-2.20929e-07
-2.49654e-08
-2.04143e-07
-5.36926e-08
-1.94685e-07
-5.03408e-08
-1.87576e-07
-2.45592e-08
-1.79742e-07
-1.08856e-08
-1.70348e-07
-6.85093e-09
9.4039e-10
-1.99218e-07
-3.66018e-09
-1.88376e-07
-1.26961e-08
-1.8482e-07
-9.10498e-09
-1.64239e-07
-8.65411e-09
-1.7739e-07
-2.99051e-08
-1.93917e-07
-9.01807e-09
-1.88217e-07
1.22591e-09
-1.81177e-07
1.31386e-08
-1.18691e-07
1.05228e-08
-1.45049e-07
5.64696e-08
-1.39519e-07
3.54754e-08
-1.33331e-07
2.73871e-08
-1.39642e-07
1.29743e-08
-1.27936e-07
-1.69604e-09
-1.25848e-07
-1.80217e-08
-1.33457e-07
-2.1199e-08
-1.34344e-07
-3.00418e-08
-1.25194e-07
-1.45407e-08
-1.23273e-07
2.25434e-09
-1.22579e-07
-4.89111e-09
-1.30356e-07
-1.16595e-08
-1.33443e-07
-2.1342e-08
-1.25123e-07
-2.48529e-08
-1.1242e-07
-6.08756e-08
-1.37284e-07
2.1904e-08
-9.79768e-08
1.20453e-08
-9.63355e-08
6.34011e-09
-1.23361e-07
3.0493e-08
-1.60598e-07
1.15356e-08
-1.69103e-07
-2.08903e-08
-1.7682e-07
-7.16798e-09
-2.39351e-07
8.88396e-09
-9.63162e-08
2.59319e-08
-1.88742e-07
-4.50955e-08
-7.30614e-08
3.39034e-08
-1.84533e-07
7.31107e-10
-1.82673e-07
2.31535e-08
-1.95265e-07
4.95641e-08
-5.21427e-08
5.89008e-08
-2.07933e-07
-1.64231e-08
-2.16005e-07
2.3442e-08
-1.67367e-07
1.99954e-08
-1.80993e-07
8.6186e-09
-1.98545e-07
9.61045e-09
-1.69657e-07
9.19562e-09
-1.90281e-07
-1.50079e-08
-2.07158e-07
-1.03482e-08
-1.1865e-07
1.71865e-08
-1.10628e-07
-8.48165e-09
-2.12908e-07
-4.43405e-08
-1.72606e-07
2.81784e-08
-1.64048e-07
-2.91195e-09
-1.68922e-07
-3.63684e-09
-1.77181e-07
-8.24314e-09
-7.89987e-08
3.28534e-08
-1.65327e-07
-1.7292e-08
-1.68947e-07
1.49149e-08
-1.80865e-07
4.42179e-09
-2.05242e-07
1.26422e-09
-2.20489e-07
2.95007e-09
-2.32487e-07
-5.56248e-09
-1.17539e-07
1.09085e-07
-1.15139e-07
4.15507e-08
-2.24971e-07
-4.18898e-09
-1.86931e-07
2.99215e-08
-1.83664e-07
1.09807e-08
-1.79431e-07
1.67406e-08
-1.65747e-07
-1.29855e-09
-1.5322e-07
-3.74927e-08
-1.54272e-07
-5.26404e-08
-1.66719e-07
-3.78946e-08
-1.73719e-07
-1.75613e-08
-1.74111e-07
-1.04965e-08
-1.72113e-07
-8.85085e-09
3.48483e-10
-2.24755e-07
4.48686e-09
-2.16354e-07
-2.10964e-08
-1.75491e-07
-5.04817e-08
-1.95784e-07
1.16403e-08
-2.10153e-07
-1.55359e-08
-2.16289e-07
-2.8818e-09
-2.21287e-07
6.22461e-09
-2.33115e-07
2.49669e-08
-6.86701e-08
2.16364e-09
-1.85495e-07
1.93898e-08
-1.69988e-07
1.80771e-08
-1.57321e-07
1.47201e-08
-1.59511e-07
1.51651e-08
-1.44575e-07
-1.66316e-08
-1.3727e-07
-2.53262e-08
-1.33715e-07
-2.47539e-08
-1.51059e-07
-1.28286e-08
-1.39332e-07
-2.6267e-08
-1.6802e-07
3.06299e-08
-1.70473e-07
-2.43794e-09
-1.69408e-07
-1.27236e-08
-1.72213e-07
-1.87278e-08
-1.76547e-07
-2.23207e-08
-8.91848e-08
8.64036e-09
-2.28495e-07
-4.25806e-08
-1.57861e-07
-7.3519e-09
-1.58715e-07
3.96377e-09
-1.62718e-07
3.44969e-08
-1.80722e-07
3.11998e-08
-1.90093e-07
-1.16386e-08
-2.30767e-07
3.11518e-08
-2.70811e-07
-3.45511e-09
-2.4178e-07
2.13003e-09
-2.41459e-07
5.3647e-09
-2.31867e-07
2.15018e-08
-2.32018e-07
8.80471e-10
-2.18715e-07
9.85058e-09
-1.87826e-07
1.86758e-08
-1.44626e-07
1.50999e-08
-1.84388e-07
2.33392e-08
-2.43526e-07
3.08202e-08
-2.02994e-07
3.12226e-08
-2.06388e-07
1.20134e-08
-2.01439e-07
4.66092e-09
-1.93449e-07
1.20667e-09
-2.0164e-07
-6.97005e-09
-1.7499e-07
-3.73794e-08
-1.66632e-07
8.5656e-09
-1.69202e-07
-5.91115e-09
-2.09779e-07
-3.76321e-09
-2.19645e-07
-1.11858e-08
-1.86569e-07
1.52483e-08
-1.74178e-07
-1.79311e-08
-1.41401e-07
-4.10202e-08
-1.16204e-07
7.32123e-09
-9.20447e-08
-4.23898e-08
-1.51228e-07
2.18062e-08
-1.5827e-07
6.41116e-08
-1.67052e-07
1.01492e-08
-2.19149e-07
5.44914e-08
-1.34171e-07
6.61051e-08
-1.82062e-07
3.26624e-09
-1.53391e-07
1.1022e-08
-1.66966e-07
9.38633e-09
-1.53786e-07
1.6741e-08
-1.43536e-07
2.30615e-09
-1.29248e-07
3.88773e-09
-1.13619e-07
-1.69288e-08
-1.1729e-07
-3.38218e-08
-1.36657e-07
-3.32738e-08
-1.54521e-07
-2.00313e-08
-1.62423e-07
-9.66123e-09
-1.66044e-07
-6.87799e-09
-1.69331e-07
-5.56621e-09
1.02108e-09
-1.73176e-07
1.07578e-08
-1.97765e-07
1.4762e-09
-1.01342e-07
9.9747e-09
-2.33748e-07
-6.19556e-08
-1.78968e-07
-1.85562e-08
-1.79339e-07
-5.48285e-08
-1.8457e-07
1.14566e-08
-2.31748e-07
7.14166e-08
-9.42074e-08
7.26204e-08
-1.94071e-07
-3.42591e-08
-1.61422e-07
-1.6551e-08
-1.45647e-07
-1.05515e-09
-1.25078e-07
-5.40341e-09
-1.29954e-07
-1.17548e-08
-1.30712e-07
-2.45687e-08
-1.15607e-07
-4.14607e-08
-2.2852e-07
4.77928e-08
-9.16212e-08
4.7136e-08
-2.0097e-07
-1.37298e-08
-1.91273e-07
-1.41851e-08
-1.83776e-07
-2.20945e-08
-1.8773e-07
-1.47736e-08
-1.58316e-07
-5.03328e-08
-1.59502e-07
9.73786e-09
-2.07961e-07
5.87915e-09
-2.10744e-07
-4.6435e-09
-1.97368e-07
-9.41248e-09
-2.1023e-07
4.65324e-08
-1.92827e-07
1.19518e-08
-9.60929e-08
4.85047e-08
-2.28531e-07
9.29313e-09
-2.87697e-07
5.57461e-08
-3.0792e-07
2.2353e-08
-3.07086e-07
4.58545e-09
-3.05511e-07
-2.87145e-08
-2.9243e-07
3.86447e-08
-2.76017e-07
-9.54499e-09
-2.50532e-07
-6.80952e-09
-2.33804e-07
-1.628e-09
-2.07102e-07
-3.363e-09
-2.14832e-07
-1.32086e-08
-1.80852e-07
-2.75702e-09
-1.90311e-07
7.24923e-08
-2.08465e-07
2.30504e-08
-2.01128e-07
-6.13063e-09
-2.38864e-07
2.83298e-08
-1.49759e-07
3.19366e-08
-2.32265e-07
-6.17488e-08
-2.32262e-07
-8.2829e-09
-2.57174e-07
2.09349e-08
-2.57097e-07
-1.1262e-08
-2.25862e-07
-1.58317e-08
-2.15145e-07
-2.86478e-08
-2.14706e-07
-4.14586e-08
-1.97922e-07
-6.1222e-08
-7.41733e-08
4.08975e-08
-1.04389e-07
5.23309e-08
-2.10015e-07
1.39076e-08
-1.10357e-07
6.63411e-08
-2.08025e-07
-4.35231e-10
-1.77807e-07
3.37648e-08
-1.68892e-07
-5.55863e-09
-1.65833e-07
8.04518e-09
-1.66759e-07
1.03117e-08
-1.62054e-07
1.20363e-08
-1.66769e-07
8.72116e-09
-1.59928e-07
-1.28552e-09
-1.57792e-07
-1.90658e-08
-1.6033e-07
-3.12844e-08
-1.70561e-07
-2.30431e-08
-1.75781e-07
-1.48119e-08
-1.72261e-07
-1.31834e-08
-1.71911e-07
-7.22997e-09
-1.72253e-07
-5.22658e-09
-1.98152e-10
-1.21277e-07
2.13795e-09
-1.14968e-07
-4.83177e-09
-1.041e-07
-9.93919e-10
-1.61195e-07
-4.90994e-09
-1.54329e-07
-2.69958e-08
-5.97542e-08
7.47439e-09
-6.21605e-08
1.51071e-08
-1.50528e-07
6.07617e-09
-1.32032e-07
5.20572e-08
-1.72713e-07
6.07378e-09
-1.63252e-07
-2.60119e-08
-1.37367e-07
-2.694e-08
-1.28167e-07
-1.46036e-08
-1.54296e-07
1.43749e-08
-1.88341e-07
7.5557e-09
-1.19922e-07
4.69974e-08
-2.67894e-07
-1.04289e-08
-1.78775e-07
9.87794e-09
-2.07162e-07
1.45173e-08
-2.16609e-07
-4.73805e-09
-1.98923e-07
-4.01902e-08
-2.43481e-07
2.74516e-08
-1.53995e-07
1.7058e-08
-2.76101e-07
-2.1861e-08
-2.91519e-07
2.15163e-08
-3.10811e-07
1.45004e-08
-2.09497e-07
4.66882e-08
-3.20211e-07
3.03806e-10
-1.9938e-07
4.46987e-08
-1.79742e-07
3.04052e-08
-1.80754e-07
1.03055e-08
-2.76876e-07
-3.40901e-09
-2.73169e-07
1.86461e-08
-2.91269e-07
2.29197e-08
-2.09088e-07
4.65146e-08
-2.74074e-07
-4.96877e-08
-2.23999e-07
-6.24159e-08
-1.94264e-07
-3.65444e-08
-1.9265e-07
-3.2426e-09
-2.02771e-07
6.7587e-09
-2.26642e-07
1.06621e-08
-8.49965e-08
1.17418e-08
-1.8184e-07
1.3653e-08
-2.15955e-07
2.99875e-09
-2.05045e-07
3.69214e-08
-2.11242e-07
3.45267e-08
-2.12715e-07
3.09138e-08
-1.33998e-07
1.59403e-08
-1.73633e-07
3.4491e-08
-2.80211e-07
-2.61959e-08
-2.50852e-07
-4.34802e-08
-2.35596e-07
-3.10872e-08
-2.33261e-07
-3.09829e-08
-2.48442e-07
-2.6277e-08
-1.64341e-07
9.85365e-09
-1.18705e-07
-3.52807e-09
-1.90027e-07
-3.00551e-08
-1.7395e-07
-3.96694e-09
-1.39273e-07
3.09881e-08
-1.43196e-07
3.48255e-09
-1.32783e-07
-2.70526e-08
-1.09543e-07
2.11188e-08
-1.22823e-07
-3.20968e-08
-1.11516e-07
2.57362e-10
-9.28852e-08
4.5164e-08
-9.26786e-08
9.45962e-09
-1.10383e-07
1.75198e-08
-1.24364e-07
-5.08512e-09
-1.23888e-07
-3.17606e-08
-1.29924e-07
-1.70082e-08
-1.43235e-07
-1.50129e-09
-1.5471e-07
-1.70985e-09
-1.60912e-07
-1.03087e-09
-1.67526e-07
1.38456e-09
1.91005e-10
-1.3859e-07
3.41639e-08
-1.55597e-07
1.21766e-08
-1.63776e-07
5.51526e-09
-2.05073e-07
-1.59045e-08
-2.02206e-07
2.3989e-08
-1.01277e-07
6.17468e-08
-1.07696e-07
2.15262e-08
-1.0867e-07
8.2216e-09
-1.74539e-07
-3.5782e-08
-1.98646e-07
2.84001e-08
-1.76769e-07
-4.74048e-08
-1.5076e-07
-5.29486e-08
-1.44092e-07
-2.12714e-08
-1.52605e-07
2.28882e-08
-4.46929e-08
5.49213e-08
-1.478e-07
-4.14354e-09
-1.39595e-07
-2.00436e-08
-1.29001e-07
-2.1552e-09
-1.21328e-07
8.16081e-09
-1.45025e-07
1.74797e-08
-7.58827e-08
4.75454e-08
-2.12712e-07
9.87949e-09
-1.91032e-07
-4.7966e-09
-2.20901e-07
5.75526e-09
-2.60513e-07
1.15212e-08
-2.30417e-07
3.82715e-08
-2.26192e-07
4.01127e-08
-2.55482e-07
2.95974e-08
-1.90802e-07
-2.04378e-08
-1.73739e-07
1.33421e-08
-2.01396e-07
3.79626e-08
-2.21981e-07
1.71765e-08
-2.33049e-07
2.73367e-08
-2.50413e-07
3.98729e-08
-2.14033e-07
1.26891e-08
-2.53407e-07
-6.25791e-08
-2.04869e-07
-5.91956e-08
-1.95644e-07
-4.5769e-08
-1.77914e-07
-2.09722e-08
-1.92828e-07
2.16727e-08
-2.24675e-07
4.25089e-08
-1.02064e-07
4.49907e-08
-2.00177e-07
-4.18051e-08
-1.89207e-07
-1.00438e-08
-1.68843e-07
1.65578e-08
-1.5192e-07
1.76037e-08
-1.41837e-07
1.93844e-08
-8.12695e-09
3.89431e-08
-1.24098e-07
-5.70735e-08
-1.87322e-07
3.67612e-08
-1.89912e-07
1.08693e-08
-1.96216e-07
-2.47831e-08
-1.90859e-07
-3.63396e-08
-1.7502e-07
-4.03301e-08
-1.52363e-07
-1.28042e-08
-1.33691e-07
-2.35143e-08
-1.50371e-07
-1.3681e-08
-1.4396e-07
-1.03781e-08
-1.18089e-07
5.11683e-09
-1.33355e-07
1.87481e-08
-2.13679e-08
1.66252e-08
-1.20195e-07
-3.32148e-08
-1.22826e-07
-3.03646e-08
-9.79487e-08
-2.46199e-08
-5.46993e-08
1.9143e-09
-5.49739e-08
9.83408e-09
-5.66347e-08
1.97353e-08
-8.56232e-08
2.44691e-08
-1.18285e-07
9.01109e-10
-1.39287e-07
3.99266e-09
-1.53426e-07
1.26368e-08
-1.67256e-07
1.21191e-08
-1.71226e-07
2.93659e-09
-1.72562e-07
2.71783e-09
5.67423e-11
-2.0881e-07
2.62548e-08
-2.14914e-07
1.82819e-08
-2.06268e-07
-3.12969e-09
-1.94338e-07
-2.79567e-08
-2.32503e-07
6.21545e-08
-2.17522e-07
4.67663e-08
-2.19981e-07
2.39862e-08
-2.33821e-07
2.20611e-08
-1.24953e-07
1.02625e-08
-2.33174e-07
-6.80351e-08
-1.84792e-07
-4.45501e-08
-1.66816e-07
-7.28094e-08
-1.92631e-07
4.54396e-09
-1.47046e-07
-2.2697e-08
-1.04484e-07
1.23596e-08
-1.36044e-07
2.71398e-08
-1.48888e-07
-7.40406e-09
-1.44865e-07
-6.15543e-09
-1.28337e-07
-8.36727e-09
-1.22899e-07
1.20424e-08
-1.19826e-07
4.23335e-08
-1.8004e-07
1.76196e-08
-1.64815e-07
3.32354e-08
-1.88466e-07
2.94059e-08
-2.09869e-07
3.24761e-08
-1.82589e-07
1.14992e-08
-1.93142e-07
5.01543e-08
-2.37255e-07
2.19517e-08
-1.17928e-07
6.72709e-08
-1.11073e-07
6.48785e-09
-1.96575e-07
-3.18125e-08
-1.7478e-07
-4.61845e-09
-1.82363e-07
3.67803e-08
-1.62721e-07
1.98278e-08
-1.64846e-07
1.31546e-08
-1.85584e-07
-4.22726e-08
-1.89198e-07
-5.55816e-08
-2.09038e-07
-2.59288e-08
-2.30796e-07
7.86444e-10
-2.3408e-07
2.49568e-08
-2.34886e-07
4.57108e-08
-1.78047e-07
-1.17297e-08
-1.83254e-07
-3.88406e-08
-1.42002e-07
-5.18252e-08
-1.53028e-07
2.75842e-08
-1.42623e-07
7.19858e-09
-1.26786e-07
3.51243e-09
-9.00848e-08
9.35048e-10
-3.74309e-08
4.71501e-08
-2.24594e-07
1.72704e-08
-2.13562e-07
-1.62992e-10
-2.18392e-07
-1.99529e-08
-1.95718e-07
-5.90133e-08
-1.68868e-07
-1.54213e-08
-1.76435e-07
-5.53268e-08
-1.4334e-07
-5.31842e-09
-1.47043e-07
-1.14409e-08
-1.60737e-07
3.31561e-09
-1.66283e-07
1.06632e-08
-1.84439e-07
3.53837e-08
-4.9607e-08
-1.31108e-08
-1.16477e-07
-6.86522e-08
-1.04331e-07
-4.36993e-08
-1.0587e-07
-2.30805e-08
-8.69707e-08
-1.78728e-08
-1.28341e-07
2.34076e-10
-9.09776e-08
3.54646e-08
-1.11491e-07
4.49821e-08
-1.46887e-07
3.62968e-08
-1.57395e-07
1.44996e-08
-1.58442e-07
1.36837e-08
-1.61059e-07
1.47342e-08
-1.65305e-07
7.17946e-09
-1.67872e-07
5.2823e-09
3.73518e-10
-2.11025e-07
-4.13971e-08
-1.77062e-07
-1.7833e-08
-1.92417e-07
1.02636e-08
-6.03076e-08
-3.18777e-09
-1.73272e-07
2.02509e-08
-1.52168e-07
2.56627e-08
-1.69887e-07
4.21363e-08
-1.70789e-07
2.29632e-08
-1.66181e-07
5.65466e-09
-2.22091e-07
-1.21246e-08
-2.23336e-07
-4.3759e-08
-1.37424e-07
-3.44416e-09
-2.57059e-07
-8.28568e-08
-1.96746e-07
-3.12502e-08
-1.83788e-07
1.27692e-09
-1.64486e-07
7.8377e-09
-1.73844e-07
2.76436e-10
-1.6925e-07
-1.07499e-08
-1.54527e-07
-2.30899e-08
-1.08673e-07
-3.30397e-08
-1.08649e-07
4.34069e-08
-1.1565e-07
2.45133e-08
-1.2517e-07
4.15884e-08
-1.72391e-07
7.7109e-08
-1.92784e-07
5.0922e-08
-1.03315e-07
7.79852e-08
-1.89717e-07
-1.62734e-08
-1.76449e-07
6.74915e-09
-1.49859e-07
4.027e-08
-1.37915e-07
-5.45589e-09
-1.34896e-07
-3.48314e-08
-1.3091e-07
-8.60418e-09
-1.7538e-07
2.9491e-08
-1.32057e-07
2.87591e-08
-1.19699e-07
-4.23664e-10
-1.81456e-07
-3.31497e-08
-1.57166e-07
-2.62616e-08
-2.0613e-07
2.30356e-08
-2.23616e-07
1.80878e-08
-2.19086e-07
2.04265e-08
-2.05819e-07
-1.72155e-08
-1.45399e-07
-2.10311e-08
-1.66219e-07
-2.14186e-08
-6.34641e-08
2.29787e-09
-1.79999e-07
-6.22692e-08
-1.78965e-07
7.9903e-09
-1.66519e-07
4.02151e-08
-8.27436e-08
7.23211e-08
-7.65608e-08
4.13305e-08
-2.29659e-07
-3.66677e-08
-2.08548e-07
-2.12733e-08
-2.0102e-07
-2.74808e-08
-1.99247e-07
-9.12072e-09
-1.60732e-07
-5.39365e-08
-1.88284e-07
-2.5854e-08
-1.51682e-07
-4.19734e-08
-1.56641e-07
-8.02952e-09
-1.55074e-07
1.74881e-09
-1.76884e-07
3.03589e-08
-1.72932e-07
-2.06483e-08
-9.60316e-08
-3.59873e-08
-1.28327e-07
-3.74395e-08
-1.09338e-07
-6.26885e-08
-1.11071e-07
-2.13478e-08
-1.12063e-07
-1.68806e-08
-1.35434e-07
2.47319e-08
-1.38314e-07
3.9698e-08
-1.49824e-07
5.64919e-08
-1.66188e-07
5.266e-08
-1.74378e-07
2.26887e-08
-1.74599e-07
1.3904e-08
-1.71975e-07
1.21092e-08
-1.72273e-07
7.47439e-09
-1.72424e-07
5.43115e-09
-1.39419e-10
-1.70806e-07
1.18678e-08
-1.96664e-07
8.02628e-09
-2.39521e-07
1.36311e-09
-8.6451e-08
5.1693e-08
-1.79705e-07
-4.02032e-08
-1.24639e-07
-3.25079e-08
-1.85409e-07
5.06139e-08
-1.64797e-07
5.60026e-08
-1.93158e-07
3.40154e-08
-2.16991e-07
1.17092e-08
-2.05168e-07
-5.55821e-08
-2.11356e-07
2.74497e-09
-2.21365e-07
-7.28478e-08
-2.17474e-07
-3.51407e-08
-2.23633e-07
7.43553e-09
-2.33929e-07
1.82142e-08
-2.4422e-07
1.05678e-08
-2.45441e-07
-9.5288e-09
-2.51591e-07
-1.95067e-08
-1.40405e-07
1.2523e-08
-2.28583e-07
-2.20414e-08
-2.14662e-07
1.08426e-08
-2.19764e-07
4.76005e-08
-1.99487e-07
5.68327e-08
-1.66099e-07
1.80532e-08
-1.53658e-07
6.31817e-08
-1.01126e-07
8.70076e-08
-8.82283e-08
-4.21673e-09
-1.30161e-07
-7.15062e-08
-8.84215e-08
-4.8523e-08
-8.01899e-08
-4.30629e-08
-6.968e-08
-1.91139e-08
-7.05321e-08
2.96236e-08
-8.6316e-08
4.45431e-08
-9.20186e-08
5.22082e-09
-1.81442e-07
4.32286e-09
-1.76399e-07
2.23058e-08
-2.24113e-07
2.12765e-08
-2.07012e-07
5.22236e-08
-1.98317e-07
9.62009e-09
-1.73167e-07
-4.2366e-08
-1.32196e-07
-6.35651e-08
-1.89851e-07
-1.62229e-08
-1.44038e-07
1.01573e-08
-1.91568e-07
-1.47391e-08
-2.03531e-07
-2.97291e-08
-1.78658e-07
6.63145e-08
-1.55886e-07
4.6989e-08
-1.44737e-07
3.01815e-08
-1.53499e-07
-2.79055e-08
-1.35756e-07
-3.90158e-08
-1.38514e-07
-2.61362e-08
-1.75241e-07
-2.46862e-08
-1.88815e-07
1.31847e-08
-2.2503e-07
1.03615e-08
-1.39806e-07
2.76513e-08
-1.52991e-07
5.20795e-09
-1.12738e-07
-3.73536e-08
-1.83198e-07
-5.10402e-08
-1.61638e-07
-4.22177e-08
-1.62834e-07
-3.84561e-08
-2.02485e-07
-5.17601e-08
-1.78835e-07
-3.25136e-08
-1.76681e-07
-2.32649e-08
-1.85095e-07
-6.57885e-09
-1.75123e-07
1.63632e-08
-1.67508e-07
3.20823e-08
-1.59708e-07
4.86919e-08
-1.55934e-07
4.8885e-08
-1.59043e-07
2.5797e-08
-1.60642e-07
1.55024e-08
-1.62459e-07
1.39245e-08
-1.65757e-07
1.07704e-08
-1.68659e-07
8.33012e-09
1.13691e-10
-1.69868e-07
6.91259e-08
-2.10698e-07
4.88579e-08
-2.37148e-07
2.7814e-08
-1.88788e-07
3.33332e-09
-2.13723e-07
-1.56775e-08
-8.94199e-08
-1.53364e-09
-2.01503e-07
-4.48554e-08
-1.64515e-07
1.90157e-08
-1.61793e-07
3.12931e-08
-2.10043e-07
5.99597e-08
-8.9197e-08
3.06084e-08
-2.073e-07
-8.53178e-08
-1.54389e-07
-7.47623e-08
-1.79407e-07
-1.00199e-08
-1.77425e-07
5.45377e-09
-1.7196e-07
1.27501e-08
-2.03319e-07
4.23591e-08
-1.9026e-07
-2.25881e-08
-2.36888e-07
-2.22204e-08
-1.92557e-07
1.7184e-08
-2.29589e-07
1.3006e-08
-2.27247e-07
8.52432e-09
-2.11358e-07
3.17123e-08
-1.91532e-07
-1.25961e-08
-3.33061e-08
6.68633e-08
-3.16882e-08
6.18873e-08
-8.45274e-08
-1.47406e-08
-1.11808e-07
-2.95577e-08
-1.08089e-07
-2.44447e-08
-1.09411e-07
-4.72003e-08
-1.37664e-07
-1.48105e-08
-1.40475e-07
-1.61374e-08
-1.13629e-07
2.77711e-09
-9.08188e-08
2.12787e-08
-1.12603e-07
2.7005e-08
-1.36472e-07
2.78638e-08
-1.46728e-07
3.25618e-08
-1.41867e-07
1.64163e-08
-1.19556e-07
3.04451e-08
-1.16482e-07
6.61327e-09
-1.14517e-07
-4.433e-08
-1.00416e-07
-7.95024e-08
-1.62781e-07
-5.98213e-09
-1.59084e-07
5.98793e-08
-2.12074e-07
3.82516e-08
-1.03261e-07
1.77881e-08
-2.02819e-07
1.27049e-08
-1.74223e-07
1.63248e-08
-1.80641e-07
-1.51595e-08
-1.28164e-07
-2.86232e-08
-1.14182e-07
-5.29983e-08
-1.10816e-07
-2.95021e-08
-1.38591e-07
3.34036e-09
-1.52898e-07
2.7492e-08
-1.44765e-07
2.25115e-09
-1.38861e-07
2.03306e-08
-1.73053e-07
-1.28924e-08
-1.55221e-07
-1.66067e-09
-1.91543e-07
-1.52389e-08
-1.99323e-07
-3.72829e-08
-2.54017e-07
1.58421e-08
-2.28532e-07
-7.4126e-08
-2.28756e-07
-2.99558e-08
-2.6433e-07
1.21858e-08
-2.71784e-07
9.50275e-10
-2.57775e-07
5.07165e-09
-2.38837e-07
1.31431e-08
-2.13743e-07
2.35982e-08
-1.9156e-07
2.6701e-08
-1.8436e-07
1.85969e-08
-1.82108e-07
1.32489e-08
-1.78969e-07
1.0784e-08
-1.76034e-07
7.83345e-09
-1.72966e-07
5.25965e-09
-3.06297e-10
-1.63691e-07
4.90312e-08
-1.74023e-07
5.91908e-08
-1.77043e-07
3.0835e-08
-1.853e-07
1.15907e-08
-2.10738e-07
9.761e-09
-2.29157e-07
1.68863e-08
-1.6924e-07
4.99945e-08
-1.6842e-07
1.81969e-08
-1.25955e-07
-1.11724e-08
-2.09946e-07
-6.3085e-08
-1.62737e-07
-1.50938e-08
-1.89593e-07
-9.1401e-09
-8.82606e-08
-2.02611e-08
-2.00158e-07
-5.09401e-08
-1.91155e-07
-5.53416e-09
-1.4539e-07
-3.48534e-08
-1.70577e-07
1.52537e-08
-1.5706e-07
1.73944e-08
-2.33493e-07
4.83555e-09
-1.67081e-07
2.18283e-09
-1.65778e-07
9.7656e-09
-1.72968e-07
1.57153e-08
-1.79702e-07
3.81231e-08
-8.84856e-08
5.14645e-08
-2.34404e-08
1.81833e-09
-1.20772e-07
-4.78166e-08
-8.49527e-08
1.04861e-09
-1.04378e-07
-1.13128e-08
-1.84945e-07
3.83012e-09
-1.66165e-07
-1.23344e-08
-1.88865e-07
9.7173e-09
-1.90451e-07
-1.45508e-08
-1.82845e-07
-6.77262e-09
-1.61888e-07
3.22658e-10
-1.70631e-07
-1.42703e-08
-1.49285e-07
5.7177e-08
-1.24131e-07
5.88469e-09
-9.04158e-08
-1.72989e-08
-7.34007e-08
1.2812e-08
-9.03746e-08
2.35872e-08
-1.38762e-07
3.56402e-09
-8.99315e-08
2.85445e-08
-1.0733e-07
1.23946e-08
-2.1635e-07
1.36224e-08
-2.38075e-07
5.9977e-08
-1.06507e-07
4.25834e-08
-1.94321e-07
-5.36028e-08
-1.52271e-07