/*--------------------------------*- C++ -*----------------------------------*\
  =========                 |
  \\      /  F ield         | OpenFOAM: The Open Source CFD Toolbox
   \\    /   O peration     | Website:  https://openfoam.org
    \\  /    A nd           | Version:  12
     \\/     M anipulation  |
\*---------------------------------------------------------------------------*/
FoamFile
{
    format      ascii;
    class       surfaceScalarField;
    location    "0.2";
    object      phi.water;
}
// * * * * * * * * * * * * * * * * * * * * * * * * * * * * * * * * * * * * * //

dimensions      [0 3 -1 0 0 0 0];

internalField   nonuniform List<scalar> 
7375
(
2.10803e-07
1.50925e-08
7.85403e-08
-2.21861e-08
8.28724e-08
-3.53869e-09
8.96347e-08
-4.94638e-09
1.06989e-07
-1.72418e-08
1.25279e-07
-1.94276e-08
1.32935e-07
-7.68916e-09
1.38704e-07
-5.90597e-09
1.30822e-07
7.76203e-09
1.18776e-07
1.06572e-08
1.23855e-07
-5.07874e-09
1.37083e-07
-1.19582e-08
1.53121e-07
-1.59321e-08
1.60852e-07
-6.06917e-09
2.88505e-07
2.92143e-08
1.50167e-07
-7.15672e-08
1.62543e-07
3.90271e-08
1.67454e-07
-4.96658e-09
1.2925e-07
3.8257e-08
1.3925e-07
-1.0126e-08
1.05558e-07
3.37601e-08
1.28254e-07
-2.2565e-08
1.0586e-07
2.32347e-08
1.01366e-07
4.35193e-09
1.01792e-07
-1.46821e-09
9.1142e-08
1.06091e-08
7.60553e-08
1.50482e-08
5.65822e-08
1.94622e-08
5.03081e-08
6.31482e-09
3.70183e-09
-5.13337e-09
1.70161e-07
3.88402e-08
6.01952e-08
-4.37549e-08
8.97473e-08
-2.80061e-08
5.78527e-08
-2.03117e-08
1.0875e-07
2.20599e-10
9.01029e-08
1.84295e-08
6.27967e-08
2.78693e-08
1.61119e-07
5.6946e-08
2.53867e-08
-1.95805e-08
2.43348e-08
1.35341e-09
2.63113e-08
-1.95412e-09
2.59127e-08
1.42924e-10
3.9158e-08
-1.32453e-08
5.61676e-08
-1.66331e-08
7.9781e-08
-2.34821e-08
8.97077e-08
-8.88198e-09
5.50464e-08
-1.76987e-08
2.09307e-07
5.05458e-08
9.7763e-08
-4.21707e-08
1.07041e-07
-8.28786e-09
1.02389e-07
4.62713e-09
7.16411e-08
3.10885e-08
8.47003e-08
-1.30547e-08
8.45771e-08
-5.10949e-08
1.30052e-07
6.2757e-09
1.25807e-07
5.58319e-09
2.43956e-07
3.86787e-08
1.06132e-07
-1.98815e-08
1.06229e-07
6.5125e-11
1.03496e-07
2.85116e-09
4.28615e-08
8.59074e-09
9.11298e-08
2.9683e-09
1.0125e-07
-9.1021e-09
1.20416e-07
-1.94044e-08
1.20357e-07
9.8453e-11
1.13364e-07
7.03267e-09
9.29021e-08
1.93652e-08
8.83213e-08
4.53516e-09
9.53068e-08
-6.04795e-09
1.15692e-07
-2.14098e-08
1.37024e-07
-2.24882e-08
1.29111e-07
7.91278e-09
8.19896e-08
4.71206e-08
8.48531e-09
7.35035e-08
3.90234e-08
-4.77295e-08
6.67501e-08
-6.63245e-08
-3.32991e-09
-6.66921e-08
-3.20679e-09
-6.21397e-08
-9.49836e-09
-5.65004e-08
-2.27049e-08
-6.83529e-08
-7.57482e-09
-8.07785e-08
4.73665e-09
-9.56956e-08
9.01137e-09
-1.10151e-07
2.22174e-08
-9.61712e-08
-3.3221e-09
-8.0567e-08
-2.07345e-08
-5.82294e-08
-3.42956e-08
-3.37904e-08
-4.0371e-08
-3.19681e-08
-7.89119e-09
-1.5763e-08
1.27112e-08
4.73493e-08
2.01147e-08
-4.52694e-08
-2.25201e-08
5.01936e-08
5.59815e-08
-8.28799e-08
1.4696e-08
1.92211e-08
4.46506e-08
-1.45782e-07
-8.46845e-09
1.92929e-09
3.67399e-08
-9.46244e-08
-3.39205e-08
-8.17481e-08
-9.53394e-09
-8.61574e-08
2.94117e-09
-8.89506e-08
1.34025e-08
-9.52228e-08
2.13204e-08
-8.03976e-08
4.63711e-09
-8.76664e-08
1.26893e-08
-1.15939e-07
2.31391e-08
-8.23982e-08
6.48238e-09
-1.13578e-07
-1.30212e-08
-1.2506e-07
-1.65247e-08
-1.26296e-07
-1.88686e-08
-1.15647e-07
-9.24791e-09
-1.10393e-07
1.31756e-08
-1.06065e-07
2.24152e-08
-8.23385e-08
3.26384e-08
-7.4028e-08
-2.80907e-08
-6.38073e-08
-8.86714e-09
-8.29698e-08
1.72084e-08
-8.61569e-08
3.33018e-09
-7.95242e-08
-2.00129e-08
-7.54707e-08
-2.08995e-08
-5.80271e-08
-4.09256e-08
-1.02544e-07
-1.6124e-08
-8.44801e-08
1.53155e-08
-1.06276e-07
2.00497e-08
-1.09476e-07
1.34423e-08
-1.09516e-07
-8.248e-09
-1.47999e-07
4.16005e-08
-1.70115e-07
9.1235e-10
-1.53561e-07
-2.6041e-08
-1.45988e-07
-7.43073e-09
-1.34886e-07
-6.3158e-09
-1.27604e-07
-1.6984e-09
-1.12727e-07
2.3407e-08
-1.53096e-07
2.20496e-08
-1.78315e-07
2.55421e-08
-1.79452e-07
2.1686e-09
-1.86432e-07
1.5732e-08
-1.46207e-07
-3.72273e-08
-1.48147e-07
-8.6729e-09
-1.50577e-07
-1.68019e-08
-1.44235e-07
-4.70676e-09
-1.43369e-07
7.55212e-09
-1.31888e-07
9.12328e-09
-1.20758e-07
-6.59451e-09
-1.08308e-07
-1.84376e-08
-1.01764e-07
-2.77398e-08
-9.49059e-08
-2.93465e-08
-9.66616e-08
9.66826e-09
-1.02553e-07
5.3011e-08
-1.06761e-07
7.77107e-08
4.0282e-08
-1.51203e-07
-4.29736e-08
-1.04175e-07
1.40119e-09
-1.08167e-07
7.85345e-10
-1.1978e-07
2.11548e-09
-1.2723e-07
-1.52549e-08
-1.34519e-07
-2.84947e-10
-1.42212e-07
1.24296e-08
-1.18898e-07
-1.44501e-08
-1.27598e-07
3.09174e-08
-1.23909e-07
-7.0106e-09
-1.36439e-07
-8.20382e-09
-1.44299e-07
-2.64359e-08
-1.59419e-07
-2.52502e-08
-1.65044e-07
-2.26623e-09
-1.47852e-07
-4.43519e-09
-1.19614e-07
-8.20769e-09
-1.33419e-07
-8.94438e-09
-9.91429e-08
2.11346e-08
-1.07829e-07
2.33824e-08
-9.27475e-08
2.91135e-08
-1.16162e-07
1.49461e-08
-1.10386e-07
3.09642e-08
-1.51703e-07
7.05041e-09
-1.52726e-07
-8.51034e-09
-1.49099e-07
-6.86407e-10
-1.41203e-07
5.50668e-09
-1.47936e-07
2.80537e-08
-1.27431e-07
-1.57077e-08
-1.17186e-07
2.4445e-09
-1.06036e-07
1.17531e-08
-1.16766e-07
1.72123e-08
-1.41862e-07
1.20751e-08
-1.54434e-07
-3.95225e-09
-1.4586e-07
-2.74424e-08
-1.44254e-07
-1.0854e-08
-1.37102e-07
6.15801e-09
-1.32648e-07
1.79611e-08
-1.86925e-07
3.51564e-08
-5.04011e-08
4.24216e-08
-2.81026e-08
-3.14867e-08
-1.58212e-07
-7.95928e-09
-1.16705e-07
-3.81768e-08
-1.23282e-07
-1.4693e-08
-1.66525e-07
-2.99485e-08
-1.59268e-07
5.27493e-09
-1.84716e-07
9.32428e-09
-1.92016e-07
2.26162e-08
-1.93939e-07
2.17676e-08
-2.0722e-07
2.67234e-08
-1.0552e-07
4.48716e-08
-2.32432e-07
-3.89201e-08
-2.1109e-07
-1.82857e-08
-1.79161e-07
-6.66617e-09
-1.59407e-07
-2.90879e-08
-1.46405e-07
-1.93174e-08
-1.47851e-07
-2.5239e-10
-1.21769e-07
-2.6754e-09
-1.186e-07
1.76713e-08
-1.55225e-07
1.01377e-08
-1.54941e-07
5.41999e-08
-2.01795e-07
1.02937e-08
-2.17601e-07
3.23962e-08
-2.4167e-07
1.78608e-08
-2.7382e-07
1.55184e-08
-2.78699e-07
2.21593e-10
-2.59593e-07
-8.84277e-09
-2.35765e-07
-1.47057e-08
-2.1859e-07
-2.37697e-08
-2.11449e-07
-2.55782e-08
-2.10801e-07
-2.83873e-08
-2.14294e-07
-2.58544e-08
-2.05763e-07
1.13764e-09
-1.87651e-07
3.48984e-08
-1.56527e-07
4.65853e-08
2.16173e-08
-1.30551e-07
-2.97931e-08
-1.24734e-07
-4.41495e-09
-1.25529e-07
1.58038e-09
-1.27046e-07
3.63283e-09
-1.39759e-07
-2.54107e-09
-1.53622e-07
1.35779e-08
-1.75936e-07
3.29493e-08
-8.32024e-08
4.96942e-08
-1.81892e-07
-2.48207e-08
-1.57738e-07
-3.14863e-08
-1.99213e-07
3.32716e-08
-2.2017e-07
-5.47902e-09
-2.06399e-07
-3.90208e-08
-2.53016e-07
-4.82688e-09
-2.01419e-07
-6.82931e-09
-2.06813e-07
-4.89001e-09
-1.89086e-07
-2.43127e-08
-1.66728e-07
-1.22363e-09
-1.58676e-07
1.5331e-08
-1.66392e-07
3.68288e-08
-1.878e-07
3.63545e-08
-1.86487e-07
2.93525e-08
-1.8863e-07
9.19309e-09
-1.89945e-07
-7.19527e-09
-1.9837e-07
7.73847e-09
-2.10111e-07
1.74255e-08
-2.13757e-07
-1.76974e-08
-1.82991e-07
4.76272e-09
-1.77792e-07
-4.62187e-09
-1.68761e-07
2.72211e-09
-1.56339e-07
4.79107e-09
-1.4159e-07
-2.67439e-09
-1.19472e-07
-2.60701e-08
-1.26072e-07
-2.08426e-08
-1.25366e-07
-1.15591e-08
-1.23256e-07
4.04723e-09
-1.20652e-07
1.53576e-08
-1.24212e-07
3.8716e-08
-1.14618e-07
3.19854e-08
-2.46888e-08
3.54613e-08
-1.83068e-07
-5.63641e-08
-1.84447e-07
1.49618e-08
-1.72015e-07
-2.68512e-08
-1.9764e-07
-4.01768e-09
-1.9504e-07
2.67492e-09
-2.15329e-07
2.96132e-08
-2.46018e-07
1.54638e-09
-1.89863e-07
1.73716e-08
-1.90137e-07
2.89375e-08
-1.47724e-07
9.66857e-10
-2.3026e-07
-1.01988e-08
-1.96286e-07
3.8514e-09
-1.72293e-07
-3.07263e-08
-1.41715e-07
-6.20569e-08
-1.47871e-07
-1.31609e-08
-1.79344e-07
3.12203e-08
-1.38824e-07
-4.31956e-08
-1.37727e-07
1.64077e-08
-1.4823e-07
1.90252e-08
-1.79448e-07
3.27872e-08
-1.62076e-07
4.64069e-08
-1.80728e-07
5.10478e-08
-1.97975e-07
3.51082e-08
-2.05e-07
2.27013e-08
-2.04022e-07
1.32444e-09
-1.92107e-07
-1.87179e-08
-1.8566e-07
-2.11523e-08
-1.94817e-07
-1.46135e-08
-2.09569e-07
-1.08263e-08
-2.17754e-07
-2.02017e-08
-2.18823e-07
-2.47858e-08
-2.13541e-07
-4.14528e-09
-1.91616e-07
1.29729e-08
-1.65657e-07
2.06249e-08
9.06047e-09
-2.07675e-07
-1.52498e-08
-2.11976e-07
-1.13159e-10
-2.17448e-07
7.05262e-09
-2.20825e-07
7.00995e-09
-2.1928e-07
-4.0851e-09
-2.06313e-07
6.10561e-10
-1.98435e-07
2.50715e-08
-1.75227e-07
2.59793e-08
-2.16098e-07
1.38468e-08
-1.30987e-07
4.02799e-08
-2.57175e-07
-4.62403e-08
-2.55963e-07
-6.6909e-09
-2.55799e-07
1.25748e-08
-2.93488e-07
-1.88962e-08
-2.32779e-07
-1.60131e-08
-2.47996e-07
1.27775e-08
-2.55166e-07
-1.7143e-08
-2.51919e-07
-7.0735e-09
-2.27585e-07
-9.00316e-09
-2.31923e-07
4.07513e-08
-2.166e-07
2.32417e-08
-1.85656e-07
-1.59122e-09
-1.75618e-07
-2.73947e-09
-1.74134e-07
-8.67888e-09
-1.61838e-07
-6.2082e-09
-1.76517e-07
-1.83684e-08
-1.51331e-07
1.0135e-08
-1.38487e-07
-9.57599e-09
-1.33131e-07
-9.97815e-09
-1.32409e-07
2.00008e-09
-1.27429e-07
-1.88914e-10
-1.22779e-07
-7.32387e-09
-1.29806e-07
-1.90432e-08
-1.36783e-07
-1.38651e-08
-1.44763e-07
-3.57929e-09
-1.36757e-07
-3.95844e-09
-1.2748e-07
6.07979e-09
-1.22662e-07
3.26468e-08
-1.79027e-07
3.64336e-08
-1.24008e-07
3.36664e-08
-1.77003e-07
-3.3697e-09
-2.01254e-07
-1.03867e-08
-1.48736e-07
-2.84198e-08
-1.70897e-07
1.66263e-08
-1.59678e-07
-8.54339e-09
-1.40493e-07
-4.0914e-08
-1.45924e-07
6.97767e-09
-9.63939e-08
1.96009e-08
-7.84935e-08
1.10373e-08
-8.5518e-08
8.00142e-09
-1.14795e-07
1.91823e-08
-1.30423e-07
1.94796e-08
-1.61705e-07
-1.40771e-09
-7.26772e-08
5.85368e-09
-1.08023e-07
2.29264e-08
-2.31915e-07
-5.19238e-08
-9.06045e-08
2.34546e-08
-1.90609e-07
-3.72967e-08
-1.83237e-07
1.14613e-08
-1.66981e-07
1.63657e-08
-1.70311e-07
4.85287e-08
-1.59267e-07
4.04152e-08
-1.95929e-07
7.17704e-08
-2.00475e-07
2.72475e-08
-2.03074e-07
5.99509e-09
-2.14765e-07
-4.99682e-09
-2.33223e-07
-2.69492e-09
-2.47327e-07
-5.08815e-10
-2.43666e-07
-1.44882e-08
-2.27558e-07
-3.63094e-08
-2.12582e-07
-3.97622e-08
-2.00631e-07
-1.60966e-08
-1.85488e-07
-2.17103e-09
-1.68021e-07
3.15717e-09
3.34655e-09
-2.13661e-07
-9.06071e-09
-2.15545e-07
1.77091e-09
-2.12396e-07
3.90398e-09
-2.19593e-07
1.42078e-08
-2.14596e-07
-9.08146e-09
-2.1225e-07
-1.73549e-09
-1.9671e-07
9.5316e-09
-1.83942e-07
1.32119e-08
-1.56547e-07
-1.35485e-08
-1.60153e-07
4.30363e-08
-2.17419e-07
1.10262e-08
-2.36915e-07
1.28054e-08
-2.30475e-07
6.13489e-09
-2.34786e-07
-1.71558e-08
-1.4208e-07
4.91174e-08
-2.47381e-07
-3.41957e-08
-2.40316e-07
-2.69065e-08
-2.48111e-07
7.21098e-10
-1.31188e-07
3.06897e-08
-2.15131e-07
-2.90149e-08
-1.73629e-07
-2.04547e-08
-1.49253e-07
-2.59827e-08
-1.37765e-07
-1.4228e-08
-1.2702e-07
-1.94232e-08
-1.07317e-07
-2.59114e-08
-1.25832e-07
3.34549e-10
-1.14949e-07
-6.44745e-10
-1.10583e-07
-1.40857e-08
-1.08221e-07
-1.23404e-08
-1.23704e-07
1.73073e-08
-1.20315e-07
-3.57881e-09
-1.16114e-07
-1.16432e-08
-1.34688e-07
-4.69092e-10
-1.09307e-07
-3.92464e-08
-1.48684e-07
3.57978e-08
-1.28572e-07
-2.40704e-08
-1.38467e-07
1.59752e-08
-1.71402e-07
6.3189e-08
-2.3528e-07
4.81393e-08
-1.82543e-07
3.50891e-08
-1.8704e-07
3.03539e-09
-2.06265e-07
6.75572e-09
-9.45672e-08
1.43409e-08
-1.96589e-07
-3.56639e-08
-1.97408e-07
-5.74689e-08
-1.44611e-07
-4.24747e-08
-1.35447e-07
-3.66181e-09
-1.61882e-07
4.60366e-08
-1.61145e-07
1.02996e-08
-1.50416e-07
-2.72676e-09
-1.18536e-07
-1.26981e-08
-1.47347e-07
4.78035e-08
-1.76858e-07
2.62989e-08
-6.59573e-08
5.17705e-08
-2.2278e-07
2.54043e-08
-1.37116e-07
1.76895e-08
-1.18721e-07
5.05946e-09
-1.33182e-07
-2.18577e-08
-2.12179e-07
-6.5393e-08
-1.83037e-07
-1.66813e-08
-1.76029e-07
4.15933e-08
-8.95815e-08
1.1266e-07
-1.91182e-07
1.90081e-08
-1.74276e-07
1.03408e-08
-1.74771e-07
8.27357e-09
-1.90039e-07
1.20183e-08
-2.14286e-07
2.15521e-08
-2.27906e-07
1.31105e-08
-2.17473e-07
-2.49214e-08
-2.01312e-07
-5.24698e-08
-1.92359e-07
-4.87156e-08
-1.8544e-07
-2.3016e-08
-1.77663e-07
-9.94948e-09
-1.68333e-07
-6.17371e-09
1.14622e-09
-1.93819e-07
6.00262e-09
-1.90007e-07
-2.0414e-09
-1.86121e-07
1.90297e-11
-1.7058e-07
-1.33333e-09
-1.78653e-07
-1.00821e-09
-1.7851e-07
-1.87812e-09
-1.75417e-07
6.43944e-09
-1.83301e-07
2.10963e-08
-8.77904e-08
4.71133e-08
-1.77452e-07
-2.08012e-08
-1.66407e-07
-1.82853e-09
-1.63631e-07
1.00301e-08
-1.73595e-07
1.43274e-08
-6.1166e-08
2.79235e-08
-1.23123e-07
-4.25126e-08
-1.3128e-07
-2.76431e-08
-1.35897e-07
-2.22894e-08
-1.31467e-07
-3.70951e-09
-9.89688e-08
-1.8079e-09
-1.14932e-07
-1.33476e-08
-1.18358e-07
-1.70284e-08
-1.30732e-07
-1.36086e-08
-1.28749e-07
-1.6211e-08
-1.39559e-07
-8.70187e-09
-1.17271e-07
-4.81994e-08
-1.12193e-07
-4.69488e-09
-1.14601e-07
6.00501e-10
-7.76486e-08
1.05839e-07
-1.15598e-07
2.75803e-08
-2.20269e-07
-3.17298e-08
-2.07235e-07
-2.09746e-08
-1.9973e-07
-1.93473e-08
-2.15783e-07
-3.41377e-08
-7.2784e-08
2.45404e-08
-2.2845e-07
-1.55718e-08
-1.10189e-07
6.4704e-08
-1.12544e-07
1.94786e-08
-2.02927e-07
-2.18624e-09
-2.31229e-07
2.15612e-08
-1.63144e-07
2.11228e-08
-1.72111e-07
1.20019e-08
-1.69518e-07
4.23175e-09
-1.61413e-07
6.09049e-09
-1.87449e-07
-9.62845e-09
-2.3348e-07
-1.14376e-08
-1.35511e-07
1.44002e-08
-1.37767e-07
-1.406e-09
-2.34397e-07
-6.4369e-08
-2.11013e-07
-1.30837e-08
-1.95349e-07
3.33684e-08
-9.02485e-08
3.83989e-08
-1.91474e-07
-4.63332e-09
-1.75379e-07
8.25116e-09
-1.39457e-07
1.38975e-08
-1.78309e-07
1.19644e-08
-1.44698e-07
3.76566e-08
-1.4713e-07
7.56901e-09
-1.6459e-07
-4.39815e-09
-2.17793e-07
-1.28574e-08
-2.27255e-07
-7.04833e-09
-2.13506e-07
2.74199e-08
-1.65024e-07
1.11553e-08
-1.74194e-07
2.81774e-08
-1.69503e-07
5.74093e-08
-1.78904e-07
1.94991e-08
-1.78434e-07
1.34714e-08
-1.75239e-07
1.83571e-08
-1.62458e-07
3.30157e-10
-1.50902e-07
-3.64782e-08
-1.52685e-07
-5.06868e-08
-1.65406e-07
-3.5995e-08
-1.72116e-07
-1.63064e-08
-1.72408e-07
-9.65844e-09
-1.7037e-07
-8.21211e-09
5.28695e-10
-2.22897e-07
3.93941e-08
-2.18459e-07
-6.47859e-09
-2.12005e-07
-6.50128e-09
-1.89463e-07
-2.38753e-08
-2.08045e-07
1.75744e-08
-2.06889e-07
-3.03378e-09
-2.12049e-07
1.15995e-08
-2.00539e-07
9.58694e-09
-2.21143e-07
1.82146e-08
-1.73165e-07
-1.75759e-08
-1.73294e-07
-3.46567e-09
-1.6877e-07
5.50605e-09
-1.6764e-07
1.31979e-08
-1.27428e-07
-1.25732e-08
-1.1245e-07
-5.85209e-08
-1.16348e-07
-2.3745e-08
-1.47462e-07
8.82432e-09
-1.70269e-07
1.9098e-08
-1.37747e-07
-3.433e-08
-1.59759e-07
8.57726e-09
-1.45999e-07
-3.11062e-08
-1.72179e-07
1.25715e-08
-1.7599e-07
-1.41952e-08
-1.90443e-07
-4.65407e-08
-1.57377e-07
-2.62262e-08
-1.68134e-07
4.36498e-09
-9.63256e-08
8.30801e-08
-1.70358e-07
2.44977e-08
-1.65667e-07
2.31253e-08
-2.51326e-07
5.36052e-08
-2.57918e-07
-1.70133e-08
-2.58894e-07
-1.8172e-08
-2.63829e-07
-2.38697e-08
-2.2716e-07
-1.21296e-08
-2.5248e-07
7.4316e-09
-2.07701e-07
1.97231e-08
-1.87858e-07
-3.64059e-10
-1.90691e-07
6.25124e-10
-1.75491e-07
6.14087e-09
-1.71356e-07
1.69882e-08
-1.91915e-07
3.25612e-08
-2.00877e-07
1.31935e-08
-2.01041e-07
6.25493e-09
-1.97339e-07
-1.33306e-08
-2.00422e-07
-8.35468e-09
-1.58172e-07
-2.81361e-08
-1.88138e-07
2.85603e-08
-2.24884e-07
-2.73443e-08
-2.2955e-07
-8.41715e-09
-2.03802e-07
7.62063e-09
-1.82225e-07
1.8681e-08
-1.81502e-07
-5.40327e-09
-1.68081e-07
-7.0212e-09
-1.35924e-07
-1.82593e-08
-1.35746e-07
1.16644e-08
-1.31668e-07
3.22351e-08
-1.49001e-07
2.49027e-08
-1.26466e-07
-2.54135e-08
-1.92289e-07
5.29655e-08
-1.98058e-07
-1.26558e-09
-1.89751e-07
-3.10277e-08
-1.78292e-07
5.04242e-08
-1.71007e-07
1.9073e-08
-1.439e-07
3.03023e-08
-1.45812e-07
2.14107e-08
-1.41551e-07
1.07927e-08
-1.26569e-07
4.78939e-09
-1.11801e-07
-1.44381e-08
-1.1662e-07
-3.16586e-08
-1.36098e-07
-3.12092e-08
-1.53662e-07
-1.84318e-08
-1.61285e-07
-8.68376e-09
-1.64789e-07
-6.15535e-09
-1.67914e-07
-5.08807e-09
1.17437e-09
-1.85701e-07
-1.48336e-08
-1.78145e-07
-1.77464e-08
-2.02511e-07
-3.44268e-08
-1.7224e-07
-3.20613e-10
-1.68829e-07
1.41636e-08
-1.98155e-07
2.65635e-08
-2.04896e-07
1.83407e-08
-2.0155e-07
6.17745e-09
-2.28894e-07
-3.86498e-09
-1.68579e-07
-2.68313e-08
-1.51227e-07
-2.25376e-08
-1.42668e-07
-3.05288e-09
-1.31028e-07
1.55854e-09
-1.49241e-07
4.11703e-09
-7.46966e-08
2.38122e-08
-8.54993e-08
-1.23057e-08
-1.85954e-07
-4.59976e-08
-2.22469e-07
3.85406e-09
-1.00679e-07
5.19428e-08
-2.17372e-07
-3.06336e-08
-1.09932e-07
1.6091e-08
-2.16008e-07
-3.55073e-08
-2.05481e-07
-2.49771e-08
-2.17764e-07
-3.60044e-08
-1.33187e-07
4.60741e-08
-1.43109e-07
1.71505e-08
-2.34157e-07
1.95802e-08
-2.09309e-07
-4.87468e-09
-1.32179e-07
1.02873e-07
-2.75668e-07
-8.59303e-09
-2.5508e-07
1.41573e-08
-2.68478e-07
-4.58808e-09
-2.93195e-07
8.47184e-10
-3.05874e-07
4.26117e-10
-3.23301e-07
2.81563e-08
-2.74763e-07
-2.85264e-08
-2.58091e-07
-1.98388e-08
-2.40869e-07
-1.65968e-08
-2.27361e-07
-7.36772e-09
-2.06695e-07
-3.67713e-09
-1.97415e-07
2.32809e-08
-2.05176e-07
2.0955e-08
-1.71481e-07
-2.744e-08
-2.00254e-07
1.54419e-08
-2.21487e-07
1.06194e-08
-1.04931e-07
1.23123e-08
-2.49321e-07
-3.04716e-08
-2.7334e-07
4.79106e-08
-2.82653e-07
-1.8925e-09
-2.47151e-07
-2.75996e-08
-2.25617e-07
-2.85257e-09
-2.1418e-07
-1.68952e-08
-1.99293e-07
-2.19081e-08
-1.94877e-07
-2.26751e-08
-1.83007e-07
-2.05158e-10
-1.79329e-07
-2.32026e-08
-1.74304e-07
1.94257e-08
-6.55224e-08
7.28412e-08
-2.27575e-07
1.03043e-08
-2.1905e-07
3.92335e-08
-1.31812e-07
3.7712e-08
-1.80312e-07
-5.2944e-08
-1.69079e-07
6.00095e-09
-1.57001e-07
1.82242e-08
-1.60119e-07
2.45283e-08
-1.61205e-07
1.35237e-08
-1.57886e-07
3.08145e-09
-1.56223e-07
-1.61012e-08
-1.59295e-07
-2.85867e-08
-1.69532e-07
-2.09721e-08
-1.74492e-07
-1.34724e-08
-1.71026e-07
-1.21501e-08
-1.70696e-07
-6.48664e-09
-1.71007e-07
-4.77721e-09
-2.65268e-11
-1.2026e-07
-1.10694e-08
-1.10538e-07
-2.74687e-08
-1.0719e-07
-3.78083e-08
-1.1742e-07
9.90973e-09
-1.06859e-07
2.51251e-09
-1.5066e-07
1.80726e-08
-1.50475e-07
2.12277e-08
-1.39379e-07
4.63185e-08
-1.52862e-07
8.11365e-09
-1.59173e-07
-2.07945e-08
-1.48287e-07
-3.34228e-08
-1.32533e-07
-1.88075e-08
-1.22976e-07
-7.99783e-09
-1.44804e-07
2.59452e-08
-1.64154e-07
4.1245e-08
-1.94545e-07
-3.42075e-08
-1.80938e-07
-5.86094e-09
-2.06227e-07
2.91438e-08
-1.7687e-07
2.25852e-08
-1.82301e-07
-2.57773e-08
-1.93685e-07
2.73104e-08
-2.1956e-07
-1.18713e-08
-2.66192e-07
-3.06379e-08
-2.50118e-07
2.42135e-09
-2.55786e-07
5.12721e-08
-2.49658e-07
1.10229e-08
-3.15652e-07
3.36711e-08
-1.7976e-07
6.62694e-08
-2.71334e-07
-1.36377e-08
-2.71624e-07
-8.3031e-09
-2.50379e-07
-7.08788e-09
-2.3621e-07
3.30015e-08
-2.50258e-07
1.48959e-08
-2.63022e-07
1.33258e-08
-2.79564e-07
-4.20869e-09
-2.32524e-07
-2.46175e-08
-2.06867e-07
-4.78684e-08
-1.85257e-07
-3.82061e-08
-1.82879e-07
-9.74624e-09
-1.91266e-07
4.70981e-09
-1.81005e-07
1.30203e-08
-2.27269e-07
1.54605e-08
-8.50181e-08
3.69678e-08
-2.19008e-07
-5.84539e-09
-2.33171e-07
2.24045e-08
-1.2246e-07
5.83519e-08
-1.58231e-07
6.54835e-09
-2.69576e-07
-4.77784e-08
-2.51574e-07
-1.73278e-08
-2.44076e-07
1.61387e-08
-2.26644e-07
-2.27743e-08
-2.13808e-07
-2.97316e-08
-2.04673e-07
-3.10425e-08
-2.01029e-07
-2.63197e-08
-2.07645e-07
-4.48898e-08
-2.17754e-07
-1.08714e-08
-1.8479e-07
3.76975e-08
-1.43076e-07
2.92422e-08
-1.64625e-07
3.18536e-08
-1.56126e-07
3.11346e-08
-1.57002e-07
3.82033e-08
-4.40199e-08
-1.10763e-08
-1.33546e-07
-5.97497e-08
-1.00006e-07
-1.53162e-08
-8.99552e-08
1.44775e-08
-8.90183e-08
1.34948e-08
-1.08449e-07
2.36381e-08
-1.23983e-07
-5.67029e-10
-1.23908e-07
-2.86617e-08
-1.30002e-07
-1.48783e-08
-1.43136e-07
-3.38669e-10
-1.54286e-07
-1.00079e-09
-1.60268e-07
-5.05729e-10
-1.66662e-07
1.6164e-09
2.83575e-10
-1.45273e-07
-7.65451e-09
-1.71042e-07
-3.44434e-09
-8.15424e-08
2.95702e-08
-1.87418e-07
-3.86593e-08
-1.63718e-07
-2.11875e-08
-1.86563e-07
-1.10254e-08
-1.75078e-07
9.74265e-09
-1.59352e-07
3.26911e-08
-1.71994e-07
7.19929e-08
-1.7511e-07
-1.94332e-08
-1.46813e-07
-6.17198e-08
-1.48159e-07
-1.72849e-08
-1.25651e-07
-3.05061e-08
-1.11775e-07
1.20696e-08
-1.51134e-07
2.88452e-08
-1.67016e-07
3.3783e-08
-4.3673e-08
2.60731e-08
-1.4459e-07
-2.52162e-08
-1.27668e-07
4.36093e-09
-4.07852e-08
4.42177e-08
-1.81428e-07
-3.90653e-08
-1.87444e-07
4.59036e-08
-2.54784e-07
3.44154e-08
-1.55232e-07
5.97474e-08
-2.77337e-07
1.96838e-08
-1.66801e-07
5.74661e-08
-2.71894e-07
-1.49448e-08
-2.21373e-07
1.29738e-08
-2.55891e-07
2.08811e-08
-2.4898e-07
-1.52144e-08
-2.31898e-07
-2.417e-08
-2.02604e-07
3.70795e-09
-2.11744e-07
2.18758e-08
-2.32406e-07
3.36408e-08
-2.40195e-07
5.95194e-09
-2.16333e-07
-4.87305e-08
-1.99201e-07
-6.50006e-08
-1.86578e-07
-5.08294e-08
-1.68617e-07
-2.77066e-08
-1.76139e-07
1.22319e-08
-1.89388e-07
2.62693e-08
-2.29851e-07
6.44362e-09
-1.52518e-07
1.08713e-08
-1.72817e-07
1.28973e-08
-1.56731e-07
6.31865e-09
-1.06644e-07
7.67019e-09
-9.5417e-08
-5.65217e-09
-1.76237e-07
-1.94516e-08
-1.84803e-07
4.47951e-08
-1.6406e-07
-4.43858e-09
-1.66159e-07
-2.06755e-08
-1.70189e-07
-2.57021e-08
-1.68425e-07
-3.2806e-08
-1.66913e-07
-2.61284e-08
-1.77178e-07
-3.46247e-08
-1.65638e-07
-2.42197e-08
-1.64288e-07
3.63613e-08
-1.44766e-07
9.72042e-09
-1.21751e-07
8.83912e-09
-1.11868e-07
2.12509e-08
-1.42522e-07
1.87441e-08
-8.43628e-08
-1.78194e-08
-1.09643e-07
-3.53304e-08
-8.97472e-08
-3.52118e-08
-3.65682e-08
-3.91004e-08
-5.1674e-08
2.86005e-08
-6.05929e-08
3.30788e-08
-8.84908e-08
2.79366e-08
-1.19748e-07
2.59573e-09
-1.39906e-07
5.27921e-09
-1.53552e-07
1.33073e-08
-1.66904e-07
1.23501e-08
-1.7052e-07
3.10914e-09
-1.71728e-07
2.82391e-09
1.03384e-10
-1.68769e-07
1.85115e-08
-1.92647e-07
2.04335e-08
-1.73016e-07
9.63852e-09
-2.04023e-07
-7.73123e-09
-2.23108e-07
-2.10204e-09
-2.43851e-07
9.7176e-09
-2.45648e-07
1.15406e-08
-2.39249e-07
2.62917e-08
-2.1861e-07
3.29941e-10
-1.97589e-07
1.13049e-08
-1.03576e-07
6.01175e-10
-2.10461e-07
-6.41088e-08
-1.73504e-07
-6.96105e-08
-1.35959e-07
-2.54746e-08
-1.26759e-07
1.96449e-08
-1.31167e-07
3.78054e-08
-1.16906e-07
1.18119e-08
-1.32397e-07
-9.72494e-09
-1.05965e-07
-2.22984e-08
-1.27051e-07
6.29155e-08
-7.13477e-08
6.14749e-08
-1.82099e-07
2.08504e-09
-1.8127e-07
3.32467e-08
-1.74677e-07
5.25448e-08
-2.06109e-07
5.06005e-08
-2.02017e-07
5.39243e-08
-1.9157e-07
-2.55447e-08
-1.93928e-07
1.51773e-08
-2.05427e-07
-1.93792e-08
-1.99704e-07
-2.09373e-08
-1.74752e-07
2.63717e-09
-1.66033e-07
-5.01119e-09
-1.60727e-07
1.82096e-08
-1.59838e-07
3.24127e-08
-1.68131e-07
1.26143e-08
-1.71338e-07
-4.59931e-08
-1.86311e-07
-5.00272e-08
-2.02012e-07
-3.51287e-08
-2.16815e-07
-1.29034e-08
-2.24985e-07
2.04018e-08
-2.20612e-07
2.41479e-08
-2.08112e-07
-5.9962e-09
-1.54825e-07
-4.48861e-08
-1.61568e-07
1.96409e-08
-1.40236e-07
-1.50136e-08
-1.20036e-07
-1.25291e-08
-1.17004e-07
-9.87827e-09
-7.92146e-08
9.98375e-08
-2.3563e-07
-5.01758e-09
-1.82733e-07
-5.57618e-09
-1.92114e-07
-1.12943e-08
-1.86886e-07
-3.09304e-08
-1.76184e-07
-4.35079e-08
-1.85119e-07
-1.71928e-08
-2.00226e-07
-1.98712e-08
-9.6857e-08
2.83872e-08
-1.92823e-07
-2.13821e-08
-1.81353e-07
-3.71638e-09
-1.62165e-07
-1.03489e-08
-1.42016e-07
-3.5034e-10
-1.50993e-07
-2.30148e-08
-8.94032e-08
-2.68282e-08
-9.90887e-08
-2.65569e-08
-1.20768e-07
-1.47649e-08
-1.02777e-08
7.28688e-09
-1.20999e-07
-1.4616e-08
-1.03873e-07
1.68315e-08
-1.17177e-07
4.12404e-08
-1.49043e-07
3.44618e-08
-1.58005e-07
1.42408e-08
-1.58489e-07
1.37915e-08
-1.60858e-07
1.47187e-08
-1.64851e-07
7.10034e-09
-1.67277e-07
5.24988e-09
3.61228e-10
-1.7005e-07
3.68609e-08
-1.57309e-07
5.95854e-09
-1.46925e-07
-2.24375e-09
-2.15135e-07
8.18697e-09
-1.40859e-07
-2.24245e-08
-1.47354e-07
1.62131e-08
-1.8869e-07
5.28767e-08
-1.89961e-07
2.75626e-08
-2.02374e-07
1.27439e-08
-2.00446e-07
9.37617e-09
-1.77686e-07
-2.21583e-08
-2.39447e-07
-5.47605e-08
-2.11814e-07
-4.54846e-08
-1.73206e-07
-6.47431e-08
-1.8038e-07
2.83705e-08
-1.60244e-07
1.76695e-08
-1.64281e-07
1.42135e-08
-1.81321e-07
5.46572e-09
-6.50905e-08
1.90196e-08
-1.4703e-07
-6.77993e-09
-9.14089e-08
4.6713e-09
-1.01639e-07
1.24186e-08
-1.22688e-07
5.32691e-08
-1.60306e-07
9.05466e-08
-1.76614e-07
6.51252e-08
-2.28153e-07
5.13505e-08
-1.24419e-07
8.21935e-08
-2.15379e-07
-4.75715e-08
-1.90411e-07
-4.60743e-08
-1.72852e-07
-3.84961e-08
-1.33202e-07
-3.70132e-08
-1.27035e-07
-1.11778e-08
-1.15565e-07
6.80934e-09
-1.32776e-07
4.99536e-08
-1.24084e-07
2.65734e-09
-1.3932e-07
-3.10773e-08
-1.59414e-07
-2.8512e-08
-1.92314e-07
-2.22906e-09
-2.01584e-07
-3.63292e-09
-2.26585e-07
4.49445e-08
-2.00239e-07
-1.55942e-10
-1.55159e-07
-5.32412e-08
-6.51739e-08
2.04074e-08
-2.19024e-07
-3.28799e-08
-1.71642e-07
-1.06365e-08
-1.79133e-07
-5.03794e-09
-5.275e-08
1.90157e-08
-1.77386e-07
1.62531e-08
-2.04995e-07
2.25917e-08
-1.8686e-07
2.8048e-08
-1.84451e-07
-1.37037e-08
-1.56061e-07
-5.99318e-08
-1.78106e-07
-2.14628e-08
-1.58753e-07
-3.65453e-08
-1.78079e-07
1.27112e-09
-1.68892e-07
1.92008e-08
-1.9338e-07
1.16444e-09
-1.92697e-07
-4.3995e-09
-1.76543e-07
-2.8018e-08
-1.48245e-07
-2.8356e-08
-1.2745e-07
-4.16377e-08
-1.19905e-07
-3.50036e-08
-1.08643e-07
-3.78189e-08
-1.07397e-07
-1.60109e-08
-9.32024e-08
-6.98232e-09
-1.27108e-07
2.03786e-08
-1.40012e-07
3.10058e-08
-1.51796e-07
5.30242e-08
-1.67405e-07
5.00708e-08
-1.74609e-07
2.14449e-08
-1.74299e-07
1.34809e-08
-1.71487e-07
1.19067e-08
-1.71673e-07
7.28494e-09
-1.71742e-07
5.31793e-09
-1.81688e-10
-1.72036e-07
2.28799e-08
-1.84114e-07
1.80364e-08
-1.98327e-07
1.19702e-08
-2.54784e-07
1.28017e-08
-1.06196e-07
3.60243e-08
-1.06931e-07
1.69482e-08
-2.0071e-07
-8.62117e-09
-1.96797e-07
2.36494e-08
-2.05084e-07
2.1031e-08
-2.005e-07
4.7927e-09
-2.19439e-07
-3.21867e-09
-2.34183e-07
-4.00166e-08
-2.39683e-07
-4.24294e-08
-1.35874e-07
-1.02745e-08
-2.3597e-07
-2.38701e-08
-2.30827e-07
1.02993e-08
-2.3225e-07
1.56369e-08
-2.30179e-07
3.39439e-09
-1.88314e-07
-2.49595e-08
-2.29929e-07
-1.73489e-08
-1.93653e-07
2.27801e-08
-1.75657e-07
-5.50703e-09
-2.06629e-07
8.47848e-08
-1.94712e-07
7.863e-08
-1.96906e-07
6.79836e-08
-1.8998e-07
4.19625e-08
-1.44547e-07
-1.53732e-08
-1.43664e-07
-4.59998e-08
-1.12135e-07
-2.63668e-08
-1.01607e-07
-5.01677e-08
-8.9804e-08
-4.88163e-08
-8.3536e-08
-1.82979e-08
1.40996e-08
6.60512e-08
-1.07704e-07
1.63365e-08
-1.04622e-07
-1.49177e-09
-1.48841e-07
1.34616e-08
-1.87827e-07
1.19926e-08
-2.21797e-07
3.1741e-08
-1.36398e-07
6.76366e-08
-2.27793e-07
-1.73688e-08
-1.98231e-07
-3.40645e-08
-7.12415e-08
-2.39018e-08
-1.65723e-07
-4.02806e-08
-1.86286e-07
-1.23165e-08
-1.94378e-07
-2.54446e-09
-2.34231e-07
3.48156e-08
-9.34382e-08
3.41049e-08
-2.12048e-07
-1.88457e-08
-1.86762e-07
-4.85732e-09
-1.55418e-07
-3.29662e-09
-1.47769e-07
-2.28594e-08
-4.66334e-08
-4.19027e-09
-1.69837e-07
-5.30605e-08
-1.66918e-07
-3.98705e-08
-2.00164e-07
3.41687e-08
-1.91411e-07
-4.1539e-08
-1.95779e-07
5.5318e-09
-1.88057e-07
-1.02023e-08
-1.61202e-07
-2.0087e-09
-1.42672e-07
-4.72648e-08
-1.76692e-07
-1.08427e-08
-1.97266e-07
-1.62504e-08
-1.94768e-07
-3.83042e-08
-1.70668e-07
-3.97064e-08
-1.73197e-07
-2.68656e-09
-1.65671e-07
1.43803e-08
-1.65472e-07
3.0807e-08
-1.59401e-07
4.69527e-08
-1.56292e-07
4.69624e-08
-1.59172e-07
2.43244e-08
-1.60522e-07
1.48308e-08
-1.62176e-07
1.35605e-08
-1.65322e-07
1.04298e-08
-1.68072e-07
8.06711e-09
2.23394e-11
-1.8959e-07
3.42103e-08
-2.14742e-07
4.31885e-08
-2.29062e-07
2.62907e-08
-2.1897e-07
2.71008e-09
-1.75038e-07
-7.90685e-09
-1.80836e-07
-2.90124e-08
-1.90513e-07
5.28149e-08
-1.8384e-07
1.69767e-08
-1.76114e-07
1.33046e-08
-1.47727e-07
-2.35937e-08
-1.81578e-07
-2.11264e-08
-1.70308e-07
4.67449e-10
-1.90458e-07
-2.25088e-08
-1.39732e-07
-6.08956e-08
-1.65499e-07
1.63745e-09
-1.50703e-07
-4.54336e-09
-1.88198e-07
5.31325e-08
-1.87472e-07
2.66851e-09
-1.9748e-07
-1.29369e-08
-2.28002e-07
1.09348e-08
-2.36537e-07
2.65279e-08
-1.29574e-07
4.68451e-08
-2.08959e-07
1.02149e-08
-1.75407e-07
4.50785e-08
-1.53788e-07
-5.39496e-09
-1.03969e-07
-6.79599e-09
-9.63966e-08
2.84464e-08
-1.2925e-07
-1.41297e-08
-1.12522e-07
-4.3811e-08
-1.23606e-07
-3.90837e-08
-1.40092e-07
-3.23301e-08
-1.1534e-07
-4.30496e-08
-8.83391e-08
3.7989e-08
-9.7108e-08
2.51055e-08
-1.16094e-07
1.74942e-08
-1.3416e-07
3.10738e-08
-1.47699e-07
2.55315e-08
-1.34586e-07
1.86277e-08
-9.51597e-08
2.82109e-08
-1.14195e-07
1.50514e-09
-1.10936e-07
-3.73234e-08
-1.03301e-07
-3.26804e-08
-1.52222e-07
8.64064e-09
-1.53719e-07
-9.26686e-09
-1.80421e-07
2.41584e-08
-2.18699e-07
2.35651e-08
-1.57886e-07
2.42835e-08
-1.81249e-07
2.7147e-09
-1.70315e-07
-1.57917e-08
-1.37702e-07
-3.59091e-08
-1.16072e-07
-4.44902e-08
-9.464e-08
-2.5579e-08
-1.2083e-07
-2.83931e-08
-5.30625e-08
4.97867e-08
-2.2387e-07
4.95428e-08
-1.19421e-07
8.58177e-09
-2.17558e-07
-5.03897e-08
-2.02988e-07
-2.47728e-08
-2.16117e-07
8.89499e-09
-1.48136e-07
4.15731e-08
-2.60653e-07
-5.22022e-08
-2.59219e-07
-1.75186e-08
-2.62747e-07
-3.20952e-08
-2.34616e-07
-6.78374e-08
-2.58728e-07
2.14524e-08
-2.52208e-07
1.04465e-08
-2.35562e-07
1.4161e-08
-2.11527e-07
2.29176e-08
-1.90293e-07
2.57285e-08
-1.83553e-07
1.75838e-08
-1.81321e-07
1.25986e-08
-1.7811e-07
1.03495e-08
-1.75171e-07
7.48954e-09
-1.72163e-07
5.05803e-09
-3.62531e-10
-1.42557e-07
7.38962e-08
-1.68961e-07
6.95933e-08
-1.87703e-07
4.50329e-08
-1.99035e-07
1.4043e-08
-2.07679e-07
7.36803e-10
-2.24113e-07
-1.25782e-08
-2.02744e-07
-2.01076e-08
-1.92575e-07
6.80786e-09
-1.71262e-07
-8.00808e-09
-1.20396e-07
-2.29349e-08
-1.51992e-07
1.20205e-08
-1.64465e-07
1.12801e-08
-2.47692e-07
6.7307e-09
-1.20849e-07
2.30579e-08
-1.9389e-07
-8.09889e-08
-9.72626e-08
5.37085e-08
-1.69768e-07
-2.86466e-08
-1.57664e-07
-9.43512e-09
-1.8763e-07
1.89436e-08
-1.68502e-07
-8.0834e-09
-1.59255e-07
1.5137e-08
-1.32734e-07
1.98469e-08
-1.36399e-07
1.38802e-08
-1.39025e-07
-4.05498e-09
-1.52541e-07
8.12134e-09
-1.13866e-07
6.28781e-09
-9.55142e-08
1.03852e-08
-1.42779e-07
3.20045e-08
-1.71981e-07
-1.46086e-08
-2.05391e-07
-3.91927e-09
-2.01648e-07
-3.57079e-08
-1.03251e-07
1.48832e-08
-1.85417e-07
-3.35538e-08
-1.63731e-07
1.52866e-09
-1.79687e-07
3.52828e-08
-1.49449e-07
8.27684e-10
-1.17854e-07
-7.58822e-09
-8.2885e-08
-1.63412e-08
-5.93353e-08
4.09777e-09
-7.9602e-08
2.17719e-08
-1.01899e-07
-1.52536e-08
-1.27634e-07
-5.9855e-08
-1.53158e-07
3.50219e-08
-1.70125e-07
5.94587e-08
-1.89364e-07
4.33976e-08
-2.1727e-07
1.92905e-09