/*--------------------------------*- C++ -*----------------------------------*\
  =========                 |
  \\      /  F ield         | OpenFOAM: The Open Source CFD Toolbox
   \\    /   O peration     | Website:  https://openfoam.org
    \\  /    A nd           | Version:  12
     \\/     M anipulation  |
\*---------------------------------------------------------------------------*/
FoamFile
{
    format      ascii;
    class       volVectorField;
    location    "0.2";
    object      U.water_0;
}
// * * * * * * * * * * * * * * * * * * * * * * * * * * * * * * * * * * * * * //

dimensions      [0 1 -1 0 0 0 0];

internalField   nonuniform List<vector> 
3750
(
(-6.50491e-05 0.0140882 0)
(0.00253733 0.0124319 0)
(0.00169507 0.0104263 0)
(0.0013683 0.00892854 0)
(0.000219345 0.0105449 0)
(-0.00174265 0.0123943 0)
(-0.00178317 0.0136633 0)
(-0.00208431 0.0127185 0)
(0.000122235 0.0125067 0)
(9.03908e-06 0.0128339 0)
(0.000132741 0.0128591 0)
(6.55968e-05 0.0132084 0)
(8.29592e-05 0.0158238 0)
(0.000812448 0.0190397 0)
(0.000367539 0.0181225 0)
(0.00264237 0.0221132 0)
(-0.000350962 0.0217333 0)
(0.000889464 0.0141737 0)
(0.000590923 0.0117622 0)
(7.61742e-05 0.0111474 0)
(-0.00159593 0.0122318 0)
(0.00198525 0.01182 0)
(0.000324437 0.00973473 0)
(-0.0010323 0.00881748 0)
(-0.000947337 0.00963422 0)
(-0.000184283 0.0105498 0)
(-5.55843e-05 0.00920994 0)
(0.00214685 0.00496946 0)
(0.00201737 0.00277259 0)
(0.00100949 0.00764727 0)
(-0.0016211 0.00848361 0)
(-0.00111983 0.00512108 0)
(-0.000529207 0.00675188 0)
(0.00148525 0.0134728 0)
(-0.00280115 0.0140741 0)
(-0.000515094 0.00791735 0)
(-0.000341891 0.00689986 0)
(0.00103732 0.00621183 0)
(0.00227678 0.00508878 0)
(0.00115448 0.00199304 0)
(0.000245068 0.000424816 0)
(0.00101054 0.000135006 0)
(-0.000425328 0.00097293 0)
(-0.00049456 0.00313022 0)
(-0.00166121 0.0071792 0)
(-0.00143425 0.00949194 0)
(0.000465709 0.0166666 0)
(-0.00389749 0.0174383 0)
(-0.000295417 0.0105741 0)
(-0.000403095 0.00901865 0)
(-0.00121591 0.00778389 0)
(-0.000493721 0.0101297 0)
(0.00037454 0.0128385 0)
(0.0011486 0.0144121 0)
(-0.00244975 0.0146417 0)
(-0.00242447 0.0109131 0)
(-0.00094555 0.0115566 0)
(-0.000355876 0.0129914 0)
(0.00124254 0.0108099 0)
(0.00471142 0.00594036 0)
(0.00461709 0.0118224 0)
(0.000585772 0.0115575 0)
(-0.000597301 0.00699221 0)
(-0.000378858 0.00986262 0)
(0.0006313 0.0117236 0)
(0.00160184 0.0109094 0)
(0.00168641 0.00978818 0)
(-5.38882e-05 0.00797601 0)
(-0.000845183 0.00784757 0)
(-0.00261569 0.0101295 0)
(-0.00357689 0.0121927 0)
(-0.00153863 0.0139315 0)
(0.00116338 0.0120302 0)
(0.00492449 0.00493062 0)
(0.00420929 -0.00310373 0)
(0.000348138 -0.00461429 0)
(0.00291011 -0.00359361 0)
(0.00139374 -0.00613939 0)
(-0.000891504 -0.0053182 0)
(-0.00198381 -0.00423376 0)
(-0.000675678 -0.00559868 0)
(0.000773709 -0.00710275 0)
(0.00056233 -0.00853748 0)
(0.00105822 -0.00911561 0)
(0.000137905 -0.00937146 0)
(-0.00231896 -0.00836267 0)
(-0.0025477 -0.00470073 0)
(-0.00281274 -0.00219808 0)
(-0.00160574 -0.00267123 0)
(0.00239429 -0.00188863 0)
(0.00347291 0.0003841 0)
(-0.000375701 0.00114696 0)
(0.00158296 -0.000531329 0)
(0.00253789 -0.00346425 0)
(0.00223136 -0.00625741 0)
(0.00150699 -0.00297931 0)
(0.00064582 -0.00396701 0)
(-0.000817301 -0.00976393 0)
(-0.000851893 -0.00746737 0)
(0.00158355 -0.00747051 0)
(0.00113147 -0.00939104 0)
(0.00117399 -0.00686876 0)
(0.00171423 -0.00580954 0)
(0.00126559 -0.00832046 0)
(0.00245113 -0.00652598 0)
(-0.00182802 -0.00729911 0)
(-0.00144962 -0.0113272 0)
(-0.000197143 -0.010866 0)
(0.00130603 -0.00855246 0)
(-0.000786166 -0.00843626 0)
(0.00048548 -0.0108476 0)
(0.00119917 -0.0124302 0)
(0.000532658 -0.0100808 0)
(0.00377043 -0.00969882 0)
(0.00147892 -0.00994949 0)
(-0.00119974 -0.00804841 0)
(-0.000193365 -0.00823258 0)
(-0.00214047 -0.0085932 0)
(-0.00381496 -0.00807269 0)
(-0.00158698 -0.00694734 0)
(-0.000318158 -0.00321138 0)
(0.00266884 -0.00211282 0)
(0.000372767 -0.00304489 0)
(0.000816513 -0.00899157 0)
(-0.000254255 -0.0152733 0)
(-0.00238384 -0.0145166 0)
(0.00245178 -0.00952053 0)
(0.00270965 -0.00752571 0)
(0.00136498 -0.0126261 0)
(-0.00223572 -0.0143669 0)
(-0.00233589 -0.0147227 0)
(-0.000204713 -0.0162791 0)
(0.000666149 -0.0148751 0)
(-0.00235809 -0.0144561 0)
(0.00106145 -0.0171701 0)
(0.000397083 -0.0129159 0)
(-0.00217774 -0.0124253 0)
(-0.00346203 -0.0147591 0)
(-0.00380516 -0.013553 0)
(-0.00167193 -0.0137889 0)
(0.000172178 -0.0144256 0)
(0.0011799 -0.0146404 0)
(0.000786042 -0.0128806 0)
(-7.52299e-05 -0.0118268 0)
(-0.00139144 -0.0106945 0)
(-0.00132571 -0.0108165 0)
(0.00256569 -0.00987422 0)
(0.00708286 -0.00946278 0)
(0.00897468 -0.0108178 0)
(0.00402508 -0.0109784 0)
(0.000615823 -0.00807122 0)
(0.000889205 -0.0059354 0)
(0.00144791 -0.00917509 0)
(0.00128635 -0.00956202 0)
(-8.10624e-05 -0.0111247 0)
(0.00158834 -0.0123555 0)
(0.00148667 -0.0136272 0)
(0.00126427 -0.0143734 0)
(-0.000784665 -0.0139616 0)
(-0.00191217 -0.0128431 0)
(-0.00397574 -0.0113297 0)
(-0.00362269 -0.0112348 0)
(-0.00324074 -0.0146511 0)
(-0.00347526 -0.0136181 0)
(0.00244145 -0.012367 0)
(0.000375308 -0.0141882 0)
(5.68246e-06 -0.013961 0)
(0.00350666 -0.012174 0)
(0.00393956 -0.0105122 0)
(0.00249563 -0.0107651 0)
(0.00374622 -0.010046 0)
(-0.00025038 -0.0116063 0)
(-0.000909533 -0.0143825 0)
(-0.00161142 -0.0136533 0)
(0.000157264 -0.0148595 0)
(0.000136287 -0.0148559 0)
(0.000192348 -0.0123531 0)
(0.00212294 -0.0115481 0)
(0.00232864 -0.0107855 0)
(0.0020566 -0.0109625 0)
(0.00103182 -0.0105206 0)
(0.000558079 -0.0122172 0)
(0.000645221 -0.0139956 0)
(-0.00173082 -0.012047 0)
(-0.000661821 -0.0120354 0)
(-0.000824323 -0.0153322 0)
(-0.000143411 -0.0146087 0)
(-0.000285424 -0.00925491 0)
(0.00110414 -0.00864252 0)
(-0.000354394 -0.0123781 0)
(-0.0027809 -0.009188 0)
(0.000419366 -0.00898772 0)
(-0.000759296 -0.0138482 0)
(-0.0019803 -0.0114841 0)
(0.000236897 -0.0119592 0)
(0.000944073 -0.0162614 0)
(-0.00101656 -0.0136462 0)
(0.00419914 -0.015568 0)
(-0.000216848 -0.0187519 0)
(0.00126031 -0.0212631 0)
(0.000864368 -0.017007 0)
(0.00526536 -0.0116958 0)
(0.000633182 -0.0143348 0)
(-0.00389131 -0.0174596 0)
(-0.00438054 -0.0160808 0)
(-0.00234436 -0.0146724 0)
(0.000922689 -0.0155994 0)
(0.0039978 -0.0160959 0)
(0.00210731 -0.0106165 0)
(0.00116291 -0.00982622 0)
(0.00345052 -0.0110659 0)
(6.30562e-05 -0.016315 0)
(0.00028471 -0.0248108 0)
(-0.000236099 -0.027463 0)
(0.000409468 -0.0278635 0)
(0.000236269 -0.0268184 0)
(-7.70064e-05 -0.0251689 0)
(-0.00250296 -0.0224673 0)
(-0.00400353 -0.0217411 0)
(-0.00448741 -0.0216155 0)
(-0.00406844 -0.0219314 0)
(-0.000250105 -0.0211067 0)
(0.00451055 -0.0198863 0)
(0.00649417 -0.019638 0)
(0.00328746 -0.0138501 0)
(-1.16148e-05 -0.00939114 0)
(-0.00100706 -0.0105414 0)
(0.000249015 -0.0122999 0)
(0.000942301 -0.0119675 0)
(-0.000187989 -0.0121804 0)
(0.00163604 -0.0142814 0)
(0.00231401 -0.0159424 0)
(0.00100724 -0.0161759 0)
(-0.000201931 -0.0155927 0)
(-0.00134034 -0.0144315 0)
(-0.00257107 -0.015556 0)
(-0.00216765 -0.0170046 0)
(0.000404797 -0.0204703 0)
(-0.00032546 -0.0178152 0)
(0.00259684 -0.0176804 0)
(9.11153e-05 -0.0227597 0)
(-0.00210697 -0.0210593 0)
(-0.000813326 -0.01868 0)
(0.000755509 -0.0151956 0)
(0.00108583 -0.0159375 0)
(0.00185814 -0.0179172 0)
(0.00158428 -0.0185598 0)
(0.00121772 -0.019842 0)
(-0.00011723 -0.0197706 0)
(-0.000441483 -0.0196706 0)
(-0.00104541 -0.02053 0)
(0.00227559 -0.0158793 0)
(0.000291832 -0.015793 0)
(-0.000590777 -0.0192948 0)
(-0.000693441 -0.0172704 0)
(0.00146752 -0.0158096 0)
(0.00142712 -0.0138702 0)
(-0.000718917 -0.011301 0)
(-0.000663924 -0.00946602 0)
(-0.00225923 -0.0113359 0)
(0.000742574 -0.0144955 0)
(0.00117392 -0.0132833 0)
(0.00377891 -0.0105827 0)
(-0.00167752 -0.00827154 0)
(0.00074426 -0.0125181 0)
(-0.000483817 -0.014112 0)
(-0.00224612 -0.0141981 0)
(0.00175238 -0.0187405 0)
(0.00214561 -0.0192653 0)
(-0.00227753 -0.0192864 0)
(-0.000454324 -0.0193174 0)
(0.00194358 -0.0137475 0)
(0.00419728 -0.0143542 0)
(0.00367209 -0.0190393 0)
(0.00334689 -0.0187298 0)
(0.00301373 -0.0134262 0)
(-0.000191406 -0.0116335 0)
(-0.00391247 -0.0162326 0)
(-0.00338922 -0.0160125 0)
(-0.00309276 -0.016268 0)
(-0.00377353 -0.0170318 0)
(-0.000518085 -0.017858 0)
(-0.000867388 -0.017012 0)
(0.00198752 -0.0143216 0)
(0.00247385 -0.00875551 0)
(0.00419883 -0.00841186 0)
(0.000170286 -0.0146288 0)
(0.000986145 -0.0206772 0)
(0.00161571 -0.0211687 0)
(-0.00103024 -0.0199878 0)
(-0.00266708 -0.0197581 0)
(-0.0028473 -0.0189707 0)
(-0.00234504 -0.0187283 0)
(-0.00139621 -0.020482 0)
(-0.00157531 -0.0221299 0)
(-0.00164186 -0.0223295 0)
(0.000227723 -0.0216092 0)
(0.00200032 -0.0203678 0)
(0.00298783 -0.0204111 0)
(0.00130445 -0.0152988 0)
(-0.00159227 -0.019287 0)
(-0.00125729 -0.0199779 0)
(0.000535964 -0.0212669 0)
(0.00151917 -0.0206296 0)
(0.000911218 -0.0209822 0)
(0.00185137 -0.0216524 0)
(0.00281902 -0.0206786 0)
(0.00150892 -0.0191155 0)
(0.000866178 -0.0188129 0)
(0.000713681 -0.0211024 0)
(-0.00119217 -0.0197092 0)
(-0.000409015 -0.0175682 0)
(-4.45163e-05 -0.0247871 0)
(0.000885035 -0.0240793 0)
(-0.00178873 -0.0220999 0)
(-0.00117449 -0.0267129 0)
(-0.00207635 -0.0262988 0)
(2.00917e-05 -0.0252281 0)
(0.00310288 -0.0244775 0)
(0.00300729 -0.0239723 0)
(0.00246284 -0.022389 0)
(0.00118546 -0.0203294 0)
(0.00131095 -0.0186896 0)
(0.000524628 -0.0176556 0)
(0.000638304 -0.0188875 0)
(0.000791117 -0.0140079 0)
(0.00221191 -0.0109156 0)
(-0.00185001 -0.0146593 0)
(-0.000966364 -0.0147758 0)
(-9.07706e-05 -0.0132603 0)
(-0.000813977 -0.0114804 0)
(-0.00151168 -0.0117129 0)
(-0.00319183 -0.0099269 0)
(-0.00212828 -0.0114356 0)
(-0.00178744 -0.0130597 0)
(0.000167052 -0.0137967 0)
(0.00135914 -0.0146257 0)
(0.00245573 -0.0134959 0)
(0.000724141 -0.00796022 0)
(0.00524997 -0.0100985 0)
(0.0031264 -0.0203345 0)
(0.000132145 -0.0158444 0)
(0.000327985 -0.0157258 0)
(-0.000711887 -0.0200388 0)
(-0.00159771 -0.016898 0)
(0.00246525 -0.0106681 0)
(0.00243077 -0.00579881 0)
(-0.00158912 -0.00665103 0)
(0.000841766 -0.00825666 0)
(0.00283092 -0.00792228 0)
(0.00522569 -0.0082942 0)
(-0.000166039 -0.0096543 0)
(-0.00371353 -0.0106897 0)
(-0.00360542 -0.0120071 0)
(-0.00244434 -0.0162568 0)
(0.000281149 -0.0130266 0)
(0.000148321 -0.0140705 0)
(-0.000527848 -0.0199822 0)
(0.000810686 -0.0173224 0)
(0.00384114 -0.0127059 0)
(0.00282674 -0.012971 0)
(0.00244198 -0.0144789 0)
(0.00225325 -0.0165305 0)
(0.00286691 -0.019509 0)
(0.00108657 -0.0194474 0)
(-0.00138966 -0.0209034 0)
(-0.00188915 -0.0225306 0)
(-0.000886897 -0.0245785 0)
(-0.000795834 -0.0250341 0)
(-0.0023391 -0.0241025 0)
(-0.00324009 -0.0222407 0)
(-0.00115215 -0.0201661 0)
(0.000322174 -0.019536 0)
(0.000930479 -0.0201001 0)
(0.000517072 -0.0161682 0)
(-0.00108532 -0.0219673 0)
(0.000548116 -0.020917 0)
(0.000805214 -0.0195337 0)
(0.00126864 -0.019988 0)
(-0.00102581 -0.0203168 0)
(-0.0011279 -0.0209975 0)
(0.000815673 -0.0212538 0)
(0.00139565 -0.0204976 0)
(0.00123842 -0.0171147 0)
(0.00297306 -0.0160629 0)
(0.00463425 -0.0159245 0)
(0.00253229 -0.016633 0)
(8.54243e-05 -0.020489 0)
(0.00311248 -0.0201928 0)
(-0.00230727 -0.0198399 0)
(-0.00267906 -0.0232335 0)
(-0.00312147 -0.0230433 0)
(-0.0011988 -0.0225656 0)
(-0.000385976 -0.0217627 0)
(-1.12851e-05 -0.0208189 0)
(-0.00223702 -0.0190315 0)
(-0.00308319 -0.0146124 0)
(-0.00215596 -0.0138273 0)
(6.50214e-05 -0.0131725 0)
(0.000429815 -0.0110708 0)
(0.00170441 -0.00981687 0)
(-0.000771016 -0.00988271 0)
(-0.00114231 -0.0114233 0)
(-0.00325317 -0.0105199 0)
(-0.00220074 -0.0114635 0)
(-0.000899056 -0.0106806 0)
(0.000600088 -0.010743 0)
(-0.00178738 -0.00983224 0)
(0.000666757 -0.0120265 0)
(-0.000387698 -0.0123343 0)
(0.00180268 -0.0131008 0)
(0.00082423 -0.0164245 0)
(0.00281844 -0.0178986 0)
(0.0039087 -0.0110525 0)
(0.00419637 -0.0140083 0)
(0.00314928 -0.0217568 0)
(0.00250583 -0.0177346 0)
(-0.00219367 -0.0169143 0)
(0.000198579 -0.0191044 0)
(-0.00036627 -0.0143108 0)
(0.00114281 -0.012126 0)
(-0.00120773 -0.0130418 0)
(-0.00518909 -0.0114162 0)
(0.000104397 -0.0115916 0)
(0.00504435 -0.0138348 0)
(0.00431108 -0.0137943 0)
(0.000506242 -0.0126659 0)
(-0.00101058 -0.0122772 0)
(-0.00134016 -0.0140943 0)
(-0.000473918 -0.0139651 0)
(0.00377074 -0.0130133 0)
(-0.000890736 -0.0152725 0)
(-0.00140447 -0.0171356 0)
(-0.00288665 -0.0175032 0)
(-0.00137589 -0.0160558 0)
(0.00240402 -0.0133655 0)
(0.00378341 -0.0130005 0)
(0.00394961 -0.0131595 0)
(0.00365812 -0.0140289 0)
(0.00087856 -0.0155365 0)
(0.000985432 -0.0182798 0)
(0.0012461 -0.0209479 0)
(0.000568447 -0.0233795 0)
(-0.00215299 -0.0231015 0)
(-0.00530543 -0.0208341 0)
(-0.00510833 -0.0195995 0)
(-0.0023423 -0.0186303 0)
(-0.000935132 -0.0182971 0)
(-0.000376452 -0.0197058 0)
(0.000184266 -0.0165206 0)
(-0.000750738 -0.0199094 0)
(-0.000700372 -0.0195932 0)
(-0.000731473 -0.0148024 0)
(0.000523856 -0.0122013 0)
(-0.00013657 -0.01628 0)
(-0.000836464 -0.0187512 0)
(0.000572382 -0.0189479 0)
(0.00188734 -0.017663 0)
(0.00011649 -0.0150537 0)
(0.00320475 -0.0132212 0)
(0.00381498 -0.0140766 0)
(0.00285259 -0.0136721 0)
(0.00075134 -0.0124236 0)
(0.000270354 -0.0124437 0)
(-0.00254834 -0.0132144 0)
(-0.00228071 -0.0132297 0)
(-0.00290057 -0.0133202 0)
(-0.0011587 -0.0127216 0)
(0.000834645 -0.0128341 0)
(-0.00023119 -0.0124733 0)
(-0.00114897 -0.0121632 0)
(-0.00218696 -0.0127989 0)
(-0.00207048 -0.0115207 0)
(-0.00188616 -0.0101855 0)
(-0.000148936 -0.0110802 0)
(0.00148949 -0.00974363 0)
(0.00182532 -0.00849075 0)
(0.00243559 -0.0101718 0)
(-0.00155805 -0.0145463 0)
(-0.00383419 -0.0175172 0)
(-0.00168656 -0.0173737 0)
(-0.000296495 -0.0177173 0)
(-0.000401148 -0.0147593 0)
(3.47983e-07 -0.0140984 0)
(0.00194997 -0.0124069 0)
(0.00242007 -0.0128994 0)
(0.00356369 -0.0185703 0)
(0.00491709 -0.0186704 0)
(0.005624 -0.0125223 0)
(0.00132573 -0.0126488 0)
(0.00074735 -0.0176768 0)
(0.000716354 -0.0151946 0)
(-0.000431752 -0.0153402 0)
(0.00121178 -0.0171374 0)
(0.00140758 -0.0173317 0)
(-0.00171601 -0.0165493 0)
(-0.000889744 -0.0201621 0)
(-0.00140005 -0.0163657 0)
(-0.000983555 -0.011793 0)
(0.000120349 -0.0151341 0)
(0.000816998 -0.0177926 0)
(0.000373376 -0.0164993 0)
(-3.38979e-05 -0.0162783 0)
(-0.000182638 -0.0172413 0)
(0.000558317 -0.0127723 0)
(-0.000446251 -0.0111486 0)
(-1.11996e-05 -0.0147414 0)
(-5.21215e-05 -0.0169642 0)
(-0.00127056 -0.0194166 0)
(-0.000178755 -0.0205224 0)
(0.00115396 -0.021458 0)
(0.0058731 -0.016503 0)
(0.00570749 -0.0115555 0)
(0.00416843 -0.0148973 0)
(0.00155849 -0.0178563 0)
(0.00145918 -0.0183548 0)
(0.00230961 -0.0186857 0)
(0.00163708 -0.0179444 0)
(-0.00311957 -0.0158199 0)
(-0.00557534 -0.0146298 0)
(-0.00504359 -0.01589 0)
(-0.00278838 -0.0168848 0)
(-0.00141365 -0.017442 0)
(-0.00113773 -0.0195401 0)
(-1.23764e-05 -0.016871 0)
(0.000437689 -0.0215892 0)
(-0.00243307 -0.0221778 0)
(-0.00207806 -0.0199387 0)
(0.000512127 -0.017895 0)
(-0.00138542 -0.0198873 0)
(-0.00222343 -0.0213495 0)
(-0.000905903 -0.0215073 0)
(0.00149878 -0.0226364 0)
(0.00185314 -0.0150451 0)
(0.00450946 -0.0122499 0)
(0.00303024 -0.0171346 0)
(0.00256132 -0.0164151 0)
(0.00136078 -0.0146416 0)
(-0.000204093 -0.014357 0)
(-0.00149507 -0.012719 0)
(-0.00189982 -0.011925 0)
(-0.00276401 -0.0132254 0)
(-0.00284241 -0.0142823 0)
(0.000797505 -0.0162396 0)
(-0.000792899 -0.0166997 0)
(-0.00167241 -0.0168017 0)
(-0.00192263 -0.0159556 0)
(-0.000946435 -0.0161427 0)
(-0.00115818 -0.0135834 0)
(-0.000166836 -0.0121067 0)
(-0.000626729 -0.0159158 0)
(-0.00139579 -0.0163145 0)
(0.0020239 -0.0147381 0)
(0.00256178 -0.0147829 0)
(-0.000530133 -0.018114 0)
(0.00140514 -0.0210693 0)
(-8.09569e-05 -0.0243084 0)
(0.000199549 -0.024899 0)
(-0.00265177 -0.0247083 0)
(0.00240182 -0.0237061 0)
(0.000977825 -0.0227457 0)
(0.00185492 -0.0216377 0)
(0.00221246 -0.0195078 0)
(0.00350007 -0.0160175 0)
(-0.00075319 -0.0157178 0)
(0.0020003 -0.0163289 0)
(0.00188241 -0.0162968 0)
(0.00218294 -0.0185508 0)
(0.00116173 -0.0189958 0)
(0.0014595 -0.0195397 0)
(-0.00093253 -0.0194487 0)
(-0.00331366 -0.0184082 0)
(0.00136249 -0.0160524 0)
(-0.000520792 -0.0150898 0)
(-0.000710059 -0.0187567 0)
(0.000823507 -0.0207358 0)
(0.000760347 -0.0192609 0)
(-0.000932654 -0.017797 0)
(-0.0020109 -0.0149928 0)
(0.00182116 -0.0124347 0)
(-0.00165259 -0.0100766 0)
(0.00166067 -0.00937258 0)
(0.00265481 -0.0124724 0)
(0.000562738 -0.0159055 0)
(0.00226806 -0.0194694 0)
(0.00185137 -0.0173865 0)
(0.00330074 -0.0158249 0)
(0.00163214 -0.0165149 0)
(0.000122102 -0.0148938 0)
(0.000448285 -0.0152333 0)
(-0.000228107 -0.0146165 0)
(-0.000220002 -0.0139027 0)
(-0.00175358 -0.0122441 0)
(-0.00396299 -0.011267 0)
(-0.0046504 -0.0124034 0)
(-0.0024659 -0.0152075 0)
(-0.000638679 -0.0153548 0)
(-0.000485925 -0.0164579 0)
(-0.000446104 -0.0189406 0)
(0.000112323 -0.0167312 0)
(0.00032489 -0.0172956 0)
(-0.000633639 -0.0169511 0)
(-0.00285111 -0.0145059 0)
(-0.0029025 -0.0156783 0)
(-0.00313841 -0.0184704 0)
(-0.00437161 -0.0174902 0)
(0.000125893 -0.0175107 0)
(0.00439556 -0.0208458 0)
(0.00467224 -0.0162026 0)
(-0.000858899 -0.0146726 0)
(3.6325e-05 -0.0175572 0)
(0.000557726 -0.0138801 0)
(0.000662941 -0.010852 0)
(-0.0021459 -0.0116336 0)
(-0.00390263 -0.0133818 0)
(-0.0043963 -0.0124825 0)
(0.00139604 -0.0132002 0)
(0.00194727 -0.0125155 0)
(0.00125433 -0.0150856 0)
(-0.000816376 -0.0191668 0)
(-0.00139139 -0.0188972 0)
(-0.000575913 -0.017697 0)
(-0.00401154 -0.0158797 0)
(0.00043664 -0.0147084 0)
(-0.00102639 -0.0165228 0)
(-0.000943919 -0.02169 0)
(0.000420296 -0.0208032 0)
(0.00541879 -0.0202109 0)
(0.00152954 -0.01953 0)
(0.00171433 -0.0143508 0)
(0.00217217 -0.0150708 0)
(0.00319387 -0.0241181 0)
(0.00113211 -0.029745 0)
(0.000484182 -0.0310295 0)
(-0.00077276 -0.0301443 0)
(0.00184405 -0.0300997 0)
(0.000137172 -0.0279119 0)
(0.000538978 -0.0258758 0)
(0.000148661 -0.0232531 0)
(-0.000136017 -0.0205756 0)
(0.00113955 -0.0193753 0)
(0.00189812 -0.018722 0)
(0.00414207 -0.0175642 0)
(5.23915e-05 -0.0174446 0)
(-0.00026858 -0.0190865 0)
(0.00107178 -0.0215903 0)
(-0.000702045 -0.0193336 0)
(-0.00279747 -0.0193347 0)
(-0.0016135 -0.023203 0)
(0.000376451 -0.0242651 0)
(-0.000243351 -0.0252403 0)
(-0.000821337 -0.0236729 0)
(-0.00242427 -0.0222906 0)
(-0.00521274 -0.0195497 0)
(-0.00360481 -0.0166333 0)
(-0.000723841 -0.0125518 0)
(0.00401084 -0.00884389 0)
(0.0033596 -0.0150896 0)
(0.00396031 -0.0157203 0)
(0.00336969 -0.0156759 0)
(0.0043447 -0.0195453 0)
(0.0011838 -0.0179208 0)
(0.000879055 -0.0155506 0)
(0.00113027 -0.0154106 0)
(0.00102241 -0.0157444 0)
(0.00154702 -0.0148861 0)
(0.000824032 -0.0152983 0)
(-0.00181794 -0.0161146 0)
(-0.00273702 -0.0158564 0)
(-0.0020956 -0.0167171 0)
(-0.00160454 -0.0175635 0)
(-0.00136086 -0.0169908 0)
(-0.00103694 -0.016979 0)
(-0.000811357 -0.0195178 0)
(2.62098e-05 -0.0168266 0)
(0.00124257 -0.010771 0)
(0.000239898 -0.010893 0)
(0.0011149 -0.0108257 0)
(-0.00282484 -0.0118977 0)
(-0.00266313 -0.0152759 0)
(-0.00209718 -0.010225 0)
(0.00193205 -0.00615103 0)
(0.00454099 -0.010605 0)
(0.00551185 -0.0132036 0)
(-0.00262783 -0.0154194 0)
(-0.00237459 -0.0171375 0)
(-0.000662299 -0.0142082 0)
(-0.0009959 -0.0121699 0)
(-0.000616556 -0.0133522 0)
(-0.000834103 -0.0170743 0)
(0.000814791 -0.0153956 0)
(0.00308689 -0.016505 0)
(0.00201229 -0.0179403 0)
(-0.000704162 -0.0192808 0)
(-0.00174623 -0.0211622 0)
(-0.00320838 -0.0198211 0)
(0.000116672 -0.0212468 0)
(-0.00167296 -0.0198361 0)
(-0.00095619 -0.0204703 0)
(-0.000151557 -0.0277748 0)
(0.000899915 -0.0297994 0)
(0.000896565 -0.025562 0)
(0.00203474 -0.0265185 0)
(0.00304099 -0.0259449 0)
(0.00507396 -0.0184048 0)
(0.000880082 -0.0181307 0)
(0.00175387 -0.0224971 0)
(0.00258892 -0.0269549 0)
(0.00166052 -0.028432 0)
(0.0016149 -0.0253151 0)
(-0.000230854 -0.0241558 0)
(-0.00262025 -0.0245345 0)
(-0.00246647 -0.0211827 0)
(2.79117e-05 -0.0183147 0)
(-0.000124272 -0.0183742 0)
(-0.000528809 -0.0183871 0)
(-0.000293765 -0.0122425 0)
(0.00349755 -0.0133969 0)
(0.00204908 -0.019106 0)
(0.00208678 -0.0194456 0)
(0.00359039 -0.0193444 0)
(0.0039838 -0.0210965 0)
(-0.00260027 -0.0171276 0)
(0.000682234 -0.0157696 0)
(-0.000488873 -0.0232244 0)
(-0.00161611 -0.0260314 0)
(-0.00114477 -0.0237773 0)
(-0.00287512 -0.0237924 0)
(-0.00346755 -0.020211 0)
(-0.00129613 -0.0159533 0)
(0.000696939 -0.0146189 0)
(0.00147419 -0.0160632 0)
(0.00127369 -0.0168662 0)
(0.00531073 -0.0150602 0)
(0.000361665 -0.0122596 0)
(-0.000290015 -0.00985895 0)
(-0.000647092 -0.011602 0)
(-0.00152219 -0.011695 0)
(0.000293197 -0.0102033 0)
(0.00246117 -0.00851745 0)
(0.000908436 -0.00759202 0)
(-0.000893942 -0.00916319 0)
(-0.00223202 -0.0127592 0)
(-0.00380328 -0.0127117 0)
(-0.00260396 -0.0127844 0)
(-0.00128369 -0.0134021 0)
(-0.00115621 -0.0148535 0)
(-0.000262692 -0.0156323 0)
(-6.31541e-05 -0.0186632 0)
(-2.66147e-05 -0.0165345 0)
(0.000133562 -0.011309 0)
(-0.00145724 -0.0146239 0)
(-0.000423451 -0.0159999 0)
(-0.00233169 -0.0164372 0)
(-9.76121e-05 -0.0166735 0)
(0.0030473 -0.0140599 0)
(0.00179967 -0.0108947 0)
(-3.29496e-05 -0.010316 0)
(0.000946955 -0.0137486 0)
(0.00193757 -0.0187275 0)
(-0.00273561 -0.0170273 0)
(-0.0044929 -0.0165913 0)
(-0.00186628 -0.014583 0)
(0.00263605 -0.0110411 0)
(0.00418613 -0.00882269 0)
(0.00188569 -0.0091122 0)
(-0.00113774 -0.0134539 0)
(0.000125689 -0.0121411 0)
(0.000937211 -0.00909447 0)
(0.000561267 -0.0125054 0)
(-0.000276466 -0.0119486 0)
(0.00068837 -0.013234 0)
(0.000877905 -0.0183133 0)
(-0.000671859 -0.0202416 0)
(0.00079096 -0.022945 0)
(0.00286252 -0.0238709 0)
(0.00388003 -0.0231807 0)
(0.000519258 -0.023608 0)
(0.0016236 -0.0223671 0)
(0.00205531 -0.0181757 0)
(0.00222869 -0.0183196 0)
(0.000383187 -0.021527 0)
(0.00185838 -0.0236084 0)
(0.00278052 -0.0220549 0)
(0.00189331 -0.0206252 0)
(-0.0044012 -0.0213253 0)
(-0.00586362 -0.0191596 0)
(-0.00446111 -0.0186438 0)
(-0.00127709 -0.0185295 0)
(0.00150967 -0.0179907 0)
(0.00289476 -0.0186661 0)
(0.00194159 -0.0155207 0)
(-0.000133552 -0.01529 0)
(0.00153017 -0.0190948 0)
(0.00351037 -0.01681 0)
(0.0028631 -0.0143214 0)
(0.00214058 -0.0129963 0)
(0.0028454 -0.00682056 0)
(-0.0012647 -0.00651306 0)
(0.000165665 -0.0150757 0)
(-0.00138549 -0.0165883 0)
(-0.00263399 -0.0179966 0)
(-0.00326513 -0.0199163 0)
(-0.00218632 -0.0152679 0)
(-0.00038867 -0.0130368 0)
(-0.00044131 -0.0146265 0)
(-0.00278655 -0.0148913 0)
(-0.00189209 -0.0144271 0)
(0.00130612 -0.0130978 0)
(0.000908749 -0.0110711 0)
(-0.00104701 -0.00498327 0)
(0.00039494 -0.00801538 0)
(-0.0018406 -0.0122831 0)
(-0.00097024 -0.0103781 0)
(0.00152156 -0.00708096 0)
(0.00135096 -0.00473781 0)
(0.00304874 -0.0042958 0)
(0.00134853 -0.00705971 0)
(-0.00206925 -0.0109625 0)
(-0.000650873 -0.0136023 0)
(0.000959047 -0.0142855 0)
(0.000770137 -0.0157769 0)
(2.13148e-06 -0.0171099 0)
(0.000241146 -0.0193818 0)
(2.83957e-05 -0.0169667 0)
(0.00347335 -0.010781 0)
(0.00197404 -0.0178101 0)
(0.000820011 -0.0209788 0)
(-0.00165186 -0.0199087 0)
(0.00307104 -0.0211558 0)
(0.00470238 -0.0229955 0)
(0.0032769 -0.021778 0)
(0.00107918 -0.0199283 0)
(-0.000616386 -0.0157358 0)
(-0.000992396 -0.0172811 0)
(-0.00415892 -0.0195309 0)
(-0.00693456 -0.0179904 0)
(-0.00191827 -0.0173048 0)
(0.000105999 -0.0160025 0)
(0.00314556 -0.0122878 0)
(0.00128033 -0.0114129 0)
(-0.0023493 -0.0140096 0)
(-0.000511404 -0.0126859 0)
(0.000165106 -0.010566 0)
(0.00211573 -0.0118703 0)
(0.00593905 -0.0123649 0)
(0.00162808 -0.0132441 0)
(0.00122247 -0.0142306 0)
(0.000326538 -0.0173043 0)
(0.00192002 -0.020235 0)
(0.000701932 -0.0194739 0)
(0.00389796 -0.0182673 0)
(0.00187012 -0.0190326 0)
(0.00194273 -0.0161782 0)
(0.000961076 -0.0114113 0)
(2.79017e-05 -0.0147754 0)
(-0.000279672 -0.0177665 0)
(0.00254264 -0.0180976 0)
(0.00453616 -0.0169615 0)
(0.00115883 -0.0169985 0)
(-0.00385002 -0.0169801 0)
(-0.00484545 -0.0175436 0)
(-0.00358965 -0.0196172 0)
(-0.00246468 -0.0215885 0)
(0.00122639 -0.0221905 0)
(0.00299731 -0.0224514 0)
(0.00264309 -0.0198978 0)
(-0.0040071 -0.0179164 0)
(-0.00410335 -0.0154618 0)
(0.00111945 -0.0146179 0)
(0.00101851 -0.0144861 0)
(0.001391 -0.0127294 0)
(0.00168631 -0.0104892 0)
(-7.06819e-05 -0.00631281 0)
(0.0018027 -0.0114974 0)
(0.000599557 -0.0212304 0)
(-0.00164359 -0.0217667 0)
(-0.0026179 -0.0209087 0)
(-0.00144549 -0.0174373 0)
(-0.00247687 -0.0157385 0)
(-0.0001043 -0.0153586 0)
(-0.000336864 -0.014566 0)
(-0.000209926 -0.0146126 0)
(0.000308692 -0.0162622 0)
(0.00157711 -0.0156986 0)
(0.00103974 -0.00737565 0)
(-0.00354503 -0.00692275 0)
(-0.00341582 -0.0104589 0)
(-0.00313283 -0.0100672 0)
(-0.00257045 -0.010714 0)
(-0.000632305 -0.00767001 0)
(0.00111274 -0.0079693 0)
(0.00314124 -0.00957278 0)
(0.00230831 -0.0141067 0)
(0.00137371 -0.0159798 0)
(0.00165249 -0.0156905 0)
(0.00179546 -0.0155064 0)
(0.000684762 -0.0163453 0)
(0.000445379 -0.0188212 0)
(1.84279e-05 -0.016556 0)
(0.000513094 -0.0165905 0)
(-0.000848443 -0.0189556 0)
(-0.000875775 -0.0178086 0)
(-0.0012805 -0.0125515 0)
(0.00442995 -0.0116288 0)
(0.00350494 -0.016146 0)
(0.00262134 -0.0159466 0)
(0.0012736 -0.0164044 0)
(-8.51464e-05 -0.0173729 0)
(-0.00384302 -0.017301 0)
(-0.00475538 -0.0188719 0)
(-0.002446 -0.0180597 0)
(-0.00284197 -0.019931 0)
(-0.0021033 -0.0221791 0)
(0.00118064 -0.0168397 0)
(0.00145696 -0.0157433 0)
(0.000292796 -0.0163816 0)
(-0.000163385 -0.0163912 0)
(-0.000909594 -0.0167308 0)
(-0.00100777 -0.0125165 0)
(0.00375445 -0.0103843 0)
(0.00210142 -0.0109029 0)
(0.0025621 -0.0117611 0)
(0.00440552 -0.0132841 0)
(0.00438878 -0.0163376 0)
(0.00468212 -0.01442 0)
(0.00189069 -0.0141389 0)
(0.00267376 -0.018995 0)
(0.00488047 -0.0157762 0)
(0.000403756 -0.0125492 0)
(-0.00291 -0.0127124 0)
(-0.0007041 -0.0121655 0)
(0.00102717 -0.0115346 0)
(-0.000212004 -0.0105208 0)
(0.000474767 -0.010715 0)
(-0.00359672 -0.0113171 0)
(-0.00359869 -0.0112068 0)
(0.000416078 -0.0154335 0)
(0.00179536 -0.020577 0)
(0.00220545 -0.0221727 0)
(0.00237053 -0.0198554 0)
(-0.00050623 -0.0156935 0)
(-0.00386972 -0.0145096 0)
(-0.00239455 -0.0111676 0)
(-0.000907227 -0.0123072 0)
(0.00034852 -0.0167524 0)
(0.0024684 -0.0168843 0)
(0.00378474 -0.0127316 0)
(0.00506318 -0.00791874 0)
(-6.45251e-05 -0.0150965 0)
(-0.000531778 -0.0216258 0)
(-0.00318425 -0.0205777 0)
(-0.00339693 -0.0190539 0)
(-0.00330571 -0.017165 0)
(-0.0040898 -0.0147862 0)
(-0.00333812 -0.0143522 0)
(-0.00156775 -0.0154579 0)
(-9.08701e-05 -0.0149637 0)
(0.00229858 -0.0154299 0)
(0.00151698 -0.0153956 0)
(-0.00183569 -0.0104414 0)
(-0.00636958 -0.00830969 0)
(-0.00449536 -0.00908436 0)
(-0.00177784 -0.010965 0)
(-0.00015869 -0.0113286 0)
(0.00273397 -0.0113782 0)
(0.0032397 -0.0137142 0)
(0.00572637 -0.0142642 0)
(0.00482277 -0.0158476 0)
(0.00151476 -0.0176436 0)
(0.000985382 -0.0175219 0)
(0.0009961 -0.016847 0)
(0.00058226 -0.0170573 0)
(0.000422701 -0.0195547 0)
(8.96261e-06 -0.0169066 0)
(-0.0033046 -0.0162189 0)
(-0.00203251 -0.0161554 0)
(9.28834e-05 -0.0202115 0)
(0.002438 -0.0164493 0)
(-0.000361403 -0.0127765 0)
(-0.000437568 -0.0154077 0)
(0.00481454 -0.0131355 0)
(0.00424793 -0.0148235 0)
(0.00337649 -0.0166659 0)
(0.00120435 -0.0201519 0)
(-0.00373915 -0.0208928 0)
(-0.00119271 -0.0197204 0)
(-0.00586039 -0.0214793 0)
(-0.00276237 -0.0221325 0)
(-9.0369e-05 -0.0217748 0)
(0.000396469 -0.0227264 0)
(0.000239251 -0.0238927 0)
(-0.00178958 -0.024791 0)
(-0.00275758 -0.0251307 0)
(-0.00138228 -0.0189673 0)
(0.000667887 -0.0169591 0)
(0.00258804 -0.0218398 0)
(0.00516718 -0.0213082 0)
(0.00808551 -0.0197742 0)
(0.00463784 -0.0184913 0)
(0.00816826 -0.0160269 0)
(0.00315161 -0.011096 0)
(-0.000132712 -0.00829571 0)
(-4.69033e-05 -0.0107938 0)
(-0.00235556 -0.010134 0)
(-0.00455034 -0.00875644 0)
(-0.00128436 -0.0070149 0)
(0.00383312 -0.00609666 0)
(0.00345839 -0.00551896 0)
(-0.000973853 -0.00710383 0)
(-0.0028472 -0.00982875 0)
(-0.00136531 -0.0134071 0)
(0.000936446 -0.0185772 0)
(0.00292615 -0.0209774 0)
(0.00171591 -0.0214547 0)
(-0.00297702 -0.0181599 0)
(-0.00523775 -0.0148612 0)
(-0.00196716 -0.0126003 0)
(0.00180911 -0.0131596 0)
(-0.00253527 -0.0165069 0)
(-0.00182806 -0.0176634 0)
(0.00419496 -0.0179026 0)
(0.00586153 -0.0170588 0)
(0.0031019 -0.0147377 0)
(-0.00219899 -0.0147574 0)
(-0.00178768 -0.0140674 0)
(-0.00198598 -0.0127866 0)
(-0.00105706 -0.0149345 0)
(-0.00200408 -0.0168279 0)
(-0.000627881 -0.018492 0)
(4.75816e-05 -0.0166749 0)
(0.000511622 -0.0146224 0)
(-0.000455167 -0.0127952 0)
(-0.00130035 -0.0143404 0)
(-0.00322497 -0.0169642 0)
(-0.00410604 -0.0159483 0)
(-0.00343209 -0.0175499 0)
(-0.00388059 -0.0181314 0)
(-0.00213855 -0.017896 0)
(-0.00140256 -0.0166421 0)
(0.000877337 -0.0151423 0)
(0.00334531 -0.0171273 0)
(0.00535688 -0.016672 0)
(0.00559089 -0.015634 0)
(0.00284528 -0.0159433 0)
(0.00177557 -0.016052 0)
(0.0015361 -0.0156635 0)
(0.0010723 -0.0163111 0)
(0.000837541 -0.0189491 0)
(2.21538e-06 -0.0166242 0)
(0.00231375 -0.0132786 0)
(0.0028535 -0.0186923 0)
(0.000964727 -0.0229723 0)
(0.00179289 -0.0223933 0)
(-0.00319264 -0.0193491 0)
(-0.00205299 -0.0143267 0)
(9.22792e-06 -0.0136193 0)
(0.00268605 -0.0177292 0)
(0.00297976 -0.0160941 0)
(0.00284099 -0.0178697 0)
(0.000321814 -0.0148276 0)
(-0.00274489 -0.0137739 0)
(-0.00613574 -0.0159902 0)
(-0.000659455 -0.0153708 0)
(0.00115227 -0.0169026 0)
(0.00279925 -0.0176821 0)
(0.00242981 -0.0170609 0)
(-0.000578824 -0.0171091 0)
(-0.00215215 -0.0188559 0)
(0.00195684 -0.0198144 0)
(-0.000843835 -0.0204008 0)
(0.000555927 -0.0217506 0)
(0.00321486 -0.0200972 0)
(0.00193642 -0.0178812 0)
(0.00250259 -0.0100904 0)
(0.00434096 -0.0027724 0)
(0.00264429 -0.00520418 0)
(-0.0025153 -0.00810056 0)
(-0.00575539 -0.0083241 0)
(-0.00493972 -0.00887404 0)
(-0.00291186 -0.0125692 0)
(-0.00212912 -0.0143789 0)
(0.00137808 -0.0130892 0)
(0.00417397 -0.00925609 0)
(0.00209129 -0.00932108 0)
(0.00379564 -0.0119785 0)
(0.0041692 -0.0151747 0)
(0.0033587 -0.0140401 0)
(0.00467843 -0.0120052 0)
(0.000432334 -0.0122446 0)
(-0.00464592 -0.0108128 0)
(-0.00710477 -0.0108046 0)
(-0.000391238 -0.00974827 0)
(0.00213975 -0.0121798 0)
(1.92426e-05 -0.0180107 0)
(0.000763843 -0.0152209 0)
(0.0041702 -0.0156832 0)
(0.00235733 -0.0188624 0)
(-0.000683136 -0.016254 0)
(-0.00444892 -0.0129078 0)