/*--------------------------------*- C++ -*----------------------------------*\
  =========                 |
  \\      /  F ield         | OpenFOAM: The Open Source CFD Toolbox
   \\    /   O peration     | Website:  https://openfoam.org
    \\  /    A nd           | Version:  12
     \\/     M anipulation  |
\*---------------------------------------------------------------------------*/
FoamFile
{
    format      ascii;
    class       volVectorField;
    location    "0.2";
    object      U.water;
}
// * * * * * * * * * * * * * * * * * * * * * * * * * * * * * * * * * * * * * //

dimensions      [0 1 -1 0 0 0 0];

internalField   nonuniform List<vector> 
3750
(
(0.000842856 0.0213637 0)
(0.00059539 0.0145429 0)
(0.000931623 0.00789308 0)
(0.000992546 0.00753348 0)
(-9.10837e-05 0.00946871 0)
(-0.00187587 0.0115898 0)
(-0.0018548 0.013097 0)
(-0.00193928 0.0125868 0)
(-0.000119016 0.0130406 0)
(0.000299142 0.0128415 0)
(0.000382617 0.0118003 0)
(0.000138355 0.0122272 0)
(0.000535311 0.0142588 0)
(0.000827213 0.0166678 0)
(0.000949028 0.0223745 0)
(-0.00294324 0.0217469 0)
(0.00181714 0.0165797 0)
(6.06766e-05 0.0162756 0)
(0.00180271 0.0138867 0)
(-0.00109834 0.0128836 0)
(-0.000204775 0.0120334 0)
(-8.54026e-05 0.0114783 0)
(0.0016925 0.0106997 0)
(-0.000227671 0.00977097 0)
(-0.00123665 0.0101543 0)
(-9.17816e-06 0.00938148 0)
(0.000326631 0.00843813 0)
(0.00192269 0.00499654 0)
(0.00105927 0.00283344 0)
(-0.00040462 0.00202049 0)
(0.00161865 0.00873365 0)
(-0.00241986 0.0105365 0)
(-0.0015598 0.00667124 0)
(-0.000415318 0.00760436 0)
(-0.00127384 0.00910922 0)
(0.000429483 0.0093474 0)
(0.000850388 0.00711158 0)
(0.00339066 0.0108603 0)
(-0.000107219 0.00972751 0)
(0.000533576 0.0020641 0)
(0.000502043 0.00217509 0)
(0.000511335 0.0016318 0)
(-0.000524642 0.00148803 0)
(-0.000338009 0.003168 0)
(-0.00186153 0.00706582 0)
(-0.00138187 0.00821419 0)
(-0.00134609 0.00747781 0)
(-0.000220703 0.0143739 0)
(-0.00238856 0.0151152 0)
(-0.000531095 0.00982327 0)
(-0.000183054 0.00843303 0)
(7.86776e-05 0.00731651 0)
(-0.00120538 0.00836632 0)
(-0.00202382 0.00765136 0)
(-0.000534365 0.0107604 0)
(-0.000822921 0.0122876 0)
(0.00134866 0.0178021 0)
(-0.00149966 0.0182594 0)
(0.00146794 0.0103051 0)
(0.00356643 0.00538159 0)
(0.00333912 0.00537482 0)
(0.00139724 0.00654744 0)
(-1.61084e-05 0.0083245 0)
(-6.64634e-05 0.011059 0)
(0.000618823 0.0123696 0)
(0.00144444 0.0112202 0)
(0.00159526 0.00983792 0)
(5.49106e-05 0.00812047 0)
(-0.000775681 0.00806676 0)
(-0.00255916 0.0102685 0)
(-0.00352582 0.0123001 0)
(-0.0015078 0.013978 0)
(0.00117043 0.012048 0)
(0.00491477 0.00492559 0)
(0.00417232 -0.00305884 0)
(0.00382278 -0.000851393 0)
(-0.000776577 -0.00312945 0)
(0.000135351 -0.00719468 0)
(-0.00185092 -0.00619447 0)
(-0.00273777 -0.004888 0)
(-0.00149838 -0.00599796 0)
(0.000330444 -0.007231 0)
(0.00050559 -0.00866635 0)
(0.0018748 -0.00822981 0)
(0.00086581 -0.00860118 0)
(-0.00141755 -0.00948702 0)
(-0.0019252 -0.00542114 0)
(-0.00262248 -0.00362389 0)
(-0.000962779 -0.00472635 0)
(0.00246887 -0.0028216 0)
(-0.00197966 0.00209042 0)
(0.000825198 0.000528088 0)
(0.00236227 0.000511038 0)
(0.00264715 -0.00172404 0)
(0.00195912 -0.00427209 0)
(0.000719214 -0.00395552 0)
(0.000258027 -0.00427258 0)
(-0.000615297 -0.00595799 0)
(0.000131084 -0.00782342 0)
(0.000984475 -0.00736657 0)
(0.00158759 -0.00965159 0)
(0.00211215 -0.00782843 0)
(0.000974408 -0.00709281 0)
(-2.89088e-05 -0.00948374 0)
(0.000946224 -0.00775863 0)
(0.00215018 -0.00689262 0)
(-0.00312738 -0.0101829 0)
(-0.00207118 -0.0112062 0)
(-0.00151943 -0.0114439 0)
(0.000965754 -0.0105717 0)
(0.00213743 -0.00965334 0)
(0.00295393 -0.0106359 0)
(0.00377659 -0.00881314 0)
(-0.00167187 -0.00790759 0)
(9.95013e-05 -0.0072169 0)
(0.00115533 -0.00621415 0)
(-0.00056219 -0.0071135 0)
(-0.00236499 -0.0076044 0)
(-0.00274398 -0.00812546 0)
(-0.00299715 -0.00694875 0)
(-0.00077975 -0.00580956 0)
(0.00105974 -0.00715192 0)
(0.00384672 -0.00714174 0)
(-0.00111346 -0.00868258 0)
(-0.0014979 -0.0114026 0)
(0.00121185 -0.0128847 0)
(0.000647451 -0.0148481 0)
(-0.00124472 -0.0155448 0)
(-0.00137132 -0.0155971 0)
(0.000669127 -0.0134421 0)
(0.000540788 -0.0125434 0)
(0.00293859 -0.0123882 0)
(-0.000484068 -0.0113844 0)
(-0.000969203 -0.014734 0)
(-0.000634904 -0.018833 0)
(-0.00130547 -0.0172382 0)
(-0.00217249 -0.015876 0)
(-0.00265065 -0.0137807 0)
(-0.00276473 -0.0129208 0)
(-0.00124254 -0.0134655 0)
(0.000363828 -0.0140062 0)
(0.00123555 -0.0140929 0)
(0.000917196 -0.0124512 0)
(-3.12057e-05 -0.0114352 0)
(-0.00138458 -0.0103534 0)
(-0.00131153 -0.0104801 0)
(0.00261605 -0.00953711 0)
(0.0071093 -0.00918038 0)
(0.00897613 -0.0105887 0)
(0.00401048 -0.0107812 0)
(0.00103058 -0.00731412 0)
(-0.000992979 -0.00862958 0)
(0.000132265 -0.00918897 0)
(0.000107612 -0.0104855 0)
(-0.00114594 -0.0118392 0)
(0.000364808 -0.0126432 0)
(0.000682175 -0.0132843 0)
(-0.000177609 -0.0130949 0)
(0.00184909 -0.0124293 0)
(-0.00100846 -0.0125759 0)
(-0.0021426 -0.0125018 0)
(-0.00280459 -0.0129625 0)
(-0.00399043 -0.0158614 0)
(-0.00164505 -0.0157968 0)
(6.67353e-05 -0.0140757 0)
(-0.000168099 -0.0131045 0)
(-0.00075247 -0.0129461 0)
(0.00541219 -0.0111991 0)
(0.00262516 -0.00933975 0)
(0.00361135 -0.0097649 0)
(0.0013259 -0.0102148 0)
(0.00243415 -0.0111036 0)
(-0.0017978 -0.012157 0)
(-0.00102262 -0.0133247 0)
(7.99731e-05 -0.0146182 0)
(0.000913766 -0.0143138 0)
(0.000871037 -0.014234 0)
(4.70227e-05 -0.0137922 0)
(0.00155172 -0.0113546 0)
(0.00226249 -0.0111059 0)
(0.00180368 -0.0105152 0)
(0.000168482 -0.0127381 0)
(-0.000406652 -0.0148683 0)
(-0.00309911 -0.0137276 0)
(-0.000227988 -0.0126316 0)
(0.000282873 -0.0138746 0)
(0.000989621 -0.0124919 0)
(0.00128972 -0.0118616 0)
(0.000390474 -0.0085237 0)
(-0.00305015 -0.00454895 0)
(0.000215913 -0.00671191 0)
(-0.00018142 -0.0103123 0)
(-0.00195455 -0.0121984 0)
(-0.00235727 -0.0127366 0)
(-0.000140907 -0.0135299 0)
(0.000312004 -0.0173219 0)
(-7.2154e-05 -0.0184445 0)
(0.00215645 -0.0192546 0)
(0.000548661 -0.0192439 0)
(0.000616945 -0.0149862 0)
(0.000227885 -0.0164131 0)
(9.88088e-05 -0.021638 0)
(-0.00113519 -0.0193648 0)
(-0.00293022 -0.0171056 0)
(-0.00215332 -0.0144458 0)
(0.000247809 -0.0128996 0)
(0.00158766 -0.0129637 0)
(0.00398099 -0.0124931 0)
(0.00228079 -0.0120278 0)
(0.00188698 -0.0134783 0)
(0.00109366 -0.0158177 0)
(0.000498973 -0.0194022 0)
(0.000993557 -0.0228244 0)
(0.000573049 -0.0264807 0)
(0.000908256 -0.027701 0)
(0.000573637 -0.0264024 0)
(4.7576e-05 -0.0246851 0)
(-0.00242797 -0.0220592 0)
(-0.00388801 -0.0213812 0)
(-0.00438011 -0.0212767 0)
(-0.00396481 -0.0216103 0)
(-0.000140501 -0.0208078 0)
(0.00459945 -0.0195941 0)
(0.00655351 -0.0193596 0)
(0.00328994 -0.0136036 0)
(-0.00295885 -0.00963149 0)
(-0.00102351 -0.0118891 0)
(-0.000590537 -0.0125695 0)
(0.000113179 -0.012708 0)
(-0.00114648 -0.0129274 0)
(0.000507916 -0.0144774 0)
(0.00214718 -0.0162479 0)
(0.00134795 -0.0128282 0)
(0.000113994 -0.0124064 0)
(-0.00238196 -0.0147225 0)
(0.0014894 -0.0169855 0)
(-0.00136381 -0.0204843 0)
(-0.0017494 -0.0207046 0)
(0.000309195 -0.0213985 0)
(0.000360912 -0.0209089 0)
(-0.000187601 -0.0197951 0)
(-0.00153214 -0.0192923 0)
(-0.000185653 -0.0178506 0)
(0.000409455 -0.0142904 0)
(0.00185144 -0.0150798 0)
(0.00152758 -0.0171494 0)
(0.00284672 -0.0175808 0)
(0.00126622 -0.0183267 0)
(-0.000170379 -0.019326 0)
(-0.000203452 -0.0194469 0)
(0.000331391 -0.019931 0)
(2.36957e-05 -0.0199194 0)
(-0.000590258 -0.0183959 0)
(-0.000693158 -0.0180226 0)
(-0.000139845 -0.0168048 0)
(0.00163037 -0.0158435 0)
(0.00125299 -0.0144601 0)
(-0.000953264 -0.0126751 0)
(-0.00131497 -0.0111365 0)
(-0.00128178 -0.0111755 0)
(0.00100672 -0.0125486 0)
(0.00170534 -0.0110726 0)
(0.00393142 -0.0113457 0)
(0.00253759 -0.0108381 0)
(-0.00146329 -0.00638516 0)
(-0.00353474 -0.0100625 0)
(-0.00204471 -0.0174725 0)
(-0.00125134 -0.0178341 0)
(0.000206509 -0.0185798 0)
(-0.000107554 -0.0194363 0)
(0.000281216 -0.020242 0)
(0.00139272 -0.0202996 0)
(0.0026239 -0.0180732 0)
(0.00419736 -0.0171655 0)
(0.0026728 -0.0161574 0)
(-0.00354425 -0.0164807 0)
(-0.00300589 -0.017451 0)
(-0.00302532 -0.0179309 0)
(-0.00419807 -0.0155983 0)
(-0.00145273 -0.0139602 0)
(0.000192319 -0.0165229 0)
(-0.00264819 -0.0164612 0)
(0.000425766 -0.0138994 0)
(0.00130456 -0.0140039 0)
(0.0034681 -0.0135339 0)
(0.00302836 -0.013229 0)
(0.00291823 -0.0154046 0)
(0.00244672 -0.0193929 0)
(0.00195646 -0.0205234 0)
(-0.000805021 -0.0200141 0)
(-0.00248345 -0.0196109 0)
(-0.00269036 -0.0187495 0)
(-0.0021759 -0.018522 0)
(-0.00127568 -0.0203074 0)
(-0.00151343 -0.0218764 0)
(-0.00158 -0.0220693 0)
(0.000311407 -0.0213619 0)
(0.00207659 -0.0201225 0)
(0.00304224 -0.0201588 0)
(0.00131424 -0.0150562 0)
(-0.00257829 -0.0193421 0)
(-0.000784165 -0.0204972 0)
(0.000790215 -0.0218697 0)
(0.00150642 -0.0215462 0)
(0.000494071 -0.0220182 0)
(0.0012141 -0.021281 0)
(0.0029923 -0.0188608 0)
(0.00317692 -0.0171905 0)
(-0.00046425 -0.0188434 0)
(0.000178029 -0.0171843 0)
(-0.00167892 -0.0191405 0)
(-0.00111276 -0.0255091 0)
(-0.00144249 -0.0260547 0)
(-0.00202217 -0.0264352 0)
(-0.00173991 -0.0246892 0)
(0.00138786 -0.0228868 0)
(-0.00133548 -0.0245619 0)
(0.00016599 -0.0250721 0)
(0.00158586 -0.0231075 0)
(0.0050037 -0.0229045 0)
(0.00326979 -0.0217777 0)
(0.00209412 -0.0190764 0)
(0.00137223 -0.0177406 0)
(-0.000535212 -0.0171703 0)
(-3.54995e-05 -0.0172657 0)
(-0.000176225 -0.0159616 0)
(-0.000233491 -0.0148658 0)
(-0.000935863 -0.0148179 0)
(-0.000185908 -0.0139497 0)
(0.00102358 -0.0130854 0)
(-0.000412906 -0.0120778 0)
(-0.00166778 -0.0124944 0)
(-0.00295502 -0.011482 0)
(-0.00255393 -0.0119589 0)
(-9.89889e-05 -0.012521 0)
(-0.000555265 -0.0130665 0)
(0.00101221 -0.0127258 0)
(0.00264974 -0.012012 0)
(0.0029809 -0.0106571 0)
(0.00462841 -0.0100459 0)
(-0.0023204 -0.0153752 0)
(-0.000316842 -0.0172032 0)
(-0.00254104 -0.0161121 0)
(-0.000421255 -0.0158113 0)
(0.000152955 -0.0157337 0)
(-0.000159209 -0.0143389 0)
(0.00136657 -0.0127183 0)
(0.00167298 -0.00935874 0)
(0.001085 -0.00782884 0)
(0.000563189 -0.00845617 0)
(0.00097107 -0.0101927 0)
(0.000607324 -0.0125682 0)
(-0.00266542 -0.0139157 0)
(-0.0035304 -0.0110735 0)
(0.000516829 -0.00997544 0)
(-0.000781409 -0.0152941 0)
(-0.000419059 -0.0142889 0)
(-0.000584018 -0.014929 0)
(0.0020836 -0.0185088 0)
(0.00351544 -0.0163837 0)
(0.00453874 -0.0154918 0)
(0.00392877 -0.0144984 0)
(0.00448732 -0.0168413 0)
(0.00283295 -0.0196828 0)
(0.000857202 -0.0196355 0)
(-0.00144223 -0.0208604 0)
(-0.00176999 -0.0223744 0)
(-0.000743311 -0.0243339 0)
(-0.000719126 -0.0247342 0)
(-0.00231554 -0.0237635 0)
(-0.00316341 -0.0219363 0)
(-0.00103929 -0.0199126 0)
(0.000400484 -0.0192963 0)
(0.000986827 -0.0198609 0)
(0.000530585 -0.0159461 0)
(-0.00120492 -0.0215383 0)
(0.000903089 -0.02099 0)
(0.00109514 -0.0201328 0)
(0.00129215 -0.021338 0)
(-0.00111027 -0.0218061 0)
(-0.00057146 -0.0205078 0)
(0.0010606 -0.0190913 0)
(0.0013915 -0.0184968 0)
(0.000213055 -0.0161395 0)
(0.00469053 -0.0154837 0)
(-0.000319387 -0.0176876 0)
(0.000441031 -0.0212487 0)
(0.000257507 -0.0229528 0)
(-0.000946338 -0.0221272 0)
(0.00156057 -0.0177205 0)
(-0.000701953 -0.0195792 0)
(-0.00270424 -0.023911 0)
(-0.000707801 -0.0240872 0)
(-0.000276934 -0.0186656 0)
(1.09971e-05 -0.0173708 0)
(-0.00155688 -0.0191594 0)
(-0.00243321 -0.0143164 0)
(-0.00184511 -0.0142689 0)
(-0.000725049 -0.0134724 0)
(-0.00179327 -0.0106428 0)
(-0.00115375 -0.0112875 0)
(-0.00125976 -0.0120103 0)
(-0.00195013 -0.010924 0)
(-0.00209023 -0.00922213 0)
(0.000903157 -0.0114991 0)
(-3.56066e-05 -0.0120766 0)
(-2.97551e-05 -0.0116182 0)
(-0.000846106 -0.0117325 0)
(-0.00175603 -0.0123161 0)
(0.00128082 -0.0123542 0)
(-0.0015792 -0.0131933 0)
(0.000171844 -0.0134238 0)
(0.004541 -0.0157452 0)
(0.00441761 -0.0146327 0)
(0.00390585 -0.0159779 0)
(0.000772587 -0.0176535 0)
(0.000788464 -0.0180527 0)
(-0.00150124 -0.0151926 0)
(-0.00124978 -0.0135854 0)
(-0.00309391 -0.0172869 0)
(-0.00404737 -0.0159669 0)
(-0.000826861 -0.0136391 0)
(0.00233103 -0.0138244 0)
(0.00136015 -0.0155222 0)
(0.00181806 -0.0158037 0)
(0.00136504 -0.0134108 0)
(0.00348208 -0.0132184 0)
(0.00166536 -0.0150675 0)
(0.00315397 -0.0119654 0)
(0.00252053 -0.0127474 0)
(-9.34783e-05 -0.0159546 0)
(0.00103684 -0.0129284 0)
(-0.0035899 -0.0124577 0)
(-0.00393348 -0.0176549 0)
(-0.00163525 -0.0201273 0)
(0.00414644 -0.0164651 0)
(0.00584506 -0.0130665 0)
(0.00409148 -0.0133758 0)
(0.00092929 -0.0157616 0)
(0.00063791 -0.0157134 0)
(0.000966364 -0.018037 0)
(0.00131569 -0.0206911 0)
(0.000655775 -0.0230603 0)
(-0.00216763 -0.0227307 0)
(-0.00520423 -0.0205292 0)
(-0.00496155 -0.0193428 0)
(-0.00218672 -0.0184142 0)
(-0.000842354 -0.0180851 0)
(-0.000307581 -0.0194963 0)
(0.000202637 -0.0163253 0)
(-7.90042e-05 -0.0192161 0)
(-4.23167e-06 -0.019559 0)
(3.33322e-05 -0.0155575 0)
(-3.20192e-05 -0.0135686 0)
(0.000353476 -0.0172258 0)
(0.000464756 -0.0180185 0)
(0.00117867 -0.0175606 0)
(0.00195187 -0.0170642 0)
(0.000352343 -0.0133077 0)
(0.000121617 -0.0130497 0)
(0.000340517 -0.0170766 0)
(0.00116216 -0.0165668 0)
(0.000841342 -0.015812 0)
(2.00313e-05 -0.0109636 0)
(-0.000213951 -0.00971641 0)
(-0.00295822 -0.0129555 0)
(-0.0023066 -0.0133026 0)
(0.000120112 -0.0131136 0)
(0.0016582 -0.0119284 0)
(-0.00194517 -0.0108474 0)
(-0.00158277 -0.0112417 0)
(-0.00189369 -0.0122321 0)
(-0.00176549 -0.0121226 0)
(-0.00149083 -0.0120291 0)
(-0.00346024 -0.0115346 0)
(-0.000141404 -0.00989745 0)
(0.00139233 -0.010581 0)
(0.00528056 -0.00886394 0)
(8.79181e-05 -0.0100602 0)
(-0.00201911 -0.0177362 0)
(-0.00212804 -0.0217498 0)
(-0.00151282 -0.0186036 0)
(-0.000889114 -0.0181305 0)
(0.000103068 -0.0136877 0)
(0.00115235 -0.0129142 0)
(0.00198932 -0.0146452 0)
(0.00285755 -0.0116516 0)
(0.00392787 -0.0158879 0)
(0.00407285 -0.0171965 0)
(0.00189179 -0.0152038 0)
(-0.000430661 -0.014148 0)
(-0.000131641 -0.0137446 0)
(0.000812058 -0.0155336 0)
(-0.00200258 -0.0162467 0)
(-0.00277019 -0.020194 0)
(-0.0021354 -0.0171168 0)
(0.000751029 -0.0141995 0)
(0.000125544 -0.0185394 0)
(-0.000575063 -0.0219313 0)
(-0.000291383 -0.0195701 0)
(0.000519321 -0.013278 0)
(0.00174368 -0.013739 0)
(0.00227851 -0.0180575 0)
(0.00412717 -0.0159622 0)
(0.00114679 -0.0148849 0)
(0.00186003 -0.014175 0)
(0.000428003 -0.0132246 0)
(-0.00202224 -0.0151963 0)
(-0.00387398 -0.0192517 0)
(-0.0016627 -0.0218089 0)
(0.00206561 -0.0213566 0)
(0.00565127 -0.0177186 0)
(0.0039456 -0.0164318 0)
(0.00300076 -0.0157259 0)
(0.00160065 -0.0154994 0)
(0.00178677 -0.0179612 0)
(0.00253446 -0.018234 0)
(0.00171317 -0.0175611 0)
(-0.00310151 -0.0154934 0)
(-0.00541828 -0.0144535 0)
(-0.00486385 -0.0157674 0)
(-0.00263235 -0.0167283 0)
(-0.00131596 -0.0172686 0)
(-0.00106585 -0.0193677 0)
(1.0089e-05 -0.0166961 0)
(0.00239415 -0.0202105 0)
(-0.00120857 -0.0222473 0)
(-5.78846e-05 -0.0217193 0)
(-0.000120498 -0.0193002 0)
(0.000915617 -0.0196736 0)
(0.000201746 -0.0207361 0)
(0.000318518 -0.0206067 0)
(0.00101878 -0.0211016 0)
(0.00221597 -0.0170277 0)
(-0.000797856 -0.015241 0)
(8.83754e-05 -0.0172012 0)
(0.00125146 -0.0171715 0)
(0.00141271 -0.0157724 0)
(0.00125155 -0.0141131 0)
(-0.00440363 -0.0108313 0)
(-0.00211568 -0.0100564 0)
(-0.00147055 -0.0123631 0)
(-0.00118746 -0.0156547 0)
(-0.00218459 -0.0161549 0)
(-0.000218952 -0.0146862 0)
(-0.00277681 -0.0151163 0)
(0.000147101 -0.0149658 0)
(-0.00044739 -0.0165218 0)
(-0.00248679 -0.0177533 0)
(-0.00303764 -0.01399 0)
(-0.000723162 -0.0144301 0)
(0.00302883 -0.0138615 0)
(0.00546985 -0.0120743 0)
(0.00335593 -0.0146531 0)
(0.000945027 -0.0205475 0)
(-0.00156529 -0.0256599 0)
(-0.00268354 -0.0254715 0)
(-0.00249366 -0.0254822 0)
(3.40369e-05 -0.0251463 0)
(9.88582e-05 -0.024028 0)
(0.00311051 -0.0226515 0)
(0.00122411 -0.0190263 0)
(-0.00103585 -0.0181941 0)
(0.0013397 -0.0176185 0)
(0.000946874 -0.0168965 0)
(0.00211418 -0.0139757 0)
(0.000439015 -0.0145732 0)
(0.000248965 -0.0191668 0)
(-0.000685873 -0.0188756 0)
(-0.000553954 -0.0197782 0)
(-0.000888145 -0.0176843 0)
(0.000675319 -0.0169745 0)
(-0.00211615 -0.0196111 0)
(-0.000786766 -0.021124 0)
(0.00123582 -0.0217073 0)
(0.00275638 -0.018414 0)
(2.80591e-05 -0.0168929 0)
(0.000243101 -0.0174091 0)
(0.00030554 -0.0145313 0)
(0.00272026 -0.0131241 0)
(0.0029996 -0.0132389 0)
(0.00154926 -0.0115393 0)
(-0.00197835 -0.0109689 0)
(0.00146094 -0.0158392 0)
(-0.000776613 -0.0199426 0)
(-0.00154716 -0.0189758 0)
(0.00180122 -0.0180782 0)
(0.00143047 -0.0173225 0)
(0.00255388 -0.0148103 0)
(0.00100434 -0.0139103 0)
(0.000223729 -0.0141647 0)
(0.000138741 -0.0136876 0)
(-0.00156907 -0.0119937 0)
(-0.00377765 -0.0111331 0)
(-0.00443546 -0.0123643 0)
(-0.00227555 -0.015123 0)
(-0.000548131 -0.0152466 0)
(-0.000421396 -0.0163367 0)
(-0.000397673 -0.0188075 0)
(0.000126964 -0.0165895 0)
(0.000353089 -0.0139382 0)
(-0.000789614 -0.0171035 0)
(-0.00247129 -0.0175296 0)
(-0.00119077 -0.0166654 0)
(0.000320342 -0.0159997 0)
(0.000859208 -0.0180692 0)
(0.00138367 -0.0193795 0)
(0.00107566 -0.0209751 0)
(0.000143527 -0.0193784 0)
(-0.00271831 -0.0177286 0)
(-0.00138994 -0.0161773 0)
(-1.78286e-05 -0.0134843 0)
(0.000847547 -0.0114737 0)
(-0.00115872 -0.013114 0)
(-0.00316623 -0.0115494 0)
(-0.00358445 -0.00822287 0)
(-0.00161537 -0.01154 0)
(0.00187818 -0.0173141 0)
(0.00105042 -0.0151381 0)
(-0.00099884 -0.0157136 0)
(-0.000475041 -0.0165831 0)
(-0.000712724 -0.0155181 0)
(-0.00293538 -0.019775 0)
(-0.00287959 -0.0201043 0)
(0.00058499 -0.0160599 0)
(0.000334112 -0.0146517 0)
(0.00534522 -0.0192051 0)
(0.00235607 -0.0221159 0)
(0.00506482 -0.0166641 0)
(0.001226 -0.018808 0)
(2.8583e-05 -0.0237311 0)
(-0.000849613 -0.0250776 0)
(-0.00142207 -0.0281223 0)
(0.00015999 -0.0303326 0)
(-0.000165854 -0.0309345 0)
(0.000121079 -0.0299358 0)
(-0.000966312 -0.0261464 0)
(-0.00105821 -0.0245752 0)
(-0.000802725 -0.0225653 0)
(0.000944148 -0.0205836 0)
(0.0021692 -0.0186799 0)
(0.00161422 -0.0189738 0)
(-0.0016 -0.0181776 0)
(-0.000780052 -0.0166386 0)
(-0.00116152 -0.020049 0)
(-0.0011423 -0.0163563 0)
(-0.000654401 -0.0170926 0)
(0.000524391 -0.0254537 0)
(-0.00126727 -0.0279767 0)
(-0.000207472 -0.0263491 0)
(0.000479784 -0.0232817 0)
(-0.000980973 -0.0215107 0)
(-0.00168828 -0.020937 0)
(-0.00326896 -0.0184516 0)
(-0.000585052 -0.0161556 0)
(0.0011131 -0.0166502 0)
(0.00332325 -0.0164583 0)
(0.00249048 -0.0123598 0)
(0.00289618 -0.013926 0)
(0.00230008 -0.0210159 0)
(0.00104025 -0.0180589 0)
(-0.000728704 -0.0161151 0)
(0.00198184 -0.0164339 0)
(0.00259942 -0.015271 0)
(0.00220039 -0.0153247 0)
(0.00195871 -0.0147995 0)
(0.00110385 -0.0151172 0)
(-0.00153473 -0.0159292 0)
(-0.00249458 -0.0157126 0)
(-0.00190271 -0.0166233 0)
(-0.00147799 -0.0174342 0)
(-0.00126046 -0.0168617 0)
(-0.000960375 -0.0168622 0)
(-0.000761141 -0.0193955 0)
(4.15042e-05 -0.0167066 0)
(-0.00104378 -0.0102565 0)
(-0.00163212 -0.0108136 0)
(-0.00199976 -0.0107823 0)
(0.00126137 -0.0103603 0)
(0.000233438 -0.011545 0)
(0.0019571 -0.0123514 0)
(0.00240228 -0.0141347 0)
(0.00292634 -0.0144535 0)
(0.000381175 -0.0140268 0)
(-0.00352444 -0.0158006 0)
(-0.00312047 -0.0157663 0)
(-0.000428295 -0.013258 0)
(-0.00048678 -0.0117129 0)
(0.000924228 -0.0126878 0)
(0.00266956 -0.0156318 0)
(-0.00102945 -0.0173443 0)
(-0.00177478 -0.0164167 0)
(0.00158602 -0.0164753 0)
(0.00260413 -0.0192682 0)
(-0.0037221 -0.0179647 0)
(0.00120604 -0.0180378 0)
(-0.00224849 -0.0201796 0)
(-0.00199131 -0.0237339 0)
(-0.00193947 -0.0240682 0)
(0.0048349 -0.025166 0)
(0.00153427 -0.0250787 0)
(0.00141326 -0.0273223 0)
(0.00212629 -0.0248706 0)
(0.00475152 -0.0227913 0)
(0.00046558 -0.0262621 0)
(-0.000291097 -0.026086 0)
(0.000630113 -0.0240552 0)
(0.00138606 -0.024062 0)
(0.000680189 -0.0259484 0)
(0.00095919 -0.0270696 0)
(-0.00160473 -0.0254558 0)
(-0.00253638 -0.0218235 0)
(-0.00301228 -0.0197992 0)
(-0.000602092 -0.0174554 0)
(-0.000466147 -0.0176268 0)
(0.000165928 -0.0169825 0)
(0.000447935 -0.0171245 0)
(0.000821496 -0.0145395 0)
(0.000764655 -0.0143709 0)
(0.00127973 -0.0210088 0)
(0.00418638 -0.0167033 0)
(6.40673e-05 -0.0140836 0)
(-0.000520782 -0.0208436 0)
(0.000821256 -0.025798 0)
(-0.00105463 -0.0255855 0)
(-0.00142255 -0.0232753 0)
(-0.0016183 -0.0215648 0)
(-0.00250773 -0.0213784 0)
(-0.00267933 -0.0175504 0)
(-0.000912891 -0.0168737 0)
(-0.000495331 -0.0212651 0)
(0.00275818 -0.0201572 0)
(0.00549821 -0.0154336 0)
(0.00297227 -0.0149638 0)
(0.00228938 -0.0149274 0)
(0.00221164 -0.012242 0)
(-0.00371911 -0.00963227 0)
(-0.00244313 -0.00918452 0)
(0.000220007 -0.00999253 0)
(0.00213121 -0.00830025 0)
(0.00150732 -0.0080383 0)
(-0.000298259 -0.00915305 0)
(-0.00184702 -0.0126213 0)
(-0.00351412 -0.0126666 0)
(-0.00239186 -0.0127812 0)
(-0.00114937 -0.0134082 0)
(-0.00105706 -0.0148143 0)
(-0.000194812 -0.01558 0)
(-2.9981e-05 -0.0185897 0)
(-1.49742e-05 -0.0164451 0)
(-0.00243041 -0.0134419 0)
(-0.00290888 -0.0157967 0)
(-0.00125013 -0.0128943 0)
(-0.00127645 -0.0113599 0)
(-0.00114765 -0.0144702 0)
(0.000242859 -0.0169919 0)
(0.00154274 -0.0181047 0)
(0.0022596 -0.0161465 0)
(0.0021605 -0.0161987 0)
(-2.75867e-05 -0.0175746 0)
(-0.004093 -0.0146209 0)
(-0.00234987 -0.0150466 0)
(-0.0019568 -0.013737 0)
(0.00281491 -0.00937214 0)
(0.00426188 -0.0105008 0)
(4.08451e-05 -0.0131766 0)
(1.34584e-05 -0.0101279 0)
(-0.000235398 -0.00825245 0)
(0.00207891 -0.0108262 0)
(0.00110291 -0.00821256 0)
(-0.0015525 -0.0100125 0)
(0.00159187 -0.0159393 0)
(0.000720476 -0.0212014 0)
(0.0028667 -0.0203325 0)
(0.00394183 -0.0207807 0)
(0.00423591 -0.0213425 0)
(0.00133778 -0.0223031 0)
(0.00259865 -0.0244262 0)
(-0.00110515 -0.0239688 0)
(-0.00128626 -0.0250594 0)
(-0.000710245 -0.0236445 0)
(0.0015123 -0.0221169 0)
(0.00143357 -0.0216139 0)
(0.00210447 -0.0206489 0)
(-4.4681e-05 -0.0218413 0)
(-0.00334806 -0.0207888 0)
(-0.00571648 -0.0170716 0)
(-0.00490046 -0.0182317 0)
(-0.00180243 -0.0176901 0)
(0.00112887 -0.0168386 0)
(0.00238265 -0.0169029 0)
(0.000946817 -0.0192526 0)
(0.0029499 -0.0178725 0)
(0.00122923 -0.0161407 0)
(0.00214476 -0.0155907 0)
(0.00367403 -0.0118217 0)
(-0.000330908 -0.00935882 0)
(-0.00201669 -0.00969508 0)
(0.000847688 -0.0136833 0)
(3.00809e-05 -0.0172081 0)
(-0.00169497 -0.0145029 0)
(-0.00302582 -0.0159932 0)
(-0.00313723 -0.0176807 0)
(-0.00224547 -0.0142119 0)
(-0.00312967 -0.0144847 0)
(-0.00233781 -0.0174756 0)
(0.00205944 -0.0170762 0)
(0.00085056 -0.01522 0)
(0.00151545 -0.0134474 0)
(0.00235826 -0.0115981 0)
(0.00227557 -0.00880186 0)
(0.000632811 -0.00974261 0)
(-0.00369898 -0.0100591 0)
(-0.00208581 -0.00948248 0)
(-0.00107709 -0.0058852 0)
(0.00291205 -0.00378429 0)
(0.00440355 -0.00444097 0)
(0.00175255 -0.00740294 0)
(-0.00181608 -0.0111344 0)
(-0.000464146 -0.0136914 0)
(0.00104348 -0.0143216 0)
(0.000806816 -0.015769 0)
(3.63648e-05 -0.0170454 0)
(0.000256702 -0.0193065 0)
(3.44546e-05 -0.0168836 0)
(0.00169481 -0.014441 0)
(0.0021336 -0.0162205 0)
(0.00253599 -0.0183833 0)
(-0.00199056 -0.0186572 0)
(-0.00169027 -0.0212186 0)
(-6.94697e-05 -0.0238504 0)
(0.00255097 -0.0245099 0)
(0.00278155 -0.0220949 0)
(0.00279894 -0.0205807 0)
(0.000250519 -0.0199611 0)
(-0.00313707 -0.0142208 0)
(-0.00523322 -0.0160851 0)
(-0.00402447 -0.0188008 0)
(-0.000727536 -0.014773 0)
(0.00224057 -0.0127471 0)
(0.00267672 -0.0122996 0)
(0.000871903 -0.0123979 0)
(-0.00167057 -0.0110718 0)
(-0.000573385 -0.00960868 0)
(0.00642488 -0.011235 0)
(0.00308146 -0.0103185 0)
(0.00253617 -0.0112293 0)
(0.00240343 -0.0155045 0)
(0.00465984 -0.0176673 0)
(0.00347667 -0.0194171 0)
(0.00333549 -0.0202351 0)
(-0.00188509 -0.0194254 0)
(0.00148312 -0.017715 0)
(-0.00203387 -0.0187191 0)
(-0.00176142 -0.0197751 0)
(-0.000828037 -0.0183296 0)
(9.92882e-05 -0.0166013 0)
(0.00179355 -0.0166152 0)
(0.00498459 -0.0157787 0)
(0.000476825 -0.0169913 0)
(-0.00344324 -0.0164465 0)
(-0.00499755 -0.0167049 0)
(-0.00453862 -0.0191442 0)
(-0.00326229 -0.0206396 0)
(0.000994429 -0.0212231 0)
(0.00129889 -0.0215222 0)
(0.0001 -0.0207496 0)
(-0.00230476 -0.0180888 0)
(0.000121014 -0.0150592 0)
(0.000194468 -0.0150049 0)
(-0.000314776 -0.0127687 0)
(-0.00187437 -0.0112467 0)
(0.00229793 -0.00947465 0)
(0.000196053 -0.0120625 0)
(0.000389785 -0.0165216 0)
(-0.000315766 -0.0188259 0)
(-0.00233923 -0.0191511 0)
(-0.00222094 -0.0183129 0)
(-0.00129372 -0.0177372 0)
(-0.00235628 -0.0182594 0)
(0.00131748 -0.0143183 0)
(0.00170895 -0.0145115 0)
(0.000727504 -0.0180323 0)
(-0.000605719 -0.0172917 0)
(0.000575762 -0.0151296 0)
(0.00154613 -0.01108 0)
(-0.00143693 -0.0100217 0)
(-0.00305145 -0.00940587 0)
(-0.00331604 -0.0106014 0)
(-0.00281738 -0.00777465 0)
(-0.000822078 -0.00415703 0)
(0.00115966 -0.00891784 0)
(0.00317423 -0.0106368 0)
(0.00231715 -0.0144841 0)
(0.00142067 -0.016081 0)
(0.00169418 -0.0157202 0)
(0.00179975 -0.0154956 0)
(0.000681127 -0.0163111 0)
(0.000446509 -0.0187716 0)
(1.86873e-05 -0.0164936 0)
(0.00276607 -0.0182592 0)
(0.000490799 -0.016273 0)
(-0.000166046 -0.015127 0)
(-0.000824703 -0.014644 0)
(-0.000194021 -0.014146 0)
(0.00140958 -0.0146919 0)
(0.00281515 -0.016647 0)
(0.00214026 -0.0182905 0)
(2.40327e-05 -0.0202383 0)
(-0.000472969 -0.0185522 0)
(-0.00178606 -0.01636 0)
(-0.00431521 -0.0199691 0)
(-0.00376745 -0.021867 0)
(-0.00442362 -0.0191676 0)
(0.00233762 -0.0158475 0)
(0.00286561 -0.0155617 0)
(0.00174432 -0.0157782 0)
(0.000475715 -0.016635 0)
(0.000341325 -0.0129114 0)
(0.00223334 -0.00996069 0)
(0.00338931 -0.0114486 0)
(0.000840092 -0.00933903 0)
(0.00349695 -0.0110036 0)
(0.00661857 -0.0128847 0)
(0.00602348 -0.0156315 0)
(0.00447426 -0.0195071 0)
(0.00093589 -0.0162186 0)
(-0.000151101 -0.0177414 0)
(-0.002423 -0.0198221 0)
(-0.00242873 -0.0164408 0)
(-0.00199908 -0.0147581 0)
(-0.000921764 -0.0125822 0)
(-0.000475219 -0.00935207 0)
(0.00174877 -0.00883034 0)
(0.000692753 -0.0119732 0)
(-0.00395083 -0.0106467 0)
(-0.00331398 -0.0107526 0)
(-0.000915497 -0.01604 0)
(0.00022268 -0.0192369 0)
(0.00342016 -0.0217288 0)
(0.00164656 -0.0198745 0)
(-0.00314696 -0.0158129 0)
(-0.00182904 -0.0107326 0)
(-0.000658596 -0.0111958 0)
(-0.000549994 -0.0167776 0)
(-0.000223776 -0.0166338 0)
(-0.000408836 -0.0113112 0)
(0.00465542 -0.0115344 0)
(0.0023582 -0.0171813 0)
(0.000919997 -0.0187782 0)
(-0.00109025 -0.0188172 0)
(-0.00530174 -0.0170238 0)
(-0.00247955 -0.0157207 0)
(-0.00288125 -0.0164959 0)
(-0.00144345 -0.0150274 0)
(0.00139373 -0.0152167 0)
(-0.00161446 -0.0182135 0)
(-0.000135104 -0.0187742 0)
(-0.000299287 -0.0177527 0)
(-0.000441323 -0.014634 0)
(-0.00308742 -0.0109425 0)
(-0.0042871 -0.0103511 0)
(-0.00270119 -0.00947859 0)
(-0.00114238 -0.0108608 0)
(0.00146232 -0.0101955 0)
(0.00100784 -0.0100812 0)
(0.00209065 -0.0134393 0)
(0.00535321 -0.0144256 0)
(0.00456454 -0.0160424 0)
(0.0014518 -0.017697 0)
(0.000975101 -0.0175086 0)
(0.000994071 -0.016806 0)
(0.000574867 -0.0170058 0)
(0.000420269 -0.019489 0)
(5.77456e-06 -0.0168405 0)
(0.00104924 -0.0172503 0)
(-0.000436362 -0.0162674 0)
(0.000499575 -0.018571 0)
(0.00137889 -0.0206672 0)
(0.000588394 -0.0150348 0)
(0.000682948 -0.0111706 0)
(0.00304301 -0.0130893 0)
(0.00320458 -0.0175352 0)
(0.00238736 -0.0191353 0)
(0.00119487 -0.0200974 0)
(-0.00164928 -0.0208372 0)
(-0.00351118 -0.0217119 0)
(-0.00325193 -0.0235712 0)
(-0.00381387 -0.0189353 0)
(-0.000539884 -0.0183188 0)
(0.000577987 -0.0232018 0)
(0.00128074 -0.0231245 0)
(-0.00060179 -0.0235187 0)
(-0.00105319 -0.0214877 0)
(-0.00199811 -0.0197885 0)
(0.000326425 -0.0193399 0)
(0.00106151 -0.0184261 0)
(0.00782313 -0.0188519 0)
(0.0099103 -0.0190665 0)
(0.0065235 -0.0198114 0)
(0.00597198 -0.0194565 0)
(0.0025215 -0.0153479 0)
(-0.00462365 -0.0132856 0)
(-0.00305841 -0.0129706 0)
(-0.00404803 -0.0101568 0)
(-0.00496536 -0.00989377 0)
(-0.00146193 -0.00827511 0)
(0.00485679 -0.0025333 0)
(0.00326446 -0.00269497 0)
(-0.000814737 -0.00954082 0)
(-0.00221589 -0.00968112 0)
(-0.00197892 -0.0137649 0)
(0.00102089 -0.020053 0)
(0.00269508 -0.0174009 0)
(0.00162889 -0.0193626 0)
(-0.00238139 -0.0208785 0)
(-0.00476513 -0.0132527 0)
(-0.000912144 -0.00886348 0)
(-0.00132207 -0.0146802 0)
(-0.00127472 -0.0191155 0)
(0.00054305 -0.0192934 0)
(0.00215937 -0.0149263 0)
(0.000221606 -0.0156472 0)
(0.000916539 -0.0196277 0)
(0.00122751 -0.0170336 0)
(-0.000953659 -0.0147881 0)
(-0.00261918 -0.00894932 0)
(-0.00313202 -0.0100141 0)
(-0.00383712 -0.0156396 0)
(0.00277585 -0.0170782 0)
(-0.000576603 -0.0185042 0)
(0.00158217 -0.0192541 0)
(0.000301964 -0.0185812 0)
(-0.00131688 -0.0169385 0)
(-0.00413062 -0.0150331 0)
(-0.00342477 -0.0157545 0)
(-0.00160631 -0.0180619 0)
(-0.0032457 -0.0186636 0)
(-0.00315996 -0.0185697 0)
(-0.00117438 -0.01591 0)
(0.000711458 -0.0143478 0)
(0.00299697 -0.0166806 0)
(0.00511491 -0.0165134 0)
(0.00537698 -0.015648 0)
(0.00269316 -0.0159679 0)
(0.00171494 -0.0160441 0)
(0.00150273 -0.0156402 0)
(0.0010418 -0.0162779 0)
(0.000814111 -0.0188986 0)
(-7.2857e-06 -0.0165631 0)
(0.00280272 -0.0150322 0)
(0.00329224 -0.0201526 0)
(0.00142395 -0.0227948 0)
(0.000299845 -0.0234542 0)
(0.000259179 -0.0192738 0)
(-0.00159448 -0.0155072 0)
(-0.000580724 -0.0162865 0)
(0.000992783 -0.018677 0)
(0.00169329 -0.017862 0)
(0.000101963 -0.0160556 0)
(0.000671504 -0.0144158 0)
(-0.00121038 -0.015182 0)
(-0.00220457 -0.0169703 0)
(-0.00171335 -0.0156151 0)
(-0.000280319 -0.0145743 0)
(0.00168556 -0.016066 0)
(0.00358373 -0.0154411 0)
(4.94397e-05 -0.016775 0)
(-0.00239921 -0.0171019 0)
(0.000656767 -0.0194888 0)
(0.00142733 -0.0226881 0)
(0.00169884 -0.0174699 0)
(0.0042143 -0.015625 0)
(0.00419093 -0.0180064 0)
(0.00212901 -0.0136302 0)
(0.00150213 -0.0100714 0)
(0.000321314 -0.00954358 0)
(-0.00365059 -0.00972067 0)
(-0.00574328 -0.00960682 0)
(-0.00478315 -0.0103663 0)
(-0.00414287 -0.0135065 0)
(-0.00359685 -0.0132879 0)
(0.00497319 -0.0105109 0)
(0.00301563 -0.00832394 0)
(0.00216821 -0.00985929 0)
(0.00443618 -0.0121119 0)
(0.00330691 -0.015128 0)
(0.00432667 -0.0138628 0)
(0.00574389 -0.0106209 0)
(-0.00124473 -0.0108773 0)
(-0.0042441 -0.0105515 0)
(-0.0036809 -0.0109988 0)
(-0.0015139 -0.00974165 0)
(-0.00200798 -0.0119525 0)
(0.000169156 -0.017046 0)
(0.00295434 -0.0185501 0)
(0.0038239 -0.0179001 0)
(-0.00156222 -0.0173656 0)
(-0.002097 -0.0163688 0)