/*--------------------------------*- C++ -*----------------------------------*\
  =========                 |
  \\      /  F ield         | OpenFOAM: The Open Source CFD Toolbox
   \\    /   O peration     | Website:  https://openfoam.org
    \\  /    A nd           | Version:  12
     \\/     M anipulation  |
\*---------------------------------------------------------------------------*/
FoamFile
{
    format      ascii;
    class       volScalarField;
    location    "0.05";
    object      p;
}
// * * * * * * * * * * * * * * * * * * * * * * * * * * * * * * * * * * * * * //

dimensions      [0 2 -2 0 0 0 0];

internalField   nonuniform List<scalar> 
3750
(
0.156063
0.153971
0.15188
0.149796
0.147712
0.145629
0.143541
0.141453
0.139365
0.137274
0.135186
0.133103
0.131015
0.128928
0.126841
0.124753
0.122669
0.120582
0.118494
0.116404
0.114314
0.112228
0.110142
0.108056
0.105967
0.103879
0.101791
0.099703
0.0976186
0.0955344
0.0934459
0.0913545
0.089268
0.0871846
0.0851004
0.0830102
0.0809167
0.0788294
0.0767445
0.0746536
0.0725631
0.0704731
0.0683843
0.0663011
0.0642186
0.0621316
0.0600401
0.0579526
0.0558686
0.053782
0.0516952
0.0496098
0.0475236
0.0454375
0.043353
0.0412699
0.0391882
0.0370978
0.0350058
0.0329233
0.0308403
0.0287509
0.0266606
0.0245743
0.0224755
0.0203766
0.0182891
0.0162026
0.0141157
0.0120277
0.00993738
0.0078433
0.00575046
0.00357187
0.00122105
0.156064
0.153971
0.151879
0.149796
0.147712
0.145627
0.143541
0.141458
0.139368
0.137271
0.135183
0.1331
0.131015
0.128928
0.126842
0.124756
0.122671
0.120582
0.118491
0.116404
0.114316
0.112228
0.11014
0.108053
0.105966
0.103879
0.101792
0.099705
0.0976183
0.0955324
0.0934479
0.0913562
0.0892659
0.0871846
0.0850997
0.0830078
0.0809173
0.078833
0.0767442
0.0746527
0.0725631
0.0704723
0.0683846
0.0663004
0.0642163
0.0621303
0.0600426
0.057956
0.0558703
0.0537816
0.0516941
0.0496106
0.0475236
0.0454359
0.0433515
0.0412681
0.0391847
0.0370993
0.0350101
0.0329241
0.030839
0.0287518
0.0266623
0.0245744
0.0224748
0.0203742
0.0182884
0.016202
0.0141167
0.01203
0.00994111
0.00784836
0.00575805
0.00358461
0.00122808
0.156061
0.153971
0.151885
0.149798
0.14771
0.145624
0.14354
0.141456
0.13937
0.137276
0.135182
0.133099
0.131014
0.128927
0.126842
0.124757
0.122672
0.120584
0.118492
0.116404
0.114318
0.112228
0.110138
0.10805
0.105966
0.103879
0.101792
0.0997067
0.0976173
0.0955283
0.0934439
0.0913569
0.0892703
0.0871877
0.0850972
0.0830043
0.080919
0.0788348
0.0767457
0.0746567
0.0725644
0.0704686
0.0683821
0.0662994
0.0642155
0.0621304
0.0600442
0.0579578
0.0558688
0.0537802
0.0516964
0.0496144
0.0475236
0.0454319
0.0433491
0.0412661
0.0391825
0.037098
0.0350114
0.0329249
0.0308392
0.0287541
0.0266618
0.0245715
0.0224753
0.0203763
0.0182893
0.016203
0.0141191
0.012033
0.0099422
0.00785188
0.00576489
0.00359078
0.00123098
0.156061
0.153972
0.151887
0.149801
0.147712
0.145622
0.143536
0.141454
0.139368
0.137279
0.135188
0.133101
0.131013
0.128925
0.126843
0.124756
0.122669
0.120583
0.118495
0.116405
0.114316
0.11223
0.11014
0.108052
0.105967
0.103879
0.101791
0.0997052
0.0976161
0.0955271
0.093442
0.0913566
0.0892707
0.0871852
0.0850969
0.0830085
0.0809204
0.0788328
0.0767462
0.0746573
0.0725631
0.0704707
0.0683837
0.0662981
0.0642153
0.0621313
0.0600455
0.0579559
0.0558667
0.0537813
0.051697
0.0496127
0.0475245
0.0454347
0.0433474
0.0412628
0.0391808
0.0370985
0.0350127
0.0329247
0.0308382
0.0287503
0.0266583
0.0245688
0.0224787
0.0203837
0.0182911
0.0162045
0.0141229
0.0120334
0.00994303
0.00785893
0.00576776
0.00359021
0.00123134
0.156062
0.153976
0.15189
0.149799
0.147709
0.145623
0.143538
0.141454
0.139368
0.137279
0.135189
0.133104
0.131014
0.128923
0.126841
0.124756
0.12267
0.120585
0.118494
0.116403
0.114319
0.112234
0.110141
0.108051
0.10597
0.10388
0.101787
0.0997003
0.0976147
0.0955294
0.093441
0.091356
0.0892707
0.0871847
0.0850963
0.083007
0.0809213
0.0788363
0.0767487
0.0746556
0.0725599
0.070469
0.0683847
0.0663004
0.0642165
0.0621328
0.0600439
0.0579536
0.0558681
0.0537821
0.0516967
0.0496139
0.0475266
0.0454355
0.0433436
0.0412574
0.0391796
0.0371015
0.0350156
0.0329234
0.0308384
0.0287493
0.0266533
0.0245665
0.0224801
0.0203893
0.0182943
0.0162018
0.01412
0.0120339
0.00994611
0.00786064
0.00577049
0.0035942
0.00123282
0.156064
0.153978
0.15189
0.149797
0.147709
0.145624
0.143539
0.141455
0.13937
0.137278
0.135187
0.133105
0.131014
0.128922
0.126842
0.124757
0.122669
0.120585
0.118494
0.116402
0.114321
0.112232
0.11014
0.108055
0.10597
0.10388
0.101786
0.0996951
0.0976115
0.0955288
0.0934429
0.0913566
0.0892709
0.0871863
0.0850969
0.0830081
0.0809214
0.0788352
0.0767492
0.0746569
0.0725598
0.0704681
0.0683855
0.0663019
0.064217
0.0621325
0.0600433
0.0579542
0.0558702
0.0537815
0.0516938
0.0496124
0.0475249
0.0454312
0.0433421
0.0412589
0.0391778
0.0370959
0.0350109
0.0329232
0.0308373
0.0287473
0.0266559
0.0245721
0.0224818
0.0203911
0.0183016
0.0162038
0.0141151
0.0120333
0.00994757
0.00786047
0.00577414
0.00359883
0.00123424
0.156064
0.153976
0.151888
0.149799
0.147712
0.145625
0.143539
0.141456
0.139372
0.137277
0.135182
0.133101
0.131014
0.128924
0.126842
0.124759
0.122671
0.120586
0.118493
0.116399
0.114319
0.112231
0.110139
0.108055
0.105971
0.103878
0.101783
0.099698
0.0976144
0.0955292
0.0934442
0.0913569
0.0892697
0.0871858
0.0850965
0.0830082
0.0809209
0.0788335
0.0767492
0.074662
0.0725624
0.0704666
0.0683868
0.0663039
0.0642167
0.0621298
0.0600428
0.0579569
0.0558705
0.0537795
0.0516917
0.0496098
0.0475217
0.0454298
0.0433428
0.0412588
0.0391759
0.0370927
0.0350082
0.0329211
0.0308337
0.0287461
0.0266583
0.0245717
0.0224822
0.0203927
0.0183047
0.0162111
0.0141193
0.012035
0.00994817
0.00785973
0.00577502
0.00360049
0.00123488
0.15606
0.153974
0.151888
0.1498
0.147713
0.145627
0.143542
0.141457
0.13937
0.137276
0.135181
0.133097
0.131013
0.128927
0.126842
0.124758
0.12267
0.120582
0.118494
0.116406
0.114324
0.112229
0.110134
0.108052
0.105967
0.103877
0.101787
0.0997008
0.0976166
0.095529
0.0934417
0.091357
0.0892719
0.087184
0.0850946
0.0830079
0.080921
0.0788353
0.0767505
0.0746583
0.0725622
0.0704745
0.068392
0.0663053
0.0642158
0.0621274
0.0600416
0.0579594
0.0558684
0.0537751
0.0516908
0.0496068
0.0475209
0.045431
0.0433415
0.0412571
0.0391741
0.037091
0.0350075
0.0329192
0.0308304
0.0287453
0.0266596
0.0245731
0.0224827
0.0203927
0.0183059
0.0162165
0.0141238
0.0120336
0.00994977
0.00786263
0.0057743
0.00360003
0.00123495
0.15606
0.153971
0.151887
0.1498
0.147714
0.145629
0.143544
0.141453
0.139362
0.137275
0.135187
0.1331
0.131014
0.128928
0.126841
0.124754
0.122669
0.120583
0.118495
0.116407
0.11432
0.112228
0.110139
0.108054
0.105964
0.103876
0.101789
0.0997012
0.0976155
0.0955287
0.0934433
0.0913575
0.0892702
0.0871834
0.0850973
0.083008
0.0809193
0.0788361
0.0767519
0.0746572
0.0725619
0.070478
0.0683935
0.0663028
0.064215
0.0621301
0.0600427
0.0579566
0.0558677
0.0537772
0.0516906
0.0496031
0.0475176
0.045432
0.0433423
0.0412547
0.0391717
0.0370891
0.0350051
0.0329181
0.0308304
0.0287454
0.0266605
0.0245718
0.022483
0.0203957
0.0183027
0.0162118
0.014127
0.0120412
0.00995505
0.00786522
0.00577424
0.00359847
0.00123453
0.156061
0.15397
0.151884
0.149799
0.147715
0.145631
0.143543
0.141452
0.139363
0.137276
0.135189
0.133102
0.131015
0.12893
0.126839
0.12475
0.122667
0.120582
0.118495
0.116405
0.114316
0.11223
0.110143
0.108055
0.105963
0.103874
0.101791
0.0997059
0.0976156
0.0955267
0.0934452
0.091359
0.0892679
0.0871824
0.0851023
0.0830077
0.0809131
0.0788367
0.0767498
0.0746569
0.0725658
0.0704767
0.0683919
0.0663042
0.0642187
0.0621345
0.0600418
0.0579502
0.0558675
0.0537765
0.0516859
0.0496039
0.0475207
0.0454304
0.0433407
0.0412548
0.0391697
0.0370878
0.0350052
0.0329174
0.0308286
0.0287448
0.0266583
0.0245702
0.0224816
0.0203919
0.0183037
0.0162162
0.0141312
0.012047
0.00995712
0.00786304
0.00577452
0.0035999
0.00123485
0.156062
0.153972
0.15188
0.149796
0.147714
0.14563
0.143546
0.141454
0.139364
0.137276
0.135186
0.133102
0.131016
0.128931
0.12684
0.12475
0.122665
0.12058
0.118492
0.116403
0.114316
0.112233
0.110147
0.108053
0.10596
0.103876
0.101793
0.0997083
0.0976146
0.0955248
0.0934451
0.0913581
0.0892677
0.0871826
0.0850999
0.0830069
0.0809141
0.0788348
0.076748
0.074657
0.0725693
0.0704836
0.0683935
0.0663023
0.0642203
0.0621337
0.0600397
0.0579497
0.055863
0.053774
0.0516876
0.0496063
0.0475218
0.0454277
0.043337
0.0412546
0.0391711
0.0370872
0.035003
0.0329175
0.0308286
0.0287412
0.0266563
0.0245696
0.0224816
0.0203926
0.0183045
0.0162183
0.0141342
0.0120513
0.00996251
0.00786285
0.00577035
0.00359889
0.00123503
0.156059
0.153971
0.151883
0.1498
0.147714
0.145627
0.143542
0.141455
0.139365
0.137277
0.135191
0.133103
0.131016
0.12893
0.126841
0.124751
0.122666
0.120579
0.118489
0.1164
0.114314
0.11223
0.110145
0.108056
0.105965
0.103875
0.10179
0.0997054
0.0976169
0.0955291
0.0934452
0.091358
0.0892694
0.0871805
0.085093
0.0830061
0.0809182
0.0788337
0.076748
0.0746607
0.0725703
0.070482
0.0683959
0.0663062
0.0642201
0.06213
0.0600348
0.057948
0.0558662
0.0537755
0.0516852
0.0496039
0.0475187
0.0454287
0.043341
0.0412558
0.0391709
0.0370868
0.0350015
0.0329145
0.0308275
0.0287421
0.0266563
0.0245698
0.0224826
0.0203928
0.0183035
0.0162182
0.0141356
0.0120537
0.00996467
0.00786391
0.00576985
0.00359771
0.00123461
0.156057
0.153969
0.151882
0.149799
0.147715
0.145628
0.143542
0.141456
0.139366
0.137278
0.135196
0.133105
0.131013
0.128931
0.126842
0.124749
0.122666
0.120575
0.118481
0.1164
0.114315
0.112228
0.110146
0.108055
0.105962
0.103878
0.101792
0.0997056
0.0976183
0.0955306
0.0934477
0.0913587
0.0892654
0.0871772
0.0850922
0.0830063
0.0809192
0.0788334
0.0767487
0.0746611
0.0725697
0.070484
0.0683955
0.0663059
0.0642172
0.0621255
0.0600366
0.0579486
0.0558632
0.0537764
0.0516894
0.0496053
0.0475174
0.0454283
0.0433433
0.0412565
0.0391699
0.0370871
0.0350014
0.0329114
0.0308252
0.0287432
0.026657
0.0245708
0.0224855
0.0203923
0.0182994
0.0162158
0.0141357
0.0120548
0.0099642
0.0078664
0.00577249
0.00359564
0.00123358
0.156056
0.153966
0.151883
0.149801
0.147716
0.145629
0.143542
0.141454
0.139364
0.13728
0.135197
0.133108
0.131016
0.128927
0.126839
0.124751
0.122661
0.120573
0.118484
0.116399
0.114314
0.112229
0.110143
0.108054
0.105965
0.103879
0.101793
0.099707
0.0976204
0.0955334
0.0934491
0.0913564
0.0892638
0.0871784
0.0850926
0.083007
0.080919
0.0788315
0.0767454
0.0746584
0.0725701
0.070483
0.0683952
0.0663063
0.0642175
0.0621306
0.0600389
0.0579456
0.0558609
0.0537773
0.0516912
0.0496041
0.0475172
0.0454309
0.043347
0.0412564
0.0391655
0.0370834
0.0349989
0.0329117
0.030826
0.0287418
0.0266565
0.0245707
0.022483
0.0203917
0.0183021
0.0162171
0.0141341
0.0120505
0.00996281
0.00786789
0.00577529
0.00359977
0.00123482
0.156058
0.153971
0.151886
0.149801
0.147715
0.14563
0.143542
0.141453
0.139365
0.137282
0.135196
0.133105
0.131017
0.128927
0.126836
0.124748
0.122662
0.120577
0.118486
0.116396
0.114315
0.112229
0.110141
0.108055
0.105966
0.103878
0.101793
0.099709
0.0976225
0.0955332
0.0934452
0.0913538
0.0892648
0.087181
0.0850974
0.0830099
0.080918
0.0788286
0.0767426
0.0746567
0.0725695
0.0704826
0.0683958
0.0663066
0.0642154
0.0621276
0.0600422
0.0579494
0.055859
0.0537783
0.0516932
0.0496026
0.0475165
0.0454309
0.0433443
0.0412565
0.039168
0.0370825
0.0349967
0.0329109
0.0308255
0.028741
0.0266565
0.0245723
0.0224832
0.0203897
0.018301
0.0162167
0.014133
0.0120491
0.00996146
0.00786755
0.00577694
0.00360184
0.00123552
0.15606
0.153974
0.151889
0.149801
0.147712
0.145632
0.143545
0.14145
0.139362
0.137285
0.135198
0.133101
0.131013
0.12893
0.126837
0.124745
0.12266
0.120574
0.118486
0.1164
0.114319
0.11223
0.110139
0.108057
0.105967
0.103875
0.101791
0.0997071
0.0976204
0.0955322
0.0934449
0.0913559
0.0892677
0.0871829
0.0850987
0.0830106
0.0809213
0.0788299
0.0767398
0.0746554
0.0725686
0.0704819
0.0683981
0.066308
0.0642108
0.0621218
0.0600393
0.0579516
0.0558627
0.0537775
0.0516921
0.0496036
0.0475162
0.0454313
0.043348
0.0412578
0.0391678
0.0370821
0.0349947
0.0329095
0.0308243
0.0287401
0.0266561
0.0245719
0.022487
0.0203902
0.0182967
0.0162152
0.0141323
0.0120504
0.00995952
0.00786502
0.00577863
0.00360288
0.00123568
0.156058
0.153975
0.151889
0.149802
0.147716
0.145634
0.143542
0.141447
0.139363
0.137283
0.135195
0.133104
0.131019
0.128933
0.126836
0.124743
0.122658
0.120571
0.118483
0.1164
0.114318
0.112231
0.110144
0.10806
0.105967
0.103873
0.101788
0.0997069
0.0976193
0.0955306
0.093446
0.0913575
0.089268
0.0871842
0.0851028
0.0830118
0.0809208
0.0788304
0.0767394
0.0746563
0.072567
0.0704781
0.0683924
0.0663033
0.0642137
0.0621259
0.0600393
0.0579525
0.0558634
0.0537767
0.0516932
0.0496038
0.0475139
0.0454296
0.0433454
0.0412585
0.0391723
0.037084
0.0349955
0.0329083
0.0308218
0.0287391
0.0266556
0.0245709
0.0224818
0.0203879
0.0182991
0.016216
0.0141325
0.0120475
0.00996001
0.00786995
0.005779
0.00360115
0.00123528
0.15606
0.153975
0.151889
0.149803
0.147717
0.145631
0.14354
0.14145
0.139362
0.13728
0.135195
0.133108
0.131019
0.128932
0.12684
0.124746
0.122654
0.120568
0.118484
0.116398
0.114315
0.112231
0.110147
0.108059
0.105968
0.103877
0.10179
0.0997045
0.0976186
0.0955317
0.093445
0.0913594
0.0892696
0.0871831
0.0851021
0.0830122
0.0809215
0.0788322
0.0767441
0.0746572
0.0725636
0.0704779
0.0683897
0.0662984
0.0642152
0.0621291
0.0600391
0.0579494
0.0558622
0.0537793
0.0516938
0.0496037
0.0475138
0.0454282
0.0433442
0.0412583
0.0391727
0.0370858
0.0349959
0.0329069
0.030822
0.0287393
0.0266556
0.0245731
0.0224801
0.0203816
0.0182973
0.0162171
0.014134
0.0120458
0.00995665
0.00787031
0.00578149
0.00360229
0.00123526
0.156059
0.153974
0.151889
0.149804
0.147719
0.14563
0.143539
0.14145
0.139363
0.137277
0.135191
0.133106
0.131019
0.128933
0.126839
0.124744
0.122659
0.120577
0.118485
0.116392
0.114313
0.112232
0.110146
0.10806
0.105975
0.103879
0.101784
0.099702
0.0976192
0.0955334
0.0934484
0.0913592
0.0892679
0.0871834
0.0851027
0.0830123
0.0809218
0.0788324
0.0767418
0.0746579
0.0725664
0.0704753
0.0683885
0.0662998
0.0642133
0.0621272
0.0600394
0.0579509
0.0558634
0.0537774
0.0516911
0.049604
0.0475172
0.045432
0.0433444
0.0412573
0.0391741
0.0370897
0.0349956
0.0329022
0.0308203
0.02874
0.0266532
0.0245652
0.0224775
0.0203865
0.0182996
0.0162166
0.0141329
0.0120453
0.00995742
0.00787309
0.00578197
0.00359954
0.0012342
0.156058
0.153974
0.151889
0.149804
0.147719
0.145632
0.143542
0.14145
0.139361
0.137274
0.135188
0.133104
0.131018
0.12893
0.126839
0.124747
0.12266
0.120575
0.118487
0.116398
0.114314
0.112232
0.110145
0.108059
0.105972
0.10388
0.101789
0.099702
0.0976185
0.0955336
0.0934494
0.0913604
0.089267
0.0871805
0.0850984
0.0830117
0.0809233
0.0788346
0.0767458
0.0746594
0.0725673
0.0704755
0.0683892
0.0662991
0.0642109
0.0621268
0.0600402
0.0579517
0.0558634
0.0537755
0.051689
0.049604
0.047519
0.045432
0.0433442
0.0412595
0.0391762
0.0370886
0.0349948
0.032902
0.0308178
0.0287381
0.0266519
0.0245634
0.0224779
0.0203877
0.0182989
0.0162164
0.0141347
0.012045
0.00995552
0.00787537
0.00578164
0.00359563
0.00123281
0.156057
0.153974
0.15189
0.149805
0.147721
0.145635
0.143541
0.141447
0.139359
0.137272
0.135188
0.133104
0.131017
0.12893
0.126839
0.124747
0.122658
0.120574
0.118489
0.116401
0.114313
0.11223
0.110144
0.108058
0.105972
0.103882
0.101791
0.0997052
0.0976194
0.0955321
0.0934477
0.0913594
0.0892672
0.0871807
0.0850975
0.0830122
0.0809252
0.0788369
0.0767475
0.0746596
0.072568
0.0704774
0.0683875
0.0662963
0.0642115
0.0621286
0.0600421
0.0579523
0.055863
0.0537725
0.0516857
0.0496038
0.0475222
0.0454325
0.0433415
0.0412601
0.0391753
0.0370863
0.0349938
0.0329017
0.0308175
0.0287353
0.0266519
0.0245655
0.0224768
0.0203872
0.0182996
0.016215
0.0141305
0.0120444
0.00995865
0.00787119
0.00578004
0.00360107
0.00123487
0.156057
0.153974
0.151891
0.149804
0.147717
0.145632
0.14354
0.141449
0.139361
0.137273
0.13519
0.133105
0.131016
0.128925
0.126835
0.124749
0.122661
0.120573
0.118489
0.116402
0.114314
0.112229
0.110144
0.108057
0.10597
0.103884
0.101795
0.0997091
0.0976206
0.0955281
0.0934435
0.0913611
0.0892695
0.0871791
0.0850979
0.083014
0.0809282
0.0788399
0.0767477
0.0746569
0.0725673
0.0704795
0.0683869
0.0662942
0.0642104
0.0621266
0.0600402
0.0579526
0.0558645
0.053773
0.0516846
0.0496022
0.0475194
0.0454339
0.0433448
0.0412583
0.0391755
0.0370874
0.0349932
0.0329011
0.0308157
0.0287323
0.026648
0.0245631
0.0224773
0.0203917
0.0183043
0.0162136
0.0141266
0.0120433
0.00995769
0.00786999
0.00578129
0.00360291
0.00123554
0.156056
0.153973
0.151889
0.149804
0.147718
0.145628
0.143537
0.141449
0.139364
0.137275
0.135188
0.133107
0.131018
0.128922
0.126832
0.124749
0.122663
0.120576
0.118491
0.116403
0.114314
0.11223
0.110145
0.108056
0.105967
0.103882
0.101796
0.0997089
0.0976198
0.095531
0.0934437
0.091357
0.08927
0.087184
0.0851014
0.0830152
0.0809271
0.0788404
0.076753
0.07466
0.0725647
0.070479
0.0683863
0.0662917
0.0642097
0.0621261
0.0600392
0.057953
0.0558627
0.0537712
0.0516851
0.0496015
0.0475174
0.0454324
0.0433461
0.0412596
0.0391743
0.0370874
0.0349969
0.0329015
0.0308123
0.0287293
0.0266446
0.0245614
0.022477
0.0203916
0.0183058
0.0162156
0.0141271
0.0120441
0.00995784
0.00786967
0.00578053
0.00360169
0.00123532
0.156054
0.153972
0.151889
0.149805
0.147717
0.145626
0.143536
0.141448
0.139363
0.137274
0.135186
0.133104
0.13102
0.128926
0.126832
0.124748
0.122665
0.120575
0.118491
0.116405
0.114315
0.112231
0.110144
0.108054
0.105967
0.103881
0.101797
0.0997098
0.0976188
0.095533
0.0934438
0.091353
0.0892697
0.0871859
0.0851018
0.0830179
0.0809311
0.0788409
0.07675
0.0746594
0.0725674
0.0704791
0.068386
0.0662924
0.0642112
0.0621263
0.0600374
0.0579508
0.0558618
0.0537711
0.051684
0.0496004
0.0475164
0.0454317
0.0433474
0.0412601
0.0391742
0.0370892
0.0349929
0.0328969
0.0308117
0.0287286
0.0266448
0.0245613
0.0224768
0.0203913
0.0183049
0.0162164
0.0141296
0.0120477
0.00995867
0.00786481
0.00577784
0.00360253
0.00123568
0.156053
0.153971
0.151888
0.149803
0.147718
0.14563
0.143535
0.141442
0.139359
0.137273
0.135187
0.133102
0.131016
0.128926
0.126836
0.12475
0.122664
0.120577
0.118491
0.116405
0.114318
0.112234
0.110146
0.108056
0.105966
0.103879
0.101795
0.0997078
0.0976191
0.0955325
0.0934452
0.0913566
0.0892705
0.087186
0.0851013
0.0830166
0.0809318
0.0788425
0.076753
0.0746603
0.0725665
0.0704768
0.0683864
0.0662962
0.0642106
0.0621281
0.0600403
0.0579511
0.0558613
0.053768
0.0516805
0.0495995
0.047516
0.0454302
0.0433451
0.041259
0.0391731
0.0370885
0.0349942
0.0328978
0.0308099
0.0287266
0.026645
0.024562
0.0224776
0.0203917
0.0183055
0.0162155
0.0141272
0.0120446
0.00995787
0.00786837
0.00577929
0.00360137
0.00123533
0.156053
0.153971
0.151887
0.149803
0.14772
0.145629
0.143533
0.141443
0.139357
0.137271
0.135187
0.133102
0.131014
0.128926
0.126837
0.12475
0.122664
0.120578
0.118491
0.116405
0.114319
0.112234
0.110149
0.108057
0.105964
0.103879
0.101795
0.0997064
0.0976177
0.0955324
0.0934476
0.0913583
0.08927
0.0871862
0.0851006
0.0830146
0.08093
0.0788435
0.0767532
0.0746624
0.0725698
0.0704754
0.0683848
0.0662968
0.064213
0.0621288
0.0600434
0.0579511
0.0558525
0.0537663
0.0516858
0.0496011
0.0475156
0.0454283
0.0433435
0.0412574
0.0391701
0.0370829
0.0349915
0.0329001
0.0308117
0.0287281
0.026646
0.0245636
0.0224793
0.0203919
0.0183033
0.0162133
0.0141267
0.012045
0.00995822
0.00786636
0.00577833
0.00360284
0.00123584
0.156056
0.153971
0.151886
0.1498
0.147716
0.145632
0.143539
0.141442
0.139352
0.137269
0.135186
0.133103
0.131015
0.128926
0.126838
0.12475
0.122665
0.120579
0.118491
0.116404
0.11432
0.112233
0.110146
0.10806
0.10597
0.103881
0.101796
0.0997053
0.0976135
0.0955316
0.0934476
0.0913593
0.0892722
0.0871882
0.0850997
0.0830114
0.0809291
0.0788418
0.0767531
0.0746664
0.0725741
0.0704708
0.0683759
0.0662992
0.0642166
0.0621289
0.0600384
0.0579448
0.0558549
0.053769
0.0516854
0.0496014
0.0475177
0.0454303
0.0433436
0.0412564
0.0391673
0.0370812
0.0349943
0.0329004
0.0308091
0.0287283
0.0266472
0.0245659
0.0224773
0.0203872
0.0183028
0.0162153
0.0141281
0.0120432
0.00995647
0.00786773
0.00578029
0.00360335
0.00123582
0.156057
0.153972
0.151887
0.1498
0.147713
0.145627
0.143536
0.141443
0.139357
0.137271
0.135185
0.133101
0.131016
0.128931
0.126838
0.124746
0.122666
0.120581
0.11849
0.116401
0.114317
0.112232
0.110147
0.10806
0.10597
0.103884
0.101798
0.099705
0.0976148
0.0955335
0.0934491
0.0913589
0.0892716
0.0871881
0.0850986
0.0830091
0.0809267
0.0788401
0.0767509
0.0746616
0.0725684
0.0704743
0.0683838
0.0663005
0.0642173
0.0621313
0.0600363
0.0579416
0.0558549
0.0537691
0.0516849
0.0496009
0.047517
0.0454317
0.0433448
0.0412575
0.0391679
0.0370798
0.0349904
0.0328983
0.0308118
0.0287294
0.0266459
0.0245618
0.0224766
0.0203917
0.0183057
0.0162155
0.0141278
0.012043
0.00995637
0.00786845
0.00578006
0.003602
0.00123526
0.156057
0.153971
0.151888
0.149802
0.147709
0.145621
0.143534
0.141446
0.139363
0.137274
0.135183
0.1331
0.131016
0.12893
0.126839
0.124747
0.122664
0.120582
0.118493
0.116402
0.114314
0.112229
0.110146
0.108061
0.105974
0.103886
0.101797
0.0997029
0.0976161
0.0955378
0.093449
0.0913564
0.0892741
0.0871929
0.085097
0.0830009
0.0809217
0.07884
0.0767497
0.0746605
0.0725692
0.0704753
0.0683855
0.0663012
0.0642189
0.062129
0.0600343
0.0579459
0.055855
0.0537663
0.051684
0.0496001
0.0475175
0.0454341
0.0433459
0.0412546
0.0391671
0.0370799
0.034989
0.0328977
0.0308118
0.0287307
0.026645
0.0245584
0.0224751
0.0203913
0.0183064
0.0162205
0.0141322
0.0120438
0.00995666
0.00786955
0.0057778
0.00359761
0.00123398
0.156057
0.153968
0.151887
0.149802
0.147707
0.145616
0.143533
0.141449
0.139363
0.137276
0.135188
0.1331
0.131014
0.128929
0.126839
0.124747
0.122662
0.12058
0.118491
0.1164
0.114315
0.112232
0.110145
0.108057
0.105971
0.103883
0.101796
0.0997088
0.0976238
0.0955375
0.09345
0.0913589
0.0892694
0.0871885
0.0850963
0.0830016
0.0809198
0.0788378
0.0767534
0.074668
0.0725721
0.0704726
0.0683825
0.0662992
0.0642142
0.0621242
0.0600346
0.0579477
0.0558585
0.0537719
0.0516845
0.0495968
0.0475178
0.0454342
0.0433437
0.0412551
0.0391665
0.0370765
0.034988
0.0328996
0.0308136
0.0287295
0.0266444
0.0245589
0.0224746
0.0203908
0.0183078
0.016227
0.0141362
0.0120376
0.00995062
0.00786889
0.00577951
0.00359957
0.00123451
0.156058
0.15397
0.151882
0.149797
0.147708
0.145618
0.143534
0.14145
0.139365
0.13728
0.135192
0.1331
0.131013
0.128925
0.126834
0.124748
0.122664
0.120579
0.11849
0.1164
0.114316
0.112232
0.110145
0.108058
0.105968
0.10388
0.101796
0.0997122
0.0976265
0.0955379
0.0934543
0.0913606
0.0892629
0.0871814
0.0850975
0.0830062
0.0809186
0.0788349
0.0767507
0.0746648
0.0725721
0.0704793
0.0683879
0.0662965
0.0642117
0.0621247
0.060033
0.0579446
0.0558589
0.0537728
0.0516858
0.0495994
0.0475163
0.0454322
0.0433463
0.0412624
0.0391671
0.0370716
0.0349869
0.0328997
0.0308138
0.0287291
0.0266441
0.0245585
0.0224735
0.0203895
0.0183059
0.0162221
0.0141346
0.0120443
0.00995512
0.00786587
0.00577814
0.00360188
0.00123536
0.156054
0.153966
0.151881
0.149797
0.147709
0.145621
0.143537
0.141452
0.139365
0.137279
0.135194
0.133101
0.131012
0.128922
0.126832
0.12475
0.122664
0.120577
0.118489
0.116401
0.114318
0.112233
0.110145
0.108055
0.105964
0.103879
0.101795
0.0997103
0.0976251
0.0955394
0.0934546
0.0913599
0.0892655
0.0871843
0.0851012
0.083007
0.0809145
0.0788324
0.0767486
0.0746608
0.072571
0.0704789
0.0683885
0.0663015
0.0642122
0.0621224
0.0600343
0.0579462
0.0558594
0.0537738
0.0516864
0.0495993
0.0475156
0.0454315
0.0433462
0.0412605
0.0391676
0.0370748
0.0349892
0.0329012
0.030813
0.0287282
0.0266442
0.0245578
0.0224713
0.0203877
0.0183042
0.0162198
0.0141345
0.0120444
0.0099544
0.00786837
0.00578061
0.00360204
0.00123521
0.156055
0.153962
0.151881
0.149798
0.14771
0.145622
0.14354
0.141456
0.139365
0.137277
0.135195
0.1331
0.131006
0.128921
0.126835
0.124749
0.122662
0.120575
0.118488
0.116405
0.114322
0.112234
0.110143
0.108051
0.105963
0.103878
0.101793
0.0997087
0.097624
0.0955392
0.0934506
0.091359
0.0892719
0.0871891
0.0851002
0.0830061
0.0809158
0.078832
0.0767482
0.074658
0.0725659
0.0704769
0.0683918
0.0663033
0.0642128
0.0621249
0.0600361
0.0579464
0.0558589
0.0537758
0.0516866
0.0495968
0.0475152
0.0454319
0.0433461
0.0412583
0.0391682
0.037079
0.0349937
0.0329025
0.0308096
0.0287264
0.0266461
0.024557
0.0224672
0.0203859
0.0183032
0.0162182
0.0141324
0.0120443
0.0099567
0.00787286
0.00578149
0.00359877
0.00123412
0.156055
0.153962
0.151881
0.149797
0.14771
0.145625
0.143542
0.141452
0.139362
0.137278
0.135196
0.133102
0.131008
0.128922
0.126837
0.124746
0.122656
0.120574
0.118491
0.116408
0.114323
0.112232
0.11014
0.108053
0.105965
0.103877
0.10179
0.0997074
0.0976226
0.0955362
0.0934489
0.0913609
0.0892749
0.0871922
0.0851023
0.0830029
0.0809122
0.0788314
0.0767474
0.0746569
0.0725651
0.0704775
0.068392
0.0663058
0.0642169
0.0621223
0.0600325
0.0579508
0.0558609
0.0537707
0.0516869
0.0496017
0.0475172
0.0454326
0.0433474
0.041258
0.0391681
0.0370789
0.0349906
0.0329048
0.0308121
0.0287224
0.0266414
0.0245566
0.0224701
0.0203863
0.0183025
0.0162171
0.0141318
0.0120437
0.00995537
0.00787138
0.00578178
0.00360067
0.00123476
0.156053
0.153968
0.151885
0.149797
0.147708
0.145626
0.143539
0.14145
0.139366
0.13728
0.135191
0.133103
0.131012
0.128923
0.126835
0.124745
0.122657
0.120573
0.118492
0.116412
0.114324
0.11223
0.110141
0.108055
0.105963
0.103873
0.101791
0.0997083
0.0976219
0.0955338
0.0934477
0.0913613
0.0892738
0.0871877
0.0851004
0.0830068
0.0809156
0.0788323
0.0767495
0.0746569
0.0725612
0.0704766
0.0683919
0.0663038
0.0642137
0.0621223
0.0600358
0.0579501
0.0558616
0.0537742
0.0516892
0.0496044
0.047519
0.0454337
0.0433464
0.0412582
0.0391736
0.0370782
0.034984
0.0329005
0.0308127
0.0287253
0.0266403
0.0245559
0.0224711
0.0203866
0.0183029
0.0162155
0.014128
0.0120434
0.0099566
0.00786889
0.00578091
0.00360276
0.0012355
0.156055
0.153971
0.151886
0.149799
0.147713
0.145625
0.143535
0.141449
0.139368
0.137282
0.135191
0.133102
0.131015
0.128928
0.126834
0.124741
0.122654
0.120571
0.11849
0.116409
0.114325
0.112238
0.110141
0.108048
0.105963
0.103879
0.101793
0.0997101
0.0976225
0.0955303
0.0934468
0.0913624
0.0892715
0.0871839
0.0850975
0.0830088
0.0809189
0.0788324
0.0767467
0.0746536
0.0725621
0.070477
0.0683926
0.0663033
0.0642119
0.0621242
0.0600392
0.0579508
0.0558615
0.0537761
0.0516912
0.0496072
0.0475209
0.0454362
0.0433458
0.0412541
0.0391694
0.0370766
0.0349855
0.0329008
0.0308155
0.0287265
0.0266385
0.0245554
0.0224716
0.0203859
0.0183003
0.016214
0.0141282
0.0120453
0.00995817
0.00786695
0.00577847
0.0036019
0.00123537
0.15605
0.15397
0.151886
0.1498
0.147714
0.145627
0.143535
0.141449
0.139367
0.137281
0.135192
0.133105
0.131017
0.128926
0.126832
0.124742
0.122655
0.120572
0.118489
0.116406
0.114321
0.112234
0.110144
0.108056
0.105965
0.103875
0.101793
0.0997095
0.0976215
0.0955328
0.0934478
0.0913615
0.0892726
0.0871858
0.0850957
0.0830052
0.080919
0.0788319
0.0767441
0.0746552
0.0725647
0.0704763
0.0683909
0.0663045
0.0642137
0.0621239
0.0600388
0.0579523
0.0558648
0.053778
0.0516913
0.0496057
0.0475206
0.0454374
0.0433464
0.0412519
0.0391667
0.0370783
0.0349885
0.0329011
0.0308147
0.0287271
0.0266391
0.0245561
0.0224729
0.0203852
0.0182981
0.0162119
0.0141259
0.0120442
0.00995734
0.00786948
0.00577958
0.00359895
0.00123433
0.156053
0.15397
0.151888
0.149799
0.147711
0.145625
0.143539
0.141453
0.139369
0.137281
0.135193
0.133107
0.131016
0.128926
0.126834
0.12474
0.122654
0.120572
0.118489
0.116405
0.11432
0.112234
0.110144
0.108055
0.105966
0.103878
0.101795
0.0997104
0.0976209
0.0955327
0.0934499
0.0913626
0.089272
0.0871847
0.0850944
0.0830046
0.08092
0.0788315
0.0767426
0.0746581
0.0725657
0.0704732
0.0683894
0.0663036
0.0642148
0.0621264
0.0600398
0.0579539
0.0558679
0.0537795
0.0516904
0.0496033
0.0475177
0.0454322
0.0433441
0.0412564
0.0391736
0.0370796
0.0349835
0.0329001
0.0308154
0.0287282
0.0266419
0.0245568
0.0224714
0.0203834
0.0182957
0.0162102
0.0141254
0.0120415
0.00995596
0.00786846
0.00578024
0.0036022
0.00123534
0.156055
0.153969
0.151888
0.1498
0.14771
0.145626
0.14354
0.141454
0.139369
0.137282
0.135196
0.133108
0.131014
0.128921
0.126833
0.124744
0.122656
0.120572
0.118489
0.116404
0.114318
0.112231
0.110142
0.108055
0.105968
0.103882
0.101798
0.0997093
0.0976193
0.0955343
0.0934501
0.0913655
0.0892747
0.0871806
0.0850924
0.0830059
0.0809187
0.0788308
0.0767431
0.0746558
0.0725662
0.070477
0.0683905
0.0663031
0.0642156
0.0621273
0.06004
0.0579558
0.0558725
0.0537815
0.0516878
0.0495999
0.047515
0.0454289
0.0433411
0.0412557
0.0391715
0.0370831
0.0349907
0.0329012
0.0308144
0.0287281
0.0266437
0.0245578
0.0224717
0.0203815
0.0182913
0.0162078
0.0141243
0.0120403
0.0099562
0.00786812
0.00577902
0.00360256
0.00123568
0.156056
0.153971
0.151887
0.1498
0.147713
0.145628
0.143542
0.141455
0.13937
0.137283
0.135193
0.133103
0.131017
0.128925
0.126834
0.124745
0.122654
0.120571
0.11849
0.116405
0.114318
0.112228
0.11014
0.108055
0.105969
0.103883
0.101798
0.0997095
0.09762
0.0955353
0.0934489
0.0913613
0.0892745
0.0871858
0.0850963
0.0830065
0.0809171
0.0788297
0.0767433
0.0746553
0.0725666
0.0704793
0.0683926
0.0663026
0.0642164
0.0621273
0.0600379
0.0579561
0.0558708
0.0537796
0.0516884
0.0496014
0.0475181
0.045427
0.0433355
0.041254
0.0391722
0.0370897
0.0349957
0.0329003
0.030813
0.0287267
0.0266462
0.0245586
0.0224698
0.0203797
0.0182882
0.0162058
0.0141231
0.0120386
0.00995399
0.00786877
0.00578027
0.00360159
0.00123532
0.156057
0.153973
0.151888
0.149801
0.147715
0.14563
0.143543
0.141455
0.139372
0.137287
0.135189
0.133094
0.131013
0.128929
0.126835
0.124743
0.122659
0.120576
0.118492
0.116405
0.114314
0.112226
0.110141
0.108056
0.10597
0.103884
0.101801
0.0997104
0.0976167
0.095532
0.0934489
0.0913628
0.0892753
0.0871855
0.0851001
0.0830072
0.0809139
0.0788273
0.076739
0.0746556
0.0725725
0.0704874
0.0683967
0.066298
0.0642078
0.0621276
0.0600437
0.05796
0.0558719
0.0537776
0.0516856
0.0495989
0.0475153
0.0454257
0.043336
0.0412532
0.0391703
0.0370864
0.0349951