/*--------------------------------*- C++ -*----------------------------------*\
  =========                 |
  \\      /  F ield         | OpenFOAM: The Open Source CFD Toolbox
   \\    /   O peration     | Website:  https://openfoam.org
    \\  /    A nd           | Version:  12
     \\/     M anipulation  |
\*---------------------------------------------------------------------------*/
FoamFile
{
    format      ascii;
    class       surfaceScalarField;
    location    "0.05";
    object      phi.water;
}
// * * * * * * * * * * * * * * * * * * * * * * * * * * * * * * * * * * * * * //

dimensions      [0 3 -1 0 0 0 0];

internalField   nonuniform List<scalar> 
7375
(
-3.47412e-06
-5.57636e-10
-3.47412e-06
2.09615e-13
-3.47432e-06
2.08224e-10
-3.47426e-06
-6.11395e-11
-3.47453e-06
2.7225e-10
-3.47531e-06
7.72863e-10
-3.47511e-06
-1.99352e-10
-3.4731e-06
-2.00378e-09
-3.47196e-06
-1.14367e-09
-3.47309e-06
1.12914e-09
-3.47447e-06
1.38123e-09
-3.47534e-06
8.68785e-10
-3.47553e-06
1.86519e-10
-3.47548e-06
-4.30364e-11
-3.47515e-06
-3.37808e-10
-3.47416e-06
-9.82762e-10
-3.4732e-06
-9.61166e-10
-3.47314e-06
-6.02453e-11
-3.47431e-06
1.16679e-09
-3.47435e-06
3.95729e-11
-3.47344e-06
-9.03498e-10
-3.4733e-06
-1.49154e-10
-3.47385e-06
5.58674e-10
-3.47491e-06
1.06064e-09
-3.47523e-06
3.15291e-10
-3.47516e-06
-7.07616e-11
-3.47487e-06
-2.84163e-10
-3.47409e-06
-7.85498e-10
-3.47419e-06
1.02333e-10
-3.47499e-06
7.97332e-10
-3.47418e-06
-8.04172e-10
-3.47353e-06
-6.54895e-10
-3.47435e-06
8.20909e-10
-3.47437e-06
1.7258e-11
-3.47462e-06
2.55606e-10
-3.47557e-06
9.47613e-10
-3.47532e-06
-2.52321e-10
-3.47389e-06
-1.42658e-09
-3.47399e-06
9.76582e-11
-3.47434e-06
3.48388e-10
-3.47433e-06
-1.30498e-11
-3.47464e-06
3.1106e-10
-3.47452e-06
-1.15474e-10
-3.47481e-06
2.84945e-10
-3.4757e-06
8.96395e-10
-3.47622e-06
5.18385e-10
-3.47526e-06
-9.60517e-10
-3.47397e-06
-1.28848e-09
-3.47327e-06
-7.00516e-10
-3.47343e-06
1.5757e-10
-3.47384e-06
4.09792e-10
-3.47354e-06
-2.98223e-10
-3.47356e-06
1.86597e-11
-3.47417e-06
6.10944e-10
-3.47474e-06
5.72576e-10
-3.47546e-06
7.15397e-10
-3.4768e-06
1.34013e-09
-3.47622e-06
-5.74105e-10
-3.47454e-06
-1.68127e-09
-3.47422e-06
-3.23347e-10
-3.47476e-06
5.36891e-10
-3.47443e-06
-3.22975e-10
-3.47377e-06
-6.61305e-10
-3.47373e-06
-4.49303e-11
-3.47399e-06
2.67088e-10
-3.4749e-06
9.07183e-10
-3.47517e-06
2.68803e-10
-3.47543e-06
2.62847e-10
-3.47505e-06
-3.81213e-10
-3.47417e-06
-8.8041e-10
-3.47272e-06
-1.45316e-09
-3.47075e-06
-1.9723e-09
-3.43277e-06
-2.95697e-09
-3.3935e-06
-4.9462e-09
-2.93816e-09
-3.80693e-06
1.29936e-09
-3.80716e-06
2.3475e-10
-3.80457e-06
-2.38821e-09
-3.80376e-06
-8.66512e-10
-3.80421e-06
7.2311e-10
-3.80432e-06
8.81072e-10
-3.80524e-06
7.23062e-10
-3.80809e-06
8.38538e-10
-3.80826e-06
-9.72939e-10
-3.80537e-06
-1.75907e-09
-3.80419e-06
1.98844e-10
-3.80372e-06
4.02412e-10
-3.80369e-06
1.52658e-10
-3.80395e-06
2.19692e-10
-3.80408e-06
-2.0182e-10
-3.80473e-06
-3.32049e-10
-3.80553e-06
-1.66026e-10
-3.80491e-06
-6.81906e-10
-3.80345e-06
-2.9396e-10
-3.80318e-06
-2.32254e-10
-3.80334e-06
-7.39807e-10
-3.80335e-06
-1.35647e-10
-3.80366e-06
8.61409e-10
-3.80366e-06
1.06994e-09
-3.80353e-06
1.8405e-10
-3.80353e-06
-7.60759e-11
-3.80366e-06
-1.55278e-10
-3.80377e-06
-6.67855e-10
-3.80407e-06
3.95511e-10
-3.8049e-06
1.63259e-09
-3.80733e-06
1.62371e-09
-3.80771e-06
-2.71053e-10
-3.80514e-06
-1.75088e-09
-3.80389e-06
-1.23284e-09
-3.80463e-06
9.9618e-10
-3.80507e-06
1.38045e-09
-3.80464e-06
-6.76248e-10
-3.80536e-06
-7.11222e-10
-3.80467e-06
-5.85145e-10
-3.80275e-06
-1.57398e-09
-3.80225e-06
-5.11114e-10
-3.80342e-06
1.47837e-09
-3.80453e-06
9.95987e-10
-3.80463e-06
3.82044e-10
-3.80403e-06
2.93757e-10
-3.80347e-06
-3.67915e-11
-3.80378e-06
-6.55307e-10
-3.80432e-06
-7.50663e-10
-3.80565e-06
6.34035e-10
-3.80604e-06
5.43533e-10
-3.80472e-06
-9.06125e-10
-3.80352e-06
-1.50101e-09
-3.80351e-06
7.44614e-12
-3.80449e-06
1.59597e-09
-3.80489e-06
9.66929e-10
-3.80495e-06
7.81439e-10
-3.80451e-06
8.99958e-10
-3.8056e-06
5.13068e-10
-3.80674e-06
-5.36498e-10
-3.80678e-06
-2.90971e-10
-3.80613e-06
-1.08631e-10
-3.80551e-06
-9.47606e-10
-3.80635e-06
1.87159e-10
-3.80756e-06
1.16589e-09
-3.80712e-06
-1.79418e-10
-3.80539e-06
-8.24771e-10
-3.80473e-06
-3.87298e-10
-3.80405e-06
-4.16707e-10
-3.80346e-06
-9.72114e-10
-3.80314e-06
-1.19949e-09
-3.80416e-06
-4.37117e-10
-3.80473e-06
-1.39886e-09
-3.76655e-06
-2.71567e-09
-3.7314e-06
-2.43896e-09
-1.23928e-09
-3.82034e-06
-1.25947e-10
-3.81965e-06
-4.54482e-10
-3.82127e-06
-7.67478e-10
-3.82105e-06
-1.09329e-09
-3.8195e-06
-8.19857e-10
-3.8195e-06
8.80908e-10
-3.82e-06
1.22057e-09
-3.81999e-06
8.2936e-10
-3.82182e-06
8.52435e-10
-3.82215e-06
-1.42272e-09
-3.81979e-06
-2.1605e-09
-3.81872e-06
-6.75687e-10
-3.81888e-06
3.1503e-10
-3.81954e-06
8.82311e-10
-3.81951e-06
-2.28583e-10
-3.82e-06
1.49864e-10
-3.82148e-06
1.3133e-09
-3.82242e-06
2.61481e-10
-3.82141e-06
-1.30295e-09
-3.82157e-06
-6.79338e-11
-3.82308e-06
7.62413e-10
-3.82269e-06
-5.2201e-10
-3.82092e-06
-9.11218e-10
-3.8193e-06
-5.49775e-10
-3.81869e-06
-4.27625e-10
-3.81878e-06
1.88316e-11
-3.81949e-06
5.52273e-10
-3.82075e-06
5.88213e-10
-3.82085e-06
4.96579e-10
-3.81968e-06
4.66171e-10
-3.81881e-06
7.49024e-10
-3.81921e-06
1.35179e-10
-3.82079e-06
-1.72276e-10
-3.82302e-06
9.95811e-10
-3.82217e-06
1.44552e-10
-3.81913e-06
-1.65908e-09
-3.81927e-06
-5.36772e-10
-3.82077e-06
7.8884e-10
-3.82114e-06
-2.12968e-10
-3.82246e-06
-2.49239e-10
-3.82348e-06
5.09895e-10
-3.82119e-06
-8.12726e-10
-3.81956e-06
-6.38178e-10
-3.81969e-06
5.17314e-10
-3.81949e-06
9.26422e-11
-3.81915e-06
-3.77023e-10
-3.81931e-06
-4.94741e-10
-3.82084e-06
7.78851e-10
-3.82103e-06
8.1946e-10
-3.82004e-06
-4.4118e-10
-3.82074e-06
-2.12883e-10
-3.82289e-06
6.53041e-10
-3.82252e-06
-3.62645e-10
-3.81982e-06
-1.1076e-09
-3.81951e-06
6.55913e-10
-3.82006e-06
1.33612e-09
-3.81981e-06
6.4937e-10
-3.81911e-06
-1.86125e-10
-3.81913e-06
-5.19729e-10
-3.81948e-06
5.97475e-11
-3.81998e-06
3.95194e-10
-3.82247e-06
1.53659e-09
-3.82365e-06
1.37391e-09
-3.82356e-06
1.07652e-09
-3.82239e-06
-1.35252e-09
-3.82027e-06
-2.94624e-09
-3.81997e-06
-6.88163e-10
-3.81978e-06
-6.03496e-10
-3.81927e-06
-1.48753e-09
-3.82031e-06
-1.51723e-10
-3.82042e-06
-3.2993e-10
-3.81902e-06
-2.8038e-09
-3.78201e-06
-1.13985e-09
-3.74686e-06
2.26746e-10
-1.53418e-10
-3.8213e-06
-4.89513e-10
-3.82023e-06
-1.52468e-09
-3.81995e-06
-1.05185e-09
-3.82175e-06
7.04719e-10
-3.82378e-06
1.2148e-09
-3.8225e-06
-3.95935e-10
-3.82062e-06
-6.62907e-10
-3.81979e-06
3.31281e-13
-3.81911e-06
1.71225e-10
-3.82075e-06
2.17362e-10
-3.82234e-06
-5.74633e-10
-3.82185e-06
-1.16209e-09
-3.82147e-06
-7.02466e-11
-3.82126e-06
6.79117e-10
-3.8221e-06
6.13339e-10
-3.82192e-06
-3.02671e-11
-3.82018e-06
-4.3314e-10
-3.8193e-06
-6.1258e-10
-3.82098e-06
3.70853e-10
-3.82166e-06
6.12108e-10
-3.81984e-06
-1.05917e-09
-3.81871e-06
-1.64715e-09
-3.81929e-06
-3.31329e-10
-3.82023e-06
3.913e-10
-3.81941e-06
-1.25193e-09
-3.8192e-06
-1.88288e-10
-3.82022e-06
1.56932e-09
-3.82159e-06
1.95824e-09
-3.82165e-06
5.63178e-10
-3.82028e-06
-9.07656e-10
-3.81992e-06
3.86964e-10
-3.82e-06
2.20307e-10
-3.82016e-06
-1.24302e-11
-3.81935e-06
1.80441e-10
-3.81944e-06
2.38175e-10
-3.82171e-06
6.10958e-10
-3.8219e-06
-3.45526e-10
-3.81974e-06
-1.3755e-09
-3.81898e-06
-9.68727e-10
-3.81989e-06
6.61373e-10
-3.82066e-06
1.2798e-09
-3.82213e-06
6.56614e-10
-3.82236e-06
-4.10678e-10
-3.82092e-06
-9.23346e-10
-3.82036e-06
-4.6492e-10
-3.82016e-06
-5.75788e-10
-3.8213e-06
6.39402e-10
-3.82142e-06
9.04922e-10
-3.82006e-06
-5.39602e-10
-3.82021e-06
-2.99921e-10
-3.82052e-06
1.04256e-10
-3.81939e-06
-4.81141e-10
-3.81892e-06
-8.34433e-10
-3.81972e-06
-3.07703e-10
-3.82059e-06
1.52705e-09
-3.82139e-06
2.14025e-09
-3.82125e-06
5.05685e-10
-3.82024e-06
-1.1963e-09
-3.81962e-06
-1.14067e-09
-3.82006e-06
5.07072e-10
-3.8196e-06
-6.82804e-11
-3.81846e-06
3.96322e-10
-3.81909e-06
2.00215e-09
-3.81892e-06
9.11397e-10
-3.81969e-06
-5.82343e-10
-3.8204e-06
-2.23663e-09
-3.81981e-06
-1.28347e-09
-3.82152e-06
1.10462e-09
-3.82414e-06
1.14118e-09
-3.82411e-06
-1.91157e-10
-3.82321e-06
-1.2229e-09
-3.82534e-06
-6.77619e-10
-3.78676e-06
-1.08701e-09
-3.74709e-06
-1.57891e-09
-6.3116e-10
-3.81966e-06
-4.78329e-10
-3.82019e-06
-9.92031e-10
-3.82111e-06
-1.31639e-10
-3.82114e-06
7.27926e-10
-3.82008e-06
1.54048e-10
-3.82009e-06
-3.8187e-10
-3.82038e-06
-3.74757e-10
-3.81991e-06
-4.70273e-10
-3.81883e-06
-9.0563e-10
-3.81884e-06
2.22504e-10
-3.8204e-06
9.92752e-10
-3.82124e-06
-3.25757e-10
-3.82129e-06
-1.90478e-11
-3.82122e-06
6.06306e-10
-3.82026e-06
-3.40137e-10
-3.8199e-06
-3.96603e-10
-3.82051e-06
1.80675e-10
-3.82095e-06
-1.72606e-10
-3.82078e-06
1.974e-10
-3.82051e-06
3.47621e-10
-3.82059e-06
-9.83673e-10
-3.82303e-06
7.98734e-10
-3.82391e-06
5.40585e-10
-3.82182e-06
-1.69816e-09
-3.82315e-06
8.43675e-11
-3.82326e-06
-8.06075e-11
-3.82211e-06
4.18449e-10
-3.82222e-06
2.06686e-09
-3.82293e-06
1.27081e-09
-3.82408e-06
2.41323e-10
-3.82295e-06
-7.40548e-10
-3.82247e-06
-2.5865e-10
-3.82243e-06
-5.12143e-11
-3.82163e-06
-6.21098e-10
-3.82116e-06
-2.34056e-10
-3.8201e-06
-4.47474e-10
-3.8204e-06
-3.91484e-11
-3.82221e-06
4.34399e-10
-3.82295e-06
-2.33169e-10
-3.82177e-06
-5.23109e-10
-3.82051e-06
2.58826e-11
-3.82022e-06
3.63082e-10
-3.82033e-06
-2.97965e-10
-3.82065e-06
-6.08126e-10
-3.8209e-06
-2.10794e-10
-3.8216e-06
1.22152e-10
-3.82117e-06
2.13978e-10
-3.82003e-06
-2.37082e-10
-3.81971e-06
-8.55317e-10
-3.82022e-06
2.08556e-10
-3.82128e-06
1.15874e-09
-3.82236e-06
6.0225e-10
-3.82388e-06
6.79729e-10
-3.82586e-06
1.6816e-09
-3.82491e-06
5.74978e-10
-3.82216e-06
-6.10272e-10
-3.82237e-06
7.13504e-10
-3.82577e-06
2.20361e-09
-3.82878e-06
1.86972e-09
-3.82838e-06
1.06982e-10
-3.82887e-06
4.21426e-10
-3.82928e-06
8.0376e-10
-3.82625e-06
-1.02667e-09
-3.8231e-06
-2.23718e-09
-3.82303e-06
-6.53305e-10
-3.82457e-06
-6.95236e-10
-3.82293e-06
-2.92265e-09
-3.82102e-06
-8.11263e-10
-3.82184e-06
1.96614e-09
-3.82224e-06
2.07378e-10
-3.82288e-06
-5.76853e-10
-3.82363e-06
6.69596e-11
-3.78466e-06
-1.45009e-09
-3.74657e-06
-1.8299e-09
-6.06129e-10
-3.8203e-06
-1.21462e-10
-3.82208e-06
7.92327e-10
-3.82298e-06
7.62101e-10
-3.82155e-06
-6.98173e-10
-3.82021e-06
-1.19174e-09
-3.82006e-06
-5.22297e-10
-3.82049e-06
5.05771e-11
-3.82049e-06
-4.68169e-10
-3.82058e-06
-8.16005e-10
-3.8208e-06
4.41998e-10
-3.82156e-06
1.74876e-09
-3.82337e-06
1.4857e-09
-3.82337e-06
-1.59226e-11
-3.82182e-06
-9.42425e-10
-3.8222e-06
3.92699e-11
-3.82189e-06
-7.10288e-10
-3.82089e-06
-8.2098e-10
-3.82073e-06
-3.27578e-10
-3.82089e-06
3.51874e-10
-3.8219e-06
1.35867e-09
-3.82381e-06
9.30933e-10
-3.82339e-06
3.79859e-10
-3.82297e-06
1.1563e-10
-3.82486e-06
1.91377e-10
-3.82439e-06
-3.79484e-10
-3.82531e-06
8.38477e-10
-3.82591e-06
1.01869e-09
-3.82268e-06
-1.17031e-09
-3.82026e-06
-1.14726e-09
-3.81984e-06
-1.77936e-10
-3.82004e-06
-5.40444e-10
-3.8202e-06
-9.65891e-11
-3.8207e-06
4.43503e-10
-3.82151e-06
1.9748e-10
-3.82189e-06
1.40069e-10
-3.8223e-06
-3.57698e-11
-3.82251e-06
1.69802e-10
-3.82274e-06
6.62159e-10
-3.82299e-06
1.90704e-11
-3.82149e-06
-2.0219e-09
-3.82044e-06
-1.02567e-09
-3.82068e-06
6.02502e-10
-3.82044e-06
-5.36929e-10
-3.82026e-06
-7.82923e-10
-3.82059e-06
1.16562e-10
-3.82151e-06
1.03633e-09
-3.82149e-06
1.99221e-10
-3.82066e-06
-1.07227e-09
-3.8214e-06
-1.08994e-10
-3.82201e-06
8.16677e-10
-3.82169e-06
8.41923e-10
-3.82213e-06
1.03614e-09
-3.82273e-06
1.27864e-09
-3.82162e-06
5.77693e-10
-3.82079e-06
-2.58074e-10
-3.82144e-06
3.91897e-11
-3.82147e-06
7.48277e-10
-3.82054e-06
1.26958e-09
-3.81976e-06
1.09163e-09
-3.82049e-06
8.32556e-10
-3.8215e-06
1.43615e-09
-3.82114e-06
4.43682e-10
-3.82123e-06
-9.40236e-10
-3.82364e-06
1.77897e-10
-3.82411e-06
-1.89352e-10
-3.82418e-06
-6.2544e-10
-3.82588e-06
-1.21886e-09
-3.82379e-06
-2.89753e-09
-3.82014e-06
-1.68446e-09
-3.81928e-06
-6.53008e-10
-3.81962e-06
-2.39055e-10
-3.81985e-06
2.92963e-10
-3.78236e-06
-3.52256e-10
-3.74571e-06
-6.58961e-10
-2.72622e-10
-3.82185e-06
1.5231e-09
-3.82208e-06
1.01808e-09
-3.82157e-06
2.57137e-10
-3.82191e-06
-3.58384e-10
-3.82239e-06
-7.13227e-10
-3.82211e-06
-8.0665e-10
-3.82089e-06
-1.16706e-09
-3.82087e-06
-4.879e-10
-3.82247e-06
7.8014e-10
-3.82259e-06
5.68462e-10
-3.8213e-06
4.55027e-10
-3.82135e-06
1.53376e-09
-3.82141e-06
4.26682e-11
-3.82118e-06
-1.16433e-09
-3.82109e-06
-5.89669e-11
-3.82218e-06
3.80197e-10
-3.82353e-06
5.31826e-10
-3.82563e-06
1.77326e-09
-3.82498e-06
-2.94112e-10
-3.82084e-06
-2.79027e-09
-3.81795e-06
-1.95317e-09
-3.81831e-06
7.38207e-10
-3.82043e-06
2.23274e-09
-3.82116e-06
9.24612e-10
-3.82301e-06
1.46693e-09
-3.8225e-06
3.27414e-10
-3.81991e-06
-1.56676e-09
-3.81999e-06
-1.08828e-09
-3.82026e-06
-8.81008e-10
-3.82051e-06
7.80698e-11
-3.82207e-06
1.01736e-09
-3.82213e-06
-3.95516e-11
-3.82081e-06
-8.77268e-10
-3.82131e-06
7.01539e-10
-3.82192e-06
7.5096e-10
-3.82208e-06
1.22684e-10
-3.82189e-06
-2.53174e-11
-3.82052e-06
-7.06088e-10
-3.81998e-06
-5.18161e-10
-3.82351e-06
1.50222e-09
-3.8246e-06
7.06621e-11
-3.82087e-06
-3.13049e-09
-3.81935e-06
-2.05175e-09
-3.81957e-06
-5.62733e-10
-3.8198e-06
3.41734e-10
-3.81972e-06
9.57139e-10
-3.82003e-06
5.08187e-10
-3.8201e-06
-9.96857e-10
-3.82104e-06
8.24572e-10
-3.82197e-06
1.75319e-09
-3.82146e-06
3.25406e-10
-3.82163e-06
1.20352e-09
-3.82067e-06
3.24346e-10
-3.8196e-06
-4.89919e-10
-3.82038e-06
5.15387e-10
-3.82103e-06
6.88058e-10
-3.82099e-06
7.1585e-10
-3.82043e-06
7.10579e-10
-3.81959e-06
2.50365e-10
-3.81949e-06
7.25612e-10
-3.81938e-06
1.33253e-09
-3.81927e-06
3.27793e-10
-3.81967e-06
-5.40937e-10
-3.81891e-06
-5.73161e-10
-3.8189e-06
-2.0283e-10
-3.81952e-06
-7.12261e-12
-3.82027e-06
-4.71881e-10
-3.82098e-06
-2.1806e-09
-3.82086e-06
-1.80401e-09
-3.82206e-06
5.38281e-10
-3.82166e-06
-6.3725e-10
-3.82021e-06
-1.15321e-09
-3.78226e-06
2.86598e-10
-3.74529e-06
1.80822e-10
-2.63368e-11
-3.81975e-06
-1.71117e-10
-3.81971e-06
9.85849e-10
-3.81956e-06
1.02127e-10
-3.81983e-06
-9.29131e-11
-3.82019e-06
-3.52992e-10
-3.8203e-06
-6.88197e-10
-3.82077e-06
-7.00359e-10
-3.82273e-06
1.47193e-09
-3.82525e-06
3.30072e-09
-3.82499e-06
3.11656e-10
-3.82241e-06
-2.12962e-09
-3.81982e-06
-1.05675e-09
-3.81948e-06
-2.92129e-10
-3.82024e-06
-4.08009e-10
-3.82083e-06
5.26874e-10
-3.8219e-06
1.45381e-09
-3.82189e-06
5.19741e-10
-3.81952e-06
-5.99426e-10
-3.8194e-06
-4.11626e-10
-3.82192e-06
-2.68673e-10
-3.82521e-06
1.3416e-09
-3.82484e-06
3.6071e-10
-3.82035e-06
-2.25439e-09
-3.81861e-06
-8.13915e-10
-3.81858e-06
1.43127e-09
-3.8188e-06
5.50446e-10
-3.81976e-06
-6.01492e-10
-3.82068e-06
-1.76304e-10
-3.82198e-06
4.23014e-10
-3.82204e-06
1.39998e-10
-3.82039e-06
-6.36831e-10
-3.82024e-06
-1.82414e-10
-3.82183e-06
7.04213e-10
-3.82137e-06
2.48278e-10
-3.81958e-06
-1.04507e-09
-3.81939e-06
-6.34848e-11
-3.8201e-06
6.88078e-10
-3.82049e-06
-3.22172e-10
-3.82044e-06
-5.65364e-10
-3.81936e-06
4.23856e-10
-3.81944e-06
1.4394e-10
-3.82116e-06
-1.4088e-09
-3.82264e-06
-5.71789e-10
-3.82421e-06
1.00769e-09
-3.82421e-06
3.48126e-10
-3.82221e-06
-1.04535e-09
-3.82125e-06
-4.49652e-10
-3.82335e-06
1.10293e-09
-3.82282e-06
2.89623e-10
-3.82022e-06
-8.4686e-10
-3.81999e-06
9.64692e-11
-3.82025e-06
1.45981e-09
-3.82122e-06
1.30207e-09
-3.82131e-06
-4.02427e-10
-3.82048e-06
-3.17825e-10
-3.82076e-06
9.69016e-10
-3.82098e-06
9.32922e-10
-3.82101e-06
7.44404e-10
-3.8217e-06
9.44166e-10
-3.82145e-06
4.7052e-10
-3.82009e-06
-2.50786e-11
-3.81972e-06
-4.15289e-11
-3.81993e-06
-3.29609e-10
-3.82102e-06
5.15971e-10
-3.82114e-06
-8.23288e-11
-3.81997e-06
-1.18184e-09
-3.82172e-06
1.27984e-09
-3.82578e-06
1.88377e-09
-3.82633e-06
-1.25743e-09
-3.82279e-06
-3.0019e-09
-3.82133e-06
-2.09663e-09
-3.82145e-06
-1.03104e-09
-3.7826e-06
2.53798e-11
-3.74522e-06
6.19126e-10
1.76126e-10
-3.82133e-06
-6.97e-11
-3.82071e-06
3.68348e-10
-3.82196e-06
1.34653e-09
-3.82265e-06
6.03876e-10
-3.82287e-06
-1.41876e-10
-3.82292e-06
-6.36601e-10
-3.82381e-06
1.90884e-10
-3.82307e-06
7.28749e-10
-3.81927e-06
-4.92323e-10
-3.81855e-06
-4.14178e-10
-3.81973e-06
-9.41605e-10
-3.8201e-06
-6.87407e-10
-3.8199e-06
-4.96046e-10
-3.81959e-06
-7.21663e-10
-3.81991e-06
8.47299e-10
-3.82007e-06
1.61916e-09
-3.82037e-06
8.22098e-10
-3.82165e-06
6.7992e-10
-3.82196e-06
-1.09502e-10
-3.82271e-06
4.88425e-10
-3.82301e-06
1.63604e-09
-3.82191e-06
-7.41398e-10
-3.82263e-06
-1.52688e-09
-3.82318e-06
-2.68638e-10
-3.82195e-06
2.00257e-10
-3.82185e-06
4.50698e-10
-3.82166e-06
-7.8803e-10
-3.81998e-06
-1.8524e-09
-3.81954e-06
-1.83278e-11
-3.82021e-06
8.06241e-10
-3.82007e-06
-7.77262e-10
-3.81963e-06
-6.16719e-10
-3.81982e-06
8.89232e-10
-3.81995e-06
3.81061e-10
-3.81901e-06
-1.98481e-09
-3.8192e-06
1.26891e-10
-3.82095e-06
2.43256e-09
-3.82106e-06
-2.10548e-10
-3.82246e-06
8.34891e-10
-3.82216e-06
1.23993e-10
-3.82046e-06
-1.55672e-09
-3.82238e-06
5.07529e-10
-3.82355e-06
6.02944e-10
-3.82199e-06
-5.49531e-10
-3.82016e-06
-1.48034e-09
-3.81944e-06
-1.77174e-09
-3.82025e-06
3.66411e-10
-3.8217e-06
2.547e-09
-3.82149e-06
8.24724e-11
-3.8226e-06
2.64969e-10
-3.82438e-06
1.87785e-09
-3.8226e-06
-3.29073e-10
-3.82005e-06
-1.24112e-09
-3.82112e-06
6.60542e-10
-3.82205e-06
6.15759e-10
-3.82104e-06
-3.95058e-11
-3.8209e-06
7.95307e-10
-3.82066e-06
5.0412e-10
-3.81971e-06
-9.68552e-12
-3.81949e-06
2.56266e-10
-3.82025e-06
7.29907e-10
-3.82052e-06
2.26614e-10
-3.82172e-06
8.69041e-10
-3.82186e-06
6.55435e-10
-3.82248e-06
5.47199e-10
-3.82516e-06
1.493e-09
-3.82348e-06
-3.95765e-10
-3.81985e-06
-1.74579e-09
-3.81945e-06
-1.66538e-09
-3.82015e-06
-2.29818e-09
-3.82142e-06
-8.24745e-10
-3.82332e-06
8.68966e-10
-3.78457e-06
-1.13032e-10
-3.74555e-06
-5.65535e-10
-1.37318e-10
-3.82117e-06
-3.67621e-10
-3.82001e-06
-7.8965e-10
-3.8202e-06
1.53079e-09
-3.82063e-06
1.04183e-09
-3.82101e-06
2.31173e-10
-3.82212e-06
4.71872e-10
-3.82094e-06
-9.81406e-10
-3.81926e-06
-9.58609e-10
-3.81936e-06
-3.83717e-10
-3.81986e-06
8.62757e-11
-3.822e-06
1.19692e-09
-3.82264e-06
-5.3783e-11
-3.82273e-06
-4.02161e-10
-3.82308e-06
-3.69745e-10
-3.8217e-06
-5.38292e-10
-3.82031e-06
2.35407e-10
-3.81996e-06
4.66649e-10
-3.81995e-06
6.70545e-10
-3.82125e-06
1.19038e-09
-3.82155e-06
7.90012e-10
-3.8199e-06
-1.73603e-11
-3.81959e-06
-1.04773e-09
-3.81965e-06
-1.47036e-09
-3.82076e-06
8.42835e-10
-3.82168e-06
1.12539e-09
-3.82071e-06
-5.24507e-10
-3.82043e-06
-1.07095e-09
-3.8213e-06
-9.76615e-10
-3.82171e-06
3.89904e-10
-3.82162e-06
7.21162e-10
-3.82247e-06
6.51434e-11
-3.82345e-06
3.6253e-10
-3.82265e-06
8.93427e-11
-3.82218e-06
-8.17067e-11
-3.82509e-06
9.22505e-10
-3.82527e-06
3.05043e-10
-3.82244e-06
-3.96138e-10
-3.82341e-06
7.56441e-10
-3.8233e-06
7.26902e-10
-3.82312e-06
-5.0688e-11
-3.8233e-06
-1.37916e-09
-3.82005e-06
-2.74525e-09
-3.81883e-06
-6.14086e-10
-3.82015e-06
7.65418e-10
-3.82097e-06
-6.53872e-10
-3.82309e-06
3.48048e-10
-3.82354e-06
8.10846e-10
-3.8212e-06
2.11028e-10
-3.82291e-06
1.7952e-09
-3.82367e-06
1.01972e-09
-3.82109e-06
-6.9924e-10
-3.82048e-06
-9.44255e-10
-3.82126e-06
-4.54073e-10
-3.82169e-06
1.08309e-09
-3.82255e-06
1.48361e-09
-3.82264e-06
4.56078e-11
-3.82131e-06
-5.38442e-10
-3.82104e-06
2.43091e-10
-3.82191e-06
8.51122e-10
-3.82161e-06
-3.75797e-11
-3.82088e-06
-2.60086e-12
-3.82209e-06
1.44038e-09
-3.82201e-06
7.85493e-10
-3.82157e-06
2.14526e-10
-3.821e-06
-1.96391e-11
-3.81922e-06
-2.85653e-10
-3.81928e-06
-3.3426e-10
-3.82021e-06
-8.21461e-10
-3.82068e-06
-1.19317e-09
-3.82124e-06
-1.7349e-09
-3.81993e-06
-2.14167e-09
-3.81913e-06
7.29154e-11
-3.78231e-06
1.65476e-09
-3.74546e-06
3.99887e-10
-7.57159e-11
-3.82418e-06
1.17378e-09
-3.82548e-06
5.11126e-10
-3.82281e-06
-1.14047e-09
-3.82045e-06
-1.3145e-09
-3.82034e-06
1.21909e-10
-3.82107e-06
1.20412e-09
-3.82339e-06
1.3382e-09
-3.82412e-06
-2.31547e-10
-3.82391e-06
-5.89952e-10
-3.8231e-06
-7.26064e-10
-3.82001e-06
-1.89074e-09
-3.81942e-06
-6.44985e-10
-3.82019e-06
3.71616e-10
-3.82093e-06
3.70057e-10
-3.82109e-06
-3.79311e-10
-3.82035e-06
-5.09603e-10
-3.81978e-06
-1.06633e-10
-3.81932e-06
2.18212e-10
-3.81917e-06
1.03996e-09
-3.81976e-06
1.37982e-09
-3.82091e-06
1.13065e-09
-3.82298e-06
1.02001e-09
-3.82505e-06
6.03969e-10
-3.82293e-06
-1.28215e-09
-3.82001e-06
-1.7912e-09
-3.82067e-06
1.33464e-10
-3.82316e-06
1.41867e-09
-3.82528e-06
1.14413e-09
-3.82396e-06
-9.33878e-10
-3.82154e-06
-1.6897e-09
-3.82144e-06
-3.9319e-11
-3.8211e-06
2.40311e-11
-3.82036e-06
-6.51817e-10
-3.82131e-06
8.65087e-10
-3.82312e-06
2.7331e-09
-3.82316e-06
3.50456e-10
-3.82193e-06
-1.6307e-09
-3.8216e-06
4.24891e-10
-3.82088e-06
7.97419e-12
-3.81944e-06
-1.48506e-09
-3.8204e-06
-4.27552e-10
-3.8238e-06
6.6286e-10
-3.82347e-06
-9.46957e-10
-3.82115e-06
-1.55554e-09
-3.82188e-06
7.54689e-11
-3.82298e-06
1.44853e-09
-3.82412e-06
1.94647e-09
-3.82457e-06
6.62029e-10
-3.82149e-06
-1.28239e-09
-3.81985e-06
-6.1489e-10
-3.82151e-06
9.55949e-10
-3.82341e-06
9.52413e-10
-3.82511e-06
1.25163e-09
-3.82359e-06
-4.33915e-10
-3.82053e-06
-1.58504e-09
-3.82004e-06
-4.45164e-10
-3.82065e-06
7.46361e-11
-3.82058e-06
1.76457e-10
-3.82034e-06
6.06823e-10
-3.82159e-06
1.21423e-09
-3.82204e-06
4.45423e-10
-3.82027e-06
-3.30144e-10
-3.81948e-06
-1.68293e-12
-3.81919e-06
-7.84847e-11
-3.81881e-06
-3.93289e-10
-3.81904e-06
-5.66768e-11
-3.81977e-06
3.91055e-10
-3.82062e-06
2.89907e-11
-3.82126e-06
-5.48978e-10
-3.82206e-06
-9.33061e-10
-3.82334e-06
-8.61394e-10
-3.82285e-06
-4.18696e-10
-3.78281e-06
2.00315e-10
-3.74505e-06
4.65265e-10
1.80029e-10
-3.81926e-06
5.36532e-10
-3.8196e-06
8.57545e-10
-3.82114e-06
3.91863e-10
-3.8226e-06
1.47574e-10
-3.82214e-06
-3.33614e-10
-3.82041e-06
-5.26205e-10
-3.81922e-06
1.4433e-10
-3.81904e-06
-4.08344e-10
-3.81946e-06
-1.71639e-10
-3.81983e-06
-3.51583e-10
-3.81955e-06
-2.17708e-09
-3.81941e-06
-7.85151e-10
-3.81997e-06
9.34519e-10
-3.81907e-06
-5.27426e-10
-3.81892e-06
-5.28421e-10
-3.82025e-06
8.1232e-10
-3.82024e-06
-1.11087e-10
-3.82164e-06
1.61704e-09
-3.82382e-06
3.22415e-09
-3.82236e-06
-8.24293e-11
-3.82061e-06
-6.22842e-10
-3.82026e-06
6.76422e-10
-3.81937e-06
-2.89738e-10
-3.82114e-06
4.90256e-10
-3.82399e-06
1.05295e-09
-3.82267e-06
-1.18797e-09
-3.82034e-06
-9.05337e-10
-3.81914e-06
-6.21881e-11
-3.81953e-06
-5.3945e-10
-3.82064e-06
-5.83471e-10
-3.81966e-06
-1.01595e-09
-3.81937e-06
-2.65357e-10
-3.82159e-06
1.56574e-09
-3.82201e-06
1.28794e-09
-3.81961e-06
3.27894e-10
-3.81916e-06
-9.60511e-11
-3.82039e-06
-3.98938e-10
-3.82009e-06
1.23577e-10
-3.8198e-06
-2.83442e-10
-3.82114e-06
-1.45626e-10
-3.82181e-06
2.44106e-10
-3.82036e-06
-7.89162e-10
-3.82143e-06
1.2718e-10
-3.82308e-06
9.23494e-11
-3.82418e-06
1.17917e-09
-3.82454e-06
1.80235e-09
-3.82188e-06
-7.08905e-10
-3.82099e-06
-2.30089e-10
-3.82344e-06
1.17035e-09
-3.82371e-06
-3.51926e-10
-3.82108e-06
-1.66766e-09
-3.81956e-06
-5.68741e-10
-3.81882e-06
5.11784e-10
-3.81944e-06
1.8457e-10
-3.82012e-06
-9.04174e-10
-3.82028e-06
-2.87995e-10
-3.8206e-06
3.9974e-10
-3.8203e-06
-1.28623e-10
-3.81974e-06
4.63493e-11
-3.81975e-06
1.22612e-09
-3.82021e-06
9.06872e-10
-3.82008e-06
-4.62352e-10
-3.81982e-06
-2.62426e-10
-3.81952e-06
-3.72462e-10
-3.81876e-06
-1.16123e-09
-3.81899e-06
1.7681e-10
-3.82022e-06
1.62511e-09
-3.82115e-06
9.52827e-10
-3.82164e-06
-5.63421e-11
-3.82214e-06
-4.31926e-10
-3.82319e-06
1.89622e-10
-3.82262e-06
-9.92181e-10
-3.78277e-06
-1.0516e-09
-3.74531e-06
8.19493e-10
4.38125e-10
-3.82164e-06
6.00619e-10
-3.82196e-06
1.18295e-09
-3.82095e-06
-6.19228e-10
-3.82026e-06
-5.39507e-10
-3.81988e-06
-7.14622e-10
-3.82001e-06
-4.03199e-10
-3.82001e-06
1.47535e-10
-3.82125e-06
8.33598e-10
-3.82198e-06
5.5507e-10
-3.82154e-06
-7.85044e-10
-3.8234e-06
-3.22687e-10
-3.82329e-06
-8.93777e-10
-3.82135e-06
-1.0044e-09
-3.82366e-06
1.78549e-09
-3.82544e-06
1.24255e-09
-3.82382e-06
-8.04654e-10
-3.82572e-06
1.78917e-09
-3.82508e-06
9.81973e-10
-3.82066e-06
-1.2024e-09
-3.82128e-06
5.36344e-10
-3.82221e-06
3.15556e-10
-3.82148e-06
-5.81273e-11
-3.82314e-06
1.36695e-09
-3.82286e-06
2.13293e-10
-3.82059e-06
-1.21334e-09
-3.82172e-06
-6.46236e-11
-3.82244e-06
-1.86525e-10
-3.82194e-06
-5.56177e-10
-3.82165e-06
-8.30401e-10
-3.82111e-06
-1.12647e-09
-3.82156e-06
-5.58534e-10
-3.82274e-06
9.07814e-10
-3.82182e-06
6.44161e-10
-3.82006e-06
-4.64703e-10
-3.81959e-06
-1.40691e-10
-3.81942e-06
-2.71332e-10
-3.81991e-06
9.31058e-11
-3.82052e-06
7.36835e-10
-3.82212e-06
1.31043e-09
-3.82334e-06
1.07458e-09
-3.82295e-06
-1.41707e-10
-3.82412e-06
3.73155e-10
-3.82413e-06
1.43791e-10
-3.8239e-06
-1.40952e-10
-3.82258e-06
-1.3924e-10
-3.81876e-06
-2.0223e-09
-3.81857e-06
-8.91058e-10
-3.82002e-06
1.21222e-09
-3.81976e-06
9.17311e-10
-3.81975e-06
-3.62762e-10
-3.82073e-06
-6.86715e-10
-3.8218e-06
4.98463e-10
-3.82137e-06
7.66369e-11
-3.82013e-06
-1.04812e-09
-3.81955e-06
-1.48258e-09
-3.81989e-06
5.1045e-11
-3.82123e-06
1.74008e-09
-3.82281e-06
1.44895e-09
-3.82374e-06
9.73379e-10
-3.82238e-06
-1.35855e-10
-3.82117e-06
-3.03125e-10
-3.82221e-06
5.77571e-10
-3.82264e-06
1.75023e-10
-3.82304e-06
2.36956e-11
-3.82522e-06
1.01564e-09
-3.82529e-06
2.51905e-10
-3.82261e-06
-1.05426e-09
-3.82114e-06
-5.15178e-10
-3.82183e-06
6.32337e-10
-3.82396e-06
1.70031e-09
-3.82433e-06
5.52044e-10
-3.82472e-06
-5.94605e-10
-3.78604e-06
-1.11211e-09
-3.74573e-06
-1.63541e-09
-5.27691e-10
-3.82377e-06
-9.55938e-10
-3.82056e-06
-2.02214e-09
-3.82015e-06
-1.02672e-09
-3.82067e-06
-2.4965e-11
-3.82205e-06
6.70968e-10
-3.82218e-06
-2.75457e-10
-3.82168e-06
-3.58091e-10
-3.82125e-06
4.06336e-10
-3.82056e-06
-1.31623e-10
-3.82083e-06
-5.2237e-10
-3.82164e-06
4.88786e-10
-3.82346e-06
9.27406e-10
-3.82409e-06
-3.70218e-10
-3.82204e-06
-2.62352e-10
-3.82192e-06
1.11425e-09
-3.82374e-06
1.02019e-09
-3.82178e-06
-1.72483e-10
-3.8192e-06
-1.59368e-09
-3.81991e-06
-4.93269e-10
-3.8205e-06
1.12139e-09
-3.82007e-06
-1.14457e-10
-3.81995e-06
-1.76127e-10
-3.81919e-06
6.0975e-10
-3.81885e-06
-1.26115e-10
-3.81966e-06
-4.08662e-10
-3.81997e-06
2.44599e-10
-3.82015e-06
-3.8852e-12
-3.81989e-06
-8.12253e-10
-3.81989e-06
-8.30861e-10
-3.8211e-06
7.83197e-11
-3.82322e-06
1.56706e-09
-3.82334e-06
1.02819e-09
-3.82232e-06
-3.80306e-10
-3.82173e-06
-1.05054e-09
-3.81996e-06
-1.91541e-09
-3.81907e-06
-1.15566e-09
-3.81939e-06
4.07194e-10
-3.8198e-06
1.15115e-09
-3.8196e-06
1.10459e-09
-3.81922e-06
6.97176e-10
-3.81959e-06
2.29589e-10
-3.8194e-06
1.78613e-10
-3.81901e-06
-2.37636e-10
-3.81905e-06
-1.04094e-10
-3.82002e-06
8.30997e-10
-3.82321e-06
1.16801e-09
-3.82278e-06
-1.31824e-09
-3.82005e-06
-1.52396e-09
-3.81989e-06
7.63273e-10
-3.81986e-06
-4.00005e-10
-3.81972e-06
-8.27272e-10
-3.81979e-06
5.72736e-10
-3.82001e-06
2.91127e-10
-3.82108e-06
2.7407e-11
-3.82363e-06
1.06813e-09
-3.82351e-06
-7.07274e-11
-3.82079e-06
-9.75724e-10
-3.8197e-06
3.54741e-10
-3.81961e-06
8.82313e-10
-3.82009e-06
3.41557e-10
-3.82056e-06
1.68406e-10
-3.82028e-06
3.01738e-10
-3.82009e-06
-1.34803e-11
-3.81946e-06
-6.12765e-10
-3.81833e-06
-1.07167e-10
-3.81886e-06
7.74677e-10
-3.82035e-06
4.33569e-10
-3.82101e-06
1.46704e-10
-3.8208e-06
4.26803e-10
-3.81964e-06
5.4237e-10
-3.81963e-06
5.34675e-10
-3.82036e-06
1.35278e-10
-3.78223e-06
-6.54622e-10
-3.74523e-06
-8.1815e-10
-3.00816e-10
-3.81968e-06
-6.83645e-10
-3.82046e-06
-1.24246e-09
-3.8203e-06
-1.1895e-09
-3.82016e-06
-1.68971e-10
-3.82037e-06
8.84173e-10
-3.81967e-06
-9.79939e-10
-3.81886e-06
-1.15875e-09
-3.8196e-06
1.13865e-09
-3.82094e-06
1.21165e-09
-3.8202e-06
-1.26732e-09
-3.81877e-06
-9.34176e-10
-3.81953e-06
1.68643e-09
-3.82149e-06
1.58401e-09
-3.82081e-06
-9.39649e-10
-3.81929e-06
-4.0181e-10
-3.81962e-06
1.3483e-09
-3.82063e-06
8.36467e-10
-3.82344e-06
1.21834e-09
-3.82393e-06
-9.64849e-12
-3.82111e-06
-1.6984e-09
-3.81942e-06
-1.79604e-09
-3.8194e-06
-2.03437e-10
-3.81965e-06
8.58991e-10
-3.81896e-06
-8.09007e-10
-3.81916e-06
-2.06678e-10
-3.82012e-06
1.19657e-09
-3.82093e-06
8.1363e-10
-3.82252e-06
7.73852e-10
-3.82419e-06
8.38631e-10
-3.82453e-06
4.1869e-10
-3.82308e-06
1.2059e-10
-3.82123e-06
-8.24455e-10
-3.82044e-06
-1.17218e-09
-3.82074e-06
-7.53825e-10
-3.82212e-06
-5.27023e-10
-3.82299e-06
-2.87334e-10
-3.82125e-06
-1.33521e-09
-3.81958e-06
-5.19493e-10
-3.81958e-06
1.10086e-09
-3.81939e-06
5.10119e-10
-3.8195e-06
3.39596e-10
-3.81957e-06
2.48158e-10
-3.81889e-06
-9.13883e-10
-3.81841e-06
-5.83518e-10
-3.81943e-06
1.84569e-09
-3.82056e-06
2.30266e-09
-3.82303e-06
1.14943e-09
-3.82367e-06
-8.82315e-10
-3.82144e-06
-1.47043e-09
-3.82219e-06
3.48724e-10
-3.82347e-06
4.58859e-10
-3.82252e-06
-3.79672e-10
-3.82233e-06
9.90871e-11
-3.82211e-06
-1.92855e-10
-3.81957e-06
-1.47222e-09
-3.81914e-06
-5.00697e-10
-3.82016e-06
4.5697e-11
-3.81999e-06
1.82111e-10
-3.81992e-06
8.1375e-10
-3.82012e-06
5.47041e-10
-3.82044e-06
4.8168e-10
-3.82048e-06
3.42152e-10
-3.82068e-06
1.90219e-10
-3.82143e-06
1.4051e-10
-3.82006e-06
-1.4792e-09
-3.81908e-06
-2.04214e-10
-3.82034e-06
1.69151e-09
-3.82081e-06
6.15083e-10
-3.82069e-06
3.06587e-10
-3.81962e-06
-5.22253e-10
-3.81986e-06
7.73844e-10
-3.82073e-06
1.00499e-09
-3.78213e-06
-6.72809e-10
-3.74472e-06
-4.12559e-10
-6.73804e-11
-3.82249e-06
8.0366e-10
-3.8233e-06
-4.2991e-10
-3.82453e-06
3.69245e-11
-3.82414e-06
-5.61525e-10
-3.82163e-06
-1.62042e-09
-3.82199e-06
-6.21514e-10
-3.82461e-06
1.46389e-09
-3.82453e-06
1.05464e-09
-3.82278e-06
-5.37452e-10
-3.82473e-06
6.82738e-10
-3.82675e-06
1.08206e-09
-3.82392e-06
-1.14145e-09
-3.81996e-06
-2.38005e-09
-3.81968e-06
-1.22e-09
-3.82038e-06
3.00164e-10
-3.81998e-06
9.48005e-10
-3.81969e-06
5.49521e-10
-3.81945e-06
9.78353e-10
-3.82033e-06
8.69431e-10
-3.82206e-06
3.59178e-11
-3.82416e-06
3.02061e-10
-3.82382e-06
-5.49347e-10
-3.82098e-06
-1.97978e-09
-3.8205e-06
-1.28243e-09
-3.82071e-06
2.21262e-12
-3.82044e-06
9.29203e-10
-3.82053e-06
9.03215e-10
-3.81983e-06
6.92428e-11
-3.81942e-06
4.26379e-10
-3.81964e-06
6.36396e-10
-3.81908e-06
-4.3471e-10
-3.81926e-06
-6.48315e-10
-3.82033e-06
-1.0129e-10
-3.82057e-06
-5.1169e-10
-3.81946e-06
-1.63527e-09
-3.81928e-06
-4.63833e-10
-3.82084e-06
2.25148e-10
-3.82119e-06
-1.71784e-10
-3.82029e-06
1.93564e-10
-3.8194e-06
-3.71036e-10
-3.81971e-06
6.48505e-10
-3.82099e-06