/*--------------------------------*- C++ -*----------------------------------*\
  =========                 |
  \\      /  F ield         | OpenFOAM: The Open Source CFD Toolbox
   \\    /   O peration     | Website:  https://openfoam.org
    \\  /    A nd           | Version:  12
     \\/     M anipulation  |
\*---------------------------------------------------------------------------*/
FoamFile
{
    format      ascii;
    class       volVectorField;
    location    "0.05";
    object      U.water;
}
// * * * * * * * * * * * * * * * * * * * * * * * * * * * * * * * * * * * * * //

dimensions      [0 1 -1 0 0 0 0];

internalField   nonuniform List<vector> 
3750
(
(-2.73487e-05 -0.347444 0)
(1.02801e-08 -0.347424 0)
(1.02121e-05 -0.347425 0)
(-2.99853e-06 -0.347419 0)
(1.33522e-05 -0.347436 0)
(3.79042e-05 -0.347505 0)
(-9.77674e-06 -0.347506 0)
(-9.82731e-05 -0.347411 0)
(-5.60905e-05 -0.347266 0)
(5.53775e-05 -0.347255 0)
(6.77411e-05 -0.347363 0)
(4.26087e-05 -0.347503 0)
(9.14737e-06 -0.347525 0)
(-2.11067e-06 -0.347576 0)
(-1.6567e-05 -0.347511 0)
(-4.81985e-05 -0.347477 0)
(-4.71395e-05 -0.347357 0)
(-2.95467e-06 -0.347324 0)
(5.72241e-05 -0.347381 0)
(1.94075e-06 -0.347417 0)
(-4.43111e-05 -0.347403 0)
(-7.3151e-06 -0.347331 0)
(2.73996e-05 -0.347352 0)
(5.20181e-05 -0.347451 0)
(1.54627e-05 -0.347488 0)
(-3.47043e-06 -0.347545 0)
(-1.39361e-05 -0.347482 0)
(-3.85239e-05 -0.34746 0)
(5.01881e-06 -0.347403 0)
(3.91043e-05 -0.347471 0)
(-3.94386e-05 -0.347434 0)
(-3.21186e-05 -0.347423 0)
(4.02607e-05 -0.347378 0)
(8.46398e-07 -0.347425 0)
(1.25359e-05 -0.347454 0)
(4.64733e-05 -0.347521 0)
(-1.23745e-05 -0.347538 0)
(-6.99654e-05 -0.347454 0)
(4.78955e-06 -0.347413 0)
(1.70858e-05 -0.347392 0)
(-6.40015e-07 -0.347458 0)
(1.52552e-05 -0.347429 0)
(-5.66329e-06 -0.34747 0)
(1.39748e-05 -0.347455 0)
(4.39628e-05 -0.347532 0)
(2.54229e-05 -0.347596 0)
(-4.71062e-05 -0.347573 0)
(-6.31923e-05 -0.347467 0)
(-3.43562e-05 -0.34735 0)
(7.72784e-06 -0.347347 0)
(2.00978e-05 -0.347359 0)
(-1.4626e-05 -0.347367 0)
(9.15144e-07 -0.347356 0)
(2.99631e-05 -0.347386 0)
(2.80814e-05 -0.347445 0)
(3.50859e-05 -0.347499 0)
(6.57252e-05 -0.347639 0)
(-2.81547e-05 -0.347618 0)
(-8.24561e-05 -0.347576 0)
(-1.58583e-05 -0.347408 0)
(2.63312e-05 -0.347471 0)
(-1.58395e-05 -0.347437 0)
(-3.2433e-05 -0.347422 0)
(-2.20356e-06 -0.347371 0)
(1.30983e-05 -0.347391 0)
(4.44918e-05 -0.347464 0)
(1.31829e-05 -0.347474 0)
(1.28911e-05 -0.347553 0)
(-1.86957e-05 -0.347499 0)
(-4.31788e-05 -0.347486 0)
(-7.12669e-05 -0.347322 0)
(-9.67296e-05 -0.347203 0)
(-0.000145023 -0.346445 0)
(-0.000242508 -0.340876 0)
(-0.000143838 -0.338302 0)
(3.65545e-05 -0.380635 0)
(1.17482e-05 -0.380682 0)
(-0.000108801 -0.380604 0)
(-4.64408e-05 -0.380413 0)
(5.00276e-05 -0.380392 0)
(8.34337e-05 -0.380422 0)
(2.59954e-05 -0.380476 0)
(-6.01727e-05 -0.380684 0)
(-0.000106925 -0.380787 0)
(-3.04179e-05 -0.380722 0)
(8.03203e-05 -0.380466 0)
(6.43882e-05 -0.380376 0)
(1.71367e-05 -0.380385 0)
(8.79172e-06 -0.380372 0)
(-2.73035e-05 -0.380411 0)
(-6.66776e-05 -0.38043 0)
(-5.72761e-05 -0.38052 0)
(-3.71651e-05 -0.380514 0)
(4.47542e-05 -0.380433 0)
(-9.59634e-06 -0.380322 0)
(-8.30268e-05 -0.380326 0)
(-1.43822e-05 -0.380336 0)
(7.15369e-05 -0.380356 0)
(0.00010754 -0.380354 0)
(2.52677e-05 -0.38037 0)
(-7.40935e-06 -0.380344 0)
(-2.2243e-05 -0.380369 0)
(-7.34167e-05 -0.380361 0)
(2.49898e-05 -0.380403 0)
(0.000122256 -0.380425 0)
(4.02102e-05 -0.380651 0)
(-4.69238e-05 -0.380718 0)
(-4.57158e-05 -0.38067 0)
(-6.07629e-05 -0.380418 0)
(6.2833e-05 -0.38046 0)
(0.000117308 -0.380467 0)
(-4.66691e-05 -0.380495 0)
(-0.00010825 -0.380497 0)
(-2.42811e-05 -0.380492 0)
(-6.09472e-05 -0.380379 0)
(-2.62206e-05 -0.380252 0)
(8.9768e-05 -0.380296 0)
(4.39155e-05 -0.380384 0)
(3.36211e-05 -0.380457 0)
(6.03624e-05 -0.380428 0)
(2.4574e-05 -0.380381 0)
(-8.17071e-05 -0.380368 0)
(-0.000103186 -0.380387 0)
(-3.99203e-06 -0.380524 0)
(3.52056e-05 -0.380564 0)
(-2.44259e-05 -0.38055 0)
(-9.02461e-05 -0.380393 0)
(1.32308e-06 -0.380377 0)
(0.000110928 -0.38039 0)
(7.75212e-05 -0.380464 0)
(7.5524e-05 -0.380493 0)
(0.000113282 -0.380456 0)
(-3.5993e-06 -0.380543 0)
(-0.000112494 -0.380586 0)
(-3.10242e-05 -0.3807 0)
(2.19257e-05 -0.380612 0)
(-6.3837e-05 -0.380609 0)
(-2.43387e-05 -0.380571 0)
(5.60051e-05 -0.380713 0)
(4.63936e-06 -0.380734 0)
(4.98559e-06 -0.380651 0)
(-5.66828e-06 -0.380476 0)
(-7.44234e-06 -0.380441 0)
(-6.80298e-05 -0.38038 0)
(-0.000104835 -0.380309 0)
(-9.58997e-05 -0.380404 0)
(-0.000170442 -0.380422 0)
(-0.00028645 -0.379891 0)
(-0.00037405 -0.374366 0)
(-0.00021194 -0.37238 0)
(5.86707e-05 -0.382085 0)
(-1.09866e-05 -0.382028 0)
(-0.000157784 -0.382042 0)
(-9.79903e-05 -0.38209 0)
(-4.83739e-06 -0.382051 0)
(8.8099e-05 -0.38195 0)
(9.71816e-05 -0.381967 0)
(8.33949e-05 -0.381973 0)
(-6.02519e-06 -0.38214 0)
(-0.000159089 -0.382164 0)
(-9.80827e-05 -0.382129 0)
(-1.36638e-05 -0.381899 0)
(2.33844e-05 -0.381891 0)
(5.51002e-05 -0.381917 0)
(-2.15202e-05 -0.381945 0)
(-9.10921e-06 -0.381982 0)
(5.73636e-05 -0.38207 0)
(-2.10212e-05 -0.382205 0)
(-7.98453e-05 -0.382174 0)
(-1.50094e-05 -0.382176 0)
(1.13032e-06 -0.382213 0)
(-3.28828e-05 -0.3823 0)
(-2.49044e-06 -0.382175 0)
(2.60082e-05 -0.382017 0)
(-1.21788e-05 -0.381892 0)
(-2.86221e-06 -0.381874 0)
(1.98498e-05 -0.381907 0)
(-3.98213e-06 -0.38202 0)
(4.46045e-05 -0.382077 0)
(0.000104938 -0.382034 0)
(0.000118637 -0.381904 0)
(-6.79371e-06 -0.381926 0)
(-9.61578e-05 -0.381977 0)
(-1.18517e-05 -0.382215 0)
(5.70366e-05 -0.382225 0)
(-1.39314e-05 -0.3821 0)
(-6.0651e-05 -0.381905 0)
(3.8809e-06 -0.382001 0)
(-3.99056e-05 -0.38208 0)
(-9.11607e-05 -0.382207 0)
(-6.09398e-08 -0.382285 0)
(3.32821e-05 -0.382237 0)
(1.78904e-05 -0.382048 0)
(4.49679e-05 -0.381949 0)
(1.932e-05 -0.381959 0)
(-2.06907e-05 -0.381933 0)
(-5.75024e-05 -0.381912 0)
(1.40939e-06 -0.382034 0)
(7.26748e-05 -0.382067 0)
(5.11764e-06 -0.382079 0)
(-5.59504e-05 -0.382014 0)
(-4.23986e-05 -0.382209 0)
(-1.776e-05 -0.382242 0)
(2.44185e-05 -0.382146 0)
(8.11421e-05 -0.381951 0)
(0.000105878 -0.381977 0)
(7.74664e-05 -0.381995 0)
(1.63472e-05 -0.381941 0)
(-5.28113e-05 -0.381925 0)
(-1.15612e-05 -0.381919 0)
(1.43282e-05 -0.38197 0)
(2.9449e-05 -0.382142 0)
(7.80535e-05 -0.382265 0)
(0.00011212 -0.382411 0)
(-7.65967e-05 -0.382263 0)
(-0.000188551 -0.382182 0)
(-5.37731e-05 -0.381972 0)
(-5.10101e-05 -0.381995 0)
(-0.000122982 -0.38193 0)
(-6.75607e-05 -0.382019 0)
(-3.83524e-05 -0.382001 0)
(-0.000210133 -0.381996 0)
(-0.000192776 -0.38137 0)
(-0.000110611 -0.375888 0)
(-6.96348e-05 -0.373919 0)
(-3.0773e-05 -0.382143 0)
(-9.89579e-05 -0.382087 0)
(-9.09666e-05 -0.381982 0)
(-1.94287e-05 -0.382118 0)
(1.97469e-05 -0.382265 0)
(2.42486e-05 -0.38231 0)
(2.78832e-05 -0.382165 0)
(4.14846e-05 -0.382012 0)
(5.1183e-05 -0.381927 0)
(-6.02678e-05 -0.382035 0)
(-0.000136757 -0.382121 0)
(-9.18887e-05 -0.382227 0)
(1.22392e-05 -0.382159 0)
(7.80714e-05 -0.382138 0)
(1.92378e-05 -0.382174 0)
(5.97986e-06 -0.382187 0)
(4.40079e-05 -0.382113 0)
(-1.75549e-05 -0.381961 0)
(-4.66047e-05 -0.382048 0)
(2.72087e-05 -0.382098 0)
(-1.4838e-05 -0.382091 0)
(-0.000108458 -0.381911 0)
(-6.21273e-05 -0.381931 0)
(-7.92375e-06 -0.381959 0)
(-8.39776e-05 -0.381964 0)
(-8.47281e-06 -0.381958 0)
(0.00010608 -0.381948 0)
(0.000127323 -0.382106 0)
(5.29878e-05 -0.38215 0)
(-2.20743e-05 -0.382111 0)
(5.67994e-05 -0.382008 0)
(1.77743e-05 -0.381984 0)
(-9.23529e-06 -0.382019 0)
(5.88126e-05 -0.381952 0)
(1.91363e-05 -0.381971 0)
(-5.2406e-05 -0.382057 0)
(-4.41149e-05 -0.382159 0)
(-2.93328e-05 -0.382086 0)
(-5.90848e-05 -0.381942 0)
(2.06067e-05 -0.381941 0)
(8.94849e-05 -0.382031 0)
(-7.80557e-06 -0.382165 0)
(-5.24428e-05 -0.382191 0)
(-2.03016e-05 -0.382179 0)
(-1.86139e-05 -0.382058 0)
(-4.76406e-05 -0.382013 0)
(7.23306e-06 -0.382101 0)
(8.41886e-05 -0.382109 0)
(1.39929e-05 -0.382099 0)
(-3.70551e-05 -0.382002 0)
(-5.43134e-06 -0.382033 0)
(8.59501e-06 -0.381978 0)
(-5.98539e-05 -0.381948 0)
(-7.07653e-05 -0.381917 0)
(0.000109148 -0.382029 0)
(0.000173818 -0.382089 0)
(5.77528e-05 -0.382127 0)
(-6.9121e-05 -0.382063 0)
(-8.30197e-05 -0.382007 0)
(2.8341e-05 -0.381992 0)
(1.63457e-05 -0.381961 0)
(9.66454e-05 -0.38191 0)
(0.000168803 -0.381908 0)
(9.93957e-05 -0.381851 0)
(-9.6743e-05 -0.381983 0)
(-0.000259144 -0.381965 0)
(-9.85818e-05 -0.382048 0)
(2.50561e-05 -0.382033 0)
(-1.73175e-05 -0.3823 0)
(-1.7144e-05 -0.382385 0)
(-7.76415e-05 -0.382399 0)
(-0.000174071 -0.382428 0)
(-0.000111343 -0.381907 0)
(-6.7608e-05 -0.376168 0)
(-3.92289e-05 -0.373851 0)
(-4.83921e-05 -0.381977 0)
(-0.000125835 -0.381975 0)
(-5.91746e-05 -0.382084 0)
(7.16323e-05 -0.3821 0)
(6.84422e-05 -0.382074 0)
(-3.88902e-05 -0.382008 0)
(-5.18832e-05 -0.382016 0)
(-2.34971e-05 -0.382013 0)
(-3.67202e-05 -0.38193 0)
(2.19933e-05 -0.381892 0)
(2.0906e-05 -0.381961 0)
(-7.43922e-05 -0.382071 0)
(-4.46472e-06 -0.38215 0)
(6.42711e-05 -0.382124 0)
(1.36601e-05 -0.382049 0)
(-2.13435e-05 -0.382035 0)
(-1.26233e-05 -0.382004 0)
(-3.92593e-05 -0.382077 0)
(2.84127e-05 -0.382081 0)
(4.79864e-05 -0.382084 0)
(-0.000102142 -0.382015 0)
(-4.24207e-05 -0.382235 0)
(1.04628e-05 -0.382301 0)
(-6.53431e-05 -0.382303 0)
(-5.8378e-05 -0.382265 0)
(-1.34448e-05 -0.382276 0)
(9.93885e-05 -0.382327 0)
(0.000201255 -0.382174 0)
(9.16994e-05 -0.382282 0)
(-3.33166e-05 -0.382339 0)
(-1.76792e-05 -0.382342 0)
(-1.91715e-06 -0.382294 0)
(-3.18223e-06 -0.382215 0)
(-2.20329e-05 -0.382225 0)
(2.05941e-07 -0.382131 0)
(8.17417e-06 -0.382058 0)
(-1.92337e-05 -0.382036 0)
(-4.70548e-05 -0.382121 0)
(-6.00948e-05 -0.382255 0)
(6.9132e-06 -0.382245 0)
(6.52843e-05 -0.382126 0)
(5.09848e-05 -0.382025 0)
(-3.54321e-05 -0.38203 0)
(-7.65736e-05 -0.382045 0)
(-3.37857e-05 -0.38207 0)
(-2.26818e-05 -0.382134 0)
(4.2669e-05 -0.38213 0)
(3.3392e-05 -0.382081 0)
(-6.97459e-05 -0.381967 0)
(-4.56825e-06 -0.382008 0)
(6.31499e-05 -0.382064 0)
(6.05545e-06 -0.382181 0)
(-7.73522e-06 -0.382307 0)
(6.86948e-05 -0.382523 0)
(0.000105102 -0.382508 0)
(7.64989e-05 -0.382374 0)
(6.09595e-05 -0.382198 0)
(5.03659e-05 -0.382422 0)
(3.64529e-05 -0.382722 0)
(3.07027e-05 -0.38285 0)
(1.76573e-05 -0.382887 0)
(6.00041e-05 -0.382894 0)
(4.87738e-05 -0.382787 0)
(-6.62893e-05 -0.38245 0)
(-6.17824e-05 -0.382311 0)
(-0.000146593 -0.382393 0)
(-0.000210306 -0.382357 0)
(1.46678e-05 -0.382229 0)
(0.000155366 -0.382115 0)
(8.11065e-07 -0.382204 0)
(-8.99877e-05 -0.382268 0)
(-3.05329e-05 -0.382315 0)
(-0.000126855 -0.381746 0)
(-0.000170441 -0.376016 0)
(-6.18644e-05 -0.373828 0)
(-2.99896e-05 -0.381999 0)
(-9.98519e-06 -0.382139 0)
(3.15231e-05 -0.382235 0)
(1.48767e-06 -0.382249 0)
(-5.18846e-05 -0.382079 0)
(-4.52083e-05 -0.382016 0)
(-1.6209e-05 -0.382023 0)
(-4.69221e-05 -0.382041 0)
(-8.60818e-05 -0.382056 0)
(3.32251e-05 -0.38208 0)
(0.000137076 -0.382108 0)
(5.79973e-05 -0.382251 0)
(-1.74852e-06 -0.382334 0)
(-1.68059e-05 -0.382272 0)
(-1.50433e-05 -0.382196 0)
(-5.53445e-05 -0.382183 0)
(-3.20153e-05 -0.38216 0)
(-2.50092e-05 -0.382058 0)
(2.74637e-05 -0.382116 0)
(8.53143e-05 -0.382121 0)
(-2.63701e-06 -0.382295 0)
(5.89297e-05 -0.382316 0)
(3.28108e-05 -0.382381 0)
(-7.53393e-05 -0.382356 0)
(-1.47558e-05 -0.382432 0)
(3.78935e-05 -0.382557 0)
(7.18569e-05 -0.382525 0)
(4.48275e-05 -0.382439 0)
(6.17774e-06 -0.382138 0)
(3.16935e-06 -0.382002 0)
(-6.40496e-05 -0.381997 0)
(-1.77619e-05 -0.382012 0)
(1.96145e-05 -0.382044 0)
(-2.11809e-05 -0.382107 0)
(-4.69936e-06 -0.382173 0)
(-2.41622e-05 -0.382222 0)
(6.53267e-06 -0.382221 0)
(5.48279e-05 -0.382273 0)
(-1.07049e-05 -0.382276 0)
(-0.00012725 -0.38222 0)
(-4.99892e-05 -0.382135 0)
(4.82792e-05 -0.382041 0)
(-4.17447e-05 -0.382039 0)
(-6.95524e-05 -0.38204 0)
(-4.7116e-06 -0.382037 0)
(5.79239e-05 -0.382114 0)
(2.06599e-05 -0.382147 0)
(-6.54676e-05 -0.382109 0)
(-4.82156e-05 -0.382103 0)
(5.12617e-05 -0.382168 0)
(0.000100033 -0.382187 0)
(8.19197e-05 -0.382178 0)
(9.79185e-05 -0.382261 0)
(0.000112965 -0.382207 0)
(1.58452e-05 -0.382145 0)
(-2.85541e-05 -0.382093 0)
(7.3089e-05 -0.382141 0)
(0.00017366 -0.38209 0)
(0.000148068 -0.382028 0)
(4.69769e-05 -0.382015 0)
(9.28789e-05 -0.382092 0)
(6.23721e-05 -0.382136 0)
(-9.83455e-05 -0.382125 0)
(-0.000102964 -0.382253 0)
(-4.21328e-05 -0.382343 0)
(-6.60338e-05 -0.382456 0)
(-0.000207076 -0.3825 0)
(-0.00018544 -0.382482 0)
(1.40838e-05 -0.382197 0)
(-2.22815e-05 -0.381962 0)
(-4.07954e-05 -0.381948 0)
(1.79961e-05 -0.381977 0)
(-9.01175e-05 -0.381425 0)
(-0.000124443 -0.375857 0)
(-4.39376e-05 -0.373767 0)
(7.00819e-05 -0.382112 0)
(9.05205e-05 -0.382167 0)
(5.09619e-05 -0.382218 0)
(-5.28278e-05 -0.382154 0)
(-9.52483e-05 -0.382236 0)
(-6.64474e-05 -0.382203 0)
(-5.58243e-05 -0.382163 0)
(-4.78034e-05 -0.382062 0)
(-1.79326e-06 -0.38219 0)
(5.0523e-05 -0.38225 0)
(0.000110189 -0.382212 0)
(0.000150973 -0.382108 0)
(1.33728e-06 -0.382149 0)
(-0.000105338 -0.382136 0)
(-9.84848e-07 -0.382089 0)
(-1.65046e-05 -0.382185 0)
(-1.44577e-05 -0.382257 0)
(7.22843e-05 -0.382504 0)
(2.8881e-06 -0.38249 0)
(-7.15802e-05 -0.382328 0)
(-5.11117e-05 -0.381882 0)
(5.59033e-05 -0.381877 0)
(0.000117419 -0.38191 0)
(5.57995e-05 -0.382058 0)
(5.43723e-05 -0.382244 0)
(5.82945e-05 -0.382239 0)
(-2.74033e-05 -0.382163 0)
(-0.000112929 -0.381981 0)
(-0.000101413 -0.381995 0)
(-4.99331e-06 -0.382047 0)
(2.38458e-05 -0.382139 0)
(-6.80703e-06 -0.382193 0)
(-2.16882e-05 -0.382149 0)
(4.4951e-05 -0.38212 0)
(4.45515e-05 -0.382147 0)
(4.34569e-06 -0.382216 0)
(7.22422e-06 -0.382187 0)
(-2.19648e-06 -0.382122 0)
(-2.49545e-05 -0.381997 0)
(-2.59838e-05 -0.382235 0)
(-4.77502e-05 -0.38236 0)
(-0.000126399 -0.382309 0)
(-0.000129434 -0.381979 0)
(-6.72828e-05 -0.381951 0)
(2.29148e-05 -0.381974 0)
(9.96732e-05 -0.381975 0)
(3.53704e-05 -0.381993 0)
(-0.000103456 -0.381981 0)
(3.57789e-05 -0.382091 0)
(0.000128493 -0.382138 0)
(5.83665e-05 -0.382169 0)
(0.000111983 -0.382155 0)
(8.01494e-05 -0.382101 0)
(4.38867e-06 -0.382048 0)
(1.28657e-05 -0.381981 0)
(3.63624e-05 -0.382066 0)
(7.32064e-05 -0.382102 0)
(9.90081e-05 -0.382071 0)
(6.70999e-05 -0.381996 0)
(7.79084e-05 -0.381967 0)
(0.000138434 -0.381931 0)
(3.85738e-05 -0.381944 0)
(-7.40587e-05 -0.381941 0)
(-1.97632e-05 -0.381909 0)
(-1.96091e-05 -0.381929 0)
(-3.16281e-05 -0.381885 0)
(-8.45369e-05 -0.382006 0)
(-0.000253906 -0.382065 0)
(-0.000174424 -0.382099 0)
(-5.73634e-06 -0.382151 0)
(-4.38153e-05 -0.382158 0)
(-4.30124e-05 -0.382123 0)
(-3.28292e-06 -0.38142 0)
(-2.3907e-05 -0.375835 0)
(-1.49479e-05 -0.373722 0)
(6.75991e-05 -0.38208 0)
(0.000100197 -0.381973 0)
(1.79632e-05 -0.381945 0)
(-2.25648e-05 -0.381994 0)
(-5.3311e-05 -0.381978 0)
(-7.47424e-05 -0.382046 0)
(-9.33711e-05 -0.382026 0)
(4.92015e-05 -0.382198 0)
(0.000204043 -0.382385 0)
(4.40059e-05 -0.382532 0)
(-8.37296e-05 -0.382368 0)
(2.38505e-05 -0.382099 0)
(-1.2473e-05 -0.381972 0)
(-7.86169e-05 -0.381982 0)
(2.33954e-05 -0.382046 0)
(9.17004e-05 -0.382146 0)
(5.25784e-05 -0.382185 0)
(5.86919e-05 -0.382054 0)
(-3.52869e-05 -0.381989 0)
(-0.000152947 -0.382019 0)
(-3.05784e-05 -0.382398 0)
(5.49459e-05 -0.382469 0)
(-1.08236e-06 -0.38229 0)
(5.53488e-06 -0.381928 0)
(0.00014491 -0.381853 0)
(4.3893e-05 -0.381886 0)
(-0.000108412 -0.38193 0)
(-6.32291e-05 -0.382006 0)
(-2.28997e-05 -0.382148 0)
(1.09034e-05 -0.382186 0)
(1.90265e-05 -0.382129 0)
(-1.10983e-05 -0.382031 0)
(-8.65275e-06 -0.382112 0)
(4.74909e-05 -0.382137 0)
(-1.47055e-05 -0.382074 0)
(2.95994e-06 -0.381931 0)
(3.3138e-05 -0.381985 0)
(-5.1413e-05 -0.382017 0)
(-5.41762e-05 -0.382047 0)
(9.63038e-05 -0.381982 0)
(1.07301e-05 -0.381984 0)
(-0.000226964 -0.381989 0)
(-0.000131177 -0.382196 0)
(2.22478e-05 -0.382347 0)
(3.4493e-05 -0.382428 0)
(-4.41076e-06 -0.382311 0)
(2.92675e-06 -0.382168 0)
(5.30359e-06 -0.382246 0)
(5.57097e-05 -0.382284 0)
(4.53163e-05 -0.382184 0)
(2.10938e-05 -0.381994 0)
(0.000133167 -0.382004 0)
(8.13207e-05 -0.382096 0)
(-4.46173e-05 -0.3821 0)
(9.87813e-06 -0.382115 0)
(8.28537e-05 -0.38205 0)
(8.24386e-05 -0.382084 0)
(7.27491e-05 -0.382094 0)
(5.97266e-05 -0.38215 0)
(5.98066e-05 -0.382143 0)
(6.53725e-05 -0.382091 0)
(1.43132e-05 -0.381983 0)
(-4.35273e-05 -0.38197 0)
(-2.85952e-06 -0.382074 0)
(-1.42579e-05 -0.382082 0)
(-5.94479e-05 -0.38206 0)
(4.0398e-05 -0.382094 0)
(-1.48416e-05 -0.382384 0)
(-0.000153072 -0.382594 0)
(-0.000123181 -0.38245 0)
(-0.000136694 -0.382228 0)
(-0.000109213 -0.382119 0)
(1.55989e-05 -0.381532 0)
(3.99974e-05 -0.375839 0)
(7.48948e-06 -0.373711 0)
(-1.20409e-05 -0.382119 0)
(6.77099e-05 -0.382104 0)
(7.24329e-05 -0.38214 0)
(2.55482e-05 -0.382209 0)
(-2.47434e-05 -0.382304 0)
(-6.62399e-05 -0.382248 0)
(-2.54737e-05 -0.382391 0)
(0.000110034 -0.382295 0)
(0.00014042 -0.382143 0)
(-5.12612e-06 -0.381893 0)
(-0.000153561 -0.381907 0)
(-8.72078e-05 -0.381996 0)
(-3.94088e-05 -0.381989 0)
(-5.64836e-05 -0.38198 0)
(6.87086e-05 -0.381983 0)
(0.000153649 -0.381986 0)
(6.70919e-05 -0.382028 0)
(4.02468e-06 -0.38211 0)
(-2.60564e-05 -0.382153 0)
(1.09876e-05 -0.382267 0)
(0.000148882 -0.382253 0)
(-1.90344e-05 -0.382276 0)
(-0.000189064 -0.382228 0)
(-5.41276e-05 -0.382267 0)
(8.15763e-05 -0.382265 0)
(5.00572e-05 -0.382207 0)
(-6.94761e-05 -0.38215 0)
(-0.000101435 -0.382091 0)
(2.02343e-05 -0.381978 0)
(4.73119e-05 -0.381994 0)
(-7.07046e-05 -0.382001 0)
(-3.99567e-05 -0.381992 0)
(7.96722e-05 -0.381974 0)
(3.1467e-05 -0.381993 0)
(-0.000151494 -0.381923 0)
(3.17029e-06 -0.381951 0)
(0.000156032 -0.381992 0)
(-2.6636e-05 -0.382064 0)
(1.34764e-05 -0.382229 0)
(2.73925e-05 -0.38219 0)
(-7.0639e-05 -0.382171 0)
(-4.50635e-05 -0.382123 0)
(1.55772e-06 -0.382284 0)
(2.29079e-05 -0.382286 0)
(-5.66106e-05 -0.382115 0)
(-0.000140855 -0.381966 0)
(-4.16205e-06 -0.381997 0)
(0.000182496 -0.382088 0)
(1.86048e-05 -0.382147 0)
(-2.90946e-05 -0.382245 0)
(9.87158e-05 -0.382326 0)
(5.65369e-05 -0.382343 0)
(3.04733e-06 -0.382124 0)
(1.29058e-05 -0.382091 0)
(1.48967e-05 -0.382126 0)
(4.64755e-05 -0.382179 0)
(8.64115e-05 -0.382086 0)
(6.24262e-05 -0.382076 0)
(4.6724e-05 -0.382008 0)
(3.63393e-05 -0.381985 0)
(3.52414e-05 -0.381976 0)
(9.25426e-06 -0.382022 0)
(2.69716e-05 -0.382139 0)
(5.85703e-05 -0.382139 0)
(2.32435e-05 -0.382256 0)
(1.5558e-05 -0.382379 0)
(4.42038e-05 -0.382405 0)
(6.89908e-06 -0.382191 0)
(-0.000146141 -0.381963 0)
(-0.000265004 -0.381966 0)
(-0.000146069 -0.382088 0)
(-8.10389e-06 -0.382246 0)
(-4.3826e-06 -0.381698 0)
(2.67953e-06 -0.375972 0)
(1.94041e-06 -0.373712 0)
(-2.1866e-05 -0.382112 0)
(-2.10651e-05 -0.382086 0)
(0.000143866 -0.381999 0)
(8.22856e-05 -0.382044 0)
(4.46485e-06 -0.382066 0)
(-8.23647e-06 -0.382181 0)
(-3.95261e-05 -0.382108 0)
(-1.1493e-05 -0.382074 0)
(-4.3802e-05 -0.381891 0)
(-1.63951e-05 -0.381972 0)
(1.27659e-05 -0.382102 0)
(-3.70595e-05 -0.382205 0)
(-4.49104e-05 -0.382292 0)
(-5.45704e-05 -0.382277 0)
(1.54503e-05 -0.38225 0)
(9.27286e-05 -0.382103 0)
(6.44373e-05 -0.382004 0)
(6.75233e-05 -0.381983 0)
(5.4044e-05 -0.382088 0)
(6.39219e-05 -0.382113 0)
(8.09341e-05 -0.38209 0)
(-8.94562e-05 -0.381969 0)
(-0.000149862 -0.381941 0)
(2.87099e-05 -0.382061 0)
(6.62822e-05 -0.382103 0)
(-3.69045e-06 -0.382117 0)
(-9.29489e-05 -0.38205 0)
(-0.000141451 -0.382096 0)
(1.85788e-05 -0.382155 0)
(7.63701e-05 -0.382163 0)
(-3.56059e-05 -0.382195 0)
(-1.27095e-05 -0.382309 0)
(4.89287e-05 -0.382298 0)
(1.49677e-05 -0.382227 0)
(-5.31153e-05 -0.38239 0)
(2.15967e-05 -0.382498 0)
(0.000101821 -0.382407 0)
(2.72946e-05 -0.382285 0)
(7.80897e-05 -0.382291 0)
(3.66527e-06 -0.382405 0)
(-0.000146794 -0.382263 0)
(-0.000111886 -0.382172 0)
(-5.57109e-07 -0.381965 0)
(1.07943e-05 -0.381945 0)
(-0.00010671 -0.382026 0)
(-7.11846e-05 -0.382241 0)
(5.88629e-05 -0.382302 0)
(0.000137901 -0.382246 0)
(9.38838e-05 -0.382239 0)
(6.42343e-05 -0.38228 0)
(5.89304e-05 -0.382272 0)
(-6.36664e-05 -0.382058 0)
(-8.47597e-05 -0.382093 0)
(8.71816e-05 -0.382142 0)
(0.000104968 -0.382242 0)
(3.05102e-07 -0.382228 0)
(1.28433e-05 -0.382211 0)
(3.73606e-05 -0.382105 0)
(4.20718e-05 -0.382161 0)
(1.09343e-05 -0.382156 0)
(3.63653e-05 -0.382145 0)
(8.33498e-05 -0.38215 0)
(8.27267e-05 -0.382175 0)
(4.3498e-05 -0.382221 0)
(2.6378e-05 -0.382095 0)
(6.03671e-05 -0.382024 0)
(-3.65012e-05 -0.38194 0)
(-0.000128362 -0.381962 0)
(-0.000142927 -0.382035 0)
(-0.000201654 -0.382105 0)
(-0.000148321 -0.382039 0)
(4.70941e-05 -0.381997 0)
(7.70865e-05 -0.381367 0)
(-8.28241e-06 -0.375837 0)
(-1.06517e-05 -0.373731 0)
(4.03078e-05 -0.382388 0)
(-1.39262e-05 -0.382456 0)
(1.95159e-05 -0.382426 0)
(-1.36335e-05 -0.382157 0)
(1.76541e-05 -0.382043 0)
(8.37996e-05 -0.382048 0)
(1.78397e-05 -0.382264 0)
(-5.95078e-05 -0.382328 0)
(-4.86834e-05 -0.382459 0)
(-3.19894e-05 -0.382304 0)
(-3.46911e-05 -0.382177 0)
(-3.49384e-05 -0.381972 0)
(-1.52723e-06 -0.381961 0)
(1.56017e-08 -0.382077 0)
(-4.58802e-05 -0.382095 0)
(-1.37098e-05 -0.382079 0)
(1.80008e-05 -0.381997 0)
(4.44379e-05 -0.38195 0)
(0.000111517 -0.381926 0)
(0.000108492 -0.381966 0)
(5.56643e-05 -0.382015 0)
(-1.38588e-06 -0.382193 0)
(-4.33194e-05 -0.382416 0)
(-2.19656e-05 -0.382372 0)
(-3.32904e-05 -0.382188 0)
(-1.95522e-05 -0.382012 0)
(1.73859e-05 -0.382184 0)
(8.37594e-06 -0.382432 0)
(-2.71987e-05 -0.382459 0)
(-4.84271e-05 -0.382285 0)
(1.29122e-06 -0.382139 0)
(1.9328e-05 -0.382118 0)
(-2.81237e-05 -0.382091 0)
(3.9169e-05 -0.382067 0)
(0.00018278 -0.382225 0)
(3.27749e-05 -0.382323 0)
(-0.000101342 -0.382262 0)
(5.90666e-05 -0.382153 0)
(3.67438e-05 -0.382136 0)
(-7.67874e-05 -0.382005 0)
(-9.03356e-05 -0.382005 0)
(-0.000104119 -0.382224 0)
(-7.80521e-05 -0.382323 0)
(-3.95059e-05 -0.382267 0)
(-2.89202e-05 -0.382126 0)
(8.9829e-05 -0.38224 0)
(0.000137866 -0.382393 0)
(4.36529e-05 -0.382418 0)
(2.56408e-05 -0.382266 0)
(2.02414e-05 -0.382129 0)
(1.28354e-05 -0.382034 0)
(4.07898e-07 -0.382237 0)
(3.9878e-05 -0.382439 0)
(3.24587e-05 -0.382431 0)
(-5.07151e-06 -0.382217 0)
(-1.99778e-05 -0.382023 0)
(-2.31903e-05 -0.382028 0)
(2.09774e-05 -0.382061 0)
(7.28972e-05 -0.382034 0)
(5.88327e-05 -0.382124 0)
(2.21411e-05 -0.38216 0)
(5.55119e-05 -0.382122 0)
(3.91905e-05 -0.381993 0)
(6.80204e-06 -0.381921 0)
(-2.06464e-05 -0.381911 0)
(-1.71165e-05 -0.381888 0)
(2.83978e-06 -0.38194 0)
(-3.96235e-05 -0.382019 0)
(-8.71073e-05 -0.382086 0)
(-0.000133398 -0.382154 0)
(-0.000150153 -0.382301 0)
(-1.7289e-05 -0.38231 0)
(9.27539e-05 -0.3816 0)
(4.32576e-05 -0.375834 0)
(5.21568e-06 -0.373699 0)
(8.55154e-05 -0.381923 0)
(6.84335e-05 -0.381972 0)
(-3.74303e-05 -0.382029 0)
(-5.83466e-05 -0.38219 0)
(-1.05853e-05 -0.382223 0)
(3.38957e-05 -0.382142 0)
(7.41264e-05 -0.381962 0)
(-3.19946e-05 -0.381932 0)
(-3.80795e-05 -0.381915 0)
(-5.38823e-05 -0.38198 0)
(-0.000203391 -0.381946 0)
(-7.15068e-05 -0.38197 0)
(6.53068e-05 -0.381959 0)
(-7.86846e-06 -0.381929 0)
(-4.53866e-05 -0.381934 0)
(1.51359e-05 -0.381954 0)
(-1.0886e-05 -0.381987 0)
(9.17627e-05 -0.382143 0)
(0.000213206 -0.382258 0)
(6.48697e-05 -0.382293 0)
(2.53902e-05 -0.382172 0)
(8.48215e-05 -0.382023 0)
(1.57115e-05 -0.381962 0)
(-3.95946e-05 -0.382082 0)
(-3.69122e-05 -0.382234 0)
(-5.27255e-05 -0.382316 0)
(2.56664e-05 -0.382167 0)
(5.40973e-05 -0.381955 0)
(-7.36664e-05 -0.381966 0)
(-0.000113659 -0.381991 0)
(-5.27634e-05 -0.381996 0)
(-1.20663e-05 -0.381968 0)
(4.56961e-05 -0.382064 0)
(0.000107651 -0.382156 0)
(0.00015305 -0.382081 0)
(1.27203e-05 -0.381959 0)
(-0.000101482 -0.381966 0)
(2.74234e-05 -0.382013 0)
(-1.37734e-05 -0.381997 0)
(-8.15344e-05 -0.382062 0)
(-9.17233e-06 -0.382137 0)
(-6.3151e-06 -0.382085 0)
(-4.09888e-05 -0.382147 0)
(-7.31594e-05 -0.382164 0)
(6.27318e-05 -0.382411 0)
(0.000162544 -0.382412 0)
(6.18783e-05 -0.382333 0)
(2.1597e-05 -0.382131 0)
(-5.60201e-06 -0.382248 0)
(-4.83408e-05 -0.382323 0)
(-3.55854e-05 -0.382267 0)
(1.91836e-05 -0.382004 0)
(8.81708e-05 -0.381931 0)
(-1.24673e-05 -0.381931 0)
(-0.00012446 -0.381964 0)
(-3.6658e-05 -0.382018 0)
(2.37188e-05 -0.382045 0)
(2.39173e-06 -0.382038 0)
(3.26586e-05 -0.382008 0)
(0.000122018 -0.381976 0)
(6.76147e-05 -0.382003 0)
(-3.96248e-05 -0.382002 0)
(-1.32055e-05 -0.382007 0)
(-2.25474e-05 -0.381955 0)
(-7.77258e-05 -0.381913 0)
(6.00668e-06 -0.381902 0)
(0.000100808 -0.381961 0)
(4.90909e-05 -0.382059 0)
(-3.0266e-05 -0.382132 0)
(-6.82494e-05 -0.382171 0)
(-3.35886e-05 -0.382303 0)
(-7.05438e-05 -0.382287 0)
(-4.25642e-05 -0.381603 0)
(6.42379e-05 -0.375836 0)
(3.09077e-05 -0.373723 0)
(5.68575e-05 -0.382206 0)
(0.000102025 -0.382148 0)
(-1.13683e-05 -0.382155 0)
(-1.95967e-05 -0.38205 0)
(-5.24118e-05 -0.382014 0)
(-4.64702e-05 -0.382002 0)
(1.45933e-05 -0.381981 0)
(2.12627e-05 -0.38209 0)
(1.91716e-05 -0.382141 0)
(-5.68313e-05 -0.382176 0)
(-0.000124989 -0.382264 0)
(-8.39464e-05 -0.38231 0)
(-3.49381e-06 -0.382249 0)
(6.29031e-05 -0.382264 0)
(3.57066e-05 -0.382425 0)
(3.83296e-07 -0.382464 0)
(8.39042e-05 -0.382529 0)
(0.000129951 -0.382471 0)
(0.000101088 -0.382333 0)
(2.26958e-05 -0.382094 0)
(-1.53643e-05 -0.382149 0)
(3.09147e-05 -0.382189 0)
(5.38608e-05 -0.382254 0)
(3.51775e-05 -0.382263 0)
(-8.01955e-06 -0.382202 0)
(-6.26299e-05 -0.382121 0)
(-5.45931e-05 -0.382177 0)
(-3.09183e-05 -0.382248 0)
(-6.84925e-05 -0.382159 0)
(-8.54973e-05 -0.382144 0)
(-7.87242e-05 -0.382122 0)
(3.21228e-05 -0.38224 0)
(0.000110495 -0.382205 0)
(4.11618e-05 -0.382122 0)
(9.3602e-06 -0.381966 0)
(-1.83691e-05 -0.381949 0)
(-1.52916e-05 -0.381968 0)
(4.30206e-05 -0.382015 0)
(5.13495e-05 -0.38214 0)
(4.64478e-05 -0.382266 0)
(5.11996e-06 -0.382313 0)
(-2.08004e-05 -0.382384 0)
(1.35486e-05 -0.382354 0)
(-2.43013e-06 -0.382473 0)
(5.19963e-05 -0.382259 0)
(-1.09975e-05 -0.382101 0)
(-7.99981e-05 -0.381882 0)
(4.91066e-05 -0.381908 0)
(0.000104383 -0.381974 0)
(-3.57344e-05 -0.382004 0)
(-0.000117719 -0.382008 0)
(-3.51388e-06 -0.382136 0)
(2.9421e-05 -0.382145 0)
(-4.31777e-05 -0.38209 0)
(-0.000119338 -0.381964 0)
(-1.18475e-05 -0.381998 0)
(0.000106991 -0.38204 0)
(6.60166e-05 -0.382205 0)
(5.09864e-05 -0.382329 0)
(5.45131e-05 -0.382305 0)
(3.01874e-05 -0.382178 0)
(5.76091e-06 -0.382175 0)
(-4.37016e-06 -0.382221 0)
(-1.74383e-05 -0.3823 0)
(-7.2796e-06 -0.382414 0)
(2.14358e-05 -0.382523 0)
(2.85426e-05 -0.382403 0)
(2.18824e-05 -0.382186 0)
(2.87997e-05 -0.382127 0)
(6.3419e-05 -0.382307 0)
(3.70833e-05 -0.382382 0)
(-7.93393e-05 -0.382532 0)
(-0.000108185 -0.381802 0)
(-4.07961e-05 -0.376061 0)
(-4.47829e-06 -0.373694 0)
(-1.77659e-05 -0.382426 0)
(-4.19594e-05 -0.38225 0)
(-8.22975e-05 -0.382015 0)
(-2.82236e-05 -0.382033 0)
(-2.1827e-06 -0.382153 0)
(-3.39328e-05 -0.38219 0)
(-1.05278e-05 -0.382221 0)
(6.19967e-05 -0.382119 0)
(2.11724e-05 -0.382116 0)
(-6.53707e-05 -0.38205 0)
(8.30495e-06 -0.382117 0)
(1.68148e-06 -0.382275 0)
(-6.87307e-05 -0.382373 0)
(7.61568e-05 -0.382287 0)
(0.00011784 -0.38223 0)
(1.07766e-05 -0.382275 0)
(8.08344e-05 -0.382246 0)
(-3.05854e-05 -0.382085 0)
(-8.47833e-05 -0.38196 0)
(8.28866e-05 -0.381995 0)
(1.00549e-05 -0.38204 0)
(-1.17127e-05 -0.381998 0)
(9.88352e-05 -0.381943 0)
(4.35891e-06 -0.381928 0)
(-8.11003e-05 -0.381916 0)
(8.99878e-06 -0.381971 0)
(-9.52051e-06 -0.382019 0)
(-6.84215e-05 -0.381984 0)
(-8.30631e-05 -0.382007 0)
(-5.24077e-05 -0.382032 0)
(5.04265e-05 -0.382237 0)
(9.68e-05 -0.382305 0)
(1.31928e-05 -0.382327 0)
(-7.57623e-05 -0.382164 0)
(-0.000102805 -0.38209 0)
(-7.13494e-05 -0.381954 0)
(2.5015e-05 -0.38193 0)
(9.43993e-05 -0.381953 0)
(0.000120751 -0.381962 0)
(8.85879e-05 -0.381948 0)
(4.39414e-06 -0.381948 0)
(2.75884e-05 -0.38193 0)
(-4.69224e-06 -0.381944 0)
(-1.22523e-05 -0.381882 0)
(3.45878e-05 -0.381962 0)
(-4.27149e-05 -0.382182 0)
(-0.000110465 -0.382252 0)
(-1.55868e-05 -0.382198 0)
(8.40292e-05 -0.381971 0)
(-3.81383e-05 -0.381976 0)
(-7.56994e-05 -0.381989 0)
(5.35599e-05 -0.381976 0)
(1.83882e-05 -0.381989 0)
(-5.10359e-05 -0.382047 0)
(-2.07228e-05 -0.382258 0)
(-9.84119e-07 -0.382327 0)
(3.82177e-05 -0.382244 0)
(9.01848e-05 -0.382003 0)
(9.27846e-05 -0.381971 0)
(1.02851e-05 -0.381994 0)
(-6.73594e-06 -0.382025 0)
(4.39654e-05 -0.382035 0)
(8.07716e-06 -0.382031 0)
(-2.94535e-05 -0.381959 0)
(4.54235e-05 -0.3819 0)
(5.13291e-05 -0.381871 0)
(-3.10346e-05 -0.381959 0)
(-1.84237e-05 -0.382059 0)
(5.2957e-05 -0.38209 0)
(0.000112134 -0.382003 0)
(5.43359e-05 -0.381994 0)
(-2.29663e-05 -0.381989 0)
(-8.83365e-05 -0.38146 0)
(-0.000122678 -0.375815 0)
(-4.14253e-05 -0.373712 0)
(-8.19792e-05 -0.38197 0)
(-0.00016323 -0.382008 0)
(-0.000110811 -0.382017 0)
(-9.69678e-06 -0.382049 0)
(7.77571e-05 -0.38201 0)
(-6.27698e-05 -0.382002 0)
(-7.58418e-05 -0.381918 0)
(7.72493e-05 -0.381954 0)
(5.40013e-05 -0.38201 0)
(-8.94846e-05 -0.382037 0)
(-2.22695e-05 -0.381958 0)
(0.000130692 -0.381932 0)
(6.06897e-05 -0.38205 0)
(-6.01001e-05 -0.382096 0)
(3.56218e-05 -0.382023 0)
(0.000118424 -0.381938 0)
(3.31992e-05 -0.382004 0)
(-1.87672e-05 -0.382229 0)
(-2.51459e-05 -0.382336 0)
(-2.88506e-05 -0.38228 0)
(-9.55246e-05 -0.381999 0)
(-1.89782e-05 -0.381966 0)
(7.34371e-05 -0.381943 0)
(-4.67561e-05 -0.381921 0)
(-3.0767e-05 -0.381921 0)
(7.20583e-05 -0.381958 0)
(4.04873e-05 -0.382044 0)
(-1.92005e-06 -0.382181 0)
(3.88506e-07 -0.382329 0)
(2.48505e-05 -0.382442 0)
(8.43827e-05 -0.382374 0)
(1.01865e-05 -0.382234 0)
(-7.76242e-05 -0.382074 0)
(-9.02184e-05 -0.382053 0)
(-0.000122122 -0.382147 0)
(-7.21495e-05 -0.382255 0)
(-4.64006e-05 -0.382205 0)
(3.15829e-05 -0.382062 0)
(0.000110272 -0.381944 0)
(6.03648e-05 -0.381947 0)
(2.84593e-05 -0.381946 0)
(2.13385e-05 -0.381952 0)
(-5.7576e-05 -0.381911 0)
(-3.43806e-05 -0.381878 0)
(0.000133834 -0.381908 0)
(0.000173533 -0.381958 0)
(-8.44065e-06 -0.382232 0)
(-0.000120314 -0.382296 0)
(-3.53581e-05 -0.382274 0)
(-2.56407e-06 -0.382175 0)
(-1.84206e-05 -0.382281 0)
(9.65319e-06 -0.382295 0)
(1.95107e-05 -0.382264 0)
(-8.27241e-06 -0.382197 0)
(-2.02044e-05 -0.382074 0)
(-2.85712e-05 -0.381981 0)
(-4.65013e-05 -0.381937 0)
(2.68426e-05 -0.382011 0)
(8.48032e-05 -0.381993 0)
(4.44299e-05 -0.382001 0)
(3.25043e-05 -0.382028 0)
(3.21945e-05 -0.382045 0)
(8.83695e-06 -0.382052 0)
(-2.36128e-05 -0.382119 0)