/*--------------------------------*- C++ -*----------------------------------*\
  =========                 |
  \\      /  F ield         | OpenFOAM: The Open Source CFD Toolbox
   \\    /   O peration     | Website:  https://openfoam.org
    \\  /    A nd           | Version:  12
     \\/     M anipulation  |
\*---------------------------------------------------------------------------*/
FoamFile
{
    format      ascii;
    class       IOPosition;
    location    "0.45/lagrangian/cloud";
    object      positions;
}
// * * * * * * * * * * * * * * * * * * * * * * * * * * * * * * * * * * * * * //

4830
(
(2.32832e-07 0.5 0.5 3.45203e-09) 0 7376 2
(2.33006e-07 0.5 0.5 3.37902e-09) 0 7376 2
(2.3317e-07 0.5 0.000214487 0.499785) 0 7376 2
(2.33327e-07 0.5 0.020661 0.479339) 0 7376 2
(2.33475e-07 0.5 0.0397248 0.460275) 0 7376 2
(0.0852475 0.457376 0.417921 0.0394553) 0 7375 1
(0.073143 0.463429 0.443773 0.0196558) 0 7375 1
(0.0919657 0.454017 0.3516 0.102417) 0 7375 1
(0.0923745 0.453813 0.317827 0.135985) 0 7375 1
(0.0964258 0.451787 0.311132 0.140655) 0 7375 1
(0.355194 0.125645 0.322403 0.196758) 0 7375 2
(0.529976 0.235012 0.203741 0.0312708) 0 0 1
(0.210065 0.282328 0.394967 0.11264) 0 7375 2
(0.576948 0.211526 0.198351 0.0131749) 1 7377 1
(0.703329 0.148336 0.125151 0.0231844) 1 2 1
(0.685719 0.157141 0.063591 0.0935497) 2 5 2
(0.40687 0.174157 0.296565 0.122409) 3 6 2
(0.419854 0.105789 0.290073 0.184285) 4 7380 2
(0.505259 0.154374 0.247371 0.0929969) 5 7381 2
(0.481798 0.259101 0.0171443 0.241957) 6 7382 1
(0.528715 0.140892 0.09475 0.235642) 7 15 1
(0.0562076 0.109208 0.471896 0.362688) 8 16 2
(0.198639 0.0646194 0.336061 0.40068) 10 18 2
(0.412741 0.29363 0.186862 0.106767) 11 23 2
(0.380383 0.309808 0.047828 0.26198) 12 25 2
(0.168628 0.415686 0.270672 0.145014) 12 24 1
(0.592016 0.0097017 0.203992 0.19429) 13 7389 2
(0.458199 0.220392 0.2709 0.0505084) 14 7390 2
(0.513595 0.176009 0.243203 0.0671937) 15 30 2
(0.193875 0.403063 0.296648 0.106415) 16 32 1
(0.60668 0.19666 0.0694479 0.127212) 18 36 1
(0.182504 0.0825058 0.408748 0.326242) 19 38 2
(0.382556 0.308722 0.14493 0.163793) 21 43 2
(0.310092 0.344954 0.0811035 0.26385) 22 42 1
(0.14055 0.118686 0.429725 0.311039) 22 44 2
(0.460441 0.074315 0.195464 0.269779) 23 47 1
(0.703294 0.148353 0.11035 0.0380031) 24 49 2
(0.211705 0.394148 0.0843834 0.309764) 25 48 1
(0.098024 0.450988 0.254476 0.196512) 25 50 1
(0.321482 0.339259 0.21085 0.128409) 27 7403 1
(0.405077 0.297461 0.24826 0.0492009) 28 56 1
(0.546212 0.0421963 0.226894 0.184698) 29 7405 2
(0.571719 0.214141 0.0034558 0.210685) 30 7406 1
(0.44533 0.277335 0.15091 0.126425) 31 7407 1
(0.507545 0.246228 0.0610534 0.185174) 32 7408 1
(0.425232 0.287384 0.235282 0.0521024) 33 66 1
(0.332828 0.260896 0.0726903 0.333586) 35 68 2
(0.308632 0.345684 0.0599671 0.285717) 37 75 2
(0.688437 0.155781 0.155729 5.23092e-05) 38 77 2
(0.322707 0.338647 0.0490478 0.289599) 39 76 1
(0.0560497 0.471975 0.259735 0.21224) 40 78 1
(0.348089 0.151753 0.174202 0.325955) 42 85 1
(0.184652 0.206782 0.407674 0.200892) 118 87 1
(0.634697 0.0468661 0.182651 0.135785) 119 89 1
(0.055936 0.472032 0.165804 0.306228) 45 91 2
(0.784718 0.0506198 0.0570214 0.107641) 120 237 2
(0.698318 0.150841 0.00231761 0.148523) 45 88 1
(0.256883 0.371559 0.0955416 0.276017) 45 90 1
(0.667087 0.166457 0.0932284 0.0732284) 46 90 1
(0.319182 0.340409 0.19224 0.148169) 46 92 1
(0.164336 0.417832 0.0592911 0.358541) 48 97 2
(0.242184 0.127959 0.250949 0.378908) 49 99 1
(0.0875162 0.0839093 0.456242 0.372333) 50 100 2
(0.119661 0.0572801 0.382889 0.44017) 52 102 2
(0.229443 0.385279 0.057888 0.327391) 53 107 2
(0.271566 0.364217 0.0534633 0.310753) 54 109 2
(0.0678925 0.199869 0.266185 0.466054) 55 108 2
(0.482991 0.258505 0.186192 0.0723131) 55 110 1
(0.732463 0.133768 0.0203232 0.113445) 56 7432 1
(0.234607 0.382696 0.238521 0.144175) 57 112 1
(0.379485 0.310257 0.232027 0.0782307) 57 114 1
(0.281612 0.224786 0.134408 0.359194) 58 117 1
(0.681876 0.159062 0.047415 0.111647) 59 7435 1
(0.238223 0.345874 0.0350143 0.380889) 60 121 1
(0.261358 0.369321 0.285657 0.0836637) 61 123 2
(2.33592e-07 0.499999 6.9752e-07 0.5) 75 7451 1
(2.33684e-07 0.499999 6.99353e-07 0.5) 75 7451 1
(8.85127e-08 0.5 0.0449833 0.455017) 0 7376 2
(9.60817e-08 0.234358 0.265642 0.5) 0 7376 1
(0.226246 0.386877 0.00363118 0.383246) 0 7375 1
(0.416213 0.291893 0.0507914 0.241102) 0 0 1
(0.278988 0.360506 0.0106108 0.349895) 0 0 1
(0.758883 0.120559 0.10748 0.0130785) 0 0 1
(0.158986 0.420507 0.221116 0.199391) 75 1 2
(0.2838 0.355496 0.3581 0.00260348) 0 0 2
(0.132067 0.433966 0.0290657 0.404901) 0 1 2
(0.293777 0.353111 0.303357 0.0497548) 75 149 1
(0.197822 0.401089 0.377584 0.023505) 75 149 1
(0.178812 0.410594 0.318225 0.0923695) 75 149 1
(0.179387 0.410307 0.357143 0.0531633) 0 0 1
(0.131904 0.434048 0.358072 0.0759758) 75 149 1
(0.106589 0.446706 0.393684 0.0530214) 75 149 1
(0.53208 0.23396 0.198671 0.0352891) 76 149 1
(0.125357 0.144027 0.437322 0.293295) 77 5 1
(0.150844 0.424578 0.153521 0.271057) 79 9 2
(0.203057 0.398471 0.0258218 0.372649) 80 157 1
(0.050706 0.0545754 0.474647 0.420072) 80 11 1
(0.211549 0.1947 0.199525 0.394225) 81 159 2
(0.543943 0.0509363 0.228028 0.177092) 81 161 2
(0.735922 0.132039 0.103349 0.0286899) 82 164 2
(0.361231 0.0454228 0.319384 0.273962) 85 21 1
(0.427753 0.270598 0.286123 0.0155259) 87 25 1
(0.312263 0.343868 0.0687848 0.275083) 88 27 2
(0.268739 0.36563 0.108008 0.257622) 89 29 2
(0.185094 0.308627 0.407453 0.0988258) 90 31 1
(0.0929536 0.453523 0.147207 0.306316) 17 35 2
(0.208553 0.395723 0.010599 0.385124) 90 180 2
(0.587932 0.206034 0.110204 0.0958298) 164 324 1
(0.0904071 0.120788 0.334009 0.454796) 91 179 2
(0.471312 0.0999514 0.164392 0.264344) 91 182 1
(0.340319 0.0410716 0.288769 0.329841) 92 181 2
(0.349843 0.325079 0.179141 0.145938) 95 41 2
(0.488908 0.231877 0.255546 0.0236693) 97 45 1
(0.325606 0.337197 0.317961 0.0192356) 99 49 2
(0.420343 0.0739314 0.289829 0.215897) 99 49 1
(0.264887 0.367557 0.204562 0.162994) 100 51 2
(0.634897 0.182552 0.0319824 0.150569) 100 51 2
(0.224871 0.300137 0.0874268 0.387564) 100 200 1
(0.226341 0.219108 0.167721 0.38683) 101 199 2
(0.843737 0.00414418 0.0781313 0.0739872) 101 53 1
(0.0800962 0.459952 0.0454602 0.414492) 106 209 1
(0.0735931 0.463203 0.0915705 0.371633) 33 67 2
(0.209734 0.395133 0.00661885 0.388514) 109 215 1
(0.240283 0.379858 0.319131 0.0607274) 110 71 2
(0.491472 0.206522 0.254264 0.0477421) 112 75 1
(0.0334444 0.483278 0.20989 0.273388) 114 79 2
(0.0973304 0.180583 0.270752 0.451335) 112 224 1
(0.18358 0.337135 0.0710747 0.40821) 113 226 1
(0.373977 0.313011 0.226776 0.0862349) 114 228 2
(0.120311 0.239803 0.200042 0.439845) 115 227 2
(0.419538 0.15336 0.290231 0.136871) 115 229 2
(0.295957 0.352022 0.285441 0.0665806) 116 232 2
(0.323373 0.338314 0.177061 0.161253) 194 238 2
(0.0845049 0.121727 0.457748 0.336021) 195 240 1
(0.431117 0.284442 0.0611638 0.223278) 121 242 2
(0.692108 0.153946 0.0161034 0.137843) 121 241 1
(0.422905 0.288547 0.136493 0.152054) 122 241 1
(0.161396 0.0635297 0.419302 0.355772) 195 388 2
(0.366536 0.316732 0.0141849 0.302547) 196 390 1
(0.439138 0.280431 0.00205447 0.278376) 197 244 2
(0.200235 0.399883 0.316503 0.0833801) 198 246 2
(0.0308441 0.0169684 0.484578 0.46761) 123 245 2
(0.21737 0.0378734 0.353442 0.391315) 124 248 1
(0.221881 0.0727155 0.316344 0.38906) 125 250 1
(0.231387 0.384306 0.0785289 0.305777) 128 256 2
(0.385914 0.307043 0.135205 0.171837) 129 258 2
(0.520802 0.0281079 0.239599 0.211491) 130 111 1
(0.101287 0.0553994 0.449357 0.393957) 130 259 2
(0.235582 0.378954 0.382209 0.00325505) 205 260 1
(0.161044 0.215715 0.419478 0.203763) 206 262 1
(2.32832e-07 0.5 0.5 6.77796e-09) 150 7452 2
(2.33005e-07 0.5 0.5 6.45739e-09) 150 7452 2
(4.14804e-08 0.5 0.0745746 0.425425) 75 7451 2
(2.3317e-07 0.5 0.14379 0.35621) 150 7452 2
(0.147349 0.426326 0.370294 0.0560312) 75 149 1
(0.151331 0.424334 0.305635 0.118699) 75 149 1
(0.0124754 0.493762 0.201868 0.291894) 75 7451 2
(0.445931 0.277034 0.051205 0.225829) 75 1 2
(0.188042 0.405979 0.321116 0.0848635) 75 149 1
(0.450364 0.2669 0.274818 0.00791809) 75 1 1
(0.354531 0.322735 0.301382 0.0213521) 75 149 1
(0.24109 0.131074 0.379455 0.248381) 75 1 1
(0.29531 0.352345 0.231352 0.120993) 75 149 1
(0.182069 0.229207 0.408966 0.179759) 150 150 1
(0.196624 0.116664 0.401688 0.285024) 150 150 1
(0.216027 0.0891414 0.391986 0.302845) 150 150 1
(0.280293 0.359853 0.339202 0.0206512) 150 298 1
(0.199219 0.400391 0.235879 0.164511) 75 149 1
(0.366459 0.31677 0.232636 0.0841344) 76 149 1
(0.955817 0.0220917 0.00759634 0.0144953) 76 149 1
(0.118529 0.145467 0.295268 0.440735) 77 151 2
(0.0810402 0.0504162 0.409064 0.45948) 77 154 1
(0.119939 0.44003 0.288757 0.151273) 79 158 2
(0.014551 0.492725 0.168557 0.324167) 155 306 1
(0.532802 0.104258 0.233599 0.129342) 155 308 2
(0.0925085 0.453746 0.119399 0.334346) 157 310 1
(0.093689 0.453156 0.408451 0.044704) 158 166 2
(0.0480271 0.475986 0.415431 0.060555) 158 314 1
(0.146618 0.107636 0.426691 0.319055) 159 168 1
(0.139521 0.294153 0.430239 0.136086) 160 170 1
(0.306919 0.34654 0.203672 0.142868) 161 172 2
(0.184316 0.407842 0.115452 0.29239) 236 467 1
(0.0773034 0.461348 0.38735 0.0739978) 161 321 2
(0.169706 0.042035 0.415147 0.373112) 161 320 2
(0.265137 0.367432 0.217671 0.14976) 162 323 2
(0.158507 0.0491024 0.371644 0.420747) 163 322 2
(0.656087 0.171957 0.110279 0.0616773) 165 180 2
(0.649078 0.175461 0.0236372 0.151824) 166 182 2
(0.403042 0.2916 0.298479 0.00687887) 167 184 1
(0.270746 0.364627 0.283307 0.0813203) 168 186 2
(0.0609609 0.46952 0.102005 0.367515) 169 334 1
(0.107802 0.446099 0.373995 0.0721042) 169 336 1
(0.239547 0.0299049 0.380226 0.350321) 170 190 1
(0.109754 0.445123 0.368609 0.076514) 171 340 1
(0.554081 0.22296 0.0146759 0.208284) 174 344 1
(0.164858 0.417571 0.0597514 0.357819) 176 202 2
(0.2748 0.3626 0.188362 0.174238) 102 204 2
(0.222723 0.329087 0.0595514 0.388638) 103 206 1
(0.31495 0.342525 0.231272 0.111253) 106 212 2
(0.564441 0.21778 0.00395275 0.213827) 107 214 2
(0.18694 0.40653 0.304371 0.102159) 181 360 1
(0.184124 0.0109854 0.407938 0.396952) 182 214 1
(0.765421 0.106728 0.117289 0.0105615) 183 216 1
(0.0230053 0.114275 0.488497 0.374223) 183 364 2
(0.457019 0.111978 0.159512 0.27149) 184 367 1
(0.386323 0.268816 0.0380229 0.306839) 185 369 1
(0.435377 0.21648 0.0658312 0.282311) 186 371 1
(0.262768 0.205488 0.163129 0.368616) 187 373 1
(0.575175 0.0357852 0.176627 0.212412) 190 376 2
(0.683034 0.158483 0.102186 0.0562969) 191 381 2
(0.29819 0.296945 0.0539594 0.350905) 192 380 2
(0.00843026 0.302915 0.495785 0.19287) 192 382 2
(0.0193471 0.36721 0.123117 0.490326) 267 529 2
(0.271327 0.20237 0.364337 0.161967) 267 531 2
(0.546307 0.159113 0.226847 0.0677337) 268 533 2
(0.350903 0.0557225 0.268826 0.324549) 270 535 2
(0.808756 0.095622 0.0466689 0.048953) 271 391 2
(0.476096 0.261952 0.165046 0.0969061) 272 393 2
(0.0821703 0.458915 0.215691 0.243224) 272 541 1
(0.265847 0.367076 0.356681 0.0103952) 273 543 1
(0.0951664 0.0221405 0.430276 0.452417) 200 396 2
(0.23598 0.38201 0.0021383 0.379872) 201 401 2
(0.267781 0.366109 0.0571939 0.308915) 202 403 2
(0.338023 0.330989 0.0495328 0.281456) 203 405 2
(0.0606083 0.469696 0.235702 0.233994) 279 407 2
(2.33363e-07 0.5 0.5 6.13103e-09) 225 7453 2
(2.33477e-07 0.5 0.5 5.84723e-09) 225 7453 2
(5.88269e-08 0.5 0.0521762 0.447824) 150 7452 2
(2.33587e-07 0.5 0.153335 0.346665) 225 7453 2
(0.0955414 0.452229 0.331153 0.121076) 150 150 2
(0.0750926 0.462454 0.290361 0.172093) 150 150 2
(0.114211 0.442895 0.238726 0.204169) 150 150 2
(0.184454 0.407773 0.383648 0.0241249) 150 298 1
(0.167706 0.416147 0.379843 0.0363039) 150 298 1
(0.19135 0.201153 0.404325 0.203172) 150 150 1
(0.152097 0.423951 0.377658 0.0462937) 150 298 1
(0.120151 0.439925 0.380079 0.059846) 150 298 1
(0.133279 0.43336 0.383686 0.0496741) 150 298 1
(0.762594 0.118703 0.0691453 0.0495576) 150 298 1
(0.241317 0.379342 0.356874 0.0224672) 225 447 1
(0.188703 0.405648 0.226666 0.178982) 150 298 1
(0.210083 0.353295 0.394959 0.0416639) 150 298 2
(0.289517 0.127159 0.355241 0.228082) 150 298 2
(0.67849 0.160755 0.044618 0.116137) 151 298 1
(0.606088 0.131036 0.196956 0.0659197) 151 152 1
(0.771081 0.114459 0.0827339 0.0317254) 151 300 1
(0.0358071 0.219706 0.482096 0.26239) 151 300 2
(0.0271793 0.48641 0.320118 0.166293) 227 449 1
(0.381176 0.203797 0.105615 0.309412) 228 451 2
(0.173273 0.194282 0.413363 0.219081) 229 307 1
(0.167234 0.416383 0.408175 0.00820828) 231 311 2
(0.14767 0.426165 0.247304 0.178861) 231 460 2
(0.0894937 0.455253 0.173916 0.281337) 307 462 2
(0.172117 0.413942 0.00490365 0.409038) 308 610 1
(0.399812 0.0695378 0.230556 0.300094) 233 464 1
(0.194886 0.339106 0.0634509 0.402557) 234 466 1
(0.216636 0.391682 0.117007 0.274675) 235 468 2
(0.0406559 0.0278669 0.451805 0.479672) 235 468 1
(0.112283 0.377441 0.443858 0.0664178) 311 470 1
(0.124196 0.437902 0.0754376 0.362464) 237 472 2
(0.145815 0.0477645 0.379328 0.427093) 237 472 1
(0.239753 0.155956 0.224167 0.380123) 238 474 1
(0.319821 0.340089 0.0654469 0.274642) 239 327 2
(0.294233 0.352883 0.140354 0.21253) 240 329 2
(0.348162 0.325919 0.00292842 0.32299) 241 477 1
(0.147721 0.42614 0.342311 0.0838281) 241 479 1
(0.253075 0.121517 0.373462 0.251946) 242 333 1
(0.218059 0.159075 0.39097 0.231895) 243 335 1
(0.106373 0.446813 0.0556443 0.391169) 245 339 2
(0.107684 0.280054 0.446158 0.166104) 246 341 1
(0.202947 0.288878 0.109648 0.398526) 172 343 1
(0.0902083 0.454896 0.395011 0.0598844) 248 493 1
(0.00295834 0.0809278 0.417593 0.498521) 175 346 2
(0.179098 0.410451 0.0756603 0.334791) 176 351 2
(0.0197405 0.106494 0.383636 0.49013) 177 350 2
(0.0370482 0.107284 0.481476 0.374192) 177 352 2
(0.292688 0.00472743 0.348928 0.353656) 179 354 2
(0.160727 0.419637 0.409266 0.0103707) 180 359 2
(0.128431 0.309384 0.435784 0.1264) 256 361 1
(0.820446 0.049378 0.0403991 0.0897771) 257 512 1
(0.528025 0.209916 0.0260715 0.235988) 258 514 1
(0.453736 0.224809 0.0483232 0.273132) 259 516 1
(0.00869625 0.400831 0.0948208 0.495652) 261 517 2
(0.419679 0.290161 0.262615 0.0275452) 262 522 2
(0.729824 0.0766322 0.0584557 0.135088) 263 521 2
(0.501866 0.223101 0.0259658 0.249067) 264 526 1
(0.599361 0.152479 0.20032 0.047841) 265 527 2
(0.0495462 0.0378379 0.437389 0.475227) 266 527 2
(0.683312 0.158344 0.083778 0.0745659) 341 678 1
(0.566994 0.216503 0.0598715 0.156631) 342 680 1
(0.43971 0.280145 0.161272 0.118873) 343 682 1
(0.569234 0.215383 0.0198813 0.195502) 345 538 2
(0.0928904 0.276916 0.453555 0.176638) 346 540 1
(0.0145888 0.492706 0.124388 0.368317) 346 688 1
(0.235919 0.382041 0.311176 0.0708645) 347 690 1
(0.0768417 0.102851 0.461579 0.358728) 348 544 1
(0.117059 0.00482226 0.436648 0.44147) 275 545 2
(0.403292 0.298354 0.0345977 0.263756) 276 550 2
(0.423022 0.288489 0.259749 0.0287401) 277 552 2
(0.0998669 0.450067 0.154272 0.295794) 278 554 2
(2.33363e-07 0.5 0.5 1.02978e-08) 300 7454 2
(2.33477e-07 0.5 0.5 9.93291e-09) 300 7454 2
(1.88816e-07 0.5 0.0277778 0.472222) 225 7453 2
(2.33587e-07 0.5 0.161481 0.338519) 300 7454 2
(0.062932 0.468534 0.225496 0.243038) 225 299 2
(0.0710386 0.464481 0.218318 0.246162) 225 299 2
(0.122683 0.438659 0.0783729 0.360286) 225 299 2
(0.122534 0.438733 0.0858802 0.352853) 225 299 2
(0.252731 0.373634 0.349988 0.0236467) 225 447 1
(0.0747631 0.462618 0.199459 0.26316) 150 299 2
(0.202129 0.398936 0.364379 0.0345566) 225 447 1
(0.200453 0.399773 0.362814 0.0369598) 225 447 1
(0.202484 0.398758 0.36257 0.0361881) 225 447 1
(0.288485 0.355758 0.332564 0.0231933) 225 447 1
(0.556962 0.221519 0.195669 0.0258502) 225 447 1
(0.250807 0.374596 0.133733 0.240863) 225 447 1
(0.262217 0.368891 0.16519 0.203702) 225 447 1
(0.290379 0.354811 0.276924 0.0778867) 225 447 1
(0.217414 0.309433 0.391293 0.0818602) 225 447 2
(0.426178 0.286911 0.0170445 0.269866) 226 447 1
(0.886151 0.0482335 0.0569243 0.00869077) 226 301 1
(0.602451 0.0530284 0.198775 0.145746) 226 449 2
(0.114234 0.442883 0.336345 0.106538) 301 598 1
(0.0135347 0.446258 0.0469742 0.493233) 303 600 2
(0.274106 0.306057 0.0568907 0.362947) 304 602 2
(0.263767 0.158548 0.209568 0.368116) 305 604 2
(0.453391 0.273305 0.107838 0.165467) 306 609 2
(0.212094 0.393953 0.0962353 0.297718) 307 611 2
(0.0307362 0.0280841 0.484632 0.456548) 382 611 1
(0.0421556 0.218411 0.478922 0.260511) 383 613 1
(0.27733 0.361335 0.0487195 0.312616) 384 615 2
(0.43519 0.282405 0.278778 0.00362679) 385 617 2
(0.00148037 0.49926 0.302151 0.197108) 385 765 1
(0.352034 0.323983 0.22235 0.101633) 386 767 1
(0.438271 0.149766 0.280865 0.131099) 387 621 1
(0.388184 0.269808 0.305908 0.0360994) 388 623 1
(0.312769 0.296983 0.343615 0.0466326) 389 625 1
(0.164989 0.312847 0.417505 0.104659) 390 627 1
(0.0486033 0.279617 0.196081 0.475698) 316 629 1
(0.168835 0.415582 0.0272007 0.388382) 317 628 1
(0.344836 0.0658936 0.327582 0.261688) 317 482 1
(0.386736 0.306632 0.0325788 0.274053) 318 484 2
(0.160599 0.4197 0.172825 0.246875) 244 486 2
(0.147833 0.426084 0.201106 0.224977) 245 488 2
(0.211469 0.394265 0.10835 0.285915) 246 490 2
(0.225174 0.387413 0.01095 0.376463) 247 492 2
(0.203812 0.0151041 0.38299 0.398094) 248 491 2
(0.134013 0.432994 0.342328 0.0906657) 249 496 2
(0.227465 0.386267 0.296004 0.0902633) 250 498 2
(0.248328 0.243285 0.132551 0.375836) 251 500 1
(0.277906 0.176175 0.184872 0.361047) 252 502 1
(0.277979 0.163785 0.197225 0.361011) 253 504 1
(0.316004 0.341998 0.0596585 0.282339) 255 508 2
(0.158153 0.420923 0.341095 0.079828) 256 510 2
(0.712735 0.143633 0.00592607 0.137706) 332 512 2
(0.809336 0.095332 0.0371645 0.0581675) 333 663 2
(0.747092 0.0474253 0.0790286 0.126454) 334 665 1
(0.190466 0.154586 0.404767 0.250181) 335 666 2
(0.18902 0.113584 0.40549 0.291906) 336 668 2
(0.328183 0.0737686 0.335908 0.26214) 337 670 2
(0.479256 0.0410719 0.2193 0.260372) 338 673 1
(0.452775 0.168021 0.105592 0.273612) 339 675 1
(0.305085 0.347458 0.295002 0.0524555) 340 677 2
(0.190903 0.404549 0.275124 0.129425) 416 679 2
(0.233326 0.383337 0.314736 0.0686014) 417 681 2
(0.281643 0.359178 0.0674763 0.291702) 418 829 1
(0.141254 0.429373 0.164079 0.265294) 419 831 1
(0.179037 0.410481 0.268119 0.142363) 419 833 1
(0.0688639 0.465568 0.400352 0.0652161) 420 835 1
(0.0300325 0.484984 0.0847937 0.40019) 422 837 1
(0.282643 0.0272338 0.358679 0.331445) 422 691 1
(0.00335714 0.278969 0.219353 0.498321) 348 693 1
(0.552295 0.223853 0.144928 0.0789246) 350 697 2
(0.856821 0.0715894 0.0441933 0.0273962) 351 550 2
(0.311134 0.0278338 0.316599 0.344433) 352 698 2
(2.33363e-07 0.5 0.5 3.67565e-08) 375 7455 2
(2.33477e-07 0.5 0.5 3.63694e-08) 375 7455 2
(2.33691e-07 0.5 0.0415228 0.458477) 300 7454 2
(2.33587e-07 0.5 0.167269 0.332731) 375 7455 2
(0.00368763 0.498156 0.0816803 0.416476) 225 448 2
(0.00375201 0.498124 0.484284 0.01384) 300 448 2
(0.0388048 0.480598 0.308056 0.172542) 300 448 2
(0.0978059 0.451097 0.132488 0.318609) 300 448 2
(0.236535 0.041841 0.381732 0.339891) 300 448 1
(0.157713 0.24654 0.421144 0.174603) 300 448 1
(0.184811 0.407594 0.36666 0.0409341) 300 596 1
(0.186722 0.318991 0.406639 0.0876484) 300 448 1
(0.201305 0.399348 0.362836 0.0365118) 300 596 1
(0.188417 0.405792 0.360852 0.0449397) 300 596 1
(0.328617 0.335691 0.304889 0.0308027) 300 596 1
(0.418738 0.290631 0.247665 0.0429656) 300 596 1
(0.374123 0.312938 0.281945 0.0309931) 300 596 1
(0.407961 0.296019 0.23623 0.0597893) 300 596 1
(0.247468 0.376266 0.191342 0.184924) 300 596 1
(0.0313807 0.48431 0.341305 0.143004) 300 596 1
(0.716063 0.141969 0.00726218 0.134706) 301 596 1
(0.833362 0.0737941 0.083319 0.00952494) 301 450 1
(0.0540637 0.472968 0.0622059 0.410762) 377 747 1
(0.806722 0.0528675 0.0966392 0.0437717) 377 601 1
(0.824571 0.0877147 0.0195071 0.0682076) 378 752 2
(0.588292 0.0485361 0.157318 0.205854) 379 751 2
(0.400271 0.066724 0.23314 0.299864) 380 753 2
(0.103427 0.100623 0.448287 0.347663) 380 755 2
(0.109339 0.135271 0.31006 0.445331) 381 758 1
(0.0711649 0.307231 0.464418 0.157187) 457 760 1
(0.253031 0.306941 0.373485 0.0665434) 458 762 1
(0.684881 0.0450938 0.157559 0.112466) 459 764 1
(0.291467 0.354266 0.298945 0.0553218) 460 914 1
(0.191667 0.404167 0.292417 0.111749) 461 916 1
(0.133857 0.0794013 0.433071 0.35367) 462 770 1
(0.0148989 0.203658 0.492551 0.288893) 463 772 1
(0.0163931 0.0196093 0.491803 0.472194) 389 773 2
(0.0220975 0.488951 0.26538 0.223571) 391 778 2
(0.122021 0.438989 0.329339 0.10965) 392 780 2
(0.617682 0.0408899 0.150269 0.191159) 393 779 2
(0.276362 0.361819 0.244013 0.117806) 394 635 2
(0.249861 0.37507 0.230801 0.144268) 395 637 2
(0.256602 0.371699 0.0206353 0.351064) 396 785 1
(0.241317 0.379342 0.338524 0.0408173) 396 787 1
(0.332528 0.333736 0.205329 0.128407) 322 641 2
(0.278278 0.360861 0.170011 0.19085) 323 643 2
(0.259707 0.370147 0.126253 0.243894) 324 645 2
(0.25176 0.37412 0.0553822 0.318738) 325 647 2
(0.218193 0.0273875 0.363516 0.390903) 326 646 2
(0.0728942 0.101248 0.362305 0.463553) 327 648 2
(0.100138 0.0885575 0.449931 0.361374) 327 650 2
(0.14954 0.0576237 0.42523 0.367606) 328 652 2
(0.357736 0.321132 0.180396 0.140736) 330 657 2
(0.413061 0.22078 0.0726894 0.29347) 331 659 1
(0.424311 0.05598 0.287844 0.231864) 407 661 1
(0.299396 0.202007 0.350302 0.148295) 408 811 2
(0.379405 0.0715582 0.310298 0.23874) 409 813 2
(0.453594 0.0372392 0.235964 0.273203) 410 816 1
(0.395496 0.214947 0.0873053 0.302252) 411 818 1
(0.357727 0.321137 0.243022 0.0781149) 412 820 2
(0.311235 0.344383 0.116573 0.227809) 413 822 2
(0.307955 0.0475756 0.298447 0.346023) 414 821 2
(0.0560789 0.471961 0.445624 0.0263363) 489 972 1
(0.0335773 0.0130246 0.483211 0.470187) 490 826 1
(0.129652 0.0375928 0.435174 0.397581) 491 828 1
(0.285693 0.072733 0.357153 0.28442) 492 830 1
(0.308496 0.20318 0.345752 0.142572) 493 832 1
(0.609194 0.0536607 0.195403 0.141742) 494 834 1
(0.297198 0.180975 0.170426 0.351401) 420 836 1
(0.64152 0.000997285 0.178242 0.17924) 421 838 1
(0.14894 0.42553 0.0527136 0.372817) 497 840 2
(0.00631581 0.496842 0.227691 0.269151) 423 842 2
(0.00264424 0.0828758 0.498678 0.415802) 423 841 2
(0.241345 0.0386063 0.340721 0.379327) 424 844 1
(0.236373 0.0821178 0.299696 0.381813) 425 846 1
(2.33986e-07 0.5 0.5 1.12387e-08) 450 7456 2
(2.34047e-07 0.5 0.5 1.08678e-08) 450 7456 2
(0.0809125 0.459544 0.069805 0.389739) 300 597 2
(2.34106e-07 0.5 0.137766 0.362234) 450 7456 2
(0.126707 0.436647 0.0789716 0.357675) 375 597 2
(0.140959 0.429521 0.0512991 0.378221) 375 597 2
(0.156785 0.421608 0.0365671 0.38504) 375 597 2
(0.151701 0.424149 0.0625497 0.3616) 375 597 2
(1.57156e-07 0.5 0.101379 0.398621) 375 7455 2
(0.105976 0.447012 0.0961646 0.350847) 300 597 2
(0.150198 0.424901 0.388817 0.0360838) 375 745 1
(0.245983 0.377009 0.337114 0.0398949) 375 745 1
(0.668486 0.041069 0.165757 0.124688) 375 745 2
(0.164208 0.417896 0.365182 0.0527137) 375 745 1
(0.129807 0.435096 0.380567 0.0545293) 375 745 1
(0.185453 0.407274 0.35509 0.052184) 375 745 1
(0.174596 0.412702 0.317244 0.095458) 375 745 1
(0.187726 0.406137 0.287389 0.118748) 375 745 1
(0.24529 0.377355 0.0836414 0.293714) 375 745 1
(0.163528 0.418236 0.176411 0.241825) 375 745 1
(0.422532 0.288734 0.0544938 0.23424) 376 745 1
(0.679718 0.160141 0.0479504 0.112191) 376 599 2
(0.619073 0.168542 0.190464 0.0219213) 376 747 2
(0.527731 0.236134 0.179147 0.0569875) 451 896 1
(0.0546846 0.404678 0.472658 0.0679793) 451 896 2
(0.712616 0.00284333 0.143692 0.140849) 452 898 2
(0.65785 0.00868086 0.162394 0.171075) 453 898 2
(0.461885 0.0907644 0.178293 0.269057) 454 900 2
(0.359408 0.320296 0.16187 0.158426) 455 905 2
(0.303974 0.337974 0.010039 0.348013) 456 907 1
(0.0102815 0.494859 0.459337 0.0355226) 533 911 2
(0.287423 0.298324 0.356288 0.0579641) 534 913 1
(0.205127 0.397436 0.154607 0.242829) 536 917 2
(0.0790852 0.458936 0.00152092 0.460457) 462 919 1
(0.422742 0.288629 0.0337011 0.254928) 463 921 2
(0.0935621 0.376155 0.0770643 0.453219) 464 920 2
(0.193731 0.35554 0.403135 0.0475946) 464 922 2
(0.021661 0.361774 0.127395 0.489169) 465 925 1
(0.15106 0.365562 0.0589086 0.42447) 466 927 1
(0.170092 0.414954 0.392356 0.0225983) 467 929 2
(0.178411 0.410794 0.390831 0.0199634) 468 931 2
(0.202643 0.10882 0.398678 0.289858) 469 784 1
(0.119115 0.440443 0.389561 0.0508814) 470 934 1
(0.14549 0.427255 0.0383272 0.388928) 472 936 1
(0.0239684 0.138365 0.349651 0.488016) 398 789 2
(0.0685948 0.100889 0.364814 0.465703) 399 791 2
(0.0671669 0.0931772 0.373239 0.466417) 400 793 2
(0.044909 0.110874 0.477545 0.366672) 400 795 2
(0.154918 0.0469982 0.422541 0.375543) 401 797 2
(0.190295 0.0500791 0.404853 0.354774) 402 799 2
(0.393065 0.0422265 0.261241 0.303468) 403 802 1
(0.591136 0.131501 0.0729315 0.204432) 404 804 1
(0.535518 0.0193378 0.212903 0.232241) 405 806 1
(0.0329087 0.379554 0.483546 0.103991) 406 807 2
(0.0327606 0.0347193 0.48362 0.4489) 482 810 1
(0.10643 0.234589 0.446785 0.212196) 483 960 2
(0.478237 0.0385587 0.222323 0.260882) 484 963 1
(0.392273 0.287608 0.0162556 0.303864) 485 965 1
(0.332154 0.333923 0.183394 0.150529) 486 967 2
(0.31664 0.34168 0.0232054 0.318474) 487 969 2
(0.00756729 0.496216 0.43447 0.0617461) 562 1117 1
(0.0365647 0.481718 0.0434077 0.43831) 564 1119 1
(0.0846726 0.457664 0.400589 0.0570744) 565 975 2
(0.0494755 0.475262 0.474256 0.0010067) 566 977 2
(0.197242 0.117956 0.401379 0.283423) 566 977 1
(0.183917 0.276055 0.408041 0.131986) 567 979 1
(0.229782 0.26584 0.385109 0.119269) 568 981 1
(0.52505 0.237475 0.208393 0.0290823) 569 1131 1
(0.620643 0.07046 0.189678 0.119218) 495 984 2
(0.823989 0.0875942 0.0880054 0.000411225) 496 986 2
(0.0294993 0.48525 0.118168 0.367083) 572 989 2
(0.0657576 0.467121 0.309776 0.157345) 498 991 2
(0.145408 0.427296 0.170516 0.25678) 499 993 2
(0.21388 0.39306 0.07486 0.3182) 500 995 2
(0.33883 0.330585 0.0280365 0.302549) 501 997 2
(2.33363e-07 0.5 0.5 1.33617e-08) 525 7457 2
(2.33477e-07 0.5 0.5 1.28989e-08) 525 7457 2
(2.34163e-07 0.5 0.0415194 0.45848) 450 7456 2
(2.33586e-07 0.5 0.0999984 0.400001) 525 7457 2
(0.24772 0.37614 0.280895 0.0952454) 450 746 2
(0.181513 0.409244 0.162843 0.246401) 450 746 2
(0.35373 0.323135 0.0593116 0.263823) 375 597 2
(0.189274 0.405363 0.155109 0.250254) 450 746 2
(0.254829 0.372586 0.227999 0.144586) 450 746 2
(0.0367024 0.357044 0.124605 0.481649) 375 746 1
(0.30834 0.34583 0.315426 0.0304044) 450 894 1
(0.225964 0.387018 0.374261 0.0127569) 450 894 1
(0.250076 0.374962 0.328393 0.0465691) 450 894 1
(0.205497 0.397251 0.352368 0.0448832) 450 894 1
(0.262283 0.368858 0.343473 0.0253854) 450 894 1
(0.248167 0.0164896 0.375916 0.359427) 450 746 1
(0.209118 0.395441 0.000948616 0.394493) 525 895 2
(0.14137 0.0813807 0.429315 0.347934) 525 895 1
(0.0731567 0.463422 0.427685 0.0357367) 525 1043 1
(0.262175 0.153252 0.368912 0.21566) 450 746 1
(0.160533 0.419733 0.387656 0.0320769) 450 894 1
(0.242818 0.378591 0.100118 0.278473) 451 894 1
(0.708116 0.145942 0.0708587 0.0750831) 451 748 2
(0.414802 0.292599 0.1475 0.145099) 526 1043 1
(0.938522 0.0307391 0.00332484 0.0274143) 526 897 2
(0.656217 0.0309741 0.171892 0.140918) 526 1045 2
(0.0554482 0.18856 0.283716 0.472276) 527 1045 2
(0.0723604 0.165275 0.298545 0.46382) 528 1047 2
(0.0134456 0.175047 0.318231 0.493277) 529 1049 2
(0.241691 0.0458727 0.333282 0.379155) 530 1051 2
(0.393646 0.303177 0.162978 0.140199) 531 1056 2
(0.245607 0.358741 0.0184559 0.377196) 532 1058 1
(0.155363 0.319456 0.102862 0.422318) 533 1060 1
(0.0198619 0.193693 0.490069 0.296376) 534 1061 2
(0.421128 0.0300738 0.289436 0.259362) 536 1065 2
(0.243558 0.301249 0.0769724 0.378221) 538 1067 2
(0.260343 0.317159 0.369828 0.0526692) 613 1070 1
(0.39229 0.303855 0.157146 0.146709) 614 1072 2
(0.0433522 0.478324 0.0122935 0.46603) 540 1074 2
(0.155559 0.422221 0.0413352 0.380885) 541 1076 2
(0.322656 0.338672 0.0242654 0.314406) 543 1080 2
(0.23293 0.188328 0.383535 0.195207) 544 933 1
(0.155665 0.422167 0.281926 0.140242) 546 937 2
(0.0885185 0.144277 0.455741 0.311464) 547 939 1
(0.315297 0.206638 0.135714 0.342351) 473 941 1
(0.277377 0.260514 0.100798 0.361311) 474 943 1
(0.27993 0.253017 0.107018 0.360035) 475 945 1
(0.258582 0.24407 0.126639 0.370709) 476 947 1
(0.438183 0.0300531 0.280908 0.250855) 477 948 2
(0.356372 0.037283 0.284531 0.321814) 478 951 1
(0.336597 0.181386 0.331702 0.150316) 554 953 1
(0.341396 0.329302 0.0753845 0.253917) 555 955 2
(0.00608807 0.321726 0.496956 0.17523) 480 954 2
(0.355092 0.146046 0.322454 0.176408) 481 956 2
(0.290937 0.354531 0.290394 0.0641369) 482 959 2
(0.313138 0.343431 0.103334 0.240097) 483 961 2
(0.418773 0.290614 0.000954521 0.289659) 558 1110 2
(0.023373 0.179276 0.488314 0.309038) 558 1109 2
(0.333896 0.0778739 0.255178 0.333052) 559 1112 1
(0.263919 0.221029 0.147011 0.368041) 560 1114 1
(0.164369 0.0789668 0.417815 0.338849) 636 1116 1
(0.212098 0.0960635 0.393951 0.297887) 637 1118 1
(0.0348517 0.482574 0.0384136 0.444161) 639 1268 1
(0.200652 0.399674 0.188566 0.211108) 565 1124 2
(0.0546867 0.472657 0.0771243 0.395532) 641 1272 1
(0.170682 0.0230149 0.414659 0.391644) 641 1126 1
(0.131245 0.434378 0.0201901 0.414188) 643 1276 1
(0.319388 0.340306 0.242318 0.0979882) 644 1132 2
(0.515628 0.234499 0.242186 0.0076864) 645 1134 1
(0.37646 0.0593918 0.31177 0.252378) 646 1136 1
(0.127556 0.0539244 0.436222 0.382297) 647 1138 1
(0.0457056 0.0582539 0.418893 0.477147) 573 1140 1
(0.0402077 0.0638719 0.479896 0.416024) 574 1141 2
(0.0317271 0.0991424 0.484136 0.384994) 575 1143 2
(0.414176 0.292912 0.247533 0.0453795) 576 1145 1
(2.33796e-07 0.5 0.5 1.07985e-08) 600 7458 2
(2.33871e-07 0.5 0.5 1.0458e-08) 600 7458 2
(1.02948e-07 0.5 0.171404 0.328596) 525 7457 2
(2.33943e-07 0.5 0.0291418 0.470858) 600 7458 2
(0.0299933 0.485003 0.392156 0.0928471) 525 895 2
(0.0208114 0.489594 0.405068 0.0845264) 525 895 2
(0.0971885 0.451406 0.0383302 0.413075) 450 895 2
(0.0834175 0.458291 0.421993 0.0362985) 525 1043 1
(0.0399489 0.480026 0.358765 0.121261) 525 895 2
(0.0961858 0.451907 0.425734 0.0261729) 525 1043 1