/*--------------------------------*- C++ -*----------------------------------*\
  =========                 |
  \\      /  F ield         | OpenFOAM: The Open Source CFD Toolbox
   \\    /   O peration     | Website:  https://openfoam.org
    \\  /    A nd           | Version:  12
     \\/     M anipulation  |
\*---------------------------------------------------------------------------*/
FoamFile
{
    format      ascii;
    class       vectorField;
    location    "0.45/lagrangian/cloud";
    object      U;
}
// * * * * * * * * * * * * * * * * * * * * * * * * * * * * * * * * * * * * * //


4830
(
(4.11141e-11 -5.13036e-05 0)
(3.91768e-11 -5.13417e-05 0)
(3.73306e-11 -5.1378e-05 0)
(3.55712e-11 -5.14124e-05 0)
(3.38946e-11 -5.14451e-05 0)
(0.000263104 -0.00408724 0)
(0.000266695 -0.00363352 0)
(0.000255216 -0.00385499 0)
(0.000116731 -0.00365943 0)
(0.000111737 -0.00353398 0)
(-0.000531868 -0.00934533 0)
(0.000191424 -0.0126165 0)
(0.000243313 -0.00866868 0)
(-0.00377683 -0.0139751 0)
(0.0189066 -0.00634729 0)
(-0.00594287 -0.0431003 0)
(-0.0019415 -0.0350228 0)
(-0.00102129 -0.0345259 0)
(-0.000597972 -0.0326109 0)
(-0.000677473 -0.0325277 0)
(-4.20021e-05 -0.0320771 0)
(-0.000187766 -0.034066 0)
(-0.000649442 -0.030801 0)
(0.000588228 -0.0276735 0)
(0.00107418 -0.0255523 0)
(0.000224724 -0.0277071 0)
(0.000161267 -0.0270252 0)
(0.000256391 -0.0279968 0)
(0.000521032 -0.0282926 0)
(0.0010157 -0.0296346 0)
(-0.000326818 -0.0290875 0)
(-0.00221949 -0.0294909 0)
(0.000367372 -0.0265546 0)
(0.000291172 -0.0285193 0)
(-0.000432285 -0.0257268 0)
(0.00170675 -0.0258734 0)
(0.000869265 -0.0272168 0)
(0.000563389 -0.0296764 0)
(0.000830944 -0.0294861 0)
(-4.08767e-05 -0.0320567 0)
(0.00119246 -0.0300983 0)
(-3.49673e-05 -0.0281009 0)
(7.68689e-05 -0.0281678 0)
(-0.000339064 -0.0289087 0)
(-0.00182228 -0.0299182 0)
(-0.000619089 -0.027029 0)
(-0.000288058 -0.028698 0)
(0.000303975 -0.0264097 0)
(4.96243e-05 -0.0218025 0)
(-0.000281536 -0.0288119 0)
(-0.00038046 -0.0263729 0)
(-0.00139273 -0.0211591 0)
(-0.000959216 -0.020223 0)
(-0.000832169 -0.0183314 0)
(0.000893379 -0.00884115 0)
(0.00427143 -0.0221247 0)
(0.000140144 -0.0119067 0)
(0.000590284 -0.0123089 0)
(0.000662987 -0.0151014 0)
(0.00174436 -0.0156223 0)
(0.00296394 -0.0237232 0)
(0.000803925 -0.0284703 0)
(-0.000457782 -0.0308063 0)
(-9.00002e-05 -0.0279454 0)
(-0.000127253 -0.0280164 0)
(-5.403e-05 -0.027841 0)
(0.000255307 -0.0291421 0)
(-8.1488e-05 -0.0260662 0)
(-0.0014528 -0.0261371 0)
(0.00114456 -0.0274333 0)
(0.000950837 -0.0239493 0)
(0.000759336 -0.0230611 0)
(-0.000196502 -0.0267772 0)
(0.000699433 -0.0248789 0)
(0.000246206 -0.02523 0)
(6.81676e-11 -5.14323e-05 0)
(6.579e-11 -5.14526e-05 0)
(-2.48966e-05 -1.95393e-05 0)
(-2.36712e-05 -2.12053e-05 0)
(0.00053795 -0.00888842 0)
(0.000409086 -0.0131992 0)
(-0.000184296 -0.0094579 0)
(0.000775452 -0.0159836 0)
(0.000832451 -0.00525988 0)
(-0.00138706 -0.00873296 0)
(-0.00143869 -0.000588093 0)
(0.000699314 -0.0129037 0)
(0.00186446 -0.0120146 0)
(0.0010747 -0.00992086 0)
(-0.000486368 -0.00476993 0)
(-0.00053004 -0.00936244 0)
(-0.000903904 -0.0114333 0)
(-0.00217051 -0.0133484 0)
(-0.00586325 -0.0370694 0)
(-0.00043149 -0.0337167 0)
(-0.000602019 -0.0334412 0)
(-0.000626782 -0.0303038 0)
(0.000426667 -0.0359346 0)
(-0.000877109 -0.0344499 0)
(0.00122371 -0.0370115 0)
(-0.00140762 -0.0315669 0)
(-0.000287855 -0.0278948 0)
(0.000568263 -0.027948 0)
(-0.000323483 -0.028868 0)
(0.000247044 -0.0259795 0)
(-0.000730549 -0.0257278 0)
(0.00100548 -0.036417 0)
(0.000939673 -0.0494388 0)
(-0.0016684 -0.0373298 0)
(-0.00102948 -0.034736 0)
(-0.00108119 -0.036884 0)
(-0.00139213 -0.0284682 0)
(-0.000145657 -0.0305236 0)
(-0.00219853 -0.0269229 0)
(-0.00334156 -0.0268129 0)
(-0.00556075 -0.0235966 0)
(-0.00465033 -0.0256786 0)
(0.00457646 -0.0328126 0)
(0.000123156 -0.034358 0)
(-0.00101189 -0.03242 0)
(-0.000316612 -0.0281629 0)
(0.00105799 -0.0266563 0)
(-0.000479026 -0.0287568 0)
(-0.000836886 -0.0287052 0)
(-0.00015879 -0.0267844 0)
(-0.00229408 -0.0241632 0)
(0.000349508 -0.0327328 0)
(-0.00110493 -0.0342981 0)
(0.00136175 -0.0318746 0)
(0.00101479 -0.0319442 0)
(-0.00188052 -0.0296776 0)
(-0.00297301 -0.0326018 0)
(-0.00332449 -0.0303245 0)
(0.00259076 -0.0228705 0)
(0.00310232 -0.0179704 0)
(0.00303629 -0.01662 0)
(0.00360875 -0.0221446 0)
(0.00781673 -0.0304699 0)
(0.00435488 -0.030158 0)
(0.00433192 -0.0282309 0)
(0.00536927 -0.0304569 0)
(0.00392671 -0.0304669 0)
(0.00191482 -0.0300331 0)
(0.000207685 -0.033801 0)
(0.000543013 -0.0361215 0)
(0.000596355 -0.0349358 0)
(-0.00178101 -0.0306555 0)
(-0.000883775 -0.0330946 0)
(-0.00130802 -0.0369688 0)
(-0.00155902 -0.0353742 0)
(2.0609e-11 -5.13035e-05 0)
(1.96393e-11 -5.13416e-05 0)
(-3.45166e-06 -9.06042e-06 0)
(1.87151e-11 -5.13779e-05 0)
(-0.000499755 -0.0087439 0)
(-0.00066148 -0.00938525 0)
(-0.0001411 -8.07767e-05 0)
(0.00124932 -0.00754213 0)
(-0.000303038 -0.00646191 0)
(0.00118769 -0.0077856 0)
(0.00183923 -0.0113969 0)
(0.000671215 -0.0130611 0)
(0.000252084 -0.0101378 0)
(-0.00100991 -0.0100256 0)
(-0.00102886 -0.0105146 0)
(-0.00120591 -0.0101889 0)
(-0.00151193 -0.0104399 0)
(-0.000327934 -0.00532418 0)
(-0.00543525 -0.00244198 0)
(-0.000706054 -0.00985267 0)
(-0.00962425 0.00273113 0)
(-0.00743432 -0.0392587 0)
(-0.00376999 -0.0383843 0)
(-0.0021273 -0.0414187 0)
(-0.00135851 -0.037856 0)
(-0.000128374 -0.0393018 0)
(-0.00063546 -0.0409073 0)
(-0.00111105 -0.0387936 0)
(-0.00158925 -0.0365161 0)
(-0.00201078 -0.0368424 0)
(-0.00297025 -0.0336728 0)
(-0.00110807 -0.0367844 0)
(-0.00099363 -0.0398925 0)
(-0.0016215 -0.0387799 0)
(-0.00100296 -0.042227 0)
(-0.000106858 -0.0450468 0)
(1.16611e-05 -0.0440643 0)
(-0.000636565 -0.0441951 0)
(0.000443015 -0.0401995 0)
(-0.000173598 -0.0416247 0)
(-0.000240353 -0.0429747 0)
(0.000277854 -0.0431238 0)
(-0.000177153 -0.042034 0)
(-0.0004118 -0.0452133 0)
(8.76483e-05 -0.0480472 0)
(0.00220196 -0.0390818 0)
(-0.000711437 -0.0416002 0)
(-0.000134525 -0.0432274 0)
(0.000330141 -0.0358605 0)
(3.81532e-05 -0.0373487 0)
(-0.000193479 -0.0427738 0)
(0.00101673 -0.0414114 0)
(-0.000863636 -0.0394025 0)
(0.000500455 -0.0374102 0)
(0.00176239 -0.0431253 0)
(0.000669218 -0.0466525 0)
(-0.000411974 -0.0452449 0)
(0.000286149 -0.0434844 0)
(-0.00104241 -0.0387648 0)
(-0.000560377 -0.0364674 0)
(-0.00540696 -0.0381222 0)
(-0.00550708 -0.0384981 0)
(-0.0051227 -0.0422133 0)
(-0.00553678 -0.0412319 0)
(-0.00528421 -0.0420282 0)
(0.00212351 -0.0482099 0)
(0.00407528 -0.041062 0)
(0.00209491 -0.0388349 0)
(0.00569617 -0.0408009 0)
(0.00595567 -0.038693 0)
(0.00205085 -0.0400934 0)
(0.00101347 -0.0419469 0)
(0.000923185 -0.0428104 0)
(0.000783484 -0.0424787 0)
(0.000278884 -0.0408879 0)
(1.15533e-12 -5.13934e-05 0)
(1.11142e-12 -5.14185e-05 0)
(-2.90556e-06 -1.30138e-05 0)
(1.06919e-12 -5.14426e-05 0)
(-7.46806e-05 -0.00485171 0)
(-0.00172551 -0.00310176 0)
(0.00110678 -0.00365756 0)
(-0.00120024 -0.0114459 0)
(-0.00120466 -0.0108218 0)
(0.00207765 -0.00790006 0)
(-0.000931912 -0.00974556 0)
(-0.000950055 -0.00902005 0)
(-0.000825791 -0.00897831 0)
(0.00158436 -0.0137674 0)
(-0.00159183 -0.0113641 0)
(-0.0010709 -0.0118398 0)
(-0.00148722 -0.0121389 0)
(-0.00107535 -0.0122163 0)
(-0.00295442 0.00735245 0)
(-0.004427 0.000995807 0)
(-0.00565029 0.00104095 0)
(-0.0101 -0.0225051 0)
(-0.0106627 -0.0436562 0)
(-0.00499659 -0.0492162 0)
(-0.00240325 -0.0452949 0)
(-0.00187473 -0.0382541 0)
(-0.00369177 -0.0399802 0)
(-0.000242948 -0.0396919 0)
(-0.000326117 -0.0399346 0)
(-0.0009684 -0.0399274 0)
(-0.00127014 -0.0395589 0)
(-0.00168345 -0.0400414 0)
(-0.000570386 -0.0384934 0)
(0.00185815 -0.0409242 0)
(0.00116041 -0.040696 0)
(0.00102807 -0.0406891 0)
(0.000235167 -0.041759 0)
(-0.000829534 -0.0487896 0)
(-5.8332e-05 -0.0494853 0)
(-0.00133048 -0.0493136 0)
(-0.000787965 -0.0464379 0)
(-0.000938485 -0.0468926 0)
(0.00137821 -0.0499356 0)
(0.000798344 -0.0490268 0)
(0.000115125 -0.0500666 0)
(0.000986693 -0.048504 0)
(0.00120382 -0.0497947 0)
(0.000132752 -0.0482701 0)
(0.00103199 -0.048209 0)
(0.00037915 -0.0496554 0)
(-0.000435827 -0.0516842 0)
(0.000327326 -0.0519611 0)
(-0.00216196 -0.0510859 0)
(-0.00129691 -0.0456613 0)
(0.0016159 -0.0455582 0)
(-0.00160412 -0.0498763 0)
(-0.00144719 -0.0479426 0)
(-0.000708728 -0.0447299 0)
(0.000400699 -0.0444169 0)
(0.000841201 -0.045935 0)
(-0.000727163 -0.0434297 0)
(-0.00411709 -0.0401289 0)
(-0.0044669 -0.0419514 0)
(-0.00570644 -0.043822 0)
(-0.005334 -0.0461227 0)
(-0.00538503 -0.0457592 0)
(0.00229616 -0.05006 0)
(0.0058303 -0.0478448 0)
(0.00414189 -0.0493623 0)
(0.00626461 -0.0456674 0)
(0.00629472 -0.042498 0)
(0.0026479 -0.0460363 0)
(0.0030094 -0.0458284 0)
(0.00151587 -0.0457612 0)
(0.000266256 -0.045717 0)
(4.65654e-12 -5.13934e-05 0)
(4.47724e-12 -5.14185e-05 0)
(6.81387e-06 -4.15961e-05 0)
(4.30484e-12 -5.14426e-05 0)
(-0.00242789 -0.00438718 0)
(-0.00250338 -0.00437132 0)
(-0.0013303 -0.00706734 0)
(-0.000857465 -0.00664269 0)
(-0.00212291 -0.0143546 0)
(1.21371e-05 -0.00178199 0)
(-0.00208092 -0.0125916 0)
(-0.00200947 -0.0120985 0)
(-0.00193229 -0.0115974 0)
(-0.00223001 -0.0129279 0)
(-0.00293987 -0.0102222 0)
(-0.00190274 -0.0112215 0)
(-0.00179485 -0.010907 0)
(-0.00213814 -0.0106971 0)
(-0.00235925 -0.0144874 0)
(-0.00479502 -0.015669 0)
(0.000395769 0.00382749 0)
(-0.00699641 -0.0198579 0)
(-0.00916476 -0.0100575 0)
(-0.00515092 -0.0449855 0)
(-0.00252247 -0.047815 0)
(-0.00423317 -0.0475569 0)
(-0.00388962 -0.0455898 0)
(-0.00606753 -0.0417106 0)
(-0.00353851 -0.0448678 0)
(-0.00292909 -0.041642 0)
(-0.00255759 -0.0432206 0)
(-0.003255 -0.0443201 0)
(-0.00169149 -0.0419613 0)
(0.000142745 -0.0396524 0)
(0.000473473 -0.0402678 0)
(0.000653916 -0.0411522 0)
(0.00274718 -0.0428887 0)
(0.00386415 -0.0419248 0)
(0.00103915 -0.0463544 0)
(-0.000390149 -0.0485541 0)
(-0.000472733 -0.0472125 0)
(0.000149712 -0.0493871 0)
(-0.00046665 -0.0506846 0)
(0.000182821 -0.0505723 0)
(0.000205169 -0.0501461 0)
(-0.000591456 -0.0521358 0)
(-0.000402344 -0.0529753 0)
(-0.000151891 -0.0486726 0)
(-1.49043e-06 -0.0502144 0)
(0.000550247 -0.0511161 0)
(1.98503e-05 -0.0510275 0)
(-0.000246674 -0.0511216 0)
(0.000547218 -0.051622 0)
(-0.000633731 -0.0477512 0)
(-0.00326877 -0.0474692 0)
(0.00100243 -0.0458726 0)
(-0.00322599 -0.0436396 0)
(-0.0022329 -0.0457956 0)
(-0.000838486 -0.0452766 0)
(-0.000639256 -0.0431171 0)
(0.00103376 -0.0437559 0)
(-0.00214146 -0.046123 0)
(-0.00318463 -0.0475261 0)
(-0.0031874 -0.0484567 0)
(-0.0043407 -0.0487196 0)
(-0.00566884 -0.049898 0)
(-0.00644513 -0.051443 0)
(-0.00179185 -0.0511817 0)
(0.00387175 -0.0496636 0)
(0.00703325 -0.0502549 0)
(0.0064383 -0.0483049 0)
(0.00387117 -0.0476981 0)
(0.00154114 -0.0485282 0)
(0.00113667 -0.044573 0)
(0.000447794 -0.0481447 0)
(-2.00247e-12 -5.13934e-05 0)
(-1.92498e-12 -5.14185e-05 0)
(4.13906e-12 -5.14657e-05 0)
(-1.85048e-12 -5.14426e-05 0)
(8.63059e-05 0.000980057 0)
(-0.000645037 -0.00239273 0)
(0.000166731 -0.00403689 0)
(0.00165221 -0.00663435 0)
(0.0032652 -0.0135335 0)
(-0.00255693 -0.00853219 0)
(0.000201368 -0.0104756 0)
(-0.00342244 -0.00711321 0)
(-0.00078349 -0.0127046 0)
(-0.00039709 -0.00860102 0)
(-0.00189678 -0.00896389 0)
(-0.00233083 -0.00839142 0)
(-0.00188708 -0.0077463 0)
(-0.00208566 -0.0118289 0)
(-0.00200005 -0.00909287 0)
(-0.000255042 -0.0148158 0)
(-0.00367477 -0.0184072 0)
(-0.00557731 -0.021427 0)
(-0.00734247 -0.0101619 0)
(-0.00470002 -0.0427714 0)
(-0.00249676 -0.0445131 0)
(-0.00230092 -0.050551 0)
(-0.00160459 -0.0484423 0)
(-0.00459138 -0.0463817 0)
(-0.00434295 -0.0462776 0)
(-0.00269593 -0.0499239 0)
(-0.00304039 -0.0503626 0)
(-0.00315175 -0.0532224 0)
(0.000443342 -0.0495182 0)
(0.000612852 -0.0463644 0)
(0.00168078 -0.0442349 0)
(0.00241256 -0.0438231 0)
(0.00357274 -0.0437987 0)
(0.000650946 -0.0468538 0)
(0.00077328 -0.0483192 0)
(0.00435651 -0.0503717 0)
(-2.94914e-05 -0.0493324 0)
(0.000625186 -0.0492572 0)
(0.000117031 -0.0486855 0)
(0.00017333 -0.0463625 0)
(-0.000614243 -0.0473986 0)
(-0.000412422 -0.0475954 0)
(-0.000294124 -0.0476253 0)
(-0.000435239 -0.0473723 0)
(-0.000341084 -0.0470821 0)
(1.46405e-06 -0.0466598 0)
(-0.000106834 -0.0468308 0)
(-0.000418466 -0.0467894 0)
(0.00153496 -0.0484798 0)
(8.72865e-05 -0.0488751 0)
(-0.00298608 -0.0420847 0)
(-0.00349742 -0.0438585 0)
(-0.00363626 -0.0421219 0)
(-0.000237028 -0.0428614 0)
(-0.000810774 -0.0435789 0)
(-8.80044e-05 -0.0447054 0)
(-0.000297351 -0.045864 0)
(-0.000494561 -0.0474569 0)
(-0.000411638 -0.0486813 0)
(-0.00139146 -0.0472979 0)
(-0.0025424 -0.0464 0)
(-0.00328875 -0.0474355 0)
(-0.00326598 -0.0491148 0)
(-7.6086e-05 -0.0502924 0)
(0.00346641 -0.0497721 0)
(0.00663322 -0.0494229 0)
(0.00558225 -0.0501578 0)
(0.00341986 -0.049811 0)
(0.00214123 -0.0501571 0)
(0.000861231 -0.0496113 0)
(-0.000370339 -0.0508206 0)
(2.6863e-11 -5.14994e-05 0)
(2.60989e-11 -5.15127e-05 0)
(0.000558866 2.98729e-05 0)
(2.53565e-11 -5.15257e-05 0)
(-0.00358608 -0.00807468 0)
(0.00198586 -0.0084011 0)
(0.00232919 -0.00848373 0)
(0.000703265 -0.00646247 0)
(2.36015e-05 -3.46226e-05 0)
(-0.00163486 -0.00378157 0)
(-0.00205022 -0.0119844 0)
(-0.00173405 -0.0125524 0)
(-0.000482956 -0.0177338 0)
(-0.0019822 -0.010062 0)
(-0.00205225 -0.0089265 0)
(-0.00163483 -0.00863878 0)
(-0.00191884 -0.00824641 0)
(-0.00187793 -0.00783551 0)
(-0.0016999 -0.00859053 0)
(-0.00199938 -0.00816856 0)
(-0.0031801 -0.0129917 0)
(-0.00185401 -0.0145549 0)
(-0.00637833 -0.00458425 0)
(-0.00785805 -0.0147736 0)
(-0.00569992 -0.0237635 0)
(-0.00645901 -0.0458568 0)
(-0.00504365 -0.0487721 0)
(-0.00386028 -0.0515205 0)
(-0.00117574 -0.0530124 0)
(-0.00270144 -0.0544983 0)
(-0.00230689 -0.0529022 0)
(-0.00394596 -0.056605 0)
(-0.000143835 -0.0503021 0)
(0.00164276 -0.0456136 0)
(0.00379488 -0.044918 0)
(0.00546074 -0.0459907 0)
(0.005143 -0.0437191 0)
(0.00224935 -0.0456795 0)
(0.00132971 -0.0472462 0)
(0.000408097 -0.0472147 0)
(-8.89287e-05 -0.0471275 0)
(0.000810322 -0.0476696 0)
(0.000586142 -0.0487482 0)
(0.000292687 -0.0470832 0)
(-0.00042945 -0.0472738 0)
(-0.000356881 -0.0472443 0)
(-0.000277682 -0.0466802 0)
(0.000229708 -0.0474665 0)
(9.36757e-05 -0.0462296 0)
(-9.9978e-05 -0.0434431 0)
(0.00188319 -0.0424871 0)
(0.000979107 -0.0431591 0)
(4.15603e-05 -0.0450736 0)
(-0.000291694 -0.0446093 0)
(-0.00364363 -0.0394907 0)
(-0.00335312 -0.0395376 0)
(-0.0018012 -0.0387593 0)
(-0.00165373 -0.0417338 0)
(-0.000892335 -0.0441408 0)
(-0.000389553 -0.0460052 0)
(-0.000239194 -0.047669 0)
(-0.000337985 -0.0480001 0)
(-0.000184322 -0.0449047 0)
(-0.000544572 -0.0450225 0)
(-0.00131616 -0.0453052 0)
(-0.00094629 -0.0469259 0)
(-0.00155252 -0.0488143 0)
(5.12731e-05 -0.0484646 0)
(0.005622 -0.047027 0)
(0.00569048 -0.0488683 0)
(0.00368411 -0.0488635 0)
(0.00232346 -0.0498173 0)
(0.00128507 -0.0505781 0)
(0.000700364 -0.0512449 0)
(0.00114184 -0.0517568 0)
(1.47234e-11 -5.13934e-05 0)
(1.41566e-11 -5.14185e-05 0)
(2.46352e-11 -5.15382e-05 0)
(1.36116e-11 -5.14425e-05 0)
(-0.00122106 -0.00713214 0)
(0.000665899 -0.0146842 0)
(0.0010145 -0.0100133 0)
(-0.000620739 -0.00768721 0)
(-0.00178776 -0.00734774 0)
(-0.00109404 -0.0098195 0)
(-0.00194046 -0.0110147 0)
(-0.00182522 -0.0191819 0)
(-0.00165722 -0.00825126 0)
(-0.00263409 -0.00781779 0)
(-0.0022647 -0.00785674 0)
(-0.0083619 -0.0102701 0)
(-0.00271414 -0.0102404 0)
(-0.00196827 -0.0122263 0)
(-0.00247939 -0.011591 0)
(0.00783081 -0.0120288 0)
(-0.00180759 -0.0162956 0)
(-0.00781802 -0.0124852 0)
(-0.00715022 -0.0103976 0)
(-0.00490163 -0.0140872 0)
(-0.00692263 -0.0135708 0)
(-0.00717466 -0.0135092 0)
(-0.00394594 -0.0492473 0)
(-0.00187961 -0.0513554 0)
(-0.00207836 -0.0531685 0)
(-0.000560567 -0.0569603 0)
(-0.000973089 -0.0593317 0)
(-0.00182976 -0.0593861 0)
(-0.00391707 -0.0573116 0)
(-0.00501883 -0.0581858 0)
(0.000356406 -0.0484949 0)
(0.00325633 -0.0505441 0)
(0.00238211 -0.0517098 0)
(0.000624188 -0.0486687 0)
(0.000365697 -0.0501926 0)
(0.000704918 -0.0487863 0)
(0.000692979 -0.0477874 0)
(0.00056785 -0.0471272 0)
(0.000640685 -0.0470021 0)
(-0.00137384 -0.0441027 0)
(-0.000219875 -0.0465137 0)
(-0.000396106 -0.0463838 0)
(8.61412e-06 -0.0467729 0)
(-6.47903e-05 -0.0464117 0)
(0.000641575 -0.0438469 0)
(-0.00079559 -0.0437877 0)
(-0.00189389 -0.0407274 0)
(-0.000992467 -0.0400827 0)
(0.000950631 -0.0414203 0)
(-0.000870437 -0.0393597 0)
(-0.000266174 -0.0392164 0)
(-0.00298691 -0.038123 0)
(-0.00198834 -0.0435791 0)
(-0.00150409 -0.0411239 0)
(-0.000463351 -0.0423997 0)
(-0.00124988 -0.0455928 0)
(-0.00137383 -0.046816 0)
(-8.40175e-05 -0.0475108 0)
(-0.000133175 -0.04887 0)
(-0.00282297 -0.0467108 0)
(-0.00059322 -0.0463714 0)
(-0.00044596 -0.0465127 0)
(-0.00123565 -0.0500723 0)
(-0.000806345 -0.0502404 0)
(0.00109493 -0.0542462 0)
(0.00417831 -0.0522276 0)
(0.0045094 -0.0482608 0)
(0.00210196 -0.0519075 0)
(0.00150071 -0.0503026 0)
(0.00080261 -0.0496778 0)
(0.000360816 -0.0487506 0)
(1.17545e-11 -5.14667e-05 0)
(1.13831e-11 -5.14833e-05 0)
(8.48405e-07 -2.26182e-05 0)
(1.10233e-11 -5.14992e-05 0)
(-0.000310513 -0.00518681 0)
(-0.000300564 -0.00496541 0)
(-0.00185196 0.00116704 0)
(-0.00205866 -0.0111187 0)
(-0.000319383 -0.00537928 0)
(-0.00186624 -0.0104611 0)
(-0.00241359 -0.00989585 0)
(-0.00203804 -0.00913532 0)
(0.000675826 -0.00829862 0)
(-0.00254347 -0.00840124 0)
(-0.00260588 -0.007624 0)
(-0.00128133 -0.00573769 0)
(0.000588295 -0.0110817 0)
(-0.00172382 -0.0140866 0)
(-0.00158506 -0.012233 0)
(0.000524659 -0.00894562 0)
(-0.000706189 -0.0159685 0)
(-0.00144779 -0.0107142 0)
(-0.00164223 -0.0155062 0)
(-0.00336461 -0.0168036 0)
(-0.00311236 -0.00274025 0)
(-0.00969457 -0.0159714 0)
(-0.0141366 -0.00955116 0)
(-0.00266486 -0.0519623 0)
(-0.00171794 -0.0515183 0)
(-0.00154162 -0.050448 0)
(-0.000432565 -0.0531312 0)
(-0.000573444 -0.0544691 0)
(-0.000111477 -0.0562065 0)
(-0.00143109 -0.0576112 0)
(-0.00447809 -0.0582728 0)
(-0.0035549 -0.0579899 0)
(-0.00228844 -0.0559467 0)
(-0.00317383 -0.0495001 0)
(0.000680895 -0.051612 0)
(0.000785738 -0.0513936 0)
(0.000399365 -0.0473281 0)
(0.000861161 -0.0475926 0)
(0.000366402 -0.0444312 0)
(-0.000529198 -0.0456211 0)
(0.000131638 -0.0456067 0)
(0.000330561 -0.0453137 0)
(0.000225773 -0.0451604 0)
(0.000209651 -0.0443251 0)
(4.26144e-05 -0.0425102 0)
(-0.000729251 -0.0397365 0)
(0.000288874 -0.0420367 0)
(-0.000834535 -0.0392692 0)
(0.000803703 -0.0397886 0)
(0.000234967 -0.042452 0)
(-0.0024453 -0.0395593 0)
(-0.000276048 -0.0434752 0)
(-0.000453524 -0.0479201 0)
(-2.01079e-05 -0.0492872 0)
(-0.000295587 -0.0501321 0)
(7.047e-05 -0.049148 0)
(-0.000624078 -0.0488009 0)
(-0.000477986 -0.0479827 0)
(0.000392778 -0.0480694 0)
(0.000121578 -0.0456921 0)
(0.000206463 -0.0455185 0)
(-0.00114051 -0.046754 0)
(-0.0030713 -0.0495701 0)
(-0.000776459 -0.0525797 0)
(0.00138997 -0.0551855 0)
(0.00211263 -0.0485618 0)
(0.00287452 -0.0485681 0)
(0.00114867 -0.0491727 0)
(0.00060732 -0.048405 0)
(0.000748661 -0.0497466 0)
(0.000113889 -0.0489378 0)
(-1.19885e-11 -5.13514e-05 0)
(-1.14789e-11 -5.13823e-05 0)
(0.000420774 -0.00126051 0)
(-1.09909e-11 -5.14117e-05 0)
(-0.00217177 -0.00481225 0)
(-0.000240571 0.000380742 0)
(-0.00155249 -0.00765526 0)
(-0.000159157 -0.000242218 0)
(-0.00877866 -0.0100622 0)
(0.00314885 -0.00441397 0)
(-0.00171263 -0.00864281 0)
(-0.00376869 -0.000773853 0)
(-0.0024851 -0.00187027 0)
(-0.00186069 -0.00747509 0)
(-0.00109165 -0.0129028 0)
(-0.00138133 -0.0136651 0)
(-0.00136487 -0.0115681 0)
(-0.00103846 -0.0136512 0)
(-0.00182166 -0.01161 0)
(-0.00174634 -0.0103269 0)
(-0.000391037 -0.0089458 0)
(-0.000919751 -0.0137503 0)
(-8.11541e-05 -0.00971742 0)
(0.00208514 0.00140546 0)
(-0.0133111 -0.0172609 0)
(-0.00288577 -0.0227459 0)
(-0.000811378 -0.0487199 0)
(-0.000462925 -0.0485772 0)
(-0.000231663 -0.0496671 0)
(-0.00012081 -0.0496913 0)
(-0.0004003 -0.050209 0)
(-0.000129435 -0.0504611 0)
(-0.00018028 -0.0512552 0)
(-0.00216129 -0.0495155 0)
(-0.00519224 -0.0527885 0)
(-0.00245357 -0.0567434 0)
(-0.00432098 -0.0542929 0)
(0.00134209 -0.0521066 0)
(0.00166148 -0.049709 0)
(-5.42345e-05 -0.0496068 0)
(0.00149586 -0.0461945 0)
(0.000578516 -0.0474071 0)
(2.45399e-05 -0.0483137 0)
(0.000365304 -0.0472494 0)
(-0.000672686 -0.0461543 0)
(-0.00142152 -0.0442676 0)
(-0.00147889 -0.0478229 0)
(-0.00273273 -0.043564 0)
(-0.000356602 -0.0469588 0)
(-0.000289301 -0.0469553 0)
(-7.03987e-05 -0.0459379 0)
(-0.00126617 -0.0454188 0)
(0.000231461 -0.044356 0)
(6.12515e-05 -0.0424377 0)
(0.000669243 -0.0465266 0)
(0.000437664 -0.0507088 0)
(-7.92376e-05 -0.0511596 0)
(-0.000506681 -0.0509884 0)
(-0.000815983 -0.0514265 0)
(-0.000196262 -0.0497367 0)
(5.37918e-06 -0.0491147 0)
(0.000174961 -0.04954 0)
(3.92651e-05 -0.0488982 0)
(0.000379487 -0.0468939 0)
(0.000153644 -0.046426 0)
(0.001779 -0.0493892 0)
(0.00105594 -0.0516569 0)
(-0.000994001 -0.0557542 0)
(0.00089021 -0.0527688 0)
(0.00151429 -0.0487119 0)
(9.69426e-05 -0.0512465 0)
(0.000320756 -0.0501374 0)
(0.000279216 -0.0483738 0)
(-6.43939e-05 -0.0479888 0)
(0.000258415 -0.047745 0)
(2.22264e-11 -5.13435e-05 0)
(2.12792e-11 -5.13751e-05 0)
(-7.27025e-05 -0.00314662 0)
(2.03723e-11 -5.14053e-05 0)
(0.000146943 -0.000565165 0)
(-0.000871155 -0.00705256 0)
(-0.00154724 -0.00946215 0)
(1.77378e-05 -0.00153189 0)
(-0.00331374 -0.00445804 0)
(-0.00184121 -0.00879555 0)
(-0.0011452 -0.0085206 0)
(-0.00177772 -0.00821387 0)
(-0.000884264 -0.0129532 0)
(0.00555566 -0.014974 0)
(0.000500939 -0.0129804 0)
(0.000460833 -0.0131937 0)
(0.000323924 -0.0135889 0)
(0.000330891 -0.00916043 0)
(0.000112268 -0.0151976 0)
(8.42498e-05 -0.0154932 0)
(-0.00119201 -0.0183815 0)
(-0.00329032 -0.0186907 0)
(0.00692123 -0.0188436 0)
(-0.00206143 -0.0197296 0)
(0.00257021 -0.0466856 0)
(-0.000482325 -0.0456302 0)
(0.00026758 -0.0477305 0)
(-0.000143088 -0.046423 0)
(-0.000326665 -0.046621 0)
(-0.00140669 -0.0426758 0)
(-0.00180855 -0.043951 0)
(-0.00225304 -0.0441156 0)
(-0.00352593 -0.0482851 0)
(-0.00801486 -0.0486363 0)
(-0.00111093 -0.0473374 0)
(-0.00133644 -0.051047 0)
(-0.000676986 -0.0521298 0)
(0.000334861 -0.0503976 0)
(-1.86211e-05 -0.0486504 0)
(3.72725e-05 -0.0483833 0)
(0.00103735 -0.0474527 0)
(0.000657394 -0.0466652 0)
(0.00033937 -0.0444586 0)
(-0.000311842 -0.0441525 0)
(5.23413e-05 -0.04427 0)
(9.89541e-05 -0.0449921 0)
(-0.000110727 -0.0455077 0)
(-0.000156392 -0.0473897 0)
(-0.000817035 -0.0477077 0)
(-0.000738579 -0.0483512 0)
(-0.000736368 -0.051186 0)
(-0.000728945 -0.051944 0)
(8.06378e-05 -0.049705 0)
(2.56956e-05 -0.0495332 0)
(4.61918e-05 -0.0510365 0)
(-0.000227671 -0.0516154 0)
(-0.000133369 -0.0521428 0)
(0.000338103 -0.0525996 0)
(-0.000296068 -0.054663 0)
(-0.00114504 -0.0511729 0)
(-0.00189421 -0.049442 0)
(-0.00133337 -0.0510774 0)
(-0.000847577 -0.0520724 0)
(-1.5273e-05 -0.0533326 0)
(0.00224764 -0.0532873 0)
(0.000824028 -0.0522017 0)
(0.000311081 -0.0529098 0)
(-0.00144079 -0.0541174 0)
(-0.00127607 -0.0522463 0)
(0.000977135 -0.0516986 0)
(0.000403689 -0.0506907 0)
(0.000188027 -0.0500878 0)
(0.000539413 -0.0492028 0)
(0.000897922 -0.0475083 0)
(-0.000318938 -0.045268 0)
(4.99897e-11 -5.14322e-05 0)
(4.82454e-11 -5.14525e-05 0)
(0.00025975 -0.00143762 0)
(4.65618e-11 -5.14721e-05 0)
(0.000218881 -0.0013903 0)
(0.000218716 -0.00383892 0)
(3.29696e-05 -0.00515397 0)
(-0.00200962 -0.00521398 0)
(-0.000609262 -0.00486805 0)
(-0.00244162 -0.00534472 0)
(-0.000484817 -0.00753868 0)
(-0.000510336 -0.00638279 0)
(-0.000218702 -0.00649812 0)
(-0.000110201 -0.0105821 0)
(0.00139442 -0.0099246 0)
(0.00126684 -0.0149132 0)
(0.000917083 -0.0127735 0)
(0.000858016 -0.0117748 0)
(0.0003653 -0.0101456 0)
(0.000529299 -0.017604 0)
(-0.00104892 -0.00346004 0)
(4.62679e-05 -0.0078072 0)
(0.0132619 -0.0131796 0)
(-0.00184335 -0.0254424 0)
(-0.000510916 -0.0478461 0)
(0.000626178 -0.045796 0)
(-1.89542e-05 -0.0457487 0)
(0.000238441 -0.0458366 0)
(-1.65004e-05 -0.0460457 0)
(6.82457e-05 -0.0433307 0)
(-0.000474278 -0.0449949 0)
(0.000892452 -0.0462547 0)
(-0.00103509 -0.0487964 0)
(-0.00143877 -0.0476578 0)
(-0.00137418 -0.0475092 0)
(-0.00104711 -0.0498547 0)
(-0.000105953 -0.0479306 0)
(0.000516556 -0.0474144 0)
(-8.18572e-05 -0.0470122 0)
(-0.000155626 -0.0476284 0)
(0.00210931 -0.0444744 0)
(0.000859229 -0.0475829 0)
(5.18853e-05 -0.0477536 0)
(0.000815898 -0.0446962 0)
(0.000164708 -0.0449112 0)
(-0.00020543 -0.0475979 0)
(-0.000103152 -0.0486169 0)
(-0.000314725 -0.0484164 0)
(-0.000319401 -0.0479419 0)
(0.000151709 -0.0488952 0)
(-0.000547705 -0.0517498 0)
(0.000142683 -0.0501296 0)
(-0.000126737 -0.0511201 0)
(-0.000610178 -0.0511286 0)
(-0.000200429 -0.051889 0)
(0.000551985 -0.0505893 0)
(0.000966744 -0.0493156 0)
(0.000144537 -0.0506557 0)
(-0.00127004 -0.0518027 0)
(-0.00142532 -0.0515835 0)
(-0.000857207 -0.0529614 0)
(-0.00102794 -0.0529718 0)
(0.00188523 -0.0535514 0)
(-0.00058784 -0.0547852 0)
(0.00011323 -0.0532583 0)
(-5.82896e-05 -0.0538344 0)
(-0.000960827 -0.0506895 0)
(-0.00044771 -0.0519105 0)
(-0.000227844 -0.0520049 0)
(-0.000631478 -0.0514213 0)
(0.000404259 -0.0502062 0)
(0.000345892 -0.048913 0)
(-2.75064e-05 -0.0480228 0)
(-0.000197294 -0.0471238 0)
(0.000762444 -0.0456069 0)
(1.01826e-11 -5.13934e-05 0)
(9.78928e-12 -5.14185e-05 0)
(-0.000154615 -0.00590561 0)
(9.41109e-12 -5.14425e-05 0)
(-0.000175454 -0.000298909 0)
(-1.69829e-05 -1.07e-05 0)
(0.000492072 -0.00977677 0)
(1.68444e-05 -0.00669685 0)
(0.000284129 -0.00870555 0)
(0.00421519 -0.00454805 0)
(0.00054718 -0.0148255 0)
(0.000690297 -0.0150985 0)
(-1.68608e-05 -0.00372687 0)
(0.000540183 -0.0115046 0)
(0.000333978 -0.0108544 0)
(0.000492902 -0.0117349 0)
(0.000707177 -0.0101012 0)
(0.00032051 -0.00942346 0)
(2.74208e-05 -0.0108818 0)
(0.000250943 -0.00866638 0)
(-0.000526059 -0.0180801 0)
(-0.00715267 -0.0118293 0)
(0.000468332 -0.0217938 0)
(0.00238929 -0.0317498 0)
(-0.000863992 -0.0465562 0)
(-0.000807092 -0.04505 0)
(0.000128143 -0.0446294 0)
(-6.91145e-05 -0.0448193 0)
(-0.000277787 -0.0462916 0)
(0.000506351 -0.0467057 0)
(0.000373404 -0.0476656 0)
(-0.000292422 -0.0471666 0)
(-0.00171928 -0.0474013 0)
(-0.00044422 -0.0469258 0)
(-0.000587519 -0.0471938 0)
(-0.000347316 -0.0467966 0)
(-0.000308981 -0.0467227 0)
(0.000287685 -0.0468343 0)
(2.37378e-05 -0.0462292 0)
(-0.00174412 -0.0475422 0)
(-0.00121244 -0.0460397 0)
(0.00118499 -0.0510422 0)
(-0.00101928 -0.0478958 0)
(0.000286829 -0.0492093 0)
(0.000231203 -0.0480518 0)
(-0.000972895 -0.0474711 0)
(-0.000562567 -0.0480067 0)
(-0.000220861 -0.0482865 0)
(0.000262123 -0.0492112 0)
(-0.000674667 -0.0499035 0)
(-0.000630153 -0.0507654 0)
(0.00028491 -0.05129 0)
(-0.000409413 -0.0508242 0)
(-0.000119101 -0.048907 0)
(6.25495e-05 -0.0495084 0)
(8.52675e-05 -0.0501738 0)
(7.23034e-06 -0.0506125 0)
(-1.08311e-05 -0.0513562 0)
(0.000333262 -0.0503566 0)
(-0.00283128 -0.0537174 0)
(-9.75361e-05 -0.0556096 0)
(-0.00048201 -0.0559295 0)
(-0.000487825 -0.0524301 0)
(2.14139e-06 -0.0528927 0)
(-0.000120545 -0.0538612 0)
(-9.98902e-05 -0.0508235 0)
(-0.000205177 -0.0509421 0)
(-0.000235523 -0.0522116 0)
(-0.000374095 -0.0481395 0)
(-0.000503223 -0.0474801 0)
(-0.000317617 -0.0470228 0)
(-0.000236246 -0.0467607 0)
(-0.000100462 -0.0465636 0)
(9.73479e-06 -0.0450499 0)
(-0.000502952 -0.0443311 0)
(2.15279e-11 -5.14674e-05 0)
(2.08493e-11 -5.14839e-05 0)
(0.000567793 -0.00451908 0)
(2.0192e-11 -5.14998e-05 0)
(0.000161798 0.00023219 0)
(0.000447466 -0.0146506 0)
(0.000119251 -0.00678084 0)
(6.94516e-05 -0.0068434 0)
(0.000881396 -0.00722619 0)
(0.000457871 -0.0109926 0)
(0.000236523 -0.00634076 0)
(0.000574464 -0.00725584 0)
(0.00234471 -0.013321 0)
(0.00135175 -0.0126033 0)
(3.65971e-05 -0.0145466 0)
(0.00103687 -0.0129069 0)
(-7.41647e-05 -0.0105062 0)
(-0.000219371 -0.0100788 0)
(0.000131651 -0.0107971 0)
(0.000172198 -0.00844424 0)
(-0.00065648 -0.0148391 0)
(-0.0014695 -0.0173287 0)
(-0.0164964 -0.00725278 0)
(0.00577508 -0.0213615 0)
(0.00195942 -0.0472453 0)
(-0.000237021 -0.0476085 0)
(2.68958e-05 -0.0449214 0)
(0.00141076 -0.0450092 0)
(-0.000184828 -0.0470649 0)
(-4.24077e-06 -0.04882 0)
(-0.000518069 -0.0494296 0)
(7.87149e-05 -0.0505302 0)
(-0.000862303 -0.0471495 0)
(-0.00157306 -0.0493214 0)
(-0.0012625 -0.047897 0)
(-0.00133647 -0.0476195 0)
(-0.00165322 -0.0506858 0)
(0.000157107 -0.0492908 0)
(-0.000113603 -0.0477558 0)
(6.60795e-05 -0.0483647 0)
(0.000168964 -0.0518272 0)
(0.00106391 -0.0503315 0)
(0.000575643 -0.0490843 0)
(0.000667722 -0.0468338 0)
(0.000372797 -0.050001 0)
(-0.000383706 -0.0499942 0)
(0.000638875 -0.0490092 0)
(-0.000416297 -0.048014 0)
(-0.000599692 -0.0465917 0)
(-0.00186916 -0.0485627 0)
(-0.000716199 -0.0499537 0)
(-0.000259706 -0.0501354 0)
(0.000165397 -0.0498553 0)
(0.00109672 -0.0489848 0)
(0.00048749 -0.0482793 0)
(-0.000316165 -0.0513745 0)
(-0.000249921 -0.0502112 0)
(0.000209445 -0.0500434 0)
(-0.000442543 -0.052226 0)
(0.000209368 -0.0527886 0)
(0.000510882 -0.0529608 0)
(-0.000621499 -0.0520274 0)
(0.000756062 -0.0482984 0)
(3.1833e-05 -0.0487455 0)
(-0.000351928 -0.0491272 0)
(9.62731e-05 -0.0495611 0)
(0.000182496 -0.0478754 0)
(0.000664637 -0.0454445 0)
(-0.00012397 -0.0470149 0)
(8.17044e-05 -0.0458219 0)
(0.000396441 -0.0451512 0)
(0.000503148 -0.0451452 0)
(0.000836695 -0.0470047 0)
(-0.0006297 -0.048656 0)
(-0.000114226 -0.0467108 0)
(-3.48117e-13 -5.13934e-05 0)
(-3.34673e-13 -5.14185e-05 0)
(0.00014029 -0.000391846 0)
(-3.21747e-13 -5.14425e-05 0)
(0.000179985 -0.0147624 0)
(6.97364e-05 -0.00113907 0)
(0.000941887 -0.00940859 0)
(0.00148423 -0.00935039 0)
(0.00019393 -0.00654059 0)
(8.19037e-05 -0.0079042 0)
(0.000904943 -0.00764376 0)
(-0.000125754 -0.00743711 0)
(-0.00111238 -0.0114056 0)
(-0.00185064 -0.0110906 0)
(-0.000219931 -0.0114089 0)
(-0.000295041 -0.00984641 0)
(-0.00108779 -0.0104593 0)
(-0.001057 -0.0086839 0)
(-0.00107718 -0.00800525 0)
(-0.00109182 -0.00733839 0)
(-0.000869025 -0.0143444 0)
(-0.000687785 -0.0169662 0)
(-0.00111004 -0.00316212 0)
(-0.0124134 -0.0230131 0)
(0.00570277 -0.0221941 0)
(0.00249643 -0.0465491 0)
(6.88522e-05 -0.0474281 0)
(0.00121136 -0.049058 0)
(0.000169679 -0.0490012 0)
(8.72177e-06 -0.0488186 0)
(0.000533127 -0.0493167 0)
(0.000934746 -0.0496484 0)