/*--------------------------------*- C++ -*----------------------------------*\
  =========                 |
  \\      /  F ield         | OpenFOAM: The Open Source CFD Toolbox
   \\    /   O peration     | Website:  https://openfoam.org
    \\  /    A nd           | Version:  12
     \\/     M anipulation  |
\*---------------------------------------------------------------------------*/
FoamFile
{
    format      ascii;
    class       volScalarField::Internal;
    location    "0.9";
    object      cloud:UCoeff;
}
// * * * * * * * * * * * * * * * * * * * * * * * * * * * * * * * * * * * * * //

dimensions      [1 0 0 0 0 0 0];

value           nonuniform List<scalar> 
3750
(
3.46767e-05
1.88254e-06
7.85007e-08
5.41685e-08
2.55792e-08
2.47384e-08
0
2.45271e-08
0
5.91948e-08
0
2.53523e-08
2.40881e-08
9.67583e-08
2.19776e-08
5.53009e-08
2.29228e-08
2.37169e-08
2.38828e-08
0
0
5.5956e-08
2.28627e-08
0
0
2.26745e-08
0
5.58129e-08
2.26568e-08
2.44186e-08
0
8.61169e-09
8.1961e-09
2.48621e-08
2.40646e-08
2.22291e-08
0
5.61651e-08
2.35752e-08
2.44102e-08
2.48966e-08
0
2.40748e-08
2.43811e-08
5.606e-08
2.28974e-08
2.33093e-08
2.31559e-08
0
6.33962e-08
2.38953e-08
2.21113e-08
2.33751e-08
2.41234e-08
5.67353e-08
2.27513e-08
5.40043e-08
2.33346e-08
2.42325e-08
0
2.42028e-08
2.41231e-08
5.49811e-08
2.31062e-08
2.3959e-08
2.38821e-08
2.51121e-08
1.33148e-08
2.47543e-10
2.46952e-08
2.47488e-08
2.47544e-08
2.32578e-08
5.65728e-08
2.35232e-08
0.000115054
1.57372e-07
1.11943e-07
2.36015e-08
6.36638e-08
0
2.22363e-08
2.38832e-08
2.66643e-08
0
2.51595e-08
2.48554e-09
4.09325e-08
2.88843e-08
3.51065e-08
3.91514e-08
0
5.94142e-08
0
2.68333e-08
0
1.85383e-09
5.30808e-08
0
2.38399e-08
0
5.73098e-08
5.63366e-08
2.32594e-08
2.38503e-08
0
2.46068e-08
0
0
2.53095e-08
5.59882e-08
5.63646e-08
2.27699e-08
5.6236e-08
2.46955e-08
0
2.30584e-08
0
2.38877e-08
2.37453e-08
2.37335e-08
2.5564e-08
2.42049e-08
2.62616e-08
0
5.93941e-08
2.21721e-08
0
0
0
5.6698e-08
5.57548e-08
5.64266e-08
2.34573e-08
2.40411e-08
2.43024e-08
5.79148e-08
2.29603e-08
9.47184e-08
5.5045e-08
2.31263e-08
2.48024e-08
0
2.45797e-08
2.46641e-08
2.48865e-08
2.43872e-08
2.45176e-08
2.32696e-08
2.39334e-08
3.65219e-06
6.22018e-07
1.1942e-07
2.29871e-08
6.01565e-08
1.26341e-09
2.19989e-08
2.42624e-08
2.7229e-08
2.52835e-08
0
2.25559e-08
5.39367e-08
2.253e-08
2.22553e-08
2.32202e-08
0
5.59644e-08
9.88639e-08
0
0
0
2.34698e-08
2.48021e-08
0
0
2.24063e-08
0
9.69415e-08
2.27132e-10
2.43853e-08
3.23868e-08
4.76096e-08
5.76195e-08
0
2.42862e-08
5.56535e-08
5.55551e-08
2.34114e-08
2.29231e-08
0
2.44452e-08
2.46434e-08
0
6.00785e-08
2.43384e-08
0
2.4707e-08
5.71003e-08
5.72131e-08
2.40377e-08
5.66623e-08
0
0
2.50211e-08
5.68167e-08
2.22603e-08
5.34568e-08
2.475e-08
0
2.41466e-08
2.39635e-08
4.03353e-08
3.5214e-08
2.33308e-08
1.73124e-09
2.09379e-08
2.51937e-08
0
0
2.3997e-08
0
0
5.74795e-08
5.72911e-08
7.86974e-06
7.56791e-07
4.67207e-08
5.50801e-08
5.70835e-08
2.353e-08
2.33468e-08
2.53025e-08
2.67254e-08
2.49899e-08
2.31255e-08
0
2.37265e-08
2.33094e-08
0
2.38333e-08
6.73712e-09
1.0726e-08
2.43584e-08
2.24267e-08
2.45641e-08
0
2.38309e-08
2.42734e-08
2.33188e-08
5.61099e-08
5.70577e-08
0
2.24153e-08
2.37148e-08
2.36181e-08
2.37376e-08
2.38022e-08
2.39955e-08
2.50348e-08
5.81924e-08
2.32104e-08
2.1714e-08
5.49823e-08
5.57786e-08
2.40249e-08
2.51436e-08
5.72375e-08
2.2274e-08
5.43205e-08
2.33048e-08
0
2.58138e-08
0
2.35238e-08
2.43926e-08
5.64956e-08
2.15995e-08
5.95292e-08
2.44992e-08
2.36242e-08
2.32819e-08
2.3453e-08
2.41336e-08
2.55333e-08
2.50599e-08
5.60406e-08
5.74531e-08
0
0
0
5.73975e-08
2.38116e-08
2.49931e-08
2.55614e-08
2.52725e-08
2.49719e-08
0
2.40709e-08
2.38136e-08
1.45386e-05
1.09466e-06
4.2694e-08
0
2.37006e-08
2.45383e-08
3.25055e-08
4.83271e-08
2.46669e-08
5.97756e-08
2.38451e-08
2.52338e-08
2.38601e-08
0
2.3894e-08
2.42429e-08
2.39159e-08
2.42905e-08
2.42009e-08
2.35357e-08
2.35172e-08
2.36941e-08
2.36352e-08
5.76126e-08
2.31831e-08
2.33932e-08
2.35771e-08
2.34287e-08
5.7074e-08
2.38676e-08
2.38327e-08
5.69425e-08
2.40587e-08
2.33475e-08
6.3341e-08
2.38434e-08
0
2.30638e-08
0
0
6.2402e-08
2.46002e-08
2.28112e-08
2.32652e-08
0
2.34714e-08
9.94274e-08
2.32586e-08
2.36623e-08
0
2.42397e-08
0
5.86404e-08
2.43977e-08
2.38976e-08
5.66462e-08
5.63858e-08
0
6.20058e-08
2.49067e-08
2.28734e-08
5.54887e-08
0
2.31577e-08
2.41556e-08
1.82851e-10
2.37513e-08
2.43913e-08
2.47707e-08
2.54363e-08
2.51127e-08
2.41032e-08
0
2.43863e-08
2.47234e-08
1.70562e-05
7.43081e-07
3.6393e-08
2.33709e-08
2.34524e-08
2.39995e-08
2.46016e-08
2.48587e-08
2.49972e-08
2.48947e-08
2.43358e-08
2.47646e-08
2.54838e-08
2.39718e-08
2.39608e-08
5.91965e-08
2.34105e-08
2.29926e-08
5.88619e-08
2.29192e-08
2.29665e-08
2.35498e-08
2.43925e-08
2.43822e-08
2.44193e-08
2.44904e-08
2.31296e-09
5.21864e-08
2.37786e-08
0
0
2.41612e-08
2.46819e-08
0
0
0
5.87761e-08
2.28843e-08
2.27381e-08
5.92469e-08
2.40972e-08
2.4394e-08
2.41152e-08
2.73538e-08
5.27845e-08
5.72871e-08
2.3263e-08
2.359e-08
0
2.394e-08
5.65579e-08
0
2.33559e-08
2.46496e-08
2.47863e-08
2.38609e-08
2.35492e-08
2.29167e-08
5.95316e-08
2.49794e-08
2.31967e-08
0
2.3774e-08
2.32396e-08
2.40632e-08
0
0
2.4715e-08
2.53654e-08
2.7463e-08
0
2.47388e-08
2.38328e-08
2.40033e-08
2.45371e-08
7.82169e-06
7.42439e-07
1.49059e-07
0
3.31689e-08
2.26805e-08
1.85908e-08
2.49294e-08
2.48906e-08
2.47709e-08
2.40523e-08
2.59162e-08
0
2.36704e-08
2.40907e-08
2.45544e-08
2.43214e-08
5.73419e-08
2.35457e-08
5.70315e-08
0
0
2.42245e-08
3.07311e-08
1.85368e-08
0
2.37414e-08
2.39034e-08
2.42167e-08
2.38782e-08
2.38096e-08
5.69235e-08
2.40005e-08
5.85184e-08
2.3894e-08
5.6942e-08
2.33085e-08
2.44421e-08
2.44765e-08
2.36319e-08
2.38687e-08
2.42657e-08
2.37711e-08
2.38247e-08
2.31824e-08
2.38493e-08
2.41002e-08
2.40709e-08
2.39623e-08
2.39699e-08
0
2.25789e-08
6.18039e-08
3.89785e-09
9.41833e-08
0
5.79189e-08
2.37832e-08
0
2.45629e-08
2.40218e-08
0
2.41866e-08
1.25629e-08
1.13163e-09
2.49156e-08
2.48158e-08
2.44749e-08
2.44974e-08
2.55159e-08
2.58923e-08
3.94144e-08
4.06481e-08
2.35557e-08
4.08281e-08
6.75244e-06
4.74088e-07
2.08212e-07
2.48251e-08
0
2.54347e-08
2.5514e-08
2.47869e-08
2.4961e-08
2.48128e-08
2.45941e-08
2.50665e-08
0
2.46224e-08
2.37938e-08
0
2.39657e-08
2.33212e-08
5.76904e-08
0
2.31968e-08
5.78405e-08
0
2.42156e-08
2.4691e-08
5.76196e-08
2.26108e-08
2.43622e-08
2.37935e-08
2.38826e-08
2.36459e-08
2.44187e-08
2.42975e-08
2.43629e-08
2.48726e-08
2.4116e-08
2.35752e-08
0
5.8683e-08
2.32644e-08
5.65691e-08
2.35245e-08
2.35996e-08
2.37998e-08
2.78229e-08
2.00141e-08
2.32481e-08
2.36215e-08
2.36087e-08
0
5.70543e-08
2.33351e-08
2.46991e-08
2.45105e-08
2.4234e-08
2.40467e-08
2.33269e-08
2.37335e-08
2.40925e-08
2.5165e-08
2.45979e-08
2.39305e-08
0
2.30209e-08
2.40241e-08
4.46625e-08
3.17189e-09
2.57221e-08
2.6568e-08
2.55709e-08
2.38032e-08
2.32022e-08
6.06853e-08
2.33842e-08
5.49285e-08
2.01024e-05
1.13253e-06
1.51153e-07
0
2.40302e-08
2.5848e-08
2.43208e-08
2.41934e-08
2.46625e-08
2.52331e-08
0
0
2.41705e-08
5.7948e-08
2.3988e-08
2.39747e-08
5.71988e-08
7.39254e-08
3.84913e-08
5.6684e-08
2.27673e-08
0
5.66176e-08
2.29627e-08
2.39273e-08
2.33754e-08
2.35956e-08
6.11427e-08
0
5.52172e-08
5.52016e-08
2.37739e-08
2.45557e-08
2.49232e-08
2.50193e-08
2.47108e-08
2.34388e-08
2.37729e-08
5.66e-08
2.40734e-08
2.396e-08
5.71683e-08
0
2.3796e-08
2.46035e-08
5.68506e-08
2.35373e-08
2.37247e-08
2.37801e-08
2.37232e-08
2.37885e-08
2.35595e-08
6.00683e-08
0
2.47088e-08
0
2.41553e-08
2.39631e-08
2.39399e-08
6.21492e-08
2.39653e-08
2.27969e-08
5.42678e-08
5.53725e-08
5.62276e-08
5.52087e-08
2.45751e-08
2.79383e-08
2.71507e-08
2.40155e-08
2.24195e-08
2.17441e-08
5.70925e-08
1.00111e-07
2.30032e-08
1.45847e-05
9.50396e-07
1.53768e-07
2.07452e-08
5.62257e-08
6.07695e-08
2.38106e-08
5.82081e-08
0
0
2.41241e-08
2.36735e-08
2.34118e-08
5.88928e-08
2.39007e-08
0
0
0
2.30132e-08
5.78023e-08
2.32316e-08
2.37298e-08
5.50078e-08
2.15737e-08
2.28076e-08
2.4583e-08
2.39409e-08
5.79357e-08
2.37271e-08
2.33233e-08
2.34209e-08
2.32772e-08
2.32486e-08
2.6308e-08
0
0
2.41154e-08
2.40051e-08
2.40076e-08
2.45708e-08
2.46762e-08
2.40044e-08
2.36315e-08
2.43983e-08
2.51989e-08
0
5.68063e-08
2.36184e-08
2.32988e-08
5.82521e-08
2.33278e-08
2.3459e-08
0
2.39657e-08
2.44942e-08
2.45187e-08
0
2.41261e-08
2.4531e-08
2.43736e-08
5.89006e-08
5.60395e-08
2.24433e-08
5.55671e-08
1.03923e-07
9.85425e-08
5.06803e-08
6.13344e-08
0
2.56579e-08
2.37088e-08
0
5.6177e-08
2.37442e-08
2.41982e-08
9.16761e-06
7.39479e-07
1.50361e-07
5.24765e-08
5.47752e-08
2.3583e-08
0
5.87311e-08
6.34307e-08
2.37793e-08
2.25346e-08
2.28276e-08
0
0
5.92923e-08
4.45328e-08
6.71775e-08
5.34773e-08
2.33892e-08
2.38504e-08
7.69246e-08
7.48264e-08
2.21219e-08
2.24885e-08
0
2.36069e-08
0
2.49615e-08
2.45684e-08
2.38239e-08
2.34872e-08
4.56148e-08
1.96215e-09
2.39664e-08
2.44837e-08
2.49318e-08
2.51078e-08
2.36521e-08
2.32618e-08
2.4237e-08
2.47771e-08
2.383e-08
2.39529e-08
2.54101e-08
2.41537e-08
2.35114e-08
2.33879e-08
5.81984e-08
2.32147e-08
2.36288e-08
2.42242e-08
0
2.43331e-08
2.44622e-08
2.41304e-08
0
2.43376e-08
2.42308e-08
2.4508e-08
0
2.41363e-08
2.34441e-08
2.33668e-08
0
0
0
5.83122e-08
9.88234e-08
9.70543e-08
5.34076e-08
2.41161e-08
0
2.4135e-08
2.38109e-08
2.64507e-08
5.79013e-06
9.34342e-07
2.82212e-07
0
0
2.3309e-08
2.27762e-08
6.21455e-08
2.52583e-08
2.35685e-08
2.30947e-08
3.77029e-08
3.89706e-08
2.55971e-08
2.50746e-08
0
2.26351e-08
2.13712e-08
6.13864e-08
0
2.2482e-08
0
0
5.53712e-08
2.31979e-08
2.37316e-08
2.46453e-08
2.50007e-08
2.44491e-08
2.36774e-08
2.34638e-08
2.42727e-08
2.37116e-08
0
2.3658e-08
6.32529e-08
0
2.29947e-08
2.29132e-08
6.01417e-08
2.41915e-08
2.27306e-08
2.31164e-08
2.42912e-08
2.46037e-08
2.42084e-08
2.3791e-08
2.34669e-08
2.36581e-08
2.40077e-08
2.40557e-08
2.42113e-08
2.50167e-08
0
9.81751e-09
3.40299e-08
5.76499e-08
2.36056e-08
2.45055e-08
0
2.3653e-08
5.60395e-08
0
2.30933e-08
6.33575e-08
2.46398e-08
0
0
2.48542e-08
2.46339e-08
2.46313e-08
2.41858e-08
5.70507e-08
5.68766e-08
2.33364e-08
9.15524e-06
5.00717e-07
2.12271e-07
2.1489e-08
2.28267e-08
5.52564e-08
2.32209e-08
2.40094e-08
6.25506e-08
2.42589e-08
3.01751e-08
4.75294e-08
2.32809e-08
5.92516e-08
2.49191e-08
2.34207e-08
2.31442e-08
2.40662e-08
0
0
2.40269e-08
5.6145e-08
0
0
4.00675e-08
3.71751e-08
2.5076e-08
2.60398e-08
2.49883e-08
2.3356e-08
2.3027e-08
2.37627e-08
2.44716e-08
0
5.71041e-08
2.44076e-08
5.38605e-09
1.38655e-08
5.67637e-08
2.30191e-08
5.9175e-08
2.40352e-08
2.40584e-08
2.41694e-08
2.41104e-08
2.39315e-08
2.37328e-08
2.40066e-08
2.359e-08
5.81271e-08
2.35796e-08
2.35588e-08
2.43059e-08
0
0
2.35729e-08
2.31576e-08
2.41809e-08
2.6194e-08
0
2.4612e-08
2.40518e-08
2.40245e-08
0
2.52859e-08
2.5588e-08
0
2.37543e-08
0
2.45649e-08
0
0
2.50148e-08
2.5207e-08
0
9.28616e-06
7.64984e-07
1.06565e-07
2.19805e-08
2.28516e-08
2.34284e-08
2.35675e-08
2.42621e-08
6.33449e-08
2.45114e-08
2.26978e-08
2.29702e-08
2.31052e-08
6.21773e-08
2.4396e-08
2.28296e-08
0
2.37802e-08
2.49933e-08
0
2.41603e-08
0
2.36775e-08
2.4116e-08
0
0
0
2.56065e-08
2.42559e-08
2.29121e-08
5.51926e-08
2.36076e-08
2.43672e-08
2.46309e-08
2.48344e-08
2.48622e-08
0
5.70375e-08
5.82772e-08
0
5.68338e-08
0
4.27051e-08
3.88327e-08
2.40211e-08
2.36124e-08
2.37073e-08
2.35701e-08
2.42489e-08
5.87578e-08
2.35913e-08
2.8442e-08
5.12092e-08
2.27939e-08
5.74057e-08
5.84789e-09
1.13574e-08
2.33106e-08
2.4629e-08
2.51818e-08
0
2.45214e-08
2.41613e-08
2.46922e-08
0
2.45429e-08
2.44917e-08
2.44467e-08
2.46361e-08
0
2.48598e-08
2.46763e-08
0
5.90384e-08
2.35192e-08
9.2579e-06
1.38219e-06
6.15459e-08
2.40091e-08
2.40983e-08
2.38483e-08
2.42822e-08
2.44908e-08
2.49097e-08
2.45262e-08
2.40109e-08
4.23108e-08
3.51668e-08
2.44186e-08
2.525e-08
2.4297e-08
8.41741e-09
7.97726e-09
0
0
2.42548e-08
0
2.39541e-08
2.42563e-08
2.40533e-08
2.3939e-08
2.43334e-08
2.46803e-08
5.81727e-08
2.37608e-08
0
2.39204e-08
2.42291e-08
2.51054e-08
2.44024e-08
2.42451e-08
2.43963e-08
0
2.32593e-08
2.39922e-08
0
6.38342e-08
0
2.39878e-08
2.41415e-08
0
2.43133e-08
0
0
2.63947e-08
1.58197e-09
5.39597e-08
2.28243e-08
2.41079e-08
2.42549e-08
2.29e-08
5.76722e-08
0
2.47298e-08
2.50606e-08
0
2.45254e-08
0
0
2.50723e-08
2.47461e-08
5.87375e-08
2.33533e-08
2.41828e-08
2.38744e-08
2.40842e-08
0
1.05888e-07
2.38847e-08
2.315e-08
1.06393e-05
6.29752e-07
7.20708e-08
2.41446e-08
2.36153e-08
2.41733e-08
2.4493e-08
2.46952e-08
2.46995e-08
2.52164e-08
2.45807e-08
2.44028e-08
2.43416e-08
2.43706e-08
2.44525e-08
2.45301e-08
0
0
2.45658e-08
0
2.43641e-08
2.39137e-08
2.37138e-08
5.77184e-08
2.30628e-08
5.57513e-08
5.60597e-08
2.31282e-08
2.39819e-08
0
2.29913e-08
2.37028e-08
6.07415e-08
2.40163e-08
2.31296e-08
5.70904e-08
2.33004e-08
0
0
0
0
2.54687e-08
2.57854e-08
2.44196e-08
2.39061e-08
2.44973e-08
0
2.41989e-08
2.52332e-08
2.66954e-08
2.49309e-08
2.39152e-08
2.38352e-08
5.71423e-08
2.33425e-08
2.32925e-08
5.68573e-08
2.33495e-08
3.41724e-08
4.63147e-08
2.4353e-08
2.44024e-08
2.45763e-08
0
2.49798e-08
2.47351e-08
2.49227e-08
2.41806e-08
5.79658e-08
2.30993e-08
2.35995e-08
2.59986e-08
2.57227e-08
2.42733e-08
2.39419e-08
4.90644e-05
2.78775e-07
6.67939e-08
2.39312e-08
2.32637e-08
2.3994e-08
2.42833e-08
5.84344e-08
2.42015e-08
0
2.45484e-08
2.43224e-08
0
2.45556e-08
2.46875e-08
2.43165e-08
2.41938e-08
2.41718e-08
2.44498e-08
2.43487e-08
2.43094e-08
2.43057e-08
5.78982e-08
2.31287e-08
5.64806e-08
2.25528e-08
2.40719e-08
2.40796e-08
0
5.72766e-08
2.28681e-08
5.64158e-08
5.80048e-08
5.73939e-08
5.62908e-08
2.28533e-08
2.25573e-08
2.32067e-08
2.38317e-08
2.27211e-08
5.72745e-08
0
0
5.67238e-08
2.38412e-08
2.38548e-08
2.37271e-08
2.38791e-08
2.46055e-08
2.52413e-08
5.80762e-08
0
2.51094e-08
8.5171e-09
3.88102e-08
2.31335e-08
2.3028e-08
2.35679e-08
2.43234e-08
2.49306e-08
2.40937e-08
5.74773e-08
3.11046e-08
1.69847e-08
2.50506e-08
2.44757e-08
2.44938e-08
2.40733e-08
5.77332e-08
2.45957e-08
2.65184e-08
0
2.51795e-08
2.45556e-08
2.43548e-08
6.88941e-06
8.98816e-07
1.08742e-07
5.72283e-08
2.23064e-08
5.65506e-08
2.36539e-08
2.41021e-08
4.05115e-09
1.6264e-08
2.44015e-08
2.49249e-08
0
2.43692e-08
2.38797e-08
2.45291e-08
2.46546e-08
2.42524e-08
2.42552e-08
2.41776e-08
3.1543e-08
1.70285e-08
2.36792e-08
5.82333e-08
2.28535e-08
2.30451e-08
2.39572e-08
2.48037e-08
2.44135e-08
2.46145e-08
3.88904e-08
4.08976e-08
2.37137e-08
5.73203e-08
5.61782e-08
5.55095e-08
2.2028e-08
5.49106e-08
5.82003e-08
3.64166e-10
2.38031e-08
2.44138e-08
5.69285e-08
2.45859e-08
2.34153e-08
5.72375e-08
5.48792e-08
2.20132e-08
6.23395e-08
0
0
5.62654e-08
0
0
2.36415e-08
5.72973e-08
0
9.64036e-08
5.69924e-08
2.40498e-08
2.37356e-08
2.39782e-08
2.33976e-08
2.31313e-08
2.49601e-08
2.4601e-08
2.40608e-08
0
2.29025e-08
0
2.47408e-08
2.57967e-08
0
2.42493e-08
2.47938e-08
2.45789e-05
9.39091e-07
1.03944e-07
2.19646e-08
2.3271e-08
5.67002e-08
2.40202e-08
0
2.4143e-08
2.45533e-08
0
2.44219e-08
2.47541e-08
0
2.41264e-08
2.44551e-08
2.43295e-08
2.43191e-08
2.37072e-08
2.44674e-08
0
0
2.4248e-08
2.43559e-08
2.38158e-08
2.38085e-08
2.38822e-08
2.42083e-08
2.70216e-08
5.6201e-08
0
2.43624e-08
2.4578e-08
2.42839e-08
2.4408e-08
2.43622e-08
2.41672e-08
2.39911e-08
2.44251e-08
0
2.3745e-08
2.45803e-08
2.57468e-08
2.47643e-08
5.59436e-08
6.23319e-08
4.5761e-08
2.36846e-08
0
3.97515e-08
4.01146e-08
2.38844e-08
2.39069e-08
0
2.35161e-08
5.80733e-08
2.29312e-08
2.29491e-08
5.61636e-08
1.01033e-07
5.72861e-08
2.34581e-08
2.93338e-08
4.67917e-08
2.36749e-08
5.85242e-08
0
2.41158e-08
0
2.33208e-08
0
5.79965e-08
2.4471e-08
2.40565e-08
2.43571e-08
1.46927e-05
7.99084e-07
1.55191e-07
2.15761e-08
5.661e-08
2.33905e-08
2.36802e-08
2.41275e-08
2.402e-08
2.42484e-08
2.42861e-08
5.71259e-08
2.50118e-08
0
2.43543e-08
2.45045e-08
2.39845e-08
2.40557e-08
2.35999e-08
0
2.41169e-08
2.45554e-08
0
0
5.83615e-08
5.64492e-08
0
2.3823e-08
2.46791e-08
0
2.49684e-08
0
2.41978e-08
2.4064e-08
2.423e-08
0
2.42223e-08
0
2.42557e-08
2.45741e-08
2.3724e-08
0
2.62449e-08
0
0
2.37115e-08
0
0
2.51597e-08
0
0
2.52994e-08
2.567e-08
2.42064e-08
2.42296e-08
0
0
0
2.47595e-08
2.45761e-08
6.02936e-08
5.74676e-08
5.43599e-08
2.32889e-08
2.58496e-08
0
2.36431e-08
0
4.16894e-08
3.92914e-09
0
2.43081e-08
2.43982e-08
2.48248e-08
2.45098e-08
1.43602e-05
7.86649e-07
1.04589e-07
0
2.34098e-08
2.46707e-08
2.38706e-08
2.36692e-08
5.5838e-08
2.38254e-08
2.35128e-08
3.91146e-08
4.22037e-08
2.43822e-08
2.20985e-08
2.35601e-08
4.40512e-08
3.22549e-08
2.35212e-08
2.38276e-08
2.36305e-08
0
5.67105e-08
6.02493e-08
2.43094e-08
0
5.43858e-08
2.30245e-08
0
6.03695e-08
0
1.03027e-07
0
2.38626e-08
0
0
2.38978e-08
2.36259e-08
2.39341e-08
2.38299e-08
2.40559e-08
2.58326e-08
6.14949e-08
0
2.38565e-08
0
2.3761e-08
2.50603e-08
2.49374e-08
2.53056e-08
0
2.52811e-08
6.03228e-08
2.33382e-08
5.65398e-08
5.695e-08
2.5442e-08
5.27572e-08
5.83237e-08
5.71267e-08
5.97171e-08
5.61251e-08
5.3499e-08
2.24716e-08
2.46006e-08
2.43566e-08
0
2.33955e-08
0
2.41241e-08
2.42353e-08
2.39096e-08
5.78721e-08
2.43805e-08
2.41287e-08
3.11075e-06
9.17509e-07
1.0171e-07
5.48334e-08
0
2.31638e-08
2.33114e-08
2.40544e-08
0
2.44673e-08
2.45455e-08
2.47612e-08
2.50694e-08
6.03629e-08
2.32996e-08
5.56894e-08
2.3248e-08
2.28775e-08
2.39482e-08
2.41233e-08
2.38072e-08
5.77705e-08
2.38621e-08
2.41549e-08
2.43646e-08
0
2.36478e-08
2.32868e-08
3.61657e-08
4.57169e-08
0
2.56584e-08
2.36549e-08
2.37876e-08
0
2.40923e-08
0
2.36665e-08
0
0
2.36389e-08
6.23054e-08
2.45161e-08
2.3096e-08
2.29361e-08
2.33049e-08
2.34883e-08
2.55508e-08
0
9.05577e-09
8.25882e-09
2.53556e-08
2.54588e-08
5.60005e-08
5.56262e-08
5.61191e-08
5.68918e-08
2.37099e-08
2.44784e-08
2.4742e-08
2.37586e-08
2.34772e-08
5.62315e-08
5.65801e-08
2.32931e-08
5.74375e-08
2.28897e-08
2.3466e-08
0
2.15646e-08
2.34767e-09
5.44617e-08
2.48343e-08
4.38293e-08
3.4984e-08
2.3734e-05
1.30828e-06
2.14236e-07
2.30134e-08
5.65344e-08
2.3306e-08
2.38418e-08
0
0
2.45111e-08
5.85508e-08
2.41437e-08
2.48102e-08
6.01851e-08
2.34356e-08
2.33836e-08
2.29853e-08
2.45163e-08
2.43418e-08
5.7652e-08
2.38527e-08
2.34151e-08
2.39542e-08
2.40062e-08
2.43799e-08
2.3661e-08
2.38357e-08
0
2.3081e-08
0
2.64199e-08
0
0
5.59567e-08
2.24187e-08
5.85219e-08
2.29437e-08
2.27743e-08
5.68185e-08
5.60846e-08
2.26926e-08
2.40173e-08
3.22973e-08
1.5554e-08
5.48991e-08
3.46515e-08
8.35689e-08
5.60372e-08
5.27501e-08
5.2746e-08
2.43752e-08
5.92549e-08
0
2.21664e-08
2.39224e-08
2.38265e-08
2.42576e-08
9.27391e-09
8.12738e-09
2.63301e-08
0
2.57719e-08
2.49326e-08
0
0
9.79708e-08
3.25034e-08
4.17126e-08
2.30966e-08
2.35367e-08
5.95134e-08
0
0
6.08058e-08
2.41912e-08
9.12876e-06
5.82671e-07
2.07033e-07
2.15799e-08
2.36434e-08
5.79941e-08
2.29826e-08
0
2.39784e-08
5.69599e-08
2.34554e-08
5.876e-08
2.41504e-08
4.69873e-08
2.98129e-08
2.27516e-08
2.42223e-08
0
2.48566e-08
2.46004e-08
2.39465e-08
2.327e-08
5.73897e-08
2.42006e-08
1.73522e-09
5.35045e-08
2.36631e-08
2.37203e-08
2.40111e-08
0
6.05141e-08
2.49533e-08
0
2.38961e-08
2.44018e-08
2.41224e-08
5.76228e-08
2.32348e-08
2.34257e-08
2.27031e-08
5.69216e-08
0
2.35682e-08
4.10799e-08
3.37065e-08
5.62252e-08
2.36457e-08
2.39548e-08
2.36346e-08
5.7711e-08
2.35436e-08
5.67449e-08
2.38163e-08
2.59549e-08
0
2.32426e-08
2.33854e-08
2.686e-08
0
2.38993e-08
0
2.45264e-08
0
0
2.40586e-08
0
0
2.40506e-08
2.46229e-08
6.15451e-08
2.39538e-08
5.8789e-08
2.35129e-08
5.91735e-08
2.38124e-08
6.73164e-06
3.69834e-07
5.9927e-07
2.19442e-08
2.41168e-08
2.38247e-08
5.48631e-08
5.49466e-08
2.16003e-08
2.2647e-08
3.92645e-08
4.22683e-08
2.50182e-08
0
2.39541e-08
2.37443e-08
0
2.33421e-08
6.18481e-08
2.48562e-08
0
2.36562e-08
2.44237e-08
2.43695e-08
0
2.41366e-08
2.39702e-08
2.39311e-08
2.43542e-08
0
2.4723e-08
2.44343e-08
2.42191e-08
2.42913e-08
2.46194e-08
2.44633e-08
2.38082e-08
2.38647e-08
2.38411e-08
2.32274e-08
2.40566e-08
5.54503e-08
9.71742e-08
0
2.36419e-08
2.28919e-08
2.34667e-08
2.37644e-08
2.39177e-08
5.79222e-08
2.34293e-08
2.40245e-08
2.54468e-08
6.04008e-08
2.39522e-08
2.40396e-08
2.3495e-08
2.52793e-08
2.58952e-08
0
0
5.8038e-08
2.33682e-08
5.57406e-08
0
2.36069e-08
1.94399e-09
5.1643e-08
2.34244e-08
6.34374e-08
2.38378e-08
2.11963e-08
5.6165e-08
6.02612e-08
5.65781e-08
9.29527e-06
6.10689e-07
1.14273e-07
0
5.68868e-08
4.09954e-08
3.06418e-08
5.54547e-08
2.12322e-08
2.38309e-08
2.65289e-08
2.65904e-08
0
2.36368e-08
0
0
2.38636e-08
2.35603e-08
5.80262e-08
2.36902e-08
2.39613e-08
2.36891e-08
2.472e-08
2.47796e-08
2.4014e-08
2.31064e-08
5.74548e-08
2.36802e-08
2.39125e-08
2.3971e-08
2.47356e-08
2.35585e-08
2.32608e-08
2.39023e-08
2.44661e-08
0
0
0
2.45001e-08
2.4555e-08
0
2.30271e-08
2.43384e-08
2.49188e-08
2.46523e-08
2.29051e-08
0
2.46082e-08
2.46822e-08
2.44422e-08
0
0
2.69913e-08
0
2.50598e-08
0
2.38522e-08
0
2.5152e-08
2.43006e-08
5.69198e-08
5.69262e-08
2.36973e-08
5.57767e-08
2.26239e-08
2.3087e-08
2.24591e-08
2.47847e-08
0
2.62619e-08
2.59226e-08
2.40823e-08
0
0
2.42019e-08
3.41064e-05
1.62491e-06
6.97626e-08
2.5422e-08
2.38094e-08
2.38345e-08
2.26318e-08
5.54523e-08
2.17142e-08
2.28069e-08
2.52905e-08
0
2.5386e-08
0
0
2.38212e-08
2.29223e-08
5.76814e-08
2.3655e-08
2.47151e-08
0
0
2.47327e-08
2.44478e-08
2.43725e-08
5.74528e-08
2.36397e-08
4.20974e-08
3.47948e-08
2.2905e-08
5.83461e-08
2.36552e-08
2.34916e-08
2.4221e-08
0
2.45345e-08
0
5.76295e-08
5.96912e-10
2.34328e-08
2.37222e-08
2.23893e-08
2.45117e-08
2.57546e-08
0
0
2.40767e-08
2.45856e-08
2.54748e-08
0
2.43741e-08
2.48859e-08
0
0
0
2.45926e-08
2.49556e-08
2.51794e-08
2.48603e-08
0
0
2.50713e-08
5.91086e-08
2.29315e-08
5.61279e-08
5.59583e-08
2.26468e-08
2.39219e-08
0
2.59773e-08
2.55361e-08
2.40923e-08
2.4604e-08
2.45096e-08
2.46115e-08
2.7182e-05
4.47098e-07
3.57829e-08
2.44929e-08
2.47108e-08
2.40662e-08
2.38605e-08
2.34228e-08
2.269e-08
2.36433e-08
2.44564e-08
2.52482e-08
2.52879e-08
0
2.44178e-08
2.41155e-08
0
2.43703e-08
2.43087e-08
0
2.52371e-08
2.61888e-08
5.81431e-08
2.34955e-08
5.67246e-08
2.35643e-08
2.3247e-08
5.71202e-08
2.29096e-08
5.715e-08
2.49797e-08
2.45861e-08
2.38818e-08
2.35315e-08
5.97916e-08
2.44012e-08
0
2.34149e-08
2.37731e-08
5.681e-08
5.45712e-08
5.51221e-08
2.32658e-08
2.25375e-08
2.93273e-08
1.76242e-08
5.74951e-08
0
0
2.42284e-08
2.44311e-08
2.45936e-08
2.5151e-08
2.57905e-08
2.52793e-08
2.44944e-08
2.45231e-08
2.45649e-08
2.44747e-08
2.50606e-08
0
6.17617e-08
2.46367e-08
2.19164e-08
2.28877e-08
2.35612e-08
2.4898e-08
0
5.84088e-08
6.37631e-08
0
0
2.43455e-08
2.38166e-08
2.36032e-08
2.0667e-05
7.00869e-07
1.17859e-07
0
2.39846e-08
2.42492e-08
2.4201e-08
0
2.39401e-08
2.43729e-08
2.47403e-08
2.47029e-08
2.46032e-08
2.43917e-08
5.84315e-08
0
2.39554e-08
0
2.36208e-08
2.358e-08
6.17312e-08
2.49018e-08
2.35875e-08
2.39715e-08
2.39244e-08
2.29591e-08
2.3779e-08
5.7212e-08
2.30641e-08
2.33974e-08
6.17249e-08
2.4336e-08
2.28734e-08
2.23493e-08
2.50434e-08
2.39875e-08
5.63565e-08
5.65869e-08
2.37682e-08
2.31696e-08
2.27813e-08
2.37251e-08
0
5.64332e-08
2.31454e-08
2.32765e-08
0
2.59116e-08
0
2.44357e-08
2.39866e-08
2.41357e-08
2.40453e-08
6.31265e-08
2.48498e-08
2.37169e-08
0
2.4973e-08
2.51743e-08
2.31298e-08
5.64014e-08
2.40953e-08
2.37667e-08
2.31242e-08
0
2.27543e-08
2.52292e-08
0
0
0
2.60246e-08
5.85014e-08
2.33113e-08
2.35329e-08
5.74543e-08
6.67033e-06
6.14013e-07
3.62752e-08
5.95539e-08
2.3587e-08
2.41661e-08
2.42962e-08
2.40206e-08
2.41168e-08
2.41256e-08
2.42254e-08
2.43383e-08
2.45197e-08
2.45389e-08
2.44206e-08
2.41708e-08
2.33726e-08
2.40238e-08
5.71436e-08
2.33691e-08
5.95306e-08
2.40849e-08
2.31826e-08
2.37352e-08
2.37313e-08
2.43461e-08
2.4384e-08
2.38906e-08
2.36095e-08
2.38132e-08
5.74259e-08
5.8646e-08
2.27739e-08
2.22921e-08
6.18941e-08
2.39294e-08
2.2287e-08
2.30957e-08
2.30573e-08
2.37664e-08
2.36049e-08
2.41054e-08
2.35404e-08
2.37411e-08
0
2.39545e-08
0
2.50294e-08
2.58121e-08
2.47201e-08
2.3901e-08
2.40672e-08
3.40341e-08
1.51542e-08
2.56993e-08
0
2.46395e-08
6.0698e-08
6.08988e-08
2.24619e-08
2.26359e-08
2.36419e-08
2.40858e-08
2.39306e-08
2.34093e-08
0
6.21807e-08
2.62751e-08
2.39566e-08
2.33558e-08
2.39932e-08
5.95543e-08
2.27158e-08
5.80652e-08
2.42061e-08
0.000277251
3.94506e-07
1.24775e-08
2.45783e-08
2.40876e-08
2.43782e-08
2.43527e-08
2.45672e-08
2.38347e-08
5.84389e-08
2.45128e-08
9.39105e-09
7.41351e-09
0
0
5.71523e-08
5.8023e-08
2.35318e-08
2.40173e-08
2.35384e-08
2.37654e-08
2.39574e-08
2.38809e-08
2.45066e-08
2.46255e-08
2.46162e-08
2.40499e-08
2.39935e-08
5.78298e-08
2.35877e-08
2.37525e-08
5.73947e-08
2.34831e-08
5.78152e-08
2.44412e-08
2.42413e-08
2.3488e-08
2.41371e-08
2.34016e-08
2.30089e-08
2.4323e-08
2.35627e-08
2.3443e-08
0
2.36976e-08
2.40362e-08
2.45568e-08
2.46778e-08
2.48284e-08
2.46077e-08
2.42011e-08
2.42812e-08
2.44104e-08
2.46303e-08
2.50271e-08
0
2.50517e-08
2.61248e-08
0
2.36513e-08
5.66852e-08
2.35853e-08
2.38688e-08
2.40959e-08
2.40626e-08
0
2.45367e-08
6.01209e-08
5.79147e-08
5.71992e-08
2.37623e-08
2.24885e-08
0
2.30604e-08
2.29433e-08
4.9035e-05
3.04999e-07
1.87904e-08
5.68673e-08
2.34897e-08
2.41095e-08
2.42458e-08
2.37712e-08
5.66194e-08
2.32442e-08
2.34028e-08
2.37923e-08
2.41791e-08
2.44826e-08
2.42518e-08
2.44844e-08
2.47362e-08
2.47468e-08
0
2.35872e-08
2.44375e-08
0
5.81782e-08
2.53076e-08
2.44128e-08
4.603e-08
2.93374e-08
2.32912e-08
2.3612e-08
2.36982e-08
2.38929e-08
2.40571e-08
2.42238e-08
2.4219e-08
2.43367e-08
2.4468e-08
2.43422e-08
2.41219e-08
2.4268e-08
2.40515e-08
2.3914e-08
2.39321e-08
2.42679e-08
2.42298e-08
3.11575e-08
1.68111e-08
2.40882e-08
2.45234e-08
0
2.46073e-08
0
7.04798e-08
4.34081e-08
5.82555e-08
2.52045e-08
0
0
2.41421e-08
5.94212e-08
5.82171e-08
2.31518e-08
2.31556e-08
5.95531e-08
2.43029e-08
0
1.05331e-08
3.41331e-08
2.39654e-08
2.32184e-08
5.55864e-08
5.54169e-08
2.37406e-08
2.6335e-08
0
0
1.68464e-05
3.26565e-07
2.7945e-08
2.40316e-08
2.46178e-08
2.45311e-08
2.39395e-08
2.32617e-08
2.54926e-08
5.32483e-08
2.31279e-08
5.6729e-08
2.31802e-08
2.34941e-08
2.34637e-08
2.40337e-08
2.54115e-08
2.46471e-08
2.42856e-08
0
0
2.37287e-08
0
2.51634e-08
5.88425e-08
2.42474e-08
5.8601e-08
2.34754e-08
2.32182e-08
2.41729e-08
2.44707e-08
2.45321e-08
5.91688e-08
2.36816e-08
2.38192e-08
2.40732e-08
2.41099e-08
2.42252e-08
2.40224e-08
2.37401e-08
2.3777e-08
2.34815e-08
2.39171e-08
2.39692e-08
2.4049e-08
2.41675e-08
2.41096e-08
2.47788e-08
0
2.48543e-08
0
2.39352e-08
2.39806e-08
2.44202e-08
2.47754e-08
0
5.87577e-08
2.58072e-08
6.04671e-08
0
0
0
0
6.81872e-09
0
5.75763e-08
2.38325e-08
2.40768e-08
2.39765e-08
2.30032e-08
6.07739e-08
2.70717e-08
0
5.94436e-08
5.61239e-08
1.11771e-05
3.69404e-07
1.53935e-08
2.39647e-08
0
2.40004e-08
5.94064e-08
0
2.45915e-08
2.41684e-08
2.42109e-08
2.38932e-08
5.72874e-08
2.29813e-08
2.37631e-08
2.39183e-08
6.29551e-08
2.40358e-08
2.36905e-08
0
2.26084e-08
2.34619e-08
0
9.74192e-08
5.68714e-08
0
2.54693e-08
0
2.42317e-08
0
2.44378e-08
2.45539e-08
2.46227e-08
2.45646e-08
2.42734e-08
2.45639e-08
2.52689e-08
0
5.71465e-08
2.42502e-08
6.91201e-10
5.61834e-08
2.3622e-08
2.28303e-08
2.35626e-08
2.39971e-08
4.69399e-08
1.1724e-09
2.36043e-08
2.44086e-08
0
2.44006e-08
2.36144e-08
2.49696e-08
2.44815e-08
2.25969e-08
6.04157e-08
2.6808e-08
2.54647e-08
0
2.34681e-08
2.36951e-08
2.43083e-08
4.6887e-09
3.0191e-08
2.30864e-08
5.87145e-08
2.40665e-08
0
2.38073e-08
2.68829e-08
0
2.61835e-08
2.43952e-08
0
0.000202739
4.82963e-07
3.3334e-08
2.15642e-08
2.52005e-08
0
2.469e-08
2.43095e-08
2.44363e-08
2.4391e-08
2.39165e-08
2.3716e-08
2.39352e-08
2.3685e-08
2.39913e-08
2.4301e-08
3.65706e-08
4.54968e-08
2.3108e-08
5.62421e-08
5.56769e-08
2.2329e-08
2.31288e-08
2.2689e-08
0
6.14256e-08
2.61891e-08
0
0
5.51907e-08
4.00174e-08
7.54925e-09
2.54734e-08
0
2.42585e-08
0
2.46793e-08
2.47051e-08
2.45415e-08
2.42661e-08
2.40718e-08
2.43238e-08
2.37965e-08
2.33903e-08
5.58951e-08
5.69689e-08
2.33723e-08
2.36183e-08
2.34947e-08
0
0
5.76796e-08
0
2.44306e-08
2.42734e-08
2.35708e-08
0
0
2.50546e-08
2.46527e-08
5.58965e-08
2.22285e-08
6.04288e-08
2.40042e-08
0
2.4016e-08
0
2.39779e-08
5.60306e-08
0
2.41887e-08
2.54242e-08
2.57002e-08
2.52617e-08
2.44863e-08
5.00701e-06
7.43884e-07
1.50996e-07
1.99784e-08
2.58248e-08
2.32297e-09
2.0786e-08
2.40613e-08
2.41818e-08
2.42973e-08
2.40613e-08
2.38193e-08
2.36799e-08
2.37258e-08
2.46523e-08
2.44546e-08
2.4552e-08
5.76365e-08
5.65994e-08
2.30373e-08
2.35957e-08
2.25746e-08
2.40183e-08
0
2.3879e-08
2.46045e-08
2.64074e-08
0
2.30156e-08
0
2.30173e-08
2.63693e-08
0
2.42243e-08
0
2.43531e-08
2.45567e-08
2.44573e-08
2.45567e-08
2.419e-08
2.4549e-08
1.05637e-08
3.49937e-08
2.3345e-08
2.37109e-08
5.7172e-08
2.28497e-08
2.32207e-08
2.36306e-08
2.45212e-08
2.54605e-08
0
2.37521e-08
0
2.45886e-08
2.5367e-08
2.46762e-08
6.15157e-08
0
0
2.43482e-08
2.82743e-08
5.45331e-08
2.38045e-08
2.75768e-08
5.61707e-08
0
5.69448e-08
2.5058e-08
9.63792e-08
3.63794e-08
4.27512e-08
2.4308e-08
2.46547e-08
0
3.3664e-05
2.84296e-07
1.53643e-07
5.41295e-08
2.4173e-08
2.51546e-08
2.43184e-08
2.41246e-08
2.42769e-08
0
0
0
0
2.4449e-08
2.50287e-08
0
0
0
2.38508e-08
2.33174e-08
2.32702e-08
5.7235e-08
2.33242e-08
2.32215e-08
2.34495e-08
2.41445e-08
2.51682e-08
2.558e-08
0
2.34378e-08
2.45845e-08
0
2.60421e-08
2.48692e-08
0
5.84753e-08
2.38125e-08
2.38364e-08
2.3964e-08
2.42107e-08
8.42456e-09
9.21027e-09
2.44847e-08
2.37904e-08
2.39222e-08
2.39955e-08
2.39636e-08
2.38137e-08
5.74979e-08
2.41018e-08
2.52394e-08
2.49223e-08
0
5.79804e-08
2.36134e-08
2.49565e-08
2.52236e-08
2.4373e-08
2.47349e-08
0
2.46805e-08
2.45799e-08
2.47181e-08
5.77753e-08
2.40824e-08
2.4566e-08
2.47706e-08
0
2.33054e-08
2.26879e-08
6.03735e-08
2.55387e-08
2.43518e-08
6.10242e-08
2.39196e-08
7.84597e-06
8.95158e-07
6.95484e-08
2.21448e-08
2.46221e-08
2.46915e-08
5.71351e-08
2.31108e-08
2.31991e-08
0
0
5.51611e-08
2.41146e-08
2.34117e-08
0
6.22972e-08
2.44445e-08
2.44234e-08
2.40038e-08
5.68208e-08
5.43079e-08
2.12659e-08
2.38052e-08
5.73437e-08
2.3017e-08
2.32801e-08
5.79694e-08
5.68988e-08
5.62678e-08
2.31936e-08
0
2.38491e-08
2.52487e-08
2.60274e-08
2.48173e-08
5.89547e-08
2.40965e-08
8.00626e-09
8.4807e-09
0
2.40272e-08
2.95961e-08
2.39697e-08
1.81463e-08
2.4068e-08
2.42086e-08
2.37104e-08
5.68986e-08
2.37235e-08
5.76785e-08
2.39705e-08
0
4.66899e-08
3.02282e-08
2.36751e-08
5.82481e-08
2.40451e-08
2.39302e-08
2.38817e-08
2.38666e-08