/*--------------------------------*- C++ -*----------------------------------*\
  =========                 |
  \\      /  F ield         | OpenFOAM: The Open Source CFD Toolbox
   \\    /   O peration     | Website:  https://openfoam.org
    \\  /    A nd           | Version:  12
     \\/     M anipulation  |
\*---------------------------------------------------------------------------*/
FoamFile
{
    format      ascii;
    class       volVectorField::Internal;
    location    "0.9";
    object      cloud:UTrans;
}
// * * * * * * * * * * * * * * * * * * * * * * * * * * * * * * * * * * * * * //

dimensions      [1 1 -1 0 0 0 0];

value           nonuniform List<vector> 
3750
(
(2.41626e-08 -6.32655e-09 0)
(2.7542e-09 -8.00365e-09 0)
(-5.20643e-11 -1.28882e-09 0)
(4.51543e-11 -1.57048e-09 0)
(2.20173e-11 -9.9149e-10 0)
(-2.03504e-11 -9.09527e-10 0)
(0 0 0)
(3.86679e-11 -8.88824e-10 0)
(0 0 0)
(1.33886e-11 -2.04621e-09 0)
(0 0 0)
(-1.50007e-11 -9.69171e-10 0)
(-3.19454e-11 -8.48021e-10 0)
(-4.26413e-11 -2.78055e-09 0)
(-8.44899e-12 -6.6407e-10 0)
(-1.19656e-11 -1.67213e-09 0)
(2.2229e-11 -7.43803e-10 0)
(-1.75988e-12 -8.14637e-10 0)
(2.60453e-11 -8.29337e-10 0)
(0 0 0)
(0 0 0)
(2.75149e-11 -1.73418e-09 0)
(2.52771e-11 -7.3849e-10 0)
(0 0 0)
(0 0 0)
(-1.15133e-11 -7.22618e-10 0)
(0 0 0)
(1.65162e-11 -1.71962e-09 0)
(9.92131e-12 -7.2112e-10 0)
(4.81536e-12 -8.79415e-10 0)
(0 0 0)
(2.93839e-12 -3.05871e-10 0)
(2.82146e-12 -2.87226e-10 0)
(1.07069e-11 -9.21529e-10 0)
(1.35497e-11 -8.46342e-10 0)
(-3.11358e-12 -6.85005e-10 0)
(0 0 0)
(-3.78366e-11 -1.75131e-09 0)
(1.15627e-11 -8.01755e-10 0)
(3.53491e-11 -8.77928e-10 0)
(9.58718e-12 -9.24857e-10 0)
(0 0 0)
(-2.37391e-11 -8.47067e-10 0)
(-2.91562e-11 -8.75423e-10 0)
(-8.21528e-12 -1.742e-09 0)
(5.60481e-12 -7.41911e-10 0)
(-3.20585e-11 -7.77412e-10 0)
(-1.71908e-11 -7.64322e-10 0)
(0 0 0)
(-2.33471e-10 -2.46807e-09 0)
(5.71573e-11 -8.28917e-10 0)
(-1.28061e-11 -6.75064e-10 0)
(-5.59666e-12 -7.839e-10 0)
(2.20721e-11 -8.51596e-10 0)
(4.43829e-11 -1.80444e-09 0)
(2.14556e-11 -7.28984e-10 0)
(-5.56931e-11 -1.55462e-09 0)
(6.12225e-11 -7.77908e-10 0)
(7.79555e-12 -8.61989e-10 0)
(0 0 0)
(-3.00879e-11 -8.58731e-10 0)
(3.03105e-11 -8.51318e-10 0)
(3.56016e-11 -1.64359e-09 0)
(4.78977e-11 -7.58636e-10 0)
(1.65274e-12 -8.36723e-10 0)
(2.80924e-11 -8.29208e-10 0)
(6.63557e-12 -9.45738e-10 0)
(2.35298e-12 -4.86571e-10 0)
(4.54412e-14 -8.87083e-12 0)
(-9.06025e-13 -9.05616e-10 0)
(-7.05645e-12 -9.10698e-10 0)
(1.09838e-11 -9.11194e-10 0)
(-1.99149e-11 -7.73258e-10 0)
(-2.3333e-11 -1.78892e-09 0)
(-4.44324e-11 -7.95918e-10 0)
(2.63632e-09 -1.26677e-08 0)
(-5.1862e-10 -6.63253e-10 0)
(-4.18527e-10 -3.75105e-10 0)
(2.18365e-11 -8.03913e-10 0)
(6.49777e-11 -2.51075e-09 0)
(0 0 0)
(3.95002e-11 -6.84458e-10 0)
(8.66934e-11 -8.25233e-10 0)
(3.1452e-11 -1.10208e-09 0)
(0 0 0)
(-3.49105e-11 -9.4974e-10 0)
(-1.22877e-12 -8.87676e-11 0)
(-4.20181e-11 -1.3604e-09 0)
(6.72594e-11 -8.64879e-10 0)
(-2.71722e-11 -1.07208e-09 0)
(-6.39761e-11 -1.18908e-09 0)
(0 0 0)
(-2.2257e-10 -2.05728e-09 0)
(0 0 0)
(2.61682e-11 -1.11997e-09 0)
(0 0 0)
(2.45943e-12 -5.97867e-11 0)
(8.74088e-11 -1.73578e-09 0)
(0 0 0)
(-1.25559e-11 -8.25729e-10 0)
(0 0 0)
(-7.01788e-12 -1.86015e-09 0)
(4.56683e-11 -1.7672e-09 0)
(1.48587e-11 -7.73509e-10 0)
(5.16267e-11 -8.25158e-10 0)
(0 0 0)
(3.2092e-11 -8.9663e-10 0)
(0 0 0)
(0 0 0)
(-2.71046e-11 -9.64679e-10 0)
(-8.69651e-11 -1.73315e-09 0)
(-7.66703e-11 -1.76854e-09 0)
(-3.98142e-11 -7.29818e-10 0)
(7.47563e-13 -1.75835e-09 0)
(-6.86524e-12 -9.05617e-10 0)
(0 0 0)
(-5.7803e-12 -7.55941e-10 0)
(0 0 0)
(-1.85156e-11 -8.29988e-10 0)
(3.75002e-11 -8.16351e-10 0)
(4.58185e-12 -8.16131e-10 0)
(5.2337e-12 -9.90217e-10 0)
(1.87163e-12 -8.59446e-10 0)
(-1.88766e-10 -1.0438e-09 0)
(0 0 0)
(8.19592e-11 -2.06367e-09 0)
(3.2698e-11 -6.79455e-10 0)
(0 0 0)
(0 0 0)
(0 0 0)
(-1.54722e-11 -1.80168e-09 0)
(6.79817e-11 -1.71235e-09 0)
(3.90711e-11 -1.77578e-09 0)
(2.39761e-11 -7.90898e-10 0)
(4.64754e-11 -8.42998e-10 0)
(2.91045e-11 -8.68051e-10 0)
(-1.74156e-10 -1.91105e-09 0)
(-2.63605e-11 -7.46933e-10 0)
(-3.02931e-11 -2.58906e-09 0)
(3.3379e-11 -1.64888e-09 0)
(-2.62196e-11 -7.6146e-10 0)
(1.57661e-11 -9.15722e-10 0)
(0 0 0)
(1.10314e-11 -8.94569e-10 0)
(3.73765e-12 -9.02639e-10 0)
(6.39605e-12 -9.23912e-10 0)
(-1.34186e-12 -8.76477e-10 0)
(3.92544e-12 -8.88751e-10 0)
(-1.82881e-11 -7.74343e-10 0)
(1.06735e-11 -8.3431e-10 0)
(-6.63621e-09 2.11637e-08 0)
(1.24747e-09 1.80897e-09 0)
(1.69864e-11 -1.70886e-09 0)
(2.33522e-11 -7.49369e-10 0)
(2.09955e-11 -2.14033e-09 0)
(4.56816e-12 -4.53147e-11 0)
(8.11301e-11 -7.82602e-10 0)
(7.35647e-11 -8.61675e-10 0)
(5.33739e-12 -1.1624e-09 0)
(-3.47862e-11 -9.61883e-10 0)
(0 0 0)
(2.41276e-11 -7.12167e-10 0)
(1.00784e-10 -1.54652e-09 0)
(2.93696e-11 -7.09762e-10 0)
(1.11694e-11 -6.87095e-10 0)
(-2.49798e-11 -7.6978e-10 0)
(0 0 0)
(-5.26469e-11 -1.73236e-09 0)
(-1.07634e-10 -2.98239e-09 0)
(0 0 0)
(0 0 0)
(0 0 0)
(3.40467e-11 -7.91642e-10 0)
(3.86392e-13 -9.15826e-10 0)
(0 0 0)
(0 0 0)
(1.41135e-11 -6.9974e-10 0)
(0 0 0)
(1.17904e-10 -2.79557e-09 0)
(9.73074e-15 -8.37382e-12 0)
(1.21242e-12 -9.00338e-10 0)
(-4.68266e-12 -1.16281e-09 0)
(4.79929e-11 -1.52889e-09 0)
(4.8895e-11 -1.88744e-09 0)
(0 0 0)
(7.15757e-12 -8.66991e-10 0)
(-6.25099e-11 -1.70337e-09 0)
(-7.37862e-11 -1.69492e-09 0)
(-2.35948e-11 -7.86803e-10 0)
(-1.03954e-11 -7.44087e-10 0)
(0 0 0)
(-3.82292e-11 -8.81101e-10 0)
(5.57432e-11 -8.98949e-10 0)
(0 0 0)
(1.34674e-11 -2.14121e-09 0)
(-3.26763e-11 -8.71292e-10 0)
(0 0 0)
(-5.3725e-11 -9.0514e-10 0)
(-1.26184e-11 -1.83786e-09 0)
(-6.45646e-11 -1.84926e-09 0)
(5.2861e-11 -8.42312e-10 0)
(-1.08115e-10 -1.79506e-09 0)
(0 0 0)
(0 0 0)
(-3.39624e-11 -9.3631e-10 0)
(-8.14584e-11 -1.81105e-09 0)
(2.70325e-11 -6.8708e-10 0)
(1.02013e-10 -1.50447e-09 0)
(1.07516e-11 -9.10785e-10 0)
(0 0 0)
(-4.52962e-11 -8.52828e-10 0)
(-8.76273e-12 -8.37096e-10 0)
(-3.70298e-11 -1.33598e-09 0)
(-3.96245e-11 -1.08469e-09 0)
(-4.00421e-11 -7.78958e-10 0)
(3.88917e-13 -6.13661e-11 0)
(5.30991e-12 -7.40236e-10 0)
(1.02835e-11 -9.53661e-10 0)
(0 0 0)
(0 0 0)
(-1.5884e-12 -8.40216e-10 0)
(0 0 0)
(0 0 0)
(-6.67075e-11 -1.87496e-09 0)
(4.00119e-11 -1.85722e-09 0)
(-2.11056e-08 3.63109e-08 0)
(-2.18435e-09 -8.9023e-10 0)
(-2.20013e-10 -7.95284e-10 0)
(-3.85856e-11 -1.77664e-09 0)
(2.55166e-11 -1.83786e-09 0)
(8.77081e-11 -7.92928e-10 0)
(1.64397e-11 -7.81229e-10 0)
(-2.68763e-11 -9.64009e-10 0)
(2.22104e-12 -1.10893e-09 0)
(2.64236e-11 -9.33532e-10 0)
(5.1402e-11 -7.60107e-10 0)
(0 0 0)
(7.9676e-11 -8.11595e-10 0)
(8.17192e-11 -7.73775e-10 0)
(0 0 0)
(3.91724e-11 -8.2429e-10 0)
(6.33889e-12 -2.28157e-10 0)
(1.02278e-11 -3.58416e-10 0)
(2.53494e-11 -8.73409e-10 0)
(-7.6953e-11 -6.97371e-10 0)
(3.70471e-11 -8.92388e-10 0)
(0 0 0)
(3.16576e-11 -8.24395e-10 0)
(4.43109e-11 -8.64696e-10 0)
(-3.43409e-13 -7.78916e-10 0)
(8.19177e-12 -1.7464e-09 0)
(3.40918e-11 -1.83519e-09 0)
(0 0 0)
(-2.01814e-11 -7.00358e-10 0)
(2.14264e-11 -8.14168e-10 0)
(4.40733e-11 -8.04492e-10 0)
(3.85106e-11 -8.15608e-10 0)
(3.0358e-11 -8.2183e-10 0)
(2.81099e-11 -8.39611e-10 0)
(5.79375e-12 -9.38239e-10 0)
(-5.10592e-11 -1.94389e-09 0)
(-4.36756e-11 -7.68084e-10 0)
(-4.38224e-11 -6.41061e-10 0)
(1.16232e-12 -1.64296e-09 0)
(2.65641e-11 -1.71583e-09 0)
(-2.43768e-11 -8.42436e-10 0)
(2.94768e-11 -9.48366e-10 0)
(1.62264e-11 -1.85447e-09 0)
(5.05243e-12 -6.88743e-10 0)
(5.28154e-12 -1.58395e-09 0)
(3.48969e-11 -7.76891e-10 0)
(0 0 0)
(-5.46218e-11 -1.01373e-09 0)
(0 0 0)
(-6.49466e-11 -7.94559e-10 0)
(2.39886e-11 -8.76657e-10 0)
(-7.70057e-12 -1.78124e-09 0)
(-3.82302e-11 -6.32155e-10 0)
(4.19985e-11 -2.07897e-09 0)
(-4.61124e-12 -8.87008e-10 0)
(-3.26742e-11 -8.05592e-10 0)
(-4.31386e-11 -7.74444e-10 0)
(-9.87838e-12 -7.90815e-10 0)
(1.89158e-11 -8.52618e-10 0)
(-6.17552e-11 -9.85237e-10 0)
(-5.21341e-11 -9.39244e-10 0)
(6.98827e-12 -1.74011e-09 0)
(-2.28717e-11 -1.87409e-09 0)
(0 0 0)
(0 0 0)
(0 0 0)
(4.36259e-11 -1.86746e-09 0)
(3.15737e-11 -8.22641e-10 0)
(5.84004e-11 -9.32393e-10 0)
(6.46368e-11 -9.87846e-10 0)
(-1.33555e-11 -9.6133e-10 0)
(-1.39635e-12 -9.32173e-10 0)
(0 0 0)
(9.98071e-12 -8.46976e-10 0)
(-6.01681e-11 -8.21227e-10 0)
(-1.31076e-08 2.62821e-08 0)
(-1.9997e-09 -1.39566e-09 0)
(-6.37596e-11 -6.86186e-10 0)
(0 0 0)
(1.22265e-11 -8.1307e-10 0)
(8.73095e-11 -8.8642e-10 0)
(5.43287e-11 -1.14822e-09 0)
(7.98888e-13 -1.62949e-09 0)
(-5.10668e-11 -9.01467e-10 0)
(1.5605e-10 -2.09529e-09 0)
(7.9129e-11 -8.22501e-10 0)
(5.79431e-11 -9.55881e-10 0)
(4.18437e-11 -8.26609e-10 0)
(0 0 0)
(2.26938e-11 -8.30458e-10 0)
(5.26987e-11 -8.61377e-10 0)
(2.94132e-11 -8.32254e-10 0)
(2.14934e-11 -8.67164e-10 0)
(8.99676e-12 -8.59032e-10 0)
(1.89979e-11 -7.98058e-10 0)
(4.64083e-11 -7.95273e-10 0)
(2.70814e-11 -8.12121e-10 0)
(3.00026e-11 -8.06685e-10 0)
(5.78765e-11 -1.8878e-09 0)
(-2.13839e-12 -7.66915e-10 0)
(-1.75724e-11 -7.85341e-10 0)
(-2.82306e-11 -8.01506e-10 0)
(1.28615e-11 -7.88607e-10 0)
(2.19878e-11 -1.83613e-09 0)
(1.24735e-11 -8.28261e-10 0)
(5.84251e-11 -8.23096e-10 0)
(4.02495e-11 -1.82466e-09 0)
(4.09372e-11 -8.44915e-10 0)
(2.76671e-12 -7.81458e-10 0)
(-6.09668e-11 -2.47564e-09 0)
(8.01653e-12 -8.26109e-10 0)
(0 0 0)
(1.25447e-11 -7.56328e-10 0)
(0 0 0)
(0 0 0)
(1.54941e-10 -2.37022e-09 0)
(3.25704e-11 -8.95982e-10 0)
(4.28923e-11 -7.3321e-10 0)
(2.2222e-11 -7.73852e-10 0)
(0 0 0)
(-1.71328e-11 -7.92334e-10 0)
(-1.60958e-12 -3.03899e-09 0)
(-1.58187e-11 -7.73418e-10 0)
(-1.03538e-10 -8.0304e-10 0)
(0 0 0)
(-5.24846e-12 -8.62667e-10 0)
(0 0 0)
(8.99371e-11 -1.98812e-09 0)
(-3.5806e-11 -8.76737e-10 0)
(-6.62447e-12 -8.31071e-10 0)
(-1.47548e-10 -1.79128e-09 0)
(-1.49818e-10 -1.76602e-09 0)
(0 0 0)
(-1.43197e-10 -2.32796e-09 0)
(-6.38822e-11 -9.2366e-10 0)
(-1.57393e-11 -7.39687e-10 0)
(1.55887e-11 -1.68926e-09 0)
(0 0 0)
(-2.2945e-11 -7.64333e-10 0)
(3.50574e-12 -8.54865e-10 0)
(1.81657e-13 -6.44722e-12 0)
(2.42715e-11 -8.36542e-10 0)
(6.73228e-11 -8.74269e-10 0)
(4.351e-11 -9.11788e-10 0)
(7.03802e-11 -9.7502e-10 0)
(-1.38751e-11 -9.45716e-10 0)
(-1.1894e-11 -8.49937e-10 0)
(0 0 0)
(-1.98147e-11 -8.76175e-10 0)
(1.53503e-11 -9.08176e-10 0)
(-8.76544e-09 3.33609e-08 0)
(-2.88648e-09 2.53792e-10 0)
(-2.20651e-10 -2.68124e-10 0)
(4.32483e-11 -7.82357e-10 0)
(8.83275e-11 -7.85865e-10 0)
(8.70133e-11 -8.35925e-10 0)
(6.05112e-11 -8.94672e-10 0)
(3.00699e-11 -9.2077e-10 0)
(1.05702e-11 -9.3456e-10 0)
(1.66889e-12 -9.24724e-10 0)
(2.63898e-11 -8.71263e-10 0)
(5.04278e-11 -9.10843e-10 0)
(1.1139e-11 -9.82194e-10 0)
(1.59639e-11 -8.37752e-10 0)
(3.02049e-11 -8.36346e-10 0)
(4.19996e-11 -2.04369e-09 0)
(4.07305e-11 -7.86019e-10 0)
(1.1687e-11 -7.50124e-10 0)
(2.89046e-11 -2.01089e-09 0)
(4.54237e-11 -7.42435e-10 0)
(1.73695e-11 -7.47738e-10 0)
(4.19187e-11 -7.98451e-10 0)
(3.81844e-11 -8.76142e-10 0)
(1.89038e-11 -8.75805e-10 0)
(9.63077e-12 -8.79442e-10 0)
(1.33452e-11 -8.86092e-10 0)
(5.75606e-13 -7.77139e-11 0)
(2.15076e-11 -1.70881e-09 0)
(3.74765e-11 -8.19385e-10 0)
(0 0 0)
(0 0 0)
(-3.68814e-11 -8.54597e-10 0)
(-2.53437e-11 -9.03985e-10 0)
(0 0 0)
(0 0 0)
(0 0 0)
(9.11764e-11 -2.00082e-09 0)
(8.22579e-12 -7.40745e-10 0)
(3.95711e-11 -7.27087e-10 0)
(-8.37649e-11 -2.04758e-09 0)
(-2.19147e-11 -8.49182e-10 0)
(1.10247e-10 -8.70151e-10 0)
(4.79229e-11 -8.49777e-10 0)
(3.64999e-11 -9.39636e-10 0)
(3.64163e-11 -1.70387e-09 0)
(-7.57914e-12 -1.85715e-09 0)
(-1.0097e-11 -7.73903e-10 0)
(1.38729e-11 -8.03046e-10 0)
(0 0 0)
(7.7911e-12 -8.34943e-10 0)
(9.01811e-12 -1.78871e-09 0)
(0 0 0)
(8.64929e-11 -7.77408e-10 0)
(-4.74032e-11 -9.00026e-10 0)
(-4.82825e-12 -9.14305e-10 0)
(-1.6416e-10 -8.1128e-10 0)
(-8.49209e-11 -7.9497e-10 0)
(-7.63651e-11 -7.39665e-10 0)
(-1.9855e-10 -2.06534e-09 0)
(3.14002e-11 -9.32367e-10 0)
(1.06844e-11 -7.68046e-10 0)
(0 0 0)
(-2.12731e-12 -8.19824e-10 0)
(1.00293e-11 -7.71839e-10 0)
(2.88026e-12 -8.46319e-10 0)
(0 0 0)
(0 0 0)
(5.11785e-11 -9.06054e-10 0)
(6.36628e-11 -9.68471e-10 0)
(9.57853e-12 -1.18759e-09 0)
(0 0 0)
(-8.35263e-12 -9.09733e-10 0)
(1.3653e-11 -8.25063e-10 0)
(-1.17376e-11 -8.40719e-10 0)
(1.87159e-11 -8.90403e-10 0)
(3.50409e-09 3.45502e-08 0)
(-9.73628e-10 8.43028e-10 0)
(-3.03193e-10 -3.00394e-10 0)
(0 0 0)
(7.26117e-11 -1.2025e-09 0)
(6.28121e-11 -8.35636e-10 0)
(5.63478e-11 -7.06559e-10 0)
(7.25248e-11 -9.25224e-10 0)
(6.00398e-11 -9.22376e-10 0)
(2.41348e-11 -9.12524e-10 0)
(-1.47057e-11 -8.4519e-10 0)
(6.49005e-12 -1.02551e-09 0)
(0 0 0)
(3.42686e-11 -8.097e-10 0)
(2.22681e-11 -8.48565e-10 0)
(-7.89701e-12 -8.92204e-10 0)
(3.73232e-11 -8.69515e-10 0)
(9.13296e-11 -1.86181e-09 0)
(-3.38567e-12 -7.99174e-10 0)
(1.01105e-10 -1.83091e-09 0)
(0 0 0)
(0 0 0)
(5.69068e-11 -8.59394e-10 0)
(4.52377e-11 -1.13077e-09 0)
(6.54525e-12 -6.6798e-10 0)
(0 0 0)
(2.81929e-11 -8.16369e-10 0)
(5.75968e-11 -8.29634e-10 0)
(1.78538e-11 -8.60363e-10 0)
(4.9909e-11 -8.27822e-10 0)
(3.10724e-11 -8.22475e-10 0)
(-1.39454e-11 -1.82309e-09 0)
(9.31433e-12 -8.40496e-10 0)
(-9.03723e-11 -1.97455e-09 0)
(-1.21425e-11 -8.30678e-10 0)
(-3.82182e-11 -1.82452e-09 0)
(-3.92967e-12 -7.78004e-10 0)
(1.57326e-11 -8.81495e-10 0)
(5.1873e-12 -8.84863e-10 0)
(-3.15379e-11 -8.06332e-10 0)
(6.2029e-13 -8.28456e-10 0)
(4.526e-11 -8.63925e-10 0)
(2.439e-11 -8.19196e-10 0)
(-2.99728e-11 -8.23897e-10 0)
(1.90722e-11 -7.66619e-10 0)
(1.9274e-11 -8.26455e-10 0)
(3.96686e-11 -8.48809e-10 0)
(5.50773e-11 -8.45235e-10 0)
(2.58302e-11 -8.36629e-10 0)
(1.07877e-11 -8.37656e-10 0)
(0 0 0)
(-2.51844e-11 -7.14088e-10 0)
(-3.37221e-11 -2.31332e-09 0)
(-2.85166e-12 -1.34106e-10 0)
(-1.55216e-10 -3.23455e-09 0)
(0 0 0)
(-8.94042e-11 -1.91814e-09 0)
(-5.35978e-11 -8.18904e-10 0)
(0 0 0)
(6.55954e-12 -8.9302e-10 0)
(2.12737e-11 -8.42238e-10 0)
(0 0 0)
(2.24386e-11 -8.57454e-10 0)
(2.49923e-11 -4.49213e-10 0)
(2.29444e-12 -3.97812e-11 0)
(6.57219e-11 -9.244e-10 0)
(5.93473e-11 -9.15216e-10 0)
(6.52848e-11 -8.82316e-10 0)
(3.09307e-11 -8.8631e-10 0)
(-3.35802e-11 -9.8487e-10 0)
(2.82686e-11 -1.02273e-09 0)
(5.97357e-11 -1.3954e-09 0)
(1.11834e-11 -1.4114e-09 0)
(-7.26335e-11 -7.96773e-10 0)
(-1.28465e-10 -1.29228e-09 0)
(1.80082e-09 3.82721e-08 0)
(1.28805e-09 -1.06173e-10 0)
(4.37822e-10 -4.73983e-10 0)
(1.1829e-10 -9.10369e-10 0)
(0 0 0)
(2.97668e-11 -9.76953e-10 0)
(2.23686e-11 -9.85001e-10 0)
(2.03877e-11 -9.14142e-10 0)
(4.57698e-11 -9.29994e-10 0)
(1.85766e-11 -9.16662e-10 0)
(-2.99916e-11 -8.95499e-10 0)
(5.67258e-12 -9.41318e-10 0)
(0 0 0)
(4.97472e-11 -8.9731e-10 0)
(2.64429e-11 -8.21197e-10 0)
(0 0 0)
(2.06945e-11 -8.37084e-10 0)
(1.5381e-11 -7.78977e-10 0)
(4.22875e-11 -1.89579e-09 0)
(0 0 0)
(2.38049e-11 -7.6775e-10 0)
(4.30581e-11 -1.91028e-09 0)
(0 0 0)
(1.61364e-11 -8.60292e-10 0)
(6.26713e-11 -9.03041e-10 0)
(1.51965e-10 -1.88405e-09 0)
(2.92192e-11 -7.16662e-10 0)
(4.29761e-11 -8.73078e-10 0)
(-6.47392e-11 -8.19035e-10 0)
(-5.00297e-11 -8.28217e-10 0)
(-2.37435e-11 -8.0786e-10 0)
(-8.66612e-12 -8.79398e-10 0)
(-1.07156e-11 -8.68016e-10 0)
(-6.96552e-11 -8.71422e-10 0)
(-2.58682e-11 -9.22232e-10 0)
(-7.24709e-12 -8.51168e-10 0)
(-5.47255e-12 -8.01822e-10 0)
(0 0 0)
(5.58756e-11 -1.99308e-09 0)
(1.50516e-12 -7.74094e-10 0)
(-2.07335e-11 -1.78972e-09 0)
(1.1397e-11 -7.97194e-10 0)
(-3.00189e-12 -8.04029e-10 0)
(-1.73939e-11 -8.21989e-10 0)
(7.34494e-12 -9.81709e-10 0)
(1.01584e-11 -6.84527e-10 0)
(2.26447e-11 -7.72318e-10 0)
(2.79034e-11 -8.05521e-10 0)
(2.45023e-11 -8.04481e-10 0)
(0 0 0)
(-8.25036e-11 -1.83278e-09 0)
(-5.97241e-11 -7.78075e-10 0)
(-7.53939e-11 -9.02843e-10 0)
(-2.15996e-11 -8.87826e-10 0)
(-9.48129e-12 -8.62107e-10 0)
(4.2245e-11 -8.4374e-10 0)
(-2.8253e-11 -7.79123e-10 0)
(2.15316e-11 -8.15857e-10 0)
(3.8108e-11 -8.48175e-10 0)
(5.45852e-11 -9.49347e-10 0)
(4.17389e-12 -8.96351e-10 0)
(9.14042e-12 -8.34058e-10 0)
(0 0 0)
(9.65211e-11 -7.4645e-10 0)
(8.67386e-11 -8.38241e-10 0)
(5.81246e-11 -1.56034e-09 0)
(3.95932e-12 -1.0588e-10 0)
(7.54293e-11 -1.00317e-09 0)
(-9.79403e-11 -1.08805e-09 0)
(-1.17101e-10 -9.83953e-10 0)
(-2.69167e-11 -8.22039e-10 0)
(1.24594e-11 -7.68498e-10 0)
(-6.84406e-11 -2.19384e-09 0)
(-2.47653e-11 -7.84347e-10 0)
(-1.34716e-10 -1.63237e-09 0)
(-1.36101e-08 4.38253e-08 0)
(-7.00641e-09 1.06166e-09 0)
(-6.11593e-11 -7.21237e-10 0)
(0 0 0)
(4.06624e-11 -8.42293e-10 0)
(3.77148e-11 -1.01796e-09 0)
(-4.79681e-11 -8.68931e-10 0)
(5.12391e-11 -8.56846e-10 0)
(4.70483e-11 -9.0127e-10 0)
(5.75473e-12 -9.57551e-10 0)
(0 0 0)
(0 0 0)
(2.32317e-11 -8.55942e-10 0)
(3.53576e-11 -1.92087e-09 0)
(-1.42269e-11 -8.39267e-10 0)
(2.53644e-11 -8.37782e-10 0)
(5.16161e-11 -1.84782e-09 0)
(-7.06966e-11 -2.31128e-09 0)
(1.28721e-11 -1.19899e-09 0)
(1.56228e-11 -1.80027e-09 0)
(1.19022e-11 -7.30586e-10 0)
(0 0 0)
(6.74559e-11 -1.79251e-09 0)
(9.52216e-12 -7.47546e-10 0)
(7.96922e-11 -8.29992e-10 0)
(6.36534e-11 -7.8136e-10 0)
(9.88667e-13 -8.03673e-10 0)
(-3.82196e-11 -2.24229e-09 0)
(0 0 0)
(-3.88337e-11 -1.66461e-09 0)
(3.25245e-12 -1.66292e-09 0)
(7.54581e-13 -8.19815e-10 0)
(1.21922e-11 -8.92283e-10 0)
(2.96367e-11 -9.26996e-10 0)
(-5.75725e-11 -9.34987e-10 0)
(-2.31547e-11 -9.06805e-10 0)
(-3.24193e-12 -7.89603e-10 0)
(-1.60647e-11 -8.19564e-10 0)
(-3.35397e-11 -1.78988e-09 0)
(-3.84648e-11 -8.46387e-10 0)
(-3.62479e-11 -8.36032e-10 0)
(-5.52264e-11 -1.84587e-09 0)
(0 0 0)
(1.75436e-11 -8.21633e-10 0)
(1.10383e-11 -8.96824e-10 0)
(4.92705e-11 -1.81544e-09 0)
(3.62003e-11 -7.97606e-10 0)
(4.01533e-11 -8.14352e-10 0)
(4.22174e-11 -8.19284e-10 0)
(3.75174e-11 -8.14344e-10 0)
(-3.95178e-11 -8.2019e-10 0)
(-5.28934e-11 -7.98672e-10 0)
(-3.65302e-11 -2.13158e-09 0)
(0 0 0)
(1.27674e-12 -9.06906e-10 0)
(0 0 0)
(-5.87491e-12 -8.54819e-10 0)
(1.3566e-11 -8.36998e-10 0)
(-7.93111e-12 -8.34933e-10 0)
(7.42006e-12 -2.34834e-09 0)
(2.84519e-11 -8.36821e-10 0)
(3.71888e-11 -7.32286e-10 0)
(7.67178e-11 -1.57761e-09 0)
(1.36414e-10 -1.67322e-09 0)
(1.85697e-10 -1.74754e-09 0)
(1.15808e-11 -1.67229e-09 0)
(5.1423e-11 -8.92722e-10 0)
(-1.77883e-12 -1.23976e-09 0)
(-1.14659e-10 -1.14825e-09 0)
(-7.31838e-11 -8.38736e-10 0)
(-4.73306e-11 -6.99405e-10 0)
(-6.58459e-11 -6.41635e-10 0)
(-2.17937e-10 -1.8268e-09 0)
(8.32325e-11 -3.10773e-09 0)
(2.00162e-11 -7.50873e-10 0)
(-3.11749e-08 3.26366e-08 0)
(-5.94939e-09 6.28182e-09 0)
(-5.70888e-10 8.20385e-11 0)
(-2.16146e-11 -5.65759e-10 0)
(-3.01691e-11 -1.75713e-09 0)
(9.89945e-11 -2.20271e-09 0)
(6.85154e-11 -8.2029e-10 0)
(2.10408e-10 -1.93511e-09 0)
(0 0 0)
(0 0 0)
(-7.78369e-12 -8.51915e-10 0)
(3.41135e-11 -8.09984e-10 0)
(2.67585e-11 -7.86735e-10 0)
(9.42876e-11 -2.01163e-09 0)
(-4.28514e-12 -8.3137e-10 0)
(0 0 0)
(0 0 0)
(0 0 0)
(3.0692e-11 -7.51381e-10 0)
(-5.65786e-11 -1.9064e-09 0)
(1.65553e-11 -7.71019e-10 0)
(2.0079e-11 -8.15564e-10 0)
(9.45581e-12 -1.64741e-09 0)
(3.41177e-11 -6.30307e-10 0)
(-5.7986e-11 -7.31857e-10 0)
(-4.98114e-12 -8.9493e-10 0)
(-5.32564e-12 -8.35053e-10 0)
(-1.08271e-10 -1.91705e-09 0)
(2.22813e-11 -8.15253e-10 0)
(1.67595e-11 -7.79139e-10 0)
(2.21869e-11 -7.8769e-10 0)
(1.10387e-11 -7.7515e-10 0)
(-1.15947e-11 -7.72613e-10 0)
(3.40235e-11 -1.06498e-09 0)
(0 0 0)
(0 0 0)
(2.29981e-12 -8.51146e-10 0)
(1.95154e-12 -8.40964e-10 0)
(2.02195e-11 -8.40948e-10 0)
(2.24521e-12 -8.93791e-10 0)
(-4.12733e-11 -9.02854e-10 0)
(-5.1622e-12 -8.4088e-10 0)
(1.84576e-11 -8.06701e-10 0)
(4.08671e-11 -8.76573e-10 0)
(-4.0766e-11 -9.5335e-10 0)
(0 0 0)
(-2.6269e-11 -1.81232e-09 0)
(2.39388e-11 -8.05375e-10 0)
(-2.51839e-11 -7.76733e-10 0)
(-1.08581e-11 -1.95064e-09 0)
(-2.69582e-11 -7.79253e-10 0)
(-4.23918e-11 -7.90273e-10 0)
(0 0 0)
(-1.86452e-11 -8.37137e-10 0)
(-2.17023e-11 -8.8628e-10 0)
(-9.19987e-12 -8.88818e-10 0)
(0 0 0)
(-1.97528e-11 -8.51903e-10 0)
(-1.36653e-11 -8.89916e-10 0)
(-6.71339e-11 -8.72619e-10 0)
(8.41184e-11 -2.01403e-09 0)
(1.32193e-10 -1.73677e-09 0)
(-2.50706e-11 -7.02566e-10 0)
(-1.06799e-10 -1.69369e-09 0)
(-2.28524e-10 -3.4929e-09 0)
(-2.45502e-10 -2.9465e-09 0)
(-7.67069e-11 -1.27164e-09 0)
(-1.0878e-10 -2.2774e-09 0)
(0 0 0)
(-9.80468e-12 -9.99522e-10 0)
(-4.90981e-11 -8.12421e-10 0)
(0 0 0)
(-2.29802e-11 -1.74858e-09 0)
(-1.82809e-12 -8.1711e-10 0)
(1.55041e-11 -8.58689e-10 0)
(-1.31054e-08 4.48145e-08 0)
(-9.6843e-10 2.98877e-09 0)
(-2.25967e-10 -2.4979e-10 0)
(4.0854e-11 -1.42246e-09 0)
(-8.92372e-11 -1.62156e-09 0)
(3.44592e-11 -8.01797e-10 0)
(0 0 0)
(2.90361e-10 -1.97644e-09 0)
(1.92975e-11 -2.48676e-09 0)
(6.31873e-11 -8.17867e-10 0)
(5.16066e-11 -7.08888e-10 0)
(3.64315e-11 -7.34975e-10 0)
(0 0 0)
(0 0 0)
(-6.35294e-11 -2.05681e-09 0)
(-9.8767e-11 -1.4659e-09 0)
(-7.37611e-11 -1.94468e-09 0)
(2.65095e-11 -1.50953e-09 0)
(4.07518e-11 -7.84123e-10 0)
(-3.66187e-11 -8.25966e-10 0)
(-7.35576e-11 -2.48959e-09 0)
(-6.90497e-11 -2.17512e-09 0)
(-5.90331e-11 -6.7348e-10 0)
(-6.0301e-11 -7.04261e-10 0)
(0 0 0)
(-8.08986e-11 -8.00611e-10 0)
(0 0 0)
(5.11281e-11 -9.2976e-10 0)
(3.4746e-11 -8.92884e-10 0)
(2.28327e-11 -8.24051e-10 0)
(2.83889e-11 -7.93431e-10 0)
(4.56771e-11 -1.5738e-09 0)
(1.20037e-12 -6.77224e-11 0)
(-1.55092e-11 -8.37263e-10 0)
(8.77824e-11 -8.81186e-10 0)
(7.84507e-11 -9.24971e-10 0)
(-2.40536e-11 -9.45036e-10 0)
(-1.96006e-12 -8.08769e-10 0)
(6.77114e-12 -7.73838e-10 0)
(4.18321e-11 -8.61424e-10 0)
(-1.93001e-11 -9.13231e-10 0)
(4.36956e-12 -8.2491e-10 0)
(2.33897e-11 -8.3584e-10 0)
(1.67076e-11 -9.74819e-10 0)
(2.09587e-11 -8.54432e-10 0)
(2.546e-11 -7.95694e-10 0)
(1.43996e-12 -7.85062e-10 0)
(9.51811e-12 -1.94612e-09 0)
(-1.29349e-12 -7.69703e-10 0)
(1.67521e-11 -8.06495e-10 0)
(-1.85634e-11 -8.61049e-10 0)
(0 0 0)
(-1.9954e-11 -8.71186e-10 0)
(-1.3852e-11 -8.83428e-10 0)
(-2.70161e-11 -8.52109e-10 0)
(0 0 0)
(2.91972e-11 -8.71338e-10 0)
(2.16846e-11 -8.6159e-10 0)
(-4.97439e-12 -8.8784e-10 0)
(0 0 0)
(5.61261e-12 -8.53064e-10 0)
(-2.5946e-11 -7.89656e-10 0)
(-3.76797e-11 -7.82279e-10 0)
(0 0 0)
(0 0 0)
(0 0 0)
(-2.39833e-10 -1.94325e-09 0)
(-4.07366e-10 -2.95255e-09 0)
(-2.9346e-11 -2.80981e-09 0)
(1.42127e-10 -1.49677e-09 0)
(4.49521e-12 -8.51196e-10 0)
(0 0 0)
(-2.70985e-11 -8.52528e-10 0)
(2.82429e-11 -8.22696e-10 0)
(2.25234e-12 -8.69009e-10 0)
(2.69473e-09 3.77553e-08 0)
(-5.67265e-10 6.94345e-09 0)
(3.80813e-11 5.70435e-10 0)
(0 0 0)
(0 0 0)
(2.36536e-11 -7.7769e-10 0)
(3.27596e-11 -7.30716e-10 0)
(5.69319e-11 -2.34685e-09 0)
(3.74521e-11 -9.59305e-10 0)
(7.81045e-11 -7.97419e-10 0)
(6.60722e-11 -7.5626e-10 0)
(9.4929e-11 -1.19095e-09 0)
(3.6293e-11 -1.31712e-09 0)
(-9.71224e-12 -9.9346e-10 0)
(-4.20554e-11 -9.41168e-10 0)
(0 0 0)
(-5.45382e-11 -7.17263e-10 0)
(-1.63093e-11 -6.14806e-10 0)
(1.03369e-10 -2.26626e-09 0)
(0 0 0)
(-8.13367e-13 -7.06293e-10 0)
(0 0 0)
(0 0 0)
(-3.45499e-11 -1.67822e-09 0)
(-6.64246e-12 -7.68189e-10 0)
(-7.0619e-12 -8.15939e-10 0)
(2.5004e-11 -9.00514e-10 0)
(5.59445e-11 -9.33276e-10 0)
(-2.05166e-12 -8.823e-10 0)
(-1.05271e-11 -8.10987e-10 0)
(2.98419e-12 -7.91833e-10 0)
(3.1218e-11 -8.65205e-10 0)
(8.27258e-12 -8.14119e-10 0)
(0 0 0)
(1.91581e-11 -8.09077e-10 0)
(4.84302e-11 -2.46798e-09 0)
(0 0 0)
(2.19189e-11 -7.50076e-10 0)
(-6.24282e-12 -7.43272e-10 0)
(3.38577e-11 -2.13852e-09 0)
(5.64318e-11 -8.56341e-10 0)
(-1.26505e-11 -7.27411e-10 0)
(-2.77707e-11 -7.6054e-10 0)
(-3.79107e-11 -8.66668e-10 0)
(2.42975e-11 -8.9658e-10 0)
(2.8575e-11 -8.59298e-10 0)
(2.80001e-11 -8.20894e-10 0)
(-9.79568e-12 -7.92059e-10 0)
(2.79473e-11 -8.0883e-10 0)
(2.83867e-11 -8.40728e-10 0)
(-8.09152e-12 -8.4559e-10 0)
(-2.59805e-11 -8.59654e-10 0)
(-1.51299e-11 -9.36374e-10 0)
(0 0 0)
(6.21445e-12 -3.25773e-10 0)
(2.78564e-12 -1.08864e-09 0)
(1.40478e-11 -1.89273e-09 0)
(4.02733e-11 -8.03565e-10 0)
(3.35244e-11 -8.86988e-10 0)
(0 0 0)
(-3.22503e-11 -8.08213e-10 0)
(-8.28589e-11 -1.73819e-09 0)
(0 0 0)
(-8.20893e-11 -7.5456e-10 0)
(-1.79343e-10 -2.47102e-09 0)
(-4.76725e-11 -8.99074e-10 0)
(0 0 0)
(0 0 0)
(-8.31376e-11 -9.1706e-10 0)
(-4.42293e-11 -8.98686e-10 0)
(-2.17816e-11 -8.99267e-10 0)
(1.09492e-11 -8.57601e-10 0)
(1.15327e-10 -1.83132e-09 0)
(-1.03771e-11 -1.81862e-09 0)
(2.66521e-12 -7.80479e-10 0)
(-8.39635e-09 4.43989e-08 0)
(-6.64607e-10 3.77671e-09 0)
(2.23408e-10 2.14876e-10 0)
(1.06017e-10 -6.15344e-10 0)
(6.88189e-11 -7.32579e-10 0)
(1.24036e-11 -1.66706e-09 0)
(2.62287e-11 -7.69805e-10 0)
(-1.40644e-12 -8.41361e-10 0)
(2.61286e-10 -2.37408e-09 0)
(2.26622e-11 -8.64179e-10 0)
(3.81021e-11 -9.88103e-10 0)
(6.51697e-11 -1.48466e-09 0)
(1.78103e-11 -7.75348e-10 0)
(5.6973e-11 -2.04933e-09 0)
(-5.23413e-11 -9.2559e-10 0)
(-1.05764e-11 -7.87918e-10 0)
(-3.69219e-11 -7.62595e-10 0)
(-4.5585e-11 -8.45366e-10 0)
(0 0 0)
(0 0 0)
(2.46144e-11 -8.4261e-10 0)
(8.42091e-12 -1.75005e-09 0)
(0 0 0)
(0 0 0)
(-3.58675e-11 -1.33598e-09 0)
(3.7622e-11 -1.23854e-09 0)
(5.02444e-11 -9.4092e-10 0)
(5.26883e-11 -1.03675e-09 0)
(-2.16563e-11 -9.33505e-10 0)
(6.63419e-12 -7.82199e-10 0)
(5.61017e-12 -7.53196e-10 0)
(2.09421e-11 -8.18527e-10 0)
(2.23839e-11 -8.84139e-10 0)
(0 0 0)
(-5.50752e-12 -1.84016e-09 0)
(-2.73971e-11 -8.77972e-10 0)
(7.09402e-12 -1.88384e-10 0)
(1.78709e-11 -4.79489e-10 0)
(3.21179e-11 -1.80743e-09 0)
(-1.13337e-11 -7.52441e-10 0)
(1.64959e-10 -2.03469e-09 0)
(3.54311e-11 -8.4299e-10 0)
(-2.28998e-11 -8.45569e-10 0)
(-4.20181e-11 -8.55119e-10 0)
(-1.55203e-11 -8.5054e-10 0)
(1.89309e-11 -8.33993e-10 0)
(1.76998e-11 -8.15885e-10 0)
(2.58126e-11 -8.40708e-10 0)
(1.82594e-11 -8.0296e-10 0)
(1.31564e-11 -1.93839e-09 0)
(-2.00224e-11 -8.01985e-10 0)
(1.31608e-11 -8.00257e-10 0)
(2.0562e-11 -8.68625e-10 0)
(0 0 0)
(0 0 0)
(-2.3684e-11 -8.0128e-10 0)
(-8.98885e-12 -7.64612e-10 0)
(-5.263e-12 -8.57205e-10 0)
(3.03619e-12 -1.05381e-09 0)
(0 0 0)
(2.06084e-12 -8.97695e-10 0)
(-2.93518e-11 -8.44759e-10 0)
(-7.2651e-11 -8.39609e-10 0)
(0 0 0)
(-1.03337e-10 -9.57184e-10 0)
(2.93788e-11 -9.92169e-10 0)
(0 0 0)
(-2.48829e-11 -8.17654e-10 0)
(0 0 0)
(5.43249e-12 -8.93215e-10 0)
(0 0 0)
(0 0 0)
(4.5647e-12 -9.36313e-10 0)
(-6.46252e-12 -9.54999e-10 0)
(0 0 0)
(-5.1073e-09 7.88383e-08 0)
(-1.48702e-10 5.60678e-09 0)
(1.0351e-10 1.00414e-10 0)
(8.95919e-11 -6.58279e-10 0)
(2.62964e-12 -7.37957e-10 0)
(8.32217e-12 -7.88631e-10 0)
(1.89183e-11 -8.00922e-10 0)
(-1.14114e-11 -8.64698e-10 0)
(5.94651e-11 -2.47583e-09 0)
(7.95516e-11 -8.84594e-10 0)
(4.52135e-11 -7.23295e-10 0)
(1.14666e-11 -7.48172e-10 0)
(1.5432e-11 -7.59908e-10 0)
(-1.26741e-11 -2.35101e-09 0)
(1.80433e-11 -8.77119e-10 0)
(1.87208e-11 -7.35819e-10 0)
(0 0 0)
(-2.60723e-11 -8.1997e-10 0)
(2.73359e-12 -9.34237e-10 0)
(0 0 0)
(-2.16515e-11 -8.55033e-10 0)
(0 0 0)
(3.87843e-11 -8.1014e-10 0)
(2.99276e-11 -8.50673e-10 0)
(0 0 0)
(0 0 0)
(0 0 0)
(1.95779e-11 -9.94254e-10 0)
(5.68228e-11 -8.62325e-10 0)
(2.98789e-11 -7.42605e-10 0)
(2.01814e-11 -1.6624e-09 0)
(-2.30174e-12 -8.04753e-10 0)
(1.72479e-11 -8.7444e-10 0)
(-1.6457e-13 -8.99494e-10 0)
(-4.0578e-11 -9.18028e-10 0)
(-2.00053e-11 -9.21378e-10 0)
(0 0 0)
(6.72747e-11 -1.83003e-09 0)
(-1.75761e-11 -1.95415e-09 0)
(0 0 0)
(2.82395e-11 -1.81481e-09 0)
(0 0 0)
(-6.86259e-11 -1.6074e-09 0)
(-3.14353e-11 -1.36647e-09 0)
(-1.17817e-11 -8.42353e-10 0)
(9.18727e-12 -8.05136e-10 0)
(5.69623e-12 -8.13748e-10 0)
(6.36963e-13 -8.01373e-10 0)
(-3.37089e-12 -8.63538e-10 0)
(5.64195e-11 -1.99886e-09 0)
(-1.18738e-11 -8.03199e-10 0)
(1.00477e-13 -9.61568e-10 0)
(-1.73377e-11 -1.65828e-09 0)
(3.28538e-11 -7.32238e-10 0)
(-2.95856e-11 -1.86915e-09 0)
(-6.64947e-12 -1.87368e-10 0)
(-1.31848e-11 -3.57465e-10 0)
(-2.10438e-11 -7.77905e-10 0)
(-1.2885e-11 -8.99225e-10 0)
(4.04633e-11 -9.51696e-10 0)
(0 0 0)
(1.17974e-11 -8.89039e-10 0)
(-6.62189e-11 -8.52833e-10 0)
(-8.5126e-11 -9.01308e-10 0)
(0 0 0)
(-4.39364e-11 -8.90066e-10 0)
(-2.77618e-12 -8.86307e-10 0)
(-7.17879e-12 -8.82039e-10 0)
(5.16963e-12 -8.99972e-10 0)
(0 0 0)
(2.01508e-11 -9.21144e-10 0)
(4.14562e-11 -9.02863e-10 0)
(0 0 0)
(8.64068e-12 -2.03017e-09 0)
(-4.05684e-11 -7.95773e-10 0)
(5.17705e-08 5.20924e-08 0)
(9.87786e-09 8.60495e-09 0)
(3.28497e-11 -1.38156e-10 0)
(9.85022e-12 -8.41273e-10 0)
(6.85832e-12 -8.4954e-10 0)
(-5.30964e-12 -8.26574e-10 0)
(-8.79511e-12 -8.66606e-10 0)
(-2.76817e-11 -8.85795e-10 0)
(-2.61056e-11 -9.25797e-10 0)
(6.08635e-11 -8.87481e-10 0)
(3.50288e-11 -8.40768e-10 0)
(-1.72159e-13 -1.45181e-09 0)
(-1.31855e-11 -1.16424e-09 0)
(-2.59031e-11 -8.79044e-10 0)
(6.41052e-11 -9.57075e-10 0)
(4.91924e-11 -8.6664e-10 0)
(4.38113e-12 -2.90716e-10 0)
(4.13168e-12 -2.71832e-10 0)
(0 0 0)
(0 0 0)
(-9.95937e-12 -8.64042e-10 0)
(0 0 0)
(4.30886e-11 -8.35166e-10 0)
(4.97298e-11 -8.62805e-10 0)
(4.40941e-11 -8.44254e-10 0)
(3.8178e-11 -8.34014e-10 0)
(1.39752e-11 -8.71327e-10 0)
(-2.56015e-11 -9.03828e-10 0)
(1.8401e-10 -1.93288e-09 0)
(4.44238e-11 -8.17413e-10 0)
(0 0 0)
(1.49644e-11 -8.33055e-10 0)
(6.91238e-11 -8.58923e-10 0)
(-3.88872e-11 -9.44303e-10 0)
(-2.60001e-11 -8.77525e-10 0)
(6.48605e-12 -8.63171e-10 0)
(-1.03531e-11 -8.77273e-10 0)
(0 0 0)
(-1.13038e-11 -7.7356e-10 0)
(-3.16025e-11 -8.39186e-10 0)
(0 0 0)
(4.74308e-11 -2.5319e-09 0)
(0 0 0)
(-1.82934e-11 -8.39172e-10 0)
(2.06662e-11 -8.53315e-10 0)
(0 0 0)
(1.09353e-11 -8.69492e-10 0)
(0 0 0)
(0 0 0)
(-1.65719e-11 -1.07432e-09 0)
(-2.16123e-12 -5.35301e-11 0)
(-7.54847e-11 -1.76849e-09 0)
(-7.13816e-12 -7.35564e-10 0)
(-3.89972e-11 -8.49556e-10 0)
(-6.26439e-12 -8.64079e-10 0)
(3.12083e-11 -7.415e-10 0)
(4.90478e-11 -1.89384e-09 0)
(0 0 0)
(-6.16911e-12 -9.0889e-10 0)
(1.68156e-11 -9.40605e-10 0)
(0 0 0)
(-1.67948e-12 -8.89495e-10 0)
(0 0 0)
(0 0 0)
(-4.24126e-11 -9.40938e-10 0)
(-4.17308e-11 -9.0951e-10 0)
(-9.93074e-12 -1.99813e-09 0)
(-1.65995e-11 -7.81807e-10 0)
(-1.07924e-11 -8.57329e-10 0)
(1.13928e-11 -8.28893e-10 0)
(2.64506e-11 -8.47851e-10 0)
(0 0 0)
(-1.21148e-10 -3.70623e-09 0)
(-4.31611e-12 -8.29902e-10 0)
(-2.05271e-11 -7.63727e-10 0)
(4.36183e-08 -1.03773e-08 0)
(4.60268e-09 -9.33106e-10 0)
(6.83385e-10 -5.0577e-10 0)
(1.63871e-11 -8.5369e-10 0)
(7.12036e-11 -8.02296e-10 0)
(4.13009e-11 -8.5552e-10 0)
(1.65917e-11 -8.86284e-10 0)
(-9.43541e-12 -9.05562e-10 0)
(-1.34664e-11 -9.0592e-10 0)
(1.05126e-11 -9.55884e-10 0)
(3.18088e-12 -8.94728e-10 0)
(-1.48594e-11 -8.77818e-10 0)
(-2.64947e-11 -8.71803e-10 0)
(3.89311e-12 -8.74916e-10 0)