/*--------------------------------*- C++ -*----------------------------------*\
  =========                 |
  \\      /  F ield         | OpenFOAM: The Open Source CFD Toolbox
   \\    /   O peration     | Website:  https://openfoam.org
    \\  /    A nd           | Version:  12
     \\/     M anipulation  |
\*---------------------------------------------------------------------------*/
FoamFile
{
    format      ascii;
    class       volScalarField;
    location    "0.9";
    object      p;
}
// * * * * * * * * * * * * * * * * * * * * * * * * * * * * * * * * * * * * * //

dimensions      [0 2 -2 0 0 0 0];

internalField   nonuniform List<scalar> 
3750
(
1.66507
1.50482
1.48631
1.47634
1.4714
1.47467
1.45885
1.43663
1.43031
1.43057
1.43027
1.42548
1.40682
1.38314
1.35668
1.33062
1.31974
1.30114
1.29059
1.33695
1.32855
1.31047
1.28262
1.25677
1.24434
1.23449
1.2244
1.21369
1.20314
1.19285
1.18216
1.17816
1.12364
1.1238
1.1219
1.11822
1.09144
1.08781
1.08213
1.07497
1.06697
1.05786
1.0473
1.03526
1.02262
1.01055
0.997676
0.983084
0.965428
0.951126
0.992452
0.974299
0.955196
0.942585
0.931799
0.921548
0.910674
0.898207
0.888579
0.880497
0.872673
0.863437
0.851539
0.836261
0.82302
0.810955
0.799367
0.796434
0.745764
0.746513
0.742686
0.737746
0.730378
0.721234
0.711474
1.28934
1.47646
1.48455
1.47452
1.46368
1.48289
1.45514
1.42762
1.42374
1.43388
1.43497
1.43867
1.40579
1.36982
1.3698
1.32562
1.323
1.31184
1.30695
1.31995
1.31883
1.31667
1.27222
1.25303
1.2455
1.23604
1.22498
1.21292
1.20291
1.19327
1.17533
1.16378
1.13418
1.12548
1.12076
1.11491
1.0999
1.09126
1.08315
1.07572
1.06814
1.05951
1.04881
1.03572
1.02255
1.01074
0.998488
0.986261
0.974915
0.96959
0.981349
0.959089
0.95199
0.940818
0.930988
0.922129
0.91209
0.895407
0.887021
0.880542
0.874038
0.866178
0.85547
0.83369
0.821694
0.810501
0.790674
0.779272
0.759265
0.751056
0.744726
0.73838
0.730556
0.721764
0.711904
1.47251
1.47508
1.49187
1.47927
1.47598
1.47559
1.43365
1.41823
1.40734
1.44156
1.43606
1.42194
1.40369
1.38174
1.3672
1.34665
1.33587
1.31783
1.3118
1.31317
1.3092
1.29937
1.27686
1.25942
1.24806
1.23796
1.22624
1.21073
1.20231
1.20225
1.16224
1.16782
1.12395
1.12288
1.11873
1.11378
1.10502
1.09512
1.08531
1.07681
1.07019
1.06351
1.0524
1.03599
1.02118
1.01232
0.999644
0.988573
0.979172
0.972683
0.968852
0.953692
0.946851
0.938238
0.929404
0.920286
0.912083
0.890698
0.884503
0.880642
0.876737
0.87177
0.869951
0.821967
0.819346
0.81886
0.773877
0.770799
0.761159
0.75386
0.746161
0.741024
0.733095
0.723457
0.712924
1.4888
1.49011
1.5128
1.4745
1.47539
1.46353
1.44176
1.4159
1.40613
1.43866
1.43085
1.4159
1.4005
1.38445
1.37062
1.35803
1.35516
1.31273
1.31319
1.30814
1.30165
1.2915
1.27675
1.2628
1.2509
1.23984
1.22709
1.2063
1.19492
1.18634
1.16801
1.15617
1.13543
1.12352
1.11517
1.1173
1.11029
1.09871
1.08701
1.07591
1.07071
1.07208
1.06107
1.03674
1.02384
1.01197
0.999259
0.989561
0.98056
0.972196
0.964133
0.953491
0.945165
0.936038
0.927484
0.917904
0.906163
0.890293
0.880765
0.884853
0.880642
0.872866
0.859653
0.831075
0.817732
0.807047
0.779562
0.769013
0.760563
0.755621
0.751522
0.744807
0.73717
0.725577
0.713976
1.49552
1.48689
1.51543
1.49342
1.47678
1.46267
1.45525
1.41056
1.41529
1.42276
1.41929
1.40989
1.39848
1.3865
1.37279
1.35992
1.34862
1.32856
1.31828
1.30665
1.29794
1.28803
1.27617
1.26393
1.25129
1.24127
1.22881
1.20117
1.18936
1.18005
1.16733
1.15401
1.13815
1.12206
1.10776
1.13041
1.1185
1.10206
1.08782
1.07112
1.06009
1.08219
1.06586
1.04837
1.02571
1.01263
0.996537
0.989853
0.980791
0.97141
0.96174
0.951508
0.942523
0.934597
0.924975
0.914395
0.902514
0.891044
0.873704
0.894194
0.883989
0.871263
0.85657
0.833568
0.819109
0.815092
0.768442
0.765388
0.75762
0.754229
0.760373
0.753982
0.741201
0.728062
0.714431
1.50443
1.50018
1.50433
1.49698
1.47698
1.45875
1.44149
1.42548
1.42172
1.41759
1.41017
1.40296
1.40107
1.38972
1.37466
1.36034
1.35074
1.335
1.32297
1.30306
1.29616
1.28643
1.27632
1.26575
1.24781
1.24098
1.23835
1.18819
1.18504
1.17724
1.16692
1.15449
1.14078
1.12777
1.12001
1.12493
1.11591
1.10353
1.09047
1.07501
1.0697
1.07097
1.06524
1.06101
1.01489
1.01671
0.995143
0.990452
0.981093
0.970805
0.959779
0.947982
0.937114
0.935871
0.918724
0.914699
0.90453
0.894401
0.884153
0.883985
0.880163
0.869434
0.856414
0.83564
0.813371
0.800665
0.778298
0.766935
0.75475
0.745426
0.774709
0.764177
0.742342
0.732378
0.717287
1.50576
1.49843
1.49664
1.49301
1.49406
1.45991
1.42756
1.42865
1.4248
1.41828
1.40499
1.39057
1.4097
1.39339
1.37599
1.36263
1.3511
1.33729
1.32252
1.30611
1.29529
1.28526
1.27709
1.27505
1.23367
1.2331
1.22225
1.19938
1.18819
1.17935
1.16867
1.15611
1.14318
1.13156
1.12704
1.12269
1.11425
1.10463
1.0942
1.0785
1.07067
1.06471
1.05886
1.05036
1.0316
1.01454
0.998911
0.991057
0.981495
0.971128
0.959455
0.94586
0.930683
0.953489
0.901166
0.923152
0.90581
0.896435
0.886713
0.878913
0.874822
0.867098
0.859122
0.84514
0.799348
0.796685
0.777064
0.767824
0.761519
0.763136
0.771585
0.772213
0.72934
0.744308
0.743614
1.50351
1.48995
1.48904
1.48623
1.47803
1.46021
1.44449
1.43692
1.4302
1.42305
1.41245
1.40276
1.39722
1.38765
1.37571
1.36406
1.35195
1.33922
1.31853
1.30553
1.2947
1.28307
1.27209
1.25985
1.23949
1.22788
1.21676
1.20049
1.19643
1.18509
1.17151
1.15767
1.14427
1.13404
1.12895
1.12416
1.11523
1.1052
1.09701
1.07613
1.07163
1.06377
1.05677
1.04978
1.04663
1.00378
1.0004
0.992866
0.983719
0.972783
0.959955
0.948786
0.93905
0.935264
0.916826
0.915942
0.904027
0.892613
0.881413
0.873885
0.875296
0.865648
0.85192
0.83423
0.813974
0.811651
0.765116
0.758844
0.765384
0.779082
0.772864
0.760062
0.735961
0.759682
0.738733
1.51164
1.4888
1.48727
1.48412
1.46923
1.45804
1.45492
1.44489
1.43583
1.42881
1.42014
1.40928
1.39408
1.38485
1.37582
1.3657
1.35372
1.3489
1.3051
1.30191
1.29656
1.28211
1.26742
1.25306
1.23599
1.22132
1.21603
1.19568
1.21267
1.19126
1.17438
1.15887
1.14213
1.13068
1.13331
1.12687
1.11594
1.1054
1.0951
1.0798
1.07162
1.06293
1.05272
1.0444
1.0355
1.01731
1.00672
0.996727
0.985779
0.975723
0.959973
0.950987
0.946046
0.926475
0.918461
0.909866
0.899652
0.888092
0.874526
0.860031
0.880936
0.865629
0.842343
0.825458
0.811151
0.808198
0.776932
0.744462
0.775096
0.801335
0.778935
0.762995
0.750882
0.756598
0.734395
1.53831
1.53103
1.49846
1.48434
1.4622
1.44757
1.46507
1.44904
1.43809
1.43802
1.42617
1.41002
1.39356
1.38348
1.37737
1.36906
1.34959
1.33206
1.31415
1.30678
1.30042
1.28165
1.26271
1.24937
1.23212
1.211
1.22784
1.2097
1.20621
1.19171
1.17655
1.16138
1.13654
1.11859
1.14189
1.128
1.11708
1.10535
1.09284
1.08099
1.07309
1.06388
1.04784
1.03747
1.03594
1.02435
1.01219
1.00137
0.985469
0.978684
0.958464
0.953
0.943919
0.928847
0.91902
0.906734
0.895856
0.885667
0.875441
0.867298
0.866918
0.859576
0.832219
0.817722
0.800373
0.819939
0.783736
0.757623
0.792733
0.791481
0.777444
0.764383
0.754261
0.747841
0.73248
1.54511
1.53427
1.50308
1.48579
1.46844
1.45437
1.44979
1.43685
1.43199
1.45251
1.4323
1.41102
1.3864
1.3772
1.38254
1.38436
1.34146
1.32042
1.30974
1.31454
1.31488
1.27362
1.25546
1.24891
1.23626
1.22187
1.22174
1.21252
1.20339
1.19093
1.1779
1.17287
1.12713
1.12437
1.12792
1.12137
1.12146
1.10596
1.08982
1.07737
1.07675
1.0696
1.04163
1.02847
1.04509
1.02856
1.01434
1.00507
0.984593
0.978213
0.962656
0.95423
0.944152
0.932707
0.922052
0.902683
0.891086
0.882934
0.874944
0.868014
0.860938
0.851015
0.831709
0.816439
0.805734
0.814703
0.798676
0.78365
0.788092
0.783091
0.773248
0.762921
0.753576
0.745975
0.743608
1.54398
1.52919
1.50744
1.48984
1.47304
1.45758
1.4429
1.425
1.44907
1.44699
1.4344
1.41642
1.36583
1.36257
1.38639
1.37628
1.34939
1.32425
1.3004
1.32205
1.30539
1.28258
1.26329
1.25313
1.24334
1.22551
1.21366
1.20984
1.20448
1.19048
1.17236
1.1603
1.1417
1.13283
1.12344
1.11171
1.13331
1.10525
1.08527
1.06389
1.08223
1.0684
1.04712
1.0352
1.03469
1.02491
1.01352
1.0026
0.98634
0.976697
0.967172
0.956651
0.945752
0.937513
0.935196
0.890494
0.883986
0.876834
0.868973
0.868956
0.861032
0.848737
0.832848
0.815243
0.800408
0.822216
0.808795
0.793241
0.785102
0.777836
0.769147
0.759913
0.750996
0.741742
0.730934
1.5493
1.53112
1.5095
1.49383
1.47601
1.45989
1.44488
1.43194
1.43739
1.44548
1.44134
1.39008
1.37292
1.36559
1.38045
1.37069
1.35136
1.33282
1.30732
1.31013
1.29842
1.28304
1.26839
1.25884
1.25657
1.21541
1.20389
1.20599
1.21071
1.19411
1.17018
1.15716
1.14648
1.13771
1.12918
1.12444
1.13479
1.09169
1.08428
1.06854
1.06564
1.06215
1.05327
1.03742
1.02992
1.02105
1.01053
0.999583
0.987555
0.978917
0.972734
0.962236
0.944159
0.935045
0.925486
0.906726
0.884257
0.868789
0.855686
0.877289
0.864391
0.849319
0.83547
0.822833
0.814575
0.814285
0.807204
0.795143
0.784876
0.775394
0.765819
0.756408
0.748272
0.740329
0.727948
1.56355
1.5334
1.51099
1.49386
1.47698
1.4615
1.44834
1.4343
1.42195
1.44506
1.42921
1.40064
1.37359
1.3565
1.38097
1.36864
1.35264
1.32987
1.31242
1.30381
1.29341
1.28164
1.26916
1.25766
1.2462
1.22507
1.20482
1.19253
1.21812
1.19794
1.17304
1.15847
1.14927
1.14218
1.13504
1.12831
1.12046
1.10162
1.08712
1.06866
1.05662
1.05536
1.06755
1.02845
1.02838
1.01897
1.00814
0.996817
0.985163
0.977917
0.985401
0.976956
0.932695
0.931142
0.924791
0.92524
0.877852
0.867715
0.861567
0.864348
0.859287
0.848849
0.837551
0.826611
0.818515
0.811311
0.804521
0.79475
0.784134
0.773148
0.762355
0.751565
0.742989
0.744228
0.731622
1.56473
1.52542
1.50708
1.49199
1.47691
1.46133
1.45103
1.4385
1.4302
1.43003
1.42137
1.41261
1.36492
1.36346
1.36723
1.3628
1.36034
1.31558
1.31149
1.30254
1.291
1.28225
1.26875
1.25618
1.2429
1.22719
1.21216
1.20252
1.20301
1.19089
1.17328
1.15761
1.14749
1.14812
1.14067
1.13132
1.11578
1.10267
1.08864
1.06872
1.05085
1.03905
1.06683
1.04632
1.03064
1.01823
1.00625
0.994276
0.980002
0.970143
1.00654
0.959284
0.945486
0.935818
0.924685
0.913344
0.890955
0.875609
0.868714
0.859477
0.85636
0.848204
0.839461
0.827923
0.819105
0.811543
0.803962
0.795066
0.784304
0.770834
0.758451
0.746583
0.734146
0.755425
0.74135
1.48511
1.50426
1.50483
1.49124
1.47632
1.46239
1.45133
1.44106
1.43228
1.42169
1.41233
1.39953
1.37755
1.368
1.36163
1.35448
1.34494
1.32499
1.31381
1.30373
1.29273
1.27987
1.26773
1.2553
1.24175
1.22807
1.21664
1.20732
1.19858
1.1876
1.17283
1.15407
1.13768
1.15949
1.14523
1.13491
1.11266
1.10419
1.09124
1.07031
1.05515
1.04767
1.05169
1.0431
1.03101
1.01858
1.00428
0.991955
0.981984
0.977809
0.982434
0.965541
0.951873
0.942847
0.924828
0.907044
0.892891
0.881328
0.883605
0.84819
0.853068
0.850219
0.843357
0.826282
0.818282
0.811986
0.804767
0.796795
0.78609
0.767036
0.751416
0.75079
0.746261
0.747114
0.737935
1.53329
1.51039
1.50507
1.49125
1.47447
1.46107
1.45091
1.4419
1.43323
1.41541
1.40635
1.39475
1.37789
1.36642
1.35781
1.34936
1.33946
1.32598
1.31487
1.30499
1.29478
1.27643
1.2668
1.25577
1.23912
1.22757
1.21826
1.20969
1.20011
1.188
1.17607
1.15489
1.14597
1.1497
1.14173
1.13192
1.11512
1.10504
1.0987
1.07064
1.05554
1.04933
1.04616
1.0403
1.03159
1.02046
1.00104
0.988945
0.979374
0.981468
0.973906
0.962849
0.954125
0.957476
0.916278
0.9013
0.889197
0.879829
0.873458
0.861146
0.85727
0.855409
0.857918
0.815442
0.816342
0.812673
0.806574
0.799654
0.791053
0.762471
0.739982
0.761849
0.751118
0.742364
0.734603
1.61911
1.52568
1.50921
1.49236
1.47069
1.45791
1.44933
1.44251
1.44201
1.40045
1.40055
1.3916
1.37521
1.36327
1.35502
1.34613
1.33605
1.3252
1.31463
1.30684
1.30565
1.26428
1.26446
1.25501
1.23812
1.22755
1.22021
1.21247
1.20404
1.18843
1.18762
1.14619
1.1475
1.14504
1.13776
1.12852
1.1166
1.10734
1.1029
1.08344
1.04521
1.04697
1.04442
1.04097
1.0345
1.02614
0.992218
0.985151
0.970433
0.994203
0.970039
0.957976
0.950254
0.943507
0.925965
0.911488
0.884056
0.87695
0.870299
0.865939
0.859388
0.858365
0.852724
0.82677
0.819577
0.815621
0.809169
0.800441
0.788976
0.766281
0.750796
0.751903
0.747924
0.739839
0.731298
1.69632
1.55595
1.51185
1.48832
1.46846
1.45573
1.44598
1.43674
1.42701
1.40842
1.39847
1.38717
1.37163
1.36313
1.35506
1.34513
1.33352
1.32375
1.31208
1.30208
1.29202
1.27356
1.26449
1.25474
1.24172
1.23114
1.2226
1.21577
1.21543
1.17417
1.17427
1.15953
1.15171
1.14454
1.13624
1.12659
1.1162
1.10604
1.09564
1.07863
1.05845
1.04866
1.04371
1.04681
1.04035
1.03451
0.982439
0.98268
0.98063
0.994772
0.952558
0.950467
0.944266
0.936803
0.926108
0.914561
0.88567
0.874151
0.865033
0.871307
0.858012
0.868082
0.86717
0.819743
0.817619
0.823244
0.814005
0.80369
0.793072
0.76447
0.753999
0.749097
0.744734
0.737701
0.728596
1.67686
1.54143
1.49346
1.47583
1.46355
1.45248
1.44227
1.43208
1.4211
1.40796
1.39658
1.38439
1.36539
1.36631
1.3568
1.34629
1.33575
1.3175
1.30723
1.29778
1.28699
1.27358
1.26155
1.25159
1.24857
1.23588
1.22334
1.21276
1.20181
1.18289
1.17546
1.16596
1.1554
1.14583
1.13628
1.12595
1.11496
1.10343
1.09088
1.07657
1.06152
1.04747
1.03492
1.05986
1.04228
1.01914
0.994313
0.98614
0.982019
0.97691
0.957815
0.947799
0.940073
0.932856
0.923746
0.913221
0.89692
0.869141
0.854013
0.873757
0.85977
0.87922
0.86151
0.835037
0.818065
0.839457
0.818172
0.80608
0.805515
0.751244
0.754293
0.748545
0.743936
0.737537
0.726872
1.34737
1.46236
1.47491
1.46631
1.45841
1.44883
1.43873
1.42821
1.41723
1.40585
1.39563
1.38964
1.34113
1.36986
1.35838
1.34748
1.34486
1.30257
1.30167
1.29459
1.2848
1.2728
1.2587
1.24216
1.25984
1.23594
1.22289
1.2106
1.19718
1.17573
1.17861
1.17546
1.15654
1.14779
1.13803
1.12691
1.1139
1.10177
1.08915
1.07581
1.06213
1.05208
1.05535
1.05351
1.03605
1.01196
0.994361
0.987123
0.98273
0.973913
0.953007
0.941964
0.936533
0.93075
0.922729
0.91448
0.91519
0.86821
0.8655
0.870494
0.865564
0.871047
0.85944
0.844511
0.834863
0.838855
0.810825
0.799419
0.788671
0.765648
0.75858
0.747228
0.745032
0.741577
0.726335
1.40715
1.44408
1.46172
1.46019
1.45434
1.44528
1.43553
1.42473
1.41375
1.40244
1.39042
1.37712
1.35995
1.36041
1.35148
1.34059
1.32984
1.31122
1.30202
1.29379
1.28455
1.27384
1.26273
1.25285
1.25098
1.23399
1.22105
1.21005
1.20219
1.14956
1.18001
1.17906
1.164
1.1517
1.14104
1.12876
1.11232
1.10051
1.08885
1.07576
1.05999
1.04758
1.0723
1.04926
1.02877
1.00878
0.98732
0.987798
0.987527
0.984574
0.939142
0.928675
0.933223
0.92881
0.923529
0.915773
0.906952
0.888453
0.874228
0.871536
0.868249
0.86543
0.858085
0.849561
0.843198
0.838763
0.80875
0.790432
0.780647
0.769885
0.76729
0.736656
0.747545
0.756945
0.721536
1.45354
1.459
1.46204
1.45894
1.45276
1.44391
1.43304
1.42173
1.41056
1.39899
1.38758
1.37506
1.36673
1.36031
1.34407
1.33372
1.32282
1.31033
1.30131
1.29414
1.28628
1.2762
1.26623
1.25804
1.24938
1.22948
1.21772
1.20613
1.19145
1.1666
1.16187
1.18772
1.17123
1.15473
1.14349
1.13022
1.11066
1.10119
1.08991
1.07824
1.06688
1.06137
1.07457
1.03298
1.02139
1.0153
0.962071
0.991034
0.984429
0.971932
0.958134
0.907944
0.937639
0.925806
0.92721
0.918118
0.907353
0.903332
0.871034
0.873942
0.870142
0.864639
0.857888
0.852122
0.847206
0.837096
0.821491
0.773487
0.773358
0.767695
0.754025
0.752031
0.752561
0.747855
0.738708
1.48242
1.4722
1.46741
1.46125
1.4544
1.44331
1.43196
1.42131
1.40756
1.39457
1.38324
1.36928
1.36863
1.37211
1.32979
1.32703
1.31755
1.30613
1.29753
1.29804
1.28989
1.2788
1.26881
1.26132
1.2601
1.21728
1.21473
1.20515
1.19201
1.17801
1.1693
1.17246
1.16427
1.15271
1.14211
1.13037
1.11394
1.10318
1.09219
1.08025
1.06945
1.06216
1.05767
1.0504
1.0086
1.00468
0.980931
0.983365
0.975437
0.962041
0.948632
0.926491
0.926895
0.91679
0.940157
0.921378
0.903014
0.886359
0.896982
0.883012
0.872857
0.865237
0.858246
0.851385
0.843812
0.832251
0.814591
0.782896
0.773977
0.773588
0.790044
0.770822
0.756861
0.747437
0.749069
1.49839
1.48054
1.46838
1.46655
1.4589
1.44852
1.42924
1.41656
1.40121
1.38805
1.38086
1.35075
1.36717
1.36311
1.34091
1.32762
1.31488
1.30002
1.28478
1.30537
1.29334
1.27919
1.26836
1.25903
1.24861
1.22923
1.21844
1.20753
1.19472
1.18433
1.17533
1.16732
1.1586
1.14956
1.14004
1.12937
1.11768
1.10683
1.09539
1.08174
1.06984
1.05804
1.04504
1.03364
1.022
1.01348
0.986335
0.979055
0.970288
0.9584
0.945668
0.929772
0.920953
0.928061
0.933595
0.920302
0.905951
0.894817
0.891228
0.882577
0.873073
0.865417
0.858768
0.850963
0.841224
0.82979
0.822959
0.77455
0.770077
0.766407
0.79673
0.77864
0.758251
0.740222
0.761999
1.52893
1.48793
1.46099
1.4766
1.4634
1.46165
1.41771
1.41095
1.38986
1.377
1.34961
1.36046
1.38204
1.36156
1.3425
1.32771
1.31391
1.30377
1.29306
1.29328
1.28687
1.27713
1.26738
1.25753
1.24617
1.23292
1.22219
1.21157
1.19298
1.18458
1.17588
1.16374
1.15533
1.14759
1.13966
1.12933
1.12023
1.11109
1.10098
1.08144
1.06931
1.05448
1.03537
1.01907
1.033
1.01244
0.989211
0.977715
0.968666
0.957688
0.944439
0.926778
0.912246
0.942346
0.931285
0.917953
0.906314
0.896807
0.888547
0.879777
0.871366
0.864691
0.859389
0.851686
0.840319
0.8224
0.808245
0.786048
0.77779
0.775631
0.782921
0.777069
0.762573
0.751863
0.749445
1.61233
1.48269
1.45952
1.46007
1.45562
1.44489
1.42603
1.40561
1.39139
1.37697
1.36214
1.36296
1.36481
1.35478
1.34059
1.3273
1.3154
1.30416
1.2955
1.287
1.28101
1.27534
1.26719
1.25706
1.24584
1.23465
1.22567
1.22322
1.18011
1.17794
1.17088
1.16365
1.15659
1.1492
1.14157
1.12862
1.12266
1.11558
1.11551
1.07296
1.06726
1.05418
1.04002
1.02894
1.02252
1.00103
0.986611
0.976838
0.969211
0.959081
0.946453
0.932768
0.923106
0.928991
0.924151
0.914915
0.904564
0.895378
0.886427
0.877471
0.867201
0.85893
0.862925
0.854883
0.838985
0.818989
0.802201
0.788426
0.779708
0.776716
0.783824
0.778758
0.766281
0.755161
0.745027
1.265
1.4422
1.44781
1.44774
1.44603
1.43711
1.42303
1.40628
1.39372
1.38169
1.37056
1.36342
1.35639
1.34778
1.33662
1.32518
1.31431
1.30349
1.29294
1.28133
1.27403
1.27793
1.269
1.25699
1.24521
1.23378
1.22246
1.21034
1.18927
1.17564
1.16628
1.17026
1.16042
1.14994
1.14368
1.12674
1.12547
1.11504
1.10502
1.08543
1.07215
1.05549
1.04472
1.03661
1.02907
0.983665
0.979879
0.972162
0.973119
0.962942
0.949666
0.936698
0.925408
0.917972
0.921083
0.912672
0.901533
0.893421
0.88555
0.8754
0.863131
0.849848
0.872603
0.856356
0.83629
0.814573
0.799857
0.790062
0.779608
0.771276
0.795696
0.783881
0.768502
0.756484
0.744876
1.45127
1.41445
1.43277
1.4384
1.43837
1.43224
1.42237
1.40994
1.398
1.38587
1.374
1.3638
1.35218
1.34215
1.33192
1.32418
1.313
1.30265
1.29056
1.27381
1.25943
1.28511
1.27253
1.25654
1.24431
1.23273
1.2201
1.20633
1.18982
1.17221
1.15715
1.17766
1.1635
1.14782
1.13589
1.13683
1.12668
1.11484
1.10293
1.08795
1.07376
1.05939
1.04649
1.03392
1.01881
0.994778
0.979041
0.962873
0.983286
0.968152
0.952502
0.939213
0.923536
0.900613
0.923628
0.909607
0.895131
0.887056
0.889008
0.881626
0.870013
0.861728
0.861652
0.849509
0.831516
0.810395
0.79285
0.792166
0.792409
0.786065
0.786918
0.77885
0.767793
0.757218
0.745746
1.43099
1.4208
1.43079
1.43467
1.43583
1.43074
1.42296
1.41332
1.40267
1.3905
1.37536
1.36494
1.34705
1.33813
1.32966
1.32146
1.31208
1.30194
1.29098
1.27872
1.26855
1.27215
1.26513
1.253
1.24328
1.23242
1.21842
1.20551
1.19175
1.17698
1.16572
1.16498
1.15885
1.14366
1.12464
1.1464
1.1298
1.11525
1.10322
1.08922
1.07512
1.06111
1.0477
1.03367
1.01777
0.997354
0.985278
0.973955
0.973041
0.964495
0.953623
0.943627
0.938064
0.896662
0.906966
0.899305
0.88512
0.876041
0.896858
0.888763
0.875414
0.865561
0.857114
0.845931
0.829185
0.807602
0.778106
0.792452
0.80959
0.791836
0.781232
0.773334
0.766042
0.758603
0.748304
1.43369
1.42373
1.4335
1.43451
1.43728
1.43216
1.42682
1.41727
1.40745
1.39277
1.37682
1.37494
1.33403
1.33383
1.3277
1.31976
1.31108
1.30205
1.29292
1.28358
1.27582
1.26397
1.25276
1.24262
1.24403
1.23562
1.21579
1.20505
1.19459
1.17981
1.16966
1.16146
1.15433
1.14329
1.13473
1.13706
1.12671
1.11346
1.10418
1.0907
1.07666
1.06251
1.04886
1.03551
1.02134
0.998467
0.987442
0.977966
0.969853
0.961968
0.953425
0.943672
0.925026
0.90901
0.90527
0.894752
0.886541
0.884004
0.889884
0.885612
0.877142
0.867412
0.85782
0.84723
0.831767
0.814079
0.788579
0.790846
0.793248
0.781568
0.775016
0.767734
0.761913
0.763636
0.753519
1.43955
1.4573
1.4422
1.43905
1.43745
1.43617
1.4345
1.42101
1.40922
1.38874
1.37264
1.36165
1.34479
1.3359
1.32742
1.31883
1.31077
1.30253
1.29484
1.2856
1.27919
1.26063
1.24258
1.22643
1.25224
1.24827
1.20354
1.20295
1.19717
1.17732
1.17091
1.16215
1.15388
1.14586
1.13859
1.13289
1.12453
1.11413
1.10431
1.09217
1.07889
1.06338
1.04963
1.03782
1.03355
0.989038
0.986252
0.976638
0.967809
0.960173
0.954262
0.952976
0.909357
0.906576
0.907634
0.89238
0.887505
0.887033
0.885693
0.883209
0.879829
0.868811
0.858652
0.853269
0.837222
0.829464
0.784621
0.789095
0.784875
0.773269
0.761859
0.760923
0.759745
0.780461
0.760632
1.39463
1.46947
1.44093
1.44385
1.44068
1.43788
1.43956
1.42227
1.4183
1.37394
1.36924
1.35981
1.34812
1.33762
1.32757
1.31722
1.30843
1.30598
1.29552
1.28517
1.2746
1.25735
1.24242
1.2307
1.23372
1.22904
1.21312
1.2056
1.19699
1.18204
1.17206
1.16223
1.15387
1.14746
1.14012
1.13285
1.12451
1.1151
1.1054
1.09508
1.08311
1.06212
1.04821
1.03145
1.02076
1.00242
0.992012
0.974043
0.965311
0.957343
0.949717
0.939389
0.918527
0.907893
0.910093
0.894012
0.880346
0.883723
0.888173
0.891383
0.882023
0.869229
0.861177
0.863186
0.833172
0.818527
0.79964
0.792542
0.782902
0.767415
0.744016
0.758159
0.780281
0.772712
0.758698
1.58572
1.47839
1.46343
1.45232
1.44466
1.43298
1.41012
1.41033
1.40326
1.38412
1.37283
1.3616
1.34989
1.33904
1.32803
1.31547
1.30129
1.31109
1.2938
1.28416
1.27102
1.25641
1.24317
1.23127
1.22166
1.21529
1.21532
1.20882
1.1984
1.18635
1.17559
1.15982
1.15364
1.1486
1.14164
1.13386
1.12524
1.11658
1.10734
1.09939
1.0965
1.04963
1.04472
1.02605
1.01771
1.00753
1.00549
0.962912
0.961554
0.954441
0.946453
0.936122
0.919019
0.903104
0.920479
0.895914
0.867469
0.879316
0.89328
0.907309
0.883052
0.864279
0.849836
0.844647
0.814113
0.811082
0.801736
0.797483
0.786962
0.773575
0.759119
0.756356
0.766127
0.762386
0.754672
1.54731
1.5175
1.48087
1.45927
1.44583
1.4405
1.41776
1.40861
1.39983
1.38681
1.37485
1.36291
1.35114
1.33982
1.3291
1.32113
1.32226
1.29001
1.28867
1.27985
1.26755
1.25497
1.24202
1.22901
1.21394
1.19487
1.21706
1.21546
1.20166
1.18954
1.18532
1.14406
1.15388
1.15163
1.14383
1.13569
1.12692
1.11809
1.10826
1.09886
1.08781
1.06419
1.04169
1.02455
1.01444
1.00468
0.994464
0.97487
0.96373
0.953154
0.944161
0.940567
0.928828
0.915981
0.912037
0.899294
0.886276
0.885496
0.887213
0.888532
0.876157
0.858491
0.832066
0.848946
0.828392
0.807253
0.806765
0.802348
0.793104
0.776142
0.765869
0.75371
0.755619
0.756244
0.752574
1.51681
1.50376
1.48276
1.46141
1.44225
1.46675
1.41795
1.41029
1.40044
1.38865
1.37644
1.3641
1.35166
1.33942
1.32837
1.32045
1.31485
1.29974
1.29025
1.27943
1.26515
1.25295
1.24077
1.22802
1.2128
1.19818
1.19583
1.21945
1.20228
1.18545
1.16838
1.14458
1.16749
1.1576
1.14647
1.13776
1.1291
1.12016
1.10913
1.10027
1.09145
1.0762
1.02635
1.02274
1.01285
1.00322
0.992643
0.979037
0.96594
0.951522
0.935998
0.955502
0.938352
0.92099
0.910032
0.902022
0.896189
0.889884
0.882929
0.877101
0.872198
0.870231
0.828697
0.837545
0.834218
0.786419
0.816933
0.807535
0.804943
0.765433
0.766099
0.746033
0.752197
0.750927
0.756275
1.51368
1.4999
1.48327
1.46663
1.45224
1.44886
1.42922
1.41529
1.40309
1.39084
1.37828
1.36525
1.35198
1.33832
1.3248
1.3143
1.31531
1.30592
1.29331
1.28151
1.26298
1.25013
1.23986
1.22941
1.21256
1.20347
1.19826
1.20234
1.19351
1.18124
1.16715
1.15499
1.15535
1.15277
1.14694
1.13977
1.1322
1.12417
1.10756
1.10141
1.10175
1.05732
1.03574
1.01867
1.01059
1.00265
0.993548
0.982072
0.970367
0.959247
0.948672
0.950034
0.940272
0.920348
0.909025
0.90199
0.897185
0.891069
0.880484
0.873399
0.866883
0.858105
0.84104
0.833455
0.824239
0.807707
0.809896
0.802186
0.790178
0.766678
0.747546
0.7629
0.7602
0.746646
0.766842
1.51082
1.49896
1.48579
1.47064
1.45601
1.44505
1.43137
1.4186
1.40636
1.39373
1.38055
1.36669
1.3522
1.33768
1.3219
1.30473
1.32303
1.30731
1.2946
1.28328
1.26029
1.24769
1.2358
1.23111
1.21201
1.20731
1.201
1.19609
1.18639
1.17875
1.16574
1.15661
1.14395
1.15241
1.14782
1.14281
1.13481
1.13693
1.09606
1.0965
1.09167
1.0818
1.04088
1.00624
1.00784
1.00361
0.995397
0.9851
0.974884
0.968711
0.955349
0.94934
0.950638
0.910404
0.902902
0.899153
0.895603
0.890191
0.882106
0.872224
0.863755
0.854508
0.843108
0.834758
0.824833
0.813865
0.806456
0.797623
0.785547
0.770695
0.754924
0.749621
0.772356
0.761211
0.761119
1.51123
1.50042
1.48923
1.47463
1.45238
1.44587
1.43285
1.42122
1.40896
1.3967
1.38333
1.3688
1.35259
1.33826
1.3245
1.31385
1.31371
1.30527
1.29441
1.27456
1.26152
1.24238
1.23029
1.22469
1.21545
1.20751
1.20482
1.193
1.18395
1.17809
1.16091
1.16126
1.11756
1.15315
1.14892
1.15111
1.12596
1.12626
1.108
1.09686
1.08698
1.07209
1.04042
1.02022
1.01169
1.00809
0.999321
0.988612
0.98206
0.98523
0.947543
0.941002
0.938352
0.932723
0.893725
0.896602
0.894702
0.891183
0.88592
0.870168
0.86161
0.852968
0.843323
0.836925
0.826251
0.81554
0.806062
0.79566
0.78369
0.774983
0.763403
0.758344
0.76571
0.7639
0.767188
1.51461
1.50372
1.4933
1.4867
1.43986
1.44612
1.43053
1.42578
1.41355
1.40064
1.38711
1.37284
1.35151
1.33818
1.32623
1.31567
1.30732
1.30144
1.30221
1.2593
1.2542
1.2398
1.22931
1.21878
1.21542
1.21695
1.20716
1.19265
1.17943
1.17105
1.15829
1.14668
1.13241
1.1415
1.13784
1.12979
1.14418
1.13128
1.11387
1.09638
1.0871
1.07984
1.02871
1.02336
1.01746
1.01261
1.00481
0.988182
0.981188
0.976919
0.970067
0.929465
0.930244
0.922782
0.906467
0.899768
0.895435
0.894559
0.899123
0.860227
0.859411
0.852898
0.844857
0.837116
0.827462
0.817128
0.807303
0.796282
0.784456
0.774816
0.765308
0.763588
0.759726
0.756217
0.75001
1.5185
1.50711
1.4942
1.47645
1.45017
1.46811
1.41819
1.43605
1.41723
1.40444
1.39128
1.37887
1.34738
1.33841
1.327
1.31432
1.30015
1.28996
1.28879
1.26839
1.25475
1.24159
1.22891
1.2149
1.2049
1.23164
1.2091
1.19147
1.17852
1.16681
1.15457
1.14131
1.12927
1.13617
1.14215
1.13768
1.13346
1.12841
1.12812
1.0884
1.08477
1.06517
1.038
1.02749
1.02277
1.01855
1.01966
0.978674
0.978
0.97105
0.959528
0.941082
0.931255
0.921836
0.910194
0.90098
0.892592
0.889706
0.892353
0.876555
0.862975
0.854258
0.847018
0.839587
0.830198
0.818264
0.809171
0.796252
0.785028
0.774537
0.766822
0.761295
0.755987
0.751137
0.744043
1.52679
1.51375
1.49866
1.48171
1.46649
1.45925
1.43824
1.43011
1.41719
1.40204
1.39398
1.38869
1.33837
1.33805
1.32942
1.31575
1.29273
1.27324
1.29111
1.27063
1.2542
1.2411
1.22967
1.21922
1.21431
1.22891
1.19098
1.18724
1.17766
1.16353
1.15242
1.13743
1.11678
1.13582
1.15813
1.13939
1.12341
1.10833
1.12723
1.10573
1.09837
1.05287
1.03557
1.02843
1.02616
1.01983
1.01053
0.992374
0.981126
0.969884
0.957511
0.943889
0.93129
0.923812
0.911633
0.901506
0.887298
0.880741
0.898406
0.884485
0.865209
0.856895
0.849926
0.842273
0.833723
0.822699
0.812336
0.796077
0.784529
0.773034
0.765459
0.758808
0.752451
0.747991
0.741889
1.53508
1.52481
1.50415
1.48705
1.47463
1.46361
1.44497
1.42425
1.41276
1.39805
1.38627
1.37516
1.35379
1.34258
1.33313
1.31752
1.2934
1.27892
1.27462
1.26403
1.25073
1.23887
1.22828
1.21885
1.21447
1.21201
1.19748
1.1885
1.18089
1.16049
1.15289
1.14264
1.13563
1.1354
1.14028
1.13079
1.12364
1.11456
1.11239
1.10008
1.08552
1.06261
1.04369
1.02865
1.02496
1.02599
1.01282
0.99843
0.984378
0.96966
0.956982
0.944621
0.932849
0.923719
0.912748
0.904313
0.894948
0.89902
0.870011
0.871872
0.873697
0.86444
0.854516
0.845162
0.836072
0.827012
0.814795
0.797024
0.784251
0.767943
0.762749
0.755685
0.746975
0.741724
0.74573
1.54171
1.52975
1.50281
1.48864
1.4794
1.46819
1.46001
1.40991
1.40472
1.39225
1.38179
1.37213
1.35794
1.34301
1.33027
1.31523
1.29761
1.27938
1.26717
1.25846
1.24536
1.23341
1.22192
1.20955
1.21418
1.20975
1.19927
1.18886
1.17856
1.1658
1.15578
1.14667
1.13963
1.13242
1.1305
1.12609
1.11977
1.11253
1.10528
1.09447
1.08055
1.06352
1.04653
1.02975
1.016
1.03502
1.01636
1.00486
0.989144
0.967649
0.956051
0.944938
0.934548
0.925495
0.917426
0.900906
0.893471
0.889282
0.873556
0.861379
0.884038
0.872205
0.859076
0.848983
0.83805
0.826538
0.812021
0.797714
0.789658
0.757386
0.761465
0.754563
0.741615
0.730329
0.755862
1.52085
1.491
1.48801
1.48731
1.47951
1.4617
1.44823
1.41582
1.40776
1.39399
1.38433
1.37519
1.36301
1.34144
1.32673
1.31437
1.2996
1.28078
1.26777
1.25817
1.23724
1.22478
1.21151
1.19756
1.22374
1.21284
1.2006
1.18973
1.17865
1.16758
1.15735
1.14839
1.1403
1.13259
1.12777
1.12311
1.11739
1.11046
1.1015
1.09064
1.07813
1.06377
1.04933
1.03615
1.0267
1.02742
1.01725
1.00707
1.00226
0.958147
0.954629
0.94417
0.934577
0.927018
0.929817
0.888159
0.889265
0.885937
0.878377
0.87356
0.876054
0.872222
0.863254
0.855786
0.840935
0.826536
0.803958
0.788072
0.770314
0.782092
0.770341
0.757866
0.747546
0.742425
0.745487
1.52202
1.51169
1.47635
1.48132
1.47707
1.45253
1.44324
1.42147
1.40889
1.39766
1.38846
1.38148
1.37788
1.33281
1.31982
1.30927
1.29754
1.27898
1.26949
1.26977
1.22089
1.21551
1.20412
1.20844
1.21899
1.21034
1.20006
1.18946
1.17914
1.16914
1.15885
1.14895
1.13993
1.13184
1.12535
1.12066
1.11622
1.11009
1.1005
1.08938
1.07729
1.06423
1.05163
1.04015
1.03073
1.02224
1.01333
1.00213
0.990467
0.97361
0.960648
0.94375
0.933113
0.923892
0.915051
0.895169
0.887157
0.889004
0.884454
0.878022
0.873461
0.873789
0.87569
0.863576
0.842479
0.834406
0.787661
0.787142
0.778781
0.776535
0.76892
0.759515
0.751571
0.747766
0.751496
1.52229
1.50986
1.49311
1.48448
1.47258
1.45378
1.44053
1.42301
1.40947
1.39917
1.39048
1.38451
1.36891
1.35761
1.31134
1.30632
1.3024
1.26102
1.26062
1.25717
1.22916
1.21215
1.19578
1.2229
1.21655
1.20513
1.19871
1.18848
1.17875
1.16914
1.15873
1.14868
1.13949
1.12863
1.12151
1.11552
1.11933
1.1124
1.10095
1.08915
1.07721
1.06496
1.0529
1.04177
1.03117
1.02106
1.01167
1.00099
0.989683
0.97726
0.963214
0.944091
0.931704
0.922279
0.910693
0.893375
0.87667
0.899459
0.887714
0.876026
0.87579
0.871761
0.897784
0.8716
0.835769
0.816747
0.797517
0.789401
0.782553
0.775168
0.767542
0.759497
0.751554
0.744731
0.738177
1.52405
1.5158
1.50169
1.4907
1.4701
1.45286
1.44136
1.4207
1.4076
1.39907
1.3954
1.39643
1.35576
1.35165
1.32612
1.30425
1.28281
1.26506
1.25741
1.24966
1.23217
1.21793
1.20954
1.21579
1.21026