/*--------------------------------*- C++ -*----------------------------------*\
  =========                 |
  \\      /  F ield         | OpenFOAM: The Open Source CFD Toolbox
   \\    /   O peration     | Website:  https://openfoam.org
    \\  /    A nd           | Version:  12
     \\/     M anipulation  |
\*---------------------------------------------------------------------------*/
FoamFile
{
    format      ascii;
    class       surfaceScalarField;
    location    "0.9";
    object      phi.water;
}
// * * * * * * * * * * * * * * * * * * * * * * * * * * * * * * * * * * * * * //

dimensions      [0 3 -1 0 0 0 0];

internalField   nonuniform List<scalar> 
7375
(
4.27562e-07
2.63601e-07
7.82233e-08
1.82871e-07
3.13884e-08
3.58752e-08
2.8345e-08
2.32303e-09
4.99383e-08
-2.21899e-08
9.26963e-08
-4.32575e-08
1.01447e-07
-8.75111e-09
8.62943e-08
1.53449e-08
1.02464e-07
-1.51347e-08
9.87179e-08
3.8234e-09
1.08189e-07
-1.04685e-08
1.9932e-07
-9.00077e-08
2.127e-07
-9.05162e-09
1.33239e-07
7.95288e-08
1.93883e-07
-6.20261e-08
1.20869e-07
7.30326e-08
1.23723e-07
-4.03129e-09
1.4216e-07
-1.85959e-08
3.04177e-08
-1.04309e-08
1.36636e-07
1.32323e-08
1.1874e-07
2.02699e-08
1.7e-07
-5.00549e-08
1.20608e-07
4.64144e-08
1.05826e-07
1.35755e-08
1.23345e-07
-1.645e-08
1.28474e-07
-5.14838e-09
1.41415e-07
-1.1631e-08
1.42355e-07
5.32812e-10
1.49019e-07
-8.10168e-09
1.58814e-07
-1.14078e-08
1.2799e-07
3.05153e-08
4.20798e-07
7.03979e-08
1.20863e-07
-6.19181e-08
1.47687e-07
-2.5315e-08
1.70812e-07
-2.31318e-08
1.60447e-07
8.82751e-09
1.73196e-07
-1.11116e-08
1.53676e-07
2.13194e-08
1.54447e-07
-2.37505e-09
1.54245e-07
2.16074e-10
1.60599e-07
-7.91391e-09
1.72196e-07
-1.15967e-08
1.89302e-07
-1.52076e-08
2.02904e-07
-1.15475e-08
2.11858e-07
-8.9075e-09
2.0801e-07
1.68993e-09
1.97559e-07
1.04465e-08
1.82754e-07
1.29621e-08
1.82449e-07
2.14751e-09
4.34958e-08
1.74151e-08
1.39964e-07
2.53725e-08
8.54794e-08
5.4475e-08
7.72941e-08
8.09919e-09
7.73223e-08
7.68253e-10
7.296e-08
4.35758e-09
7.78786e-08
-4.90543e-09
9.25506e-08
-1.48846e-08
9.25087e-08
-8.95674e-10
1.07537e-07
-1.6147e-08
1.10724e-07
-3.18599e-09
1.13465e-07
-1.62926e-09
1.13606e-07
1.05156e-09
1.22379e-07
-8.7556e-09
1.07981e-07
1.34409e-08
1.10981e-07
-3.05164e-09
1.19457e-07
-8.48004e-09
7.77261e-08
4.17203e-08
3.50299e-07
8.91337e-08
6.84173e-08
-8.06084e-08
9.309e-08
-2.39737e-08
1.06019e-07
-1.29294e-08
1.06514e-07
-4.84535e-10
1.19286e-07
-1.15751e-08
1.22579e-07
-3.28947e-09
-5.55082e-09
-2.63375e-07
-3.53586e-07
-7.03169e-08
7.1704e-08
-6.12713e-09
-2.69608e-08
3.96447e-08
-4.28805e-08
-4.11525e-08
-6.49591e-08
1.04812e-07
-6.79764e-08
4.45866e-08
5.19247e-08
3.77572e-08
2.21743e-08
3.84809e-09
1.85807e-08
1.1109e-08
-3.47619e-09
-1.43213e-08
1.48172e-08
2.0764e-07
5.4219e-08
2.08262e-07
-9.77303e-09
-2.59725e-08
-5.43128e-08
2.63253e-07
1.87114e-08
5.19802e-08
-8.58444e-08
1.08549e-07
-5.89089e-08
1.015e-07
-1.15941e-08
8.3568e-08
6.60978e-09
9.30997e-08
3.70056e-09
9.20748e-08
2.12846e-08
3.45365e-07
6.36442e-08
8.0814e-08
-5.60477e-08
1.32441e-07
-3.79142e-08
1.14513e-07
1.47803e-09
1.14259e-07
-3.7032e-09
1.10898e-07
-6.06881e-09
9.42847e-08
1.58341e-08
9.78405e-08
-1.28821e-08
1.42839e-07
-5.78634e-08
1.18366e-07
5.47441e-08
2.3218e-07
-4.50367e-08
1.3453e-07
3.37483e-08
1.19308e-07
-8.82366e-09
1.06957e-07
-8.38731e-09
1.0152e-07
1.5311e-08
8.36987e-08
5.6071e-09
8.6409e-08
1.86093e-08
7.78558e-08
6.17834e-09
8.69775e-08
-1.0587e-08
1.10899e-07
-3.15167e-08
1.30114e-07
-3.11264e-08
1.73852e-07
-5.89454e-08
1.96078e-07
-3.16763e-08
2.3367e-07
-4.68869e-08
2.54594e-07
-1.92332e-08
2.71755e-07
-6.64683e-09
2.66946e-07
1.77717e-08
2.34998e-07
3.20467e-08
2.10466e-07
4.43451e-08
1.85515e-07
5.24933e-08
2.16534e-07
1.9554e-08
1.9784e-07
2.45479e-08
1.92053e-07
6.54732e-09
1.84972e-07
1.52025e-08
1.62482e-07
2.13868e-08
1.51976e-07
-4.33364e-09
1.29363e-07
2.03614e-08
1.40426e-07
-2.85299e-08
1.41473e-07
-4.22142e-09
1.45309e-07
-3.98324e-09
1.41546e-07
4.81491e-09
1.89109e-07
-5.43688e-08
1.15361e-07
8.83902e-08
9.84995e-08
1.14316e-08
1.4276e-07
-5.37448e-08
9.89331e-08
8.36838e-08
1.56176e-07
3.1891e-08
9.6788e-08
-2.02426e-08
9.1168e-08
-1.81679e-08
8.86676e-08
-1.04288e-08
1.02717e-07
-1.4387e-08
1.11356e-07
-2.00107e-08
1.21931e-07
-1.39738e-08
-1.03835e-08
-3.05328e-07
-1.5274e-08
-1.23291e-07
-5.91934e-08
-5.46672e-08
-8.48416e-08
-1.05976e-07
9.02002e-09
-1.76122e-07
5.91795e-09
1.1409e-07
7.9388e-09
-1.23682e-07
-7.27939e-08
-7.94246e-08
-2.33445e-08
-1.9138e-07
8.47327e-09
-8.11119e-08
9.11051e-09
-7.69828e-08
1.06881e-08
-5.33818e-08
2.89922e-08
-3.84175e-08
-2.47374e-08
-7.27163e-08
-1.96221e-08
-1.91806e-08
-3.46616e-08
-4.05593e-08
-6.40519e-08
1.34265e-08
-1.13354e-07
-3.66507e-08
3.7598e-08
-2.78111e-08
-1.48974e-09
-2.20022e-08
-1.32438e-09
-6.27068e-09
5.60916e-09
5.42948e-08
2.98525e-09
1.93922e-08
-2.05911e-08
1.65691e-08
-3.56469e-08
2.89831e-08
-1.12285e-08
4.02466e-08
-1.48615e-08
4.19704e-08
-7.82809e-09
2.5334e-08
3.24943e-08
-2.27035e-08
3.54194e-08
1.98658e-07
8.54004e-08
-6.39601e-08
-4.52214e-08
2.1651e-07
4.37972e-08
-3.52769e-08
-8.2878e-08
-1.39835e-08
-3.00637e-08
-1.1048e-08
-1.11814e-08
-2.19015e-08
2.59369e-08
-4.2866e-08
2.60722e-08
-3.31962e-08
9.38141e-09
-2.67097e-08
-3.26198e-11
-6.07644e-09
-3.14793e-08
2.34085e-08
-6.13197e-08
4.14031e-08
-4.8882e-08
5.22045e-08
-7.16111e-08
8.0985e-08
-5.96386e-08
9.98555e-08
-6.55986e-08
1.3119e-07
-5.29243e-08
1.51042e-07
-2.62342e-08
1.52387e-07
1.95231e-08
1.57981e-07
2.77948e-08
1.50796e-07
5.03592e-08
1.57711e-07
4.51133e-08
1.36238e-07
4.00354e-08
1.45507e-07
1.26823e-08
1.24002e-07
2.98899e-08
1.18931e-07
2.29069e-08
1.17129e-07
2.29687e-08
8.64397e-08
2.60872e-08
7.57384e-08
3.08532e-08
5.83009e-08
-1.24596e-08
5.86953e-08
-4.61558e-09
5.48971e-08
4.13993e-10
3.08125e-08
2.94655e-08
2.39667e-07
1.07852e-07
3.75404e-10
-4.23236e-08
-2.74947e-09
1.42941e-08
2.4135e-07
6.52172e-08
1.00775e-08
-4.80194e-08
5.05361e-08
-8.6549e-09
5.01012e-08
-2.03134e-08
7.11143e-08
-3.86747e-08
7.97054e-08
-1.91075e-08
8.31363e-08
-1.86577e-08
7.07741e-08
-6.03383e-09
5.4378e-08
3.71233e-09
2.45121e-10
-8.25925e-08
8.71676e-09
-1.83808e-07
7.6902e-08
9.61656e-08
3.11172e-08
-1.35071e-07
-1.27966e-07
-1.01507e-07
-2.77076e-08
-5.05643e-08
-4.19681e-08
-2.56288e-08
-9.9487e-08
-9.50795e-08
4.61062e-08
-2.17254e-07
8.58446e-09
-1.04153e-07
1.82586e-08
-9.38661e-08
1.46818e-09
-7.97917e-08
1.49177e-08
-8.84105e-08
-1.66803e-08
-7.60676e-08
-3.0874e-08
-7.61346e-08
-3.45947e-08
-1.04661e-07
-3.63026e-08
1.12201e-07
3.36721e-08
-1.19031e-07
-9.40405e-08
-8.19634e-08
-3.97413e-08
-6.39726e-08
-1.93287e-08
-3.84858e-08
-1.94278e-08
-1.87067e-08
-1.67637e-08
-2.62622e-08
-1.32264e-08
-3.81584e-08
-2.39954e-08
-4.57558e-08
-4.21252e-09
-5.11487e-08
-1.01488e-08
-5.62446e-08
-1.62523e-09
-4.9465e-08
2.66109e-08
-5.51556e-08
4.02938e-08
4.93212e-11
3.01956e-08
-3.84805e-08
-7.15271e-09
8.73656e-09
-3.90642e-09
-4.99713e-08
-2.41699e-08
-7.52414e-08
-4.48683e-09
-1.09315e-07
2.18864e-08
-9.03473e-08
6.96941e-09
-6.20851e-08
-1.51868e-09
-5.45452e-08
1.18958e-09
-3.98416e-08
-1.49922e-08
-3.48033e-08
-3.57383e-08
-5.18695e-08
-4.49827e-08
-2.43576e-08
-7.66421e-08
-3.11237e-08
-6.48448e-08
-2.17405e-08
-6.95343e-08
-4.6245e-08
-4.00055e-08
-3.56301e-08
-6.27037e-08
-3.00571e-08
-3.2733e-08
-1.49874e-08
4.29998e-09
2.09931e-09
1.04277e-08
7.57139e-09
4.39467e-08
1.93949e-08
3.3488e-08
1.18141e-08
4.67222e-08
4.93974e-09
1.98184e-08
2.23805e-09
3.28999e-08
9.28654e-10
2.41937e-08
-8.55898e-09
3.25544e-08
-5.42959e-09
2.31947e-08
-2.25985e-09
2.70926e-08
-2.91295e-08
1.45588e-08
-1.54398e-08
-1.83521e-08
-3.51877e-08
1.98031e-08
-3.11383e-08
2.53567e-08
3.68991e-08
3.82492e-08
-1.16966e-08
6.01774e-09
-7.2366e-09
9.7892e-09
9.54694e-08
-3.65977e-08
-8.50711e-09
5.58705e-08
-1.93407e-08
2.2657e-09
-1.90699e-08
-2.07913e-08
-2.14101e-08
-3.67288e-08
-1.18598e-08
-2.86576e-08
1.37406e-08
-4.45889e-08
2.84988e-08
-2.0645e-08
3.21766e-08
2.87402e-10
-9.40428e-09
-7.88336e-08
5.21933e-10
-1.58174e-07
3.62469e-08
2.14327e-08
-6.53464e-09
-4.84372e-08
-5.83129e-08
-1.23377e-08
-6.40186e-08
-2.34577e-08
-3.10874e-08
1.93681e-07
5.33372e-08
-5.60218e-08
-7.23556e-08
-3.64519e-08
-1.13573e-08
-1.6769e-08
-1.42428e-09
-2.49933e-08
9.86352e-09
-1.2518e-08
2.59455e-09
-2.98531e-08
9.59376e-10
-2.89515e-08
-3.17756e-08
-3.63851e-08
-2.78094e-08
-4.9931e-08
-2.29913e-08
7.51708e-09
-2.37761e-08
-4.31612e-08
-4.43217e-08
-4.15517e-08
-4.1777e-08
-4.24963e-08
-1.8384e-08
-4.53087e-08
-1.66155e-08
-4.72536e-08
-1.49897e-08
-5.21635e-08
-8.84861e-09
-6.41744e-08
-1.19845e-08
-8.77298e-08
1.99977e-08
-1.1286e-07
1.50849e-08
-6.94372e-08
-4.50313e-08
-1.11912e-07
6.82153e-08
-9.82779e-08
2.66601e-08
-6.78304e-08
7.43301e-10
-5.53298e-08
-2.00135e-08
-4.50887e-08
-1.41475e-08
-4.13072e-08
-2.74913e-08
-1.71486e-08
-2.85292e-08
-1.03882e-07
-1.45516e-08
1.01962e-08
1.56794e-08
8.12995e-09
5.53296e-10
1.83798e-08
-9.16468e-09
3.21248e-08
-2.891e-08
3.09184e-08
-3.38763e-08
-9.97826e-08
-3.72838e-08
-2.35331e-08
-2.98106e-08
-7.09047e-08
-1.68115e-08
-1.62356e-08
-1.25316e-07
-9.03489e-08
3.45121e-08
-1.28607e-07
-2.82798e-08
-1.58377e-07
-3.30322e-09
-1.23509e-07
-2.73369e-08
-1.1875e-07
6.91695e-09
-9.06521e-08
1.58487e-08
-8.36712e-08
2.67086e-08
-6.88242e-08
3.04016e-08
-6.53357e-08
1.56208e-08
-5.86208e-08
2.65163e-08
-6.02631e-08
2.52215e-08
-6.9728e-08
4.13009e-08
-7.59175e-08
3.08856e-08
-6.47111e-08
1.59996e-08
-1.81054e-07
6.98593e-09
-9.98208e-08
2.4325e-08
-1.07895e-07
2.67772e-08
-1.00722e-07
1.87669e-08
-6.00028e-08
-1.83904e-09
-4.30073e-08
-1.15283e-08
-6.4341e-08
3.12229e-08
1.88088e-07
7.4114e-08
-4.89194e-08
-6.94755e-08
-1.10291e-08
-3.61235e-08
-8.23136e-09
-2.35888e-08
-2.58607e-08
-1.90993e-08
3.33107e-09
-5.72652e-08
1.83046e-08
-5.97495e-08
2.22292e-08
-2.47788e-08
2.94722e-08
-6.72863e-09
-3.00246e-08
-7.42402e-08
2.07858e-08
-7.36065e-08
6.12537e-08
-5.49221e-08
-1.83205e-08
-5.54368e-08
-5.72487e-08
-4.75425e-09
-1.15883e-07
6.15359e-09
-4.19952e-08
1.10353e-08
4.74275e-08
-2.56548e-08
-3.56655e-08
-1.18024e-08
-2.52097e-08
-2.86699e-09
-1.03452e-08
-2.28468e-09
9.28117e-09
-2.33687e-08
2.36786e-08
-1.30798e-08
-9.23537e-09
-1.2011e-08
-3.31686e-08
-2.83675e-08
-1.17424e-08
-3.93675e-08
-1.19913e-08
-2.698e-08
-3.5762e-08
-4.19963e-08
-3.00403e-08
-7.56597e-08
-8.11362e-09
-6.17027e-08
-3.18945e-08
-7.13906e-08
-6.85766e-09
-6.87648e-08
-1.74376e-08
-6.16578e-08
-1.59556e-08
-1.3185e-08
-6.09568e-08
-6.29137e-08
6.90222e-08
-8.82148e-08
3.99782e-08
1.51814e-07
8.11288e-08
-6.32114e-08
-8.29481e-08
-1.81786e-08
-1.84591e-08
1.20077e-08
-2.95642e-08
3.38408e-08
-4.17252e-08
5.08967e-08
-3.10302e-08
5.14043e-08
-2.85232e-08
5.88119e-08
-3.69032e-08
6.00364e-08
-1.56414e-08
8.00745e-08
-2.97356e-09
7.50612e-08
6.39775e-09
6.30118e-08
2.11917e-09
5.00834e-08
-1.57655e-08
8.40155e-10
1.5018e-08
-6.37947e-08
2.7723e-08
-8.38599e-08
-9.74515e-09
-1.2631e-07
2.43506e-08
9.90886e-08
1.92481e-08
-1.4798e-07
-8.6776e-08
-1.66369e-07
-9.89088e-09
-1.46875e-07
-2.10317e-08
-1.50678e-07
-2.19969e-08
-1.34064e-07
-9.69687e-09
-1.15014e-07
-5.58042e-09
-9.52525e-08
7.84846e-09
-7.73043e-08
1.37226e-08
-8.58007e-08
2.34083e-08
-1.76425e-08
-4.16417e-08
-8.20448e-08
9.05478e-08
-8.02518e-08
3.86921e-08
-7.86981e-08
2.93161e-08
-9.05321e-08
2.70735e-08
-1.18134e-07
3.41635e-08
-9.86197e-08
6.01664e-09
-7.79942e-08
6.94764e-09
-7.288e-08
1.33288e-08
-5.40089e-08
-2.14723e-08
1.04274e-08
-7.59644e-08
-9.58535e-09
5.08151e-08
6.80604e-08
-4.21889e-09
1.91167e-08
-2.0546e-08
1.9448e-08
-3.62597e-08
4.62482e-08
-5.03888e-08
-5.28018e-08
-4.15734e-08
3.01043e-08
-1.93411e-08
4.2208e-08
-7.22838e-08
-1.44967e-08
3.16726e-08
-2.76873e-09
-1.84567e-08
-1.24701e-07
-7.7203e-08
2.01407e-08
-2.83608e-08
2.77345e-08
-3.44777e-08
-9.11005e-09
-1.09436e-07
1.79972e-08
1.01598e-07
4.14902e-08
1.01214e-07
-4.36801e-08
-7.76461e-08
-1.36203e-07
-3.43705e-08
-7.97333e-08
-8.30488e-09
-5.12753e-08
9.89441e-09
-2.85445e-08
5.09831e-08
-3.18075e-08
-2.90525e-08
-1.80523e-08
5.57853e-08
2.64895e-08
1.92924e-08
3.89335e-09
1.29421e-08
-5.39208e-09
2.12839e-09
-1.04458e-09
4.50721e-09
-3.80948e-08
6.38774e-09
-3.19208e-08
-9.88085e-09
8.15497e-09
-1.58926e-08
-2.54565e-08
-1.32854e-08
-9.17019e-09
-2.19347e-08
-9.0135e-09
-5.3148e-08
1.43455e-08
1.84314e-07
6.96445e-08
-5.02499e-08
-6.02584e-08
5.82673e-09
-1.67752e-08
7.12945e-08
1.57206e-08
2.75595e-08
-3.9213e-08
8.96414e-09
1.36367e-10
-5.52692e-09
-1.53746e-08
-3.20384e-08
-1.59661e-08
-5.65753e-08
-6.49315e-09
-7.43011e-08
-1.09781e-08
-1.11715e-07
1.30075e-10
-1.16778e-07
-1.07895e-08
-1.20475e-07
6.93768e-10
-1.08144e-07
-4.76971e-09
-1.04311e-07
-1.69663e-09
-1.01377e-07
-1.88917e-08
-1.06241e-07
1.97294e-08
-7.57715e-08
-2.77507e-09
-9.0026e-08
4.50958e-09
-7.21347e-08
6.45953e-09
-4.55043e-08
-7.57844e-09
-5.66353e-08
-7.64244e-08
-1.06515e-07
3.96847e-08
-1.10768e-07
-1.67785e-08
-1.09091e-07
-2.36735e-08
-9.88439e-08
-2.00425e-08
-9.92491e-08
-4.12041e-09
-9.99012e-08
8.50756e-09
-1.01504e-07
1.34114e-08
-2.20232e-07
1.88151e-08
1.23985e-07
1.05905e-07
-2.43148e-07
-3.30967e-08
-1.15574e-07
3.32366e-08
-1.21634e-07
3.41848e-08
-1.10676e-07
1.84863e-08
-1.067e-07
2.98424e-08
-9.97216e-08
-2.0501e-09
-9.4871e-08
3.06514e-09
-6.66691e-08
-1.47383e-08
-1.08986e-07
1.99611e-08
1.39491e-07
4.03244e-08
-7.4147e-08
-9.80376e-08
2.70996e-08
-1.0736e-07
-2.7237e-08
3.32421e-08
-3.90786e-08
-2.4418e-08
-7.16447e-08
-1.78226e-08
-1.07792e-07
-5.42598e-09
-1.18464e-07
-1.00749e-08
1.23897e-07
5.53172e-08
-1.57256e-07
-5.51903e-08
-1.41775e-07
-3.53844e-08
8.14614e-08
-5.98352e-08
-5.81572e-09
-4.13549e-08
2.21113e-08
-3.33756e-08
-1.37315e-08
-7.08881e-09
-6.2673e-09
4.89246e-08
-1.49423e-08
4.70171e-08
-4.12735e-08
-6.75275e-09
-8.38231e-08
-8.14648e-09
-7.83396e-08
-4.83107e-09
-5.45907e-08
5.30272e-09
-3.86783e-08
1.06825e-08
-3.68118e-08
-2.40465e-09
-4.89078e-09
4.61191e-08
-2.17668e-08
4.73971e-08
3.11757e-09
4.56528e-08
-4.1135e-09
5.48241e-08
-1.02159e-08
4.62074e-08
-2.92168e-08
8.31128e-08
-6.90618e-08
2.715e-08
6.3838e-08
3.71388e-09
-2.05833e-09
6.56995e-09
-1.20149e-08
-1.42865e-09
-1.08189e-09
2.71196e-09
1.03236e-08
4.66437e-08
2.50299e-08
-8.45011e-10
-1.3393e-08
-8.84774e-09
-8.94529e-09
-1.40136e-08
2.09768e-08
-4.67717e-08
-6.52137e-09
-2.99233e-08
-1.65431e-08
-4.03522e-08
-4.99659e-09
-4.79827e-08
-8.42139e-09
-5.40086e-08
-4.00835e-10
-6.81688e-08
3.18214e-09
-6.46142e-08
-3.42569e-09
-8.39208e-08
8.51728e-09
-6.91993e-08
-1.40347e-08
-7.17199e-08
-1.51721e-09
-7.27623e-08
-1.38887e-09
-1.08363e-07
1.61257e-08
-9.67363e-08
8.22123e-09
-1.21497e-07
2.19861e-08
-1.32222e-07
1.66438e-08
-1.34293e-07
8.44503e-09
-1.60514e-07
1.70046e-08
8.16372e-08
5.05463e-08
-1.59796e-07
-8.30353e-08
-1.2758e-07
-5.0625e-08
-1.19098e-07
-3.21545e-08
-1.17249e-07
-2.06953e-08
-1.0101e-07
-2.13789e-08
-1.11065e-07
1.76093e-08
-1.07816e-07
1.12959e-08
-1.27323e-07
3.85233e-08
-6.18765e-08
4.00498e-08
-1.1154e-07
1.69045e-08
-9.49565e-08
1.68209e-08
-9.52961e-08
3.41759e-08
-8.69626e-08
1.01531e-08
-7.54667e-08
1.86512e-08
-9.25526e-08
1.51909e-08
-5.96386e-08
-2.98486e-08
-5.46444e-08
-1.93253e-08
-6.2332e-08
2.79309e-08
-1.00484e-08
-1.27247e-08
-8.69997e-08
-2.32108e-08
1.41027e-07
3.34672e-08
-1.17021e-07
-7.26246e-08
-1.05351e-07
-3.72815e-08
-1.15327e-07
-7.84626e-09
-8.6172e-08
-3.4581e-08
-1.00097e-07
3.85037e-09
-6.78466e-08
2.18094e-08
-2.42884e-07
-3.51009e-09
-1.55574e-07
2.63822e-10
5.04982e-08
-5.19018e-08
-4.49132e-08
-4.80231e-08
-1.22742e-07
-3.65163e-08
-1.87899e-08
-1.37918e-08
-2.75167e-08
-2.55823e-09
-2.67418e-08
-2.7406e-09
-4.15147e-08
5.47302e-09
-9.20368e-08
5.22271e-09
-7.88941e-08
2.72403e-08
-7.58347e-08
4.29797e-08
-5.43022e-08
5.27226e-08
-4.70871e-08
6.02172e-08
-1.18529e-08
5.39392e-08
-1.45463e-08
4.95716e-08
7.56316e-09
5.03864e-08
-5.43405e-09
3.45347e-08
5.82445e-09
-2.63121e-08
3.07703e-08
1.788e-07
9.88861e-08
-6.66991e-08
-6.18314e-08
-4.99539e-08
-1.90207e-08
-3.11007e-08
-3.00412e-08
-3.24302e-08
-6.89604e-11
-4.15553e-08
1.94211e-08
-2.89855e-08
1.28842e-08
-5.43669e-08
1.19885e-08
-9.39394e-08
3.07185e-08
-7.07965e-08
-2.88831e-09
-1.94854e-07
-3.81619e-09
-1.06536e-07
1.68613e-08
-1.15059e-07
1.2432e-09
-1.10518e-07
-1.17766e-08
-9.09368e-08
-1.88546e-08
-1.00762e-07
1.30077e-08
-1.12326e-07
8.13853e-09
-9.49329e-08
-8.78646e-09
-8.42522e-08
-2.44657e-08
-8.59561e-08
1.86855e-10
-9.1941e-08
3.64414e-09
-9.24744e-08
1.6493e-08
-9.15491e-08
8.23956e-09
-8.46236e-08
1.39731e-08
-7.85358e-08
1.13656e-08
-7.95926e-08
1.02952e-08
-7.41833e-08
1.07835e-08
-4.17128e-08
1.71348e-08
-9.94246e-08
-2.59121e-08
-1.10968e-07
-3.84595e-08
-9.80239e-08
-4.50983e-08
-1.14733e-07
-3.98605e-09
-1.03684e-07
-3.29824e-08
-1.05274e-07
1.90199e-08
-9.09361e-08
-3.96932e-09
-8.51177e-08
3.32399e-08
-4.9368e-08
5.15985e-09
-5.22944e-08
1.9861e-08
-5.8397e-08
2.29237e-08
-4.31999e-08
1.81976e-08
-4.76383e-08
1.45917e-08
-3.61448e-08
6.78915e-09
-1.45459e-07
1.18473e-09
-7.4857e-08
2.33341e-08
-1.0176e-07
6.60703e-09
-1.01116e-07
2.65329e-08
-1.31449e-07
1.74757e-08
-1.64175e-07
9.37099e-09
-1.13708e-07
-1.59813e-08
-1.64719e-07
-2.14132e-08
-2.47007e-07
-7.78504e-08
-2.2513e-07
-2.9423e-08
-1.63279e-07
2.5631e-08
-1.82525e-07
2.30964e-08
-2.04055e-07
4.08404e-08
-2.33494e-07
2.13714e-08
-2.52638e-07
2.184e-08
1.13458e-08
-1.03773e-07
5.40531e-09
-4.32811e-08
2.91926e-09
-4.74919e-08
-9.10344e-09
-3.20883e-08
-4.2019e-08
-2.87141e-09
-5.65714e-08
-8.54502e-08
-8.22273e-08
4.59529e-09
-5.85039e-08
-7.56921e-09
-6.73457e-08
-2.32922e-08
-6.04101e-08
9.8825e-09
-8.77121e-08
9.21248e-09
-4.67966e-08
1.38778e-08
-1.66392e-08
-9.83357e-09
8.97324e-09
-2.48995e-08
2.23211e-08
-1.56076e-08
-1.44603e-08
2.93431e-08
-3.98248e-08
-5.88823e-09
6.67205e-08
2.77283e-08
6.38577e-08
-2.95615e-08
-4.56026e-09
-5.46017e-08
6.21557e-09
-9.3744e-09
-7.62676e-08
-9.80924e-08
8.8551e-08
-1.28859e-07
4.99875e-08
-1.23096e-07
8.43577e-09
-1.25994e-07
1.47362e-08
-2.18983e-07
1.64504e-09
-1.32073e-07
3.06049e-08
-1.56274e-07
2.04242e-08
-1.26922e-07
-1.07238e-08
-1.23313e-07
-2.37881e-09
-1.16446e-07
-1.85237e-08
-5.95176e-08
-7.65635e-08
-9.59511e-08
4.89421e-08
-1.99778e-07
-8.05878e-09
-8.54638e-08
-1.4077e-09
-8.82973e-08
-2.24951e-08
-8.87228e-08
-2.88231e-10
-7.51396e-08
-9.93896e-09
-6.69379e-08
8.12321e-09
-5.81581e-08
-5.39987e-10
-5.56054e-08
1.14206e-08
-5.55864e-08
1.12308e-08
-6.34557e-08
1.82697e-08
-7.20332e-08
1.93613e-08
-4.54089e-08
-9.0261e-09
-5.47183e-08
-1.68933e-08
-8.26734e-08
-1.10681e-08
-8.95901e-08
-3.77228e-08
-9.77043e-08
3.13159e-09
-1.19248e-07
-1.14381e-08
-8.38317e-08
-1.51799e-08
-9.35222e-08
6.60814e-09
-8.35646e-08
2.29469e-08
-6.6288e-08
-1.29165e-08
-4.31751e-08
-3.25156e-09
-4.77452e-08
2.793e-08
-3.80796e-08
8.53221e-09
-5.06508e-08
2.67746e-08
-4.95152e-08
5.65383e-09
-8.68842e-08
3.72752e-08
-7.49049e-08
1.0583e-08
-1.16938e-07
4.94124e-08
-1.17001e-07
2.63249e-08
-1.56888e-07
5.33976e-08
-2.83922e-07
7.34633e-09
-2.37337e-07
6.49707e-08
-2.37962e-07
-1.85397e-08
-3.65881e-07
-6.84388e-08
-2.42532e-07
-2.88288e-08
-2.07709e-07
-1.17872e-08
-1.91433e-07
8.77407e-09
-1.71486e-07
1.8969e-08
-1.70585e-07
1.84827e-08
-1.43419e-07
-4.03208e-09
-5.73678e-08
-8.18717e-08
1.50344e-08
-5.05613e-08
-8.91446e-09
-2.75112e-08
-2.85001e-08
-3.61653e-08
-3.22708e-08
-4.98525e-08
-4.15006e-08
-6.25762e-08
-6.75177e-08
-7.02416e-08
-5.15479e-08
-1.10866e-07
-2.81842e-08
-1.96476e-07
-9.76011e-08
-1.20409e-07
-4.06063e-08
-1.13991e-07
-5.3215e-08
-6.5396e-08
-6.52326e-08
-1.18357e-07
6.31295e-08
-1.4995e-07
5.09795e-08
-1.89341e-07
2.14335e-08
5.04326e-08
9.14822e-08
-2.30068e-07
-2.49447e-08
-1.55946e-07
-7.23506e-09
-2.05848e-07
4.74165e-08
-2.3919e-07
3.42644e-08
-1.13191e-08
6.95592e-08
-2.59646e-07
-3.25168e-08
-1.82486e-07
-2.47807e-08
-1.52028e-07
-2.06814e-08
-1.12665e-07
-2.46272e-08
-1.19217e-07
8.26454e-09
-9.97442e-08
1.11317e-08
-8.95348e-08
8.98902e-09
-9.15454e-08
-8.7131e-09
-9.3043e-08
-8.81144e-10
-1.25404e-07
1.25584e-08
1.09666e-07
5.71988e-08
-1.20245e-07
-8.47452e-08
-1.1168e-07
-1.76695e-08
-8.39886e-08
-2.91134e-08
-9.10009e-08
-1.5874e-08
-6.6845e-08
-2.41971e-08
-7.31114e-08
-3.67238e-09
-7.80939e-08
1.31059e-08
-9.84593e-08
2.00299e-08
-6.32374e-08
-2.38011e-08
-6.00889e-08
8.08259e-09
-3.16738e-08
-1.01452e-08
-1.3852e-07
4.14496e-09
-5.23497e-08
2.68666e-08
-6.74963e-08
-1.91888e-09
-6.98599e-08
-9.30414e-09
-1.08587e-07
1.0042e-09
-8.15175e-08
-2.28295e-08
-8.63848e-08
-6.45394e-09
-8.62091e-08
-1.44759e-08
-6.79117e-08
-1.1689e-08
-4.66531e-08
1.22969e-09
-4.49433e-08
-1.44783e-08
1.66071e-08
-6.49712e-08
-2.48602e-08
6.93975e-08
-3.39987e-08
1.76847e-08
-3.16071e-08
2.43832e-08
-2.77988e-08
2.12929e-09
-2.37124e-08
3.28572e-08
-2.87487e-08
1.52696e-08
-2.09997e-08
4.15837e-08
-1.02009e-08
1.54724e-08
-4.06257e-09
4.67612e-08
-6.72573e-08
7.17556e-08
-3.32812e-08
2.8667e-08
-6.57334e-08
1.2279e-08
-1.59829e-07
2.34805e-08
-1.95684e-07
8.0174e-09
-2.13551e-07
1.01137e-08
-2.13499e-07
1.30785e-08
-1.90339e-07
-4.00033e-09
-1.82635e-07
8.73729e-09
-2.0195e-07
1.33588e-08
6.60651e-08
-7.72689e-08
-5.98353e-09
-5.61306e-08
-1.47171e-08
-5.12995e-08
-2.62516e-08
-5.10435e-08
-2.8577e-08
-4.97303e-08
-4.29102e-08
-7.95085e-08
-3.8641e-08
-1.02485e-07
-3.01429e-08
-2.2143e-07
-3.22695e-08
-1.65293e-07
-2.8714e-08
-1.63543e-07
-4.23563e-08
-1.47111e-07
-7.1881e-08
6.01111e-08
9.75085e-08
-1.94749e-07
-4.81685e-08
-2.21979e-07
-4.37797e-08
-1.3391e-07
5.6575e-08
-7.06307e-08
2.7279e-08
-1.20815e-07
2.47733e-08
-1.26756e-07
-2.51268e-09
-2.23921e-07
2.33274e-08
-1.14108e-07
4.70674e-08
-6.95386e-08
2.31163e-08
-9.54353e-08
-5.38227e-09
-9.52886e-08
-2.65849e-08
-9.41317e-08
-2.25876e-08
-4.95029e-08
-6.92533e-08
-1.02582e-07
6.13436e-08
-1.09163e-07
1.78269e-08
-8.91758e-08
-1.09985e-08
-1.0764e-07
9.75121e-09
-9.29162e-08
-1.56048e-08
-7.22337e-08
-8.12395e-09
-2.17282e-08
6.10999e-09
-7.17964e-08
-3.4809e-08
-7.11439e-08
-1.81387e-08
-6.69187e-08
-3.51051e-08
-1.66536e-07
-3.78614e-08
-1.04746e-08
-5.7746e-08
-7.99958e-08
6.50782e-08
-6.57304e-08
-1.8487e-09
-1.74349e-07
5.32784e-09
-7.84531e-08
4.18734e-09
-8.77723e-08
1.74021e-08
-7.88413e-08
-1.90761e-08
-9.4233e-08
1.95369e-08
-6.85866e-08
1.22044e-09
-7.4709e-08
4.20377e-09
-7.89406e-08
-5.07233e-09
-8.63478e-08
8.40135e-09
-8.90063e-08
-2.01708e-08
-7.17834e-08
-2.39207e-08
-7.17445e-08
-1.45146e-08
-5.40448e-08
-2.95077e-08
-6.682e-08
1.46868e-08
-1.04784e-07
2.32509e-08
1.43628e-07
5.12144e-08
-7.86352e-08
-7.4622e-08
-7.88737e-08
1.79234e-08
-6.72731e-08
1.35875e-08
-9.19182e-08
2.77123e-08
-5.89133e-08
1.82389e-10
-5.58454e-08
1.10312e-08
-3.8242e-08
2.43746e-08
-3.7797e-08
1.54138e-08
-7.01878e-09
1.58413e-08
-7.53594e-08
1.7515e-08
2.63865e-08
4.97761e-08
-4.93086e-10
3.86493e-08
-1.78667e-08
4.03749e-08
-3.92996e-08
2.88106e-08
-5.75763e-08
2.82873e-08
-7.27245e-08
2.79415e-08
-8.5668e-08
7.94676e-09
-8.82598e-08
1.04188e-08
-9.47331e-08
2.07414e-08
6.3862e-09
-5.99846e-08
-2.86012e-08
-3.40734e-08
-2.70714e-08
-5.50305e-08
-6.93168e-10
-5.74365e-08
-2.36555e-08
-8.63015e-08
-1.53634e-08
-1.07861e-07
-1.70818e-08
-1.17642e-07
-1.92614e-08
-1.48313e-07
-2.78203e-09
-1.56881e-07
-2.03561e-08
-1.8255e-07
-1.69484e-08
6.44345e-08
5.10969e-08
-1.38702e-07
-6.71957e-08
-1.74011e-07
-1.4635e-08
-2.27383e-07
9.6928e-09
-1.59592e-07
-8.89632e-09
-1.17641e-07
-1.4394e-08
-8.8272e-08
-4.5492e-09
-1.23269e-07
3.37416e-08
-1.26895e-07
2.79995e-08
-9.10065e-08
1.02692e-08
-7.37842e-08
4.21292e-09
-7.90028e-08
5.89112e-10
-8.27362e-08
-2.14865e-08
-1.14996e-07
7.90328e-09
1.31333e-07
5.26525e-08
-1.20532e-07
-5.37705e-08
-9.02225e-08
-1.23567e-08
-1.07195e-07
5.9737e-09
-5.57945e-08
-4.16487e-08
-4.02937e-08
-3.11054e-08
-3.63797e-08
-1.21619e-08
-1.91791e-08
-1.10905e-08
-3.52772e-08
-1.83508e-08
-4.15499e-08
-1.24686e-08
-6.44442e-08
-1.26388e-08
-1.16448e-07
1.51868e-08
1.42148e-07
4.73241e-08
-9.41435e-08
-6.27045e-08
-8.71212e-08
-9.94359e-09
-1.03413e-07
2.11834e-08
-1.10298e-07
1.11878e-08
-7.61765e-08
-1.54368e-08
-4.31022e-08
-5.26877e-08
-8.88872e-08
6.53221e-08
-9.02886e-08
2.62202e-09
-8.10369e-08
-5.04767e-09
-8.2859e-08
-3.25004e-09
-7.83217e-08
3.86424e-09
-9.26646e-08
-6.77298e-09
-1.01544e-07
-1.51982e-08
-8.02699e-08
-3.4752e-08
-3.82737e-08
-7.22408e-08
-9.39207e-08
7.12923e-08
-9.08523e-08
2.13349e-08
-2.3144e-08
-1.75888e-08
-1.77912e-08
-8.02107e-08
-4.49084e-08
4.4405e-08
-3.23016e-08
9.80867e-10
-1.04544e-07
-2.10411e-08
-1.10813e-08
2.75516e-08
-3.04107e-08
2.99423e-08
-1.83225e-08
1.20379e-08
-1.82295e-08
1.56641e-08
-2.56832e-08
2.32951e-08
-3.82956e-08
2.93869e-08
-3.44646e-09
1.49622e-08
1.99382e-08
1.5655e-08
4.17362e-08
1.87665e-08
6.24111e-08
8.13573e-09
7.72379e-08
1.31748e-08
9.41208e-08
1.0108e-08
9.37586e-08
9.25894e-09
1.03576e-07
1.43569e-09
1.06926e-07
1.6255e-08
-9.55834e-09
-2.89052e-08
-7.96266e-08
-4.9959e-08
3.46091e-09
-5.5429e-08
1.02875e-08
-4.68486e-08
-3.05395e-08
-4.46008e-08
-1.76112e-08
-4.78955e-08
-1.36128e-08
-5.63888e-08
-1.07681e-08
-4.79689e-08
-1.16913e-08
-1.68984e-07
-2.24518e-08
-7.43407e-08
1.21947e-08
-3.32077e-08
9.44272e-09
-3.16381e-08
-6.94741e-08
-8.91599e-08
4.19773e-08
-2.01247e-07
-1.64077e-09
-9.32664e-08
7.23877e-09
-9.47982e-08
-1.18951e-08
-3.97107e-08
-5.96366e-08
-8.72042e-08
8.00137e-08
-6.69671e-08
8.6431e-09
-4.52148e-08
-1.12656e-08
-3.88286e-08
-2.23841e-09
-1.23929e-08
-2.5594e-08
-6.02448e-09
-2.82005e-08
1.75294e-08
-1.57487e-08
8.09823e-08
-1.21499e-08
5.22894e-08
-2.47877e-08
9.24318e-08
-5.1971e-08
2.57227e-08
-4.84369e-08
9.86013e-08
7.61342e-09
5.66362e-08
1.14376e-08
3.60579e-08
8.33065e-09
2.55434e-08
-9.43638e-10
1.70825e-08
-9.88978e-09
3.02096e-09
1.46586e-09
-5.25361e-09
-4.23517e-09
7.5465e-09
2.30985e-09
3.33686e-08
2.18391e-08
-2.19864e-08
-7.79793e-09
-3.39558e-08
2.70509e-09
-3.17983e-08
1.90479e-08
-6.5564e-08
4.47255e-08
-1.14356e-07
3.31982e-08
1.42433e-07
5.87023e-08
-7.65265e-08
-8.33597e-08
-5.29603e-08
-2.09439e-08
-4.56851e-08
-1.21982e-08
-5.02448e-08
1.30982e-09
-5.50063e-08
8.53884e-09
-7.68037e-08
1.40973e-08
-1.31324e-07
3.94793e-08
-9.899e-08
-6.67562e-08
7.46374e-08
1.24095e-07
-1.65387e-07
-5.56333e-08
-1.09994e-07
-3.49621e-08
-1.3968e-07
1.19158e-08
9.63132e-08
5.04274e-08
-1.37714e-07
-8.49153e-08
-9.02989e-08
-4.73563e-08
-7.7089e-08
-3.42509e-08
-5.08759e-08
2.13874e-09
-3.20001e-08
1.0956e-08
-2.94406e-08
9.15208e-09
-2.67726e-08
1.28649e-08
-2.08783e-08
1.76713e-08
-1.11498e-08
1.96585e-08
-1.37922e-08
1.74909e-08
-6.42957e-09
8.53915e-09
6.13367e-10
1.17236e-08
1.25175e-08
-3.81304e-09
1.84484e-08
7.24383e-09
2.67787e-08
2.06882e-09
2.37022e-08
1.20645e-08
8.05932e-09
1.75131e-08
2.0802e-08
3.59508e-09
-6.55239e-09
-5.97201e-08
1.13863e-07
-2.36988e-08
-1.78548e-08
-1.33007e-08
2.83546e-09
-1.39065e-08
-2.96623e-08
-1.75484e-08
-1.39693e-08
-1.61967e-08
-1.49645e-08
-1.66465e-08
-1.03182e-08
-1.70885e-08
-1.12493e-08
-4.98876e-08
1.05763e-08
-5.02069e-08
1.2514e-08
-7.77316e-08
3.61745e-08
1.53959e-07
6.87986e-08
-1.07728e-07
-6.40957e-08
-1.03696e-07
-5.65528e-09
-8.51288e-08
-1.13287e-08
-1.10841e-07
1.38168e-08
1.39395e-07
5.37378e-08
-7.21677e-08
-6.94838e-08
-3.87447e-08
-2.51173e-08
-1.02413e-08
-3.98714e-08
8.07029e-09
-2.07367e-08
-7.62536e-09
-1.01567e-08
-1.54621e-08
-2.04415e-08
-5.55831e-09
-2.59167e-08
-3.59169e-09
-1.42404e-08
-1.22608e-08
-1.65401e-08
-3.79724e-08
-2.70656e-08
-8.27155e-08
-4.53756e-09
-5.68944e-08
-1.82075e-08
-3.52377e-08
-9.18536e-09
-2.87559e-08
1.76483e-09
-2.9306e-08
-6.86719e-10
-5.34888e-08
1.44406e-08
-2.73096e-08
-2.47132e-08
-2.22845e-08
-9.26014e-09
-1.17303e-08
-8.32909e-09
-7.65526e-09
1.80651e-08
-7.70316e-09
-7.5944e-09
2.367e-09
-7.3956e-09
8.4336e-09
1.29576e-08
4.59366e-08
7.16261e-09
-4.44192e-08
1.50668e-09
9.72918e-08
3.76775e-08
2.09667e-08
-6.0418e-09
2.0901e-08
-2.10913e-08
2.78561e-08
-1.91531e-08
2.82402e-08
9.12795e-10
3.18628e-08
4.59467e-09
5.93128e-08
-1.30308e-08
-5.76814e-08
3.46132e-08
2.60157e-07
1.03657e-07
3.36368e-08
-1.68391e-08
6.21982e-09
-2.82162e-08
-4.98306e-09
-2.40039e-08
-1.22393e-08
1.90507e-08
3.17749e-08
6.73747e-09
-3.13038e-08
-2.26221e-08
-3.18189e-08
-4.65249e-08
1.49502e-08
-8.21828e-08
-2.43076e-08
4.16446e-08
-1.6728e-08
3.48722e-09
2.92089e-09
-1.06972e-08
2.56396e-08
-1.01126e-08
1.27074e-08
3.0554e-08
8.50729e-09
2.41888e-08
3.04582e-09
2.29835e-08
-7.41263e-09
1.89976e-08
-1.80083e-08
2.2395e-08
-2.91696e-08
7.42401e-09
-3.83749e-08
1.6523e-08
-3.93826e-08
3.47814e-09
-3.8971e-08
1.08652e-08
-1.4938e-07
3.09218e-09
-4.20616e-08
2.13511e-08
3.46467e-08
-7.45016e-08
-1.18965e-07
-7.149e-09
-6.54101e-08
-1.32049e-09
-2.43268e-09
-5.06916e-09
-2.58867e-08
-6.05054e-09
-1.29879e-08
-1.17789e-08
-9.23608e-09
-6.80007e-09
-1.5297e-08
-1.36325e-08
-4.46234e-09
-4.17024e-09
1.11412e-09
-1.89643e-08
2.70323e-08
-1.47279e-08
3.19382e-08
3.44339e-08
1.89349e-08
-3.49475e-08
5.23227e-09
-3.66422e-08
-3.9605e-09
-4.39413e-08
-4.02963e-09
-2.7522e-08
-2.32169e-09
2.82531e-08
-2.32263e-09
-7.44734e-09
-3.41997e-08
1.78543e-09
-3.47005e-08
8.25775e-10
-3.93143e-08
3.21823e-09
-2.31207e-08
-9.82069e-09
2.77866e-09
-3.27276e-08
2.15356e-09
-4.4438e-08
-1.42062e-08
-6.11743e-08
2.34933e-09
-7.93549e-08
8.22678e-10
-9.80056e-08
-7.59679e-09
-8.86113e-08
-1.29319e-08
-9.00643e-08
-1.54917e-08
-7.51771e-08
-2.4318e-08
-6.01736e-08
-1.39874e-08
-5.61649e-08
-5.32252e-09
-1.69539e-07
4.54059e-09
-7.67846e-08
6.3904e-09
-7.77233e-08
-9.20808e-09
-1.04915e-07
1.88625e-08
-6.07527e-08
-2.44067e-08
-5.98241e-08
-7.99534e-09
-2.78366e-08
-3.9706e-08
-1.77457e-08
2.76501e-09
-1.82822e-08
7.6699e-09
-3.29283e-08
1.579e-08
7.33257e-09
-2.17654e-09
5.55948e-09
-4.31249e-09
4.1295e-09
-1.96611e-08
1.55324e-08
-3.09096e-08
1.40078e-08
2.43761e-09
1.02187e-08
8.57374e-09
3.18254e-09
-6.12735e-09
-8.23434e-09
4.60303e-08
5.83193e-08
3.74859e-08
1.09768e-08
3.01956e-08
-1.54717e-08
-1.92539e-09
1.09155e-09
-4.0567e-08
-4.1809e-08
6.19403e-08