/*--------------------------------*- C++ -*----------------------------------*\
  =========                 |
  \\      /  F ield         | OpenFOAM: The Open Source CFD Toolbox
   \\    /   O peration     | Website:  https://openfoam.org
    \\  /    A nd           | Version:  12
     \\/     M anipulation  |
\*---------------------------------------------------------------------------*/
FoamFile
{
    format      ascii;
    class       surfaceScalarField;
    location    "0.9";
    object      phi.water_0;
}
// * * * * * * * * * * * * * * * * * * * * * * * * * * * * * * * * * * * * * //

dimensions      [0 3 -1 0 0 0 0];

internalField   nonuniform List<scalar> 
7375
(
-9.1566e-08
-1.60785e-07
7.33424e-09
-6.4227e-08
1.44913e-08
-8.63598e-09
3.58899e-08
-2.17694e-08
1.23766e-07
-8.91812e-08
5.51049e-08
6.73805e-08
5.7959e-08
-2.85381e-09
1.04732e-07
-4.71948e-08
1.44557e-07
-3.83653e-08
1.41901e-07
2.72333e-09
1.25603e-07
1.48643e-08
1.40284e-07
-1.32393e-08
1.51006e-07
-7.64223e-09
2.05612e-08
6.09786e-09
1.33896e-07
9.63997e-09
1.05609e-07
2.8566e-08
9.39959e-08
1.04337e-08
5.46497e-08
3.97669e-08
3.41301e-07
7.52984e-08
5.22115e-08
-7.39209e-08
8.12339e-08
-2.7398e-08
8.37372e-08
-1.68771e-09
6.3502e-08
1.88891e-08
1.03185e-07
-4.03168e-08
1.26997e-07
-2.27707e-08
1.29755e-07
-2.77228e-09
1.41099e-07
-1.00203e-08
1.42158e-07
4.10952e-10
1.48215e-07
-7.48719e-09
1.53855e-07
-7.20752e-09
1.57854e-07
-5.53778e-09
1.67407e-07
-7.9588e-09
1.69679e-07
-5.26508e-10
1.80599e-07
-1.08029e-08
2.01148e-07
-2.05398e-08
9.27556e-08
-1.46997e-08
2.00926e-07
1.48378e-08
1.66163e-07
3.68518e-08
1.63379e-07
1.07611e-09
1.61177e-07
2.22248e-09
1.63026e-07
-3.47354e-09
1.69468e-07
-6.4419e-09
1.80636e-07
-9.34925e-09
1.91524e-07
-8.9478e-09
1.99654e-07
-8.06977e-09
1.93738e-07
3.88094e-09
1.75446e-07
1.82827e-08
1.44897e-07
2.90852e-08
9.54369e-08
5.04235e-08
3.52166e-07
1.13016e-07
2.69905e-09
-2.06612e-08
4.61207e-08
-4.34155e-08
6.25729e-08
-1.62853e-08
7.085e-08
-7.46487e-09
6.98311e-08
1.0595e-09
7.65548e-08
-6.71609e-09
8.62412e-08
-9.84595e-09
9.87445e-08
-1.35033e-08
1.17385e-07
-1.98559e-08
1.20869e-07
-3.48458e-09
1.18184e-07
3.89667e-09
1.05722e-07
1.37001e-08
9.54334e-08
1.0301e-08
9.28588e-08
1.65141e-09
1.01697e-07
-8.95408e-09
1.11051e-07
-9.36108e-09
1.15869e-07
-6.01205e-09
1.20765e-07
-4.84702e-09
1.24916e-07
-2.93069e-09
1.2185e-07
3.06653e-09
1.26676e-07
-4.82804e-09
1.17598e-07
9.08254e-09
1.23481e-07
-4.65069e-09
1.23109e-07
3.70648e-10
-3.34067e-09
-6.54334e-09
-9.67925e-08
2.97296e-08
4.49701e-08
-6.39223e-08
-4.33383e-08
-5.98547e-08
-2.42688e-08
1.68628e-07
5.10877e-08
6.03476e-09
-1.32877e-07
-4.62076e-08
-7.26415e-08
7.60285e-08
-4.73676e-08
1.04927e-07
-6.87249e-08
5.87092e-08
4.89136e-08
5.39084e-08
1.96654e-08
7.37549e-08
-3.30853e-08
7.72537e-08
-9.699e-09
6.85153e-08
1.4711e-08
8.49451e-08
-6.62176e-09
8.83912e-08
2.39149e-08
9.86729e-08
2.53689e-10
1.20498e-07
1.7902e-08
1.87789e-07
6.93108e-09
1.34211e-07
-2.03432e-08
1.31633e-07
-2.6161e-08
1.54289e-07
-2.12246e-08
8.30535e-08
-3.2462e-08
1.50277e-07
1.20439e-08
1.14067e-07
1.344e-08
1.10406e-07
1.98373e-09
1.05619e-07
-3.10973e-09
9.72227e-08
7.63593e-09
1.0023e-07
-1.17251e-08
9.65105e-08
-4.42769e-09
1.06837e-07
-1.59199e-08
1.18495e-07
-1.98169e-08
1.36175e-07
-1.97813e-08
1.43467e-07
-1.68911e-08
1.31838e-07
-6.03992e-09
1.03642e-07
1.45642e-08
9.60939e-08
2.16939e-08
1.01874e-07
3.10717e-08
8.85437e-08
1.44061e-08
9.59311e-08
-7.047e-09
1.15662e-07
-2.29728e-08
1.27383e-07
-1.83484e-08
1.6308e-07
-4.50459e-08
1.81242e-07
-2.51891e-08
2.19183e-07
-4.64025e-08
2.41953e-07
-1.88891e-08
2.61196e-07
-9.50844e-10
2.59697e-07
3.05844e-08
2.52617e-07
5.60118e-08
3.06009e-07
6.22016e-08
1.65859e-07
-6.78199e-10
2.19374e-07
2.14204e-08
1.84343e-07
1.67152e-08
1.8669e-07
-9.73713e-09
1.84949e-07
6.54291e-09
1.64342e-07
1.76737e-08
1.37979e-07
1.6346e-08
1.38919e-07
-1.60302e-08
1.55681e-07
-3.80357e-08
1.58043e-07
-5.82248e-09
1.57064e-07
6.47854e-09
1.40249e-07
3.05146e-08
1.29586e-07
2.2072e-08
1.09359e-07
2.32601e-08
9.35901e-08
4.56025e-09
8.70135e-08
-3.70156e-09
8.9127e-08
-9.03479e-09
9.79204e-08
-1.36893e-08
1.03546e-07
-7.48105e-09
1.04976e-07
1.62044e-09
9.80014e-08
2.14655e-09
1.12733e-07
-5.59263e-09
1.15991e-07
-7.82867e-09
1.21113e-07
-4.80482e-09
-5.35018e-09
-2.35478e-07
1.01051e-07
-5.42534e-08
5.01969e-08
-9.08375e-08
-2.49701e-10
-9.04082e-08
-2.30753e-08
-1.23661e-07
-3.86302e-08
-7.71176e-08
-5.86835e-08
-1.28587e-07
-2.19584e-08
-1.30069e-07
-4.58851e-08
1.68823e-07
-1.42782e-09
-1.37003e-07
-9.55231e-09
-9.76077e-08
-1.97294e-08
-1.26076e-07
-7.16345e-09
-1.00886e-07
-3.48877e-08
-9.32287e-08
7.93275e-09
-7.87081e-08
-2.09284e-08
-4.66977e-08
-7.86257e-09
-3.17393e-08
-1.48722e-08
-8.9313e-09
-5.60124e-09
1.27095e-08
-1.46765e-08
-2.16237e-09
-5.70579e-09
-4.95344e-09
-2.36056e-08
1.7602e-09
-2.79203e-08
-1.83313e-08
-1.20211e-08
1.52982e-08
-2.16185e-08
2.81524e-08
3.01745e-10
3.2409e-08
-1.98836e-09
2.54935e-08
3.94854e-09
3.75403e-08
-3.69232e-09
3.22011e-08
-6.3302e-09
2.78845e-08
-7.61335e-10
2.17208e-08
-9.63411e-09
2.06299e-08
-1.85155e-08
1.37917e-08
-1.30049e-08
1.61216e-08
-1.97034e-08
1.55484e-08
-5.62961e-09
-1.12316e-08
4.16647e-08
-4.15431e-08
5.13535e-08
-3.1465e-08
2.14217e-08
-2.01481e-08
3.29674e-09
7.68819e-09
-3.53222e-08
3.65168e-08
-5.20335e-08
3.59e-08
-1.73593e-08
3.91176e-08
-4.96286e-08
8.06279e-08
-6.58852e-08
1.00067e-07
-6.56875e-08
1.28658e-07
-4.98133e-08
1.48892e-07
-2.09739e-08
1.54933e-07
2.76431e-08
1.74273e-07
3.80756e-08
1.82675e-07
5.26445e-08
1.53801e-07
2.79081e-08
1.39544e-07
3.45957e-08
1.58512e-07
-5.09396e-09
1.26244e-07
2.42781e-08
1.1945e-07
1.59105e-08
1.31475e-07
5.46619e-09
4.30413e-08
-1.83519e-08
1.06452e-07
4.40456e-08
8.16979e-08
-1.52013e-08
8.55227e-08
-9.64721e-09
7.70963e-08
1.57774e-08
7.73092e-08
3.02996e-08
4.57116e-08
5.46939e-08
4.79125e-08
2.03698e-08
4.97086e-08
1.70431e-09
4.26335e-08
3.33982e-09
4.72118e-08
-1.33141e-08
5.00477e-08
-1.71754e-08
6.33121e-08
-2.13847e-08
9.57249e-08
-3.01528e-08
9.27711e-08
5.13051e-09
8.90874e-08
-2.80881e-09
6.89528e-08
1.37625e-08
5.18657e-08
1.35275e-08
6.96698e-09
-7.05314e-09
1.20191e-08
-1.06867e-08
-9.89152e-08
-7.67974e-08
6.68682e-08
-7.14859e-08
-2.80427e-08
-9.40953e-08
-1.48854e-08
-1.11089e-07
-4.1328e-08
-1.06887e-07
-2.61599e-08
-1.67965e-07
1.535e-08
1.44308e-07
5.2488e-08
-1.61533e-07
-7.06205e-08
-1.16799e-07
-6.34726e-08
-1.12962e-07
-1.09997e-08
-1.22105e-07
-2.65407e-08
-9.32811e-08
-1.97381e-08
-9.01648e-08
-2.40443e-08
-6.78941e-08
-3.03601e-08
-7.19084e-08
-1.10076e-08
-6.55609e-08
-1.26248e-08
-6.54965e-08
-1.44411e-08
-4.62364e-08
-2.50236e-08
-3.95275e-08
-3.01516e-08
-4.10406e-08
-2.66888e-08
-4.28498e-08
-1.06303e-08
-4.68079e-08
-1.78422e-08
-4.12359e-08
-5.68757e-09
-2.41366e-08
-1.93567e-08
-1.25371e-07
-1.65968e-08
-2.84716e-08
2.14673e-08
-5.30457e-08
1.82691e-08
-4.97336e-08
-4.08113e-09
-4.982e-08
-9.5477e-09
-5.37821e-08
-1.47034e-08
-6.15928e-08
-5.06148e-09
-6.85584e-08
-1.25369e-08
-2.57041e-08
-4.93067e-08
-7.61998e-08
9.21604e-08
-6.50639e-08
4.00622e-08
-6.12727e-08
1.67868e-08
-4.72682e-08
-1.10809e-08
-1.89557e-08
-6.25035e-08
3.66476e-08
-1.09087e-07
-4.07239e-10
1.96913e-08
-1.23007e-07
-5.03503e-08
-4.87795e-08
-1.79646e-08
-6.85262e-08
-4.4802e-08
-5.20022e-08
-6.51078e-08
-3.18548e-08
-4.21853e-08
-1.03355e-08
5.90416e-09
1.11276e-08
1.62279e-08
1.89367e-08
4.39633e-08
2.21076e-08
2.49626e-08
1.81834e-08
3.7774e-08
9.44105e-09
3.54331e-09
6.47787e-09
2.74916e-08
7.11928e-09
1.5203e-08
-5.06491e-09
1.7776e-08
-3.5362e-08
1.20682e-08
-1.53267e-10
8.30291e-09
5.12723e-08
-6.73136e-08
-3.98533e-09
4.5512e-08
-2.64699e-08
3.7992e-08
-2.85278e-10
4.15488e-09
-7.22493e-08
4.04293e-09
2.29256e-08
4.63175e-08
-1.14899e-09
2.6022e-08
-6.45592e-09
8.51764e-09
-1.37863e-08
-6.05026e-09
-1.41002e-08
-1.67209e-08
2.07196e-10
-3.59102e-08
4.72158e-09
-3.49747e-08
7.79357e-09
2.05852e-09
9.21407e-09
-4.3522e-09
2.92058e-08
-6.0298e-09
2.42281e-08
1.86651e-08
-4.59877e-09
-1.00895e-07
4.3677e-08
1.47047e-07
1.31784e-07
-8.69732e-08
-8.7961e-08
-5.878e-08
-5.50742e-08
-1.28585e-08
-6.12543e-08
-6.25287e-09
-4.79334e-08
-4.60771e-09
-2.78517e-08
5.66811e-09
5.07457e-09
5.96866e-08
-9.78975e-10
-5.41093e-10
-1.03925e-08
-2.61336e-08
-3.78742e-08
-8.06665e-09
-2.91785e-08
-3.99541e-08
5.75473e-09
-4.7827e-08
-1.18648e-08
-5.67785e-08
-1.58255e-08
-6.72891e-08
-2.00537e-08
-5.05318e-08
-2.78768e-08
-4.53794e-08
-1.77768e-08
-5.69738e-08
-2.8756e-09
-3.87918e-08
-4.32052e-08
-4.82778e-08
-2.06653e-08
-5.69547e-08
-1.82837e-08
-6.28157e-08
-5.40981e-09
-8.08985e-08
2.40904e-10
-8.77528e-08
1.9923e-09
-1.18698e-07
1.17863e-08
-1.42839e-07
7.63619e-09
-1.16398e-07
-6.00365e-09
-9.81695e-08
4.07261e-11
-8.58373e-08
-1.52561e-08
-7.39055e-08
-2.2009e-08
-7.8617e-08
-9.99182e-09
-7.28955e-08
-9.98097e-09
-9.58551e-08
9.34949e-09
1.50004e-07
7.40341e-08
-7.41608e-08
-5.10568e-08
-1.59909e-08
-1.82926e-08
6.54971e-09
-5.98395e-09
1.05181e-08
-1.50437e-08
-4.92963e-08
-2.47462e-09
1.61373e-07
4.9698e-08
-8.26788e-08
-1.04092e-07
-1.14265e-07
-1.82505e-08
-7.95917e-08
-5.18261e-08
-1.10671e-07
-1.34061e-08
-1.44619e-07
-3.56031e-08
-1.62698e-07
-2.45456e-08
-1.22254e-07
-3.12201e-08
-1.17631e-07
1.28393e-08
-8.86622e-08
1.49946e-08
-8.45649e-08
2.10381e-08
-6.33019e-08
1.53353e-08
-5.85643e-08
-1.84674e-09
-6.06457e-08
2.98899e-08
-5.57535e-08
9.74193e-09
-7.61177e-08
3.73556e-08
-9.95619e-08
3.73232e-08
-1.28261e-07
3.67122e-08
8.94341e-08
8.45032e-08
-1.62238e-07
-6.99169e-08
-1.18694e-07
-6.76239e-09
-1.21307e-07
7.89392e-09
-1.11188e-07
-4.89178e-09
-6.3564e-08
-1.96871e-09
-3.40005e-08
-2.92921e-09
-1.87317e-08
-6.59849e-09
-1.07791e-08
-1.39895e-08
2.80246e-10
-2.77803e-08
9.38985e-09
-4.50198e-08
5.87844e-08
-8.43693e-08
2.58685e-09
5.76677e-08
-6.79374e-09
5.09745e-09
6.032e-09
-1.89169e-08
1.00292e-08
1.47294e-08
-1.78065e-08
-5.04331e-08
2.60215e-08
3.16282e-08
5.49784e-08
-1.65428e-08
-4.39551e-08
-1.21059e-07
-7.22767e-08
-2.85623e-08
-3.16874e-08
-3.49032e-08
-4.15922e-08
-2.62628e-08
-3.64918e-08
2.64873e-09
-2.38884e-08
1.59344e-08
-1.42643e-08
9.38762e-09
-3.73936e-09
-6.09334e-09
-2.23928e-08
3.36191e-08
-6.88906e-08
-2.85345e-08
6.72229e-08
-3.71459e-08
-3.37399e-09
-4.68386e-08
-6.6102e-09
-6.42893e-08
-2.60258e-09
-5.90342e-08
-3.24756e-08
-6.18053e-08
-1.5797e-08
-1.61247e-07
-2.67542e-08
-6.49633e-08
-1.59436e-08
-7.729e-08
-8.25399e-09
-7.07494e-08
-2.45733e-08
-6.56307e-08
-1.05282e-08
-5.89208e-08
-6.47115e-09
-4.68534e-08
-1.00748e-08
-4.19576e-08
7.2448e-09
-5.5318e-08
2.04382e-08
-1.73694e-08
-4.45223e-08
2.38334e-09
-1.95594e-08
7.23082e-09
-2.01765e-08
1.92941e-08
-3.39992e-08
3.23985e-08
-2.30324e-08
3.7144e-08
-1.51053e-08
6.29801e-08
-1.72974e-08
1.35721e-07
-1.88636e-10
8.6912e-08
4.3472e-14
6.409e-08
5.2366e-09
5.4291e-08
3.16104e-09
4.55408e-08
-5.9825e-09
1.1342e-08
3.16986e-08
2.39233e-08
3.64938e-08
-6.50586e-08
-1.51102e-08
-9.46264e-08
1.13172e-08
-1.03755e-07
-4.37562e-08
-1.23212e-07
4.6431e-09
-2.38568e-07
-4.22988e-08
-1.51644e-07
1.3528e-08
-1.54251e-07
-2.70398e-08
-1.37032e-07
-4.37953e-09
-1.19788e-07
-4.7169e-09
-1.06028e-07
8.28622e-09
-8.11266e-08
-8.34086e-09
-3.20129e-08
-5.23029e-08
-6.92919e-08
6.64906e-08
-2.02381e-08
-4.01307e-08
-8.4117e-08
9.98349e-08
-9.41785e-08
4.74884e-08
-8.72618e-08
2.92798e-08
-2.06063e-08
1.68035e-08
-9.76083e-08
7.29544e-09
-8.31691e-08
-2.03531e-08
-8.14415e-08
6.0258e-09
-9.88937e-08
1.16797e-08
-5.35796e-08
-4.68053e-08
-2.55528e-08
-3.06953e-08
-3.78874e-09
-2.8391e-08
9.54693e-09
-2.73635e-08
1.38482e-08
-3.19841e-08
-1.31364e-08
-1.80352e-08
1.93945e-07
7.27595e-08
-5.13281e-08
-5.95499e-08
-2.14476e-08
-2.53069e-08
-6.64989e-09
-3.42575e-08
-2.07706e-08
2.88499e-08
2.0271e-08
-6.21462e-08
8.60672e-09
1.55323e-08
-1.24245e-08
9.13039e-09
-4.10157e-08
-5.15033e-08
-1.20115e-08
-3.32613e-08
-4.9945e-08
-2.83565e-08
-4.64966e-08
-1.87022e-08
-4.61457e-08
-4.4659e-09
-3.81244e-08
6.20927e-09
-2.49391e-08
7.83027e-09
-5.36e-09
-3.55598e-08
2.09977e-08
1.77143e-07
8.27882e-08
-3.98018e-08
-7.75393e-08
-7.66988e-09
-3.59115e-08
-7.33205e-09
-6.94763e-09
-1.60585e-08
6.08873e-09
-1.9143e-08
-2.95861e-08
-2.01526e-08
-1.47869e-08
-3.83792e-08
-8.5273e-09
-2.17269e-08
-3.20414e-08
-1.24144e-08
-1.72213e-08
-1.38534e-08
-2.34967e-08
-1.03664e-08
-1.40132e-08
-2.8705e-09
-1.39668e-08
9.14205e-09
-2.21804e-08
5.23015e-08
-3.62808e-08
-1.93938e-08
-2.91871e-08
6.4004e-08
-5.40278e-09
1.60274e-08
2.84172e-08
-1.40494e-08
9.69464e-09
-4.56221e-08
-3.23875e-09
-7.20862e-08
3.43169e-09
-8.35755e-08
-3.7332e-09
-1.18097e-07
1.70456e-08
-9.74919e-08
-2.05853e-08
-1.14199e-07
1.67074e-08
-1.06446e-07
-1.40569e-09
-1.04361e-07
1.06584e-09
-1.17778e-07
7.51045e-09
-9.92944e-08
1.28917e-08
-4.82865e-08
-1.46638e-08
-7.34478e-08
1.0051e-08
-5.9842e-08
-2.28874e-09
-9.6546e-08
-7.05232e-09
-1.02838e-07
1.08873e-08
-1.25786e-07
-1.89195e-08
-9.86889e-08
-1.35687e-08
-1.08318e-07
-1.74111e-08
-9.97246e-08
-1.30173e-08
-1.05917e-07
2.53013e-09
-1.12618e-07
1.50558e-08
-1.53414e-07
2.96562e-08
8.06898e-08
8.2724e-08
-2.0347e-07
-1.6765e-08
5.37288e-08
7.38081e-08
-1.70185e-07
-4.15453e-08
-1.39113e-07
1.46619e-08
-1.10948e-07
3.66564e-09
-1.01642e-07
7.3282e-09
-7.92697e-08
-1.61138e-08
-8.644e-08
-1.23011e-08
-5.39173e-08
-2.6436e-08
-1.34529e-07
-2.86571e-08
-2.26673e-08
-3.78364e-08
-3.11266e-08
-2.24673e-08
-2.83285e-08
-3.14787e-08
-2.13264e-08
-3.46448e-08
-2.52368e-08
-2.80737e-08
-2.99204e-08
-1.33516e-08
1.88055e-09
4.09585e-08
-5.90281e-08
7.512e-10
-6.14837e-08
-2.34789e-08
-5.06746e-08
-4.55365e-08
-8.28216e-08
6.15139e-08
5.45683e-08
-7.51875e-08
-5.38028e-10
2.21444e-08
-1.01461e-07
-2.09406e-10
-1.96472e-08
-7.79697e-09
-4.41097e-09
6.01205e-09
-6.37538e-08
1.04141e-08
-5.0837e-08
3.34581e-09
-3.90771e-08
3.46718e-09
-3.82454e-08
2.52221e-09
-2.39938e-08
8.32603e-09
-1.11635e-08
4.29073e-08
-1.34461e-08
1.19465e-08
-8.35007e-09
6.01716e-08
-5.71687e-09
3.10357e-08
-6.2249e-09
3.09723e-08
-7.19977e-09
4.14157e-08
-4.35433e-09
3.18193e-08
-1.97684e-08
2.58682e-08
-8.50748e-09
1.77797e-08
-6.28181e-10
3.32691e-09
-1.76221e-08
2.31608e-09
-1.63282e-08
-5.30412e-09
-1.58998e-08
-9.02708e-09
-1.03408e-08
-1.37288e-08
-9.35687e-09
-1.01033e-08
-2.59088e-08
-1.72207e-08
-2.95371e-08
-4.98227e-08
3.59076e-09
1.30961e-08
-6.90256e-08
-3.92168e-08
7.99149e-08
-5.69905e-08
2.77516e-08
-6.64397e-08
6.27449e-09
-7.12518e-08
8.20884e-09
-7.04007e-08
-4.58436e-09
-4.811e-08
-5.41896e-09
-8.84827e-08
1.97874e-08
-6.57824e-08
-6.16348e-09
-7.10054e-08
4.54162e-09
-7.66966e-08
5.98243e-09
-1.85978e-07
-7.3959e-09
-8.73504e-08
3.73329e-08
-1.18511e-07
1.64967e-08
-1.20382e-07
1.32666e-08
-1.18569e-07
-4.06088e-09
-1.24938e-07
-6.82912e-10
-1.03514e-07
-1.05372e-08
-1.20482e-07
-1.97219e-09
-1.12384e-07
-2.16669e-08
-1.13356e-07
-1.64384e-08
-1.19699e-07
-5.45339e-09
-1.11826e-07
-6.4727e-09
-1.16558e-07
1.87901e-08
-1.07191e-07
2.14783e-08
-8.53806e-08
6.06891e-08
-1.18032e-07
1.55566e-08
-6.86135e-08
2.28837e-08
-1.09162e-07
-1.40576e-09
-1.07165e-07
1.25151e-08
-9.40979e-08
-9.40167e-09
-6.58787e-08
-2.08163e-08
-7.08818e-09
-7.56763e-08
-5.7884e-08
3.84947e-08
-6.70526e-08
-1.6853e-08
-8.51747e-08
-1.06425e-08
-6.4411e-08
-6.04719e-08
-4.49065e-08
-4.24044e-08
-5.90115e-08
-1.75528e-08
-8.39327e-08
-9.72363e-09
2.38446e-08
-1.35851e-07
-2.1721e-08
3.22139e-08
-7.19905e-08
9.1228e-08
-1.12719e-07
4.14799e-08
-1.79108e-07
4.10818e-08
5.13119e-08
9.54596e-08
-2.27706e-07
-2.90972e-08
1.34252e-08
-1.28382e-07
8.81052e-08
3.50907e-08
2.38702e-07
-4.80359e-08
6.32476e-08
-3.0788e-08
-1.97181e-08
-3.64346e-08
-5.96802e-08
3.29289e-08
-1.21439e-07
-5.21816e-09
-9.29732e-10
-6.05492e-11
-4.385e-08
3.80635e-08
-6.14902e-08
4.50395e-08
-1.84108e-08
4.54992e-08
-1.43648e-08
4.27226e-08
-5.1137e-09
5.87717e-08
-2.07884e-08
4.89713e-08
3.61315e-09
4.63202e-08
-5.04793e-09
2.39335e-08
1.80484e-08
2.76194e-09
1.41733e-09
-1.39119e-08
7.91336e-09
-1.73165e-08
2.74815e-09
-3.92931e-08
4.39696e-09
-4.42547e-08
-1.05139e-08
-4.84738e-08
-1.20094e-08
-6.0675e-08
1.26751e-09
-6.32404e-08
-6.17226e-09
-7.76623e-08
-1.14866e-08
-6.34139e-08
-4.3484e-08
-1.50501e-07
8.91425e-08
5.88011e-08
9.19773e-08
-1.72773e-07
-5.334e-08
-1.41644e-07
-6.61804e-09
-1.36221e-07
2.31175e-09
-1.25562e-07
-1.06071e-09
-1.11918e-07
-1.82284e-08
-4.25823e-08
-7.47545e-08
-8.94195e-08
6.59517e-08
-9.15789e-08
-3.96367e-09
-9.00651e-08
3.02776e-09
-9.1214e-08
6.26167e-09
-1.06271e-07
7.73713e-09
-8.13992e-08
1.35453e-08
-7.96459e-08
1.37624e-08
-8.14143e-08
1.5874e-08
-7.08859e-08
-1.37672e-08
-7.54031e-08
3.11107e-09
-9.08714e-08
4.00398e-09
-1.03572e-07
1.06186e-08
-1.10453e-07
-1.38708e-08
-1.01532e-07
-2.53594e-08
-1.12681e-07
5.69507e-09
-1.18919e-07
-3.03302e-10
-1.02618e-07
2.29699e-09
-8.22051e-08
2.26979e-10
-1.61921e-07
1.8562e-08
-6.02742e-08
3.63748e-08
-5.58367e-08
1.84009e-08
-6.63132e-08
9.07075e-09
-5.41586e-08
-3.12818e-10
-6.52418e-08
1.68154e-09
-1.03109e-07
1.59987e-08
1.25257e-07
6.5921e-08
-1.36414e-07
-6.79944e-08
-1.45719e-07
-9.12743e-09
-1.30362e-07
-2.74531e-08
-1.62269e-07
-2.91945e-08
-1.33607e-07
-7.22609e-08
-2.21664e-07
7.33941e-08
-3.19135e-07
-3.2384e-08
2.14528e-08
1.19339e-08
-2.8572e-08
8.14082e-08
-2.44949e-07
-5.85835e-08
-2.09488e-07
6.01884e-09
-2.19185e-07
4.80524e-08
-1.65445e-07
3.77134e-08
-3.13954e-07
-3.47073e-09
3.02642e-08
-4.76292e-08
4.00172e-08
-1.87415e-07
-6.80084e-08
-8.40154e-08
-2.18457e-08
-7.00853e-08
-3.14566e-08
-1.10933e-07
-2.01833e-08
1.36103e-07
2.63084e-09
-9.74482e-08
-1.34576e-07
-1.70729e-08
-1.25341e-07
3.02912e-08
-1.10099e-07
-1.89892e-08
3.11758e-08
-2.30524e-08
-1.06415e-08
-2.06203e-08
-7.59767e-09
-1.50245e-08
-2.62691e-08
-1.43559e-08
2.87801e-09
-9.96226e-09
-9.28785e-09
-2.37722e-08
3.20988e-08
-4.32065e-08
2.14676e-08
-1.2791e-08
-2.32528e-08
-6.93722e-09
-3.33461e-09
-4.73412e-08
4.4756e-08
-6.13764e-08
4.04581e-09
-1.29008e-07
5.53123e-08
-1.41058e-07
1.33045e-08
-1.559e-07
1.01096e-08
-2.05421e-07
3.76503e-08
3.99406e-08
7.73433e-08
-1.98595e-07
-4.01266e-08
-1.14333e-07
6.76685e-09
-1.43435e-07
-2.3615e-08
-1.44436e-07
-5.54983e-09
-1.41514e-07
-6.33655e-10
-1.36082e-07
-6.49298e-09
-1.58469e-07
4.15889e-09
7.56997e-08
5.64929e-08
-1.35494e-07
-8.39768e-08
-9.31163e-08
-4.77098e-08
-9.77711e-08
6.7325e-09
-8.51239e-08
-6.38563e-09
-7.38565e-08
-3.60926e-09
-4.59648e-08
-1.43466e-08
-4.9901e-08
1.76985e-08
-8.61155e-08
5.19265e-08
-8.37052e-08
-1.63181e-08
-1.06432e-08
-6.99511e-08
-6.7798e-08
6.18503e-08
-6.93465e-08
1.13596e-08
-8.85689e-08
4.63671e-09
-1.07952e-07
-5.12465e-09
-9.08811e-08
-1.23035e-08
-1.84229e-07
-3.02761e-08
-8.27151e-08
2.47251e-08
-9.56926e-08
1.40375e-08
-1.01304e-07
2.39864e-08
-6.90713e-08
3.47921e-09
-6.2596e-08
1.19255e-08
-5.92038e-08
6.31073e-09
-4.33879e-08
-1.61287e-08
-5.54431e-08
1.32941e-08
-4.44936e-08
5.04923e-09
-1.42965e-08
3.4553e-08
-7.82793e-08
-4.81842e-09
-2.06321e-07
-3.59944e-09
-1.53022e-07
4.21343e-08
-2.29104e-07
4.2032e-08
-3.73208e-10
7.51721e-08
-3.84441e-07
-4.52478e-08
-3.41827e-07
5.32733e-08
-6.21196e-09
5.09185e-08
-2.18953e-07
-6.96856e-08
-2.29969e-07
-5.03148e-08
-2.09073e-07
-1.27445e-08
-1.73676e-07
1.07924e-08
-1.54843e-07
1.67005e-08
-1.56462e-07
-2.00759e-10
2.94727e-09
-5.06548e-08
-4.94651e-09
-1.98606e-07
-4.8143e-08
-7.5792e-08
4.10508e-09
-8.23036e-08
-2.2437e-08
-8.06348e-08
-2.05833e-08
-2.44054e-08
-5.25535e-08
-8.14179e-08
-7.83857e-08
-1.16254e-07
-9.22e-08
6.18735e-08
8.17995e-08
-1.95528e-07
-7.79235e-08
-1.67014e-07
-3.9156e-08
-1.44728e-07
-2.8406e-08
-1.21224e-07
-4.90443e-08
-7.56867e-08
-4.46765e-08
-1.37491e-07
5.17362e-08
-1.49779e-07
4.26264e-08
-2.71387e-07
1.58684e-08
-1.72495e-07
6.53114e-09
-1.39897e-07
-3.45245e-08
-1.87613e-07
8.91919e-08
-2.06911e-07
1.90788e-08
-2.84934e-07
1.07727e-08
-1.78856e-07
3.46142e-08
-1.69353e-07
2.35859e-09
-1.36857e-07
5.15535e-09
-6.56593e-08
5.41914e-09
-9.34068e-08
-1.23788e-08
-8.14377e-08
-6.22409e-09
-9.71509e-08
-7.90165e-09
-1.00207e-07
-2.49321e-09
-9.04538e-08
-1.03872e-08
-9.01193e-08
-6.82742e-09
-8.19533e-08
-4.00712e-09
-3.41587e-08
8.61041e-09
-7.47204e-08
-4.42719e-08
-4.05678e-08
-8.3198e-08
-9.73151e-08
6.28387e-08
-1.00032e-07
-3.66908e-09
-8.76045e-08
-1.60366e-08
-4.00747e-08
-6.25143e-08
-6.63612e-08
4.3985e-08
-1.5883e-07
2.23323e-08
-9.65475e-08
4.3462e-08
1.2976e-07
6.99303e-08
-1.26848e-07
-4.77308e-08
-9.31486e-08
-2.2224e-08
-7.67657e-08
-1.25767e-08
-1.79199e-07
-2.60121e-08
-7.36907e-08
6.07885e-09
-1.03319e-07
-3.39522e-10
-8.25732e-08
4.82209e-09
-7.30952e-08
4.55947e-09
-5.37628e-08
4.15292e-09
-4.79976e-08
-2.26296e-09
-3.95851e-08
3.87725e-09
-3.26216e-08
-6.59447e-10
-3.33072e-08
-1.61048e-08
-2.32076e-08
3.1945e-09
-5.96635e-09
-1.21312e-08
-1.95986e-09
3.02411e-08
-2.65118e-08
1.97626e-08
-6.11095e-08
3.13549e-08
-3.57895e-08
1.7006e-08
-3.1229e-08
3.73624e-08
6.02337e-08
-1.89236e-08
-8.0726e-08
9.64188e-08
-8.7185e-08
5.59769e-08
-9.75427e-08
5.90077e-08
-1.78106e-07
1.03289e-08
-2.165e-07
-8.24975e-09
-2.18643e-07
-6.16236e-09
-1.88716e-07
-1.90258e-08
-1.70131e-07
-4.02188e-09
-1.60125e-07
-1.03119e-08
-1.00733e-08
-9.71023e-08
5.02992e-09
-1.25949e-07
2.31308e-09
-9.35728e-08
-1.30878e-08
-8.62206e-08
-2.30219e-08
-7.70905e-08
-3.03759e-08
-1.03627e-07
-2.70792e-08
-1.78317e-07
-6.3149e-09
4.88028e-08
5.15941e-08
-1.42246e-07
-9.56484e-08
-1.71361e-07
-4.88083e-08
-1.81438e-07
-2.90782e-08
-1.66602e-07
-4.5405e-08
-2.27075e-07
1.09236e-08
7.24941e-08
2.40498e-08
-2.08781e-07
-3.15745e-08
-1.55644e-07
-1.05106e-08
-1.7647e-07
3.47836e-08
-2.10971e-07
3.88135e-08
5.00003e-08
7.31974e-08
-1.73716e-07
-4.95862e-08
-1.38774e-07
-1.64143e-08
-1.28576e-07
1.67302e-09
-9.57459e-08
-4.76159e-10
-9.68582e-08
2.45892e-09
-9.49908e-08
4.32888e-09
-1.01343e-07
1.18929e-08
-8.17908e-08
-3.20572e-08
-7.10932e-08
-1.69216e-08
-1.11168e-07
3.21731e-08
-1.16363e-07
2.70175e-09
-8.58913e-08
-4.08585e-08
-7.65715e-08
-1.61472e-08
-6.91079e-08
-1.07657e-08
-6.54075e-08
4.86095e-09
-1.17869e-07
6.38531e-09
1.0576e-07
6.20458e-08
-1.27876e-07
-6.64138e-08
-1.20235e-07
-1.2614e-08
-1.37725e-07
4.78037e-11
1.04545e-07
6.51786e-08
-1.40823e-07
-7.87046e-08
-1.25988e-07
7.49736e-09
-9.74975e-08
1.4971e-08
-2.5599e-08
-1.96825e-09
-7.09581e-08
-2.37191e-09
-8.40204e-08
-9.16175e-09
-8.1723e-08
-1.48742e-08
-1.0505e-07
-2.41942e-09
-8.62945e-08
-1.26771e-08
-7.15573e-08
-1.52322e-08
-7.73381e-08
1.06028e-08
-6.10954e-08
-1.16368e-08
-5.94375e-08
3.10131e-09
-6.64895e-08
5.40589e-09
-5.36956e-08
-1.00291e-08
-5.49262e-08
-5.55303e-10
-8.50085e-08
1.45436e-08
-5.58664e-08
-2.50803e-08
-1.08423e-08
-5.70447e-08
-5.15396e-08
7.05316e-08
-6.89906e-08
3.59839e-08
-6.47409e-08
2.77724e-08
-7.18212e-08
2.47401e-08
-8.55339e-08
4.93476e-08
1.68265e-07
9.70448e-08
-6.94962e-08
-3.20321e-08
-2.5839e-08
1.18951e-08
-1.16403e-08
4.33562e-08
-2.78797e-08
2.59738e-08
-5.19622e-08
1.59169e-08
-7.00132e-08
1.17685e-08
-8.04452e-08
-9.51187e-09
-8.42132e-08
-1.12233e-09
-1.0046e-07
6.80267e-09
-1.47159e-08
-1.04222e-07
5.04913e-08
-8.94866e-08
1.26764e-08
-1.00283e-07
6.45727e-09
-9.23855e-08
-2.60387e-08
-1.16135e-07
-8.12121e-09
-1.36519e-07
-6.69466e-09
-1.37617e-07
-3.82413e-09
-7.69017e-08
-1.04314e-08
-7.33347e-08
-1.00248e-07
-1.49267e-07
2.78727e-08
-1.61958e-07
-1.80397e-08
-2.05572e-07
-1.79041e-09
-1.73717e-07
-2.07177e-08
-7.64492e-08
-7.398e-08
-1.66543e-07
5.92992e-08
-1.6623e-07
-1.093e-08
-1.43414e-07
1.18467e-08
-2.20612e-07
-3.80019e-09
-6.00215e-08
3.33045e-08
-1.08343e-07
-2.34736e-09
-1.05484e-07
-2.14542e-08
-1.03149e-07
4.13694e-10
-8.07459e-08
-2.10264e-08
-7.70197e-08
-2.10724e-09
-6.05925e-08
-1.33657e-08
-1.56536e-07
-1.53265e-08
-5.41841e-08
-1.06404e-08
1.26315e-08
-8.37371e-08
-8.72162e-08
9.95806e-09
-8.1139e-08
-3.37541e-09
-2.44283e-08
2.47462e-08
-3.34103e-08
-7.16522e-09
-3.65066e-08
-7.29693e-09
-3.68853e-08
4.91633e-09
-4.32727e-08
1.23925e-08
6.77231e-09
1.17401e-08
-4.22782e-08
-1.78537e-08
-7.00058e-08
1.4112e-08
-1.0546e-07
3.58713e-08
-4.19487e-08
1.63388e-09
-1.00698e-07
-2.01629e-08
-6.95601e-08
-2.23853e-08
-8.09576e-08
2.63684e-08
-8.78092e-08
4.93356e-09
-8.99267e-08
-2.54513e-10
-8.41142e-08
-1.49743e-08
-8.65228e-08
-1.24657e-08
-8.38255e-08
-5.11679e-09
-8.22877e-08
-1.50545e-08
-8.76899e-08
-9.93232e-09
-8.54451e-08
9.25255e-09
-8.44272e-08
-1.26547e-08
-9.28463e-08
1.2596e-08
-8.85785e-08
2.08715e-09
-7.43964e-08
-2.54642e-08
-8.49801e-08
9.18141e-09
-7.0488e-08
-9.69211e-11
-1.10572e-07
1.50033e-08
1.4866e-07
4.8396e-08
-8.72982e-08
-5.5289e-08
-5.28982e-08
6.8635e-10
-3.33984e-08
7.98927e-09
-3.13072e-08
2.32207e-08
-2.03021e-08
3.83425e-08
3.44495e-08
4.0681e-08
-5.78857e-09
8.26496e-09
9.10627e-09
-2.87966e-09
3.97532e-08
1.28388e-08
6.47096e-08
1.01738e-09
7.89746e-08
1.49104e-09
9.56954e-08
-5.91888e-09
1.01064e-07
-1.39147e-08
1.11369e-07
-1.02806e-08
9.70625e-08
2.02565e-08
-2.19292e-09
-1.59174e-07
1.74418e-07
-1.12727e-07
7.56066e-09
-9.09487e-08
-3.87899e-09
-7.93477e-08
-3.48559e-08
-7.50696e-08
-1.23991e-08
-7.0794e-08
-1.09016e-08
-7.72228e-08
2.60493e-09
-9.73586e-08
8.71143e-09
1.15958e-07
5.74315e-08
-1.41471e-07
-8.20699e-08
-1.26334e-07
-3.31757e-08
-1.26696e-07
-1.40996e-09
-1.48426e-07
-5.06745e-10
8.60282e-08
6.22915e-08
-1.50194e-07
-7.15441e-08
-1.22878e-07
-3.6992e-08
-1.02934e-07
-8.01685e-09
-1.10312e-07
2.52882e-09
-6.38897e-08
-1.20039e-08
-5.03199e-08
-1.57812e-08
-5.98862e-08
-1.17901e-08
-2.64276e-08
-3.27183e-08
-1.27263e-08
-3.52115e-08
9.81093e-09
-2.47658e-08
2.38274e-08
-2.76225e-08
1.69485e-08
-8.22319e-09
1.51555e-08
-8.67608e-09
2.50411e-07
4.73505e-08
-2.60072e-08
-8.06345e-08
-1.71129e-09
-2.76887e-08
2.03511e-08
2.65658e-09
2.66878e-08
-1.37096e-08
2.44779e-08
-5.08698e-09
1.32698e-08
1.61746e-08
9.56582e-09
1.597e-08
1.58181e-08
5.32643e-09
-9.3156e-09
7.00556e-09
1.07309e-08
-5.8596e-09
-8.04682e-08
4.09844e-09
3.11499e-10
4.25001e-08
-3.459e-08
1.515e-08
1.56607e-08
-7.30242e-08
-2.90491e-08
7.02251e-08
-4.09794e-08
1.68638e-08
-3.78622e-08
-2.95378e-09
-4.54062e-08
-7.35531e-09
-5.32973e-08
-4.5747e-09
-5.80456e-08
-3.64838e-10
-5.93146e-08
-1.42454e-08
-3.16283e-08
-3.75162e-08
-9.41764e-08
7.13949e-08
-1.32387e-07
2.44546e-08
-1.26196e-07
6.40455e-09
-8.98503e-08
-3.38661e-08
-1.06841e-07
-7.6349e-09
-1.03513e-07
6.9329e-09
-1.13486e-07
8.91067e-09
-7.96117e-08
-1.86806e-08
-2.36878e-09
-2.88469e-08
-3.94789e-08
-1.83402e-08
-3.40632e-08
-4.68216e-09
-3.54596e-08
9.0382e-09
-3.43919e-08
2.19292e-08
-1.55992e-08
1.98971e-08
8.09463e-09
1.69871e-08
-1.4841e-09
1.79262e-08
-6.21263e-09
1.83818e-09
-2.3243e-09
8.95044e-09
9.00301e-09
-1.03915e-08
1.46881e-08
-4.19415e-09
2.1557e-08
-1.26985e-08
2.45036e-08
-1.70794e-08
7.16681e-08
-5.78911e-08
7.92779e-09
8.47351e-08
4.77226e-08
-2.71576e-07
-5.6516e-07
-4.5742e-08
-1.57004e-07
-3.7878e-08
-5.5442e-09
-4.19274e-08
-3.00334e-08
-3.42842e-08
-2.0042e-08
-3.21641e-08
-1.30214e-08
-2.57319e-08
-3.82701e-09
-1.95005e-08
2.48036e-09
2.09404e-08
1.64049e-08
-4.57346e-08
-1.53946e-08
-6.68399e-08
-1.20701e-08
-5.91032e-08
-9.7492e-09
-6.82625e-08
8.65286e-09
-1.28839e-08
6.97419e-09
-5.64516e-08
-2.79761e-08
-6.87118e-08
-2.40305e-08
-5.1152e-08
-2.54007e-08
-3.45368e-08
-1.41116e-08
-3.48668e-08
-1.13214e-08
-1.25181e-08
-3.82547e-08
-2.40144e-09
-2.20096e-08
-1.37251e-08
-2.17248e-08
-2.41315e-08
-2.49449e-08
-2.02208e-08
-2.89719e-08
-2.97208e-08
-1.84041e-08
-3.54268e-08
-2.62768e-09
-3.79768e-08
-6.27847e-09
9.6778e-10
8.41595e-09
-6.58536e-08
-1.3813e-08
-6.69885e-08
-2.4944e-08
-5.53613e-08
-8.99734e-09
-3.71256e-08
-3.251e-08
2.59727e-08
-6.8888e-08
-2.08993e-08
6.30467e-08
-2.01502e-08
1.52208e-08
-3.86322e-08
2.40538e-08
-1.91815e-08
-1.2178e-08
-2.41346e-08
-8.38887e-10
-2.9094e-08
8.68109e-09
-1.04698e-08
2.41697e-08
-2.70753e-08
3.10157e-08
1.96545e-07
7.02606e-08
-3.27241e-08
-6.4981e-08
4.14577e-09
-2.05121e-08
1.68065e-08
-1.57861e-08
2.41317e-08
-1.46806e-08
2.1905e-08
-2.30192e-09
1.70458e-08
4.3222e-09
-1.43846e-08
1.7357e-08
2.26515e-07
8.56976e-08
2.91115e-09
-6.74623e-08
2.22783e-08
5.11746e-09
2.10697e-08
7.32046e-09
-2.4173e-08
1.14938e-08
-2.50602e-08
-6.66994e-09
1.85525e-08
-3.64198e-08
-7.3235e-08
-2.20957e-08
2.36622e-08
5.99182e-09
-9.63824e-09
4.69489e-09
-1.08076e-08
-1.72364e-08
-9.33448e-09
-6.20259e-09
1.9767e-09
-2.38841e-09
1.38498e-08
9.91615e-09
1.53454e-08
1.83559e-08
1.70813e-08
1.5581e-08
1.38283e-08
2.13202e-08
-2.03338e-09
1.76998e-08
-1.91095e-08
2.60472e-08
-4.01636e-08
1.07726e-08
-4.54021e-08
1.00145e-09
-4.95839e-08
-8.01098e-09
-9.92738e-08
3.06051e-08
1.31954e-07
8.30598e-08
-9.4518e-08
-5.85386e-08
-3.82513e-09
1.81103e-07
1.08278e-07
-3.05748e-08
2.57575e-08
-2.76396e-08
-5.61487e-09
-2.9004e-08
-2.81047e-08
-2.80368e-08
-2.10089e-08
-2.80806e-08
-1.29773e-08
-1.48535e-08
-1.70537e-08
-1.17711e-08
-6.08015e-10
-2.96687e-09
7.60105e-09
-1.868e-08
3.15616e-10
-3.09039e-08
1.54151e-10
-3.04235e-08
-1.02293e-08
-3.51167e-08
1.31242e-08
-2.18395e-08
-6.30265e-09
-3.28136e-08
-1.70016e-08
-3.09536e-08
-2.55744e-08
-2.89772e-08
-2.73407e-08
-1.71993e-08
-2.61819e-08
-2.66795e-10
-2.85418e-08
-4.95524e-09
-3.39523e-08
-2.06824e-08
-6.33278e-09
-2.38792e-08
-1.87493e-08
-4.18834e-08
-7.44362e-09
-5.84502e-08
-1.24049e-08
-7.60573e-08
-9.86428e-10
-8.40377e-08
4.48667e-09
-9.37474e-08
4.29759e-09
-8.35352e-08
-8.39656e-10
-9.29316e-08
-3.29398e-09
-9.62289e-08
-2.18674e-08
-1.02342e-07
-3.95764e-09
-1.34011e-07
-2.23054e-09
9.78124e-08
6.99723e-08
-1.36489e-07
-7.05582e-08
-8.87102e-08
-3.38078e-08
-1.75032e-07
-1.29451e-08
-6.57236e-08
3.03225e-09
-7.25171e-08
6.67847e-09
-7.05713e-08
6.71555e-09
-4.27274e-08
-3.95541e-09
-9.89068e-09
-1.95922e-09
4.0004e-08
1.93507e-08
-5.30314e-09
-2.01315e-08
-8.52745e-09
-1.74661e-08
-8.45273e-09
-1.58608e-08
-3.98792e-09
-1.92546e-08
2.55415e-09
-8.84407e-09
7.86343e-09
-9.17004e-10
2.82919e-08
-2.89445e-09
6.89441e-08
4.50452e-08
-4.08309e-09
4.92692e-09
-2.27044e-08
2.34473e-08