/*--------------------------------*- C++ -*----------------------------------*\
  =========                 |
  \\      /  F ield         | OpenFOAM: The Open Source CFD Toolbox
   \\    /   O peration     | Website:  https://openfoam.org
    \\  /    A nd           | Version:  12
     \\/     M anipulation  |
\*---------------------------------------------------------------------------*/
FoamFile
{
    format      ascii;
    class       volVectorField;
    location    "0.9";
    object      U.water_0;
}
// * * * * * * * * * * * * * * * * * * * * * * * * * * * * * * * * * * * * * //

dimensions      [0 1 -1 0 0 0 0];

internalField   nonuniform List<vector> 
3750
(
(-0.0190953 -0.00968996 0)
(-0.00308681 0.00343101 0)
(-0.00280883 -0.00550938 0)
(-0.00281346 0.00654643 0)
(-0.00555592 0.00448822 0)
(0.00111584 0.0113465 0)
(-0.00292333 0.00469216 0)
(0.000670524 0.00920852 0)
(-0.000829334 0.0121541 0)
(0.00172552 0.0136585 0)
(0.00155373 0.0128247 0)
(0.001732 0.012776 0)
(0.000591956 0.00934379 0)
(0.00147195 0.00781502 0)
(-0.000249219 0.00682787 0)
(0.000711841 0.00628267 0)
(7.85958e-06 0.00677717 0)
(0.00200493 0.00418169 0)
(0.00465209 0.0202724 0)
(-0.00410155 0.0191344 0)
(-0.00138336 0.00679032 0)
(-0.000994215 0.00635596 0)
(-0.00193277 0.00705702 0)
(-0.00012568 0.00832029 0)
(-0.00170277 0.00972899 0)
(-0.000802032 0.0127744 0)
(-0.00152865 0.0138178 0)
(-5.70397e-05 0.0131571 0)
(0.000529654 0.0141955 0)
(0.000225524 0.0141221 0)
(0.000949977 0.0152474 0)
(0.000276088 0.0165108 0)
(0.00180675 0.0167915 0)
(0.000635367 0.0172157 0)
(-0.000980724 0.0156939 0)
(0.000759079 0.0138514 0)
(-0.00036871 0.0157103 0)
(0.00104368 0.0152725 0)
(-0.00124664 0.0162054 0)
(-0.000630197 0.0153544 0)
(-0.000525698 0.0158516 0)
(-0.000913308 0.0165323 0)
(0.000190622 0.0172449 0)
(0.00018957 0.0171121 0)
(0.00137198 0.018661 0)
(-2.96814e-05 0.0194657 0)
(0.0010998 0.0162088 0)
(0.00207311 0.0155811 0)
(0.00263803 0.0123085 0)
(0.00554762 0.0215126 0)
(-0.00476489 0.0172514 0)
(-8.6917e-05 0.00254141 0)
(1.17096e-05 0.0050133 0)
(1.99148e-06 0.00543149 0)
(0.000252993 0.00664581 0)
(-0.000130831 0.00675486 0)
(-0.000573715 0.00726846 0)
(-0.00166292 0.00914745 0)
(-0.00160706 0.0106539 0)
(-0.000234446 0.0122584 0)
(0.000179007 0.0118431 0)
(0.000109592 0.0108014 0)
(-0.000185537 0.0102137 0)
(-0.0010353 0.00915984 0)
(-0.00129242 0.00948644 0)
(-0.00148006 0.00913695 0)
(-0.000861964 0.0116572 0)
(-5.91167e-05 0.0118273 0)
(-0.000785824 0.011327 0)
(6.50462e-05 0.0124634 0)
(0.000248448 0.0121717 0)
(0.000170585 0.0125068 0)
(-0.000390445 0.0119072 0)
(0.000512559 0.0109202 0)
(-0.000391776 0.0123546 0)
(-0.0121702 -0.000225113 0)
(0.00340335 0.00223449 0)
(0.000982529 -0.0042118 0)
(-0.00121486 0.00166322 0)
(-0.00217034 0.00341871 0)
(-0.000846632 0.00836581 0)
(-0.00257184 -0.00504219 0)
(-0.00324383 0.00334653 0)
(-0.0054804 0.00425993 0)
(0.000770444 0.00832266 0)
(0.00116519 0.00629022 0)
(-0.00340633 0.00684922 0)
(-0.0011138 0.00570781 0)
(0.00116448 0.00522439 0)
(-0.000649479 0.00534693 0)
(0.0030473 0.00611549 0)
(0.0019515 0.00935255 0)
(0.00348947 0.0102182 0)
(0.00390453 0.0164596 0)
(-0.00458777 0.0154716 0)
(-0.00306436 0.0132705 0)
(-0.00149012 0.0103756 0)
(-0.000648795 0.0109286 0)
(-0.000243457 0.0110268 0)
(0.000671488 0.00906474 0)
(0.000940477 0.0117272 0)
(-0.000296275 0.0105739 0)
(-0.000277565 0.0107642 0)
(-0.00212379 0.00926133 0)
(-0.00176717 0.00939304 0)
(-0.00202683 0.00948494 0)
(-0.00191809 0.0108659 0)
(-0.00184523 0.0131106 0)
(-0.00226995 0.0129029 0)
(-0.00121522 0.0144196 0)
(0.000216448 0.0106719 0)
(0.00185524 0.00926131 0)
(0.00267005 0.00798189 0)
(0.00101384 0.00694261 0)
(0.000944345 0.00949919 0)
(-4.75534e-05 0.00947352 0)
(9.9454e-05 0.0119883 0)
(-0.00154305 0.0148033 0)
(-0.00158874 0.0161391 0)
(-0.00217958 0.0201472 0)
(0.000228275 0.0238013 0)
(0.000789156 0.0255928 0)
(0.00298917 0.0260776 0)
(0.00534195 0.0260333 0)
(0.00872458 0.0268523 0)
(-0.00225652 0.0235997 0)
(-0.00153302 0.017565 0)
(-0.000478368 0.0154082 0)
(-0.0014134 0.0170751 0)
(-0.000290352 0.0190217 0)
(-0.000855175 0.0171298 0)
(-0.00223246 0.0142078 0)
(-0.000893422 0.0142922 0)
(-0.00238597 0.0143068 0)
(-5.03246e-05 0.0146029 0)
(0.000767889 0.0147919 0)
(0.00302534 0.0153637 0)
(0.00300442 0.0142552 0)
(0.000977898 0.0108107 0)
(-0.000541308 0.0100688 0)
(-0.000467532 0.00712692 0)
(-0.000294924 0.00919145 0)
(-0.000846216 0.00897704 0)
(0.00026378 0.009453 0)
(0.000747919 0.0110531 0)
(-0.000327144 0.00990529 0)
(0.000143507 0.00973388 0)
(-0.00174657 0.0112325 0)
(-0.000675501 0.0124462 0)
(-0.000475519 0.0124109 0)
(0.00320253 -0.0282244 0)
(0.000645684 -0.000958587 0)
(-0.000604203 -0.0101328 0)
(-0.0035925 -0.0071877 0)
(0.00120122 -0.00741474 0)
(-0.0084864 -0.00371605 0)
(-0.00295058 -0.0133972 0)
(-0.00577744 -0.009787 0)
(-0.00344136 -0.000512652 0)
(0.00146068 0.00276461 0)
(0.00124532 -0.0100665 0)
(-0.00158643 -0.0100385 0)
(-0.00241812 -0.00759875 0)
(0.00120018 -0.0119338 0)
(-0.000156307 -0.00803398 0)
(0.000908728 -0.00521367 0)
(-0.00102295 -0.00341816 0)
(0.00103775 -0.00300715 0)
(0.000759563 0.00167093 0)
(-0.00166981 0.00123522 0)
(-0.00265696 -0.000599836 0)
(-0.00153348 -0.000555755 0)
(-0.000958483 -0.000977002 0)
(-0.00145872 0.000324015 0)
(0.000156808 0.00173334 0)
(-0.00106541 0.00256405 0)
(-0.00094941 0.00352469 0)
(0.00228219 0.00337376 0)
(9.85326e-05 0.00304304 0)
(0.00105021 0.00351161 0)
(-0.00080632 0.00193194 0)
(-0.00134661 0.00253118 0)
(-0.0019554 0.0015839 0)
(-0.00109792 0.00139898 0)
(-0.0008182 0.0022049 0)
(0.00206847 0.000408604 0)
(0.00426729 -0.00192996 0)
(0.00232017 -0.00393977 0)
(0.00101222 -0.00292838 0)
(-0.00256824 -0.000705879 0)
(-0.00465386 0.0022333 0)
(-0.00268607 0.00322099 0)
(-0.00808491 0.0049153 0)
(-0.00456754 0.0028493 0)
(-0.00549893 0.00498968 0)
(-0.00202203 0.00907373 0)
(-0.000851166 0.00937416 0)
(0.00305224 0.0153008 0)
(0.00540129 0.0172194 0)
(0.00576797 0.0175213 0)
(0.00263236 0.0149001 0)
(-0.000238833 0.0138125 0)
(-0.000184829 0.0132225 0)
(2.63635e-05 0.0104531 0)
(0.00112292 0.0111928 0)
(0.00162272 0.00788262 0)
(0.000864244 0.00788707 0)
(0.000933277 0.00625563 0)
(-0.00281285 0.00501527 0)
(-0.000666578 0.00772206 0)
(0.000557123 0.0080777 0)
(0.00225934 0.00871308 0)
(0.000742189 0.0055997 0)
(0.00340629 0.00497055 0)
(0.000973701 0.00477385 0)
(-0.000165703 0.00427749 0)
(-0.00131283 0.00420398 0)
(-0.00212651 0.00480196 0)
(-0.00145946 0.00566465 0)
(-0.000848186 0.00549943 0)
(0.000868784 0.00669636 0)
(-0.000429296 0.00749101 0)
(0.000743218 0.00671604 0)
(-0.000228057 0.00536282 0)
(-0.000380941 0.00428384 0)
(0.00527311 -0.0100271 0)
(-0.00154549 0.00721779 0)
(0.00353897 -0.00622959 0)
(-0.00169609 -0.0039614 0)
(-0.000871559 -0.00898798 0)
(-0.00617592 -0.00788033 0)
(-0.00300787 -0.0136176 0)
(-0.00090728 -0.0103054 0)
(0.00279066 -0.00129202 0)
(-0.0030018 -0.000843719 0)
(-0.00389982 -0.0108113 0)
(-0.000345536 -0.01237 0)
(-0.00358204 -0.0102305 0)
(-0.00176787 -0.0102375 0)
(-0.00313647 -0.0105763 0)
(-0.0019898 -0.00704796 0)
(-0.00159765 -0.00640244 0)
(-0.000794812 -0.00808487 0)
(-0.000270753 -0.00471737 0)
(-0.00250341 -0.00492835 0)
(-0.0027735 -0.00364106 0)
(-0.00304323 -0.00459859 0)
(-0.00217185 -0.00416934 0)
(-0.00299103 -0.00316673 0)
(-0.000641709 -0.00595069 0)
(-0.00122846 -0.0068928 0)
(-0.000840779 -0.004019 0)
(0.000217414 -0.00476907 0)
(-0.000339605 -0.00620351 0)
(-0.00110752 -0.00430974 0)
(-0.00105641 -0.00644384 0)
(-0.00278011 -0.00489117 0)
(-0.000269189 -0.00434406 0)
(-0.00258674 -0.00716976 0)
(-0.00294073 -0.00560145 0)
(0.00690968 -0.00431719 0)
(0.00633175 -0.00690007 0)
(0.00310674 -0.00703895 0)
(0.000362454 -0.00478307 0)
(-0.00553201 -0.00287749 0)
(-0.00875489 0.0011361 0)
(-0.00097271 -0.00161385 0)
(-0.00236438 -0.00340758 0)
(-0.00153932 -0.005157 0)
(-0.00147753 -0.00743579 0)
(-0.00636774 -0.00349945 0)
(-0.00550618 -0.00432475 0)
(0.000927372 -0.00115816 0)
(0.00191292 -0.000213967 0)
(0.00583884 0.00165527 0)
(0.00345226 0.00153127 0)
(0.00528495 0.00139392 0)
(0.000557451 0.00110824 0)
(0.00231972 0.000444178 0)
(0.00104974 0.00124014 0)
(0.00110449 -0.0012333 0)
(-0.000715556 -0.00141972 0)
(0.00124002 -0.00140486 0)
(-0.003281 0.00155222 0)
(0.00207756 0.00285697 0)
(0.00271712 -0.00161688 0)
(0.00142595 -0.00573962 0)
(0.00353178 -0.00208895 0)
(0.00248096 -0.00142152 0)
(0.00105049 -0.00275975 0)
(0.000945915 -0.000341981 0)
(-0.00118997 -0.000996605 0)
(-0.000903586 -0.00149215 0)
(-0.00301803 -0.000712645 0)
(-0.00338443 0.00163796 0)
(0.000802934 -0.000362945 0)
(0.000576954 -5.61668e-05 0)
(0.00112772 0.0018484 0)
(0.00203499 0.00165019 0)
(0.00143364 0.00369631 0)
(0.00314928 -0.0130954 0)
(0.0091495 0.0059635 0)
(-0.00065621 2.17918e-06 0)
(-0.00424032 -0.00424698 0)
(-0.00196861 -0.005693 0)
(-0.00328274 0.000339764 0)
(-0.00208006 -0.00215926 0)
(0.00162861 0.00169331 0)
(0.0018388 0.00265419 0)
(-0.00388428 0.0033122 0)
(-0.00510729 -0.000592411 0)
(-0.00339565 -0.00248934 0)
(-0.000801473 -0.00180253 0)
(-0.00198658 -0.0051173 0)
(-0.00167968 -0.00543419 0)
(-0.00285902 -0.00403361 0)
(-0.000971106 -0.00594667 0)
(-0.00162351 -0.00579286 0)
(-0.00361304 -0.00230132 0)
(-0.00117775 -0.00245853 0)
(-0.00217596 -0.00461538 0)
(-0.00210866 -0.00563279 0)
(-0.000615872 -0.00723407 0)
(-0.000942673 -0.00602884 0)
(3.2393e-05 -0.00762111 0)
(0.00088862 -0.0117378 0)
(0.00273325 -0.0112599 0)
(-0.00139685 -0.0122891 0)
(0.00119375 -0.0103773 0)
(0.00012203 -0.00744231 0)
(-0.000470039 -0.00923078 0)
(0.000498625 -0.00727998 0)
(-0.00050073 -0.00727527 0)
(0.00183249 -0.0081325 0)
(0.00178242 0.00305043 0)
(0.00181657 0.00274691 0)
(-0.000226926 -0.00315958 0)
(-0.000324839 -0.00140001 0)
(-0.00245153 0.0015253 0)
(-0.0043233 -0.00128582 0)
(-0.003808 0.00474207 0)
(-0.00388824 0.000895624 0)
(-0.000882703 -0.00775238 0)
(-0.00429955 -0.00887051 0)
(-0.00539671 -0.0112675 0)
(-0.00544044 -0.0131309 0)
(-0.00206188 -0.0119258 0)
(-0.00021416 -0.0120064 0)
(0.001731 -0.0130273 0)
(0.0030013 -0.00982469 0)
(0.00106859 -0.00857784 0)
(0.00364816 -0.00694911 0)
(0.000955694 -0.0062985 0)
(0.00295511 -0.00460726 0)
(0.00145377 -0.00605829 0)
(0.00200771 -0.00984176 0)
(0.00202696 -0.0070207 0)
(0.00330254 -0.00857049 0)
(0.000438908 -0.00506943 0)
(0.000189983 -0.00087905 0)
(0.00209787 -0.0124487 0)
(0.00150265 -0.0124723 0)
(0.00125127 -0.00890473 0)
(-0.00101375 -0.00760676 0)
(0.000657639 -0.00385193 0)
(0.000657209 -0.00306218 0)
(-6.58359e-05 -0.00157249 0)
(-0.00171136 -0.000659696 0)
(-0.0032327 0.000524814 0)
(-0.00628113 0.00380236 0)
(0.00164189 0.00320256 0)
(0.000366416 -5.97477e-05 0)
(-0.0010454 -0.000217309 0)
(0.000725099 0.000343774 0)
(-0.00229101 0.00218934 0)
(0.00440094 -0.00887899 0)
(0.00965186 0.00457449 0)
(-0.00672349 -0.00474614 0)
(-0.00619523 -0.00230779 0)
(-0.00398352 -0.00601223 0)
(-0.00457955 -0.00449057 0)
(-0.0028264 -0.00526086 0)
(-0.000588874 0.000102518 0)
(0.000243903 0.000832645 0)
(-0.000549967 0.000977775 0)
(-0.00261098 0.000658536 0)
(-0.00359323 0.00155587 0)
(0.00312905 0.000332154 0)
(-0.00131952 -0.00278143 0)
(-0.000803107 -0.00495635 0)
(-0.00212272 -0.00297444 0)
(-0.00160995 -0.00421232 0)
(-0.000742549 -0.0108258 0)
(-0.000244578 -0.00521908 0)
(-0.00192431 -0.00593956 0)
(-0.000313339 -0.00868445 0)
(-0.00133614 -0.00831848 0)
(-0.000358811 -0.00745275 0)
(0.000784071 -0.00590219 0)
(-9.78066e-05 -0.00582185 0)
(0.00110472 -0.0040966 0)
(-0.000894541 -0.00384439 0)
(0.000111967 -0.00338391 0)
(-0.000640123 -0.00135896 0)
(-0.00305469 0.000127438 0)
(-0.00414823 0.00138851 0)
(-0.00245715 0.00227688 0)
(-0.0022875 0.00298307 0)
(-0.00139082 0.00478087 0)
(0.00333237 0.00964632 0)
(-0.00274585 0.0103793 0)
(-0.00156425 0.00802604 0)
(-0.000130506 0.00654708 0)
(4.55933e-05 0.00220473 0)
(0.00182886 0.00125852 0)
(0.00513431 0.001357 0)
(-0.00580808 -0.00278397 0)
(-0.00121828 -0.00593377 0)
(-0.00456228 -0.0112159 0)
(-0.00128049 -0.0122378 0)
(-0.000578779 -0.0109093 0)
(0.00123965 -0.0127623 0)
(-0.00160577 -0.0144456 0)
(-0.000143391 -0.0154403 0)
(-0.000511332 -0.0142278 0)
(0.00182768 -0.00942461 0)
(0.000257151 -0.00825812 0)
(-0.00181363 -0.00653492 0)
(0.00516156 -0.00391292 0)
(-0.00168846 -0.00463473 0)
(0.00771507 -0.00579959 0)
(0.00265919 -0.00600742 0)
(0.00272157 -0.00859214 0)
(0.00560164 -0.0096884 0)
(-0.00275588 -0.00389764 0)
(-0.00153459 -0.0077067 0)
(0.000708711 -0.00991502 0)
(-0.00251282 -0.00750332 0)
(0.000923975 -0.00556427 0)
(-0.00103382 -0.00488527 0)
(-0.00224545 -0.00118397 0)
(-0.00216077 0.000923146 0)
(-0.00226514 0.00167417 0)
(-0.00194037 -0.000357602 0)
(-0.00137795 0.00856861 0)
(-0.000496093 0.00716837 0)
(-0.00128806 -0.00359432 0)
(-0.00226312 -0.0016797 0)
(0.00307034 -0.00117955 0)
(0.000679724 -0.00325341 0)
(0.00141806 -0.0129644 0)
(0.00415635 0.00128599 0)
(-0.00297908 0.000374963 0)
(-0.0014863 -0.000321353 0)
(-0.00446585 -0.0040772 0)
(-0.00574373 -0.00256094 0)
(-0.00535546 -0.00339884 0)
(-0.00438508 -0.000538802 0)
(-0.00252395 -0.000137126 0)
(-0.000941458 0.00106474 0)
(-0.000776739 -0.00232652 0)
(-0.00126829 0.00720303 0)
(0.000859983 0.00667476 0)
(-0.000481389 -0.00257511 0)
(-6.90859e-05 -0.00111534 0)
(0.00211934 -0.000253408 0)
(-0.002375 -0.00198959 0)
(-0.000783664 -0.00265861 0)
(-0.00020072 -0.00195521 0)
(-0.00364879 -0.00217527 0)
(-0.00268342 -0.00222174 0)
(-0.00360456 -0.00159118 0)
(-0.0013854 -0.00125868 0)
(-0.00204617 9.00768e-05 0)
(-0.00159951 0.000765418 0)
(-0.00198184 -0.0011088 0)
(-0.00121071 0.00197941 0)
(-0.00139615 0.00235276 0)
(0.000391335 7.25192e-05 0)
(-0.000767217 0.00130393 0)
(-0.00179968 -0.0027398 0)
(-0.00128731 -0.00559193 0)
(-0.00110029 -0.0104946 0)
(-0.000280743 -0.00768558 0)
(-0.00025653 -0.00655666 0)
(0.000646739 -0.0120459 0)
(0.00114139 -0.0111645 0)
(0.000669654 -0.0111478 0)
(-0.000263327 -0.0104189 0)
(0.00377936 -0.00896611 0)
(0.000300452 -0.0087446 0)
(-0.000516208 -0.00555197 0)
(0.000463356 -0.00579953 0)
(-0.000694645 -0.00999123 0)
(0.00289722 -0.00973735 0)
(-0.00113461 -0.0104143 0)
(-0.00261272 -0.00951683 0)
(-0.00365811 -0.0104764 0)
(-0.00180434 -0.0103258 0)
(-0.000205321 -0.00942635 0)
(-0.000102108 -0.0103552 0)
(0.000507163 -0.0136117 0)
(0.00119528 -0.00276216 0)
(0.00136749 -0.00653958 0)
(0.00142579 -0.00674248 0)
(0.00201575 -0.00763152 0)
(0.00242831 -0.0135591 0)
(0.00154945 -0.00811844 0)
(0.00265455 -0.012658 0)
(-0.000180632 -0.00856959 0)
(-0.00121009 -0.006985 0)
(-0.00121894 -0.00877442 0)
(0.000337402 -0.00606681 0)
(-0.00287415 -0.00427582 0)
(-0.00263931 -0.00597241 0)
(-0.00334621 -0.00281408 0)
(-0.0037516 -0.00141261 0)
(-0.0042236 -0.00186574 0)
(-0.00133976 -0.00219387 0)
(0.00620341 -0.000486986 0)
(-0.00306018 -0.00277309 0)
(-0.00224572 -0.00824651 0)
(-0.00465058 -0.00455824 0)
(0.00438083 -0.00476267 0)
(0.00181799 -0.011546 0)
(0.00137909 -0.0155148 0)
(-0.00644965 0.0016669 0)
(-0.00414761 -0.000735669 0)
(-0.00129008 0.00131692 0)
(-0.00443048 -0.00106679 0)
(-0.00428092 0.00216374 0)
(-0.00319046 -0.000434316 0)
(-0.003502 0.000986845 0)
(-0.0028989 0.000301315 0)
(-0.000619796 0.000602878 0)
(0.00108624 -0.001813 0)
(0.00464166 0.002984 0)
(-0.00357946 0.00388289 0)
(-0.00207184 0.000736716 0)
(-0.00121478 0.00359297 0)
(-0.00112362 0.00326725 0)
(-0.00307389 0.00360783 0)
(-0.00154368 0.00269303 0)
(-0.00142473 0.00176337 0)
(-0.00185949 0.000146419 0)
(-0.000608384 -8.81333e-05 0)
(-0.000706209 -0.000325806 0)
(-0.00122473 -0.000442464 0)
(-0.000527329 -0.000670808 0)
(-0.00222375 -0.000879942 0)
(-0.00348713 -0.00119305 0)
(0.000615788 -0.00245963 0)
(-0.00506855 -0.00166833 0)
(0.0056914 -0.000610591 0)
(0.00290112 -0.00527829 0)
(0.00133036 -0.00662623 0)
(0.00168914 -0.00688797 0)
(7.59918e-05 -0.00714669 0)
(0.00168733 -0.00715562 0)
(0.000137173 -0.0043958 0)
(0.000115238 -0.00586342 0)
(-0.000864957 -0.00895482 0)
(-0.00078637 -0.00950244 0)
(-0.0012877 -0.0081161 0)
(0.000349386 -0.00734112 0)
(0.000403328 -0.0117114 0)
(0.00109878 -0.00969352 0)
(-0.000638939 -0.011688 0)
(-0.000708457 -0.0116934 0)
(-0.00131697 -0.010923 0)
(-0.00166011 -0.012336 0)
(-0.000996467 -0.0104698 0)
(-0.00131487 -0.0100571 0)
(-0.000261516 -0.0111977 0)
(0.000716615 -0.0133317 0)
(0.00146859 -0.010461 0)
(0.00269563 -0.0106574 0)
(0.00492657 -0.0108074 0)
(0.00189254 -0.00878736 0)
(0.00543217 -0.00852634 0)
(-0.00138997 -0.00903645 0)
(0.00305979 -0.00945358 0)
(-0.00127268 -0.00941113 0)
(-0.00228266 -0.00874655 0)
(-0.00519678 -0.0031225 0)
(0.00111692 -0.00467338 0)
(-0.00156043 -0.00552096 0)
(-0.00152671 -0.00614832 0)
(-0.00643187 -0.00651025 0)
(-0.00313768 -0.00463844 0)
(-0.00197645 -0.00550146 0)
(-0.00480474 -0.00627842 0)
(-0.00749748 -0.00516455 0)
(0.00157813 0.00067595 0)
(0.00751362 -0.00311707 0)
(0.00267232 -0.0108093 0)
(0.000786253 -0.0143153 0)
(0.00309912 -0.00574571 0)
(-0.000539887 -0.00814251 0)
(0.00580066 -0.0192518 0)
(0.00395548 -0.013123 0)
(0.0082845 -0.00145473 0)
(0.00187254 0.000330207 0)
(-0.000485342 -0.00127077 0)
(-0.00689348 -0.00501366 0)
(-0.00706821 0.00360551 0)
(-0.00136506 7.70263e-05 0)
(-0.00369793 0.000123708 0)
(-0.00206549 0.00141461 0)
(-0.000714293 0.00507306 0)
(-0.000201852 0.0037417 0)
(0.000544613 0.00513035 0)
(-0.00360181 0.00524573 0)
(-0.00101758 0.00482775 0)
(-0.000352234 0.00513338 0)
(0.000110643 0.00306291 0)
(-7.27196e-05 0.00140816 0)
(-0.000105489 0.000208713 0)
(-9.58432e-05 -0.00170816 0)
(-0.00137071 -0.00243695 0)
(-0.000263675 -0.00238892 0)
(-0.000396983 -0.00513147 0)
(-0.00224605 -0.00453698 0)
(-0.00142516 -0.0054077 0)
(-0.00251368 -0.00732892 0)
(-0.0034562 -0.00586969 0)
(0.00285044 -0.0103848 0)
(0.00128646 -0.00549207 0)
(0.000837052 -0.00556416 0)
(0.000107164 -0.017691 0)
(-0.000545591 -0.0130811 0)
(-0.000321463 -0.0117086 0)
(-0.0013947 -0.0119998 0)
(-0.00453254 -0.00751558 0)
(0.00501638 -0.00580445 0)
(0.000239911 -0.00823 0)
(0.00118409 -0.00910143 0)
(0.00204872 -0.00972477 0)
(0.00308014 -0.00907505 0)
(0.00172293 -0.00791389 0)
(0.00166799 -0.00916691 0)
(0.00193852 -0.00678998 0)
(-0.00106362 -0.00713676 0)
(-0.00078009 -0.0075304 0)
(-0.000846094 -0.00794017 0)
(0.00043494 -0.00929948 0)
(-0.00226066 -0.00974029 0)
(-0.00227782 -0.0109553 0)
(-0.00236866 -0.0106239 0)
(-0.00300218 -0.0104765 0)
(0.00257667 -0.010952 0)
(0.000103897 -0.0118067 0)
(0.00310803 -0.0062193 0)
(0.00144028 -0.00630925 0)
(0.00144268 -0.00709452 0)
(0.000297143 -0.00486787 0)
(0.000437567 -0.00639516 0)
(-0.000555421 -0.00540635 0)
(0.000276943 -0.00852448 0)
(-0.00129465 0.000741333 0)
(-0.00207185 -0.000165438 0)
(-0.00347643 -0.0122259 0)
(-0.0020784 -0.0145048 0)
(-0.00506472 -0.0135244 0)
(-0.00601654 -0.0128278 0)
(0.00135064 -0.0184879 0)
(0.00154669 -0.0210905 0)
(-0.00256889 -0.00931927 0)
(0.00701345 -0.000515033 0)
(0.00151652 -0.0119732 0)
(0.00119877 -0.0213833 0)
(0.00331765 -0.0214745 0)
(0.00490427 -0.0201876 0)
(-0.00186529 -0.0185322 0)
(0.000470004 -0.0185749 0)
(0.00595484 -0.0105497 0)
(0.00562377 -0.00832491 0)
(0.0034443 -0.011159 0)
(-0.00348985 -0.0053729 0)
(-0.00340632 -0.00915805 0)
(-0.00458092 0.00523955 0)
(-0.00614647 -0.00027937 0)
(-0.00913377 -0.00289832 0)
(-0.00954056 0.00142946 0)
(-0.000446279 0.0010169 0)
(-0.00140149 -0.00137737 0)
(-0.00139222 -0.00164998 0)
(-0.000692991 -0.000607733 0)
(9.56076e-05 -0.00103288 0)
(3.19442e-06 -0.000416559 0)
(0.00264487 -0.00265654 0)
(5.18114e-05 -0.00247932 0)
(0.00139954 -0.00154195 0)
(-0.000603298 -0.00193843 0)
(0.00328873 -0.00175414 0)
(-0.002222 -0.0042041 0)
(-0.000331547 -0.00812776 0)
(0.00219354 -0.0119419 0)
(0.00108795 -0.0157307 0)
(0.00203566 -0.0178133 0)
(0.0017487 -0.0081292 0)
(0.00288845 -0.00851186 0)
(0.00601469 -0.0150967 0)
(-0.00256611 -0.0131103 0)
(0.000546407 -0.0146614 0)
(0.00104348 -0.0123819 0)
(4.91435e-05 -0.0120795 0)
(-0.000357175 -0.0147281 0)
(-0.00133636 -0.00450097 0)
(-0.00152713 -0.00301448 0)
(-0.00318364 -0.0116717 0)
(3.09382e-05 -0.00921959 0)
(-0.000414005 -0.00871569 0)
(-0.00128965 -0.0081053 0)
(-4.17935e-05 -0.00622808 0)
(0.00115577 -0.0053053 0)
(0.00134396 -0.00413957 0)
(-0.000600749 -0.00577204 0)
(-0.00219477 -0.00422116 0)
(0.00345192 -0.0030647 0)
(0.00149633 -0.00615817 0)
(-7.39205e-05 -0.00817414 0)
(-0.00267189 -0.00771456 0)
(0.00180093 -0.011832 0)
(-0.000419461 -0.00960588 0)
(0.00048749 -0.0074012 0)
(0.00196735 -0.0101857 0)
(0.00344752 -0.00797307 0)
(-0.000220417 -0.00772325 0)
(0.00114742 -0.00647616 0)
(0.00104138 -0.00543793 0)
(-0.000346132 -0.00448777 0)
(0.000848399 -0.00473518 0)
(0.00109188 -0.00527835 0)
(0.00508646 -0.00279361 0)
(-0.0035792 -0.00618008 0)
(-0.00135072 -0.00854749 0)
(0.000151602 -0.0124167 0)
(0.00251299 -0.0188542 0)
(0.000243226 -0.0102685 0)
(0.00168809 -0.0145555 0)
(0.00125706 -0.0291482 0)
(7.00898e-05 -0.0181617 0)
(-0.00127289 -0.0109588 0)
(-0.00407906 -0.0220719 0)
(0.00131878 -0.0197793 0)
(0.0051866 -0.018865 0)
(0.00424736 -0.0171184 0)
(0.00133203 -0.014017 0)
(-0.000470273 -0.0138249 0)
(0.00146752 -0.0132074 0)
(-0.00441629 -0.00516955 0)
(0.00048037 -0.0107128 0)
(-0.00216195 -0.00880982 0)
(0.000332262 -0.00872982 0)
(-0.00410019 -0.0025136 0)
(-0.011562 -0.00596917 0)
(-0.0101224 -0.00883343 0)
(-0.00186695 -0.00259592 0)
(-0.00254011 -0.00656982 0)
(-0.00176312 -0.0173031 0)
(-0.000784307 -0.0147566 0)
(-0.00354568 -0.0122239 0)
(-0.00188191 -0.0101723 0)
(0.000690686 -0.00853242 0)
(0.00309497 -0.0137275 0)
(0.000812201 -0.0162899 0)
(-0.000991899 -0.0153537 0)
(-0.00300696 -0.0151074 0)
(0.00703285 -0.0165939 0)
(0.00233577 -0.0211098 0)
(0.00385749 -0.0179754 0)
(0.00242992 -0.0169612 0)
(0.001065 -0.0176743 0)
(0.00291477 -0.0156162 0)
(0.00429389 -0.00994514 0)
(-0.00279684 -0.00749847 0)
(-0.000423649 -0.0100488 0)
(-0.00198128 -0.00855696 0)
(-0.00112816 -0.00927417 0)
(-0.00205301 -0.00920887 0)
(-0.00212773 -0.00842817 0)
(-0.000565132 -0.00879906 0)
(0.00321022 -0.00570334 0)
(-0.00657418 -0.00538161 0)
(-0.0066974 -0.00520709 0)
(0.00384015 -0.00578299 0)
(-0.000431592 -0.0104184 0)
(0.000348246 -0.00951572 0)
(-0.00359065 -0.00626165 0)
(0.00391744 -0.00677787 0)
(0.00257624 -0.00632609 0)
(-2.39534e-05 -0.00750805 0)
(7.6018e-05 -0.00104353 0)
(0.000400187 -0.0021553 0)
(-0.00107958 -0.00970901 0)
(-0.000198076 -0.0106011 0)
(-0.00164707 -0.00779113 0)
(-0.000842649 -0.00758318 0)
(-4.01671e-05 -0.0105365 0)
(-0.000116445 -0.00693464 0)
(-0.000641433 -0.0073712 0)
(-6.65491e-05 -0.00594125 0)
(0.000586751 -0.00699507 0)
(-2.01057e-05 -0.00421037 0)
(0.000135418 -0.00423433 0)
(-0.00244078 -0.00392305 0)
(0.000743158 -0.00142757 0)
(-0.000705064 -0.00272262 0)
(0.00378729 -0.00093846 0)
(0.00116565 -0.00162634 0)
(0.00334453 -0.00274187 0)
(0.00158828 -0.0046741 0)
(0.00423537 -0.00281644 0)
(0.00367992 0.00126476 0)
(0.00511089 0.00134746 0)
(0.00415364 -0.00783051 0)
(0.00588555 -0.00768877 0)
(-0.00525828 -0.0114363 0)
(-0.00466317 -0.0209839 0)
(-0.00302572 -0.020754 0)
(-0.00215824 -0.0200375 0)
(-0.000268885 -0.0185573 0)
(-0.00260818 -0.0134248 0)
(0.000633818 -0.0141178 0)
(0.00100772 -0.0194861 0)
(0.00142124 -0.00456883 0)
(-0.00249886 -0.0108789 0)
(-0.00185265 -0.0061288 0)
(-0.00348665 -0.00936221 0)
(-0.00431641 -0.00807148 0)
(-0.00321467 -0.0133739 0)
(-0.000888408 -0.00587404 0)
(0.000257294 -0.00477658 0)
(-0.00555406 -0.0145759 0)
(-0.00374405 -0.0165025 0)
(-0.00520375 -0.0182171 0)
(-0.00253921 -0.0147831 0)
(-0.000664748 -0.00632679 0)
(0.0032436 -0.00519195 0)
(0.00222944 -0.0132339 0)
(0.00470632 -0.0187167 0)
(0.00127213 -0.0192524 0)
(0.00394712 -0.00656307 0)
(0.00182637 -0.00618692 0)
(0.000386785 -0.0152361 0)
(0.000606163 -0.011541 0)
(-0.00124756 -0.0119298 0)
(-0.00144933 -0.00934236 0)
(-0.00147485 -0.00809862 0)
(-0.00154029 -0.0100444 0)
(-0.00198459 -0.00819453 0)
(-0.0010806 -0.00771452 0)
(0.000154535 -0.0086735 0)
(0.00068924 -0.0108675 0)
(0.000274035 -0.00985786 0)
(0.000397905 -0.00762468 0)
(0.000134234 -0.00691466 0)
(0.00116262 -0.00745325 0)
(-0.00165315 -0.00929841 0)
(-0.000255875 -0.000361532 0)
(-2.74865e-05 -0.00152157 0)
(-0.00137105 -0.0120668 0)
(-0.00135557 -0.0120631 0)
(-0.00135263 -0.00405851 0)
(-0.00299398 -0.00139927 0)
(0.00164908 -0.0103461 0)
(0.00146757 -0.0103666 0)
(0.00348732 -0.00505055 0)
(-0.00279423 -0.00562817 0)
(-0.00122909 -0.00780274 0)
(-0.000763772 -0.00970023 0)
(0.00121751 -0.00851768 0)
(-0.00155073 -0.00867142 0)
(-0.002149 -0.00685307 0)
(0.00161638 -0.00624349 0)
(-2.47286e-05 -0.00772105 0)
(0.000651724 -0.00462342 0)
(0.000701101 -0.00583682 0)
(0.0012445 -0.00502232 0)
(-0.000991562 -0.00682863 0)
(0.00023421 -0.0063658 0)
(-0.00219676 -0.00527663 0)
(-0.00390822 -0.0059865 0)
(0.00441184 -0.00326842 0)
(0.00217174 -0.00578318 0)
(0.00229793 -0.00495752 0)
(0.0025597 -0.00770943 0)
(0.00435473 -0.00784307 0)
(0.00402484 0.00390086 0)
(0.00281188 0.00463071 0)
(0.0049355 -0.00404018 0)
(0.00836845 -0.00193693 0)
(0.00374201 -0.000787242 0)
(0.00142927 -0.00423544 0)
(0.00130476 -0.00603237 0)
(-0.00160363 -0.00748379 0)
(-0.000774632 -0.00982836 0)
(2.47282e-05 -0.00708744 0)
(-0.00156604 -0.00968973 0)
(0.00326628 -0.0144279 0)
(-0.000748638 -0.00689768 0)
(0.000372251 -0.0075902 0)
(-0.000222852 -0.00770759 0)
(-0.00112661 -0.013487 0)
(-0.000675315 -0.0129186 0)
(-0.000561141 -0.0134862 0)
(0.00122507 -0.00990172 0)
(-0.0109473 -0.00608795 0)
(-0.00131182 -0.00866022 0)
(-0.00197462 -0.0169663 0)
(-0.00169696 -0.01486 0)
(0.00107324 -0.0137769 0)
(-0.00382932 -0.0132563 0)
(0.00121461 -0.0120454 0)
(-0.00235996 -0.0160445 0)
(0.00117176 -0.0163487 0)
(0.00182085 -0.0126277 0)
(0.00456128 -0.00779235 0)
(-0.00251371 -0.0100878 0)
(-0.00134311 -0.0105055 0)
(-0.000121008 -0.0087152 0)
(9.25192e-05 -0.00965265 0)
(0.00192543 -0.00770421 0)
(0.00127841 -0.00813429 0)
(0.000991786 -0.00630919 0)
(-0.0008893 -0.0045002 0)
(-0.0047672 -0.00481407 0)
(0.00248611 -0.00237941 0)
(-0.000349447 -0.00486565 0)
(-0.00139155 -0.00580572 0)
(-0.00117071 -0.00435839 0)
(-0.00168573 -0.00301046 0)
(-0.000385072 -0.00369303 0)
(0.000580892 -0.00447348 0)
(0.00304458 -0.00121406 0)
(-0.00472449 -0.001095 0)
(-0.000341022 -0.00693926 0)
(-0.000819155 -0.00643469 0)
(0.00520542 -0.00762914 0)
(-0.0043463 -0.00660831 0)
(-0.00255865 -0.00639662 0)
(0.00178329 -0.00970026 0)
(0.000899288 -0.00777807 0)
(-0.000550158 -0.00753509 0)
(-0.00149083 -0.00823433 0)
(-0.00182094 -0.00778079 0)
(-0.000729217 -0.00724098 0)
(-0.00164061 -0.0102863 0)
(-0.00157781 -0.00834736 0)
(0.00148564 -0.00710087 0)
(-0.000406854 -0.0115937 0)
(-0.000938402 -0.00826162 0)
(0.000113083 -0.00840179 0)
(-0.0020003 -0.00695725 0)
(0.00329001 -0.00655725 0)
(0.00212071 -0.00711823 0)
(-0.000986732 -0.00754118 0)
(2.71879e-05 0.00192987 0)
(-1.87112e-05 0.00269655 0)
(0.00189935 -0.00608711 0)
(0.00199143 -0.00484481 0)
(0.00231566 -0.00318426 0)
(0.00446481 -0.00155057 0)
(0.00696494 -0.00097581 0)
(-0.000879366 0.00166372 0)
(6.93986e-05 0.000115282 0)
(0.00216356 0.00198097 0)
(0.00132018 0.00534278 0)
(0.00123879 0.00730008 0)
(0.00110232 0.00918817 0)
(-0.000326803 0.0097211 0)
(0.0001682 0.00973887 0)
(0.00213894 0.0105718 0)
(-0.000702896 0.00921281 0)
(0.00312081 -0.0155451 0)
(-0.00143084 -0.00786328 0)
(0.00121921 -0.0108645 0)
(-0.00220106 -0.00529218 0)
(-0.00035936 -0.0089956 0)
(-0.00116155 -0.00492257 0)
(-0.000448656 -0.00629865 0)
(-0.000269504 -0.0076312 0)
(-0.00185109 -7.59281e-05 0)
(-0.00246419 -0.000570682 0)
(-0.00199477 -0.0124199 0)
(0.000339556 -0.0120009 0)
(-0.00188479 -0.0134553 0)
(-0.000198184 -0.00416448 0)
(-0.00131712 -0.00180122 0)
(-0.00166456 -0.0118368 0)
(0.000646597 -0.0121585 0)
(0.00173247 -0.0116422 0)
(-7.33114e-05 -0.00541934 0)
(-0.00080038 -0.00632603 0)
(-0.00191698 -0.00616994 0)
(-0.000826687 -0.0023916 0)
(-0.00330138 -0.0027413 0)
(-0.0020964 0.00016137 0)
(-0.00172898 0.00159036 0)
(-6.81031e-06 0.00209038 0)
(-0.00239448 0.00191099 0)
(-0.00211016 0.0129905 0)
(-0.00160247 0.0112429 0)
(-0.00196149 -0.00101577 0)
(0.000325577 0.000122446 0)
(-0.00133582 0.00163068 0)
(4.87503e-05 0.00226118 0)
(0.0014398 0.00187114 0)
(0.00202292 0.00102028 0)
(0.00190231 0.00148512 0)
(-0.00127248 0.000910242 0)
(-0.000312525 -0.0046339 0)
(0.0012938 -0.00206436 0)
(9.86838e-05 -0.00274569 0)
(0.000740265 -0.00430871 0)
(-0.00533553 0.000924632 0)
(0.0049602 -0.00135634 0)
(0.00106492 -0.00163759 0)
(0.0002158 -0.00219255 0)
(-0.00150523 -0.00457929 0)
(-0.000720915 -0.00507584 0)
(-0.000376404 -0.00539227 0)
(-0.0012267 -0.00797887 0)
(-0.00190421 -0.00426801 0)
(0.00355068 -0.00575235 0)
(0.000838068 -0.0118638 0)
(0.000850983 -0.00861639 0)
(-0.00186578 -0.0115 0)
(-0.00145427 -0.00876009 0)
(-0.00130595 -0.0075575 0)
(-0.00180444 -0.0119077 0)
(0.00125473 -0.00715868 0)
(0.00119522 -0.00319314 0)
(-0.00366193 -0.000711949 0)
(-0.000909622 -0.00354346 0)
(-8.04156e-05 -0.0037863 0)
(0.00316359 -0.00382264 0)
(0.00236722 -0.00153451 0)
(0.00250286 -0.000366917 0)
(0.001117 0.000293785 0)
(-0.000250837 -1.26077e-05 0)
(0.000843363 -0.000855079 0)
(-0.000952263 0.00026263 0)
(-0.000988799 0.00150073 0)
(-0.00239053 0.00212824 0)
(-0.00258936 0.00245875 0)
(-0.00439597 0.00401725 0)
(0.00400669 0.00374742 0)
(0.000623256 -0.00122599 0)
(-0.0173152 -0.0210764 0)
(-0.00495736 -0.0071403 0)
(-0.00137847 -0.00731778 0)
(-0.00310036 -0.00106324 0)
(-0.00140342 -0.00456293 0)
(-0.000598558 -0.00127937 0)
(0.000600108 -0.0019682 0)
(0.00106836 -0.00149772 0)
(0.00386009 0.000137273 0)
(-0.00468486 -0.000921966 0)
(-0.00257878 -0.00583166 0)
(-0.000896787 -0.00691184 0)
(0.000484348 -0.00629751 0)
(0.00389168 -0.0028119 0)
(-0.00479788 -0.00431098 0)
(-0.00363933 -0.0059305 0)
(-0.00174659 -0.00589613 0)
(-0.00116532 -0.00542081 0)
(-0.00023083 -0.00144661 0)
(-0.00263758 -0.00318284 0)
(-0.00119916 -0.000604036 0)
(-0.00265725 0.000194277 0)
(-0.00247408 -0.00295399 0)
(-0.0033334 -0.0010318 0)
(-0.00271263 -0.00242882 0)
(-0.00213063 -0.00321286 0)
(-0.000838195 -0.00302599 0)
(0.0025706 -0.00223222 0)