/*--------------------------------*- C++ -*----------------------------------*\
  =========                 |
  \\      /  F ield         | OpenFOAM: The Open Source CFD Toolbox
   \\    /   O peration     | Website:  https://openfoam.org
    \\  /    A nd           | Version:  12
     \\/     M anipulation  |
\*---------------------------------------------------------------------------*/
FoamFile
{
    format      ascii;
    class       volVectorField;
    location    "0.9";
    object      U.water;
}
// * * * * * * * * * * * * * * * * * * * * * * * * * * * * * * * * * * * * * //

dimensions      [0 1 -1 0 0 0 0];

internalField   nonuniform List<vector> 
3750
(
(0.000921368 0.0158761 0)
(0.00647017 0.0256434 0)
(-0.00153349 0.000147891 0)
(-0.00173135 0.00659256 0)
(-0.00411945 0.000865705 0)
(-0.000308375 0.00984703 0)
(-0.00149895 0.00792401 0)
(0.0024519 0.010276 0)
(0.000399111 0.00926209 0)
(0.00105222 0.00952705 0)
(0.000400984 0.00993916 0)
(-0.00222565 0.0152315 0)
(0.000265104 0.0164107 0)
(0.00448781 0.0126878 0)
(-0.00265846 0.0130629 0)
(0.00278848 0.0120237 0)
(-0.000379153 0.0103935 0)
(-0.000598659 0.00651744 0)
(0.00134301 0.00801649 0)
(-0.000565255 0.0072475 0)
(0.000847298 0.00790855 0)
(-0.00272866 0.0130389 0)
(0.00151216 0.0142651 0)
(0.00026876 0.0111956 0)
(-0.00219208 0.00991469 0)
(-0.00116856 0.0126339 0)
(-0.0015999 0.0137923 0)
(9.32139e-05 0.0132466 0)
(0.000484809 0.0142881 0)
(2.5742e-05 0.0144832 0)
(0.00274521 0.0140189 0)
(0.00417178 0.0275863 0)
(-0.00133699 0.0271289 0)
(-0.000122367 0.0132241 0)
(-0.0014082 0.0128427 0)
(0.000392852 0.0134596 0)
(-0.00126994 0.015361 0)
(0.000729905 0.0132517 0)
(-0.00124976 0.0152352 0)
(-0.000723909 0.0146229 0)
(-0.000759078 0.015394 0)
(-0.00122072 0.0165471 0)
(-0.000170091 0.0178563 0)
(-6.30324e-05 0.018214 0)
(0.00118512 0.0198567 0)
(1.98106e-05 0.0207807 0)
(0.000978606 0.0182359 0)
(0.0013036 0.0187223 0)
(0.000420646 0.0147424 0)
(0.00163552 0.0110114 0)
(-0.00213176 0.00719636 0)
(0.00293214 0.00466092 0)
(0.000410737 0.0079176 0)
(0.00041447 0.00672565 0)
(0.000482631 0.00725456 0)
(-7.91812e-05 0.00704083 0)
(-0.000686087 0.00775281 0)
(-0.00130682 0.00917131 0)
(-0.00145627 0.009853 0)
(-0.000290487 0.011269 0)
(-0.00011209 0.0111205 0)
(-0.000488172 0.0109723 0)
(-0.001148 0.011978 0)
(-0.000350228 0.0112455 0)
(-0.00100926 0.0107677 0)
(-0.00142563 0.0101462 0)
(0.00152007 0.0101739 0)
(0.00463049 0.0213425 0)
(-0.00462515 0.020126 0)
(-0.00131478 0.00821246 0)
(-0.000402809 0.00971422 0)
(6.10864e-05 0.0109127 0)
(-0.000362344 0.0112058 0)
(0.000407535 0.0108035 0)
(-0.000478867 0.0124603 0)
(-0.00408807 -0.0139733 0)
(0.0122289 -0.00447289 0)
(0.000574074 -0.00418896 0)
(-0.00115044 0.00184404 0)
(-0.00257298 -0.00292294 0)
(-0.00219084 0.00688348 0)
(0.00372938 0.00123383 0)
(0.00149468 0.00428789 0)
(-0.000447137 -0.00109283 0)
(-0.000546534 0.0020099 0)
(2.17153e-06 6.85145e-05 0)
(-0.00283974 0.0100786 0)
(-0.00125379 0.0196006 0)
(0.000241934 0.00797449 0)
(-0.00160886 0.0104557 0)
(-0.000202648 0.0140174 0)
(-0.00169139 0.00824761 0)
(-0.000675043 0.00964958 0)
(-0.000224569 0.0105944 0)
(0.000296649 0.00842013 0)
(0.00130123 0.00932485 0)
(0.000995612 0.0179404 0)
(0.000530534 0.020358 0)
(-0.000803975 0.0101345 0)
(2.56313e-05 0.00843225 0)
(0.000482325 0.0119992 0)
(-0.0003479 0.0110483 0)
(0.000200258 0.0108664 0)
(-0.0022305 0.00903476 0)
(-0.00467366 0.011656 0)
(0.00325681 0.0123806 0)
(0.00075317 0.0172062 0)
(-0.00229018 0.0186712 0)
(-0.00263613 0.0116908 0)
(-0.00162775 0.0119752 0)
(-0.000179948 0.00971719 0)
(2.53585e-05 0.00870968 0)
(0.00190965 0.00708243 0)
(0.000731721 0.00621106 0)
(0.000665904 0.00854629 0)
(-0.000704034 0.00885744 0)
(-0.000960896 0.0119001 0)
(-0.00253325 0.015489 0)
(-0.00206207 0.0174809 0)
(-0.00207263 0.02159 0)
(-0.000227934 0.0251405 0)
(0.00019566 0.0267497 0)
(0.00157369 0.02699 0)
(0.00184057 0.0254171 0)
(0.00407675 0.0216002 0)
(0.00249403 0.0199872 0)
(0.00325994 0.0178068 0)
(0.00144518 0.0156834 0)
(-0.000409199 0.0182382 0)
(0.000367034 0.0193081 0)
(1.15824e-05 0.0171201 0)
(-0.00183482 0.0149351 0)
(7.05699e-05 0.0145241 0)
(-0.00197658 0.0130754 0)
(-0.000109541 0.0131356 0)
(-1.99768e-05 0.0134607 0)
(0.00122989 0.0148171 0)
(-0.00142418 0.0172087 0)
(0.00499724 0.0142223 0)
(0.000176576 0.0106761 0)
(-0.00295675 0.0102569 0)
(0.00670107 0.0124859 0)
(0.006108 0.012378 0)
(-0.00425523 0.0120918 0)
(-0.00149041 0.0100039 0)
(-0.00134537 0.00873858 0)
(-0.000980039 0.00883698 0)
(-0.00256661 0.0105637 0)
(-0.00124383 0.0122475 0)
(-0.000846536 0.0126171 0)
(-0.00773408 -0.0341656 0)
(0.00175746 -0.00950798 0)
(-0.00732178 -0.0133867 0)
(-0.00287483 -0.00702571 0)
(-0.000887204 -0.0125391 0)
(-0.00526439 0.00137501 0)
(-0.000679261 -0.00410909 0)
(-0.00188057 -0.00988469 0)
(0.0008556 -0.009619 0)
(0.00168741 -0.00739873 0)
(0.00263545 -0.0111321 0)
(0.00451981 -0.0065155 0)
(-0.00141763 -0.00202101 0)
(-0.00332261 -0.00799396 0)
(0.000519578 -0.00416618 0)
(-0.00717489 -0.00209397 0)
(-0.00921072 -0.000771758 0)
(0.00141824 -0.00121231 0)
(-0.000593303 -0.00189117 0)
(0.000806547 -0.00261875 0)
(0.00104501 -0.00167918 0)
(0.00412813 0.00271008 0)
(-0.00371201 0.00319182 0)
(-0.00311902 0.00142324 0)
(-0.000375693 0.00206369 0)
(-0.00111576 0.00305737 0)
(-0.000551918 0.00450296 0)
(0.00315433 0.00345208 0)
(0.001826 -0.000363644 0)
(0.00261136 0.00929263 0)
(0.000988244 0.0062737 0)
(0.000482007 0.00792854 0)
(-0.00282114 0.00901881 0)
(-0.00131037 -0.00266086 0)
(-0.000195623 -0.000557549 0)
(0.00124476 -0.00145814 0)
(0.0021665 -0.00284673 0)
(0.00111552 -0.00433785 0)
(0.000371115 -0.00339443 0)
(-0.00251476 -0.00178072 0)
(-0.00527748 0.00107275 0)
(-0.00500109 0.0029059 0)
(-0.010076 0.00611954 0)
(-0.0053961 0.00506704 0)
(-0.00618551 0.00620866 0)
(-0.00233126 0.00969385 0)
(-0.00125774 0.0104037 0)
(0.00211446 0.0155582 0)
(0.00371164 0.0162591 0)
(0.00462015 0.0152805 0)
(0.00542412 0.0139021 0)
(0.00192906 0.0134544 0)
(0.00197223 0.0124795 0)
(0.00130023 0.0105526 0)
(0.00199848 0.0116558 0)
(0.00265653 0.00790002 0)
(0.00222198 0.00846349 0)
(0.00221528 0.00645816 0)
(-0.00128305 0.00320414 0)
(-0.00136955 0.00558731 0)
(-0.000678818 0.00562924 0)
(0.00141406 0.00523201 0)
(0.000706291 0.0129524 0)
(0.00331192 0.0123726 0)
(0.00135117 -0.00023064 0)
(0.000447598 0.0115518 0)
(0.00160317 0.0123947 0)
(0.000581371 0.00297901 0)
(-0.00202515 0.00517918 0)
(-0.00234497 0.00479799 0)
(-0.00107156 0.00538288 0)
(-0.00212687 0.00622156 0)
(-0.00125578 0.00664318 0)
(-0.00124059 0.00573643 0)
(-0.000954437 0.00468648 0)
(-0.00043641 -0.0133348 0)
(-0.00210442 -0.005337 0)
(-0.000315491 -0.00649763 0)
(-0.00517139 0.000639901 0)
(-0.00217315 -0.0125711 0)
(-0.00292086 -0.00516585 0)
(-0.00937046 -0.00655584 0)
(0.00213507 -0.00713166 0)
(0.00226114 -0.0103104 0)
(0.00105229 -0.0099551 0)
(0.000461425 -0.011209 0)
(0.00281443 -0.00953221 0)
(-0.00236056 -0.00696199 0)
(-0.00302023 -0.00782971 0)
(-0.00439839 -0.00890747 0)
(-0.00522439 -0.00821007 0)
(-0.0043352 0.000865561 0)
(-0.00300017 -0.00147599 0)
(-0.00175891 -0.00858733 0)
(-0.00158605 -0.00699078 0)
(-0.000857192 -0.00451605 0)
(-0.00108879 -0.0034087 0)
(-0.00276498 -0.0022521 0)
(-0.00391684 -0.00199015 0)
(-0.00109827 -0.0049635 0)
(-0.00173368 -0.00568832 0)
(-0.00138309 -0.00267149 0)
(0.00291617 -0.00321694 0)
(0.00311024 -0.00567322 0)
(0.00492542 -0.00192523 0)
(-0.00274814 -0.00327523 0)
(0.000846804 -0.00120702 0)
(-0.00476259 -0.000757308 0)
(-0.00312877 -0.00695759 0)
(-0.00138179 -0.00860157 0)
(0.00347071 -0.00810824 0)
(0.00312415 -0.00775082 0)
(0.00158872 -0.00652099 0)
(-0.000245949 -0.00425453 0)
(-0.00411534 -0.00384502 0)
(-0.0070982 -0.00190746 0)
(-0.00461747 -0.00314778 0)
(-0.00536738 -0.00137027 0)
(-0.00427327 -0.00239432 0)
(-0.00242265 -0.00528341 0)
(-0.00612702 -0.00186435 0)
(-0.0050619 -0.00371282 0)
(0.000214913 -0.00139392 0)
(0.00113203 -0.000906868 0)
(0.00568377 0.000753115 0)
(0.00462996 0.00103917 0)
(0.00604992 0.000922829 0)
(0.00179047 0.000507031 0)
(0.00332987 0.000244698 0)
(0.00196262 0.00123399 0)
(0.00209858 -0.000757039 0)
(0.000691258 -0.000398698 0)
(0.00193559 -0.000933138 0)
(-0.000615364 -0.00157577 0)
(0.000133615 -0.00135485 0)
(0.00162793 -0.00308778 0)
(0.00204366 -0.00504134 0)
(0.00727094 0.00171777 0)
(-0.000876901 0.00247758 0)
(0.000884151 -0.00134619 0)
(0.00178651 0.00526509 0)
(0.000185662 0.00448078 0)
(0.000380345 -0.00154883 0)
(-0.00224786 -0.00229653 0)
(-0.00379436 -0.000763287 0)
(-0.00292119 -0.00175862 0)
(-0.0028165 -0.0010769 0)
(-0.00103952 0.00200706 0)
(0.000850115 0.00294393 0)
(0.000939029 0.00446193 0)
(-0.000424006 -0.0135233 0)
(0.00557845 -0.00535263 0)
(0.00232494 -0.00565523 0)
(-0.00979443 -0.00161582 0)
(-0.00368828 -0.00408959 0)
(-0.00239368 0.000452854 0)
(-0.00177679 0.00675128 0)
(-0.000289051 0.0073928 0)
(-0.000451717 -0.0051178 0)
(0.000618254 -0.00221795 0)
(0.000182651 -0.00258597 0)
(-0.000107495 -0.0021377 0)
(-0.000974058 -0.000760972 0)
(-0.00339769 -0.00369333 0)
(-0.00275514 -0.00358991 0)
(-0.00313845 -0.00248266 0)
(0.000940705 -0.0022285 0)
(-0.00726331 -0.00266068 0)
(-0.00555274 -0.00246833 0)
(-0.00100595 -0.00306637 0)
(-0.00177879 -0.00473265 0)
(-0.00141799 -0.00489901 0)
(-0.000881045 -0.00610412 0)
(-0.00177586 -0.00483894 0)
(0.00106237 -0.00695883 0)
(0.000525566 -0.0114011 0)
(-0.000883697 -0.00714458 0)
(0.00441933 -0.00821584 0)
(0.00408336 -0.0102945 0)
(0.00262381 -0.00671567 0)
(-0.000293981 -0.00731522 0)
(0.00077653 -0.00460606 0)
(-0.00220002 -0.00410225 0)
(0.000286686 -0.00594831 0)
(0.000301824 -0.00290479 0)
(-0.000147443 -0.00363632 0)
(-0.00152741 -0.00211859 0)
(-0.00136945 0.000918382 0)
(-0.00314555 0.00395909 0)
(-0.00391515 -0.000118456 0)
(-0.00398394 -0.00178751 0)
(-0.00439301 -0.00389387 0)
(-0.00314347 -0.00560159 0)
(-0.00990457 -0.00448352 0)
(-0.00187932 -0.00707253 0)
(-0.00589762 -0.0111724 0)
(-0.00169217 -0.0119459 0)
(-0.0010988 -0.0129579 0)
(0.00121646 -0.0132951 0)
(0.00307098 -0.0099805 0)
(0.00196861 -0.00866164 0)
(0.00467018 -0.00718954 0)
(0.0026992 -0.00693521 0)
(0.00284551 -0.00494811 0)
(0.00340741 -0.00562574 0)
(0.00279058 -0.0093889 0)
(0.00212277 -0.00678941 0)
(0.00308852 -0.00714834 0)
(0.000406315 -0.00969206 0)
(0.000782186 -0.00686979 0)
(0.00271745 -0.0124189 0)
(0.00231615 -0.0111765 0)
(0.00163623 -0.00559024 0)
(-0.00174365 -0.00414309 0)
(0.00220838 -0.00457345 0)
(0.00245536 0.00570491 0)
(0.000151267 0.00705345 0)
(-0.00131491 -0.00306185 0)
(-0.00183003 -0.00171605 0)
(-0.00455961 -0.001378 0)
(-0.00337607 -0.00114689 0)
(-0.00486469 9.38003e-05 0)
(-0.00229804 0.00188459 0)
(-0.0011673 0.00246282 0)
(-0.00345723 0.00403139 0)
(0.00183186 -0.0102999 0)
(0.00593071 -0.000334318 0)
(-0.00327472 -0.00814148 0)
(-0.00639701 -0.00246459 0)
(-0.00874212 -0.00281539 0)
(-0.00357739 0.0003065 0)
(0.00541308 -0.000974943 0)
(-0.00504929 0.00044545 0)
(-0.00164189 -0.00188056 0)
(0.000534001 -0.000743639 0)
(0.0012412 -0.000869921 0)
(0.000758875 -0.00103179 0)
(0.000763105 -0.00114979 0)
(-0.00332376 -0.00130283 0)
(-0.00172078 -0.00219175 0)
(-0.00269511 -0.00126025 0)
(-0.00208649 -0.00218113 0)
(-0.0030428 -0.00810019 0)
(-0.00144566 -0.00345531 0)
(-0.00161177 -0.00568358 0)
(0.000192281 -0.00905241 0)
(-0.00079873 -0.00776 0)
(-0.000823006 -0.00703829 0)
(-0.00252897 -0.00341933 0)
(0.00485469 -0.0043493 0)
(0.00374437 -0.00750145 0)
(0.00153775 0.00368587 0)
(3.18207e-05 0.00463808 0)
(-0.000505194 -0.0041741 0)
(-0.00272864 -9.5582e-05 0)
(-0.00446952 0.00233892 0)
(-0.00313965 0.00406172 0)
(-0.00374517 0.0047363 0)
(-0.00395806 0.00526023 0)
(-0.000631703 0.00623923 0)
(-0.00164015 0.00689682 0)
(-0.000436864 0.00814992 0)
(-0.000501711 0.00766147 0)
(-0.0011772 0.00418884 0)
(-0.000353441 0.000796772 0)
(0.00305425 -0.00255991 0)
(-0.00285105 -0.00638578 0)
(-0.000435464 -0.00894958 0)
(-0.00532441 -0.0027269 0)
(-0.00263101 -0.00495386 0)
(-0.000724489 -0.0126761 0)
(0.000777352 -0.0126013 0)
(-0.00190333 -0.0155441 0)
(-0.000305868 -0.015174 0)
(-0.000483384 -0.0137686 0)
(0.00222736 -0.00896034 0)
(0.00127193 -0.00788266 0)
(-8.79145e-05 -0.00818567 0)
(0.000400815 -0.0038163 0)
(0.00376055 -0.00374785 0)
(0.00628425 -0.00722773 0)
(0.00217287 -0.00602878 0)
(0.00214612 -0.00821572 0)
(0.00342347 -0.0120879 0)
(0.000345765 -0.00757871 0)
(0.00104785 -0.00893264 0)
(0.00215055 -0.00944635 0)
(-0.00240266 -0.0052087 0)
(-0.00268942 -0.000639109 0)
(0.00455174 -0.000901139 0)
(0.00301398 0.0031547 0)
(-0.00458847 0.00485519 0)
(-0.00304014 0.00280491 0)
(-0.00298512 -0.000658951 0)
(-0.00340076 -0.000274309 0)
(-0.00309159 -0.000712535 0)
(-0.00618459 -0.00088923 0)
(0.00101895 0.0017309 0)
(-0.00103819 0.000175073 0)
(-0.00751514 0.000772848 0)
(0.00143803 -0.013798 0)
(0.00622114 -0.00132508 0)
(-0.000187117 -0.00319222 0)
(0.000195639 -0.00562961 0)
(-0.00402049 -0.00122613 0)
(-0.00541409 0.0106074 0)
(-0.00563662 0.000142953 0)
(-0.00703884 -0.00499421 0)
(-0.004411 -0.00235202 0)
(-0.00210978 0.00140514 0)
(-0.000651462 -0.00101969 0)
(-0.00019447 0.00134386 0)
(0.000939269 0.00157409 0)
(-0.000521741 0.000282714 0)
(-0.00034079 0.00214706 0)
(0.00107466 0.00173496 0)
(-0.0029472 -2.74407e-05 0)
(-0.00241323 -0.000201114 0)
(0.000165263 0.000460621 0)
(-0.00351774 -0.00104776 0)
(-0.00183677 -0.00205666 0)
(-0.0025197 -0.00178054 0)
(-0.000241445 -0.00394815 0)
(-0.000645326 0.00673486 0)
(0.000391865 0.00745987 0)
(0.0013703 -0.00313188 0)
(0.00459942 0.00339786 0)
(-0.0048937 0.0041781 0)
(-0.00215296 0.000489108 0)
(-0.00253987 0.00157177 0)
(-0.00289624 -0.00187524 0)
(-0.00222336 -0.00409676 0)
(-0.0021883 -0.00924256 0)
(-0.00199939 -0.00820133 0)
(-0.00250298 -0.00858409 0)
(0.000868562 -0.01349 0)
(0.00124713 -0.0115309 0)
(0.000625343 -0.0112204 0)
(-0.00120406 -0.00972298 0)
(0.00249521 -0.00866512 0)
(-0.000295742 -0.0098891 0)
(0.000794257 -0.00762964 0)
(0.00247255 -0.00740156 0)
(0.002091 -0.00774924 0)
(-0.00634138 -0.00486173 0)
(0.00192056 -0.00751812 0)
(-0.0028946 -0.00956658 0)
(-0.00361205 -0.0111586 0)
(-0.00211989 -0.0103454 0)
(-0.000613824 -0.00910004 0)
(-0.000139071 -0.00948252 0)
(0.000443219 -0.0124635 0)
(0.000971263 -0.00940444 0)
(0.0011884 -0.00323047 0)
(0.00155296 -0.00282386 0)
(0.0014522 -0.0128988 0)
(0.0027169 -0.0124646 0)
(0.00193726 -0.00838953 0)
(0.00330763 -0.0132211 0)
(0.0022979 -0.0098066 0)
(0.000338755 -0.0085319 0)
(0.000130338 -0.00986864 0)
(0.00169742 -0.00788973 0)
(-0.00210265 0.00456066 0)
(-0.00239275 0.00228756 0)
(-0.00597218 -0.00199156 0)
(0.000147744 0.0010212 0)
(-0.00231086 -0.00286762 0)
(-0.00415996 -0.00564252 0)
(-0.0008452 -0.00735379 0)
(-0.00337458 -0.0100713 0)
(-0.0013877 -0.00212511 0)
(-0.00369452 -0.00167124 0)
(-0.00121109 -0.0141942 0)
(-0.00367279 -0.00781386 0)
(-6.87588e-05 -0.0143909 0)
(-0.00526552 -0.000141206 0)
(-0.00247562 -0.00477077 0)
(9.87342e-05 -0.000921974 0)
(0.00244316 0.000618601 0)
(-0.00365001 0.00624149 0)
(-0.0103731 0.000844021 0)
(-0.00760422 -0.000261884 0)
(-0.00573472 -0.000900982 0)
(-0.00318879 0.00089673 0)
(-0.00263417 -0.00107394 0)
(0.00100386 0.000361076 0)
(-0.000466394 0.00142687 0)
(0.000189336 0.00187611 0)
(-0.000997314 0.00539551 0)
(-0.00181385 0.00474797 0)
(-0.00400961 0.00510466 0)
(-0.00542449 0.00630097 0)
(0.00297249 0.00541523 0)
(-0.00035261 0.000870756 0)
(-0.000505177 0.000490395 0)
(0.000401568 0.000459455 0)
(0.00149774 0.00025307 0)
(0.00535608 0.00268206 0)
(-0.003563 0.00257941 0)
(-0.00151224 -0.000808086 0)
(0.00119545 -0.00170072 0)
(-0.0041255 -0.00214433 0)
(0.0011028 -0.00170461 0)
(0.000380886 -0.00413133 0)
(2.44282e-05 -0.00485243 0)
(0.000853941 -0.00510372 0)
(8.22884e-05 -0.00616112 0)
(0.00165642 -0.00781245 0)
(-0.00157035 -0.00604959 0)
(-0.00105221 -0.00714637 0)
(-0.00138235 -0.00904798 0)
(-0.00100701 -0.00940079 0)
(-0.00148377 -0.00745162 0)
(6.069e-05 -0.00744368 0)
(1.56412e-05 -0.0130939 0)
(0.00124968 -0.0106783 0)
(0.000782058 -0.0131799 0)
(0.000612503 -0.0143554 0)
(-0.00248773 -0.00343208 0)
(-0.00267996 -0.00493228 0)
(-0.00244932 -0.0132976 0)
(-0.00221653 -0.0112339 0)
(-0.000891212 -0.0114248 0)
(-0.000132084 -0.0126013 0)
(0.00122682 -0.00967504 0)
(0.00182251 -0.0105264 0)
(0.00264721 -0.012546 0)
(0.00758547 -0.0083303 0)
(0.000857435 -0.00804439 0)
(0.000635504 -0.0102713 0)
(0.00433999 -0.00844639 0)
(0.000521386 -0.00859299 0)
(0.000740139 -0.00892467 0)
(-0.00119641 -0.00582339 0)
(0.00058662 -0.00703846 0)
(-0.00103634 -0.00525112 0)
(0.0019438 -0.0044556 0)
(-0.000219506 -0.00271877 0)
(-0.00587016 -0.00416412 0)
(-0.00403075 0.0024446 0)
(-0.0045235 0.00222295 0)
(-0.00383999 -0.0108177 0)
(-0.00187904 -0.00864951 0)
(-0.000636862 -0.00936068 0)
(0.00125282 -0.0112808 0)
(0.00372959 -0.0103094 0)
(-0.00263762 -0.00898858 0)
(-0.00286263 -0.0133489 0)
(0.00782098 -0.0150317 0)
(-0.00278626 -0.0101615 0)
(-0.00346677 -0.000978741 0)
(-0.000742235 -0.00267784 0)
(-0.000671828 -0.00115863 0)
(-0.00305688 -0.00289116 0)
(-0.00478937 0.00260412 0)
(-0.00599893 -0.00115028 0)
(-0.00686589 1.03082e-05 0)
(-0.004502 0.000738045 0)
(-0.00459109 0.00454831 0)
(-0.00419823 0.00397267 0)
(-0.00197983 0.00619048 0)
(-0.00203593 0.00587151 0)
(0.000846867 0.00466212 0)
(-0.000373369 0.0053592 0)
(-0.000662236 0.00386553 0)
(0.00100629 0.000107003 0)
(0.00139381 0.00797212 0)
(0.000585724 0.00624808 0)
(-0.00175445 -0.00565365 0)
(-0.00144941 -0.00270574 0)
(0.000352674 -0.00275438 0)
(0.000103876 -0.00244382 0)
(0.00102519 -0.00290866 0)
(-0.00128804 -0.00462308 0)
(-0.000719594 -0.00609286 0)
(0.000825612 -0.00990069 0)
(-0.000559341 -0.009062 0)
(-0.00102998 -0.00859524 0)
(-0.00139365 -0.0140969 0)
(-0.00190431 -0.0104905 0)
(-0.00158089 -0.00888195 0)
(0.000212121 -0.00985504 0)
(-0.00153334 -0.00968546 0)
(0.00238535 -0.00897075 0)
(-0.000955798 -0.00846669 0)
(0.000746101 -0.0085479 0)
(0.0016531 -0.00955468 0)
(0.00346224 -0.008499 0)
(0.0013818 -0.00785558 0)
(0.00203853 -0.00991158 0)
(0.00215698 -0.00708591 0)
(0.000580184 -0.0075518 0)
(0.00186825 -0.00787485 0)
(0.00239334 -0.00547556 0)
(-0.00523869 -0.00668235 0)
(-0.005037 -0.00966753 0)
(-0.00403591 -0.0108012 0)
(-0.0026253 -0.0106056 0)
(-0.00396532 -0.0097543 0)
(0.00215927 -0.0101037 0)
(-0.00134595 -0.0127739 0)
(0.00166025 -0.00613329 0)
(0.00280644 -0.00516003 0)
(0.000737114 -0.00692052 0)
(0.00223524 -0.00443775 0)
(0.00230826 -0.00550621 0)
(0.0011018 -0.00395762 0)
(0.00179731 -0.00692805 0)
(0.000595536 -0.00435954 0)
(0.000328221 -0.00515228 0)
(-0.00163656 -0.00946567 0)
(0.00222301 -0.0105955 0)
(-0.000790595 -0.0109319 0)
(-0.00267788 -0.0129965 0)
(0.00178804 -0.0147928 0)
(-0.00383606 -0.013031 0)
(-0.00361698 -0.0140617 0)
(0.00123903 -0.0158899 0)
(-0.0010712 -0.0169691 0)
(0.000589329 -0.0175492 0)
(0.00282237 -0.019402 0)
(0.00110508 -0.0226611 0)
(-3.29851e-05 -0.0206469 0)
(0.00174577 -0.0182033 0)
(-0.00121919 -0.0116966 0)
(-0.00509372 -0.00261157 0)
(-0.00159051 -0.00553817 0)
(-0.00429805 -0.00132159 0)
(-0.0037677 -0.00490503 0)
(-0.00409775 0.000614714 0)
(-0.00547708 -0.00436143 0)
(-0.00797098 -0.00200207 0)
(-0.00963207 -0.000394272 0)
(-0.00572776 -0.000322917 0)
(-0.00477839 0.000629806 0)
(-0.00244801 0.00130328 0)
(0.00138819 0.00118864 0)
(0.00249169 -0.00153872 0)
(-0.00112793 -0.00127632 0)
(-0.00159251 -9.62934e-05 0)
(0.00454518 0.0012535 0)
(0.00844138 0.0016851 0)
(-0.00266189 -0.000195159 0)
(-0.000433862 -0.00299476 0)
(-0.00689701 -0.00251371 0)
(0.00293767 -0.00388322 0)
(0.00450505 -0.00957235 0)
(0.00182947 -0.0135079 0)
(0.00185921 -0.0139069 0)
(0.00168025 -0.0110113 0)
(0.00189816 -0.0122963 0)
(0.00275604 -0.0155297 0)
(-0.000858106 -0.0139685 0)
(0.000349824 -0.0128424 0)
(-0.000256843 -0.010397 0)
(-0.00413899 -0.00736516 0)
(0.00369283 -0.00940148 0)
(0.000360363 -0.00950759 0)
(-0.000313037 -0.00850974 0)
(-0.0022479 -0.0106917 0)
(-0.00150196 -0.00849937 0)
(-0.000827999 -0.00783034 0)
(-0.000310193 -0.00726506 0)
(0.000720929 -0.00627626 0)
(0.000568862 -0.00608557 0)
(0.000245771 -0.00381751 0)
(0.00150709 -0.00489194 0)
(0.000436461 -0.00531674 0)
(0.00184611 -0.00373248 0)
(-0.00119388 -0.00481309 0)
(-0.00169082 -0.00725268 0)
(-0.00397737 -0.00640434 0)
(0.00131943 -0.0113036 0)
(-0.00164876 -0.00913946 0)
(-0.000393625 -0.00710505 0)
(0.000719728 -0.0110368 0)
(0.00331646 -0.0069047 0)
(-0.000948863 -0.00652936 0)
(0.00064488 -0.00540162 0)
(0.00292483 -0.00406943 0)
(0.00176366 -0.00377824 0)
(0.0022222 -0.00424561 0)
(0.0011034 -0.00530883 0)
(0.00401768 -0.00458431 0)
(0.000620497 -0.00859317 0)
(0.00198291 -0.00664126 0)
(0.00292216 -0.00839667 0)
(0.00496035 -0.0159465 0)
(0.00191363 -0.0139523 0)
(0.000527343 -0.0160096 0)
(-0.00417877 -0.0217833 0)
(-0.00778023 -0.0240978 0)
(-0.0039833 -0.0212901 0)
(-0.000433181 -0.0231822 0)
(0.00266403 -0.0180381 0)
(0.00520324 -0.0179965 0)
(0.00344188 -0.017815 0)
(0.00300054 -0.0142778 0)
(-0.00247292 -0.0105707 0)
(-0.000497142 -0.0125748 0)
(-0.00439024 -0.00104488 0)
(-0.00213564 -0.00495732 0)
(-0.00339144 -0.0045752 0)
(-0.00270468 -0.00533005 0)
(-0.0063107 -0.00237471 0)
(-0.00754731 -0.00651984 0)
(-0.00551033 -0.00987241 0)
(-0.00412297 -0.0102394 0)
(-0.00481718 -0.0104162 0)
(-0.00433076 -0.0128377 0)
(-0.00317171 -0.00819449 0)
(0.00361768 -0.00818309 0)
(0.00286783 -0.0133058 0)
(-0.000365758 -0.0151182 0)
(0.00195486 -0.00735768 0)
(0.00138618 -0.00582474 0)
(0.00131061 -0.0141549 0)
(-0.000671323 -0.0180318 0)
(0.00375278 -0.022251 0)
(0.00123925 -0.014544 0)
(0.00355726 -0.00849734 0)
(0.00211457 -0.0173392 0)
(0.000292054 -0.0175242 0)
(0.000592902 -0.0136013 0)
(0.00198535 -0.0109887 0)
(-0.000173562 -0.0100437 0)
(-0.000335173 -0.0106606 0)
(-0.00103298 -0.00862504 0)
(-0.00092866 -0.00873731 0)
(-0.00174377 -0.0106443 0)
(-0.00223434 -0.000226497 0)
(-0.00175672 -0.000797671 0)
(0.000337543 -0.0106515 0)
(-0.00308717 -0.00924826 0)
(-0.0039261 -0.0082148 0)
(0.000251934 -0.00663672 0)
(-0.00029082 -0.00772456 0)
(0.00186882 -0.00774288 0)
(-0.000365243 -0.00769748 0)
(0.00224685 -0.00931604 0)
(0.00118965 -0.00399888 0)
(7.25995e-05 -0.00414629 0)
(0.000711506 -0.00519444 0)
(0.00070986 -0.00486932 0)
(-0.00124522 -0.00707773 0)
(-0.000640328 -0.00911221 0)
(-0.00206883 -0.00670018 0)
(-0.00159328 -0.00744443 0)
(-0.000476698 -0.0102156 0)
(-0.00180571 -0.0061343 0)
(-0.0011973 -0.00753562 0)
(-0.000289636 -0.00520108 0)
(-0.00118133 -0.00621332 0)
(-0.00410233 -0.00143373 0)
(0.00499142 -0.00117749 0)
(0.000874469 -0.0035578 0)
(0.00319203 -0.00212699 0)
(0.000705967 -0.00359366 0)
(0.0036327 -0.00163807 0)
(0.00209942 -0.00235325 0)
(0.00540879 -0.00126507 0)
(0.00214383 -0.00155488 0)
(0.00524862 -0.00132393 0)
(0.0037139 -0.00233886 0)
(0.00412652 -0.00176141 0)
(-0.00119125 -0.00614954 0)
(-0.00119466 -0.010152 0)
(-0.00360212 -0.0159994 0)
(-0.00142584 -0.021872 0)
(-0.00106232 -0.0204685 0)
(-0.00109798 -0.019941 0)
(0.00041723 -0.0192889 0)
(-0.00119919 -0.0165182 0)
(0.00139677 -0.00698529 0)
(-0.000156135 -0.0180408 0)
(0.00127794 -0.000647765 0)
(-0.00291839 -0.00645532 0)
(-0.00312948 -0.00268156 0)
(-0.00539998 -0.00622995 0)
(-0.00578668 -0.00547605 0)
(-0.00225777 -0.0108284 0)
(0.000329839 -0.0114413 0)
(-0.000678661 -0.0133368 0)
(-0.00487389 -0.0164024 0)
(-0.00684607 -0.0145988 0)
(0.000206255 -0.00540666 0)
(0.00127223 -0.00547869 0)
(0.00226642 -0.0152773 0)
(0.00417305 -0.0119296 0)
(0.00614694 -0.00936273 0)
(0.001675 -0.0116381 0)
(-0.000433911 -0.0141472 0)
(0.00403577 -0.0106208 0)
(0.00249436 -0.0105694 0)
(0.0044313 -0.0104724 0)
(-0.0027805 -0.00651871 0)
(-0.00384787 -0.0100934 0)
(-0.00353666 -0.00918309 0)
(-0.00625015 -0.00588442 0)
(0.00149933 -0.00779639 0)
(0.00205283 -0.00957153 0)
(0.000602198 -0.00986117 0)
(-0.000270472 -0.00941339 0)
(-0.000101993 -0.00967817 0)
(0.00097028 -0.00812557 0)
(0.00409015 -0.0043707 0)
(-0.00522233 -0.00440286 0)
(-0.0021264 -0.00759011 0)
(-0.00220376 -0.00938272 0)
(-0.00131179 -0.00678849 0)
(-0.00367248 -0.00336299 0)
(0.00280718 -0.00602851 0)
(0.000227899 -0.00807783 0)
(0.000487707 -0.00751852 0)
(-0.00143899 -0.00680818 0)
(0.00249388 -0.00823719 0)
(-0.00132307 -0.00745823 0)
(0.00245721 -0.00592171 0)
(0.000201325 -0.00709889 0)
(0.000327766 -0.0072076 0)
(-0.000412999 -0.00898101 0)
(0.00144479 -0.00750221 0)
(-0.00208247 -0.00819603 0)
(-0.00215997 -0.0071901 0)
(-0.000694261 -0.00604666 0)
(-0.00170369 -0.00714291 0)
(0.00127362 -0.00478095 0)
(0.000567196 -0.00839753 0)
(0.00060497 0.00262958 0)
(-0.00155543 0.00204942 0)
(0.00218576 -0.00831663 0)
(0.0012829 -0.00670494 0)
(-8.8258e-05 -0.00855818 0)
(0.00292454 -0.00543516 0)
(0.00116105 -0.00583612 0)
(0.00277593 -0.00328063 0)
(0.00215161 -0.0047474 0)
(0.00312455 -0.00551904 0)
(0.00198295 -0.00173775 0)
(0.00301964 -0.0011861 0)
(0.00340684 -0.00275472 0)
(0.00633959 -0.000966781 0)
(0.00493379 -0.00174909 0)
(0.00348867 -0.00513058 0)
(0.00312335 -0.00646517 0)
(-5.60148e-06 -0.00785046 0)
(0.000624137 -0.0102561 0)
(0.00181168 -0.00732118 0)
(0.00305544 -0.00666132 0)
(-0.00174165 -0.0119438 0)
(-0.00207829 -0.00160072 0)
(-0.000349134 -0.00324275 0)
(-0.0010281 -0.00503127 0)
(-0.00204618 -0.0103205 0)
(-0.00168293 -0.00984501 0)
(-0.00169223 -0.0112921 0)
(-0.000427703 -0.0126496 0)
(-0.00566897 -0.0139879 0)
(-0.000381725 -0.0148666 0)
(-0.000660294 -0.00780579 0)
(0.00266383 -0.00135626 0)
(-0.00114998 -0.0122469 0)
(-0.00249659 -0.0193341 0)
(0.00261131 -0.0173385 0)
(-0.00075036 -0.013548 0)
(-0.000156163 -0.0117435 0)
(0.00100379 -0.0085358 0)
(0.00277741 -0.00819192 0)
(0.000986142 -0.0116791 0)
(0.00121383 -0.00814645 0)
(-0.000196052 -0.00608216 0)
(-0.00103011 -0.00861541 0)
(0.00111735 -0.00966159 0)
(0.000789906 -0.00106189 0)
(0.0012066 0.00144922 0)
(0.00111675 -0.00846096 0)
(-0.00133835 -0.00975398 0)
(-6.85515e-05 -0.00494019 0)
(-0.00207782 -0.00319166 0)
(-0.00133504 -0.00266234 0)
(-0.000505399 -0.00218535 0)
(-0.00348631 -0.00206547 0)
(-0.00232683 -0.00385507 0)
(-0.00198037 -0.00606896 0)
(-0.000110071 -0.00748551 0)
(-0.00231651 0.0032357 0)
(0.000754203 0.00113727 0)
(-0.000687517 -0.00721013 0)
(0.00343444 -0.00906597 0)
(-4.78375e-05 -0.0101932 0)
(-0.000279865 -0.00841119 0)
(-0.00364424 -0.00825514 0)
(0.00334258 -0.00603016 0)
(0.000719782 -0.0078266 0)
(-0.000447966 -0.00820767 0)
(-0.00101043 -0.00759298 0)
(1.23995e-05 -0.00689842 0)
(-0.00131193 -0.0104165 0)
(-0.00178805 -0.00991925 0)
(-0.00309438 -0.00800105 0)
(-0.0055635 -0.00886011 0)
(0.0035399 -0.00596697 0)
(0.00258256 -0.00881902 0)
(0.00143903 -0.00461247 0)
(-0.00582542 -0.000900729 0)
(0.00404889 -0.00271801 0)
(0.000892054 -0.00624984 0)
(0.00156045 -0.00408248 0)
(0.00105253 -0.00266112 0)
(0.00224711 -0.00481239 0)
(0.00207458 -0.00276131 0)
(0.00141821 -0.00175577 0)
(0.00217106 -0.00158318 0)
(0.00363816 -0.00320641 0)
(0.00124841 -0.00102979 0)
(0.00137845 -0.000211181 0)
(0.00216449 0.0026291 0)
(0.00178996 0.00534774 0)
(0.00248187 0.00708769 0)
(0.0027013 0.00900913 0)
(0.00167384 0.00929865 0)
(0.00213997 0.00906382 0)
(0.00214559 0.010731 0)
(-0.000198478 0.011618 0)
(0.000352605 -0.00882229 0)
(0.00021882 8.35626e-05 0)
(0.00100253 -0.00637435 0)
(-0.00219933 -0.00207732 0)
(-0.000617329 -0.00601118 0)
(-0.00155042 -0.00250024 0)
(-0.00204347 -0.00441175 0)
(-0.00193127 -0.00660268 0)
(-0.000147565 -0.00656973 0)
(0.00133195 -0.0061175 0)
(0.00337781 -0.00712161 0)
(-0.00590689 -0.00267866 0)
(0.000277413 -0.00738272 0)
(0.000225383 -0.00964568 0)
(0.00136431 -0.00824891 0)
(-0.000429619 -0.0105004 0)
(-0.0027446 -0.00753754 0)
(0.00572006 -0.00705009 0)
(-1.92961e-05 -0.00475286 0)
(0.00121177 -0.00643479 0)
(0.00010276 -0.00500298 0)
(-0.000777721 -0.000966928 0)
(-0.00313579 -0.00159876 0)
(-0.00117021 0.00101134 0)
(0.00167717 0.00489751 0)
(-0.00417958 0.00681889 0)
(-0.00419216 0.00375207 0)
(-0.00149568 0.00614506 0)
(-0.0009952 0.00560182 0)
(-0.00100634 0.00279895 0)
(0.00108265 0.00422563 0)
(-0.000477132 0.00295142 0)
(4.65633e-05 0.00208946 0)
(-0.000557439 0.000964234 0)
(-0.000218687 -0.000363142 0)
(0.000883865 0.000291576 0)
(0.00362424 0.00323042 0)
(-0.00410618 -0.000872312 0)
(-0.000634761 -0.00106165 0)
(-0.000465529 -0.00190776 0)
(0.00377304 -0.00576957 0)
(-0.000974874 -0.00636321 0)
(0.0022859 0.00168615 0)
(-0.00117183 0.00420729 0)
(-0.000355854 -0.00508316 0)
(-0.00123062 -0.00442493 0)
(-5.72134e-05 -0.00465928 0)
(0.00051571 -0.00485544 0)
(0.000230377 -0.00847738 0)
(-0.000757163 -0.00962667 0)
(-0.0042446 -0.0105344 0)
(0.00278713 -0.00225433 0)
(0.000990299 -0.00103081 0)
(-0.0011294 -0.0151186 0)
(-0.000319903 -0.0126972 0)
(-0.00214988 -0.000510701 0)
(-0.00256241 -0.00263515 0)
(-0.00168594 -0.0089787 0)
(-0.00204999 -0.00655395 0)
(-0.000289887 -0.00411227 0)
(0.000742945 -0.00457383 0)
(0.000314532 -0.0033277 0)
(0.00221849 -0.00323531 0)
(0.0014978 -0.00170984 0)
(0.00201126 -0.00119932 0)
(0.00194424 -0.000915222 0)
(0.000995479 -0.000868009 0)
(0.00129261 -0.000768683 0)
(-0.000509073 0.000596122 0)
(0.000161439 0.00181753 0)
(-0.000791229 0.0025306 0)
(-0.000345526 0.00249036 0)
(-0.00159382 0.0016911 0)
(0.00181628 0.00200487 0)
(-0.00139082 0.00207982 0)
(-0.000347097 -0.013957 0)
(0.0016789 0.00103572 0)
(-0.000889325 -0.00455147 0)
(-0.00306061 0.00152791 0)
(-0.00159984 -0.00174384 0)
(-0.00129586 0.000408862 0)
(-0.000392798 -0.00105361 0)
(-0.000460441 -0.00108678 0)
(0.00207925 -0.00203894 0)
(0.000407275 -0.00324707 0)
(0.00177335 -0.00682309 0)
(-0.000505429 0.00313975 0)
(-0.00064886 0.00203437 0)
(0.00137698 -0.00821498 0)
(-0.00149218 -0.0087408 0)
(-0.000789185 -0.00968854 0)
(-0.000637145 0.00135014 0)
(-0.000419912 0.00234948 0)
(-0.000421947 -0.00375374 0)
(-0.00234299 -0.00280063 0)
(-0.000828206 -0.000240783 0)
(-0.00210142 0.000982198 0)
(-0.00189106 -0.00109002 0)
(-0.00271483 0.000207282 0)
(-0.0018605 -0.000545097 0)
(-0.00350515 -0.000811893 0)
(-0.0037289 -0.00216754 0)
(-0.000623249 -0.00474771 0)
(-0.00191765 -0.00528472 0)