/*--------------------------------*- C++ -*----------------------------------*\
  =========                 |
  \\      /  F ield         | OpenFOAM: The Open Source CFD Toolbox
   \\    /   O peration     | Website:  https://openfoam.org
    \\  /    A nd           | Version:  12
     \\/     M anipulation  |
\*---------------------------------------------------------------------------*/
FoamFile
{
    format      ascii;
    class       volVectorField::Internal;
    location    "0.15";
    object      cloud:UTrans;
}
// * * * * * * * * * * * * * * * * * * * * * * * * * * * * * * * * * * * * * //

dimensions      [1 1 -1 0 0 0 0];

value           nonuniform List<vector> 
3750
(
(6.81063e-10 1.00253e-08 0)
(2.60817e-09 -1.12888e-08 0)
(1.32545e-11 -5.93902e-10 0)
(-2.22449e-10 -4.08686e-09 0)
(1.02076e-12 -1.71985e-09 0)
(-1.16638e-10 -2.33746e-09 0)
(-5.68527e-11 -2.07959e-09 0)
(-9.94932e-12 -3.36782e-10 0)
(-4.15764e-11 -1.38644e-09 0)
(-6.77879e-11 -2.068e-09 0)
(7.0704e-12 -2.05826e-09 0)
(3.28323e-11 -2.26043e-09 0)
(-4.24469e-11 -2.03143e-09 0)
(-1.68389e-10 -2.2016e-09 0)
(-3.30722e-11 -1.76023e-09 0)
(7.81993e-12 -1.94095e-09 0)
(-5.09016e-11 -2.30786e-09 0)
(1.91385e-10 -2.22711e-09 0)
(6.43116e-11 -2.03905e-09 0)
(4.12899e-11 -1.87695e-09 0)
(-9.80023e-11 -4.9102e-09 0)
(0 0 0)
(-6.10099e-11 -1.66819e-09 0)
(-1.07887e-10 -1.96249e-09 0)
(5.58522e-11 -2.1256e-09 0)
(-1.45069e-11 -2.05331e-09 0)
(2.34812e-11 -2.05268e-09 0)
(0 0 0)
(3.66313e-10 -4.07666e-09 0)
(-2.80368e-11 -1.94284e-09 0)
(3.5784e-11 -2.26291e-09 0)
(1.04457e-10 -1.96369e-09 0)
(-6.08184e-11 -2.15268e-09 0)
(-1.81618e-11 -1.86075e-09 0)
(-6.39234e-11 -2.46476e-09 0)
(-5.24579e-13 -7.04226e-11 0)
(-5.79048e-11 -3.90115e-09 0)
(3.13227e-11 -2.04489e-09 0)
(7.64604e-11 -1.95353e-09 0)
(1.74066e-11 -2.04148e-09 0)
(5.83686e-12 -2.21876e-09 0)
(3.08392e-11 -2.37865e-09 0)
(0 0 0)
(-3.30847e-11 -1.76878e-09 0)
(1.72277e-10 -4.84587e-09 0)
(-2.27845e-12 -2.31182e-09 0)
(2.62712e-11 -2.39344e-09 0)
(0 0 0)
(-5.47782e-12 -4.15207e-09 0)
(2.65769e-11 -1.98867e-09 0)
(-1.37388e-11 -2.02149e-09 0)
(8.77845e-11 -2.27874e-09 0)
(-7.61992e-11 -3.89568e-09 0)
(-2.16209e-11 -8.5807e-10 0)
(-6.73483e-12 -2.16355e-10 0)
(-1.28822e-10 -2.29298e-09 0)
(7.17224e-11 -2.29356e-09 0)
(0 0 0)
(1.8696e-10 -1.86926e-09 0)
(-1.43607e-10 -3.65722e-09 0)
(1.71559e-12 -1.72625e-09 0)
(-2.53453e-11 -1.83734e-09 0)
(-5.46436e-11 -4.38054e-09 0)
(9.31484e-11 -2.1676e-09 0)
(7.61833e-11 -2.22507e-09 0)
(0 0 0)
(-6.5173e-11 -1.72396e-09 0)
(3.44726e-13 -1.94513e-09 0)
(1.72195e-11 -1.94567e-09 0)
(5.08277e-11 -1.9828e-09 0)
(-2.48845e-11 -2.4669e-09 0)
(1.05466e-10 -2.05952e-09 0)
(2.43723e-10 -1.76434e-09 0)
(1.07145e-10 -4.34594e-09 0)
(2.11246e-10 -2.03146e-09 0)
(-1.79766e-10 1.51072e-08 0)
(2.2555e-10 -3.763e-09 0)
(0 0 0)
(-3.30957e-10 -4.78229e-09 0)
(-1.73857e-10 -6.80953e-10 0)
(-9.11159e-11 -2.11252e-09 0)
(-1.50968e-10 -2.27191e-09 0)
(-5.72284e-11 -2.02172e-09 0)
(-9.39159e-11 -2.05421e-09 0)
(-1.22772e-10 -4.44175e-09 0)
(1.90687e-11 -1.75391e-09 0)
(2.83748e-11 -2.22997e-09 0)
(0 0 0)
(-1.70918e-10 -1.94912e-09 0)
(-3.45821e-10 -4.38325e-09 0)
(-1.29705e-10 -1.92556e-09 0)
(1.56056e-11 -6.10712e-10 0)
(1.52726e-10 -3.39149e-09 0)
(-1.13019e-11 -1.77986e-09 0)
(0 0 0)
(-2.47788e-10 -1.99386e-09 0)
(-2.31197e-10 -2.18724e-09 0)
(-8.75168e-11 -1.99046e-09 0)
(-1.3112e-10 -1.9617e-09 0)
(8.36225e-11 -1.77228e-09 0)
(4.13619e-11 -1.80544e-09 0)
(3.36483e-10 -4.00713e-09 0)
(5.51816e-11 -1.7795e-09 0)
(4.48181e-12 -1.7765e-09 0)
(6.50943e-12 -1.90006e-09 0)
(-1.46845e-10 -1.36072e-09 0)
(0 0 0)
(-2.92531e-11 -1.79997e-09 0)
(-1.8971e-10 -5.21293e-09 0)
(-3.12434e-11 -1.8104e-09 0)
(0 0 0)
(5.75321e-11 -5.92117e-09 0)
(1.06334e-10 -1.79798e-09 0)
(3.4035e-11 -1.75034e-09 0)
(0 0 0)
(-3.44999e-10 -1.9835e-09 0)
(7.35965e-11 -1.83502e-09 0)
(-3.55558e-11 -1.40115e-09 0)
(6.31281e-11 -1.01855e-09 0)
(4.64459e-12 -7.14966e-11 0)
(-3.96733e-11 -1.89698e-09 0)
(-3.71109e-11 -5.17907e-09 0)
(1.51765e-11 -1.9002e-09 0)
(-1.95106e-11 -1.90982e-09 0)
(2.86616e-11 -1.97665e-09 0)
(2.6301e-10 -4.259e-09 0)
(-2.75737e-10 -2.16752e-09 0)
(-1.56289e-10 -2.3817e-09 0)
(2.92553e-11 -2.08318e-09 0)
(-1.0142e-10 -2.34001e-09 0)
(-6.39857e-11 -2.31321e-09 0)
(2.18927e-10 -1.6132e-09 0)
(2.24035e-10 -1.6666e-09 0)
(2.56977e-10 -1.85772e-09 0)
(8.87757e-11 -1.81892e-09 0)
(-2.58508e-11 -1.82889e-09 0)
(-3.17881e-11 -1.73189e-09 0)
(-1.81092e-12 -1.94067e-09 0)
(1.04297e-10 -1.9685e-09 0)
(-1.03784e-10 -1.91765e-09 0)
(-1.14656e-10 -2.28698e-09 0)
(-1.09856e-10 -1.83001e-09 0)
(9.10304e-12 -2.19132e-09 0)
(-2.76988e-11 -1.90663e-09 0)
(6.17276e-11 -1.00628e-09 0)
(6.34514e-11 -3.08198e-09 0)
(-2.61561e-12 -3.8827e-10 0)
(-3.30034e-11 -1.89368e-09 0)
(-1.72145e-11 -1.87161e-09 0)
(1.25097e-10 -1.70332e-09 0)
(-3.75671e-10 1.57899e-08 0)
(1.02948e-10 5.69807e-10 0)
(6.20269e-11 -7.32695e-10 0)
(-1.82386e-10 -1.90527e-09 0)
(-4.051e-10 -2.02969e-09 0)
(-1.59116e-10 -1.92807e-09 0)
(-2.77817e-10 -2.13833e-09 0)
(-1.22907e-10 -2.03001e-09 0)
(-1.17467e-11 -4.05021e-09 0)
(1.13781e-11 -9.60423e-10 0)
(2.49672e-11 -1.29838e-09 0)
(-1.88021e-11 -1.89322e-09 0)
(7.00514e-11 -1.99855e-09 0)
(3.90725e-11 -1.97826e-09 0)
(-1.1617e-10 -1.68304e-09 0)
(-1.5055e-10 -1.84666e-09 0)
(-1.2935e-10 -1.95019e-09 0)
(1.71439e-11 -2.04221e-09 0)
(1.37554e-10 -2.31012e-09 0)
(-2.7613e-10 -2.06934e-09 0)
(-2.89676e-10 -1.75186e-09 0)
(-1.85476e-10 -2.27127e-09 0)
(-3.30415e-11 -3.82308e-09 0)
(-1.24588e-10 -1.76999e-09 0)
(6.03171e-11 -2.21566e-09 0)
(1.33578e-10 -2.07567e-09 0)
(5.81977e-11 -1.96206e-09 0)
(1.03528e-11 -1.951e-09 0)
(9.37401e-11 -1.85424e-09 0)
(-2.13719e-10 -1.38952e-09 0)
(-7.86978e-11 -1.88376e-09 0)
(-6.48013e-11 -1.91115e-09 0)
(-1.31117e-10 -1.82152e-09 0)
(-2.14783e-10 -2.10297e-09 0)
(-2.95576e-10 -1.93338e-09 0)
(-1.29748e-11 -1.24616e-09 0)
(-3.24028e-11 -1.69458e-09 0)
(0 0 0)
(1.05177e-10 -1.81607e-09 0)
(-8.41796e-12 -1.94389e-09 0)
(9.2504e-11 -1.95006e-09 0)
(1.49177e-10 -1.84582e-09 0)
(1.47058e-11 -1.91149e-09 0)
(1.48599e-10 -1.55757e-09 0)
(-5.27406e-11 -2.24859e-09 0)
(3.17542e-11 -2.00022e-09 0)
(6.54488e-11 -2.20629e-09 0)
(0 0 0)
(0 0 0)
(0 0 0)
(-9.19783e-12 -3.11012e-10 0)
(-4.03119e-10 -4.54978e-09 0)
(-1.41145e-10 -2.08815e-09 0)
(1.53417e-11 -2.17915e-09 0)
(-1.36056e-10 -2.01584e-09 0)
(-1.7472e-11 -2.09106e-09 0)
(2.66014e-10 -1.96596e-09 0)
(1.59182e-10 -1.62755e-09 0)
(1.65143e-10 -1.46346e-09 0)
(5.58921e-11 -1.66787e-09 0)
(-1.38736e-12 -1.82115e-09 0)
(9.33856e-11 -1.67359e-09 0)
(5.31772e-11 -9.26044e-10 0)
(2.17229e-11 -3.64542e-10 0)
(2.60297e-11 -2.01481e-09 0)
(-2.66054e-10 -4.91246e-09 0)
(-5.83487e-11 -2.03828e-09 0)
(3.78883e-12 -1.76895e-09 0)
(5.49022e-13 -1.51313e-11 0)
(1.75376e-10 -4.73402e-09 0)
(3.31524e-11 -1.89656e-09 0)
(-2.34455e-11 -1.52875e-09 0)
(-7.46312e-11 -1.70226e-09 0)
(0 0 0)
(-2.29387e-11 -2.01324e-09 0)
(1.16601e-09 1.71331e-08 0)
(2.4439e-10 -3.04053e-09 0)
(-4.49009e-12 -1.01889e-10 0)
(-1.74622e-10 -4.39235e-09 0)
(0 0 0)
(-5.3125e-10 -4.81835e-09 0)
(-1.21031e-11 -9.43407e-10 0)
(-2.9488e-12 -1.13979e-09 0)
(4.83102e-11 -4.19305e-09 0)
(6.82547e-11 -2.08457e-09 0)
(-2.16555e-11 -8.44332e-10 0)
(-1.56878e-11 -5.49797e-10 0)
(-8.89896e-11 -1.94792e-09 0)
(-5.49343e-11 -2.06272e-09 0)
(1.51747e-11 -2.15427e-09 0)
(-1.64152e-11 -1.91318e-09 0)
(-2.82517e-11 -1.81155e-09 0)
(-1.4413e-10 -5.31608e-09 0)
(-4.94694e-11 -2.20745e-09 0)
(-6.59966e-11 -1.82588e-09 0)
(-2.55459e-11 -1.69081e-09 0)
(8.75167e-11 -1.82095e-09 0)
(-2.68979e-10 -1.65015e-09 0)
(-2.72103e-12 -1.82353e-09 0)
(6.73104e-11 -1.93123e-09 0)
(1.31919e-10 -1.89429e-09 0)
(2.7111e-10 -1.97588e-09 0)
(1.28215e-10 -1.9904e-09 0)
(8.94749e-11 -1.91639e-09 0)
(1.17516e-11 -2.39771e-09 0)
(-2.507e-10 -2.72176e-09 0)
(-2.11042e-10 -3.49293e-09 0)
(-1.8906e-11 -1.81417e-09 0)
(4.52913e-11 -2.05672e-09 0)
(-2.01039e-11 -3.17185e-10 0)
(-9.27692e-11 -1.48191e-09 0)
(2.85521e-11 -1.84513e-09 0)
(8.08447e-13 -1.89238e-09 0)
(4.21517e-11 -1.99898e-09 0)
(6.51432e-11 -1.85607e-09 0)
(5.05177e-11 -1.78874e-09 0)
(3.066e-11 -1.85332e-09 0)
(-3.21129e-11 -1.9668e-09 0)
(-1.64829e-10 -1.95408e-09 0)
(9.24748e-11 -1.47832e-09 0)
(2.17885e-10 -1.70849e-09 0)
(2.12027e-10 -1.88819e-09 0)
(1.4362e-10 -1.98961e-09 0)
(-3.26981e-11 -1.97736e-09 0)
(-5.38927e-11 -2.29687e-09 0)
(1.17923e-10 -2.08718e-09 0)
(-2.55984e-10 -2.00586e-09 0)
(-1.43563e-10 -2.17728e-09 0)
(-2.58086e-11 -2.15544e-09 0)
(-3.16005e-11 -1.94029e-09 0)
(1.31794e-10 -2.00771e-09 0)
(1.24085e-10 -2.04085e-09 0)
(1.47828e-10 -1.94909e-09 0)
(8.30515e-11 -1.66345e-09 0)
(-1.31748e-10 -1.81359e-09 0)
(-1.46221e-11 -1.92977e-09 0)
(3.2235e-10 -1.8447e-09 0)
(2.1166e-10 -1.8287e-09 0)
(3.55562e-11 -1.93347e-09 0)
(-5.44624e-11 -7.1946e-10 0)
(-1.6263e-10 -3.01203e-09 0)
(-9.93642e-11 -2.12669e-09 0)
(7.1762e-11 -2.11987e-09 0)
(-1.28577e-11 -2.04359e-09 0)
(-2.89022e-11 -1.80866e-09 0)
(5.44472e-11 -1.7747e-09 0)
(-2.5816e-10 -2.08099e-09 0)
(-1.57324e-10 -1.93871e-09 0)
(-5.82456e-11 -2.04566e-09 0)
(-2.72634e-11 -7.71059e-10 0)
(2.6002e-09 1.7915e-08 0)
(-1.50756e-10 -6.31179e-09 0)
(3.28055e-12 -4.22905e-10 0)
(1.60373e-11 -2.82331e-09 0)
(5.97125e-11 -1.83599e-09 0)
(-5.14881e-11 -1.93674e-09 0)
(1.08418e-10 -1.65853e-09 0)
(7.47503e-11 -1.97858e-09 0)
(-4.53848e-11 -1.8323e-09 0)
(3.21011e-11 -2.09743e-09 0)
(-1.23954e-10 -2.32867e-09 0)
(-9.98392e-11 -2.26117e-09 0)
(-3.68642e-11 -9.80731e-10 0)
(8.84057e-11 -2.81743e-09 0)
(-4.96851e-13 -1.15525e-10 0)
(-6.56649e-12 -1.77914e-09 0)
(9.03517e-12 -1.85318e-09 0)
(-2.53773e-11 -1.954e-09 0)
(-8.88313e-11 -5.23688e-09 0)
(-1.8019e-12 -1.99717e-09 0)
(4.42815e-11 -1.77173e-09 0)
(9.37777e-11 -1.64719e-09 0)
(-4.18725e-11 -1.71974e-09 0)
(-6.65392e-11 -2.13492e-09 0)
(-3.23184e-11 -1.9957e-09 0)
(2.43742e-11 -2.02603e-09 0)
(1.46379e-10 -1.90554e-09 0)
(-3.38858e-11 -1.79983e-09 0)
(1.8357e-11 -1.96605e-09 0)
(-2.64515e-11 -5.13346e-10 0)
(-6.37657e-11 -2.17462e-09 0)
(-4.6253e-11 -2.86082e-09 0)
(-2.75996e-10 -1.86253e-09 0)
(4.02068e-11 -3.42954e-09 0)
(1.63546e-11 -4.54956e-10 0)
(1.97214e-13 -2.06816e-09 0)
(-7.07515e-11 -1.83397e-09 0)
(6.87028e-11 -1.87148e-09 0)
(8.26908e-11 -4.1313e-09 0)
(3.08427e-11 -1.84697e-09 0)
(5.14128e-11 -3.49641e-09 0)
(2.35529e-13 -1.87845e-09 0)
(-2.13362e-11 -1.94592e-09 0)
(-1.056e-11 -1.91539e-09 0)
(-2.07532e-10 -2.02187e-09 0)
(2.45876e-10 -2.0406e-09 0)
(1.2032e-10 -1.86757e-09 0)
(2.90499e-10 -4.16728e-09 0)
(-4.00706e-11 -1.97003e-09 0)
(1.89709e-10 -1.80913e-09 0)
(8.27032e-11 -5.20032e-09 0)
(-8.10775e-11 -9.46306e-10 0)
(-1.36504e-10 -1.53227e-09 0)
(-3.23493e-10 -3.74256e-09 0)
(-9.55658e-11 -2.05135e-09 0)
(1.24964e-11 -1.79454e-09 0)
(1.22852e-10 -2.06194e-09 0)
(8.0672e-11 -1.96728e-09 0)
(1.96428e-10 -1.73705e-09 0)
(1.99669e-10 -1.82579e-09 0)
(3.07018e-11 -1.87628e-09 0)
(-6.78386e-11 -2.04157e-09 0)
(-1.45419e-11 -1.85784e-09 0)
(8.66296e-11 -1.92668e-09 0)
(1.83638e-11 -2.03898e-09 0)
(-4.64096e-11 -1.57309e-09 0)
(-1.12713e-10 -1.88045e-09 0)
(-5.07384e-11 -4.98366e-09 0)
(2.36543e-11 -8.12512e-10 0)
(1.57972e-11 -5.45954e-10 0)
(1.1562e-10 -1.77999e-09 0)
(-1.09282e-10 -1.76829e-09 0)
(-1.85308e-10 -1.91024e-09 0)
(-4.97786e-11 -1.92954e-09 0)
(-3.70148e-11 -1.87578e-09 0)
(3.60893e-09 1.84122e-08 0)
(-1.08127e-10 -2.14434e-09 0)
(1.09497e-10 -1.94714e-09 0)
(-5.60733e-11 -3.7633e-09 0)
(5.14524e-11 -1.24631e-09 0)
(-3.72668e-11 -1.84935e-09 0)
(-9.39902e-11 -2.03853e-09 0)
(-9.93834e-11 -1.99419e-09 0)
(-1.53119e-10 -1.87532e-09 0)
(-7.77862e-11 -1.94904e-09 0)
(-1.15467e-10 -2.27241e-09 0)
(-1.1408e-10 -1.99443e-09 0)
(-3.1199e-11 -1.80554e-09 0)
(4.45379e-11 -2.00556e-09 0)
(6.422e-11 -2.12577e-09 0)
(0 0 0)
(1.06157e-10 -1.77611e-09 0)
(-7.60032e-12 -1.92419e-09 0)
(-1.28798e-10 -2.09926e-09 0)
(0 0 0)
(0 0 0)
(1.27523e-10 -1.82986e-09 0)
(2.47566e-11 -1.91051e-09 0)
(3.81783e-11 -1.75083e-09 0)
(1.77345e-10 -1.80557e-09 0)
(1.02616e-10 -2.16085e-09 0)
(-2.91345e-11 -1.8023e-09 0)
(-9.11251e-11 -1.63723e-09 0)
(1.32639e-10 -1.5423e-09 0)
(1.15147e-11 -3.2245e-10 0)
(4.60422e-11 -1.52107e-09 0)
(-2.0476e-11 -1.85399e-09 0)
(1.81391e-11 -1.73786e-09 0)
(-2.72358e-10 -5.18396e-09 0)
(-9.85634e-11 -1.77459e-09 0)
(-1.97111e-11 -1.90193e-09 0)
(2.59646e-12 -1.86679e-09 0)
(6.85587e-11 -4.18243e-09 0)
(-5.13556e-12 -1.66541e-09 0)
(4.25813e-11 -1.64054e-09 0)
(7.62936e-12 -3.00013e-10 0)
(1.61605e-10 -1.95073e-09 0)
(1.87461e-10 -1.83086e-09 0)
(5.29151e-11 -1.83846e-09 0)
(-5.37814e-11 -2.09468e-09 0)
(2.85323e-11 -1.90604e-09 0)
(1.18901e-10 -1.94392e-09 0)
(1.17799e-10 -2.00443e-09 0)
(2.40499e-10 -4.49323e-09 0)
(-1.76538e-10 -4.62509e-09 0)
(2.2673e-12 -9.57941e-10 0)
(-2.02464e-11 -1.31233e-09 0)
(-4.06281e-10 -4.87105e-09 0)
(-1.2028e-10 -2.01307e-09 0)
(5.94462e-11 -1.83209e-09 0)
(1.55559e-10 -2.22161e-09 0)
(1.472e-11 -2.0617e-09 0)
(-2.11374e-11 -1.98491e-09 0)
(5.42019e-12 -1.89904e-09 0)
(9.26431e-12 -1.83957e-09 0)
(6.20932e-11 -1.86048e-09 0)
(-6.42663e-11 -1.91731e-09 0)
(-1.07372e-10 -1.92751e-09 0)
(1.04292e-10 -2.01854e-09 0)
(7.71384e-11 -1.97145e-09 0)
(1.36231e-11 -2.02338e-09 0)
(-9.12643e-11 -2.01475e-09 0)
(-1.04373e-10 -2.19805e-09 0)
(2.13494e-11 -1.91288e-09 0)
(1.60339e-11 -2.1078e-09 0)
(3.29714e-12 -1.79561e-09 0)
(-4.51483e-11 -1.83689e-09 0)
(-7.19072e-11 -1.93337e-09 0)
(-2.26203e-11 -1.83101e-09 0)
(-4.99797e-11 -1.81751e-09 0)
(5.74471e-09 1.44555e-08 0)
(3.10484e-10 -4.43393e-09 0)
(-1.67374e-10 -2.57151e-09 0)
(5.59188e-12 -4.57971e-09 0)
(-3.49527e-11 -1.67408e-09 0)
(3.55217e-11 -2.03923e-09 0)
(-5.03024e-11 -1.9299e-09 0)
(-1.99271e-11 -8.84178e-10 0)
(-9.68557e-12 -4.26698e-10 0)
(-2.20197e-11 -1.88038e-09 0)
(-7.82333e-11 -3.07448e-09 0)
(1.46382e-10 -3.70912e-09 0)
(-8.56042e-11 -1.93558e-09 0)
(9.96931e-12 -2.04014e-09 0)
(-4.01452e-11 -1.89197e-09 0)
(-3.41436e-12 -2.05868e-09 0)
(1.18247e-10 -2.05673e-09 0)
(0 0 0)
(1.01609e-11 -2.14971e-09 0)
(1.42217e-11 -1.90744e-09 0)
(-5.65128e-11 -4.04043e-09 0)
(1.42757e-10 -1.95373e-09 0)
(-3.08419e-11 -1.97144e-09 0)
(0 0 0)
(9.96288e-11 -1.82581e-09 0)
(1.68308e-11 -4.8794e-09 0)
(2.26355e-11 -1.93545e-09 0)
(-9.26915e-11 -1.81607e-09 0)
(2.88838e-11 -2.01179e-09 0)
(1.60852e-10 -2.06577e-09 0)
(1.70466e-10 -1.86742e-09 0)
(4.91846e-11 -1.72298e-09 0)
(-1.76857e-11 -1.85085e-09 0)
(-1.21524e-10 -2.10468e-09 0)
(-2.54086e-10 -2.06626e-09 0)
(-8.40198e-11 -2.00633e-09 0)
(-5.47905e-11 -3.26644e-09 0)
(-2.81174e-11 -5.65904e-10 0)
(-2.53021e-11 -1.86717e-09 0)
(1.38739e-10 -1.87274e-09 0)
(1.09132e-10 -1.72122e-09 0)
(7.43996e-11 -1.86852e-09 0)
(4.40933e-11 -1.88587e-09 0)
(5.23278e-11 -2.02564e-09 0)
(1.1564e-11 -3.04518e-09 0)
(1.1177e-11 -9.5537e-10 0)
(1.9264e-11 -1.7903e-09 0)
(2.46502e-10 -1.99586e-09 0)
(7.87971e-11 -2.22259e-09 0)
(0 0 0)
(7.63851e-12 -2.07244e-09 0)
(-1.9623e-10 -5.33242e-09 0)
(-2.08504e-10 -2.14637e-09 0)
(-1.137e-10 -2.0729e-09 0)
(1.81193e-10 -1.87195e-09 0)
(1.81297e-10 -2.00447e-09 0)
(3.93393e-11 -2.00458e-09 0)
(-6.54974e-11 -2.02786e-09 0)
(-1.86258e-11 -1.88351e-09 0)
(4.53388e-11 -1.88701e-09 0)
(9.88868e-11 -1.82731e-09 0)
(-1.85598e-10 -2.14436e-09 0)
(1.05399e-11 -2.23743e-09 0)
(1.15741e-10 -2.17869e-09 0)
(1.78933e-10 -2.09008e-09 0)
(1.46543e-10 -2.05825e-09 0)
(-4.53173e-11 -1.91791e-09 0)
(-1.0436e-10 -2.22525e-09 0)
(-6.99539e-11 -2.19381e-09 0)
(-8.55311e-11 -1.92964e-09 0)
(2.66595e-11 -1.76095e-09 0)
(5.15148e-11 -5.37072e-10 0)
(2.99324e-10 -2.74549e-09 0)
(-2.92034e-10 -1.72948e-09 0)
(-4.03202e-11 -1.9968e-09 0)
(7.42487e-09 2.2098e-08 0)
(2.74717e-11 -3.81714e-09 0)
(-5.84575e-11 -4.78122e-10 0)
(1.23359e-10 -2.24257e-09 0)
(-6.68344e-11 -1.28937e-09 0)
(2.30088e-11 -2.14118e-09 0)
(5.66079e-13 -1.30262e-10 0)
(4.01885e-11 -2.27351e-09 0)
(8.39564e-11 -4.79178e-09 0)
(1.62493e-10 -2.00078e-09 0)
(1.15725e-10 -1.91648e-09 0)
(1.07904e-10 -1.86821e-09 0)
(-1.40669e-10 -1.99962e-09 0)
(-2.67227e-10 -5.14874e-09 0)
(-1.61494e-11 -1.7923e-09 0)
(1.40547e-10 -1.96386e-09 0)
(1.71673e-10 -1.89937e-09 0)
(7.78061e-11 -4.29733e-09 0)
(-1.62635e-10 -1.7915e-09 0)
(-8.06937e-11 -4.0416e-09 0)
(-1.03289e-11 -1.73198e-09 0)
(-5.69776e-11 -1.82398e-09 0)
(5.03196e-12 -1.82092e-09 0)
(3.1736e-10 -1.92398e-09 0)
(1.00255e-10 -1.86629e-09 0)
(-2.12746e-11 -1.93085e-09 0)
(2.33168e-11 -2.16632e-09 0)
(-1.54678e-10 -2.26916e-09 0)
(-2.57896e-10 -1.96845e-09 0)
(-4.02659e-11 -3.9687e-09 0)
(5.1929e-11 -1.07083e-09 0)
(6.96585e-11 -1.04181e-09 0)
(1.16067e-10 -1.80196e-09 0)
(-3.58145e-11 -2.01928e-09 0)
(-9.77303e-11 -9.79511e-10 0)
(-3.71281e-11 -2.54084e-09 0)
(0 0 0)
(0 0 0)
(4.46892e-11 -2.04056e-09 0)
(1.11396e-10 -1.74196e-09 0)
(9.90093e-11 -1.69246e-09 0)
(-2.92482e-10 -1.5356e-09 0)
(1.18486e-10 -2.14194e-09 0)
(3.6903e-10 -1.91856e-09 0)
(1.67933e-10 -5.04548e-09 0)
(-5.75285e-11 -1.80073e-09 0)
(-6.33481e-11 -1.57172e-09 0)
(1.66455e-11 -2.01734e-09 0)
(1.04772e-10 -2.0744e-09 0)
(1.68525e-10 -2.30597e-09 0)
(-4.78535e-12 -1.06787e-09 0)
(-3.53385e-10 -3.64729e-09 0)
(-3.08988e-10 -2.32866e-09 0)
(-2.07776e-11 -6.48646e-10 0)
(-1.76207e-11 -9.50551e-10 0)
(2.63629e-11 -4.45743e-09 0)
(-2.9491e-12 -3.296e-10 0)
(-1.47144e-11 -1.49989e-09 0)
(3.7458e-11 -1.86574e-09 0)
(1.87046e-10 -1.77977e-09 0)
(1.08096e-10 -1.84125e-09 0)
(7.82241e-11 -2.08811e-09 0)
(4.81469e-11 -2.04187e-09 0)
(6.4768e-11 -2.00183e-09 0)
(7.10045e-11 -2.1206e-09 0)
(1.5379e-10 -1.99461e-09 0)
(1.43763e-11 -2.03268e-09 0)
(-1.6701e-10 -2.03702e-09 0)
(-1.50648e-10 -1.93424e-09 0)
(-7.0425e-11 -1.92307e-09 0)
(1.77851e-10 -1.81626e-09 0)
(1.35439e-10 -1.85506e-09 0)
(3.28035e-11 -1.8519e-09 0)
(2.90132e-11 -1.72259e-09 0)
(-3.40232e-10 -5.10307e-09 0)
(5.56636e-09 2.11801e-08 0)
(2.146e-10 -2.32988e-09 0)
(7.88789e-11 -8.52548e-10 0)
(-1.59492e-11 -1.79086e-09 0)
(-1.51019e-10 -1.64748e-09 0)
(-1.60312e-10 -1.93316e-09 0)
(-1.226e-11 -1.85225e-09 0)
(5.43291e-11 -1.91748e-09 0)
(7.34842e-11 -4.7858e-09 0)
(1.1827e-10 -1.97263e-09 0)
(2.35351e-10 -2.09199e-09 0)
(9.83659e-11 -2.02526e-09 0)
(-7.08372e-11 -1.99704e-09 0)
(-7.4605e-11 -1.93927e-09 0)
(2.31383e-10 -1.69004e-09 0)
(-6.18813e-11 -1.7153e-09 0)
(9.31273e-11 -1.72383e-09 0)
(1.41163e-11 -1.84204e-09 0)
(0 0 0)
(2.83957e-10 -2.05685e-09 0)
(1.46715e-10 -3.82659e-09 0)
(2.70249e-11 -1.66235e-09 0)
(8.06544e-11 -1.78363e-09 0)
(5.88761e-11 -1.74261e-09 0)
(1.8581e-11 -1.86658e-09 0)
(-1.17211e-10 -1.74541e-09 0)
(-1.82174e-10 -2.15965e-09 0)
(0 0 0)
(-1.59404e-10 -2.0084e-09 0)
(-8.68946e-11 -1.9126e-09 0)
(5.43116e-11 -1.91534e-09 0)
(1.22892e-10 -1.91294e-09 0)
(2.93728e-12 -2.21962e-09 0)
(9.38903e-12 -1.95704e-09 0)
(-1.69933e-12 -7.92454e-11 0)
(-2.87736e-11 -1.70583e-09 0)
(7.90674e-11 -1.93678e-09 0)
(1.19749e-10 -1.90717e-09 0)
(1.61012e-11 -4.6082e-09 0)
(4.98722e-11 -1.90463e-09 0)
(1.64797e-11 -1.67616e-09 0)
(1.15232e-11 -1.69158e-09 0)
(-2.33417e-11 -2.13317e-09 0)
(1.91722e-10 -1.91379e-09 0)
(9.84444e-11 -1.96404e-09 0)
(-1.03686e-10 -1.8895e-09 0)
(-2.67958e-10 -1.79759e-09 0)
(-2.69088e-10 -1.98725e-09 0)
(1.387e-10 -2.38704e-09 0)
(2.72631e-10 -3.13375e-09 0)
(-1.47154e-10 -4.97008e-09 0)
(-2.85793e-10 -2.54215e-09 0)
(-1.03747e-10 -2.17457e-09 0)
(2.61552e-11 -3.87778e-10 0)
(1.1175e-10 -2.3532e-09 0)
(-5.50585e-11 -3.27498e-09 0)
(1.75364e-11 -2.27824e-09 0)
(0 0 0)
(5.59193e-11 -1.69251e-09 0)
(6.71138e-11 -1.53363e-09 0)
(9.61192e-11 -1.56104e-09 0)
(1.17796e-10 -2.20005e-09 0)
(4.30663e-11 -8.49038e-10 0)
(2.20077e-10 -3.74072e-09 0)
(0 0 0)
(1.13501e-10 -2.82265e-09 0)
(-1.16124e-10 -4.07779e-09 0)
(-6.74197e-11 -2.05858e-09 0)
(-1.92618e-10 -1.79626e-09 0)
(-1.20223e-10 -1.66132e-09 0)
(1.2734e-10 -1.92945e-09 0)
(1.39899e-10 -1.86323e-09 0)
(2.08214e-11 -1.90487e-09 0)
(9.14523e-12 -1.91349e-09 0)
(-6.43229e-11 -2.35831e-09 0)
(3.5912e-09 2.17203e-08 0)
(1.58459e-10 -3.82422e-09 0)
(2.73617e-10 -1.02622e-09 0)
(6.06744e-11 -2.59946e-09 0)
(-9.11049e-11 -1.54493e-09 0)
(-2.4819e-10 -1.86082e-09 0)
(-2.2052e-11 -1.55991e-09 0)
(1.36215e-10 -1.86856e-09 0)
(5.677e-11 -5.0692e-09 0)
(8.87689e-11 -1.90772e-09 0)
(1.33892e-10 -2.33121e-09 0)
(1.80668e-11 -2.12284e-09 0)
(8.74065e-11 -2.20629e-09 0)
(4.46306e-12 -6.28812e-10 0)
(-4.93275e-12 -3.29895e-09 0)
(-6.91465e-11 -1.60219e-09 0)
(4.42436e-11 -1.93949e-09 0)
(0 0 0)
(1.36413e-10 -1.8407e-09 0)
(2.60174e-10 -2.37144e-09 0)
(1.09042e-10 -4.41148e-09 0)
(-9.65829e-11 -1.86815e-09 0)
(9.37066e-11 -1.68492e-09 0)
(3.80924e-11 -1.75426e-09 0)
(-2.56597e-11 -2.14366e-09 0)
(-5.40064e-11 -1.11614e-09 0)
(-4.18906e-12 -7.74634e-11 0)
(-1.19565e-10 -1.91411e-09 0)
(-8.16777e-11 -1.93149e-09 0)
(2.64255e-12 -1.9197e-09 0)
(-2.50177e-12 -1.78669e-09 0)
(2.82357e-10 -1.63318e-09 0)
(-9.11892e-12 -2.03919e-09 0)
(9.06002e-12 -2.04976e-09 0)
(5.44402e-11 -1.8227e-09 0)
(8.48229e-11 -1.75238e-09 0)
(8.55614e-11 -1.86602e-09 0)
(-8.71211e-11 -1.99311e-09 0)
(-3.46365e-10 -1.77423e-09 0)
(1.05017e-11 -2.04347e-09 0)
(1.67337e-11 -2.13327e-09 0)
(1.09036e-10 -2.07929e-09 0)
(-9.99963e-11 -2.09149e-09 0)
(-1.98809e-10 -1.83234e-09 0)
(-3.16113e-11 -1.71503e-09 0)
(-1.09737e-10 -1.87277e-09 0)
(-2.00594e-10 -1.83814e-09 0)
(1.04711e-10 -2.03974e-09 0)
(-1.35193e-10 -2.95574e-09 0)
(-2.70053e-10 -4.48545e-09 0)
(-2.60953e-10 -2.6097e-09 0)
(-2.76228e-11 -2.54179e-09 0)
(9.02585e-11 -2.02869e-09 0)
(8.92319e-11 -8.32017e-10 0)
(3.4618e-11 -2.96181e-10 0)
(1.28474e-11 -2.22983e-09 0)
(-3.07359e-11 -2.79265e-09 0)
(3.45933e-11 -1.56805e-09 0)
(-8.48591e-12 -1.92159e-09 0)
(1.3325e-11 -1.74408e-09 0)
(4.75456e-11 -1.69978e-09 0)
(2.05469e-10 -2.17655e-09 0)
(1.24814e-10 -2.21862e-09 0)
(1.63777e-10 -1.99195e-09 0)
(7.49119e-11 -8.42554e-10 0)
(1.51338e-10 -2.82476e-09 0)
(4.02017e-11 -9.04911e-10 0)
(1.1102e-10 -3.05583e-09 0)
(1.19969e-10 -1.82883e-09 0)
(9.91477e-12 -1.66851e-09 0)
(1.83745e-10 -1.8789e-09 0)
(1.32192e-10 -1.8415e-09 0)
(8.11533e-11 -1.77747e-09 0)
(-2.6429e-11 -1.72357e-09 0)
(-3.3686e-11 -2.02206e-09 0)
(4.85231e-09 2.61891e-08 0)
(-1.25824e-11 -1.85515e-09 0)
(-9.16122e-11 -1.57506e-09 0)
(-2.86331e-10 -2.3767e-09 0)
(-2.01288e-11 -1.17575e-09 0)
(9.28743e-12 -2.0302e-09 0)
(1.91159e-11 -1.77877e-09 0)
(-6.15141e-11 -1.95274e-09 0)
(-2.66048e-11 -2.10379e-09 0)
(6.38917e-11 -2.06311e-09 0)
(8.2796e-11 -2.064e-09 0)
(1.06853e-10 -2.33764e-09 0)
(4.68926e-11 -2.11471e-09 0)
(1.59673e-10 -1.96795e-09 0)
(-5.42963e-11 -2.12559e-09 0)
(-3.15332e-11 -9.0387e-10 0)
(4.27855e-11 -2.45891e-09 0)
(1.7305e-10 -2.08204e-09 0)
(2.23409e-10 -2.22756e-09 0)
(1.23956e-10 -2.60253e-09 0)
(1.11222e-11 -3.3492e-10 0)
(5.02598e-11 -1.63943e-09 0)
(1.47869e-10 -3.29556e-09 0)
(1.39732e-11 -2.34111e-09 0)
(-1.78226e-10 -2.4251e-09 0)
(2.98082e-11 -2.18719e-09 0)
(-2.01498e-10 -2.03795e-09 0)
(-4.75872e-11 -1.77918e-09 0)
(-5.43646e-11 -1.76695e-09 0)
(-1.39975e-10 -1.86683e-09 0)
(-2.4943e-10 -1.8259e-09 0)
(-2.50652e-10 -1.96038e-09 0)
(7.43191e-11 -2.00842e-09 0)
(-2.07343e-11 -1.94706e-09 0)
(-1.37467e-10 -1.69825e-09 0)
(1.06365e-11 -1.85281e-09 0)
(2.96869e-11 -2.34007e-09 0)
(-1.24038e-10 -4.09438e-09 0)
(-9.73013e-12 -6.48617e-10 0)
(-8.74043e-12 -6.00492e-10 0)
(-2.02454e-11 -1.79033e-09 0)
(-9.0487e-11 -2.00149e-09 0)
(2.52777e-11 -2.07201e-09 0)
(5.04681e-11 -2.27207e-09 0)
(1.94089e-10 -2.24171e-09 0)
(-2.94996e-11 -2.56397e-09 0)
(-4.47919e-11 -2.17797e-09 0)
(-2.27085e-10 -3.83444e-09 0)
(-2.75118e-10 -2.11615e-09 0)
(-1.49957e-10 -2.35791e-09 0)
(-1.15527e-10 -2.51899e-09 0)
(-5.5268e-11 -2.38234e-09 0)
(5.9003e-11 -9.1061e-10 0)
(1.81275e-11 -2.56884e-10 0)
(4.79211e-11 -1.7542e-09 0)
(4.08336e-11 -1.67525e-09 0)
(-4.69845e-11 -1.99817e-09 0)
(4.50781e-11 -1.98169e-09 0)
(-3.71145e-13 -1.83783e-09 0)
(-8.97847e-11 -1.75076e-09 0)
(-7.08311e-11 -1.72564e-09 0)
(-7.20869e-11 -1.81045e-09 0)
(-1.07003e-10 -1.67128e-09 0)
(3.01176e-10 -2.01796e-09 0)
(3.3147e-10 -2.00883e-09 0)
(1.91912e-10 -1.93473e-09 0)
(1.59918e-10 -2.01015e-09 0)
(7.36142e-11 -2.11211e-09 0)
(1.16765e-11 -2.0468e-09 0)
(1.35467e-10 -1.89531e-09 0)
(-2.62308e-11 -1.7741e-09 0)
(-1.31489e-10 -1.86537e-09 0)
(-8.82576e-11 -2.03072e-09 0)
(1.74262e-11 -2.04171e-09 0)
(2.16757e-12 -2.01496e-09 0)
(-3.04243e-09 1.70971e-08 0)
(-1.94586e-10 -5.26829e-09 0)
(1.6108e-10 -3.93177e-09 0)
(-5.34312e-11 -1.98073e-09 0)
(5.65704e-11 -1.2757e-09 0)
(2.97269e-10 -1.96179e-09 0)
(6.02215e-11 -1.88884e-09 0)
(1.67634e-11 -1.98679e-09 0)
(6.03594e-11 -1.98681e-09 0)
(1.26121e-10 -2.08567e-09 0)
(1.16798e-10 -2.23065e-09 0)
(-9.26043e-11 -2.43596e-09 0)
(5.82926e-11 -2.25895e-09 0)
(2.58724e-10 -1.95284e-09 0)
(3.79241e-12 -2.02375e-09 0)
(1.45058e-11 -1.86684e-09 0)
(-2.7638e-11 -1.62847e-09 0)
(6.11643e-12 -1.64791e-09 0)
(1.23551e-10 -2.17605e-09 0)
(1.95291e-10 -2.38091e-09 0)
(1.62037e-10 -2.04564e-09 0)
(7.52916e-11 -1.71596e-09 0)
(4.38397e-11 -1.80008e-09 0)
(-2.19656e-11 -2.11923e-09 0)
(-1.30529e-10 -2.06995e-09 0)
(-2.51365e-10 -1.90669e-09 0)
(-1.04193e-10 -1.91767e-09 0)
(-8.14437e-11 -1.94283e-09 0)
(-1.15925e-10 -1.84071e-09 0)
(-1.67889e-10 -1.74665e-09 0)
(-1.70427e-10 -1.82507e-09 0)
(-3.59922e-10 -1.92142e-09 0)
(-2.08852e-10 -1.79608e-09 0)
(1.43924e-10 -1.68124e-09 0)
(2.42933e-10 -2.09743e-09 0)
(1.69046e-10 -1.90633e-09 0)
(-9.75479e-11 -3.54163e-09 0)
(-1.2302e-10 -3.13364e-09 0)
(-5.50017e-11 -8.4043e-10 0)
(-2.66982e-11 -3.86155e-10 0)
(-1.03041e-10 -1.74339e-09 0)
(-4.0665e-11 -1.85454e-09 0)
(1.4009e-11 -2.41279e-09 0)
(1.21651e-10 -2.31657e-09 0)
(1.32603e-10 -3.8746e-09 0)
(7.15225e-12 -1.99216e-09 0)
(-5.70764e-11 -1.97463e-09 0)
(-2.08143e-10 -1.96073e-09 0)
(-2.14253e-10 -1.94733e-09 0)
(-6.30205e-11 -2.17058e-09 0)
(1.77225e-11 -2.57479e-09 0)
(0 0 0)
(1.71356e-10 -2.12625e-09 0)
(4.16691e-11 -1.97559e-09 0)
(3.18395e-11 -2.047e-09 0)
(-1.22811e-10 -1.79097e-09 0)
(-4.60682e-11 -2.18713e-09 0)
(1.0406e-10 -2.08399e-09 0)
(3.18259e-11 -1.77117e-09 0)
(-9.03063e-11 -1.56694e-09 0)
(-1.99416e-10 -1.75647e-09 0)
(-1.06004e-10 -1.92959e-09 0)
(-3.50841e-10 -1.98621e-09 0)
(1.94077e-10 -2.03378e-09 0)
(1.64707e-10 -2.059e-09 0)
(2.27057e-10 -2.09996e-09 0)
(1.95288e-10 -2.02508e-09 0)
(1.82397e-10 -1.93212e-09 0)
(-2.2892e-10 -2.20875e-09 0)
(1.56424e-11 -1.43513e-09 0)
(4.10924e-11 -1.60139e-09 0)
(-1.97661e-11 -1.86993e-09 0)
(7.92184e-11 -2.05451e-09 0)
(1.58124e-10 -1.8727e-09 0)
(1.28767e-10 -1.95456e-09 0)
(5.61242e-09 2.55207e-08 0)
(-3.21175e-11 -3.58085e-09 0)
(-1.24469e-10 -1.86961e-09 0)
(3.45839e-11 -2.07254e-09 0)
(-1.19363e-10 -1.55026e-09 0)
(2.902e-10 -2.0716e-09 0)
(1.81115e-10 -1.93908e-09 0)
(1.56958e-10 -1.91906e-09 0)
(1.29363e-10 -1.97362e-09 0)
(-5.88057e-11 -1.87984e-09 0)
(-1.65663e-11 -2.3738e-09 0)
(-8.39888e-11 -2.4542e-09 0)
(5.8768e-11 -1.9139e-09 0)
(1.08083e-10 -1.75758e-09 0)
(2.39116e-10 -1.8405e-09 0)
(-1.40523e-11 -1.67002e-09 0)
(-2.31453e-10 -1.72449e-09 0)
(-2.26513e-10 -1.83907e-09 0)
(-1.18305e-10 -2.04327e-09 0)
(7.3633e-11 -1.95213e-09 0)
(2.02897e-10 -2.07217e-09 0)
(1.42025e-10 -1.83035e-09 0)
(1.79832e-11 -1.79793e-09 0)
(4.05052e-11 -2.33651e-09 0)
(0 0 0)
(-4.12883e-11 -2.09075e-09 0)
(-2.3008e-10 -2.04814e-09 0)
(-4.18476e-11 -1.87083e-09 0)
(8.34008e-13 -4.88793e-09 0)
(-1.29733e-12 -2.02276e-09 0)
(3.37325e-11 -1.73028e-09 0)
(-2.4057e-10 -1.75576e-09 0)
(-1.79262e-10 -1.94045e-09 0)
(-6.01977e-11 -1.82814e-09 0)
(-1.09438e-11 -1.85103e-09 0)
(4.1102e-11 -1.97535e-09 0)
(1.69219e-10 -2.01785e-09 0)
(-4.866e-11 -2.05696e-09 0)
(-1.48627e-10 -1.98058e-09 0)
(-2.38496e-11 -1.86732e-09 0)
(-2.34064e-11 -1.9345e-09 0)
(-5.27551e-11 -2.55558e-09 0)
(3.71622e-11 -2.8787e-09 0)
(-3.17809e-11 -2.10026e-09 0)
(-1.34931e-10 -2.91443e-09 0)
(-6.10639e-12 -2.23684e-09 0)
(-1.24254e-10 -2.12391e-09 0)
(-2.26586e-11 -2.18574e-09 0)
(2.31072e-11 -1.93726e-09 0)
(1.05868e-11 -7.64886e-10 0)
(1.52545e-11 -9.33763e-10 0)
(2.64275e-11 -2.59283e-09 0)
(-4.16253e-12 -1.71897e-09 0)
(-1.92925e-13 -4.79431e-11 0)
(-2.80655e-11 -2.21888e-09 0)
(-1.86806e-10 -4.25912e-09 0)
(0 0 0)
(-1.11266e-10 -3.56224e-09 0)
(-5.25173e-11 -3.02119e-09 0)
(9.91969e-12 -1.72879e-09 0)
(8.74491e-11 -1.44721e-09 0)
(3.76051e-11 -2.00716e-09 0)
(1.12013e-10 -1.86719e-09 0)
(1.56237e-10 -1.73878e-09 0)
(2.21296e-10 -2.0054e-09 0)
(2.31503e-10 -2.16559e-09 0)
(-1.0487e-11 -1.87957e-09 0)
(-1.09448e-10 -2.13751e-09 0)
(-6.04678e-11 -1.60026e-09 0)
(1.75679e-10 -1.89154e-09 0)
(1.67529e-10 -1.72119e-09 0)
(-1.90709e-10 -1.75583e-09 0)
(-6.35626e-12 -1.69792e-09 0)
(1.83603e-10 -1.90863e-09 0)
(7.29684e-12 -1.70397e-09 0)
(2.26098e-09 2.63648e-08 0)
(-8.49873e-11 -1.83812e-09 0)
(-2.93238e-11 -4.95307e-10 0)
(2.86831e-11 -2.34753e-09 0)
(1.77856e-10 -2.39461e-09 0)
(2.46277e-10 -1.85602e-09 0)
(9.25451e-11 -2.00242e-09 0)
(2.03621e-10 -1.75964e-09 0)
(2.34041e-10 -1.82462e-09 0)
(2.80178e-11 -2.31336e-09 0)
(-2.36215e-10 -2.67172e-09 0)
(6.86836e-11 -2.20778e-09 0)
(1.47895e-10 -2.05046e-09 0)
(7.56482e-11 -1.99143e-09 0)
(5.52482e-11 -1.87329e-09 0)
(3.66237e-11 -1.91198e-09 0)
(-2.52295e-10 -1.82387e-09 0)
(-2.02445e-10 -1.86959e-09 0)
(-1.39216e-10 -1.98395e-09 0)
(-1.88403e-10 -2.02317e-09 0)
(1.86614e-10 -1.94287e-09 0)
(2.86626e-10 -1.78291e-09 0)
(1.99312e-10 -1.89435e-09 0)
(3.07821e-11 -2.27008e-09 0)
(1.07515e-11 -2.22752e-09 0)
(-8.60158e-11 -1.78535e-09 0)
(-1.76341e-11 -1.75284e-09 0)
(-3.03242e-10 -2.28779e-09 0)
(-2.80929e-10 -2.38323e-09 0)
(1.9502e-11 -2.28508e-09 0)
(1.61617e-10 -1.80751e-09 0)
(2.01447e-10 -1.8608e-09 0)
(1.41031e-11 -1.80844e-09 0)
(-3.94699e-10 -2.22487e-09 0)
(-2.07893e-10 -2.06613e-09 0)
(-2.93535e-11 -1.92244e-09 0)
(-1.46482e-11 -1.71758e-09 0)
(2.17663e-10 -1.68916e-09 0)
(1.30546e-10 -1.77895e-09 0)
(2.87402e-11 -1.84041e-09 0)
(-1.93445e-10 -2.10473e-09 0)
(-8.59943e-11 -2.02815e-09 0)
(-2.91769e-11 -2.14389e-09 0)
(-1.52189e-12 -3.4999e-09 0)
(-1.98209e-11 -7.41498e-10 0)
(-4.16797e-11 -2.46363e-09 0)
(2.94384e-11 -1.18274e-09 0)
(4.07262e-11 -2.23005e-09 0)
(5.56851e-11 -2.01672e-09 0)
(2.01543e-10 -2.00084e-09 0)
(5.22918e-11 -2.31368e-09 0)
(-2.11532e-10 -2.14017e-09 0)