/*--------------------------------*- C++ -*----------------------------------*\
  =========                 |
  \\      /  F ield         | OpenFOAM: The Open Source CFD Toolbox
   \\    /   O peration     | Website:  https://openfoam.org
    \\  /    A nd           | Version:  12
     \\/     M anipulation  |
\*---------------------------------------------------------------------------*/
FoamFile
{
    format      ascii;
    class       volScalarField;
    location    "0.15";
    object      p;
}
// * * * * * * * * * * * * * * * * * * * * * * * * * * * * * * * * * * * * * //

dimensions      [0 2 -2 0 0 0 0];

internalField   nonuniform List<scalar> 
3750
(
1.48994
1.47175
1.46916
1.45945
1.44984
1.4405
1.4301
1.42272
1.40555
1.39615
1.38515
1.37681
1.36622
1.35869
1.34919
1.3381
1.32854
1.31683
1.3062
1.29648
1.28538
1.28673
1.27476
1.2637
1.25319
1.24291
1.2327
1.22364
1.21421
1.19884
1.18874
1.17782
1.16666
1.15597
1.14863
1.13817
1.11831
1.12317
1.11274
1.10149
1.09067
1.08006
1.06944
1.05829
1.04557
1.03525
1.02612
1.02115
1.0132
1.00497
0.997745
0.981884
0.966039
0.971157
0.953442
0.948582
0.943778
0.930153
0.921618
0.912073
0.90203
0.890935
0.878342
0.878746
0.867799
0.852985
0.844503
0.835245
0.824838
0.814129
0.803866
0.790596
0.778593
0.765215
0.765198
1.48931
1.47151
1.469
1.46132
1.44852
1.44183
1.42848
1.4201
1.40909
1.39757
1.3837
1.37335
1.36953
1.36013
1.34955
1.33796
1.33078
1.31573
1.30658
1.29831
1.29023
1.28425
1.27316
1.26308
1.25292
1.24288
1.2329
1.22317
1.21283
1.20081
1.18973
1.17813
1.16642
1.15473
1.14918
1.13649
1.12317
1.12145
1.1116
1.10084
1.09042
1.08006
1.06989
1.05976
1.0433
1.03425
1.02383
1.02297
1.01293
1.00383
0.99444
0.982498
0.973361
0.967211
0.953111
0.948162
0.944391
0.933172
0.921893
0.912527
0.903064
0.892655
0.882277
0.87428
0.864838
0.852848
0.845512
0.83643
0.825148
0.813636
0.806964
0.789338
0.780271
0.768974
0.762069
1.49227
1.47809
1.47194
1.45925
1.45025
1.44042
1.43206
1.42043
1.41063
1.39862
1.38322
1.37452
1.36776
1.35876
1.34914
1.33814
1.32779
1.31586
1.30846
1.30172
1.29315
1.28574
1.27013
1.26224
1.25255
1.2426
1.23275
1.2229
1.21287
1.20229
1.19118
1.17851
1.16646
1.157
1.14769
1.13647
1.12738
1.11758
1.10966
1.09998
1.08992
1.07983
1.07028
1.05638
1.04509
1.03492
1.02592
1.0197
1.01123
1.00287
0.995177
0.979653
0.977273
0.968234
0.956192
0.946685
0.941518
0.932206
0.922334
0.912857
0.905234
0.893754
0.884234
0.870714
0.862814
0.850775
0.8477
0.839247
0.827859
0.809816
0.806159
0.791802
0.783535
0.771246
0.76151
1.4891
1.4744
1.47761
1.45446
1.45097
1.43879
1.43752
1.41917
1.40304
1.39873
1.38769
1.37705
1.36676
1.35792
1.35041
1.33792
1.32646
1.31358
1.30902
1.30634
1.29431
1.28384
1.27209
1.26202
1.25206
1.24223
1.23259
1.22301
1.21358
1.20429
1.1941
1.17744
1.16576
1.15954
1.14806
1.13434
1.12704
1.11781
1.10911
1.09889
1.08942
1.07901
1.06844
1.05688
1.0459
1.03535
1.02607
1.01778
1.00936
1.00111
0.994812
0.985037
0.976185
0.965808
0.95898
0.949116
0.940673
0.931434
0.921836
0.912448
0.903007
0.893042
0.882828
0.873145
0.865823
0.850546
0.845435
0.836884
0.829398
0.813918
0.803827
0.793557
0.784034
0.773814
0.763292
1.48832
1.4742
1.47853
1.45708
1.44608
1.4398
1.43291
1.417
1.40498
1.39511
1.38362
1.37958
1.37435
1.35614
1.35455
1.33665
1.32702
1.31673
1.30845
1.30692
1.29417
1.28351
1.27244
1.26176
1.2514
1.2417
1.23245
1.22307
1.214
1.20715
1.19161
1.17556
1.16692
1.15989
1.14613
1.13686
1.12777
1.11803
1.10936
1.0975
1.08998
1.07819
1.06751
1.05691
1.04639
1.03445
1.02477
1.01609
1.00766
0.998082
0.988864
0.989287
0.974834
0.963009
0.961874
0.949578
0.940495
0.931116
0.921543
0.911988
0.902456
0.892704
0.882808
0.873238
0.863989
0.8532
0.844165
0.834111
0.833402
0.813947
0.803233
0.793514
0.783516
0.773473
0.762614
1.49078
1.47575
1.47341
1.45925
1.44676
1.43808
1.42854
1.41822
1.40545
1.39483
1.3844
1.3818
1.37001
1.35944
1.35323
1.33873
1.32866
1.31881
1.3107
1.30488
1.29424
1.28327
1.27233
1.26113
1.25032
1.24007
1.23254
1.22311
1.21346
1.20574
1.18961
1.17803
1.16696
1.15609
1.15047
1.13929
1.12902
1.11727
1.10596
1.09342
1.08328
1.07593
1.06652
1.05688
1.04836
1.03134
1.02238
1.01338
1.00557
0.995874
0.994953
0.983961
0.971268
0.970151
0.961899
0.950383
0.940817
0.931014
0.921144
0.911508
0.902032
0.892352
0.882565
0.873152
0.86381
0.854035
0.844596
0.835603
0.828352
0.816224
0.805377
0.79402
0.78293
0.772572
0.764156
1.48845
1.47588
1.47426
1.45925
1.44616
1.43797
1.42631
1.42046
1.40272
1.39676
1.38978
1.37703
1.36933
1.3599
1.35355
1.34042
1.3301
1.3202
1.3098
1.30638
1.29451
1.2829
1.27328
1.25875
1.24867
1.23728
1.23329
1.2235
1.21244
1.20054
1.19355
1.17931
1.16741
1.1567
1.15105
1.13923
1.13211
1.11693
1.10191
1.09416
1.0853
1.07567
1.06575
1.05581
1.04698
1.03146
1.02025
1.00999
1.00162
1.00068
0.993066
0.980608
0.979892
0.974779
0.962172
0.949026
0.941942
0.931041
0.92088
0.910777
0.901625
0.892067
0.881947
0.873053
0.864343
0.854693
0.844948
0.83612
0.826817
0.816724
0.807635
0.795585
0.781031
0.769419
0.760578
1.48322
1.4752
1.47838
1.45724
1.44786
1.43603
1.4283
1.41505
1.39877
1.39891
1.3899
1.37846
1.36851
1.35832
1.35647
1.3411
1.33117
1.32175
1.31314
1.30584
1.29388
1.28175
1.27109
1.25804
1.24767
1.2382
1.23039
1.22323
1.21303
1.20417
1.19161
1.17672
1.16763
1.15688
1.15468
1.13419
1.13014
1.11649
1.10243
1.09727
1.08653
1.07568
1.06502
1.05392
1.04132
1.0355
1.01884
1.00599
1.00152
0.998461
0.994524
0.978524
0.982079
0.983366
0.962379
0.942802
0.945417
0.930395
0.920646
0.910258
0.900092
0.891305
0.881455
0.872595
0.865476
0.855445
0.844275
0.83707
0.826692
0.816658
0.806359
0.794671
0.782335
0.770285
0.758904
1.48405
1.47761
1.47447
1.45721
1.44798
1.43619
1.42578
1.41344
1.40066
1.40067
1.38961
1.37859
1.36845
1.36283
1.35324
1.34276
1.33174
1.32417
1.3156
1.30897
1.29382
1.28007
1.27007
1.25739
1.24569
1.23872
1.22711
1.22458
1.21225
1.20174
1.19053
1.17905
1.16965
1.16184
1.15197
1.13384
1.12721
1.11657
1.1057
1.0945
1.08553
1.07546
1.06479
1.05363
1.04235
1.03343
1.01983
1.00835
1.00181
0.995776
0.984277
0.984685
0.986519
0.984746
0.961686
0.941054
0.941175
0.934355
0.921202
0.909598
0.898088
0.886773
0.885441
0.870529
0.869189
0.857396
0.841607
0.837882
0.827453
0.816557
0.805763
0.794445
0.782832
0.771251
0.760218
1.48934
1.47548
1.4695
1.4578
1.44744
1.43593
1.42512
1.41354
1.4022
1.4005
1.38471
1.37924
1.37261
1.36955
1.34916
1.34486
1.32998
1.32578
1.31501
1.30822
1.29608
1.28304
1.27004
1.25634
1.24331
1.24443
1.22813
1.22096
1.20999
1.20004
1.18985
1.17967
1.17039
1.16293
1.14887
1.13566
1.12773
1.11677
1.10645
1.09463
1.08538
1.07565
1.06506
1.05369
1.04273
1.0329
1.0201
1.00787
1.00272
0.988251
0.987703
0.989729
0.993228
0.979352
0.959088
0.947193
0.941761
0.929106
0.920135
0.909037
0.897288
0.884363
0.880988
0.874151
0.871702
0.852587
0.848498
0.833058
0.829366
0.816033
0.805576
0.794551
0.783302
0.772697
0.758777
1.48625
1.47247
1.46813
1.45702
1.44701
1.4352
1.42505
1.41464
1.40493
1.39758
1.38684
1.38049
1.37416
1.36636
1.35531
1.34551
1.32992
1.32015
1.31028
1.30303
1.30189
1.28738
1.27107
1.25468
1.24648
1.24036
1.23132
1.21983
1.20825
1.19882
1.18924
1.17954
1.17011
1.16213
1.14822
1.13811
1.1311
1.11597
1.10936
1.09349
1.0857
1.07664
1.06608
1.05324
1.04131
1.03623
1.02041
1.00315
1.00132
0.994159
0.990531
0.992027
0.993428
0.97293
0.959504
0.947637
0.938095
0.929746
0.921575
0.909359
0.8982
0.887421
0.880572
0.87297
0.865432
0.85416
0.846244
0.835329
0.828194
0.81694
0.805883
0.79453
0.783287
0.773068
0.761386
1.48517
1.47202
1.46985
1.45718
1.44848
1.43408
1.42519
1.4152
1.40563
1.39655
1.3873
1.38179
1.37711
1.36492
1.35594
1.34477
1.33187
1.32117
1.30515
1.30086
1.29681
1.2901
1.27217
1.2579
1.24959
1.23947
1.23067
1.21916
1.20888
1.19838
1.18864
1.17898
1.16945
1.15988
1.14889
1.13898
1.13076
1.11335
1.11325
1.09535
1.08746
1.07915
1.06966
1.05213
1.03336
1.0346
1.02165
1.00948
1.00629
0.997808
0.989913
0.993417
0.986449
0.972077
0.958567
0.945648
0.935381
0.930264
0.923524
0.909677
0.898711
0.888315
0.881473
0.871417
0.862572
0.853103
0.8448
0.834846
0.828537
0.818223
0.806557
0.794489
0.782834
0.772535
0.762198
1.48679
1.47324
1.46503
1.45457
1.44711
1.43521
1.4254
1.41535
1.40567
1.3963
1.38609
1.38349
1.38061
1.3656
1.35573
1.34581
1.33164
1.32126
1.30818
1.29994
1.29214
1.28362
1.27006
1.25675
1.2536
1.24377
1.23117
1.21856
1.20649
1.20075
1.18735
1.17834
1.16859
1.15881
1.14848
1.13831
1.12823
1.11764
1.11003
1.0988
1.08989
1.08298
1.06953
1.05267
1.03274
1.03133
1.02237
1.01537
1.01394
1.00226
0.99098
0.989889
0.983707
0.972363
0.957667
0.942056
0.940019
0.932353
0.915219
0.910487
0.897492
0.886224
0.882083
0.868737
0.860203
0.849907
0.844615
0.834148
0.832304
0.820497
0.807772
0.794529
0.781852
0.77139
0.761893
1.48958
1.47321
1.46666
1.45619
1.44599
1.43483
1.42527
1.41511
1.40544
1.39737
1.39227
1.38546
1.37834
1.3664
1.35578
1.34513
1.33308
1.32245
1.31002
1.29883
1.28945
1.27942
1.26747
1.25523
1.25325
1.24952
1.23184
1.21866
1.20681
1.19831
1.1872
1.17747
1.16775
1.15823
1.1484
1.13803
1.12788
1.11851
1.10964
1.09959
1.09034
1.08167
1.07274
1.05676
1.04088
1.03183
1.02106
1.01629
1.01128
1.00182
0.993699
0.990035
0.98117
0.969582
0.957973
0.94746
0.941164
0.932076
0.916766
0.907608
0.895563
0.886612
0.878495
0.865093
0.857376
0.844855
0.843261
0.840943
0.83373
0.823345
0.80808
0.793433
0.780242
0.769534
0.761825
1.49564
1.48005
1.46945
1.45737
1.44568
1.43302
1.42569
1.41444
1.4038
1.39755
1.40058
1.38769
1.37729
1.36627
1.35544
1.34486
1.33426
1.3254
1.31044
1.29583
1.28752
1.27759
1.26719
1.25777
1.25205
1.25064
1.23378
1.21892
1.20374
1.19491
1.18578
1.1765
1.16709
1.15777
1.14837
1.13761
1.12795
1.11854
1.10925
1.09966
1.09017
1.08081
1.07131
1.06085
1.04323
1.03435
1.02508
1.01747
1.00976
1.00135
0.992754
0.994687
0.97941
0.968209
0.958331
0.95074
0.943283
0.931226
0.916528
0.907018
0.895687
0.886356
0.876631
0.860738
0.855274
0.847626
0.843226
0.83977
0.834535
0.819583
0.807417
0.796109
0.781441
0.767815
0.762739
1.49739
1.4825
1.46851
1.45996
1.44556
1.42703
1.42508
1.41351
1.40151
1.40114
1.39949
1.39832
1.37736
1.36565
1.35492
1.34445
1.33388
1.3228
1.31012
1.29784
1.2875
1.2763
1.26671
1.25765
1.24915
1.25071
1.234
1.21937
1.20535
1.1919
1.1845
1.17577
1.16654
1.15716
1.1489
1.13625
1.12774
1.11843
1.10906
1.09979
1.09002
1.08041
1.07081
1.06023
1.04797
1.03739
1.02738
1.01864
1.00917
1.00218
0.991909
0.993375
0.975291
0.971301
0.96155
0.953158
0.943503
0.931354
0.918639
0.907273
0.896106
0.886265
0.875949
0.863913
0.856273
0.848818
0.84222
0.83674
0.828852
0.816835
0.805781
0.792903
0.782283
0.770126
0.760813
1.49705
1.4792
1.47043
1.45852
1.44909
1.43208
1.41806
1.41387
1.40751
1.40662
1.39754
1.39916
1.37957
1.3641
1.3542
1.34431
1.33398
1.32175
1.30953
1.29799
1.28845
1.2734
1.26576
1.25743
1.24946
1.24376
1.23176
1.21933
1.20639
1.19431
1.18475
1.17553
1.16623
1.1567
1.14791
1.13717
1.12788
1.11836
1.10885
1.10031
1.08969
1.08035
1.071
1.06121
1.05097
1.0397
1.02866
1.01885
1.0095
1.00718
0.990644
0.988517
0.978781
0.970729
0.961204
0.955151
0.944434
0.932166
0.919475
0.907352
0.895986
0.88668
0.877136
0.866654
0.857274
0.849213
0.841588
0.834614
0.825303
0.814506
0.805916
0.788599
0.783495
0.769896
0.760729
1.49711
1.47696
1.47013
1.45714
1.4478
1.43504
1.42382
1.41672
1.41031
1.40516
1.39805
1.39372
1.37703
1.36857
1.35364
1.34466
1.33605
1.3207
1.30838
1.2964
1.28312
1.27431
1.26575
1.25696
1.2483
1.24164
1.22964
1.21997
1.20659
1.19436
1.18472
1.17544
1.16614
1.15675
1.14729
1.13742
1.12776
1.11811
1.10754
1.10285
1.08806
1.08031
1.07157
1.06258
1.05415
1.04187
1.03026
1.01809
1.01656
1.00382
0.996659
0.983548
0.977716
0.970882
0.958684
0.95997
0.946326
0.932879
0.919708
0.906898
0.895762
0.887899
0.879028
0.867878
0.857118
0.849192
0.840987
0.824848
0.822847
0.820322
0.803092
0.785112
0.784871
0.769556
0.760882
1.49431
1.47721
1.47013
1.45788
1.4481
1.43734
1.42747
1.41914
1.41162
1.40413
1.39645
1.38838
1.37754
1.36796
1.3585
1.34492
1.33321
1.31652
1.30682
1.29592
1.28482
1.27513
1.26602
1.25713
1.24621
1.24501
1.22647
1.2224
1.20482
1.19305
1.18455
1.17542
1.16625
1.15677
1.14716
1.13748
1.12778
1.11884
1.10191
1.10163
1.09038
1.08145
1.07243
1.06315
1.05379
1.04354
1.03369
1.02092
1.0159
1.00576
0.997331
0.984224
0.976122
0.966265
0.962744
0.963236
0.94718
0.932131
0.91979
0.906273
0.897738
0.889748
0.883051
0.868449
0.854249
0.849603
0.836378
0.827681
0.821317
0.814476
0.80086
0.788498
0.781573
0.769678
0.759632
1.49004
1.47755
1.47058
1.45844
1.44895
1.43889
1.42951
1.42079
1.41281
1.4051
1.39419
1.38576
1.37671
1.36725
1.3556
1.34309
1.33542
1.31686
1.30659
1.29561
1.28507
1.27518
1.26606
1.25965
1.24623
1.24454
1.22767
1.21616
1.20397
1.19409
1.1849
1.17534
1.16622
1.15694
1.14713
1.13714
1.12699
1.1165
1.10473
1.09752
1.09126
1.08267
1.0736
1.0639
1.05459
1.04488
1.03521
1.02474
1.01646
1.00725
0.996475
0.985633
0.976818
0.968195
0.961932
0.956313
0.945758
0.934227
0.921717
0.908483
0.899373
0.890293
0.883286
0.868466
0.853504
0.847075
0.83874
0.829197
0.82017
0.812773
0.797536
0.788525
0.779485
0.768725
0.757915
1.49121
1.47544
1.46961
1.45848
1.44959
1.43998
1.43058
1.42173
1.41428
1.39878
1.39964
1.38388
1.37627
1.36886
1.35174
1.33901
1.33525
1.31988
1.3072
1.29496
1.28483
1.27489
1.26452
1.26376
1.24828
1.23685
1.22502
1.21531
1.20419
1.19496
1.18512
1.17596
1.16651
1.15711
1.14708
1.13691
1.12653
1.1158
1.10425
1.09205
1.09171
1.08378
1.07553
1.06366
1.05574
1.04601
1.03618
1.02646
1.01769
1.01021
0.994965
0.986575
0.977515
0.969104
0.961136
0.953857
0.945004
0.934966
0.924371
0.906571
0.89946
0.888871
0.879596
0.868439
0.855579
0.845896
0.841719
0.830528
0.81948
0.806163
0.799244
0.78924
0.779731
0.770063
0.759316
1.49309
1.47503
1.46905
1.45811
1.44958
1.44011
1.43079
1.42154
1.41237
1.4019
1.39486
1.385
1.37558
1.36677
1.35214
1.3442
1.33313
1.32005
1.30741
1.29218
1.28439
1.27543
1.2648
1.25807
1.24723
1.23617
1.22473
1.21472
1.2041
1.19645
1.18563
1.17622
1.16684
1.1572
1.14722
1.13692
1.12646
1.11588
1.10509
1.08997
1.08841
1.08373
1.08001
1.06065
1.05696
1.04667
1.03675
1.02726
1.01813
1.00885
0.997888
0.988634
0.978465
0.969634
0.96098
0.952997
0.944226
0.936549
0.92245
0.906154
0.890292
0.886423
0.878018
0.87013
0.854528
0.840505
0.844009
0.831832
0.815273
0.8052
0.802144
0.789395
0.780225
0.77257
0.758309
1.49351
1.47462
1.46877
1.45806
1.44966
1.43999
1.43073
1.4213
1.41191
1.40236
1.39344
1.38437
1.3749
1.36452
1.35253
1.34302
1.33215
1.31972
1.31016
1.29337
1.28528
1.27779
1.26294
1.25561
1.24618
1.23574
1.2247
1.2142
1.20315
1.19869
1.18595
1.1769
1.16759
1.15796
1.14762
1.13696
1.12647
1.1161
1.10636
1.09324
1.08827
1.08189
1.07475
1.06326
1.05552
1.04601
1.0369
1.02806
1.01895
1.00933
0.999237
0.990851
0.979304
0.969948
0.960556
0.952787
0.943045
0.933095
0.922597
0.904206
0.892287
0.887288
0.877939
0.866846
0.852594
0.84065
0.838262
0.835358
0.818461
0.80828
0.800847
0.790224
0.779289
0.770029
0.762965
1.49284
1.47312
1.46875
1.45825
1.45014
1.44022
1.431
1.42109
1.41149
1.40159
1.39223
1.38412
1.37459
1.36318
1.35242
1.34211
1.33268
1.31664
1.30833
1.29725
1.28596
1.27578
1.26475
1.25554
1.24604
1.23594
1.22532
1.21469
1.20442
1.19656
1.18596
1.17704
1.16836
1.15915
1.14837
1.13692
1.12587
1.11588
1.10644
1.09643
1.08935
1.08086
1.07267
1.06299
1.05364
1.04496
1.03681
1.02879
1.02034
1.01033
0.999929
0.990257
0.980614
0.970352
0.960107
0.953822
0.943761
0.928981
0.918571
0.907495
0.893032
0.887953
0.883955
0.866459
0.849206
0.84458
0.834261
0.833899
0.819263
0.809852
0.800501
0.791068
0.777115
0.765568
0.767472
1.49472
1.47146
1.46784
1.45815
1.44992
1.4407
1.43159
1.42059
1.41108
1.39743
1.39373
1.38508
1.37624
1.36312
1.35196
1.3402
1.32851
1.3174
1.30889
1.30147
1.28616
1.27421
1.26465
1.2557
1.24649
1.23667
1.22591
1.21509
1.20459
1.1942
1.18374
1.17667
1.16971
1.16199
1.14988
1.13724
1.12495
1.11526
1.10567
1.09642
1.09199
1.08035
1.07219
1.0624
1.05234
1.04265
1.03657
1.03005
1.02312
1.0116
0.999855
0.988534
0.977903
0.970896
0.962014
0.953343
0.9424
0.931528
0.917578
0.915196
0.896022
0.887671
0.878665
0.865854
0.846155
0.844197
0.840465
0.830039
0.81942
0.810119
0.800537
0.790833
0.779046
0.762126
0.763598
1.49103
1.4718
1.4677
1.45795
1.45
1.44137
1.43523
1.41883
1.40984
1.39924
1.39139
1.38318
1.37439
1.36453
1.35215
1.34034
1.324
1.31471
1.30799
1.30117
1.29078
1.2756
1.26359
1.25623
1.24757
1.23842
1.22654
1.21515
1.20446
1.19275
1.18026
1.17625
1.17145
1.16702
1.1513
1.13679
1.12277
1.115
1.10479
1.09295
1.09022
1.08541
1.07305
1.06211
1.05099
1.03908
1.03762
1.03174
1.02924
1.01297
0.99939
0.986288
0.972041
0.97244
0.963699
0.953152
0.942551
0.932029
0.920999
0.915706
0.899562
0.886231
0.874721
0.862233
0.851529
0.845158
0.838704
0.828217
0.818806
0.809317
0.80045
0.790484
0.776704
0.766702
0.761044
1.4895
1.47197
1.46717
1.45804
1.4495
1.44044
1.43568
1.42108
1.40986
1.39957
1.38999
1.37991
1.37206
1.36582
1.35214
1.33826
1.32389
1.31141
1.30706
1.30164
1.29644
1.27861
1.26184
1.25625
1.24898
1.2416
1.22672
1.21552
1.20522
1.19309
1.18195
1.17624
1.17041
1.16447
1.1506
1.13684
1.12284
1.11537
1.10555
1.09607
1.09038
1.08391
1.07318
1.06227
1.05024
1.03958
1.04236
1.02872
1.0232
1.01123
0.998506
0.985909
0.975257
0.973643
0.963952
0.952851
0.942355
0.932078
0.921941
0.913095
0.899674
0.888113
0.873958
0.863742
0.854089
0.845642
0.837209
0.827706
0.818413
0.809056
0.801001
0.787384
0.777462
0.767413
0.757308
1.48785
1.47072
1.46744
1.45848
1.44931
1.43686
1.43379
1.42907
1.40883
1.39925
1.38957
1.37771
1.37099
1.36965
1.35221
1.33853
1.32409
1.31479
1.30743
1.30022
1.29519
1.28045
1.26505
1.25092
1.2498
1.2404
1.22863
1.22
1.20673
1.19208
1.18232
1.17582
1.16848
1.16011
1.14921
1.13766
1.12574
1.11615
1.10633
1.09669
1.09103
1.08368
1.07328
1.06391
1.05024
1.03843
1.04108
1.02774
1.02243
1.01003
0.997638
0.98459
0.979691
0.972179
0.962512
0.952194
0.941853
0.931734
0.921542
0.912434
0.898986
0.886234
0.875147
0.865391
0.855429
0.846111
0.836932
0.827627
0.818273
0.808816
0.79919
0.787967
0.778051
0.767683
0.758078
1.49111
1.47163
1.46661
1.46001
1.4512
1.44007
1.43308
1.42654
1.40833
1.39916
1.39091
1.3844
1.3735
1.36448
1.35216
1.34055
1.32598
1.3171
1.30781
1.2982
1.28819
1.28181
1.26863
1.25416
1.24818
1.239
1.22851
1.21832
1.20815
1.19381
1.18446
1.17604
1.16749
1.15814
1.14832
1.13809
1.12819
1.11807
1.10731
1.0952
1.09147
1.07734
1.07233
1.06747
1.05027
1.04434
1.03322
1.02933
1.0256
1.00901
0.997932
0.986966
0.979576
0.970722
0.961081
0.95122
0.941253
0.93145
0.92105
0.910139
0.897701
0.885975
0.875846
0.865904
0.856058
0.846445
0.836996
0.827595
0.818091
0.808482
0.798778
0.788541
0.778517
0.768501
0.758706
1.49227
1.47496
1.46495
1.45902
1.45125
1.44077
1.43185
1.42246
1.41017
1.39828
1.39167
1.38627
1.37429
1.36215
1.35112
1.33944
1.3304
1.31854
1.30869
1.299
1.28882
1.27786
1.26864
1.25675
1.24745
1.23798
1.22804
1.21795
1.20741
1.19543
1.18529
1.17632
1.16721
1.15768
1.14793
1.13836
1.1301
1.11949
1.1103
1.09825
1.08769
1.07783
1.07264
1.06514
1.05304
1.0443
1.03451
1.03061
1.02202
1.00952
0.99824
0.988131
0.979056
0.969954
0.960447
0.950367
0.940244
0.931772
0.920618
0.908288
0.89739
0.886536
0.876327
0.866284
0.856416
0.846695
0.837119
0.827588
0.818039
0.808401
0.798705
0.788879
0.779058
0.769158
0.759305
1.49152
1.47528
1.46835
1.45838
1.45017
1.44032
1.43128
1.42143
1.41196
1.39329
1.39083
1.38654
1.37458
1.35996
1.35087
1.33897
1.33643
1.31814
1.30937
1.30053
1.28264
1.28013
1.26832
1.25722
1.24718
1.23754
1.2277
1.21771
1.20733
1.19664
1.18535
1.17682
1.1674
1.15752
1.14736
1.13916
1.12759
1.11978
1.11156
1.10557
1.08688
1.07731
1.07442
1.06533
1.05435
1.04416
1.03476
1.03371
1.02018
1.00844
0.99702
0.98774
0.97868
0.969562
0.960052
0.949688
0.938978
0.934105
0.921867
0.905011
0.896608
0.886635
0.876527
0.866485
0.856571
0.846794
0.837182
0.827637
0.818013
0.808414
0.798847
0.789183
0.779517
0.769826
0.760089
1.4902
1.47768
1.46961
1.4581
1.44944
1.43919
1.43204
1.41996
1.41142
1.39917
1.39202
1.37492
1.37475
1.36079
1.34838
1.34833
1.33095
1.31928
1.31083
1.2997
1.28679
1.27783
1.26713
1.25676
1.24669
1.23718
1.22746
1.21774
1.20748
1.19856
1.18299
1.17695
1.16786
1.15769
1.14695
1.14259
1.131
1.1205
1.11098
1.10066
1.08991
1.08042
1.07359
1.06507
1.05498
1.04517
1.03684
1.03116
1.02317
1.00781
0.993958
0.986909
0.97831
0.969606
0.960765
0.951535
0.940663
0.931231
0.9171
0.906382
0.896673
0.886638
0.876576
0.866548
0.856571
0.846684
0.83722
0.827619
0.818035
0.80846
0.798939
0.78949
0.780009
0.770547
0.761
1.49489
1.47525
1.46801
1.45868
1.44942
1.4369
1.4342
1.41692
1.41416
1.40134
1.39135
1.37108
1.36907
1.36032
1.35023
1.35002
1.33102
1.31829
1.31373
1.30075
1.28745
1.2757
1.26564
1.25629
1.24673
1.237
1.22714
1.21715
1.20668
1.19547
1.1834
1.17997
1.16935
1.15935
1.15011
1.14311
1.13098
1.12106
1.11072
1.09991
1.09088
1.08123
1.07228
1.06566
1.05525
1.04579
1.03712
1.02943
1.02197
1.00508
0.995505
0.986867
0.978213
0.969775
0.961876
0.955384
0.937997
0.931258
0.914572
0.906628
0.896728
0.886739
0.876703
0.866589
0.856445
0.846191
0.83702
0.827714
0.818015
0.808452
0.799102
0.789809
0.780507
0.771442
0.761981
1.50053
1.47415
1.46927
1.46145
1.45124
1.43982
1.43205
1.41992
1.41199
1.40074
1.38908
1.37597
1.3687
1.36145
1.34625
1.34727
1.33314
1.323
1.31037
1.3011
1.28797
1.27185
1.26339
1.2564
1.24689
1.23694
1.22693
1.21699
1.20698
1.19505
1.18502
1.17826
1.16979
1.16057
1.15119
1.14192
1.1314
1.12129
1.11117
1.10105
1.09138
1.08131
1.07094
1.06723
1.05441
1.04538
1.03655
1.02775
1.01828
1.00646
0.996207
0.986746
0.977678
0.969316
0.961738
0.952331
0.940403
0.930013
0.917917
0.907365
0.896607
0.886879
0.876933
0.86678
0.856393
0.845935
0.835956
0.828209
0.817669
0.808179
0.799223
0.790108
0.780589
0.773252
0.763359
1.49837
1.47952
1.47118
1.45989
1.45055
1.44009
1.43108
1.4211
1.41164
1.40023
1.38815
1.37738
1.36804
1.35895
1.34952
1.34531
1.33083
1.31947
1.31021
1.29925
1.28715
1.27432
1.25895
1.2572
1.24732
1.23697
1.22665
1.21702
1.20931
1.19293
1.1845
1.17628
1.17109
1.16202
1.15205
1.14206
1.13181
1.12164
1.11161
1.10182
1.09214
1.08246
1.07301
1.06471
1.05387
1.0445
1.03581
1.02669
1.01689
1.00632
0.996113
0.986267
0.976676
0.968035
0.962782
0.950872
0.941306
0.930517
0.919202
0.908504
0.895564
0.887183
0.877307
0.867092
0.85666
0.84575
0.833648
0.829992
0.815973
0.807219
0.799492
0.791081
0.779825
0.776171
0.764621
1.49674
1.47813
1.46569
1.45685
1.44902
1.43945
1.43062
1.42174
1.41434
1.40031
1.38561
1.377
1.36772
1.35703
1.34868
1.34135
1.32711
1.32107
1.30692
1.29795
1.28747
1.27597
1.26494
1.25658
1.24661
1.23656
1.22576
1.21522
1.20843
1.1942
1.18399
1.17266
1.17527
1.16381
1.15287
1.14248
1.13216
1.1219
1.11176
1.10273
1.09328
1.08365
1.0745
1.06286
1.05241
1.04245
1.03549
1.02644
1.01626
1.00582
0.995716
0.985702
0.975543
0.964188
0.963124
0.952212
0.94313
0.9317
0.918976
0.9023
0.901139
0.889047
0.877931
0.867534
0.857389
0.847077
0.835533
0.828249
0.812094
0.80561
0.800675
0.795653
0.780295
0.776654
0.763475
1.49803
1.47658
1.46804
1.45669
1.44784
1.43869
1.43004
1.42106
1.41189
1.40083
1.38828
1.37737
1.36734
1.35433
1.34696
1.33875
1.32835
1.31854
1.30321
1.29728
1.28912
1.27879
1.26738
1.25702
1.24679
1.23655
1.22524
1.2115
1.20367
1.1915
1.18437
1.1785
1.17823
1.16468
1.15314
1.14276
1.13242
1.12139
1.11082
1.10474
1.09513
1.08525
1.07677
1.06139
1.05039
1.03873
1.0353
1.02724
1.0155
1.00505
0.995088
0.985249
0.975017
0.964311
0.959322
0.952143
0.947232
0.933986
0.919459
0.90255
0.901764
0.889346
0.877841
0.867771
0.858349
0.849266
0.836717
0.828336
0.816475
0.804405
0.80121
0.793416
0.782235
0.774027
0.763071
1.4871
1.47355
1.46868
1.4555
1.44636
1.43767
1.42969
1.42056
1.41131
1.40278
1.38764
1.37713
1.36563
1.35393
1.34584
1.3381
1.331
1.31996
1.304
1.29823
1.29269
1.28033
1.26843
1.25747
1.24682
1.23676
1.22686
1.21758
1.20334
1.18635
1.18413
1.18027
1.17695
1.1634
1.15231
1.14315
1.1337
1.12092
1.10746
1.1078
1.09748
1.08677
1.0788
1.06103
1.04844
1.03892
1.03098
1.02726
1.01366
1.00378
0.994334
0.984824
0.976327
0.962552
0.957212
0.949437
0.946236
0.940546
0.921453
0.906418
0.900315
0.888088
0.87632
0.86757
0.859
0.849647
0.839024
0.829765
0.82058
0.810299
0.796902
0.790108
0.781303
0.772293
0.762393
1.49148
1.47651
1.45941
1.45186
1.4433
1.43627
1.43032
1.4202
1.41008
1.39964
1.38808
1.37873
1.36776
1.34999
1.34424
1.33675
1.33307
1.32083
1.30916
1.29888
1.29127
1.27869
1.26847
1.25724
1.24644
1.23625
1.22808
1.21788
1.20603
1.19259
1.18515
1.18083
1.16855
1.15943
1.1495
1.14382
1.1324
1.11686
1.11259
1.10755
1.10176
1.08629
1.07745
1.05783
1.05323
1.04027
1.03124
1.02375
1.01247
1.00188
0.993759
0.984679
0.982759
0.964935
0.958688
0.944341
0.94444
0.941572
0.923785
0.907048
0.90049
0.88556
0.872343
0.867084
0.861032
0.850638
0.8406
0.831569
0.824332
0.810632
0.796022
0.788941
0.780619
0.771785
0.762091
1.49069
1.47686
1.46115
1.45292
1.43973
1.43515
1.43199
1.41886
1.40916
1.39767
1.38547
1.37999
1.36688
1.34739
1.34298
1.33441
1.33632
1.32242
1.31265
1.29647
1.2886
1.28028
1.26834
1.25706
1.24582
1.2353
1.23109
1.21979
1.21014
1.19367
1.18398
1.1775
1.16779
1.15661
1.14366
1.13843
1.12995
1.12107
1.11695
1.10549
1.09769
1.08548
1.07473
1.06158
1.05282
1.04168
1.03165
1.02183
1.01068
0.999437
0.99469
0.986493
0.981216
0.967851
0.95775
0.94782
0.942514
0.93739
0.924471
0.910321
0.899603
0.881859
0.868375
0.866977
0.865422
0.851389
0.841927
0.832071
0.82239
0.811023
0.799446
0.78967
0.78022
0.772349
0.760851
1.4897
1.47407
1.46341
1.45093
1.4497
1.43482
1.42824
1.41577
1.40904
1.39701
1.3857
1.37707
1.36493
1.35264
1.34077
1.33842
1.33237
1.32178
1.311
1.29852
1.2869
1.2838
1.26742
1.25684
1.24615
1.23687
1.22978
1.21936
1.20827
1.19596
1.18606
1.17709
1.16741
1.15562
1.14634
1.13928
1.13466
1.12168
1.11491
1.10459
1.09474
1.08437
1.074
1.06301
1.05267
1.0421
1.03177
1.02141
1.01097
1.00448
0.999215
0.986234
0.973509
0.965846
0.95716
0.948236
0.940032
0.931767
0.924687
0.912607
0.897152
0.885927
0.867414
0.866716
0.865241
0.851538
0.842014
0.832113
0.822091
0.811605
0.801113
0.791001
0.779688
0.776338
0.75696
1.48954
1.47375
1.46501
1.45423
1.44821
1.43787
1.42891
1.41816
1.40268
1.39473
1.38499
1.37547
1.36471
1.35383
1.34356
1.33778
1.33089
1.32116
1.31097
1.30034
1.28982
1.28204
1.26831
1.2559
1.24467
1.2391
1.22968
1.2191
1.20425
1.19974
1.18635
1.17752
1.16703
1.15437
1.14905
1.1376
1.12852
1.1224
1.11314
1.10301
1.09324
1.08334
1.07326
1.06298
1.0527
1.04237
1.03205
1.0215
1.01008
1.00862
0.999431
0.984665
0.971079
0.964837
0.956767
0.94806
0.938408
0.926889
0.922244
0.915828
0.898455
0.8867
0.874129
0.867267
0.861162
0.850892
0.841381
0.832246
0.822252
0.812184
0.802372
0.793261
0.781846
0.77299
0.759343
1.49235
1.47334
1.46339
1.45646
1.44882
1.43952
1.43182
1.41549
1.39932
1.39469
1.38403
1.37458
1.36535
1.35451
1.34289
1.33961
1.33059
1.32083
1.3114
1.3021
1.29188
1.28365
1.26824
1.25378
1.23922
1.24228
1.23091
1.21672
1.20441
1.19844
1.18782
1.17939
1.16675
1.15223
1.15085
1.14002
1.13059
1.12648
1.11225
1.10145
1.09206
1.08256
1.07278
1.06278
1.05271
1.04262
1.03259
1.02263
1.01311
1.0058
0.993869
0.981584
0.97282
0.966047
0.95694
0.949063
0.939144
0.928536
0.920703
0.910871
0.901587
0.888769
0.876513
0.866468
0.858773
0.850231
0.84024
0.833494
0.822362
0.81251
0.803001
0.793915
0.783032
0.77252
0.761687
1.49254
1.4737
1.46447
1.45681
1.44887
1.43953
1.43156
1.41254
1.39651
1.39661
1.38277
1.37415
1.36738
1.35557
1.344
1.33722
1.329
1.32013
1.3116
1.30472
1.29202
1.28065
1.2672
1.25199
1.24275
1.23536
1.23225
1.21366
1.21042
1.20009
1.18799
1.17858
1.16365
1.15775
1.14958
1.13938
1.12826
1.12617
1.10969
1.10786
1.09069
1.08193
1.07246
1.06266
1.05275
1.0429
1.03318
1.02365
1.01432
1.00405
0.989989
0.977579
0.972731
0.968399
0.95554
0.95033
0.939887
0.929756
0.921634
0.903919
0.906653
0.889952
0.875685
0.863333
0.85757
0.851062
0.838239
0.838257
0.821168
0.812422
0.803032
0.79352
0.783529
0.773211
0.763268
1.49056
1.47528
1.46986
1.45522
1.44742
1.4374
1.43036
1.4082
1.40276
1.39217
1.38329
1.37286
1.37242
1.35593
1.34147
1.33531
1.32759
1.31903
1.31036
1.30146
1.29074
1.27973
1.26803
1.2559
1.24552
1.23622
1.22958
1.21484
1.20846
1.20337
1.18613
1.17752
1.16726
1.15704
1.14916
1.13996
1.13059
1.12345
1.11177
1.10396
1.09259
1.08238
1.07244
1.06259
1.05278
1.04308
1.0336
1.02441
1.01585
1.00297
0.990426
0.979821
0.972611
0.965539
0.956053
0.948089
0.938537
0.929038
0.920518
0.902567
0.905043
0.888361
0.872824
0.865125
0.85784
0.848238
0.847766
0.833607
0.822802
0.813133
0.803114
0.793556
0.7842
0.773523
0.76508
1.4881
1.47819
1.47224
1.45565
1.44672
1.43438
1.43093
1.41425
1.40396
1.38568
1.38389
1.37454
1.36738
1.35439
1.34194
1.33537
1.32692
1.31797
1.3094
1.30002
1.28959
1.27964
1.26931
1.25801
1.24761
1.23741
1.22745
1.21582
1.20617
1.20456
1.18617
1.17791
1.16846
1.15865
1.14991
1.14074
1.13151
1.12265
1.11277
1.10306
1.09277
1.08238
1.07238
1.06254
1.05266
1.04306
1.03376
1.02433
1.01523
1.00567
0.989988
0.980446
0.972357
0.964236
0.955369
0.946487
0.937071
0.92734
0.917306
0.907128
0.896333
0.885117
0.873453
0.866976
0.860927
0.851527
0.845583
0.835301
0.823275
0.814269
0.80296
0.79488
0.785301
0.772068
0.76776
1.49317
1.47643
1.4701
1.45757
1.44918
1.43693
1.42483
1.41434
1.40435
1.38681
1.38157
1.37402
1.36705
1.35226
1.33708
1.33565
1.32626
1.31648
1.30925
1.29945
1.28807
1.27994
1.27261
1.26
1.24961
1.23803
1.2266
1.21525
1.20626
1.19939
1.18829
1.17837
1.16907
1.16028
1.15114
1.14155
1.13198
1.12286
1.11363
1.10282
1.09305
1.08203
1.0724
1.06244
1.05222
1.04272
1.03406
1.02402
1.01446
1.00469
0.994943
0.979585
0.971992
0.963592
0.954698
0.945514
0.93602
0.926147
0.915851
0.905295
0.894412
0.882341
0.870046
0.868221
0.866461
0.851943
0.845238
0.838223
0.822895
0.816145
0.800736
0.792104
0.787666
0.774352
0.766269
1.49532
1.47775
1.46959
1.45828
1.44859
1.43558
1.42473
1.41422
1.40332
1.38969
1.38071
1.37207
1.36295
1.35092
1.34079
1.33491
1.32549
1.31376
1.31013
1.30079
1.28531
1.28058
1.27661
1.26083
1.25108
1.23912
1.22458
1.21301
1.20568
1.19795
1.18914
1.17812
1.16932
1.16279
1.15258
1.14223
1.13211
1.12326
1.11466
1.10186
1.09448
1.08162
1.07252