/*--------------------------------*- C++ -*----------------------------------*\
  =========                 |
  \\      /  F ield         | OpenFOAM: The Open Source CFD Toolbox
   \\    /   O peration     | Website:  https://openfoam.org
    \\  /    A nd           | Version:  12
     \\/     M anipulation  |
\*---------------------------------------------------------------------------*/
FoamFile
{
    format      ascii;
    class       surfaceScalarField;
    location    "0.15";
    object      phi.water_0;
}
// * * * * * * * * * * * * * * * * * * * * * * * * * * * * * * * * * * * * * //

dimensions      [0 3 -1 0 0 0 0];

internalField   nonuniform List<scalar> 
7375
(
-4.3669e-08
-1.18013e-07
2.58946e-07
-3.15106e-07
2.38287e-07
9.75389e-09
1.45269e-07
9.45551e-08
1.55433e-07
-1.16965e-08
1.40728e-07
1.4657e-08
1.52123e-07
-1.30459e-08
1.56338e-07
-4.2162e-09
1.81024e-07
-2.31989e-08
2.0107e-07
-2.03227e-08
2.40732e-07
-3.96935e-08
2.45173e-07
-5.54157e-08
2.49264e-07
4.64841e-08
2.11529e-07
3.75971e-08
1.87139e-07
2.4524e-08
1.87783e-07
-6.5458e-10
2.01871e-07
-1.39426e-08
2.2579e-07
-2.42402e-08
2.44131e-07
-1.83121e-08
2.30853e-07
1.55883e-08
3.11928e-07
7.06403e-08
1.597e-07
-2.50903e-09
1.60298e-07
9.8665e-10
1.69947e-07
-9.71784e-09
2.03658e-07
-3.37481e-08
2.36125e-07
-3.25132e-08
2.54611e-07
-2.12837e-08
2.71687e-07
-1.43332e-08
2.24846e-07
-1.49877e-09
2.40465e-07
3.30597e-08
2.34476e-07
5.94289e-09
2.27134e-07
7.24141e-09
2.18668e-07
8.41943e-09
2.38659e-07
-2.02162e-08
2.17897e-07
1.85423e-08
2.33131e-07
-1.27517e-08
3.86773e-07
3.54985e-09
2.26061e-07
3.59143e-09
2.39817e-07
-1.37549e-08
2.43511e-07
-3.69732e-09
2.39606e-07
3.83832e-09
2.43852e-07
-6.76308e-09
2.71335e-07
-2.74822e-08
3.07365e-07
-2.98695e-08
3.05481e-07
2.10266e-09
2.89419e-07
1.29971e-08
2.92906e-07
-6.52597e-09
2.62648e-07
3.29096e-08
2.455e-07
1.98601e-08
2.27389e-07
1.56084e-08
1.84701e-07
4.31099e-08
1.6431e-07
2.21464e-08
2.79973e-07
3.60741e-08
1.52892e-07
-2.73674e-08
1.88574e-07
-3.41477e-08
2.18003e-07
-2.95072e-08
2.01315e-07
-3.63278e-08
2.86982e-07
-3.51362e-08
2.93294e-07
-1.86243e-10
2.67484e-07
2.59746e-08
2.24572e-07
4.02776e-08
1.92653e-07
3.39842e-08
2.95509e-07
5.20264e-08
1.46201e-07
-6.61763e-09
1.05917e-07
-1.17823e-08
1.5406e-07
2.38763e-09
1.6264e-07
-7.19022e-09
1.72155e-07
-9.59296e-09
1.88078e-07
-1.60007e-08
2.03153e-07
-1.50634e-08
1.98506e-07
4.64875e-09
1.99744e-07
-1.08851e-09
1.93104e-07
8.82208e-09
2.98549e-07
4.93946e-08
-8.14188e-09
-1.33099e-07
-1.472e-07
-1.36001e-07
-1.32987e-07
-7.05619e-08
-5.5025e-08
4.11973e-09
1.81706e-08
-3.14312e-08
2.38114e-08
-4.64788e-09
-1.21274e-08
-3.54067e-08
1.77119e-08
-1.21208e-08
-2.75463e-08
-6.26824e-09
-2.91166e-08
-3.16856e-08
-4.64794e-08
1.88921e-09
-2.18996e-08
8.25958e-08
1.61733e-08
7.53511e-09
-3.00496e-08
1.21105e-08
3.32206e-08
-6.52691e-08
5.03297e-08
-2.64958e-08
1.25534e-08
-2.97497e-08
-1.09903e-08
-6.24702e-08
-4.34006e-08
2.08585e-09
-3.12067e-08
1.03114e-08
7.36125e-09
3.82149e-08
4.21204e-08
1.23505e-08
2.33284e-08
9.36715e-09
4.0101e-09
4.16812e-09
-4.51999e-09
3.49371e-09
-3.30744e-08
9.69577e-09
-3.86174e-08
1.12845e-08
-2.28729e-08
6.82309e-09
-1.01339e-08
-1.54103e-08
2.07497e-08
-2.76419e-08
4.52907e-08
-5.13637e-08
3.01887e-08
-6.14197e-08
1.72971e-08
-7.41947e-08
1.98113e-08
2.80788e-08
3.22283e-08
-5.80628e-08
-4.81495e-08
-3.80509e-08
-3.32766e-08
8.8792e-08
3.09968e-08
-1.13908e-08
-4.97634e-08
-1.38168e-08
-1.11873e-08
-3.1296e-08
1.37822e-08
-4.07805e-08
1.30042e-08
-1.87429e-08
-2.88004e-08
3.19394e-08
-7.87701e-08
7.58255e-08
-7.37553e-08
1.12771e-07
-3.40906e-08
1.2545e-07
1.59876e-09
2.24553e-07
4.90894e-08
1.15066e-07
-1.25704e-08
1.09928e-07
2.45457e-08
7.98679e-08
4.60141e-08
5.54267e-08
6.68623e-08
1.64616e-08
6.11701e-08
-2.35187e-08
7.56866e-08
-1.07504e-07
5.6339e-08
-2.85745e-08
4.00623e-08
4.0561e-10
-5.84874e-08
-7.92434e-08
-1.09818e-07
-2.1545e-08
-9.31932e-08
1.27273e-08
-3.44585e-08
2.13711e-08
1.70656e-08
-3.59289e-09
6.52416e-08
7.40948e-09
2.29817e-08
4.51033e-08
1.36626e-08
-1.39056e-08
5.23914e-08
-7.64217e-08
5.07341e-08
-6.67043e-08
-7.3805e-09
-1.03315e-07
2.94207e-08
-1.05522e-07
-7.38578e-09
-1.04969e-07
-1.63868e-08
-9.42352e-08
-2.60633e-08
-1.39939e-07
5.03529e-08
-1.29391e-07
-1.16359e-08
-1.17704e-07
-2.86361e-09
-6.27399e-08
-6.01166e-09
1.18634e-08
-1.05921e-07
-2.11608e-07
-1.87233e-07
-1.99006e-07
-1.57612e-07
-8.43474e-08
-8.14063e-08
-5.88218e-08
-9.41944e-08
3.62289e-08
-7.31771e-08
-3.34874e-08
-8.75854e-08
3.17948e-08
-9.27925e-08
-2.23404e-08
-8.19697e-08
-4.03522e-08
-1.43198e-07
1.52219e-08
-1.55419e-07
-9.58167e-09
-1.20125e-07
-1.91227e-08
-1.06641e-07
-4.38411e-08
-5.67975e-08
-1.66242e-08
-3.27447e-08
2.57621e-08
-1.74151e-08
-2.77759e-09
-5.4058e-08
2.55392e-08
-8.22404e-08
-1.4929e-08
-1.03095e-07
-1.03538e-08
-1.29011e-07
3.33512e-08
-1.1372e-07
2.68287e-08
-1.01488e-07
1.00601e-08
-1.2286e-07
2.53804e-08
-1.63133e-07
3.7006e-08
-1.92351e-07
-3.85733e-09
-2.02811e-07
-2.81587e-08
-2.13175e-07
-1.22756e-08
-2.19082e-07
-4.2275e-09
-2.30191e-07
3.18583e-08
-2.30075e-07
4.51746e-08
-2.29773e-07
2.98863e-08
-2.36123e-07
2.40684e-08
-2.19044e-07
2.73271e-09
-2.02286e-07
1.51414e-08
-2.11387e-07
-3.86543e-08
-1.97861e-07
-4.71414e-08
-1.66463e-07
-5.00655e-08
-1.34924e-07
-3.07706e-08
-1.28793e-07
-1.86952e-08
-1.15648e-07
7.79047e-10
-8.60484e-08
-1.65954e-08
-7.06216e-08
-4.42268e-08
-1.26696e-07
-7.37418e-08
-8.5135e-08
-6.50218e-08
-6.13831e-08
-5.78421e-08
-2.52587e-08
-3.45253e-08
4.38379e-08
-2.09549e-08
5.48989e-08
-2.41856e-08
6.17837e-08
1.75917e-08
4.08579e-08
6.71515e-08
-3.28255e-08
1.39952e-07
2.04238e-08
1.62301e-07
-1.11399e-07
5.41617e-08
-1.30569e-07
2.4462e-08
-9.85032e-08
7.99681e-09
-8.67185e-08
-1.92257e-08
-1.30483e-07
-6.60542e-08
-1.51279e-07
-7.2397e-08
-1.86325e-07
5.87106e-10
-1.95676e-07
2.64166e-08
-2.00334e-07
1.88536e-08
-1.6364e-07
-1.20434e-08
-1.08667e-07
9.22086e-09
-1.04968e-07
4.75842e-08
-1.19968e-07
6.38585e-08
-1.76459e-08
4.54849e-08
-1.36809e-07
-4.37547e-09
-1.60155e-07
-3.34522e-08
-1.41921e-07
1.44763e-08
-4.49159e-08
3.0187e-08
-1.71901e-07
-2.63901e-08
-1.59963e-07
2.74738e-08
-2.13563e-07
1.87048e-09
-1.82372e-07
1.33286e-08
-3.07463e-08
-1.36664e-07
-2.41617e-07
-5.07965e-08
-1.22443e-07
-2.20206e-07
-6.75604e-08
-1.2382e-07
-1.49923e-09
-1.49301e-07
-9.01421e-08
-5.20429e-08
2.29693e-08
-1.30401e-07
-4.09157e-08
-1.14568e-07
-4.06737e-08
1.14975e-09
-1.35303e-09
-1.23176e-07
-6.33948e-08
-7.59123e-08
-6.31564e-09
-9.13181e-08
-4.49263e-09
-1.29778e-07
-5.3281e-09
-9.14483e-08
-5.55217e-08
-8.04261e-08
1.45897e-08
-6.65807e-08
-1.66243e-08
-7.66311e-08
3.48065e-08
-2.79906e-08
9.11473e-08
-4.79077e-08
9.94913e-09
-2.02037e-07
3.43398e-08
-1.58086e-07
-1.71237e-08
-1.52527e-07
4.49977e-09
-1.74374e-07
4.69681e-08
-1.92842e-07
5.54723e-08
-1.94368e-07
-2.33142e-09
-2.00689e-07
-2.18387e-08
-2.00092e-07
-1.28739e-08
-1.94363e-07
-9.95664e-09
-1.83975e-07
2.147e-08
-1.62827e-07
2.37838e-08
-1.69355e-07
3.46861e-08
-2.33057e-07
3.65746e-08
-2.33061e-07
5.61609e-08
-2.63335e-07
-2.94401e-09
-2.46526e-07
-4.93208e-09
-2.44419e-07
-5.17631e-08
-2.20695e-07
-7.37898e-08
-1.99328e-07
-5.24507e-08
-1.99402e-07
-1.8813e-08
-1.82098e-07
-1.65245e-08
-1.65566e-07
-3.31271e-08
-1.73986e-07
-3.58055e-08
-2.00177e-07
-4.75507e-08
-2.15066e-07
-5.01326e-08
-2.10781e-07
-6.21267e-08
-1.96406e-07
-4.88997e-08
-1.74797e-07
-4.25636e-08
-1.60379e-07
-3.92511e-08
-1.37623e-07
-4.98447e-09
-9.77261e-08
2.79399e-08
-1.26182e-07
1.68677e-08
-1.01456e-07
1.34547e-07
-1.27294e-07
7.99999e-08
-1.09546e-07
6.78318e-09
-1.10844e-07
9.29464e-09
-9.10923e-08
-3.89773e-08
-1.26849e-07
-3.02973e-08
-1.70472e-07
-2.8774e-08
-1.63291e-07
-6.59384e-09
-1.71229e-07
3.43542e-08
-1.67217e-07
1.48415e-08
-1.65627e-07
-1.36329e-08
-1.47117e-07
-9.19494e-09
-1.20512e-07
2.22082e-08
-9.5971e-08
3.83486e-08
-8.98778e-08
3.79339e-08
-1.23139e-07
2.98026e-08
-1.2015e-07
-3.68166e-08
-1.38339e-07
-1.80489e-08
-1.0376e-07
-4.70021e-09
-1.08781e-07
2.96774e-08
-1.16678e-07
3.53715e-08
-1.48712e-07
3.39059e-08
-1.73419e-07
-1.11049e-08
-2.17434e-08
-1.73005e-07
-2.3385e-07
-6.05519e-08
-6.75933e-08
-1.65777e-07
-1.15674e-07
-1.81242e-07
-3.97105e-08
-5.75969e-08
-8.67253e-09
-1.43411e-07
-4.45913e-08
-2.0692e-07
-2.88722e-08
-1.76225e-07
-2.03231e-08
-1.50788e-07
-2.67778e-08
-1.91493e-07
-2.26901e-08
-3.10341e-08
-1.37009e-08
-5.95117e-08
2.45908e-08
-1.588e-07
-5.92375e-08
-4.75434e-08
-1.32086e-08
-1.37701e-07
-4.63675e-08
-1.30285e-07
-2.51885e-08
-9.32984e-08
-2.18184e-09
-6.0967e-08
5.72628e-08
6.77069e-09
9.69283e-08
-1.62762e-07
-3.79686e-10
-1.43576e-07
1.45868e-08
-1.62743e-07
2.36654e-08
-1.74042e-07
5.82658e-08
-1.685e-07
4.99299e-08
-1.71745e-07
9.12752e-10
-1.89518e-07
-4.06617e-09
-2.12605e-07
1.02123e-08
-2.26421e-07
3.85836e-09
-1.82732e-07
-2.03554e-08
-1.46393e-07
-1.24295e-08
-1.40007e-07
2.53776e-08
-1.52945e-07
4.91361e-08
-1.34867e-07
3.96429e-08
-1.29408e-07
-8.48955e-09
-1.58228e-07
2.3838e-08
-1.79367e-07
-3.0624e-08
-2.05058e-07
-4.80982e-08
-2.18309e-07
-4.18539e-08
-2.3729e-07
-5.14042e-08
-1.91581e-07
-5.98126e-08
-1.79341e-07
-4.53665e-08
-1.52953e-07
-6.21927e-08
-1.41241e-07
-5.92626e-08
-1.40221e-07
-5.11516e-08
-1.52046e-07
-5.03019e-08
-1.53733e-07
-4.72118e-08
-1.55571e-07
-4.23131e-08
-1.92152e-07
-2.66993e-09
-2.37299e-07
4.25577e-08
-2.47132e-07
3.56155e-08
-6.58356e-08
1.44199e-07
-1.36959e-07
5.47415e-08
-1.01932e-07
4.29741e-08
-5.27649e-09
6.48463e-08
-1.45614e-07
-5.45004e-08
-1.08958e-07
-2.45866e-08
-1.30086e-07
-9.16884e-09
-1.54135e-07
-4.72493e-09
-1.55984e-07
-4.74491e-09
-1.52678e-07
3.10477e-08
-1.57392e-07
1.95551e-08
-1.9911e-07
2.80854e-08
-2.23401e-07
1.5096e-08
-2.04924e-07
3.7315e-09
-1.73185e-07
7.00107e-09
-1.68644e-07
3.30066e-08
-1.92585e-07
5.17785e-08
-1.22451e-07
4.903e-08
-2.5646e-07
-3.43966e-08
-2.52127e-07
-1.16493e-08
-2.30246e-07
7.79649e-09
-2.06762e-07
1.18892e-08
-1.96551e-07
2.36965e-08
-2.10982e-07
3.32671e-09
-3.60443e-08
-1.80088e-07
-2.75164e-07
-6.11809e-08
-1.25017e-07
-9.71206e-08
-8.19062e-08
-1.36879e-07
-5.16484e-08
-1.08559e-07
-3.55973e-08
-1.47357e-07
4.52524e-08
-1.52742e-07
-2.3489e-08
-1.89387e-07
1.61567e-08
-2.05323e-07
-1.08432e-08
-2.12666e-07
-1.53485e-08
-6.67359e-08
-6.4921e-09
-1.72827e-07
-7.42635e-08
-1.42202e-07
-3.94216e-08
-1.13056e-07
-4.22203e-08
-1.75081e-07
-3.4077e-08
-1.4493e-07
-4.80981e-09
-1.27619e-07
-2.09729e-08
-6.7484e-08
-2.84455e-09
-1.17924e-08
4.03669e-08
-1.01251e-07
9.01004e-08
-1.47178e-07
6.00968e-08
-1.7726e-07
5.22447e-08
-2.04621e-07
8.56257e-08
-1.85557e-07
3.05541e-08
-1.97104e-07
1.24591e-08
-1.71249e-07
-3.02308e-08
-1.89784e-07
2.87466e-08
-2.09578e-07
2.36514e-08
-1.7814e-07
-4.99765e-08
-1.26714e-07
-6.39812e-08
-1.17576e-07
1.49465e-08
-9.97886e-08
3.08478e-08
-6.52435e-08
4.43228e-09
2.2883e-08
5.81021e-08
-1.17018e-07
1.03659e-08
-1.52557e-07
4.91551e-09
-2.02363e-07
-3.56717e-10
-2.35114e-07
-9.10211e-09
-2.32485e-07
-5.11102e-08
-1.72703e-07
-6.85474e-08
-1.51972e-07
-6.60972e-08
-1.50266e-07
-6.38977e-08
-1.65266e-07
-4.42628e-08
-1.82783e-07
-3.36337e-08
-1.95743e-07
-3.73416e-08
-2.10456e-07
-3.24987e-08
-2.06007e-07
-4.67618e-08
-1.94938e-07
-1.56998e-08
-2.03678e-07
-2.37413e-09
-1.10594e-07
9.94631e-08
-1.07277e-07
3.94816e-08
-8.61801e-08
3.25615e-08
-3.82164e-09
1.15334e-07
-1.09804e-07
1.70664e-08
-1.52646e-07
-1.16583e-08
-1.61411e-07
-1.58217e-08
-1.72418e-07
1.83854e-09
-1.82213e-07
5.06931e-09
-1.89277e-07
2.31911e-09
-1.77718e-07
1.9489e-08
-1.8814e-07
2.99772e-08
-2.02964e-07
4.29088e-08
-2.00043e-07
1.21754e-08
-1.92331e-07
-3.98054e-09
-1.80424e-07
-4.90509e-09
-1.5972e-07
1.23024e-08
-1.61664e-07
5.37228e-08
-1.61394e-07
4.82598e-08
-2.10262e-07
1.41209e-08
-2.21028e-07
-8.83253e-10
-2.13152e-07
-7.91e-11
-1.76128e-07
-2.488e-08
-1.66527e-07
1.4242e-08
-1.85054e-07
2.18551e-08
-1.29952e-08
-9.19842e-08
-3.49308e-07
-4.12081e-08
-1.71054e-07
-1.14742e-07
-9.03106e-09
-1.65509e-07
-5.24633e-08
-5.73237e-08
6.20909e-08
-1.67131e-07
-4.91276e-08
-1.60282e-08
2.94566e-08
-9.43227e-08
-5.71429e-08
-4.71834e-08
-5.95535e-08
-6.77751e-08
5.24215e-09
-4.52818e-08
-2.94486e-08
-9.60309e-08
-2.35156e-08
-1.27569e-07
-6.90546e-09
-1.42051e-07
-2.80247e-08
-1.92668e-07
1.65389e-08
-1.61542e-07
-3.5986e-08
-1.62961e-07
-1.78933e-08
-1.54664e-07
-1.12558e-08
-2.70512e-08
6.43144e-08
-1.32933e-07
4.28414e-08
-1.525e-07
8.02817e-08
-1.7572e-07
7.70202e-08
-1.8239e-07
4.31081e-08
-1.10984e-07
9.67886e-09
-1.12676e-07
1.18686e-08
-1.6365e-08
2.81752e-08
-1.26887e-07
-1.37049e-08
-1.20142e-07
1.69061e-08
-1.71165e-07
1.04623e-09
-8.92278e-08
6.56812e-09
-1.89425e-07
-3.79965e-08
-1.38989e-07
-1.95882e-08
-1.1253e-07
-2.20266e-08
-6.96372e-08
1.46165e-08
-1.29554e-07
6.95729e-08
-1.39185e-07
1.46963e-08
-1.72028e-07
3.21586e-08
-1.63127e-07
-1.7729e-08
-1.13186e-07
-1.0105e-07
-1.17126e-07
-6.46074e-08
-1.07025e-07
-7.61977e-08
-1.40487e-07
-3.04348e-08
-1.66434e-07
-1.83158e-08
-1.74649e-07
-2.54184e-08
-1.70538e-07
-4.1879e-08
-2.28565e-07
2.55284e-08
-2.31568e-07
-4.37591e-08
-2.04179e-07
-4.30882e-08
-6.5971e-08
1.3255e-08
-9.61597e-08
-2.29456e-08
-7.86782e-08
2.04112e-08
6.26861e-08
4.63935e-08
-3.44972e-08
5.75614e-08
-1.09348e-07
9.0989e-08
-1.69106e-07
4.80996e-08
-1.75746e-07
-9.27619e-09
-2.11775e-07
3.74853e-08
-2.16343e-07
9.63692e-09
-2.01933e-07
-1.20906e-08
-1.71145e-07
-1.12993e-08
-1.70301e-07
2.91337e-08
-1.61092e-07
3.36999e-08
-1.56296e-07
7.37909e-09
-1.74097e-07
1.3821e-08
-2.08394e-07
2.93919e-08
-2.13592e-07
1.75001e-08
-1.95579e-07
3.57103e-08
-1.7679e-07
2.94706e-08
-1.73567e-07
1.08981e-08
-1.72201e-07
-2.24876e-09
-1.74862e-07
-4.66808e-08
-1.22407e-07
-2.80383e-08
-1.46794e-07
-1.42036e-08
-1.12397e-07
4.00025e-08
6.61593e-09
-5.37323e-08
-2.99204e-07
-1.10573e-07
-1.07504e-07
-1.94735e-07
-7.84296e-08
-1.86259e-07
-6.24068e-08
-1.69258e-07
-4.05657e-09
-1.53758e-07
-1.20138e-08
-1.11761e-07
-1.25414e-08
-1.36278e-07
-3.57406e-08
-4.84615e-09
-3.66457e-08
-1.29963e-07
-2.27323e-08
-1.3291e-07
-2.65025e-08
-1.49273e-07
-6.91434e-09
-1.99057e-07
4.0847e-08
-1.51842e-07
7.9477e-08
-2.98325e-07
-3.96163e-08
-2.81841e-07
-1.42469e-09
-2.9555e-07
-7.20052e-09
-2.93242e-07
-1.36816e-08
-2.28483e-07
2.13019e-10
-2.14759e-07
2.91159e-08
-2.09487e-07
7.71686e-08
-1.86545e-07
5.40771e-08
-1.46444e-07
3.00546e-09
-1.22564e-07
-1.41029e-08
-1.07799e-07
-2.89691e-09
-1.15586e-07
3.5674e-08
-1.31848e-07
2.55648e-09
-1.67921e-07
5.24437e-08
-1.94496e-07
2.76207e-08
-1.9039e-07
2.46206e-09
-2.08009e-07
-2.03785e-08
-2.25277e-07
-2.31968e-09
-2.52518e-07
5.21417e-09
-1.27272e-07
4.38086e-08
-2.08596e-07
-2.77444e-09
-4.07394e-08
-1.72129e-10
-9.98826e-08
-5.88709e-08
-7.55513e-08
-4.30686e-08
-6.87918e-10
-2.37871e-08
-1.37595e-07
-8.08394e-08
-1.62946e-07
-5.08465e-08
-1.88813e-07
-4.5676e-09
-1.99704e-07
-7.42441e-09
-2.13415e-07
-1.38835e-08
-1.1692e-07
1.63444e-08
-2.64278e-07
-3.01073e-08
-2.90496e-07
3.35063e-08
-2.25696e-07
4.52513e-08
-2.10213e-07
-2.22756e-09
-1.82232e-07
-4.9301e-08
-2.40425e-07
-7.61864e-08
-9.68992e-08
5.46295e-08
-1.08367e-07
7.11237e-08
-2.31439e-07
6.18431e-08
-2.41178e-07
5.30173e-08
-1.21857e-07
2.76617e-08
-2.20871e-07
-1.38629e-08
-2.38749e-07
2.50066e-08
-2.28166e-07
-2.26737e-08
-2.01224e-07
-3.82413e-08
-1.71382e-07
-7.08383e-10
-1.58392e-07
-3.03365e-08
-1.54226e-07
5.37115e-08
-1.36558e-07
-3.88678e-09
-1.76477e-07
6.86118e-08
-1.91589e-07
3.26117e-08
-1.57172e-07
1.30746e-09
-1.75742e-07
4.80401e-08
-1.67449e-07
2.60529e-09
-1.77794e-07
8.09681e-09
-1.90135e-07
-3.43394e-08
-1.91113e-07
-2.73454e-08
-2.02707e-07
-2.46288e-09
-2.09241e-07
4.44028e-08
7.40326e-08
-9.96272e-08
-1.86726e-07
-2.35696e-07
-1.18672e-07
-2.38856e-07
-1.27117e-07
-2.04172e-07
-4.54084e-08
-1.91853e-07
-1.63764e-08
-2.00154e-07
-3.71398e-09
-1.94387e-07
-1.84366e-08
-2.18715e-07
-1.36446e-08
-8.08884e-08
-1.95798e-08
-2.41618e-07
-1.43185e-08
-2.40504e-07
-7.86638e-08
-2.40504e-07
-6.91564e-09
-2.22061e-07
7.34492e-08
-2.36252e-07
9.1919e-08
-2.82506e-07
6.70421e-09
-3.22269e-07
3.83374e-08
-3.07184e-07
-2.22865e-08
-3.24936e-07
7.4472e-09
-2.92342e-07
-3.23822e-08
-2.59966e-07
-9.19248e-09
-2.74164e-07
4.02075e-08
-2.35595e-07
6.93503e-08
-2.62659e-07
3.00685e-08
-2.82601e-07
5.83895e-09
-2.6366e-07
-2.18387e-08
-2.85892e-07
5.73198e-08
-1.96818e-07
6.86303e-08
-2.91972e-07
-3.99695e-09
-2.53817e-07
-1.3513e-08
-2.2352e-07
-2.78352e-08
-2.07468e-07
-3.64302e-08
-1.87726e-07
-2.20625e-08
-1.70108e-07
-1.24032e-08
-1.79028e-07
3.50808e-09
-1.42464e-07
1.11649e-08
-9.55137e-08
-4.8574e-08
-8.58571e-08
-6.91278e-08
-7.5254e-08
-5.48786e-08
-1.14258e-07
-3.63554e-08
-1.36518e-07
-6.36642e-09
-1.70528e-07
-1.68362e-08
-1.70803e-07
-4.29214e-09
-1.84522e-07
6.29459e-09
-2.00126e-07
1.72022e-09
-1.81045e-07
-2.90228e-09
-1.99878e-07
-1.12744e-08
-1.68215e-07
1.8434e-09
-1.31457e-07
8.49342e-09
-1.32198e-07
-1.48601e-09
-1.46511e-07
-3.68584e-08
-1.19898e-07
5.11336e-08
-1.44004e-07
7.94015e-08
-1.82958e-07
1.11944e-07
-2.86967e-07
1.4735e-08
-2.84888e-07
4.51045e-08
-1.56334e-07
5.35406e-08
-1.64539e-07
-2.52602e-09
-2.57546e-07
-3.3579e-08
-2.63797e-07
-1.90504e-08
-2.61702e-07
-4.03359e-08
-2.16451e-07
-4.59597e-08
-6.81998e-08
-2.47524e-08
-1.3707e-07
-3.03952e-08
-1.09311e-08
2.33919e-08
-1.19655e-07
2.55948e-08
-1.09281e-07
2.01076e-08
-2.53013e-08
7.13108e-08
-1.3982e-07
-4.17952e-08
-1.45033e-07
5.88645e-08
-1.35041e-07
-1.89482e-09
-1.5201e-07
-1.73695e-08
-1.79722e-07
3.67825e-10
-1.95211e-07
1.30278e-08
-1.88301e-07
3.74928e-08
1.20611e-08
-1.83242e-07
-2.37929e-07
-1.867e-07
-1.01994e-07
-1.87787e-07
-1.24127e-07
-1.69343e-07
-6.38534e-08
-1.48161e-07
-3.75584e-08
-1.49295e-07
-2.58164e-09
-1.65545e-07
-2.18747e-09
-1.92314e-07
1.11615e-08
-8.77375e-08
3.07627e-08
-2.74475e-07
-3.08732e-08
-2.09446e-07
6.04922e-08
-2.48079e-07
3.17168e-08
-2.21556e-07
4.91846e-08
-3.00388e-07
1.61238e-08
-2.01393e-07
5.93303e-08
-2.96564e-07
-1.74005e-08
-1.85474e-07
2.18765e-08
-2.59785e-07
-6.98361e-08
-2.54516e-07
-4.06327e-08
-2.33305e-07
-3.27846e-08
-2.82737e-07
3.72676e-08
-2.70599e-07
6.00957e-08
-2.83982e-07
4.34507e-08
-3.09946e-07
3.21295e-08
-1.97615e-07
7.20314e-08
-2.78091e-07
-1.37978e-08
-2.36246e-07
2.3948e-08
-2.16447e-07
-2.38377e-08
-1.6556e-07
-6.44003e-08
-1.52594e-07
-4.08011e-08
-1.6759e-07
-2.14347e-08
-1.63802e-07
-2.58503e-08
-1.51445e-07
-2.47605e-08
-1.84502e-07
-1.44819e-08
-1.53579e-07
-1.96435e-08
-1.45602e-07
-5.50489e-09
-1.63496e-07
-5.12331e-08
-1.84882e-07
-3.38372e-08
-1.88412e-07
-3.21266e-08
-1.80982e-07
-1.37966e-08
-1.87935e-07
-9.88216e-09
-1.91453e-07
-7.73812e-10
-1.90083e-07
4.92429e-09
-1.85937e-07
-2.42512e-09
-1.76342e-07
-1.24968e-08
-1.74649e-07
-1.29679e-08
-1.69752e-07
-3.05298e-09
-1.47291e-07
-1.4111e-08
-1.78736e-07
2.81354e-08
-1.22737e-07
6.18607e-08
-1.27811e-07
5.6939e-08
-1.12581e-07
6.41711e-08
-2.48529e-07
4.57746e-08
-2.29966e-07
4.68516e-08
-2.1703e-07
2.9823e-08
-1.79531e-07
1.54951e-08
-1.77127e-07
-4.92992e-09
-1.95446e-07
-1.56026e-08
-2.09351e-07
-5.14532e-09
-2.16627e-07
-3.30596e-08
-2.13585e-07
-4.9002e-08
-7.94255e-08
-5.77162e-09
-8.87912e-08
-2.13395e-08
-5.29854e-08
-1.21118e-08
-1.53175e-07
-2.70967e-08
-1.83688e-08
3.86301e-08
-1.03687e-07
3.45436e-09
-2.51275e-08
3.32949e-08
-1.5324e-07
-1.69523e-08
-1.25275e-07
2.1187e-08
-1.63385e-07
2.07404e-08
-2.05186e-07
4.21703e-08
-2.14711e-07
2.25548e-08
-2.17987e-07
-1.02774e-08
6.78869e-08
-1.83223e-07
-2.18862e-07
-1.59093e-07
-6.15804e-08
-1.7252e-07
-1.11842e-07
-1.94389e-07
-4.19853e-08
-1.81783e-07
-5.0165e-08
-1.56148e-07
-2.82172e-08
-1.48767e-07
-9.56994e-09
-1.51139e-07
1.3533e-08
-1.40152e-07
1.94607e-08
-1.79663e-07
8.63704e-09
-1.59579e-07
4.0407e-08
-1.76106e-07
4.82429e-08
-1.66621e-07
3.96981e-08
-1.65769e-07
1.5435e-08
-1.6035e-07
3.8945e-09
-1.3172e-07
3.1689e-09
-1.48738e-07
-1.40371e-08
-1.31844e-07
-3.48794e-08
-1.0142e-07
-7.1058e-08
-1.16409e-08
3.06939e-08
-1.17293e-07
-9.0504e-09
-1.24072e-07
6.56771e-08
-1.15678e-07
3.38749e-08
-1.25091e-07
4.15421e-08
-8.65177e-08
3.47336e-08
-1.12405e-07
1.19484e-08
-1.37101e-07
-2.40359e-09
-1.40415e-07
-2.05239e-08
-1.39284e-07
-1.44857e-08
-1.22939e-07
-5.7146e-08
-1.15669e-07
-2.87046e-08
-1.38778e-07
-2.74166e-09
-1.61487e-07
-2.05213e-09
-2.06272e-07
-2.07427e-08
-1.55626e-07
-1.92433e-08
-1.42356e-07
-1.87747e-08
-1.77855e-07
-1.75479e-08
-2.26084e-07
-3.52132e-08
-2.33709e-07
2.80294e-08
-2.38724e-07
-1.11659e-08
-2.33601e-07
-1.50042e-08
-2.20981e-07
-1.33935e-08
-1.94773e-07
-2.12836e-08
-1.72347e-07
-2.48508e-08
-1.37344e-07
-4.79893e-08
-1.87609e-07
3.72977e-08
-2.16141e-07
2.32742e-08
-1.36842e-07
6.13086e-08
-1.8016e-07
7.28495e-08
-1.827e-07
6.37699e-08
-1.40216e-07
1.44545e-08
-1.32936e-07
5.76601e-08
-2.49456e-07
1.07015e-08
-2.34634e-07
2.99624e-08
-2.18265e-07
1.34537e-08
-2.01049e-07
-1.72079e-09
-1.70206e-07
-3.57722e-08
-1.43266e-07
-4.25424e-08
-1.47755e-07
-6.56128e-10
-1.62726e-07
-1.80892e-08
-1.76036e-07
-3.56915e-08
-1.62518e-07
-1.92899e-08
-1.8632e-07
2.46269e-09
-1.82022e-07
-1.64098e-08
-1.85641e-07
-2.37539e-08
-1.46927e-07
-4.77838e-10
-1.61937e-07
1.84999e-08
-1.5503e-07
2.60484e-08
-1.9096e-07
1.89786e-08
-1.85065e-07
1.5292e-08
-1.81417e-07
1.70926e-08
-1.6271e-07
2.34649e-08
-1.37335e-07
-2.81812e-09
-1.52889e-07
5.27725e-09
1.51976e-08
-2.17032e-07
-1.64332e-07
-9.09336e-08
-7.20497e-08
-2.09585e-07
-1.46973e-07
-1.76683e-07
-7.27492e-08
-2.0302e-07
-7.48759e-08
-1.4668e-07
-3.35111e-08
-1.38959e-07
-1.72925e-08
-1.27064e-07
1.6377e-09
-1.37899e-07
3.02947e-08
-1.59659e-07
3.03952e-08
-1.2757e-07
8.31755e-09
-1.19328e-07
4.00001e-08
-1.79769e-07
4.90912e-08
-1.2352e-07
1.02315e-08
-1.29886e-07
1.02597e-08
-1.33356e-07
6.66994e-09
-1.40404e-07
-6.84729e-09
-2.02516e-07
-2.38151e-08
-9.11594e-08
2.17707e-08
-6.69369e-08
6.47037e-09
-7.07308e-08
-5.34974e-09
-1.62047e-07
-4.71944e-08
-1.23334e-07
-4.83841e-09
-7.87884e-08
-3.42828e-09
-1.10698e-07
6.59698e-08
-1.27391e-07
7.96868e-08
-1.53377e-07
2.35822e-08
-1.56493e-07
-1.74084e-08
-1.55294e-07
-6.74194e-08
-1.71983e-07
1.05887e-08
-1.44635e-07
-5.60529e-08
-1.38932e-07
-8.44487e-09
-1.65802e-07
2.48183e-08
-1.93781e-07
7.23575e-09
-2.02661e-07
-1.03631e-08
-2.06826e-07
-1.46097e-08
-2.30938e-07
4.20922e-09
-1.55271e-07
4.58006e-08
-2.53152e-07
-2.3831e-08
-2.49973e-07
-1.69269e-08
-2.4141e-07
-2.3567e-08
-2.25797e-07
-2.90064e-08
-2.23125e-07
-2.39545e-08
-2.46151e-07
-4.33651e-09
-1.33321e-07
-6.16365e-09
-2.59229e-07
-3.96203e-08
-2.48735e-07
1.27806e-08
-2.19755e-07
8.27493e-08
-2.51006e-07
1.04101e-07
-2.45616e-07
5.77905e-08
-1.4797e-07
7.14578e-08
-2.39018e-07
-2.885e-09
-2.45614e-07
1.49691e-08
-2.11244e-07
-4.36327e-09
-1.96663e-07
-1.12686e-09
-1.69861e-07
-2.88173e-08
-7.00835e-08
1.74129e-08
-6.4505e-08
-4.81208e-08
-1.74593e-07
-9.57309e-08
-1.42567e-07
9.31405e-10
-1.53236e-07
-2.50224e-08
-1.36127e-07
-3.63989e-08
-1.66058e-07
3.23944e-08
-1.73819e-07
-8.64873e-09
-1.82184e-07
-1.5389e-08
-1.85819e-07
3.1574e-09
-2.04491e-07
3.71722e-08
-1.84654e-07
6.21128e-09
-2.14372e-07
4.86974e-08
-2.04642e-07
5.56241e-09
-1.76234e-07
-1.13145e-08
-1.42553e-07
-1.02152e-08
-1.23594e-07
-2.17753e-08
-1.2774e-07
9.42415e-09
1.24833e-08
-1.04785e-07
-2.37632e-07
5.34276e-08
-1.72067e-07
-3.27734e-08
9.38661e-08
-5.03335e-08
-5.51899e-08
-1.27737e-07
2.52702e-09
-1.32578e-07
-2.8671e-08
-1.54952e-07
5.07999e-09
-1.71152e-07
1.78372e-08
-1.76241e-07
3.5382e-08
-1.78449e-07
3.26028e-08
-7.99958e-08
6.30028e-08
-7.07529e-08
3.07562e-08
-2.01918e-07
-2.39306e-08
-1.32513e-07
-8.12822e-09
-1.22162e-07
-9.29971e-11
-1.72857e-07
6.31793e-09
-1.59101e-07
3.04417e-08
-1.87092e-07
4.1748e-09
-1.58648e-07
-6.67442e-09
-1.29802e-07
-2.23762e-08
-1.14904e-07
-2.0249e-08
-1.48759e-07
-1.33407e-08
-1.71227e-07
1.76291e-08
-4.10698e-08
1.99725e-08
-1.20393e-07
-6.30107e-09
-1.06559e-07
6.46241e-08
-9.19207e-08
8.94324e-09
-8.90565e-08
-2.11816e-08
-3.32911e-09
1.57096e-09
-1.60584e-07
-3.63094e-08
-1.44277e-07
-2.13129e-08
-1.46233e-07
-6.48932e-09
-1.52957e-07
3.1542e-08
-1.74321e-07
2.86002e-08
-1.81378e-07
-3.30598e-09
-1.78794e-07
-1.71938e-08
-1.6601e-07
-8.57478e-09
-1.13104e-07
-7.57202e-09
-1.16171e-07
-2.10072e-08
-1.39966e-07
6.86787e-09
-1.65948e-07
2.41535e-09
-1.88024e-07
-6.92952e-09
-2.17533e-07
5.5543e-09
-2.42374e-07
1.80325e-08
-1.39375e-07
4.56191e-08
-1.89927e-07
1.23541e-08
-2.02789e-07
2.56428e-08
-1.71475e-07
5.1435e-08
-2.82073e-07
1.33911e-08
-2.1469e-07
4.09382e-08
-1.65771e-07
2.03493e-08
-1.79722e-07
1.10365e-08
-1.94135e-07
-1.96844e-08
-1.47445e-07
-5.21505e-10
-1.33033e-07
-1.84003e-08
-4.96744e-09
-2.11317e-09
-9.05965e-08
-4.8501e-08
-1.12959e-07
-2.78342e-08
-5.45273e-08
5.55148e-10
-1.60309e-07
-4.58707e-08
-1.66226e-07
-1.9105e-08
-5.23305e-08
2.8456e-09
-1.7175e-07
-5.23719e-08
-1.29519e-07
1.6666e-10
-1.51247e-07
6.33973e-09
-1.41615e-07
-6.47445e-09
-1.96482e-07
4.09924e-08
-8.52827e-08
9.81969e-08
-1.51532e-07
-3.81926e-08
-1.22888e-07
-2.30815e-08
-1.58034e-07
2.38321e-08
-2.08291e-07
4.04557e-08
-2.26297e-07
-3.7668e-09
-2.21439e-07
4.56587e-09
1.05973e-08
-2.09534e-07
-1.92818e-07
-1.81615e-07
-3.18842e-08
-2.47495e-07
6.60589e-09
-2.14827e-07
-8.7859e-08
-2.0021e-07
-1.20906e-08
-1.99327e-07
-2.95555e-08
-2.0969e-07
1.54421e-08
-2.11434e-07
1.95806e-08
-1.82894e-07
6.84055e-09
-1.35432e-07
-1.50126e-08
-1.21208e-07
4.8285e-08
-1.22158e-07
3.1705e-08
-1.5339e-07
7.30053e-09
-1.62639e-07
1.11932e-09
-1.79307e-07
1.65739e-08
-1.87101e-07
1.41107e-08
-1.81386e-07
2.47262e-08
-1.90396e-07
1.31837e-08
-1.87809e-07
-9.26308e-09
-1.9934e-07
-1.08456e-08
-2.021e-07
-1.74899e-08
-1.92294e-07
-2.31476e-08
-1.9006e-07
1.53937e-08
-6.99379e-08
5.29896e-08
-7.80546e-08
1.75064e-09
-1.88829e-07
-2.87885e-08
-1.37474e-07
8.63404e-09
-1.50039e-07
-8.61669e-09
-1.32095e-07
-1.63901e-08
-1.60188e-07
-8.21631e-09
-1.78066e-07
-3.43487e-09
-1.73777e-07
-1.07792e-08
-1.48352e-07
6.11709e-09
-1.39812e-07
2.00606e-08
-1.70465e-07
2.7347e-08
-1.98502e-07
1.08435e-08
-1.88181e-07
-1.88962e-08
-1.63875e-07
-3.18781e-08
-1.58537e-07
-2.63448e-08
-1.59414e-07
7.74518e-09
-1.81267e-07
2.42687e-08
-2.04678e-07
1.6482e-08
-2.33203e-07
3.40791e-08
-2.34967e-07
1.97969e-08
-2.07432e-07
1.76189e-08
-2.13736e-07
1.86586e-08
-2.0616e-07
1.80666e-08
-1.7875e-07
2.40251e-08
-1.938e-07
2.84418e-08
-1.46332e-07
-6.11263e-09
-9.22878e-08
-3.36942e-08
-1.11954e-07
3.03929e-08
-1.44672e-07
1.30334e-08
-1.47043e-07
1.86373e-09
-1.38968e-07
-2.6475e-08
-1.19108e-07
-2.19515e-08
-1.55025e-07
-1.3079e-08
-1.838e-07
-5.01048e-08
-1.27216e-07
-5.60343e-08
-1.50203e-07
-2.28842e-08
-1.404e-07
2.21392e-08
-1.18869e-07
-1.86855e-08
-1.57969e-07
-1.32721e-08
-1.19839e-07
-3.79626e-08
-1.85729e-07
2.11833e-08
-5.66899e-08
6.86732e-08
-4.25915e-08
2.73288e-08
-7.05227e-08
-2.54647e-08
-9.55006e-08
-1.39337e-08
-9.25599e-08
-2.60218e-08
-9.89535e-08
2.92169e-08
-1.5823e-07
4.81605e-08
-1.47848e-07
3.85144e-08
-1.22329e-07
-2.09527e-08
3.91574e-08
-2.10374e-07
-1.33204e-07
-3.12999e-07
-7.16694e-08
-2.06696e-07
-9.9698e-08
-2.27166e-07
-6.73896e-08
-1.83586e-07
-5.56712e-08
-1.58091e-07
-5.56189e-08
-1.87983e-07
4.5333e-08
-1.68709e-07
3.05744e-10
-1.46949e-07
-1.64196e-08
-6.11276e-08
5.45132e-08
-1.73094e-07
9.27431e-09
-2.03438e-07
5.96732e-08
-2.13267e-07
1.7129e-08
-2.10168e-07
-1.98067e-09
-1.95638e-07
2.04276e-09
-1.96377e-07
1.48486e-08
-1.88949e-07
1.72971e-08
-1.97246e-07
2.14793e-08
-2.15387e-07
8.87763e-09
-2.3129e-07
5.05599e-09
-2.36391e-07
-1.239e-08
-2.21011e-07
-3.85281e-08
-1.98981e-07
-6.63724e-09
-1.70467e-07
2.4475e-08
-1.59447e-07
-9.36574e-09
-2.15745e-07
2.72314e-08
-2.28456e-07
2.13436e-08
-2.45567e-07
8.49399e-09
-2.4443e-07
-1.75274e-08
-2.3186e-07
-2.07861e-08
-2.21017e-07
-1.4279e-08
-2.08094e-07
-2.37019e-08
-1.9241e-07
-9.56715e-09
-1.62649e-07
-9.70046e-09
-1.74926e-07
3.96247e-08
-1.80114e-07
1.60314e-08
-1.94842e-07
-4.16828e-09
-1.84808e-07
-4.19118e-08
-1.70025e-07
-4.11275e-08
-1.5439e-07
-7.89014e-09
-1.53615e-07
2.34944e-08
-1.67318e-07
3.01847e-08
-1.70983e-07
3.77446e-08
-1.79369e-07
2.8183e-08
-1.93157e-07
3.14077e-08
-2.06737e-07
3.22389e-08
-1.93682e-07
5.01197e-09
-1.63646e-07
-6.01075e-09
-1.26874e-07
-8.32977e-09
-1.47425e-07
1.44384e-08
-3.2174e-08
4.52282e-09
-1.48427e-07
-4.89793e-09
-8.48741e-08
-5.34441e-08
-1.16085e-07
-1.84976e-08
-1.03613e-07
1.32843e-08
-1.21008e-07
-4.55689e-09
-1.44093e-07
-4.10406e-08
-1.69041e-07
-2.51563e-08
-1.51829e-07
-2.21996e-08
-1.60582e-07
-1.41307e-08
-1.38523e-07
7.96537e-11
-1.4493e-07
-1.2278e-08
-1.98209e-07
-1.1039e-08
-8.44108e-08
5.24252e-08
-8.86187e-08
2.53915e-08
-4.63868e-08
2.64416e-08
-3.19809e-08
1.29232e-08
-1.99943e-08
-3.77108e-08
-1.67807e-07
-7.03073e-08
-1.4216e-07
-6.21509e-10
-1.26883e-07
1.39407e-08
-1.63545e-07
3.32856e-08
-1.67167e-07
4.21387e-08
-5.13219e-08
6.7389e-08
-5.33127e-08
-2.15894e-07
-7.1924e-08
-2.92542e-07
1.61549e-08
-2.4121e-07
-1.51031e-07
-2.64013e-07
-4.45876e-08
-2.55456e-07
-6.68348e-08
-1.68196e-07
1.18378e-08
-2.62629e-07
-6.33512e-08
-2.64102e-07
1.77731e-09
-1.63611e-07
8.72748e-08
-1.85845e-07
7.54209e-08
-1.6967e-07
-5.12813e-09
-2.62472e-07
8.72191e-10
-2.42026e-07
-5.99548e-09
-2.24283e-07
-1.97254e-08
-2.06286e-07
-1.59552e-08
-1.88567e-07
-2.87071e-09
-1.81838e-07
1.05668e-08
-1.75751e-07
1.53908e-08
-1.81053e-07
1.41791e-08
-1.59846e-07
-1.61524e-08
-1.42118e-07
-3.01186e-08
-1.48158e-07
-3.24894e-08
-1.62901e-07
8.10548e-09
-1.76463e-07
3.62355e-08
-9.64025e-08
6.62849e-08
-2.17672e-07
-2.11895e-09
-2.23933e-07
2.53829e-08
-2.29996e-07
1.45569e-08
-2.20872e-07
-2.66524e-08
-2.10011e-07
-3.1647e-08
-2.07816e-07
-1.64749e-08
-2.09344e-07
-2.2174e-08
-1.94246e-07
-2.46648e-08
-1.86785e-07
-1.71621e-08
-1.75207e-07
-2.29995e-08
-1.19558e-07
1.14291e-08
-1.21035e-07
-2.6911e-09
-1.35658e-07
-2.72894e-08
-1.49626e-07
-2.71592e-08
-1.464e-07
-1.11161e-08
-1.3403e-07
1.11248e-08
-1.40619e-07
3.67738e-08
-1.31045e-07
2.81716e-08
-1.39309e-07
3.64467e-08