/*--------------------------------*- C++ -*----------------------------------*\
  =========                 |
  \\      /  F ield         | OpenFOAM: The Open Source CFD Toolbox
   \\    /   O peration     | Website:  https://openfoam.org
    \\  /    A nd           | Version:  12
     \\/     M anipulation  |
\*---------------------------------------------------------------------------*/
FoamFile
{
    format      ascii;
    class       surfaceScalarField;
    location    "0.15";
    object      phi.water;
}
// * * * * * * * * * * * * * * * * * * * * * * * * * * * * * * * * * * * * * //

dimensions      [0 3 -1 0 0 0 0];

internalField   nonuniform List<scalar> 
7375
(
-4.98547e-08
-1.09819e-07
2.32432e-07
-2.948e-07
2.15629e-07
6.98599e-09
1.50844e-07
6.67094e-08
1.38721e-07
1.04457e-08
1.42881e-07
-4.23526e-09
1.26581e-07
1.60384e-08
2.53351e-07
2.3783e-08
1.72386e-07
-7.07054e-08
2.0569e-07
-3.19467e-08
2.27425e-07
-2.17751e-08
2.24451e-07
2.939e-09
2.2926e-07
-4.73506e-09
2.0895e-07
2.01883e-08
1.93161e-07
1.58482e-08
1.8433e-07
8.86125e-09
2.23527e-07
-3.91923e-08
2.24782e-07
-1.20641e-09
2.40427e-07
-1.56399e-08
2.4697e-07
-3.8899e-09
1.8138e-07
1.25329e-08
1.90996e-07
3.90832e-08
1.72611e-07
2.02978e-08
1.74796e-07
-2.22893e-09
2.05476e-07
-3.07248e-08
2.36019e-07
-3.05857e-08
2.51213e-07
-1.79102e-08
2.68874e-07
-1.49453e-08
2.572e-07
1.4785e-08
2.46518e-07
8.03349e-09
2.47408e-07
-9.36454e-10
2.41091e-07
6.26019e-09
2.26091e-07
1.49282e-08
2.08398e-07
1.78315e-08
2.21128e-07
-1.27088e-08
3.5871e-07
1.54027e-08
2.00788e-07
-4.66648e-08
2.46362e-07
5.44891e-09
2.51253e-07
-4.90806e-09
2.48746e-07
2.43591e-09
2.42635e-07
6.04718e-09
2.46384e-07
-6.29639e-09
2.80245e-07
-3.3861e-08
3.37329e-07
-5.08314e-08
3.0646e-07
3.074e-08
2.79981e-07
2.34003e-08
2.37094e-07
4.08874e-08
2.39037e-07
4.70139e-10
2.24144e-07
1.73773e-08
1.93543e-07
3.02902e-08
2.68449e-07
8.06356e-08
2.50487e-07
1.53564e-08
9.61862e-08
-4.98323e-08
2.63959e-07
3.36748e-08
1.28144e-07
-1.57905e-08
1.61537e-07
-3.21751e-08
2.13985e-07
-5.4591e-08
2.74137e-07
-6.01528e-08
2.91814e-07
-1.17503e-08
2.72506e-07
1.94273e-08
2.37946e-07
3.18663e-08
2.24638e-07
1.56962e-08
1.71803e-07
1.66708e-09
1.69094e-07
5.20547e-08
1.38112e-07
2.95531e-08
1.42151e-07
-4.0394e-09
1.55752e-07
-1.23088e-08
1.74472e-07
-1.88163e-08
1.93687e-07
-1.9298e-08
2.02649e-07
-8.95725e-09
2.34227e-07
-3.18959e-08
2.17608e-07
1.65554e-08
2.28695e-07
-8.54994e-09
1.7476e-07
2.66174e-09
3.63402e-08
-8.48767e-08
-1.89523e-07
-1.94105e-07
-2.15576e-07
-1.11767e-07
-7.56497e-08
6.11059e-08
4.76714e-08
-8.31836e-08
1.06809e-09
5.93652e-08
6.46517e-09
-4.80313e-08
-2.87574e-08
1.03432e-08
-3.50811e-08
-4.72561e-09
-5.69871e-08
2.25061e-08
-5.9178e-08
9.13469e-09
-8.54572e-09
-8.47286e-09
-3.04131e-08
2.70319e-08
1.02916e-08
-1.5741e-09
4.90544e-08
-3.56858e-08
4.99603e-08
-4.16186e-08
1.51585e-08
4.55858e-08
2.67433e-08
-5.4555e-08
-5.42048e-08
-2.67705e-08
-4.3151e-08
-9.18383e-09
-2.14762e-08
-7.84455e-09
1.09724e-08
3.12969e-08
3.44337e-10
1.23568e-08
3.92381e-08
4.16881e-09
5.95938e-09
7.36096e-10
-2.7292e-08
6.59787e-09
-3.63799e-08
1.2674e-08
-2.39863e-08
8.36893e-09
-1.09219e-08
7.2126e-09
1.57904e-08
-1.17928e-08
2.70389e-08
-2.87962e-08
1.63605e-08
-4.11118e-08
1.85757e-08
-4.84043e-08
2.13073e-08
-7.95116e-08
-2.63409e-09
-1.66288e-08
-2.35646e-08
2.71072e-08
-2.80598e-08
-3.93954e-08
-3.1456e-08
1.39787e-08
3.48735e-09
-5.84344e-09
1.49732e-08
-2.4616e-08
2.12081e-08
-3.60813e-08
1.72609e-08
-1.82765e-08
-2.41017e-08
2.19302e-08
-7.44137e-08
1.60296e-07
-3.76937e-08
9.98777e-08
-6.07456e-08
1.3532e-07
-9.64309e-09
1.15588e-07
9.04645e-09
1.25647e-07
3.98757e-08
1.00293e-07
4.21234e-08
7.44581e-08
5.63098e-08
9.70744e-08
5.71875e-08
1.65317e-08
9.49082e-08
-5.64226e-08
2.31214e-08
-4.06215e-08
1.7873e-08
-1.01146e-07
-6.47394e-09
-9.1173e-08
-4.21491e-08
-3.00199e-08
-6.46981e-08
-1.5723e-08
-7.50639e-08
5.97327e-09
-3.34471e-08
1.60289e-08
9.17283e-09
1.18167e-08
3.60779e-08
2.22615e-08
5.25079e-09
2.12527e-08
2.65838e-09
-1.50138e-08
8.74288e-08
-5.52055e-08
6.97444e-08
-1.00094e-07
4.12284e-08
-1.08366e-07
-4.03727e-09
-9.54634e-08
-3.172e-08
-8.42763e-08
-3.04858e-08
-1.34008e-07
3.94061e-08
-4.61439e-08
3.54332e-08
-1.39968e-07
-4.07481e-08
-1.06914e-07
-4.30319e-08
-9.6911e-08
-7.29372e-09
6.96883e-09
-1.80671e-07
-1.71416e-07
-1.85778e-07
-1.47671e-07
-1.17575e-07
-1.44624e-07
-8.40813e-08
1.32055e-08
-9.9914e-08
1.67412e-08
-8.54948e-08
-8.10231e-09
-6.41267e-08
-5.04186e-08
-8.87017e-08
-1.14107e-08
-5.345e-08
6.24796e-08
-8.67547e-08
-2.38389e-08
-1.68699e-07
-7.8194e-08
-1.53412e-07
-4.74209e-08
-1.13864e-07
-2.88567e-08
-5.95659e-08
-5.2432e-09
-2.321e-08
1.30951e-08
-1.03398e-08
2.28877e-09
-2.6894e-08
4.32979e-08
-1.16519e-07
3.57853e-08
-1.36627e-07
-2.30422e-08
-1.39038e-07
-1.92834e-08
-1.45684e-07
1.61317e-08
-2.61754e-08
3.55544e-08
-1.39349e-07
-4.60447e-10
-1.66121e-07
3.27312e-08
-1.91749e-07
-1.66395e-09
-2.02495e-07
-2.56335e-08
-2.13632e-07
-1.26048e-08
-2.17198e-07
-7.35573e-09
-2.20537e-07
1.91291e-08
-2.14129e-07
2.0631e-08
-1.93772e-07
-4.03759e-09
-2.16586e-07
4.15791e-08
-2.19367e-07
2.40877e-08
-2.11185e-07
-1.07894e-08
-1.86622e-07
-4.81281e-08
-1.95719e-07
-1.90546e-08
-1.84354e-07
-4.06198e-08
-1.4985e-07
-3.10166e-08
-1.29989e-07
-6.41691e-09
-1.14268e-07
5.70226e-09
-8.36955e-08
-1.33116e-08
-6.95738e-08
-3.82239e-08
-8.43762e-08
-5.96117e-08
-5.81903e-08
-6.38801e-08
-5.52948e-08
-6.42613e-08
-2.82134e-08
-3.6725e-08
-2.19599e-09
-1.70415e-08
4.0248e-08
-2.97528e-09
4.51657e-08
3.71554e-08
1.68715e-08
8.50595e-08
9.51382e-08
1.31649e-07
-1.07263e-07
9.31229e-08
-1.02964e-07
6.98684e-08
-1.16164e-07
3.10719e-08
-1.14176e-07
-8.46239e-09
-1.26617e-07
-2.97093e-08
-1.35021e-07
-5.62945e-08
-1.4992e-07
-6.01651e-08
-1.87917e-07
4.54898e-09
-2.07781e-07
2.9036e-08
-1.91889e-07
2.01854e-08
-1.83832e-07
-2.80687e-09
-4.60579e-08
1.84937e-08
-1.27359e-07
1.7136e-08
-8.7179e-08
2.73756e-08
-1.46479e-07
4.89557e-08
-1.33035e-07
3.50582e-08
-1.60896e-07
-3.85948e-09
-3.29606e-08
-5.28199e-09
-1.69241e-07
-2.85008e-08
-1.1702e-07
3.38966e-08
-1.64813e-07
6.62914e-09
-2.08616e-07
2.9004e-09
-1.8231e-07
-3.3601e-08
-5.52306e-08
-1.12754e-07
-2.28115e-07
-1.9053e-07
-1.15687e-07
-6.10314e-08
-6.79926e-08
-2.0346e-07
-4.64759e-08
-1.26163e-07
-1.12986e-08
-1.6835e-07
-1.8788e-08
-3.20217e-08
1.91569e-08
-2.37932e-08
-1.96388e-08
-1.20907e-07
-4.52294e-08
-7.97035e-08
-1.3996e-08
-5.57518e-08
5.01966e-08
-8.02724e-08
-2.2081e-08
-1.42301e-07
-1.18421e-07
-1.20324e-07
-2.86715e-08
-5.16487e-08
-5.55794e-08
-5.34098e-08
4.00931e-09
-4.01536e-08
2.96325e-08
-1.0616e-07
5.02192e-08
-1.64919e-07
3.71801e-08
-1.64661e-07
3.15047e-08
-1.53165e-07
4.63661e-09
-1.29887e-07
1.19136e-08
-1.71576e-07
4.12292e-08
-1.92592e-07
5.37476e-08
-1.95783e-07
1.52713e-09
-2.03623e-07
-1.77936e-08
-2.04173e-07
-1.20545e-08
-2.0002e-07
-1.15085e-08
-1.88144e-07
7.25294e-09
-1.57514e-07
-1.16068e-08
-7.46315e-08
6.77984e-08
-2.38539e-07
5.31083e-08
-2.59146e-07
4.46949e-08
-2.63305e-07
-6.69963e-09
-1.82574e-07
2.58792e-08
-2.70243e-07
-8.29792e-08
-2.31039e-07
-8.25815e-08
-2.09135e-07
-5.32376e-08
-1.99762e-07
-1.59522e-08
-1.89902e-07
-4.15848e-09
-1.58752e-07
-4.49201e-08
-1.66753e-07
-3.02233e-08
-1.86576e-07
-3.979e-08
-2.00544e-07
-4.99127e-08
-1.98639e-07
-6.61664e-08
-1.99707e-07
-3.56578e-08
-1.89769e-07
-2.69794e-08
-1.74998e-07
-1.79609e-08
-1.54776e-07
1.73125e-08
-1.35655e-07
6.68057e-08
-1.09528e-07
1.58181e-07
-9.446e-08
7.80543e-08
-1.10886e-07
8.62935e-08
-1.46461e-07
6.66463e-08
-1.17688e-07
-3.72356e-08
-1.06633e-07
-4.07647e-08
-1.33551e-07
-2.9377e-08
-1.70891e-07
-2.28259e-08
-1.65323e-07
-1.01942e-09
-1.73206e-07
3.69178e-08
-1.72239e-07
1.92182e-08
-1.67679e-07
-7.36811e-09
-1.43931e-07
-5.25444e-09
-1.48161e-07
2.15407e-08
-2.72284e-08
5.95819e-08
-1.3725e-07
5.33755e-09
-1.32632e-07
3.04396e-08
-1.48879e-07
1.25153e-08
-8.50963e-08
-6.90657e-08
-1.17454e-07
3.8174e-09
-9.11648e-08
7.60671e-09
-1.15281e-07
3.07454e-08
-1.47303e-07
3.49229e-08
-1.89089e-07
7.84142e-09
-9.14642e-09
-1.43856e-07
-2.5225e-07
-2.11404e-07
-8.96222e-08
-2.34338e-08
-4.96199e-08
-1.6603e-07
-5.7607e-08
-1.82322e-07
-4.61677e-08
-1.60465e-07
1.05935e-08
-1.45219e-07
3.91127e-09
-1.34245e-07
-3.0613e-08
-1.48429e-07
-3.1045e-08
-1.37008e-07
-2.54159e-08
-1.20679e-07
-1.71792e-08
-1.17883e-07
-2.48766e-08
-4.07585e-08
7.43286e-09
-2.02476e-07
-7.11395e-08
-4.3634e-08
-9.78989e-09
-1.38411e-07
-5.22789e-08
-8.96167e-08
-2.05731e-08
-7.60393e-08
3.53541e-08
-1.52736e-07
6.23042e-08
-1.16888e-07
4.77744e-08
-1.30461e-07
1.8026e-08
-1.48477e-07
2.99301e-08
-1.65076e-07
5.78284e-08
-1.65371e-07
5.40432e-08
-1.76131e-07
1.22868e-08
-1.98064e-07
4.13962e-09
-2.18474e-07
8.35566e-09
-2.33115e-07
3.13313e-09
-2.10979e-07
-1.48836e-08
-7.17896e-08
2.34347e-09
-5.84163e-08
5.31907e-08
-1.74302e-07
1.58545e-08
-1.69753e-07
3.84135e-08
-7.9264e-08
5.89539e-08
-1.64379e-07
-3.97985e-08
-1.88012e-07
-6.18702e-08
-2.05875e-07
-6.4719e-08
-2.24047e-07
-3.77368e-08
-2.29443e-07
-1.0556e-08
-2.21567e-07
-1.1955e-08
-1.49279e-07
3.71274e-08
-1.42688e-07
-3.52925e-08
-1.35353e-07
-4.71249e-08
-1.33915e-07
-5.13518e-08
-1.24522e-07
-7.63381e-08
-1.5401e-07
-6.10821e-09
-1.69979e-07
-1.27453e-08
-2.11376e-07
2.34356e-08
-2.48572e-07
5.72484e-08
-2.50886e-07
6.7246e-08
-2.27196e-07
3.13444e-08
-5.83112e-08
1.15673e-07
-6.46259e-08
9.26077e-08
-1.58156e-07
-4.40107e-08
-9.95565e-08
-4.47889e-08
-1.12916e-07
-2.74056e-08
-1.34247e-07
-8.04704e-09
-1.56849e-07
-2.23715e-10
-1.59236e-07
1.36643e-09
-1.54463e-07
3.21448e-08
-1.6202e-07
2.67746e-08
-2.01379e-07
3.19902e-08
-2.24207e-07
1.75724e-08
-2.0662e-07
3.95318e-09
-1.57114e-07
1.00755e-08
-1.73849e-07
2.2072e-08
-1.85798e-07
4.04928e-08
-2.46637e-07
2.17817e-08
-1.44006e-07
3.64735e-08
-2.54244e-07
-3.75385e-08
-2.31719e-07
-1.75119e-08
-2.04682e-07
3.70793e-09
-1.98427e-07
2.86688e-08
-2.05948e-07
1.53614e-08
-5.56012e-08
-1.54348e-07
-2.59711e-07
-1.19182e-07
-1.15606e-07
-8.06884e-08
-8.89361e-08
-9.02915e-08
-4.85035e-08
-1.51292e-07
1.5754e-08
-1.41041e-07
3.43454e-10
-1.48827e-07
1.16973e-08
-1.45989e-07
-3.34506e-08
-1.91843e-07
1.466e-08
-1.86556e-07
-3.07031e-08
-1.73311e-07
-8.23099e-08
-1.47361e-07
2.20206e-10
-1.23669e-07
-1.62582e-08
-1.47138e-07
-4.76707e-08
-1.22603e-07
-3.30732e-08
-1.40455e-07
-3.49551e-08
-1.2603e-07
-3.64305e-08
-8.3673e-08
-6.93159e-09
-8.35654e-08
6.24138e-08
-9.39661e-08
5.91243e-08
-1.35711e-07
5.9422e-08
-1.66094e-07
5.89289e-08
-1.87893e-07
7.96279e-08
-1.77239e-07
4.29512e-08
-1.90291e-07
2.53387e-08
-1.97651e-07
1.16188e-08
-1.93798e-07
4.50231e-09
-2.09631e-07
1.8966e-08
-1.95794e-07
-2.87197e-08
-4.09445e-08
1.05075e-09
-9.52746e-08
-4.40725e-08
-9.13938e-08
1.10016e-08
-5.05075e-08
-2.98826e-09
-7.51974e-08
3.14632e-08
-8.87531e-08
2.51646e-08
-1.50686e-07
6.1856e-11
-1.81346e-07
-3.6279e-08
-2.13289e-07
-5.79453e-09
-2.13088e-07
-8.38834e-09
-1.54624e-07
-6.88414e-08
-1.80562e-07
-8.8903e-08
-1.57293e-07
-6.04049e-08
-1.6929e-07
-3.51279e-08
-2.01219e-07
-2.14761e-08
-9.99611e-08
-2.20754e-08
-2.23358e-07
-3.29625e-08
-2.12414e-07
-2.59686e-08
-2.09424e-07
1.80696e-08
-2.20623e-07
6.61727e-08
-2.30461e-07
2.75008e-08
-7.31183e-08
8.02191e-08
-2.91563e-08
7.24498e-08
-1.4069e-07
-4.57734e-11
-1.12678e-07
-2.09762e-08
-1.38387e-07
-1.9081e-08
-1.65904e-07
1.11444e-10
-1.72173e-07
-1.77925e-09
-1.80605e-07
8.20833e-09
-1.87629e-07
8.38919e-09
-1.80836e-07
2.53517e-08
-1.92594e-07
3.85322e-08
-2.05473e-07
4.48681e-08
-2.03109e-07
1.52077e-08
-1.95775e-07
-3.38135e-09
-1.78984e-07
-6.71539e-09
-1.63114e-07
6.2013e-09
-1.72392e-07
4.97699e-08
-1.93549e-07
4.27161e-08
-1.86507e-07
2.94308e-08
-2.15502e-07
-8.92652e-09
-2.03897e-07
-2.9118e-08
-1.61187e-07
-3.90012e-08
-1.71295e-07
3.87768e-08
-2.11169e-07
5.30807e-08
3.12663e-08
-1.33666e-07
-2.89503e-07
-8.82817e-08
-1.54102e-07
-9.27579e-08
-8.45053e-08
-1.08775e-07
-3.19863e-08
-1.66304e-07
2.33467e-08
-1.09884e-07
-5.0297e-09
-1.26529e-07
-2.27043e-08
3.04977e-08
1.33983e-08
-9.72183e-08
-9.2168e-09
-1.00598e-07
-2.93415e-08
-6.15659e-09
-2.20326e-08
-1.1589e-07
-4.31226e-08
-1.2756e-07
-4.58835e-09
-1.78764e-07
3.5706e-09
-1.63724e-07
-4.8113e-08
-1.55663e-07
-4.33727e-08
-1.6124e-07
-2.92082e-08
-1.37695e-07
-3.07871e-08
-1.54931e-07
2.71988e-08
-1.03938e-07
5.93267e-08
-1.36792e-07
9.28882e-08
-1.63853e-07
8.73861e-08
-1.43327e-07
6.05639e-08
-1.03999e-07
3.62336e-09
-8.77119e-08
7.09636e-09
-1.31948e-07
4.28235e-09
-1.09816e-07
3.47635e-08
-1.11504e-07
2.06532e-08
-1.33172e-07
-7.05165e-09
-1.24732e-07
-5.9038e-08
-1.15651e-07
-2.55666e-09
-1.20012e-07
1.52071e-08
-1.04308e-07
-1.86923e-08
-1.09432e-07
3.62663e-08
-9.9896e-08
1.56282e-08
-1.76712e-07
7.50746e-08
-1.05667e-07
4.69104e-08
-9.48651e-08
-1.43457e-08
-1.42254e-07
-1.12593e-07
-1.11232e-07
-1.01314e-07
-1.12298e-07
-8.87448e-08
-1.41901e-07
-3.08021e-08
-1.66967e-07
-1.00625e-08
-1.88485e-07
-1.88153e-09
-9.41685e-08
3.99351e-08
-2.2329e-07
-5.48169e-08
-2.22407e-07
-2.91292e-08
-2.12369e-07
8.03035e-09
-1.86023e-07
-9.99771e-09
-1.24828e-07
1.65587e-08
-2.16279e-08
-2.44755e-08
-8.16638e-08
8.09123e-08
-6.93095e-08
3.94791e-08
-7.22622e-08
-1.80241e-08
-1.29079e-07
3.77357e-08
-2.08214e-07
7.92455e-08
-1.97014e-07
-1.29801e-08
-2.12233e-07
2.31904e-08
-1.97127e-07
-6.71723e-09
-1.72402e-07
6.25644e-10
-1.73408e-07
3.95383e-08
-1.6363e-07
3.50894e-08
-1.63345e-07
1.49219e-08
-1.84628e-07
1.79013e-08
-2.08173e-07
1.68295e-08
-2.10656e-07
8.68326e-09
-2.04403e-07
4.35171e-08
-1.84157e-07
2.24696e-08
-1.70572e-07
1.58453e-08
-1.75242e-07
-4.25743e-09
-1.71464e-07
-3.28959e-08
-5.21799e-08
-5.1458e-09
-1.37889e-07
-2.86529e-08
-1.18523e-07
3.37135e-08
5.00765e-08
-2.16229e-07
-3.0543e-07
-2.20005e-07
-1.33312e-07
-7.32233e-08
-2.71009e-08
-1.90375e-07
-6.76479e-08
-1.79802e-07
1.27746e-08
-1.70477e-07
-1.43548e-08
-6.75164e-08
2.74751e-08
-3.78003e-08
-1.63175e-08
-1.86855e-07
-6.51067e-08
-1.21047e-07
-4.41019e-08
-1.22142e-07
-2.07131e-08
-1.54084e-07
-1.11801e-08
-1.85517e-07
2.49528e-08
-2.50938e-07
1.74192e-08
-2.52767e-07
7.32314e-09
-2.75342e-07
-2.07976e-08
-2.96649e-07
-1.09276e-08
-2.98362e-07
-2.93911e-08
-2.51979e-07
-1.8521e-08
-1.84085e-07
-8.65615e-09
-1.83899e-07
9.36328e-08
-1.61881e-07
6.53682e-08
-1.17107e-07
1.57899e-08
-1.10543e-07
-2.90341e-09
-1.11385e-07
7.93861e-09
-1.33772e-07
2.66259e-08
-1.62761e-07
6.37525e-08
-1.67621e-07
2.52559e-08
-2.1122e-07
3.43925e-08
-1.51398e-07
3.58575e-08
-1.41915e-07
-9.04724e-09
-2.38818e-07
-3.94831e-08
-2.41068e-07
-1.88795e-08
-2.43245e-07
-1.26032e-08
-6.00118e-08
3.65811e-08
-1.71222e-07
-1.59917e-08
-5.11115e-08
-2.2627e-08
-2.2264e-08
-4.37098e-08
-1.0055e-07
-8.76242e-08
-1.06146e-07
-4.46723e-08
-1.52678e-07
-4.22132e-08
-1.80106e-07
-3.37431e-09
-1.85247e-07
-4.92168e-09
-1.78302e-07
-1.06463e-08
-1.82226e-07
-8.12515e-09
-2.05447e-07
2.07502e-08
-2.49695e-07
1.51176e-08
-2.84199e-07
-8.51188e-09
-2.81562e-07
-1.26359e-08
-2.43678e-07
-2.13751e-08
-1.44106e-07
8.01386e-08
-2.55317e-07
-1.28892e-08
-2.38018e-07
2.218e-08
-9.45444e-08
4.26877e-08
-1.15396e-07
5.85867e-08
-2.88214e-07
4.78765e-08
-1.5453e-07
5.90984e-08
-2.45459e-07
-3.70995e-08
-2.25124e-07
-2.95566e-08
-1.95045e-07
-2.94545e-08
-1.71806e-07
1.62986e-08
-1.76401e-07
3.96847e-08
-1.47461e-07
-1.40191e-08
-1.64583e-07
3.50227e-08
-1.72591e-07
2.4586e-08
-1.68366e-07
4.50454e-09
-1.83484e-07
5.86341e-08
-1.71042e-07
1.00269e-08
-1.64848e-07
9.65131e-09
-1.73974e-07
4.86763e-09
-1.78057e-07
-2.88128e-08
-1.62932e-07
-2.02709e-08
-1.86263e-07
-5.32102e-09
-1.88297e-07
3.38262e-08
5.30441e-08
-2.83986e-07
-2.3773e-07
-2.44446e-07
-1.02571e-07
-1.88461e-07
-8.30858e-08
-2.02486e-07
-5.36222e-08
-1.78275e-07
-1.14365e-08
-1.91558e-07
-1.07092e-09
-1.59952e-07
-4.13056e-09
-1.66403e-07
-1.15638e-08
-2.49151e-07
-3.42852e-08
-2.17233e-07
-2.2431e-08
-2.4243e-07
4.48393e-09
-2.4821e-07
-5.39901e-09
-2.51778e-07
2.85211e-08
-2.35562e-07
1.02515e-09
-2.8345e-07
5.52121e-08
-3.05935e-07
1.68751e-09
-3.30608e-07
1.37461e-08
-3.28794e-07
-2.72726e-08
-3.23576e-07
-2.70071e-08
-1.74746e-07
-6.07554e-09
-2.56005e-07
2.35354e-08
-2.29626e-07
3.89887e-08
-2.39196e-07
2.53607e-08
-2.66487e-07
2.43877e-08
-2.94269e-07
3.57201e-08
-2.52122e-07
-1.55202e-08
-2.85202e-07
4.82034e-08
-2.6216e-07
5.27455e-08
-2.45174e-07
1.47318e-08
-2.01878e-07
-7.80497e-09
-1.82618e-07
-2.83074e-08
-1.90462e-07
-3.20423e-08
-1.88793e-07
-2.05484e-08
-2.01338e-07
-5.84781e-11
-3.62041e-08
2.49561e-08
-1.31339e-07
-7.24498e-08
-7.47019e-08
-8.08356e-08
-6.08829e-08
-5.85961e-08
-1.10268e-07
-3.82399e-08
-1.34145e-07
-1.96703e-08
-1.6403e-07
-1.23283e-08
-1.61933e-07
-5.47257e-09
-1.69137e-07
2.28266e-09
-1.82176e-07
2.39151e-09
-1.90023e-07
-1.94982e-10
-1.61862e-07
-7.4116e-09
-1.48e-07
1.25468e-09
-1.71292e-07
1.47797e-08
-1.75453e-07
-1.03707e-08
-1.13371e-07
7.12605e-08
-2.34461e-07
-1.80183e-09
-2.72091e-07
2.47397e-08
-2.82403e-07
3.24921e-08
-1.29442e-07
9.39125e-08
-1.47047e-07
7.54213e-08
-2.768e-07
-2.65574e-08
-1.93227e-07
-2.27358e-08
-2.25245e-07
4.46234e-08
-2.49886e-07
-7.21344e-09
-2.43782e-07
-3.55594e-08
-1.95526e-07
-3.19579e-08
-2.05708e-07
-1.18077e-09
-5.04207e-08
3.48798e-08
-1.72477e-07
-4.53484e-08
-9.04545e-08
-7.81916e-09
-2.77666e-08
9.56019e-08
-1.40641e-07
-3.23951e-08
-1.28887e-07
4.93188e-08
-1.27063e-07
7.82709e-09
-1.27649e-07
5.45359e-09
-1.38944e-07
-1.75184e-08
-1.61956e-07
2.74186e-09
-1.77144e-07
9.8675e-09
-1.70487e-07
2.71681e-08
5.91435e-08
-1.90636e-07
-2.12922e-07
-1.90629e-07
-8.88233e-08
-1.62428e-07
-1.09342e-07
-1.57625e-07
-5.84243e-08
-1.32678e-07
-3.63838e-08
-1.36575e-07
2.82622e-09
-1.44262e-07
3.55721e-09
-1.57114e-07
-3.14785e-10
-2.37323e-07
-5.29465e-09
-2.09962e-07
3.67587e-09
-2.61949e-07
5.42482e-09
-2.86239e-07
1.88913e-08
-2.9382e-07
3.61021e-08
-1.62005e-07
7.33968e-08
-2.79977e-07
-3.10014e-08
-2.24263e-07
-2.97997e-09
-2.57364e-07
-1.57369e-09
-2.4313e-07
9.02468e-09
-2.84182e-07
8.39069e-09
-1.8413e-07
4.86536e-08
-2.66977e-07
-4.48789e-08
-2.42635e-07
1.46466e-08
-2.52242e-07
3.4968e-08
-2.84077e-07
5.62233e-08
-3.22433e-07
2.30295e-08
-1.86177e-07
5.43095e-08
-2.75194e-07
-1.43728e-08
-2.08815e-07
-1.59032e-08
-1.58966e-07
-3.51169e-08
-1.44943e-07
-2.18282e-08
-1.58215e-07
-1.50357e-08
-1.62949e-07
-2.73083e-08
-1.62322e-07
-2.1175e-08
-1.5577e-07
-6.611e-09
-1.25892e-07
-4.92211e-09
-1.52498e-07
-4.65832e-08
-1.42844e-07
-9.14229e-08
-1.84497e-07
-1.69433e-08
-1.66885e-07
-5.54625e-08
-1.89197e-07
2.61492e-09
-1.89699e-07
-1.1827e-08
-1.82724e-07
-1.24474e-08
-1.71351e-07
-9.09074e-09
-1.7049e-07
1.52922e-09
-1.75309e-07
4.62391e-09
-1.40356e-07
-4.2802e-08
-1.41962e-07
2.86033e-09
-2.06423e-07
7.71341e-08
-1.12704e-07
5.06279e-08
-2.25052e-07
-2.01547e-08
-2.53445e-07
2.65904e-08
-2.68138e-07
3.94324e-08
-2.1747e-07
3.287e-08
-9.04096e-08
1.19692e-07
-1.90356e-07
2.37739e-08
-2.3123e-07
1.00152e-08
-1.34281e-07
3.64164e-08
-2.10847e-07
-2.85972e-08
-2.00228e-07
-1.99835e-08
-1.98348e-07
-3.74399e-08
-1.72441e-07
-5.78662e-08
-1.66067e-07
-5.86017e-08
-1.16396e-07
-1.47911e-08
-1.65819e-07
4.07358e-09
-1.62807e-08
4.67488e-08
-1.3883e-07
1.29888e-08
-1.59627e-08
4.89239e-08
-1.53694e-07
-1.71365e-08
-1.10578e-07
1.57573e-08
-1.15167e-07
1.00418e-08
-1.52446e-07
1.97604e-08
-1.9138e-07
4.16759e-08
-2.03357e-07
2.18457e-08
-1.78592e-07
2.40305e-09
2.10664e-08
-1.67363e-07
-2.09046e-07
-1.93673e-07
-5.01666e-08
-1.71259e-07
-1.33114e-07
-1.81726e-07
-4.79571e-08
-1.60492e-07
-5.76173e-08
-1.45268e-07
-1.23982e-08
-1.40557e-07
-1.15309e-09
-1.47016e-07
6.14479e-09
-1.64454e-07
1.21973e-08
-1.72654e-07
1.18767e-08
-1.989e-07
3.16707e-08
-2.11501e-07
3.14922e-08
-1.91965e-07
1.65672e-08
-1.41527e-07
2.29591e-08
-1.8139e-07
8.86108e-09
-3.9502e-08
8.27244e-09
-1.65292e-07
-2.89227e-08
-1.30687e-07
-2.54879e-08
-1.21834e-07
-4.62038e-10
-1.61947e-07
3.72235e-08
-6.06768e-08
5.80374e-08
-6.17111e-08
1.5681e-08
-4.90836e-08
2.23407e-08
-1.45308e-07
-6.91731e-10
-1.31089e-07
8.81027e-09
-1.03243e-07
2.64643e-08
-1.29534e-07
1.17713e-08
-1.33464e-07
-1.19734e-08
-1.31892e-07
-3.66885e-08
-1.15825e-07
-3.78955e-08
-1.14064e-07
-1.67971e-08
-1.40606e-07
-7.6638e-10
-1.66082e-07
4.30113e-09
-1.69772e-07
-2.92156e-09
-1.53837e-07
-2.08578e-08
-1.76023e-07
-2.61928e-08
-9.7558e-08
-1.53282e-08
-2.9272e-07
2.60735e-08
-1.48065e-07
-4.54671e-08
-2.64818e-07
-3.19034e-08
-2.44117e-07
-3.52305e-08
-2.11902e-07
-4.46628e-08
-1.54765e-07
-6.69105e-08
-1.41005e-07
-1.22313e-08
-1.96629e-07
5.82415e-08
-1.22521e-07
3.78077e-08
-1.30573e-07
1.21614e-08
-2.33344e-07
-2.42819e-08
-2.05035e-07
2.18023e-08
-2.41519e-07
1.63285e-08
-2.59618e-07
4.46896e-08
-2.61048e-07
4.04487e-08
-1.24576e-07
1.01854e-07
-1.90108e-07
3.36308e-08
-1.91557e-07
2.35257e-08
-2.01425e-07
1.98826e-08
-1.81892e-07
1.65118e-08
-1.64048e-07
-4.67335e-08
-1.29015e-07
-5.50171e-08
-1.47981e-07
-1.84751e-08
-1.64398e-07
-4.14492e-08
-1.96038e-07
-2.69619e-08
-2.09979e-07
-8.50628e-10
-2.07249e-07
1.34271e-09
-1.65698e-07
5.19774e-09
-1.66049e-07
1.33393e-08
-1.46807e-07
2.96811e-08
-1.87402e-07
2.3458e-08
-1.79735e-07
8.0901e-09
-1.71036e-07
1.34211e-09
-1.65451e-07
1.41756e-08
-1.49576e-07
2.58006e-08
-1.33919e-07
6.1895e-09
-1.36063e-07
4.54624e-09
1.04281e-08
-1.76002e-07
-1.97957e-07
-1.55378e-07
-1.14258e-07
-1.64902e-07
-7.04159e-08
-1.72441e-07
-3.87352e-08
-1.72956e-07
-5.71029e-08
-1.47541e-07
-3.78126e-08
-1.34822e-07
-1.38719e-08
-1.28937e-07
2.60586e-10
-1.4385e-07
2.71102e-08
-1.5917e-07
2.71971e-08
-1.72487e-07
4.49883e-08
-1.62584e-07
2.15893e-08
-1.43529e-07
-2.48798e-09
-1.19275e-07
-1.29441e-09
-1.15133e-07
4.71954e-09
-9.86809e-08
-8.17935e-09
-1.30399e-07
2.79624e-09
-1.36787e-07
-1.91003e-08
-1.43464e-07
-4.48315e-08
-1.23225e-07
1.69852e-08
-9.986e-08
3.46727e-08
-7.55526e-08
4.24204e-08
-8.08459e-08
2.76342e-08
-1.07065e-07
2.55273e-08
-1.19735e-07
2.12641e-08
-1.30734e-07
3.74625e-08
-1.33624e-07
1.46618e-08
-1.3996e-07
-5.63786e-09
-1.65456e-07
-1.13078e-08
-1.63491e-07
-3.98603e-08
-1.39572e-07
-4.0716e-08
-1.43002e-07
2.66364e-09
-1.69378e-07
3.06766e-08
-1.8999e-07
1.76899e-08
-2.06027e-07
-4.82057e-09
-2.29645e-07
-4.91829e-09
-1.26474e-07
3.63771e-08
-2.85234e-07
-1.80629e-08
-1.51993e-07
2.70285e-08
-2.78157e-07
-5.76553e-08
-2.63175e-07
-5.30509e-08
-2.33235e-07
-7.77763e-08
-1.26199e-07
-1.92286e-08
-1.27007e-07
-1.01365e-08
-2.84481e-07
1.15287e-08
-2.36317e-07
4.03038e-08
-2.35258e-07
1.11024e-08
-2.81097e-07
2.15569e-08
-2.68439e-07
9.1435e-09
-2.50625e-07
-1.48561e-09
-3.03461e-07
4.90733e-08
-2.66566e-07
5.40838e-08
-1.95381e-07
2.795e-08
-1.64183e-07
2.77551e-09
-1.54229e-07
1.35709e-08
-1.57031e-07
2.2684e-08
-1.21379e-07
-6.94784e-08
-9.77812e-08
-7.10568e-08
-1.25476e-07
2.37241e-08
-1.16867e-07
-2.70849e-08
-1.42029e-07
-1.6288e-08
-1.69175e-07
1.8358e-10
-1.68623e-07
-1.4029e-09
-1.81549e-07
1.42682e-08
-1.82951e-07
6.59975e-09
-1.99437e-07
2.98249e-08
-2.05873e-07
3.6116e-08
-2.24217e-07
4.18024e-08
-2.05996e-07
-1.01321e-08
-1.80936e-07
-2.37178e-08
-1.5133e-07
-1.54303e-08
-1.24879e-07
-6.50817e-10
-1.1568e-07
-3.0087e-09
-1.23687e-07
1.25533e-08
1.7195e-08
-1.05555e-07
-2.70112e-07
7.8946e-08
-1.36335e-07
-8.05477e-08
3.75613e-08
-5.06584e-08
-6.86242e-08
-1.11248e-07
3.48739e-09
-1.2759e-07
-2.14705e-08
-1.52223e-07
1.07615e-08
-1.72781e-07
2.08189e-08
-1.80211e-07
3.45395e-08
-1.67569e-07
1.45555e-08
-1.57699e-07
-1.59272e-08
-1.42096e-07
5.98587e-09
-1.22816e-07
2.92796e-08
-1.14743e-07
-9.36728e-09
-1.1121e-07
1.18643e-09
-1.3848e-07
1.90907e-08
-1.41246e-07
5.56353e-09
-1.4923e-07
-1.11167e-08
-1.69782e-07
-2.42792e-08
-1.46622e-07
-6.17421e-09
-1.26058e-07
1.4109e-08
-1.09974e-07
2.63363e-08
-1.19343e-07
3.70035e-08
-1.7827e-07
3.52268e-08
-1.24205e-07
1.77303e-08
-8.0273e-08
-7.73702e-09
-5.90794e-08
-6.53188e-09
-4.28492e-08
-2.23051e-08
-9.41211e-08
-1.16086e-08
-1.09725e-07
2.77504e-08
-1.44601e-07
-5.84046e-09
-1.47244e-07
5.30652e-09
-1.55827e-07
3.92597e-08
-1.72452e-07
3.43145e-08
-1.8065e-07
3.3767e-09
-1.74214e-07
-1.13537e-08
-1.34647e-07
-3.56208e-09
-1.36231e-07
-1.64794e-08
-9.99372e-08
-9.26512e-09
-1.55753e-07
-2.42773e-09
-2.09018e-07
-1.91881e-09
-1.45285e-07
1.32076e-08
-1.30223e-07
-3.29486e-08
-1.10195e-07
-3.01644e-08
-2.4329e-07
-5.95628e-08
-2.02931e-07
-5.60063e-11
-2.40329e-07
4.80096e-08
-2.62877e-07
4.41051e-08
-2.7524e-07
7.2552e-08
-1.72793e-07
5.09695e-08
-2.59396e-07
-1.59172e-08
-2.12564e-07
5.15645e-09
-1.94779e-07
1.01647e-08
-7.28649e-08
3.40008e-08
-4.3404e-08
-1.58905e-08
-1.4328e-07
-8.01652e-08
-1.1905e-07
-4.43803e-08
-2.92469e-08
-7.36893e-09
-1.518e-07
-5.76112e-08
-1.20917e-07
-6.92237e-09
-1.38656e-07
1.4512e-09
-1.76588e-07
-1.29315e-08
-1.2712e-07
1.74556e-10
-1.32096e-07
1.92438e-08
-1.45838e-07
2.03413e-08
-1.9043e-07
7.44166e-08
-1.99059e-07
4.47445e-08
-1.92187e-07
-1.59534e-08
-1.17164e-07
-3.41096e-08
-8.37704e-08
-5.77e-08
-1.18712e-07
1.95114e-08
-1.88801e-07
6.94382e-08
-2.23397e-07
3.15884e-08
-2.28247e-07
1.7403e-08
1.01386e-08
-1.71013e-07
-2.62966e-07
-1.89095e-07
-1.53767e-07
-2.33264e-07
-1.93306e-08
-2.03432e-07
-1.00836e-07
-1.90313e-07
-9.63098e-09
-2.03051e-07
-8.73218e-09
-2.08204e-07
1.5915e-08
-2.12745e-07
2.53603e-08
-1.9822e-07
2.00141e-08
-1.8427e-07
6.12342e-10
-1.48552e-07
-5.16448e-08
-1.51467e-07
8.81097e-09
-1.34089e-07
1.19024e-08
-1.52099e-07
8.64299e-09
-1.69817e-07
1.89039e-08
-1.67609e-07
1.68832e-08
-1.70325e-07
8.28018e-09
-1.56993e-07
-2.47009e-08
-1.69901e-07
-1.13706e-08
-2.04478e-07
2.81159e-08
-1.95441e-07
5.07266e-09
-1.66533e-07
-2.57131e-09
-1.43378e-07
1.38483e-08
-1.6955e-07
1.03526e-08
-1.50232e-07
-1.40736e-09
-9.68947e-08
-1.01306e-08
-9.1076e-08
-1.23506e-08
-1.09174e-07
-4.20701e-09
-1.48989e-07
2.80389e-08
-1.55691e-07
3.44519e-08
-1.78132e-07
1.66e-08
-1.75092e-07
2.2669e-09
-1.51905e-07
1.60725e-08
-1.43976e-07
2.6385e-08
-1.69769e-07
2.91698e-08
-1.96046e-07
1.49223e-08
-1.8642e-07
-1.31875e-08
-1.70518e-07
-3.2382e-08
-1.57924e-07
-2.18598e-08
-1.68843e-07
8.49122e-09
-1.99263e-07
2.85001e-08
-2.20683e-07
3.22413e-08
-1.55804e-07
5.68907e-08
-1.56218e-07
-2.84521e-08
-2.12113e-07
-3.63113e-09
-1.98879e-07
-1.12613e-08
-2.69327e-07
-3.31359e-08
-2.35274e-07
7.30366e-09
-1.98219e-07
3.54966e-08
-1.57741e-07
1.04908e-08
-1.55015e-07
-1.8806e-08
-1.17115e-07
-3.27439e-08
-1.21506e-07
1.4555e-08
-1.23617e-07
3.61115e-08
-1.19523e-07
-1.99856e-08
-1.54895e-07
-4.47935e-08
-1.6377e-07
-3.59582e-08
-1.41062e-07
-3.00026e-08
-1.47557e-07
-5.11161e-08
-1.38084e-07
-1.63963e-08
-1.33244e-07
-3.38959e-09
-1.34229e-07
-1.19461e-08
-1.23759e-07
-1.02968e-08
-1.39222e-07
3.47065e-08
-1.49357e-07
3.04758e-08
-1.49103e-07
2.31166e-08
-1.26977e-07
2.39129e-08
-9.8703e-08
6.30345e-09
-9.22103e-08
-4.25504e-08
-1.52208e-08
2.00282e-08
-3.13609e-08
3.58066e-08
-1.34487e-07
1.94251e-08
-1.37343e-07
3.44454e-08
-1.48791e-07
2.88503e-08
1.1725e-08
-2.57274e-07
-1.5208e-07
-2.66719e-07
-8.09785e-08
-1.98093e-07
-8.72629e-08
-1.96707e-07
-1.03277e-07
-1.502e-07
-5.61373e-08
-1.85665e-07
2.67333e-08
-1.77487e-07
7.73706e-09
-1.65269e-07
1.31429e-08
-1.87113e-07
3.99493e-08
-2.46141e-07
8.06723e-09
-1.25594e-07
3.57874e-08
-1.96175e-07
-7.22008e-08
-2.00797e-07
1.43769e-08
-1.99155e-07
7.00156e-09
-1.89066e-07
8.81514e-09
-1.90212e-07
1.80295e-08
-2.06073e-07
2.2039e-08
-1.31236e-07
5.51804e-08
-1.53426e-07
1.37238e-08
-2.51478e-07
-2.5425e-08
-2.33668e-07
-1.53028e-08
-2.15356e-07
-2.08836e-08
-2.0371e-07
2.20291e-09
-2.18736e-07
2.53781e-08
-2.64815e-07
4.24027e-08
-1.33334e-07
1.31073e-08
-1.66422e-07
2.20968e-08
-1.74466e-07
5.61687e-09
-2.5816e-07
-3.98603e-08
-2.44235e-07
1.77128e-08
-2.29209e-07
1.57362e-09
-2.12911e-07
-1.40306e-08
-1.93476e-07
-3.36321e-09
-1.67095e-07
3.75862e-12
-1.7183e-07
3.39048e-08
-1.81692e-07
2.47833e-08
-1.95632e-07
7.53051e-10
-1.88585e-07
-3.94301e-08
-1.72107e-07
-3.83376e-08
-1.58554e-07
-5.06237e-09
-1.58537e-07
2.84828e-08
-1.6603e-07
3.97337e-08
-1.5934e-07
4.79946e-08
-7.53003e-08
4.30015e-08
-2.05036e-07
-2.47289e-08
-2.13249e-07
-5.14065e-09
-2.20383e-07
-2.63396e-08
-1.88075e-07
-2.50056e-08
-1.43905e-07
-8.67373e-09
-1.36727e-07
3.31271e-09
-2.18416e-07
1.18358e-08
-6.31382e-08
1.61639e-08
-5.17307e-08
3.14708e-09
-1.06305e-07
-6.24546e-08
-1.08419e-07
-1.78721e-08
-1.37167e-07
-1.60455e-08
-1.35499e-07
-3.76273e-08
-1.36663e-07
-2.88392e-08
-1.51489e-07
-3.62902e-08
-1.47473e-07
-2.0413e-08
-1.38272e-07
-1.25912e-08
-1.35788e-07
-1.44306e-08
-1.32195e-07
-1.38899e-08
-1.33819e-07
-1.47164e-08
-1.1594e-07
1.25966e-08
-1.06084e-07
1.32603e-08
-9.71506e-08
1.49788e-08
-8.8968e-08
-1.8152e-09
-8.93249e-08
8.85266e-09
-1.01111e-07
3.16102e-08
-9.81572e-08
3.28522e-08
-1.31379e-07
5.26471e-08
-1.3724e-07
4.03082e-08
-1.72917e-07
1.34796e-08
1.95127e-08
-2.4844e-07
-5.93304e-08
-2.13014e-07
5.38683e-08
-2.78337e-07
-1.74193e-07
-1.99736e-07
-3.00279e-08
-1.44714e-07
-1.10246e-07
-2.59038e-07
-6.31285e-08
-2.64344e-07
6.40895e-08
-2.54128e-07
2.92708e-09
-2.64338e-07
-8.86594e-10
-2.69024e-07
1.25431e-08
-2.64539e-07
3.16255e-08
-1.21683e-07
-1.03659e-08
-2.21696e-07
-3.72026e-08
-2.16149e-07
-7.98563e-10
-1.99886e-07
-7.4484e-09
-1.80055e-07
-1.80082e-09
-1.66536e-07
8.52011e-09
-1.38993e-07
2.70745e-08
-1.45849e-07
2.05805e-08
-1.54061e-07
-1.74721e-08
-1.268e-07
-4.30027e-08
-1.54721e-07
6.96629e-09
-1.74554e-07
2.20367e-08
-1.91711e-07
4.0579e-08
-2.55117e-07
5.42368e-08
-1.34615e-07
9.92604e-08
-1.65888e-07
5.33696e-08
-1.7612e-07
1.58485e-08
-1.74694e-07
-3.99108e-08
-2.44762e-07
-6.38128e-08
-2.23866e-07
-2.18187e-08
-2.17795e-07
-2.01025e-08
-2.01971e-07
-1.9187e-08
-1.85735e-07
-1.62329e-08
-1.51857e-07
2.63467e-11
-1.25177e-07
-1.89669e-09
-1.25662e-07
1.23786e-09
-1.40009e-07
-2.50833e-08
-1.53636e-07
-2.47114e-08
-1.44966e-07
-1.37323e-08
-1.35948e-07
1.94646e-08
-1.35282e-07
3.90671e-08
-1.1795e-07
3.06618e-08
-1.07513e-07
3.21256e-08
-1.51173e-07
1.86788e-08
-1.72556e-07
1.62417e-08
-1.971e-07
-1.796e-09