/*--------------------------------*- C++ -*----------------------------------*\
  =========                 |
  \\      /  F ield         | OpenFOAM: The Open Source CFD Toolbox
   \\    /   O peration     | Website:  https://openfoam.org
    \\  /    A nd           | Version:  12
     \\/     M anipulation  |
\*---------------------------------------------------------------------------*/
FoamFile
{
    format      ascii;
    class       volVectorField;
    location    "0.15";
    object      U.water;
}
// * * * * * * * * * * * * * * * * * * * * * * * * * * * * * * * * * * * * * //

dimensions      [0 1 -1 0 0 0 0];

internalField   nonuniform List<vector> 
3750
(
(-0.00801483 -0.106931 0)
(-0.0301508 0.0711448 0)
(-0.00470857 0.00144472 0)
(0.00627802 0.0268682 0)
(0.000252282 0.00849031 0)
(0.000240688 0.0150242 0)
(-0.000299357 0.0085256 0)
(0.00209323 0.0220098 0)
(-0.00411684 0.0196989 0)
(-0.00155185 0.018537 0)
(-0.000512519 0.0218136 0)
(-0.000481429 0.0229236 0)
(3.24788e-05 0.0234513 0)
(-0.000646921 0.022528 0)
(-0.00208959 0.0193334 0)
(0.000719089 0.0183238 0)
(-0.000576423 0.0199439 0)
(-0.000936347 0.0218772 0)
(-0.00122366 0.0237401 0)
(0.000469942 0.0251778 0)
(0.00214764 0.021961 0)
(0.00119428 0.0191074 0)
(0.000960725 0.0166285 0)
(0.00102062 0.0165983 0)
(-0.00193198 0.0181366 0)
(-0.000964722 0.0223634 0)
(0.000274571 0.0246798 0)
(0.00184375 0.0264039 0)
(0.00117901 0.0264625 0)
(-0.000735248 0.0259045 0)
(-0.00194892 0.0244825 0)
(-0.00169308 0.0240783 0)
(-0.000685232 0.0233696 0)
(-0.000348419 0.0213348 0)
(0.0015642 0.0213474 0)
(0.00284115 0.0279067 0)
(-0.00164048 0.0281252 0)
(-0.0001919 0.0236745 0)
(-0.00139802 0.0246854 0)
(-0.00122468 0.0249812 0)
(-0.00155002 0.0240243 0)
(-0.00125381 0.0236511 0)
(-0.00135735 0.0257813 0)
(-0.00185599 0.0303446 0)
(0.0021335 0.0328967 0)
(0.00172647 0.0306152 0)
(0.000753553 0.0254151 0)
(0.000701773 0.0227255 0)
(0.000705162 0.0231593 0)
(0.000361885 0.0216135 0)
(0.00219675 0.024028 0)
(0.00135601 0.0243595 0)
(-0.00260905 0.0170799 0)
(0.000616768 0.018661 0)
(-0.00204336 0.0189366 0)
(-0.00038354 0.0138933 0)
(-0.000804862 0.0180361 0)
(-0.00251118 0.0242151 0)
(0.000780657 0.0293796 0)
(0.0023155 0.0291432 0)
(0.00195702 0.0267438 0)
(0.00217761 0.0220066 0)
(0.0024669 0.0195825 0)
(0.00205797 0.0179265 0)
(-0.000671468 0.0147982 0)
(-0.00155772 0.013444 0)
(-0.00329545 0.0139088 0)
(-0.00293729 0.0164189 0)
(-0.00261996 0.0184543 0)
(-0.000501084 0.0199592 0)
(-0.00128111 0.0220757 0)
(0.00168969 0.02242 0)
(0.000395792 0.0218777 0)
(0.000417571 0.0206346 0)
(0.000571864 0.0192189 0)
(-0.0155875 -0.0769674 0)
(-0.022623 0.0331651 0)
(0.00453855 -0.0533459 0)
(0.00880749 0.027706 0)
(-0.000705855 -0.0232527 0)
(0.00101862 0.0137134 0)
(-0.000741346 -0.0096466 0)
(-0.000154346 0.00542858 0)
(-0.00730836 -0.00409951 0)
(-0.00507031 0.00443449 0)
(-0.0020228 -0.00168205 0)
(-0.0010445 0.00141549 0)
(0.00144157 3.83987e-05 0)
(0.00493212 0.00249202 0)
(0.00410077 -0.00283289 0)
(0.000749442 -0.00240548 0)
(-0.0020065 -0.00191401 0)
(-0.00250876 -0.00054804 0)
(-0.00124487 -0.00234655 0)
(-0.000781098 -0.00259957 0)
(0.00145332 0.000377808 0)
(0.00235567 0.00136321 0)
(0.00298311 0.00166828 0)
(-0.00124187 0.00116899 0)
(-0.00459689 0.000216012 0)
(-0.00410963 0.000332269 0)
(-0.00392669 0.00108679 0)
(-0.00384409 0.000418569 0)
(-9.83645e-05 0.00150907 0)
(0.0016818 -0.000237772 0)
(0.00239093 -0.00198991 0)
(0.0033645 -0.00399129 0)
(0.00372934 -0.00528135 0)
(0.000649905 -0.00436658 0)
(-0.00238715 -0.0024673 0)
(-0.00262493 -0.00166202 0)
(-0.00393302 0.000409338 0)
(0.00157034 -9.33878e-05 0)
(0.00147663 -0.00187119 0)
(0.00157217 -0.000530032 0)
(0.00274726 -0.00321396 0)
(0.000151868 -0.00390878 0)
(-0.00549105 5.69635e-05 0)
(-0.00420903 0.00868931 0)
(-0.000185415 0.0130199 0)
(0.00180889 0.0125142 0)
(0.00290846 0.012985 0)
(0.00196551 0.0125624 0)
(0.00262573 0.0117681 0)
(0.00449822 0.00753617 0)
(0.00734185 0.00773547 0)
(0.00376193 0.00506072 0)
(-0.002466 -0.00167208 0)
(0.00213521 -0.00503369 0)
(-0.0019938 -0.00795139 0)
(-0.00427711 -0.0083195 0)
(-0.00561919 -0.00424277 0)
(-0.0068216 -0.00267875 0)
(-0.00306139 0.000883492 0)
(0.000703701 0.000986078 0)
(0.00364177 0.00114104 0)
(0.00158823 0.000565615 0)
(-0.000932321 0.00231373 0)
(0.00486582 0.00152212 0)
(0.00397974 -0.00341938 0)
(0.0019403 -0.00897334 0)
(0.000367707 -0.0102833 0)
(-0.00146916 -0.00985946 0)
(-0.00207101 -0.00899694 0)
(-0.000140925 -0.00973892 0)
(-0.000181663 -0.00818923 0)
(-0.00174958 -0.0100174 0)
(-0.00245801 -0.01335 0)
(0.00107551 -0.00895711 0)
(0.00296739 -0.00762121 0)
(-0.0185898 -0.0768805 0)
(-0.0175473 0.0281493 0)
(-0.0176595 -0.0474016 0)
(-0.000606476 0.0145577 0)
(0.00327115 -0.0253614 0)
(-0.00187287 0.000807738 0)
(-0.00210947 -0.013398 0)
(-0.00336311 -0.00434008 0)
(0.000124726 -0.0081464 0)
(-0.00248705 -0.00549738 0)
(-0.0047594 -0.013475 0)
(-0.00279665 -0.0163577 0)
(-0.00156927 -0.0142293 0)
(0.00342804 -0.00738026 0)
(0.00538304 -0.00322233 0)
(0.00119023 -0.000637365 0)
(0.00348739 -0.000359356 0)
(-0.00323602 -0.00898551 0)
(-0.00522579 -0.0128416 0)
(-0.00302923 -0.0137526 0)
(0.000378076 -0.0136753 0)
(0.00220018 -0.00781626 0)
(0.000616992 -0.00614624 0)
(0.00125141 -0.0119331 0)
(7.66255e-06 -0.018796 0)
(-0.00274872 -0.0200116 0)
(-0.000351937 -0.0205158 0)
(0.000632878 -0.0201405 0)
(0.00330655 -0.0209191 0)
(0.00323072 -0.0204775 0)
(0.000421198 -0.0194104 0)
(0.00157733 -0.0208244 0)
(0.000403736 -0.022026 0)
(-0.000785056 -0.0213302 0)
(-0.00221287 -0.0191805 0)
(-0.000785948 -0.0188222 0)
(-0.00151147 -0.0179831 0)
(-0.00124697 -0.0152529 0)
(0.000725202 -0.0137714 0)
(0.0023797 -0.0121928 0)
(7.25798e-05 -0.0108898 0)
(-0.00523811 -0.00697821 0)
(-0.00803162 -0.00620722 0)
(-0.00649644 -0.00611987 0)
(-0.00731092 -0.00559232 0)
(-0.00245418 -0.00450081 0)
(0.000389789 -0.000617234 0)
(0.00182817 0.00116698 0)
(0.00506028 0.00491127 0)
(0.00671024 0.00350789 0)
(0.00906554 0.00402903 0)
(0.00970369 0.000749229 0)
(0.00523159 -0.00863283 0)
(0.00384684 -0.0112084 0)
(0.000634119 -0.0116094 0)
(-0.00299872 -0.00960357 0)
(-0.00593289 -0.0117203 0)
(-0.00782171 -0.0139158 0)
(-0.00149852 -0.0169583 0)
(0.00167116 -0.0198106 0)
(0.00216149 -0.018969 0)
(0.000148869 -0.0187136 0)
(0.0023622 -0.011432 0)
(0.00785003 -0.0082516 0)
(0.00736577 -0.0109416 0)
(0.00373832 -0.00896974 0)
(0.00101355 -0.01055 0)
(-0.00211727 -0.012467 0)
(-0.00153927 -0.00718517 0)
(0.00157792 -0.00785115 0)
(0.00316877 -0.00952562 0)
(-0.0023388 -0.0129267 0)
(-0.00327677 -0.0192936 0)
(-0.0037193 -0.0188031 0)
(-0.00210438 -0.0155698 0)
(-0.0203782 -0.0816598 0)
(-0.0119646 0.0335662 0)
(-0.00861594 -0.0442618 0)
(-0.000201365 0.00509833 0)
(0.000488061 -0.0280761 0)
(0.000592112 -0.00587287 0)
(-0.00195108 -0.013675 0)
(0.000296144 9.9919e-05 0)
(0.002066 -0.00616478 0)
(-0.000461786 -0.00530141 0)
(-0.000328652 -0.00677422 0)
(-0.0045507 -0.00729544 0)
(-0.0084447 -0.0114546 0)
(-0.00415853 -0.0143182 0)
(-0.00323955 -0.00793204 0)
(0.000201752 -0.00518348 0)
(0.00600384 -0.00457995 0)
(0.00500589 -0.00585031 0)
(0.000293325 -0.0119744 0)
(0.000952572 -0.0151188 0)
(0.000119934 -0.0151623 0)
(0.0017564 -0.0122927 0)
(0.00326392 -0.015764 0)
(0.00462717 -0.0174453 0)
(-0.000519384 -0.0189786 0)
(-0.00272979 -0.020506 0)
(-0.0025565 -0.0199627 0)
(-0.0021665 -0.0195613 0)
(0.000770808 -0.0186458 0)
(0.00075533 -0.0156615 0)
(0.00326255 -0.010519 0)
(0.00424881 -0.0134316 0)
(0.00266713 -0.0245105 0)
(-0.00174749 -0.0258721 0)
(-0.00147088 -0.0217523 0)
(-0.00605951 -0.0223248 0)
(-0.00651343 -0.0248007 0)
(-0.00502788 -0.0224065 0)
(-0.0013176 -0.0197739 0)
(-0.00119947 -0.0192429 0)
(-0.00351113 -0.016641 0)
(-0.00157934 -0.0148715 0)
(-0.00363641 -0.0168582 0)
(-0.0049424 -0.0201467 0)
(-0.0068235 -0.019951 0)
(-0.0037487 -0.019658 0)
(-0.00293636 -0.0198426 0)
(-0.0019075 -0.0170324 0)
(0.00155839 -0.0156998 0)
(0.0087597 -0.0140606 0)
(0.0132932 -0.0117835 0)
(0.00992963 -0.00946845 0)
(0.00852723 -0.0100156 0)
(0.00422838 -0.0133411 0)
(-0.00259307 -0.0126353 0)
(-0.00353345 -0.00939558 0)
(-0.00498807 -0.0117016 0)
(-0.00393284 -0.0156481 0)
(0.00164687 -0.0162978 0)
(0.00357599 -0.0165713 0)
(0.00268492 -0.0159731 0)
(-0.00251896 -0.0159719 0)
(-0.00179404 -0.0168204 0)
(0.00040064 -0.0136772 0)
(0.00343633 -0.00885326 0)
(0.00284843 -0.00627241 0)
(0.00241661 -0.0107158 0)
(0.00102741 -0.0150387 0)
(-0.00235343 -0.0118727 0)
(-0.00102945 -0.010146 0)
(0.00144926 -0.0090049 0)
(0.00170426 -0.00795584 0)
(0.00272596 -0.0131462 0)
(-0.000853653 -0.0156647 0)
(-0.00336671 -0.0130894 0)
(-0.0241068 -0.0824411 0)
(-0.0102007 0.0302954 0)
(-0.00574783 -0.0438654 0)
(-0.00375861 0.00989734 0)
(-0.00389415 -0.0269223 0)
(-0.000779156 -0.00598546 0)
(-0.000700153 -0.0161841 0)
(-0.00363692 -0.00749616 0)
(-0.00350442 -0.0161887 0)
(-0.00255957 -0.013577 0)
(0.00150787 -0.0100048 0)
(0.000344523 -0.00936367 0)
(-0.00189232 -0.00909264 0)
(-0.00269881 -0.0101981 0)
(-0.0024679 -0.00838981 0)
(-0.00239536 -0.00996713 0)
(-0.000834781 -0.0117224 0)
(0.00510926 -0.00647172 0)
(0.00441449 -0.00850514 0)
(0.00113266 -0.00993401 0)
(-0.000184217 -0.0102865 0)
(0.00204251 -0.0134607 0)
(0.0045737 -0.0163849 0)
(0.00536653 -0.0159472 0)
(0.000869729 -0.0164685 0)
(-9.05367e-05 -0.0188116 0)
(0.000333144 -0.0213451 0)
(3.05368e-05 -0.0215111 0)
(0.000492926 -0.021332 0)
(0.000333213 -0.0133191 0)
(0.00662939 -0.00646784 0)
(0.00500874 -0.0103076 0)
(0.00473635 -0.0154917 0)
(0.00166031 -0.0121149 0)
(0.000336869 -0.012603 0)
(-0.00690028 -0.0155082 0)
(-0.00802886 -0.019722 0)
(-0.00579247 -0.0226157 0)
(-0.00137366 -0.0223769 0)
(0.000740791 -0.0224769 0)
(0.0010953 -0.016674 0)
(-0.00326241 -0.0132527 0)
(-0.00405402 -0.0139059 0)
(-0.00459254 -0.0126268 0)
(-0.00637881 -0.0129103 0)
(-0.00362831 -0.013105 0)
(-0.00353331 -0.0150862 0)
(-0.000342136 -0.01725 0)
(0.00285366 -0.0234051 0)
(0.00486222 -0.0255679 0)
(0.00629104 -0.0202558 0)
(0.00945901 -0.0109732 0)
(0.00929444 -0.00650681 0)
(0.00194581 -0.00830996 0)
(-0.00290083 -0.00854956 0)
(-0.0029457 -0.00979218 0)
(-0.00191635 -0.0118055 0)
(-0.000789079 -0.0143905 0)
(-0.00122064 -0.015682 0)
(0.00253908 -0.014679 0)
(0.0023828 -0.014075 0)
(0.00184793 -0.0183929 0)
(0.00152029 -0.0225995 0)
(0.00158272 -0.0220163 0)
(0.00381777 -0.016645 0)
(0.00153301 -0.0146986 0)
(0.00214557 -0.0163741 0)
(2.65653e-05 -0.0204658 0)
(-0.0018894 -0.0182216 0)
(-0.00222087 -0.0202078 0)
(-0.00061159 -0.0244843 0)
(0.00148148 -0.020765 0)
(0.00316704 -0.0189642 0)
(0.000841305 -0.0186047 0)
(-0.00365044 -0.0169857 0)
(-0.024397 -0.0859738 0)
(-0.0083733 0.0405592 0)
(-0.00813797 -0.047253 0)
(-0.00454628 0.0167616 0)
(-0.000738314 -0.0273207 0)
(0.00101583 -0.00454503 0)
(0.00131691 -0.0196352 0)
(-0.00140625 -0.0126035 0)
(-0.000120084 -0.0182427 0)
(-0.00295431 -0.0181326 0)
(-0.00539859 -0.015781 0)
(-0.00102632 -0.0119944 0)
(-0.002291 -0.0120552 0)
(-0.00616225 -0.0140842 0)
(-0.00220937 -0.0100958 0)
(-0.00334724 -0.00975652 0)
(-0.00224357 -0.015199 0)
(0.00170796 -0.0101023 0)
(0.00728539 -0.00522294 0)
(0.00437377 -0.00675529 0)
(0.00215581 -0.0112958 0)
(0.00337644 -0.0160986 0)
(0.00540324 -0.0163308 0)
(0.00491539 -0.0163549 0)
(0.00168317 -0.0174014 0)
(0.000946986 -0.0187426 0)
(0.00157131 -0.0197613 0)
(0.000660759 -0.0195744 0)
(-0.00349458 -0.0189423 0)
(-0.000695478 -0.0118513 0)
(0.00125628 -0.00673674 0)
(0.00268315 -0.00947036 0)
(0.00310599 -0.00660895 0)
(0.00436555 -0.00276335 0)
(-0.00265508 -0.00494201 0)
(-0.00403735 -0.0106726 0)
(-0.00508206 -0.0183939 0)
(-0.000281311 -0.0201859 0)
(0.000902151 -0.0212941 0)
(-0.00325788 -0.0181888 0)
(-0.0032144 -0.0146407 0)
(-0.00628608 -0.0151058 0)
(-0.00513031 -0.016196 0)
(-0.0042528 -0.0170369 0)
(-0.00480161 -0.0148832 0)
(-0.00162316 -0.0164372 0)
(-0.000473286 -0.0219485 0)
(0.00480923 -0.0192502 0)
(0.00658211 -0.0202728 0)
(0.00651123 -0.023357 0)
(0.00595191 -0.0149668 0)
(0.00820427 -0.00442461 0)
(0.00221474 -0.00644024 0)
(-0.00620275 -0.00894015 0)
(-0.0043142 -0.0109317 0)
(-0.00123833 -0.016162 0)
(-3.98398e-05 -0.0174012 0)
(0.000836612 -0.0177392 0)
(0.00125073 -0.0173949 0)
(0.0029363 -0.0161503 0)
(0.00342182 -0.01773 0)
(0.00455978 -0.0203181 0)
(0.00244756 -0.0209807 0)
(-0.00095246 -0.0202565 0)
(-0.000962831 -0.0186719 0)
(0.00079854 -0.0167829 0)
(0.0051317 -0.0163861 0)
(0.0048524 -0.0176596 0)
(0.00316701 -0.019454 0)
(-0.00194504 -0.0202001 0)
(-0.00134551 -0.0206311 0)
(-0.00101488 -0.0183495 0)
(0.00299226 -0.0155912 0)
(0.00335144 -0.0174713 0)
(-0.00220332 -0.0174571 0)
(-0.0280377 -0.0881548 0)
(-0.0136791 0.0466301 0)
(-0.00694567 -0.048578 0)
(-0.00389218 0.0132752 0)
(0.00149445 -0.0260329 0)
(0.00130113 -0.00171892 0)
(0.000277419 -0.015222 0)
(0.00032079 0.00153521 0)
(0.00124312 -0.00520371 0)
(-0.00190415 -0.00850194 0)
(-0.00443981 -0.0063972 0)
(-0.00234972 -0.0040604 0)
(-0.00253037 -0.00938505 0)
(-0.00487274 -0.0161888 0)
(-0.00195064 -0.0174446 0)
(-0.00322834 -0.0151947 0)
(-0.00418476 -0.0147927 0)
(-0.00366171 -0.014743 0)
(0.00303383 -0.0121595 0)
(0.00624412 -0.00851873 0)
(0.00829031 -0.0113438 0)
(0.00717741 -0.0145829 0)
(0.00780293 -0.0131557 0)
(0.00399128 -0.011554 0)
(0.00318347 -0.00939462 0)
(-0.000187345 -0.00802991 0)
(0.000932045 -0.0094196 0)
(0.00260223 -0.00959091 0)
(-0.00199133 -0.0108406 0)
(-0.00350179 -0.0123794 0)
(-0.00285291 -0.0103924 0)
(-0.000990268 -0.0105835 0)
(-0.00326759 -0.0111097 0)
(0.00209748 -0.00845521 0)
(0.00315421 -0.00806343 0)
(0.00581675 -0.0136461 0)
(0.00243669 -0.015278 0)
(-0.00171925 -0.0108351 0)
(-0.00709302 -0.0121346 0)
(-0.00910748 -0.0108617 0)
(-0.0093096 -0.00903429 0)
(-0.00478081 -0.0125841 0)
(-0.0013134 -0.0163562 0)
(-8.31727e-05 -0.016982 0)
(-0.000199612 -0.0130861 0)
(-0.00436164 -0.0161256 0)
(-0.00406191 -0.0231773 0)
(-0.000569859 -0.0209841 0)
(0.00277308 -0.0178033 0)
(0.00226037 -0.0144703 0)
(0.00300967 -0.00833419 0)
(0.00808416 -0.0025591 0)
(0.00354008 -0.00482857 0)
(-0.00229898 -0.00535193 0)
(0.000275802 -0.0102552 0)
(0.00255442 -0.0173491 0)
(-0.00133542 -0.0202182 0)
(0.00146838 -0.0207838 0)
(0.000685179 -0.0195162 0)
(0.00137409 -0.0162499 0)
(0.00383595 -0.0150734 0)
(0.00426301 -0.0158221 0)
(0.000590437 -0.0163753 0)
(0.000735231 -0.0149043 0)
(-0.000214338 -0.0196808 0)
(0.000518748 -0.0219638 0)
(0.00485088 -0.0197016 0)
(0.00380372 -0.0184617 0)
(0.00313225 -0.0183524 0)
(-0.000639672 -0.0157838 0)
(-0.00208383 -0.0150275 0)
(-0.00264166 -0.0118569 0)
(0.000326274 -0.00786553 0)
(0.00400463 -0.00888644 0)
(0.0043147 -0.0117051 0)
(-0.0313425 -0.0789386 0)
(-0.014864 0.0262867 0)
(-0.00266336 -0.0436403 0)
(-0.00498668 0.0050188 0)
(0.00154195 -0.0276859 0)
(-0.00168618 -0.00587804 0)
(0.000787272 -0.0164609 0)
(-0.00166793 -0.00380939 0)
(-0.00442538 -0.00953101 0)
(-0.00356327 -0.0104065 0)
(-0.00298439 -0.0116252 0)
(-0.00314295 -0.0134823 0)
(0.00165325 -0.0153358 0)
(0.00149819 -0.0209942 0)
(-0.00194333 -0.0246398 0)
(-0.00368264 -0.0254425 0)
(-0.00218397 -0.0285408 0)
(-0.00224 -0.0291586 0)
(0.00177377 -0.0269589 0)
(0.00449873 -0.0214829 0)
(0.010786 -0.0171356 0)
(0.0090439 -0.0143152 0)
(0.00260647 -0.0129023 0)
(-0.00219895 -0.0105275 0)
(-0.000686858 -0.00911453 0)
(0.00214011 -0.010993 0)
(0.00389146 -0.0156381 0)
(0.00135607 -0.0163928 0)
(0.00258172 -0.0179907 0)
(0.00159341 -0.0184086 0)
(-8.67344e-05 -0.0145609 0)
(-0.000704223 -0.0186646 0)
(-0.000499079 -0.0239163 0)
(0.00161326 -0.0234811 0)
(0.00307175 -0.0151895 0)
(0.00392703 -0.00890401 0)
(0.0021698 -0.00765925 0)
(-0.00224707 -0.00360246 0)
(-0.0101495 -0.00307197 0)
(-0.00895996 -0.00729602 0)
(-0.00716279 -0.0114566 0)
(-0.000833574 -0.0163069 0)
(-0.000817537 -0.0188545 0)
(-0.00107169 -0.0183069 0)
(0.00327078 -0.0167483 0)
(-1.26589e-05 -0.0164952 0)
(0.000954168 -0.0210186 0)
(-0.000101071 -0.0278339 0)
(-0.00241792 -0.0283573 0)
(-0.00203417 -0.025749 0)
(0.00179218 -0.0204738 0)
(0.00244265 -0.0194321 0)
(0.002363 -0.0225787 0)
(0.00178827 -0.0167683 0)
(0.00575589 -0.0107629 0)
(0.00700791 -0.0180529 0)
(0.00291545 -0.0209647 0)
(-4.53623e-05 -0.0201504 0)
(-0.0023373 -0.0228585 0)
(-0.00190948 -0.0216136 0)
(0.00231633 -0.0165623 0)
(0.00243214 -0.0143168 0)
(-2.70241e-06 -0.0144076 0)
(0.00292147 -0.0140608 0)
(0.00264634 -0.0165785 0)
(-6.90392e-05 -0.0166667 0)
(0.00309748 -0.0170228 0)
(0.00179339 -0.0162927 0)
(0.000985167 -0.015313 0)
(-0.000278623 -0.0160787 0)
(-0.00360542 -0.0153895 0)
(-0.00227494 -0.017205 0)
(-0.00207185 -0.0181952 0)
(0.00268316 -0.018105 0)
(0.00493492 -0.0193138 0)
(-0.0269598 -0.0751778 0)
(-0.0116982 0.0147671 0)
(-0.00535993 -0.0421967 0)
(-0.00497418 -0.000173754 0)
(0.000425363 -0.0281649 0)
(-0.000871275 -0.0128875 0)
(0.000531438 -0.0181191 0)
(-0.00160032 -0.0145608 0)
(-0.00499625 -0.0182093 0)
(-0.00375065 -0.0186026 0)
(-0.00207552 -0.0235151 0)
(-0.000844051 -0.0251162 0)
(0.00313362 -0.0243696 0)
(0.00123338 -0.0227717 0)
(0.00267935 -0.0253377 0)
(-9.82054e-05 -0.0302173 0)
(0.00057434 -0.0323039 0)
(-0.0023553 -0.0322955 0)
(-0.00408823 -0.0320724 0)
(-0.00281114 -0.0253883 0)
(0.00349288 -0.0197929 0)
(0.00236934 -0.0213508 0)
(0.000682757 -0.0208376 0)
(0.00235103 -0.0250634 0)
(0.00189215 -0.0288103 0)
(0.00144166 -0.0269422 0)
(0.00570939 -0.0261613 0)
(0.00470001 -0.0270944 0)
(0.00296977 -0.0246025 0)
(0.00120498 -0.0216766 0)
(-0.00247874 -0.0189264 0)
(-0.00278115 -0.0177382 0)
(-0.00152718 -0.0187184 0)
(-0.00174014 -0.0160387 0)
(0.000375381 -0.0088068 0)
(-0.005326 -0.00876194 0)
(-0.00613993 -0.0096493 0)
(-0.00595334 -0.00667976 0)
(-0.00397857 -0.00606229 0)
(-0.000768158 -0.00894746 0)
(-0.000956229 -0.0142376 0)
(0.000174905 -0.0160405 0)
(-0.000230306 -0.0167497 0)
(-0.000991687 -0.0172225 0)
(-0.000359088 -0.0191198 0)
(-0.000732225 -0.0172232 0)
(0.00130073 -0.0145418 0)
(0.00233578 -0.0162221 0)
(-0.000254314 -0.0166979 0)
(0.0013449 -0.012724 0)
(0.00210939 -0.0170567 0)
(-0.000437586 -0.0260632 0)
(0.00144025 -0.0277171 0)
(0.00548791 -0.0211662 0)
(0.00633362 -0.0139494 0)
(0.00126246 -0.0199955 0)
(0.000756993 -0.0229282 0)
(0.00028203 -0.0203011 0)
(-0.00242384 -0.0237896 0)
(-0.00345452 -0.0248996 0)
(-0.000175901 -0.0214079 0)
(0.00263149 -0.0175641 0)
(0.00195851 -0.0115154 0)
(-0.00090884 -0.00874825 0)
(0.00167111 -0.00962882 0)
(0.00519828 -0.00618521 0)
(0.00063824 -0.00649021 0)
(0.00194374 -0.00881297 0)
(0.000769708 -0.0103976 0)
(0.000722904 -0.0123546 0)
(-0.000999879 -0.0113943 0)
(-0.000475759 -0.0154655 0)
(0.000381323 -0.0174761 0)
(0.00283757 -0.0162779 0)
(0.00472245 -0.0159061 0)
(-0.0208265 -0.0771907 0)
(-0.0069517 0.0194424 0)
(-0.0107126 -0.0411515 0)
(-0.00623234 0.00255863 0)
(-0.00301818 -0.0253946 0)
(0.000457456 -0.0064115 0)
(0.000315597 -0.0168761 0)
(-0.000560199 -0.0115126 0)
(-0.00204124 -0.0172428 0)
(-0.0014097 -0.0187543 0)
(0.000376326 -0.024229 0)
(-0.000269494 -0.0276768 0)
(0.00148703 -0.0293328 0)
(0.00234253 -0.022875 0)
(0.00151864 -0.0215669 0)
(-0.000175325 -0.0246656 0)
(0.000625017 -0.0235356 0)
(0.000947586 -0.0240078 0)
(-0.000291248 -0.0260557 0)
(0.0016526 -0.0231196 0)
(-0.00127352 -0.0217937 0)
(0.00237486 -0.0247278 0)
(0.00313682 -0.0245449 0)
(0.00296775 -0.0274042 0)
(0.00123956 -0.0300178 0)
(0.00136439 -0.0245903 0)
(0.00183132 -0.0233167 0)
(0.00100093 -0.0250244 0)
(-0.000642219 -0.017264 0)
(-0.0020636 -0.0147715 0)
(-0.002945 -0.0153655 0)
(-0.00510799 -0.0154448 0)
(-0.00291787 -0.0149384 0)
(0.000461654 -0.0130479 0)
(0.00272406 -0.0122645 0)
(-0.00438529 -0.0126806 0)
(-0.00821159 -0.0125874 0)
(-0.00470927 -0.0169346 0)
(-0.00427089 -0.0183475 0)
(-0.000372651 -0.0173714 0)
(-0.00173918 -0.0188455 0)
(-0.00139091 -0.0184038 0)
(0.000400523 -0.0179756 0)
(0.00206545 -0.0172717 0)
(0.00109229 -0.0166665 0)
(-0.0031408 -0.0142622 0)
(-0.00141664 -0.0130541 0)
(0.00175084 -0.0161437 0)
(0.00012969 -0.0155564 0)
(0.002725 -0.0171777 0)
(0.00405545 -0.024194 0)
(0.00474366 -0.0254552 0)
(0.00353056 -0.0233263 0)
(0.00963637 -0.0151412 0)
(0.00509517 -0.0137004 0)
(-0.000295002 -0.019855 0)
(0.000744403 -0.0174737 0)
(0.000602885 -0.0167526 0)
(-0.000606426 -0.020373 0)
(-0.004869 -0.0186865 0)
(-0.00560409 -0.0179668 0)
(-0.00319355 -0.0167026 0)
(-0.000846269 -0.0125776 0)
(-0.00121143 -0.0124257 0)
(0.00177975 -0.0100037 0)
(0.00559303 -0.00498898 0)
(0.000917132 -0.00503177 0)
(0.000142944 -0.00713135 0)
(0.000231123 -0.00911598 0)
(-0.000874556 -0.0101663 0)
(-0.00172064 -0.0118547 0)
(0.00133081 -0.0175522 0)
(0.000948156 -0.0206608 0)
(0.000501963 -0.0188787 0)
(0.00253819 -0.0153683 0)
(-0.0217818 -0.0782506 0)
(-0.00808654 0.0235326 0)
(-0.011719 -0.0461799 0)
(-0.00492486 -0.00100982 0)
(-0.00324892 -0.0262887 0)
(3.35048e-05 -0.00800711 0)
(0.000623696 -0.0163309 0)
(0.00106672 -0.0111829 0)
(0.00141769 -0.0160462 0)
(0.00153224 -0.0161573 0)
(0.0028743 -0.0188962 0)
(0.00275071 -0.0207889 0)
(0.0033823 -0.0202803 0)
(0.00487044 -0.0164859 0)
(-0.00144372 -0.0135779 0)
(-0.000455096 -0.0103629 0)
(-0.00115272 -0.00794087 0)
(-0.0026143 -0.0112958 0)
(0.000356008 -0.0127697 0)
(0.00431156 -0.0104875 0)
(0.000385618 -0.00917504 0)
(0.00248477 -0.00597682 0)
(0.00324284 -0.00562593 0)
(0.00341287 -0.00816344 0)
(0.00192198 -0.0120228 0)
(0.00122501 -0.0116791 0)
(-0.00313484 -0.0117786 0)
(-0.00368657 -0.0128892 0)
(-0.00252555 -0.012543 0)
(-0.00117291 -0.0102256 0)
(0.000253726 -0.0108848 0)
(-0.000501647 -0.0131845 0)
(-0.00143552 -0.014544 0)
(-0.00123705 -0.0136539 0)
(-0.00162217 -0.0128932 0)
(-0.00346934 -0.0148486 0)
(-0.00627671 -0.0118721 0)
(-0.000996962 -0.0197016 0)
(-0.00423317 -0.0219755 0)
(-0.00160144 -0.0206718 0)
(-0.00134344 -0.0246044 0)
(-0.00157549 -0.0223077 0)
(-0.00362233 -0.0187235 0)
(-0.001781 -0.013036 0)
(0.00205585 -0.0152791 0)
(0.00110126 -0.0157463 0)
(0.00139918 -0.0132583 0)
(0.00322361 -0.0172901 0)
(0.00490889 -0.021553 0)
(0.000105276 -0.0228698 0)
(0.00191197 -0.0247591 0)
(0.00366166 -0.0246747 0)
(0.00561364 -0.0189928 0)
(0.00638891 -0.0165508 0)
(0.00219665 -0.0185613 0)
(0.00115937 -0.0189095 0)
(0.00286073 -0.0197985 0)
(-0.00303759 -0.0171582 0)
(-0.00177603 -0.0138085 0)
(-0.00124973 -0.0126528 0)
(-0.00458038 -0.0145546 0)
(-0.00337924 -0.0190963 0)
(0.000254898 -0.0191474 0)
(-0.000295884 -0.0201205 0)
(0.00153268 -0.0194531 0)
(0.000736245 -0.0157833 0)
(0.00244073 -0.0147389 0)
(0.00104545 -0.0170346 0)
(-0.000116144 -0.0182112 0)
(0.00169414 -0.0171551 0)
(0.00526258 -0.0168654 0)
(0.0059303 -0.0152568 0)
(0.00265755 -0.013395 0)
(-0.000140656 -0.0131636 0)
(0.000900677 -0.0130824 0)
(-0.01646 -0.0881514 0)
(-0.00477532 0.0299531 0)
(-0.0136401 -0.0438725 0)
(-0.00448514 0.00217681 0)
(-0.00716499 -0.0265801 0)
(-0.00197893 -0.00789321 0)
(-0.000744898 -0.0161295 0)
(-0.000170347 -0.0100388 0)
(0.0011792 -0.0141869 0)
(0.000996773 -0.0141104 0)
(0.00197747 -0.0161064 0)
(0.00186452 -0.0153864 0)
(-0.000434162 -0.0119679 0)
(0.0011222 -0.00975904 0)
(0.000171692 -0.0110947 0)
(2.6713e-05 -0.0110052 0)
(-0.00183572 -0.0109733 0)
(-0.00298801 -0.0131498 0)
(-0.00106289 -0.0139898 0)
(0.00318888 -0.012718 0)
(0.00395574 -0.0111349 0)
(0.00111589 -0.0083385 0)
(0.00149544 -0.00763218 0)
(0.000243289 -0.00937202 0)
(0.00213296 -0.0101327 0)
(0.00393682 -0.0126011 0)
(0.0021809 -0.0137099 0)
(0.000951335 -0.0126974 0)
(-0.00124408 -0.012083 0)
(-0.00332597 -0.0155505 0)
(-0.00316792 -0.0146168 0)
(0.000121327 -0.0131036 0)
(0.00165159 -0.0148044 0)
(0.000530555 -0.0175436 0)
(-0.00169749 -0.0189485 0)
(-0.00143296 -0.0215798 0)
(0.00276576 -0.0170984 0)
(0.00102596 -0.019955 0)
(0.000320601 -0.021601 0)
(-0.00466399 -0.021173 0)
(-0.00505547 -0.0270493 0)
(-0.0069294 -0.0244628 0)
(-0.00487102 -0.0175006 0)
(-0.00129625 -0.0124767 0)
(0.0027049 -0.019493 0)
(0.00338634 -0.0241618 0)
(0.000533607 -0.0235041 0)
(-0.00133209 -0.0254854 0)
(0.0013664 -0.0273632 0)
(0.000183713 -0.0251898 0)
(0.00361738 -0.0267373 0)
(0.00419734 -0.0278622 0)
(0.00744156 -0.0232301 0)
(0.0028515 -0.0173601 0)
(0.00212888 -0.0159444 0)
(0.00225111 -0.0150138 0)
(-0.00182436 -0.0124604 0)
(-0.00730478 -0.0104647 0)
(-0.00223912 -0.00929634 0)
(-0.00148744 -0.00909636 0)
(-0.00239389 -0.0116999 0)
(-0.00173397 -0.0156514 0)
(0.000645017 -0.0168477 0)
(0.000381966 -0.0165216 0)
(0.00122758 -0.0161594 0)
(0.00162479 -0.0195165 0)
(0.00233457 -0.0201981 0)
(0.00143498 -0.0213451 0)
(0.000471972 -0.0215877 0)
(-0.00212496 -0.0186478 0)
(-0.0027069 -0.0168222 0)
(-0.00105989 -0.0131364 0)
(-0.00135859 -0.00900899 0)
(0.000861977 -0.00982585 0)
(0.00183339 -0.0134122 0)
(-0.0236468 -0.09812 0)
(-0.00977522 0.0642824 0)
(0.000234324 -0.0433137 0)
(-0.00464354 0.0236426 0)
(-0.00256554 -0.0271297 0)
(-0.00431855 -0.00306755 0)
(-0.000960192 -0.0177344 0)
(0.000347331 -0.0137993 0)
(0.00357852 -0.0191222 0)
(0.00344306 -0.0169974 0)
(0.000871227 -0.0158733 0)
(0.0020484 -0.01444 0)
(0.00121283 -0.0111713 0)
(-0.000693695 -0.0094032 0)
(-0.000182952 -0.0102019 0)
(0.000515696 -0.0112491 0)
(-0.000175646 -0.012721 0)
(-3.97106e-05 -0.0133439 0)
(-0.00152904 -0.0163763 0)
(0.000711671 -0.0153512 0)
(0.00192784 -0.0119186 0)
(0.00291485 -0.0113377 0)
(0.0022015 -0.0109141 0)
(0.00218683 -0.0115182 0)
(0.00192861 -0.0129503 0)
(0.0011536 -0.0102533 0)
(0.000899257 -0.00663989 0)
(-0.00294486 -0.00471903 0)
(-0.000361737 -0.00319833 0)
(0.0003454 -0.00622175 0)
(-0.00213662 -0.0117834 0)
(0.000236598 -0.01502 0)
(0.00302008 -0.0129679 0)
(0.00280319 -0.0156057 0)
(-0.000293925 -0.0187745 0)
(-0.00129326 -0.0171 0)
(0.00193586 -0.0132523 0)
(-0.000882038 -0.0112732 0)
(0.000277359 -0.0105283 0)
(-0.00305012 -0.0114607 0)
(-0.00294896 -0.0181833 0)
(-0.00432779 -0.01809 0)
(-0.00377326 -0.0136041 0)
(-0.00178357 -0.0123192 0)
(-0.00138725 -0.0170076 0)
(0.00111706 -0.0212237 0)
(0.00309572 -0.0220003 0)
(0.00215415 -0.0249936 0)
(0.00223742 -0.0263928 0)
(0.00340388 -0.0223804 0)
(0.0025932 -0.0217909 0)
(0.00104909 -0.0232403 0)
(0.00078098 -0.019214 0)
(0.000482944 -0.0130228 0)
(-0.000195664 -0.00594607 0)
(-0.00289282 -0.00592346 0)
(-0.00480182 -0.00973522 0)
(-0.00458085 -0.00790362 0)
(0.000162959 -0.007995 0)
(-0.00118366 -0.0114021 0)
(-0.000605944 -0.0121607 0)
(-0.00013419 -0.0128968 0)
(0.00104395 -0.0115354 0)
(0.00236697 -0.0112819 0)
(0.000836114 -0.0126654 0)
(0.00416644 -0.0176509 0)
(0.0034268 -0.0191345 0)
(0.00172146 -0.0186433 0)
(-0.000933327 -0.0138982 0)
(-0.00278734 -0.00850667 0)
(0.000744964 -0.00873662 0)
(0.00238346 -0.0146111 0)
(0.0010455 -0.0214323 0)
(0.0017135 -0.0229119 0)
(0.0012948 -0.022627 0)
(-0.0298607 -0.0769138 0)
(-0.0154582 0.020136 0)
(0.00555838 -0.0429332 0)
(-0.00772611 -0.0016112 0)
(0.00289115 -0.0302248 0)
(-0.000920523 -0.0144778 0)
(0.00269006 -0.0230135 0)
(0.00382992 -0.0205385 0)
(0.00355467 -0.0205148 0)
(-0.000501893 -0.0172564 0)
(-0.00386936 -0.0163351 0)
(-0.000350573 -0.0147557 0)
(7.16742e-05 -0.0144305 0)
(-0.000963663 -0.0135494 0)
(0.000858648 -0.0158977 0)
(0.0020308 -0.0174235 0)
(0.000351172 -0.0163393 0)
(-0.00277071 -0.0140713 0)
(-0.00250322 -0.0161958 0)
(5.58213e-05 -0.0195102 0)
(-0.000428294 -0.0205243 0)
(0.0014995 -0.0171497 0)
(0.00284946 -0.0133068 0)
(0.00229721 -0.014045 0)
(-0.000623186 -0.0158083 0)
(-0.0035716 -0.0113134 0)
(-0.00166953 -0.00707216 0)
(-0.00181557 -0.00750278 0)
(0.0021991 -0.0116213 0)
(0.0033427 -0.0143019 0)
(0.00138829 -0.0168377 0)
(0.00123939 -0.0189038 0)
(0.00327172 -0.0141457 0)
(0.00402278 -0.0129024 0)
(0.0011574 -0.0158668 0)
(-1.17135e-05 -0.0189031 0)
(-0.00078497 -0.0188157 0)
(-0.00348025 -0.0174232 0)
(-0.000906179 -0.0159688 0)
(0.00108095 -0.0151072 0)
(0.00177136 -0.0173349 0)
(0.00295493 -0.0203461 0)
(0.00215955 -0.0195678 0)
(-0.00277456 -0.0158437 0)
(-0.003625 -0.0178326 0)
(-0.000889646 -0.0204435 0)
(0.00174705 -0.0241795 0)
(0.00412088 -0.0245921 0)
(0.00487127 -0.0211509 0)
(0.00142553 -0.0170187 0)
(-0.00268304 -0.0141519 0)
(-0.000827853 -0.01305 0)
(0.00299863 -0.0115667 0)
(0.00333578 -0.0115753 0)
(-0.00287897 -0.0115028 0)
(-0.00551156 -0.0139652 0)
(-0.0039252 -0.0154381 0)
(-0.00053269 -0.0147437 0)
(-0.0037121 -0.0134673 0)
(-0.00113515 -0.0133182 0)
(0.00103263 -0.0134374 0)
(-0.00033436 -0.0133974 0)
(-0.00109482 -0.0124648 0)
(0.00131353 -0.0129469 0)
(0.00244081 -0.0134865 0)
(0.00411142 -0.0133403 0)
(0.00472234 -0.0132899 0)
(-0.00089616 -0.0112987 0)
(-0.00519877 -0.00939896 0)
(-0.0028686 -0.0040658 0)
(0.00307537 -0.00410684 0)
(0.00532784 -0.00584266 0)
(0.00298065 -0.010329 0)
(0.00120382 -0.0141792 0)
(0.00112118 -0.015444 0)
(-0.019457 -0.0806655 0)
(-0.00791613 0.00843365 0)
(-0.0062423 -0.0435073 0)
(-0.0103623 -0.00608089 0)
(-0.00399732 -0.0253424 0)
(-0.000490623 -0.0124972 0)
(0.00170638 -0.0199036 0)
(0.000778792 -0.0147251 0)
(0.000131429 -0.0178068 0)
(-0.00231455 -0.0185149 0)
(-0.00144097 -0.0169628 0)
(-0.00250553 -0.0161567 0)
(0.00219009 -0.019914 0)
(0.00237949 -0.0205664 0)
(0.00241198 -0.0189369 0)
(0.00209939 -0.0178121 0)
(0.00179988 -0.0194619 0)
(0.00180898 -0.0156729 0)
(0.000362111 -0.0139513 0)
(0.001148 -0.0210003 0)
(-0.000219464 -0.0245654 0)
(-0.00149852 -0.0210249 0)
(0.000448222 -0.0207331 0)
(0.00134359 -0.0201842 0)
(0.000919747 -0.0236295 0)
(-0.00073527 -0.0200217 0)
(-4.73031e-05 -0.01392 0)
(0.000458237 -0.0173463 0)
(-0.000966778 -0.0225137 0)
(0.00240795 -0.0248812 0)
(0.000910054 -0.0233721 0)
(-0.00135249 -0.0219986 0)
(1.18024e-05 -0.018781 0)
(0.00151633 -0.0155226 0)
(0.00380479 -0.0169652 0)
(0.00372041 -0.0164523 0)
(-0.000957685 -0.0187638 0)
(-0.00350691 -0.0193103 0)
(-0.00383147 -0.0177521 0)
(0.000394857 -0.0165389 0)
(0.00312404 -0.0155387 0)
(0.00313946 -0.014387 0)
(0.00565167 -0.014005 0)
(0.000613801 -0.0101684 0)
(-0.00148502 -0.0137042 0)
(-0.000833726 -0.021779 0)
(-0.00387065 -0.0214688 0)
(-0.00168007 -0.0191062 0)
(0.000674847 -0.0160227 0)
(-0.000204775 -0.0135756 0)
(-0.00152766 -0.013049 0)
(-0.0010237 -0.01251 0)
(0.00198923 -0.00689486 0)
(0.00179606 -0.00498306 0)