/*--------------------------------*- C++ -*----------------------------------*\
  =========                 |
  \\      /  F ield         | OpenFOAM: The Open Source CFD Toolbox
   \\    /   O peration     | Website:  https://openfoam.org
    \\  /    A nd           | Version:  12
     \\/     M anipulation  |
\*---------------------------------------------------------------------------*/
FoamFile
{
    format      ascii;
    class       volVectorField;
    location    "0.15";
    object      U.water_0;
}
// * * * * * * * * * * * * * * * * * * * * * * * * * * * * * * * * * * * * * //

dimensions      [0 1 -1 0 0 0 0];

internalField   nonuniform List<vector> 
3750
(
(-0.00828511 -0.106654 0)
(-0.0307658 0.0731357 0)
(-0.00397987 0.0032721 0)
(0.00794946 0.0279263 0)
(-0.000924695 0.00857502 0)
(0.00109865 0.0149633 0)
(-0.00156222 0.0089508 0)
(0.000565217 0.0184573 0)
(-0.00187988 0.0151949 0)
(-0.000802225 0.0187645 0)
(-0.00113276 0.0223976 0)
(-0.00145395 0.0245462 0)
(0.00140596 0.0254167 0)
(-0.000287739 0.0237648 0)
(-0.00221293 0.0190702 0)
(0.000668769 0.0181374 0)
(0.000941035 0.0190459 0)
(-0.00199489 0.0208308 0)
(-0.000971304 0.0239743 0)
(0.00172036 0.02491 0)
(0.00478445 0.0275274 0)
(-0.000218914 0.023326 0)
(0.000127439 0.0148258 0)
(0.00070478 0.0157381 0)
(-0.00210501 0.0177877 0)
(-0.000857327 0.0223478 0)
(0.000368052 0.0248907 0)
(0.00203 0.0267207 0)
(0.00109597 0.0247965 0)
(-0.000165003 0.0241601 0)
(-0.00172668 0.023726 0)
(-0.00166605 0.0227053 0)
(-0.000783543 0.0223169 0)
(-0.000860546 0.0224268 0)
(0.00156073 0.0226267 0)
(0.00151814 0.0218773 0)
(0.00133968 0.0308451 0)
(-0.00118176 0.0313715 0)
(-0.00177461 0.0236152 0)
(-0.00151612 0.0243169 0)
(-0.0017065 0.0235426 0)
(-0.00132316 0.0232999 0)
(-0.00112434 0.0252808 0)
(-0.000657975 0.028395 0)
(0.000767582 0.0313298 0)
(0.00124042 0.0311254 0)
(-0.000360808 0.0285965 0)
(0.00148066 0.0265237 0)
(0.00027654 0.0254124 0)
(-0.00042759 0.0244419 0)
(4.9364e-05 0.0215121 0)
(0.00156251 0.0160921 0)
(0.0014252 0.0216083 0)
(-0.00189995 0.0218295 0)
(-0.00158134 0.0170343 0)
(-7.55504e-05 0.0197443 0)
(-0.000199314 0.0201017 0)
(-0.00127779 0.0243364 0)
(0.000804926 0.0300778 0)
(0.00253739 0.0289058 0)
(0.00235482 0.0258331 0)
(0.00308498 0.0199776 0)
(0.00487775 0.0236146 0)
(-0.000199265 0.0221008 0)
(-0.00178142 0.0124809 0)
(-0.00213616 0.0125105 0)
(-0.00313688 0.0148816 0)
(-0.00251037 0.016602 0)
(-0.00245557 0.0180648 0)
(-0.00075215 0.0197101 0)
(0.000594327 0.0203208 0)
(0.000911662 0.0197074 0)
(0.00114355 0.0194812 0)
(0.00252249 0.024768 0)
(-0.000994309 0.0230976 0)
(-0.0139968 -0.0776638 0)
(-0.020162 0.0352302 0)
(0.00571717 -0.0490746 0)
(0.00849474 0.0275644 0)
(-0.000626804 -0.0236273 0)
(0.000958774 0.0133197 0)
(0.000369905 -0.0117617 0)
(-0.00129106 0.00517681 0)
(-0.00366173 -0.00629353 0)
(-0.00348037 0.00172007 0)
(-0.00293335 -0.0031542 0)
(-0.00181947 0.00457556 0)
(0.0017431 0.00311825 0)
(0.00468784 0.00230466 0)
(0.00400019 -0.00383186 0)
(0.000549905 -0.00114969 0)
(-0.00251823 -0.00394902 0)
(-0.0031441 -0.00324954 0)
(-9.0726e-05 -0.000353763 0)
(0.00196532 -0.00110895 0)
(0.00560506 0.00296808 0)
(0.0023292 0.00280422 0)
(0.000331583 0.000736945 0)
(-0.00221053 0.000935347 0)
(-0.00491658 0.000123296 0)
(-0.00414557 0.000255653 0)
(-0.00383681 0.00124867 0)
(-0.00370562 0.000471692 0)
(2.60888e-06 0.000380969 0)
(0.00309894 -0.00184334 0)
(0.00339507 -0.00369151 0)
(0.00328796 -0.00602456 0)
(0.00350146 -0.00724029 0)
(0.00100672 -0.00332671 0)
(-0.00301439 -0.00200836 0)
(-0.00423951 -0.00483165 0)
(0.00101176 0.00285551 0)
(-0.00100885 0.00437098 0)
(7.96085e-05 -0.00214022 0)
(0.000826104 -0.00135349 0)
(0.00239424 -0.00374193 0)
(-5.03801e-05 -0.0041439 0)
(-0.00521209 0.000394559 0)
(-0.00485422 0.004849 0)
(-0.000119714 0.00935578 0)
(0.00173378 0.0131541 0)
(0.00269245 0.0177956 0)
(0.00101663 0.0170754 0)
(0.00138775 0.0122314 0)
(0.0032202 0.00827839 0)
(0.00567657 0.00608502 0)
(0.00243897 0.00290103 0)
(0.00366786 -0.000273764 0)
(-0.000124611 -0.00520773 0)
(1.29122e-05 -0.00728661 0)
(-0.00458099 -0.00242212 0)
(-0.00624594 -0.00125764 0)
(-0.00624901 -0.00354713 0)
(-0.00299327 0.000162188 0)
(0.00102287 0.000947642 0)
(0.00500926 0.000769926 0)
(0.00332198 0.000294224 0)
(0.00325661 0.00280531 0)
(0.000884764 0.00244437 0)
(0.00191963 -0.00406893 0)
(0.000263498 -0.0086313 0)
(0.00136066 -0.00863721 0)
(0.000232266 -0.00996799 0)
(-0.000175953 -0.0105059 0)
(-0.0027911 -0.00864916 0)
(0.000564902 -0.0105868 0)
(-0.000991543 -0.0140594 0)
(-0.000179721 -0.0133174 0)
(0.00478346 -0.00787233 0)
(0.00160929 -0.00652293 0)
(-0.0185368 -0.075274 0)
(-0.0163112 0.0293955 0)
(-0.0137042 -0.0480372 0)
(-0.00540691 0.0144024 0)
(0.00482122 -0.0252209 0)
(-0.00359729 0.00176109 0)
(0.00352092 -0.0141196 0)
(-0.00337852 -0.00555137 0)
(-0.00288219 -0.00996447 0)
(-0.00181585 -0.00992621 0)
(-0.00199724 -0.0156433 0)
(-0.000854897 -0.0140865 0)
(-0.00330987 -0.0121626 0)
(0.00198263 -0.00667861 0)
(0.00593903 -0.0034103 0)
(0.000743215 -0.00123438 0)
(0.000697886 -0.0018222 0)
(-0.00385887 -0.0088164 0)
(-0.0042756 -0.0095963 0)
(0.000559182 -0.0113712 0)
(0.00244897 -0.0113651 0)
(0.00213706 -0.00971926 0)
(1.22907e-05 -0.00867648 0)
(0.000769792 -0.0103594 0)
(-0.00026129 -0.0184269 0)
(-0.00299441 -0.0200767 0)
(-0.00025747 -0.0204705 0)
(0.000828389 -0.0200431 0)
(0.00397565 -0.0212925 0)
(0.00528447 -0.0216388 0)
(0.00286034 -0.0218354 0)
(0.000197476 -0.0235935 0)
(-0.000135354 -0.0230457 0)
(0.00141567 -0.0208617 0)
(-0.00201977 -0.0198321 0)
(-0.00241013 -0.0199246 0)
(0.000357148 -0.01742 0)
(-0.0030619 -0.0136928 0)
(-0.000969264 -0.0128292 0)
(0.00139489 -0.0121839 0)
(-0.000212082 -0.0111293 0)
(-0.00566427 -0.00675783 0)
(-0.00888253 -0.00717763 0)
(-0.00841869 -0.00855274 0)
(-0.00555713 -0.00680926 0)
(-0.00183661 -0.0043913 0)
(0.00142116 0.00190636 0)
(-0.000883252 0.00402862 0)
(0.00314546 0.00644845 0)
(0.00521746 0.00551317 0)
(0.00925672 0.00131613 0)
(0.0114735 0.000216202 0)
(0.00673824 -0.00540556 0)
(0.00288467 -0.0119062 0)
(0.00363554 -0.0115415 0)
(-0.00219624 -0.00643415 0)
(-0.00757546 -0.00890576 0)
(-0.00918441 -0.013563 0)
(-0.00191637 -0.0168731 0)
(0.0015585 -0.0190015 0)
(0.00224509 -0.018557 0)
(0.000493355 -0.0180758 0)
(0.0026949 -0.0137664 0)
(0.00758764 -0.0102653 0)
(0.00836036 -0.0108582 0)
(0.00208356 -0.00660783 0)
(0.000578444 -0.00638858 0)
(-0.00240589 -0.0116042 0)
(0.000110846 -0.0121178 0)
(0.00149964 -0.00956565 0)
(0.00169677 -0.0079833 0)
(0.000355578 -0.0138537 0)
(-0.00115785 -0.0189739 0)
(-0.00120776 -0.0192553 0)
(-0.00041446 -0.0165346 0)
(-0.0229724 -0.0804997 0)
(-0.0141239 0.0394064 0)
(-0.00574509 -0.0462134 0)
(-0.00276725 0.00198901 0)
(-0.00127649 -0.0257629 0)
(0.00015106 -0.00187455 0)
(-0.0013096 -0.0140841 0)
(-0.00117924 -0.00875128 0)
(-0.00129856 -0.00766614 0)
(-0.00173552 -0.0021547 0)
(0.000522107 -0.00712906 0)
(-0.00153881 -0.0087921 0)
(-0.00440641 -0.0113198 0)
(-0.00574875 -0.0123304 0)
(-0.000575998 -0.00797301 0)
(-0.00122077 -0.00722084 0)
(0.00538699 -0.00668497 0)
(0.00579125 -0.00441921 0)
(0.000343209 -0.00557387 0)
(0.00306439 -0.0122768 0)
(0.000677109 -0.0160853 0)
(0.00012215 -0.013332 0)
(0.00474242 -0.0170757 0)
(0.00477673 -0.0175368 0)
(-0.000861397 -0.0188027 0)
(-0.0030406 -0.0203184 0)
(-0.00252345 -0.0195584 0)
(-0.0019356 -0.018945 0)
(0.00170228 -0.0180098 0)
(0.0036966 -0.0154424 0)
(0.00332719 -0.0152219 0)
(0.00198804 -0.0178344 0)
(0.00277139 -0.0227925 0)
(0.000173462 -0.0243976 0)
(-0.00250315 -0.0251363 0)
(-0.0057937 -0.024165 0)
(-0.00592832 -0.0229451 0)
(-0.00532385 -0.0214443 0)
(-0.00205951 -0.0191934 0)
(-0.0022697 -0.0187805 0)
(-0.00299506 -0.0165719 0)
(-0.00202026 -0.0154738 0)
(-0.00486747 -0.0177368 0)
(-0.00487606 -0.0215787 0)
(-0.00620778 -0.0212954 0)
(-0.00414102 -0.0200783 0)
(-0.00357994 -0.0189415 0)
(-0.00416047 -0.0154001 0)
(-0.00076436 -0.0139114 0)
(0.00619691 -0.0112673 0)
(0.0106081 -0.0106024 0)
(0.0159393 -0.0105796 0)
(0.00782245 -0.0109446 0)
(0.0017791 -0.012091 0)
(-0.000117506 -0.0103066 0)
(-0.00223573 -0.00807903 0)
(-0.00557219 -0.010513 0)
(-0.00491091 -0.0152298 0)
(0.00103406 -0.0160658 0)
(0.00318147 -0.0162188 0)
(0.00184536 -0.0154351 0)
(-0.00317157 -0.015557 0)
(-0.0035843 -0.0168908 0)
(0.00183368 -0.0124531 0)
(0.00391576 -0.0108479 0)
(0.00389357 -0.00715594 0)
(0.000806322 -0.00735406 0)
(-0.00146071 -0.0130017 0)
(7.16101e-05 -0.0130875 0)
(0.000889369 -0.0122421 0)
(0.000252912 -0.00873659 0)
(0.00270881 -0.00798775 0)
(0.00318574 -0.012822 0)
(0.000158002 -0.0147509 0)
(-0.00255379 -0.0148042 0)
(-0.0239244 -0.081376 0)
(-0.00991981 0.0371956 0)
(-0.00881185 -0.0445759 0)
(-0.00186596 0.00484506 0)
(-0.00632188 -0.0245515 0)
(-0.000831515 -0.00240842 0)
(-0.00510475 -0.017869 0)
(-0.00376986 -0.0123524 0)
(-0.00171999 -0.0178999 0)
(-0.00379558 -0.0143465 0)
(-0.000784637 -0.00786874 0)
(0.00242569 -0.00359197 0)
(0.000443621 -0.011175 0)
(-0.00180343 -0.0107155 0)
(-0.00119959 -0.00831106 0)
(-0.00183207 -0.0140275 0)
(0.000150259 -0.0114762 0)
(0.00786163 -0.00553222 0)
(0.00550752 -0.00341353 0)
(0.00046371 -0.00691523 0)
(-0.000216184 -0.0112683 0)
(0.00135869 -0.0143732 0)
(0.00461215 -0.0175414 0)
(0.00505026 -0.0165094 0)
(0.000122197 -0.0164089 0)
(-0.00110987 -0.0181257 0)
(0.000506201 -0.0206216 0)
(0.000170556 -0.0204218 0)
(0.000774613 -0.0191512 0)
(0.001302 -0.0155631 0)
(0.00354224 -0.0141872 0)
(0.00564564 -0.0129463 0)
(0.0053161 -0.0121384 0)
(0.000185069 -0.0127084 0)
(0.000826799 -0.0148453 0)
(-0.00360861 -0.0146386 0)
(-0.00647037 -0.0191133 0)
(-0.00608344 -0.022277 0)
(-0.00325096 -0.0222545 0)
(-0.00185652 -0.0212488 0)
(-0.00233664 -0.0163279 0)
(-0.00482728 -0.014918 0)
(-0.00494331 -0.0146902 0)
(-0.00453475 -0.0131935 0)
(-0.00468136 -0.0145604 0)
(-0.0063192 -0.0143422 0)
(-0.00587597 -0.0142601 0)
(-0.00324015 -0.0154423 0)
(0.00018268 -0.0215312 0)
(0.00214057 -0.0241595 0)
(0.00703753 -0.0145621 0)
(0.00922316 -0.0101072 0)
(0.00700571 -0.0118408 0)
(0.0044981 -0.00544298 0)
(-0.00136274 -0.00442378 0)
(-0.00253628 -0.00962582 0)
(-0.0021309 -0.0110448 0)
(-0.00124476 -0.0139845 0)
(-0.00193621 -0.0153397 0)
(0.00208829 -0.0142419 0)
(0.00205626 -0.013601 0)
(0.00148897 -0.017953 0)
(0.00115335 -0.0224872 0)
(0.00145805 -0.0218425 0)
(0.00237976 -0.0172466 0)
(0.00352614 -0.0149952 0)
(0.0019954 -0.0158801 0)
(-0.000399095 -0.0150844 0)
(-0.00228056 -0.0182151 0)
(-0.00113512 -0.0254594 0)
(-0.000389874 -0.0243532 0)
(0.00171156 -0.0207553 0)
(0.00265546 -0.018797 0)
(0.000609406 -0.0184331 0)
(-0.00351592 -0.018796 0)
(-0.0242478 -0.085511 0)
(-0.00796086 0.0430427 0)
(-0.0109827 -0.0471829 0)
(-0.00339644 0.0149016 0)
(-0.00103609 -0.0266689 0)
(6.5933e-05 -0.002726 0)
(-0.00108533 -0.0199741 0)
(0.000829134 -0.0149733 0)
(-0.00133743 -0.0209773 0)
(-0.00217466 -0.0194376 0)
(-0.00210591 -0.0131812 0)
(-0.00266013 -0.00901183 0)
(-0.00536405 -0.0130971 0)
(-0.00415164 -0.0130638 0)
(-0.00283324 -0.0102869 0)
(-0.000758666 -0.0118563 0)
(-0.00037769 -0.0153857 0)
(0.00356699 -0.0093685 0)
(0.00804673 -0.00241083 0)
(0.00426721 -0.00506258 0)
(0.00188559 -0.0119515 0)
(0.00257182 -0.0172764 0)
(0.00542955 -0.0175036 0)
(0.00379376 -0.0172842 0)
(0.00054261 -0.0178439 0)
(-0.0011227 -0.0176194 0)
(0.00195695 -0.0182115 0)
(0.000846546 -0.0189054 0)
(-0.00455506 -0.0175395 0)
(-0.00429932 -0.0152356 0)
(0.00209069 -0.0121469 0)
(0.00497982 -0.0108342 0)
(0.00323041 -0.00705197 0)
(0.0024657 -0.000963575 0)
(0.000266182 -0.00343252 0)
(-0.0022707 -0.0108636 0)
(-0.00211396 -0.0195139 0)
(-0.000378605 -0.0223372 0)
(-0.00270755 -0.0231972 0)
(-0.00506852 -0.0200014 0)
(-0.00615986 -0.013697 0)
(-0.00781963 -0.0130473 0)
(-0.006145 -0.0155541 0)
(-0.00488378 -0.01577 0)
(-0.0042778 -0.018651 0)
(-0.00372394 -0.0205723 0)
(-0.0029605 -0.0209435 0)
(0.0014555 -0.0178545 0)
(0.00328286 -0.0180071 0)
(0.00770099 -0.0163751 0)
(0.0076642 -0.0113552 0)
(0.0032863 -0.00861851 0)
(0.00516295 -0.00446842 0)
(0.0006768 -0.0037273 0)
(-0.00329803 -0.0102215 0)
(-0.00189226 -0.0165204 0)
(0.000453648 -0.0172278 0)
(0.00047512 -0.0177805 0)
(0.000556136 -0.0171802 0)
(0.00215086 -0.0155627 0)
(0.00255912 -0.0171414 0)
(0.00419614 -0.0199767 0)
(0.00231521 -0.0207177 0)
(-0.000985424 -0.0199409 0)
(-0.000764563 -0.0185649 0)
(0.00150104 -0.0166919 0)
(0.00554795 -0.0156785 0)
(0.00595503 -0.015568 0)
(-0.000468201 -0.0190146 0)
(-0.000388591 -0.0216182 0)
(0.000710832 -0.0213229 0)
(0.000653828 -0.0195728 0)
(0.00138155 -0.0159915 0)
(0.001408 -0.0158196 0)
(-0.00355214 -0.0192674 0)
(-0.0314676 -0.0862371 0)
(-0.0146291 0.050466 0)
(-0.00410498 -0.0480556 0)
(-0.00519029 0.0109233 0)
(0.00169317 -0.0260379 0)
(-0.000180518 -0.000232424 0)
(0.000537787 -0.0136121 0)
(-0.0014552 -0.00219204 0)
(-0.00259164 -0.0083577 0)
(-0.000485954 -0.004581 0)
(-0.00179701 -0.00667248 0)
(-0.00363272 -0.00447827 0)
(-0.00313683 -0.00743138 0)
(-0.00525196 -0.0141237 0)
(-0.000260169 -0.0169189 0)
(-0.0014438 -0.0166506 0)
(-0.00269685 -0.0149366 0)
(-0.00222148 -0.0152642 0)
(0.00397638 -0.00991264 0)
(0.00660233 -0.00640155 0)
(0.0075414 -0.0127143 0)
(0.00619616 -0.0151773 0)
(0.00696291 -0.0148474 0)
(0.00278511 -0.0135192 0)
(0.00184374 -0.01027 0)
(-0.00111256 -0.00555629 0)
(-0.000384935 -0.00650917 0)
(0.00266821 -0.00975141 0)
(-0.00243389 -0.0119593 0)
(-0.0044085 -0.0124358 0)
(-0.00143998 -0.0120582 0)
(-0.00183308 -0.0141759 0)
(-0.00323003 -0.0121005 0)
(0.0023125 -0.00643159 0)
(0.00640884 -0.00657475 0)
(0.00329468 -0.0124723 0)
(0.00304663 -0.0167556 0)
(-0.00163307 -0.0175304 0)
(-0.00837355 -0.0141616 0)
(-0.00725243 -0.00901093 0)
(-0.00746152 -0.00818897 0)
(-0.00494766 -0.0118961 0)
(-0.00213689 -0.0162123 0)
(-0.00169659 -0.0161445 0)
(-0.00443216 -0.0161866 0)
(-0.00226969 -0.0201628 0)
(-0.00552507 -0.0237635 0)
(-0.00438326 -0.0204858 0)
(0.001052 -0.0119269 0)
(0.00337481 -0.00820093 0)
(0.00168748 -0.00863696 0)
(0.00448124 1.13251e-05 0)
(0.00980285 0.00190893 0)
(0.00619198 -0.00417248 0)
(0.00115761 -0.0137029 0)
(-0.00190488 -0.0177417 0)
(0.000979951 -0.019292 0)
(0.000589205 -0.0216566 0)
(0.000212592 -0.0196673 0)
(0.000440658 -0.0160458 0)
(0.00246524 -0.0143059 0)
(0.00357646 -0.0150694 0)
(0.000494316 -0.015838 0)
(0.000461199 -0.0138363 0)
(0.000670027 -0.0189671 0)
(0.00119706 -0.0221715 0)
(0.00447326 -0.0193407 0)
(0.00435663 -0.0175228 0)
(0.00231124 -0.0181169 0)
(-0.000288659 -0.0152659 0)
(-0.00155866 -0.0144277 0)
(-0.00235044 -0.0152619 0)
(-0.000143445 -0.0114 0)
(0.00273533 -0.0082387 0)
(0.00108331 -0.0106467 0)
(-0.0341573 -0.0748627 0)
(-0.0146024 0.0363112 0)
(-0.00204929 -0.0439393 0)
(-0.00590923 0.000383326 0)
(0.00199338 -0.0275023 0)
(-0.00263331 -0.00399779 0)
(-0.000413083 -0.0171882 0)
(-0.00576023 -0.010453 0)
(-0.00514715 -0.00865407 0)
(-0.00183062 -0.00469795 0)
(-0.00371293 -0.01117 0)
(-0.00173867 -0.0136543 0)
(0.00203024 -0.0153657 0)
(0.00371366 -0.0171644 0)
(-0.00168464 -0.0224916 0)
(-0.00240333 -0.0276475 0)
(-0.00141733 -0.0286986 0)
(-0.000269531 -0.0286547 0)
(0.0045639 -0.0255224 0)
(0.00612618 -0.0218047 0)
(0.00939349 -0.0194061 0)
(0.00774253 -0.0157201 0)
(0.00122197 -0.0144178 0)
(-0.00323303 -0.0118489 0)
(-0.00240423 -0.00908677 0)
(0.00294312 -0.00956685 0)
(0.000475434 -0.0131701 0)
(0.00188924 -0.0148647 0)
(0.0022773 -0.0170269 0)
(0.00210076 -0.0195036 0)
(-0.00166446 -0.0198692 0)
(-0.000795497 -0.0211598 0)
(0.000362133 -0.0234146 0)
(0.00409851 -0.0191839 0)
(0.00453509 -0.0169838 0)
(0.000911317 -0.0123392 0)
(-0.000545903 -0.00669435 0)
(-0.00232534 -0.00778084 0)
(-0.00782977 -0.00280291 0)
(-0.00865207 -0.00526757 0)
(-0.0068556 -0.0119601 0)
(-0.000819991 -0.0168947 0)
(-0.00131664 -0.0198991 0)
(-0.00257482 -0.020603 0)
(0.000121881 -0.0168008 0)
(0.001468 -0.0172436 0)
(0.00112088 -0.025255 0)
(-0.000767511 -0.0267549 0)
(-0.0021172 -0.022071 0)
(-0.00445903 -0.0191337 0)
(-0.00374234 -0.0216215 0)
(0.00398019 -0.0164819 0)
(0.00622667 -0.00918302 0)
(0.0076868 -0.0169296 0)
(0.00579317 -0.0232648 0)
(0.00237154 -0.0166839 0)
(0.00244408 -0.0172547 0)
(0.00159625 -0.0230517 0)
(-0.00221932 -0.022542 0)
(-0.00263902 -0.0220085 0)
(0.00083481 -0.0162237 0)
(-0.000120544 -0.012726 0)
(0.00228115 -0.0135482 0)
(0.00154834 -0.0126358 0)
(0.00525737 -0.0152162 0)
(0.00168334 -0.0178185 0)
(0.000975497 -0.0166775 0)
(0.00191748 -0.0148395 0)
(0.00135203 -0.0152747 0)
(5.19012e-05 -0.0160891 0)
(-0.00432071 -0.0158414 0)
(-0.00356315 -0.0191046 0)
(-0.00100246 -0.0203657 0)
(0.00322748 -0.0196999 0)
(0.0042759 -0.0148666 0)
(-0.0247327 -0.0701267 0)
(-0.0112032 0.02207 0)
(-0.0094335 -0.043056 0)
(-0.00410121 -0.00278357 0)
(0.000582236 -0.0285254 0)
(-0.000972106 -0.0133291 0)
(-0.00212497 -0.0197181 0)
(-0.00264389 -0.0180035 0)
(-0.00257966 -0.0152469 0)
(-0.00263099 -0.014356 0)
(-0.00409986 -0.0240799 0)
(-0.000273803 -0.0247328 0)
(0.00553596 -0.0224466 0)
(0.00802201 -0.0210202 0)
(-0.00104571 -0.025196 0)
(0.00168284 -0.0309309 0)
(-0.000390462 -0.032013 0)
(-0.000117213 -0.0308742 0)
(-0.00298293 -0.0302412 0)
(-0.00171741 -0.0278585 0)
(0.00377358 -0.0247646 0)
(0.00293826 -0.0224305 0)
(5.3557e-05 -0.0216508 0)
(0.00132016 -0.0267795 0)
(-3.59236e-05 -0.0280811 0)
(0.00472114 -0.0270673 0)
(0.00374187 -0.0237697 0)
(0.00356425 -0.0243903 0)
(0.00151416 -0.0261606 0)
(-0.00130632 -0.0232157 0)
(-0.00359743 -0.0211694 0)
(-0.000867165 -0.0187678 0)
(-0.000152119 -0.0173099 0)
(0.000797085 -0.0136248 0)
(-0.00277017 -0.0129241 0)
(-0.00369739 -0.0122459 0)
(-0.00677982 -0.00840462 0)
(-0.00580626 -0.00779442 0)
(-0.00158169 -0.00683251 0)
(-0.00197529 -0.00853567 0)
(-0.00127754 -0.0137526 0)
(0.000236084 -0.0165913 0)
(-0.000157973 -0.017936 0)
(-0.00130527 -0.0188414 0)
(0.000284437 -0.0195778 0)
(-0.00154401 -0.0185295 0)
(0.00160172 -0.0172444 0)
(0.00337502 -0.0151989 0)
(0.000860541 -0.0124956 0)
(-0.0045929 -0.0118362 0)
(-0.00246749 -0.0127719 0)
(0.00554529 -0.0142534 0)
(0.00739619 -0.016429 0)
(0.00396177 -0.023705 0)
(0.00445338 -0.0282047 0)
(0.00416882 -0.021201 0)
(-0.000985331 -0.0159811 0)
(-0.000235875 -0.0202307 0)
(-0.00253976 -0.0258746 0)
(-0.0040267 -0.0262985 0)
(-0.00128042 -0.0229907 0)
(-0.000727968 -0.0132652 0)
(0.00140692 -0.00989621 0)
(7.2744e-05 -0.0074592 0)
(0.00527436 -0.00605609 0)
(0.00381303 -0.0107563 0)
(0.00326121 -0.00753436 0)
(-0.000326612 -0.00539858 0)
(0.00175541 -0.00998027 0)
(0.000824124 -0.0127396 0)
(-0.00119024 -0.0120701 0)
(-0.000791207 -0.016871 0)
(0.000757185 -0.0191598 0)
(0.00355865 -0.0177447 0)
(0.00478383 -0.0141072 0)
(-0.0198225 -0.0759811 0)
(-0.00823836 0.0224159 0)
(-0.0139192 -0.0409086 0)
(-0.00588668 0.00218529 0)
(-0.00317765 -0.0263889 0)
(-7.32554e-05 -0.00732607 0)
(-0.000462767 -0.0184827 0)
(-7.57567e-05 -0.0131482 0)
(0.000306364 -0.0142026 0)
(-0.00240025 -0.0170307 0)
(-0.000360307 -0.024089 0)
(0.000639865 -0.0234531 0)
(0.00387789 -0.0239431 0)
(0.00428438 -0.0257928 0)
(0.00284346 -0.0247476 0)
(0.00179949 -0.0242233 0)
(-0.000901882 -0.0233478 0)
(-0.00103417 -0.0216476 0)
(-0.00272823 -0.0252427 0)
(-0.00159928 -0.0240736 0)
(0.00354577 -0.0246212 0)
(0.00575656 -0.0268806 0)
(0.0035405 -0.0273722 0)
(0.000827815 -0.0300464 0)
(0.00132985 -0.0258062 0)
(0.00174736 -0.0236208 0)
(0.00372312 -0.0259211 0)
(-0.00131179 -0.023455 0)
(-0.00232522 -0.017991 0)
(-0.00346923 -0.0154442 0)
(-0.00345189 -0.0161908 0)
(-0.00464309 -0.015651 0)
(-0.00258028 -0.0136132 0)
(0.000453614 -0.0130017 0)
(0.000432031 -0.0147476 0)
(-0.00127686 -0.0133659 0)
(-0.00537526 -0.0126955 0)
(-0.00537429 -0.0178466 0)
(-0.00116224 -0.019529 0)
(-0.00117899 -0.0180303 0)
(-0.00171394 -0.0183442 0)
(-0.000714669 -0.0187312 0)
(0.00120008 -0.0193418 0)
(0.00185527 -0.0189647 0)
(0.000452289 -0.0174372 0)
(-0.0015626 -0.0157081 0)
(-0.00137733 -0.0157811 0)
(-0.0011981 -0.0143447 0)
(-0.000397053 -0.0155815 0)
(0.00116036 -0.0152552 0)
(0.00730322 -0.0132553 0)
(0.00875275 -0.0121026 0)
(0.00757474 -0.0172796 0)
(0.00272051 -0.0231106 0)
(0.00376923 -0.0219608 0)
(0.00370532 -0.018544 0)
(-0.000866976 -0.0169717 0)
(-0.0016831 -0.0180238 0)
(-6.76624e-05 -0.0199989 0)
(-0.00466753 -0.0197417 0)
(-0.00552122 -0.0203027 0)
(-0.00309412 -0.0149065 0)
(-0.00406184 -0.00746839 0)
(7.34091e-05 -0.0066583 0)
(8.93588e-05 -0.0112396 0)
(0.00368706 -0.00744026 0)
(0.00398809 -0.00542776 0)
(-0.000300621 -0.00722367 0)
(0.000892488 -0.00660721 0)
(-0.000428831 -0.011281 0)
(-0.00189475 -0.0124805 0)
(0.00109688 -0.0186088 0)
(0.00103005 -0.0218036 0)
(0.00110752 -0.0208913 0)
(0.00324104 -0.0138503 0)
(-0.0235232 -0.0776196 0)
(-0.00870787 0.0269334 0)
(-0.0116341 -0.0452101 0)
(-0.00507153 -0.00072087 0)
(-0.00265265 -0.0277159 0)
(-0.000926479 -0.00912683 0)
(0.000571817 -0.0169608 0)
(0.00191484 -0.0113779 0)
(0.0032748 -0.0149151 0)
(-6.41469e-06 -0.0151749 0)
(0.00404376 -0.0171948 0)
(0.00377762 -0.0170671 0)
(0.00512907 -0.0171919 0)
(0.00237121 -0.0161429 0)
(0.00258033 -0.013765 0)
(-0.000435724 -0.0138742 0)
(7.4757e-05 -0.0115912 0)
(-0.00512772 -0.0104021 0)
(-0.004344 -0.0114144 0)
(0.000348294 -0.00494313 0)
(0.00154261 -0.00760203 0)
(0.00557731 -0.0115634 0)
(0.00399336 -0.0119515 0)
(0.00364985 -0.0099267 0)
(0.00439754 -0.00814312 0)
(-0.0014994 -0.00952695 0)
(-0.00112008 -0.0121642 0)
(-0.00468384 -0.0136206 0)
(-0.0037644 -0.0130583 0)
(-0.00181673 -0.0103006 0)
(-6.41699e-05 -0.010971 0)
(-0.000663532 -0.0130601 0)
(-0.00156958 -0.0135075 0)
(-0.00221991 -0.013897 0)
(-0.00151287 -0.0139017 0)
(-0.00184903 -0.0128228 0)
(-0.0042242 -0.0138877 0)
(-0.00301356 -0.020341 0)
(-0.000464101 -0.0232783 0)
(-0.00164348 -0.0236673 0)
(-0.000287585 -0.0227027 0)
(0.000671349 -0.0221409 0)
(-0.000471888 -0.0211768 0)
(-0.00264481 -0.0163664 0)
(-0.00380915 -0.0137112 0)
(0.000670913 -0.0158984 0)
(0.00170651 -0.0204587 0)
(0.00419953 -0.016922 0)
(0.0062465 -0.0158503 0)
(0.00571414 -0.0186195 0)
(0.00308586 -0.015889 0)
(0.00552032 -0.0125268 0)
(0.00231738 -0.0185344 0)
(0.00175786 -0.0248578 0)
(0.00209782 -0.0221463 0)
(0.000259727 -0.0201522 0)
(-0.000828409 -0.0192085 0)
(-0.00228495 -0.015599 0)
(-0.000183583 -0.0136402 0)
(-0.000366521 -0.0141061 0)
(-0.00384142 -0.0156168 0)
(-0.00148771 -0.0180717 0)
(0.000371437 -0.0161872 0)
(-0.0014939 -0.0174586 0)
(-0.00338098 -0.0191851 0)
(0.00123386 -0.0158184 0)
(0.000685103 -0.0144512 0)
(0.00295412 -0.0162263 0)
(0.000344822 -0.0171262 0)
(0.00259627 -0.0182832 0)
(0.00551933 -0.0183284 0)
(0.00569345 -0.0166759 0)
(0.00255854 -0.0141416 0)
(-0.000360239 -0.0139793 0)
(0.00206794 -0.0127148 0)
(-0.0148171 -0.0872534 0)
(-0.00312506 0.0333886 0)
(-0.0150748 -0.0433243 0)
(-0.00575314 0.00197942 0)
(-0.0072451 -0.0285121 0)
(-0.00197973 -0.0096155 0)
(-0.000513079 -0.0159122 0)
(0.000208024 -0.00987369 0)
(0.00175918 -0.0137515 0)
(0.000631725 -0.0134625 0)
(0.00166559 -0.0135362 0)
(0.00333745 -0.0104241 0)
(0.00262438 -0.00998066 0)
(0.000785069 -0.0101688 0)
(0.000485201 -0.0115239 0)
(-0.000560812 -0.0135171 0)
(1.35832e-05 -0.0130757 0)
(-0.00234392 -0.0163043 0)
(-0.00247092 -0.0145696 0)
(0.00142272 -0.00770161 0)
(-0.00108753 -0.00735172 0)
(-0.000713225 -0.0108168 0)
(0.00111604 -0.0135529 0)
(0.00145759 -0.0103374 0)
(0.00549022 -0.0084834 0)
(0.00571584 -0.0119272 0)
(0.00274606 -0.0143413 0)
(0.000455144 -0.0140658 0)
(-0.0029368 -0.0122862 0)
(-0.00304503 -0.0155384 0)
(-0.0041543 -0.01501 0)
(-0.000502304 -0.0129844 0)
(0.0011444 -0.0142757 0)
(-0.000620379 -0.0174103 0)
(-0.00177036 -0.0187929 0)
(-0.00170171 -0.0201885 0)
(0.00095543 -0.0208303 0)
(0.00246462 -0.0190913 0)
(-5.10768e-06 -0.0208163 0)
(-0.00153575 -0.0247658 0)
(-0.00243247 -0.0245338 0)
(-0.002926 -0.0230286 0)
(-0.00278413 -0.0218365 0)
(-0.00153773 -0.0229533 0)
(-0.00266402 -0.0194713 0)
(-5.08636e-05 -0.0191947 0)
(0.000967326 -0.0249744 0)
(0.00477904 -0.0231395 0)
(0.0074434 -0.0231671 0)
(0.00529981 -0.0239075 0)
(0.00380909 -0.0191779 0)
(0.00310972 -0.0197002 0)
(0.00194013 -0.0241872 0)
(0.0034574 -0.0220932 0)
(0.0013105 -0.0203799 0)
(-0.00112352 -0.0174811 0)
(-0.00129766 -0.010427 0)
(-0.00594011 -0.00652754 0)
(-0.00584181 -0.00873729 0)
(-0.000722814 -0.0108984 0)
(-0.00230584 -0.0126254 0)
(-0.00217754 -0.0144029 0)
(0.000967434 -0.0150433 0)
(-0.00171575 -0.0157168 0)
(-0.00158202 -0.0153549 0)
(-0.000584224 -0.0187137 0)
(0.00152225 -0.0194281 0)
(0.0018839 -0.019311 0)
(0.00330357 -0.0199983 0)
(-8.13045e-05 -0.0201435 0)
(-0.00208809 -0.0192093 0)
(-0.00164361 -0.0150499 0)
(-0.00237195 -0.0097228 0)
(-0.000144331 -0.0100772 0)
(0.00200889 -0.0132771 0)
(-0.0204499 -0.0975338 0)
(-0.00874155 0.0649594 0)
(-0.00158413 -0.0449109 0)
(-0.0052478 0.0248605 0)
(-0.00394648 -0.0271895 0)
(-0.00421724 -0.0038064 0)
(-0.00105687 -0.0179416 0)
(0.00021761 -0.0136428 0)
(0.00366175 -0.0188241 0)
(0.00427013 -0.017009 0)
(0.00392387 -0.0125641 0)
(0.00407504 -0.00745491 0)
(0.00205181 -0.0096239 0)
(-7.87807e-05 -0.0117442 0)
(-0.000365841 -0.0106854 0)
(0.00063745 -0.0131514 0)
(0.000805973 -0.0151801 0)
(0.000933289 -0.0155583 0)
(0.000604513 -0.0174325 0)
(-0.000355924 -0.0138801 0)
(-0.00181006 -0.0103702 0)
(-0.00206893 -0.0125116 0)
(0.000235373 -0.0145175 0)
(0.000966967 -0.00975382 0)
(0.00368578 -0.0091921 0)
(0.00602882 -0.0111687 0)
(0.00196646 -0.0094755 0)
(-0.00309641 -0.00761865 0)
(-0.00180941 -0.00246648 0)
(-0.000457618 -0.00526165 0)
(-0.00325063 -0.0126458 0)
(-0.000705189 -0.0146033 0)
(0.00213551 -0.0124913 0)
(0.00220057 -0.0153246 0)
(-0.000727214 -0.0189306 0)
(-0.00209933 -0.0170669 0)
(-0.000137688 -0.0142005 0)
(0.00209551 -0.0109082 0)
(-0.0021095 -0.00989336 0)
(-0.000340645 -0.0113049 0)
(-0.00121007 -0.0151613 0)
(-0.00293962 -0.0181391 0)
(-0.00219664 -0.0199747 0)
(0.000750035 -0.0228936 0)
(0.0032186 -0.0187965 0)
(0.000172301 -0.0158385 0)
(0.00211004 -0.0193898 0)
(0.00516121 -0.0187933 0)
(0.00463756 -0.0218018 0)
(0.00534998 -0.0241303 0)
(0.00499285 -0.0193306 0)
(-0.000465671 -0.0168129 0)
(-0.00220254 -0.0174921 0)
(-0.00131818 -0.0166424 0)
(-0.000658616 -0.0134408 0)
(-0.00220817 -0.00564963 0)
(-0.00246228 -0.00417376 0)
(-0.00399512 -0.0100102 0)
(-0.0030135 -0.00837287 0)
(-0.00196 -0.00906513 0)
(-0.00153737 -0.0143475 0)
(-0.000991645 -0.0116263 0)
(-0.00053875 -0.0103442 0)
(-0.000998141 -0.0115831 0)
(-0.00213848 -0.012092 0)
(0.000214224 -0.01544 0)
(0.00284257 -0.0162465 0)
(0.00534988 -0.01422 0)
(0.00207032 -0.0114036 0)
(0.000504493 -0.011686 0)
(0.00122267 -0.0125853 0)
(0.000725518 -0.0172332 0)
(-0.000887301 -0.0225537 0)
(9.42728e-05 -0.0227634 0)
(0.0010138 -0.0221583 0)
(-0.0247798 -0.0785598 0)
(-0.0132479 0.0203072 0)
(0.00805466 -0.0441994 0)
(-0.00620698 -0.000791193 0)
(0.00214028 -0.0313098 0)
(-0.00262758 -0.0147317 0)
(0.00246751 -0.0229674 0)
(0.00339586 -0.0204745 0)
(0.00308374 -0.019582 0)
(0.000690071 -0.0138816 0)
(0.0043604 -0.0124727 0)
(0.00215309 -0.0119584 0)
(-0.00135271 -0.0139421 0)
(-0.000996472 -0.0150069 0)
(0.000657662 -0.0168062 0)
(0.001829 -0.0188826 0)
(0.0017789 -0.0178076 0)
(9.19377e-05 -0.0160117 0)
(-0.00126337 -0.0186383 0)
(-0.00246642 -0.0201813 0)
(-0.00298863 -0.0205514 0)
(-0.00168524 -0.0184165 0)
(0.00135175 -0.0156595 0)
(0.00304039 -0.0109896 0)
(-0.000990586 -0.0081424 0)
(0.000513145 -0.0114878 0)
(-8.96178e-05 -0.0126156 0)
(-0.00186339 -0.0108871 0)
(5.49347e-06 -0.0124502 0)
(1.41509e-05 -0.0136012 0)
(-4.49202e-05 -0.0169963 0)
(-2.56097e-05 -0.0188065 0)
(0.00221395 -0.01362 0)
(0.00342486 -0.0122346 0)
(0.000943813 -0.0156137 0)
(-0.000424726 -0.0189702 0)
(-0.00114963 -0.0189799 0)
(-0.00293847 -0.0171537 0)
(-0.0014655 -0.0155698 0)
(0.00153041 -0.0145251 0)
(0.00170219 -0.0158465 0)
(0.00108723 -0.0185302 0)
(0.00290941 -0.0226365 0)
(0.00196933 -0.0236451 0)
(0.00218228 -0.0215388 0)
(0.000897431 -0.0209098 0)
(0.00312927 -0.0218274 0)
(0.00520491 -0.0185701 0)
(0.00316814 -0.0177591 0)
(0.000379186 -0.0159217 0)
(-0.000984988 -0.0104459 0)
(0.00217676 -0.00964076 0)
(0.000512832 -0.0123376 0)
(-0.000722102 -0.0138257 0)
(-0.00313584 -0.013579 0)
(-0.00127439 -0.0132554 0)
(-0.00251132 -0.0131763 0)
(-0.00118974 -0.0163168 0)
(-0.00218312 -0.0147166 0)
(-0.00282902 -0.0129426 0)
(0.000236536 -0.0141988 0)
(-0.00011076 -0.01292 0)
(-0.00334 -0.0132748 0)
(-0.00244685 -0.0133499 0)
(-3.07534e-06 -0.013265 0)
(0.00317334 -0.0100891 0)
(0.00451105 -0.0050461 0)
(0.00146617 -0.00598331 0)
(-0.00464022 -0.00796977 0)
(-0.0034746 -0.00784302 0)
(0.00254906 -0.0113108 0)
(0.00535987 -0.00970239 0)
(0.00247635 -0.0109247 0)
(-0.000429115 -0.0128281 0)
(0.00125229 -0.0141921 0)
(-0.0151217 -0.0803845 0)
(-0.00286544 0.00687777 0)
(-0.00477452 -0.0461551 0)
(-0.0075688 -0.0075137 0)
(-0.00390966 -0.0285765 0)
(-0.00539095 -0.0127237 0)
(0.000672418 -0.0189603 0)
(2.35732e-05 -0.0150007 0)
(-0.0010628 -0.0158112 0)
(0.000308839 -0.00900766 0)
(0.00265159 -0.0125474 0)
(0.00518226 -0.0188186 0)
(0.00148268 -0.0208589 0)
(0.00169333 -0.0217504 0)
(0.00190086 -0.0198343 0)
(0.0017742 -0.0182951 0)
(0.0021647 -0.0188629 0)
(0.00204996 -0.0180547 0)
(0.00034405 -0.0202768 0)
(0.000570116 -0.0230815 0)
(-0.00119933 -0.0236651 0)
(-0.00326349 -0.0212595 0)
(-0.000237407 -0.02073 0)
(0.00291116 -0.0175531 0)
(-0.000872044 -0.016022 0)
(0.000599074 -0.0188406 0)
(0.000957819 -0.0210472 0)
(0.000556339 -0.0239344 0)
(-0.00190967 -0.0254206 0)
(-0.0016557 -0.0235775 0)
(-0.000981771 -0.0223087 0)
(-0.0024946 -0.0212406 0)
(-0.000867821 -0.0180561 0)
(0.000775723 -0.0146446 0)
(0.0036972 -0.0168034 0)
(0.00291193 -0.0164064 0)
(-0.00128494 -0.0185422 0)
(-0.00351706 -0.0190943 0)
(-0.00413182 -0.0174376 0)
(0.000282405 -0.0162157 0)
(0.00262287 -0.0150115 0)
(0.00184207 -0.0136509 0)
(0.00393727 -0.0138472 0)
(0.00235479 -0.0155748 0)
(0.00248037 -0.0181481 0)
(0.00252094 -0.0208901 0)
(0.000181406 -0.0196965 0)
(-0.000156357 -0.0164065 0)
(-5.12024e-06 -0.0136548 0)
(0.000261579 -0.0117916 0)
(-0.00199795 -0.0061069 0)
(0.000940447 -0.0105536 0)