/*--------------------------------*- C++ -*----------------------------------*\
  =========                 |
  \\      /  F ield         | OpenFOAM: The Open Source CFD Toolbox
   \\    /   O peration     | Website:  https://openfoam.org
    \\  /    A nd           | Version:  12
     \\/     M anipulation  |
\*---------------------------------------------------------------------------*/
FoamFile
{
    format      ascii;
    class       volScalarField::Internal;
    location    "0.6";
    object      cloud:UCoeff;
}
// * * * * * * * * * * * * * * * * * * * * * * * * * * * * * * * * * * * * * //

dimensions      [1 0 0 0 0 0 0];

value           nonuniform List<scalar> 
3750
(
5.89005e-06
3.80768e-07
3.4244e-08
2.60939e-08
0
2.60211e-08
2.46075e-08
2.50716e-08
2.44197e-08
2.4955e-08
2.42363e-08
6.01358e-08
2.41545e-08
2.53809e-08
2.51095e-08
2.63039e-08
0
6.06965e-08
2.41649e-08
2.48878e-08
6.07151e-08
5.86606e-08
2.27087e-08
0
2.41205e-08
2.47441e-08
2.4276e-08
2.26749e-08
5.94955e-08
2.31688e-08
2.55379e-08
0
0
2.56106e-08
2.57428e-08
6.06156e-08
2.33791e-08
0
0
2.4752e-08
2.6122e-08
0
2.48462e-08
1.01722e-07
2.33962e-08
2.57271e-08
2.58776e-08
2.57852e-08
2.55126e-08
2.54807e-08
2.55569e-08
5.89865e-08
2.45318e-08
5.81659e-08
2.53129e-08
3.52707e-08
4.59934e-08
2.45077e-08
2.46254e-08
2.51017e-08
6.52279e-08
2.62097e-08
2.40432e-08
4.33153e-08
1.83004e-09
0
2.56491e-08
2.53669e-08
5.77967e-08
2.45614e-08
2.46037e-08
5.88641e-08
2.26475e-08
2.58067e-08
2.61412e-08
1.4903e-05
3.08554e-07
1.31412e-08
2.68785e-08
0
2.42354e-08
5.85601e-08
0
2.42051e-08
6.05559e-08
5.9808e-08
3.75467e-08
1.25546e-08
0
0
0
2.56792e-08
0
2.54679e-08
2.6299e-08
2.63081e-08
6.22251e-08
5.92749e-08
0
0
2.56649e-08
3.25733e-08
1.7043e-08
0
2.50955e-08
2.55834e-08
0
0
5.97266e-08
2.51101e-08
6.04426e-08
2.39501e-08
0
0
2.56637e-08
0
2.5601e-08
1.03664e-07
2.39537e-08
2.56041e-08
0
0
0
2.59644e-08
2.59617e-08
0
2.5566e-08
2.50862e-08
0
2.57562e-08
2.58361e-08
6.03855e-08
2.52275e-08
0
0
0
2.68541e-08
2.5748e-08
6.00877e-08
6.16139e-08
0
2.61358e-08
2.53031e-08
2.45493e-08
6.01245e-08
2.46383e-08
5.94566e-08
2.46095e-08
2.4665e-08
2.56612e-08
2.35167e-06
4.95959e-07
5.53711e-08
0
0
2.43624e-08
5.73147e-08
5.79501e-08
0
2.48323e-08
2.60422e-08
2.54369e-08
2.39401e-08
6.15381e-08
2.46803e-08
2.48327e-08
2.50329e-08
2.68497e-08
0
0
6.14868e-08
3.6786e-08
4.53456e-08
2.36181e-08
2.5284e-08
2.45277e-08
2.45329e-08
2.29415e-08
6.01106e-08
2.52821e-08
2.62966e-08
0
2.54317e-08
0
2.52884e-08
0
2.82365e-08
6.20387e-08
1.79226e-08
0
6.13795e-08
0
2.50579e-08
2.57223e-08
6.03711e-08
2.50679e-08
2.52793e-08
0
0
0
2.57237e-08
2.46915e-08
5.875e-08
1.32813e-08
1.23691e-09
2.47247e-08
2.47104e-08
2.45583e-08
5.90343e-08
5.88107e-08
2.45801e-08
2.53992e-08
5.81418e-08
2.44094e-08
2.51286e-08
2.60925e-08
6.11607e-08
2.3717e-08
0
2.47092e-08
2.46874e-08
2.50308e-08
2.53147e-08
6.09127e-08
2.44914e-08
3.71902e-06
1.70399e-07
5.84463e-08
2.62497e-08
2.50722e-08
5.82403e-08
5.89226e-08
5.67077e-08
2.24681e-08
6.31268e-08
2.48193e-08
2.36996e-08
2.39398e-08
7.10892e-08
8.85185e-08
2.44322e-08
6.01941e-08
6.37553e-08
2.49825e-08
2.40588e-08
5.82886e-08
2.4623e-08
2.58695e-08
0
2.55261e-08
2.4397e-08
2.48968e-08
5.95373e-08
0
2.55925e-08
2.61673e-08
2.42555e-08
2.56984e-08
0
2.5092e-08
2.48206e-08
6.07098e-08
5.60327e-08
3.2252e-08
1.9035e-08
5.90363e-08
2.52168e-08
2.49378e-08
2.60271e-08
2.57677e-08
2.59753e-08
2.60343e-08
2.57034e-08
2.57247e-08
5.96402e-08
6.05751e-08
2.42269e-08
2.4212e-08
2.54178e-08
2.52266e-08
2.44876e-08
2.51942e-08
6.0298e-08
2.40887e-08
2.43588e-08
0
2.57028e-08
2.48074e-08
9.67211e-09
4.07569e-08
2.73437e-08
2.57205e-08
2.4289e-08
2.39757e-08
5.80583e-08
2.47907e-08
2.59007e-08
5.99965e-08
2.41907e-08
2.4438e-08
4.31204e-06
3.94566e-07
6.77928e-08
3.65941e-08
2.48666e-08
5.8414e-08
2.41096e-08
0
0
0
2.66972e-08
6.14762e-08
0
0
0
2.78054e-08
2.7402e-08
2.6446e-08
2.56351e-08
2.50801e-08
2.46088e-08
2.52834e-08
2.53888e-08
2.54396e-08
2.53485e-08
2.5039e-08
2.50557e-08
2.60193e-08
0
2.60839e-08
2.6187e-08
2.6623e-08
6.12509e-08
2.39354e-08
2.42437e-08
5.92268e-08
2.44673e-08
2.44182e-08
6.46267e-08
2.57921e-08
0
3.38641e-08
5.21578e-08
0
5.9347e-08
2.52734e-08
2.46925e-08
6.21931e-08
2.51127e-08
2.45611e-08
2.44911e-08
6.13614e-08
2.50763e-08
0
2.56607e-08
6.14473e-08
3.64273e-08
4.46339e-08
2.49936e-08
2.49389e-08
0
2.50336e-08
2.52151e-08
2.6084e-08
2.69146e-08
2.60278e-08
2.34794e-08
5.80112e-08
2.39042e-08
2.36818e-08
6.35354e-08
2.51199e-08
0
2.50325e-08
2.55542e-08
4.96462e-06
3.74714e-07
4.21328e-08
2.58306e-08
2.55477e-08
2.4999e-08
0
5.75244e-08
5.87383e-08
2.56039e-08
2.57807e-08
0
2.53075e-08
2.44999e-08
6.54269e-08
2.79449e-08
3.08365e-10
2.63245e-08
2.54245e-08
2.48441e-08
2.51532e-08
2.53743e-08
2.54127e-08
2.5279e-08
2.52151e-08
2.38482e-08
6.11465e-08
2.63976e-08
2.56991e-08
2.46966e-08
6.39863e-08
2.52055e-08
2.41338e-08
0
0
0
0
0
2.6134e-08
2.58972e-08
2.47963e-08
2.43778e-08
2.70194e-08
0
0
5.82562e-08
2.44925e-08
2.66391e-08
2.60476e-08
2.49669e-08
0
2.51394e-08
2.45683e-08
3.47805e-08
4.90482e-08
2.49507e-08
2.48633e-08
2.58139e-08
2.5879e-08
2.54711e-08
2.50995e-08
2.51636e-08
2.55979e-08
0
2.52343e-08
6.16726e-08
2.45736e-08
2.51463e-08
5.88601e-08
2.41724e-08
2.58562e-08
0
2.51202e-08
2.60404e-08
0
3.77216e-06
2.66068e-07
1.1418e-08
2.61106e-08
2.51376e-08
2.50305e-08
2.41314e-08
2.40039e-08
0
2.46127e-08
2.58118e-08
2.54498e-08
2.50705e-08
2.60082e-08
0
2.67231e-08
2.72366e-08
2.59077e-08
2.48815e-08
2.55354e-08
0
2.53927e-08
2.53157e-08
0
2.47783e-08
2.38346e-08
2.43593e-08
6.63537e-08
2.60463e-08
2.39425e-08
6.20447e-08
0
0
5.8943e-08
2.47658e-08
2.56307e-08
2.5858e-08
6.1225e-08
2.42155e-08
2.49693e-08
6.03454e-08
2.46005e-08
2.49341e-08
6.02138e-08
3.24813e-08
1.75704e-08
5.87519e-08
5.98224e-08
2.59527e-08
6.34918e-09
4.79067e-08
2.47181e-08
2.42025e-08
0
2.53173e-08
4.70231e-08
3.43775e-08
2.60471e-08
9.58519e-09
4.1416e-08
2.45116e-08
2.58674e-08
0
6.1042e-08
2.58061e-08
2.61332e-08
2.57883e-08
2.51731e-08
2.50421e-08
2.48462e-08
2.52278e-08
2.52428e-08
2.56691e-08
2.71115e-08
0
5.82654e-06
2.87488e-07
5.89016e-08
5.56429e-08
0
5.94321e-08
2.44049e-08
2.42466e-08
5.92426e-08
2.4375e-08
2.53186e-08
6.06744e-08
2.47703e-08
0
2.58643e-08
2.60583e-08
6.38095e-08
2.54167e-08
2.49628e-08
2.53391e-08
2.58258e-08
2.58429e-08
2.51278e-08
2.4171e-08
5.89021e-08
0
0
6.62779e-08
2.55905e-08
2.42247e-08
0
2.61077e-08
2.51694e-08
2.52315e-08
2.4907e-08
6.2082e-08
6.09849e-08
2.39988e-08
0
0
2.51737e-08
6.16131e-08
2.46374e-08
0
2.61073e-08
2.62037e-08
2.45324e-08
0
4.39315e-08
4.00403e-08
0
5.84717e-08
2.37456e-08
5.8171e-08
6.30936e-08
2.48649e-08
9.75074e-09
4.06397e-08
2.68593e-08
6.10709e-09
4.53401e-08
2.54448e-08
0
2.6249e-08
2.61291e-08
2.58227e-08
2.61e-08
0
2.53296e-08
2.50127e-08
2.52924e-08
2.51621e-08
2.53708e-08
2.60182e-08
2.61801e-08
9.56856e-06
3.82543e-07
2.04277e-08
2.51836e-08
5.88468e-08
0
2.39291e-08
2.40407e-08
1.0617e-08
3.54974e-08
2.63733e-08
0
2.46719e-08
0
0
0
0
2.57718e-08
0
0
2.64922e-08
0
2.57383e-08
2.5681e-08
0
2.42982e-08
6.11365e-08
6.32816e-08
2.46222e-08
2.42626e-08
6.37551e-08
2.61262e-08
0
2.45966e-08
2.53988e-08
2.52955e-08
2.556e-08
2.4775e-08
2.42727e-08
5.97103e-08
2.5061e-08
2.49422e-08
2.5164e-08
2.59142e-08
2.71399e-08
2.56793e-08
2.39119e-08
2.4538e-08
2.57079e-08
2.6233e-08
2.57758e-08
2.51045e-08
2.50224e-08
2.49975e-08
6.2227e-08
0
2.45299e-08
2.48547e-08
6.63992e-08
2.50466e-08
2.41257e-08
2.47356e-08
2.58229e-08
2.61583e-08
2.60766e-08
0
2.62037e-08
2.59003e-08
2.55497e-08
2.47949e-08
2.43268e-08
2.46483e-08
2.54207e-08
2.52499e-08
4.07192e-08
3.59346e-06
3.01319e-07
7.10966e-08
2.50199e-08
2.41742e-08
2.40674e-08
5.98809e-08
9.30517e-09
3.72714e-08
0
2.64469e-08
2.52915e-08
5.93468e-08
2.46923e-08
2.7059e-08
0
2.57962e-08
2.46734e-08
6.12535e-08
0
0
2.5723e-08
2.512e-08
2.46457e-08
2.40473e-08
5.69999e-08
6.35827e-08
0
0
2.54571e-08
2.57986e-08
2.50932e-08
2.42628e-08
5.76938e-08
1.07577e-07
2.49951e-08
2.5513e-08
2.46287e-08
2.53464e-08
2.47171e-08
2.48203e-08
0
5.84973e-08
2.51079e-08
6.14772e-08
2.63553e-08
2.52844e-08
2.6543e-08
0
2.561e-08
2.52453e-08
2.54315e-08
2.60277e-08
2.62284e-08
2.58198e-08
2.48703e-08
2.44062e-08
2.53279e-08
4.90256e-09
5.18513e-08
2.50998e-08
2.36558e-08
6.4042e-08
2.62291e-08
0
2.55259e-08
2.55667e-08
2.5408e-08
2.51572e-08
2.507e-08
2.42644e-08
2.50029e-08
2.46056e-08
6.11203e-08
2.45023e-08
5.87286e-06
2.95969e-07
5.25822e-08
6.15289e-08
2.45581e-08
2.45082e-08
2.37335e-08
0
0
2.60757e-08
0
0
0
2.42675e-08
6.32023e-08
2.53437e-08
5.98891e-08
2.33331e-08
2.44297e-08
6.31705e-08
2.55943e-08
2.58692e-08
2.59591e-08
6.05382e-08
2.39845e-08
2.47857e-08
0
2.54704e-08
5.99525e-08
6.01241e-08
2.39659e-08
5.89738e-08
2.49594e-08
0
2.52025e-08
2.52373e-08
2.48217e-08
2.62356e-08
0
2.53284e-08
2.43041e-08
5.88715e-08
2.47418e-08
2.59566e-08
2.58946e-08
2.54415e-08
2.48179e-08
2.6137e-08
7.98847e-09
4.25273e-08
2.4382e-08
2.44286e-08
2.56521e-08
2.66051e-08
2.56077e-08
2.47172e-08
2.41833e-08
2.48938e-08
2.50056e-08
6.48567e-08
2.54317e-08
2.48213e-08
2.67001e-08
2.64175e-08
0
2.56392e-08
2.6054e-08
2.55112e-08
0
2.5048e-08
2.50553e-08
2.50694e-08
2.4865e-08
2.57516e-08
2.50614e-08
5.12907e-06
2.88453e-07
8.8625e-08
2.66074e-08
0
2.45945e-08
3.82696e-08
4.12427e-08
2.52796e-08
2.73333e-08
0
6.00004e-08
2.4716e-08
6.07975e-08
2.45245e-08
2.47831e-08
5.99442e-08
2.36908e-08
2.45319e-08
2.62708e-08
2.64019e-08
6.43469e-08
2.53916e-08
2.43078e-08
2.43298e-08
2.43148e-08
2.48015e-08
6.07941e-08
2.51351e-08
2.50102e-08
2.46119e-08
6.10163e-08
0
2.56764e-08
2.20098e-11
2.53851e-08
2.5422e-08
6.4125e-08
2.51084e-08
2.40923e-08
2.49878e-08
2.79649e-10
2.36394e-08
2.47916e-08
2.69647e-08
6.37292e-08
0
6.28336e-08
0
2.51396e-08
2.4198e-08
4.32198e-08
4.08694e-08
5.26425e-09
4.93865e-08
2.46986e-08
2.45147e-08
2.47379e-08
2.50212e-08
2.5451e-08
2.60753e-08
2.54423e-08
2.54262e-08
2.64103e-08
2.48098e-08
2.67185e-08
0
2.54571e-08
2.53661e-08
2.46892e-08
2.48094e-08
2.52767e-08
2.50816e-08
2.58136e-08
0
4.36331e-06
2.20701e-07
4.1828e-08
2.7453e-08
0
2.51176e-08
2.41843e-08
5.77921e-08
2.4058e-08
2.51972e-08
6.31466e-08
2.45712e-08
2.53515e-08
5.90988e-08
2.4573e-08
2.44999e-08
2.46383e-08
2.46124e-08
2.45961e-08
6.40914e-08
2.60359e-08
2.4985e-08
2.52207e-08
4.09861e-08
4.07377e-08
2.46306e-08
2.44066e-08
6.11672e-08
2.53129e-08
3.27893e-09
1.91296e-08
0
2.53743e-08
6.09908e-08
2.52403e-08
0
2.60745e-08
2.65198e-08
2.54006e-08
0
2.51936e-08
2.4836e-08
3.23224e-08
5.52154e-08
2.77953e-08
1.12644e-08
3.42581e-08
2.57986e-08
2.56899e-08
2.36793e-08
2.48553e-08
6.0492e-08
2.60347e-08
2.59623e-08
2.51938e-08
2.51374e-08
2.5293e-08
2.55106e-08
2.53575e-08
2.49851e-08
2.52496e-08
2.47483e-08
6.38229e-08
2.52362e-08
2.5281e-08
2.74182e-08
0
2.45865e-08
2.40612e-08
2.44171e-08
2.563e-08
2.57288e-08
2.51021e-08
2.55217e-08
0
4.33759e-06
3.00849e-07
4.38647e-08
2.69718e-08
2.61154e-08
0
2.51433e-08
2.4161e-08
2.41657e-08
2.43486e-08
2.56308e-08
2.62671e-08
2.54391e-08
2.43983e-08
2.54308e-08
7.57383e-09
1.18519e-08
6.02118e-08
2.48446e-08
2.57554e-08
4.16102e-08
4.26386e-08
2.52013e-08
2.50612e-08
2.51367e-08
2.55589e-08
2.56433e-08
2.50854e-08
2.56449e-08
2.58174e-08
0
2.51122e-08
0
0
2.59785e-08
2.56027e-08
0
0
2.58445e-08
2.52269e-08
2.46522e-08
2.48341e-08
6.17374e-08
2.65687e-08
0
2.63852e-08
2.5853e-08
2.60884e-08
2.61792e-08
2.5438e-08
2.52229e-08
2.51109e-08
2.48701e-08
2.73665e-08
6.12233e-08
0
2.50557e-08
2.49318e-08
6.14617e-08
2.49931e-08
2.46971e-08
2.46024e-08
6.30156e-08
2.47515e-08
2.47458e-08
2.56011e-08
2.60559e-08
2.52242e-08
2.46985e-08
2.49027e-08
2.50034e-08
2.51248e-08
2.48365e-08
2.50447e-08
2.60485e-08
7.98499e-06
3.83165e-07
8.22901e-08
2.57655e-08
2.57723e-08
2.47053e-08
2.48644e-08
2.50032e-08
2.49969e-08
2.47192e-08
2.55302e-08
2.72403e-08
0
2.45982e-08
0
2.56931e-08
2.65803e-08
2.56328e-08
2.50039e-08
2.79568e-08
3.14002e-08
5.29326e-08
2.51964e-08
2.51746e-08
2.57621e-08
2.57766e-08
2.46211e-08
2.51271e-08
2.67643e-08
0
2.5475e-08
2.44689e-08
2.61221e-08
2.73809e-08
0
2.57858e-08
2.52149e-08
2.53992e-08
2.55402e-08
6.00695e-08
3.19464e-08
1.71137e-08
2.60136e-08
2.66648e-08
2.53859e-08
2.5989e-08
4.78629e-09
1.68506e-08
2.56871e-08
2.55199e-08
2.51852e-08
2.49378e-08
2.59148e-08
2.53903e-08
0
2.64076e-08
2.58942e-08
4.44438e-09
1.74692e-08
0
0
2.55942e-08
6.09479e-08
2.53512e-08
2.47319e-08
2.6066e-08
6.13841e-08
2.46508e-08
2.4809e-08
2.50908e-08
0
2.52486e-08
2.52676e-08
2.52307e-08
0
3.71927e-06
2.12398e-07
8.35648e-08
2.52665e-08
2.55023e-08
2.52893e-08
2.48695e-08
2.50175e-08
2.54326e-08
0
2.4884e-08
2.62663e-08
2.60196e-08
2.49391e-08
2.58679e-08
2.70984e-08
0
2.53892e-08
3.44183e-08
2.36578e-08
1.76082e-08
2.46609e-08
2.59125e-08
2.59509e-08
6.39792e-08
2.53971e-08
2.39154e-08
0
2.64329e-08
0
2.56543e-08
2.48149e-08
2.53109e-08
2.6311e-08
6.37161e-08
2.44339e-08
2.45759e-08
6.04387e-08
2.41709e-08
2.52918e-08
2.45127e-08
2.47003e-08
2.68644e-08
0
2.54599e-08
6.06174e-08
2.47545e-08
2.56583e-08
2.59587e-08
2.5274e-08
2.52149e-08
0
0
2.77097e-08
0
2.56578e-08
2.52231e-08
2.53696e-08
2.57635e-08
2.5311e-08
2.52592e-08
0
0
2.51478e-08
6.15185e-08
2.60324e-08
2.62711e-08
2.51756e-08
2.50191e-08
2.52167e-08
2.55457e-08
2.51957e-08
2.51056e-08
2.48232e-08
2.59198e-08
1.29095e-05
1.9331e-07
4.29178e-08
2.48827e-08
2.54738e-08
2.54279e-08
2.52797e-08
2.52595e-08
2.57948e-08
0
2.55237e-08
2.56428e-08
2.55905e-08
2.52458e-08
2.61054e-08
2.67826e-08
2.55316e-08
2.46215e-08
2.44735e-08
2.46794e-08
2.4741e-08
2.46417e-08
2.72143e-08
7.76368e-09
1.23412e-08
2.58599e-08
2.49762e-08
2.60257e-08
0
2.59644e-08
2.57429e-08
2.543e-08
2.50696e-08
6.54175e-08
2.55385e-08
2.42013e-08
2.43259e-08
2.45914e-08
2.48014e-08
2.56869e-08
2.4868e-08
2.46646e-08
6.26902e-08
2.49966e-08
2.52344e-08
6.15326e-08
2.41609e-08
6.29398e-08
2.50179e-08
2.39197e-08
2.4375e-08
2.48057e-08
2.63499e-08
1.46035e-08
1.69951e-09
2.57109e-08
0
2.51296e-08
2.50836e-08
2.58531e-08
2.59349e-08
2.55108e-08
4.77407e-08
2.52729e-08
0
6.41978e-08
2.56168e-08
2.46271e-08
2.52372e-08
2.53475e-08
1.09324e-08
3.58814e-08
2.52273e-08
2.52278e-08
2.48174e-08
2.36054e-06
2.21514e-07
1.93881e-08
2.4361e-08
2.55633e-08
2.57221e-08
2.56834e-08
2.53913e-08
2.54714e-08
2.53827e-08
2.57345e-08
0
2.54818e-08
2.5413e-08
2.56751e-08
2.52284e-08
6.14569e-08
2.41896e-08
2.46502e-08
2.50359e-08
2.50551e-08
2.55216e-08
2.73888e-08
0
2.59814e-08
2.6033e-08
0
2.54076e-08
2.5574e-08
2.57164e-08
2.57206e-08
2.56075e-08
2.55331e-08
2.61928e-08
2.6227e-08
2.54988e-08
2.4679e-08
2.43678e-08
6.46416e-08
2.61318e-08
2.46374e-08
2.47454e-08
2.44893e-08
2.44823e-08
6.3762e-08
2.5158e-08
5.98941e-08
2.4536e-08
6.13563e-08
2.43272e-08
2.42582e-08
2.4894e-08
2.54921e-08
2.59031e-08
2.5906e-08
0
5.81403e-08
2.50609e-08
2.48716e-08
6.20032e-08
4.09492e-08
4.12826e-08
3.22647e-08
0
2.5102e-08
2.67928e-08
0
5.99208e-08
2.40173e-08
5.98567e-08
2.43622e-08
2.48431e-08
6.05924e-08
2.50176e-08
2.47982e-08
1.25851e-05
1.55078e-07
1.86868e-08
2.57137e-08
2.59326e-08
2.62421e-08
2.60296e-08
2.56038e-08
2.5342e-08
2.53064e-08
2.51913e-08
2.552e-08
2.49383e-08
2.4905e-08
2.52808e-08
2.4998e-08
6.02465e-08
2.53377e-08
2.49958e-08
2.49779e-08
2.48581e-08
2.5486e-08
2.6083e-08
2.66595e-08
0
2.56305e-08
2.57379e-08
2.5638e-08
2.58984e-08
2.62342e-08
2.58382e-08
2.54214e-08
2.56548e-08
0
2.60016e-08
2.53817e-08
2.47624e-08
2.56183e-08
2.58996e-08
2.59925e-08
2.55192e-08
2.54121e-08
2.52436e-08
2.54515e-08
2.61558e-08
2.61952e-08
2.58345e-08
2.55504e-08
2.54081e-08
2.54882e-08
2.55651e-08
2.48085e-08
6.07248e-08
5.88885e-08
5.78017e-08
5.80474e-08
5.8158e-08
5.739e-08
2.56751e-08
2.74105e-08
0
2.44666e-08
2.42845e-08
2.47344e-08
2.5676e-08
0
2.54789e-08
2.54949e-08
5.97817e-08
2.40121e-08
5.92563e-08
2.45781e-08
6.00163e-08
3.78533e-08
4.44719e-08
5.90473e-06
1.46357e-07
4.29915e-08
2.4408e-08
2.52661e-08
2.72668e-08
2.65656e-08
2.48151e-08
2.49803e-08
2.44515e-08
2.39297e-08
6.00228e-08
2.45391e-08
2.48062e-08
2.50419e-08
4.22665e-08
4.01745e-08
2.50537e-08
2.48592e-08
2.50131e-08
2.50814e-08
2.53981e-08
2.5471e-08
2.55859e-08
2.57066e-08
2.5739e-08
2.56417e-08
2.59479e-08
2.55386e-08
2.61669e-08
2.58961e-08
2.54728e-08
0
2.56628e-08
2.5753e-08
2.49041e-08
2.56498e-08
2.53158e-08
2.54856e-08
0
2.56645e-08
2.53603e-08
2.56868e-08
0
0
2.60824e-08
0
2.66694e-08
0
2.58229e-08
2.66106e-08
0
0
2.55421e-08
0
0
2.53284e-08
2.55776e-08
0
0
2.65049e-08
5.89918e-08
2.36524e-08
0
2.43798e-08
6.13048e-08
0
0
2.48134e-08
5.78566e-08
2.43879e-08
5.96114e-08
6.06462e-08
6.0864e-08
2.47435e-08
5.09719e-06
5.96656e-07
7.61496e-08
2.38317e-08
2.47671e-08
2.51703e-08
2.61125e-08
0
5.80947e-08
5.76291e-08
0
2.51717e-08
4.64901e-08
3.42958e-08
2.47386e-08
2.55622e-08
0
2.55992e-08
2.54347e-08
2.52213e-08
2.5176e-08
6.10815e-08
2.48251e-08
2.50097e-08
2.50684e-08
2.51497e-08
2.62197e-08
2.59269e-08
2.48511e-08
6.4249e-08
0
6.09557e-08
2.38186e-08
2.50307e-08
2.52403e-08
2.44549e-08
2.52381e-08
2.53936e-08
2.56825e-08
2.58007e-08
2.41364e-08
2.50833e-08
3.2265e-08
5.08231e-08
6.00948e-08
0
5.96864e-08
0
2.52573e-08
2.61202e-08
0
2.58335e-08
0
2.55214e-08
2.55666e-08
5.96503e-08
2.50573e-08
2.57205e-08
2.77606e-08
2.54302e-10
2.56179e-08
2.50761e-08
2.41002e-08
5.86438e-08
1.00654e-07
2.37692e-08
5.83067e-08
1.00805e-07
5.87833e-08
2.37885e-08
2.43505e-08
6.24092e-08
2.44474e-08
5.8649e-08
6.34447e-08
5.13042e-06
3.88978e-07
4.32696e-08
5.83728e-08
6.00274e-08
2.51592e-08
6.04618e-08
2.54355e-08
2.54996e-08
0
2.54238e-08
2.51523e-08
2.54125e-08
2.5773e-08
6.11495e-08
2.57849e-08
0
2.52636e-08
2.57401e-08
2.57887e-08
0
2.54126e-08
2.53871e-08
6.15998e-08
2.41694e-08
2.4525e-08
6.48909e-08
2.56545e-08
2.43784e-08
2.56144e-08
2.5357e-08
2.54291e-08
2.53249e-08
2.47759e-08
2.49086e-08
2.51647e-08
2.54563e-08
2.56233e-08
2.51239e-08
6.089e-08
2.46997e-08
3.47548e-08
1.59774e-08
2.55311e-08
2.56969e-08
2.45613e-08
2.53971e-08
0
2.51965e-08
2.55348e-08
0
2.57404e-08
2.57783e-08
2.53574e-08
5.9558e-08
2.4956e-08
2.47312e-08
0
2.57336e-08
6.02164e-08
5.85512e-08
2.41729e-08
2.44428e-08
2.5231e-08
2.55954e-08
2.5264e-08
5.93408e-08
2.4405e-08
2.55697e-08
2.61498e-08
0
2.54763e-08
2.54821e-08
6.43737e-08
2.60283e-08
7.9396e-06
6.27873e-08
0
2.50723e-08
2.56397e-08
2.56849e-08
0
4.02797e-08
1.03765e-08
0
2.56928e-08
6.07957e-08
2.44031e-08
2.50965e-08
2.49676e-08
2.48145e-08
2.54921e-08
2.56631e-08
2.53397e-08
2.54067e-08
2.52285e-08
2.44741e-08
2.51388e-08
2.53062e-08
2.51201e-08
2.52644e-08
2.63305e-08
5.14667e-08
2.24187e-08
3.63739e-09
6.07927e-08
2.43334e-08
2.48652e-08
2.58418e-08
2.36746e-08
0
2.53022e-08
6.17296e-08
2.53313e-08
0
2.45895e-08
2.60449e-08
0
2.57984e-08
2.57008e-08
2.96426e-08
2.01155e-08
6.06934e-08
2.50183e-08
0
1.06471e-07
5.91793e-08
2.4697e-08
5.91493e-08
2.44256e-08
2.50254e-08
0
6.05552e-08
6.12109e-08
2.45128e-08
2.4607e-08
2.48768e-08
2.5765e-08
2.57274e-08
0
2.48449e-08
2.53893e-08
0
0
0
0
0
0
0
2.71167e-08
5.8576e-06
2.10046e-07
8.03467e-08
0
0
0
2.57451e-08
0
6.0567e-08
2.44385e-08
5.90002e-08
2.41484e-08
2.45586e-08
2.51737e-08
2.5238e-08
2.54152e-08
2.56823e-08
2.57941e-08
2.48107e-08
2.4917e-08
2.475e-08
2.46003e-08
2.4564e-08
6.17879e-08
2.51326e-08
2.53677e-08
2.57728e-08
2.54129e-08
2.55426e-08
2.61754e-08
3.98434e-09
1.78282e-08
6.02741e-08
2.47421e-08
2.53723e-08
2.54224e-08
2.54174e-08
2.55594e-08
2.5493e-08
2.54335e-08
2.52866e-08
2.56234e-08
2.59207e-08
2.61378e-08
0
2.59789e-08
2.54424e-08
5.99842e-08
2.38016e-08
6.3013e-08
2.59546e-08
2.36232e-08
6.1299e-08
2.4436e-08
0
2.51022e-08
2.58132e-08
2.57449e-08
2.56184e-08
3.80205e-08
4.55341e-08
2.47402e-08
2.51392e-08
2.49789e-08
2.51098e-08
2.53035e-08
2.60301e-08
2.51159e-08
2.49377e-08
2.52231e-08
2.56788e-08
2.62949e-08
0
2.67755e-08
0
5.08546e-06
1.54499e-07
1.19744e-07
5.89329e-08
2.46317e-08
2.52623e-08
2.56521e-08
6.04131e-08
2.42632e-08
5.84194e-08
2.45908e-08
2.44964e-08
2.4505e-08
2.5048e-08
2.52228e-08
3.33631e-08
3.12953e-08
2.72449e-08
4.06103e-08
2.39393e-08
2.41359e-08
2.43516e-08
2.43961e-08
3.74178e-08
1.42585e-08
2.55893e-08
2.54825e-08
2.54506e-08
2.57557e-08
2.50389e-08
2.54603e-08
2.54382e-08
2.5389e-08
2.47013e-08
0
2.57343e-08
2.56715e-08
2.56698e-08
2.55635e-08
2.58153e-08
2.51472e-08
2.48658e-08
2.51458e-08
2.589e-08
2.59687e-08
3.62842e-08
4.84162e-08
2.4881e-08
2.57539e-08
0
2.45618e-08
2.69186e-08
2.5185e-08
4.22984e-08
3.70764e-08
0
2.6189e-08
2.50798e-08
2.48827e-08
6.08923e-08
2.46299e-08
2.53852e-08
2.54641e-08
2.6082e-08
2.57229e-08
2.59337e-08
2.59599e-08
2.52153e-08
2.41051e-08
5.81558e-08
2.42028e-08
2.36103e-08
2.47973e-08
6.54861e-08
2.98771e-09
3.36092e-06
1.59107e-07
1.92969e-08
2.34649e-08
5.86962e-08
6.31023e-08
2.48184e-08
2.46908e-08
2.41556e-08
2.45804e-08
2.50404e-08
2.52154e-08
2.53494e-08
2.52765e-08
2.52173e-08
2.48809e-08
6.40255e-08
2.47488e-08
5.83575e-08
2.38557e-08
2.41161e-08
2.41547e-08
1.32771e-08
3.53977e-08
0
2.55532e-08
2.51067e-08
0
6.03497e-08
2.56482e-08
2.54562e-08
2.52787e-08
2.51067e-08
2.56622e-08
2.62258e-08
2.54986e-08
2.47586e-08
2.49095e-08
2.53422e-08
2.54311e-08
2.50764e-08
0
6.457e-08
2.56281e-08
2.44817e-08
2.46771e-08
2.51046e-08
0
0
2.59968e-08
0
2.63674e-08
2.64451e-08
0
2.51187e-08
6.56125e-08
2.61485e-08
0
2.50029e-08
2.50502e-08
2.50719e-08
0
0
2.5289e-08
2.73347e-08
0
0
0
0
2.46153e-08
5.86278e-08
5.8919e-08
0
6.52284e-08
6.34312e-08
9.30213e-06
1.54174e-07
6.9946e-08
2.50599e-08
2.36224e-08
6.06256e-08
2.56446e-08
5.92315e-08
2.39871e-08
2.5372e-08
2.49958e-08
2.51894e-08
2.5271e-08
2.54005e-08
2.52783e-08
2.53436e-08
2.56933e-08
6.23952e-08
2.51424e-08
2.41823e-08
5.99723e-08
2.49827e-08
0
2.5973e-08
2.64419e-08
0
2.4367e-08
5.81307e-08
2.45775e-08
2.70436e-08
0
2.56269e-08
0
2.63591e-08
2.5321e-08
2.50605e-08
6.13401e-08
2.45334e-08
6.13582e-08
2.43294e-08
2.42075e-08
2.48412e-08
2.57643e-08
2.60139e-08
2.55211e-08
2.50948e-08
2.4831e-08
2.54299e-08
0
2.5654e-08
2.58544e-08
0
2.58442e-08
6.0142e-08
2.59394e-08
2.5279e-08
0
6.00101e-08
2.52232e-08
2.52186e-08
2.55e-08
2.53505e-08
2.52496e-08
0
0
2.83779e-08
0
6.22732e-08
2.40879e-08
0
0
2.44287e-08
6.21199e-08
0
2.51936e-08
6.80825e-06
1.52141e-07
6.72465e-08
0
2.4846e-08
2.51849e-08
2.51846e-08
5.99591e-08
2.39211e-08
2.44558e-08
2.48085e-08
2.51025e-08
2.52165e-08
2.51786e-08
2.54062e-08
2.52418e-08
2.54688e-08
2.56518e-08
2.56924e-08
2.55156e-08
2.5357e-08
2.48973e-08
2.51838e-08
2.57789e-08
2.63195e-08
0
2.55075e-08
2.51823e-08
2.52917e-08
2.63686e-08
0
2.544e-08
2.62796e-08
2.68228e-08
6.10054e-08
6.08761e-08
0
2.47815e-08
6.16166e-08
2.4776e-08
2.43062e-08
2.53394e-08
2.55754e-08
2.57477e-08
2.54618e-08
6.06886e-08
2.44651e-08
2.50783e-08
2.49284e-08
2.56867e-08
2.43869e-08
5.99833e-08
5.95242e-08
2.46553e-08
2.52455e-08
2.57023e-08
6.04409e-08
2.51609e-08
2.51815e-08
0
2.49146e-08
2.49984e-08
2.45522e-08
2.43394e-08
2.44812e-08
6.73196e-08
2.65337e-08
2.40978e-08
2.41629e-08
2.54344e-08
0
2.55859e-08
2.56822e-08
6.06794e-08
2.38866e-08
9.26936e-06
2.93953e-07
1.90193e-08
2.45558e-08
2.50924e-08
2.49691e-08
5.99146e-08
2.33255e-08
2.41293e-08
2.46467e-08
2.5083e-08
2.5377e-08
2.51811e-08
2.55357e-08
0
2.5297e-08
0
2.53662e-08
2.59857e-08
2.57005e-08
2.5657e-08
2.52135e-08
2.54427e-08
2.55089e-08
2.577e-08
2.56525e-08
2.51683e-08
2.53859e-08
0
2.54528e-08
2.42003e-08
2.365e-08
6.35075e-08
2.73138e-08
0
2.42782e-08
2.50377e-08
2.58633e-08
2.60734e-08
2.51951e-08
2.52223e-08
6.162e-08
2.46778e-08
2.49462e-08
2.49086e-08
2.47503e-08
2.49045e-08
2.51397e-08
2.57712e-08
6.10171e-08
2.49704e-08
2.52054e-08
2.49546e-08
2.50001e-08
2.63515e-08
2.68389e-08
2.52777e-08
2.54755e-08
0
0
2.58153e-08
2.56066e-08
2.4339e-08
2.4055e-08
2.48497e-08
2.67882e-08
2.75908e-08
2.61068e-08
2.50236e-08
2.54493e-08
0
5.92553e-08
5.9895e-08
2.49472e-08
2.62311e-08
2.7716e-06
2.18851e-07
2.18623e-08
2.51054e-08
2.51526e-08
2.48867e-08
5.94023e-08
2.43791e-08
0
2.48829e-08
2.52698e-08
2.59309e-08
0
2.55627e-08
4.96265e-09
4.69648e-08
2.5229e-08
2.52871e-08
2.58166e-08
2.57001e-08
2.55145e-08
2.5399e-08
2.53378e-08
2.5357e-08
2.53905e-08
2.53757e-08
2.52875e-08
2.51022e-08
2.51142e-08
6.11841e-08
2.40614e-08
2.42224e-08
2.48318e-08
6.48738e-08
2.48105e-08
2.44397e-08
2.72193e-08
0
2.59526e-08
2.51468e-08
6.04916e-08
2.51748e-08
2.57317e-08
3.68277e-08
4.47455e-08
2.41917e-08
0
6.2037e-08
2.69021e-08
2.65394e-08
2.44688e-08
2.51288e-08
2.50681e-08
2.45706e-08
6.52548e-08
1.36975e-08
4.21617e-09
2.24332e-08
0
2.52611e-08
2.53141e-08
3.50652e-08
4.73552e-08
2.46498e-08
2.66118e-08
2.86411e-08
5.26969e-09
1.70232e-08
0
5.88789e-08
5.91487e-08
2.46623e-08
2.43507e-08
2.50199e-08
2.5312e-08
1.47838e-05
1.63722e-07
2.36007e-08
2.48891e-08
5.93473e-08
5.94322e-08
2.46252e-08
0
2.46949e-08
6.0093e-08
2.41971e-08
2.60104e-08
0
2.53348e-08
0
2.49633e-08
2.40494e-08
2.43411e-08
2.53487e-08
2.61986e-08
2.55561e-08
2.5235e-08
2.54229e-08
2.54784e-08
2.55927e-08
0
0
2.54183e-08
2.52465e-08
6.06328e-08
2.43453e-08
2.4914e-08
2.51608e-08
2.61936e-08
2.55787e-08
2.54949e-08
2.81058e-08
2.66914e-08
2.60312e-08
2.53457e-08
2.45539e-08
6.23414e-08
2.50528e-08
2.42023e-08
2.40602e-08
2.41258e-08
2.41113e-08
6.44212e-08
2.82742e-08
0
2.54131e-08
2.50532e-08
2.51637e-08
2.49379e-08
4.89178e-08
3.65159e-08
0
2.53291e-08
2.50261e-08
2.48714e-08
2.51295e-08
2.49154e-08
2.4232e-08
2.49808e-08
2.56893e-08
2.71252e-08
2.71032e-08
2.59139e-08
0
2.50355e-08
5.92859e-08
2.46474e-08
6.10247e-08
2.4383e-08
2.48567e-08
1.08192e-05
1.06806e-07
2.41973e-08
2.49175e-08
2.56091e-08
2.57041e-08
0
2.5481e-08
0
2.3924e-08
2.48355e-08
2.77831e-08
0
2.43237e-08
2.49343e-08
6.03781e-08
2.38905e-08
2.33525e-08
6.2678e-08
2.53346e-08
2.4412e-08
2.50906e-08
2.50818e-08
2.52697e-08
2.52136e-08
4.20653e-08
8.62875e-09
5.923e-08
2.47656e-08
2.50784e-08
2.52061e-08
2.52604e-08
0
2.55395e-08
5.94295e-08
2.48496e-08
2.55835e-08
2.51699e-08
6.59362e-08
2.62563e-08
0
2.47576e-08
2.5307e-08
2.517e-08
2.5077e-08
2.51069e-08
2.53202e-08
2.60157e-08
2.66781e-08
2.63505e-08
2.56361e-08
2.55647e-08
2.57038e-08
2.56507e-08
2.58086e-08
2.62425e-08
2.57665e-08
2.55009e-08
2.51764e-08
2.51074e-08
2.52107e-08
0
2.48007e-08
5.92627e-08
2.47188e-08
6.32521e-08
2.6516e-08
0
2.54992e-08
2.45734e-08
2.4878e-08
2.54047e-08
2.50964e-08
2.51059e-08
2.50597e-08
7.92889e-06
1.23946e-07
5.8652e-08
2.48921e-08
0
2.53881e-08
5.93424e-08
5.88218e-08
2.3927e-08
2.38191e-08
2.44239e-08
2.66958e-08
0
2.57731e-08
2.53907e-08
2.51772e-08
2.4967e-08
6.0855e-08
2.55983e-08
2.53054e-08
2.52393e-08
2.44592e-08
2.48643e-08
6.06483e-08
2.41161e-08
2.45719e-08
2.44744e-08
2.49375e-08
2.52787e-08
2.54417e-08
2.54008e-08
2.52206e-08
0
2.54609e-08
0
6.03492e-08
2.51332e-08
2.52786e-08
6.58977e-08
2.66307e-08
2.38122e-08
2.49664e-08
2.45183e-08
2.51656e-08
2.50868e-08
2.52163e-08
2.55334e-08
2.58791e-08
2.60531e-08
2.59747e-08
2.56522e-08
2.55755e-08
2.54519e-08
2.53271e-08
2.55145e-08
2.58772e-08
2.59251e-08
2.55677e-08
2.54432e-08
2.51527e-08
2.5673e-08
0
5.77339e-08
0
2.44959e-08
6.45979e-08
2.70344e-08
0
2.43852e-08
5.86477e-08
2.45247e-08
0
0
0
0
3.83511e-06
2.3319e-07
5.98745e-08
2.43171e-08
2.52822e-08
2.53384e-08
2.52365e-08
2.4955e-08
2.38406e-08
5.72102e-08
2.36801e-08
2.47852e-08
2.59807e-08
6.17421e-08
0
2.5128e-08
2.52044e-08
2.58751e-08
1.2007e-08
3.07487e-09
2.56947e-08
2.59763e-08
2.56328e-08
2.55005e-08
2.52135e-08
2.50227e-08
2.49929e-08
2.54543e-08
4.32405e-08
3.82611e-08
2.4838e-08
2.52456e-08
0
2.55586e-08
5.97586e-08
2.45585e-08
6.0001e-08
2.52036e-08
0
2.66633e-08
0
5.95403e-08
0
2.44315e-08
2.51834e-08
2.53284e-08
2.58864e-08
2.61221e-08
2.62734e-08
2.59608e-08
2.58281e-08
2.58606e-08
2.57121e-08
2.51791e-08
2.53914e-08
2.56387e-08
2.60637e-08
2.55744e-08
2.52128e-08
2.51339e-08
2.51597e-08
2.52973e-08
0
5.963e-08
0
6.21538e-08
2.70678e-08
2.64514e-08
2.53012e-08
2.52206e-08
2.4856e-08
2.4816e-08
2.55956e-08
2.60562e-08
2.59832e-08
1.26173e-05
3.02563e-07
4.71454e-08
0
2.59443e-08
2.6146e-08
2.56245e-08
2.47508e-08
2.43026e-08
6.01362e-08
2.35754e-08
6.1892e-08
2.42712e-08
2.54108e-08
2.57982e-08
2.61584e-08
0
2.54556e-08
2.54757e-08
2.58032e-08
2.61155e-08
0
2.54146e-08
2.56889e-08
2.5531e-08
2.53961e-08
2.54315e-08
2.53044e-08
2.4934e-08
6.02047e-08
2.47182e-08
2.46632e-08
2.50618e-08
6.97305e-08
4.92882e-08
2.45209e-08
2.55529e-08
0
6.23282e-08
2.58777e-08
0
2.53607e-08
2.42569e-08
2.5326e-08
0
2.5632e-08
2.61838e-08
0
2.5848e-08
2.61237e-08
2.60097e-08
2.59291e-08
2.53834e-08
2.40653e-08
2.41702e-08
2.58193e-08
6.30154e-08
2.48613e-08
2.45788e-08
2.48508e-08
2.50301e-08
2.60215e-08
0
2.56172e-08
0
2.59155e-08
2.58104e-08
6.29844e-08
0
0
2.44872e-08
5.97722e-08
2.4148e-08
6.29747e-08
2.55736e-08
3.80441e-06
2.91441e-07
2.1902e-08
2.67242e-08
0
0
0
2.51233e-08
6.00257e-08
2.53488e-08
2.46261e-08
6.02429e-08
2.48635e-08
2.46117e-08
2.48864e-08
2.60571e-08
0
2.52046e-08
2.59226e-08
2.64533e-08
0
2.55122e-08
2.58175e-08
2.58526e-08
2.56772e-08
2.54667e-08
2.53761e-08
2.48603e-08
6.05721e-08
2.42049e-08
2.45742e-08
2.44987e-08
1.04326e-07
7.90093e-09
4.13935e-08
0
2.43391e-08
2.65515e-08
2.63848e-08
0
2.56382e-08
2.57132e-08
2.60925e-08
0
2.58927e-08
0
2.60953e-08
2.59963e-08
2.58721e-08
2.61417e-08
2.61609e-08
0
2.53168e-08
5.96099e-08
2.49691e-08
6.59574e-08
2.61619e-08
2.41608e-08
2.45559e-08
2.49042e-08
2.5449e-08
2.60725e-08
2.5411e-08
2.55459e-08
0
2.57646e-08
2.60898e-08
2.60657e-08
2.53681e-08
2.49997e-08
0
2.52369e-08
2.53755e-08
2.5663e-08
2.51968e-08
8.14811e-06
8.52398e-08
0
2.76172e-08
2.59174e-08
6.01063e-08
2.41184e-08
0
0
6.02471e-08
2.42194e-08
2.47389e-08
2.49614e-08
2.52611e-08
2.57927e-08
0
2.53447e-08
2.53292e-08
2.62481e-08
7.81146e-09
1.15142e-08
2.57214e-08
2.59357e-08
0
2.57997e-08
2.5319e-08
2.54307e-08
6.10212e-08
2.45977e-08
2.47057e-08
2.50186e-08
2.46816e-08
2.49528e-08
5.97705e-08
2.52073e-08
3.27831e-08
4.92157e-08
2.6871e-08
0
2.56021e-08
2.5986e-08
0
2.58263e-08
2.56098e-08
2.62736e-08
0
2.56117e-08
2.61326e-08
2.63933e-08
2.58692e-08
2.5517e-08
2.53964e-08
2.53308e-08
2.55206e-08
2.61714e-08
2.75602e-08
8.52514e-09