/*--------------------------------*- C++ -*----------------------------------*\
  =========                 |
  \\      /  F ield         | OpenFOAM: The Open Source CFD Toolbox
   \\    /   O peration     | Website:  https://openfoam.org
    \\  /    A nd           | Version:  12
     \\/     M anipulation  |
\*---------------------------------------------------------------------------*/
FoamFile
{
    format      ascii;
    class       volVectorField::Internal;
    location    "0.6";
    object      cloud:UTrans;
}
// * * * * * * * * * * * * * * * * * * * * * * * * * * * * * * * * * * * * * //

dimensions      [1 1 -1 0 0 0 0];

value           nonuniform List<vector> 
3750
(
(6.95577e-09 3.4568e-08 0)
(8.8412e-10 5.66069e-10 0)
(1.02491e-11 -1.91101e-10 0)
(-4.04031e-11 -1.01579e-09 0)
(0 0 0)
(-4.13469e-12 -1.00934e-09 0)
(3.90622e-12 -8.73258e-10 0)
(2.06149e-12 -9.1691e-10 0)
(-1.66775e-11 -8.55738e-10 0)
(-2.00759e-11 -9.05634e-10 0)
(-2.49385e-11 -8.38719e-10 0)
(1.96153e-11 -2.07171e-09 0)
(-1.16159e-11 -8.31567e-10 0)
(-2.03229e-12 -9.46549e-10 0)
(5.85138e-12 -9.20515e-10 0)
(1.13325e-11 -1.03762e-09 0)
(0 0 0)
(-1.88904e-11 -2.14196e-09 0)
(-3.60702e-11 -8.31804e-10 0)
(-2.81555e-11 -8.9907e-10 0)
(-9.5336e-11 -2.1706e-09 0)
(3.79855e-11 -1.93192e-09 0)
(4.29198e-11 -7.0389e-10 0)
(0 0 0)
(-1.29461e-11 -8.28462e-10 0)
(-6.51832e-12 -8.86002e-10 0)
(1.63765e-11 -8.42568e-10 0)
(6.64478e-12 -7.02325e-10 0)
(4.77638e-11 -2.0143e-09 0)
(-3.14282e-12 -7.44377e-10 0)
(1.55534e-12 -9.61763e-10 0)
(0 0 0)
(0 0 0)
(1.39065e-11 -9.68778e-10 0)
(4.21399e-11 -9.809e-10 0)
(3.42087e-11 -2.11924e-09 0)
(-2.48456e-11 -7.62211e-10 0)
(0 0 0)
(0 0 0)
(4.70555e-12 -8.86757e-10 0)
(-6.07699e-11 -1.01759e-09 0)
(0 0 0)
(-4.14747e-11 -8.9463e-10 0)
(-7.91366e-11 -3.15658e-09 0)
(-3.94513e-11 -7.6309e-10 0)
(-6.80148e-11 -9.77903e-10 0)
(-7.62722e-11 -9.92158e-10 0)
(-7.57719e-11 -9.8306e-10 0)
(-7.04991e-11 -9.56715e-10 0)
(-4.29901e-11 -9.55256e-10 0)
(-8.9235e-12 -9.63586e-10 0)
(-4.80587e-11 -1.97437e-09 0)
(-4.81967e-11 -8.64902e-10 0)
(2.93535e-11 -1.88043e-09 0)
(2.03277e-11 -9.39776e-10 0)
(-3.75143e-11 -1.20701e-09 0)
(-4.58389e-11 -1.57418e-09 0)
(-1.50646e-11 -8.63886e-10 0)
(-4.19223e-11 -8.73931e-10 0)
(-8.32552e-11 -9.15994e-10 0)
(-1.82953e-10 -2.6014e-09 0)
(7.22152e-11 -1.02565e-09 0)
(2.40737e-11 -8.21213e-10 0)
(4.99723e-11 -1.33214e-09 0)
(-6.7823e-14 -5.42887e-11 0)
(0 0 0)
(-6.68794e-12 -9.72585e-10 0)
(-1.34402e-11 -9.45112e-10 0)
(1.80083e-11 -1.84587e-09 0)
(2.58116e-11 -8.68609e-10 0)
(2.69357e-12 -8.72922e-10 0)
(5.90062e-12 -1.9486e-09 0)
(-1.92245e-12 -7.00062e-10 0)
(5.3841e-11 -9.86627e-10 0)
(1.76133e-12 -1.02132e-09 0)
(6.02276e-08 2.5591e-08 0)
(1.80035e-09 -1.46658e-09 0)
(1.86063e-11 -1.13061e-10 0)
(-6.26919e-11 -1.0946e-09 0)
(0 0 0)
(9.05886e-12 -8.38955e-10 0)
(7.47171e-11 -1.91734e-09 0)
(0 0 0)
(2.17981e-11 -8.35959e-10 0)
(1.4699e-11 -2.11413e-09 0)
(-9.35964e-11 -2.03615e-09 0)
(-5.56888e-11 -1.38435e-09 0)
(-7.06361e-12 -4.45201e-10 0)
(0 0 0)
(0 0 0)
(0 0 0)
(8.90384e-12 -9.75533e-10 0)
(0 0 0)
(-1.00145e-11 -9.54929e-10 0)
(-7.44551e-11 -1.03449e-09 0)
(-1.05971e-10 -1.03267e-09 0)
(1.04505e-10 -2.2825e-09 0)
(1.12118e-10 -1.98654e-09 0)
(0 0 0)
(0 0 0)
(1.59272e-11 -9.74035e-10 0)
(3.02461e-12 -1.18344e-09 0)
(1.09867e-12 -6.01007e-10 0)
(0 0 0)
(1.70698e-12 -9.19187e-10 0)
(2.93399e-11 -9.65763e-10 0)
(0 0 0)
(0 0 0)
(2.20276e-11 -2.03159e-09 0)
(-2.71491e-12 -9.20571e-10 0)
(1.88228e-11 -2.10287e-09 0)
(2.9558e-11 -8.1264e-10 0)
(0 0 0)
(0 0 0)
(1.47623e-11 -9.73939e-10 0)
(0 0 0)
(5.03307e-12 -9.67908e-10 0)
(8.55413e-11 -3.34828e-09 0)
(-2.00234e-12 -8.13495e-10 0)
(-1.14012e-11 -9.68155e-10 0)
(0 0 0)
(0 0 0)
(0 0 0)
(-5.59665e-11 -1.00213e-09 0)
(-7.31628e-11 -1.00076e-09 0)
(0 0 0)
(-3.22191e-11 -9.63973e-10 0)
(-7.33972e-12 -9.18272e-10 0)
(0 0 0)
(-8.43303e-12 -9.83083e-10 0)
(-1.82918e-11 -9.90827e-10 0)
(5.75373e-12 -2.09993e-09 0)
(1.63874e-11 -9.31657e-10 0)
(0 0 0)
(0 0 0)
(0 0 0)
(1.15227e-11 -1.09381e-09 0)
(3.46502e-11 -9.81706e-10 0)
(1.09172e-10 -2.06218e-09 0)
(1.09144e-10 -2.21857e-09 0)
(0 0 0)
(-7.81822e-11 -1.01778e-09 0)
(-4.4656e-11 -9.37993e-10 0)
(-4.21592e-11 -8.66845e-10 0)
(6.48971e-11 -2.07009e-09 0)
(-4.36581e-11 -8.75045e-10 0)
(2.94662e-11 -2.00501e-09 0)
(-8.55455e-12 -8.73415e-10 0)
(4.01358e-11 -8.77704e-10 0)
(9.8151e-12 -9.73756e-10 0)
(1.80153e-09 2.25083e-08 0)
(2.17006e-09 -8.96178e-10 0)
(5.42757e-10 -1.55514e-09 0)
(0 0 0)
(0 0 0)
(-8.34032e-12 -8.50588e-10 0)
(9.66212e-11 -1.79781e-09 0)
(-5.98584e-12 -1.85977e-09 0)
(0 0 0)
(-2.62479e-11 -8.939e-10 0)
(-8.76826e-11 -1.00761e-09 0)
(-2.67556e-11 -9.51589e-10 0)
(4.93667e-11 -8.10769e-10 0)
(9.49749e-11 -2.21207e-09 0)
(3.39441e-11 -8.79398e-10 0)
(2.39971e-11 -8.93999e-10 0)
(6.60548e-11 -9.10843e-10 0)
(1.61588e-11 -1.09331e-09 0)
(0 0 0)
(0 0 0)
(-1.51068e-10 -2.20324e-09 0)
(-1.53437e-11 -1.2654e-09 0)
(9.2976e-11 -1.50704e-09 0)
(3.43951e-11 -8.65066e-10 0)
(1.90921e-11 -9.37022e-10 0)
(2.70305e-11 -8.65441e-10 0)
(4.3589e-12 -8.66342e-10 0)
(-6.23572e-12 -7.2488e-10 0)
(9.17914e-11 -2.0672e-09 0)
(2.32668e-11 -9.36747e-10 0)
(-6.99128e-12 -1.03693e-09 0)
(0 0 0)
(4.18008e-11 -9.50548e-10 0)
(0 0 0)
(1.2567e-11 -9.37559e-10 0)
(0 0 0)
(1.84212e-11 -9.55562e-10 0)
(4.70893e-11 -2.10414e-09 0)
(2.86599e-11 -6.21088e-10 0)
(0 0 0)
(-5.24179e-12 -2.19923e-09 0)
(0 0 0)
(4.71099e-11 -9.144e-10 0)
(3.40672e-11 -9.79198e-10 0)
(-6.84687e-11 -2.09353e-09 0)
(-4.73801e-11 -9.1533e-10 0)
(-7.16723e-11 -9.3402e-10 0)
(0 0 0)
(0 0 0)
(0 0 0)
(-2.93656e-11 -9.79492e-10 0)
(-3.07573e-11 -8.80555e-10 0)
(6.6479e-12 -1.93619e-09 0)
(6.70008e-12 -4.95453e-10 0)
(6.35431e-13 -4.55691e-11 0)
(-3.75709e-13 -8.84196e-10 0)
(3.65129e-11 -8.82106e-10 0)
(2.52001e-11 -8.68333e-10 0)
(-9.87208e-11 -1.96077e-09 0)
(-1.47172e-10 -1.93717e-09 0)
(-7.91977e-11 -8.67111e-10 0)
(-3.01631e-11 -9.4784e-10 0)
(2.12747e-11 -1.88054e-09 0)
(3.26751e-11 -8.54333e-10 0)
(9.97982e-13 -9.22341e-10 0)
(-1.83835e-11 -1.01628e-09 0)
(-2.5e-11 -2.17709e-09 0)
(2.60474e-11 -7.91925e-10 0)
(0 0 0)
(1.85601e-11 -8.82556e-10 0)
(2.19325e-11 -8.80442e-10 0)
(-3.58023e-11 -9.12331e-10 0)
(-2.33827e-11 -9.39884e-10 0)
(-2.37846e-11 -2.15113e-09 0)
(2.8026e-12 -8.6251e-10 0)
(4.9028e-09 2.37756e-08 0)
(1.43045e-09 -2.26473e-10 0)
(-3.13156e-10 -1.88269e-09 0)
(1.104e-10 -1.02628e-09 0)
(5.25942e-11 -9.15455e-10 0)
(9.89641e-11 -1.88466e-09 0)
(4.46631e-11 -1.9524e-09 0)
(-1.74575e-11 -1.74313e-09 0)
(-8.36e-12 -6.85054e-10 0)
(-1.63637e-11 -2.38063e-09 0)
(-2.47114e-11 -8.92719e-10 0)
(4.79597e-12 -7.90797e-10 0)
(1.17192e-11 -8.12168e-10 0)
(8.45736e-11 -2.30164e-09 0)
(2.04741e-10 -2.85964e-09 0)
(-6.76545e-12 -8.57023e-10 0)
(-3.40707e-11 -2.07756e-09 0)
(-1.37808e-11 -2.4465e-09 0)
(-4.11388e-11 -9.07519e-10 0)
(8.53147e-12 -8.22932e-10 0)
(-1.22671e-11 -1.89074e-09 0)
(-1.90409e-11 -8.74505e-10 0)
(2.93109e-11 -9.9386e-10 0)
(0 0 0)
(3.43034e-11 -9.60013e-10 0)
(6.8222e-12 -8.53777e-10 0)
(4.609e-11 -8.9917e-10 0)
(8.97556e-11 -2.01097e-09 0)
(0 0 0)
(6.15664e-11 -9.65122e-10 0)
(5.7559e-11 -1.02232e-09 0)
(-2.91563e-12 -8.40838e-10 0)
(-1.0577e-11 -9.77391e-10 0)
(0 0 0)
(6.5606e-12 -9.1883e-10 0)
(-2.21287e-12 -8.93178e-10 0)
(3.46663e-11 -1.96673e-09 0)
(7.35142e-11 -1.83091e-09 0)
(1.78856e-11 -1.22209e-09 0)
(-1.75719e-12 -7.21895e-10 0)
(-4.71408e-11 -1.96321e-09 0)
(4.44608e-11 -9.29712e-10 0)
(3.078e-11 -9.037e-10 0)
(-3.37204e-11 -1.00936e-09 0)
(-1.81367e-11 -9.84084e-10 0)
(-1.62217e-11 -1.00464e-09 0)
(-2.75909e-11 -1.01026e-09 0)
(8.13197e-12 -9.77909e-10 0)
(-4.80714e-11 -9.78848e-10 0)
(-8.55969e-11 -2.02006e-09 0)
(-1.00974e-10 -2.11652e-09 0)
(-5.99372e-11 -8.36083e-10 0)
(-1.36714e-11 -8.36759e-10 0)
(2.25867e-11 -9.4985e-10 0)
(7.31585e-12 -9.31682e-10 0)
(3.48999e-11 -8.61452e-10 0)
(2.15493e-11 -9.28355e-10 0)
(-1.12599e-10 -2.08919e-09 0)
(-2.28044e-11 -8.2536e-10 0)
(-6.40226e-11 -8.47878e-10 0)
(0 0 0)
(-1.34963e-11 -9.77782e-10 0)
(-1.24049e-11 -8.91855e-10 0)
(1.04074e-11 -3.48466e-10 0)
(-3.70402e-11 -1.55387e-09 0)
(-1.18127e-11 -1.14502e-09 0)
(-2.37311e-11 -9.79324e-10 0)
(9.59482e-12 -8.43844e-10 0)
(2.55755e-11 -8.15078e-10 0)
(1.76055e-10 -1.8629e-09 0)
(7.17605e-11 -8.87474e-10 0)
(-3.56816e-11 -9.96741e-10 0)
(-3.72138e-11 -2.05844e-09 0)
(-8.98511e-12 -8.34887e-10 0)
(-5.02481e-12 -8.57569e-10 0)
(-7.57606e-09 2.39645e-08 0)
(4.24566e-10 -2.00261e-09 0)
(-6.66849e-11 -1.64014e-09 0)
(1.35359e-10 -1.17623e-09 0)
(4.16999e-11 -8.96537e-10 0)
(9.77257e-11 -1.90137e-09 0)
(1.85803e-12 -8.27571e-10 0)
(0 0 0)
(0 0 0)
(0 0 0)
(5.26331e-12 -1.07769e-09 0)
(1.73322e-11 -2.20866e-09 0)
(0 0 0)
(0 0 0)
(0 0 0)
(-1.92184e-12 -1.1944e-09 0)
(-6.82815e-11 -1.14922e-09 0)
(-1.09116e-10 -1.04637e-09 0)
(-1.78897e-11 -9.7109e-10 0)
(3.14026e-11 -9.17185e-10 0)
(2.44531e-11 -8.73049e-10 0)
(9.26944e-12 -9.37119e-10 0)
(1.7546e-11 -9.47156e-10 0)
(2.15219e-11 -9.51985e-10 0)
(4.39601e-11 -9.42402e-10 0)
(7.09996e-13 -9.13811e-10 0)
(7.63999e-11 -9.12206e-10 0)
(4.97194e-11 -1.00792e-09 0)
(0 0 0)
(4.08615e-11 -1.01477e-09 0)
(1.08541e-10 -1.02015e-09 0)
(1.75211e-11 -1.06995e-09 0)
(-1.46415e-11 -2.18578e-09 0)
(2.79169e-12 -8.11852e-10 0)
(2.09398e-11 -8.39501e-10 0)
(5.96431e-11 -1.98186e-09 0)
(2.60378e-12 -8.60282e-10 0)
(3.89383e-11 -8.5487e-10 0)
(6.25954e-11 -2.54093e-09 0)
(1.45333e-11 -9.86542e-10 0)
(0 0 0)
(7.99122e-11 -1.18737e-09 0)
(1.10773e-10 -2.04729e-09 0)
(0 0 0)
(4.14678e-12 -1.99239e-09 0)
(1.33011e-11 -9.36105e-10 0)
(-3.09927e-11 -8.80644e-10 0)
(-1.46936e-11 -2.28142e-09 0)
(-4.62012e-11 -9.19658e-10 0)
(-7.23413e-11 -8.65936e-10 0)
(-6.5925e-11 -8.59955e-10 0)
(-4.50595e-11 -2.19528e-09 0)
(-9.83456e-12 -9.17303e-10 0)
(0 0 0)
(-9.61616e-12 -9.73707e-10 0)
(-8.44237e-12 -2.20558e-09 0)
(-2.26836e-11 -1.27468e-09 0)
(-1.09771e-11 -1.49483e-09 0)
(-2.73693e-11 -9.09093e-10 0)
(-3.7778e-11 -9.03536e-10 0)
(0 0 0)
(-4.78168e-11 -9.12044e-10 0)
(-4.47256e-11 -9.2953e-10 0)
(-6.24472e-11 -1.01368e-09 0)
(4.04553e-11 -1.09939e-09 0)
(9.30548e-12 -1.00995e-09 0)
(-7.21563e-13 -7.71389e-10 0)
(8.5315e-12 -1.86579e-09 0)
(-6.90717e-12 -8.09022e-10 0)
(-3.21027e-11 -7.88581e-10 0)
(-6.34076e-12 -2.42276e-09 0)
(3.22045e-11 -9.20949e-10 0)
(0 0 0)
(6.37279e-11 -9.10972e-10 0)
(-2.40002e-11 -9.6306e-10 0)
(-7.84546e-09 1.12764e-08 0)
(-3.22698e-10 -4.27235e-10 0)
(1.81273e-10 -7.51218e-10 0)
(1.71748e-10 -9.75429e-10 0)
(8.89103e-11 -9.58605e-10 0)
(4.37123e-11 -9.08964e-10 0)
(0 0 0)
(5.81299e-11 -1.81834e-09 0)
(-1.24315e-11 -1.93502e-09 0)
(-5.76692e-11 -9.66488e-10 0)
(-6.04548e-11 -9.83673e-10 0)
(0 0 0)
(-6.04646e-11 -9.37531e-10 0)
(-7.82371e-11 -8.59737e-10 0)
(-7.88168e-11 -2.63058e-09 0)
(3.74417e-11 -1.20891e-09 0)
(4.91298e-14 -1.25217e-11 0)
(1.89895e-12 -1.07323e-09 0)
(-1.35218e-11 -9.50667e-10 0)
(1.68711e-11 -8.9523e-10 0)
(1.51465e-11 -9.24561e-10 0)
(1.74024e-11 -9.45759e-10 0)
(2.55357e-11 -9.49283e-10 0)
(3.9668e-11 -9.35901e-10 0)
(3.59396e-11 -9.29915e-10 0)
(1.09013e-10 -7.96606e-10 0)
(2.61571e-10 -2.15748e-09 0)
(1.90168e-10 -1.02972e-09 0)
(-2.00644e-12 -9.77505e-10 0)
(-2.92018e-11 -8.81084e-10 0)
(3.99002e-11 -2.47167e-09 0)
(2.11572e-11 -9.29447e-10 0)
(1.63935e-11 -8.29606e-10 0)
(0 0 0)
(0 0 0)
(0 0 0)
(0 0 0)
(0 0 0)
(-2.77816e-11 -1.02022e-09 0)
(6.90132e-11 -9.94636e-10 0)
(6.23577e-11 -8.88713e-10 0)
(4.40805e-11 -8.50897e-10 0)
(-2.04076e-12 -1.11104e-09 0)
(0 0 0)
(0 0 0)
(-1.33247e-10 -1.88426e-09 0)
(-9.08757e-12 -8.62563e-10 0)
(-1.24779e-12 -1.07174e-09 0)
(9.70333e-12 -1.01192e-09 0)
(-1.70974e-11 -9.06822e-10 0)
(0 0 0)
(-4.20056e-11 -9.22415e-10 0)
(-2.76164e-11 -8.69195e-10 0)
(2.33547e-11 -1.24808e-09 0)
(3.75168e-11 -1.75875e-09 0)
(-2.87166e-11 -9.04988e-10 0)
(-1.63423e-11 -8.97047e-10 0)
(4.72278e-12 -9.88795e-10 0)
(-4.46907e-11 -9.94229e-10 0)
(-5.24326e-11 -9.5384e-10 0)
(-4.7408e-11 -9.1834e-10 0)
(-4.43088e-11 -9.24623e-10 0)
(-3.51354e-11 -9.66979e-10 0)
(0 0 0)
(-1.05746e-10 -9.26418e-10 0)
(-6.04886e-11 -2.22685e-09 0)
(-1.7291e-11 -8.69953e-10 0)
(-5.78827e-11 -9.22213e-10 0)
(-1.6055e-11 -1.94758e-09 0)
(-3.52657e-11 -8.32523e-10 0)
(-4.33824e-11 -9.92041e-10 0)
(0 0 0)
(5.98942e-11 -9.19583e-10 0)
(3.41887e-11 -1.01067e-09 0)
(0 0 0)
(-1.55595e-09 1.41091e-08 0)
(-1.15348e-10 -9.01052e-10 0)
(-1.72137e-11 -7.58714e-11 0)
(1.01437e-10 -1.01319e-09 0)
(-1.24408e-11 -9.23115e-10 0)
(2.29727e-11 -9.12714e-10 0)
(4.28258e-11 -8.28441e-10 0)
(9.33668e-12 -8.17965e-10 0)
(0 0 0)
(2.67397e-11 -8.73344e-10 0)
(-5.70014e-12 -9.88579e-10 0)
(-5.58064e-11 -9.51578e-10 0)
(-4.7652e-11 -9.1556e-10 0)
(-1.00067e-10 -1.00307e-09 0)
(0 0 0)
(-4.18962e-11 -1.07955e-09 0)
(7.23078e-11 -1.13147e-09 0)
(7.34817e-11 -9.95349e-10 0)
(4.85857e-11 -8.97599e-10 0)
(3.42346e-11 -9.60919e-10 0)
(0 0 0)
(4.85229e-11 -9.46449e-10 0)
(5.868e-11 -9.38438e-10 0)
(0 0 0)
(1.8207e-11 -8.89026e-10 0)
(3.25918e-11 -8.02162e-10 0)
(-6.48296e-12 -8.50322e-10 0)
(8.13393e-11 -2.73322e-09 0)
(-6.6369e-11 -1.00965e-09 0)
(-3.62674e-12 -8.12485e-10 0)
(-2.26386e-11 -2.266e-09 0)
(0 0 0)
(0 0 0)
(1.07519e-10 -1.95163e-09 0)
(9.64044e-11 -8.82786e-10 0)
(1.07749e-10 -9.64824e-10 0)
(2.99397e-11 -9.92708e-10 0)
(-9.61237e-11 -2.1795e-09 0)
(-2.61067e-11 -8.36781e-10 0)
(-2.64631e-12 -9.07199e-10 0)
(-2.12664e-11 -2.09285e-09 0)
(1.33693e-11 -8.72516e-10 0)
(1.83443e-11 -9.03686e-10 0)
(4.16362e-11 -2.07951e-09 0)
(-2.80639e-12 -1.18692e-09 0)
(-4.81813e-11 -6.35621e-10 0)
(-7.48058e-11 -1.93473e-09 0)
(-6.75308e-11 -2.03978e-09 0)
(4.20185e-11 -1.00165e-09 0)
(-4.39735e-13 -2.41727e-10 0)
(-6.83677e-11 -1.72818e-09 0)
(-2.51085e-11 -8.83225e-10 0)
(3.59997e-12 -8.36002e-10 0)
(0 0 0)
(1.39282e-11 -9.40325e-10 0)
(-8.34194e-11 -1.73932e-09 0)
(-6.31199e-12 -1.19464e-09 0)
(3.44677e-11 -1.01133e-09 0)
(-1.59907e-11 -3.70585e-10 0)
(-8.61179e-11 -1.50412e-09 0)
(-4.22216e-11 -8.63341e-10 0)
(-4.33718e-11 -9.93136e-10 0)
(0 0 0)
(-5.6926e-11 -2.16201e-09 0)
(-8.82996e-11 -9.84079e-10 0)
(1.21776e-11 -1.02044e-09 0)
(-4.89948e-11 -9.85058e-10 0)
(-7.93424e-11 -9.23181e-10 0)
(-4.19047e-11 -9.13148e-10 0)
(-3.20521e-11 -8.95019e-10 0)
(-1.25762e-12 -9.31826e-10 0)
(5.38836e-11 -9.31708e-10 0)
(6.3551e-11 -9.72507e-10 0)
(3.08891e-11 -1.12024e-09 0)
(0 0 0)
(-1.01549e-09 2.10396e-08 0)
(5.9421e-10 -4.8947e-10 0)
(-1.62826e-10 -1.60902e-09 0)
(4.28117e-12 -2.0119e-09 0)
(0 0 0)
(1.64667e-10 -1.98391e-09 0)
(-1.16329e-11 -8.54458e-10 0)
(3.58397e-12 -8.40018e-10 0)
(-1.20408e-11 -1.98416e-09 0)
(4.55651e-11 -8.50561e-10 0)
(1.38042e-11 -9.40443e-10 0)
(-9.64263e-11 -2.12396e-09 0)
(-1.25196e-10 -8.79586e-10 0)
(0 0 0)
(-1.11897e-10 -9.87459e-10 0)
(-8.40051e-11 -1.00955e-09 0)
(5.03345e-11 -2.4529e-09 0)
(8.62888e-11 -9.46084e-10 0)
(6.1317e-11 -9.04513e-10 0)
(4.52686e-11 -9.41436e-10 0)
(4.15617e-11 -9.89102e-10 0)
(3.35715e-11 -9.91099e-10 0)
(7.48614e-12 -9.22238e-10 0)
(2.61551e-11 -8.3273e-10 0)
(9.44346e-11 -1.94791e-09 0)
(0 0 0)
(0 0 0)
(-1.17191e-10 -2.72236e-09 0)
(9.20258e-11 -9.62498e-10 0)
(7.07916e-11 -8.35036e-10 0)
(0 0 0)
(3.13087e-11 -1.01749e-09 0)
(4.84125e-11 -9.2497e-10 0)
(3.41325e-11 -9.31551e-10 0)
(5.89535e-11 -8.99387e-10 0)
(5.78536e-11 -2.26928e-09 0)
(-7.01484e-11 -2.15665e-09 0)
(-2.98043e-11 -8.17016e-10 0)
(0 0 0)
(0 0 0)
(1.65125e-12 -9.26653e-10 0)
(-1.4584e-11 -2.22163e-09 0)
(2.55651e-11 -8.75673e-10 0)
(0 0 0)
(-1.41518e-11 -1.01783e-09 0)
(-1.27869e-10 -1.01959e-09 0)
(-7.66173e-11 -8.62907e-10 0)
(0 0 0)
(-5.23413e-11 -1.57881e-09 0)
(5.0326e-12 -1.60214e-09 0)
(0 0 0)
(-2.65898e-11 -1.90762e-09 0)
(-2.23674e-11 -7.94574e-10 0)
(-2.6264e-11 -1.88005e-09 0)
(-9.23809e-11 -2.37478e-09 0)
(-1.71775e-11 -8.97186e-10 0)
(3.83616e-12 -3.42411e-10 0)
(5.14043e-11 -1.59861e-09 0)
(1.14916e-11 -1.09434e-09 0)
(-7.3166e-12 -2.08129e-10 0)
(-5.74696e-11 -1.53473e-09 0)
(1.70204e-12 -9.52737e-10 0)
(0 0 0)
(-5.64716e-11 -1.03059e-09 0)
(-4.05499e-11 -1.01931e-09 0)
(-4.27773e-11 -9.88743e-10 0)
(-1.90978e-11 -1.01702e-09 0)
(0 0 0)
(-4.05009e-11 -9.4073e-10 0)
(-2.68209e-11 -9.10922e-10 0)
(-2.34021e-12 -9.38028e-10 0)
(1.17641e-11 -9.25464e-10 0)
(4.70208e-12 -9.45568e-10 0)
(1.45618e-11 -1.00894e-09 0)
(7.73065e-11 -1.0223e-09 0)
(4.08928e-09 3.89346e-08 0)
(-5.43467e-10 -1.73329e-09 0)
(-3.12422e-10 -4.22352e-10 0)
(1.7968e-11 -9.27417e-10 0)
(-5.11764e-11 -1.945e-09 0)
(0 0 0)
(-1.33381e-11 -8.11179e-10 0)
(-5.01546e-12 -8.21323e-10 0)
(-1.04795e-11 -3.60184e-10 0)
(-2.70671e-11 -1.25552e-09 0)
(1.79617e-11 -1.04453e-09 0)
(0 0 0)
(-3.49835e-11 -8.78572e-10 0)
(0 0 0)
(0 0 0)
(0 0 0)
(0 0 0)
(5.26902e-11 -9.83239e-10 0)
(0 0 0)
(0 0 0)
(3.37931e-11 -1.05621e-09 0)
(0 0 0)
(4.72439e-11 -9.8022e-10 0)
(7.15214e-11 -9.73108e-10 0)
(0 0 0)
(6.86055e-11 -8.41948e-10 0)
(-4.57665e-11 -2.1729e-09 0)
(-2.10589e-10 -2.38717e-09 0)
(2.70407e-11 -8.74219e-10 0)
(4.78477e-11 -8.40125e-10 0)
(1.71356e-10 -2.44193e-09 0)
(1.33319e-11 -1.01972e-09 0)
(0 0 0)
(6.41755e-11 -8.69893e-10 0)
(-1.3385e-11 -9.48191e-10 0)
(-8.60424e-11 -9.34365e-10 0)
(3.24797e-11 -9.63369e-10 0)
(1.7229e-11 -8.88733e-10 0)
(1.44486e-11 -8.42293e-10 0)
(-2.87296e-11 -2.02982e-09 0)
(-1.39911e-11 -9.15794e-10 0)
(-1.14614e-11 -9.04569e-10 0)
(-1.37894e-11 -9.25619e-10 0)
(-2.76741e-11 -9.98336e-10 0)
(-2.82543e-11 -1.12327e-09 0)
(-1.85995e-11 -9.75386e-10 0)
(-4.02422e-11 -8.08745e-10 0)
(-2.64697e-11 -8.66418e-10 0)
(-5.61043e-11 -9.76773e-10 0)
(-4.03236e-11 -1.02975e-09 0)
(2.42266e-11 -9.8475e-10 0)
(1.93417e-11 -9.19838e-10 0)
(-7.81821e-12 -9.12203e-10 0)
(-5.08459e-11 -9.08454e-10 0)
(-1.81962e-10 -2.27843e-09 0)
(0 0 0)
(-2.21365e-11 -8.65789e-10 0)
(-3.92589e-11 -8.95533e-10 0)
(1.58076e-10 -2.73392e-09 0)
(3.43293e-11 -9.13888e-10 0)
(-1.60878e-11 -8.28875e-10 0)
(-6.50719e-12 -8.85196e-10 0)
(4.94989e-11 -9.88456e-10 0)
(-9.31972e-11 -1.01878e-09 0)
(-7.14296e-11 -1.01234e-09 0)
(0 0 0)
(-2.17091e-11 -1.02736e-09 0)
(-1.41991e-11 -9.97239e-10 0)
(-1.09918e-11 -9.62854e-10 0)
(-9.37657e-12 -8.90721e-10 0)
(-5.73175e-12 -8.47345e-10 0)
(2.24263e-12 -8.77059e-10 0)
(2.99407e-11 -9.4993e-10 0)
(1.15639e-11 -9.33873e-10 0)
(5.29772e-11 -1.50144e-09 0)
(4.09533e-09 2.41047e-08 0)
(-3.3194e-10 -1.84612e-09 0)
(-2.1054e-10 -5.44224e-10 0)
(-5.02709e-11 -9.10611e-10 0)
(5.1316e-12 -8.33421e-10 0)
(3.76006e-11 -8.22893e-10 0)
(1.62503e-11 -2.04725e-09 0)
(-2.61811e-12 -3.16546e-10 0)
(1.93304e-11 -1.22728e-09 0)
(0 0 0)
(-5.0217e-11 -1.05095e-09 0)
(2.11464e-11 -9.37698e-10 0)
(-5.70345e-11 -1.99438e-09 0)
(2.3583e-11 -8.80852e-10 0)
(-2.04451e-11 -1.11499e-09 0)
(0 0 0)
(-5.20144e-12 -9.8704e-10 0)
(8.37342e-11 -8.75401e-10 0)
(1.63319e-10 -2.17893e-09 0)
(0 0 0)
(0 0 0)
(2.64598e-11 -9.795e-10 0)
(1.31378e-12 -9.21522e-10 0)
(2.14657e-12 -8.76825e-10 0)
(-2.71423e-11 -8.21482e-10 0)
(-8.21195e-11 -1.7688e-09 0)
(-1.36221e-10 -2.42477e-09 0)
(0 0 0)
(0 0 0)
(7.99278e-12 -9.53889e-10 0)
(-2.011e-12 -9.87297e-10 0)
(9.07677e-11 -9.14465e-10 0)
(2.90617e-11 -8.41007e-10 0)
(4.88435e-11 -1.83412e-09 0)
(-7.06944e-11 -3.76143e-09 0)
(-1.96733e-11 -9.09438e-10 0)
(-2.78181e-11 -9.58939e-10 0)
(6.33284e-11 -8.72947e-10 0)
(-1.81665e-11 -9.43049e-10 0)
(-9.51118e-12 -8.83431e-10 0)
(1.32471e-11 -8.93057e-10 0)
(0 0 0)
(2.22835e-11 -1.91106e-09 0)
(-2.15059e-11 -9.2012e-10 0)
(-6.12036e-11 -2.20666e-09 0)
(8.11867e-12 -1.04283e-09 0)
(6.58543e-12 -9.37239e-10 0)
(-3.44889e-12 -1.06192e-09 0)
(0 0 0)
(-5.95054e-12 -9.6878e-10 0)
(2.47256e-11 -9.33171e-10 0)
(3.42782e-11 -9.50825e-10 0)
(-4.77001e-12 -1.00998e-09 0)
(-5.83476e-11 -1.02842e-09 0)
(-6.94484e-11 -9.86936e-10 0)
(-3.75124e-11 -8.9707e-10 0)
(-5.66069e-11 -8.52769e-10 0)
(-6.18678e-11 -9.39406e-10 0)
(1.05026e-11 -1.82611e-10 0)
(1.20813e-10 -1.93744e-09 0)
(-2.16776e-11 -9.19336e-10 0)
(-2.7314e-11 -7.8645e-10 0)
(-9.03465e-12 -2.48047e-09 0)
(-3.78907e-11 -1.02943e-09 0)
(0 0 0)
(-1.05215e-11 -9.60541e-10 0)
(-7.27652e-12 -9.64551e-10 0)
(-3.26912e-11 -9.48612e-10 0)
(-2.19737e-11 -9.24813e-10 0)
(-2.75664e-11 -9.16347e-10 0)
(-8.91078e-14 -8.41654e-10 0)
(-2.55642e-11 -9.10027e-10 0)
(-6.76124e-12 -8.73066e-10 0)
(-2.67656e-11 -2.17112e-09 0)
(7.24644e-12 -8.63491e-10 0)
(-5.62796e-09 3.0614e-08 0)
(-6.20418e-10 -4.41835e-10 0)
(1.88352e-10 -1.37454e-09 0)
(-1.35732e-10 -2.2103e-09 0)
(-5.06484e-11 -8.672e-10 0)
(-3.48131e-11 -8.63364e-10 0)
(-2.78055e-11 -7.93329e-10 0)
(0 0 0)
(0 0 0)
(5.27871e-11 -1.0134e-09 0)
(0 0 0)
(0 0 0)
(0 0 0)
(-1.46359e-11 -8.4181e-10 0)
(-4.12626e-11 -2.38862e-09 0)
(7.60593e-11 -9.39884e-10 0)
(1.99456e-10 -2.03872e-09 0)
(4.71704e-11 -7.57143e-10 0)
(5.81265e-11 -8.54844e-10 0)
(2.04043e-10 -2.37572e-09 0)
(5.76897e-11 -9.65546e-10 0)
(7.1501e-11 -9.91687e-10 0)
(-5.01472e-12 -1.00315e-09 0)
(-6.87098e-11 -2.11348e-09 0)
(1.35829e-12 -8.16269e-10 0)
(-2.64361e-11 -8.89517e-10 0)
(0 0 0)
(2.65477e-11 -9.54842e-10 0)
(3.74757e-11 -2.0542e-09 0)
(1.43754e-11 -2.07097e-09 0)
(1.00986e-11 -8.14529e-10 0)
(6.09407e-11 -1.95704e-09 0)
(-6.21223e-12 -9.06247e-10 0)
(0 0 0)
(-1.56107e-10 -9.16191e-10 0)
(4.22057e-11 -9.31774e-10 0)
(7.206e-11 -8.90372e-10 0)
(4.17335e-11 -1.02996e-09 0)
(0 0 0)
(-1.96426e-11 -9.41285e-10 0)
(1.32309e-11 -8.45181e-10 0)
(4.4716e-11 -1.94857e-09 0)
(2.09223e-11 -8.85551e-10 0)
(2.69311e-11 -1.00256e-09 0)
(-2.62361e-11 -9.96428e-10 0)
(-3.36799e-11 -9.51813e-10 0)
(-3.76216e-11 -8.92139e-10 0)
(-2.44099e-11 -1.02061e-09 0)
(-1.33867e-11 -2.89845e-10 0)
(-6.95326e-11 -1.46803e-09 0)
(6.30372e-12 -8.52405e-10 0)
(1.41047e-11 -8.56597e-10 0)
(2.41669e-11 -9.72618e-10 0)
(-6.41111e-11 -1.06634e-09 0)
(-2.0505e-11 -9.68358e-10 0)
(-3.84297e-11 -8.82656e-10 0)
(-5.48961e-11 -8.32447e-10 0)
(-8.53474e-11 -8.96015e-10 0)
(-6.93811e-11 -9.07992e-10 0)
(-1.10801e-10 -2.56394e-09 0)
(-1.3254e-11 -9.51372e-10 0)
(-1.88515e-11 -8.9305e-10 0)
(-1.76939e-11 -1.07788e-09 0)
(2.19699e-11 -1.04893e-09 0)
(0 0 0)
(5.52116e-11 -9.70085e-10 0)
(-7.36584e-12 -1.01258e-09 0)
(7.27972e-12 -9.59144e-10 0)
(0 0 0)
(-1.31787e-11 -9.14573e-10 0)
(-1.74914e-11 -9.15195e-10 0)
(-2.90236e-11 -9.16244e-10 0)
(-1.83448e-11 -8.97171e-10 0)
(-4.77797e-12 -9.82661e-10 0)
(-2.7763e-11 -9.15523e-10 0)
(-9.53003e-10 4.63787e-08 0)
(2.87203e-11 1.1159e-09 0)
(9.39051e-12 -2.1334e-09 0)
(4.92577e-11 -1.06735e-09 0)
(0 0 0)
(-6.81888e-11 -8.69386e-10 0)
(-1.61329e-11 -1.26554e-09 0)
(1.13967e-10 -1.4041e-09 0)
(6.42688e-11 -9.34588e-10 0)
(4.07829e-11 -1.14326e-09 0)
(0 0 0)
(-1.40973e-11 -2.06211e-09 0)
(4.86148e-12 -8.83371e-10 0)
(-7.66341e-11 -2.13716e-09 0)
(-3.5898e-11 -8.64823e-10 0)
(2.19347e-11 -8.8939e-10 0)
(5.9057e-11 -2.05307e-09 0)
(1.95611e-11 -7.89788e-10 0)
(5.4033e-11 -8.64568e-10 0)
(3.03839e-11 -1.0339e-09 0)
(2.17665e-11 -1.04736e-09 0)
(5.76245e-11 -2.51115e-09 0)
(5.09064e-11 -9.46218e-10 0)
(1.99654e-11 -8.45387e-10 0)
(3.68443e-13 -8.4764e-10 0)
(-2.97397e-12 -8.46257e-10 0)
(-4.18381e-11 -8.90403e-10 0)
(2.92428e-11 -2.13824e-09 0)
(-1.75949e-11 -9.22794e-10 0)
(-4.87468e-11 -9.09769e-10 0)
(4.84917e-11 -8.72326e-10 0)
(1.37436e-12 -2.16037e-09 0)
(0 0 0)
(-1.91034e-11 -9.75114e-10 0)
(-1.72863e-14 -8.22269e-13 0)
(-1.99929e-11 -9.49119e-10 0)
(-1.64196e-11 -9.5039e-10 0)
(9.00505e-11 -2.48513e-09 0)
(1.51301e-11 -9.20287e-10 0)
(2.73937e-11 -8.25548e-10 0)
(2.46346e-11 -9.08622e-10 0)
(3.28711e-13 -9.66526e-12 0)
(2.92963e-11 -8.13755e-10 0)
(3.94687e-11 -8.89587e-10 0)
(2.95988e-12 -1.10535e-09 0)
(-1.4073e-10 -2.44504e-09 0)
(0 0 0)
(-7.77228e-11 -2.35227e-09 0)
(0 0 0)
(7.39978e-12 -9.23356e-10 0)
(6.88485e-12 -8.35574e-10 0)
(-2.1101e-11 -1.54131e-09 0)
(-1.30588e-11 -1.64567e-09 0)
(-4.82588e-14 -1.9421e-10 0)
(-3.51748e-11 -1.74908e-09 0)
(-1.86589e-11 -8.81562e-10 0)
(-3.86215e-11 -8.63801e-10 0)
(-7.49364e-11 -8.8225e-10 0)
(-7.87453e-11 -9.08716e-10 0)
(-7.73726e-11 -9.50183e-10 0)
(2.44732e-12 -1.01472e-09 0)
(2.73383e-11 -9.52099e-10 0)
(3.33538e-11 -9.50356e-10 0)
(-1.78591e-11 -1.04828e-09 0)
(4.20011e-11 -8.91174e-10 0)
(5.44905e-11 -1.07852e-09 0)
(0 0 0)
(-2.40909e-11 -9.53618e-10 0)
(5.66694e-12 -9.45108e-10 0)
(-6.98114e-12 -8.80855e-10 0)
(-6.94658e-12 -8.92108e-10 0)
(-2.91266e-11 -9.36062e-10 0)
(-4.05667e-11 -9.16969e-10 0)
(-3.94705e-11 -9.87986e-10 0)
(0 0 0)
(1.76808e-09 3.39163e-08 0)
(1.47927e-10 9.75169e-10 0)
(-3.07098e-10 -2.77412e-10 0)
(1.61431e-10 -1.14536e-09 0)
(0 0 0)
(-6.5545e-12 -9.21268e-10 0)
(-3.73014e-11 -8.33519e-10 0)
(-3.96372e-11 -1.84583e-09 0)
(-1.27239e-11 -8.22798e-10 0)
(-2.84341e-11 -9.28458e-10 0)
(1.31135e-10 -2.37874e-09 0)
(1.46704e-11 -8.69775e-10 0)
(-3.23876e-13 -9.43716e-10 0)
(-9.21968e-11 -1.96837e-09 0)
(8.21363e-12 -8.70029e-10 0)
(-2.63023e-11 -8.62893e-10 0)
(1.82303e-12 -8.76136e-10 0)
(1.22183e-11 -8.7364e-10 0)
(1.73356e-11 -8.72036e-10 0)
(2.18416e-11 -2.48433e-09 0)
(4.07203e-11 -1.00998e-09 0)
(8.02787e-12 -9.08653e-10 0)
(5.62993e-11 -9.29438e-10 0)
(7.21458e-11 -1.47204e-09 0)
(2.61609e-11 -1.41785e-09 0)
(-1.49358e-11 -8.75287e-10 0)
(3.02859e-11 -8.54155e-10 0)
(4.47954e-11 -2.17617e-09 0)
(1.32932e-11 -9.39901e-10 0)
(-2.61668e-12 -1.20505e-10 0)
(-1.59587e-11 -7.0126e-10 0)
(0 0 0)
(1.69201e-11 -9.45761e-10 0)
(4.61953e-11 -2.15814e-09 0)
(3.11647e-11 -9.325e-10 0)
(0 0 0)
(-1.68116e-11 -1.01452e-09 0)
(-8.135e-12 -1.05954e-09 0)
(6.07182e-11 -9.46508e-10 0)
(0 0 0)
(3.51095e-11 -9.27885e-10 0)
(3.50455e-11 -8.93945e-10 0)
(8.11292e-12 -1.13846e-09 0)
(-8.31964e-11 -2.24003e-09 0)
(2.88238e-12 -1.19328e-09 0)
(3.45119e-12 -4.06983e-10 0)
(-5.3339e-11 -1.12632e-09 0)
(-2.00473e-11 -9.87098e-10 0)
(4.78396e-11 -9.75438e-10 0)
(-5.8453e-12 -7.8899e-10 0)
(-1.44097e-11 -8.9633e-10 0)
(-4.814e-11 -2.10737e-09 0)
(-1.78194e-11 -1.01053e-09 0)
(5.8408e-11 -1.00178e-09 0)
(1.34603e-11 -9.28466e-10 0)
(-2.42847e-11 -9.22856e-10 0)
(-4.83874e-11 -9.36836e-10 0)
(-4.06884e-11 -9.58256e-10 0)
(-4.75961e-11 -9.43096e-10 0)
(-3.65487e-11 -9.07967e-10 0)
(1.67746e-11 -9.33768e-10 0)
(1.18911e-11 -8.86326e-10 0)
(4.18292e-11 -2.45377e-09 0)
(-6.49004e-12 -9.32601e-10 0)
(2.24411e-11 -9.36673e-10 0)
(-5.99861e-12 -1.15296e-09 0)
(0 0 0)
(-1.61878e-11 -8.7117e-10 0)
(-2.23085e-11 -8.22888e-10 0)
(2.06666e-12 -8.55657e-10 0)
(-4.17987e-12 -9.70746e-10 0)
(-3.65708e-12 -9.80418e-10 0)
(-1.15487e-11 -9.19745e-10 0)
(-7.74877e-12 -9.6017e-10 0)
(0 0 0)
(1.51401e-10 2.70726e-08 0)
(-1.63143e-10 2.10202e-09 0)
(3.92425e-11 -2.59157e-10 0)
(6.11638e-11 -1.10438e-09 0)
(6.89644e-11 -1.0164e-09 0)
(0 0 0)
(-2.4474e-11 -9.23416e-10 0)
(1.11155e-12 -8.32234e-10 0)
(-7.77369e-12 -8.32625e-10 0)
(-2.50423e-12 -8.49359e-10 0)
(5.82723e-11 -9.69078e-10 0)
(5.53209e-11 -1.03248e-09 0)
(-3.80421e-11 -9.51422e-10 0)
(-3.02984e-12 -8.53925e-10 0)
(1.61807e-11 -9.51246e-10 0)
(-3.59589e-12 -2.86286e-10 0)
(-6.17993e-12 -4.45138e-10 0)
(-5.15277e-11 -2.07989e-09 0)
(-2.61802e-11 -8.95058e-10 0)
(-2.34935e-11 -9.82765e-10 0)
(5.86583e-11 -1.58328e-09 0)
(1.20886e-10 -1.53795e-09 0)
(4.94122e-11 -9.27972e-10 0)
(4.08936e-11 -9.15003e-10 0)
(4.48561e-12 -9.23106e-10 0)
(-4.20126e-11 -9.62897e-10 0)
(-2.71929e-11 -9.71669e-10 0)
(1.90115e-11 -9.18028e-10 0)
(3.90525e-11 -9.71423e-10 0)
(-2.67662e-11 -9.88785e-10 0)
(0 0 0)
(2.75147e-12 -9.2077e-10 0)
(0 0 0)
(0 0 0)
(-1.35122e-11 -1.00501e-09 0)
(-7.73545e-12 -9.68059e-10 0)
(0 0 0)
(0 0 0)
(4.38318e-11 -9.90855e-10 0)
(4.18801e-11 -9.30794e-10 0)
(-1.01864e-11 -8.7737e-10 0)
(-8.92235e-12 -8.94409e-10 0)
(-6.61392e-11 -2.23337e-09 0)
(-1.18852e-10 -1.05788e-09 0)
(0 0 0)
(4.33264e-11 -1.04499e-09 0)
(2.27946e-11 -9.92402e-10 0)
(-1.05429e-11 -1.01599e-09 0)
(5.06121e-12 -1.02511e-09 0)
(-7.62482e-12 -9.52046e-10 0)
(-2.32845e-11 -9.31061e-10 0)
(-1.90937e-11 -9.20453e-10 0)
(2.74207e-11 -8.97425e-10 0)
(5.45898e-11 -1.04516e-09 0)
(2.66219e-11 -2.30672e-09 0)
(0 0 0)
(-6.16652e-11 -9.13313e-10 0)
(-4.23671e-11 -9.0266e-10 0)
(-7.11042e-11 -2.20499e-09 0)
(-4.63658e-11 -9.08278e-10 0)
(-4.44028e-11 -8.80494e-10 0)
(-5.15278e-11 -8.7127e-10 0)
(-9.22677e-12 -2.36797e-09 0)
(4.39015e-11 -8.85615e-10 0)
(2.19167e-11 -8.85901e-10 0)
(-4.44694e-12 -9.67921e-10 0)
(4.85612e-11 -1.01163e-09 0)
(3.16091e-11 -9.30944e-10 0)
(6.10011e-12 -8.81725e-10 0)
(2.34411e-12 -9.00906e-10 0)
(3.75654e-12 -9.10425e-10 0)
(2.68462e-11 -9.21587e-10 0)
(3.59506e-12 -8.94676e-10 0)
(-4.64429e-12 -9.14338e-10 0)
(-6.9379e-13 -1.01206e-09 0)
(-2.40473e-09 3.9215e-08 0)
(-6.90754e-10 1.88592e-09 0)
(2.15853e-10 -1.53971e-09 0)
(-6.33142e-11 -9.81988e-10 0)
(6.3768e-11 -9.82629e-10 0)
(3.21477e-11 -8.81799e-10 0)
(-1.11499e-11 -8.97229e-10 0)
(1.81378e-12 -9.10416e-10 0)
(3.59437e-12 -9.09808e-10 0)
(-2.01043e-11 -8.8345e-10 0)
(1.59497e-11 -9.60898e-10 0)
(6.2585e-12 -1.13416e-09 0)
(0 0 0)
(3.80083e-13 -8.72404e-10 0)
(0 0 0)
(2.52377e-11 -9.76604e-10 0)
(-3.59915e-11 -1.06513e-09 0)
(-5.29263e-11 -9.6958e-10 0)
(-3.76685e-11 -9.097e-10 0)
(-2.05378e-11 -1.04934e-09 0)
(2.08982e-11 -1.1943e-09 0)
(1.17512e-10 -1.98267e-09 0)
(5.60236e-11 -9.27127e-10 0)
(3.51943e-11 -9.26067e-10 0)
(1.8053e-11 -9.83538e-10 0)
(-4.17107e-11 -9.8424e-10 0)
(-3.76266e-11 -8.73721e-10 0)
(2.95136e-11 -9.21728e-10 0)
(4.29557e-12 -1.0846e-09 0)
(0 0 0)
(1.22404e-11 -9.55581e-10 0)
(4.87188e-11 -8.59053e-10 0)
(5.72755e-11 -1.01781e-09 0)
(1.10998e-11 -1.14896e-09 0)
(0 0 0)
(5.75597e-12 -9.86013e-10 0)
(1.67438e-11 -9.3044e-10 0)
(2.56711e-11 -9.47968e-10 0)
(3.48348e-11 -9.61359e-10 0)
(4.20165e-11 -2.06821e-09 0)
(-1.6694e-11 -1.13479e-09 0)
(1.13744e-11 -5.97131e-10 0)
(2.57003e-11 -1.00827e-09 0)
(-5.6102e-11 -1.07292e-09 0)
(2.91077e-11 -9.46592e-10 0)
(4.03275e-11 -1.00533e-09 0)
(6.47152e-12 -1.80257e-10 0)
(2.35704e-11 -6.32727e-10 0)
(-5.69013e-12 -9.76329e-10 0)
(-3.1073e-11 -9.59521e-10 0)
(-2.85671e-11 -9.27308e-10 0)
(-4.53718e-11 -9.03087e-10 0)
(-1.52288e-13 -9.98787e-10 0)
(8.71122e-11 -9.43447e-10 0)
(0 0 0)
(-4.22212e-11 -1.04731e-09 0)
(-4.18496e-11 -9.95852e-10 0)
(-2.83659e-12 -1.67271e-10 0)
(-1.1808e-11 -6.56896e-10 0)
(0 0 0)
(0 0 0)
(-5.73747e-11 -9.65557e-10 0)
(-1.29146e-10 -2.14958e-09 0)
(1.27508e-11 -9.43602e-10 0)