/*--------------------------------*- C++ -*----------------------------------*\
  =========                 |
  \\      /  F ield         | OpenFOAM: The Open Source CFD Toolbox
   \\    /   O peration     | Website:  https://openfoam.org
    \\  /    A nd           | Version:  12
     \\/     M anipulation  |
\*---------------------------------------------------------------------------*/
FoamFile
{
    format      ascii;
    class       volScalarField;
    location    "0.6";
    object      p;
}
// * * * * * * * * * * * * * * * * * * * * * * * * * * * * * * * * * * * * * //

dimensions      [0 2 -2 0 0 0 0];

internalField   nonuniform List<scalar> 
3750
(
1.43839
1.42085
1.40324
1.38802
1.37875
1.3681
1.35817
1.33802
1.3297
1.32139
1.31377
1.30441
1.28371
1.27232
1.26225
1.25439
1.24845
1.24395
1.22474
1.21589
1.20014
1.23917
1.22394
1.20358
1.19098
1.18188
1.17248
1.15424
1.14799
1.13191
1.12803
1.12203
1.1163
1.11092
1.10563
1.10075
1.08245
1.06591
1.0512
1.03984
1.02607
1.01776
1.01031
1.00375
0.98524
0.979419
0.972179
0.964554
0.956603
0.948253
0.939495
0.930238
0.92041
0.90951
0.89734
0.891896
0.838359
0.836045
0.826413
0.812625
0.798488
0.840382
0.830615
0.823471
0.773265
0.776468
0.773377
0.765864
0.757652
0.749823
0.742737
0.735838
0.729084
0.722585
0.717128
1.41917
1.41127
1.40168
1.39351
1.38206
1.36814
1.35549
1.34029
1.32795
1.32006
1.31578
1.31601
1.27403
1.27157
1.26009
1.25274
1.24678
1.24147
1.23296
1.22518
1.22069
1.22993
1.21503
1.19614
1.18753
1.18213
1.18199
1.14181
1.14298
1.13481
1.12971
1.12203
1.11689
1.11113
1.10554
1.09889
1.08491
1.06512
1.04656
1.03784
1.0245
1.01717
1.00925
1.00183
0.989203
0.980614
0.972632
0.96485
0.956982
0.948624
0.939903
0.930839
0.921444
0.910702
0.890614
0.877022
0.853605
0.841273
0.830177
0.820628
0.815527
0.823808
0.816826
0.80392
0.781877
0.783937
0.77772
0.766013
0.757278
0.749104
0.742678
0.735705
0.728788
0.721524
0.711233
1.40686
1.39724
1.38894
1.40211
1.38642
1.36981
1.35638
1.33944
1.32431
1.31536
1.31583
1.30709
1.28757
1.27805
1.25439
1.24984
1.24428
1.23823
1.24191
1.2331
1.22924
1.23845
1.20929
1.17839
1.1807
1.17708
1.17188
1.14903
1.14292
1.13722
1.13356
1.12313
1.11903
1.11098
1.10527
1.10135
1.10265
1.06313
1.03277
1.03037
1.02467
1.01667
1.00753
1.00072
0.991201
0.981715
0.972941
0.965163
0.957812
0.949536
0.940613
0.931924
0.923602
0.920568
0.877149
0.871127
0.85834
0.844342
0.832558
0.825487
0.82114
0.816058
0.807983
0.7941
0.77275
0.794428
0.78379
0.765267
0.756338
0.746737
0.741809
0.735625
0.7287
0.720694
0.706737
1.40491
1.39683
1.4014
1.39138
1.38031
1.36807
1.35743
1.34029
1.31627
1.30334
1.32244
1.30741
1.29084
1.28641
1.24385
1.24755
1.24421
1.23238
1.25611
1.23565
1.22816
1.22164
1.20472
1.1893
1.18055
1.17288
1.16461
1.15281
1.14338
1.13797
1.13337
1.12801
1.12324
1.10869
1.10382
1.09936
1.10007
1.05277
1.05287
1.02638
1.02342
1.01731
1.00269
1.00242
0.993206
0.982042
0.972425
0.964969
0.959588
0.950806
0.940749
0.932172
0.920711
0.907564
0.888651
0.873112
0.864223
0.846854
0.833295
0.82709
0.820952
0.81549
0.80428
0.804771
0.766444
0.786655
0.780683
0.766975
0.755765
0.744498
0.736618
0.738198
0.72961
0.719793
0.705835
1.41093
1.39379
1.42561
1.37891
1.37403
1.36434
1.35292
1.33682
1.31916
1.30996
1.31104
1.30213
1.28501
1.2694
1.24863
1.25263
1.25889
1.24696
1.24799
1.2365
1.22633
1.21588
1.20263
1.18992
1.17904
1.16923
1.15976
1.15468
1.1434
1.13778
1.13254
1.13269
1.12568
1.1082
1.10186
1.09314
1.08293
1.05959
1.04143
1.05097
1.03538
1.02905
0.982974
1.0082
0.994732
0.98086
0.969526
0.960906
0.964716
0.953436
0.939497
0.932627
0.919704
0.905745
0.887991
0.878941
0.878959
0.83908
0.836607
0.828688
0.819628
0.81146
0.800742
0.790469
0.772631
0.79383
0.779298
0.767538
0.755733
0.742819
0.725653
0.746019
0.731515
0.718128
0.704511
1.43138
1.40861
1.40153
1.3827
1.37246
1.36286
1.35113
1.33459
1.32172
1.31148
1.30442
1.29534
1.28169
1.26394
1.23939
1.25556
1.28436
1.24616
1.24465
1.23519
1.22476
1.21336
1.20106
1.18868
1.17657
1.16513
1.15367
1.14766
1.1483
1.13888
1.12419
1.14075
1.12758
1.11081
1.09883
1.08859
1.07846
1.06369
1.05194
1.04755
1.03577
1.02379
1.00516
1.00057
0.995128
0.97762
0.96692
0.954455
0.975745
0.95634
0.932146
0.927682
0.919515
0.916084
0.877109
0.880218
0.867748
0.851213
0.845889
0.830399
0.81779
0.809971
0.798967
0.792528
0.784502
0.786686
0.778322
0.767964
0.756413
0.74611
0.735122
0.735885
0.725052
0.715528
0.707251
1.46686
1.41968
1.38763
1.37834
1.37016
1.36649
1.35026
1.33129
1.32224
1.30958
1.30035
1.29325
1.28267
1.27095
1.25253
1.25109
1.25145
1.26338
1.24888
1.23507
1.22417
1.21177
1.19941
1.1872
1.17353
1.16113
1.14453
1.13169
1.16162
1.14949
1.13392
1.13271
1.12302
1.1087
1.09483
1.08333
1.08021
1.06965
1.05944
1.04829
1.03602
1.02569
1.01208
1.00362
1.00567
0.968016
0.96797
0.963613
0.967543
0.956766
0.922214
0.923713
0.914577
0.902839
0.887109
0.898122
0.858426
0.849871
0.865808
0.829259
0.814653
0.810969
0.79644
0.793228
0.788282
0.784016
0.777257
0.769217
0.759373
0.748973
0.738429
0.730356
0.717864
0.704149
0.717661
1.45099
1.4237
1.41264
1.37376
1.36644
1.36419
1.35235
1.33751
1.32267
1.3036
1.29436
1.2953
1.28533
1.27356
1.26199
1.25534
1.25077
1.25251
1.24318
1.23206
1.22158
1.21018
1.19805
1.18715
1.17257
1.15783
1.14121
1.1307
1.16326
1.15174
1.13529
1.13229
1.12054
1.10648
1.08877
1.07006
1.08823
1.07664
1.06301
1.05086
1.03815
1.0269
1.00786
0.997952
0.989776
0.983318
0.974918
0.969683
0.968665
0.921983
0.938714
0.925482
0.912121
0.897141
0.87875
0.898618
0.881501
0.830175
0.86047
0.854721
0.812793
0.80742
0.796929
0.795691
0.791031
0.785334
0.777979
0.772352
0.763358
0.751242
0.738744
0.7302
0.720516
0.711635
0.710351
1.45366
1.41357
1.40619
1.38794
1.3736
1.36798
1.35732
1.34431
1.33149
1.28617
1.28192
1.30413
1.28915
1.27514
1.26405
1.26186
1.25537
1.24598
1.23694
1.22826
1.22003
1.21026
1.19892
1.18657
1.17174
1.15644
1.14415
1.14728
1.1542
1.1422
1.12213
1.13715
1.11816
1.10398
1.08445
1.0793
1.08339
1.07591
1.06452
1.05388
1.03901
1.02235
1.0053
0.99209
0.979513
0.996638
0.978347
0.97036
0.957773
0.936516
0.935499
0.923628
0.910878
0.898029
0.886425
0.886819
0.870799
0.846609
0.840993
0.849128
0.825588
0.810478
0.799157
0.802211
0.795215
0.788118
0.780861
0.774492
0.768593
0.754504
0.738362
0.731983
0.724891
0.719162
0.71848
1.37996
1.38242
1.40833
1.39338
1.37662
1.37096
1.36474
1.35309
1.30911
1.29783
1.293
1.29768
1.28956
1.27596
1.2598
1.27453
1.25879
1.24215
1.22951
1.22301
1.22113
1.21133
1.20078
1.18847
1.1714
1.15659
1.14155
1.16326
1.15212
1.14204
1.12462
1.12559
1.11244
1.09732
1.07723
1.09418
1.07946
1.07143
1.06509
1.05814
1.04177
1.01968
1.00229
0.991704
0.985719
0.988911
0.977646
0.970626
0.956885
0.939922
0.931445
0.921528
0.909235
0.898556
0.888235
0.880351
0.867875
0.854105
0.850936
0.819313
0.825668
0.812752
0.795738
0.815663
0.799468
0.79025
0.783001
0.77599
0.768728
0.75851
0.740999
0.734314
0.726591
0.719378
0.704209
1.39111
1.3868
1.39043
1.39258
1.3816
1.37383
1.36545
1.34169
1.31658
1.3033
1.30538
1.30085
1.29276
1.28231
1.2711
1.26481
1.25725
1.23556
1.22293
1.2076
1.22402
1.2101
1.20628
1.19338
1.16998
1.16041
1.15314
1.1574
1.14936
1.14379
1.12558
1.11972
1.1077
1.09828
1.08892
1.08191
1.07201
1.06503
1.06903
1.06066
1.04722
1.02257
0.9968
0.989156
0.987572
0.985116
0.972974
0.965555
0.974016
0.932687
0.930593
0.921782
0.904099
0.903465
0.885993
0.877756
0.866241
0.853418
0.839226
0.814975
0.832487
0.817976
0.80724
0.810798
0.798583
0.790178
0.784987
0.777879
0.769626
0.759359
0.746841
0.737463
0.727909
0.718119
0.70215
1.39633
1.38516
1.3754
1.39603
1.38677
1.37675
1.37195
1.32997
1.31424
1.29608
1.31695
1.30667
1.29781
1.2919
1.27571
1.26372
1.25416
1.23321
1.22179
1.21079
1.21518
1.19783
1.21257
1.19502
1.16944
1.16074
1.15589
1.1535
1.14676
1.14077
1.1225
1.11626
1.10315
1.10005
1.10294
1.06567
1.06278
1.05289
1.0747
1.06081
1.05076
1.03515
0.98773
0.977514
0.986616
0.994089
0.968328
0.953896
0.972635
0.946915
0.936367
0.933695
0.888341
0.923742
0.877271
0.87437
0.865144
0.853777
0.840481
0.826996
0.825426
0.815605
0.807105
0.808373
0.79734
0.785778
0.789634
0.780824
0.770908
0.76071
0.750045
0.741403
0.729868
0.718879
0.699879
1.40004
1.38703
1.37941
1.38181
1.386
1.37489
1.3625
1.33826
1.32277
1.30873
1.31004
1.30661
1.30164
1.29673
1.2803
1.26598
1.25026
1.23703
1.22474
1.20857
1.22251
1.19912
1.19936
1.19798
1.15543
1.15688
1.15476
1.15239
1.14326
1.14992
1.11022
1.10981
1.10116
1.09693
1.09209
1.07715
1.068
1.06082
1.06324
1.05475
1.04325
1.02632
1.00917
0.957087
0.987285
1.01735
0.963433
0.95769
0.961037
0.944396
0.935275
0.926611
0.906299
0.911497
0.886943
0.874642
0.865795
0.855727
0.842747
0.829935
0.822023
0.812047
0.797507
0.81441
0.799175
0.777825
0.797259
0.782498
0.771992
0.761096
0.751076
0.745279
0.731318
0.718371
0.701813
1.40554
1.39116
1.38146
1.36692
1.38983
1.37613
1.36244
1.34017
1.32797
1.31687
1.30896
1.30238
1.30621
1.29823
1.28531
1.28042
1.2417
1.24018
1.23509
1.22699
1.22554
1.17846
1.18181
1.17815
1.16325
1.15816
1.15184
1.14509
1.13597
1.139
1.12093
1.10908
1.09825
1.09243
1.09304
1.08366
1.07377
1.06598
1.05838
1.05048
1.04001
1.01791
1.00306
0.982526
0.989265
0.99371
0.976887
0.959401
0.95479
0.941432
0.934033
0.925388
0.91611
0.918278
0.879727
0.873129
0.868416
0.860034
0.84349
0.827297
0.822597
0.814471
0.807439
0.803466
0.79625
0.785785
0.788456
0.779225
0.771072
0.761646
0.752367
0.743456
0.731079
0.719565
0.709475
1.41069
1.3961
1.38657
1.37256
1.378
1.37204
1.35971
1.3436
1.3314
1.32039
1.30795
1.29362
1.31341
1.2976
1.28286
1.26853
1.25923
1.25128
1.24691
1.24257
1.20532
1.16967
1.16978
1.16931
1.16016
1.16138
1.15288
1.13919
1.12561
1.14253
1.12342
1.10738
1.09171
1.082
1.10189
1.08952
1.07667
1.06683
1.05642
1.04954
1.04725
1.00272
0.997881
0.998221
0.988965
0.986612
0.988663
0.949401
0.950896
0.942451
0.933151
0.923005
0.911906
0.903196
0.89136
0.880934
0.874179
0.873206
0.831079
0.829367
0.824459
0.817314
0.810753
0.801769
0.794828
0.788583
0.786299
0.776298
0.771159
0.762033
0.751896
0.739977
0.729753
0.720483
0.713374
1.42107
1.39812
1.38817
1.37854
1.37419
1.36788
1.35806
1.34578
1.33363
1.32482
1.31299
1.30297
1.30252
1.29261
1.28167
1.26023
1.27348
1.25804
1.25878
1.2272
1.1861
1.17664
1.16997
1.17132
1.15126
1.16907
1.15689
1.1429
1.13116
1.12996
1.11925
1.10602
1.09293
1.08463
1.09458
1.08925
1.07684
1.06745
1.05215
1.04597
1.03441
1.01015
0.9926
1.00767
0.989076
0.980301
0.974161
0.957067
0.956622
0.945411
0.933587
0.921951
0.908304
0.893751
0.901906
0.88562
0.872867
0.861897
0.843047
0.835896
0.828492
0.81953
0.812994
0.802485
0.791896
0.785148
0.786022
0.780548
0.772178
0.763229
0.752928
0.73468
0.727558
0.719217
0.711607
1.45381
1.39147
1.38625
1.3802
1.37411
1.36719
1.35857
1.34811
1.33661
1.32818
1.31708
1.30817
1.30055
1.29131
1.28378
1.2676
1.26349
1.24837
1.2414
1.2217
1.19841
1.18179
1.16776
1.19627
1.15351
1.15808
1.15309
1.14496
1.13274
1.12581
1.11667
1.10537
1.09202
1.07815
1.09781
1.08735
1.07333
1.06084
1.04823
1.04764
1.03344
1.01306
1.0015
0.995459
0.979597
0.980004
0.968814
0.950592
0.966688
0.947573
0.933868
0.922542
0.912931
0.912449
0.880964
0.879202
0.870059
0.85912
0.847144
0.839566
0.834038
0.819819
0.82015
0.80593
0.786925
0.775569
0.793929
0.783228
0.772093
0.765464
0.762324
0.721972
0.722551
0.716806
0.706306
1.42518
1.40395
1.38969
1.38156
1.37446
1.36814
1.36175
1.35257
1.341
1.32991
1.31919
1.31024
1.30078
1.29125
1.28247
1.27063
1.25844
1.24184
1.23357
1.21906
1.20259
1.18806
1.17797
1.18155
1.16671
1.15851
1.15159
1.1432
1.13274
1.12479
1.1163
1.10655
1.09604
1.08807
1.08788
1.07995
1.06825
1.05443
1.03852
1.05578
1.03622
1.01453
1.00416
0.989012
0.970262
0.986786
0.971179
0.958826
0.959832
0.942779
0.93255
0.922113
0.912233
0.903821
0.88846
0.879058
0.868761
0.857856
0.847156
0.839203
0.849149
0.805735
0.793912
0.797873
0.789158
0.786948
0.784291
0.777708
0.768519
0.76128
0.74594
0.73158
0.724153
0.719039
0.701859
1.41704
1.40477
1.39336
1.38234
1.37424
1.3691
1.36967
1.35839
1.34466
1.3319
1.31974
1.31233
1.3013
1.29046
1.28099
1.27154
1.25281
1.2406
1.23001
1.21794
1.20525
1.19326
1.18373
1.17661
1.16845
1.15875
1.15038
1.14183
1.13228
1.12403
1.11733
1.1087
1.09877
1.09078
1.0837
1.07502
1.06514
1.05468
1.04579
1.04514
1.03321
1.01768
1.00501
0.990113
0.979468
0.978245
0.968829
0.959589
0.952251
0.940055
0.930641
0.920901
0.910677
0.901547
0.890665
0.879251
0.867902
0.856183
0.845264
0.831646
0.849216
0.821856
0.806514
0.799101
0.79116
0.788121
0.77862
0.772192
0.763358
0.754274
0.740493
0.731733
0.727954
0.730321
0.688617
1.41591
1.4037
1.39519
1.38514
1.37563
1.36199
1.38251
1.36403
1.34724
1.33395
1.32057
1.318
1.30398
1.28895
1.28019
1.28013
1.23868
1.23781
1.22919
1.21848
1.207
1.196
1.1867
1.17709
1.16712
1.15755
1.14931
1.14171
1.13044
1.1199
1.12105
1.11231
1.09991
1.09115
1.08255
1.07137
1.06315
1.05492
1.04779
1.04123
1.03215
1.02068
1.00761
0.988669
0.980436
0.973944
0.965474
0.955667
0.947999
0.937925
0.928723
0.919722
0.910214
0.900676
0.890244
0.879128
0.867552
0.854667
0.845431
0.848066
0.838807
0.823062
0.81113
0.800952
0.792176
0.788074
0.77623
0.769601
0.761084
0.748231
0.734989
0.724463
0.726371
0.718512
0.694571
1.41571
1.40446
1.3977
1.38832
1.37971
1.3723
1.37797
1.36209
1.34756
1.33564
1.32553
1.32075
1.31749
1.279
1.27202
1.26744
1.25044
1.24024
1.22961
1.21873
1.20802
1.19687
1.18855
1.17807
1.16547
1.1551
1.14702
1.147
1.12928
1.11033
1.13011
1.11619
1.09826
1.09112
1.08204
1.06739
1.06095
1.05375
1.04699
1.04028
1.0334
1.02672
1.0176
0.976934
0.978607
0.973604
0.962597
0.952635
0.943142
0.934856
0.927546
0.919336
0.910274
0.90075
0.890326
0.879705
0.868052
0.852795
0.84332
0.874246
0.827446
0.819348
0.811022
0.800945
0.792701
0.7859
0.77523
0.768373
0.761692
0.743254
0.729193
0.712858
0.728656
0.70967
0.696375
1.41344
1.40287
1.39825
1.3903
1.38353
1.37813
1.37412
1.36376
1.34528
1.33609
1.32623
1.31779
1.30648
1.2886
1.2761
1.26718
1.25506
1.24209
1.23005
1.21913
1.21085
1.19804
1.18942
1.18035
1.16243
1.15207
1.14008
1.15989
1.13313
1.11492
1.11847
1.11145
1.09991
1.09316
1.07669
1.06582
1.0589
1.05212
1.04606
1.03951
1.03445
1.03542
0.995669
0.987685
0.983211
0.976537
0.958784
0.948909
0.938168
0.931265
0.926374
0.919678
0.910841
0.901623
0.890973
0.880995
0.870685
0.860288
0.853473
0.854167
0.83287
0.819725
0.809807
0.801383
0.791243
0.783107
0.773933
0.767582
0.757793
0.747886
0.729997
0.72084
0.71541
0.699915
0.716281
1.40976
1.4019
1.39744
1.39118
1.38555
1.38017
1.37682
1.37727
1.33622
1.33297
1.32564
1.31709
1.30411
1.29157
1.28079
1.27025
1.25693
1.24309
1.23013
1.22004
1.21258
1.19805
1.1904
1.18093
1.16352
1.15564
1.15213
1.16643
1.13396
1.10479
1.11186
1.10483
1.10011
1.10248
1.06327
1.06276
1.05717
1.04984
1.04474
1.03755
1.02993
1.02105
1.00417
0.99498
0.990162
0.99053
0.947751
0.945811
0.930454
0.925429
0.927502
0.920541
0.912883
0.903995
0.891675
0.881741
0.873321
0.866051
0.861834
0.848362
0.829689
0.815809
0.806613
0.802165
0.787751
0.781484
0.773703
0.766142
0.757005
0.746622
0.735134
0.725167
0.715094
0.709371
0.713458
1.40336
1.39993
1.39817
1.39217
1.38598
1.38039
1.37591
1.36935
1.3519
1.33365
1.32497
1.31628
1.30517
1.29438
1.28526
1.27615
1.25933
1.24304
1.22684
1.21953
1.21166
1.20069
1.19112
1.18136
1.15999
1.15617
1.15125
1.14669
1.13175
1.11943
1.12494
1.09032
1.09301
1.08907
1.07385
1.06519
1.05696
1.04944
1.0429
1.03519
1.02658
1.01522
1.00541
0.998534
0.992871
0.983856
0.957629
0.946213
0.92644
0.913088
0.931372
0.917666
0.918161
0.909846
0.88989
0.88111
0.875109
0.869026
0.863455
0.860352
0.817066
0.809249
0.804668
0.797434
0.787472
0.780938
0.773272
0.766596
0.75803
0.748137
0.73781
0.728851
0.713746
0.712109
0.716254
1.40464
1.4057
1.4032
1.39384
1.38565
1.37896
1.37931
1.37235
1.36854
1.32441
1.32347
1.31578
1.30601
1.29655
1.28935
1.28992
1.26047
1.24505
1.21531
1.21782
1.21215
1.20274
1.19341
1.18411
1.15295
1.15448
1.14855
1.13944
1.12738
1.11885
1.11397
1.10039
1.09359
1.08667
1.07759
1.06697
1.05654
1.0493
1.04195
1.03338
1.02492
1.00953
1.00368
1.00402
0.997323
0.993724
0.949704
0.940045
0.933574
0.920816
0.919199
0.90864
0.928288
0.922775
0.876114
0.875522
0.877773
0.871353
0.861446
0.851357
0.824881
0.812879
0.803716
0.794331
0.786456
0.779642
0.775134
0.769183
0.760287
0.750026
0.739235
0.728116
0.712851
0.704967
0.74291
1.46087
1.42486
1.41185
1.39822
1.38292
1.36893
1.38852
1.37386
1.35839
1.33685
1.32638
1.31665
1.30664
1.29645
1.28586
1.27266
1.24853
1.25671
1.23294
1.22392
1.21568
1.20548
1.19954
1.1542
1.17289
1.15967
1.14901
1.13532
1.12023
1.11461
1.1145
1.10386
1.09416
1.08664
1.08112
1.06798
1.05461
1.04971
1.04228
1.03168
1.02186
1.00735
0.992415
1.01
0.997299
0.98199
0.959219
0.945185
0.935597
0.92605
0.920449
0.91641
0.916541
0.906932
0.882441
0.869035
0.887737
0.875527
0.859602
0.845603
0.828272
0.814966
0.802756
0.790639
0.781021
0.77493
0.779807
0.774622
0.764052
0.75227
0.740696
0.728376
0.714597
0.704572
0.733568
1.45729
1.4334
1.41603
1.40428
1.38701
1.37883
1.37982
1.36925
1.3545
1.34012
1.32831
1.31777
1.30745
1.29668
1.28496
1.27109
1.25595
1.25033
1.23404
1.22631
1.21847
1.20363
1.18762
1.17174
1.17181
1.15851
1.1501
1.13286
1.11335
1.10179
1.11822
1.10371
1.09229
1.08499
1.07991
1.06942
1.05635
1.05145
1.04553
1.03
1.02231
1.01139
1.00154
1.00013
0.990727
0.977242
0.959883
0.947266
0.938541
0.930667
0.924626
0.919216
0.912535
0.902939
0.890314
0.88166
0.880893
0.869923
0.856501
0.843247
0.829207
0.815933
0.801702
0.787883
0.771599
0.761963
0.795196
0.785939
0.765477
0.753825
0.743054
0.732681
0.723559
0.719021
0.721318
1.44879
1.43354
1.41924
1.40721
1.39399
1.3847
1.37729
1.36624
1.35114
1.34068
1.32932
1.31881
1.3086
1.29787
1.28629
1.27119
1.25661
1.24587
1.23385
1.22519
1.2161
1.20302
1.18948
1.17778
1.16922
1.15789
1.14747
1.13293
1.11769
1.10709
1.10425
1.09444
1.0851
1.0862
1.08027
1.07016
1.05647
1.05167
1.04651
1.03185
1.02568
1.01604
1.00557
0.998209
0.98689
0.975115
0.955949
0.947138
0.940518
0.934377
0.92923
0.921311
0.912734
0.903563
0.894844
0.887521
0.877148
0.864757
0.853119
0.841482
0.829614
0.817462
0.800344
0.787309
0.772645
0.762474
0.795627
0.786015
0.768203
0.755606
0.746246
0.737031
0.729059
0.723313
0.719295
1.44496
1.43217
1.42038
1.40826
1.39675
1.38662
1.37817
1.36465
1.3529
1.34153
1.32961
1.31941
1.31023
1.30018
1.29093
1.27078
1.25306
1.24336
1.23338
1.22414
1.21426
1.20344
1.19175
1.17989
1.1692
1.15838
1.14629
1.13347
1.12171
1.11238
1.09575
1.08502
1.068
1.08656
1.08393
1.06622
1.05451
1.05486
1.04936
1.03757
1.02842
1.01954
1.00765
1.00144
0.984078
0.96866
0.951929
0.944273
0.94173
0.938838
0.932428
0.92377
0.914406
0.904735
0.896813
0.896379
0.877665
0.858672
0.849321
0.840109
0.83029
0.822078
0.796728
0.78826
0.779003
0.775393
0.789982
0.77793
0.766057
0.755888
0.748578
0.740137
0.732203
0.7249
0.721852
1.44408
1.43114
1.42066
1.40863
1.39786
1.38774
1.37781
1.3651
1.3546
1.34239
1.32824
1.31896
1.31293
1.30562
1.30376
1.26065
1.25034
1.24031
1.23138
1.22373
1.21465
1.20394
1.19285
1.18175
1.17082
1.15939
1.14583
1.13384
1.12284
1.11335
1.09566
1.08528
1.07249
1.06621
1.08248
1.05575
1.03902
1.06464
1.05381
1.04051
1.02945
1.01413
1.01642
1.01524
0.972889
0.962783
0.945636
0.936617
0.943105
0.94714
0.937451
0.926687
0.916548
0.906235
0.895082
0.918553
0.878088
0.843485
0.844783
0.839346
0.833024
0.831702
0.787554
0.787424
0.782256
0.774081
0.806155
0.7649
0.763313
0.756354
0.748499
0.742538
0.735053
0.725296
0.71941
1.44422
1.43147
1.42097
1.40915
1.3984
1.38797
1.37855
1.36712
1.35576
1.34413
1.32441
1.31527
1.3169
1.30577
1.29338
1.27366
1.25155
1.23771
1.22761
1.22613
1.21656
1.2049
1.19396
1.18351
1.17298
1.1626
1.14377
1.1332
1.12314
1.11183
1.09963
1.08886
1.07844
1.07001
1.06602
1.04858
1.03318
1.05873
1.05156
1.04569
1.02924
1.00685
1.02213
1.00579
0.982075
0.96429
0.945693
0.925933
0.944173
0.962509
0.942429
0.928956
0.91883
0.911401
0.912419
0.885256
0.871235
0.855612
0.847272
0.839478
0.830817
0.820666
0.801261
0.791644
0.784445
0.780954
0.785413
0.772968
0.766551
0.758392
0.750503
0.743289
0.737378
0.724088
0.718547
1.44333
1.4323
1.42159
1.40824
1.39855
1.38851
1.38052
1.36977
1.35603
1.3442
1.32357
1.30913
1.32511
1.30601
1.29022
1.2767
1.2558
1.23503
1.21707
1.23234
1.21811
1.20499
1.19443
1.1853
1.1752
1.17448
1.13356
1.13198
1.12403
1.11209
1.10183
1.09204
1.08258
1.07316
1.0627
1.05053
1.04141
1.03776
1.02883
1.05454
1.03398
1.01684
1.01111
0.99848
0.981688
0.966582
0.952502
0.941961
0.944878
0.949058
0.939344
0.928494
0.918465
0.909619
0.901642
0.886381
0.872161
0.859869
0.849448
0.839634
0.829735
0.81915
0.8054
0.793832
0.783889
0.777447
0.779697
0.778963
0.770387
0.759599
0.751465
0.742059
0.735244
0.725869
0.719489
1.4454
1.43262
1.42433
1.4052
1.39924
1.39006
1.3816
1.37327
1.35792
1.34612
1.32738
1.32197
1.31583
1.29892
1.28479
1.27343
1.25808
1.24384
1.2275
1.22257
1.21325
1.20225
1.19272
1.18505
1.17088
1.1633
1.14624
1.13747
1.12856
1.11086
1.10281
1.09438
1.08596
1.07587
1.06265
1.05206
1.04358
1.03305
1.02306
1.05064
1.03281
1.02036
1.00183
0.99226
0.980297
0.968085
0.957245
0.949332
0.945644
0.942429
0.935436
0.926789
0.917492
0.907239
0.896897
0.885636
0.874325
0.862518
0.850604
0.840306
0.829828
0.820678
0.807348
0.794728
0.780963
0.763454
0.779323
0.794764
0.773839
0.76046
0.750669
0.741364
0.732666
0.724971
0.720093
1.44885
1.43183
1.4235
1.40546
1.3994
1.3913
1.38245
1.3736
1.36243
1.34696
1.3347
1.32962
1.32666
1.28748
1.27791
1.2712
1.25874
1.25187
1.24474
1.2078
1.2072
1.19762
1.18979
1.18184
1.1707
1.16145
1.15061
1.14311
1.14214
1.10056
1.10306
1.09769
1.0909
1.08166
1.06138
1.05229
1.0443
1.03788
1.03415
1.03353
1.02456
1.01474
0.998199
0.987994
0.978092
0.968181
0.959147
0.95187
0.945954
0.940203
0.933214
0.925098
0.916665
0.904387
0.893151
0.885484
0.878285
0.865345
0.850831
0.841501
0.831888
0.82223
0.808521
0.796847
0.785531
0.775433
0.779791
0.782302
0.770386
0.760071
0.750216
0.739969
0.728854
0.720131
0.721586
1.45768
1.42665
1.41812
1.40853
1.40137
1.39278
1.38336
1.37375
1.36346
1.35075
1.33568
1.32992
1.31272
1.29503
1.28189
1.27413
1.25829
1.24949
1.23757
1.2198
1.20744
1.19348
1.18717
1.17947
1.17038
1.16089
1.15114
1.14233
1.1332
1.11306
1.10784
1.10206
1.09786
1.09883
1.05067
1.05033
1.04444
1.04078
1.03888
1.02631
1.01546
1.01089
0.995556
0.984395
0.975836
0.967425
0.959547
0.952862
0.946118
0.939323
0.932287
0.922042
0.915608
0.901712
0.887345
0.882852
0.886359
0.869787
0.851928
0.843467
0.833635
0.823642
0.807392
0.799099
0.789703
0.782276
0.778996
0.776661
0.766448
0.758374
0.749268
0.739429
0.724404
0.707206
0.725162
1.48265
1.41352
1.41404
1.40939
1.40508
1.39596
1.38414
1.37338
1.36266
1.35203
1.33965
1.32733
1.31361
1.29744
1.28361
1.26986
1.25828
1.24771
1.23711
1.22703
1.20243
1.1915
1.18518
1.17858
1.17068
1.16158
1.15126
1.14151
1.13343
1.1161
1.11004
1.1041
1.09991
1.10162
1.05418
1.05408
1.0429
1.04053
1.03719
1.02121
1.01264
1.00611
0.996163
0.981034
0.973524
0.966424
0.959397
0.953045
0.946334
0.938843
0.932159
0.91827
0.911408
0.89933
0.886099
0.876128
0.899409
0.873807
0.857442
0.845136
0.833848
0.821842
0.811172
0.802085
0.791063
0.783629
0.777895
0.772664
0.764616
0.756933
0.748432
0.740445
0.72532
0.713617
0.713311
1.4776
1.40772
1.41018
1.41481
1.41262
1.40189
1.38326
1.37389
1.36333
1.35287
1.34235
1.32885
1.31274
1.29681
1.28555
1.26743
1.25719
1.24597
1.23795
1.23657
1.1904
1.18748
1.18296
1.179
1.17202
1.16283
1.15082
1.1406
1.13224
1.11988
1.11138
1.1044
1.09685
1.08963
1.07476
1.06766
1.03323
1.04004
1.03411
1.02005
1.01174
1.0051
0.993698
0.980101
0.971438
0.964561
0.958589
0.953422
0.94792
0.939331
0.929872
0.917813
0.90822
0.897797
0.889156
0.887717
0.904373
0.866212
0.860006
0.846912
0.836091
0.823717
0.817066
0.804561
0.788563
0.782304
0.777421
0.771338
0.764046
0.7564
0.748165
0.739479
0.727685
0.717614
0.709798
1.43923
1.40986
1.40225
1.43344
1.42635
1.40513
1.38411
1.37453
1.36443
1.35615
1.34323
1.33185
1.31178
1.29148
1.28107
1.26725
1.25677
1.24257
1.23388
1.222
1.20038
1.18579
1.17929
1.1829
1.17547
1.16676
1.14943
1.14024
1.13077
1.12055
1.11124
1.10513
1.09403
1.08537
1.07547
1.0574
1.04373
1.03888
1.05019
1.01451
1.01105
1.00846
0.99003
0.977061
0.967526
0.960947
0.956782
0.95413
0.952103
0.939141
0.928308
0.916415
0.905992
0.894977
0.886193
0.887899
0.885636
0.8803
0.868534
0.849491
0.839482
0.829766
0.827017
0.813899
0.777135
0.779926
0.776796
0.771132
0.764095
0.756036
0.747432
0.738361
0.728739
0.719077
0.710588
1.42555
1.40822
1.40447
1.43849
1.44064
1.39442
1.38722
1.37618
1.36636
1.35891
1.34333
1.34537
1.31185
1.27729
1.27735
1.2655
1.25585
1.23924
1.23021
1.21605
1.20182
1.18069
1.17096
1.19292
1.18003
1.16759
1.15045
1.14027
1.12948
1.11977
1.11143
1.10367
1.09159
1.08283
1.07207
1.05785
1.04288
1.02695
1.0457
1.02449
1.01854
1.02939
0.980693
0.970628
0.962212
0.955978
0.952664
0.953019
0.96903
0.935205
0.928017
0.914014
0.904504
0.892454
0.877835
0.893718
0.876323
0.889007
0.870027
0.853202
0.842753
0.834654
0.835912
0.792372
0.786247
0.783843
0.779174
0.772384
0.76497
0.75653
0.746741
0.737598
0.730083
0.720081
0.710985
1.41569
1.40997
1.41793
1.43036
1.42849
1.40719
1.3948
1.37645
1.36587
1.35689
1.34078
1.33071
1.31267
1.29372
1.28266
1.26238
1.25254
1.24087
1.23104
1.21145
1.19838
1.18195
1.17499
1.18686
1.1797
1.16886
1.14999
1.14039
1.12802
1.11806
1.10938
1.09583
1.09576
1.08177
1.07199
1.06115
1.04309
1.03394
1.03214
1.0191
1.01242
1.04291
0.994398
0.958949
0.955347
0.952341
0.944274
0.936212
0.968471
0.953343
0.947742
0.906896
0.905333
0.895478
0.887712
0.889363
0.880065
0.877538
0.865516
0.852473
0.843528
0.83334
0.823819
0.801734
0.788548
0.789984
0.782915
0.775578
0.767376
0.757848
0.748919
0.738428
0.729267
0.720014
0.710978
1.41342
1.41436
1.42114
1.44239
1.42754
1.41058
1.40732
1.36842
1.36374
1.35149
1.34037
1.32535
1.31512
1.30292
1.29804
1.24794
1.24753
1.24284
1.24212
1.20051
1.19526
1.18245
1.16931
1.19
1.17928
1.16574
1.15257
1.14294
1.12515
1.11604
1.10378
1.08694
1.10371
1.08627
1.0724
1.05952
1.04548
1.03699
1.02959
1.02055
1.01409
1.01476
0.989284
0.969146
0.959874
0.952928
0.943523
0.932345
0.961867
0.953885
0.941454
0.922818
0.913122
0.898278
0.893344
0.887608
0.87928
0.871346
0.860352
0.847525
0.840179
0.834837
0.824123
0.804936
0.782655
0.798279
0.783804
0.780353
0.770089
0.758681
0.750171
0.738069
0.728993
0.719704
0.710502
1.46046
1.43301
1.45156
1.42918
1.41598
1.39943
1.38738
1.37824
1.36652
1.35468
1.33917
1.32876
1.31896
1.30241
1.29554
1.24713
1.24627
1.24062
1.23198
1.21459
1.19983
1.18815
1.17879
1.1813
1.17308
1.16137
1.15176
1.14093
1.12763
1.11634
1.1043
1.09472
1.09449
1.08406
1.07281
1.05856
1.04703
1.03782
1.02982
1.02263
1.0101
1.01353
0.974873
0.967195
0.962728
0.955932
0.953387
0.945097
0.944235
0.942064
0.943178
0.930288
0.917572
0.906133
0.897161
0.889068
0.879143
0.869645
0.857097
0.842128
0.827273
0.845419
0.831889
0.814435
0.792774
0.787324
0.774131
0.781504
0.769033
0.763191
0.753973
0.737505
0.728847
0.719167
0.70987
1.44946
1.42653
1.44746
1.41507
1.40872
1.38815
1.37265
1.38656
1.36822
1.35283
1.34019
1.33169
1.33027
1.28597
1.28034
1.26104
1.25023
1.24145
1.23233
1.22139
1.2055
1.19369
1.18424
1.1779
1.16856
1.15885
1.14921
1.13875
1.12817
1.11756
1.10594
1.09725
1.09027
1.08163
1.07501
1.05871
1.04665
1.03813
1.03059
1.02942
0.987528
0.988416
0.985551
0.975497
0.965231
0.956112
0.959673
0.950235
0.938388
0.93043
0.951067
0.935972
0.921191
0.911164
0.901375
0.892007
0.880064
0.86804
0.856122
0.842973
0.830633
0.833365
0.837871
0.831678
0.787773
0.787076
0.788854
0.75496
0.753054
0.772898
0.754575
0.741018
0.729793
0.71874
0.708198
1.44641
1.43346
1.43324
1.41845
1.41848
1.37763
1.37752
1.37785
1.35984
1.34875
1.33834
1.32869
1.31843
1.29323
1.28128
1.26655
1.25231
1.24255
1.23374
1.22462
1.21409
1.19908
1.18466
1.17731
1.16394
1.15535
1.14629
1.13654
1.1288
1.11838
1.10539
1.09682
1.08904
1.08005
1.07163
1.06049
1.04523
1.03795
1.0254
1.01342
0.990782
0.972384
0.989296
0.984564
0.967093
0.951556
0.971109
0.956186
0.944194
0.938068
0.939746
0.935223
0.921455
0.914461
0.905348
0.895984
0.881925
0.867111
0.856011
0.844517
0.831247
0.816069
0.836971
0.832664
0.80111
0.788752
0.779946
0.763276
0.756651
0.762396
0.754112
0.743382
0.730637
0.717802
0.706743
1.44835
1.43565
1.42705
1.4138
1.40673
1.3902
1.38585
1.38137
1.34266
1.34279
1.33582
1.32726
1.31379
1.2975
1.28404
1.26994
1.2508
1.24207
1.23278
1.22409
1.2188
1.21782
1.17786
1.17383
1.16277
1.15292
1.14533
1.13642
1.12849
1.11692
1.10133
1.09535
1.08859
1.07821
1.06958
1.05977
1.04732
1.03926
1.02151
1.00845
0.993235
0.978422
0.970504
0.989876
0.970448
0.96139
0.96373
0.955853
0.946793
0.942323
0.932032
0.928988
0.929219
0.919659
0.909117
0.900166
0.883779
0.867308
0.856046
0.847991
0.836379
0.823201
0.820118
0.846558
0.793892
0.786871
0.777181
0.76493
0.757347
0.754622
0.757283
0.747599
0.731926
0.714969
0.704403
1.44841
1.43466
1.42713
1.41468
1.4043
1.39074
1.38006
1.36773
1.34998
1.34197
1.3342
1.32757
1.31052
1.29986
1.28748
1.26658
1.25225
1.24218
1.2325
1.22353
1.21634
1.2128
1.20164
1.16784
1.16259
1.15149
1.14608
1.13872
1.13106
1.11026
1.09928
1.09342
1.08875
1.0754
1.06746
1.05774
1.04705
1.03682
1.02443
1.00576
0.995637
0.984648
0.97355
0.973315
0.967597
0.965761
0.961488
0.954368
0.944926
0.93702
0.934021
0.925464
0.942295
0.925207
0.911553
0.900245
0.885413
0.870202
0.852403
0.85531
0.843266
0.828928
0.818824
0.816955
0.799603
0.788713
0.778128
0.764266
0.75284
0.743505
0.764876
0.752513
0.734396
0.709449
0.703461
1.45077
1.43573
1.4275
1.41641
1.4043
1.38841
1.37515
1.36246
1.3507
1.33854
1.33073
1.32545
1.31397
1.30436
1.29967
1.25549
1.25097
1.2418
1.23113
1.22021
1.20993
1.20159
1.19954
1.18295
1.16918
1.1568
1.14893
1.14115
1.13269
1.10542
1.09691
1.08941
1.08932
1.07745
1.06707
1.05669
1.046
1.03528
1.02337
1.00939
0.998279
0.989243
0.973738
0.961158
0.964634
0.96634
0.963043
0.955889
0.944185
0.932838
0.949846
0.939053
0.935164
0.924289
0.911584
0.900614
0.88886
0.874409
0.849693
0.869237
0.850796
0.830212
0.81354
0.806053
0.797363
0.788634
0.779895
0.76374
0.755551
0.750343
0.753436
0.74931