/*--------------------------------*- C++ -*----------------------------------*\
  =========                 |
  \\      /  F ield         | OpenFOAM: The Open Source CFD Toolbox
   \\    /   O peration     | Website:  https://openfoam.org
    \\  /    A nd           | Version:  12
     \\/     M anipulation  |
\*---------------------------------------------------------------------------*/
FoamFile
{
    format      ascii;
    class       surfaceScalarField;
    location    "0.6";
    object      phi.water;
}
// * * * * * * * * * * * * * * * * * * * * * * * * * * * * * * * * * * * * * //

dimensions      [0 3 -1 0 0 0 0];

internalField   nonuniform List<scalar> 
7375
(
-1.94306e-07
7.40012e-08
-1.13967e-07
-3.78891e-08
-8.11816e-09
-9.77945e-08
2.46635e-08
-3.30143e-08
7.10576e-08
-4.59299e-08
9.76484e-08
-2.58766e-08
9.53862e-08
2.2892e-09
1.12161e-07
-1.66096e-08
1.09048e-07
3.10014e-09
1.11321e-07
-2.31284e-09
1.282e-07
-1.57542e-08
1.90924e-07
-6.3352e-08
1.42671e-07
4.58185e-08
1.35618e-07
7.00029e-09
1.35557e-07
7.58117e-11
1.34196e-07
1.01193e-11
1.44598e-07
-8.94126e-09
1.44863e-07
1.23609e-09
1.52388e-07
-9.01788e-09
1.58904e-07
-4.88598e-09
6.53311e-08
-2.68969e-08
1.85639e-07
1.90438e-10
1.64411e-07
1.78348e-08
1.34033e-07
3.00745e-08
1.26367e-07
8.92762e-09
1.31426e-07
-5.06826e-09
2.05603e-07
-7.49439e-08
1.45749e-07
6.07321e-08
1.23564e-07
2.20211e-08
1.32737e-07
-1.04335e-08
1.39624e-07
-8.30885e-09
1.40465e-07
-2.23607e-09
1.4498e-07
-3.06597e-09
1.50465e-07
-4.0492e-09
1.63906e-07
-1.17505e-08
1.77135e-07
-1.33896e-08
2.07499e-07
-3.43166e-08
2.21478e-07
-1.60537e-08
2.05815e-07
1.77202e-08
1.9752e-07
1.03855e-08
2.02135e-07
-6.65489e-09
2.1239e-07
-1.02546e-08
2.35674e-07
-1.66836e-08
2.33059e-07
2.64254e-09
2.40102e-07
-1.17954e-08
2.26292e-07
1.3659e-08
2.03783e-07
2.22657e-08
1.77872e-07
2.56173e-08
1.48565e-07
2.92716e-08
1.33333e-07
1.51965e-08
1.30322e-07
4.29043e-09
1.3292e-07
-2.64848e-09
1.42449e-07
-9.46385e-09
1.44529e-07
-2.02359e-09
1.14813e-07
2.94203e-08
3.95816e-07
8.27628e-08
1.18434e-07
-8.76357e-08
1.5555e-07
-3.71022e-08
1.68743e-07
-1.30408e-08
1.7555e-07
-4.95531e-09
5.67856e-08
-2.35275e-09
1.42945e-07
3.32915e-08
9.43999e-08
4.94892e-08
3.67421e-07
8.78418e-08
8.52772e-08
-7.9677e-08
1.08402e-07
-2.20405e-08
1.21386e-07
-1.18853e-08
1.2573e-07
-3.08108e-09
1.13369e-07
1.23661e-08
1.25896e-07
-1.38382e-08
1.1618e-07
1.09081e-08
1.20855e-07
-4.75037e-09
1.20444e-07
-8.44835e-10
1.23807e-07
-3.33517e-09
2.80179e-08
-2.65376e-08
4.89112e-08
1.73879e-09
-6.04648e-08
-1.64651e-08
-7.95102e-08
2.39642e-08
-7.29436e-08
1.90301e-08
-4.10448e-08
2.17568e-08
-2.81868e-08
3.67967e-08
-1.32664e-08
4.11826e-08
-2.15846e-08
4.16219e-08
3.47057e-09
4.13989e-08
-1.66268e-09
4.10938e-09
2.11514e-08
2.40955e-07
6.17182e-08
1.80883e-08
-9.03709e-08
7.29124e-08
-4.88705e-08
8.94053e-08
-1.65833e-08
9.71314e-08
-6.81256e-09
1.00012e-07
-1.19422e-08
1.13179e-07
-1.19423e-08
1.07174e-07
-1.83904e-09
9.95904e-08
2.67039e-09
7.1793e-08
1.92741e-09
1.23198e-07
-5.04662e-08
1.12536e-07
2.63388e-08
4.18781e-08
9.84826e-08
2.86225e-08
2.26064e-08
1.04414e-08
1.35117e-08
2.39033e-07
5.77885e-08
2.93531e-08
-8.87381e-08
6.21941e-08
-1.08554e-08
6.34498e-08
-1.10546e-08
7.43979e-08
-2.00159e-08
7.04705e-08
9.47636e-10
7.61256e-08
-7.27165e-09
6.58496e-08
6.93997e-09
6.28711e-08
-8.80249e-09
6.78711e-08
-1.80654e-08
1.51143e-07
-1.21058e-07
1.41432e-07
-8.01472e-09
1.19436e-07
4.09102e-08
9.95858e-08
3.01311e-08
1.16552e-07
-2.38622e-08
1.29964e-07
-1.97297e-08
1.34736e-07
-2.14556e-08
1.572e-07
-2.26245e-08
1.7674e-07
-3.34799e-08
2.03574e-07
-1.52307e-08
2.09206e-07
1.65762e-08
1.94224e-07
4.22849e-08
1.71634e-07
5.32993e-08
1.57831e-07
2.71127e-08
1.52533e-07
9.58818e-09
1.44292e-07
7.17574e-09
1.47593e-07
-1.44174e-08
2.02165e-07
-5.65747e-08
1.58463e-07
7.44257e-08
2.10279e-07
3.22472e-08
1.52655e-07
-3.00115e-08
1.50979e-07
-3.85241e-08
1.60272e-07
-2.41966e-08
1.68646e-07
-1.35499e-08
1.48425e-07
1.95949e-08
1.56987e-07
2.62431e-08
1.63856e-07
4.47487e-08
1.97209e-07
5.56164e-08
9.56057e-08
1.80867e-08
7.62516e-08
-3.87449e-09
7.00599e-08
-4.96648e-09
6.41858e-08
2.79304e-09
6.87277e-08
8.31442e-09
6.13455e-08
-6.45579e-09
6.97031e-08
2.63581e-09
5.82898e-08
6.71163e-09
6.05261e-08
-3.67623e-09
5.4976e-08
2.23751e-09
5.37145e-09
-9.39101e-08
2.90249e-08
-3.64563e-08
-1.02141e-07
-1.1509e-07
-1.19175e-07
9.17598e-10
-6.89846e-08
-1.33542e-08
-2.71778e-08
-2.09262e-08
-2.11802e-08
-2.52897e-08
-9.12036e-09
-4.08551e-08
-5.6174e-09
-4.91981e-08
1.22265e-08
-8.41923e-08
3.31856e-08
-5.99483e-08
-3.30784e-09
-9.54847e-09
1.06892e-08
-7.18056e-08
-2.97678e-08
-4.03639e-08
-8.25164e-08
-9.22948e-08
3.59575e-08
-9.23313e-08
-6.84499e-09
-8.6236e-08
-1.8223e-08
-9.31043e-08
-4.28923e-09
-7.17885e-08
-2.24295e-08
-7.6407e-08
5.79275e-09
-1.25337e-07
4.92868e-08
7.36457e-08
1.1691e-07
6.66004e-08
3.16675e-08
-1.37444e-07
-5.30552e-08
-1.01549e-07
-1.44597e-08
-8.52077e-08
-2.82954e-09
-3.40505e-08
6.04201e-09
-8.76163e-08
-3.73523e-08
-8.77408e-08
-1.0732e-08
-7.86908e-08
-1.92093e-08
-7.67942e-08
-2.1129e-08
-5.78418e-08
-1.79951e-08
-4.06301e-08
-2.47332e-08
-2.81441e-08
-5.55998e-09
-2.36455e-08
-1.33471e-08
-4.24571e-08
4.99828e-10
2.02157e-07
-2.43415e-10
1.51035e-07
3.93849e-08
-3.01248e-09
-1.64223e-07
2.04216e-08
6.80405e-09
4.85964e-08
-5.3121e-08
8.75843e-08
-5.92085e-08
8.9891e-08
-2.24312e-08
9.76704e-08
-2.94077e-08
9.73082e-08
-3.31178e-08
9.88343e-08
-1.7905e-08
9.61221e-08
1.84768e-08
9.80401e-08
3.98038e-08
8.8449e-08
6.29871e-08
7.40343e-08
4.28533e-08
4.6081e-08
3.87903e-08
2.17006e-08
3.17775e-08
-2.00595e-08
2.73426e-08
2.09602e-07
7.13301e-08
-1.32687e-09
-7.10862e-08
6.11809e-08
-3.0274e-08
6.16429e-08
-3.01674e-08
3.6032e-08
-1.26747e-08
7.52427e-09
4.13931e-09
-1.43554e-08
8.11259e-09
-2.08413e-08
2.61603e-08
-2.5491e-08
3.06328e-08
-3.49275e-09
2.27505e-08
8.95866e-08
-3.79947e-08
-6.96499e-08
5.71131e-08
-1.55243e-08
6.18275e-08
-4.82616e-08
2.77708e-08
-3.34481e-08
-1.11868e-08
-1.70819e-08
-8.05173e-09
-2.78856e-08
4.28332e-09
-1.68266e-08
-8.42311e-09
-2.14538e-08
1.127e-08
-2.40936e-08
-1.29603e-09
-3.62861e-08
1.44299e-08
-1.23387e-09
-7.57543e-08
1.63586e-08
-7.63203e-08
-8.46922e-08
-1.10284e-08
-1.83882e-07
-5.96764e-08
-2.09275e-08
-6.19573e-08
-2.58059e-08
-5.32231e-08
-3.07799e-08
-5.95266e-08
-2.7874e-09
-7.9897e-08
1.52674e-08
-6.54022e-08
-1.97509e-09
-1.7594e-07
2.22319e-08
-9.9062e-08
4.16351e-08
-1.19224e-07
3.11694e-08
-1.87071e-07
3.3917e-08
1.27834e-08
8.53101e-08
-2.51219e-07
-6.34375e-08
-2.16464e-07
-4.12448e-08
-1.92439e-07
-4.4231e-08
-2.9102e-07
-2.49873e-08
-1.90249e-07
-4.3339e-10
-1.85138e-07
-1.14764e-09
-1.58432e-07
2.2073e-08
-7.19163e-08
3.08184e-08
-5.4587e-08
1.45725e-08
-9.32272e-08
-1.49505e-08
-9.75067e-08
-1.1131e-08
-9.99637e-08
-3.72189e-10
-8.69808e-08
-7.82802e-09
-1.05624e-07
-1.76198e-08
-9.74432e-08
-1.75608e-08
-9.17788e-08
-2.58677e-08
-8.12383e-08
-3.16694e-08
-7.19374e-08
-2.74796e-08
-7.44211e-08
-2.17117e-08
-6.38656e-08
-1.61717e-08
-7.88669e-08
1.00265e-09
-1.10009e-07
2.9705e-08
1.53731e-07
1.03596e-07
-1.15773e-07
-5.59072e-08
8.13096e-08
-4.95533e-11
-1.11044e-07
-1.59157e-07
-5.73638e-08
-1.06303e-07
1.90427e-08
-1.37032e-07
-2.30709e-08
1.96823e-08
-7.28934e-09
-4.4733e-08
-2.6751e-08
-1.34557e-08
-4.31223e-08
-1.53386e-09
-6.2731e-08
3.80854e-08
-6.85498e-08
4.6503e-08
-5.5784e-08
5.02948e-08
-6.50338e-08
5.18745e-08
-7.40521e-08
4.84788e-08
-7.637e-08
3.52102e-08
-6.614e-08
1.68336e-08
5.54389e-10
4.58896e-09
-5.05308e-08
-2.07262e-08
-3.97784e-08
-4.14492e-08
1.01527e-08
-8.08193e-08
-5.42456e-08
5.17236e-08
-5.62534e-08
6.65834e-09
-5.89806e-08
1.13587e-08
-5.37827e-08
2.07529e-08
-5.96954e-08
3.59969e-08
-8.43975e-08
4.72205e-08
1.37641e-07
1.00044e-07
-1.58167e-07
-7.15614e-09
-6.47834e-08
-3.1556e-08
-5.74105e-08
2.01145e-08
-6.77594e-08
-8.46497e-10
-6.66136e-08
-9.95926e-09
-7.93531e-08
1.70229e-08
-1.00499e-07
1.36722e-08
-9.08107e-08
6.54398e-10
-1.01838e-07
9.6317e-09
-8.63446e-08
-1.72267e-10
7.69764e-09
-4.35146e-08
-4.87532e-08
-1.67258e-07
-8.73108e-08
1.41829e-07
1.13598e-08
-1.13569e-07
-1.285e-07
-6.17057e-08
-7.82982e-08
-2.35841e-08
-6.85838e-08
1.71937e-08
-4.30322e-08
5.68147e-08
-2.53369e-08
6.71059e-08
-1.2496e-08
7.01384e-08
1.9653e-08
8.31621e-08
3.01758e-08
6.50261e-08
4.81395e-08
3.78591e-08
6.00454e-08
7.01827e-08
5.09375e-08
-3.90839e-08
4.76602e-08
-6.88139e-08
-1.1913e-08
-8.55982e-09
-1.04033e-07
-9.21251e-08
5.82393e-08
-8.85392e-08
-4.0189e-09
-8.93251e-08
-3.61239e-10
-7.50337e-08
7.55677e-09
-5.12765e-08
7.06161e-09
-4.33315e-08
6.6278e-09
-5.11015e-08
-7.33263e-09
-5.72705e-08
-4.96173e-09
-5.75445e-08
-9.79503e-11
-6.29869e-08
-2.4099e-09
-5.53774e-08
-2.44844e-08
-5.63367e-08
-1.67787e-08
-6.99222e-08
-1.28567e-08
-8.3094e-08
-1.86882e-08
-7.47101e-08
-3.66257e-08
-8.44435e-08
-1.19783e-08
-7.92512e-08
-2.04587e-08
-8.6768e-08
7.55706e-09
-7.61311e-08
1.88735e-08
-4.29187e-09
3.01125e-08
-3.13162e-08
-2.89076e-08
-9.73279e-08
-5.53001e-08
-6.63598e-08
-7.00531e-08
-1.17339e-07
-5.54354e-08
1.04446e-07
3.76212e-09
-2.12484e-07
-1.42388e-07
-1.00919e-07
-3.81188e-08
-1.04019e-07
-1.12797e-08
-1.25202e-07
2.09231e-08
-1.14911e-07
2.66222e-08
-1.15538e-07
4.71299e-08
-7.21631e-08
8.09872e-09
-5.31428e-08
3.23249e-08
-5.9267e-08
5.29636e-08
-6.70225e-08
4.29656e-08
-6.0866e-08
1.19818e-08
9.83013e-10
-5.78442e-08
-7.47818e-08
5.42858e-08
-1.24253e-07
6.74123e-09
8.9021e-08
7.09755e-08
-1.51784e-07
-6.89834e-08
-1.1123e-07
-3.3896e-08
-1.02504e-07
3.67842e-09
-1.01662e-07
2.01205e-08
-9.72699e-08
3.05676e-08
-8.61642e-08
3.61148e-08
-1.90293e-08
3.25766e-08
-1.57683e-07
1.14724e-08
-8.54581e-08
1.64115e-08
-9.23687e-08
2.60828e-08
-1.07485e-07
1.42695e-08
-1.11301e-07
-5.09811e-09
-1.11846e-07
1.62528e-08
-2.07359e-07
-1.20772e-08
-9.91092e-08
1.5399e-08
-9.37967e-08
4.22128e-09
-7.61805e-08
-1.87455e-08
6.60006e-09
-4.81737e-11
-1.73405e-07
-1.61909e-08
-6.91801e-08
1.37748e-09
-5.22049e-09
-8.01102e-08
-4.70259e-08
-1.00132e-07
-5.82756e-08
-1.21509e-07
-4.52681e-08
-1.17451e-07
-4.82754e-08
-8.86398e-08
-5.65332e-08
-6.29935e-08
-3.6976e-08
-3.727e-08
-5.22696e-09
-2.28477e-08
1.59871e-08
-1.46482e-08
3.94543e-08
-8.87268e-09
5.47334e-08
-8.8233e-09
5.13182e-08
-1.05057e-07
2.28869e-08
-1.53305e-07
3.74079e-08
1.08073e-07
1.13588e-07
-1.11251e-07
-7.88757e-08
-7.89151e-08
-3.74899e-08
-6.6013e-08
-1.32629e-08
-5.31219e-08
-5.28003e-09
-4.49436e-08
-1.11627e-09
-3.42051e-08
-4.11041e-09
-3.94774e-08
-2.03917e-09
-3.53792e-08
-9.05965e-09
-3.97905e-08
3.90772e-09
-5.47475e-08
1.25473e-08
-7.78481e-08
-8.33571e-10
-7.441e-08
-2.03879e-08
-5.68457e-08
-3.10009e-08
-1.37582e-07
-5.98307e-08
-4.21839e-08
-1.0488e-08
-3.94234e-08
-1.40708e-08
-2.60328e-08
-3.39291e-08
-3.30981e-09
-1.53954e-08
2.90337e-08
-1.39873e-08
5.46303e-08
4.25728e-09
4.58996e-08
-1.98255e-08
-6.70271e-09
-1.66545e-09
-5.13161e-08
-2.54398e-08
-8.46991e-08
-2.28512e-08
-5.11251e-08
-2.98504e-08
-1.50533e-07
-4.14443e-08
-1.381e-07
-5.00476e-08
-8.41151e-08
-6.80828e-08
-1.43229e-07
7.83618e-08
-1.3494e-07
1.99984e-08
-2.27007e-07
1.88832e-08
-1.02826e-07
3.94374e-09
-5.31237e-08
-1.68357e-08
-1.06598e-07
1.06437e-07
-1.17334e-07
5.21765e-08
-1.48146e-07
4.12823e-08
8.66146e-08
6.98669e-08
-1.42327e-07
-7.77325e-08
-6.31173e-08
-7.32853e-08
-5.02877e-08
5.74219e-08
-1.03527e-07
-1.57445e-08
-6.05893e-08
-7.68332e-08
-1.04282e-07
4.73715e-08
-1.23068e-07
3.91118e-08
-1.20045e-07
2.7544e-08
-1.1836e-07
3.5278e-08
-1.07899e-07
2.2341e-08
-1.21328e-07
2.25625e-08
-1.29442e-07
2.45254e-08
-1.231e-07
2.10616e-08
-1.34391e-07
2.40442e-08
-1.4333e-07
3.8406e-09
-1.21374e-07
-4.24142e-09
-1.29888e-07
-2.11419e-09
-1.07485e-07
-7.00528e-09
-8.94774e-08
-1.48399e-08
-1.08181e-07
1.06109e-09
-4.26123e-08
1.38781e-07
1.39653e-07
9.37697e-08
-5.3581e-08
-7.60271e-08
-2.01564e-07
-1.14566e-07
-9.26243e-09
-1.38326e-07
-3.41664e-08
-1.38905e-07
-4.51492e-08
-1.33739e-07
-5.39335e-08
-1.33656e-07
-5.46762e-08
-1.2204e-07
-4.87099e-08
-1.19031e-07
-9.4806e-09
-1.08413e-07
5.36983e-09
-8.74793e-08
1.91185e-08
-7.02236e-08
3.74781e-08
-6.38611e-08
4.51471e-08
-7.54645e-08
3.42596e-08
-5.16545e-08
1.28285e-08
-4.8299e-08
-9.89378e-09
-7.30769e-09
-6.45649e-10
-3.83531e-08
-6.44402e-09
-4.44987e-08
-6.66289e-09
-3.49555e-08
-1.48229e-08
-3.13963e-08
-5.03164e-09
-1.72406e-08
-1.80899e-08
-5.25586e-09
-1.40236e-08
-8.79613e-09
-5.63014e-09
-5.94912e-09
1.05025e-09
1.13671e-09
5.29135e-09
-1.2015e-07
-8.17584e-10
-1.06821e-08
-8.60452e-09
-2.19939e-08
-1.99133e-08
-4.9472e-08
-3.09074e-08
-2.91359e-08
-3.00302e-08
-1.841e-08
-2.52769e-08
-2.46435e-08
-2.82351e-08
-2.49256e-08
-1.50191e-08
-5.23567e-08
1.34381e-08
-3.40631e-08
-1.44883e-08
-5.69554e-08
2.86228e-09
-6.34564e-08
5.36184e-09
-7.11065e-08
-1.83282e-08
-9.10353e-08
-2.92259e-09
-9.79387e-08
-2.22453e-08
-1.35422e-07
-5.34295e-09
-2.02766e-07
1.45413e-08
2.0187e-08
7.39318e-08
-2.21711e-07
-3.94153e-08
-1.97045e-07
-8.98323e-09
-1.77204e-07
1.06152e-09
-1.38697e-07
-3.30931e-08
4.97882e-08
1.54756e-07
-1.72403e-07
-3.00556e-08
-1.15022e-07
-5.25823e-09
-9.48766e-08
2.21048e-08
-4.80036e-08
2.25157e-08
-1.53025e-07
2.54983e-08
9.91102e-08
3.83675e-08
-8.90688e-08
-1.15487e-07
-1.72991e-07
6.81774e-08
7.58845e-08
3.43684e-08
-1.17772e-07
-1.19049e-07
-1.37644e-07
5.89841e-08
-1.40791e-07
3.21274e-08
-1.16868e-07
1.00729e-08
-1.09728e-07
1.42275e-08
-1.05298e-07
1.92518e-08
-1.12553e-07
3.15294e-08
-9.63112e-08
4.82021e-09
-9.50252e-08
2.25283e-08
-9.90447e-08
7.82098e-09
-9.95652e-08
-3.72105e-09
-9.6872e-08
-4.80752e-09
-8.62145e-08
-1.77346e-08
-7.47546e-08
-2.63005e-08
-1.49855e-07
-4.23351e-08
-2.61599e-08
2.75726e-08
-1.06557e-08
-6.92503e-08
4.182e-08
7.60788e-08
2.29119e-08
-1.95683e-07
-9.71331e-08
-1.66271e-07
-6.59232e-08
-1.64641e-07
-4.79974e-08
-1.46517e-07
-7.03773e-08
-1.3284e-07
-6.97083e-08
-9.41181e-08
-8.79336e-08
-1.38517e-07
3.58789e-08
-1.45759e-07
1.11255e-08
-1.19227e-07
-7.33804e-09
-9.15999e-08
1.20026e-08
-6.65153e-08
1.98624e-08
-4.46817e-08
1.19752e-08
-4.66194e-08
1.41467e-08
-5.86514e-08
2.11694e-09
-5.12119e-08
-7.48642e-09
-4.90372e-08
-8.5313e-09
-4.865e-08
-6.97843e-09
-5.14534e-08
-1.21704e-08
-3.7981e-08
-1.83168e-08
-3.43016e-08
-2.1769e-08
-2.20433e-08
-2.66495e-08
-2.36428e-08
-3.74798e-09
-1.04422e-08
-1.1806e-08
2.94267e-08
-3.47363e-08
-9.42588e-08
1.93708e-09
2.37811e-08
-5.65702e-09
-2.14829e-09
6.03813e-09
-3.84596e-08
5.77435e-09
-2.24354e-08
-4.6753e-08
-3.50568e-08
-1.27829e-08
-5.16066e-08
-1.13973e-08
-5.99953e-08
-7.24239e-09
-1.76827e-07
7.18417e-09
-8.9358e-08
2.11282e-08
-8.79774e-08
3.26154e-09
-7.22146e-08
-9.67176e-09
-6.16921e-08
-2.98819e-08
-5.18659e-08
-1.38776e-08
-6.45914e-08
-9.51999e-09
-6.67762e-08
-1.8181e-09
-8.00224e-08
2.76406e-08
-6.52126e-08
5.75513e-08
-1.14035e-07
9.00504e-09
-1.36454e-07
1.49194e-08
-1.54097e-07
1.71371e-08
8.24579e-08
9.25519e-08
-1.8323e-07
-5.86304e-08
-1.12181e-07
1.65763e-08
-1.1519e-07
-3.40534e-09
-1.0468e-07
1.1702e-08
-1.03614e-07
2.06138e-08
-2.07483e-07
9.26761e-09
-1.17623e-07
6.95491e-08
6.70811e-08
5.98857e-08
-2.60263e-07
-8.45805e-08
-1.34509e-07
2.89354e-08
7.73614e-08
2.91569e-08
-1.64218e-07
-5.9513e-08
-1.29872e-07
-8.9329e-10
-9.65621e-08
-2.31357e-08
-9.36822e-08
1.02173e-08
-8.83451e-08
1.39147e-08
-6.96527e-08
1.27072e-08
-7.90201e-08
1.49938e-08
-6.60835e-08
9.59158e-09
-6.38311e-08
4.89437e-09
-5.9706e-08
-7.84618e-09
-6.51516e-08
6.37869e-10
-6.41358e-08
-1.87509e-08
-7.22204e-08
-1.82165e-08
-8.39398e-08
-3.0616e-08
-8.41891e-08
1.19636e-07
4.07311e-07
-6.04298e-08
1.98009e-07
-1.71458e-08
-1.6868e-08
-1.07686e-07
-7.69159e-09
-1.47057e-07
-2.57153e-08
-1.57342e-07
-3.57419e-08
-1.63689e-07
-6.63119e-08
-1.41959e-07
-9.14375e-08
4.60571e-08
8.50241e-08
-1.81752e-07
-9.54146e-08
-2.23365e-07
-6.50086e-08
-1.04742e-07
-7.07245e-09
-8.87045e-08
-4.2416e-09
-5.48789e-08
-1.3208e-08
-4.52961e-08
2.296e-09
-4.78547e-09
-2.6505e-08
1.49214e-08
-1.76592e-08
1.5497e-08
-8.06749e-09
2.28005e-08
-1.62285e-08
3.67979e-08
-2.05378e-08
3.84069e-08
-1.3656e-08
4.35475e-08
-2.34569e-08
4.23375e-08
-2.01144e-08
4.38578e-08
-2.86169e-08
4.76442e-08
-7.4963e-09
3.8068e-08
-1.49074e-09
-1.95758e-08
2.25807e-08
-3.63222e-08
1.8673e-08
-3.28747e-08
-8.64558e-09
-1.54228e-08
-1.1571e-08
-1.30796e-07
-5.55518e-11
-4.86051e-08
-7.08803e-09
-5.66295e-08
-4.75848e-09
-7.25629e-08
3.99919e-09
-9.50076e-08
1.55189e-08
-1.00708e-07
1.28109e-08
-9.04022e-08
1.0607e-08
-9.17473e-08
4.60654e-09
-1.02284e-07
-2.76932e-10
-1.09828e-07
-2.2646e-08
-9.35716e-08
-2.9014e-08
-8.80995e-08
-1.47447e-08
-9.08559e-08
9.47956e-10
-7.58102e-08
1.28767e-08
-1.61523e-07
2.34775e-08
-8.28499e-08
5.03579e-08
-1.04267e-07
3.63361e-08
-9.16249e-08
4.67e-09
-3.38879e-08
3.35286e-08
-9.99263e-08
7.40807e-09
-8.6797e-08
3.61599e-09
-8.97311e-08
-4.36495e-10
-8.38416e-08
5.81247e-09
-8.48992e-08
2.0595e-08
-1.02216e-07
2.75427e-08
-6.46861e-08
3.30512e-08
-2.58749e-08
2.04146e-08
-9.63921e-08
-1.50467e-08
-1.0874e-07
-7.99798e-08
-3.4286e-08
7.58383e-08
-1.02145e-07
8.34575e-09
-9.88841e-08
-4.15389e-09
-1.16164e-07
-6.15439e-09
-9.30331e-08
-1.29139e-08
-8.64791e-08
8.15964e-09
-6.99115e-08
-3.86039e-09
-6.9576e-08
1.39449e-08
-5.9803e-08
-8.36567e-11
-6.57344e-08
1.08258e-08
-7.63183e-08
2.7376e-09
-7.48793e-08
-8.01291e-10
-8.66921e-08
-6.93867e-09
-1.00242e-07
-4.66708e-09
-1.4128e-07
9.07329e-09
5.82404e-08
-2.28759e-07
-7.59739e-08
-1.69769e-07
3.97542e-08
-4.15265e-08
-1.21024e-08
-7.75814e-08
2.9512e-08
-8.0989e-08
-2.20451e-08
-7.82248e-08
-3.96683e-08
-1.15616e-07
-2.89202e-08
1.08889e-07
4.48563e-08
-7.14284e-08
-9.30568e-08
-8.30206e-08
-8.3822e-08
-1.08465e-07
-4.00025e-08
-8.04152e-08
-3.56508e-08
-7.68013e-08
-7.77499e-09
-6.01901e-08
-2.917e-08
-1.43808e-07
-3.29565e-08
-5.35374e-08
1.77018e-09
-4.68377e-08
-2.53433e-08
-4.72674e-08
-8.1196e-09
-5.29896e-08
-1.0127e-08
-5.58379e-08
-1.69689e-08
-4.18514e-08
-2.8206e-08
-3.77306e-08
-2.82437e-08
-4.49662e-08
-1.28784e-08
-5.29038e-08
-2.08921e-08
-7.11495e-08
9.94735e-09
-7.62725e-08
2.84637e-09
-1.73095e-07
4.73657e-10
-6.03999e-08
2.69606e-08
-6.46016e-08
-5.10522e-09
-6.63667e-08
-1.05727e-08
-8.26017e-08
1.61801e-08
-9.16038e-08
1.93384e-09
-1.04654e-07
7.17543e-09
-1.11651e-07
8.60561e-09
-2.15645e-07
-1.84973e-09
-1.33963e-07
5.55544e-08
-1.38038e-07
1.46824e-08
-1.35146e-07
1.71387e-09
-1.30814e-07
-4.56224e-09
-1.40432e-07
-1.27965e-08
-1.29841e-07
-3.82808e-08
-1.21591e-07
-2.44697e-08
-1.30986e-07
9.08937e-09
-1.32834e-07
1.47056e-08
-1.32103e-07
2.27464e-08
-9.49557e-08
1.45584e-08
-9.4387e-08
3.57674e-08
-9.28378e-08
4.06785e-09
-1.48193e-08
-4.449e-08
-6.82541e-08
6.06917e-08
-6.05693e-08
-4.0688e-09
-5.23067e-08
-8.69912e-09
-4.94283e-08
2.93398e-09
-4.23651e-08
1.35318e-08
-4.34618e-08
2.83584e-08
-4.62398e-08
3.61663e-08
-5.13152e-08
2.549e-08
-9.84638e-08
3.21019e-08
1.08475e-07
7.39744e-08
-1.32476e-07
-4.37339e-08
-9.24198e-08
-3.17104e-08
-8.21765e-08
-1.52355e-08
-1.88006e-07
-2.15879e-08
-9.04119e-08
1.23581e-08
-9.0396e-08
8.06227e-09
-8.70916e-08
-8.12636e-09
-8.17335e-08
8.58672e-09
-8.08571e-08
-9.60047e-10
-7.38606e-08
3.79055e-09
-7.63119e-08
5.18881e-09
-7.1198e-08
-5.91544e-09
-8.8065e-08
9.92789e-09
-9.2846e-08
-8.33902e-10
-1.04349e-07
2.05762e-08
2.27233e-08
-1.42661e-07
-2.79863e-08
-9.65515e-08
2.5792e-08
-8.75339e-08
-1.61341e-08
-5.61775e-08
-9.41905e-10
-4.54359e-08
-3.18879e-08
-3.1852e-08
-5.32519e-08
2.71725e-08
-8.88328e-08
3.93655e-08
3.22661e-08
-2.3547e-08
-2.97463e-08
-6.62744e-08
-4.15135e-08
-4.13873e-08
-6.38267e-08
-3.74401e-08
-4.00419e-08
-3.49042e-08
-1.061e-08
-3.35503e-08
-3.15436e-08
-7.10656e-08
4.55924e-09
-4.28903e-08
-2.60992e-08
-7.26271e-08
4.43967e-09
-8.36856e-08
3.68025e-09
-8.50086e-08
-9.56751e-09
-1.68877e-07
-5.45378e-08
-8.30972e-08
7.47522e-09
-1.16602e-07
5.31524e-09
-1.10849e-07
-1.97612e-08
-1.15475e-07
-1.62659e-08
-1.18466e-07
1.41162e-08
-1.24018e-07
9.63557e-09
-1.35067e-07
1.15172e-08
-1.10564e-07
2.29988e-10
-1.2272e-07
5.73352e-09
-1.48136e-07
1.61078e-08
-1.58275e-07
2.62156e-08
-1.6655e-07
1.03154e-08
-1.6025e-07
4.16713e-09
-1.33588e-07
-1.8143e-08
-8.75849e-08
-4.91784e-08
-1.06514e-07
7.37317e-08
-1.12357e-07
2.05248e-08
-1.30713e-07
2.16242e-08
-1.042e-07
-3.10752e-08
-1.0619e-07
-1.18699e-08
-1.11557e-07
-3.40515e-08
-5.9721e-08
-7.65584e-08
-9.82888e-08
4.76872e-08
-1.18771e-07
3.51881e-08
-1.1431e-07
1.80532e-08
-9.30632e-08
-6.75782e-09
-9.85857e-08
4.08728e-08
-1.57271e-07
6.34003e-08
9.97176e-08
5.75565e-08
-1.37209e-07
-6.24585e-08
-1.02144e-07
-3.91336e-08
-3.90866e-08
-7.24963e-08
-8.40626e-08
4.79099e-08
-1.69394e-08
-5.35915e-08
-6.176e-08
7.3179e-08
-6.02393e-08
3.46457e-08
-5.48768e-08
2.01275e-08
-5.91139e-08
3.63389e-08
-4.48442e-09
1.92992e-08
-1.52145e-07
-1.73361e-08
-6.76473e-08
5.36982e-09
-8.52436e-08
2.36081e-09
-1.02887e-07
-3.72378e-09
-8.83907e-08
-1.23698e-09
-7.43977e-08
-5.84934e-09
-8.02192e-08
-3.06392e-09
-7.0634e-08
-9.88384e-10
-5.99217e-08
-1.10611e-08
-5.38353e-08
-2.29591e-09
-5.22602e-08
3.06435e-09
-5.35628e-08
-4.61299e-09
-5.20331e-08
8.39763e-09
-6.10428e-08
8.17507e-09
-6.75626e-08
2.68859e-08
2.27384e-08
-1.33585e-07
9.4353e-09
-2.92335e-08
-5.32868e-08
-1.39428e-07
-2.67486e-08
-1.42998e-09
-1.60451e-08
-5.04647e-08
1.69757e-08
-1.0363e-07
-1.65862e-09
1.23207e-07
4.81193e-08
-1.04402e-07
-1.02172e-07
-7.5039e-08
-5.94124e-08
-1.76563e-07
-5.82138e-08
-8.94203e-08
-3.40466e-08
-1.06405e-07
-2.43914e-08
-9.63913e-08
-2.06292e-08
-1.2018e-07
-7.83536e-09
-1.02687e-07
-1.17539e-08
-1.08364e-07
-2.15273e-08
-1.23634e-07
1.96647e-08
-1.03695e-07
-1.49974e-08
-9.2093e-08
-2.1169e-08
-1.41472e-07
-4.64919e-09
-7.54973e-08
-5.92696e-08
-1.80554e-07
-1.08907e-08
-9.82921e-08
1.98451e-08
-7.1629e-08
-4.32035e-08
-1.25038e-07
6.75255e-08
-1.41016e-07
2.56133e-08
-1.41435e-07
1.06111e-08
-1.52578e-07
1.14925e-08
-1.53968e-07
8.62085e-09
-1.0291e-07
-3.51142e-08
-1.60006e-07
8.08543e-08
-1.81578e-07
3.33095e-08
-1.76857e-07
1.28049e-09
-2.04318e-07
7.40364e-09
4.26619e-08
6.34833e-08
-1.73773e-07
-6.56108e-08
-1.3913e-07
-1.73107e-08
-2.2441e-07
-1.43583e-08
-1.35721e-07
2.23333e-09
-1.40721e-07
-6.80102e-09
-1.86027e-07
1.12544e-08
5.83826e-08
3.92944e-08
-1.13545e-07
-1.38222e-07
-1.47905e-07
6.83906e-08
-1.35252e-07
4.02006e-09
-6.36414e-08
-7.77128e-08
-8.20516e-08
5.90971e-08
-1.74079e-07
3.51139e-08
-2.28919e-08
2.69404e-08
-9.43864e-08
8.80248e-09
-1.39005e-07
4.06709e-09
1.02042e-07
5.07679e-08
-2.59417e-07
-7.17751e-08
1.19389e-07
4.77053e-08
-1.25981e-07
-4.15282e-08
-9.06788e-08
-6.56156e-10
-7.51948e-08
4.64344e-09
-5.79172e-08
1.90613e-08
-5.83713e-08
1.97533e-08
-8.88171e-08
1.32865e-08
-8.2762e-08
-6.85328e-10
-8.8142e-08
7.74083e-09
-1.00112e-07
8.33119e-09
-7.89272e-08
-2.24218e-08
-7.09969e-08
-1.38394e-08
-8.34201e-08
1.02102e-08
-6.36594e-08
-2.05417e-08
-6.7743e-08
-7.62702e-09
-7.33931e-08
3.33069e-09
-6.91898e-08
-1.1391e-09
-7.88189e-08
5.01594e-09
-7.9098e-08
8.67616e-09
-8.09692e-08
1.00456e-08
-7.20134e-08
1.86645e-08
1.00534e-08
-8.9308e-08
5.70063e-09
-6.43088e-08
-6.02229e-08
-7.58961e-08
-1.14131e-08
-6.89864e-08
-2.14764e-08
-2.72565e-08
-2.45824e-08
-2.55991e-08
-3.55747e-09
2.51893e-08
-2.90268e-09
-4.63249e-08
-3.06572e-08
-6.55187e-08
-3.97457e-08
-1.00321e-07
-2.44343e-08
-1.13033e-07
-2.16851e-08
-1.20338e-07
-1.56841e-08
-1.27475e-07
-1.47929e-08
-1.35392e-07
1.62644e-10
-1.12316e-07
-3.34476e-08
-5.4798e-08
-7.90451e-08
-1.00714e-07
6.472e-08
-1.00245e-07
-1.56255e-08
-8.62887e-08
-3.60049e-08
-1.48157e-07
-6.40427e-08
-2.01418e-08
-6.64255e-08
-1.30839e-07
9.99181e-08
-1.72924e-07
6.01666e-08
5.96569e-08
8.80033e-08
-1.84433e-07
-4.90696e-08
-1.59187e-07
3.68162e-10
-1.62063e-07
1.18333e-08
-1.75375e-07
2.4686e-08
-1.86372e-07
2.14076e-08
5.67653e-08
8.12463e-08
-1.62325e-07
-5.43078e-08
-1.22363e-07
-8.62839e-09
-1.25227e-07
1.61592e-09
-1.23616e-07
5.73312e-09
-7.48665e-08
1.67587e-08
-1.11152e-07
-2.99882e-08
-1.13282e-07
-1.615e-08
-1.10753e-07
-1.65718e-08
-9.5117e-08
-1.2432e-08
-8.58036e-08
-1.61146e-08
-7.63106e-08
8.85984e-10
-7.95742e-08
4.17461e-08
1.05525e-07
3.94489e-08
-2.15415e-07
-9.18484e-08
-2.07573e-07
-3.78332e-09
1.15209e-07
8.03997e-08
-1.17344e-07
-6.7824e-08
-9.89986e-08
1.64106e-08
-8.20555e-08
1.02719e-08
-8.29565e-08
9.70346e-09
-8.83297e-08
8.53911e-09
-5.67354e-08
1.86502e-08
-1.02777e-07
-2.51551e-08
9.15386e-09
-6.48872e-08
-8.7753e-08
5.53787e-08
-9.83088e-08
9.79966e-09
-9.17538e-08
-1.9116e-09
-6.70834e-08
-5.60905e-09
-7.96706e-08
3.26738e-08
-9.10063e-08
2.46221e-08
-1.0185e-07
1.01584e-08
-9.68788e-08
1.78127e-09
-1.82185e-07
-2.79135e-08
-9.68448e-08
1.41225e-08
-1.0376e-07
-6.92441e-09
-1.93269e-07
-1.83349e-08
-8.54119e-08
-9.79252e-09
-1.00491e-07
6.58061e-09
-9.47669e-08
-2.39344e-09
-8.57502e-08
-1.01559e-08
-8.09137e-08
1.79162e-10
-7.51113e-08
2.87325e-09
-6.78715e-08
2.80508e-09
-5.65574e-08
7.92724e-09
-7.03399e-09
-7.39708e-08
-1.94468e-08
-7.21113e-08
-4.70996e-08
-3.31053e-08
-4.68066e-08
-1.35112e-07
-3.91572e-08
-3.38988e-08
-5.6747e-09
-3.91082e-08
1.65226e-09
-4.61898e-08
3.7803e-09
-6.0928e-08
-1.56059e-08
-8.35373e-08
-1.71361e-08
-9.78246e-08
-1.01466e-08
-1.07682e-07
-1.16061e-08
-1.24027e-07
6.61628e-10
-1.0393e-07
-3.45372e-08
-9.8491e-08
-5.27775e-09
-1.40406e-07
8.38232e-09
8.83736e-08
5.13507e-08
-1.3584e-07
-6.88786e-08
-1.14894e-07
-3.79706e-08
-9.48615e-08
-5.48651e-08
-9.44062e-08
-6.54753e-08
1.16401e-07
8.6556e-08
-1.7912e-07
3.4175e-08
-1.28216e-07
9.26256e-09
-6.83565e-08
2.72465e-08
-1.12723e-07
-4.70237e-09
-1.18341e-07
5.98594e-09
-1.18446e-07
1.1939e-08
-1.194e-07
2.53874e-08
-1.24036e-07
2.60439e-08
-4.64973e-08
4.14009e-09
-7.53047e-08
-2.60487e-08
-6.9683e-08
-1.43954e-08
-6.80161e-08
6.35932e-10
-6.63617e-08
3.334e-09
-2.15279e-08
-2.84618e-08
-2.59942e-08
-2.55627e-08
-2.75907e-08
-1.42749e-08
-2.64856e-08
-1.79556e-08
-2.58281e-08
-1.33597e-08
-3.00821e-08
-1.21489e-08
1.93474e-08
-4.90439e-08
-2.03915e-08
8.04561e-08
-6.78587e-09
2.54366e-08
-8.99839e-08
-7.66322e-09
-8.43251e-08
-9.44219e-09
4.87725e-09
-9.66301e-09
7.83776e-09
-7.07846e-08
-3.55245e-08
5.91692e-08
-4.83238e-08
2.30711e-08
-4.83617e-08
9.74135e-09
-6.04193e-08
2.05966e-08
-7.45754e-08
3.26161e-08
-1.30212e-07
2.91527e-08
1.0404e-07
6.46493e-08
-1.60462e-07
-3.92209e-08
-1.2707e-07
-2.35924e-08
-1.20624e-07
-9.65382e-09
-5.93914e-08
-6.74475e-08
-1.08432e-07
8.08813e-08
-1.09518e-07
2.65426e-08
-1.10672e-07
1.11988e-08
-1.0934e-07
-6.66918e-10
-1.45095e-07
8.21427e-09
-1.15042e-07
-1.44504e-08
-1.17725e-07
-4.24133e-09
-1.32628e-07
-3.43214e-09
-1.28697e-07
-1.39657e-08
-1.16905e-07
-5.21152e-09
-1.05739e-07
-1.35593e-08
-1.00969e-07
-1.4927e-08
-9.46455e-08
-6.0822e-09
-8.60052e-08
-5.76755e-09
-8.93819e-08
6.1811e-09
-7.75158e-08
-3.93926e-09
-9.50915e-09
-4.49394e-08
-6.2313e-08
-5.23697e-08
-2.73692e-08
-7.52268e-08
-2.00618e-08
-9.99415e-08
-1.29073e-08
-1.00817e-07
-4.79906e-09
-8.83866e-08
-1.07608e-08
-8.38031e-08
-8.02815e-10
-9.20727e-08
-7.33592e-09
-9.00371e-08
-1.91714e-08
-9.63384e-08
-3.80613e-09
-8.15928e-08
-2.63513e-08
-1.73912e-07
-2.52706e-08
-8.01074e-08
-9.52754e-09
-8.24209e-08
-2.94022e-09
-7.5288e-08
1.24984e-09
-4.1448e-08
1.6743e-08
-7.5969e-08
-3.47058e-08
-9.53684e-08
-1.81834e-08
-9.52201e-08
-5.65615e-08
1.08815e-07
9.42781e-08
9.41453e-08
9.82307e-08
-1.65236e-07
-6.65203e-08
-1.12892e-07
-4.30804e-08
-8.77463e-08
2.10062e-09
-1.08427e-07
1.61432e-08
-9.04831e-08
-1.19577e-08
-8.31525e-08
4.60865e-09
-5.94909e-08
1.7086e-09
-1.43154e-07
-8.85808e-09
-3.73865e-08
1.70145e-08
-5.06735e-08
-1.34088e-08
-5.02424e-08
-1.48263e-08
-3.39705e-08
-1.56294e-08
-1.09523e-07
-3.99873e-08
-3.50312e-08
1.60212e-08
-5.99887e-08
-9.62617e-10
-6.85606e-08
-5.84864e-09
-7.69904e-08
-9.80905e-09
-9.79197e-08
6.57055e-09
-1.39489e-07
2.79831e-08
1.00891e-07
7.47617e-08
-1.12823e-07
-6.32895e-08
-9.38441e-08
5.04712e-09
-8.30955e-08
-1.8226e-08
-7.44618e-08
-1.81723e-08
-9.5522e-08
1.15146e-08
1.28191e-07
6.42714e-08
-9.95031e-08
-6.95773e-08
-6.68199e-08
-1.06272e-08
-5.2811e-08
-4.26765e-09
-4.2642e-08
1.04276e-08
-2.76413e-08
1.74374e-08
-2.05081e-08
2.17971e-08
1.29997e-08
3.03492e-08
-1.99034e-08
-6.25459e-09
-3.10751e-08
-1.28645e-08
-6.5091e-08
2.4362e-08
1.59474e-07
6.64375e-08
-6.74882e-08
-4.87324e-08
-2.30409e-08
-1.83535e-08
-9.58147e-09
-2.49331e-09
-1.95941e-08
8.95663e-09
-2.29371e-08
1.13555e-08
-4.98525e-08
1.26991e-08
-7.58607e-08
2.19911e-08
-8.48431e-08
4.6846e-09
-1.15858e-07
1.70489e-08
-1.10808e-07
-9.07949e-09
-1.11081e-07
-1.32866e-08
-9.93517e-08
-2.56426e-08
-7.7763e-08
-2.76712e-08
-8.45735e-08
2.4913e-10
-8.43203e-08
5.92697e-09
-9.12947e-08
3.96644e-09
1.38451e-08
-1.96272e-08
-1.72263e-07
-7.0992e-08
2.98203e-08
-1.04923e-07
1.81734e-08
-1.06852e-07
-8.83682e-09
-1.04121e-07
-7.53002e-09
-1.01567e-07
-1.33148e-08
-9.32247e-08
-9.14453e-09
-8.6226e-08
-1.43343e-08
-8.59332e-08
-1.85871e-08
-7.17512e-08
-1.7808e-08
-7.7661e-08
-2.11732e-08
-9.1268e-08
-1.16632e-08
-7.09598e-08
-2.99326e-08
-5.96656e-08
-1.4234e-08
-4.57981e-08
-1.26046e-08
-1.39443e-07
-8.21456e-09
-6.31097e-08
7.77459e-09
-1.3411e-07
5.08056e-08
6.60822e-08
1.07034e-07
1.20237e-07
3.7261e-08
-6.99339e-08
-6.80383e-08
-9.39002e-08
-4.32671e-08
-1.05395e-07
-3.15854e-08
-1.31858e-08
-9.02427e-08
-1.52314e-07
3.36624e-08
-5.90872e-08
1.63949e-08
-6.59986e-08
1.21936e-08
-5.28092e-08
-1.14806e-08
-6.98719e-08
8.29426e-09
-3.56383e-08
-1.70471e-08
-3.64377e-08
-1.29729e-08
-4.49344e-08
-6.32959e-09
-5.95287e-08
-1.03508e-09
-1.23852e-07
2.33105e-08
-7.98002e-08
-2.78656e-08
-8.06068e-08
6.58126e-10
-9.5616e-08
8.18508e-09
-1.19144e-07
1.37184e-08
-1.06102e-07
-5.25512e-09
-9.63632e-08
1.79584e-08
-3.46885e-08
1.23243e-08
-7.27304e-08
-2.58934e-08
-1.58572e-07
-2.78026e-08
-6.31745e-08
5.18965e-09
-7.36356e-08
-9.10694e-09
-8.02041e-08
1.82713e-08
-2.95806e-08
1.44661e-08
-9.84909e-08
-1.39108e-09
-8.32613e-08
-2.58569e-08
-8.74288e-08
-1.00197e-10