/*--------------------------------*- C++ -*----------------------------------*\
  =========                 |
  \\      /  F ield         | OpenFOAM: The Open Source CFD Toolbox
   \\    /   O peration     | Website:  https://openfoam.org
    \\  /    A nd           | Version:  12
     \\/     M anipulation  |
\*---------------------------------------------------------------------------*/
FoamFile
{
    format      ascii;
    class       surfaceScalarField;
    location    "0.6";
    object      phi.water_0;
}
// * * * * * * * * * * * * * * * * * * * * * * * * * * * * * * * * * * * * * //

dimensions      [0 3 -1 0 0 0 0];

internalField   nonuniform List<scalar> 
7375
(
-2.16056e-07
1.0413e-07
-1.40136e-07
-7.29288e-08
1.4023e-08
-1.03811e-07
3.42571e-08
-2.08066e-08
6.49764e-08
-3.04124e-08
9.14058e-08
-2.57691e-08
7.09468e-08
-1.97152e-08
1.15278e-07
-4.30311e-09
1.11122e-07
4.13768e-09
1.14976e-07
-3.91113e-09
1.22685e-07
-6.55224e-09
1.20649e-07
2.04545e-09
1.28536e-07
-9.14086e-09
1.28413e-07
1.42684e-10
1.37455e-07
-8.92547e-09
1.4187e-07
-5.79106e-09
1.57402e-07
-1.39423e-08
1.27958e-07
-9.20048e-09
1.47586e-07
1.90641e-08
1.04633e-07
4.40397e-08
3.46974e-07
8.46199e-08
7.80714e-08
-5.86305e-08
1.03522e-07
-2.7577e-08
1.12623e-07
-9.01079e-09
1.23901e-07
-1.00434e-08
1.25227e-07
-1.33897e-09
1.41999e-07
-1.67737e-08
1.51678e-07
-8.10503e-09
1.19848e-07
-8.35338e-09
1.53166e-07
5.44613e-09
1.52403e-07
-7.9353e-10
1.54147e-07
-3.2685e-09
1.58881e-07
-3.14526e-09
1.61304e-07
-8.10459e-10
1.69387e-07
-6.34603e-09
1.46151e-07
-1.73633e-08
1.66232e-07
-2.32686e-08
1.84014e-07
-1.94437e-08
1.88114e-07
-2.21859e-09
1.7862e-07
1.13887e-08
2.01904e-07
-2.51248e-08
2.13017e-07
-1.11135e-08
2.41381e-07
-2.17421e-08
2.14729e-07
-1.4037e-08
2.45676e-07
4.69634e-09
2.28465e-07
1.70428e-08
2.05459e-07
2.27577e-08
1.79072e-07
2.60937e-08
1.48487e-07
3.05505e-08
1.32291e-07
1.61627e-08
1.27755e-07
5.77614e-09
1.27558e-07
1.39567e-10
1.31995e-07
-4.41825e-09
1.2623e-07
5.74642e-09
1.36697e-07
-1.17527e-08
1.42192e-07
-4.06527e-09
1.44879e-07
-2.73591e-09
1.53065e-07
-9.64972e-09
1.46017e-07
7.00203e-09
1.07743e-07
3.90051e-08
3.46092e-07
8.41768e-08
8.54003e-08
-6.28853e-08
1.10153e-07
-2.47549e-08
1.29249e-07
-1.92948e-08
1.46213e-07
-1.86846e-08
1.3893e-07
7.20991e-09
1.31426e-07
8.91147e-09
1.31505e-07
1.24519e-09
1.18352e-07
1.31594e-08
1.34773e-07
-1.7825e-08
1.24692e-07
1.13622e-08
1.31238e-07
-6.64397e-09
1.33905e-07
-4.03748e-09
1.45887e-07
-1.19839e-08
-3.38792e-10
-1.73306e-08
-1.31271e-07
-1.70288e-09
-8.51375e-08
3.76714e-08
-1.43486e-07
-1.99311e-08
-2.97932e-09
1.3325e-08
-2.41278e-08
9.16869e-09
-2.13837e-08
2.4415e-09
-1.3149e-08
2.60285e-08
-2.82e-08
4.80664e-08
-1.69715e-08
6.34936e-08
-1.86844e-08
5.34116e-08
2.87498e-09
4.77345e-08
7.15632e-09
5.12038e-08
-1.31329e-08
6.32875e-08
-1.27089e-08
9.25328e-08
-3.84665e-08
1.05808e-07
-1.81321e-08
1.13236e-07
-2.15886e-08
1.2067e-07
-1.65423e-08
1.12551e-07
2.81271e-08
1.17423e-07
3.87715e-08
1.59858e-07
4.33948e-08
7.76113e-08
2.50199e-08
5.18775e-08
-3.21127e-09
3.97455e-08
2.10459e-09
4.58007e-08
-1.56975e-08
6.18095e-08
-1.68808e-08
5.78819e-08
-1.28462e-08
8.97885e-08
-4.09279e-08
7.5275e-08
6.30817e-09
8.35233e-08
-2.03446e-09
8.60412e-08
-4.18919e-09
8.80741e-08
-6.16177e-09
9.10416e-08
-4.33559e-09
8.08094e-08
1.02544e-08
7.59533e-08
-1.5394e-09
5.40975e-08
4.62388e-09
7.73468e-08
-7.85022e-09
7.59227e-08
-1.91762e-08
1.07846e-07
-3.33971e-08
9.78372e-08
-1.83222e-08
1.1736e-07
-5.09438e-09
1.3444e-07
-2.412e-08
1.40728e-07
-2.80303e-08
1.45704e-07
-2.15977e-08
1.7606e-07
-2.7739e-08
2.03898e-07
-1.28539e-08
2.10366e-07
1.62247e-08
1.95531e-07
4.26224e-08
1.71319e-07
5.61841e-08
1.56181e-07
2.94078e-08
1.50076e-07
1.18813e-08
1.4099e-07
1.07551e-08
1.36248e-07
-1.07767e-09
1.38624e-07
3.27902e-09
1.32184e-07
-3.89801e-09
1.26324e-07
3.08295e-09
1.2776e-07
-4.14349e-09
1.36188e-07
-2.07701e-08
1.5354e-07
-1.20218e-08
1.82939e-07
9.40358e-09
2.29328e-07
3.87853e-08
1.66777e-07
2.00484e-09
1.41626e-07
1.86064e-09
1.15406e-07
8.11383e-09
1.47246e-07
-5.32312e-08
8.78148e-08
6.5227e-08
6.37065e-08
3.42653e-08
6.62745e-08
-1.32293e-09
7.24468e-08
7.51523e-09
6.99163e-08
-1.52946e-08
7.72488e-08
4.10443e-09
6.62444e-08
4.42913e-09
6.98577e-08
-8.32622e-09
5.54979e-08
2.40068e-09
-1.61129e-08
-1.47171e-07
9.56197e-08
-1.09674e-07
-9.63008e-08
1.01347e-07
-2.33821e-08
-8.67978e-08
-1.31818e-07
-4.97216e-08
-6.23245e-08
-3.80456e-08
-3.43054e-08
-5.42288e-08
2.63759e-09
-7.638e-08
-5.04568e-09
-5.31499e-08
-3.94306e-08
-1.92865e-08
-5.3445e-08
-6.59241e-08
4.94829e-08
-7.17584e-08
1.29902e-08
-8.28491e-08
-2.8878e-09
-1.14103e-07
-2.22362e-08
-8.42019e-08
-2.81628e-08
-8.19e-08
-2.06194e-08
-8.25904e-08
-2.11141e-08
-3.55106e-08
-6.40828e-08
-7.17124e-08
6.50527e-08
-5.35238e-08
1.93179e-08
-4.76858e-08
3.73902e-08
-5.16482e-08
2.86862e-08
-7.05638e-08
1.57371e-08
-7.92486e-08
1.1414e-08
-8.2806e-08
-1.23006e-08
-7.70008e-08
-2.26862e-08
-1.02293e-07
-2.75628e-08
-8.00615e-08
-2.42149e-08
-7.3598e-08
-8.95065e-11
-6.18121e-08
-1.30696e-08
-8.25749e-08
-2.25926e-08
-4.22434e-08
-6.951e-09
-3.14528e-08
-1.52805e-08
-1.30571e-08
-8.16245e-09
2.63983e-09
-1.73964e-08
1.14645e-08
-4.24745e-09
1.80017e-08
-1.42319e-08
1.82815e-08
-1.98582e-08
2.72865e-08
-4.32076e-08
3.84986e-08
-2.91453e-08
6.15448e-08
-6.95684e-08
8.44053e-08
-4.76019e-08
9.61904e-08
-3.83823e-08
9.693e-08
-2.13483e-08
9.38187e-08
-2.46276e-08
9.77291e-08
-1.78525e-08
9.82241e-08
1.48933e-08
1.0086e-07
3.93984e-08
8.751e-08
6.96689e-08
7.11812e-08
4.70959e-08
4.52401e-08
3.90684e-08
2.60064e-08
3.02541e-08
1.37444e-08
1.10427e-08
1.23096e-08
4.60802e-09
4.77306e-09
3.76414e-09
3.10669e-08
-2.3211e-08
2.56906e-08
1.2751e-09
5.9884e-09
-1.01727e-09
3.97131e-10
-6.55038e-09
-6.21426e-09
1.61077e-08
7.19169e-09
2.55775e-08
-1.94181e-08
2.84165e-08
-3.21963e-08
1.46389e-08
-5.35431e-08
2.94063e-08
1.49289e-07
6.52129e-08
-7.59308e-08
-2.97302e-08
-8.74244e-08
5.33804e-09
-4.15995e-08
-5.82306e-09
-2.24591e-08
-1.16253e-08
-3.07287e-08
-7.17128e-09
1.71072e-09
-2.83351e-08
-1.57797e-08
2.18746e-08
-2.85699e-08
4.21602e-09
-7.15737e-08
4.98372e-09
4.65829e-10
-5.89267e-08
5.14775e-08
-3.21819e-08
-1.11595e-07
-2.82353e-08
-2.60296e-08
-7.56688e-08
-8.63222e-08
-8.10386e-08
-5.84176e-08
-7.09908e-08
-4.55547e-08
-8.484e-08
-2.41044e-08
-1.32914e-07
3.4972e-09
-1.22843e-07
2.99107e-08
7.22225e-08
7.40925e-08
-1.59113e-07
-3.99866e-08
-1.51463e-07
5.39448e-09
-1.59715e-07
3.69708e-09
-1.78401e-07
-6.92781e-09
-1.87694e-07
-1.68367e-08
-1.92677e-07
-1.3773e-08
-2.39213e-07
2.29559e-08
-4.01099e-08
6.26461e-08
-2.53241e-07
-8.08209e-08
-1.86104e-07
-9.51167e-09
-1.5511e-07
6.01003e-09
-1.24312e-07
-5.29358e-10
-1.13526e-07
5.94788e-09
-9.79126e-08
-4.19951e-09
-9.57791e-08
-1.54333e-08
-1.03527e-07
-1.49388e-08
-1.02197e-07
-2.99354e-08
-1.08614e-07
-1.66786e-08
-8.52766e-08
-2.21059e-08
-7.55528e-08
-2.36636e-08
-6.65091e-08
-3.16364e-08
-6.04583e-08
-1.30728e-08
-1.01171e-07
-1.36833e-08
-5.20697e-08
-1.77422e-08
-5.74381e-08
-1.25591e-08
-5.4553e-08
-7.81207e-09
-7.22592e-08
2.72962e-09
-7.1398e-08
-1.97698e-08
-3.25872e-08
-8.21278e-08
-7.59124e-08
1.31082e-08
-4.83396e-08
-5.54317e-08
-2.65834e-08
-6.93504e-08
3.04092e-08
-9.63577e-08
-1.28354e-08
2.16752e-08
-4.0602e-08
3.42531e-09
-4.8952e-08
-9.50239e-09
-5.89845e-08
2.49259e-08
-5.56803e-08
3.68724e-08
-5.656e-08
7.06824e-08
-7.48849e-08
6.51344e-08
-7.79928e-08
4.29481e-08
-8.50013e-08
3.84505e-08
-8.71514e-08
1.30802e-08
-7.26371e-08
-9.75979e-09
-8.89178e-08
-1.99637e-08
-5.72815e-08
-1.49917e-08
-5.29187e-08
-3.62764e-09
-8.45266e-08
-9.93266e-09
-6.15064e-08
1.13671e-08
-5.51522e-08
1.01518e-08
-4.32801e-08
1.35683e-08
-7.89724e-08
2.36587e-08
-5.43099e-08
3.03897e-08
-4.57333e-08
2.03678e-08
4.06208e-08
-2.16125e-08
-5.31106e-08
6.35868e-08
-7.42337e-08
2.64067e-08
-8.04449e-08
3.92215e-10
-8.16699e-08
-1.13521e-08
-8.59946e-08
-2.84668e-09
-4.94802e-08
-6.46314e-08
-9.22156e-08
6.36696e-08
-1.13293e-07
2.5036e-08
-1.07419e-07
2.14932e-10
2.72676e-09
-1.19547e-07
7.72792e-08
1.16058e-07
3.24239e-08
-1.09097e-07
-1.34862e-07
-9.25784e-08
-1.01717e-07
-6.69607e-08
-8.37743e-08
-3.71179e-08
-7.49282e-08
-6.30454e-09
-5.36817e-08
2.79517e-08
-3.1394e-08
6.04064e-08
-2.90147e-09
1.15134e-07
1.92264e-08
7.06591e-08
6.38332e-09
1.26997e-08
2.25691e-08
1.96603e-08
3.60137e-08
-6.42899e-09
1.94945e-08
2.34376e-08
-4.69022e-08
5.05795e-09
4.84529e-09
-4.80915e-08
7.51046e-08
-2.7447e-08
4.13621e-08
-1.01198e-07
-7.07057e-09
-1.00133e-07
-1.05763e-08
-8.88929e-08
-5.29225e-09
-8.04623e-08
-8.96028e-09
-7.23866e-08
-2.1281e-09
-6.69952e-08
-9.6341e-09
-6.85532e-08
-1.38756e-08
-6.53997e-08
-1.80925e-08
-6.25015e-08
-3.31722e-08
-7.71296e-08
-4.11022e-08
-4.9225e-08
-1.06295e-08
-5.90548e-08
-1.43361e-08
-1.56418e-08
-7.58229e-08
-7.05465e-08
4.11121e-08
-1.28746e-07
4.09497e-09
-8.46424e-08
-2.04954e-08
-9.10117e-08
-7.04637e-09
-9.17398e-08
-7.01163e-09
-8.7031e-08
-1.06021e-09
-1.07589e-07
-1.06248e-10
9.46686e-08
3.89816e-08
-1.51515e-07
-1.00205e-07
-1.02625e-07
-6.4157e-08
-1.35388e-07
-3.90159e-08
6.83349e-08
2.25821e-08
-1.41237e-07
-8.68281e-08
-1.30291e-07
-8.88517e-09
-1.44368e-07
5.96508e-09
-1.24033e-07
3.32581e-09
-6.34462e-08
-2.37146e-08
-8.99139e-08
9.77975e-08
-7.97277e-08
5.42838e-08
-5.96926e-08
2.16451e-08
-7.62568e-08
1.45939e-08
-7.59163e-08
1.42921e-08
-6.41724e-08
1.81008e-08
-8.1001e-08
-4.66374e-09
-9.86343e-08
2.64159e-09
-1.01748e-07
-5.45258e-10
-1.15302e-07
3.72286e-09
-1.13363e-07
1.0605e-08
-1.08932e-07
6.83197e-09
-9.85683e-08
3.34132e-09
-9.78711e-08
2.19559e-08
-9.8205e-08
3.07236e-08
-1.18513e-07
4.04711e-08
9.22382e-08
8.79246e-08
-1.61825e-07
-4.28639e-08
-1.10303e-07
1.37681e-08
-1.22509e-07
1.25984e-08
-1.33526e-07
9.23237e-10
-1.70692e-07
3.26078e-08
2.77376e-08
6.03057e-08
-1.66253e-07
-6.0378e-08
-1.16358e-07
-2.51118e-08
-9.50111e-08
-2.2319e-08
3.40682e-09
-7.87624e-08
4.6354e-08
-1.52169e-08
-1.67128e-08
-6.18719e-08
-8.57194e-08
-9.03039e-08
-7.1616e-08
-1.04562e-07
-6.95162e-08
-1.32528e-07
-4.48466e-08
-1.43008e-07
-4.46456e-08
-1.10936e-07
-6.64077e-08
-7.52974e-08
-3.70451e-08
-3.44498e-08
-2.06573e-08
-2.85314e-08
7.5565e-10
-3.29214e-08
2.67308e-08
-5.23134e-08
5.54368e-08
-1.13651e-07
7.98709e-08
5.05098e-08
1.1068e-07
4.91391e-08
5.19897e-09
-7.67586e-08
-1.15834e-07
-7.25773e-08
3.63973e-08
-8.27845e-08
3.1362e-09
-7.80587e-08
-1.53025e-08
-6.85388e-08
-1.46629e-08
-6.76853e-08
-9.81414e-09
-5.961e-08
-1.02037e-08
-6.06423e-08
-8.51526e-09
-5.30655e-08
-2.14527e-08
-5.51447e-08
-1.65761e-08
-5.56398e-08
-3.26774e-08
-1.1593e-08
-8.54534e-08
-7.63911e-08
5.40601e-08
-1.22482e-07
3.05055e-08
8.99958e-08
3.54311e-08
-1.13026e-07
-7.60758e-08
-6.83855e-08
-3.94872e-08
-4.15943e-08
-4.73446e-08
-1.42986e-08
-3.46177e-08
1.71815e-08
-3.87388e-08
1.72299e-08
-1.10901e-09
1.40508e-08
3.28007e-09
2.39762e-08
2.8802e-08
-6.07675e-08
-1.54609e-08
-1.03047e-07
-2.27642e-08
-1.14161e-07
-2.79018e-08
-1.08501e-07
-2.22099e-08
-1.27995e-07
-2.75923e-08
-1.35724e-07
-3.72934e-09
-1.5411e-07
2.29517e-08
-1.75824e-07
2.68872e-08
3.18667e-08
8.98208e-08
-1.72438e-07
-5.79745e-08
-1.18588e-07
1.62686e-09
-9.72911e-08
4.03605e-08
-1.11964e-07
2.81252e-08
-1.10714e-07
1.30418e-08
-9.17938e-08
-1.55492e-09
-9.63618e-08
-9.57764e-11
-9.88424e-08
6.07834e-09
-1.01394e-07
2.02662e-09
-9.19966e-08
-5.71225e-09
-1.031e-07
2.14896e-08
-1.19786e-07
2.37601e-08
-1.19377e-07
2.96602e-09
-1.26083e-07
2.86625e-08
-1.23781e-07
2.93845e-08
-1.12324e-07
2.93095e-08
-6.49191e-08
3.87118e-08
-1.30239e-07
2.24555e-08
-1.33851e-07
1.87095e-08
-1.48469e-07
2.55727e-08
-1.57373e-07
9.82766e-09
-1.35091e-07
1.19311e-08
-8.69148e-08
1.24013e-08
-1.21751e-07
-2.55418e-08
-1.02524e-07
-4.58367e-08
-8.7069e-08
-7.68935e-08
4.73918e-08
-1.03498e-07
3.35261e-08
-6.10161e-08
-3.91037e-08
-8.24088e-08
-6.03332e-08
-1.0937e-07
-4.51148e-08
-1.30272e-07
-4.81238e-08
-1.60294e-07
-5.53993e-08
-1.63167e-07
-4.22285e-08
-1.53512e-07
-3.38105e-08
-1.50182e-07
-4.0409e-08
-1.2663e-07
-4.57425e-08
-1.03536e-07
-2.23387e-08
-9.82049e-08
2.18957e-08
-9.34792e-08
5.07107e-08
-1.14333e-07
6.12574e-08
-3.11275e-08
6.59604e-08
-5.72341e-08
3.09877e-08
1.11783e-07
3.43853e-08
-1.02506e-07
-6.9382e-08
-6.61631e-08
-3.32069e-08
-6.41501e-08
-1.66614e-08
-5.62729e-08
-2.25405e-08
-5.44284e-08
-1.22331e-08
-3.97343e-08
-2.44927e-08
-3.11597e-08
-1.70901e-08
-3.94006e-08
-1.36694e-08
-4.53302e-08
-1.05392e-08
-7.66696e-08
-1.76889e-09
1.68338e-07
-7.16783e-09
-9.65966e-08
-2.79107e-09
-5.60786e-08
-1.05847e-08
5.16388e-09
-2.59623e-08
-3.79629e-08
-3.26179e-08
-4.09598e-08
-3.72873e-08
-4.75247e-08
-4.16899e-08
-3.72343e-08
-4.47764e-08
-2.87467e-09
-7.4251e-08
-5.3452e-08
4.94159e-08
-8.53353e-08
3.51973e-08
-7.89349e-08
2.30372e-08
-8.74529e-08
-7.75587e-09
-1.12668e-07
2.45154e-09
-1.18381e-07
-2.12566e-08
-1.26323e-07
-1.55563e-08
-1.45258e-07
-8.85082e-09
-1.52042e-07
4.49921e-09
-1.72696e-07
4.16093e-08
-1.77041e-07
2.9408e-08
-1.18755e-07
3.30188e-08
-1.61089e-07
-1.27856e-08
-1.00268e-07
-6.08208e-08
-1.33591e-07
7.23213e-08
-1.1511e-07
1.11202e-08
-1.0839e-07
7.42767e-09
-8.91785e-08
-2.09785e-08
-4.02603e-08
-5.04374e-08
-8.86812e-08
5.35945e-08
-1.01862e-07
1.50525e-08
-4.59957e-08
-6.06895e-08
-9.09672e-08
6.55424e-08
-1.3169e-07
2.28887e-08
-1.28781e-07
4.18351e-08
-1.5852e-07
2.00108e-08
-1.02077e-07
1.13998e-08
-9.67871e-08
2.32696e-08
-8.8065e-08
3.09771e-08
-1.05502e-07
3.96635e-08
-9.59214e-08
9.12891e-09
-1.02532e-07
3.18584e-08
-1.16837e-07
2.40322e-08
-1.07543e-07
2.63701e-09
-9.3304e-08
-1.83739e-09
-1.05584e-07
-1.35215e-08
-1.47688e-07
-3.73293e-09
5.93963e-08
3.5485e-08
-7.44154e-08
-7.42813e-08
3.8136e-09
-8.55797e-08
-9.12121e-09
-1.08086e-07
-3.36493e-08
-1.67743e-07
-2.30359e-08
-1.43445e-07
-3.29047e-08
-1.71555e-07
-2.84737e-08
-1.65688e-07
-4.63462e-08
-1.64775e-07
-3.64048e-08
-1.61722e-07
-4.34312e-08
-1.47034e-07
-5.93863e-08
-9.45372e-08
-7.58007e-08
-1.31625e-07
5.83812e-08
-1.12243e-07
3.38167e-08
-7.55794e-08
2.43472e-08
-2.81099e-08
1.82067e-08
-3.44027e-08
3.65561e-08
-2.02402e-08
2.00162e-08
-7.13151e-08
-1.81009e-08
-6.78919e-08
-3.62606e-08
-6.37525e-08
-2.05912e-08
-6.89277e-08
-1.75955e-08
-6.16711e-08
-1.92933e-08
-6.37006e-08
-2.24635e-08
-5.35874e-08
-2.79246e-08
-5.83987e-08
-8.17218e-09
-5.14548e-08
-1.6374e-08
-5.55091e-08
1.21734e-09
1.79874e-07
8.11541e-08
-7.8508e-08
-6.63124e-08
-3.88165e-08
-4.98802e-08
1.39187e-08
-7.92356e-08
-4.07038e-08
2.18137e-08
-6.0033e-08
-1.81533e-08
-8.83967e-08
-1.2901e-08
-1.28937e-07
-5.5516e-09
5.89666e-08
6.18205e-08
-1.66942e-07
-4.86499e-08
-1.19004e-07
-1.01832e-08
-9.1478e-08
-3.56452e-09
-7.9928e-08
-2.0436e-08
-6.95133e-08
-9.51262e-09
-1.11589e-07
-1.9602e-08
-8.47259e-08
-4.07744e-10
-8.5452e-08
-8.03516e-09
-4.97526e-08
-3.20719e-08
-1.07174e-07
9.90308e-08
-1.18575e-07
4.17184e-08
-1.06713e-07
2.08235e-08
-1.57317e-07
3.51251e-08
5.22255e-08
5.18386e-08
-1.54938e-07
-4.01732e-08
-1.3322e-07
-1.21953e-08
-1.32006e-07
6.22641e-09
-1.79139e-07
2.40922e-08
3.12818e-08
6.50252e-08
-2.021e-07
-3.10322e-08
-1.93832e-07
4.67438e-09
3.3516e-08
3.33318e-08
-1.41511e-07
-1.18951e-07
-1.2098e-07
4.05098e-08
-1.25855e-07
5.04179e-09
-1.20065e-07
1.67294e-08
-7.01242e-08
1.17891e-09
-7.90532e-08
3.12459e-08
-7.98792e-08
3.18031e-08
-6.67334e-08
2.62499e-08
-8.36969e-08
2.69464e-08
-7.02755e-08
1.8437e-08
-7.26098e-08
2.56496e-08
-7.00102e-08
3.7528e-11
-6.31716e-08
-8.67586e-09
-6.9147e-08
-7.54575e-09
-7.6688e-08
3.80866e-09
-4.1024e-08
-1.78773e-10
-2.74719e-08
-6.25524e-08
-3.32444e-08
-5.68267e-08
-4.29842e-08
-7.9182e-08
3.38054e-08
-1.25211e-07
2.19504e-08
-1.46236e-07
-1.0712e-08
-1.65733e-07
-7.21204e-09
-1.76008e-07
-3.81522e-08
-1.61177e-07
-4.90905e-08
-1.61289e-07
-4.4964e-08
-1.86378e-07
-3.55936e-08
3.06056e-08
2.88728e-08
-1.60728e-07
-6.77114e-08
-1.14825e-07
-1.26836e-08
-6.67182e-08
-2.28407e-08
1.20605e-08
-6.13679e-08
-8.44876e-09
5.66995e-08
6.44102e-09
4.83855e-09
8.55869e-09
-2.02406e-08
1.40648e-08
-4.23366e-08
3.34779e-08
-3.94641e-08
2.94802e-08
-1.34204e-08
2.8115e-08
-1.79285e-08
2.0232e-08
-1.4294e-08
1.27959e-08
-2.06192e-08
1.26412e-08
-7.93526e-09
4.02755e-09
-7.83755e-09
4.08447e-08
-3.55327e-08
2.59899e-08
9.37847e-08
-5.16594e-08
1.09597e-08
-1.03249e-07
6.56428e-10
9.74908e-08
4.25745e-08
-1.52887e-07
-8.73203e-08
-9.63869e-08
-3.50487e-08
-1.13466e-07
-3.71934e-08
-6.34481e-08
-5.67266e-08
-5.2774e-08
9.05242e-08
-1.1869e-07
1.77629e-08
-1.12133e-07
-1.67408e-08
-1.15294e-07
-1.61548e-09
-1.33208e-07
-2.73261e-09
-1.23574e-07
-1.77874e-08
-1.22299e-07
-2.04686e-08
-1.17814e-07
-4.94245e-09
-1.4625e-07
2.0319e-08
6.88484e-08
7.36488e-08
-1.66825e-07
-2.5372e-08
-1.13798e-07
2.86994e-08
-1.07689e-07
1.49274e-08
-1.08003e-07
3.50809e-08
-6.64384e-08
9.74535e-09
-1.06872e-07
-1.4896e-10
-1.10138e-07
-8.80489e-09
-1.04603e-07
6.91005e-10
-1.07514e-07
2.56604e-08
-6.92978e-08
2.68532e-08
-1.10344e-07
1.07135e-08
-1.11075e-07
4.32766e-09
-1.04658e-07
2.55074e-08
5.83702e-08
4.09657e-08
-1.44897e-07
-7.7262e-08
-1.29262e-07
-1.06447e-08
-1.0894e-07
-3.59215e-09
-5.16064e-08
-5.67213e-08
-8.2996e-08
6.26355e-08
-8.62337e-08
3.55578e-08
-6.86477e-08
8.6639e-09
-6.69978e-08
2.45962e-08
-6.035e-08
1.19774e-08
-7.74469e-08
2.73802e-09
-9.70066e-08
1.95972e-08
-7.71197e-08
1.14459e-08
-8.35732e-08
-1.09179e-09
-8.40271e-08
4.26323e-09
-8.81797e-08
4.01476e-09
-1.22769e-08
-1.50781e-07
1.11409e-08
9.41762e-08
9.56824e-08
-9.65103e-08
-1.09266e-07
-1.1312e-07
5.25735e-10
-8.76394e-08
3.92497e-09
-7.09011e-08
-2.47476e-08
-1.20382e-07
-2.78516e-08
-9.3944e-08
-3.53009e-08
-8.43946e-08
-5.45138e-08
-6.93001e-08
-4.94767e-08
-3.86018e-08
-2.50724e-09
-8.23135e-08
-2.52727e-08
-1.01594e-07
6.52906e-09
-1.27993e-07
4.36106e-09
7.53306e-08
5.45386e-08
-1.17924e-07
-6.631e-08
-7.803e-08
-3.65823e-08
-6.97042e-08
-2.92779e-08
-7.12296e-08
-4.05137e-08
-1.14926e-08
-9.97722e-08
-5.35504e-08
2.8521e-08
-5.41465e-08
-1.80619e-08
-6.83347e-08
-1.06137e-10
-9.66497e-08
7.77479e-09
-1.08062e-07
2.2931e-09
-1.39268e-07
2.19328e-08
7.43426e-08
7.44915e-08
-1.04365e-07
-4.49881e-08
-8.09904e-08
-1.36059e-08
-1.18666e-07
-2.52838e-09
-4.23778e-08
5.8602e-09
-1.09461e-07
-2.04455e-08
-1.346e-07
-1.16406e-08
-1.9804e-07
2.19378e-08
-8.52169e-10
7.4883e-08
-1.83772e-07
-4.66066e-08
-1.42332e-07
-2.36777e-08
-1.3307e-07
-2.60023e-08
-1.35986e-07
1.28759e-09
-1.63408e-07
-1.52909e-08
-1.69717e-07
-9.74718e-09
-1.66368e-07
1.42511e-08
-1.49865e-07
-2.31603e-08
-1.29243e-07
-9.30412e-11
-7.80207e-08
2.2427e-08
-1.10504e-07
7.90781e-09
-9.60522e-08
1.42472e-08
-1.11181e-07
-8.81846e-09
-7.18963e-08
3.50473e-08
-7.71554e-08
1.44181e-08
-6.82466e-08
-9.05774e-09
-7.64558e-08
-5.95684e-10
-6.53301e-08
-1.04347e-08
-7.03905e-08
3.07208e-08
-5.56016e-08
1.17904e-08
-6.80461e-08
2.32673e-08
-7.9952e-08
1.62335e-08
-8.10625e-08
2.74449e-08
-3.44881e-08
-6.37064e-09
-5.53142e-08
-5.73829e-08
-1.14352e-07
4.89578e-08
-1.44171e-07
2.47556e-08
6.2494e-08
5.99808e-08
-1.81766e-07
-5.19642e-08
-1.00122e-07
-6.41682e-09
-8.68886e-08
-5.50268e-09
-8.02438e-08
1.79515e-08
-7.86022e-08
1.03359e-08
-8.21714e-08
6.24355e-09
-1.09975e-07
7.39208e-09
-7.13971e-08
1.2877e-08
-9.2178e-08
1.96896e-08
-9.02098e-08
1.37531e-09
-1.2781e-07
1.19462e-09
2.45794e-08
-1.12074e-07
7.27078e-09
-3.71908e-08
-1.7837e-09
4.31236e-10
-1.04055e-07
-9.80306e-08
5.85619e-08
-5.16052e-08
-1.47697e-09
-4.44012e-08
-3.19519e-08
-4.86427e-08
-6.28385e-08
-3.97008e-08
-4.46496e-08
-4.66132e-08
-4.74522e-08
5.54105e-09
-1.02668e-07
-3.02583e-08
3.32614e-08
-4.13919e-08
-1.41701e-08
-4.81636e-08
1.28164e-08
-5.08541e-08
6.10333e-09
-3.86695e-08
1.93274e-09
-5.67311e-08
-9.10095e-09
-1.2713e-07
-6.67347e-09
-1.12847e-07
-2.25548e-09
-1.52425e-07
-2.07776e-09
5.02802e-08
1.98607e-08
-1.60267e-07
-8.12227e-08
-9.48563e-08
-8.43328e-08
-1.41394e-07
4.49886e-08
-1.76845e-07
2.80474e-09
-1.47281e-07
1.45417e-08
-1.31393e-07
7.16084e-09
-7.50184e-08
1.73648e-08
-1.14502e-07
-7.9785e-09
-1.27085e-07
-2.47323e-09
-1.85938e-07
1.72141e-08
-1.51011e-07
1.12977e-08
-1.79381e-07
8.00684e-09
-1.69641e-07
-1.76405e-08
-1.39139e-07
-8.78559e-09
-8.78513e-08
2.04397e-08
-1.19147e-07
-1.53103e-08
-1.11298e-07
-3.15274e-08
-7.92582e-08
-5.78231e-08
-1.13852e-07
3.58819e-08
-1.32186e-07
1.88106e-09
-1.64355e-07
-1.92629e-08
-1.30264e-07
-1.94923e-08
-1.11769e-07
-8.1822e-11
-9.56944e-08
-1.61673e-08
-8.98807e-08
1.63847e-08
-1.11216e-07
2.95449e-08
-9.80986e-08
1.11815e-09
-6.43508e-08
-4.23416e-08
-8.88351e-08
5.83986e-08
-9.79932e-08
2.26607e-08
-1.02064e-07
-3.98765e-09
-9.02163e-08
-1.24429e-08
-4.03624e-08
-6.09099e-08
-7.74268e-08
6.71006e-08
-8.48579e-08
1.94196e-08
-7.68832e-08
1.52926e-08
-7.45562e-08
1.39066e-08
-8.47629e-08
3.76516e-08
-1.15328e-07
2.29533e-08
8.22283e-08
6.90189e-08
-1.39795e-07
-4.99258e-08
-9.98373e-08
-1.52022e-08
-3.30834e-08
-7.38501e-09
-1.22579e-07
-1.22677e-09
-7.88744e-08
-1.05814e-08
-7.04317e-08
-1.475e-08
-6.65632e-08
1.39408e-08
-6.13728e-08
5.77166e-09
-6.229e-08
7.1608e-09
-6.4405e-08
8.87171e-09
-5.78037e-08
6.27587e-09
-5.68323e-08
1.87186e-08
-6.47477e-08
9.29139e-09
-9.14374e-08
2.78722e-08
1.86181e-08
-1.46362e-07
3.55721e-08
-7.71776e-08
-4.13767e-08
1.13372e-07
3.84359e-08
-1.07235e-07
-8.27251e-08
-5.98687e-08
-9.14627e-09
-7.44606e-08
-1.79711e-08
-8.38056e-08
-1.43403e-08
-1.16869e-07
-5.30145e-08
-1.43931e-07
-1.96815e-08
6.85648e-08
4.42125e-08
-1.30365e-07
-8.64994e-08
-1.18114e-07
-2.79104e-08
-9.37055e-08
-1.12132e-08
-1.43167e-07
1.53014e-08
-1.19264e-07
1.94784e-08
-1.23021e-07
-6.5991e-09
-1.72301e-07
2.25356e-09
-1.30413e-07
-2.37682e-09
-1.2048e-07
-1.20109e-08
-4.45283e-08
-5.68746e-08
-1.64914e-07
3.74807e-08
3.41334e-08
3.99861e-08
-1.78518e-07
-6.27762e-08
-1.54961e-07
-2.07819e-08
-1.3418e-07
-6.30384e-09
-1.30495e-07
3.47625e-09
-1.13802e-07
-3.12671e-10
-1.36985e-07
1.53631e-08
-1.45952e-07
7.91651e-09
-1.51943e-07
2.2796e-08
-1.56583e-07
1.43401e-08
-1.8038e-07
-6.7701e-09
-1.55681e-07
-9.13689e-10
-1.51346e-07
-1.33906e-08
-1.25336e-07
-5.57031e-09
-1.40777e-07
-1.13637e-09
-1.88054e-07
1.38309e-08
2.39115e-08
5.35785e-08
-1.85858e-07
-7.42945e-08
-1.5025e-07
-3.33868e-08
-1.90742e-07
-1.68327e-08
-1.49809e-07
-2.06243e-08
-1.2576e-07
-2.5659e-08
-6.50414e-08
-7.76782e-08
-5.97803e-08
1.05137e-08
-1.45675e-07
7.574e-08
-1.41641e-07
3.71036e-08
6.24609e-08
7.48201e-08
-1.32558e-07
-6.34595e-08
-1.00432e-07
-1.10487e-08
-1.02405e-07
-2.01434e-09
-1.34192e-07
1.81603e-08
8.0302e-08
4.71355e-08
-1.25793e-07
-4.57215e-08
-1.09841e-07
2.17072e-09
-9.48523e-08
1.4247e-09
-8.95347e-08
8.58905e-09
-8.02111e-08
2.8328e-08
-8.67855e-08
2.95277e-08
-4.34704e-08
2.49997e-08
-9.49029e-08
1.50673e-09
-9.54432e-08
-1.46619e-08
-3.74134e-08
-6.6089e-08
-8.52866e-08
4.66464e-08
-8.23609e-08
-1.36149e-08
-3.89844e-08
-5.77288e-08
-6.87924e-08
4.33116e-08
-7.79142e-08
1.41917e-08
-8.33282e-08
1.2648e-08
-7.99e-08
5.44357e-09
-8.34013e-08
9.77741e-09
-8.97134e-08
2.50311e-08
-9.51333e-08
1.47119e-08
-1.12033e-07
5.90663e-09
1.72932e-08
-1.0711e-07
3.80602e-08
-8.34339e-08
-4.30274e-08
-1.11036e-08
-3.07037e-08
2.9431e-09
-9.66889e-08
-3.86175e-08
3.23217e-08
-5.70007e-08
1.77228e-11
-5.54481e-08
-1.64589e-08
-9.02968e-08
-1.76197e-08
-9.57287e-08
-1.33287e-08
-5.26037e-08
5.50541e-10
-1.14136e-07
-2.58587e-08
-1.10818e-07
-2.97797e-08
-1.18399e-07
-4.84097e-09
-1.4904e-07
5.36392e-09
-1.20316e-07
-7.7259e-09
-1.06501e-07
1.93969e-08
-1.1869e-07
1.4419e-08
-1.2008e-07
-9.97997e-10
-1.4953e-07
1.59137e-08
6.14146e-08
5.55476e-08
-1.58622e-07
-6.31778e-08
-8.89337e-08
-3.04208e-08
-1.28556e-07
-2.3154e-08
-1.32778e-07
-1.7915e-08
-1.33916e-07
-5.16618e-09
-1.30691e-07
1.61746e-09
-1.39793e-07
7.36281e-09
-1.61719e-07
-3.28976e-09
-1.25619e-07
1.47558e-08
-1.21282e-07
1.84592e-08
-1.149e-07
7.81328e-09
-1.11911e-07
-9.69078e-09
-1.01488e-07
-1.3387e-08
-1.0814e-07
-6.66941e-09
-1.14887e-07
3.39492e-09
-1.15206e-07
-8.17433e-10
-1.15758e-07
1.30744e-08
-5.5257e-08
-7.3939e-09
-1.00235e-07
-2.82935e-08
-9.82284e-08
-3.53938e-08
-1.04173e-07
-1.189e-08
-1.14347e-07
-1.06606e-08
-1.50452e-07
9.0026e-09
3.18679e-08
6.33694e-08
3.32656e-08
8.36631e-09
-1.41691e-07
-6.83349e-08
-1.00853e-07
-4.81278e-09
-4.30661e-08
1.72992e-08
-1.29115e-07
-1.80663e-08
-9.64919e-08
-3.6634e-09
-1.01159e-07
1.62099e-09
-1.24154e-07
7.3408e-10
-4.92797e-08
1.30557e-08
-9.03424e-08
-5.1252e-09
-1.06113e-07
1.81043e-08
-1.01547e-07
-3.11009e-09
-1.0497e-07
1.20121e-08
-9.49942e-08
1.83524e-08
-9.65105e-08
3.13639e-08
-9.45006e-08
2.29898e-08
-1.11253e-07
1.82595e-08
-1.4862e-07
2.11889e-08
4.67277e-08
6.2575e-08
-1.61444e-07
-6.57266e-08
-1.97364e-07
-1.77034e-08
5.20335e-08
5.24195e-08
-1.46882e-07
-7.41715e-08
-1.22114e-07
-1.20746e-08
-1.08447e-07
-1.01893e-09
-9.70986e-08
-5.90479e-09
-8.99466e-08
2.62567e-09
-8.83313e-08
-1.65923e-08
-7.80308e-08
4.41214e-09
-8.21476e-08
1.08615e-08
2.4414e-08
-8.14417e-08
9.03406e-09
-7.80475e-08
-2.94737e-08
-9.27269e-08
-1.11106e-08
1.06567e-07
2.5031e-08
-9.46103e-08
-8.52744e-08
-6.83787e-08
-2.62142e-08
-1.07224e-07
-1.83197e-08
-9.06336e-08
5.97758e-09
-9.88588e-08
-5.10379e-09
-9.92098e-08
9.01174e-10
-1.05856e-07
-1.89486e-08
-7.24388e-08
-6.31975e-08
-1.09321e-07
3.17173e-08
-1.08136e-07
4.12389e-09
-1.10366e-07
-4.32651e-09
-8.09625e-08
-1.00067e-08
-9.13874e-08
2.30853e-08
-1.09043e-07
1.66572e-08
-1.04491e-07
1.24735e-08
-6.23181e-08
1.28079e-08
-1.10918e-07
-1.57093e-08
-1.25492e-07
-1.60121e-08
-1.10914e-07
-3.64529e-08
-1.09493e-07
-1.93361e-08
-1.02466e-07
-1.21404e-08
-1.17538e-07
1.6689e-08
-1.24305e-07
1.41299e-08
-1.31544e-07
3.98276e-09
-6.69994e-08
-4.97892e-08
-1.00907e-07
5.30432e-08
-8.8744e-08
-4.34974e-09
-7.8199e-08
-2.04423e-08
-5.80344e-08
-3.29656e-08
5.24337e-09
-7.04659e-08
-3.01588e-08
3.84582e-08
-3.56156e-08
4.99437e-09
-2.1522e-08
-8.01757e-10
-1.25212e-08
-1.66121e-08
-2.05305e-08
-2.04118e-08
-4.34413e-08
-1.29764e-08
-5.25992e-08
-2.73207e-09
-5.76282e-08
-6.21932e-09
-8.23981e-08
-6.64833e-09
-2.45627e-08
4.59872e-08
-1.51656e-08
-1.03064e-09
-4.84432e-08
-3.59092e-08
-4.93202e-08
-3.84737e-09
-2.72083e-08
-4.81252e-09
-8.64736e-08
1.19055e-09
-5.67367e-08
6.60831e-09
-6.8051e-08
1.29353e-08
-8.79177e-08
2.05933e-08
-7.94707e-08
4.60873e-09
-8.51382e-08
-3.26172e-10
-1.35483e-07
2.91243e-08
-1.14149e-07
1.6529e-08
-1.25879e-07
2.25775e-08
-1.14564e-07
5.80975e-09
-1.43078e-07
1.94565e-08
-1.10812e-07
3.18673e-08
-1.16561e-07
2.37662e-08
-1.12882e-07
1.63576e-08
-1.03219e-07
1.19695e-08
-1.26855e-07
-1.029e-09
-1.3029e-07
-1.42682e-08
-7.79198e-08
4.96297e-11
-1.28598e-07
-2.44994e-08
-1.23115e-07
-1.75576e-08
-1.11352e-07
-1.27823e-08
-1.0748e-07
-9.77698e-09
-1.01972e-07
-2.85267e-09
-1.01419e-07
-1.71447e-08
-9.96363e-08
2.63008e-09
-8.94268e-08
6.5233e-10
-1.73257e-08
-7.65024e-08
-6.06932e-09
-6.83645e-08
-1.79878e-08
-9.87265e-08
-1.68421e-08
-4.0405e-08
8.73207e-09
-1.11767e-07
-1.39123e-08
-1.08799e-07
-2.945e-08
-1.15599e-07
-1.15201e-08
-1.10037e-07
4.15537e-10
-1.04109e-07
-1.10321e-08
-1.16409e-07
1.30672e-08
-1.38551e-07
3.19277e-09
6.94425e-08
4.81686e-08
-1.41891e-07
-7.37851e-08
-1.07385e-07
-3.07349e-08
-9.00858e-08
-2.1626e-08
-3.31838e-08
-6.79302e-08
-6.80634e-08
5.73792e-08
-7.3128e-08
2.15516e-08
-7.31019e-08
1.2447e-08
-6.26707e-08
2.37643e-09
-7.28594e-08
-6.26424e-09
-1.12817e-07
-1.63103e-08
-8.83745e-08
-1.97366e-08
-1.01889e-07
-5.82212e-09
-5.87768e-08
-5.5822e-08
-9.23556e-08
5.02676e-08
-1.08299e-07
3.00734e-08
-1.32611e-07
2.80083e-08
8.60079e-08
5.07827e-08
-1.11933e-07
-6.5194e-08
-8.19577e-08
-3.55109e-08
-8.22856e-08
-2.01145e-08
-1.04886e-07
-1.07015e-08
1.1868e-07
2.4106e-08
-9.70094e-08
-6.33272e-08
-8.0142e-08
-1.28628e-08
-7.31165e-08
-7.83544e-09
-7.73759e-08
-1.26511e-08
-8.58609e-08
-1.28027e-08
-1.00961e-07
2.12414e-09
-1.03098e-07
4.34137e-10
-9.00503e-08
-1.92665e-08
-4.71673e-08
-4.94635e-08
-8.38674e-08
4.22479e-08
-5.21543e-08
7.2544e-09
-6.508e-08
-2.25495e-08
-5.45e-08
-1.44273e-08
-4.41492e-08
-1.57193e-08
-5.48528e-08
1.18943e-08
-5.63271e-08
8.0826e-09
-5.32141e-08
9.82237e-09
-4.45308e-08
1.17898e-08
-3.702e-08
-2.87278e-09
8.89427e-09
-4.63311e-08
-3.05593e-08
6.76011e-08
-2.6425e-08
1.22517e-08
-1.96401e-08
1.5993e-08
-1.88857e-08
5.05534e-09
-2.59658e-08
2.64104e-08
-9.40018e-09
1.53967e-08
-4.24782e-09
1.85189e-08
-9.53021e-09
2.12823e-08
-2.33458e-08
2.54e-08
-4.23486e-08
1.82121e-08
-6.70022e-08
1.04925e-08
-6.32295e-08
-4.36799e-09
-1.22357e-07
-5.79311e-09
-1.1331e-07
1.46528e-08
-1.20832e-07
-5.26068e-09
-1.12198e-07
-1.72655e-08
-9.82006e-08
-1.68502e-08
-9.49839e-08
-2.13628e-08
-8.52828e-08
-7.07019e-09
-8.07358e-08
-3.07093e-09
-5.36121e-09
-1.10373e-07
5.06385e-10
-8.40687e-08
-2.34633e-08
-1.04568e-07
8.47365e-09
-8.85928e-08
-5.10997e-09
-9.48763e-08
-7.62905e-09
-1.06851e-07
-1.74755e-08
-1.09287e-07
-9.08469e-09
-1.0212e-07
-6.75147e-09
-1.05406e-07
-6.67087e-09
-8.86391e-08
-3.66342e-09
-8.70492e-08
6.98345e-10
-4.30161e-08
4.13512e-09
-8.09208e-08
-3.66334e-08
-9.15393e-08
-2.01167e-08
-1.60289e-07
6.89392e-09
7.55226e-08
5.55644e-08
-1.16313e-07
-6.76213e-08
-8.00988e-08
-1.58498e-08
-6.78091e-08
1.57036e-10
-7.04442e-08
5.01122e-09
-7.60363e-08
-6.72433e-10
-7.8614e-08
-1.35664e-08
-4.12241e-08
-5.71268e-08
-1.20169e-07
7.11706e-08
7.75995e-08
6.97763e-08
-1.30783e-07
-6.22099e-08
-9.13345e-08
-8.44362e-09
-6.30272e-08
-2.99127e-10
-1.10021e-08
-1.75543e-09
-4.68869e-08
-2.99677e-08
-5.88659e-08
-2.40104e-08
-7.03706e-08
-8.60986e-09
-6.72524e-08
-1.38198e-08
1.41162e-08
-5.77073e-08
-9.19259e-08
4.20621e-08
-1.02958e-07
-8.92442e-10
-1.04989e-07
-6.87628e-09
-1.40741e-07
-1.73193e-08
-1.05741e-07
-6.35858e-09
-1.12422e-07
8.78396e-09
-1.18758e-07
6.7694e-09
-1.43701e-07
5.67724e-09
6.49775e-08
6.18944e-08
-1.33931e-07
-7.56795e-08
-7.63466e-08
-5.24751e-08
-9.42325e-08
-4.71219e-09
-8.88132e-08
-1.90324e-08
-5.06792e-08
-5.44083e-08
-9.26526e-08
5.38678e-08
-1.02978e-07
1.84081e-08