/*--------------------------------*- C++ -*----------------------------------*\
  =========                 |
  \\      /  F ield         | OpenFOAM: The Open Source CFD Toolbox
   \\    /   O peration     | Website:  https://openfoam.org
    \\  /    A nd           | Version:  12
     \\/     M anipulation  |
\*---------------------------------------------------------------------------*/
FoamFile
{
    format      ascii;
    class       volVectorField;
    location    "0.6";
    object      U.water_0;
}
// * * * * * * * * * * * * * * * * * * * * * * * * * * * * * * * * * * * * * //

dimensions      [0 1 -1 0 0 0 0];

internalField   nonuniform List<vector> 
3750
(
(-0.00330172 -0.0331375 0)
(-0.00518179 -0.00753413 0)
(-0.00752717 -0.00823133 0)
(-0.00208517 0.00264078 0)
(-0.00107563 0.00302007 0)
(-0.000469181 0.00650144 0)
(4.30383e-05 0.00759326 0)
(-0.000335545 0.00954958 0)
(-0.00013898 0.00914121 0)
(-0.000175178 0.0106053 0)
(-0.000350305 0.0109708 0)
(0.000268832 0.0126847 0)
(-0.00077224 0.0126962 0)
(0.0011502 0.0110293 0)
(0.000662675 0.013381 0)
(0.000571401 0.0140594 0)
(-0.000107619 0.0143537 0)
(0.000881612 0.0142742 0)
(0.000561815 0.0124891 0)
(0.0015698 0.00872645 0)
(0.00445136 0.019463 0)
(-0.00305428 0.0208389 0)
(-0.00212749 0.00778513 0)
(-0.000659663 0.00938407 0)
(-0.000400654 0.0110061 0)
(-0.000322506 0.0123767 0)
(-0.000809746 0.0136835 0)
(0.000353091 0.0142371 0)
(0.000780169 0.0137587 0)
(0.000106917 0.0138999 0)
(8.62557e-05 0.0138366 0)
(-0.000317408 0.0144937 0)
(-5.55318e-06 0.0144621 0)
(-0.000639192 0.0159672 0)
(-0.00057115 0.0158093 0)
(-0.00112566 0.0156129 0)
(-0.000725625 0.0158815 0)
(-0.000951885 0.0165396 0)
(-0.000713001 0.0183028 0)
(-0.000763807 0.0183382 0)
(-0.000239958 0.0190837 0)
(-0.000607904 0.0204956 0)
(-0.000363783 0.0217631 0)
(0.00116963 0.0227098 0)
(0.00191789 0.024027 0)
(0.0019154 0.0236946 0)
(0.00205018 0.0216955 0)
(0.00110027 0.0194984 0)
(0.000726229 0.0160112 0)
(-0.000339962 0.0133988 0)
(-1.14377e-05 0.0119659 0)
(-0.00045159 0.0123239 0)
(2.16185e-05 0.0125161 0)
(0.000380879 0.0122493 0)
(-0.000346991 0.0129144 0)
(0.000107089 0.012485 0)
(0.000733166 0.0137251 0)
(0.00142429 0.0151526 0)
(0.00284596 0.0144458 0)
(0.00392473 0.0120153 0)
(0.00552266 0.0220503 0)
(-0.00249726 0.0208572 0)
(-0.0021596 0.00892501 0)
(-0.00267268 0.0109468 0)
(-0.0027367 0.0138355 0)
(-0.000830708 0.014005 0)
(-0.000125184 0.013823 0)
(-0.000630255 0.0127496 0)
(-0.00018176 0.0120712 0)
(-0.00185637 0.0122509 0)
(0.000305994 0.012087 0)
(-0.000773657 0.0131197 0)
(-0.00133295 0.0128953 0)
(-0.000468939 0.0126162 0)
(5.40777e-05 0.0145679 0)
(-0.000755084 -0.00501684 0)
(-0.00569437 0.00941071 0)
(-0.0114748 -0.00664059 0)
(-0.000182105 0.00476946 0)
(-0.00179747 -0.00151734 0)
(-0.00239876 0.000578592 0)
(-0.000972318 -0.000105998 0)
(-0.00188631 0.00221663 0)
(-0.000956794 0.00343551 0)
(-0.00128871 0.00576215 0)
(-0.000326803 0.00530228 0)
(0.000337688 0.00515479 0)
(-0.00190848 0.00474502 0)
(-0.000995963 0.0056299 0)
(-0.00208627 0.00805966 0)
(-0.00129855 0.0101334 0)
(-0.00192642 0.0104137 0)
(-0.00144306 0.0118776 0)
(0.00248111 0.0112397 0)
(0.00346314 0.0109717 0)
(0.00554878 0.0137096 0)
(-0.00195156 0.0108979 0)
(-0.00156349 0.005759 0)
(-0.000713743 0.00384504 0)
(-0.00163533 0.00390187 0)
(-0.000420574 0.00399388 0)
(-0.00169851 0.00613383 0)
(-0.0014293 0.00701321 0)
(-0.000252239 0.00700444 0)
(-0.000461483 0.00713376 0)
(-0.00117142 0.00876376 0)
(2.0559e-05 0.00811355 0)
(0.000131947 0.00814304 0)
(0.000690742 0.00847668 0)
(2.70879e-05 0.00735879 0)
(0.000324408 0.00640586 0)
(-0.000299265 0.00635767 0)
(-0.00112841 0.00560124 0)
(-0.00078565 0.00753983 0)
(0.000289404 0.00991134 0)
(-0.00120341 0.0113041 0)
(-0.00108989 0.0108901 0)
(-0.00253296 0.0132088 0)
(-0.00136031 0.0146899 0)
(-0.00176823 0.015671 0)
(0.000390197 0.0187859 0)
(0.00238388 0.0211665 0)
(0.00445796 0.020367 0)
(0.00514064 0.0182027 0)
(0.00352097 0.0165497 0)
(0.00100998 0.0145077 0)
(0.000447901 0.0142312 0)
(-0.000687361 0.0140004 0)
(0.000290319 0.0134802 0)
(-0.00109776 0.0135427 0)
(-0.000948165 0.0131232 0)
(-0.000984195 0.011857 0)
(-0.00201191 0.0128403 0)
(-0.00179881 0.0140906 0)
(0.00116286 0.0170567 0)
(0.00532644 0.0209521 0)
(-0.00342568 0.0198785 0)
(-0.000898531 0.0149149 0)
(-0.000636339 0.013154 0)
(-0.00272344 0.0132412 0)
(0.00355963 0.0101778 0)
(0.00143337 0.00686397 0)
(0.000605932 0.00675483 0)
(0.0023315 0.00617338 0)
(-0.000800209 0.00741638 0)
(0.001827 0.00730104 0)
(-0.000445794 0.00698357 0)
(0.000316412 0.00681601 0)
(-0.00163233 0.00542416 0)
(-0.00073343 0.00563778 0)
(0.00306588 -0.0355591 0)
(-0.00891934 -0.000605619 0)
(-0.00648121 -0.005835 0)
(-0.00517469 0.00340388 0)
(-0.00474337 -0.00725417 0)
(-0.00312247 -0.00463432 0)
(-0.00194539 -0.00559496 0)
(-0.00307801 -0.00400219 0)
(-0.00240488 -0.00505668 0)
(-0.0034108 -0.0039852 0)
(0.00324714 -0.00434735 0)
(0.00148734 -0.00626312 0)
(-0.00120352 -0.00776534 0)
(-0.00281377 -0.00826861 0)
(-0.00379237 -0.00619901 0)
(-0.00131566 -0.0071292 0)
(-0.00179272 -0.00942623 0)
(-0.00427269 -0.00473197 0)
(0.00520931 -0.00363719 0)
(0.00468092 -0.00730738 0)
(0.00462988 -0.00327632 0)
(0.00256096 -0.00256021 0)
(0.000842899 -0.00666154 0)
(0.000787467 -0.00790011 0)
(-0.000835328 -0.00624732 0)
(-0.00210563 -0.00643838 0)
(-0.00101579 -0.00667901 0)
(-0.00297367 -0.00711489 0)
(-0.000310889 -0.00744341 0)
(0.000115796 -0.0064019 0)
(-0.000298552 -0.00474426 0)
(0.000765047 -0.00426012 0)
(0.000128272 -0.0039412 0)
(0.00185482 -0.00188747 0)
(-0.000640704 -0.000778783 0)
(0.000337461 0.00172226 0)
(-0.00308207 0.00216536 0)
(-0.00288401 0.00149472 0)
(-0.00453469 0.00288655 0)
(-0.00109469 0.00186986 0)
(-0.00361523 0.00551721 0)
(-0.00315569 0.00777163 0)
(-0.00319175 0.00886585 0)
(-0.0035137 0.00980712 0)
(-0.00371956 0.00910432 0)
(-0.00294352 0.00936122 0)
(0.00086997 0.00861763 0)
(0.00382172 0.010275 0)
(0.00632598 0.0102369 0)
(0.00327003 0.00756619 0)
(0.00144674 0.00581796 0)
(0.00225628 0.00364055 0)
(0.000212168 0.00169089 0)
(-0.000297414 0.000929072 0)
(6.47009e-05 0.000826431 0)
(0.000971618 0.00219631 0)
(0.000485914 0.00288006 0)
(-0.00120784 0.00202203 0)
(-0.000580249 0.001279 0)
(0.00132648 0.00130089 0)
(0.00318517 -0.000780093 0)
(0.000887529 -0.000193412 0)
(0.0012008 -0.00200523 0)
(0.00259337 -0.00358518 0)
(0.000120016 0.00495878 0)
(0.00177752 0.00306028 0)
(0.0012073 -0.00618937 0)
(-0.000287701 -0.00374125 0)
(-0.00108318 -0.00445778 0)
(-0.00168506 -0.00139383 0)
(-0.00183943 -0.00022743 0)
(0.00153128 -0.00139015 0)
(-0.00167911 -0.00184119 0)
(0.000718485 -0.00329194 0)
(-0.000615402 -0.00249758 0)
(1.46906e-05 -0.0214277 0)
(-0.0124834 0.00136902 0)
(-0.0033601 -0.00601191 0)
(-0.0108225 -0.00281609 0)
(-0.00526573 -0.0093262 0)
(-0.00329059 -0.00726456 0)
(0.00036934 -0.00811496 0)
(0.00139008 -0.00707454 0)
(0.000186595 -0.00915075 0)
(0.0005979 -0.00374718 0)
(-0.000477422 -0.00457439 0)
(-0.000487698 -0.0142092 0)
(8.11876e-05 -0.0149962 0)
(-5.56811e-05 -0.01726 0)
(-0.00226962 -0.0163365 0)
(-0.00229942 -0.0164462 0)
(-0.000192544 -0.0208948 0)
(3.62389e-05 -0.0125451 0)
(-0.0010724 -0.0122618 0)
(0.000300781 -0.0217975 0)
(0.00242023 -0.0172949 0)
(0.00090803 -0.0136289 0)
(0.000463842 -0.0092849 0)
(0.000646528 -0.00738003 0)
(-0.00144212 -0.0102146 0)
(-0.00178477 -0.00877371 0)
(-0.00278949 -0.0102066 0)
(-0.00215738 -0.00947849 0)
(-0.000127676 -0.00853181 0)
(-0.00180774 -0.00911087 0)
(-0.00199078 -0.00487029 0)
(-0.0020258 -0.00597938 0)
(-0.00300234 -0.0052682 0)
(-0.00309308 -0.00510224 0)
(-0.00213984 -0.00508197 0)
(-0.00192614 -0.00531489 0)
(-0.000318353 -0.00611406 0)
(-0.00106379 -0.00704532 0)
(-0.00502327 -0.00399533 0)
(-0.000823308 -0.00319111 0)
(-0.00162592 -0.0050835 0)
(-0.00625801 -0.00265637 0)
(-0.00691144 0.000480461 0)
(-0.000172538 0.00162655 0)
(-0.000764198 -0.00303258 0)
(-0.00105973 -0.00408221 0)
(0.00184473 -0.0056182 0)
(0.00251889 -0.0057645 0)
(0.0075489 -0.00535241 0)
(0.00628607 -0.00659681 0)
(0.00486581 -0.0063342 0)
(0.00253623 -0.00796236 0)
(0.00177873 -0.00867026 0)
(0.000507108 -0.0073662 0)
(-0.000863689 -0.00543495 0)
(-0.00248023 -0.00451091 0)
(-0.000546572 -0.00590405 0)
(0.000361614 -0.00445162 0)
(0.00189031 -0.00399198 0)
(0.00238193 -0.0051222 0)
(0.00158838 -0.00576711 0)
(0.00216547 -0.00414819 0)
(0.00078157 -0.00258242 0)
(0.00109337 -0.00498951 0)
(0.00202848 -0.0010972 0)
(0.00128583 -1.72606e-05 0)
(0.0018968 -0.00623245 0)
(-0.00126438 -0.00717793 0)
(-0.00119343 -0.00870297 0)
(-0.000141873 -0.00740247 0)
(-0.00514872 -0.0048066 0)
(0.00375235 -0.00832484 0)
(0.00272789 -0.0084859 0)
(0.00154536 -0.00886397 0)
(-0.000524503 -0.0115478 0)
(0.00745615 -0.0219417 0)
(-0.00223572 0.00882166 0)
(-0.00734961 -0.00412401 0)
(-0.00977017 -0.00708638 0)
(-0.00713371 -0.00873162 0)
(-0.00642122 -0.00561613 0)
(-0.0025416 -0.00206627 0)
(-0.000909815 0.00121572 0)
(0.000494174 0.00488639 0)
(0.00507954 0.00864446 0)
(-0.00141559 0.00770608 0)
(0.00057048 0.00409948 0)
(0.00135357 0.0015755 0)
(-0.000184772 -0.00107442 0)
(-0.00344621 0.0012264 0)
(-5.98068e-05 0.00212371 0)
(0.00497063 -0.00174857 0)
(0.00618614 -0.00374572 0)
(-0.00318815 -0.00634183 0)
(-0.00180283 -0.0100542 0)
(-0.000920783 -0.00978716 0)
(-0.00120524 -0.00843385 0)
(-0.000113151 -0.00701257 0)
(-0.00158023 -0.00681362 0)
(-0.00160041 -0.00607537 0)
(-0.00119932 -0.00611412 0)
(-0.00342726 -0.00698765 0)
(-0.00160173 -0.0026317 0)
(-0.00132931 -0.00413272 0)
(-0.00180405 -0.00544714 0)
(-0.00466118 -0.0032607 0)
(0.000657725 -0.00503876 0)
(0.000686514 -0.00686617 0)
(-0.00040109 -0.006557 0)
(-0.000101995 -0.00818022 0)
(0.000488491 -0.00742433 0)
(0.00128766 -0.00685971 0)
(-0.000784759 -0.00996283 0)
(-0.00245235 -0.0014774 0)
(-0.00467477 0.000426214 0)
(-0.00638475 -0.0101442 0)
(-0.00565635 -0.0120438 0)
(-0.00494877 -0.00250005 0)
(-0.00242913 -0.00401236 0)
(-0.000134198 -0.0136342 0)
(-0.000346986 -0.0128506 0)
(0.00182603 -0.012063 0)
(0.000880444 -0.00781643 0)
(0.00675524 -0.0050001 0)
(0.00593681 -0.0078758 0)
(0.00382948 -0.00762545 0)
(0.001361 -0.00606195 0)
(0.00124633 -0.00529109 0)
(-0.000352179 -0.00652586 0)
(-0.00107662 -0.00752677 0)
(-0.000980594 -0.00631584 0)
(0.000428435 -0.00719949 0)
(0.000122055 -0.00986744 0)
(-2.49069e-05 -0.0109723 0)
(0.000489316 -0.0103871 0)
(0.000533945 -0.0115847 0)
(0.00240303 -0.0104556 0)
(0.00216846 -0.009309 0)
(0.00321067 -0.00876073 0)
(0.00358922 -0.000908343 0)
(-0.000319695 -0.000781851 0)
(0.000966555 -0.0112999 0)
(0.00148342 -0.00954695 0)
(-0.000114685 -0.0116439 0)
(0.00170663 -0.016808 0)
(0.000426073 -0.00665771 0)
(0.000810158 -0.00480322 0)
(0.000387085 -0.0125272 0)
(-0.00294779 -0.0114686 0)
(0.000625254 -0.00710058 0)
(0.00626592 -0.0197654 0)
(0.000639603 0.00210167 0)
(-0.0102833 -0.00720318 0)
(-0.0092815 -0.00632877 0)
(-0.00848946 -0.00944688 0)
(-0.00577948 -0.00957345 0)
(-0.00545333 -0.0135488 0)
(-0.00458735 -0.0136641 0)
(-0.00141339 -0.00880287 0)
(-0.0001128 -0.00495953 0)
(0.00140405 -0.00315447 0)
(0.00414646 -0.00227604 0)
(0.00367444 -0.00350804 0)
(0.00476333 -0.00789626 0)
(0.00442466 -0.00296931 0)
(0.00169979 0.00489385 0)
(-0.00133136 -0.00195022 0)
(0.00370303 -0.0071144 0)
(-2.37711e-05 -0.00751267 0)
(-0.000827116 -0.00803451 0)
(7.60451e-05 -0.00761231 0)
(-8.93531e-05 -0.00695778 0)
(-0.000245542 -0.00582036 0)
(-0.000678411 -0.00562119 0)
(-0.00146092 -0.00605169 0)
(-0.00265559 -0.00544016 0)
(-0.00309134 -0.00470131 0)
(-0.00616789 -0.00161787 0)
(0.00142214 -0.00410826 0)
(0.00074954 -0.00998956 0)
(-0.00280976 -0.00146803 0)
(-0.000362517 -0.000190997 0)
(-0.000177677 -0.00716307 0)
(-0.00343419 -0.00564215 0)
(-0.00216239 -0.00266221 0)
(-0.00214896 0.00083185 0)
(-0.000763504 0.00187632 0)
(-0.00117322 0.00178181 0)
(0.00192822 0.00326128 0)
(-0.00531337 -0.00197042 0)
(-0.00594969 -0.00801752 0)
(-0.00210627 -0.00990499 0)
(0.00093067 -0.00894887 0)
(-0.00539816 -0.00857381 0)
(-0.000290727 -0.0147072 0)
(0.00149043 -0.0139278 0)
(0.000902276 -0.0144388 0)
(0.00215 -0.00847174 0)
(-0.000313607 -0.00662561 0)
(0.00173401 -0.0131226 0)
(0.0022616 -0.0112863 0)
(0.00376072 -0.00974973 0)
(0.00150086 -0.00965619 0)
(0.000404803 -0.0109928 0)
(-0.000296809 -0.00771198 0)
(0.00240117 -0.00618995 0)
(7.28719e-05 -0.00933686 0)
(-0.000295676 -0.0101214 0)
(0.00187982 -0.00961772 0)
(-0.00032041 -0.0113762 0)
(0.000819364 -0.0122092 0)
(0.00106609 -0.0118591 0)
(0.00219622 -0.00949268 0)
(0.00320569 -0.00990421 0)
(0.00561437 -0.00942931 0)
(-0.00084873 -0.0081329 0)
(0.00145861 -0.0112716 0)
(0.00198308 -0.0140678 0)
(0.000244136 -0.0147373 0)
(0.00241732 -0.0132713 0)
(0.00366852 -0.00936343 0)
(-0.00412392 -0.00980491 0)
(-0.00430241 -0.0111197 0)
(-0.00415512 -0.00633595 0)
(0.00315044 -0.00662046 0)
(0.00399182 -0.0260561 0)
(-0.00261729 0.00202484 0)
(-0.00769661 -0.0107739 0)
(-0.00557163 -0.00821464 0)
(-0.00335918 -0.0106908 0)
(-0.00347538 -0.012853 0)
(-0.00461973 -0.0160241 0)
(-0.00379857 -0.0138942 0)
(-0.0041736 -0.0140406 0)
(-0.00253162 -0.0138583 0)
(-0.00210661 -0.0120307 0)
(0.00129743 -0.0106966 0)
(0.0050361 -0.00844892 0)
(0.00683679 -0.00687095 0)
(0.0079163 -0.00573493 0)
(0.000730761 -0.00430234 0)
(-0.00473999 0.00258992 0)
(-0.00204971 0.00163326 0)
(-0.00190947 -0.0066881 0)
(-0.00126424 -0.00537385 0)
(-0.00181382 -0.00493785 0)
(-0.00182222 -0.00587229 0)
(-0.0024358 -0.0037256 0)
(-0.000934803 -0.00384098 0)
(-0.00201462 -0.00273241 0)
(-0.000368245 -0.00249981 0)
(-0.000956681 -0.00654314 0)
(-0.00390569 0.00356675 0)
(0.00302418 0.00418105 0)
(0.00181417 -0.00777206 0)
(0.000971592 -0.00229922 0)
(-0.00526792 0.00067254 0)
(-0.00511656 -0.00481049 0)
(-0.00598162 -0.00404425 0)
(-0.00581958 -0.00376912 0)
(-0.00656915 -0.00298878 0)
(0.00206932 -0.00255962 0)
(0.00244683 -0.00536125 0)
(0.00461653 -0.0054233 0)
(0.000929118 -0.00877004 0)
(0.0012782 -0.00898758 0)
(-0.00194899 -0.00812385 0)
(-0.00115043 -0.0118733 0)
(-0.0021344 -0.0139712 0)
(-0.000839998 -0.0146735 0)
(0.00347274 -0.016525 0)
(0.00260351 -0.0169769 0)
(0.00646514 -0.0140547 0)
(-0.0021864 -0.0113932 0)
(-0.00238331 -0.0105963 0)
(0.00401674 -0.00952287 0)
(0.00112842 -0.00935254 0)
(0.00097748 -0.0104345 0)
(-0.00193815 -0.00954839 0)
(-0.002672 -0.00649772 0)
(0.00163763 -0.00631145 0)
(0.000170583 -0.00884116 0)
(-0.00373297 -0.00557417 0)
(0.00355262 -0.0066569 0)
(0.00365646 -0.0097975 0)
(0.00184548 -0.0104674 0)
(0.00237222 -0.0109185 0)
(0.00289334 -0.0100225 0)
(0.00266759 -0.00988551 0)
(0.00362463 -0.0090875 0)
(0.00319175 -0.008667 0)
(0.000471776 -0.0095204 0)
(0.00268134 -0.00995436 0)
(0.00270051 -0.00811186 0)
(0.00074798 -0.00971054 0)
(-0.000314481 -0.00971578 0)
(-0.00261583 -0.00840882 0)
(-0.00208329 -0.00995975 0)
(-0.0015262 -0.00329708 0)
(-0.00223257 -0.00385671 0)
(0.00239768 -0.0177814 0)
(-0.0038174 -0.00212671 0)
(-0.0035005 -0.0124889 0)
(-0.00227894 -0.0106243 0)
(-0.00416618 -0.0145235 0)
(-0.00239727 -0.0152677 0)
(-0.00455844 -0.0159357 0)
(-0.00403308 -0.0170836 0)
(-0.00367057 -0.0155641 0)
(-0.00500478 -0.0134687 0)
(-0.0038627 -0.0123448 0)
(0.00448121 -0.0118029 0)
(0.00415476 -0.00957158 0)
(0.00471901 -0.0076005 0)
(0.00355666 -0.00572498 0)
(0.00351686 -0.0030837 0)
(0.00258387 -0.00097032 0)
(-0.0046921 -0.00242181 0)
(-0.00308008 -0.00636353 0)
(-0.00195385 -0.0067629 0)
(-0.00187247 -0.00679444 0)
(-0.000858443 -0.00621988 0)
(-0.00118599 -0.00342097 0)
(-0.00164994 -0.00472736 0)
(-0.000650002 -0.00608236 0)
(-0.00206245 -0.00454865 0)
(-0.000862701 -0.00497241 0)
(0.00265508 0.00650107 0)
(-0.00359163 0.00585411 0)
(-0.00337915 -0.00565833 0)
(-0.00501524 -0.00156285 0)
(-0.00237046 0.000179748 0)
(-0.00203748 -0.00444784 0)
(-0.001677 -0.00773979 0)
(-0.00189091 -0.0106491 0)
(0.000348709 -0.0042912 0)
(0.000634559 -0.00380462 0)
(0.00184321 -0.0108651 0)
(0.000130705 -0.00973277 0)
(-0.00194163 -0.00905183 0)
(-0.000691373 -0.0076138 0)
(-0.00261489 -0.00703141 0)
(-0.00149638 -0.00629568 0)
(-0.000383299 -0.00720631 0)
(-0.00110364 -0.0070876 0)
(0.00509176 -0.0085175 0)
(0.0033332 -0.0102236 0)
(0.0022101 -0.0104905 0)
(0.00100444 -0.0136509 0)
(-0.00127762 -0.00454122 0)
(0.0022785 -0.00613358 0)
(-0.000616543 -0.0124257 0)
(0.000916353 -0.0127633 0)
(0.000722356 -0.0162511 0)
(0.000657268 -0.00617308 0)
(0.00242501 -0.00620985 0)
(0.00200288 -0.0166547 0)
(-0.000718026 -0.00856076 0)
(-0.00327433 -0.00269313 0)
(0.0032599 -0.0116414 0)
(0.00176005 -0.0124174 0)
(0.00143885 -0.00993902 0)
(8.57024e-05 -0.00816498 0)
(0.00250855 -0.00805312 0)
(0.00220436 -0.00685036 0)
(0.00400717 -0.00597427 0)
(0.00177359 -0.00580723 0)
(0.00259744 -0.00543321 0)
(0.00229388 -0.00791991 0)
(0.000474212 -0.0076009 0)
(0.000348667 -0.00578343 0)
(8.89269e-05 -0.00607811 0)
(0.000244273 -0.0075174 0)
(0.00156426 -0.00483173 0)
(-0.00503136 -0.00645692 0)
(-0.00187456 -0.0143458 0)
(-0.000804036 0.00242236 0)
(0.00157072 -0.00786073 0)
(0.000807368 -0.0103623 0)
(-0.00232318 -0.0108146 0)
(-0.00238026 -0.0132146 0)
(-0.00468973 -0.0182898 0)
(-0.00258723 -0.0141996 0)
(-0.00274014 -0.015061 0)
(-0.00306602 -0.015977 0)
(-0.002754 -0.00639593 0)
(-0.000603135 -0.00723352 0)
(9.34234e-05 -0.01207 0)
(-0.000243921 -0.00793979 0)
(-0.00132562 -0.00314928 0)
(0.0051927 0.000657486 0)
(0.00210055 0.000208842 0)
(-0.00203797 0.0012562 0)
(-0.00423262 0.0015048 0)
(-0.00237051 0.00215921 0)
(-0.000637021 0.00364521 0)
(-0.00154134 0.00292167 0)
(-0.00192912 0.0024754 0)
(-0.00376663 0.00176747 0)
(-0.00131659 0.00117151 0)
(-0.00185533 0.00148553 0)
(-0.00204664 0.00150136 0)
(0.00902643 0.00412293 0)
(-0.00257163 0.00041853 0)
(-0.00333636 -0.00792369 0)
(-0.00248464 -0.0011086 0)
(-0.00189138 0.000316942 0)
(-0.0019393 -0.0106842 0)
(-0.00343465 -0.0108319 0)
(-0.00336315 -0.00739366 0)
(0.00754645 -0.00533237 0)
(-0.000922417 -0.0055904 0)
(-0.00207731 -0.00902218 0)
(-0.00130747 -0.0115754 0)
(-0.00160546 -0.0127881 0)
(-0.000619018 -0.0129871 0)
(-0.000346646 -0.0122311 0)
(-0.000398527 -0.0112145 0)
(0.000225077 -0.0106716 0)
(0.00192336 -0.00277235 0)
(0.00337622 -0.00433558 0)
(0.00312692 -0.0111059 0)
(0.00105535 -0.0100822 0)
(0.00425588 -0.0111427 0)
(0.00358428 -0.00747978 0)
(-0.00142514 -0.0078528 0)
(-0.000608964 -0.0107152 0)
(-0.000247276 -0.00970901 0)
(0.00262748 -0.0114831 0)
(0.004333 -0.00730469 0)
(-0.0013467 -0.00660472 0)
(-0.000992438 -0.0120869 0)
(0.00176101 -0.00973702 0)
(-0.00306021 -0.00165369 0)
(-0.00323845 -0.00442996 0)
(0.00106828 -0.0113421 0)
(0.00054377 -0.0113698 0)
(-0.00356919 -0.00785266 0)
(0.00414055 -0.00698633 0)
(0.00376388 -0.00663115 0)
(0.00156846 -0.00668065 0)
(0.00285781 -0.00806158 0)
(0.000374939 -0.00508559 0)
(0.000512129 -0.00530813 0)
(0.000724197 -0.0072469 0)
(8.9537e-06 -0.00660632 0)
(-0.000848356 -0.00648734 0)
(0.000257514 -0.00806999 0)
(-0.000520022 -0.0091447 0)
(-0.00175889 -0.00904765 0)
(-0.00120707 -0.0291422 0)
(0.00134859 0.00780029 0)
(-0.00357646 -0.00532421 0)
(0.00103227 -0.00509962 0)
(0.00171617 -0.00686828 0)
(-0.00115285 -0.00755843 0)
(-0.00260187 -0.00810365 0)
(-0.0033804 -0.00797646 0)
(-0.00642275 -0.00965291 0)
(-0.00396194 -0.00776094 0)
(0.00122101 -0.00541724 0)
(-0.00345824 -0.00533728 0)
(-0.000535168 -0.00858214 0)
(-0.0014296 -0.0103942 0)
(-0.00147371 -0.00263116 0)
(-0.00155748 -0.00180657 0)
(-0.00243706 -0.009131 0)
(-0.00293846 -0.00798162 0)
(-0.00405771 -0.00511568 0)
(-0.00733236 -0.00176775 0)
(-0.000324201 -0.00431622 0)
(-0.00227005 -0.00575978 0)
(-0.00018806 -0.00556919 0)
(-0.00127627 -0.00685956 0)
(0.00010383 -0.00827597 0)
(0.00197055 -0.0118622 0)
(0.00376409 -0.00333686 0)
(0.00417371 -0.0014293 0)
(-0.000365716 -0.00967184 0)
(-1.63198e-06 -0.00722168 0)
(0.00419082 -0.00421909 0)
(-0.00421324 -0.00661368 0)
(-0.00335331 -0.0130911 0)
(0.000684962 -0.0161212 0)
(0.00114708 -0.00696961 0)
(0.00164655 -0.00896725 0)
(-0.000760916 -0.0175103 0)
(-0.00172759 -0.0123621 0)
(0.00109296 -0.0121496 0)
(0.000425591 -0.0144062 0)
(-0.00193057 -0.0150761 0)
(-0.00164383 -0.016441 0)
(-0.00136551 -0.0153846 0)
(0.00113198 -0.0140605 0)
(0.00433573 -0.00969398 0)
(-0.000391691 -0.00841602 0)
(0.000759816 -0.0104932 0)
(-0.00080569 -0.00711864 0)
(0.00255602 -0.00691091 0)
(0.000551332 -0.00562966 0)
(-0.000932952 -0.00633055 0)
(-0.000952775 -0.00717346 0)
(-0.000241522 -0.00533964 0)
(0.00212725 -0.0054389 0)
(0.00291305 -0.00318342 0)
(0.00107612 -0.00472123 0)
(0.00180628 -0.00866272 0)
(0.00343979 -0.00680503 0)
(0.000971032 -0.00371131 0)
(-0.0069312 -0.00397672 0)
(0.00107177 -0.00600956 0)
(0.000866612 -0.013066 0)
(0.000202697 -0.00528251 0)
(0.000528307 -0.00231263 0)
(0.00205053 -0.0107205 0)
(-0.000305763 -0.00939741 0)
(0.00234425 -0.00783491 0)
(0.00193327 -0.00826207 0)
(0.00180926 -0.00723753 0)
(0.00126885 -0.00656327 0)
(0.000977406 -0.00641883 0)
(0.000974201 -0.00660768 0)
(-0.000473295 -0.00807584 0)
(0.000848595 -0.00820732 0)
(4.57231e-05 -0.00795533 0)
(0.000412817 -0.0224371 0)
(0.00571595 0.00299457 0)
(-0.00977333 -0.00519913 0)
(0.00271532 0.00045577 0)
(-0.000603161 -0.00577708 0)
(-0.00194746 -0.0045689 0)
(-0.00229827 -0.00398941 0)
(-0.0045568 -0.00192005 0)
(-0.00458338 -0.00458364 0)
(-0.00654846 -0.0016934 0)
(0.00219473 -0.0012869 0)
(-0.00155449 -0.00325301 0)
(0.00116714 -0.00420586 0)
(0.000559287 -0.00477455 0)
(0.00367415 -0.0022682 0)
(-0.00328394 -0.00313941 0)
(-0.00246391 -0.00730891 0)
(-0.00135478 -0.00894626 0)
(-0.00125473 -0.0121215 0)
(-0.00427974 -0.00574001 0)
(-0.00214426 -0.00424013 0)
(-0.00433211 -0.0110819 0)
(0.00226985 -0.0123294 0)
(0.0014354 -0.0142087 0)
(0.000854228 -0.0129534 0)
(0.000584664 -0.0111436 0)
(0.00303169 -0.0092195 0)
(-0.00461037 -0.00938588 0)
(-0.00146326 -0.0104276 0)
(-0.000471261 -0.0110824 0)
(-0.000340485 -0.0143853 0)
(-0.00175331 -0.0168962 0)
(0.000171462 -0.0153212 0)
(0.00179608 -0.0132938 0)
(0.00604708 -0.0113342 0)
(-0.0030998 -0.0093392 0)
(-0.00321422 -0.0111685 0)
(-0.00468152 -0.00699028 0)
(0.00172552 -0.00741139 0)
(-0.000171297 -0.0126061 0)
(-0.00165161 -0.0121938 0)
(6.76678e-06 -0.0118928 0)
(-7.25387e-05 -0.0120192 0)
(-0.000854459 -0.010161 0)
(0.00144455 -0.0084739 0)
(-0.000114368 -0.00945897 0)
(0.00130812 -0.0106568 0)
(-0.00168119 -0.00572372 0)
(0.00438469 -0.00603998 0)
(0.00180671 -0.00917979 0)
(-0.000933462 -0.00942169 0)
(5.60521e-05 -0.0104183 0)
(-0.0038021 -0.00594145 0)
(0.00474581 -0.00594353 0)
(7.82955e-05 -0.00559106 0)
(0.00202019 -0.00506443 0)
(0.00112835 -0.00841612 0)
(0.00341859 -0.00912475 0)
(0.000648403 -0.0107183 0)
(0.000779465 -0.0019272 0)
(-0.000307028 -0.00189035 0)
(0.000444989 -0.0111239 0)
(0.00374839 -0.00704093 0)
(-0.00200404 -0.00380919 0)
(-0.00165204 -0.00652044 0)
(-0.00129516 -0.00787698 0)
(0.00194688 -0.00696426 0)
(0.000824616 -0.00615109 0)
(0.000722255 -0.00505527 0)
(0.00122171 -0.00651197 0)
(0.000834701 -0.00571656 0)
(0.00136964 -0.00600672 0)
(0.000341103 -0.00531454 0)
(0.0013133 -0.00562962 0)
(0.00103008 -0.00843323 0)
(0.00181593 -0.0277758 0)
(-0.00201661 0.00243484 0)
(-0.00327345 -0.00676382 0)
(-0.00102259 0.00828841 0)
(-0.000892857 -0.00792341 0)
(-0.00393915 -0.00566158 0)
(-0.00219975 -0.00909066 0)
(-0.00429296 -0.00941071 0)
(-0.00217006 -0.0114469 0)
(-0.00175016 -0.00272086 0)
(-0.00363611 -0.00368467 0)
(-0.00223605 -0.0110371 0)
(9.96544e-05 -0.0087132 0)
(0.000638821 -0.0101054 0)
(0.00193401 -0.00888231 0)
(-0.000544415 -0.0108915 0)
(0.000294397 -0.012674 0)
(0.000293013 -0.0114557 0)
(-0.00114822 -0.0111516 0)
(-0.00176208 -0.00699321 0)
(-0.00180242 -0.00998889 0)
(-0.00218567 -0.0072593 0)
(-0.00109517 -0.00556418 0)
(-0.000841766 -0.0138803 0)
(-0.000227698 -0.0136026 0)
(0.000508145 -0.0133784 0)
(0.000713122 -0.0123166 0)
(0.000803813 -0.0118392 0)
(0.00173835 -0.0135504 0)
(0.00324705 -0.0151509 0)
(0.000723654 -0.0151547 0)
(-0.000158252 -0.0146429 0)
(-0.00169716 -0.0163011 0)
(-0.00331553 -0.0135086 0)
(-0.000221316 -0.0111343 0)
(-0.000595587 -0.0137027 0)
(-0.000770733 -0.0136946 0)
(0.000404057 -0.00580299 0)
(-0.00166937 -0.00798284 0)
(-0.000790939 -0.0164633 0)
(-0.000520381 -0.0133824 0)
(-0.000652984 -0.0131644 0)
(-0.00156012 -0.0140739 0)
(-0.00484466 -0.00928501 0)
(0.000523197 -0.00645732 0)
(0.00501345 -0.0074653 0)
(0.001581 -0.011806 0)
(0.00173423 -0.00369856 0)
(-0.00027587 -0.0027474 0)
(0.000492027 -0.0116314 0)
(-0.000411259 -0.00960808 0)
(-0.000607121 -0.0115139 0)
(-0.000142654 -0.00214539 0)
(0.00133829 -0.00325681 0)
(0.00253405 -0.009415 0)
(0.000499919 -0.00634265 0)
(0.0010754 -0.0097605 0)
(0.00362342 -0.00969356 0)
(0.0032342 -0.00944051 0)
(0.00507742 -0.00621805 0)
(-0.00249056 -0.00752993 0)
(-0.00128925 -0.00906133 0)
(-0.0039728 -0.00626919 0)
(0.00169821 -0.00617511 0)
(-0.00226872 -0.00850092 0)
(-0.00345769 -0.00388121 0)
(0.00260226 -0.0041515 0)
(0.000587606 -0.00808303 0)
(4.17685e-05 -0.00667368 0)
(0.000706982 -0.00748099 0)
(0.000573326 -0.00833519 0)
(0.00173693 -0.00900249 0)
(0.00200654 -0.00936805 0)
(0.00203978 -0.00649259 0)
(0.00350347 -0.00682975 0)
(0.00561643 -0.023498 0)
(-0.00526438 -0.00120204 0)
(0.00260955 -0.00809236 0)
(-0.00874953 0.00396307 0)
(0.00134162 -0.00350821 0)
(-0.000443764 -0.00252753 0)
(-0.00180735 -0.00533152 0)
(-0.00183254 -0.00654436 0)
(-0.00170207 -0.00706554 0)
(0.00197414 -0.00692225 0)
(-0.00487954 -0.00652217 0)
(-0.00179327 -0.00805425 0)
(-0.000432299 -0.0110663 0)
(0.00171529 -0.0128538 0)
(-0.000672728 -0.0118075 0)
(0.000441591 -0.0107721 0)
(0.000557574 -0.010425 0)
(-0.000672243 -0.0115374 0)
(0.000160937 -0.0136011 0)
(-4.34565e-05 -0.00477488 0)
(-0.00141478 -0.00342785 0)
(0.0013218 -0.0101819 0)
(-0.00374338 -0.0106618 0)
(-0.00193019 -0.0136905 0)
(-0.00105698 -0.0125159 0)
(-0.000331898 -0.0130758 0)
(-0.0001802 -0.0130596 0)
(-0.000248608 -0.0131511 0)
(-0.000510506 -0.0110392 0)
(0.00184621 -0.0108261 0)
(0.00200224 -0.0116565 0)
(0.000188479 -0.0105006 0)
(-0.000487714 -0.0110044 0)
(0.000213733 -0.0099812 0)
(-0.000276391 -0.0103543 0)
(-5.00243e-05 -0.0121108 0)
(0.00202784 -0.0100613 0)
(0.00235061 -0.006418 0)
(-0.00484305 -0.00740822 0)
(-0.00372318 -0.00948439 0)
(-0.0017221 -0.0099833 0)
(-0.00259209 -0.0103246 0)
(-0.00199057 -0.0130508 0)
(0.00010518 -0.00554942 0)
(0.00140816 0.00308935 0)
(0.000810416 -0.00603684 0)
(0.000640807 -0.0124625 0)
(0.0032027 -0.00583686 0)
(-0.0041844 -0.00520281 0)
(-0.000526236 -0.00775694 0)
(0.000265325 -0.00964344 0)
(0.00100636 -0.00957915 0)
(0.00311926 -0.00505031 0)
(-0.00298894 -0.00542402 0)
(-0.000145395 -0.00968514 0)
(0.000591688 -0.0105233 0)
(0.000688918 -0.00974119 0)
(0.00143077 -0.00851925 0)
(0.00161707 -0.00999451 0)
(0.00173373 -0.00881327 0)
(-5.93418e-05 -0.00949017 0)
(0.000391582 -0.0130229 0)
(-0.000445775 -0.00560295 0)
(-9.00202e-05 -0.00435714 0)
(0.000289411 -0.0141545 0)
(0.00066624 -0.00479483 0)
(-0.000807938 -0.00511409 0)
(-0.000169673 -0.0108902 0)
(0.00103662 -0.00885556 0)
(-0.000648522 -0.0107828 0)
(0.000767694 -0.00799204 0)
(0.00034655 -0.00659573 0)
(0.000476967 -0.0079851 0)
(0.000746063 -0.00631396 0)
(0.00100204 -0.00516782 0)
(0.0021243 -0.0218433 0)
(-0.00186641 -0.00269205 0)
(-0.00299226 -0.00998169 0)
(-0.00391985 0.00273884 0)
(-0.00303805 -4.49508e-05 0)
(-0.000100704 -0.0075464 0)
(-0.00104956 -0.00704966 0)
(-0.00057354 -0.00607923 0)
(1.92079e-05 -0.00863296 0)
(-0.000431339 -0.00964892 0)
(-0.00159838 -0.0110968 0)
(-0.00484616 -0.00823001 0)
(0.00169702 -0.00611545 0)
(0.000927341 -0.0100111 0)
(-0.000105106 -0.00935936 0)
(-0.000337844 -0.00778043 0)
(0.00125888 -0.00933392 0)
(0.00041445 -0.00807907 0)
(0.00164742 -0.00750386 0)
(0.00363423 -0.00706874 0)
(-0.00341611 -0.00937296 0)
(-0.00350387 -0.00988171 0)
(-0.00312857 -0.00781721 0)
(-0.00184126 -0.00922357 0)
(0.000230954 -0.0097352 0)
(0.00180684 -0.00988384 0)
(0.00136307 -0.00902275 0)
(-0.000375586 -0.00912163 0)
(-0.00203114 -0.00838581 0)
(0.00247089 -0.00819878 0)
(6.14277e-05 -0.00970941 0)
(-0.00208376 -0.00819765 0)
(-0.00254296 -0.00605448 0)
(-0.00330938 -0.0029856 0)
(0.00258191 -0.00165595 0)
(0.000153831 -0.00297833 0)
(0.00042989 -0.00227205 0)
(-0.00138929 -0.00240304 0)
(-0.00310069 -0.00215729 0)
(-0.00269399 -0.0021741 0)
(-0.00108973 -0.00356327 0)
(0.000133303 -0.00664747 0)
(0.000722865 -0.00545526 0)
(0.00563829 -0.00133724 0)
(0.000728418 -0.00168801 0)
(-0.00501713 -0.00367938 0)
(0.000684568 -0.00464998 0)
(0.00165363 -0.00334932 0)
(-0.000753258 -0.00225936 0)
(0.000129064 -0.00387655 0)
(0.000284596 -0.00586569 0)
(0.00109054 -0.00662467 0)
(0.00026729 -0.00557798 0)
(-0.000889756 -0.00714314 0)
(0.00122911 -0.00904518 0)
(0.000201041 -0.00950365 0)
(0.00276291 -0.0120242 0)
(0.00121238 -0.0115151 0)
(0.0022716 -0.00999557 0)
(0.00269526 -0.0086598 0)
(0.00189657 -0.00929238 0)
(0.00132828 -0.0103661 0)
(0.00278536 -0.00828049 0)
(-0.00356791 -0.00816504 0)
(-0.00186913 -0.0113606 0)
(0.00109223 -0.00922213 0)
(-0.00562901 -0.0101347 0)
(-0.00075267 -0.0124787 0)
(-0.00129498 -0.0113942 0)
(-0.000177814 -0.010956 0)
(0.000981738 -0.0100074 0)
(-0.000590598 -0.0104428 0)
(0.000472365 -0.0100068 0)
(0.000203233 -0.0074787 0)
(0.000771217 -0.00763807 0)
(-0.000387249 -0.0153969 0)
(-0.00158476 -0.00158099 0)
(-0.00157593 -0.0093953 0)
(0.00250089 -0.00178195 0)
(-0.00428706 -0.0063002 0)
(-0.00275266 -0.00769428 0)
(-1.87974e-05 -0.0111299 0)
(0.000459292 -0.00954535 0)
(-0.000315535 -0.0104232 0)
(0.000958836 -0.0116626 0)
(-0.000832472 -0.0126981 0)
(0.000303882 -0.00296207 0)
(-0.00140656 -0.00349863 0)
(-0.00196643 -0.0120768 0)
(-0.000763367 -0.00930629 0)
(-0.00312641 -0.00562701 0)
(0.00440184 -0.00482988 0)
(0.00250656 -0.0066559 0)
(0.00129405 -0.0069881 0)
(0.00039599 -0.00661075 0)
(-0.0018186 -0.0072682 0)
(-0.00135856 -0.00658332 0)
(-0.00286425 -0.00658955 0)
(-0.00147313 -0.00814015 0)
(-0.00410355 -0.007457 0)
(0.00316682 -0.00848638 0)
(0.00212351 -0.00960794 0)
(0.00144471 -0.00942144 0)
(-0.00101712 -0.00127276 0)