/*--------------------------------*- C++ -*----------------------------------*\
  =========                 |
  \\      /  F ield         | OpenFOAM: The Open Source CFD Toolbox
   \\    /   O peration     | Website:  https://openfoam.org
    \\  /    A nd           | Version:  12
     \\/     M anipulation  |
\*---------------------------------------------------------------------------*/
FoamFile
{
    format      ascii;
    class       volVectorField;
    location    "0.6";
    object      U.water;
}
// * * * * * * * * * * * * * * * * * * * * * * * * * * * * * * * * * * * * * //

dimensions      [0 1 -1 0 0 0 0];

internalField   nonuniform List<vector> 
3750
(
(0.00164485 -0.0312303 0)
(-0.00420063 -0.00666848 0)
(-0.00749323 -0.00651879 0)
(-0.00305306 0.00393623 0)
(-0.00215202 0.00342526 0)
(-0.000693471 0.00749127 0)
(0.000440198 0.00932876 0)
(-0.000322027 0.0110414 0)
(0.000448587 0.00927594 0)
(9.17357e-05 0.0104934 0)
(-0.000898905 0.0111173 0)
(-0.00306338 0.0164953 0)
(0.00209753 0.0169284 0)
(0.00144658 0.0122389 0)
(0.0010238 0.0136665 0)
(0.00080635 0.0135721 0)
(7.28579e-05 0.0132603 0)
(0.00107174 0.0149018 0)
(-0.000925322 0.0139194 0)
(-0.000227994 0.0106189 0)
(-0.00025585 0.0110541 0)
(-0.00137052 0.0127846 0)
(-5.96784e-05 0.0128086 0)
(0.00126409 0.0137276 0)
(0.000538856 0.0123298 0)
(-0.000330231 0.012824 0)
(-0.00352723 0.0171516 0)
(0.00348785 0.0170523 0)
(0.00144867 0.0135955 0)
(-4.46332e-05 0.0130568 0)
(2.32239e-07 0.0121898 0)
(-0.000356889 0.0133056 0)
(-0.000266161 0.0131836 0)
(-0.000873146 0.0147478 0)
(-0.00100958 0.0148582 0)
(-0.00175723 0.0168047 0)
(-0.00226333 0.0195439 0)
(-0.0010284 0.0204885 0)
(0.000653968 0.0211026 0)
(0.000148105 0.0201808 0)
(-2.68367e-06 0.0200122 0)
(-0.00053578 0.0204675 0)
(-0.000332309 0.0215309 0)
(0.00106581 0.0234765 0)
(0.0014008 0.024576 0)
(0.00184495 0.0231877 0)
(0.00203502 0.0215342 0)
(0.00107717 0.0193478 0)
(0.000666316 0.0159625 0)
(-0.000390626 0.0134751 0)
(-8.41436e-05 0.01219 0)
(-0.000583538 0.0127693 0)
(-0.000263164 0.0133464 0)
(5.3125e-05 0.0137443 0)
(0.00161388 0.0127605 0)
(0.00439169 0.0241149 0)
(-0.00359331 0.0252285 0)
(-0.000185908 0.0138721 0)
(0.00183229 0.0158034 0)
(0.00204763 0.0141579 0)
(0.00181754 0.0114721 0)
(0.00122507 0.00980924 0)
(0.00124893 0.00790405 0)
(0.00259472 0.0221246 0)
(-0.00548411 0.022708 0)
(-0.00268292 0.00950916 0)
(-0.00105023 0.0117722 0)
(-0.000729654 0.0120003 0)
(-0.000182358 0.0115641 0)
(-0.0017363 0.0116549 0)
(0.000268238 0.0113367 0)
(-0.000682034 0.0121564 0)
(-0.00115097 0.0117396 0)
(-4.74023e-05 0.0109519 0)
(0.00164213 0.010896 0)
(0.00632904 -0.00680993 0)
(-0.00293871 0.00593114 0)
(-0.0092696 -0.00680779 0)
(-0.00308112 0.00488816 0)
(-0.00352156 -0.000352091 0)
(-0.00282588 0.00305692 0)
(-0.000563335 0.00191914 0)
(-0.00146736 0.00388881 0)
(0.00021558 0.00383616 0)
(-8.55417e-05 0.00442324 0)
(-0.000722562 0.00179484 0)
(-0.00022882 0.0123842 0)
(-0.00285735 0.012668 0)
(-0.00230003 0.00440638 0)
(-0.000496925 0.00835638 0)
(-0.000555611 0.00955347 0)
(-0.00130779 0.00931608 0)
(-0.000450168 0.0109237 0)
(-0.000786175 0.0106753 0)
(-0.000204856 0.0097368 0)
(-0.00108641 0.0090312 0)
(-0.00295125 0.00929728 0)
(0.00188674 0.0112807 0)
(0.0060738 0.00711955 0)
(0.00108467 0.00332448 0)
(0.000913659 0.000829132 0)
(-0.00137881 0.0127576 0)
(-0.000930293 0.0132363 0)
(9.58917e-05 0.00375455 0)
(-0.00106729 0.00560561 0)
(-0.00180245 0.00720979 0)
(-0.000299143 0.00675386 0)
(-0.000616927 0.0066381 0)
(0.000225123 0.0070368 0)
(-0.0006881 0.0060374 0)
(-0.00145457 0.00652428 0)
(-0.00678145 0.0106287 0)
(-0.000663001 0.0124966 0)
(0.00416102 0.0113644 0)
(0.00292809 0.0106514 0)
(-0.00042472 0.0114728 0)
(-0.00097192 0.0106698 0)
(-0.00220421 0.0127977 0)
(-0.00124788 0.0149737 0)
(-0.00253663 0.0162786 0)
(0.000164496 0.0187943 0)
(0.00236403 0.0211049 0)
(0.00439744 0.0202602 0)
(0.00493641 0.0181562 0)
(0.00329851 0.0166453 0)
(0.000841242 0.014734 0)
(8.9958e-05 0.0145384 0)
(-0.00153492 0.0147347 0)
(-0.00277981 0.0172017 0)
(0.00479069 0.0180696 0)
(0.00498403 0.0185915 0)
(-0.00654898 0.017403 0)
(-0.0043691 0.0148337 0)
(-0.0033872 0.0151748 0)
(-0.0019322 0.0166092 0)
(0.000715974 0.0164366 0)
(0.00240139 0.0154816 0)
(0.00462825 0.0155339 0)
(0.00709499 0.0182125 0)
(-0.00397612 0.0149497 0)
(-0.000283624 0.00751868 0)
(-0.000759364 0.00664741 0)
(0.000413284 0.00696416 0)
(0.00236922 0.00592248 0)
(-0.000151754 0.00677207 0)
(0.00198075 0.0065226 0)
(-0.000279136 0.00624802 0)
(0.000649323 0.00602347 0)
(-0.000651134 0.0051873 0)
(0.00186992 0.00578542 0)
(0.00246124 -0.0335638 0)
(-0.00821783 0.00191404 0)
(-0.00733671 -0.00957027 0)
(-0.00527368 0.000886921 0)
(-0.00379558 -0.00444292 0)
(-0.00269199 -0.00151636 0)
(-0.00162662 -0.00299469 0)
(-0.00255135 -0.00173208 0)
(-0.000403265 -0.00413382 0)
(-0.000148162 -0.00556144 0)
(0.00249969 -0.0059106 0)
(0.00445615 -0.0030239 0)
(-0.00629823 -0.00426898 0)
(-0.00757049 -0.00450199 0)
(0.000452798 -0.00383561 0)
(-0.000214642 -0.00860679 0)
(-0.00154068 -0.0102252 0)
(-0.00235224 -0.00787782 0)
(0.0011764 -0.00675865 0)
(0.00228458 -0.00872465 0)
(0.00309962 -0.00887713 0)
(0.00469008 -0.000742887 0)
(0.00326571 0.00650733 0)
(0.00244535 -0.00407046 0)
(0.000819836 -0.0104746 0)
(0.00023876 -0.00839273 0)
(0.00377331 -0.00401326 0)
(-0.00640282 -0.004242 0)
(-0.0010269 -0.00870636 0)
(-0.000701291 -0.00821561 0)
(-0.000975267 -0.00607119 0)
(-0.000271933 -0.00556716 0)
(-0.000999028 -0.00537845 0)
(0.00188245 -0.00298929 0)
(-0.000786291 -0.00295334 0)
(-0.000356242 -0.00268574 0)
(-0.0071959 0.00808769 0)
(0.00063907 0.0173272 0)
(-0.00692349 0.00786201 0)
(0.00162811 -0.000472298 0)
(-0.00344188 0.00388628 0)
(-0.00357096 0.00728213 0)
(-0.00185385 0.00872092 0)
(-0.0037449 0.00956765 0)
(-0.00444781 0.00936096 0)
(-0.0030439 0.00963527 0)
(0.00106467 0.00864181 0)
(0.00392392 0.0100366 0)
(0.00584963 0.0101448 0)
(0.00290137 0.00778599 0)
(0.00141571 0.00600649 0)
(0.0022235 0.00346649 0)
(0.000454425 -0.000240903 0)
(0.000354583 0.00910209 0)
(0.000756911 0.00988327 0)
(0.00172472 0.00256556 0)
(-0.00225443 0.00595962 0)
(-0.00216988 0.00461679 0)
(-0.00156569 0.00184599 0)
(-0.000276736 0.000281599 0)
(0.00216713 -0.00214565 0)
(0.00329236 -0.00140873 0)
(0.00405288 -0.0012034 0)
(0.00179513 0.000894685 0)
(0.00421655 0.00234001 0)
(0.00134917 -0.00239776 0)
(0.000173364 -0.00462717 0)
(-0.000817051 -0.00216121 0)
(-0.000889811 -0.00403269 0)
(-0.000604284 -0.00181679 0)
(-0.000442842 -0.00141515 0)
(0.0010254 -0.00209855 0)
(-0.00172682 -0.00218895 0)
(0.00118432 -0.002743 0)
(0.000740943 -0.00181123 0)
(-0.000256906 -0.0210579 0)
(-0.0127544 -6.95742e-05 0)
(-0.0124786 -0.00690661 0)
(-0.00549801 -0.000911935 0)
(-0.00200433 -0.00775041 0)
(-0.00162916 -0.00546636 0)
(0.00147381 -0.00610315 0)
(0.00216274 -0.00370446 0)
(0.00161673 -0.00588781 0)
(0.00219701 -0.00797339 0)
(0.00111559 -0.0081187 0)
(0.00129563 -0.0112945 0)
(-2.525e-05 -0.0147918 0)
(0.00118718 -0.00924376 0)
(-0.000998095 -0.0101918 0)
(-0.00310744 -0.0211134 0)
(-0.004049 -0.0210548 0)
(-0.00210577 -0.0181651 0)
(-0.00210253 -0.0171718 0)
(-3.23267e-05 -0.0203178 0)
(0.00381422 -0.0174007 0)
(0.00725025 -0.0112542 0)
(0.00211967 -0.00426542 0)
(-0.00301691 -0.00482769 0)
(-0.00139925 -0.010132 0)
(-2.26464e-05 -0.00876667 0)
(8.56587e-05 -0.00935938 0)
(-0.0033095 -0.00879322 0)
(-0.000842677 -0.00921838 0)
(-0.00235903 -0.0105463 0)
(-0.00226339 -0.00663369 0)
(-0.00374088 -0.00783841 0)
(-0.0040499 -0.00574374 0)
(-0.00276672 -0.00547278 0)
(-0.00142766 -0.0071012 0)
(0.000255782 -0.00915895 0)
(0.00551655 0.00237274 0)
(-0.000327812 0.00172807 0)
(-0.00861379 -0.000837015 0)
(-0.00546115 2.21774e-05 0)
(-0.00543389 -0.00826981 0)
(-0.0102175 -0.00173957 0)
(-0.00106651 0.000399384 0)
(-0.00158433 -0.000117556 0)
(-0.00152552 -0.00229771 0)
(-0.000701185 -0.00315251 0)
(0.0028189 -0.00551634 0)
(0.00379433 -0.00660607 0)
(0.00626022 -0.00593872 0)
(0.0054006 -0.006135 0)
(0.0051928 -0.00583732 0)
(0.00289727 -0.00741678 0)
(0.00275462 -0.00723319 0)
(0.003842 -0.00311165 0)
(-0.00429194 -0.000777635 0)
(-0.00469626 -0.00242392 0)
(-0.00599077 -0.0021575 0)
(0.00248081 -0.000634574 0)
(0.00117466 -0.00355986 0)
(0.00195313 -0.00561976 0)
(0.00215096 -0.0064563 0)
(0.00334976 -0.00478522 0)
(0.00257446 -0.00520676 0)
(0.00198498 0.00122124 0)
(0.00203354 0.00105268 0)
(0.0015773 -0.00795468 0)
(0.00221066 -0.00665145 0)
(-0.00179239 -0.0057709 0)
(-0.00114519 -0.00734091 0)
(0.000671521 -0.00676486 0)
(-0.00174257 -0.0071349 0)
(0.00176517 -0.0104833 0)
(0.00193997 -0.00835924 0)
(0.00190034 -0.00774619 0)
(0.000166581 -0.00982405 0)
(3.10751e-05 -0.0198409 0)
(-0.00501668 0.000767149 0)
(-0.00704115 -0.00161543 0)
(-0.0076315 0.00254648 0)
(-0.00527381 -0.00964419 0)
(-0.00532652 -0.00468194 0)
(-0.00194704 -0.000340752 0)
(-0.000306567 0.00382304 0)
(2.11084e-05 0.00655543 0)
(0.00425272 0.00725276 0)
(0.00268733 0.00640437 0)
(0.00357433 0.00566148 0)
(0.0036655 0.00453673 0)
(0.00554668 0.00400026 0)
(-0.0038584 0.00156844 0)
(-0.0025195 -0.00442744 0)
(-0.00493438 -0.0038465 0)
(0.00380678 -0.00421505 0)
(-0.00115112 -0.00791483 0)
(-0.00100367 -0.00915027 0)
(0.00045513 -0.00855955 0)
(0.00115824 -0.00628349 0)
(0.000839969 -0.00413383 0)
(-0.00181094 -0.00458988 0)
(-0.000907335 -0.00479761 0)
(0.000477492 -0.0052574 0)
(-0.00106918 -0.00722541 0)
(-0.000655011 -0.00331462 0)
(-0.00246677 -0.00470309 0)
(-0.00228958 -0.00678015 0)
(-0.00326143 -0.00578473 0)
(-0.00169072 -0.00725262 0)
(-0.000409393 -0.00641215 0)
(-0.000587776 -0.00602152 0)
(0.00134306 -0.00854683 0)
(0.00351408 -0.00693376 0)
(0.0075115 -0.0023612 0)
(-0.0037826 -0.00367052 0)
(-0.00196054 -0.00195754 0)
(-0.0102689 -0.00213568 0)
(-0.00923759 -0.0109976 0)
(-0.00707162 -0.00291952 0)
(-0.00527291 -6.15944e-05 0)
(-0.00248326 -0.010608 0)
(-0.000976215 -0.0115588 0)
(0.000804809 -0.0108068 0)
(0.00309067 -0.0111682 0)
(0.00300927 -0.0104875 0)
(0.00404621 -0.00737484 0)
(0.00449499 -0.0061549 0)
(0.00544605 -0.00627735 0)
(0.00228993 -0.0056681 0)
(0.00130959 -0.00422586 0)
(-0.00313095 -0.00268331 0)
(0.00171069 -0.00411309 0)
(-0.00230703 -0.00811786 0)
(-0.000125744 0.000106175 0)
(-0.000964616 -0.00242649 0)
(-0.00235465 -0.0127935 0)
(0.000547332 -0.0100146 0)
(0.00162568 -0.0113234 0)
(0.00377823 -0.0103966 0)
(0.00372287 -0.0087849 0)
(0.00697847 -0.00600525 0)
(-0.00144622 -0.00413891 0)
(-0.000847798 -0.00603639 0)
(0.00114766 -0.0105209 0)
(0.00133202 -0.00830865 0)
(-0.000153687 -0.0100008 0)
(0.00147835 -0.0138023 0)
(0.000742133 -0.0108833 0)
(0.00111355 -0.00959707 0)
(0.00113391 -0.0104616 0)
(-0.00188703 -0.00937534 0)
(3.30625e-05 -0.00548476 0)
(-0.0112457 -0.0161133 0)
(-0.00538397 0.00600804 0)
(9.23075e-05 -0.00345628 0)
(-0.00939756 -0.00276974 0)
(-0.00782851 -0.00889793 0)
(-0.00628282 -0.0090824 0)
(-0.00563158 -0.0119067 0)
(-0.00427601 -0.0112179 0)
(-0.00198143 -0.00711298 0)
(0.000475594 -0.00445203 0)
(0.00398397 -0.00294422 0)
(0.00615202 -0.00101863 0)
(0.00501298 -0.000404334 0)
(0.00494041 -0.00266858 0)
(0.00275144 -0.00537207 0)
(0.00178474 -0.00925182 0)
(-0.000258281 -0.00198674 0)
(0.00020981 -0.000532501 0)
(-0.000456165 -0.00929412 0)
(-0.00027838 -0.00725883 0)
(0.000921497 -0.00621497 0)
(0.00108886 -0.00503974 0)
(0.000586234 -0.0034423 0)
(-0.000161299 -0.00331896 0)
(-0.000443387 -0.0040823 0)
(-0.000949472 -0.00380871 0)
(0.000151316 -0.00461851 0)
(-0.00180361 -0.00445894 0)
(-0.00192972 -0.00633902 0)
(-0.00193013 -0.00887196 0)
(-0.00299297 -0.0053615 0)
(-0.000490657 -0.00449441 0)
(4.55097e-05 -0.00543425 0)
(-0.00301032 -0.00349567 0)
(-0.000298492 -0.00147585 0)
(0.000264588 0.00189009 0)
(0.000371857 0.00435944 0)
(-0.00329317 0.00468256 0)
(-0.00168964 0.00370723 0)
(-0.00570001 -0.00220014 0)
(-0.00550784 -0.00683602 0)
(-0.000211415 -0.00628601 0)
(-0.00641225 -0.00760776 0)
(-0.0055351 -0.0107537 0)
(-0.00396134 -0.0127406 0)
(0.00508091 -0.0108489 0)
(0.0012717 -0.0133457 0)
(0.00117852 -0.01344 0)
(-0.00137193 -0.0106979 0)
(0.000248291 -0.00822211 0)
(0.00688748 -0.00834023 0)
(0.00564829 -0.0107222 0)
(0.00281653 -0.0120099 0)
(0.00165908 -0.00407441 0)
(-0.000238309 -0.00147932 0)
(-0.00243842 -0.00745965 0)
(0.00631496 -0.0053418 0)
(-0.00315587 -0.00811151 0)
(-0.00516693 -0.00804155 0)
(0.000895196 -0.00845135 0)
(0.00262632 -0.0116417 0)
(0.00148718 -0.012041 0)
(0.00305289 -0.00969885 0)
(0.00276006 -0.0100602 0)
(0.00220874 -0.0115204 0)
(0.000358469 -0.0109583 0)
(0.00207463 -0.0113366 0)
(0.00185882 -0.0129115 0)
(-0.000202163 -0.0134413 0)
(0.0012925 -0.0122413 0)
(0.00101072 -0.0110644 0)
(-0.0012614 -0.0113456 0)
(-0.00157635 -0.0101723 0)
(-0.00167448 -0.00652502 0)
(0.000300027 -0.00574721 0)
(-0.00154717 -0.0129759 0)
(-0.00627012 0.0199078 0)
(-0.0107318 -0.00337353 0)
(-0.00270904 -0.00824352 0)
(-0.00237206 -0.0119726 0)
(-0.00393317 -0.0127856 0)
(-0.00518699 -0.0134636 0)
(-0.00466323 -0.0116372 0)
(-0.00455775 -0.0120118 0)
(-0.000270359 -0.0121052 0)
(0.000493366 -0.0118292 0)
(0.00160448 -0.0103476 0)
(0.0046515 -0.00726465 0)
(0.00491023 -0.00469775 0)
(0.00324997 -0.00548628 0)
(0.00106279 -0.00807568 0)
(0.003503 -0.00311672 0)
(-0.00440239 -0.00029135 0)
(-0.00202396 -0.00419744 0)
(-0.000639555 -0.00318692 0)
(-0.00103599 -0.00308077 0)
(-0.0010103 -0.00371695 0)
(-0.00183281 -0.00149338 0)
(-0.000737149 -0.00143543 0)
(-0.00128347 -0.000269414 0)
(0.00109377 0.000511373 0)
(0.00172476 -0.00410398 0)
(-0.000458499 -0.0040044 0)
(0.000178825 -0.00329355 0)
(-0.00108402 -0.00598693 0)
(-0.00117201 -0.00227506 0)
(-0.0037887 -0.000995603 0)
(-0.00365272 -0.00372791 0)
(-0.00461222 -0.00182147 0)
(-0.00335281 -0.00214882 0)
(-0.00264365 -0.00323402 0)
(0.000434157 -0.00271605 0)
(-0.000362227 -0.00393488 0)
(0.00210132 -0.00406163 0)
(-2.65865e-05 -0.00727973 0)
(0.000781325 -0.00763944 0)
(-0.00237203 -0.00683244 0)
(-0.00270908 -0.0115219 0)
(-0.00181381 -0.0173136 0)
(0.000316332 -0.00889938 0)
(0.00226832 -0.0103759 0)
(0.000581951 -0.0206536 0)
(0.00256783 -0.0181568 0)
(-0.00280167 -0.0142658 0)
(0.00552357 -0.00316559 0)
(0.0036745 -0.00469889 0)
(0.00197889 -0.0122637 0)
(0.00308738 -0.00996964 0)
(0.00342369 -0.00694264 0)
(-0.0039401 -0.009166 0)
(-0.00247182 -0.00183051 0)
(-0.0035932 0.000625032 0)
(0.00141218 -0.0115365 0)
(0.00110721 -0.00446182 0)
(-0.0027049 -0.00050365 0)
(0.00445717 -0.0110926 0)
(0.00323435 -0.0118398 0)
(0.00321117 -0.0103953 0)
(0.00195411 -0.011492 0)
(0.00216003 -0.0105966 0)
(0.00324498 -0.0100324 0)
(0.000820102 -0.0100318 0)
(0.00215571 -0.00970899 0)
(0.00161344 -0.00745828 0)
(-0.000421525 -0.00898112 0)
(-0.0013729 -0.00959336 0)
(-0.00165226 -0.00788915 0)
(-0.00139376 -0.00830751 0)
(-0.00116187 -0.00691989 0)
(-0.00302031 -0.00519636 0)
(0.00728717 -0.0119014 0)
(-0.000992018 0.00292946 0)
(-0.00881077 -0.00266256 0)
(-0.00484033 -0.00295617 0)
(-0.00542755 -0.0171561 0)
(-0.00358921 -0.0163569 0)
(-0.00631593 -0.01476 0)
(-0.00689114 -0.0145299 0)
(-0.00649878 -0.010645 0)
(0.00122528 -0.00999273 0)
(0.000482856 -0.0141253 0)
(0.00250231 -0.0136139 0)
(0.00284029 -0.00868678 0)
(0.00390872 -0.00665434 0)
(0.00162558 -0.00558413 0)
(0.00147858 -0.00434734 0)
(0.00230962 -0.00406058 0)
(-0.00136258 -0.00415199 0)
(-0.00077266 -0.00514383 0)
(-0.000638577 -0.00506732 0)
(-0.00112562 -0.00520657 0)
(-0.000674984 -0.00447952 0)
(-0.00118616 -0.0016454 0)
(-0.00168084 -0.002302 0)
(-0.000305522 -0.00278831 0)
(-0.00111438 -0.000911909 0)
(-0.000761656 -0.00293273 0)
(-0.000507092 -0.00222479 0)
(-0.00206595 -0.00234591 0)
(-0.00146574 -0.00389305 0)
(-0.00264739 -0.000785912 0)
(-0.00256486 -0.000613397 0)
(-0.000896323 -0.00295619 0)
(1.38196e-05 -0.00471577 0)
(0.0008015 -0.00690195 0)
(0.001126 -0.00766353 0)
(-0.00029502 -0.00815346 0)
(0.000526443 -0.00877949 0)
(-0.000926973 -0.00743301 0)
(-0.00292597 -0.00714982 0)
(-0.00137478 -0.00591259 0)
(-0.00232133 -0.00456587 0)
(-0.000304423 -0.00425167 0)
(0.00228154 -0.0067416 0)
(0.00528083 -0.00660987 0)
(-0.00145343 -0.00867404 0)
(0.000335488 -0.0117527 0)
(0.000390334 -0.013821 0)
(0.00282298 -0.00586906 0)
(0.00430829 0.000659586 0)
(-0.00129613 -0.0103195 0)
(-0.000670315 -0.0110178 0)
(0.00200238 -0.0105703 0)
(0.00225373 -0.0125496 0)
(0.00121673 -0.00987367 0)
(0.00580897 -0.00988604 0)
(-0.00157608 -0.00360828 0)
(-0.000172403 -0.00529548 0)
(0.00226243 -0.0122408 0)
(-0.00186466 -0.00375773 0)
(-0.000728171 -0.00459705 0)
(0.00166638 -0.0124317 0)
(0.000161999 -0.00989388 0)
(0.00100605 -0.010061 0)
(0.000655367 -0.0082484 0)
(0.00290423 -0.00687948 0)
(0.00111609 -0.00640538 0)
(0.00182698 -0.00560355 0)
(0.000906335 -0.00722061 0)
(-0.00077863 -0.00656591 0)
(-0.000247714 -0.00543116 0)
(-0.00069752 -0.00599415 0)
(-0.00154684 -0.0072261 0)
(-0.00188884 -0.00656558 0)
(-0.0066254 -0.00518499 0)
(0.0199239 -0.00332404 0)
(0.0116915 0.00800575 0)
(0.00393363 -0.00541343 0)
(-0.00451661 -0.00645122 0)
(-0.00532129 -0.0107476 0)
(-0.00440084 -0.0135789 0)
(-0.00740214 -0.0173351 0)
(-0.00690605 -0.0128645 0)
(0.00118375 -0.0041575 0)
(-0.00164088 -0.00693749 0)
(-0.00231912 -0.0145185 0)
(-0.00120388 -0.012226 0)
(-0.000827096 -0.00973453 0)
(-0.000535527 -0.00634758 0)
(-0.000597268 -0.00399254 0)
(0.00148094 -0.00134303 0)
(0.000424229 -2.25628e-05 0)
(-0.000111687 0.00183894 0)
(-0.001543 0.00202675 0)
(-0.000830453 0.00279389 0)
(-0.000841438 0.00439345 0)
(-0.00198004 0.00430629 0)
(-0.00242856 0.00447491 0)
(-0.00403966 0.00452083 0)
(-0.00129177 0.00458129 0)
(-0.00182258 0.00421613 0)
(-0.00279351 -0.000233738 0)
(0.00227037 -0.00195072 0)
(-0.000137196 -0.00232035 0)
(-0.000259086 -0.00510518 0)
(5.87386e-05 -0.00334761 0)
(-0.000635178 -0.0027446 0)
(-0.000154838 -0.00776173 0)
(-0.00127044 -0.00704862 0)
(-0.000919874 -0.00662815 0)
(0.0028319 -0.0092379 0)
(0.000914467 -0.00781077 0)
(-0.000749935 -0.00769638 0)
(-0.00147808 -0.0099627 0)
(-0.00261025 -0.0109309 0)
(-0.00149119 -0.010331 0)
(0.000124755 -0.0090277 0)
(0.000539642 -0.00834099 0)
(0.00175326 -0.0085662 0)
(0.00306721 -0.00629831 0)
(0.00162753 -0.0074371 0)
(0.00237154 -0.0100719 0)
(0.00125104 -0.00936007 0)
(0.00738786 -0.00675937 0)
(-0.000664708 -0.0054569 0)
(-0.000584463 -0.00855609 0)
(3.43163e-06 -0.00884756 0)
(0.000600224 -0.00771815 0)
(0.00266011 -0.00942302 0)
(0.00298992 -0.00805447 0)
(0.00314152 -0.0062714 0)
(0.00275134 -0.00570673 0)
(-0.00447186 -0.00637604 0)
(-0.0025992 -0.00538277 0)
(0.00577076 -0.00338742 0)
(-0.00325239 -0.00646447 0)
(-0.000932184 -0.00974743 0)
(-0.00267808 -0.00995141 0)
(0.000985687 -0.0101773 0)
(0.00150181 -0.00769374 0)
(0.000305213 -0.00707808 0)
(0.0017709 -0.00822095 0)
(-0.000408316 -0.00555697 0)
(-0.000539872 -0.00512105 0)
(-0.00071899 -0.00572359 0)
(-0.000692541 -0.00602078 0)
(-0.00175571 -0.00717905 0)
(-0.000981242 -0.00916358 0)
(-0.0021229 -0.0125488 0)
(-0.000733764 -0.00253762 0)
(0.015334 -0.0347584 0)
(0.00959346 -0.00529479 0)
(0.00102191 -0.0118043 0)
(9.76122e-05 -0.00282822 0)
(-0.000769916 -0.00634785 0)
(-0.00293675 -0.00843858 0)
(-0.00432829 -0.00918318 0)
(-0.00199084 0.0012488 0)
(-0.00173502 0.00118019 0)
(-0.00878401 -0.00777169 0)
(-0.00422825 -0.00926827 0)
(-0.00318628 -0.00848464 0)
(-0.00131509 -0.00741881 0)
(-0.00264913 -0.00775422 0)
(-0.00257988 -0.00600857 0)
(-0.00219016 -0.00534265 0)
(-0.00285855 -0.00638515 0)
(-0.001365 -0.00524422 0)
(-0.00146855 -0.00426435 0)
(-0.0035327 -0.0029597 0)
(-0.000846906 -0.004723 0)
(-0.00222426 -0.00434634 0)
(-0.00180413 -0.00366245 0)
(-0.0025387 -0.00390666 0)
(6.2919e-05 -0.00479381 0)
(0.000891342 -0.00886182 0)
(0.00146167 -0.00826347 0)
(0.00190891 -0.00633573 0)
(0.000601567 -0.0083322 0)
(9.28122e-05 -0.00543253 0)
(0.00341466 -0.00525122 0)
(-0.00117366 -0.00806945 0)
(-0.000999953 -0.0108344 0)
(0.00138287 -0.0124122 0)
(-0.000207654 -0.010447 0)
(0.00192241 -0.0125824 0)
(0.0024745 -0.0156511 0)
(0.000844898 -0.0122986 0)
(-3.81425e-05 -0.0122214 0)
(-0.00106143 -0.0132924 0)
(-0.00342112 -0.011932 0)
(-0.00204311 -0.0121739 0)
(0.000137084 -0.012217 0)
(0.00199129 -0.0133925 0)
(0.00309021 -0.0125094 0)
(0.00140104 -0.0104102 0)
(0.00223525 -0.0100252 0)
(0.000537167 -0.00660842 0)
(-0.00165097 -0.00363198 0)
(0.00201645 -0.00281206 0)
(0.000149638 -0.00583708 0)
(-0.000765367 -0.00578466 0)
(0.001452 -0.00366694 0)
(0.00120512 -0.00401326 0)
(0.00362839 -0.00206202 0)
(0.00384886 -0.00336318 0)
(0.00308025 -0.006194 0)
(0.00155493 -0.00692767 0)
(0.00140534 0.00184425 0)
(0.000207901 -0.000621702 0)
(-0.000654469 -0.00911225 0)
(-0.000969314 -0.0103907 0)
(-0.00145847 -0.0090143 0)
(-0.000823388 -0.00741001 0)
(0.000984917 -0.0102009 0)
(-0.000930647 -0.00910695 0)
(0.00128878 -0.00793171 0)
(0.000813662 -0.00845905 0)
(0.00102267 -0.00720142 0)
(0.000347407 -0.00517873 0)
(-0.000309352 -0.00553814 0)
(0.000290287 -0.00706185 0)
(-0.000611584 -0.00848947 0)
(0.00151255 -0.00775096 0)
(0.00450457 -0.00507801 0)
(-0.00531205 -0.024033 0)
(0.00495313 -0.00234395 0)
(-0.00245287 -0.0112258 0)
(0.00277358 -0.00283893 0)
(-0.00326348 -0.00650962 0)
(-0.00393487 -0.00410728 0)
(-0.00517193 8.97468e-05 0)
(0.00314755 0.00550962 0)
(-0.00586878 7.28924e-05 0)
(-0.00747945 -0.00294808 0)
(-0.00316543 -0.00400802 0)
(-0.0033919 -0.00376092 0)
(-0.000384831 -0.00339006 0)
(-0.00253148 -0.0035947 0)
(-9.88857e-05 -0.00277634 0)
(-0.00170583 -0.00468078 0)
(-0.00151133 -0.00539054 0)
(0.000183257 -0.0054256 0)
(5.99518e-05 -0.00926176 0)
(-0.0016308 -0.00846198 0)
(-0.000986318 -0.00732886 0)
(-0.00165151 -0.0107256 0)
(5.49658e-05 -0.0116984 0)
(-0.000195142 -0.0098713 0)
(0.00136565 -0.00930938 0)
(-8.87465e-05 -0.0104436 0)
(0.000538959 -0.0119489 0)
(-0.00252997 -0.0120751 0)
(-0.000804207 -0.0108037 0)
(-0.000915588 -0.0101427 0)
(0.000541691 -0.0135505 0)
(0.000980431 -0.0168791 0)
(0.00206009 -0.0146913 0)
(0.000944938 -0.0129957 0)
(-0.000138539 -0.0109537 0)
(0.00439779 -0.00868089 0)
(0.00100579 -0.0109763 0)
(-0.000906181 -0.00999808 0)
(-0.000393837 -0.00973693 0)
(-0.00131584 -0.0110836 0)
(-0.00353283 -0.00861699 0)
(-0.00411546 -0.00578025 0)
(0.00406652 -0.00802772 0)
(0.00293697 -0.0107712 0)
(0.00157015 -0.0108908 0)
(-0.00101484 -0.00992777 0)
(0.00344062 -0.0100506 0)
(0.0017984 -0.0107196 0)
(0.00179743 -0.00161574 0)
(0.0001292 -0.00168108 0)
(-0.00237372 -0.011409 0)
(-0.00363475 -0.0079178 0)
(0.0009869 -0.00501009 0)
(-0.00102514 -0.00483145 0)
(0.00385295 -0.00261295 0)
(0.00390122 -0.00415955 0)
(0.00194464 -0.00671214 0)
(0.00349444 -0.00663207 0)
(0.0035828 -0.00532988 0)
(-0.00220488 -0.00319422 0)
(-0.000682021 -0.00580897 0)
(-0.00025379 -0.0093285 0)
(0.00134764 -0.00873154 0)
(-0.00106883 -0.0065422 0)
(-0.0007124 -0.00679758 0)
(-0.000447529 -0.00827092 0)
(0.000197981 -0.00764563 0)
(-0.00068813 -0.00631873 0)
(-0.000153593 -0.0046425 0)
(0.000532215 -0.00546254 0)
(-0.000564537 -0.00487691 0)
(0.000566635 -0.0055648 0)
(0.000151375 -0.00507101 0)
(0.00159428 -0.00443424 0)
(0.00200401 -0.00636809 0)
(-0.00140409 -0.0262066 0)
(-0.00283981 0.00241109 0)
(-0.000347746 -0.0131119 0)
(0.00123318 0.00080965 0)
(-0.00138498 -0.00931987 0)
(-0.00403719 -0.00674732 0)
(-0.00174722 -0.000322646 0)
(-0.00350344 0.00159985 0)
(-0.00358477 -0.0095818 0)
(-0.00300249 -0.00708905 0)
(-0.00471973 -0.00827896 0)
(-0.00337116 -0.0102466 0)
(-0.00180323 -0.00877792 0)
(-0.00251897 -0.00969847 0)
(-0.000938285 -0.00758549 0)
(-0.00199098 -0.0100151 0)
(0.001599 -0.0100038 0)
(-4.21632e-06 -0.00826637 0)
(-0.00158965 -0.0092191 0)
(-0.00221058 -0.00836884 0)
(-0.00164135 -0.0103511 0)
(0.000730803 -0.00952055 0)
(0.000437982 -0.00795787 0)
(-0.00291827 -0.00817339 0)
(0.00440599 -0.00918125 0)
(0.0018425 -0.0134789 0)
(0.000760618 -0.0141788 0)
(0.00232118 -0.0140449 0)
(0.00225416 -0.0148451 0)
(0.000456471 -0.0130875 0)
(0.00551716 -0.0130715 0)
(0.00265428 -0.0151103 0)
(8.78842e-06 -0.0174548 0)
(-0.00275165 -0.0177706 0)
(-0.000563561 -0.00585669 0)
(0.000806878 -0.00694372 0)
(0.000336652 -0.0155883 0)
(0.00137532 -0.0125432 0)
(-0.000580445 -0.0129045 0)
(3.7148e-05 -0.0150352 0)
(-0.000249163 -0.01316 0)
(-0.00147746 -0.00298604 0)
(-0.00427064 -0.00308298 0)
(0.00309678 -0.0126409 0)
(0.000668977 -0.0140558 0)
(-0.00280704 -0.00747444 0)
(0.00480837 -0.007003 0)
(0.00441389 -0.00819819 0)
(0.0041927 -0.00448533 0)
(-0.0032566 -0.00762561 0)
(-0.00180524 -0.0111894 0)
(-0.00147434 -0.00385746 0)
(-0.000909001 -0.00264582 0)
(-0.000681642 -0.00281103 0)
(0.0025385 -0.000470714 0)
(0.00113591 -0.00795205 0)
(0.00125543 -0.00909141 0)
(0.00319028 -0.00768403 0)
(0.00278198 -0.00677025 0)
(0.00155088 -0.00620344 0)
(-0.000809911 -0.00837464 0)
(-0.00031651 -0.00840977 0)
(-0.00235621 -0.00810513 0)
(0.000536289 -0.00796226 0)
(-0.00182707 -0.00811944 0)
(-0.00133685 -0.00630242 0)
(8.061e-05 -0.00652196 0)
(-0.000767646 -0.0074086 0)
(-0.000582902 -0.00583694 0)
(0.000283837 -0.00659235 0)
(3.76e-05 -0.00756509 0)
(0.000884989 -0.00823429 0)
(0.00162553 -0.00864761 0)
(0.00204744 -0.00480957 0)
(0.00344426 -0.00494057 0)
(0.00279364 -0.0223773 0)
(-0.00675494 -0.000476656 0)
(0.00133874 -0.0107973 0)
(-0.00334172 -0.00233547 0)
(0.0018127 -0.00662378 0)
(0.000561706 -0.00111059 0)
(0.00189136 -0.000450905 0)
(-0.00565309 -0.000814021 0)
(-0.00520192 -0.00434132 0)
(-0.00190192 -0.00796353 0)
(-0.00337156 -0.00946641 0)
(-0.000926626 -0.0094589 0)
(-0.00259228 -0.0123338 0)
(-0.000436823 -0.0126637 0)
(-0.00321666 -0.0105868 0)
(-0.00452659 -0.00805092 0)
(0.00369731 -0.00730238 0)
(-0.00198728 -0.00973718 0)
(-0.0029472 -0.0108968 0)
(-0.00440652 -0.0068478 0)
(-0.00437097 -0.00333058 0)
(0.00738969 -0.00842519 0)
(0.00312349 -0.0148766 0)
(0.00190259 -0.00641604 0)
(0.000738238 -0.0053729 0)
(0.000453519 -0.0170055 0)
(0.00076671 -0.0157946 0)
(0.00169835 -0.0153997 0)
(0.00186025 -0.0155398 0)
(0.00203755 -0.00557056 0)
(0.00230687 -0.00512887 0)
(0.00153232 -0.0133864 0)
(0.0012306 -0.0126705 0)
(0.00248868 -0.0119972 0)
(0.0032484 -0.00915897 0)
(-0.00459932 -0.00994519 0)
(-0.000569552 -0.0103454 0)
(-0.000309086 -0.00943149 0)
(-0.00160916 -0.00983227 0)
(-0.00189578 -0.00878378 0)
(0.000169883 -0.00790908 0)
(0.00290776 -0.00720296 0)
(-0.00513058 -0.000225653 0)
(-0.00125385 -0.00342962 0)
(0.000198005 -0.0150444 0)
(0.000329913 -0.00338591 0)
(-0.000913066 -0.00135422 0)
(0.00323187 -0.009512 0)
(0.000297122 -0.00706927 0)
(0.000424034 -0.00641883 0)
(0.000840904 -0.00875958 0)
(0.00389438 -0.00642591 0)
(-0.00338918 -0.0054401 0)
(-0.0023776 -0.00359592 0)
(-0.000649249 -0.00396136 0)
(0.000293063 -0.00945965 0)
(-0.000332013 -0.00907637 0)
(-9.28778e-05 -0.00666043 0)
(0.00140085 -0.0077172 0)
(0.00151349 -0.00777515 0)
(0.000579883 -0.00896002 0)
(0.000568279 -0.0112951 0)
(-0.000476274 -0.00972782 0)
(0.000300624 -0.00830101 0)
(0.000409187 -0.0111056 0)
(0.000812253 -0.00833103 0)
(-0.000493578 -0.00905349 0)
(-0.00012294 -0.009111 0)
(0.000824995 -0.00754039 0)
(-0.000908358 -0.00963654 0)
(0.000269719 -0.0075702 0)
(-3.14872e-05 -0.00601706 0)
(0.000327064 -0.00687156 0)
(0.000833712 -0.0047207 0)
(-0.000261385 -0.00369791 0)
(-0.000808593 -0.0206616 0)
(-0.00407077 -0.00120962 0)
(-0.00456249 -0.00887778 0)
(-0.00205302 -0.00314259 0)
(-0.00101888 -0.00578115 0)
(0.00111477 -0.00542658 0)
(8.48108e-05 -0.00301706 0)
(-0.0018582 -0.00242061 0)
(-0.00222231 -0.00698138 0)
(-0.0029536 -0.00888129 0)
(-0.00113164 -0.0111605 0)
(-0.0025042 -0.011017 0)
(-0.000911047 -0.00911875 0)
(0.00011244 -0.00990914 0)
(-0.000549712 -0.0108975 0)
(-0.000580508 -0.00126475 0)
(-0.000908876 -0.00299663 0)
(-0.00316198 -0.0112819 0)
(-0.00395369 -0.00854512 0)
(-0.00476711 -0.00836306 0)
(0.000325479 0.000582544 0)
(0.00490427 -0.00189308 0)
(0.00383749 -0.0124595 0)
(0.00574667 -0.00866979 0)
(-0.00151697 -0.00839507 0)
(0.000533695 -0.0108052 0)
(0.00162274 -0.00974936 0)
(0.00222867 -0.00984901 0)
(0.00221263 -0.0113178 0)
(0.00534656 -0.00814236 0)
(-0.00377151 -0.00643215 0)
(-0.00183994 -0.0071334 0)
(-0.000301053 -0.00635898 0)
(-8.49235e-05 -0.00540599 0)
(0.00121985 -0.00317802 0)
(-0.00261526 -0.00233372 0)
(-0.00147313 -0.00224227 0)
(-0.00258489 -0.00289537 0)
(-0.0017056 -0.00264745 0)
(-0.00193967 -0.00213649 0)
(-0.00287913 0.000323476 0)
(0.0070421 -0.00132987 0)
(0.00484492 -0.00127719 0)
(-0.00381406 -0.00283596 0)
(-0.00031768 -0.00827141 0)
(0.00163219 -0.00391559 0)
(-0.00681899 0.000720861 0)
(0.00401387 -0.0015896 0)
(0.00164685 -0.00315392 0)
(0.00112143 -0.00383338 0)
(0.00102079 -0.00557787 0)
(0.00187861 -0.00605609 0)
(-0.000715497 -0.00819392 0)
(0.00112597 -0.000808962 0)
(8.32046e-05 -0.00107414 0)
(-0.00146196 -0.011539 0)
(0.000337524 -0.0125383 0)
(-0.00380229 -0.00869253 0)
(0.00570921 -0.00601119 0)
(0.00296911 -0.00784487 0)
(0.00122674 -0.0097211 0)
(4.53812e-05 -0.0104346 0)
(-0.000253154 -0.00994323 0)
(-0.00141293 -0.00981496 0)
(-0.00128314 -0.0112244 0)
(-0.000529016 -0.0114007 0)
(-0.00314473 -0.0126784 0)
(0.000314497 -0.0123364 0)
(-0.00145268 -0.0108497 0)
(-0.000734611 -0.0103465 0)
(0.000344732 -0.00934186 0)
(-8.05444e-05 -0.00931251 0)
(0.000804977 -0.00882512 0)
(0.000167507 -0.00690011 0)
(-0.0011248 -0.00674486 0)
(-0.00498509 -0.0131158 0)
(-0.00330481 0.000146624 0)
(-0.0028677 -0.00836565 0)
(9.6479e-05 -0.00455954 0)
(-0.000978505 -0.0101332 0)
(-0.000630405 -0.00725594 0)
(0.000998534 -0.00874821 0)
(-0.000464927 -0.00725443 0)
(-0.0014769 -0.00890974 0)
(-0.000663647 -0.00995992 0)
(-0.00173382 -0.0104792 0)
(-3.13309e-05 -0.00745413 0)
(-0.00064631 -0.00761888 0)
(-0.000532428 -0.00959751 0)
(0.000827817 -0.00745981 0)
(0.00189091 -0.00459388 0)
(-0.00342338 -0.00497858 0)
(-0.00233357 -0.00832147 0)
(-0.0054283 -0.00927005 0)
(0.000568574 0.000888195 0)
(0.00900695 0.00950268 0)
(-0.00144238 -0.0016261 0)
(-0.000528438 -0.0115846 0)
(0.000148471 -0.00953634 0)
(-0.00161914 -0.0091354 0)
(0.00109335 -0.0103955 0)
(0.00103094 -0.00844111 0)
(0.00174442 -0.00755705 0)