/*--------------------------------*- C++ -*----------------------------------*\
  =========                 |
  \\      /  F ield         | OpenFOAM: The Open Source CFD Toolbox
   \\    /   O peration     | Website:  https://openfoam.org
    \\  /    A nd           | Version:  12
     \\/     M anipulation  |
\*---------------------------------------------------------------------------*/
FoamFile
{
    format      ascii;
    class       IOPosition;
    location    "0.4/lagrangian/cloud";
    object      positions;
}
// * * * * * * * * * * * * * * * * * * * * * * * * * * * * * * * * * * * * * //

2784
(
(0.475113 0.262444 0.0206562 0.241787) 0 15075 2
(0.0943337 0.452833 0.212934 0.2399) 1 0 1
(0.153394 0.423303 0.283644 0.139659) 1 2 1
(0.037683 0.481158 0.316377 0.164782) 2 4 1
(0.695552 0.0353715 0.116853 0.152224) 4 9 1
(0.0819299 0.0815359 0.459035 0.377499) 5 10 2
(0.217521 0.0101218 0.381118 0.39124) 7 12 2
(0.239173 0.380413 0.0798621 0.300551) 8 17 2
(0.23432 0.38284 0.148103 0.234737) 9 19 2
(0.267533 0.366233 0.0999869 0.266246) 10 21 2
(0.135236 0.432382 0.185618 0.246764) 11 23 2
(0.42886 0.28557 0.250233 0.0353365) 11 22 1
(0.606943 0.135411 0.196528 0.0611176) 12 7387 2
(0.467268 0.266366 0.134822 0.131544) 13 7388 1
(0.241028 0.379486 0.106434 0.273052) 14 29 2
(0.253933 0.373034 0.119373 0.253661) 15 31 2
(0.145357 0.101968 0.325354 0.427322) 16 30 2
(0.28665 0.072663 0.356675 0.284012) 16 32 2
(0.40702 0.203938 0.0925521 0.29649) 17 35 1
(0.665469 0.00968667 0.157579 0.167265) 18 34 2
(0.0477997 0.4761 0.21982 0.25628) 19 36 1
(0.213587 0.393207 0.281876 0.111331) 19 38 1
(0.250495 0.374753 0.308408 0.066345) 20 40 1
(0.0212747 0.489363 0.305127 0.184236) 21 42 1
(0.228915 0.094483 0.29106 0.385543) 22 45 1
(0.253639 0.0516895 0.321491 0.373181) 23 47 1
(0.113091 0.0449141 0.443455 0.398541) 24 48 2
(0.0651136 0.10116 0.467443 0.366283) 25 50 2
(0.193457 0.038122 0.403271 0.365149) 26 52 2
(0.319812 0.129583 0.210511 0.340094) 27 55 1
(0.385124 0.30378 0.00365792 0.307438) 28 57 1
(0.609871 0.195064 0.0593606 0.135704) 29 59 2
(0.411524 0.294238 0.183445 0.110793) 30 7405 1
(0.432771 0.283614 0.0235733 0.260041) 31 60 1
(0.306158 0.346921 0.0559036 0.291017) 32 62 1
(0.313514 0.343243 0.0483081 0.294935) 33 64 1
(0.561356 0.0240629 0.219322 0.195259) 34 7409 2
(0.378804 0.310598 0.292691 0.0179063) 36 70 1
(0.0371283 0.0766489 0.481436 0.404787) 36 72 2
(0.13891 0.079002 0.430545 0.351543) 37 74 2
(0.0406685 0.326584 0.479666 0.153082) 38 76 2
(0.142523 0.428738 0.163921 0.264817) 40 78 1
(0.350724 0.324638 0.125138 0.199499) 41 7416 1
(0.333316 0.333342 0.00906461 0.324277) 42 7417 1
(0.0176636 0.491168 0.292519 0.198649) 44 86 1
(0.237505 0.131057 0.25019 0.381247) 44 89 1
(0.332339 0.172226 0.161604 0.333831) 45 91 1
(0.438834 0.280583 0.226789 0.0537942) 47 7422 1
(0.0513175 0.420189 0.0541526 0.474341) 47 95 1
(0.478549 0.260726 0.171857 0.088869) 48 97 2
(0.36907 0.183733 0.131732 0.315465) 49 96 2
(0.379842 0.310079 0.0589312 0.251148) 50 98 1
(0.266872 0.170124 0.19644 0.366564) 50 101 1
(0.498622 0.106887 0.143802 0.250689) 51 103 1
(0.534689 0.172898 0.0597577 0.232655) 52 105 1
(0.503311 0.206055 0.0422892 0.248345) 53 107 1
(0.515346 0.201909 0.040418 0.242327) 54 109 1
(0.082463 0.458768 0.252418 0.20635) 55 110 1
(0.419623 0.290188 0.208635 0.0815539) 57 7432 1
(0.406524 0.296738 0.128461 0.168277) 58 7433 1
(0.554544 0.222728 0.135242 0.0874857) 59 118 1
(0.211962 0.0259613 0.394019 0.368058) 60 120 2
(0.190673 0.0570673 0.347596 0.404664) 61 123 1
(0.290688 0.354656 0.0506294 0.304026) 75 1 2
(0.219242 0.332638 0.390379 0.0577412) 76 3 1
(0.293647 0.0246955 0.353177 0.328481) 76 151 2
(0.356992 0.321504 0.198986 0.122518) 77 154 2
(0.00542914 0.298147 0.199139 0.497285) 78 153 2
(0.200558 0.0427777 0.399721 0.356944) 78 155 2
(0.224214 0.038023 0.387893 0.34987) 79 157 2
(0.199724 0.0595844 0.400138 0.340554) 80 159 2
(0.332234 0.333883 0.305123 0.0287604) 82 164 2
(0.243903 0.378048 0.0595493 0.318499) 84 168 2
(0.536627 0.231686 0.122358 0.109328) 85 170 2
(0.220603 0.389699 0.0429749 0.346724) 160 170 2
(0.346633 0.326683 0.0836257 0.243058) 86 172 2
(0.027821 0.144311 0.341779 0.486089) 87 171 2
(0.353535 0.0352912 0.287941 0.323233) 87 174 1
(0.408348 0.219331 0.0764955 0.295826) 88 176 1
(0.741622 0.113258 0.129189 0.0159313) 91 33 1
(0.705771 0.113309 0.147114 0.033805) 92 35 1
(0.399709 0.247518 0.300146 0.0526279) 93 37 1
(0.340015 0.329992 0.100047 0.229946) 94 39 2
(0.295204 0.352398 0.238206 0.114192) 95 41 2
(0.465921 0.162498 0.267039 0.104541) 95 189 2
(0.108994 0.445503 0.15471 0.290793) 96 192 2
(0.225056 0.312472 0.0750004 0.387472) 96 192 1
(0.249529 0.375236 0.0170738 0.358162) 97 194 2
(0.285505 0.0301448 0.327103 0.357247) 97 194 1
(0.273759 0.211658 0.151463 0.36312) 98 196 1
(0.263429 0.279361 0.0889242 0.368286) 99 198 1
(0.410993 0.171628 0.122876 0.294503) 100 200 1
(0.507474 0.246263 0.0272066 0.219056) 103 57 2
(0.355412 0.241972 0.322294 0.0803222) 104 59 1
(0.255441 0.321351 0.37228 0.0509286) 105 61 1
(0.220785 0.317108 0.389607 0.0724999) 106 63 1
(0.208153 0.195299 0.395924 0.200624) 107 65 1
(0.0757219 0.462139 0.427885 0.0342543) 109 69 2
(0.00156248 0.109716 0.499219 0.389503) 108 215 2
(0.235327 0.197324 0.185013 0.382337) 109 218 1
(0.26912 0.329397 0.0360429 0.36544) 110 220 1
(0.157343 0.421329 0.202747 0.218582) 113 223 1
(0.278879 0.360561 0.212455 0.148105) 114 79 2
(0.018621 0.152087 0.338602 0.490689) 40 81 1
(0.250529 0.239844 0.134892 0.374736) 114 228 1
(0.193221 0.403389 0.0097094 0.39368) 115 230 2
(0.281568 0.187519 0.171697 0.359216) 115 230 1
(0.274965 0.00249502 0.360023 0.362518) 116 229 2
(0.2855 0.172365 0.184885 0.35725) 116 232 1
(0.372901 0.313549 0.210076 0.103473) 117 234 2
(0.332804 0.333598 0.035435 0.298163) 118 236 2
(0.0957458 0.149735 0.452127 0.302392) 119 237 2
(0.459528 0.270236 0.232263 0.0379728) 122 241 1
(0.468833 0.265584 0.192428 0.073156) 123 97 2
(0.295974 0.334411 0.352013 0.0176023) 124 99 1
(0.0981673 0.450916 0.276186 0.17473) 125 249 1
(0.195305 0.402347 0.0948832 0.307464) 127 251 1
(0.370796 0.314602 0.307633 0.006969) 128 107 2
(0.379185 0.310408 0.285024 0.0253841) 129 109 2
(0.13997 0.430015 0.0382998 0.391715) 130 111 2
(0.179198 0.410401 0.343133 0.0672678) 130 259 1
(0.243545 0.378228 0.353914 0.0243133) 205 260 2
(0.365988 0.102126 0.317006 0.21488) 205 260 1
(0.402944 0.245915 0.0526128 0.298528) 150 299 1
(0.335788 0.332106 0.234275 0.0978316) 151 301 2
(0.528238 0.100447 0.235881 0.135434) 152 154 1
(0.361732 0.319134 0.148346 0.170788) 153 305 2
(0.468524 0.254889 0.0108491 0.265738) 154 307 1
(0.398147 0.273062 0.0278646 0.300926) 155 309 1
(0.335538 0.332231 0.0932123 0.239019) 156 311 2
(0.157156 0.0696993 0.351723 0.421422) 157 310 2
(0.0127162 0.123468 0.493642 0.370174) 157 312 2
(0.217408 0.391296 0.3166 0.0746958) 159 317 2
(0.185718 0.321419 0.0857214 0.407141) 160 319 1
(0.319972 0.340014 0.253036 0.0869783) 161 321 2
(0.409182 0.160933 0.295409 0.134476) 163 176 1
(0.24435 0.313589 0.377825 0.0642355) 164 178 1
(0.128149 0.158739 0.435925 0.277187) 165 180 1
(0.187989 0.117351 0.288654 0.406005) 165 329 1
(0.109584 0.445208 0.31259 0.132618) 166 331 2
(0.231423 0.384288 0.0265734 0.357715) 167 333 2
(0.406527 0.296736 0.092342 0.204394) 168 335 2
(0.364477 0.317762 0.303973 0.0137883) 169 337 2
(0.22956 0.0270816 0.38522 0.358139) 170 338 2
(0.31614 0.00661367 0.335316 0.34193) 171 341 1
(0.220229 0.0397774 0.350108 0.389885) 172 343 1
(0.0488618 0.0954889 0.475569 0.38008) 173 344 2
(0.523631 0.238184 0.019382 0.218802) 175 200 2
(0.288983 0.336114 0.355508 0.0193941) 176 202 1
(0.258677 0.35666 0.370662 0.014002) 177 204 1
(0.254942 0.273209 0.372529 0.09932) 178 206 1
(0.220228 0.236495 0.389886 0.153391) 179 208 1
(0.218615 0.178118 0.390692 0.212574) 180 210 1
(0.269255 0.062401 0.365373 0.302972) 181 212 1
(0.144533 0.00526756 0.422466 0.427734) 182 360 2
(0.2758 0.0423762 0.319724 0.3621) 182 363 1
(0.226559 0.259177 0.127544 0.386721) 183 365 1
(0.220414 0.389793 0.165933 0.22386) 184 367 2
(0.0403801 0.0854672 0.47981 0.394343) 184 366 2
(0.265615 0.17077 0.196423 0.367192) 185 369 1
(0.289059 0.355471 0.320092 0.0353783) 186 371 2
(0.265571 0.367214 0.191496 0.175718) 187 373 2
(0.224894 0.387553 0.214103 0.17345) 188 375 2
(0.162154 0.0960096 0.322913 0.418923) 189 377 1
(0.263722 0.103616 0.264523 0.368139) 190 379 1
(0.494268 0.0575075 0.195358 0.252866) 191 381 1
(0.380119 0.0544559 0.30994 0.255484) 192 382 2
(0.240065 0.123742 0.256225 0.379967) 194 384 2
(0.203161 0.0405252 0.357894 0.398419) 195 386 2
(0.155521 0.0825061 0.339733 0.42224) 196 388 2
(0.33987 0.330065 0.126697 0.203368) 197 244 2
(0.287308 0.356346 0.10299 0.253356) 198 246 2
(0.294786 0.352607 0.199239 0.153368) 199 248 2
(0.248696 0.375652 0.245932 0.12972) 200 250 2
(0.174608 0.412696 0.41201 0.000685805) 200 399 2
(0.153268 0.154045 0.269321 0.423366) 201 398 2
(0.233248 0.0154468 0.383376 0.367929) 201 252 1
(0.276316 0.122201 0.361842 0.239641) 202 254 1
(0.311732 0.196951 0.344134 0.147183) 203 256 1
(0.382907 0.308547 0.175189 0.133358) 225 15078 2
(0.527106 0.236447 0.202484 0.0339629) 226 301 2
(0.416968 0.291516 0.148817 0.142699) 227 303 2
(0.412681 0.260436 0.29366 0.0332238) 228 305 1
(0.678011 0.160995 0.139953 0.0210416) 229 455 1
(0.152575 0.423712 0.128273 0.29544) 230 458 2
(0.266953 0.22127 0.145253 0.366524) 230 458 1
(0.249625 0.375188 0.259832 0.115355) 231 460 2
(0.266371 0.366814 0.114683 0.252132) 232 462 2
(0.263903 0.368049 0.122931 0.245118) 233 464 2
(0.285778 0.357111 0.323149 0.0339622) 234 466 2
(0.425177 0.114366 0.173045 0.287412) 235 468 1
(0.210365 0.394818 0.239817 0.155001) 237 323 2
(0.229101 0.38545 0.16001 0.22544) 238 325 2
(0.300016 0.349992 0.141935 0.208058) 239 327 2
(0.333562 0.333219 0.0388464 0.294373) 240 478 2
(0.305644 0.347178 0.104621 0.242557) 241 480 2
(0.0465624 0.476719 0.226036 0.250682) 242 481 1
(0.668247 0.165877 0.12024 0.0456363) 244 337 2
(0.815041 0.0924796 0.0199642 0.0725154) 245 339 2
(0.65703 0.171485 0.151696 0.0197885) 246 489 1
(0.39903 0.101192 0.199293 0.300485) 247 492 1
(0.172142 0.0508847 0.413929 0.363044) 248 493 2
(0.184096 0.407952 0.048218 0.359734) 250 495 1
(0.259092 0.370454 0.346717 0.023737) 251 351 2
(0.278467 0.360766 0.343368 0.0173983) 252 353 2
(0.238409 0.380796 0.026123 0.354673) 253 501 1
(0.14328 0.42836 0.0701188 0.358241) 254 503 1
(0.0390499 0.480475 0.340859 0.139616) 254 505 1
(0.159837 0.420082 0.400004 0.0200778) 255 508 2
(0.230239 0.38488 0.0719143 0.312966) 256 510 2
(0.242318 0.0210216 0.357819 0.378841) 256 510 1
(0.299611 0.249075 0.10112 0.350194) 257 512 1
(0.253553 0.219852 0.153372 0.373223) 258 514 1
(0.200476 0.39503 0.00473229 0.399762) 259 516 1
(0.235775 0.382112 0.280934 0.101178) 260 518 2
(0.16087 0.419565 0.366194 0.0533708) 261 520 2
(0.288337 0.355832 0.279535 0.0762965) 262 522 2
(0.440732 0.279634 0.194006 0.0856281) 263 524 2
(0.209697 0.136749 0.258403 0.395152) 264 526 1
(0.593183 0.040268 0.163141 0.203408) 265 528 1
(0.545776 0.157547 0.227112 0.0695652) 266 381 1
(0.366931 0.212442 0.316535 0.104092) 267 383 1
(0.307665 0.173125 0.346167 0.173042) 268 385 1
(0.284067 0.00434385 0.357967 0.353623) 269 535 2
(0.22901 0.0152673 0.385495 0.370228) 270 537 2
(0.105071 0.0611086 0.447464 0.386356) 271 539 2
(0.0754087 0.0706462 0.462296 0.391649) 272 541 2
(0.137775 0.0338327 0.431113 0.39728) 273 543 2
(0.128606 0.043774 0.435697 0.391923) 274 545 2
(0.214322 0.136994 0.255845 0.392839) 275 548 1
(0.350002 0.324999 0.0218167 0.303182) 276 401 2
(0.192332 0.403834 0.321745 0.0820892) 277 403 2
(0.224628 0.387686 0.353007 0.0346787) 277 551 1
(0.254595 0.139112 0.372702 0.233591) 278 405 1
(0.342674 0.328663 0.206579 0.122084) 300 448 2
(0.158576 0.420712 0.0858886 0.334823) 301 596 1
(0.00624923 0.496875 0.362705 0.13417) 301 598 1
(0.175195 0.288798 0.123605 0.412403) 302 601 1
(0.331419 0.334291 0.196393 0.137897) 303 603 2
(0.414733 0.292634 0.0547716 0.237862) 304 605 2
(0.367125 0.116569 0.199868 0.316437) 305 607 1
(0.35179 0.0445094 0.279595 0.324105) 306 609 1
(0.387933 0.0090708 0.296963 0.306033) 308 610 2
(0.511333 0.199453 0.0448805 0.244333) 309 615 1
(0.18527 0.407365 0.137246 0.270119) 311 616 1
(0.766535 0.116733 0.0224659 0.0942667) 312 620 1
(0.413321 0.0770102 0.293339 0.216329) 313 622 2
(0.500441 0.0805126 0.24978 0.169267) 314 476 1
(0.858249 0.0708754 0.0537362 0.0171392) 315 624 1
(0.521792 0.097929 0.239104 0.141175) 316 480 1
(0.258276 0.15942 0.370862 0.211442) 317 482 1
(0.149338 0.425331 0.0724576 0.352874) 319 632 1
(0.279898 0.360051 0.228071 0.13198) 320 488 2
(0.298479 0.35076 0.0318023 0.318958) 321 490 2
(0.330883 0.334559 0.199706 0.134852) 322 640 1
(0.248777 0.00502347 0.370588 0.375611) 323 643 1
(0.235156 0.0227305 0.382422 0.359692) 324 644 2
(0.293727 0.00640206 0.346734 0.353137) 325 647 1
(0.30137 0.0674143 0.281901 0.349315) 326 649 1
(0.294273 0.255988 0.0968758 0.352864) 327 651 1
(0.249562 0.375219 0.219199 0.15602) 328 653 2
(0.202461 0.0297673 0.369002 0.398769) 329 652 2
(0.220237 0.00520106 0.389882 0.38468) 329 654 2
(0.224548 0.162378 0.225348 0.387726) 330 657 1
(0.28283 0.284398 0.0741868 0.358585) 331 659 1
(0.044063 0.477968 0.225966 0.252003) 332 660 1
(0.367981 0.0290517 0.286958 0.316009) 334 662 2
(0.206931 0.396534 0.296614 0.0999203) 335 667 2
(0.210358 0.306029 0.0887921 0.394821) 336 669 1
(0.257243 0.180252 0.191126 0.371378) 337 671 1
(0.824058 0.0879708 0.00158977 0.0863811) 338 672 1
(0.335867 0.297789 0.0342778 0.332066) 339 675 1
(0.210327 0.364046 0.0307906 0.394836) 340 677 1
(0.133899 0.244515 0.188536 0.433051) 341 679 1
(0.242437 0.378782 0.0945947 0.284187) 342 532 2
(0.322498 0.338751 0.236167 0.102584) 343 534 2
(0.235698 0.382151 0.0287253 0.353426) 344 682 1
(0.0894221 0.238604 0.455289 0.216685) 344 684 2
(0.376748 0.0312167 0.280409 0.311626) 345 687 1
(0.286392 0.14029 0.216514 0.356804) 346 689 1
(0.230144 0.178981 0.205947 0.384928) 347 691 1
(0.15677 0.421615 0.233465 0.18815) 424 695 2
(0.168976 0.415512 0.059335 0.356177) 425 843 1
(0.16421 0.0482971 0.417895 0.369598) 350 696 2
(0.292429 0.112557 0.353785 0.241228) 351 550 1
(0.337088 0.287535 0.331456 0.0439206) 352 552 1
(0.448829 0.275586 0.19739 0.0781957) 353 554 2
(0.189077 0.405462 0.0348261 0.370635) 354 702 1
(0.251453 0.280072 0.374274 0.0942019) 375 597 1
(0.295184 0.352408 0.0122163 0.340192) 376 599 2
(0.367948 0.316026 0.218137 0.0978888) 377 750 2
(0.327204 0.336398 0.0988388 0.237559) 378 752 2
(0.156626 0.421687 0.195477 0.22621) 378 751 1
(0.304114 0.347943 0.296291 0.0516516) 379 753 1
(0.0656871 0.467156 0.225392 0.241765) 380 755 1
(0.326912 0.336544 0.0150745 0.321469) 382 611 2
(0.2406 0.3797 0.342997 0.0367036) 383 761 1
(0.166912 0.416544 0.126586 0.289958) 385 617 2
(0.127036 0.410194 0.436482 0.0262876) 386 619 1
(0.286585 0.233228 0.356708 0.12348) 387 621 1
(0.0201783 0.489911 0.194822 0.295088) 389 771 1
(0.304256 0.347872 0.338945 0.00892758) 390 627 2
(0.25283 0.373585 0.10659 0.266995) 391 629 2
(0.218588 0.343255 0.390706 0.0474516) 392 631 1
(0.247402 0.293978 0.376299 0.0823206) 393 633 1
(0.262961 0.32904 0.36852 0.0394801) 394 635 1
(0.243491 0.354871 0.378255 0.0233838) 395 637 1
(0.217537 0.237948 0.391232 0.153283) 396 639 1
(0.289861 0.0357706 0.355069 0.319299) 397 641 1
(0.197491 0.358563 0.0426916 0.401255) 398 792 1
(0.268232 0.365884 0.287547 0.0783367) 399 794 2
(0.28054 0.35973 0.142916 0.216814) 400 796 2
(0.272746 0.363627 0.0195455 0.344082) 401 798 2
(0.0848531 0.0862188 0.371355 0.457573) 402 797 2
(0.189733 0.0406392 0.364494 0.405134) 402 800 1
(0.239705 0.131524 0.248624 0.380147) 403 802 1
(0.207991 0.239188 0.156817 0.396005) 404 804 1
(0.243279 0.289075 0.0892852 0.378361) 405 806 1
(0.659297 0.170351 0.116918 0.0534334) 406 807 1
(0.381938 0.172393 0.309031 0.136638) 407 661 1
(0.640994 0.179503 0.0204101 0.159093) 408 663 2
(0.733135 0.133433 0.0941399 0.0392926) 409 811 1
(0.688786 0.024526 0.131081 0.155607) 410 816 1
(0.179893 0.0923466 0.410054 0.317707) 411 817 2
(0.205976 0.017769 0.397012 0.379243) 412 819 2
(0.264101 0.000550873 0.367949 0.367398) 413 821 2
(0.232964 0.00691045 0.376607 0.383518) 414 824 1
(0.172466 0.0320678 0.413767 0.381699) 415 825 2
(0.0884688 0.0834529 0.455766 0.372313) 416 827 2
(0.197962 0.26172 0.401019 0.139299) 417 829 2
(0.194589 0.402706 0.357767 0.0449387) 418 831 1
(0.356879 0.321561 0.289893 0.0316679) 419 833 1
(0.385147 0.307426 0.158399 0.149027) 420 835 1
(0.243824 0.255561 0.122527 0.378088) 421 838 1
(0.221646 0.259735 0.129442 0.389177) 422 840 1
(0.083696 0.0149174 0.458152 0.443235) 423 841 2
(0.153397 0.423301 0.35569 0.0676116) 499 992 1
(0.201227 0.195209 0.204177 0.399387) 425 846 1
(0.275037 0.362482 0.00810383 0.354378) 501 848 2
(0.218676 0.390662 0.0302439 0.360418) 502 850 2
(0.156542 0.421729 0.416068 0.00566059) 428 852 2
(0.277495 0.361253 0.121934 0.239318) 429 705 2
(0.750131 0.124678 0.000256121 0.124935) 450 895 1
(0.331613 0.295986 0.334194 0.0382082) 451 748 1
(0.790758 0.0755537 0.104621 0.0290672) 452 750 1
(0.552494 0.180341 0.0434126 0.223753) 453 901 1
(0.273576 0.325924 0.363212 0.0372876) 454 754 1
(0.276797 0.252506 0.361602 0.109096) 455 756 1
(0.244018 0.232857 0.377991 0.145134) 456 758 1
(0.205725 0.280408 0.397137 0.116729) 457 760 1
(0.173452 0.249827 0.413274 0.163447) 458 762 1
(0.118235 0.147835 0.440883 0.293048) 459 764 1
(0.0650534 0.467473 0.00572076 0.461753) 461 914 1
(0.216604 0.391698 0.0256185 0.366079) 462 770 2
(0.210127 0.222635 0.394937 0.172301) 463 772 1
(0.247029 0.06411 0.376485 0.312375) 464 774 1
(0.258511 0.0337686 0.370745 0.336976) 465 776 1
(0.247475 0.053997 0.376263 0.322266) 466 778 1
(0.25699 0.151482 0.371505 0.220023) 467 780 1
(0.250055 0.322196 0.374972 0.052776) 468 782 1
(0.294168 0.352916 0.151995 0.200921) 469 784 2
(0.254893 0.372553 0.329984 0.0425696) 470 786 2
(0.0722472 0.463876 0.0964316 0.367445) 471 934 1
(0.447452 0.276274 0.221481 0.0547929) 471 936 1
(0.221162 0.389419 0.214812 0.174607) 472 939 2
(0.110633 0.0624503 0.382233 0.444683) 473 938 2
(0.134089 0.0467092 0.432955 0.386246) 473 940 2
(0.122812 0.0506404 0.438594 0.387954) 474 942 2
(0.0813602 0.0794948 0.379825 0.45932) 476 944 2
(0.224338 0.387831 0.0454103 0.342421) 477 949 2
(0.201788 0.399106 0.144499 0.254607) 478 951 2
(0.181472 0.409264 0.220674 0.18859) 479 953 2
(0.236723 0.381639 0.19923 0.182409) 480 955 2
(0.291562 0.354219 0.0609376 0.293281) 481 957 2
(0.196479 0.401761 0.25214 0.14962) 482 956 1
(0.0946362 0.452682 0.117014 0.335668) 483 958 1
(0.127921 0.436039 0.113432 0.322607) 484 960 1
(0.391535 0.304233 0.198331 0.105902) 485 816 2
(0.427958 0.286021 0.0469936 0.239027) 486 818 2
(0.215764 0.392118 0.0976972 0.294421) 487 969 2
(0.240423 0.0193295 0.360459 0.379788) 488 968 2
(0.147967 0.0452154 0.380801 0.426017) 489 970 2
(0.253063 0.373468 0.0188209 0.354647) 490 975 2
(0.223434 0.388283 0.310495 0.0777878) 491 977 2
(0.269794 0.252925 0.112178 0.365103) 492 979 1
(0.289825 0.112958 0.355087 0.242129) 493 832 1
(0.296126 0.158301 0.351937 0.193636) 494 834 1
(0.348014 0.243021 0.325993 0.0829722) 495 836 1
(0.262925 0.368538 0.0839241 0.284614) 496 987 2
(0.100283 0.0878586 0.362 0.449858) 497 986 2
(0.149205 0.0612847 0.425397 0.364113) 497 988 2
(0.111967 0.0492049 0.444017 0.394812) 498 990 2
(0.0600952 0.469952 0.291122 0.17883) 500 995 2
(0.242073 0.378964 0.147026 0.231937) 576 997 2
(0.175486 0.351443 0.412257 0.0608142) 577 999 1
(0.332076 0.333962 0.201852 0.13211) 503 1001 2
(0.240732 0.365009 0.379634 0.014625) 504 854 1
(0.611538 0.194231 0.062281 0.13195) 525 895 2
(0.303648 0.181664 0.348176 0.166512) 526 897 1
(0.29891 0.350545 0.213632 0.136913) 527 1047 1
(0.306104 0.346948 0.288484 0.058464) 529 903 2
(0.262935 0.368533 0.227716 0.140817) 530 905 2
(0.271831 0.364084 0.289716 0.0743682) 531 907 2
(0.216191 0.391905 0.377821 0.014084) 532 909 2
(0.101666 0.449167 0.0607489 0.388418) 533 1057 1
(0.0936405 0.45318 0.407931 0.0452489) 533 1059 1
(0.154369 0.00630867 0.422815 0.416507) 534 913 1
(0.00153201 0.499234 0.00892203 0.490312) 536 1063 1
(0.0387876 0.480606 0.0251357 0.455471) 537 1065 1
(0.295791 0.203437 0.148668 0.352105) 537 1068 1
(0.34104 0.32948 0.307816 0.0216645) 538 1070 2
(0.315097 0.342452 0.195554 0.146897) 539 1072 2
(0.130368 0.434816 0.358822 0.0759937) 540 1073 1
(0.237397 0.381302 0.348237 0.0330647) 541 1075 1
(0.294514 0.158686 0.352743 0.194057) 542 929 1
(0.224618 0.387691 0.0484916 0.3392) 543 931 2
(0.167788 0.416106 0.0575239 0.358582) 544 1079 1
(0.26079 0.0938493 0.369605 0.275756) 544 933 1
(0.251766 0.374117 0.105087 0.26903) 545 935 2
(0.16904 0.41548 0.198378 0.217102) 546 1083 1
(0.223561 0.305295 0.0829242 0.388219) 546 1086 1
(0.216959 0.369883 0.0216371 0.391521) 547 1088 1
(0.180494 0.409753 0.32679 0.0829627) 548 1090 2
(0.205388 0.397306 0.378446 0.0188596) 549 1092 2
(0.295847 0.0449821 0.307094 0.352077) 550 1094 1
(0.0783218 0.080208 0.380631 0.460839) 552 1095 2
(0.209286 0.395357 0.156172 0.239185) 553 1100 2
(0.190256 0.367954 0.0369183 0.404872) 554 1102 1
(0.215476 0.145015 0.247247 0.392262) 555 1104 1
(0.126049 0.436976 0.24281 0.194166) 556 1105 1
(0.25704 0.37148 0.348809 0.0226714) 557 1107 1
(0.320715 0.0514274 0.339642 0.288215) 558 961 1
(0.322008 0.17392 0.338996 0.165076) 559 963 1
(0.274299 0.291711 0.362851 0.0711398) 560 965 1
(0.610987 0.120014 0.0744925 0.194506) 561 1116 1
(0.443852 0.278074 0.246365 0.0317085) 562 1118 2
(0.50141 0.249295 0.0547584 0.194537) 563 1120 2
(0.746522 0.126739 0.125686 0.00105229) 564 1122 2
(0.236475 0.381763 0.0507966 0.330966) 566 1126 2
(0.219323 0.390338 0.344663 0.0456758) 567 1128 2
(0.232781 0.285315 0.0982949 0.38361) 568 1130 1
(0.257296 0.128951 0.2424 0.371352) 569 1132 1
(0.249537 0.121294 0.253937 0.375231) 570 1134 1
(0.285982 0.207409 0.1496 0.357009) 571 1136 1
(0.26826 0.36587 0.342715 0.0231547) 572 1138 2
(0.273746 0.363127 0.186589 0.176539) 573 1140 2
(0.25998 0.37001 0.0958964 0.274114) 574 1142 2
(0.221951 0.389025 0.130055 0.258969) 575 1144 2
(0.0197248 0.0396596 0.450478 0.490138) 577 1145 2
(0.01054 0.0676156 0.427114 0.49473) 578 1147 2
(0.137263 0.431368 0.329689 0.101679) 578 1149 1
(0.0965339 0.451733 0.374877 0.0768562) 579 1151 1
(0.275774 0.283419 0.362113 0.0786934) 600 1192 2
(0.178604 0.410698 0.174948 0.23575) 602 1197 2
(0.31552 0.34224 0.267726 0.0745138) 603 1199 2
(0.184695 0.407652 0.147271 0.260381) 604 1052 2
(0.210119 0.200363 0.194577 0.39494) 605 1200 2
(0.069263 0.231017 0.234351 0.465368) 606 1202 2
(0.221376 0.0546578 0.389312 0.334654) 606 1056 1
(0.222547 0.137696 0.388726 0.251031) 607 1058 1
(0.220841 0.216439 0.38958 0.173141) 608 1060 1
(0.132198 0.35353 0.433901 0.0803712) 609 1062 1
(0.21397 0.393015 0.00572612 0.387289) 610 1064 2
(0.24313 0.0324713 0.345964 0.378435) 611 1212 2
(0.278853 0.00734189 0.360573 0.353231) 611 1214 2
(0.265342 0.345144 0.0221847 0.367329) 612 1217 1
(0.301467 0.349267 0.0742952 0.274971) 613 1219 2
(0.0444686 0.13405 0.477766 0.343715) 613 1218 2
(0.329107 0.0814994 0.253947 0.335446) 614 1221 1
(0.29094 0.228784 0.125746 0.35453) 615 1223 1
(0.4082 0.2959 0.0243826 0.271517) 617 1224 1
(0.263883 0.368059 0.0237883 0.34427) 618 1226 1
(0.124332 0.437834 0.293143 0.144691) 618 1228 1
(0.572649 0.0451375 0.213675 0.168538) 619 1082 1
(0.411235 0.294382 0.190878 0.103505) 620 1084 2
(0.109762 0.445119 0.239836 0.205283) 620 1232 1
(0.409781 0.29511 0.229628 0.0654818) 621 1234 1
(0.267305 0.284428 0.0819194 0.366348) 622 1237 1
(0.197504 0.0620369 0.401248 0.339211) 623 1238 2
(0.709515 0.145242 0.0632771 0.0819652) 625 1243 2
(0.387152 0.160396 0.146028 0.306424) 626 1245 1
(0.0168926 0.0867655 0.491554 0.404788) 627 1246 2
(0.20175 0.399125 0.232465 0.16666) 629 1251 2
(0.209026 0.234692 0.160796 0.395487) 630 1253 1
(0.453796 0.0431934 0.273102 0.229908) 631 1106 1
(0.311364 0.158939 0.344318 0.185379) 632 1108 1
(0.351514 0.257015 0.324243 0.0672279) 633 1110 1
(0.310763 0.344618 0.0977461 0.246872) 634 1112 2
(0.306266 0.346867 0.283751 0.0631156) 635 1114 2
(0.0198518 0.490074 0.301671 0.188403) 635 1262 1
(0.0729698 0.463515 0.292358 0.171157) 636 1264 1
(0.0587466 0.470627 0.233517 0.23711) 638 1266 1
(0.348486 0.325757 0.324371 0.00138657) 639 1122 2
(0.102432 0.448784 0.278046 0.170738) 640 1270 1
(0.217853 0.391074 0.0379774 0.353096) 641 1275 2
(0.193214 0.403393 0.289859 0.113534) 642 1277 2
(0.221148 0.260707 0.128719 0.389426) 643 1279 1
(0.23133 0.0253129 0.359022 0.384335) 644 1281 1
(0.220962 0.389519 0.00721563 0.382303) 646 1285 2
(0.243522 0.378239 0.284478 0.0937606) 647 1287 2
(0.259596 0.314976 0.0552261 0.370202) 648 1289 1
(0.264204 0.30258 0.0653184 0.367898) 649 1291 1
(0.241128 0.184462 0.194974 0.379436) 650 1293 1
(0.159969 0.0403207 0.379695 0.420016) 651 1295 1
(0.204886 0.197864 0.199693 0.397557) 653 1296 2
(0.161206 0.419397 0.360688 0.0587089) 653 1298 1
(0.149814 0.425093 0.379006 0.0460873) 654 1300 1
(0.313313 0.0195755 0.323768 0.343343) 675 1342 1
(0.182281 0.131945 0.276915 0.40886) 676 1344 1
(0.121824 0.0459439 0.439088 0.393144) 677 1345 2
(0.448694 0.275653 0.119553 0.1561) 679 1347 1
(0.293864 0.353068 0.277165 0.0759029) 680 1349 1
(0.0122552 0.193061 0.300811 0.493872) 681 1351 2
(0.288529 0.0481119 0.355735 0.307623) 681 1205 1
(0.263442 0.288492 0.368279 0.0797863) 682 1207 1
(0.216417 0.391792 0.133533 0.258259) 683 1209 2
(0.239801 0.380099 0.246154 0.133945) 684 1211 2
(0.0495611 0.153246 0.321973 0.475219) 685 1359 2
(0.214515 0.122443 0.2703 0.392743) 685 1362 1
(0.241116 0.379442 0.358639 0.0208031) 686 1364 2
(0.264881 0.36756 0.0454486 0.322111) 687 1366 2
(0.182646 0.099322 0.309355 0.408677) 687 1366 1
(0.286929 0.353421 0.0031144 0.356535) 688 1368 1
(0.277267 0.361366 0.0923802 0.268986) 689 1370 2
(0.0343508 0.132302 0.350523 0.482825) 690 1369 2
(0.260065 0.0201744 0.369967 0.349793) 690 1371 2
(0.267958 0.0859994 0.280022 0.366021) 691 1374 1
(0.238061 0.108425 0.272545 0.380969) 692 1376 1
(0.226763 0.0793349 0.307284 0.386619) 693 1378 1
(0.140064 0.429968 0.290371 0.139597) 694 1379 1
(0.283301 0.358349 0.309413 0.048936) 695 1381 1
(0.435103 0.0451675 0.282448 0.237281) 696 1235 1
(0.39432 0.30284 0.146258 0.156581) 697 1385 1
(0.17581 0.412095 0.154515 0.25758) 699 1387 1
(0.331389 0.334305 0.183214 0.151091) 700 1243 2
(0.856704 0.0716481 0.0640957 0.00755245) 701 1393 1
(0.310501 0.34475 0.142953 0.201796) 703 1398 2
(0.257415 0.371293 0.329891 0.0414022) 704 1400 2
(0.28775 0.0641091 0.292016 0.356125) 705 1402 1
(0.175941 0.41203 0.0145109 0.397519) 707 1406 2
(0.23789 0.381055 0.0560424 0.325012) 708 1408 2
(0.00479803 0.497601 0.319354 0.178247) 708 1407 1
(0.304466 0.0860776 0.347767 0.261689) 709 1261 1
(0.330328 0.334836 0.00935247 0.325483) 710 1263 2
(0.344439 0.327781 0.295041 0.0327398) 711 1265 2
(0.124453 0.437774 0.338841 0.0989323) 711 1413 1
(0.296313 0.100432 0.351844 0.251412) 712 1267 1
(0.248771 0.160879 0.375614 0.214735) 713 1269 1
(0.0815083 0.459246 0.375888 0.0833578) 714 1419 1
(0.54146 0.188558 0.0407126 0.22927) 716 1424 1
(0.282325 0.204832 0.154006 0.358838) 717 1426 1
(0.167035 0.0647764 0.416483 0.351706) 718 1427 2
(0.0211458 0.131783 0.489427 0.357644) 719 1429 2
(0.763772 0.118114 0.0449716 0.0731425) 721 1434 2
(0.218605 0.141915 0.390698 0.248783) 722 1435 2
(0.455054 0.272473 0.0698727 0.2026) 724 1440 2
(0.238492 0.19819 0.182564 0.380754) 725 1442 1
(0.0183461 0.0837378 0.407089 0.490827) 727 1443 2
(0.434675 0.282663 0.0054841 0.277178) 727 1445 1
(0.475661 0.0228778 0.26217 0.239292) 728 1299 1
(0.288175 0.125404 0.355912 0.230508) 729 1301 1
(0.279017 0.0841348 0.360492 0.276357) 730 1303 1
(0.454695 0.11077 0.272652 0.161882) 750 1490 2
(0.159631 0.306368 0.113817 0.420185) 752 1492 2
(0.600398 0.108365 0.0914359 0.199801) 753 1497 1
(0.291985 0.224994 0.129013 0.354007) 754 1499 1
(0.245423 0.0821954 0.295093 0.377288) 755 1501 1
(0.0873527 0.0615256 0.394798 0.456324) 757 1502 2
(0.228828 0.0840453 0.385586 0.301541) 757 1356 1
(0.308635 0.182453 0.345683 0.163229) 758 1358 1
(0.428768 0.285616 0.0350839 0.250532) 759 1360 2
(0.192061 0.403969 0.0667368 0.337233) 760 1511 2
(0.0309655 0.0631881 0.421329 0.484517) 761 1510 2
(0.226171 0.0856549 0.30126 0.386914) 761 1513 1
(0.136404 0.431798 0.41202 0.0197775) 762 1515 2
(0.226821 0.00799478 0.378595 0.386589) 763 1514 2
(0.190281 0.111123 0.293737 0.40486) 763 1517 1
(0.265155 0.367423 0.164055 0.203367) 764 1519 2
(0.154526 0.0746747 0.422737 0.348062) 764 1518 2
(0.264261 0.179029 0.18884 0.367869) 765 1521 1
(0.259366 0.331557 0.0387603 0.370317) 766 1523 1
(0.245211 0.377395 0.33157 0.0458249) 767 1525 2
(0.237521 0.381239 0.355703 0.0255364) 768 1527 2
(0.580095 0.209953 0.0652639 0.144689) 769 1526 1
(0.39362 0.30319 0.114144 0.189045) 770 1382 2
(0.0321862 0.483907 0.338466 0.145441) 771 1532 1
(0.245652 0.377174 0.253103 0.124071) 773 1388 2
(0.156968 0.421516 0.0681639 0.353352) 774 1536 1
(0.137509 0.431246 0.0438451 0.3874) 775 1538 1
(0.602751 0.0418578 0.198625 0.156767) 776 1542 2
(0.727437 0.0110251 0.136282 0.125257) 777 1544 2
(0.673635 0.0516673 0.111515 0.163182) 778 1547 1
(0.478792 0.0549903 0.260604 0.205614) 779 1548 2
(0.411663 0.0342703 0.294168 0.259898) 780 1550 2
(0.294755 0.352622 0.0772687 0.275354) 782 1555 2
(0.12882 0.13144 0.30415 0.43559) 783 1557 1
(0.0045875 0.0641635 0.497706 0.433543) 784 1558 2
(0.163191 0.418404 0.0745824 0.343822) 786 1563 2
(0.261215 0.0255566 0.369393 0.343836) 786 1414 1
(0.288759 0.214068 0.35562 0.141552) 787 1416 1
(0.277184 0.361408 0.0860481 0.27536) 788 1418 2
(0.290365 0.354817 0.293504 0.0613138) 789 1420 2
(0.122994 0.438503 0.082854 0.355649) 790 1568 1
(0.242825 0.378587 0.31763 0.060957) 790 1570 1
(0.345426 0.0517426 0.327287 0.275544) 791 1424 1
(0.107349 0.399692 0.046634 0.446326) 793 1574 2