/*--------------------------------*- C++ -*----------------------------------*\
  =========                 |
  \\      /  F ield         | OpenFOAM: The Open Source CFD Toolbox
   \\    /   O peration     | Website:  https://openfoam.org
    \\  /    A nd           | Version:  12
     \\/     M anipulation  |
\*---------------------------------------------------------------------------*/
FoamFile
{
    format      ascii;
    class       vectorField;
    location    "0.4/lagrangian/cloud";
    object      U;
}
// * * * * * * * * * * * * * * * * * * * * * * * * * * * * * * * * * * * * * //


2784
(
(-0.00178835 -0.0318617 0)
(0.000180227 -0.0303981 0)
(0.000186938 -0.0323776 0)
(-0.000687753 -0.0352624 0)
(0.00104924 -0.0306027 0)
(-0.00111616 -0.0346809 0)
(-0.00011776 -0.031832 0)
(0.000253084 -0.0314594 0)
(0.000199274 -0.0309288 0)
(0.000850387 -0.0299842 0)
(0.00167939 -0.0271062 0)
(0.00106313 -0.027135 0)
(-0.000766303 -0.0287886 0)
(-0.00180849 -0.0282705 0)
(-7.92785e-05 -0.029727 0)
(-0.000397494 -0.0295465 0)
(-0.000333443 -0.0284201 0)
(-3.83283e-05 -0.0273445 0)
(0.0022881 -0.0286203 0)
(0.00138629 -0.0319808 0)
(5.86832e-05 -0.0306388 0)
(0.000232706 -0.031872 0)
(-6.91057e-05 -0.0330997 0)
(0.000215955 -0.0319531 0)
(0.00123854 -0.0316494 0)
(-0.000183089 -0.0335135 0)
(-7.7931e-05 -0.0371678 0)
(-0.000545601 -0.0337847 0)
(0.000295479 -0.0321397 0)
(0.00110912 -0.0336775 0)
(0.000950334 -0.0342746 0)
(0.000753696 -0.0343773 0)
(-1.73265e-05 -0.0342977 0)
(0.000760621 -0.034183 0)
(-0.000733911 -0.0330561 0)
(-0.000783069 -0.0328332 0)
(0.000125522 -0.0321015 0)
(0.000550961 -0.0327891 0)
(-0.00073689 -0.0341973 0)
(0.00144901 -0.0365643 0)
(0.000153789 -0.0353925 0)
(0.000544027 -0.0322503 0)
(-0.00046273 -0.032252 0)
(0.000101587 -0.0344731 0)
(0.000433029 -0.0314451 0)
(0.00112869 -0.032544 0)
(1.40626e-05 -0.0338121 0)
(-0.000109323 -0.029124 0)
(0.00278426 -0.0323754 0)
(0.000293014 -0.0338903 0)
(0.000404322 -0.0366354 0)
(-0.00064242 -0.032733 0)
(0.00238021 -0.0326942 0)
(0.000290377 -0.0353678 0)
(0.000856324 -0.03518 0)
(-2.38803e-05 -0.0353223 0)
(0.000222996 -0.0350427 0)
(-0.00169074 -0.0391739 0)
(-0.000968312 -0.0349068 0)
(-0.00109456 -0.0354751 0)
(0.0010631 -0.0372823 0)
(-0.000133038 -0.0414192 0)
(-0.000229783 -0.0405089 0)
(0.000481116 -0.0330947 0)
(0.000970143 -0.0307297 0)
(0.000711549 -0.033966 0)
(-3.27434e-06 -0.0372466 0)
(0.000289197 -0.0380874 0)
(-6.39501e-05 -0.0403665 0)
(-0.000269831 -0.0415077 0)
(-4.35391e-05 -0.0417974 0)
(0.000543557 -0.0429627 0)
(0.000171118 -0.0421071 0)
(0.000913534 -0.040033 0)
(-0.000315278 -0.0409611 0)
(7.40991e-05 -0.0388824 0)
(-0.000602413 -0.0381899 0)
(3.58459e-05 -0.0361295 0)
(-0.000649101 -0.036754 0)
(-0.000102937 -0.0293188 0)
(0.000146289 -0.0313647 0)
(0.00105874 -0.0322417 0)
(0.00109792 -0.0330833 0)
(0.00011796 -0.0303929 0)
(-0.000237326 -0.031452 0)
(-0.000197915 -0.0360043 0)
(-0.00166044 -0.0345901 0)
(0.00174495 -0.0358282 0)
(0.000333339 -0.0376594 0)
(-0.000148466 -0.0408906 0)
(-0.000335576 -0.0426018 0)
(0.00033218 -0.0427295 0)
(-0.00081434 -0.0373554 0)
(6.55435e-05 -0.0366094 0)
(0.000221154 -0.0362775 0)
(2.04576e-05 -0.0355912 0)
(-0.000561279 -0.0360622 0)
(-0.000910486 -0.0288949 0)
(3.25749e-05 -0.0371089 0)
(0.000406101 -0.0377274 0)
(-0.00132905 -0.0412209 0)
(0.000665256 -0.0380992 0)
(0.000285105 -0.0342815 0)
(2.98337e-05 -0.0335936 0)
(0.00158728 -0.0389809 0)
(0.000447085 -0.0393887 0)
(0.000506193 -0.0391133 0)
(5.37233e-05 -0.039375 0)
(0.00116255 -0.040242 0)
(-0.000139943 -0.0435404 0)
(0.000428118 -0.0441871 0)
(-0.000747436 -0.0458017 0)
(0.00157757 -0.0402164 0)
(-0.000310778 -0.0385404 0)
(-0.000102667 -0.037419 0)
(0.000799881 -0.0387856 0)
(0.000118637 -0.0373334 0)
(1.57921e-05 -0.0389664 0)
(-0.00108482 -0.0386887 0)
(0.000427219 -0.0381674 0)
(0.00135876 -0.0392921 0)
(-0.000186076 -0.0461435 0)
(0.00207638 -0.0453732 0)
(0.00140643 -0.046542 0)
(0.00122084 -0.046804 0)
(0.00164898 -0.0420577 0)
(0.00173048 -0.0463646 0)
(0.00126952 -0.0480674 0)
(0.000422492 -0.0472909 0)
(-0.00014654 -0.0486002 0)
(1.93634e-06 -0.0487756 0)
(-6.44636e-05 -0.0505492 0)
(-0.00101044 -0.0511477 0)
(0.000337479 -0.0462343 0)
(-0.00085333 -0.0487674 0)
(-0.000126251 -0.0416371 0)
(0.00124454 -0.0399734 0)
(-0.000808763 -0.0371145 0)
(0.000374977 -0.0428939 0)
(-0.000783703 -0.0449611 0)
(-0.000241099 -0.0466185 0)
(0.00164908 -0.04824 0)
(0.00161666 -0.0468947 0)
(0.00087281 -0.0447696 0)
(0.000667437 -0.0444982 0)
(0.000400412 -0.0439295 0)
(-0.000261304 -0.0462091 0)
(-0.0012675 -0.0442615 0)
(0.000230422 -0.0429212 0)
(-2.80465e-05 -0.0431473 0)
(-0.000269306 -0.0433199 0)
(2.46677e-05 -0.0434319 0)
(-0.000322942 -0.0429902 0)
(-0.000968349 -0.0420688 0)
(-0.000115403 -0.0454221 0)
(0.000615921 -0.0444391 0)
(-0.000795071 -0.0459987 0)
(-0.000804236 -0.048109 0)
(0.000251639 -0.0464622 0)
(0.000120286 -0.0465801 0)
(-0.000749835 -0.048689 0)
(-0.000136315 -0.0489921 0)
(-6.61993e-05 -0.0491506 0)
(0.000676097 -0.048273 0)
(0.00177388 -0.0455758 0)
(0.000841973 -0.0469879 0)
(-0.000712656 -0.0492631 0)
(-0.000973348 -0.0499739 0)
(-0.000558883 -0.0493164 0)
(0.000248465 -0.0500339 0)
(-0.000105755 -0.0485245 0)
(0.000244216 -0.0482556 0)
(-0.000567221 -0.0475697 0)
(-9.33609e-05 -0.0439762 0)
(0.000297785 -0.0480033 0)
(-0.000415019 -0.0484322 0)
(-0.0012046 -0.0453296 0)
(-0.000407507 -0.0463243 0)
(-0.000346547 -0.0463806 0)
(-0.000270255 -0.049399 0)
(-0.000377167 -0.0494285 0)
(-0.000785314 -0.0481556 0)
(-0.000753867 -0.0477223 0)
(0.00125156 -0.0452105 0)
(0.000646704 -0.0489211 0)
(0.000633539 -0.048461 0)
(-0.00043519 -0.0508882 0)
(-0.000103556 -0.0523741 0)
(0.00111686 -0.0539556 0)
(0.0002546 -0.0543661 0)
(-0.00117555 -0.0533449 0)
(-0.000402135 -0.0493344 0)
(-0.000870826 -0.0495371 0)
(-0.000856873 -0.0489694 0)
(-1.93728e-05 -0.0504729 0)
(0.000136306 -0.0513398 0)
(-0.000555433 -0.0508262 0)
(0.000948238 -0.0474625 0)
(0.000785586 -0.0460842 0)
(0.000525588 -0.0428168 0)
(0.0016702 -0.0472653 0)
(0.000541765 -0.0485338 0)
(-0.000458784 -0.0469208 0)
(-0.000117744 -0.0464614 0)
(-5.46541e-05 -0.0464967 0)
(7.98579e-05 -0.0468539 0)
(1.45344e-05 -0.0464322 0)
(-0.000383383 -0.0433031 0)
(-0.000306375 -0.0446647 0)
(0.00204625 -0.0451921 0)
(0.00090488 -0.0456752 0)
(-7.14697e-05 -0.0479352 0)
(-0.00117414 -0.0474666 0)
(-0.000361221 -0.0477883 0)
(-0.000269942 -0.0483192 0)
(0.00015335 -0.0496519 0)
(0.000545205 -0.0501055 0)
(0.00302807 -0.0506694 0)
(0.00118527 -0.0492921 0)
(0.00184874 -0.0459373 0)
(-0.000500487 -0.0471751 0)
(0.00017988 -0.049393 0)
(-0.000403583 -0.049744 0)
(-0.000792465 -0.0495571 0)
(-0.000415219 -0.0500022 0)
(0.000452933 -0.0517306 0)
(0.000872411 -0.050784 0)
(0.000985889 -0.0503519 0)
(0.000998095 -0.0483735 0)
(0.000707571 -0.0458553 0)
(-0.000300694 -0.0479178 0)
(-0.000687353 -0.047881 0)
(-2.38726e-05 -0.0475924 0)
(0.000310241 -0.0478682 0)
(-0.000490251 -0.0511025 0)
(-0.000419472 -0.0514748 0)
(-0.000224928 -0.0510835 0)
(0.00101882 -0.0511788 0)
(0.000361009 -0.0536589 0)
(0.000430448 -0.0533545 0)
(0.00130937 -0.0543293 0)
(0.00100345 -0.0537294 0)
(0.000116286 -0.0535583 0)
(0.000524785 -0.0519613 0)
(-0.00199765 -0.0522894 0)
(-0.00336409 -0.0511378 0)
(-0.00164874 -0.0518974 0)
(-0.0024329 -0.0509067 0)
(-0.000383258 -0.0516184 0)
(-0.00174574 -0.0497593 0)
(0.000717554 -0.050767 0)
(8.2664e-05 -0.0485393 0)
(-2.37967e-05 -0.0484545 0)
(-0.000348215 -0.0471792 0)
(0.000666789 -0.047178 0)
(0.000660002 -0.047414 0)
(-0.000415722 -0.0476436 0)
(-0.000410456 -0.0477352 0)
(-7.75574e-05 -0.0470462 0)
(-0.000564807 -0.047028 0)
(-0.000432427 -0.0479333 0)
(-5.10686e-05 -0.0480696 0)
(0.000598845 -0.0462002 0)
(-0.000105062 -0.0464205 0)
(6.13431e-05 -0.0478768 0)
(0.000249696 -0.0483404 0)
(0.000906371 -0.0488596 0)
(0.000117108 -0.0492016 0)
(0.000131459 -0.0496523 0)
(0.000294084 -0.0505886 0)
(0.0002097 -0.048696 0)
(0.00122253 -0.0486399 0)
(0.000193571 -0.0492336 0)
(6.56602e-05 -0.0484628 0)
(0.000358722 -0.0491283 0)
(-0.000419327 -0.0489589 0)
(-0.00027725 -0.0494861 0)
(-0.000381703 -0.0482256 0)
(-0.000594476 -0.0467952 0)
(-0.00106174 -0.0485196 0)
(-0.0002726 -0.049285 0)
(0.000398667 -0.0463847 0)
(-0.000460151 -0.0469364 0)
(0.000605323 -0.0485513 0)
(-0.000157335 -0.0450568 0)
(-2.32036e-05 -0.0459927 0)
(-0.00101682 -0.0472833 0)
(-0.000260037 -0.0478682 0)
(-0.000117145 -0.0517494 0)
(0.000502545 -0.0530489 0)
(0.00109319 -0.053532 0)
(0.00245862 -0.0523259 0)
(0.000521191 -0.0523923 0)
(0.00053692 -0.0522302 0)
(0.00107602 -0.0545869 0)
(0.000733423 -0.0533759 0)
(0.000198978 -0.0522722 0)
(-6.41586e-05 -0.0522901 0)
(-0.00111522 -0.0521998 0)
(-0.00205227 -0.0513364 0)
(-0.00116013 -0.050674 0)
(-0.00193099 -0.0509659 0)
(-7.95743e-05 -0.0507354 0)
(5.01184e-05 -0.0495493 0)
(4.21978e-05 -0.0489788 0)
(0.000258681 -0.0481745 0)
(0.000109075 -0.0475039 0)
(-0.000144695 -0.0470099 0)
(0.000973788 -0.0470608 0)
(0.00136574 -0.0469151 0)
(0.00039593 -0.0487904 0)
(-7.61405e-05 -0.0497841 0)
(-9.2624e-05 -0.0501269 0)
(0.00079477 -0.0478596 0)
(0.000591598 -0.0473929 0)
(0.00015653 -0.0479394 0)
(-0.000258019 -0.0481031 0)
(1.08956e-05 -0.0480939 0)
(0.000523851 -0.0485416 0)
(1.04713e-05 -0.0488063 0)
(0.000291381 -0.0486596 0)
(0.000662305 -0.0520148 0)
(0.000964216 -0.0499777 0)
(0.000918218 -0.0526341 0)
(0.000400013 -0.050572 0)
(0.00034673 -0.0483601 0)
(-7.13961e-06 -0.0490806 0)
(0.000165327 -0.0515127 0)
(-0.000226013 -0.0497043 0)
(-0.000131723 -0.0506376 0)
(-0.000418177 -0.0499474 0)
(6.63216e-05 -0.0475268 0)
(-0.000646796 -0.0483558 0)
(0.000310625 -0.0489991 0)
(-0.000660933 -0.0502483 0)
(0.000192384 -0.0508714 0)
(0.000855427 -0.0489194 0)
(0.00083947 -0.0480211 0)
(0.000632748 -0.050886 0)
(0.000263347 -0.0501723 0)
(-0.000220357 -0.0496036 0)
(-0.000750765 -0.0479421 0)
(0.000180461 -0.0505487 0)
(-0.000305224 -0.0530452 0)
(0.000705488 -0.0518319 0)
(0.00232168 -0.050195 0)
(0.000139298 -0.0526021 0)
(0.000356732 -0.0522905 0)
(9.63353e-05 -0.051038 0)
(0.000212007 -0.0499859 0)
(-0.000166873 -0.0497594 0)
(0.000386891 -0.0509602 0)
(-0.00110553 -0.0485229 0)
(-0.00227996 -0.049369 0)
(-0.000771404 -0.0494794 0)
(-0.000271042 -0.0505181 0)
(-0.00023225 -0.0492824 0)
(-2.08738e-05 -0.0482055 0)
(1.1681e-05 -0.0468712 0)
(0.000711215 -0.0467427 0)
(0.000422761 -0.0480575 0)
(0.000800538 -0.0481577 0)
(0.000858396 -0.0473429 0)
(0.001345 -0.0453172 0)
(-0.000227535 -0.0505127 0)
(0.000639628 -0.0497183 0)
(0.00113435 -0.0512175 0)
(0.000412893 -0.0522493 0)
(0.000265098 -0.0518842 0)
(-0.000401147 -0.0530676 0)
(-0.000575973 -0.0526283 0)
(-0.00067593 -0.0518232 0)
(0.000152535 -0.0518776 0)
(8.36285e-06 -0.0512413 0)
(-0.000353846 -0.0512785 0)
(-0.000632216 -0.0507218 0)
(-0.000229076 -0.0495479 0)
(0.000831042 -0.0504747 0)
(-6.23669e-05 -0.0514041 0)
(-0.000147147 -0.0512777 0)
(0.000962744 -0.0511895 0)
(0.000743602 -0.0502685 0)
(0.000403096 -0.0510027 0)
(9.14863e-05 -0.051262 0)
(0.000413877 -0.0514481 0)
(-0.000245185 -0.0506369 0)
(2.79832e-05 -0.0499759 0)
(-2.54552e-06 -0.0488812 0)
(-0.00159047 -0.0518244 0)
(-0.000201172 -0.0508848 0)
(-0.000448836 -0.0513272 0)
(0.00072466 -0.0516803 0)
(-0.000298808 -0.0488156 0)
(4.40147e-05 -0.0509377 0)
(0.000267284 -0.0485938 0)
(-0.000139312 -0.0512826 0)
(0.000142111 -0.0494343 0)
(-0.000561885 -0.0508557 0)
(-0.000875504 -0.0513223 0)
(0.000667507 -0.051314 0)
(0.000630873 -0.0510033 0)
(-2.60534e-05 -0.0504183 0)
(-0.000623774 -0.049514 0)
(-0.000197757 -0.0490977 0)
(-4.72322e-05 -0.0481507 0)
(-0.000330259 -0.0487525 0)
(0.000185522 -0.0489279 0)
(-0.00174713 -0.0492814 0)
(-0.00166861 -0.0463825 0)
(0.000621371 -0.0484666 0)
(-0.00055572 -0.0513807 0)
(-0.000425164 -0.0517506 0)
(0.00086475 -0.0515321 0)
(0.000390944 -0.0482083 0)
(0.000501198 -0.0483928 0)
(0.000760489 -0.0488112 0)
(0.00111644 -0.0493337 0)
(0.000558356 -0.0486479 0)
(0.000485912 -0.0504014 0)
(0.000346581 -0.0511266 0)
(0.0023473 -0.0515836 0)
(-3.51942e-06 -0.0524834 0)
(0.000672471 -0.0546761 0)
(0.000294398 -0.0553723 0)
(0.000320879 -0.055424 0)
(-3.28346e-05 -0.0541608 0)
(-0.000312998 -0.0557777 0)
(-0.000212588 -0.0551443 0)
(0.000426694 -0.054642 0)
(0.000430493 -0.0530065 0)
(-0.000157869 -0.050924 0)
(-0.000187396 -0.0502416 0)
(0.00021496 -0.0495998 0)
(0.000486051 -0.0500257 0)
(0.00110906 -0.0519213 0)
(0.000693385 -0.0516791 0)
(0.000909549 -0.0516897 0)
(0.000308339 -0.0514366 0)
(2.77567e-05 -0.0526635 0)
(0.000156095 -0.0528358 0)
(0.000239851 -0.0527571 0)
(0.00050513 -0.0529062 0)
(0.000173471 -0.0514736 0)
(0.000176119 -0.0509962 0)
(-0.000365399 -0.0512476 0)
(-0.000355059 -0.0515948 0)
(-0.000174938 -0.0515462 0)
(-9.33548e-05 -0.0510613 0)
(-0.000169852 -0.0467802 0)
(-0.000519083 -0.0495698 0)
(0.000732896 -0.0519719 0)
(-0.000378549 -0.052764 0)
(0.000878506 -0.0495289 0)
(0.000696252 -0.0501164 0)
(0.00159462 -0.049792 0)
(0.000462816 -0.0500766 0)
(-0.000319917 -0.0518314 0)
(-0.000223006 -0.0483446 0)
(-0.000987389 -0.0469734 0)
(0.000106841 -0.0475184 0)
(0.000459159 -0.0490111 0)
(0.000351521 -0.0498403 0)
(-0.000634198 -0.0497682 0)
(-0.000280721 -0.0506771 0)
(-0.000987983 -0.0495566 0)
(-0.000621531 -0.0513603 0)
(-0.00010369 -0.0535762 0)
(-1.2766e-05 -0.052905 0)
(0.000375656 -0.0526997 0)
(-0.000564008 -0.0534123 0)
(-0.000505111 -0.0532774 0)
(-0.000302193 -0.0547863 0)
(0.000645756 -0.0517699 0)
(-0.00183789 -0.0514686 0)
(-0.00152673 -0.0533249 0)
(-0.000434808 -0.053866 0)
(0.00176706 -0.0529127 0)
(0.000244745 -0.0548858 0)
(0.000131314 -0.0584223 0)
(0.000410493 -0.0561608 0)
(0.00118089 -0.0571802 0)
(-1.62382e-05 -0.0563433 0)
(-1.55614e-08 -0.0567486 0)
(0.000194478 -0.0556478 0)
(-0.000725275 -0.0543555 0)
(0.000148207 -0.0537288 0)
(-0.000251616 -0.0516954 0)
(-0.000138985 -0.0517546 0)
(-0.00045217 -0.0516759 0)
(-0.000307284 -0.0521037 0)
(-0.000212989 -0.0526205 0)
(0.00110103 -0.0508428 0)
(0.000142059 -0.0526411 0)
(-0.00125543 -0.0523251 0)
(0.000318849 -0.0533435 0)
(0.000272927 -0.0536235 0)
(0.000558712 -0.0533974 0)
(-8.35125e-05 -0.0530423 0)
(8.10213e-05 -0.0521334 0)
(0.000319042 -0.0519188 0)
(-0.000114824 -0.0511001 0)
(0.000150039 -0.0507249 0)
(-0.00057918 -0.049954 0)
(-0.000420877 -0.0487178 0)
(0.000782016 -0.0492321 0)
(0.000438599 -0.0498086 0)
(3.76942e-05 -0.0523046 0)
(0.00165994 -0.0489047 0)
(0.00065309 -0.048386 0)
(0.000713038 -0.0510942 0)
(0.000578497 -0.0510931 0)
(0.000195989 -0.0512428 0)
(0.000799254 -0.0476936 0)
(6.48485e-05 -0.0460789 0)
(0.000390079 -0.0462803 0)
(2.8516e-05 -0.0492549 0)
(-0.000343453 -0.0491547 0)
(0.000300381 -0.0488304 0)
(0.0016361 -0.0501311 0)
(-0.00122822 -0.0510668 0)
(0.00100119 -0.0506319 0)
(0.00164864 -0.0510527 0)
(0.000303146 -0.0523559 0)
(-0.000367301 -0.0546829 0)
(0.000499914 -0.0532712 0)
(-3.08769e-05 -0.0543329 0)
(-0.000109916 -0.0563624 0)
(-0.000428561 -0.0569064 0)
(-0.00104668 -0.0579 0)
(-1.51535e-05 -0.0576412 0)
(0.00105349 -0.0553117 0)
(0.000740313 -0.0556629 0)
(0.000153365 -0.0568846 0)
(0.000613295 -0.0574652 0)
(4.64025e-05 -0.0567907 0)
(-6.81445e-05 -0.0563441 0)
(0.00138355 -0.0549342 0)
(0.000749665 -0.0550111 0)
(-0.000649866 -0.0544194 0)
(-0.00112681 -0.0531694 0)
(-0.000562269 -0.0521512 0)
(-0.000744538 -0.0506947 0)
(-0.000276919 -0.0495448 0)
(0.000819244 -0.0518381 0)
(0.000507043 -0.0518597 0)
(0.000386707 -0.0504915 0)
(0.000378095 -0.0502273 0)
(0.000425145 -0.0520559 0)
(-0.000240555 -0.0541905 0)
(0.00129668 -0.0519358 0)
(-1.16824e-05 -0.0510984 0)
(0.000131363 -0.053964 0)
(0.000303871 -0.0524615 0)
(-0.0008525 -0.0506873 0)
(-0.000397814 -0.0534351 0)
(-0.00113133 -0.0494327 0)
(-0.0004805 -0.0494279 0)
(0.000948686 -0.0465173 0)
(-0.000119417 -0.0460903 0)
(-0.000838902 -0.0485032 0)
(0.000738551 -0.0498605 0)
(7.22757e-05 -0.0510832 0)
(0.000975457 -0.048627 0)
(0.00200175 -0.0478047 0)
(0.0028652 -0.0490748 0)
(0.000966625 -0.0499979 0)
(0.000481449 -0.0506155 0)
(0.000492285 -0.0481661 0)
(-0.000647695 -0.0467292 0)
(-0.000734411 -0.0466895 0)
(-0.000738562 -0.0485656 0)
(-0.000897154 -0.0502875 0)
(0.000574935 -0.0484115 0)
(9.48419e-05 -0.0477061 0)
(-0.000111826 -0.048018 0)
(0.000422476 -0.0486114 0)
(0.000800414 -0.049128 0)
(-0.000909979 -0.0499224 0)
(-0.000351801 -0.050592 0)
(0.000313549 -0.0504117 0)
(-0.000436161 -0.0525436 0)
(-0.000469639 -0.0553357 0)
(-9.99642e-05 -0.0563464 0)
(-0.00180454 -0.0589144 0)
(-0.000426259 -0.0569991 0)
(-0.00011506 -0.057147 0)
(0.00102003 -0.0541135 0)
(0.00019208 -0.0555656 0)
(-0.000177409 -0.0553574 0)
(-0.00231851 -0.0496146 0)
(-0.0012076 -0.0476099 0)
(0.00251327 -0.0508613 0)
(-6.77902e-05 -0.0516156 0)
(-0.00176784 -0.0528355 0)
(-0.00110761 -0.0522111 0)
(-0.000748338 -0.0520688 0)
(-3.94954e-05 -0.0506744 0)
(0.00267878 -0.0484365 0)
(-0.000892683 -0.0496241 0)
(0.000593803 -0.0496336 0)
(0.00038595 -0.0514103 0)
(0.000366337 -0.052305 0)
(-0.000146283 -0.0510646 0)
(-2.0508e-05 -0.0494684 0)
(0.000613754 -0.0510834 0)
(0.000578801 -0.0502601 0)
(-9.22544e-05 -0.0501298 0)
(0.00132942 -0.0500927 0)
(-0.00135707 -0.0507349 0)
(-0.000486445 -0.0517865 0)
(-0.0021218 -0.0490019 0)
(-0.000658121 -0.0487012 0)
(0.000397997 -0.0462467 0)
(0.00188427 -0.0475637 0)
(0.00127518 -0.0499287 0)
(0.000337099 -0.0503763 0)
(0.000339475 -0.048768 0)
(-0.00236629 -0.0499756 0)
(0.000861047 -0.0479317 0)
(-0.000625153 -0.0495737 0)
(0.00278588 -0.0490563 0)
(0.000600519 -0.0513634 0)
(0.000256322 -0.0505127 0)
(-0.000127339 -0.050365 0)
(0.000390219 -0.0495943 0)
(-4.31788e-05 -0.0488141 0)
(-0.000457225 -0.0476301 0)
(-0.000691038 -0.0468811 0)
(6.39486e-05 -0.046304 0)
(-0.000660191 -0.0460699 0)
(-0.000413639 -0.0455272 0)
(0.000559034 -0.0417784 0)
(0.000650815 -0.0425227 0)
(0.000158522 -0.0451838 0)
(-0.000732108 -0.0473702 0)
(0.00014946 -0.04881 0)
(0.0013034 -0.0502587 0)
(0.00456481 -0.0492264 0)
(-0.000584145 -0.0543968 0)
(0.000306273 -0.0553618 0)
(0.000755159 -0.0525619 0)
(-6.50566e-05 -0.0539313 0)
(-0.000189386 -0.0535596 0)
(-0.00184539 -0.0501395 0)
(-0.000521969 -0.0491699 0)
(-0.000230813 -0.0498243 0)
(0.00084798 -0.050121 0)
(0.000730766 -0.0515875 0)
(-0.000736529 -0.0516934 0)
(-1.42969e-05 -0.0512761 0)
(-0.000690702 -0.0512926 0)
(-0.00049571 -0.051428 0)
(0.000240085 -0.0514714 0)
(0.000204193 -0.0490629 0)
(-0.000278457 -0.0504687 0)
(-0.000288388 -0.050462 0)
(-0.000474645 -0.0507126 0)
(-4.95534e-05 -0.0491029 0)
(0.000355454 -0.0486355 0)
(0.000396748 -0.0501054 0)
(0.000615959 -0.0503023 0)
(-0.000901116 -0.0506462 0)
(-0.00288116 -0.0495949 0)
(9.93823e-05 -0.0485524 0)
(0.000561158 -0.0499966 0)
(-0.00130143 -0.0494628 0)
(-0.00254794 -0.0454875 0)
(-0.00158389 -0.0470496 0)
(7.39827e-05 -0.0511155 0)
(0.000663772 -0.0509337 0)
(0.000314016 -0.0511964 0)
(0.000349974 -0.0498219 0)
(-0.000302209 -0.052622 0)
(0.000522638 -0.0489015 0)
(0.000890847 -0.0514833 0)
(0.00120889 -0.0492685 0)
(0.000287479 -0.0492018 0)
(0.00062578 -0.0498919 0)
(-3.38829e-05 -0.0511239 0)
(-0.000262772 -0.0512054 0)
(-8.90931e-05 -0.0509435 0)
(-0.000208453 -0.0506284 0)
(-0.000256065 -0.0500195 0)
(2.27316e-05 -0.0494113 0)
(-0.000500121 -0.0477373 0)
(-0.000597574 -0.0482781 0)
(0.000617612 -0.0419075 0)
(0.00135501 -0.0425864 0)
(0.00336853 -0.0440043 0)
(0.00238498 -0.0457426 0)
(0.00453663 -0.0476932 0)
(0.000926765 -0.0508343 0)
(0.00037631 -0.0518174 0)
(-0.000161205 -0.0508883 0)
(-0.000266555 -0.0504272 0)
(-0.000745159 -0.0484202 0)
(-0.00246423 -0.046272 0)
(-9.59774e-05 -0.045375 0)
(-0.000789569 -0.0451665 0)
(0.000530237 -0.0478421 0)
(5.93718e-05 -0.0490236 0)
(0.000400788 -0.0493511 0)
(0.000226406 -0.050552 0)
(-0.000877797 -0.0502332 0)
(-0.000574088 -0.050627 0)
(-7.68376e-05 -0.0507399 0)
(0.000159288 -0.0508909 0)
(0.00108355 -0.0506792 0)
(0.000198017 -0.0499927 0)
(-0.000125253 -0.0500113 0)
(-0.000521728 -0.0496898 0)
(-0.000603867 -0.0486268 0)
(-0.000241952 -0.0485893 0)
(-0.000841664 -0.0490342 0)
(-0.000369803 -0.0499102 0)
(-0.000145057 -0.0498129 0)
(0.000702841 -0.0502046 0)
(-0.000975211 -0.047892 0)
(-0.000392086 -0.0493014 0)
(-0.000107821 -0.0463763 0)
(-0.000211672 -0.0473566 0)
(0.000515622 -0.047667 0)
(0.00168093 -0.0471823 0)
(7.46011e-05 -0.0499588 0)
(-1.02455e-05 -0.0503616 0)
(0.00025734 -0.0507566 0)
(-0.000661939 -0.0525258 0)
(-0.000598145 -0.0523801 0)
(0.000198158 -0.0526589 0)
(0.000463536 -0.0512084 0)
(0.000619027 -0.0509342 0)
(0.000559729 -0.0508706 0)
(0.000300799 -0.0515976 0)
(0.000342549 -0.051316 0)
(-0.000604717 -0.0516224 0)
(-1.4322e-05 -0.048916 0)
(-0.000382759 -0.0501875 0)
(-0.000547322 -0.0514607 0)
(-0.000311688 -0.0489335 0)
(-0.0027938 -0.0501064 0)
(-0.00182462 -0.0477342 0)
(0.0024631 -0.0422162 0)
(0.000985374 -0.048604 0)
(0.000939109 -0.0474706 0)
(0.0015038 -0.0470535 0)
(0.00170008 -0.0468341 0)
(0.000815804 -0.0468535 0)
(0.000743385 -0.0458375 0)
(0.000725571 -0.0472419 0)
(0.000457908 -0.0443336 0)
(-0.0015457 -0.0456182 0)
(-0.00109156 -0.0463577 0)
(-0.00181455 -0.0476259 0)
(-0.000308658 -0.0457832 0)
(0.000156562 -0.0455355 0)
(0.000667685 -0.0462873 0)
(-0.000383072 -0.0488006 0)
(-0.000356142 -0.0480673 0)
(2.4968e-05 -0.0488287 0)
(0.000639942 -0.050191 0)
(0.000336325 -0.0492241 0)
(0.000742518 -0.0512614 0)
(-8.58465e-05 -0.0496934 0)
(-0.000275151 -0.0503439 0)
(-0.000479134 -0.0494394 0)
(-0.000101467 -0.0516895 0)
(-0.000664686 -0.0503213 0)
(-4.56023e-05 -0.0503626 0)
(-7.52235e-05 -0.0492643 0)
(0.000333214 -0.0495882 0)
(0.000495317 -0.0495337 0)
(-8.53313e-05 -0.0480929 0)
(-9.32591e-05 -0.0472321 0)
(0.000342942 -0.0480011 0)
(4.11818e-05 -0.0460744 0)
(-0.000388874 -0.0475388 0)
(7.92936e-05 -0.0498943 0)
(-0.000150991 -0.0497144 0)
(0.000559582 -0.0492492 0)
(0.000963432 -0.0501212 0)
(-2.34233e-05 -0.0530268 0)
(0.000792481 -0.0551056 0)
(-0.000347768 -0.0530702 0)
(-0.00044359 -0.0517836 0)
(-0.000445009 -0.0494685 0)
(8.53265e-05 -0.0497222 0)
(-3.01565e-05 -0.0490961 0)
(0.000156163 -0.0496977 0)
(-0.000158942 -0.0501037 0)
(-0.00029785 -0.0466501 0)
(-0.000170797 -0.0479724 0)
(0.00122068 -0.0479263 0)
(0.000369638 -0.0504757 0)
(0.000890754 -0.0515712 0)
(-0.0060926 -0.0508479 0)
(0.00147785 -0.0521336 0)
(0.000548287 -0.0509603 0)
(0.00149505 -0.0517447 0)
(0.000855258 -0.0479825 0)
(0.000488811 -0.0469217 0)
(0.000807858 -0.0452568 0)
(0.000733531 -0.0455172 0)
(0.000476228 -0.0456937 0)
(-8.66916e-05 -0.047141 0)
(-0.00073245 -0.0476134 0)
(-0.000433219 -0.0458214 0)
(-0.000896524 -0.0448343 0)
(-0.000308332 -0.0449771 0)
(-0.000207127 -0.0449289 0)
(0.000219331 -0.0459147 0)
(-0.000274069 -0.0469459 0)
(-0.000641861 -0.0490479 0)
(-0.000520156 -0.0489341 0)
(0.0012443 -0.0485394 0)
(-0.000629284 -0.0462651 0)
(-0.000243314 -0.0480557 0)
(7.31891e-05 -0.05053 0)
(-0.000594007 -0.0488606 0)
(-0.000511208 -0.0491391 0)
(-0.000323506 -0.0492252 0)
(0.000625534 -0.0498414 0)
(0.00071295 -0.0496057 0)
(6.23703e-05 -0.04994 0)
(0.000107967 -0.0502775 0)
(-0.000640502 -0.0486479 0)
(-0.0013456 -0.0464436 0)
(-0.000281806 -0.046474 0)
(0.000373068 -0.0477469 0)
(9.30867e-05 -0.0482491 0)
(-0.000907404 -0.0480771 0)
(-0.00174448 -0.0469893 0)
(0.000453015 -0.0509602 0)
(0.00183247 -0.0499255 0)
(0.000192125 -0.05139 0)
(0.00117052 -0.0527068 0)
(0.0002712 -0.0535594 0)
(-0.000354473 -0.052189 0)
(-9.4081e-05 -0.0519049 0)
(-9.91114e-05 -0.0506211 0)
(0.000123428 -0.0496268 0)
(0.00085998 -0.0499246 0)
(-1.57745e-05 -0.0485543 0)
(-0.000305795 -0.0497244 0)
(-0.000318985 -0.0500348 0)
(-0.000437993 -0.0500068 0)
(0.000442189 -0.0472877 0)
(0.000359542 -0.0479788 0)
(0.00193427 -0.0506276 0)
(-0.00252999 -0.0522302 0)
(-0.000221676 -0.0536659 0)
(0.000410609 -0.0525518 0)
(-4.86733e-05 -0.0517783 0)
(0.000423965 -0.0504406 0)
(-0.000221416 -0.0485449 0)
(0.000507076 -0.0486495 0)
(0.00102616 -0.0470694 0)
(0.000978618 -0.0477171 0)
(0.000542721 -0.0467119 0)
(-8.62202e-05 -0.0463689 0)
(-0.00150181 -0.0473977 0)
(-0.000413189 -0.0470532 0)
(-0.000594396 -0.0472498 0)
(-0.000300625 -0.0477872 0)
(-0.000405456 -0.047537 0)
(-0.000454651 -0.0473905 0)
(0.000272069 -0.0458252 0)
(0.000441452 -0.0457688 0)
(-8.88144e-05 -0.0463217 0)
(-2.42917e-05 -0.0458549 0)
(-0.000627281 -0.0452944 0)
(0.000963149 -0.0465722 0)
(0.000708452 -0.0482124 0)
(-0.000176801 -0.0479404 0)
(-3.53255e-05 -0.0488549 0)
(7.28892e-05 -0.0491371 0)
(0.000889739 -0.0493561 0)
(0.000527903 -0.0492992 0)
(0.000407101 -0.04959 0)
(-0.000805774 -0.0488983 0)
(-0.00084793 -0.046583 0)
(-0.000353579 -0.0441779 0)
(0.000143984 -0.0469756 0)
(-0.0029088 -0.0458787 0)
(-0.00179353 -0.0478774 0)
(-0.000847106 -0.0503454 0)
(-0.00108672 -0.0522102 0)
(0.00111424 -0.0517529 0)
(0.00127245 -0.0508537 0)
(-0.000291871 -0.0517468 0)
(0.00095102 -0.0525861 0)
(-0.000108728 -0.0520817 0)
(-0.000420118 -0.0520371 0)
(0.000114678 -0.0516337 0)
(0.000297419 -0.0504902 0)
(0.000374625 -0.0497529 0)
(8.85387e-05 -0.0487447 0)
(-0.00162288 -0.0506877 0)
(-0.00085152 -0.0496387 0)
(-0.00072254 -0.0480118 0)
(-0.0013345 -0.0504443 0)
(0.000802133 -0.0519396 0)
(5.2087e-05 -0.0525755 0)
(0.000210725 -0.0526023 0)
(0.000351773 -0.0521703 0)
(-0.000170804 -0.0512415 0)
(-6.91712e-05 -0.05102 0)
(-0.000957203 -0.0507894 0)
(-8.11627e-05 -0.0494862 0)
(0.00206753 -0.0485917 0)
(0.000880539 -0.0503272 0)
(0.0012121 -0.0475443 0)
(0.000503238 -0.0486121 0)
(0.000375577 -0.0474206 0)
(0.000104297 -0.0469292 0)
(-0.000334425 -0.0480036 0)
(-0.000598224 -0.047629 0)
(-0.00104529 -0.0481339 0)
(-0.00112476 -0.0476009 0)
(-0.000478385 -0.0482986 0)
(0.0011515 -0.0483547 0)
(0.00146134 -0.0456079 0)
(0.000883613 -0.0443376 0)
(0.00011506 -0.045808 0)
(-0.000383215 -0.0458938 0)
(0.00023581 -0.0463261 0)
(8.90301e-05 -0.0476433 0)
(-0.00106264 -0.047747 0)
(-0.00052523 -0.0488072 0)
(-0.000296466 -0.0494448 0)
(0.000955539 -0.0509764 0)
(0.000535166 -0.0516664 0)
(0.000125422 -0.0482477 0)
(-0.000159183 -0.0462685 0)
(-0.000191935 -0.0452966 0)
(-0.00128179 -0.0440982 0)
(-0.00059781 -0.0430633 0)
(-0.00133713 -0.0452449 0)
(-0.000245101 -0.0468447 0)
(-0.000980608 -0.0483271 0)
(-0.00105709 -0.047994 0)
(-0.000212183 -0.0513569 0)
(-0.000312848 -0.0517474 0)
(0.000281558 -0.0525061 0)
(-0.000277393 -0.0526307 0)
(-0.000279869 -0.0521934 0)
(0.000923152 -0.0485302 0)
(0.000580334 -0.0486451 0)
(-0.00015895 -0.0504681 0)
(-0.000278134 -0.0497971 0)
(-0.000697759 -0.0476552 0)
(-0.00122751 -0.0475884 0)
(-0.00049991 -0.0481466 0)
(-0.00141422 -0.0478335 0)
(-0.000974345 -0.0493012 0)
(-0.00047064 -0.0499859 0)
(-0.000534389 -0.0509013 0)
(7.09675e-05 -0.0515051 0)
(-0.000117174 -0.0534348 0)
(-0.000637796 -0.0538702 0)
(0.000451979 -0.0545585 0)
(0.000691109 -0.0544994 0)
(0.000117725 -0.0556449 0)
(-0.000137465 -0.0536276 0)
(-0.000723189 -0.052649 0)
(-0.000446343 -0.0524386 0)
(-0.000624425 -0.0510174 0)
(4.90207e-05 -0.0486404 0)
(-0.000143814 -0.0494553 0)
(0.000522461 -0.0478161 0)
(0.00052374 -0.0474843 0)
(0.000424529 -0.0499708 0)
(0.00031217 -0.0504706 0)
(0.000285212 -0.0508806 0)
(0.000217304 -0.0510975 0)
(-0.000381323 -0.0509676 0)
(-0.000504257 -0.0500917 0)
(-0.00060152 -0.0499817 0)
(-0.000140984 -0.0488318 0)
(0.00104249 -0.0465657 0)
(-3.47268e-05 -0.0446226 0)
(0.000620038 -0.0441817 0)
(-0.00158043 -0.0453355 0)
(0.00218079 -0.0452878 0)
(0.000167303 -0.04643 0)
(-5.89302e-05 -0.0484805 0)
(0.000634151 -0.0485046 0)
(0.000245396 -0.0482437 0)
(0.000689299 -0.0485239 0)
(0.00149928 -0.0484493 0)
(-0.00014912 -0.047161 0)
(-0.00136298 -0.0453542 0)
(-0.0023363 -0.046615 0)
(-0.00115942 -0.048038 0)
(-0.00111394 -0.0492511 0)
(-0.000282637 -0.0498146 0)
(-0.00124938 -0.0499681 0)
(0.000313975 -0.0500251 0)
(-0.000245137 -0.0489851 0)
(-0.000128411 -0.0492283 0)
(0.000128375 -0.0504383 0)
(-0.00107281 -0.0507449 0)
(0.000105281 -0.0468219 0)
(0.00019647 -0.0475758 0)
(0.000172612 -0.0485338 0)
(-4.36315e-05 -0.0465368 0)
(0.00073735 -0.0459931 0)
(6.95719e-05 -0.0475974 0)
(0.000139022 -0.0473762 0)
(-0.000299235 -0.0477006 0)
(-0.00110264 -0.0482984 0)
(-0.000232844 -0.0513005 0)
(-0.000500943 -0.0521017 0)
(-0.000984526 -0.0515285 0)
(-0.000680516 -0.0512542 0)
(-0.000408808 -0.0563883 0)
(0.000785 -0.052771 0)
(1.75663e-05 -0.0544558 0)
(0.000474601 -0.0553493 0)
(0.00032887 -0.0547969 0)
(-0.000364202 -0.0541549 0)
(-0.000333945 -0.0559052 0)
(0.000138126 -0.0526189 0)
(-0.000429256 -0.051705 0)
(-0.000859815 -0.0506393 0)
(-0.000304153 -0.0502197 0)
(1.54573e-05 -0.0505438 0)
(0.000285062 -0.0522005 0)
(-0.000124563 -0.049312 0)
(3.46299e-05 -0.0506263 0)
(0.000238455 -0.051035 0)
(0.000303098 -0.0529355 0)
(-0.000624821 -0.0530379 0)
(-0.00035668 -0.0507825 0)
(-0.00118102 -0.0486405 0)
(-0.000325013 -0.04856 0)
(-3.29628e-06 -0.0467493 0)
(-0.000425445 -0.0469473 0)
(0.000434183 -0.046835 0)
(-0.000980105 -0.0463608 0)
(0.000178991 -0.0481779 0)
(0.00050798 -0.0491267 0)
(0.00149331 -0.0482371 0)
(0.000533045 -0.0462587 0)
(1.77932e-06 -0.0475637 0)
(0.000366134 -0.0490752 0)
(0.000783909 -0.0495529 0)
(-0.000931292 -0.048794 0)
(0.000494549 -0.0479396 0)
(0.00167437 -0.0478287 0)
(-0.00071468 -0.051202 0)
(-0.000485037 -0.0531119 0)
(-0.000504747 -0.0530669 0)
(0.000281366 -0.0523308 0)
(0.000553367 -0.0516018 0)
(0.000211971 -0.0521114 0)
(0.000432852 -0.0509086 0)
(3.79884e-05 -0.0500293 0)
(0.000468904 -0.045371 0)
(0.000814914 -0.0447978 0)
(0.000652524 -0.0442322 0)
(-0.000445686 -0.0467677 0)
(-0.000613646 -0.0463267 0)
(0.0013014 -0.0453836 0)
(-0.00102948 -0.0453573 0)
(-0.000707055 -0.0478108 0)
(-0.00073323 -0.0483277 0)
(0.000225186 -0.0480204 0)
(0.000500135 -0.0501796 0)
(-0.000458227 -0.0519149 0)
(-0.0013595 -0.05133 0)
(-0.000138673 -0.0520008 0)
(0.000517563 -0.0541577 0)
(-0.000187984 -0.0550459 0)
(0.000930656 -0.0547862 0)
(0.00160032 -0.0545672 0)
(0.000687778 -0.055205 0)
(-0.000859313 -0.0540291 0)
(0.000198181 -0.0556805 0)
(-0.000966136 -0.0536961 0)
(-0.00113832 -0.0540896 0)
(-0.00117584 -0.0521626 0)
(-0.000553398 -0.0532978 0)
(-0.000496777 -0.0527179 0)
(-8.33604e-05 -0.0512455 0)
(0.000374479 -0.0517656 0)