/*--------------------------------*- C++ -*----------------------------------*\
  =========                 |
  \\      /  F ield         | OpenFOAM: The Open Source CFD Toolbox
   \\    /   O peration     | Website:  https://openfoam.org
    \\  /    A nd           | Version:  12
     \\/     M anipulation  |
\*---------------------------------------------------------------------------*/
FoamFile
{
    format      ascii;
    class       IOPosition;
    location    "0.2/lagrangian/cloud";
    object      positions;
}
// * * * * * * * * * * * * * * * * * * * * * * * * * * * * * * * * * * * * * //

4220
(
(2.29779e-07 0.5 0.5 1.85439e-09) 0 7376 2
(2.29792e-07 0.5 0.5 1.6869e-09) 0 7376 2
(0.0085199 0.205294 0.49574 0.290446) 0 7375 2
(0.0021084 0.0311051 0.498946 0.467841) 0 7375 2
(0.118801 0.0996612 0.440599 0.340938) 0 7375 2
(0.403724 0.298138 0.246745 0.0513924) 1 2 1
(0.409808 0.295096 0.215162 0.0799339) 1 2 1
(0.217585 0.391208 0.263425 0.127783) 2 2 1
(0.292868 0.353566 0.0723641 0.281202) 2 4 1
(0.594355 0.141191 0.202822 0.0616319) 3 7379 2
(0.462331 0.268834 0.244408 0.0244263) 4 7380 1
(0.549364 0.225318 0.178958 0.0463597) 5 7381 1
(0.64123 0.177106 0.179385 0.00227961) 6 7382 2
(0.529055 0.235472 0.201527 0.033945) 7 14 1
(0.384602 0.307699 0.167815 0.139884) 9 16 1
(0.155339 0.232504 0.42233 0.189826) 10 20 2
(0.679555 0.00175845 0.160223 0.158464) 11 22 2
(0.648165 0.175918 0.173122 0.0027956) 12 7388 1
(0.143283 0.428359 0.231637 0.196721) 12 24 1
(0.424258 0.287871 0.256613 0.0312576) 13 26 1
(0.409417 0.208783 0.0865084 0.295291) 15 28 2
(0.489807 0.245018 0.010079 0.255097) 16 33 1
(0.34435 0.247132 0.0806925 0.327825) 17 35 1
(0.436111 0.258354 0.0235907 0.281945) 18 37 1
(0.587937 0.206031 0.0305355 0.175496) 19 39 2
(0.115709 0.442145 0.0907015 0.351444) 19 38 1
(0.456868 0.0412444 0.271566 0.230322) 20 7396 2
(0.466936 0.266532 0.240313 0.026219) 21 42 1
(0.262843 0.338451 0.0301276 0.368579) 23 44 2
(0.42301 0.288495 0.120422 0.168073) 24 46 1
(0.285367 0.357316 0.0249465 0.33237) 25 50 1
(0.44994 0.0140517 0.260978 0.27503) 27 52 2
(0.0836158 0.258908 0.199284 0.458192) 28 54 2
(0.44442 0.27779 0.120599 0.157191) 28 56 1
(0.666475 0.0414856 0.166763 0.125277) 29 58 2
(0.583201 0.208399 0.148177 0.0602225) 30 61 2
(0.414385 0.236792 0.0560154 0.292808) 31 60 2
(0.225777 0.387111 0.142928 0.244183) 31 62 1
(0.0439456 0.478027 0.33618 0.141847) 33 64 1
(0.198275 0.400862 0.120515 0.280347) 34 68 1
(0.287196 0.356402 0.0577334 0.298669) 35 70 1
(0.462698 0.143949 0.268651 0.124703) 36 7412 2
(0.448495 0.275752 0.0126349 0.263118) 37 7413 1
(0.429392 0.285304 0.0798869 0.205417) 38 7414 1
(0.801744 0.0991281 0.0921462 0.00698193) 39 7415 1
(0.967627 0.00565705 0.0105296 0.0161866) 40 81 1
(0.160638 0.35492 0.064761 0.419681) 42 82 2
(0.643984 0.178008 0.140213 0.0377955) 43 87 2
(0.718486 0.140757 0.0287052 0.112052) 44 89 2
(0.108891 0.445554 0.161481 0.284074) 44 88 1
(0.538955 0.230522 0.0668829 0.163639) 45 90 1
(0.266259 0.36687 0.114546 0.252324) 47 95 2
(0.189991 0.0346882 0.370316 0.405004) 48 94 2
(0.361132 0.0419412 0.319434 0.277493) 48 96 2
(0.86961 0.0651948 0.0214895 0.0437052) 49 96 1
(0.0876633 0.276236 0.456168 0.179933) 49 98 2
(0.506175 0.108903 0.246912 0.138009) 50 7426 2
(0.470833 0.264584 0.0384847 0.226099) 51 7427 1
(0.40339 0.298305 0.0543338 0.243971) 52 7428 1
(0.529181 0.235409 0.204263 0.0311463) 53 106 1
(0.891854 0.0264804 0.0275924 0.0540728) 55 111 1
(0.384993 0.307503 0.00429604 0.303207) 57 115 2
(0.260412 0.0294766 0.340317 0.369794) 58 114 2
(0.13302 0.0691738 0.43349 0.364316) 58 116 2
(0.240629 0.153033 0.226653 0.379686) 59 119 1
(0.269293 0.364008 0.00134561 0.365353) 60 121 1
(0.307375 0.271926 0.0743864 0.346312) 61 120 2
(0.437637 0.281182 0.129851 0.151331) 61 122 1
(0.559483 0.220259 0.00493123 0.215327) 62 7438 1
(0.436191 0.281904 0.147252 0.134652) 63 7439 1
(0.44589 0.277055 0.0725158 0.204539) 64 7440 1
(0.854233 0.0450965 0.0277871 0.0728836) 65 131 1
(0.166178 0.416911 0.289921 0.12699) 67 132 1
(0.012103 0.401074 0.493949 0.0928748) 67 134 2
(0.189743 0.302022 0.405129 0.103107) 68 136 2
(2.29962e-07 0.5 0.5 3.6379e-09) 75 7451 2
(2.29969e-07 0.5 0.5 3.27035e-09) 75 7451 2
(0.43526 0.28237 0.197181 0.0851891) 0 7375 1
(2.18374e-07 0.232796 0.267204 0.5) 0 7376 1
(0.127319 0.43634 0.150367 0.285974) 0 0 1
(0.853236 0.0445263 0.0288555 0.0733819) 0 7376 1
(0.585501 0.00332818 0.207249 0.203921) 0 0 2
(0.496438 0.137424 0.251781 0.114357) 76 3 1
(0.552371 0.0202636 0.203551 0.223815) 77 151 2
(0.298548 0.350726 0.234397 0.116329) 78 153 1
(0.389822 0.165041 0.305089 0.140048) 78 7 1
(0.309938 0.345031 0.0850457 0.259985) 79 9 2
(0.215359 0.39232 0.0027631 0.389557) 80 11 2
(0.17241 0.169241 0.413795 0.244554) 81 13 1
(0.273842 0.206796 0.363079 0.156283) 82 15 1
(0.202118 0.334723 0.0642177 0.398941) 83 163 2
(0.471075 0.139928 0.264462 0.124535) 83 165 2
(0.248523 0.100459 0.375738 0.27528) 84 167 2
(0.270673 0.364664 0.103456 0.261207) 86 171 1
(0.513386 0.243307 0.22356 0.0197468) 87 173 1
(0.77521 0.112395 0.0295729 0.082822) 88 173 1
(0.398117 0.300941 0.242222 0.0587193) 89 175 1
(0.610646 0.115101 0.0795761 0.194677) 90 177 2
(0.165057 0.225157 0.192314 0.417472) 91 179 2
(0.195528 0.21788 0.402236 0.184356) 91 181 2
(0.207451 0.396274 0.0942951 0.301979) 93 185 1
(0.0223504 0.488825 0.195971 0.292854) 95 187 1
(0.0333626 0.483319 0.139662 0.343657) 96 189 1
(0.207576 0.396212 0.0336439 0.362568) 97 191 1
(0.346007 0.326996 0.244999 0.0819978) 98 47 2
(0.30109 0.349455 0.290421 0.0590346) 99 49 2
(0.739707 0.130146 0.115731 0.0144152) 99 198 2
(0.188604 0.0865741 0.405698 0.319124) 99 197 2
(0.375615 0.284546 0.0276459 0.312192) 100 200 1
(0.32839 0.335805 0.0868166 0.248989) 101 202 2
(0.160019 0.0759505 0.34404 0.41999) 102 201 2
(0.488928 0.255536 0.0529623 0.202574) 103 205 1
(0.462041 0.213512 0.268979 0.0554673) 105 61 1
(0.282637 0.191534 0.358681 0.167147) 106 63 1
(0.491226 0.254387 0.2403 0.0140866) 107 65 2
(0.270748 0.364626 0.163833 0.200793) 107 213 1
(0.209745 0.393458 0.00167014 0.395128) 109 215 2
(0.0405185 0.348879 0.479741 0.130862) 109 217 2
(0.338409 0.149263 0.330796 0.181533) 110 219 2
(0.566784 0.0796962 0.216608 0.136912) 111 221 2
(0.302704 0.0602795 0.348648 0.288369) 113 77 1
(0.17349 0.413255 0.0949459 0.318309) 115 227 1
(0.368789 0.315606 0.20568 0.109926) 116 83 2
(0.618186 0.190907 0.00357691 0.18733) 117 85 2
(0.853964 0.0730182 0.0090221 0.0639961) 119 235 1
(0.311543 0.323385 0.0208435 0.344228) 120 237 2
(0.081981 0.204689 0.25432 0.459009) 120 240 1
(0.000265226 0.47749 0.0223773 0.499867) 121 242 1
(0.226061 0.38697 0.20188 0.18509) 197 244 2
(0.0525945 0.473703 0.347636 0.126066) 198 246 2
(0.101602 0.125776 0.449199 0.323422) 198 246 1
(0.0731694 0.463415 0.0523704 0.411045) 199 248 2
(0.539841 0.23008 0.229268 0.00081198) 125 101 2
(0.27131 0.364345 0.0225099 0.341835) 126 249 1
(0.181545 0.409228 0.0337001 0.375528) 127 251 1
(0.195847 0.402077 0.225036 0.177041) 128 107 2
(0.347443 0.326279 0.0433988 0.28288) 129 255 1
(0.248792 0.116645 0.375604 0.258959) 129 257 2
(0.469028 0.0538541 0.265486 0.211632) 130 259 2
(0.401171 0.0271643 0.299414 0.27225) 131 261 2
(0.363181 0.0318721 0.286538 0.31841) 132 264 1
(0.26 0.180906 0.189094 0.37) 133 266 1
(0.195616 0.264169 0.138023 0.402192) 134 268 1
(0.20406 0.280517 0.117454 0.39797) 135 270 1
(0.142629 0.428686 0.390903 0.0377824) 137 271 1
(0.421782 0.289109 0.0190775 0.270031) 137 273 1
(0.617753 0.138837 0.191123 0.0522867) 138 127 1
(0.911724 0.0441378 0.0209686 0.0231693) 139 129 2
(0.367702 0.182097 0.134052 0.316149) 140 277 2
(0.45194 0.168812 0.105218 0.27403) 141 279 2
(2.29879e-07 0.5 0.5 4.39004e-09) 150 7452 2
(2.29889e-07 0.5 0.5 4.05307e-09) 150 7452 2
(0.228373 0.385814 0.0253373 0.360476) 75 7451 2
(2.29898e-07 0.5 0.14379 0.35621) 150 7452 2
(0.440954 0.279523 0.0936454 0.185878) 75 1 2
(0.242527 0.378737 0.199114 0.179623) 75 1 2
(0.535906 0.232047 0.0778955 0.154151) 75 1 2
(0.760024 0.119988 0.0277958 0.0921924) 75 1 2
(0.267581 0.299384 0.36621 0.0668256) 75 149 2
(0.0679856 0.466007 0.346751 0.119256) 76 152 2
(0.232572 0.383714 0.303092 0.0806219) 152 154 2
(0.310547 0.344726 0.309313 0.035413) 153 156 2
(0.105216 0.447392 0.0788225 0.368569) 154 304 1
(0.200059 0.39997 0.0226231 0.377347) 155 306 1
(0.0179344 0.491033 0.122019 0.369014) 156 308 1
(0.274372 0.362814 0.221772 0.141042) 156 310 1
(0.24822 0.37589 0.0184149 0.357475) 157 312 1
(0.206165 0.396918 0.115664 0.281253) 158 314 1
(0.0660894 0.466955 0.456559 0.0103964) 160 316 1
(0.177367 0.383297 0.0280202 0.411317) 161 318 2
(0.600749 0.199626 0.0902362 0.109389) 162 323 2
(0.627984 0.186008 0.139179 0.0468293) 163 324 1
(0.625795 0.0980063 0.187102 0.0890961) 164 178 1
(0.750309 0.124846 0.0696592 0.0551865) 165 326 1
(0.215761 0.330934 0.061186 0.39212) 166 328 2
(0.238422 0.380789 0.248237 0.132553) 167 184 2
(0.598761 0.20062 0.100086 0.100534) 168 186 2
(0.482727 0.258636 0.166212 0.0924247) 169 334 1
(0.0554061 0.472297 0.221997 0.2503) 169 336 1
(0.442638 0.278681 0.236448 0.0422336) 170 338 1
(0.768206 0.115897 0.0540941 0.061803) 171 338 1
(0.172499 0.114059 0.413751 0.299692) 171 340 2
(0.152934 0.38959 0.0339429 0.423533) 172 343 1
(0.254148 0.346745 0.0261806 0.372926) 173 345 1
(0.255855 0.283001 0.089072 0.372073) 174 347 1
(0.24712 0.174194 0.202246 0.37644) 175 349 1
(0.0433263 0.478337 0.381226 0.0971111) 177 350 1
(0.231535 0.384232 0.268279 0.115954) 177 352 1
(0.330864 0.334568 0.331385 0.0031832) 178 354 1
(0.338264 0.160688 0.330868 0.17018) 179 208 1
(0.462048 0.150758 0.268976 0.118218) 180 210 1
(0.27429 0.0441748 0.362855 0.31868) 181 212 1
(0.229976 0.385012 0.156385 0.228627) 182 362 1
(0.24033 0.379835 0.337267 0.0425678) 184 364 1
(0.258375 0.370812 0.133913 0.236899) 185 368 1
(0.250547 0.374727 0.334278 0.0404483) 187 224 2
(0.213134 0.393433 0.140232 0.253201) 188 226 2
(0.180432 0.327778 0.409784 0.0820056) 189 228 1
(0.00727662 0.0761619 0.496362 0.4202) 115 229 2
(0.0565076 0.205703 0.471746 0.266043) 191 232 1
(0.436743 0.281629 0.084094 0.197535) 192 234 2
(0.540321 0.22984 0.20609 0.0237498) 193 382 1
(0.424358 0.287821 0.152703 0.135118) 194 387 2
(0.137395 0.431303 0.317376 0.113926) 270 389 2
(0.246417 0.376792 0.0141738 0.362618) 271 537 1
(0.240522 0.379739 0.186812 0.192927) 271 539 1
(0.359298 0.320351 0.0459984 0.274353) 272 541 1
(0.261408 0.369296 0.181856 0.18744) 273 543 1
(0.131006 0.434497 0.38124 0.0532576) 200 396 1
(0.418692 0.290654 0.143499 0.147155) 200 398 1
(0.449041 0.183185 0.275479 0.0922943) 201 252 1
(0.31258 0.258232 0.34371 0.0854785) 202 254 1
(0.686759 0.156621 0.0992037 0.057417) 203 405 2
(0.421301 0.289349 0.228238 0.061111) 204 407 2
(0.600151 0.199924 0.116802 0.0831221) 205 409 2
(0.677583 0.0356433 0.125565 0.161209) 206 408 2
(0.457174 0.0915709 0.179842 0.271413) 207 410 2
(0.314716 0.0262959 0.316346 0.342642) 208 412 2
(0.231611 0.384194 0.112436 0.271758) 209 417 2
(0.217091 0.391455 0.357766 0.033689) 210 419 2
(0.151565 0.0893439 0.424217 0.334873) 211 420 2
(0.0168956 0.484213 0.491552 0.0073389) 212 422 2
(0.402297 0.298852 0.0174799 0.281372) 213 424 1
(0.807545 0.0509553 0.0452723 0.0962276) 214 427 1
(0.450282 0.246189 0.0286701 0.274859) 215 429 1
(2.29879e-07 0.5 0.5 4.86331e-09) 225 7453 2
(2.29889e-07 0.5 0.5 4.56963e-09) 225 7453 2
(0.189141 0.40543 0.393636 0.0117939) 150 150 2
(2.29898e-07 0.5 0.153335 0.346665) 225 7453 2
(0.452665 0.273668 0.165837 0.107831) 150 150 2
(0.519364 0.240318 0.210543 0.0297748) 150 150 2
(0.419863 0.290069 0.191629 0.0984394) 150 150 2
(0.512392 0.227755 0.243804 0.0160486) 150 150 1
(0.52329 0.238355 0.108965 0.12939) 150 298 1
(0.053827 0.407131 0.065955 0.473086) 151 298 2
(0.268796 0.267307 0.0982955 0.365602) 151 301 1
(0.113825 0.344829 0.443088 0.0982585) 227 303 1
(0.200019 0.268796 0.39999 0.131195) 228 305 1
(0.915849 0.00184501 0.0420757 0.0402307) 229 307 1
(0.72232 0.13884 0.0419383 0.0969015) 230 457 1
(0.394632 0.102911 0.302684 0.199773) 231 311 1
(0.308503 0.230291 0.345749 0.115458) 232 313 1
(0.2245 0.241166 0.38775 0.146584) 233 315 1
(0.238309 0.202177 0.380846 0.178668) 234 317 1
(0.511646 0.0200385 0.244177 0.224139) 235 319 1
(0.0779185 0.252273 0.461041 0.208768) 236 469 2
(0.196404 0.0738499 0.327948 0.401798) 238 471 2
(0.230311 0.384844 0.073092 0.311752) 239 476 2
(0.206595 0.396703 0.00603095 0.390672) 240 478 2
(0.194924 0.402538 0.222336 0.180202) 240 477 1
(0.580097 0.209951 0.19218 0.0177713) 241 479 1
(0.192689 0.403655 0.305077 0.0985782) 242 482 2
(0.250994 0.374503 0.0837128 0.29079) 243 484 2
(0.0705925 0.105953 0.358751 0.464704) 244 483 2
(0.0965177 0.415921 0.451741 0.0358197) 244 485 2
(0.393175 0.0336316 0.269781 0.303412) 245 488 1
(0.269425 0.269172 0.096115 0.365287) 246 490 1
(0.288942 0.355529 0.29585 0.0596789) 247 492 2
(0.251933 0.345729 0.0283041 0.374034) 248 494 1
(0.276679 0.203114 0.158546 0.36166) 249 496 1
(0.276176 0.0820637 0.279848 0.361912) 250 498 1
(0.580357 0.0798236 0.209821 0.129998) 251 499 2
(0.485037 0.129316 0.257481 0.128165) 252 353 1
(0.510994 0.244503 0.0895586 0.154945) 253 355 2
(0.304564 0.347718 0.0523229 0.295395) 254 503 1
(0.160307 0.419846 0.312367 0.107479) 254 505 1
(0.272197 0.363902 0.357528 0.00637321) 255 507 1
(0.151868 0.424066 0.30318 0.120886) 257 363 2
(0.145068 0.343312 0.427466 0.0841544) 258 365 1
(0.0103395 0.237096 0.49483 0.257734) 259 367 1
(0.0162933 0.491853 0.442771 0.0490821) 260 517 1
(0.0491499 0.475425 0.021845 0.45358) 262 519 1
(0.0424748 0.478763 0.476698 0.00206493) 263 375 2
(0.004715 0.032516 0.465127 0.497643) 189 374 2
(0.129518 0.0928 0.435241 0.342441) 264 377 1
(0.0432444 0.139456 0.478378 0.338922) 265 379 1
(0.0954947 0.452253 0.415031 0.0372218) 267 383 2
(0.0868912 0.456554 0.0135246 0.44303) 267 531 1
(0.479911 0.0461983 0.260045 0.213846) 268 533 2
(0.00371166 0.100634 0.39751 0.498144) 269 536 1
(0.179068 0.108277 0.410466 0.302188) 345 538 1
(0.388747 0.305626 0.229461 0.076165) 346 688 1
(0.24127 0.379365 0.15554 0.223825) 348 690 1
(0.145808 0.427096 0.398946 0.0281499) 274 546 2
(0.763773 0.118114 0.0661002 0.0520134) 275 545 1
(0.523713 0.238143 0.215971 0.0221721) 276 401 2
(0.37165 0.314175 0.15596 0.158215) 277 403 2
(0.664152 0.033301 0.134623 0.167924) 278 551 2
(0.377301 0.31135 0.0677178 0.243632) 279 556 2
(0.353656 0.323172 0.029951 0.293221) 280 558 2
(0.251089 0.219039 0.155417 0.374455) 281 557 2
(0.088841 0.455579 0.289972 0.165607) 282 559 1
(0.0609899 0.469505 0.366513 0.102992) 283 561 1
(0.134775 0.149761 0.282851 0.432612) 284 563 2
(0.0739558 0.110122 0.3529 0.463022) 285 565 2
(0.169759 0.0460001 0.36912 0.415121) 286 567 2
(0.590731 0.155915 0.204634 0.0487199) 287 571 2
(0.852629 0.0410332 0.0736853 0.0326522) 288 425 1
(0.640449 0.179775 0.103091 0.0766844) 289 427 2
(0.41046 0.0686458 0.226124 0.29477) 290 575 2
(2.2979e-07 0.5 0.5 5.11273e-09) 300 7454 2
(2.29802e-07 0.5 0.5 4.84261e-09) 300 7454 2
(0.159838 0.420081 0.393567 0.0265138) 225 299 2
(2.29814e-07 0.5 0.161481 0.338519) 300 7454 2
(0.427504 0.286248 0.0574792 0.228769) 225 299 2
(0.383153 0.308424 0.130039 0.178385) 225 299 2
(0.423691 0.288154 0.149914 0.13824) 225 299 2
(0.613614 0.193193 0.146741 0.0464516) 225 299 2
(0.520508 0.239746 0.178784 0.0609621) 225 447 1
(0.257674 0.234629 0.136534 0.371163) 226 447 2
(0.379844 0.237037 0.0730415 0.310078) 226 450 1
(0.00118482 0.499408 0.146504 0.352903) 302 452 2
(0.0689734 0.465513 0.155533 0.309981) 303 454 2
(0.337432 0.331284 0.185511 0.145773) 304 456 2
(0.618734 0.190633 0.0465714 0.144061) 305 604 1
(0.140537 0.429731 0.268463 0.161268) 306 606 1
(0.266013 0.366993 0.133581 0.233413) 307 608 1
(0.186132 0.307959 0.406934 0.0989748) 308 464 1
(0.188099 0.283112 0.40595 0.122838) 309 466 1
(0.167163 0.27111 0.416419 0.145309) 310 468 1
(0.976788 0.00929856 0.0116062 0.00230766) 311 470 1
(0.561394 0.0499456 0.169358 0.219303) 312 621 1
(0.251768 0.0095846 0.374116 0.364532) 313 622 2
(0.0268698 0.0915397 0.395025 0.486565) 315 624 2
(0.0814099 0.202398 0.459295 0.256897) 315 626 2
(0.116116 0.167911 0.27403 0.441942) 316 629 1
(0.093724 0.335796 0.453138 0.117342) 392 631 1
(0.0200711 0.489964 0.349235 0.14073) 318 633 2
(0.193082 0.00387117 0.399588 0.403459) 319 632 2
(0.0868506 0.198461 0.456575 0.258113) 319 634 2
(0.296006 0.00813413 0.343863 0.351997) 320 637 1
(0.627544 0.0748374 0.11139 0.186228) 321 639 1
(0.871183 0.0476078 0.0168006 0.0644083) 322 641 1
(0.590693 0.0531607 0.151493 0.204654) 323 643 1
(0.531228 0.00848463 0.234386 0.225902) 324 644 2
(0.214071 0.111833 0.392965 0.281131) 325 646 2
(0.328743 0.335629 0.218896 0.116732) 327 651 2
(0.042036 0.430452 0.0485302 0.478982) 328 653 1
(0.295499 0.35225 0.161116 0.191134) 329 655 2
(0.114729 0.442635 0.246351 0.196285) 329 654 1
(0.409585 0.135524 0.295208 0.159684) 330 508 1
(0.359728 0.320136 0.106125 0.214012) 331 510 2
(0.105759 0.44712 0.305819 0.141301) 257 512 2
(0.10563 0.447185 0.252992 0.194192) 258 514 2
(0.240004 0.379998 0.249574 0.130424) 259 516 2
(0.193743 0.37596 0.0271687 0.403129) 260 518 1
(0.0525566 0.234281 0.23944 0.473722) 261 520 1
(0.0484638 0.00800681 0.467761 0.475768) 262 522 1
(0.0606521 0.469674 0.460838 0.00883564) 338 672 1
(0.0917095 0.013052 0.441093 0.454145) 265 525 2
(0.0906165 0.0253789 0.429313 0.454692) 266 527 2
(0.117609 0.441195 0.370935 0.0702607) 341 678 1
(0.277957 0.17609 0.361022 0.184932) 342 680 2
(0.457051 0.0696406 0.201834 0.271475) 343 683 1
(0.250975 0.0105318 0.374512 0.36398) 344 684 2
(0.201184 0.0387463 0.399408 0.360662) 420 687 1
(0.239395 0.380302 0.0303046 0.349998) 422 837 1
(0.0543826 0.472809 0.129272 0.343536) 423 693 2
(0.563068 0.193377 0.0250893 0.218466) 349 695 1
(0.767817 0.116091 0.0947776 0.0213137) 350 696 1
(0.550656 0.101319 0.224672 0.123353) 351 550 1
(0.558618 0.186093 0.220691 0.0345977) 352 552 1
(0.571873 0.214063 0.136004 0.0780595) 353 700 1
(0.275608 0.362196 0.0304732 0.331723) 354 705 2
(0.28302 0.35849 0.0121459 0.346344) 355 707 2
(0.212053 0.0570724 0.336901 0.393974) 356 706 2
(0.0954179 0.121649 0.452291 0.330642) 356 708 2
(0.461975 0.0138562 0.269012 0.255156) 357 710 2
(0.789448 0.039042 0.105276 0.066234) 358 712 2
(0.612936 0.100372 0.0931599 0.193532) 359 715 1
(0.199191 0.317453 0.0829516 0.400404) 360 717 1
(0.428964 0.119367 0.166151 0.285518) 361 719 1
(0.358429 0.320786 0.28389 0.0368957) 363 720 1
(0.0615278 0.469236 0.140939 0.328297) 363 722 1
(0.52538 0.23731 0.0464073 0.190902) 364 724 1
(2.29962e-07 0.5 0.5 4.96985e-09) 375 7455 2
(2.29969e-07 0.5 0.5 4.69274e-09) 375 7455 2
(0.162449 0.418776 0.399889 0.0188866) 300 448 2
(2.29977e-07 0.5 0.167269 0.332731) 375 7455 2
(0.487676 0.256162 0.179767 0.0763954) 300 448 2
(0.369808 0.315096 0.0991135 0.215983) 300 448 2
(0.465897 0.267052 0.221383 0.0456682) 300 448 2
(0.567099 0.21645 0.0186155 0.197835) 300 448 2
(0.339664 0.314428 0.330168 0.0157399) 300 596 2
(0.224314 0.111147 0.276696 0.387843) 301 596 2
(0.348879 0.0740322 0.325561 0.251528) 376 599 1
(0.458431 0.270784 0.0374722 0.233312) 377 749 1
(0.205742 0.397129 0.16734 0.229789) 378 603 2
(0.268853 0.365573 0.359406 0.00616742) 378 751 1
(0.251574 0.147623 0.374213 0.22659) 379 605 1
(0.212937 0.393531 0.389262 0.00426956) 380 755 1
(0.0759928 0.462004 0.0109369 0.451067) 382 757 1
(0.00858926 0.495705 0.406347 0.0893584) 308 613 2
(0.272622 0.363689 0.0779477 0.285742) 384 615 2
(0.175323 0.412338 0.0987269 0.313612) 385 617 2
(0.231344 0.384328 0.164706 0.219622) 386 619 2
(0.671686 0.164157 0.0387203 0.125437) 387 767 1
(0.477159 0.10901 0.152411 0.261421) 388 772 1
(0.218302 0.139427 0.251422 0.390849) 389 774 1
(0.130259 0.167787 0.434871 0.267083) 465 776 1
(0.438141 0.110614 0.28093 0.170316) 466 778 1
(0.625561 0.18722 0.0411392 0.14608) 467 780 2
(0.511058 0.244471 0.0665354 0.177936) 468 928 1
(0.132411 0.433794 0.0835476 0.350247) 469 930 1
(0.0297679 0.485116 0.400911 0.0842047) 470 786 2
(0.0240613 0.487969 0.388131 0.0998388) 471 788 2
(0.043413 0.0669512 0.411342 0.478293) 397 787 2
(0.38836 0.30582 0.108584 0.197236) 397 789 1
(0.327507 0.336247 0.103123 0.233124) 398 791 1
(0.202561 0.39872 0.119535 0.279185) 399 793 1
(0.158055 0.420973 0.384637 0.036336) 401 795 1
(0.770513 0.114446 0.000297017 0.114743) 402 800 1
(0.157688 0.0279069 0.421156 0.393249) 403 801 2
(0.14834 0.0958088 0.330021 0.42583) 405 803 2
(0.0986908 0.450655 0.00987652 0.440778) 405 805 1
(0.379207 0.00163337 0.310397 0.308763) 406 659 1
(0.26155 0.369225 0.0396904 0.329535) 407 661 2
(0.117691 0.441155 0.0321095 0.409045) 408 809 1
(0.213906 0.167201 0.393047 0.225846) 408 663 1
(0.17061 0.414695 0.412233 0.0024623) 334 665 2
(0.301473 0.283749 0.0655145 0.349263) 335 667 1
(0.26919 0.147125 0.21828 0.365405) 336 669 1
(0.111446 0.111387 0.444277 0.33289) 337 670 2
(0.0755787 0.0840084 0.378202 0.462211) 339 672 2
(0.104144 0.111734 0.447928 0.336194) 339 674 2
(0.269742 0.0307431 0.365129 0.334386) 340 676 2
(0.166166 0.235385 0.416917 0.181532) 416 679 1
(0.834084 0.0829579 0.0731944 0.00976345) 417 830 2
(0.59456 0.125088 0.0776321 0.20272) 418 832 1
(0.30786 0.0465131 0.299557 0.34607) 419 834 1
(0.0783749 0.460813 0.295646 0.165167) 496 838 2
(0.0348481 0.482576 0.133256 0.34932) 497 840 2
(0.544222 0.227889 0.149862 0.0780272) 423 842 2
(0.925166 0.0374169 0.0202562 0.0171607) 424 843 1
(0.74625 0.0149747 0.126875 0.1119) 425 697 1
(0.823551 0.0882243 0.0387854 0.049439) 426 699 2
(0.390637 0.304681 0.249098 0.0555834) 427 847 1
(0.232709 0.126045 0.383645 0.2576) 427 849 2
(0.296904 0.198003 0.153545 0.351548) 428 852 1
(0.223845 0.220453 0.167625 0.388078) 429 854 1
(0.15094 0.152892 0.271638 0.42453) 430 856 1
(0.145232 0.12506 0.302325 0.427384) 431 858 1
(0.207216 0.185746 0.210646 0.396392) 432 860 1
(0.765177 0.0458208 0.117412 0.0715909) 433 713 1
(0.779231 0.110385 0.0349959 0.0753887) 434 715 2
(0.237036 0.381482 0.3279 0.0535824) 435 866 2
(0.248165 0.375918 0.279028 0.0968899) 436 868 2
(0.17809 0.410955 0.310195 0.100759) 437 870 2
(0.105538 0.447231 0.370577 0.0766543) 438 872 2
(0.38062 0.30969 0.246881 0.062809) 439 874 2
(2.29879e-07 0.5 0.5 6.04484e-09) 450 7456 2
(2.29889e-07 0.5 0.5 5.75698e-09) 450 7456 2
(0.111855 0.444073 0.0208962 0.423176) 300 597 2
(2.29898e-07 0.5 0.137766 0.362234) 450 7456 2
(0.480184 0.259908 0.00113222 0.258776) 375 597 2
(0.429235 0.285383 0.22496 0.0604231) 375 597 2
(0.483673 0.258164 0.134636 0.123528) 375 597 2
(0.600847 0.199577 0.145278 0.0542985) 375 597 2
(0.532757 0.233622 0.119497 0.114125) 375 745 1
(0.143687 0.0915197 0.336637 0.428157) 376 745 2
(0.363734 0.12032 0.318133 0.197812) 451 748 1
(0.669595 0.165202 0.057305 0.107897) 452 898 1
(0.925238 0.0298836 0.00749749 0.0373811) 453 901 1
(0.223939 0.36137 0.388031 0.0266605) 454 754 1
(0.200635 0.309757 0.399683 0.0899254) 455 756 1
(0.0833426 0.325179 0.458329 0.13315) 456 758 1
(0.0437045 0.242899 0.478148 0.235249) 457 760 1
(0.000469414 0.260893 0.499765 0.238873) 458 762 1
(0.80571 0.0971449 0.0389321 0.0582128) 459 764 2
(0.337238 0.331381 0.292644 0.0387366) 460 766 2
(0.00229181 0.498854 0.0218291 0.477025) 386 768 2
(0.163005 0.418497 0.026546 0.391951) 462 916 1
(0.202674 0.398663 0.174661 0.224002) 462 918 1
(0.315005 0.157096 0.185402 0.342498) 463 921 1
(0.0420906 0.220007 0.478955 0.258947) 539 923 1
(0.238893 0.193804 0.380554 0.18675) 540 925 1
(0.331901 0.334049 0.287159 0.0468907) 541 1075 1
(0.353483 0.323258 0.0340016 0.289257) 543 1077 1
(0.139559 0.430221 0.299995 0.130225) 544 933 2
(0.137955 0.431023 0.184652 0.246371) 470 935 2
(0.141863 0.228155 0.200914 0.429068) 471 937 1
(0.326696 0.0398287 0.296823 0.336652) 472 939 1
(0.624477 0.0391881 0.187762 0.148573) 473 792 1
(0.553364 0.223318 0.0563609 0.166957) 474 794 2
(0.441335 0.279332 0.259779 0.0195532) 475 796 2
(0.324808 0.337596 0.337085 0.000510964) 476 798 2
(0.501926 0.249037 0.1071 0.141937) 477 800 2
(0.354832 0.322584 0.021147 0.301437) 478 951 2
(0.150081 0.0817327 0.343227 0.42496) 479 950 2
(0.119937 0.0551706 0.384861 0.440032) 480 952 2
(0.185983 0.407008 0.0600144 0.346994) 481 957 2
(0.537452 0.231274 0.152107 0.0791673) 482 810 2
(0.375178 0.312411 0.0139268 0.298484) 483 958 1
(0.180349 0.409826 0.0358705 0.373955) 484 960 1
(0.081159 0.0850594 0.374361 0.45942) 410 813 2
(0.122932 0.152885 0.285649 0.438534) 411 815 2
(0.266902 0.0986998 0.267849 0.366549) 412 817 2
(0.538931 0.025485 0.205049 0.230534) 413 819 2
(0.175206 0.412397 0.317529 0.0948675) 489 824 2
(0.0493914 0.475304 0.315783 0.159521) 489 972 1
(0.00829875 0.255797 0.240053 0.495851) 415 826 1
(0.0832238 0.395526 0.458388 0.0628622) 491 828 1
(0.27634 0.36183 0.0718465 0.289983) 492 830 2
(0.460475 0.269763 0.0496674 0.220095) 493 832 2
(0.662984 0.0240791 0.144429 0.168508) 494 983 1
(0.307646 0.346177 0.119434 0.226743) 496 987 2
(0.214493 0.392754 0.352226 0.0405272) 497 989 2
(0.055451 0.436363 0.035912 0.472275) 498 991 1
(0.0197554 0.468761 0.0213618 0.490122) 499 993 1
(0.0844607 0.45777 0.35621 0.10156) 500 995 2
(0.0284448 0.485778 0.156258 0.329519) 501 997 2
(0.0851474 0.0071333 0.457426 0.450293) 501 996 2
(0.451823 0.0739291 0.200159 0.274088) 502 999 1
(0.51097 0.244515 0.231445 0.0130697) 503 1001 2
(0.233072 0.383464 0.284668 0.0987958) 504 1003 2
(0.267704 0.169889 0.19626 0.366148) 505 1005 1
(0.0728635 0.0751943 0.463568 0.388374) 506 1006 2
(0.00848437 0.133453 0.495758 0.362304) 507 1008 2
(0.308719 0.345641 0.0811548 0.264486) 508 1010 1
(0.78747 0.106265 0.0783777 0.0278875) 509 1012 1
(0.142362 0.291535 0.137284 0.428819) 510 1015 1
(0.20493 0.323624 0.0739116 0.397535) 511 1017 1
(0.225477 0.382628 0.00463384 0.387261) 512 1019 1
(0.297947 0.246261 0.104765 0.351026) 513 1021 1
(0.80182 0.0433595 0.0557304 0.0990899) 514 1023 1
(2.2979e-07 0.5 0.5 6.98071e-09) 525 7457 2
(2.29802e-07 0.5 0.5 6.67733e-09) 525 7457 2
(0.0804615 0.459769 0.455001 0.00476817) 450 746 2
(2.29814e-07 0.5 0.0999984 0.400001) 525 7457 2
(0.428137 0.285931 0.188211 0.0977203) 450 746 2
(0.544778 0.227611 0.16557 0.0620411) 450 746 2
(0.172346 0.413827 0.0120868 0.40174) 450 746 2
(0.566964 0.216518 0.140827 0.0756911) 450 746 2
(0.83269 0.083655 0.0240961 0.0595588) 450 746 2
(0.130942 0.24542 0.189109 0.434529) 451 894 2
(0.042503 0.478749 0.41346 0.0652887) 451 897 2
(0.36299 0.318505 0.198274 0.120231) 527 899 2
(0.426372 0.286814 0.0408021 0.246012) 528 1047 1
(0.144605 0.331003 0.427697 0.0966947) 529 903 1
(0.0511045 0.27595 0.474448 0.198498) 530 905 1
(0.135766 0.253833 0.432117 0.178284) 531 907 1
(0.387349 0.306326 0.0238254 0.2825) 532 1058 2
(0.0471408 0.185128 0.47643 0.291301) 532 1057 2
(0.415629 0.00426144 0.287924 0.292186) 533 1060 1
(0.235984 0.00501999 0.382008 0.376988) 534 913 1
(0.29418 0.199787 0.35291 0.153122) 535 915 1
(0.330344 0.334828 0.179942 0.154886) 536 917 2
(0.0518802 0.47406 0.28634 0.18772) 536 1065 1
(0.750549 0.0825306 0.0421947 0.124725) 537 1068 1
(0.294427 0.352786 0.0935062 0.25928) 538 1070 2
(0.24199 0.273952 0.105053 0.379005) 539 1072 1
(0.00757986 0.49621 0.298742 0.197468) 541 1076 2
(0.00387164 0.114832 0.498064 0.383232) 617 1078 1
(0.138915 0.0171734 0.413369 0.430542) 544 1079 2
(0.0351198 0.087358 0.395082 0.48244) 545 1081 2
(0.220975 0.0193837 0.370129 0.389512) 546 1083 2
(0.0248987 0.12091 0.36664 0.487551) 547 1085 2
(0.243935 0.0594087 0.318624 0.378033) 547 1088 1
(0.397126 0.160166 0.141271 0.301437) 548 1090 1
(0.576632 0.211684 0.178802 0.0328825) 549 1091 1
(0.348622 0.0968018 0.325689 0.228887) 550 945 1
(0.917149 0.01252 0.0289055 0.0414255) 551 1093 2
(0.474391 0.0562063 0.206598 0.262804) 552 1095 2
(0.503137 0.0179907 0.230441 0.248432) 553 1097 2
(0.490229 0.172798 0.0820876 0.254885) 554 1102 1
(0.48791 0.02202 0.234025 0.256045) 556 1103 2
(0.554092 0.222954 0.0365364 0.186418) 557 959 2
(0.351051 0.240321 0.324475 0.0841537) 558 961 1
(0.145696 0.262097 0.165055 0.427152) 484 963 1
(0.422548 0.154636 0.13409 0.288726) 485 965 1
(0.349285 0.12955 0.195808 0.325357) 486 967 1
(0.576249 0.119322 0.0925537 0.211876) 487 969 1
(0.375133 0.312434 0.18382 0.128614) 488 971 2
(0.174162 0.412919 0.365347 0.0475721) 564 973 2
(0.397116 0.164609 0.301442 0.136833) 564 1121 2
(0.351483 0.148177 0.176082 0.324258) 565 1124 1
(0.546974 0.208818 0.0176949 0.226513) 566 1126 1
(0.359927 0.320037 0.187577 0.132459) 567 979 2
(0.220586 0.389707 0.116361 0.273346) 568 1127 1
(0.110485 0.444757 0.317677 0.127081) 568 1129 1
(0.0106787 0.494661 0.244264 0.250397) 570 1131 1
(0.00649416 0.160491 0.336262 0.496753) 571 1133 2
(0.18128 0.0588841 0.350476 0.40936) 572 1135 2
(0.174414 0.412793 0.0435728 0.36922) 573 1140 2
(0.0940911 0.452954 0.0646099 0.388345) 574 1142 2
(0.231605 0.384198 0.380002 0.00419534) 650 1144 2
(0.119042 0.440479 0.313509 0.12697) 651 1146 2
(0.581272 0.209364 0.148221 0.0611428) 577 1148 2
(0.598515 0.200742 0.145341 0.0554013) 578 1147 1
(0.370941 0.100528 0.214001 0.31453) 579 1149 2
(0.401188 0.299406 0.149544 0.149861) 580 1154 2
(0.424973 0.222122 0.0653918 0.287513) 581 1156 1
(0.263879 0.0130134 0.36806 0.355047) 582 1157 2
(0.126609 0.436695 0.156302 0.280394) 584 1162 2
(0.185212 0.407394 0.147973 0.259421) 585 1164 2
(0.119332 0.440334 0.0531132 0.387221) 586 1166 2
(0.114709 0.0648958 0.442645 0.37775) 586 1165 2
(0.0830713 0.0568947 0.458464 0.40157) 587 1167 2
(0.305587 0.179634 0.347207 0.167573) 588 1169 2
(0.429585 0.285207 0.241646 0.043561) 589 1171 1
(2.2979e-07 0.5 0.5 6.27813e-09) 600 7458 2
(2.29802e-07 0.5 0.5 6.00885e-09) 600 7458 2
(2.29825e-07 0.5 0.171397 0.328603) 525 7457 2
(2.29814e-07 0.5 0.0291418 0.470858) 600 7458 2
(0.335792 0.332104 0.297177 0.034927) 525 895 2
(0.412716 0.293642 0.227544 0.0660982) 525 895 2
(0.478607 0.260697 0.0654956 0.195201) 525 895 2
(0.647031 0.156389 0.176485 0.0200954) 525 895 1
(0.756178 0.121911 0.0763015 0.0456097) 525 895 2