/*--------------------------------*- C++ -*----------------------------------*\
  =========                 |
  \\      /  F ield         | OpenFOAM: The Open Source CFD Toolbox
   \\    /   O peration     | Website:  https://openfoam.org
    \\  /    A nd           | Version:  12
     \\/     M anipulation  |
\*---------------------------------------------------------------------------*/
FoamFile
{
    format      ascii;
    class       vectorField;
    location    "0.2/lagrangian/cloud";
    object      U;
}
// * * * * * * * * * * * * * * * * * * * * * * * * * * * * * * * * * * * * * //


4220
(
(-1.95724e-11 -5.10898e-05 0)
(-1.93169e-11 -5.10925e-05 0)
(0.000162956 -0.0123169 0)
(0.000221467 -0.00887454 0)
(0.00370841 -0.0222286 0)
(-0.00857778 -0.00701492 0)
(-0.00921543 -0.00637438 0)
(-0.000465274 -0.0193033 0)
(0.000642411 -0.0288525 0)
(0.00103511 -0.0179854 0)
(-0.00343098 -0.0273462 0)
(-0.00478731 -0.0272915 0)
(-0.00105974 -0.0300001 0)
(-0.000709945 -0.0277551 0)
(4.94877e-05 -0.0266327 0)
(-7.92583e-05 -0.0260959 0)
(-0.00212021 -0.0185424 0)
(-0.00125752 -0.02004 0)
(0.00193528 -0.0204643 0)
(0.00126586 -0.0273081 0)
(0.000728715 -0.0276922 0)
(0.00204106 -0.024616 0)
(-0.000339101 -0.023827 0)
(0.00138721 -0.022854 0)
(0.00309403 -0.0171702 0)
(-0.000323715 -0.0225337 0)
(0.00127744 -0.0238841 0)
(0.000443392 -0.0276846 0)
(8.4676e-05 -0.028817 0)
(-0.00152545 -0.0277318 0)
(-0.000616081 -0.0281954 0)
(0.00322738 -0.020327 0)
(0.000911952 -0.0211498 0)
(0.000303686 -0.0211809 0)
(0.000867167 -0.0201395 0)
(0.00343196 -0.0211218 0)
(-0.00104102 -0.0240306 0)
(-0.00101949 -0.0269258 0)
(-0.000838644 -0.0279983 0)
(-0.000306158 -0.0283427 0)
(-0.00037365 -0.0247263 0)
(0.000319348 -0.0230991 0)
(0.000727553 -0.0247379 0)
(-0.000929403 -0.0246633 0)
(-0.00040001 -0.019061 0)
(-0.000763233 -0.0185416 0)
(-0.000515294 -0.02375 0)
(-0.000667336 -0.0127987 0)
(-0.000843888 -0.00688592 0)
(-0.000510069 -0.0113853 0)
(5.6598e-05 -0.0168412 0)
(0.00244381 -0.0147218 0)
(0.00197822 -0.0141291 0)
(0.00151207 -0.0108902 0)
(0.00105936 -0.019653 0)
(0.00217711 -0.0183345 0)
(-0.000436098 -0.0241094 0)
(-0.000128761 -0.0272761 0)
(0.000360242 -0.0287192 0)
(-0.000494991 -0.0313338 0)
(-0.00027523 -0.0241207 0)
(0.000512701 -0.0221229 0)
(-0.00147291 -0.0186058 0)
(-0.00153775 -0.0171297 0)
(-9.79576e-05 -0.0159191 0)
(0.00072073 -0.0183806 0)
(0.00221326 -0.0200924 0)
(0.000947962 -0.0219012 0)
(0.0011317 -0.0247891 0)
(-0.000576331 -0.0262684 0)
(3.95343e-05 -0.0300027 0)
(0.00402719 -0.0277846 0)
(-0.00090627 -0.0277645 0)
(-0.000237609 -0.030428 0)
(-0.000387797 -0.0305754 0)
(-1.12373e-11 -5.11223e-05 0)
(-1.11236e-11 -5.11239e-05 0)
(-0.0140121 -0.00661414 0)
(-3.9938e-06 -4.85177e-05 0)
(-0.00224269 -0.0202963 0)
(0.00159174 -0.0308674 0)
(-0.0188927 -0.0255637 0)
(-0.0172609 -0.0159221 0)
(0.00142156 -0.0602903 0)
(0.00254528 -0.0305625 0)
(-0.000334622 -0.0214608 0)
(-0.000571566 -0.0388008 0)
(0.00101278 -0.0312243 0)
(-0.000685983 -0.0334893 0)
(-0.000939341 -0.0290248 0)
(-0.00100333 -0.0347152 0)
(-0.00207087 -0.0354815 0)
(-0.00356232 -0.0410319 0)
(-0.000826483 -0.0297851 0)
(0.000651119 -0.0266707 0)
(-0.000177607 -0.0295695 0)
(0.00121227 -0.0352799 0)
(0.00257486 -0.0358531 0)
(2.42162e-05 -0.0354176 0)
(-0.0012547 -0.0347352 0)
(-0.00151689 -0.0307771 0)
(-7.76673e-06 -0.0273513 0)
(0.000478966 -0.0279506 0)
(0.00135087 -0.028558 0)
(-0.00180384 -0.0299158 0)
(-0.00220394 -0.024219 0)
(0.000458702 -0.0296724 0)
(-0.00231526 -0.026623 0)
(-0.00134362 -0.0367403 0)
(-0.00228262 -0.0411591 0)
(-0.00165107 -0.0423332 0)
(-0.000933605 -0.0353981 0)
(0.000735618 -0.0304724 0)
(0.000361003 -0.0302432 0)
(-0.000676142 -0.0301396 0)
(-0.000287872 -0.0334019 0)
(-0.00134049 -0.0428611 0)
(-0.00126892 -0.0377242 0)
(-0.00215596 -0.0351072 0)
(-0.00159923 -0.035091 0)
(-0.00122655 -0.0288721 0)
(-0.00137253 -0.0292973 0)
(-0.00304199 -0.0253091 0)
(-0.00511264 -0.0271451 0)
(-0.00186433 -0.0216696 0)
(0.000546488 -0.0234135 0)
(0.00380188 -0.0236233 0)
(0.00055131 -0.0266041 0)
(0.00307432 -0.026942 0)
(0.00457189 -0.0240503 0)
(0.00567934 -0.0248553 0)
(0.00678966 -0.0271483 0)
(-0.000701676 -0.0274189 0)
(0.000259051 -0.0297105 0)
(-0.000361561 -0.0313246 0)
(0.0010188 -0.0329893 0)
(-0.000844721 -0.0372969 0)
(-0.00078216 -0.0318882 0)
(-0.00249255 -0.0364345 0)
(-0.00310432 -0.0393185 0)
(-0.00208134 -0.0381554 0)
(-0.00207229 -0.0389008 0)
(-0.00121978 -0.0394702 0)
(0.000384585 -0.0375215 0)
(0.00106064 -0.0287114 0)
(0.0015081 -0.0272933 0)
(-0.00034888 -0.0306522 0)
(-0.0011691 -0.0375408 0)
(0.00415866 -0.0408611 0)
(0.00198208 -0.0420324 0)
(-2.23748e-11 -5.11079e-05 0)
(-2.21169e-11 -5.111e-05 0)
(0.00448127 -0.00309835 0)
(-2.18619e-11 -5.11121e-05 0)
(-0.00169854 -0.00390824 0)
(-0.000961691 0.000554113 0)
(-0.00154683 -0.00463954 0)
(-0.00475357 -0.0181175 0)
(-0.0157474 -0.0122588 0)
(-0.0124844 -0.040968 0)
(-0.00431735 -0.0532337 0)
(-0.00125046 -0.0403872 0)
(-0.000108349 -0.0437126 0)
(0.00120204 -0.0425874 0)
(0.00100253 -0.04062 0)
(-0.00136994 -0.0410542 0)
(-0.00216329 -0.040619 0)
(-0.00286299 -0.0414894 0)
(-0.00352328 -0.0424315 0)
(-0.0029268 -0.0450277 0)
(-0.00156851 -0.0453162 0)
(0.00158165 -0.0333706 0)
(0.00137017 -0.0364578 0)
(0.000345276 -0.037116 0)
(0.000747362 -0.039448 0)
(-0.00116265 -0.0390669 0)
(-0.00315789 -0.0422908 0)
(-0.00318071 -0.0443335 0)
(-0.000891026 -0.0380222 0)
(0.000628962 -0.0359755 0)
(-0.00197324 -0.0407432 0)
(0.00196396 -0.0366793 0)
(0.00110785 -0.0453011 0)
(0.00125283 -0.0517415 0)
(1.91788e-05 -0.0520918 0)
(0.000134073 -0.0525509 0)
(-0.00015334 -0.0471232 0)
(-0.000710771 -0.046937 0)
(0.00142354 -0.0460443 0)
(0.000964049 -0.0475623 0)
(0.000201009 -0.0511783 0)
(0.000588844 -0.0510839 0)
(-0.00257582 -0.0505655 0)
(-0.00415595 -0.0516226 0)
(-0.00316669 -0.0469892 0)
(-0.00118573 -0.0413826 0)
(0.00136528 -0.0421145 0)
(0.00102903 -0.037574 0)
(-0.00202341 -0.0347963 0)
(-0.00448482 -0.0377373 0)
(-0.00639099 -0.0372874 0)
(-0.00659001 -0.0457129 0)
(-0.00252755 -0.0450391 0)
(-0.00197309 -0.0461664 0)
(-0.00301394 -0.0450898 0)
(-0.00187589 -0.044566 0)
(0.00110431 -0.0472538 0)
(0.00703344 -0.0419612 0)
(0.00563158 -0.0356549 0)
(0.00651258 -0.0340298 0)
(0.00208573 -0.0384967 0)
(0.00103735 -0.0432948 0)
(0.0043859 -0.0440485 0)
(0.00295643 -0.0442272 0)
(0.00278538 -0.0429094 0)
(0.000262425 -0.0446119 0)
(-0.0015763 -0.0466242 0)
(-0.0017015 -0.0506128 0)
(-0.0003039 -0.0510513 0)
(-0.000682508 -0.0504914 0)
(0.00417841 -0.0492197 0)
(0.00472822 -0.0421911 0)
(0.00447789 -0.0404921 0)
(0.00415155 -0.0427502 0)
(0.00394069 -0.0441655 0)
(-3.92163e-11 -5.1108e-05 0)
(-3.87642e-11 -5.111e-05 0)
(-0.00190366 0.00040676 0)
(-3.83173e-11 -5.11121e-05 0)
(0.0027297 -0.00901911 0)
(0.00272296 -0.012166 0)
(-0.000779846 -0.00768261 0)
(-0.00300427 -0.0117915 0)
(-0.012577 -0.0194053 0)
(-0.0149179 -0.0151898 0)
(-0.0161757 -0.0358519 0)
(-0.00602685 -0.0550252 0)
(-0.00286611 -0.0454417 0)
(-0.00257494 -0.0511721 0)
(-0.00260751 -0.0429642 0)
(-0.000691707 -0.0452372 0)
(-0.000954572 -0.0423871 0)
(-0.000912034 -0.0447818 0)
(-0.00118262 -0.0445443 0)
(-0.00342223 -0.0456717 0)
(-0.00190403 -0.0469181 0)
(-0.00233101 -0.0460534 0)
(-0.00138185 -0.0441014 0)
(8.47703e-05 -0.0410773 0)
(0.00192997 -0.038604 0)
(0.00189148 -0.0389225 0)
(0.000644551 -0.0447243 0)
(0.00106511 -0.046521 0)
(0.000566638 -0.0486787 0)
(0.000852743 -0.0492531 0)
(0.00443361 -0.0472903 0)
(0.00361975 -0.0489196 0)
(0.00365911 -0.050162 0)
(0.00174569 -0.0526725 0)
(0.000227465 -0.0527538 0)
(-0.000562619 -0.0538313 0)
(0.000111414 -0.0500697 0)
(-0.000749946 -0.0525534 0)
(-0.00169493 -0.0525494 0)
(0.000382009 -0.0553847 0)
(0.00112064 -0.0514382 0)
(0.00129477 -0.0533914 0)
(0.000734382 -0.0527393 0)
(-0.00225833 -0.0531989 0)
(-0.00367897 -0.0518982 0)
(-0.00212351 -0.048777 0)
(-0.000480218 -0.0514187 0)
(-0.000243606 -0.0477249 0)
(-0.00117628 -0.0452203 0)
(-0.00110887 -0.0470458 0)
(-0.0020385 -0.0421835 0)
(-0.00453045 -0.0469923 0)
(-0.00577626 -0.0479628 0)
(-0.00483035 -0.0441957 0)
(-0.00453542 -0.0477947 0)
(-0.00191364 -0.0479425 0)
(-0.00154169 -0.0532857 0)
(0.00172031 -0.0543105 0)
(0.00939338 -0.04608 0)
(0.00562568 -0.0438153 0)
(0.00243925 -0.0453788 0)
(0.00396002 -0.0474984 0)
(0.00258003 -0.0481701 0)
(0.000577209 -0.0457674 0)
(0.000229548 -0.0458836 0)
(-0.000533869 -0.0458145 0)
(-0.00241967 -0.0468739 0)
(-0.0014631 -0.0504272 0)
(0.00143702 -0.0506599 0)
(0.000898491 -0.0503066 0)
(0.000240423 -0.0521552 0)
(0.00283215 -0.0484924 0)
(0.000164899 -0.0429794 0)
(0.00211849 -0.0435341 0)
(0.00337995 -0.0464678 0)
(-5.5745e-11 -5.10924e-05 0)
(-5.50174e-11 -5.10951e-05 0)
(-0.00286096 -0.00878246 0)
(-5.42994e-11 -5.10977e-05 0)
(-0.000602507 -0.00756986 0)
(-0.00353245 -0.00577827 0)
(-0.00818859 -0.00825718 0)
(-0.00469967 -0.0184181 0)
(-0.0133978 -0.0211932 0)
(-0.012582 -0.00419726 0)
(-0.0122506 -0.032171 0)
(-0.00545219 -0.0508131 0)
(-0.00327993 -0.0483877 0)
(-0.00512518 -0.050782 0)
(-0.00407891 -0.046713 0)
(-0.00471885 -0.0484006 0)
(-0.00330884 -0.0495442 0)
(-0.00115691 -0.0469627 0)
(-0.00043179 -0.0450957 0)
(-0.000215276 -0.0445101 0)
(-0.00501432 -0.0454905 0)
(-0.00291286 -0.0469592 0)
(-0.00141278 -0.0462677 0)
(0.000335002 -0.044196 0)
(0.00265387 -0.0429826 0)
(0.00228184 -0.0409544 0)
(0.00439812 -0.042087 0)
(0.00154392 -0.0433477 0)
(0.00128071 -0.0452223 0)
(0.0023683 -0.0478126 0)
(0.00463372 -0.0476293 0)
(0.00478116 -0.0490413 0)
(0.00393391 -0.050304 0)
(0.00311163 -0.0504429 0)
(-0.000661819 -0.0498397 0)
(-0.000941779 -0.0534386 0)
(-0.00113854 -0.0538085 0)
(-9.25678e-05 -0.0499755 0)
(0.00133769 -0.0480066 0)
(0.000998111 -0.0485056 0)
(0.00136917 -0.0462429 0)
(0.00161286 -0.0491239 0)
(-0.000158291 -0.050646 0)
(-0.00253749 -0.0519526 0)
(-0.00401735 -0.0520138 0)
(-0.00534983 -0.0534546 0)
(-0.00419788 -0.0525826 0)
(-0.00300497 -0.0528569 0)
(-0.00135911 -0.0502266 0)
(-0.00413039 -0.0458422 0)
(-0.00586738 -0.0451902 0)
(-0.00541818 -0.0493187 0)
(-0.0037098 -0.0468163 0)
(-0.00167885 -0.0471739 0)
(-0.0033281 -0.0479025 0)
(-0.00247703 -0.0516921 0)
(-3.94225e-06 -0.0535068 0)
(0.000555335 -0.0527778 0)
(0.00866601 -0.0521458 0)
(0.00851589 -0.0469194 0)
(0.00450572 -0.0475146 0)
(0.00191144 -0.0454221 0)
(-0.000139662 -0.0467962 0)
(-0.000240257 -0.0478569 0)
(-0.000598086 -0.0485969 0)
(0.000149877 -0.0487471 0)
(0.000148286 -0.0477261 0)
(0.000346908 -0.0470758 0)
(0.00120541 -0.0493162 0)
(0.00156864 -0.0513928 0)
(0.000268493 -0.0538565 0)
(0.00164162 -0.0563731 0)
(0.000504 -0.0524939 0)
(0.00205073 -0.0479205 0)
(0.0025798 -0.0462358 0)
(-4.3976e-11 -5.11224e-05 0)
(-4.3531e-11 -5.1124e-05 0)
(-0.00238588 -0.0102061 0)
(-4.30905e-11 -5.11255e-05 0)
(-0.00357857 -0.0159117 0)
(-0.00615089 -0.00811837 0)
(-0.00277579 -0.0130757 0)
(-0.00460606 -0.0186866 0)
(-0.015069 -0.0162772 0)
(-0.014917 -0.0362355 0)
(-0.0126508 -0.034068 0)
(-0.00450144 -0.0479863 0)
(-0.0032307 -0.0409865 0)
(-0.0009937 -0.0433126 0)
(-0.000424142 -0.048251 0)
(-0.00217967 -0.0491174 0)
(-0.00132119 -0.0498415 0)
(-0.00248544 -0.0500137 0)
(-0.00239955 -0.0482432 0)
(-0.000439209 -0.0474008 0)
(-0.00054467 -0.046592 0)
(-0.00442748 -0.0477983 0)
(0.000118665 -0.0481695 0)
(-0.00115763 -0.0482989 0)
(0.000299836 -0.0485791 0)
(-0.000464697 -0.0461962 0)
(-0.00115192 -0.0440108 0)
(0.00191774 -0.0465804 0)
(0.00593484 -0.0452247 0)
(0.0049108 -0.0479043 0)
(0.00343027 -0.0487869 0)
(0.00229905 -0.0484077 0)
(0.00155166 -0.0486412 0)
(0.000586882 -0.0503832 0)
(0.000382366 -0.0499497 0)
(-0.00188092 -0.0504196 0)
(-0.00165047 -0.0490543 0)
(-0.000259721 -0.049948 0)
(0.00145975 -0.0475103 0)
(0.000889657 -0.0453678 0)
(0.00120147 -0.0409119 0)
(0.00190269 -0.0416522 0)
(0.00118664 -0.041138 0)
(-0.000200308 -0.0432024 0)
(-0.00373263 -0.0495743 0)
(-0.00211179 -0.0535876 0)
(-0.00240594 -0.0551895 0)
(-0.00198897 -0.0552664 0)
(-0.00346764 -0.048316 0)
(-0.00421285 -0.0483368 0)
(-0.00613647 -0.0462011 0)
(-0.00520093 -0.0471865 0)
(0.00079316 -0.0480705 0)
(-0.00347984 -0.0512008 0)
(-0.00280536 -0.0541237 0)
(-0.00173367 -0.0508061 0)
(0.00236803 -0.0509268 0)
(0.00358937 -0.0514569 0)
(0.00632194 -0.0505228 0)
(0.00208326 -0.0483173 0)
(0.00178733 -0.047216 0)
(0.0018539 -0.0462886 0)
(0.00157259 -0.0437623 0)
(0.00174541 -0.0457872 0)
(-0.000607654 -0.0518543 0)
(-0.00102231 -0.0527542 0)
(-0.000642066 -0.053564 0)
(0.000375074 -0.0503539 0)
(0.000669749 -0.0498266 0)
(-0.00207784 -0.051386 0)
(0.0010881 -0.0532383 0)
(0.000898078 -0.0540113 0)
(-0.000436627 -0.0542282 0)
(0.000343172 -0.0536893 0)
(0.00304891 -0.0531849 0)
(-6.41762e-11 -5.1108e-05 0)
(-6.34363e-11 -5.11101e-05 0)
(-0.00209011 0.00238517 0)
(-6.27049e-11 -5.11121e-05 0)
(-0.00400701 -0.010933 0)
(-0.00147397 -0.00898717 0)
(-0.00667651 -0.0113468 0)
(-0.00752685 -0.0176413 0)
(-0.0157132 -0.0237554 0)
(-0.0151102 -0.000508357 0)
(-0.0116796 -0.0296001 0)
(-0.0063276 -0.0511188 0)
(-0.00271099 -0.0368012 0)
(-0.000169959 -0.0498068 0)
(0.000194301 -0.0458405 0)
(-7.24349e-05 -0.0481002 0)
(-0.000372736 -0.0477161 0)
(-0.00143731 -0.0445953 0)
(-0.00397614 -0.0427406 0)
(-0.00404591 -0.0450321 0)
(-0.0028645 -0.0467008 0)
(-0.00276043 -0.0475718 0)
(-0.00347415 -0.0478644 0)
(0.000587054 -0.0524813 0)
(-0.00112716 -0.0540004 0)
(-0.000305722 -0.0563924 0)
(-0.000666895 -0.0563712 0)
(0.00337603 -0.0509812 0)
(0.00611971 -0.0480232 0)
(0.0061535 -0.0500168 0)
(0.00278328 -0.0482423 0)
(0.00208096 -0.0457888 0)
(-0.00163954 -0.0443044 0)
(-0.00104832 -0.0447168 0)
(-0.00125513 -0.0462093 0)
(-0.00171202 -0.0478231 0)
(-0.00225329 -0.0484662 0)
(0.00133766 -0.0503381 0)
(0.000964959 -0.0497452 0)
(-0.000850257 -0.0499032 0)
(-0.000804435 -0.0493036 0)
(-0.0015198 -0.043275 0)
(-0.000288067 -0.0447386 0)
(0.000446263 -0.0431277 0)
(0.000471884 -0.0499076 0)
(-0.000273608 -0.0534503 0)
(-0.00230181 -0.0529446 0)
(-0.00638129 -0.0519667 0)
(-0.00754001 -0.0466395 0)
(-0.0071678 -0.0447155 0)
(-0.00641123 -0.0448368 0)
(-0.00289576 -0.0460763 0)
(-0.00136709 -0.0484229 0)
(-0.00345663 -0.0520688 0)
(-0.000845473 -0.0541206 0)
(9.66085e-05 -0.0526325 0)
(0.000235119 -0.0537032 0)
(-0.00118215 -0.0538501 0)
(-0.000555983 -0.0504989 0)
(0.000791555 -0.0475741 0)
(0.00118516 -0.046985 0)
(0.00311675 -0.0464629 0)
(0.00444041 -0.0436707 0)
(0.00311174 -0.0479251 0)
(0.000519695 -0.0525657 0)
(0.00026699 -0.0548148 0)
(-0.000164556 -0.053932 0)
(0.000222622 -0.0517863 0)
(0.000528093 -0.0489372 0)
(0.00163367 -0.0488799 0)
(0.000587198 -0.0519123 0)
(0.000210195 -0.0508752 0)
(-0.000849355 -0.0512398 0)
(0.0022443 -0.0532131 0)
(0.00636885 -0.0508669 0)
(-5.50214e-11 -5.10924e-05 0)
(-5.43033e-11 -5.1095e-05 0)
(0.00256959 -0.00848716 0)
(-5.35947e-11 -5.10977e-05 0)
(-0.00688183 -0.00835385 0)
(-0.00257829 -0.011026 0)
(-0.00488131 -0.00358458 0)
(-0.00275871 -0.0124107 0)
(-0.00959915 -0.0257708 0)
(-0.0173871 0.000104701 0)
(-0.00989533 -0.0428843 0)
(-0.00593595 -0.0556858 0)
(-0.00435307 -0.0473806 0)
(-0.000897034 -0.0496744 0)
(8.21474e-05 -0.0467336 0)
(-0.000899722 -0.0457655 0)
(-0.000192228 -0.0481283 0)
(-0.00126829 -0.0479091 0)
(-0.0015836 -0.0467275 0)
(-0.00346424 -0.0466282 0)
(-0.00198395 -0.0463181 0)
(-0.00122654 -0.0490855 0)
(0.000169126 -0.0518924 0)
(0.00431123 -0.0511379 0)
(0.00126922 -0.0587675 0)
(-0.000416139 -0.0596391 0)
(-0.000923849 -0.0611025 0)
(0.00249422 -0.0568932 0)
(0.00602284 -0.0529857 0)
(0.00735289 -0.0527725 0)
(0.00326024 -0.0523345 0)
(0.00108659 -0.049225 0)
(0.000313804 -0.0474502 0)
(0.00199318 -0.0481299 0)
(1.89103e-05 -0.049433 0)
(-0.000560762 -0.0497332 0)
(0.000270282 -0.0533544 0)
(0.000164733 -0.0551453 0)
(1.1894e-05 -0.0550953 0)
(0.000549996 -0.0544915 0)
(-0.000759025 -0.052222 0)
(-0.00228535 -0.0505336 0)
(0.0012784 -0.0480625 0)
(0.00269445 -0.0444191 0)
(0.000470804 -0.0477761 0)
(-0.00307157 -0.0452966 0)
(-0.00568542 -0.0437 0)
(-0.00660091 -0.0436444 0)
(-0.00651128 -0.0414033 0)
(-0.00309014 -0.0443853 0)
(0.000584744 -0.0483789 0)
(0.00186485 -0.0505244 0)
(-0.00321325 -0.051314 0)
(-0.00205513 -0.0523811 0)
(-0.00188392 -0.052653 0)
(-0.0011774 -0.0538456 0)
(0.000845627 -0.054643 0)
(-0.000173803 -0.0557895 0)
(-0.0010072 -0.0555233 0)
(-0.000768828 -0.0551305 0)
(0.00175623 -0.0558698 0)
(0.00438683 -0.0544441 0)
(0.00606302 -0.0510661 0)
(0.00232137 -0.0500092 0)
(0.00350982 -0.0548602 0)
(0.00387453 -0.0554638 0)
(-0.000790212 -0.0547292 0)
(-0.00264212 -0.0547854 0)
(-0.000361689 -0.0529375 0)
(-0.000315062 -0.0509593 0)
(0.000563823 -0.0487044 0)
(0.00189255 -0.0489922 0)
(0.00160719 -0.0481949 0)
(0.00316578 -0.0480102 0)
(0.00309121 -0.0496671 0)
(-5.07399e-11 -5.10924e-05 0)
(-5.00777e-11 -5.10951e-05 0)
(-5.28952e-11 -5.11003e-05 0)
(-4.94242e-11 -5.10977e-05 0)
(-0.00133632 -0.0021886 0)
(-0.00065867 -0.00672162 0)
(-0.00385496 -0.00729129 0)
(-0.00628455 -0.0160891 0)
(-0.00800421 -0.0219051 0)
(-0.0139377 -0.0282111 0)
(-0.0132494 -0.0438631 0)
(-0.00747271 -0.0484638 0)
(-0.00194313 -0.0539782 0)
(-0.00174127 -0.051789 0)
(-0.00102834 -0.0508368 0)
(-0.00154557 -0.046805 0)
(-0.000226347 -0.0509264 0)
(-0.00120621 -0.0523858 0)
(-0.00174987 -0.0521773 0)
(-0.00147999 -0.0547774 0)
(-0.000959443 -0.057169 0)
(-8.83654e-05 -0.0581621 0)
(0.00273822 -0.0590894 0)
(-0.000504363 -0.0567585 0)
(0.0054673 -0.0604147 0)
(0.00346263 -0.0614689 0)
(0.000322406 -0.0607582 0)
(-0.000401013 -0.0609092 0)
(2.40709e-05 -0.0587011 0)
(-0.000374838 -0.058928 0)
(0.000127997 -0.0585818 0)
(0.000118372 -0.0560582 0)
(0.000833545 -0.0566035 0)
(0.00256307 -0.0580091 0)
(-0.000213812 -0.0541665 0)
(-0.00106838 -0.0570239 0)
(-0.00234371 -0.054707 0)
(-0.00143061 -0.0548053 0)
(-0.000203877 -0.0527724 0)
(-0.000999914 -0.0519247 0)
(-0.00120664 -0.0524103 0)
(4.01545e-05 -0.0501811 0)
(-0.00209201 -0.0461589 0)
(-0.00213728 -0.0451763 0)
(-0.00475681 -0.0427193 0)
(-0.00445759 -0.0419757 0)
(-0.00509665 -0.040471 0)
(-0.00643928 -0.044186 0)
(-0.00218096 -0.0442919 0)
(-0.000980498 -0.0467419 0)
(0.000830232 -0.0508067 0)
(7.24408e-05 -0.0516042 0)
(-0.00241696 -0.0520603 0)
(-0.00175101 -0.0523217 0)
(-0.00112384 -0.052181 0)
(0.00281202 -0.0507832 0)
(7.19894e-06 -0.0511977 0)
(-0.000846347 -0.0513624 0)
(-0.00116966 -0.0522705 0)
(-0.0010805 -0.0542528 0)
(0.00306559 -0.0566104 0)
(0.00431129 -0.0543718 0)
(0.00345817 -0.0572103 0)
(0.00394572 -0.0551344 0)
(0.00307186 -0.0544611 0)
(0.00133271 -0.0577303 0)
(-0.00134776 -0.0528987 0)
(-0.00197166 -0.0561637 0)
(-0.00157054 -0.0535077 0)
(-0.00032279 -0.0501701 0)
(0.000999044 -0.0471631 0)
(0.000973473 -0.0464227 0)
(0.00121281 -0.0433416 0)
(-0.00119104 -0.0424748 0)
(0.000681293 -0.0474111 0)
(-5.76209e-11 -5.10927e-05 0)
(-5.68688e-11 -5.10953e-05 0)
(0.00406075 -0.00257099 0)
(-5.61266e-11 -5.1098e-05 0)
(-0.00183521 -0.00832995 0)
(0.00207207 -0.00318355 0)
(-0.00244095 -0.00716578 0)
(-0.00274234 -0.02114 0)
(-0.00385786 -0.0216133 0)
(-0.0127871 -0.0298701 0)
(-0.00579293 -0.0386539 0)
(-0.00743782 -0.0495097 0)
(-0.00564662 -0.0551587 0)
(-0.00334699 -0.0510585 0)
(0.00038783 -0.0485208 0)
(0.00139845 -0.046672 0)
(-0.000454734 -0.0490255 0)
(-0.000917307 -0.0503247 0)
(-0.000962333 -0.0519304 0)
(0.000496299 -0.0545608 0)
(-0.00027988 -0.0570947 0)
(0.00215435 -0.0578991 0)
(0.00342365 -0.0579779 0)
(0.00445993 -0.0547995 0)
(0.00198486 -0.0563235 0)
(0.00129659 -0.0551561 0)
(-0.000311525 -0.0549307 0)
(-0.000811376 -0.0547141 0)
(-0.000559349 -0.0544827 0)
(2.00659e-05 -0.054112 0)
(0.00136065 -0.0557117 0)
(0.00219389 -0.0555373 0)
(0.00334887 -0.0558643 0)
(0.000333178 -0.056349 0)
(-0.000614149 -0.0582366 0)
(-0.000849733 -0.0579206 0)
(-0.00093848 -0.054945 0)
(-0.00268285 -0.0529713 0)
(-0.00457507 -0.0484921 0)
(-0.00117031 -0.0509678 0)
(-0.000721249 -0.0500923 0)
(0.000422944 -0.0491415 0)
(0.0016814 -0.0480077 0)
(0.000782144 -0.0473881 0)
(-0.000767388 -0.0472095 0)
(-0.00222162 -0.0506127 0)
(0.00164161 -0.0473238 0)
(-0.000753255 -0.053634 0)
(0.000529021 -0.0554084 0)
(-0.00261625 -0.0513769 0)
(0.000980411 -0.0514716 0)
(0.000839618 -0.0523099 0)
(-0.00186655 -0.0514589 0)
(-0.00133369 -0.0501715 0)
(0.000555395 -0.0495223 0)
(-0.00144317 -0.0502338 0)
(-0.0016619 -0.05172 0)
(-0.000965518 -0.0529639 0)
(0.0018395 -0.0557864 0)
(0.00284801 -0.0545565 0)
(0.00343394 -0.0527666 0)
(0.00304926 -0.0537443 0)
(0.00367063 -0.0562977 0)
(0.000807155 -0.0547179 0)
(0.000789644 -0.0548172 0)
(0.00100404 -0.0549536 0)
(-0.000336154 -0.0539379 0)
(-0.00151446 -0.0548985 0)
(-0.0030427 -0.0504644 0)
(-0.00139626 -0.0500129 0)
(-0.000782258 -0.0493309 0)
(-0.00101069 -0.0490356 0)
(0.00114059 -0.0477467 0)
(0.00246976 -0.0455162 0)
(0.00182708 -0.0462791 0)
(-5.09968e-11 -5.10924e-05 0)
(-5.03312e-11 -5.1095e-05 0)
(-0.00177274 -0.00995685 0)
(-4.96742e-11 -5.10977e-05 0)
(-0.00347946 -0.0115645 0)
(0.00168223 -0.0127542 0)
(0.00101515 -0.00954728 0)
(-0.00344359 -0.0186932 0)
(-0.00353405 -0.0261432 0)
(-0.0102195 -0.0278988 0)
(-0.0127617 -0.0400669 0)
(-0.00629507 -0.0523843 0)
(-0.00421851 -0.0500508 0)
(-0.00206139 -0.0522409 0)
(-0.00151622 -0.0491084 0)
(-0.000125926 -0.0481875 0)
(-0.000256475 -0.0469195 0)
(0.000925897 -0.047808 0)
(0.00230943 -0.0500958 0)
(0.00200184 -0.0529213 0)
(0.0029866 -0.0517676 0)
(0.00257222 -0.0539357 0)
(-0.000364062 -0.0540198 0)
(0.0016818 -0.0515426 0)
(0.000955535 -0.0504112 0)
(0.000604789 -0.0514986 0)
(-0.000492086 -0.0492207 0)
(0.000420379 -0.0484157 0)
(0.000573869 -0.0479532 0)
(0.000507588 -0.0457697 0)
(0.00222356 -0.0461535 0)
(0.00417792 -0.0467807 0)
(0.00194249 -0.0500066 0)
(0.000695197 -0.0519571 0)
(0.000432621 -0.0519959 0)
(0.00034966 -0.0512672 0)
(-0.000556995 -0.0499486 0)
(-0.0014109 -0.0496338 0)
(-0.00256634 -0.0483481 0)
(-0.000888876 -0.04892 0)
(-0.000897416 -0.0490357 0)
(-0.00171756 -0.0487671 0)
(-0.00085797 -0.0472015 0)
(-0.000351233 -0.0469336 0)
(-0.00134637 -0.0485372 0)
(-0.00219204 -0.0500633 0)
(-0.00231968 -0.0559368 0)
(-0.00206926 -0.0549256 0)
(-0.00157883 -0.0557585 0)
(-0.00366931 -0.0529527 0)
(1.39057e-05 -0.0512071 0)
(0.00294817 -0.0526433 0)
(-0.000106071 -0.0535502 0)
(-0.000855862 -0.0527363 0)
(-0.000439419 -0.0532258 0)
(-0.000881049 -0.0541871 0)
(-0.00142473 -0.0554435 0)
(-0.00187136 -0.0566462 0)
(0.00211898 -0.0553965 0)
(0.0018172 -0.0567728 0)
(0.00244478 -0.0543541 0)
(0.00434326 -0.0572887 0)
(0.00333131 -0.055517 0)
(-0.000206945 -0.0534972 0)
(0.000898678 -0.053833 0)
(0.00117282 -0.0541585 0)
(-0.000245241 -0.0494229 0)
(-0.000625736 -0.0478355 0)
(-0.00345284 -0.0487229 0)
(-0.00336326 -0.0492394 0)
(-0.00120285 -0.0486021 0)
(-0.000405742 -0.0504562 0)
(0.000406587 -0.0503305 0)
(0.000241327 -0.0506768 0)
(0.000240265 -0.0514648 0)
(-3.42253e-11 -5.11079e-05 0)
(-3.38307e-11 -5.111e-05 0)
(-4.90257e-11 -5.11003e-05 0)
(-3.34407e-11 -5.11121e-05 0)
(-0.00271904 -0.0102767 0)
(-0.00569183 -0.012863 0)
(-0.00449949 -0.0125795 0)
(-0.00268558 -0.0158626 0)
(-0.00370494 -0.0293288 0)
(-0.00904704 -0.0288987 0)
(-0.00893046 -0.0354364 0)
(-0.00615833 -0.0516893 0)
(-0.0027339 -0.0433959 0)
(-0.00287033 -0.0488708 0)
(-0.00234028 -0.048463 0)
(-0.000942729 -0.0477853 0)
(0.000463704 -0.0492054 0)
(0.00292619 -0.0489017 0)
(0.00386208 -0.0508678 0)
(0.00142583 -0.049131 0)
(0.00153035 -0.0470957 0)
(-0.000227768 -0.0521732 0)
(-0.00318165 -0.0509735 0)
(-0.00144934 -0.0501774 0)
(-0.00163475 -0.0498003 0)
(-0.000802673 -0.0472213 0)
(0.000510845 -0.0496239 0)
(-0.000190975 -0.049097 0)
(0.000146113 -0.0476305 0)
(-0.000267082 -0.0464162 0)
(0.000932176 -0.0458688 0)
(0.00168598 -0.0452773 0)
(0.000567379 -0.044838 0)
(0.000228411 -0.0462001 0)
(0.000592335 -0.0476958 0)
(-0.000636848 -0.0480778 0)
(-0.00198951 -0.0474296 0)
(-0.0022477 -0.0470909 0)
(-0.00247591 -0.0479644 0)
(-0.00155623 -0.0486173 0)
(-0.00110492 -0.0488584 0)
(0.00173316 -0.0473196 0)
(0.00256261 -0.0486055 0)
(-0.00126428 -0.0520507 0)
(-0.00187262 -0.0526237 0)
(-0.00214499 -0.0533373 0)
(-0.00181017 -0.0543583 0)
(-0.00141513 -0.0562219 0)
(-0.00179239 -0.0555226 0)
(-0.00210708 -0.054261 0)
(0.000793623 -0.0541259 0)
(-0.000346739 -0.0548428 0)
(-0.000624793 -0.0547398 0)
(-0.000550954 -0.0531849 0)
(-0.00128916 -0.0536123 0)
(-0.000728939 -0.0547856 0)
(-0.00132833 -0.0564995 0)
(7.42018e-05 -0.0593895 0)
(0.000904878 -0.0562506 0)
(0.00124235 -0.0590389 0)
(0.0029914 -0.057256 0)
(0.00320505 -0.0548006 0)
(0.00324645 -0.0560372 0)
(0.000894617 -0.0526046 0)
(0.0010889 -0.0502742 0)
(-0.000897995 -0.0475484 0)
(-0.00200435 -0.0466468 0)
(-0.00293174 -0.0459843 0)
(-0.0020833 -0.0457045 0)
(-0.00272865 -0.0466939 0)
(0.000446194 -0.0500713 0)
(-0.000197233 -0.0482307 0)
(-6.59859e-05 -0.0489382 0)
(-4.72833e-05 -0.0501156 0)
(0.00230109 -0.0516791 0)
(-6.47974e-11 -5.11079e-05 0)
(-6.40503e-11 -5.111e-05 0)
(0.00239316 -0.0131673 0)
(-6.33119e-11 -5.11121e-05 0)
(0.00303287 9.3481e-05 0)
(-0.0015507 -0.0112634 0)
(-0.000990245 -0.0112916 0)
(-0.00555977 -0.0220547 0)
(-0.0104747 -0.0213104 0)
(-0.00439949 -0.00578616 0)
(0.000135959 -0.0141817 0)
(-0.00247473 -0.043508 0)
(-0.000404755 -0.0409926 0)
(-0.0015489 -0.0435365 0)
(-0.000808225 -0.0507023 0)
(-0.000676124 -0.0497513 0)
(0.00196844 -0.0533666 0)
(0.00318949 -0.0513487 0)
(0.00295998 -0.0526887 0)
(0.000693432 -0.0493961 0)
(-0.00030393 -0.0481479 0)
(-0.000258974 -0.0483758 0)
(-0.00372107 -0.0467181 0)
(-0.00445509 -0.0466499 0)
(-0.00198104 -0.0470203 0)
(-0.00166772 -0.0479266 0)
(0.000592755 -0.0493474 0)
(6.08326e-05 -0.0510016 0)
(-0.00100462 -0.0507485 0)
(-0.000641665 -0.0493756 0)
(0.001208 -0.0483226 0)
(0.00241507 -0.0455883 0)
(0.000864361 -0.0478493 0)
(0.00120527 -0.0458813 0)
(0.000606254 -0.0443428 0)
(-0.00174428 -0.0426906 0)
(0.000711519 -0.04275 0)
(0.000107962 -0.0465731 0)
(-0.00229391 -0.0479724 0)
(-0.00184592 -0.0497189 0)
(0.00119551 -0.0489334 0)
(0.00297116 -0.0475984 0)
(0.000157806 -0.0501278 0)
(-9.38083e-05 -0.0528806 0)
(0.00204334 -0.0527009 0)
(-0.000614968 -0.0508504 0)
(3.87209e-06 -0.0486706 0)
(-0.000865593 -0.0495407 0)
(-0.0020945 -0.0495791 0)
(-0.00155441 -0.0504514 0)
(0.000610115 -0.0537766 0)
(-2.42576e-05 -0.0544993 0)
(-0.000816093 -0.0548454 0)
(-0.00103046 -0.0549423 0)
(-0.00184396 -0.0558536 0)
(-0.000429731 -0.0551379 0)
(0.00100824 -0.0561149 0)
(0.00317213 -0.0562947 0)
(0.00376307 -0.0545093 0)
(0.00135362 -0.057918 0)
(0.00154007 -0.0552229 0)
(0.00134192 -0.0534447 0)
(-0.000586066 -0.0494391 0)
(-0.00138694 -0.047603 0)
(-0.00177355 -0.0436882 0)
(-0.00280393 -0.0436114 0)
(-0.0040172 -0.0439375 0)
(-0.000523313 -0.0471186 0)
(0.000613488 -0.0477473 0)
(0.000188159 -0.0477592 0)
(-0.000722275 -0.047085 0)
(-0.000389365 -0.0469477 0)
(0.000935542 -0.0480442 0)
(0.00530176 -0.0499138 0)
(0.00280386 -0.0502919 0)
(-8.11313e-11 -5.10924e-05 0)
(-8.00725e-11 -5.10951e-05 0)
(-0.000973755 -0.00138654 0)
(-7.90274e-11 -5.10977e-05 0)
(0.000482652 -0.0135188 0)
(0.00423233 -0.00763284 0)
(-0.00296644 -0.0155362 0)
(-0.00230605 -0.022465 0)
(-0.0139256 -0.0200828 0)
(-0.0142387 0.00330744 0)
(-0.0209394 -0.0402913 0)
(-0.00750947 -0.0329114 0)
(-0.00238589 -0.0600934 0)
(-4.06868e-05 -0.0511916 0)
(0.00122657 -0.0559299 0)
(0.00141099 -0.052842 0)
(0.00327551 -0.0530839 0)
(0.00165392 -0.0513103 0)
(0.00164517 -0.0517283 0)
(0.000491207 -0.0518679 0)
(8.31611e-05 -0.0516262 0)
(-9.37625e-05 -0.0508697 0)
(3.75686e-05 -0.0509086 0)
(-0.000124126 -0.0495432 0)
(-0.000166568 -0.0475758 0)
(-7.96007e-05 -0.0494131 0)
(-0.00153775 -0.0514491 0)
(0.0010729 -0.0540789 0)
(-0.00108033 -0.0546384 0)
(-0.000675325 -0.0536179 0)
(0.00314246 -0.0505985 0)
(0.00262776 -0.0513176 0)
(0.00132906 -0.0470374 0)
(0.00127269 -0.0505429 0)
(-0.000668189 -0.0471202 0)
(-0.00122174 -0.0471344 0)
(-0.00113938 -0.047987 0)
(-0.000765328 -0.0513725 0)
(-0.000468122 -0.0518534 0)
(0.00109287 -0.0537889 0)
(0.00209723 -0.0487497 0)
(0.00129118 -0.0471691 0)
(-0.00151226 -0.0486251 0)
(-7.25306e-05 -0.0535634 0)
(0.000513458 -0.0514563 0)
(-0.000871584 -0.0521935 0)
(-0.00122491 -0.0507044 0)
(-0.00166247 -0.0469254 0)
(-0.00274132 -0.0476653 0)
(0.000169396 -0.0499112 0)
(0.00233222 -0.0525437 0)
(0.000718877 -0.0533769 0)
(0.00016872 -0.0549563 0)
(0.000635933 -0.0546991 0)
(0.00192958 -0.0562026 0)
(0.00153754 -0.0553237 0)
(0.00115809 -0.0548864 0)
(0.00192177 -0.0525427 0)
(0.00083854 -0.0539901 0)
(6.10604e-05 -0.052563 0)
(-0.000150011 -0.0510475 0)
(0.000369531 -0.0501436 0)
(-0.000981482 -0.0483324 0)
(-0.00311288 -0.0471719 0)
(-0.00394873 -0.0473975 0)
(-0.00226413 -0.0470498 0)
(-0.00318696 -0.0466776 0)
(6.4022e-05 -0.0500684 0)
(0.000538399 -0.0485672 0)
(-4.38508e-05 -0.0484177 0)
(5.32242e-05 -0.0478261 0)
(0.00211279 -0.0478654 0)
(0.00259664 -0.0482567 0)
(0.00415486 -0.0505816 0)
(0.00172835 -0.0468451 0)
(-4.90235e-11 -5.11082e-05 0)
(-4.84583e-11 -5.11103e-05 0)
(-7.79959e-11 -5.11003e-05 0)
(-4.78996e-11 -5.11123e-05 0)
(-0.00536284 -0.00518927 0)
(-0.00512591 -0.0106508 0)
(-0.00518696 -0.0105989 0)
(-0.00555396 -0.0114625 0)
(-0.00807224 -0.00942553 0)
(-0.0133815 -0.0140239 0)
(-0.0112413 -0.0307729 0)
(-0.00904265 -0.0365136 0)
(-0.00125263 -0.061726 0)
(-0.00156292 -0.0508246 0)
(-0.00134761 -0.0563688 0)
(-3.05106e-05 -0.0537578 0)
(0.00110551 -0.0543079 0)
(0.00171152 -0.0525747 0)
(0.000764319 -0.0544 0)
(0.0029742 -0.0547454 0)
(0.00195498 -0.0550127 0)
(0.000292589 -0.0550581 0)
(-8.1006e-05 -0.0551524 0)
(0.000330156 -0.053785 0)
(0.000129985 -0.0521049 0)
(-0.000373596 -0.0522414 0)
(-0.000557978 -0.052875 0)
(0.00284953 -0.0526746 0)
(0.000958417 -0.0548655 0)
(3.0523e-05 -0.0533692 0)
(-0.000328606 -0.0520876 0)
(0.000933369 -0.0520062 0)
(-0.00197241 -0.0502299 0)
(0.00183671 -0.0522993 0)
(0.000945262 -0.0537366 0)
(3.59953e-05 -0.0529636 0)
(-0.00256724 -0.0547469 0)
(-0.00194227 -0.0550618 0)
(-0.0011168 -0.0534546 0)
(-0.00136058 -0.0550132 0)
(-0.00113166 -0.051148 0)
(-0.00114501 -0.0497605 0)
(0.000423354 -0.0490111 0)
(0.000139653 -0.0527225 0)