/*--------------------------------*- C++ -*----------------------------------*\
  =========                 |
  \\      /  F ield         | OpenFOAM: The Open Source CFD Toolbox
   \\    /   O peration     | Website:  https://openfoam.org
    \\  /    A nd           | Version:  12
     \\/     M anipulation  |
\*---------------------------------------------------------------------------*/
FoamFile
{
    format      ascii;
    class       IOPosition;
    location    "1/lagrangian/cloud";
    object      positions;
}
// * * * * * * * * * * * * * * * * * * * * * * * * * * * * * * * * * * * * * //

5959
(
(4.70488e-10 0.5 0.49997 3.02005e-05) 0 7376 2
(4.77724e-10 0.5 0.499967 3.27935e-05) 0 7376 2
(1.31098e-09 0.5 0.000190822 0.499809) 0 7376 2
(1.32302e-09 0.5 0.0206366 0.479363) 0 7376 2
(1.33415e-09 0.5 0.0396997 0.4603) 0 7376 2
(1.28906e-09 0.5 0.0878256 0.412174) 0 7376 2
(1.34737e-09 0.5 0.0619741 0.438026) 0 7376 2
(1.08364e-09 0.5 0.133763 0.366237) 0 7376 2
(1.14408e-09 0.5 0.139725 0.360275) 0 7376 2
(1.20646e-09 0.5 0.10993 0.39007) 0 7376 2
(3.95746e-05 0.49998 0.328608 0.171373) 0 7375 1
(5.7601e-05 0.499971 0.23124 0.268732) 0 7375 1
(6.95008e-05 0.499965 0.212366 0.287599) 0 7375 1
(6.86527e-05 0.499966 0.17432 0.325646) 0 7375 1
(1.59321e-05 0.499992 0.0459353 0.454057) 0 7375 1
(1.1018e-07 0.18313 0.5 0.31687) 0 7375 2
(1.38979e-05 0.100479 0.499993 0.399514) 0 7375 2
(5.89986e-06 0.499997 0.399145 0.100852) 1 7377 1
(0.319893 0.340053 0.0340893 0.305964) 1 0 1
(0.500576 0.249712 0.02383 0.225882) 1 0 1
(0.277447 0.361277 0.13389 0.227387) 1 7377 1
(0.559459 0.22027 0.0355443 0.184726) 1 0 1
(0.490305 0.254848 0.0130932 0.241755) 1 7377 1
(0.165454 0.117673 0.417273 0.2996) 1 2 2
(0.293497 0.277835 0.0754168 0.353252) 2 2 2
(0.365442 0.317279 0.268377 0.0489022) 2 2 1
(0.0994849 0.450258 0.00396477 0.446293) 2 2 1
(0.105605 0.447197 0.301229 0.145968) 2 7378 1
(0.529826 0.235087 0.127505 0.107582) 2 5 2
(0.791586 0.0722922 0.104207 0.0319147) 2 7378 2
(0.0384528 0.480774 0.237749 0.243024) 2 4 1
(0.306305 0.103507 0.24334 0.346847) 4 6 2
(0.253746 0.373127 0.0394958 0.333631) 6 13 2
(0.221012 0.389494 0.291059 0.0984344) 6 12 1
(0.265101 0.367449 0.175917 0.191532) 8 17 2
(0.508893 0.245553 0.196697 0.0488559) 9 19 2
(0.0048418 0.497579 0.100121 0.397458) 11 23 2
(0.556639 0.221681 0.0397052 0.181975) 10 7386 1
(0.558255 0.220873 0.212798 0.00807416) 11 7387 1
(0.109473 0.445263 0.197222 0.248041) 11 22 1
(0.520167 0.162417 0.239916 0.0774996) 12 7388 2
(0.369077 0.315462 0.0935577 0.221904) 13 24 1
(0.288939 0.35553 0.219127 0.136404) 13 26 1
(0.440697 0.0687189 0.279652 0.210933) 14 7390 2
(0.212682 0.393659 0.261832 0.131827) 15 30 1
(0.418652 0.290674 0.176233 0.114441) 18 7394 1
(0.746409 0.126795 0.112011 0.0147846) 20 41 2
(0.548979 0.225511 0.0963485 0.129162) 23 47 2
(0.197172 0.319368 0.0820459 0.401414) 25 51 1
(0.31667 0.341665 0.052659 0.289006) 25 48 1
(0.199349 0.400326 0.147179 0.253146) 26 50 1
(0.301905 0.0331391 0.315909 0.349048) 29 59 1
(0.137242 0.431379 0.405106 0.0262732) 31 63 2
(0.146043 0.426978 0.363316 0.0636622) 108 67 2
(0.0942887 0.313883 0.452856 0.138972) 110 71 1
(0.00757473 0.496213 0.30375 0.192463) 108 215 1
(0.0449076 0.477546 0.229625 0.247921) 31 62 1
(0.45222 0.27389 0.229151 0.0447386) 33 7409 1
(0.364635 0.317683 0.262032 0.0556509) 34 68 1
(0.504212 0.00746303 0.247894 0.240431) 35 7411 2
(0.294606 0.352697 0.120554 0.232142) 37 75 2
(0.268732 0.365634 0.277324 0.0883102) 38 77 2
(0.266943 0.0104728 0.366529 0.356056) 39 78 2
(0.182518 0.408741 0.273076 0.135665) 41 83 2
(0.0111785 0.494411 0.0299124 0.464498) 43 87 2
(0.0844812 0.457759 0.0581651 0.399594) 119 235 1
(0.206512 0.396744 0.114913 0.281831) 119 237 1
(0.474659 0.0431745 0.26267 0.219496) 41 7417 2
(0.501334 0.231279 0.249333 0.0180541) 42 7418 2
(0.548522 0.225739 0.166391 0.0593476) 43 7419 1
(0.161358 0.419321 0.210562 0.208759) 44 86 1
(0.351812 0.324094 0.0747621 0.249332) 122 241 1
(0.373552 0.313224 0.247967 0.0652566) 44 88 1
(0.0764048 0.461798 0.419459 0.0423382) 48 97 2
(0.124572 0.437714 0.0218315 0.415883) 49 99 2
(7.90777e-10 0.5 0.49993 7.03294e-05) 75 7451 2
(7.9088e-10 0.5 0.499918 8.24373e-05) 75 7451 2
(9.1979e-10 0.5 0.0588196 0.44118) 0 7376 2
(1.06768e-09 0.223377 0.276623 0.5) 0 7376 1
(7.62075e-05 0.499962 0.178002 0.32196) 0 7375 1
(0.158163 0.420918 0.270073 0.150846) 0 7375 1
(0.0298979 0.485051 0.299102 0.185949) 0 7375 1
(0.0124887 0.385445 0.493756 0.108311) 0 7375 2
(1.0051e-09 0.5 0.0721203 0.42788) 75 7451 2
(0.0125112 0.322687 0.493744 0.171057) 0 7375 2
(0.284334 0.269112 0.357833 0.0887207) 0 7375 2
(1.33308e-09 0.5 0.179505 0.320495) 75 7451 2
(3.88296e-10 0.5 0.143242 0.356758) 75 7451 2
(4.98129e-10 0.5 0.136732 0.363268) 75 7451 2
(0.0339365 0.366448 0.483032 0.116584) 0 7375 2
(1.35921e-09 0.5 0.127018 0.372982) 75 7451 2
(1.08455e-09 0.5 0.0888051 0.411195) 75 7451 2
(1.04048e-09 0.5 0.0833645 0.416636) 75 7451 2
(0.0337472 0.0235274 0.483126 0.459599) 0 7375 2
(2.53082e-05 0.499987 0.277289 0.222699) 1 7377 1
(0.0500927 0.474954 0.38866 0.0862941) 0 0 1
(0.131507 0.346386 0.434247 0.0878608) 1 7377 2
(0.284186 0.357907 0.152096 0.205812) 1 0 1
(0.433979 0.28301 0.169264 0.113746) 1 0 1
(0.795145 0.102428 0.0618142 0.0406133) 1 0 1
(0.0956377 0.188362 0.452181 0.263819) 1 2 2
(0.087081 0.134219 0.45646 0.322241) 1 2 2
(0.0161644 0.10305 0.388868 0.491918) 2 2 2
(0.00925625 0.495372 0.207536 0.287836) 2 5 2
(0.213956 0.390231 0.393022 0.00279081) 77 5 1
(0.380983 0.309508 0.28605 0.0234584) 77 153 1
(0.558445 0.0524454 0.220778 0.168332) 76 151 2
(0.0499728 0.106783 0.36823 0.475014) 1 3 1
(0.163696 0.087455 0.418152 0.330697) 76 151 2
(0.212596 0.00679925 0.386903 0.393702) 76 152 1
(0.124777 0.277964 0.437612 0.159648) 76 151 2
(0.0395921 0.480204 0.0510795 0.429124) 80 157 1
(0.236776 0.381612 0.374288 0.00732437) 82 15 2
(0.33286 0.33357 0.227582 0.105987) 84 19 2
(0.324475 0.337762 0.0799839 0.257779) 85 167 1
(0.111616 0.202028 0.444192 0.242164) 87 25 1
(0.541224 0.229388 0.141204 0.0881838) 86 23 2
(0.258596 0.370702 0.230809 0.139893) 80 160 2
(0.0985899 0.450705 0.416157 0.0345483) 83 166 2
(0.337871 0.331064 0.28435 0.0467142) 87 171 1
(0.19171 0.274727 0.404145 0.129418) 91 33 1
(0.0601275 0.469936 0.0256443 0.444292) 94 185 1
(0.399453 0.0674284 0.300273 0.232845) 94 39 1
(0.336039 0.183804 0.331981 0.148177) 95 41 1
(0.12423 0.122453 0.437885 0.315432) 99 49 1
(0.00875715 0.0763728 0.419249 0.495621) 27 52 2
(0.0653181 0.467341 0.0697944 0.397547) 169 188 2
(0.370369 0.00488637 0.314816 0.309929) 96 191 2
(0.286494 0.294823 0.0619299 0.356753) 98 196 1
(0.118188 0.0173387 0.440906 0.423567) 99 197 2
(0.401347 0.299326 0.267534 0.0317921) 100 200 2
(0.151362 0.171352 0.252967 0.424319) 101 199 2
(0.00790727 0.350421 0.496046 0.145626) 103 205 2
(0.185215 0.0779839 0.329409 0.407393) 107 211 2
(0.332084 0.0160559 0.333958 0.317902) 108 215 2
(0.465528 0.267236 0.251722 0.0155141) 109 217 1
(0.0958709 0.398575 0.452065 0.0534896) 111 73 1
(0.0795767 0.460212 0.0754718 0.38474) 179 208 2
(0.0147363 0.200957 0.492632 0.291674) 180 210 1
(0.338315 0.330842 0.00864751 0.322195) 182 214 2
(0.49338 0.0590396 0.25331 0.194271) 183 216 1
(0.215091 0.116331 0.392454 0.276123) 184 218 1
(0.277262 0.0293241 0.332045 0.361369) 110 220 1
(0.437773 0.126303 0.154811 0.281113) 111 222 1
(0.130423 0.312788 0.434789 0.122001) 113 225 2
(0.542956 0.0203561 0.228522 0.208166) 115 229 2
(0.579553 0.0875656 0.210223 0.122658) 120 239 2
(0.102722 0.198175 0.448639 0.250464) 117 233 2
(0.436938 0.0128466 0.281531 0.268684) 116 231 2
(0.110039 0.444981 0.339089 0.105892) 193 236 2
(1.21489e-09 0.5 0.5 5.0604e-08) 150 7452 2
(1.21489e-09 0.5 0.5 5.04944e-08) 150 7452 2
(9.13566e-10 0.5 0.0348869 0.465113) 75 7451 2
(1.21489e-09 0.5 0.14379 0.35621) 150 7452 2
(1.18641e-09 0.5 0.101686 0.398314) 75 7451 2
(1.13519e-09 0.5 0.0949583 0.405042) 75 7451 2
(5.87288e-10 0.5 0.211641 0.288359) 75 7451 2
(5.95452e-10 0.5 0.273471 0.226529) 75 7451 2
(0.00201611 0.498992 0.034289 0.464703) 0 1 2
(7.70032e-10 0.5 0.362775 0.137225) 75 7451 2
(7.30464e-10 0.5 0.321193 0.178807) 75 7451 2
(0.0855972 0.457201 0.0673114 0.38989) 0 1 2
(7.66228e-10 0.5 0.356521 0.143479) 75 7451 2
(0.218679 0.39066 0.111437 0.279223) 75 149 1
(0.183752 0.408124 0.11587 0.292254) 75 149 1
(0.250998 0.249607 0.374501 0.124894) 75 149 2
(0.211103 0.394449 0.37921 0.0152389) 75 149 1
(0.0866177 0.456691 0.208247 0.248444) 75 7451 2
(0.0401666 0.479917 0.0540764 0.42584) 0 1 2
(0.0947108 0.0347031 0.452645 0.417942) 0 7375 2
(0.455344 0.167723 0.272328 0.104605) 0 7375 2
(0.476424 0.092322 0.261788 0.169466) 0 7375 2
(0.0720068 0.463997 0.322304 0.141693) 0 0 1
(0.111116 0.444442 0.258567 0.185876) 1 0 1
(0.0200364 0.489982 0.206505 0.283477) 0 0 1
(0.485089 0.257455 0.254867 0.00258806) 75 149 1
(0.427384 0.286308 0.157159 0.129149) 1 3 2
(0.20245 0.398775 0.106243 0.292532) 1 3 2
(0.300896 0.349552 0.338902 0.0106498) 1 0 1
(0.148917 0.159897 0.265645 0.425542) 1 3 1
(0.0650111 0.089049 0.467494 0.378445) 76 3 1
(0.0643829 0.467809 0.253168 0.214641) 75 149 1
(0.472854 0.239806 0.0237666 0.263573) 1 3 1
(0.0437191 0.0171778 0.460963 0.47814) 1 0 2
(0.00104608 0.499477 0.0307674 0.46871) 1 3 2
(0.144601 0.4277 0.200739 0.226961) 76 3 2
(0.682916 0.037093 0.158542 0.121449) 76 151 2
(0.0822791 0.45886 0.337734 0.121126) 151 152 2
(0.757689 0.121156 0.0892791 0.0318765) 151 152 2
(0.531874 0.234063 0.0884221 0.145641) 151 300 1
(0.00319942 0.125682 0.4984 0.372718) 151 152 1
(0.0106432 0.0942095 0.400469 0.494678) 77 151 2
(0.303417 0.348292 0.090198 0.258094) 77 154 2
(0.297981 0.279623 0.0713863 0.35101) 77 154 1
(0.285946 0.357027 0.184691 0.172336) 78 156 2
(0.23617 0.381915 0.281838 0.100077) 156 162 2
(0.140338 0.429831 0.324901 0.10493) 158 314 1
(0.29552 0.0954165 0.35224 0.256823) 159 168 1
(0.159138 0.0414913 0.37894 0.420431) 87 174 1
(0.239465 0.380268 0.2878 0.0924673) 90 177 1
(0.264242 0.367879 0.270464 0.0974152) 161 172 2
(0.289552 0.355224 0.218978 0.136246) 89 178 2
(0.0302455 0.418905 0.0659718 0.484877) 90 180 1
(0.20542 0.39729 0.346747 0.0505435) 161 321 2
(0.351668 0.0330216 0.291144 0.324166) 163 322 2
(0.297695 0.0769619 0.274191 0.351153) 164 324 2
(0.297675 0.0973105 0.253852 0.351163) 165 326 2
(0.562137 0.0595769 0.218932 0.159355) 165 328 2
(0.0250493 0.456881 0.030594 0.487475) 170 336 2
(0.490946 0.254527 0.163893 0.0906345) 173 344 1
(0.307345 0.346328 0.334394 0.0119337) 175 348 1
(0.268375 0.0436082 0.322204 0.365812) 101 202 1
(0.0191598 0.49042 0.167337 0.323084) 172 343 2
(0.184832 0.391482 0.407584 0.0161018) 248 345 1
(0.153775 0.423113 0.166421 0.256691) 175 349 2
(0.125945 0.19996 0.237068 0.437028) 175 349 1
(0.228086 0.262899 0.123058 0.385957) 176 351 1
(0.397075 0.073159 0.228304 0.301463) 177 353 1
(0.146073 0.426964 0.333836 0.0931277) 252 501 1
(0.233339 0.38333 0.332883 0.0504473) 179 357 2
(0.22878 0.38561 0.380706 0.0049035) 180 359 2
(0.221988 0.372318 0.389006 0.0166881) 256 361 1
(0.272559 0.275858 0.36372 0.0878624) 257 363 1
(0.0823147 0.296243 0.458843 0.162599) 258 365 1
(0.0384696 0.480765 0.385875 0.0948903) 184 367 2
(1.22147e-09 0.499998 1.79217e-06 0.5) 225 7453 1
(1.22148e-09 0.499998 1.80427e-06 0.5) 225 7453 1
(1.21489e-09 0.5 0.0438826 0.456117) 150 7452 2
(1.21307e-09 0.5 0.153336 0.346664) 225 7453 2
(1.21489e-09 0.5 0.00249755 0.497502) 150 7452 2
(0.0740182 0.140887 0.322104 0.462991) 75 7451 1
(1.21489e-09 0.5 0.0664273 0.433573) 150 7452 2
(0.0792607 0.18142 0.27895 0.46037) 75 7451 1
(0.063395 0.0627573 0.405545 0.468303) 75 7451 1
(0.0698713 0.0985852 0.366479 0.465064) 75 7451 1
(0.261212 0.262774 0.10662 0.369394) 75 7451 1
(0.360048 0.319976 0.155065 0.164911) 75 1 2
(0.182766 0.408617 0.0279905 0.380626) 75 1 2
(0.669594 0.0100926 0.165203 0.15511) 0 0 2
(0.0426345 0.478683 0.233149 0.245534) 225 299 2
(0.581737 0.140937 0.209132 0.0681945) 0 0 2
(0.127889 0.436056 0.433299 0.00275648) 75 149 1
(0.0620736 0.214471 0.468963 0.254492) 150 150 1
(0.0543692 0.101505 0.37131 0.472815) 75 150 1
(0.302914 0.348543 0.345823 0.00271936) 75 149 1
(0.463136 0.134547 0.268432 0.133885) 0 0 2
(0.147517 0.0525635 0.373678 0.426242) 1 0 2
(0.573524 0.0708448 0.213238 0.142393) 0 0 2
(0.764484 0.117758 0.0266764 0.0910813) 150 299 2
(0.519056 0.0575734 0.240472 0.182899) 0 0 2
(0.129292 0.0664469 0.435354 0.368907) 75 1 1
(0.249316 0.375342 0.375297 4.51508e-05) 225 447 1
(0.485655 0.00573065 0.257172 0.251442) 225 299 1
(0.310978 0.344511 0.327238 0.0172727) 225 447 1
(0.935676 0.00386854 0.0321622 0.0282936) 225 447 2
(0.0433075 0.478346 0.29862 0.179726) 225 447 1
(0.137953 0.431023 0.315763 0.11526) 225 447 1
(0.122522 0.438739 0.286371 0.152368) 225 447 1
(0.759683 0.0183366 0.120159 0.101822) 225 447 2
(0.23706 0.38147 0.341074 0.0403956) 226 301 2
(0.0897699 0.455115 0.235037 0.220078) 226 447 1
(0.357316 0.0329263 0.288416 0.321342) 226 447 2
(0.278299 0.294709 0.0661412 0.360851) 76 149 2
(0.0601878 0.167628 0.302278 0.469906) 75 150 1
(0.227989 0.0368904 0.349115 0.386005) 76 149 2
(0.657257 0.132664 0.171372 0.0387076) 150 150 1
(0.704345 0.147828 0.0966416 0.051186) 150 298 1
(0.134262 0.14692 0.28595 0.432869) 151 298 2
(0.609414 0.175619 0.0196739 0.195293) 151 298 2
(0.259271 0.21388 0.156484 0.370364) 151 301 1
(0.621951 0.04123 0.189024 0.147794) 151 300 2
(0.47752 0.0677729 0.26124 0.193467) 151 300 2
(0.19066 0.0998591 0.40467 0.304811) 151 300 2
(0.0949057 0.221511 0.231036 0.452547) 152 300 2
(0.701292 0.149354 0.0951719 0.0541821) 152 303 2
(0.547418 0.226291 0.131389 0.0949019) 153 305 2
(0.387841 0.0723822 0.233697 0.306079) 154 307 1
(0.102497 0.195829 0.448751 0.252922) 230 309 1
(0.0725038 0.463748 0.288571 0.175177) 158 315 2
(0.67987 0.160065 0.0110258 0.149039) 233 464 2
(0.288877 0.355561 0.297073 0.0584888) 234 466 2
(0.371547 0.273265 0.040961 0.314226) 236 470 1
(0.0457731 0.170274 0.477113 0.306839) 237 471 2
(0.400553 0.299724 0.056504 0.24322) 239 476 2
(0.321047 0.106769 0.339477 0.232707) 240 329 1
(0.122485 0.234546 0.438758 0.204212) 241 331 1
(0.00663883 0.496681 0.216149 0.280531) 169 337 2
(0.745518 0.0804363 0.127241 0.0468048) 244 485 2
(0.040189 0.0344283 0.479906 0.445477) 319 486 1
(0.294242 0.049873 0.303006 0.352879) 245 488 1
(0.00875373 0.115275 0.380348 0.495623) 247 489 2
(0.121515 0.439243 0.0291465 0.410096) 248 494 2
(0.0570935 0.471453 0.154389 0.317064) 249 495 1
(0.1835 0.124665 0.40825 0.283585) 324 496 1
(0.299514 0.335075 0.0151676 0.350243) 250 498 1
(0.270742 0.364629 0.134043 0.230586) 251 500 2
(0.0435783 0.28025 0.478211 0.197961) 327 502 1
(0.385442 0.166129 0.14115 0.307279) 253 504 1
(0.28347 0.358265 0.322199 0.0360666) 254 506 2
(0.262596 0.368702 0.329249 0.0394533) 255 508 2
(1.21093e-09 0.499994 6.15054e-06 0.5) 300 7454 1
(1.21101e-09 0.499994 6.26057e-06 0.5) 300 7454 1
(0.0263037 0.486848 0.0124049 0.474443) 225 7453 2
(1.20524e-09 0.5 0.161474 0.338526) 300 7454 2
(0.0249138 0.487543 0.486202 0.00134078) 225 299 2
(0.610055 0.0611083 0.133864 0.194973) 150 7452 1
(0.0538262 0.473087 0.130507 0.34258) 225 7453 2
(0.119915 0.440042 0.00820282 0.431839) 225 7453 2
(0.192427 0.166762 0.403786 0.237024) 225 299 1
(0.142209 0.227496 0.428896 0.2014) 150 150 1
(0.2203 0.0731535 0.38985 0.316696) 225 299 1
(0.240967 0.0368814 0.379516 0.342635) 225 299 1
(0.198818 0.00714678 0.400591 0.393444) 225 299 1
(0.156413 0.421794 0.421552 0.000241391) 225 447 1
(0.133637 0.433182 0.432542 0.000639838) 225 447 1
(0.124129 0.437936 0.431142 0.00679419) 225 447 1
(0.0316014 0.484199 0.0646887 0.419511) 226 447 1
(0.0569405 0.47153 0.0497772 0.421753) 226 447 1
(0.688197 0.155901 0.0401643 0.115737) 225 299 2
(0.0127004 0.178372 0.49365 0.315278) 150 150 1
(0.0496773 0.475161 0.0930667 0.382095) 226 447 1
(0.180841 0.40958 0.36195 0.0476293) 225 447 1
(1.2046e-09 0.5 0.0732315 0.426768) 300 7454 2
(1.20627e-09 0.5 0.275828 0.224172) 300 7454 2
(1.20729e-09 0.5 0.404813 0.0951875) 300 7454 2
(0.282181 0.35891 0.261234 0.0976751) 300 448 2
(0.589646 0.0933484 0.111829 0.205177) 300 7454 1
(0.388613 0.305693 0.0421331 0.26356) 300 448 2
(0.619277 0.0274665 0.190362 0.162895) 300 448 1
(0.00573359 0.159176 0.337957 0.497133) 300 597 1
(0.0478606 0.47607 0.291272 0.184798) 301 596 1
(0.0954199 0.421629 0.45229 0.0306614) 300 596 2
(0.0329179 0.483541 0.424493 0.0590479) 301 596 1
(0.147975 0.426012 0.383965 0.0420475) 301 596 1
(0.181853 0.279065 0.130008 0.409074) 301 596 2
(0.160035 0.419982 0.382479 0.0375033) 301 596 1
(0.200522 0.399739 0.3223 0.0774389) 376 599 2
(0.0994987 0.450251 0.244526 0.205725) 376 599 2
(0.909642 0.000130279 0.0451792 0.0450489) 301 598 2
(0.477931 0.16297 0.0980643 0.261034) 226 447 2
(0.635892 0.182054 0.179968 0.00208613) 301 596 1
(0.280954 0.359523 0.307938 0.0515845) 226 450 2
(0.655801 0.1721 0.130382 0.0417176) 226 301 2
(0.634192 0.182904 0.0187046 0.164199) 226 301 2
(0.48516 0.231406 0.25742 0.0260141) 226 449 2
(0.436646 0.212487 0.281677 0.0691896) 226 449 2
(0.0230667 0.235378 0.488467 0.253088) 226 449 2
(0.0436494 0.316157 0.478175 0.162018) 226 449 2
(0.193331 0.278059 0.125275 0.403335) 227 449 2
(0.631258 0.184371 0.0728105 0.11156) 227 452 2
(0.357253 0.0468811 0.321373 0.274492) 227 451 2
(0.385389 0.0645558 0.24275 0.307306) 228 454 1
(0.179258 0.0542113 0.410371 0.35616) 229 455 2
(0.366911 0.201471 0.115073 0.316544) 231 460 1
(0.321664 0.163321 0.339168 0.175847) 308 464 1
(0.0486336 0.338976 0.136707 0.475683) 311 616 2
(0.181563 0.0837195 0.409218 0.325499) 311 618 2
(0.296335 0.0453 0.351833 0.306532) 312 620 2
(0.327484 0.033511 0.302747 0.336258) 313 623 1
(0.217508 0.106058 0.391246 0.285188) 314 624 2
(0.305916 0.0695929 0.347042 0.277449) 315 626 2
(0.459355 0.0929134 0.177409 0.270322) 316 629 1
(0.410057 0.294972 0.220055 0.0749164) 317 631 2
(0.334749 0.332625 0.0744183 0.258207) 318 633 2
(0.0279268 0.0748947 0.411142 0.486037) 320 634 2
(0.213816 0.196784 0.196308 0.393092) 320 637 1
(0.280028 0.359986 0.187022 0.172964) 321 639 2
(0.185702 0.0525916 0.354557 0.407149) 322 638 2
(0.0344561 0.106319 0.482772 0.376453) 322 640 2
(0.172779 0.00147817 0.412132 0.413611) 324 642 2
(0.232042 0.383979 0.346044 0.0379351) 325 647 2
(0.272881 0.36356 0.145847 0.217713) 326 649 2
(0.252783 0.28034 0.0932682 0.373608) 327 651 1
(0.843907 0.0221962 0.0558502 0.0780464) 328 650 2
(0.36964 0.203759 0.111421 0.31518) 329 655 1
(1.21199e-09 0.499877 0.000122646 0.5) 375 7455 1
(1.21203e-09 0.499879 0.000121447 0.5) 375 7455 1
(0.0579677 0.471016 0.0208531 0.450163) 300 7454 2
(1.21457e-09 0.5 0.167381 0.332619) 375 7455 2
(0.130338 0.434831 0.172608 0.262223) 225 299 2
(0.0318678 0.484066 0.473552 0.010514) 300 448 2
(0.153053 0.423474 0.145206 0.278267) 225 299 2
(0.0518658 0.474067 0.0572912 0.416776) 300 7454 2
(0.0510471 0.474476 0.0582596 0.416217) 300 7454 2
(0.192941 0.40353 0.267962 0.135567) 300 448 2
(0.173095 0.413452 0.189962 0.223491) 300 448 2
(0.207975 0.396013 0.151815 0.244197) 300 448 2
(0.193003 0.403499 0.0862024 0.317296) 300 448 2
(0.296024 0.198882 0.351988 0.153106) 300 448 1
(0.362349 0.0597632 0.318825 0.259062) 300 448 1
(0.35152 0.0231964 0.32424 0.301044) 300 448 1
(0.334008 0.0090251 0.332996 0.323971) 300 448 1
(0.336049 0.00770695 0.331976 0.324269) 300 448 1
(0.280379 0.0324575 0.359811 0.327353) 300 448 1
(0.352126 0.0101622 0.323937 0.313775) 300 448 1
(0.301237 0.014627 0.349381 0.334755) 300 448 1
(0.32466 0.33767 0.334267 0.0034032) 300 596 1
(0.0170545 0.491473 0.318339 0.173133) 300 597 2
(1.21211e-09 0.263092 0.236908 0.5) 375 7455 1
(1.21216e-09 0.253736 0.246264 0.5) 375 7455 1
(1.2122e-09 0.286226 0.213774 0.5) 375 7455 1
(0.389966 0.141424 0.163593 0.305017) 375 7455 1
(0.538266 0.141099 0.0897679 0.230867) 375 7455 1
(0.100425 0.449787 0.0331304 0.416657) 450 7456 2
(0.221636 0.20386 0.389182 0.185322) 375 745 2
(0.214544 0.392728 0.0796229 0.313105) 450 746 2
(0.0237922 0.488104 0.327455 0.160649) 375 746 2
(0.0419834 0.223124 0.255884 0.479008) 376 745 2
(0.100581 0.400528 0.0491814 0.44971) 375 746 1
(0.111746 0.444127 0.23141 0.212717) 376 745 1
(0.0592939 0.470353 0.00334922 0.467004) 301 599 2
(0.296539 0.35173 0.120864 0.230866) 376 745 1
(0.141813 0.429094 0.379686 0.0494078) 376 599 2
(0.248109 0.375946 0.203634 0.172311) 376 599 2
(0.266342 0.366829 0.0276472 0.339182) 376 599 2
(0.639889 0.00318968 0.176866 0.180055) 301 599 1
(0.370059 0.314971 0.217542 0.0974283) 301 598 1
(0.120789 0.380395 0.439606 0.0592102) 301 598 2
(0.104062 0.0553875 0.392581 0.447969) 302 598 2
(0.262891 0.205999 0.162556 0.368554) 302 598 2
(0.435184 0.282408 0.17638 0.106028) 302 601 2
(0.43339 0.0593387 0.223966 0.283305) 302 601 1
(0.463099 0.268451 0.0240944 0.244356) 303 603 2
(0.0840808 0.181462 0.276498 0.45796) 304 602 2
(0.377876 0.0402494 0.311062 0.270813) 304 604 2
(0.399717 0.252593 0.0475478 0.300141) 305 607 1
(0.384975 0.307513 0.106719 0.200794) 306 609 2
(0.270217 0.0210564 0.343835 0.364892) 307 608 2
(0.212273 0.393863 0.112903 0.28096) 308 613 2
(0.171327 0.0888787 0.414336 0.325458) 385 617 1
(0.398383 0.300809 0.117864 0.182945) 387 770 2
(0.127421 0.1869 0.436289 0.24939) 387 769 2
(0.464535 0.152556 0.115177 0.267733) 388 772 1
(0.499747 0.250127 0.101597 0.14853) 389 774 2
(0.175968 0.151323 0.260693 0.412016) 390 773 2
(0.267014 0.0966249 0.366493 0.269868) 390 775 2
(0.39696 0.164557 0.136963 0.30152) 391 778 1
(0.31843 0.340785 0.310904 0.0298805) 392 780 2
(0.295395 0.352302 0.339563 0.012739) 393 782 2
(0.268511 0.196835 0.168909 0.365745) 394 784 1
(0.231785 0.0846896 0.299418 0.384107) 395 786 1
(0.105618 0.0693598 0.447191 0.377831) 396 787 2
(0.285592 0.357204 0.200019 0.157185) 398 792 2
(0.382991 0.308505 0.0480629 0.260442) 399 794 2
(0.0503538 0.269009 0.205814 0.474823) 400 793 2
(0.230643 0.384679 0.167528 0.217151) 475 796 2
(0.0552819 0.472359 0.201421 0.270938) 476 798 2
(0.0206231 0.489688 0.270372 0.219317) 402 800 2
(0.192099 0.0363326 0.367618 0.403951) 402 800 1
(0.585654 0.174617 0.0325555 0.207173) 403 802 1
(1.19885e-09 0.5 0.499139 0.000861192) 450 7456 2
(1.19894e-09 0.5 0.499205 0.000794955) 450 7456 2
(0.394693 0.302653 0.0593403 0.243313) 300 7454 2
(1.19903e-09 0.5 0.137039 0.362961) 450 7456 2
(0.00890916 0.495545 0.00985592 0.485689) 375 7455 2
(0.00847892 0.495761 0.0991417 0.396619) 375 7455 2
(0.00444827 0.497776 0.157733 0.340042) 375 7455 2
(0.00466285 0.497669 0.137413 0.360255) 375 7455 2
(0.00495357 0.497523 0.0872126 0.410311) 375 7455 2
(0.387381 0.30631 0.0952341 0.211075) 300 7454 2
(0.361341 0.319329 0.0450984 0.274231) 375 7455 2
(0.491959 0.254021 0.00618996 0.247831) 375 7455 2
(0.506633 0.246683 0.0320264 0.214657) 375 7455 2
(0.463804 0.268098 0.0938458 0.174252) 375 597 2
(0.764017 0.0962947 0.0216966 0.117991) 375 746 1
(0.682521 0.15874 0.07047 0.0882695) 375 745 1
(0.520544 0.239728 0.0312722 0.208456) 375 745 1
(0.397568 0.301216 0.0407026 0.260513) 375 745 1
(0.398067 0.0469596 0.254007 0.300967) 375 746 1
(0.306502 0.191238 0.346749 0.155511) 375 745 2
(0.21898 0.39051 0.0501606 0.34035) 375 745 1
(0.200026 0.321108 0.399987 0.0788791) 375 745 2
(0.190687 0.240035 0.404657 0.164622) 375 745 2
(0.655907 0.11781 0.172047 0.0542361) 450 746 1
(0.15867 0.420665 0.374499 0.0461664) 450 7456 2
(0.524862 0.0577045 0.179865 0.237569) 450 895 1
(0.296256 0.208699 0.351872 0.143173) 450 894 2
(0.0593426 0.0601068 0.410222 0.470329) 375 746 1
(0.19664 0.0979599 0.30372 0.40168) 451 894 2
(0.147876 0.136197 0.289865 0.426062) 451 894 2
(0.357373 0.321313 0.284732 0.0365814) 376 745 1
(0.504986 0.247507 0.0194275 0.22808) 451 748 2
(0.454171 0.272914 0.1971 0.0758145) 451 748 2
(0.720225 0.139888 0.0152918 0.124596) 451 748 2
(0.458084 0.270958 0.219921 0.051037) 451 748 2
(0.11342 0.0380453 0.44329 0.405245) 451 748 1
(0.349833 0.0595596 0.325084 0.265524) 451 748 1
(0.142622 0.0308288 0.428689 0.39786) 451 748 1
(0.0944108 0.0357373 0.452795 0.417057) 376 747 2
(0.29666 0.129642 0.35167 0.222028) 376 747 2
(0.26983 0.155564 0.365085 0.209521) 376 747 2
(0.139578 0.366647 0.430211 0.0635646) 376 599 1
(0.27912 0.175099 0.36044 0.185341) 376 599 1
(0.0749396 0.46253 0.265446 0.197084) 376 747 1
(0.327622 0.336189 0.0125037 0.323685) 377 747 1
(0.922461 0.0387695 0.0196012 0.0191683) 377 747 1
(0.377872 0.097347 0.311064 0.213717) 377 749 2
(0.569178 0.183857 0.0315537 0.215411) 378 752 1
(0.499646 0.182063 0.0681138 0.250177) 379 754 1
(0.375207 0.2235 0.0888966 0.312396) 380 756 1
(0.312576 0.250653 0.0930592 0.343712) 381 758 1
(0.341325 0.271877 0.057461 0.329337) 382 760 1
(0.275243 0.307657 0.0547214 0.362379) 383 762 1
(0.232786 0.356707 0.383607 0.0268999) 384 763 2
(0.227957 0.251509 0.134513 0.386022) 386 768 1
(0.403817 0.0855587 0.212533 0.298091) 463 921 1
(0.435589 0.282205 0.233652 0.0485536) 464 923 2
(0.284557 0.0741793 0.283542 0.357721) 465 922 2
(0.403359 0.031564 0.29832 0.266756) 465 924 2
(0.529135 0.235433 0.096684 0.138749) 466 927 2
(0.248165 0.056341 0.375917 0.319576) 541 927 1
(0.0264477 0.180506 0.486776 0.30627) 542 929 1
(0.387097 0.251942 0.0545093 0.306452) 468 931 1
(0.478667 0.256406 0.00426004 0.260666) 469 933 1
(0.291828 0.354086 0.332912 0.0211739) 470 935 2
(0.0269588 0.294633 0.486521 0.191887) 546 937 1
(0.121901 0.317097 0.439049 0.121952) 547 939 1
(0.0372728 0.481364 0.162339 0.319025) 548 1087 1
(0.439497 0.258374 0.0218776 0.280251) 473 941 1
(0.409473 0.295264 0.01346 0.281804) 474 943 2
(0.433188 0.283406 0.242322 0.0410835) 549 943 2
(0.220142 0.389929 0.0343415 0.355587) 550 1091 1
(0.267395 0.0303934 0.366303 0.335909) 550 945 1
(0.278201 0.282423 0.3609 0.0784763) 551 947 1
(0.412258 0.163771 0.1301 0.293871) 477 949 1
(1.21372e-09 0.5 0.5 1.67185e-07) 525 7457 2
(1.21373e-09 0.5 0.5 1.67461e-07) 525 7457 2
(1.21368e-09 0.5 0.0445011 0.455499) 450 7456 2
(1.2139e-09 0.5 0.0999981 0.400002) 525 7457 2
(1.21369e-09 0.5 0.0116871 0.488313) 450 7456 2
(0.548194 0.21109 0.225903 0.0148131) 450 746 1
(0.0304511 0.484774 0.385632 0.0991426) 300 597 2
(0.586724 0.103161 0.206638 0.103477) 450 746 1
(0.598403 0.0349202 0.200799 0.165879) 450 746 1
(0.417277 0.0663525 0.225009 0.291362) 375 7455 1
(0.150933 0.339309 0.424533 0.0852247) 450 894 2
(0.12189 0.34326 0.439055 0.0957951) 450 894 2
(0.110427 0.334462 0.444787 0.110325) 450 894 2
(0.119581 0.328359 0.440209 0.111851) 450 894 2
(0.114337 0.284377 0.442832 0.158454) 450 894 2
(0.130897 0.293597 0.434552 0.140955) 450 894 2
(1.21393e-09 0.5 0.0480332 0.451967) 525 7457 2
(0.294088 0.352956 0.269129 0.0838274) 525 895 2
(0.389327 0.107554 0.305336 0.197783) 525 895 1
(0.133647 0.303815 0.433176 0.129362) 450 894 2
(0.150279 0.288198 0.424861 0.136662) 450 894 2
(0.167883 0.320878 0.416058 0.0951798) 450 894 2
(0.190175 0.323717 0.404912 0.0811952) 450 894 2
(0.37149 0.0177319 0.314255 0.296523) 525 895 1
(0.320996 0.114132 0.339502 0.22537) 525 1043 2
(0.317493 0.122983 0.341254 0.21827) 525 1043 2
(0.38879 0.0909764 0.305605 0.214628) 525 1043 2
(1.21025e-09 0.5 0.186616 0.313384) 600 7458 2
(1.21035e-09 0.5 0.0998353 0.400165) 600 7458 2
(0.402788 0.298606 0.137146 0.161459) 526 897 2
(0.320044 0.339978 0.0242604 0.315717) 526 897 2
(0.168611 0.415694 0.037561 0.378133) 600 7458 2
(0.595925 0.202037 0.0486501 0.153387) 526 897 2
(0.225881 0.378277 0.38706 0.00878255) 526 897 1
(0.017595 0.255253 0.491203 0.235949) 451 896 2
(0.264928 0.208449 0.367536 0.159086) 451 896 2
(0.0270695 0.0838292 0.486465 0.402636) 451 896 2
(0.0157298 0.10367 0.492135 0.388465) 451 896 2
(0.118939 0.379535 0.44053 0.0609959) 526 1045 2
(0.0189282 0.210168 0.490536 0.280368) 451 896 2
(0.10675 0.446625 0.44408 0.0025452) 527 899 2
(0.0388343 0.0530297 0.480583 0.427553) 376 747 2
(0.297603 0.351198 0.34436 0.00683801) 452 750 2
(0.530575 0.234713 0.0376039 0.197109) 452 899 2
(0.855385 0.0666301 0.00567758 0.0723076) 452 899 1
(0.444722 0.186683 0.277639 0.0909558) 452 898 2
(0.793608 0.0586382 0.0445578 0.103196) 453 898 2
(0.76169 0.102971 0.0161837 0.119155) 454 903 1
(0.476983 0.0534631 0.208046 0.261509) 455 905 1
(0.0373475 0.17491 0.481326 0.306416) 456 906 2
(0.300521 0.290535 0.0592048 0.34974) 458 911 1
(0.0209007 0.48955 0.315207 0.174342) 534 1061 1
(0.370996 0.314502 0.0515968 0.262905) 460 915 2
(0.237567 0.381216 0.101278 0.279938) 461 917 2
(0.232046 0.383977 0.0161914 0.367785) 462 919 2
(0.129608 0.0762427 0.435196 0.358953) 462 918 2
(0.621051 0.00360205 0.189474 0.185872) 538 1069 2
(0.464778 0.213924 0.0536871 0.267611) 539 1072 1
(0.272506 0.363747 0.0125153 0.351232) 540 1074 2
(0.456713 0.113755 0.157888 0.271643) 540 1074 1
(0.0221475 0.488926 0.140119 0.348807) 616 1222 1
(0.238907 0.267779 0.380546 0.112767) 616 1076 1
(0.278026 0.360987 0.147772 0.213215) 617 1078 2
(0.413367 0.293317 0.137785 0.155532) 543 1080 2
(0.178767 0.293684 0.410617 0.116933) 618 1080 1
(0.302685 0.292388 0.0562693 0.348657) 544 1082 1
(0.476733 0.162442 0.0991916 0.261634) 545 1084 1
(0.0601562 0.469922 0.376958 0.0929638) 620 1232 1
(0.248329 0.166661 0.375836 0.209175) 621 1086 1
(0.249376 0.375312 0.0855527 0.289759) 622 1088 2
(0.267148 0.366426 0.0205814 0.345845) 623 1236 1
(0.064047 0.467977 0.351657 0.116319) 623 1238 1
(0.244666 0.377667 0.0609566 0.31671) 625 1094 2
(0.28814 0.35593 0.19779 0.15814) 626 1096 2
(0.585303 0.207348 0.0996668 0.107682) 552 949 2
(1.19525e-09 0.499417 0.000582684 0.5) 600 7458 1
(1.1956e-09 0.499465 0.000534685 0.5) 600 7458 1
(1.16135e-09 0.5 0.135552 0.364448) 525 7457 2
(1.19595e-09 0.5 0.0296335 0.470366) 600 7458 2
(0.164186 0.417907 0.243785 0.174122) 525 895 2
(0.0310758 0.484462 0.00317905 0.481283) 525 7457 2
(0.164183 0.417908 0.412327 0.00558167) 450 895 2
(0.218876 0.247808 0.390562 0.142754) 525 1043 2
(0.205819 0.397091 0.0539507 0.34314) 525 895 2
(0.186279 0.25755 0.40686 0.14931) 525 1043 2
(0.17859 0.243447 0.410705 0.167258) 525 1043 2
(0.206446 0.160437 0.396777 0.23634) 525 1043 2