/*--------------------------------*- C++ -*----------------------------------*\
  =========                 |
  \\      /  F ield         | OpenFOAM: The Open Source CFD Toolbox
   \\    /   O peration     | Website:  https://openfoam.org
    \\  /    A nd           | Version:  12
     \\/     M anipulation  |
\*---------------------------------------------------------------------------*/
FoamFile
{
    format      ascii;
    class       vectorField;
    location    "1/lagrangian/cloud";
    object      U;
}
// * * * * * * * * * * * * * * * * * * * * * * * * * * * * * * * * * * * * * //


5959
(
(-6.43289e-10 -1.17754e-06 0)
(-1.24151e-09 -1.2022e-06 0)
(-2.269e-09 -4.06187e-06 0)
(-3.00031e-09 -4.10228e-06 0)
(-3.69255e-09 -4.13964e-06 0)
(-4.36126e-09 -4.23069e-06 0)
(-4.95993e-09 -4.18375e-06 0)
(-5.57785e-09 -4.31786e-06 0)
(-6.11827e-09 -4.29772e-06 0)
(-6.62468e-09 -4.27663e-06 0)
(-5.84395e-06 -0.000232406 0)
(-8.40275e-06 -0.000245235 0)
(-1.00494e-05 -0.000258693 0)
(-9.83345e-06 -0.000273445 0)
(-2.08531e-06 -0.000293406 0)
(3.58821e-07 -0.000293785 0)
(-4.32203e-06 -0.000306062 0)
(2.95121e-05 -3.19533e-05 0)
(-0.00308889 0.0160404 0)
(-0.00462903 0.0258825 0)
(0.00832276 0.0253561 0)
(-0.00620979 0.0297517 0)
(-0.0079237 0.027803 0)
(0.00181416 0.0320736 0)
(0.00395828 0.034957 0)
(0.00749905 0.035246 0)
(0.00776581 0.033771 0)
(0.000647847 0.0272505 0)
(0.00991615 0.0267478 0)
(0.00626722 0.0139179 0)
(0.00172157 0.0225577 0)
(-0.00156702 -0.0272662 0)
(0.000503928 -0.0245405 0)
(0.00019046 -0.0278108 0)
(0.000429081 -0.0266185 0)
(0.000808144 -0.0242798 0)
(3.18969e-05 -0.0220959 0)
(6.29967e-05 -0.0288554 0)
(-0.000341456 -0.0251363 0)
(2.82069e-05 -0.025283 0)
(-0.000279663 -0.0254861 0)
(-0.000375687 -0.0260644 0)
(0.000739139 -0.0264183 0)
(0.00060216 -0.0275881 0)
(-0.000227856 -0.0316971 0)
(2.05889e-05 -0.0298176 0)
(0.000381904 -0.0209995 0)
(0.000855021 -0.0210014 0)
(0.000258194 -0.0166433 0)
(-0.000353144 -0.0244866 0)
(-0.000740934 -0.0264213 0)
(-0.000291101 -0.020336 0)
(-0.000961841 -0.0187419 0)
(-0.00115633 -0.0151397 0)
(0.000242547 -0.0162977 0)
(-0.000918812 -0.0144639 0)
(-0.00120954 -0.0234052 0)
(-0.000608875 -0.0273683 0)
(0.000852153 -0.0270882 0)
(-0.000299485 -0.0249182 0)
(0.000856138 -0.0173316 0)
(0.000444715 -0.0212446 0)
(0.000112116 -0.0221393 0)
(0.00189797 -0.0164796 0)
(-0.00018692 -0.014241 0)
(0.000490212 -0.0145457 0)
(-0.00231525 -0.0132951 0)
(0.000820789 -0.0222855 0)
(9.18752e-05 -0.0243427 0)
(-5.09168e-05 -0.0220179 0)
(-0.000338616 -0.022111 0)
(0.00081017 -0.0137878 0)
(0.00115267 -0.0205478 0)
(0.00214164 -0.0127628 0)
(0.0029618 -0.0100882 0)
(-1.08188e-10 -2.26533e-06 0)
(-2.09525e-10 -2.26562e-06 0)
(2.59449e-10 -2.5477e-06 0)
(-7.2297e-10 -3.06876e-06 0)
(-1.18705e-05 -0.000312201 0)
(-0.0170602 0.0106803 0)
(-0.00294956 0.00195076 0)
(-0.00040958 0.000149435 0)
(-3.1809e-10 -3.00398e-06 0)
(-0.000427007 0.000146444 0)
(-0.0303194 0.0195951 0)
(-4.82908e-10 -4.13099e-06 0)
(-5.20102e-10 -8.72854e-07 0)
(-6.35077e-10 -1.25333e-06 0)
(-0.00121838 0.00122592 0)
(-8.65885e-10 -4.22041e-06 0)
(-9.03816e-10 -3.27704e-06 0)
(-9.78533e-10 -3.12537e-06 0)
(-0.00123006 0.0012514 0)
(0.000139152 -2.59601e-06 0)
(-0.0128802 0.00490921 0)
(-0.0260363 0.0281718 0)
(0.00935299 -0.0162709 0)
(0.002792 0.0151926 0)
(0.00379653 0.0193716 0)
(0.00210853 0.0302711 0)
(0.00221454 0.0317144 0)
(0.00619888 0.0385483 0)
(0.0155038 0.0291081 0)
(0.0213035 0.020928 0)
(0.0263515 0.0090863 0)
(-0.000341478 0.0150686 0)
(-0.00242522 0.0264866 0)
(0.0122062 -0.0106077 0)
(0.0110377 -0.0120005 0)
(0.0118464 -0.00290015 0)
(0.000361541 -0.0220538 0)
(-0.000257523 -0.0257238 0)
(0.000167569 -0.0266275 0)
(-0.00105008 -0.0281403 0)
(-0.000263871 -0.0197781 0)
(-0.000554055 -0.0252387 0)
(0.00286768 -0.0280466 0)
(-0.000403272 -0.0337097 0)
(0.000696145 -0.0239028 0)
(-0.000304715 -0.0237266 0)
(-0.000355799 -0.0192796 0)
(-0.000396023 -0.0182409 0)
(-0.000362749 -0.0201551 0)
(2.64111e-05 -0.0187691 0)
(-0.000765459 -0.0208834 0)
(7.67011e-05 -0.0252858 0)
(-0.000538297 -0.0243761 0)
(0.000216472 -0.0257391 0)
(0.000825873 -0.0201718 0)
(0.00058881 -0.0207046 0)
(0.000463317 -0.0199929 0)
(-0.0020715 -0.0219674 0)
(-0.000858957 -0.0249675 0)
(-0.000213586 -0.0194121 0)
(0.000234571 -0.0148753 0)
(-0.000316389 -0.0157591 0)
(-0.00067981 -0.0218772 0)
(-0.000956196 -0.0231482 0)
(-0.000600393 -0.0250166 0)
(0.00129162 -0.0264878 0)
(0.00167181 -0.0230911 0)
(0.00045093 -0.0249119 0)
(0.000512401 -0.0225357 0)
(-0.000536875 -0.0285162 0)
(0.0011128 -0.0216571 0)
(-0.00239805 -0.0129119 0)
(-0.00401516 -0.0201822 0)
(-0.00163586 -0.024135 0)
(-0.00349848 -0.0199909 0)
(-1.48674e-13 -3.71876e-06 0)
(-1.48467e-13 -3.71877e-06 0)
(-1.03481e-09 -2.68821e-06 0)
(-1.48261e-13 -3.71877e-06 0)
(-1.18146e-09 -3.62705e-06 0)
(-1.24888e-09 -3.45095e-06 0)
(-1.45139e-09 -4.54012e-06 0)
(-1.28123e-09 -1.58965e-06 0)
(-0.000735566 -0.000696197 0)
(-1.40996e-09 -2.19285e-06 0)
(-1.47067e-09 -2.05618e-06 0)
(-0.0155265 0.0078401 0)
(-1.5544e-09 -2.17961e-06 0)
(-0.0862887 0.00368849 0)
(-0.0843796 0.00330959 0)
(-0.0845828 -0.0125448 0)
(-0.0848792 0.0211976 0)
(-0.00959604 0.00226336 0)
(-0.00749609 0.00322914 0)
(-0.00960974 0.00796627 0)
(-0.0481706 0.0312948 0)
(-0.0474515 0.0306416 0)
(-0.0144584 0.00486157 0)
(-0.00494681 0.00241127 0)
(-0.0162998 0.00814666 0)
(-0.0844507 0.0251191 0)
(-0.00479981 0.0406118 0)
(-0.0274896 0.0369535 0)
(0.0222134 0.00930142 0)
(0.0152396 0.0276719 0)
(0.0202456 0.0302888 0)
(-0.077363 0.0102757 0)
(0.00170232 0.0403585 0)
(0.00614173 0.00403207 0)
(0.00689634 0.0434087 0)
(0.0366592 0.0383944 0)
(-0.0041035 0.0202983 0)
(-0.0516801 -0.0389406 0)
(-0.0449731 -0.0438175 0)
(0.00652007 -0.0266478 0)
(0.00430474 -0.0212727 0)
(0.0220371 -0.00723045 0)
(0.0227074 -0.00523167 0)
(0.0195739 -0.00739399 0)
(0.0118417 -0.0260563 0)
(0.00119789 -0.0333677 0)
(0.0012829 -0.032342 0)
(0.000478425 -0.0318495 0)
(0.00106773 -0.0237842 0)
(-0.00280495 -0.0261547 0)
(-0.000465482 -0.0321984 0)
(-0.0016017 -0.0312257 0)
(-0.0017759 -0.0264274 0)
(0.00083797 -0.0346045 0)
(-0.000335859 -0.0373958 0)
(-0.000610365 -0.036605 0)
(-0.00273393 -0.0318051 0)
(-0.00282637 -0.0302833 0)
(-0.00102059 -0.0302669 0)
(-0.000361279 -0.0269983 0)
(0.00116036 -0.0195891 0)
(0.000667259 -0.0199619 0)
(-0.00123338 -0.0330305 0)
(7.02623e-05 -0.0298623 0)
(-0.000385712 -0.0264357 0)
(0.00083852 -0.0253074 0)
(-0.000977978 -0.0286133 0)
(-0.000164195 -0.0335207 0)
(0.000539174 -0.0338821 0)
(-2.36754e-05 -0.029491 0)
(-0.000761837 -0.0306983 0)
(-0.00013608 -0.0336921 0)
(-0.000479583 -0.0340811 0)
(0.00132992 -0.0337074 0)
(0.00141986 -0.0304275 0)
(3.78942e-13 -3.74312e-06 0)
(3.76442e-13 -3.74317e-06 0)
(-1.48056e-13 -3.71877e-06 0)
(3.72631e-13 -3.71413e-06 0)
(-1.47851e-13 -3.71877e-06 0)
(-0.00154383 0.00200414 0)
(-1.47646e-13 -3.71877e-06 0)
(-0.00194489 0.00212642 0)
(-0.000622548 0.00201474 0)
(-0.0011557 0.00216461 0)
(-0.0205836 0.00509709 0)
(-0.0106716 0.00700731 0)
(-0.00821062 0.00671292 0)
(-0.0931814 0.0517009 0)
(-0.00990335 0.00259241 0)
(-0.0703802 0.0405174 0)
(-0.0620477 0.021588 0)
(-0.032359 0.0113936 0)
(-0.0614024 -0.0146276 0)
(-0.0673775 0.0252696 0)
(-0.0606198 0.0320964 0)
(0.00767893 -0.0106443 0)
(-0.0640133 0.0364953 0)
(-0.0287903 -0.00758608 0)
(-0.0569802 0.0313018 0)
(-0.0169278 0.011299 0)
(-0.0126552 -0.00945835 0)
(-0.00256947 -0.0125667 0)
(-0.00145241 -0.0167811 0)
(0.00884747 0.000282339 0)
(-0.00597011 -0.0120305 0)
(-0.00352267 -0.0192106 0)
(-0.00738731 -0.00923416 0)
(0.00343201 6.43443e-05 0)
(-0.0223752 -0.0098992 0)
(-0.00719719 -0.0181843 0)
(-0.0203818 0.0230939 0)
(-0.0367174 0.0230653 0)
(-0.0516159 -0.0112753 0)
(-0.0277541 0.00404283 0)
(-0.0316093 0.00448145 0)
(-0.02584 -0.0166177 0)
(-0.0339308 -0.0374437 0)
(-0.0958301 -0.042535 0)
(-0.0155468 -0.0214434 0)
(-0.022005 -0.0264969 0)
(-0.0349608 -0.0214061 0)
(-0.00388485 -0.0187541 0)
(0.00959194 -0.0204225 0)
(-0.00369179 -0.0290044 0)
(0.00110043 -0.0444218 0)
(-0.000431913 -0.0416022 0)
(-0.000779514 -0.0365578 0)
(-0.000829925 -0.0373726 0)
(0.00140233 -0.0389928 0)
(-0.000885993 -0.0352794 0)
(0.00108852 -0.0354624 0)
(-0.00033985 -0.0364659 0)
(-0.000696308 -0.0365563 0)
(-0.00152242 -0.0347387 0)
(-0.00080131 -0.0347358 0)
(-0.00108155 -0.0303895 0)
(-0.0017519 -0.0323415 0)
(-0.000757957 -0.0331638 0)
(-0.0010166 -0.0362494 0)
(-4.64982e-05 -0.0374651 0)
(0.00160038 -0.035504 0)
(7.05268e-05 -0.031196 0)
(0.00140394 -0.0370006 0)
(0.00115936 -0.0353487 0)
(-0.000231769 -0.0376376 0)
(0.000280997 -0.035456 0)
(0.000677386 -0.0352015 0)
(-0.000669187 -0.0378949 0)
(-0.000450319 -0.0375029 0)
(-1.9105e-13 -3.70928e-06 0)
(-1.88342e-13 -3.70951e-06 0)
(0.00037956 -0.000650912 0)
(-4.47765e-11 -3.68961e-06 0)
(0.000492748 -0.000658415 0)
(0.00985367 -0.00276958 0)
(0.000445191 -0.000736283 0)
(0.000984924 -0.000768685 0)
(-0.0218307 0.00322884 0)
(-0.0317591 0.00268522 0)
(-0.0217911 0.00673333 0)
(-0.022594 0.00643943 0)
(-0.0252542 0.00509366 0)
(-0.00595211 -0.0195695 0)
(-0.00527461 -0.0206484 0)
(-0.0147543 -0.00967375 0)
(-0.0125217 -0.00181721 0)
(-0.0215532 -0.00968752 0)
(0.00443338 -0.00273439 0)
(-0.0318293 0.00603936 0)
(-0.0185736 -0.0104586 0)
(-0.00419878 -0.0198667 0)
(-8.87218e-11 -3.68738e-06 0)
(-1.32089e-10 -3.69311e-06 0)
(-1.74842e-10 -3.69659e-06 0)
(0.00131166 -0.000295457 0)
(-0.0131745 0.00277606 0)
(-0.0100243 0.00237924 0)
(-0.00939244 0.00306553 0)
(-0.00298733 0.0058057 0)
(-0.0204838 0.00403189 0)
(-0.012883 0.00279281 0)
(-0.0147024 0.00224126 0)
(-0.016157 0.00141721 0)
(-0.0149633 0.00034855 0)
(-0.0109193 0.0011653 0)
(-0.00663258 -0.00308458 0)
(-0.00508328 -0.00355748 0)
(-0.00212262 -0.00265165 0)
(0.00228738 0.00222557 0)
(0.00148751 -0.000507854 0)
(-0.0219692 0.00561843 0)
(-0.0351075 -0.00180704 0)
(-0.0260111 -0.00796707 0)
(-0.0288625 -0.0047417 0)
(-0.0274294 -0.002206 0)
(-0.00994682 -0.00762943 0)
(-0.0117044 -0.00577606 0)
(-0.00428898 -0.0135594 0)
(-0.00681552 -0.0124798 0)
(-0.00394096 -0.0182295 0)
(-0.00219641 -0.0369603 0)
(-0.000345968 -0.0385126 0)
(-5.0834e-05 -0.0390812 0)
(-0.000290254 -0.0344531 0)
(-7.93521e-05 -0.0324571 0)
(-0.000445672 -0.032597 0)
(-0.00106834 -0.0342577 0)
(-0.000508822 -0.0360394 0)
(-0.00124947 -0.0368865 0)
(-0.00177531 -0.0352744 0)
(-0.000482623 -0.0363192 0)
(-0.000531667 -0.0384032 0)
(0.000214753 -0.0394087 0)
(0.000568235 -0.0333583 0)
(0.000233841 -0.03358 0)
(-0.00070158 -0.039511 0)
(-0.000285476 -0.0388896 0)
(0.000777559 -0.0381029 0)
(0.00196286 -0.0380452 0)
(-0.000287475 -0.038329 0)
(0.000106418 -0.0384113 0)
(0.000357333 -0.0344046 0)
(0.00144686 -0.037449 0)
(0.000550305 -0.0381545 0)
(-1.16123e-13 -3.7118e-06 0)
(-1.14869e-13 -3.71193e-06 0)
(-0.00347567 0.00278493 0)
(-2.58351e-11 -3.72066e-06 0)
(-0.0116227 0.00233249 0)
(-0.00102629 -0.000346574 0)
(-0.00849488 -0.00143989 0)
(0.000611393 0.00124329 0)
(-0.00387078 0.00237188 0)
(0.000666677 0.00133708 0)
(0.000844263 0.000755973 0)
(-0.0104341 0.00211054 0)
(0.000598628 -0.000138343 0)
(0.00106932 0.00139188 0)
(0.00124684 0.00182503 0)
(0.00153338 0.00186776 0)
(0.00178595 0.00178353 0)
(0.00189497 0.00173216 0)
(0.00217348 0.000908168 0)
(0.0020187 0.00168124 0)
(0.00233073 0.000884442 0)
(0.00241205 0.00128694 0)
(-0.00351641 0.0056826 0)
(-2.55419e-11 -3.71219e-06 0)
(-2.52653e-11 -3.71232e-06 0)
(-2.49916e-11 -3.71245e-06 0)
(-0.0037479 0.00270321 0)
(-0.00617839 1.25367e-05 0)
(-0.00231877 0.00143659 0)
(-0.0124558 -0.00163982 0)
(-0.00655796 0.00168036 0)
(-0.00367 -0.000986387 0)
(-0.0116959 -0.00175108 0)
(-0.00441932 0.00438789 0)
(-0.0178531 0.000649945 0)
(-0.0162855 -0.0036307 0)
(-0.016845 -0.000885481 0)
(-0.00842402 -0.00308566 0)
(-0.00468687 -0.00413988 0)
(-0.00355494 -0.00724878 0)
(-0.00449329 -0.000707751 0)
(-0.00681209 -0.00283512 0)
(-0.00370279 -0.00523658 0)
(-0.00181324 -0.00764383 0)
(-0.00311295 -0.00866902 0)
(0.00380928 -0.013929 0)
(0.00190139 -0.0199181 0)
(0.00106303 -0.0381547 0)
(-0.000509347 -0.0385966 0)
(-0.000320378 -0.0366554 0)
(-0.000938032 -0.0361099 0)
(-0.000601902 -0.037702 0)
(-0.000506525 -0.0359427 0)
(0.000244361 -0.0322805 0)
(0.000969863 -0.0325974 0)
(0.0006234 -0.0322016 0)
(-0.000230106 -0.031325 0)
(0.000226885 -0.0324373 0)
(7.0434e-05 -0.0367492 0)
(-0.000413863 -0.035498 0)
(-0.0013005 -0.0331146 0)
(-0.000520357 -0.0354276 0)
(-0.000184969 -0.0371628 0)
(-6.43939e-05 -0.037467 0)
(-4.54299e-06 -0.0374342 0)
(5.53425e-05 -0.0366566 0)
(-0.000107781 -0.0369416 0)
(0.000324385 -0.0352643 0)
(0.00072884 -0.0350041 0)
(0.000531228 -0.035002 0)
(0.000267098 -0.0329359 0)
(0.000111873 -0.0327632 0)
(-0.00130487 -0.0302499 0)
(-0.00150854 -0.0300212 0)
(-0.00154245 -0.0297801 0)
(-2.25163e-07 -3.67031e-06 0)
(-2.23991e-07 -3.67058e-06 0)
(0.00141967 0.001196 0)
(-2.22825e-07 -3.67085e-06 0)
(-0.00396243 0.0013344 0)
(-0.00360164 0.00182608 0)
(-0.00351781 0.00132938 0)
(-0.00353747 0.00159779 0)
(-0.00362287 0.00181486 0)
(0.00144842 0.00120849 0)
(-0.00244569 0.00265677 0)
(-0.00197907 0.00545505 0)
(0.000310054 0.00397714 0)
(-0.0109457 0.000604915 0)
(-0.00973967 0.000667499 0)
(-0.0171611 7.60907e-05 0)
(-0.0160958 -0.000112803 0)
(-0.0153471 0.000677509 0)
(0.00205016 -0.00649105 0)
(-0.0127402 -0.00142421 0)
(-0.0141398 6.7524e-05 0)
(-0.012349 -0.00157912 0)
(-0.0118183 0.00280211 0)
(0.00514724 -0.00663289 0)
(0.00153598 -0.00261562 0)
(-0.0179023 -0.00121931 0)
(-0.00950099 -0.00466602 0)
(0.00160761 -0.00585878 0)
(-0.00677072 0.000513018 0)
(-0.00661057 -0.00201042 0)
(-0.0151334 -0.00177013 0)
(-0.00120571 -0.00337181 0)
(-0.00333247 -0.00304475 0)
(0.000106091 -0.00394418 0)
(-0.00293727 -0.00129061 0)
(-0.000600747 -0.00374449 0)
(0.00203684 -0.0037751 0)
(0.00447661 -0.00445668 0)
(-0.00409715 -0.00555464 0)
(-0.00584196 -0.00547158 0)
(-0.00544449 -0.00546861 0)
(-0.00173483 -0.00486337 0)
(-6.22893e-05 -0.00658279 0)
(0.000842499 -0.00678132 0)
(-0.00306266 -0.0088624 0)
(-0.00373304 -0.0127679 0)
(-0.00137881 -0.0174852 0)
(-0.000301055 -0.0341013 0)
(-0.000836703 -0.0362098 0)
(-0.00138669 -0.0349586 0)
(-0.00161799 -0.0345313 0)
(-0.00118983 -0.0333894 0)
(-0.000836548 -0.0331862 0)
(0.00064884 -0.0333763 0)
(0.00129806 -0.0333284 0)
(0.000855858 -0.0285862 0)
(0.000220787 -0.031303 0)
(-0.000657313 -0.0312544 0)
(-0.001658 -0.0291509 0)
(-0.00134648 -0.0320592 0)
(-0.000892673 -0.0316544 0)
(-0.000323153 -0.031642 0)
(-8.20279e-05 -0.0324638 0)
(-0.000180874 -0.0336972 0)
(-0.00047375 -0.0332121 0)
(-0.00017921 -0.0330871 0)
(-0.000195773 -0.0323905 0)
(-0.000516197 -0.0326925 0)
(-0.000603444 -0.0322492 0)
(-0.000366665 -0.0323958 0)
(-0.000104871 -0.0325625 0)
(0.000112686 -0.03146 0)
(-0.000557809 -0.0304984 0)
(-0.000264442 -0.0326858 0)
(0.000710362 -0.0348794 0)
(4.04292e-14 -3.71595e-06 0)
(4.02189e-14 -3.71598e-06 0)
(-5.37888e-07 -3.71743e-06 0)
(4.00125e-14 -3.71657e-06 0)
(-5.35085e-07 -3.71745e-06 0)
(-0.00824359 2.20375e-05 0)
(-0.00754853 0.00107244 0)
(-0.00975515 0.000666946 0)
(0.00596875 -0.00644499 0)
(-0.00272828 0.00056171 0)
(-0.00857177 -0.00367035 0)
(-0.00857338 -0.00322507 0)
(-0.0090226 -0.00122684 0)
(-0.0087181 -0.00210185 0)
(-0.00786418 -0.00070379 0)
(-0.00813685 -0.00376487 0)
(3.98047e-14 -3.71667e-06 0)
(0.00164076 -0.00327978 0)
(0.00300311 -0.00273485 0)
(-0.00906336 -0.000948475 0)
(-0.00825155 -0.00425946 0)
(-0.00901726 -0.00165884 0)
(-0.00815586 -0.00520268 0)
(0.00222187 -0.00622836 0)
(-0.00497619 -0.00073609 0)
(-0.00491364 -0.00025369 0)
(-0.00451708 -0.000555958 0)
(1.07972e-13 -3.70764e-06 0)
(1.06195e-13 -3.70795e-06 0)
(-0.0095211 -0.00268828 0)
(-0.00948341 -0.000490689 0)
(2.62674e-05 8.98327e-05 0)
(-0.00971141 -0.00201184 0)
(-0.0100355 -0.00279735 0)
(-0.00540955 -0.00414219 0)
(-0.00543499 -0.00358539 0)
(-0.00621222 -0.00353952 0)
(-0.00583629 -0.00428303 0)
(-0.00634863 -0.0046805 0)
(-0.00563666 -0.00338886 0)
(-0.00331201 -0.00311979 0)
(-0.00361335 -0.00517172 0)
(-0.00564291 -0.00772819 0)
(-2.03828e-05 -0.00521827 0)
(0.00129932 -0.00201596 0)
(-0.00200188 -0.0092178 0)
(3.3176e-05 -0.0379851 0)
(-0.00175177 -0.0329166 0)
(-0.00294073 -0.0347427 0)
(-0.00219519 -0.0337032 0)
(-0.00137851 -0.0327702 0)
(-8.70343e-05 -0.0304451 0)
(-2.59949e-05 -0.0303194 0)
(0.000346109 -0.0312802 0)
(0.000575199 -0.0294537 0)
(0.000438921 -0.0282625 0)
(-0.000905141 -0.0283479 0)
(-0.000272585 -0.0289094 0)
(0.000123628 -0.0272518 0)
(0.000163058 -0.0273319 0)
(-0.000674338 -0.0285731 0)
(-0.000457479 -0.0292108 0)
(0.000887821 -0.0322611 0)
(0.000638315 -0.0330722 0)
(0.000107261 -0.0339359 0)
(-0.00073231 -0.0346165 0)
(-0.00135837 -0.0352225 0)
(-0.000630089 -0.0343707 0)
(-0.000871693 -0.033635 0)
(-9.42823e-05 -0.0371962 0)
(-0.000732794 -0.0369898 0)
(0.0001723 -0.0374505 0)
(0.000496443 -0.0369341 0)
(4.48085e-05 -0.0395441 0)
(0.000166872 -0.0358719 0)
(-3.22821e-07 -3.66128e-06 0)
(-3.17492e-07 -3.66236e-06 0)
(-5.01787e-07 -3.55698e-06 0)
(-3.1225e-07 -3.66343e-06 0)
(0.000734816 -0.00474523 0)
(-0.000722777 0.000197872 0)
(-0.0100291 -0.00374079 0)
(-0.00573565 -0.00321606 0)
(-0.00680835 0.000468293 0)
(-0.00587157 -0.00310967 0)
(-0.00592377 -0.00201387 0)
(-0.00533052 -0.00219927 0)
(-0.00507299 -0.00208971 0)
(-0.00493785 -0.00217101 0)
(-0.00505519 -0.00185585 0)
(-0.00483131 -0.0021915 0)
(-3.07095e-07 -3.66448e-06 0)
(-3.02025e-07 -3.66551e-06 0)
(-2.97039e-07 -3.66653e-06 0)
(-2.92182e-07 -3.67009e-06 0)
(-2.87359e-07 -3.67115e-06 0)
(-2.82569e-07 -3.66947e-06 0)
(-2.77905e-07 -3.67042e-06 0)
(-0.00494586 -0.00223135 0)
(-2.73358e-07 -3.6738e-06 0)
(-2.68844e-07 -3.67464e-06 0)
(-2.64367e-07 -3.67317e-06 0)
(-0.000417077 0.00020522 0)
(0.000225148 -0.000144754 0)
(-0.00142692 -0.00197477 0)
(-0.00726294 -0.00273602 0)
(-0.00164073 -0.00218494 0)
(-0.00226266 -0.00213082 0)
(-0.000696116 -0.000893406 0)
(-0.0116331 -0.00270858 0)
(-0.00882099 -0.0035769 0)
(-0.00539585 -0.0024107 0)
(-0.00989704 -0.00375281 0)
(-0.00933257 -0.00257761 0)
(-0.0064245 -0.00315001 0)
(-0.0073797 -0.00433138 0)
(-0.0053414 -0.00418067 0)
(-0.00489225 -0.00439067 0)
(0.00213526 -0.00638143 0)
(-0.00572257 -0.0101966 0)
(-0.00648323 -0.0300059 0)
(-0.00445749 -0.0347317 0)
(-0.00276997 -0.0347804 0)
(-0.00307954 -0.0321738 0)
(-0.00222814 -0.0318258 0)
(-0.00236265 -0.03188 0)
(-0.000844128 -0.026959 0)
(-0.000352405 -0.028369 0)
(1.2906e-06 -0.0305753 0)
(0.00111542 -0.0288002 0)
(0.00194001 -0.0335423 0)
(-2.09154e-05 -0.0277421 0)
(-0.00123907 -0.0275226 0)
(-0.000459127 -0.0274554 0)
(-0.000104117 -0.0299054 0)
(0.00130557 -0.032567 0)
(0.000726477 -0.0315654 0)
(0.000714563 -0.0328796 0)
(3.88102e-05 -0.0334284 0)
(0.000241852 -0.0343356 0)
(0.000456454 -0.035512 0)
(-0.000663863 -0.0354685 0)
(-0.000170678 -0.0350109 0)
(-0.000254571 -0.036379 0)
(-0.00110312 -0.0411843 0)
(-0.000571271 -0.0414068 0)
(0.000580391 -0.0400486 0)
(0.000632304 -0.0404036 0)
(-0.000146866 -0.0419444 0)
(-0.000163689 -0.0422754 0)
(9.06282e-15 -3.71636e-06 0)
(9.02066e-15 -3.71638e-06 0)
(-2.96287e-06 -3.68427e-06 0)
(8.97598e-15 -3.7139e-06 0)
(-2.90255e-06 -3.62418e-06 0)
(-2.88169e-06 -3.77809e-06 0)
(0.000140084 -2.22485e-05 0)
(-6.20429e-05 0.000158829 0)
(0.000254159 -0.00017972 0)
(0.000280461 -0.000219917 0)
(-0.00236999 -0.00104832 0)
(0.000564652 -0.00153584 0)
(-0.00215571 -0.000912436 0)
(-0.00118058 0.000129375 0)
(8.93428e-15 -3.71398e-06 0)
(8.89266e-15 -3.71395e-06 0)
(8.85133e-15 -3.71401e-06 0)
(8.81011e-15 -3.71399e-06 0)
(0.00103849 -0.000318847 0)
(1.9031e-08 -3.71419e-06 0)
(0.000360144 -7.67193e-05 0)
(-0.00256547 0.00143581 0)
(5.36292e-06 -0.00121993 0)
(0.000257124 -0.00117898 0)
(-0.000770389 -0.00167469 0)
(-0.00239905 -0.00178548 0)
(-0.000998173 -0.000915194 0)
(-0.00121567 -0.00209841 0)
(0.00361941 -0.00215539 0)
(-0.0001584 -0.00230178 0)
(-0.00249742 -0.0025865 0)
(0.000290513 -0.00220229 0)
(0.000327226 -0.00346496 0)
(-0.00287867 -0.00273482 0)
(-0.0116847 -0.00558444 0)
(-0.0042151 -0.00278206 0)
(-0.00598692 -0.00416182 0)
(-0.00293341 -0.00305233 0)
(-0.00582205 -0.00315257 0)
(-0.00836088 -0.00319918 0)
(-0.00751668 -0.0042712 0)
(-0.00464662 -0.00517644 0)
(-0.00520694 -0.00695727 0)
(-0.00530779 -0.00693612 0)
(-0.00367565 -0.00913286 0)
(-0.00729615 -0.0258042 0)
(-0.00614101 -0.0119025 0)
(-0.00660719 -0.0341105 0)
(-0.00560783 -0.0345247 0)
(-0.0020194 -0.034707 0)
(-0.00188399 -0.0342709 0)
(-0.00214298 -0.0301679 0)
(0.000370416 -0.0296012 0)
(-0.000812136 -0.0307638 0)
(-0.00145022 -0.0352978 0)
(-0.00156436 -0.0372454 0)
(-0.00110794 -0.0360528 0)
(-0.000150638 -0.0360745 0)
(-0.000339102 -0.0391526 0)
(-0.0009471 -0.0382368 0)
(0.000294266 -0.0380057 0)
(0.000781317 -0.0412853 0)
(0.000722673 -0.0424411 0)
(0.00168785 -0.0380728 0)
(0.000721324 -0.0410591 0)
(0.000438284 -0.0427564 0)
(0.00260246 -0.0401721 0)
(0.00172472 -0.036879 0)
(0.00107564 -0.0422506 0)
(-0.00141832 -0.0420827 0)
(0.000362208 -0.0436872 0)
(0.000132512 -0.0428231 0)
(0.000335908 -0.0433905 0)
(0.000143135 -0.0411728 0)
(8.40655e-05 -0.0429976 0)
(8.2533e-14 -3.71432e-06 0)
(8.19224e-14 -3.71438e-06 0)
(0.00100585 -0.000454831 0)
(8.13164e-14 -3.71445e-06 0)
(-0.00118461 0.000298178 0)
(-0.00036097 -0.00186451 0)
(-0.00281984 -0.00194324 0)
(0.00154847 -0.00117688 0)
(-0.00309719 -0.00209649 0)
(-0.00326613 -0.00218645 0)
(-0.00262495 -0.000203362 0)
(-0.00122279 -0.00171478 0)
(-0.000217405 -0.00114532 0)
(8.07148e-14 -3.71451e-06 0)
(8.01177e-14 -3.71457e-06 0)
(-0.00127119 0.000494871 0)
(-2.48632e-07 -3.64024e-06 0)
(-0.000589895 -0.00118716 0)
(0.0024089 -0.00174184 0)
(-0.00313761 0.000782148 0)
(0.00108914 -0.00302237 0)
(0.00066872 -0.000633904 0)
(0.000701774 -0.00108271 0)
(-0.00026752 -0.000326853 0)
(-0.00055462 -0.000368064 0)
(-0.000572089 -0.000659028 0)
(-0.000771991 -0.0013884 0)
(-0.000626329 -0.000513022 0)
(-0.000756529 -0.00135978 0)
(-0.00204196 -0.00197334 0)
(-0.0033742 -0.0022665 0)
(-0.00308686 -0.00148091 0)
(-0.00200869 -0.00163694 0)
(-0.0025919 -0.00182352 0)
(-0.00344265 -0.00236001 0)
(0.000512788 -0.00306098 0)
(-0.00134489 -0.00338366 0)
(-0.00340001 -0.00377946 0)
(-0.0038093 -0.0039132 0)
(-0.00151498 -0.00427078 0)
(-0.00234074 -0.00441624 0)
(-0.00264109 -0.00462841 0)
(-0.0033579 -0.00710725 0)
(-0.00466772 -0.00781842 0)
(-0.00503977 -0.0089291 0)
(-0.00541256 -0.0119937 0)
(-0.00627735 -0.0141811 0)
(-0.00672805 -0.0182791 0)
(-0.0132025 -0.0292013 0)
(-0.0123112 -0.0290025 0)
(-0.0110659 -0.0346092 0)
(-0.00733667 -0.0342561 0)
(-0.0079679 -0.0336624 0)
(-0.00742841 -0.0390127 0)
(-0.00796027 -0.0373371 0)
(-0.00679178 -0.0373994 0)
(-0.00470408 -0.0371964 0)
(-0.00435098 -0.0422627 0)
(-0.00473546 -0.0458736 0)
(-0.00211591 -0.0468636 0)
(0.000509 -0.0416065 0)
(-0.00010941 -0.0412428 0)
(0.000107949 -0.0424408 0)
(0.00149661 -0.0430248 0)
(0.00153555 -0.0457769 0)
(0.00152044 -0.0456302 0)
(0.00266632 -0.0419751 0)
(0.00256849 -0.0408299 0)
(0.00220442 -0.0419353 0)
(-8.91803e-05 -0.0442766 0)
(5.97144e-05 -0.0428765 0)
(0.000725432 -0.0432857 0)
(0.000147897 -0.0433559 0)
(0.000586124 -0.0410899 0)
(-7.49736e-05 -0.0406273 0)
(1.04484e-13 -3.71595e-06 0)
(1.03941e-13 -3.71598e-06 0)
(0.000499154 -0.000824582 0)
(1.03401e-13 -3.71601e-06 0)
(0.000745654 -0.000276291 0)
(-0.000784464 -0.00186622 0)
(-0.00314131 0.000563489 0)
(0.000153534 -0.000931523 0)
(-0.000358001 -0.00187572 0)
(-0.000647649 -0.00199313 0)
(0.00151885 0.000300225 0)
(0.000643169 -0.000285624 0)
(-0.000394655 -0.00160953 0)
(0.00405918 -0.000388875 0)
(9.12211e-08 -3.70907e-06 0)
(0.000226911 -0.000723368 0)
(0.00227754 0.000823788 0)
(0.00289739 -0.000141543 0)
(0.000376846 -9.48491e-05 0)
(-0.000273666 0.00117622 0)
(-0.000434474 0.000957248 0)
(-0.000710353 0.000196508 0)
(-0.000771082 -0.00114635 0)
(-0.000823506 0.000211507 0)
(-0.000879706 -0.00105658 0)
(-0.00089416 -0.00126732 0)
(-0.00121727 -0.00104641 0)
(-0.00135999 -0.000305133 0)
(-0.00213183 -0.000820856 0)
(-0.00219853 -0.000665699 0)
(-0.00208199 -0.000735661 0)
(-0.00349172 -0.000836598 0)
(-0.00407275 -0.00264682 0)
(-0.000689329 -0.00268347 0)
(0.000307828 -0.00281996 0)
(-0.00480109 -0.00275017 0)
(-0.00584689 -0.00285397 0)
(-0.00503703 -0.003227 0)
(-0.00539615 -0.00232748 0)
(-0.00386232 -0.0026972 0)
(-0.00563865 -0.0027205 0)
(-0.00409048 -0.00316313 0)
(-0.00363176 -0.00423018 0)
(-0.00512481 -0.00299363 0)
(-0.00455428 -0.00185756 0)
(-0.00312717 -0.00443094 0)
(-0.0049473 -0.00589041 0)
(-0.00337143 -0.00760771 0)
(-0.00112214 -0.0125397 0)
(-0.00542111 -0.0189101 0)
(-0.00217858 -0.0108039 0)
(-0.00270144 -0.0139641 0)
(-3.2416e-05 -0.0295164 0)
(-0.00504937 -0.0330708 0)
(-0.00144936 -0.0404827 0)
(-0.00345297 -0.0402616 0)
(-0.000987045 -0.0406369 0)
(-0.000733105 -0.0437133 0)
(-0.00405628 -0.0472324 0)
(-0.00357528 -0.0469802 0)
(-0.00235669 -0.0468415 0)
(-0.000957428 -0.0457854 0)
(-0.000805544 -0.0464804 0)
(0.00214281 -0.0433398 0)
(0.00102077 -0.0478402 0)
(0.00154852 -0.045095 0)
(-3.78445e-06 -0.0434676 0)
(4.95672e-05 -0.042816 0)
(-0.00038387 -0.0411697 0)
(-0.000523858 -0.0408609 0)
(0.000224314 -0.0413719 0)
(0.000213463 -0.0402897 0)
(0.000218796 -0.0398838 0)
(1.44369e-05 -0.0387218 0)
(0.000361253 -0.0384138 0)
(1.0591e-13 -3.71595e-06 0)
(1.05359e-13 -3.71598e-06 0)
(0.0043053 -0.000681386 0)
(1.04811e-13 -3.71601e-06 0)
(-0.00413785 -0.000675759 0)
(0.00111803 -0.000530276 0)
(-0.000838325 0.000130867 0)
(0.00442297 -0.000970944 0)
(-0.000559516 -5.39581e-05 0)
(0.00146467 -0.000371796 0)
(-0.00056262 -0.000745698 0)
(-0.000417213 0.000846362 0)
(1.04266e-13 -3.71604e-06 0)
(1.03724e-13 -3.71607e-06 0)
(0.000849405 -0.00119396 0)
(0.00137981 -0.00112789 0)
(0.00238757 -0.000777166 0)
(0.000708705 -7.67795e-05 0)
(0.00218153 -0.000980789 0)
(0.000870628 -0.000178895 0)
(0.000117819 -0.00134935 0)
(1.21574e-05 0.000425415 0)
(-6.04017e-05 -0.00121256 0)
(-0.000235045 -0.00106146 0)
(-0.00372931 -0.000159135 0)
(-0.00167282 0.000343004 0)
(-0.00403784 -0.000528378 0)
(-0.00379852 -0.00130365 0)
(-0.00198504 -0.00201238 0)
(-0.00194065 -0.00162641 0)
(-0.00170348 -0.00159892 0)
(-0.000387533 -0.00210633 0)
(-0.0026487 -0.00183935 0)
(-0.00374008 -0.00247295 0)
(0.00269209 -0.00275436 0)
(-0.000696064 -0.00109517 0)
(-0.000503131 -0.00100308 0)
(-0.000609204 -0.00124615 0)
(-0.00243551 -0.00280376 0)
(-0.00181801 -0.00262089 0)
(-0.00147306 -0.00273092 0)
(-0.000770867 -0.000274243 0)
(-0.000985239 -0.00378459 0)
(0.000184403 -0.00273906 0)
(0.00126421 -0.00423694 0)
(-0.000823776 -0.00480341 0)
(-0.000290332 -0.00456867 0)
(0.00119569 -0.00403989 0)
(-0.000998372 -0.00650944 0)
(-0.00108404 -0.00885142 0)
(0.00138007 -0.0119554 0)
(-0.00212727 -0.0320921 0)
(-0.00151661 -0.0347906 0)
(-0.000335772 -0.0388337 0)
(-0.000890005 -0.0402251 0)
(-0.00183791 -0.0389553 0)
(-0.00122605 -0.0408531 0)
(-0.000601058 -0.0438128 0)
(-0.00169472 -0.0421925 0)
(-0.00162478 -0.0456839 0)
(-0.000808503 -0.047504 0)
(-0.000836585 -0.0460866 0)
(0.000583603 -0.0452893 0)
(0.00104482 -0.044194 0)
(-0.000600559 -0.0382105 0)
(-7.6419e-05 -0.03843 0)
(-9.7871e-05 -0.0356518 0)
(0.000587227 -0.0354059 0)
(0.000212429 -0.0342911 0)
(2.86697e-05 -0.0339202 0)
(-0.000126524 -0.0340186 0)
(-0.000256758 -0.0338224 0)
(-0.000112456 -0.0334764 0)
(3.23222e-05 -0.0326085 0)
(0.00101546 -0.0325683 0)
(1.56063e-13 -3.71432e-06 0)
(1.54908e-13 -3.71438e-06 0)
(0.000537089 -0.000427983 0)
(1.53763e-13 -3.71445e-06 0)
(-0.000976102 -0.000246487 0)
(-0.000179006 0.000332227 0)
(-0.000255552 -0.00102166 0)
(0.000976852 0.000612766 0)
(-0.000219445 -0.00138633 0)
(-0.000440301 -0.000235329 0)
(0.000421357 0.000120664 0)
(0.000369821 -0.00120481 0)
(1.52625e-13 -3.71451e-06 0)
(0.00102144 -0.000654524 0)
(-0.00126392 -0.000254822 0)
(-0.00143176 -0.000198756 0)
(-0.00205303 0.000324421 0)
(0.00264268 -0.00204268 0)
(0.00161794 -0.000436571 0)
(0.00118935 -0.000252231 0)
(0.00175253 -0.000276697 0)
(0.000968238 -0.000425456 0)
(0.00155797 -0.000160872 0)
(0.000919081 -0.000328822 0)
(0.00177552 -0.000902114 0)
(-0.00165035 -0.00102927 0)
(0.000420764 -0.000375174 0)
(-0.00130534 -0.00103715 0)
(-0.00546353 -0.00150888 0)
(-0.00530564 -0.000311701 0)
(-0.00104949 -0.000325052 0)
(-0.00104377 -0.000209952 0)
(-0.000916262 -0.00156843 0)
(-0.000703006 -0.00117708 0)
(-0.00152322 -0.0020998 0)
(-0.000876492 -0.0016765 0)
(0.000209312 -0.000647005 0)
(-0.00078081 -0.000149175 0)
(0.00156402 0.000491189 0)
(0.00275536 -0.00176489 0)
(0.000211949 0.00054219 0)
(0.00124738 -0.00139943 0)
(0.000467149 -0.00122018 0)
(0.000392425 -0.00181788 0)
(2.68668e-05 -0.00299072 0)
(-0.00165291 -0.00341307 0)
(-0.00130154 -0.00845939 0)
(0.00161046 -0.00693935 0)
(0.0022208 -0.00780229 0)
(0.000972429 -0.0117816 0)
(0.000897339 -0.0353234 0)
(-0.000577213 -0.0358543 0)
(-0.00096778 -0.034849 0)
(-0.0011927 -0.0334867 0)
(-0.00103665 -0.0351534 0)
(-0.00122737 -0.0386892 0)
(-0.000435539 -0.0386593 0)
(-0.00124619 -0.0367698 0)
(-0.000609263 -0.0405986 0)
(4.85097e-05 -0.0441519 0)
(-0.000735965 -0.0447559 0)
(-0.000189198 -0.0426604 0)
(0.000244889 -0.0363626 0)
(0.000238531 -0.0376111 0)
(-0.000139987 -0.0366849 0)
(0.000301201 -0.0303986 0)
(-0.000105886 -0.035113 0)
(-0.000485494 -0.0301678 0)
(-0.000557039 -0.0295782 0)
(-0.000694352 -0.0284501 0)
(-0.000616555 -0.0295461 0)
(-0.000912338 -0.0305104 0)
(-0.000347624 -0.0289506 0)
(-0.000625044 -0.0299294 0)
(-0.000165382 -0.0317464 0)
(2.66058e-14 -3.71595e-06 0)
(2.64674e-14 -3.71598e-06 0)
(-0.000949288 0.00072299 0)
(2.63297e-14 -3.71601e-06 0)
(0.000453389 -0.00116183 0)
(-0.000655113 -0.000462346 0)
(0.0010503 -0.000302386 0)
(0.000820962 -0.00034414 0)
(-0.000395902 -0.00125292 0)
(0.00104118 -0.000350378 0)
(0.000918771 -0.000333172 0)
(0.0012687 -0.00193071 0)
(2.61927e-14 -3.71604e-06 0)
(2.60564e-14 -3.71607e-06 0)
(2.59209e-14 -3.7161e-06 0)
(2.5786e-14 -3.71613e-06 0)
(2.56518e-14 -3.71616e-06 0)
(0.00166169 0.0006449 0)
(-0.000389473 0.00155319 0)
(0.00183105 0.0018202 0)
(0.0013299 -0.000883617 0)