/*--------------------------------*- C++ -*----------------------------------*\
  =========                 |
  \\      /  F ield         | OpenFOAM: The Open Source CFD Toolbox
   \\    /   O peration     | Website:  https://openfoam.org
    \\  /    A nd           | Version:  12
     \\/     M anipulation  |
\*---------------------------------------------------------------------------*/
FoamFile
{
    format      ascii;
    class       IOPosition;
    location    "0.95/lagrangian/cloud";
    object      positions;
}
// * * * * * * * * * * * * * * * * * * * * * * * * * * * * * * * * * * * * * //

1629
(
(0.233486 0.383257 0.334965 0.0482919) 0 1 2
(0.386796 0.306602 0.172567 0.134035) 1 3 2
(0.375951 0.312025 0.170006 0.142019) 2 5 2
(0.102741 0.44863 0.208053 0.240577) 3 7 2
(0.00817838 0.200018 0.495911 0.295893) 79 9 1
(0.477661 0.26117 0.0762309 0.184939) 3 7378 1
(0.47335 0.263325 0.0177871 0.245538) 4 6 1
(0.138868 0.430566 0.236522 0.194043) 4 8 1
(0.499079 0.0852185 0.250461 0.165242) 5 7380 2
(0.17589 0.139798 0.412055 0.272257) 6 12 2
(0.347787 0.0891154 0.236991 0.326106) 7 15 1
(0.339843 0.269353 0.0607257 0.330078) 8 17 1
(0.274421 0.36279 0.317661 0.0451284) 9 19 2
(0.2391 0.332235 0.0482152 0.38045) 10 21 1
(0.492233 0.205752 0.0481312 0.253884) 11 23 1
(0.382675 0.106158 0.202505 0.308662) 12 25 1
(0.377738 0.167326 0.143804 0.311131) 13 27 1
(0.0892551 0.455372 0.275072 0.180301) 13 26 1
(0.557783 0.141334 0.221108 0.0797744) 14 7389 2
(0.522645 0.238678 0.204993 0.0336842) 15 7390 1
(0.30159 0.349205 0.0632293 0.285976) 16 30 1
(0.296111 0.351944 0.151876 0.200068) 18 34 1
(0.437495 0.0627878 0.218465 0.281253) 20 41 1
(0.366197 0.316901 0.289881 0.0270202) 21 43 2
(0.387845 0.306078 0.23115 0.0749276) 22 45 2
(0.345366 0.327317 0.100279 0.227038) 23 47 2
(0.483164 0.160865 0.258418 0.0975534) 23 7398 2
(0.463722 0.268139 0.0881152 0.180024) 24 7399 1
(0.379356 0.310322 0.0198253 0.290497) 25 7400 1
(0.544574 0.227713 0.103076 0.124637) 26 52 1
(0.237038 0.0968664 0.284614 0.381481) 27 55 1
(0.389256 0.186804 0.118568 0.305372) 28 57 1
(0.327372 0.336314 0.193619 0.142695) 29 58 1
(0.237046 0.381477 0.251749 0.129727) 105 61 2
(0.420051 0.289975 0.138823 0.151152) 31 63 2
(0.406998 0.296501 0.0243154 0.272186) 32 65 2
(0.140336 0.429832 0.289346 0.140486) 32 64 1
(0.228759 0.313681 0.385621 0.0719391) 108 67 1
(0.128062 0.435969 0.0582755 0.377694) 34 69 2
(0.0983019 0.27982 0.171029 0.450849) 34 69 1
(0.238395 0.380803 0.103907 0.276895) 35 71 2
(0.197948 0.24344 0.157586 0.401026) 35 71 1
(0.455572 0.272214 0.132208 0.140006) 36 7411 1
(0.438013 0.280994 0.241239 0.0397548) 37 7412 1
(0.402233 0.298883 0.2821 0.0167838) 38 7413 1
(0.486656 0.256672 0.0131311 0.243541) 39 76 1
(0.177391 0.234889 0.411305 0.176416) 114 79 1
(0.243841 0.37808 0.333819 0.0442606) 40 81 2
(0.28604 0.35698 0.251738 0.105242) 76 151 1
(0.0647823 0.25608 0.211529 0.467609) 77 154 1
(0.198193 0.400904 0.376218 0.024686) 79 155 1
(0.395821 0.30209 0.129116 0.172974) 80 157 1
(0.105257 0.249951 0.447371 0.197421) 81 13 1
(0.155136 0.422432 0.284234 0.138198) 155 160 2
(0.0800058 0.459997 0.18605 0.273947) 153 304 1
(0.117022 0.441489 0.0227702 0.418719) 81 162 2
(0.180967 0.0396093 0.369907 0.409516) 81 162 1
(0.249405 0.375297 0.22962 0.145677) 82 164 2
(0.319346 0.082354 0.257973 0.340327) 82 164 1
(0.241646 0.379177 0.00435567 0.374821) 83 166 2
(0.523334 0.238333 0.228641 0.00969221) 83 166 2
(0.334682 0.332659 0.0132225 0.319437) 87 171 1
(0.552158 0.166923 0.223921 0.0569979) 88 27 1
(0.217406 0.391297 0.305714 0.0855825) 90 31 2
(0.200643 0.399678 0.27753 0.122149) 91 33 2
(0.180481 0.409759 0.192514 0.217245) 17 35 2
(0.139629 0.249114 0.430185 0.181071) 93 37 1
(0.116487 0.441757 0.282802 0.158954) 91 182 2
(0.0387326 0.103124 0.480634 0.37751) 91 181 2
(0.26853 0.146383 0.219352 0.365735) 92 184 1
(0.378428 0.0165844 0.310786 0.294202) 96 43 1
(0.21444 0.39278 0.321263 0.0715174) 99 49 2
(0.00146181 0.301677 0.197592 0.499269) 25 51 1
(0.0522733 0.0944005 0.379463 0.473863) 95 190 1
(0.224001 0.388 0.384783 0.00321621) 171 340 1
(0.0781618 0.460919 0.0620818 0.398837) 173 342 1
(0.0522784 0.0214773 0.452384 0.473861) 98 196 1
(0.223711 0.342534 0.0456104 0.388145) 99 198 1
(0.153106 0.023787 0.423447 0.39966) 99 197 2
(0.182247 0.408877 0.275143 0.133734) 100 200 2
(0.357734 0.0901876 0.230946 0.321133) 100 200 1
(0.0556503 0.472175 0.14647 0.325705) 104 205 1
(0.0338653 0.483067 0.215278 0.26779) 106 209 1
(0.370012 0.314994 0.214706 0.100288) 106 211 1
(0.59195 0.0688651 0.204025 0.13516) 107 65 1
(0.145606 0.427197 0.0865561 0.340641) 108 216 2
(0.10174 0.0863022 0.44913 0.362828) 183 216 1
(0.477119 0.219063 0.26144 0.0423771) 184 218 1
(0.31976 0.34012 0.128724 0.211396) 110 219 1
(0.936688 0.0316562 0.0183145 0.0133417) 111 222 2
(0.0749865 0.303986 0.158521 0.462507) 182 360 2
(0.419311 0.0278161 0.290345 0.262528) 182 362 2
(0.24629 0.122089 0.376855 0.254766) 227 303 1
(0.371381 0.201009 0.31431 0.113301) 228 305 1
(0.183949 0.198219 0.209806 0.408025) 154 307 1
(0.272384 0.240187 0.123621 0.363808) 156 311 1
(0.560253 0.219873 0.0260983 0.193775) 158 166 2
(0.312864 0.343568 0.265568 0.0779996) 159 168 2
(0.159576 0.420212 0.37612 0.0440918) 160 170 2
(0.0992547 0.450373 0.395962 0.0544103) 160 318 1
(0.0135161 0.493242 0.0822391 0.411003) 162 174 2
(0.0418902 0.479055 0.0646301 0.414425) 90 180 2
(0.028286 0.485857 0.0318068 0.45405) 236 467 1
(0.260687 0.00286366 0.366793 0.369657) 161 321 1
(0.206461 0.39677 0.386589 0.0101801) 162 323 2
(0.0421277 0.0826548 0.396281 0.478936) 163 322 2
(0.263191 0.296401 0.0720031 0.368405) 163 325 1
(0.175039 0.0253001 0.38718 0.41248) 164 324 2
(0.22482 0.280821 0.106769 0.38759) 164 327 1
(0.176665 0.00342491 0.408243 0.411668) 165 326 2
(0.202746 0.262915 0.135712 0.398627) 165 329 1
(0.194533 0.402734 0.183052 0.219682) 166 331 2
(0.106088 0.0684248 0.378531 0.446956) 167 330 2
(0.48474 0.0861118 0.171518 0.25763) 168 335 1
(0.35105 0.324475 0.232689 0.091786) 170 339 2
(0.0759505 0.305489 0.156536 0.462025) 171 341 1
(0.0878861 0.345714 0.110343 0.456057) 172 343 1
(0.123004 0.382813 0.0556848 0.438498) 173 345 1
(0.338 0.331 0.223856 0.107145) 175 348 1
(0.282557 0.155757 0.358721 0.202964) 176 202 1
(0.0365518 0.376706 0.481724 0.105019) 178 206 1
(0.118033 0.304128 0.440984 0.136856) 179 208 1
(0.063978 0.310102 0.157909 0.468011) 177 353 1
(0.261362 0.280318 0.0890013 0.369319) 178 355 1
(0.274609 0.362696 0.0656575 0.297038) 180 356 1
(0.418207 0.0107654 0.290897 0.280131) 180 210 1
(0.585048 0.207476 0.0150268 0.192449) 181 212 2
(0.305726 0.0015958 0.347137 0.345541) 225 299 1
(0.212003 0.393999 0.0394226 0.354576) 227 452 2
(0.290583 0.354708 0.071115 0.283593) 303 454 2
(0.658444 0.170778 0.00850222 0.162276) 229 307 2
(0.41184 0.29408 0.110629 0.183451) 230 309 2
(0.241087 0.379456 0.255407 0.124049) 231 457 1
(0.182922 0.408539 0.138306 0.270232) 232 459 1
(0.125946 0.437027 0.0800916 0.356935) 233 461 1
(0.0767525 0.187363 0.274261 0.461624) 159 317 1
(0.171846 0.414077 0.371904 0.0421731) 307 610 1
(0.195179 0.136035 0.266375 0.40241) 233 464 1
(0.218547 0.390727 0.101873 0.288853) 234 466 2
(0.277888 0.0872595 0.273797 0.361056) 234 466 1
(0.0832993 0.287404 0.170946 0.45835) 235 468 1
(0.177814 0.411093 0.15749 0.253603) 236 470 2
(0.190205 0.144379 0.260519 0.404897) 236 470 1
(0.197728 0.401136 0.3582 0.0429357) 237 472 2
(0.192829 0.403585 0.243018 0.160567) 238 474 2
(0.15685 0.421575 0.274729 0.146846) 239 476 2
(0.180485 0.409758 0.282645 0.127112) 240 478 2
(0.189401 0.405299 0.331993 0.0733063) 241 480 2
(0.327274 0.140612 0.336363 0.195751) 242 333 1
(0.0717911 0.464104 0.112499 0.351605) 244 483 1
(0.405447 0.297277 0.122827 0.174449) 245 339 2
(0.263108 0.368446 0.06461 0.303836) 246 490 2
(0.106836 0.0681839 0.378398 0.446582) 247 489 2
(0.0710505 0.0843959 0.464475 0.380079) 247 491 2
(0.230992 0.0221037 0.384504 0.3624) 248 493 2
(0.243865 0.0780343 0.300033 0.378067) 249 496 1
(0.170849 0.0791023 0.335473 0.414575) 250 498 1
(0.00887502 0.495562 0.192237 0.303325) 252 502 2
(0.656644 0.171678 0.159676 0.0120013) 253 355 2
(0.35474 0.32263 0.229409 0.0932209) 254 357 2
(0.423574 0.0585198 0.288213 0.229693) 254 357 1
(0.352428 0.318708 0.323786 0.0050776) 255 359 1
(0.575577 0.089326 0.212211 0.122885) 301 450 1
(0.29755 0.351225 0.211063 0.140162) 376 747 1
(0.345927 0.127208 0.327036 0.199829) 377 601 1
(0.0259447 0.328324 0.158704 0.487028) 303 603 1
(0.124668 0.437666 0.173695 0.263971) 304 605 2
(0.116972 0.180017 0.261497 0.441514) 304 605 1
(0.10187 0.449065 0.279504 0.169561) 305 607 2
(0.150614 0.0447303 0.379963 0.424693) 305 607 1
(0.223439 0.388281 0.373124 0.0151571) 306 609 2
(0.100818 0.0665894 0.449591 0.383002) 306 608 2
(0.064485 0.00520727 0.467758 0.46255) 307 610 2
(0.47802 0.178046 0.0829436 0.26099) 309 612 2
(0.096465 0.0389386 0.451767 0.412829) 309 614 2
(0.132785 0.433608 0.0556437 0.377964) 311 619 2
(0.172635 0.239022 0.17466 0.413683) 312 621 1
(0.205923 0.0155669 0.381472 0.397039) 313 623 1
(0.000872854 0.0975029 0.402061 0.499564) 315 624 2
(0.0219685 0.102458 0.386558 0.489016) 316 626 2
(0.0940364 0.0744085 0.452982 0.378573) 316 628 2
(0.124774 0.058362 0.437613 0.379251) 317 630 2
(0.213111 0.32637 0.393444 0.0670744) 318 484 1
(0.285991 0.357005 0.0962195 0.260785) 319 486 2
(0.252438 0.373781 0.188027 0.185754) 320 488 2
(0.176577 0.0699965 0.411711 0.341715) 320 636 2
(0.428111 0.0266766 0.259268 0.285944) 321 639 1
(0.278584 0.291208 0.0694996 0.360708) 322 641 1
(0.262898 0.368551 0.356557 0.0119942) 323 643 2
(0.00259119 0.0713539 0.42735 0.498704) 324 645 1
(0.0963026 0.451849 0.0798278 0.372021) 402 797 1
(0.0394425 0.480279 0.204124 0.276155) 328 653 2
(0.133971 0.433014 0.129042 0.303973) 329 652 1
(0.240119 0.37994 0.263992 0.115948) 329 654 1
(0.561344 0.0421376 0.219328 0.17719) 330 508 1
(0.352725 0.323638 0.00210727 0.32153) 331 510 2
(0.202549 0.375523 0.398726 0.0232023) 375 597 1
(0.334006 0.332997 0.163233 0.169764) 450 746 2
(0.117426 0.441287 0.194954 0.246333) 451 894 1
(0.404083 0.297959 0.247099 0.0508594) 451 896 1
(0.538072 0.230964 0.00153957 0.229424) 452 750 2
(0.483073 0.258464 0.190263 0.0682009) 453 752 2
(0.426522 0.286739 0.00348742 0.283251) 454 900 1
(0.296111 0.351945 0.0362629 0.315682) 455 902 1
(0.013461 0.49327 0.100304 0.392965) 456 904 1
(0.607219 0.19639 0.116537 0.0798539) 382 757 1
(0.526981 0.23651 0.00733209 0.229178) 383 759 1
(0.118193 0.440903 0.22323 0.217674) 384 761 1
(0.0767139 0.461643 0.347121 0.114522) 385 763 1
(0.338934 0.0034532 0.32708 0.330533) 386 765 2
(0.200589 0.0434767 0.399706 0.356229) 387 769 2
(0.226358 0.0037449 0.386821 0.383076) 388 771 2
(0.201537 0.0110702 0.388161 0.399232) 389 774 1
(0.199606 0.00419934 0.400197 0.395998) 390 775 2
(0.200281 0.00658625 0.399859 0.393273) 391 777 2
(0.199137 0.0269523 0.373479 0.400431) 392 780 1
(0.259426 0.0792374 0.291049 0.370287) 393 782 1
(0.228506 0.330233 0.385747 0.0555137) 394 635 1
(0.412723 0.293639 0.123107 0.170532) 395 637 2
(0.459715 0.270143 0.128003 0.142139) 396 639 2
(0.293296 0.353352 0.0878416 0.26551) 397 790 2
(0.156454 0.0711496 0.350623 0.421773) 398 789 2
(0.0939063 0.100836 0.453047 0.352211) 398 791 2
(0.156549 0.421726 0.299612 0.122114) 475 796 2
(0.0956502 0.168753 0.283422 0.452175) 401 795 2
(0.349863 0.325069 0.00449495 0.320574) 476 944 1
(0.250584 0.374708 0.0129194 0.361789) 477 946 1
(0.0990856 0.450457 0.445793 0.00466402) 403 802 2
(0.108448 0.445776 0.160364 0.285412) 405 805 1
(0.346786 0.326607 0.280644 0.0459632) 525 895 2
(0.294988 0.352506 0.16927 0.183236) 526 897 2
(0.0378471 0.481076 0.395682 0.0853939) 527 1047 1
(0.0786992 0.46065 0.13772 0.322931) 529 903 2
(0.0076464 0.450808 0.496177 0.0453686) 530 905 1
(0.323292 0.338354 0.220538 0.117816) 456 906 1
(0.042981 0.478509 0.333927 0.144582) 457 908 1
(0.346314 0.326843 0.291234 0.0356089) 459 764 2
(0.379865 0.079661 0.310067 0.230406) 460 766 1
(0.231598 0.384201 0.0393953 0.344806) 462 916 1
(0.194007 0.0530343 0.349962 0.402996) 462 919 1
(0.260161 0.0956774 0.274242 0.369919) 463 921 1
(0.216883 0.204005 0.187553 0.391558) 464 923 1
(0.202479 0.211193 0.187568 0.398761) 465 925 1
(0.175434 0.00686614 0.405417 0.412283) 466 927 1
(0.16165 0.419175 0.0729753 0.3462) 468 931 2
(0.473317 0.210474 0.263342 0.0528681) 469 784 1
(0.33632 0.33184 0.0274773 0.304362) 470 786 2
(0.318729 0.340635 0.103345 0.23729) 471 788 2
(0.10245 0.448775 0.108976 0.339799) 472 939 2
(0.0321497 0.102815 0.483925 0.38111) 472 938 2
(0.195543 0.208337 0.193891 0.402228) 473 941 1
(0.275666 0.362167 0.322709 0.0394581) 474 943 2
(0.134547 0.432727 0.418152 0.014575) 475 945 2
(0.249109 0.375445 0.0868081 0.288637) 551 947 2
(0.178551 0.410725 0.0828709 0.327854) 552 1095 1
(0.279884 0.0345446 0.325513 0.360058) 477 949 1
(0.27409 0.0893919 0.362955 0.273563) 479 804 1
(0.0680605 0.218829 0.46597 0.24714) 600 1044 1
(0.128228 0.33205 0.103837 0.435886) 527 1048 1
(0.121981 0.0327513 0.406258 0.43901) 529 1049 2
(0.309134 0.345433 0.159475 0.185958) 531 1053 1
(0.308532 0.345734 0.229603 0.116131) 532 909 2
(0.281147 0.359426 0.136776 0.22265) 533 911 2
(0.247553 0.376224 0.0036503 0.372573) 534 913 2
(0.146868 0.00898802 0.426566 0.417578) 535 915 1
(0.381327 0.274482 0.0348541 0.309336) 536 1066 1
(0.468974 0.265513 0.101848 0.163665) 537 1068 2
(0.305106 0.0647505 0.282697 0.347447) 538 1067 2
(0.439971 0.280014 0.0912912 0.188723) 539 1072 2
(0.216379 0.39181 0.0156304 0.37618) 541 1076 2
(0.188343 0.3375 0.068328 0.405828) 542 1078 1
(0.177954 0.139818 0.271205 0.411023) 543 1080 1
(0.032836 0.0763406 0.407241 0.483582) 545 1081 2
(0.157231 0.421385 0.144078 0.277307) 546 1086 2
(0.13949 0.430255 0.32847 0.101785) 547 1088 2
(0.180175 0.409913 0.345743 0.0641698) 548 1090 2
(0.218316 0.390842 0.267694 0.123148) 549 1092 2
(0.214809 0.392596 0.129345 0.263251) 550 1094 2
(0.0578995 0.47105 0.244545 0.226505) 551 1096 2
(0.176633 0.411683 0.362768 0.0489156) 627 1246 1
(0.200851 0.047046 0.399575 0.352529) 628 1100 1
(0.27141 0.238151 0.364295 0.126144) 553 951 1
(0.291409 0.29191 0.354296 0.0623851) 554 953 1
(0.153279 0.423361 0.356185 0.0671754) 600 1193 2
(0.256626 0.371687 0.289132 0.0825549) 602 1197 2
(0.166142 0.0376904 0.379239 0.416929) 604 1198 2
(0.259449 0.370275 0.26456 0.105715) 605 1054 2
(0.297057 0.351472 0.0357341 0.315737) 606 1056 2
(0.246699 0.273753 0.37665 0.102898) 607 1058 1
(0.249882 0.11086 0.375059 0.264199) 608 1060 1
(0.253279 0.0980686 0.37336 0.275292) 609 1062 1
(0.334359 0.182749 0.332821 0.150072) 610 1064 1
(0.54763 0.112176 0.226185 0.114009) 611 1066 1
(0.412957 0.178873 0.293521 0.114648) 612 1068 1
(0.385058 0.0550423 0.307471 0.252429) 613 1070 1
(0.236674 0.381663 0.346706 0.0349566) 614 1220 1
(0.239633 0.106473 0.273711 0.380184) 615 1223 1
(0.218632 0.390684 0.0402024 0.350482) 617 1227 2
(0.189326 0.312238 0.0930987 0.405337) 618 1229 1
(0.0540652 0.0534454 0.472967 0.419522) 619 1230 2
(0.226698 0.386651 0.194989 0.191662) 697 1237 2
(0.0707145 0.464643 0.425571 0.0390717) 623 1239 2
(0.142732 0.172884 0.25575 0.428634) 624 1241 1
(0.099485 0.0247038 0.425554 0.450258) 626 1242 2
(0.125529 0.437236 0.170075 0.267161) 627 1247 2
(0.230143 0.16795 0.384928 0.216978) 703 1249 1
(0.0408074 0.479596 0.0494246 0.430172) 630 1253 2
(0.240826 0.379587 0.369802 0.0097849) 630 1104 2
(0.135476 0.432262 0.366565 0.065697) 630 1252 1
(0.704559 0.147721 0.0687511 0.0789695) 676 1344 2
(0.146275 0.138692 0.28817 0.426863) 678 1345 2
(0.334874 0.0387606 0.332563 0.293803) 679 1349 2
(0.23364 0.38318 0.358274 0.0249065) 681 1354 2
(0.0654067 0.396154 0.0711427 0.467297) 683 1358 1
(0.20735 0.396325 0.393541 0.00278361) 683 1357 1
(0.283048 0.182609 0.358476 0.175867) 684 1211 1
(0.340772 0.329614 0.0476787 0.281935) 685 1213 2
(0.360614 0.319693 0.275386 0.0443069) 686 1215 2
(0.0277904 0.486105 0.138856 0.347249) 687 1363 1
(0.282905 0.0308185 0.358547 0.327729) 687 1217 1
(0.208725 0.207105 0.395637 0.188533) 688 1219 1
(0.196484 0.226967 0.401758 0.174791) 689 1221 1
(0.541796 0.229102 0.0808912 0.148211) 691 1374 2
(0.305228 0.181349 0.166037 0.347386) 692 1376 1
(0.162233 0.0566308 0.418883 0.362253) 693 1377 2
(0.250398 0.374801 0.0978065 0.276994) 695 1382 2
(0.0850373 0.310021 0.14746 0.457481) 697 1386 1
(0.319691 0.0500067 0.290148 0.340154) 698 1388 1
(0.277683 0.011735 0.349423 0.361158) 701 1391 2
(0.245003 0.377498 0.329027 0.0484719) 777 1544 1
(0.000557842 0.499721 0.0172411 0.48248) 779 1400 2
(0.107578 0.251601 0.19461 0.446211) 705 1402 1
(0.226509 0.386746 0.347146 0.0395995) 706 1255 2
(0.336572 0.00339865 0.331714 0.328315) 706 1255 1
(0.290411 0.19227 0.354794 0.162524) 707 1257 1
(0.5206 0.2397 0.0557896 0.18391) 750 1342 2
(0.534868 0.232566 0.162135 0.0704305) 751 1493 2
(0.371907 0.202642 0.314047 0.111405) 752 1494 2
(0.807559 0.0962205 0.0547759 0.0414445) 754 1499 2
(0.665388 0.0563511 0.110955 0.167306) 755 1501 1
(0.282006 0.358997 0.231953 0.127044) 757 1505 2
(0.225454 0.182302 0.204971 0.387273) 759 1509 1
(0.190128 0.404936 0.00685881 0.398077) 761 1513 2
(0.128621 0.435689 0.356066 0.0796238) 763 1517 2
(0.100092 0.449954 0.20477 0.245184) 763 1368 2
(0.0350885 0.482456 0.0669983 0.415457) 764 1516 1
(0.260573 0.369713 0.00375732 0.365956) 764 1370 2
(0.0888147 0.455593 0.0534328 0.40216) 765 1518 1
(0.237191 0.287289 0.381404 0.0941153) 765 1372 1
(0.243286 0.378357 0.0441926 0.334164) 766 1520 1
(0.175704 0.412148 0.338984 0.0731647) 766 1522 1
(0.575788 0.071874 0.140232 0.212106) 768 1524 2
(0.509945 0.108953 0.136074 0.245028) 769 1529 1
(0.622642 0.082291 0.106388 0.188679) 770 1531 1
(0.733072 0.133464 0.0600619 0.0734019) 772 1534 1
(0.136768 0.431616 0.198471 0.233145) 774 1536 1
(0.0394496 0.480275 0.192828 0.287447) 776 1540 1
(0.168882 0.384995 0.0305635 0.415559) 778 1547 1
(0.268966 0.342053 0.0234634 0.365517) 780 1551 1
(0.149505 0.425248 0.374877 0.0503705) 781 1553 2
(0.437149 0.281425 0.246387 0.0350384) 782 1406 2
(0.387073 0.233538 0.306463 0.072925) 857 1555 1
(0.137861 0.43107 0.240288 0.190782) 783 1557 2
(0.0287867 0.485607 0.459678 0.0259289) 825 1491 2
(0.177438 0.411281 0.381683 0.0295979) 826 1493 2
(0.210375 0.394812 0.319248 0.0755646) 827 1495 2
(0.0927321 0.453634 0.178046 0.275588) 828 1497 2
(0.0195747 0.0526587 0.437554 0.490213) 754 1499 1
(0.115918 0.442041 0.302333 0.139708) 831 1503 2
(0.396241 0.301879 0.00138033 0.300499) 833 1656 2
(0.263551 0.368225 0.0266639 0.341561) 834 1658 2
(0.219988 0.359024 0.0309819 0.390006) 835 1660 1
(0.220217 0.222541 0.16735 0.389891) 836 1662 1
(0.200949 0.119995 0.279531 0.399525) 837 1664 1
(0.0161654 0.491917 0.181346 0.310572) 839 1665 1
(0.338668 0.0399221 0.330666 0.290744) 839 1519 1
(0.32431 0.263753 0.337845 0.0740917) 840 1521 1
(0.267692 0.366154 0.182007 0.184147) 841 1523 2
(0.0630408 0.46848 0.069996 0.398484) 842 1671 1
(0.229898 0.199833 0.385051 0.185218) 842 1525 1
(0.299898 0.300903 0.350051 0.0491473) 843 1527 1
(0.324557 0.337721 0.112629 0.225093) 844 1529 2
(0.329456 0.19488 0.335272 0.140392) 845 1531 1
(0.225329 0.387335 0.300964 0.086371) 848 1537 2
(0.180059 0.40997 0.0842724 0.325698) 850 1541 2
(0.279781 0.36011 0.184221 0.175889) 851 1543 2
(0.299724 0.275314 0.350138 0.0748238) 854 1549 1
(0.658109 0.170946 0.163387 0.0075588) 855 1551 2
(0.746817 0.00296432 0.126591 0.123627) 930 1700 1
(0.243164 0.378418 0.322286 0.0561317) 931 1702 2
(0.0906252 0.224843 0.454687 0.229844) 931 1702 1
(0.380229 0.256021 0.309886 0.0538646) 932 1704 1
(0.071485 0.112259 0.351999 0.464257) 901 1788 2
(0.253668 0.0993091 0.273857 0.373166) 825 1640 1
(0.0959501 0.196406 0.452025 0.255619) 901 1642 1
(0.132378 0.433811 0.105326 0.328485) 902 1644 2
(0.0426812 0.478659 0.0422089 0.436451) 903 1792 1
(0.136066 0.295847 0.431967 0.13612) 903 1646 1
(0.0830855 0.458457 0.113013 0.345444) 904 1648 2
(0.37107 0.0482187 0.314465 0.266246) 904 1796 2
(0.341906 0.106092 0.222954 0.329047) 830 1647 2
(0.0581417 0.285683 0.470929 0.185246) 905 1650 1
(0.124999 0.4375 0.00484161 0.432659) 906 1652 2
(0.0316864 0.484157 0.0611082 0.423049) 907 1800 1
(0.107343 0.291991 0.446329 0.154338) 907 1654 1
(0.19276 0.0304071 0.40362 0.373213) 907 1802 2
(0.300037 0.197261 0.15272 0.349981) 908 1805 1
(0.274627 0.290575 0.0721118 0.362687) 909 1807 1
(0.26221 0.153674 0.215221 0.368895) 910 1809 1
(0.243512 0.0442863 0.378244 0.333958) 911 1810 2
(0.387437 0.282536 0.306281 0.0237453) 913 1666 1
(0.319466 0.340267 0.00751933 0.332747) 914 1668 2
(0.333262 0.333369 0.0425259 0.290843) 915 1670 2
(0.311207 0.344397 0.104454 0.239943) 916 1672 2
(0.298201 0.3509 0.224726 0.126174) 917 1674 2
(0.253126 0.373437 0.0232313 0.350206) 918 1822 1
(0.0485557 0.475722 0.367945 0.107777) 918 1824 1
(0.129011 0.435495 0.391785 0.0437092) 919 1826 1
(0.114409 0.442796 0.00748019 0.435315) 921 1828 1
(0.230699 0.141399 0.243251 0.384651) 849 1688 1
(0.259131 0.234892 0.370434 0.135542) 925 1690 1
(0.273365 0.0897927 0.363318 0.273525) 927 1694 1
(0.105093 0.0884529 0.359 0.447453) 853 1696 1
(0.49709 0.14543 0.251455 0.106025) 929 1698 1
(0.4007 0.29965 0.108955 0.190695) 1004 1995 1
(0.774322 0.0827622 0.112839 0.0300766) 1005 1997 2
(0.769842 0.0711147 0.0439645 0.115079) 1006 1997 2
(0.000593942 0.499703 0.472238 0.0274649) 1007 1999 1
(0.268311 0.365845 0.0312265 0.334618) 975 1938 2
(0.196717 0.0477637 0.401642 0.353878) 975 1937 2
(0.296018 0.109287 0.242705 0.351991) 976 1940 1
(0.195661 0.0285176 0.402169 0.373652) 1052 1942 1
(0.185479 0.407261 0.312188 0.0950722) 978 1795 2
(0.390854 0.304573 0.265703 0.0388702) 979 1797 2
(0.358797 0.320601 0.00379495 0.316806) 980 1945 1
(0.12589 0.437055 0.43505 0.00200464) 980 1947 1
(0.294878 0.352561 0.091268 0.261293) 981 1801 2
(0.0292405 0.48538 0.114467 0.370913) 982 1949 1
(0.448111 0.266452 0.00949209 0.275945) 982 1952 1
(0.317559 0.341221 0.0951527 0.246068) 983 1954 2
(0.157749 0.079355 0.341771 0.421126) 984 1953 2
(0.16163 0.146069 0.419185 0.273116) 984 1955 2
(0.0633966 0.228557 0.468302 0.239744) 985 1957 2
(0.129183 0.435408 0.165873 0.269535) 986 1959 1
(0.0530529 0.473474 0.360073 0.113401) 987 1961 1
(0.23681 0.381595 0.0217134 0.359881) 989 1963 1
(0.32 0.34 0.200413 0.139587) 990 1819 2
(0.220294 0.389853 0.314312 0.0755409) 991 1970 2
(0.502599 0.110537 0.138164 0.248701) 992 1972 1
(0.115402 0.238001 0.442299 0.204298) 993 1973 2
(0.141983 0.148167 0.429008 0.280841) 994 1827 1
(0.149982 0.225373 0.425009 0.199637) 995 1829 1
(0.203497 0.111947 0.286305 0.398251) 921 1831 1
(0.392651 0.037563 0.266111 0.303674) 922 1833 1
(0.0795357 0.13055 0.460232 0.329683) 923 1834 2
(0.225599 0.0305975 0.356603 0.3872) 926 1841 1
(0.31207 0.343965 0.218132 0.125833) 1003 1845 2
(0.231592 0.384204 0.121461 0.262743) 1004 1993 1
(0.235924 0.00986146 0.372177 0.382038) 1002 1989 2
(0.329379 0.335311 0.0284051 0.306905) 1078 2140 1
(0.354548 0.322726 0.159142 0.163584) 1078 2142 1
(0.679524 0.160238 0.0873257 0.0729122) 1079 2144 1
(0.190895 0.404552 0.178586 0.225966) 1050 2087 2
(0.0312669 0.130165 0.354201 0.484367) 1052 2088 2
(0.512903 0.117148 0.243548 0.1264) 1053 1944 1
(0.298911 0.350544 0.0650119 0.285532) 1054 1946 2
(0.304065 0.347967 0.311903 0.0360644) 1055 1948 2
(0.147749 0.426126 0.33885 0.0872753) 1055 2096 1
(0.320307 0.265085 0.339847 0.0747621) 1056 1950 1
(0.430523 0.284739 0.262403 0.0223353) 1057 1952 2
(0.278936 0.360532 0.0689169 0.291615) 1058 2103 2
(0.285331 0.357335 0.00215589 0.355179) 1059 2105 2
(0.283007 0.358497 0.02855 0.329947) 1060 2107 2
(0.320793 0.180299 0.339603 0.159305) 1060 1958 1
(0.337905 0.289031 0.331048 0.0420162) 1061 1960 1
(0.252291 0.373854 0.0563943 0.31746) 1062 1962 2
(0.287017 0.356491 0.110579 0.245912) 1063 1964 2
(0.205744 0.111065 0.286064 0.397128) 1064 2115 1
(0.191583 0.0116163 0.392592 0.404209) 1066 2116 2
(0.252935 0.373533 0.238826 0.134706) 1067 2121 2
(0.298687 0.350657 0.127169 0.223488) 1068 1974 2
(0.259487 0.370257 0.00440076 0.365856) 1069 1976 2
(0.187999 0.406 0.095669 0.310331) 1070 1978 2
(0.226385 0.386807 0.247441 0.139366) 1071 1980 2
(0.333203 0.00462043 0.328778 0.333399) 997 1979 2
(0.20815 0.147882 0.248043 0.395925) 998 1981 2
(0.149771 0.344156 0.0809588 0.425115) 998 1984 1
(0.245457 0.377272 0.363038 0.0142334) 1074 1986 2
(0.143494 0.0639335 0.364319 0.428253) 1000 1985 2
(0.162796 0.136379 0.282223 0.418602) 1001 1987 2
(0.419944 0.290028 0.145903 0.144125) 1075 2137 2
(0.0613403 0.21955 0.249779 0.46933) 1076 2136 2
(0.506045 0.0832115 0.163766 0.246977) 1076 2139 1
(0.280636 0.359682 0.315799 0.0438823) 1077 2141 2
(0.645353 0.177323 0.097445 0.0798784) 1126 2238 2
(0.363228 0.318386 0.172957 0.145429) 1127 2239 1
(0.279124 0.360438 0.187362 0.173075) 1129 2095 2
(0.25214 0.332368 0.37393 0.0415616) 1130 2097 1
(0.276992 0.361504 0.345227 0.0162775) 1132 2250 2
(0.257605 0.371198 0.249895 0.121303) 1133 2252 2
(0.204807 0.397597 0.0821725 0.315424) 1134 2254 2
(0.195733 0.0740456 0.328088 0.402133) 1134 2254 1
(0.28037 0.359815 0.272141 0.0876735) 1135 2256 2
(0.126197 0.0808156 0.436902 0.356086) 1135 2255 2
(0.274804 0.362598 0.33466 0.0279386) 1136 2258 2
(0.00364942 0.382661 0.498175 0.115515) 1136 2109 1
(0.246613 0.376693 0.0110998 0.365594) 1137 2257 1
(0.271241 0.0617322 0.364379 0.302647) 1137 2111 1
(0.00753408 0.176191 0.320042 0.496233) 1139 2261 2
(0.125207 0.075069 0.437397 0.362328) 1139 2263 2
(0.222512 0.0231937 0.36555 0.388744) 1141 2265 2
(0.332252 0.333874 0.288368 0.0455057) 1142 2270 2
(0.187703 0.274771 0.406148 0.131377) 1143 2123 1
(0.0405213 0.479739 0.444806 0.0349337) 1144 2273 1
(0.272798 0.267107 0.0964938 0.363601) 1145 2276 1
(0.343479 0.328261 0.240688 0.0875729) 1146 2278 2
(0.279336 0.360332 0.125958 0.234374) 1147 2280 2
(0.0976776 0.143174 0.307987 0.451161) 1072 2128 2
(0.0594942 0.470253 0.45022 0.0200325) 1147 2279 1
(0.165042 0.289225 0.417479 0.128254) 1148 2133 1
(0.192901 0.40355 0.259684 0.143865) 1149 2135 2
(0.119716 0.147852 0.440142 0.292289) 1149 2135 1
(0.495142 0.252429 0.0659093 0.18652) 1150 2286 2
(0.289001 0.355499 0.24469 0.110809) 1150 2285 1
(0.567792 0.216104 0.0485769 0.167527) 1151 2139 2
(0.309802 0.345099 0.120837 0.224262) 1152 2287 1
(0.171098 0.414451 0.042607 0.371844) 1201 2238 2
(0.364797 0.317138 0.00046374 0.317601) 1202 2389 1
(0.0157029 0.492149 0.148466 0.343683) 1205 2392 1
(0.302795 0.255694 0.348602 0.0929088) 1206 2248 1
(0.336284 0.331858 0.275848 0.0560105) 1282 2399 2
(0.0595966 0.0647237 0.405478 0.470202) 1207 2399 1
(0.126688 0.133267 0.303389 0.436656) 1208 2401 1
(0.0991483 0.332484 0.117942 0.450426) 1209 2403 1
(0.12714 0.43643 0.237308 0.199122) 1210 2405 2
(0.00744348 0.0652166 0.431062 0.496278) 1210 2405 1
(0.669041 0.0946555 0.16548 0.0708242) 1211 2258 1
(0.280269 0.359866 0.0434027 0.316463) 1212 2406 1
(0.352418 0.214878 0.323791 0.108913) 1212 2260 1
(0.217312 0.391344 0.0114592 0.379885) 1213 2262 2
(0.364085 0.317958 0.0371926 0.280765) 1215 2415 2
(0.0458092 0.165468 0.477095 0.311628) 1215 2414 2
(0.355514 0.0366724 0.322243 0.285571) 1216 2416 2
(0.380548 0.0713531 0.238373 0.309726) 1217 2419 1
(0.353837 0.10593 0.217151 0.323082) 1218 2421 1
(0.30622 0.112351 0.234539 0.34689) 1219 2423 1
(0.252245 0.101197 0.27268 0.373878) 1220 2425 1
(0.242614 0.09937 0.279323 0.378693) 1221 2427 1
(0.203141 0.149587 0.39843 0.248842) 1298 2431 1
(0.134888 0.432556 0.0501033 0.382453) 1223 2428 1
(0.00672593 0.496637 0.42519 0.0714475) 1223 2430 1
(0.319246 0.340377 0.0404728 0.299904) 1224 2284 2
(0.0550959 0.472452 0.114917 0.357535) 1225 2432 1
(0.478934 0.260533 0.0774999 0.183033) 1225 2286 2
(0.120042 0.439979 0.194765 0.245214) 1225 2434 1
(0.243409 0.378295 0.143574 0.234721) 1226 2288 2
(0.254168 0.372916 0.307324 0.0655915) 1226 2436 1
(0.279433 0.203602 0.360284 0.156682) 1227 2290 1
(0.22329 0.0196509 0.388355 0.368704) 1200 2384 2
(0.144816 0.101893 0.325699 0.427592) 1276 2533 2
(0.070369 0.127681 0.337134 0.464815) 1277 2535 2
(0.171349 0.0806633 0.414326 0.333662) 1277 2537 2
(0.325168 0.0573945 0.280021 0.337416) 1278 2540 1
(0.253649 0.0593551 0.31382 0.373176) 1279 2542 1
(0.166123 0.0970238 0.416939 0.319915) 1356 2546 1
(0.0653886 0.075001 0.392305 0.467306) 1282 2548 1
(0.0116795 0.0877965 0.406364 0.49416) 1284 2549 2
(0.366587 0.291751 0.0249554 0.316706) 1286 2553 2
(0.185835 0.407082 0.223165 0.183917) 1287 2555 1
(0.0769124 0.197996 0.263548 0.461544) 1213 2411 1
(0.275181 0.324113 0.0382959 0.362409) 1214 2413 1
(0.250038 0.12088 0.254101 0.374981) 1291 2563 2
(0.283903 0.0932945 0.358049 0.264754) 1291 2565 2
(0.367747 0.298784 0.0173426 0.316126) 1292 2568 1
(0.076066 0.112569 0.349397 0.461967) 1293 2567 2
(0.309465 0.314723 0.0305442 0.345267) 1293 2570 1
(0.00384328 0.15679 0.341288 0.498078) 1294 2569 2
(0.369511 0.315244 0.255733 0.0595117) 1294 2572 2
(0.270056 0.364972 0.31574 0.049232) 1369 2720 1
(0.337576 0.163976 0.331212 0.167235) 1370 2574 1
(0.232379 0.0649215 0.318889 0.383811) 1296 2573 2
(0.226255 0.386872 0.0395925 0.34728) 1297 2578 2
(0.122456 0.438772 0.266653 0.172119) 1298 2580 2
(0.527307 0.236347 0.0217545 0.214592) 1299 2433 2
(0.194193 0.402904 0.291696 0.111208) 1300 2581 1
(0.533917 0.233041 0.162845 0.0701969) 1300 2583 1
(0.459247 0.270377 0.106353 0.164024) 1301 2437 2
(0.0320955 0.483952 0.154396 0.329557) 1302 2585 1
(0.337658 0.127649 0.331171 0.203522) 1302 2439 1
(0.31009 0.335032 0.344955 0.00992309) 1303 2441 1
(0.319032 0.0493757 0.340484 0.291108) 1350 2682 2
(0.325829 0.1577 0.179385 0.337086) 1351 2685 1
(0.298592 0.282615 0.0680895 0.350704) 1352 2687 1
(0.161749 0.100188 0.419126 0.318938) 1353 2688 2
(0.148355 0.425823 0.22716 0.198663) 1356 2695 2
(0.672016 0.0461083 0.163992 0.117883) 1358 2550 1
(0.0874831 0.456258 0.123928 0.33233) 1360 2700 1
(0.533499 0.23325 0.0564014 0.176849) 1361 2556 2
(0.10199 0.0206348 0.42837 0.449005) 1289 2559 2