/*--------------------------------*- C++ -*----------------------------------*\
  =========                 |
  \\      /  F ield         | OpenFOAM: The Open Source CFD Toolbox
   \\    /   O peration     | Website:  https://openfoam.org
    \\  /    A nd           | Version:  12
     \\/     M anipulation  |
\*---------------------------------------------------------------------------*/
FoamFile
{
    format      ascii;
    class       volScalarField::Internal;
    location    "0.75";
    object      cloud:UCoeff;
}
// * * * * * * * * * * * * * * * * * * * * * * * * * * * * * * * * * * * * * //

dimensions      [1 0 0 0 0 0 0];

value           nonuniform List<scalar> 
3750
(
1.4855e-08
1.47183e-08
3.42371e-08
1.39338e-08
1.50133e-08
1.50465e-08
1.48272e-08
1.44677e-08
1.4342e-08
5.78309e-08
1.42421e-08
1.47004e-08
1.67467e-08
1.54728e-08
2.22682e-08
6.3143e-09
3.51001e-08
1.40483e-08
1.41523e-08
1.40823e-08
1.41113e-08
3.52334e-08
0
0
1.37327e-08
1.46227e-08
1.49672e-08
1.4629e-08
3.41105e-08
0
2.9043e-08
1.53099e-08
1.48627e-08
1.46713e-08
1.47306e-08
0
1.36965e-08
1.48282e-08
3.44675e-08
1.44426e-08
1.48494e-08
3.57669e-08
1.47972e-08
1.4735e-08
1.48032e-08
1.47166e-08
1.4369e-08
1.42092e-08
1.4116e-08
0
0
0
0
0
0
0
0
0
0
0
0
0
0
0
0
0
0
0
0
0
0
0
0
0
0
1.48322e-08
1.41266e-08
0
1.51775e-08
0
0
1.47449e-08
1.43343e-08
1.33682e-08
1.38806e-08
0
1.02446e-07
3.71107e-08
1.36075e-08
0
0
0
1.45479e-08
1.46178e-08
1.45038e-08
3.63658e-08
1.5217e-08
3.73181e-08
3.5216e-08
0
0
1.50702e-08
0
3.46065e-08
3.51863e-08
3.89969e-08
1.2999e-08
0
0
1.462e-08
0
3.52679e-08
1.45273e-08
1.44128e-08
1.45404e-08
1.48446e-08
1.4532e-08
1.448e-08
1.44706e-08
0
0
0
0
0
0
0
0
0
0
0
0
0
0
0
0
0
0
0
0
0
0
0
0
0
0
0
0
0
0
0
1.47267e-08
0
5.92173e-08
3.46748e-08
1.46209e-08
0
1.48208e-08
0
0
1.28996e-08
3.52219e-08
0
1.53049e-08
1.4105e-08
1.4235e-08
1.44613e-08
1.47156e-08
1.48787e-08
1.47163e-08
1.48744e-08
3.61008e-08
3.68151e-08
3.6472e-08
1.45009e-08
0
1.52914e-08
1.5122e-08
3.47959e-08
1.41015e-08
1.49558e-08
1.43496e-08
1.38818e-08
1.40611e-08
1.42375e-08
1.42371e-08
1.61026e-08
3.18895e-08
3.45031e-08
1.34962e-08
1.42216e-08
1.47769e-08
0
0
0
0
0
0
0
0
0
0
0
0
0
0
0
0
0
0
0
0
0
0
0
0
0
0
0
0
0
0
0
0
0
0
1.40142e-08
0
0
1.42209e-08
1.49694e-08
1.50474e-08
0
1.39055e-08
3.27372e-08
3.28273e-08
1.63578e-08
1.62523e-08
1.42651e-08
1.41627e-08
1.42687e-08
1.43278e-08
3.37241e-08
3.46578e-08
2.71185e-08
1.85247e-08
1.62321e-08
1.55687e-08
1.50036e-08
1.50344e-08
1.48836e-08
1.55031e-08
0
1.48177e-08
1.4409e-08
1.47307e-08
1.44888e-08
3.49814e-08
1.35313e-08
1.43968e-08
0
1.44946e-08
3.47516e-08
1.38904e-08
1.3756e-08
0
0
0
0
0
0
0
0
0
0
0
0
0
0
0
0
0
0
0
0
0
0
0
0
0
0
0
0
0
0
0
0
0
0
0
0
0
1.43457e-08
1.49771e-08
1.5179e-08
0
1.51434e-08
1.48598e-08
0
1.3748e-08
3.45481e-08
1.50366e-08
1.56806e-08
3.57972e-08
1.43022e-08
1.4664e-08
6.06139e-08
0
1.43355e-08
1.46279e-08
1.49376e-08
1.71106e-08
0
1.53486e-08
1.49111e-08
3.58357e-08
1.60938e-08
1.49014e-08
1.45297e-08
1.45045e-08
3.50766e-08
1.38881e-08
1.3892e-08
0
0
0
0
3.38718e-08
1.41728e-08
1.5181e-08
1.53663e-08
0
0
0
0
0
0
0
0
0
0
0
0
0
0
0
0
0
0
0
0
0
0
0
0
0
0
0
0
0
0
0
0
0
0
0
1.47886e-08
1.50808e-08
0
1.52393e-08
1.56502e-08
1.52109e-08
1.48195e-08
1.44033e-08
1.3863e-08
1.41638e-08
1.88247e-08
3.07983e-08
1.46143e-08
1.46388e-08
1.47133e-08
1.4243e-08
1.43054e-08
1.48343e-08
1.48766e-08
1.528e-08
0
1.60424e-08
1.5305e-08
1.50035e-08
1.45037e-08
3.82757e-08
1.51209e-08
1.3261e-08
1.35943e-08
1.44136e-08
1.45282e-08
1.4433e-08
1.41618e-08
1.43481e-08
1.40759e-08
1.40151e-08
0
1.41062e-08
1.72196e-08
0
0
0
0
0
0
0
0
0
0
0
0
0
0
0
0
0
0
0
0
0
0
0
0
0
0
0
0
0
0
0
0
0
0
0
0
1.45843e-08
1.44574e-08
1.42246e-08
3.90562e-08
1.52008e-08
1.37876e-08
3.29366e-08
3.33532e-08
3.27227e-08
1.42163e-08
0
1.48184e-08
1.50631e-08
1.4914e-08
1.50078e-08
1.49565e-08
1.4964e-08
1.51703e-08
0
1.50851e-08
1.57199e-08
2.2385e-08
2.86935e-08
1.52198e-08
0
1.52955e-08
1.51126e-08
1.37862e-08
1.39299e-08
1.46467e-08
1.46441e-08
3.44299e-08
1.37729e-08
3.43179e-08
1.36825e-08
1.38121e-08
1.37731e-08
0
1.57483e-08
0
0
0
0
0
0
0
0
0
0
0
0
0
0
0
0
0
0
0
0
0
0
0
0
0
0
0
0
0
0
0
0
0
0
0
0
1.48772e-08
1.46367e-08
1.47424e-08
3.66129e-08
3.52457e-08
6.31581e-08
3.01371e-08
1.3287e-08
0
1.43064e-08
1.46319e-08
0
1.47349e-08
1.48615e-08
0
1.50447e-08
1.50353e-08
1.52524e-08
1.53846e-08
3.62251e-08
1.48577e-08
1.5129e-08
1.55974e-08
0
1.52e-08
1.47391e-08
0
1.4679e-08
1.44241e-08
1.46549e-08
1.48428e-08
1.4726e-08
1.45331e-08
3.5517e-08
1.32522e-08
1.42151e-08
1.34653e-08
3.34231e-08
1.42523e-08
0
0
0
0
0
0
0
0
0
0
0
0
0
0
0
0
0
0
0
0
0
0
0
0
0
0
0
0
0
0
0
0
0
0
0
0
1.48482e-08
1.49747e-08
1.5151e-08
3.60149e-08
1.49129e-08
1.40004e-08
1.4419e-08
0
1.42893e-08
0
1.48175e-08
1.48933e-08
0
1.47456e-08
1.48681e-08
1.49134e-08
1.50763e-08
1.57965e-08
1.59792e-08
1.55745e-08
1.45915e-08
1.46046e-08
1.57203e-08
1.58609e-08
1.53878e-08
1.42881e-08
1.45441e-08
0
1.43433e-08
0
0
1.4796e-08
1.46681e-08
1.46883e-08
1.46901e-08
0
1.48716e-08
1.43108e-08
3.55334e-08
0
0
0
0
0
0
0
0
0
0
0
0
0
0
0
0
0
0
0
0
0
0
0
0
0
0
0
0
0
0
0
0
0
0
0
0
0
1.47945e-08
1.54335e-08
1.54236e-08
3.54645e-08
1.42442e-08
1.47326e-08
0
1.46241e-08
0
1.482e-08
0
1.44762e-08
1.47679e-08
0
1.46951e-08
1.46893e-08
4.03073e-08
1.60694e-08
1.44792e-08
1.42371e-08
1.37912e-08
3.86329e-08
0
1.37814e-08
2.03054e-09
1.06807e-08
1.44079e-08
1.43762e-08
1.43813e-08
1.41737e-08
1.48494e-08
0
1.48668e-08
0
1.47874e-08
1.48206e-08
1.42528e-08
1.42769e-08
1.46439e-08
1.507e-08
0
0
0
0
0
0
0
0
0
0
0
0
0
0
0
0
0
0
0
0
0
0
0
0
0
0
0
0
0
0
0
0
0
0
1.31083e-08
3.45191e-08
0
1.56092e-08
0
1.38544e-08
3.31968e-08
1.32239e-08
0
1.43501e-08
1.4867e-08
1.39728e-08
1.40452e-08
1.51403e-08
0
1.50345e-08
0
1.58891e-08
1.71953e-08
0
3.37714e-08
1.36886e-08
3.7981e-08
1.54045e-08
1.48295e-08
1.41869e-08
1.41149e-08
0
1.4274e-08
1.47324e-08
1.39806e-08
0
1.48157e-08
1.47773e-08
0
1.46816e-08
0
1.40958e-08
1.37413e-08
1.37202e-08
3.89366e-08
0
0
0
0
0
0
0
0
0
0
0
0
0
0
0
0
0
0
0
0
0
0
0
0
0
0
0
0
0
0
0
0
0
0
1.42755e-08
1.38862e-08
3.93526e-08
1.5311e-08
3.37497e-08
3.35548e-08
1.42044e-08
1.41721e-08
1.42113e-08
1.46334e-08
1.46255e-08
1.41617e-08
1.41326e-08
0
1.53128e-08
1.59495e-08
0
1.52678e-08
1.56202e-08
1.56071e-08
1.49854e-08
1.45602e-08
1.53034e-08
1.5518e-08
1.50224e-08
3.58544e-08
1.43705e-08
1.43004e-08
0
1.47413e-08
0
1.4736e-08
3.48616e-08
1.42553e-08
0
0
3.49844e-08
1.36702e-08
1.43598e-08
3.57244e-08
0
0
0
0
0
0
0
0
0
0
0
0
0
0
0
0
0
0
0
0
0
0
0
0
0
0
0
0
0
0
0
0
0
0
0
0
0
1.58448e-08
1.58739e-08
0
0
0
3.42473e-08
1.43802e-08
3.37214e-08
1.39979e-08
1.40604e-08
3.32799e-08
3.32737e-08
3.88272e-08
1.66504e-08
4.37646e-09
6.71521e-09
1.45105e-08
1.48379e-08
1.51695e-08
1.51044e-08
1.54709e-08
1.53991e-08
1.50518e-08
1.48581e-08
1.47261e-08
1.45163e-08
1.44377e-08
1.46916e-08
1.4027e-08
0
1.45309e-08
1.45179e-08
1.51529e-08
1.51919e-08
0
1.44925e-08
1.42713e-08
1.48322e-08
0
0
0
0
0
0
0
0
0
0
0
0
0
0
0
0
0
0
0
0
0
0
0
0
0
0
0
0
0
0
0
0
0
0
0
1.51549e-08
1.50107e-08
0
1.51555e-08
1.48365e-08
3.42134e-08
3.47712e-08
3.49806e-08
1.44551e-08
1.48332e-08
0
1.46765e-08
3.3791e-08
1.58954e-08
3.30251e-08
1.64429e-08
1.54236e-08
1.35573e-08
1.39255e-08
1.43226e-08
1.47776e-08
1.5493e-08
1.5676e-08
1.52666e-08
1.50351e-08
1.50382e-08
0
3.50738e-08
1.42059e-08
1.4271e-08
1.42421e-08
1.39601e-08
0
0
1.51371e-08
1.57736e-08
3.50887e-08
1.34563e-08
3.53386e-08
0
0
0
0
0
0
0
0
0
0
0
0
0
0
0
0
0
0
0
0
0
0
0
0
0
0
0
0
0
0
0
0
0
0
0
0
1.5013e-08
1.47632e-08
1.47447e-08
1.47248e-08
1.44751e-08
1.46874e-08
1.48018e-08
1.45424e-08
1.46518e-08
0
1.46192e-08
3.45108e-08
1.37685e-08
1.4307e-08
1.58032e-08
3.71789e-08
1.56648e-08
1.46455e-08
1.39944e-08
3.48386e-08
1.46191e-08
1.66594e-08
0
1.54352e-08
1.55313e-08
1.51041e-08
1.45797e-08
1.43128e-08
1.4421e-08
1.43284e-08
1.45134e-08
1.41923e-08
1.40921e-08
3.41632e-08
3.83238e-08
1.48114e-08
1.33745e-08
1.31596e-08
1.43343e-08
0
0
0
0
0
0
0
0
0
0
0
0
0
0
0
0
0
0
0
0
0
0
0
0
0
0
0
0
0
0
0
0
0
0
0
0
1.37491e-08
1.45332e-08
1.44517e-08
1.42331e-08
1.44481e-08
1.45479e-08
0
1.47292e-08
0
1.48882e-08
1.50784e-08
0
1.44342e-08
1.49996e-08
7.31183e-09
1.8807e-08
1.57356e-08
3.70567e-08
3.32585e-08
1.32486e-08
3.46989e-08
0
1.46077e-08
1.63732e-08
1.68542e-08
1.49129e-08
1.44448e-08
5.6083e-09
2.07384e-08
1.40953e-08
1.42301e-08
3.38642e-08
3.44483e-08
1.38546e-08
3.66924e-08
1.48642e-08
0
0
0
0
0
0
0
0
0
0
0
0
0
0
0
0
0
0
0
0
0
0
0
0
0
0
0
0
0
0
0
0
0
0
0
0
0
0
0
1.48199e-08
1.42939e-08
1.44865e-08
1.42843e-08
1.45936e-08
1.46734e-08
0
1.47224e-08
1.48611e-08
1.48617e-08
1.47412e-08
0
1.45824e-08
0
1.48012e-08
1.44877e-08
3.88029e-08
1.48218e-08
1.42027e-08
3.29896e-08
1.38836e-08
3.46214e-08
1.40019e-08
3.9161e-08
1.7009e-08
2.28138e-09
1.0296e-08
1.38962e-08
1.43773e-08
1.44069e-08
1.44725e-08
1.42768e-08
3.44673e-08
3.41461e-08
3.48966e-08
1.45235e-08
1.44184e-08
0
0
0
0
0
0
0
0
0
0
0
0
0
0
0
0
0
0
0
0
0
0
0
0
0
0
0
0
0
0
0
0
0
0
0
0
0
0
1.49205e-08
1.45636e-08
0
1.43299e-08
1.4517e-08
1.47002e-08
0
1.4895e-08
0
3.71476e-08
1.40973e-08
1.43653e-08
0
1.48508e-08
3.48769e-08
1.4997e-08
1.56039e-08
0
1.43438e-08
1.40564e-08
0
1.55548e-08
0
3.70683e-08
1.50724e-08
3.63696e-08
1.42464e-08
1.44582e-08
0
1.47288e-08
1.43497e-08
3.50127e-08
1.40269e-08
1.45647e-08
3.56058e-08
1.42168e-08
1.43076e-08
1.44389e-08
0
0
0
0
0
0
0
0
0
0
0
0
0
0
0
0
0
0
0
0
0
0
0
0
0
0
0
0
0
0
0
0
0
0
0
0
0
1.49793e-08
0
3.38753e-08
1.44438e-08
1.45671e-08
1.46032e-08
1.45135e-08
1.49338e-08
2.17891e-08
3.00588e-08
1.37674e-08
0
1.46378e-08
0
1.48448e-08
0
1.53278e-08
1.53803e-08
1.49363e-08
0
0
0
3.69467e-08
3.53519e-08
1.39022e-08
3.44574e-08
1.42727e-08
1.40993e-08
1.44692e-08
1.45679e-08
3.46109e-08
1.42845e-08
1.42007e-08
1.48119e-08
1.49054e-08
1.47603e-08
1.43994e-08
0
0
0
0
0
0
0
0
0
0
0
0
0
0
0
0
0
0
0
0
0
0
0
0
0
0
0
0
0
0
0
0
0
0
0
0
0
0
1.45664e-08
0
1.42445e-08
1.46126e-08
1.42918e-08
1.4341e-08
1.41275e-08
1.43674e-08
1.66517e-08
0
1.51183e-08
1.38295e-08
1.46758e-08
0
1.47014e-08
0
1.503e-08
1.50745e-08
1.466e-08
1.44358e-08
0
6.68739e-08
2.65123e-08
2.0241e-08
3.51088e-08
1.40361e-08
1.4115e-08
1.48453e-08
1.44345e-08
1.38359e-08
3.50982e-08
0
1.44807e-08
1.47075e-08
1.46479e-08
1.48498e-08
1.47914e-08
1.35116e-08
1.43611e-08
1.46305e-08
0
0
0
0
0
0
0
0
0
0
0
0
0
0
0
0
0
0
0
0
0
0
0
0
0
0
0
0
0
0
0
0
0
0
0
1.45352e-08
1.42108e-08
1.45189e-08
1.44164e-08
1.45101e-08
1.44917e-08
1.41602e-08
1.51486e-08
1.6612e-08
0
1.50146e-08
3.38688e-08
0
3.47216e-08
1.46052e-08
1.46374e-08
1.48244e-08
1.46694e-08
0
1.47059e-08
1.49194e-08
3.60429e-08
1.50491e-08
3.5661e-08
1.42936e-08
1.4403e-08
1.43976e-08
1.45587e-08
1.43e-08
3.43266e-08
0
1.47377e-08
1.36855e-08
1.40186e-08
1.49925e-08
0
0
3.53987e-08
1.46076e-08
0
0
0
0
0
0
0
0
0
0
0
0
0
0
0
0
0
0
0
0
0
0
0
0
0
0
0
0
0
0
0
0
0
0
0
0
0
1.41753e-08
1.44902e-08
1.44885e-08
0
1.44779e-08
1.48583e-08
1.46331e-08
1.53439e-08
1.5662e-08
3.47856e-08
0
1.45239e-08
3.48687e-08
1.39532e-08
1.45485e-08
3.73673e-08
1.53258e-08
0
3.53405e-08
1.46528e-08
1.49022e-08
1.528e-08
3.56812e-09
8.55278e-09
1.48504e-08
1.47575e-08
0
1.47984e-08
1.47752e-08
1.52549e-08
0
1.47907e-08
1.47347e-08
0
1.49548e-08
0
3.57263e-08
0
1.48947e-08
1.46544e-08
0
0
0
0
0
0
0
0
0
0
0
0
0
0
0
0
0
0
0
0
0
0
0
0
0
0
0
0
0
0
0
0
0
0
1.48691e-08
3.49594e-08
1.38592e-08
1.42671e-08
3.4824e-08
1.41697e-08
0
1.47254e-08
1.54735e-08
2.69168e-08
2.09259e-08
1.3681e-08
3.38597e-08
1.3644e-08
1.36778e-08
1.34474e-08
1.64571e-08
0
1.39378e-08
0
1.46695e-08
1.5028e-08
0
1.50604e-08
0
1.49682e-08
0
1.48861e-08
1.53944e-08
1.43508e-08
1.48783e-08
1.50663e-08
0
1.48722e-08
1.49383e-08
1.51681e-08
1.4742e-08
1.46058e-08
1.44754e-08
2.28632e-08
6.40871e-09
0
0
0
0
0
0
0
0
0
0
0
0
0
0
0
0
0
0
0
0
0
0
0
0
0
0
0
0
0
0
0
0
0
0
6.37647e-08
1.41597e-08
1.3947e-08
1.42359e-08
3.40175e-08
3.38783e-08
1.37111e-08
1.40943e-08
3.82155e-08
3.70934e-08
1.36581e-08
1.36427e-08
1.40007e-08
1.43844e-08
1.37482e-08
0
4.24255e-08
7.19952e-09
3.03664e-09
1.39106e-08
0
1.41822e-08
1.51063e-08
0
1.51174e-08
0
1.49631e-08
1.49944e-08
1.49534e-08
1.47631e-08
0
1.497e-08
1.48556e-08
1.46822e-08
1.4616e-08
1.48826e-08
1.47403e-08
1.50728e-08
1.49561e-08
1.50091e-08
1.48633e-08
0
0
0
0
0
0
0
0
0
0
0
0
0
0
0
0
0
0
0
0
0
0
0
0
0
0
0
0
0
0
0
0
0
0
1.46866e-08
1.32505e-08
1.36004e-08
3.45826e-08
1.40899e-08
3.42749e-08
3.27608e-08
3.38622e-08
1.52575e-08
1.57386e-08
1.43159e-08
1.39021e-08
0
0
1.44072e-08
0
3.77444e-08
1.58665e-08
2.31335e-08
2.14404e-08
1.34317e-08
1.40459e-08
1.41818e-08
1.45416e-08
1.4747e-08
4.26001e-09
7.49372e-09
1.48406e-08
1.44067e-08
0
1.47792e-08
1.46529e-08
3.50665e-08
1.41749e-08
1.4474e-08
1.47132e-08
1.48755e-08
1.49125e-08
1.49014e-08
1.50186e-08
0
0
0
0
0
0
0
0
0
0
0
0
0
0
0
0
0
0
0
0
0
0
0
0
0
0
0
0
0
0
0
0
0
0
0
1.58623e-08
1.46887e-08
1.40711e-08
1.45891e-08
0
1.42081e-08
1.39179e-08
3.38406e-08
3.43052e-08
3.65525e-08
0
1.43208e-08
0
1.45917e-08
1.39942e-08
3.51051e-08
1.51811e-08
1.53766e-08
1.50222e-08
1.48489e-08
1.43456e-08
1.48394e-08
0
1.45216e-08
1.44751e-08
1.49133e-08
0
3.48519e-08
1.39984e-08
1.42162e-08
3.49433e-08
1.41977e-08
1.45311e-08
1.46333e-08
1.45244e-08
1.47559e-08
1.49432e-08
0
1.48358e-08
0
0
0
0
0
0
0
0
0
0
0
0
0
0
0
0
0
0
0
0
0
0
0
0
0
0
0
0
0
0
0
0
0
0
0
0
3.56837e-08
1.47969e-08
1.47562e-08
1.46756e-08
3.47482e-08
3.40216e-08
1.44182e-08
1.49643e-08
1.48955e-08
1.5069e-08
1.85305e-08
2.89376e-08
3.421e-08
3.38904e-08
0
0
1.5378e-08
0
1.48292e-08
1.49393e-08
0
1.46558e-08
1.49516e-08
3.60503e-08
1.44597e-08
6.17904e-08
1.40574e-08
3.36465e-08
1.42088e-08
1.43884e-08
1.45081e-08
1.43591e-08
1.48685e-08
1.48757e-08
1.47089e-08
1.47455e-08
0
1.50008e-08
1.50917e-08
0
0
0
0
0
0
0
0
0
0
0
0
0
0
0
0
0
0
0
0
0
0
0
0
0
0
0
0
0
0
0
0
0
0
0
0
1.49051e-08
1.49225e-08
3.52596e-08
1.43674e-08
1.44378e-08
0
1.46346e-08
1.50312e-08
1.42181e-09
3.19676e-08
1.41663e-08
1.45481e-08
3.55538e-08
3.48978e-08
1.42427e-08
1.48769e-08
1.50283e-08
1.47845e-08
1.44195e-08
1.45849e-08
0
1.43888e-08
1.45004e-08
1.45086e-08
0
1.56036e-08
3.51486e-08
1.354e-08
1.42634e-08
1.46099e-08
0
1.46749e-08
1.49838e-08
1.50443e-08
1.49823e-08
1.54412e-08
0
3.50943e-08
1.45893e-08
0
0
0
0
0
0
0
0
0
0
0
0
0
0
0
0
0
0
0
0
0
0
0
0
0
0
0
0
0
0
0
0
0
0
0
0
0
0
0
1.47793e-08
1.46459e-08
1.44756e-08
0
1.48286e-08
0
6.04559e-08
1.41933e-08
0
0
3.54987e-08
1.4388e-08
1.4794e-08
0
1.44678e-08
3.54238e-08
1.36318e-08
1.41464e-08
1.44861e-08
1.47451e-08
3.4868e-08
3.85403e-08
1.50413e-08
3.33466e-08
1.33037e-08
5.85682e-08
1.42098e-08
0
0
1.43124e-08
1.44758e-08
1.55437e-08
0
1.57157e-08
0
0
1.50659e-08
3.90344e-08
0
0
0
0
0
0
0
0
0
0
0
0
0
0
0
0
0
0
0
0
0
0
0
0
0
0
0
0
0
0
0
0
0
0
1.44173e-08
3.51992e-08
1.49465e-08
1.49022e-08
1.45134e-08
0
1.44741e-08
3.44684e-08
3.39111e-08
0
1.46414e-08
1.49383e-08
0
1.49834e-08
0
0
3.60242e-08
1.44884e-08
1.44748e-08
3.468e-08
1.37705e-08
1.4578e-08
1.51267e-08
1.50618e-08
1.59613e-08
1.53471e-08
1.44293e-08
0
1.43512e-08
1.43279e-08
1.44215e-08
1.40505e-08
1.39926e-08
1.40283e-08
1.45464e-08
1.65708e-08
0
0
3.72659e-08
3.70829e-08
1.3666e-08
0
0
0
0
0
0
0
0
0
0
0
0
0
0
0
0
0
0
0
0
0
0
0
0
0
0
0
0
0
0
0
0
0
0
1.42374e-08
1.43728e-08
1.44868e-08
1.47823e-08
1.46693e-08
1.45952e-08
1.41971e-08
1.43031e-08
0
1.44732e-08
5.35664e-09
4.8164e-09
1.48591e-08
1.49537e-08
1.51349e-08
0
1.47384e-08
1.42941e-08
1.38938e-08
3.47841e-08
1.41378e-08
1.40257e-08
3.56605e-08
1.41285e-08
1.44903e-08
3.66653e-08
1.41897e-08
1.45264e-08
0
1.46378e-08
1.46801e-08
0
3.38956e-08
1.37382e-08
1.50332e-08
0
1.55386e-08
1.48265e-08
0
0
0
0
0
0
0
0
0
0
0
0
0
0
0
0
0
0
0
0
0
0
0
0
0
0
0
0
0
0
0
0
0
0
0
0
0
3.26723e-08
1.43503e-08
0
1.48314e-08
3.43124e-08
1.44077e-08
3.39403e-08
1.44152e-08
1.46118e-08
1.48236e-08
1.46882e-08
1.50861e-08
1.51175e-08
1.49887e-08
0
1.48314e-08
1.46332e-08
3.44392e-08
3.38884e-08
1.38359e-08
3.44841e-08
3.46199e-08
1.38985e-08
1.4017e-08
1.44655e-08
1.46629e-08
1.4623e-08
1.45436e-08
1.46831e-08
1.47311e-08
1.45654e-08
3.46375e-08
0
3.42814e-08
1.61679e-08
3.75796e-08
1.3903e-08
1.44716e-08
1.516e-08
0
0
0
0
0
0
0
0
0
0
0
0
0
0
0
0
0
0
0
0
0
0
0
0
0
0
0
0
0
0
0
0
0
0
0
0
1.44761e-08
0
3.47296e-08
3.46268e-08
0
1.48554e-08
1.51934e-08
0
1.47921e-08
1.45182e-08
0
1.49715e-08
1.50194e-08
3.59436e-08
1.48157e-08
3.51352e-08
3.38116e-08
3.51893e-08
1.38358e-08
1.39481e-08
3.55801e-08
1.394e-08
1.39519e-08
1.42093e-08
1.42577e-08
1.45626e-08
1.45239e-08
1.44391e-08
1.45256e-08
1.45368e-08
1.43337e-08
0
1.46733e-08
1.42827e-08
3.94376e-08
1.51029e-08
1.43761e-08
1.38874e-08
0
0
0
0
0
0
0
0
0
0
0
0
0
0
0
0
0
0
0
0
0
0
0
0
0
0
0
0
0
0
0
0
0
0
0
0
0
1.4835e-08
1.43678e-08
1.45856e-08
0
1.40672e-08
1.51755e-08
0
3.49404e-08
0
1.4862e-08
1.48453e-08
1.4962e-08
1.49711e-08
1.58636e-08
1.44463e-08
0
0
0
0
3.49353e-08
1.41502e-08
3.53642e-08
1.37881e-08
3.40932e-08
1.34007e-08
1.38373e-08
1.43937e-08
1.4656e-08
1.47523e-08
3.57039e-08
1.43837e-08
0
1.43405e-08
1.44715e-08
3.66919e-08
1.54719e-08
1.49189e-08
1.56157e-08
0
0
0
0
0
0
0
0
0
0
0
0
0
0
0
0
0
0
0
0
0
0
0
0
0
0
0
0
0
0
0
0
0
0
0
0
0
1.47809e-08
1.5093e-08
1.48907e-08
1.48278e-08
1.46259e-08
1.48358e-08
0
1.48296e-08
1.47292e-08
3.49846e-08
1.45779e-08
0
0
0
1.53356e-08
1.49291e-08
1.47498e-08
1.45498e-08
3.50142e-08
3.47801e-08
0
1.51129e-08
1.42219e-08
1.4012e-08
3.38517e-08
1.33614e-08
1.39405e-08
1.47174e-08
1.48786e-08
1.48694e-08
1.45867e-08
3.45415e-08
1.37914e-08
1.43279e-08
1.46101e-08
1.47641e-08
3.96587e-08
1.55604e-08
0
0
0
0
0
0
0
0
0
0
0
0
0
0
0
0
0
0
0
0
0
0
0
0
0
0
0
0
0
0
0
0
0
0
0
0
0
3.41789e-08
3.33048e-08
3.80261e-08
1.47341e-08
1.42085e-08
0
3.52474e-08
1.42062e-08
3.44915e-08
1.41943e-08
1.41348e-08
1.43841e-08
1.45261e-08
1.53387e-08
1.56352e-08
1.48853e-08
1.47148e-08
1.43127e-08
1.44656e-08
3.60578e-08
1.42595e-08
1.45973e-08
4.89372e-09
5.72192e-09
1.39173e-08
1.37657e-08
1.38724e-08
1.48806e-08
1.5093e-08
3.54059e-08
1.39918e-08
3.40211e-08
1.40432e-08
1.43454e-08
1.46767e-08
1.48592e-08
1.57148e-08
0
1.51632e-08
0
0
0
0
0
0
0
0
0
0
0
0
0
0
0
0
0
0
0
0
0
0
0
0
0
0
0
0
0
0
0
0
0
0
0
0
1.4731e-08
1.45753e-08
1.51767e-08
3.60829e-08
1.38375e-08
1.4093e-08
1.44971e-08
3.55778e-08
1.44174e-08
1.44879e-08
3.46012e-08
1.37031e-08
1.42692e-08
1.62252e-08
0
3.50258e-08
1.45722e-08
1.38011e-08
1.4382e-08
1.50257e-08
1.48094e-08
1.52648e-08
0
1.45965e-08
3.42923e-08
1.31335e-08
1.33552e-08
1.4715e-08
1.47683e-08
3.65024e-08
1.43868e-08
1.40508e-08
1.43261e-08
1.45075e-08
1.4652e-08
1.46339e-08
1.48319e-08
1.51961e-08
1.51267e-08
0
0
0
0
0
0
0
0
0
0
0
0
0
0
0
0
0
0
0
0
0
0
0
0
0
0
0
0
0
0
0
0
0
0
0
0
1.51958e-08
1.48703e-08
3.5196e-08
1.46348e-08
1.46305e-08
1.43249e-08
1.44404e-08
1.49259e-08
3.66001e-08
1.43028e-08
1.42223e-08
1.39439e-08
3.46023e-08
3.71315e-08
3.55108e-08
1.36353e-08
1.39493e-08
1.35607e-08
1.5141e-08
0
1.47772e-08
0
1.45987e-08
1.43047e-08
3.48387e-08
1.43417e-08
1.36947e-08
1.4476e-08
1.48257e-08
1.50032e-08
1.46658e-08
0
1.38289e-08
3.50292e-08
1.43359e-08
1.43294e-08
1.47335e-08
1.5059e-08
0
0
0
0
0
0
0
0
0
0
0
0
0
0
0
0
0
0
0
0
0
0
0
0
0
0
0
0
0
0
0
0
0
0
0
0
0
1.42488e-08
1.42193e-08
1.4328e-08
1.44489e-08
3.57133e-08
1.31634e-08
1.40332e-08
1.56249e-08
1.59145e-08
1.47887e-08
3.50202e-08
0
3.67122e-08
3.20087e-08
1.46546e-08
1.44694e-08
0
0
1.46057e-08
0
3.56681e-08
1.43987e-08
1.45862e-08
1.43462e-08
3.52638e-08
0
1.5507e-08
3.52131e-08
1.42003e-08
1.47768e-08
1.46166e-08
3.45007e-08
3.39688e-08
1.34822e-08
1.38799e-08
1.43283e-08
3.53554e-08
1.48472e-08
0
0
0
0
0
0
0
0
0
0
0
0
0
0
0
0
0
0
0
0
0
0
0
0
0
0
0
0
0
0
0
0
0
0
0
0
0
1.41684e-08
1.44816e-08
1.49436e-08
1.47658e-08
1.45758e-08
1.39595e-08
3.45722e-08
1.58107e-08
0
1.46677e-08
1.44522e-08
1.44988e-08
1.47132e-08
1.43051e-08
1.41654e-08
1.46984e-08
0
1.39678e-08
1.53694e-08
1.6155e-08
1.52954e-08
5.78067e-09
2.98714e-09
1.38889e-08
1.32993e-08
4.05512e-08
0
3.35914e-08
1.35414e-08
3.42578e-08
0
0
1.39333e-08
3.47031e-08
1.35536e-08
1.37912e-08
1.45976e-08
1.48585e-08
1.48505e-08
1.51577e-08
0
0
0
0
0
0
0
0
0
0
0
0
0
0
0
0
0
0
0
0
0
0
0
0
0
0
0
0
0
0
0
0
0
0
0
1.50976e-08
0
1.49879e-08
0
1.47668e-08
1.45954e-08
3.50173e-08
3.60479e-08
1.47052e-08
1.4567e-08
0
0
1.45643e-08
1.5008e-08
1.42851e-08
3.51798e-08
1.34961e-08
1.29835e-08
1.37273e-08
3.90863e-08
1.49711e-08
1.34665e-08
1.39321e-08
0
1.40486e-08
1.65318e-08
1.63038e-08
0
1.42351e-08
1.4285e-08
1.46371e-08
1.48556e-08
3.47645e-08
1.38558e-08
3.32039e-08
1.35764e-08
3.46449e-08
1.48993e-08
1.49042e-08
1.49808e-08
0
0
0
0
0
0
0
0
0
0
0
0
0
0
0
0
0
0
0
0
0
0
0
0
0
0
0
0
0
0
0
0
0
0
0
1.4488e-08
0
1.47657e-08
1.48853e-08
1.46359e-08
1.47478e-08
1.48837e-08
1.49278e-08
1.46759e-08
3.52414e-08
1.41621e-08
1.45833e-08
0
1.48711e-08
1.48032e-08
1.45282e-08
1.37857e-08
1.36493e-08
1.44e-08
1.53286e-08
3.65336e-08
1.41457e-08
1.40111e-08
1.4188e-08
1.45904e-08
1.5568e-08
0
1.49313e-08
1.49004e-08
1.45673e-08
1.46403e-08
1.4549e-08
1.46883e-08
3.44998e-08
1.38951e-08
1.39068e-08
1.40938e-08
1.43179e-08
1.49039e-08
1.5223e-08
1.52756e-08
0
0
0
0
0
0
0
0
0
0
0
0
0
0
0
0
0
0
0
0
0
0
0
0
0
0
0
0
0
0
0
0
0
0
1.4746e-08
1.46911e-08
1.48193e-08
0
0
1.51651e-08
7.46869e-10
1.36739e-08
1.51234e-08
1.50219e-08
1.4811e-08
1.47159e-08
1.47845e-08
1.48881e-08
1.48758e-08
0
0
1.42607e-08
1.47849e-08
1.51656e-08
0
3.56129e-08
1.3944e-08
1.49673e-08
1.49403e-08
1.49701e-08
1.5378e-08
0
1.53593e-08
1.49281e-08
1.48166e-08
0
1.44792e-08
1.4471e-08
2.1038e-08
2.5652e-08
1.43856e-08
1.43112e-08
1.50775e-08
1.5431e-08
0
0
0
0
0
0
0
0
0
0
0
0
0
0
0
0
0
0
0
0
0
0
0
0
0
0
0
0
0
0
0
0
0
0
0
1.48894e-08
1.49374e-08
0
1.48724e-08
1.47744e-08
1.47422e-08
0
1.49329e-08
1.5134e-08
1.50327e-08
1.49915e-08
1.47589e-08
3.44532e-08
1.43898e-08
0
0
3.43598e-08
3.52464e-08
0
1.48423e-08
1.49599e-08
1.46205e-08
0
1.49139e-08
1.47629e-08
1.48349e-08
3.56746e-08
1.5476e-08
1.51707e-08
1.49626e-08
0
3.47673e-08
1.35542e-08
1.38529e-08
1.40851e-08
1.39195e-08
1.42193e-08
1.48035e-08
1.48221e-08
1.5073e-08
0
0
0
0
0
0
0
0
0
0
0
0
0
0
0
0
0
0
0
0
0
0
0
0
0
0
0
0
0
0
0
0
0
0
0
1.47993e-08
0
3.44176e-08
1.38316e-08
4.1554e-08
2.71293e-08
3.47057e-08
1.44484e-08
1.46052e-08
1.48955e-08
1.49872e-08
1.47167e-08
1.45527e-08
1.49973e-08
0
1.49032e-08
1.43173e-08
1.40938e-08
1.40669e-08
2.66435e-08
1.35133e-08
4.09197e-09
1.48647e-08
0
1.47302e-08
1.46649e-08
3.57184e-08
3.86788e-08
1.54531e-08
1.42757e-08
1.42908e-08
0
1.34041e-08
3.42474e-08
1.37592e-08
1.39474e-08
0
0
1.48088e-08
3.62302e-08
1.44165e-08
0
0
0
0
0
0
0
0
0
0
0
0
0
0
0
0
0
0
0
0
0
0
0
0
0
0
0
0
0
0
0
0
0
0
1.46272e-08
0
1.45188e-08
1.50021e-08
0
3.49513e-08
1.41748e-08
1.44743e-08
0
1.49377e-08
1.45861e-08
1.45909e-08
1.46363e-08
1.47904e-08
1.49028e-08
1.47826e-08
1.46983e-08
3.49412e-08
1.38807e-08
0
1.42375e-08
1.47478e-08
1.47504e-08
1.46766e-08
1.45086e-08
1.46991e-08
1.4868e-08
1.59094e-08
1.59679e-08
1.49194e-08
1.44161e-08
3.41852e-08
1.37283e-08
1.41882e-08
1.47679e-08
1.46518e-08
1.45785e-08
1.47143e-08
1.46696e-08
1.48029e-08
1.49192e-08
1.46542e-08
3.41688e-08
0
0
0
0
0
0
0
0
0
0
0
0
0
0
0
0
0
0
0
0
0
0
0
0
0
0
0
0
0
0
0
0
0
1.41377e-08
0
1.4863e-08
1.48068e-08
0
1.47572e-08
1.4791e-08
1.49103e-08
0
3.48994e-08
1.43161e-08
1.47482e-08
1.49324e-08
1.5173e-08
1.50798e-08
1.48592e-08
5.77664e-09
2.03077e-08
3.42407e-08
3.41446e-08
3.41222e-08
3.42161e-08
1.42566e-08
0
1.44042e-08
0
1.53465e-08
1.56385e-08
0
1.46365e-08
1.41211e-08
1.43271e-08
0
0
0
0
1.46774e-08
1.49015e-08
1.50322e-08
1.50517e-08
1.75675e-08
1.22087e-08
1.45145e-08
0
0
0
0
0
0
0
0
0
0
0
0
0
0
0
0
0
0
0
0
0
0
0
0
0
0
0
0
0
0
0
4.51709e-08
0
3.41268e-08
0
1.43642e-08
0
3.40333e-08
1.45532e-08
1.47367e-08
3.46654e-08
0
0
1.374e-08
1.44199e-08
1.51131e-08
1.56893e-08
1.52709e-08
1.47427e-08
1.47898e-08
0
1.48212e-08
1.51413e-08
0
1.45858e-08
1.42548e-08
1.4054e-08
1.41515e-08
1.52318e-08
1.47607e-08
6.03081e-08
1.37786e-08
0
1.44135e-08
1.45849e-08
0
0
3.56014e-08
1.41167e-08
1.45329e-08
0
1.50701e-08
0
0
1.42689e-08
5.73359e-08
0
1.40384e-08
0
0
0
0
0
0
0
0
0
0
0
0
0
0
0
0
0
0
0
0
0
0
0
0
0
0
0
0
0
1.44133e-08
1.40079e-08
1.50392e-08
1.4802e-08
6.37658e-08
0
3.33909e-08
1.48862e-08
0
3.3583e-08
3.30104e-08
1.34555e-08
1.49833e-08
0
0
0
0
1.44404e-08
1.45914e-08
1.47617e-08
1.49025e-08
1.4939e-08
3.47366e-08
3.45284e-08
0
0
0
1.47537e-08
1.45824e-08
3.39356e-08
3.32198e-08
1.3571e-08
0
1.69806e-08
0
3.57359e-08
1.44283e-08
1.4676e-08
1.47562e-08
1.49268e-08
1.46491e-08
3.55103e-08
3.4244e-08
1.3891e-08
1.33219e-08
1.4464e-08
3.72e-08
0
0
0
0
0
0
0
0
0
0
0
0
0
0
0
0
0
0
0
0
0
0
0
0
0
0
0
1.48072e-08
1.45798e-08
3.36509e-08
2.3776e-08
2.12884e-08
0
3.40848e-08
1.41087e-08
1.43651e-08
1.48529e-08
0
3.30899e-08
1.33788e-08
1.49259e-08
1.70633e-08
0
1.51834e-08
1.42445e-08
1.44146e-08
3.39062e-08
1.35061e-08
0
1.41742e-08
1.46077e-08
1.47543e-08
1.47433e-08
1.49918e-08
1.45592e-08
1.37555e-08
1.39648e-08
1.46758e-08
0
1.34514e-08
1.41777e-08
1.39698e-08
1.45261e-08
1.36347e-08
1.39075e-08
1.44663e-08
1.43693e-08
1.49397e-08
1.43361e-08
1.49197e-08
1.47069e-08
0
1.38473e-08
1.45315e-08
1.49485e-08
3.64299e-08
0
0
0
0
0
0
0
0
0
0
0
0
0
0
0
0
0
0
0
0
0
0
0
0
0
0
)
;


// ************************************************************************* //
