/*--------------------------------*- C++ -*----------------------------------*\
  =========                 |
  \\      /  F ield         | OpenFOAM: The Open Source CFD Toolbox
   \\    /   O peration     | Website:  https://openfoam.org
    \\  /    A nd           | Version:  12
     \\/     M anipulation  |
\*---------------------------------------------------------------------------*/
FoamFile
{
    format      ascii;
    class       volVectorField::Internal;
    location    "0.75";
    object      cloud:UTrans;
}
// * * * * * * * * * * * * * * * * * * * * * * * * * * * * * * * * * * * * * //

dimensions      [1 1 -1 0 0 0 0];

value           nonuniform List<vector> 
3750
(
(-1.56987e-11 -5.31833e-10 0)
(-3.59413e-12 -5.19322e-10 0)
(5.57322e-13 -1.06466e-09 0)
(-1.15161e-11 -4.48962e-10 0)
(-4.11663e-12 -5.46967e-10 0)
(-1.02151e-11 -5.50046e-10 0)
(-1.17866e-11 -5.29332e-10 0)
(-1.19717e-11 -4.96238e-10 0)
(-1.07545e-11 -4.84934e-10 0)
(8.40355e-12 -1.58076e-09 0)
(2.66655e-11 -4.75395e-10 0)
(3.02708e-11 -5.168e-10 0)
(-4.51142e-11 -7.21715e-10 0)
(-2.43691e-11 -5.90895e-10 0)
(-6.41977e-14 -7.43623e-10 0)
(2.97567e-12 -2.17712e-10 0)
(1.67967e-12 -1.14671e-09 0)
(6.09126e-13 -4.59066e-10 0)
(-8.12161e-12 -4.68119e-10 0)
(-9.34972e-12 -4.61943e-10 0)
(-1.48143e-11 -4.64344e-10 0)
(9.69397e-12 -1.1595e-09 0)
(0 0 0)
(0 0 0)
(1.13899e-11 -4.31727e-10 0)
(-2.35077e-11 -5.0998e-10 0)
(-1.07761e-11 -5.42511e-10 0)
(-1.33612e-12 -5.111e-10 0)
(8.30229e-12 -1.05386e-09 0)
(0 0 0)
(-2.38161e-10 -9.08392e-10 0)
(-4.1673e-11 -5.73951e-10 0)
(-1.31556e-11 -5.32623e-10 0)
(-6.77891e-12 -5.1495e-10 0)
(5.97267e-12 -5.20442e-10 0)
(0 0 0)
(3.58086e-12 -4.28801e-10 0)
(3.77505e-12 -5.29548e-10 0)
(2.17424e-12 -1.08823e-09 0)
(-1.28622e-11 -4.93947e-10 0)
(-2.22793e-11 -5.31077e-10 0)
(-1.82711e-11 -1.21038e-09 0)
(-3.16317e-12 -5.26653e-10 0)
(-1.09606e-11 -5.20767e-10 0)
(1.77258e-12 -5.27221e-10 0)
(1.97374e-12 -5.19173e-10 0)
(8.1035e-12 -4.87408e-10 0)
(-2.09298e-11 -4.72759e-10 0)
(-4.13016e-12 -4.64976e-10 0)
(0 0 0)
(0 0 0)
(0 0 0)
(0 0 0)
(0 0 0)
(0 0 0)
(0 0 0)
(0 0 0)
(0 0 0)
(0 0 0)
(0 0 0)
(0 0 0)
(0 0 0)
(0 0 0)
(0 0 0)
(0 0 0)
(0 0 0)
(0 0 0)
(0 0 0)
(0 0 0)
(0 0 0)
(0 0 0)
(0 0 0)
(0 0 0)
(0 0 0)
(0 0 0)
(-6.88734e-12 -5.29882e-10 0)
(2.9229e-12 -4.65916e-10 0)
(0 0 0)
(-8.90768e-12 -5.62596e-10 0)
(0 0 0)
(0 0 0)
(-1.62655e-11 -5.21545e-10 0)
(-1.00466e-11 -4.8426e-10 0)
(1.29187e-12 -4.01448e-10 0)
(2.62277e-11 -4.43746e-10 0)
(0 0 0)
(-2.93821e-10 -3.81353e-09 0)
(8.7308e-13 -1.34693e-09 0)
(2.1259e-11 -4.20778e-10 0)
(0 0 0)
(0 0 0)
(0 0 0)
(5.83547e-12 -5.03644e-10 0)
(-7.96015e-12 -5.10009e-10 0)
(-2.67293e-11 -4.98945e-10 0)
(-1.24583e-10 -1.26721e-09 0)
(-1.86808e-11 -5.66158e-10 0)
(1.06488e-10 -1.36604e-09 0)
(7.50086e-11 -1.15515e-09 0)
(0 0 0)
(0 0 0)
(4.06302e-12 -5.52381e-10 0)
(0 0 0)
(-1.28598e-10 -1.09194e-09 0)
(-1.92125e-10 -1.13855e-09 0)
(-3.41897e-10 -1.09721e-09 0)
(-9.31811e-11 -3.59804e-10 0)
(0 0 0)
(0 0 0)
(7.98774e-12 -5.10216e-10 0)
(0 0 0)
(-2.85951e-12 -1.16254e-09 0)
(9.46479e-12 -5.01713e-10 0)
(4.08883e-12 -4.91401e-10 0)
(-1.57203e-11 -5.02748e-10 0)
(-2.09014e-11 -5.30676e-10 0)
(1.22458e-11 -5.02077e-10 0)
(9.58915e-12 -4.97406e-10 0)
(-1.41616e-11 -4.9644e-10 0)
(0 0 0)
(0 0 0)
(0 0 0)
(0 0 0)
(0 0 0)
(0 0 0)
(0 0 0)
(0 0 0)
(0 0 0)
(0 0 0)
(0 0 0)
(0 0 0)
(0 0 0)
(0 0 0)
(0 0 0)
(0 0 0)
(0 0 0)
(0 0 0)
(0 0 0)
(0 0 0)
(0 0 0)
(0 0 0)
(0 0 0)
(0 0 0)
(0 0 0)
(0 0 0)
(0 0 0)
(0 0 0)
(0 0 0)
(0 0 0)
(0 0 0)
(-1.97044e-12 -5.20111e-10 0)
(0 0 0)
(-3.28566e-11 -1.71224e-09 0)
(-4.80632e-11 -1.10489e-09 0)
(-4.46148e-12 -5.10335e-10 0)
(0 0 0)
(-8.02399e-12 -5.28803e-10 0)
(0 0 0)
(0 0 0)
(5.79901e-12 -3.63805e-10 0)
(2.5748e-11 -1.16062e-09 0)
(0 0 0)
(9.60795e-11 -5.66884e-10 0)
(6.23043e-11 -4.59825e-10 0)
(4.67685e-11 -4.73201e-10 0)
(4.23831e-11 -4.93983e-10 0)
(2.13899e-11 -5.18645e-10 0)
(1.42843e-11 -5.34096e-10 0)
(-1.07349e-11 -5.19039e-10 0)
(3.46793e-12 -5.33876e-10 0)
(-2.59926e-11 -1.24371e-09 0)
(-1.22836e-10 -1.31069e-09 0)
(-1.29625e-11 -1.28095e-09 0)
(4.82793e-12 -4.99375e-10 0)
(0 0 0)
(1.08786e-11 -5.73563e-10 0)
(-4.32515e-11 -5.55661e-10 0)
(-1.65251e-11 -1.1171e-09 0)
(-1.59176e-11 -4.63444e-10 0)
(-1.56745e-11 -5.41319e-10 0)
(1.69697e-11 -4.85434e-10 0)
(2.4505e-11 -4.43945e-10 0)
(-2.40499e-11 -4.59555e-10 0)
(1.56793e-11 -4.75474e-10 0)
(5.30449e-12 -4.75662e-10 0)
(-1.05948e-11 -5.24996e-10 0)
(4.07798e-11 -1.00219e-09 0)
(-7.02492e-12 -1.08975e-09 0)
(-3.29577e-12 -4.12007e-10 0)
(-3.8971e-11 -4.72715e-10 0)
(-4.96055e-11 -5.22428e-10 0)
(0 0 0)
(0 0 0)
(0 0 0)
(0 0 0)
(0 0 0)
(0 0 0)
(0 0 0)
(0 0 0)
(0 0 0)
(0 0 0)
(0 0 0)
(0 0 0)
(0 0 0)
(0 0 0)
(0 0 0)
(0 0 0)
(0 0 0)
(0 0 0)
(0 0 0)
(0 0 0)
(0 0 0)
(0 0 0)
(0 0 0)
(0 0 0)
(0 0 0)
(0 0 0)
(0 0 0)
(0 0 0)
(0 0 0)
(0 0 0)
(0 0 0)
(0 0 0)
(0 0 0)
(0 0 0)
(-2.44092e-12 -4.56081e-10 0)
(0 0 0)
(0 0 0)
(-3.75189e-11 -4.72771e-10 0)
(-2.15218e-11 -5.42397e-10 0)
(-1.20452e-11 -5.50094e-10 0)
(0 0 0)
(-2.74648e-11 -4.45821e-10 0)
(-5.22813e-11 -9.29136e-10 0)
(-1.86265e-11 -9.36372e-10 0)
(-2.57666e-11 -6.81087e-10 0)
(-1.95617e-11 -6.70215e-10 0)
(6.23804e-11 -4.74092e-10 0)
(3.78135e-11 -4.67583e-10 0)
(3.4866e-11 -4.77229e-10 0)
(-3.46099e-13 -4.83782e-10 0)
(-7.23361e-11 -1.01513e-09 0)
(-3.48999e-11 -1.10385e-09 0)
(-3.97129e-11 -8.58482e-10 0)
(8.37808e-12 -6.29807e-10 0)
(-7.51992e-13 -6.68392e-10 0)
(-5.39387e-11 -5.98449e-10 0)
(-1.04674e-11 -5.4596e-10 0)
(1.35031e-11 -5.48818e-10 0)
(2.29407e-11 -5.34254e-10 0)
(-3.9679e-12 -5.94377e-10 0)
(0 0 0)
(-3.70658e-11 -5.27279e-10 0)
(-1.57319e-11 -4.9083e-10 0)
(8.16118e-12 -5.20419e-10 0)
(1.37143e-11 -4.98112e-10 0)
(3.19121e-11 -1.13506e-09 0)
(-4.12166e-12 -4.14924e-10 0)
(-1.12598e-11 -4.89848e-10 0)
(0 0 0)
(-1.69871e-11 -4.98532e-10 0)
(5.08176e-12 -1.11328e-09 0)
(6.57805e-12 -4.45317e-10 0)
(-1.02407e-11 -4.3374e-10 0)
(0 0 0)
(0 0 0)
(0 0 0)
(0 0 0)
(0 0 0)
(0 0 0)
(0 0 0)
(0 0 0)
(0 0 0)
(0 0 0)
(0 0 0)
(0 0 0)
(0 0 0)
(0 0 0)
(0 0 0)
(0 0 0)
(0 0 0)
(0 0 0)
(0 0 0)
(0 0 0)
(0 0 0)
(0 0 0)
(0 0 0)
(0 0 0)
(0 0 0)
(0 0 0)
(0 0 0)
(0 0 0)
(0 0 0)
(0 0 0)
(0 0 0)
(0 0 0)
(0 0 0)
(0 0 0)
(0 0 0)
(0 0 0)
(0 0 0)
(4.5085e-12 -4.85369e-10 0)
(9.68027e-12 -5.4347e-10 0)
(7.33326e-12 -5.62765e-10 0)
(0 0 0)
(-1.77535e-11 -5.59112e-10 0)
(-1.96816e-11 -5.3215e-10 0)
(0 0 0)
(-6.03595e-11 -4.28954e-10 0)
(-1.42368e-10 -1.08487e-09 0)
(-7.14291e-11 -5.44528e-10 0)
(7.30881e-12 -6.11977e-10 0)
(6.85132e-11 -1.21363e-09 0)
(1.08891e-11 -4.8137e-10 0)
(1.13869e-11 -5.14192e-10 0)
(3.76886e-11 -1.84747e-09 0)
(0 0 0)
(-5.6872e-11 -4.8112e-10 0)
(-2.50978e-11 -5.10382e-10 0)
(-3.07316e-11 -5.38952e-10 0)
(-1.02547e-11 -7.62998e-10 0)
(0 0 0)
(1.29655e-11 -5.7909e-10 0)
(1.87076e-11 -5.37e-10 0)
(4.60202e-11 -1.21732e-09 0)
(1.24676e-11 -6.53917e-10 0)
(-5.80185e-11 -5.3327e-10 0)
(-4.41273e-11 -5.0007e-10 0)
(-4.67434e-12 -4.99706e-10 0)
(4.38465e-11 -1.14325e-09 0)
(1.73065e-11 -4.44833e-10 0)
(5.01477e-12 -4.45473e-10 0)
(0 0 0)
(0 0 0)
(0 0 0)
(0 0 0)
(-3.79607e-11 -1.03059e-09 0)
(3.08198e-11 -4.68983e-10 0)
(5.60003e-11 -5.60207e-10 0)
(-5.53896e-11 -5.78306e-10 0)
(0 0 0)
(0 0 0)
(0 0 0)
(0 0 0)
(0 0 0)
(0 0 0)
(0 0 0)
(0 0 0)
(0 0 0)
(0 0 0)
(0 0 0)
(0 0 0)
(0 0 0)
(0 0 0)
(0 0 0)
(0 0 0)
(0 0 0)
(0 0 0)
(0 0 0)
(0 0 0)
(0 0 0)
(0 0 0)
(0 0 0)
(0 0 0)
(0 0 0)
(0 0 0)
(0 0 0)
(0 0 0)
(0 0 0)
(0 0 0)
(0 0 0)
(0 0 0)
(0 0 0)
(0 0 0)
(0 0 0)
(6.62662e-12 -5.2582e-10 0)
(1.36946e-11 -5.53241e-10 0)
(0 0 0)
(5.03915e-11 -5.66388e-10 0)
(-1.50525e-11 -6.08793e-10 0)
(-2.48269e-11 -5.65334e-10 0)
(-6.77064e-12 -5.28702e-10 0)
(-1.48645e-11 -4.90341e-10 0)
(-4.47509e-11 -4.4074e-10 0)
(-5.44411e-11 -4.66028e-10 0)
(-7.00083e-11 -6.56214e-10 0)
(-3.35217e-11 -1.04931e-09 0)
(7.59993e-13 -5.09747e-10 0)
(-6.49984e-12 -5.11962e-10 0)
(-9.46938e-12 -5.18789e-10 0)
(2.80351e-12 -4.76206e-10 0)
(-2.08877e-12 -4.81776e-10 0)
(-1.83919e-11 -5.29809e-10 0)
(-2.19917e-11 -5.33636e-10 0)
(-4.33661e-11 -5.70918e-10 0)
(0 0 0)
(1.33888e-11 -6.48589e-10 0)
(2.62175e-11 -5.74386e-10 0)
(9.02385e-12 -5.45984e-10 0)
(-9.93994e-12 -4.99556e-10 0)
(-7.6361e-11 -1.47006e-09 0)
(1.45676e-11 -5.57047e-10 0)
(-7.8224e-12 -3.92619e-10 0)
(1.4024e-11 -4.19968e-10 0)
(2.33415e-11 -4.90934e-10 0)
(1.99971e-11 -5.01478e-10 0)
(1.30539e-11 -4.93075e-10 0)
(5.40881e-12 -4.68994e-10 0)
(-7.96963e-12 -4.85533e-10 0)
(-1.8967e-11 -4.61086e-10 0)
(1.90413e-11 -4.55766e-10 0)
(0 0 0)
(-3.92071e-11 -4.62475e-10 0)
(-2.2912e-11 -7.74889e-10 0)
(0 0 0)
(0 0 0)
(0 0 0)
(0 0 0)
(0 0 0)
(0 0 0)
(0 0 0)
(0 0 0)
(0 0 0)
(0 0 0)
(0 0 0)
(0 0 0)
(0 0 0)
(0 0 0)
(0 0 0)
(0 0 0)
(0 0 0)
(0 0 0)
(0 0 0)
(0 0 0)
(0 0 0)
(0 0 0)
(0 0 0)
(0 0 0)
(0 0 0)
(0 0 0)
(0 0 0)
(0 0 0)
(0 0 0)
(0 0 0)
(0 0 0)
(0 0 0)
(0 0 0)
(0 0 0)
(0 0 0)
(0 0 0)
(1.54083e-11 -5.06767e-10 0)
(1.12613e-11 -4.95324e-10 0)
(1.63088e-11 -4.74302e-10 0)
(4.51516e-11 -1.55348e-09 0)
(-1.52849e-11 -5.64703e-10 0)
(4.6384e-12 -4.36526e-10 0)
(-6.19053e-11 -9.45031e-10 0)
(-7.71014e-11 -9.82279e-10 0)
(-3.05704e-11 -9.27855e-10 0)
(-3.82489e-11 -4.72301e-10 0)
(0 0 0)
(-3.26884e-11 -5.27631e-10 0)
(-1.6618e-11 -5.51466e-10 0)
(-7.34872e-12 -5.37552e-10 0)
(2.07297e-12 -5.46459e-10 0)
(-4.19146e-12 -5.41593e-10 0)
(5.12556e-12 -5.42293e-10 0)
(-1.21774e-11 -5.61845e-10 0)
(0 0 0)
(-2.56589e-11 -5.53224e-10 0)
(-4.01645e-11 -6.14646e-10 0)
(9.41913e-12 -8.47625e-10 0)
(1.60608e-11 -1.04326e-09 0)
(-1.94204e-11 -5.66407e-10 0)
(0 0 0)
(-7.05411e-11 -5.69711e-10 0)
(7.87126e-12 -5.56389e-10 0)
(4.0208e-11 -4.34579e-10 0)
(1.4598e-11 -4.48535e-10 0)
(4.39574e-12 -5.12711e-10 0)
(7.30615e-13 -5.12486e-10 0)
(1.17465e-11 -1.08304e-09 0)
(-1.61626e-11 -4.35003e-10 0)
(-2.05917e-11 -1.07223e-09 0)
(-5.89347e-12 -4.27587e-10 0)
(-7.3192e-12 -4.38582e-10 0)
(-4.12423e-11 -4.33361e-10 0)
(0 0 0)
(-6.12969e-11 -6.15778e-10 0)
(0 0 0)
(0 0 0)
(0 0 0)
(0 0 0)
(0 0 0)
(0 0 0)
(0 0 0)
(0 0 0)
(0 0 0)
(0 0 0)
(0 0 0)
(0 0 0)
(0 0 0)
(0 0 0)
(0 0 0)
(0 0 0)
(0 0 0)
(0 0 0)
(0 0 0)
(0 0 0)
(0 0 0)
(0 0 0)
(0 0 0)
(0 0 0)
(0 0 0)
(0 0 0)
(0 0 0)
(0 0 0)
(0 0 0)
(0 0 0)
(0 0 0)
(0 0 0)
(0 0 0)
(0 0 0)
(0 0 0)
(0 0 0)
(1.5713e-12 -5.34147e-10 0)
(-7.56677e-12 -5.11754e-10 0)
(-2.16186e-11 -5.21123e-10 0)
(-7.68377e-11 -1.29345e-09 0)
(2.68304e-11 -1.16003e-09 0)
(5.38058e-11 -1.87996e-09 0)
(2.32585e-11 -8.55728e-10 0)
(-4.5073e-11 -3.92231e-10 0)
(0 0 0)
(-2.63377e-12 -4.81861e-10 0)
(-1.12315e-11 -5.11246e-10 0)
(0 0 0)
(-7.41472e-12 -5.20821e-10 0)
(6.26089e-12 -5.32641e-10 0)
(0 0 0)
(1.46376e-11 -5.49777e-10 0)
(1.80899e-11 -5.48777e-10 0)
(2.11652e-11 -5.69493e-10 0)
(-9.05866e-12 -5.82672e-10 0)
(-9.09397e-11 -1.25363e-09 0)
(-1.44308e-11 -5.32123e-10 0)
(2.75993e-11 -5.57327e-10 0)
(5.05463e-12 -6.03701e-10 0)
(0 0 0)
(-2.97407e-11 -5.64045e-10 0)
(-3.54973e-12 -5.2125e-10 0)
(0 0 0)
(-1.00665e-12 -5.15702e-10 0)
(-6.89152e-12 -4.92396e-10 0)
(-1.25441e-11 -5.13332e-10 0)
(-2.54573e-11 -5.30314e-10 0)
(-2.50865e-11 -5.1944e-10 0)
(-2.01448e-11 -5.01922e-10 0)
(-9.56137e-12 -1.18632e-09 0)
(1.16153e-12 -3.91986e-10 0)
(-2.73024e-11 -4.72951e-10 0)
(-1.04075e-11 -4.09325e-10 0)
(-6.88035e-11 -9.87911e-10 0)
(-3.19146e-11 -4.75975e-10 0)
(0 0 0)
(0 0 0)
(0 0 0)
(0 0 0)
(0 0 0)
(0 0 0)
(0 0 0)
(0 0 0)
(0 0 0)
(0 0 0)
(0 0 0)
(0 0 0)
(0 0 0)
(0 0 0)
(0 0 0)
(0 0 0)
(0 0 0)
(0 0 0)
(0 0 0)
(0 0 0)
(0 0 0)
(0 0 0)
(0 0 0)
(0 0 0)
(0 0 0)
(0 0 0)
(0 0 0)
(0 0 0)
(0 0 0)
(0 0 0)
(0 0 0)
(0 0 0)
(0 0 0)
(0 0 0)
(0 0 0)
(0 0 0)
(-2.27132e-11 -5.30943e-10 0)
(-2.11015e-11 -5.42918e-10 0)
(-3.53267e-11 -5.59005e-10 0)
(-2.01055e-10 -1.21948e-09 0)
(-3.44099e-11 -5.36399e-10 0)
(-2.658e-11 -4.5411e-10 0)
(1.13828e-12 -4.91977e-10 0)
(0 0 0)
(9.01533e-12 -4.80253e-10 0)
(0 0 0)
(-2.22542e-12 -5.28551e-10 0)
(-5.28746e-12 -5.35635e-10 0)
(0 0 0)
(1.16833e-11 -5.21736e-10 0)
(7.9963e-12 -5.33229e-10 0)
(1.79711e-11 -5.37248e-10 0)
(3.39562e-11 -5.51935e-10 0)
(5.79235e-11 -6.20977e-10 0)
(-2.57338e-11 -6.41735e-10 0)
(-5.83435e-11 -5.98607e-10 0)
(-2.97082e-11 -5.06795e-10 0)
(-8.7931e-12 -5.08784e-10 0)
(6.04088e-11 -6.13036e-10 0)
(-4.97638e-11 -6.28218e-10 0)
(-2.5958e-11 -5.82479e-10 0)
(4.5792e-13 -4.80232e-10 0)
(5.88555e-12 -5.03293e-10 0)
(0 0 0)
(2.3251e-12 -4.85163e-10 0)
(0 0 0)
(0 0 0)
(-3.22554e-12 -5.26541e-10 0)
(-2.91022e-11 -5.13872e-10 0)
(-2.98356e-11 -5.15699e-10 0)
(-2.38145e-11 -5.16185e-10 0)
(0 0 0)
(-2.24665e-11 -5.33151e-10 0)
(-7.05502e-12 -4.82213e-10 0)
(-2.8421e-11 -1.18794e-09 0)
(0 0 0)
(0 0 0)
(0 0 0)
(0 0 0)
(0 0 0)
(0 0 0)
(0 0 0)
(0 0 0)
(0 0 0)
(0 0 0)
(0 0 0)
(0 0 0)
(0 0 0)
(0 0 0)
(0 0 0)
(0 0 0)
(0 0 0)
(0 0 0)
(0 0 0)
(0 0 0)
(0 0 0)
(0 0 0)
(0 0 0)
(0 0 0)
(0 0 0)
(0 0 0)
(0 0 0)
(0 0 0)
(0 0 0)
(0 0 0)
(0 0 0)
(0 0 0)
(0 0 0)
(0 0 0)
(0 0 0)
(0 0 0)
(0 0 0)
(-2.44786e-11 -5.25843e-10 0)
(-3.78096e-11 -5.8632e-10 0)
(-7.14177e-11 -5.82195e-10 0)
(-5.92692e-11 -1.18019e-09 0)
(3.67246e-12 -4.76308e-10 0)
(-1.00346e-11 -5.20563e-10 0)
(0 0 0)
(-5.02871e-12 -5.10629e-10 0)
(0 0 0)
(-3.68454e-12 -5.28777e-10 0)
(0 0 0)
(3.82403e-12 -4.97136e-10 0)
(2.25485e-11 -5.23454e-10 0)
(0 0 0)
(-1.18269e-12 -5.1719e-10 0)
(-3.60586e-11 -5.15393e-10 0)
(8.39781e-11 -1.69434e-09 0)
(-3.38737e-12 -6.51503e-10 0)
(-6.88518e-11 -4.92634e-10 0)
(-2.75976e-11 -4.74888e-10 0)
(-1.02431e-11 -4.3674e-10 0)
(2.05448e-12 -1.51138e-09 0)
(0 0 0)
(2.19237e-11 -4.35478e-10 0)
(1.57573e-12 -6.9972e-11 0)
(8.12242e-12 -3.66661e-10 0)
(1.08968e-11 -4.90858e-10 0)
(-1.47623e-12 -4.88121e-10 0)
(9.60622e-12 -4.88491e-10 0)
(-5.02653e-12 -4.70049e-10 0)
(-9.47871e-12 -5.3146e-10 0)
(0 0 0)
(-1.13888e-11 -5.33052e-10 0)
(0 0 0)
(-2.60255e-11 -5.25106e-10 0)
(-9.43954e-12 -5.2876e-10 0)
(-8.05622e-12 -4.77023e-10 0)
(-1.49879e-11 -4.79002e-10 0)
(3.85843e-11 -5.11015e-10 0)
(6.45349e-11 -5.48588e-10 0)
(0 0 0)
(0 0 0)
(0 0 0)
(0 0 0)
(0 0 0)
(0 0 0)
(0 0 0)
(0 0 0)
(0 0 0)
(0 0 0)
(0 0 0)
(0 0 0)
(0 0 0)
(0 0 0)
(0 0 0)
(0 0 0)
(0 0 0)
(0 0 0)
(0 0 0)
(0 0 0)
(0 0 0)
(0 0 0)
(0 0 0)
(0 0 0)
(0 0 0)
(0 0 0)
(0 0 0)
(0 0 0)
(0 0 0)
(0 0 0)
(0 0 0)
(0 0 0)
(0 0 0)
(0 0 0)
(7.577e-12 -3.7872e-10 0)
(1.8679e-11 -1.09349e-09 0)
(0 0 0)
(-4.20694e-11 -6.03433e-10 0)
(0 0 0)
(-2.4002e-11 -4.41614e-10 0)
(-6.21071e-11 -9.6811e-10 0)
(2.72415e-12 -3.89686e-10 0)
(0 0 0)
(-8.11089e-12 -4.8571e-10 0)
(1.79621e-11 -5.32888e-10 0)
(1.2613e-11 -4.52314e-10 0)
(1.10733e-11 -4.58658e-10 0)
(4.055e-11 -5.57619e-10 0)
(0 0 0)
(-4.42586e-11 -5.47211e-10 0)
(0 0 0)
(-8.20623e-11 -6.27718e-10 0)
(2.7496e-11 -7.72012e-10 0)
(0 0 0)
(-1.24766e-11 -1.02453e-09 0)
(-1.56921e-11 -4.27855e-10 0)
(-7.44264e-12 -1.4392e-09 0)
(5.7446e-11 -5.81858e-10 0)
(4.53038e-11 -5.27738e-10 0)
(4.07662e-11 -4.69479e-10 0)
(1.57613e-12 -4.64894e-10 0)
(0 0 0)
(2.14056e-12 -4.78974e-10 0)
(-9.68353e-12 -5.20552e-10 0)
(-3.30983e-12 -4.53154e-10 0)
(0 0 0)
(4.49838e-12 -5.28372e-10 0)
(-1.00789e-11 -5.24712e-10 0)
(0 0 0)
(-1.46181e-11 -5.15739e-10 0)
(0 0 0)
(-1.28714e-11 -4.63042e-10 0)
(-2.87896e-11 -4.31648e-10 0)
(5.9934e-12 -4.30777e-10 0)
(-8.54318e-11 -1.53937e-09 0)
(0 0 0)
(0 0 0)
(0 0 0)
(0 0 0)
(0 0 0)
(0 0 0)
(0 0 0)
(0 0 0)
(0 0 0)
(0 0 0)
(0 0 0)
(0 0 0)
(0 0 0)
(0 0 0)
(0 0 0)
(0 0 0)
(0 0 0)
(0 0 0)
(0 0 0)
(0 0 0)
(0 0 0)
(0 0 0)
(0 0 0)
(0 0 0)
(0 0 0)
(0 0 0)
(0 0 0)
(0 0 0)
(0 0 0)
(0 0 0)
(0 0 0)
(0 0 0)
(0 0 0)
(0 0 0)
(-3.31903e-11 -4.77955e-10 0)
(-3.26899e-11 -4.43798e-10 0)
(-3.988e-11 -1.58697e-09 0)
(2.10309e-11 -5.75187e-10 0)
(-7.3094e-12 -1.0195e-09 0)
(-1.32333e-11 -1.00252e-09 0)
(1.53561e-11 -4.72542e-10 0)
(-7.33908e-12 -4.69882e-10 0)
(-1.27789e-11 -4.73234e-10 0)
(1.62068e-12 -5.11501e-10 0)
(2.81182e-11 -5.10003e-10 0)
(4.19791e-11 -4.6714e-10 0)
(2.85714e-11 -4.65582e-10 0)
(0 0 0)
(5.91291e-11 -5.72704e-10 0)
(-6.99402e-11 -6.35373e-10 0)
(0 0 0)
(-9.72526e-11 -5.63043e-10 0)
(-3.27798e-11 -6.05108e-10 0)
(6.60717e-11 -6.01069e-10 0)
(2.0879e-11 -5.43936e-10 0)
(-1.27658e-11 -5.0464e-10 0)
(-9.68013e-12 -5.74752e-10 0)
(4.12418e-11 -5.94422e-10 0)
(5.05705e-11 -5.45504e-10 0)
(5.41959e-11 -1.21855e-09 0)
(1.00809e-11 -4.87506e-10 0)
(1.53955e-11 -4.81083e-10 0)
(0 0 0)
(9.13629e-13 -5.21464e-10 0)
(0 0 0)
(7.04932e-13 -5.20973e-10 0)
(3.01339e-11 -1.12329e-09 0)
(1.29044e-11 -4.77138e-10 0)
(0 0 0)
(0 0 0)
(-5.2745e-11 -1.13476e-09 0)
(-8.41849e-12 -4.26511e-10 0)
(-3.3068e-11 -4.85524e-10 0)
(-1.24654e-10 -1.20071e-09 0)
(0 0 0)
(0 0 0)
(0 0 0)
(0 0 0)
(0 0 0)
(0 0 0)
(0 0 0)
(0 0 0)
(0 0 0)
(0 0 0)
(0 0 0)
(0 0 0)
(0 0 0)
(0 0 0)
(0 0 0)
(0 0 0)
(0 0 0)
(0 0 0)
(0 0 0)
(0 0 0)
(0 0 0)
(0 0 0)
(0 0 0)
(0 0 0)
(0 0 0)
(0 0 0)
(0 0 0)
(0 0 0)
(0 0 0)
(0 0 0)
(0 0 0)
(0 0 0)
(0 0 0)
(0 0 0)
(0 0 0)
(0 0 0)
(0 0 0)
(-9.64094e-11 -6.21112e-10 0)
(6.62885e-11 -6.28017e-10 0)
(0 0 0)
(0 0 0)
(0 0 0)
(-1.6478e-11 -1.06608e-09 0)
(6.76577e-12 -4.88442e-10 0)
(2.50451e-11 -1.01716e-09 0)
(1.11948e-11 -4.54532e-10 0)
(4.15785e-11 -4.58239e-10 0)
(2.45697e-11 -9.77201e-10 0)
(5.47836e-11 -9.76791e-10 0)
(1.37227e-10 -1.52379e-09 0)
(2.14527e-11 -7.12406e-10 0)
(-1.71732e-11 -1.55299e-10 0)
(-2.67011e-11 -2.36875e-10 0)
(-1.84171e-11 -4.9993e-10 0)
(3.57664e-11 -5.29261e-10 0)
(4.58154e-11 -5.60028e-10 0)
(1.52546e-11 -5.55446e-10 0)
(-1.60521e-11 -5.90993e-10 0)
(9.88855e-12 -5.84078e-10 0)
(1.12798e-11 -5.50529e-10 0)
(1.42078e-11 -5.32169e-10 0)
(1.40165e-11 -5.19871e-10 0)
(1.71273e-11 -5.00508e-10 0)
(8.15642e-12 -4.93606e-10 0)
(6.42911e-12 -5.16833e-10 0)
(-4.75757e-12 -4.57176e-10 0)
(0 0 0)
(2.61507e-12 -5.02117e-10 0)
(6.58272e-12 -5.00897e-10 0)
(1.91019e-11 -5.59982e-10 0)
(-1.28847e-11 -5.63906e-10 0)
(0 0 0)
(-3.60661e-11 -4.97328e-10 0)
(-1.03486e-11 -4.78622e-10 0)
(-3.36908e-11 -5.28862e-10 0)
(0 0 0)
(0 0 0)
(0 0 0)
(0 0 0)
(0 0 0)
(0 0 0)
(0 0 0)
(0 0 0)
(0 0 0)
(0 0 0)
(0 0 0)
(0 0 0)
(0 0 0)
(0 0 0)
(0 0 0)
(0 0 0)
(0 0 0)
(0 0 0)
(0 0 0)
(0 0 0)
(0 0 0)
(0 0 0)
(0 0 0)
(0 0 0)
(0 0 0)
(0 0 0)
(0 0 0)
(0 0 0)
(0 0 0)
(0 0 0)
(0 0 0)
(0 0 0)
(0 0 0)
(0 0 0)
(0 0 0)
(-4.37812e-11 -5.58778e-10 0)
(-6.43777e-11 -5.42932e-10 0)
(0 0 0)
(-2.25552e-11 -5.60095e-10 0)
(7.8494e-12 -5.30272e-10 0)
(1.63892e-11 -1.06217e-09 0)
(7.10626e-12 -1.11487e-09 0)
(-7.92897e-12 -1.13506e-09 0)
(-9.26964e-12 -4.95154e-10 0)
(-1.10534e-11 -5.29906e-10 0)
(0 0 0)
(-9.76087e-12 -5.15381e-10 0)
(-5.43057e-11 -1.0234e-09 0)
(-4.60229e-11 -4.88036e-10 0)
(-9.67477e-11 -1.13631e-09 0)
(1.37374e-11 -6.9042e-10 0)
(3.23349e-11 -5.85672e-10 0)
(4.38275e-12 -4.17092e-10 0)
(8.11176e-12 -4.48319e-10 0)
(4.61279e-11 -4.81105e-10 0)
(4.15312e-11 -5.23193e-10 0)
(6.17533e-11 -5.90166e-10 0)
(-2.68196e-11 -6.1097e-10 0)
(-6.60447e-13 -5.7126e-10 0)
(-4.48875e-12 -5.49038e-10 0)
(-2.4631e-11 -5.48796e-10 0)
(0 0 0)
(-3.335e-11 -1.14385e-09 0)
(2.80189e-12 -4.72921e-10 0)
(1.60983e-11 -4.7844e-10 0)
(-1.88773e-11 -4.75761e-10 0)
(-1.15571e-11 -4.51242e-10 0)
(0 0 0)
(0 0 0)
(7.17131e-11 -5.54166e-10 0)
(-3.99933e-11 -6.20074e-10 0)
(-1.32154e-10 -1.13972e-09 0)
(-1.84589e-11 -4.08297e-10 0)
(-2.15756e-11 -1.16943e-09 0)
(0 0 0)
(0 0 0)
(0 0 0)
(0 0 0)
(0 0 0)
(0 0 0)
(0 0 0)
(0 0 0)
(0 0 0)
(0 0 0)
(0 0 0)
(0 0 0)
(0 0 0)
(0 0 0)
(0 0 0)
(0 0 0)
(0 0 0)
(0 0 0)
(0 0 0)
(0 0 0)
(0 0 0)
(0 0 0)
(0 0 0)
(0 0 0)
(0 0 0)
(0 0 0)
(0 0 0)
(0 0 0)
(0 0 0)
(0 0 0)
(0 0 0)
(0 0 0)
(0 0 0)
(0 0 0)
(0 0 0)
(0 0 0)
(-7.07595e-11 -5.42357e-10 0)
(-4.9098e-11 -5.21193e-10 0)
(-2.20001e-11 -5.21318e-10 0)
(-2.87258e-11 -5.19141e-10 0)
(-8.25582e-12 -4.9699e-10 0)
(-5.02464e-12 -5.16453e-10 0)
(3.56913e-16 -5.27094e-10 0)
(1.3707e-11 -5.02991e-10 0)
(3.48342e-12 -5.13183e-10 0)
(0 0 0)
(-2.08647e-11 -5.09775e-10 0)
(-5.45864e-11 -1.08938e-09 0)
(-3.05069e-11 -4.3385e-10 0)
(-4.72092e-11 -4.79599e-10 0)
(-9.91938e-11 -5.47458e-10 0)
(-5.5502e-11 -1.44944e-09 0)
(6.42464e-11 -6.07045e-10 0)
(1.39051e-11 -5.1243e-10 0)
(-1.71297e-11 -4.54045e-10 0)
(4.24744e-11 -1.12066e-09 0)
(4.92643e-11 -5.07808e-10 0)
(3.34212e-11 -7.12903e-10 0)
(0 0 0)
(9.52711e-11 -5.79928e-10 0)
(1.73715e-11 -5.96916e-10 0)
(-4.2598e-11 -5.53989e-10 0)
(-2.01382e-11 -5.06179e-10 0)
(-5.30527e-12 -4.82411e-10 0)
(4.37174e-13 -4.9216e-10 0)
(-6.93614e-12 -4.83788e-10 0)
(-2.42454e-12 -5.00523e-10 0)
(1.23312e-11 -4.71557e-10 0)
(2.86428e-11 -4.6201e-10 0)
(-2.55411e-12 -1.05697e-09 0)
(-2.75626e-11 -1.47466e-09 0)
(1.66838e-11 -5.27725e-10 0)
(-2.60081e-11 -4.01125e-10 0)
(-4.06995e-11 -3.82341e-10 0)
(-3.89983e-11 -4.82793e-10 0)
(0 0 0)
(0 0 0)
(0 0 0)
(0 0 0)
(0 0 0)
(0 0 0)
(0 0 0)
(0 0 0)
(0 0 0)
(0 0 0)
(0 0 0)
(0 0 0)
(0 0 0)
(0 0 0)
(0 0 0)
(0 0 0)
(0 0 0)
(0 0 0)
(0 0 0)
(0 0 0)
(0 0 0)
(0 0 0)
(0 0 0)
(0 0 0)
(0 0 0)
(0 0 0)
(0 0 0)
(0 0 0)
(0 0 0)
(0 0 0)
(0 0 0)
(0 0 0)
(0 0 0)
(0 0 0)
(0 0 0)
(0 0 0)
(-3.78158e-11 -4.31621e-10 0)
(-2.21115e-11 -5.01848e-10 0)
(-1.07168e-12 -4.94932e-10 0)
(6.9848e-12 -4.75287e-10 0)
(7.15289e-12 -4.94558e-10 0)
(1.1212e-11 -5.03549e-10 0)
(0 0 0)
(1.11283e-11 -5.20227e-10 0)
(0 0 0)
(-3.5321e-12 -5.35166e-10 0)
(-2.51472e-11 -5.52602e-10 0)
(0 0 0)
(-4.25085e-11 -4.91514e-10 0)
(-5.93708e-11 -5.42442e-10 0)
(-1.75109e-11 -2.44309e-10 0)
(1.26774e-11 -6.63834e-10 0)
(2.85963e-11 -6.16875e-10 0)
(-6.27002e-11 -1.34408e-09 0)
(-5.11235e-11 -9.74483e-10 0)
(1.29356e-11 -3.91478e-10 0)
(1.82036e-11 -1.10944e-09 0)
(0 0 0)
(8.69916e-11 -5.01654e-10 0)
(1.21165e-10 -6.7236e-10 0)
(8.82514e-12 -7.3476e-10 0)
(-4.33363e-11 -5.35746e-10 0)
(-2.51801e-11 -4.93666e-10 0)
(4.27077e-13 -1.76687e-10 0)
(1.43688e-11 -6.48734e-10 0)
(-3.29503e-12 -4.63162e-10 0)
(-9.73077e-12 -4.74972e-10 0)
(1.36863e-11 -1.03046e-09 0)
(1.38546e-11 -1.08449e-09 0)
(-4.23686e-11 -4.4025e-10 0)
(-8.9667e-11 -1.30021e-09 0)
(5.05728e-11 -5.30523e-10 0)
(0 0 0)
(0 0 0)
(0 0 0)
(0 0 0)
(0 0 0)
(0 0 0)
(0 0 0)
(0 0 0)
(0 0 0)
(0 0 0)
(0 0 0)
(0 0 0)
(0 0 0)
(0 0 0)
(0 0 0)
(0 0 0)
(0 0 0)
(0 0 0)
(0 0 0)
(0 0 0)
(0 0 0)
(0 0 0)
(0 0 0)
(0 0 0)
(0 0 0)
(0 0 0)
(0 0 0)
(0 0 0)
(0 0 0)
(0 0 0)
(0 0 0)
(0 0 0)
(0 0 0)
(0 0 0)
(0 0 0)
(0 0 0)
(0 0 0)
(0 0 0)
(0 0 0)
(-2.28742e-11 -5.2829e-10 0)
(-1.71241e-11 -4.80445e-10 0)
(-3.51307e-12 -4.98076e-10 0)
(2.73465e-14 -4.79894e-10 0)
(-3.15154e-12 -5.07845e-10 0)
(2.89445e-12 -5.15177e-10 0)
(0 0 0)
(2.39726e-11 -5.19166e-10 0)
(2.8582e-12 -5.32628e-10 0)
(8.93297e-12 -5.32617e-10 0)
(-1.07659e-11 -5.21352e-10 0)
(0 0 0)
(-2.93431e-11 -5.05978e-10 0)
(0 0 0)
(-3.80728e-11 -5.2566e-10 0)
(-4.41762e-11 -4.96232e-10 0)
(-6.61715e-11 -1.52482e-09 0)
(-1.27496e-11 -5.28803e-10 0)
(-4.99459e-12 -4.72616e-10 0)
(-4.17586e-11 -9.50757e-10 0)
(-7.21044e-12 -4.44725e-10 0)
(-8.09828e-12 -1.10085e-09 0)
(-3.21021e-11 -4.53885e-10 0)
(6.94087e-12 -1.57202e-09 0)
(5.75215e-11 -7.49597e-10 0)
(9.41704e-12 -7.88747e-11 0)
(4.33767e-11 -3.53215e-10 0)
(2.55848e-11 -4.45134e-10 0)
(6.854e-12 -4.88176e-10 0)
(4.22494e-12 -4.9087e-10 0)
(1.0225e-13 -4.96819e-10 0)
(-1.04162e-12 -4.79221e-10 0)
(-8.62206e-11 -1.08298e-09 0)
(-4.98727e-11 -1.05531e-09 0)
(-6.0404e-11 -1.12533e-09 0)
(3.00858e-11 -5.00545e-10 0)
(3.83398e-11 -4.90432e-10 0)
(0 0 0)
(0 0 0)
(0 0 0)
(0 0 0)
(0 0 0)
(0 0 0)
(0 0 0)
(0 0 0)
(0 0 0)
(0 0 0)
(0 0 0)
(0 0 0)
(0 0 0)
(0 0 0)
(0 0 0)
(0 0 0)
(0 0 0)
(0 0 0)
(0 0 0)
(0 0 0)
(0 0 0)
(0 0 0)
(0 0 0)
(0 0 0)
(0 0 0)
(0 0 0)
(0 0 0)
(0 0 0)
(0 0 0)
(0 0 0)
(0 0 0)
(0 0 0)
(0 0 0)
(0 0 0)
(0 0 0)
(0 0 0)
(0 0 0)
(0 0 0)
(1.36837e-11 -5.38044e-10 0)
(-3.03927e-12 -5.05097e-10 0)
(0 0 0)
(4.82241e-12 -4.83948e-10 0)
(9.86125e-12 -5.0076e-10 0)
(1.1444e-11 -5.17537e-10 0)
(0 0 0)
(1.78929e-11 -5.35517e-10 0)
(0 0 0)
(-6.91393e-11 -1.34867e-09 0)
(-3.83419e-11 -4.61761e-10 0)
(-2.46154e-11 -4.8652e-10 0)
(0 0 0)
(-2.55316e-11 -5.31055e-10 0)
(-7.45222e-11 -1.12238e-09 0)
(-6.44403e-11 -5.41614e-10 0)
(-5.16022e-11 -6.02163e-10 0)
(0 0 0)
(-7.42321e-12 -4.85162e-10 0)
(-1.60344e-11 -4.59487e-10 0)
(0 0 0)
(8.5633e-12 -5.99437e-10 0)
(0 0 0)
(-1.7544e-10 -1.33042e-09 0)
(5.97122e-13 -5.52602e-10 0)
(2.43273e-10 -1.24752e-09 0)
(6.16088e-11 -4.72516e-10 0)
(3.49083e-11 -4.9429e-10 0)
(0 0 0)
(7.0355e-12 -5.20266e-10 0)
(-9.47643e-12 -4.85653e-10 0)
(-9.64348e-11 -1.13397e-09 0)
(-2.54375e-11 -4.56489e-10 0)
(-2.35113e-11 -5.04661e-10 0)
(-4.13716e-11 -1.19499e-09 0)
(-5.66344e-12 -4.73857e-10 0)
(1.621e-11 -4.81702e-10 0)
(6.78854e-12 -4.9373e-10 0)
(0 0 0)
(0 0 0)
(0 0 0)
(0 0 0)
(0 0 0)
(0 0 0)
(0 0 0)
(0 0 0)
(0 0 0)
(0 0 0)
(0 0 0)
(0 0 0)
(0 0 0)
(0 0 0)
(0 0 0)
(0 0 0)
(0 0 0)
(0 0 0)
(0 0 0)
(0 0 0)
(0 0 0)
(0 0 0)
(0 0 0)
(0 0 0)
(0 0 0)
(0 0 0)
(0 0 0)
(0 0 0)
(0 0 0)
(0 0 0)
(0 0 0)
(0 0 0)
(0 0 0)
(0 0 0)
(0 0 0)
(0 0 0)
(0 0 0)
(-8.53631e-13 -5.4376e-10 0)
(0 0 0)
(-1.74816e-11 -1.03159e-09 0)
(7.6014e-12 -4.94158e-10 0)
(1.8698e-11 -5.05082e-10 0)
(2.54083e-11 -5.08098e-10 0)
(3.21083e-11 -4.99512e-10 0)
(5.78347e-11 -5.36359e-10 0)
(6.18047e-11 -8.31813e-10 0)
(-8.12995e-11 -1.12113e-09 0)
(-1.97467e-11 -4.34382e-10 0)
(0 0 0)
(-1.5496e-11 -5.11675e-10 0)
(0 0 0)
(-1.51073e-11 -5.30892e-10 0)
(0 0 0)
(-4.74406e-11 -5.75248e-10 0)
(1.7608e-11 -5.82063e-10 0)
(4.85425e-12 -5.39685e-10 0)
(0 0 0)
(0 0 0)
(0 0 0)
(-1.33721e-10 -1.32321e-09 0)
(-9.24342e-11 -1.16778e-09 0)
(-1.05322e-11 -4.4626e-10 0)
(-1.95153e-13 -1.0855e-09 0)
(9.35793e-12 -4.78769e-10 0)
(2.00892e-11 -4.63094e-10 0)
(2.33974e-11 -4.95964e-10 0)
(5.92649e-12 -5.05467e-10 0)
(4.88301e-11 -1.09873e-09 0)
(-2.40082e-11 -4.79309e-10 0)
(-3.64165e-11 -4.7106e-10 0)
(-2.81639e-11 -5.27285e-10 0)
(-2.07602e-11 -5.36396e-10 0)
(1.4259e-12 -5.23228e-10 0)
(1.24534e-11 -4.90052e-10 0)
(0 0 0)
(0 0 0)
(0 0 0)
(0 0 0)
(0 0 0)
(0 0 0)
(0 0 0)
(0 0 0)
(0 0 0)
(0 0 0)
(0 0 0)
(0 0 0)
(0 0 0)
(0 0 0)
(0 0 0)
(0 0 0)
(0 0 0)
(0 0 0)
(0 0 0)
(0 0 0)
(0 0 0)
(0 0 0)
(0 0 0)
(0 0 0)
(0 0 0)
(0 0 0)
(0 0 0)
(0 0 0)
(0 0 0)
(0 0 0)
(0 0 0)
(0 0 0)
(0 0 0)
(0 0 0)
(0 0 0)
(0 0 0)
(0 0 0)
(0 0 0)
(-1.20274e-13 -5.05364e-10 0)
(0 0 0)
(-3.17221e-12 -4.76337e-10 0)
(-3.31771e-12 -5.09581e-10 0)
(6.44973e-12 -4.80519e-10 0)
(1.3484e-11 -4.8478e-10 0)
(1.59698e-11 -4.6573e-10 0)
(1.71837e-11 -4.87033e-10 0)
(-1.12618e-11 -7.12771e-10 0)
(0 0 0)
(3.22704e-11 -5.5605e-10 0)
(3.53581e-12 -4.40119e-10 0)
(-2.56027e-11 -5.14772e-10 0)
(0 0 0)
(6.38856e-12 -5.17739e-10 0)
(0 0 0)
(-5.17515e-11 -5.46119e-10 0)
(-1.51519e-11 -5.52596e-10 0)
(6.53284e-12 -5.13914e-10 0)
(9.2498e-12 -4.93407e-10 0)
(0 0 0)
(-3.17354e-11 -2.50955e-09 0)
(8.71184e-13 -9.34525e-10 0)
(-1.56699e-11 -6.1627e-10 0)
(-2.94881e-13 -1.14716e-09 0)
(-4.5241e-12 -4.57973e-10 0)
(-7.11536e-12 -4.64856e-10 0)
(1.67756e-11 -5.30896e-10 0)
(1.12612e-11 -4.93252e-10 0)
(3.18451e-11 -4.39529e-10 0)
(1.60453e-11 -1.14647e-09 0)
(0 0 0)
(-2.75724e-11 -4.96795e-10 0)
(-3.79264e-11 -5.1695e-10 0)
(-1.31376e-11 -5.12672e-10 0)
(-8.74469e-12 -5.31504e-10 0)
(8.32339e-12 -5.26059e-10 0)
(-1.2406e-11 -4.13117e-10 0)
(2.99406e-11 -4.85849e-10 0)
(4.86203e-11 -5.08918e-10 0)
(0 0 0)
(0 0 0)
(0 0 0)
(0 0 0)
(0 0 0)
(0 0 0)
(0 0 0)
(0 0 0)
(0 0 0)
(0 0 0)
(0 0 0)
(0 0 0)
(0 0 0)
(0 0 0)
(0 0 0)
(0 0 0)
(0 0 0)
(0 0 0)
(0 0 0)
(0 0 0)
(0 0 0)
(0 0 0)
(0 0 0)
(0 0 0)
(0 0 0)
(0 0 0)
(0 0 0)
(0 0 0)
(0 0 0)
(0 0 0)
(0 0 0)
(0 0 0)
(0 0 0)
(0 0 0)
(0 0 0)
(5.33571e-12 -5.02489e-10 0)
(-2.60298e-12 -4.73349e-10 0)
(3.71168e-12 -5.01018e-10 0)
(4.10989e-13 -4.91742e-10 0)
(4.90436e-12 -5.0021e-10 0)
(8.84775e-12 -4.9848e-10 0)
(1.13258e-12 -4.68881e-10 0)
(-2.51582e-11 -5.59327e-10 0)
(-2.17021e-11 -7.08266e-10 0)
(0 0 0)
(3.0954e-11 -5.46226e-10 0)
(8.22678e-12 -1.03089e-09 0)
(0 0 0)
(2.71085e-11 -1.10973e-09 0)
(1.46482e-11 -5.08705e-10 0)
(2.73019e-11 -5.11147e-10 0)
(2.99209e-11 -5.28358e-10 0)
(-1.7298e-11 -5.1453e-10 0)
(0 0 0)
(-2.11033e-11 -5.17762e-10 0)
(-6.2733e-11 -5.34439e-10 0)
(-1.67948e-10 -1.22668e-09 0)
(-9.88156e-13 -5.50386e-10 0)
(3.00086e-11 -1.20052e-09 0)
(-5.176e-12 -4.807e-10 0)
(-5.98233e-12 -4.90497e-10 0)
(-1.61924e-11 -4.89785e-10 0)
(1.13274e-11 -5.04537e-10 0)
(5.26567e-12 -4.8127e-10 0)
(2.71652e-11 -1.07297e-09 0)
(0 0 0)
(1.10435e-11 -5.21022e-10 0)
(9.95378e-13 -4.27882e-10 0)
(5.26336e-12 -4.56441e-10 0)
(3.48525e-12 -5.45002e-10 0)
(0 0 0)
(0 0 0)
(3.39116e-11 -1.17483e-09 0)
(1.63583e-11 -5.08876e-10 0)
(0 0 0)
(0 0 0)
(0 0 0)
(0 0 0)
(0 0 0)
(0 0 0)
(0 0 0)
(0 0 0)
(0 0 0)
(0 0 0)
(0 0 0)
(0 0 0)
(0 0 0)
(0 0 0)
(0 0 0)
(0 0 0)
(0 0 0)
(0 0 0)
(0 0 0)
(0 0 0)
(0 0 0)
(0 0 0)
(0 0 0)
(0 0 0)
(0 0 0)
(0 0 0)
(0 0 0)
(0 0 0)
(0 0 0)
(0 0 0)
(0 0 0)
(0 0 0)
(0 0 0)
(0 0 0)
(0 0 0)
(0 0 0)
(0 0 0)
(-9.79991e-12 -4.70114e-10 0)
(1.75866e-11 -4.98112e-10 0)
(1.02651e-11 -4.98165e-10 0)
(0 0 0)
(8.60644e-12 -4.97233e-10 0)
(-3.40848e-12 -5.32367e-10 0)
(-2.44966e-12 -5.11478e-10 0)
(-2.43795e-11 -5.7826e-10 0)
(3.13125e-12 -6.10158e-10 0)
(1.82735e-11 -1.1162e-09 0)
(0 0 0)
(-1.56039e-11 -5.01247e-10 0)
(3.82072e-11 -1.12375e-09 0)
(1.79765e-11 -4.50428e-10 0)
(2.77649e-11 -5.02962e-10 0)
(1.09105e-10 -1.36576e-09 0)
(-8.61778e-11 -5.70531e-10 0)
(0 0 0)
(-1.01282e-10 -1.16642e-09 0)
(-4.61852e-11 -5.11205e-10 0)
(-3.25108e-11 -5.35503e-10 0)
(-2.05304e-12 -5.72558e-10 0)
(8.51279e-13 -1.31103e-10 0)
(2.21826e-12 -3.13142e-10 0)
(2.77972e-12 -5.31622e-10 0)
(-9.9302e-13 -5.2297e-10 0)
(0 0 0)
(2.98451e-12 -5.26773e-10 0)
(7.50794e-12 -5.24564e-10 0)
(7.79133e-12 -5.70079e-10 0)
(0 0 0)
(6.73986e-12 -5.26014e-10 0)
(2.04386e-11 -5.20455e-10 0)
(0 0 0)
(1.44522e-11 -5.41255e-10 0)
(0 0 0)
(1.39471e-11 -1.20728e-09 0)
(0 0 0)
(2.59725e-11 -5.35158e-10 0)
(2.22351e-11 -5.12951e-10 0)
(0 0 0)
(0 0 0)
(0 0 0)
(0 0 0)
(0 0 0)
(0 0 0)
(0 0 0)
(0 0 0)
(0 0 0)
(0 0 0)
(0 0 0)
(0 0 0)
(0 0 0)
(0 0 0)
(0 0 0)
(0 0 0)
(0 0 0)
(0 0 0)
(0 0 0)
(0 0 0)
(0 0 0)
(0 0 0)
(0 0 0)
(0 0 0)
(0 0 0)
(0 0 0)
(0 0 0)
(0 0 0)
(0 0 0)
(0 0 0)
(0 0 0)
(0 0 0)
(0 0 0)
(0 0 0)
(3.54892e-11 -5.32208e-10 0)
(-1.1742e-11 -1.13227e-09 0)
(2.17886e-11 -4.42143e-10 0)
(2.47764e-11 -4.77717e-10 0)
(2.35091e-12 -1.12016e-09 0)
(-9.63925e-12 -4.69628e-10 0)
(0 0 0)
(1.85335e-11 -5.1966e-10 0)
(3.6389e-11 -5.90348e-10 0)
(-4.1191e-11 -9.95041e-10 0)
(-2.42815e-11 -6.5188e-10 0)
(-1.37354e-11 -4.27284e-10 0)