/*--------------------------------*- C++ -*----------------------------------*\
  =========                 |
  \\      /  F ield         | OpenFOAM: The Open Source CFD Toolbox
   \\    /   O peration     | Website:  https://openfoam.org
    \\  /    A nd           | Version:  12
     \\/     M anipulation  |
\*---------------------------------------------------------------------------*/
FoamFile
{
    format      ascii;
    class       volScalarField;
    location    "0.75";
    object      p;
}
// * * * * * * * * * * * * * * * * * * * * * * * * * * * * * * * * * * * * * //

dimensions      [0 2 -2 0 0 0 0];

internalField   nonuniform List<scalar> 
3750
(
0.715575
0.707656
0.703674
0.694565
0.684811
0.673818
0.660667
0.644616
0.625924
0.608701
0.595241
0.598261
0.650598
0.664516
0.673452
0.546506
0.553545
0.546214
0.530204
0.507879
0.477873
0.46952
0.605551
0.597085
0.568816
0.550669
0.536501
0.521468
0.495783
0.441256
0.346394
0.422596
0.440346
0.434411
0.421134
0.402263
0.377262
0.36135
0.349599
0.34038
0.333699
0.328237
0.32204
0.314768
0.306799
0.298522
0.288644
0.279592
0.270179
0.260862
0.251153
0.241187
0.231174
0.221104
0.210973
0.200802
0.190595
0.180363
0.170109
0.15984
0.149558
0.139267
0.128966
0.118657
0.10834
0.0980162
0.0876899
0.0773651
0.0670496
0.0567421
0.0464313
0.0361161
0.0258041
0.0154811
0.00514633
0.716485
0.705757
0.705183
0.694957
0.686215
0.675987
0.663586
0.647408
0.627537
0.604011
0.580808
0.568668
0.672909
0.662677
0.633457
0.583953
0.566192
0.553083
0.537494
0.516967
0.506276
0.515315
0.561329
0.568373
0.558215
0.546645
0.537388
0.527455
0.51505
0.513239
0.559583
0.492933
0.46083
0.441408
0.424411
0.408583
0.370603
0.354647
0.346596
0.339284
0.334361
0.329203
0.322817
0.315351
0.307208
0.298567
0.289219
0.279959
0.270493
0.260951
0.251209
0.241255
0.231239
0.221158
0.211016
0.200835
0.190621
0.180381
0.170123
0.159851
0.149567
0.139274
0.128971
0.118661
0.10834
0.0980115
0.0876799
0.0773551
0.0670427
0.0567414
0.0464347
0.036118
0.0258092
0.0154759
0.00514135
0.718336
0.710043
0.704197
0.696849
0.688593
0.680109
0.669122
0.654294
0.630287
0.594944
0.575468
0.609379
0.648575
0.639453
0.618057
0.591588
0.57414
0.561939
0.549542
0.516456
0.516897
0.531917
0.547882
0.554728
0.549061
0.542425
0.539851
0.532666
0.527193
0.530842
0.543151
0.511316
0.473834
0.446242
0.427836
0.437489
0.339095
0.340938
0.339535
0.338232
0.336385
0.331322
0.324503
0.316706
0.308223
0.299245
0.289933
0.280576
0.270984
0.261241
0.251392
0.241421
0.231367
0.22125
0.211092
0.200895
0.190668
0.180419
0.170152
0.159872
0.149583
0.139286
0.128981
0.118668
0.108346
0.0980184
0.0876856
0.0773593
0.0670449
0.0567373
0.046427
0.0361151
0.0258081
0.015478
0.00513495
0.719914
0.710394
0.704726
0.698883
0.693168
0.686533
0.67749
0.66539
0.639382
0.587606
0.560601
0.645887
0.640807
0.623044
0.607109
0.590355
0.57778
0.571179
0.58249
0.482894
0.507075
0.543871
0.551692
0.549187
0.542495
0.535663
0.544825
0.539459
0.53059
0.526748
0.523548
0.505999
0.470745
0.443381
0.416074
0.405304
0.364934
0.340942
0.336038
0.338285
0.340779
0.335267
0.327344
0.318693
0.309679
0.300393
0.290893
0.281275
0.27153
0.26166
0.251704
0.241664
0.231558
0.221402
0.211209
0.200985
0.190738
0.180473
0.170194
0.159905
0.149608
0.139304
0.128994
0.118678
0.108357
0.0980323
0.0877048
0.0773816
0.0670648
0.0567497
0.046434
0.0361169
0.0258085
0.0154762
0.00513172
0.720898
0.70883
0.700534
0.697882
0.6987
0.695637
0.684915
0.671252
0.645492
0.615918
0.60754
0.612594
0.615685
0.607327
0.596741
0.584788
0.574235
0.564488
0.551791
0.50818
0.496087
0.582677
0.564786
0.545922
0.533371
0.527137
0.5557
0.547836
0.52903
0.517522
0.50815
0.492947
0.463544
0.442065
0.415432
0.396896
0.365725
0.335135
0.326035
0.350217
0.353129
0.341543
0.330913
0.321029
0.311395
0.30174
0.291987
0.282134
0.272197
0.262177
0.2521
0.241969
0.231795
0.221586
0.211352
0.201096
0.190825
0.18054
0.170246
0.159944
0.149638
0.139328
0.129013
0.118695
0.108373
0.0980487
0.0877224
0.0773983
0.0670774
0.056758
0.0464384
0.0361191
0.0258093
0.0154759
0.00512945
0.718199
0.704373
0.690661
0.690298
0.71335
0.711191
0.692143
0.675278
0.648628
0.637534
0.655936
0.569006
0.593547
0.594818
0.587532
0.578237
0.569103
0.560619
0.550694
0.535968
0.540051
0.568948
0.547759
0.536929
0.524482
0.50296
0.578622
0.554115
0.519976
0.506173
0.494693
0.479538
0.459277
0.439827
0.419633
0.396841
0.366008
0.330857
0.304767
0.38493
0.369548
0.346601
0.333696
0.323137
0.313131
0.303178
0.293161
0.283077
0.272939
0.262758
0.252549
0.242316
0.232064
0.221796
0.211515
0.201224
0.190924
0.180618
0.170306
0.159989
0.149673
0.139355
0.129036
0.118715
0.108391
0.0980654
0.087739
0.0774129
0.0670884
0.0567654
0.0464427
0.0361214
0.0258103
0.0154757
0.00512841
0.715429
0.700562
0.679081
0.66418
0.744713
0.728178
0.687793
0.677267
0.637813
0.632895
0.628106
0.599923
0.594773
0.589343
0.580778
0.571346
0.563144
0.558244
0.554997
0.553899
0.564139
0.595076
0.510695
0.529359
0.540107
0.539785
0.552347
0.531137
0.509371
0.495911
0.484134
0.470211
0.454007
0.437912
0.424636
0.403779
0.370167
0.350205
0.341455
0.360417
0.356851
0.344568
0.334417
0.324728
0.31482
0.304681
0.294406
0.284074
0.273722
0.263369
0.253023
0.242683
0.23235
0.222019
0.21169
0.201361
0.191032
0.180702
0.170372
0.160041
0.149713
0.139388
0.129063
0.118736
0.108409
0.0980802
0.0877515
0.0774235
0.0670967
0.056771
0.0464464
0.0361237
0.0258113
0.0154757
0.00512771
0.714249
0.701851
0.691946
0.693733
0.722535
0.743264
0.652756
0.66145
0.640015
0.632775
0.623471
0.608161
0.597125
0.586707
0.575397
0.563453
0.554061
0.552383
0.557826
0.561403
0.563496
0.562809
0.543349
0.548856
0.556005
0.553332
0.540384
0.514622
0.497615
0.486823
0.475881
0.463273
0.448346
0.432869
0.428743
0.412675
0.375103
0.367863
0.360562
0.346821
0.344426
0.340119
0.33488
0.326568
0.316744
0.306318
0.29571
0.285087
0.274503
0.263971
0.253488
0.243044
0.232632
0.222241
0.211865
0.2015
0.191142
0.180789
0.170442
0.160099
0.149758
0.139423
0.12909
0.118758
0.108426
0.0980943
0.087763
0.0774327
0.0671037
0.0567761
0.0464498
0.0361258
0.0258121
0.0154759
0.00512738
0.714875
0.700681
0.696359
0.699903
0.706873
0.703669
0.671522
0.667187
0.64894
0.636736
0.625036
0.612296
0.60039
0.586019
0.568852
0.552916
0.537821
0.536204
0.566097
0.571639
0.565099
0.553411
0.545786
0.570601
0.576477
0.570726
0.530258
0.503431
0.48775
0.478467
0.469899
0.45849
0.44578
0.433161
0.423429
0.409493
0.386969
0.380632
0.363512
0.340705
0.337154
0.338976
0.338219
0.329886
0.319262
0.308136
0.297027
0.286058
0.275233
0.264528
0.253918
0.243381
0.232896
0.222449
0.21203
0.201631
0.191245
0.180872
0.170507
0.160149
0.149799
0.139454
0.129115
0.118779
0.108443
0.0981071
0.0877727
0.07744
0.0671092
0.0567799
0.0464524
0.0361273
0.0258128
0.0154759
0.00512719
0.716943
0.690859
0.692622
0.700199
0.703291
0.696244
0.678556
0.66838
0.654386
0.640186
0.627297
0.616979
0.604133
0.588257
0.562169
0.542282
0.518681
0.492339
0.576294
0.593222
0.574101
0.546802
0.523151
0.60708
0.595557
0.600691
0.496895
0.493165
0.48335
0.474719
0.466054
0.454166
0.442881
0.431342
0.419403
0.407887
0.393035
0.382016
0.362695
0.33554
0.329066
0.351266
0.348793
0.335397
0.322261
0.309935
0.298208
0.286886
0.275841
0.264989
0.254275
0.24366
0.233117
0.222626
0.212172
0.201745
0.191337
0.180945
0.170565
0.160195
0.149835
0.139482
0.12914
0.118799
0.108457
0.0981175
0.0877803
0.0774457
0.0671132
0.0567826
0.0464541
0.0361282
0.0258131
0.0154757
0.00512707
0.739836
0.653494
0.67723
0.708691
0.710091
0.697562
0.684548
0.671141
0.657951
0.643798
0.631174
0.620803
0.607466
0.587611
0.560237
0.544081
0.533067
0.508878
0.521259
0.609783
0.583208
0.561145
0.549841
0.575891
0.575127
0.5606
0.52319
0.502929
0.488046
0.47479
0.462426
0.450632
0.438809
0.427578
0.416882
0.406496
0.394359
0.379885
0.359402
0.32665
0.30755
0.385337
0.364402
0.340208
0.324397
0.311124
0.298977
0.287432
0.276254
0.265314
0.254535
0.243871
0.233289
0.222766
0.212286
0.201837
0.191411
0.181004
0.170613
0.160235
0.149867
0.139507
0.129164
0.118814
0.108468
0.0981246
0.0877851
0.0774486
0.067115
0.0567835
0.0464544
0.0361281
0.0258127
0.0154752
0.00512689
0.713125
0.679763
0.661023
0.742254
0.723688
0.702217
0.687495
0.675443
0.664465
0.649165
0.630633
0.621296
0.601184
0.575098
0.551471
0.566239
0.56397
0.530925
0.535101
0.565798
0.567519
0.560908
0.557151
0.562273
0.55927
0.543738
0.529866
0.508588
0.489918
0.474198
0.460089
0.447343
0.434469
0.423109
0.413663
0.405125
0.394778
0.380823
0.363415
0.342128
0.345141
0.362702
0.354407
0.338515
0.324149
0.311219
0.299154
0.287623
0.276434
0.265479
0.254681
0.243998
0.233399
0.22286
0.212365
0.201903
0.191465
0.181048
0.170648
0.160263
0.14989
0.139528
0.129174
0.118823
0.108474
0.0981284
0.0877871
0.0774494
0.0671148
0.0567827
0.0464533
0.036127
0.0258117
0.0154743
0.00512663
0.723338
0.7047
0.696115
0.723275
0.716122
0.702602
0.69039
0.678726
0.669862
0.653793
0.630499
0.613712
0.597901
0.565928
0.513111
0.59029
0.625495
0.522125
0.537326
0.545965
0.548765
0.550268
0.55452
0.557857
0.553277
0.543007
0.528114
0.509713
0.489928
0.472258
0.456427
0.441656
0.428336
0.417018
0.40999
0.405778
0.398977
0.386262
0.371069
0.357853
0.354377
0.351705
0.345669
0.334716
0.322473
0.310447
0.298796
0.287463
0.276377
0.265473
0.254708
0.24404
0.233447
0.222908
0.212409
0.201941
0.191497
0.181073
0.170668
0.160278
0.149905
0.139539
0.12918
0.118825
0.108474
0.0981271
0.0877851
0.077447
0.067112
0.0567796
0.0464504
0.0361244
0.0258097
0.0154729
0.0051262
0.734589
0.72453
0.719255
0.716435
0.711496
0.701748
0.691585
0.681331
0.669355
0.654866
0.628464
0.615978
0.612994
0.620482
0.512222
0.517938
0.608912
0.565753
0.544958
0.536712
0.531425
0.533633
0.55942
0.561539
0.553209
0.542974
0.531451
0.512325
0.487215
0.468127
0.452088
0.436717
0.421434
0.406557
0.400545
0.41597
0.410425
0.392859
0.376252
0.365328
0.357062
0.349648
0.341557
0.331534
0.320552
0.309316
0.298123
0.287065
0.276144
0.265343
0.254639
0.244011
0.233441
0.222916
0.212423
0.201957
0.191512
0.181085
0.170676
0.160285
0.149908
0.13954
0.129178
0.118822
0.108469
0.0981221
0.0877796
0.0774413
0.0671064
0.0567742
0.0464456
0.0361205
0.0258067
0.015471
0.00512562
0.750315
0.738088
0.72823
0.719909
0.711471
0.701571
0.69133
0.68103
0.671251
0.656752
0.633403
0.625073
0.619482
0.616201
0.606204
0.498472
0.557328
0.561961
0.544142
0.525891
0.513459
0.49544
0.572032
0.564104
0.555028
0.552826
0.537669
0.519114
0.477797
0.460747
0.446824
0.432017
0.415243
0.394396
0.369923
0.437798
0.424543
0.398176
0.380361
0.368043
0.357918
0.348806
0.339419
0.329404
0.318883
0.308127
0.297311
0.286522
0.275787
0.265113
0.254495
0.243924
0.233391
0.222888
0.21241
0.201953
0.191513
0.18109
0.170681
0.160288
0.149907
0.139535
0.129171
0.118813
0.10846
0.0981125
0.08777
0.0774319
0.0670975
0.0567662
0.0464387
0.0361149
0.0258026
0.0154684
0.00512479
0.770981
0.74856
0.734811
0.723654
0.712962
0.702355
0.691525
0.680109
0.668048
0.654975
0.640863
0.635779
0.623936
0.61863
0.624187
0.504461
0.537006
0.568632
0.55369
0.53232
0.519954
0.515997
0.527886
0.527968
0.553309
0.579167
0.548713
0.548528
0.443127
0.450341
0.442546
0.429047
0.412153
0.406355
0.394512
0.41721
0.413058
0.395587
0.380988
0.368847
0.357812
0.347591
0.337757
0.327709
0.317437
0.307
0.296479
0.285926
0.275372
0.264829
0.254304
0.243797
0.233308
0.222835
0.212376
0.20193
0.191498
0.181078
0.170672
0.160279
0.149897
0.139524
0.129158
0.118799
0.108445
0.0980978
0.0877559
0.0774187
0.0670853
0.0567554
0.0464295
0.0361075
0.0257972
0.0154651
0.00512381
0.768129
0.752486
0.738735
0.726503
0.714878
0.70349
0.692191
0.680936
0.669163
0.653809
0.644871
0.635573
0.623667
0.612158
0.592537
0.53813
0.519359
0.595818
0.569147
0.543223
0.530546
0.524697
0.507439
0.474923
0.550982
0.644605
0.515566
0.50679
0.469063
0.454197
0.44202
0.429766
0.418076
0.410439
0.40626
0.404588
0.401168
0.390764
0.379164
0.367835
0.356986
0.346522
0.336367
0.326288
0.316164
0.305958
0.295673
0.285328
0.27494
0.264524
0.254092
0.243652
0.233208
0.222766
0.212327
0.201895
0.19147
0.181056
0.170652
0.16026
0.149877
0.139503
0.129137
0.118777
0.108424
0.0980777
0.0877368
0.077401
0.0670693
0.0567414
0.0464179
0.0360981
0.0257904
0.0154609
0.00512237
0.764745
0.753245
0.740877
0.728729
0.716649
0.70461
0.692818
0.682431
0.674895
0.647006
0.649587
0.637434
0.624434
0.611285
0.592144
0.565874
0.557012
0.577042
0.567349
0.547944
0.534015
0.531261
0.5265
0.511072
0.531951
0.553388
0.517983
0.496238
0.472777
0.455743
0.442499
0.430691
0.421536
0.414211
0.406945
0.402469
0.396359
0.387229
0.377074
0.366414
0.355609
0.345088
0.334901
0.324911
0.314972
0.304992
0.294928
0.284773
0.274537
0.264238
0.25389
0.24351
0.233108
0.222694
0.212274
0.201851
0.191431
0.181021
0.17062
0.16023
0.149848
0.139474
0.129108
0.118749
0.108397
0.0980516
0.0877125
0.0773787
0.0670495
0.0567242
0.0464035
0.0360868
0.0257823
0.0154559
0.00512083
0.76541
0.754834
0.743083
0.730849
0.71827
0.705531
0.692974
0.684122
0.700304
0.629322
0.649398
0.63943
0.625469
0.614891
0.599039
0.583556
0.574304
0.569115
0.560296
0.545262
0.529835
0.533141
0.56179
0.540004
0.520252
0.512865
0.500785
0.486571
0.470223
0.454573
0.44044
0.431884
0.422211
0.413699
0.405777
0.400887
0.393475
0.384935
0.375524
0.365073
0.353964
0.343324
0.333236
0.323484
0.313828
0.304115
0.294278
0.284301
0.2742
0.263999
0.253721
0.243388
0.233018
0.222625
0.212217
0.201801
0.191389
0.180981
0.170582
0.160192
0.149811
0.139437
0.129071
0.118713
0.108363
0.0980192
0.0876825
0.0773515
0.0670253
0.0567035
0.0463862
0.0360731
0.0257724
0.01545
0.00511888
0.769203
0.757779
0.745771
0.733276
0.720206
0.706172
0.690183
0.667193
0.642091
0.694604
0.670494
0.644898
0.625425
0.620369
0.60576
0.595131
0.586445
0.571368
0.555399
0.541068
0.522247
0.517573
0.628313
0.519218
0.501103
0.50162
0.491062
0.479515
0.466105
0.4498
0.434091
0.432198
0.421838
0.412787
0.405321
0.399609
0.39169
0.383524
0.37503
0.364315
0.351937
0.341024
0.331235
0.321958
0.312734
0.303353
0.293756
0.283948
0.273961
0.263835
0.253605
0.243302
0.23295
0.222566
0.212162
0.201747
0.19133
0.180926
0.17053
0.160143
0.149762
0.139389
0.129025
0.118669
0.108321
0.0979802
0.0876466
0.0773192
0.0669969
0.056679
0.0463659
0.0360572
0.025761
0.0154431
0.00511665
0.772334
0.760797
0.74915
0.736246
0.722449
0.708617
0.693521
0.677121
0.668318
0.678745
0.664092
0.644188
0.62919
0.61871
0.609879
0.604647
0.601692
0.576367
0.550712
0.542245
0.536345
0.541507
0.569066
0.541949
0.504111
0.494587
0.485252
0.475957
0.463943
0.445209
0.432186
0.425861
0.416404
0.409027
0.400022
0.399637
0.390576
0.382986
0.376455
0.365173
0.348583
0.337498
0.328713
0.32038
0.311807
0.302821
0.293456
0.283781
0.273866
0.263776
0.253563
0.243265
0.232912
0.222523
0.212115
0.201697
0.19128
0.180873
0.170476
0.160086
0.149704
0.139332
0.128969
0.118615
0.108271
0.097934
0.0876044
0.0772813
0.0669636
0.0566505
0.0463423
0.0360388
0.0257478
0.0154352
0.00511399
0.773979
0.764847
0.753251
0.740073
0.726241
0.712216
0.698439
0.686983
0.684908
0.682596
0.653332
0.638957
0.624918
0.614989
0.606839
0.60434
0.610238
0.586539
0.552339
0.543748
0.542508
0.545357
0.553462
0.570716
0.474376
0.488227
0.483881
0.476894
0.467354
0.433921
0.425659
0.42003
0.413326
0.406587
0.401249
0.395558
0.389152
0.383139
0.379502
0.371449
0.339812
0.331701
0.325801
0.319057
0.311263
0.302653
0.293456
0.283843
0.27394
0.263839
0.253604
0.243284
0.23291
0.222504
0.212083
0.201656
0.191232
0.180817
0.170413
0.160019
0.149636
0.139265
0.128905
0.118555
0.108213
0.0978807
0.0875559
0.0772379
0.0669255
0.056618
0.0463155
0.0360178
0.0257328
0.0154262
0.00511103
0.775952
0.771053
0.758764
0.744758
0.730379
0.715645
0.700878
0.68776
0.686349
0.726379
0.627585
0.631626
0.621696
0.610255
0.597097
0.581756
0.579391
0.617438
0.577393
0.553301
0.544042
0.540667
0.538927
0.535724
0.504432
0.495639
0.483615
0.480709
0.495838
0.40032
0.415616
0.414717
0.410366
0.404227
0.398538
0.3931
0.387289
0.383123
0.384736
0.401663
0.307786
0.323652
0.323821
0.318795
0.311553
0.303093
0.293887
0.284205
0.274219
0.264037
0.253735
0.243358
0.23294
0.2225
0.212054
0.20161
0.191173
0.18075
0.17034
0.159942
0.149559
0.139188
0.12883
0.118484
0.108147
0.0978199
0.0875006
0.0771884
0.0668823
0.0565811
0.0462852
0.0359942
0.0257158
0.015416
0.00510767
0.789113
0.783667
0.766193
0.750192
0.735031
0.719228
0.703169
0.68144
0.65881
0.725839
0.667593
0.638124
0.619636
0.60536
0.589509
0.556869
0.523439
0.710725
0.584166
0.549186
0.539903
0.534287
0.527499
0.528052
0.512787
0.504096
0.473754
0.467144
0.460692
0.428795
0.420491
0.414737
0.408926
0.402408
0.396039
0.389468
0.383457
0.378316
0.374347
0.368095
0.338229
0.33172
0.326987
0.320761
0.313051
0.304265
0.29478
0.284864
0.274686
0.264354
0.253936
0.243472
0.232989
0.222502
0.212022
0.201555
0.191104
0.180671
0.170254
0.159852
0.149468
0.1391
0.128746
0.118404
0.108073
0.097751
0.0874382
0.0771328
0.0668338
0.0565399
0.0462514
0.0359678
0.025697
0.0154048
0.00510396
0.817916
0.797813
0.771676
0.753712
0.738732
0.724631
0.710588
0.695571
0.686813
0.701527
0.663482
0.634847
0.618279
0.602908
0.588271
0.570802
0.571566
0.625547
0.622965
0.52576
0.533985
0.529093
0.523489
0.520371
0.518266
0.534288
0.440405
0.453766
0.449105
0.434152
0.423297
0.415055
0.407452
0.400704
0.393603
0.385606
0.378459
0.372014
0.366014
0.358417
0.345749
0.338049
0.331623
0.324224
0.315621
0.306142
0.296112
0.285789
0.27531
0.26476
0.254182
0.243605
0.233041
0.222497
0.211978
0.201484
0.191017
0.180571
0.170147
0.159745
0.149363
0.138998
0.128648
0.118312
0.107988
0.0976733
0.0873681
0.0770707
0.0667798
0.0564941
0.0462138
0.0359386
0.0256762
0.0153923
0.00509984
0.790661
0.787555
0.770976
0.755575
0.741742
0.728606
0.718287
0.707973
0.701664
0.692996
0.656854
0.622671
0.61116
0.601598
0.592109
0.585447
0.587676
0.594969
0.585855
0.550992
0.535829
0.525481
0.517239
0.511074
0.506117
0.499366
0.470632
0.459173
0.448314
0.435275
0.423808
0.414365
0.405976
0.398876
0.392109
0.384056
0.372917
0.365225
0.359396
0.353821
0.348364
0.343188
0.337267
0.328897
0.319061
0.30853
0.297733
0.286861
0.276002
0.265187
0.254427
0.243722
0.23307
0.222466
0.211906
0.201386
0.190902
0.180447
0.17002
0.159618
0.149239
0.13888
0.128537
0.118209
0.107892
0.0975866
0.0872903
0.077002
0.0667203
0.0564438
0.0461727
0.0359066
0.0256534
0.0153787
0.00509536
0.779613
0.777275
0.767318
0.755138
0.743048
0.732394
0.72285
0.716305
0.711613
0.684173
0.686817
0.587537
0.602805
0.601437
0.596559
0.591795
0.589067
0.584983
0.573221
0.55146
0.53494
0.520962
0.510399
0.501419
0.495498
0.489177
0.48265
0.464321
0.448955
0.434779
0.422434
0.411977
0.403352
0.396699
0.39207
0.383542
0.363984
0.356275
0.35272
0.348932
0.349807
0.349738
0.345318
0.335033
0.323204
0.311216
0.299435
0.287931
0.276657
0.265565
0.254619
0.243788
0.233052
0.222393
0.211797
0.201254
0.190756
0.180296
0.169868
0.15947
0.149098
0.138746
0.128412
0.118093
0.107786
0.0974905
0.0872045
0.0769266
0.0666551
0.0563887
0.0461278
0.0358718
0.0256286
0.0153639
0.00509048
0.778997
0.77299
0.764313
0.754536
0.744198
0.734289
0.724801
0.721811
0.737251
0.63691
0.652339
0.619088
0.611482
0.605259
0.599191
0.594512
0.591209
0.585118
0.570919
0.5471
0.527955
0.515184
0.503292
0.489455
0.482862
0.499485
0.48815
0.466283
0.447932
0.432887
0.419213
0.40764
0.39888
0.39275
0.388233
0.37898
0.358134
0.348224
0.345846
0.33987
0.344438
0.365954
0.359055
0.342621
0.32739
0.313584
0.300846
0.288763
0.277124
0.265797
0.254695
0.243761
0.232958
0.222255
0.211634
0.201077
0.190573
0.180113
0.169689
0.159297
0.148935
0.138595
0.128272
0.117964
0.107669
0.0973852
0.0871109
0.0768445
0.0665843
0.0563292
0.0460793
0.0358342
0.0256019
0.015348
0.00508522
0.77978
0.772235
0.763732
0.75466
0.745003
0.735141
0.723499
0.710898
0.697642
0.663538
0.652416
0.62904
0.616419
0.608227
0.601639
0.59553
0.592887
0.588266
0.568533
0.542157
0.521503
0.513157
0.500078
0.475506
0.453689
0.52787
0.494079
0.465114
0.443716
0.428732
0.414849
0.401544
0.391202
0.380102
0.366634
0.358442
0.369219
0.352811
0.339269
0.340192
0.33197
0.403181
0.376053
0.348363
0.329941
0.31498
0.30161
0.289157
0.277284
0.265805
0.254603
0.243604
0.232761
0.222037
0.211405
0.200847
0.190347
0.179895
0.169481
0.159101
0.148752
0.138426
0.128117
0.117822
0.107541
0.0972706
0.0870094
0.0767557
0.0665081
0.0562653
0.0460273
0.035794
0.0255734
0.015331
0.00507961
0.781026
0.771489
0.761895
0.753857
0.745686
0.737736
0.725582
0.702002
0.685351
0.672453
0.663258
0.628315
0.617791
0.610045
0.603211
0.596365
0.589613
0.581859
0.566995
0.542962
0.525961
0.51547
0.504474
0.488845
0.482932
0.497489
0.479211
0.456657
0.435815
0.422845
0.409214
0.394965
0.387045
0.369406
0.344091
0.326398
0.400161
0.361639
0.31964
0.386041
0.378164
0.378964
0.365003
0.346078
0.329428
0.314795
0.301459
0.288969
0.27705
0.265534
0.254307
0.243295
0.232448
0.221727
0.211104
0.200558
0.190074
0.179637
0.169242
0.15888
0.148547
0.138238
0.127946
0.117668
0.107402
0.0971467
0.0869001
0.0766606
0.0664267
0.0561972
0.0459722
0.0357514
0.0255432
0.0153129
0.00507367
0.782777
0.772324
0.762127
0.752627
0.745675
0.740027
0.724485
0.697018
0.684106
0.682072
0.699102
0.60294
0.615075
0.612561
0.604707
0.597298
0.588798
0.576981
0.56686
0.542267
0.537711
0.526089
0.512736
0.501254
0.495585
0.485318
0.457409
0.440168
0.429811
0.41823
0.405607
0.39277
0.379852
0.364071
0.349518
0.351622
0.3827
0.370388
0.358745
0.376827
0.378061
0.366435
0.355283
0.341199
0.326924
0.313334
0.300474
0.288214
0.276418
0.264973
0.253795
0.242822
0.232008
0.221318
0.210724
0.200207
0.189749
0.179338
0.168968
0.158629
0.148319
0.138031
0.127758
0.117499
0.107252
0.0970141
0.0867838
0.0765598
0.0663406
0.0561253
0.045914
0.0357066
0.0255114
0.015294
0.00506743
0.783939
0.773232
0.761918
0.749023
0.739287
0.732121
0.719661
0.697914
0.685337
0.676314
0.670268
0.638157
0.628203
0.619497
0.605728
0.598206
0.589736
0.581118
0.559057
0.549167
0.542931
0.535997
0.523357
0.507591
0.490197
0.473115
0.447514
0.434913
0.425243
0.414665
0.402436
0.388062
0.374451
0.357561
0.347439
0.374872
0.385073
0.377083
0.371508
0.370968
0.368193
0.358915
0.348472
0.336361
0.323696
0.311125
0.298879
0.286993
0.275432
0.264143
0.253077
0.242189
0.231444
0.220811
0.210267
0.199793
0.189373
0.178999
0.168661
0.158353
0.14807
0.137806
0.127557
0.11732
0.107093
0.0968743
0.0866614
0.0764538
0.0662504
0.0560502
0.0458533
0.0356598
0.0254783
0.0152744
0.00506094
0.783401
0.775436
0.762844
0.742432
0.731972
0.722928
0.714203
0.700698
0.690485
0.680232
0.66583
0.64981
0.639902
0.631344
0.60099
0.596182
0.589141
0.582765
0.555315
0.553794
0.547805
0.549336
0.537641
0.515773
0.481986
0.460278
0.443824
0.432128
0.422734
0.412831
0.401443
0.387658
0.371066
0.347155
0.321884
0.404397
0.393583
0.381671
0.376868
0.370719
0.363325
0.353804
0.343354
0.332079
0.32038
0.308597
0.296926
0.285446
0.274171
0.263091
0.252182
0.241416
0.230767
0.220214
0.209737
0.199321
0.188952
0.178623
0.168325
0.158052
0.147801
0.137566
0.127344
0.117131
0.106926
0.0967274
0.0865334
0.0763435
0.0661566
0.0559721
0.0457904
0.0356115
0.0254441
0.0152541
0.00505424
0.777492
0.770712
0.758322
0.736789
0.727907
0.720754
0.713173
0.702141
0.690412
0.678713
0.665476
0.654358
0.649993
0.664949
0.571225
0.588684
0.587177
0.580027
0.5659
0.55558
0.560617
0.558941
0.552766
0.524773
0.481975
0.450821
0.435842
0.427849
0.42095
0.412588
0.402779
0.390033
0.374952
0.356915
0.345757
0.368283
0.372922
0.390118
0.384184
0.371182
0.359992
0.349575
0.339057
0.328224
0.317141
0.305952
0.294779
0.283689
0.272717
0.261871
0.251145
0.240524
0.229994
0.219539
0.209145
0.198799
0.188492
0.178216
0.167964
0.157733
0.147518
0.137315
0.12712
0.116934
0.106752
0.0965753
0.0864013
0.0762298
0.0660602
0.0558922
0.045726
0.0355621
0.0254091
0.0152334
0.00504741
0.765072
0.751797
0.739812
0.750238
0.739174
0.72496
0.713105
0.701084
0.688828
0.677016
0.664152
0.65154
0.640663
0.632297
0.604385
0.599177
0.590361
0.581973
0.573246
0.565537
0.567518
0.566173
0.561154
0.521969
0.488228
0.443462
0.427728
0.422819
0.421296
0.415666
0.404525
0.394224
0.382058
0.368052
0.356892
0.346151
0.33149
0.40788
0.391248
0.369495
0.356387
0.345531
0.33509
0.324615
0.314003
0.303294
0.292546
0.281816
0.271138
0.260532
0.250001
0.239542
0.229146
0.218803
0.208503
0.198238
0.188001
0.177785
0.167586
0.1574
0.147224
0.137055
0.126891
0.116731
0.106575
0.0964197
0.0862665
0.0761141
0.0659623
0.055811
0.0456608
0.035512
0.0253738
0.0152124
0.0050405
0.755769
0.735726
0.713074
0.777701
0.746385
0.730152
0.711928
0.699265
0.687749
0.677046
0.663615
0.647645
0.629274
0.614714
0.620902
0.609673
0.597819
0.585616
0.575579
0.56836
0.578896
0.579647
0.587749
0.491752
0.490835
0.443166
0.426315
0.423405
0.425614
0.423875
0.407307
0.400557
0.391086
0.377768
0.36374
0.352197
0.348815
0.373695
0.37309
0.361872
0.351159
0.341082
0.331155
0.321139
0.310971
0.300675
0.290298
0.279891
0.269491
0.25912
0.248788
0.238496
0.228243
0.218022
0.207826
0.197651
0.187489
0.177338
0.167194
0.157055
0.146921
0.136788
0.126656
0.116525
0.106394
0.0962626
0.0861305
0.0759976
0.0658639
0.0557295
0.0455952
0.0354618
0.0253383
0.0151915
0.00503358
0.755971
0.744373
0.739532
0.753963
0.744096
0.723752
0.706347
0.6947
0.686012
0.676881
0.66453
0.647938
0.61952
0.582072
0.647382
0.614922
0.601835
0.587021
0.576041
0.571705
0.571558
0.571733
0.553711
0.522315
0.502411
0.449973
0.429875
0.426586
0.433737
0.438846
0.412976
0.411274
0.403948
0.390746
0.368703
0.357378
0.355928
0.359777
0.359557
0.353439
0.345277
0.336495
0.327314
0.317818
0.308067
0.298136
0.288082
0.277961
0.267814
0.257667
0.247532
0.237413
0.227309
0.217216
0.20713
0.197049
0.186967
0.176884
0.166798
0.15671
0.146618
0.136521
0.126422
0.11632
0.106214
0.096106
0.085995
0.0758817
0.0657661
0.0556485
0.0455302
0.035412
0.0253032
0.0151707
0.00502672
0.764083
0.753559
0.747857
0.745953
0.739216
0.712081
0.697405
0.68769
0.684583
0.679671
0.670019
0.65768
0.638107
0.597728
0.613662
0.60554
0.593091
0.579144
0.570204
0.567998
0.565418
0.559284
0.535177
0.520103
0.499939
0.460048
0.434193
0.439323
0.446561
0.44694
0.432165
0.426927
0.420265
0.40619
0.371652
0.358367
0.353719
0.35378
0.351818
0.346813
0.340168
0.332346
0.323795
0.314752
0.305358
0.295722
0.285935
0.276059
0.26614
0.256203
0.246261
0.236315
0.226363
0.216403
0.206431
0.196446
0.186447
0.176433
0.166406
0.156367
0.146317
0.136258
0.126191
0.116117
0.106037
0.095952
0.0858619
0.0757678
0.0656701
0.0555691
0.0454663
0.0353632
0.0252687
0.0151505
0.00502003
0.772809
0.757577
0.749249
0.74324
0.740606
0.703934
0.686391
0.667456
0.687811
0.685956
0.677173
0.674088
0.682925
0.574863
0.591696
0.592019
0.582822
0.57003
0.5611
0.561754
0.56086
0.557174
0.516049
0.494657
0.471229
0.455502
0.470547
0.471477
0.464758
0.456559
0.446907
0.440219
0.432343
0.418036
0.372978
0.359073
0.353637
0.350674
0.34685
0.341929
0.336104
0.328837
0.320733
0.312016
0.302879
0.29346
0.283874
0.274199
0.264482
0.254744
0.244992
0.235221
0.225427
0.215602
0.205746
0.195858
0.18594
0.175995
0.166025
0.156034
0.146025
0.136001
0.125966
0.11592
0.105866
0.0958028
0.0857329
0.0756574
0.0655769
0.055492
0.0454044
0.0353158
0.0252353
0.0151309
0.00501358
0.759419
0.755022
0.748706
0.742743
0.735781
0.709518
0.671843
0.637957
0.714
0.695398
0.67995
0.672137
0.657001
0.612575
0.598951
0.592326
0.57257
0.556697
0.54338
0.54595
0.570139
0.591281
0.476318
0.468269
0.434185
0.415918
0.524973
0.510795
0.483607
0.468235
0.458126
0.452111
0.442904
0.422485
0.38477
0.362696
0.35331
0.348521
0.343231
0.33821
0.332786
0.326167
0.318307
0.309726
0.300683
0.29136
0.281902
0.272383
0.262844
0.253302
0.243744
0.234155
0.22452
0.214833
0.205092
0.195299
0.18546
0.175579
0.165663
0.155718
0.145749
0.135759
0.125753
0.115733
0.105702
0.0956606
0.08561
0.0755519
0.0654877
0.0554183
0.0453452
0.0352705
0.0252034
0.0151122
0.00500745
0.758559
0.753797
0.747012
0.739513
0.729276
0.711976
0.688064
0.665086
0.682229
0.679626
0.673208
0.664402
0.649326
0.628582
0.615232
0.597167
0.571166
0.547265
0.522053
0.506334
0.581128
0.556403
0.498666
0.467965
0.430663
0.414805
0.528904
0.518627
0.490608
0.47608
0.465399
0.457547
0.447459
0.430451
0.399386
0.3716
0.35397
0.345614
0.340328
0.335368
0.330464
0.32468
0.316612
0.307857
0.298732
0.289399
0.279989
0.270581
0.261213
0.251875
0.242529
0.233135
0.223668
0.214118
0.204489
0.194785
0.185018
0.175195
0.165329
0.155424
0.14549
0.135532
0.125554
0.115559
0.105549
0.0955269
0.0854938
0.0754523
0.0654036
0.0553486
0.0452892
0.0352277
0.0251734
0.0150946
0.00500175
0.760819
0.753796
0.746428
0.738235
0.728442
0.715744
0.700775
0.66797
0.665864
0.666132
0.662614
0.654348
0.644215
0.632044
0.62112
0.603085
0.578455
0.555681
0.532388
0.524332
0.540549
0.527444
0.497831
0.473904
0.455054
0.455272
0.486449
0.496198
0.488007
0.479548
0.470446
0.461505
0.450719
0.439339
0.419089
0.376048
0.348422
0.340079
0.335285
0.333547
0.330495
0.323867
0.315406
0.306375
0.297016
0.287524
0.278071
0.268739
0.259552
0.250459
0.241363
0.23219
0.2229
0.213486
0.20396
0.194337
0.18463
0.174857
0.165031
0.155162
0.145259
0.135327
0.125372
0.115399
0.105408
0.0954038
0.085387
0.0753601
0.0653253
0.0552837
0.0452372
0.0351879
0.0251456
0.0150784
0.00499656
0.761761
0.753884
0.746588
0.739047
0.730428
0.71914
0.730641
0.636768
0.654466
0.657374
0.654499
0.647959
0.639318
0.630631
0.621559
0.609045
0.592274
0.572889
0.547007
0.533973
0.523929
0.507964
0.490591
0.475577
0.465807
0.46435
0.470305
0.479374
0.484303
0.483179
0.475652
0.466883
0.456651
0.450541
0.457661
0.34757
0.342667
0.335834
0.334104
0.334134
0.332257
0.324459
0.314849
0.305177
0.295362
0.285597
0.276025
0.266749
0.257801
0.249048
0.240277
0.231362
0.222255
0.212968
0.20353
0.19397
0.18431
0.174573
0.164776
0.154933
0.145053
0.135143
0.125209
0.115254
0.105281
0.0952913
0.0852889
0.0752757
0.0652536
0.0552242
0.0451894
0.0351514
0.0251204
0.0150636
0.00499197
0.760648
0.753718
0.747244
0.740947
0.733723
0.702011
0.69257
0.663504
0.658135
0.654828
0.65005
0.643906
0.636058
0.628181
0.620518
0.614118
0.60606