/*--------------------------------*- C++ -*----------------------------------*\
  =========                 |
  \\      /  F ield         | OpenFOAM: The Open Source CFD Toolbox
   \\    /   O peration     | Website:  https://openfoam.org
    \\  /    A nd           | Version:  12
     \\/     M anipulation  |
\*---------------------------------------------------------------------------*/
FoamFile
{
    format      ascii;
    class       surfaceScalarField;
    location    "0.75";
    object      phi.water;
}
// * * * * * * * * * * * * * * * * * * * * * * * * * * * * * * * * * * * * * //

dimensions      [0 3 -1 0 0 0 0];

internalField   nonuniform List<scalar> 
7375
(
1.48727e-07
8.74177e-09
1.55522e-07
-5.21909e-09
1.44819e-07
1.06304e-08
1.51786e-07
-8.46631e-09
1.46715e-07
5.02914e-09
1.42544e-07
4.12385e-09
1.27303e-07
1.5248e-08
1.15442e-07
1.18565e-08
1.09533e-07
8.12889e-09
9.88018e-08
1.07244e-08
8.40285e-08
1.26153e-08
3.10994e-08
5.45458e-08
5.08698e-08
-1.9958e-08
3.61167e-08
1.51205e-08
5.01613e-07
1.34032e-07
4.01093e-08
-1.35609e-07
9.25679e-08
-5.1517e-08
1.25982e-07
-3.4359e-08
1.42742e-07
-1.67538e-08
1.52173e-07
-9.42097e-09
1.94994e-07
-4.12225e-08
1.48727e-08
-2.18784e-08
2.13408e-07
-2.92777e-09
1.7158e-07
4.44312e-08
1.60375e-07
1.28266e-08
1.43121e-07
1.70775e-08
1.38509e-07
4.6068e-09
1.47214e-07
-7.11489e-09
1.834e-07
-3.8493e-08
3.218e-07
-1.41682e-07
-8.10389e-08
-4.01784e-07
5.07917e-08
-1.31806e-07
8.14702e-08
-3.03686e-08
9.80319e-08
-1.63952e-08
1.15012e-07
-1.81543e-08
1.40055e-07
-2.47919e-08
1.23407e-07
1.82677e-08
1.11197e-07
1.33364e-08
9.62368e-08
1.50202e-08
7.97175e-08
1.55295e-08
4.49781e-08
3.52089e-08
3.54258e-08
9.54062e-09
2.97363e-08
5.3276e-09
1.69849e-08
1.27491e-08
4.28845e-09
1.25742e-08
-6.51294e-09
1.07011e-08
-2.52047e-08
1.85204e-08
-3.76538e-08
1.23159e-08
-4.35847e-08
6.31195e-09
-3.84698e-08
-4.67914e-09
-2.81486e-08
-1.03213e-08
-1.99474e-08
-8.20108e-09
-1.1271e-08
-8.67653e-09
-3.69874e-09
-7.57222e-09
3.87945e-09
-7.5783e-09
1.22256e-08
-8.34614e-09
1.9942e-08
-7.71646e-09
2.74224e-08
-7.48033e-09
3.38041e-08
-6.38179e-09
3.97741e-08
-5.97003e-09
4.55408e-08
-5.76672e-09
5.18022e-08
-6.26144e-09
5.92075e-08
-7.4054e-09
6.8232e-08
-9.02446e-09
7.83466e-08
-1.01148e-08
8.73226e-08
-8.97604e-09
9.1953e-08
-4.63046e-09
8.78875e-08
4.0655e-09
7.56313e-08
1.22562e-08
5.88265e-08
1.68049e-08
4.07539e-08
1.80726e-08
2.38674e-08
1.68864e-08
7.02704e-09
1.68402e-08
-6.8087e-09
1.38355e-08
4.61163e-09
1.44534e-07
-1.15898e-08
1.37745e-07
1.62754e-10
1.50637e-07
-2.41778e-09
1.33529e-07
8.90747e-09
1.37845e-07
-6.78981e-10
1.40639e-07
2.6951e-09
1.49333e-07
7.98853e-09
1.42342e-07
1.86569e-08
1.43539e-07
6.86171e-09
1.35313e-07
1.73516e-08
1.72444e-07
-1.94883e-08
7.76925e-09
1.46879e-08
1.36841e-07
5.27526e-08
1.04682e-07
4.48154e-08
2.06254e-07
2.9023e-08
1.28712e-07
-5.86537e-08
1.21631e-07
-4.26154e-08
1.39897e-07
-5.13841e-08
1.56699e-07
-3.35559e-08
1.36199e-07
1.24682e-08
9.95026e-08
-4.57344e-09
6.65451e-08
1.10791e-08
7.442e-08
-1.01707e-08
1.02848e-07
1.46338e-08
1.05445e-07
8.04506e-09
1.36953e-07
-1.33661e-08
1.20433e-07
2.12955e-08
1.29033e-07
-1.45585e-08
9.09169e-08
2.28652e-09
-3.3933e-08
-1.99295e-08
2.0614e-07
1.75002e-07
8.92064e-08
-1.99888e-08
5.45399e-08
3.74698e-09
7.64931e-08
-3.77976e-08
7.14874e-08
-1.30976e-08
1.54818e-07
-1.07899e-07
8.12415e-08
9.34397e-08
4.71773e-08
4.70518e-08
4.6099e-08
1.59451e-08
1.95673e-08
4.20611e-08
2.93952e-08
2.53809e-08
1.70986e-08
2.15203e-08
5.7364e-09
1.65212e-08
1.66939e-09
1.66294e-08
-2.94179e-10
1.43953e-08
3.50007e-09
6.79987e-09
4.64401e-09
1.71912e-08
9.63115e-09
7.2056e-09
8.02176e-09
7.85818e-09
6.66195e-09
-3.31934e-09
2.34724e-09
-6.00665e-09
-2.26382e-09
-3.59004e-09
-8.57439e-09
-2.36601e-09
-1.59015e-08
-2.45135e-10
-2.234e-08
-1.13983e-09
-2.52244e-08
-5.46178e-09
-2.48378e-08
-8.1031e-09
-2.26694e-08
-9.64868e-09
-1.94995e-08
-9.55176e-09
-1.65094e-08
-8.96011e-09
-1.2926e-08
-9.35025e-09
-7.06264e-09
-1.21248e-08
2.09102e-09
-1.65591e-08
1.3909e-08
-2.08425e-08
2.70354e-08
-2.32413e-08
3.93494e-08
-2.12901e-08
4.67992e-08
-1.20802e-08
4.50915e-08
5.7731e-09
3.39017e-08
2.3446e-08
1.71902e-08
3.35165e-08
-1.45867e-09
3.67214e-08
-1.50867e-08
3.05144e-08
-2.10228e-08
2.27761e-08
-2.30959e-08
1.59084e-08
3.68433e-09
3.77266e-08
-6.7565e-09
2.18829e-08
1.62844e-08
3.29113e-09
1.6242e-08
2.69435e-09
9.43652e-09
9.08247e-09
-7.19414e-09
2.5379e-08
-1.35742e-08
4.42954e-08
-1.10085e-08
6.35346e-08
-1.22397e-09
8.29262e-08
-1.20096e-08
8.03187e-08
2.18474e-08
3.64876e-08
2.37658e-08
2.58146e-08
2.45474e-08
8.4427e-08
-6.13459e-09
1.04237e-07
2.50056e-08
1.12976e-07
2.05794e-08
8.09127e-08
-2.71883e-08
5.31709e-08
-1.54663e-08
5.07503e-08
-4.94681e-08
1.15427e-07
-9.92449e-08
8.17874e-09
1.198e-07
-1.76609e-08
2.11312e-08
-3.49828e-08
2.82224e-08
-3.944e-08
-5.24811e-09
-2.52332e-08
9.37383e-10
-1.87533e-08
1.64635e-09
-2.52346e-08
-7.21249e-09
-2.46451e-08
2.0248e-08
-4.01934e-08
8.39584e-10
-5.66161e-08
1.90959e-08
-8.53576e-08
9.01523e-09
3.57903e-08
5.02834e-08
1.03287e-08
5.52906e-09
-5.07984e-09
1.91937e-08
-4.01325e-08
-3.13061e-09
-1.05754e-07
5.09252e-08
2.72019e-07
1.19284e-07
-1.4584e-07
-9.47692e-08
-1.00204e-07
1.41613e-09
-7.40675e-08
-9.16913e-09
-6.94309e-08
3.70466e-08
-6.60164e-08
2.24112e-08
-5.74727e-08
1.34213e-08
-5.64589e-08
1.53422e-08
-4.92305e-08
9.23471e-09
-4.24482e-08
7.61289e-09
-3.90044e-08
3.35602e-09
-3.18376e-08
1.00244e-08
-2.72839e-08
2.6519e-09
-2.16296e-08
2.20383e-09
-2.20733e-08
-2.87568e-09
-2.41373e-08
-3.94266e-09
-2.82163e-08
4.8894e-10
-3.49436e-08
4.36128e-09
-4.24902e-08
7.30142e-09
-4.99736e-08
6.34354e-09
-5.59046e-08
4.69201e-10
-5.86262e-08
-5.38148e-09
-5.97319e-08
-8.54304e-09
-6.04665e-08
-8.81721e-09
-6.06517e-08
-8.77497e-09
-5.86073e-08
-1.13946e-08
-5.27631e-08
-1.79691e-08
-4.45193e-08
-2.48029e-08
-3.68994e-08
-2.84625e-08
-3.09531e-08
-2.91876e-08
-2.77556e-08
-2.44876e-08
-2.86108e-08
-1.12252e-08
-3.30735e-08
1.02358e-08
-3.78297e-08
2.82021e-08
-3.97132e-08
3.54e-08
-3.83112e-08
3.53195e-08
-3.39497e-08
2.61527e-08
-3.05003e-08
1.93265e-08
-2.7416e-08
1.28239e-08
1.48552e-09
-1.73194e-08
6.46591e-10
-3.70924e-09
2.87651e-09
6.93801e-11
1.20982e-08
1.36702e-08
-4.25974e-09
1.02773e-08
-3.76278e-09
1.63501e-08
-1.99523e-08
1.07833e-08
-5.44172e-09
1.41969e-08
-4.35084e-09
-7.4775e-10
2.80352e-09
5.98745e-08
-3.91709e-08
-7.90661e-08
-3.81084e-08
7.46475e-08
7.10457e-08
1.84064e-08
5.06229e-08
1.31576e-08
3.02543e-08
9.88922e-09
2.38478e-08
-3.11482e-08
1.38131e-08
-6.91928e-08
2.16421e-08
-1.55588e-07
3.60362e-08
2.37247e-07
1.15592e-07
-1.72178e-07
-7.30808e-08
-1.56058e-07
4.79591e-09
-8.94402e-08
-3.8293e-08
-6.80512e-08
-2.65836e-08
-6.64878e-08
-6.26145e-10
-7.4702e-08
9.97914e-09
-7.09176e-08
-1.02735e-08
-6.54022e-08
1.47326e-08
-6.91217e-08
3.88322e-09
-4.9275e-08
-7.50796e-10
-4.93281e-08
9.16174e-09
-2.3741e-08
2.4454e-08
-4.88627e-08
3.06507e-08
-4.08889e-08
1.16e-08
-6.25203e-08
1.89453e-08
-4.54692e-08
3.35354e-08
3.40993e-08
3.79944e-08
-7.24531e-08
1.19059e-08
-8.14672e-08
1.11548e-08
-8.1692e-08
-8.11095e-09
-6.62875e-08
2.23113e-08
-4.64232e-08
2.32285e-09
-3.94826e-08
6.48061e-09
-3.47278e-08
1.05874e-08
-3.18964e-08
6.40319e-09
-3.01812e-08
5.89772e-09
-3.05455e-08
3.72023e-09
-2.55304e-08
5.0093e-09
-2.42014e-08
1.32285e-09
-2.20236e-08
2.59879e-11
-2.30954e-08
-1.80393e-09
-2.58258e-08
-1.21224e-09
-2.88685e-08
3.53162e-09
-3.41092e-08
9.6019e-09
-4.0867e-08
1.40592e-08
-4.89519e-08
1.44284e-08
-5.77344e-08
9.25165e-09
-6.50273e-08
1.9114e-09
-6.98712e-08
-3.69915e-09
-7.27247e-08
-5.9638e-09
-7.36851e-08
-7.81459e-09
-7.1488e-08
-1.35917e-08
-6.55356e-08
-2.39215e-08
-6.0189e-08
-3.01496e-08
-5.69715e-08
-3.16801e-08
-5.63595e-08
-2.97996e-08
-5.97785e-08
-2.10686e-08
-6.48933e-08
-6.11044e-09
-6.58563e-08
1.11987e-08
-6.16446e-08
2.39904e-08
-5.48568e-08
2.86121e-08
-4.52851e-08
2.57478e-08
-3.77338e-08
1.86014e-08
-3.32543e-08
1.48467e-08
-2.97644e-08
9.33381e-09
-1.60322e-10
-2.53458e-08
-9.85158e-10
-1.86633e-08
-4.03478e-09
-9.41636e-09
2.94481e-09
1.08994e-08
-2.46866e-08
1.23434e-08
-5.20666e-09
2.9e-08
-3.64829e-08
1.93665e-08
3.9387e-09
2.66725e-08
-1.16569e-08
5.53578e-10
2.91715e-08
-2.31126e-09
-3.59023e-08
3.3915e-08
-7.5077e-08
-1.95166e-08
1.24278e-07
-3.40536e-08
6.51599e-08
-4.47722e-08
4.13203e-08
-4.41774e-08
2.23515e-08
-6.08965e-08
3.11664e-08
-5.03241e-08
1.20811e-08
-5.3808e-08
3.8639e-08
4.15948e-08
1.90098e-08
1.51751e-08
-4.66611e-08
-1.1754e-07
-6.0633e-08
5.97018e-08
-1.75924e-08
-1.2552e-08
4.62791e-08
-2.16754e-08
8.27614e-09
-4.50375e-08
3.33411e-08
-9.71574e-08
4.27419e-08
-6.57118e-08
-1.65628e-08
-4.9921e-08
-1.19077e-08
-5.72815e-08
6.02532e-09
-7.11968e-08
2.30769e-08
-6.08855e-08
1.48691e-08
-5.72723e-08
2.7309e-08
-2.35394e-08
-2.18952e-08
-3.0328e-08
2.58023e-08
-9.24964e-09
1.25827e-08
2.86234e-08
3.16984e-10
-2.04963e-09
4.2315e-08
-1.30253e-08
2.21514e-08
-6.03759e-08
3.92395e-08
-3.13926e-08
-6.06224e-09
-1.64559e-08
-1.23e-08
-1.54581e-08
5.48275e-09
-1.33045e-08
8.43374e-09
-1.26526e-08
5.75128e-09
-1.11035e-08
4.34853e-09
-1.05396e-08
3.15629e-09
-8.0024e-09
2.47207e-09
-8.09376e-09
1.41417e-09
-8.56706e-09
4.99262e-10
-1.12859e-08
9.14848e-10
-1.57841e-08
3.28593e-09
-2.04516e-08
8.19914e-09
-2.53556e-08
1.45058e-08
-3.14137e-08
2.01173e-08
-3.89229e-08
2.19377e-08
-4.82696e-08
1.85983e-08
-5.84878e-08
1.21296e-08
-6.73076e-08
5.12068e-09
-7.25485e-08
-7.22964e-10
-7.34731e-08
-6.89003e-09
-6.99141e-08
-1.71507e-08
-6.48894e-08
-2.89463e-08
-6.20096e-08
-3.30293e-08
-6.01809e-08
-3.35088e-08
-6.13019e-08
-2.86787e-08
-6.57003e-08
-1.66702e-08
-6.94058e-08
-2.40505e-09
-6.75924e-08
9.38527e-09
-6.06846e-08
1.70825e-08
-5.16918e-08
1.96193e-08
-4.30885e-08
1.71444e-08
-3.76007e-08
1.31135e-08
-3.36351e-08
1.08808e-08
-3.09726e-08
6.67104e-09
-7.14021e-10
-2.6272e-09
-2.80881e-09
-7.88438e-09
1.30327e-09
-1.33812e-08
8.44192e-09
-3.63275e-08
-1.89607e-09
8.7267e-09
-5.03139e-08
4.36795e-08
-7.14357e-08
5.9835e-09
4.20638e-08
-1.48109e-08
9.11153e-09
-3.55399e-08
5.04149e-08
-1.26414e-07
5.40481e-08
2.55758e-07
1.473e-07
-1.42196e-07
-8.02609e-08
-8.44187e-08
6.71739e-09
-6.54676e-08
2.23692e-08
-6.78097e-08
2.46937e-08
-6.37603e-08
2.6481e-08
-5.87212e-08
7.1652e-09
-3.60575e-08
1.59752e-08
-1.55562e-08
-1.47647e-09
-3.41797e-08
-2.7689e-08
-6.72812e-08
-2.75315e-08
4.76396e-08
-1.34754e-07
-1.41493e-08
1.08068e-07
-3.05011e-08
2.46279e-08
1.60581e-08
-1.32591e-08
-1.23056e-07
-2.01665e-08
3.34205e-08
2.81775e-08
-3.64701e-08
5.79829e-08
-4.78199e-08
1.7375e-08
-5.73188e-08
3.23404e-08
-5.29675e-08
1.05178e-08
-4.0153e-08
1.46438e-08
-6.95715e-08
7.29981e-09
-3.44447e-08
-9.1546e-09
-5.42114e-08
3.24777e-08
-2.67634e-08
-2.68548e-08
-2.13698e-08
3.64941e-08
3.31961e-08
-3.23031e-08
-1.06127e-07
-2.03164e-08
4.45054e-08
4.03903e-08
-3.05465e-11
3.22358e-08
-6.10287e-09
1.1555e-08
-4.14496e-09
6.47578e-09
-3.34488e-09
4.95115e-09
-2.76878e-09
3.77238e-09
-2.47984e-09
2.86731e-09
-2.53912e-09
2.53132e-09
-3.4093e-09
2.28431e-09
-5.01031e-09
2.10024e-09
-7.77636e-09
3.68088e-09
-1.17504e-08
7.25994e-09
-1.57902e-08
1.22389e-08
-1.949e-08
1.82056e-08
-2.27628e-08
2.33901e-08
-2.62377e-08
2.54125e-08
-3.16648e-08
2.40254e-08
-3.86705e-08
1.91352e-08
-4.61025e-08
1.25527e-08
-5.23252e-08
5.49967e-09
-5.51228e-08
-4.09243e-09
-5.39157e-08
-1.83578e-08
-5.23225e-08
-3.05395e-08
-5.17289e-08
-3.3623e-08
-5.25118e-08
-3.2726e-08
-5.59403e-08
-2.52502e-08
-6.00889e-08
-1.25217e-08
-6.15263e-08
-9.6774e-10
-5.87095e-08
6.56843e-09
-5.24681e-08
1.08411e-08
-4.54168e-08
1.25681e-08
-4.00741e-08
1.18017e-08
-3.64764e-08
9.51566e-09
-3.35671e-08
7.97113e-09
-3.18203e-08
4.92394e-09
-7.55691e-10
-3.7013e-08
-2.68049e-10
-3.55445e-08
-1.64786e-10
-9.81989e-09
-1.72964e-08
-1.69951e-07
-4.42438e-08
-2.94662e-08
1.10095e-08
2.1863e-10
-1.04311e-07
-7.16363e-08
1.1318e-07
-1.30737e-07
6.76029e-08
-9.47975e-08
1.56616e-08
-1.09272e-07
7.06046e-08
-8.16363e-09
4.4704e-08
-8.41961e-08
-4.26827e-09
-8.23289e-08
4.85015e-09
-6.49599e-08
5.0002e-09
-5.97707e-08
1.93074e-08
-4.96163e-08
1.63265e-08
-5.55851e-08
1.31339e-08
-4.49007e-08
5.74884e-09
-5.07262e-08
4.34898e-09
-8.17689e-08
2.86537e-09
-1.366e-07
2.56249e-08
2.38793e-07
9.59214e-08
-1.3206e-07
-1.234e-07
-7.20992e-08
-3.42483e-08
-5.44689e-08
-3.08895e-08
-8.58122e-08
1.08268e-08
-4.41723e-08
-1.33266e-08
-2.60536e-08
3.98642e-08
-3.68643e-08
2.81856e-08
-3.8913e-08
3.43889e-08
-5.2625e-08
2.36928e-08
-6.31766e-08
2.51953e-08
-7.48833e-08
1.88871e-08
-9.42443e-08
1.03126e-08
-8.71719e-08
2.63666e-08
-1.04081e-07
-9.94557e-09
-7.175e-08
5.26712e-09
-8.2977e-08
-2.12911e-08
-1.04738e-07
1.66684e-09
-5.94094e-08
-3.89155e-09
-3.72853e-08
1.01117e-08
-3.63465e-08
1.06162e-08
-3.40549e-08
4.18413e-09
-3.04226e-08
1.31875e-09
-2.77744e-08
1.12414e-09
-2.65669e-08
1.65976e-09
-2.55328e-08
1.49726e-09
-2.41239e-08
8.75371e-10
-2.32673e-08
1.24355e-09
-2.30879e-08
3.50151e-09
-2.29985e-08
7.17045e-09
-2.33121e-08
1.25525e-08
-2.33246e-08
1.82181e-08
-2.27914e-08
2.28569e-08
-2.22733e-08
2.48944e-08
-2.2228e-08
2.39801e-08
-2.35044e-08
2.04116e-08
-2.64139e-08
1.54621e-08
-3.03473e-08
9.43306e-09
-3.4347e-08
-9.28265e-11
-3.78099e-08
-1.48949e-08
-4.06405e-08
-2.7709e-08
-4.30273e-08
-3.12362e-08
-4.60784e-08
-2.9675e-08
-4.99431e-08
-2.13855e-08
-5.28937e-08
-9.57122e-09
-5.28492e-08
-1.0123e-09
-4.99523e-08
3.67149e-09
-4.58935e-08
6.78228e-09
-4.19248e-08
8.59929e-09
-3.84954e-08
8.37219e-09
-3.5946e-08
6.96607e-09
-3.38446e-08
5.86945e-09
-3.25879e-08
3.66699e-09
-6.74675e-10
-6.25411e-08
1.03629e-08
-7.89515e-08
1.62461e-08
-1.20065e-07
2.25923e-08
-2.03503e-07
3.79439e-08
-2.28347e-07
3.08904e-08
1.3013e-07
1.5844e-07
-2.59258e-07
-1.02454e-07
-2.16273e-07
2.58709e-08
-1.74442e-07
-2.63283e-08
-1.2043e-07
1.46643e-08
-8.09864e-08
6.54226e-09
-8.06415e-08
-4.61326e-09
-7.42548e-08
-2.3354e-09
-5.80254e-08
-1.06372e-08
-5.28172e-08
1.40992e-08
-5.13474e-08
1.43179e-08
-6.2072e-08
2.38585e-08
-5.77298e-08
1.40655e-09
-6.26204e-08
8.64513e-09
-7.10346e-08
1.12794e-08
-5.35303e-08
8.84526e-09
1.21517e-08
2.92607e-08
-5.01449e-08
-6.05919e-08
-7.11232e-08
-1.32701e-08
-4.923e-08
-5.38234e-08
-1.61044e-08
-2.21345e-08
-4.1185e-08
1.17539e-08
-4.1153e-08
3.9014e-08
-4.00015e-08
2.70341e-08
-3.52977e-08
2.93853e-08
-4.84326e-08
3.64558e-08
-5.06032e-08
2.71089e-08
-6.27154e-08
3.03594e-08
-8.65156e-08
3.40064e-08
-5.67962e-08
-2.47023e-09
-1.1242e-07
4.52174e-08
-7.79901e-08
-2.99589e-08
-1.16337e-07
1.68362e-08
-1.25348e-07
1.32789e-08
-1.03738e-07
-2.42488e-08
-7.20104e-08
-2.16155e-08
-7.18077e-08
1.04134e-08
-6.68845e-08
-7.39085e-10
-6.26106e-08
-2.95523e-09
-5.9536e-08
-1.95048e-09
-5.76853e-08
-1.91016e-10
-5.61319e-08
-5.61128e-11
-5.4679e-08
-5.7756e-10
-5.35977e-08
1.62194e-10
-5.22122e-08
2.11596e-09
-4.93951e-08
4.35334e-09
-4.4608e-08
7.76527e-09
-3.82599e-08
1.187e-08
-3.11789e-08
1.57758e-08
-2.5292e-08
1.90075e-08
-2.07402e-08
1.94282e-08
-1.77608e-08
1.74322e-08
-1.69962e-08
1.46975e-08
-1.87031e-08
1.11399e-08
-2.26036e-08
3.80769e-09
-2.87997e-08
-8.6988e-09
-3.48753e-08
-2.16335e-08
-3.92235e-08
-2.68881e-08
-4.26057e-08
-2.62928e-08
-4.53492e-08
-1.8642e-08
-4.70649e-08
-7.85559e-09
-4.65282e-08
-1.549e-09
-4.45563e-08
1.69946e-09
-4.21559e-08
4.3819e-09
-3.9781e-08
6.2243e-09
-3.75012e-08
6.09234e-09
-3.56438e-08
5.10858e-09
-3.41069e-08
4.33219e-09
-3.31741e-08
2.7339e-09
-5.61995e-10
-1.12426e-07
1.82138e-09
-1.29088e-07
3.29087e-08
-1.48302e-07
4.02943e-08
-1.55232e-07
4.44828e-08
-1.69399e-07
4.68031e-08
-5.61938e-08
4.03854e-08
-1.56369e-07
-6.83148e-10
-1.05528e-07
-2.47205e-08
-1.19324e-07
-1.26599e-08
-9.37921e-08
-1.07594e-08
-7.8174e-08
-1.00327e-08
-8.19368e-08
-6.09405e-11
-6.39477e-08
-2.03246e-08
-4.563e-08
-2.96074e-08
-4.80324e-08
1.64773e-08
-3.93993e-08
5.68465e-09
-6.64886e-08
5.09478e-08
-1.22808e-07
5.83205e-08
-7.69461e-08
-3.72164e-08
-7.77617e-08
1.198e-08
-5.12181e-08
-1.76984e-08
-5.58842e-08
3.39268e-08
-1.04609e-07
-1.1989e-08
-7.67227e-08
-4.08752e-08
-6.10459e-08
-6.95003e-08
3.17688e-08
-1.14949e-07
-6.22486e-08
1.0545e-07
-4.72993e-08
2.40646e-08
-3.84485e-08
1.8093e-08
-1.97128e-08
1.08487e-08
-7.82849e-09
2.43724e-08
-1.15645e-08
3.0765e-08
-1.10615e-08
2.95547e-08
-1.428e-08
3.68779e-08
-2.63594e-08
9.77831e-09
-1.73855e-08
3.62434e-08
-4.40986e-08
-3.4232e-09
-3.99931e-08
1.21509e-08
-4.65771e-08
2.03429e-08
-5.53615e-08
-1.46798e-08
-5.20562e-08
-2.51726e-08
-4.61697e-08
4.52689e-09
-3.85804e-08
-8.32839e-09
-3.76354e-08
-3.90028e-09
-3.88538e-08
-7.32079e-10
-3.95552e-08
5.10288e-10
-4.11458e-08
1.53454e-09
-4.35823e-08
1.8589e-09
-4.68464e-08
3.42622e-09
-4.9903e-08
5.17254e-09
-5.15058e-08
5.95608e-09
-5.02403e-08
6.49979e-09
-4.58437e-08
7.47343e-09
-3.84508e-08
8.38289e-09
-2.90219e-08
9.57847e-09
-1.96446e-08
1.00509e-08
-1.27259e-08
1.05135e-08
-9.26781e-09
1.12394e-08
-9.22634e-09
1.10984e-08
-1.30053e-08
7.58657e-09
-2.04179e-08
-1.2862e-09
-2.87104e-08
-1.3341e-08
-3.38502e-08
-2.17483e-08
-3.72484e-08
-2.28946e-08
-4.03501e-08
-1.55404e-08
-4.23281e-08
-5.87761e-09
-4.26265e-08
-1.25064e-09
-4.18511e-08
9.24012e-10
-4.03329e-08
2.86365e-09
-3.86081e-08
4.49945e-09
-3.69302e-08
4.4144e-09
-3.55072e-08
3.68545e-09
-3.43355e-08
3.16022e-09
-3.36155e-08
2.01362e-09
-4.50892e-10
-9.52253e-08
-8.48829e-08
-1.78528e-07
1.15241e-07
-1.55306e-07
1.69003e-08
-1.36439e-07
2.37697e-08
-1.09949e-07
2.01064e-08
-6.52942e-08
-3.14801e-09
-8.63356e-08
2.14579e-08
-7.56385e-08
-3.56672e-08
-8.20377e-08
-6.13289e-09
-7.00957e-08
-2.28102e-08
-5.42835e-08
-2.60062e-08
-5.5442e-08
1.0975e-09
-5.8874e-08
-1.76655e-08
-7.20397e-08
-1.57069e-08
-3.68765e-08
-1.84991e-08
-3.29977e-08
1.42966e-09
2.03057e-08
-2.12685e-09
-1.43655e-07
2.02582e-08
-6.11152e-08
8.16712e-08
-7.37543e-08
2.43704e-08
-6.74891e-08
-2.42107e-08
-2.30325e-08
-1.07648e-08
-1.90078e-07
-4.5476e-08
-4.91417e-08
1.80505e-08
-1.40826e-07
2.16824e-08
2.55324e-07
8.61811e-08
-1.4342e-07
-8.96324e-08
-7.48107e-08
-4.53003e-08
-5.0568e-08
-6.14976e-09
-4.81278e-08
8.51903e-09
-3.59696e-08
1.24628e-08
-2.88954e-08
2.37433e-08
-9.84243e-09
1.05017e-08
-6.58705e-10
2.76005e-08
-1.27004e-09
1.02857e-08
7.7016e-09
2.76285e-08
-8.0075e-09
1.21618e-08
-2.78912e-09
6.93244e-09
-1.17828e-08
2.9129e-08
-2.54085e-08
-1.20395e-09
-8.2269e-08
3.2603e-08
-4.69318e-08
-2.99878e-08
-3.68056e-08
-1.84547e-08
-3.98545e-08
-8.51419e-10
-4.25582e-08
1.97158e-09
-4.34155e-08
1.36761e-09
-4.46198e-08
2.73876e-09
-4.63706e-08
3.60965e-09
-4.83316e-08
5.38722e-09
-4.94634e-08
6.30431e-09
-4.93738e-08
5.86646e-09
-4.70785e-08
4.20441e-09
-4.19982e-08
2.39313e-09
-3.40145e-08
3.99166e-10
-2.35017e-08
-9.34313e-10
-1.21847e-08
-1.26613e-09
-2.53098e-09
8.59718e-10
3.86054e-09
4.84783e-09
6.17792e-09
8.78101e-09
5.09947e-09
8.66499e-09
-2.46421e-10
4.05966e-09
-9.31402e-09
-4.27339e-09
-1.87065e-08
-1.23559e-08
-2.73851e-08
-1.4216e-08
-3.41872e-08
-8.73835e-09
-3.77299e-08
-2.33491e-09
-3.92649e-08
2.84315e-10
-3.96414e-08
1.30044e-09
-3.89869e-08
2.20906e-09
-3.76947e-08
3.20722e-09
-3.64202e-08
3.13987e-09
-3.53665e-08
2.63157e-09
-3.4478e-08
2.27143e-09
-3.39344e-08
1.4698e-09
-3.44965e-10
1.2221e-07
8.81908e-08
-2.74446e-07
-8.6435e-08
-2.24002e-07
-3.38849e-08
-1.55845e-07
-4.50825e-08
-9.90753e-08
-3.72426e-08
-1.1447e-07
1.01716e-08
-8.97046e-08
-3.30714e-09
-1.02745e-07
-2.10276e-08
-9.88213e-08
-1.00563e-08
-9.07975e-08
-3.20749e-08
-1.01144e-07
-1.56601e-08
-6.87301e-08
-3.13049e-08
-5.99876e-08
-2.6408e-08
-5.31e-08
-2.18301e-08
-3.20093e-08
-3.97767e-08
-2.64847e-08
-4.1513e-09
-1.03576e-09
-2.73002e-08
-7.30695e-09
2.63122e-08
-1.16923e-07
-7.4812e-09
4.4473e-08
6.13654e-08
-3.11777e-08
5.18984e-08
-4.45054e-08
2.42688e-09
-1.01679e-07
1.21658e-08
-7.06869e-08
-1.17198e-08
-6.33057e-08
1.43013e-08
1.16884e-08
1.13022e-08
-4.47574e-08
-3.36444e-08
-5.20449e-08
-3.80129e-08
-5.42979e-08
-4.38298e-09
-5.40652e-08
8.28625e-09
-3.98939e-08
-1.28844e-09
-3.28862e-08
1.67356e-08
-2.19006e-08
-7.19723e-10
-6.09552e-09
1.18576e-08
9.03163e-10
3.35696e-09
1.36675e-08
1.4585e-08
1.43727e-08
1.15734e-08
1.63871e-08
5.06471e-09
2.25038e-08
2.30122e-08
4.85204e-08
-2.70011e-08
-1.11877e-07
-7.78836e-09
2.02084e-08
3.61265e-08
-3.43198e-08
3.60735e-08
-4.75619e-08
1.23907e-08
-5.19674e-08
6.37702e-09
-5.44835e-08
3.88371e-09
-5.55482e-08
3.80342e-09
-5.60558e-08
4.11721e-09
-5.58086e-08
5.13994e-09
-5.42692e-08
4.76486e-09
-5.16283e-08
3.22557e-09
-4.65842e-08
-8.39661e-10
-3.85279e-08
-5.66326e-09
-2.78313e-08
-1.02975e-08
-1.66569e-08
-1.21087e-08
-6.03427e-09
-1.18888e-08
3.01396e-09
-8.18854e-09
9.56999e-09
-1.70823e-09
1.29441e-08
5.40687e-09
1.2917e-08
8.69208e-09
9.38313e-09
7.59349e-09
1.67466e-09
3.43505e-09
-1.03061e-08
-3.75122e-10
-2.36068e-08
-9.15329e-10
-3.30954e-08
7.50179e-10
-3.72376e-08
1.80729e-09
-3.87284e-08
1.77506e-09
-3.90517e-08
1.62364e-09
-3.85546e-08
1.71192e-09
-3.72901e-08
1.94266e-09
-3.61145e-08
1.9643e-09
-3.52901e-08
1.807e-09
-3.45942e-08
1.57519e-09
-3.41725e-08
1.04789e-09
-2.52592e-10
3.83697e-08
-3.74909e-09
-1.59422e-08
-3.19593e-08
-1.94908e-07
-5.7291e-08
-4.81876e-08
9.65594e-09
-7.85273e-08
-8.01349e-09
-7.7154e-08
9.50962e-09
-5.43173e-08
-2.50673e-08
-5.35861e-08
-2.19831e-08
-4.42757e-08
-1.94693e-08
-5.36015e-08
-2.29836e-08
-5.03556e-08
-1.8906e-08
-3.80952e-08
-4.35653e-08
-2.08944e-08
-4.3843e-08
-3.69141e-08
-5.86976e-09
-8.77778e-08
1.04108e-08
-3.29474e-08
-5.86457e-08
5.32449e-08
-1.13768e-07
-3.01269e-08
1.09114e-07
-8.08639e-08
4.32558e-08
-2.78953e-08
9.0228e-09
-2.43221e-08
4.77957e-08
-2.25166e-08
6.2132e-10
-4.07469e-08
3.0272e-08
-4.71917e-08
-5.27508e-09
-3.67035e-08
3.43863e-09
-2.11588e-08
-4.24262e-09
-4.42109e-08
-1.03764e-08
-5.38561e-08
-2.82061e-08
-4.42553e-08
-1.39839e-08
-3.26018e-08
-3.48617e-09
-3.46804e-08
7.90163e-10
-2.91745e-08
1.06404e-08
-3.6696e-08
6.80165e-09
-3.32052e-08
9.07982e-09
-2.59286e-08
-3.62387e-09
-2.27518e-08
1.09166e-08
-2.44135e-08
1.29859e-08
-3.18553e-08
1.27556e-08
-2.90155e-08
1.98764e-08
-7.18526e-08
1.65766e-08
-1.04377e-07
2.6328e-08
-7.71943e-08
8.94424e-09
-6.54773e-08
2.43565e-08
-6.83622e-08
1.52755e-08
-6.94925e-08
7.50723e-09
-7.02237e-08
4.61485e-09
-6.86591e-08
2.23886e-09
-6.67943e-08
2.25237e-09
-6.40541e-08
2.39971e-09
-5.97197e-08
4.30453e-10
-5.30478e-08
-3.44637e-09
-4.44247e-08
-9.46286e-09
-3.42952e-08
-1.57928e-08
-2.35893e-08
-2.10033e-08
-1.28897e-08
-2.28084e-08
-3.30045e-09
-2.14781e-08
4.30556e-09
-1.57946e-08
9.08425e-09
-6.48695e-09
1.07956e-08
3.69551e-09
8.46129e-09
1.10264e-08
2.92922e-09
1.31255e-08
-5.94179e-09
1.2306e-08
-1.76299e-08
1.13129e-08
-2.82082e-08
9.66302e-09
-3.43206e-08
6.86247e-09
-3.69947e-08
4.48143e-09
-3.80177e-08
2.79798e-09
-3.81891e-08
1.79504e-09
-3.77033e-08
1.226e-09
-3.6731e-08
9.70383e-10
-3.58553e-08
1.08849e-09
-3.52067e-08
1.15824e-09
-3.46621e-08
1.03036e-09
-3.434e-08
7.25422e-10
-1.71108e-10
1.13069e-07
-1.14048e-09
1.10291e-07
-2.80393e-08
7.2171e-08
-1.72844e-08
9.85078e-08
-1.76857e-08
1.01639e-07
-1.20903e-08
1.16472e-07
-5.62607e-09
1.07324e-07
-1.37982e-08
9.67353e-08
-1.03957e-08
7.66503e-08
4.1078e-10
6.0899e-08
-7.23244e-09
3.77175e-08
3.6173e-09
4.37784e-09
-1.0181e-08
1.428e-08
-5.41562e-08
1.51932e-07
-1.43644e-07
-1.12629e-07
7.13833e-08
-1.20292e-07
1.50128e-07
2.24353e-07
1.38022e-07
-1.58723e-07
-1.01636e-07
-1.08368e-07
-8.71886e-09
-8.41132e-08
-1.52321e-08
-5.97624e-08
2.34449e-08
-5.28002e-08
-6.34094e-09
-4.46852e-08
2.21569e-08
-2.91025e-08
-2.08578e-08
-1.88877e-08
-6.77622e-09
-2.05499e-08
-2.53723e-09
-9.60049e-09
-2.11104e-08
-1.3801e-08
-2.4253e-08
-3.14354e-08
3.50777e-09
-3.62453e-08
1.32374e-09
-2.62107e-08
-8.96903e-09
-8.35956e-09
-7.21076e-09
3.77865e-09
-5.43582e-09
9.71475e-09
3.11193e-09
2.21866e-08
-1.61327e-08
2.05912e-08
1.24133e-08
1.36694e-08
1.99783e-08
-3.12293e-09
2.96873e-08
-1.70444e-08
3.41462e-08
-5.94898e-08
5.88593e-08
-6.14999e-08
2.89328e-08
-8.26826e-08
3.01268e-08
-7.8759e-08
2.04329e-08
-7.6864e-08
1.33805e-08
-7.55278e-08
6.17102e-09
-7.39241e-08
3.01111e-09
-7.07764e-08
-9.08872e-10
-6.64565e-08
-2.06754e-09
-6.0981e-08
-3.0758e-09
-5.46511e-08
-5.89946e-09
-4.63268e-08
-1.17708e-08
-3.92907e-08
-1.6499e-08
-3.32174e-08
-2.18661e-08
-2.80024e-08
-2.62184e-08
-2.23389e-08
-2.84719e-08
-1.65199e-08
-2.72971e-08
-1.05786e-08
-2.17359e-08
-6.03021e-09
-1.10353e-08
-4.54407e-09
2.20933e-09
-8.54286e-09
1.50251e-08
-1.60205e-08
2.06032e-08
-2.5164e-08
2.14495e-08
-3.31885e-08
1.93374e-08
-3.71172e-08
1.35916e-08
-3.75769e-08
7.32217e-09
-3.74315e-08
4.33605e-09
-3.7545e-08
2.91143e-09
-3.75012e-08
1.75116e-09
-3.70372e-08
7.61928e-10
-3.63426e-08
2.75817e-10
-3.5696e-08
4.41755e-10
-3.51543e-08
6.16423e-10
-3.47267e-08
6.02428e-10
-3.44674e-08
4.65882e-10
-1.08986e-10
8.55382e-09
-8.7798e-09
-1.34541e-08
-6.1798e-09
-2.10845e-08
-9.65378e-09
-3.03074e-08
-8.67783e-09
-3.14091e-08
-1.14323e-08
-4.30573e-08
5.52039e-09
-5.58896e-08
-1.24041e-09
-6.45624e-08
-1.03967e-09
-5.15059e-08
-1.19871e-08
-5.75787e-08
-4.93377e-10
-4.32937e-08
-1.06677e-08
-7.35191e-08
1.90469e-08
-1.40758e-07
1.21898e-08
2.46804e-07
7.77935e-08
-5.38621e-08
-2.33463e-07
-1.91938e-07
8.82421e-08
3.92448e-08
1.068e-07
-7.38157e-08
1.03876e-08
-8.3412e-08
8.77401e-10
-8.3467e-08
-1.53336e-08
-7.45942e-08
1.4572e-08
-1.1312e-07
3.21847e-08
-5.85123e-08
-3.2123e-08
-3.71682e-08
-4.22019e-08
-2.3257e-08
-2.06875e-08
-2.81285e-09
-2.29527e-08
-7.28053e-09
-1.67163e-08
-3.04784e-09
-2.85608e-08
-2.94164e-08
2.99074e-08
-4.85051e-08
2.04125e-08
-6.03192e-08
2.84499e-09
-5.41199e-08
-1.29315e-08
-3.11641e-08
-2.8077e-08
-3.60057e-08
7.71668e-09
-5.98247e-08
7.39439e-09
-3.57851e-08
-1.19914e-08
-4.32392e-08
2.76382e-08
-3.80994e-08
2.45999e-08
-3.25969e-08
2.89796e-08
-3.18649e-08
5.81906e-08
-3.26047e-08
2.96726e-08
-1.95288e-08
1.70509e-08
-1.28105e-08
1.37145e-08
-1.11981e-08
1.17681e-08
-1.37226e-08
8.69549e-09
-1.73711e-08
6.65951e-09
-2.22423e-08
3.96236e-09
-2.5708e-08
1.39812e-09
-2.77402e-08
-1.04367e-09
-2.86409e-08
-4.99875e-09
-2.96974e-08
-1.07144e-08
-3.24659e-08
-1.37305e-08
-3.65733e-08
-1.77587e-08
-4.05772e-08
-2.22146e-08
-4.27158e-08
-2.63333e-08
-4.3301e-08
-2.6712e-08
-4.22101e-08
-2.28268e-08
-3.95153e-08
-1.37302e-08
-3.75741e-08
2.68126e-10
-3.79771e-08
1.54281e-08
-3.94471e-08
2.20731e-08
-4.12903e-08
2.32927e-08
-4.18745e-08
1.99216e-08
-4.03756e-08
1.20927e-08
-3.86972e-08
5.64372e-09
-3.76453e-08
3.28405e-09
-3.71048e-08
2.37094e-09
-3.67988e-08
1.44513e-09
-3.63833e-08
3.46381e-10
-3.58823e-08
-2.25279e-10
-3.54084e-08
-3.21646e-11
-3.50264e-08
2.34283e-10
-3.47249e-08
3.0065e-10
-3.45415e-08
2.82137e-10
-5.38686e-11
-4.9174e-08
-1.17237e-08
-5.53248e-08
-2.86015e-11
-6.24094e-08
-2.66737e-09
-6.97918e-08
-1.29535e-09
-7.3642e-08
-7.58212e-09
-6.97044e-08
1.5265e-09
-6.06115e-08
-1.02165e-08
-5.29757e-08
-8.66493e-09
-5.94727e-08
-4.83417e-09
-7.20016e-08
1.20355e-08
-8.33065e-08
-1.05613e-09
-7.21308e-08
7.79078e-09
-8.80091e-08
2.86795e-08
-5.9711e-08
4.80926e-08
3.21878e-07
-8.98429e-09
-2.14254e-07
2.12058e-08
-8.49914e-08
-2.24628e-08
-1.09562e-07
3.53187e-08
-8.12092e-08
-2.85958e-08
-6.84133e-08
-2.81295e-08
-1.21229e-08
-4.14433e-08
-1.45912e-07
-3.21713e-08
1.20644e-08
7.84298e-09
-3.66839e-08
6.66948e-09
-4.00155e-08
-1.7356e-08
-1.96502e-08
-4.33181e-08
-1.98287e-08
-1.67084e-08
4.89758e-08
-9.70739e-08
-3.89561e-08
1.17839e-07
-5.63996e-08
3.78559e-08
-6.18585e-08
8.3038e-09
-7.60355e-08
1.25828e-09
-8.96133e-08
-1.58617e-08
-7.16613e-08
-1.08944e-08
-2.23823e-07
-4.21621e-08
-7.60016e-08
4.24317e-08
-8.09547e-08
3.1983e-08
-9.16221e-08
3.49111e-08
-9.79823e-08
3.56798e-08
-5.24462e-08
1.3634e-08
-3.99388e-08
1.71652e-08
-2.75439e-08
4.65602e-09
-1.77196e-08
3.89015e-09
-1.18139e-08
5.86239e-09
-9.1201e-09
6.00166e-09
-8.72009e-09
6.25946e-09
-1.09e-08
6.14227e-09
-1.43624e-08
4.86044e-09
-1.88241e-08
3.418e-09
-2.3735e-08
-8.79096e-11
-3.04073e-08
-4.04208e-09
-3.73738e-08
-6.76393e-09
-4.38878e-08
-1.12448e-08
-4.88695e-08
-1.72329e-08
-5.25624e-08
-2.26405e-08
-5.64868e-08
-2.27876e-08
-6.07145e-08
-1.85991e-08
-6.3234e-08
-1.12108e-08
-6.20018e-08
-9.64044e-10
-5.81878e-08
1.16141e-08
-5.45534e-08
1.84387e-08
-5.06896e-08
1.94288e-08
-4.61837e-08
1.54156e-08
-4.23633e-08
8.27229e-09
-4.00468e-08
3.32718e-09
-3.84329e-08
1.67007e-09
-3.72944e-08
1.2324e-09
-3.64958e-08
6.46493e-10
-3.60003e-08
-1.49119e-10
-3.56518e-08
-5.73884e-10
-3.53136e-08
-3.70448e-10
-3.50192e-08
-6.02221e-11
-3.4783e-08
6.41381e-11
-3.46196e-08
1.18427e-10
-2.28871e-11
-6.46621e-08
3.05902e-08
-7.30823e-08
8.39198e-09
-7.49522e-08
-7.97248e-10
-7.16484e-08
-4.59908e-09
-6.90795e-08
-1.0151e-08
-5.94805e-08
-7.46571e-09
-4.72867e-08
-2.21862e-08
-3.39557e-08
-2.21319e-08
-2.19736e-08
-1.68163e-08
-1.16639e-08
1.62443e-09
-3.14036e-08
1.90039e-08
-4.17888e-08
1.79163e-08
-4.71674e-08
3.36317e-08
-6.40487e-08
6.43177e-08
3.91104e-07
1.35839e-07
-1.0252e-07
-8.50545e-08
-9.694e-08
-2.93313e-08
-3.78242e-08
-2.4187e-08
-4.33978e-08
-2.26324e-08
-6.85264e-08
-3.00098e-09
-8.07623e-08
-2.83749e-08
-1.06958e-07
-5.21286e-09
-8.71928e-08
-1.29332e-08
-9.4804e-08
1.44278e-08
-8.95491e-08
-2.26109e-08
3.78357e-08
-1.70703e-07
-1.01461e-07
1.21351e-07
2.58296e-07
1.43053e-07
-1.30773e-07
-9.2976e-08
-7.57103e-08
-1.72068e-08
-6.89341e-08
8.24392e-10
-7.64959e-08
8.03155e-09
-9.38812e-08
2.3361e-09
-9.66523e-08
-8.12331e-09
-1.45527e-07
7.22193e-09
-1.11574e-07
1.11014e-08
-8.24263e-08
3.66744e-09
-6.45166e-08
1.66523e-08
-4.75049e-08
1.83114e-08
-4.55888e-08
1.17178e-08
-3.38777e-08
5.45408e-09
-2.87184e-08
-5.03276e-10
-2.30197e-08
-1.80863e-09
-1.82369e-08
1.0796e-09
-1.60202e-08
3.78495e-09
-1.60074e-08
6.24654e-09
-1.74765e-08
7.61136e-09
-2.04475e-08
7.83144e-09
-2.46538e-08
7.62423e-09
-3.03502e-08
5.60851e-09
-3.69138e-08
2.52146e-09
-4.25699e-08
-1.1079e-09
-4.69812e-08
-6.83347e-09
-5.06162e-08
-1.35979e-08
-5.46107e-08
-1.8646e-08
-5.9631e-08
-1.77674e-08
-6.54858e-08