/*--------------------------------*- C++ -*----------------------------------*\
  =========                 |
  \\      /  F ield         | OpenFOAM: The Open Source CFD Toolbox
   \\    /   O peration     | Website:  https://openfoam.org
    \\  /    A nd           | Version:  12
     \\/     M anipulation  |
\*---------------------------------------------------------------------------*/
FoamFile
{
    format      ascii;
    class       surfaceScalarField;
    location    "0.75";
    object      phi.water_0;
}
// * * * * * * * * * * * * * * * * * * * * * * * * * * * * * * * * * * * * * //

dimensions      [0 3 -1 0 0 0 0];

internalField   nonuniform List<scalar> 
7375
(
1.41613e-07
1.24946e-08
1.52126e-07
-8.98107e-09
1.39696e-07
1.23532e-08
1.5171e-07
-1.3459e-08
1.43655e-07
7.98593e-09
1.34065e-07
9.48993e-09
1.11567e-07
2.25086e-08
9.48716e-08
1.66937e-08
9.57294e-08
1.08847e-09
9.31473e-08
2.58461e-09
1.21404e-07
-2.98565e-08
2.23354e-07
-1.05193e-07
1.22515e-07
1.01859e-07
1.03275e-07
1.92419e-08
1.01034e-07
2.22356e-09
1.05492e-07
-3.33802e-09
1.16576e-07
-1.09707e-08
1.23444e-07
-8.05353e-09
1.16868e-07
6.58177e-09
9.54475e-08
2.14263e-08
4.48375e-08
5.16092e-08
5.20544e-07
1.25018e-07
6.94254e-08
-1.50179e-07
1.1381e-07
-4.41299e-08
1.33103e-07
-1.79429e-08
1.2816e-07
4.89305e-09
1.22784e-07
5.37397e-09
1.20113e-07
3.87595e-09
9.0399e-08
2.90559e-08
-6.63969e-09
9.70385e-08
2.40239e-07
3.62829e-07
1.39801e-07
9.79801e-08
1.04071e-07
3.5363e-08
9.70156e-08
6.9848e-09
9.58171e-08
2.20822e-10
9.67044e-08
-8.7856e-10
1.09729e-07
-1.2155e-08
1.25501e-07
-1.4501e-08
1.1395e-07
1.16328e-08
1.0176e-07
1.10114e-08
6.04178e-08
4.19688e-08
4.63825e-08
1.40234e-08
3.77395e-08
8.16959e-09
2.29978e-08
1.47387e-08
8.49096e-09
1.43669e-08
-2.75103e-09
1.11364e-08
-2.42898e-08
2.13397e-08
-3.8573e-08
1.41304e-08
-4.51991e-08
7.01737e-09
-3.98916e-08
-4.85581e-09
-2.92774e-08
-1.06139e-08
-2.1022e-08
-8.25562e-09
-1.24039e-08
-8.61778e-09
-4.90795e-09
-7.49614e-09
2.60693e-09
-7.51458e-09
1.09065e-08
-8.29972e-09
1.8586e-08
-7.67926e-09
2.60404e-08
-7.45449e-09
3.24036e-08
-6.36294e-09
3.83618e-08
-5.95835e-09
4.41208e-08
-5.75864e-09
5.03755e-08
-6.25485e-09
5.77753e-08
-7.39945e-09
6.67913e-08
-9.01602e-09
7.69033e-08
-1.01117e-08
8.58774e-08
-8.97402e-09
9.05113e-08
-4.63354e-09
8.64441e-08
4.0671e-09
7.41722e-08
1.22722e-08
5.73522e-08
1.68197e-08
3.92653e-08
1.80869e-08
2.23692e-08
1.68962e-08
5.47865e-09
1.6891e-08
-8.36618e-09
1.38455e-08
4.60903e-09
1.58132e-07
-1.77025e-08
1.49554e-07
-1.91098e-09
1.69034e-07
-7.40157e-09
1.35612e-07
2.05127e-08
1.3535e-07
6.88113e-09
1.33545e-07
1.25352e-08
1.37186e-07
2.02293e-08
1.23839e-07
2.97375e-08
1.13243e-07
1.15662e-08
1.09055e-07
5.60657e-09
6.35306e-08
1.77723e-08
4.34003e-07
1.4685e-07
-1.99394e-09
-8.16316e-08
5.06539e-08
-3.39025e-08
7.5536e-08
-2.34212e-08
1.04886e-07
-3.29849e-08
1.0815e-07
-1.30643e-08
1.19229e-07
-1.80292e-08
1.18703e-07
7.10773e-09
1.32566e-07
8.91543e-09
1.56655e-07
2.78067e-08
2.43893e-07
3.77802e-08
1.24907e-07
-3.17804e-08
9.86064e-08
-2.05882e-08
9.73704e-08
-1.8499e-08
1.39062e-07
-3.58149e-08
1.14729e-07
2.99556e-08
1.1822e-07
1.59476e-09
1.11601e-07
3.77439e-08
1.81214e-07
2.91431e-08
-4.95129e-08
-1.81185e-08
4.49105e-08
3.60377e-09
4.03872e-08
3.94788e-08
6.87506e-08
-2.09707e-08
5.99163e-08
9.14555e-09
6.90778e-08
-9.35126e-09
7.81133e-08
-2.06916e-08
5.65306e-08
6.34972e-09
6.38493e-08
4.19571e-09
3.28323e-08
4.20285e-08
4.37871e-08
3.10142e-08
2.76148e-08
2.97492e-08
1.28842e-08
2.26691e-08
6.06343e-09
2.12806e-08
2.48023e-09
1.7746e-08
4.9667e-09
8.53858e-09
5.55428e-09
2.05389e-08
1.10516e-08
8.49182e-09
8.64643e-09
9.35256e-09
6.56965e-09
-2.77903e-09
1.80019e-09
-5.84429e-09
-3.16525e-09
-3.29018e-09
-9.64538e-09
-2.13753e-09
-1.71153e-08
-2.61876e-11
-2.36356e-08
-9.94179e-10
-2.65912e-08
-5.34415e-09
-2.62532e-08
-8.0171e-09
-2.41202e-08
-9.58749e-09
-2.09724e-08
-9.51057e-09
-1.79992e-08
-8.93158e-09
-1.44328e-08
-9.32487e-09
-8.58879e-09
-1.20988e-08
5.47339e-10
-1.65354e-08
1.23632e-08
-2.08318e-08
2.54851e-08
-2.32333e-08
3.7797e-08
-2.12858e-08
4.52489e-08
-1.20851e-08
4.35405e-08
5.77558e-09
3.2349e-08
2.34637e-08
1.56188e-08
3.35498e-08
-3.04605e-09
3.67517e-08
-1.66939e-08
3.05442e-08
-2.25877e-08
2.27854e-08
-2.46613e-08
1.59197e-08
3.66927e-09
3.57351e-08
-1.20149e-08
2.37855e-08
1.04127e-08
3.43592e-09
1.3018e-08
6.87174e-09
1.70055e-08
1.0566e-08
3.07886e-09
1.99545e-08
3.27286e-09
3.00524e-08
9.92696e-09
2.62257e-08
3.3299e-08
-6.11378e-10
3.90625e-08
4.79408e-08
-4.29006e-08
1.6465e-07
-1.00451e-07
1.63221e-07
1.42166e-07
7.73122e-08
6.77507e-09
6.76165e-08
-2.42069e-08
5.73408e-08
-1.33845e-08
5.46319e-08
-3.06125e-08
4.57991e-08
-4.40976e-09
4.25648e-08
-1.49474e-08
3.20905e-08
1.75821e-08
3.52583e-08
6.17022e-09
5.19316e-08
1.13822e-08
3.5321e-08
5.42196e-08
-6.52387e-09
1.00281e-08
-1.5656e-08
-1.10197e-08
-1.68948e-08
-1.74469e-08
-2.80217e-08
-2.52257e-08
-2.49407e-08
2.63515e-08
-3.10901e-08
7.76078e-09
-2.62088e-08
3.27948e-08
1.03489e-08
-7.71178e-09
-3.43672e-08
2.67826e-08
-4.81315e-08
1.75472e-08
-2.12396e-08
1.29898e-08
-3.83625e-08
-4.06161e-09
-1.30274e-08
-1.60259e-08
-3.49813e-08
1.21506e-08
-8.96594e-08
3.36224e-08
-7.72508e-08
-5.13461e-09
-5.12972e-08
-2.09697e-08
-4.86696e-08
3.90031e-08
-5.38782e-08
3.64013e-08
-4.98808e-08
2.59932e-08
-5.18644e-08
2.44262e-08
-4.62554e-08
1.54589e-08
-4.05689e-08
1.20597e-08
-3.86733e-08
6.64303e-09
-3.1338e-08
1.32037e-08
-2.73268e-08
4.48073e-09
-2.15065e-08
3.53234e-09
-2.2477e-08
-1.8085e-09
-2.49888e-08
-3.33235e-09
-2.92418e-08
9.62843e-10
-3.61189e-08
4.73964e-09
-4.37458e-08
7.60072e-09
-5.13142e-08
6.57431e-09
-5.73106e-08
6.52265e-10
-6.00773e-08
-5.25024e-09
-6.12125e-08
-8.4523e-09
-6.19676e-08
-8.75533e-09
-6.2172e-08
-8.7272e-09
-6.01491e-08
-1.13477e-08
-5.43241e-08
-1.79236e-08
-4.60877e-08
-2.47716e-08
-3.84732e-08
-2.84462e-08
-3.25284e-08
-2.9178e-08
-2.93259e-08
-2.44882e-08
-3.01861e-08
-1.12247e-08
-3.46598e-08
1.02493e-08
-3.94256e-08
2.82296e-08
-4.12974e-08
3.54216e-08
-3.98824e-08
3.53368e-08
-3.5504e-08
2.6166e-08
-3.20502e-08
1.93323e-08
-2.89656e-08
1.28359e-08
1.47202e-09
-1.91467e-08
-3.87507e-09
2.22869e-10
-8.8551e-09
7.65172e-09
5.32772e-09
2.32632e-08
1.29799e-09
1.59048e-08
1.03315e-08
1.3419e-08
5.65483e-09
1.38466e-08
9.49909e-09
6.81658e-08
-1.96435e-08
-1.05939e-07
1.04553e-08
-2.33066e-08
7.83892e-08
3.22575e-07
1.54815e-07
-3.84263e-08
-9.52665e-08
-1.75952e-09
-3.01999e-08
-8.45763e-09
-1.75088e-08
-1.3545e-08
-8.2972e-09
-4.21518e-08
-2.48644e-09
-6.03046e-08
1.29876e-08
-8.65832e-08
1.19528e-08
-7.68248e-08
7.92325e-09
-7.12994e-08
6.44882e-10
2.48224e-08
-8.41283e-08
-4.03337e-08
1.17623e-07
-5.67997e-08
2.63919e-08
-5.45618e-08
-1.32576e-08
-5.1486e-08
-2.0914e-08
-5.33312e-08
-2.28363e-08
-4.05168e-08
1.35372e-08
-6.79372e-08
3.46888e-08
-3.07069e-08
-4.43536e-09
-2.3241e-08
-1.53339e-08
1.54859e-08
-1.17861e-08
-1.38986e-07
-3.00036e-08
6.21231e-08
1.31267e-08
-1.49554e-07
9.0873e-09
-1.74685e-08
4.93326e-08
-1.13722e-08
5.70207e-09
-1.69388e-07
-1.08424e-08
-1.34708e-08
4.06902e-08
-2.6612e-08
-7.55677e-09
-3.38666e-08
4.65999e-08
-3.62813e-08
3.84521e-08
-3.54209e-08
2.51329e-08
-3.23738e-08
2.13793e-08
-3.04398e-08
1.35251e-08
-2.9381e-08
1.1001e-08
-3.03445e-08
7.60668e-09
-2.52677e-08
8.12697e-09
-2.43031e-08
3.51625e-09
-2.25412e-08
1.77045e-09
-2.38072e-08
-5.42387e-10
-2.67943e-08
-3.45217e-10
-3.00067e-08
4.17528e-09
-3.53556e-08
1.00887e-08
-4.21886e-08
1.44338e-08
-5.03346e-08
1.47203e-08
-5.91635e-08
9.48123e-09
-6.64964e-08
2.08279e-09
-7.1369e-08
-3.57966e-09
-7.42447e-08
-5.87955e-09
-7.52263e-08
-7.74548e-09
-7.30535e-08
-1.35204e-08
-6.71121e-08
-2.38649e-08
-6.17655e-08
-3.01182e-08
-5.85508e-08
-3.16607e-08
-5.79353e-08
-2.97933e-08
-6.13498e-08
-2.10734e-08
-6.64668e-08
-6.10759e-09
-6.74316e-08
1.12144e-08
-6.32158e-08
2.40138e-08
-5.64242e-08
2.86301e-08
-4.68469e-08
2.57596e-08
-3.92879e-08
1.86073e-08
-3.48052e-08
1.48503e-08
-3.13107e-08
9.34221e-09
-1.70732e-10
-2.60144e-08
-1.45113e-08
-2.30978e-08
-1.21286e-08
5.54225e-09
-2.3024e-08
3.96734e-08
-3.32385e-08
2.71275e-08
2.2877e-08
2.2459e-08
1.05998e-08
1.09792e-08
2.09635e-08
-5.32333e-09
-3.34119e-09
-4.187e-08
4.64136e-08
5.15789e-09
3.05533e-08
9.05195e-08
6.94002e-08
-7.3443e-09
2.54833e-09
-3.00496e-08
-7.49464e-09
-4.72791e-08
2.71066e-11
-5.14273e-08
-5.1983e-09
-6.56226e-08
1.23923e-08
-4.79817e-08
-3.45904e-09
-6.47087e-08
2.80683e-08
-7.06183e-08
1.38328e-08
-1.15403e-07
4.5423e-08
2.79593e-07
1.16717e-07
-9.27042e-08
-1.03907e-07
-4.33717e-08
-2.38862e-08
-2.98903e-08
-2.70438e-08
-3.71093e-08
-1.36949e-08
2.48237e-08
-8.52604e-08
-8.99835e-08
1.28483e-07
-6.79331e-08
1.26385e-08
-6.35548e-08
-9.46185e-09
-8.04416e-08
1.55298e-09
-7.74674e-08
-1.39396e-08
-1.00591e-07
-5.54802e-09
-5.75568e-08
-2.93256e-08
-6.36632e-08
1.52555e-08
-1.42474e-08
-8.3929e-11
-2.85774e-09
-5.86013e-09
-6.06382e-08
4.65408e-08
-1.08718e-08
-8.4574e-09
6.61814e-08
-8.46099e-08
-1.88925e-08
1.31006e-07
-2.33683e-08
4.3117e-08
-1.92925e-08
2.10572e-08
-1.47249e-08
1.68118e-08
-1.31488e-08
1.19491e-08
-1.14588e-08
9.31109e-09
-1.10231e-08
7.17108e-09
-8.54821e-09
5.65213e-09
-8.88002e-09
3.84814e-09
-9.47092e-09
2.36143e-09
-1.23236e-08
2.31034e-09
-1.69669e-08
4.29812e-09
-2.17412e-08
8.94969e-09
-2.67168e-08
1.50644e-08
-3.28238e-08
2.05408e-08
-4.03681e-08
2.22646e-08
-4.9741e-08
1.88542e-08
-5.99854e-08
1.23273e-08
-6.88329e-08
5.26793e-09
-7.40977e-08
-6.14657e-10
-7.50433e-08
-6.79985e-09
-7.14988e-08
-1.70648e-08
-6.64723e-08
-2.88914e-08
-6.35908e-08
-3.29996e-08
-6.17601e-08
-3.34912e-08
-6.28735e-08
-2.86797e-08
-6.72689e-08
-1.66779e-08
-7.09754e-08
-2.4009e-09
-6.91616e-08
9.4007e-09
-6.22459e-08
1.70982e-08
-5.32478e-08
1.9632e-08
-4.46421e-08
1.71541e-08
-3.91538e-08
1.31195e-08
-3.51857e-08
1.08829e-08
-3.25196e-08
6.67693e-09
-7.21083e-10
-1.70491e-08
-1.12742e-08
-2.18999e-08
-7.05558e-09
-1.50408e-08
-2.9884e-08
7.3855e-08
-1.23549e-07
1.25241e-09
9.57126e-08
1.98355e-08
-7.98353e-09
9.94575e-09
3.1171e-08
-4.95321e-08
5.66807e-08
-2.37689e-08
2.08631e-08
-3.09748e-08
3.74473e-08
-5.50207e-09
4.34281e-08
-2.9351e-08
2.63972e-08
-5.12573e-08
1.47874e-08
-5.69418e-08
5.71162e-09
-6.76247e-08
5.48456e-09
-6.37989e-08
8.31352e-09
-5.73531e-08
-9.94011e-09
-3.87201e-08
9.43533e-09
-3.5606e-08
1.06105e-08
-1.66542e-08
2.66411e-08
6.5273e-08
3.47902e-08
-1.42727e-08
-2.47551e-08
-2.40901e-08
-1.42138e-08
-4.77092e-08
-3.42473e-09
-8.99892e-08
2.75261e-08
3.15986e-07
1.14832e-07
-2.15425e-07
-1.43176e-07
-3.53212e-08
3.24961e-08
-5.26546e-08
7.87167e-09
-6.86847e-08
1.75673e-08
-6.61096e-08
-1.65145e-08
-6.5744e-08
-5.97446e-09
-9.15836e-08
-3.78508e-09
-5.26615e-08
-2.37531e-08
-9.21278e-08
3.93816e-08
-8.16275e-08
-1.55873e-08
-8.48566e-08
4.93e-08
-1.19197e-07
2.47649e-08
2.79319e-07
1.13909e-07
-9.41048e-08
-8.7562e-08
-3.39895e-08
-1.69982e-08
-1.55624e-08
2.63028e-09
-7.52947e-09
8.77905e-09
-5.05239e-09
9.47207e-09
-4.09013e-09
8.34893e-09
-3.75082e-09
6.83186e-09
-3.834e-09
5.73539e-09
-4.76338e-09
4.7776e-09
-6.39415e-09
3.99227e-09
-9.1843e-09
5.10055e-09
-1.31985e-08
8.31234e-09
-1.72697e-08
1.3021e-08
-2.09943e-08
1.87889e-08
-2.42846e-08
2.38312e-08
-2.77687e-08
2.57488e-08
-3.32017e-08
2.42872e-08
-4.02131e-08
1.93388e-08
-4.76549e-08
1.27098e-08
-5.38928e-08
5.62327e-09
-5.67019e-08
-3.99064e-09
-5.54971e-08
-1.82695e-08
-5.38981e-08
-3.04903e-08
-5.33034e-08
-3.35942e-08
-5.40816e-08
-3.27128e-08
-5.75057e-08
-2.52555e-08
-6.16559e-08
-1.25276e-08
-6.30942e-08
-9.6243e-10
-6.02744e-08
6.58102e-09
-5.40283e-08
1.08524e-08
-4.69731e-08
1.25769e-08
-4.16281e-08
1.18093e-08
-3.80295e-08
9.52126e-09
-3.51189e-08
7.97313e-09
-3.33687e-08
4.92755e-09
-7.60255e-10
-5.46561e-08
3.17817e-09
-7.0635e-08
8.92205e-09
-1.31528e-07
2.9362e-08
2.51897e-07
1.00125e-07
-1.61915e-07
-9.3888e-08
-1.18608e-07
-5.35948e-08
-8.04153e-08
-7.93225e-09
-2.5483e-07
2.7275e-08
-7.92169e-08
4.93897e-08
-9.934e-08
5.93918e-08
-7.71336e-08
2.12216e-08
-7.25336e-08
2.05314e-08
-6.98441e-08
1.20978e-08
-6.13883e-08
-2.74425e-09
-5.95156e-08
3.5754e-09
-4.58177e-08
-5.38445e-09
-4.35049e-08
-1.2253e-08
-2.96554e-08
-4.11157e-09
-2.89736e-08
9.92867e-09
-2.4871e-08
2.24723e-08
-6.92073e-09
1.71949e-08
-2.66956e-08
-5.25252e-09
-3.03396e-08
-1.05698e-08
-4.93612e-08
1.62443e-08
-3.00334e-08
8.19844e-09
3.19293e-08
5.13919e-08
-9.27035e-08
-1.83561e-08
-6.01267e-08
-8.06039e-11
-4.98376e-08
-2.41731e-09
-4.40931e-08
1.18229e-08
-6.44581e-08
3.19298e-09
-7.91551e-08
8.72271e-09
-9.21567e-08
9.08403e-09
-1.11895e-07
-4.05612e-09
-1.07158e-07
3.57858e-08
-1.62602e-07
3.98568e-08
-9.10978e-08
-2.07715e-08
-7.39531e-08
7.69806e-09
2.5381e-08
1.35617e-08
-4.99129e-08
-1.25218e-08
-4.71032e-08
-1.98078e-08
-3.9945e-08
-4.52779e-09
-3.56565e-08
4.49059e-09
-3.21153e-08
5.93099e-09
-2.97348e-08
5.96853e-09
-2.86291e-08
5.72628e-09
-2.75703e-08
4.67669e-09
-2.60776e-08
3.28491e-09
-2.51319e-08
3.04662e-09
-2.48794e-08
4.84814e-09
-2.47344e-08
8.16742e-09
-2.50066e-08
1.32932e-08
-2.49895e-08
1.87719e-08
-2.44336e-08
2.32754e-08
-2.39005e-08
2.52158e-08
-2.38414e-08
2.42282e-08
-2.51055e-08
2.0603e-08
-2.80071e-08
1.56114e-08
-3.19381e-08
9.55434e-09
-3.59251e-08
-3.56721e-12
-3.93834e-08
-1.4811e-08
-4.22113e-08
-2.76623e-08
-4.45962e-08
-3.12092e-08
-4.76453e-08
-2.96637e-08
-5.15117e-08
-2.1389e-08
-5.44655e-08
-9.57362e-09
-5.44205e-08
-1.00728e-09
-5.15186e-08
3.67932e-09
-4.7455e-08
6.78893e-09
-4.34831e-08
8.60502e-09
-4.0051e-08
8.37744e-09
-3.74991e-08
6.96978e-09
-3.53966e-08
5.87148e-09
-3.41371e-08
3.66885e-09
-6.77795e-10
-7.29456e-08
2.04525e-08
-7.95925e-08
1.55677e-08
-8.70066e-08
3.58876e-08
-3.14491e-08
4.36608e-08
-1.24048e-07
-3.52273e-09
-2.02009e-07
2.35539e-08
-1.94584e-07
-1.11109e-08
-2.17398e-07
5.34677e-08
-1.61153e-07
-7.35438e-09
-1.22041e-07
1.8448e-08
-1.04273e-07
4.73318e-09
-8.74503e-08
3.70899e-09
-7.52294e-08
-1.00507e-09
-6.16125e-08
-1.57326e-08
-5.94397e-08
1.40257e-09
-5.13161e-08
-1.41145e-08
-4.15709e-08
-2.19982e-08
-1.66277e-08
-2.90548e-08
-2.6655e-08
1.97853e-08
-4.10359e-08
3.68532e-08
-2.90882e-08
5.66583e-09
-3.11633e-08
-3.17731e-09
-1.58855e-08
-2.55777e-08
-4.62191e-08
4.65779e-08
-3.78077e-08
-6.00738e-10
-2.56789e-08
3.95252e-08
-7.91629e-08
3.5128e-08
-5.92177e-08
-2.06229e-08
-4.49834e-08
-1.66515e-08
-3.74548e-08
4.25107e-09
-5.64006e-08
2.19153e-08
-6.01937e-08
1.2427e-08
-7.29447e-08
2.10909e-08
-1.06334e-07
2.93756e-08
-5.5907e-08
-1.35568e-08
-2.32988e-07
1.68049e-08
-7.57235e-08
2.11532e-08
-1.12305e-07
4.43586e-08
-1.27008e-07
3.10234e-08
-8.20822e-08
-5.61778e-08
-6.24387e-08
-3.94513e-08
-6.28354e-08
-4.13099e-09
-6.5103e-08
6.75836e-09
-6.42076e-08
5.03565e-09
-6.23097e-08
4.07066e-09
-6.06629e-08
4.07955e-09
-5.89552e-08
2.96909e-09
-5.72612e-08
1.59098e-09
-5.59505e-08
1.73599e-09
-5.43742e-08
3.27189e-09
-5.14136e-08
5.20694e-09
-4.65198e-08
8.39943e-09
-4.00911e-08
1.23434e-08
-3.2947e-08
1.61313e-08
-2.70128e-08
1.92816e-08
-2.24259e-08
1.96413e-08
-1.94183e-08
1.75955e-08
-1.86299e-08
1.4823e-08
-2.03155e-08
1.124e-08
-2.42067e-08
3.88773e-09
-3.03842e-08
-8.6335e-09
-3.64538e-08
-2.15927e-08
-4.07997e-08
-2.68632e-08
-4.41817e-08
-2.62816e-08
-4.69251e-08
-1.86454e-08
-4.86407e-08
-7.85789e-09
-4.81013e-08
-1.54652e-09
-4.61242e-08
1.70242e-09
-4.37191e-08
4.38391e-09
-4.13409e-08
6.22695e-09
-3.90582e-08
6.095e-09
-3.71982e-08
5.11023e-09
-3.56591e-08
4.33319e-09
-3.4724e-08
2.73452e-09
-5.64193e-10
-1.28452e-07
1.14426e-08
-1.15333e-07
2.44746e-09
-1.11508e-07
3.09245e-08
-1.09513e-07
4.12146e-08
-1.49554e-07
3.80601e-08
-1.38853e-07
1.23722e-08
-1.79751e-07
3.17331e-08
-1.18739e-07
-7.46822e-09
-1.21366e-07
-4.77623e-09
-9.87573e-08
-4.11905e-09
-8.78505e-08
-7.18126e-09
-9.18499e-08
8.5955e-09
-7.35687e-08
-1.92863e-08
-6.42652e-08
-2.57866e-08
-6.56126e-08
2.73626e-09
-5.69096e-08
-2.28175e-08
-5.56687e-08
-2.32391e-08
3.29974e-08
-1.18934e-07
-4.10194e-08
9.38021e-08
-7.49932e-08
7.04511e-08
-6.28044e-08
-6.52296e-09
-7.00244e-08
4.0427e-09
2.98773e-08
-1.26773e-07
-4.48073e-08
1.20508e-07
-5.84941e-08
1.30861e-08
-5.07926e-09
-1.37493e-08
-1.38451e-07
-2.96907e-08
1.46189e-08
2.42492e-08
-2.09683e-08
1.92989e-08
-2.15718e-08
5.07246e-09
-1.15453e-08
1.16711e-08
-1.98413e-08
2.06053e-08
-2.03571e-08
2.13887e-08
-2.54555e-08
3.41743e-08
-3.46967e-08
-3.92147e-09
-5.54971e-08
3.76055e-08
-3.49122e-08
2.24209e-12
1.76232e-08
-8.4495e-09
-1.33229e-07
-1.87739e-08
2.47556e-08
-1.56918e-08
7.12286e-10
-1.55634e-08
-2.5065e-08
2.16464e-08
-3.65978e-08
1.82913e-08
-4.11492e-08
9.5871e-09
-4.3339e-08
6.26059e-09
-4.37303e-08
4.47091e-09
-4.47753e-08
4.01411e-09
-4.67056e-08
3.52137e-09
-4.95698e-08
4.60028e-09
-5.23264e-08
6.02853e-09
-5.37128e-08
6.59343e-09
-5.22937e-08
6.98036e-09
-4.77871e-08
7.83681e-09
-4.03139e-08
8.6582e-09
-3.08197e-08
9.78756e-09
-2.1389e-08
1.02107e-08
-1.44282e-08
1.06347e-08
-1.09366e-08
1.13316e-08
-1.08665e-08
1.117e-08
-1.46266e-08
7.64786e-09
-2.20236e-08
-1.23644e-09
-3.03059e-08
-1.33102e-08
-3.54426e-08
-2.17264e-08
-3.88341e-08
-2.289e-08
-4.19311e-08
-1.55483e-08
-4.39069e-08
-5.88196e-09
-4.42012e-08
-1.25201e-09
-4.3421e-08
9.22337e-10
-4.18981e-08
2.8611e-09
-4.01694e-08
4.4984e-09
-3.84882e-08
4.41403e-09
-3.70622e-08
3.68469e-09
-3.58878e-08
3.15962e-09
-3.51655e-08
2.01305e-09
-4.52611e-10
-1.53051e-07
-3.9103e-08
-1.50604e-07
-1.57767e-09
-1.10319e-07
-9.26667e-09
-9.68136e-08
2.63e-08
-9.97675e-08
4.05953e-08
-9.40529e-08
7.67509e-09
-1.03994e-07
4.31753e-08
-8.10751e-08
-3.04627e-08
-9.11684e-08
5.36518e-09
-8.02435e-08
-1.50856e-08
-6.01639e-08
-2.74658e-08
-7.1488e-08
1.99196e-08
-7.89176e-08
-1.27829e-08
-1.1452e-07
1.09841e-08
-6.54688e-08
-4.5852e-08
-7.36517e-08
-1.53025e-08
-1.41315e-07
4.25485e-08
2.49676e-07
9.61418e-08
-6.31247e-08
-1.95828e-07
-1.03222e-07
1.09432e-07
-1.28808e-07
1.92594e-08
-1.67945e-07
4.14666e-08
2.23732e-07
8.62001e-08
-1.44073e-07
-1.07772e-07
-8.84652e-08
-4.30892e-08
-6.31387e-08
-3.90758e-08
-1.09291e-07
1.58173e-08
-6.79414e-08
-1.66824e-08
-4.76197e-08
-1.02272e-09
-5.00929e-08
7.59748e-09
-4.55229e-08
7.2202e-09
-3.68799e-08
1.22141e-08
-1.6495e-08
1.00391e-09
-1.61275e-09
1.91403e-08
-9.01882e-09
3.44987e-09
2.46115e-09
2.64173e-08
-4.64556e-09
7.03728e-09
-1.19573e-08
-1.13763e-09
-5.17124e-08
2.11729e-08
-2.29537e-08
-4.46105e-08
4.89265e-08
-8.90094e-08
-3.55786e-08
1.05662e-07
-4.81117e-08
3.08245e-08
-4.98124e-08
1.12879e-08
-5.00113e-08
6.45952e-09
-4.90676e-08
3.52737e-09
-4.90669e-08
4.01348e-09
-4.99966e-08
4.45105e-09
-5.13819e-08
5.98572e-09
-5.211e-08
6.75663e-09
-5.17362e-08
6.21971e-09
-4.92381e-08
4.48232e-09
-4.40147e-08
2.61351e-09
-3.59298e-08
5.73315e-10
-2.53405e-08
-8.01658e-10
-1.39604e-08
-1.16933e-09
-4.25809e-09
9.32489e-10
2.17444e-09
4.89909e-09
4.52065e-09
8.82386e-09
3.46909e-09
8.69949e-09
-1.85386e-09
4.08658e-09
-1.09053e-08
-4.25872e-09
-2.02966e-08
-1.2335e-08
-2.89678e-08
-1.42187e-08
-3.5767e-08
-8.74901e-09
-3.93073e-08
-2.34148e-09
-4.08381e-08
2.78888e-10
-4.12109e-08
1.29527e-09
-4.05526e-08
2.20294e-09
-3.92565e-08
3.20242e-09
-3.79783e-08
3.13605e-09
-3.69213e-08
2.62808e-09
-3.60297e-08
2.26891e-09
-3.54839e-08
1.46806e-09
-3.46482e-10
-1.84603e-07
9.83796e-09
-1.77029e-07
-7.32826e-09
-5.08969e-08
-1.34975e-07
-1.24423e-07
1.00576e-07
-1.03662e-07
1.96214e-08
-1.3047e-07
3.2426e-08
-9.27733e-08
5.47803e-09
-1.1053e-07
-1.09425e-08
-1.10611e-07
5.44537e-09
-1.0543e-07
-2.15489e-08
-1.23761e-07
-9.13459e-09
-6.82241e-08
-3.54144e-08
-3.6871e-08
-4.41361e-08
-1.48706e-07
-7.4862e-08
2.13002e-08
-1.83788e-08
-3.86632e-08
4.52726e-08
-5.14236e-08
5.47559e-08
-3.23268e-08
7.55396e-08
2.57828e-07
1.11271e-07
-1.22037e-07
-1.05761e-07
-9.23574e-08
-1.16782e-08
-4.41991e-08
-6.20034e-09
8.88068e-09
3.22318e-08
-6.19366e-08
-3.81448e-08
-8.03464e-08
-2.46794e-08
-9.10122e-08
-2.91055e-08
-7.13828e-08
-3.08374e-09
-6.10778e-08
-2.69874e-08
-6.20822e-08
-6.34875e-10
-6.17536e-08
7.26898e-09
-4.12083e-08
-1.27743e-08
-3.90709e-08
1.00768e-08
-2.5843e-08
-1.27422e-08
-7.98246e-09
1.36135e-09
-1.97497e-09
-2.49745e-09
1.26469e-08
1.15287e-08
5.94771e-09
1.38767e-08
-3.7995e-09
8.67036e-09
-2.32386e-08
4.06121e-08
-9.60258e-08
2.74775e-08
2.83953e-07
1.32784e-07
-1.14597e-07
-8.93554e-08
-7.26939e-08
-1.10781e-08
-6.38181e-08
2.41214e-09
-6.1528e-08
4.16946e-09
-6.10261e-08
3.02559e-09
-6.04225e-08
3.4099e-09
-5.99219e-08
3.95055e-09
-5.90179e-08
5.08182e-09
-5.70307e-08
4.76946e-09
-5.40767e-08
3.26578e-09
-4.88124e-08
-7.81884e-10
-4.0599e-08
-5.59987e-09
-2.97851e-08
-1.02405e-08
-1.85224e-08
-1.20643e-08
-7.83211e-09
-1.18595e-08
1.26974e-09
-8.16928e-09
7.86747e-09
-1.69856e-09
1.12797e-08
5.41171e-09
1.1283e-08
8.69628e-09
7.76512e-09
7.60451e-09
5.10121e-11
3.45546e-09
-1.18987e-08
-3.85116e-10
-2.51911e-08
-9.26242e-10
-3.46794e-08
7.39316e-10
-3.88182e-08
1.79747e-09
-4.03044e-08
1.76531e-09
-4.06227e-08
1.61364e-09
-4.01217e-08
1.7021e-09
-3.88522e-08
1.93306e-09
-3.76721e-08
1.9561e-09
-3.6844e-08
1.80042e-09
-3.61447e-08
1.57051e-09
-3.57207e-08
1.04488e-09
-2.54127e-10
-7.13148e-08
-7.37033e-09
-1.31795e-07
5.13571e-08
2.39091e-07
9.88144e-08
-1.64926e-07
-9.94141e-08
-1.103e-07
-3.5573e-08
-9.1738e-08
1.4848e-08
-6.10052e-08
-2.41288e-08
-6.14894e-08
-1.05662e-08
-5.69881e-08
9.99455e-10
-6.53701e-08
-1.33027e-08
-7.50641e-08
5.59258e-10
-5.71723e-08
-5.33063e-08
-6.21114e-08
-3.89608e-08
-1.03321e-07
-3.39958e-08
2.68463e-08
-1.51331e-07
-2.19878e-08
9.4331e-08
-3.06922e-08
6.33733e-08
-1.39012e-08
5.84355e-08
6.27984e-08
3.45714e-08
-8.91615e-09
-3.51259e-08
-2.73513e-08
6.87613e-09
-8.49146e-09
-2.50602e-08
-2.3554e-09
2.5767e-08
-2.38754e-08
-1.66248e-08
-4.33789e-08
-5.61841e-09
-6.0869e-08
-1.16153e-08
-6.43672e-08
1.03545e-09
-7.10822e-08
-1.98225e-08
-5.77358e-08
-1.39811e-08
-4.00475e-08
-1.05997e-08
-4.28148e-08
-1.00069e-08
-3.59441e-08
2.48021e-09
-4.03606e-08
-8.32566e-09
-3.17986e-08
-6.4644e-09
-2.38837e-08
-1.01963e-08
-2.00457e-08
7.24718e-09
-2.97667e-08
2.32942e-08
-4.874e-08
2.79474e-08
-4.2691e-08
3.41277e-08
-7.09452e-08
5.6463e-08
1.76992e-08
4.29034e-08
-7.20957e-08
4.39628e-10
-8.14637e-08
-1.71015e-09
-8.05086e-08
1.45711e-09
-7.78675e-08
1.5285e-09
-7.63578e-08
1.51598e-09
-7.33775e-08
4.29666e-10
-7.05883e-08
1.16142e-09
-6.72269e-08
1.72048e-09
-6.24768e-08
1.93382e-11
-5.55014e-08
-3.7095e-09
-4.66601e-08
-9.62315e-09
-3.63689e-08
-1.58909e-08
-2.55412e-08
-2.10682e-08
-1.47515e-08
-2.28539e-08
-5.09727e-09
-2.15137e-08
2.55989e-09
-1.58264e-08
7.37874e-09
-6.51734e-09
9.12737e-09
3.66316e-09
6.82374e-09
1.1e-08
1.30946e-09
1.31189e-08
-7.53574e-09
1.23007e-08
-1.92219e-08
1.13011e-08
-2.97985e-08
9.65049e-09
-3.59075e-08
6.84843e-09
-3.85767e-08
4.46679e-09
-3.95938e-08
2.78253e-09
-3.97598e-08
1.77982e-09
-3.92689e-08
1.21131e-09
-3.82915e-08
9.55764e-10
-3.74112e-08
1.07599e-09
-3.67587e-08
1.14841e-09
-3.62107e-08
1.02335e-09
-3.58861e-08
7.21072e-10
-1.72787e-10
7.7402e-08
2.56439e-08
1.09516e-07
2.00241e-08
1.86268e-07
2.19463e-08
1.03423e-07
-1.76243e-08
9.06294e-08
-2.33358e-08
1.12033e-07
-6.99249e-09
1.00684e-07
-1.07403e-08
9.21732e-08
-1.02841e-09
5.47618e-08
3.80291e-08
1.10367e-08
3.04224e-08
3.97581e-08
-2.79894e-08
6.38769e-10
-1.41804e-08
-4.46042e-08
5.883e-09
-1.22719e-07
4.2963e-08
2.5034e-07
8.3806e-08
-6.15565e-08
-1.95583e-07
-9.13405e-08
9.37973e-08
-7.12763e-08
3.74394e-08
-5.04061e-08
1.37013e-08
-4.89132e-08
-3.66188e-08
-3.11973e-08
-1.08397e-08
-1.63926e-08
-3.98649e-08
-4.03994e-09
1.34144e-08
-1.34975e-08
-7.16723e-09
-2.01613e-08
1.04552e-09
-5.1229e-08
1.9571e-08
-3.61774e-08
-1.38746e-08
-4.14233e-08
-1.47267e-08
-5.3214e-08
-2.33296e-09
-5.35085e-08
-1.03052e-08
-4.14425e-08
-2.17521e-08
-1.55965e-08
-2.33657e-08
-8.7733e-10
-2.28855e-08
1.75287e-08
-2.46192e-08
3.75342e-08
-3.03057e-08
3.25215e-08
1.20021e-08
5.46618e-09
5.06256e-08
-1.13135e-08
4.47829e-08
-2.74063e-08
5.07383e-08
-5.08293e-08
7.90224e-08
-4.08067e-08
3.33891e-08
-6.93966e-08
2.90296e-08
-8.07554e-08
9.64873e-09
-8.29345e-08
3.63625e-09
-8.12518e-08
-1.54057e-10
-7.87411e-08
-9.94645e-10
-7.48137e-08
-3.49776e-09
-6.98751e-08
-3.77702e-09
-6.39384e-08
-4.21622e-09
-5.726e-08
-6.65892e-09
-4.86822e-08
-1.22873e-08
-4.14555e-08
-1.68497e-08
-3.52383e-08
-2.21081e-08
-2.99179e-08
-2.63885e-08
-2.4176e-08
-2.85957e-08
-1.82977e-08
-2.73919e-08
-1.23081e-08
-2.18159e-08
-7.72253e-09
-1.11028e-08
-6.20472e-09
2.14543e-09
-1.01916e-08
1.49869e-08
-1.76492e-08
2.05766e-08
-2.67769e-08
2.14284e-08
-3.47961e-08
1.93204e-08
-3.87203e-08
1.35748e-08
-3.91704e-08
7.29857e-09
-3.90147e-08
4.31123e-09
-3.91198e-08
2.88783e-09
-3.90696e-08
1.72968e-09
-3.85998e-08
7.41662e-10
-3.79004e-08
2.56521e-10
-3.72494e-08
4.25128e-10
-3.67037e-08
6.03147e-10
-3.62724e-08
5.92973e-10
-3.60106e-08
4.60084e-10
-1.10945e-10
1.81809e-09
3.62039e-08
-6.36085e-09
2.84712e-08
3.78924e-09
1.17955e-08
-1.90959e-08
5.29902e-09
-3.26412e-08
-1.03619e-08
-4.76201e-08
7.42326e-09
-5.81161e-08
-4.63226e-10
-5.55412e-08
-2.99383e-09
5.34831e-09
-2.2294e-08
-1.4937e-07
-1.34697e-08
3.01543e-09
1.7567e-08
-6.15277e-08
5.02786e-08
-7.76242e-08
2.19188e-08
-8.40173e-08
4.88526e-08
-7.14174e-08
7.03422e-08
2.38315e-07
9.62803e-08
-1.62615e-07
-1.04201e-07
-9.09749e-08
-3.42005e-08
-7.31361e-08
-4.13749e-09
-8.28991e-08
-2.71327e-08
-4.49666e-08
-4.87722e-08
3.16998e-08
-1.16531e-07
-3.48084e-08
7.91155e-08
-3.47263e-08
-7.24922e-09
-2.97595e-08
-3.92127e-09
-1.83354e-08
8.33391e-09
-3.98885e-08
7.27584e-09
-5.10481e-08
-3.97829e-09
-5.48165e-08
1.95633e-09
-6.32367e-08
-1.88496e-09
-7.51844e-08
-9.80423e-09
-6.78668e-08
-3.02292e-08
-4.41271e-08
-4.61795e-08
-4.0676e-08
-2.88068e-08
4.48878e-08
-1.17483e-07
-3.97602e-08
9.62446e-08
-6.2312e-08
7.36993e-08
-5.41612e-08
3.67153e-08
-3.8875e-08
3.58529e-08
-3.20879e-08
7.22227e-08
-3.01363e-08
3.14376e-08
-1.46299e-08
1.35233e-08
-1.19999e-08
7.01877e-09
-1.35012e-08
5.13762e-09
-1.70061e-08
3.35087e-09
-2.07089e-08
2.7082e-09
-2.53412e-08
1.13461e-09
-2.85099e-08
-6.08181e-10
-3.0277e-08
-2.44913e-09
-3.09583e-08
-5.97755e-09
-3.18414e-08
-1.14041e-08
-3.44793e-08
-1.42117e-08
-3.84921e-08
-1.80953e-08
-4.2431e-08
-2.24495e-08
-4.45202e-08
-2.65065e-08
-4.50671e-08
-2.68449e-08
-4.39434e-08
-2.29396e-08
-4.1217e-08
-1.38291e-08
-3.92498e-08
1.78323e-10
-3.96283e-08
1.53655e-08
-4.10799e-08
2.20283e-08
-4.29095e-08
2.32581e-08
-4.34848e-08
1.98959e-08
-4.19769e-08
1.20669e-08
-4.02883e-08
5.61008e-09
-3.92268e-08
3.24989e-09
-3.86779e-08
2.33904e-09
-3.83647e-08
1.41666e-09
-3.79431e-08
3.20146e-10
-3.74366e-08
-2.49848e-10
-3.6958e-08
-5.32618e-11
-3.6572e-08
2.1755e-10
-3.62669e-08
2.88746e-10
-3.60809e-08
2.74908e-10
-5.61221e-11
-5.5515e-08
5.18922e-08
-5.68896e-08
2.98447e-08
-5.96385e-08
1.4664e-08
-6.48518e-08
1.05119e-08
-7.29785e-08
-2.23543e-09
-7.03477e-08
4.71656e-09
-6.21641e-08
-8.55499e-09
-6.16331e-08
-3.49443e-09
-8.67996e-08
3.72001e-09
-1.06796e-07
6.52676e-09
-8.70428e-08
-3.98474e-09
-6.18018e-08
2.47822e-08
-6.68037e-08
2.73276e-08
-5.93604e-08
4.14093e-08
-2.91237e-08
3.8696e-08
3.84748e-08
2.89804e-08
-4.55366e-08
-2.05819e-08
-1.16657e-07
3.72999e-08
-8.8292e-08
-3.3747e-08
-9.77064e-08
-1.77183e-08
-1.41915e-07
-3.60345e-09
2.49248e-07
8.87418e-08
-1.16887e-07
-1.48576e-07
-3.28623e-08
-9.2466e-08
-1.88273e-08
-1.79562e-08
-4.16357e-08
3.11423e-08
-4.96265e-08
1.53409e-08
-5.82712e-08
4.65955e-09
-5.75945e-08
1.2928e-09
-6.42275e-08
4.74817e-09
-7.00964e-08
-3.9353e-09
-9.58153e-08
-4.55673e-09
-1.25155e-07
-1.87793e-08
-1.87313e-07
3.11238e-08
2.23434e-07
8.05989e-08
-2.08672e-07
-7.38129e-08
-1.18721e-07
-1.68317e-08
-1.10796e-07
2.84993e-08
-1.13013e-07
3.84649e-08
-5.11856e-08
1.15253e-08
-3.66071e-08
1.68591e-08
-2.54807e-08
2.39693e-09
-1.73106e-08
-1.15122e-09
-1.29584e-08
7.85481e-10
-1.10592e-08
1.45174e-09
-1.09566e-08
2.60559e-09
-1.31756e-08
3.35375e-09
-1.65719e-08
2.78817e-09
-2.09362e-08
1.9152e-09
-2.57498e-08
-1.16388e-09
-3.23423e-08
-4.81152e-09
-3.92456e-08
-7.30833e-09
-4.57131e-08
-1.16277e-08
-5.0661e-08
-1.75015e-08
-5.43234e-08
-2.2844e-08
-5.8219e-08
-2.29491e-08
-6.24241e-08
-1.87344e-08
-6.49278e-08
-1.13253e-08
-6.36855e-08
-1.06392e-09
-5.98492e-08
1.15293e-08
-5.61966e-08
1.83758e-08
-5.23185e-08
1.938e-08
-4.77985e-08
1.5376e-08
-4.39649e-08
8.23342e-09
-4.16378e-08
3.28307e-09
-4.00139e-08
1.62618e-09
-3.88663e-08
1.19153e-09
-3.80591e-08
6.09651e-10
-3.75565e-08
-1.82336e-10
-3.7202e-08
-6.04196e-10
-3.6859e-08
-3.9607e-10
-3.65603e-08
-8.06746e-11
-3.63204e-08
4.96531e-11
-3.61542e-08
1.09514e-10
-2.54937e-11
-9.95812e-08
2.52089e-10
-8.42976e-08
1.45601e-08
-7.90887e-08
9.45444e-09
-7.21367e-08
3.55949e-09
-7.02275e-08
-4.14493e-09
-6.18831e-08
-2.99668e-09
-5.17065e-08
-1.85445e-08
-4.17166e-08
-1.35864e-08
-3.28705e-08
-5.12618e-09
-1.37523e-08
-1.28602e-08
-3.80372e-08
2.06881e-08
-2.78887e-08
1.42396e-08
-2.77553e-08
2.69096e-08
-1.95574e-08
3.30734e-08
1.59712e-09
1.75576e-08
2.52857e-08
5.00956e-09
1.33299e-07
-1.28807e-07
-1.24556e-07
9.1848e-08
-2.23996e-08
6.74032e-08
-9.35704e-08
5.34525e-08
-8.68265e-08
-9.45246e-09
8.05441e-09
-5.31586e-09
-7.78137e-08
-6.41414e-08
2.30954e-08
-1.95368e-07
1.80438e-08
-1.29045e-08
-5.83187e-08
1.06419e-07
-6.49456e-08
2.26304e-08
-6.75042e-08
6.53646e-09
-6.72322e-08
3.2509e-10
-6.16161e-08
-1.81901e-10
-7.1236e-08
4.95792e-09
-8.24001e-08
5.75815e-09
-1.15166e-07
1.49899e-08
-9.77617e-08
1.37201e-08
-3.29514e-08
1.51136e-08
-1.12447e-07
7.16653e-09
-1.00128e-07
-2.81395e-08
-7.60941e-08
4.18014e-09
-5.15246e-08
1.35109e-08
-4.84222e-08
8.42289e-09
-3.38609e-08
2.29794e-09
-2.76312e-08
-3.83268e-09
-2.27445e-08
-6.03787e-09
-1.86792e-08
-3.27971e-09
-1.70465e-08
-1.80977e-10
-1.7383e-08
2.94221e-09
-1.90391e-08
5.00988e-09
-2.21068e-08
5.85599e-09
-2.63555e-08
6.1639e-09
-3.20661e-08
4.54688e-09
-3.86354e-08
1.75777e-09
-4.42918e-08
-1.65179e-09
-4.8701e-08
-7.21846e-09
-5.23294e-08
-1.38731e-08
-5.63131e-08
-1.88602e-08