/*--------------------------------*- C++ -*----------------------------------*\
  =========                 |
  \\      /  F ield         | OpenFOAM: The Open Source CFD Toolbox
   \\    /   O peration     | Website:  https://openfoam.org
    \\  /    A nd           | Version:  12
     \\/     M anipulation  |
\*---------------------------------------------------------------------------*/
FoamFile
{
    format      ascii;
    class       volVectorField;
    location    "0.75";
    object      U.water_0;
}
// * * * * * * * * * * * * * * * * * * * * * * * * * * * * * * * * * * * * * //

dimensions      [0 1 -1 0 0 0 0];

internalField   nonuniform List<vector> 
3750
(
(0.00247575 0.0146723 0)
(-0.000827889 0.0148453 0)
(0.00152734 0.0145712 0)
(-0.00143371 0.0141902 0)
(0.00121515 0.0148151 0)
(0.000113895 0.0141086 0)
(0.00156593 0.0121754 0)
(0.000340099 0.0101287 0)
(-0.000815305 0.00904943 0)
(-0.000317813 0.00864682 0)
(-0.00323708 0.0107571 0)
(-0.00737191 0.0163206 0)
(0.00411925 0.0179431 0)
(0.0014624 0.0114929 0)
(0.000816566 0.0108286 0)
(0.000629244 0.0109082 0)
(-0.000157702 0.0088111 0)
(-6.76549e-05 0.00832721 0)
(0.00117853 0.00795562 0)
(0.00171439 0.0080823 0)
(0.00419965 0.00712774 0)
(0.00696763 0.0286848 0)
(-0.00709941 0.0290704 0)
(-0.00201081 0.0100629 0)
(-0.00067272 0.0124087 0)
(0.00138748 0.0121029 0)
(0.000233645 0.0139721 0)
(0.00170582 0.00908266 0)
(-0.00107985 0.00537257 0)
(0.00470181 0.000603627 0)
(0.0149791 0.0081022 0)
(0.00506897 0.0197175 0)
(0.000909986 0.0125426 0)
(0.000381503 0.00960336 0)
(-0.000434968 0.00924648 0)
(0.000237088 0.0101 0)
(0.000241018 0.0107269 0)
(-0.00105798 0.010004 0)
(0.00251129 0.00787122 0)
(6.73123e-05 0.00752312 0)
(0.00257034 0.00673667 0)
(3.09476e-05 0.00591095 0)
(0.00018243 0.00475261 0)
(0.000508615 0.00227946 0)
(0.000496079 0.00164494 0)
(0.000751417 -3.01044e-06 0)
(0.00124698 -0.00137542 0)
(0.000684724 -0.00278425 0)
(0.000386095 -0.00360734 0)
(-0.000713311 -0.00344782 0)
(-0.00107323 -0.00338971 0)
(-0.000943021 -0.00270636 0)
(-0.000991453 -0.00149587 0)
(-0.00094547 -0.000889034 0)
(-0.000887392 -0.000125277 0)
(-0.000800539 0.000672981 0)
(-0.000574611 0.00147312 0)
(-0.000443171 0.00225209 0)
(-0.00026249 0.0029378 0)
(-0.000266296 0.00353681 0)
(-0.00028351 0.00414001 0)
(-0.00030576 0.00470258 0)
(-0.000323177 0.0053999 0)
(-0.000325692 0.00617959 0)
(-0.00030258 0.00715628 0)
(-0.000167585 0.00813745 0)
(0.000100544 0.00892957 0)
(0.000619783 0.0090199 0)
(0.000866356 0.008293 0)
(0.000822719 0.00670777 0)
(0.000643102 0.00479739 0)
(0.000530936 0.00298037 0)
(0.000936968 0.00160962 0)
(0.00085354 -0.00051978 0)
(0.000457632 -0.00129008 0)
(-0.000201558 0.010838 0)
(-0.000306919 0.0099206 0)
(-0.000426223 0.0122435 0)
(6.95817e-05 0.00971947 0)
(0.000856469 0.0139155 0)
(0.0019774 0.013113 0)
(0.0027871 0.0124311 0)
(0.00344721 0.0105285 0)
(0.00256594 0.0113289 0)
(0.000173013 0.0115651 0)
(-0.00079814 0.00660527 0)
(0.00302143 0.0231768 0)
(0.000703708 0.0228268 0)
(-0.000768299 0.00157457 0)
(-0.00145368 0.00585678 0)
(-0.00227474 0.00909419 0)
(-0.00202339 0.01039 0)
(-0.00116549 0.0115229 0)
(0.000526201 0.011666 0)
(0.00152445 0.0122573 0)
(0.00317683 0.0141687 0)
(0.0071346 0.017937 0)
(-0.00992122 0.0170055 0)
(-0.00405047 0.00955979 0)
(-0.00263955 0.0101727 0)
(-0.000696284 0.0096241 0)
(0.00103092 0.0136787 0)
(-0.000880531 0.0111129 0)
(0.00417674 0.00979626 0)
(0.00600132 0.0143128 0)
(0.020119 0.00538035 0)
(0.00675336 0.000259282 0)
(0.00332347 0.0045205 0)
(0.00085868 0.00466108 0)
(-0.000336211 0.00644386 0)
(-0.000452477 0.00747248 0)
(-0.000806741 0.00494283 0)
(-0.00128686 0.00683576 0)
(0.000991629 0.00472089 0)
(0.00267769 0.00289805 0)
(0.00418787 0.00467545 0)
(0.00267201 0.00398083 0)
(0.001477 0.00137668 0)
(0.00233094 0.000824149 0)
(0.0020557 0.000262697 0)
(0.00114585 0.000258572 0)
(0.00225377 0.000422034 0)
(0.00150403 0.00089894 0)
(0.00124704 0.00084639 0)
(-0.000193878 0.00104582 0)
(-0.0008305 0.000366999 0)
(-0.000611668 -0.000116471 0)
(-0.000655958 -0.000523551 0)
(-0.000508515 -0.00137154 0)
(-0.000566884 -0.00207907 0)
(-0.000826496 -0.00263721 0)
(-0.000936929 -0.00271747 0)
(-0.00105249 -0.00257314 0)
(-0.00101807 -0.00223845 0)
(-0.000919112 -0.00195826 0)
(-0.000850138 -0.00164864 0)
(-0.000920927 -0.00120261 0)
(-0.00113782 -0.000472523 0)
(-0.00148551 0.000601094 0)
(-0.00177411 0.00187292 0)
(-0.0017041 0.00320154 0)
(-0.00109449 0.00427209 0)
(0.000132764 0.00470447 0)
(0.00149532 0.00403411 0)
(0.00255703 0.00254457 0)
(0.00307359 0.000608121 0)
(0.00292943 -0.0012523 0)
(0.00240555 -0.00191149 0)
(0.00183848 -0.00281873 0)
(0.000431627 -0.00236308 0)
(-0.0019947 0.00349548 0)
(0.00181482 0.00327683 0)
(-6.74213e-05 0.000503054 0)
(0.0018547 0.000871437 0)
(-0.00031623 0.000852389 0)
(0.000217631 0.00193565 0)
(0.000694917 0.00168263 0)
(0.00211037 0.00239974 0)
(3.59737e-05 0.00137931 0)
(-0.000239542 0.00304041 0)
(-0.00307765 0.0100914 0)
(0.0152717 0.0159949 0)
(-0.00291524 0.0123889 0)
(-0.00338668 0.00761647 0)
(-0.00191913 0.00561374 0)
(-0.00338253 0.00559469 0)
(-0.00129353 0.00534856 0)
(-0.00326612 0.00358027 0)
(0.00120677 0.00430516 0)
(0.000273901 0.00241884 0)
(0.00248612 0.00565518 0)
(0.00495435 0.00375772 0)
(-0.000383663 0.00273113 0)
(-0.000722168 -0.000957845 0)
(-0.000483804 -0.00324263 0)
(-0.00272108 -0.000956161 0)
(0.0034505 -0.00078666 0)
(-0.000481734 -0.00266912 0)
(0.00544017 -0.000674875 0)
(0.000640272 -0.00113133 0)
(-0.000955793 -0.00153105 0)
(-0.00202947 -0.00443133 0)
(0.00309163 -0.00386584 0)
(-0.00367637 -0.0045843 0)
(0.00102122 -0.0018539 0)
(-0.000454711 -0.00388766 0)
(-0.00252721 -0.00499172 0)
(0.00227167 -0.00581886 0)
(0.000153339 -0.00496878 0)
(0.00394403 -0.00506396 0)
(0.00404351 -0.0054535 0)
(0.00273172 -0.00511694 0)
(0.00249705 -0.00518806 0)
(0.00182492 -0.00441033 0)
(0.00134565 -0.00441337 0)
(0.00062382 -0.00414652 0)
(0.00121039 -0.00302189 0)
(0.00039756 -0.0023888 0)
(0.000445241 -0.00260424 0)
(-0.000281346 -0.00211134 0)
(-0.000410974 -0.00227644 0)
(5.34075e-06 -0.0026585 0)
(0.000253537 -0.00318387 0)
(0.00049239 -0.00396087 0)
(0.000358946 -0.00473279 0)
(-0.000281559 -0.00552908 0)
(-0.000700817 -0.00594771 0)
(-0.000886534 -0.00608664 0)
(-0.000909633 -0.0061869 0)
(-0.000896348 -0.00623595 0)
(-0.001046 -0.00618535 0)
(-0.0015337 -0.00579616 0)
(-0.00219384 -0.00498978 0)
(-0.00270706 -0.00415781 0)
(-0.00287484 -0.00352445 0)
(-0.00250816 -0.00303336 0)
(-0.00128123 -0.00297767 0)
(0.00102531 -0.00318287 0)
(0.00315735 -0.00368526 0)
(0.00398813 -0.00404703 0)
(0.00408708 -0.00415327 0)
(0.00305872 -0.00372568 0)
(0.0021567 -0.00315462 0)
(0.00142932 -0.00347065 0)
(0.00027761 -0.00266395 0)
(0.000623365 -0.00377216 0)
(-7.78479e-05 0.000549553 0)
(0.00227642 0.000608707 0)
(0.00174655 0.00149368 0)
(0.00148539 0.00213972 0)
(0.000672071 0.00192724 0)
(0.00105846 0.00164805 0)
(0.000745073 -0.00203203 0)
(0.000654898 -0.00142653 0)
(0.0010519 -0.00602754 0)
(0.00166883 0.00754592 0)
(0.00128768 0.0139006 0)
(-0.00145074 -0.000530683 0)
(-0.00295609 -0.0005044 0)
(-0.000647756 -0.000545888 0)
(-0.00158141 -0.00208182 0)
(0.00116474 -0.00509853 0)
(0.000362671 -0.00611368 0)
(0.00159596 -0.00762135 0)
(0.000940255 -0.00813786 0)
(-0.00309118 -0.00083062 0)
(0.00858769 -0.00242444 0)
(0.00168024 -0.00400306 0)
(-0.000912663 -0.00234376 0)
(-0.00149359 -0.00609573 0)
(-0.00139624 -0.00364531 0)
(0.00199592 -0.000279987 0)
(0.0023123 -0.00516981 0)
(0.000336669 -0.00456279 0)
(-0.00148974 -0.00265966 0)
(-0.000586164 -0.00548551 0)
(-0.00154204 -0.00255955 0)
(0.00115744 -0.00649795 0)
(0.000717346 -0.0076149 0)
(0.00229712 -0.000653923 0)
(0.00148991 -0.00913405 0)
(0.000651006 -0.00426002 0)
(0.000703295 -0.00345113 0)
(-0.0013959 -0.00751527 0)
(0.00344086 -0.00333056 0)
(0.00382174 -0.00325653 0)
(0.00254575 -0.00352737 0)
(0.00226804 -0.00342591 0)
(0.00117272 -0.00299808 0)
(0.00111511 -0.00299543 0)
(0.000901927 -0.00303397 0)
(0.00118077 -0.00276279 0)
(0.000460108 -0.00241296 0)
(0.000205707 -0.00230682 0)
(-0.00014937 -0.00229529 0)
(-0.000213634 -0.0024792 0)
(0.00018725 -0.0027905 0)
(0.000731691 -0.003217 0)
(0.0010749 -0.00382508 0)
(0.000997699 -0.00457731 0)
(0.000410692 -0.00546416 0)
(-0.000326753 -0.00638412 0)
(-0.000782104 -0.00692839 0)
(-0.000817094 -0.00734973 0)
(-0.00082644 -0.00752883 0)
(-0.0012049 -0.00752232 0)
(-0.00204875 -0.00703578 0)
(-0.00280958 -0.00634583 0)
(-0.0030316 -0.00596574 0)
(-0.00297575 -0.00576596 0)
(-0.00231633 -0.00587992 0)
(-0.000880567 -0.00652556 0)
(0.00112098 -0.00688063 0)
(0.00265558 -0.00653529 0)
(0.00326434 -0.00604326 0)
(0.0031248 -0.0051884 0)
(0.00221439 -0.0040962 0)
(0.00170693 -0.00351033 0)
(0.00108293 -0.00367943 0)
(2.7486e-05 -0.00295251 0)
(-0.000347555 -0.00104945 0)
(-0.00134238 -0.00200507 0)
(-0.00227174 0.000368251 0)
(-0.0026503 0.00179626 0)
(0.00107514 0.00372566 0)
(0.000655258 0.00254465 0)
(0.00199048 0.000973461 0)
(0.0018382 0.000419247 0)
(0.00546415 -0.00233125 0)
(0.00309866 -0.00158782 0)
(0.00970433 0.00318194 0)
(-0.00500048 0.00436232 0)
(-0.00237934 -0.00216966 0)
(-0.000147915 -0.00445729 0)
(-0.000955737 -0.00505683 0)
(0.00096376 -0.00544978 0)
(0.000812919 -0.00563835 0)
(0.00306107 -0.00599768 0)
(0.000950301 -0.00544289 0)
(0.00254408 -0.00978521 0)
(0.000862128 0.00912588 0)
(0.000388843 0.00859903 0)
(0.00030769 -0.00482781 0)
(-0.00166988 -0.000925209 0)
(-0.00234687 -0.0044722 0)
(-0.00670092 6.96854e-05 0)
(0.00345454 0.000901169 0)
(0.00394381 -0.00580682 0)
(0.000202715 -0.00594546 0)
(-0.000517023 -0.00503908 0)
(-0.000417763 -0.00592105 0)
(0.00164619 -0.00761457 0)
(-0.00335558 -0.00653322 0)
(0.00282506 -0.00650939 0)
(-0.00065824 -0.00251516 0)
(0.000282326 -0.00317394 0)
(0.00401788 -0.00303313 0)
(-0.00221835 -0.00262676 0)
(-0.00536746 0.00125303 0)
(0.00884042 0.00293636 0)
(0.00392438 -0.00263257 0)
(0.00230756 -0.00212528 0)
(0.00200206 -0.00156622 0)
(0.00134965 -0.00134878 0)
(0.00100273 -0.0012069 0)
(0.000701695 -0.00111641 0)
(0.000526475 -0.001006 0)
(0.000344901 -0.000809276 0)
(0.000131701 -0.000870487 0)
(1.60754e-05 -0.00105976 0)
(0.000156497 -0.00142879 0)
(0.000632839 -0.00195059 0)
(0.00126474 -0.00242286 0)
(0.00177235 -0.0029328 0)
(0.00190579 -0.00360561 0)
(0.0014498 -0.0044605 0)
(0.000729317 -0.00551063 0)
(5.06689e-05 -0.00649238 0)
(-0.000378766 -0.00728199 0)
(-0.00074367 -0.00760174 0)
(-0.00152163 -0.00743585 0)
(-0.00274079 -0.00682303 0)
(-0.00321583 -0.00644675 0)
(-0.00328705 -0.00623977 0)
(-0.00294522 -0.00612504 0)
(-0.00185333 -0.00647645 0)
(-0.000335568 -0.00707263 0)
(0.00108734 -0.00719975 0)
(0.00208311 -0.00663515 0)
(0.00243623 -0.00581687 0)
(0.00204986 -0.00483089 0)
(0.00153436 -0.00402261 0)
(0.00127256 -0.00355543 0)
(0.000783706 -0.00371034 0)
(-6.04154e-05 -0.00318152 0)
(-0.000301563 -0.0016435 0)
(-8.76032e-05 -0.00192704 0)
(-0.00202738 -0.000854127 0)
(-0.00691222 0.00299724 0)
(0.00657431 0.0039317 0)
(0.000774755 0.000584605 0)
(0.000375899 0.000158767 0)
(-0.00209377 -0.00165347 0)
(0.00429277 -0.00343391 0)
(0.0039081 -0.00224084 0)
(0.00643115 -0.00213 0)
(0.00103206 -0.00199391 0)
(0.000486903 -0.00284366 0)
(0.000742828 -0.00605322 0)
(-0.000306403 -0.00685182 0)
(0.00126823 -0.00549567 0)
(-0.00163471 -0.00574503 0)
(0.00146314 -0.00472315 0)
(0.00103224 -0.00365466 0)
(0.00372186 -0.00279468 0)
(0.00759976 0.00316968 0)
(-0.00582021 0.00194665 0)
(-0.00117149 -0.00215722 0)
(-0.00165418 -0.00123975 0)
(0.00211407 -0.00911323 0)
(0.00244965 0.0035815 0)
(0.000322687 0.00958417 0)
(0.000955722 -0.00870553 0)
(-0.00101693 -0.0102729 0)
(0.000221104 -0.00548795 0)
(-0.00191232 -0.00496965 0)
(-0.00159934 -0.00685246 0)
(-0.000843973 -0.00728331 0)
(-0.000904371 -0.00789467 0)
(0.00257302 -0.00700167 0)
(-0.00197834 -0.00813854 0)
(0.0046072 -0.00737755 0)
(0.0023932 -0.0102076 0)
(0.00227984 0.00807336 0)
(0.00224041 0.00961107 0)
(0.00126287 -0.00640681 0)
(0.00113035 -0.00265354 0)
(0.00113616 -0.00101822 0)
(0.00105428 -0.000636709 0)
(0.000830609 -0.000398218 0)
(0.000680096 -0.000388264 0)
(0.000562955 -0.000391493 0)
(0.000475124 -0.000372837 0)
(0.000362285 -0.000539344 0)
(0.000430958 -0.000762479 0)
(0.000706799 -0.00108789 0)
(0.00111261 -0.00156022 0)
(0.00170392 -0.00189751 0)
(0.00229983 -0.00230881 0)
(0.00252321 -0.00253481 0)
(0.00230266 -0.00300023 0)
(0.00170825 -0.00366479 0)
(0.000979952 -0.00439556 0)
(0.000248328 -0.00515787 0)
(-0.000647716 -0.00568579 0)
(-0.00194382 -0.00570407 0)
(-0.00310011 -0.00540747 0)
(-0.00341225 -0.00531918 0)
(-0.00339211 -0.00530476 0)
(-0.00274593 -0.00552149 0)
(-0.00144714 -0.00600335 0)
(-0.000128804 -0.00636282 0)
(0.000802427 -0.00631725 0)
(0.00132307 -0.0057886 0)
(0.00148661 -0.0050344 0)
(0.00137529 -0.00439401 0)
(0.00109494 -0.0038583 0)
(0.000911877 -0.00349735 0)
(0.000563603 -0.0037534 0)
(-7.85148e-05 -0.00331705 0)
(-0.000863949 -0.00449929 0)
(-0.000412422 -0.00570722 0)
(-0.000759348 -0.00921596 0)
(-0.00177046 0.00542102 0)
(-0.00176798 0.00475351 0)
(-0.00375678 -0.0116691 0)
(0.00167684 -0.0122684 0)
(0.00290967 -0.00915974 0)
(0.00260216 -0.0100317 0)
(0.00595459 -0.0121073 0)
(0.00344982 -0.00847364 0)
(0.00375181 -0.00816368 0)
(0.00133017 -0.00571015 0)
(0.000531871 -0.00666082 0)
(0.00128439 -0.00614241 0)
(-0.000209877 -0.00483149 0)
(-0.000643191 -0.00415868 0)
(0.000155538 -0.00356948 0)
(0.00114362 -0.00251422 0)
(0.00191958 -0.00239258 0)
(0.00253702 -0.000760363 0)
(-0.00217099 -0.00126841 0)
(-0.000942351 -0.00369037 0)
(0.000411276 -0.000762004 0)
(0.00199126 -0.00155522 0)
(0.00894753 -0.00183122 0)
(-0.00410843 -0.000954544 0)
(-0.00365814 -0.00587968 0)
(-0.000849274 -0.00614059 0)
(0.000922544 -0.00453123 0)
(-0.000615075 -0.00470434 0)
(-0.000127818 -0.0063286 0)
(0.000196118 -0.0083606 0)
(-0.00155602 -0.00871523 0)
(0.00340085 -0.0123141 0)
(-0.0025143 -0.0129373 0)
(0.00354821 -0.00847419 0)
(0.00252805 -0.0116925 0)
(0.00794342 -0.00318027 0)
(-0.00523639 -0.00020237 0)
(-0.0017424 -0.0053502 0)
(0.000150638 -0.00425259 0)
(0.000904748 -0.00374977 0)
(0.000901619 -0.00349804 0)
(0.000874763 -0.0030126 0)
(0.000692534 -0.00292009 0)
(0.000596901 -0.00282366 0)
(0.000480197 -0.00261327 0)
(0.000450142 -0.00257379 0)
(0.000621262 -0.00250371 0)
(0.000996514 -0.00245192 0)
(0.00151809 -0.00253345 0)
(0.00207108 -0.00247154 0)
(0.00248702 -0.0024887 0)
(0.00260644 -0.00240143 0)
(0.00252266 -0.00235964 0)
(0.00214291 -0.00241332 0)
(0.00157559 -0.0026174 0)
(0.000888569 -0.00299829 0)
(-0.000141751 -0.00344481 0)
(-0.00168393 -0.00379362 0)
(-0.00295136 -0.00408428 0)
(-0.00326681 -0.0042998 0)
(-0.00312939 -0.00457527 0)
(-0.00231904 -0.00494705 0)
(-0.00109214 -0.00535598 0)
(-7.56448e-05 -0.00555209 0)
(0.000484542 -0.00537399 0)
(0.000816024 -0.00497937 0)
(0.000997565 -0.00455843 0)
(0.000969387 -0.00416673 0)
(0.000805988 -0.0037729 0)
(0.000676946 -0.00348039 0)
(0.000422085 -0.00382526 0)
(-7.1687e-05 -0.00340574 0)
(0.000813937 -0.00588591 0)
(0.00168954 -0.00746529 0)
(0.00408914 -0.00861337 0)
(0.00692461 -0.00632867 0)
(-0.00342079 -0.0105981 0)
(-0.000547733 -0.0139428 0)
(-0.00169188 -0.0131084 0)
(0.00562281 -0.0211547 0)
(-0.00144394 -0.0164831 0)
(0.00253659 -0.0134395 0)
(0.000705066 -0.0117092 0)
(-0.000271832 -0.00777648 0)
(0.000865184 -0.00776363 0)
(-0.00104647 -0.0065451 0)
(-0.00011053 -0.00557784 0)
(-0.000730859 -0.00638153 0)
(-0.0020105 -0.00443903 0)
(-0.0019227 -0.00226695 0)
(0.00151521 -0.00210432 0)
(0.00319746 -0.00260443 0)
(0.00135677 -0.00320392 0)
(-0.000733 -0.00399106 0)
(-0.00198438 -0.0028044 0)
(0.0037488 -0.00124945 0)
(0.00112424 -0.00357 0)
(0.00295795 -0.00346823 0)
(-0.00322844 -0.00309852 0)
(0.00254896 -0.0053277 0)
(0.000166023 -0.00578477 0)
(0.00172427 -0.00385796 0)
(0.00123849 -0.00485375 0)
(0.00135876 -0.0044975 0)
(0.000431088 -0.00731316 0)
(0.00110865 -0.00418303 0)
(-0.000390787 -0.00826358 0)
(0.00313794 -0.010009 0)
(0.000292253 -0.00647482 0)
(0.00245008 -0.0147299 0)
(0.000183884 -0.00947108 0)
(-0.000503243 -0.00794033 0)
(-0.00199026 -0.00744448 0)
(-0.000361816 -0.00632974 0)
(0.000346442 -0.00636163 0)
(0.000418206 -0.00659363 0)
(0.000353148 -0.00629472 0)
(0.000456244 -0.00621764 0)
(0.000323764 -0.00596243 0)
(0.000162395 -0.00576575 0)
(0.000141986 -0.00568833 0)
(0.000313917 -0.0055441 0)
(0.000591037 -0.00537326 0)
(0.00108636 -0.00497392 0)
(0.00162814 -0.0043453 0)
(0.00212414 -0.00366162 0)
(0.00243969 -0.00292539 0)
(0.00236459 -0.0024455 0)
(0.00202039 -0.00204656 0)
(0.00158727 -0.00185232 0)
(0.00105863 -0.00189963 0)
(0.000146381 -0.00220548 0)
(-0.00123238 -0.00268138 0)
(-0.00251911 -0.00338771 0)
(-0.00293172 -0.00385841 0)
(-0.00278374 -0.00424836 0)
(-0.00195858 -0.00456156 0)
(-0.000837742 -0.00482418 0)
(-0.00012911 -0.00490477 0)
(0.000242474 -0.00475486 0)
(0.000529499 -0.00451805 0)
(0.000716713 -0.00427699 0)
(0.000704537 -0.00402128 0)
(0.000592251 -0.00372135 0)
(0.000501478 -0.00347374 0)
(0.000315551 -0.00388582 0)
(-6.16356e-05 -0.00346736 0)
(0.0014981 -0.0124747 0)
(0.00096325 -0.0116666 0)
(0.00269889 -0.0120168 0)
(0.00530452 -0.0105838 0)
(0.00182368 -0.0120349 0)
(0.00324503 -0.017926 0)
(-0.00166632 -0.0117306 0)
(0.0013016 -0.011035 0)
(0.000838299 -0.0145986 0)
(0.000664842 -0.00969943 0)
(0.000358422 -0.0117056 0)
(0.000786289 -0.0086391 0)
(-9.20408e-05 -0.00683946 0)
(-0.00085574 -0.00764473 0)
(-0.000263634 -0.00561086 0)
(-0.00207539 -0.00652766 0)
(-0.00233898 -0.00546237 0)
(-0.00724288 -0.000742207 0)
(0.00504012 -0.000533296 0)
(0.00567042 -0.00517068 0)
(0.000706578 -0.00653931 0)
(0.00010821 -0.00682733 0)
(-0.00732676 -0.00149997 0)
(0.00725212 -6.24852e-05 0)
(0.00115047 -0.00559529 0)
(0.00116985 -0.00873872 0)
(-0.000854654 -0.00360965 0)
(-0.00011603 -0.00339242 0)
(-8.57006e-05 -0.00700902 0)
(-0.000318393 -0.00134181 0)
(0.00243137 -0.00131271 0)
(0.00135023 -0.000862921 0)
(0.00361066 -0.00267547 0)
(0.00377753 -0.00240328 0)
(-0.000448353 -0.00290928 0)
(0.00479366 -0.00314086 0)
(-0.000793892 -0.0014188 0)
(0.00216089 -0.00703778 0)
(0.000380558 -0.00354915 0)
(-0.00245861 -0.00144685 0)
(-0.00248219 -0.00452794 0)
(0.00101036 -0.00126779 0)
(0.00123661 -0.0029601 0)
(0.000597894 -0.00393183 0)
(0.000438864 -0.00423167 0)
(0.000342219 -0.00436073 0)
(0.000250831 -0.00444463 0)
(0.000137139 -0.00452971 0)
(0.000210502 -0.00483439 0)
(0.000355805 -0.00511438 0)
(0.00048402 -0.00539151 0)
(0.000643822 -0.00539051 0)
(0.000897248 -0.00508701 0)
(0.00115601 -0.00447764 0)
(0.00145882 -0.00355805 0)
(0.00158971 -0.0025933 0)
(0.00152468 -0.00171585 0)
(0.00139396 -0.00118632 0)
(0.00118627 -0.00101772 0)
(0.000613886 -0.00119928 0)
(-0.000497779 -0.00174145 0)
(-0.00185141 -0.00270169 0)
(-0.00249835 -0.00332024 0)
(-0.00250011 -0.00368544 0)
(-0.00177053 -0.00405633 0)
(-0.000725541 -0.00435129 0)
(-0.000184106 -0.00445006 0)
(9.11199e-05 -0.00442619 0)
(0.000336723 -0.00430452 0)
(0.000519128 -0.00412663 0)
(0.000509304 -0.0039352 0)
(0.000430539 -0.00369442 0)
(0.000367584 -0.00347444 0)
(0.000233847 -0.00393305 0)
(-4.99365e-05 -0.00351123 0)
(0.0028178 -0.01944 0)
(0.000139709 -0.0163884 0)
(0.00237633 -0.012503 0)
(0.00393494 -0.0112671 0)
(0.00402516 -0.0110611 0)
(-0.00118256 -0.0112704 0)
(0.00464265 -0.00623586 0)
(-0.00333562 -0.008562 0)
(-0.000347038 -0.0105558 0)
(-0.00126307 -0.00833848 0)
(-0.00136217 -0.00775058 0)
(0.000800394 -0.00562081 0)
(-0.00286457 -0.00729841 0)
(-0.0029587 -0.00649464 0)
(0.00106555 -0.00728084 0)
(-0.00107189 -0.00792406 0)
(0.00162533 -0.00976399 0)
(-0.00128757 0.00498318 0)
(-0.00500595 0.00919608 0)
(0.00837747 -0.00816105 0)
(0.000415059 -0.0092289 0)
(0.00207093 -0.0128855 0)
(-0.00176094 0.00414062 0)
(0.000594736 0.00464072 0)
(-0.00133587 -0.0117299 0)
(-0.00136037 -0.00685182 0)
(0.00125862 -0.0060094 0)
(-0.00278954 -0.00665506 0)
(2.811e-05 -0.00693475 0)
(-2.3969e-05 -0.00282748 0)
(0.000573843 -0.00388825 0)
(0.00119456 -0.00345656 0)
(0.00094113 -0.00169324 0)
(0.00256595 -0.00179102 0)
(0.0015221 0.000311632 0)
(0.0033026 -0.000638838 0)
(0.00221432 -0.000258515 0)
(-4.59856e-05 -0.00125439 0)
(0.00360244 -0.00339231 0)
(-0.0051996 -0.00262705 0)
(-0.00684304 0.00074878 0)
(0.00596509 0.000210493 0)
(0.00239085 -0.00415474 0)
(0.00112251 -0.00502395 0)
(0.000705186 -0.00498789 0)
(0.000513782 -0.00498124 0)
(0.000539396 -0.00486901 0)
(0.000552045 -0.00500085 0)
(0.000698179 -0.00508659 0)
(0.000819252 -0.00521541 0)
(0.000798401 -0.00523797 0)
(0.000710744 -0.00511442 0)
(0.000630265 -0.00474324 0)
(0.000544332 -0.00407065 0)
(0.000488016 -0.00309488 0)
(0.000472838 -0.00196791 0)
(0.000618282 -0.00087677 0)
(0.000899892 1.74725e-05 0)
(0.00108049 0.000411483 0)
(0.000915791 0.000479235 0)
(0.00023754 0.000204303 0)
(-0.000836361 -0.000586942 0)
(-0.00181713 -0.00153484 0)
(-0.00204724 -0.0024617 0)
(-0.00132242 -0.00332632 0)
(-0.000442177 -0.00385507 0)
(-6.65834e-05 -0.004041 0)
(9.7305e-05 -0.00414457 0)
(0.000241342 -0.00413959 0)
(0.000384972 -0.00402174 0)
(0.000374921 -0.00385729 0)
(0.000307435 -0.00367038 0)
(0.000266296 -0.00347097 0)
(0.0001712 -0.0039669 0)
(-3.93317e-05 -0.0035425 0)
(-0.00295916 -0.0177754 0)
(-0.00161807 -0.0192581 0)
(-0.00726396 -0.0116175 0)
(0.00489386 -0.0092672 0)
(0.00219387 -0.0130785 0)
(0.00101197 -0.011892 0)
(0.00201911 -0.00984175 0)
(-0.000843037 -0.0148153 0)
(0.00203464 -0.0112156 0)
(-0.000259211 -0.00924214 0)
(-0.000222029 -0.00804381 0)
(0.000380968 -0.00965357 0)
(-0.00118067 -0.0117974 0)
(-0.0019048 -0.00379133 0)
(-0.0023139 -0.00287466 0)
(0.00236509 -0.00639562 0)
(0.0047435 -0.00328987 0)
(0.00867971 -0.0044748 0)
(-0.00352974 0.0133779 0)
(-9.564e-05 0.00562427 0)
(-0.000186796 -0.00770932 0)
(0.00154823 -0.00536572 0)
(0.00526722 -0.00121012 0)
(-0.00831161 0.00176258 0)
(-0.00346359 -0.00749152 0)
(-0.00423081 -0.00735413 0)
(0.000351629 -0.00605088 0)
(-0.000983512 -0.00684339 0)
(0.000655999 -0.00657727 0)
(0.00149276 -0.00516335 0)
(-0.000512173 -0.00529557 0)
(0.00183432 -0.00393935 0)
(-0.00108369 -0.002823 0)
(0.00131446 -0.00192321 0)
(0.000246138 0.000148521 0)
(0.00240037 0.000255346 0)
(0.000965237 0.00124818 0)
(0.000566478 -0.000226784 0)
(0.00190828 -0.00152141 0)
(-1.3652e-05 -0.00677196 0)
(0.00262547 0.00894254 0)
(0.000938512 0.00687331 0)
(0.000738862 -0.0093045 0)
(0.000445461 -0.00697063 0)
(0.000376222 -0.00638943 0)
(0.000113655 -0.0061532 0)
(0.000204568 -0.00611505 0)
(0.00028524 -0.00605212 0)
(0.000463088 -0.00601107 0)
(0.000512618 -0.00586768 0)
(0.000449567 -0.00561588 0)
(0.000209402 -0.00519418 0)
(-8.98523e-05 -0.00456929 0)
(-0.000423716 -0.0035774 0)
(-0.000644123 -0.00240897 0)
(-0.000704174 -0.00132913 0)
(-0.000428949 -0.000272462 0)
(9.33122e-05 0.000510087 0)
(0.000694137 0.00106462 0)
(0.000862597 0.00118869 0)
(0.000613509 0.00105453 0)
(1.43726e-05 0.000510818 0)
(-0.000612129 -0.000487235 0)
(-0.000764755 -0.00184467 0)
(-0.000411483 -0.00319937 0)
(-3.54142e-05 -0.0037869 0)
(0.000121021 -0.00399342 0)
(0.000154543 -0.00407449 0)
(0.000191876 -0.00407665 0)
(0.00024976 -0.00398408 0)
(0.000248207 -0.00381031 0)
(0.000216459 -0.00365631 0)
(0.000188201 -0.00346998 0)
(0.000123483 -0.00399273 0)
(-2.93482e-05 -0.00356481 0)
(-0.000307603 -0.00562275 0)
(0.0022998 -0.00912119 0)
(-0.00212464 0.00327618 0)
(0.000771723 0.00433021 0)
(-0.00172038 -0.0135869 0)
(0.0024757 -0.0102073 0)
(-0.00146081 -0.00596568 0)
(-0.000958765 -0.00481787 0)
(-2.04817e-05 -0.00580078 0)
(-0.00157867 -0.00655584 0)
(-0.00253272 -0.00402222 0)
(-0.00536298 -0.00389777 0)
(-0.00346967 -0.0080353 0)
(-0.00307688 -0.00577906 0)
(-0.0110753 -0.00178922 0)
(0.00574967 0.00018972 0)
(0.00581253 -0.00227643 0)
(0.00611559 -0.00201133 0)
(0.00721541 0.00342342 0)
(-0.00805013 0.00106376 0)
(0.000759079 -0.000920206 0)
(-0.00152004 -0.00206471 0)
(0.00349881 -0.000108142 0)
(-0.00233602 0.000945761 0)
(-0.00192519 -0.00531049 0)
(-0.00137605 -0.00332269 0)
(-0.00143421 -0.00364758 0)
(-0.00165441 -0.00766316 0)
(-0.000778976 -0.006408 0)
(-0.000350526 -0.00483744 0)
(-0.000940707 -0.00345882 0)
(-0.000126627 -0.0035046 0)
(-0.00130485 -0.00400284 0)
(-0.0011984 -0.00339786 0)
(-0.000924292 -0.00216849 0)
(0.000328928 -0.00143819 0)
(0.00203226 -0.00303016 0)
(0.00176701 -0.00276713 0)
(0.00297616 -0.00478111 0)
(0.00284646 -0.00376323 0)
(0.00864854 -0.00062288 0)
(-0.00450123 -0.00435171 0)
(-0.000429824 -0.00738924 0)
(0.000602683 -0.00825696 0)
(0.000601816 -0.0079157 0)
(0.000548074 -0.0078179 0)
(0.000516298 -0.00747556 0)
(0.000558984 -0.00728773 0)
(0.000598391 -0.0069451 0)
(0.000477796 -0.00654319 0)
(0.000226057 -0.00599144 0)
(-0.000365033 -0.00517918 0)
(-0.00103785 -0.00411303 0)
(-0.00163448 -0.0031122 0)
(-0.00178157 -0.00200932 0)
(-0.00167758 -0.000979121 0)
(-0.00119868 -3.43427e-05 0)
(-0.000428597 0.000533155 0)
(0.000392855 0.000946197 0)
(0.000855016 0.000876973 0)
(0.000872691 0.000497298 0)
(0.000661931 -0.000217651 0)
(0.000532257 -0.00125483 0)
(0.000576874 -0.0025483 0)
(0.000561588 -0.00343243 0)
(0.000404624 -0.00379724 0)
(0.000239633 -0.00393714 0)
(0.000173927 -0.00399198 0)
(0.000151176 -0.00398915 0)
(0.000136439 -0.0039098 0)
(0.000142073 -0.00377153 0)
(0.000145443 -0.00364287 0)
(0.000127203 -0.00346671 0)
(8.70345e-05 -0.00401065 0)
(-2.08306e-05 -0.00358026 0)
(0.00358211 0.00911559 0)
(0.00293079 0.0101627 0)
(0.00709536 0.0138988 0)
(-0.00552673 0.0145192 0)
(-0.00234709 0.00948872 0)
(-0.000197003 0.0101845 0)
(-0.00063443 0.0111091 0)
(-0.00115812 0.0087828 0)
(-0.00187838 0.00674973 0)
(-0.0027107 0.00362676 0)
(0.000788626 0.00200219 0)
(-0.00226915 -5.00003e-05 0)
(-0.00239685 -0.00272007 0)
(0.000184766 -0.00717085 0)
(-0.0030147 0.00710735 0)
(-0.00477723 0.00939288 0)
(0.00708502 -0.00665384 0)
(0.00557541 -0.00785148 0)
(0.00167247 -0.0057638 0)
(-0.00284973 -0.00512885 0)
(-0.00193361 -0.00304606 0)
(-0.00289287 -0.00207659 0)
(0.001773 -0.000274821 0)
(-0.00149251 -0.000497195 0)
(-0.000238443 -0.00182847 0)
(-0.00036316 -0.00311958 0)
(-0.000775408 -0.0038746 0)
(-0.0013727 -0.00470692 0)
(-0.000737813 -0.00445058 0)
(-0.000973015 -0.00448236 0)
(-0.0011869 -0.0045254 0)
(-0.000934237 -0.00226825 0)
(-0.00102261 -0.00107546 0)
(-7.09403e-05 0.0013709 0)
(-0.000751512 0.00333512 0)
(0.00212422 0.00344553 0)
(0.00337692 0.0019091 0)
(0.00372939 -4.17077e-05 0)
(0.0024401 -0.00208334 0)
(0.00841509 -0.0030091 0)
(0.00314353 -0.00342322 0)
(0.000756392 -0.00695172 0)
(-6.11269e-05 -0.00720532 0)
(-1.07908e-05 -0.0081633 0)
(-0.000214632 -0.00835725 0)
(-0.000225568 -0.00802108 0)
(-0.00042356 -0.00773779 0)
(-0.000340849 -0.00733356 0)
(-0.000267619 -0.00670418 0)
(-0.000480068 -0.00614312 0)
(-0.000996852 -0.00528013 0)
(-0.00159387 -0.0045169 0)
(-0.00218205 -0.00371508 0)
(-0.00263578 -0.00329578 0)
(-0.00285151 -0.00267105 0)
(-0.00269214 -0.00218055 0)
(-0.00203627 -0.00151941 0)
(-0.0009172 -0.000993433 0)
(0.000317801 -0.000591256 0)
(0.00130207 -0.000693772 0)
(0.00175065 -0.0012659 0)
(0.00181838 -0.00220768 0)
(0.00170355 -0.00312981 0)
(0.00132478 -0.00380097 0)
(0.000783745 -0.00396218 0)
(0.000469795 -0.00390864 0)
(0.000305579 -0.00390624 0)
(0.000176336 -0.00392745 0)
(9.03516e-05 -0.00392425 0)
(5.46891e-05 -0.00385639 0)
(7.19306e-05 -0.00375059 0)
(8.26596e-05 -0.00363266 0)
(7.68535e-05 -0.00346592 0)
(5.6715e-05 -0.0040251 0)
(-1.39533e-05 -0.00359079 0)
(0.00295812 0.00098666 0)
(0.00331376 -1.37375e-05 0)
(0.0016115 -0.000174245 0)
(-0.00110739 -0.000355852 0)
(-0.00264276 -0.00195234 0)
(-0.000692686 -0.00285984 0)
(-0.000437852 -0.00352462 0)
(0.000567374 -0.00536376 0)
(0.000723023 -0.00731438 0)
(0.00119242 -0.00406074 0)
(1.04651e-05 -0.00270525 0)
(0.00256182 -0.00657521 0)
(0.00245547 -0.00519036 0)
(0.00627018 -0.00728595 0)
(0.008714 -0.009105 0)
(-0.00391136 0.00731303 0)
(-0.000190817 0.00436511 0)
(0.00135849 -0.0122216 0)
(0.000399501 -0.00890886 0)
(-0.00436895 -0.00679174 0)
(-0.00267767 -0.00509196 0)
(-0.00835189 -0.000739878 0)
(0.00463896 -0.000500865 0)
(-0.000209999 -0.00247344 0)
(-0.000635633 -0.00335852 0)
(0.000250451 -0.000461845 0)
(-0.000182538 -0.000271123 0)
(-0.000521897 -0.00474009 0)
(0.000121498 -0.00463232 0)
(-0.00126995 -0.00660501 0)
(-0.00201119 -0.00629714 0)
(-0.00247007 -0.00741386 0)
(-0.00312686 -0.00575259 0)
(-0.00431786 -0.00346949 0)
(-0.00802474 0.000509501 0)
(0.00449197 0.00116498 0)
(0.00578 -0.00423166 0)
(0.00497584 -0.00682016 0)
(0.00447763 -0.00366532 0)
(0.00823117 -0.000726789 0)
(0.0048102 -0.00304209 0)
(0.00297731 -0.000823727 0)
(0.00127923 -0.00119405 0)
(0.000562893 -0.00130062 0)
(0.000192339 -0.00142055 0)
(6.21019e-05 -0.00192104 0)
(-0.000224117 -0.00223992 0)
(-0.000360515 -0.00275511 0)
(-0.000531544 -0.00300078 0)
(-0.000807661 -0.00309128 0)
(-0.00142141 -0.00312585 0)
(-0.00175675 -0.0032862 0)
(-0.00221373 -0.00356592 0)
(-0.00258689 -0.0040907 0)
(-0.00282137 -0.00439281 0)
(-0.00275556 -0.00453103 0)
(-0.00232391 -0.00452333 0)
(-0.00135144 -0.00434663 0)
(8.60324e-05 -0.00400652 0)
(0.00163477 -0.00383908 0)
(0.0022857 -0.00398809 0)
(0.00239641 -0.00417709 0)
(0.00211841 -0.00435767 0)
(0.00137201 -0.00431837 0)
(0.000668915 -0.00411594 0)
(0.000399237 -0.00397134 0)
(0.000278949 -0.00388311 0)
(0.000172334 -0.00386196 0)
(5.70395e-05 -0.00385218 0)
(-3.88316e-06 -0.00379884 0)
(1.40014e-05 -0.0037123 0)
(3.89449e-05 -0.00361437 0)
(4.29497e-05 -0.00345812 0)
(3.66881e-05 -0.00403258 0)
(-7.68716e-06 -0.00359715 0)
(0.00445363 -0.00471405 0)
(0.00287724 -0.00526075 0)
(0.00178277 -0.00543298 0)
(0.00171255 -0.00601168 0)
(0.000457571 -0.00823352 0)
(0.00148456 -0.00662017 0)
(0.000178392 -0.00652784 0)
(-0.000815286 -0.00681158 0)
(-0.000273374 -0.00615221 0)
(0.00170185 -0.00686434 0)
(-0.00123856 -0.00650361 0)
(0.00237422 -0.00664057 0)
(0.00148976 -0.00624869 0)
(0.00238275 -0.00532807 0)
(0.00543933 -0.00570155 0)
(0.00523824 0.000664413 0)
(-0.00657695 -2.09814e-05 0)
(-0.00262697 -0.00480445 0)
(0.000804647 -0.00958161 0)