/*--------------------------------*- C++ -*----------------------------------*\
  =========                 |
  \\      /  F ield         | OpenFOAM: The Open Source CFD Toolbox
   \\    /   O peration     | Website:  https://openfoam.org
    \\  /    A nd           | Version:  12
     \\/     M anipulation  |
\*---------------------------------------------------------------------------*/
FoamFile
{
    format      ascii;
    class       volVectorField;
    location    "0.75";
    object      U.water;
}
// * * * * * * * * * * * * * * * * * * * * * * * * * * * * * * * * * * * * * //

dimensions      [0 1 -1 0 0 0 0];

internalField   nonuniform List<vector> 
3750
(
(0.00282061 0.0151923 0)
(8.68748e-05 0.0152258 0)
(0.00109255 0.0148975 0)
(-0.00166254 0.01446 0)
(0.000963306 0.0149945 0)
(-0.000152883 0.0146856 0)
(0.0012155 0.0133946 0)
(0.000142401 0.0119475 0)
(-0.000955497 0.0107839 0)
(0.000344616 0.0096871 0)
(-0.00132479 0.00900197 0)
(-0.0039214 0.00557095 0)
(0.00185828 0.00523361 0)
(0.00214671 0.00420123 0)
(0.00782967 0.0274306 0)
(-0.00573774 0.0279524 0)
(-0.00238802 0.00558296 0)
(-0.00141113 0.00888097 0)
(0.000138752 0.0109911 0)
(0.000346809 0.0134431 0)
(-7.58242e-05 0.0089354 0)
(0.00108709 0.00817791 0)
(-0.00165053 0.0104131 0)
(0.00207891 0.0117067 0)
(0.000860812 0.0167048 0)
(0.00191254 0.0142832 0)
(0.000226167 0.0155541 0)
(0.00098644 0.0128401 0)
(-0.00399044 0.0149536 0)
(-0.00558598 0.0192946 0)
(-0.0174095 0.00761025 0)
(-0.00507385 0.00199755 0)
(-0.0020238 0.00677621 0)
(-0.000780151 0.00848651 0)
(-0.00110817 0.0102726 0)
(-0.000928479 0.0131539 0)
(0.00131569 0.0136312 0)
(-8.20259e-05 0.0111587 0)
(0.00231907 0.00762973 0)
(0.000386576 0.00673356 0)
(0.00239805 0.00589359 0)
(-0.000181189 0.00459051 0)
(3.4935e-05 0.00374599 0)
(0.00041069 0.00161314 0)
(0.000426713 0.00109158 0)
(0.000765149 -0.000208233 0)
(0.00114764 -0.00151457 0)
(0.000660126 -0.00302101 0)
(0.00033682 -0.00372668 0)
(-0.000710624 -0.00353394 0)
(-0.00106681 -0.00333249 0)
(-0.000941623 -0.00259239 0)
(-0.000994399 -0.00138732 0)
(-0.00094851 -0.000772893 0)
(-0.000889919 -1.25856e-06 0)
(-0.000802202 0.000802169 0)
(-0.00057622 0.00160705 0)
(-0.000444341 0.00238886 0)
(-0.000263631 0.00307695 0)
(-0.000266865 0.00367749 0)
(-0.000283834 0.0042816 0)
(-0.00030595 0.00484496 0)
(-0.000323211 0.0055428 0)
(-0.000325955 0.0063233 0)
(-0.000302445 0.00730049 0)
(-0.000167237 0.00828191 0)
(0.000101127 0.00907458 0)
(0.000620046 0.00916376 0)
(0.000866098 0.0084381 0)
(0.000822569 0.00685401 0)
(0.000642501 0.00494602 0)
(0.000530679 0.00312887 0)
(0.000934071 0.00175968 0)
(0.000853132 -0.000359784 0)
(0.000457456 -0.0011349 0)
(0.000325237 0.011627 0)
(0.000140666 0.00950764 0)
(-0.000416676 0.0115264 0)
(-0.000308822 0.0102149 0)
(0.00042073 0.0140942 0)
(0.00121591 0.0136295 0)
(0.00184727 0.0137412 0)
(0.00264144 0.012534 0)
(0.00266366 0.0139404 0)
(0.00171545 0.0146532 0)
(0.00156135 0.00769373 0)
(0.00129092 0.00707398 0)
(0.00120026 0.00751389 0)
(0.00348928 0.00339207 0)
(0.00788225 0.0152737 0)
(-0.00984751 0.0168734 0)
(-0.00542199 0.0122595 0)
(-0.0040387 0.013248 0)
(-0.002692 0.014658 0)
(0.000199529 0.0143627 0)
(-0.00286711 0.0114798 0)
(-0.000754445 0.00781096 0)
(-0.00231589 0.00687116 0)
(0.00197868 0.00733598 0)
(1.25174e-05 0.0107981 0)
(0.00030494 0.0102609 0)
(0.000872068 0.014038 0)
(-0.00160387 0.0119872 0)
(-0.000729569 0.00938337 0)
(-0.00743482 0.00480546 0)
(-0.00880767 0.00494068 0)
(-0.00618379 0.0108004 0)
(-0.00161307 0.00797527 0)
(-0.00100162 0.0058615 0)
(-0.00198221 0.0074714 0)
(-0.00670516 0.0122377 0)
(0.00614057 0.0100733 0)
(0.00180162 0.00676217 0)
(0.00138405 0.0038563 0)
(0.00290861 0.00211129 0)
(0.00354457 0.00334517 0)
(0.00206478 0.00273358 0)
(0.00105335 0.000521306 0)
(0.00199904 0.000249871 0)
(0.00182079 -0.000127711 0)
(0.00106553 7.8603e-05 0)
(0.00203945 0.000294813 0)
(0.00139721 0.00075322 0)
(0.00113318 0.000776212 0)
(-0.000221801 0.00100843 0)
(-0.000832291 0.000409038 0)
(-0.000628318 -2.13387e-05 0)
(-0.00067239 -0.000424912 0)
(-0.000521034 -0.00125718 0)
(-0.000577831 -0.00195361 0)
(-0.00083423 -0.0025039 0)
(-0.000942856 -0.00257813 0)
(-0.00105659 -0.00242964 0)
(-0.00102066 -0.00209229 0)
(-0.000920753 -0.0018101 0)
(-0.000851475 -0.00149888 0)
(-0.000922301 -0.00105148 0)
(-0.00113933 -0.000320376 0)
(-0.00148658 0.00075458 0)
(-0.00177435 0.00202752 0)
(-0.00170388 0.00335647 0)
(-0.0010935 0.0044268 0)
(0.000133064 0.00485944 0)
(0.00149394 0.00418961 0)
(0.00255467 0.00270083 0)
(0.00307066 0.000766941 0)
(0.00292622 -0.00109519 0)
(0.00240201 -0.00175297 0)
(0.00183698 -0.00265438 0)
(0.000433241 -0.00220808 0)
(-0.00173612 0.00413285 0)
(0.00162846 0.00315068 0)
(0.000373583 -6.59371e-05 0)
(0.00134598 0.000657635 0)
(-0.00120292 0.000670263 0)
(-0.00111747 0.00207585 0)
(-0.000937046 0.00290078 0)
(0.00053417 0.00519596 0)
(-0.000249721 0.00549427 0)
(0.000698267 0.00641041 0)
(-0.00223926 0.00523624 0)
(0.00607528 0.00364425 0)
(0.00104251 0.00554764 0)
(0.0028479 0.00935584 0)
(0.00233231 0.0102451 0)
(-0.00461602 0.00968435 0)
(-0.00336053 0.00703559 0)
(-0.00636706 0.00439664 0)
(-0.00676471 0.00888478 0)
(0.00597158 0.00511664 0)
(0.00229867 0.000696286 0)
(0.0011183 -0.00318543 0)
(0.000842311 -0.00340146 0)
(0.00161068 -0.00392577 0)
(0.00146262 -0.00383033 0)
(-0.000792073 -0.001597 0)
(0.0026365 -0.000945847 0)
(-0.00171694 -0.00363948 0)
(0.00310082 -0.00372683 0)
(-0.0014489 -0.00619891 0)
(0.00465497 -0.00173792 0)
(-0.00269195 0.00178607 0)
(0.0012942 0.00133622 0)
(-0.00366801 -0.00231897 0)
(0.00109062 -0.00530201 0)
(5.87596e-05 0.00768006 0)
(-0.000215861 0.00755577 0)
(0.00296412 -0.0111838 0)
(0.000859796 -0.00801797 0)
(0.0038032 -0.0068711 0)
(0.00283293 -0.00706559 0)
(0.0017194 -0.0060938 0)
(0.00177039 -0.005817 0)
(0.00128691 -0.00481981 0)
(0.000957714 -0.00465362 0)
(0.00035727 -0.00426825 0)
(0.000947678 -0.00312698 0)
(0.000225901 -0.00247669 0)
(0.000312211 -0.0026116 0)
(-0.000360218 -0.00208334 0)
(-0.000448897 -0.002215 0)
(-3.64319e-05 -0.00256503 0)
(0.000221975 -0.00307423 0)
(0.000468635 -0.00383985 0)
(0.000339361 -0.00460331 0)
(-0.000296442 -0.00539178 0)
(-0.000711548 -0.00580462 0)
(-0.000894251 -0.00593994 0)
(-0.000914903 -0.00603791 0)
(-0.000900084 -0.0060849 0)
(-0.00104941 -0.00603235 0)
(-0.00153716 -0.00564106 0)
(-0.00219663 -0.00483345 0)
(-0.00270828 -0.00400106 0)
(-0.00287572 -0.00336701 0)
(-0.0025089 -0.00287508 0)
(-0.00128189 -0.0028189 0)
(0.00102347 -0.00302378 0)
(0.00315351 -0.00352679 0)
(0.00398536 -0.00388881 0)
(0.00408528 -0.00399571 0)
(0.0030575 -0.00357271 0)
(0.0021563 -0.0030002 0)
(0.00142803 -0.00330606 0)
(0.000279133 -0.00250931 0)
(0.000594264 -0.00256787 0)
(0.000520748 0.000377079 0)
(0.00293717 -0.000450897 0)
(0.00148988 0.000658727 0)
(5.16279e-05 0.00143883 0)
(-0.00149692 0.00167701 0)
(-0.000937532 0.0026929 0)
(-0.0016579 0.00133109 0)
(-0.00183107 0.00363418 0)
(-0.00232186 -0.00155536 0)
(-0.00373312 -0.00185862 0)
(0.00132946 0.00240071 0)
(0.00358856 -0.000598915 0)
(0.0020701 0.00176902 0)
(0.00269566 0.00156914 0)
(-0.000613712 -0.000531121 0)
(0.000886266 -0.0051285 0)
(-0.000239726 -0.0104246 0)
(0.00100798 0.00414647 0)
(0.00182253 0.00199872 0)
(-0.00147665 -0.0127287 0)
(0.00215407 -0.0113042 0)
(-0.00102977 -0.00785021 0)
(0.000147634 -0.00376136 0)
(0.00104178 -0.00582645 0)
(0.00152684 -0.00582172 0)
(0.000398453 -0.00295297 0)
(-0.000478398 -0.00583535 0)
(-0.000207608 -0.00581277 0)
(0.000500115 -0.00394514 0)
(0.00412234 -0.00451931 0)
(0.00105997 0.000405275 0)
(0.00272347 -0.00220427 0)
(0.00144544 -0.00461771 0)
(0.00458155 0.000840584 0)
(0.0086399 -0.00202632 0)
(-0.00425884 0.000874155 0)
(0.000739375 -0.0050146 0)
(0.000436802 -0.00921288 0)
(0.00188788 -0.00592864 0)
(0.001299 -0.0053962 0)
(0.000984628 -0.00424971 0)
(0.00127613 -0.00374794 0)
(0.000512844 -0.00318936 0)
(0.000638461 -0.00310759 0)
(0.000531821 -0.00308723 0)
(0.000874173 -0.00278938 0)
(0.000255089 -0.00242096 0)
(5.82929e-05 -0.0022768 0)
(-0.000258562 -0.00223301 0)
(-0.000288849 -0.00239574 0)
(0.000130038 -0.00268573 0)
(0.000688073 -0.00309778 0)
(0.00104091 -0.00369684 0)
(0.000971323 -0.00444228 0)
(0.000390165 -0.00532386 0)
(-0.000341868 -0.0062391 0)
(-0.000792254 -0.00678 0)
(-0.000824032 -0.007199 0)
(-0.000832068 -0.00737579 0)
(-0.0012107 -0.00736702 0)
(-0.00205426 -0.00687816 0)
(-0.00281277 -0.00618845 0)
(-0.00303335 -0.00580813 0)
(-0.00297672 -0.00560786 0)
(-0.00231625 -0.00572243 0)
(-0.000881012 -0.00636781 0)
(0.00111913 -0.00672246 0)
(0.00265244 -0.00637791 0)
(0.00326154 -0.00588635 0)
(0.00312266 -0.00503217 0)
(0.00221348 -0.0039439 0)
(0.00170647 -0.00335603 0)
(0.00108231 -0.00351445 0)
(2.86191e-05 -0.00279812 0)
(5.65821e-05 -0.000615727 0)
(-0.000445793 -0.00142668 0)
(-0.00034312 -0.000997515 0)
(-0.00172872 -0.000453431 0)
(-0.0017188 0.00168221 0)
(-0.00290573 0.00205887 0)
(0.000390757 0.00192595 0)
(0.000194799 0.00276552 0)
(0.00238442 0.000895603 0)
(-0.00337747 -0.0010749 0)
(-0.00312637 0.00169723 0)
(0.00667674 0.00187183 0)
(0.00513809 -0.00407757 0)
(0.00415258 -0.00444596 0)
(0.00205482 -0.00452201 0)
(0.00283803 -0.00498318 0)
(0.00209517 -0.00550264 0)
(0.00464988 -0.00547381 0)
(0.00646933 0.00058475 0)
(-0.00649862 -0.00476946 0)
(-0.00474306 -0.00310961 0)
(-0.00373996 -0.00187728 0)
(0.00076203 -0.00329544 0)
(0.000349729 0.00132923 0)
(0.000987127 -0.00321788 0)
(-0.00204928 -0.004801 0)
(0.00146843 -0.00494542 0)
(0.00014055 -0.0056949 0)
(0.000494924 -0.00426904 0)
(0.0017451 -0.00492437 0)
(0.00249984 -0.0055738 0)
(0.00377665 -0.00453329 0)
(-0.00161521 -0.00322554 0)
(0.00308008 -0.00347546 0)
(0.000528352 0.000437761 0)
(0.00203286 0.00118977 0)
(0.00234149 0.00229872 0)
(0.000221006 -0.00122877 0)
(-0.00123965 -0.00336231 0)
(0.00324154 -0.00327342 0)
(-0.00019521 -0.00421716 0)
(0.000644229 -0.00157678 0)
(0.00104769 -0.00130652 0)
(0.000688127 -0.0012539 0)
(0.00050093 -0.00116503 0)
(0.000304898 -0.00107541 0)
(0.000210555 -0.000953004 0)
(0.000106131 -0.000741949 0)
(-4.2399e-05 -0.00078765 0)
(-0.00011421 -0.000962249 0)
(6.20407e-05 -0.00131767 0)
(0.000563605 -0.00182689 0)
(0.0012127 -0.00229017 0)
(0.00173272 -0.00279424 0)
(0.00187493 -0.00346294 0)
(0.0014256 -0.00431482 0)
(0.000710874 -0.00536234 0)
(3.7436e-05 -0.00634136 0)
(-0.000388191 -0.00712824 0)
(-0.000751438 -0.00744563 0)
(-0.0015297 -0.00727761 0)
(-0.00274642 -0.00666444 0)
(-0.0032187 -0.00628874 0)
(-0.00328888 -0.00608177 0)
(-0.00294559 -0.00596738 0)
(-0.00185286 -0.00631957 0)
(-0.000336027 -0.00691557 0)
(0.00108592 -0.00704231 0)
(0.00208147 -0.00647827 0)
(0.00243477 -0.00566099 0)
(0.00204879 -0.00467572 0)
(0.00153374 -0.00387051 0)
(0.00127225 -0.00340124 0)
(0.000782938 -0.00354514 0)
(-5.96047e-05 -0.00302705 0)
(0.000395501 -0.000510659 0)
(0.000591215 -0.000652818 0)
(0.000590181 -0.00190132 0)
(-0.00351556 -0.00256757 0)
(0.000659397 -0.00124325 0)
(-0.0042302 0.00156138 0)
(0.00104426 0.00308022 0)
(-0.00181905 0.000184429 0)
(0.00419364 -0.00295419 0)
(0.00162084 -0.00780104 0)
(0.0043749 0.00678332 0)
(0.00324384 0.00650157 0)
(0.0037505 -0.0102434 0)
(0.00344976 -0.00813744 0)
(0.00207291 -0.00723122 0)
(0.00318297 -0.00561756 0)
(2.53835e-05 -0.00592721 0)
(0.00241406 -0.00468586 0)
(0.000750553 -0.00251462 0)
(-0.00332089 -0.00396094 0)
(-0.00159728 -0.00382559 0)
(-0.0100752 -0.000919997 0)
(0.00763086 0.000337807 0)
(0.0017398 0.000136499 0)
(0.0015607 -0.00624 0)
(0.00084168 -0.00418326 0)
(0.000815403 -0.00158166 0)
(0.00275291 -0.00696139 0)
(0.00106481 -0.00551572 0)
(0.00230892 -0.004138 0)
(0.000934027 -0.00409656 0)
(0.000916058 -0.00495701 0)
(0.000179034 -0.0050537 0)
(-9.457e-05 -0.00541831 0)
(0.00266901 -0.00397412 0)
(-0.00193885 -0.00392014 0)
(0.00354188 -0.00161511 0)
(0.00039602 -0.00596358 0)
(0.000340936 -0.00183068 0)
(0.000825203 -0.000968005 0)
(0.000604094 -0.00475253 0)
(0.000599366 -0.000200659 0)
(0.000592133 -0.000337938 0)
(0.000517675 -0.000376565 0)
(0.000353816 -0.000247117 0)
(0.000282113 -0.000258632 0)
(0.000244082 -0.000262686 0)
(0.000226731 -0.000241077 0)
(0.000173824 -0.000402886 0)
(0.000290082 -0.000622641 0)
(0.000603038 -0.000945069 0)
(0.00103636 -0.00141372 0)
(0.00164721 -0.00174841 0)
(0.00225674 -0.00215729 0)
(0.00249013 -0.00238221 0)
(0.00227682 -0.00284692 0)
(0.00168817 -0.00351083 0)
(0.000964578 -0.004241 0)
(0.000236477 -0.00500191 0)
(-0.000657351 -0.0055282 0)
(-0.0019524 -0.00554531 0)
(-0.00310491 -0.0052497 0)
(-0.00341511 -0.00516185 0)
(-0.00339364 -0.00514747 0)
(-0.00274545 -0.00536491 0)
(-0.00144625 -0.00584688 0)
(-0.000129263 -0.00620592 0)
(0.000801091 -0.00616032 0)
(0.00132191 -0.00563204 0)
(0.00148574 -0.00487849 0)
(0.0013745 -0.00423876 0)
(0.00109434 -0.00370614 0)
(0.000911764 -0.00334324 0)
(0.000563047 -0.00358804 0)
(-7.80017e-05 -0.00316251 0)
(-0.00070156 -0.00331992 0)
(-0.000625529 -0.00318082 0)
(-0.00135786 -0.00775339 0)
(-0.00261437 -0.00577659 0)
(-0.00356832 -0.005449 0)
(-0.00978722 -0.00568245 0)
(0.00845473 -0.00595757 0)
(0.00503693 -0.00766463 0)
(0.00422904 -0.00924186 0)
(0.0072093 -0.0134688 0)
(0.00972948 -0.0055444 0)
(-0.00271717 -0.00523941 0)
(0.000729704 -0.00700666 0)
(0.00171563 -0.00752069 0)
(0.00296438 -0.0063517 0)
(0.00185175 -0.00506185 0)
(0.00150747 -0.00499598 0)
(0.00130091 -0.00498494 0)
(0.000219321 -0.00439219 0)
(-0.0017872 -0.00658646 0)
(-0.000709003 -0.0101617 0)
(-0.0014022 0.00580886 0)
(-0.000183869 0.00571105 0)
(-0.000916972 -0.00787146 0)
(-0.00208353 -0.00511972 0)
(0.00244284 -0.0055205 0)
(-0.00109027 -0.00358049 0)
(0.00266512 -0.00418803 0)
(0.00234122 -0.00406681 0)
(0.00325451 -0.00360107 0)
(0.00162557 -0.0039553 0)
(0.00183806 -0.00509947 0)
(0.00147626 -0.00674897 0)
(0.000160379 -0.00659069 0)
(0.00322796 -0.0101545 0)
(-0.00316376 -0.00974284 0)
(0.0016544 -0.00528731 0)
(-0.00276746 -0.0110588 0)
(0.00135462 -0.00723743 0)
(-0.00122776 -0.00510227 0)
(0.00139412 -0.00596277 0)
(0.000918358 -0.00358013 0)
(0.000709595 -0.0034897 0)
(0.000438819 -0.00333169 0)
(0.000402576 -0.00282968 0)
(0.000290785 -0.00271902 0)
(0.000277629 -0.00261891 0)
(0.000235428 -0.00241438 0)
(0.000265465 -0.00238277 0)
(0.000482851 -0.0023207 0)
(0.000893912 -0.00227553 0)
(0.00144187 -0.00236163 0)
(0.00201408 -0.00230368 0)
(0.00244385 -0.00232351 0)
(0.00257366 -0.002238 0)
(0.00249724 -0.00219758 0)
(0.00212306 -0.00225263 0)
(0.00155999 -0.00245778 0)
(0.000875868 -0.00283906 0)
(-0.000152865 -0.00328602 0)
(-0.00169293 -0.00363568 0)
(-0.00295645 -0.00392713 0)
(-0.00326976 -0.00414302 0)
(-0.00313053 -0.00441863 0)
(-0.00231853 -0.0047904 0)
(-0.00109154 -0.00519906 0)
(-7.60217e-05 -0.00539479 0)
(0.000483661 -0.00521683 0)
(0.000815251 -0.00482275 0)
(0.000996956 -0.00440229 0)
(0.000968794 -0.00401125 0)
(0.000805519 -0.00362055 0)
(0.000676666 -0.00332646 0)
(0.000421877 -0.00365959 0)
(-7.1326e-05 -0.0032512 0)
(0.000610414 -0.00522607 0)
(0.0013948 -0.00694896 0)
(0.00143527 -0.0103336 0)
(0.00265385 -0.0132572 0)
(0.000718504 -0.0212728 0)
(0.00265452 -0.00426411 0)
(-0.000656213 -0.00194939 0)
(0.00553545 -0.0242987 0)
(-0.00192031 -0.0167647 0)
(0.00293981 -0.0141634 0)
(0.00196257 -0.0104759 0)
(-0.00181395 -0.00643265 0)
(0.000142296 -0.00747289 0)
(-0.000553349 -0.00633446 0)
(0.00146358 -0.00507757 0)
(0.00176845 -0.00602909 0)
(0.00157578 -0.0055486 0)
(0.00102992 -0.0053212 0)
(5.03997e-05 -0.00584136 0)
(0.00078069 -0.00618676 0)
(0.00166657 -0.00601628 0)
(0.00653073 -0.00288836 0)
(-0.00824616 -0.00237459 0)
(-0.00242376 -0.00470499 0)
(-0.00431909 -0.00589437 0)
(-0.00153749 -0.00367162 0)
(0.000576854 -0.00149932 0)
(0.00550585 -0.00349948 0)
(0.00264049 -0.00500944 0)
(0.00395185 -0.00346132 0)
(0.00302324 -0.0043888 0)
(0.00288303 -0.00355915 0)
(0.0015885 -0.00533223 0)
(0.00193877 -0.00326227 0)
(-0.000367817 -0.0075378 0)
(0.00239477 -0.00773917 0)
(-0.00166447 -0.005319 0)
(-0.000916473 -0.0152936 0)
(-0.0012612 -0.0096007 0)
(0.00103196 -0.00907152 0)
(9.90765e-05 -0.00901043 0)
(0.000469383 -0.00720985 0)
(-0.000100548 -0.00689925 0)
(-0.00021546 -0.00660193 0)
(-0.000189058 -0.0060763 0)
(3.97356e-05 -0.00592973 0)
(1.3892e-05 -0.00567232 0)
(-6.58973e-05 -0.00549583 0)
(-2.67239e-05 -0.0054415 0)
(0.00018914 -0.00531831 0)
(0.000498944 -0.00516398 0)
(0.00101794 -0.00477708 0)
(0.00157704 -0.004158 0)
(0.00208555 -0.00348143 0)
(0.00240958 -0.00275115 0)
(0.00234115 -0.00227537 0)
(0.00200244 -0.00187938 0)
(0.00157336 -0.0016877 0)
(0.00104737 -0.00173717 0)
(0.000136844 -0.00204433 0)
(-0.00123993 -0.00252188 0)
(-0.00252345 -0.00322965 0)
(-0.0029342 -0.0037009 0)
(-0.00278481 -0.00409093 0)
(-0.00195834 -0.00440404 0)
(-0.00083763 -0.00466666 0)
(-0.000129557 -0.00474722 0)
(0.000241982 -0.00459758 0)
(0.000529126 -0.00436124 0)
(0.000716311 -0.00412065 0)
(0.000704142 -0.00386564 0)
(0.000591977 -0.00356883 0)
(0.000501315 -0.00331974 0)
(0.000315414 -0.00372004 0)
(-6.13887e-05 -0.00331278 0)
(6.90584e-05 -0.0109387 0)
(0.00230249 -0.011592 0)
(0.00259168 -0.0145082 0)
(0.00468037 -0.0147393 0)
(0.00452577 -0.0153325 0)
(0.0108329 -0.0148725 0)
(-0.0074346 -0.00874931 0)
(-0.000771825 -0.0110045 0)
(-0.00102601 -0.0134561 0)
(0.00014474 -0.00929397 0)
(0.000255075 -0.0107231 0)
(-9.91057e-05 -0.00770004 0)
(-0.000532773 -0.00605284 0)
(-0.000631509 -0.00616988 0)
(0.00118297 -0.00381656 0)
(0.00062242 -0.00478689 0)
(0.00254407 -0.00582675 0)
(0.000374753 -0.00713812 0)
(0.00346284 -0.0077849 0)
(0.00135543 -0.0075912 0)
(-0.000633581 -0.00632047 0)
(0.00271975 -0.00625843 0)
(-0.00571323 -0.00574599 0)
(-0.000421445 -0.00631086 0)
(-0.00541492 -0.00756334 0)
(-0.00750647 -0.00312373 0)
(0.00608162 0.00113387 0)
(0.00305743 -0.00299806 0)
(0.00214787 -0.00567449 0)
(0.00153324 -0.00106306 0)
(0.00364274 -0.00121338 0)
(0.00281464 -0.000248656 0)
(0.00441485 -0.00174347 0)
(0.00358839 -0.00144104 0)
(0.000126467 -0.00233024 0)
(0.00430893 -0.00183629 0)
(-0.00212665 -0.000732166 0)
(0.00117454 -0.00589905 0)
(0.000619998 -0.00294716 0)
(-0.000578276 -0.00282199 0)
(-0.000239535 -0.00591322 0)
(-0.000106993 -0.00314764 0)
(-0.000482764 -0.00417027 0)
(-0.000469344 -0.00386388 0)
(-0.000209065 -0.00383207 0)
(-6.97119e-05 -0.00392779 0)
(-2.49334e-05 -0.004054 0)
(-5.47642e-05 -0.0041921 0)
(7.30753e-05 -0.00454187 0)
(0.000255389 -0.00485724 0)
(0.00040947 -0.00515976 0)
(0.000588158 -0.00517739 0)
(0.000855527 -0.00488704 0)
(0.00112474 -0.00428715 0)
(0.001435 -0.00337485 0)
(0.00157122 -0.00241609 0)
(0.00151037 -0.00154345 0)
(0.00138298 -0.00101779 0)
(0.00117753 -0.000851921 0)
(0.000606943 -0.00103588 0)
(-0.00050336 -0.00158004 0)
(-0.00185474 -0.00254156 0)
(-0.0025006 -0.003161 0)
(-0.00250107 -0.00352699 0)
(-0.00177001 -0.00389815 0)
(-0.000725179 -0.00419331 0)
(-0.000184112 -0.0042923 0)
(9.11133e-05 -0.00426876 0)
(0.000336798 -0.00414748 0)
(0.000519073 -0.00397013 0)
(0.000509208 -0.00377944 0)
(0.000430495 -0.00354179 0)
(0.00036756 -0.00332038 0)
(0.000233835 -0.00376723 0)
(-4.9754e-05 -0.00335668 0)
(-0.00285872 -0.0154075 0)
(0.0075432 -0.0145378 0)
(0.0052235 -0.0161219 0)
(0.00313196 -0.0152463 0)
(0.00372014 -0.0132606 0)
(3.84973e-05 -0.0103863 0)
(0.00187092 -0.00493196 0)
(-0.00438137 -0.00779971 0)
(-0.0017815 -0.00931418 0)
(-0.00225058 -0.00732252 0)
(-0.00222838 -0.00687452 0)
(8.2451e-05 -0.00461966 0)
(-0.00261097 -0.00591924 0)
(-0.00178229 -0.00437253 0)
(0.000915379 -0.00436339 0)
(-0.000361631 -0.00414957 0)
(0.00216641 -0.00588448 0)
(0.00304917 -0.00500428 0)
(0.000420296 -0.00595586 0)
(0.00400213 -0.0114076 0)
(-0.00164394 -0.00511456 0)
(0.000941116 -0.00870198 0)
(-0.00219514 -0.00608676 0)
(-0.000654371 -0.00648948 0)
(-0.00191204 -0.0150309 0)
(-0.00116773 0.00621479 0)
(0.000719961 0.00746869 0)
(-0.00154283 -0.00960265 0)
(0.000844848 -0.00747224 0)
(0.000757336 -0.0034193 0)
(0.00175305 -0.00383248 0)
(0.00230806 -0.00291694 0)
(0.00188183 -0.00135505 0)
(0.00313444 -0.0009798 0)
(0.00179749 0.000708408 0)
(0.00329829 -6.54156e-05 0)
(0.00125975 0.000374295 0)
(-0.000103929 -0.00024214 0)
(0.00321836 -0.000637262 0)
(-0.00155226 -0.00177003 0)
(-0.00261477 -0.00388903 0)
(0.000929917 -0.00463384 0)
(-0.00090215 -0.00465773 0)
(-7.99436e-05 -0.00396717 0)
(0.000146468 -0.00411724 0)
(0.000211991 -0.00432622 0)
(0.000353633 -0.004364 0)
(0.000426999 -0.00459628 0)
(0.000609983 -0.00475258 0)
(0.000754017 -0.00493059 0)
(0.000749014 -0.00498753 0)
(0.000672714 -0.00488825 0)
(0.000601009 -0.0045344 0)
(0.000521732 -0.00387391 0)
(0.00047079 -0.00290704 0)
(0.000459926 -0.00178675 0)
(0.000608603 -0.000701185 0)
(0.00089251 0.000187998 0)
(0.00107463 0.000578731 0)
(0.000910752 0.000643691 0)
(0.000233514 0.000366295 0)
(-0.000838804 -0.000427339 0)
(-0.00181929 -0.00137653 0)
(-0.0020472 -0.00230352 0)
(-0.00132133 -0.0031684 0)
(-0.000441621 -0.003697 0)
(-6.6235e-05 -0.00388339 0)
(9.76888e-05 -0.00398732 0)
(0.000241808 -0.00398255 0)
(0.000385264 -0.00386515 0)
(0.000375121 -0.00370152 0)
(0.000307651 -0.00351775 0)
(0.000266448 -0.00331693 0)
(0.000171309 -0.00380113 0)
(-3.91789e-05 -0.00338801 0)
(-0.00172902 -0.00583315 0)
(-0.000419353 -0.0103437 0)
(-0.00372445 -0.0219244 0)
(0.000136548 -0.0163962 0)
(-0.000485768 -0.0142531 0)
(0.000263932 -0.0113476 0)
(0.000609295 -0.00910378 0)
(-0.00208804 -0.0134435 0)
(0.000373721 -0.0100347 0)
(-0.00150125 -0.00825195 0)
(-0.000641393 -0.00680428 0)
(-0.000492353 -0.00760981 0)
(-0.000781173 -0.00901439 0)
(0.000181172 -0.00280917 0)
(-0.000569649 -0.0014535 0)
(-0.000727156 -0.00393148 0)
(-0.00137151 -0.000304389 0)
(0.00483677 -0.00590069 0)
(0.00170197 -0.00250978 0)
(0.00384145 -0.00376904 0)
(0.00103551 -0.00420742 0)
(-0.000412383 -0.00315062 0)
(0.00136497 -0.00578087 0)
(-0.00328269 -0.00464796 0)
(0.00123579 -0.00794726 0)
(0.00456872 -0.00179094 0)
(-0.0065426 -0.00013185 0)
(-0.00340376 -0.00517273 0)
(-1.57959e-05 -0.00570066 0)
(0.00162623 -0.00455918 0)
(0.0004936 -0.00486812 0)
(0.0025344 -0.00353248 0)
(6.62501e-05 -0.0024196 0)
(0.00231961 -0.00162268 0)
(0.000633163 0.000187984 0)
(0.00261588 0.000347933 0)
(0.000504425 0.00189981 0)
(0.000350708 0.00149369 0)
(0.00166885 0.00287329 0)
(0.000131581 -0.00357762 0)
(0.000593664 -0.00158039 0)
(-7.46261e-05 -0.00214461 0)
(0.000286967 -0.00669747 0)
(0.000222964 -0.00416125 0)
(0.000261272 -0.00508716 0)
(4.60284e-05 -0.00534737 0)
(0.000158179 -0.00554329 0)
(0.000251286 -0.00561473 0)
(0.000435908 -0.00565684 0)
(0.000489644 -0.00556868 0)
(0.000429936 -0.00535517 0)
(0.000192697 -0.00496044 0)
(-0.000104122 -0.00435408 0)
(-0.000435419 -0.00337587 0)
(-0.000653039 -0.00221783 0)
(-0.000710427 -0.00114547 0)
(-0.000433532 -9.476e-05 0)
(9.02791e-05 0.000682758 0)
(0.000691725 0.00123289 0)
(0.000860461 0.00135365 0)
(0.00061146 0.00121714 0)
(1.23516e-05 0.000669451 0)
(-0.000612949 -0.00033027 0)
(-0.000764114 -0.00168645 0)
(-0.000410433 -0.00304082 0)
(-3.45373e-05 -0.00362836 0)
(0.000121696 -0.00383556 0)
(0.000155281 -0.00391707 0)
(0.000192699 -0.0039196 0)
(0.000250503 -0.00382744 0)
(0.000248822 -0.00365458 0)
(0.000216962 -0.00350375 0)
(0.000188559 -0.00331603 0)
(0.000123717 -0.00382707 0)
(-2.92017e-05 -0.00341046 0)
(0.00440757 -0.000305086 0)
(-0.00546989 -0.00485517 0)
(-0.00482921 -0.00677823 0)
(-0.00137852 -0.00570371 0)
(-0.00265192 -0.0116541 0)
(0.00153467 -0.00792491 0)
(-0.00218821 -0.00514272 0)
(-0.0020228 -0.00433813 0)
(-0.00145094 -0.00456392 0)
(-0.002399 -0.0042303 0)
(-0.00284652 -0.00280799 0)
(-0.00537164 -0.00201684 0)
(-0.00353491 -0.0036342 0)
(-0.00142275 -0.00232288 0)
(-0.00344577 -0.00390669 0)
(0.0011704 -0.0040739 0)
(-0.00718998 0.000782003 0)
(0.00623621 -9.21752e-05 0)
(0.0066688 -0.00406995 0)
(0.000529064 -0.00615932 0)
(0.00550863 -0.00297693 0)
(0.000177095 -0.00306204 0)
(0.00260487 -0.00298813 0)
(-8.01321e-05 -0.00221974 0)
(0.000818771 -0.0048835 0)
(0.000890653 -0.00164767 0)
(-0.00296017 -0.00147103 0)
(-0.00300293 -0.00436751 0)
(-0.00113534 -0.00435029 0)
(-6.39175e-05 -0.00372113 0)
(-5.2465e-05 -0.00282308 0)
(0.00108626 -0.00284735 0)
(0.000106015 -0.00341172 0)
(0.000143313 -0.0033621 0)
(-0.000278645 -0.00251794 0)
(0.000349326 -0.00171105 0)
(0.00134641 -0.00283872 0)
(0.00080582 -0.00153691 0)
(0.00159531 -0.00171958 0)
(-0.00146536 -0.00466412 0)
(0.0037134 -0.00632352 0)
(-0.000398919 -0.00772905 0)
(0.00237999 -0.00697945 0)
(0.00150858 -0.0068561 0)
(0.000990851 -0.00688858 0)
(0.000741552 -0.00709083 0)
(0.000621086 -0.00693297 0)
(0.000619818 -0.00686151 0)
(0.000634377 -0.00659627 0)
(0.00049887 -0.00624664 0)
(0.000236685 -0.00573056 0)
(-0.000360348 -0.0049444 0)
(-0.00103671 -0.00389767 0)
(-0.00163433 -0.00291111 0)
(-0.00178147 -0.00181836 0)
(-0.00167723 -0.000796123 0)
(-0.00119784 0.000142722 0)
(-0.000427332 0.000705932 0)
(0.000394349 0.00111482 0)
(0.000856664 0.00104225 0)
(0.000872991 0.000659855 0)
(0.000661448 -5.76143e-05 0)
(0.000533665 -0.00109615 0)
(0.000578129 -0.00238952 0)
(0.000562675 -0.00327332 0)
(0.000405649 -0.00363859 0)
(0.000240876 -0.00377921 0)
(0.000175208 -0.00383458 0)
(0.000152361 -0.00383214 0)
(0.000137643 -0.00375331 0)
(0.000143127 -0.00361597 0)
(0.000146263 -0.00349047 0)
(0.000127787 -0.00331293 0)
(8.7399e-05 -0.00384519 0)
(-2.06733e-05 -0.00342613 0)
(0.00104226 0.0110624 0)
(-0.00258377 0.0114981 0)
(-0.000135216 0.00881543 0)
(-0.00284988 0.00908516 0)
(-0.00089521 0.0095803 0)
(-0.000400506 0.0109247 0)
(-0.00144491 0.0116816 0)
(-0.00177299 0.00942016 0)
(-0.00161458 0.00813872 0)
(-0.00253458 0.00572492 0)
(-0.000535613 0.00406573 0)
(-0.00243213 0.00221347 0)
(-0.00512094 0.00168087 0)
(-0.00852168 0.00177154 0)
(0.00413519 0.00182208 0)
(0.00257773 -0.0086959 0)
(0.00290885 0.000932032 0)
(0.00124881 0.00344626 0)
(0.000730236 -0.0130407 0)
(0.00119181 -0.00986594 0)
(0.00327439 -0.00641189 0)
(0.00064262 -0.00553337 0)
(0.00132468 -0.00420943 0)
(-0.00172404 -0.00326134 0)
(0.000412223 -0.00234135 0)
(-0.000626685 -0.00180849 0)
(-0.00145294 -0.00150756 0)
(-0.0022706 -0.00187841 0)
(-0.000614562 -0.00196221 0)
(-0.000246944 -0.00260755 0)
(-0.000133857 -0.00318064 0)
(0.000500218 -0.00140073 0)
(0.000671182 -0.000553948 0)
(0.00221077 0.000921716 0)
(0.000757106 0.00202113 0)
(0.000767097 0.0021956 0)
(0.0013455 0.00158926 0)
(0.00229672 0.00095242 0)
(0.00121935 -0.000962857 0)
(0.00470254 -0.00357496 0)
(0.00231869 -0.00512281 0)
(0.00264349 -0.00844467 0)
(0.00186613 -0.0077737 0)
(0.00108481 -0.00777439 0)
(0.000393936 -0.00776628 0)
(0.000130373 -0.00749322 0)
(-0.000204436 -0.00729456 0)
(-0.00020115 -0.00696014 0)
(-0.000176816 -0.00638532 0)
(-0.000420461 -0.0058646 0)
(-0.000957954 -0.00503162 0)
(-0.00156816 -0.00429056 0)
(-0.00216454 -0.00350647 0)
(-0.00262358 -0.00309893 0)
(-0.00284276 -0.00248357 0)
(-0.00268512 -0.00199972 0)
(-0.00203016 -0.00134367 0)
(-0.000911787 -0.000821609 0)
(0.00032276 -0.000422586 0)
(0.0013056 -0.000528597 0)
(0.00175258 -0.00110351 0)
(0.00181982 -0.00204596 0)
(0.00170506 -0.00296897 0)
(0.00132629 -0.00364045 0)
(0.000785697 -0.00380218 0)
(0.000471891 -0.00374974 0)
(0.000307544 -0.00374835 0)
(0.000178167 -0.00377022 0)
(9.21172e-05 -0.0037674 0)
(5.63905e-05 -0.00370009 0)
(7.33801e-05 -0.00359525 0)
(8.38201e-05 -0.00348052 0)
(7.76774e-05 -0.00331241 0)
(5.72191e-05 -0.00385992 0)
(-1.37752e-05 -0.00343696 0)
(-0.000589244 0.000483794 0)
(-0.00140385 -0.000514623 0)
(-0.00288888 -0.00158102 0)
(-0.000839473 -0.00186094 0)
(-0.00210254 -0.00282431 0)
(-0.000683791 -0.00299113 0)
(-0.000675955 -0.00315915 0)
(8.64658e-05 -0.00379285 0)
(0.00025999 -0.00530892 0)
(0.000322466 -0.00338131 0)
(-0.000255064 -0.00182431 0)
(0.000917902 -0.00612911 0)
(-0.00098154 -0.00930097 0)
(-0.00147026 0.00569321 0)
(-0.00490167 0.00491567 0)
(0.010832 -0.00839094 0)
(0.0117513 -0.00402173 0)
(-0.00474838 -0.00694311 0)
(-0.00115469 -0.00812742 0)
(-0.00204281 -0.00789024 0)
(0.00176727 -0.00764965 0)
(-0.00203855 -0.00731147 0)
(0.00307646 -0.00715735 0)
(-0.00139411 -0.00452923 0)
(-0.00106808 -0.0029536 0)
(-0.00146917 -8.07513e-05 0)
(-0.00211142 0.00128365 0)
(-0.00248434 -0.000597166 0)
(0.00194099 -0.00096714 0)
(0.000447482 -0.00458717 0)
(-0.000767768 -0.00493868 0)
(-0.001232 -0.00608806 0)
(-0.00150773 -0.00432032 0)
(-0.00109684 -0.00357063 0)
(-0.00315945 -0.00349338 0)
(0.00135619 -0.00274783 0)
(0.00248652 -0.00412643 0)
(0.00363428 -0.00474201 0)
(0.00349887 -0.00287597 0)
(0.00711714 -0.00118595 0)
(0.00451143 -0.003356 0)
(0.00335657 -0.00144751 0)
(0.00221202 -0.00157722 0)
(0.00139094 -0.0012233 0)
(0.000775336 -0.00114121 0)
(0.000457667 -0.00159016 0)
(4.57896e-05 -0.00191863 0)
(-0.000176118 -0.00246025 0)
(-0.00040475 -0.00273342 0)
(-0.000721072 -0.00284826 0)
(-0.00136104 -0.0029026 0)
(-0.00171515 -0.0030783 0)
(-0.00218462 -0.00336954 0)
(-0.00256646 -0.00390235 0)
(-0.00280638 -0.00420984 0)
(-0.00274435 -0.00435241 0)
(-0.00231468 -0.00434818 0)
(-0.0013433 -0.00417415 0)
(9.35437e-05 -0.00383684 0)
(0.00163958 -0.00367303 0)
(0.00228938 -0.00382448 0)
(0.00239942 -0.00401472 0)
(0.00212061 -0.00419641 0)
(0.00137406 -0.00415774 0)
(0.000671803 -0.00395624 0)
(0.00040216 -0.00381264 0)
(0.000281688 -0.0037254 0)
(0.000174807 -0.00370493 0)
(5.93569e-05 -0.00369556 0)
(-1.69519e-06 -0.00364286 0)
(1.58913e-05 -0.00355734 0)
(4.04479e-05 -0.00346261 0)
(4.40214e-05 -0.00330498 0)
(3.7339e-05 -0.00386779 0)
(-7.47666e-06 -0.00344369 0)
(-0.000419673 -0.00567092 0)
(-0.000429765 -0.00494168 0)
(-0.000334079 -0.00554314 0)
(0.000512013 -0.00636726 0)
(0.000155267 -0.00844797 0)
(0.00132577 -0.00664274 0)
(9.36221e-05 -0.00640627 0)
(-0.00107742 -0.00640266 0)
(-0.00136084 -0.00510863 0)
(0.000338518 -0.00462174 0)
(-0.00112824 -0.00521137 0)
(0.000170902 -0.00746906 0)
(0.000602858 -0.00799659 0)
(0.00420076 -0.00653661 0)
(-0.0120195 0.0116142 0)
(0.00990244 0.00796635 0)
(0.00435158 -0.0129863 0)
(-0.00159082 -0.00736579 0)
(-0.00191793 -0.00842691 0)
(-0.00202151 -0.00640196 0)