/*--------------------------------*- C++ -*----------------------------------*\
  =========                 |
  \\      /  F ield         | OpenFOAM: The Open Source CFD Toolbox
   \\    /   O peration     | Website:  https://openfoam.org
    \\  /    A nd           | Version:  12
     \\/     M anipulation  |
\*---------------------------------------------------------------------------*/
FoamFile
{
    format      ascii;
    class       volScalarField::Internal;
    location    "0.7";
    object      cloud:UCoeff;
}
// * * * * * * * * * * * * * * * * * * * * * * * * * * * * * * * * * * * * * //

dimensions      [1 0 0 0 0 0 0];

value           nonuniform List<scalar> 
3750
(
5.09802e-08
5.05936e-08
4.77023e-08
1.12223e-07
4.65905e-08
5.04624e-08
5.01873e-08
5.06497e-08
4.97349e-08
4.94335e-08
1.15651e-07
1.14342e-07
4.68219e-08
4.94161e-08
4.90284e-08
4.95541e-08
4.97828e-08
5.0154e-08
5.04823e-08
4.97726e-08
1.17305e-07
4.82491e-08
4.8958e-08
4.87307e-08
0
4.73296e-08
0
1.17211e-07
4.75343e-08
4.84831e-08
4.92515e-08
1.17047e-07
4.84041e-08
0
8.41619e-08
7.54278e-08
0
4.9369e-08
5.16097e-08
4.90117e-08
4.88296e-08
1.17226e-07
4.6736e-08
4.87085e-08
4.88675e-08
4.9646e-08
4.95843e-08
4.95696e-08
4.83524e-08
4.85829e-08
4.82483e-08
0
0
0
0
0
0
0
0
0
0
0
0
0
0
0
0
0
0
0
0
0
0
0
0
5.06702e-08
5.16269e-08
5.02263e-08
4.81403e-08
0
4.9981e-08
0
0
4.82323e-08
4.93188e-08
4.90218e-08
4.85293e-08
2.00103e-07
1.67433e-07
6.10804e-08
0
0
0
5.05569e-08
0
4.8895e-08
1.15424e-07
4.96728e-08
1.19243e-07
1.13668e-07
4.70576e-08
0
0
4.97779e-08
1.9954e-08
1.48359e-07
1.12423e-07
1.14756e-07
0
0
0
4.82004e-08
4.993e-08
4.92633e-08
5.01119e-08
4.82989e-08
4.76348e-08
4.83632e-08
4.86676e-08
4.8878e-08
4.92222e-08
0
0
0
0
0
0
0
0
0
0
0
0
0
0
0
0
0
0
0
0
0
0
0
0
0
0
0
0
0
0
0
4.97976e-08
1.13457e-07
1.15599e-07
4.75201e-08
4.82999e-08
0
4.9458e-08
0
2.47672e-09
1.09795e-07
4.67775e-08
0
4.60083e-08
9.09387e-08
3.59268e-08
2.22324e-08
4.94818e-08
4.95925e-08
4.76269e-08
1.16376e-07
1.21275e-07
4.88038e-08
1.14259e-07
4.72992e-08
0
4.89265e-08
1.18193e-07
1.15287e-07
0
4.63591e-08
8.65795e-08
9.33186e-09
4.98579e-08
4.98121e-08
5.00433e-08
7.61034e-08
8.52692e-08
1.19414e-07
4.74643e-08
4.82686e-08
4.82815e-08
0
0
0
0
0
0
0
0
0
0
0
0
0
0
0
0
0
0
0
0
0
0
0
0
0
0
0
0
0
0
0
0
5.34881e-08
5.08065e-08
4.883e-08
0
0
4.63984e-08
4.84159e-08
4.98516e-08
0
4.57237e-08
1.1651e-07
1.15467e-07
4.86059e-08
4.85284e-08
4.99658e-08
4.9716e-08
4.82171e-08
1.17289e-07
1.17744e-07
1.17334e-07
4.6493e-08
7.12717e-08
9.19472e-08
4.89307e-08
4.70472e-08
4.89479e-08
4.84949e-08
0
4.98436e-08
4.97163e-08
4.88188e-08
4.87554e-08
4.89433e-08
6.13343e-08
7.95107e-08
5.34329e-09
4.96208e-08
5.05724e-08
1.21736e-07
4.72711e-08
4.64967e-08
0
0
0
0
0
0
0
0
0
0
0
0
0
0
0
0
0
0
0
0
0
0
0
0
0
0
0
0
0
0
0
0
0
0
1.25789e-07
5.20213e-08
1.22095e-08
4.37904e-08
3.25344e-08
4.8933e-08
2.69625e-08
7.46491e-10
4.96091e-08
0
1.191e-07
4.77944e-08
4.75484e-08
4.82374e-08
1.21843e-07
4.79785e-08
4.76983e-08
1.22167e-07
0
4.77582e-08
4.89745e-08
5.0479e-08
0
4.88826e-08
4.94415e-08
4.86374e-08
9.45773e-08
3.34763e-08
7.96268e-08
4.97608e-08
4.86143e-08
6.4467e-08
9.85262e-08
4.68862e-08
0
0
0
5.50406e-09
1.07325e-07
4.84114e-08
4.80869e-08
4.72699e-08
0
0
0
0
0
0
0
0
0
0
0
0
0
0
0
0
0
0
0
0
0
0
0
0
0
0
0
0
0
0
0
0
0
5.02248e-08
5.20724e-08
5.14558e-08
5.23859e-08
1.41019e-08
2.49069e-08
4.89123e-08
4.91186e-08
4.90996e-08
5.04955e-08
4.73571e-08
4.75706e-08
4.88593e-08
9.08467e-08
6.7915e-08
4.86615e-08
4.82552e-08
4.68918e-08
4.95901e-08
5.07557e-08
4.85224e-08
4.94458e-08
0
4.89046e-08
4.92161e-08
4.91596e-08
4.90911e-08
4.82891e-08
4.79938e-08
1.23852e-07
4.98632e-08
4.80706e-08
4.79019e-08
4.70738e-08
4.7196e-08
4.99946e-08
5.1723e-08
4.91537e-08
0
4.96401e-08
0
4.96619e-08
0
0
0
0
0
0
0
0
0
0
0
0
0
0
0
0
0
0
0
0
0
0
0
0
0
0
0
0
0
0
0
0
0
4.91484e-08
5.04714e-08
5.07349e-08
5.08703e-08
5.09304e-08
7.21748e-08
8.813e-08
4.65548e-08
1.15172e-07
4.72634e-08
1.13377e-07
4.57219e-08
4.89213e-08
5.00075e-08
5.04015e-08
5.09106e-08
4.98441e-08
4.9782e-08
5.02914e-08
5.23304e-08
0
4.95227e-08
4.9059e-08
4.8753e-08
5.06108e-08
4.66331e-08
4.83463e-08
4.95569e-08
4.98678e-08
5.04617e-08
4.95467e-08
4.89745e-08
4.87789e-08
1.15695e-07
4.57076e-08
4.91852e-08
4.82195e-08
4.97341e-08
7.25165e-08
2.40973e-08
4.94527e-08
0
0
0
0
0
0
0
0
0
0
0
0
0
0
0
0
0
0
0
0
0
0
0
0
0
0
0
0
0
0
0
0
0
0
3.73769e-08
5.13166e-08
5.06859e-08
4.99672e-08
4.9922e-08
1.16793e-07
1.11441e-07
1.09415e-07
1.2625e-07
3.46532e-08
4.7378e-08
4.84006e-08
0
4.93623e-08
5.02283e-08
5.10593e-08
0
4.91477e-08
4.9937e-08
5.08363e-08
5.05744e-08
9.29224e-08
6.65507e-08
4.87704e-08
6.86729e-09
3.61145e-08
5.03534e-08
0
4.86601e-08
4.93727e-08
4.96678e-08
5.01251e-08
5.00748e-08
4.91078e-08
4.85366e-08
5.76542e-08
1.11606e-07
0
1.17494e-07
1.14596e-07
4.73719e-08
0
0
0
0
0
0
0
0
0
0
0
0
0
0
0
0
0
0
0
0
0
0
0
0
0
0
0
0
0
0
0
0
0
0
4.69636e-08
5.04457e-08
5.01053e-08
4.9599e-08
4.89291e-08
1.18448e-07
4.5681e-08
6.76163e-08
2.74642e-08
4.9092e-08
4.83733e-08
0
5.13292e-08
0
4.91121e-08
5.11444e-08
5.09893e-08
4.95223e-08
4.98825e-08
4.9725e-08
5.008e-08
5.0384e-08
4.8258e-08
4.79611e-08
4.89498e-08
4.85142e-08
5.02243e-08
5.08896e-08
0
4.82078e-08
5.00776e-08
0
0
4.9558e-08
4.93576e-08
5.01105e-08
5.15474e-08
0
4.96872e-08
4.93537e-08
4.86435e-08
4.65063e-08
0
0
0
0
0
0
0
0
0
0
0
0
0
0
0
0
0
0
0
0
0
0
0
0
0
0
0
0
0
0
0
0
0
1.16398e-07
4.54743e-08
4.6395e-08
4.88576e-08
5.08691e-08
5.16353e-08
0
4.85381e-08
4.88247e-08
4.9567e-08
4.97019e-08
0
5.18371e-08
0
4.83335e-08
5.19612e-08
0
4.95361e-08
4.89603e-08
4.98421e-08
8.76967e-08
6.90902e-08
4.82246e-08
4.80871e-08
4.75759e-08
4.7304e-08
5.1202e-08
0
4.80259e-08
4.93531e-08
5.06075e-08
4.9952e-08
4.86142e-08
1.03117e-08
2.9912e-08
5.11111e-08
0
5.00084e-08
5.04061e-08
4.95572e-08
4.88882e-08
4.85692e-08
4.76998e-08
0
0
0
0
0
0
0
0
0
0
0
0
0
0
0
0
0
0
0
0
0
0
0
0
0
0
0
0
0
0
0
0
1.15582e-07
1.11595e-07
4.58409e-08
1.14784e-07
4.7498e-08
0
5.11042e-08
0
1.18868e-07
1.14572e-07
0
4.68388e-08
4.9219e-08
5.02485e-08
0
4.97336e-08
4.98456e-08
5.02361e-08
0
4.89707e-08
0
4.94004e-08
1.23889e-07
4.67264e-08
4.70087e-08
1.1462e-07
4.88194e-08
4.92448e-08
4.93158e-08
0
5.06637e-08
5.05878e-08
4.82251e-08
0
4.95124e-08
5.06923e-08
0
4.92996e-08
0
4.87956e-08
4.75747e-08
4.84137e-08
9.15444e-08
4.4963e-09
0
0
0
0
0
0
0
0
0
0
0
0
0
0
0
0
0
0
0
0
0
0
0
0
0
0
0
0
0
0
0
5.06175e-08
4.94149e-08
4.95923e-08
4.73867e-08
1.17379e-07
4.69329e-08
1.15926e-07
1.15405e-07
0
4.84513e-08
4.82622e-08
4.8618e-08
4.91419e-08
4.99054e-08
4.95387e-08
4.91919e-08
4.99027e-08
1.39347e-08
2.31991e-08
4.85588e-08
5.03406e-08
5.15421e-08
1.81003e-08
7.905e-08
4.67382e-08
4.73578e-08
4.83863e-08
4.86146e-08
7.29465e-08
9.35602e-08
0
4.94347e-08
0
4.97232e-08
1.19087e-07
4.87371e-08
0
0
1.20898e-07
4.87298e-08
4.78747e-08
8.19144e-08
1.15479e-08
0
0
0
0
0
0
0
0
0
0
0
0
0
0
0
0
0
0
0
0
0
0
0
0
0
0
0
0
0
0
0
0
0
4.95264e-08
0
0
4.85725e-08
4.98961e-08
0
0
5.13114e-08
8.05566e-08
7.77015e-08
4.78771e-08
4.88448e-08
6.07698e-08
1.02059e-07
1.13505e-07
4.7594e-08
6.65383e-08
2.85868e-08
4.96838e-08
4.99154e-08
4.98929e-08
4.95982e-08
4.97531e-08
4.82779e-08
4.77698e-08
4.84858e-08
4.89288e-08
4.90798e-08
4.92822e-08
4.96253e-08
4.94793e-08
0
0
0
4.89657e-08
5.00805e-08
5.0809e-08
0
4.93872e-08
1.64504e-07
4.53476e-08
0
0
0
0
0
0
0
0
0
0
0
0
0
0
0
0
0
0
0
0
0
0
0
0
0
0
0
0
0
0
0
0
0
5.01255e-08
4.93178e-08
4.99365e-08
4.67246e-08
4.92731e-08
0
1.15909e-07
1.23664e-07
4.87293e-08
4.82211e-08
4.86357e-08
4.89401e-08
4.88342e-08
5.13324e-08
1.18762e-07
6.10102e-08
9.91584e-08
0
4.69756e-08
1.2085e-07
4.80541e-08
4.79621e-08
4.88303e-08
4.86751e-08
4.8767e-08
4.90453e-08
4.96108e-08
1.32958e-08
2.49588e-08
1.20228e-07
4.86005e-08
4.79797e-08
1.18806e-07
4.67898e-08
4.99305e-08
0
5.06841e-08
1.24198e-07
4.94835e-08
4.68986e-08
1.21802e-08
0
0
0
0
0
0
0
0
0
0
0
0
0
0
0
0
0
0
0
0
0
0
0
0
0
0
0
0
0
0
0
0
0
0
4.8193e-08
4.85522e-08
4.80335e-08
4.90469e-08
4.88668e-08
5.06783e-08
5.0712e-08
5.05773e-08
5.00125e-08
4.94825e-08
4.94132e-08
0
4.95619e-08
1.24072e-07
4.77499e-08
4.71981e-08
4.80463e-08
7.6571e-08
8.44502e-08
4.7453e-08
4.707e-08
4.90656e-08
6.94388e-08
2.86422e-08
4.89824e-08
4.94397e-08
4.94519e-08
4.9636e-08
4.93415e-08
4.84793e-08
4.94115e-08
4.9098e-08
4.77e-08
4.69618e-08
4.74717e-08
1.21156e-07
4.84828e-08
4.80739e-08
1.157e-07
4.68682e-08
4.99167e-08
0
0
0
0
0
0
0
0
0
0
0
0
0
0
0
0
0
0
0
0
0
0
0
0
0
0
0
0
0
0
0
0
0
0
4.78137e-08
1.18849e-07
4.81686e-08
0
4.78927e-08
1.24638e-07
5.10382e-08
5.10629e-08
0
5.05012e-08
0
5.07325e-08
0
5.0718e-08
5.00179e-08
4.9411e-08
5.09298e-08
4.87525e-08
4.7266e-08
1.14025e-07
1.13629e-07
4.68341e-08
7.72937e-08
1.89712e-08
4.89961e-08
4.97324e-08
5.03507e-08
4.95108e-09
7.32467e-08
1.59482e-08
1.19295e-07
4.96382e-08
4.86743e-08
1.16146e-07
4.64256e-08
1.16868e-07
4.93694e-08
9.30252e-08
3.41357e-09
0
0
0
0
0
0
0
0
0
0
0
0
0
0
0
0
0
0
0
0
0
0
0
0
0
0
0
0
0
0
0
0
0
0
0
0
4.8016e-08
4.83964e-08
4.92337e-08
5.01473e-08
4.96307e-08
4.93407e-08
5.25182e-08
5.14202e-08
0
4.96153e-08
0
4.95078e-08
5.04079e-08
0
5.1233e-08
0
1.19322e-07
4.88351e-08
1.18051e-07
4.65181e-08
4.68328e-08
1.13299e-07
4.66604e-08
1.17725e-07
4.80197e-08
4.7639e-08
4.87529e-08
4.83891e-08
4.91169e-08
4.94738e-08
4.98754e-08
5.10434e-08
5.13918e-08
4.84669e-08
1.1493e-07
1.10537e-07
1.19923e-07
4.71485e-08
4.73409e-08
0
0
0
0
0
0
0
0
0
0
0
0
0
0
0
0
0
0
0
0
0
0
0
0
0
0
0
0
0
0
0
0
0
0
0
0
4.96112e-08
0
5.0043e-08
5.14145e-08
0
4.85051e-08
5.14237e-08
5.20736e-08
0
4.9019e-08
4.90551e-08
5.01192e-08
9.68933e-08
2.77218e-08
2.33626e-08
4.973e-08
4.99869e-08
4.96663e-08
5.02319e-08
0
4.71098e-08
4.73984e-08
0
5.00289e-08
0
1.17373e-07
4.68702e-08
1.16937e-07
4.78037e-08
4.81993e-08
0
5.30708e-08
4.93783e-08
1.14982e-07
4.63728e-08
4.73935e-08
4.88165e-08
1.19306e-07
4.64932e-08
4.71756e-08
0
0
0
0
0
0
0
0
0
0
0
0
0
0
0
0
0
0
0
0
0
0
0
0
0
0
0
0
0
0
0
0
0
0
0
4.72577e-08
5.22565e-08
0
5.06019e-08
1.17601e-07
5.09935e-08
5.10557e-08
5.0956e-08
5.01237e-08
4.94851e-08
4.76179e-08
4.82624e-08
4.78209e-08
4.85881e-08
5.05089e-08
0
5.01973e-08
0
4.89738e-08
4.93359e-08
4.99271e-08
0
0
0
1.20899e-07
1.16962e-07
4.60062e-08
1.15166e-07
4.72579e-08
4.72524e-08
4.81612e-08
5.19127e-08
9.06482e-08
6.75737e-08
4.84161e-08
4.96316e-08
4.85454e-08
4.86607e-08
4.8866e-08
0
0
0
0
0
0
0
0
0
0
0
0
0
0
0
0
0
0
0
0
0
0
0
0
0
0
0
0
0
0
0
0
0
0
0
0
0
4.9736e-08
5.3051e-08
0
0
1.24875e-07
5.07227e-08
4.9635e-08
4.99916e-08
4.93414e-08
0
4.94801e-08
4.95307e-08
5.10481e-08
1.03643e-09
4.73684e-08
4.93769e-08
0
4.91164e-08
4.94644e-08
4.8563e-08
4.8924e-08
0
2.06981e-07
4.68725e-08
1.15096e-07
4.69996e-08
9.2925e-08
5.98693e-08
0
4.88662e-08
1.25204e-07
4.90774e-08
4.75532e-08
4.90759e-08
4.81695e-08
4.75859e-08
4.81905e-08
4.89891e-08
4.67928e-08
4.79672e-08
4.76787e-08
0
0
0
0
0
0
0
0
0
0
0
0
0
0
0
0
0
0
0
0
0
0
0
0
0
0
0
0
0
0
0
0
0
4.86296e-08
5.04212e-08
0
5.00857e-08
4.91679e-08
5.10994e-08
5.37327e-08
5.18879e-08
5.1098e-08
0
4.8506e-08
4.83986e-08
5.09674e-08
5.18729e-08
0
1.15251e-07
4.73865e-08
4.79145e-08
4.9099e-08
0
4.90355e-08
1.17428e-07
4.63923e-08
1.17846e-07
4.81901e-08
4.88909e-08
1.17206e-07
4.76983e-08
4.91372e-08
0
1.14923e-07
1.25678e-07
0
4.91329e-08
4.72241e-08
4.66773e-08
5.18289e-08
0
5.12833e-08
4.92783e-08
0
0
0
0
0
0
0
0
0
0
0
0
0
0
0
0
0
0
0
0
0
0
0
0
0
0
0
0
0
0
0
0
0
0
0
4.91831e-08
4.82182e-08
4.93096e-08
1.14447e-07
4.90897e-08
5.25222e-08
0
5.08913e-08
5.0947e-08
5.1677e-08
4.86551e-08
4.83706e-08
1.24505e-07
5.29365e-08
0
4.84718e-08
1.16425e-07
4.65471e-08
4.87278e-08
4.87597e-08
4.90684e-08
4.90456e-08
4.90856e-08
1.08289e-08
3.08973e-08
4.85381e-08
4.92835e-08
4.86006e-08
4.97549e-08
0
4.94473e-08
5.11991e-08
5.19344e-08
0
4.97565e-08
5.0389e-08
0
5.03919e-08
1.4816e-08
8.52692e-08
4.78035e-08
8.87447e-08
5.38989e-09
0
0
0
0
0
0
0
0
0
0
0
0
0
0
0
0
0
0
0
0
0
0
0
0
0
0
0
0
0
0
0
0
4.68621e-08
0
5.49028e-08
1.07169e-07
4.69694e-08
4.90035e-08
5.04354e-08
4.94944e-08
4.91214e-08
4.95927e-08
4.86828e-08
4.89551e-08
4.92192e-08
8.57953e-08
1.52346e-07
1.14091e-07
4.68408e-08
4.78037e-08
4.80868e-09
3.98352e-08
0
4.92871e-08
4.96256e-08
8.9861e-09
3.45909e-08
5.01787e-08
0
4.80695e-08
0
4.8824e-08
5.17504e-08
4.98179e-08
5.10088e-08
5.12117e-08
8.79967e-10
4.98193e-08
4.98865e-08
5.03364e-08
5.03828e-08
4.83074e-08
4.79659e-08
5.47682e-08
4.02489e-08
0
0
0
0
0
0
0
0
0
0
0
0
0
0
0
0
0
0
0
0
0
0
0
0
0
0
0
0
0
0
0
0
5.09231e-08
1.70001e-07
6.70171e-08
4.86437e-08
4.83777e-08
4.82386e-08
1.18991e-07
8.32773e-08
7.6716e-08
4.80566e-08
4.79875e-08
1.14796e-07
1.21716e-07
4.91639e-08
0
4.93604e-08
4.8504e-08
5.00829e-08
0
4.95563e-08
0
1.55408e-08
1.72998e-08
4.80748e-08
0
5.0465e-08
5.11265e-08
0
4.92698e-08
4.92862e-08
5.07527e-08
5.38836e-08
0
4.9945e-08
5.09049e-08
5.01183e-08
4.8109e-08
4.91817e-08
4.93638e-08
4.99865e-08
4.95707e-08
4.9397e-08
4.8827e-08
0
0
0
0
0
0
0
0
0
0
0
0
0
0
0
0
0
0
0
0
0
0
0
0
0
0
0
0
0
0
0
0
4.88126e-08
0
1.21967e-07
4.82673e-08
4.70415e-08
5.65843e-08
1.09828e-07
4.77357e-08
1.99055e-07
1.11474e-07
1.13728e-07
4.69699e-08
4.97518e-08
0
4.99646e-08
0
4.81158e-08
0
4.67362e-08
1.13649e-07
1.1507e-07
1.14835e-07
1.15346e-07
4.6617e-08
5.09998e-08
0
4.89413e-08
0
4.86799e-08
4.81436e-08
4.92476e-08
0
5.13248e-08
4.97761e-08
1.23121e-07
4.89821e-08
4.82568e-08
4.80326e-08
4.88467e-08
4.91526e-08
4.89283e-08
4.898e-08
0
0
0
0
0
0
0
0
0
0
0
0
0
0
0
0
0
0
0
0
0
0
0
0
0
0
0
0
0
0
0
0
0
4.88535e-08
0
5.08533e-08
4.9409e-08
4.88241e-08
4.95428e-08
4.9844e-08
4.96405e-08
1.17207e-07
1.16854e-07
1.13358e-07
4.5513e-08
4.79123e-08
5.00225e-08
0
1.58797e-09
1.16533e-07
1.16245e-07
4.81103e-08
4.87315e-08
4.82174e-08
4.85929e-08
5.01887e-08
0
5.06557e-08
1.18069e-07
4.65046e-08
5.01365e-08
0
6.48777e-08
9.88649e-08
4.81148e-08
1.23051e-07
4.83993e-08
4.88738e-08
4.93544e-08
4.91512e-08
4.95748e-08
4.98932e-08
0
4.9592e-08
0
0
0
0
0
0
0
0
0
0
0
0
0
0
0
0
0
0
0
0
0
0
0
0
0
0
0
0
0
0
0
0
0
0
0
4.96885e-08
1.17744e-07
4.95291e-08
4.99495e-08
4.97906e-08
5.02328e-08
4.99059e-08
0
5.10407e-08
4.9282e-08
2.15523e-08
6.29899e-08
8.92671e-08
1.40383e-07
1.2004e-07
0
0
1.41406e-08
2.39499e-08
4.89187e-08
4.93925e-08
0
4.98892e-08
4.99405e-08
1.21138e-07
4.71129e-08
1.94292e-07
4.67041e-08
1.16306e-07
4.76991e-08
4.9726e-08
5.14006e-08
5.03652e-08
4.93407e-08
5.04256e-08
5.05538e-08
4.96731e-08
0
5.04595e-08
4.96677e-08
0
0
0
0
0
0
0
0
0
0
0
0
0
0
0
0
0
0
0
0
0
0
0
0
0
0
0
0
0
0
0
0
0
0
4.96197e-08
4.97215e-08
4.93627e-08
7.8849e-08
8.3143e-08
4.87725e-08
4.92941e-08
0
4.96255e-08
5.00112e-08
4.93858e-08
4.78073e-08
4.77711e-08
4.93241e-08
1.17642e-07
1.20946e-07
4.7836e-08
4.83612e-08
4.8391e-08
4.92706e-08
4.89134e-08
4.80172e-08
0
6.38385e-08
3.32207e-08
5.08514e-08
0
4.78462e-08
1.17977e-07
4.74181e-08
4.76934e-08
5.0874e-08
0
4.98949e-08
5.1019e-08
5.38353e-08
5.9872e-10
4.94686e-08
4.89598e-08
1.18283e-07
4.77681e-08
0
0
0
0
0
0
0
0
0
0
0
0
0
0
0
0
0
0
0
0
0
0
0
0
0
0
0
0
0
0
0
0
0
0
0
0
1.14487e-09
1.14411e-07
4.76e-08
4.92454e-08
5.00238e-08
4.99124e-08
0
4.92958e-08
4.81499e-08
1.13435e-07
4.68811e-08
0
5.07309e-08
4.94599e-08
4.76208e-08
4.83183e-08
0
5.0066e-08
1.17406e-07
4.73572e-08
4.84833e-08
4.87688e-08
4.87659e-08
1.2406e-07
1.17491e-07
4.42168e-08
1.17686e-07
4.66863e-08
1.3341e-07
7.40715e-08
8.02533e-09
0
4.88526e-08
5.06044e-08
2.07277e-08
1.30364e-08
4.96406e-08
0
0
4.69943e-08
1.21126e-07
0
0
0
0
0
0
0
0
0
0
0
0
0
0
0
0
0
0
0
0
0
0
0
0
0
0
0
0
0
0
0
0
7.97346e-08
7.93407e-08
4.81858e-08
4.77863e-08
4.82664e-08
1.24198e-07
5.15461e-08
0
8.04205e-08
1.09579e-07
7.95514e-08
0
4.73592e-08
5.29873e-08
0
5.09378e-08
0
0
1.17979e-07
4.95118e-08
5.00389e-08
1.15178e-07
4.71151e-08
4.78095e-08
5.20684e-08
5.39535e-08
4.93338e-08
4.69945e-08
4.76759e-08
0
4.89941e-08
4.72083e-08
5.02971e-08
5.00677e-08
4.91979e-08
4.93575e-08
5.05921e-08
1.28176e-08
2.52799e-08
0
1.18007e-07
1.15673e-07
4.61018e-08
0
0
0
0
0
0
0
0
0
0
0
0
0
0
0
0
0
0
0
0
0
0
0
0
0
0
0
0
0
0
0
0
1.12353e-07
1.07234e-07
1.08985e-07
4.79247e-08
0
0
1.23116e-07
5.87275e-08
8.59828e-08
1.21254e-09
4.71145e-08
4.76e-08
0
4.9257e-08
5.16409e-08
5.06957e-08
4.94081e-08
1.96713e-08
1.16172e-08
5.08931e-08
4.73321e-08
1.13527e-07
4.45093e-08
4.53282e-08
1.23723e-07
4.96346e-08
4.91526e-08
4.82532e-08
7.86419e-08
3.02638e-08
4.04161e-08
4.88202e-08
4.87328e-08
0
1.20207e-07
4.99565e-08
4.80169e-08
0
4.79075e-08
4.96188e-08
0
0
0
0
0
0
0
0
0
0
0
0
0
0
0
0
0
0
0
0
0
0
0
0
0
0
0
0
0
0
0
0
0
0
0
5.82369e-08
1.01274e-07
4.55759e-08
0
0
1.20874e-07
4.92766e-08
4.92285e-08
4.91182e-08
4.78361e-08
4.9733e-08
1.14781e-08
2.80923e-08
5.08619e-08
5.06207e-08
5.04629e-08
0
4.86058e-08
4.91589e-08
1.19641e-07
1.16223e-07
4.57364e-08
1.09511e-07
4.62093e-08
1.19732e-07
5.04188e-08
4.97963e-08
4.89868e-08
4.92181e-08
4.98516e-08
5.02052e-08
4.88979e-08
4.87639e-08
4.89698e-08
0
1.22383e-07
0
1.17338e-07
4.73072e-08
4.63387e-08
8.49008e-08
1.22953e-08
0
0
0
0
0
0
0
0
0
0
0
0
0
0
0
0
0
0
0
0
0
0
0
0
0
0
0
0
0
0
0
0
0
1.2017e-07
4.70869e-08
4.88451e-08
9.05832e-09
9.12086e-08
5.18852e-08
0
5.00063e-08
5.11744e-08
0
4.7526e-08
1.15563e-07
5.22949e-08
2.58173e-08
3.38877e-09
1.19536e-07
6.81273e-08
9.23178e-08
1.13343e-07
1.20975e-07
4.70063e-08
1.10864e-07
4.50366e-08
8.27898e-08
7.76733e-08
2.0339e-08
1.43915e-08
4.83704e-08
4.80674e-08
5.62037e-08
1.11403e-07
4.96979e-08
4.79309e-08
2.63541e-09
1.11155e-07
4.92153e-08
4.88422e-08
4.93501e-08
1.16756e-07
4.60916e-08
0
0
0
0
0
0
0
0
0
0
0
0
0
0
0
0
0
0
0
0
0
0
0
0
0
0
0
0
0
0
0
0
0
0
0
0
0
4.77875e-08
4.70285e-08
4.75963e-08
5.26827e-08
0
4.94958e-08
0
1.1535e-07
0
5.02919e-08
4.97483e-08
4.98785e-08
4.94862e-08
1.24829e-07
0
0
0
0
0
4.90406e-08
4.76377e-08
1.13692e-07
4.91877e-08
1.26699e-07
4.92444e-08
4.76147e-08
4.73475e-08
4.82852e-08
4.93652e-08
6.81966e-08
6.50091e-08
1.60501e-08
4.93175e-08
4.92338e-08
4.80546e-08
1.20829e-07
4.82712e-08
4.73216e-08
0
0
0
0
0
0
0
0
0
0
0
0
0
0
0
0
0
0
0
0
0
0
0
0
0
0
0
0
0
0
0
0
0
0
0
4.92045e-08
4.83892e-08
4.82654e-08
4.82082e-08
4.78646e-08
4.94942e-08
5.05354e-08
4.97296e-08
0
5.02425e-08
4.94794e-08
1.19246e-07
4.91612e-08
0
0
0
5.09803e-08
4.97148e-08
4.89875e-08
4.88178e-08
1.18021e-07
1.16677e-07
0
4.83692e-08
4.839e-08
5.00592e-08
1.25714e-07
4.83809e-08
4.70852e-08
4.72166e-08
4.915e-08
4.91969e-08
4.75685e-08
1.23002e-07
4.70141e-08
4.73051e-08
4.76932e-08
5.06072e-08
4.9056e-08
4.9025e-08
4.82229e-08
0
0
0
0
0
0
0
0
0
0
0
0
0
0
0
0
0
0
0
0
0
0
0
0
0
0
0
0
0
0
0
0
0
0
1.16352e-07
1.1353e-07
1.1227e-07
1.11967e-07
4.63844e-08
4.90722e-08
4.96716e-08
4.98233e-08
8.33493e-08
7.54679e-08
1.178e-07
4.66937e-08
4.84006e-08
4.89686e-08
5.03846e-08
5.08585e-08
5.03334e-08
4.9572e-08
5.01056e-08
4.96928e-08
4.86533e-08
5.49972e-08
1.04509e-07
2.58067e-08
3.37767e-09
5.00061e-08
5.10764e-08
0
1.19474e-07
4.7644e-08
4.78108e-08
1.18397e-07
4.7045e-08
7.37562e-08
8.97423e-08
4.72373e-08
4.72952e-08
5.06444e-08
0
5.00945e-08
4.981e-08
0
0
0
0
0
0
0
0
0
0
0
0
0
0
0
0
0
0
0
0
0
0
0
0
0
0
0
0
0
0
0
0
0
0
4.82676e-08
4.6899e-08
4.63424e-08
4.73237e-08
4.77975e-08
5.84439e-08
1.06067e-07
4.77089e-08
4.78931e-08
1.21071e-07
4.80873e-08
4.793e-08
6.32651e-08
1.01284e-07
5.30057e-08
0
4.98741e-08
4.89149e-08
4.77354e-08
1.16795e-07
4.86981e-08
4.95431e-08
0
4.94097e-08
4.97346e-08
4.97331e-08
4.97128e-08
7.52165e-08
8.7098e-08
4.54557e-08
4.66885e-08
4.74733e-08
7.0825e-08
9.45158e-08
4.96387e-08
4.84909e-08
4.81748e-08
4.84125e-08
5.00029e-08
5.08079e-08
4.95943e-08
0
0
0
0
0
0
0
0
0
0
0
0
0
0
0
0
0
0
0
0
0
0
0
0
0
0
0
0
0
0
0
0
0
0
4.91818e-08
4.89265e-08
4.89204e-08
4.8723e-08
1.18812e-07
4.82155e-08
4.91123e-08
4.89563e-08
4.823e-08
4.93425e-08
5.7879e-08
1.11116e-07
4.72029e-08
4.70658e-08
5.11178e-08
1.21216e-07
4.77863e-08
2.08696e-07
4.64959e-08
9.74407e-09
2.99013e-08
4.97625e-08
5.03389e-08
0
4.82247e-08
4.85133e-08
4.90696e-08
4.82972e-08
1.15896e-07
4.74808e-08
4.78524e-08
4.94597e-08
4.92903e-08
0
4.87737e-08
4.89853e-08
4.87319e-08
6.93821e-08
9.89823e-08
2.09798e-08
1.13366e-08
0
0
0
0
0
0
0
0
0
0
0
0
0
0
0
0
0
0
0
0
0
0
0
0
0
0
0
0
0
0
0
0
0
0
4.5852e-08
1.16514e-07
4.73909e-08
4.82623e-08
4.68522e-08
4.79303e-08
4.89267e-08
7.21829e-08
9.04231e-08
4.88363e-08
4.9314e-08
4.90739e-08
5.12212e-08
4.58285e-08
1.18463e-07
1.20191e-07
4.93403e-08
4.91273e-08
0
0
5.22701e-08
0
1.25442e-07
4.87316e-08
4.79942e-08
4.95288e-08
4.89634e-08
4.89034e-08
4.86553e-08
8.64875e-08
6.50564e-08
4.93047e-08
4.73983e-08
1.15794e-07
4.73382e-08
1.19756e-07
4.79619e-08
4.86058e-08
5.43567e-08
7.95139e-08
1.64272e-08
0
0
0
0
0
0
0
0
0
0
0
0
0
0
0
0
0
0
0
0
0
0
0
0
0
0
0
0
0
0
0
0
0
0
4.86973e-08
7.7944e-08
8.45848e-08
4.88823e-08
4.7832e-08
4.92308e-08
4.86061e-08
4.87996e-08
4.95285e-08
4.85975e-08
4.80709e-08
4.93897e-08
4.96065e-08
5.00958e-08
4.95658e-08
4.89356e-08
4.78713e-08
5.02749e-08
0
4.79032e-08
5.10648e-08
5.24575e-08
7.87562e-09
3.65749e-08
4.9289e-08
5.02419e-08
4.90109e-08
4.93574e-08
4.93908e-08
1.16224e-07
4.58284e-08
1.15863e-07
0
0
4.74786e-08
1.22423e-07
4.89439e-08
4.79182e-08
4.88432e-08
5.14184e-08
5.09181e-08
5.06055e-08
0
0
0
0
0
0
0
0
0
0
0
0
0
0
0
0
0
0
0
0
0
0
0
0
0
0
0
0
0
0
0
0
0
4.91723e-08
4.8972e-08
5.02303e-08
0
1.45976e-08
2.30688e-08
4.88176e-08
4.84295e-08
1.21112e-07
1.19073e-07
4.77252e-08
0
4.77638e-08
4.36994e-09
4.2476e-08
5.00543e-08
4.9531e-08
1.22021e-07
4.78331e-08
4.59831e-08
4.53268e-08
1.22757e-07
4.89373e-08
4.81116e-08
5.12604e-08
0
4.8642e-08
4.92446e-08
4.76127e-08
0
4.85811e-08
4.90697e-08
4.89225e-08
8.38709e-08
7.24976e-08
8.63089e-08
6.96445e-08
4.88252e-08
1.21807e-07
5.34357e-08
0
4.95882e-08
4.82782e-08
0
0
0
0
0
0
0
0
0
0
0
0
0
0
0
0
0
0
0
0
0
0
0
0
0
0
0
0
0
0
0
0
1.14915e-07
6.24714e-08
3.37059e-08
0
5.01106e-08
5.08838e-08
4.86445e-08
4.99512e-08
5.17928e-08
4.99037e-08
1.18973e-07
4.76181e-08
4.63265e-08
5.02251e-08
0
4.96938e-08
4.99513e-08
4.97482e-08
5.03504e-08
4.83532e-08
4.78366e-08
5.03952e-08
1.20091e-07
4.89355e-08
4.84645e-08
6.88785e-08
2.87087e-08
4.90649e-08
0
4.86007e-08
4.89679e-08
4.87335e-08
4.91351e-08
7.96575e-08
7.74268e-08
4.84144e-08
4.99227e-08
5.03542e-08
5.04831e-08
5.09237e-08
5.23193e-08
5.09746e-08
4.87258e-08
0
0
0
0
0
0
0
0
0
0
0
0
0
0
0
0
0
0
0
0
0
0
0
0
0
0
0
0
0
0
0
0
4.98692e-08
5.07605e-08
4.95777e-08
4.90392e-08
4.97086e-08
0
0
5.16709e-08
5.33017e-08
0
5.02172e-08
5.02737e-08
4.93789e-08
4.92143e-08
4.98515e-08
4.81811e-08
4.95362e-08
0
4.45417e-10
4.87664e-08
4.98415e-08
5.03817e-08
8.30731e-09
1.00822e-07
4.882e-08
4.94285e-08
1.20395e-07
0
4.97012e-08
4.11093e-09
4.16853e-08
4.89586e-08
4.89667e-08
0
5.82877e-08
1.04587e-07
5.07547e-08
5.03509e-08
5.10827e-08
5.24305e-08
5.20663e-08
4.97986e-08
0
0
0
0
0
0
0
0
0
0
0
0
0
0
0
0
0
0
0
0
0
0
0
0
0
0
0
0
0
0
0
0
0
5.29318e-08
0
4.96509e-08
4.94847e-08
0
4.85323e-08
5.11e-08
5.06317e-08
0
5.06968e-08
5.06451e-08
5.00922e-08
9.22277e-08
5.33749e-08
6.04952e-08
4.71301e-08
0
2.27688e-08
9.80284e-08
8.54598e-08
0
4.9266e-08
4.86439e-08
4.73559e-08
4.81479e-08
1.17764e-07
0
1.22336e-07
4.88082e-08
4.90858e-08
4.67337e-08
4.89547e-08
0
1.16049e-07
4.66405e-08
4.79088e-08
4.88527e-08
4.92679e-08
5.06501e-08
5.07435e-08
5.11026e-08
5.19284e-08
0
0
0
0
0
0
0
0
0
0
0
0
0
0
0
0
0
0
0
0
0
0
0
0
0
0
0
0
0
0
0
0
0
3.10203e-08
2.11602e-08
4.92017e-08
0
1.15978e-07
1.20749e-07
1.22654e-07
4.81598e-08
1.18036e-07
4.79309e-08
4.83513e-08
5.02441e-08
5.2117e-08
1.92495e-08
3.57613e-08
3.48194e-08
4.0645e-08
4.93585e-08
4.76006e-08
4.84761e-08
4.8669e-08
4.89175e-08
4.90716e-08
4.89322e-08
0
0
4.88728e-08
5.07245e-08
1.18899e-07
1.15742e-07
4.66594e-08
4.7504e-08
4.87144e-08
0
4.61e-08
8.14165e-08
7.56642e-08
4.90836e-08
0
0
5.1041e-08
1.26602e-07
4.82041e-08
0
0
0
0
0
0
0
0
0
0
0
0
0
0
0
0
0
0
0
0
0
0
0
0
0
0
0
0
0
0
0
0
1.22778e-07
2.29547e-08
5.42345e-08
1.18352e-09
4.87563e-08
5.03264e-08
9.68788e-09
1.03786e-07
4.89299e-08
4.86088e-08
0
5.00736e-08
5.05702e-08
4.96351e-08
4.87846e-08
4.91203e-08
4.87775e-08
4.81048e-08
4.85491e-08
1.22268e-07
4.81784e-08
0
4.77454e-08
5.02977e-08
4.93951e-08
4.94418e-08
4.90284e-08
5.20776e-08
5.04214e-08
4.90523e-08
4.92718e-08
4.9125e-08
4.83151e-08
1.15826e-07
4.80778e-08
4.75912e-08
4.95907e-08
4.97089e-08
4.88594e-08
4.8841e-08
1.25773e-07
0
5.01504e-08
6.09182e-08
3.52729e-08
0
0
0
0
0
0
0
0
0
0
0
0
0
0
0
0
0
0
0
0
0
0
0
0
0
0
0
0
0
0
1.16566e-07
6.30868e-08
3.44301e-08
4.96126e-08
7.50237e-09
3.82671e-08
4.99517e-08
0
1.24081e-07
2.30063e-08
7.55511e-09
4.92652e-08
4.87214e-08
4.90562e-08
4.89005e-08
4.93443e-08
4.94865e-08
4.8999e-08
4.81395e-08
6.75613e-08
3.75494e-08
1.0769e-07
1.13577e-07
1.1408e-07
1.14032e-07
4.82441e-08
0
5.16385e-08
0
4.99191e-08
4.99323e-08
0
4.94614e-08
4.84551e-08
4.76298e-08
0
0
0
0
5.01921e-08
5.03533e-08
1.27023e-07
4.83414e-08
1.15123e-07
0
4.83832e-08
0
0
0
0
0
0
0
0
0
0
0
0
0
0
0
0
0
0
0
0
0
0
0
0
0
0
0
0
0
4.8511e-08
8.6692e-08
6.46142e-08
1.20254e-07
0
0
4.83266e-08
4.59128e-08
9.08402e-08
7.43174e-08
0
1.17409e-07
0
4.87702e-08
4.79792e-08
5.00345e-08
5.00791e-08
5.09192e-08
0
4.9396e-08
4.99035e-08
5.00464e-08
0
4.97265e-08
4.95655e-08
0
4.87239e-08
1.19356e-07
0
1.1793e-07
1.14471e-07
4.71486e-08
4.7903e-08
4.75976e-08
4.91334e-08
0
0
0
4.83948e-08
4.89383e-08
4.93519e-08
0
5.00342e-08
0
4.92285e-08
4.95657e-08
4.92445e-08
4.84819e-08
0
0
0
0
0
0
0
0
0
0
0
0
0
0
0
0
0
0
0
0
0
0
0
0
0
0
0
0
0
0
4.86349e-08
5.02712e-08
1.2255e-07
1.1743e-07
4.7416e-08
1.18092e-07
0
5.19857e-08
0
1.97841e-07
1.13493e-07
0
4.94528e-08
0
0
0
5.01963e-08
4.99335e-08
4.91579e-08
4.88569e-08
4.92435e-08
5.16813e-08
1.15481e-07
4.88068e-08
0
0
4.97267e-08
4.98329e-08
4.84274e-08
1.97673e-07
4.532e-08
0
0
5.01451e-08
1.1853e-07
4.82732e-08
4.97236e-08
4.83614e-08
1.18503e-07
0
1.18212e-07
1.15547e-07
4.665e-08
4.9826e-08
4.73134e-08
4.69016e-08
4.98611e-08
0
0
0
0
0
0
0
0
0
0
0
0
0
0
0
0
0
0
0
0
0
0
0
0
0
4.83029e-08
4.91582e-08
4.927e-08
1.13721e-07
4.82389e-08
4.83374e-08
4.93762e-08
1.19001e-07
4.78894e-08
4.94214e-08
0
5.05438e-08
4.97815e-08
4.98491e-08
4.95427e-08
4.95588e-08
4.96427e-08
4.96682e-08
5.04585e-08
5.05138e-08
7.09564e-08
8.73364e-08
0
4.98145e-08
0
6.45707e-08
7.39446e-08
3.28771e-09
5.03541e-08
1.15267e-07
4.69781e-08
1.95809e-08
8.73031e-09
4.6193e-08
4.90538e-08
0
5.03874e-08
5.09083e-08
6.22405e-08
1.0276e-07
4.85827e-08
0
4.94149e-08
4.67955e-08
5.07942e-08
5.01616e-08
8.98505e-08
6.83987e-08
1.17349e-07
4.83803e-08
4.84926e-08
0
0
0
0
0
0
0
0
0
0
0
0
0
0
0
0
0
0
0
0
0
0
0
0
)
;


// ************************************************************************* //
