/*--------------------------------*- C++ -*----------------------------------*\
  =========                 |
  \\      /  F ield         | OpenFOAM: The Open Source CFD Toolbox
   \\    /   O peration     | Website:  https://openfoam.org
    \\  /    A nd           | Version:  12
     \\/     M anipulation  |
\*---------------------------------------------------------------------------*/
FoamFile
{
    format      ascii;
    class       volVectorField::Internal;
    location    "0.7";
    object      cloud:UTrans;
}
// * * * * * * * * * * * * * * * * * * * * * * * * * * * * * * * * * * * * * //

dimensions      [1 1 -1 0 0 0 0];

value           nonuniform List<vector> 
3750
(
(2.6696e-11 -1.86805e-09 0)
(1.92753e-11 -1.83151e-09 0)
(3.54586e-11 -1.56823e-09 0)
(1.16375e-11 -3.27495e-09 0)
(-5.91138e-12 -1.47252e-09 0)
(-1.43174e-11 -1.8192e-09 0)
(-5.02924e-11 -1.79278e-09 0)
(3.00647e-11 -1.83666e-09 0)
(2.8534e-11 -1.75124e-09 0)
(-1.85788e-13 -1.72375e-09 0)
(1.53137e-10 -3.5821e-09 0)
(5.74165e-11 -3.46722e-09 0)
(6.1453e-11 -1.49101e-09 0)
(8.21314e-12 -1.72213e-09 0)
(-1.89205e-11 -1.68671e-09 0)
(-1.74788e-11 -1.73473e-09 0)
(-2.75875e-11 -1.75568e-09 0)
(-7.66696e-12 -1.79036e-09 0)
(4.82611e-12 -1.82113e-09 0)
(1.71241e-11 -1.75487e-09 0)
(-4.2069e-11 -3.76649e-09 0)
(-2.03955e-11 -1.6167e-09 0)
(2.97424e-11 -1.68017e-09 0)
(-6.28826e-13 -1.65991e-09 0)
(0 0 0)
(-5.06893e-12 -1.53604e-09 0)
(0 0 0)
(1.3184e-10 -3.73018e-09 0)
(4.07538e-11 -1.55332e-09 0)
(3.95167e-11 -1.63721e-09 0)
(-1.68347e-11 -1.70702e-09 0)
(2.73125e-11 -3.71601e-09 0)
(7.09965e-11 -1.62908e-09 0)
(0 0 0)
(-1.12021e-11 -2.83227e-09 0)
(-6.11556e-12 -2.50533e-09 0)
(0 0 0)
(1.98697e-11 -1.71772e-09 0)
(3.08246e-11 -1.92835e-09 0)
(6.01567e-12 -1.68528e-09 0)
(-1.64763e-11 -1.66874e-09 0)
(-7.28685e-11 -3.73308e-09 0)
(-4.0102e-12 -1.48493e-09 0)
(-5.98952e-11 -1.65683e-09 0)
(-6.89471e-11 -1.67082e-09 0)
(-3.98812e-11 -1.74282e-09 0)
(-1.73341e-11 -1.73751e-09 0)
(-1.1807e-12 -1.73624e-09 0)
(6.55758e-12 -1.626e-09 0)
(-4.66144e-11 -1.64597e-09 0)
(8.51402e-12 -1.61679e-09 0)
(0 0 0)
(0 0 0)
(0 0 0)
(0 0 0)
(0 0 0)
(0 0 0)
(0 0 0)
(0 0 0)
(0 0 0)
(0 0 0)
(0 0 0)
(0 0 0)
(0 0 0)
(0 0 0)
(0 0 0)
(0 0 0)
(0 0 0)
(0 0 0)
(0 0 0)
(0 0 0)
(0 0 0)
(0 0 0)
(0 0 0)
(0 0 0)
(5.21884e-11 -1.83811e-09 0)
(-3.58594e-11 -1.92996e-09 0)
(-3.08852e-11 -1.79685e-09 0)
(-7.24465e-12 -1.60714e-09 0)
(0 0 0)
(-3.7181e-11 -1.77387e-09 0)
(0 0 0)
(0 0 0)
(-1.85444e-12 -1.61533e-09 0)
(2.45318e-11 -1.71309e-09 0)
(2.89638e-11 -1.68597e-09 0)
(5.39319e-11 -1.64094e-09 0)
(-2.06089e-10 -5.76771e-09 0)
(-1.62004e-10 -5.01113e-09 0)
(4.01394e-12 -1.90334e-09 0)
(0 0 0)
(0 0 0)
(0 0 0)
(1.54148e-11 -1.82809e-09 0)
(0 0 0)
(2.92213e-11 -1.67448e-09 0)
(8.52589e-11 -3.56665e-09 0)
(6.87646e-11 -1.74439e-09 0)
(-1.77913e-10 -3.92279e-09 0)
(-8.24912e-11 -3.40759e-09 0)
(5.67272e-11 -1.51145e-09 0)
(0 0 0)
(0 0 0)
(7.12137e-12 -1.75543e-09 0)
(-7.76867e-12 -6.59258e-10 0)
(-5.26539e-11 -4.3654e-09 0)
(-9.37712e-11 -3.29148e-09 0)
(-4.75996e-12 -3.50268e-09 0)
(0 0 0)
(0 0 0)
(0 0 0)
(3.06381e-11 -1.61221e-09 0)
(3.04553e-11 -1.76927e-09 0)
(-6.74261e-13 -1.70818e-09 0)
(-8.93312e-12 -1.78642e-09 0)
(-8.00548e-11 -1.61927e-09 0)
(-1.04153e-10 -1.55915e-09 0)
(-6.53406e-11 -1.62567e-09 0)
(-1.74697e-10 -1.64494e-09 0)
(-1.35027e-10 -1.66772e-09 0)
(-3.30751e-11 -1.70411e-09 0)
(0 0 0)
(0 0 0)
(0 0 0)
(0 0 0)
(0 0 0)
(0 0 0)
(0 0 0)
(0 0 0)
(0 0 0)
(0 0 0)
(0 0 0)
(0 0 0)
(0 0 0)
(0 0 0)
(0 0 0)
(0 0 0)
(0 0 0)
(0 0 0)
(0 0 0)
(0 0 0)
(0 0 0)
(0 0 0)
(0 0 0)
(0 0 0)
(0 0 0)
(0 0 0)
(0 0 0)
(0 0 0)
(0 0 0)
(0 0 0)
(0 0 0)
(-2.63833e-11 -1.75706e-09 0)
(-1.05969e-10 -3.38391e-09 0)
(-9.42871e-11 -3.57998e-09 0)
(-6.07296e-12 -1.55261e-09 0)
(6.11696e-11 -1.62018e-09 0)
(0 0 0)
(1.54168e-11 -1.72592e-09 0)
(0 0 0)
(-8.02856e-13 -7.78674e-11 0)
(1.1843e-11 -3.41264e-09 0)
(-5.6403e-11 -1.4874e-09 0)
(0 0 0)
(1.612e-10 -1.41415e-09 0)
(2.88082e-11 -3.14252e-09 0)
(1.02547e-11 -1.2977e-09 0)
(1.10405e-11 -8.07356e-10 0)
(2.39731e-11 -1.72801e-09 0)
(9.51797e-12 -1.73832e-09 0)
(-1.62376e-10 -1.55345e-09 0)
(-2.28037e-10 -3.64631e-09 0)
(-1.47972e-10 -4.12149e-09 0)
(-1.05121e-10 -1.66317e-09 0)
(3.02257e-11 -3.46427e-09 0)
(-2.49719e-11 -1.5332e-09 0)
(0 0 0)
(-7.14531e-12 -1.67757e-09 0)
(-8.85253e-11 -3.82437e-09 0)
(-2.5783e-11 -3.5526e-09 0)
(0 0 0)
(2.11321e-11 -1.45277e-09 0)
(3.52748e-12 -2.87208e-09 0)
(3.98454e-12 -3.09473e-10 0)
(2.9613e-11 -1.7626e-09 0)
(2.57139e-11 -1.75842e-09 0)
(2.51867e-11 -1.77988e-09 0)
(1.29918e-13 -2.56692e-09 0)
(1.60187e-10 -2.80606e-09 0)
(-1.57982e-10 -3.93752e-09 0)
(-4.81727e-11 -1.54701e-09 0)
(-1.48399e-10 -1.61171e-09 0)
(-4.96829e-11 -1.61894e-09 0)
(0 0 0)
(0 0 0)
(0 0 0)
(0 0 0)
(0 0 0)
(0 0 0)
(0 0 0)
(0 0 0)
(0 0 0)
(0 0 0)
(0 0 0)
(0 0 0)
(0 0 0)
(0 0 0)
(0 0 0)
(0 0 0)
(0 0 0)
(0 0 0)
(0 0 0)
(0 0 0)
(0 0 0)
(0 0 0)
(0 0 0)
(0 0 0)
(0 0 0)
(0 0 0)
(0 0 0)
(0 0 0)
(0 0 0)
(0 0 0)
(0 0 0)
(0 0 0)
(8.5117e-11 -2.11263e-09 0)
(7.36113e-12 -1.85172e-09 0)
(-4.1655e-11 -1.66835e-09 0)
(0 0 0)
(0 0 0)
(-1.66378e-11 -1.45613e-09 0)
(7.02562e-12 -1.63167e-09 0)
(1.75663e-11 -1.76217e-09 0)
(0 0 0)
(-1.21357e-11 -1.39958e-09 0)
(4.92369e-11 -3.66521e-09 0)
(-2.22281e-11 -3.56772e-09 0)
(-8.33425e-12 -1.64867e-09 0)
(1.80334e-11 -1.64165e-09 0)
(2.73524e-11 -1.77264e-09 0)
(-1.49101e-11 -1.74966e-09 0)
(-3.4585e-12 -1.61398e-09 0)
(-2.40117e-11 -3.73917e-09 0)
(-2.35583e-10 -3.77484e-09 0)
(-2.78369e-10 -3.73486e-09 0)
(-1.18378e-10 -1.45943e-09 0)
(-1.35736e-10 -2.30369e-09 0)
(-9.09203e-11 -3.22357e-09 0)
(7.45563e-11 -1.67629e-09 0)
(7.22418e-11 -1.5099e-09 0)
(1.05423e-11 -1.67949e-09 0)
(1.62228e-11 -1.63867e-09 0)
(0 0 0)
(2.76862e-11 -1.7613e-09 0)
(-2.61524e-11 -1.74955e-09 0)
(-3.57784e-11 -1.66746e-09 0)
(-4.75318e-11 -1.66145e-09 0)
(-3.31633e-11 -1.67877e-09 0)
(-1.84805e-11 -2.06127e-09 0)
(8.32305e-12 -2.73091e-09 0)
(3.09211e-12 -1.88026e-10 0)
(1.58591e-12 -1.74094e-09 0)
(-1.45962e-10 -1.82377e-09 0)
(-1.39877e-10 -4.17017e-09 0)
(-6.92001e-11 -1.52941e-09 0)
(-1.09064e-10 -1.46049e-09 0)
(0 0 0)
(0 0 0)
(0 0 0)
(0 0 0)
(0 0 0)
(0 0 0)
(0 0 0)
(0 0 0)
(0 0 0)
(0 0 0)
(0 0 0)
(0 0 0)
(0 0 0)
(0 0 0)
(0 0 0)
(0 0 0)
(0 0 0)
(0 0 0)
(0 0 0)
(0 0 0)
(0 0 0)
(0 0 0)
(0 0 0)
(0 0 0)
(0 0 0)
(0 0 0)
(0 0 0)
(0 0 0)
(0 0 0)
(0 0 0)
(0 0 0)
(0 0 0)
(0 0 0)
(0 0 0)
(-5.66634e-11 -4.58127e-09 0)
(8.48417e-11 -1.96674e-09 0)
(9.35008e-12 -4.23822e-10 0)
(1.30561e-11 -1.51522e-09 0)
(-2.13308e-11 -1.16583e-09 0)
(-2.42538e-11 -1.67799e-09 0)
(4.19745e-12 -9.71624e-10 0)
(1.27263e-13 -2.59281e-11 0)
(3.41047e-11 -1.73954e-09 0)
(0 0 0)
(1.63845e-10 -3.90745e-09 0)
(-1.80487e-11 -1.57653e-09 0)
(-5.2592e-11 -1.55421e-09 0)
(-5.14503e-11 -1.61496e-09 0)
(-3.51572e-11 -4.17983e-09 0)
(-5.79686e-11 -1.5918e-09 0)
(-7.71404e-11 -1.5663e-09 0)
(-1.04838e-10 -4.21064e-09 0)
(0 0 0)
(-1.29177e-10 -1.56813e-09 0)
(-7.76945e-11 -1.68012e-09 0)
(-7.53106e-11 -1.81926e-09 0)
(0 0 0)
(2.97711e-11 -1.67333e-09 0)
(8.37633e-11 -1.72243e-09 0)
(8.7017e-11 -1.64922e-09 0)
(1.17608e-11 -3.16721e-09 0)
(-1.62571e-11 -1.09267e-09 0)
(-3.81165e-11 -2.62613e-09 0)
(1.34604e-11 -1.75382e-09 0)
(-5.51107e-11 -1.64852e-09 0)
(-7.87448e-11 -2.19798e-09 0)
(-4.10834e-11 -3.14872e-09 0)
(2.94693e-13 -1.4978e-09 0)
(0 0 0)
(0 0 0)
(0 0 0)
(-9.76292e-12 -1.80324e-10 0)
(-3.41499e-10 -3.5966e-09 0)
(-4.25185e-11 -1.63074e-09 0)
(-8.26682e-11 -1.6003e-09 0)
(-1.02354e-10 -1.52742e-09 0)
(0 0 0)
(0 0 0)
(0 0 0)
(0 0 0)
(0 0 0)
(0 0 0)
(0 0 0)
(0 0 0)
(0 0 0)
(0 0 0)
(0 0 0)
(0 0 0)
(0 0 0)
(0 0 0)
(0 0 0)
(0 0 0)
(0 0 0)
(0 0 0)
(0 0 0)
(0 0 0)
(0 0 0)
(0 0 0)
(0 0 0)
(0 0 0)
(0 0 0)
(0 0 0)
(0 0 0)
(0 0 0)
(0 0 0)
(0 0 0)
(0 0 0)
(0 0 0)
(0 0 0)
(-7.92103e-11 -1.79524e-09 0)
(6.56563e-11 -1.97252e-09 0)
(1.47496e-10 -1.90806e-09 0)
(5.00407e-11 -2.00372e-09 0)
(-1.18975e-12 -5.17369e-10 0)
(-2.20791e-12 -8.96081e-10 0)
(6.59227e-11 -1.67499e-09 0)
(7.53592e-11 -1.69332e-09 0)
(4.37796e-11 -1.69271e-09 0)
(-7.44779e-11 -1.82083e-09 0)
(-5.19366e-11 -1.53755e-09 0)
(-7.15312e-11 -1.55538e-09 0)
(-1.10528e-10 -1.66783e-09 0)
(-2.23215e-10 -3.07147e-09 0)
(-1.64776e-10 -2.26379e-09 0)
(-8.66525e-11 -1.65141e-09 0)
(-7.8695e-11 -1.61544e-09 0)
(4.88153e-12 -1.49824e-09 0)
(6.59458e-11 -1.73687e-09 0)
(-7.47388e-11 -1.8454e-09 0)
(-1.73969e-10 -1.63193e-09 0)
(-8.53829e-12 -1.72485e-09 0)
(0 0 0)
(3.92318e-11 -1.67514e-09 0)
(2.5555e-11 -1.70369e-09 0)
(2.09926e-11 -1.6986e-09 0)
(-1.60993e-11 -1.69242e-09 0)
(-6.1373e-11 -1.61921e-09 0)
(-8.40716e-11 -1.59197e-09 0)
(-7.51839e-11 -4.38059e-09 0)
(-1.47192e-11 -1.76327e-09 0)
(3.22492e-11 -1.60067e-09 0)
(1.23967e-12 -1.5861e-09 0)
(-9.87646e-12 -1.5139e-09 0)
(-4.73396e-11 -1.52373e-09 0)
(4.26649e-11 -1.77503e-09 0)
(-4.03863e-11 -1.93916e-09 0)
(1.40589e-11 -1.69814e-09 0)
(0 0 0)
(-4.07503e-11 -1.74226e-09 0)
(0 0 0)
(-1.29557e-11 -1.74469e-09 0)
(0 0 0)
(0 0 0)
(0 0 0)
(0 0 0)
(0 0 0)
(0 0 0)
(0 0 0)
(0 0 0)
(0 0 0)
(0 0 0)
(0 0 0)
(0 0 0)
(0 0 0)
(0 0 0)
(0 0 0)
(0 0 0)
(0 0 0)
(0 0 0)
(0 0 0)
(0 0 0)
(0 0 0)
(0 0 0)
(0 0 0)
(0 0 0)
(0 0 0)
(0 0 0)
(0 0 0)
(0 0 0)
(0 0 0)
(0 0 0)
(0 0 0)
(0 0 0)
(0 0 0)
(-4.57022e-11 -1.6971e-09 0)
(-5.53708e-12 -1.8201e-09 0)
(7.52121e-11 -1.84343e-09 0)
(8.49884e-11 -1.85585e-09 0)
(1.36343e-10 -1.85849e-09 0)
(1.41987e-10 -2.43109e-09 0)
(1.51828e-10 -2.77964e-09 0)
(1.10344e-10 -1.46533e-09 0)
(5.60043e-12 -3.54186e-09 0)
(-6.85955e-11 -1.52877e-09 0)
(-4.68781e-11 -3.37724e-09 0)
(-6.25077e-11 -1.39808e-09 0)
(-1.21126e-10 -1.67271e-09 0)
(-1.20908e-10 -1.7726e-09 0)
(-1.03309e-10 -1.81059e-09 0)
(-5.67904e-11 -1.86076e-09 0)
(-7.6184e-11 -1.75991e-09 0)
(-5.12339e-11 -1.75508e-09 0)
(2.01487e-11 -1.80312e-09 0)
(-2.58174e-11 -1.9987e-09 0)
(0 0 0)
(-6.42322e-12 -1.73192e-09 0)
(4.28221e-11 -1.68904e-09 0)
(-3.34586e-11 -1.66158e-09 0)
(3.62664e-11 -1.68895e-09 0)
(7.49182e-12 -1.61157e-09 0)
(2.29326e-11 -1.62531e-09 0)
(-5.30873e-11 -1.73426e-09 0)
(-1.08484e-10 -1.76041e-09 0)
(-1.83946e-11 -1.81909e-09 0)
(4.28022e-11 -1.7336e-09 0)
(1.58527e-11 -1.68185e-09 0)
(-9.79465e-11 -1.66135e-09 0)
(-9.99795e-11 -3.58889e-09 0)
(-8.57766e-11 -1.39567e-09 0)
(-3.50072e-11 -1.7007e-09 0)
(-1.12866e-10 -1.61023e-09 0)
(2.4473e-12 -1.75139e-09 0)
(-2.52609e-11 -2.47354e-09 0)
(1.87442e-11 -7.72935e-10 0)
(-8.98749e-12 -1.72549e-09 0)
(0 0 0)
(0 0 0)
(0 0 0)
(0 0 0)
(0 0 0)
(0 0 0)
(0 0 0)
(0 0 0)
(0 0 0)
(0 0 0)
(0 0 0)
(0 0 0)
(0 0 0)
(0 0 0)
(0 0 0)
(0 0 0)
(0 0 0)
(0 0 0)
(0 0 0)
(0 0 0)
(0 0 0)
(0 0 0)
(0 0 0)
(0 0 0)
(0 0 0)
(0 0 0)
(0 0 0)
(0 0 0)
(0 0 0)
(0 0 0)
(0 0 0)
(0 0 0)
(0 0 0)
(0 0 0)
(4.89778e-11 -1.29225e-09 0)
(-9.68458e-13 -1.9004e-09 0)
(9.09393e-12 -1.84031e-09 0)
(5.75404e-11 -1.77204e-09 0)
(9.75863e-11 -1.76607e-09 0)
(9.03429e-12 -3.69336e-09 0)
(-3.1993e-11 -3.20237e-09 0)
(-8.32409e-11 -3.02626e-09 0)
(-1.00663e-10 -3.71034e-09 0)
(-2.00753e-11 -1.05878e-09 0)
(-4.19813e-12 -1.54026e-09 0)
(-7.09421e-11 -1.62877e-09 0)
(0 0 0)
(-2.40694e-11 -1.71706e-09 0)
(-5.12111e-11 -1.79659e-09 0)
(-4.26693e-11 -1.87531e-09 0)
(0 0 0)
(-1.11065e-10 -1.694e-09 0)
(-8.49994e-11 -1.76814e-09 0)
(-4.53697e-11 -1.85402e-09 0)
(4.73134e-11 -1.82918e-09 0)
(4.3732e-11 -3.20364e-09 0)
(2.43405e-12 -2.22629e-09 0)
(5.48965e-11 -1.66257e-09 0)
(-1.81525e-13 -2.38053e-10 0)
(-1.08451e-12 -1.2351e-09 0)
(4.73449e-11 -1.80842e-09 0)
(0 0 0)
(-6.80299e-11 -1.65215e-09 0)
(-7.23375e-11 -1.71665e-09 0)
(-3.14768e-11 -1.745e-09 0)
(-9.73494e-11 -1.78501e-09 0)
(-1.27391e-10 -1.77841e-09 0)
(-1.21703e-10 -1.68963e-09 0)
(-9.79753e-11 -1.63955e-09 0)
(-1.08766e-10 -1.90429e-09 0)
(-7.19426e-11 -3.97451e-09 0)
(0 0 0)
(5.25982e-11 -3.75772e-09 0)
(5.48657e-11 -3.48852e-09 0)
(4.28894e-11 -1.53911e-09 0)
(0 0 0)
(0 0 0)
(0 0 0)
(0 0 0)
(0 0 0)
(0 0 0)
(0 0 0)
(0 0 0)
(0 0 0)
(0 0 0)
(0 0 0)
(0 0 0)
(0 0 0)
(0 0 0)
(0 0 0)
(0 0 0)
(0 0 0)
(0 0 0)
(0 0 0)
(0 0 0)
(0 0 0)
(0 0 0)
(0 0 0)
(0 0 0)
(0 0 0)
(0 0 0)
(0 0 0)
(0 0 0)
(0 0 0)
(0 0 0)
(0 0 0)
(0 0 0)
(0 0 0)
(0 0 0)
(8.92402e-11 -1.50178e-09 0)
(1.98983e-11 -1.81758e-09 0)
(-2.07385e-11 -1.78571e-09 0)
(3.80238e-11 -1.73852e-09 0)
(1.01244e-10 -1.67474e-09 0)
(1.30797e-10 -3.84784e-09 0)
(-1.58229e-10 -1.38707e-09 0)
(-9.27316e-11 -2.22016e-09 0)
(-1.29843e-11 -8.86422e-10 0)
(7.52534e-11 -1.6909e-09 0)
(-6.3947e-11 -1.62662e-09 0)
(0 0 0)
(2.60523e-11 -1.90146e-09 0)
(0 0 0)
(-2.25684e-11 -1.69426e-09 0)
(-1.84862e-11 -1.88384e-09 0)
(-1.33819e-10 -1.8643e-09 0)
(-9.95115e-11 -1.72903e-09 0)
(-8.5948e-11 -1.76303e-09 0)
(-3.29836e-11 -1.75025e-09 0)
(5.32252e-11 -1.78267e-09 0)
(8.69601e-11 -1.80979e-09 0)
(3.46013e-11 -1.61725e-09 0)
(2.47482e-13 -1.59131e-09 0)
(-4.67039e-12 -1.67968e-09 0)
(7.46951e-12 -1.64046e-09 0)
(4.31514e-11 -1.79644e-09 0)
(-3.00531e-11 -1.85938e-09 0)
(0 0 0)
(-2.61138e-12 -1.61315e-09 0)
(-4.61249e-11 -1.78266e-09 0)
(0 0 0)
(0 0 0)
(-9.15182e-11 -1.73275e-09 0)
(-1.11126e-10 -1.71319e-09 0)
(-1.09973e-10 -1.78292e-09 0)
(-1.12661e-10 -1.91931e-09 0)
(0 0 0)
(-1.80847e-11 -1.74697e-09 0)
(-1.03427e-11 -1.71641e-09 0)
(3.25239e-11 -1.65174e-09 0)
(-1.5822e-11 -1.46528e-09 0)
(0 0 0)
(0 0 0)
(0 0 0)
(0 0 0)
(0 0 0)
(0 0 0)
(0 0 0)
(0 0 0)
(0 0 0)
(0 0 0)
(0 0 0)
(0 0 0)
(0 0 0)
(0 0 0)
(0 0 0)
(0 0 0)
(0 0 0)
(0 0 0)
(0 0 0)
(0 0 0)
(0 0 0)
(0 0 0)
(0 0 0)
(0 0 0)
(0 0 0)
(0 0 0)
(0 0 0)
(0 0 0)
(0 0 0)
(0 0 0)
(0 0 0)
(0 0 0)
(0 0 0)
(8.54697e-11 -3.65127e-09 0)
(-2.49238e-11 -1.37879e-09 0)
(1.04879e-11 -1.45591e-09 0)
(4.23395e-11 -1.67081e-09 0)
(3.02149e-11 -1.85747e-09 0)
(-1.28083e-11 -1.93102e-09 0)
(0 0 0)
(-9.03669e-12 -1.64259e-09 0)
(-2.33207e-11 -1.66822e-09 0)
(-1.38335e-11 -1.73595e-09 0)
(-3.30406e-11 -1.74811e-09 0)
(0 0 0)
(-1.73401e-11 -1.95059e-09 0)
(0 0 0)
(-1.38226e-11 -1.62427e-09 0)
(-5.91974e-11 -1.96184e-09 0)
(0 0 0)
(-1.36832e-12 -1.73316e-09 0)
(-3.91883e-11 -1.68018e-09 0)
(-1.80526e-11 -1.76129e-09 0)
(-5.09563e-12 -2.92369e-09 0)
(7.46387e-11 -2.20726e-09 0)
(8.2183e-11 -1.61255e-09 0)
(-2.24618e-11 -1.6023e-09 0)
(1.4535e-11 -1.55742e-09 0)
(2.28531e-11 -1.53365e-09 0)
(-3.80745e-11 -1.88902e-09 0)
(0 0 0)
(8.26324e-11 -1.59489e-09 0)
(-3.69073e-11 -1.71598e-09 0)
(-4.69582e-11 -1.83234e-09 0)
(3.31634e-12 -1.77158e-09 0)
(9.21342e-12 -1.64941e-09 0)
(-1.16039e-11 -3.59778e-10 0)
(-3.40977e-11 -1.02532e-09 0)
(-7.61093e-11 -1.8792e-09 0)
(0 0 0)
(-1.33131e-11 -1.77676e-09 0)
(-5.15245e-11 -1.81324e-09 0)
(-3.25034e-12 -1.7351e-09 0)
(8.67881e-13 -1.67412e-09 0)
(5.08636e-11 -1.64461e-09 0)
(9.63921e-13 -1.56834e-09 0)
(0 0 0)
(0 0 0)
(0 0 0)
(0 0 0)
(0 0 0)
(0 0 0)
(0 0 0)
(0 0 0)
(0 0 0)
(0 0 0)
(0 0 0)
(0 0 0)
(0 0 0)
(0 0 0)
(0 0 0)
(0 0 0)
(0 0 0)
(0 0 0)
(0 0 0)
(0 0 0)
(0 0 0)
(0 0 0)
(0 0 0)
(0 0 0)
(0 0 0)
(0 0 0)
(0 0 0)
(0 0 0)
(0 0 0)
(0 0 0)
(0 0 0)
(0 0 0)
(-4.95753e-11 -3.57989e-09 0)
(6.36466e-11 -3.21866e-09 0)
(-1.9427e-12 -1.4094e-09 0)
(1.12948e-10 -3.51276e-09 0)
(2.26646e-11 -1.55051e-09 0)
(0 0 0)
(1.0484e-10 -1.8771e-09 0)
(0 0 0)
(-6.82029e-11 -3.75037e-09 0)
(-1.10333e-10 -3.61897e-09 0)
(0 0 0)
(-1.24452e-10 -1.4885e-09 0)
(-1.52029e-11 -1.70408e-09 0)
(5.76779e-13 -1.79921e-09 0)
(0 0 0)
(-1.92557e-11 -1.75124e-09 0)
(4.66833e-11 -1.76108e-09 0)
(4.95737e-12 -1.79803e-09 0)
(0 0 0)
(-2.91901e-13 -1.68158e-09 0)
(0 0 0)
(-3.81379e-12 -1.72071e-09 0)
(-1.2993e-10 -4.38552e-09 0)
(2.66734e-12 -1.48413e-09 0)
(3.40036e-11 -1.50794e-09 0)
(4.6722e-11 -3.49172e-09 0)
(1.49069e-11 -1.66784e-09 0)
(7.51396e-11 -1.70483e-09 0)
(5.30638e-11 -1.71215e-09 0)
(0 0 0)
(-9.65417e-11 -1.83566e-09 0)
(-3.44312e-11 -1.83073e-09 0)
(-1.49078e-11 -1.61463e-09 0)
(0 0 0)
(3.37733e-12 -1.73098e-09 0)
(-9.73244e-11 -1.83837e-09 0)
(0 0 0)
(-6.27387e-12 -1.71148e-09 0)
(0 0 0)
(-3.95999e-11 -1.66529e-09 0)
(-7.40184e-11 -1.55563e-09 0)
(-2.0373e-11 -1.63136e-09 0)
(-1.03714e-10 -3.04992e-09 0)
(-5.39392e-12 -1.43339e-10 0)
(0 0 0)
(0 0 0)
(0 0 0)
(0 0 0)
(0 0 0)
(0 0 0)
(0 0 0)
(0 0 0)
(0 0 0)
(0 0 0)
(0 0 0)
(0 0 0)
(0 0 0)
(0 0 0)
(0 0 0)
(0 0 0)
(0 0 0)
(0 0 0)
(0 0 0)
(0 0 0)
(0 0 0)
(0 0 0)
(0 0 0)
(0 0 0)
(0 0 0)
(0 0 0)
(0 0 0)
(0 0 0)
(0 0 0)
(0 0 0)
(0 0 0)
(-8.59754e-11 -1.83185e-09 0)
(-5.17875e-11 -1.72126e-09 0)
(-6.83718e-12 -1.73831e-09 0)
(8.0269e-12 -1.54098e-09 0)
(1.93872e-10 -3.74271e-09 0)
(4.53768e-11 -1.50111e-09 0)
(1.89205e-10 -3.60653e-09 0)
(2.41644e-10 -3.55427e-09 0)
(0 0 0)
(4.16662e-12 -1.63486e-09 0)
(-1.32859e-11 -1.61794e-09 0)
(-3.70672e-11 -1.64937e-09 0)
(-4.70105e-11 -1.69647e-09 0)
(9.93196e-12 -1.76722e-09 0)
(2.3161e-11 -1.73324e-09 0)
(1.292e-11 -1.70162e-09 0)
(3.33073e-11 -1.76669e-09 0)
(6.05769e-12 -4.87246e-10 0)
(1.26736e-11 -7.91518e-10 0)
(-6.53546e-12 -1.64446e-09 0)
(-2.92212e-11 -1.8076e-09 0)
(-5.99006e-11 -1.92114e-09 0)
(8.19405e-12 -6.45457e-10 0)
(3.41147e-11 -2.58097e-09 0)
(-7.04935e-12 -1.48512e-09 0)
(8.04212e-12 -1.53847e-09 0)
(3.75491e-11 -1.62861e-09 0)
(9.65626e-11 -1.64664e-09 0)
(9.90785e-11 -2.44732e-09 0)
(5.25221e-11 -3.39742e-09 0)
(0 0 0)
(-3.83305e-11 -1.72343e-09 0)
(0 0 0)
(6.57253e-11 -1.74915e-09 0)
(-1.18421e-12 -3.91096e-09 0)
(6.08509e-12 -1.66048e-09 0)
(0 0 0)
(0 0 0)
(-1.75593e-10 -4.08188e-09 0)
(-6.88764e-11 -1.65839e-09 0)
(-9.73966e-11 -1.58069e-09 0)
(-1.13791e-10 -2.60389e-09 0)
(-9.53768e-12 -3.62228e-10 0)
(0 0 0)
(0 0 0)
(0 0 0)
(0 0 0)
(0 0 0)
(0 0 0)
(0 0 0)
(0 0 0)
(0 0 0)
(0 0 0)
(0 0 0)
(0 0 0)
(0 0 0)
(0 0 0)
(0 0 0)
(0 0 0)
(0 0 0)
(0 0 0)
(0 0 0)
(0 0 0)
(0 0 0)
(0 0 0)
(0 0 0)
(0 0 0)
(0 0 0)
(0 0 0)
(0 0 0)
(0 0 0)
(0 0 0)
(0 0 0)
(0 0 0)
(0 0 0)
(0 0 0)
(8.50333e-13 -1.73227e-09 0)
(0 0 0)
(0 0 0)
(2.22682e-13 -1.64574e-09 0)
(3.34866e-11 -1.76616e-09 0)
(0 0 0)
(0 0 0)
(-1.30457e-11 -1.89983e-09 0)
(7.12479e-11 -2.73779e-09 0)
(-3.19995e-11 -2.40742e-09 0)
(1.14576e-11 -1.58387e-09 0)
(1.18112e-11 -1.67016e-09 0)
(2.0101e-12 -2.02861e-09 0)
(3.97369e-11 -3.2634e-09 0)
(7.18333e-11 -3.38839e-09 0)
(5.63349e-11 -1.55806e-09 0)
(9.5857e-12 -2.15922e-09 0)
(1.09914e-11 -9.54229e-10 0)
(1.0702e-11 -1.74673e-09 0)
(-6.50891e-11 -1.76697e-09 0)
(-8.07779e-12 -1.76607e-09 0)
(7.28162e-11 -1.73734e-09 0)
(2.53583e-11 -1.75297e-09 0)
(5.33386e-12 -1.61938e-09 0)
(8.14648e-12 -1.57445e-09 0)
(2.07278e-11 -1.6378e-09 0)
(4.47761e-11 -1.67719e-09 0)
(5.54097e-11 -1.69057e-09 0)
(1.59811e-11 -1.70983e-09 0)
(4.69601e-11 -1.74072e-09 0)
(4.5547e-11 -1.72734e-09 0)
(0 0 0)
(0 0 0)
(0 0 0)
(-1.94734e-11 -1.68102e-09 0)
(1.22723e-11 -1.78348e-09 0)
(3.23796e-11 -1.8517e-09 0)
(0 0 0)
(-1.43328e-10 -1.71349e-09 0)
(-1.99963e-10 -4.73397e-09 0)
(-1.6132e-10 -1.35898e-09 0)
(0 0 0)
(0 0 0)
(0 0 0)
(0 0 0)
(0 0 0)
(0 0 0)
(0 0 0)
(0 0 0)
(0 0 0)
(0 0 0)
(0 0 0)
(0 0 0)
(0 0 0)
(0 0 0)
(0 0 0)
(0 0 0)
(0 0 0)
(0 0 0)
(0 0 0)
(0 0 0)
(0 0 0)
(0 0 0)
(0 0 0)
(0 0 0)
(0 0 0)
(0 0 0)
(0 0 0)
(0 0 0)
(0 0 0)
(0 0 0)
(0 0 0)
(0 0 0)
(0 0 0)
(6.34548e-13 -1.78772e-09 0)
(4.59698e-11 -1.71254e-09 0)
(3.19012e-11 -1.76984e-09 0)
(7.79193e-11 -1.48188e-09 0)
(1.13199e-11 -1.70904e-09 0)
(0 0 0)
(-3.6435e-11 -3.60967e-09 0)
(-1.8001e-10 -4.35871e-09 0)
(-1.26601e-10 -1.65494e-09 0)
(2.93305e-11 -1.61412e-09 0)
(2.17896e-11 -1.65125e-09 0)
(-2.35733e-11 -1.67864e-09 0)
(-1.29767e-11 -1.66919e-09 0)
(5.54321e-11 -1.90109e-09 0)
(-2.03909e-10 -3.87654e-09 0)
(-1.13019e-10 -1.95006e-09 0)
(-1.24296e-10 -3.12382e-09 0)
(0 0 0)
(-7.18091e-11 -1.50378e-09 0)
(-3.70435e-11 -4.08098e-09 0)
(1.05727e-11 -1.5995e-09 0)
(7.08853e-13 -1.5914e-09 0)
(5.41411e-11 -1.668e-09 0)
(2.90922e-11 -1.65465e-09 0)
(3.70991e-11 -1.66277e-09 0)
(1.99939e-11 -1.68823e-09 0)
(6.89e-14 -1.74003e-09 0)
(-3.59578e-12 -4.7132e-10 0)
(-8.42194e-12 -8.65995e-10 0)
(-1.22311e-10 -4.02057e-09 0)
(3.28603e-11 -1.64788e-09 0)
(6.40496e-11 -1.59166e-09 0)
(-1.09953e-10 -3.87743e-09 0)
(-8.41892e-11 -1.48715e-09 0)
(2.91275e-12 -1.76958e-09 0)
(0 0 0)
(-8.13026e-11 -1.83834e-09 0)
(-1.6612e-10 -4.41369e-09 0)
(-6.13579e-11 -1.72724e-09 0)
(2.36958e-12 -1.49887e-09 0)
(-2.20297e-12 -3.65826e-10 0)
(0 0 0)
(0 0 0)
(0 0 0)
(0 0 0)
(0 0 0)
(0 0 0)
(0 0 0)
(0 0 0)
(0 0 0)
(0 0 0)
(0 0 0)
(0 0 0)
(0 0 0)
(0 0 0)
(0 0 0)
(0 0 0)
(0 0 0)
(0 0 0)
(0 0 0)
(0 0 0)
(0 0 0)
(0 0 0)
(0 0 0)
(0 0 0)
(0 0 0)
(0 0 0)
(0 0 0)
(0 0 0)
(0 0 0)
(0 0 0)
(0 0 0)
(0 0 0)
(0 0 0)
(0 0 0)
(-2.07744e-11 -1.6117e-09 0)
(-5.24414e-12 -1.64387e-09 0)
(3.55936e-13 -1.59771e-09 0)
(6.20001e-12 -1.68848e-09 0)
(4.74108e-12 -1.67217e-09 0)
(1.03013e-10 -1.83673e-09 0)
(-6.0084e-11 -1.84181e-09 0)
(-1.16126e-10 -1.82638e-09 0)
(-2.36321e-11 -1.77703e-09 0)
(4.43039e-11 -1.72766e-09 0)
(4.704e-12 -1.72188e-09 0)
(0 0 0)
(-7.86342e-11 -1.73374e-09 0)
(-2.11056e-11 -4.40389e-09 0)
(-1.06818e-10 -1.56908e-09 0)
(-6.07121e-11 -1.52345e-09 0)
(-1.00037e-10 -1.59569e-09 0)
(-8.54469e-11 -2.61328e-09 0)
(-9.27811e-11 -2.72557e-09 0)
(-8.53251e-12 -1.54675e-09 0)
(4.72898e-11 -1.51285e-09 0)
(1.3382e-10 -1.68486e-09 0)
(1.05828e-10 -2.36998e-09 0)
(2.69298e-11 -1.00344e-09 0)
(3.43986e-11 -1.68229e-09 0)
(4.99541e-11 -1.72359e-09 0)
(1.83187e-11 -1.72534e-09 0)
(-6.82602e-12 -1.74234e-09 0)
(-4.74324e-11 -1.71466e-09 0)
(-2.75788e-11 -1.63712e-09 0)
(1.10774e-11 -1.7217e-09 0)
(-4.49607e-11 -1.69253e-09 0)
(-5.50125e-11 -1.5674e-09 0)
(-5.65762e-12 -1.50427e-09 0)
(4.89273e-11 -1.54762e-09 0)
(6.87826e-11 -4.10987e-09 0)
(-9.24235e-11 -1.63504e-09 0)
(-1.15164e-10 -1.59713e-09 0)
(-9.8355e-11 -3.58976e-09 0)
(-1.06628e-10 -1.49242e-09 0)
(-1.31272e-10 -1.76341e-09 0)
(0 0 0)
(0 0 0)
(0 0 0)
(0 0 0)
(0 0 0)
(0 0 0)
(0 0 0)
(0 0 0)
(0 0 0)
(0 0 0)
(0 0 0)
(0 0 0)
(0 0 0)
(0 0 0)
(0 0 0)
(0 0 0)
(0 0 0)
(0 0 0)
(0 0 0)
(0 0 0)
(0 0 0)
(0 0 0)
(0 0 0)
(0 0 0)
(0 0 0)
(0 0 0)
(0 0 0)
(0 0 0)
(0 0 0)
(0 0 0)
(0 0 0)
(0 0 0)
(0 0 0)
(0 0 0)
(-4.09583e-11 -1.5778e-09 0)
(-8.18117e-12 -3.89035e-09 0)
(3.84212e-11 -1.60921e-09 0)
(0 0 0)
(-1.48527e-11 -1.58521e-09 0)
(7.0613e-12 -4.46086e-09 0)
(6.93995e-11 -1.87249e-09 0)
(-4.48219e-11 -1.87558e-09 0)
(0 0 0)
(2.33825e-11 -1.82276e-09 0)
(0 0 0)
(8.34105e-11 -1.84286e-09 0)
(0 0 0)
(-5.69808e-11 -1.84247e-09 0)
(-1.08987e-11 -1.77766e-09 0)
(-3.19889e-11 -1.72138e-09 0)
(-7.75345e-11 -1.86181e-09 0)
(-4.43634e-11 -1.66128e-09 0)
(-5.91247e-11 -1.5294e-09 0)
(-1.29236e-10 -3.43536e-09 0)
(-7.48291e-11 -3.39898e-09 0)
(1.13754e-10 -1.48897e-09 0)
(1.36634e-10 -2.56934e-09 0)
(2.41573e-11 -6.39356e-10 0)
(9.31663e-11 -1.68129e-09 0)
(6.83059e-11 -1.7499e-09 0)
(3.00794e-11 -1.80851e-09 0)
(3.54971e-12 -1.71432e-10 0)
(4.02255e-11 -2.52818e-09 0)
(5.04938e-12 -5.60879e-10 0)
(1.14612e-10 -3.93019e-09 0)
(2.12034e-11 -1.74242e-09 0)
(-2.02548e-11 -1.65471e-09 0)
(-1.38227e-10 -3.62952e-09 0)
(-1.16265e-11 -1.45848e-09 0)
(-1.05761e-10 -3.69827e-09 0)
(6.17253e-11 -1.71676e-09 0)
(-6.65867e-11 -3.12195e-09 0)
(-2.533e-12 -1.08916e-10 0)
(0 0 0)
(0 0 0)
(0 0 0)
(0 0 0)
(0 0 0)
(0 0 0)
(0 0 0)
(0 0 0)
(0 0 0)
(0 0 0)
(0 0 0)
(0 0 0)
(0 0 0)
(0 0 0)
(0 0 0)
(0 0 0)
(0 0 0)
(0 0 0)
(0 0 0)
(0 0 0)
(0 0 0)
(0 0 0)
(0 0 0)
(0 0 0)
(0 0 0)
(0 0 0)
(0 0 0)
(0 0 0)
(0 0 0)
(0 0 0)
(0 0 0)
(0 0 0)
(0 0 0)
(0 0 0)
(0 0 0)
(0 0 0)
(-2.70271e-11 -1.59593e-09 0)
(7.31933e-12 -1.62993e-09 0)
(3.44292e-11 -1.70513e-09 0)
(2.13474e-11 -1.78962e-09 0)
(-7.82498e-11 -1.74009e-09 0)
(-7.51888e-11 -1.7136e-09 0)
(6.64363e-11 -2.0163e-09 0)
(3.72662e-11 -1.90997e-09 0)
(0 0 0)
(2.72808e-11 -1.74023e-09 0)
(0 0 0)
(2.99e-11 -1.73031e-09 0)
(1.11031e-10 -1.81073e-09 0)
(0 0 0)
(6.10546e-12 -1.89238e-09 0)
(0 0 0)
(-1.12991e-10 -3.93142e-09 0)
(-1.76208e-11 -1.66922e-09 0)
(2.23724e-11 -3.81128e-09 0)
(-1.01788e-10 -1.46283e-09 0)
(-8.39233e-11 -1.49085e-09 0)
(-3.96052e-12 -3.37485e-09 0)
(8.76952e-11 -1.47586e-09 0)
(4.23844e-11 -3.78167e-09 0)
(2.73187e-11 -1.59626e-09 0)
(1.22626e-10 -1.55817e-09 0)
(6.78421e-11 -1.66052e-09 0)
(6.39086e-11 -1.62802e-09 0)
(2.58014e-11 -1.69465e-09 0)
(-9.35185e-12 -1.72741e-09 0)
(-2.57767e-11 -1.76429e-09 0)
(3.11064e-11 -1.87402e-09 0)
(-2.14155e-11 -1.9075e-09 0)
(-5.32753e-11 -1.63537e-09 0)
(-2.37559e-10 -3.51159e-09 0)
(-2.19267e-10 -3.11853e-09 0)
(-6.24882e-11 -3.99125e-09 0)
(4.55613e-11 -1.51969e-09 0)
(1.81198e-11 -1.53692e-09 0)
(0 0 0)
(0 0 0)
(0 0 0)
(0 0 0)
(0 0 0)
(0 0 0)
(0 0 0)
(0 0 0)
(0 0 0)
(0 0 0)
(0 0 0)
(0 0 0)
(0 0 0)
(0 0 0)
(0 0 0)
(0 0 0)
(0 0 0)
(0 0 0)
(0 0 0)
(0 0 0)
(0 0 0)
(0 0 0)
(0 0 0)
(0 0 0)
(0 0 0)
(0 0 0)
(0 0 0)
(0 0 0)
(0 0 0)
(0 0 0)
(0 0 0)
(0 0 0)
(0 0 0)
(0 0 0)
(0 0 0)
(0 0 0)
(7.82186e-11 -1.73831e-09 0)
(0 0 0)
(-2.73368e-11 -1.77983e-09 0)
(-3.73594e-11 -1.90943e-09 0)
(0 0 0)
(-5.06613e-11 -1.63888e-09 0)
(1.9514e-11 -1.91062e-09 0)
(1.17968e-10 -1.97017e-09 0)
(0 0 0)
(5.9776e-11 -1.68489e-09 0)
(2.91219e-11 -1.68898e-09 0)
(1.47507e-11 -1.78706e-09 0)
(6.51142e-12 -3.33934e-09 0)
(1.21274e-12 -9.7626e-10 0)
(-4.23965e-13 -8.26506e-10 0)
(-6.86761e-11 -1.74967e-09 0)
(-1.19617e-10 -1.77077e-09 0)
(-8.19615e-11 -1.74321e-09 0)
(-6.5256e-11 -1.79646e-09 0)
(0 0 0)
(-7.04463e-11 -1.51539e-09 0)
(-3.07953e-11 -1.54172e-09 0)
(0 0 0)
(5.13158e-11 -1.77798e-09 0)
(0 0 0)
(2.18744e-10 -3.74193e-09 0)
(-3.31138e-11 -1.49606e-09 0)
(1.93353e-10 -3.70005e-09 0)
(3.30918e-11 -1.57711e-09 0)
(2.37484e-11 -1.61223e-09 0)
(0 0 0)
(2.74829e-11 -2.07213e-09 0)
(-3.18599e-11 -1.71839e-09 0)
(-1.09584e-10 -3.52265e-09 0)
(-1.25174e-10 -1.44865e-09 0)
(-1.26749e-10 -1.53636e-09 0)
(-1.25037e-10 -1.66293e-09 0)
(1.11628e-10 -3.93178e-09 0)
(6.16615e-11 -1.46296e-09 0)
(4.84845e-11 -1.52193e-09 0)
(0 0 0)
(0 0 0)
(0 0 0)
(0 0 0)
(0 0 0)
(0 0 0)
(0 0 0)
(0 0 0)
(0 0 0)
(0 0 0)
(0 0 0)
(0 0 0)
(0 0 0)
(0 0 0)
(0 0 0)
(0 0 0)
(0 0 0)
(0 0 0)
(0 0 0)
(0 0 0)
(0 0 0)
(0 0 0)
(0 0 0)
(0 0 0)
(0 0 0)
(0 0 0)
(0 0 0)
(0 0 0)
(0 0 0)
(0 0 0)
(0 0 0)
(0 0 0)
(0 0 0)
(0 0 0)
(0 0 0)
(6.06098e-12 -1.52981e-09 0)
(4.05017e-11 -1.99123e-09 0)
(0 0 0)
(-6.96208e-11 -1.83106e-09 0)
(6.15755e-11 -3.76922e-09 0)
(6.0131e-11 -1.86855e-09 0)
(3.82354e-11 -1.87505e-09 0)
(9.44988e-11 -1.86353e-09 0)
(9.7154e-11 -1.78489e-09 0)
(5.40272e-11 -1.72763e-09 0)
(-1.13713e-12 -1.56117e-09 0)
(3.5605e-12 -1.618e-09 0)
(7.66175e-11 -1.57711e-09 0)
(9.67137e-11 -1.64425e-09 0)
(-2.80905e-11 -1.82342e-09 0)
(0 0 0)
(-4.25072e-12 -1.79441e-09 0)
(0 0 0)
(-5.39888e-11 -1.681e-09 0)
(-4.29137e-11 -1.71427e-09 0)
(-3.23686e-11 -1.76896e-09 0)
(0 0 0)
(0 0 0)
(0 0 0)
(5.58966e-11 -4.08628e-09 0)
(-8.06711e-11 -3.70807e-09 0)
(-9.2437e-11 -1.42019e-09 0)
(-1.14386e-10 -3.54047e-09 0)
(-2.30868e-11 -1.52966e-09 0)
(2.23627e-12 -1.52936e-09 0)
(5.73523e-11 -1.60799e-09 0)
(5.36345e-11 -1.95732e-09 0)
(-1.19338e-10 -3.16975e-09 0)
(-6.5174e-11 -2.09297e-09 0)
(-8.45933e-11 -1.6295e-09 0)
(-1.07711e-10 -1.7386e-09 0)
(-2.332e-11 -1.6431e-09 0)
(2.39352e-11 -1.65344e-09 0)
(3.61108e-11 -1.67172e-09 0)
(0 0 0)
(0 0 0)
(0 0 0)
(0 0 0)
(0 0 0)
(0 0 0)
(0 0 0)
(0 0 0)
(0 0 0)
(0 0 0)
(0 0 0)
(0 0 0)
(0 0 0)
(0 0 0)
(0 0 0)
(0 0 0)
(0 0 0)
(0 0 0)
(0 0 0)
(0 0 0)
(0 0 0)
(0 0 0)
(0 0 0)
(0 0 0)
(0 0 0)
(0 0 0)
(0 0 0)
(0 0 0)
(0 0 0)
(0 0 0)
(0 0 0)
(0 0 0)
(0 0 0)
(0 0 0)
(0 0 0)
(0 0 0)
(0 0 0)
(2.31916e-11 -1.75144e-09 0)
(3.91603e-12 -2.07036e-09 0)
(0 0 0)
(0 0 0)
(1.34524e-10 -4.48976e-09 0)
(1.00903e-10 -1.84104e-09 0)
(5.66625e-11 -1.74133e-09 0)
(7.28219e-12 -1.77523e-09 0)
(-7.02892e-11 -1.71387e-09 0)
(0 0 0)
(6.69493e-11 -1.72672e-09 0)
(1.18615e-10 -1.7286e-09 0)
(1.42839e-10 -1.86927e-09 0)
(-1.16867e-12 -3.62014e-11 0)
(-5.39768e-11 -1.64315e-09 0)
(1.10934e-11 -1.71853e-09 0)
(0 0 0)
(-7.43463e-11 -1.69317e-09 0)
(-5.16702e-11 -1.7258e-09 0)
(-1.11985e-11 -1.64481e-09 0)
(1.96366e-12 -1.67735e-09 0)
(0 0 0)
(-1.62735e-10 -6.4405e-09 0)
(-5.10135e-11 -1.49576e-09 0)
(-1.16433e-10 -3.53378e-09 0)
(-6.44729e-11 -1.50614e-09 0)
(-5.87149e-11 -2.97979e-09 0)
(7.68181e-12 -1.90177e-09 0)
(0 0 0)
(-1.25663e-11 -1.67208e-09 0)
(7.35457e-11 -4.51913e-09 0)
(-4.52613e-11 -1.69065e-09 0)
(-5.4632e-11 -1.55455e-09 0)
(6.96105e-12 -1.69112e-09 0)
(-1.40432e-10 -1.60359e-09 0)
(-2.18505e-11 -1.55821e-09 0)
(-7.16598e-11 -1.61001e-09 0)
(2.45986e-11 -1.68307e-09 0)
(-9.74963e-11 -1.48657e-09 0)
(2.22978e-11 -1.5917e-09 0)
(9.83047e-11 -1.56338e-09 0)
(0 0 0)
(0 0 0)
(0 0 0)
(0 0 0)
(0 0 0)
(0 0 0)
(0 0 0)
(0 0 0)
(0 0 0)
(0 0 0)
(0 0 0)
(0 0 0)
(0 0 0)
(0 0 0)
(0 0 0)
(0 0 0)
(0 0 0)
(0 0 0)
(0 0 0)
(0 0 0)
(0 0 0)
(0 0 0)
(0 0 0)
(0 0 0)
(0 0 0)
(0 0 0)
(0 0 0)
(0 0 0)
(0 0 0)
(0 0 0)
(0 0 0)
(0 0 0)
(0 0 0)
(-3.90947e-12 -1.65081e-09 0)
(-1.94266e-11 -1.8153e-09 0)
(0 0 0)
(8.29151e-11 -1.78205e-09 0)
(7.94944e-11 -1.69763e-09 0)
(7.20605e-11 -1.87827e-09 0)
(9.14997e-11 -2.13708e-09 0)
(5.32137e-11 -1.95488e-09 0)
(1.40169e-11 -1.8794e-09 0)
(0 0 0)
(3.7028e-11 -1.63934e-09 0)
(7.22438e-11 -1.62853e-09 0)
(2.31659e-10 -1.8526e-09 0)
(1.704e-11 -1.9541e-09 0)
(0 0 0)
(-2.66012e-11 -3.54902e-09 0)
(3.83066e-11 -1.54051e-09 0)
(4.18051e-11 -1.58665e-09 0)
(1.54792e-11 -1.69315e-09 0)
(0 0 0)
(-1.38448e-11 -1.6874e-09 0)
(-9.81676e-11 -3.75059e-09 0)
(-7.772e-11 -1.45362e-09 0)
(-2.87342e-10 -3.78197e-09 0)
(-4.7981e-11 -1.61087e-09 0)
(-8.1133e-11 -1.67238e-09 0)
(-7.1187e-11 -3.73061e-09 0)
(-4.17258e-11 -1.56764e-09 0)
(-4.06071e-11 -1.69621e-09 0)
(0 0 0)
(1.63633e-11 -3.51924e-09 0)
(4.80063e-11 -4.57036e-09 0)
(0 0 0)
(3.54826e-11 -1.69593e-09 0)
(1.78908e-11 -1.52681e-09 0)
(2.19393e-11 -1.47975e-09 0)
(-3.64755e-11 -1.94956e-09 0)
(0 0 0)
(-9.91473e-11 -1.89459e-09 0)
(5.80694e-11 -1.70856e-09 0)
(0 0 0)
(0 0 0)
(0 0 0)
(0 0 0)
(0 0 0)
(0 0 0)
(0 0 0)
(0 0 0)
(0 0 0)
(0 0 0)
(0 0 0)
(0 0 0)
(0 0 0)
(0 0 0)
(0 0 0)
(0 0 0)
(0 0 0)
(0 0 0)
(0 0 0)
(0 0 0)
(0 0 0)
(0 0 0)
(0 0 0)
(0 0 0)
(0 0 0)
(0 0 0)
(0 0 0)
(0 0 0)
(0 0 0)
(0 0 0)
(0 0 0)
(0 0 0)
(0 0 0)
(0 0 0)
(0 0 0)
(1.70283e-11 -1.70079e-09 0)
(-3.6293e-11 -1.6137e-09 0)
(9.19881e-12 -1.71238e-09 0)
(1.18064e-10 -3.47194e-09 0)
(8.73368e-11 -1.69012e-09 0)
(1.68107e-11 -2.01775e-09 0)
(0 0 0)
(7.09591e-11 -1.85843e-09 0)
(1.7023e-10 -1.85727e-09 0)
(2.38837e-10 -1.92029e-09 0)
(1.4737e-10 -1.6465e-09 0)
(1.10799e-10 -1.62385e-09 0)
(1.03991e-10 -4.44431e-09 0)