/*--------------------------------*- C++ -*----------------------------------*\
  =========                 |
  \\      /  F ield         | OpenFOAM: The Open Source CFD Toolbox
   \\    /   O peration     | Website:  https://openfoam.org
    \\  /    A nd           | Version:  12
     \\/     M anipulation  |
\*---------------------------------------------------------------------------*/
FoamFile
{
    format      ascii;
    class       volScalarField;
    location    "0.7";
    object      p;
}
// * * * * * * * * * * * * * * * * * * * * * * * * * * * * * * * * * * * * * //

dimensions      [0 2 -2 0 0 0 0];

internalField   nonuniform List<scalar> 
3750
(
0.74329
0.735703
0.728241
0.713237
0.704718
0.69533
0.685343
0.675338
0.665316
0.655298
0.645248
0.634688
0.625362
0.615052
0.602446
0.592212
0.58162
0.571153
0.561629
0.552494
0.543259
0.534001
0.524926
0.516082
0.506178
0.494698
0.482849
0.471717
0.461305
0.451131
0.438588
0.428271
0.418866
0.40872
0.399543
0.379135
0.371169
0.362141
0.352154
0.343477
0.33424
0.324121
0.311579
0.301108
0.291866
0.283191
0.273959
0.264498
0.255073
0.245684
0.236148
0.226554
0.217023
0.207476
0.197901
0.188308
0.1787
0.169081
0.159452
0.149815
0.140171
0.130521
0.120864
0.1112
0.101528
0.0918483
0.0821658
0.0724846
0.0628127
0.0531479
0.0434806
0.0338104
0.0241358
0.0144428
0.0047899
0.742874
0.735479
0.727518
0.715918
0.705723
0.695735
0.685626
0.675332
0.6652
0.655334
0.645644
0.634082
0.625137
0.617377
0.599982
0.592473
0.581467
0.570226
0.561239
0.552495
0.543608
0.533924
0.523756
0.51747
0.50779
0.495146
0.481615
0.470725
0.461062
0.45358
0.436405
0.428706
0.419194
0.407279
0.39559
0.381947
0.371994
0.362532
0.351427
0.342985
0.333376
0.323218
0.31239
0.302231
0.2926
0.283373
0.274023
0.264603
0.255156
0.245671
0.236161
0.226622
0.217065
0.207499
0.197917
0.18832
0.17871
0.169089
0.159458
0.14982
0.140176
0.130526
0.120868
0.111203
0.101528
0.091846
0.0821588
0.0724757
0.062806
0.0531471
0.0434837
0.0338124
0.0241326
0.0144343
0.00478143
0.741494
0.736186
0.728695
0.717859
0.706597
0.696749
0.686145
0.675152
0.664788
0.655188
0.6473
0.630193
0.623201
0.61417
0.603143
0.59653
0.581588
0.566922
0.560867
0.552753
0.544329
0.534574
0.52058
0.520989
0.510142
0.496335
0.480748
0.46868
0.458776
0.450184
0.439763
0.430764
0.422818
0.404585
0.393352
0.381066
0.372211
0.364959
0.347543
0.344052
0.331634
0.322692
0.312779
0.302902
0.2932
0.283688
0.274215
0.26474
0.255258
0.245755
0.236218
0.226664
0.217102
0.207528
0.197941
0.18834
0.178727
0.169104
0.159471
0.149832
0.140186
0.130534
0.120876
0.11121
0.101535
0.0918534
0.0821668
0.0724838
0.0628115
0.0531463
0.0434804
0.033811
0.0241316
0.0144327
0.00477363
0.736695
0.738203
0.732744
0.720162
0.707857
0.69746
0.686591
0.674007
0.663726
0.653518
0.643168
0.633166
0.62323
0.612735
0.60154
0.593793
0.581663
0.569598
0.563389
0.554526
0.546209
0.537433
0.51804
0.520626
0.507834
0.497122
0.481802
0.466974
0.456457
0.448723
0.440547
0.431797
0.421145
0.410061
0.392521
0.377214
0.370464
0.36194
0.347573
0.345849
0.333507
0.323172
0.313169
0.30332
0.293601
0.283985
0.274428
0.264893
0.255369
0.245839
0.236294
0.226731
0.217157
0.207574
0.197979
0.188373
0.178755
0.169128
0.159493
0.14985
0.140201
0.130547
0.120886
0.11122
0.101548
0.0918692
0.0821876
0.0725077
0.0628323
0.0531591
0.043486
0.0338117
0.0241312
0.0144295
0.00476931
0.73552
0.73652
0.738072
0.720802
0.707298
0.697889
0.689322
0.670984
0.662433
0.652427
0.639337
0.634726
0.623615
0.612507
0.59835
0.594046
0.581446
0.56882
0.566786
0.556013
0.546634
0.536454
0.52445
0.517393
0.506049
0.49538
0.48501
0.467029
0.451732
0.446698
0.442369
0.434626
0.41872
0.406762
0.391303
0.380165
0.370952
0.366061
0.348446
0.343638
0.333518
0.323362
0.313432
0.303608
0.29388
0.284225
0.274621
0.265049
0.255492
0.245937
0.236376
0.226804
0.217222
0.20763
0.198028
0.188415
0.178792
0.16916
0.15952
0.149873
0.140221
0.130564
0.120903
0.111237
0.101565
0.0918888
0.0822091
0.0725292
0.0628502
0.053172
0.0434935
0.0338151
0.0241321
0.0144277
0.00476667
0.739965
0.73447
0.729043
0.718219
0.716252
0.697485
0.686154
0.672359
0.662536
0.653666
0.641054
0.631019
0.622962
0.615538
0.598902
0.58993
0.580913
0.570907
0.563761
0.555519
0.548311
0.537839
0.526848
0.516109
0.504822
0.491624
0.480381
0.467307
0.454705
0.444319
0.443662
0.430745
0.420448
0.407623
0.392232
0.381023
0.368733
0.367384
0.354354
0.342746
0.333128
0.323425
0.313637
0.303842
0.294098
0.284414
0.274783
0.265188
0.255611
0.24604
0.236466
0.226885
0.217294
0.207695
0.198086
0.188466
0.178837
0.1692
0.159554
0.149903
0.140246
0.130587
0.120926
0.111259
0.101587
0.0919102
0.0822306
0.0725489
0.0628667
0.0531845
0.0435018
0.0338198
0.0241342
0.0144273
0.00476544
0.741524
0.733705
0.726209
0.717841
0.712427
0.703718
0.684874
0.670931
0.662841
0.652426
0.64116
0.630187
0.621443
0.61236
0.600705
0.589958
0.58129
0.571978
0.562425
0.553346
0.551519
0.539608
0.527309
0.515937
0.5061
0.486156
0.477584
0.467378
0.456068
0.44618
0.440534
0.429422
0.419567
0.409003
0.393352
0.384039
0.368812
0.366535
0.358489
0.340589
0.332714
0.323558
0.313891
0.304049
0.294254
0.284548
0.274908
0.265309
0.255725
0.246146
0.236564
0.226975
0.217377
0.207771
0.198154
0.188528
0.178892
0.169248
0.159598
0.149941
0.140281
0.130619
0.120954
0.111285
0.101611
0.0919322
0.0822507
0.072567
0.0628821
0.0531965
0.0435106
0.0338257
0.0241373
0.0144278
0.0047649
0.739234
0.732198
0.724558
0.716734
0.709296
0.702604
0.687668
0.67399
0.665929
0.648903
0.640857
0.629403
0.620609
0.611828
0.601449
0.591195
0.582376
0.573013
0.563515
0.554734
0.549002
0.54129
0.524921
0.514334
0.503632
0.484786
0.476779
0.468373
0.456501
0.44658
0.437499
0.427675
0.418632
0.408328
0.396154
0.387203
0.3669
0.366053
0.355745
0.343733
0.333846
0.324195
0.314266
0.304207
0.294329
0.284617
0.274996
0.265411
0.255835
0.246257
0.236671
0.227075
0.21747
0.207856
0.198232
0.188598
0.178956
0.169305
0.159649
0.149988
0.140323
0.130656
0.120987
0.111314
0.101637
0.091956
0.0822719
0.0725856
0.0628978
0.0532092
0.0435204
0.0338326
0.0241413
0.0144292
0.00476488
0.74193
0.731247
0.723384
0.715122
0.704844
0.70061
0.688764
0.679652
0.662092
0.651488
0.64217
0.628455
0.619777
0.613117
0.60196
0.591182
0.58421
0.574267
0.564277
0.555154
0.546682
0.535713
0.524893
0.513296
0.501014
0.487709
0.477046
0.470994
0.456927
0.446091
0.43557
0.426064
0.419175
0.408892
0.395828
0.385345
0.374607
0.364292
0.355247
0.34491
0.335069
0.325072
0.314774
0.304186
0.29424
0.284597
0.275044
0.265503
0.255948
0.246377
0.23679
0.227189
0.217576
0.207952
0.198319
0.188677
0.179026
0.169369
0.159706
0.150038
0.140369
0.130696
0.121023
0.111347
0.101666
0.0919818
0.0822944
0.072605
0.0629143
0.0532227
0.043531
0.0338403
0.0241461
0.0144313
0.00476523
0.745998
0.730665
0.722745
0.713935
0.69805
0.697037
0.693353
0.679382
0.666311
0.653553
0.641571
0.629578
0.618671
0.616373
0.602306
0.590128
0.587445
0.575269
0.564251
0.554758
0.547569
0.5298
0.522125
0.513954
0.501151
0.488326
0.476069
0.473145
0.458486
0.445004
0.434123
0.423988
0.421965
0.412115
0.392958
0.384223
0.375367
0.364576
0.355386
0.345835
0.336162
0.326245
0.315617
0.303527
0.293847
0.284487
0.275083
0.265607
0.256077
0.246512
0.236922
0.227313
0.21769
0.208056
0.198413
0.188762
0.179102
0.169437
0.159767
0.150093
0.140418
0.130741
0.121064
0.111383
0.101698
0.0920092
0.0823181
0.0726256
0.0629317
0.0532371
0.0435424
0.0338488
0.0241516
0.0144339
0.0047659
0.748147
0.731433
0.722322
0.712702
0.700326
0.695142
0.688865
0.679267
0.670808
0.653915
0.641157
0.632167
0.622891
0.617201
0.602879
0.593133
0.585904
0.575291
0.562809
0.55211
0.542723
0.530488
0.521691
0.516758
0.501664
0.489292
0.478883
0.470884
0.459654
0.442215
0.435015
0.425518
0.418388
0.407933
0.395067
0.384914
0.375382
0.365553
0.356061
0.346881
0.337255
0.327711
0.317961
0.300584
0.293174
0.28442
0.275189
0.265763
0.256244
0.246673
0.237072
0.22745
0.217815
0.208169
0.198514
0.188851
0.179183
0.169509
0.159831
0.150152
0.140472
0.130791
0.121108
0.111422
0.101731
0.0920378
0.082343
0.072647
0.0629501
0.0532522
0.0435544
0.0338578
0.0241576
0.0144371
0.00476679
0.743903
0.732093
0.721851
0.712102
0.702007
0.694287
0.685972
0.676754
0.66759
0.659095
0.645326
0.635063
0.625789
0.617529
0.604884
0.595096
0.586182
0.577886
0.557934
0.54947
0.539943
0.530135
0.529784
0.513208
0.500471
0.490406
0.480734
0.470417
0.4604
0.438354
0.43677
0.425654
0.415383
0.405075
0.394341
0.385299
0.37561
0.366311
0.357073
0.348059
0.338134
0.329632
0.312448
0.302869
0.293974
0.284842
0.275496
0.266016
0.256462
0.246864
0.237241
0.227601
0.217949
0.208288
0.19862
0.188945
0.179266
0.169582
0.159897
0.150212
0.140526
0.13084
0.121152
0.111461
0.101765
0.0920679
0.0823692
0.0726696
0.0629692
0.053268
0.0435671
0.0338674
0.0241641
0.0144406
0.00476786
0.741619
0.73152
0.721273
0.71153
0.701841
0.693388
0.684172
0.674292
0.666107
0.666737
0.646625
0.636339
0.627569
0.62087
0.604186
0.596146
0.586223
0.576992
0.55656
0.547805
0.541364
0.532581
0.525677
0.512354
0.500826
0.490857
0.481306
0.469767
0.456673
0.443051
0.434292
0.424394
0.413266
0.4029
0.393566
0.384542
0.37537
0.366373
0.359053
0.34836
0.336667
0.325107
0.314661
0.304631
0.295008
0.285476
0.275928
0.266339
0.25672
0.24708
0.237425
0.227761
0.21809
0.208413
0.19873
0.189042
0.179351
0.169657
0.159963
0.150271
0.140582
0.130891
0.121197
0.1115
0.1018
0.0920984
0.082396
0.0726929
0.0629888
0.0532842
0.0435802
0.0338773
0.024171
0.0144444
0.00476906
0.74083
0.731315
0.720599
0.710634
0.700801
0.692767
0.683467
0.672609
0.671024
0.662864
0.649914
0.636825
0.62679
0.617209
0.610093
0.599522
0.58485
0.573606
0.560172
0.547074
0.544634
0.533873
0.523916
0.510306
0.50012
0.49041
0.482628
0.471285
0.453321
0.444794
0.432526
0.424394
0.41243
0.401446
0.392856
0.383609
0.376172
0.36568
0.363369
0.349502
0.342276
0.327887
0.316461
0.305976
0.295946
0.286129
0.276397
0.266696
0.257004
0.247313
0.237622
0.22793
0.218238
0.208543
0.198845
0.189144
0.179441
0.169736
0.160033
0.150334
0.140638
0.130941
0.121242
0.11154
0.101836
0.0921301
0.0824238
0.0727167
0.063009
0.053301
0.0435936
0.0338876
0.0241781
0.0144485
0.00477038
0.741421
0.731674
0.719842
0.70995
0.699546
0.691381
0.685349
0.676562
0.670592
0.661193
0.651044
0.636729
0.626439
0.614392
0.611241
0.598472
0.586448
0.580051
0.562973
0.55044
0.543538
0.53361
0.525896
0.506267
0.498665
0.490164
0.481866
0.468972
0.455886
0.444092
0.433371
0.425839
0.419838
0.405158
0.39289
0.381492
0.380269
0.369731
0.36068
0.349578
0.339666
0.328336
0.317384
0.306861
0.296677
0.286698
0.276836
0.267041
0.257283
0.247546
0.23782
0.228102
0.218387
0.208674
0.198961
0.189248
0.179535
0.169823
0.160113
0.150405
0.1407
0.130995
0.121289
0.111582
0.101873
0.0921625
0.082452
0.072741
0.0630296
0.0533181
0.0436074
0.0338981
0.0241855
0.0144527
0.00477174
0.741879
0.731614
0.718059
0.709709
0.69842
0.687836
0.687272
0.680132
0.67032
0.660464
0.650195
0.638082
0.627681
0.616887
0.608087
0.596211
0.584316
0.58096
0.568267
0.555559
0.543775
0.53231
0.524398
0.50529
0.498322
0.489655
0.482168
0.471323
0.455794
0.440113
0.432987
0.425865
0.419021
0.40828
0.393452
0.384022
0.378691
0.37461
0.356988
0.348465
0.338795
0.328363
0.317829
0.307424
0.297208
0.287152
0.277213
0.267352
0.257543
0.247767
0.23801
0.228267
0.218533
0.208803
0.199076
0.189352
0.179629
0.169908
0.16019
0.150475
0.140762
0.13105
0.121337
0.111624
0.10191
0.0921953
0.0824805
0.0727655
0.0630504
0.0533353
0.0436213
0.0339088
0.0241929
0.0144571
0.00477322
0.741292
0.72883
0.717354
0.70927
0.699366
0.690607
0.683636
0.682955
0.669659
0.66028
0.649933
0.639482
0.629504
0.617684
0.60599
0.595884
0.586168
0.578865
0.569482
0.555696
0.544278
0.532778
0.519139
0.507576
0.498997
0.489413
0.479591
0.46802
0.455441
0.442883
0.433179
0.424852
0.418877
0.409335
0.395701
0.385962
0.375163
0.373151
0.358726
0.348849
0.338814
0.328556
0.318153
0.307801
0.297578
0.287489
0.277509
0.267611
0.257769
0.247965
0.238186
0.228424
0.218672
0.208929
0.19919
0.189453
0.17972
0.169991
0.160266
0.150544
0.140823
0.131104
0.121385
0.111666
0.101947
0.0922281
0.0825092
0.0727902
0.0630713
0.0533526
0.0436352
0.0339195
0.0242004
0.0144614
0.00477467
0.739705
0.725266
0.717953
0.707351
0.70427
0.693291
0.684732
0.679069
0.669865
0.660729
0.64972
0.640603
0.63359
0.618337
0.602991
0.595307
0.586334
0.577257
0.567256
0.556204
0.544694
0.531979
0.519332
0.508864
0.499379
0.489343
0.477859
0.466549
0.455407
0.443351
0.432774
0.422394
0.421264
0.410177
0.395914
0.387589
0.37721
0.370264
0.356899
0.348673
0.339025
0.328841
0.318425
0.30805
0.297809
0.287714
0.277726
0.267815
0.257959
0.248139
0.238345
0.228569
0.218804
0.209049
0.199299
0.189552
0.179807
0.17007
0.160338
0.150609
0.140883
0.131157
0.121433
0.111708
0.101984
0.0922604
0.0825373
0.0728145
0.0630919
0.0533698
0.043649
0.0339301
0.0242079
0.0144659
0.00477619
0.736556
0.722994
0.719964
0.710934
0.702352
0.692299
0.686188
0.677124
0.669282
0.661646
0.648623
0.639624
0.630249
0.61895
0.607581
0.596113
0.5864
0.576741
0.566387
0.555961
0.545805
0.531248
0.519665
0.508837
0.499968
0.490309
0.476896
0.466256
0.454611
0.442163
0.431956
0.42317
0.422674
0.405764
0.397374
0.388712
0.377231
0.36619
0.357263
0.349044
0.339715
0.329355
0.318664
0.308171
0.29792
0.287834
0.277866
0.267966
0.258112
0.248289
0.238487
0.228701
0.218927
0.209162
0.199402
0.189644
0.179892
0.170148
0.160408
0.150673
0.140941
0.131209
0.121478
0.111749
0.10202
0.0922919
0.0825648
0.0728383
0.0631121
0.0533866
0.0436626
0.0339405
0.0242153
0.0144702
0.00477766
0.735478
0.725143
0.716737
0.714039
0.700867
0.687724
0.68524
0.674468
0.66896
0.662574
0.649891
0.638859
0.628726
0.6197
0.612706
0.595132
0.586563
0.576345
0.566059
0.5556
0.54514
0.532762
0.519769
0.506696
0.501576
0.489172
0.477981
0.468691
0.45196
0.439709
0.430434
0.420262
0.421654
0.407968
0.39791
0.386964
0.376739
0.367511
0.35808
0.350872
0.341377
0.330206
0.318719
0.308053
0.297837
0.287833
0.27793
0.268069
0.258233
0.248416
0.238613
0.228821
0.219039
0.209265
0.199496
0.189729
0.179968
0.170216
0.160471
0.150732
0.140994
0.131257
0.121522
0.111787
0.102054
0.0923224
0.0825915
0.0728613
0.0631318
0.053403
0.0436759
0.0339507
0.0242225
0.0144745
0.00477913
0.738056
0.72807
0.719079
0.710778
0.699203
0.687921
0.677991
0.67416
0.668931
0.664952
0.649662
0.637029
0.625938
0.619119
0.613212
0.599938
0.588421
0.575966
0.565676
0.555146
0.545031
0.53542
0.52129
0.511178
0.497588
0.486333
0.47698
0.463192
0.452543
0.441024
0.430609
0.419621
0.4205
0.407366
0.394806
0.389096
0.375317
0.370176
0.358965
0.353453
0.342715
0.331241
0.317958
0.307478
0.297576
0.287773
0.277962
0.26815
0.258338
0.24853
0.238727
0.228932
0.219143
0.209361
0.199584
0.189811
0.180044
0.170286
0.160536
0.15079
0.141045
0.131303
0.121563
0.111824
0.102087
0.0923516
0.0826171
0.0728835
0.0631507
0.0534189
0.0436887
0.0339606
0.0242295
0.0144787
0.00478051
0.74202
0.732078
0.72164
0.709526
0.697611
0.686089
0.682846
0.674406
0.666631
0.658542
0.646693
0.634165
0.620835
0.618902
0.615573
0.601785
0.588919
0.574707
0.565755
0.554071
0.544391
0.534923
0.52433
0.513132
0.495713
0.481423
0.47452
0.463008
0.452868
0.442776
0.432483
0.421663
0.417594
0.406184
0.396873
0.387128
0.377422
0.370168
0.363964
0.34946
0.34219
0.334391
0.314469
0.306324
0.2972
0.287672
0.277985
0.268227
0.258438
0.248638
0.238835
0.229036
0.219242
0.209454
0.199671
0.189893
0.180122
0.170357
0.160599
0.150845
0.141094
0.131346
0.121602
0.111859
0.102119
0.0923794
0.0826416
0.0729048
0.0631689
0.0534341
0.043701
0.0339701
0.0242362
0.0144828
0.00478189
0.745912
0.736133
0.725751
0.708024
0.697135
0.689345
0.68293
0.674896
0.664553
0.654378
0.644162
0.632886
0.622445
0.621946
0.608298
0.600772
0.586411
0.575561
0.568201
0.551022
0.543508
0.534524
0.52315
0.512628
0.49304
0.484254
0.47544
0.463503
0.453417
0.443772
0.435727
0.41938
0.415279
0.406847
0.400946
0.384944
0.378173
0.369813
0.361346
0.351111
0.34208
0.334234
0.314381
0.306301
0.297235
0.287753
0.278089
0.268339
0.258551
0.248747
0.23894
0.229135
0.219335
0.20954
0.199751
0.189968
0.180191
0.170422
0.160657
0.150897
0.141141
0.131388
0.121639
0.111893
0.102148
0.0924059
0.0826648
0.0729248
0.0631861
0.0534484
0.0437126
0.0339791
0.0242426
0.0144866
0.00478321
0.745157
0.738115
0.721346
0.710767
0.701343
0.692657
0.683032
0.677559
0.66224
0.650803
0.643282
0.631514
0.620009
0.620613
0.608278
0.597884
0.585125
0.575116
0.565359
0.553478
0.544158
0.536532
0.518845
0.507311
0.494936
0.487374
0.477703
0.463892
0.453601
0.443176
0.431847
0.419258
0.417283
0.407361
0.397966
0.38927
0.380036
0.370346
0.360625
0.35064
0.340751
0.330456
0.317657
0.307444
0.297705
0.288014
0.278272
0.268487
0.258678
0.248859
0.239042
0.229229
0.219421
0.209619
0.199824
0.190036
0.180255
0.170481
0.160711
0.150945
0.141183
0.131427
0.121674
0.111924
0.102177
0.0924307
0.0826865
0.0729438
0.0632023
0.053462
0.0437236
0.0339875
0.0242486
0.0144903
0.00478448
0.74419
0.734307
0.719861
0.715573
0.704946
0.696758
0.679969
0.673919
0.663189
0.650391
0.645537
0.630544
0.622351
0.616596
0.606337
0.596087
0.584177
0.574423
0.564604
0.553488
0.543165
0.533131
0.521311
0.506338
0.493945
0.492028
0.477917
0.466156
0.453825
0.443563
0.430643
0.42039
0.413647
0.40683
0.395508
0.392654
0.382044
0.370841
0.360282
0.349999
0.339804
0.329343
0.31839
0.308108
0.298169
0.288336
0.278504
0.268661
0.258817
0.248977
0.239141
0.229316
0.219499
0.209691
0.19989
0.190098
0.180313
0.170533
0.160757
0.150988
0.141223
0.131463
0.121707
0.111953
0.102202
0.0924535
0.0827067
0.0729613
0.0632172
0.0534745
0.0437338
0.0339954
0.0242542
0.0144937
0.00478568
0.743864
0.733489
0.722311
0.714641
0.704592
0.69388
0.682365
0.673347
0.663782
0.648794
0.648656
0.632691
0.622569
0.614545
0.60418
0.595986
0.581587
0.573967
0.565071
0.552467
0.541857
0.531452
0.520509
0.508142
0.497057
0.491166
0.476643
0.46846
0.454897
0.446922
0.428507
0.420442
0.410299
0.408858
0.39796
0.391199
0.382114
0.370714
0.359832
0.349304
0.339034
0.328765
0.318443
0.308461
0.298571
0.28866
0.27874
0.268833
0.258947
0.249079
0.239229
0.229392
0.219567
0.209753
0.199948
0.190151
0.180361
0.170577
0.160798
0.151025
0.141257
0.131494
0.121736
0.111979
0.102226
0.0924744
0.0827251
0.0729774
0.063231
0.053486
0.0437432
0.0340026
0.0242594
0.0144969
0.00478681
0.744012
0.733837
0.723698
0.714127
0.702724
0.691838
0.682254
0.673202
0.663495
0.652715
0.646553
0.636013
0.619401
0.615118
0.600063
0.589257
0.586066
0.575338
0.567619
0.549535
0.540546
0.53027
0.519915
0.509773
0.498099
0.490185
0.476684
0.468115
0.457431
0.44537
0.432589
0.421618
0.414036
0.407566
0.398254
0.389903
0.3833
0.370187
0.359014
0.348474
0.338388
0.328115
0.318154
0.308782
0.299036
0.28901
0.27897
0.268992
0.259062
0.24917
0.239304
0.229457
0.219626
0.209807
0.199998
0.190197
0.180404
0.170616
0.160833
0.151057
0.141288
0.131523
0.121761
0.112003
0.102247
0.0924931
0.0827416
0.0729918
0.0632434
0.0534965
0.0437516
0.0340092
0.0242641
0.0144998
0.00478785
0.744237
0.733988
0.72454
0.71499
0.698902
0.688467
0.681628
0.673808
0.664274
0.653632
0.643832
0.630514
0.619958
0.610782
0.600129
0.593675
0.583395
0.574514
0.564741
0.55265
0.540354
0.529346
0.520172
0.512517
0.494718
0.487336
0.479691
0.468663
0.459302
0.447395
0.435847
0.42092
0.416916
0.406229
0.396985
0.388621
0.389155
0.367273
0.357673
0.347532
0.337983
0.327025
0.316953
0.309879
0.299693
0.289298
0.279134
0.269098
0.25914
0.249233
0.239359
0.229508
0.219673
0.209851
0.20004
0.190236
0.18044
0.170649
0.160864
0.151086
0.141314
0.131548
0.121784
0.112023
0.102265
0.0925098
0.0827564
0.0730047
0.0632545
0.0535058
0.0437592
0.0340151
0.0242683
0.0145024
0.0047888
0.744955
0.73338
0.72545
0.707528
0.69798
0.687105
0.681981
0.676164
0.66603
0.653106
0.641444
0.627536
0.617855
0.60792
0.599332
0.597094
0.583973
0.574193
0.564226
0.556082
0.538922
0.527308
0.51889
0.509322
0.495951
0.485032
0.484601
0.470949
0.458771
0.453904
0.442332
0.423425
0.410326
0.403982
0.398347
0.390283
0.38642
0.367156
0.356812
0.347408
0.337898
0.325107
0.314067
0.311922
0.300088
0.289398
0.279173
0.269127
0.259171
0.249266
0.239393
0.229542
0.219707
0.209885
0.200073
0.190268
0.180471
0.170678
0.160891
0.151111
0.141338
0.13157
0.121804
0.112041
0.102282
0.0925243
0.0827692
0.0730159
0.0632641
0.0535139
0.0437659
0.0340202
0.0242721
0.0145047
0.00478966
0.748639
0.729245
0.720858
0.708626
0.697229
0.684907
0.68315
0.681694
0.669644
0.651199
0.635478
0.626401
0.61617
0.605118
0.602916
0.594785
0.584871
0.57415
0.561854
0.552499
0.542505
0.529507
0.517629
0.507577
0.494823
0.486593
0.48622
0.474974
0.463666
0.453221
0.44073
0.424291
0.411793
0.40201
0.400298
0.389837
0.382153
0.372851
0.355184
0.347374
0.338395
0.324306
0.315749
0.309226
0.299263
0.289088
0.279035
0.269068
0.25915
0.249266
0.239405
0.229561
0.21973
0.209909
0.200098
0.190294
0.180495
0.170703
0.160915
0.151133
0.141358
0.131588
0.121821
0.112056
0.102295
0.0925362
0.0827798
0.0730253
0.0632723
0.0535208
0.0437715
0.0340246
0.0242753
0.0145068
0.00479043
0.74865
0.728889
0.720188
0.70894
0.697937
0.688837
0.684716
0.6795
0.664677
0.646734
0.636875
0.627456
0.616247
0.607605
0.601062
0.592844
0.584147
0.575609
0.55705
0.548021
0.545226
0.531289
0.516242
0.504326
0.493025
0.492762
0.484952
0.475928
0.468142
0.452766
0.437375
0.426262
0.414709
0.403009
0.397003
0.385659
0.3812
0.37131
0.358751
0.348571
0.338448
0.325378
0.316125
0.30757
0.298367
0.288666
0.278828
0.268961
0.259098
0.249245
0.239401
0.229566
0.219742
0.209925
0.200116
0.190312
0.180513
0.17072
0.160932
0.151149
0.141373
0.131601
0.121832
0.112067
0.102305
0.0925458
0.0827884
0.0730329
0.0632789
0.0535265
0.0437762
0.0340283
0.0242779
0.0145085
0.00479112
0.749446
0.728358
0.720201
0.709148
0.697319
0.68828
0.682118
0.673088
0.661708
0.648945
0.638529
0.630585
0.614029
0.609793
0.599966
0.591554
0.583291
0.571592
0.55896
0.549013
0.544398
0.531908
0.517599
0.505202
0.493796
0.492762
0.483146
0.474406
0.46478
0.452394
0.439474
0.429001
0.419361
0.404067
0.393757
0.381997
0.381744
0.3706
0.360048
0.349807
0.341504
0.32352
0.315824
0.307102
0.29788
0.288342
0.27863
0.268849
0.259036
0.249211
0.239385
0.229562
0.219744
0.209932
0.200125
0.190322
0.180524
0.17073
0.160942
0.151159
0.141382
0.131609
0.121841
0.112076
0.102313
0.0925534
0.082795
0.0730387
0.0632841
0.053531
0.0437799
0.0340312
0.0242801
0.01451
0.00479173
0.747172
0.731993
0.723579
0.711507
0.693777
0.686348
0.680962
0.67161
0.660657
0.64913
0.638132
0.626909
0.615011
0.615294
0.597269
0.590199
0.586462
0.568908
0.559251
0.548063
0.54596
0.532916
0.519806
0.509497
0.490292
0.49441
0.480301
0.47371
0.464453
0.454715
0.433282
0.430667
0.425499
0.408114
0.390804
0.382976
0.377477
0.368327
0.36132
0.349282
0.338832
0.326584
0.316708
0.307261
0.297792
0.288204
0.278519
0.268767
0.258982
0.249179
0.239367
0.229554
0.219742
0.209933
0.200127
0.190326
0.180528
0.170735
0.160947
0.151164
0.141387
0.131615
0.121846
0.112081
0.102319
0.0925581
0.0827994
0.0730428
0.0632877
0.0535341
0.0437826
0.0340334
0.0242818
0.0145112
0.00479224
0.748433
0.735148
0.723672
0.709687
0.695073
0.685113
0.682644
0.671461
0.660263
0.648769
0.637853
0.626717
0.616736
0.609685
0.598214
0.587713
0.585912
0.572905
0.561705
0.551662
0.543955
0.533411
0.520235
0.507995
0.494572
0.486178
0.48297
0.475743
0.464834
0.452781
0.439742
0.43486
0.421171
0.402791
0.394186
0.384891
0.375912
0.365219
0.363233
0.34818
0.337936
0.327274
0.317213
0.307462
0.29781
0.288154
0.278458
0.268718
0.258946
0.249155
0.239352
0.229544
0.219736
0.209928
0.200124
0.190323
0.180527
0.170734
0.160947
0.151166
0.141389
0.131617
0.121848
0.112083
0.102321
0.0925604
0.082802
0.0730452
0.0632899
0.0535362
0.0437844
0.0340349
0.0242829
0.0145121
0.00479269
0.745879
0.734976
0.724798
0.710112
0.695417
0.68717
0.680324
0.670431
0.660057
0.647794
0.637906
0.626248
0.617049
0.607311
0.59836
0.590421
0.583986
0.573636
0.563173
0.552236
0.545092
0.535447
0.519076
0.508044
0.495782
0.486285
0.478259
0.477028
0.465284
0.451604
0.44108
0.432155
0.418487
0.404
0.398138
0.386024
0.376427
0.367311
0.359245
0.347935
0.337661
0.327356
0.317347
0.307555
0.297846
0.288155
0.278442
0.268699
0.25893
0.249142
0.239341
0.229535
0.219728
0.209921
0.200117
0.190317
0.180522
0.17073
0.160944
0.151164
0.141389
0.131616
0.121848
0.112083
0.102321
0.0925605
0.0828025
0.0730459
0.0632907
0.053537
0.0437852
0.0340357
0.0242837
0.0145128
0.00479307
0.745033
0.734171
0.723368
0.710936
0.698931
0.689142
0.678465
0.669635
0.661402
0.643342
0.639013
0.625983
0.616816
0.604337
0.597952
0.592606
0.583643
0.574063
0.564903
0.55039
0.548311
0.536111
0.51946
0.509676
0.49429
0.487578
0.479792
0.47469
0.464069
0.449147
0.440469
0.431397
0.417529
0.408289
0.396832
0.385219
0.377276
0.36937
0.356439
0.347714
0.337259
0.327175
0.317304
0.307564
0.297867
0.288177
0.278461
0.268714
0.258938
0.249144
0.239338
0.229529
0.219719
0.20991
0.200106
0.190306
0.180511
0.170722
0.160937
0.151157
0.141382
0.131611
0.121844
0.11208
0.102318
0.0925586
0.0828011
0.073045
0.0632902
0.0535368
0.0437852
0.0340358
0.024284
0.0145133
0.0047934
0.743902
0.733019
0.721858
0.711039
0.701005
0.692035
0.674856
0.66837
0.658135
0.644251
0.641126
0.626417
0.619838
0.597712
0.596367
0.594222
0.584647
0.573658
0.565908
0.552661
0.543289
0.53236
0.52121
0.510628
0.499269
0.490293
0.482427
0.476537
0.460262
0.447484
0.438783
0.429777
0.420422
0.401832
0.399823
0.385842
0.377998
0.36878
0.35615
0.349321
0.336876
0.326741
0.317117
0.307487
0.297881
0.288225
0.278511
0.268751
0.258962
0.249156
0.239341
0.229524
0.219708
0.209896
0.20009
0.190291
0.180497
0.170708
0.160925
0.151147
0.141373
0.131603
0.121837
0.112074
0.102313
0.0925546
0.0827979
0.0730426
0.0632885
0.0535356
0.0437844
0.0340354
0.0242839
0.0145137
0.00479368
0.742282
0.732208
0.71999
0.710423
0.701442
0.687943
0.677677
0.669134
0.658277
0.647406
0.642296
0.622865
0.620921
0.604311
0.595551
0.587148
0.586061
0.571723
0.569501
0.554142
0.536248
0.530444
0.520606
0.512944
0.502005
0.49191
0.482524
0.473275
0.461579
0.449364
0.436288
0.42597
0.418667
0.406399
0.398301
0.387021
0.378534
0.371274
0.353107
0.353767
0.33363
0.325845
0.316656
0.30736
0.297951
0.288332
0.278606
0.268821
0.259006
0.249178
0.239346
0.229516
0.219693
0.209877
0.200069
0.190269
0.180476
0.17069
0.160908
0.151132
0.141359
0.131591
0.121826
0.112065
0.102306
0.0925487
0.0827931
0.0730389
0.0632856
0.0535335
0.0437829
0.0340345
0.0242835
0.0145139
0.00479394
0.740258
0.731847
0.715891
0.709673
0.699628
0.68758
0.678795
0.672117
0.656736
0.646448
0.639621
0.62969
0.624794
0.60431
0.593853
0.588553
0.582955
0.57363
0.563234
0.550235
0.534856
0.531154
0.52121
0.516228
0.503611
0.492788
0.482377
0.472319
0.462546
0.453568
0.432457
0.422639
0.421121
0.408252
0.396251
0.385105
0.378314
0.369431
0.360605
0.34874
0.333011
0.326448
0.316611
0.307684
0.298231
0.288549
0.278759
0.26892
0.259061
0.249201
0.239347
0.229502
0.21967
0.20985
0.20004
0.190241
0.18045
0.170665
0.160886
0.151112
0.141342
0.131575
0.121813
0.112054
0.102296
0.0925412
0.082787
0.073034
0.0632819
0.0535306
0.0437808
0.0340331
0.0242829
0.014514
0.00479422
0.740491
0.732684
0.711573
0.709789
0.699352
0.686356
0.677293
0.668144
0.657215
0.649983
0.640843
0.632643
0.625004
0.608628
0.592584
0.590962
0.580748
0.570461
0.561318
0.549303
0.537053
0.526304
0.528851
0.511968
0.501719
0.493519
0.481843
0.470586
0.463004
0.453099
0.435694
0.426372
0.419503
0.408417
0.394134
0.381431
0.377478
0.368076
0.357824
0.346473
0.338481
0.330427
0.317387
0.308402
0.298724
0.288868
0.278961
0.269037
0.25912
0.24922
0.239338
0.229478
0.219636
0.209811
0.200001
0.190204
0.180415
0.170633
0.160858
0.151087
0.141321
0.131558
0.121797
0.11204
0.102286
0.0925324
0.0827797
0.073028
0.0632772
0.053527
0.0437782
0.0340314
0.0242821
0.0145141
0.00479454
0.739799
0.731099
0.717386
0.707291
0.700577
0.68311
0.676036
0.666262
0.655069
0.653134
0.641204
0.634984
0.625542
0.614721
0.59538
0.58925
0.579357
0.567616
0.563393
0.551019
0.538578
0.525923
0.52572
0.512546
0.50002
0.496484
0.480921
0.46795
0.464959
0.452649
0.438969
0.428598
0.419967
0.411589
0.391198
0.382967
0.369387
0.363966
0.356136
0.34367
0.342602
0.332182
0.319739
0.309459
0.299363
0.289254
0.27918
0.269149
0.259163
0.249219
0.239311
0.229435
0.219585
0.209758
0.19995
0.190155
0.180371
0.170594
0.160823
0.151057
0.141294
0.131535
0.121779
0.112025
0.102273
0.0925219
0.082771
0.0730211
0.0632718
0.0535228
0.0437751
0.0340294
0.0242812
0.0145143
0.00479495
0.740226
0.733259
0.715129
0.705377
0.696228
0.684591
0.676006
0.666039
0.656822
0.652131
0.640982
0.638501
0.626949
0.614201
0.601066
0.590802
0.580792
0.571004
0.562104
0.55005
0.538989
0.529221
0.522451
0.510995
0.501571
0.496504
0.477927
0.468532
0.462535
0.452724
0.439633
0.429481
0.420186
0.411447
0.390332
0.376184
0.368148
0.361706
0.354533
0.346147
0.341825
0.334703
0.321566
0.310676
0.300034
0.289613
0.279355
0.269216
0.259166
0.249183
0.239254
0.229367
0.219514
0.209688
0.199884
0.190096
0.180319
0.170548
0.160783
0.151022
0.141266
0.131511
0.121759
0.112009
0.10226
0.0925109
0.082762
0.0730135
0.0632655
0.053518
0.0437716
0.0340272
0.0242804
0.0145147
0.00479548
0.74063
0.730996
0.717539
0.705596
0.694615
0.684233
0.675631
0.666012
0.657271
0.655298
0.645598
0.637394
0.628133
0.616169
0.603094
0.592256
0.582389
0.573623
0.563911
0.545223
0.53805
0.530256
0.523948
0.507243
0.500287
0.49178
0.478801
0.467946
0.462303
0.455332
0.437534
0.429255
0.419613
0.408995
0.394536
0.370883
0.366055
0.360205
0.353595
0.346953
0.342298
0.338232
0.32305
0.311642
0.30052
0.289822
0.279413
0.269196
0.259103
0.249096
0.239154
0.229265
0.219416
0.209598
0.199805
0.190027
0.180259
0.170497
0.160739
0.150985
0.141233
0.131483
0.121737
0.111991
0.102245
0.0924984
0.0827517
0.0730051
0.0632586
0.0535127
0.0437679
0.034025
0.0242797
0.0145153
0.00479621
0.738699
0.732672
0.718168
0.704897
0.693004
0.682313
0.675632
0.670032
0.66199
0.654392
0.64582
0.637222
0.631059
0.619201
0.602032
0.592738
0.582907
0.576824
0.560576
0.544093
0.537966
0.529501
0.520455