/*--------------------------------*- C++ -*----------------------------------*\
  =========                 |
  \\      /  F ield         | OpenFOAM: The Open Source CFD Toolbox
   \\    /   O peration     | Website:  https://openfoam.org
    \\  /    A nd           | Version:  12
     \\/     M anipulation  |
\*---------------------------------------------------------------------------*/
FoamFile
{
    format      ascii;
    class       surfaceScalarField;
    location    "0.7";
    object      phi.water_0;
}
// * * * * * * * * * * * * * * * * * * * * * * * * * * * * * * * * * * * * * //

dimensions      [0 3 -1 0 0 0 0];

internalField   nonuniform List<scalar> 
7375
(
1.28306e-07
-8.26549e-09
1.37023e-07
-8.74279e-09
8.59746e-08
-7.08974e-09
1.26576e-07
1.89712e-08
1.22739e-07
2.53593e-09
1.14151e-07
8.58874e-09
9.14918e-08
2.24591e-08
8.21563e-08
9.2393e-09
8.09123e-08
1.24999e-09
7.12126e-08
1.04291e-08
7.36613e-08
-1.63092e-09
6.67155e-08
6.2141e-09
8.00058e-08
-1.42868e-08
7.84183e-08
1.57421e-09
7.86547e-08
-2.59225e-10
7.60744e-08
2.56143e-09
7.19328e-08
4.12063e-09
7.20383e-08
-8.10535e-11
6.9649e-08
2.40748e-09
6.71385e-08
3.19966e-09
6.66916e-08
5.10378e-10
8.46426e-08
-1.88478e-08
9.70801e-08
-1.24503e-08
9.02863e-08
5.9326e-09
7.38758e-08
1.6578e-08
7.78739e-08
-4.03451e-09
6.94123e-08
9.07092e-09
5.8687e-08
1.1474e-08
6.65832e-08
-8.4996e-09
6.76764e-08
-1.05798e-09
6.8593e-08
-2.8636e-10
6.58741e-08
2.66174e-09
7.40521e-08
-9.73075e-09
7.45022e-08
-4.45174e-10
7.08685e-08
5.07638e-09
6.73063e-08
2.81064e-09
7.93801e-08
-1.27537e-08
8.08012e-08
-6.09497e-10
7.05868e-08
1.0209e-08
6.88004e-08
1.78057e-09
5.95939e-08
9.85383e-09
-4.61405e-09
4.56057e-09
4.01833e-08
1.43673e-08
1.27736e-08
2.74032e-08
-2.24348e-09
1.49895e-08
-1.676e-08
1.45009e-08
-3.07859e-08
1.38868e-08
-4.71136e-08
1.62082e-08
-6.55047e-08
1.82576e-08
-7.60157e-08
1.03798e-08
-7.39472e-08
-1.30445e-09
-7.08558e-08
-2.35155e-09
-6.41254e-08
-6.73054e-09
-5.60852e-08
-8.03962e-09
-4.80428e-08
-8.04267e-09
-3.84588e-08
-9.58339e-09
-2.97661e-08
-8.69298e-09
-2.11881e-08
-8.57754e-09
-1.38228e-08
-7.36552e-09
-6.81591e-09
-7.0065e-09
-2.84082e-10
-6.53217e-09
6.32033e-09
-6.60408e-09
1.36485e-08
-7.3286e-09
2.24255e-08
-8.77685e-09
3.26685e-08
-1.02435e-08
4.23534e-08
-9.68486e-09
4.84609e-08
-6.10807e-09
4.59149e-08
2.54612e-09
3.36096e-08
1.23049e-08
1.57849e-08
1.78251e-08
-4.03872e-09
1.98235e-08
-2.32383e-08
1.91994e-08
-4.21859e-08
1.89468e-08
-5.79901e-08
1.58032e-08
4.6443e-09
8.10784e-08
-1.85861e-08
7.39506e-08
-1.59827e-09
4.99733e-08
1.68879e-08
5.48608e-08
1.34682e-08
5.67051e-08
6.99016e-10
6.52596e-08
-5.26185e-11
7.66135e-08
1.03318e-08
8.01661e-08
6.39624e-09
7.84181e-08
3.81614e-09
8.20075e-08
6.77101e-09
7.42227e-08
6.10853e-09
6.20085e-08
1.98328e-08
3.88223e-08
9.30399e-09
2.61291e-08
1.35967e-08
3.22672e-08
-6.9989e-09
4.25181e-08
-8.44444e-09
5.38157e-08
-7.29081e-09
6.97743e-08
-1.54958e-08
7.30916e-08
-9.43425e-10
8.53839e-08
-9.09232e-09
7.556e-08
1.19712e-08
6.61243e-08
-9.50991e-09
1.01577e-07
-4.80309e-08
6.90007e-08
3.92202e-08
5.14808e-08
3.39071e-08
4.39628e-08
2.51001e-09
6.42441e-08
-1.16498e-08
6.89116e-08
7.33968e-09
6.07783e-08
-2.86163e-10
5.34895e-08
7.38598e-09
2.85656e-08
2.52293e-08
1.52409e-08
1.55275e-08
-4.67788e-09
1.00792e-08
-2.8554e-09
-2.19589e-09
3.4601e-09
-1.30285e-09
1.28309e-08
-6.55339e-09
1.56738e-08
-1.55958e-08
1.70016e-08
-1.93709e-09
3.03528e-08
-3.17451e-09
-1.72646e-09
3.4209e-08
-5.41481e-09
1.35422e-08
-2.66765e-08
2.57759e-08
-2.46544e-08
1.23454e-08
-2.13838e-08
2.3889e-08
-3.43858e-08
2.77089e-08
-3.75646e-08
1.78808e-08
-4.12252e-08
1.77843e-08
-4.46793e-08
1.95006e-08
-3.9535e-08
1.29309e-08
-3.77988e-08
8.54007e-09
-3.87611e-08
-3.28894e-10
-4.36919e-08
2.57947e-09
-5.15425e-08
1.12019e-09
-6.0687e-08
1.10516e-09
-6.92292e-08
4.99653e-10
-7.43713e-08
-4.44104e-09
-7.51166e-08
-7.94765e-09
-7.35431e-08
-1.01509e-08
-7.02182e-08
-1.06904e-08
-6.70097e-08
-1.02149e-08
-6.36942e-08
-9.84772e-09
-5.88597e-08
-1.14386e-08
-5.09331e-08
-1.52553e-08
-3.96835e-08
-2.00266e-08
-2.66212e-08
-2.33062e-08
-1.3956e-08
-2.23502e-08
-5.16616e-09
-1.48982e-08
-5.44217e-09
2.82203e-09
-1.60606e-08
2.29232e-08
-3.36076e-08
3.53722e-08
-5.35609e-08
3.97768e-08
-6.83821e-08
3.40203e-08
-7.37355e-08
2.42992e-08
-7.53321e-08
1.73989e-08
3.07664e-09
-7.51904e-10
-5.1973e-08
-2.34458e-08
2.10884e-08
-3.40688e-08
2.69246e-08
-3.76503e-08
1.6492e-08
-5.12919e-08
1.45859e-08
-4.87949e-08
-2.02603e-09
-4.19835e-08
4.05449e-09
-3.45535e-08
-9.6881e-10
-2.47463e-08
-6.02929e-09
-9.17669e-09
-8.70558e-09
9.84449e-09
-1.30372e-08
1.47402e-08
1.51955e-08
2.19255e-08
1.55512e-09
2.34759e-08
1.19094e-08
2.37533e-08
-6.96514e-09
1.21463e-08
3.07679e-09
2.8755e-09
1.90589e-09
-3.74609e-09
-9.12507e-09
-1.37728e-08
9.17721e-09
-1.98596e-08
-3.12992e-09
-2.6377e-08
1.82197e-08
-1.10967e-07
1.43207e-08
5.43817e-08
2.68979e-08
-1.07241e-07
2.14799e-08
-1.14686e-07
-1.87122e-08
-1.30233e-07
2.05562e-08
-9.86756e-08
1.51834e-08
-7.79723e-08
-1.49382e-08
-7.89645e-08
-1.07749e-10
-7.97093e-08
9.84257e-09
-6.19013e-08
7.71684e-09
-6.39374e-08
1.67738e-08
-6.66104e-08
1.26496e-08
-5.95717e-08
-9.25687e-09
-5.42824e-08
-6.60536e-09
-5.82738e-08
-2.62874e-09
-8.26005e-08
8.73103e-09
-9.63731e-08
1.08525e-08
-7.84866e-08
-2.20977e-08
-1.51175e-07
4.79927e-08
-1.16931e-07
3.99453e-08
-1.14395e-07
2.30052e-08
-1.26154e-07
2.51348e-08
-1.14229e-07
1.29866e-08
-1.05371e-07
1.8575e-08
-9.88092e-08
1.11399e-08
-9.35706e-08
1.25459e-08
-8.55773e-08
1.15076e-08
-7.98809e-08
7.23462e-09
-7.56074e-08
4.26678e-09
-7.58422e-08
-9.38805e-11
-7.63563e-08
3.09378e-09
-8.20105e-08
6.7746e-09
-8.98632e-08
8.95809e-09
-9.82387e-08
8.87528e-09
-1.0591e-07
3.23054e-09
-1.10187e-07
-3.67034e-09
-1.11683e-07
-8.65464e-09
-1.12339e-07
-1.00343e-08
-1.12884e-07
-9.6698e-09
-1.12129e-07
-1.06031e-08
-1.08036e-07
-1.55315e-08
-1.00438e-07
-2.2854e-08
-9.25917e-08
-2.78725e-08
-8.6425e-08
-2.94732e-08
-8.22785e-08
-2.6497e-08
-8.24135e-08
-1.47635e-08
-8.67295e-08
7.13784e-09
-9.23195e-08
2.85131e-08
-9.40029e-08
3.70555e-08
-9.19402e-08
3.7714e-08
-8.65592e-08
2.86389e-08
-8.2701e-08
2.044e-08
-7.91964e-08
1.38931e-08
8.20325e-10
3.76799e-08
-2.14444e-08
-8.36686e-08
-3.46624e-08
-6.91186e-08
1.2948e-08
-5.90751e-08
6.87893e-09
-5.98273e-08
1.45946e-08
-6.23038e-08
-1.59554e-10
-5.28998e-08
-5.29513e-09
-4.66106e-08
-6.79205e-09
-4.44233e-08
-8.21627e-09
-4.95753e-08
-4.55453e-09
-2.7767e-08
-3.5633e-08
-4.86689e-08
3.62273e-08
-5.97609e-08
1.3144e-08
-4.2038e-08
-5.69175e-09
-2.76083e-08
-2.1615e-08
-6.14086e-08
3.68773e-08
-6.91025e-08
8.8952e-09
-6.71671e-08
-1.18749e-08
-1.06745e-07
4.78541e-08
-1.45868e-07
3.70936e-08
-1.51311e-07
2.51513e-08
-1.58452e-07
1.96988e-08
-2.94515e-10
4.71205e-08
-1.77406e-07
-3.78251e-08
-1.33212e-07
-3.61031e-09
-1.43462e-07
-2.8298e-08
-1.24238e-07
-2.61807e-09
-9.26297e-08
1.19614e-08
-9.28246e-08
-8.65481e-10
-8.32094e-08
1.27092e-10
-7.65843e-08
1.17061e-09
-6.96792e-08
9.86878e-09
-7.74137e-08
2.05943e-08
-8.79305e-08
1.26007e-09
-8.67541e-08
-7.70305e-09
-8.93761e-08
-6.53254e-12
-9.04562e-08
9.71216e-09
-1.13871e-07
3.27712e-08
-1.26832e-08
5.6669e-08
-1.36878e-07
-5.48733e-09
-1.12308e-07
1.65211e-08
-9.96549e-08
1.13587e-08
-9.58597e-08
2.10884e-08
-9.30197e-08
1.01468e-08
-8.58629e-08
1.14183e-08
-8.49054e-08
1.01826e-08
-8.1447e-08
9.08767e-09
-7.75277e-08
7.58846e-09
-7.50754e-08
4.78251e-09
-7.34602e-08
2.65181e-09
-7.56885e-08
2.13468e-09
-7.77985e-08
5.20391e-09
-8.18324e-08
1.08087e-08
-8.82132e-08
1.5339e-08
-9.6209e-08
1.68713e-08
-1.05643e-07
1.26645e-08
-1.14281e-07
4.96775e-09
-1.20311e-07
-2.6246e-09
-1.24144e-07
-6.20137e-09
-1.26385e-07
-7.42852e-09
-1.26288e-07
-1.06997e-08
-1.21829e-07
-1.99903e-08
-1.15993e-07
-2.86908e-08
-1.12241e-07
-3.1624e-08
-1.10646e-07
-3.10684e-08
-1.1286e-07
-2.4284e-08
-1.18058e-07
-9.56537e-09
-1.19888e-07
8.96762e-09
-1.15669e-07
2.4294e-08
-1.08716e-07
3.01022e-08
-9.87073e-08
2.77054e-08
-9.0226e-08
2.0157e-08
-8.53926e-08
1.56054e-08
-8.14965e-08
9.99586e-09
-7.56987e-10
2.0868e-08
4.61213e-08
-8.06661e-09
-5.85806e-09
-1.05189e-07
-6.54534e-08
-4.65253e-08
-5.27873e-08
-5.60426e-08
2.40161e-08
-5.31552e-08
-2.5043e-09
-4.63415e-08
-1.21085e-08
-4.99133e-08
-3.69267e-09
-4.86031e-08
-9.11415e-09
-7.98231e-08
2.58598e-08
2.78868e-08
3.53443e-08
-8.99586e-08
-2.38958e-08
-8.76827e-08
1.08684e-08
-1.08406e-07
1.39255e-08
-8.00054e-09
5.77175e-08
-1.3452e-07
-1.38364e-08
-1.33292e-07
6.30813e-09
-1.45027e-08
4.87501e-08
-1.17821e-07
-2.46884e-08
-1.03416e-07
2.11082e-08
-9.40426e-08
1.57785e-08
-8.79321e-08
1.44857e-08
-4.80482e-08
6.69332e-09
-7.81461e-08
-8.21709e-09
-7.82851e-08
-3.47116e-09
-9.18284e-08
-1.47545e-08
-9.33429e-08
-1.10343e-09
-8.69445e-08
4.79823e-09
-9.38908e-08
6.08095e-09
-5.77053e-08
-3.54622e-08
-1.10395e-07
5.38604e-08
-1.01132e-07
-4.26128e-10
-1.33886e-07
-6.36577e-09
-1.29436e-07
-5.0322e-10
-9.02905e-08
1.25716e-08
-7.06549e-08
-1.98403e-08
-3.84213e-08
-2.28468e-08
-5.97985e-08
5.31565e-08
-4.40213e-08
3.92866e-08
-7.24321e-08
2.33727e-08
-6.92814e-08
1.32355e-08
-6.87664e-08
1.16612e-08
-6.47673e-08
1.7777e-08
-6.74811e-08
1.28607e-08
-6.51735e-08
9.11093e-09
-6.37238e-08
8.73298e-09
-6.13057e-08
6.66982e-09
-6.01112e-08
6.39412e-09
-6.00083e-08
4.67982e-09
-6.16539e-08
4.29763e-09
-6.53883e-08
5.86925e-09
-6.94739e-08
9.28972e-09
-7.36424e-08
1.49773e-08
-7.91883e-08
2.08852e-08
-8.62823e-08
2.39654e-08
-9.53895e-08
2.17719e-08
-1.06133e-07
1.57116e-08
-1.16723e-07
7.96519e-09
-1.24226e-07
1.30209e-09
-1.27416e-07
-4.23891e-09
-1.25993e-07
-1.21229e-08
-1.20802e-07
-2.51807e-08
-1.17029e-07
-3.24637e-08
-1.1466e-07
-3.39933e-08
-1.14354e-07
-3.13746e-08
-1.17815e-07
-2.08229e-08
-1.21951e-07
-5.42962e-09
-1.21316e-07
8.33176e-09
-1.14314e-07
1.72925e-08
-1.04812e-07
2.05996e-08
-9.56673e-08
1.85604e-08
-8.97305e-08
1.42196e-08
-8.56475e-08
1.15211e-08
-8.27569e-08
7.10416e-09
-1.14868e-09
-2.90797e-08
1.23799e-08
-3.2449e-08
-2.48847e-09
-8.41756e-08
-1.43942e-08
2.7201e-08
1.28737e-08
-8.78845e-08
-3.64222e-08
-7.16143e-08
-1.96708e-08
-7.30869e-08
-1.08699e-08
-5.46667e-08
-2.21126e-08
-5.11598e-08
-1.27508e-08
-9.34725e-08
9.3317e-09
-8.00485e-08
2.17821e-08
-8.80863e-08
4.32473e-08
-1.01353e-07
2.41358e-08
-1.10293e-07
2.17398e-08
-1.38519e-07
2.56349e-08
-1.27862e-07
3.60257e-08
-1.33542e-07
1.19884e-08
-9.61035e-08
1.08141e-08
-1.24269e-07
3.22594e-09
-7.76109e-08
-2.555e-08
-9.74781e-08
3.5286e-08
-9.88401e-08
1.68562e-08
-8.43064e-08
-7.77255e-09
-8.38112e-08
-9.57217e-09
-7.66325e-08
-1.06497e-08
-8.92499e-08
-2.13688e-09
-8.22597e-08
-8.09346e-09
-9.33893e-08
1.5928e-08
-1.09079e-07
2.05958e-08
-5.04876e-09
3.96503e-08
-1.66807e-07
-2.07499e-08
-1.05304e-07
-2.82349e-09
-1.18782e-07
7.17734e-09
-1.38106e-07
1.90146e-08
-1.19926e-07
-5.47992e-09
-1.55558e-07
1.55889e-08
-1.30708e-08
1.17484e-08
-1.20245e-07
-1.52152e-08
-8.55512e-08
4.1964e-09
-7.54804e-08
1.31993e-08
-6.49268e-08
2.68204e-09
-6.86435e-08
1.52604e-08
-6.05155e-08
1.03354e-08
-5.86149e-08
1.09603e-08
-5.76392e-08
8.13535e-09
-5.57192e-08
6.81325e-09
-5.5311e-08
6.26172e-09
-5.51979e-08
6.28123e-09
-5.59281e-08
5.41019e-09
-5.79165e-08
6.28627e-09
-6.1128e-08
9.08089e-09
-6.50436e-08
1.32055e-08
-6.87878e-08
1.87218e-08
-7.2291e-08
2.43885e-08
-7.54957e-08
2.71702e-08
-8.04264e-08
2.67027e-08
-8.72044e-08
2.24897e-08
-9.51895e-08
1.59504e-08
-1.03017e-07
9.12977e-09
-1.07941e-07
6.85291e-10
-1.08047e-07
-1.20173e-08
-1.05593e-07
-2.76343e-08
-1.0461e-07
-3.34465e-08
-1.04728e-07
-3.3876e-08
-1.07333e-07
-2.87695e-08
-1.11625e-07
-1.65308e-08
-1.13935e-07
-3.11998e-09
-1.11728e-07
6.12422e-09
-1.05563e-07
1.11278e-08
-9.81536e-08
1.31895e-08
-9.23306e-08
1.2737e-08
-8.84866e-08
1.03749e-08
-8.55168e-08
8.55005e-09
-8.36957e-08
5.28191e-09
-1.04211e-09
-6.66744e-08
1.32505e-09
-7.17792e-08
2.61667e-09
-8.3124e-08
-3.04904e-09
-6.60583e-08
-4.1916e-09
-9.08724e-08
-1.19793e-08
-1.05591e-07
-6.09122e-09
-1.72059e-07
-4.15862e-09
-1.14131e-07
-2.05543e-08
-1.39246e-07
1.24939e-08
-1.5184e-07
2.17975e-08
-1.56768e-07
2.67098e-08
-1.33626e-07
2.17052e-08
-1.2589e-07
1.62345e-08
-1.24837e-07
2.06867e-08
-1.17845e-07
1.8382e-08
-1.04859e-07
2.30399e-08
-1.07092e-07
1.40783e-08
-1.10188e-07
1.39106e-08
-1.38391e-07
3.14286e-08
-1.42173e-08
2.77367e-08
-1.1912e-07
-3.53351e-08
-9.94285e-08
-4.05038e-09
-1.10039e-07
2.78719e-09
-1.09465e-07
-1.01455e-08
-9.17261e-08
-2.8102e-08
-9.63748e-08
2.51191e-09
-9.07864e-08
-1.36817e-08
-9.44989e-08
1.94423e-08
-8.78027e-08
1.38997e-08
-6.9969e-08
2.14123e-08
-9.32364e-08
2.51755e-09
-1.227e-07
2.66405e-08
-1.23572e-07
6.78812e-09
-1.76837e-07
1.25665e-08
-1.32955e-07
1.15465e-08
-1.86678e-07
1.02074e-08
-1.02614e-07
-1.33471e-08
-1.48585e-07
3.04457e-08
-1.41445e-07
-2.93036e-09
-1.2688e-07
-1.37991e-09
-1.20875e-07
-2.06221e-09
-1.07967e-07
3.40773e-09
-9.94416e-08
1.81068e-09
-9.10924e-08
2.61123e-09
-8.59688e-08
3.01194e-09
-8.29402e-08
3.78482e-09
-8.10762e-08
4.39788e-09
-7.86229e-08
3.82814e-09
-7.69321e-08
3.71957e-09
-7.60515e-08
5.40584e-09
-7.52799e-08
8.30948e-09
-7.52359e-08
1.31616e-08
-7.51408e-08
1.86268e-08
-7.44724e-08
2.37203e-08
-7.39886e-08
2.66865e-08
-7.3781e-08
2.64953e-08
-7.45576e-08
2.32664e-08
-7.71035e-08
1.84963e-08
-8.10732e-08
1.30996e-08
-8.5194e-08
4.80613e-09
-8.84634e-08
-8.74783e-09
-9.13627e-08
-2.47351e-08
-9.3863e-08
-3.09462e-08
-9.67611e-08
-3.0978e-08
-1.0088e-07
-2.46506e-08
-1.04707e-07
-1.27045e-08
-1.05523e-07
-2.30382e-09
-1.0284e-07
3.44069e-09
-9.86043e-08
6.8921e-09
-9.44319e-08
9.01695e-09
-9.07773e-08
9.08201e-09
-8.80493e-08
7.64621e-09
-8.58743e-08
6.37384e-09
-8.45656e-08
3.97203e-09
-8.63438e-10
-9.47511e-08
-5.47618e-09
-1.0146e-07
9.32547e-09
-1.09143e-07
4.63495e-09
-1.11744e-07
-1.59043e-09
-1.18291e-07
-6.63859e-09
-1.77281e-07
-8.7327e-09
-2.04851e-07
2.31703e-08
-2.0419e-07
3.85066e-08
-2.15562e-07
2.58417e-08
-1.9337e-07
1.80512e-09
-2.00408e-07
3.34758e-08
-1.5962e-07
-1.72785e-08
-1.38644e-07
-4.74072e-09
-1.35287e-07
1.57543e-08
-1.26383e-07
9.47844e-09
-1.09893e-07
7.67145e-09
-1.11462e-07
1.56475e-08
-1.12467e-07
1.3779e-08
-9.73409e-08
1.63025e-08
-7.31778e-08
3.57379e-09
-1.01059e-07
-7.81439e-09
-9.65732e-08
-9.52084e-09
-1.33101e-07
-2.03991e-08
-1.34621e-07
-5.89412e-09
-1.12532e-07
8.31703e-09
-1.04303e-07
-6.86457e-09
-1.10573e-07
-6.28342e-09
-1.05514e-07
1.43834e-08
-9.1913e-08
-7.69595e-10
-8.41705e-08
1.36699e-08
-8.38394e-08
2.18657e-09
-7.43043e-08
1.69328e-08
-8.90742e-08
2.13404e-08
-1.09621e-07
3.29852e-08
-1.184e-07
2.03258e-08
-1.39367e-07
2.97523e-08
-2.91245e-08
5.58533e-08
-1.51966e-07
-2.32423e-08
-1.58021e-07
-7.01807e-11
-1.55822e-07
-1.95014e-09
-1.52442e-07
-2.29772e-09
-1.40178e-07
-7.40624e-09
-1.33387e-07
-4.97988e-09
-1.25708e-07
-5.06747e-09
-1.19818e-07
-2.87814e-09
-1.16738e-07
7.05276e-10
-1.14504e-07
2.16348e-09
-1.1196e-07
1.28496e-09
-1.10106e-07
1.86566e-09
-1.08271e-07
3.57046e-09
-1.05579e-07
5.61779e-09
-1.0098e-07
8.56246e-09
-9.46445e-08
1.22919e-08
-8.69342e-08
1.60101e-08
-8.01518e-08
1.99042e-08
-7.48207e-08
2.11643e-08
-7.11095e-08
1.95553e-08
-6.94668e-08
1.68536e-08
-7.03172e-08
1.39501e-08
-7.33657e-08
7.85463e-09
-7.829e-08
-3.82344e-09
-8.46666e-08
-1.83585e-08
-8.95055e-08
-2.61073e-08
-9.34419e-08
-2.70417e-08
-9.67229e-08
-2.13697e-08
-9.91596e-08
-1.0268e-08
-9.9155e-08
-2.30867e-09
-9.7237e-08
1.52246e-09
-9.46808e-08
4.33573e-09
-9.22023e-08
6.53815e-09
-8.98111e-08
6.69041e-09
-8.78266e-08
5.66097e-09
-8.62159e-08
4.76188e-09
-8.52435e-08
2.99844e-09
-6.81829e-10
-1.80902e-07
-8.95914e-09
-1.64711e-07
-6.86472e-09
-1.63255e-07
3.17956e-09
-1.76975e-07
1.21297e-08
-1.45525e-07
-3.9573e-08
-2.14216e-07
3.34401e-10
-2.00529e-07
6.98252e-08
-1.94388e-07
3.19732e-08
-1.78783e-07
9.97293e-09
-1.7668e-07
-2.97163e-10
-1.93803e-07
-6.52828e-09
-1.51887e-07
-6.80062e-10
-1.20643e-07
-3.63515e-08
-1.32142e-07
2.69814e-08
-1.2961e-07
5.59896e-09
-9.67329e-08
-2.52057e-08
-1.15089e-07
3.38185e-08
-1.16027e-07
1.47171e-08
-1.16899e-07
1.71747e-08
-1.14041e-07
7.16395e-10
-1.24196e-07
2.34075e-09
-1.20767e-07
-1.30828e-08
-1.31802e-07
-9.15594e-09
-1.4037e-07
2.67382e-09
-1.31875e-07
-9.30097e-11
-1.21532e-07
-1.72075e-08
-9.40097e-08
-3.38054e-08
-1.54022e-07
1.68372e-08
-9.83318e-08
2.04844e-09
-9.00886e-08
4.42363e-09
-8.56295e-08
-1.39887e-09
-5.6288e-08
-1.18401e-08
-8.08723e-08
4.53563e-08
-8.35904e-08
3.45261e-08
-8.02241e-08
1.69596e-08
-7.70159e-08
2.65441e-08
-1.01234e-07
2.12132e-08
-7.98942e-08
1.36913e-08
-9.67806e-08
1.6002e-08
-9.70087e-08
-1.70205e-09
-9.72727e-08
-2.03362e-09
-9.16764e-08
-1.21427e-08
-9.12556e-08
-4.52921e-09
-9.08437e-08
-5.47929e-09
-9.22066e-08
-1.51512e-09
-9.17553e-08
2.54207e-10
-9.24709e-08
2.87917e-09
-9.43645e-08
3.17876e-09
-9.73404e-08
4.84168e-09
-1.00915e-07
7.14487e-09
-1.03618e-07
8.32092e-09
-1.03797e-07
8.74186e-09
-1.00915e-07
9.41011e-09
-9.47676e-08
9.86291e-09
-8.56308e-08
1.07676e-08
-7.55484e-08
1.1082e-08
-6.74236e-08
1.14305e-08
-6.27405e-08
1.21706e-08
-6.15046e-08
1.27142e-08
-6.39829e-08
1.03331e-08
-7.04612e-08
2.65483e-09
-7.91396e-08
-9.68e-09
-8.50867e-08
-2.01602e-08
-8.8627e-08
-2.35015e-08
-9.18385e-08
-1.81583e-08
-9.44011e-08
-7.7057e-09
-9.50691e-08
-1.64086e-09
-9.44349e-08
8.8805e-10
-9.28984e-08
2.79901e-09
-9.10958e-08
4.7353e-09
-8.93222e-08
4.91646e-09
-8.77865e-08
4.12449e-09
-8.65347e-08
3.50885e-09
-8.57685e-08
2.23106e-09
-5.25273e-10
-2.80354e-07
1.69838e-08
-2.23224e-07
-2.04936e-09
-2.16393e-07
-3.65128e-09
-2.50725e-07
-1.27739e-08
-1.04992e-07
5.11148e-08
-1.13023e-07
9.41922e-09
-1.75562e-07
-4.316e-08
-1.45747e-07
3.63267e-10
-1.34464e-07
-1.32237e-09
-1.51218e-07
1.66267e-08
-1.6387e-07
7.71628e-09
-1.54909e-07
-9.64759e-09
-4.57079e-08
3.06487e-08
-1.58103e-07
-3.58754e-08
-1.52919e-07
-1.18561e-09
-2.61497e-08
2.56073e-08
-1.3405e-07
-3.38055e-08
-1.22454e-07
1.75465e-09
-1.1707e-07
1.16718e-08
-1.16592e-07
2.37766e-10
-1.27265e-07
1.15981e-08
-1.40582e-07
2.34442e-10
-1.16757e-07
-3.18721e-08
-1.47731e-07
3.36479e-08
-1.39934e-07
-7.88944e-09
-1.48295e-07
-8.93762e-09
-3.00314e-08
2.55522e-08
-1.45787e-07
-4.29315e-08
-1.27147e-07
-1.80579e-08
-1.06449e-07
-1.61099e-08
-1.32123e-07
2.4276e-08
-1.77471e-09
3.50054e-08
-1.14792e-07
-1.73075e-08
-7.93811e-08
-8.75692e-10
-6.35428e-08
3.11684e-10
-5.30255e-08
1.65679e-08
-5.85577e-08
2.64782e-08
-4.97581e-08
4.43411e-09
-4.95357e-08
1.56204e-08
-6.36764e-08
1.24387e-08
-7.03874e-08
4.67756e-09
-8.18513e-08
-6.78722e-10
-8.60891e-08
5.40871e-10
-8.95996e-08
-1.11921e-09
-9.50043e-08
3.8898e-09
-9.58529e-08
1.10293e-09
-9.68837e-08
3.91012e-09
-9.83788e-08
4.67402e-09
-1.00177e-07
6.63962e-09
-1.01408e-07
8.37623e-09
-1.01732e-07
8.64508e-09
-1.00162e-07
7.17172e-09
-9.6143e-08
5.39169e-09
-8.93476e-08
3.06762e-09
-7.95662e-08
9.86215e-10
-6.79948e-08
-4.89283e-10
-5.73596e-08
7.95345e-10
-4.95511e-08
4.36222e-09
-4.57366e-08
8.89976e-09
-4.54889e-08
1.00854e-08
-4.95027e-08
6.66863e-09
-5.82449e-08
-9.37734e-10
-6.80364e-08
-1.03688e-08
-7.69625e-08
-1.45755e-08
-8.46018e-08
-1.05191e-08
-8.91499e-08
-3.15778e-09
-9.11666e-08
3.75718e-10
-9.18808e-08
1.60202e-09
-9.14619e-08
2.37986e-09
-9.02033e-08
3.47648e-09
-8.8845e-08
3.55781e-09
-8.77019e-08
2.98061e-09
-8.67418e-08
2.5475e-09
-8.61594e-08
1.64749e-09
-3.85655e-10
-3.00513e-07
-2.04395e-08
-2.35094e-07
-4.65685e-09
-2.22749e-07
-1.58703e-08
-2.3812e-07
2.59715e-09
-1.61792e-07
-2.13504e-08
-1.49794e-07
-2.57816e-09
-1.72368e-07
-2.1011e-08
-1.58077e-07
-1.56817e-08
-1.64748e-07
2.00091e-09
-2.07071e-07
3.06822e-09
-1.51153e-07
1.23975e-08
-1.50318e-07
-1.21226e-08
-1.23938e-07
4.26934e-09
-1.92312e-07
-2.50109e-08
-1.2948e-07
-5.50936e-09
-9.94089e-08
-5.78402e-09
-1.13586e-07
-1.99732e-08
-1.19304e-07
8.60283e-09
-9.26617e-08
-1.49707e-08
-9.94598e-08
7.10545e-09
-8.58086e-08
-2.05286e-09
-8.16865e-08
-5.5986e-09
-6.46524e-09
7.13142e-08
-1.38206e-07
-1.19821e-08
-1.29914e-07
-1.75063e-08
-1.46231e-07
7.37952e-09
-1.07388e-07
-1.17998e-08
-1.30372e-07
-2.03845e-08
-1.72434e-07
-3.33422e-08
-9.53517e-08
-3.50375e-08
-1.03793e-07
3.14246e-08
-7.81919e-08
9.40407e-09
-9.84277e-08
3.8928e-09
-8.43623e-08
-1.49498e-08
-7.76247e-08
-7.36154e-09
-6.77563e-08
7.39072e-09
-4.35276e-08
2.49189e-09
-4.56749e-08
6.53668e-09
-3.6096e-08
6.10336e-09
-4.901e-08
2.49845e-08
-5.09151e-08
6.58275e-09
-6.08509e-08
9.25724e-09
-7.95767e-08
1.92668e-08
-9.52804e-08
1.53883e-08
-1.01077e-07
1.06389e-08
-1.05784e-07
5.81054e-09
-1.07499e-07
5.62514e-09
-1.08405e-07
5.57993e-09
-1.08919e-07
7.15382e-09
-1.07655e-07
7.11224e-09
-1.05499e-07
6.48936e-09
-1.01347e-07
3.01991e-09
-9.43792e-08
-1.57616e-09
-8.4261e-08
-7.05046e-09
-7.29492e-08
-1.03255e-08
-6.18569e-08
-1.15815e-08
-5.19065e-08
-9.15505e-09
-4.39644e-08
-3.57981e-09
-3.89413e-08
3.87671e-09
-3.74215e-08
8.56562e-09
-3.96494e-08
8.89655e-09
-4.62064e-08
5.61928e-09
-5.77787e-08
1.20355e-09
-7.18919e-08
-4.62491e-10
-8.32972e-08
8.861e-10
-8.88055e-08
2.35034e-09
-9.08778e-08
2.44779e-09
-9.14458e-08
2.16987e-09
-9.11738e-08
2.10772e-09
-8.99348e-08
2.23724e-09
-8.86148e-08
2.23743e-09
-8.76893e-08
2.05435e-09
-8.69223e-08
1.77922e-09
-8.64629e-08
1.18688e-09
-2.7034e-10
-8.8388e-08
1.68474e-08
-9.74588e-08
4.46175e-09
-1.17188e-07
3.82025e-09
-1.0717e-07
-8.45434e-09
-1.23786e-07
-4.73438e-09
-1.23447e-07
-2.93955e-09
-1.32506e-07
-1.3181e-08
-1.16588e-07
-2.88965e-08
-8.03055e-08
-3.31237e-08
-1.14729e-07
3.66413e-08
-1.00995e-07
-1.22178e-09
-1.05861e-07
-7.2565e-09
-9.57193e-08
-5.87223e-09
-1.06638e-07
-1.40916e-08
-9.97237e-08
-1.26085e-08
-9.6551e-08
-9.04879e-09
-1.10452e-07
-4.94482e-09
-1.00361e-07
-1.48852e-09
-1.00554e-07
-1.59533e-08
-9.53468e-08
1.89796e-09
-1.15681e-07
1.82605e-08
1.48371e-08
4.1047e-08
-7.64647e-08
-1.44003e-08
-1.26818e-07
-2.21313e-08
-9.60086e-08
1.20837e-08
-9.11914e-08
2.48727e-09
-9.66922e-08
-6.29882e-09
-1.12231e-07
-4.84566e-09
-1.42087e-07
-4.93593e-09
-1.65717e-08
1.83998e-08
-1.24904e-07
-3.56001e-08
-1.0433e-07
-1.13797e-08
-8.24481e-08
-1.78089e-08
-8.56612e-08
-1.34668e-08
-9.31511e-08
1.27179e-10
-7.71293e-08
-6.89384e-09
-6.67973e-08
-7.14027e-09
-5.89887e-08
-2.54203e-09
-7.95577e-08
2.58609e-08
-8.70846e-08
3.33231e-08
-1.12468e-07
3.26324e-08
-1.19443e-07
1.62316e-08
-1.19536e-07
2.03722e-08
-1.22703e-07
1.95961e-08
-1.22941e-07
1.08777e-08
-1.251e-07
7.9699e-09
-1.23795e-07
4.32027e-09
-1.22037e-07
3.82132e-09
-1.19333e-07
4.45051e-09
-1.15635e-07
3.41364e-09
-1.09561e-07
4.1579e-10
-1.01347e-07
-5.19398e-09
-9.10399e-08
-1.18831e-08
-7.96567e-08
-1.84336e-08
-6.82802e-08
-2.17019e-08
-5.79453e-08
-2.19163e-08
-4.93541e-08
-1.77462e-08
-4.36031e-08
-9.33081e-09
-4.04095e-08
6.83173e-10
-4.15108e-08
9.667e-09
-4.62947e-08
1.36804e-08
-5.42699e-08
1.35945e-08
-6.59307e-08
1.28644e-08
-7.78331e-08
1.14399e-08
-8.54157e-08
8.4685e-09
-8.88615e-08
5.79601e-09
-9.02283e-08
3.81438e-09
-9.06008e-08
2.5422e-09
-9.02669e-08
1.77363e-09
-8.93243e-08
1.29438e-09
-8.83694e-08
1.28214e-09
-8.76494e-08
1.33367e-09
-8.70405e-08
1.16909e-09
-8.66865e-08
8.31696e-10
-1.70852e-10
3.56904e-08
4.78766e-09
4.49596e-08
-4.90171e-09
5.17597e-08
-3.50232e-09
5.14477e-08
-7.61926e-09
6.36103e-08
-1.63236e-08
6.04e-08
-3.41574e-10
6.12318e-08
-1.46457e-08
5.67939e-08
-2.37884e-08
1.37985e-07
6.32422e-08
9.71532e-09
-1.23049e-08
8.50233e-09
-8.51153e-12
-4.85952e-09
6.01886e-09
-1.62905e-08
5.55902e-09
-3.1995e-08
1.28678e-09
-6.58654e-08
2.07976e-08
-8.56633e-08
1.14282e-08
-1.16255e-07
2.67939e-08
-1.14232e-07
-3.49002e-09
-1.26384e-07
-3.80136e-09
-1.00966e-07
-2.3762e-08
-1.12121e-07
2.94156e-08
-8.34622e-08
1.23882e-08
-9.18541e-08
-6.15514e-09
-1.15404e-07
1.64458e-09
-8.35505e-08
-1.97697e-08
-7.92941e-08
-1.76893e-09
-8.82876e-08
2.69485e-09
-8.52166e-08
-7.83663e-09
-9.47221e-08
4.56977e-09
-7.82424e-08
1.75036e-09
-9.79638e-08
-1.62418e-08
-9.33237e-08
-1.50676e-08
-6.7968e-08
-4.30931e-08
-4.97578e-08
-3.18607e-08
-3.98736e-08
-1.02606e-08
-2.83728e-08
-1.86114e-08
-3.12101e-08
-4.37567e-09
-1.50743e-08
-1.87411e-08
-6.52559e-08
7.57814e-08
-8.67018e-08
5.23345e-08
-1.63156e-07
4.82479e-08
-1.35918e-07
5.22817e-08
-1.3936e-07
2.49693e-08
-1.36505e-07
1.67412e-08
-1.34052e-07
8.42461e-09
-1.32148e-07
6.06602e-09
-1.28962e-07
1.13414e-09
-1.24741e-07
-3.99616e-10
-1.19176e-07
-1.11372e-09
-1.13023e-07
-2.73963e-09
-1.04093e-07
-8.51446e-09
-9.58679e-08
-1.34185e-08
-8.83781e-08
-1.93729e-08
-8.22183e-08
-2.45933e-08
-7.58826e-08
-2.80375e-08
-6.97825e-08
-2.80164e-08
-6.34302e-08
-2.40985e-08
-5.82134e-08
-1.45476e-08
-5.55844e-08
-1.94581e-09
-5.84982e-08
1.25809e-08
-6.57129e-08
2.08951e-08
-7.50648e-08
2.29464e-08
-8.40686e-08
2.18681e-08
-8.93716e-08
1.67428e-08
-9.02506e-08
9.34733e-09
-8.99826e-08
5.52791e-09
-8.99794e-08
3.81092e-09
-9.00146e-08
2.57728e-09
-8.96246e-08
1.38344e-09
-8.89388e-08
6.08323e-10
-8.82497e-08
5.92644e-10
-8.76404e-08
7.23611e-10
-8.71575e-08
6.84937e-10
-8.68653e-08
5.38326e-10
-9.86459e-11
-7.1026e-08
7.57153e-09
-7.41206e-08
-1.80683e-09
-7.06921e-08
-6.96625e-09
-7.27236e-08
-5.66521e-09
-7.89304e-08
-9.31127e-09
-6.81452e-08
-1.18147e-08
-9.72857e-08
1.26391e-08
1.78937e-08
4.09324e-08
-8.93595e-08
-7.00162e-09
-9.35611e-08
-8.10305e-09
-1.05999e-07
1.24299e-08
-8.75492e-08
-1.23053e-08
-8.10362e-08
-9.53758e-10
-6.17306e-08
-1.88405e-08
-1.45266e-07
4.44045e-08
-1.08375e-07
3.39027e-08
-1.65225e-07
2.56324e-08
-1.29333e-07
2.07955e-08
-1.65353e-07
2.95136e-08
-3.50763e-08
2.51035e-08
-1.43384e-07
-3.92337e-08
-1.07568e-07
-2.34275e-08
-1.01857e-07
-1.18663e-08
-9.19431e-08
-8.26864e-09
-9.58924e-08
-1.58202e-08
-8.4816e-08
-1.28452e-08
-1.28049e-07
-1.18706e-08
-8.63347e-08
8.95728e-09
-9.19137e-08
8.33038e-09
-1.41524e-07
-8.35341e-09
-1.0995e-07
1.27336e-08
-1.37969e-07
1.15433e-08
-1.21905e-07
5.98277e-08
-8.88431e-08
-4.89931e-09
-7.6767e-08
-2.16582e-08
-4.44458e-08
-5.14521e-08
-9.12247e-08
4.10193e-08
1.79911e-08
5.11856e-08
-1.41392e-07
-6.72656e-10
-7.31151e-08
4.39088e-08
-7.20853e-08
4.69716e-08
-5.62318e-08
3.59056e-08
-5.51668e-08
2.39044e-08
-5.6349e-08
1.79235e-08
-6.15446e-08
1.36204e-08
-6.5936e-08
1.04575e-08
-7.19441e-08
7.14236e-09
-7.64782e-08
4.13456e-09
-7.92168e-08
1.62498e-09
-8.02154e-08
-1.74091e-09
-8.07196e-08
-8.0102e-09
-8.28783e-08
-1.12597e-08
-8.68632e-08
-1.53879e-08
-9.1862e-08
-1.95944e-08
-9.49537e-08
-2.49458e-08
-9.64021e-08
-2.65678e-08
-9.59433e-08
-2.45573e-08
-9.3318e-08
-1.71729e-08
-9.05078e-08
-4.75596e-09
-9.00018e-08
1.20748e-08
-9.13525e-08
2.22459e-08
-9.3293e-08
2.4887e-08
-9.44053e-08
2.29804e-08
-9.33817e-08
1.57192e-08
-9.1587e-08
7.55249e-09
-9.03756e-08
4.31636e-09
-8.97058e-08
3.1409e-09
-8.93609e-08
2.2322e-09
-8.89711e-08
9.93443e-10
-8.84507e-08
8.77323e-11
-8.79339e-08
7.54192e-11
-8.75085e-08
2.97465e-10
-8.718e-08
3.55243e-10
-8.69791e-08
3.36249e-10
-3.16731e-11
-9.89262e-08
4.10706e-09
-1.16692e-07
1.61241e-08
-1.16238e-07
-7.42078e-09
-1.22818e-07
9.06042e-10
-1.36097e-07
3.9687e-09
-9.7779e-08
-5.07714e-08
-1.19189e-07
3.39209e-08
-9.27199e-08
1.40455e-08
-1.18655e-07
1.87428e-08
-1.16344e-07
-1.04136e-08
-1.5977e-07
-1.603e-09
-1.1364e-07
7.31657e-11
-1.32946e-07
1.56766e-08
-1.90364e-08
4.63927e-08
-1.33969e-07
-1.82359e-08
-1.10392e-07
1.03256e-08
-8.04092e-08
-4.61158e-09
-9.35655e-08
3.32097e-08
-1.42603e-07
1.8837e-08
-8.88057e-08
3.1936e-08
-1.18909e-07
-9.2244e-09
-1.00962e-07
-4.13744e-08
-9.73633e-08
-1.54647e-08
-8.40354e-08
-2.15964e-08
-9.51919e-08
-4.66345e-09
-8.91403e-08
-1.88967e-08
-1.13004e-07
1.1993e-08
-8.59098e-08
-1.78629e-08
-7.89629e-08
1.38363e-09
-9.12163e-08
3.98536e-09
-8.18734e-08
3.42582e-09
-6.85561e-08
-1.77391e-09
-1.67234e-07
-1.94199e-08
-1.68439e-07
-3.73171e-09
-1.68873e-07
-2.29472e-08
-5.52082e-08
1.36361e-08
-1.73541e-07
-1.73991e-08
-1.41037e-07
1.67199e-08
-1.59767e-07
1.80584e-08
-1.44182e-07
2.96507e-08
-1.17394e-07
2.16395e-08
-9.49386e-08
1.46244e-08
-7.84253e-08
7.39125e-09
-6.94006e-08
8.89904e-09
-6.39702e-08
8.19004e-09
-6.16844e-08
8.17183e-09
-6.27127e-08
8.17076e-09
-6.53265e-08
6.74853e-09
-6.94892e-08
5.78774e-09
-7.38647e-08
2.63466e-09
-8.0351e-08
-1.52381e-09
-8.74405e-08
-4.17018e-09
-9.4656e-08
-8.17237e-09
-1.00797e-07
-1.34533e-08
-1.05129e-07
-2.06135e-08
-1.0901e-07
-2.26868e-08
-1.13317e-07
-2.0251e-08
-1.16614e-07
-1.38757e-08
-1.16808e-07
-4.562e-09
-1.12958e-07
8.22515e-09
-1.08684e-07
1.79721e-08
-1.04723e-07
2.09255e-08
-1.00117e-07
1.83746e-08
-9.58408e-08
1.14428e-08
-9.32643e-08
4.97594e-09
-9.15056e-08
2.5575e-09
-9.02241e-08
1.85923e-09
-8.92676e-08
1.27547e-09
-8.86479e-08
3.73585e-10
-8.82443e-08
-3.16192e-10
-8.78828e-08
-2.86411e-10
-8.75513e-08
-3.47671e-11
-8.72931e-08
9.58186e-11
-8.71026e-08
1.44583e-10
4.36415e-12
-1.27131e-07
1.59984e-08
-1.77975e-07
7.25458e-09
-1.42792e-07
1.97732e-08
-1.42113e-07
2.27965e-10
-1.46529e-07
5.44001e-09
-3.81277e-08
1.99701e-08
-1.20285e-07
-6.08472e-08
-1.35973e-07
3.11203e-08
-1.0469e-07
-1.24139e-08
-1.01199e-07
-1.39402e-08
-9.26924e-08
-1.00084e-08
-8.44775e-08
-8.22455e-09
-7.30345e-08
4.23386e-09
-4.46986e-08
1.66686e-08
-7.32672e-08
1.03329e-08
-8.88381e-08
2.56352e-08
3.92882e-08
4.50366e-08
-9.31251e-08
-1.16916e-08
-8.59663e-08
1.07186e-08
-9.7495e-08
-1.72541e-08
-1.09971e-07
4.25635e-09
-1.14153e-07
2.32726e-08
-1.13555e-07
-1.60632e-08
-1.02225e-07
-3.32649e-08
-1.05971e-07
-9.17308e-10
-9.7281e-08
-2.75867e-08
-1.3618e-07
-6.82389e-09
-8.46187e-08
-1.09157e-08
-8.48389e-08
7.4075e-10
-8.30757e-08
1.37479e-09
-8.93722e-08
9.7224e-09
-8.03736e-08
-9.86056e-09
-1.09728e-07
8.81522e-09
-1.65285e-07
-7.88916e-09
-1.40373e-07
1.16185e-08
-1.2821e-07
1.34738e-09
-1.18708e-07
-2.58576e-08
-1.44657e-07
4.26692e-08
-1.31847e-07
6.40916e-09
-1.12024e-07
1.08496e-08
-1.02153e-07
1.15529e-08
-9.10747e-08
3.54604e-09
-8.21703e-08
-1.51305e-09
-7.52428e-08
1.97166e-09
-7.12492e-08
4.19663e-09
-7.00092e-08
6.93188e-09
-7.04713e-08
8.63304e-09
-7.27721e-08
9.04935e-09
-7.63064e-08
9.32213e-09
-8.14506e-08
7.77893e-09