/*--------------------------------*- C++ -*----------------------------------*\
  =========                 |
  \\      /  F ield         | OpenFOAM: The Open Source CFD Toolbox
   \\    /   O peration     | Website:  https://openfoam.org
    \\  /    A nd           | Version:  12
     \\/     M anipulation  |
\*---------------------------------------------------------------------------*/
FoamFile
{
    format      ascii;
    class       surfaceScalarField;
    location    "0.7";
    object      phi.water;
}
// * * * * * * * * * * * * * * * * * * * * * * * * * * * * * * * * * * * * * //

dimensions      [0 3 -1 0 0 0 0];

internalField   nonuniform List<scalar> 
7375
(
1.10887e-07
-6.97314e-09
1.19789e-07
-8.91707e-09
1.15154e-07
5.84342e-09
1.1948e-07
-4.27887e-09
1.19807e-07
-1.5025e-09
1.12842e-07
6.96192e-09
9.20178e-08
2.06453e-08
8.21633e-08
9.76968e-09
7.88089e-08
3.35827e-09
7.04701e-08
9.06134e-09
7.83517e-08
-7.01017e-09
6.83223e-08
9.23005e-09
7.83899e-08
-1.10109e-08
1.06674e-07
-2.88973e-08
8.16403e-08
2.50217e-08
8.41905e-08
-2.50633e-09
7.94358e-08
4.73405e-09
6.89836e-08
1.03721e-08
6.18525e-08
7.14992e-09
5.8699e-08
3.74689e-09
5.8403e-08
3.32103e-10
7.43932e-08
-1.67865e-08
8.39762e-08
-9.60673e-09
8.6524e-08
-3.45406e-09
8.57052e-08
8.26954e-10
8.67783e-08
-1.07897e-09
7.3849e-08
1.35382e-08
6.03066e-08
1.43355e-08
6.78741e-08
-8.16338e-09
9.6594e-08
-2.87028e-08
6.80129e-08
2.95216e-08
6.84303e-08
-4.88888e-10
7.57941e-08
-8.93331e-09
5.88275e-08
1.7385e-08
1.88408e-07
4.96635e-08
4.39065e-08
-3.48192e-08
6.69903e-08
-2.3084e-08
7.83061e-08
-1.06364e-08
6.88957e-08
9.44593e-09
5.62272e-08
1.26799e-08
4.69205e-08
9.80169e-09
3.22556e-08
1.4676e-08
1.99154e-08
1.20248e-08
6.41515e-10
1.92637e-08
-8.9047e-09
9.50464e-09
-2.21934e-08
1.32807e-08
-3.57583e-08
1.34354e-08
-5.14101e-08
1.55387e-08
-6.85154e-08
1.69818e-08
-7.89524e-08
1.03091e-08
-7.67516e-08
-1.41176e-09
-7.3029e-08
-2.95541e-09
-6.59994e-08
-7.02971e-09
-5.78284e-08
-8.17112e-09
-4.96907e-08
-8.13775e-09
-4.00546e-08
-9.63628e-09
-3.13171e-08
-8.73749e-09
-2.27047e-08
-8.61264e-09
-1.531e-08
-7.39466e-09
-8.28367e-09
-7.02649e-09
-1.72831e-09
-6.55534e-09
4.90932e-09
-6.63777e-09
1.22848e-08
-7.37538e-09
2.11119e-08
-8.82725e-09
3.13856e-08
-1.02736e-08
4.10668e-08
-9.68123e-09
4.71384e-08
-6.07146e-09
4.4536e-08
2.60229e-09
3.2232e-08
1.2304e-08
1.44355e-08
1.77964e-08
-5.30597e-09
1.97415e-08
-2.44137e-08
1.91078e-08
-4.32722e-08
1.88587e-08
-5.90177e-08
1.57457e-08
4.62842e-09
5.91657e-08
-1.25988e-08
5.47573e-08
-4.4629e-09
5.86882e-08
1.91246e-09
5.76412e-08
-3.81528e-09
6.09494e-08
-4.85993e-09
6.93252e-08
-1.49951e-09
8.166e-08
7.48568e-09
8.15071e-08
1.06396e-08
7.62703e-08
9.42639e-09
7.75043e-08
7.74817e-09
9.24585e-08
-2.18931e-08
4.96353e-08
5.29717e-08
8.46006e-09
3.03404e-08
1.13101e-07
4.68059e-08
5.44336e-09
-4.69989e-08
5.6967e-08
-5.51625e-08
7.17226e-08
-1.01708e-08
6.1195e-08
2.14076e-08
6.27592e-08
5.56961e-09
7.7134e-08
-1.06281e-08
7.32097e-08
5.78659e-09
6.72061e-08
-1.08954e-08
6.37321e-08
-6.23191e-09
6.27899e-08
-1.86484e-09
6.11111e-08
1.88629e-09
6.564e-08
-6.90103e-09
6.89278e-08
9.59391e-09
6.44919e-08
1.93225e-08
3.73109e-08
1.98782e-08
1.41016e-07
4.68235e-08
-1.31504e-09
-7.22937e-09
4.1766e-09
-5.91903e-09
2.27036e-08
-2.80263e-08
1.34755e-08
2.6159e-08
4.66684e-08
1.56338e-08
1.44395e-08
-2.11925e-09
1.12425e-08
-1.99752e-08
3.53963e-08
-3.5149e-08
1.16867e-08
3.31555e-08
-2.07029e-09
2.67092e-08
-1.27311e-08
2.04624e-08
-2.53391e-08
2.71341e-08
-2.29375e-08
9.62309e-09
-2.551e-08
2.16156e-08
-3.98261e-08
2.35801e-08
-4.19072e-08
1.56297e-08
-4.43806e-08
1.61933e-08
-4.68964e-08
1.7899e-08
-4.22946e-08
1.22101e-08
-4.03361e-08
8.24739e-09
-4.11246e-08
-6.09264e-10
-4.60775e-08
1.99738e-09
-5.3773e-08
6.65659e-10
-6.27628e-08
8.18588e-10
-7.11313e-08
2.30639e-10
-7.60965e-08
-4.67121e-09
-7.67151e-08
-8.11894e-09
-7.50483e-08
-1.02796e-08
-7.16606e-08
-1.07824e-08
-6.83997e-08
-1.02875e-08
-6.50235e-08
-9.93158e-09
-6.01075e-08
-1.15539e-08
-5.20899e-08
-1.5393e-08
-4.07692e-08
-2.01479e-08
-2.76598e-08
-2.3383e-08
-1.49726e-08
-2.23684e-08
-6.22083e-09
-1.48232e-08
-6.56551e-09
2.94696e-09
-1.72295e-08
2.29681e-08
-3.47314e-08
3.52983e-08
-5.46386e-08
3.96486e-08
-6.93989e-08
3.38682e-08
-7.47271e-08
2.4187e-08
-7.63276e-08
1.73465e-08
3.07177e-09
-5.26181e-08
-7.53401e-09
-4.0561e-08
-1.70512e-08
-2.77231e-08
-1.1622e-08
-2.72282e-08
-4.54401e-09
-4.00748e-08
8.13323e-09
-4.0965e-08
-2.00595e-10
-3.06476e-08
-2.44286e-09
-3.11308e-08
1.12301e-08
-2.98211e-08
8.02126e-09
-3.27006e-08
1.06275e-08
9.1646e-08
3.10581e-08
-1.79074e-08
-1.49423e-08
1.2063e-08
-3.72374e-10
3.64222e-08
2.15012e-08
-1.44632e-08
4.1104e-09
7.15765e-08
3.73714e-08
6.10814e-08
-1.13297e-09
-4.57567e-08
-4.75425e-08
-3.14886e-08
-9.25992e-09
-2.93056e-08
-1.3053e-08
-2.34969e-08
-2.61955e-10
-6.56655e-09
-2.80706e-08
-1.27078e-07
5.46334e-08
-8.54694e-08
1.60744e-08
-9.98107e-08
1.6208e-08
-9.67194e-08
-7.98758e-09
-7.52035e-08
-1.18253e-08
-7.46345e-08
1.7246e-08
-8.06575e-08
2.50698e-08
-6.27344e-08
3.03782e-08
-6.97918e-08
5.3446e-10
-8.64499e-08
9.20531e-09
2.93901e-08
3.52619e-08
-4.82854e-08
-7.24541e-08
-2.95387e-08
-3.44615e-09
-7.01797e-08
3.81112e-08
-1.07266e-07
1.60166e-08
-2.47681e-09
3.92042e-08
-1.38919e-07
-9.20273e-09
-1.30917e-07
1.87064e-08
-1.23565e-07
1.44462e-08
-1.16484e-07
1.985e-08
-1.25807e-07
2.00257e-08
-1.14288e-07
1.11383e-08
-1.0719e-07
1.62458e-08
-1.00975e-07
9.25865e-09
-9.58213e-08
1.10393e-08
-8.80667e-08
1.01443e-08
-8.22414e-08
6.38469e-09
-7.76938e-08
3.69971e-09
-7.78218e-08
-4.81354e-10
-7.84275e-08
2.60292e-09
-8.40719e-08
6.30991e-09
-9.18276e-08
8.57421e-09
-1.00085e-07
8.48831e-09
-1.07601e-07
2.84421e-09
-1.11725e-07
-3.99543e-09
-1.13123e-07
-8.88093e-09
-1.13719e-07
-1.01868e-08
-1.14205e-07
-9.8019e-09
-1.13359e-07
-1.0777e-08
-1.09153e-07
-1.57601e-08
-1.01479e-07
-2.3067e-08
-9.36056e-08
-2.80214e-08
-8.74147e-08
-2.9574e-08
-8.32721e-08
-2.65108e-08
-8.34218e-08
-1.46735e-08
-8.77339e-08
7.25913e-09
-9.32649e-08
2.84991e-08
-9.49324e-08
3.69657e-08
-9.28737e-08
3.759e-08
-8.75104e-08
2.85049e-08
-8.36741e-08
2.0351e-08
-8.01823e-08
1.3855e-08
8.23118e-10
-1.3963e-07
-6.47506e-09
-9.16159e-08
-6.13449e-09
-3.93009e-08
-6.3536e-08
-3.08015e-08
-1.26866e-08
-5.29104e-08
2.95504e-08
-5.31814e-08
-4.69505e-10
-2.38979e-08
-3.17265e-08
-4.27452e-08
3.03185e-08
-4.27969e-08
8.07279e-09
-4.68043e-08
1.36895e-08
-3.51505e-08
1.92401e-08
-4.94839e-08
-2.46855e-10
-4.83497e-08
-1.0019e-09
-2.58708e-08
-7.58552e-10
-4.96518e-08
2.81787e-08
-3.44967e-08
2.18349e-08
-4.35435e-08
7.46942e-09
-1.05341e-07
1.28113e-08
-1.15718e-07
9.99163e-10
-1.48425e-07
2.08463e-08
-1.66219e-07
1.73513e-08
-4.96124e-08
3.47538e-08
-2.09634e-07
-2.15954e-08
-1.30553e-07
-3.9019e-09
-1.11748e-07
-2.76288e-09
-1.14579e-07
-5.15671e-09
-9.01616e-08
-3.5809e-08
-7.41411e-08
1.22532e-09
-1.0401e-07
5.39266e-08
-9.16324e-08
1.76904e-08
-8.89744e-08
-2.11825e-09
-6.10243e-08
-1.89381e-08
-7.53329e-08
4.84421e-08
-1.1398e-08
4.20064e-08
-2.38379e-08
9.25864e-09
-1.24193e-07
-3.66878e-08
-1.03844e-07
-5.54312e-09
-5.20249e-08
-1.35453e-08
-1.54727e-07
3.37849e-08
-1.09163e-07
3.3635e-08
-1.09525e-07
1.59259e-08
-9.87238e-08
1.00453e-08
-9.73961e-08
1.84976e-08
-9.43886e-08
8.13062e-09
-8.76438e-08
9.50088e-09
-8.69832e-08
8.59798e-09
-8.36697e-08
7.72562e-09
-7.9969e-08
6.44343e-09
-7.74592e-08
3.87479e-09
-7.56842e-08
1.92454e-09
-7.77163e-08
1.55067e-09
-7.98168e-08
4.70333e-09
-8.38278e-08
1.03207e-08
-9.01436e-08
1.48899e-08
-9.80633e-08
1.64079e-08
-1.07401e-07
1.21823e-08
-1.1591e-07
4.51266e-09
-1.21815e-07
-2.97536e-09
-1.25544e-07
-6.45777e-09
-1.27688e-07
-7.65861e-09
-1.27469e-07
-1.09959e-08
-1.22884e-07
-2.03451e-08
-1.17008e-07
-2.89432e-08
-1.13244e-07
-3.17849e-08
-1.11661e-07
-3.1157e-08
-1.13906e-07
-2.42661e-08
-1.19087e-07
-9.49256e-09
-1.20854e-07
9.02624e-09
-1.16607e-07
2.42518e-08
-1.09643e-07
3.00022e-08
-9.96322e-08
2.75789e-08
-9.11783e-08
2.00512e-08
-8.63618e-08
1.55347e-08
-8.24687e-08
9.96222e-09
-7.50651e-10
-1.23569e-07
-2.33995e-09
-1.36585e-07
8.14285e-09
-1.0561e-08
4.68595e-08
-1.27181e-08
-1.05291e-08
-6.41935e-08
-9.42e-08
-7.15766e-08
6.19533e-09
4.60191e-08
2.75229e-08
-6.75295e-08
-3.16572e-08
-4.8153e-08
-1.14193e-08
-4.02133e-08
5.34345e-09
-8.62197e-08
4.91948e-09
-6.19545e-08
3.54747e-08
-7.42048e-08
1.12482e-08
-5.42494e-08
-2.14867e-08
-1.23085e-07
3.72999e-08
-8.89105e-08
4.80208e-08
-9.1405e-08
9.03123e-09
-1.50691e-07
1.38038e-08
-1.01468e-07
1.17958e-08
-1.06565e-07
2.46958e-08
-9.16839e-08
2.4697e-09
-5.8988e-08
2.30505e-09
-7.73018e-08
-3.249e-09
-7.37267e-08
-8.2658e-09
-7.38373e-08
-2.65243e-09
-1.03366e-07
2.33171e-08
-1.47736e-08
5.47411e-08
-2.26326e-08
9.24744e-09
-1.22899e-07
-2.31223e-08
-1.0863e-07
3.45679e-09
-1.35064e-07
2.29374e-08
-1.92287e-08
4.43692e-08
-1.35172e-07
-1.27336e-08
-8.90039e-08
-3.68211e-09
-6.55358e-08
-1.35477e-08
-7.47419e-08
-2.77594e-08
-9.10713e-08
1.00314e-08
3.45234e-08
3.72456e-08
-8.50153e-08
-2.40903e-08
-7.03025e-08
1.89222e-08
-7.05663e-08
1.60261e-08
-7.0254e-08
1.05521e-08
-6.63734e-08
1.53192e-08
-6.89033e-08
1.06604e-08
-6.68911e-08
7.4886e-09
-6.56449e-08
7.35168e-09
-6.34341e-08
5.51462e-09
-6.2356e-08
5.36527e-09
-6.22625e-08
3.7812e-09
-6.38515e-08
3.51338e-09
-6.74778e-08
5.17682e-09
-7.14669e-08
8.69237e-09
-7.55804e-08
1.44341e-08
-8.10654e-08
2.03747e-08
-8.80925e-08
2.34349e-08
-9.71368e-08
2.12264e-08
-1.07801e-07
1.5177e-08
-1.18265e-07
7.48795e-09
-1.25619e-07
8.96951e-10
-1.2866e-07
-4.61777e-09
-1.27091e-07
-1.25654e-08
-1.21839e-07
-2.55968e-08
-1.1807e-07
-3.2712e-08
-1.15688e-07
-3.41677e-08
-1.15406e-07
-3.1439e-08
-1.18889e-07
-2.07825e-08
-1.2299e-07
-5.39177e-09
-1.22273e-07
8.30917e-09
-1.15243e-07
1.72216e-08
-1.05741e-07
2.05004e-08
-9.66082e-08
1.84463e-08
-9.06851e-08
1.41283e-08
-8.66075e-08
1.14574e-08
-8.37154e-08
7.0703e-09
-1.14487e-09
-7.41153e-08
1.00561e-08
-7.50964e-08
9.12423e-09
-4.04128e-08
1.2176e-08
-1.08117e-07
-1.9294e-09
2.17391e-08
1.11803e-08
-6.34495e-08
-8.49988e-08
-4.19785e-08
5.40444e-09
-5.59817e-08
-1.79771e-08
-5.17958e-08
-1.57662e-08
-7.43983e-08
2.80003e-08
-9.36497e-08
2.43691e-08
-9.57667e-08
3.75916e-08
-1.24736e-07
3.89443e-08
-2.42111e-08
5.7131e-08
-1.62539e-07
-1.82066e-09
-1.24443e-07
9.92494e-09
-1.24511e-07
9.09822e-09
-1.15479e-07
4.63104e-09
-1.09353e-07
5.78982e-09
-1.01409e-07
1.67524e-08
-9.06254e-08
-8.2304e-09
-8.38329e-08
-3.63232e-09
-7.80995e-08
-9.01543e-09
-7.6815e-08
-1.03472e-08
-4.65737e-08
-3.3233e-08
-8.0943e-08
5.71037e-08
-5.22961e-08
2.55356e-08
-6.39946e-08
2.09457e-08
-9.53182e-08
7.22883e-09
-1.55617e-07
4.04114e-09
-1.02833e-07
3.08455e-08
-7.52715e-08
1.63553e-08
-9.36821e-08
5.67681e-09
-9.39089e-08
-3.49104e-09
-1.03805e-07
-3.78961e-09
-1.07781e-07
-2.40672e-08
-1.55509e-07
-1.2435e-09
-7.5693e-08
1.7307e-08
-6.24027e-08
-3.7762e-08
-7.74808e-08
3.38091e-08
-6.79674e-08
6.51255e-09
-7.02898e-08
1.27678e-08
-6.16346e-08
7.3666e-09
-5.97303e-08
8.756e-09
-5.90258e-08
6.78396e-09
-5.74764e-08
5.80219e-09
-5.73184e-08
5.3565e-09
-5.73317e-08
5.37845e-09
-5.80875e-08
4.53683e-09
-6.00394e-08
5.46519e-09
-6.31812e-08
8.31852e-09
-6.69991e-08
1.25102e-08
-7.06489e-08
1.80839e-08
-7.40539e-08
2.37796e-08
-7.71836e-08
2.65645e-08
-8.20617e-08
2.61045e-08
-8.87865e-08
2.19017e-08
-9.66982e-08
1.53996e-08
-1.04413e-07
8.61167e-09
-1.09195e-07
1.6377e-10
-1.09176e-07
-1.2584e-08
-1.06699e-07
-2.80735e-08
-1.05702e-07
-3.37098e-08
-1.05817e-07
-3.40522e-08
-1.08437e-07
-2.88192e-08
-1.12707e-07
-1.65123e-08
-1.14957e-07
-3.14225e-09
-1.12694e-07
6.04676e-09
-1.06501e-07
1.10284e-08
-9.90888e-08
1.30883e-08
-9.32764e-08
1.2634e-08
-8.94356e-08
1.02877e-08
-8.64653e-08
8.48729e-09
-8.46401e-08
5.2454e-09
-1.0426e-09
-8.63125e-08
3.4366e-08
-9.37018e-08
1.65138e-08
-9.35153e-08
1.19896e-08
-1.07407e-07
1.19627e-08
-1.0333e-07
6.04857e-09
-1.04941e-08
4.36012e-10
-1.46906e-07
-3.57562e-08
-1.24983e-07
-4.16001e-08
-1.17856e-07
-2.33754e-08
-1.45837e-07
5.51334e-08
-1.5498e-07
3.35118e-08
-1.43867e-07
2.806e-08
-1.31289e-07
2.60999e-08
-1.01803e-07
2.70615e-08
-1.14402e-07
1.07786e-08
-1.1155e-07
7.07309e-09
-1.08026e-07
5.51753e-09
-1.07207e-07
3.81134e-09
-1.1427e-07
1.28531e-08
-1.45855e-07
-9.27971e-09
-9.35665e-08
-2.01113e-09
-7.52495e-08
-2.31401e-08
-1.04684e-07
2.03273e-08
-1.23807e-07
7.51194e-09
1.8465e-08
3.44728e-09
-1.15129e-07
1.48369e-08
-8.75025e-08
-3.26533e-09
-8.14028e-08
1.46959e-08
-8.37755e-08
9.60141e-09
-9.9131e-08
1.93553e-08
-8.64377e-08
1.81522e-08
-1.04936e-07
3.48536e-08
-1.12454e-07
1.20475e-08
-1.31735e-07
1.57893e-08
-1.24374e-07
-9.80659e-09
-1.34064e-07
-1.45253e-08
-1.73745e-07
3.84374e-08
-1.6423e-07
6.05471e-09
-4.61409e-08
2.36209e-08
-1.49645e-07
-3.81304e-08
-1.27589e-07
-1.57014e-08
-1.09066e-07
-4.60753e-09
-9.89553e-08
-2.74453e-09
-9.12093e-08
1.00991e-09
-8.68837e-08
2.45822e-09
-8.44838e-08
3.40216e-09
-8.29527e-08
3.82529e-09
-8.06461e-08
3.07174e-09
-7.89724e-08
2.86308e-09
-7.80373e-08
4.52996e-09
-7.71847e-08
7.46576e-09
-7.70419e-08
1.23673e-08
-7.68438e-08
1.78857e-08
-7.60858e-08
2.30216e-08
-7.55279e-08
2.60065e-08
-7.52559e-08
2.58323e-08
-7.59869e-08
2.26326e-08
-7.8492e-08
1.79047e-08
-8.24101e-08
1.25297e-08
-8.64699e-08
4.22349e-09
-8.96971e-08
-9.35691e-09
-9.25604e-08
-2.52103e-08
-9.5027e-08
-3.12432e-08
-9.79017e-08
-3.11776e-08
-1.01989e-07
-2.47315e-08
-1.0576e-07
-1.27418e-08
-1.06511e-07
-2.39125e-09
-1.03791e-07
3.32676e-09
-9.95432e-08
6.7806e-09
-9.53653e-08
8.91042e-09
-9.17092e-08
8.97806e-09
-8.8981e-08
7.55962e-09
-8.68039e-08
6.31045e-09
-8.5492e-08
3.9338e-09
-8.6723e-10
-1.28452e-07
-3.0564e-08
-1.22506e-07
9.25726e-09
-1.25554e-07
1.50378e-08
-1.27351e-07
1.37601e-08
-1.40755e-07
1.80164e-08
-1.53182e-07
1.13968e-08
-1.93804e-07
4.44701e-09
-2.1177e-07
-2.62726e-08
-1.2478e-07
7.36238e-08
-2.15185e-07
-2.74657e-08
-1.92216e-07
8.00557e-09
-1.69433e-07
6.93459e-09
-1.46201e-07
2.86798e-09
-1.27519e-07
6.81759e-09
-1.20781e-07
4.04106e-09
-1.16678e-07
4.16034e-09
-1.11152e-07
-8.68037e-12
-1.09645e-07
1.17002e-09
-1.03248e-07
6.45524e-09
-1.15026e-07
2.49822e-09
-1.21878e-07
3.57681e-09
-1.0902e-08
4.50265e-08
-1.51102e-07
-1.66765e-08
-1.50921e-07
7.33054e-09
-2.41424e-10
3.005e-08
-1.24722e-07
-3.60573e-08
-1.13013e-07
-1.50935e-08
-9.30451e-08
-5.2722e-09
-9.27652e-08
8.2876e-09
-8.95381e-08
1.61281e-08
-8.34946e-08
1.21086e-08
-7.9885e-08
3.09284e-08
-8.43147e-08
1.63106e-08
-9.36372e-08
2.49506e-08
-1.31421e-07
2.66366e-08
-2.26027e-08
5.57985e-08
-1.90236e-07
-2.81783e-08
-1.4589e-07
1.85568e-08
-1.34057e-07
8.65832e-09
-1.55377e-07
-1.58217e-08
-1.52758e-07
-1.51774e-08
-1.38385e-07
-1.76297e-08
-1.30232e-07
-1.0897e-08
-1.24525e-07
-4.69774e-09
-1.20483e-07
-1.58325e-09
-1.18352e-07
1.27103e-09
-1.16458e-07
1.93112e-09
-1.13994e-07
6.07491e-10
-1.12087e-07
9.55557e-10
-1.10145e-07
2.58763e-09
-1.07317e-07
4.63789e-09
-1.02581e-07
7.6312e-09
-9.61293e-08
1.14341e-08
-8.83393e-08
1.52315e-08
-8.15059e-08
1.91729e-08
-7.61366e-08
2.04629e-08
-7.23942e-08
1.88902e-08
-7.07313e-08
1.62416e-08
-7.15657e-08
1.33641e-08
-7.46024e-08
7.26012e-09
-7.95399e-08
-4.41952e-09
-8.58794e-08
-1.88708e-08
-9.06673e-08
-2.64553e-08
-9.4554e-08
-2.72909e-08
-9.77882e-08
-2.14973e-08
-1.00173e-07
-1.0357e-08
-1.0012e-07
-2.44413e-09
-9.81771e-08
1.38388e-09
-9.56103e-08
4.21381e-09
-9.31231e-08
6.42321e-09
-9.07258e-08
6.58085e-09
-8.87386e-08
5.57263e-09
-8.71249e-08
4.69704e-09
-8.61497e-08
2.95881e-09
-6.88343e-10
-1.82057e-07
-4.00334e-08
-1.79171e-07
6.37157e-09
-1.72913e-07
8.77993e-09
-1.71782e-07
1.2629e-08
-1.97704e-07
4.19217e-08
-2.21343e-07
3.4918e-08
-2.14434e-07
-2.41242e-09
-1.01208e-07
4.0958e-08
-1.67248e-07
-3.63254e-08
-1.78048e-07
-1.86526e-08
-1.74893e-07
6.63431e-09
-1.54208e-07
-1.36123e-08
-1.45674e-07
-5.72434e-09
-1.18462e-07
-2.01913e-08
-1.18308e-07
2.67866e-09
-1.20958e-07
6.81058e-09
-1.11098e-07
-9.76993e-09
-1.11661e-07
1.73289e-09
-1.21332e-07
1.61264e-08
-1.23804e-07
4.96967e-09
-1.06582e-07
-1.37858e-08
-1.04253e-07
4.22382e-08
-1.24862e-07
3.93219e-09
-1.25796e-07
8.26413e-09
-9.47159e-08
-1.02979e-09
-1.09604e-07
-2.15375e-08
-1.21206e-07
-3.49155e-09
-1.12519e-07
-1.27354e-08
-8.42058e-08
-2.00253e-08
-8.08926e-08
1.19556e-08
-8.28872e-08
1.49487e-08
-8.26278e-08
3.15032e-08
-7.619e-08
9.03834e-09
-5.02876e-08
-1.72916e-09
-7.52935e-08
5.11208e-08
-5.4642e-08
3.45777e-08
-1.02738e-07
2.07536e-08
-7.997e-08
-4.02354e-09
-8.71653e-08
1.49493e-08
-9.4959e-08
-7.86662e-09
-9.48716e-08
-1.52649e-08
-8.65741e-08
-2.52239e-08
-8.23885e-08
-1.43607e-08
-8.91498e-08
2.0635e-09
-9.38335e-08
3.10027e-09
-9.43311e-08
1.76853e-09
-9.51213e-08
2.72122e-09
-9.68526e-08
2.33875e-09
-9.9634e-08
3.73677e-09
-1.02996e-07
5.9498e-09
-1.05487e-07
7.12864e-09
-1.05469e-07
7.61275e-09
-1.02409e-07
8.37432e-09
-9.6108e-08
8.93036e-09
-8.68635e-08
9.92836e-09
-7.67285e-08
1.03278e-08
-6.85925e-08
1.07541e-08
-6.39117e-08
1.15608e-08
-6.26793e-08
1.21316e-08
-6.51731e-08
9.75392e-09
-7.1657e-08
2.06432e-09
-8.02941e-08
-1.02338e-08
-8.61732e-08
-2.05763e-08
-8.96787e-08
-2.37854e-08
-9.2866e-08
-1.831e-08
-9.53854e-08
-7.83759e-09
-9.60175e-08
-1.81206e-09
-9.53584e-08
7.24857e-10
-9.38061e-08
2.66154e-09
-9.19936e-08
4.61076e-09
-9.02139e-08
4.80124e-09
-8.86753e-08
4.03412e-09
-8.74209e-08
3.44295e-09
-8.66526e-08
2.19076e-09
-5.33869e-10
-2.47995e-07
-2.28977e-08
-2.26281e-07
-1.29445e-08
-2.15488e-07
-2.01305e-09
-2.00964e-07
-1.9142e-09
-1.95495e-07
-2.26528e-08
-1.77199e-07
1.78906e-08
-1.38025e-07
1.6922e-08
-1.12379e-07
1.33497e-08
-1.00923e-07
-4.91556e-08
-1.39477e-07
1.99012e-08
-1.4417e-07
1.26692e-08
-1.37741e-07
-2.01791e-08
-1.80083e-07
-2.2055e-08
-1.1918e-07
-2.27908e-08
-1.23461e-07
5.68552e-09
-1.57294e-07
-1.68566e-08
-1.05994e-07
-2.56239e-09
-1.07239e-07
1.89706e-09
-1.18679e-07
2.7288e-08
-1.43995e-07
2.88162e-08
-3.60289e-08
5.68046e-08
-1.50089e-07
-2.06494e-08
-1.35901e-07
-1.03618e-08
-1.22034e-07
-5.60283e-09
-1.1363e-07
-9.43392e-09
-1.16099e-07
-1.92654e-08
-1.59228e-07
-1.7843e-08
-1.016e-07
-1.18554e-08
-9.87581e-08
-2.4108e-08
-9.4471e-08
7.59098e-09
-9.82454e-08
1.8723e-08
-1.34202e-07
8.67649e-09
-1.03121e-07
3.71543e-08
2.24187e-08
4.93137e-08
-7.84409e-08
-2.35439e-08
-5.39656e-08
9.85259e-09
-5.51445e-08
2.17131e-08
-5.58935e-08
-3.87829e-09
-5.07161e-08
9.6731e-09
-6.2246e-08
3.66326e-09
-7.05455e-08
-6.96551e-09
-7.41313e-08
-2.16383e-08
-6.15952e-08
-2.66873e-08
-9.14968e-08
3.25808e-08
-9.97223e-08
1.13257e-08
-1.00001e-07
2.0475e-09
-1.00219e-07
2.93826e-09
-1.01098e-07
3.21777e-09
-1.02465e-07
5.10356e-09
-1.03396e-07
6.88094e-09
-1.03504e-07
7.23639e-09
-1.01757e-07
5.86638e-09
-9.75806e-08
4.19751e-09
-9.06399e-08
1.98957e-09
-8.07436e-08
3.19813e-11
-6.91079e-08
-1.30803e-09
-5.84492e-08
9.5353e-11
-5.06511e-08
3.76265e-09
-4.68597e-08
8.3401e-09
-4.66298e-08
9.52398e-09
-5.06739e-08
6.10835e-09
-5.94175e-08
-1.49026e-09
-6.91675e-08
-1.08263e-08
-7.80589e-08
-1.4894e-08
-8.5646e-08
-1.07229e-08
-9.0131e-08
-3.35252e-09
-9.21113e-08
1.6827e-10
-9.27968e-08
1.41038e-09
-9.23517e-08
2.21639e-09
-9.10778e-08
3.33696e-09
-8.97138e-08
3.43726e-09
-8.85671e-08
2.8876e-09
-8.76044e-08
2.4805e-09
-8.70199e-08
1.60653e-09
-3.95998e-10
-2.25731e-07
4.52219e-08
-2.32684e-07
-3.66489e-09
-2.20972e-07
-1.36058e-08
-2.15835e-07
-7.05036e-09
-2.06192e-07
-2.82794e-08
-1.85652e-07
-2.64977e-09
-1.74576e-07
5.96641e-09
-1.73995e-07
9.3493e-09
-7.83107e-08
3.40015e-08
-1.94795e-07
-3.73449e-08
-1.55222e-07
-2.69038e-08
-1.51513e-07
-2.56774e-08
-1.5479e-07
-1.87784e-08
-1.48042e-07
-2.82614e-08
-1.25014e-07
-1.7342e-08
-1.24604e-07
-1.85422e-08
-1.04237e-07
-2.29562e-08
-7.61581e-08
-2.54047e-08
-8.74089e-08
3.81534e-08
-9.20356e-08
3.34899e-08
-5.72959e-08
2.14912e-08
-8.88362e-08
9.39992e-09
-1.0942e-07
-4.94921e-08
-8.72969e-08
3.24949e-08
-1.09165e-07
1.13203e-08
-1.25723e-07
-2.70775e-09
-1.24822e-07
-1.74612e-08
-1.13447e-07
-2.33516e-08
-1.00817e-07
-3.60776e-08
-1.15089e-07
2.18633e-08
-1.03217e-07
5.61915e-09
-1.05011e-07
1.04707e-08
-8.93822e-08
2.22104e-08
-5.18805e-08
1.18119e-08
-7.14852e-08
-4.75725e-09
-6.38149e-08
2.83316e-09
-4.31363e-08
1.24122e-09
-4.73737e-08
3.98178e-10
-3.90305e-08
1.34333e-09
-5.07118e-08
1.49463e-08
-5.69436e-08
-7.33825e-10
-6.41019e-08
-1.52901e-08
6.9852e-09
8.04665e-08
-1.22579e-07
-1.17639e-08
-1.12682e-07
1.42856e-09
-1.11824e-07
1.18936e-09
-1.11331e-07
2.44516e-09
-1.11189e-07
3.07579e-09
-1.11109e-07
5.02321e-09
-1.09493e-07
5.26525e-09
-1.07098e-07
4.84119e-09
-1.02761e-07
1.52864e-09
-9.56362e-08
-2.92693e-09
-8.54023e-08
-8.2444e-09
-7.40218e-08
-1.13486e-08
-6.28865e-08
-1.24434e-08
-5.29206e-08
-9.87065e-09
-4.49827e-08
-4.17531e-09
-3.99954e-08
3.35279e-09
-3.85113e-08
8.03975e-09
-4.07745e-08
8.37154e-09
-4.73689e-08
5.10412e-09
-5.89449e-08
7.49529e-10
-7.3014e-08
-8.24899e-10
-8.43209e-08
5.83888e-10
-8.97426e-08
2.06926e-09
-9.17693e-08
2.19498e-09
-9.23139e-08
1.95493e-09
-9.20254e-08
1.92794e-09
-9.07767e-08
2.08829e-09
-8.94558e-08
2.11642e-09
-8.85284e-08
1.96042e-09
-8.77594e-08
1.71178e-09
-8.72982e-08
1.14551e-09
-2.82034e-10
-7.60547e-08
3.19186e-08
-9.14758e-08
1.17938e-08
-1.09222e-07
4.09825e-09
-1.09544e-07
-7.69472e-09
-1.35378e-07
-2.446e-09
-1.39319e-07
1.22413e-09
-1.38272e-07
3.45799e-09
-1.20588e-07
-5.51367e-09
-9.55613e-08
9.50617e-09
-7.87926e-08
-5.56564e-08
-9.87685e-08
-7.20259e-09
-1.08252e-07
-1.61937e-08
-1.07392e-07
-1.9639e-08
-8.29993e-08
-5.31969e-08
-1.0326e-07
2.742e-09
-1.0715e-07
-1.48034e-08
-1.26369e-07
-3.738e-09
1.49475e-08
1.05488e-08
-1.19583e-07
-2.43005e-09
-9.83862e-08
1.10726e-08
-8.15268e-08
4.85086e-09
-1.31118e-07
-1.13909e-10
8.76316e-09
4.75512e-08
-1.07372e-07
-2.86848e-08
-8.85277e-08
-7.52427e-09
-9.00961e-08
-1.11183e-09
-9.49482e-08
-1.26092e-08
-1.16828e-07
-2.66348e-09
-7.44972e-09
3.3686e-08
-1.70822e-07
-4.91427e-08
-1.05088e-07
-1.60631e-09
-1.00067e-07
5.39781e-09
-7.96073e-08
1.73312e-09
-7.66886e-08
7.34422e-09
-8.54246e-08
3.93808e-09
-7.49208e-08
-6.03502e-09
-6.89007e-08
-4.07063e-09
-6.32578e-08
-6.57941e-09
-7.61286e-08
1.34374e-08
-8.72665e-08
2.68607e-08
-1.37042e-07
4.81346e-08
-3.50433e-08
6.22146e-08
-1.21187e-07
-8.06745e-09
-1.31946e-07
-1.0045e-09
-1.29722e-07
-7.96407e-10
-1.29525e-07
9.92907e-10
-1.26855e-07
-2.25359e-10
-1.24315e-07
5.35591e-10
-1.21159e-07
1.86758e-09
-1.17161e-07
1.2666e-09
-1.10876e-07
-1.44303e-09
-1.02513e-07
-6.83489e-09
-9.21134e-08
-1.33266e-08
-8.06841e-08
-1.96738e-08
-6.92794e-08
-2.27534e-08
-5.893e-08
-2.27928e-08
-5.03391e-08
-1.84616e-08
-4.45934e-08
-9.92108e-09
-4.14291e-08
1.88347e-10
-4.25674e-08
9.17803e-09
-4.73711e-08
1.31752e-08
-5.5366e-08
1.3099e-08
-6.70206e-08
1.24041e-08
-7.88571e-08
1.10116e-08
-8.63587e-08
8.08546e-09
-8.97539e-08
5.4644e-09
-9.10879e-08
3.52903e-09
-9.14383e-08
2.30532e-09
-9.10914e-08
1.58105e-09
-9.01417e-08
1.13864e-09
-8.91845e-08
1.15933e-09
-8.8462e-08
1.2381e-09
-8.78514e-08
1.10141e-09
-8.74956e-08
7.8996e-10
-1.83668e-10
3.50571e-08
1.22862e-08
4.47696e-08
1.98243e-09
5.00472e-08
-1.68461e-09
4.68801e-08
-4.02221e-09
5.23781e-08
-7.44094e-09
5.1492e-08
1.5688e-09
5.95292e-08
-5.26861e-09
4.80021e-08
6.73813e-09
1.34968e-08
-1.43693e-08
1.50887e-07
4.58102e-08
-5.3274e-09
-2.9843e-08
-1.75288e-08
-3.99247e-09
-4.97821e-08
1.21063e-08
4.67596e-08
2.94036e-08
-9.63425e-08
-3.32701e-08
-8.44843e-08
-2.69395e-08
-1.31491e-07
4.27894e-08
4.9186e-09
5.26873e-08
-1.42382e-07
-3.07275e-08
-1.37077e-07
4.35883e-09
-1.15208e-07
-1.70177e-08
-1.06918e-07
-8.4046e-09
-5.32054e-08
-6.16148e-09
-8.89111e-08
7.02077e-09
-8.29927e-08
-1.34428e-08
-8.25062e-08
-1.59842e-09
-7.88083e-08
-1.63072e-08
-4.93734e-08
-3.20986e-08
-5.38598e-08
3.74467e-08
-9.84243e-08
-4.62558e-09
-9.49202e-08
-5.12684e-09
-7.96084e-08
-9.10199e-09
-7.0864e-08
-6.34228e-09
-5.17517e-08
-1.19612e-08
-4.14917e-08
-6.88436e-09
-3.31339e-08
-1.46667e-08
-3.45749e-08
-2.67125e-09
-4.68589e-08
6.17847e-09
-5.88323e-08
2.5275e-08
-6.09756e-08
2.77817e-08
-1.5937e-07
-3.26136e-08
-1.19945e-07
2.47516e-08
-1.33138e-07
6.32451e-09
-1.36692e-07
2.55008e-09
-1.35952e-07
-1.53692e-09
-1.34136e-07
-8.23455e-10
-1.30667e-07
-3.694e-09
-1.26172e-07
-3.95958e-09
-1.20415e-07
-3.88914e-09
-1.14109e-07
-5.04009e-09
-1.05095e-07
-1.04573e-08
-9.68401e-08
-1.50894e-08
-8.93516e-08
-2.08151e-08
-8.31904e-08
-2.58351e-08
-7.68518e-08
-2.90921e-08
-7.07344e-08
-2.89103e-08
-6.43686e-08
-2.48274e-08
-5.9159e-08
-1.51308e-08
-5.6551e-08
-2.41965e-09
-5.95164e-08
1.21433e-08
-6.67284e-08
2.03871e-08
-7.606e-08
2.24305e-08
-8.50128e-08
2.13569e-08
-9.02427e-08
1.62414e-08
-9.10842e-08
8.92697e-09
-9.08082e-08
5.18834e-09
-9.08027e-08
3.52355e-09
-9.08267e-08
2.32933e-09
-9.04233e-08
1.17765e-09
-8.97293e-08
4.44749e-10
-8.90366e-08
4.66663e-10
-8.84253e-08
6.26954e-10
-8.79406e-08
6.17053e-10
-8.7647e-08
4.96537e-10
-1.12202e-10
-7.8444e-08
-6.02929e-10
-6.99761e-08
-6.48513e-09
-7.00463e-08
-1.63149e-09
-7.26434e-08
-1.46623e-09
-8.05286e-08
1.26573e-09
-7.48339e-08
-4.88177e-09
-7.72563e-08
-4.46826e-09
-1.23764e-07
-5.60314e-09
-1.02605e-07
2.48398e-08
-6.31943e-08
5.93174e-09
-8.14263e-08
-1.16112e-08
-8.5964e-08
5.39592e-10
-8.10103e-08
7.15239e-09
-8.26154e-08
3.01735e-08
-1.41026e-07
2.36864e-08
-3.39973e-08
4.69056e-08
-1.66237e-07
-2.43572e-10
-8.28401e-08
-3.15601e-08
-1.32592e-07
1.65132e-08
-1.75183e-07
-1.27652e-08
-1.19061e-07
-1.22475e-08
-1.03448e-07
-2.40172e-08
-6.1779e-08
-4.83239e-08
-8.688e-08
3.17973e-08
-9.70141e-08
-3.30892e-09
-8.93674e-08
-9.24522e-09
-1.10417e-07
4.74274e-09
1.62704e-08
1.83624e-08
-1.00306e-07
-2.25145e-08
-1.16277e-07
1.03116e-08
-1.10282e-07
-9.93562e-09
-1.08283e-07
-1.22055e-08
-1.29146e-07
-4.52596e-08
-9.23778e-08
-4.75335e-08
-8.10273e-08
-1.74786e-08
-7.55313e-08
-2.03685e-08
-6.1666e-08
-1.79363e-08
-1.14973e-07
-2.28986e-10
-7.50229e-08
4.63334e-08
-9.58641e-08
4.86228e-08
-2.61843e-08
7.56212e-08
-3.64285e-08
3.50101e-08
-4.59612e-08
1.58571e-08
-5.28594e-08
9.44816e-09
-6.07509e-08
6.3545e-09
-6.63185e-08
4.74402e-09
-7.27559e-08
2.7433e-09
-7.74253e-08
7.09765e-10
-8.0195e-08
-1.11956e-09
-8.12009e-08
-4.03418e-09
-8.17222e-08
-9.93608e-09
-8.3902e-08
-1.29097e-08
-8.78899e-08
-1.68273e-08
-9.28424e-08
-2.08827e-08
-9.58802e-08
-2.60544e-08
-9.72813e-08
-2.75092e-08
-9.67813e-08
-2.53275e-08
-9.41302e-08
-1.77819e-08
-9.13368e-08
-5.21317e-09
-9.08559e-08
1.16624e-08
-9.22013e-08
2.17325e-08
-9.41343e-08
2.43635e-08
-9.5221e-08
2.24436e-08
-9.41658e-08
1.51862e-08
-9.2367e-08
7.12816e-09
-9.11555e-08
3.97682e-09
-9.04861e-08
2.85411e-09
-9.01376e-08
1.98091e-09
-8.97399e-08
7.79918e-10
-8.92138e-08
-8.12701e-11
-8.86942e-08
-5.28662e-11
-8.82667e-08
1.99615e-10
-8.79357e-08
2.86326e-10
-8.7733e-08
2.94101e-10
-4.59859e-11
-1.01964e-07
1.76467e-09
-1.0505e-07
-3.4334e-09
-1.15927e-07
9.24514e-09
-1.17305e-07
-8.67645e-11
-1.32593e-07
1.65537e-08
-1.33601e-07
-3.96499e-09
-1.27464e-07
-1.05592e-08
-1.28661e-07
-4.34982e-09
-1.18605e-07
1.46346e-08
-1.06303e-07
-6.37012e-09
-1.25288e-07
8.56448e-09
-1.02291e-07
-2.24581e-08
-9.85503e-08
1.34902e-09
-1.38806e-07
1.07146e-08
-9.3805e-08
3.8965e-08
-8.42775e-08
3.68994e-08
-1.21263e-07
3.55043e-08
8.79983e-10
2.51142e-08
-1.232e-07
-3.67308e-08
-1.20502e-07
-1.54913e-08
-1.21293e-07
-1.15748e-08
-1.22308e-07
-2.42498e-08
1.74734e-08
-9.23825e-09
-1.08341e-07
-1.79084e-08
-1.09082e-07
-3.67295e-09
-1.03284e-07
-1.50436e-08
-8.98962e-08
-8.64513e-09
-3.62335e-08
-3.53004e-08
-5.27699e-08
-6.20797e-09
-8.49253e-08
4.19339e-08
-1.00707e-07
5.90645e-09
-1.12038e-07
-8.75289e-10
-1.20364e-07
2.26335e-08
-1.44584e-07
-2.35538e-08
-1.46156e-07
-1.73975e-08
-1.99461e-07
-2.72688e-08
-1.57829e-07
1.57121e-09
-1.4517e-07
-1.45146e-08
-1.54304e-07
5.49014e-08
-1.43488e-07
3.8983e-08
-1.00764e-07
3.35822e-08
-8.09394e-08
1.61929e-08
-6.93833e-08
4.30087e-09
-6.42472e-08
4.31195e-09
-6.13203e-08
3.42749e-09
-6.05575e-08
3.98113e-09
-6.24575e-08
4.64325e-09
-6.55669e-08
3.81909e-09
-7.00064e-08
3.31986e-09
-7.45557e-08
5.15045e-10
-8.11441e-08
-3.34775e-09
-8.82876e-08
-5.76625e-09
-9.55113e-08
-9.60378e-09
-1.01626e-07
-1.47681e-08
-1.05933e-07
-2.17472e-08
-1.09812e-07
-2.36301e-08
-1.14117e-07
-2.10224e-08
-1.17383e-07
-1.4516e-08
-1.17515e-07
-5.08183e-09
-1.13642e-07
7.79004e-09
-1.09392e-07
1.74818e-08
-1.05432e-07
2.04033e-08
-1.00821e-07
1.78329e-08
-9.65583e-08
1.09235e-08
-9.39913e-08
4.56115e-09
-9.22343e-08
2.21978e-09
-9.0955e-08
1.57479e-09
-9.00008e-08
1.02675e-09
-8.93818e-08
1.60935e-10
-8.89766e-08
-4.86425e-10
-8.86129e-08
-4.16418e-10
-8.82798e-08
-1.33407e-10
-8.8019e-08
2.57996e-11
-8.78273e-08
1.02693e-10
-1.02607e-11
-1.1876e-07
1.29196e-08
-1.47467e-07
2.5273e-08
-1.4187e-07
6.59997e-09
-1.33801e-07
-8.1551e-09
-1.32087e-07
1.21268e-08
-1.7566e-07
-2.01062e-08
-1.34316e-07
8.9935e-09
-1.21809e-07
-1.56148e-08
-1.03772e-07
-3.36771e-09
-9.63111e-08
-1.39077e-08
-7.80033e-08
-9.64608e-09
-7.72617e-08
-2.34365e-08
-6.00351e-08
-1.58777e-08
-6.11847e-08
1.10298e-08
-4.97317e-08
2.75118e-08
-4.24114e-08
2.92803e-08
-8.50585e-08
1.92426e-08
-3.12532e-08
3.01575e-08
-6.54272e-08
-3.25767e-09
-1.00815e-07
1.8857e-08
-1.12714e-07
1.3636e-09
-1.32648e-07
-4.5665e-09
-1.17652e-09
3.85402e-08
-1.29429e-07
-6.60158e-08
-1.16589e-07
-1.78332e-08
-1.05283e-07
-2.63501e-08
-1.24744e-07
1.08161e-08
-9.61362e-09
2.68837e-08
-1.64928e-08
8.39396e-10
-1.13768e-07
-3.74643e-08
-1.12013e-07
2.97934e-09
-1.08033e-07
-3.71355e-09
-9.65622e-08
1.0178e-08
-1.26329e-07
6.21315e-09
-1.36531e-07
-7.37522e-09
-1.66569e-07
3.0816e-09
-1.79232e-07
1.42506e-08
-5.34208e-08
3.93672e-08
-1.47418e-07
-2.51521e-08
-1.17154e-07
8.32985e-09
-9.64703e-08
1.25622e-08
-8.32421e-08
2.96457e-09
-7.53688e-08
-3.57254e-09
-7.0247e-08
-8.09935e-10
-6.8046e-08
1.22641e-09
-6.81641e-08
4.09918e-09
-6.95587e-08
6.03781e-09
-7.24786e-08
6.73882e-09
-7.6418e-08
7.25921e-09
-8.18235e-08
5.9205e-09
-8.84695e-08
3.29817e-09
-9.45869e-08