/*--------------------------------*- C++ -*----------------------------------*\
  =========                 |
  \\      /  F ield         | OpenFOAM: The Open Source CFD Toolbox
   \\    /   O peration     | Website:  https://openfoam.org
    \\  /    A nd           | Version:  12
     \\/     M anipulation  |
\*---------------------------------------------------------------------------*/
FoamFile
{
    format      ascii;
    class       volVectorField;
    location    "0.7";
    object      U.water_0;
}
// * * * * * * * * * * * * * * * * * * * * * * * * * * * * * * * * * * * * * //

dimensions      [0 1 -1 0 0 0 0];

internalField   nonuniform List<vector> 
3750
(
(6.94845e-09 0.0119382 0)
(-0.000823487 0.0121576 0)
(0.000321206 0.0112676 0)
(0.000507028 0.0108744 0)
(0.001058 0.0117265 0)
(0.000181717 0.00960487 0)
(0.00196442 0.00924562 0)
(-0.000154029 0.00930384 0)
(-0.000449542 0.00703272 0)
(0.000114233 0.00698925 0)
(-0.000499348 0.00605561 0)
(-0.000394965 0.00660785 0)
(-0.00199105 0.00626493 0)
(-0.000877257 0.0067176 0)
(3.68354e-05 0.00719825 0)
(0.000900714 0.00739033 0)
(0.00138843 0.00722483 0)
(0.000920863 0.0068384 0)
(0.000465813 0.00687691 0)
(0.000637697 0.0060597 0)
(0.000816434 0.00602492 0)
(-0.000474796 0.00820453 0)
(-0.00132461 0.00799415 0)
(0.000376371 0.00817346 0)
(0.000884029 0.00892724 0)
(0.000270544 0.00695255 0)
(0.000249977 0.00653662 0)
(0.00114785 0.00586988 0)
(-0.000247955 0.00624367 0)
(-0.000281464 0.00541028 0)
(-0.00130548 0.0059969 0)
(-0.00107476 0.00549852 0)
(-0.00167861 0.00654418 0)
(-0.000181342 0.00551307 0)
(0.000259322 0.00551344 0)
(0.000259635 0.00675292 0)
(-0.00079713 0.00709294 0)
(-0.000520429 0.00573245 0)
(0.000432525 0.00686288 0)
(0.000229783 0.00598898 0)
(0.000834369 0.00345209 0)
(0.000764368 0.00246009 0)
(0.000520318 0.00168961 0)
(0.00092591 0.00013858 0)
(0.000151617 0.000352523 0)
(0.000571002 5.0739e-05 0)
(0.000577554 -0.00290181 0)
(0.00138714 -0.00447067 0)
(0.00139448 -0.00452565 0)
(0.000268226 -0.00645807 0)
(-0.000433436 -0.00812853 0)
(-0.000443755 -0.00820904 0)
(-0.000847455 -0.00646426 0)
(-0.00103259 -0.0058246 0)
(-0.0010196 -0.00518414 0)
(-0.000966998 -0.0043019 0)
(-0.000685095 -0.00343069 0)
(-0.000537558 -0.00251683 0)
(-0.000296849 -0.00174172 0)
(-0.000314527 -0.00103862 0)
(-0.000331742 -0.000334005 0)
(-0.000344365 0.00028157 0)
(-0.000360241 0.00100175 0)
(-0.000348695 0.00174376 0)
(-0.000336957 0.00272532 0)
(-0.000228014 0.00374189 0)
(-3.75206e-06 0.0046014 0)
(0.000532274 0.00491625 0)
(0.000857189 0.00422991 0)
(0.000854676 0.00266285 0)
(0.000708795 0.000536262 0)
(0.000611885 -0.00134266 0)
(0.00106055 -0.00315351 0)
(0.000960661 -0.0058016 0)
(0.000490008 -0.00621981 0)
(-0.00134263 0.00734141 0)
(-7.67497e-05 0.00713249 0)
(0.000336483 0.0062883 0)
(0.00131014 0.00472507 0)
(-0.000706759 0.00500079 0)
(0.000790179 0.00601207 0)
(0.0024356 0.00704866 0)
(0.00163389 0.00768555 0)
(0.00071827 0.00795467 0)
(0.00174419 0.00825924 0)
(0.000289149 0.00809416 0)
(0.000572306 0.00612965 0)
(0.000718643 0.00397143 0)
(0.000941354 0.0027427 0)
(-0.000517474 0.00270889 0)
(-0.000762992 0.00329784 0)
(-0.000822148 0.00488855 0)
(-0.000856234 0.00553798 0)
(0.000128291 0.00702156 0)
(-0.000114735 0.00837662 0)
(-0.000462298 0.00706476 0)
(-0.00272571 0.00756827 0)
(-0.00294011 0.00906466 0)
(0.001205 0.00671397 0)
(0.00118162 0.00439742 0)
(0.000482542 0.00291051 0)
(0.00030171 0.00539859 0)
(-0.000104701 0.00635251 0)
(-0.00108079 0.00657348 0)
(0.000218661 0.00606118 0)
(0.00160936 0.00372517 0)
(0.00117309 0.00139088 0)
(0.00129832 -0.000310773 0)
(0.000595368 -0.00016095 0)
(0.000503033 -0.000589164 0)
(-0.000248801 0.00158397 0)
(-0.00122707 0.0014188 0)
(-0.000310045 0.00158072 0)
(-0.00037126 0.00157413 0)
(0.000965901 0.00109698 0)
(0.00119879 -0.000496334 0)
(0.00172485 -0.001513 0)
(0.00105243 -0.00193115 0)
(0.00299955 -0.00275964 0)
(0.00278857 -0.00295996 0)
(0.00195801 -0.00329223 0)
(0.00172976 -0.00478878 0)
(0.00233198 -0.00415324 0)
(0.00207399 -0.00387761 0)
(0.00141143 -0.00363583 0)
(6.45635e-05 -0.00346894 0)
(0.000123554 -0.0044032 0)
(-0.000290129 -0.00476539 0)
(-0.000440254 -0.00567505 0)
(-0.000496037 -0.00650659 0)
(-0.000876947 -0.00731832 0)
(-0.00100529 -0.0075685 0)
(-0.00115307 -0.00750238 0)
(-0.00116849 -0.00717401 0)
(-0.00107788 -0.00686972 0)
(-0.000957923 -0.00656423 0)
(-0.000945247 -0.00616379 0)
(-0.00107509 -0.0055339 0)
(-0.00140547 -0.00456292 0)
(-0.00177662 -0.00333952 0)
(-0.00181528 -0.00200656 0)
(-0.00134315 -0.00081832 0)
(-0.000107123 -0.000259061 0)
(0.00143527 -0.000815167 0)
(0.00267606 -0.00229603 0)
(0.00338275 -0.00435943 0)
(0.00331879 -0.00629102 0)
(0.00262971 -0.00713382 0)
(0.0020401 -0.0083232 0)
(0.000371096 -0.00732299 0)
(-0.00374138 -0.00193259 0)
(0.000908593 -0.000138244 0)
(0.00194858 -0.00282029 0)
(0.00167322 -0.00443967 0)
(0.000416464 -0.00383916 0)
(0.000249335 -0.00427367 0)
(-0.00033936 -0.00497269 0)
(-3.27107e-05 -0.00434914 0)
(0.000201437 -0.00347901 0)
(-0.00051765 -0.0011103 0)
(-0.000444422 -0.00039154 0)
(0.00123333 0.00143486 0)
(0.00095575 0.00239359 0)
(0.00157895 0.00165465 0)
(-0.000614925 0.00204966 0)
(-0.000347613 0.00140748 0)
(-0.000443971 0.00118285 0)
(-0.00227256 -0.000431599 0)
(6.98253e-06 -0.000726896 0)
(-0.000983421 -0.00183677 0)
(0.00201612 -0.00225375 0)
(0.00038124 -0.00422612 0)
(-0.00091062 -0.000541608 0)
(0.0020352 -0.00363227 0)
(0.0010601 -0.00992192 0)
(0.000335536 -0.0104047 0)
(0.000576611 -0.0101347 0)
(0.000761908 -0.0100382 0)
(0.000523444 -0.00619412 0)
(0.00093138 -0.00633316 0)
(0.00223442 -0.0070802 0)
(0.00190616 -0.0072889 0)
(0.00121953 -0.0050401 0)
(-0.00102233 -0.00625055 0)
(-0.00161532 -0.00640567 0)
(-0.00160258 -0.00550009 0)
(-0.00140403 -0.00513948 0)
(-0.000345847 -0.00829329 0)
(-0.00115688 -0.00886604 0)
(0.00347681 -0.00879397 0)
(0.0020317 -0.010166 0)
(0.00290292 -0.0115242 0)
(0.00197743 -0.011464 0)
(0.00184819 -0.0108621 0)
(0.00279499 -0.0112096 0)
(0.00124454 -0.0104263 0)
(0.0014383 -0.00945628 0)
(0.00107957 -0.00879425 0)
(0.000732419 -0.00835219 0)
(0.000658741 -0.00770107 0)
(-0.000101117 -0.00742415 0)
(0.00025086 -0.00750534 0)
(0.000446671 -0.00781885 0)
(0.000620613 -0.00853445 0)
(0.000576075 -0.00935134 0)
(-6.11305e-05 -0.0102761 0)
(-0.000634149 -0.0109209 0)
(-0.000919845 -0.011135 0)
(-0.00101024 -0.0112161 0)
(-0.00100577 -0.0112875 0)
(-0.00104992 -0.0113028 0)
(-0.00138544 -0.0110901 0)
(-0.00200793 -0.0104269 0)
(-0.00262138 -0.00956446 0)
(-0.00289531 -0.00890977 0)
(-0.00264193 -0.00840321 0)
(-0.00157853 -0.00826555 0)
(0.000695255 -0.0084645 0)
(0.0032134 -0.00892028 0)
(0.00418218 -0.00930678 0)
(0.00433232 -0.00938052 0)
(0.00334989 -0.00877855 0)
(0.00227945 -0.00827492 0)
(0.00155835 -0.00898133 0)
(0.000214107 -0.00762809 0)
(-0.00403785 -0.00412072 0)
(-0.000390544 -0.00107932 0)
(0.00185751 -0.00523394 0)
(0.00227768 -0.00680802 0)
(0.00288271 -0.00604016 0)
(0.000408982 -0.00518366 0)
(0.00028566 -0.00572023 0)
(-0.000642293 -0.00413546 0)
(-0.00094672 -0.00370709 0)
(-0.00071399 -0.00422583 0)
(-0.00252599 -0.00361495 0)
(0.00226273 -0.00497418 0)
(-0.000505562 -0.00464781 0)
(-0.000289812 -0.00424927 0)
(-0.00153077 -0.00335587 0)
(0.00153436 -0.00384029 0)
(0.00107047 -0.00673808 0)
(-0.000598738 -0.00731421 0)
(0.0035015 -0.00878723 0)
(0.00205038 -0.0103522 0)
(0.00259115 -0.0125035 0)
(0.00273572 -0.0155045 0)
(0.00290491 -0.00862788 0)
(-0.000956991 -0.00644206 0)
(-0.00135913 -0.0120141 0)
(-0.000383807 -0.0123821 0)
(-0.00111453 -0.0102948 0)
(-0.000434583 -0.0107556 0)
(-0.000714955 -0.00959529 0)
(0.000834074 -0.00806407 0)
(-3.08071e-05 -0.00747088 0)
(0.000627268 -0.00720319 0)
(9.92498e-05 -0.00755855 0)
(-0.000254245 -0.0084471 0)
(0.00086007 -0.00825446 0)
(0.00159693 -0.0090708 0)
(0.0015166 -0.00905285 0)
(0.0021679 -0.00933524 0)
(0.000956516 -0.0062682 0)
(0.00250099 -0.00737984 0)
(0.00193283 -0.0119085 0)
(0.0014838 -0.0103316 0)
(0.00240543 -0.0105474 0)
(0.000686347 -0.00906788 0)
(0.000895984 -0.00880909 0)
(0.000997371 -0.00864082 0)
(0.00112896 -0.00823581 0)
(0.000974781 -0.00789073 0)
(0.00061334 -0.00756423 0)
(0.000250323 -0.00740756 0)
(0.000114926 -0.00739423 0)
(0.000430807 -0.00759723 0)
(0.000895951 -0.00793765 0)
(0.00122868 -0.00844206 0)
(0.00124854 -0.00915774 0)
(0.000735142 -0.0100428 0)
(-8.4963e-05 -0.0110836 0)
(-0.00078426 -0.0118005 0)
(-0.000956157 -0.0122455 0)
(-0.000893804 -0.0125991 0)
(-0.00104597 -0.0127185 0)
(-0.00170761 -0.0125023 0)
(-0.00260015 -0.0118088 0)
(-0.00300571 -0.0113382 0)
(-0.00303092 -0.0111143 0)
(-0.0025715 -0.0110688 0)
(-0.00123642 -0.0116393 0)
(0.000842506 -0.0121531 0)
(0.00270902 -0.0118195 0)
(0.00344478 -0.0112913 0)
(0.00337074 -0.0103968 0)
(0.00240686 -0.00910973 0)
(0.00178497 -0.00862195 0)
(0.00115669 -0.00920076 0)
(-3.76222e-05 -0.00792042 0)
(0.00156619 -0.0034008 0)
(-0.00220706 0.000714484 0)
(-0.00288849 -0.00549053 0)
(-0.00329235 -0.00744992 0)
(0.00052141 -0.00600682 0)
(-0.000518674 -0.00506775 0)
(-0.00072024 -0.00387935 0)
(-0.000473887 -0.00562741 0)
(-0.00109049 -0.00444833 0)
(0.00051297 -0.00569069 0)
(5.71932e-06 -0.00317617 0)
(-0.000158913 -0.0018412 0)
(0.00140753 -0.00819335 0)
(0.00023175 -0.00900313 0)
(0.000966972 -0.00658054 0)
(0.00143318 -0.00598792 0)
(0.000814401 -0.0111069 0)
(0.0022783 -0.00739201 0)
(0.00105829 -0.00725219 0)
(0.00325507 -0.0111697 0)
(0.00130892 -0.00973203 0)
(0.00108298 -0.00773723 0)
(0.00364907 -0.00539814 0)
(-0.00181747 -0.00630542 0)
(-0.00141122 -0.00752849 0)
(-0.00168129 -0.00809237 0)
(0.000316196 -0.00893424 0)
(-0.000672704 -0.00992245 0)
(-0.00019112 -0.00695478 0)
(-0.00209019 -0.00485654 0)
(0.00208327 -0.00837822 0)
(0.000825022 -0.0107362 0)
(0.00112857 -0.011422 0)
(0.00095481 -0.0113895 0)
(-0.000450043 -0.0101003 0)
(-0.00107612 -0.00854566 0)
(-0.000600014 -0.00503015 0)
(0.00444347 -0.00539998 0)
(0.00449677 -0.00385161 0)
(0.000369196 -0.00375359 0)
(0.00166352 -0.00776694 0)
(0.000693994 -0.00781446 0)
(0.00183312 -0.00713448 0)
(0.00123479 -0.00693579 0)
(0.00113309 -0.00641759 0)
(0.00108849 -0.00641432 0)
(0.000750788 -0.00634626 0)
(0.00066595 -0.00601403 0)
(0.000425502 -0.00595096 0)
(0.000281117 -0.00606784 0)
(0.000323089 -0.00631899 0)
(0.000684179 -0.0067633 0)
(0.00128694 -0.0071737 0)
(0.00181911 -0.00760443 0)
(0.00209661 -0.00821617 0)
(0.00176321 -0.00902185 0)
(0.00106096 -0.0100739 0)
(0.000248329 -0.0111688 0)
(-0.000316433 -0.0121694 0)
(-0.000624826 -0.0127296 0)
(-0.00112021 -0.0128203 0)
(-0.00229583 -0.0123393 0)
(-0.00314254 -0.0118111 0)
(-0.00331783 -0.0115549 0)
(-0.00314789 -0.0113668 0)
(-0.00222846 -0.0115299 0)
(-0.000659353 -0.012106 0)
(0.000935232 -0.0123974 0)
(0.00208648 -0.0119028 0)
(0.00255603 -0.0110077 0)
(0.00222479 -0.00994036 0)
(0.00165863 -0.00899419 0)
(0.00134356 -0.00863962 0)
(0.000838575 -0.0092351 0)
(-0.000109456 -0.00816149 0)
(0.00354755 -0.00535535 0)
(-0.00038874 -0.00317342 0)
(-0.00294459 -0.00437482 0)
(-0.00102633 -0.00219069 0)
(-0.000456604 -0.00330602 0)
(-0.00041423 -0.00735585 0)
(-0.00207504 -0.00653628 0)
(-0.00174906 -0.00592383 0)
(-0.00133208 -0.00579128 0)
(0.000750621 -0.00594333 0)
(0.00231936 -0.00602159 0)
(0.000284344 -0.00643688 0)
(0.000400892 -0.00907401 0)
(0.001651 -0.0105833 0)
(0.00331224 -0.00905373 0)
(0.000478494 -0.00966995 0)
(0.000818514 -0.0122509 0)
(0.00213736 -0.0118204 0)
(-0.00280808 -0.00869871 0)
(-0.000134566 -0.00627869 0)
(0.00334601 -0.0100919 0)
(0.00203457 -0.00825701 0)
(-0.000124281 -0.00785976 0)
(-0.00115238 -0.00794787 0)
(-0.000277202 -0.0081591 0)
(-0.000836255 -0.00865 0)
(-0.000366954 -0.00746814 0)
(0.00175173 -0.00983662 0)
(0.00197297 -0.00934345 0)
(-0.000173926 -0.00666085 0)
(0.00116072 -0.00522185 0)
(-0.000484999 -0.00969785 0)
(0.000491025 -0.00965058 0)
(-0.000349593 -0.0125305 0)
(-0.00040487 -0.0131259 0)
(-0.00156457 -0.0119685 0)
(-0.000194165 -0.00652844 0)
(0.00204858 -0.00739065 0)
(0.00320665 -0.0103652 0)
(0.00148455 -0.00723587 0)
(0.000818631 -0.00612227 0)
(0.00165956 -0.0070383 0)
(0.00145616 -0.00653462 0)
(0.00139292 -0.0064136 0)
(0.000827862 -0.00565691 0)
(0.00069932 -0.00565085 0)
(0.000561803 -0.0056056 0)
(0.000602871 -0.00543551 0)
(0.000483749 -0.00554036 0)
(0.000532135 -0.00568981 0)
(0.000779213 -0.00591427 0)
(0.00111395 -0.00635848 0)
(0.00166153 -0.0066636 0)
(0.00231944 -0.00712306 0)
(0.00266478 -0.00733546 0)
(0.0025662 -0.00773331 0)
(0.00204351 -0.00836881 0)
(0.00130448 -0.00909597 0)
(0.000559874 -0.00995977 0)
(-0.000253115 -0.0106961 0)
(-0.00136361 -0.0109792 0)
(-0.00282552 -0.0106542 0)
(-0.00340003 -0.0104515 0)
(-0.00347833 -0.0104097 0)
(-0.00308342 -0.0105263 0)
(-0.00188669 -0.0109561 0)
(-0.000396906 -0.0113959 0)
(0.000736785 -0.0114515 0)
(0.00134985 -0.0109821 0)
(0.00155381 -0.0101822 0)
(0.00147722 -0.00945896 0)
(0.00118974 -0.00881572 0)
(0.000973221 -0.00856396 0)
(0.000600291 -0.00929344 0)
(-0.000110944 -0.00830333 0)
(0.00041573 -0.00678754 0)
(-8.58286e-05 -0.00786038 0)
(-0.00138573 -0.00771724 0)
(-0.000806533 -0.00693479 0)
(-0.00373047 -0.00776444 0)
(-0.00282229 -0.0100439 0)
(-0.0014034 -0.0105436 0)
(-0.00122315 -0.0111044 0)
(0.000747525 -0.0104706 0)
(0.00267727 -0.0133554 0)
(0.00313893 -0.0153687 0)
(0.00271716 -0.014494 0)
(0.00278151 -0.0137385 0)
(0.00257758 -0.011542 0)
(0.00290152 -0.0118286 0)
(0.000971979 -0.010435 0)
(0.00114526 -0.0101148 0)
(0.00133218 -0.0108223 0)
(0.00199677 -0.00988399 0)
(-0.000156155 -0.0057995 0)
(-0.000393279 -0.00756257 0)
(-0.000187266 -0.0107094 0)
(-0.00207294 -0.00960556 0)
(-0.00101855 -0.00957945 0)
(-0.00131653 -0.0103418 0)
(0.000705474 -0.0108857 0)
(-0.000720617 -0.00906218 0)
(0.00235209 -0.00924225 0)
(0.00105778 -0.00881025 0)
(0.00334214 -0.00583711 0)
(-0.000736216 -0.00695637 0)
(5.03045e-05 -0.00915695 0)
(-0.000602991 -0.00993411 0)
(0.00112211 -0.0122468 0)
(0.00106791 -0.0125932 0)
(0.00206443 -0.0135089 0)
(0.000202882 -0.0113723 0)
(-0.000512658 -0.0127236 0)
(-0.00150529 -0.013848 0)
(0.000331411 -0.0128184 0)
(-0.000382748 -0.0117612 0)
(0.000989372 -0.0100513 0)
(0.000814241 -0.010261 0)
(0.000857329 -0.00997017 0)
(0.000793275 -0.00882412 0)
(0.000618819 -0.00842721 0)
(0.000659325 -0.00821734 0)
(0.000636113 -0.00785882 0)
(0.000594965 -0.00779598 0)
(0.000719546 -0.00765963 0)
(0.00105097 -0.00752965 0)
(0.00154508 -0.00759654 0)
(0.00209261 -0.00748832 0)
(0.00259015 -0.00749441 0)
(0.00276495 -0.00739899 0)
(0.00274167 -0.00737347 0)
(0.00242838 -0.00738093 0)
(0.00189909 -0.00753334 0)
(0.00128167 -0.00789118 0)
(0.000398642 -0.00837175 0)
(-0.0010115 -0.00873578 0)
(-0.00265539 -0.00900728 0)
(-0.00323959 -0.0092263 0)
(-0.00326443 -0.00947842 0)
(-0.00267076 -0.00985287 0)
(-0.00145973 -0.0103132 0)
(-0.000260014 -0.0106252 0)
(0.000451966 -0.0105246 0)
(0.000832968 -0.0101242 0)
(0.0010411 -0.00966925 0)
(0.00104405 -0.00922842 0)
(0.000880241 -0.00874126 0)
(0.00073076 -0.00855484 0)
(0.000454792 -0.00938204 0)
(-9.38327e-05 -0.0083963 0)
(-0.000460356 -0.0103458 0)
(-7.36078e-05 -0.00946419 0)
(2.92135e-05 -0.00959207 0)
(-0.000269777 -0.0100287 0)
(-0.00161048 -0.0105146 0)
(-0.00071858 -0.0138917 0)
(0.00196618 -0.0175666 0)
(0.000993369 -0.0201233 0)
(0.00197468 -0.0208288 0)
(4.75711e-05 -0.0210015 0)
(0.00154912 -0.0196439 0)
(8.23472e-05 -0.0163252 0)
(0.00100529 -0.0151005 0)
(0.00184797 -0.0136269 0)
(0.0012222 -0.0115516 0)
(0.00121031 -0.0106494 0)
(0.00159352 -0.0107884 0)
(0.00150641 -0.0105086 0)
(0.00168016 -0.00922153 0)
(0.0010772 -0.00850672 0)
(-0.00234164 -0.0089469 0)
(-0.000619789 -0.00923944 0)
(6.43738e-06 -0.0110869 0)
(-0.00118857 -0.0119777 0)
(-0.000527971 -0.0119396 0)
(-0.000470165 -0.0115666 0)
(-0.000919724 -0.00856064 0)
(0.000985035 -0.00860854 0)
(0.00242141 -0.0107299 0)
(0.00211768 -0.00901604 0)
(-0.000542208 -0.00848216 0)
(0.00199414 -0.00807316 0)
(0.00148618 -0.00694064 0)
(0.00242468 -0.00891306 0)
(0.00104533 -0.0116489 0)
(0.00177422 -0.0127985 0)
(0.00141597 -0.00839826 0)
(0.000812316 -0.0100215 0)
(0.000117159 -0.015628 0)
(-0.000606127 -0.0150986 0)
(8.52414e-05 -0.0141905 0)
(-0.000274535 -0.0138806 0)
(-0.000561871 -0.0138241 0)
(-0.000297833 -0.0133348 0)
(-0.000179728 -0.0123217 0)
(0.000173402 -0.0119336 0)
(0.000269207 -0.0115829 0)
(0.000157806 -0.0112372 0)
(0.000155468 -0.0111367 0)
(0.000342119 -0.0109395 0)
(0.000572152 -0.0107824 0)
(0.00103535 -0.010433 0)
(0.00156905 -0.00981445 0)
(0.00209247 -0.00912311 0)
(0.00255582 -0.00827544 0)
(0.00259999 -0.00770378 0)
(0.00227852 -0.00724926 0)
(0.00184945 -0.0069787 0)
(0.00138983 -0.00693608 0)
(0.000602531 -0.00717699 0)
(-0.000697231 -0.00753155 0)
(-0.0022171 -0.00817778 0)
(-0.00288755 -0.00870947 0)
(-0.00290144 -0.0091342 0)
(-0.00225182 -0.00950603 0)
(-0.00109912 -0.00982625 0)
(-0.000214712 -0.00999187 0)
(0.000223921 -0.00988382 0)
(0.000529295 -0.00963842 0)
(0.000752025 -0.00937318 0)
(0.000769419 -0.00908172 0)
(0.000653233 -0.00869824 0)
(0.000548463 -0.00855734 0)
(0.000344592 -0.00945483 0)
(-7.6047e-05 -0.00846354 0)
(-0.000798801 -0.0169041 0)
(0.000333381 -0.0172437 0)
(0.000316185 -0.0160742 0)
(-9.63471e-05 -0.0161816 0)
(-0.00238278 -0.0159361 0)
(7.07677e-05 -0.0158972 0)
(0.00426936 -0.0179834 0)
(0.00239058 -0.0194203 0)
(0.00201652 -0.0180516 0)
(7.44623e-06 -0.0175163 0)
(0.000572852 -0.0167745 0)
(-0.000230121 -0.0160396 0)
(-0.00198781 -0.012566 0)
(0.00231621 -0.0118885 0)
(-8.79088e-05 -0.0131384 0)
(-0.000805711 -0.00967154 0)
(0.00245413 -0.0097351 0)
(0.00156169 -0.0111406 0)
(0.00080142 -0.0107954 0)
(0.000696531 -0.0105495 0)
(-0.000703055 -0.0112037 0)
(-0.00151068 -0.0109688 0)
(-0.000931487 -0.0137173 0)
(3.76983e-05 -0.0130442 0)
(-0.000274729 -0.0123048 0)
(-0.000969646 -0.0135655 0)
(-0.00159416 -0.0105125 0)
(0.00146182 -0.00865031 0)
(3.44006e-05 -0.00969394 0)
(0.000398965 -0.0103205 0)
(-4.77113e-05 -0.00777769 0)
(0.00128934 -0.00608232 0)
(0.00402945 -0.0065888 0)
(0.0035558 -0.0077144 0)
(0.00237992 -0.00779039 0)
(0.00216339 -0.00763086 0)
(0.00437451 -0.00529421 0)
(-0.000326306 -0.00709681 0)
(0.000706272 -0.00916515 0)
(0.000245303 -0.00824019 0)
(-0.000137384 -0.00875616 0)
(-0.0012504 -0.00922325 0)
(-0.000539595 -0.00944433 0)
(-0.000680128 -0.00929269 0)
(-0.000371096 -0.00919653 0)
(-2.21184e-05 -0.0092103 0)
(0.00014441 -0.00927519 0)
(9.77588e-05 -0.00928976 0)
(0.000226963 -0.00962657 0)
(0.000404225 -0.00989337 0)
(0.000598233 -0.0103318 0)
(0.000737564 -0.0104644 0)
(0.0009617 -0.0103277 0)
(0.00117822 -0.00988155 0)
(0.00148093 -0.00904879 0)
(0.00166468 -0.0080598 0)
(0.00166087 -0.00708583 0)
(0.00154873 -0.00640536 0)
(0.00140652 -0.00614766 0)
(0.000949909 -0.00620546 0)
(-6.91223e-05 -0.00662067 0)
(-0.00149803 -0.00753096 0)
(-0.00240407 -0.00828936 0)
(-0.00254977 -0.00863429 0)
(-0.00202679 -0.00902007 0)
(-0.00094746 -0.00936116 0)
(-0.000245417 -0.00952541 0)
(7.27979e-05 -0.00953391 0)
(0.0003247 -0.0094249 0)
(0.00054342 -0.00922914 0)
(0.000561635 -0.00900224 0)
(0.000479025 -0.0086821 0)
(0.000406228 -0.00856877 0)
(0.000258269 -0.00951312 0)
(-5.87641e-05 -0.00851295 0)
(8.98765e-05 -0.0213118 0)
(0.000411971 -0.021897 0)
(0.000620529 -0.0217815 0)
(0.000276652 -0.0220408 0)
(0.000666423 -0.0172024 0)
(0.00119853 -0.0104542 0)
(0.000252965 -0.0144819 0)
(0.00210005 -0.0164724 0)
(-0.00128601 -0.0137344 0)
(0.00012422 -0.0138866 0)
(0.000532378 -0.0138074 0)
(-0.000574386 -0.0147198 0)
(-0.000288847 -0.0104275 0)
(-0.00166979 -0.0102344 0)
(0.000845007 -0.014629 0)
(0.000393663 -0.00821369 0)
(4.78701e-05 -0.00874918 0)
(0.000218949 -0.0123766 0)
(0.002136 -0.010323 0)
(0.000247136 -0.0104502 0)
(0.00112324 -0.0121351 0)
(-0.00125771 -0.0110808 0)
(-0.00285043 -0.010247 0)
(0.00215225 -0.01227 0)
(-0.000875911 -0.013656 0)
(-0.00127256 -0.0146042 0)
(0.000164646 -0.00807803 0)
(-0.00037235 -0.00922463 0)
(-0.00172289 -0.0134538 0)
(-9.44002e-05 -0.0110054 0)
(0.000441593 -0.00962167 0)
(0.000887028 -0.00527373 0)
(0.000836649 -0.00547017 0)
(0.00326413 -0.00875311 0)
(0.00139773 -0.00863266 0)
(0.00210209 -0.00427048 0)
(0.00215102 -0.00411091 0)
(-0.000180459 -0.00592293 0)
(0.00182627 -0.00496281 0)
(-2.03249e-05 -0.00404523 0)
(-0.000351209 -0.00582144 0)
(-0.00118598 -0.00714284 0)
(-0.000351255 -0.00904034 0)
(-0.000380069 -0.00967781 0)
(8.90464e-05 -0.00954694 0)
(8.22251e-05 -0.00961735 0)
(0.000435899 -0.00956234 0)
(0.000563456 -0.00986521 0)
(0.00072274 -0.00995064 0)
(0.000987349 -0.0101254 0)
(0.00102211 -0.0102037 0)
(0.00096437 -0.0101558 0)
(0.000872443 -0.00989672 0)
(0.00075809 -0.00936162 0)
(0.000651484 -0.00850233 0)
(0.000559589 -0.00740812 0)
(0.000642164 -0.00625733 0)
(0.000920963 -0.00522933 0)
(0.00117582 -0.00467056 0)
(0.00112999 -0.00452611 0)
(0.000571158 -0.00463007 0)
(-0.000470341 -0.0053212 0)
(-0.00162305 -0.00628246 0)
(-0.00211651 -0.00721968 0)
(-0.00158604 -0.00812604 0)
(-0.000578628 -0.00880901 0)
(-8.57345e-05 -0.00906007 0)
(0.000107874 -0.00919913 0)
(0.000242356 -0.00923641 0)
(0.000409372 -0.00912641 0)
(0.00042371 -0.00892595 0)
(0.000346809 -0.00866352 0)
(0.000297703 -0.00857254 0)
(0.00019116 -0.00955554 0)
(-4.45373e-05 -0.00854996 0)
(-0.000159083 -0.0152403 0)
(-0.00153256 -0.0217698 0)
(-0.00186325 -0.0225056 0)
(-0.00116578 -0.022777 0)
(-0.000146053 -0.0192122 0)
(-0.000762493 -0.0158459 0)
(-0.00394374 -0.014844 0)
(-0.000150226 -0.0162802 0)
(0.00126856 -0.016781 0)
(0.00180331 -0.0144496 0)
(0.00194078 -0.0150621 0)
(0.000781141 -0.0152772 0)
(0.002035 -0.0135264 0)
(-0.000917369 -0.0120324 0)
(0.00118963 -0.0122886 0)
(0.0009404 -0.0122748 0)
(-0.00194041 -0.010388 0)
(0.000658974 -0.00865463 0)
(0.000310839 -0.00973287 0)
(0.000402674 -0.00840737 0)
(-0.000430506 -0.00683367 0)
(0.000190899 -0.00845439 0)
(0.00158426 -0.00407634 0)
(-3.042e-05 -0.00720487 0)
(-0.000523361 -0.012759 0)
(9.06144e-05 -0.0118213 0)
(0.000927049 -0.0100474 0)
(-0.00369826 -0.0118719 0)
(-0.00103579 -0.0118098 0)
(-0.00194569 -0.0107532 0)
(0.00323019 -0.00982213 0)
(0.00200974 -0.0088237 0)
(-0.000615385 -0.00784098 0)
(-0.00226949 -0.00849653 0)
(-0.000865024 -0.00921386 0)
(0.00167553 -0.00517073 0)
(0.00107053 -0.0048117 0)
(0.00134904 -0.00382237 0)
(0.00138113 -0.00366812 0)
(0.00215769 -0.00391206 0)
(0.00119978 -0.00364271 0)
(0.000386197 -0.00458461 0)
(0.000664551 -0.00709034 0)
(0.000287282 -0.00967028 0)
(0.000741817 -0.010433 0)
(0.000133629 -0.010563 0)
(0.000296651 -0.0107482 0)
(0.000325392 -0.010842 0)
(0.000587093 -0.0109676 0)
(0.000678046 -0.010923 0)
(0.000693915 -0.0107335 0)
(0.000501066 -0.0103749 0)
(0.000235481 -0.0099032 0)
(-0.000124493 -0.0090288 0)
(-0.000449637 -0.00786602 0)
(-0.00065514 -0.00677625 0)
(-0.000479786 -0.00564814 0)
(-4.10418e-05 -0.00479094 0)
(0.000617481 -0.00406408 0)
(0.000940135 -0.00375928 0)
(0.000820542 -0.00376311 0)
(0.000301081 -0.0041544 0)
(-0.000401966 -0.00505221 0)
(-0.000755576 -0.00641671 0)
(-0.000495859 -0.00793528 0)
(-5.77305e-05 -0.00876408 0)
(0.000159965 -0.00903244 0)
(0.000204213 -0.00915176 0)
(0.000222727 -0.00917479 0)
(0.000277135 -0.00910356 0)
(0.000282183 -0.00888816 0)
(0.000246595 -0.00865642 0)
(0.000212547 -0.00857898 0)
(0.000139512 -0.00958912 0)
(-3.1812e-05 -0.00857761 0)
(0.00130973 -0.00653856 0)
(0.000944008 -0.00901985 0)
(0.000226158 -0.00836353 0)
(-0.000511938 -0.01024 0)
(-0.00110044 -0.0102786 0)
(-0.00102323 -0.0100194 0)
(-0.00122645 -0.0130672 0)
(-0.00324444 -0.0105226 0)
(-0.00145355 -0.0103467 0)
(0.00161958 -0.00996057 0)
(-0.000966443 -0.0100126 0)
(-0.000780356 -0.0107829 0)
(-0.000442867 -0.0101523 0)
(-0.00130107 -0.00914654 0)
(-0.00273184 -0.0106157 0)
(-0.00133586 -0.0105059 0)
(-0.0014959 -0.00892721 0)
(3.2184e-05 -0.00928822 0)
(-0.00214195 -0.0109588 0)
(0.00028131 -0.00971312 0)
(0.000102694 -0.00794518 0)
(0.00156283 -0.00347149 0)
(0.00262206 -0.00392151 0)
(-0.00202353 -0.00758712 0)
(0.000361424 -0.00767563 0)
(0.00129238 -0.00948309 0)
(-0.000574502 -0.00923812 0)
(-0.00158168 -0.0106837 0)
(-0.00129587 -0.0125957 0)
(-0.00117872 -0.00810907 0)
(-0.00118762 -0.00804703 0)
(-0.000183609 -0.0104111 0)
(-0.000402032 -0.00908273 0)
(-0.00183584 -0.00898918 0)
(-0.000773143 -0.00717499 0)
(-0.000110221 -0.00606408 0)
(-0.000645393 -0.00739213 0)
(0.000414856 -0.00659443 0)
(0.000752763 -0.00539129 0)
(0.000876966 -0.00571691 0)
(-0.00035586 -0.00970583 0)
(0.00181803 -0.0109714 0)
(0.00231505 -0.0121037 0)
(0.00232329 -0.0130853 0)
(0.00154707 -0.0123722 0)
(0.00111428 -0.0127135 0)
(0.000902488 -0.0124116 0)
(0.000850515 -0.0124257 0)
(0.000881102 -0.0121531 0)
(0.000782741 -0.0118016 0)
(0.000647883 -0.0113693 0)
(0.000116976 -0.010653 0)
(-0.000544786 -0.00959102 0)
(-0.00127914 -0.00854032 0)
(-0.00162943 -0.00740859 0)
(-0.00166931 -0.00630175 0)
(-0.00134128 -0.00525725 0)
(-0.000667785 -0.00466017 0)
(0.00016978 -0.00411654 0)
(0.000755695 -0.00402246 0)
(0.000923854 -0.004287 0)
(0.000789385 -0.00491216 0)
(0.000635671 -0.00588839 0)
(0.000663533 -0.00722361 0)
(0.00067597 -0.00833614 0)
(0.000538658 -0.00880528 0)
(0.000339138 -0.00899373 0)
(0.000236314 -0.00907177 0)
(0.000203472 -0.00908909 0)
(0.000171468 -0.00902525 0)
(0.000164113 -0.0088463 0)
(0.00016713 -0.00864743 0)
(0.000144798 -0.00858136 0)
(9.97799e-05 -0.00961326 0)
(-2.13163e-05 -0.00859823 0)
(0.000288328 0.00353004 0)
(0.000385723 0.00375989 0)
(-0.000304757 0.00442101 0)
(-0.000846798 0.00557586 0)
(-0.000257245 0.00549598 0)
(0.000262132 0.00623823 0)
(-0.0014261 0.00560508 0)
(-0.00177962 0.00612411 0)
(0.000620255 0.00955957 0)
(0.00132698 0.00706951 0)
(0.000540953 -1.72069e-05 0)
(-0.000981831 -0.000360914 0)
(0.00041466 -0.00065085 0)
(-0.000947058 -0.00279655 0)
(-0.00059677 -0.00497718 0)
(0.000366593 -0.00693947 0)
(0.000129812 -0.00919411 0)
(0.000333613 -0.0119225 0)
(-0.000308304 -0.0135249 0)
(-0.000991949 -0.0109457 0)
(0.0024108 -0.00984041 0)
(0.00166625 -0.00876908 0)
(-0.00182567 -0.0093419 0)
(-0.000996282 -0.00832581 0)
(-0.0011218 -0.0074871 0)
(-0.00109861 -0.00894546 0)
(-0.000589537 -0.00836319 0)
(0.00024621 -0.00874892 0)
(-0.000368285 -0.00814725 0)
(0.000568545 -0.009251 0)
(-0.00181 -0.00914385 0)
(-0.000778779 -0.00845079 0)
(-0.00277182 -0.00780381 0)
(-0.000419981 -0.00589327 0)
(0.000521032 -0.00336022 0)
(-0.00107562 -0.00291849 0)
(-0.00106606 -0.0024846 0)
(-0.00158757 -0.00186874 0)
(0.00492272 -0.00337155 0)
(0.00376058 -0.00758274 0)
(0.00360218 -0.00980233 0)
(0.00252586 -0.0117389 0)
(0.00135449 -0.0138827 0)
(0.00137214 -0.0140008 0)
(0.000527532 -0.0138633 0)
(0.000377852 -0.0134277 0)
(-9.74842e-05 -0.0131254 0)
(-0.000135184 -0.0128457 0)
(-2.84992e-05 -0.0122046 0)
(-0.000135598 -0.0117013 0)
(-0.000576363 -0.0108671 0)
(-0.00119583 -0.0100619 0)
(-0.00188149 -0.00904386 0)
(-0.00247162 -0.00856593 0)
(-0.00278197 -0.0078536 0)
(-0.00279303 -0.00733545 0)
(-0.002299 -0.00664205 0)
(-0.00127705 -0.00609436 0)
(-3.71568e-05 -0.00561637 0)
(0.00111218 -0.00559422 0)
(0.0017763 -0.00603107 0)
(0.00194735 -0.00699568 0)
(0.00191143 -0.00798005 0)
(0.00158125 -0.00879252 0)
(0.000982779 -0.00907104 0)
(0.000592527 -0.00902068 0)
(0.000404594 -0.00899506 0)
(0.000262736 -0.00901794 0)
(0.000149387 -0.00903894 0)
(8.796e-05 -0.00897355 0)
(9.14498e-05 -0.00882987 0)
(9.75904e-05 -0.00864221 0)
(8.82659e-05 -0.00858641 0)
(6.60889e-05 -0.00963381 0)
(-1.31655e-05 -0.00861327 0)
(0.000256981 -0.00642217 0)
(-0.000478878 -0.00699805 0)
(-0.00108472 -0.007523 0)
(-0.00158526 -0.0077393 0)
(-0.00183972 -0.00580277 0)
(-0.000806115 -0.00546098 0)
(-0.000151759 -0.00893607 0)
(0.000671921 -0.00346076 0)
(0.0029525 -0.00440713 0)
(-0.00102588 -0.00911848 0)
(0.00018637 -0.0106774 0)
(0.00135691 -0.00945106 0)
(0.000404125 -0.00793064 0)
(-0.000772746 -0.00762916 0)
(0.00405836 -0.0069637 0)
(0.00297254 -0.0104634 0)
(0.00234456 -0.0108047 0)
(0.00177661 -0.0128068 0)
(0.00127009 -0.0149525 0)
(0.000816734 -0.00980685 0)
(-0.000213921 -0.00864208 0)
(-0.000536456 -0.0106551 0)
(-0.00135816 -0.0099571 0)
(-0.000328066 -0.0103818 0)
(-0.00130346 -0.00930879 0)
(-0.000441898 -0.00824086 0)
(0.000154683 -0.00615096 0)
(-0.00108722 -0.00750292 0)
(0.000181337 -0.00934604 0)
(-0.000225291 -0.00841853 0)
(-9.56405e-06 -0.00792236 0)
(-0.000597799 -0.0110109 0)
(0.000514683 -0.0101856 0)
(-0.00216535 -0.00801567 0)
(-0.00258015 -0.00811852 0)
(-0.00346097 -0.00648868 0)
(0.00173321 -0.00687594 0)
(0.00138934 -0.00286865 0)
(0.00296115 -0.00386784 0)
(0.00540004 -0.00844509 0)
(0.00615454 -0.00675062 0)
(0.00474003 -0.00649999 0)
(0.00309355 -0.00527179 0)
(0.00193128 -0.00566319 0)
(0.00118505 -0.00582112 0)
(0.000860341 -0.00641906 0)
(0.00033886 -0.00681546 0)
(7.63495e-05 -0.00746341 0)
(-0.000166018 -0.00787171 0)
(-0.000383089 -0.00803392 0)
(-0.00107961 -0.00805151 0)
(-0.00145323 -0.00815995 0)
(-0.00197487 -0.00839329 0)
(-0.00239047 -0.00893611 0)
(-0.00276031 -0.0094005 0)
(-0.00277049 -0.0096219 0)
(-0.00249585 -0.00968483 0)
(-0.00169004 -0.00957983 0)
(-0.000395455 -0.00923605 0)
(0.00133754 -0.00893126 0)
(0.00231054 -0.00897953 0)
(0.00254775 -0.0092046 0)
(0.00240191 -0.00939499 0)
(0.00173974 -0.00944169 0)
(0.000871626 -0.00925487 0)
(0.000514652 -0.00909909 0)
(0.000367975 -0.00899046 0)
(0.000258475 -0.00896337 0)
(0.000126764 -0.00896917 0)
(3.23884e-05 -0.00891414 0)
(2.79858e-05 -0.00878897 0)
(4.84436e-05 -0.00862352 0)
(5.05813e-05 -0.0085807 0)
(4.37762e-05 -0.00964528 0)
(-5.71443e-06 -0.00862408 0)
(0.000468695 -0.00969469 0)
(-0.000295819 -0.0102522 0)
(0.000334853 -0.011129 0)
(0.000547764 -0.0120263 0)
(0.000212378 -0.0105232 0)
(-0.00306176 -0.0086544 0)
(0.00264707 -0.0107056 0)
(0.00338084 -0.0109106 0)
(0.000649155 -0.00978029 0)
(-0.00154463 -0.010309 0)
(-8.64833e-05 -0.0105429 0)
(-0.000960741 -0.0111032 0)
(0.000648681 -0.0120022 0)
(0.000978128 -0.00727307 0)
(0.00124531 -0.00668182 0)
(0.000954253 -0.0108012 0)
(0.00113594 -0.00866703 0)
(0.00193806 -0.0093936 0)
(0.00266031 -0.00984517 0)
(0.00168107 -0.00780059 0)
(-0.0023381 -0.00918914 0)