/*--------------------------------*- C++ -*----------------------------------*\
  =========                 |
  \\      /  F ield         | OpenFOAM: The Open Source CFD Toolbox
   \\    /   O peration     | Website:  https://openfoam.org
    \\  /    A nd           | Version:  12
     \\/     M anipulation  |
\*---------------------------------------------------------------------------*/
FoamFile
{
    format      ascii;
    class       volVectorField;
    location    "0.7";
    object      U.water;
}
// * * * * * * * * * * * * * * * * * * * * * * * * * * * * * * * * * * * * * //

dimensions      [0 1 -1 0 0 0 0];

internalField   nonuniform List<vector> 
3750
(
(5.98489e-05 0.0103281 0)
(-0.00093475 0.0104444 0)
(0.000118039 0.0115245 0)
(-0.000330625 0.0113952 0)
(0.000885732 0.0110435 0)
(0.000200709 0.00988322 0)
(0.00185964 0.00949091 0)
(-3.82261e-05 0.00931769 0)
(-0.000319919 0.00709093 0)
(6.09233e-05 0.00703949 0)
(-0.000812796 0.00638273 0)
(-0.000138715 0.00676634 0)
(-0.00200155 0.00634801 0)
(-0.00235692 0.00836508 0)
(0.0014047 0.00889984 0)
(0.000721785 0.00800313 0)
(0.00143888 0.00802658 0)
(0.00142894 0.00709131 0)
(0.000692345 0.0063836 0)
(0.000644812 0.0053396 0)
(0.000740909 0.00525086 0)
(-0.000235369 0.00724968 0)
(-0.000776882 0.007029 0)
(-0.000138832 0.00758095 0)
(0.000559673 0.00934801 0)
(5.31838e-05 0.00810029 0)
(0.000678475 0.00739088 0)
(0.00142749 0.00624471 0)
(-0.000262775 0.006394 0)
(-0.00168198 0.00715346 0)
(0.000106 0.00773524 0)
(-0.00108958 0.00572498 0)
(-0.00180289 0.00677871 0)
(0.00048668 0.00530666 0)
(0.00245566 0.0110811 0)
(-0.00152823 0.011578 0)
(-0.00131145 0.00553699 0)
(-0.000812341 0.00541011 0)
(0.000956115 0.00663764 0)
(0.000536684 0.0057228 0)
(0.00084094 0.00336271 0)
(0.000559454 0.00212524 0)
(0.000512745 0.00172994 0)
(0.000615243 0.000293977 0)
(-0.000157835 -0.000282301 0)
(0.000531109 -0.000844944 0)
(0.000588936 -0.00335586 0)
(0.00132149 -0.00485489 0)
(0.00133367 -0.00508295 0)
(0.000292664 -0.00695111 0)
(-0.000422154 -0.00835573 0)
(-0.000491527 -0.00836806 0)
(-0.000871531 -0.00666896 0)
(-0.00103902 -0.00601827 0)
(-0.0010205 -0.00535568 0)
(-0.000965331 -0.00446515 0)
(-0.000684682 -0.00358785 0)
(-0.000537409 -0.00267077 0)
(-0.000298739 -0.00189191 0)
(-0.000315827 -0.00118619 0)
(-0.000332629 -0.000479904 0)
(-0.000345259 0.000138664 0)
(-0.000360966 0.000862568 0)
(-0.000349608 0.00161035 0)
(-0.000337412 0.00259551 0)
(-0.000227476 0.00361379 0)
(-1.35175e-06 0.00447239 0)
(0.000534707 0.00478085 0)
(0.000856657 0.00409237 0)
(0.000853098 0.00252415 0)
(0.000705824 0.000404315 0)
(0.000607822 -0.00146268 0)
(0.00105547 -0.00326558 0)
(0.000957003 -0.00590356 0)
(0.000488064 -0.00632309 0)
(-0.000758314 0.00546102 0)
(-0.000750768 0.00520986 0)
(-0.000472028 0.00585278 0)
(-0.000153846 0.00530389 0)
(-0.0011191 0.00536183 0)
(0.0004751 0.00645122 0)
(0.00214542 0.00751324 0)
(0.00183603 0.00802557 0)
(0.0011007 0.00791316 0)
(0.00171699 0.00790951 0)
(-0.00107017 0.00881324 0)
(0.00306406 0.00666099 0)
(0.00172977 0.00205541 0)
(0.00114945 0.00569539 0)
(-0.00117162 0.005748 0)
(-0.00333824 0.00275501 0)
(-0.00091799 0.00652693 0)
(0.00146332 0.00607311 0)
(0.000562387 0.00610589 0)
(-0.000220842 0.00748819 0)
(-0.000685398 0.00662391 0)
(-0.00277298 0.00718808 0)
(-0.00130762 0.00725821 0)
(-0.000546354 0.00509418 0)
(-4.91153e-05 0.00495929 0)
(-0.000439895 0.00476118 0)
(0.000668604 0.0067879 0)
(0.00091251 0.00642912 0)
(-4.88009e-05 0.00514474 0)
(0.000793261 0.00913827 0)
(0.00118605 0.00693037 0)
(0.000108014 -2.79128e-05 0)
(-0.0010563 0.000580634 0)
(0.0028863 0.00199737 0)
(0.00374933 0.00273765 0)
(-0.00167792 0.00377695 0)
(-0.00215683 0.00130263 0)
(-0.00227152 0.00227771 0)
(0.00225214 0.00201242 0)
(0.000806981 0.000272152 0)
(0.00168833 -0.00104472 0)
(0.00162705 -0.00172686 0)
(0.0010832 -0.00207332 0)
(0.00255646 -0.00284996 0)
(0.00225112 -0.00330152 0)
(0.00182343 -0.003803 0)
(0.00168804 -0.00511376 0)
(0.00221264 -0.0044421 0)
(0.00197117 -0.00417215 0)
(0.00139831 -0.00391959 0)
(5.63669e-05 -0.00372821 0)
(5.86143e-05 -0.00462906 0)
(-0.000334244 -0.00498674 0)
(-0.000463809 -0.00588897 0)
(-0.000515868 -0.00670708 0)
(-0.000890332 -0.00749927 0)
(-0.00101517 -0.00773342 0)
(-0.00116088 -0.00765762 0)
(-0.00117311 -0.00732122 0)
(-0.00108102 -0.00701144 0)
(-0.000961695 -0.0067001 0)
(-0.000951019 -0.00629287 0)
(-0.00108384 -0.0056543 0)
(-0.00141514 -0.00467473 0)
(-0.00178289 -0.0034459 0)
(-0.00181609 -0.00211038 0)
(-0.00133703 -0.000924335 0)
(-9.86506e-05 -0.000369143 0)
(0.00143853 -0.000927689 0)
(0.00267196 -0.00240922 0)
(0.00337007 -0.00446932 0)
(0.00330501 -0.00639704 0)
(0.00261754 -0.0072322 0)
(0.00203328 -0.00841863 0)
(0.000370524 -0.00742582 0)
(-0.00138921 -0.00464508 0)
(-0.000349156 -0.00307467 0)
(-0.000702783 -0.00342206 0)
(-0.000194735 -0.00363566 0)
(-0.000155918 -0.00330866 0)
(-0.000246741 -0.00385076 0)
(-0.000607285 -0.00412534 0)
(0.000866259 -0.00352523 0)
(0.00109165 -0.0034985 0)
(0.000440773 -0.00257192 0)
(0.000720279 0.0025978 0)
(0.00170723 0.00415853 0)
(0.0017908 0.000219962 0)
(0.00382378 0.00180108 0)
(-0.00194878 0.000967545 0)
(-0.00129367 0.00256054 0)
(-0.000805142 0.00701746 0)
(-0.00212761 0.000422525 0)
(-0.00111842 -0.00365227 0)
(-0.00205378 -0.00318551 0)
(0.000809201 -0.00294861 0)
(-0.00173836 -0.00324648 0)
(0.00203737 -0.00329219 0)
(0.00125394 -0.00715497 0)
(0.000905482 -0.00913282 0)
(-0.000576671 -0.00780614 0)
(0.000356277 -0.00706286 0)
(0.00190762 -0.00876147 0)
(0.00285905 -0.00652661 0)
(0.004032 -0.00608616 0)
(0.000408698 -0.00677631 0)
(0.000588669 -0.0087535 0)
(0.000356741 -0.00144793 0)
(-0.00262034 -0.000886753 0)
(-0.000460168 -0.00451855 0)
(0.000606364 -0.00489174 0)
(-0.00100519 -0.00729983 0)
(-0.000521569 -0.00517735 0)
(0.000251901 -0.00730605 0)
(0.00202334 -0.0114218 0)
(0.00163649 -0.0102069 0)
(0.00270851 -0.012186 0)
(0.00189073 -0.0117123 0)
(0.00168432 -0.0110397 0)
(0.00245961 -0.0113062 0)
(0.00106373 -0.0106199 0)
(0.00130627 -0.0096844 0)
(0.000973305 -0.00903427 0)
(0.000649681 -0.00859493 0)
(0.000582279 -0.00792032 0)
(-0.000144561 -0.00763221 0)
(0.000211731 -0.0077094 0)
(0.000409777 -0.00802589 0)
(0.000588565 -0.00873644 0)
(0.000542782 -0.00954319 0)
(-9.35725e-05 -0.0104547 0)
(-0.000658349 -0.0110809 0)
(-0.000937416 -0.011283 0)
(-0.0010234 -0.011357 0)
(-0.00101635 -0.0114225 0)
(-0.0010624 -0.0114315 0)
(-0.00140254 -0.0112074 0)
(-0.0020265 -0.010533 0)
(-0.00263604 -0.00966736 0)
(-0.00290409 -0.00901071 0)
(-0.0026437 -0.00850214 0)
(-0.00156987 -0.00836646 0)
(0.000710939 -0.00856387 0)
(0.00321433 -0.00901788 0)
(0.0041728 -0.00940002 0)
(0.00431995 -0.00947358 0)
(0.00333387 -0.00887347 0)
(0.00226913 -0.00837138 0)
(0.0015543 -0.00907432 0)
(0.000213927 -0.0077297 0)
(-0.00158867 -0.00877009 0)
(-0.000691222 -0.0079421 0)
(-0.00276009 -0.00628708 0)
(0.000928688 -0.00410972 0)
(0.00327206 -0.00428519 0)
(0.000194784 -0.00450077 0)
(-0.00124837 -0.00394353 0)
(0.00192021 -0.00268074 0)
(0.000520185 -0.00363723 0)
(0.000963869 -0.00423039 0)
(0.00152587 -0.00351001 0)
(-0.000316146 -0.00483072 0)
(-0.00114604 -0.00445567 0)
(0.000244839 -0.00329015 0)
(0.000490161 -0.00355837 0)
(0.00311778 -0.00353002 0)
(0.000778166 -0.00421324 0)
(-0.00246455 -0.00777468 0)
(0.00061092 -0.0111758 0)
(0.000487241 -0.0116065 0)
(0.00135428 -0.0140527 0)
(0.00176374 -0.0115784 0)
(0.00164105 -0.00898315 0)
(-1.04338e-06 -0.0110703 0)
(-6.19342e-05 -0.0115986 0)
(0.000190385 -0.0108277 0)
(-0.00284939 -0.00690825 0)
(0.000734114 -0.00822706 0)
(0.00352597 -0.00906642 0)
(0.00318602 -0.00901514 0)
(-0.000837439 -0.00858045 0)
(-0.00122228 -0.00738393 0)
(0.00336217 -0.00690196 0)
(-0.00158639 -0.00439889 0)
(0.000970671 -0.00130222 0)
(0.00137018 -0.00768918 0)
(0.00167914 -0.0114937 0)
(0.00130247 -0.00768608 0)
(-2.33219e-05 -0.00726594 0)
(0.0023442 -0.0100604 0)
(0.000999981 -0.0112062 0)
(0.00118721 -0.0101764 0)
(0.00211834 -0.0105244 0)
(0.000527841 -0.00921961 0)
(0.000710679 -0.00897858 0)
(0.000825023 -0.00883111 0)
(0.000984723 -0.00845207 0)
(0.000855806 -0.00812499 0)
(0.000521577 -0.00780601 0)
(0.000182434 -0.00763651 0)
(5.62818e-05 -0.00760672 0)
(0.000376763 -0.00780095 0)
(0.000848878 -0.00813783 0)
(0.00118623 -0.00863852 0)
(0.00120537 -0.00934732 0)
(0.00069055 -0.0102251 0)
(-0.00012536 -0.0112542 0)
(-0.000811908 -0.0119555 0)
(-0.000974087 -0.0123924 0)
(-0.000910149 -0.0127332 0)
(-0.00106848 -0.0128441 0)
(-0.00173679 -0.0126124 0)
(-0.0026258 -0.0119106 0)
(-0.00302097 -0.0114392 0)
(-0.00304117 -0.0112143 0)
(-0.00257146 -0.0111728 0)
(-0.00122744 -0.011746 0)
(0.000853097 -0.012251 0)
(0.00270593 -0.0119126 0)
(0.00343525 -0.0113841 0)
(0.00335746 -0.0104888 0)
(0.00239502 -0.00920467 0)
(0.00177739 -0.00871774 0)
(0.00115363 -0.00929298 0)
(-3.69175e-05 -0.00802028 0)
(0.000240221 -0.00787837 0)
(-0.000577562 -0.00949668 0)
(-0.00121522 -0.00707465 0)
(-0.00254513 -0.00141048 0)
(-0.00332068 -0.00414674 0)
(3.21088e-05 -0.00653874 0)
(-0.00015417 -0.000369709 0)
(0.000365015 -0.00180757 0)
(-0.000285617 -0.00541574 0)
(0.00106784 -0.00482217 0)
(0.00128966 -0.0044878 0)
(0.000287815 -0.0038841 0)
(0.00101853 -0.00734448 0)
(-0.00150812 -0.00630024 0)
(0.00267449 -0.00671696 0)
(0.00287235 -0.00723042 0)
(0.00092069 -0.00869868 0)
(0.00129191 -0.00926599 0)
(0.000776833 -0.00969001 0)
(0.00298401 -0.0108607 0)
(0.000239783 -0.00990041 0)
(0.00123329 -0.00666582 0)
(-0.000475602 -0.00564621 0)
(-0.000696383 -0.00729365 0)
(-0.000515312 -0.00708152 0)
(0.000925364 -0.00862396 0)
(0.00140249 -0.00559767 0)
(0.000384064 -0.00280865 0)
(0.0013212 -0.00593873 0)
(0.000225819 -0.00961371 0)
(0.00131903 -0.0124096 0)
(0.00141448 -0.00828136 0)
(0.00182361 -0.00733736 0)
(0.00247366 -0.00918442 0)
(-0.000578933 -0.00688001 0)
(-0.00358204 -0.00766474 0)
(-0.000626563 -0.00755797 0)
(0.00190991 -0.00332601 0)
(0.00109703 -0.00160243 0)
(0.00135065 -0.0062607 0)
(0.00176253 -0.00798512 0)
(0.000580537 -0.00781213 0)
(0.00159622 -0.00720177 0)
(0.00103637 -0.00703469 0)
(0.000967696 -0.00658039 0)
(0.000935884 -0.00659815 0)
(0.000622829 -0.00654668 0)
(0.000553095 -0.00623268 0)
(0.000332533 -0.00617617 0)
(0.000206254 -0.00629006 0)
(0.000260551 -0.00653333 0)
(0.000627881 -0.00696728 0)
(0.00123559 -0.00736952 0)
(0.00177134 -0.00779473 0)
(0.00204702 -0.00840052 0)
(0.00171155 -0.00920022 0)
(0.00101062 -0.0102457 0)
(0.000205739 -0.0113305 0)
(-0.000349242 -0.0123169 0)
(-0.000654218 -0.0128617 0)
(-0.00115731 -0.0129367 0)
(-0.00233785 -0.0124423 0)
(-0.00316689 -0.0119154 0)
(-0.00333426 -0.0116583 0)
(-0.00315531 -0.0114698 0)
(-0.0022249 -0.011638 0)
(-0.000653529 -0.0122141 0)
(0.0009361 -0.0124962 0)
(0.00208151 -0.0119946 0)
(0.00254622 -0.0110999 0)
(0.00221239 -0.0100342 0)
(0.00164937 -0.00908998 0)
(0.00133691 -0.00873428 0)
(0.000835054 -0.00932729 0)
(-0.000108913 -0.0082594 0)
(0.00138342 -0.00736081 0)
(0.00124673 -0.0071717 0)
(0.00303879 -0.00628282 0)
(0.000642979 -0.00522444 0)
(-0.00294144 -0.00183654 0)
(-0.00318779 -0.00228387 0)
(0.000998465 -0.00448912 0)
(-0.00250876 -0.00430894 0)
(-0.00205823 -0.00605726 0)
(0.0010679 -0.00561903 0)
(0.0018849 -0.00591138 0)
(0.00213394 -0.00777078 0)
(0.00146739 -0.0110791 0)
(0.00182701 -0.00772475 0)
(0.00225383 -0.00605775 0)
(0.00186241 -0.0109338 0)
(0.000772773 -0.0120991 0)
(0.000694931 -0.012404 0)
(-0.00114513 -0.01008 0)
(0.000809219 -0.00803478 0)
(0.0010973 -0.0111426 0)
(0.000611647 -0.00755005 0)
(-0.00133915 -0.00713611 0)
(-0.000840993 -0.00736629 0)
(-0.00113636 -0.00625906 0)
(0.00389602 -0.00671818 0)
(0.00403603 -0.00563595 0)
(0.00227995 -0.00685314 0)
(-6.6322e-05 -0.00766095 0)
(-0.000100587 -0.0102287 0)
(0.00210647 -0.00812135 0)
(0.00212263 -0.00849077 0)
(-0.000429274 -0.00808267 0)
(-0.00108549 -0.00935194 0)
(-0.00100785 -0.0102354 0)
(-0.00333367 -0.0103626 0)
(0.000611556 -0.00911463 0)
(0.00193056 -0.00891724 0)
(-0.0022567 -0.00751605 0)
(0.00277046 -0.00627738 0)
(0.00117053 -0.00651225 0)
(0.00149892 -0.00726858 0)
(0.00118883 -0.00665159 0)
(0.00116876 -0.00648949 0)
(0.000676598 -0.00578188 0)
(0.00058133 -0.00580952 0)
(0.000461156 -0.00579166 0)
(0.000507129 -0.00564358 0)
(0.000396021 -0.00575521 0)
(0.000453238 -0.00590347 0)
(0.000707815 -0.00612336 0)
(0.00104987 -0.00655842 0)
(0.00160347 -0.00685491 0)
(0.00226477 -0.00730354 0)
(0.00260853 -0.00750672 0)
(0.0025091 -0.00790025 0)
(0.00198711 -0.00852993 0)
(0.00125207 -0.00925133 0)
(0.000511937 -0.0101065 0)
(-0.000299912 -0.0108297 0)
(-0.00141506 -0.0110961 0)
(-0.00286672 -0.0107634 0)
(-0.00342439 -0.0105615 0)
(-0.00349556 -0.0105182 0)
(-0.00308816 -0.0106369 0)
(-0.00188241 -0.0110671 0)
(-0.000395572 -0.0115018 0)
(0.000731162 -0.0115503 0)
(0.00134079 -0.0110755 0)
(0.00154396 -0.0102753 0)
(0.00146702 -0.0095539 0)
(0.00118097 -0.00891105 0)
(0.000966998 -0.00865772 0)
(0.000596777 -0.00938433 0)
(-0.000110817 -0.00839967 0)
(0.00175326 -0.00712622 0)
(0.00138172 -0.009853 0)
(0.00118388 -0.00936947 0)
(0.000684425 -0.00954257 0)
(0.000109963 -0.010409 0)
(-0.00489377 -0.00601717 0)
(-0.00255985 -0.00525778 0)
(-0.0032073 -0.0112802 0)
(-0.00171478 -0.0106054 0)
(0.00496439 -0.0123784 0)
(0.00361339 -0.0150533 0)
(0.00390073 -0.0149038 0)
(0.00414614 -0.0144492 0)
(0.00469394 -0.0107979 0)
(0.00122849 -0.0106148 0)
(0.000439356 -0.0106304 0)
(0.000434113 -0.010535 0)
(0.000260888 -0.0108252 0)
(0.00187601 -0.0100093 0)
(-0.00016919 -0.00941139 0)
(-0.000973997 -0.00992209 0)
(-0.00208419 -0.00863492 0)
(-0.000217412 -0.00832369 0)
(-0.000240174 -0.0102833 0)
(-0.00155573 -0.0054794 0)
(0.00426394 -0.00608878 0)
(0.00148755 -0.0098152 0)
(0.00236202 -0.00846997 0)
(0.00029448 -0.00822002 0)
(0.00225937 -0.00757237 0)
(0.00151706 -0.00848814 0)
(0.00160641 -0.00862506 0)
(9.46412e-05 -0.00930092 0)
(0.000825909 -0.00988161 0)
(-0.000616294 -0.0105704 0)
(-0.000976857 -0.0114947 0)
(0.00162895 -0.012525 0)
(8.96225e-05 -0.0170154 0)
(-0.00234813 -0.0100649 0)
(-0.00043122 -0.00923893 0)
(-0.000856949 -0.0133319 0)
(0.000508703 -0.0105839 0)
(0.00044734 -0.0103299 0)
(0.000664595 -0.00993364 0)
(0.000694523 -0.00886757 0)
(0.000547982 -0.00855218 0)
(0.000583855 -0.0083868 0)
(0.00055216 -0.00805619 0)
(0.000507536 -0.00799958 0)
(0.000634453 -0.00786036 0)
(0.000970533 -0.00772459 0)
(0.00146963 -0.0077814 0)
(0.00202257 -0.00766401 0)
(0.00252266 -0.00765951 0)
(0.00269981 -0.00755676 0)
(0.00267933 -0.00752413 0)
(0.00236784 -0.0075261 0)
(0.00184169 -0.00767459 0)
(0.00122617 -0.00802838 0)
(0.000341187 -0.00850275 0)
(-0.00107297 -0.00886069 0)
(-0.00270091 -0.00912777 0)
(-0.00326767 -0.00934357 0)
(-0.00328306 -0.00959449 0)
(-0.0026767 -0.00996604 0)
(-0.00146043 -0.0104224 0)
(-0.000265099 -0.0107273 0)
(0.000442081 -0.0106204 0)
(0.000822301 -0.0102178 0)
(0.00103091 -0.00976282 0)
(0.00103399 -0.00932231 0)
(0.000871683 -0.00883484 0)
(0.000724499 -0.00864681 0)
(0.000451059 -0.00947096 0)
(-9.40678e-05 -0.00849096 0)
(1.25174e-05 -0.00779934 0)
(0.00116767 -0.0122021 0)
(0.00161833 -0.0115517 0)
(0.00138426 -0.0117813 0)
(0.00226832 -0.0127221 0)
(0.00123508 -0.0141475 0)
(-0.00122717 -0.0157796 0)
(-0.00374879 -0.0200696 0)
(0.00262186 -0.0168418 0)
(0.00049225 -0.0175685 0)
(0.0014179 -0.0204483 0)
(0.00081282 -0.0166256 0)
(0.00185399 -0.0159531 0)
(0.00164664 -0.0136619 0)
(0.000567089 -0.0111312 0)
(0.000827795 -0.0108904 0)
(0.000295109 -0.0111253 0)
(0.000362169 -0.0105386 0)
(0.00065455 -0.00960837 0)
(3.41548e-05 -0.0107638 0)
(-0.00054458 -0.0119703 0)
(0.00108678 -0.00627025 0)
(0.00126292 -0.00792205 0)
(0.000372531 -0.0135472 0)
(0.00237306 -0.0071787 0)
(-0.00138427 -0.00703436 0)
(-0.000338157 -0.0102178 0)
(-0.000327964 -0.0085856 0)
(0.00169497 -0.0100939 0)
(0.00203266 -0.00922328 0)
(0.00152936 -0.00870043 0)
(0.00373347 -0.00835422 0)
(0.00143611 -0.00718044 0)
(0.00221016 -0.00810059 0)
(0.000264378 -0.0116027 0)
(0.00143538 -0.00825161 0)
(-0.000846753 -0.00724216 0)
(0.00164161 -0.013935 0)
(0.00182646 -0.0143775 0)
(-0.00320538 -0.0139533 0)
(-0.00137211 -0.0143493 0)
(-0.00117718 -0.0139021 0)
(-0.00105417 -0.0135792 0)
(-0.000357574 -0.0131016 0)
(-0.000140764 -0.0122896 0)
(0.000182324 -0.0120468 0)
(0.000228119 -0.0117588 0)
(8.55105e-05 -0.0114385 0)
(6.77084e-05 -0.0113375 0)
(0.000249346 -0.0111323 0)
(0.000482465 -0.010963 0)
(0.000951395 -0.010599 0)
(0.00149127 -0.00996812 0)
(0.00202101 -0.00926617 0)
(0.00248563 -0.00841321 0)
(0.00253012 -0.00783786 0)
(0.00221229 -0.00737949 0)
(0.00178867 -0.00710619 0)
(0.00133145 -0.00706214 0)
(0.000543118 -0.00730113 0)
(-0.000756646 -0.00765584 0)
(-0.00226648 -0.00830184 0)
(-0.0029197 -0.00882743 0)
(-0.00292319 -0.00924845 0)
(-0.00226227 -0.00961522 0)
(-0.00110596 -0.00993081 0)
(-0.000226708 -0.0100905 0)
(0.000211016 -0.00997836 0)
(0.000517667 -0.00973132 0)
(0.000740975 -0.00946577 0)
(0.000758744 -0.00917403 0)
(0.000644515 -0.00878988 0)
(0.000542046 -0.00864732 0)
(0.000340687 -0.00954163 0)
(-7.65712e-05 -0.00855626 0)
(-0.00378029 -0.0173554 0)
(0.000553385 -0.0180394 0)
(0.00114847 -0.0173103 0)
(0.00135023 -0.0165189 0)
(0.00191617 -0.0183348 0)
(0.00207181 -0.0192031 0)
(0.00149967 -0.0191814 0)
(0.000697942 -0.0156468 0)
(0.0023635 -0.0128283 0)
(-0.00226761 -0.0171835 0)
(-0.000235349 -0.0161165 0)
(-0.000453902 -0.0152984 0)
(-0.00105556 -0.0141646 0)
(0.000739916 -0.0125445 0)
(-0.000534751 -0.012021 0)
(-0.00052247 -0.0105476 0)
(0.000324803 -0.0109053 0)
(0.000455748 -0.010821 0)
(0.00034344 -0.0108824 0)
(0.000376751 -0.011394 0)
(-0.00055529 -0.011005 0)
(0.00409722 -0.00948287 0)
(-0.000257719 -0.0125041 0)
(0.000479024 -0.0120345 0)
(0.00196874 -0.00989878 0)
(-0.00289687 -0.0111127 0)
(-0.00134302 -0.0116434 0)
(-0.000389641 -0.00922506 0)
(-0.000683806 -0.00776744 0)
(0.00104375 -0.00920654 0)
(0.00124889 -0.00741442 0)
(0.00274061 -0.00743193 0)
(0.00253471 -0.0076863 0)
(0.00134968 -0.00595187 0)
(0.00455232 -0.0060031 0)
(0.00423674 -0.00698861 0)
(0.000637233 -0.00516506 0)
(0.000192989 -0.00743759 0)
(0.000848597 -0.00884294 0)
(-0.000934809 -0.00789864 0)
(-0.00146621 -0.0087501 0)
(-0.00242339 -0.00889448 0)
(-0.00132157 -0.00873743 0)
(-0.000286948 -0.00875495 0)
(-7.24215e-05 -0.00918976 0)
(8.15318e-05 -0.00942032 0)
(0.000125445 -0.00953303 0)
(2.25625e-05 -0.00954667 0)
(0.000126151 -0.00986565 0)
(0.000296154 -0.0101135 0)
(0.000489578 -0.010529 0)
(0.000634588 -0.010641 0)
(0.000867317 -0.0104861 0)
(0.00109353 -0.0100222 0)
(0.00140456 -0.00917645 0)
(0.00159415 -0.00817952 0)
(0.00159439 -0.00720241 0)
(0.00148725 -0.00652334 0)
(0.0013479 -0.00626491 0)
(0.000890884 -0.00632359 0)
(-0.000128682 -0.00674048 0)
(-0.0015521 -0.00765055 0)
(-0.00244111 -0.00839907 0)
(-0.00257693 -0.00874148 0)
(-0.00204129 -0.00912503 0)
(-0.000958121 -0.00946232 0)
(-0.000260651 -0.00962174 0)
(5.79964e-05 -0.00962715 0)
(0.000311999 -0.00951582 0)
(0.000531576 -0.00931943 0)
(0.000550512 -0.00909225 0)
(0.000470146 -0.00877139 0)
(0.000399712 -0.00865646 0)
(0.000254274 -0.00959761 0)
(-5.95347e-05 -0.00860353 0)
(-0.00249239 -0.0217948 0)
(0.000164033 -0.0207452 0)
(0.000930345 -0.0223355 0)
(0.001141 -0.0201958 0)
(0.00230489 -0.0188751 0)
(0.00302609 -0.0173958 0)
(0.000666372 -0.0159999 0)
(0.00287099 -0.0129766 0)
(-0.00572171 -0.0103996 0)
(-0.00078391 -0.0118418 0)
(0.000358848 -0.0126152 0)
(-0.00191566 -0.0133108 0)
(-0.00144854 -0.0128066 0)
(-0.00304844 -0.0116535 0)
(0.000242149 -0.0122412 0)
(-0.000583201 -0.010201 0)
(-0.000764861 -0.0104381 0)
(-0.00052987 -0.0107072 0)
(0.00288885 -0.00991479 0)
(0.00144069 -0.0121423 0)
(0.00282821 -0.00919865 0)
(0.000973169 -0.00747102 0)
(-0.00186684 -0.0121223 0)
(0.000914418 -0.0122303 0)
(-0.000808179 -0.0113151 0)
(-0.00202592 -0.01213 0)
(-0.000748073 -0.00968771 0)
(-0.000447707 -0.0101886 0)
(-0.00245186 -0.0102861 0)
(0.00164952 -0.00917728 0)
(0.000671523 -0.0089215 0)
(0.00117786 -0.00839125 0)
(0.00119898 -0.00923299 0)
(0.00356809 -0.0042087 0)
(0.00175144 -0.00420968 0)
(0.0024555 -0.00561566 0)
(0.00184557 -0.00437475 0)
(-0.000238042 -0.0059239 0)
(0.00156852 -0.00533063 0)
(-0.000853577 -0.00430768 0)
(-0.00144184 -0.00603542 0)
(-0.00272847 -0.00683035 0)
(-0.00228438 -0.00735678 0)
(0.00162709 -0.00844966 0)
(0.000691116 -0.00983135 0)
(0.000205398 -0.0100572 0)
(0.000380975 -0.00993821 0)
(0.000447371 -0.0101667 0)
(0.000591628 -0.010201 0)
(0.000852331 -0.010338 0)
(0.000891543 -0.0103913 0)
(0.000841249 -0.010325 0)
(0.000759898 -0.0100484 0)
(0.000656705 -0.00949781 0)
(0.000560857 -0.00862482 0)
(0.000480411 -0.00752165 0)
(0.000573878 -0.00636692 0)
(0.000860799 -0.00533791 0)
(0.00111805 -0.00478307 0)
(0.00107293 -0.00463851 0)
(0.000513519 -0.00474588 0)
(-0.00052616 -0.00543905 0)
(-0.00166789 -0.00639713 0)
(-0.00214606 -0.00733186 0)
(-0.00160191 -0.00823477 0)
(-0.000594478 -0.0089098 0)
(-0.000104605 -0.00915574 0)
(9.01496e-05 -0.00929217 0)
(0.000227497 -0.00932619 0)
(0.000396249 -0.0092144 0)
(0.000411795 -0.00901366 0)
(0.00033765 -0.00875045 0)
(0.000291062 -0.00865789 0)
(0.000187104 -0.00963762 0)
(-4.549e-05 -0.00863821 0)
(0.000463743 -0.018325 0)
(-0.00191865 -0.0197992 0)
(-0.00167275 -0.0225682 0)
(-0.000685182 -0.0218326 0)
(-0.0018898 -0.0204958 0)
(0.00030063 -0.0197019 0)
(-0.000383472 -0.0169333 0)
(0.00123647 -0.0172779 0)
(0.000538979 -0.0133902 0)
(-0.00101738 -0.0100622 0)
(0.000333327 -0.014851 0)
(-0.00147216 -0.0155794 0)
(-0.000848002 -0.015298 0)
(-0.00150248 -0.012311 0)
(0.000211699 -0.0106358 0)
(-0.000998566 -0.0132543 0)
(-0.00159733 -0.0113139 0)
(-0.00113282 -0.00668818 0)
(0.00363058 -0.00778981 0)
(0.00302353 -0.00822246 0)
(0.00317341 -0.00554911 0)
(-0.000614291 -0.00769469 0)
(-0.00260706 -0.006549 0)
(0.000928677 -0.00723599 0)
(-0.000214923 -0.0099777 0)
(-0.000937353 -0.0103562 0)
(-0.00126137 -0.010548 0)
(-0.00301383 -0.0122533 0)
(-0.00241724 -0.00821667 0)
(0.00136086 -0.0086775 0)
(0.00257407 -0.0109403 0)
(0.00159433 -0.0101706 0)
(0.00228962 -0.00897525 0)
(0.00135705 -0.00667481 0)
(-0.00194267 -0.00728132 0)
(0.00115787 -0.00514818 0)
(0.000955903 -0.00498968 0)
(0.000797363 -0.00405756 0)
(0.000824774 -0.0040549 0)
(0.00142351 -0.00435908 0)
(0.000366824 -0.00435542 0)
(-0.00169273 -0.00523033 0)
(0.00237345 -0.00296261 0)
(0.000620517 -0.00668896 0)
(0.00064236 -0.0123137 0)
(-5.05065e-05 -0.0114295 0)
(8.88834e-05 -0.011241 0)
(0.000130026 -0.0111729 0)
(0.000404765 -0.0112144 0)
(0.000512253 -0.0111237 0)
(0.000542526 -0.0109047 0)
(0.000363048 -0.0105263 0)
(0.00010947 -0.0100364 0)
(-0.000238192 -0.00914711 0)
(-0.000549174 -0.00797625 0)
(-0.000739316 -0.0068806 0)
(-0.000550767 -0.00575 0)
(-0.000100325 -0.0048921 0)
(0.000563941 -0.00416674 0)
(0.000885315 -0.00386687 0)
(0.000766004 -0.00387326 0)
(0.000247683 -0.00426863 0)
(-0.000448828 -0.00516956 0)
(-0.000789834 -0.00653306 0)
(-0.000520848 -0.00804473 0)
(-8.12084e-05 -0.00886008 0)
(0.000137103 -0.00912345 0)
(0.0001837 -0.00923899 0)
(0.000205371 -0.00926044 0)
(0.000262744 -0.0091883 0)
(0.000270148 -0.00897283 0)
(0.000237264 -0.0087407 0)
(0.00020583 -0.0086618 0)
(0.000135406 -0.00966864 0)
(-3.292e-05 -0.00866337 0)
(0.00379376 -0.00781769 0)
(0.00116637 -0.00824175 0)
(0.000571214 -0.00814213 0)
(-0.000369593 -0.0105188 0)
(-0.0020124 -0.0114971 0)
(-0.000216516 -0.0117713 0)
(0.000983894 -0.0143562 0)
(-0.000755372 -0.0113008 0)
(0.000773111 -0.0109855 0)
(-0.00508402 -0.00873407 0)
(-0.00287279 -0.00824767 0)
(-0.0025505 -0.0107729 0)
(-0.00282216 -0.0108778 0)
(-0.00350511 -0.00864786 0)
(-0.0023891 -0.00960179 0)
(-0.00249945 -0.011183 0)
(-0.00153674 -0.0105745 0)
(-0.00108387 -0.00464855 0)
(0.00109203 -0.00605139 0)
(0.00255846 -0.0110179 0)
(0.000556308 -0.00829878 0)
(0.000254357 -0.00763954 0)
(0.000759969 -0.00400249 0)
(-0.000360513 -0.00325606 0)
(0.000836414 -0.00736359 0)
(0.000529492 -0.00960558 0)
(-0.00203963 -0.00918665 0)
(-0.00156957 -0.0109035 0)
(-6.40296e-05 -0.00686957 0)
(-0.00108371 -0.00565391 0)
(-0.000602886 -0.0110223 0)
(0.000464483 -0.00980279 0)
(0.0019806 -0.00875502 0)
(0.000464357 -0.00846893 0)
(-0.000285894 -0.00711835 0)
(-8.44573e-05 -0.00644061 0)
(-0.000601649 -0.0075894 0)
(0.000170758 -0.00696999 0)
(-0.000298789 -0.00600372 0)
(0.000305745 -0.00631048 0)
(0.000426711 -0.01128 0)
(0.00288498 -0.00809003 0)
(0.0040691 -0.0079978 0)
(-2.15102e-05 -0.0135664 0)
(0.000500337 -0.01316 0)
(0.000534919 -0.0132597 0)
(0.000516631 -0.0127871 0)
(0.00055888 -0.012691 0)
(0.000642877 -0.0123572 0)
(0.000581919 -0.0119695 0)
(0.000470487 -0.0115111 0)
(-4.22699e-05 -0.0107757 0)
(-0.000688041 -0.00970244 0)
(-0.00140381 -0.0086455 0)
(-0.0017338 -0.00750942 0)
(-0.00175699 -0.00640064 0)
(-0.00141327 -0.0053567 0)
(-0.000727275 -0.0047586 0)
(0.000118708 -0.00421625 0)
(0.000705495 -0.00412608 0)
(0.000873698 -0.0043935 0)
(0.00074063 -0.00502074 0)
(0.000592242 -0.00599874 0)
(0.00062547 -0.00733214 0)
(0.000640823 -0.00843358 0)
(0.000506285 -0.00889647 0)
(0.000311375 -0.00908108 0)
(0.000213839 -0.00915589 0)
(0.000184848 -0.00917169 0)
(0.000156077 -0.0091074 0)
(0.000152018 -0.00892855 0)
(0.000157667 -0.00872905 0)
(0.000138052 -0.00866156 0)
(9.56256e-05 -0.00969015 0)
(-2.25486e-05 -0.00868138 0)
(0.00177779 0.00306734 0)
(0.00088024 0.00376313 0)
(0.000240766 0.0043838 0)
(-0.000424461 0.00521999 0)
(0.000220464 0.00466047 0)
(0.000873644 0.00524147 0)
(-0.000321598 0.00509219 0)
(-0.000136795 0.00509811 0)
(-0.000669397 0.00372399 0)
(-0.000435512 0.00750263 0)
(-0.00145269 0.00512817 0)
(-0.00179011 -0.00124958 0)
(-0.000237302 -0.00301077 0)
(-0.000987406 -0.000464756 0)
(-0.00273962 -0.00246875 0)
(-0.00201538 -0.00861612 0)
(0.00130506 -0.0101723 0)
(0.00266755 -0.00670882 0)
(-0.00156253 -0.00824571 0)
(-0.000316119 -0.013576 0)
(0.000137453 -0.0120987 0)
(-0.000235025 -0.0103022 0)
(0.000581854 -0.00865094 0)
(-0.000526497 -0.00578587 0)
(-0.000834495 -0.00707068 0)
(-0.000971339 -0.00937167 0)
(-0.00153981 -0.00808607 0)
(-0.000898212 -0.00647578 0)
(0.00369018 -0.00441651 0)
(-0.00193518 -0.00787471 0)
(-0.00022008 -0.00973745 0)
(-0.000275183 -0.00791083 0)
(-0.00148341 -0.00721691 0)
(0.000891907 -0.00593315 0)
(0.00101282 -0.00367176 0)
(-0.000604784 -0.00332035 0)
(-0.00134105 -0.00307104 0)
(-0.00144084 -0.00323976 0)
(0.00254345 -0.00408625 0)
(0.00247913 -0.0063127 0)
(0.000824965 -0.00909425 0)
(0.00340607 -0.0113392 0)
(-0.000862152 -0.0130049 0)
(-0.000347761 -0.0136912 0)
(-0.000549993 -0.0139572 0)
(-0.00031407 -0.0136165 0)
(-0.000563947 -0.0133104 0)
(-0.000475526 -0.0130004 0)
(-0.000294828 -0.0123382 0)
(-0.000357392 -0.0118175 0)
(-0.000767805 -0.0109707 0)
(-0.00136202 -0.0101581 0)
(-0.00202506 -0.00914238 0)
(-0.00259358 -0.00866349 0)
(-0.00288708 -0.00795127 0)
(-0.00288008 -0.00743169 0)
(-0.00236926 -0.00673732 0)
(-0.00133409 -0.00618822 0)
(-8.54239e-05 -0.00571146 0)
(0.001065 -0.00569223 0)
(0.00172598 -0.00613362 0)
(0.00189721 -0.00709721 0)
(0.00186267 -0.00807821 0)
(0.00153426 -0.00888362 0)
(0.00094166 -0.0091554 0)
(0.000558933 -0.00910312 0)
(0.00037592 -0.00907762 0)
(0.000238154 -0.00909978 0)
(0.000129432 -0.00911901 0)
(7.20587e-05 -0.00905285 0)
(7.8975e-05 -0.00890926 0)
(8.79924e-05 -0.00872105 0)
(8.15117e-05 -0.00866387 0)
(6.19208e-05 -0.00970794 0)
(-1.44822e-05 -0.00869371 0)
(0.000390932 -0.00794257 0)
(-0.000478668 -0.0071909 0)
(-0.00060474 -0.00730669 0)
(-0.00103078 -0.00799359 0)
(-0.000978079 -0.00674126 0)
(3.42541e-05 -0.0064866 0)
(-0.000697816 -0.00910589 0)
(-0.000335085 -0.00686774 0)
(0.00123132 -0.00860749 0)
(0.00180011 -0.00863903 0)
(-0.00208935 -0.0078694 0)
(0.000650364 -0.00813362 0)
(0.000711215 -0.00786748 0)
(0.00230599 -0.00861234 0)
(0.000629413 -0.00848117 0)
(0.00196297 -0.00796863 0)
(0.00247139 -0.00785366 0)
(0.000840586 -0.010549 0)
(-0.00124847 -0.0117322 0)
(-0.000504425 -0.0123195 0)
(-0.00152475 -0.0116015 0)
(-0.00189385 -0.0101135 0)
(-0.00260469 -0.00778674 0)
(0.00239184 -0.00810414 0)
(-0.000303647 -0.00926284 0)
(1.62801e-05 -0.00958254 0)
(-8.81854e-05 -0.00736476 0)
(-0.000931255 -0.00266101 0)
(0.000588806 -0.00491331 0)
(-0.000713828 -0.00854762 0)
(0.000316265 -0.00812049 0)
(-0.00116639 -0.0108548 0)
(-0.00224432 -0.00920095 0)
(-0.0032007 -0.00829765 0)
(-0.00238613 -0.00878918 0)
(-0.00259312 -0.00756658 0)
(-0.000490915 -0.00751818 0)
(-0.000371988 -0.00568427 0)
(0.00220761 -0.00587951 0)
(0.00445474 -0.00909966 0)
(0.00401143 -0.0060867 0)
(0.00337011 -0.00326192 0)
(0.00178132 -0.00381569 0)
(0.000789309 -0.00502707 0)
(0.00032171 -0.00560417 0)
(0.000229338 -0.00639846 0)
(-0.000123529 -0.00687495 0)
(-0.000274702 -0.00755214 0)
(-0.000442768 -0.00796726 0)
(-0.000613601 -0.00813098 0)
(-0.0012725 -0.00814994 0)
(-0.00161861 -0.00826075 0)
(-0.00211758 -0.00849611 0)
(-0.00251546 -0.00903824 0)
(-0.00286574 -0.00949555 0)
(-0.00286166 -0.00971161 0)
(-0.00257134 -0.00977132 0)
(-0.00174962 -0.00966198 0)
(-0.000440613 -0.00931659 0)
(0.00129672 -0.00901419 0)
(0.00225975 -0.00906582 0)
(0.00249579 -0.00928885 0)
(0.00234945 -0.00947929 0)
(0.0016869 -0.00952152 0)
(0.000829014 -0.0093328 0)
(0.000480685 -0.00917696 0)
(0.000339185 -0.00906849 0)
(0.000233406 -0.00904134 0)
(0.000105585 -0.00904609 0)
(1.56652e-05 -0.00899058 0)
(1.53066e-05 -0.00886564 0)
(3.87383e-05 -0.0086997 0)
(4.37578e-05 -0.00865547 0)
(3.95772e-05 -0.00971664 0)
(-7.11093e-06 -0.00870172 0)
(-0.000196319 -0.0099335 0)
(-0.000247223 -0.00992526 0)
(0.00121568 -0.0106802 0)
(0.00083731 -0.0120596 0)
(0.00105907 -0.0109465 0)
(-0.00100935 -0.011027 0)
(0.00131979 -0.013066 0)
(0.000227696 -0.0130909 0)
(0.000609876 -0.0117448 0)
(-0.000552665 -0.0104104 0)
(-0.000530073 -0.0090152 0)
(-0.00170029 -0.00926449 0)
(5.33451e-05 -0.0104924 0)
(0.00103379 -0.00874415 0)
(0.00203774 -0.00820687 0)
(0.00302974 -0.00875025 0)
(0.000966245 -0.00953291 0)
(-0.000465757 -0.00693223 0)
(-0.000360538 -0.00501013 0)
(-0.001468 -0.00931016 0)
(-0.00212207 -0.0115582 0)
(-0.00198883 -0.011703 0)