/*--------------------------------*- C++ -*----------------------------------*\
  =========                 |
  \\      /  F ield         | OpenFOAM: The Open Source CFD Toolbox
   \\    /   O peration     | Website:  https://openfoam.org
    \\  /    A nd           | Version:  12
     \\/     M anipulation  |
\*---------------------------------------------------------------------------*/
FoamFile
{
    format      ascii;
    class       volVectorField::Internal;
    location    "0.55";
    object      cloud:UTrans;
}
// * * * * * * * * * * * * * * * * * * * * * * * * * * * * * * * * * * * * * //

dimensions      [1 1 -1 0 0 0 0];

value           nonuniform List<vector> 
3750
(
(2.77225e-11 -1.87862e-09 0)
(-2.82535e-11 -2.06012e-09 0)
(-7.62958e-12 -2.04331e-09 0)
(-1.92884e-11 -2.01829e-09 0)
(-1.24869e-11 -2.02622e-09 0)
(-1.22414e-11 -1.97181e-09 0)
(1.24282e-12 -6.14244e-10 0)
(1.48088e-12 -3.03721e-09 0)
(2.53523e-11 -2.07716e-09 0)
(1.44795e-11 -3.88291e-09 0)
(-2.71006e-11 -2.00289e-09 0)
(4.03832e-12 -1.97485e-09 0)
(1.39877e-11 -1.86999e-09 0)
(-3.13992e-11 -1.89166e-09 0)
(-2.04465e-11 -4.08259e-09 0)
(1.98454e-12 -1.82937e-09 0)
(-1.06523e-11 -1.8233e-09 0)
(-1.35585e-10 -2.99562e-09 0)
(5.45131e-13 -2.66856e-09 0)
(-1.6309e-11 -1.77898e-09 0)
(-1.97093e-11 -1.1004e-09 0)
(-2.28663e-12 -1.73071e-10 0)
(-9.21909e-11 -4.06349e-09 0)
(4.61645e-11 -1.90417e-09 0)
(-1.37521e-11 -1.82644e-09 0)
(-8.32125e-12 -1.97521e-09 0)
(4.68505e-11 -1.90388e-09 0)
(2.09435e-11 -1.74405e-09 0)
(2.14904e-12 -1.73663e-09 0)
(-7.84696e-11 -2.20803e-09 0)
(1.58492e-11 -1.71354e-09 0)
(1.95489e-11 -2.15309e-09 0)
(-1.14639e-11 -2.00421e-09 0)
(1.76259e-11 -1.91286e-09 0)
(1.01533e-10 -1.74036e-09 0)
(-8.9475e-11 -3.91097e-09 0)
(3.36625e-13 -1.85652e-09 0)
(-5.32998e-11 -1.71158e-09 0)
(1.23137e-11 -1.81579e-09 0)
(1.11423e-10 -1.91203e-09 0)
(3.0868e-11 -1.85341e-09 0)
(0 0 0)
(5.82506e-12 -1.96145e-09 0)
(8.60968e-11 -2.0017e-09 0)
(8.30711e-11 -1.96783e-09 0)
(1.77992e-10 -4.22546e-09 0)
(6.02895e-12 -1.78011e-09 0)
(-2.148e-11 -1.90725e-09 0)
(-3.62958e-11 -2.00392e-09 0)
(1.26137e-11 -2.09727e-09 0)
(2.24131e-11 -1.99102e-09 0)
(-1.21701e-11 -2.01055e-09 0)
(-3.67859e-13 -5.68052e-10 0)
(-8.1807e-13 -9.48284e-10 0)
(-4.29227e-11 -4.50868e-09 0)
(-2.24204e-11 -1.71912e-09 0)
(0 0 0)
(0 0 0)
(0 0 0)
(0 0 0)
(0 0 0)
(0 0 0)
(0 0 0)
(0 0 0)
(0 0 0)
(0 0 0)
(0 0 0)
(0 0 0)
(0 0 0)
(0 0 0)
(0 0 0)
(0 0 0)
(0 0 0)
(0 0 0)
(0 0 0)
(-2.5101e-12 -9.16142e-10 0)
(-4.76385e-11 -2.04987e-09 0)
(0 0 0)
(5.11406e-12 -1.97369e-09 0)
(3.17574e-11 -1.99287e-09 0)
(-1.53627e-11 -1.82428e-09 0)
(-1.17858e-11 -1.90202e-09 0)
(1.15625e-11 -2.02153e-09 0)
(1.6442e-11 -2.04073e-09 0)
(0 0 0)
(-9.66736e-11 -2.11359e-09 0)
(0 0 0)
(-5.608e-11 -1.97019e-09 0)
(-6.04044e-11 -1.85908e-09 0)
(-6.92579e-11 -2.42803e-09 0)
(2.58068e-11 -6.13815e-09 0)
(-2.64919e-10 -4.38219e-09 0)
(-1.104e-10 -1.6821e-09 0)
(-6.0858e-11 -3.90407e-09 0)
(-1.05863e-12 -1.7992e-09 0)
(0 0 0)
(0 0 0)
(0 0 0)
(-1.00409e-10 -1.84479e-09 0)
(-7.50896e-11 -1.83393e-09 0)
(-3.2366e-11 -1.87024e-09 0)
(-1.11206e-11 -1.92787e-09 0)
(-6.28484e-12 -1.94141e-09 0)
(2.67866e-11 -3.07146e-09 0)
(3.5851e-12 -2.7991e-09 0)
(0 0 0)
(0 0 0)
(1.5711e-10 -1.91854e-09 0)
(0 0 0)
(3.05933e-10 -3.57272e-09 0)
(-5.05438e-11 -4.61173e-09 0)
(-1.00007e-10 -2.96424e-09 0)
(-3.21359e-11 -1.51207e-09 0)
(-6.72851e-11 -1.97719e-09 0)
(0 0 0)
(0 0 0)
(-1.26487e-11 -1.90534e-09 0)
(1.22992e-10 -1.97553e-09 0)
(6.77227e-11 -1.90048e-09 0)
(-1.92679e-12 -1.7806e-09 0)
(3.57165e-11 -1.86016e-09 0)
(-2.02084e-11 -1.98345e-09 0)
(-1.40451e-10 -1.87396e-09 0)
(-5.33121e-11 -1.94254e-09 0)
(-4.59562e-11 -1.93206e-09 0)
(-6.53362e-11 -1.66941e-09 0)
(0 0 0)
(0 0 0)
(0 0 0)
(0 0 0)
(0 0 0)
(0 0 0)
(0 0 0)
(0 0 0)
(0 0 0)
(0 0 0)
(0 0 0)
(0 0 0)
(0 0 0)
(0 0 0)
(0 0 0)
(0 0 0)
(0 0 0)
(0 0 0)
(0 0 0)
(0 0 0)
(0 0 0)
(0 0 0)
(0 0 0)
(0 0 0)
(-2.08202e-11 -1.99271e-09 0)
(-5.85733e-11 -1.94194e-09 0)
(-5.39682e-11 -1.98938e-09 0)
(-6.34401e-11 -1.83846e-09 0)
(-4.18567e-11 -4.1758e-09 0)
(0 0 0)
(0 0 0)
(7.52709e-11 -1.86293e-09 0)
(5.78246e-11 -1.9285e-09 0)
(-4.41561e-11 -1.99293e-09 0)
(2.15062e-10 -4.50901e-09 0)
(5.54586e-11 -1.87367e-09 0)
(5.86888e-12 -2.0063e-09 0)
(0 0 0)
(-3.77887e-11 -1.97181e-09 0)
(8.86253e-12 -1.67851e-09 0)
(-1.83358e-10 -1.69455e-09 0)
(-1.25429e-10 -1.91468e-09 0)
(0 0 0)
(-1.25884e-11 -1.7974e-09 0)
(2.05063e-11 -1.7925e-09 0)
(6.43451e-11 -1.90013e-09 0)
(6.0029e-11 -1.92315e-09 0)
(5.79967e-11 -1.96073e-09 0)
(-2.32937e-11 -1.89873e-09 0)
(0 0 0)
(-2.158e-10 -3.97507e-09 0)
(-2.19703e-10 -3.89822e-09 0)
(-1.23274e-10 -3.16125e-09 0)
(5.30451e-12 -2.28493e-09 0)
(3.48925e-11 -1.78415e-09 0)
(7.08297e-11 -1.79454e-09 0)
(1.72066e-11 -1.92132e-09 0)
(5.49604e-11 -1.90383e-09 0)
(2.57656e-10 -4.66972e-09 0)
(1.09775e-11 -2.69783e-10 0)
(6.13459e-11 -1.37361e-09 0)
(-1.70856e-11 -1.91011e-09 0)
(-4.70798e-11 -1.9555e-09 0)
(5.6015e-12 -1.9055e-09 0)
(3.45807e-11 -2.02005e-09 0)
(5.3618e-11 -1.96439e-09 0)
(9.75176e-11 -1.80451e-09 0)
(-9.73864e-11 -4.52108e-09 0)
(-3.04495e-12 -1.71405e-09 0)
(-6.71762e-11 -2.57897e-09 0)
(-1.39492e-10 -3.81341e-09 0)
(0 0 0)
(-1.90078e-10 -2.30547e-09 0)
(-8.10756e-11 -1.74903e-09 0)
(0 0 0)
(0 0 0)
(0 0 0)
(0 0 0)
(0 0 0)
(0 0 0)
(0 0 0)
(0 0 0)
(0 0 0)
(0 0 0)
(0 0 0)
(0 0 0)
(0 0 0)
(0 0 0)
(0 0 0)
(0 0 0)
(0 0 0)
(0 0 0)
(0 0 0)
(0 0 0)
(0 0 0)
(0 0 0)
(0 0 0)
(0 0 0)
(0 0 0)
(-1.85676e-10 -4.55568e-09 0)
(-3.58975e-11 -1.92394e-09 0)
(0 0 0)
(-2.37302e-11 -1.87287e-09 0)
(0 0 0)
(1.58078e-11 -1.73631e-09 0)
(3.07756e-11 -1.8839e-09 0)
(8.83446e-11 -1.95595e-09 0)
(-2.23325e-11 -1.91022e-09 0)
(8.72413e-13 -1.77885e-09 0)
(0 0 0)
(1.03303e-10 -1.72855e-09 0)
(-4.94901e-11 -2.01192e-09 0)
(-2.20478e-11 -1.99587e-09 0)
(0 0 0)
(-3.36284e-10 -4.36217e-09 0)
(-6.01704e-11 -1.48657e-09 0)
(-1.39634e-11 -1.89571e-09 0)
(-2.08878e-11 -1.89068e-09 0)
(-1.41117e-11 -1.92526e-09 0)
(-3.99211e-12 -1.91934e-09 0)
(-6.26057e-12 -1.87866e-09 0)
(4.36848e-12 -1.82278e-09 0)
(-1.7599e-11 -4.23604e-09 0)
(-5.60344e-11 -1.72619e-09 0)
(-2.41449e-10 -6.65254e-09 0)
(-1.47359e-10 -1.67219e-09 0)
(-4.38739e-11 -1.80048e-09 0)
(-3.67897e-11 -1.83795e-09 0)
(-2.55358e-12 -1.87207e-09 0)
(2.45761e-11 -1.89887e-09 0)
(2.64339e-11 -1.88418e-09 0)
(-1.62189e-11 -1.97728e-09 0)
(-2.65566e-11 -1.88431e-09 0)
(-1.94363e-10 -2.03457e-09 0)
(3.59246e-11 -2.08959e-09 0)
(1.77033e-11 -2.01033e-09 0)
(-3.20231e-11 -1.94754e-09 0)
(-4.02344e-11 -1.87627e-09 0)
(-2.89571e-11 -1.89859e-09 0)
(-4.9112e-11 -1.89566e-09 0)
(-6.2642e-11 -1.91656e-09 0)
(-8.78312e-11 -1.98649e-09 0)
(-1.01439e-10 -1.96052e-09 0)
(5.29572e-11 -1.7437e-09 0)
(-1.74562e-10 -3.91101e-09 0)
(-3.97967e-11 -1.6507e-09 0)
(0 0 0)
(0 0 0)
(0 0 0)
(0 0 0)
(0 0 0)
(0 0 0)
(0 0 0)
(0 0 0)
(0 0 0)
(0 0 0)
(0 0 0)
(0 0 0)
(0 0 0)
(0 0 0)
(0 0 0)
(0 0 0)
(0 0 0)
(0 0 0)
(0 0 0)
(0 0 0)
(0 0 0)
(0 0 0)
(0 0 0)
(0 0 0)
(0 0 0)
(0 0 0)
(0 0 0)
(0 0 0)
(-9.19063e-11 -2.04439e-09 0)
(0 0 0)
(7.12254e-12 -1.94181e-09 0)
(-1.01119e-11 -2.00589e-09 0)
(0 0 0)
(-1.61317e-11 -1.91275e-09 0)
(1.13135e-10 -1.87514e-09 0)
(5.63774e-11 -1.90125e-09 0)
(-4.99014e-11 -1.95977e-09 0)
(5.20635e-11 -1.82149e-09 0)
(7.84893e-11 -1.95454e-09 0)
(4.60336e-11 -2.21413e-09 0)
(0 0 0)
(8.10892e-12 -1.99491e-09 0)
(-4.73749e-11 -1.97808e-09 0)
(0 0 0)
(-4.37764e-11 -1.74474e-09 0)
(-7.19979e-11 -3.08262e-09 0)
(-4.30333e-11 -2.6326e-09 0)
(-2.38232e-11 -1.92751e-09 0)
(-9.70596e-11 -1.87492e-09 0)
(-8.43466e-11 -1.83978e-09 0)
(-9.95443e-11 -3.11339e-09 0)
(-1.03534e-10 -2.15327e-09 0)
(-3.47255e-11 -1.72993e-09 0)
(0 0 0)
(-2.15982e-11 -1.52774e-09 0)
(3.19604e-12 -1.89481e-09 0)
(4.43823e-12 -1.9636e-09 0)
(3.55064e-11 -1.98661e-09 0)
(2.8416e-11 -1.99902e-09 0)
(1.38624e-10 -1.9578e-09 0)
(-5.03374e-11 -1.89147e-09 0)
(-5.66017e-11 -1.81039e-09 0)
(-1.05852e-10 -1.98685e-09 0)
(-5.02817e-11 -2.06153e-09 0)
(-7.81948e-11 -1.95638e-09 0)
(-6.03897e-11 -4.57965e-09 0)
(5.66169e-11 -1.84979e-09 0)
(3.03738e-11 -1.83644e-09 0)
(6.70693e-12 -1.84355e-09 0)
(0 0 0)
(0 0 0)
(0 0 0)
(4.71267e-12 -2.60162e-09 0)
(-5.87875e-11 -3.39216e-09 0)
(-2.17182e-11 -1.76154e-09 0)
(-5.58757e-12 -1.7488e-09 0)
(0 0 0)
(0 0 0)
(0 0 0)
(0 0 0)
(0 0 0)
(0 0 0)
(0 0 0)
(0 0 0)
(0 0 0)
(0 0 0)
(0 0 0)
(0 0 0)
(0 0 0)
(0 0 0)
(0 0 0)
(0 0 0)
(0 0 0)
(0 0 0)
(0 0 0)
(0 0 0)
(0 0 0)
(0 0 0)
(0 0 0)
(0 0 0)
(0 0 0)
(0 0 0)
(0 0 0)
(0 0 0)
(-2.37398e-11 -2.07051e-09 0)
(4.26727e-14 -5.23999e-10 0)
(8.13184e-13 -8.8289e-10 0)
(7.73797e-11 -1.91045e-09 0)
(5.58079e-11 -1.86621e-09 0)
(6.38127e-11 -1.97791e-09 0)
(4.6562e-11 -2.09146e-09 0)
(0 0 0)
(3.65017e-11 -1.95534e-09 0)
(7.49213e-11 -1.92549e-09 0)
(8.95568e-11 -2.08357e-09 0)
(1.1682e-10 -2.12418e-09 0)
(9.56507e-11 -1.99272e-09 0)
(-1.84956e-11 -2.12333e-09 0)
(0 0 0)
(-1.01477e-10 -3.95005e-09 0)
(-8.06939e-11 -1.74643e-09 0)
(-1.22802e-10 -1.81035e-09 0)
(-2.14977e-10 -4.5299e-09 0)
(-4.66261e-11 -1.81262e-09 0)
(-8.14158e-11 -1.79614e-09 0)
(-1.00333e-10 -1.77881e-09 0)
(-7.34243e-11 -1.68506e-09 0)
(-8.2558e-11 -1.68442e-09 0)
(5.43539e-11 -1.86323e-09 0)
(-4.93119e-11 -1.91231e-09 0)
(-7.45016e-11 -2.015e-09 0)
(1.4383e-11 -1.95617e-09 0)
(8.57088e-11 -2.0764e-09 0)
(3.87648e-11 -1.9799e-09 0)
(-8.55945e-11 -1.96054e-09 0)
(-6.34234e-11 -1.7937e-09 0)
(-5.09164e-11 -1.88525e-09 0)
(-7.29894e-11 -2.05102e-09 0)
(-6.95425e-11 -2.02726e-09 0)
(-7.72675e-11 -1.92882e-09 0)
(-2.42496e-11 -1.97126e-09 0)
(-5.88887e-11 -1.91349e-09 0)
(1.16252e-11 -1.88391e-09 0)
(-3.75452e-12 -1.8576e-09 0)
(-1.97532e-11 -1.94286e-09 0)
(8.85483e-12 -1.87213e-09 0)
(3.68481e-11 -4.19528e-09 0)
(0 0 0)
(0 0 0)
(-6.93036e-11 -1.91826e-09 0)
(6.45371e-12 -1.96151e-09 0)
(0 0 0)
(0 0 0)
(0 0 0)
(0 0 0)
(0 0 0)
(0 0 0)
(0 0 0)
(0 0 0)
(0 0 0)
(0 0 0)
(0 0 0)
(0 0 0)
(0 0 0)
(0 0 0)
(0 0 0)
(0 0 0)
(0 0 0)
(0 0 0)
(0 0 0)
(0 0 0)
(0 0 0)
(0 0 0)
(0 0 0)
(0 0 0)
(0 0 0)
(0 0 0)
(0 0 0)
(4.00457e-11 -2.05005e-09 0)
(-3.23378e-11 -1.98612e-09 0)
(1.58681e-11 -1.89733e-09 0)
(1.72731e-11 -2.03848e-09 0)
(0 0 0)
(-3.47902e-11 -3.89352e-09 0)
(-5.16866e-12 -1.90751e-09 0)
(4.44295e-11 -2.11645e-09 0)
(1.08688e-10 -2.0644e-09 0)
(6.38213e-11 -1.90396e-09 0)
(6.50753e-11 -1.9054e-09 0)
(1.20445e-10 -1.93549e-09 0)
(1.22006e-10 -1.97475e-09 0)
(1.53689e-10 -1.95994e-09 0)
(-1.2203e-10 -4.80031e-09 0)
(-5.96177e-11 -3.88807e-09 0)
(-4.29125e-11 -1.57904e-09 0)
(-9.9473e-11 -1.75467e-09 0)
(-1.11007e-10 -1.83559e-09 0)
(-1.62429e-10 -1.98242e-09 0)
(-3.65723e-11 -2.00291e-09 0)
(-3.03891e-11 -1.9561e-09 0)
(-3.73375e-11 -1.90326e-09 0)
(-2.63866e-11 -1.77335e-09 0)
(-9.37797e-11 -1.8698e-09 0)
(7.69587e-13 -1.95921e-09 0)
(8.87259e-12 -2.0349e-09 0)
(3.0272e-13 -9.11114e-11 0)
(7.49638e-12 -1.84062e-09 0)
(9.64261e-12 -3.46e-09 0)
(2.78441e-11 -3.05278e-09 0)
(-8.86778e-11 -1.90598e-09 0)
(-8.03577e-11 -1.63556e-09 0)
(0 0 0)
(-2.72302e-11 -1.88201e-09 0)
(-7.79818e-11 -2.10073e-09 0)
(-6.45134e-11 -1.98267e-09 0)
(-3.4899e-11 -1.96789e-09 0)
(-3.69664e-11 -2.95869e-09 0)
(-1.34674e-11 -3.02507e-09 0)
(-4.24786e-11 -1.72545e-09 0)
(-7.52108e-11 -1.69818e-09 0)
(4.55085e-11 -2.81798e-09 0)
(2.6622e-11 -9.53432e-10 0)
(1.11539e-11 -1.85451e-09 0)
(-1.06907e-10 -2.71426e-09 0)
(-2.72789e-11 -8.07402e-10 0)
(-3.04269e-11 -1.93612e-09 0)
(0 0 0)
(0 0 0)
(0 0 0)
(0 0 0)
(0 0 0)
(0 0 0)
(0 0 0)
(0 0 0)
(0 0 0)
(0 0 0)
(0 0 0)
(0 0 0)
(0 0 0)
(0 0 0)
(0 0 0)
(0 0 0)
(0 0 0)
(0 0 0)
(0 0 0)
(0 0 0)
(0 0 0)
(0 0 0)
(0 0 0)
(0 0 0)
(0 0 0)
(0 0 0)
(0 0 0)
(-4.54575e-11 -2.16118e-09 0)
(-1.32984e-11 -1.86197e-09 0)
(5.94553e-12 -1.77674e-09 0)
(6.52273e-11 -1.94379e-09 0)
(0 0 0)
(1.46311e-10 -1.94264e-09 0)
(3.54128e-11 -2.85108e-09 0)
(-3.80513e-12 -9.90445e-10 0)
(1.09583e-11 -1.95239e-09 0)
(3.63985e-11 -1.89873e-09 0)
(2.23397e-11 -1.85461e-09 0)
(1.17102e-10 -4.52069e-09 0)
(1.23218e-10 -1.68516e-09 0)
(-1.95053e-10 -8.10908e-09 0)
(8.21096e-11 -1.67947e-09 0)
(4.11616e-11 -1.57175e-09 0)
(-2.84561e-11 -1.84183e-09 0)
(-2.0681e-11 -1.89674e-09 0)
(0 0 0)
(-5.70384e-11 -1.88962e-09 0)
(-7.38962e-11 -2.01316e-09 0)
(-2.16118e-12 -2.03861e-09 0)
(2.9967e-11 -2.01619e-09 0)
(0 0 0)
(-3.11472e-11 -1.73186e-09 0)
(9.98069e-13 -1.86668e-09 0)
(2.64258e-11 -1.89907e-09 0)
(5.03463e-11 -1.92151e-09 0)
(3.9601e-11 -1.8873e-09 0)
(-8.94751e-11 -3.2655e-09 0)
(-2.629e-11 -3.57519e-09 0)
(6.15974e-12 -2.09383e-10 0)
(4.78158e-11 -1.56465e-09 0)
(-5.99689e-11 -1.95831e-09 0)
(-3.23951e-11 -2.21967e-09 0)
(0 0 0)
(-5.79368e-11 -1.94703e-09 0)
(-5.11123e-11 -1.96387e-09 0)
(-5.82806e-11 -2.02307e-09 0)
(-7.17573e-11 -2.00324e-09 0)
(-5.51652e-11 -3.27443e-09 0)
(-3.65292e-11 -2.48458e-09 0)
(-3.87258e-11 -1.78985e-09 0)
(5.95127e-11 -1.96137e-09 0)
(2.79102e-11 -1.854e-09 0)
(1.73844e-11 -4.10665e-09 0)
(-4.24404e-11 -1.63594e-09 0)
(-5.75451e-12 -1.78198e-09 0)
(0 0 0)
(0 0 0)
(0 0 0)
(0 0 0)
(0 0 0)
(0 0 0)
(0 0 0)
(0 0 0)
(0 0 0)
(0 0 0)
(0 0 0)
(0 0 0)
(0 0 0)
(0 0 0)
(0 0 0)
(0 0 0)
(0 0 0)
(0 0 0)
(0 0 0)
(0 0 0)
(0 0 0)
(0 0 0)
(0 0 0)
(0 0 0)
(0 0 0)
(0 0 0)
(0 0 0)
(-1.34045e-11 -2.06733e-09 0)
(9.19378e-11 -1.9358e-09 0)
(1.08551e-10 -1.78248e-09 0)
(2.95301e-11 -4.10689e-09 0)
(8.89218e-12 -1.62461e-09 0)
(2.03115e-10 -3.91619e-09 0)
(4.32257e-11 -2.74311e-09 0)
(-2.36682e-11 -2.89617e-09 0)
(0 0 0)
(-3.16133e-11 -1.89525e-09 0)
(-6.1049e-11 -1.94102e-09 0)
(-1.59871e-10 -3.61126e-09 0)
(-6.65597e-11 -2.23551e-09 0)
(-1.16103e-10 -2.68341e-09 0)
(2.02016e-10 -3.4198e-09 0)
(1.1353e-10 -1.9772e-09 0)
(0 0 0)
(-6.76383e-11 -1.92651e-09 0)
(-2.95173e-11 -1.91644e-09 0)
(5.07164e-12 -6.37254e-10 0)
(7.69092e-12 -7.63253e-10 0)
(9.19674e-12 -1.9888e-09 0)
(-5.82195e-13 -2.00257e-09 0)
(-4.80128e-11 -1.9856e-09 0)
(-3.74317e-11 -1.82052e-09 0)
(-1.57105e-11 -1.81398e-09 0)
(-1.10261e-11 -1.78013e-09 0)
(1.25544e-11 -1.86208e-09 0)
(-7.50923e-12 -1.8828e-09 0)
(-1.20765e-11 -1.83501e-09 0)
(-9.83713e-11 -1.99659e-09 0)
(7.93012e-11 -2.0561e-09 0)
(2.953e-11 -1.84241e-09 0)
(-8.40674e-11 -1.94679e-09 0)
(-3.55769e-11 -2.05073e-09 0)
(0 0 0)
(2.24659e-11 -1.87148e-09 0)
(-2.763e-11 -2.02016e-09 0)
(-4.54664e-11 -2.05855e-09 0)
(-1.19261e-12 -7.49385e-10 0)
(-1.35593e-12 -6.31657e-10 0)
(-7.30928e-11 -1.95545e-09 0)
(-3.71692e-11 -1.83488e-09 0)
(-5.4359e-11 -2.00986e-09 0)
(3.79239e-11 -2.09536e-09 0)
(0 0 0)
(-2.42955e-10 -4.25377e-09 0)
(-1.51847e-11 -1.66051e-09 0)
(0 0 0)
(0 0 0)
(0 0 0)
(0 0 0)
(0 0 0)
(0 0 0)
(0 0 0)
(0 0 0)
(0 0 0)
(0 0 0)
(0 0 0)
(0 0 0)
(0 0 0)
(0 0 0)
(0 0 0)
(0 0 0)
(0 0 0)
(0 0 0)
(0 0 0)
(0 0 0)
(0 0 0)
(0 0 0)
(0 0 0)
(0 0 0)
(0 0 0)
(0 0 0)
(0 0 0)
(2.2326e-11 -1.92172e-09 0)
(4.5726e-11 -1.79498e-09 0)
(9.25837e-11 -4.42458e-09 0)
(-7.28863e-12 -1.75082e-09 0)
(-4.98737e-11 -4.01868e-09 0)
(-1.78909e-10 -4.17554e-09 0)
(-1.19829e-12 -1.67064e-09 0)
(2.516e-10 -3.75669e-09 0)
(4.05363e-11 -1.53421e-09 0)
(2.54375e-11 -1.77976e-09 0)
(-5.67091e-11 -1.94069e-09 0)
(-9.81627e-11 -1.99517e-09 0)
(-9.61413e-11 -2.01783e-09 0)
(-1.52782e-11 -1.95282e-09 0)
(4.77616e-11 -1.82424e-09 0)
(5.72946e-11 -2.21333e-09 0)
(0 0 0)
(-2.98668e-11 -1.91123e-09 0)
(1.91472e-13 -2.12831e-09 0)
(0 0 0)
(1.99482e-11 -1.93468e-09 0)
(3.5999e-11 -1.93009e-09 0)
(4.26718e-13 -3.02713e-11 0)
(2.7868e-11 -1.9994e-09 0)
(-3.67822e-11 -1.9089e-09 0)
(-8.61733e-11 -1.87467e-09 0)
(-4.86472e-11 -1.95036e-09 0)
(-1.72807e-11 -2.86868e-09 0)
(1.77708e-11 -3.03018e-09 0)
(2.27647e-11 -1.79515e-09 0)
(6.46366e-12 -1.85284e-09 0)
(1.29949e-11 -1.86098e-09 0)
(4.8808e-11 -1.89291e-09 0)
(-2.77091e-12 -8.68443e-10 0)
(-1.69283e-12 -4.02013e-10 0)
(5.94302e-11 -1.96737e-09 0)
(-1.78039e-11 -2.02803e-09 0)
(-2.88342e-11 -2.0912e-09 0)
(0 0 0)
(1.10439e-11 -1.99899e-09 0)
(6.78731e-11 -2.08675e-09 0)
(0 0 0)
(-4.66489e-11 -1.80705e-09 0)
(5.78758e-12 -2.18158e-09 0)
(-3.20292e-12 -2.19165e-10 0)
(-2.56302e-11 -4.74478e-09 0)
(-1.35333e-10 -1.78594e-09 0)
(-3.63516e-11 -1.66125e-09 0)
(4.14022e-11 -1.65286e-09 0)
(0 0 0)
(0 0 0)
(0 0 0)
(0 0 0)
(0 0 0)
(0 0 0)
(0 0 0)
(0 0 0)
(0 0 0)
(0 0 0)
(0 0 0)
(0 0 0)
(0 0 0)
(0 0 0)
(0 0 0)
(0 0 0)
(0 0 0)
(0 0 0)
(0 0 0)
(0 0 0)
(0 0 0)
(0 0 0)
(0 0 0)
(0 0 0)
(0 0 0)
(0 0 0)
(-1.39641e-10 -1.96414e-09 0)
(-6.29803e-11 -1.78822e-09 0)
(-6.857e-11 -1.81375e-09 0)
(-8.06766e-11 -4.62637e-09 0)
(-4.25681e-11 -1.79567e-09 0)
(-4.99297e-11 -1.94085e-09 0)
(-4.79487e-11 -3.9628e-09 0)
(-1.06102e-11 -3.66082e-09 0)
(1.15841e-10 -3.72308e-09 0)
(6.25564e-12 -1.73392e-09 0)
(-1.03499e-10 -1.80416e-09 0)
(-3.5178e-11 -1.98601e-09 0)
(-7.65963e-11 -1.93685e-09 0)
(-6.67643e-11 -1.90545e-09 0)
(0 0 0)
(-8.96007e-11 -4.43945e-09 0)
(7.21331e-11 -1.92641e-09 0)
(7.75737e-11 -1.77062e-09 0)
(8.54737e-12 -2.65813e-10 0)
(9.42591e-11 -2.30455e-09 0)
(5.05483e-11 -9.91437e-10 0)
(9.33071e-11 -1.84801e-09 0)
(1.07182e-10 -2.05595e-09 0)
(1.35041e-10 -2.01774e-09 0)
(-7.26782e-11 -2.0345e-09 0)
(0 0 0)
(-7.711e-11 -1.87383e-09 0)
(-4.9187e-11 -2.02969e-09 0)
(-3.79634e-12 -2.72315e-10 0)
(-1.15158e-11 -3.65922e-09 0)
(3.56155e-11 -1.81908e-09 0)
(-3.15285e-11 -4.17986e-09 0)
(1.26224e-11 -1.74004e-09 0)
(4.10031e-11 -1.85665e-09 0)
(6.11282e-12 -1.81497e-09 0)
(1.03708e-10 -2.00688e-09 0)
(0 0 0)
(-6.87276e-11 -2.05039e-09 0)
(-1.02418e-12 -1.98565e-09 0)
(1.02054e-10 -2.02494e-09 0)
(-2.98046e-11 -1.92555e-09 0)
(0 0 0)
(-1.02022e-11 -1.8682e-09 0)
(1.3457e-11 -2.28408e-09 0)
(0 0 0)
(-9.33593e-11 -2.22732e-09 0)
(1.51989e-11 -1.78192e-09 0)
(-1.83938e-11 -1.70376e-09 0)
(-5.2552e-11 -1.73209e-09 0)
(-1.11863e-10 -1.77426e-09 0)
(0 0 0)
(0 0 0)
(0 0 0)
(0 0 0)
(0 0 0)
(0 0 0)
(0 0 0)
(0 0 0)
(0 0 0)
(0 0 0)
(0 0 0)
(0 0 0)
(0 0 0)
(0 0 0)
(0 0 0)
(0 0 0)
(0 0 0)
(0 0 0)
(0 0 0)
(0 0 0)
(0 0 0)
(0 0 0)
(0 0 0)
(0 0 0)
(0 0 0)
(-6.66057e-11 -2.06684e-09 0)
(-6.54571e-11 -1.96299e-09 0)
(-1.15658e-10 -2.00167e-09 0)
(-9.02573e-11 -2.03205e-09 0)
(-1.94006e-11 -2.01363e-09 0)
(-5.50125e-13 -2.01439e-09 0)
(1.11159e-11 -1.99074e-09 0)
(-6.58854e-11 -1.87679e-09 0)
(-1.65004e-10 -1.8635e-09 0)
(-2.23464e-10 -4.41084e-09 0)
(-4.65022e-11 -1.77392e-09 0)
(-8.71273e-11 -1.78747e-09 0)
(-1.08094e-11 -3.56376e-09 0)
(-1.08929e-10 -4.10628e-09 0)
(0 0 0)
(0 0 0)
(2.88875e-11 -1.87997e-09 0)
(9.76165e-11 -1.94972e-09 0)
(8.31099e-11 -2.01938e-09 0)
(1.1906e-10 -2.01636e-09 0)
(1.53896e-10 -1.90212e-09 0)
(1.63279e-10 -1.84411e-09 0)
(1.22024e-10 -1.92398e-09 0)
(2.42448e-11 -2.13009e-09 0)
(-1.02327e-11 -6.62318e-10 0)
(-1.08532e-11 -7.83177e-10 0)
(-6.17438e-11 -1.87791e-09 0)
(-5.61137e-11 -1.90022e-09 0)
(-2.1659e-11 -1.91685e-09 0)
(-1.72262e-11 -1.92706e-09 0)
(2.87055e-11 -2.05677e-09 0)
(-9.02468e-12 -1.87824e-09 0)
(-1.63534e-11 -1.86951e-09 0)
(2.85107e-12 -1.88597e-09 0)
(1.83983e-11 -2.34728e-09 0)
(7.42694e-11 -4.32432e-09 0)
(5.15602e-11 -2.25377e-09 0)
(0 0 0)
(2.80311e-11 -1.8044e-09 0)
(2.54481e-11 -1.96128e-09 0)
(-8.96007e-11 -3.23647e-09 0)
(-1.01056e-11 -4.25919e-10 0)
(2.87779e-11 -1.7712e-09 0)
(0 0 0)
(-4.97815e-11 -4.97356e-09 0)
(2.53765e-11 -2.01977e-09 0)
(4.11521e-11 -2.56622e-09 0)
(-5.13166e-11 -2.92247e-09 0)
(-1.55536e-10 -1.68596e-09 0)
(0 0 0)
(0 0 0)
(0 0 0)
(0 0 0)
(0 0 0)
(0 0 0)
(0 0 0)
(0 0 0)
(0 0 0)
(0 0 0)
(0 0 0)
(0 0 0)
(0 0 0)
(0 0 0)
(0 0 0)
(0 0 0)
(0 0 0)
(0 0 0)
(0 0 0)
(0 0 0)
(0 0 0)
(0 0 0)
(0 0 0)
(0 0 0)
(0 0 0)
(0 0 0)
(-5.934e-11 -2.13711e-09 0)
(-6.77828e-11 -1.98859e-09 0)
(0 0 0)
(0 0 0)
(0 0 0)
(0 0 0)
(0 0 0)
(0 0 0)
(0 0 0)
(-1.67063e-10 -2.14193e-09 0)
(1.08519e-11 -2.2899e-09 0)
(0 0 0)
(0 0 0)
(0 0 0)
(-4.50596e-11 -4.09671e-09 0)
(1.55789e-11 -1.82778e-09 0)
(1.5432e-11 -1.9317e-09 0)
(8.16888e-11 -1.98452e-09 0)
(6.15862e-11 -1.91114e-09 0)
(-3.48876e-11 -1.9017e-09 0)
(3.54709e-11 -3.98509e-09 0)
(1.75621e-10 -1.68386e-09 0)
(7.10104e-11 -4.64432e-09 0)
(2.09852e-11 -2.0746e-09 0)
(0 0 0)
(7.09777e-11 -1.90987e-09 0)
(-6.69328e-12 -1.86866e-09 0)
(3.67355e-12 -1.82528e-09 0)
(-1.69692e-13 -1.84792e-09 0)
(7.64538e-12 -1.83891e-09 0)
(-1.7358e-11 -1.91941e-09 0)
(-5.88539e-11 -1.9498e-09 0)
(-9.20703e-11 -1.91507e-09 0)
(-7.12447e-11 -1.8906e-09 0)
(-2.13615e-12 -1.86878e-09 0)
(-3.45095e-11 -1.94693e-09 0)
(9.26268e-11 -2.49172e-09 0)
(4.87698e-11 -1.72139e-09 0)
(4.75661e-11 -1.92942e-09 0)
(0 0 0)
(0 0 0)
(3.20535e-12 -1.8051e-09 0)
(-4.68142e-11 -1.92597e-09 0)
(-5.99704e-11 -4.66703e-09 0)
(-7.85611e-11 -1.84355e-09 0)
(1.15975e-11 -4.45279e-09 0)
(-8.48222e-11 -1.76418e-09 0)
(-1.01251e-10 -2.76935e-09 0)
(-1.74149e-11 -6.98228e-10 0)
(0 0 0)
(0 0 0)
(0 0 0)
(0 0 0)
(0 0 0)
(0 0 0)
(0 0 0)
(0 0 0)
(0 0 0)
(0 0 0)
(0 0 0)
(0 0 0)
(0 0 0)
(0 0 0)
(0 0 0)
(0 0 0)
(0 0 0)
(0 0 0)
(0 0 0)
(0 0 0)
(0 0 0)
(0 0 0)
(0 0 0)
(0 0 0)
(0 0 0)
(0 0 0)
(0 0 0)
(-1.82496e-12 -2.05741e-09 0)
(-3.54528e-11 -1.89256e-09 0)
(3.43212e-11 -1.9068e-09 0)
(5.31957e-11 -1.90281e-09 0)
(7.28545e-11 -1.90618e-09 0)
(6.89679e-11 -1.97908e-09 0)
(6.17144e-11 -2.07262e-09 0)
(-1.01039e-11 -1.94975e-09 0)
(6.10989e-12 -1.62466e-09 0)
(-9.20343e-11 -1.73586e-09 0)
(-5.20526e-12 -6.10634e-10 0)
(-5.40207e-11 -2.70035e-09 0)
(-9.00985e-11 -3.88749e-09 0)
(-1.03032e-10 -1.91578e-09 0)
(-1.10621e-10 -1.98639e-09 0)
(-4.20413e-11 -1.93166e-09 0)
(-8.54455e-11 -1.90763e-09 0)
(-1.25376e-10 -1.76873e-09 0)
(-1.55872e-10 -4.05834e-09 0)
(1.52733e-12 -1.65006e-09 0)
(5.20883e-11 -4.39984e-09 0)
(2.81977e-12 -1.85408e-09 0)
(1.25609e-10 -1.85623e-09 0)
(1.06061e-10 -1.98587e-09 0)
(1.37686e-10 -1.83921e-09 0)
(8.64292e-11 -1.76981e-09 0)
(5.86367e-11 -1.73687e-09 0)
(1.62815e-11 -1.68518e-09 0)
(2.42827e-12 -1.81474e-09 0)
(3.49199e-12 -1.95948e-09 0)
(-1.18598e-10 -2.02067e-09 0)
(-8.29066e-11 -1.89441e-09 0)
(-4.00298e-11 -1.8886e-09 0)
(-7.70474e-12 -1.92169e-09 0)
(8.06827e-11 -1.80459e-09 0)
(1.7629e-10 -2.08099e-09 0)
(1.28355e-10 -1.95651e-09 0)
(1.04244e-10 -1.88713e-09 0)
(8.27149e-11 -1.97443e-09 0)
(9.9548e-11 -2.02711e-09 0)
(0 0 0)
(0 0 0)
(0 0 0)
(-6.57002e-11 -2.01172e-09 0)
(-1.62103e-10 -2.04314e-09 0)
(-1.81936e-10 -1.99636e-09 0)
(-1.35604e-10 -1.8786e-09 0)
(0 0 0)
(0 0 0)
(0 0 0)
(0 0 0)
(0 0 0)
(0 0 0)
(0 0 0)
(0 0 0)
(0 0 0)
(0 0 0)
(0 0 0)
(0 0 0)
(0 0 0)
(0 0 0)
(0 0 0)
(0 0 0)
(0 0 0)
(0 0 0)
(0 0 0)
(0 0 0)
(0 0 0)
(0 0 0)
(0 0 0)
(0 0 0)
(0 0 0)
(0 0 0)
(0 0 0)
(1.18688e-10 -2.27241e-09 0)
(0 0 0)
(0 0 0)
(1.77594e-10 -3.97568e-09 0)
(8.2825e-11 -1.65261e-09 0)
(1.2653e-10 -1.77621e-09 0)
(2.05136e-10 -5.65593e-09 0)
(9.74042e-12 -4.29679e-10 0)
(8.04393e-11 -1.88985e-09 0)
(-1.05758e-10 -2.028e-09 0)
(-3.65803e-11 -1.96494e-09 0)
(-3.52356e-11 -1.88054e-09 0)
(-6.71426e-11 -1.84828e-09 0)
(-3.84279e-11 -1.81886e-09 0)
(-3.9127e-11 -1.86905e-09 0)
(-3.57901e-11 -1.82856e-09 0)
(-3.78616e-11 -1.82152e-09 0)
(-7.88772e-11 -2.0538e-09 0)
(-4.20346e-11 -8.14913e-10 0)
(-2.28227e-11 -4.12072e-10 0)
(-5.16203e-11 -1.78105e-09 0)
(-3.31728e-11 -3.59002e-09 0)
(4.87367e-11 -2.66981e-09 0)
(2.39627e-11 -1.91471e-09 0)
(9.58255e-11 -1.94774e-09 0)
(1.24578e-10 -2.01347e-09 0)
(1.09303e-10 -1.9733e-09 0)
(1.71347e-10 -4.06627e-09 0)
(-7.90185e-12 -1.63331e-09 0)
(-4.61991e-11 -1.87202e-09 0)
(-4.09802e-11 -2.23585e-09 0)
(0 0 0)
(2.05031e-11 -1.9269e-09 0)
(-2.47927e-11 -1.89455e-09 0)
(2.65076e-12 -1.8654e-09 0)
(-2.0256e-11 -1.92931e-09 0)
(1.05545e-10 -4.57879e-09 0)
(1.10719e-10 -1.84541e-09 0)
(1.29055e-10 -1.82713e-09 0)
(1.24944e-10 -4.26229e-09 0)
(1.60063e-10 -1.81786e-09 0)
(2.25205e-10 -3.17891e-09 0)
(-1.16613e-11 -5.35288e-09 0)
(-2.04163e-11 -1.6117e-09 0)
(1.12448e-11 -1.62252e-09 0)
(-7.40223e-11 -1.8976e-09 0)
(0 0 0)
(0 0 0)
(0 0 0)
(0 0 0)
(0 0 0)
(0 0 0)
(0 0 0)
(0 0 0)
(0 0 0)
(0 0 0)
(0 0 0)
(0 0 0)
(0 0 0)
(0 0 0)
(0 0 0)
(0 0 0)
(0 0 0)
(0 0 0)
(0 0 0)
(0 0 0)
(0 0 0)
(0 0 0)
(0 0 0)
(0 0 0)
(0 0 0)
(0 0 0)
(0 0 0)
(0 0 0)
(0 0 0)
(5.95247e-11 -3.84475e-09 0)
(9.95979e-12 -2.81032e-10 0)
(6.60593e-11 -1.94081e-09 0)
(0 0 0)
(1.18922e-10 -3.84872e-09 0)
(5.24105e-11 -3.88118e-09 0)
(1.75112e-11 -2.83856e-09 0)
(1.38796e-10 -2.99023e-09 0)
(-3.52734e-11 -2.18853e-09 0)
(-1.32834e-11 -4.51103e-10 0)
(-3.31787e-11 -1.04311e-09 0)
(-1.49011e-11 -1.88394e-09 0)
(2.27087e-11 -4.30628e-09 0)
(-4.06028e-11 -1.66902e-09 0)
(-1.58807e-12 -1.83516e-09 0)
(0 0 0)
(-1.20983e-11 -1.72413e-09 0)
(-2.2463e-11 -2.26511e-09 0)
(0 0 0)
(-1.27217e-10 -1.78177e-09 0)
(-4.98869e-11 -1.85049e-09 0)
(2.30523e-11 -2.29325e-09 0)
(4.82203e-11 -2.06807e-09 0)
(1.04491e-10 -1.84467e-09 0)
(8.2152e-11 -1.80564e-09 0)
(9.44666e-11 -2.54865e-09 0)
(3.65349e-11 -3.04586e-09 0)
(1.19498e-12 -4.19964e-09 0)
(-2.59384e-11 -1.62936e-09 0)
(-3.66455e-11 -1.81609e-09 0)
(0 0 0)
(1.25517e-10 -1.99912e-09 0)
(4.44772e-11 -1.99116e-09 0)
(-2.74297e-11 -1.93468e-09 0)
(-4.73207e-11 -1.89011e-09 0)
(-1.39598e-11 -1.90477e-09 0)
(-5.48883e-11 -1.72934e-09 0)
(-3.38483e-11 -2.79487e-09 0)
(1.25616e-10 -3.5636e-09 0)
(8.30821e-11 -1.7842e-09 0)
(1.03466e-10 -1.6895e-09 0)
(-4.83159e-11 -4.55507e-09 0)
(-1.75633e-11 -1.77776e-09 0)
(-1.09162e-11 -1.64989e-09 0)
(4.23038e-11 -4.66117e-09 0)
(0 0 0)
(0 0 0)
(0 0 0)
(0 0 0)
(0 0 0)
(0 0 0)
(0 0 0)
(0 0 0)
(0 0 0)
(0 0 0)
(0 0 0)
(0 0 0)
(0 0 0)
(0 0 0)
(0 0 0)
(0 0 0)
(0 0 0)
(0 0 0)
(0 0 0)
(0 0 0)
(0 0 0)
(0 0 0)
(0 0 0)
(0 0 0)
(0 0 0)
(0 0 0)
(0 0 0)
(0 0 0)
(0 0 0)
(0 0 0)
(1.02106e-10 -1.92207e-09 0)
(3.02527e-11 -2.01475e-09 0)
(6.46457e-11 -1.87192e-09 0)
(6.44778e-11 -1.80812e-09 0)
(-3.56326e-11 -1.82739e-09 0)
(-9.95733e-11 -1.80753e-09 0)
(0 0 0)
(-9.24245e-11 -2.08964e-09 0)
(2.56575e-12 -2.2872e-09 0)
(1.00147e-10 -2.01693e-09 0)
(8.28715e-11 -1.96102e-09 0)
(7.84413e-11 -1.94842e-09 0)
(-3.43977e-11 -1.95029e-09 0)
(-2.1631e-11 -1.76094e-09 0)
(-3.86992e-11 -1.85544e-09 0)
(0 0 0)
(-6.16263e-12 -1.86817e-09 0)
(4.21675e-11 -2.22575e-09 0)
(-5.81591e-13 -2.06112e-10 0)
(-1.38003e-11 -1.75143e-09 0)
(-7.13001e-11 -1.89524e-09 0)
(-4.18346e-12 -4.26978e-10 0)
(3.02409e-11 -3.54477e-09 0)
(3.74539e-11 -1.94517e-09 0)
(1.53556e-11 -1.92706e-09 0)
(1.73993e-10 -4.17154e-09 0)
(2.58204e-11 -1.89577e-09 0)
(-1.75884e-11 -1.78363e-09 0)
(-3.20286e-11 -1.81486e-09 0)
(-6.65158e-12 -1.83745e-09 0)
(7.42733e-11 -1.963e-09 0)
(1.20656e-10 -2.03802e-09 0)
(2.17875e-11 -1.98163e-09 0)
(-7.23383e-11 -1.91015e-09 0)
(-9.38134e-11 -1.92649e-09 0)
(-7.1414e-11 -1.97462e-09 0)
(-8.25638e-11 -1.80178e-09 0)
(-4.86848e-11 -1.85365e-09 0)
(-1.57312e-11 -2.01688e-09 0)
(4.35706e-11 -1.81449e-09 0)
(2.38535e-11 -3.92454e-09 0)
(5.69083e-11 -4.00284e-09 0)
(1.45671e-10 -2.49785e-09 0)
(-7.17817e-11 -3.41035e-09 0)
(-2.05164e-11 -1.84941e-09 0)
(-3.89473e-11 -2.2176e-09 0)
(0 0 0)
(0 0 0)
(0 0 0)
(0 0 0)
(0 0 0)
(0 0 0)
(0 0 0)
(0 0 0)
(0 0 0)
(0 0 0)
(0 0 0)
(0 0 0)
(0 0 0)
(0 0 0)
(0 0 0)
(0 0 0)
(0 0 0)
(0 0 0)
(0 0 0)
(0 0 0)
(0 0 0)
(0 0 0)
(0 0 0)
(0 0 0)
(0 0 0)
(0 0 0)
(0 0 0)
(0 0 0)
(0 0 0)
(6.12938e-11 -1.85644e-09 0)
(1.06366e-10 -3.58854e-09 0)
(1.96162e-10 -2.36794e-09 0)
(8.51424e-11 -1.78409e-09 0)
(3.56055e-11 -1.93287e-09 0)
(-1.00785e-10 -1.91364e-09 0)
(-8.70885e-11 -1.94556e-09 0)
(-4.76796e-12 -2.36892e-10 0)
(-3.30834e-11 -1.59066e-09 0)
(2.44052e-11 -1.98264e-09 0)
(3.96597e-11 -1.9393e-09 0)
(5.39419e-11 -2.15084e-09 0)
(0 0 0)
(-1.69841e-11 -1.79391e-09 0)
(5.11162e-11 -1.87119e-09 0)
(-7.75072e-12 -8.11751e-10 0)
(-4.4322e-12 -4.15989e-10 0)
(-3.94599e-11 -3.32472e-09 0)
(-3.37401e-11 -3.0339e-09 0)
(-2.6285e-11 -1.84475e-09 0)
(-5.14418e-11 -1.80644e-09 0)
(-2.3029e-11 -6.43745e-10 0)
(-3.05551e-11 -7.41257e-10 0)
(-5.12958e-12 -1.85852e-09 0)
(-3.67612e-11 -1.9859e-09 0)
(4.12911e-11 -1.80832e-09 0)
(3.71797e-11 -2.0549e-09 0)
(-3.82388e-11 -2.03801e-09 0)
(0 0 0)
(-2.47347e-11 -3.8921e-09 0)
(8.26909e-11 -1.73372e-09 0)
(2.61532e-10 -4.47192e-09 0)
(7.43167e-11 -1.93838e-09 0)
(-2.20439e-11 -1.89583e-09 0)
(-5.38949e-11 -1.81034e-09 0)
(-2.15919e-11 -1.71065e-09 0)
(-4.17373e-11 -1.7334e-09 0)
(0 0 0)
(-2.21654e-11 -1.87761e-09 0)
(-4.53528e-11 -1.96025e-09 0)
(-3.7249e-11 -1.96621e-09 0)
(6.6869e-11 -1.98774e-09 0)
(6.04313e-11 -5.09884e-09 0)
(-9.22039e-11 -1.89509e-09 0)
(-1.23787e-10 -1.82183e-09 0)
(-4.66475e-11 -1.8651e-09 0)
(1.80828e-11 -1.85742e-09 0)
(0 0 0)
(0 0 0)
(0 0 0)
(0 0 0)
(0 0 0)
(0 0 0)
(0 0 0)
(0 0 0)
(0 0 0)
(0 0 0)
(0 0 0)
(0 0 0)
(0 0 0)
(0 0 0)
(0 0 0)
(0 0 0)
(0 0 0)
(0 0 0)
(0 0 0)
(0 0 0)
(0 0 0)
(0 0 0)
(0 0 0)
(0 0 0)
(0 0 0)
(0 0 0)
(0 0 0)
(0 0 0)
(1.56702e-10 -3.61312e-09 0)
(1.10514e-10 -1.77333e-09 0)
(9.2846e-11 -1.79015e-09 0)
(1.09657e-10 -3.52951e-09 0)
(-7.07107e-11 -2.54652e-09 0)
(0 0 0)
(-3.73795e-11 -1.8108e-09 0)
(-3.14422e-11 -1.95719e-09 0)
(-2.9364e-12 -1.91196e-10 0)
(-3.20576e-11 -1.79371e-09 0)
(-2.5102e-11 -1.89444e-09 0)
(2.9063e-11 -2.06039e-09 0)
(9.66112e-11 -2.09414e-09 0)
(5.77585e-11 -1.98617e-09 0)
(4.67789e-11 -1.89468e-09 0)
(4.9993e-11 -1.94819e-09 0)
(-7.54945e-12 -1.9037e-09 0)
(3.05869e-11 -1.78491e-09 0)
(-3.17934e-11 -1.875e-09 0)
(6.06617e-11 -1.8482e-09 0)
(6.12624e-11 -1.8143e-09 0)
(-6.0094e-11 -1.93137e-09 0)
(0 0 0)
(-1.1277e-12 -1.83592e-09 0)
(1.95251e-11 -7.48325e-10 0)
(1.66642e-11 -5.70349e-10 0)
(-1.67937e-11 -1.99477e-09 0)
(-8.67086e-11 -2.18904e-09 0)
(0 0 0)
(0 0 0)
(1.04407e-10 -3.82183e-09 0)
(-3.18088e-11 -1.86736e-09 0)
(1.04938e-10 -4.76195e-09 0)
(1.2038e-11 -1.78721e-09 0)
(-2.1179e-11 -1.78429e-09 0)
(-1.18116e-10 -2.98014e-09 0)
(-2.61772e-11 -4.98302e-10 0)
(-1.71092e-10 -3.70071e-09 0)
(-3.04463e-10 -6.30156e-09 0)
(-4.15171e-11 -4.2902e-09 0)
(-2.20281e-11 -1.78259e-09 0)
(-2.78e-11 -2.16239e-09 0)
(-6.46991e-11 -2.34143e-09 0)
(-3.92974e-11 -2.06231e-09 0)
(-7.18739e-11 -1.73978e-09 0)
(-9.00098e-12 -1.64414e-09 0)
(0 0 0)
(0 0 0)
(0 0 0)
(0 0 0)
(0 0 0)
(0 0 0)
(0 0 0)
(0 0 0)
(0 0 0)
(0 0 0)
(0 0 0)
(0 0 0)
(0 0 0)
(0 0 0)
(0 0 0)
(0 0 0)
(0 0 0)
(0 0 0)
(0 0 0)
(0 0 0)
(0 0 0)
(0 0 0)
(0 0 0)
(0 0 0)
(0 0 0)
(0 0 0)
(0 0 0)
(0 0 0)
(0 0 0)
(1.54549e-10 -3.2679e-09 0)
(9.8788e-11 -1.7077e-09 0)
(1.89531e-10 -3.95887e-09 0)
(8.63573e-11 -1.86941e-09 0)
(0 0 0)
(-1.62121e-11 -1.78764e-09 0)
(2.42753e-11 -1.89597e-09 0)
(1.42691e-11 -1.97516e-09 0)
(-1.78257e-11 -1.99958e-09 0)
(0 0 0)