/*--------------------------------*- C++ -*----------------------------------*\
  =========                 |
  \\      /  F ield         | OpenFOAM: The Open Source CFD Toolbox
   \\    /   O peration     | Website:  https://openfoam.org
    \\  /    A nd           | Version:  12
     \\/     M anipulation  |
\*---------------------------------------------------------------------------*/
FoamFile
{
    format      ascii;
    class       volScalarField::Internal;
    location    "0.55";
    object      cloud:UCoeff;
}
// * * * * * * * * * * * * * * * * * * * * * * * * * * * * * * * * * * * * * //

dimensions      [1 0 0 0 0 0 0];

value           nonuniform List<scalar> 
3750
(
5.46734e-08
5.66335e-08
5.64537e-08
5.61884e-08
5.62723e-08
5.56892e-08
1.8361e-08
9.07493e-08
6.19337e-08
1.21352e-07
5.60248e-08
5.57215e-08
5.45773e-08
5.48186e-08
1.29864e-07
5.4125e-08
5.40575e-08
9.08212e-08
8.4547e-08
5.35587e-08
3.05068e-08
5.42544e-09
1.25338e-07
5.49594e-08
5.40929e-08
5.57257e-08
5.4956e-08
5.31623e-08
5.3076e-08
6.19642e-08
4.91885e-08
5.76041e-08
5.60371e-08
5.50487e-08
5.31527e-08
1.28063e-07
5.44274e-08
5.27974e-08
5.39724e-08
5.5075e-08
5.43957e-08
0
5.5577e-08
5.60299e-08
5.56648e-08
1.31656e-07
5.3571e-08
5.49883e-08
5.60373e-08
5.70219e-08
5.58968e-08
5.61053e-08
1.57534e-08
2.69149e-08
1.34225e-07
5.28763e-08
0
0
0
0
0
0
0
0
0
0
0
0
0
0
0
0
0
0
0
2.59197e-08
5.6529e-08
0
5.57091e-08
5.5918e-08
5.40689e-08
5.493e-08
5.6222e-08
5.64266e-08
0
5.72159e-08
0
5.56799e-08
5.44667e-08
7.34269e-08
2.00405e-07
1.33139e-07
5.24885e-08
1.28019e-07
5.37865e-08
0
0
0
5.43276e-08
5.41932e-08
5.45826e-08
5.52126e-08
5.53597e-08
8.9447e-08
8.8666e-08
0
0
5.5181e-08
0
1.24461e-07
1.52631e-07
1.00835e-07
5.04245e-08
5.57591e-08
0
0
5.49664e-08
5.57702e-08
5.4926e-08
5.35765e-08
5.44716e-08
5.58153e-08
5.4679e-08
5.53799e-08
5.52639e-08
5.23135e-08
0
0
0
0
0
0
0
0
0
0
0
0
0
0
0
0
0
0
0
0
0
0
0
0
5.59148e-08
5.53751e-08
5.5886e-08
5.42387e-08
1.30931e-07
0
0
5.45154e-08
5.52286e-08
5.59213e-08
1.34455e-07
5.46265e-08
5.60593e-08
0
5.56927e-08
5.24052e-08
5.2706e-08
5.51132e-08
0
5.37667e-08
5.37124e-08
5.49208e-08
5.51711e-08
5.55784e-08
5.4895e-08
0
1.28832e-07
1.28005e-07
9.7119e-08
7.46658e-08
5.36205e-08
5.37498e-08
5.51417e-08
5.4958e-08
1.35934e-07
7.74143e-09
4.02296e-08
5.5019e-08
5.55187e-08
5.49678e-08
5.62093e-08
5.56166e-08
5.38761e-08
1.34525e-07
5.28161e-08
7.80168e-08
1.06883e-07
0
6.31886e-08
4.94739e-08
0
0
0
0
0
0
0
0
0
0
0
0
0
0
0
0
0
0
0
0
0
0
0
0
0
1.33478e-07
5.51731e-08
0
5.46101e-08
0
5.30728e-08
5.4733e-08
5.5539e-08
5.50209e-08
5.35565e-08
0
5.3019e-08
5.61259e-08
5.59489e-08
0
1.40155e-07
4.46889e-08
5.48609e-08
5.48062e-08
5.51844e-08
5.51193e-08
5.46726e-08
5.40513e-08
1.31561e-07
5.29664e-08
2.25625e-07
5.24071e-08
5.3807e-08
5.42249e-08
5.45997e-08
5.48967e-08
5.47354e-08
5.57485e-08
5.47369e-08
5.64589e-08
5.6945e-08
5.61032e-08
5.54291e-08
5.46509e-08
5.48943e-08
5.48668e-08
5.51e-08
5.58677e-08
5.55952e-08
5.31657e-08
1.28119e-07
5.20856e-08
0
0
0
0
0
0
0
0
0
0
0
0
0
0
0
0
0
0
0
0
0
0
0
0
0
0
0
0
5.64868e-08
0
5.53642e-08
5.6055e-08
0
5.50479e-08
5.46714e-08
5.49303e-08
5.55656e-08
5.40452e-08
5.55192e-08
5.82354e-08
0
5.59374e-08
5.57625e-08
0
5.31748e-08
9.43085e-08
8.08714e-08
5.52099e-08
5.4659e-08
5.42628e-08
9.91233e-08
6.99088e-08
5.30031e-08
0
5.0613e-08
5.48504e-08
5.56002e-08
5.58514e-08
5.59834e-08
5.55907e-08
5.4821e-08
5.39224e-08
5.58811e-08
5.66528e-08
5.55391e-08
1.35063e-07
5.43624e-08
5.42068e-08
5.42834e-08
0
0
0
7.80201e-08
1.02962e-07
5.33617e-08
5.3215e-08
0
0
0
0
0
0
0
0
0
0
0
0
0
0
0
0
0
0
0
0
0
0
0
0
0
0
0
0
5.67425e-08
1.51338e-08
2.61842e-08
5.50391e-08
5.45441e-08
5.57656e-08
5.6967e-08
0
5.55145e-08
5.52022e-08
5.68986e-08
5.7337e-08
5.59384e-08
5.72951e-08
0
1.28505e-07
5.32093e-08
5.49178e-08
1.33391e-07
5.39441e-08
5.37729e-08
5.35883e-08
5.24995e-08
5.24972e-08
5.45106e-08
5.50493e-08
5.61671e-08
5.55203e-08
5.68216e-08
5.578e-08
5.55874e-08
5.37371e-08
5.47527e-08
5.65489e-08
5.62957e-08
5.52396e-08
5.56845e-08
5.50652e-08
5.47308e-08
5.44395e-08
5.53765e-08
5.46006e-08
1.31139e-07
0
0
5.5121e-08
5.55777e-08
0
0
0
0
0
0
0
0
0
0
0
0
0
0
0
0
0
0
0
0
0
0
0
0
0
0
0
5.6529e-08
5.58457e-08
5.48788e-08
5.6403e-08
0
1.27897e-07
5.49898e-08
5.72274e-08
5.67071e-08
5.49626e-08
5.49788e-08
5.53362e-08
5.57613e-08
5.56257e-08
1.37316e-07
1.27812e-07
5.12375e-08
5.33143e-08
5.42322e-08
5.58746e-08
5.60265e-08
5.55215e-08
5.49471e-08
5.34965e-08
5.46006e-08
5.55526e-08
5.63644e-08
2.53587e-09
5.14078e-08
9.9889e-08
8.3265e-08
5.49957e-08
5.19249e-08
0
5.47116e-08
5.70738e-08
5.58171e-08
5.56498e-08
8.66207e-08
9.31266e-08
5.29535e-08
5.26522e-08
8.17874e-08
2.77212e-08
5.44054e-08
8.13098e-08
2.53972e-08
5.53046e-08
0
0
0
0
0
0
0
0
0
0
0
0
0
0
0
0
0
0
0
0
0
0
0
0
0
0
0
5.76923e-08
5.44884e-08
5.35328e-08
5.53974e-08
0
5.54329e-08
8.10517e-08
2.92043e-08
5.54792e-08
5.48973e-08
5.44077e-08
1.34518e-07
5.25346e-08
2.39967e-07
5.24392e-08
5.11492e-08
5.42665e-08
5.48728e-08
0
5.48028e-08
5.61471e-08
5.64035e-08
5.61674e-08
0
5.30243e-08
5.45401e-08
5.48992e-08
5.51501e-08
5.58376e-08
9.06288e-08
9.63715e-08
5.86854e-09
4.46307e-08
5.55528e-08
5.82899e-08
0
5.54301e-08
5.56102e-08
5.62474e-08
5.60404e-08
9.74191e-08
7.8067e-08
5.36858e-08
5.55858e-08
5.44018e-08
1.30186e-07
5.1913e-08
5.35922e-08
0
0
0
0
0
0
0
0
0
0
0
0
0
0
0
0
0
0
0
0
0
0
0
0
0
0
0
5.67082e-08
5.53226e-08
5.36353e-08
1.30192e-07
5.17726e-08
1.28194e-07
8.1735e-08
9.49124e-08
0
5.48581e-08
5.53659e-08
1.06407e-07
6.87299e-08
7.74571e-08
1.05257e-07
5.57819e-08
0
5.52105e-08
5.50899e-08
1.79733e-08
2.20721e-08
5.58718e-08
5.60194e-08
5.58436e-08
5.40303e-08
5.39534e-08
5.35715e-08
5.44896e-08
5.47183e-08
5.41885e-08
5.59811e-08
5.66053e-08
5.42731e-08
5.54379e-08
5.65353e-08
0
5.45945e-08
5.62092e-08
5.66202e-08
2.07262e-08
1.79628e-08
5.55268e-08
5.41909e-08
5.61051e-08
5.70057e-08
0
1.31767e-07
5.21955e-08
0
0
0
0
0
0
0
0
0
0
0
0
0
0
0
0
0
0
0
0
0
0
0
0
0
0
0
5.51466e-08
5.37454e-08
1.33534e-07
5.32381e-08
1.29244e-07
1.30963e-07
5.23126e-08
1.26459e-07
5.06965e-08
5.35691e-08
5.53609e-08
5.5966e-08
5.62069e-08
5.54842e-08
5.40747e-08
5.82303e-08
0
5.5033e-08
5.7346e-08
0
5.52875e-08
5.52401e-08
8.33246e-10
5.50493e-08
5.50089e-08
5.46504e-08
5.54634e-08
8.48231e-08
9.42138e-08
5.37425e-08
5.43867e-08
5.44775e-08
5.48364e-08
2.41274e-08
1.15413e-08
5.56505e-08
5.62919e-08
5.69606e-08
0
5.59815e-08
5.69234e-08
0
5.38817e-08
5.78967e-08
5.83943e-09
1.2846e-07
5.36949e-08
5.22078e-08
5.21112e-08
0
0
0
0
0
0
0
0
0
0
0
0
0
0
0
0
0
0
0
0
0
0
0
0
0
0
5.56598e-08
5.36751e-08
5.39647e-08
1.35587e-07
5.37524e-08
5.84849e-08
1.2465e-07
1.25299e-07
1.26017e-07
5.30449e-08
5.3876e-08
5.58452e-08
5.53265e-08
5.498e-08
0
1.33689e-07
5.52112e-08
5.34824e-08
7.63606e-09
6.70034e-08
2.85092e-08
5.43592e-08
5.66169e-08
5.62296e-08
5.63739e-08
0
5.46367e-08
5.63151e-08
8.18685e-09
1.12862e-07
5.40138e-08
1.30962e-07
5.31154e-08
5.44339e-08
5.39639e-08
5.60938e-08
0
5.65411e-08
5.58378e-08
5.62856e-08
5.51895e-08
0
5.45572e-08
5.89399e-08
0
5.83855e-08
5.3592e-08
5.26983e-08
5.30329e-08
5.35448e-08
0
0
0
0
0
0
0
0
0
0
0
0
0
0
0
0
0
0
0
0
0
0
0
0
0
5.64757e-08
5.56054e-08
5.60456e-08
5.63552e-08
5.61385e-08
5.61457e-08
5.58928e-08
5.46647e-08
5.4586e-08
1.33444e-07
5.35077e-08
5.36782e-08
1.07005e-07
1.47168e-07
0
0
5.46894e-08
5.54764e-08
5.62173e-08
5.62045e-08
5.49991e-08
5.43701e-08
5.52121e-08
5.73661e-08
1.83339e-08
2.22689e-08
5.46754e-08
5.49189e-08
5.50933e-08
5.52043e-08
5.65983e-08
5.46681e-08
5.45722e-08
5.47532e-08
7.00404e-08
1.19068e-07
5.86401e-08
0
5.38473e-08
5.55767e-08
9.56791e-08
1.2627e-08
5.34726e-08
0
1.3906e-07
5.6205e-08
7.98309e-08
9.5089e-08
5.25749e-08
0
0
0
0
0
0
0
0
0
0
0
0
0
0
0
0
0
0
0
0
0
0
0
0
0
0
5.74465e-08
5.58819e-08
0
0
0
0
0
0
0
5.75553e-08
5.89994e-08
0
0
0
1.30078e-07
5.4108e-08
5.52547e-08
5.58439e-08
5.50405e-08
5.49295e-08
1.28898e-07
5.25736e-08
1.35776e-07
5.67853e-08
0
5.503e-08
5.45621e-08
5.40794e-08
5.43318e-08
5.42317e-08
5.51208e-08
5.54605e-08
5.50968e-08
5.48189e-08
5.45633e-08
5.5423e-08
6.85871e-08
4.5667e-08
5.52356e-08
0
0
5.38529e-08
5.51977e-08
1.35999e-07
5.4302e-08
1.33818e-07
5.34133e-08
8.49057e-08
2.12046e-08
0
0
0
0
0
0
0
0
0
0
0
0
0
0
0
0
0
0
0
0
0
0
0
0
0
0
0
5.66029e-08
5.48293e-08
5.49853e-08
5.49464e-08
5.49905e-08
5.578e-08
5.67729e-08
5.54505e-08
5.17737e-08
5.30952e-08
1.80715e-08
8.79057e-08
1.27817e-07
5.51107e-08
5.5879e-08
5.52586e-08
5.50121e-08
5.34926e-08
1.29685e-07
5.20722e-08
1.33271e-07
5.44004e-08
5.44717e-08
5.58707e-08
5.42925e-08
5.34781e-08
5.30899e-08
5.24832e-08
5.39613e-08
5.55556e-08
5.625e-08
5.4866e-08
5.47867e-08
5.5145e-08
5.38676e-08
5.69299e-08
5.55691e-08
5.47977e-08
5.57357e-08
5.63074e-08
0
0
0
5.61286e-08
5.65201e-08
5.60419e-08
5.4726e-08
0
0
0
0
0
0
0
0
0
0
0
0
0
0
0
0
0
0
0
0
0
0
0
0
0
0
0
5.88537e-08
0
0
1.28813e-07
5.21267e-08
5.3578e-08
1.79401e-07
1.29967e-08
5.48146e-08
5.63205e-08
5.56183e-08
5.46969e-08
5.43495e-08
5.4012e-08
5.45708e-08
5.412e-08
5.40417e-08
5.65804e-08
2.31671e-08
1.21597e-08
5.35901e-08
1.03162e-07
7.70703e-08
5.50702e-08
5.54542e-08
5.61774e-08
5.79251e-08
1.27007e-07
5.18754e-08
5.46055e-08
5.84561e-08
0
5.52029e-08
5.48493e-08
5.45259e-08
5.85802e-08
1.30677e-07
5.4341e-08
5.4151e-08
1.31852e-07
5.40754e-08
9.51978e-08
1.71854e-07
5.16211e-08
5.17473e-08
5.48972e-08
0
0
0
0
0
0
0
0
0
0
0
0
0
0
0
0
0
0
0
0
0
0
0
0
0
0
0
0
0
1.05764e-07
7.56643e-09
5.53654e-08
0
1.27411e-07
1.27792e-07
8.87338e-08
8.82228e-08
5.79718e-08
1.292e-08
3.06511e-08
5.47314e-08
1.32291e-07
5.22999e-08
5.41897e-08
0
5.29329e-08
5.87491e-08
0
5.36413e-08
5.43679e-08
5.90318e-08
5.67216e-08
5.43287e-08
5.38799e-08
7.81937e-08
9.8283e-08
1.31156e-07
5.1831e-08
5.39806e-08
0
5.60246e-08
5.59024e-08
5.52886e-08
5.48052e-08
5.49603e-08
5.30022e-08
8.17974e-08
1.02608e-07
5.3639e-08
5.25692e-08
1.34874e-07
5.35453e-08
5.207e-08
1.35933e-07
0
0
0
0
0
0
0
0
0
0
0
0
0
0
0
0
0
0
0
0
0
0
0
0
0
0
0
0
0
0
5.51788e-08
5.6152e-08
5.46104e-08
5.38998e-08
5.41068e-08
5.39113e-08
0
5.69634e-08
5.89705e-08
5.61997e-08
5.55912e-08
5.54529e-08
5.54594e-08
5.33549e-08
5.44199e-08
0
5.45566e-08
5.83528e-08
5.54e-09
4.72454e-08
5.48699e-08
1.23893e-08
1.05818e-07
5.54045e-08
5.62488e-08
1.29577e-07
5.48627e-08
5.36117e-08
5.39657e-08
5.42154e-08
5.56088e-08
5.64351e-08
5.57959e-08
5.50338e-08
5.52222e-08
5.5733e-08
5.3837e-08
5.44026e-08
5.61727e-08
5.39642e-08
1.28223e-07
1.29075e-07
7.38852e-08
1.07068e-07
5.43497e-08
5.82695e-08
0
0
0
0
0
0
0
0
0
0
0
0
0
0
0
0
0
0
0
0
0
0
0
0
0
0
0
0
0
5.44378e-08
1.04249e-07
7.26646e-08
5.36391e-08
5.52702e-08
5.50861e-08
5.5426e-08
6.53877e-09
4.42551e-08
5.58072e-08
5.5341e-08
5.75874e-08
0
5.37278e-08
5.45977e-08
2.30754e-08
1.22684e-08
9.57269e-08
8.66446e-08
5.42987e-08
5.38762e-08
1.82192e-08
2.15004e-08
5.44497e-08
5.58442e-08
5.38944e-08
5.65794e-08
5.64014e-08
0
1.27872e-07
5.30653e-08
1.34083e-07
5.53423e-08
5.4863e-08
5.39208e-08
5.27787e-08
5.30445e-08
0
5.46623e-08
5.55695e-08
5.56322e-08
5.58724e-08
1.40259e-07
5.48783e-08
5.40879e-08
5.45291e-08
5.44384e-08
0
0
0
0
0
0
0
0
0
0
0
0
0
0
0
0
0
0
0
0
0
0
0
0
0
0
0
0
1.15541e-07
5.35333e-08
5.37117e-08
1.06372e-07
7.06772e-08
0
5.39211e-08
5.55335e-08
5.12574e-09
4.81653e-08
5.48481e-08
5.66363e-08
5.7013e-08
5.58525e-08
5.48553e-08
5.54402e-08
5.49481e-08
5.36282e-08
5.46351e-08
5.43461e-08
5.39679e-08
5.52606e-08
0
5.41982e-08
2.10609e-08
1.65168e-08
5.59363e-08
5.79914e-08
0
0
1.27118e-07
5.45506e-08
1.36961e-07
5.36515e-08
5.36195e-08
9.07166e-08
1.55239e-08
1.25801e-07
2.21956e-07
1.32118e-07
5.36006e-08
5.76992e-08
5.9521e-08
5.66587e-08
5.31287e-08
5.2003e-08
0
0
0
0
0
0
0
0
0
0
0
0
0
0
0
0
0
0
0
0
0
0
0
0
0
0
0
0
0
1.07273e-07
5.27762e-08
1.28646e-07
5.45923e-08
0
5.36569e-08
5.48649e-08
5.57254e-08
5.59881e-08
0
5.54589e-08
5.56809e-08
8.10447e-08
6.40416e-08
5.24248e-08
4.93038e-08
4.8168e-08
3.80386e-08
5.57911e-08
5.46274e-08
5.55059e-08
5.52939e-08
0
5.46792e-08
5.54602e-08
5.89335e-08
5.9344e-08
6.95805e-09
4.31117e-08
1.26553e-07
5.30913e-08
1.34382e-07
5.39582e-08
5.46583e-08
5.48505e-08
8.58776e-08
4.06512e-08
3.53485e-08
5.43363e-08
5.57348e-08
5.58083e-08
1.3926e-07
5.67362e-08
5.5799e-08
5.48801e-08
5.4134e-08
0
0
0
0
0
0
0
0
0
0
0
0
0
0
0
0
0
0
0
0
0
0
0
0
0
0
0
0
0
1.16078e-07
1.28216e-07
5.14607e-08
1.33725e-07
5.45596e-08
5.46712e-08
7.53437e-09
4.24776e-08
5.5608e-08
5.52962e-08
5.56535e-08
5.66003e-08
1.95954e-08
2.00632e-08
5.49841e-08
5.50638e-08
5.50688e-08
5.55099e-08
5.43115e-08
5.53068e-08
5.57221e-08
0
5.43389e-08
5.49306e-08
5.49988e-08
5.67491e-08
5.84107e-08
1.61824e-08
9.05481e-08
9.07482e-08
8.17127e-08
5.42728e-08
5.47029e-08
1.06553e-07
7.35663e-08
1.81495e-08
2.22105e-08
5.38753e-08
5.56294e-08
6.00512e-08
0
5.67176e-08
0
0
0
5.47726e-08
1.33476e-07
5.15535e-08
0
0
0
0
0
0
0
0
0
0
0
0
0
0
0
0
0
0
0
0
0
0
0
0
0
0
0
5.50332e-08
1.86932e-07
6.74387e-08
5.44184e-08
1.31613e-07
5.19988e-08
5.40418e-08
5.41728e-08
5.47177e-08
5.54337e-08
5.54987e-08
5.71783e-08
2.02198e-09
5.31211e-08
5.60234e-08
5.5288e-08
5.69306e-08
5.5517e-08
5.51823e-08
5.5371e-08
5.5393e-08
0
1.31523e-07
5.41895e-08
9.72355e-08
8.24911e-08
5.52161e-08
5.32759e-08
5.32952e-08
2.62216e-08
1.60547e-08
4.55583e-08
5.49029e-08
5.64183e-08
5.6376e-08
5.61505e-08
1.851e-08
1.79402e-08
5.45592e-08
5.59374e-08
5.73777e-08
5.72988e-08
0
5.6178e-08
1.36774e-07
5.51991e-08
1.30763e-07
5.26708e-08
5.33372e-08
0
0
0
0
0
0
0
0
0
0
0
0
0
0
0
0
0
0
0
0
0
0
0
0
0
0
0
1.25792e-08
1.01648e-07
5.34014e-08
5.4006e-08
1.32664e-07
5.16473e-08
0
5.29702e-08
1.30939e-07
5.40483e-08
5.89333e-08
5.10845e-08
5.56396e-08
5.56383e-08
5.62435e-08
5.48203e-08
5.51032e-08
5.55656e-08
5.44521e-08
5.32658e-08
2.3103e-07
5.34931e-08
5.36171e-08
5.40361e-08
5.59629e-08
5.62626e-08
0
5.47569e-08
5.53485e-08
2.72127e-08
6.11242e-09
5.55157e-08
5.85694e-08
0
5.42828e-08
5.50301e-08
5.43735e-08
5.63936e-08
0
5.74522e-08
5.8016e-08
5.61953e-08
5.58612e-08
0
5.67147e-08
8.36036e-08
9.43979e-08
5.35425e-08
0
0
0
0
0
0
0
0
0
0
0
0
0
0
0
0
0
0
0
0
0
0
0
0
0
0
5.6719e-08
0
0
5.67297e-08
8.43506e-09
1.2004e-07
5.43574e-08
5.36631e-08
5.59712e-08
5.43313e-08
5.8584e-08
1.3237e-07
2.82484e-08
7.0956e-08
5.41929e-08
7.44461e-08
1.05028e-07
5.29164e-08
8.87883e-08
1.72678e-07
5.29803e-08
5.68876e-08
4.29131e-09
4.82674e-08
5.52879e-08
5.65332e-08
5.6775e-08
0
0
5.18063e-08
5.47106e-08
0
5.67064e-08
5.78715e-08
2.52292e-08
1.11359e-08
5.46339e-08
5.45117e-08
5.51971e-08
5.77929e-08
5.84939e-08
5.6858e-08
2.71445e-08
6.97457e-08
5.81042e-08
1.42663e-08
3.91474e-08
9.28584e-08
7.50531e-08
0
0
0
0
0
0
0
0
0
0
0
0
0
0
0
0
0
0
0
0
0
0
0
0
0
0
5.4505e-08
5.29591e-08
1.33132e-07
0
5.42867e-08
5.65945e-08
5.54041e-08
5.59568e-08
5.43095e-08
5.38587e-08
5.41614e-08
5.45148e-08
1.37916e-07
5.38462e-08
1.27303e-07
1.25269e-07
5.4411e-08
1.24475e-07
5.27528e-08
5.48717e-08
5.42853e-08
1.8075e-08
2.377e-08
5.45662e-08
0
5.37193e-08
5.48817e-08
1.29588e-07
1.28606e-07
5.26045e-08
5.30673e-08
5.37349e-08
5.42957e-08
5.72072e-08
3.14147e-08
3.23543e-10
5.5388e-08
5.48523e-08
5.85379e-08
5.61227e-08
5.48891e-08
5.57571e-08
5.53071e-08
5.51594e-08
5.54079e-08
5.52299e-08
9.92981e-08
7.55293e-08
0
0
0
0
0
0
0
0
0
0
0
0
0
0
0
0
0
0
0
0
0
0
0
0
0
0
0
5.41652e-08
1.28908e-07
1.27261e-07
5.22466e-08
5.40284e-08
5.57373e-08
0
5.57541e-08
5.5879e-08
5.64401e-08
5.42119e-08
8.60723e-08
2.67615e-08
6.86902e-08
1.19155e-07
4.94973e-08
2.22271e-07
8.36257e-08
9.01886e-08
3.52831e-09
4.91774e-08
5.60686e-08
0
1.29488e-07
1.29642e-07
5.38677e-08
1.29753e-07
5.4239e-08
5.59682e-08
0
5.47884e-08
5.53403e-08
1.30636e-07
5.47778e-08
5.61663e-08
2.42735e-08
7.57957e-08
5.4662e-08
9.72766e-08
8.09731e-08
5.35229e-08
5.49615e-08
5.51446e-08
5.47025e-08
5.5027e-08
5.61698e-08
0
5.30569e-08
0
0
0
0
0
0
0
0
0
0
0
0
0
0
0
0
0
0
0
0
0
0
0
0
0
0
0
0
5.15828e-08
5.31914e-08
2.26611e-08
1.3275e-08
5.42029e-08
5.48886e-08
5.59755e-08
5.82931e-08
2.12875e-08
3.04768e-08
7.63135e-08
9.54348e-08
5.56142e-08
0
0
5.34708e-08
0
1.27943e-07
1.48955e-07
1.10909e-07
1.28811e-07
5.30646e-08
0
0
5.50211e-08
5.58449e-08
5.6858e-08
0
5.44005e-08
7.10786e-08
3.81212e-08
0
1.36684e-07
5.39748e-08
5.53347e-08
5.38075e-08
5.34929e-08
5.59601e-08
5.63902e-08
5.63942e-08
5.62464e-08
5.59179e-08
5.52139e-08
5.53776e-08
0
5.653e-08
5.52649e-08
0
0
0
0
0
0
0
0
0
0
0
0
0
0
0
0
0
0
0
0
0
0
0
0
0
0
0
1.31913e-07
5.52376e-08
0
5.63233e-08
5.71078e-08
5.84791e-08
2.25416e-08
8.30713e-08
5.36582e-08
5.35245e-08
5.31789e-08
5.45991e-08
1.11946e-07
1.66466e-09
5.4227e-08
5.56996e-08
5.51291e-08
5.44301e-08
5.51959e-08
5.55562e-08
5.51572e-08
5.54748e-08
1.322e-07
5.28673e-08
5.48588e-08
0
5.41064e-08
5.60289e-08
0
5.54868e-08
0
1.31182e-07
1.32216e-07
5.30492e-08
5.37812e-08
5.31114e-08
5.43817e-08
5.53355e-08
1.68429e-08
2.64416e-08
5.60805e-08
5.60613e-08
5.64141e-08
5.58772e-08
5.3393e-08
5.2696e-08
5.43092e-08
5.47658e-08
0
0
0
0
0
0
0
0
0
0
0
0
0
0
0
0
0
0
0
0
0
0
0
0
0
0
0
7.36839e-09
4.04887e-08
5.54862e-08
5.64661e-08
5.49113e-08
5.62437e-08
5.38193e-08
1.35032e-07
5.4159e-08
5.38581e-08
5.28484e-08
1.35938e-07
5.78679e-08
1.83867e-08
2.1542e-08
5.37807e-08
5.37465e-08
9.05734e-08
8.85309e-08
0
2.32007e-09
8.74052e-08
6.56605e-08
6.62006e-09
5.40125e-08
1.29729e-07
7.38832e-08
1.12077e-07
5.47233e-08
7.90271e-08
9.18225e-08
5.33387e-08
1.29655e-07
1.32935e-07
5.18349e-08
1.30101e-07
1.3055e-07
2.53475e-08
3.43859e-08
3.29425e-08
8.96873e-09
3.74397e-08
5.64774e-08
5.58853e-08
5.56831e-08
0
0
5.23457e-08
5.4202e-08
5.28302e-08
0
0
0
0
0
0
0
0
0
0
0
0
0
0
0
0
0
0
0
0
0
0
0
0
0
5.67794e-08
1.9788e-08
1.83275e-08
7.34897e-08
6.43055e-08
3.13419e-08
4.98256e-08
5.71057e-08
1.35499e-07
5.38473e-08
5.32557e-08
5.41167e-08
5.6411e-08
5.47152e-08
5.22746e-08
1.2806e-07
5.29705e-08
5.36135e-08
5.36232e-08
0
5.53075e-08
0
5.49459e-08
0
1.29792e-07
5.35239e-08
5.63165e-08
5.49281e-08
1.97441e-08
1.70198e-08
0
5.34274e-08
5.40086e-08
1.37215e-07
5.31709e-08
0
0
5.5118e-08
5.69215e-08
5.65739e-08
1.32765e-07
5.86458e-08
0
5.52466e-08
5.5117e-08
0
1.3052e-07
5.39328e-08
1.27421e-07
0
0
0
0
0
0
0
0
0
0
0
0
0
0
0
0
0
0
0
0
0
0
0
0
0
0
5.57738e-08
5.607e-08
6.14589e-08
4.75624e-08
5.38008e-08
5.36321e-08
5.39472e-08
5.52897e-08
5.65592e-08
5.44531e-08
5.4103e-08
0
5.57544e-08
1.32119e-07
5.53862e-08
5.45371e-08
5.51283e-08
1.71345e-08
2.41705e-08
5.47975e-08
5.49288e-08
2.69454e-08
7.69893e-08
0
5.64272e-08
0
2.34562e-07
1.28289e-07
4.97592e-08
8.61565e-08
8.94662e-08
5.10124e-08
8.87415e-08
8.77169e-08
5.53451e-08
5.64735e-08
5.52348e-08
5.99743e-08
5.96314e-08
0
5.32901e-08
5.16582e-08
5.66725e-08
5.51157e-08
1.18012e-08
3.29795e-08
5.47663e-08
5.50234e-08
0
0
0
0
0
0
0
0
0
0
0
0
0
0
0
0
0
0
0
0
0
0
0
0
0
0
0
5.58549e-08
8.15036e-08
1.06684e-07
5.40102e-08
5.3012e-08
1.28668e-07
5.2237e-08
1.3501e-07
5.44939e-08
0
5.54199e-08
5.81035e-08
1.34037e-07
2.24368e-08
3.10614e-08
6.42302e-08
2.91773e-08
5.54768e-08
5.51264e-08
5.46806e-08
5.52084e-08
5.60796e-08
0
0
1.36805e-07
5.41043e-08
1.27084e-07
1.27957e-07
4.94939e-08
5.14807e-08
8.44818e-08
9.28004e-08
5.26639e-08
5.46789e-08
5.75041e-08
5.7295e-08
2.75544e-08
6.07364e-08
7.27986e-08
5.50468e-08
5.27837e-08
0
1.29658e-07
0
1.28553e-07
5.36728e-08
5.30462e-08
5.44768e-08
0
0
0
0
0
0
0
0
0
0
0
0
0
0
0
0
0
0
0
0
0
0
0
0
0
0
0
0
0
0
5.44856e-08
1.30607e-07
0
1.28621e-07
5.38101e-08
0
5.30803e-08
5.62802e-08
0
5.60791e-08
5.64317e-08
5.57843e-08
0
5.53549e-08
5.54759e-08
0
5.49049e-08
5.44582e-08
1.31979e-07
5.18325e-08
1.30527e-07
1.35515e-07
5.38151e-08
1.29836e-07
5.21066e-08
5.15494e-08
5.32994e-08
5.41023e-08
5.36342e-08
5.25711e-08
5.43168e-08
5.54971e-08
5.64925e-08
5.67248e-08
5.3893e-08
5.78863e-08
7.86335e-08
3.08664e-08
1.29727e-07
5.41784e-08
5.50544e-08
6.93115e-08
1.09915e-07
5.22772e-08
0
0
0
0
0
0
0
0
0
0
0
0
0
0
0
0
0
0
0
0
0
0
0
0
0
0
0
0
5.80213e-08
5.77859e-08
5.41183e-08
5.30092e-08
5.28821e-08
2.25195e-07
0
5.48552e-08
5.51904e-08
5.58266e-08
1.59248e-08
2.71063e-08
5.77428e-08
5.68291e-08
0
5.57395e-08
3.71541e-09
1.26392e-07
5.40212e-08
5.39499e-08
5.43346e-08
5.50606e-08
5.48539e-08
0
0
0
0
5.33434e-08
5.39367e-08
1.2912e-07
5.51088e-08
5.53936e-08
5.50845e-08
5.38886e-08
5.43633e-08
5.54693e-08
5.58079e-08
5.48992e-08
5.43304e-08
5.49429e-08
5.4434e-08
5.44651e-08
5.50317e-08
5.45955e-08
5.7004e-08
8.22914e-08
9.43287e-08
0
0
0
0
0
0
0
0
0
0
0
0
0
0
0
0
0
0
0
0
0
0
0
0
0
0
0
0
5.71196e-08
5.71607e-08
5.53172e-08
5.20719e-08
5.70432e-08
0
5.02758e-08
5.52115e-08
5.44761e-08
5.96773e-08
1.02917e-07
7.3333e-08
1.31079e-08
3.30346e-08
5.40258e-08
7.31896e-08
1.1224e-07
5.28688e-08
5.34687e-08
5.14518e-08
0
0
2.18912e-08
8.3398e-08
5.39791e-08
5.48795e-08
2.28265e-07
0
5.31151e-08
5.51801e-08
5.51618e-08
5.5794e-08
5.55616e-08
5.59267e-08
5.61377e-08
5.62197e-08
5.62954e-08
5.60733e-08
5.53081e-08
5.47403e-08
1.31665e-07
5.32458e-08
5.32781e-08
5.48633e-08
5.49754e-08
8.63189e-08
2.06694e-08
5.47936e-08
0
0
0
0
0
0
0
0
0
0
0
0
0
0
0
0
0
0
0
0
0
0
0
0
0
0
0
1.41171e-07
5.64607e-08
1.03071e-08
1.02334e-07
5.4131e-08
5.44417e-08
1.34408e-07
5.7042e-08
5.59117e-08
1.33401e-07
5.27321e-08
5.74623e-08
5.68943e-08
5.4444e-08
5.42194e-08
5.30023e-08
1.28845e-07
5.2146e-08
5.38783e-08
5.2859e-08
5.46756e-08
5.53834e-08
5.57516e-08
5.58888e-08
5.46549e-08
1.34788e-07
5.1105e-08
1.24133e-07
5.15062e-08
5.59188e-08
5.79075e-08
0
5.52808e-08
5.5323e-08
5.48895e-08
5.52538e-08
5.37735e-08
1.31077e-07
5.23343e-08
5.37961e-08
7.78778e-08
1.02911e-07
5.31867e-08
5.50217e-08
9.24511e-09
3.80161e-08
5.39198e-08
5.46229e-08
0
0
0
0
0
0
0
0
0
0
0
0
0
0
0
0
0
0
0
0
0
0
0
0
0
0
0
5.98067e-08
0
1.71675e-07
2.21355e-08
5.51042e-08
5.51597e-08
5.59643e-08
5.92211e-08
5.47975e-08
5.32645e-08
5.25348e-08
5.43927e-08
5.40885e-08
1.37082e-07
5.4741e-08
5.36689e-08
5.33141e-08
5.32477e-08
5.39705e-08
6.1998e-08
4.86383e-08
5.37501e-08
5.5555e-08
5.61031e-08
5.51822e-08
5.40004e-08
5.47436e-08
5.19076e-08
5.7956e-08
0
5.59858e-08
5.57497e-08
5.47795e-08
5.45104e-08
1.38228e-07
5.47654e-08
5.3066e-08
5.28759e-08
5.29676e-08
1.36328e-07
5.35715e-08
5.25656e-08
5.46043e-08
5.68213e-08
5.78886e-08
5.59168e-08
5.32271e-08
5.25564e-08
0
0
0
0
0
0
0
0
0
0
0
0
0
0
0
0
0
0
0
0
0
0
0
0
0
0
0
2.78666e-09
1.26749e-07
0
6.31549e-08
5.22413e-08
4.99746e-08
5.33456e-08
5.58829e-08
1.39912e-07
5.35688e-08
5.34825e-08
5.51463e-08
5.56992e-08
5.60024e-08
5.57736e-08
7.96731e-08
1.00231e-07
5.25354e-08
5.20444e-08
5.43101e-08
5.36836e-08
5.54055e-08
1.3358e-07
5.40097e-08
1.29986e-07
5.20461e-08
5.29647e-08
5.32212e-08
5.5788e-08
5.75389e-08
0
5.39278e-08
5.49703e-08
5.47184e-08
1.35332e-07
5.55826e-08
5.46655e-08
5.3125e-08
5.46018e-08
5.30071e-08
0
9.21295e-08
8.34654e-08
5.88952e-08
5.78855e-08
5.33543e-08
5.16011e-08
0
0
0
0
0
0
0
0
0
0
0
0
0
0
0
0
0
0
0
0
0
0
0
0
0
0
0
0
5.34056e-08
5.39084e-08
1.34676e-07
5.7122e-08
5.6481e-08
0
1.27532e-07
1.31992e-07
5.39771e-08
5.4303e-08
5.34978e-08
5.40325e-08
6.85648e-08
1.17408e-07
5.54247e-08
5.47207e-08
5.37521e-08
5.27829e-08
5.40032e-08
1.30153e-07
5.52272e-08
1.30207e-07
5.36495e-08
5.70364e-08
1.55929e-08
2.5164e-08
0
5.49753e-08
5.42763e-08
5.43273e-08
5.52329e-08
8.54231e-08
9.74081e-08
5.30588e-08
5.28701e-08
1.348e-07
5.19872e-08
5.19317e-08
1.2733e-07
5.03133e-08
1.29502e-07
5.28962e-08
5.52345e-08
5.9668e-08
1.35246e-07
5.40984e-08
5.1849e-08
0
0
0
0
0
0
0
0
0
0
0
0
0
0
0
0
0
0
0
0
0
0
0
0
0
0
0
0
5.53109e-08
0
5.7321e-08
2.79136e-08
1.15587e-08
5.35396e-08
5.42536e-08
5.69774e-08
5.57874e-08
5.41281e-08
5.46847e-08
5.5052e-08
5.46541e-08
1.36087e-07
5.4025e-08
5.32358e-08
5.4319e-08
5.51344e-08
0
5.47311e-08
5.51913e-08
5.54571e-08
5.44047e-08
5.68259e-08
5.68596e-08
0
5.45263e-08
5.46865e-08
5.55405e-08
5.59288e-08
5.57859e-08
5.70694e-08
5.63021e-08
5.51735e-08
5.49162e-08
5.58026e-08
1.35777e-07
5.20654e-08
5.14187e-08
0
5.30593e-08
5.51666e-08
5.66619e-08
7.654e-08
4.45549e-08
4.84824e-08
5.53542e-08
5.40861e-08
5.23827e-08
0
0
0
0
0
0
0
0
0
0
0
0
0
0
0
0
0
0
0
0
0
0
0
0
0
0
0
5.64257e-08
5.50019e-08
1.38224e-07
5.45431e-08
5.4113e-08
0
5.29135e-08
5.53657e-08
5.65548e-08
5.60332e-08
5.52837e-08
5.4458e-08
1.32119e-07
6.62157e-08
1.15995e-07
5.20381e-08
5.38645e-08
5.51783e-08
0
5.54412e-08
5.62295e-08
5.61769e-08
5.64704e-08
5.5739e-08
7.19567e-08
1.09458e-07
5.23479e-08
5.38381e-08
5.39814e-08
5.41122e-08
5.53001e-08
5.65977e-08
0
5.48096e-08
0
5.68135e-08
5.74645e-08
5.45407e-08
1.2775e-07
5.27583e-08
1.35265e-07
5.44706e-08
5.43516e-08
5.44289e-08
5.53449e-08
5.09679e-08
5.59954e-08
5.36898e-08
0
0
0
0
0
0
0
0
0
0
0
0
0
0
0
0
0
0
0
0
0
0
0
0
0
0
0
5.49959e-08
5.60443e-08
0
1.32502e-07
1.30275e-07
1.29491e-07
5.29882e-08
5.58523e-08
0
0
0
5.64301e-08
5.65346e-08
5.703e-08
5.51022e-08
9.14385e-08
8.21321e-08
5.34552e-08
0
5.56354e-08
5.62977e-08
5.60026e-08
5.51419e-08
5.49133e-08
1.31383e-07
5.22173e-08
5.47207e-08
1.30228e-07
5.24742e-08
5.21039e-08
5.41822e-08
5.59216e-08
5.50005e-08
0
5.64064e-08
0
5.74398e-08
5.62861e-08
1.31314e-07
5.3988e-08
5.5849e-08
5.61887e-08
5.52276e-08
5.57078e-08
5.55496e-08
5.4823e-08
5.55359e-08
5.39966e-08
0
0
0
0
0
0
0
0
0
0
0
0
0
0
0
0
0
0
0
0
0
0
0
0
0
0
5.33425e-08
5.91911e-08
0
5.60476e-08
5.65686e-08
5.70936e-08
5.53065e-08
5.59431e-08
0
5.54519e-08
5.55195e-08
5.55343e-08
0
1.93358e-08
2.39619e-08
5.63525e-08
5.45477e-08
5.44206e-08
5.4599e-08
5.47232e-08
5.37377e-08
5.50387e-08
5.61209e-08
0
0
0
5.45512e-08
5.48108e-08
5.64723e-08
5.45851e-08
8.65921e-08
9.67276e-08
5.44437e-08
0
5.46589e-08
4.95429e-08
1.61646e-08
5.49684e-08
5.51005e-08
0
5.35435e-08
5.4382e-08
5.44872e-08
5.52401e-08
5.67921e-08
5.77128e-08
5.63622e-08
5.4428e-08
5.37411e-08
0
0
0
0
0
0
0
0
0
0
0
0
0
0
0
0
0
0
0
0
0
0
0
0
0
0
5.45145e-08
5.56616e-08
5.62724e-08
5.68652e-08
5.74563e-08
0
5.48902e-08
5.56311e-08
5.61923e-08
0
5.52267e-08
5.5624e-08
5.69691e-08
5.87508e-08
0
5.46302e-08
5.47564e-08
5.45774e-08
9.08454e-08
8.74716e-08
5.37604e-08
5.5994e-08
0
9.2754e-08
8.08557e-08
5.38183e-08
0
5.46695e-08
5.50292e-08
5.4496e-08
9.23165e-08
8.61884e-08
0
1.29244e-07
5.42602e-08
5.53988e-08
5.35894e-08
5.61781e-08
0
1.53681e-07
1.06701e-07
5.2664e-08
5.38358e-08
5.56888e-08
5.92505e-08
5.81167e-08
2.29751e-08
1.23712e-08
5.25907e-08
0
0
0
0
0
0
0
0
0
0
0
0
0
0
0
0
0
0
0
0
0
0
0
0
0
0
5.44909e-08
5.49909e-08
9.40216e-08
1.72036e-08
5.66222e-08
5.62519e-08
5.54416e-08
5.65875e-08
5.49149e-08
0
7.52936e-08
3.32441e-08
1.30329e-07
2.35065e-07
5.4618e-08
5.35006e-08
5.36492e-08
5.44495e-08
5.55345e-08
5.62329e-08
5.54249e-08
5.56098e-08
5.57005e-08
0
1.31524e-07
5.25634e-08
5.33265e-08
5.40488e-08
5.46081e-08
5.46478e-08
0
0
5.44553e-08
5.57207e-08
1.35571e-07
1.326e-07
5.29066e-08
5.58542e-08
0
5.3694e-08
5.33713e-08
5.34841e-08
5.33122e-08
5.38351e-08
5.64661e-08
0
5.64458e-08
5.4306e-08
5.46693e-08
5.44329e-08
0
0
0
0
0
0
0
0
0
0
0
0
0
0
0
0
0
0
0
0
0
0
0
0
0
5.49237e-08
8.5658e-08
1.01427e-07
2.8114e-08
7.5452e-09
1.32637e-07
5.38773e-08
5.39341e-08
5.5442e-08
5.37994e-08
5.53026e-08
5.66993e-08
0
5.61415e-08
5.613e-08
5.51145e-08
5.48295e-08
2.21969e-09
5.14073e-08
7.47348e-08
1.12408e-07
5.42254e-08
5.35261e-08
5.41208e-08
5.61842e-08
5.32866e-08
5.29754e-08
5.3096e-08
5.2489e-08
5.41366e-08
5.4319e-08
5.5538e-08
5.57091e-08
5.60117e-08
5.63994e-08
5.53425e-08
9.85094e-11
1.34133e-07
5.31248e-08
5.34795e-08
5.42592e-08
5.36088e-08
5.38545e-08
5.51829e-08
5.49793e-08
1.36746e-07
5.19144e-08
0
0
1.36887e-07
0
0
0
0
0
0
0
0
0
0
0
0
0
0
0
0
0
0
0
0
0
0
0
0
0
9.38224e-08
1.55782e-08
7.95919e-08
1.04018e-07
5.32482e-08
5.39085e-08
1.31674e-07
5.3844e-08
5.37078e-08
0
5.51423e-08
5.6264e-08
5.4921e-08
1.16005e-08
5.40186e-08
3.30471e-08
5.48662e-08
5.56653e-08
5.56724e-08
5.50535e-08
5.53749e-08
5.53908e-08
5.5296e-08
5.49317e-08
5.54453e-08
5.59365e-08
5.31862e-08
1.26573e-07
1.24932e-07
1.2628e-07
5.23203e-08
5.72203e-08
0
0
5.60775e-08
5.63252e-08
5.56063e-08
0
5.66849e-08
5.53752e-08
5.34007e-08
0
0
0
5.60649e-08
5.61744e-08
5.53705e-08
1.31091e-07
1.41413e-07
4.08503e-08
5.61961e-08
0
0
0
0
0
0
0
0
0
0
0
0
0
0
0
0
0
0
0
0
0
0
0
0
5.39976e-08
1.34205e-07
1.54256e-09
5.39825e-08
5.34258e-08
9.10505e-08
9.46359e-08
5.2702e-08
1.24479e-07
0
5.49612e-08
5.42789e-08
5.08254e-08
1.32276e-07
5.31958e-08
5.37874e-08
1.33589e-07
0
1.80248e-08
1.84937e-08
5.3262e-08
5.46127e-08
5.53053e-08
5.58614e-08
5.70929e-08
5.67047e-08
5.5458e-08
0
5.41525e-08
5.32596e-08
5.23484e-08
5.6015e-08
5.33466e-08
5.60847e-08
5.26921e-08
5.39765e-08
5.52961e-08
5.33065e-08
5.50504e-08
5.47742e-08
5.32197e-08
0
5.593e-08
5.44214e-08
5.44606e-08
0
5.55335e-08
0
0
1.32376e-07
5.33606e-08
0
0
5.6397e-08
0
0
0
0
0
0
0
0
0
0
0
0
0
0
0
0
0
0
0
0
0
5.44006e-08
5.52838e-08
5.66015e-08
0
5.50556e-08
0
0
5.58009e-08
5.49817e-08
5.50097e-08
1.28684e-07
2.22182e-07
0
5.52765e-08
5.42556e-08
0
1.31895e-07
1.34711e-07
5.35813e-08
0
5.50747e-08
0
0
5.83281e-08
5.85458e-08
5.46397e-08
5.37125e-08
5.38961e-08
5.33359e-08
1.27747e-07
5.32456e-08
0
0
1.31742e-07
5.53489e-08
5.40798e-08
1.29594e-07
5.3696e-08
5.53596e-08
0
0
6.03234e-08
1.21367e-07
5.60672e-08
5.56989e-08
5.63415e-08
5.56546e-08
1.2785e-07
1.26345e-07
5.01779e-08
0
5.46558e-08
5.23816e-08
5.35059e-08
0
0
0
0
0
0
0
0
0
0
0
0
0
0
0
0
0
0
0
0
0
5.53049e-08
0
5.52193e-08
1.38253e-07
5.5139e-08
5.4953e-08
5.55297e-08
5.50167e-08
5.46573e-08
5.11203e-08
5.16601e-08
5.54398e-08
5.49456e-08
5.54592e-08
5.59974e-08
5.57377e-08
5.6619e-08
5.69329e-08
5.66308e-08
5.51107e-08
5.59481e-08
1.75271e-08
4.84294e-08
1.0831e-07
5.68642e-08
5.45992e-08
5.45249e-08
5.49705e-08
0
5.2453e-08
5.389e-08
5.50854e-08
5.57486e-08
5.56327e-08
5.49078e-08
5.26398e-08
5.59994e-08
5.62113e-08
0
5.52455e-08
5.4493e-08
1.29439e-07
5.42691e-08
5.42347e-08
5.47457e-08
5.39119e-08
5.54339e-08
5.37379e-08
5.48913e-08
5.82498e-08
5.69619e-08
5.38882e-08
5.3492e-08
7.73818e-08
7.93803e-08
7.19964e-08
5.21883e-08
0
0
0
0
0
0
0
0
0
0
0
0
0
0
0
0
0
0
)
;


// ************************************************************************* //
