/*--------------------------------*- C++ -*----------------------------------*\
  =========                 |
  \\      /  F ield         | OpenFOAM: The Open Source CFD Toolbox
   \\    /   O peration     | Website:  https://openfoam.org
    \\  /    A nd           | Version:  12
     \\/     M anipulation  |
\*---------------------------------------------------------------------------*/
FoamFile
{
    format      ascii;
    class       volScalarField;
    location    "0.55";
    object      p;
}
// * * * * * * * * * * * * * * * * * * * * * * * * * * * * * * * * * * * * * //

dimensions      [0 2 -2 0 0 0 0];

internalField   nonuniform List<scalar> 
3750
(
0.755038
0.745531
0.73626
0.726836
0.717541
0.708669
0.700833
0.683703
0.676971
0.658965
0.648527
0.65041
0.640944
0.630816
0.620511
0.60819
0.599669
0.595142
0.579001
0.56709
0.55559
0.539936
0.524224
0.517612
0.50841
0.498978
0.489634
0.480171
0.470407
0.458926
0.440871
0.433046
0.424746
0.416766
0.40886
0.397396
0.379613
0.367349
0.356184
0.356335
0.346212
0.334752
0.324202
0.314054
0.303995
0.293168
0.282917
0.272209
0.262022
0.252655
0.246166
0.236381
0.225386
0.206705
0.198773
0.190852
0.181484
0.171637
0.161974
0.152275
0.14253
0.132753
0.122957
0.113148
0.10332
0.0934775
0.0836236
0.0737627
0.0639038
0.0540598
0.0442232
0.0343906
0.0245454
0.0146548
0.0048439
0.752881
0.745337
0.736107
0.726642
0.717067
0.707688
0.697513
0.685503
0.675183
0.663368
0.653182
0.647666
0.63972
0.630851
0.622599
0.605371
0.596328
0.593054
0.579793
0.566587
0.553931
0.540969
0.528538
0.518632
0.50879
0.499096
0.489808
0.480704
0.47207
0.453258
0.442966
0.433413
0.424203
0.416522
0.408666
0.399597
0.378663
0.368946
0.359524
0.353245
0.34426
0.334099
0.323791
0.313764
0.304917
0.293699
0.281023
0.272291
0.261976
0.250275
0.246108
0.235024
0.223081
0.210271
0.200323
0.191042
0.181382
0.171728
0.162048
0.152321
0.142559
0.132774
0.122973
0.113158
0.103328
0.0934823
0.083623
0.0737542
0.0638897
0.054051
0.0442253
0.0343906
0.0245372
0.0146394
0.00482868
0.75456
0.747302
0.736426
0.726514
0.71643
0.706886
0.696451
0.685494
0.674873
0.664689
0.655258
0.646961
0.638957
0.630183
0.621026
0.610026
0.596686
0.589425
0.578133
0.565636
0.553721
0.541931
0.530247
0.51906
0.509125
0.499297
0.489839
0.480459
0.471577
0.452739
0.443076
0.433321
0.423607
0.413573
0.399144
0.398719
0.380009
0.371003
0.360652
0.352257
0.343328
0.333622
0.323382
0.311968
0.307623
0.296336
0.276151
0.274494
0.265184
0.249104
0.243088
0.23332
0.222513
0.211445
0.201211
0.191409
0.181679
0.171909
0.162154
0.152389
0.142607
0.13281
0.123
0.113179
0.103345
0.0934969
0.0836372
0.0737703
0.0639072
0.0540605
0.044225
0.0343902
0.0245349
0.0146383
0.00481356
0.751857
0.750421
0.73689
0.726675
0.716507
0.706408
0.695792
0.684984
0.674884
0.665029
0.655263
0.646112
0.63938
0.629963
0.621226
0.612651
0.596195
0.588012
0.576368
0.564016
0.553635
0.542847
0.531729
0.519011
0.509314
0.498649
0.489616
0.479574
0.468394
0.455052
0.443619
0.433141
0.422774
0.412033
0.400105
0.393843
0.382908
0.374085
0.361012
0.352641
0.343238
0.333551
0.324007
0.315301
0.305203
0.294422
0.278372
0.271865
0.262384
0.25118
0.241969
0.232357
0.222186
0.2118
0.201654
0.191724
0.181889
0.172076
0.162278
0.152481
0.142675
0.13286
0.123039
0.113209
0.103369
0.0935204
0.0836637
0.073803
0.0639431
0.0540877
0.044239
0.0343951
0.0245339
0.0146335
0.0048068
0.756424
0.749953
0.738992
0.727047
0.716454
0.706141
0.695344
0.683811
0.675869
0.665316
0.654513
0.643434
0.640229
0.629596
0.620249
0.611161
0.599504
0.590751
0.574054
0.560443
0.553915
0.544241
0.534911
0.517085
0.508522
0.498931
0.489614
0.478672
0.467221
0.455517
0.443192
0.43319
0.422811
0.411835
0.401662
0.393054
0.384049
0.375323
0.361893
0.353397
0.343278
0.333564
0.324314
0.315504
0.306831
0.291489
0.278466
0.270483
0.261212
0.251348
0.24169
0.231947
0.221987
0.211908
0.20188
0.191945
0.182072
0.172228
0.162399
0.152576
0.142749
0.132919
0.123086
0.113246
0.103402
0.0935506
0.0836939
0.0738333
0.0639718
0.0541113
0.0442549
0.0344024
0.024536
0.0146306
0.00480249
0.757525
0.750493
0.742405
0.726068
0.716089
0.706308
0.695859
0.681375
0.677196
0.665576
0.654625
0.644339
0.637343
0.627915
0.618809
0.612212
0.599859
0.588975
0.577002
0.557477
0.555232
0.544795
0.534074
0.519924
0.508123
0.498844
0.489988
0.478608
0.466441
0.455513
0.440521
0.434017
0.422943
0.410961
0.401352
0.393268
0.384784
0.375341
0.364969
0.353905
0.343008
0.333763
0.324304
0.313763
0.304203
0.292604
0.27924
0.269663
0.260625
0.251154
0.241519
0.231768
0.2219
0.211959
0.202016
0.192105
0.182224
0.172364
0.162515
0.152671
0.142828
0.132982
0.123137
0.113289
0.103441
0.0935859
0.0837266
0.0738635
0.0639977
0.0541323
0.0442698
0.0344104
0.0245399
0.0146297
0.00480043
0.75804
0.752247
0.741682
0.730898
0.716747
0.707345
0.696957
0.683024
0.674968
0.66481
0.654471
0.643924
0.636009
0.625871
0.618499
0.61476
0.598947
0.588453
0.575367
0.562445
0.55411
0.544595
0.535937
0.520618
0.507457
0.498748
0.490418
0.479823
0.464627
0.455578
0.436617
0.436773
0.422634
0.409322
0.40067
0.393849
0.38501
0.376146
0.36844
0.353727
0.342665
0.33382
0.325148
0.309326
0.304992
0.295392
0.277073
0.26916
0.260478
0.251094
0.241462
0.231713
0.221886
0.212012
0.202121
0.192234
0.182357
0.172489
0.162627
0.152769
0.142911
0.133053
0.123196
0.113341
0.103484
0.0936234
0.0837589
0.0738915
0.0640212
0.0541514
0.0442839
0.0344193
0.0245442
0.0146299
0.00479946
0.758226
0.756043
0.741471
0.733264
0.718318
0.709234
0.701756
0.683655
0.673424
0.664035
0.65387
0.641858
0.636169
0.623006
0.623621
0.61074
0.598863
0.588866
0.574547
0.564265
0.553001
0.543693
0.535739
0.521159
0.508476
0.498173
0.48776
0.478088
0.468481
0.453416
0.436696
0.438889
0.420593
0.409588
0.39941
0.395602
0.38498
0.375657
0.366834
0.356694
0.345884
0.331469
0.321143
0.308333
0.306358
0.294092
0.28029
0.269977
0.261008
0.25131
0.241521
0.231732
0.22192
0.212081
0.202222
0.192353
0.182481
0.172609
0.162738
0.152867
0.142997
0.133129
0.123261
0.113396
0.103531
0.0936629
0.0837922
0.0739194
0.0640448
0.0541705
0.0442984
0.0344291
0.0245496
0.0146312
0.00479906
0.759231
0.752478
0.741381
0.734625
0.719991
0.709631
0.704225
0.686837
0.672807
0.664076
0.654997
0.647052
0.633744
0.627294
0.61581
0.60618
0.598893
0.588642
0.576328
0.566893
0.550234
0.542337
0.533456
0.52153
0.509127
0.498041
0.486268
0.477828
0.465752
0.45363
0.441789
0.434693
0.423009
0.412485
0.402121
0.392338
0.383784
0.374844
0.366327
0.358509
0.342378
0.332127
0.321046
0.310326
0.304727
0.293848
0.285294
0.27158
0.261747
0.251498
0.241596
0.231787
0.221993
0.212176
0.202336
0.192476
0.182604
0.172727
0.162846
0.152964
0.143082
0.133203
0.123324
0.113451
0.103578
0.0937042
0.0838268
0.0739479
0.0640683
0.0541894
0.0443129
0.0344394
0.0245557
0.0146333
0.00479913
0.759518
0.750336
0.737926
0.734899
0.723463
0.70826
0.70426
0.690482
0.674531
0.664056
0.655531
0.646334
0.636074
0.626532
0.613959
0.602464
0.600135
0.588068
0.57675
0.564334
0.550696
0.541417
0.533928
0.518901
0.509205
0.498464
0.487702
0.480069
0.463843
0.453646
0.443681
0.434597
0.423565
0.415498
0.400011
0.391159
0.382069
0.374183
0.365189
0.355659
0.344228
0.3321
0.321176
0.311327
0.306383
0.29039
0.28889
0.275522
0.262111
0.251454
0.241581
0.231822
0.22208
0.212293
0.202465
0.192607
0.182732
0.172846
0.162955
0.153061
0.143167
0.133276
0.123389
0.113508
0.103628
0.0937454
0.0838612
0.0739762
0.0640917
0.0542083
0.0443275
0.03445
0.0245624
0.0146359
0.00479959
0.761783
0.751117
0.739928
0.730253
0.726627
0.714826
0.699687
0.689171
0.676585
0.663135
0.657107
0.64784
0.637823
0.626894
0.611827
0.60309
0.5965
0.586951
0.578473
0.562969
0.547171
0.538521
0.52975
0.519863
0.510429
0.499097
0.488427
0.478362
0.468714
0.45222
0.443924
0.43531
0.42239
0.413416
0.40189
0.390519
0.380664
0.374506
0.364449
0.354217
0.346742
0.331554
0.320979
0.309533
0.305293
0.295455
0.292905
0.27771
0.261799
0.250595
0.241292
0.231864
0.222212
0.21245
0.202622
0.192756
0.182868
0.172968
0.163062
0.153156
0.143252
0.133351
0.123456
0.113565
0.103676
0.0937853
0.0838943
0.074004
0.0641144
0.0542263
0.0443418
0.0344605
0.0245693
0.0146389
0.00480029
0.759937
0.751604
0.741633
0.731852
0.724243
0.713478
0.70061
0.689056
0.677391
0.663488
0.660338
0.649638
0.640432
0.624334
0.611517
0.603056
0.59433
0.584785
0.57443
0.561692
0.548668
0.53657
0.52671
0.520051
0.51474
0.49823
0.488635
0.477936
0.467004
0.454572
0.444519
0.434828
0.423442
0.413595
0.403887
0.384889
0.381345
0.376602
0.363851
0.352512
0.350079
0.330796
0.321402
0.311713
0.302651
0.301299
0.292929
0.276576
0.262087
0.249801
0.241354
0.232058
0.222443
0.21267
0.202817
0.192925
0.183014
0.173093
0.163169
0.153247
0.14333
0.13342
0.123517
0.113618
0.103721
0.0938227
0.083926
0.0740307
0.0641365
0.0542441
0.0443557
0.034471
0.0245755
0.0146425
0.00480121
0.764031
0.753782
0.743196
0.732854
0.722928
0.712356
0.700561
0.688508
0.677849
0.667371
0.659679
0.649949
0.637597
0.625035
0.61327
0.603011
0.593347
0.583383
0.57283
0.560675
0.548868
0.533202
0.522851
0.518674
0.514644
0.502118
0.490088
0.477796
0.466286
0.454802
0.444471
0.434815
0.424301
0.413778
0.402833
0.390368
0.383943
0.370859
0.362316
0.352903
0.345499
0.333217
0.322727
0.314394
0.303609
0.29915
0.289871
0.280011
0.261451
0.251335
0.242161
0.232594
0.222825
0.212962
0.203049
0.193112
0.183165
0.173217
0.163271
0.153332
0.143402
0.133484
0.123573
0.113665
0.10376
0.0938564
0.0839545
0.0740548
0.0641567
0.0542608
0.0443688
0.0344808
0.0245818
0.0146458
0.00480217
0.768004
0.756334
0.744506
0.733376
0.722683
0.711963
0.700785
0.686709
0.677678
0.668802
0.660081
0.6521
0.634877
0.624387
0.613374
0.602495
0.592502
0.582518
0.572555
0.559122
0.546803
0.532363
0.52697
0.517721
0.508349
0.504118
0.491017
0.4769
0.465354
0.453945
0.443377
0.435545
0.425116
0.414413
0.403565
0.392372
0.380703
0.37183
0.361847
0.352671
0.343271
0.333341
0.322581
0.314742
0.305317
0.297688
0.288406
0.27775
0.264791
0.253634
0.243352
0.233312
0.223308
0.213305
0.203305
0.193309
0.18332
0.173341
0.163371
0.153412
0.14347
0.133541
0.123622
0.113708
0.103797
0.0938878
0.0839814
0.0740775
0.0641756
0.0542761
0.0443809
0.0344901
0.024588
0.0146491
0.0048033
0.763625
0.757804
0.74505
0.733397
0.722442
0.712005
0.702806
0.681097
0.676619
0.670801
0.659804
0.649618
0.637513
0.624764
0.613583
0.602388
0.591634
0.581531
0.574515
0.556545
0.546279
0.536451
0.525257
0.518018
0.50986
0.501774
0.490686
0.473473
0.463105
0.452717
0.441641
0.437889
0.426137
0.415306
0.404813
0.394963
0.375873
0.372064
0.35985
0.352712
0.342633
0.334439
0.319849
0.315842
0.304843
0.297969
0.288635
0.277876
0.266251
0.255074
0.244395
0.234015
0.223789
0.213646
0.203554
0.193496
0.183465
0.173457
0.163468
0.153496
0.14354
0.133599
0.123669
0.113746
0.10383
0.0939161
0.0840056
0.0740977
0.0641924
0.0542898
0.0443918
0.0344983
0.0245935
0.0146521
0.00480427
0.765421
0.752356
0.743827
0.732685
0.721697
0.711087
0.70065
0.678599
0.676959
0.67657
0.658189
0.648239
0.639146
0.625614
0.614083
0.601793
0.590977
0.579411
0.573993
0.558474
0.546246
0.533755
0.52556
0.521373
0.51153
0.501274
0.483721
0.474602
0.462481
0.453061
0.443102
0.43572
0.426087
0.415823
0.405215
0.394315
0.37998
0.370703
0.353176
0.35219
0.341331
0.330408
0.326523
0.314569
0.30161
0.299591
0.290326
0.278861
0.267251
0.256005
0.245141
0.234567
0.224186
0.213932
0.203764
0.193654
0.183587
0.173554
0.163547
0.153562
0.143597
0.133647
0.123709
0.11378
0.103858
0.0939402
0.0840263
0.0741153
0.064207
0.0543019
0.0444014
0.0345058
0.0245986
0.0146549
0.00480534
0.763431
0.753203
0.743145
0.731332
0.720292
0.709963
0.697853
0.685098
0.677082
0.670883
0.660375
0.646673
0.640049
0.628538
0.615219
0.602086
0.590957
0.581809
0.571497
0.557579
0.547427
0.538264
0.523106
0.518342
0.511047
0.494723
0.480916
0.474289
0.46538
0.454214
0.443428
0.433715
0.42647
0.416717
0.406041
0.395917
0.380557
0.366096
0.354751
0.346648
0.342708
0.33172
0.326826
0.314422
0.303306
0.296125
0.293028
0.279833
0.267878
0.256556
0.245602
0.234925
0.224455
0.214132
0.203914
0.193768
0.183676
0.173624
0.163604
0.15361
0.143637
0.133682
0.123739
0.113806
0.10388
0.0939596
0.0840429
0.0741295
0.0642191
0.0543119
0.0444094
0.0345119
0.0246028
0.0146573
0.00480622
0.762018
0.754291
0.738782
0.729436
0.717953
0.710815
0.701132
0.689773
0.675872
0.667912
0.65902
0.645008
0.641735
0.62929
0.616358
0.605615
0.589309
0.582306
0.565042
0.561698
0.549484
0.539057
0.522798
0.515998
0.506859
0.492526
0.478741
0.474772
0.469519
0.455144
0.442711
0.430665
0.427163
0.418605
0.407519
0.396049
0.380171
0.366066
0.35471
0.345569
0.340716
0.329025
0.321046
0.319031
0.309874
0.298997
0.290747
0.279414
0.267958
0.256728
0.245786
0.235083
0.224578
0.214228
0.203989
0.193829
0.183725
0.173662
0.163634
0.153636
0.14366
0.133703
0.123759
0.113824
0.103896
0.0939735
0.0840553
0.0741405
0.0642286
0.0543199
0.044416
0.0345171
0.0246066
0.0146595
0.00480713
0.757367
0.750488
0.739854
0.729943
0.713254
0.713463
0.702042
0.690278
0.68105
0.66608
0.658321
0.64796
0.640387
0.628026
0.615816
0.603786
0.590709
0.579286
0.567749
0.560402
0.549205
0.537946
0.525284
0.516272
0.507741
0.488942
0.482424
0.477963
0.467724
0.455036
0.442204
0.430654
0.423861
0.420519
0.408768
0.398965
0.378274
0.365508
0.354243
0.343127
0.340664
0.324646
0.322546
0.31928
0.314362
0.301178
0.289467
0.278863
0.267765
0.256628
0.245719
0.235039
0.224556
0.214218
0.203985
0.193829
0.183727
0.173665
0.163638
0.153643
0.14367
0.133714
0.12377
0.113834
0.103906
0.0939828
0.0840634
0.0741479
0.0642352
0.0543257
0.0444208
0.034521
0.0246094
0.0146612
0.00480779
0.754964
0.749145
0.738202
0.725416
0.719105
0.713301
0.701815
0.689661
0.679651
0.668873
0.660017
0.651358
0.642887
0.627384
0.615082
0.603019
0.590322
0.5764
0.568189
0.559132
0.548865
0.539149
0.525426
0.516069
0.505839
0.489334
0.486874
0.4858
0.46538
0.454507
0.44121
0.428811
0.426211
0.417775
0.406247
0.400118
0.380552
0.363598
0.354368
0.34462
0.33957
0.327399
0.326251
0.318816
0.311053
0.300342
0.288089
0.278969
0.267539
0.256322
0.245406
0.234806
0.224393
0.214103
0.203903
0.193768
0.18368
0.173629
0.163612
0.153623
0.143658
0.133708
0.123767
0.113834
0.103907
0.0939857
0.0840675
0.0741522
0.0642395
0.0543297
0.0444242
0.0345238
0.0246117
0.0146627
0.00480844
0.757413
0.750862
0.736204
0.724208
0.723479
0.713288
0.701992
0.687117
0.679186
0.669948
0.660987
0.653142
0.642135
0.623723
0.614008
0.602971
0.591107
0.579173
0.568974
0.558984
0.549076
0.538181
0.526991
0.516854
0.506033
0.492745
0.489533
0.484939
0.465971
0.45713
0.43949
0.430007
0.424266
0.41707
0.400494
0.401015
0.379992
0.366293
0.355297
0.344808
0.342249
0.332382
0.326155
0.317811
0.308712
0.300476
0.285565
0.279571
0.266593
0.255461
0.244757
0.234392
0.224108
0.213899
0.203751
0.193654
0.183596
0.173568
0.163568
0.153593
0.143636
0.133691
0.123755
0.113826
0.103903
0.0939837
0.0840673
0.0741532
0.0642412
0.0543317
0.0444262
0.0345254
0.0246132
0.0146637
0.00480882
0.762509
0.754971
0.735701
0.726887
0.722151
0.710316
0.699213
0.689151
0.679981
0.670704
0.661555
0.652575
0.641972
0.623487
0.614335
0.603716
0.592041
0.580239
0.569521
0.558994
0.549344
0.535907
0.528648
0.518239
0.509016
0.491898
0.492259
0.481462
0.4686
0.458268
0.443428
0.427719
0.421011
0.412778
0.404301
0.39645
0.384763
0.366493
0.357172
0.347032
0.341856
0.334686
0.326916
0.317385
0.305637
0.301951
0.289322
0.275278
0.26365
0.253961
0.244046
0.233897
0.223748
0.21363
0.20355
0.193503
0.183484
0.173488
0.163512
0.153551
0.143603
0.133665
0.123736
0.113813
0.103894
0.0939779
0.0840639
0.0741519
0.0642411
0.0543323
0.0444272
0.0345264
0.0246142
0.0146645
0.00480925
0.764221
0.75652
0.73835
0.729265
0.720223
0.708319
0.69888
0.690409
0.680891
0.671407
0.661979
0.652182
0.638599
0.626062
0.616046
0.605453
0.593034
0.580269
0.569933
0.55826
0.548045
0.534819
0.532193
0.518413
0.507307
0.496399
0.4906
0.480559
0.469132
0.457896
0.44779
0.428605
0.420604
0.410926
0.407603
0.394337
0.382883
0.369823
0.359579
0.347081
0.341672
0.336004
0.329595
0.318617
0.305856
0.3025
0.292527
0.272163
0.258631
0.253029
0.243454
0.233397
0.223354
0.213326
0.203318
0.193327
0.18335
0.173386
0.163435
0.153494
0.143561
0.133633
0.123712
0.113795
0.10388
0.093969
0.0840585
0.0741487
0.0642393
0.0543316
0.0444272
0.0345268
0.0246146
0.0146651
0.00480945
0.764804
0.754447
0.741182
0.732283
0.722681
0.70429
0.7012
0.691674
0.681709
0.672144
0.663258
0.645173
0.642861
0.626573
0.617897
0.609026
0.592124
0.579732
0.571597
0.556566
0.548468
0.539203
0.532336
0.51611
0.506167
0.497299
0.488713
0.480074
0.469634
0.458574
0.446709
0.431079
0.422359
0.4137
0.408927
0.391183
0.381576
0.370366
0.359033
0.347353
0.342176
0.33797
0.335615
0.317233
0.305287
0.30523
0.29014
0.272345
0.254227
0.252858
0.242873
0.232883
0.222939
0.213001
0.203067
0.193133
0.183201
0.173271
0.163349
0.15343
0.143513
0.133597
0.123684
0.113775
0.103867
0.0939592
0.0840518
0.0741444
0.064237
0.0543303
0.0444268
0.0345269
0.024615
0.0146657
0.00480979
0.767941
0.754952
0.741062
0.735187
0.721699
0.708954
0.70079
0.69085
0.681807
0.672423
0.661806
0.648785
0.6369
0.630433
0.617491
0.607882
0.594435
0.581215
0.5683
0.560926
0.550041
0.542099
0.527105
0.517977
0.505125
0.497125
0.488374
0.479773
0.470503
0.459393
0.445553
0.433716
0.424222
0.415929
0.409371
0.391855
0.381488
0.371163
0.359764
0.353716
0.342535
0.336654
0.330064
0.318114
0.306814
0.300135
0.290074
0.271358
0.257481
0.251233
0.242028
0.232336
0.222529
0.212683
0.202815
0.192935
0.183048
0.173158
0.163262
0.153361
0.143458
0.133558
0.123656
0.113753
0.103852
0.0939486
0.0840443
0.0741396
0.0642342
0.0543287
0.0444261
0.0345267
0.0246151
0.0146662
0.00481006
0.767355
0.755894
0.74524
0.733427
0.7211
0.709879
0.700381
0.690235
0.680937
0.673895
0.662834
0.652463
0.636576
0.627967
0.611037
0.607904
0.591295
0.588153
0.567687
0.567219
0.548155
0.5393
0.528262
0.517629
0.50618
0.497438
0.488063
0.479418
0.471554
0.458691
0.446957
0.434739
0.424936
0.416476
0.407088
0.397707
0.381511
0.373473
0.366086
0.353205
0.342249
0.335376
0.327468
0.317615
0.306792
0.296865
0.286027
0.272828
0.260646
0.251073
0.241563
0.231897
0.222156
0.212376
0.20257
0.192742
0.182898
0.173041
0.163171
0.153292
0.143406
0.133517
0.123627
0.113734
0.103837
0.0939379
0.0840374
0.0741353
0.0642315
0.0543274
0.0444256
0.0345267
0.0246154
0.0146667
0.00481047
0.767379
0.75594
0.745471
0.735257
0.718367
0.708261
0.701181
0.689962
0.67968
0.678619
0.662946
0.649265
0.633173
0.628593
0.614213
0.605608
0.59334
0.585754
0.573088
0.566466
0.548526
0.539125
0.528853
0.516917
0.506733
0.497502
0.48811
0.478891
0.47075
0.45997
0.450408
0.433296
0.424293
0.417989
0.406293
0.397259
0.385974
0.376014
0.366272
0.353796
0.343733
0.335208
0.326834
0.317842
0.306525
0.295
0.284234
0.272751
0.26152
0.251139
0.241249
0.231522
0.221823
0.212104
0.20235
0.192569
0.182763
0.172936
0.16309
0.153229
0.143359
0.133483
0.123601
0.113715
0.103824
0.0939289
0.0840315
0.0741317
0.0642296
0.0543267
0.0444254
0.034527
0.024616
0.0146674
0.00481095
0.765913
0.754946
0.745061
0.733638
0.720612
0.706438
0.705528
0.688559
0.679335
0.673562
0.66107
0.648223
0.640662
0.628205
0.615767
0.604912
0.594715
0.585034
0.57271
0.564167
0.552453
0.540539
0.529546
0.51493
0.506327
0.497349
0.488095
0.477195
0.470605
0.462181
0.449057
0.436078
0.422069
0.419269
0.407708
0.398186
0.388676
0.378252
0.36909
0.351986
0.344322
0.334904
0.327127
0.319224
0.306843
0.292939
0.283543
0.272558
0.261475
0.250711
0.240766
0.231118
0.221506
0.211857
0.20216
0.192421
0.182648
0.172847
0.163021
0.153176
0.143319
0.133454
0.123581
0.113701
0.103814
0.093923
0.0840282
0.07413
0.0642291
0.0543269
0.0444261
0.0345278
0.024617
0.0146684
0.00481157
0.766415
0.75441
0.744542
0.733748
0.720333
0.706351
0.701769
0.688347
0.681374
0.672878
0.659662
0.645412
0.640678
0.636015
0.615691
0.605454
0.595719
0.586875
0.568449
0.56587
0.556402
0.541336
0.527838
0.512937
0.505927
0.49752
0.489781
0.47441
0.47196
0.467704
0.447295
0.436405
0.424146
0.415948
0.409034
0.39909
0.390483
0.379723
0.367243
0.35297
0.347222
0.332217
0.327371
0.31896
0.308124
0.29341
0.284134
0.27268
0.260937
0.249509
0.240058
0.230705
0.221228
0.211656
0.20201
0.192309
0.182563
0.172781
0.162973
0.153141
0.143293
0.133436
0.12357
0.113693
0.10381
0.0939209
0.0840276
0.0741304
0.0642302
0.0543285
0.0444278
0.0345293
0.0246185
0.0146696
0.00481232
0.765935
0.763248
0.744838
0.736482
0.722072
0.709072
0.6974
0.690795
0.676191
0.673701
0.659187
0.648565
0.639862
0.631609
0.618389
0.606252
0.595678
0.584916
0.571092
0.563654
0.553272
0.540485
0.526084
0.516359
0.506887
0.497381
0.48704
0.483763
0.475204
0.460882
0.448261
0.437251
0.425753
0.412809
0.408806
0.39919
0.388674
0.375425
0.367156
0.358089
0.347127
0.333253
0.329926
0.319303
0.308612
0.294972
0.285618
0.274679
0.258575
0.247408
0.23941
0.230392
0.221041
0.21153
0.201919
0.192242
0.182513
0.172744
0.162946
0.153124
0.143283
0.13343
0.123566
0.113692
0.10381
0.0939225
0.0840301
0.0741335
0.0642334
0.0543316
0.0444307
0.0345317
0.0246206
0.0146713
0.00481323
0.76612
0.759277
0.747296
0.733024
0.722406
0.710792
0.699614
0.6894
0.680816
0.672178
0.660349
0.649758
0.638486
0.631105
0.619266
0.606493
0.59489
0.586205
0.569615
0.561769
0.552042
0.541919
0.521577
0.518029
0.507247
0.499311
0.488883
0.486851
0.473614
0.463209
0.447144
0.437895
0.428541
0.411721
0.40242
0.399608
0.389861
0.372613
0.367305
0.364107
0.349864
0.334266
0.328003
0.319276
0.310747
0.293221
0.284301
0.273512
0.258983
0.248493
0.239597
0.23041
0.22102
0.211505
0.201899
0.192225
0.182501
0.172737
0.162943
0.153124
0.143285
0.133433
0.123571
0.113696
0.103815
0.0939281
0.0840363
0.0741393
0.0642388
0.0543363
0.0444349
0.0345351
0.0246233
0.0146734
0.00481425
0.765619
0.758762
0.741645
0.737477
0.723728
0.711931
0.700849
0.688139
0.684611
0.671263
0.661161
0.651878
0.63471
0.635018
0.619591
0.605731
0.591146
0.582682
0.571502
0.561524
0.551357
0.541279
0.524632
0.516075
0.505039
0.503266
0.492992
0.485204
0.472129
0.459824
0.451313
0.43659
0.426307
0.413705
0.399308
0.398305
0.396329
0.377648
0.364556
0.364037
0.349056
0.33517
0.327756
0.319103
0.309128
0.294662
0.283273
0.271882
0.259788
0.249568
0.240051
0.230615
0.221126
0.211566
0.201939
0.192254
0.182525
0.172758
0.162962
0.153141
0.143301
0.133448
0.123583
0.113709
0.103827
0.0939399
0.0840468
0.0741482
0.0642465
0.0543429
0.0444405
0.0345395
0.0246268
0.0146759
0.00481544
0.763243
0.756253
0.747393
0.739832
0.721881
0.713079
0.702689
0.689235
0.682679
0.67139
0.661263
0.649282
0.638211
0.630351
0.617733
0.605738
0.59351
0.582034
0.572142
0.561745
0.551387
0.541432
0.526482
0.516152
0.50522
0.503882
0.493969
0.480656
0.470073
0.458369
0.449018
0.438265
0.42694
0.415151
0.403822
0.398093
0.391638
0.38043
0.372063
0.360958
0.345531
0.336075
0.328401
0.320058
0.312006
0.292921
0.281747
0.269991
0.259732
0.249979
0.240415
0.230872
0.221305
0.211693
0.202033
0.192328
0.182585
0.172808
0.163003
0.153176
0.143332
0.133474
0.123606
0.113729
0.103846
0.0939558
0.0840603
0.0741599
0.0642567
0.0543514
0.0444473
0.0345451
0.0246308
0.0146789
0.00481672
0.760894
0.755982
0.75081
0.737424
0.724019
0.714514
0.701778
0.690978
0.681954
0.672585
0.663191
0.645757
0.639708
0.629154
0.615266
0.605856
0.595156
0.580696
0.572131
0.561808
0.551245
0.540628
0.529011
0.517395
0.507493
0.500946
0.492505
0.478555
0.467861
0.457506
0.448137
0.438418
0.427822
0.417086
0.407115
0.39843
0.390189
0.380638
0.370568
0.35987
0.348316
0.338077
0.329031
0.32071
0.313522
0.295192
0.279268
0.268148
0.259809
0.250354
0.24075
0.23115
0.221525
0.211866
0.202171
0.192439
0.182676
0.172883
0.163066
0.153229
0.143378
0.133514
0.123639
0.113757
0.103869
0.0939755
0.0840771
0.0741748
0.0642691
0.0543618
0.0444556
0.0345517
0.0246356
0.0146824
0.0048182
0.760012
0.756213
0.747581
0.734231
0.722435
0.712017
0.703115
0.690873
0.681997
0.674702
0.660661
0.643643
0.643644
0.625345
0.614071
0.607985
0.58937
0.584268
0.572925
0.562068
0.551106
0.540706
0.5321
0.516855
0.506584
0.499097
0.492882
0.477034
0.465918
0.456656
0.44698
0.439341
0.428725
0.418177
0.408713
0.398633
0.390146
0.380793
0.369505
0.359607
0.349947
0.339499
0.328648
0.320056
0.312071
0.296872
0.279437
0.269271
0.26014
0.250709
0.241103
0.231455
0.22178
0.212076
0.202343
0.192582
0.182795
0.172983
0.16315
0.1533
0.143438
0.133565
0.123682
0.113793
0.103899
0.0940004
0.0840978
0.0741921
0.0642834
0.0543735
0.0444651
0.0345591
0.0246409
0.0146864
0.00481978
0.757892
0.75808
0.747828
0.729329
0.719385
0.708275
0.695239
0.687118
0.68067
0.671248
0.660433
0.648042
0.641387
0.62607
0.613371
0.608955
0.594911
0.582378
0.572725
0.562452
0.550459
0.538823
0.529485
0.519095
0.508347
0.497669
0.49347
0.4769
0.462889
0.455964
0.445165
0.442226
0.429393
0.418076
0.408716
0.399002
0.390997
0.381749
0.368029
0.35904
0.353618
0.338485
0.326509
0.319365
0.312684
0.29465
0.282569
0.271164
0.26099
0.251218
0.241505
0.23179
0.222064
0.212317
0.202547
0.192754
0.18294
0.173104
0.163251
0.153385
0.143506
0.13362
0.12373
0.113833
0.103933
0.0940285
0.084121
0.0742113
0.0642993
0.0543866
0.0444757
0.0345672
0.0246469
0.0146906
0.00482153
0.759146
0.756583
0.746104
0.727968
0.717627
0.7057
0.695119
0.683045
0.680315
0.67052
0.66059
0.649617
0.638967
0.62502
0.619735
0.608064
0.596265
0.58235
0.57292
0.564752
0.549393
0.53484
0.527364
0.520556
0.510475
0.499595
0.490481
0.476359
0.461456
0.457735
0.448645
0.440349
0.428572
0.417142
0.404825
0.402323
0.392412
0.381549
0.368682
0.356524
0.353572
0.339753
0.325139
0.317873
0.310296
0.299214
0.285253
0.27189
0.261516
0.251677
0.241901
0.232141
0.222372
0.212585
0.202777
0.19295
0.183103
0.173241
0.163366
0.153481
0.143587
0.133688
0.123786
0.113879
0.10397
0.0940591
0.0841461
0.0742318
0.0643164
0.0544006
0.0444869
0.0345759
0.0246533
0.0146953
0.00482342
0.765178
0.749282
0.739664
0.731193
0.717705
0.703963
0.694091
0.682746
0.676893
0.673221
0.661407
0.650205
0.63934
0.627143
0.620625
0.61103
0.594498
0.581625
0.571993
0.561501
0.54729
0.53704
0.526189
0.523789
0.513543
0.500452
0.489158
0.476995
0.464806
0.454284
0.451588
0.439508
0.426236
0.417046
0.403607
0.40124
0.392905
0.381866
0.369961
0.358478
0.351441
0.339823
0.319974
0.316759
0.309945
0.305139
0.287413
0.271195
0.261772
0.252058
0.242283
0.232501
0.2227
0.212874
0.203027
0.193161
0.183281
0.173391
0.163492
0.153585
0.143673
0.133759
0.123843
0.113926
0.104008
0.0940909
0.0841727
0.0742536
0.0643342
0.0544152
0.0444985
0.0345848
0.0246601
0.0147002
0.00482545
0.759957
0.747407
0.733797
0.727239
0.717841
0.709271
0.69486
0.681899
0.679791
0.670939
0.660402
0.650481
0.641433
0.624691
0.619565
0.609136
0.596294
0.583622
0.571302
0.560496
0.544306
0.540645
0.529499
0.520459
0.51843
0.499421
0.488871
0.477899
0.467944
0.455347
0.449634
0.440547
0.422277
0.419152
0.404554
0.395336
0.393211
0.383192
0.372452
0.358634
0.349832
0.336183
0.325712
0.320514
0.304907
0.303069
0.287287
0.271719
0.262068
0.252418
0.242674
0.232882
0.223047
0.213182
0.203293
0.193389
0.183474
0.173551
0.163623
0.153693
0.143761
0.133831
0.123902
0.113974
0.104048
0.094123
0.0841998
0.0742758
0.0643522
0.05443
0.0445103
0.0345938
0.0246671
0.0147054
0.00482763
0.755997
0.746217
0.735112
0.726268
0.717133
0.704296
0.69483
0.684656
0.677862
0.668546
0.658339
0.650262
0.639106
0.625612
0.621811
0.608782
0.596526
0.585143
0.570433
0.559788
0.547776
0.54005
0.530414
0.520749
0.513469
0.501693
0.489515
0.477735
0.468016
0.457346
0.448128
0.438125
0.426877
0.418056
0.406348
0.395924
0.387703
0.384067
0.371891
0.359113
0.346902
0.335206
0.328667
0.322493
0.307497
0.295705
0.285847
0.273894
0.262385
0.252868
0.243142
0.233309
0.223426
0.213511
0.203574
0.193626
0.183672
0.173714
0.163756
0.1538
0.143849
0.133902
0.123959
0.11402
0.104086
0.0941549
0.084226
0.0742975
0.0643701
0.0544444
0.0445218
0.0346024
0.0246744
0.0147107
0.00482994
0.753102
0.74573
0.734033
0.721283
0.717516
0.706076
0.695722
0.685821
0.67646
0.666406
0.655634
0.651684
0.639782
0.628625
0.622407
0.605866
0.596002
0.583818
0.571496
0.560573
0.549655
0.54007
0.530675
0.521388
0.512353
0.503926
0.488112
0.476457
0.467643
0.458119
0.448241
0.438222
0.429484
0.417213
0.406545
0.397077
0.387382
0.380247
0.370286
0.359663
0.344411
0.332902
0.329423
0.319986
0.308024
0.296806
0.286436
0.276509
0.262364
0.253673
0.243745
0.233788
0.223834
0.21386
0.203869
0.193869
0.183869
0.173873
0.163883
0.153902
0.14393
0.133967
0.124011
0.114063
0.104122
0.0941847
0.0842502
0.0743173
0.0643864
0.054458
0.0445326
0.0346109
0.0246816
0.0147161
0.00483244
0.751641
0.743451
0.734805
0.723685
0.715673
0.705964
0.6962
0.686196
0.676292
0.666579
0.656599
0.648827
0.638676
0.629031
0.618477
0.607474
0.598702
0.581308
0.572074
0.561212
0.55038
0.540448
0.530897
0.521148
0.510483
0.500793
0.48951
0.477856
0.467878
0.459043
0.448838
0.43721
0.43017
0.418882
0.407038
0.398829
0.38679
0.378059
0.368649
0.358716
0.343784
0.33424
0.326945
0.317638
0.306861
0.296909
0.28732
0.277836
0.263266
0.25433
0.244299
0.234282
0.224265
0.214227
0.204173
0.194116
0.184065
0.174025
0.164001
0.153994
0.144002
0.134024
0.124058
0.114101
0.104153
0.0942102
0.0842717
0.0743354
0.0644013
0.0544701
0.0445424
0.0346191
0.0246882
0.0147218
0.00483504
0.753097
0.741733
0.737358
0.724517
0.714372
0.70663
0.696708
0.686924
0.677098
0.666771
0.656702
0.646481
0.63695
0.629445
0.61587
0.607346
0.596843
0.584399
0.573718
0.561424
0.549821
0.540381
0.531376
0.521861
0.509116
0.499355
0.489148
0.478686
0.468627
0.460013
0.451067
0.432018
0.430291
0.41863
0.409579
0.404394
0.382866
0.376654
0.367819
0.357675
0.344286
0.334403
0.324698
0.314694
0.304465
0.297431
0.290229
0.277245
0.265055
0.254807
0.244811
0.234792
0.22472
0.214609
0.204482
0.194359
0.18425
0.174164
0.164104
0.15407
0.14406
0.134068
0.124092
0.114129
0.104176
0.09423
0.0842887
0.0743499
0.0644136
0.0544801
0.0445509
0.0346265
0.0246948
0.0147276
0.00483786
0.755402
0.744637
0.736313
0.724001
0.71277
0.708988
0.696939
0.686724
0.677597
0.666553
0.656596
0.644051
0.633859
0.624022
0.620626
0.608633
0.597
0.585928
0.576327
0.559976