/*--------------------------------*- C++ -*----------------------------------*\
  =========                 |
  \\      /  F ield         | OpenFOAM: The Open Source CFD Toolbox
   \\    /   O peration     | Website:  https://openfoam.org
    \\  /    A nd           | Version:  12
     \\/     M anipulation  |
\*---------------------------------------------------------------------------*/
FoamFile
{
    format      ascii;
    class       surfaceScalarField;
    location    "0.55";
    object      phi.water;
}
// * * * * * * * * * * * * * * * * * * * * * * * * * * * * * * * * * * * * * //

dimensions      [0 3 -1 0 0 0 0];

internalField   nonuniform List<scalar> 
7375
(
1.19741e-07
3.12654e-08
1.09103e-07
1.06367e-08
1.07279e-07
1.81477e-09
9.91016e-08
8.20235e-09
8.97776e-08
9.33912e-09
7.28002e-08
1.69815e-08
1.8675e-07
4.49333e-08
4.67342e-08
-1.83669e-08
1.93578e-07
1.37124e-08
8.75946e-08
-5.41885e-08
5.05128e-08
-1.58103e-08
8.84389e-08
1.48519e-08
8.52493e-08
3.187e-09
8.07028e-08
5.34659e-09
9.90864e-08
-1.85654e-08
6.94475e-08
2.88518e-08
4.16592e-08
2.8439e-08
1.74492e-07
2.76126e-08
3.46454e-08
-2.10966e-08
2.78174e-08
6.81353e-09
1.48006e-07
3.83016e-08
1.45991e-07
1.9947e-09
2.91357e-08
-4.15606e-08
5.26209e-08
-2.34612e-08
5.32626e-08
-6.10903e-10
4.9761e-08
3.50268e-09
4.79439e-08
1.87594e-09
5.17373e-08
-3.75626e-09
7.57242e-08
-2.34456e-08
1.63255e-07
7.12447e-08
3.80992e-08
-3.34371e-08
4.6745e-08
-8.17309e-09
4.80246e-08
-1.32685e-09
5.61994e-08
-8.11616e-09
9.32433e-08
-3.6434e-08
1.18878e-07
-2.62496e-08
8.21171e-08
3.55307e-08
7.20457e-08
1.00786e-08
1.62636e-08
2.904e-09
5.45016e-08
1.46386e-08
4.76517e-08
6.29936e-09
5.1186e-08
-3.53494e-09
5.58645e-08
-4.18461e-09
6.70216e-08
-1.1124e-08
7.22057e-08
-4.38671e-09
6.73455e-08
5.05147e-09
5.24522e-08
1.42066e-08
3.01391e-08
2.23407e-08
2.25835e-08
7.53773e-09
-6.05836e-09
2.86072e-08
-1.0016e-08
3.96873e-09
-3.3838e-08
2.36075e-08
7.45464e-08
4.92431e-08
-5.8713e-08
-2.43687e-08
-6.47932e-08
5.50192e-09
-5.42474e-08
-9.28938e-09
-5.13603e-08
-2.34416e-09
-4.6197e-08
-5.16413e-09
-3.82469e-08
-7.94943e-09
-2.82491e-08
-9.99843e-09
-1.79642e-08
-1.02842e-08
-8.53941e-09
-9.42527e-09
-2.60473e-10
-8.27805e-09
7.51141e-09
-7.77213e-09
1.70416e-08
-9.52911e-09
2.78315e-08
-1.07899e-08
3.89421e-08
-1.11095e-08
4.571e-08
-6.76815e-09
4.08552e-08
4.85549e-09
2.3039e-08
1.78155e-08
-1.85464e-09
2.48939e-08
-3.06913e-08
2.88369e-08
-5.84767e-08
2.77868e-08
-8.08986e-08
2.24237e-08
5.50418e-09
-4.48188e-09
-2.43255e-08
1.2586e-08
-6.60695e-09
1.42233e-08
1.76548e-10
1.80663e-08
4.50354e-09
1.94241e-08
8.06307e-09
1.64773e-08
1.97263e-08
4.4695e-08
1.65465e-08
3.07698e-08
-4.44227e-09
5.79319e-08
-1.41808e-08
2.82284e-08
-2.44855e-08
2.79059e-08
-1.56443e-08
5.07274e-08
-7.97003e-09
5.34013e-08
1.0304e-09
4.98445e-08
9.31638e-09
1.52947e-07
4.06258e-08
4.51672e-08
-2.50059e-08
-3.15758e-10
1.99476e-08
3.90356e-08
4.13436e-08
-2.42237e-09
2.01536e-08
-7.61575e-09
1.21089e-08
2.36587e-08
6.78835e-09
3.72372e-08
-1.17213e-08
2.20251e-08
-2.59723e-08
1.97602e-08
-2.09719e-08
1.78315e-08
1.318e-09
2.44379e-08
-3.07255e-09
1.19014e-08
1.45611e-08
-3.75225e-09
1.19812e-08
1.21613e-07
1.18381e-08
2.54993e-08
6.24153e-09
1.29383e-09
-9.58213e-09
-3.48824e-11
-6.83139e-09
-6.76986e-10
-6.77935e-10
-3.11324e-08
2.20248e-08
-6.99167e-08
5.46606e-08
4.38807e-08
2.31528e-08
-8.03417e-08
-3.04703e-11
-6.18837e-08
-8.37956e-09
-6.16175e-08
3.26668e-09
-4.2635e-08
-3.91344e-09
-3.38943e-08
-2.87165e-09
-2.87615e-08
-9.04976e-09
-2.78787e-08
-5.06724e-09
-3.05621e-08
-8.52782e-09
-9.82766e-09
-2.5121e-08
2.34472e-08
-2.85666e-08
-2.15871e-08
5.92409e-08
-2.15567e-08
2.20847e-08
-7.95848e-09
-6.12295e-09
-8.7448e-08
5.45766e-08
-6.53398e-08
3.51317e-08
-6.69431e-08
2.56277e-08
-3.68531e-08
1.86608e-08
-6.9448e-08
8.22583e-09
-7.84264e-08
1.43704e-08
-9.36533e-08
6.03006e-09
-9.59934e-08
-4.00675e-12
-9.53844e-08
-5.77333e-09
-9.37354e-08
-9.59829e-09
-9.07456e-08
-1.29884e-08
-8.75135e-08
-1.35162e-08
-8.41599e-08
-1.27789e-08
-8.02735e-08
-1.21641e-08
-7.37404e-08
-1.43049e-08
-6.31903e-08
-2.00786e-08
-5.03078e-08
-2.36719e-08
-3.75311e-08
-2.38855e-08
-2.97309e-08
-1.45681e-08
-3.42486e-08
9.37343e-09
-4.99465e-08
3.35132e-08
-7.1545e-08
4.64925e-08
-9.2299e-08
4.95915e-08
-9.98578e-08
3.53474e-08
-1.01221e-07
2.37886e-08
2.51412e-09
-9.04935e-08
3.51197e-08
-9.60029e-08
-1.09911e-09
-1.00673e-07
4.79794e-09
-9.8996e-08
1.81615e-09
-1.09852e-07
1.9846e-08
-8.32751e-08
-4.90065e-09
-7.04377e-08
2.8676e-09
-7.03034e-08
-5.29569e-09
-8.07534e-08
-3.73124e-09
-8.62636e-08
-2.01056e-08
-9.21556e-08
-9.65318e-09
-8.42391e-08
-1.50281e-08
-7.88727e-08
-3.53159e-09
-5.8443e-08
-1.11137e-08
-2.9331e-08
1.03968e-08
-3.11741e-08
-2.3385e-08
-5.91178e-08
4.72059e-08
-3.95478e-08
2.21768e-08
-3.53519e-08
1.57541e-08
-3.9782e-08
1.61782e-08
-3.92436e-08
6.31909e-09
-4.2603e-08
-8.4816e-09
-4.72314e-08
-2.16089e-08
-5.08072e-08
-1.75755e-08
-6.32419e-08
1.43979e-08
-7.37804e-08
6.85935e-09
-9.75698e-08
3.65845e-08
-1.23909e-07
3.80489e-08
-7.31517e-10
5.03424e-08
-1.26819e-07
-2.65525e-08
-1.20151e-07
-1.63473e-08
-1.17725e-07
-9.32758e-09
-1.22951e-07
4.5487e-09
-1.10584e-07
8.75456e-09
-1.67501e-07
3.99639e-09
2.13608e-08
4.71613e-08
-1.03005e-07
-3.29484e-08
-8.45086e-08
-2.79271e-08
-8.44159e-08
3.17402e-09
-8.49946e-08
-3.37461e-09
-9.42104e-08
6.31497e-09
-1.13852e-07
1.05923e-08
-1.21991e-07
1.8269e-09
-1.68694e-07
-1.53336e-08
-1.64144e-07
2.33381e-08
-6.02196e-08
2.83273e-08
-2.03791e-07
-6.3462e-09
-1.69806e-07
3.84245e-08
-7.04778e-08
5.35003e-08
-1.62855e-07
-7.89422e-09
-1.36593e-07
8.51762e-09
-1.19265e-07
8.29952e-09
-1.11108e-07
1.05042e-08
-1.14948e-07
1.20652e-08
-1.16532e-07
1.59548e-08
-1.2479e-07
1.42876e-08
-1.33806e-07
9.01199e-09
-1.40002e-07
4.22041e-10
-1.42021e-07
-7.5794e-09
-1.41905e-07
-1.31044e-08
-1.41739e-07
-1.36817e-08
-1.41776e-07
-1.27415e-08
-1.39897e-07
-1.40429e-08
-1.34401e-07
-1.98008e-08
-1.27656e-07
-2.68234e-08
-1.22075e-07
-2.92523e-08
-1.18622e-07
-2.73379e-08
-1.18919e-07
-1.42701e-08
-1.2265e-07
1.31044e-08
-1.26491e-07
3.73539e-08
-1.25199e-07
4.52005e-08
-1.17723e-07
4.21163e-08
-1.10917e-07
2.85434e-08
-1.05384e-07
1.82581e-08
-7.36439e-10
-2.00246e-07
-2.17238e-08
-1.54778e-07
7.89285e-09
-1.34764e-07
-1.5217e-08
-1.29347e-07
-3.65697e-09
-1.1994e-07
1.01357e-08
-1.16493e-07
-9.62223e-09
-1.05781e-07
-7.81519e-09
-1.06871e-07
-4.20665e-09
-1.0164e-07
-8.96194e-09
-1.01885e-07
-1.88214e-08
-9.87317e-08
-1.27098e-08
-1.04544e-07
-1.02238e-08
-9.43883e-08
-1.3549e-08
-1.0296e-07
-1.60512e-09
-9.97714e-08
5.19248e-09
-1.41557e-08
5.17665e-08
-8.99799e-08
-3.39685e-08
-4.73797e-08
-2.15615e-08
-5.37385e-08
2.22734e-08
-6.46588e-08
2.70983e-08
-7.57334e-08
1.73937e-08
-8.42484e-08
3.31816e-11
-8.22192e-08
-2.47292e-08
-1.38006e-07
3.82112e-08
-1.36482e-07
1.14973e-08
-1.58469e-07
2.86191e-08
-1.27605e-07
8.58142e-09
-1.15426e-07
2.54814e-08
-7.76781e-08
1.20807e-08
-9.37736e-08
-1.04569e-08
-1.10311e-07
1.90293e-10
-1.14688e-07
-4.95087e-09
-1.1533e-07
5.19059e-09
-1.14056e-07
7.48163e-09
-1.15805e-07
5.70431e-09
-7.66429e-08
7.99929e-09
-1.0661e-07
-3.31742e-09
-1.25109e-07
-9.5252e-09
-1.17887e-07
-4.04789e-09
-1.18426e-07
-2.83579e-09
-1.21849e-07
9.73853e-09
-1.19542e-07
8.20162e-09
-1.26097e-07
8.29732e-09
-1.59802e-07
1.83408e-08
-1.18064e-07
-1.98064e-08
-1.4098e-07
5.09508e-08
-1.63365e-07
1.91433e-08
-1.31863e-07
8.64182e-09
-1.02261e-07
2.2829e-08
-1.136e-07
3.44467e-09
-1.08561e-07
3.4781e-09
-1.05184e-07
4.922e-09
-1.03703e-07
9.02391e-09
-1.05301e-07
1.36625e-08
-1.09555e-07
2.02085e-08
-1.17058e-07
2.17904e-08
-1.27017e-07
1.89712e-08
-1.37638e-07
1.10432e-08
-1.45324e-07
1.06278e-10
-1.50236e-07
-8.19178e-09
-1.54154e-07
-9.76428e-09
-1.57568e-07
-9.32684e-09
-1.57795e-07
-1.38156e-08
-1.53193e-07
-2.44034e-08
-1.48953e-07
-3.10627e-08
-1.46626e-07
-3.1579e-08
-1.4798e-07
-2.59834e-08
-1.52387e-07
-9.86278e-09
-1.51328e-07
1.20457e-08
-1.43788e-07
2.98144e-08
-1.33274e-07
3.46866e-08
-1.207e-07
2.95432e-08
-1.13515e-07
2.13612e-08
-1.0794e-07
1.26853e-08
-2.72604e-09
-1.47007e-07
1.24094e-08
-1.25371e-07
-1.37447e-08
-1.05379e-07
-3.6645e-08
-1.19753e-07
1.18177e-08
-1.09283e-07
-2.33031e-10
-1.10449e-07
-9.57095e-09
-1.08341e-07
-9.92367e-09
-1.14681e-07
2.1322e-09
-1.02133e-07
-2.12931e-08
-1.09117e-07
-1.18373e-08
-1.05125e-07
-1.68319e-08
-1.44348e-07
-2.2492e-08
-9.66699e-08
-8.79893e-09
-9.8366e-08
-8.95472e-10
-9.43362e-08
2.17778e-09
-6.96924e-08
2.58162e-08
-1.10968e-07
5.16988e-09
-9.92039e-09
3.79174e-08
-1.09827e-07
-3.69849e-08
-1.20559e-07
3.78297e-08
-1.18794e-07
1.56287e-08
-1.42168e-07
2.1957e-08
-4.36731e-08
3.7302e-08
-1.57768e-07
-6.52687e-09
-1.30856e-07
-1.40803e-08
-1.15297e-07
1.24824e-08
-9.77496e-08
-1.01421e-08
-7.45244e-08
2.2562e-09
-6.73437e-08
4.90011e-09
-6.72372e-08
-1.05633e-08
-7.41769e-08
7.13003e-09
-8.57864e-08
6.65873e-09
-1.00023e-07
1.94269e-08
-1.11926e-07
1.93847e-08
-1.25819e-07
1.95978e-08
-1.29509e-07
1.16891e-08
-1.40446e-07
6.18699e-09
-1.54938e-07
4.96711e-09
-1.29358e-07
-2.80467e-08
-1.24958e-07
-7.23622e-09
-1.12492e-07
-1.57979e-09
-9.89981e-08
-4.2925e-09
-8.98768e-08
-9.16089e-10
-9.55235e-08
2.23408e-08
2.49293e-09
4.12934e-08
-9.95477e-08
-6.37764e-09
-9.27862e-08
1.23817e-08
-9.26499e-08
9.53873e-09
-8.36795e-08
1.47848e-08
-8.75143e-08
7.27922e-09
-9.15402e-08
7.50393e-09
-9.43214e-08
7.70302e-09
-9.62357e-08
1.0938e-08
-9.77885e-08
1.52152e-08
-1.01798e-07
2.4218e-08
-1.07814e-07
2.78063e-08
-1.15887e-07
2.70441e-08
-1.26553e-07
2.1709e-08
-1.39526e-07
1.30792e-08
-1.51507e-07
3.78898e-09
-1.59249e-07
-2.02156e-09
-1.62313e-07
-6.26288e-09
-1.5957e-07
-1.65584e-08
-1.53889e-07
-3.0084e-08
-1.50189e-07
-3.4763e-08
-1.47627e-07
-3.414e-08
-1.485e-07
-2.51107e-08
-1.51299e-07
-7.06288e-09
-1.49416e-07
1.0163e-08
-1.39866e-07
2.02643e-08
-1.2788e-07
2.27016e-08
-1.18152e-07
1.9816e-08
-1.12497e-07
1.57088e-08
-1.09045e-07
9.23544e-09
-2.51862e-09
-1.3949e-07
1.03469e-09
-1.47078e-07
-7.72109e-09
-3.70978e-08
1.26406e-08
-1.24513e-07
-5.80525e-08
-1.12021e-07
-1.38569e-08
-9.90649e-08
-2.27596e-08
-8.98221e-08
-1.91669e-08
-1.27249e-07
-1.21059e-08
-8.67089e-08
-9.4056e-09
-9.17291e-08
-7.70209e-09
-9.84243e-08
-1.01371e-08
-1.08109e-07
-1.28073e-08
-1.0238e-07
-1.46182e-08
-9.66358e-08
-6.64021e-09
-1.20329e-07
2.73776e-08
-9.55385e-08
3.24749e-10
-1.11945e-07
2.0591e-08
-1.0022e-07
2.59251e-08
-2.62567e-08
4.95785e-08
-1.84607e-07
-1.54037e-08
-1.3577e-07
1.97543e-08
-1.28136e-07
1.4323e-08
-1.08476e-07
1.72607e-08
-1.21676e-07
6.67298e-09
-1.3677e-07
1.01391e-09
-1.13192e-07
-1.09677e-08
-1.05261e-07
-1.80731e-08
-7.6789e-08
-2.62163e-08
-8.56566e-08
1.36288e-08
-7.28796e-08
-2.35808e-08
-9.61141e-08
3.03646e-08
-1.07246e-07
1.77908e-08
-1.06952e-07
1.91325e-08
-1.15067e-07
2.72226e-08
-1.17224e-07
2.17545e-08
-1.22655e-07
1.71201e-08
-1.24835e-07
8.36791e-09
-1.20286e-07
3.67451e-10
-1.09493e-07
-3.924e-08
-1.23208e-07
6.47818e-09
-1.24349e-07
-4.38116e-10
-1.3332e-07
4.6345e-09
-1.10708e-07
-2.49212e-08
-1.25353e-07
3.81149e-08
-8.83688e-08
6.05065e-09
-6.98192e-08
-2.60832e-08
-9.21005e-08
3.36078e-08
-9.36587e-08
1.20523e-08
-8.68015e-08
8.86375e-09
-8.62959e-08
6.77344e-09
-8.61649e-08
7.37278e-09
-8.75692e-08
9.10722e-09
-9.00935e-08
1.34621e-08
-9.37035e-08
1.88251e-08
-9.6886e-08
2.74004e-08
-9.98883e-08
3.08086e-08
-1.04044e-07
3.11998e-08
-1.09626e-07
2.72904e-08
-1.17835e-07
2.12887e-08
-1.28676e-07
1.46298e-08
-1.38342e-07
7.64426e-09
-1.42348e-07
-2.25617e-09
-1.39119e-07
-1.97877e-08
-1.35844e-07
-3.33589e-08
-1.34784e-07
-3.58222e-08
-1.35753e-07
-3.31702e-08
-1.39248e-07
-2.1616e-08
-1.4118e-07
-5.12977e-09
-1.37907e-07
6.88955e-09
-1.30574e-07
1.29319e-08
-1.22632e-07
1.47602e-08
-1.16569e-07
1.37546e-08
-1.12341e-07
1.14825e-08
-1.10203e-07
7.10032e-09
-1.83768e-09
-1.44552e-07
2.66439e-09
-1.24959e-07
-2.73155e-08
-1.03177e-07
-9.14257e-09
-1.26872e-07
-3.36561e-08
-1.14473e-07
-2.71394e-08
-1.02137e-07
-3.62758e-08
-6.55429e-08
-5.52832e-08
-8.83777e-08
1.06201e-08
-9.76198e-08
-2.59824e-10
-1.0188e-07
-3.44253e-09
-1.06643e-07
-5.37451e-09
-1.16329e-07
-3.15365e-09
-1.21745e-07
-9.20186e-09
-1.39315e-07
9.70611e-09
-1.63251e-07
-3.87768e-09
-1.4548e-07
3.77476e-08
-1.48718e-07
2.51034e-08
-1.41893e-07
1.90996e-08
-1.16751e-07
2.36889e-08
-1.38315e-07
6.16055e-09
-1.39642e-07
2.10808e-08
-1.43871e-07
1.85519e-08
-1.35803e-07
9.19245e-09
-1.361e-07
6.89914e-09
-1.35635e-07
5.4911e-10
-1.46908e-07
3.05006e-10
-1.72465e-07
7.48477e-09
-5.01266e-08
1.0845e-08
-1.40118e-07
-5.56407e-08
-3.0109e-08
2.54923e-08
-2.03834e-07
-7.45497e-09
-1.0973e-07
-2.33506e-08
-1.25684e-07
3.6002e-08
-1.14983e-07
1.65218e-08
-1.24631e-07
3.02297e-08
-1.24272e-07
1.65918e-08
-1.29153e-07
1.32485e-08
-1.46183e-07
1.59069e-08
-5.11125e-08
2.62157e-08
-1.76253e-07
-2.67486e-08
-1.46057e-07
-3.09503e-08
-1.85712e-07
4.23951e-08
-9.71918e-08
4.80871e-08
-1.91492e-07
-2.42727e-08
-1.72819e-07
-1.62778e-08
-6.23939e-08
2.46469e-08
-1.52874e-07
-3.25667e-08
-1.35793e-07
-5.20312e-09
-1.22368e-07
-3.20313e-09
-1.1569e-07
9.4839e-11
-1.10818e-07
2.50113e-09
-1.08862e-07
7.15094e-09
-1.08344e-07
1.29437e-08
-1.07066e-07
1.75469e-08
-1.037e-07
2.40346e-08
-1.02364e-07
2.94727e-08
-1.0179e-07
3.06251e-08
-1.02002e-07
2.75022e-08
-1.03865e-07
2.31521e-08
-1.08001e-07
1.87661e-08
-1.12342e-07
1.19846e-08
-1.14781e-07
1.83293e-10
-1.1574e-07
-1.8829e-08
-1.18057e-07
-3.1041e-08
-1.21133e-07
-3.27464e-08
-1.2593e-07
-2.83723e-08
-1.31351e-07
-1.61944e-08
-1.32933e-07
-3.54744e-09
-1.2968e-07
3.63675e-09
-1.24745e-07
7.9975e-09
-1.20101e-07
1.01168e-08
-1.16141e-07
9.79626e-09
-1.1312e-07
8.46363e-09
-1.11456e-07
5.43796e-09
-1.3507e-09
-1.48399e-07
-3.34179e-09
-1.37532e-07
1.47792e-08
-1.2864e-07
-1.80354e-08
-1.4398e-07
-1.70216e-08
-1.3252e-07
-3.88743e-08
-1.48258e-07
-2.32701e-08
-2.38914e-08
-1.90743e-08
-1.44034e-07
-2.62806e-08
-1.40965e-07
-4.75005e-09
-1.43598e-07
-8.10418e-10
-1.4767e-07
-2.80908e-09
-1.6758e-07
-3.71355e-08
-1.64528e-07
3.90621e-08
-2.52062e-07
-1.1007e-08
-2.09951e-07
6.51186e-08
-1.94065e-07
2.14768e-08
-1.82027e-07
1.29336e-08
-1.67061e-07
5.83748e-09
-1.4146e-07
-1.91223e-09
-1.22627e-07
-1.41164e-08
-1.41246e-07
3.92993e-08
-1.42865e-07
2.01708e-08
-1.45334e-07
1.31442e-08
-1.41348e-07
2.9124e-09
-1.4645e-07
4.20906e-09
-1.45628e-07
-5.16212e-10
-1.50669e-07
1.25249e-08
-1.43676e-07
2.38639e-09
-7.58152e-08
3.64518e-08
-6.22751e-08
1.24657e-08
-2.41775e-07
-3.98071e-08
-6.60934e-08
1.34942e-08
-1.51495e-07
-3.58803e-08
-1.26205e-07
-1.01451e-08
-1.50339e-07
2.93461e-09
-1.21721e-07
3.99974e-08
-1.28894e-07
1.91799e-08
-1.27605e-07
1.46187e-08
-1.15151e-07
1.34942e-08
-1.35748e-07
-7.53675e-09
-6.47879e-08
5.80182e-08
-1.80242e-07
-3.78549e-10
-1.44542e-07
1.18961e-08
-2.07216e-07
-1.48086e-08
-1.68117e-07
-4.12989e-09
-1.50226e-07
6.43595e-09
-1.70577e-07
-1.11295e-08
-1.68636e-07
-5.42333e-09
-1.59319e-07
-1.08345e-08
-1.55485e-07
-3.73936e-09
-1.52893e-07
-9.14168e-11
-1.49313e-07
3.57101e-09
-1.44073e-07
7.70361e-09
-1.37074e-07
1.0548e-08
-1.27817e-07
1.47779e-08
-1.18165e-07
1.98206e-08
-1.09747e-07
2.22065e-08
-1.03661e-07
2.1416e-08
-1.00516e-07
2.00077e-08
-1.00195e-07
1.84448e-08
-1.01101e-07
1.2891e-08
-1.0309e-07
2.17228e-09
-1.07432e-07
-1.44868e-08
-1.12485e-07
-2.5988e-08
-1.17272e-07
-2.79594e-08
-1.22012e-07
-2.36312e-08
-1.25938e-07
-1.22681e-08
-1.26455e-07
-3.03006e-09
-1.24268e-07
1.4498e-09
-1.21341e-07
5.07098e-09
-1.18512e-07
7.28829e-09
-1.15842e-07
7.12771e-09
-1.13697e-07
6.3213e-09
-1.12422e-07
4.16484e-09
-9.70936e-10
-1.6123e-07
3.77708e-09
-1.50998e-07
4.54526e-09
-1.73963e-07
3.18597e-09
-1.79444e-07
-1.15413e-08
-1.84265e-07
-3.48557e-08
-2.15502e-07
5.80536e-09
-7.47383e-08
3.10569e-09
-2.13852e-07
-4.38268e-08
-1.90078e-07
-2.85252e-08
-1.88644e-07
-4.18349e-09
-1.9837e-07
4.89271e-09
-1.22914e-07
4.83176e-08
-2.43877e-07
-9.75685e-11
-1.32666e-07
3.85348e-08
-2.15255e-07
-9.82796e-09
-1.96598e-07
4.82548e-09
-1.72609e-07
-1.09455e-08
-1.70235e-07
1.70244e-09
-1.71981e-07
-1.86058e-10
-6.09395e-08
3.40058e-08
-1.69581e-07
-9.34403e-09
-1.59561e-07
8.42148e-09
-1.3275e-07
-1.36669e-08
-1.57008e-07
2.69253e-08
-1.58784e-07
5.98421e-09
-1.73992e-07
1.4692e-08
-1.74763e-07
1.32957e-08
-1.4706e-07
-2.55773e-08
-1.39525e-07
2.85454e-08
-1.29789e-07
2.72898e-09
-1.58314e-07
-1.12815e-08
-1.3015e-07
-1.46695e-08
-1.47492e-07
-1.89048e-08
-1.29216e-07
-2.84216e-08
-1.70209e-07
4.52034e-08
-1.34959e-07
5.15111e-09
-1.39596e-07
2.24403e-08
-1.39414e-07
1.44365e-08
-1.53432e-07
2.7235e-08
-3.68189e-08
3.51142e-08
-1.21672e-07
-1.49992e-08
-1.34414e-07
1.101e-08
-1.23515e-07
9.97428e-10
-1.34352e-07
-3.97131e-09
-1.13526e-07
-2.37979e-08
-1.28215e-07
1.97651e-08
-1.30424e-07
-1.0243e-08
-1.19791e-07
-1.35036e-08
-1.20384e-07
-9.1347e-09
-1.18849e-07
-5.27449e-09
-1.21966e-07
3.02529e-09
-1.28024e-07
9.62922e-09
-1.32034e-07
1.17135e-08
-1.33525e-07
1.20388e-08
-1.3074e-07
1.1992e-08
-1.2265e-07
1.17309e-08
-1.11659e-07
1.12154e-08
-1.01673e-07
1.14298e-08
-9.47101e-08
1.30452e-08
-9.19772e-08
1.57119e-08
-9.26445e-08
1.35584e-08
-9.76715e-08
7.19927e-09
-1.05956e-07
-6.20242e-09
-1.11825e-07
-2.01189e-08
-1.15358e-07
-2.44254e-08
-1.1862e-07
-2.03691e-08
-1.21718e-07
-9.16946e-09
-1.22845e-07
-1.90282e-09
-1.22062e-07
6.67659e-10
-1.20177e-07
3.18559e-09
-1.18104e-07
5.21627e-09
-1.16032e-07
5.05701e-09
-1.14325e-07
4.61719e-09
-1.13194e-07
3.03566e-09
-7.11438e-10
-1.43369e-07
-1.55031e-08
-1.46291e-07
5.9724e-09
-1.89518e-07
-7.09698e-09
-1.75708e-07
2.81571e-08
-1.8952e-07
-2.29979e-08
-1.95677e-07
-4.00655e-08
-1.73905e-07
3.4486e-08
-2.14525e-07
-3.24078e-09
-2.16478e-07
-2.49287e-08
-2.05879e-07
-1.47833e-08
-1.97167e-07
-3.81931e-09
-1.64772e-07
1.54297e-08
-1.65074e-07
2.04212e-10
-1.38047e-07
1.11146e-08
-1.72336e-07
2.42136e-08
-2.09905e-07
-8.51405e-09
-1.80306e-07
1.17727e-08
-1.79593e-07
-8.50089e-10
-1.45778e-07
-3.25139e-08
-1.14806e-07
3.03355e-09
-1.6082e-07
3.50455e-08
-1.72985e-07
2.05869e-08
-6.38523e-08
3.67404e-08
-1.64991e-07
-2.92202e-08
-1.54974e-07
-5.71638e-09
-1.67225e-07
2.66705e-08
-1.78556e-07
2.28059e-08
-7.17456e-08
2.81385e-08
-1.54941e-07
-4.64161e-08
-1.55427e-07
3.21483e-09
-1.648e-07
-1.90809e-09
-1.58814e-07
-2.08687e-08
-1.73294e-07
-4.42474e-09
-6.03586e-08
1.81479e-08
-1.51111e-07
-2.13285e-08
-1.35652e-07
-1.17973e-08
-1.30452e-07
1.70662e-08
-1.28824e-07
1.41232e-08
-1.13445e-07
1.18564e-08
-8.55441e-08
6.05569e-09
-9.51635e-08
-4.56191e-09
-9.62292e-08
1.19549e-08
-1.0536e-07
9.14683e-09
-1.39332e-07
3.00006e-08
-1.5951e-08
1.15913e-08
-1.65553e-07
-4.22834e-08
-1.0875e-07
-1.39778e-08
-1.08378e-07
-1.38764e-08
-1.17566e-07
1.15996e-09
-1.2241e-07
7.5179e-10
-1.29976e-07
1.05916e-08
-1.28806e-07
8.4591e-09
-1.27188e-07
1.00949e-08
-1.24832e-07
9.68317e-09
-1.20414e-07
7.57402e-09
-1.11661e-07
2.97774e-09
-1.00718e-07
2.72713e-10
-8.89936e-08
-2.94869e-10
-7.86439e-08
2.6955e-09
-7.23806e-08
9.4486e-09
-7.06363e-08
1.18142e-08
-7.32489e-08
9.81187e-09
-8.17115e-08
2.26033e-09
-9.229e-08
-9.54021e-09
-1.01118e-07
-1.55968e-08
-1.0918e-07
-1.23067e-08
-1.14753e-07
-3.59602e-09
-1.17699e-07
1.0432e-09
-1.18954e-07
1.92257e-09
-1.18605e-07
2.83756e-09
-1.17284e-07
3.89585e-09
-1.15934e-07
3.70846e-09
-1.14572e-07
3.25769e-09
-1.13752e-07
2.21722e-09
-5.04178e-10
-1.20561e-07
3.74825e-08
-1.26124e-07
1.15338e-08
-1.48144e-07
1.34834e-08
-1.7532e-07
1.82358e-09
-1.77009e-07
3.18702e-08
-9.49128e-08
3.87777e-08
-1.9762e-07
-2.27437e-08
-1.97887e-07
-4.98066e-09
-2.17001e-07
-3.77515e-09
-2.21561e-07
-8.09245e-09
-2.07963e-07
-1.74174e-08
-1.83808e-07
-8.72576e-09
-1.60196e-07
-2.36495e-08
-1.8364e-07
3.68072e-08
-1.80807e-07
1.93593e-08
-1.98925e-07
7.66123e-09
-1.9084e-07
5.83771e-09
-2.00257e-07
8.56594e-09
-1.07926e-07
3.40438e-08
-1.00229e-07
-3.60955e-09
-1.80286e-07
-4.21822e-08
-1.56909e-07
-4.62992e-09
-1.26115e-07
5.94638e-09
-1.43321e-07
-1.23117e-08
-1.18469e-07
-2.93605e-08
-1.21189e-07
2.90965e-08
-1.21453e-07
2.18335e-08
-1.21933e-07
2.83315e-08
-3.66588e-08
2.71989e-08
-1.57515e-07
-3.48182e-08
-1.48555e-07
-1.23829e-08
-1.64253e-07
-5.17065e-09
-1.64622e-07
-2.38001e-09
-1.35016e-07
-1.14589e-08
-1.25052e-07
-3.18339e-08
-1.68384e-07
3.32525e-08
-1.3625e-07
-1.50683e-08
-1.14558e-07
-8.86837e-09
-1.03911e-07
1.33097e-09
-1.07141e-07
9.28511e-09
-8.95464e-08
-2.14616e-08
-9.61992e-08
1.85411e-08
-9.51272e-08
7.09334e-09
-1.14494e-07
-2.40258e-09
-5.91749e-08
8.7886e-09
-1.34841e-07
-2.01843e-08
-6.40468e-08
-3.21366e-08
-9.60386e-08
1.81152e-08
-1.1613e-07
2.12516e-08
-1.31288e-07
1.70824e-08
-1.31795e-07
1.24113e-08
-1.3487e-07
1.15337e-08
-1.32624e-07
7.84843e-09
-1.26938e-07
3.99736e-09
-1.18451e-07
-9.12941e-10
-1.0778e-07
-7.69291e-09
-9.61553e-08
-1.13522e-08
-8.49658e-08
-1.14844e-08
-7.49311e-08
-7.33914e-09
-6.54582e-08
-2.42736e-11
-6.03609e-08
6.71695e-09
-5.98138e-08
9.26482e-09
-6.50584e-08
7.50506e-09
-7.78933e-08
3.29485e-09
-9.42392e-08
7.49402e-10
-1.08169e-07
1.62389e-09
-1.15159e-07
3.39422e-09
-1.17941e-07
3.82502e-09
-1.18983e-07
2.96482e-09
-1.18799e-07
2.65473e-09
-1.17325e-07
2.42186e-09
-1.16025e-07
2.40975e-09
-1.14837e-07
2.0721e-09
-1.14182e-07
1.5647e-09
-3.61695e-10
-1.34855e-07
-2.56727e-08
-1.20781e-07
-3.91714e-09
-1.1251e-07
5.15849e-09
-1.22509e-07
1.16844e-08
-1.02479e-07
1.17195e-08
-7.90265e-08
1.47788e-08
-8.90801e-08
-1.25624e-08
-1.02465e-07
8.36931e-09
-1.15226e-07
7.76905e-09
-1.74707e-07
-2.12023e-09
-1.55581e-07
1.82013e-08
-1.71393e-07
5.28387e-09
-7.72656e-08
4.15252e-08
-1.90771e-07
-7.37525e-09
-1.47549e-07
-2.04572e-08
-1.43124e-07
1.66797e-09
-1.41228e-07
2.48186e-09
-1.37067e-07
4.40489e-09
-1.14775e-07
1.1752e-08
-1.11267e-07
-7.11835e-09
-1.34522e-07
-1.95569e-08
-1.29762e-07
-9.39045e-09
-1.39837e-07
1.61873e-08
-1.61693e-07
9.54377e-09
-3.34826e-08
1.64264e-09
-1.23908e-07
-3.74688e-08
-1.04348e-07
1.00918e-09
-9.33514e-08
1.73354e-08
-7.66587e-08
1.05062e-08
-1.10914e-07
-5.62764e-10
-1.16898e-07
-6.39882e-09
-1.26606e-07
4.58993e-09
-1.33209e-07
4.22286e-09
-1.50466e-07
4.26363e-09
-4.50229e-08
2.32493e-08
-1.60749e-07
-6.24141e-08
-1.28022e-07
-4.71231e-08
-1.18715e-07
3.39101e-08
-1.26747e-07
8.15213e-09
-1.75193e-07
2.95085e-09
-2.52516e-08
4.24546e-08
-1.32716e-07
-3.08365e-08
-1.19756e-07
-5.99873e-09
-1.15999e-07
-7.40609e-09
-1.60111e-07
-1.7137e-09
-1.53918e-07
2.69236e-08
-4.45698e-08
1.90417e-08
-1.43055e-07
-4.22651e-08
-1.47533e-07
2.69597e-08
-1.52082e-07
2.29359e-08
-1.51833e-07
1.2162e-08
-1.44749e-07
4.44996e-09
-1.37864e-07
9.62736e-10
-1.26919e-07
-6.9476e-09
-1.13572e-07
-1.42599e-08
-1.00923e-07
-2.03423e-08
-8.87785e-08
-2.34962e-08
-7.90049e-08
-2.1258e-08
-7.18907e-08
-1.44533e-08
-6.63926e-08
-5.5224e-09
-6.51637e-08
5.48814e-09
-6.81773e-08
1.22785e-08
-7.5772e-08
1.50999e-08
-8.86318e-08
1.61548e-08
-1.0268e-07
1.47975e-08
-1.11597e-07
1.0542e-08
-1.15667e-07
7.46452e-09
-1.17227e-07
5.38515e-09
-1.17866e-07
3.60417e-09
-1.17607e-07
2.39659e-09
-1.16744e-07
1.55946e-09
-1.15918e-07
1.58513e-09
-1.14953e-07
1.10943e-09
-1.14459e-07
1.07251e-09
-2.08158e-10
-8.94675e-08
-2.14706e-08
-8.8464e-08
-4.01969e-09
-7.526e-08
-7.28664e-09
-5.81673e-08
-5.58165e-09
-3.67697e-08
-9.89464e-09
-9.2689e-09
-1.30001e-08
7.80299e-09
-2.9807e-08
1.20601e-08
4.06891e-09
1.13289e-08
8.62179e-09
1.87314e-09
7.47251e-09
1.41874e-08
5.74214e-09
4.09131e-08
-2.18553e-08
3.99467e-08
4.20818e-08
1.82486e-08
1.51377e-08
-9.93094e-09
7.69942e-09
-2.80016e-08
1.98568e-08
-5.05896e-08
2.50697e-08
-6.47945e-08
1.86096e-08
-7.85532e-08
2.55105e-08
-1.06588e-07
2.00338e-08
-1.45784e-07
1.96389e-08
-1.53471e-07
-1.80093e-09
-1.52203e-07
-3.85898e-08
-1.49161e-07
9.57647e-09
-1.09218e-07
1.41276e-08
-1.15533e-07
-3.26499e-08
-1.0469e-07
-9.83401e-09
-9.46649e-08
7.31006e-09
-1.00899e-07
1.67408e-08
-1.10751e-07
9.28922e-09
-1.19456e-07
2.30601e-09
-1.2443e-07
9.56352e-09
-1.27383e-07
7.17584e-09
-1.30708e-07
7.58907e-09
-1.05576e-07
-2.11964e-09
-1.48465e-07
-2.10401e-08
-4.47523e-08
1.0152e-08
-1.22089e-07
-4.52435e-08
-1.02578e-07
-1.15573e-08
-8.98511e-08
-8.86883e-09
-5.22227e-08
3.48996e-09
-7.42054e-08
-9.60314e-09
-8.64355e-08
5.29551e-09
-1.10955e-07
1.68634e-08
-1.37462e-07
2.45403e-08
-1.41133e-07
3.05947e-08
-1.59998e-07
3.75195e-08
-8.57953e-08
4.49431e-08
-1.91306e-07
-2.1795e-08
-1.67335e-07
-1.03513e-09
-1.55147e-07
-2.6502e-11
-1.47392e-07
-3.30503e-09
-1.36833e-07
-9.59623e-09
-1.25931e-07
-1.785e-08
-1.1512e-07
-2.507e-08
-1.0547e-07
-2.99927e-08
-9.6803e-08
-3.21632e-08
-8.95185e-08
-2.85425e-08
-8.31578e-08
-2.08138e-08
-7.98339e-08
-8.84628e-09
-8.20541e-08
7.70839e-09
-9.0631e-08
2.08555e-08
-1.013e-07
2.57693e-08
-1.11503e-07
2.63576e-08
-1.17812e-07
2.11071e-08
-1.18704e-07
1.1434e-08
-1.18227e-07
6.98805e-09
-1.17862e-07
5.01998e-09
-1.17844e-07
3.58719e-09
-1.17451e-07
2.00377e-09
-1.1678e-07
8.88742e-10
-1.16025e-07
8.3227e-10
-1.15204e-07
2.9003e-10
-1.14715e-07
5.86017e-10
-1.19805e-10
-1.11756e-07
1.88371e-08
-1.16257e-07
-6.53305e-10
-1.23683e-07
6.26824e-11
-1.22454e-07
-6.93845e-09
-1.18611e-07
-1.38392e-08
-1.08559e-07
-2.31853e-08
-8.73345e-08
-5.2405e-08
-1.1649e-07
3.29302e-08
-1.12927e-07
5.14635e-09
-1.10266e-07
4.81146e-09
-1.2361e-07
1.90857e-08
-1.56179e-08
2.8818e-08
-1.07975e-07
-2.51227e-08
-9.05339e-08
-2.14731e-09
-8.97755e-08
7.78593e-09
-9.26734e-08
2.27545e-08
-9.35459e-08
2.59421e-08
-1.03285e-07
2.83489e-08
-8.69206e-08
8.25894e-09
-1.29303e-07
6.17789e-08
-1.26241e-07
1.6408e-08
-1.50385e-07
-3.14899e-08
-1.57972e-07
2.38877e-08
-1.40724e-07
-7.67187e-09
-1.39233e-07
-4.01823e-08
-1.02925e-07
-1.59952e-08
-8.41434e-08
-2.89101e-08
-9.88378e-08
2.20044e-08
-1.03253e-07
2.11563e-08
-1.06138e-07
1.21744e-08
-1.28055e-07
2.42225e-08
-1.20035e-07
1.52825e-09
-1.17082e-07
4.22263e-09
-1.14085e-07
4.5915e-09
-1.04813e-07
-1.13916e-08
-8.97195e-08
-3.65056e-08
-1.04013e-07
2.43423e-08
-1.19462e-07
-3.02567e-08
-1.26503e-07
-4.51655e-09
-1.18059e-07
-1.75828e-08
-1.08195e-07
-5.23411e-09
-6.80533e-08
-4.95583e-08
-8.6125e-08
2.379e-08
-7.15724e-08
1.27063e-09
-6.4756e-08
1.69936e-08
-6.70897e-08
3.26163e-08
-6.86333e-08
3.86685e-08
-6.07012e-08
3.67963e-08
-9.27532e-08
1.08638e-08
-1.02467e-07
8.67867e-09
-1.02882e-07
3.88076e-10
-1.03295e-07
-2.89168e-09
-1.03795e-07
-9.09668e-09
-1.08953e-07
-1.26912e-08
-1.15601e-07
-1.84224e-08
-1.21127e-07
-2.44669e-08
-1.24677e-07
-2.86129e-08
-1.25505e-07
-2.77145e-08
-1.23114e-07
-2.3205e-08
-1.19457e-07
-1.25027e-08
-1.17171e-07
5.42273e-09
-1.18327e-07
2.20111e-08
-1.20377e-07
2.78194e-08
-1.21599e-07
2.75799e-08
-1.20976e-07
2.04841e-08
-1.19427e-07
9.88576e-09
-1.18204e-07
5.76542e-09
-1.17489e-07
4.305e-09
-1.17129e-07
3.22791e-09
-1.16721e-07
1.59565e-09
-1.16175e-07
3.43891e-10
-1.15643e-07
3.01564e-10
-1.15157e-07
-1.93298e-10
-1.14829e-07
2.59489e-10
-2.36141e-11
-1.15454e-07
-4.86486e-08
-9.9546e-08
3.65022e-08
-1.09568e-07
7.97188e-09
-1.22279e-07
4.59494e-09
-1.31283e-07
-3.62458e-09
-1.55048e-07
-2.61087e-09
-5.77194e-08
1.32026e-08
-1.8349e-07
2.5821e-09
-1.73911e-07
-6.30427e-09
-1.28741e-07
-4.03595e-08
-1.40251e-07
3.02864e-08
-1.29999e-07
1.85661e-08
-1.4129e-07
-1.39739e-08
-1.41384e-07
-2.03161e-09
-1.28957e-07
-4.6417e-09
-1.18737e-07
1.24079e-08
-1.07184e-07
1.43889e-08
-1.20693e-07
4.18576e-08
-2.05665e-09
4.80425e-08
-1.06801e-07
8.61525e-09
-1.01897e-07
9.37412e-09
-2.31197e-08
5.05842e-08
-1.32512e-07
-2.53726e-08
-9.91106e-08
-4.10738e-08
-1.08236e-07
-3.10574e-08
-1.02373e-07
-2.31387e-08
-3.28837e-08
6.21275e-08
-1.47775e-07
-2.18811e-08
-1.30404e-07
3.78578e-09
-1.22422e-07
4.19181e-09
-1.49188e-07
-4.4806e-10
-1.02858e-07
7.62685e-09
-1.04663e-07
4.9778e-09
-1.06709e-07
6.638e-09
-1.20406e-07
1.07649e-09
-2.20594e-08
2.56747e-08
-1.67692e-07
-4.1652e-08
-1.17919e-07
-2.73457e-08
-1.57883e-07
3.38366e-08
-1.67863e-07
-7.60242e-09
-1.79084e-07
5.87246e-09
-9.09366e-08
2.15951e-08
-2.07635e-07
-7.23643e-08
-1.5938e-07
8.10935e-09
-1.60671e-07
1.84728e-08
-1.30433e-07
3.67127e-09
-1.06767e-07
1.59202e-08
-9.07743e-08
2.04357e-08
-9.25085e-08
1.2598e-08
-9.38944e-08
1.00646e-08
-9.90857e-08
5.57943e-09
-1.04386e-07
2.4085e-09
-1.11287e-07
-2.19538e-09
-1.19917e-07
-4.06143e-09
-1.28397e-07
-9.9426e-09
-1.3569e-07
-1.71731e-08
-1.41123e-07
-2.31807e-08
-1.45762e-07
-2.30753e-08
-1.50152e-07
-1.88146e-08
-1.51922e-07
-1.07328e-08
-1.47896e-07
1.39676e-09
-1.40985e-07
1.51008e-08
-1.35168e-07
2.20025e-08
-1.29552e-07
2.19636e-08
-1.24439e-07
1.53712e-08
-1.21899e-07
7.34643e-09
-1.20236e-07
4.10305e-09
-1.18777e-07
2.84602e-09
-1.17529e-07
1.97985e-09
-1.16671e-07
7.38326e-10
-1.16121e-07
-2.05449e-10
-1.1558e-07
-2.37528e-10
-1.1524e-07
-5.30911e-10
-1.14953e-07
-2.52559e-11
2.43349e-11
-4.04819e-08
1.51618e-08
-1.273e-07
-3.31882e-08
-1.13367e-07
-6.02226e-09
-1.18846e-07
8.8266e-09
-1.44142e-07
1.89605e-08
-1.70375e-07
2.33511e-08
-3.59797e-08
4.04011e-08
-1.89256e-07
-5.56e-08
-1.95269e-07
-2.9191e-10
-6.51538e-08
4.20417e-08
-1.6059e-07
-3.15621e-08
-1.43206e-07
-1.91741e-09
-1.55378e-07
-1.80137e-09
-1.4102e-07
-1.48055e-08
-1.29782e-07
-1.45552e-08
-1.09328e-07
-7.96572e-09
-1.04617e-07
8.56171e-09
-1.17991e-07
3.47271e-09
-3.05712e-08
1.30507e-08
-6.07375e-08
3.8168e-08
-5.62302e-08
4.86671e-09
-4.00335e-08
-1.90916e-08
-9.22647e-08
2.68584e-08
-9.55263e-08
1.51507e-08
-1.07231e-07
-2.06577e-08
-3.26009e-08
6.27578e-08
-1.29166e-07
-1.81556e-09
-1.54338e-07
3.29109e-09
-1.43658e-07
-5.31983e-09
-1.32146e-07
-5.97136e-09
-1.17626e-07
-1.49682e-08
-1.05817e-07
-5.30446e-09
-9.109e-08
-9.74945e-09
-8.42609e-08
-1.91129e-10
-8.20633e-08
-1.12113e-09
-7.01977e-08
1.35472e-08
-1.23372e-07
1.0264e-08
-3.62631e-08
4.60715e-08
-1.85504e-07
-2.84043e-08
-1.68911e-07
2.88446e-08
-1.50338e-07
-1.43808e-08
-1.64622e-07
-1.80383e-08
-1.56749e-07
-2.5113e-08
-1.61538e-07
1.12506e-08
-1.8536e-07
-9.30323e-09
-1.46402e-07
2.0491e-08
-1.22181e-07
-8.30026e-09
-1.09332e-07
7.58673e-09
-1.06473e-07
9.73892e-09
-1.07034e-07
1.06251e-08