/*--------------------------------*- C++ -*----------------------------------*\
  =========                 |
  \\      /  F ield         | OpenFOAM: The Open Source CFD Toolbox
   \\    /   O peration     | Website:  https://openfoam.org
    \\  /    A nd           | Version:  12
     \\/     M anipulation  |
\*---------------------------------------------------------------------------*/
FoamFile
{
    format      ascii;
    class       surfaceScalarField;
    location    "0.55";
    object      phi.water_0;
}
// * * * * * * * * * * * * * * * * * * * * * * * * * * * * * * * * * * * * * //

dimensions      [0 3 -1 0 0 0 0];

internalField   nonuniform List<scalar> 
7375
(
1.22445e-07
2.07268e-09
1.16928e-07
5.53154e-09
1.15005e-07
1.91693e-09
1.08657e-07
6.36823e-09
1.06248e-07
2.41676e-09
9.90682e-08
6.17205e-09
9.34441e-08
6.56799e-09
8.65404e-08
7.94584e-09
9.12871e-08
-4.66824e-09
3.27247e-08
5.28032e-09
2.06531e-07
3.77111e-08
7.10549e-08
-2.31607e-08
8.36656e-08
-1.26117e-08
7.75225e-08
6.90631e-09
6.91625e-08
8.36899e-09
8.13115e-08
-1.31845e-08
1.02252e-07
-2.11671e-08
8.89181e-08
1.42107e-08
4.07626e-08
-5.50232e-09
3.8407e-08
1.58088e-09
7.70315e-08
1.36658e-08
6.97999e-08
8.67965e-09
6.12704e-08
8.50203e-09
7.05785e-08
-9.95238e-09
6.36078e-08
6.9934e-09
5.76453e-08
5.96696e-09
5.38297e-08
3.85137e-09
5.35598e-08
2.79739e-10
5.48701e-08
-1.33136e-09
5.4561e-08
2.18617e-10
6.35094e-08
-8.85073e-09
6.57277e-08
-2.19237e-09
6.91221e-08
-3.45721e-09
7.87787e-08
-9.57427e-09
7.5084e-08
4.5133e-09
2.40923e-08
-2.44747e-09
6.2662e-08
1.42187e-08
3.94181e-08
2.32383e-08
1.53174e-07
4.51349e-08
1.86138e-08
-2.38863e-08
3.42772e-08
-1.58554e-08
4.55185e-08
-1.12411e-08
5.46808e-08
-8.72635e-09
6.76496e-08
-1.29195e-08
6.94671e-08
-1.03939e-09
5.84177e-08
1.10967e-08
5.33743e-08
4.44236e-09
2.93106e-08
2.40818e-08
2.0074e-08
9.22014e-09
3.87318e-08
-1.86629e-08
1.8214e-08
2.05282e-08
-5.04924e-08
1.61603e-08
-1.42782e-08
1.60518e-08
-3.3376e-08
1.84153e-08
-5.60453e-08
2.24564e-08
-4.93923e-08
-5.55133e-09
-4.80416e-08
-8.56878e-10
-4.44687e-08
-3.57277e-09
-3.73601e-08
-7.10854e-09
-2.78254e-08
-9.53451e-09
-1.78185e-08
-1.0007e-08
-8.57919e-09
-9.23914e-09
-4.56448e-10
-8.12281e-09
7.18956e-09
-7.64591e-09
1.65873e-08
-9.39783e-09
2.72844e-08
-1.06971e-08
3.83684e-08
-1.10841e-08
4.52056e-08
-6.83718e-09
4.04914e-08
4.71414e-09
2.27035e-08
1.7788e-08
-2.29704e-09
2.50005e-08
-3.12986e-08
2.90015e-08
-5.92651e-08
2.79663e-08
-8.1824e-08
2.25586e-08
5.51529e-09
2.20362e-08
-4.36272e-09
2.05952e-08
6.76219e-09
1.93104e-08
3.20173e-09
2.19703e-08
3.90535e-09
1.93194e-08
5.12009e-09
1.37465e-08
1.16264e-08
1.60091e-08
4.32842e-09
2.39934e-08
-1.19389e-10
3.10509e-08
-1.20424e-08
3.11009e-08
5.17711e-09
7.91216e-08
-1.09106e-08
6.63279e-08
-1.03669e-08
6.36838e-08
-9.2907e-09
6.9195e-08
1.38113e-09
6.31997e-08
1.55686e-08
1.23589e-08
3.77852e-08
1.11203e-07
4.02608e-08
-2.18489e-08
-1.29836e-08
-2.71667e-08
-1.26351e-10
-2.6495e-08
1.45681e-09
-1.02039e-08
-2.38408e-09
4.35101e-09
-6.02211e-09
1.80612e-08
-5.2499e-09
1.74224e-08
-9.12915e-09
1.95881e-08
4.82781e-09
3.12017e-08
-5.58946e-09
2.07864e-08
1.44138e-08
1.45933e-08
6.53969e-09
1.0068e-08
3.29679e-09
1.29783e-08
-2.85468e-09
7.1127e-09
-3.18789e-09
1.14587e-08
-6.46641e-09
1.51784e-08
-7.21472e-09
6.29013e-09
-6.2234e-10
-5.12984e-08
-9.99183e-08
-8.1314e-08
2.70058e-08
-7.24445e-08
6.18743e-09
-5.74424e-08
8.97542e-09
-2.45237e-08
1.24665e-08
-3.70054e-08
-1.10307e-08
-4.06516e-08
-1.25828e-08
-3.46241e-08
-1.77978e-08
-3.13334e-08
-1.20169e-08
-4.58376e-09
-4.00778e-08
-2.47453e-08
1.91223e-08
-1.19181e-08
-1.84359e-09
8.27446e-09
-1.59124e-08
-2.63549e-08
5.81184e-08
-5.44538e-08
3.73192e-08
3.79173e-08
4.7855e-08
-9.00519e-08
-9.37701e-09
-7.82862e-08
5.13358e-09
-7.12635e-08
9.02918e-09
-7.27216e-08
1.96894e-08
-7.44138e-08
2.36997e-08
-9.17276e-08
1.18181e-08
-9.4159e-08
1.57468e-09
-9.41325e-08
-3.59921e-09
-9.30476e-08
-8.19335e-09
-9.04478e-08
-1.21342e-08
-8.74898e-08
-1.2965e-08
-8.43453e-08
-1.23835e-08
-8.06465e-08
-1.18216e-08
-7.43326e-08
-1.39598e-08
-6.39509e-08
-1.97796e-08
-5.11777e-08
-2.34703e-08
-3.84494e-08
-2.38125e-08
-3.05862e-08
-1.47003e-08
-3.50084e-08
9.13629e-09
-5.07058e-08
3.34854e-08
-7.23041e-08
4.65989e-08
-9.31597e-08
4.9857e-08
-1.00817e-07
3.56238e-08
-1.02185e-07
2.3926e-08
2.50171e-09
-6.3079e-08
-1.79149e-08
-1.02063e-07
4.57459e-08
-1.01776e-07
2.91795e-09
-1.02362e-07
3.44634e-09
-1.16093e-07
1.98438e-08
-9.26348e-08
-9.72391e-09
-8.56345e-08
-3.60717e-09
-8.07118e-08
-5.91556e-09
-9.81731e-08
5.41907e-09
-8.03126e-08
-1.34498e-08
-8.04264e-08
-1.06864e-08
-6.70756e-08
-2.30029e-08
-7.32528e-08
-2.36602e-09
-5.59526e-08
-1.59188e-08
-5.20182e-08
1.09518e-08
-8.77144e-08
1.99513e-08
-2.84035e-08
3.35022e-08
-5.65138e-08
1.57035e-08
-6.15394e-08
4.9007e-09
-5.95678e-08
-1.1424e-09
-5.98045e-08
-2.17161e-09
-6.41538e-08
-1.73408e-09
-6.36912e-08
-5.76585e-09
-5.27714e-08
-2.02554e-08
-6.26071e-08
1.53023e-08
-7.3919e-08
5.07867e-09
-9.36872e-08
3.24547e-08
-1.12343e-07
2.61609e-08
-1.17987e-07
8.8832e-09
-1.2811e-07
7.29837e-09
-1.20548e-07
-9.47572e-09
-1.18e-07
-9.08016e-09
-1.32408e-07
7.19346e-09
-1.85238e-07
-2.65136e-09
1.65731e-08
7.36919e-08
-9.7943e-08
-1.62024e-08
-8.92208e-08
-3.59692e-09
-8.15366e-08
1.29135e-09
-6.9197e-08
1.2697e-10
-7.6742e-08
-3.59804e-09
-9.50926e-08
5.63957e-09
-1.23454e-07
1.05634e-08
-1.46242e-07
9.27914e-09
-6.43855e-08
3.85927e-08
-1.75953e-07
-2.75416e-08
-1.8384e-07
4.21087e-09
-6.83986e-08
2.98775e-08
-1.63733e-07
-3.10961e-09
-1.49089e-07
2.07932e-08
-1.19993e-07
1.97811e-08
-1.3375e-07
5.6739e-09
-1.27745e-07
-8.71097e-10
-1.24438e-07
5.72165e-09
-1.20176e-07
1.54278e-08
-1.17213e-07
2.07369e-08
-1.23668e-07
1.82733e-08
-1.3358e-07
1.14864e-08
-1.39679e-07
2.50014e-09
-1.41888e-07
-5.98416e-09
-1.41987e-07
-1.20356e-08
-1.41975e-07
-1.29763e-08
-1.42166e-07
-1.21923e-08
-1.40474e-07
-1.3514e-08
-1.35176e-07
-1.92574e-08
-1.28535e-07
-2.64205e-08
-1.23025e-07
-2.89811e-08
-1.19609e-07
-2.72281e-08
-1.19897e-07
-1.44123e-08
-1.23609e-07
1.28481e-08
-1.27482e-07
3.7358e-08
-1.26244e-07
4.53615e-08
-1.18769e-07
4.23817e-08
-1.11934e-07
2.87887e-08
-1.0637e-07
1.83613e-08
-7.63258e-10
-6.04721e-08
3.84168e-08
-1.9536e-07
-2.83199e-08
-1.45184e-07
5.17081e-09
-1.33997e-07
-7.85509e-09
-1.25941e-07
1.1472e-08
-1.24135e-07
-1.29142e-08
-1.15198e-07
-1.25804e-08
-1.1186e-07
-9.25367e-09
-1.04456e-07
-1.98454e-09
-1.0249e-07
-1.43707e-08
-9.20851e-08
-2.0983e-08
-7.25212e-08
-4.35061e-08
-9.32912e-08
1.82183e-08
-1.04832e-07
-3.47093e-09
-8.5557e-08
-9.1869e-09
-9.98041e-08
3.29768e-08
-7.0207e-08
4.92339e-09
-6.85576e-08
1.40542e-08
-7.4755e-08
1.12632e-08
-7.12104e-08
-4.68686e-09
-8.55139e-08
1.2132e-08
-9.70619e-08
9.81409e-09
-1.14451e-07
1.04554e-08
-1.48651e-07
1.40901e-08
-1.408e-07
6.09548e-09
-1.66208e-07
3.02252e-08
-1.35522e-07
4.82825e-09
-1.33877e-07
2.42492e-08
-1.23746e-07
-1.2477e-09
-1.13768e-07
-2.75325e-09
-1.2008e-07
-3.16364e-09
-1.21747e-07
-7.41294e-09
-1.22088e-07
7.53384e-09
-1.31349e-07
6.61025e-09
-7.51683e-08
1.67594e-08
-9.7934e-08
6.39815e-09
-1.11526e-07
9.9953e-09
-1.66324e-07
3.15846e-09
-1.14099e-07
8.64841e-10
-1.1691e-07
-7.8626e-10
-1.22982e-07
1.1711e-08
-1.19562e-07
7.07197e-09
-1.22727e-07
1.23186e-08
-1.49263e-07
1.16529e-08
-1.41584e-07
1.62987e-08
-2.02086e-07
1.132e-08
-1.34337e-07
1.82189e-08
-1.31475e-07
-4.67519e-09
-1.21567e-07
1.06778e-08
-1.07941e-07
5.95765e-09
-1.05321e-07
3.05401e-09
-1.08076e-07
1.88399e-09
-1.09545e-07
7.19073e-09
-1.08957e-07
1.48396e-08
-1.11028e-07
2.28083e-08
-1.17266e-07
2.45112e-08
-1.27048e-07
2.12691e-08
-1.37609e-07
1.30605e-08
-1.45365e-07
1.77233e-09
-1.50398e-07
-7.0025e-09
-1.5444e-07
-8.93424e-09
-1.58026e-07
-8.60597e-09
-1.58493e-07
-1.30472e-08
-1.54075e-07
-2.3676e-08
-1.49874e-07
-3.0621e-08
-1.47568e-07
-3.12867e-08
-1.48895e-07
-2.59015e-08
-1.53338e-07
-9.96905e-09
-1.52396e-07
1.1906e-08
-1.44883e-07
2.98444e-08
-1.34382e-07
3.4861e-08
-1.2177e-07
2.97694e-08
-1.14542e-07
2.15605e-08
-1.08949e-07
1.2768e-08
-2.75306e-09
-1.15099e-07
2.10382e-09
-1.33936e-07
-9.48286e-09
-1.31493e-07
1.40003e-09
-1.33723e-07
-4.26101e-09
-1.15986e-07
-6.1493e-09
-1.2133e-07
-8.75333e-09
-1.2502e-07
-8.89077e-09
-9.81424e-08
-3.61308e-08
-1.1324e-07
1.29811e-08
-1.21794e-07
-5.81698e-09
-1.29041e-07
-1.39494e-08
-2.11251e-08
7.68206e-09
-1.12137e-07
-4.80536e-08
-9.52837e-08
-2.14684e-08
-8.95705e-08
-1.40799e-08
-8.78959e-08
3.06598e-08
-9.26511e-08
8.87255e-09
-9.97013e-08
2.00875e-08
-1.52135e-07
1.01884e-08
-9.81424e-08
-4.20743e-09
-1.25583e-07
3.95724e-08
-1.31177e-07
1.54081e-08
-1.39394e-07
1.72507e-08
-1.51701e-07
2.62526e-08
-1.28211e-07
-1.45389e-08
-1.15563e-07
1.69662e-08
-1.1355e-07
1.63649e-09
-9.33814e-08
4.08111e-09
-9.16554e-08
-2.97359e-09
-9.35435e-08
-8.64985e-10
-8.62289e-08
-1.04781e-08
-9.52468e-08
1.60508e-09
-1.07884e-07
2.01708e-08
-1.139e-07
1.2627e-08
-1.19713e-07
2.25724e-08
-1.26679e-07
1.33642e-08
-1.32302e-07
1.42683e-08
-1.92936e-07
1.02843e-08
-1.32823e-07
-4.31743e-09
-1.33605e-07
-4.06311e-12
-1.14722e-07
-6.00126e-09
-9.68347e-08
-9.83725e-09
-8.35479e-08
-1.10225e-09
-7.47387e-08
2.02051e-09
-7.19898e-08
1.19314e-08
-1.30006e-07
1.55507e-08
-7.93334e-08
2.18355e-08
-8.90506e-08
5.90292e-09
-8.61607e-08
8.67833e-09
-8.66794e-08
6.47652e-09
-9.07193e-08
7.09402e-09
-9.5664e-08
6.82878e-09
-9.90467e-08
1.05735e-08
-1.00219e-07
1.60121e-08
-1.03301e-07
2.58901e-08
-1.0859e-07
2.98005e-08
-1.1631e-07
2.89898e-08
-1.26775e-07
2.35255e-08
-1.39693e-07
1.469e-08
-1.51807e-07
5.11137e-09
-1.59748e-07
-9.93105e-10
-1.63025e-07
-5.32845e-09
-1.60509e-07
-1.55631e-08
-1.54854e-07
-2.93311e-08
-1.51169e-07
-3.43063e-08
-1.48594e-07
-3.38619e-08
-1.49403e-07
-2.5092e-08
-1.52218e-07
-7.15405e-09
-1.50477e-07
1.0165e-08
-1.41e-07
2.03671e-08
-1.28999e-07
2.28597e-08
-1.1922e-07
1.99905e-08
-1.13523e-07
1.58632e-08
-1.10071e-07
9.31554e-09
-2.52728e-09
-1.16046e-07
6.44812e-09
-1.26599e-07
1.08054e-09
-1.17607e-07
-7.59217e-09
-1.14975e-07
-8.09271e-09
-1.09816e-07
-1.12564e-08
-1.11746e-07
-6.89329e-09
-1.63205e-07
-1.03946e-08
-1.19917e-08
2.46303e-08
-1.16126e-07
-4.01688e-08
-1.06805e-07
-1.63229e-08
-1.03923e-07
-1.68308e-08
-8.05188e-08
-1.5722e-08
-1.0036e-07
-2.87025e-08
-9.40331e-08
-2.77951e-08
-9.42947e-08
-1.29886e-08
-1.15242e-07
5.12709e-08
-1.20894e-07
1.33373e-08
-1.21338e-07
2.17649e-08
-1.45144e-07
3.24096e-08
-4.3863e-08
5.5038e-08
-1.55121e-07
-7.61092e-09
-1.40133e-07
4.20632e-10
-1.50986e-07
2.81035e-08
-1.37401e-07
1.24e-08
-1.35989e-07
-1.59506e-08
-1.09424e-07
-9.42543e-09
-1.1844e-07
1.06527e-08
-1.08105e-07
-6.19133e-09
-1.07234e-07
-3.84373e-09
-1.3986e-07
-2.12024e-08
-7.03237e-08
-2.73299e-08
-1.2498e-07
5.62617e-08
-1.22976e-07
1.81672e-08
-1.11528e-07
1.16629e-09
-1.04961e-07
1.60058e-08
-1.14081e-07
2.24844e-08
-1.18885e-07
1.90722e-08
-1.19006e-07
1.03013e-08
-1.26879e-07
3.55524e-09
-1.30669e-07
3.82489e-09
-1.19993e-07
-1.66766e-08
-1.29586e-07
-3.44385e-10
-1.22608e-07
-9.34262e-09
-1.22658e-07
3.3557e-09
-1.05749e-07
-2.67086e-09
-1.01232e-07
9.80894e-09
-8.65198e-08
6.09056e-09
-8.5989e-08
6.24941e-09
-8.42513e-08
7.80045e-09
-8.50682e-08
7.29359e-09
-8.57453e-08
7.77129e-09
-8.82668e-08
9.35032e-09
-9.15933e-08
1.39002e-08
-9.53185e-08
1.97374e-08
-9.82192e-08
2.87909e-08
-1.00891e-07
3.24719e-08
-1.04802e-07
3.29009e-08
-1.10205e-07
2.89285e-08
-1.183e-07
2.27854e-08
-1.29141e-07
1.59523e-08
-1.38959e-07
8.8257e-09
-1.43195e-07
-1.0924e-09
-1.40114e-07
-1.86447e-08
-1.36777e-07
-3.26678e-08
-1.35719e-07
-3.53642e-08
-1.36651e-07
-3.29298e-08
-1.40142e-07
-2.1601e-08
-1.42161e-07
-5.13562e-09
-1.38976e-07
6.98009e-09
-1.31686e-07
1.30773e-08
-1.2374e-07
1.49134e-08
-1.17652e-07
1.39026e-08
-1.13399e-07
1.16091e-08
-1.11261e-07
7.1775e-09
-1.83371e-09
-9.97482e-08
-2.07765e-09
-1.30629e-07
3.19615e-08
-1.23264e-07
-1.50356e-08
-1.64124e-07
-1.85206e-08
-1.13753e-07
-1.02446e-08
-1.09634e-07
-1.21843e-08
-1.13754e-07
-5.1562e-09
-7.26501e-08
-1.64739e-08
-1.03821e-07
-9.40766e-09
-1.11366e-07
-8.77764e-09
-1.20008e-07
-8.18843e-09
-9.94116e-08
-3.66927e-08
-1.29971e-07
1.85699e-09
-1.18748e-07
-4.10676e-08
-7.54318e-08
1.03445e-07
-2.04341e-07
-3.25497e-08
-1.6534e-07
2.92487e-08
-1.75568e-07
3.19927e-08
-1.55205e-07
1.19256e-08
-1.2914e-07
2.84115e-08
-1.47605e-07
1.08546e-08
-1.48599e-07
1.41397e-09
-1.75562e-07
2.1043e-09
-1.53545e-07
-9.52008e-09
-1.35407e-07
1.8875e-08
-1.39187e-07
-5.64527e-09
-1.72791e-07
-6.94408e-09
-1.26647e-07
9.28592e-11
-1.30535e-07
-1.24697e-09
-1.53012e-07
-2.86385e-10
-1.23578e-08
-7.53541e-09
-1.55221e-07
-1.2473e-08
-1.44739e-07
9.16148e-09
-1.12963e-07
2.1819e-08
-9.62835e-08
-1.82644e-09
-1.17035e-07
4.27989e-08
-1.1596e-07
1.7998e-08
-1.18994e-07
1.33349e-08
-1.21849e-07
5.16728e-09
-1.70366e-07
-1.16638e-09
-1.45615e-07
1.32735e-08
-1.67586e-07
2.185e-08
-1.81007e-07
4.07832e-09
-1.29123e-07
-4.85631e-08
-1.60926e-07
2.91055e-08
-1.58666e-07
7.72734e-09
-1.26927e-07
-2.56479e-08
-1.24248e-07
4.83759e-09
-1.18767e-07
3.56194e-09
-1.14226e-07
2.75259e-09
-1.10634e-07
4.18002e-09
-1.09508e-07
8.22459e-09
-1.09546e-07
1.39375e-08
-1.08492e-07
1.86838e-08
-1.05033e-07
2.5332e-08
-1.03522e-07
3.09618e-08
-1.02813e-07
3.21919e-08
-1.02919e-07
2.90347e-08
-1.04688e-07
2.4554e-08
-1.08781e-07
2.00454e-08
-1.13152e-07
1.3197e-08
-1.15628e-07
1.38355e-09
-1.16573e-07
-1.76993e-08
-1.18887e-07
-3.03546e-08
-1.2198e-07
-3.2271e-08
-1.26781e-07
-2.81286e-08
-1.32268e-07
-1.61142e-08
-1.33977e-07
-3.42656e-09
-1.30786e-07
3.78902e-09
-1.25862e-07
8.1534e-09
-1.21217e-07
1.02682e-08
-1.17248e-07
9.93374e-09
-1.14217e-07
8.57755e-09
-1.12551e-07
5.5107e-09
-1.34063e-09
-6.60755e-08
1.0028e-08
-1.9631e-07
-4.96559e-08
-1.31646e-07
-2.67372e-08
-1.93156e-07
-8.0848e-09
-1.27153e-07
-2.39234e-08
-1.19805e-07
-2.09185e-08
-1.26448e-07
1.48688e-09
-1.39892e-07
-3.06121e-09
-1.35217e-07
-1.39401e-08
-1.4752e-07
3.52564e-09
-1.73684e-07
1.62036e-08
-9.10271e-08
4.11773e-08
-2.51542e-07
-7.27823e-10
-3.06658e-08
6.24527e-08
-2.38388e-07
-6.06211e-08
-2.1723e-07
-4.12487e-10
-1.90962e-07
2.95082e-09
-1.98232e-07
-1.16783e-08
-1.57399e-07
2.35204e-08
-1.4771e-07
1.69448e-08
-1.42146e-07
5.29063e-09
-1.42763e-07
2.03052e-09
-1.82103e-07
-9.66046e-09
-1.64246e-07
2.50517e-08
-1.49784e-07
2.73652e-09
-1.50095e-07
-5.33402e-09
-1.46804e-07
-1.02344e-08
-1.43467e-07
-3.24287e-09
-1.453e-07
5.85407e-10
-1.60078e-07
1.28588e-08
-3.28347e-08
2.61643e-08
-1.64491e-07
-3.77691e-08
-1.52923e-07
-4.08493e-09
-1.50387e-07
1.95057e-08
-4.12326e-08
4.83289e-08
-1.35584e-07
-1.99327e-08
-1.22674e-07
3.70514e-09
-1.16103e-07
6.76369e-09
-1.20562e-07
9.62626e-09
-1.42427e-07
2.05025e-08
-1.31214e-07
7.21315e-10
-1.64456e-07
1.58374e-09
-1.72832e-07
1.41316e-08
-4.94317e-08
3.98889e-08
-1.88787e-07
-4.53164e-08
-1.7628e-07
-4.73112e-09
-1.75311e-07
2.84342e-08
-1.63235e-07
-5.57269e-09
-1.57879e-07
-1.61485e-10
-1.55949e-07
8.22671e-10
-1.53482e-07
1.71315e-09
-1.50237e-07
4.97957e-09
-1.4531e-07
9.01012e-09
-1.38537e-07
1.19116e-08
-1.29365e-07
1.61592e-08
-1.19646e-07
2.12435e-08
-1.11104e-07
2.36501e-08
-1.04886e-07
2.28165e-08
-1.01635e-07
2.13027e-08
-1.01241e-07
1.96523e-08
-1.02091e-07
1.40465e-08
-1.04019e-07
3.31182e-09
-1.08288e-07
-1.34302e-08
-1.13353e-07
-2.52896e-08
-1.18166e-07
-2.74579e-08
-1.22948e-07
-2.33464e-08
-1.26946e-07
-1.21166e-08
-1.27544e-07
-2.82838e-09
-1.25395e-07
1.63966e-09
-1.22475e-07
5.23331e-09
-1.19648e-07
7.44151e-09
-1.16977e-07
7.26206e-09
-1.14831e-07
6.43109e-09
-1.13554e-07
4.2337e-09
-9.57353e-10
-1.25785e-07
-1.54568e-09
-1.59131e-07
-1.631e-08
-1.42435e-07
-4.53494e-08
-2.14558e-07
1.05299e-08
-1.90829e-07
5.36304e-09
-1.70158e-07
-4.20224e-08
-1.77415e-07
8.66984e-09
-2.35619e-07
4.10444e-09
-1.83078e-07
-1.1673e-08
-1.82749e-07
1.32949e-09
-1.75364e-07
8.81814e-09
-1.77364e-07
4.09476e-08
-2.11817e-07
3.37254e-08
-1.62411e-07
1.22766e-08
-2.08445e-07
-1.45868e-08
-1.6621e-07
-3.88249e-08
-1.75666e-07
1.22832e-08
-1.9142e-07
2.28377e-09
-1.69455e-07
3.52408e-09
-1.51318e-07
-1.18023e-09
-1.49427e-07
1.85641e-09
-1.52591e-07
5.19438e-09
-1.66516e-07
4.22109e-09
-1.65544e-07
-2.86269e-08
-1.61647e-07
-1.16032e-09
-1.81813e-07
1.4832e-08
-1.7718e-07
3.80954e-08
-1.81352e-07
9.28916e-10
-1.76988e-07
-3.81679e-09
-1.5792e-07
-6.20949e-09
-1.3252e-07
4.97324e-10
-1.60832e-07
-9.84232e-09
-1.53722e-07
-1.11945e-08
-1.44758e-07
1.04358e-08
-1.55652e-07
7.84719e-09
-1.2756e-07
4.20228e-09
-1.31719e-07
6.56364e-09
-1.26737e-07
1.781e-09
-1.35202e-07
1.92748e-08
-1.17963e-07
3.26342e-09
-1.24784e-07
6.33859e-09
-1.40704e-07
1.73113e-08
-1.30326e-07
3.75335e-09
-9.2645e-08
2.20831e-09
-1.43827e-07
7.25896e-09
-1.12524e-07
-3.75014e-08
-1.62374e-07
2.36159e-08
-1.29712e-07
1.7708e-08
-1.24296e-07
-4.32362e-09
-1.19711e-07
-3.76267e-09
-1.2243e-07
4.43303e-09
-1.28533e-07
1.10821e-08
-1.32826e-07
1.33031e-08
-1.34601e-07
1.36873e-08
-1.32067e-07
1.36246e-08
-1.2413e-07
1.33066e-08
-1.13161e-07
1.26816e-08
-1.031e-07
1.27554e-08
-9.60196e-08
1.42224e-08
-9.31925e-08
1.68252e-08
-9.37575e-08
1.46115e-08
-9.86878e-08
8.2422e-09
-1.06932e-07
-5.18576e-09
-1.12864e-07
-1.93581e-08
-1.16415e-07
-2.39062e-08
-1.1968e-07
-2.00822e-08
-1.22809e-07
-8.98716e-09
-1.23979e-07
-1.65826e-09
-1.23228e-07
8.88037e-10
-1.21351e-07
3.35685e-09
-1.1928e-07
5.37063e-09
-1.17206e-07
5.18733e-09
-1.15501e-07
4.7262e-09
-1.14364e-07
3.09638e-09
-6.96512e-10
-1.34146e-07
2.64933e-08
-1.77549e-07
2.52808e-08
-9.04065e-08
2.8035e-08
-1.88306e-07
-5.20976e-08
-2.36897e-07
-1.99573e-09
-1.14718e-07
5.27086e-08
-2.28944e-07
-3.75408e-08
-2.55032e-07
-2.36022e-08
-2.25033e-07
1.39159e-08
-1.96987e-07
-2.67166e-08
-1.92808e-07
4.63919e-09
-1.79146e-07
2.72859e-08
-1.6481e-07
1.90454e-08
-1.66948e-07
1.44146e-08
-1.94894e-07
1.33723e-08
-9.52358e-08
2.15975e-08
-2.04782e-07
-3.53302e-08
-1.93238e-07
-1.13499e-08
-1.76864e-07
-1.0934e-08
-1.63849e-07
-1.42069e-08
-1.55347e-07
-8.31673e-09
-1.47653e-07
-9.93522e-10
-1.34352e-07
-9.07915e-09
-1.50898e-07
-1.3452e-08
-1.57346e-07
5.2876e-09
-1.70261e-07
2.74677e-08
-1.55569e-07
2.34031e-08
-1.59219e-07
2.95442e-09
-1.69504e-07
6.40281e-09
-1.59058e-07
-1.50805e-08
-1.57617e-07
-9.42748e-10
-1.64417e-07
-3.07436e-09
-1.53362e-07
-2.06847e-08
-1.36652e-07
-6.27343e-09
-1.34991e-07
4.79183e-09
-1.23396e-07
-7.34945e-09
-1.13297e-07
-3.49992e-09
-1.30161e-07
1.99731e-08
-1.13417e-07
2.53113e-09
-1.09323e-07
-1.95485e-09
-1.23259e-07
2.15327e-08
-1.06804e-07
8.4726e-10
-1.0445e-07
3.0994e-10
-8.62014e-08
-1.51606e-08
-1.06948e-07
2.66568e-08
8.08782e-10
1.37792e-08
-1.71356e-07
3.66426e-08
-1.42575e-07
-1.10724e-08
-1.25659e-07
-2.00026e-08
-1.24247e-07
-3.95704e-09
-1.31221e-07
1.14068e-08
-1.29488e-07
9.34925e-09
-1.28024e-07
1.18386e-08
-1.25909e-07
1.15727e-08
-1.21729e-07
9.44457e-09
-1.13137e-07
4.71507e-09
-1.02275e-07
1.8191e-09
-9.05446e-08
1.0256e-09
-8.01008e-08
3.77866e-09
-7.37055e-08
1.04299e-08
-7.18539e-08
1.276e-08
-7.43465e-08
1.07348e-08
-8.27043e-08
3.17208e-09
-9.32991e-08
-8.76324e-09
-1.02138e-07
-1.50675e-08
-1.10216e-07
-1.20045e-08
-1.15849e-07
-3.35416e-09
-1.1884e-07
1.33269e-09
-1.20129e-07
2.1769e-09
-1.19802e-07
3.03068e-09
-1.18492e-07
4.0596e-09
-1.17147e-07
3.84267e-09
-1.15778e-07
3.35688e-09
-1.14958e-07
2.27575e-09
-4.88356e-10
-1.45909e-07
-3.55978e-09
-1.38406e-07
1.77772e-08
-1.43832e-07
3.1708e-08
-7.11582e-08
3.57547e-08
-2.17637e-07
-1.36591e-08
-1.61917e-07
-5.20095e-09
-2.00742e-07
-7.85296e-10
-2.21646e-07
-2.6695e-09
-2.33791e-07
-2.51638e-08
-1.89976e-07
-1.534e-08
-2.09718e-07
2.43812e-08
-1.94686e-07
1.22546e-08
-1.83319e-07
7.67867e-09
-2.23354e-07
3.84405e-09
-1.76609e-07
1.70991e-08
-1.64759e-07
7.84651e-09
-1.88251e-07
-1.05179e-08
-1.82619e-07
-1.51183e-08
-1.77316e-07
-1.62373e-08
-1.74527e-07
-1.89499e-08
-1.62211e-07
-2.06329e-08
-1.43303e-07
-1.99008e-08
-1.28299e-07
-2.41761e-08
-1.34061e-07
-7.68988e-09
-1.48259e-07
2.07867e-08
-1.27135e-07
6.34308e-09
-1.22131e-07
1.71026e-08
-1.32056e-07
1.42269e-08
-1.26123e-07
-8.68344e-10
-1.40736e-07
-1.76773e-09
-1.39235e-07
-2.42802e-09
-1.79665e-07
-1.61535e-08
-1.64299e-07
1.87453e-08
-1.59181e-07
-1.14556e-08
-1.50367e-07
-4.02129e-09
-1.54736e-07
-5.49256e-08
-1.05443e-07
-3.64066e-10
-1.20187e-07
3.33009e-08
-1.11517e-07
-6.11223e-09
-8.94778e-08
-2.39942e-08
-1.47839e-07
2.84391e-08
-1.08692e-07
1.41374e-08
-1.20596e-07
1.11053e-08
-5.18634e-09
2.80848e-08
-9.34259e-08
-4.25482e-08
1.07312e-08
6.74173e-08
-1.20362e-07
-4.41157e-08
-1.39385e-07
8.03257e-09
-1.30005e-07
2.35808e-08
-1.27602e-07
-5.04724e-09
-1.30324e-07
1.54043e-08
-1.35157e-07
1.4182e-08
-1.33456e-07
1.01378e-08
-1.28189e-07
6.30619e-09
-1.19988e-07
1.24332e-09
-1.09474e-07
-5.79885e-09
-9.78937e-08
-9.76086e-09
-8.66801e-08
-1.0188e-08
-7.6596e-08
-6.30532e-09
-6.69855e-08
8.19524e-10
-6.17194e-08
7.49398e-09
-6.1018e-08
1.00334e-08
-6.61039e-08
8.258e-09
-7.88393e-08
3.97226e-09
-9.51867e-08
1.27995e-09
-1.09222e-07
2.03051e-09
-1.1633e-07
3.75359e-09
-1.19154e-07
4.15689e-09
-1.20216e-07
3.23901e-09
-1.20053e-07
2.86778e-09
-1.18583e-07
2.589e-09
-1.17279e-07
2.53916e-09
-1.16074e-07
2.15111e-09
-1.15423e-07
1.62494e-09
-3.45072e-10
-1.16294e-07
2.48715e-08
-1.19631e-07
2.11131e-08
-1.0977e-07
2.16265e-08
-9.56555e-08
2.10609e-08
-1.11938e-07
2.59721e-09
-1.13529e-07
-3.5733e-09
-1.05293e-07
-8.92247e-09
-1.17797e-07
9.76218e-09
-1.58655e-07
1.41876e-08
-5.9171e-08
4.57028e-08
-1.80903e-07
-1.2172e-08
-1.66592e-07
-2.03549e-09
-1.63866e-07
1.59324e-09
-2.11638e-07
-2.43053e-10
-1.4024e-07
4.03315e-09
-1.34251e-07
3.62093e-10
-1.39875e-07
-6.2629e-09
-1.43642e-07
-1.13517e-08
-1.50838e-07
-9.2068e-09
-1.48725e-07
-2.10629e-08
-1.52718e-07
-1.68108e-08
-1.30613e-07
-4.20054e-08
-1.06639e-07
-4.86466e-08
-1.12927e-07
-2.49839e-10
-1.20078e-07
2.76582e-08
-1.17496e-07
2.60105e-09
-1.12948e-07
1.2555e-08
-1.09535e-07
1.08137e-08
-1.10517e-07
1.05547e-10
-1.1662e-07
4.35289e-09
-1.15126e-07
-3.92137e-09
-1.35831e-07
4.71568e-09
-1.30908e-07
1.38224e-08
-1.46519e-07
4.15576e-09
-1.6243e-07
1.02326e-08
-8.57776e-08
2.89487e-08
-7.11037e-08
-1.3441e-08
-1.53035e-07
-4.20517e-08
-1.49847e-07
-1.08613e-08
-3.73206e-08
2.21421e-08
-1.41572e-07
-2.59334e-08
-1.24542e-07
-2.74858e-09
-1.18121e-07
5.8893e-09
-1.06825e-07
1.58706e-08
-1.85218e-08
2.81356e-08
-1.32364e-07
-3.0716e-08
-1.32626e-07
7.75588e-09
-1.68902e-07
-9.20026e-09
-1.56827e-07
1.48286e-08
-1.48006e-07
3.96548e-08
-1.49383e-07
1.67812e-08
-1.4438e-07
9.17874e-09
-1.38808e-07
4.56657e-09
-1.28476e-07
-4.02586e-09
-1.15388e-07
-1.18449e-08
-1.02823e-07
-1.83633e-08
-9.0659e-08
-2.19253e-08
-8.08062e-08
-2.00407e-08
-7.3604e-08
-1.35074e-08
-6.79888e-08
-4.79567e-09
-6.65976e-08
6.10286e-09
-6.94727e-08
1.29086e-08
-7.69378e-08
1.57231e-08
-8.97143e-08
1.67488e-08
-1.03807e-07
1.53728e-08
-1.12809e-07
1.10322e-08
-1.16926e-07
7.8709e-09
-1.18498e-07
5.72892e-09
-1.19144e-07
3.88477e-09
-1.18894e-07
2.61788e-09
-1.1803e-07
1.72489e-09
-1.17202e-07
1.71035e-09
-1.16239e-07
1.18796e-09
-1.15739e-07
1.12452e-09
-1.91176e-10
-9.61711e-08
4.32341e-08
-9.64154e-08
2.23407e-08
-8.01959e-08
6.21681e-09
-5.84088e-08
-9.46325e-10
-4.37763e-08
-1.2183e-08
-3.07722e-08
-1.67086e-08
-1.5534e-08
-2.43144e-08
3.98942e-09
-9.95827e-09
8.18024e-09
1.00372e-08
3.14514e-08
2.2049e-08
1.1262e-08
7.9026e-09
1.19944e-08
-2.86001e-09
7.58461e-09
6.10941e-09
-4.57234e-09
1.20713e-08
-7.33616e-09
6.79155e-09
-2.90713e-08
2.21759e-08
-5.44349e-08
1.91009e-08
-7.62233e-08
1.04368e-08
-1.06508e-07
2.1078e-08
-1.32449e-07
3.56367e-09
-1.92706e-07
-1.00624e-08
-1.65864e-07
-1.57717e-08
-9.6532e-08
4.25479e-08
-8.80574e-08
-6.84111e-09
-1.40347e-07
-7.70573e-08
-1.39766e-07
5.88919e-10
-1.31568e-07
4.35719e-09
-1.15052e-07
-5.70287e-09
-1.19524e-07
4.5781e-09
-1.15835e-07
6.64117e-10
-1.17147e-07
-2.6094e-09
-1.3043e-07
1.79982e-08
-1.3245e-07
1.58427e-08
-1.42648e-07
1.4354e-08
-1.36818e-07
4.40246e-09
-1.07724e-07
-4.40224e-10
-9.26532e-08
-2.85116e-08
-1.06681e-07
-2.84531e-08
-1.01284e-07
-1.52248e-08
-6.4652e-08
-1.38367e-08
-8.18043e-08
-9.434e-09
-8.17074e-08
-3.64272e-09
-7.37425e-08
-2.79923e-09
-1.26555e-07
1.51819e-08
-8.55721e-08
4.02463e-08
-1.32959e-07
1.66712e-08
-1.54679e-07
3.08326e-08
-1.82482e-07
1.86963e-08
-1.82504e-07
1.65442e-08
-1.61116e-07
2.00906e-08
-1.54419e-07
1.00847e-08
-1.48358e-07
3.11733e-09
-1.38598e-07
-5.19277e-09
-1.28034e-07
-1.45897e-08
-1.17293e-07
-2.25861e-08
-1.07583e-07
-2.80733e-08
-9.88131e-08
-3.06951e-08
-9.14319e-08
-2.74218e-08
-8.49525e-08
-1.99868e-08
-8.14886e-08
-8.25952e-09
-8.3515e-08
8.12934e-09
-9.19892e-08
2.13829e-08
-1.02613e-07
2.63471e-08
-1.12816e-07
2.69512e-08
-1.19192e-07
2.17493e-08
-1.20109e-07
1.19492e-08
-1.19611e-07
7.37249e-09
-1.19213e-07
5.33095e-09
-1.1918e-07
3.85232e-09
-1.18784e-07
2.22174e-09
-1.18108e-07
1.04858e-09
-1.17349e-07
9.51545e-10
-1.16523e-07
3.61065e-10
-1.1603e-07
6.31239e-10
-1.03823e-10
-1.34271e-07
-5.41012e-08
-1.36759e-07
2.32223e-08
-1.35467e-07
4.93755e-09
-1.29113e-07
-7.3855e-09
-1.25531e-07
-1.58896e-08
-1.21476e-07
-2.09335e-08
-1.38294e-07
-7.82402e-09
-1.2025e-07
-2.81041e-08
-1.04381e-07
-5.72895e-09
-1.03796e-07
2.14643e-08
-1.0507e-07
1.02481e-08
-1.05148e-07
-3.87188e-09
-1.08484e-07
7.30645e-09
-9.76606e-08
2.49032e-09
-1.01054e-07
1.1112e-08
-9.95893e-08
2.07114e-08
-9.90695e-08
1.85812e-08
-1.0847e-07
1.98379e-08
-1.27832e-07
3.874e-08
-1.55705e-07
3.14369e-08
-1.77614e-07
1.17261e-08
-7.04429e-08
3.75839e-08
-1.66984e-07
-1.97166e-08
-1.46825e-07
-2.69995e-08
-5.94963e-08
-6.28335e-09
-1.65441e-07
-5.23554e-08
-1.32579e-07
-2.85042e-08
-1.17678e-07
-2.08165e-08
-1.19482e-07
6.38288e-09
-1.13274e-07
-5.54437e-09
-1.07461e-07
-8.42225e-09
-1.25827e-07
3.59968e-08
-1.25337e-07
1.53534e-08
-1.25189e-07
1.42059e-08
-1.19853e-07
-9.33785e-10
-1.12337e-07
-7.95592e-09
-9.81819e-08
-4.31062e-08
-1.25482e-07
-1.15303e-09
-1.22311e-07
-1.83956e-08
-1.18426e-07
-1.80465e-08
-1.14557e-07
-1.22307e-08
-8.36342e-08
-3.37211e-08
-5.75258e-08
-2.97725e-08
-6.30862e-08
2.00082e-08
-4.2917e-08
1.94335e-08
-6.15621e-08
3.51464e-08
-7.33305e-08
4.21709e-08
-9.26619e-08
3.85796e-08
-1.02425e-07
2.70683e-08
-1.05228e-07
2.28942e-08
-1.05102e-07
9.95833e-09
-1.05555e-07
3.57035e-09
-1.06104e-07
-4.64322e-09
-1.1121e-07
-9.48371e-09
-1.17806e-07
-1.59903e-08
-1.23289e-07
-2.259e-08
-1.2677e-07
-2.72147e-08
-1.2755e-07
-2.66413e-08
-1.25101e-07
-2.24362e-08
-1.2133e-07
-1.20305e-08
-1.18903e-07
5.70329e-09
-1.19924e-07
2.2404e-08
-1.21912e-07
2.83347e-08
-1.23101e-07
2.81406e-08
-1.22467e-07
2.11153e-08
-1.2089e-07
1.03714e-08
-1.1963e-07
6.1131e-09
-1.18885e-07
4.58618e-09
-1.18506e-07
3.47272e-09
-1.18087e-07
1.80261e-09
-1.17533e-07
4.95073e-10
-1.16995e-07
4.13493e-10
-1.16505e-07
-1.29392e-10
-1.16174e-07
2.9983e-10
-8.21927e-12
-4.03566e-08
-1.22614e-10
-1.37438e-07
-3.55925e-08
-1.25018e-07
-1.01333e-08
-1.2918e-07
-4.46574e-09
-1.32978e-07
-1.08851e-08
-1.44473e-07
-1.10245e-08
-1.90517e-07
-1.52888e-08
-1.29992e-07
-3.40698e-08
-1.3326e-07
-2.46065e-09
-1.49536e-07
3.73592e-08
-1.48651e-07
9.36265e-09
-1.60785e-07
8.22274e-09
-1.66767e-07
1.33504e-08
-1.54776e-07
-9.52592e-09
-1.42335e-07
-1.32843e-09
-1.32153e-07
1.04228e-08
-1.12388e-07
-1.18389e-09
-9.21737e-08
5.64193e-10
-1.02932e-07
4.90035e-08
-1.05623e-07
3.27572e-08
-9.67322e-08
2.83548e-09
-4.92702e-08
-1.0764e-08
-1.02629e-07
-1.98668e-08
-9.80654e-08
2.24472e-08
-8.8996e-08
-1.53526e-08
-1.15414e-07
-2.59375e-08
-1.22788e-07
-2.26128e-08
-1.58033e-07
1.4578e-08
-1.36472e-07
-1.35655e-08
-1.53992e-07
1.19758e-08
-3.38904e-08
3.04007e-08
-1.27435e-07
-2.77428e-08
-1.13275e-07
-1.0682e-10
-1.1013e-07
1.10612e-08
-1.14708e-07
3.64402e-09
-1.37384e-07
1.33191e-08
-4.29698e-08
2.30059e-08
-1.58932e-07
-4.36409e-08
-1.27885e-07
-5.12708e-08
-1.68023e-07
2.20916e-08
-1.58587e-07
-1.99525e-08
-1.618e-07
-3.45046e-08
-1.17685e-07
3.39344e-08
-1.84065e-07
-1.69323e-08
-1.30477e-07
-3.45065e-08
-1.26695e-07
3.23271e-08
-1.16378e-07
3.26994e-08
-1.08957e-07
3.07727e-08
-1.05098e-07
2.32095e-08
-1.01654e-07
1.94503e-08
-1.04509e-07
1.28137e-08
-1.08611e-07
7.67186e-09
-1.14809e-07
1.55481e-09
-1.22989e-07
-1.30379e-09
-1.31167e-07
-7.81235e-09
-1.38275e-07
-1.54818e-08
-1.43529e-07
-2.19604e-08
-1.47991e-07
-2.21788e-08
-1.52258e-07
-1.81698e-08
-1.53993e-07
-1.02953e-08
-1.49942e-07
1.65232e-09
-1.42901e-07
1.5363e-08
-1.36949e-07
2.23827e-08
-1.31252e-07
2.24436e-08
-1.26039e-07
1.59023e-08
-1.23429e-07
7.76207e-09
-1.21731e-07
4.41501e-09
-1.20241e-07
3.09632e-09
-1.18963e-07
2.19407e-09
-1.1808e-07
9.19589e-10
-1.17515e-07
-6.99592e-11
-1.16965e-07
-1.37169e-10
-1.16619e-07
-4.75562e-10
-1.16329e-07
9.6667e-12
3.86963e-11
-9.1899e-08
-1.41505e-08
-1.13517e-07
-1.43376e-08
-1.22765e-07
2.63197e-10
-1.23821e-07
-4.61468e-09
-1.42938e-07
5.48208e-09
-1.64103e-07
1.16142e-08
-1.82252e-07
2.80255e-09
-9.52887e-08
3.94935e-08
-9.6242e-08
4.46765e-10
-1.75226e-07
-4.09412e-08
-1.55519e-07
-1.21311e-08
-1.39688e-07
-9.03378e-09
-1.74544e-07
-5.30163e-09
-1.61312e-07
3.19852e-08
-1.56758e-07
-4.28337e-09
-1.26848e-07
-1.92921e-08
-1.36531e-07
7.20573e-09
-1.94183e-08
4.25383e-08
-1.00801e-07
-2.61387e-08
-8.162e-08
1.25476e-08
-1.01481e-07
2.2697e-08
-1.50258e-10
4.63213e-08
-1.86381e-08
-1.18824e-09
-1.17852e-07
-3.72279e-08
-1.10292e-07
-2.29121e-08
-1.23877e-07
-1.37565e-08
-1.25657e-07
-2.21281e-08
-1.60238e-07
-3.20425e-09
-1.44815e-07
2.56094e-08
-1.39844e-07
8.4307e-09
-9.34005e-08
-1.60424e-08
-1.05746e-07
-1.66326e-08
-9.56542e-08
-1.0199e-08
-9.20109e-08
7.41813e-09
-9.47085e-08
6.34171e-09
-1.14104e-07
3.27146e-08
-1.04724e-07
1.33919e-08
-1.47501e-07
-2.36889e-09
-5.00991e-08
1.18538e-08
-1.81386e-07
-5.81873e-08
-1.75491e-07
2.55862e-08
-7.56681e-08
2.64718e-08
-1.7872e-07
-2.18225e-08
-1.95275e-07
-2.39397e-09
-7.25541e-08
4.04687e-09
-1.43759e-07
-5.15677e-08
-1.38818e-07
2.77582e-08
-1.27261e-07
1.92161e-08
-1.2032e-07
1.62683e-08
-1.17148e-07
1.62787e-08