/*--------------------------------*- C++ -*----------------------------------*\
  =========                 |
  \\      /  F ield         | OpenFOAM: The Open Source CFD Toolbox
   \\    /   O peration     | Website:  https://openfoam.org
    \\  /    A nd           | Version:  12
     \\/     M anipulation  |
\*---------------------------------------------------------------------------*/
FoamFile
{
    format      ascii;
    class       volVectorField;
    location    "0.55";
    object      U.water;
}
// * * * * * * * * * * * * * * * * * * * * * * * * * * * * * * * * * * * * * //

dimensions      [0 1 -1 0 0 0 0];

internalField   nonuniform List<vector> 
3750
(
(0.00149578 0.0130911 0)
(0.000759769 0.0115821 0)
(0.000578213 0.0104631 0)
(0.0011683 0.00950034 0)
(0.000870366 0.00834309 0)
(0.000905909 0.0071303 0)
(0.00146476 0.0124217 0)
(-0.000781827 0.0108649 0)
(0.00127255 0.0110218 0)
(-0.00172281 0.00964218 0)
(0.000519385 0.00486083 0)
(0.000658781 0.00705145 0)
(0.000308091 0.00756844 0)
(-4.51707e-05 0.007392 0)
(-0.000942852 0.00865528 0)
(1.28531e-05 0.00840386 0)
(-0.000187999 0.00517312 0)
(0.00137928 0.00969169 0)
(-0.00234289 0.00938031 0)
(0.000197841 0.00335211 0)
(0.0020682 0.00809864 0)
(0.000660588 0.0129835 0)
(-0.00127609 0.00864065 0)
(-0.000898974 0.00325224 0)
(0.000827775 0.00381721 0)
(6.85367e-05 0.0050165 0)
(0.000602474 0.00435788 0)
(0.000373386 0.00557419 0)
(-0.000854819 0.00594324 0)
(0.00341925 0.01171 0)
(-0.00174183 0.0100456 0)
(-0.000556057 0.00386782 0)
(-0.000556286 0.00491222 0)
(-0.00100202 0.00507747 0)
(-0.00111669 0.00617873 0)
(-0.00221931 0.008916 0)
(0.00072537 0.00859909 0)
(0.000736728 0.00539227 0)
(0.000630839 0.00494538 0)
(0.00119188 0.00279577 0)
(0.000498125 0.00251626 0)
(4.55926e-05 0.00416327 0)
(-0.000599889 0.00564904 0)
(-0.000477217 0.00617615 0)
(-0.000322744 0.00613151 0)
(0.000451346 0.00530519 0)
(0.000931101 0.00509676 0)
(0.00108018 0.00239523 0)
(8.53609e-05 0.00297085 0)
(-0.000124112 0.00140365 0)
(-4.41804e-05 -0.00120916 0)
(0.00144649 -0.00212004 0)
(0.0020635 0.00316224 0)
(-0.00181361 -0.000206025 0)
(0.000348795 -0.00552584 0)
(-0.0012811 -0.00577073 0)
(-0.000658838 -0.00720982 0)
(-0.000526197 -0.00571901 0)
(-0.000180401 -0.00420572 0)
(-0.000331724 -0.00340151 0)
(-0.000485198 -0.00232189 0)
(-0.00050228 -0.00137738 0)
(-0.000530305 -0.000317701 0)
(-0.000481365 0.000291118 0)
(-0.000437338 0.00121651 0)
(-0.000337987 0.00219002 0)
(-0.000293773 0.00331193 0)
(-0.000142004 0.004317 0)
(0.000450263 0.00460285 0)
(0.000837241 0.0036123 0)
(0.000931185 0.00107369 0)
(0.000890576 -0.00136494 0)
(0.0014337 -0.00442348 0)
(0.00133039 -0.00823775 0)
(0.000676387 -0.00856265 0)
(0.00068263 0.00459765 0)
(0.000137154 0.000516327 0)
(-0.000614955 0.00137631 0)
(0.000174732 0.0015882 0)
(0.000424363 0.00169672 0)
(0.00198677 0.00136265 0)
(0.00367212 0.00319516 0)
(-0.000851942 0.00393314 0)
(-0.000303914 0.00406233 0)
(-0.0038397 0.00364594 0)
(-0.00196943 0.00266916 0)
(0.000434054 0.00414671 0)
(0.000295958 0.00494123 0)
(0.00130623 0.00540951 0)
(0.000951427 0.00899484 0)
(0.000231079 0.00819877 0)
(0.00194674 0.0026173 0)
(0.00308633 0.00079868 0)
(0.000256647 0.0008075 0)
(0.0011204 -0.000486316 0)
(0.00275114 0.000563356 0)
(-0.000375216 0.00286199 0)
(-0.00356428 0.00308093 0)
(-0.00232586 0.00184405 0)
(-0.000201155 0.00169674 0)
(0.000998629 0.00250414 0)
(0.000139857 0.00176921 0)
(-0.000279017 0.000733663 0)
(-0.00133142 0.00554646 0)
(0.00377234 0.00691798 0)
(-0.00215536 0.00156562 0)
(-0.000698146 0.000426393 0)
(-2.61736e-05 -9.55661e-05 0)
(0.000363746 -0.00110964 0)
(-0.000249011 -0.00446928 0)
(0.000421605 -0.000515891 0)
(0.0026565 -0.00179259 0)
(0.000603076 -0.00751777 0)
(0.000524855 -0.00556303 0)
(1.22622e-05 -0.00465622 0)
(-0.000469289 -0.00372003 0)
(-0.00085794 -0.00269531 0)
(-0.000487918 -0.00260117 0)
(-0.00160908 -0.00219315 0)
(-0.00111417 -0.00162033 0)
(-0.00128253 0.000325162 0)
(0.00261515 0.00110773 0)
(0.002684 -0.00184763 0)
(-2.89208e-05 -0.00176175 0)
(0.00351251 -0.00266514 0)
(0.00203288 -0.00547401 0)
(0.00319477 -0.00625103 0)
(0.00374967 -0.00545623 0)
(-0.000688709 -0.00541025 0)
(0.0017175 -0.00700326 0)
(-4.07805e-05 -0.00822883 0)
(-0.000130014 -0.00944533 0)
(-0.000692749 -0.00965162 0)
(-0.00130897 -0.00944266 0)
(-0.00154579 -0.00920373 0)
(-0.00148693 -0.00896901 0)
(-0.00131613 -0.0086178 0)
(-0.00107455 -0.00824021 0)
(-0.00103827 -0.00772306 0)
(-0.00144638 -0.00684686 0)
(-0.00188021 -0.00565556 0)
(-0.00207255 -0.00442591 0)
(-0.00138181 -0.00331378 0)
(0.000360543 -0.00295526 0)
(0.00248235 -0.00380225 0)
(0.00398764 -0.00578816 0)
(0.00478947 -0.00814529 0)
(0.00391056 -0.00983501 0)
(0.00287538 -0.011424 0)
(0.00032547 -0.00972581 0)
(-0.000740122 -0.00596853 0)
(-0.000465078 -0.00900763 0)
(0.000523956 -0.010199 0)
(0.000607368 -0.0100753 0)
(0.00121754 -0.00926731 0)
(0.000815781 -0.00917608 0)
(0.00118172 -0.00869654 0)
(-0.000883232 -0.00679633 0)
(-0.0010339 -0.00595948 0)
(-0.00237244 -0.00761191 0)
(-0.00147197 -0.00811044 0)
(-0.000974556 -0.00797757 0)
(-0.00021675 -0.00786675 0)
(-0.000176557 -0.00626346 0)
(0.00261201 -0.00538032 0)
(-0.00224616 -0.00178039 0)
(0.00383008 -0.0034064 0)
(0.00277186 -0.00501782 0)
(0.00222446 -0.00383457 0)
(0.00142907 -0.00331947 0)
(-9.47284e-05 -0.00350384 0)
(-0.00227604 -0.00430676 0)
(-0.00330987 -0.00465729 0)
(-0.00221475 -0.00551036 0)
(0.000846429 -0.00524903 0)
(-0.00102629 -0.00671884 0)
(0.00295987 -0.0089021 0)
(0.00225323 -0.00978275 0)
(0.00402567 -0.00538895 0)
(-0.000970997 -0.00622115 0)
(-0.0013009 -0.0118003 0)
(-0.000989518 -0.0119434 0)
(3.91679e-05 -0.0115869 0)
(0.00141738 -0.011305 0)
(0.00325433 -0.00919099 0)
(0.00320226 -0.00334977 0)
(-0.00185666 -0.00440225 0)
(-0.00166795 -0.00894978 0)
(-0.000323227 -0.00776449 0)
(-0.000792166 -0.00906458 0)
(-0.000411795 -0.00888858 0)
(-0.000390598 -0.00868759 0)
(-0.000614225 -0.0111439 0)
(-0.00183006 -0.0128262 0)
(-0.000119794 -0.0147064 0)
(-0.000175615 -0.0114568 0)
(0.00259486 -0.0107268 0)
(0.00259676 -0.016435 0)
(0.00312061 -0.011949 0)
(0.00308401 -0.0110765 0)
(0.00191955 -0.0147485 0)
(0.00130717 -0.0128992 0)
(0.00172594 -0.0117811 0)
(0.00101837 -0.0113177 0)
(0.00125355 -0.0115205 0)
(0.00104133 -0.0119469 0)
(0.000439797 -0.012914 0)
(-0.000415022 -0.0138321 0)
(-0.000757458 -0.0142232 0)
(-0.00120354 -0.0141979 0)
(-0.00133032 -0.0141823 0)
(-0.00133061 -0.0142201 0)
(-0.00142184 -0.0141609 0)
(-0.00185477 -0.0137284 0)
(-0.00258492 -0.01299 0)
(-0.00288525 -0.0124434 0)
(-0.00268518 -0.0120333 0)
(-0.00141311 -0.0119612 0)
(0.00162684 -0.0122217 0)
(0.00432752 -0.0124437 0)
(0.00509219 -0.0125711 0)
(0.00497023 -0.0119088 0)
(0.00327403 -0.0111673 0)
(0.0021015 -0.0122608 0)
(0.000127763 -0.010088 0)
(0.000283556 -0.0104131 0)
(0.00013826 -0.0134445 0)
(-0.000505152 -0.0136311 0)
(0.000261679 -0.0133291 0)
(0.00186033 -0.0120078 0)
(-0.000601182 -0.0118427 0)
(-0.00036358 -0.0113872 0)
(-0.000556452 -0.00979111 0)
(-0.000130492 -0.00967375 0)
(-0.00209896 -0.0105972 0)
(-0.000442057 -0.0102577 0)
(-0.00181546 -0.01004 0)
(3.19827e-05 -0.00955384 0)
(-0.000758291 -0.00819754 0)
(0.000413542 -0.00926233 0)
(0.00107312 -0.00462317 0)
(-0.000227146 -0.00414952 0)
(-0.000535016 -0.00769548 0)
(0.00121174 -0.0042391 0)
(0.00262447 -0.00531198 0)
(0.00120138 -0.00684841 0)
(0.000189402 -0.00738914 0)
(-0.00200438 -0.00847639 0)
(0.000727686 -0.00881522 0)
(0.0016676 -0.0133074 0)
(0.00203906 -0.0146514 0)
(0.00281576 -0.0106975 0)
(0.00308665 -0.0117574 0)
(0.00309702 -0.00821924 0)
(-0.00152919 -0.00818482 0)
(-0.00141742 -0.00964923 0)
(-0.000838032 -0.0110646 0)
(0.000159176 -0.0116275 0)
(0.000617303 -0.012043 0)
(0.00211927 -0.0110545 0)
(0.00199703 -0.00924656 0)
(-0.00259097 -0.00844024 0)
(-0.00205901 -0.00841204 0)
(0.000122927 -0.0090398 0)
(0.000766398 -0.0114652 0)
(0.00186703 -0.0122846 0)
(0.00215629 -0.0120051 0)
(0.00120502 -0.0119344 0)
(0.00187018 -0.0103838 0)
(-0.000209766 -0.011547 0)
(0.00360402 -0.0116389 0)
(0.000686259 -0.0120726 0)
(0.00131545 -0.0143364 0)
(0.00376273 -0.0119446 0)
(-0.000402244 -0.0107674 0)
(0.000275918 -0.0110322 0)
(0.000411073 -0.0105128 0)
(0.000824414 -0.0104333 0)
(0.00119584 -0.0104143 0)
(0.00176 -0.0107128 0)
(0.00180642 -0.0111817 0)
(0.00145654 -0.0121315 0)
(0.0005222 -0.013264 0)
(-0.000681282 -0.0143231 0)
(-0.00131591 -0.0147245 0)
(-0.0013026 -0.0152524 0)
(-0.00114509 -0.0156864 0)
(-0.00135153 -0.0158678 0)
(-0.00210226 -0.0155912 0)
(-0.00283745 -0.0150014 0)
(-0.00296222 -0.0147502 0)
(-0.00264503 -0.0146241 0)
(-0.00125652 -0.0151236 0)
(0.00117837 -0.0155857 0)
(0.00342823 -0.0149372 0)
(0.00419077 -0.0138481 0)
(0.00359253 -0.0121861 0)
(0.00245209 -0.0114795 0)
(0.00144378 -0.012474 0)
(-0.000250808 -0.01046 0)
(-0.000177202 -0.0115823 0)
(-0.00144025 -0.0124235 0)
(-0.00317944 -0.0119525 0)
(0.000237727 -0.00926716 0)
(-0.000380834 -0.0103459 0)
(-0.00100119 -0.0107832 0)
(-0.00127084 -0.00998764 0)
(-0.000691591 -0.010378 0)
(-0.00125808 -0.0107051 0)
(-0.00185382 -0.0112281 0)
(-0.00221279 -0.00993431 0)
(-0.000969059 -0.00985207 0)
(-0.000154564 -0.00926772 0)
(0.00118243 -0.0100302 0)
(0.000905043 -0.00844194 0)
(0.00488243 -0.0075912 0)
(-0.00221867 -0.0090323 0)
(0.00087214 -0.00615053 0)
(-0.00053492 -0.0044485 0)
(0.00254151 -0.0084415 0)
(0.00233549 -0.0105721 0)
(0.00109326 -0.0120615 0)
(0.00114805 -0.00984185 0)
(0.00196773 -0.00873384 0)
(-0.000607837 -0.0122712 0)
(0.0021765 -0.0122887 0)
(-0.00101199 -0.0111048 0)
(0.000922214 -0.00818773 0)
(0.000345185 -0.0068747 0)
(-0.000894997 -0.00663164 0)
(0.0015966 -0.00605124 0)
(-0.000118874 -0.00688287 0)
(0.0010308 -0.00934141 0)
(0.00125149 -0.0106205 0)
(0.00157641 -0.0110775 0)
(0.00159736 -0.0116333 0)
(0.000785204 -0.0134842 0)
(0.000171826 -0.012251 0)
(-0.00199315 -0.010414 0)
(-0.000934586 -0.0121765 0)
(-0.000288281 -0.0112862 0)
(-0.000178185 -0.0107426 0)
(0.00088277 -0.00930026 0)
(0.00168832 -0.0087872 0)
(0.00138341 -0.0052303 0)
(0.00244731 -0.00339708 0)
(0.000565593 -0.00750101 0)
(0.000880115 -0.00952345 0)
(0.001742 -0.00904638 0)
(0.000425402 -0.00896896 0)
(0.0007388 -0.00905758 0)
(0.00068087 -0.00933613 0)
(0.00105494 -0.00965362 0)
(0.00145987 -0.0097842 0)
(0.00220749 -0.00997386 0)
(0.00248816 -0.0103991 0)
(0.00233362 -0.0111532 0)
(0.00170447 -0.0120485 0)
(0.000711871 -0.0133132 0)
(-0.00031322 -0.0145772 0)
(-0.000712058 -0.0157431 0)
(-0.000761052 -0.0162265 0)
(-0.00139132 -0.016258 0)
(-0.00274485 -0.0156218 0)
(-0.00334391 -0.0151343 0)
(-0.00333198 -0.0148455 0)
(-0.00255572 -0.014687 0)
(-0.000771976 -0.0150736 0)
(0.00116324 -0.0153797 0)
(0.00245325 -0.0147389 0)
(0.00276156 -0.0132499 0)
(0.00232018 -0.011828 0)
(0.00183313 -0.0113417 0)
(0.00109128 -0.0124033 0)
(-0.000283637 -0.0107838 0)
(0.000814419 -0.0129193 0)
(-0.000987042 -0.0136994 0)
(-0.000709793 -0.0087013 0)
(-0.0019829 -0.00790918 0)
(-0.000765176 -0.0116756 0)
(-0.00118498 -0.0111172 0)
(-0.00152917 -0.00815272 0)
(2.79509e-05 -0.00667406 0)
(-0.000571599 -0.00744714 0)
(-0.000266763 -0.00930865 0)
(-0.00138219 -0.0093761 0)
(-0.000331174 -0.00955261 0)
(-0.00198545 -0.010169 0)
(-0.00103666 -0.0105027 0)
(-0.000182633 -0.00849574 0)
(0.000267965 -0.00944851 0)
(0.00154544 -0.0101993 0)
(0.00364671 -0.00950355 0)
(0.000933543 -0.00697293 0)
(0.000134106 -0.00739468 0)
(0.00113024 -0.0128295 0)
(0.00130207 -0.0123201 0)
(0.00269684 -0.0104353 0)
(-0.000197628 -0.0121475 0)
(-0.000959312 -0.0130446 0)
(-0.000775457 -0.0115586 0)
(-0.000811824 -0.010543 0)
(-0.000698026 -0.00913505 0)
(0.00142816 -0.00852678 0)
(-0.00156382 -0.00551553 0)
(0.00172623 -0.00620157 0)
(0.000710412 -0.00936475 0)
(0.00139307 -0.00949042 0)
(0.00216966 -0.0109994 0)
(0.00165165 -0.0108307 0)
(0.00162838 -0.0108358 0)
(0.000793976 -0.0120746 0)
(0.000718744 -0.0121553 0)
(-0.00388211 -0.0112115 0)
(-0.000230781 -0.011538 0)
(-0.000134125 -0.0122396 0)
(-0.000175983 -0.0119003 0)
(-0.00181243 -0.0119757 0)
(0.00332884 -0.0113187 0)
(0.00305134 -0.0100463 0)
(-0.000745313 -0.00828415 0)
(0.00235204 -0.00762557 0)
(0.00118502 -0.00829554 0)
(0.00127871 -0.00871001 0)
(0.000531398 -0.00892991 0)
(0.000772991 -0.00860869 0)
(0.00083705 -0.00891091 0)
(0.00113056 -0.00887292 0)
(0.00158292 -0.00926552 0)
(0.00262932 -0.00962791 0)
(0.00301419 -0.00976747 0)
(0.00302703 -0.0101865 0)
(0.00256812 -0.0106568 0)
(0.00183741 -0.011315 0)
(0.00102264 -0.0122994 0)
(0.000302841 -0.0134665 0)
(-0.000532616 -0.0142842 0)
(-0.00201929 -0.0142525 0)
(-0.00338491 -0.013649 0)
(-0.00365853 -0.0134569 0)
(-0.00349185 -0.0134383 0)
(-0.00241948 -0.0137068 0)
(-0.000607461 -0.0141737 0)
(0.000865744 -0.0142197 0)
(0.00156617 -0.0135786 0)
(0.00173736 -0.0125046 0)
(0.00161181 -0.0115821 0)
(0.0013097 -0.0112444 0)
(0.000790857 -0.0124908 0)
(-0.000205705 -0.0109437 0)
(-0.000760466 -0.0143626 0)
(-0.00108632 -0.0134486 0)
(0.000464641 -0.0115154 0)
(-0.00440889 -0.00871967 0)
(-0.00139005 -0.00921725 0)
(-0.00251998 -0.0116163 0)
(-0.00351314 -0.00783807 0)
(0.000440085 -0.0066709 0)
(-0.00154252 -0.00856166 0)
(-0.00124979 -0.00978591 0)
(-0.00131014 -0.00916654 0)
(-0.00162735 -0.0103696 0)
(-0.000637847 -0.012183 0)
(-0.000895292 -0.0126249 0)
(0.00277774 -0.0136971 0)
(0.00196181 -0.0143912 0)
(0.00283214 -0.0135782 0)
(0.00221946 -0.0140208 0)
(0.0040838 -0.0133837 0)
(0.000711513 -0.0121662 0)
(0.00127402 -0.0129102 0)
(0.00153753 -0.0130592 0)
(0.00114337 -0.0120024 0)
(0.00041064 -0.011981 0)
(0.000151468 -0.0131662 0)
(-0.000344145 -0.0138742 0)
(-0.000797778 -0.0128884 0)
(-0.00136003 -0.00797521 0)
(-0.00244498 -0.00959224 0)
(5.88697e-05 -0.00872467 0)
(0.000249976 -0.00780015 0)
(0.00041696 -0.0112782 0)
(0.00285989 -0.0111793 0)
(0.00156279 -0.0113683 0)
(0.00210812 -0.0122932 0)
(0.00218919 -0.011815 0)
(0.000581292 -0.0124373 0)
(4.31763e-06 -0.0136856 0)
(-0.000428073 -0.0102138 0)
(-0.000964431 -0.0102514 0)
(-0.00147286 -0.0144337 0)
(0.00255391 -0.0159009 0)
(0.00122765 -0.0124841 0)
(0.000329637 -0.0132336 0)
(-5.9407e-05 -0.0183146 0)
(-0.00106897 -0.0114069 0)
(-0.000632443 -0.0105709 0)
(0.00025614 -0.0134335 0)
(0.000324533 -0.0121666 0)
(0.000435971 -0.0121859 0)
(0.000687326 -0.0111753 0)
(0.00107657 -0.0112058 0)
(0.00161699 -0.0108927 0)
(0.00220533 -0.0108725 0)
(0.00287544 -0.0104433 0)
(0.00318334 -0.0102394 0)
(0.00318892 -0.0102069 0)
(0.00289897 -0.0101581 0)
(0.00242751 -0.0102119 0)
(0.00192759 -0.0105696 0)
(0.00125212 -0.0110646 0)
(8.6142e-05 -0.0114858 0)
(-0.0018972 -0.0115798 0)
(-0.00321917 -0.011645 0)
(-0.00344724 -0.0118713 0)
(-0.00312162 -0.0122897 0)
(-0.00193638 -0.0128678 0)
(-0.0004646 -0.0133986 0)
(0.000468189 -0.0133375 0)
(0.000958754 -0.0127936 0)
(0.00116503 -0.012112 0)
(0.00112894 -0.0114902 0)
(0.000968812 -0.0112623 0)
(0.000616092 -0.0126455 0)
(-0.000152956 -0.0110475 0)
(0.000514561 -0.014749 0)
(0.000270621 -0.0123776 0)
(-0.000369347 -0.0128658 0)
(-0.00231103 -0.0115828 0)
(-0.00311519 -0.0103957 0)
(-0.00295658 -0.0139895 0)
(-0.00366783 -0.00774458 0)
(-0.000606521 -0.00832827 0)
(0.000753354 -0.0140382 0)
(0.00020755 -0.0139703 0)
(-0.000312094 -0.0139557 0)
(-0.00261325 -0.0145504 0)
(0.00137036 -0.0157452 0)
(-0.000263855 -0.0159512 0)
(0.00257812 -0.0167364 0)
(0.00232434 -0.02039 0)
(0.0006746 -0.0180421 0)
(0.000513147 -0.0153101 0)
(0.000592781 -0.0142186 0)
(-0.000509837 -0.0130623 0)
(0.00332278 -0.0132877 0)
(0.00200892 -0.0133345 0)
(0.000707113 -0.011164 0)
(0.000975877 -0.0123559 0)
(0.000170478 -0.0144504 0)
(0.00018283 -0.0141397 0)
(0.000918409 -0.0144821 0)
(0.000710954 -0.014865 0)
(-0.000757175 -0.011389 0)
(0.00210106 -0.00700505 0)
(-0.00156203 -0.0111757 0)
(-0.00158623 -0.0119558 0)
(-0.000131667 -0.0113657 0)
(-0.000322678 -0.0124801 0)
(0.000976583 -0.0102863 0)
(0.00214145 -0.011431 0)
(0.00174456 -0.0128015 0)
(0.00185068 -0.0120447 0)
(0.00234077 -0.0120234 0)
(-0.00159915 -0.0124452 0)
(0.00124625 -0.010143 0)
(0.00139878 -0.0122056 0)
(0.00281499 -0.0159255 0)
(-0.00185244 -0.0137932 0)
(-0.000955641 -0.0141659 0)
(0.00227571 -0.0158742 0)
(-0.00355542 -0.0160029 0)
(-0.000599518 -0.0165906 0)
(-0.000724274 -0.0161747 0)
(-0.000407426 -0.0158819 0)
(-0.000124592 -0.015516 0)
(0.000236298 -0.0153566 0)
(0.00083012 -0.0147739 0)
(0.00116925 -0.0142233 0)
(0.00181153 -0.0132885 0)
(0.00263266 -0.0122372 0)
(0.00291819 -0.0112936 0)
(0.00262443 -0.0106168 0)
(0.00226116 -0.0101088 0)
(0.00189714 -0.0100038 0)
(0.0012165 -0.0100337 0)
(-1.45127e-05 -0.0102203 0)
(-0.00178964 -0.0105147 0)
(-0.00289154 -0.010997 0)
(-0.00304958 -0.0114445 0)
(-0.00253092 -0.0119272 0)
(-0.00131746 -0.0124352 0)
(-0.000273901 -0.012756 0)
(0.000246893 -0.0126818 0)
(0.00062723 -0.0123435 0)
(0.000853347 -0.0118782 0)
(0.000833082 -0.0114265 0)
(0.000731791 -0.0112762 0)
(0.000476829 -0.0127607 0)
(-0.000114705 -0.0111318 0)
(0.000340593 -0.0144746 0)
(-0.0001803 -0.0157122 0)
(-0.00210659 -0.0167084 0)
(-0.000776031 -0.0151597 0)
(-0.00449941 -0.0151141 0)
(-0.00232282 -0.0184648 0)
(-0.000477 -0.0135418 0)
(-0.00371919 -0.0128918 0)
(-0.00158567 -0.0179141 0)
(2.85859e-05 -0.0194314 0)
(0.000441736 -0.0191358 0)
(0.00136777 -0.015876 0)
(0.00175144 -0.0168209 0)
(0.00261076 -0.0179864 0)
(0.00101644 -0.0177162 0)
(0.00108799 -0.0199281 0)
(0.00123187 -0.0187663 0)
(0.000468919 -0.0169651 0)
(-0.000212795 -0.0164284 0)
(0.00102924 -0.0111876 0)
(0.00130739 -0.0111833 0)
(0.00145589 -0.015805 0)
(-0.000179534 -0.0129252 0)
(0.0014281 -0.0126786 0)
(0.000509619 -0.0156663 0)
(-3.67795e-05 -0.0165146 0)
(0.000477738 -0.0164821 0)
(-0.0009071 -0.0148831 0)
(0.00311136 -0.0135199 0)
(0.00130113 -0.0135548 0)
(-0.00269255 -0.014025 0)
(0.000108707 -0.0117619 0)
(-0.0032025 -0.012208 0)
(-0.00129124 -0.0142632 0)
(0.00234773 -0.0121165 0)
(0.00142979 -0.0120328 0)
(0.00168165 -0.0140416 0)
(0.00100648 -0.0135419 0)
(0.00194118 -0.0129311 0)
(0.00129688 -0.00845437 0)
(0.00255505 -0.00819338 0)
(0.000929213 -0.0123554 0)
(0.00103941 -0.0131237 0)
(0.000549814 -0.0126854 0)
(-0.0017802 -0.0104622 0)
(0.000508801 -0.0107095 0)
(-0.000148971 -0.0117167 0)
(-0.00148734 -0.00967766 0)
(-0.00107514 -0.0119297 0)
(-0.000212134 -0.0124128 0)
(0.000241254 -0.012098 0)
(0.000572413 -0.0127601 0)
(0.000844919 -0.0130738 0)
(0.00105555 -0.0134234 0)
(0.00124691 -0.0133386 0)
(0.00142039 -0.012809 0)
(0.00158151 -0.0117787 0)
(0.00169059 -0.0105765 0)
(0.00176279 -0.00965524 0)
(0.00177082 -0.00928659 0)
(0.00134085 -0.00913782 0)
(0.000421793 -0.00943082 0)
(-0.00114328 -0.0102153 0)
(-0.00238008 -0.0109837 0)
(-0.00260242 -0.0112972 0)
(-0.00221271 -0.0116532 0)
(-0.00112753 -0.0120466 0)
(-0.000318343 -0.0123227 0)
(3.73951e-05 -0.0123922 0)
(0.00037363 -0.0121824 0)
(0.000587415 -0.0118029 0)
(0.000585995 -0.0114303 0)
(0.000535216 -0.011319 0)
(0.000354659 -0.0128557 0)
(-8.01433e-05 -0.0111959 0)
(-0.00132098 -0.013034 0)
(0.000964567 -0.0146485 0)
(0.000123082 -0.015669 0)
(0.00085632 -0.016795 0)
(-0.0011479 -0.0178571 0)
(-0.00118355 -0.017534 0)
(0.0024222 -0.0166006 0)
(-0.00153977 -0.0181361 0)
(-0.0020678 -0.019639 0)
(-0.000321228 -0.0204315 0)
(-3.64075e-05 -0.0201491 0)
(0.00317634 -0.0177085 0)
(6.4507e-05 -0.016393 0)
(0.00119804 -0.0149488 0)
(-0.000132531 -0.015305 0)
(-0.000864293 -0.0177539 0)
(-0.000180693 -0.0181478 0)
(-9.13729e-06 -0.017741 0)
(-0.000921899 -0.0153043 0)
(0.00175187 -0.0132642 0)
(0.00144542 -0.0139658 0)
(0.00159351 -0.0148369 0)
(0.00191189 -0.0109737 0)
(0.000417338 -0.0114745 0)
(-0.000415871 -0.0155624 0)
(0.00252385 -0.0153054 0)
(0.00158405 -0.0163096 0)
(-5.20024e-05 -0.0129983 0)
(-0.00130737 -0.0103331 0)
(-0.000256085 -0.0138807 0)
(-0.000566565 -0.0151477 0)
(-0.00132872 -0.0161305 0)
(-0.00173262 -0.0163823 0)
(-0.000179072 -0.0107132 0)
(0.00106654 -0.0107214 0)
(0.000564312 -0.0137405 0)
(0.00158834 -0.0130968 0)
(0.00134634 -0.0113857 0)
(0.00198397 -0.0108193 0)
(0.00185602 -0.0104908 0)
(-0.00180509 -0.0073452 0)
(0.000301199 -0.00816039 0)
(-0.000209829 -0.0106141 0)
(-0.00019283 -0.0109916 0)
(0.000691109 -0.00768571 0)
(-0.00170263 -0.0064407 0)
(-0.000125271 -0.00942487 0)
(-0.00130932 -0.0100252 0)
(-0.000825657 -0.01029 0)
(-0.000611138 -0.0121103 0)
(0.000444686 -0.0129001 0)
(0.00126244 -0.012965 0)
(0.0013827 -0.0129327 0)
(0.00128942 -0.0127088 0)
(0.00112676 -0.0123445 0)
(0.000882301 -0.0117442 0)
(0.000619433 -0.0107385 0)
(0.000594626 -0.00944286 0)
(0.00088375 -0.00825746 0)
(0.00142413 -0.00746659 0)
(0.00139145 -0.00710163 0)
(0.000965117 -0.00711519 0)
(-0.000131985 -0.00767052 0)
(-0.00168978 -0.0087027 0)
(-0.00229575 -0.00960891 0)
(-0.00185981 -0.0104953 0)
(-0.00069096 -0.0113226 0)
(-6.52364e-05 -0.0116929 0)
(9.95493e-05 -0.0119417 0)
(0.00027046 -0.0119728 0)
(0.000465769 -0.0116899 0)
(0.000433543 -0.0113866 0)
(0.000389258 -0.0113262 0)
(0.000258347 -0.0129185 0)
(-5.92466e-05 -0.0112456 0)
(0.00093586 -0.00889144 0)
(0.000906772 -0.0112989 0)
(0.000696508 -0.0138522 0)
(6.26955e-06 -0.01478 0)
(-0.000148157 -0.0152705 0)
(-2.40602e-05 -0.0119439 0)
(0.000104029 -0.0146285 0)
(-0.00140029 -0.019752 0)
(-0.00190815 -0.0197943 0)
(-0.00203656 -0.0213471 0)
(-0.00110417 -0.0206612 0)
(-0.00065154 -0.0183743 0)
(-0.0019064 -0.0178342 0)
(0.00228455 -0.014722 0)
(0.00346385 -0.0158409 0)
(0.00196436 -0.0186337 0)
(0.000869236 -0.0186875 0)
(0.000653285 -0.0192214 0)
(-0.000327403 -0.0150366 0)
(-0.000286179 -0.0104074 0)
(0.000255689 -0.0139291 0)
(0.000657071 -0.0166632 0)
(0.00165868 -0.0135642 0)
(-0.00266755 -0.0137992 0)
(-0.001713 -0.0111716 0)
(0.00247123 -0.00973142 0)
(0.00242806 -0.0125678 0)
(0.0027482 -0.0100479 0)
(-0.00081165 -0.00581985 0)
(-0.00186339 -0.00924029 0)
(-0.00109211 -0.0143052 0)
(-0.00155658 -0.0145316 0)
(-6.48368e-05 -0.0134683 0)
(-0.000185234 -0.0143434 0)
(-0.0034801 -0.0135528 0)
(0.000614232 -0.0122746 0)
(0.000700559 -0.0127259 0)
(0.00161845 -0.0125392 0)
(0.000323664 -0.0112163 0)
(0.000427699 -0.0107194 0)
(-0.00108476 -0.00733715 0)
(0.00189462 -0.00740352 0)
(0.00143295 -0.0102034 0)
(0.00179558 -0.0078149 0)
(0.0008612 -0.00690095 0)
(-0.00146745 -0.0073598 0)
(-0.00301527 -0.00681409 0)
(-0.000445938 -0.00615973 0)
(0.000548961 -0.00873059 0)
(4.89138e-05 -0.0123504 0)
(0.000809566 -0.0129605 0)
(0.000653965 -0.0133544 0)
(0.000688187 -0.0134241 0)
(0.000589995 -0.0132968 0)
(0.000320194 -0.0123845 0)
(-0.00030377 -0.011437 0)
(-0.000569587 -0.0102598 0)
(-0.000657529 -0.00909723 0)
(-0.000357056 -0.00806162 0)
(0.000468049 -0.00700536 0)
(0.0010391 -0.00618482 0)
(0.00108962 -0.0059651 0)
(0.000640655 -0.00607628 0)
(-0.000155465 -0.00694467 0)
(-0.000753071 -0.00848647 0)
(-0.000568708 -0.0102885 0)
(-2.90492e-05 -0.0113802 0)
(0.000269173 -0.0117242 0)
(0.000271706 -0.0119303 0)
(0.000278018 -0.0119751 0)
(0.000304269 -0.0117031 0)
(0.000298371 -0.0113832 0)
(0.000261637 -0.011343 0)
(0.000186066 -0.0129706 0)
(-4.23163e-05 -0.0112816 0)
(0.000105022 -0.008867 0)
(0.000442546 -0.0122844 0)
(0.00172701 -0.0116844 0)
(0.0026769 -0.0115324 0)
(0.00232891 -0.0108371 0)
(0.00256521 -0.00820071 0)
(-0.000433022 -0.00762003 0)
(0.00153962 -0.00929048 0)
(0.000582436 -0.0110501 0)
(-0.00107685 -0.0124721 0)
(-0.00036532 -0.0131038 0)
(-0.000626206 -0.0155561 0)
(0.00089949 -0.0131769 0)
(0.00125416 -0.0102383 0)
(-0.000396755 -0.0138463 0)
(-0.000417899 -0.0150838 0)
(-0.000138943 -0.0137802 0)
(-0.000266742 -0.0134777 0)
(0.00158631 -0.0120413 0)
(-0.00110844 -0.0106071 0)
(-0.00416662 -0.0116176 0)
(-0.0002433 -0.0134776 0)
(0.000212989 -0.0137849 0)
(3.67343e-05 -0.0135153 0)
(0.000859968 -0.00829793 0)
(-0.00060544 -0.00820731 0)
(0.00130057 -0.0108605 0)
(0.00239029 -0.00926009 0)
(0.00145819 -0.00828682 0)
(-0.00127514 -0.00823758 0)
(-0.000353873 -0.0102851 0)
(0.000543177 -0.0121902 0)
(5.31019e-05 -0.0129378 0)
(-0.000518541 -0.0140294 0)
(-0.000594291 -0.00956854 0)
(-0.00108765 -0.0099551 0)
(-0.00362247 -0.0134406 0)
(0.00105971 -0.0123888 0)
(0.000441298 -0.0121515 0)
(0.000846342 -0.0115634 0)
(0.00110171 -0.0070271 0)
(-0.000932801 -0.00784537 0)
(-0.000933447 -0.0124441 0)
(-0.00160271 -0.011255 0)
(-0.000419698 -0.0112673 0)
(-0.00149027 -0.0111544 0)
(-0.00127073 -0.00989036 0)
(-0.00106431 -0.00926297 0)
(0.00263629 -0.0132723 0)
(0.00195459 -0.0152154 0)
(0.00167434 -0.0151917 0)
(0.0011303 -0.015113 0)
(0.000755645 -0.0141723 0)
(0.000241065 -0.013201 0)
(-0.000501124 -0.0121216 0)
(-0.00121994 -0.0108493 0)
(-0.00164358 -0.00925347 0)
(-0.00159303 -0.00841846 0)
(-0.00108826 -0.00755235 0)
(-0.000470831 -0.00690955 0)
(0.000276341 -0.00651046 0)
(0.000717762 -0.00659533 0)
(0.000820792 -0.00705715 0)
(0.000814509 -0.00805261 0)
(0.00090967 -0.00956176 0)
(0.000902298 -0.0109254 0)
(0.000720265 -0.0114836 0)
(0.000518373 -0.011707 0)
(0.000336024 -0.0118359 0)
(0.000265743 -0.0118618 0)
(0.000183578 -0.0116071 0)
(0.000192992 -0.011335 0)
(0.000155431 -0.0113593 0)
(0.000131408 -0.0129994 0)
(-2.75704e-05 -0.0113099 0)
(-0.00175596 -0.00870795 0)
(-0.00059001 -0.00863694 0)
(-0.000696651 -0.00804658 0)
(0.000493808 -0.00674349 0)
(1.71512e-05 -0.00465621 0)
(6.64259e-05 -0.00227161 0)
(-0.00222842 -7.06268e-05 0)
(1.54009e-05 0.00123561 0)
(0.000995282 0.00127685 0)
(0.00208113 0.000352779 0)
(0.000861997 0.000901915 0)
(-0.000440368 0.00228836 0)
(0.00383915 0.00394765 0)
(0.000290051 0.00348354 0)
(-0.00129885 -0.000268933 0)
(0.000317916 -0.00105398 0)
(0.00145324 -0.00333449 0)
(0.000769664 -0.0050906 0)
(0.00130396 -0.00630254 0)
(-0.000167553 -0.00960604 0)
(-0.000821435 -0.010768 0)
(-0.000825862 -0.0131366 0)
(0.000125762 -0.015152 0)
(0.000592228 -0.0146907 0)
(0.000515923 -0.0128314 0)
(-0.0026249 -0.0112404 0)
(0.000473994 -0.0104224 0)
(0.00155675 -0.00983667 0)
(0.00141772 -0.00946555 0)
(0.000405167 -0.0104248 0)
(-0.000617056 -0.0112044 0)
(0.000396508 -0.0113863 0)
(0.000964215 -0.0122807 0)
(0.000890447 -0.0126733 0)
(0.00140946 -0.0114492 0)
(-0.00282487 -0.0127532 0)
(-0.0012838 -0.00963114 0)
(-0.000674754 -0.00836615 0)
(0.000264731 -0.0109707 0)
(0.000797643 -0.0089574 0)
(0.0020107 -0.00712245 0)
(-0.00137226 -0.00622502 0)
(0.00079935 -0.00806777 0)
(0.000143708 -0.00759508 0)
(0.00133593 -0.0102361 0)
(0.00140625 -0.0142155 0)
(0.00206212 -0.0144548 0)
(-0.00074863 -0.012115 0)
(0.000295818 -0.0141615 0)
(0.000347461 -0.0177043 0)
(-0.000100055 -0.0159474 0)
(-0.00020474 -0.0155976 0)
(-0.000623691 -0.0140524 0)
(-0.00167534 -0.0131272 0)
(-0.00242418 -0.0119257 0)
(-0.00292143 -0.0110995 0)
(-0.00318488 -0.0099863 0)
(-0.00276885 -0.00929134 0)
(-0.00188698 -0.00857855 0)
(-0.000699634 -0.00818133 0)
(0.000772063 -0.00791521 0)
(0.0016912 -0.00851294 0)
(0.0021754 -0.00950396 0)
(0.00235432 -0.0106755 0)
(0.00197161 -0.0115699 0)
(0.00115482 -0.0119159 0)
(0.000728403 -0.0118797 0)
(0.000523033 -0.0118122 0)
(0.000365102 -0.0118681 0)
(0.00020701 -0.0118635 0)
(0.000121921 -0.0115979 0)
(0.000116611 -0.0113414 0)
(6.41194e-05 -0.0113808 0)
(8.01684e-05 -0.013032 0)
(-1.60411e-05 -0.0113287 0)
(-1.41643e-05 -0.0114505 0)
(0.000341092 -0.0112188 0)
(-0.000318887 -0.0115183 0)
(-0.00155577 -0.0123282 0)
(-0.00161069 -0.0122392 0)
(-0.00273479 -0.0114692 0)
(-0.00496935 -0.00943602 0)
(0.00203932 -0.00752246 0)
(0.000210384 -0.01041 0)
(-0.000103159 -0.0113348 0)
(0.000946924 -0.0111391 0)
(0.000157426 -0.00661445 0)
(0.00162999 -0.00674895 0)
(0.000338513 -0.00974249 0)
(0.00211995 -0.00840972 0)
(0.00276822 -0.00827916 0)
(0.00287479 -0.00895007 0)
(0.00308314 -0.00879061 0)
(0.00174811 -0.00876988 0)
(0.00488346 -0.00962664 0)
(0.002552 -0.0118191 0)
(-0.0011668 -0.0128589 0)
(0.000356795 -0.0128953 0)
(-0.000932365 -0.0131026 0)
(-0.00140837 -0.0126388 0)
(-0.00236168 -0.0101086 0)
(-0.00197238 -0.00779454 0)
(0.00124841 -0.00922248 0)
(0.00209668 -0.00968265 0)
(0.000990807 -0.0107567 0)
(0.000813856 -0.0116518 0)
(0.00146543 -0.0116215 0)
(0.00049786 -0.0124926 0)
(0.000466175 -0.0107574 0)
(-0.00105749 -0.0099306 0)
(-0.00400696 -0.00961382 0)
(0.000789281 -0.00867777 0)
(-0.00304777 -0.010665 0)
(-0.00121302 -0.0124955 0)
(-0.00251116 -0.0121018 0)
(-0.000857789 -0.00984878 0)
(-0.00271787 -0.00785039 0)
(0.000938036 -0.00808284 0)
(0.00232734 -0.00753672 0)
(0.00186712 -0.00639778 0)
(0.0035174 -0.00624508 0)
(0.00431449 -0.00694805 0)
(0.00449831 -0.00595944 0)
(-0.00028245 -0.00736804 0)
(0.000872526 -0.0102429 0)
(-0.000130171 -0.010547 0)
(-0.000488569 -0.0104395 0)
(-0.00126188 -0.0102648 0)
(-0.00183365 -0.0105996 0)
(-0.00249959 -0.01111 0)
(-0.00296713 -0.0119744 0)
(-0.00313229 -0.0123263 0)
(-0.00288071 -0.012617 0)
(-0.00234208 -0.0125428 0)
(-0.00118142 -0.0122838 0)
(0.000695435 -0.0117742 0)
(0.00234398 -0.011644 0)
(0.00285037 -0.0119071 0)
(0.00283864 -0.0120803 0)
(0.00222254 -0.0121618 0)
(0.00110664 -0.012025 0)
(0.000665147 -0.0118875 0)
(0.000499584 -0.0117901 0)
(0.000367132 -0.0118131 0)
(0.000194381 -0.0117888 0)
(5.99541e-05 -0.0115274 0)
(5.51962e-05 -0.0112844 0)
(-3.15759e-06 -0.011368 0)
(3.99034e-05 -0.0130388 0)
(-5.91578e-06 -0.011341 0)
(-0.00256762 -0.00923989 0)
(0.00174652 -0.00860181 0)
(0.00070874 -0.0103069 0)
(0.000132616 -0.0112165 0)
(-0.00102631 -0.0127451 0)
(-0.00136858 -0.0145503 0)
(-0.0016918 -0.00841689 0)
(0.00160286 -0.0100801 0)
(9.46716e-05 -0.0184983 0)
(-0.000755904 -0.0146994 0)
(0.00296162 -0.0130861 0)
(0.00266923 -0.0116498 0)
(-0.00188077 -0.0122001 0)
(-0.000400322 -0.0136304 0)
(2.69468e-05 -0.0121342 0)
(0.00122352 -0.0122202 0)
(0.0013362 -0.011864 0)
(0.00244088 -0.0105968 0)
(0.00298449 -0.00499351 0)
(0.00365781 -0.00546007 0)
(0.000978502 -0.0100045 0)
(0.000631189 -0.00646547 0)
(-0.000321514 -0.00543917 0)
(-0.00114866 -0.0093803 0)
(-0.00165351 -0.0103311 0)
(-0.0017768 -0.0111088 0)
(-8.69223e-05 -0.00756225 0)
(-0.000170606 -0.00700372 0)
(0.000246267 -0.0119513 0)
(0.000203804 -0.0123181 0)
(0.00153531 -0.00977903 0)
(0.000317226 -0.0103473 0)
(0.000526742 -0.0103806 0)
(0.000973219 -0.0102567 0)
(-0.000343355 -0.0111271 0)
(-0.000347608 -0.00739133 0)