/*--------------------------------*- C++ -*----------------------------------*\
  =========                 |
  \\      /  F ield         | OpenFOAM: The Open Source CFD Toolbox
   \\    /   O peration     | Website:  https://openfoam.org
    \\  /    A nd           | Version:  12
     \\/     M anipulation  |
\*---------------------------------------------------------------------------*/
FoamFile
{
    format      ascii;
    class       volVectorField;
    location    "0.55";
    object      U.water_0;
}
// * * * * * * * * * * * * * * * * * * * * * * * * * * * * * * * * * * * * * //

dimensions      [0 1 -1 0 0 0 0];

internalField   nonuniform List<vector> 
3750
(
(2.26594e-05 0.0118238 0)
(0.000496822 0.0121059 0)
(0.000405811 0.0111348 0)
(0.00103488 0.0101205 0)
(0.000617054 0.00928706 0)
(0.000360847 0.0090391 0)
(-0.00059864 0.00905489 0)
(0.000484747 0.0079507 0)
(0.000308888 0.00765804 0)
(0.00158284 0.00608416 0)
(0.00234504 0.012401 0)
(-0.000960973 0.0126297 0)
(-0.000337189 0.0073312 0)
(-2.57638e-05 0.00703382 0)
(0.000259875 0.00691283 0)
(-0.00195876 0.0075217 0)
(-0.00160584 0.00854024 0)
(0.000150898 0.00824208 0)
(-0.00103713 0.00544206 0)
(-7.22913e-05 0.0044054 0)
(0.000207867 0.00488269 0)
(0.000812112 0.00508882 0)
(0.00130133 0.00626302 0)
(-0.000166042 0.00527377 0)
(0.00108488 0.00444531 0)
(0.000199497 0.00560965 0)
(0.000726001 0.00497178 0)
(0.00066854 0.0059747 0)
(0.000159504 0.00493626 0)
(-0.000384304 0.00518659 0)
(-0.000270467 0.00582118 0)
(-0.000306825 0.00604795 0)
(-0.00107064 0.00689057 0)
(-0.00095858 0.00711824 0)
(-0.0010815 0.00627331 0)
(-0.000153942 0.00480119 0)
(-0.000490808 0.00411857 0)
(0.00122884 0.00359349 0)
(0.00207545 0.00914345 0)
(-0.00026514 0.00745153 0)
(-0.000589798 0.00169926 0)
(-0.000304722 0.0028764 0)
(-0.000877183 0.00524049 0)
(-0.000637381 0.00604668 0)
(0.000114408 0.00559394 0)
(0.000810056 0.00473958 0)
(-0.00011914 0.00451389 0)
(0.00116171 0.00172368 0)
(0.000159489 0.00317309 0)
(-0.00109939 0.00323179 0)
(-0.00011865 0.000501184 0)
(0.000936057 -0.00104309 0)
(0.000130693 -0.00178541 0)
(0.000241847 -0.0047712 0)
(0.00123532 -0.00331649 0)
(-0.00103879 -0.00422963 0)
(-0.000829822 -0.00677666 0)
(-0.000506629 -0.00580383 0)
(-0.00013683 -0.00412467 0)
(-0.000303359 -0.00333711 0)
(-0.000469358 -0.00229476 0)
(-0.000491983 -0.00137379 0)
(-0.0005234 -0.000323963 0)
(-0.000477596 0.000268127 0)
(-0.000433472 0.00117806 0)
(-0.000334359 0.00213934 0)
(-0.000293744 0.00325551 0)
(-0.000148238 0.00426049 0)
(0.000440728 0.00455967 0)
(0.000834549 0.00357619 0)
(0.000935067 0.00104284 0)
(0.000896964 -0.00141014 0)
(0.00144016 -0.00449748 0)
(0.00133648 -0.00834198 0)
(0.000678919 -0.00865488 0)
(0.00021043 0.00161121 0)
(0.000803588 0.00221392 0)
(-0.000588189 0.00203789 0)
(-4.73355e-05 0.00203983 0)
(-0.00013047 0.00220219 0)
(0.000940601 0.00138677 0)
(0.000966602 0.001476 0)
(0.000517016 0.00214943 0)
(-0.00113948 0.00253049 0)
(0.000273071 0.00273591 0)
(0.000779292 0.00532837 0)
(-0.00158795 0.00721704 0)
(-0.000780576 0.00623112 0)
(0.000967216 0.00684341 0)
(0.00104739 0.00536895 0)
(0.00101496 0.00471124 0)
(0.000730372 0.00693414 0)
(0.000525107 0.0019642 0)
(0.00109991 -0.00207811 0)
(0.000308936 -0.00266255 0)
(0.000344329 -0.00229694 0)
(2.00961e-05 -0.000772631 0)
(-0.000243943 0.00110731 0)
(-0.0013764 0.00154638 0)
(0.000221365 0.00171197 0)
(0.00142354 0.0029416 0)
(0.000220793 0.0025234 0)
(-0.000255036 0.00204156 0)
(-0.000603278 0.000504843 0)
(-0.00029004 0.000715202 0)
(-0.000689576 0.00129061 0)
(-0.000384468 0.000469761 0)
(-0.000618751 0.00155539 0)
(-0.00114695 0.00139505 0)
(-0.00395463 -0.00224445 0)
(0.00188776 -0.00572658 0)
(0.00196761 -0.00779459 0)
(0.00192199 -0.00688356 0)
(0.00265877 -0.00355479 0)
(-0.00180968 -0.00248971 0)
(-0.00206537 -0.00359698 0)
(-0.00149733 -0.0031649 0)
(-0.000957231 -0.0028023 0)
(-0.00273538 -0.00163033 0)
(0.000599524 -0.00175613 0)
(0.000707272 -0.00183951 0)
(-0.000873171 0.000217261 0)
(0.00390423 -0.00139886 0)
(0.00207688 -0.00271415 0)
(0.00140676 -0.00103459 0)
(0.000764984 -0.00331518 0)
(0.00188995 -0.00712645 0)
(0.00131038 -0.00788682 0)
(0.00189361 -0.00732808 0)
(0.00305317 -0.0069711 0)
(0.000470051 -0.00789952 0)
(-0.000105984 -0.00922591 0)
(-0.000554324 -0.00949676 0)
(-0.00120247 -0.00934658 0)
(-0.00148504 -0.00915199 0)
(-0.00144811 -0.0089533 0)
(-0.00128954 -0.0086261 0)
(-0.00105161 -0.00826783 0)
(-0.0010152 -0.0077711 0)
(-0.00142325 -0.00691361 0)
(-0.00186341 -0.00573637 0)
(-0.00206822 -0.00451585 0)
(-0.00139144 -0.00340703 0)
(0.000344422 -0.0030424 0)
(0.00247698 -0.00387753 0)
(0.00399833 -0.00585791 0)
(0.00481281 -0.00821846 0)
(0.00393795 -0.00993444 0)
(0.0028929 -0.0115403 0)
(0.000323845 -0.00981808 0)
(-0.00136099 -0.00685781 0)
(0.00159372 -0.00800686 0)
(0.0011172 -0.0104598 0)
(0.000598952 -0.0100939 0)
(0.000907137 -0.00916285 0)
(-4.68814e-05 -0.00953176 0)
(0.000221353 -0.00991154 0)
(-0.000870089 -0.00793953 0)
(-0.000809134 -0.00662939 0)
(-0.00114309 -0.00755399 0)
(-0.000488665 -0.00683066 0)
(-0.00196533 -0.00623903 0)
(-0.000413074 -0.00644339 0)
(-0.000552348 -0.00565818 0)
(0.00163749 -0.00620543 0)
(0.00219976 -0.00406624 0)
(0.00357875 -0.00362552 0)
(0.000597485 -0.00455541 0)
(0.000725465 -0.00593792 0)
(7.86276e-05 -0.00559331 0)
(-0.000808783 -0.00548776 0)
(-0.00168849 -0.00641143 0)
(-0.00163197 -0.00655982 0)
(-0.00198958 -0.00646193 0)
(0.000965243 -0.00520321 0)
(-0.00123445 -0.00652634 0)
(0.00263074 -0.00862086 0)
(0.00126878 -0.00857016 0)
(0.00165858 -0.0102452 0)
(0.000446326 -0.0120854 0)
(-0.000716213 -0.0117806 0)
(-0.000856676 -0.0119452 0)
(-0.000313061 -0.0114542 0)
(-0.000724729 -0.0124671 0)
(-0.00108204 -0.00595025 0)
(5.11289e-05 -0.00440812 0)
(0.000359949 -0.00912351 0)
(0.000665797 -0.00806238 0)
(0.000759563 -0.00682836 0)
(-0.000995127 -0.00794602 0)
(-0.000982179 -0.00841857 0)
(-0.000814852 -0.00869593 0)
(-0.000770792 -0.0120548 0)
(-0.00154945 -0.0106777 0)
(-9.29281e-05 -0.0120083 0)
(-9.38092e-05 -0.0173356 0)
(0.00145216 -0.0122706 0)
(0.00273286 -0.011763 0)
(0.00356735 -0.0151551 0)
(0.0035087 -0.01284 0)
(0.000328518 -0.0124468 0)
(7.01438e-05 -0.0131686 0)
(0.000990754 -0.0128896 0)
(0.00175193 -0.0122524 0)
(0.00196309 -0.0118189 0)
(0.0015033 -0.0119277 0)
(0.000765629 -0.0128391 0)
(-0.000202662 -0.0138051 0)
(-0.000613017 -0.0142027 0)
(-0.00110678 -0.0141969 0)
(-0.00126616 -0.0141977 0)
(-0.00128309 -0.014251 0)
(-0.00137897 -0.014209 0)
(-0.00181125 -0.013797 0)
(-0.00254884 -0.0130735 0)
(-0.00286282 -0.0125333 0)
(-0.00267688 -0.0121305 0)
(-0.00142923 -0.0120582 0)
(0.00159404 -0.0123231 0)
(0.0043313 -0.0125433 0)
(0.00510874 -0.012669 0)
(0.00500035 -0.0120128 0)
(0.00330254 -0.0112713 0)
(0.00211326 -0.0123846 0)
(0.000126393 -0.0101829 0)
(0.0011907 -0.011626 0)
(0.00148332 -0.0103695 0)
(0.000820218 -0.0150384 0)
(0.000364644 -0.013967 0)
(0.00179265 -0.0124837 0)
(-0.00111309 -0.0125256 0)
(-0.000950674 -0.012243 0)
(-0.00107526 -0.0103821 0)
(0.000640901 -0.00992388 0)
(-0.0016099 -0.0107704 0)
(-0.000791601 -0.00998213 0)
(-0.00355094 -0.00814992 0)
(0.000392831 -0.00763494 0)
(-0.00130183 -0.00755727 0)
(-5.89091e-05 -0.00822775 0)
(0.00197022 -0.00753981 0)
(0.00116437 -0.00680738 0)
(0.000498105 -0.00773458 0)
(-0.00136468 -0.00628554 0)
(-0.000106685 -0.00662916 0)
(0.00106784 -0.0076172 0)
(0.0012036 -0.00843047 0)
(0.000645246 -0.0106045 0)
(-0.000613643 -0.0105205 0)
(0.00113634 -0.0135217 0)
(0.00177947 -0.0145514 0)
(0.00263391 -0.0106561 0)
(0.00194749 -0.0125881 0)
(0.000194977 -0.0109667 0)
(0.000199585 -0.0112999 0)
(-0.000880133 -0.0110604 0)
(-0.000648356 -0.0118638 0)
(3.11033e-05 -0.0122789 0)
(-6.9375e-05 -0.0131475 0)
(0.00277703 -0.0100644 0)
(-0.00131889 -0.00840753 0)
(-0.000238467 -0.00886494 0)
(6.32263e-05 -0.00874127 0)
(0.000897696 -0.0093658 0)
(0.00121976 -0.0107509 0)
(0.00180238 -0.0122532 0)
(0.00205139 -0.0120487 0)
(0.00140596 -0.0115222 0)
(0.00335498 -0.00963277 0)
(-0.000548137 -0.0117195 0)
(2.17693e-05 -0.0147474 0)
(0.00204618 -0.0129694 0)
(-0.000352843 -0.0125838 0)
(0.00166098 -0.0128596 0)
(0.00123446 -0.0114653 0)
(-0.000172672 -0.0105904 0)
(-0.000197114 -0.0104899 0)
(0.000543048 -0.0108685 0)
(0.0014175 -0.010889 0)
(0.00212905 -0.010971 0)
(0.00214096 -0.0112664 0)
(0.00170325 -0.0121413 0)
(0.000737946 -0.0132613 0)
(-0.000515277 -0.0143249 0)
(-0.00120642 -0.0147379 0)
(-0.0012285 -0.01527 0)
(-0.00108329 -0.0157252 0)
(-0.00128872 -0.0159229 0)
(-0.00203701 -0.0156756 0)
(-0.00279399 -0.0150914 0)
(-0.00293224 -0.0148429 0)
(-0.0026326 -0.0147176 0)
(-0.00126713 -0.0152114 0)
(0.00115686 -0.0156901 0)
(0.00342631 -0.0150505 0)
(0.004208 -0.0139561 0)
(0.00361792 -0.0122919 0)
(0.00247492 -0.011586 0)
(0.00145137 -0.012598 0)
(-0.000253869 -0.0105585 0)
(0.00305232 -0.0115752 0)
(-0.000888451 -0.0110041 0)
(-0.000403665 -0.0135405 0)
(-0.000673218 -0.0107913 0)
(-0.000703025 -0.0109937 0)
(-0.000975941 -0.0115339 0)
(-0.00110858 -0.011043 0)
(-0.00180569 -0.0101405 0)
(-8.2631e-05 -0.0103712 0)
(-0.00154963 -0.0123869 0)
(-0.00269936 -0.0110666 0)
(-0.00202446 -0.00739702 0)
(-0.00132191 -0.00674163 0)
(-0.000189173 -0.0101525 0)
(-0.000612024 -0.00782035 0)
(0.00428918 -0.00807668 0)
(-7.9559e-05 -0.00902618 0)
(0.00175472 -0.00950669 0)
(0.000482384 -0.0101554 0)
(-0.00102097 -0.00815528 0)
(0.0027148 -0.0088111 0)
(0.0016549 -0.0112738 0)
(0.0018777 -0.0139632 0)
(0.00239999 -0.0128533 0)
(-0.000875486 -0.0111682 0)
(0.00235309 -0.0118849 0)
(-0.000786406 -0.0119184 0)
(0.000693632 -0.00986964 0)
(-0.000826219 -0.00897378 0)
(-0.000768655 -0.00897459 0)
(0.000127142 -0.00747281 0)
(0.000234724 -0.00746062 0)
(0.00118726 -0.00999345 0)
(0.0010609 -0.011038 0)
(0.00233223 -0.0107028 0)
(0.00118528 -0.0109676 0)
(0.00172349 -0.0127079 0)
(0.000879408 -0.0127303 0)
(-0.000299787 -0.0110703 0)
(-0.000701044 -0.0118809 0)
(-0.000477153 -0.0114758 0)
(-0.000111305 -0.0106981 0)
(0.00119656 -0.00887076 0)
(0.00101723 -0.00753313 0)
(0.000685662 -0.00765522 0)
(0.00155281 -0.00752272 0)
(0.000769742 -0.00708624 0)
(-0.000434737 -0.00809445 0)
(0.000845675 -0.00896721 0)
(0.000602006 -0.00908815 0)
(0.00069299 -0.00899151 0)
(0.000473554 -0.00936304 0)
(0.000948431 -0.00986212 0)
(0.00156237 -0.0100491 0)
(0.00242107 -0.0101727 0)
(0.00272245 -0.0105131 0)
(0.00254492 -0.0112136 0)
(0.00189599 -0.0120799 0)
(0.000878504 -0.0133321 0)
(-0.000185159 -0.0145965 0)
(-0.000622332 -0.0157826 0)
(-0.000682397 -0.0162892 0)
(-0.00130338 -0.0163412 0)
(-0.00266418 -0.0157234 0)
(-0.00329936 -0.0152282 0)
(-0.00330387 -0.0149454 0)
(-0.00255276 -0.0147793 0)
(-0.00078319 -0.0151601 0)
(0.00115787 -0.0154789 0)
(0.00246 -0.014854 0)
(0.00277685 -0.0133623 0)
(0.0023387 -0.0119336 0)
(0.00184934 -0.0114492 0)
(0.00110041 -0.0125263 0)
(-0.000285597 -0.0108859 0)
(0.00130386 -0.0124122 0)
(-0.000172259 -0.0111951 0)
(0.000266676 -0.011516 0)
(-0.000296042 -0.0115429 0)
(-0.000400015 -0.0111306 0)
(-0.000347493 -0.011317 0)
(-0.000531085 -0.0101513 0)
(-0.000304429 -0.006183 0)
(-0.00104966 -0.00633391 0)
(-0.000416456 -0.0110517 0)
(-0.0014763 -0.010293 0)
(-0.000109048 -0.00830423 0)
(-0.00394424 -0.00859099 0)
(-0.00299454 -0.0101795 0)
(-0.00136173 -0.00669425 0)
(0.00141166 -0.00869826 0)
(0.00147275 -0.0112983 0)
(0.00238762 -0.0106109 0)
(0.00237628 -0.0133861 0)
(0.00114057 -0.00915014 0)
(0.000929413 -0.0095081 0)
(0.000860095 -0.0129992 0)
(0.00197353 -0.0127377 0)
(0.001795 -0.0149844 0)
(-0.000540254 -0.0137774 0)
(-0.000781731 -0.0111551 0)
(-0.000255426 -0.0109395 0)
(0.000848634 -0.0113305 0)
(0.000207556 -0.0109968 0)
(-0.00105557 -0.00891681 0)
(-0.00199812 -0.00730462 0)
(0.00159527 -0.0084698 0)
(0.00118862 -0.010685 0)
(0.00129296 -0.0114833 0)
(0.00107582 -0.0100085 0)
(0.0020576 -0.00979435 0)
(0.00141871 -0.0112695 0)
(0.00148623 -0.011772 0)
(-0.000672693 -0.0119939 0)
(-0.000980449 -0.0127313 0)
(-0.000483213 -0.0123656 0)
(-0.000162478 -0.0113935 0)
(-0.000867953 -0.0122443 0)
(-0.000149289 -0.011585 0)
(0.00186765 -0.0106433 0)
(0.00208834 -0.0108057 0)
(0.0013059 -0.00897665 0)
(0.000301281 -0.0074623 0)
(0.000892204 -0.0081026 0)
(0.000471881 -0.00875055 0)
(0.000774546 -0.0085285 0)
(0.000807341 -0.00893341 0)
(0.00113523 -0.00898455 0)
(0.00166543 -0.00942062 0)
(0.00278179 -0.00977834 0)
(0.00319641 -0.00988471 0)
(0.00320899 -0.0102748 0)
(0.00274028 -0.0107245 0)
(0.00199238 -0.011367 0)
(0.00115586 -0.0123434 0)
(0.000417388 -0.013517 0)
(-0.000424477 -0.0143554 0)
(-0.0019093 -0.0143534 0)
(-0.00331785 -0.0137475 0)
(-0.00361421 -0.0135494 0)
(-0.00346687 -0.0135302 0)
(-0.00241988 -0.0137936 0)
(-0.00061472 -0.0142654 0)
(0.000872135 -0.0143238 0)
(0.00157999 -0.0136908 0)
(0.00175283 -0.0126144 0)
(0.00162745 -0.0116887 0)
(0.00132322 -0.0113545 0)
(0.000798544 -0.0126178 0)
(-0.000205724 -0.0110483 0)
(-0.00140499 -0.0104476 0)
(0.000822378 -0.0114308 0)
(-0.000767013 -0.0122004 0)
(-0.000679583 -0.0107578 0)
(4.69244e-05 -0.0106168 0)
(-0.000571688 -0.0116827 0)
(3.28286e-05 -0.009996 0)
(0.000629112 -0.00787476 0)
(-0.00334671 -0.00802702 0)
(-0.00177607 -0.0104552 0)
(-0.00122344 -0.0098473 0)
(-0.0024212 -0.00976495 0)
(-0.00129561 -0.0116121 0)
(-0.00326716 -0.0118916 0)
(0.00432048 -0.00954505 0)
(0.00144909 -0.0133042 0)
(0.00219001 -0.0160053 0)
(0.00166889 -0.0159181 0)
(0.00287834 -0.0169403 0)
(0.0044116 -0.0135971 0)
(0.00012223 -0.0124456 0)
(0.000688363 -0.0128911 0)
(0.00119399 -0.0135248 0)
(0.000909631 -0.0149837 0)
(0.000419877 -0.0140601 0)
(-0.000427176 -0.0131837 0)
(-0.00126509 -0.012111 0)
(-0.00111057 -0.0114353 0)
(-0.000614683 -0.0127506 0)
(-0.000649303 -0.0135982 0)
(-0.00216626 -0.00876906 0)
(0.00272072 -0.00830077 0)
(0.00130046 -0.0137104 0)
(0.000817733 -0.01232 0)
(0.000856238 -0.0107104 0)
(0.00334585 -0.00997765 0)
(0.000936376 -0.0113294 0)
(0.000333567 -0.011665 0)
(0.000446562 -0.0123512 0)
(0.000455923 -0.0134105 0)
(-7.13737e-05 -0.013845 0)
(0.000433814 -0.0143868 0)
(-0.000318541 -0.0151652 0)
(-0.00178386 -0.0140549 0)
(0.000367957 -0.0145404 0)
(-0.000382348 -0.0154861 0)
(0.00019123 -0.0140442 0)
(0.000622763 -0.0114152 0)
(0.000537135 -0.0112847 0)
(0.000604984 -0.0119414 0)
(0.000788381 -0.0110871 0)
(0.0011393 -0.0112332 0)
(0.00168666 -0.0109877 0)
(0.00231027 -0.0110047 0)
(0.00301227 -0.0105821 0)
(0.00334483 -0.0103622 0)
(0.0033524 -0.0103156 0)
(0.00305696 -0.010256 0)
(0.0025722 -0.010299 0)
(0.0020582 -0.0106485 0)
(0.00137434 -0.0111424 0)
(0.000209688 -0.0115691 0)
(-0.00177983 -0.0116676 0)
(-0.0031499 -0.0117283 0)
(-0.00339983 -0.0119549 0)
(-0.00309792 -0.0123734 0)
(-0.00193213 -0.0129536 0)
(-0.000459821 -0.0134961 0)
(0.000480032 -0.013448 0)
(0.000973496 -0.0129064 0)
(0.00117978 -0.0122215 0)
(0.00114261 -0.011599 0)
(0.000980454 -0.0113759 0)
(0.000623462 -0.012777 0)
(-0.000152116 -0.0111553 0)
(0.000727395 -0.00642791 0)
(0.000135164 -0.0102751 0)
(-0.000737838 -0.0137646 0)
(-0.000579181 -0.0123704 0)
(-0.0015042 -0.0117597 0)
(-0.00154741 -0.0120264 0)
(0.00035556 -0.0113573 0)
(0.000316441 -0.0132122 0)
(-2.09557e-05 -0.0135218 0)
(0.000156491 -0.0138163 0)
(0.000455562 -0.0151167 0)
(-0.000413812 -0.0139162 0)
(-1.20535e-05 -0.0157345 0)
(0.000731528 -0.0128332 0)
(0.000988138 -0.0130773 0)
(-0.00179279 -0.0219378 0)
(0.000157307 -0.0193953 0)
(0.000328318 -0.0171266 0)
(0.00104494 -0.0166491 0)
(0.00211632 -0.0149725 0)
(0.000935581 -0.0145137 0)
(0.000832744 -0.0127377 0)
(-0.000318961 -0.0121428 0)
(0.000529567 -0.0150512 0)
(0.00023986 -0.0157303 0)
(-0.000128162 -0.0144728 0)
(-0.000229832 -0.0145054 0)
(-0.000590757 -0.0146729 0)
(0.000111309 -0.0148234 0)
(0.000665132 -0.0146869 0)
(0.00111111 -0.00905567 0)
(-0.00183231 -0.0102614 0)
(0.000192151 -0.015846 0)
(0.00074438 -0.0128316 0)
(0.00121218 -0.00759276 0)
(0.00163678 -0.00895281 0)
(0.00130541 -0.012882 0)
(0.00117166 -0.011126 0)
(0.00105781 -0.0116995 0)
(0.00194484 -0.0130244 0)
(0.000494492 -0.0137536 0)
(0.000173819 -0.0146062 0)
(0.000213719 -0.0163304 0)
(-0.000964099 -0.0119537 0)
(-0.00104693 -0.0116656 0)
(0.000824703 -0.0176462 0)
(0.000639501 -0.0176298 0)
(0.00100766 -0.0165233 0)
(-2.96936e-05 -0.0157956 0)
(-9.2693e-05 -0.015839 0)
(4.76639e-05 -0.0155688 0)
(0.000352723 -0.0154363 0)
(0.000942262 -0.0148843 0)
(0.00128884 -0.014359 0)
(0.00193714 -0.0134419 0)
(0.00277211 -0.0123896 0)
(0.00306913 -0.011435 0)
(0.00277304 -0.0107459 0)
(0.00239718 -0.0102249 0)
(0.00202239 -0.0101114 0)
(0.00133625 -0.010135 0)
(0.000103399 -0.0103177 0)
(-0.00168306 -0.0106028 0)
(-0.00282269 -0.0110843 0)
(-0.00300146 -0.0115319 0)
(-0.00250552 -0.0120179 0)
(-0.00130525 -0.0125307 0)
(-0.000255694 -0.0128617 0)
(0.000265141 -0.0127946 0)
(0.000643336 -0.0124575 0)
(0.000868628 -0.0119897 0)
(0.000846738 -0.0115382 0)
(0.000743009 -0.0113931 0)
(0.000483912 -0.0128963 0)
(-0.000113533 -0.0112431 0)
(0.00114851 -0.0105838 0)
(-0.00256813 -0.0142297 0)
(-0.00388129 -0.0153988 0)
(-0.000227015 -0.0149269 0)
(-0.00255192 -0.0167624 0)
(-0.00280709 -0.0160124 0)
(-9.24552e-05 -0.016026 0)
(-0.000649021 -0.0187359 0)
(-0.000855933 -0.0184108 0)
(0.000321582 -0.0187154 0)
(0.00137285 -0.0176703 0)
(0.00372524 -0.0173956 0)
(0.00174173 -0.0174407 0)
(0.00430932 -0.0175876 0)
(-0.00285338 -0.0188069 0)
(-0.00317482 -0.0179118 0)
(0.00176422 -0.0174295 0)
(0.000218848 -0.0180784 0)
(0.000496522 -0.0172467 0)
(0.000905791 -0.0155166 0)
(-4.09152e-05 -0.0146954 0)
(0.000493828 -0.0143228 0)
(-0.000235688 -0.0138974 0)
(-0.000582883 -0.014471 0)
(0.000355382 -0.0162485 0)
(-0.000109991 -0.0169911 0)
(0.00056378 -0.0167214 0)
(0.000272036 -0.0163298 0)
(-5.58046e-05 -0.0168241 0)
(0.000890705 -0.016719 0)
(0.00110001 -0.0140665 0)
(-0.00187698 -0.0111251 0)
(-0.00103349 -0.0132311 0)
(0.00201358 -0.0150982 0)
(0.00216263 -0.0122449 0)
(-0.000832283 -0.0110354 0)
(0.000371983 -0.0131568 0)
(0.000285434 -0.0124341 0)
(0.00107449 -0.0109481 0)
(0.000780258 -0.011244 0)
(0.00126038 -0.0124237 0)
(0.00208436 -0.0127348 0)
(0.000991143 -0.013692 0)
(0.00165218 -0.0109017 0)
(-0.000627914 -0.00901507 0)
(-0.00183368 -0.010566 0)
(0.0030602 -0.0119788 0)
(0.00108442 -0.0110753 0)
(-0.000377284 -0.0122299 0)
(6.61528e-05 -0.0126636 0)
(0.000429477 -0.0121813 0)
(0.000715153 -0.0128178 0)
(0.00098722 -0.0131364 0)
(0.00120905 -0.013519 0)
(0.00140064 -0.0134583 0)
(0.00156984 -0.0129517 0)
(0.00172318 -0.0119305 0)
(0.00182375 -0.0107252 0)
(0.0018865 -0.00978956 0)
(0.00188728 -0.00941262 0)
(0.00145221 -0.00925446 0)
(0.00053107 -0.00953738 0)
(-0.00103792 -0.0103113 0)
(-0.00230945 -0.0110866 0)
(-0.0025515 -0.0114031 0)
(-0.00218267 -0.0117574 0)
(-0.00111037 -0.0121526 0)
(-0.000296192 -0.0124344 0)
(5.71544e-05 -0.0125086 0)
(0.000389911 -0.0123004 0)
(0.000602369 -0.0119186 0)
(0.000598905 -0.011546 0)
(0.000546055 -0.0114402 0)
(0.000361067 -0.0129955 0)
(-7.86711e-05 -0.0113107 0)
(3.3819e-05 -0.00937234 0)
(0.000541837 -0.0151715 0)
(-0.000552341 -0.0132889 0)
(-0.0011582 -0.0137342 0)
(0.00166218 -0.0199769 0)
(0.00141659 -0.0170191 0)
(-0.000813495 -0.0164621 0)
(-0.000100404 -0.0225167 0)
(-0.000848247 -0.0221083 0)
(-0.000520418 -0.0202818 0)
(0.000956857 -0.0194323 0)
(0.0033479 -0.0181819 0)
(0.0025414 -0.0171314 0)
(0.000587845 -0.0163106 0)
(-0.00113024 -0.0176026 0)
(-0.00216043 -0.0147759 0)
(-0.0012329 -0.0153631 0)
(-0.000776442 -0.0193183 0)
(0.000259921 -0.0174507 0)
(-0.000769224 -0.0172104 0)
(-0.000289618 -0.0161559 0)
(-0.000248265 -0.0130219 0)
(0.000354907 -0.0129972 0)
(0.000167014 -0.0143067 0)
(0.000299582 -0.0148989 0)
(0.00254711 -0.0153539 0)
(0.00185763 -0.0150926 0)
(5.02947e-05 -0.0160796 0)
(0.00023977 -0.0153464 0)
(-0.00152013 -0.0145807 0)
(0.00053869 -0.0147442 0)
(-0.00104562 -0.0159605 0)
(-0.00158349 -0.0156033 0)
(0.000611959 -0.0133626 0)
(0.00130722 -0.0137518 0)
(-0.000952361 -0.0122597 0)
(0.000165215 -0.0115503 0)
(0.00127072 -0.0100702 0)
(0.000969297 -0.0104424 0)
(-0.00088174 -0.0116088 0)
(0.000623368 -0.00941918 0)
(0.000502619 -0.00957057 0)
(-0.000116522 -0.0110368 0)
(-0.000465696 -0.00803881 0)
(0.000717157 -0.00881611 0)
(-0.000872043 -0.00623524 0)
(0.00288596 -0.00603879 0)
(0.001187 -0.0121839 0)
(-0.000537496 -0.0118702 0)
(-0.000799553 -0.0125056 0)
(0.000412254 -0.0130712 0)
(0.00139574 -0.0130625 0)
(0.00155475 -0.0130115 0)
(0.00146769 -0.0128042 0)
(0.00130263 -0.0124634 0)
(0.00104973 -0.0118845 0)
(0.000771368 -0.0108932 0)
(0.000726784 -0.00959905 0)
(0.000994987 -0.00840893 0)
(0.00153029 -0.00760501 0)
(0.00149132 -0.00722881 0)
(0.00106403 -0.007232 0)
(-3.34446e-05 -0.00777427 0)
(-0.00161055 -0.00880291 0)
(-0.00224452 -0.0097105 0)
(-0.00183341 -0.0105954 0)
(-0.000672145 -0.0114282 0)
(-3.85733e-05 -0.011806 0)
(0.000123487 -0.012058 0)
(0.000287965 -0.0120919 0)
(0.000481759 -0.0118088 0)
(0.000446823 -0.0115046 0)
(0.000399734 -0.0114513 0)
(0.000264276 -0.0130625 0)
(-5.7718e-05 -0.0113641 0)
(0.00128554 -0.00696502 0)
(0.00156333 -0.0117026 0)
(0.00268857 -0.0140518 0)
(-0.00131941 -0.0110914 0)
(0.000357817 -0.0124888 0)
(0.0019385 -0.0156514 0)
(-0.00168915 -0.0181232 0)
(-0.00171388 -0.0209859 0)
(-0.000850899 -0.0217025 0)
(-0.00253977 -0.0206223 0)
(0.000914887 -0.0188898 0)
(0.000774196 -0.0187495 0)
(0.000498265 -0.0194706 0)
(0.000603981 -0.0177585 0)
(0.00262763 -0.0175513 0)
(0.00264788 -0.0165093 0)
(-0.00175674 -0.0167288 0)
(-0.000989626 -0.0181002 0)
(-0.00166462 -0.0175631 0)
(-0.0019172 -0.0175954 0)
(-0.000788631 -0.0167358 0)
(-0.0015882 -0.0151025 0)
(-0.00215647 -0.0129429 0)
(-0.00141509 -0.0133681 0)
(0.00167776 -0.0116517 0)
(0.00169668 -0.0108586 0)
(0.00204862 -0.0127881 0)
(0.000766022 -0.0102072 0)
(0.000796713 -0.0103022 0)
(-0.00126273 -0.0127003 0)
(-0.000531765 -0.0126005 0)
(-0.00136558 -0.0146858 0)
(3.68283e-06 -0.0139229 0)
(-0.00122629 -0.0151034 0)
(-0.000431481 -0.0159351 0)
(-0.00268773 -0.0128928 0)
(0.000207261 -0.0105499 0)
(0.00268179 -0.0111012 0)
(-0.000476001 -0.01186 0)
(-0.00101868 -0.0100216 0)
(0.00214915 -0.0085761 0)
(0.000836816 -0.0102031 0)
(0.00127533 -0.0113409 0)
(0.00179395 -0.00600919 0)
(-0.00134267 -0.00466125 0)
(0.0040255 -0.00404446 0)
(-0.000146338 -0.00530993 0)
(-0.000645288 -0.0102375 0)
(0.000332151 -0.0116174 0)
(-0.00046283 -0.0127161 0)
(0.000757966 -0.0126873 0)
(0.000774332 -0.013277 0)
(0.000881158 -0.0134824 0)
(0.000794417 -0.0134027 0)
(0.000519011 -0.0125276 0)
(-0.00012391 -0.0115999 0)
(-0.000412262 -0.010434 0)
(-0.000525738 -0.00927105 0)
(-0.00025186 -0.00823191 0)
(0.000556516 -0.0071688 0)
(0.00112677 -0.00632819 0)
(0.00117541 -0.00609435 0)
(0.000725367 -0.00619028 0)
(-7.96508e-05 -0.0070426 0)
(-0.000698068 -0.008578 0)
(-0.000534374 -0.0103837 0)
(7.82836e-07 -0.0114952 0)
(0.000299976 -0.0118447 0)
(0.00029827 -0.0120534 0)
(0.000298852 -0.0120997 0)
(0.00032083 -0.0118277 0)
(0.000311572 -0.0115049 0)
(0.000270413 -0.011472 0)
(0.000191986 -0.0131186 0)
(-4.06863e-05 -0.0114036 0)
(0.00185782 -0.010333 0)
(0.00191566 -0.0111934 0)
(0.00339502 -0.0114406 0)
(0.00396535 -0.0100632 0)
(0.000522506 -0.00985761 0)
(0.000992395 -0.0102101 0)
(0.000352527 -0.0100984 0)
(0.00158466 -0.0107865 0)
(0.00161765 -0.0134093 0)
(0.000691251 -0.0110104 0)
(0.000551162 -0.010414 0)
(0.000191284 -0.0155258 0)
(0.000644152 -0.0170281 0)
(0.000545076 -0.0149713 0)
(0.000173115 -0.0139404 0)
(-0.00014441 -0.0142026 0)
(-0.00162701 -0.0132297 0)
(-0.00228641 -0.0136945 0)
(-0.0019541 -0.0141083 0)
(-0.00253129 -0.0141708 0)
(-0.00311317 -0.0142684 0)
(-0.00247922 -0.0143539 0)
(-0.00315794 -0.012208 0)
(-0.000650036 -0.00906345 0)
(0.00274633 -0.00978514 0)
(0.000815798 -0.0121912 0)
(0.00174336 -0.0108915 0)
(0.00156195 -0.0104022 0)
(-0.000254039 -0.0106821 0)
(0.000520454 -0.00997543 0)
(0.00024138 -0.0102378 0)
(0.000630679 -0.012487 0)
(0.000876785 -0.0132833 0)
(-0.000396966 -0.0136564 0)
(0.000181537 -0.0147242 0)
(-0.000656084 -0.0119544 0)
(-0.00180728 -0.00746756 0)
(-0.00119959 -0.0114869 0)
(-0.000838956 -0.0143039 0)
(0.000162255 -0.00848924 0)
(0.000593247 -0.00858598 0)
(-0.000487012 -0.0126743 0)
(-0.000442476 -0.0118394 0)
(0.000354054 -0.0105084 0)
(-0.000812001 -0.0065883 0)
(0.00069955 -0.00594933 0)
(-0.00197121 -0.0122241 0)
(0.000393604 -0.0146347 0)
(0.00158777 -0.0151629 0)
(0.00206063 -0.0154314 0)
(0.00201286 -0.0147569 0)
(0.00143271 -0.0149799 0)
(0.00104777 -0.014199 0)
(0.000507036 -0.013324 0)
(-0.000266088 -0.0122921 0)
(-0.00102094 -0.0110399 0)
(-0.00148304 -0.00944062 0)
(-0.00146564 -0.00860235 0)
(-0.000987139 -0.00772936 0)
(-0.000391572 -0.00707685 0)
(0.000343816 -0.00666296 0)
(0.000784739 -0.00673269 0)
(0.000885971 -0.00718105 0)
(0.000873079 -0.00816411 0)
(0.000960463 -0.0096666 0)
(0.000948827 -0.0110435 0)
(0.000761362 -0.0116088 0)
(0.000554101 -0.0118345 0)
(0.000364168 -0.0119642 0)
(0.000287482 -0.0119905 0)
(0.000200182 -0.0117348 0)
(0.000205613 -0.0114599 0)
(0.000163358 -0.0114925 0)
(0.000137028 -0.0131504 0)
(-2.58881e-05 -0.0114357 0)
(0.00278703 -0.00864471 0)
(0.00204362 -0.00929352 0)
(0.00077994 -0.00864833 0)
(0.00128374 -0.00701316 0)
(-0.000827765 -0.00502237 0)
(-0.000744082 -0.00369691 0)
(-0.00201378 -0.002242 0)
(-0.000853117 -0.000204301 0)
(0.00116933 0.000719963 0)
(0.00459017 0.00118627 0)
(0.000713896 0.00196646 0)
(0.000720552 0.000637061 0)
(0.000290887 0.000722786 0)
(0.000816942 0.00122445 0)
(-0.000490093 -0.000919063 0)
(0.000229257 -0.000995979 0)
(0.00056585 -0.00360147 0)
(-0.000491816 -0.00583225 0)
(6.26925e-05 -0.00814823 0)
(-0.00168907 -0.0121088 0)
(-0.00158955 -0.0140381 0)
(-0.00285193 -0.0157244 0)
(-8.82816e-05 -0.0128478 0)
(-0.0006288 -0.00904489 0)
(-0.00301932 -0.0114175 0)
(0.000519477 -0.0138906 0)
(0.00143036 -0.0128999 0)
(0.000730715 -0.0121832 0)
(0.000448732 -0.0113916 0)
(0.00032951 -0.0115939 0)
(-0.0010254 -0.0113303 0)
(0.000931931 -0.0114763 0)
(0.00173877 -0.0127591 0)
(0.00119021 -0.0134649 0)
(0.00106537 -0.0135043 0)
(0.00163203 -0.0122691 0)
(-0.00145223 -0.0100688 0)
(-0.00294342 -0.00999381 0)
(-0.000883975 -0.00998663 0)
(0.000481634 -0.00762012 0)
(-0.0017149 -0.00743808 0)
(0.000216042 -0.00805741 0)
(0.00124916 -0.00746599 0)
(0.0017627 -0.006445 0)
(0.00287735 -0.00729086 0)
(0.000319434 -0.0109712 0)
(-0.000434884 -0.013675 0)
(0.000519877 -0.0165058 0)
(0.00152475 -0.0185255 0)
(0.00160844 -0.017014 0)
(0.000660631 -0.0155628 0)
(0.00034855 -0.015615 0)
(-0.000221325 -0.0141903 0)
(-0.00136436 -0.0133207 0)
(-0.00218148 -0.0121385 0)
(-0.00272799 -0.0113142 0)
(-0.00303493 -0.0101912 0)
(-0.00265561 -0.00948594 0)
(-0.0018009 -0.00876323 0)
(-0.00063716 -0.00835576 0)
(0.0008281 -0.00807164 0)
(0.00174865 -0.00865405 0)
(0.00223352 -0.00963612 0)
(0.00241428 -0.0108051 0)
(0.00203431 -0.0117034 0)
(0.00120559 -0.0120563 0)
(0.000767968 -0.0120204 0)
(0.000555196 -0.0119491 0)
(0.000392495 -0.0120025 0)
(0.000229095 -0.0119975 0)
(0.00013818 -0.0117299 0)
(0.000128847 -0.0114705 0)
(7.15749e-05 -0.0115178 0)
(8.50051e-05 -0.0131865 0)
(-1.43811e-05 -0.011458 0)
(0.00012187 -0.0103215 0)
(0.00227243 -0.0132285 0)
(0.000616751 -0.013095 0)
(-0.00132129 -0.0132401 0)
(-0.001827 -0.0129369 0)
(-0.00278986 -0.0124161 0)
(-0.00344389 -0.0120057 0)
(-0.00170283 -0.00919722 0)
(-0.000562389 -0.00944027 0)
(0.00156754 -0.0103312 0)
(0.000676827 -0.00989694 0)
(-0.000556515 -0.0100694 0)
(0.00127263 -0.0113426 0)
(0.000325499 -0.0100638 0)
(0.00238639 -0.00896744 0)
(0.00241453 -0.00885815 0)
(0.00194548 -0.00953463 0)
(0.00218839 -0.00934708 0)
(0.00295204 -0.0110352 0)
(0.0024894 -0.0126264 0)
(0.00146178 -0.0148979 0)
(0.000473 -0.0130801 0)
(0.000781159 -0.0105271 0)
(-0.000993295 -0.0122026 0)
(-0.00395214 -0.00960953 0)
(-0.00240031 -0.00936469 0)
(-0.00151062 -0.0117748 0)
(-0.00147705 -0.0122751 0)
(0.0003433 -0.0113322 0)
(0.000153135 -0.011937 0)
(-0.000219329 -0.0109895 0)
(0.00305773 -0.0107814 0)
(0.00142957 -0.0131852 0)
(0.00125474 -0.0115601 0)
(0.000100481 -0.0110264 0)
(-0.00103297 -0.0114474 0)
(-0.00368198 -0.00943197 0)
(-0.00217197 -0.0105415 0)
(-0.0024779 -0.01253 0)
(-0.00277734 -0.011764 0)
(-0.00232845 -0.00967891 0)
(-0.00162412 -0.00852471 0)
(-0.000942857 -0.0074869 0)
(0.0033424 -0.0056571 0)
(0.00240929 -0.00473244 0)
(0.00297412 -0.00487434 0)
(0.00374954 -0.00688997 0)
(0.00329083 -0.00776949 0)
(0.00244591 -0.00936216 0)
(0.00255572 -0.0108754 0)
(0.000827008 -0.0108241 0)
(0.000146263 -0.0106694 0)
(-0.000819549 -0.010494 0)
(-0.00151187 -0.0108285 0)
(-0.0022564 -0.0113294 0)
(-0.00278314 -0.0121937 0)
(-0.0029915 -0.0125391 0)
(-0.00277093 -0.0128232 0)
(-0.00226211 -0.0127444 0)
(-0.00113071 -0.0124787 0)
(0.000723843 -0.01196 0)
(0.00239059 -0.0118075 0)
(0.00290644 -0.0120641 0)
(0.00289568 -0.0122307 0)
(0.00228746 -0.0123111 0)
(0.00115808 -0.0121729 0)
(0.000701778 -0.0120322 0)
(0.000529468 -0.0119314 0)
(0.000392913 -0.011952 0)
(0.000215981 -0.0119266 0)
(7.56507e-05 -0.0116622 0)
(6.68376e-05 -0.0114164 0)
(3.42881e-06 -0.0115079 0)
(4.41509e-05 -0.0131962 0)
(-4.35777e-06 -0.0114734 0)
(-0.0033863 -0.00708174 0)
(-0.000612913 -0.00856056 0)
(4.98186e-05 -0.0125009 0)
(-0.000359364 -0.0123539 0)
(-0.00147235 -0.0131755 0)
(-0.00151775 -0.0139203 0)
(-0.000728659 -0.0139001 0)
(-0.00259152 -0.0135514 0)
(-0.000279448 -0.0137265 0)
(0.00305517 -0.0136301 0)
(0.00112031 -0.0144188 0)
(9.03252e-05 -0.0132665 0)
(0.000197061 -0.0145418 0)
(0.000485647 -0.0153003 0)
(0.000605176 -0.0132591 0)
(0.000986147 -0.013481 0)
(0.000610907 -0.0128019 0)
(0.000945796 -0.00933367 0)
(0.00373774 -0.00836868 0)
(0.00331382 -0.0104063 0)
(0.000768978 -0.00953662 0)
(0.00146418 -0.00757804 0)
(-0.00117612 -0.00478583 0)
(0.000586062 -0.00646395 0)
(-0.000251138 -0.00852918 0)
(-0.00296129 -0.0106473 0)
(-0.00404063 -0.0126303 0)
(-0.00174809 -0.0115179 0)
(-0.000846347 -0.011955 0)
(2.51292e-05 -0.0128439 0)
(0.00162886 -0.0074403 0)
(0.000490608 -0.00862403 0)
(0.00103243 -0.0117075 0)
(0.00169759 -0.0108476 0)
(0.000352614 -0.0109751 0)
(0.000510175 -0.012376 0)
(-0.000352518 -0.00940471 0)