/*--------------------------------*- C++ -*----------------------------------*\
  =========                 |
  \\      /  F ield         | OpenFOAM: The Open Source CFD Toolbox
   \\    /   O peration     | Website:  https://openfoam.org
    \\  /    A nd           | Version:  12
     \\/     M anipulation  |
\*---------------------------------------------------------------------------*/
FoamFile
{
    format      ascii;
    class       IOPosition;
    location    "0.2/lagrangian/cloud";
    object      positions;
}
// * * * * * * * * * * * * * * * * * * * * * * * * * * * * * * * * * * * * * //

3280
(
(0.0332223 0.483389 0.171539 0.31185) 0 0 1
(0.119813 0.440094 0.337242 0.102851) 3 4 1
(0.0767008 0.301516 0.160133 0.46165) 4 6 2
(0.400337 0.166252 0.299831 0.133579) 4 8 2
(0.605997 0.0201152 0.197001 0.176886) 5 7380 2
(0.47166 0.26417 0.0617884 0.202382) 6 7381 1
(0.4287 0.28565 0.183225 0.102426) 7 7382 1
(0.605803 0.197099 0.143633 0.0534653) 8 7383 1
(0.810493 0.0947537 0.0112044 0.0835494) 9 7384 1
(0.389146 0.150849 0.154578 0.305427) 11 20 2
(0.353125 0.323438 0.241299 0.0821388) 12 25 2
(0.321526 0.339237 0.144658 0.194579) 13 27 2
(0.270676 0.0166593 0.348003 0.364662) 14 26 2
(0.0338293 0.162824 0.483085 0.320262) 14 28 2
(0.163603 0.0877693 0.418199 0.330429) 15 30 2
(0.396211 0.0734553 0.228439 0.301895) 16 33 1
(0.543189 0.228405 0.150211 0.0781942) 17 7392 1
(0.235292 0.382354 0.119642 0.262712) 18 34 1
(0.199636 0.400182 0.0810809 0.319101) 19 36 1
(0.691607 0.154196 0.0682575 0.085939) 20 41 2
(0.343033 0.309319 0.019165 0.328484) 21 43 1
(0.332337 0.333832 0.146951 0.186881) 22 45 2
(0.199528 0.0764095 0.323826 0.400236) 23 44 2
(0.329871 0.074166 0.335065 0.260899) 23 46 2
(0.81421 0.0384776 0.092895 0.0544173) 24 48 2
(0.474524 0.262738 0.00817778 0.25456) 25 7400 1
(0.443777 0.269004 0.278111 0.0091074) 26 7401 2
(0.435859 0.228954 0.28207 0.0531166) 27 7402 2
(0.45352 0.27324 0.154967 0.118273) 28 56 1
(0.2064 0.272336 0.3968 0.124464) 29 58 2
(0.00208326 0.359691 0.498958 0.139267) 30 60 2
(0.386184 0.306908 0.104696 0.202212) 32 65 2
(0.295108 0.0307132 0.321733 0.352446) 33 64 2
(0.140195 0.0858973 0.429902 0.344005) 33 66 2
(0.262659 0.158489 0.210181 0.368671) 34 69 1
(0.252433 0.373784 0.350776 0.023008) 35 71 2
(0.306854 0.346573 0.0962208 0.250352) 36 73 2
(0.0753798 0.46231 0.442391 0.0199193) 37 72 1
(0.0453248 0.477338 0.118474 0.358864) 37 74 1
(0.19892 0.40054 0.253006 0.147534) 39 76 1
(0.617555 0.191223 0.00756118 0.183661) 40 78 1
(0.374754 0.312623 0.215244 0.0973788) 41 82 1
(0.405373 0.297314 0.182131 0.115183) 43 84 1
(0.583995 0.208003 0.0980735 0.109929) 44 89 2
(0.566162 0.216919 0.0335726 0.183347) 45 91 2
(0.213495 0.366003 0.0272488 0.393252) 46 90 2
(0.18336 0.40832 0.148096 0.260224) 46 92 1
(0.086191 0.456905 0.279634 0.17727) 47 94 1
(0.468716 0.265642 0.00267808 0.262964) 49 96 1
(0.624044 0.0807671 0.187978 0.107211) 50 7425 2
(0.603928 0.104078 0.198036 0.0939578) 51 102 2
(0.864209 0.0321588 0.0678953 0.0357366) 52 104 2
(0.181343 0.409329 0.0821898 0.327139) 53 106 1
(0.266826 0.29773 0.0688569 0.366587) 54 109 1
(0.44341 0.278295 0.119518 0.158777) 55 111 2
(0.268698 0.2075 0.158151 0.365651) 56 110 2
(0.0893061 0.455347 0.0457804 0.409567) 56 112 1
(0.509206 0.0233062 0.245397 0.222091) 57 114 2
(0.482251 0.153203 0.105672 0.258875) 58 117 1
(0.417373 0.0659871 0.291314 0.225327) 59 118 2
(0.183983 0.208681 0.408008 0.199327) 60 120 2
(0.478033 0.260983 0.00179141 0.259192) 62 125 2
(0.37797 0.279082 0.0319332 0.311015) 63 124 2
(0.439809 0.280095 0.00777049 0.272325) 64 126 1
(0.393038 0.303481 0.176533 0.126948) 65 7440 1
(0.406898 0.296551 0.255217 0.041334) 66 132 1
(0.826429 0.0621032 0.0246821 0.0867853) 68 134 2
(0.467385 0.132972 0.133336 0.266308) 69 136 2
(0.0225245 0.488738 0.15555 0.333188) 75 15076 2
(0.323467 0.338267 0.269163 0.0691037) 75 149 1
(0.800999 0.0995005 0.0944471 0.00505337) 76 152 2
(0.410286 0.294857 0.261308 0.0335494) 77 154 2
(0.390703 0.219678 0.0849705 0.304648) 78 156 1
(0.352575 0.323713 0.222375 0.101337) 79 158 2
(0.576518 0.107316 0.104425 0.211741) 80 157 2
(0.485404 0.257298 0.148375 0.108923) 81 13 2
(0.290433 0.202953 0.354784 0.151831) 82 15 1
(0.32945 0.035182 0.335275 0.300093) 83 17 1
(0.847773 0.0761133 0.0199519 0.0561614) 84 167 1
(0.816982 0.0707836 0.0207252 0.0915089) 85 170 1
(0.433768 0.00241409 0.283116 0.280702) 86 171 2
(0.445551 0.063694 0.21353 0.277224) 87 174 1
(0.273018 0.348606 0.0148851 0.363491) 88 176 1
(0.308264 0.305231 0.0406373 0.345868) 89 178 1
(0.099016 0.166948 0.450492 0.283543) 90 179 2
(0.339532 0.30725 0.0229838 0.330234) 92 181 2
(0.112406 0.443797 0.0416377 0.402159) 92 183 1
(0.165401 0.39951 0.0177893 0.4173) 93 186 1
(0.144847 0.427576 0.0757344 0.351842) 94 188 2
(0.0469154 0.0818975 0.476542 0.394645) 94 187 2
(0.189628 0.0146704 0.405186 0.390516) 95 189 2
(0.049291 0.142606 0.475355 0.332749) 96 191 2
(0.746542 0.126729 0.0563822 0.0703466) 98 195 1
(0.53105 0.199698 0.234475 0.0347772) 99 49 1
(0.362618 0.30182 0.318691 0.0168715) 100 51 1
(0.412523 0.0418891 0.293738 0.251849) 101 53 1
(0.338438 0.142067 0.330781 0.188714) 102 55 1
(0.808023 0.0959885 0.0350239 0.0609646) 103 203 1
(0.0287506 0.255893 0.229732 0.485625) 104 205 2
(0.426618 0.00668908 0.280002 0.286691) 104 208 1
(0.422541 0.243075 0.0456546 0.288729) 105 210 1
(0.293375 0.31995 0.0333628 0.353312) 106 212 1
(0.272215 0.226343 0.13755 0.363893) 107 214 1
(0.22396 0.239584 0.148436 0.38802) 108 216 1
(0.367939 0.0984865 0.217544 0.31603) 109 218 1
(0.664143 0.167928 0.0758136 0.0921147) 111 219 1
(0.416582 0.291709 0.0436266 0.248082) 112 221 1
(0.301166 0.349417 0.286531 0.062886) 113 77 2
(0.243519 0.37824 0.0972198 0.281021) 114 79 2
(0.127425 0.331328 0.436287 0.104959) 115 81 1
(0.289839 0.163157 0.35508 0.191923) 116 83 1
(0.676103 0.161949 0.0135597 0.148389) 117 234 2
(0.469791 0.00685596 0.258249 0.265105) 118 233 2
(0.486337 0.256832 0.235777 0.0210543) 119 238 2
(0.161911 0.419044 0.124082 0.294963) 120 239 1
(0.434958 0.0165864 0.282521 0.265935) 121 93 1
(0.352525 0.261836 0.323738 0.0619013) 122 95 1
(0.287172 0.0670421 0.356414 0.289372) 122 243 2
(0.256793 0.371604 0.292189 0.0794143) 123 246 2
(0.201968 0.0608082 0.338208 0.399016) 124 245 2
(0.566845 0.0207572 0.19582 0.216578) 125 247 2
(0.148527 0.124727 0.301009 0.425736) 126 249 2
(0.272976 0.0344275 0.363512 0.329084) 126 251 2
(0.318345 0.023298 0.317529 0.340827) 127 254 1
(0.753879 0.123061 0.0334971 0.0895635) 129 258 2
(0.882275 0.0588627 0.00846797 0.0503947) 130 111 2
(0.794406 0.102797 0.019023 0.0837738) 131 259 1
(0.492608 0.0959992 0.253696 0.157697) 132 115 1
(0.04004 0.47998 0.146085 0.333895) 134 265 1
(0.330144 0.334928 0.120644 0.214283) 135 121 2
(0.431474 0.270319 0.284263 0.0139445) 136 123 1
(0.376962 0.151333 0.311519 0.160186) 137 125 1
(0.410916 0.294542 0.232558 0.0619841) 138 127 2
(0.533919 0.233041 0.168909 0.0641319) 138 275 1
(0.342656 0.15807 0.170602 0.328672) 139 275 2
(0.139964 0.253952 0.176066 0.430018) 140 277 2
(0.24049 0.234725 0.379755 0.14503) 150 298 2
(0.322798 0.0400893 0.298512 0.338601) 151 301 1
(0.229298 0.185923 0.199428 0.385351) 152 303 1
(0.271512 0.20048 0.163764 0.364244) 153 305 1
(0.514543 0.17606 0.0666679 0.242728) 154 307 1
(0.579564 0.203276 0.210218 0.00694249) 155 160 1
(0.33455 0.332725 0.076467 0.256258) 156 162 2
(0.293944 0.353028 0.112973 0.240055) 157 164 2
(0.460495 0.269753 0.189169 0.0805834) 158 166 2
(0.371652 0.0587154 0.255458 0.314174) 159 314 2
(0.655921 0.0913864 0.0806534 0.17204) 160 316 2
(0.332168 0.190876 0.14304 0.333916) 161 318 2
(0.0464276 0.382564 0.0942223 0.476786) 162 320 2
(0.551482 0.224259 0.0458896 0.17837) 163 325 2
(0.666277 0.116031 0.0508302 0.166861) 164 327 1
(0.560937 0.219531 0.212626 0.00690577) 165 329 2
(0.256557 0.371722 0.314475 0.057247) 166 331 2
(0.123528 0.438236 0.367873 0.070363) 167 333 2
(0.102732 0.448634 0.376046 0.0725876) 168 335 2
(0.196065 0.401967 0.247415 0.154553) 169 337 2
(0.140281 0.429859 0.168436 0.261424) 170 339 2
(0.302564 0.348718 0.20386 0.144858) 171 341 2
(0.704381 0.0232504 0.14781 0.124559) 172 194 1
(0.429412 0.219205 0.285294 0.0660886) 173 196 1
(0.328979 0.335511 0.0260655 0.309445) 174 198 2
(0.278304 0.274247 0.0866004 0.360848) 175 346 2
(0.0664415 0.216216 0.250563 0.466779) 176 348 2
(0.237368 0.0439097 0.337406 0.381316) 177 350 2
(0.667094 0.166453 0.0380725 0.12838) 178 355 2
(0.618338 0.190831 0.0665771 0.124254) 179 357 2
(0.74617 0.126915 0.0566941 0.0702209) 180 359 2
(0.640706 0.179647 0.0837662 0.0958807) 181 361 2
(0.33479 0.295517 0.0370882 0.332605) 182 363 1
(0.364014 0.145522 0.172471 0.317993) 183 365 1
(0.52184 0.23908 0.0569828 0.182097) 184 366 1
(0.402186 0.031505 0.298907 0.267402) 185 220 1
(0.393684 0.303158 0.29224 0.0109175) 186 370 1
(0.238573 0.0404457 0.380713 0.340268) 187 224 1
(0.132926 0.433537 0.399163 0.0343737) 188 374 1
(0.121978 0.000993064 0.439011 0.438018) 189 228 1
(0.372365 0.0031215 0.313817 0.310696) 190 230 1
(0.276549 0.317197 0.0445282 0.361725) 191 381 1
(0.397733 0.301134 0.184325 0.116808) 192 383 2
(0.286554 0.0462495 0.310473 0.356723) 193 382 2
(0.258925 0.0390576 0.370537 0.33148) 193 384 2
(0.289175 0.109915 0.245497 0.355412) 194 387 1
(0.248712 0.24677 0.128874 0.375644) 195 389 1
(0.237352 0.271368 0.109956 0.381324) 196 391 1
(0.427249 0.172457 0.113918 0.286375) 197 393 1
(0.573397 0.0101453 0.203156 0.213302) 198 395 1
(0.0834159 0.403982 0.458292 0.0543103) 199 396 2
(0.331827 0.201063 0.334087 0.133024) 200 398 2
(0.29155 0.200263 0.354225 0.153962) 201 400 2
(0.405701 0.164865 0.132284 0.29715) 203 402 2
(0.700643 0.149678 0.0772885 0.0723899) 204 407 2
(0.288426 0.337754 0.0180336 0.355787) 205 409 1
(0.770486 0.114757 0.0788914 0.0358655) 206 411 2
(0.474527 0.262737 0.201028 0.0617082) 207 264 2
(0.229628 0.385186 0.078481 0.306705) 208 412 1
(0.181852 0.409074 0.344299 0.0647747) 208 414 1
(0.483 0.0919538 0.2585 0.166546) 209 268 1
(0.346032 0.326984 0.0893872 0.237597) 210 419 2
(0.268728 0.116909 0.365636 0.248726) 210 418 2
(0.52806 0.0174157 0.23597 0.218554) 211 272 1
(0.473767 0.263116 0.258606 0.00451072) 212 422 1
(0.193021 0.403489 0.197582 0.205908) 214 424 1
(0.627043 0.0457272 0.186479 0.140751) 225 299 1
(0.182593 0.408703 0.135945 0.272758) 226 450 2
(0.156824 0.0547139 0.366874 0.421588) 227 449 2
(0.186834 0.047036 0.359547 0.406583) 228 451 2
(0.400378 0.299811 0.0395715 0.260239) 229 456 2
(0.70494 0.14753 0.0728742 0.0746559) 230 455 1
(0.483251 0.258375 0.0475913 0.210783) 231 457 1
(0.211426 0.394287 0.0577587 0.336528) 232 459 1
(0.0312598 0.48437 0.325157 0.159213) 232 461 1
(0.25677 0.240833 0.130782 0.371615) 233 464 1
(0.379866 0.310067 0.171992 0.138075) 234 466 2
(0.472379 0.261333 0.00247764 0.263811) 235 465 2
(0.564158 0.180586 0.217921 0.0373352) 236 321 1
(0.592033 0.203984 0.100912 0.103071) 237 323 2
(0.216056 0.391972 0.103888 0.288084) 238 473 1
(0.059816 0.470092 0.402377 0.0677151) 240 475 1
(0.284507 0.233613 0.124134 0.357747) 240 478 1
(0.264664 0.367668 0.241323 0.126345) 241 480 2
(0.204941 0.39753 0.296144 0.101386) 242 482 2
(0.182747 0.277903 0.130723 0.408626) 243 484 1
(0.120155 0.378866 0.0610571 0.439923) 244 486 1
(0.319498 0.2182 0.122051 0.340251) 245 488 1
(0.513277 0.0134285 0.243362 0.229933) 246 489 2
(0.559909 0.0110573 0.220046 0.208988) 247 343 1
(0.34966 0.19204 0.32517 0.13313) 248 345 1
(0.562477 0.218762 0.209434 0.00932772) 249 495 1
(0.522476 0.0591048 0.238762 0.179657) 250 497 2
(0.290238 0.144106 0.354881 0.210775) 251 499 2
(0.399342 0.300329 0.21713 0.0831992) 253 501 1
(0.685781 0.15711 0.128529 0.028581) 254 503 1
(0.619244 0.190378 0.129491 0.0608873) 255 505 1
(0.726025 0.136988 0.0822983 0.0546895) 256 507 1
(0.798762 0.0984867 0.00213217 0.100619) 257 512 1
(0.567995 0.0533701 0.216003 0.162632) 258 513 2
(0.448574 0.275713 0.186548 0.0891653) 259 515 1
(0.35998 0.32001 0.263367 0.0566432) 260 517 1
(0.410288 0.0291381 0.294856 0.265718) 261 371 1
(0.284601 0.143783 0.3577 0.213916) 262 373 1
(0.303041 0.280688 0.348479 0.067791) 263 375 1
(0.533299 0.233351 0.183438 0.0499125) 264 377 2
(0.0601147 0.262387 0.469943 0.207555) 264 525 2
(0.31377 0.00492594 0.343115 0.338189) 265 527 2
(0.301809 0.0890795 0.260016 0.349095) 266 530 1
(0.324161 0.118648 0.219272 0.337919) 267 532 1
(0.348232 0.0556812 0.270203 0.325884) 268 534 1
(0.446735 0.129365 0.147267 0.276633) 269 536 1
(0.464595 0.107889 0.159813 0.267702) 270 538 1
(0.211426 0.0143434 0.394287 0.379944) 271 539 2
(0.558997 0.162643 0.220502 0.0578585) 272 541 2
(0.652589 0.173706 0.0675656 0.10614) 273 543 1
(0.120556 0.326072 0.11365 0.439722) 275 545 2
(0.33118 0.33441 0.0555323 0.278878) 275 547 1
(0.385707 0.0296168 0.307146 0.277529) 276 401 1
(0.186049 0.406976 0.0814031 0.325573) 278 551 1
(0.0960442 0.451978 0.217669 0.234309) 279 553 1
(0.116683 0.209367 0.232291 0.441659) 280 555 2
(0.38581 0.307095 0.112224 0.194871) 281 560 2
(0.488712 0.255644 0.156367 0.0992772) 282 562 2
(0.172291 0.413854 0.180115 0.233739) 283 564 2
(0.021867 0.489066 0.0959328 0.393134) 284 566 2
(0.0269827 0.0943548 0.392154 0.486509) 284 566 1
(0.187883 0.369835 0.0362234 0.406059) 285 568 1
(0.541992 0.229004 0.225876 0.00312793) 286 421 2
(0.245906 0.377047 0.038831 0.338216) 287 569 1
(0.234718 0.382641 0.0124652 0.370176) 288 571 1
(0.291695 0.354153 0.338661 0.0154922) 289 427 2
(0.267777 0.0386226 0.327489 0.366112) 300 15079 1
(0.601531 0.199235 0.115222 0.0840123) 301 599 2
(0.462179 0.268911 0.133215 0.135696) 302 601 2
(0.361149 0.318065 0.00136011 0.319426) 303 603 1
(0.279243 0.293698 0.0666802 0.360378) 304 605 1
(0.380166 0.0883269 0.22159 0.309917) 305 607 1
(0.457338 0.271331 0.111183 0.160148) 306 608 1
(0.828461 0.0245759 0.0857697 0.0611938) 307 462 1
(0.191837 0.404081 0.130751 0.27333) 308 613 2
(0.170573 0.036215 0.378499 0.414714) 309 612 2
(0.133273 0.433364 0.209254 0.22411) 309 614 1
(0.270534 0.0608386 0.364733 0.303894) 310 468 1
(0.30268 0.0389241 0.34866 0.309736) 311 470 1
(0.416659 0.0427754 0.29167 0.248895) 312 472 1
(0.438346 0.133225 0.280827 0.147602) 313 622 2
(0.476766 0.133944 0.127673 0.261617) 314 625 1
(0.348668 0.159574 0.166092 0.325666) 315 627 1
(0.427237 0.286381 0.072673 0.213708) 317 631 2
(0.3882 0.3059 0.190454 0.115446) 318 633 2
(0.553643 0.101932 0.121247 0.223179) 319 635 1
(0.597143 0.0740632 0.201429 0.127366) 320 636 2
(0.0792369 0.460382 0.363927 0.0964543) 322 638 1
(0.70912 0.114922 0.0305178 0.14544) 323 640 2
(0.677417 0.122105 0.0391868 0.161292) 324 642 2
(0.165471 0.417265 0.341314 0.0759511) 325 644 1
(0.277223 0.361388 0.0642462 0.297142) 325 646 1
(0.137804 0.431098 0.259343 0.171755) 327 648 1
(0.226704 0.386648 0.0612896 0.325359) 328 650 1
(0.528203 0.235898 0.185032 0.0508664) 329 506 2
(0.416703 0.291649 0.140395 0.151254) 330 508 2
(0.412314 0.293843 0.0753928 0.21845) 331 510 2
(0.673238 0.0347907 0.163381 0.12859) 332 512 1
(0.329803 0.108415 0.226684 0.335099) 333 663 1
(0.36969 0.155989 0.159166 0.315155) 334 665 1
(0.401623 0.216584 0.0826049 0.299189) 335 667 1
(0.447834 0.257047 0.0190354 0.276083) 336 669 1
(0.351383 0.324309 0.100378 0.223931) 337 671 2
(0.104653 0.0725111 0.375163 0.447674) 338 670 2
(0.260874 0.139905 0.369563 0.229658) 338 672 2
(0.498392 0.0884975 0.250804 0.162307) 339 674 2
(0.494836 0.0854536 0.252582 0.167129) 340 676 2
(0.222692 0.284802 0.388654 0.103852) 341 678 2
(0.239252 0.380374 0.291171 0.0892034) 343 680 1
(0.695044 0.152478 0.140377 0.0121009) 344 685 2
(0.351905 0.00888083 0.324047 0.315166) 345 686 2
(0.280023 0.0212551 0.359988 0.338733) 346 688 2
(0.370984 0.0442152 0.314508 0.270293) 347 690 2
(0.698693 0.150654 0.041564 0.10909) 348 692 1
(0.864096 0.0679521 0.0261382 0.0418139) 349 695 2
(0.257019 0.37149 0.293301 0.0781893) 350 697 2
(0.419387 0.290307 0.217951 0.0723555) 351 699 2
(0.3448 0.3276 0.260852 0.0667479) 352 552 2
(0.124177 0.437911 0.0920409 0.34587) 353 700 1
(0.0284962 0.485752 0.344394 0.141357) 353 702 1
(0.119013 0.330691 0.440493 0.109803) 354 704 2
(0.222986 0.150639 0.388507 0.237868) 355 706 2
(0.109494 0.089493 0.445253 0.35576) 356 708 2
(0.0277217 0.0869157 0.399223 0.486139) 358 710 2
(0.23106 0.38447 0.350663 0.0338073) 434 715 2
(0.04003 0.479985 0.0958977 0.384087) 435 863 1
(0.144281 0.172587 0.255272 0.42786) 360 717 1
(0.437298 0.253533 0.281351 0.0278184) 361 570 1
(0.38356 0.30822 0.110421 0.197799) 362 572 2
(0.452586 0.273707 0.00121901 0.272488) 363 720 1
(0.237352 0.381324 0.293175 0.0881496) 364 576 2
(0.192497 0.333298 0.0704533 0.403751) 375 15080 1
(0.50382 0.24809 0.140067 0.108023) 376 745 1
(0.735783 0.132109 0.105348 0.026761) 377 747 1
(0.768083 0.0180639 0.0978945 0.115958) 378 752 1
(0.425229 0.123184 0.164202 0.287386) 379 754 1
(0.240335 0.132531 0.247301 0.379832) 380 756 1
(0.211289 0.106763 0.287592 0.394356) 381 758 1
(0.183186 0.140346 0.268061 0.408407) 382 760 1
(0.224678 0.225849 0.161812 0.387661) 383 762 1
(0.183484 0.305346 0.102912 0.408258) 384 764 1
(0.560651 0.0526645 0.16701 0.219674) 385 766 1
(0.369661 0.31517 0.0989523 0.216217) 386 619 2
(0.392219 0.30389 0.00796803 0.295922) 387 767 1
(0.648279 0.0894027 0.0864577 0.17586) 388 769 2
(0.305894 0.215932 0.131121 0.347053) 389 771 2
(0.126949 0.436525 0.0756748 0.360851) 389 773 1
(0.384317 0.307842 0.2108 0.0970415) 391 775 1
(0.750309 0.124846 0.046837 0.0780086) 392 777 1
(0.182176 0.408912 0.187767 0.221145) 393 781 1
(0.211823 0.394089 0.206083 0.188005) 395 783 1
(0.463321 0.26834 0.0885656 0.179774) 396 639 2
(0.444166 0.277917 0.188746 0.0891707) 397 641 2
(0.537519 0.231241 0.17803 0.0532101) 398 643 2
(0.516478 0.241761 0.0505745 0.191187) 399 645 2
(0.58804 0.20598 0.0148031 0.191177) 400 647 2
(0.306863 0.326813 0.346569 0.019756) 401 649 1
(0.26924 0.335733 0.36538 0.0296466) 402 651 1
(0.432877 0.283561 0.0878561 0.195705) 403 653 2
(0.454399 0.272801 0.219752 0.053049) 404 655 2
(0.251561 0.374219 0.144631 0.229589) 405 657 2
(0.203564 0.398218 0.0168354 0.381383) 406 659 2
(0.299499 0.327243 0.350251 0.0230071) 407 661 1
(0.249631 0.375184 0.329419 0.0457654) 408 812 2
(0.272453 0.363774 0.235896 0.127878) 409 814 2
(0.244888 0.377556 0.0799379 0.297618) 410 816 2
(0.0998967 0.0484305 0.401621 0.450052) 411 815 2
(0.0404632 0.109805 0.369964 0.479768) 412 817 2
(0.0473704 0.117772 0.358543 0.476315) 413 819 2
(0.310249 0.197377 0.344876 0.147499) 413 821 2
(0.556973 0.221513 0.0172679 0.204246) 414 823 1
(0.566039 0.216981 0.0838022 0.133178) 415 825 1
(0.0399392 0.48003 0.229449 0.250582) 417 827 1
(0.0717447 0.464128 0.313684 0.150444) 417 829 1
(0.490859 0.25457 0.110647 0.143923) 418 831 1
(0.317275 0.297985 0.341363 0.0433775) 419 833 2
(0.294134 0.1828 0.170133 0.352933) 421 835 2
(0.504997 0.247501 0.068606 0.178895) 422 840 2
(0.353486 0.323257 0.00280889 0.320448) 423 842 2
(0.336803 0.00507202 0.326526 0.331598) 424 841 2
(0.219684 0.390158 0.0600592 0.330099) 425 846 2
(0.204337 0.397832 0.0674361 0.330395) 426 848 2
(0.244761 0.377619 0.0626725 0.314947) 427 850 2
(0.133888 0.403841 0.0292146 0.433056) 428 849 2
(0.183592 0.408204 0.325778 0.0824265) 428 851 1
(0.405113 0.297444 0.28326 0.0141833) 429 853 1
(0.166017 0.416991 0.0788667 0.338125) 430 855 1
(0.0433632 0.153737 0.478318 0.324581) 431 857 2
(0.0135222 0.117722 0.493239 0.375517) 432 859 2
(0.0458203 0.47709 0.0940207 0.383069) 434 864 2
(0.0224462 0.488777 0.160806 0.327971) 435 866 2
(0.174259 0.412871 0.0263227 0.386548) 436 868 2
(0.0139523 0.0231309 0.493024 0.469893) 436 867 2
(0.0914763 0.151326 0.302936 0.454262) 437 870 1
(0.292818 0.276699 0.0768921 0.353591) 438 872 1
(0.334098 0.332951 0.169855 0.163095) 439 725 2
(0.653419 0.140476 0.173291 0.0328145) 450 746 1
(0.899779 0.0204336 0.0501106 0.029677) 451 748 1
(0.591591 0.116472 0.0877322 0.204205) 452 899 1
(0.792243 0.0481638 0.103878 0.0557145) 453 752 1
(0.600682 0.0929823 0.199659 0.106677) 454 902 2
(0.253192 0.165814 0.20759 0.373404) 455 905 1
(0.193508 0.169343 0.233903 0.403246) 456 907 1
(0.174908 0.138665 0.273881 0.412546) 457 909 1
(0.135048 0.0259489 0.432476 0.406527) 458 910 2
(0.0710006 0.0562059 0.408294 0.4645) 460 912 2
(0.406379 0.288279 0.00853114 0.29681) 461 914 2
(0.526091 0.236955 0.229917 0.00703823) 462 770 2
(0.310142 0.344929 0.222932 0.121997) 463 918 1
(0.0566241 0.459329 0.471688 0.0123592) 463 920 2
(0.423438 0.288281 0.179506 0.108775) 465 922 1
(0.211555 0.394223 0.174833 0.219389) 466 924 1
(0.257524 0.371238 0.100494 0.270744) 467 926 1
(0.283446 0.358277 0.330144 0.0281328) 468 782 2
(0.241145 0.379427 0.302504 0.076923) 469 784 2
(0.21288 0.39356 0.231169 0.162391) 470 786 2
(0.249713 0.375143 0.0336882 0.341455) 471 788 2
(0.651388 0.174306 0.0297542 0.144552) 472 938 1
(0.464166 0.267917 0.123331 0.144586) 473 940 1
(0.410253 0.294873 0.225248 0.0696252) 474 942 1
(0.432894 0.139411 0.283553 0.144142) 475 796 1
(0.350843 0.324579 0.0557324 0.268846) 476 798 2
(0.405274 0.297363 0.286332 0.011031) 477 800 2
(0.0457076 0.477146 0.358327 0.118819) 477 948 1
(0.0373423 0.481329 0.380131 0.101198) 478 950 1
(0.162762 0.418619 0.408897 0.00972252) 480 806 2
(0.0226257 0.488687 0.182346 0.306341) 481 954 1
(0.443001 0.2785 0.0291303 0.249369) 481 956 1
(0.285718 0.00774723 0.357141 0.349394) 482 958 2
(0.195034 0.00148615 0.400997 0.402483) 483 961 1
(0.146242 0.08564 0.341239 0.426879) 484 963 1
(0.15654 0.00825822 0.413472 0.42173) 485 965 1
(0.00100532 0.0900351 0.499497 0.409462) 486 966 2
(0.0703714 0.0868002 0.378014 0.464814) 488 968 2
(0.217311 0.104014 0.391345 0.28733) 488 970 2
(0.521596 0.239202 0.00718682 0.232015) 489 972 1
(0.433605 0.283198 0.114682 0.168516) 490 974 1
(0.62971 0.164433 0.185145 0.0207118) 491 976 2
(0.924334 0.0378332 0.0299063 0.00792693) 492 978 1
(0.396451 0.301775 0.0133682 0.288407) 493 832 2
(0.428268 0.155916 0.285866 0.129951) 494 834 1
(0.167318 0.416341 0.202421 0.21392) 495 984 1
(0.0933324 0.453334 0.114102 0.339231) 496 986 1
(0.293538 0.0774216 0.353231 0.275809) 497 988 2
(0.332352 0.0280914 0.333824 0.305733) 498 990 2
(0.29839 0.0623853 0.28842 0.350805) 499 993 1
(0.13793 0.0379405 0.431035 0.393095) 500 994 2
(0.155212 0.422394 0.0933992 0.328995) 502 999 2
(0.357815 0.0537472 0.267345 0.321093) 503 998 2
(0.0137463 0.493127 0.15535 0.337777) 504 1000 1
(0.271538 0.364231 0.32123 0.0430003) 504 1002 1
(0.585118 0.0357944 0.207441 0.171646) 505 856 1
(0.207869 0.396066 0.290964 0.105101) 506 1007 2
(0.239669 0.380165 0.14615 0.234015) 507 1009 2
(0.166954 0.416523 0.208498 0.208025) 508 1011 2
(0.0743792 0.443532 0.0192787 0.46281) 509 1013 1
(0.0549846 0.266742 0.205766 0.472508) 510 1015 1
(0.00327234 0.178894 0.31947 0.498364) 511 1017 1
(0.0478197 0.088914 0.387176 0.47609) 512 1019 1
(0.406185 0.296907 0.0200933 0.276814) 513 1020 1
(0.304295 0.138378 0.347853 0.209474) 514 874 1
(0.595087 0.0899195 0.202457 0.112537) 525 895 1
(0.561229 0.144839 0.219386 0.074547) 526 897 1
(0.645925 0.177038 0.0657225 0.111315) 527 1047 1
(0.607471 0.0711835 0.196264 0.125081) 528 901 1
(0.854135 0.00334377 0.0729323 0.0695886) 529 903 1
(0.391598 0.264852 0.0393493 0.304201) 530 1054 1
(0.244635 0.294982 0.0826999 0.377682) 531 1056 1
(0.281077 0.191229 0.168232 0.359462) 532 1058 1
(0.223996 0.116309 0.388002 0.271693) 533 1059 2
(0.419574 0.0546527 0.23556 0.290213) 535 1061 2
(0.309944 0.345028 0.156949 0.188079) 536 1063 1
(0.508784 0.245608 0.00477612 0.240832) 537 1065 1
(0.391282 0.304359 0.152572 0.151787) 538 1067 1
(0.464177 0.267911 0.068622 0.199289) 539 923 2
(0.529048 0.235476 0.188333 0.0471427) 540 925 2
(0.287748 0.356126 0.158552 0.197574) 541 1073 1
(0.0614234 0.469288 0.1142 0.355088) 542 1075 1
(0.0178135 0.491093 0.102712 0.388381) 543 1077 1
(0.180751 0.409625 0.36651 0.0431143) 544 933 2
(0.145726 0.427137 0.279762 0.147376) 545 935 2
(0.119295 0.440352 0.18684 0.253512) 546 937 2
(0.463046 0.268477 0.0711239 0.197353) 547 1085 1
(0.0212088 0.239303 0.250092 0.489396) 548 1087 2
(0.314231 0.00139133 0.342884 0.341493) 548 1089 2
(0.246263 0.113603 0.263266 0.376869) 549 1092 1
(0.166537 0.416731 0.337203 0.0795285) 551 1093 1
(0.169748 0.415126 0.100287 0.314839) 551 1095 1
(0.434045 0.128538 0.282977 0.154439) 552 949 1
(0.285985 0.357007 0.1327 0.224307) 553 951 2
(0.228684 0.385658 0.316904 0.0687544) 554 953 2
(0.115604 0.442198 0.0472188 0.394979) 555 1101 1
(0.0579312 0.471034 0.30321 0.167824) 556 1103 1
(0.521849 0.219314 0.239076 0.0197616) 556 1105 2
(0.486969 0.0611697 0.256515 0.195346) 557 1107 2
(0.289474 0.0792162 0.276047 0.355263) 559 1109 2
(0.303451 0.348275 0.0327655 0.315509) 560 1114 2
(0.236328 0.381836 0.275919 0.105917) 561 1116 2
(0.246949 0.287281 0.0892443 0.376525) 562 1118 1
(0.318066 0.196788 0.144179 0.340967) 563 1120 1
(0.189659 0.290597 0.114574 0.405171) 564 1122 1
(0.275087 0.139138 0.223318 0.362456) 565 1124 1
(0.610171 0.023576 0.171339 0.194915) 566 1126 1
(0.546472 0.214976 0.226764 0.0117886) 567 979 1
(0.280857 0.359571 0.151815 0.207757) 568 981 2
(0.249563 0.375219 0.210137 0.165082) 569 983 2
(0.390107 0.304947 0.0151357 0.289811) 570 1131 1
(0.196915 0.401543 0.200651 0.200891) 571 1133 1
(0.830012 0.0849941 0.0625377 0.0224564) 572 1138 2
(0.776294 0.0164247 0.0954284 0.111853) 573 1137 2
(0.685754 0.157123 0.0946451 0.062478) 574 1142 2
(0.61919 0.0379997 0.190405 0.152405) 575 1143 2
(0.286462 0.356769 0.195833 0.160936) 577 1148 2
(0.293921 0.35304 0.279576 0.0734642) 578 1150 2
(0.161976 0.419012 0.388604 0.0304085) 579 1152 2
(0.161636 0.419182 0.26547 0.153712) 580 1154 2
(0.121847 0.439077 0.000747524 0.438329) 581 1156 2
(0.123463 0.179195 0.259073 0.438268) 581 1156 1
(0.136409 0.431795 0.430848 0.000947723) 582 1158 2
(0.245878 0.377061 0.311209 0.0658523) 583 1160 2
(0.175187 0.297481 0.114925 0.412407) 584 1162 1
(0.245755 0.0191363 0.357986 0.377122) 585 1164 1
(0.344938 0.327531 0.0153172 0.312214) 587 1168 2
(0.660028 0.00817662 0.161809 0.169986) 588 1167 2
(0.28844 0.280487 0.35578 0.0752936) 589 1023 1
(0.335695 0.258454 0.332153 0.0736986) 590 1025 1
(0.596615 0.152297 0.0493956 0.201692) 601 1192 2
(0.300569 0.240862 0.108853 0.349715) 602 1194 2
(0.337988 0.331006 0.0563089 0.274697) 602 1196 1
(0.403391 0.0446814 0.298305 0.253623) 603 1050 1
(0.569198 0.0174418 0.215401 0.197959) 604 1052 1
(0.503187 0.0467953 0.248407 0.201611) 605 1202 2
(0.451655 0.102538 0.274173 0.171634) 606 1204 2
(0.43469 0.105788 0.282655 0.176867) 607 1206 2
(0.40914 0.29543 0.06734 0.22809) 608 1208 1
(0.35687 0.321565 0.129459 0.192105) 610 1210 1
(0.916133 0.0419335 0.00740947 0.034524) 611 1214 1
(0.367574 0.277443 0.0387707 0.316213) 612 1217 1
(0.529347 0.235326 0.0896816 0.145645) 613 1219 2
(0.346527 0.326737 0.0836707 0.243066) 614 1218 1
(0.0188478 0.369706 0.490576 0.12087) 614 1220 2
(0.180777 0.282642 0.409612 0.12697) 615 1222 2
(0.389565 0.305218 0.257046 0.0481716) 616 1224 1
(0.225869 0.0326749 0.387065 0.35439) 617 1078 1
(0.0426558 0.478672 0.411749 0.066923) 618 1228 1
(0.132533 0.433734 0.430647 0.00308713) 620 1084 2
(0.169781 0.41511 0.282705 0.132404) 620 1232 1
(0.678758 0.0790974 0.160621 0.0815235) 621 1234 2
(0.577932 0.211034 0.146574 0.0644598) 622 1237 2
(0.34773 0.326135 0.0733901 0.252745) 623 1239 2
(0.175545 0.0227263 0.389501 0.412228) 624 1238 2
(0.0327091 0.0943094 0.483645 0.389336) 624 1240 2
(0.0967425 0.0303796 0.451629 0.421249) 625 1242 2
(0.00289267 0.0943472 0.404206 0.498554) 627 1244 2
(0.250355 0.374822 0.275859 0.0989636) 628 1246 1
(0.0150794 0.49246 0.338442 0.154018) 628 1248 1
(0.357176 0.00725699 0.321412 0.314155) 629 1102 1
(0.5181 0.178208 0.24095 0.0627415) 630 1104 1
(0.607958 0.196021 0.181538 0.0144826) 631 1106 2
(0.203011 0.398495 0.195534 0.202961) 632 1254 1
(0.520434 0.239783 0.057342 0.182441) 633 1256 1
(0.698191 0.0775323 0.150904 0.0733721) 634 1260 2
(0.185635 0.261083 0.146099 0.407182) 636 1262 2
(0.668396 0.165802 0.0832385 0.0825634) 637 1267 2
(0.640204 0.111577 0.0683208 0.179898) 638 1269 1
(0.387743 0.201732 0.104396 0.306128) 639 1271 1
(0.153083 0.22553 0.197928 0.423459) 640 1273 1
(0.239828 0.1256 0.254487 0.380086) 641 1275 1
(0.4959 0.184739 0.25205 0.0673105) 642 1128 1
(0.294421 0.352789 0.13133 0.221459) 643 1130 2
(0.270863 0.364569 0.314388 0.0501807) 644 1132 2
(0.0651089 0.467446 0.111366 0.356079) 645 1280 1
(0.178384 0.410808 0.296612 0.114196) 645 1282 1
(0.424103 0.287949 0.174951 0.112998) 646 1284 1
(0.119302 0.440349 0.260978 0.179371) 648 1286 1
(0.477594 0.261203 0.0769143 0.184289) 649 1288 1
(0.672624 0.163688 0.0114556 0.152232) 650 1144 2
(0.824726 0.0701043 0.0175326 0.0876369) 651 1295 1
(0.418966 0.249876 0.0406416 0.290517) 652 1297 1
(0.209816 0.263629 0.131462 0.395092) 653 1299 1
(0.102303 0.204016 0.244833 0.448849) 654 1301 1
(0.095281 0.129967 0.322393 0.452359) 655 1303 1
(0.0854444 0.0832037 0.374074 0.457278) 656 1305 1
(0.136889 0.0135229 0.431555 0.418032) 657 1306 2
(0.287401 0.0436581 0.3563 0.312642) 658 1308 2
(0.0656707 0.146867 0.320298 0.467165) 660 1310 2
(0.0104129 0.263006 0.494794 0.231788) 660 1312 2
(0.298994 0.254852 0.0956505 0.350503) 662 1314 2
(0.530471 0.234765 0.120991 0.113774) 663 1316 1
(0.316339 0.341831 0.111302 0.230528) 664 1172 2
(0.242061 0.378969 0.0448923 0.334077) 665 1174 2
(0.276914 0.361543 0.140566 0.220977) 675 1193 2
(0.543301 0.22835 0.0333997 0.19495) 676 1341 1
(0.321115 0.339443 0.252788 0.086655) 677 1346 2
(0.406693 0.264398 0.0322558 0.296653) 678 1348 1
(0.640017 0.179991 0.0518426 0.128149) 679 1201 2
(0.341983 0.329009 0.253999 0.0750096) 680 1349 1
(0.223741 0.38813 0.0624526 0.325677) 680 1351 1
(0.324037 0.337982 0.108896 0.229086) 681 1353 1
(0.0530239 0.473488 0.373105 0.100383) 683 1355 1
(0.402897 0.298551 0.189122 0.109429) 684 1357 1
(0.316907 0.341547 0.251442 0.0901049) 685 1213 2
(0.406488 0.198081 0.0986754 0.296756) 686 1361 2
(0.131369 0.0818485 0.352467 0.434315) 687 1363 2