/*--------------------------------*- C++ -*----------------------------------*\
  =========                 |
  \\      /  F ield         | OpenFOAM: The Open Source CFD Toolbox
   \\    /   O peration     | Website:  https://openfoam.org
    \\  /    A nd           | Version:  12
     \\/     M anipulation  |
\*---------------------------------------------------------------------------*/
FoamFile
{
    format      ascii;
    class       vectorField;
    location    "0.2/lagrangian/cloud";
    object      U;
}
// * * * * * * * * * * * * * * * * * * * * * * * * * * * * * * * * * * * * * //


3280
(
(4.28744e-05 -0.0310758 0)
(0.000670208 -0.0306163 0)
(0.000942136 -0.028249 0)
(0.000364469 -0.026058 0)
(-0.000548692 -0.0279789 0)
(-9.59405e-06 -0.0279445 0)
(-0.0025194 -0.0274311 0)
(-0.00295182 -0.0271041 0)
(-0.00415813 -0.0260724 0)
(-0.000395863 -0.0292426 0)
(0.00177773 -0.0252979 0)
(-0.000354601 -0.0238014 0)
(5.61123e-05 -0.0235298 0)
(0.000865097 -0.0231812 0)
(-0.000411646 -0.0238263 0)
(0.00154558 -0.0201904 0)
(-0.000439093 -0.02759 0)
(0.00108123 -0.0287115 0)
(-0.000549096 -0.0304101 0)
(0.00212778 -0.0266036 0)
(0.00236987 -0.0301692 0)
(-8.36363e-05 -0.0305902 0)
(-0.000441294 -0.0313726 0)
(-0.00169647 -0.0285667 0)
(5.6674e-06 -0.0261664 0)
(-0.000904646 -0.0303964 0)
(-0.000883942 -0.0319412 0)
(-0.00128523 -0.0328538 0)
(0.0001434 -0.0357493 0)
(0.000818652 -0.0363847 0)
(-0.000265287 -0.0353176 0)
(0.000364508 -0.0319761 0)
(0.000494222 -0.031024 0)
(-0.000733274 -0.0288948 0)
(-4.07911e-05 -0.0290391 0)
(-0.000681634 -0.0310185 0)
(-0.00149431 -0.0333596 0)
(0.000776167 -0.0334189 0)
(-0.000451442 -0.0368656 0)
(0.000712998 -0.0365674 0)
(0.000444568 -0.0371815 0)
(-0.000478623 -0.0375339 0)
(-0.000620944 -0.032184 0)
(0.0030123 -0.0302458 0)
(0.00312212 -0.0287464 0)
(-0.000648994 -0.0291492 0)
(-0.00114704 -0.030726 0)
(-0.000301888 -0.0339805 0)
(-1.27557e-05 -0.0311554 0)
(-0.000232747 -0.0317946 0)
(0.00111251 -0.0323412 0)
(0.000248134 -0.0281906 0)
(-0.000635705 -0.0320903 0)
(0.000137765 -0.0298846 0)
(0.00130404 -0.0295642 0)
(-0.000696488 -0.0309233 0)
(-0.000322687 -0.0313044 0)
(0.0013292 -0.0282683 0)
(0.00375217 -0.0323748 0)
(0.00154155 -0.0368286 0)
(0.00029917 -0.0371343 0)
(0.00160177 -0.0337288 0)
(-0.00144818 -0.0316077 0)
(0.00064868 -0.0305412 0)
(0.00012871 -0.0304736 0)
(0.000282479 -0.032117 0)
(-0.000577397 -0.0283776 0)
(-0.00100741 -0.0281792 0)
(0.00118874 -0.0312248 0)
(0.00229406 -0.0311557 0)
(0.00190669 -0.0357005 0)
(0.00204768 -0.0409131 0)
(0.000365408 -0.0402492 0)
(0.000833486 -0.0399489 0)
(0.00203532 -0.0397721 0)
(-0.00034011 -0.0363315 0)
(9.11125e-05 -0.0364008 0)
(6.81591e-05 -0.0375393 0)
(-0.000426028 -0.0360206 0)
(0.00210779 -0.0389185 0)
(-0.00192526 -0.0418252 0)
(-0.00168706 -0.0387143 0)
(-0.00162774 -0.0393705 0)
(0.000702074 -0.0414614 0)
(0.0026759 -0.0393261 0)
(0.00200997 -0.0347966 0)
(0.00166864 -0.0328405 0)
(0.00107508 -0.0371321 0)
(0.000631912 -0.0404149 0)
(0.000248414 -0.040075 0)
(0.000504987 -0.0406644 0)
(0.0014216 -0.0434962 0)
(0.000293957 -0.0336147 0)
(-0.00341684 -0.0346852 0)
(-0.00252138 -0.0364356 0)
(-0.000140741 -0.0375787 0)
(0.000580195 -0.0365914 0)
(0.00016405 -0.0394389 0)
(0.00156319 -0.0399479 0)
(-0.000391208 -0.0382268 0)
(0.00179057 -0.0419302 0)
(0.000271035 -0.0459248 0)
(-0.000895861 -0.0468989 0)
(-0.000842519 -0.044643 0)
(0.0014394 -0.0448563 0)
(0.000407093 -0.0408958 0)
(-0.000668674 -0.0394702 0)
(0.000576309 -0.0387048 0)
(0.000583029 -0.0398699 0)
(0.000643135 -0.0392873 0)
(-0.000233998 -0.0381051 0)
(0.00323454 -0.0405348 0)
(0.00241733 -0.0445491 0)
(0.00017918 -0.0422088 0)
(-0.000756359 -0.0358966 0)
(-0.000876984 -0.032591 0)
(0.000235916 -0.033183 0)
(0.00105314 -0.0374803 0)
(0.00230822 -0.0437424 0)
(0.00273101 -0.0456847 0)
(0.00126173 -0.0516895 0)
(0.000888733 -0.0482393 0)
(-0.000774661 -0.0453539 0)
(0.000567309 -0.0487667 0)
(0.00111622 -0.0465168 0)
(-0.00279557 -0.0390711 0)
(-0.00201669 -0.0430124 0)
(0.00187768 -0.0418307 0)
(0.00227766 -0.0402286 0)
(0.00139373 -0.0411174 0)
(-0.00196705 -0.0422341 0)
(-0.00131958 -0.0402171 0)
(-0.00276584 -0.0367325 0)
(-0.00124979 -0.0393932 0)
(0.000593912 -0.0494005 0)
(0.00056722 -0.0498584 0)
(0.000328838 -0.0425788 0)
(0.00206491 -0.0424142 0)
(0.00134385 -0.0434171 0)
(0.00150535 -0.0441831 0)
(0.000544315 -0.0443514 0)
(0.000934381 -0.0438963 0)
(0.000391327 -0.0449556 0)
(0.000350015 -0.0463503 0)
(-0.000883323 -0.0466354 0)
(0.00282995 -0.0475127 0)
(0.0001103 -0.0487737 0)
(-0.00178832 -0.0485393 0)
(-0.00155899 -0.046271 0)
(-0.000306077 -0.0505696 0)
(0.000927961 -0.0486702 0)
(0.0013218 -0.049316 0)
(0.000400901 -0.0510064 0)
(-0.000837838 -0.0497464 0)
(-0.000270159 -0.0477263 0)
(-0.000306778 -0.0473957 0)
(0.000819899 -0.0480363 0)
(0.00299208 -0.0487646 0)
(-0.000107838 -0.0463291 0)
(-0.00036211 -0.0451671 0)
(-0.00106003 -0.0454991 0)
(0.000210382 -0.0506285 0)
(0.000960738 -0.0506218 0)
(0.00125696 -0.049852 0)
(0.000421029 -0.0468137 0)
(0.000807686 -0.0470859 0)
(0.00154188 -0.0450003 0)
(0.00356311 -0.0475166 0)
(0.00128778 -0.0479537 0)
(0.000180998 -0.0470442 0)
(3.95248e-05 -0.0450135 0)
(-0.00141257 -0.0458478 0)
(0.000621827 -0.0439113 0)
(0.0016011 -0.0463399 0)
(0.00060033 -0.0466175 0)
(0.000217712 -0.0426982 0)
(-0.000229578 -0.0405465 0)
(0.00142234 -0.0435026 0)
(0.000994993 -0.0465583 0)
(0.000832555 -0.0465679 0)
(-0.000836403 -0.0458893 0)
(0.000399649 -0.0494866 0)
(0.000488103 -0.0505735 0)
(0.0012579 -0.0516844 0)
(0.00332604 -0.0515078 0)
(0.00358418 -0.0517177 0)
(0.00160367 -0.0520015 0)
(0.00136267 -0.0490076 0)
(-0.000220179 -0.0496275 0)
(5.58749e-05 -0.0526731 0)
(0.00058829 -0.04909 0)
(-4.91658e-05 -0.0504355 0)
(0.00167104 -0.048472 0)
(0.00047961 -0.0488859 0)
(0.00131725 -0.0480827 0)
(0.0018167 -0.0441124 0)
(0.00112115 -0.0452006 0)
(0.00368514 -0.0464764 0)
(0.00151712 -0.0464602 0)
(-0.00240024 -0.0505134 0)
(-0.00225274 -0.0550381 0)
(-0.00276617 -0.0572879 0)
(-0.00156479 -0.043489 0)
(0.00021841 -0.0491306 0)
(0.00149686 -0.047814 0)
(0.00220744 -0.0492387 0)
(0.00306453 -0.0494375 0)
(-0.00212899 -0.0464914 0)
(0.000267514 -0.0479722 0)
(0.000607854 -0.0490224 0)
(0.00111606 -0.0474574 0)
(0.00260125 -0.0473645 0)
(-3.48005e-05 -0.050085 0)
(-0.000606092 -0.0505331 0)
(-0.00257446 -0.0512182 0)
(-0.0047953 -0.0520636 0)
(8.7578e-05 -0.0540317 0)
(-0.000482188 -0.0512702 0)
(0.00174385 -0.0521263 0)
(-0.00222502 -0.0551094 0)
(-0.00114798 -0.0557619 0)
(0.00150358 -0.0544331 0)
(0.00155787 -0.0541057 0)
(0.00271437 -0.0546182 0)
(0.00107017 -0.0506084 0)
(-0.00217308 -0.0508366 0)
(3.65145e-05 -0.0503712 0)
(8.6737e-05 -0.0497357 0)
(0.000124445 -0.0490101 0)
(0.00106386 -0.0518599 0)
(-0.00110037 -0.0511998 0)
(-0.00101028 -0.0488945 0)
(0.000539004 -0.0498523 0)
(4.05395e-06 -0.0501808 0)
(-0.00111921 -0.0471133 0)
(-0.00012648 -0.0463893 0)
(0.000908197 -0.0452672 0)
(6.22302e-05 -0.0450337 0)
(-0.000218985 -0.0447809 0)
(0.0013947 -0.0443775 0)
(0.000477008 -0.044459 0)
(-0.000910738 -0.0453733 0)
(0.00115907 -0.0442325 0)
(0.000542327 -0.0479223 0)
(0.000946841 -0.04934 0)
(-0.000173634 -0.0508146 0)
(0.0004622 -0.0506721 0)
(0.00106472 -0.0511516 0)
(0.0021174 -0.0519857 0)
(0.00175846 -0.0495131 0)
(0.00280467 -0.0491474 0)
(0.00269084 -0.047518 0)
(0.00131463 -0.0495532 0)
(0.000773088 -0.0475955 0)
(-9.01588e-05 -0.0495285 0)
(-0.00210273 -0.0505885 0)
(-0.00300593 -0.0492791 0)
(-0.000604355 -0.0504428 0)
(0.000369552 -0.0522909 0)
(0.00211794 -0.0511519 0)
(-0.000178827 -0.0497059 0)
(-0.000244612 -0.046684 0)
(0.00161899 -0.0438957 0)
(0.0011107 -0.043254 0)
(0.000673796 -0.0485073 0)
(-0.00033188 -0.0531421 0)
(-0.000166872 -0.0558657 0)
(-0.00202992 -0.0560847 0)
(-0.000783306 -0.0549286 0)
(0.000701304 -0.0543088 0)
(0.00202503 -0.056041 0)
(0.00157465 -0.0560155 0)
(0.00122831 -0.0547826 0)
(0.00170108 -0.0548754 0)
(0.00124494 -0.0482418 0)
(0.00153153 -0.0485952 0)
(-0.000163918 -0.0526324 0)
(0.000958304 -0.0520417 0)
(0.000984895 -0.0529413 0)
(-0.00123827 -0.0531263 0)
(-0.00218035 -0.0554512 0)
(-0.00246379 -0.0560858 0)
(-7.78434e-05 -0.0572578 0)
(0.00103304 -0.0575961 0)
(-0.00109858 -0.0583418 0)
(0.00189562 -0.0594824 0)
(0.00222102 -0.0586094 0)
(0.00211392 -0.055757 0)
(0.00230575 -0.0520335 0)
(-0.00057458 -0.050451 0)
(4.44249e-05 -0.052379 0)
(0.000581654 -0.0503051 0)
(0.000340123 -0.0495029 0)
(0.000610285 -0.0476728 0)
(0.000503477 -0.0495726 0)
(-0.00145678 -0.0503261 0)
(-0.00158068 -0.048993 0)
(-0.00207415 -0.0478956 0)
(-0.00287942 -0.0470722 0)
(-0.00214676 -0.0459962 0)
(0.00109417 -0.0478933 0)
(0.00114365 -0.0459027 0)
(0.00187167 -0.0467369 0)
(0.00268973 -0.0472495 0)
(0.00238554 -0.0475486 0)
(0.00172636 -0.046363 0)
(0.00277314 -0.0456851 0)
(0.00184929 -0.047693 0)
(0.00251722 -0.04893 0)
(0.00179057 -0.0517862 0)
(-0.000979986 -0.0503963 0)
(0.00050728 -0.0506018 0)
(0.000293755 -0.04919 0)
(0.000722048 -0.0468265 0)
(0.000111221 -0.0442092 0)
(0.00049946 -0.0438194 0)
(0.00466 -0.0425949 0)
(0.00250319 -0.0454127 0)
(0.00423548 -0.0449026 0)
(-0.00451672 -0.0475377 0)
(-0.0032548 -0.0477219 0)
(-0.00284336 -0.050039 0)
(0.000749363 -0.0502025 0)
(3.62959e-05 -0.0500988 0)
(-0.000124036 -0.0534978 0)
(-0.000829906 -0.0512782 0)
(0.0017093 -0.0468397 0)
(0.00372342 -0.0442472 0)
(0.00257671 -0.0465809 0)
(9.70163e-05 -0.0474472 0)
(-0.000356167 -0.0513438 0)
(-0.00145188 -0.0529173 0)
(-0.000308494 -0.0537294 0)
(0.000579279 -0.0554 0)
(-0.00102129 -0.0550942 0)
(0.00156094 -0.0566622 0)
(0.00147148 -0.0529056 0)
(0.00175121 -0.0538396 0)
(6.09409e-05 -0.0534393 0)
(0.00018283 -0.0517948 0)
(0.00034475 -0.0513192 0)
(-0.000175748 -0.0502296 0)
(-4.75461e-05 -0.0499045 0)
(0.00175127 -0.0506972 0)
(-0.00176173 -0.0537062 0)
(-0.00172112 -0.0548804 0)
(0.0009368 -0.0528586 0)
(-0.00024634 -0.0557055 0)
(-0.00120677 -0.0562059 0)
(-0.0023557 -0.057413 0)
(-0.000399517 -0.0596256 0)
(-0.000104645 -0.0578448 0)
(-0.00125114 -0.053743 0)
(-0.00237852 -0.0507609 0)
(-0.0019314 -0.0491609 0)
(-0.00109065 -0.0487592 0)
(-0.00149103 -0.0470048 0)
(-0.0021783 -0.0457477 0)
(-0.00102607 -0.0470292 0)
(-0.00184894 -0.0482255 0)
(-0.00391688 -0.0464492 0)
(-0.00352672 -0.0467676 0)
(-0.00238893 -0.0465322 0)
(-0.000925315 -0.0458213 0)
(-0.00104468 -0.04534 0)
(0.000382382 -0.0480333 0)
(-4.94244e-05 -0.047393 0)
(0.000287568 -0.0476905 0)
(0.000485937 -0.0483346 0)
(0.00250035 -0.0495854 0)
(0.00422481 -0.0488907 0)
(0.00471908 -0.0468373 0)
(0.00182017 -0.0457451 0)
(0.00168329 -0.0501537 0)
(0.0025377 -0.0511609 0)
(0.000419063 -0.051053 0)
(-0.00165702 -0.048695 0)
(-0.00135216 -0.0521838 0)
(-0.00139073 -0.0512751 0)
(0.000396177 -0.0496552 0)
(0.000681605 -0.0488717 0)
(0.00078977 -0.0501879 0)
(0.000226018 -0.0493031 0)
(-0.000226905 -0.0486155 0)
(-0.000651298 -0.0486165 0)
(-0.000282625 -0.0493899 0)
(-0.0010389 -0.0483976 0)
(0.000895042 -0.0478685 0)
(0.000289962 -0.0515985 0)
(0.000124699 -0.0529303 0)
(-0.000715173 -0.053628 0)
(-0.000434265 -0.0486728 0)
(0.000933467 -0.0477418 0)
(0.00133358 -0.0498181 0)
(0.00176737 -0.0474615 0)
(0.00193098 -0.046205 0)
(0.0015912 -0.0475035 0)
(0.000327851 -0.0500615 0)
(-0.000922595 -0.0549351 0)
(-0.000961414 -0.0538743 0)
(0.00212258 -0.0522936 0)
(0.000445749 -0.050579 0)
(0.000909023 -0.0529003 0)
(0.000257287 -0.0528073 0)
(0.000251736 -0.0524674 0)
(0.000390822 -0.0513912 0)
(0.000198244 -0.0527576 0)
(0.000286959 -0.050689 0)
(0.00199456 -0.0522252 0)
(-0.00375578 -0.049125 0)
(-2.91341e-05 -0.051279 0)
(-0.000275474 -0.0507575 0)
(-0.00412729 -0.0513912 0)
(-0.00337872 -0.0513471 0)
(-0.0023813 -0.0505018 0)
(0.00069925 -0.0530177 0)
(-0.000334342 -0.0504932 0)
(-0.00100293 -0.0492928 0)
(-0.00232821 -0.0485168 0)
(-0.00246764 -0.0473337 0)
(-0.002005 -0.0456396 0)
(-0.00054395 -0.0431104 0)
(-0.000882677 -0.0434955 0)
(0.000236181 -0.0443999 0)
(-0.0011661 -0.0449507 0)
(-0.00154739 -0.0464834 0)
(-0.00382648 -0.0517005 0)
(-0.00178537 -0.0497702 0)
(-0.00212026 -0.0500475 0)
(-0.00243879 -0.0468681 0)
(-0.00116599 -0.0542596 0)
(0.00013499 -0.0543978 0)
(0.00104495 -0.0502297 0)
(0.00138481 -0.0543219 0)
(0.00259014 -0.0527352 0)
(0.00321632 -0.0498488 0)
(0.00347052 -0.0478565 0)
(0.00206246 -0.0480852 0)
(0.00138535 -0.0500765 0)
(0.000602581 -0.049194 0)
(-0.00111957 -0.0496027 0)
(-0.00221419 -0.0505161 0)
(-0.00140545 -0.0524996 0)
(-0.00204495 -0.0535044 0)
(-0.00217028 -0.0509647 0)
(0.000630076 -0.0503409 0)
(2.20168e-05 -0.0500237 0)
(0.000163535 -0.050693 0)
(0.000302613 -0.0535134 0)
(-0.000216493 -0.0513149 0)
(0.00012453 -0.0517027 0)
(0.000112595 -0.0487526 0)
(0.000706044 -0.0469591 0)
(0.000314352 -0.0469521 0)
(-0.000180961 -0.0491455 0)
(0.000301613 -0.0495537 0)
(-0.00094802 -0.0526594 0)
(0.000768014 -0.0550158 0)
(0.000757813 -0.054704 0)
(0.00118826 -0.0530849 0)
(0.00138642 -0.0488263 0)
(0.00218904 -0.0482193 0)
(0.00078676 -0.0486943 0)
(-0.00455257 -0.055541 0)
(-0.00315876 -0.0555683 0)
(0.000368014 -0.0497803 0)
(2.50964e-05 -0.0501063 0)
(-0.000526507 -0.0526768 0)
(0.000645061 -0.0532797 0)
(0.000489933 -0.0541722 0)
(0.00164068 -0.0529981 0)
(-0.000436484 -0.0531013 0)
(0.000572889 -0.0523075 0)
(-0.000560164 -0.0532516 0)
(-0.00262083 -0.0493891 0)
(-0.00171785 -0.0523787 0)
(-0.00450383 -0.0475093 0)
(-0.00420417 -0.0471654 0)
(-0.00318631 -0.0496766 0)
(-0.00149515 -0.0478978 0)
(-0.000117146 -0.0496264 0)
(7.79227e-05 -0.0498207 0)
(-0.000119143 -0.0491624 0)
(-0.000821347 -0.0486007 0)
(-0.00227837 -0.0509168 0)
(-0.0001874 -0.0483325 0)
(-0.000332738 -0.0476496 0)
(-0.000321102 -0.0487444 0)
(-0.00192945 -0.049161 0)
(0.000852324 -0.0473759 0)
(0.000423397 -0.0462919 0)
(0.00133204 -0.0496718 0)
(0.00039021 -0.0524143 0)
(-0.000499685 -0.0534868 0)
(-0.00210951 -0.0537704 0)
(-0.00180553 -0.0550779 0)
(-0.000618537 -0.0594414 0)
(0.0017044 -0.0601756 0)
(0.0011871 -0.0601295 0)
(0.000347409 -0.0585754 0)
(0.001203 -0.0561484 0)
(0.00202233 -0.0529092 0)
(0.00201274 -0.0519115 0)
(0.0027088 -0.051862 0)
(0.00186827 -0.0497439 0)
(-0.00109271 -0.0509639 0)
(-0.000205345 -0.051626 0)
(-0.000223391 -0.0531865 0)
(-0.00193047 -0.0536824 0)
(-0.00350972 -0.0545043 0)
(-0.000255554 -0.0545943 0)
(-0.000841411 -0.0562271 0)
(0.0003622 -0.0545328 0)
(0.00121029 -0.0554348 0)
(-9.19041e-05 -0.0535193 0)
(-0.000173053 -0.0512042 0)
(-0.000564181 -0.0487785 0)
(-0.000713526 -0.046979 0)
(0.000483915 -0.0443087 0)
(0.00074422 -0.0448538 0)
(0.00038948 -0.0473137 0)
(0.00272877 -0.0507354 0)
(0.0018421 -0.054504 0)
(0.00236168 -0.0540214 0)
(0.00227827 -0.0515129 0)
(0.00350392 -0.0509794 0)
(-0.000275181 -0.0497091 0)
(-0.000334452 -0.0497198 0)
(-0.000669428 -0.0489253 0)
(-0.00130699 -0.0487284 0)
(-0.00142237 -0.0466637 0)
(-0.0013392 -0.0505037 0)
(-0.000583955 -0.0510215 0)
(4.36771e-05 -0.0489697 0)
(0.001568 -0.0504485 0)
(0.00142186 -0.0505709 0)
(-1.49751e-05 -0.0525505 0)
(5.87767e-05 -0.0530674 0)
(1.08296e-05 -0.0471995 0)
(0.00124694 -0.0454786 0)
(0.000732521 -0.045863 0)
(-0.00249523 -0.0487801 0)
(-0.00196951 -0.0494403 0)
(0.000909856 -0.0489908 0)
(-0.000502797 -0.0466957 0)
(0.000292849 -0.0508404 0)
(0.000660651 -0.0525538 0)
(0.000319847 -0.0520732 0)
(9.55994e-05 -0.0524837 0)
(-0.000531535 -0.0490137 0)
(0.000308143 -0.0510744 0)
(-0.000859833 -0.0525051 0)
(-0.000858652 -0.0531248 0)
(-0.000539622 -0.0561052 0)
(0.000769775 -0.0591516 0)
(0.00261452 -0.0579941 0)
(0.00079304 -0.0555513 0)
(0.00134975 -0.0531637 0)
(0.000301684 -0.0515481 0)
(-0.00131049 -0.0523573 0)
(-0.000172643 -0.0560474 0)
(-0.00263283 -0.059384 0)
(-0.0010142 -0.0630592 0)
(0.00120826 -0.0603326 0)
(0.000294669 -0.0596334 0)
(0.000188062 -0.0576987 0)
(0.0011583 -0.0550447 0)
(0.00242687 -0.0535153 0)
(0.00102815 -0.0530854 0)
(0.00149574 -0.0508149 0)
(-0.00121473 -0.0506662 0)
(0.000129523 -0.0516293 0)
(-0.000300806 -0.052537 0)
(-0.000253921 -0.0541647 0)
(-0.00152636 -0.0553719 0)
(-0.00181314 -0.054162 0)
(-0.00228861 -0.0560276 0)
(-0.000601408 -0.057776 0)
(0.000388727 -0.0561948 0)
(-0.00118964 -0.0552221 0)
(-0.000447211 -0.0551849 0)
(-0.00249454 -0.0535664 0)
(-0.00182974 -0.0526044 0)
(-0.000737078 -0.052577 0)
(0.00147285 -0.052163 0)
(0.00299888 -0.0515617 0)
(0.00422005 -0.0500574 0)
(0.00320539 -0.0516402 0)
(0.00313364 -0.0529904 0)
(0.00215888 -0.0508549 0)
(-0.000384447 -0.0507649 0)
(8.74365e-05 -0.0491397 0)
(0.000857571 -0.0490075 0)
(0.000638502 -0.0489368 0)
(-0.00123773 -0.0484611 0)
(0.00148491 -0.0474234 0)
(-8.79028e-05 -0.0473364 0)
(-0.00295239 -0.0464537 0)
(-0.00149371 -0.0490798 0)
(0.00135609 -0.047027 0)
(0.00131991 -0.0501323 0)
(0.000802474 -0.0500696 0)
(-0.0032134 -0.0533053 0)
(-0.00391856 -0.0508525 0)
(0.000722692 -0.051992 0)
(-0.000843075 -0.0470858 0)
(1.95075e-05 -0.0454538 0)
(-0.000418117 -0.0486296 0)
(-0.000657813 -0.0491122 0)
(0.000725559 -0.0485095 0)
(-0.000230378 -0.0492317 0)
(0.000537304 -0.0503411 0)
(-0.00026777 -0.0521295 0)
(-0.00100902 -0.0487882 0)
(0.000252288 -0.0518477 0)
(0.000255705 -0.052655 0)
(0.000390524 -0.0531407 0)
(-8.38144e-05 -0.0521724 0)
(-0.000520398 -0.0547882 0)
(-7.56487e-07 -0.0576805 0)
(0.00157896 -0.061066 0)
(0.00116599 -0.0612623 0)
(-0.000145817 -0.0615418 0)
(0.000261894 -0.057086 0)
(0.000824073 -0.0565867 0)
(-0.00072059 -0.0552217 0)
(-0.00107352 -0.0568493 0)
(0.000238069 -0.0596452 0)
(-0.000379698 -0.0618686 0)
(0.00056476 -0.0620806 0)
(-0.00140315 -0.0598553 0)
(-0.00176806 -0.0585317 0)
(0.000209786 -0.0518862 0)
(0.0010129 -0.0522945 0)
(0.00061237 -0.0524156 0)
(0.000178841 -0.0530595 0)
(0.000917607 -0.0509022 0)
(0.00111947 -0.0490909 0)
(-0.00352868 -0.0503961 0)
(0.000451223 -0.0547843 0)
(0.000714457 -0.0526727 0)
(-0.000174641 -0.0557049 0)
(-0.000976278 -0.0549569 0)
(-0.000731524 -0.0580203 0)
(-0.000720036 -0.0570911 0)
(-0.00226137 -0.0555903 0)
(8.13536e-05 -0.054176 0)
(-0.000630102 -0.0530152 0)
(-0.000686152 -0.0523281 0)
(0.000518223 -0.0527064 0)
(0.00232548 -0.051361 0)
(0.00391663 -0.0485007 0)
(0.00281145 -0.0465819 0)
(-0.00131861 -0.045743 0)
(-0.000106155 -0.0494398 0)
(-0.000467068 -0.0442729 0)
(-0.000305609 -0.0445917 0)
(0.000986064 -0.0438278 0)
(0.00128689 -0.0437162 0)
(-7.00222e-05 -0.0473812 0)
(-0.000733179 -0.0493446 0)
(0.000816637 -0.0504625 0)
(0.000151479 -0.0493784 0)
(-0.000348531 -0.0485073 0)
(-0.000130609 -0.0506745 0)
(0.00189753 -0.0495497 0)
(0.00168285 -0.0490493 0)
(0.00110707 -0.0498969 0)
(-1.03986e-05 -0.0537237 0)
(-0.00258978 -0.0506104 0)
(-0.00379299 -0.0535977 0)
(-0.00184231 -0.0494036 0)
(0.00214515 -0.0466701 0)
(0.00156411 -0.0464683 0)
(0.00300192 -0.0459752 0)
(0.000658175 -0.0461971 0)
(-0.00207706 -0.0442452 0)
(-0.00124441 -0.0443671 0)
(-0.00152029 -0.0453854 0)
(0.00147434 -0.0463644 0)
(0.00046483 -0.0462797 0)
(-0.00072583 -0.0466895 0)
(-0.000879725 -0.0500844 0)
(5.71343e-05 -0.0529662 0)
(0.00171514 -0.0543766 0)
(0.00341669 -0.0540958 0)
(0.00293769 -0.0600428 0)
(0.00127946 -0.0570081 0)
(0.000660698 -0.0561835 0)
(0.000476645 -0.0548373 0)
(0.00095438 -0.0553925 0)
(0.000521563 -0.0541515 0)
(0.000297682 -0.057143 0)
(0.00131717 -0.0538284 0)
(0.00108817 -0.0580459 0)
(-0.00109928 -0.0574864 0)
(-0.00410887 -0.0531184 0)
(0.000632284 -0.0520921 0)
(0.000157558 -0.052855 0)
(0.00115257 -0.0531564 0)
(0.0018316 -0.0532458 0)
(0.000398591 -0.0533727 0)
(0.00104786 -0.0517318 0)
(0.00053665 -0.0499506 0)
(0.00115811 -0.0481816 0)
(0.0021226 -0.046695 0)
(-0.000194799 -0.0503165 0)
(-0.000125761 -0.0470563 0)
(0.00107252 -0.049823 0)
(-7.46828e-05 -0.0524858 0)
(-0.000773221 -0.0521177 0)
(-0.00186082 -0.0517964 0)
(-0.00260167 -0.0516478 0)
(-0.00128825 -0.0503981 0)
(0.000681623 -0.0513715 0)
(0.000683657 -0.0524729 0)
(-0.000445279 -0.0509614 0)
(0.00200064 -0.0485716 0)
(0.00137399 -0.0465834 0)
(-0.00128487 -0.0445697 0)
(-0.0018828 -0.0470095 0)
(-0.000461907 -0.0472864 0)
(0.000136243 -0.0407533 0)
(0.00108909 -0.0405181 0)
(0.00200364 -0.0395177 0)
(0.00182879 -0.0480244 0)
(0.00161681 -0.0503178 0)
(0.000621953 -0.0516041 0)
(0.000424863 -0.0521084 0)
(0.00143175 -0.0534491 0)
(-0.000910817 -0.0542544 0)
(-0.000333946 -0.0548397 0)
(0.000239327 -0.0533076 0)
(-0.001097 -0.0527419 0)
(-0.00363048 -0.0516064 0)
(-0.00378264 -0.0531337 0)
(-0.00286071 -0.0507438 0)
(-0.00127715 -0.0530792 0)
(0.00141211 -0.0510214 0)
(0.00201435 -0.0483409 0)
(0.000466933 -0.0497853 0)
(-0.000351128 -0.0479515 0)
(-0.000176423 -0.0465948 0)
(-0.000973987 -0.0466345 0)
(-0.00116481 -0.046433 0)
(0.000870995 -0.0455241 0)
(0.000570713 -0.0445111 0)
(-0.000214406 -0.0464257 0)
(0.00149462 -0.0492595 0)
(0.00313853 -0.0530249 0)
(0.00114476 -0.0514617 0)
(0.00171127 -0.0533401 0)
(0.000289556 -0.0531704 0)
(0.000483857 -0.052874 0)
(0.000342955 -0.0504072 0)
(0.000263964 -0.0496042 0)
(-0.00110448 -0.0516046 0)
(0.00150735 -0.0522677 0)
(0.000819178 -0.0502271 0)
(0.00202757 -0.0514679 0)
(-0.00474447 -0.0470812 0)
(-0.00133037 -0.0493075 0)
(-0.000616957 -0.0513465 0)
(-0.00150814 -0.0524394 0)
(-0.00233551 -0.0540953 0)
(0.00154056 -0.0545951 0)
(-0.00114352 -0.0518251 0)
(-0.000438127 -0.0506889 0)
(-0.000663119 -0.0493634 0)
(-2.8628e-06 -0.0483951 0)
(0.00149262 -0.0485757 0)
(0.00156533 -0.0483391 0)
(-0.00045478 -0.0474124 0)
(0.000679039 -0.0463004 0)
(-0.000154222 -0.0488716 0)
(-0.002247 -0.0518341 0)
(-0.0027412 -0.052141 0)
(-0.00316898 -0.0482217 0)
(-0.00189494 -0.0487525 0)
(-0.000679054 -0.0498947 0)
(-9.92703e-05 -0.0533365 0)
(-0.000698546 -0.0515763 0)
(-0.000483109 -0.0498291 0)
(0.000419367 -0.0472406 0)
(0.000513868 -0.04135 0)
(-0.00282269 -0.0447126 0)
(-0.000704414 -0.0442119 0)
(-0.00138106 -0.0449411 0)
(-0.000662426 -0.0422587 0)
(-0.00117268 -0.0411171 0)
(0.00119679 -0.0502372 0)
(0.000701086 -0.050474 0)
(0.00137551 -0.0497056 0)
(0.0028928 -0.0487247 0)
(0.00292997 -0.0482471 0)
(-0.0015785 -0.0528436 0)
(0.00113305 -0.0540549 0)
(0.00101999 -0.0527032 0)
(-2.722e-05 -0.0519451 0)
(-0.00393768 -0.0527372 0)
(-0.0046902 -0.0527752 0)
(-0.00388736 -0.0550217 0)
(-0.00469924 -0.0532 0)
(-0.00198105 -0.0565763 0)
(0.00083833 -0.0513765 0)
(0.000591546 -0.0543679 0)
(0.000104705 -0.0535037 0)
(-0.000374767 -0.0528832 0)
(-0.000802958 -0.051908 0)
(0.000723864 -0.0477341 0)
(0.000851076 -0.0486155 0)
(0.00287768 -0.0515054 0)
(0.00405224 -0.0505025 0)
(0.00554942 -0.0515526 0)
(0.00510374 -0.0509144 0)
(0.00157256 -0.0515622 0)
(-0.000283913 -0.0534012 0)
(0.000302788 -0.0493986 0)
(-0.000644773 -0.0479519 0)
(-0.000575564 -0.0469854 0)
(-0.00210559 -0.0487437 0)
(0.000424003 -0.0477643 0)
(0.0010262 -0.0459821 0)
(-0.000639303 -0.0461896 0)
(-0.00245682 -0.043661 0)
(-0.00354819 -0.0430802 0)
(0.000719205 -0.0469921 0)
(-0.00115067 -0.0506202 0)
(-0.00337935 -0.0540797 0)
(0.000351035 -0.0562893 0)
(0.00098816 -0.0547302 0)
(-0.00163456 -0.0509371 0)
(0.000139049 -0.0491206 0)
(-0.000351412 -0.0478927 0)
(-0.000938903 -0.0488588 0)
(-0.000332092 -0.0506947 0)
(0.00150156 -0.0531593 0)
(0.00140886 -0.0478582 0)
(0.00162386 -0.0489946 0)
(0.000828586 -0.050002 0)
(0.00025926 -0.0519223 0)
(-0.00135678 -0.0520911 0)
(-0.00281374 -0.0508073 0)
(-0.00282974 -0.0498321 0)
(-0.00262618 -0.0497254 0)
(-0.000953962 -0.0518388 0)
(-0.000624323 -0.0515222 0)
(0.000504748 -0.0505828 0)
(-0.000522933 -0.0440672 0)
(-0.00239702 -0.0419351 0)
(-0.00132898 -0.0431996 0)
(1.34324e-05 -0.0463723 0)
(-0.00201219 -0.0481325 0)
(-0.00181402 -0.0478947 0)
(-0.00195872 -0.0475508 0)
(0.000469846 -0.0497323 0)
(0.00198525 -0.0521146 0)
(0.000683069 -0.0547583 0)
(-0.00010664 -0.0539443 0)
(-0.000398142 -0.0525132 0)
(0.000331261 -0.0492908 0)
(0.00245878 -0.0473707 0)
(0.00128874 -0.0491662 0)
(0.00143013 -0.050497 0)
(0.00017337 -0.0523583 0)
(-0.00314302 -0.054109 0)
(-0.00359677 -0.054981 0)
(-0.00330831 -0.0563224 0)
(-0.00386803 -0.0544704 0)
(-0.00274438 -0.0548462 0)
(-0.000180089 -0.0554591 0)
(0.000618793 -0.0561107 0)
(-0.000200136 -0.0561056 0)
(-0.000408163 -0.0552613 0)
(-0.00116749 -0.0529258 0)
(0.000305064 -0.0507172 0)
(0.00237 -0.0518013 0)
(0.00518359 -0.0526916 0)
(0.00540651 -0.0529353 0)
(0.00380684 -0.052682 0)
(0.00129123 -0.0479087 0)
(-0.00196286 -0.0485139 0)
(-0.00227513 -0.0446801 0)
(-0.00102596 -0.0463959 0)
(0.00185587 -0.0467107 0)
(0.00296441 -0.042195 0)
(0.00240546 -0.0403448 0)
(0.000852627 -0.0388305 0)
(0.000797297 -0.0411871 0)
(-0.000340769 -0.0426377 0)
(-0.00218524 -0.0422793 0)
(-0.000153909 -0.0476694 0)
(0.000337187 -0.0519912 0)
(0.00126211 -0.0564566 0)
(-6.98427e-05 -0.0530176 0)
(-0.00258753 -0.0501309 0)
(-0.00227812 -0.046087 0)
(0.000346542 -0.0451955 0)
(-0.000292839 -0.0474225 0)
(6.23263e-06 -0.0510414 0)
(0.00120375 -0.0537675 0)
(0.00231285 -0.0536939 0)
(0.00054119 -0.0513106 0)
(0.00187237 -0.0500738 0)
(0.000507558 -0.0498333 0)
(-2.06175e-05 -0.0452687 0)
(-0.000730875 -0.0456618 0)
(-0.000609529 -0.0454349 0)
(-0.00312661 -0.049312 0)
(-0.000693889 -0.0524897 0)
(-0.000487952 -0.0535146 0)
(4.12721e-05 -0.0512753 0)
(0.000731386 -0.0502741 0)
(-0.000360239 -0.0467026 0)
(-0.00260527 -0.0471374 0)
(-0.00268034 -0.0459388 0)
(-0.00122788 -0.0487105 0)
(-0.000910167 -0.0524322 0)
(-0.00196574 -0.0556856 0)
(-0.00104705 -0.0556865 0)
(-0.00211508 -0.0481368 0)
(0.00201452 -0.0505991 0)
(0.00233338 -0.0543506 0)
(0.000295493 -0.0554708 0)
(0.00188234 -0.0550384 0)
(0.00189984 -0.0537495 0)
(0.00248836 -0.0507692 0)
(0.00174803 -0.0512426 0)
(0.0013863 -0.0511553 0)
(-0.000996775 -0.0507763 0)
(-0.00184745 -0.0509886 0)
(-0.00349368 -0.0487896 0)
(-0.00394216 -0.051352 0)
(-0.0027075 -0.0522409 0)
(-0.000838168 -0.0523246 0)
(-0.00114518 -0.0544143 0)
(0.0004921 -0.0516025 0)
(0.000177078 -0.0501398 0)
(0.000316397 -0.0532969 0)
(0.000590761 -0.0500736 0)
(0.0011121 -0.0508241 0)
(0.00389037 -0.0477757 0)
(0.00348263 -0.0504449 0)
(0.0027636 -0.0481359 0)
(0.00219893 -0.0450475 0)
(-0.000636629 -0.0439755 0)
(-0.000568947 -0.044382 0)
(-0.00398889 -0.0421082 0)
(0.000824211 -0.046626 0)
(-0.000431662 -0.0489162 0)
(-0.000962138 -0.0505916 0)
(-0.000615826 -0.0497259 0)
(-0.000804986 -0.0479548 0)
(0.000360978 -0.0474993 0)
(0.0029065 -0.0465879 0)
(-0.00370055 -0.0478066 0)
(0.00017408 -0.0488159 0)
(0.00252507 -0.050274 0)
(0.0010077 -0.0500843 0)
(-0.00231453 -0.0477726 0)
(-0.00476833 -0.0459527 0)
(-0.00183018 -0.0443894 0)
(6.64998e-05 -0.0441218 0)
(0.00147872 -0.0472496 0)
(-0.000252685 -0.051393 0)
(0.000696947 -0.0543512 0)
(0.000818335 -0.0532627 0)
(-0.000720868 -0.050735 0)
(-0.00115484 -0.0453044 0)
(-0.000576021 -0.0445893 0)
(0.000593699 -0.0446695 0)
(7.60627e-05 -0.0459492 0)
(0.000793167 -0.0473825 0)
(-0.000337424 -0.0508191 0)
(-0.000842168 -0.0520119 0)
(-0.000888065 -0.0505146 0)
(-0.000722893 -0.0477541 0)
(-0.000850677 -0.0488857 0)
(-0.000724499 -0.0500012 0)
(-0.000965881 -0.0515378 0)
(-0.00174982 -0.0531318 0)
(0.00182758 -0.0519301 0)
(0.000660089 -0.0562773 0)
(-0.00199143 -0.0583934 0)
(-0.00124701 -0.0597188 0)
(-0.000244288 -0.0451442 0)
(0.000484783 -0.0489316 0)
(0.00408842 -0.0524116 0)
(0.00287931 -0.0544056 0)
(0.000299481 -0.0550654 0)
(0.00103939 -0.0516053 0)
(0.00178459 -0.0535745 0)
(0.00219485 -0.0512829 0)
(0.00090001 -0.0497219 0)
(-0.000231372 -0.0486077 0)
(-0.00171824 -0.0495432 0)
(-0.00418651 -0.048828 0)
(-0.00438026 -0.0491126 0)
(-0.00295952 -0.053033 0)
(-0.000604434 -0.0520707 0)
(-0.000453907 -0.0511089 0)
(0.000696878 -0.0476637 0)
(0.00296077 -0.0497943 0)
(0.00123938 -0.0523733 0)
(0.00165169 -0.0501908 0)
(0.00178786 -0.0511367 0)
(0.00190258 -0.0495466 0)
(0.00205494 -0.0483919 0)
(-7.2861e-05 -0.0448046 0)
(-6.02837e-05 -0.0415161 0)
(0.000235763 -0.0407343 0)
(-0.00134596 -0.0430394 0)
(-0.00287809 -0.0452748 0)
(-0.000592604 -0.0448311 0)
(-0.000678783 -0.0505254 0)
(-0.000572155 -0.0528732 0)
(0.00041315 -0.0523532 0)
(0.00108606 -0.0502336 0)
(0.00196532 -0.0471308 0)
(0.00125219 -0.0465887 0)
(0.00064675 -0.0460762 0)
(0.00135147 -0.0432985 0)
(0.000961222 -0.0384222 0)
(0.00239487 -0.0373299 0)
(-0.00013209 -0.042637 0)
(-0.00133796 -0.045114 0)
(-0.000709847 -0.0472988 0)
(0.00125727 -0.049036 0)
(0.00320336 -0.0483358 0)
(-0.00139214 -0.0516218 0)
(0.000993071 -0.0539246 0)
(0.000902518 -0.0521713 0)
(0.00231122 -0.045296 0)
(0.000843957 -0.0452362 0)
(0.00011646 -0.0464708 0)
(0.000245574 -0.0472402 0)
(-0.000777553 -0.0489717 0)
(0.000948921 -0.047363 0)
(0.00285832 -0.0489985 0)
(0.00151027 -0.0457526 0)
(0.00328901 -0.0462665 0)
(-0.00204738 -0.0502789 0)
(-0.00111418 -0.0530537 0)
(-0.00219139 -0.0547024 0)
(-0.00232046 -0.0543884 0)
(-0.00132672 -0.0531383 0)
(-0.00015662 -0.0556719 0)
(-0.0029683 -0.0581468 0)
(-0.00176334 -0.0570553 0)
(-0.00154944 -0.0599837 0)
(0.00415523 -0.0552762 0)
(0.00600268 -0.0544846 0)
(0.00432498 -0.0562861 0)
(0.000910089 -0.0550237 0)
(-0.000130911 -0.0539961 0)
(0.000144032 -0.0530772 0)
(-0.00103324 -0.0540283 0)
(-0.000556928 -0.0507022 0)
(-0.00169676 -0.0505517 0)
(-0.00107769 -0.0481146 0)
(-0.00109658 -0.0462707 0)
(-0.00204821 -0.046972 0)
(-0.00227742 -0.0500504 0)
(-0.0031864 -0.0512771 0)
(-0.00170758 -0.0556801 0)
(-0.000382575 -0.0506835 0)
(0.00394552 -0.051598 0)
(0.00218943 -0.0528032 0)
(0.00200125 -0.0530028 0)
(-0.000194022 -0.0546112 0)
(0.000586224 -0.0540071 0)
(0.0013338 -0.0531643 0)
(0.00111709 -0.0513042 0)
(0.00106424 -0.0504558 0)
(-0.00211593 -0.0460092 0)
(-0.00143825 -0.0443879 0)
(-0.00016698 -0.0467385 0)
(0.000176861 -0.0448632 0)
(0.00127771 -0.0463616 0)
(-6.99046e-05 -0.0522481 0)
(-0.00206784 -0.0532553 0)
(-0.00102013 -0.0524707 0)
(0.000326284 -0.0501733 0)
(0.000546785 -0.049119 0)
(-0.000968558 -0.0468314 0)
(-0.00129979 -0.0434571 0)
(-1.27419e-05 -0.0411028 0)
(0.00210851 -0.0402011 0)
(-0.00023298 -0.0401864 0)
(0.000794612 -0.0437399 0)
(0.00113936 -0.0463848 0)
(0.0019898 -0.0488678 0)
(0.00365059 -0.0491599 0)
(0.00241093 -0.0509656 0)
(0.0019056 -0.0514145 0)
(0.00068009 -0.0481179 0)
(-0.000203219 -0.0463672 0)
(-0.00067247 -0.0426953 0)
(-0.000580004 -0.0439193 0)
(0.000127987 -0.0464239 0)