/*--------------------------------*- C++ -*----------------------------------*\
  =========                 |
  \\      /  F ield         | OpenFOAM: The Open Source CFD Toolbox
   \\    /   O peration     | Website:  https://openfoam.org
    \\  /    A nd           | Version:  12
     \\/     M anipulation  |
\*---------------------------------------------------------------------------*/
FoamFile
{
    format      ascii;
    class       volVectorField::Internal;
    location    "0.35";
    object      cloud:UTrans;
}
// * * * * * * * * * * * * * * * * * * * * * * * * * * * * * * * * * * * * * //

dimensions      [1 1 -1 0 0 0 0];

value           nonuniform List<vector> 
3750
(
(6.79393e-09 6.13959e-08 0)
(1.09416e-09 -2.16934e-09 0)
(-1.51715e-12 -5.40398e-09 0)
(0 0 0)
(1.09703e-11 -2.41447e-09 0)
(0 0 0)
(1.06822e-10 -2.5411e-09 0)
(3.06221e-11 -2.74884e-09 0)
(-1.41336e-10 -5.34503e-09 0)
(5.9159e-11 -1.96257e-09 0)
(-5.80539e-11 -2.56422e-09 0)
(0 0 0)
(4.23669e-11 -2.43922e-09 0)
(-2.0871e-11 -2.40842e-09 0)
(-3.21293e-11 -2.33851e-09 0)
(-1.16483e-10 -5.92134e-09 0)
(6.62194e-11 -2.27439e-09 0)
(5.75635e-11 -2.07897e-09 0)
(5.63329e-11 -2.52557e-09 0)
(9.13962e-11 -2.37507e-09 0)
(0 0 0)
(-3.90811e-11 -2.88083e-09 0)
(0 0 0)
(-9.64338e-11 -2.44124e-09 0)
(-5.7104e-11 -2.44914e-09 0)
(3.18714e-10 -4.88958e-09 0)
(7.90816e-12 -2.28052e-09 0)
(-1.4351e-10 -5.18898e-09 0)
(9.02824e-11 -2.44865e-09 0)
(0 0 0)
(2.86597e-11 -2.52815e-09 0)
(9.46571e-11 -2.43134e-09 0)
(-8.33028e-11 -2.28188e-09 0)
(-7.69277e-11 -2.41237e-09 0)
(-1.55735e-10 -2.08957e-09 0)
(-2.97889e-10 -2.2668e-09 0)
(4.27404e-12 -2.47085e-09 0)
(0 0 0)
(3.12983e-11 -2.21811e-09 0)
(0 0 0)
(8.72268e-11 -2.36014e-09 0)
(1.44009e-10 -4.8391e-09 0)
(-2.29643e-11 -2.3688e-09 0)
(0 0 0)
(2.34994e-11 -2.43611e-09 0)
(0 0 0)
(5.26079e-11 -2.66265e-09 0)
(-3.33192e-10 -5.0663e-09 0)
(-6.96694e-12 -2.38241e-09 0)
(-5.20107e-11 -2.13801e-09 0)
(3.06104e-12 -1.25655e-10 0)
(6.20284e-11 -2.15363e-09 0)
(-1.36353e-11 -2.49332e-09 0)
(0 0 0)
(-5.54019e-12 -2.25004e-09 0)
(1.79232e-12 -2.3197e-09 0)
(-4.25257e-12 -2.29274e-09 0)
(-4.75338e-11 -5.63202e-09 0)
(-1.24961e-10 -2.11925e-09 0)
(-1.6563e-10 -5.12712e-09 0)
(-2.59265e-10 -2.00881e-09 0)
(-2.02612e-12 -2.46654e-09 0)
(-1.69971e-11 -2.52059e-09 0)
(3.24832e-10 -2.50439e-09 0)
(1.54625e-10 -2.43672e-09 0)
(-7.04515e-12 -2.4096e-09 0)
(-8.306e-11 -2.44062e-09 0)
(3.46567e-11 -2.55888e-09 0)
(3.6296e-11 -2.43738e-09 0)
(-4.34619e-11 -5.1808e-09 0)
(-2.04002e-11 -2.23694e-09 0)
(-8.61627e-12 -2.2206e-09 0)
(0 0 0)
(5.4873e-11 -2.74551e-09 0)
(-2.08455e-10 -2.75779e-09 0)
(1.9965e-10 7.2461e-08 0)
(5.96695e-10 -3.72618e-11 0)
(-7.54411e-11 -5.26295e-09 0)
(-1.09653e-10 -2.31805e-09 0)
(0 0 0)
(0 0 0)
(1.22036e-10 -1.9937e-09 0)
(-2.77488e-11 -2.42016e-09 0)
(3.68878e-11 -1.94535e-09 0)
(-3.07391e-10 -4.55369e-09 0)
(3.04427e-11 -2.15387e-09 0)
(8.41264e-11 -2.36058e-09 0)
(0 0 0)
(0 0 0)
(-1.13167e-11 -2.20955e-09 0)
(-6.19789e-11 -2.36934e-09 0)
(4.7381e-11 -2.38819e-09 0)
(8.06885e-11 -2.23359e-09 0)
(9.52242e-11 -2.13218e-09 0)
(-8.10992e-11 -8.82703e-09 0)
(-1.51077e-10 -5.67168e-09 0)
(0 0 0)
(0 0 0)
(-1.63642e-10 -2.37217e-09 0)
(0 0 0)
(1.64337e-11 -2.34695e-09 0)
(0 0 0)
(-4.81272e-10 -4.99246e-09 0)
(3.60722e-11 -1.01775e-08 0)
(2.92091e-11 -2.18927e-09 0)
(-4.33196e-13 -2.06128e-09 0)
(5.54828e-11 -2.67636e-09 0)
(0 0 0)
(-1.36792e-12 -2.24564e-09 0)
(1.36856e-11 -2.28189e-09 0)
(-6.72656e-11 -4.83817e-09 0)
(-6.4004e-11 -2.11349e-09 0)
(7.91796e-11 -2.33104e-09 0)
(6.66788e-12 -1.88963e-09 0)
(0 0 0)
(-1.40676e-11 -2.17186e-09 0)
(1.29192e-10 -7.12808e-09 0)
(-3.7374e-11 -2.0702e-09 0)
(-2.84539e-11 -2.38583e-09 0)
(0 0 0)
(1.23143e-10 -2.53668e-09 0)
(9.00431e-11 -2.57881e-09 0)
(-2.10355e-10 -8.14773e-09 0)
(-3.52176e-10 -5.18807e-09 0)
(-2.10165e-10 -3.58293e-09 0)
(-9.30958e-11 -3.26814e-09 0)
(1.11733e-10 -2.33474e-09 0)
(5.20055e-11 -2.27051e-09 0)
(7.53584e-11 -2.22781e-09 0)
(7.47196e-11 -2.24582e-09 0)
(0 0 0)
(4.04524e-11 -7.52121e-10 0)
(1.68129e-10 -3.13199e-09 0)
(-3.3921e-11 -2.2259e-09 0)
(-9.06009e-11 -2.09291e-09 0)
(0 0 0)
(0 0 0)
(-7.27629e-11 -2.30732e-09 0)
(-1.51451e-10 -5.21136e-09 0)
(-1.09802e-10 -2.29015e-09 0)
(0 0 0)
(1.47351e-11 -2.17427e-09 0)
(0 0 0)
(1.46323e-10 -2.38467e-09 0)
(2.28727e-11 -2.27431e-09 0)
(-5.40023e-11 -2.65234e-09 0)
(-1.51078e-10 -3.45584e-09 0)
(6.91208e-11 -2.12687e-09 0)
(4.92895e-11 -2.48253e-09 0)
(5.52002e-11 -2.66686e-09 0)
(5.35182e-09 9.23749e-08 0)
(1.51331e-09 -2.55417e-09 0)
(5.90384e-10 -4.28819e-09 0)
(4.54968e-10 -5.17079e-09 0)
(8.90964e-11 -2.065e-09 0)
(1.26441e-10 -2.83455e-09 0)
(0 0 0)
(-7.03557e-11 -2.47192e-09 0)
(7.2167e-11 -2.57551e-09 0)
(-2.19704e-11 -3.97166e-09 0)
(1.53944e-11 -6.91041e-10 0)
(-2.92067e-11 -2.23513e-09 0)
(-9.92073e-11 -3.37113e-09 0)
(-2.44845e-11 -4.25441e-09 0)
(-1.01007e-10 -2.10696e-09 0)
(-3.29566e-10 -8.13131e-09 0)
(4.66134e-11 -2.57904e-09 0)
(-2.19102e-11 -1.88358e-09 0)
(7.81235e-11 -2.8315e-09 0)
(-7.82918e-12 -3.24097e-09 0)
(1.17013e-11 -6.35862e-10 0)
(1.86609e-10 -4.29927e-09 0)
(5.09099e-11 -2.18964e-09 0)
(2.52082e-11 -2.19283e-09 0)
(1.07102e-10 -2.2504e-09 0)
(4.90121e-12 -2.09934e-09 0)
(-3.13888e-10 -3.73512e-09 0)
(-2.47139e-10 -3.90039e-09 0)
(1.07118e-11 -6.25498e-10 0)
(7.40016e-11 -3.47565e-09 0)
(8.38715e-11 -4.48726e-09 0)
(1.07547e-10 -2.0911e-09 0)
(4.73948e-11 -2.26387e-09 0)
(2.01566e-10 -2.18411e-09 0)
(1.28957e-10 -2.44721e-09 0)
(0 0 0)
(2.01702e-10 -2.00407e-09 0)
(1.24697e-10 -5.83799e-09 0)
(3.23709e-10 -2.16877e-09 0)
(2.98787e-10 -2.57363e-09 0)
(1.71213e-10 -2.45654e-09 0)
(2.39106e-10 -2.29044e-09 0)
(1.81721e-10 -2.06656e-09 0)
(0 0 0)
(9.62066e-11 -5.22178e-09 0)
(3.44759e-13 -3.20082e-11 0)
(-1.32238e-10 -6.0993e-09 0)
(0 0 0)
(0 0 0)
(-2.43228e-10 -2.41701e-09 0)
(-9.09254e-11 -2.33433e-09 0)
(2.11579e-11 -2.19964e-09 0)
(8.38996e-11 -2.28321e-09 0)
(1.00091e-10 -2.22453e-09 0)
(1.90145e-10 -2.39807e-09 0)
(1.46792e-10 -2.59413e-09 0)
(1.19716e-10 -2.18573e-09 0)
(8.96344e-11 -2.09957e-09 0)
(0 0 0)
(2.62095e-11 -2.19315e-09 0)
(-6.38804e-11 -2.08459e-09 0)
(-1.82594e-10 -2.37744e-09 0)
(-1.44946e-11 -4.17449e-09 0)
(1.65035e-11 -3.23535e-09 0)
(-1.7662e-12 -8.23361e-10 0)
(6.15838e-13 -7.96054e-10 0)
(4.51057e-11 -2.14638e-09 0)
(2.50441e-11 -2.33348e-09 0)
(2.21734e-10 -5.93733e-09 0)
(1.61748e-11 -2.25853e-09 0)
(1.34167e-11 -2.0548e-09 0)
(1.74039e-11 -2.14941e-09 0)
(8.12495e-12 -2.24774e-09 0)
(7.83991e-11 -2.61057e-09 0)
(1.85945e-11 -2.75113e-09 0)
(1.81884e-08 7.12514e-08 0)
(7.16153e-11 -1.04612e-09 0)
(3.82795e-10 -2.34643e-09 0)
(2.4025e-10 -2.4803e-09 0)
(9.24742e-11 -4.33303e-09 0)
(1.24579e-10 -3.12968e-09 0)
(0 0 0)
(1.6046e-10 -2.3768e-09 0)
(1.27125e-10 -2.58298e-09 0)
(3.69554e-11 -2.52715e-09 0)
(-1.7177e-11 -2.1579e-09 0)
(0 0 0)
(-2.02756e-11 -4.54542e-10 0)
(-5.34986e-10 -4.18385e-09 0)
(-3.03372e-10 -2.30833e-09 0)
(-4.17647e-10 -5.20655e-09 0)
(-1.32868e-10 -2.17238e-09 0)
(-5.86311e-11 -2.24512e-09 0)
(-9.63054e-11 -2.17882e-09 0)
(-7.14411e-11 -2.32947e-09 0)
(-7.00167e-11 -2.36635e-09 0)
(-8.73967e-11 -2.90217e-09 0)
(2.09129e-10 -4.83714e-09 0)
(0 0 0)
(-1.83428e-10 -4.63288e-09 0)
(-1.03475e-10 -4.71097e-09 0)
(-1.23678e-10 -2.11576e-09 0)
(-1.3998e-10 -2.24063e-09 0)
(-9.14129e-12 -2.56318e-09 0)
(2.17252e-11 -2.46824e-09 0)
(7.31036e-11 -2.11818e-09 0)
(0 0 0)
(1.84415e-10 -2.27772e-09 0)
(2.78302e-10 -2.24077e-09 0)
(2.4135e-10 -2.21852e-09 0)
(9.27215e-11 -2.35478e-09 0)
(-9.02371e-11 -1.84894e-09 0)
(2.63256e-10 -2.19787e-09 0)
(4.26308e-10 -2.21263e-09 0)
(4.15303e-10 -2.25007e-09 0)
(8.90649e-11 -2.08157e-09 0)
(0 0 0)
(3.66442e-10 -3.81098e-09 0)
(6.54668e-11 -9.59087e-10 0)
(6.2196e-11 -2.39068e-09 0)
(3.82636e-10 -5.0446e-09 0)
(1.67972e-10 -2.35003e-09 0)
(7.78416e-11 -2.48938e-09 0)
(-2.47284e-10 -2.4152e-09 0)
(-4.58573e-11 -2.37814e-09 0)
(-1.45304e-11 -2.1452e-09 0)
(3.57781e-11 -5.09971e-09 0)
(6.34531e-11 -2.24359e-09 0)
(7.67055e-12 -2.23677e-09 0)
(1.3624e-11 -4.18063e-10 0)
(6.25268e-11 -1.58767e-09 0)
(1.59139e-10 -2.1043e-09 0)
(3.52715e-10 -3.94863e-09 0)
(8.40624e-11 -4.35384e-09 0)
(-9.72815e-11 -5.76608e-09 0)
(-1.00626e-10 -4.36257e-09 0)
(-5.46963e-11 -7.82721e-10 0)
(-7.1311e-11 -9.91596e-10 0)
(-7.46528e-11 -2.19338e-09 0)
(-2.90544e-11 -2.43231e-09 0)
(-1.22683e-11 -2.26012e-09 0)
(1.91855e-11 -2.33157e-09 0)
(-5.86738e-11 -2.23877e-09 0)
(-4.68722e-11 -6.02722e-09 0)
(5.84674e-11 -2.1588e-09 0)
(5.82046e-11 -2.0949e-09 0)
(8.29742e-11 -2.13691e-09 0)
(0 0 0)
(-2.27392e-10 -2.36893e-09 0)
(-6.18207e-11 -6.51707e-09 0)
(3.73801e-09 8.99981e-08 0)
(3.04338e-10 -1.73786e-09 0)
(1.25003e-10 -8.28661e-10 0)
(1.42959e-10 -1.94553e-09 0)
(2.86711e-10 -2.23427e-09 0)
(2.19415e-10 -4.87871e-09 0)
(2.0057e-10 -2.27535e-09 0)
(2.36745e-10 -2.52468e-09 0)
(9.34106e-11 -2.55001e-09 0)
(0 0 0)
(8.56277e-11 -2.55776e-09 0)
(6.56342e-11 -2.35036e-09 0)
(3.81651e-11 -2.32149e-09 0)
(0 0 0)
(0 0 0)
(0 0 0)
(-2.59958e-11 -5.3206e-10 0)
(-8.97712e-11 -1.7242e-09 0)
(-1.11048e-10 -2.02714e-09 0)
(-1.27709e-10 -2.58907e-09 0)
(-2.37699e-10 -2.65057e-09 0)
(-6.92813e-11 -2.20522e-09 0)
(-5.77432e-12 -4.07076e-09 0)
(1.03546e-10 -3.15497e-09 0)
(0 0 0)
(0 0 0)
(0 0 0)
(-1.43098e-10 -2.42036e-09 0)
(-9.13002e-11 -2.49052e-09 0)
(-7.79962e-11 -3.11545e-09 0)
(-3.19678e-11 -2.81777e-09 0)
(4.60802e-11 -2.92692e-09 0)
(2.23764e-10 -2.54184e-09 0)
(7.38677e-11 -6.44833e-10 0)
(2.6716e-10 -2.47512e-09 0)
(-2.69417e-11 -4.74407e-09 0)
(-6.09762e-11 -2.14442e-09 0)
(3.55421e-10 -2.19625e-09 0)
(4.84928e-10 -2.34157e-09 0)
(3.35727e-10 -2.36769e-09 0)
(2.8953e-10 -2.42164e-09 0)
(3.09656e-10 -2.43414e-09 0)
(2.12535e-10 -2.27862e-09 0)
(1.19365e-10 -2.2636e-09 0)
(3.12106e-10 -2.2306e-09 0)
(6.6452e-11 -2.50635e-09 0)
(2.1307e-10 -2.49237e-09 0)
(-1.22087e-10 -2.46199e-09 0)
(-1.64625e-11 -3.6893e-10 0)
(-8.13707e-11 -1.70661e-09 0)
(-6.59789e-11 -2.14165e-09 0)
(-8.54577e-11 -3.65975e-09 0)
(9.83062e-11 -3.71893e-09 0)
(1.50014e-10 -2.10511e-09 0)
(0 0 0)
(7.13046e-11 -2.00334e-09 0)
(3.15948e-11 -2.25639e-09 0)
(2.8114e-11 -2.11112e-09 0)
(0 0 0)
(-3.02498e-10 -2.19062e-09 0)
(0 0 0)
(-3.90679e-11 -2.29076e-09 0)
(-3.44363e-11 -2.57404e-09 0)
(-1.4743e-10 -2.59205e-09 0)
(-5.59755e-11 -3.07507e-09 0)
(-5.2963e-11 -1.30771e-09 0)
(-1.64439e-10 -5.02951e-09 0)
(-1.32078e-10 -2.18466e-09 0)
(-2.43616e-10 -2.40996e-09 0)
(-1.9569e-11 -2.23462e-09 0)
(6.61725e-11 -2.12181e-09 0)
(2.71625e-11 -2.26329e-09 0)
(3.11959e-11 -2.32979e-09 0)
(-7.23074e-11 -2.61107e-09 0)
(-1.29001e-10 -2.61924e-09 0)
(-1.28742e-09 1.04939e-07 0)
(-2.45097e-10 -2.27362e-09 0)
(2.58071e-11 -2.33782e-09 0)
(6.08402e-11 -2.24366e-09 0)
(1.88373e-10 -2.64364e-09 0)
(2.67989e-10 -3.61495e-09 0)
(3.22947e-10 -2.19084e-09 0)
(3.00324e-10 -2.43487e-09 0)
(6.05998e-11 -2.58127e-09 0)
(2.04709e-10 -6.30131e-09 0)
(7.87497e-11 -2.57417e-09 0)
(1.54684e-11 -2.17876e-09 0)
(-1.52383e-11 -2.07826e-09 0)
(-1.32846e-10 -2.51488e-09 0)
(-3.45327e-10 -5.1285e-09 0)
(-2.49534e-10 -4.53583e-09 0)
(-2.82144e-10 -4.55793e-09 0)
(-2.82509e-12 -2.30823e-09 0)
(1.43933e-10 -2.24838e-09 0)
(-1.45585e-10 -2.88518e-09 0)
(0 0 0)
(-1.76312e-10 -2.33582e-09 0)
(-6.08218e-11 -2.38387e-09 0)
(4.9632e-11 -2.27038e-09 0)
(7.82619e-11 -2.40667e-09 0)
(6.76822e-11 -2.38345e-09 0)
(-3.70334e-10 -6.33988e-09 0)
(1.06089e-11 -9.18086e-10 0)
(4.31245e-11 -3.79294e-09 0)
(1.88979e-11 -2.20071e-09 0)
(3.92624e-11 -2.20136e-09 0)
(3.15571e-11 -2.30485e-09 0)
(8.4371e-11 -2.36405e-09 0)
(4.00057e-10 -2.19201e-09 0)
(1.00183e-10 -2.1303e-09 0)
(2.87789e-10 -2.30405e-09 0)
(4.01521e-10 -4.66978e-09 0)
(2.38115e-10 -2.18856e-09 0)
(5.77859e-10 -2.39573e-09 0)
(3.86563e-10 -2.43572e-09 0)
(1.98693e-10 -2.45282e-09 0)
(1.70431e-10 -2.39158e-09 0)
(2.07365e-10 -2.42153e-09 0)
(3.37332e-11 -2.43034e-09 0)
(-7.2809e-11 -5.37962e-09 0)
(-9.07454e-11 -2.18266e-09 0)
(3.70362e-11 -2.10761e-09 0)
(-1.58842e-10 -2.44866e-09 0)
(6.48714e-11 -2.3878e-09 0)
(-3.90061e-11 -4.06849e-09 0)
(9.16193e-11 -3.35351e-09 0)
(-1.48273e-11 -2.13055e-09 0)
(-4.95584e-11 -1.99781e-09 0)
(6.29689e-11 -2.22674e-09 0)
(7.38536e-11 -2.24116e-09 0)
(3.17421e-11 -2.28935e-09 0)
(7.22732e-11 -2.25941e-09 0)
(1.32729e-10 -4.89878e-09 0)
(3.79154e-11 -4.83895e-09 0)
(-2.0243e-10 -2.1982e-09 0)
(-1.96046e-10 -2.34883e-09 0)
(-1.51179e-10 -2.33919e-09 0)
(-1.62337e-10 -2.2813e-09 0)
(-2.53426e-11 -5.11824e-10 0)
(-8.89085e-11 -4.8984e-09 0)
(-2.48721e-11 -2.31229e-09 0)
(-6.4931e-11 -2.27726e-09 0)
(-7.2126e-11 -2.245e-09 0)
(-9.75243e-11 -2.105e-09 0)
(9.14411e-11 -2.17931e-09 0)
(6.6773e-11 -2.36167e-09 0)
(-5.65558e-12 -2.34588e-09 0)
(-7.88473e-12 -2.38744e-09 0)
(-5.13501e-11 -2.54191e-09 0)
(3.52684e-11 -2.58141e-09 0)
(4.67646e-09 7.79727e-08 0)
(2.86155e-11 8.6717e-11 0)
(3.13273e-10 -1.86933e-09 0)
(3.36926e-10 -2.16476e-09 0)
(2.85406e-10 -6.01581e-09 0)
(4.16617e-11 -4.69179e-10 0)
(2.7772e-10 -3.41195e-09 0)
(0 0 0)
(0 0 0)
(-2.06326e-10 -3.13496e-09 0)
(-1.55774e-10 -4.83408e-09 0)
(-4.13828e-11 -2.18712e-09 0)
(-1.24313e-10 -2.59931e-09 0)
(-8.47114e-11 -2.72586e-09 0)
(-9.89929e-11 -1.86294e-09 0)
(0 0 0)
(7.23942e-11 -2.21895e-09 0)
(-3.06266e-10 -5.61926e-09 0)
(-1.10168e-10 -2.23703e-09 0)
(-3.11027e-11 -2.59923e-09 0)
(-6.39997e-11 -2.39892e-09 0)
(-9.74422e-11 -2.26442e-09 0)
(-3.43745e-11 -2.22455e-09 0)
(5.51727e-11 -2.20226e-09 0)
(1.73065e-11 -2.59969e-09 0)
(8.04221e-13 -3.8019e-10 0)
(2.38849e-12 -1.75321e-09 0)
(4.36129e-11 -2.45724e-09 0)
(-1.32996e-11 -2.29552e-09 0)
(4.872e-11 -2.3744e-09 0)
(1.00561e-10 -2.33104e-09 0)
(-6.00095e-12 -2.29346e-09 0)
(-5.44397e-11 -2.12201e-09 0)
(0 0 0)
(0 0 0)
(2.84262e-10 -6.33461e-09 0)
(0 0 0)
(7.33968e-11 -2.28065e-09 0)
(2.38409e-10 -2.16749e-09 0)
(1.53732e-10 -2.53419e-09 0)
(1.57673e-10 -2.51163e-09 0)
(1.64864e-10 -2.47584e-09 0)
(1.49977e-10 -2.53094e-09 0)
(0 0 0)
(0 0 0)
(-2.72018e-11 -2.40465e-09 0)
(-1.5203e-10 -2.52318e-09 0)
(-1.54618e-10 -2.62762e-09 0)
(-1.38682e-10 -3.52591e-09 0)
(-3.43893e-11 -1.17085e-09 0)
(-2.28498e-11 -9.2827e-10 0)
(-1.34377e-10 -3.38785e-09 0)
(1.04007e-11 -2.25667e-09 0)
(4.08742e-11 -2.31296e-09 0)
(3.29551e-11 -2.30632e-09 0)
(4.59739e-11 -2.30841e-09 0)
(1.21711e-11 -2.30284e-09 0)
(4.42636e-11 -2.18234e-09 0)
(-9.4998e-12 -2.6257e-09 0)
(0 0 0)
(-6.98005e-11 -2.32232e-09 0)
(-1.47884e-10 -2.28242e-09 0)
(-1.79595e-10 -2.25139e-09 0)
(-1.18357e-11 -2.51144e-09 0)
(-1.45491e-10 -2.21687e-09 0)
(6.6472e-11 -5.75922e-09 0)
(8.742e-11 -2.42109e-09 0)
(-3.75764e-11 -2.13168e-09 0)
(-2.8047e-11 -2.02399e-09 0)
(1.63697e-11 -2.2807e-09 0)
(-1.47996e-10 -2.43909e-09 0)
(-4.30618e-11 -2.34741e-09 0)
(2.82484e-12 -2.31858e-09 0)
(2.10131e-11 -2.34849e-09 0)
(8.07908e-11 -2.44352e-09 0)
(5.16529e-09 8.33706e-08 0)
(-1.76335e-10 -2.95292e-10 0)
(0 0 0)
(0 0 0)
(3.7282e-12 -1.90218e-09 0)
(5.11249e-11 -2.10014e-09 0)
(3.37536e-10 -2.92879e-09 0)
(1.53509e-10 -4.81899e-09 0)
(-1.23337e-10 -5.96259e-09 0)
(0 0 0)
(8.47307e-11 -5.32342e-09 0)
(-1.11361e-10 -2.02741e-09 0)
(-8.947e-11 -2.09157e-09 0)
(4.179e-11 -2.37516e-09 0)
(0 0 0)
(-8.79177e-12 -2.21868e-09 0)
(-4.67311e-11 -6.73645e-10 0)
(-1.21622e-10 -1.52143e-09 0)
(-7.02209e-11 -4.76493e-09 0)
(-1.23913e-10 -2.18919e-09 0)
(-6.40381e-11 -2.37868e-09 0)
(-1.07489e-11 -2.45712e-09 0)
(0 0 0)
(2.09504e-10 -2.27153e-09 0)
(-4.19571e-11 -2.46427e-09 0)
(0 0 0)
(4.29009e-11 -4.51677e-09 0)
(8.13701e-11 -3.80267e-09 0)
(3.67421e-11 -3.80394e-09 0)
(2.64832e-11 -2.13951e-09 0)
(-7.10161e-11 -3.41143e-09 0)
(-1.05522e-10 -2.12351e-09 0)
(-1.27467e-10 -1.98805e-09 0)
(2.007e-10 -3.24986e-09 0)
(6.55822e-11 -4.14436e-09 0)
(0 0 0)
(6.87852e-11 -2.47046e-09 0)
(1.03822e-10 -3.82044e-09 0)
(6.11377e-11 -2.75036e-09 0)
(1.03342e-10 -2.40925e-09 0)
(2.19833e-10 -2.48211e-09 0)
(0 0 0)
(0 0 0)
(9.58629e-11 -2.44492e-09 0)
(5.48577e-11 -2.46791e-09 0)
(-2.59256e-11 -2.38612e-09 0)
(-4.20275e-10 -6.27663e-09 0)
(-1.4623e-10 -2.62898e-09 0)
(-1.96239e-12 -8.61015e-10 0)
(-9.96176e-12 -1.58969e-09 0)
(-1.27896e-10 -3.47913e-09 0)
(-3.00142e-11 -4.36338e-10 0)
(-8.85175e-11 -2.25235e-09 0)
(2.33104e-11 -2.42039e-09 0)
(2.37191e-11 -2.3957e-09 0)
(4.15136e-11 -2.3188e-09 0)
(5.20623e-11 -2.65382e-09 0)
(-1.01158e-10 -5.44266e-09 0)
(-2.60344e-11 -1.3267e-09 0)
(-6.94694e-12 -3.12946e-10 0)
(-1.23704e-10 -2.20438e-09 0)
(-1.39927e-10 -2.1763e-09 0)
(-1.79427e-10 -2.13295e-09 0)
(-4.94153e-10 -5.56709e-09 0)
(-4.92787e-11 -2.15286e-09 0)
(-3.80395e-11 -2.4122e-09 0)
(-3.33781e-11 -2.46942e-09 0)
(-7.2005e-11 -2.27462e-09 0)
(-1.23265e-10 -2.23773e-09 0)
(-2.74571e-10 -1.97698e-09 0)
(-1.04414e-10 -2.30381e-09 0)
(-4.30184e-11 -2.28096e-09 0)
(-8.70737e-11 -2.2039e-09 0)
(-2.3715e-11 -2.25808e-09 0)
(6.26845e-12 -2.41561e-09 0)
(-2.92888e-09 8.75612e-08 0)
(-3.3612e-10 -3.64862e-09 0)
(1.19343e-10 -2.04082e-09 0)
(1.17482e-10 -4.15727e-09 0)
(1.06044e-10 -2.80867e-09 0)
(1.05627e-10 -2.09007e-09 0)
(-2.02067e-11 -2.74263e-09 0)
(4.13168e-12 -2.82154e-09 0)
(-2.09937e-11 -2.61965e-09 0)
(5.54137e-11 -2.4492e-09 0)
(-7.78533e-11 -2.29727e-09 0)
(1.64388e-10 -2.25653e-09 0)
(5.29854e-11 -4.94298e-09 0)
(-3.29375e-11 -2.55164e-09 0)
(2.70679e-10 -3.96992e-09 0)
(-1.17547e-10 -4.07273e-09 0)
(-2.19976e-10 -3.63872e-09 0)
(0 0 0)
(1.66279e-11 -2.41315e-09 0)
(-2.99525e-11 -2.33741e-09 0)
(1.57047e-10 -2.36126e-09 0)
(-1.88462e-10 -2.2294e-09 0)
(-1.0803e-10 -2.28739e-09 0)
(4.94131e-11 -5.10084e-09 0)
(4.86583e-11 -2.31066e-09 0)
(0 0 0)
(0 0 0)
(0 0 0)
(0 0 0)
(0 0 0)
(0 0 0)
(0 0 0)
(0 0 0)
(1.65487e-10 -4.71834e-09 0)
(-4.45398e-11 -2.29055e-09 0)
(1.3366e-10 -5.67193e-09 0)
(4.06519e-11 -1.99038e-09 0)
(8.54313e-11 -2.02736e-09 0)
(1.30253e-11 -2.14098e-09 0)
(7.87527e-11 -2.33945e-09 0)
(1.43079e-10 -2.32361e-09 0)
(5.51924e-10 -4.27547e-09 0)
(3.36791e-10 -3.38446e-09 0)
(0 0 0)
(9.1269e-11 -2.44051e-09 0)
(-2.46287e-11 -2.56415e-09 0)
(-2.74602e-10 -2.39408e-09 0)
(-3.72812e-10 -2.48479e-09 0)
(9.70898e-11 -4.93659e-09 0)
(6.90794e-11 -4.86793e-09 0)
(0 0 0)
(-1.66547e-11 -2.14689e-09 0)
(-5.56995e-11 -2.39983e-09 0)
(5.62769e-11 -2.62918e-09 0)
(0 0 0)
(1.41009e-10 -2.28429e-09 0)
(4.35601e-11 -2.40016e-09 0)
(-2.18579e-10 -2.31029e-09 0)
(-9.31607e-11 -6.29449e-09 0)
(-9.18419e-11 -2.32206e-09 0)
(-7.95596e-11 -2.26202e-09 0)
(-2.23715e-10 -2.20679e-09 0)
(-1.92254e-10 -2.14514e-09 0)
(-2.71403e-10 -2.36908e-09 0)
(-1.18743e-10 -2.25333e-09 0)
(1.48736e-10 -5.77656e-09 0)
(2.42282e-12 -2.22195e-10 0)
(2.28211e-11 -2.03502e-09 0)
(1.62061e-10 -2.35348e-09 0)
(6.98224e-11 -2.15025e-09 0)
(-5.15579e-12 -2.55672e-09 0)
(2.41431e-11 -4.72674e-09 0)
(-1.52761e-12 -1.37916e-10 0)
(-2.52742e-11 -2.59552e-09 0)
(-7.88131e-11 -3.04457e-09 0)
(3.44317e-09 8.07644e-08 0)
(2.67012e-10 -6.00375e-10 0)
(1.14046e-10 -2.57658e-09 0)
(3.68007e-11 -2.1956e-09 0)
(9.98007e-11 -2.02669e-09 0)
(1.11522e-10 -2.32489e-09 0)
(1.8298e-10 -2.70192e-09 0)
(6.34075e-11 -2.99109e-09 0)
(2.33058e-11 -1.53294e-09 0)
(9.07963e-11 -3.37121e-09 0)
(-5.74112e-11 -2.40238e-09 0)
(4.35418e-11 -2.24589e-09 0)
(4.36054e-11 -2.13627e-09 0)
(8.22649e-11 -2.32821e-09 0)
(1.56208e-10 -2.29848e-09 0)
(2.40962e-11 -1.97994e-09 0)
(-1.56452e-11 -2.50808e-09 0)
(0 0 0)
(-2.20152e-12 -2.22893e-09 0)
(1.1975e-11 -2.22068e-09 0)
(4.8331e-13 -6.18364e-11 0)
(1.6583e-11 -2.32426e-09 0)
(1.84688e-11 -2.52106e-09 0)
(-7.84908e-11 -2.40112e-09 0)
(1.75041e-10 -2.05089e-09 0)
(2.61257e-10 -2.57634e-09 0)
(2.35159e-10 -2.53442e-09 0)
(1.87452e-10 -2.48753e-09 0)
(2.61755e-11 -7.59117e-10 0)
(1.80959e-10 -6.13503e-09 0)
(1.98612e-10 -2.18873e-09 0)
(3.87365e-11 -2.38186e-09 0)
(3.25084e-13 -2.52285e-10 0)
(-2.20448e-12 -1.75975e-09 0)
(1.08818e-11 -2.79943e-09 0)
(-9.0405e-12 -2.25606e-09 0)
(1.79526e-10 -4.69262e-09 0)
(6.30062e-11 -2.12444e-09 0)
(-5.34482e-11 -2.04576e-09 0)
(-1.23857e-11 -2.23088e-09 0)
(0 0 0)
(7.50347e-11 -7.48261e-10 0)
(3.56476e-10 -4.59445e-09 0)
(1.52118e-10 -2.31663e-09 0)
(5.81929e-11 -6.14774e-09 0)
(-4.59311e-11 -5.66953e-09 0)
(1.26562e-11 -5.67406e-10 0)
(-1.07084e-10 -3.48165e-09 0)
(1.56417e-10 -2.13234e-09 0)
(3.22526e-11 -2.28774e-09 0)
(0 0 0)
(-1.22845e-12 -2.22592e-09 0)
(1.73792e-10 -2.39928e-09 0)
(6.20992e-11 -2.49773e-09 0)
(2.00674e-10 -2.33688e-09 0)
(2.96351e-11 -8.83351e-10 0)
(3.42014e-11 -8.40113e-10 0)
(3.34191e-11 -2.5624e-09 0)
(-1.11993e-10 -2.49121e-09 0)
(-3.51587e-11 -2.42683e-09 0)
(-2.5865e-11 -2.36761e-09 0)
(-1.4179e-10 -2.26852e-09 0)
(-2.0804e-10 -2.21991e-09 0)
(-2.30185e-10 -2.32852e-09 0)
(-1.61318e-10 -2.49521e-09 0)
(-3.25182e-11 -2.40987e-09 0)
(4.02196e-11 -2.35543e-09 0)
(-7.51761e-12 -2.30112e-09 0)
(6.09513e-11 -2.09215e-09 0)
(-2.15196e-11 -1.15669e-09 0)
(-3.47435e-12 -1.69283e-10 0)
(2.82978e-11 -5.85342e-09 0)
(-5.66156e-11 -2.26702e-09 0)
(-2.66597e-11 -2.07043e-09 0)
(-1.16953e-11 -2.31607e-09 0)
(2.05704e-08 7.87693e-08 0)
(-4.48224e-10 -1.45519e-09 0)
(1.44006e-11 -2.42438e-09 0)
(3.46001e-12 -2.1669e-09 0)
(-1.44453e-12 -2.27866e-09 0)
(-1.44662e-10 -2.54392e-09 0)
(2.00621e-10 -2.52663e-09 0)
(2.31667e-10 -2.93055e-09 0)
(6.47437e-11 -2.66252e-09 0)
(7.87814e-11 -2.84282e-09 0)
(4.55346e-11 -8.17728e-10 0)
(9.12649e-11 -1.4552e-09 0)
(1.52807e-10 -2.20073e-09 0)
(0 0 0)
(7.3683e-11 -4.83239e-09 0)
(-5.64481e-11 -2.31324e-09 0)
(-1.22839e-10 -2.14616e-09 0)
(-9.71751e-11 -2.29626e-09 0)
(-5.38119e-11 -2.37501e-09 0)
(-8.52044e-11 -2.38027e-09 0)
(2.72233e-11 -2.52874e-09 0)
(6.95655e-11 -2.49732e-09 0)
(0 0 0)
(0 0 0)
(9.85972e-11 -2.40202e-09 0)
(2.0889e-10 -2.22352e-09 0)
(9.92533e-11 -2.32408e-09 0)
(2.04487e-10 -5.4897e-09 0)
(4.69546e-11 -2.10147e-09 0)
(2.34794e-11 -2.1124e-09 0)
(-3.73299e-11 -2.02338e-09 0)
(1.19418e-10 -2.19396e-09 0)
(6.7155e-11 -2.25134e-09 0)
(1.9542e-10 -2.39703e-09 0)
(1.97879e-11 -2.65836e-09 0)
(3.11383e-11 -2.51565e-09 0)
(1.42115e-10 -3.32156e-09 0)
(1.19717e-10 -3.25364e-09 0)
(1.77781e-11 -2.10996e-09 0)
(0 0 0)
(1.6989e-10 -3.46588e-09 0)
(3.23539e-10 -4.24812e-09 0)
(8.98444e-11 -2.82372e-09 0)
(-2.53757e-10 -2.6787e-09 0)
(0 0 0)
(8.64328e-11 -2.26906e-09 0)
(1.37584e-10 -2.38855e-09 0)
(7.70696e-11 -2.11862e-09 0)
(-5.12468e-11 -2.6292e-09 0)
(-1.25014e-11 -1.13321e-09 0)
(-6.79221e-12 -1.45534e-09 0)
(-6.64648e-12 -1.17e-09 0)
(-6.07569e-11 -2.39482e-09 0)
(8.01734e-11 -2.16394e-09 0)
(1.48816e-10 -2.15168e-09 0)
(1.01125e-10 -2.67885e-09 0)
(4.33741e-11 -4.99923e-09 0)
(4.41491e-11 -2.35e-09 0)
(-1.26188e-10 -2.28549e-09 0)
(-4.59813e-11 -2.54497e-09 0)
(2.70885e-13 -1.06535e-09 0)
(-4.20043e-11 -2.56518e-09 0)
(-1.15808e-10 -2.23666e-09 0)
(-5.53097e-12 -2.397e-09 0)
(-1.04856e-10 -2.39983e-09 0)
(4.13725e-12 -2.15298e-09 0)
(-9.40458e-11 -2.38098e-09 0)
(-1.06811e-10 -2.52826e-09 0)
(-1.95979e-10 -2.27447e-09 0)
(-7.21096e-11 -2.19742e-09 0)
(-7.66304e-11 -2.29832e-09 0)
(-9.56309e-11 -3.44847e-09 0)
(-3.74288e-11 -1.17381e-09 0)
(-2.74135e-11 -2.34264e-09 0)
(3.32671e-11 -2.35454e-09 0)
(1.69749e-09 8.58148e-08 0)
(8.74079e-10 3.76091e-09 0)
(1.00972e-11 -1.99797e-09 0)
(1.18121e-11 -2.14568e-09 0)
(-2.12383e-10 -1.90764e-09 0)
(-1.55231e-11 -2.25079e-09 0)
(2.67921e-11 -2.63777e-09 0)
(-1.03555e-10 -3.07049e-09 0)
(0 0 0)
(3.68063e-11 -2.89495e-09 0)
(1.95033e-10 -3.81263e-09 0)
(1.47426e-10 -2.47262e-09 0)
(4.35377e-11 -7.13354e-10 0)
(1.72683e-10 -5.10294e-09 0)
(-6.82944e-11 -2.22668e-09 0)
(-3.16539e-11 -2.3711e-09 0)
(-2.20305e-10 -3.48152e-09 0)
(-1.40904e-10 -2.61889e-09 0)
(-5.59678e-11 -9.64601e-10 0)
(-3.33985e-11 -2.23921e-09 0)
(4.08339e-11 -3.82859e-09 0)
(3.64311e-11 -4.07461e-09 0)
(1.00297e-10 -2.43234e-09 0)
(2.86921e-10 -2.0937e-09 0)
(1.14466e-11 -2.47198e-09 0)
(1.01988e-10 -5.23806e-09 0)
(3.55586e-11 -2.17154e-09 0)
(9.49344e-11 -2.2894e-09 0)
(6.42104e-11 -2.30981e-09 0)
(2.38929e-11 -2.26241e-09 0)
(4.41936e-11 -2.13749e-09 0)
(8.53862e-11 -2.07283e-09 0)
(2.10565e-11 -2.25487e-09 0)
(1.01515e-10 -5.67931e-09 0)
(6.45994e-11 -2.20503e-09 0)
(5.99796e-11 -1.97862e-09 0)
(4.19606e-11 -2.0519e-09 0)
(2.06159e-12 -2.13167e-09 0)
(7.90446e-11 -2.18369e-09 0)
(4.61704e-11 -2.16974e-09 0)
(5.15679e-11 -2.07773e-09 0)
(3.59759e-11 -4.3309e-09 0)
(5.67568e-11 -7.59321e-09 0)
(0 0 0)
(-4.18053e-10 -5.44113e-09 0)
(-5.77017e-11 -2.30786e-09 0)
(0 0 0)
(1.27439e-10 -2.24073e-09 0)
(1.52909e-11 -2.42888e-09 0)
(2.28869e-11 -4.58944e-09 0)
(1.0425e-10 -2.95485e-09 0)
(2.17219e-11 -2.50516e-09 0)
(4.71715e-11 -2.0889e-09 0)
(1.19809e-10 -2.11893e-09 0)
(1.79416e-10 -2.25381e-09 0)
(7.34639e-11 -2.4023e-09 0)
(-6.71838e-11 -4.58958e-09 0)
(4.53066e-11 -3.06556e-09 0)
(1.22945e-11 -6.04551e-10 0)
(2.12624e-11 -1.17776e-09 0)
(1.74189e-10 -2.36552e-09 0)
(5.46331e-11 -2.29987e-09 0)
(-1.39595e-10 -2.51706e-09 0)
(-1.45767e-10 -2.35358e-09 0)
(-1.94757e-10 -2.32032e-09 0)
(-1.70809e-11 -2.30415e-09 0)
(-2.2159e-11 -2.27043e-09 0)
(-5.47327e-11 -2.38523e-09 0)
(-1.32528e-11 -3.72497e-09 0)
(-1.54579e-10 -3.40236e-09 0)
(-1.46817e-10 -2.17669e-09 0)
(-1.26613e-10 -2.26452e-09 0)
(-5.80273e-12 -2.28399e-09 0)
(-2.28611e-11 -2.29216e-09 0)
(-6.55193e-11 -2.29998e-09 0)
(1.5241e-08 9.03141e-08 0)
(-7.49884e-11 -1.6035e-09 0)
(-8.86653e-12 -2.20127e-09 0)
(-1.18448e-12 -2.27614e-09 0)
(-7.34173e-11 -2.04141e-09 0)
(-7.28848e-12 -2.67497e-09 0)
(-7.37626e-11 -2.84656e-09 0)
(-4.99538e-11 -2.8869e-09 0)
(7.78038e-11 -2.38141e-09 0)
(1.17496e-10 -2.19544e-09 0)
(9.40456e-11 -2.25938e-09 0)
(1.22358e-10 -2.32038e-09 0)
(1.61292e-11 -2.51624e-09 0)
(5.99809e-11 -2.29984e-09 0)
(0 0 0)
(8.61692e-11 -2.57561e-09 0)
(-9.21195e-11 -2.50484e-09 0)
(-5.07083e-11 -2.29481e-09 0)
(-7.12192e-12 -2.22686e-09 0)
(2.6501e-11 -2.24002e-09 0)
(-3.83574e-11 -2.34897e-09 0)
(-1.66695e-11 -3.65107e-09 0)
(6.76755e-11 -3.82024e-09 0)
(5.20147e-11 -2.20427e-09 0)
(1.72072e-11 -2.63083e-09 0)
(-2.21567e-11 -2.23746e-09 0)
(7.17485e-11 -2.32719e-09 0)
(2.9435e-11 -2.31957e-09 0)
(1.08982e-10 -4.57246e-09 0)
(4.16007e-11 -2.7334e-09 0)
(9.18249e-11 -2.19138e-09 0)
(3.33717e-11 -2.23243e-09 0)
(4.02712e-11 -2.23188e-09 0)
(-2.25677e-11 -2.35589e-09 0)
(1.01747e-10 -3.98843e-09 0)
(-2.84005e-11 -2.9904e-09 0)
(-4.56692e-11 -2.05366e-09 0)
(1.49983e-11 -2.10311e-09 0)
(-5.19624e-12 -2.2864e-09 0)
(-1.32155e-11 -2.38976e-09 0)
(-2.02661e-10 -4.69356e-09 0)
(-1.53076e-10 -2.12189e-09 0)
(-2.46671e-10 -2.56156e-09 0)
(5.17734e-11 -2.86149e-09 0)
(0 0 0)
(6.70057e-11 -4.98709e-09 0)
(1.06867e-10 -2.1631e-09 0)
(0 0 0)
(-1.85409e-11 -2.23731e-09 0)
(4.36228e-11 -2.45597e-09 0)
(2.46219e-11 -2.42946e-09 0)
(1.4029e-10 -2.76921e-09 0)
(1.31217e-10 -2.45002e-09 0)
(1.74447e-10 -2.68696e-09 0)
(3.29418e-10 -4.81032e-09 0)
(1.12413e-10 -2.48739e-09 0)
(-1.07179e-10 -2.49765e-09 0)
(-1.59294e-10 -2.31771e-09 0)
(-1.35539e-10 -2.26603e-09 0)
(-1.38271e-10 -2.59927e-09 0)
(-1.27738e-10 -2.27608e-09 0)
(-1.36977e-10 -2.21242e-09 0)
(-2.72554e-12 -2.31952e-09 0)
(-4.09047e-11 -2.29816e-09 0)
(-1.15985e-11 -2.1676e-09 0)
(-3.28417e-11 -2.28008e-09 0)
(-1.40962e-10 -2.30861e-09 0)
(-1.33996e-11 -2.12582e-09 0)
(-3.81866e-11 -2.33918e-09 0)
(-2.45083e-11 -2.41402e-09 0)
(-2.21326e-10 -2.44384e-09 0)
(-1.3564e-10 -3.88141e-09 0)
(-3.44499e-10 -3.55895e-09 0)
(-9.91065e-11 -2.2101e-09 0)
(-1.76771e-10 -2.2544e-09 0)
(-2.17104e-09 6.3847e-08 0)
(-6.03343e-10 -3.46374e-09 0)
(1.47137e-10 -2.20528e-09 0)
(2.44327e-11 -1.07493e-09 0)
(-2.3889e-11 -1.80653e-09 0)
(-2.35535e-11 -7.2443e-10 0)
(-8.80854e-11 -2.61016e-09 0)
(5.71086e-11 -2.66828e-09 0)
(3.38908e-10 -5.70114e-09 0)
(1.63576e-10 -2.15238e-09 0)
(5.82561e-11 -2.27071e-09 0)
(-5.14839e-12 -2.66081e-09 0)
(0 0 0)
(9.76108e-11 -2.29675e-09 0)
(2.68867e-10 -2.39508e-09 0)
(2.71784e-11 -2.4895e-09 0)
(1.04053e-10 -2.41208e-09 0)
(4.86162e-12 -2.40377e-09 0)
(-5.68435e-11 -2.04654e-09 0)
(3.96939e-11 -2.25641e-09 0)
(-8.10033e-11 -3.27345e-09 0)
(-1.15977e-11 -3.33352e-09 0)
(4.98561e-12 -4.6248e-10 0)
(-6.90163e-12 -2.57316e-09 0)
(8.50296e-12 -2.96083e-09 0)
(5.47541e-12 -2.47997e-09 0)
(5.30546e-11 -1.82935e-09 0)
(-1.27888e-11 -2.38725e-09 0)
(4.3714e-11 -2.3627e-09 0)
(1.3606e-10 -2.96768e-09 0)
(6.069e-11 -4.45978e-09 0)
(-3.22936e-11 -2.11007e-09 0)
(4.31641e-11 -2.30738e-09 0)
(3.7657e-11 -2.27365e-09 0)
(4.47077e-11 -2.28306e-09 0)
(5.37327e-11 -2.04407e-09 0)
(2.92919e-11 -1.89311e-09 0)
(-1.00273e-10 -2.20374e-09 0)
(-9.87068e-11 -2.63594e-09 0)
(-3.80831e-11 -2.43257e-09 0)
(-1.57206e-10 -2.22428e-09 0)
(-2.2179e-10 -2.17836e-09 0)
(-5.05372e-11 -2.7457e-09 0)
(0 0 0)
(5.84928e-11 -2.73333e-09 0)
(0 0 0)
(1.03977e-10 -2.21891e-09 0)
(9.88072e-11 -2.48904e-09 0)
(0 0 0)
(0 0 0)
(4.95709e-11 -2.40579e-09 0)
(2.59012e-10 -5.67683e-09 0)
(2.15939e-10 -2.17228e-09 0)
(7.11225e-11 -2.05807e-09 0)
(1.02788e-10 -2.26346e-09 0)
(2.13466e-10 -3.08345e-09 0)
(-4.04591e-11 -2.85973e-09 0)
(0 0 0)
(-1.35557e-10 -2.40488e-09 0)
(-1.52446e-10 -2.42793e-09 0)
(-1.86919e-10 -2.41717e-09 0)
(-1.71597e-10 -2.39081e-09 0)
(-1.90123e-10 -2.29971e-09 0)
(-1.39662e-10 -3.98326e-09 0)
(6.78494e-11 -2.76981e-09 0)
(-1.0574e-11 -2.78084e-09 0)
(-7.44686e-12 -2.12862e-09 0)
(8.63629e-12 -2.21848e-09 0)
(-7.29657e-11 -3.28366e-09 0)
(-9.81779e-11 -4.20171e-09 0)
(-1.39577e-10 -2.25259e-09 0)
(-1.73547e-10 -2.52953e-09 0)
(-1.14876e-10 -2.56593e-09 0)
(-8.21476e-11 -2.53616e-09 0)
(-1.77336e-10 -2.20393e-09 0)
(-6.29688e-10 9.70905e-08 0)
(1.44831e-09 5.28582e-09 0)
(1.01628e-10 -2.5655e-09 0)
(1.37232e-10 -2.42043e-09 0)
(8.2555e-12 -2.42114e-09 0)
(-8.89091e-11 -2.42038e-09 0)
(-9.68595e-11 -2.51082e-09 0)
(1.06036e-11 -2.52852e-09 0)
(4.72242e-11 -2.46151e-09 0)
(2.37654e-10 -2.54271e-09 0)
(1.94875e-11 -2.53535e-09 0)
(-3.23207e-11 -2.41689e-09 0)
(7.45236e-11 -2.20007e-09 0)
(6.99625e-11 -2.13214e-09 0)
(-1.54724e-10 -2.32591e-09 0)
(1.71196e-10 -2.68046e-09 0)
(2.54382e-10 -2.38653e-09 0)
(4.20895e-11 -2.27697e-09 0)
(-1.98266e-10 -2.38433e-09 0)
(-3.10681e-11 -2.08919e-09 0)
(-2.98165e-11 -2.37526e-09 0)
(-2.16008e-11 -2.39535e-09 0)
(2.94405e-10 -2.46959e-09 0)
(-3.70678e-13 -2.52943e-09 0)
(1.0289e-10 -2.48993e-09 0)
(2.18554e-11 -9.1926e-10 0)