/*--------------------------------*- C++ -*----------------------------------*\
  =========                 |
  \\      /  F ield         | OpenFOAM: The Open Source CFD Toolbox
   \\    /   O peration     | Website:  https://openfoam.org
    \\  /    A nd           | Version:  12
     \\/     M anipulation  |
\*---------------------------------------------------------------------------*/
FoamFile
{
    format      ascii;
    class       volScalarField::Internal;
    location    "0.35";
    object      cloud:UCoeff;
}
// * * * * * * * * * * * * * * * * * * * * * * * * * * * * * * * * * * * * * //

dimensions      [1 0 0 0 0 0 0];

value           nonuniform List<scalar> 
3750
(
7.93152e-06
2.1108e-07
1.67924e-07
0
6.99817e-08
0
7.13824e-08
7.35473e-08
1.67343e-07
6.47741e-08
7.16134e-08
0
7.02572e-08
6.99157e-08
6.91414e-08
1.72842e-07
6.84285e-08
6.61668e-08
7.11982e-08
6.95639e-08
0
7.49042e-08
0
7.0294e-08
7.03682e-08
1.62625e-07
6.84871e-08
1.65046e-07
7.03745e-08
0
7.12208e-08
7.01852e-08
6.85196e-08
6.99718e-08
6.63515e-08
6.85537e-08
7.05986e-08
0
6.77781e-08
0
6.9396e-08
1.61847e-07
6.94758e-08
0
7.02202e-08
0
7.26551e-08
1.6446e-07
6.96274e-08
6.68582e-08
3.66287e-09
6.28384e-08
7.08432e-08
0
6.81406e-08
6.89277e-08
6.86248e-08
1.70239e-07
6.66748e-08
1.64937e-07
6.55237e-08
7.05517e-08
7.11382e-08
7.11905e-08
7.02798e-08
6.99278e-08
7.0284e-08
7.15515e-08
7.02349e-08
1.65563e-07
6.79928e-08
6.78051e-08
0
7.35211e-08
7.37229e-08
5.01232e-06
4.42672e-08
1.66327e-07
6.89392e-08
0
0
6.5187e-08
7.00459e-08
6.45577e-08
1.58759e-07
6.70377e-08
6.94017e-08
0
0
6.76787e-08
6.94914e-08
6.96967e-08
6.797e-08
6.68076e-08
2.91341e-07
1.70595e-07
0
0
6.95767e-08
0
6.92336e-08
0
1.63777e-07
3.04229e-07
6.74463e-08
6.59467e-08
7.2799e-08
0
6.80909e-08
6.85028e-08
1.61848e-07
6.6575e-08
6.90704e-08
6.38702e-08
0
6.72441e-08
2.73588e-07
6.60578e-08
6.9667e-08
0
7.1343e-08
7.17789e-08
2.84409e-07
1.6577e-07
1.15258e-07
1.03702e-07
6.91268e-08
6.83802e-08
6.79022e-08
6.81074e-08
0
2.31704e-08
1.07279e-07
6.78681e-08
6.63452e-08
0
0
6.8802e-08
1.65925e-07
6.86254e-08
0
6.72715e-08
0
6.97023e-08
6.84178e-08
8.6234e-08
1.28905e-07
6.67338e-08
7.07306e-08
7.26999e-08
8.07698e-06
3.40803e-07
1.56043e-07
1.6567e-07
6.60142e-08
7.44561e-08
0
7.0621e-08
7.17378e-08
1.16111e-07
2.19083e-08
6.79731e-08
1.02274e-07
1.27934e-07
6.65154e-08
2.83782e-07
9.4307e-08
6.20126e-08
8.88307e-08
9.88859e-08
1.81857e-08
1.29639e-07
6.74558e-08
6.74874e-08
6.81744e-08
6.63976e-08
1.14284e-07
1.14823e-07
1.95267e-08
1.16246e-07
1.57879e-07
6.63339e-08
6.8304e-08
6.74932e-08
7.03779e-08
0
6.53877e-08
1.71811e-07
6.74881e-08
7.18932e-08
7.05082e-08
7.09354e-08
6.39444e-08
0
1.66004e-07
9.45959e-10
1.73596e-07
0
0
7.01441e-08
6.91119e-08
6.75656e-08
6.8535e-08
6.78758e-08
6.98843e-08
7.19699e-08
6.74422e-08
6.64227e-08
0
6.74914e-08
6.62355e-08
6.96507e-08
1.25838e-07
9.83972e-08
2.39285e-08
2.42558e-08
6.69533e-08
6.9084e-08
1.73478e-07
6.82378e-08
6.58707e-08
6.6984e-08
6.81151e-08
7.2111e-08
7.35735e-08
5.93513e-06
1.12726e-07
6.95748e-08
7.08284e-08
1.31451e-07
9.22857e-08
0
6.96253e-08
7.18397e-08
7.12113e-08
6.70827e-08
0
1.39891e-08
1.33434e-07
6.90247e-08
1.66012e-07
6.7296e-08
6.80936e-08
6.73493e-08
6.90501e-08
6.94606e-08
8.83636e-08
1.45314e-07
0
1.59572e-07
1.60408e-07
6.66335e-08
6.80842e-08
7.15953e-08
7.05713e-08
6.66335e-08
0
6.85401e-08
6.82327e-08
6.79321e-08
6.93407e-08
6.33936e-08
6.77259e-08
6.81821e-08
6.85756e-08
6.62112e-08
0
1.12305e-07
2.72291e-08
6.97278e-08
1.64242e-07
6.93341e-08
7.08129e-08
7.01293e-08
6.95849e-08
7.03734e-08
1.60178e-07
6.80781e-08
6.79897e-08
1.20401e-08
4.69919e-08
6.65259e-08
1.27087e-07
1.50638e-07
2.04692e-07
1.56478e-07
2.29583e-08
3.01716e-08
6.51465e-08
6.98012e-08
6.8256e-08
6.90621e-08
6.80215e-08
1.74351e-07
6.71013e-08
6.63542e-08
6.68564e-08
0
6.95996e-08
1.79153e-07
6.94389e-06
1.66711e-07
3.13047e-08
5.75956e-08
6.81712e-08
1.62388e-07
6.8529e-08
7.13009e-08
7.14727e-08
0
7.15524e-08
6.92813e-08
6.89518e-08
0
0
0
1.54703e-08
5.16221e-08
5.8502e-08
7.19049e-08
7.26357e-08
6.76407e-08
1.21443e-07
1.01676e-07
0
0
0
7.00929e-08
7.08305e-08
9.11366e-08
8.31954e-08
8.53777e-08
7.2002e-08
1.80725e-08
7.08025e-08
1.60787e-07
6.69357e-08
6.78556e-08
6.97288e-08
6.97281e-08
7.02508e-08
7.04139e-08
6.85776e-08
6.83306e-08
6.81685e-08
7.09925e-08
7.09305e-08
7.05351e-08
1.05336e-08
5.01612e-08
6.69052e-08
1.11385e-07
1.14739e-07
6.65284e-08
0
6.52711e-08
6.82159e-08
6.65385e-08
0
6.77018e-08
0
7.20651e-08
7.39324e-08
7.61811e-08
8.77169e-08
3.73942e-08
1.63958e-07
6.74382e-08
7.00677e-08
6.7966e-08
6.66725e-08
6.82933e-08
6.90437e-08
7.21147e-08
7.22258e-08
6.07356e-06
1.26543e-07
6.91325e-08
6.80766e-08
7.58898e-08
1.12771e-07
6.77373e-08
7.04087e-08
7.1796e-08
1.77138e-07
7.17257e-08
6.73237e-08
6.61497e-08
7.6515e-08
1.57993e-07
1.5854e-07
1.58836e-07
6.87992e-08
6.81748e-08
7.49818e-08
0
6.91834e-08
6.96522e-08
6.83783e-08
6.99095e-08
6.96495e-08
1.77495e-07
2.64606e-08
1.1179e-07
6.75775e-08
6.75879e-08
6.87637e-08
6.94405e-08
6.78961e-08
6.6789e-08
6.89553e-08
1.60286e-07
6.75866e-08
7.05331e-08
7.05498e-08
7.04902e-08
6.97963e-08
7.01572e-08
7.01584e-08
1.67673e-07
6.73911e-08
6.64994e-08
7.04135e-08
6.96968e-08
1.24932e-07
9.92473e-08
6.67635e-08
6.51963e-08
6.78854e-08
6.80537e-08
6.85891e-08
6.82608e-08
1.62499e-07
1.61785e-07
6.76551e-08
6.93456e-08
6.92014e-08
6.85614e-08
1.48183e-08
1.40492e-07
6.88465e-08
6.84605e-08
6.80968e-08
6.64905e-08
6.73518e-08
6.94076e-08
6.92211e-08
6.96831e-08
7.13726e-08
7.17921e-08
4.30034e-06
3.10068e-08
6.39464e-08
6.7465e-08
1.74191e-07
1.55779e-08
1.09802e-07
0
0
9.07134e-08
1.45655e-07
6.74239e-08
7.20113e-08
7.33252e-08
6.35703e-08
0
6.77998e-08
1.70248e-07
6.80238e-08
7.1981e-08
6.98194e-08
6.83283e-08
6.78532e-08
6.76024e-08
7.19851e-08
1.0728e-08
5.05642e-08
7.04545e-08
6.86566e-08
6.95441e-08
6.90797e-08
6.86331e-08
6.6672e-08
0
0
1.77444e-07
0
6.8502e-08
6.73453e-08
7.13343e-08
7.10948e-08
7.07131e-08
7.12973e-08
0
0
6.98749e-08
7.12146e-08
7.23286e-08
1.04294e-07
3.42408e-08
2.63694e-08
1.08258e-07
6.82167e-08
6.88566e-08
6.87805e-08
6.88065e-08
6.87391e-08
6.73704e-08
7.22611e-08
0
6.89693e-08
6.85629e-08
6.82384e-08
7.10389e-08
6.78173e-08
1.71616e-07
7.00716e-08
6.67801e-08
6.55058e-08
6.84896e-08
7.03012e-08
6.92426e-08
6.89157e-08
6.92514e-08
7.03147e-08
9.33594e-06
9.66701e-08
0
0
6.4026e-08
6.64138e-08
1.04676e-07
1.61688e-07
1.73699e-07
0
1.67081e-07
6.55802e-08
6.63283e-08
6.9551e-08
0
6.77835e-08
1.90146e-08
4.51873e-08
1.52968e-07
6.74847e-08
6.95955e-08
7.04492e-08
0
6.8495e-08
7.05308e-08
0
1.33956e-07
1.17503e-07
1.1102e-07
6.29158e-08
1.00491e-07
6.67117e-08
6.51213e-08
1.00022e-07
1.27947e-07
0
7.06049e-08
1.26923e-07
8.61726e-08
6.99484e-08
7.08275e-08
0
0
7.03362e-08
7.05733e-08
6.96701e-08
1.76946e-07
7.23389e-08
2.42257e-08
4.65195e-08
1.03633e-07
1.33353e-08
6.81873e-08
7.00477e-08
6.97757e-08
6.89223e-08
8.11084e-08
1.57258e-07
3.54924e-08
8.7704e-09
6.76586e-08
6.73474e-08
6.68804e-08
1.69842e-07
6.70299e-08
6.99597e-08
7.05856e-08
6.84328e-08
6.80397e-08
6.51701e-08
6.87764e-08
6.84962e-08
6.7633e-08
6.82338e-08
6.99938e-08
4.35179e-06
2.2994e-07
6.57419e-08
1.27561e-07
9.13908e-08
6.63201e-08
7.34842e-08
7.4296e-08
7.21974e-08
7.03693e-08
6.86906e-08
6.82832e-08
1.62982e-07
8.20682e-08
1.38817e-07
1.22515e-07
1.054e-07
0
6.99674e-08
6.91288e-08
6.94511e-08
6.7997e-08
6.85935e-08
1.647e-07
6.88326e-08
0
0
0
0
0
0
0
0
1.60558e-07
6.8605e-08
1.70738e-07
6.51027e-08
6.55652e-08
6.68859e-08
6.91644e-08
6.9022e-08
1.28556e-07
9.85396e-08
0
7.0286e-08
7.16071e-08
6.9932e-08
7.10536e-08
1.62966e-07
1.62194e-07
0
6.69546e-08
6.9827e-08
7.23035e-08
0
6.8579e-08
6.9828e-08
6.89392e-08
1.76974e-07
6.89748e-08
6.82932e-08
6.77776e-08
6.70345e-08
6.96524e-08
6.82142e-08
1.71813e-07
6.29169e-09
5.86628e-08
6.93684e-08
6.70063e-08
7.94965e-08
1.50528e-07
4.14742e-09
7.90234e-08
8.90934e-08
5.89041e-06
3.03651e-07
9.81045e-08
6.75217e-08
6.5565e-08
6.90165e-08
7.31256e-08
7.60113e-08
3.96701e-08
9.36826e-08
6.98556e-08
6.80983e-08
6.68354e-08
6.90399e-08
6.87496e-08
6.49774e-08
7.10026e-08
0
6.78999e-08
6.78063e-08
1.76459e-09
6.69697e-08
7.11432e-08
6.98484e-08
6.59144e-08
7.18769e-08
7.14037e-08
7.08568e-08
2.47047e-08
2.13718e-07
6.75418e-08
6.96248e-08
7.49719e-09
5.38041e-08
8.58583e-08
6.6725e-08
1.47409e-07
6.67031e-08
6.5772e-08
6.79229e-08
0
2.1105e-08
1.28926e-07
6.89498e-08
1.75563e-07
1.7071e-07
1.80892e-08
1.17991e-07
6.68521e-08
6.85711e-08
0
6.7866e-08
6.98838e-08
7.08991e-08
6.92176e-08
2.49033e-08
2.45171e-08
7.15888e-08
7.08474e-08
7.01201e-08
6.9465e-08
6.84016e-08
6.79092e-08
6.91549e-08
7.092e-08
6.99331e-08
6.93314e-08
6.87194e-08
6.63235e-08
3.39553e-08
5.26363e-09
1.72573e-07
6.83418e-08
6.60581e-08
6.88878e-08
8.10728e-06
1.14746e-07
7.00908e-08
6.71869e-08
6.84652e-08
7.14309e-08
7.12885e-08
7.54909e-08
7.26566e-08
7.45254e-08
2.19562e-08
4.05968e-08
6.29201e-08
0
1.61764e-07
6.88635e-08
6.69873e-08
6.86876e-08
6.95521e-08
6.96205e-08
7.12269e-08
7.08965e-08
0
0
6.98668e-08
6.79513e-08
6.90013e-08
1.68872e-07
6.64278e-08
6.65522e-08
6.55004e-08
6.75366e-08
6.81674e-08
6.98774e-08
7.78442e-08
7.58743e-08
1.04201e-07
1.01399e-07
6.6523e-08
0
1.07045e-07
1.23097e-07
7.43328e-08
7.29456e-08
0
6.83756e-08
6.97396e-08
6.66404e-08
7.23022e-08
3.25938e-08
4.33982e-08
3.46813e-08
6.97732e-08
6.71695e-08
6.70698e-08
8.22267e-08
1.51677e-07
6.92717e-08
6.85826e-08
7.14044e-08
3.29904e-08
8.54933e-08
6.80231e-08
6.97888e-08
6.98454e-08
6.70247e-08
6.96322e-08
7.12449e-08
6.85144e-08
6.75526e-08
6.87024e-08
1.02141e-07
3.55395e-08
6.91867e-08
6.93203e-08
4.82749e-06
3.15427e-07
6.51937e-08
6.69396e-08
6.42368e-08
6.81504e-08
7.23888e-08
7.68071e-08
0
8.41219e-08
1.07331e-07
7.06679e-08
2.0489e-08
1.64749e-07
6.78867e-08
6.95043e-08
9.94404e-08
7.96403e-08
3.00715e-08
6.69052e-08
1.13191e-07
1.18476e-07
7.02006e-08
6.65629e-08
7.06113e-08
1.6619e-07
6.72431e-08
6.86094e-08
6.88271e-08
7.08666e-08
6.42601e-08
6.61056e-08
7.01687e-08
1.68173e-07
6.76368e-08
6.49679e-08
6.58416e-08
6.67766e-08
6.73968e-08
6.72245e-08
6.61502e-08
1.29225e-07
2.191e-07
0
1.68625e-07
6.88034e-08
0
6.80765e-08
7.01402e-08
1.37144e-07
8.67834e-08
7.0972e-08
6.62808e-08
6.66677e-08
6.82657e-08
6.98597e-08
1.36273e-07
8.90635e-08
1.76229e-08
3.57524e-08
6.95122e-08
6.87126e-08
7.11416e-08
6.93576e-08
6.90272e-08
6.87539e-08
6.83739e-08
6.96655e-08
1.13653e-07
1.09352e-07
6.73572e-08
6.83459e-08
6.85261e-08
6.86197e-08
6.87171e-08
8.29664e-06
1.70586e-07
6.75818e-08
6.84373e-08
6.5727e-08
7.27784e-08
7.45602e-08
7.49638e-08
6.96305e-08
6.75519e-08
6.82696e-08
6.89722e-08
7.10913e-08
6.87138e-08
0
7.17428e-08
7.09861e-08
6.86545e-08
6.78767e-08
6.80287e-08
6.92592e-08
1.08854e-07
1.1891e-07
6.76243e-08
7.23148e-08
6.79988e-08
6.90247e-08
6.89289e-08
1.34829e-07
8.72209e-08
6.74913e-08
6.7943e-08
6.79381e-08
6.93339e-08
1.21268e-07
9.88987e-08
6.58633e-08
6.64426e-08
6.85533e-08
7.38358e-08
1.54926e-07
6.67273e-08
7.17035e-08
7.47079e-08
0
1.63486e-07
6.71733e-08
0
6.79968e-08
7.04406e-08
7.01472e-08
7.37952e-08
7.04101e-08
8.58656e-08
1.45144e-07
7.08059e-08
7.09151e-08
6.89676e-08
6.83688e-08
7.20194e-08
6.84775e-08
6.77601e-08
6.89261e-08
6.86901e-08
6.71947e-08
6.84846e-08
6.88527e-08
6.67084e-08
6.91498e-08
6.99778e-08
7.0414e-08
1.15958e-07
1.10551e-07
6.771e-08
6.82697e-08
3.23878e-06
2.73224e-07
6.76846e-08
3.09634e-08
5.61617e-08
2.26353e-08
7.21109e-08
7.27151e-08
1.71022e-07
6.70901e-08
6.83842e-08
7.26305e-08
0
6.86936e-08
6.99343e-08
7.0803e-08
6.998e-08
6.98635e-08
6.57825e-08
6.82175e-08
9.75554e-08
9.71349e-08
1.33334e-08
7.17019e-08
8.74635e-08
7.18064e-08
5.09478e-08
6.96813e-08
6.94131e-08
9.15656e-08
1.38128e-07
6.6526e-08
6.87943e-08
6.84127e-08
6.85204e-08
6.57511e-08
6.39152e-08
6.76381e-08
7.23875e-08
7.01837e-08
6.79106e-08
6.74501e-08
7.35194e-08
0
7.33945e-08
0
6.78139e-08
7.08177e-08
0
0
6.98913e-08
1.70829e-07
6.73729e-08
6.59237e-08
6.83204e-08
7.69858e-08
7.46896e-08
0
6.99181e-08
7.01823e-08
7.00911e-08
6.97888e-08
6.87924e-08
1.20243e-07
9.76391e-08
7.91124e-08
6.17299e-08
6.77805e-08
1.03014e-07
1.25033e-07
6.82192e-08
7.12983e-08
7.16521e-08
7.13199e-08
6.76954e-08
5.99884e-06
3.97585e-07
7.16378e-08
7.00896e-08
7.0055e-08
7.00646e-08
7.10523e-08
7.12233e-08
7.05019e-08
7.1495e-08
7.12974e-08
7.00104e-08
6.75835e-08
6.67953e-08
6.9056e-08
7.2894e-08
6.98239e-08
6.84511e-08
6.97406e-08
6.62809e-08
6.95501e-08
6.97716e-08
7.07762e-08
7.12328e-08
7.08294e-08
2.64899e-08
2.02045e-08
6.84662e-08
6.89912e-08
6.89332e-08
6.91916e-08
6.92021e-08
6.94959e-08
1.05717e-07
1.22777e-07
6.57986e-08
6.78045e-08
6.86449e-08
7.22736e-08
0
6.94499e-08
6.94707e-08
7.19631e-08
7.37879e-08
1.89955e-08
5.68068e-08
6.47527e-08
9.89468e-08
5.61462e-08
1.30847e-07
6.76301e-08
7.00294e-08
6.96505e-08
6.95245e-08
6.72976e-08
7.29304e-08
7.3572e-08
0
6.80266e-08
7.04025e-08
6.9859e-08
6.85962e-08
6.84499e-08
6.90927e-08
6.97855e-08
6.96491e-08
6.93772e-08
1.61708e-07
6.68643e-08
8.65569e-08
6.80218e-08
6.86608e-08
7.08798e-08
6.98321e-08
6.82624e-08
7.0054e-06
2.17613e-07
2.66571e-08
1.76869e-08
7.02881e-08
7.06508e-08
6.97875e-08
7.11669e-08
7.19982e-08
7.3e-08
7.15292e-08
6.81643e-08
6.68101e-08
6.67839e-08
6.72107e-08
7.0843e-08
9.12586e-08
1.4647e-07
2.8259e-08
1.96758e-08
6.95495e-08
6.8635e-08
7.28336e-08
0
6.8147e-08
6.88459e-08
6.97357e-08
6.89274e-08
7.03983e-08
6.96088e-08
7.015e-08
6.86442e-08
6.84068e-08
6.95424e-08
7.95529e-08
8.62731e-08
4.28664e-08
1.06975e-07
8.07494e-08
2.25523e-08
7.04448e-08
0
6.92733e-08
6.92695e-08
1.1509e-07
1.17395e-07
6.64184e-08
6.59637e-08
7.04026e-08
1.68249e-07
0
1.26841e-07
9.94919e-08
0
6.5518e-08
7.10003e-08
7.12843e-08
7.2388e-08
1.68427e-07
3.20329e-08
1.03745e-08
6.87397e-08
6.84194e-08
6.84058e-08
0
0
0
6.93554e-08
6.8241e-08
1.10008e-07
0
0
6.86196e-08
7.09852e-08
7.02692e-08
5.26527e-06
8.58964e-07
2.91114e-09
6.93647e-08
6.9217e-08
7.32158e-08
7.06467e-08
7.39233e-08
2.61464e-08
1.14748e-07
6.76433e-08
6.78749e-08
6.70023e-08
6.74363e-08
6.91696e-08
6.9842e-08
6.92498e-08
7.10138e-08
7.03169e-08
7.03293e-08
6.96728e-08
7.08017e-08
2.84088e-08
2.33374e-08
6.88806e-08
6.89612e-08
6.94031e-08
7.00932e-08
9.70322e-08
1.32049e-07
6.68548e-08
6.63288e-08
6.73378e-08
7.10129e-08
1.58875e-08
3.87164e-08
6.65937e-08
7.44509e-08
7.08544e-08
7.31615e-08
1.38851e-08
4.51122e-08
6.92627e-08
6.9833e-08
7.17154e-08
1.64667e-07
6.88892e-08
6.82204e-08
7.69338e-08
1.05218e-07
2.38474e-08
7.02689e-08
6.85612e-08
9.72898e-08
1.32559e-07
7.05273e-08
6.98821e-08
6.78651e-08
6.81248e-08
1.29732e-07
9.59094e-08
6.68715e-08
6.54601e-08
6.66439e-08
6.98416e-08
6.94313e-08
6.90408e-08
0
0
9.90292e-08
1.68832e-07
1.57843e-07
6.64173e-08
3.75048e-08
2.42377e-09
9.6542e-07
4.03799e-07
1.15805e-07
6.91788e-08
6.90021e-08
6.56964e-08
1.1207e-07
1.18709e-07
7.32863e-08
0
6.75822e-08
6.75603e-08
6.9382e-08
6.89943e-08
6.82575e-08
7.00217e-08
7.40504e-08
7.15943e-08
7.11659e-08
7.10322e-08
2.9975e-08
4.12033e-08
4.01633e-08
7.00831e-08
6.8595e-08
6.81885e-08
6.9716e-08
1.02332e-07
1.23678e-07
6.53811e-08
6.61211e-08
6.64975e-08
6.64761e-08
7.17694e-08
0
6.84617e-08
6.94285e-08
7.06768e-08
0
7.00519e-08
7.29817e-08
7.02083e-08
6.97262e-08
7.18802e-08
7.01148e-08
6.95053e-08
1.10056e-07
8.07413e-08
6.00917e-08
6.71712e-08
1.22423e-07
7.15921e-08
6.66459e-08
6.50208e-08
6.65065e-08
1.7118e-07
6.70885e-08
6.83988e-08
1.21009e-07
1.06743e-07
6.85256e-08
6.73025e-08
6.68041e-08
6.7035e-08
1.10626e-07
9.47845e-08
4.65925e-08
2.91714e-08
6.36614e-08
1.69814e-07
6.18882e-08
5.97325e-08
6.11404e-08
7.08772e-08
0
6.72912e-06
4.08895e-07
1.68745e-07
6.71924e-08
6.77075e-08
6.83475e-08
6.92137e-08
7.04385e-08
6.99791e-08
8.78942e-08
5.42625e-08
7.30207e-08
3.23757e-08
9.47632e-09
6.8157e-08
7.23837e-08
3.34106e-08
3.23889e-08
5.08585e-08
7.01429e-08
7.75324e-08
1.16932e-07
9.99303e-08
6.83728e-08
6.78088e-08
6.7351e-08
6.70328e-08
1.75956e-07
6.69104e-08
6.91649e-08
6.77386e-08
6.80809e-08
6.80733e-08
6.98075e-08
2.77064e-08
1.84038e-08
6.90216e-08
7.04761e-08
7.06393e-08
7.14134e-08
6.88501e-08
6.56653e-08
6.79481e-08
7.13411e-08
7.05658e-08
0
6.9426e-08
6.91397e-08
6.89385e-08
6.94492e-08
7.13379e-08
9.25707e-08
1.39096e-07
6.62618e-08
6.95374e-08
6.94203e-08
6.97472e-08
7.21618e-08
7.19311e-08
6.98925e-08
3.33118e-08
6.49935e-09
6.86359e-08
7.10439e-08
7.11304e-08
6.9109e-08
1.63205e-07
1.58876e-07
1.61093e-07
6.62351e-08
6.9196e-08
6.33046e-08
0
6.8987e-08
9.95113e-08
4.97444e-06
2.53927e-07
1.1781e-07
6.93925e-08
6.68863e-08
7.04535e-08
7.13265e-08
7.21208e-08
7.47185e-08
7.09442e-08
7.08711e-08
1.71111e-08
3.76412e-08
6.94076e-08
7.07471e-08
3.14131e-08
1.28527e-08
7.18478e-08
6.99835e-08
7.06285e-08
7.09792e-08
7.01612e-08
8.31825e-08
1.54074e-07
6.74079e-08
6.82868e-08
9.47511e-08
8.1694e-08
9.66877e-08
8.46277e-08
6.73463e-08
6.84081e-08
6.72515e-08
6.83654e-08
6.87357e-08
6.87916e-08
7.2336e-08
7.21365e-08
7.07391e-08
6.76502e-08
6.82797e-08
6.79421e-08
6.64981e-08
7.37835e-08
0
6.86806e-08
7.04388e-08
6.95855e-08
6.66994e-08
6.83848e-08
0
0
6.72569e-08
1.17013e-07
1.94051e-08
0
0
7.40717e-08
0
6.90566e-08
7.00215e-08
0
6.95435e-08
0
7.17995e-08
0
7.00539e-08
6.99934e-08
7.00884e-08
0
0
1.6519e-07
6.66178e-08
6.81546e-08
6.93098e-08
5.07875e-06
1.58871e-07
1.15745e-07
6.81016e-08
6.4805e-08
6.89009e-08
7.12621e-08
7.15683e-08
7.10716e-08
7.06885e-08
1.21876e-07
9.73303e-08
1.60276e-07
1.6066e-07
6.70002e-08
6.90603e-08
6.61166e-08
6.75511e-08
6.89408e-08
7.44662e-08
7.19666e-08
6.74093e-08
6.60847e-08
6.92287e-08
1.19003e-07
1.08188e-07
6.89888e-08
3.58641e-08
5.32855e-09
6.89973e-08
6.74628e-08
6.70902e-08
7.18867e-08
9.82059e-08
6.9001e-08
1.21709e-07
7.09226e-08
6.87221e-08
6.96436e-08
6.85387e-08
6.7767e-08
6.74601e-08
6.60781e-08
7.1237e-08
7.28181e-08
9.75042e-10
6.88977e-08
1.31303e-07
8.69186e-08
6.81569e-08
1.61852e-07
6.7328e-08
6.70031e-08
6.89745e-08
6.7984e-08
6.96998e-08
1.68282e-07
7.08389e-08
6.69789e-08
1.18325e-08
4.70924e-08
7.11205e-08
3.79572e-08
4.2875e-09
7.04575e-08
7.07354e-08
7.01682e-08
6.89188e-08
6.97824e-08
6.88055e-08
6.84608e-08
0
1.69197e-07
6.83823e-08
1.6448e-07
9.08677e-06
2.15832e-08
6.77e-08
6.85491e-08
6.69566e-08
1.08682e-07
1.21686e-07
7.1251e-08
0
1.68578e-07
6.61441e-08
6.64183e-08
6.68672e-08
6.88493e-08
1.72289e-07
1.8846e-08
3.65866e-08
6.67597e-08
6.81559e-08
7.2828e-08
7.19571e-08
6.86995e-08
6.74963e-08
6.84069e-08
6.90911e-08
1.22297e-07
7.83625e-08
7.88893e-09
7.16026e-08
6.68119e-08
6.92499e-08
6.78275e-08
0
6.88504e-08
6.8143e-08
1.73209e-07
6.91021e-08
6.7141e-08
7.12864e-08
8.54173e-08
1.54314e-07
6.69344e-08
6.6823e-08
7.17103e-08
0
6.8399e-08
7.05431e-08
1.72682e-07
6.66439e-08
6.59942e-08
7.09957e-08
1.1033e-07
3.08792e-08
1.51041e-07
6.56065e-08
1.6437e-07
6.99996e-08
1.49486e-09
6.72199e-08
6.92107e-08
6.94075e-08
7.02169e-08
7.56871e-08
3.19926e-08
1.00511e-07
6.86446e-08
8.33019e-08
7.05641e-08
4.94658e-08
7.13423e-08
6.56922e-08
1.58499e-07
6.71925e-08
7.17191e-08
7.18943e-08
5.20103e-06
3.59541e-07
3.35043e-08
0
6.76385e-08
1.69032e-07
6.71162e-08
6.90692e-08
1.04738e-07
3.07032e-08
0
0
0
6.94952e-08
7.03999e-08
1.74915e-07
0
1.61063e-07
6.41961e-08
7.02767e-08
7.27727e-08
6.95021e-08
6.74672e-08
6.7549e-08
6.95436e-08
7.5604e-08
7.70855e-08
5.64425e-08
6.90118e-08
6.89146e-08
7.35041e-08
6.86473e-08
6.65803e-08
6.85968e-08
6.89573e-08
7.00205e-08
6.98218e-08
6.88234e-08
6.84697e-08
7.04948e-08
7.03697e-08
7.06118e-08
1.61358e-07
1.62122e-07
6.65848e-08
6.67925e-08
6.88386e-08
0
6.93219e-08
6.72957e-08
6.7035e-08
7.02568e-08
7.30066e-08
6.78354e-08
0
6.91145e-08
7.01106e-08
6.95394e-08
6.90923e-08
6.95355e-08
8.8522e-08
1.53162e-07
1.62272e-07
1.56854e-07
1.01202e-07
1.34148e-07
1.43448e-09
6.65912e-08
6.89136e-08
1.64103e-07
6.83766e-08
6.93522e-08
7.02853e-08
7.21393e-08
7.1871e-08
4.43089e-06
4.77794e-07
6.44234e-08
1.68286e-07
0
7.07564e-08
7.03112e-08
6.90909e-08
6.86379e-08
6.7159e-08
1.64348e-07
6.61084e-08
1.71123e-07
0
0
1.96589e-08
3.34834e-08
0
9.30718e-08
1.40741e-07
7.36622e-08
3.6248e-08
2.91129e-09
6.69255e-08
6.96005e-08
6.95714e-08
7.03804e-08
6.92575e-08
6.95112e-08
6.83884e-08
6.55857e-08
6.78563e-08
6.91151e-08
6.89952e-08
6.81625e-08
6.92532e-08
6.96444e-08
7.92599e-08
1.56794e-07
7.14317e-08
7.09862e-08
0
6.97096e-08
6.90003e-08
1.61961e-07
6.09519e-08
0
1.74996e-07
6.89136e-08
6.7151e-08
6.76785e-08
6.85579e-08
6.87425e-08
6.95981e-08
6.95415e-08
7.00673e-08
6.39497e-08
6.73295e-08
6.78271e-08
6.84724e-08
1.75458e-07
6.82831e-08
6.92233e-08
6.78509e-08
1.72447e-07
2.47984e-08
2.48611e-08
7.04355e-08
6.89845e-08
6.92313e-08
7.19268e-08
2.54535e-08
4.10921e-08
9.85854e-08
1.15889e-07
3.00798e-06
6.69745e-07
7.58689e-08
6.80723e-08
1.74863e-07
0
7.01877e-08
6.95107e-08
7.03345e-08
3.62701e-08
8.52122e-08
6.75987e-08
1.12279e-07
1.12066e-07
9.22065e-08
1.37926e-07
6.80437e-08
6.96931e-08
6.83096e-08
6.83913e-08
7.02666e-08
7.05221e-08
7.04418e-08
7.03302e-08
7.18113e-08
7.16521e-08
6.99894e-08
6.93049e-08
6.87532e-08
1.29202e-07
8.52611e-08
6.53504e-08
6.71139e-08
6.9981e-08
7.03421e-08
6.93748e-08
7.07231e-08
6.90452e-08
6.96692e-08
7.02015e-08
1.80094e-08
1.24858e-07
6.79892e-08
6.80036e-08
6.77389e-08
6.77344e-08
7.28918e-08
3.9263e-08
6.13131e-08
5.21696e-08
2.85406e-08
6.96827e-08
7.018e-08
6.95842e-08
7.07677e-08
6.81031e-08
6.7789e-08
6.84529e-08
6.89982e-08
7.00561e-08
7.07353e-08
2.91416e-08
1.51642e-08
1.67906e-07
6.90538e-08
7.20864e-08
7.14148e-08
1.53235e-08
1.0066e-07
6.21613e-08
2.87908e-08
5.88076e-08
7.06766e-08
6.91686e-08
9.1458e-08
3.48504e-06
6.36321e-07
6.41877e-08
6.16869e-08
7.1106e-08
7.07645e-08
7.00777e-08
6.93695e-08
7.01358e-08
6.84256e-08
7.22559e-08
7.16738e-08
7.18701e-08
6.87283e-08
6.51576e-08
6.551e-08
1.67774e-07
6.66711e-08
6.87315e-08
6.95978e-08
0
6.9113e-08
7.04139e-08
7.21409e-08
7.24717e-08
7.53125e-08
8.19172e-08
6.81091e-08
1.42944e-07
8.83502e-08
1.29646e-07
6.78215e-08
7.06034e-08
7.43611e-08
0
7.24532e-08
6.94551e-08
6.84042e-08
6.86134e-08
0
1.62457e-07
6.85578e-08
6.91664e-08
6.90218e-08
6.89027e-08
6.75001e-08
1.06241e-07
1.29603e-07
6.87684e-08
1.68903e-08
6.8833e-08
1.00421e-07
6.36959e-08
9.69274e-08
6.82771e-08
6.7908e-08
6.77751e-08
6.86806e-08
6.90956e-08
0
0
9.91966e-08
1.3749e-07
0
0
7.33722e-08
1.78498e-07
6.92034e-08
6.96333e-08
7.22801e-08
7.18942e-08
7.18424e-08
0
0
7.39803e-08
3.6116e-06
8.15992e-07
6.50428e-08
6.70423e-08
7.11607e-08
7.20383e-08
0
6.90143e-08
6.96357e-08
6.86734e-08
6.94754e-08
7.03145e-08
7.08738e-08
6.93675e-08
7.98051e-08
1.56246e-07
6.77766e-08
6.828e-08
6.76555e-08
8.02643e-08
1.1411e-07
7.33584e-08
9.66861e-08
7.38688e-08
7.32394e-08
7.07104e-08
6.66298e-08
6.54922e-08
6.54962e-08
6.73185e-08
6.71979e-08
6.87425e-08
1.7684e-07
0
7.33332e-08
7.03969e-08
7.23917e-08
0
6.65867e-08
6.48881e-08
6.80865e-08
6.9339e-08
6.96796e-08
0
6.89571e-08
6.80028e-08
1.31847e-07
8.5385e-08
6.80017e-08
6.97063e-08
6.88649e-08
6.89852e-08
6.88175e-08
6.94699e-08
6.87563e-08
6.8022e-08
6.83583e-08
6.83087e-08
6.72192e-08
7.03273e-08
7.5164e-08
1.21504e-08
4.88083e-08
7.01744e-08
7.18929e-08
7.08283e-08
7.54077e-08
7.25348e-08
7.07571e-08
6.84946e-08
6.79613e-08
6.88317e-08
2.04531e-08
9.20992e-08
7.02451e-09
2.26547e-06
4.98319e-07
1.5723e-07
1.58866e-07
1.6587e-07
7.13843e-08
1.66513e-08
7.65646e-08
1.244e-07
7.05562e-08
0
6.70476e-08
7.30437e-08
6.92772e-08
0
6.96597e-08
7.10893e-08
6.98753e-08
7.19053e-08
6.85901e-08
1.02143e-07
1.26012e-07
7.19542e-08
7.20009e-08
7.1648e-08
0
6.83488e-08
6.60931e-08
6.70329e-08
6.78562e-08
6.73278e-08
7.24093e-08
7.48442e-08
7.37638e-08
1.4013e-08
4.28267e-08
6.98723e-08
1.61504e-07
6.67353e-08
0
6.98649e-08
0
7.07427e-08
6.93555e-08
1.69658e-07
6.68184e-08
6.94837e-08
6.74998e-08
6.98119e-08
6.91973e-08
6.90086e-08
7.06925e-08
6.93653e-08
7.13767e-08
6.98349e-08
6.92131e-08
6.8517e-08
9.14306e-08
5.86184e-08
1.44628e-07
7.20461e-08
7.23533e-08
6.83812e-08
1.64047e-07
1.69816e-07
7.16691e-08
7.25929e-08
7.13766e-08
6.73447e-08
6.65266e-08
6.75212e-08
0
1.63405e-07
9.19206e-08
1.40445e-07
7.27033e-06
1.10361e-06
5.67506e-08
9.32554e-08
4.45182e-08
7.14852e-08
7.07336e-08
6.93499e-08
7.0333e-08
7.07077e-08
6.96911e-08
6.71464e-08
7.05098e-08
7.06028e-08
7.43914e-08
7.40703e-08
2.52449e-08
1.17592e-07
6.69913e-08
6.64285e-08
6.60207e-08
6.75038e-08
6.98358e-08
7.12623e-08
7.03593e-08
7.1222e-08
0
0
6.93811e-08
7.01279e-08
6.93444e-08
7.36505e-08
6.0319e-09
6.14465e-08
6.9441e-08
7.01075e-08
7.90195e-08
1.08088e-07
1.9275e-08
6.77122e-08
0
1.60888e-07
8.90561e-08
1.37911e-07
6.75948e-08
7.0818e-08
0
6.66554e-08
6.91454e-08
6.87754e-08
6.90474e-08
6.84404e-08
6.84193e-08
6.91232e-08
1.30828e-07
9.34106e-08
6.68203e-08
6.67784e-08
6.72943e-08
0
1.67936e-07
1.68671e-07
0
8.1144e-08
5.71086e-08
7.06569e-08
7.33151e-08
7.4401e-08
9.74486e-08
8.16818e-08
2.2819e-08
0
6.81247e-08
6.83518e-08
6.94929e-08
2.85816e-06
3.15166e-07
0
0
7.03703e-08
7.14624e-08
7.07684e-08
6.89727e-08
6.9897e-08
8.31291e-08
5.69796e-08
6.90862e-08
6.8694e-08
6.85265e-08
6.96484e-08
5.43066e-08
1.47391e-07
6.78177e-08
6.69265e-08
6.72854e-08
6.71395e-08
6.85296e-08
1.33441e-08
6.44049e-08
5.45244e-08
1.65526e-07
6.77449e-08
6.68124e-08
7.18019e-08
9.10799e-09
9.87384e-08
7.20958e-08
6.90464e-08
8.23639e-08
1.01474e-07
7.1777e-08
1.45298e-08
1.00908e-07
9.65722e-08
6.61863e-08
6.52885e-08
6.89925e-08
6.88651e-08
6.89299e-08
6.90075e-08
1.24154e-07
7.59665e-08
3.46686e-08
4.36981e-08
6.84492e-08
6.7246e-08
6.71469e-08
8.07499e-08
1.52562e-07
6.7878e-08
6.83397e-08
6.78789e-08
6.74845e-08
6.91191e-08
1.17858e-07
1.05155e-07
7.1926e-08
7.52676e-08
3.44593e-08
9.99471e-08
7.39166e-08
6.95186e-08
6.82801e-08
6.76599e-08
6.64584e-08
0
1.6233e-07
1.60075e-07
6.59972e-08
6.7639e-08
9.5499e-06
2.11816e-07
7.65855e-08
1.66509e-07
6.74206e-08
6.71177e-08
6.76346e-08
6.77682e-08
6.76407e-08
6.87421e-08
7.15794e-08
2.90237e-09
6.4243e-08
6.96186e-08
7.00148e-08
7.03893e-08
6.91044e-08
1.6742e-07
6.62636e-08
6.71503e-08
6.61293e-08
6.68472e-08
7.05986e-08
7.13522e-08
7.11458e-08
6.51635e-08
6.64028e-08
1.62054e-07
6.82784e-08
7.00043e-08
7.03659e-08
7.00712e-08
7.00391e-08
7.02435e-08
7.05153e-08
1.05603e-07
3.80217e-08
0
6.61239e-08
6.61937e-08
6.82354e-08
6.81619e-08
6.88542e-08
6.77866e-08
6.87676e-08
6.9445e-08
7.04737e-08
7.38153e-08
5.11167e-09
1.12734e-07
1.0261e-07
6.59981e-08
6.71409e-08
1.17166e-07
1.11559e-07
6.63136e-08
6.67794e-08
6.7441e-08
7.09247e-08
7.14977e-08
7.20988e-08
7.55013e-08
7.4129e-08
2.64117e-09
1.68101e-07
7.35004e-08
7.07812e-08
6.86335e-08
6.84464e-08
6.34805e-08
1.5189e-08
3.83385e-08
6.70648e-08
6.55021e-08
7.31659e-08
6.96514e-06
1.28261e-07
1.46533e-07
7.28998e-08
2.27187e-08
1.14597e-07
1.16212e-07
7.52423e-08
9.58669e-08
0
6.9232e-08
7.03726e-08
7.11518e-08
7.3697e-08
0
6.81739e-08
6.92388e-08
7.03525e-08
1.64204e-07
9.5548e-08
3.9704e-08
6.97632e-08
6.97821e-08
2.11091e-08
3.17974e-08
1.72314e-07
6.74308e-08
6.82158e-08
6.85275e-08
7.08732e-08
1.75681e-07
6.69364e-08
6.5779e-08
6.99189e-08
6.96135e-08
6.99787e-08
1.73107e-07
6.67458e-08
6.34486e-08
6.63412e-08
6.68756e-08
6.94809e-08
6.65161e-08
6.58168e-08
0
6.88515e-08
6.92303e-08
7.00677e-08
7.07786e-08
6.98e-08
6.82331e-08
6.74809e-08
6.75863e-08
7.13267e-08
6.84658e-08
6.83543e-08
6.81592e-08
6.99355e-08
7.36319e-08
7.31786e-08
7.22398e-08
7.3707e-08
3.27897e-08
1.30291e-08
6.7591e-08
6.98921e-08
7.17046e-08
1.24347e-07
1.05068e-07
6.7297e-08
6.84967e-08
0
6.82962e-08
1.13737e-08
1.36143e-07
2.81117e-06
1.22009e-07
6.71465e-08
3.44424e-08
7.11925e-08
7.01694e-08
7.05701e-08
6.99799e-08
9.47047e-09
1.41296e-07
1.63958e-07
9.1693e-08
1.4124e-07
0
1.65443e-07
6.63204e-08
6.80887e-08
6.92458e-08
6.92836e-08
0
6.9912e-08
6.98313e-08
6.79672e-08
3.51499e-08
4.20558e-09
7.05204e-08
6.97161e-08
7.95738e-08
1.57482e-07
7.1876e-08
6.77824e-08
6.68186e-08
6.46254e-08
6.79035e-08
1.74471e-07
6.82135e-08
6.8176e-08
6.76937e-08
6.67016e-08
6.92539e-08
7.03973e-08
6.57338e-08
6.79726e-08
6.88751e-08
0
1.67343e-07
6.68627e-08
6.91602e-08
6.90653e-08
6.92102e-08
6.82166e-08
6.80133e-08
6.72434e-08
6.70116e-08
1.23573e-07
9.39984e-08
6.90186e-08
7.1365e-08
7.21916e-08
7.06026e-08
7.08255e-08
7.39932e-08
2.29123e-08
8.75935e-08
9.54362e-08
7.06118e-08
7.43387e-08
0
7.07696e-08
8.553e-08
1.06212e-07
7.05947e-08
1.18547e-08
6.88102e-08
7.02424e-08
6.15416e-06
4.3366e-08
9.33194e-08
1.4154e-07
6.71768e-08
6.74762e-08
1.71576e-07
6.61515e-08
6.88066e-08
2.22589e-08
2.79562e-08
7.00229e-08
6.89956e-08
1.686e-07
6.8195e-08
6.52382e-08
6.80897e-08
6.97271e-08
6.89641e-08
6.92021e-08
1.6951e-07
6.72039e-08
6.81982e-08
6.96333e-08
7.01168e-08
6.98193e-08
6.88189e-08
2.75798e-08
1.91955e-08
7.0678e-08
7.07557e-08
6.91777e-08
7.00869e-08
2.83467e-08
1.12447e-07
6.85552e-08
6.63143e-08
6.69343e-08
6.6533e-08
6.8266e-08
1.73159e-07
6.86121e-08
6.65938e-08
6.93219e-08
0
0
1.67078e-07
6.78575e-08
6.94976e-08
6.72848e-08
6.65754e-08
0
6.81954e-08
1.64113e-07
0
6.93864e-08
7.12612e-08
7.50346e-08
7.33538e-08
6.92853e-08
6.76657e-08
7.63355e-08
3.83093e-08
8.72796e-08
7.20271e-08
6.93987e-08
7.18639e-08
2.20057e-08
1.24472e-07
7.06631e-08
6.65793e-08
6.53417e-08
6.68282e-08
7.14808e-08
0
5.97359e-06
1.18987e-07
0
7.02301e-08
7.17822e-08
7.05901e-08
6.80465e-08
6.8881e-08
6.94561e-08
6.86299e-08
6.91732e-08
6.83843e-08
7.02522e-08
7.2337e-08
7.04107e-08
0
7.12415e-08
7.03305e-08
3.31676e-09
1.59851e-07
6.74126e-08
6.91413e-08
6.85441e-08
7.36784e-08
6.96885e-08
6.97923e-08
6.87966e-08
6.85564e-08
7.40652e-08
1.90678e-08
3.50264e-08
6.9476e-08
6.92479e-08
6.94994e-08
6.99136e-08
7.12087e-08
6.90959e-08
6.79071e-08
6.73841e-08
1.05142e-07
1.24176e-07
6.76142e-08
6.60126e-08
6.73745e-08
6.6999e-08
1.61905e-07
1.66998e-07
7.17833e-08
2.57503e-08
2.26472e-08
6.94501e-08
8.68535e-08
8.58856e-08
3.34313e-08
1.60248e-07
0
6.99219e-08
7.20527e-08
0
6.98996e-08
7.14487e-08
7.64668e-08
7.35511e-08
6.93349e-08
1.67502e-07
6.65072e-08
6.94996e-08
7.04754e-08
7.1739e-08
7.31358e-08
6.9618e-08
6.66713e-08
6.71931e-08
6.95186e-08
6.78183e-08
6.07445e-06