/*--------------------------------*- C++ -*----------------------------------*\
  =========                 |
  \\      /  F ield         | OpenFOAM: The Open Source CFD Toolbox
   \\    /   O peration     | Website:  https://openfoam.org
    \\  /    A nd           | Version:  12
     \\/     M anipulation  |
\*---------------------------------------------------------------------------*/
FoamFile
{
    format      ascii;
    class       volScalarField;
    location    "0.35";
    object      p;
}
// * * * * * * * * * * * * * * * * * * * * * * * * * * * * * * * * * * * * * //

dimensions      [0 2 -2 0 0 0 0];

internalField   nonuniform List<scalar> 
3750
(
1.48328
1.46845
1.46001
1.45561
1.44734
1.43761
1.42818
1.41833
1.41039
1.39829
1.3865
1.38307
1.37215
1.36114
1.35047
1.33942
1.33517
1.32258
1.31016
1.2993
1.28742
1.28018
1.2709
1.26106
1.25077
1.24003
1.2278
1.21596
1.21267
1.20318
1.19193
1.18126
1.16861
1.15825
1.14786
1.13737
1.12742
1.11749
1.10786
1.09845
1.08916
1.07945
1.06522
1.05581
1.04683
1.03805
1.02946
1.02146
1.01316
1.00446
0.994723
0.980449
0.972478
0.96049
0.951674
0.942233
0.931989
0.920096
0.908364
0.89686
0.88715
0.877641
0.867675
0.857472
0.846132
0.83567
0.825772
0.8164
0.807596
0.798881
0.786063
0.775756
0.766932
0.758933
0.751776
1.48192
1.47039
1.46353
1.45329
1.4472
1.43733
1.42803
1.4169
1.41137
1.40055
1.38845
1.38095
1.37168
1.36053
1.35181
1.34266
1.33381
1.3217
1.30865
1.29537
1.28817
1.28103
1.27149
1.26139
1.25113
1.2405
1.22867
1.21783
1.21069
1.20354
1.19118
1.17856
1.1702
1.15836
1.14756
1.13712
1.12709
1.11716
1.10763
1.0983
1.08917
1.07869
1.06567
1.05572
1.0467
1.03795
1.02866
1.02173
1.01349
1.00553
0.991741
0.981684
0.971865
0.961311
0.952159
0.943042
0.933217
0.918563
0.908081
0.896583
0.887383
0.878069
0.867878
0.856639
0.845797
0.835101
0.825285
0.815797
0.806809
0.799633
0.788172
0.774919
0.76621
0.757424
0.751225
1.4816
1.46943
1.46507
1.45251
1.44842
1.43627
1.42788
1.41766
1.41047
1.40288
1.38922
1.3814
1.37311
1.35781
1.354
1.3443
1.3352
1.32129
1.30753
1.29281
1.29104
1.27699
1.27173
1.26234
1.2513
1.24095
1.23107
1.21667
1.2146
1.20155
1.19
1.17784
1.16857
1.15791
1.14715
1.13732
1.1261
1.11641
1.1073
1.09775
1.08846
1.07966
1.06539
1.05556
1.04643
1.03849
1.02594
1.02297
1.0144
1.00395
0.993501
0.982254
0.97127
0.961923
0.952518
0.942796
0.931594
0.919367
0.908506
0.896335
0.888076
0.879436
0.868927
0.852899
0.848138
0.833407
0.824463
0.814776
0.804363
0.800836
0.787547
0.776225
0.765729
0.75471
0.749989
1.48406
1.47313
1.46431
1.45389
1.44763
1.43177
1.42772
1.41706
1.40944
1.40209
1.39153
1.3826
1.37407
1.35958
1.35306
1.34477
1.33369
1.32063
1.30748
1.29561
1.29
1.28021
1.26776
1.26328
1.25086
1.24085
1.23107
1.22062
1.21296
1.20318
1.19008
1.1775
1.1674
1.15656
1.14656
1.1371
1.12482
1.11584
1.1066
1.09684
1.08726
1.07825
1.06823
1.05455
1.04593
1.03671
1.02901
1.02168
1.01609
1.00675
0.99595
0.982042
0.969483
0.962947
0.953653
0.940389
0.931041
0.921751
0.909399
0.893732
0.889637
0.882593
0.868942
0.855292
0.843559
0.833726
0.824392
0.814677
0.804041
0.800242
0.788335
0.776884
0.765988
0.755305
0.747973
1.48657
1.47677
1.46474
1.45202
1.44352
1.43354
1.42468
1.41382
1.40817
1.40234
1.39224
1.38382
1.37276
1.36227
1.35276
1.34371
1.33434
1.32021
1.30626
1.297
1.29125
1.28007
1.27185
1.26081
1.24963
1.24077
1.23083
1.22236
1.21226
1.20528
1.19057
1.17819
1.16683
1.15429
1.14537
1.13565
1.12542
1.11553
1.1056
1.09585
1.08624
1.077
1.06702
1.05609
1.04612
1.034
1.02922
1.02361
1.0203
1.00621
0.99348
0.983792
0.966872
0.963221
0.95099
0.940647
0.930632
0.920542
0.908818
0.89799
0.890035
0.882451
0.869097
0.85627
0.843257
0.833327
0.824848
0.816058
0.806498
0.798314
0.788056
0.777167
0.766358
0.754944
0.750071
1.48672
1.47595
1.46537
1.45378
1.44545
1.4348
1.42468
1.41493
1.407
1.39802
1.39171
1.38564
1.37122
1.36393
1.35209
1.34256
1.33186
1.31943
1.3085
1.29674
1.29307
1.28158
1.27157
1.26085
1.25005
1.24159
1.22997
1.2254
1.20944
1.20425
1.18982
1.17861
1.16725
1.15595
1.14511
1.13477
1.12553
1.11517
1.10442
1.09479
1.08569
1.07658
1.06666
1.05669
1.04739
1.0355
1.02946
1.02344
1.01677
1.00396
0.989485
0.983831
0.968512
0.960639
0.950268
0.940243
0.930173
0.920115
0.907776
0.900103
0.890233
0.880079
0.868525
0.857512
0.841326
0.83678
0.82598
0.818457
0.807793
0.798183
0.788181
0.777491
0.767202
0.757475
0.75115
1.48663
1.47616
1.4666
1.45271
1.44182
1.43453
1.42462
1.41487
1.40701
1.40115
1.39047
1.38274
1.36827
1.36197
1.35625
1.34175
1.33121
1.31868
1.31153
1.29698
1.29321
1.28206
1.27175
1.26102
1.24932
1.24456
1.23022
1.22233
1.21093
1.20117
1.18861
1.1795
1.16763
1.15654
1.14447
1.13304
1.12677
1.11483
1.10213
1.09325
1.08512
1.07685
1.06622
1.05655
1.04716
1.0374
1.02944
1.02381
1.01811
1.00286
0.992834
0.980067
0.967564
0.959183
0.949977
0.940023
0.929638
0.918175
0.907898
0.902602
0.890671
0.879251
0.867442
0.856201
0.84534
0.835308
0.828195
0.822103
0.808508
0.798608
0.78871
0.778178
0.767831
0.75816
0.749657
1.48545
1.47809
1.46645
1.45449
1.44305
1.43141
1.42133
1.41319
1.4068
1.40262
1.38958
1.38398
1.37069
1.36013
1.35482
1.34125
1.33281
1.32126
1.30918
1.29965
1.2917
1.28184
1.27181
1.26174
1.25147
1.24097
1.23335
1.22249
1.21176
1.19962
1.18543
1.18122
1.16781
1.15808
1.1433
1.13398
1.12634
1.11457
1.09671
1.0911
1.08409
1.07747
1.06459
1.05615
1.04673
1.038
1.02877
1.02438
1.02066
1.00506
0.991492
0.977734
0.96783
0.958646
0.950698
0.940277
0.930291
0.915085
0.912301
0.901567
0.890613
0.878912
0.866837
0.854694
0.84866
0.836962
0.829726
0.820435
0.809135
0.799276
0.789485
0.778688
0.768082
0.75745
0.746572
1.48701
1.47816
1.46566
1.45584
1.44092
1.43116
1.42012
1.41358
1.41197
1.40145
1.39217
1.38341
1.3728
1.3635
1.35038
1.33866
1.32988
1.32417
1.31168
1.30116
1.29156
1.28105
1.27154
1.26131
1.25208
1.23903
1.23161
1.22305
1.21376
1.19986
1.18853
1.18057
1.16853
1.15706
1.14548
1.13323
1.12692
1.11218
1.09786
1.09051
1.0828
1.07462
1.05885
1.05645
1.04556
1.03933
1.03359
1.0243
1.0158
1.00484
0.990535
0.979069
0.968555
0.957929
0.952368
0.94014
0.928581
0.917839
0.909498
0.90397
0.891232
0.878991
0.866728
0.857089
0.848614
0.837096
0.832979
0.818551
0.80925
0.799473
0.790392
0.777262
0.769741
0.757185
0.745459
1.48722
1.47869
1.46534
1.45439
1.44144
1.43191
1.42266
1.41355
1.41345
1.39882
1.39665
1.38391
1.3715
1.36218
1.35204
1.33924
1.33146
1.32338
1.31225
1.30175
1.29284
1.27918
1.27114
1.2593
1.25364
1.23739
1.23109
1.22421
1.21859
1.19812
1.18916
1.1804
1.1694
1.15621
1.14852
1.13458
1.12286
1.11007
1.09928
1.09019
1.08127
1.07136
1.05725
1.05568
1.04291
1.04102
1.04031
1.02309
1.01289
1.00367
0.991026
0.979394
0.969592
0.96044
0.950992
0.940513
0.926323
0.919104
0.910479
0.901134
0.891763
0.879295
0.868529
0.858805
0.850052
0.838805
0.829657
0.820128
0.809677
0.799946
0.786478
0.776025
0.770202
0.756666
0.746059
1.48533
1.47653
1.46589
1.45547
1.44224
1.43233
1.42353
1.41508
1.41118
1.40124
1.3992
1.38411
1.36988
1.36153
1.35203
1.34185
1.33325
1.32317
1.31199
1.30084
1.29096
1.27897
1.271
1.26171
1.25316
1.23958
1.23133
1.22413
1.21352
1.20104
1.18939
1.1791
1.16849
1.15729
1.15069
1.1355
1.12203
1.10662
1.10232
1.09009
1.08108
1.06522
1.05769
1.05623
1.04949
1.04138
1.0356
1.02247
1.01079
1.00615
0.989668
0.977899
0.971048
0.960922
0.950386
0.941016
0.925074
0.920319
0.912256
0.898497
0.894377
0.878841
0.869154
0.8594
0.84963
0.839219
0.829011
0.820562
0.809557
0.797642
0.786987
0.778784
0.767213
0.756634
0.746826
1.48202
1.47702
1.46537
1.45815
1.4427
1.43095
1.42285
1.41538
1.41378
1.40492
1.3952
1.38297
1.37012
1.36202
1.35209
1.34371
1.33655
1.32412
1.31176
1.29885
1.29145
1.27637
1.27072
1.2641
1.25335
1.24267
1.23103
1.2227
1.2127
1.20257
1.18759
1.17807
1.16932
1.15448
1.15077
1.13501
1.12212
1.10945
1.10186
1.09135
1.08025
1.06904
1.05515
1.05786
1.05074
1.04036
1.03395
1.02079
1.0103
1.00271
0.985691
0.979296
0.974056
0.95999
0.948711
0.940596
0.929999
0.917289
0.914483
0.899086
0.890741
0.880076
0.870031
0.860051
0.8498
0.8395
0.82924
0.820045
0.810426
0.796138
0.785926
0.777814
0.767601
0.757212
0.747868
1.48846
1.47424
1.46591
1.45759
1.44331
1.42828
1.42273
1.41688
1.41377
1.40336
1.39327
1.3823
1.37308
1.36338
1.35136
1.34323
1.33683
1.32495
1.31214
1.30042
1.29201
1.28204
1.27029
1.26211
1.25365
1.24279
1.2309
1.22182
1.21356
1.20007
1.1876
1.17859
1.16834
1.15784
1.15055
1.13452
1.12233
1.1102
1.10158
1.09368
1.07995
1.0701
1.05973
1.05431
1.05224
1.04253
1.03015
1.01739
1.00927
0.99874
0.987235
0.979061
0.972913
0.96103
0.944357
0.940028
0.930253
0.921178
0.912138
0.902043
0.889942
0.880737
0.870822
0.860909
0.84987
0.839745
0.828663
0.818645
0.808181
0.795908
0.787465
0.778409
0.767186
0.75802
0.750339
1.49068
1.4714
1.46626
1.46009
1.44433
1.42959
1.42331
1.41654
1.40843
1.40298
1.39206
1.38091
1.37512
1.3631
1.3514
1.34131
1.33719
1.32542
1.31228
1.30234
1.29449
1.2824
1.27024
1.26259
1.25568
1.2425
1.22882
1.22053
1.21157
1.20177
1.18567
1.18098
1.16871
1.15931
1.1488
1.13581
1.12277
1.11051
1.09998
1.09295
1.08321
1.07167
1.06025
1.05623
1.05144
1.04151
1.02927
1.01473
1.00881
0.996492
0.987507
0.977085
0.972336
0.959088
0.945444
0.934279
0.930217
0.925492
0.912888
0.902492
0.890892
0.881126
0.87152
0.862856
0.849048
0.8409
0.827103
0.817682
0.807832
0.792049
0.789618
0.775792
0.768659
0.760683
0.754536
1.49162
1.47074
1.46572
1.45618
1.44467
1.4334
1.42457
1.41619
1.40785
1.39913
1.39146
1.3836
1.37397
1.36223
1.35169
1.34231
1.33422
1.3232
1.31388
1.30309
1.29348
1.28264
1.2718
1.26403
1.25525
1.24314
1.22902
1.22029
1.21056
1.2
1.18881
1.18042
1.16993
1.16142
1.14804
1.13549
1.12289
1.1114
1.09848
1.09396
1.084
1.07335
1.06392
1.055
1.05366
1.04001
1.02964
1.01666
1.00603
0.990876
0.988116
0.977452
0.967855
0.958057
0.945414
0.933489
0.930231
0.926227
0.912979
0.903468
0.891377
0.88143
0.871303
0.861274
0.850167
0.839922
0.828444
0.817511
0.805899
0.791516
0.789717
0.778838
0.769738
0.761593
0.753771
1.49142
1.47166
1.46803
1.45345
1.44435
1.43463
1.42533
1.4154
1.40926
1.39638
1.39101
1.3864
1.37344
1.36095
1.35167
1.34236
1.33349
1.31929
1.31687
1.30273
1.29377
1.28294
1.27172
1.26611
1.25411
1.24246
1.23113
1.22097
1.21041
1.19875
1.19038
1.17976
1.16979
1.16063
1.15031
1.13537
1.12189
1.11387
1.1011
1.09037
1.08468
1.07471
1.06589
1.05691
1.05129
1.03535
1.03076
1.01892
1.00791
0.990489
0.98716
0.977797
0.963152
0.958012
0.944662
0.935954
0.931167
0.925041
0.90994
0.906145
0.889796
0.881887
0.870946
0.860913
0.850505
0.840219
0.829204
0.81795
0.807146
0.796282
0.78967
0.781028
0.771057
0.761497
0.752422
1.49631
1.47208
1.46241
1.45381
1.44482
1.43521
1.42577
1.41277
1.41213
1.39948
1.39057
1.38386
1.37264
1.36099
1.35109
1.34148
1.33031
1.32072
1.31418
1.30479
1.29623
1.28468
1.27503
1.2644
1.25145
1.24221
1.23211
1.22203
1.21165
1.19529
1.19141
1.1784
1.16892
1.15959
1.14945
1.13369
1.123
1.11361
1.10277
1.09078
1.08834
1.07468
1.06664
1.05823
1.05082
1.03644
1.0298
1.01948
1.00901
0.993465
0.981777
0.975226
0.966264
0.956854
0.940826
0.935893
0.932884
0.923112
0.91185
0.903344
0.888939
0.883776
0.870484
0.860703
0.850644
0.841404
0.830186
0.818859
0.80794
0.798556
0.790714
0.783781
0.771762
0.761507
0.74967
1.49052
1.4766
1.46266
1.45462
1.44541
1.43577
1.427
1.41154
1.40961
1.4041
1.39146
1.38229
1.37214
1.36073
1.35044
1.34054
1.3283
1.32118
1.31294
1.30574
1.30098
1.28532
1.27148
1.26387
1.25268
1.24294
1.233
1.22347
1.21065
1.19759
1.18964
1.17826
1.16776
1.15664
1.14873
1.13407
1.12299
1.11421
1.10338
1.09391
1.08686
1.0766
1.0674
1.05858
1.04999
1.03905
1.03162
1.01958
1.00727
0.993871
0.979215
0.975167
0.968959
0.954322
0.942861
0.934281
0.931874
0.922307
0.913129
0.898508
0.893656
0.881187
0.870137
0.860467
0.851023
0.84404
0.831131
0.819391
0.807195
0.800126
0.791018
0.782146
0.76998
0.757671
0.752559
1.48595
1.47718
1.46366
1.45687
1.44581
1.43584
1.42639
1.41625
1.40978
1.4037
1.39033
1.38212
1.37282
1.35935
1.35051
1.33886
1.33372
1.32193
1.31075
1.30419
1.29851
1.28491
1.2696
1.26488
1.25387
1.2441
1.23366
1.22096
1.21327
1.19993
1.1885
1.17846
1.16747
1.15759
1.1473
1.131
1.12066
1.1134
1.10445
1.09648
1.08763
1.0775
1.06784
1.05855
1.0515
1.03975
1.03028
1.01948
1.00665
0.995106
0.984464
0.977588
0.966331
0.953958
0.943234
0.934835
0.92836
0.919903
0.912048
0.901603
0.894231
0.878204
0.869562
0.860228
0.850938
0.8422
0.831362
0.820283
0.809698
0.800278
0.791031
0.782016
0.768929
0.759972
0.753338
1.48656
1.47745
1.46402
1.45617
1.44464
1.43612
1.4265
1.41774
1.40983
1.40155
1.39195
1.38333
1.36999
1.36076
1.35144
1.34112
1.33097
1.32222
1.31152
1.302
1.29514
1.28607
1.27417
1.26102
1.25624
1.24468
1.23695
1.22257
1.21093
1.19836
1.18757
1.17936
1.16682
1.15661
1.14448
1.12964
1.11791
1.11371
1.10508
1.10022
1.08892
1.07865
1.06813
1.05673
1.05174
1.04157
1.03021
1.02034
1.00653
0.995032
0.986955
0.977142
0.966822
0.956563
0.941804
0.934344
0.92633
0.91729
0.913064
0.902203
0.891613
0.878575
0.869779
0.860105
0.850806
0.841362
0.831411
0.820781
0.810253
0.799933
0.790719
0.781355
0.768828
0.760929
0.751799
1.48501
1.47736
1.46313
1.45774
1.4453
1.43607
1.42566
1.41822
1.41052
1.40082
1.39367
1.38046
1.3704
1.36103
1.35023
1.34221
1.33233
1.32321
1.31136
1.29928
1.294
1.2882
1.27386
1.26389
1.25693
1.2425
1.2377
1.22342
1.20884
1.1992
1.18883
1.18013
1.16919
1.15626
1.14276
1.12602
1.12131
1.11633
1.10404
1.10038
1.08881
1.08004
1.06861
1.05741
1.04826
1.04457
1.02921
1.02061
1.00748
0.99385
0.988541
0.977596
0.966841
0.955893
0.943124
0.934418
0.925653
0.918747
0.910415
0.90227
0.88847
0.87837
0.870761
0.859664
0.850887
0.841133
0.832194
0.821114
0.809955
0.798253
0.791143
0.780528
0.768232
0.76263
0.753067
1.48044
1.47889
1.46459
1.45707
1.44654
1.43728
1.42397
1.41903
1.41277
1.39877
1.39314
1.38076
1.36991
1.35963
1.34714
1.34681
1.33221
1.32267
1.31171
1.30147
1.29328
1.28687
1.27443
1.26519
1.25633
1.24745
1.23558
1.22002
1.20964
1.19961
1.18961
1.18053
1.16794
1.15595
1.14309
1.12946
1.12615
1.11591
1.10545
1.09907
1.08539
1.08174
1.06901
1.05639
1.05011
1.04076
1.02884
1.01753
1.01122
0.996768
0.98541
0.981089
0.967299
0.95392
0.944171
0.934484
0.924791
0.921881
0.907843
0.899159
0.888613
0.877522
0.86825
0.862669
0.850451
0.84122
0.83531
0.821522
0.807995
0.79711
0.792431
0.781078
0.768789
0.761481
0.752614
1.49065
1.47705
1.46364
1.45423
1.44589
1.43536
1.43025
1.42104
1.41259
1.39819
1.39002
1.37903
1.36894
1.36026
1.35013
1.34196
1.33442
1.32264
1.31162
1.30047
1.29136
1.28783
1.27502
1.26544
1.25643
1.24817
1.23452
1.21981
1.21011
1.19998
1.18962
1.17946
1.16866
1.15671
1.14498
1.1334
1.12691
1.11627
1.10478
1.0966
1.08755
1.08119
1.06972
1.05923
1.04964
1.03914
1.02773
1.01782
1.01094
0.998723
0.985754
0.977561
0.966531
0.955229
0.94542
0.935383
0.926104
0.917959
0.907817
0.898274
0.889435
0.877426
0.869972
0.856466
0.851201
0.8421
0.837594
0.821307
0.810346
0.79986
0.790635
0.782587
0.767673
0.760525
0.752228
1.4918
1.47803
1.46599
1.45158
1.44762
1.43832
1.43
1.4217
1.40998
1.39936
1.38905
1.37679
1.36779
1.36211
1.3525
1.34317
1.3303
1.32178
1.31269
1.29725
1.29237
1.28934
1.27364
1.26461
1.25568
1.24625
1.2346
1.22223
1.21116
1.20072
1.18931
1.17825
1.16858
1.15727
1.14696
1.13689
1.12824
1.11838
1.10216
1.09589
1.0882
1.08154
1.06994
1.06003
1.04984
1.03863
1.02597
1.01751
1.01244
1.00033
0.985913
0.976101
0.965657
0.955298
0.945996
0.935735
0.926141
0.915366
0.906707
0.896971
0.886458
0.880794
0.869419
0.857994
0.848284
0.845976
0.833694
0.823669
0.812506
0.802011
0.788953
0.785676
0.771501
0.76086
0.748937
1.48818
1.48174
1.46527
1.45387
1.44528
1.44044
1.43023
1.42037
1.40995
1.40028
1.38583
1.37619
1.37051
1.36084
1.35466
1.34091
1.32917
1.32212
1.31224
1.30082
1.29244
1.28402
1.27293
1.26387
1.25546
1.2466
1.23556
1.2233
1.21162
1.20241
1.18762
1.1765
1.16775
1.15695
1.14884
1.13895
1.12998
1.11889
1.10669
1.09664
1.08856
1.07747
1.06877
1.0595
1.04971
1.0391
1.02544
1.0213
1.0118
1.00007
0.985166
0.975406
0.964842
0.95459
0.94616
0.935379
0.924891
0.91514
0.905996
0.896644
0.887929
0.881873
0.867782
0.858543
0.848183
0.842589
0.833502
0.827111
0.814643
0.801572
0.790868
0.782061
0.773601
0.762543
0.752378
1.48923
1.48087
1.46683
1.45537
1.44569
1.43876
1.42983
1.41965
1.40974
1.39781
1.38381
1.37716
1.37
1.36208
1.35478
1.33994
1.32907
1.32406
1.31335
1.30296
1.29235
1.28118
1.27019
1.26256
1.25546
1.24907
1.23778
1.22371
1.20952
1.20178
1.18657
1.17578
1.16673
1.15638
1.15226
1.14063
1.13033
1.12061
1.10964
1.09696
1.08722
1.07745
1.06823
1.05879
1.04923
1.03916
1.0293
1.01561
1.01139
1.00166
0.987382
0.975668
0.964379
0.952442
0.944762
0.934934
0.924718
0.915324
0.905601
0.895997
0.887561
0.8821
0.868092
0.857609
0.84882
0.841163
0.832172
0.828427
0.816977
0.80083
0.792651
0.784229
0.777388
0.763609
0.75072
1.49139
1.47859
1.46821
1.45614
1.44501
1.43788
1.43062
1.41909
1.40745
1.3976
1.38752
1.3784
1.3701
1.36226
1.35265
1.3359
1.33198
1.32334
1.31399
1.30535
1.29231
1.27817
1.26466
1.26064
1.25486
1.24859
1.24021
1.22438
1.2101
1.20005
1.18771
1.17502
1.16541
1.16119
1.15351
1.14137
1.12954
1.12308
1.11036
1.09782
1.08661
1.07719
1.06776
1.05815
1.04927
1.03922
1.03071
1.01602
1.00886
0.998772
0.986998
0.975589
0.964663
0.953824
0.944519
0.934688
0.925313
0.915826
0.905169
0.894299
0.884869
0.881656
0.868109
0.858292
0.848352
0.841607
0.834466
0.828109
0.818935
0.805384
0.794732
0.785099
0.777881
0.76396
0.749338
1.49135
1.47339
1.46854
1.45648
1.4429
1.43787
1.43385
1.41856
1.40327
1.39777
1.39131
1.37899
1.36958
1.36059
1.3486
1.33847
1.33212
1.32199
1.3143
1.30441
1.29316
1.27524
1.26726
1.26086
1.2544
1.24914
1.2367
1.22356
1.2106
1.20022
1.18892
1.1733
1.16827
1.16168
1.15629
1.14103
1.13192
1.12222
1.11011
1.09845
1.08599
1.07728
1.0674
1.05673
1.04732
1.04042
1.03068
1.01856
1.0081
0.99749
0.986275
0.97507
0.964561
0.953686
0.944223
0.934143
0.926778
0.917526
0.90516
0.892418
0.884048
0.875469
0.871528
0.859975
0.847037
0.841845
0.836081
0.829806
0.823771
0.808674
0.795882
0.784921
0.77621
0.765086
0.748323
1.49181
1.47337
1.47008
1.4592
1.44499
1.43729
1.42971
1.41829
1.40653
1.39884
1.38991
1.37786
1.36867
1.35948
1.34597
1.34009
1.33295
1.31871
1.31604
1.30477
1.29298
1.27987
1.26983
1.26112
1.25262
1.24539
1.23283
1.22189
1.20999
1.20149
1.19064
1.1756
1.17271
1.1593
1.15109
1.14276
1.13601
1.12266
1.10873
1.09864
1.08952
1.07838
1.06893
1.05386
1.04973
1.03763
1.03158
1.01868
1.00751
0.996842
0.985761
0.974648
0.964064
0.952658
0.94538
0.931388
0.927968
0.915151
0.905203
0.89492
0.882384
0.87554
0.871691
0.863288
0.847541
0.842758
0.838135
0.830758
0.82429
0.809954
0.795386
0.785306
0.775861
0.763686
0.75072
1.49389
1.47765
1.46843
1.45751
1.44962
1.43772
1.42879
1.41843
1.40813
1.40008
1.38611
1.37821
1.36799
1.35873
1.34908
1.3431
1.32556
1.32056
1.31686
1.30534
1.29405
1.2827
1.27237
1.26106
1.24943
1.24198
1.23108
1.22119
1.20861
1.2056
1.19212
1.18005
1.17085
1.15907
1.14627
1.14267
1.13828
1.12351
1.10992
1.09862
1.08811
1.07844
1.06833
1.0571
1.04917
1.04005
1.02916
1.01739
1.00647
0.996347
0.985262
0.973927
0.96454
0.949372
0.944416
0.934516
0.925867
0.914823
0.904997
0.897706
0.883675
0.875266
0.868395
0.866048
0.847016
0.84368
0.841385
0.830735
0.82219
0.81089
0.79802
0.786437
0.776211
0.763198
0.751693
1.49692
1.47812
1.46803
1.45464
1.45354
1.43915
1.42922
1.4184
1.40728
1.39927
1.38497
1.38129
1.36636
1.35801
1.35043
1.34114
1.32952
1.3217
1.31462
1.30536
1.29417
1.28204
1.27232
1.261
1.24957
1.24072
1.23085
1.22238
1.21042
1.20252
1.19193
1.18241
1.17073
1.15999
1.14948
1.14352
1.13216
1.12395
1.11199
1.09863
1.08831
1.07871
1.06892
1.05863
1.04831
1.03835
1.02723
1.01553
1.0108
0.996759
0.983795
0.972446
0.963119
0.952627
0.941215
0.935684
0.924134
0.913299
0.902637
0.896101
0.887292
0.875691
0.872472
0.867439
0.848028
0.843811
0.839337
0.833005
0.821361
0.813006
0.800596
0.785954
0.775886
0.762891
0.750861
1.49349
1.48046
1.46358
1.45667
1.45505
1.44157
1.43051
1.41853
1.4041
1.39938
1.38669
1.37719
1.36671
1.35775
1.35329
1.34174
1.33092
1.32215
1.31399
1.30706
1.2916
1.28244
1.27341
1.26166
1.24741
1.23784
1.23288
1.2223
1.20953
1.20119
1.19165
1.1855
1.17146
1.16078
1.15012
1.14234
1.13008
1.12501
1.11085
1.09909
1.08884
1.07914
1.06916
1.06001
1.04745
1.03788
1.02689
1.01575
1.00699
0.996164
0.984989
0.973368
0.96263
0.950923
0.94437
0.932154
0.921938
0.911381
0.899766
0.895516
0.88852
0.881387
0.879711
0.864449
0.852111
0.843933
0.837085
0.832659
0.818123
0.814266
0.80147
0.788186
0.775798
0.764866
0.751673
1.49581
1.47944
1.46683
1.45487
1.45167
1.44132
1.43157
1.42136
1.40943
1.39726
1.38747
1.37535
1.36595
1.36009
1.35289
1.3415
1.33081
1.32201
1.31313
1.30372
1.29241
1.2829
1.27296
1.26195
1.248
1.2396
1.23235
1.22312
1.20627
1.2013
1.19575
1.18395
1.17267
1.16051
1.14844
1.14475
1.13064
1.1223
1.11018
1.09926
1.08879
1.08057
1.06981
1.05997
1.04806
1.03865
1.02682
1.01541
1.00497
0.995646
0.985427
0.97452
0.963534
0.952822
0.94355
0.926852
0.920165
0.909995
0.902761
0.897796
0.889778
0.882795
0.881487
0.865396
0.850941
0.843465
0.834436
0.83243
0.819887
0.814629
0.80338
0.788896
0.773651
0.762744
0.754383
1.49416
1.47887
1.4688
1.45362
1.45124
1.44097
1.43002
1.42471
1.41185
1.40039
1.38712
1.37669
1.36814
1.35672
1.35334
1.34079
1.32979
1.32195
1.31276
1.30147
1.28925
1.2836
1.27259
1.26211
1.25076
1.24139
1.23259
1.22381
1.2077
1.20215
1.19376
1.18289
1.17342
1.16161
1.14719
1.14464
1.13082
1.12105
1.10999
1.09899
1.08664
1.08298
1.06944
1.05997
1.04709
1.03726
1.02616
1.01485
1.00641
0.995884
0.985953
0.975824
0.964228
0.953398
0.940627
0.929489
0.921007
0.908134
0.905148
0.901384
0.889924
0.878991
0.878975
0.863889
0.850566
0.84484
0.836674
0.83321
0.816729
0.812024
0.805619
0.789788
0.775281
0.761895
0.756754
1.49108
1.4789
1.46787
1.45733
1.44945
1.44042
1.43059
1.42265
1.41356
1.40159
1.38984
1.37868
1.36862
1.35607
1.35051
1.33967
1.33072
1.32224
1.31442
1.30034
1.28878
1.28041
1.2722
1.26431
1.25164
1.24247
1.23302
1.22346
1.2092
1.2053
1.19133
1.18227
1.17249
1.16198
1.15105
1.1427
1.13143
1.12076
1.11017
1.10004
1.08442
1.08275
1.06958
1.0595
1.04727
1.03613
1.02289
1.01537
1.00981
0.995058
0.986797
0.978608
0.964691
0.951558
0.940745
0.930703
0.922037
0.910814
0.908001
0.898493
0.889141
0.877393
0.875074
0.864497
0.854024
0.847908
0.835871
0.828441
0.8183
0.811755
0.804666
0.790065
0.775595
0.765022
0.755303
1.48956
1.47786
1.46604
1.45908
1.44814
1.43983
1.43037
1.42006
1.41613
1.40355
1.39186
1.37996
1.36778
1.35408
1.34981
1.34091
1.33117
1.32194
1.31461
1.29961
1.29053
1.27752
1.27155
1.26316
1.25571
1.24383
1.23359
1.22402
1.21173
1.20128
1.19177
1.18247
1.17153
1.16357
1.15264
1.14185
1.13146
1.12109
1.10991
1.09931
1.08397
1.08161
1.07065
1.06028
1.04578
1.03717
1.02279
1.01519
1.00551
0.995574
0.987893
0.979407
0.964605
0.953768
0.942591
0.930079
0.925889
0.915458
0.907466
0.894857
0.888106
0.880702
0.877577
0.863576
0.855072
0.84787
0.832528
0.826085
0.817323
0.811865
0.806437
0.789985
0.772996
0.767137
0.753809
1.48749
1.47497
1.46758
1.45826
1.44925
1.44057
1.4302
1.42037
1.41425
1.40562
1.39472
1.38081
1.36784
1.3541
1.34617
1.34195
1.33063
1.31998
1.31404
1.30085
1.28967
1.28348
1.27302
1.26229
1.25466
1.24445
1.23382
1.22457
1.21336
1.19907
1.19064
1.1838
1.17092
1.16752
1.15373
1.14077
1.13127
1.12206
1.10804
1.09632
1.08706
1.0803
1.07106
1.05731
1.04628
1.03555
1.02472
1.01186
1.00675
0.994622
0.989193
0.977778
0.967878
0.956584
0.945982
0.931056
0.926476
0.917797
0.9081
0.896841
0.887509
0.881455
0.874958
0.865136
0.854881
0.845817
0.836119
0.826376
0.814704
0.810933
0.801551
0.790424
0.775229
0.763396
0.751707
1.48742
1.47732
1.46317
1.45715
1.45003
1.44267
1.43051
1.41862
1.412
1.40707
1.39312
1.38061
1.36863
1.35802
1.3476
1.3379
1.33265
1.32276
1.31022
1.30006
1.29296
1.28367
1.2748
1.26265
1.2544
1.24677
1.23262
1.22283
1.21205
1.20079
1.18924
1.18703
1.17066
1.16464
1.15377
1.14302
1.13119
1.1201
1.10826
1.09619
1.08799
1.07962
1.06841
1.05885
1.04736
1.03395
1.02479
1.01402
1.00564
0.995973
0.987169
0.975722
0.970314
0.958854
0.945874
0.932436
0.929011
0.920345
0.909355
0.89792
0.889168
0.881392
0.873849
0.866766
0.85335
0.845331
0.837768
0.827917
0.815868
0.806961
0.797888
0.787046
0.77499
0.761306
0.752642
1.48633
1.47792
1.46597
1.45805
1.4503
1.44073
1.43092
1.42116
1.40835
1.4044
1.39245
1.37994
1.36806
1.3607
1.34949
1.33871
1.33117
1.32207
1.31217
1.29745
1.29337
1.28259
1.27531
1.2645
1.2538
1.2483
1.23384
1.2222
1.21238
1.20311
1.1888
1.18601
1.16871
1.16474
1.15331
1.14198
1.13043
1.1189
1.1075
1.09721
1.08827
1.07905
1.06843
1.05828
1.04685
1.03557
1.02561
1.01527
1.00479
0.997432
0.986926
0.976526
0.967263
0.961142
0.946621
0.935815
0.928239
0.918156
0.913202
0.89932
0.890492
0.881101
0.873059
0.864855
0.853601
0.845686
0.838838
0.828221
0.816498
0.805594
0.796112
0.785764
0.76955
0.761633
0.754011
1.494
1.48081
1.47016
1.45544
1.4518
1.44091
1.43087
1.41978
1.40985
1.40232
1.39238
1.37862
1.36405
1.35934
1.35328
1.3423
1.33021
1.32124
1.31133
1.30018
1.29029
1.28118
1.27782
1.26599
1.25815
1.24729
1.23327
1.22084
1.21134
1.20499
1.18988
1.1823
1.1716
1.16305
1.15212
1.14048
1.12971
1.1177
1.1061
1.09803
1.08884
1.07901
1.06844
1.05817
1.04698
1.03581
1.02677
1.01656
1.00363
1.00001
0.986896
0.977187
0.967489
0.959262
0.948081
0.937857
0.928586
0.918412
0.912959
0.900055
0.891975
0.880815
0.872256
0.863153
0.851672
0.847519
0.83833
0.828185
0.816454
0.805023
0.795139
0.786113
0.772876
0.761668
0.749604
1.49056
1.48124
1.47027
1.45811
1.45116
1.44143
1.43093
1.41897
1.41006
1.40179
1.38822
1.37829
1.36751
1.3594
1.35122
1.34191
1.3307
1.32064
1.31189
1.30188
1.28805
1.28242
1.27727
1.26551
1.26107
1.24531
1.23154
1.22015
1.21191
1.20207
1.18953
1.18199
1.17157
1.16402
1.15057
1.13841
1.12896
1.11629
1.10362
1.09971
1.08969
1.07972
1.06899
1.05829
1.04708
1.03514
1.02848
1.01666
1.00494
0.996346
0.990119
0.977811
0.967878
0.958378
0.948538
0.939019
0.930525
0.916745
0.913595
0.901079
0.89223
0.881675
0.87199
0.862031
0.851992
0.845954
0.838512
0.828827
0.817185
0.803348
0.793918
0.784173
0.776006
0.762489
0.748968
1.48727
1.47975
1.47088
1.46135
1.45181
1.44219
1.43002
1.41945
1.40957
1.3996
1.38842
1.37889
1.36953
1.35965
1.34978
1.34221
1.33101
1.32008
1.3139
1.30245
1.29136
1.28331
1.27224
1.26722
1.25791
1.24566
1.23208
1.21957
1.2133
1.20081
1.18954
1.18402
1.17277
1.16214
1.15047
1.1385
1.12754
1.11421
1.10458
1.09844
1.09025
1.08129
1.06956
1.05904
1.04816
1.03877
1.02561
1.016
1.00592
0.996873
0.989535
0.977118
0.967692
0.958062
0.948835
0.939268
0.930011
0.92
0.91269
0.902101
0.892229
0.882126
0.872123
0.861966
0.850827
0.84426
0.840272
0.827546
0.815644
0.804213
0.793532
0.781986
0.775699
0.762789
0.750905
1.48706
1.47693
1.47124
1.46457
1.45254
1.44142
1.42963
1.41959
1.40931
1.39866
1.38664
1.37872
1.37185
1.36048
1.34558
1.34396
1.33323
1.32395
1.31158
1.30254
1.29323
1.28301
1.27217
1.26423
1.25601
1.24656
1.23309
1.22132
1.2114
1.19881
1.1923
1.18266
1.17194
1.16115
1.15004
1.13864
1.12729
1.11095
1.10565
1.0982
1.09058
1.08461
1.06851
1.06026
1.0488
1.03786
1.0257
1.01565
1.0066
0.994707
0.991134
0.977633
0.967686
0.957003
0.949497
0.939452
0.93032
0.920836
0.913408
0.902498
0.892482
0.882477
0.872466
0.862984
0.853764
0.842216
0.839947
0.824877
0.814865
0.804425
0.794071
0.784175
0.773065
0.762349
0.751369
1.48746
1.47975
1.47162
1.46347
1.45203
1.44037
1.42867
1.42059
1.40948
1.39945
1.38333
1.37752
1.37077
1.36432
1.34608
1.34241
1.33506
1.32467
1.31223
1.30327
1.29524
1.28307
1.27231
1.2615
1.25577
1.24915
1.23331
1.2221
1.21047
1.19959
1.19305
1.18175
1.17114
1.16056
1.14973
1.13865
1.12759
1.11134
1.1077
1.09815
1.0894
1.08058
1.0682
1.06283
1.04868
1.03861
1.02559
1.01471
1.00266
0.997908
0.989921
0.980279
0.96754
0.953637
0.950212
0.94056
0.931091
0.920147
0.917021
0.902064
0.89268
0.882803
0.872189
0.864751
0.855209
0.844238
0.83395
0.824435
0.814675
0.804579
0.794031
0.785747
0.773414
0.762105
0.751927
1.49226
1.47763
1.47053
1.46362
1.45169
1.43954
1.42711
1.42392
1.40854
1.39854
1.3872
1.37742
1.36922
1.36256
1.35086
1.34332
1.32972
1.32318
1.31553
1.30335
1.29379
1.28887
1.27255
1.2635
1.25611
1.24722
1.23341
1.22386
1.20729
1.20109
1.19444
1.17991
1.17043
1.16016
1.1495
1.13872
1.12828
1.11429
1.1066
1.0973
1.08816
1.0788
1.06935
1.06216
1.04569
1.04072
1.02685
1.01403
1.00199
0.996266
0.988697
0.97867
0.96844
0.957484
0.946085
0.942821
0.934456
0.921397
0.914757
0.903872
0.893491
0.883535
0.870936
0.868013
0.853333
0.843397
0.833635
0.824283
0.814856
0.805443
0.792455
0.787219
0.772703
0.762439
0.753042
1.49163
1.4786
1.46834
1.46359
1.45153
1.43947
1.42826
1.42202
1.40992
1.39951
1.38977
1.37732
1.36743
1.36295
1.35176
1.3421
1.33161
1.32282
1.31284
1.3029
1.29735
1.28789
1.27488
1.26585
1.25781
1.24421
1.23376
1.22425
1.20948
1.20317
1.19079
1.17776
1.17063
1.16016
1.14938
1.13867
1.12798
1.1164
1.10636
1.09634
1.08726
1.07786
1.0687
1.05953
1.04717
1.03937
1.02734
1.01422
0.999404
0.994884
0.98987
0.976838
0.964981
0.961385
0.949251
0.939436
0.937559
0.92598
0.915628
0.904653
0.894011
0.882699
0.872233
0.86537
0.853847
0.843053
0.833685
0.824017
0.815164
0.802829
0.79867
0.784932
0.768394
0.76483
0.754633
1.49227
1.47953
1.4699
1.46096
1.45019
1.43898
1.42771
1.42295
1.41007
1.40036
1.38937
1.37867
1.36933
1.36065
1.35106
1.34191
1.33352
1.32419
1.306
1.30252
1.29727
1.29192
1.27613
1.26692
1.25739
1.24547
1.23419
1.22197
1.21263
1.20365
1.18957
1.17674
1.17341
1.16038
1.14884
1.1375
1.12899
1.1171
1.10543
1.09546
1.08634
1.07725
1.06803
1.05863
1.04561
1.03747
1.02586
1.01307
0.999258
0.994748
0.989792
0.97756
0.966355
0.957582
0.950584
0.942897
0.937731
0.93084
0.917688
0.905545
0.894412
0.880888
0.872412
0.866292
0.85428
0.840727
0.83386
0.823252
0.811325
0.807152
0.798492
0.784291
0.769244
0.765965
0.754372
1.49343
1.48007
1.47079
1.46024
1.44926
1.43859
1.42804
1.42148
1.40996
1.40166
1.38955
1.37986
1.3708
1.35934
1.35024
1.34059
1.32981
1.32353
1.30915
1.30486
1.29686
1.28838
1.27925
1.2622
1.25784
1.24613
1.23546
1.22468
1.21547
1.20132
1.19069
1.17915
1.16951
1.15926
1.14823
1.1373
1.12801
1.11796
1.10518
1.10049
1.08503
1.07663