/*--------------------------------*- C++ -*----------------------------------*\
  =========                 |
  \\      /  F ield         | OpenFOAM: The Open Source CFD Toolbox
   \\    /   O peration     | Website:  https://openfoam.org
    \\  /    A nd           | Version:  12
     \\/     M anipulation  |
\*---------------------------------------------------------------------------*/
FoamFile
{
    format      ascii;
    class       surfaceScalarField;
    location    "0.35";
    object      phi.water_0;
}
// * * * * * * * * * * * * * * * * * * * * * * * * * * * * * * * * * * * * * //

dimensions      [0 3 -1 0 0 0 0];

internalField   nonuniform List<scalar> 
7375
(
-2.95797e-07
7.71231e-09
-1.37471e-07
-6.50676e-08
3.77805e-08
-4.79481e-08
1.486e-08
-1.0093e-07
2.77234e-08
-1.28125e-08
4.64914e-08
-1.85796e-08
3.68108e-08
1.02625e-08
8.33996e-08
-4.5708e-08
2.24904e-08
1.90656e-08
4.8597e-08
1.52069e-08
1.61382e-07
1.00013e-08
7.66017e-08
-3.8392e-08
9.19336e-08
-1.43884e-08
8.92693e-08
2.62535e-09
6.56096e-08
2.43894e-08
1.6046e-07
3.10018e-08
6.07053e-08
-2.62883e-08
7.99453e-08
-1.92262e-08
9.62906e-08
-1.63918e-08
1.04864e-07
-5.22428e-08
1.40947e-07
5.02856e-09
1.16183e-07
2.47523e-08
1.04597e-07
1.14703e-08
9.80737e-08
7.56561e-09
8.57231e-08
1.3161e-08
8.1387e-08
4.37239e-09
8.21718e-08
-7.20007e-10
1.93228e-07
1.48074e-08
1.07214e-07
-4.24526e-08
1.03634e-07
3.58013e-09
1.07546e-07
-2.84161e-09
9.67063e-08
-3.05857e-08
1.02845e-07
3.49283e-08
1.08103e-07
-5.28412e-09
1.10003e-07
-1.98695e-09
1.22973e-07
-1.31419e-08
1.27699e-07
-6.01968e-09
1.30528e-07
-2.82832e-09
1.3637e-07
-5.89391e-09
1.37529e-07
-1.14642e-09
1.37869e-07
2.52263e-09
1.15521e-07
-1.99431e-08
1.60888e-07
-6.69775e-09
1.94917e-07
-3.4029e-08
2.12278e-07
-1.73251e-08
2.17085e-07
-4.80685e-09
1.947e-07
2.66662e-08
1.38898e-07
5.71249e-08
8.96105e-08
4.83978e-08
7.20744e-08
1.6703e-08
8.22082e-08
-1.02375e-08
9.89089e-08
-1.58544e-08
6.82632e-08
-1.15448e-08
1.01855e-07
7.46958e-09
1.01613e-07
1.32763e-09
9.71887e-08
4.46305e-09
1.01215e-07
-2.89481e-09
9.05163e-08
1.08096e-08
1.05838e-07
-1.52569e-08
1.20378e-07
-1.44306e-08
1.18731e-07
3.27899e-10
1.12647e-07
6.0311e-09
9.74575e-08
1.51969e-08
8.0403e-08
1.73281e-08
7.03936e-08
1.00873e-08
5.98565e-08
1.04583e-08
5.3484e-08
6.39992e-09
5.63142e-08
-2.75395e-09
7.18246e-08
-1.48183e-08
3.95948e-08
-9.70791e-09
8.69956e-08
-6.37169e-09
8.90545e-08
-3.01302e-09
1.08065e-07
-1.90109e-08
1.13391e-07
-4.24102e-09
5.33481e-09
-2.03318e-07
1.82243e-08
-1.225e-07
-1.20455e-07
-1.41296e-07
-7.12985e-08
-1.06834e-07
-9.33631e-08
-1.00049e-07
-1.85867e-08
-8.72872e-08
-3.25388e-08
-1.13243e-07
-6.08912e-09
2.00442e-10
6.76704e-09
-8.56641e-08
-2.05758e-08
-8.25158e-08
-2.98476e-08
-1.41556e-08
-1.6037e-08
-2.42661e-08
-2.84248e-08
-1.91564e-08
-1.93039e-08
4.51292e-09
-2.14533e-08
-1.14581e-08
4.04071e-08
5.99207e-09
1.35118e-08
-2.00351e-08
-2.60547e-10
-2.58416e-08
-1.34188e-08
-3.84611e-08
-4.55638e-09
-1.6559e-08
1.04791e-08
7.88431e-10
2.96679e-08
-6.11467e-08
-3.62498e-08
-5.40494e-08
3.87176e-09
-4.06972e-08
-5.92209e-09
-1.65876e-08
-1.09483e-08
-3.9579e-08
-1.3925e-08
-1.23481e-08
1.29852e-08
-7.62637e-09
9.7495e-09
2.16389e-08
5.48208e-08
-9.08835e-08
-8.83032e-09
-9.7788e-08
4.10487e-09
-2.42554e-08
2.05675e-08
-7.51991e-08
-3.73095e-08
-4.38995e-08
-3.73507e-08
-2.67458e-08
-1.94136e-08
-3.49246e-08
-4.9124e-09
-2.8846e-08
-1.17422e-08
-3.53129e-08
3.647e-09
-3.00123e-08
-1.08886e-08
-1.69027e-08
-1.42676e-08
-9.89384e-10
-1.35836e-08
-3.32399e-08
-2.98282e-08
5.3006e-08
-5.07863e-08
8.6526e-08
-6.80843e-08
1.25643e-07
-5.70183e-08
1.52347e-07
-2.9972e-08
1.59917e-07
2.25894e-08
1.06508e-07
1.09904e-07
6.39409e-08
8.78634e-08
2.18057e-08
5.84085e-08
-2.51948e-08
3.66575e-08
-5.09624e-08
1.01706e-08
-6.25868e-08
7.97919e-11
-5.18692e-08
-3.17155e-09
-4.51858e-08
-4.89467e-09
-4.00372e-08
-2.80902e-10
-1.7108e-08
-2.6401e-08
5.20243e-09
-5.36951e-08
1.61823e-08
-2.60242e-08
4.99217e-08
-7.05231e-09
4.19592e-08
7.86678e-09
1.67816e-08
3.16327e-08
-1.62486e-08
4.82326e-08
-6.17222e-08
2.11126e-08
-5.91592e-08
4.97294e-08
-6.01256e-08
1.14248e-08
-5.60857e-08
2.31881e-09
-4.42503e-08
-1.4589e-08
-3.26138e-08
-2.71832e-08
-1.13533e-07
2.98317e-08
-7.53232e-08
-3.87033e-09
-7.5699e-08
-2.63754e-09
-6.41739e-08
-2.99586e-08
-3.28367e-08
-3.55786e-08
-6.81851e-09
-2.02658e-07
2.39652e-08
-9.41503e-08
-6.60251e-08
-2.05952e-07
-8.36939e-08
-1.16497e-07
-5.49735e-08
-1.63805e-07
-9.4718e-08
-1.16269e-07
-8.0036e-08
-1.14949e-07
-7.33448e-09
-9.67674e-08
-1.25868e-08
-1.03033e-07
-1.43091e-08
-1.12065e-07
-2.05108e-08
-1.02492e-07
-2.56093e-08
-1.08871e-07
-2.18227e-08
-1.24212e-07
-5.3709e-09
-6.27518e-08
4.30299e-08
-1.58869e-07
9.48541e-09
-1.82156e-07
3.71875e-08
-1.81116e-07
2.41643e-09
-1.85973e-07
-8.56102e-09
-1.99236e-07
6.67519e-09
-1.04482e-07
4.23065e-08
-2.00316e-07
1.05447e-09
-1.25994e-07
1.27112e-08
-1.95686e-07
-5.00601e-08
-2.06572e-07
4.91434e-09
-2.06107e-07
-1.16431e-08
-2.2256e-07
2.55427e-09
-2.32161e-07
2.03503e-08
-1.43845e-07
4.85368e-08
-2.21558e-07
7.46141e-09
-2.56651e-07
2.13336e-08
-2.50125e-07
2.24724e-10
-1.89465e-07
-3.71613e-08
-1.94816e-07
-3.23395e-08
-2.02261e-07
-2.99057e-08
-1.80848e-07
-3.89819e-08
-1.8103e-07
-4.681e-09
-1.67704e-07
-2.86257e-08
-1.58266e-07
-5.79126e-09
-1.4808e-07
-1.946e-08
-1.28668e-07
-3.3825e-08
-1.12122e-07
-3.01299e-08
-9.54025e-08
-4.54752e-08
-7.81026e-08
-6.72895e-08
-6.74128e-08
-7.94549e-08
-5.42997e-08
-7.08543e-08
-2.28207e-08
-6.17568e-08
7.21795e-08
5.23306e-08
8.64506e-09
4.7221e-08
-1.35574e-08
1.09266e-07
-5.16963e-08
1.37889e-07
-8.0474e-08
6.50613e-08
-1.19155e-07
4.93551e-08
-1.1755e-07
-1.52458e-09
-1.15354e-07
-5.36747e-09
-1.11089e-07
-9.06672e-09
-1.17804e-07
-3.50485e-08
-1.27233e-07
-1.72413e-08
-1.31169e-07
-6.39318e-09
-1.36003e-07
-2.14064e-08
-1.16402e-07
-2.86247e-08
-1.16628e-07
8.25756e-09
-1.43501e-07
5.82348e-08
-1.49024e-07
5.22358e-08
-6.83907e-08
6.66871e-08
-1.34728e-07
-6.42433e-09
-1.23199e-07
-1.36232e-09
-1.24528e-07
3.64815e-09
-1.44648e-07
3.90734e-09
-6.32211e-08
1.72887e-08
-1.98245e-07
-4.16553e-10
-1.58368e-07
-2.26786e-09
-1.46158e-07
-1.48212e-08
-1.56773e-07
-1.91496e-08
-7.5072e-08
7.15896e-09
-2.76068e-08
-1.95131e-07
8.40961e-09
-1.50986e-07
-7.87721e-08
-1.7787e-07
-5.44151e-08
-1.62417e-07
-6.98645e-08
-1.88599e-07
-1.11939e-07
-1.01098e-07
-4.11977e-08
-1.54254e-07
-7.64131e-08
-1.08188e-07
-6.02253e-08
-9.59694e-08
-2.65273e-08
-1.13617e-07
-2.83401e-09
-1.07021e-07
-3.1112e-08
-1.05828e-07
-2.19467e-08
-1.18905e-07
5.43679e-09
-1.24015e-07
4.59983e-08
-1.59259e-07
4.39225e-08
-1.92897e-07
2.78651e-08
-1.99186e-07
1.0566e-08
-2.05358e-07
-2.38828e-09
-2.05314e-07
6.63186e-09
-1.7666e-07
5.47016e-08
-2.24428e-07
4.8833e-08
-2.27417e-07
1.32519e-08
-1.7405e-07
2.40883e-08
-2.69302e-07
-2.42216e-08
-2.64149e-07
-2.20664e-08
-2.67635e-07
8.67383e-09
-2.47332e-07
2.74964e-09
-2.20444e-07
2.11546e-08
-2.24139e-07
1.12329e-08
-2.42972e-07
-1.53004e-09
-2.38422e-07
-1.89491e-09
-2.24384e-07
-1.01392e-08
-2.284e-07
-3.06128e-08
-2.29253e-07
-2.90526e-08
-2.3286e-07
-3.53741e-08
-2.26475e-07
-5.31353e-08
-1.81721e-07
-3.19008e-08
-1.63025e-07
-2.44287e-08
-1.52011e-07
-3.04735e-08
-1.46113e-07
-3.97236e-08
-1.37943e-07
-3.6892e-08
-1.26504e-07
-5.69146e-08
-1.29951e-07
-6.51333e-08
-1.40529e-07
-6.96879e-08
-1.43724e-07
-6.84021e-08
-1.32179e-07
-7.39383e-08
-1.28527e-07
8.01356e-09
-1.19366e-07
8.0021e-08
-1.29742e-07
1.19537e-07
-1.48917e-07
1.15585e-07
-1.54484e-07
6.90523e-08
-1.70805e-07
2.37692e-08
-1.26559e-07
-2.57462e-09
-1.48772e-07
1.83636e-08
-1.45277e-07
-1.24362e-08
-1.67729e-07
-1.40785e-08
-1.75555e-07
-9.41527e-09
-1.76897e-07
-6.85553e-09
-2.15641e-07
-2.89369e-08
-1.5036e-07
3.38048e-08
-2.36707e-07
1.61632e-08
-1.96041e-07
1.99599e-08
-1.68166e-07
2.23608e-08
-1.29629e-07
2.74696e-08
-1.34118e-07
-2.00038e-09
-1.46768e-07
1.12878e-08
-1.53941e-07
1.09324e-08
-1.73757e-07
2.19514e-08
-8.05827e-08
4.96569e-08
-1.97925e-07
-6.69005e-09
-1.83696e-07
-1.64967e-08
-1.74336e-07
-2.24029e-08
-1.74717e-07
-1.87706e-08
-1.58118e-07
-1.28354e-08
3.25655e-08
-1.98181e-07
-9.59285e-11
-1.80096e-07
-6.40222e-08
-1.68488e-07
-6.41845e-08
-1.72737e-07
-6.56152e-08
-1.85574e-07
-5.95158e-08
-1.76241e-07
-5.01056e-08
-1.95064e-07
-5.65716e-08
-1.06367e-07
-2.44832e-08
-8.68905e-08
-4.51167e-08
-1.26884e-07
-8.68989e-08
-1.1681e-07
-4.24795e-08
-1.2622e-07
-1.276e-08
-9.42788e-08
-2.54866e-08
-7.36633e-08
2.56629e-08
-8.76115e-08
5.86041e-08
-1.28005e-07
6.90832e-08
-1.58452e-07
4.01264e-08
-1.87799e-07
2.5343e-08
-1.95265e-07
1.40989e-08
-1.57066e-07
1.65025e-08
-2.03885e-07
5.36272e-08
-2.00328e-07
5.11747e-08
-1.88556e-07
1.01474e-08
-2.23729e-07
-2.88987e-08
-1.86977e-07
-1.3387e-08
-1.77072e-07
-1.41824e-09
-1.49566e-07
-2.68148e-08
-1.57526e-07
2.73104e-08
-1.39484e-07
-6.87918e-09
-1.81675e-07
4.06613e-08
-1.79084e-07
-4.48565e-09
-1.8489e-07
-4.43693e-09
-2.01883e-07
-1.36197e-08
-2.13077e-07
-1.7858e-08
-2.22958e-07
-2.77678e-08
-2.2158e-07
-5.45133e-08
-1.85437e-07
-6.64618e-08
-1.6384e-07
-4.60252e-08
-1.43955e-07
-5.03588e-08
-1.40892e-07
-4.27871e-08
-1.35896e-07
-4.18876e-08
-1.41081e-07
-5.23109e-08
-1.60935e-07
-4.52788e-08
-1.90187e-07
-4.04367e-08
-2.41096e-07
-1.76728e-08
-1.71836e-07
-1.80065e-08
-1.89719e-07
2.58966e-08
-1.65202e-07
5.71902e-08
-2.10349e-07
4.15016e-08
-2.32685e-07
1.13367e-08
-1.77022e-07
1.35274e-08
-2.05307e-07
4.97181e-08
-1.01651e-07
1.949e-08
-2.02954e-07
-4.31429e-08
-1.67945e-07
-6.5108e-09
-1.79552e-07
-4.1845e-09
-1.82619e-07
-6.34729e-09
-1.84617e-07
-3.00541e-09
-1.7909e-07
-3.45201e-08
-1.77107e-07
3.11121e-08
-1.8173e-07
2.06235e-08
-1.84676e-07
2.12561e-08
-1.90752e-07
2.84369e-08
-1.85131e-07
2.16279e-08
-1.75129e-07
-1.21262e-08
-2.12092e-07
4.60875e-08
-2.14154e-07
1.29944e-08
-2.14708e-07
2.46905e-08
-1.8616e-07
2.06021e-08
-2.03314e-07
1.04639e-08
-2.10217e-07
-9.59314e-09
-2.24401e-07
-8.21965e-09
-2.41677e-07
-1.68771e-09
-1.61234e-07
3.11597e-08
2.6827e-08
-1.88632e-07
-1.38772e-08
-1.52413e-07
-7.04179e-08
-1.48907e-07
-6.61341e-08
-1.54268e-07
-6.02543e-08
-1.38069e-07
-7.64944e-08
-1.5338e-07
-3.42827e-08
-1.52988e-07
-5.69634e-08
-1.27311e-07
-4.96529e-08
-1.31664e-07
-4.16809e-08
-7.8154e-08
-1.55832e-08
-9.03262e-08
-2.98134e-08
-2.0449e-07
-6.45134e-08
-1.40627e-07
-4.78692e-08
-1.23113e-07
7.15594e-09
-1.53363e-07
8.78776e-08
-1.35189e-07
5.12804e-08
-1.44252e-07
5.09979e-08
-1.34623e-07
1.73636e-08
-1.93791e-07
7.32672e-08
-7.94103e-08
2.73707e-08
-1.90965e-07
4.20012e-08
-1.70303e-07
2.85648e-08
-1.75453e-07
1.52981e-08
-1.92584e-07
-1.1472e-08
-1.77011e-07
-2.90966e-08
-1.94119e-07
1.35577e-08
-1.06272e-07
1.1878e-08
-1.81498e-07
-2.14047e-08
-8.13836e-08
1.6857e-08
-1.83075e-07
-2.27339e-08
-1.42042e-07
-4.03904e-09
-1.53231e-07
6.75149e-09
-1.7218e-07
5.32999e-09
-1.91103e-07
1.05372e-09
-1.78248e-07
-4.02126e-08
-1.59831e-07
-7.4767e-08
-1.66396e-07
-5.92859e-08
-1.51892e-07
-5.8832e-08
-1.47903e-07
-5.43478e-08
-1.49133e-07
-4.15569e-08
-1.66211e-07
-2.48099e-08
-1.95305e-07
-2.32171e-08
-2.14127e-07
-2.64566e-08
-2.32725e-07
-2.39683e-08
-2.5567e-07
-3.62615e-08
-2.2016e-07
-9.42917e-09
-2.08185e-07
1.39222e-08
-1.98278e-07
4.72826e-08
-2.31463e-07
7.51101e-08
-1.98205e-07
1.00495e-07
-1.30037e-07
7.03551e-08
-2.44319e-07
-5.97182e-10
-1.9257e-07
9.02236e-09
-2.24948e-07
-1.07651e-08
-2.26042e-07
-5.48286e-09
-2.25171e-07
-5.05514e-09
-2.30469e-07
-3.40107e-09
-2.52744e-07
-2.5242e-08
-2.40736e-07
-2.37097e-09
-2.28804e-07
2.14169e-08
-2.22707e-07
1.4738e-08
-2.17687e-07
1.62356e-08
-2.1615e-07
2.91055e-08
-2.18759e-07
2.20278e-08
-1.42959e-07
3.55403e-08
-2.20868e-07
-4.08796e-08
-1.93286e-07
2.6759e-08
-2.24635e-07
5.60396e-08
-2.0333e-07
-7.03103e-10
-2.03866e-07
1.10005e-08
-2.18149e-07
4.68956e-09
-2.2874e-07
2.37035e-09
-2.32836e-07
2.40717e-09
-2.11004e-07
9.32752e-09
-1.12706e-08
-1.75786e-07
-4.70498e-08
-1.54914e-07
-6.79513e-08
-1.89884e-07
-7.19088e-08
-1.58309e-07
-5.14394e-08
-7.69674e-08
-3.21152e-08
-1.66539e-07
-1.09843e-07
-1.37379e-07
-4.36871e-08
-1.31299e-07
-5.49617e-08
-1.3786e-07
-3.68175e-08
-1.7046e-07
1.38894e-08
-1.88298e-07
-5.44421e-08
-2.50149e-07
-7.4059e-10
-1.44732e-07
1.26312e-08
-1.1362e-07
-2.39547e-08
-1.95134e-07
4.52286e-09
-1.43758e-07
4.04474e-08
-1.61309e-07
6.42612e-08
-1.02767e-07
8.45437e-08
-2.21855e-07
2.77696e-08
-1.00746e-07
7.21801e-08
-1.90602e-07
7.8483e-09
-1.67371e-07
5.33403e-09
-1.61008e-07
8.84552e-09
-1.78011e-07
5.53186e-09
-1.05856e-07
2.42667e-08
-1.77065e-07
-3.80303e-08
-1.5078e-07
-1.63338e-08
-1.50807e-07
-2.18184e-08
-1.31585e-07
-2.53725e-09
-1.48376e-07
-5.94242e-09
-1.31909e-07
-2.07173e-08
-1.57559e-07
3.24021e-08
-1.40318e-07
-1.048e-08
-1.06109e-07
-3.20837e-08
-9.62606e-08
-5.26361e-08
-8.63162e-09
-3.71951e-08
-1.19495e-07
-7.09183e-08
-1.27972e-07
-5.15744e-08
-1.34726e-07
-4.80846e-08
-1.58004e-07
-1.82786e-08
-1.69375e-07
-1.34387e-08
-1.97744e-07
5.09973e-09
-1.95174e-07
-2.67629e-08
-1.86804e-07
-3.04512e-08
-1.89015e-07
-3.55711e-08
-1.83982e-07
-1.6391e-08
-1.62664e-07
-7.4713e-09
-1.66572e-07
5.119e-08
-1.85896e-07
9.34804e-08
-1.64169e-07
8.04438e-08
-1.64624e-07
6.84368e-08
-2.30738e-07
2.19134e-08
-1.99622e-07
2.17399e-08
-2.0261e-07
-7.77718e-09
-2.06092e-07
-2.00119e-09
-1.95567e-07
-1.55799e-08
-1.94427e-07
-4.54013e-09
-2.00079e-07
-1.95315e-08
-1.27647e-07
5.04464e-08
-2.24574e-07
-4.83649e-09
-2.2171e-07
9.58239e-09
-2.21297e-07
1.58226e-08
-2.09679e-07
1.74882e-08
-1.9915e-07
1.18442e-08
-2.11011e-07
4.48865e-08
-1.64722e-07
3.85523e-08
-1.49169e-07
1.28866e-08
-2.30073e-07
-2.8974e-08
-2.02627e-07
1.33301e-08
-1.91045e-07
-5.81021e-10
-2.0235e-07
1.59936e-08
-2.0603e-07
6.04972e-09
-2.02962e-07
-6.62616e-10
-1.94428e-07
7.93737e-10
-1.02533e-08
-8.47012e-08
1.4831e-08
-1.98422e-07
-6.35001e-08
-1.74576e-07
-9.19877e-08
-1.82427e-07
-4.5351e-08
-1.94145e-07
-6.40625e-08
-2.25951e-07
-3.88624e-08
-2.52012e-07
-6.21298e-08
-2.76085e-07
1.0204e-08
-2.48636e-07
6.64832e-08
-3.44008e-07
-1.48826e-08
-2.6816e-07
-7.55362e-09
-3.37249e-07
-5.33533e-08
-2.99906e-07
-2.49654e-08
-1.79294e-07
-1.82991e-08
-2.54485e-07
-4.39101e-08
-1.94672e-07
-1.95627e-08
-1.79019e-07
4.91054e-08
-1.82759e-07
8.28857e-08
-2.04394e-07
4.94053e-08
-1.71224e-07
4.10958e-08
-1.82306e-07
1.89307e-08
-1.84032e-07
8.9383e-09
-1.80357e-07
5.17031e-09
-1.94732e-07
1.82545e-08
-1.93534e-07
-1.64357e-08
-1.68311e-07
-2.23515e-08
-1.73633e-07
-1.43526e-08
-1.81654e-07
-1.36564e-08
-1.78701e-07
-3.59994e-09
-1.85447e-07
-1.07798e-09
-9.90204e-08
1.8388e-08
-1.88462e-07
-4.26289e-08
-1.33538e-07
-2.36831e-08
-1.12521e-07
-5.51378e-08
-1.23107e-07
-4.13237e-08
-1.02867e-07
-5.63862e-08
-1.93945e-07
1.83867e-08
-2.44033e-07
-3.97539e-09
-1.71915e-07
5.51765e-09
-1.8198e-07
-6.45943e-09
-1.62877e-07
-3.08809e-08
-2.2119e-07
-5.75348e-08
-1.85746e-07
-6.50978e-08
-2.02242e-07
-1.59975e-08
-2.01045e-07
-3.71317e-08
-2.11357e-07
-8.2353e-09
-1.53173e-07
6.00654e-08
-1.46085e-07
4.71552e-08
-2.0484e-07
2.93508e-08
-1.9361e-07
6.7816e-08
-1.7609e-07
5.10932e-08
-2.01709e-07
4.73098e-08
-1.96024e-07
1.6055e-08
-1.88748e-07
-1.50532e-08
-2.02555e-07
1.16869e-08
-2.05054e-07
-1.30812e-08
-2.06601e-07
-5.10009e-09
-1.19499e-07
2.03181e-08
-1.5592e-07
-3.54651e-08
-1.98487e-07
3.60914e-08
-2.07844e-07
1.89387e-08
-2.16485e-07
2.44638e-08
-2.2722e-07
2.59059e-08
-1.45547e-07
5.58914e-08
-2.29795e-07
6.18141e-09
-1.81428e-07
-1.03131e-08
-1.85668e-07
1.69538e-08
-2.17456e-07
2.81429e-09
-2.03267e-07
-8.58725e-10
-2.18023e-07
1.41749e-08
-2.10148e-07
8.11849e-09
-2.23453e-07
1.95532e-08
-2.20786e-07
-3.29751e-09
-2.18277e-07
-1.71556e-09
6.3348e-09
-1.79647e-07
-2.71134e-08
-1.89727e-07
-7.22853e-08
-2.15146e-07
-2.23847e-08
-2.29591e-07
-3.37106e-08
-2.50094e-07
-4.35583e-08
-2.6746e-07
-1.89444e-08
-2.25227e-07
2.07088e-08
-1.87911e-07
-2.72155e-08
-2.73113e-07
-1.47591e-08
-2.68026e-07
-2.03286e-08
-2.97117e-07
6.30949e-08
-3.39663e-07
-1.42719e-08
-3.3982e-07
-6.67144e-08
-3.32418e-07
-2.56249e-08
-3.52492e-07
-2.42877e-08
-2.23429e-07
1.86083e-08
-1.98326e-07
2.65533e-08
-2.42559e-07
5.88148e-09
-2.17963e-07
2.18321e-08
-2.08547e-07
3.16798e-08
-2.03646e-07
1.3889e-08
-2.09989e-07
1.52821e-08
-2.23054e-07
1.60129e-08
-2.03072e-07
-4.36341e-08
-2.09583e-07
-5.71395e-09
-1.3975e-07
-4.99379e-08
-1.12205e-07
-4.21754e-08
-1.0049e-07
-2.53518e-08
-1.04098e-07
4.43997e-11
-9.13316e-08
-1.42613e-08
-6.82793e-08
-5.08264e-09
-1.17994e-07
7.5883e-09
-1.15834e-07
-2.79225e-08
-1.5769e-07
-1.44753e-08
-1.84318e-07
-1.45458e-08
-1.21337e-07
5.77154e-09
-2.40931e-07
-2.69733e-08
-2.33521e-07
-1.13861e-08
-1.88159e-07
1.57853e-09
-1.8859e-07
-6.02786e-09
-1.98847e-07
-2.04164e-08
-2.14931e-07
-4.37835e-08
-1.17185e-07
-3.69669e-08
-2.30188e-07
-2.49925e-08
-2.02491e-07
-6.78698e-08
-2.14404e-07
3.71528e-09
-2.45359e-07
8.94952e-08
-2.49898e-07
4.96504e-08
-2.5275e-07
2.99006e-08
-2.61138e-07
3.95941e-08
-2.20326e-07
5.34386e-08
-2.10018e-07
3.47545e-08
-2.14781e-07
2.0818e-08
-1.41766e-07
3.78163e-08
-2.15784e-07
-3.74758e-08
-1.9229e-07
-3.83852e-08
-1.76352e-07
-2.10376e-08
-1.69344e-07
1.13748e-08
-9.85683e-08
1.91147e-08
-1.97755e-07
-2.96341e-08
-1.88434e-07
9.61808e-09
-1.92106e-07
2.81365e-08
-1.89108e-07
6.43867e-08
-1.69548e-07
3.57614e-08
-2.13886e-07
4.83378e-08
-1.28556e-07
3.14028e-08
-1.97563e-07
-3.59227e-08
-1.9233e-07
-4.4339e-09
-1.92358e-07
-8.31194e-10
-1.83077e-07
4.84461e-09
-1.90356e-07
1.34549e-08
-1.89023e-07
-2.19653e-08
-2.01587e-07
5.22341e-08
-1.96647e-07
-8.7118e-09
1.55126e-08
-2.01227e-07
-2.93657e-08
-1.83387e-07
-5.97172e-08
-2.00984e-07
-4.2914e-08
-2.18763e-07
-1.38803e-08
-2.19497e-07
-8.99488e-10
-2.28796e-07
-9.64559e-09
-2.37815e-07
-1.17509e-08
-1.35328e-07
3.75961e-08
-2.60424e-07
-1.54734e-08
-1.62346e-07
4.63026e-09
-2.52298e-07
-1.11007e-08
-2.52311e-07
-1.42582e-08
-2.60036e-07
-1.68282e-08
-2.6037e-07
-2.50348e-08
-2.90615e-07
-3.56372e-08
-2.24769e-07
-5.75768e-09
-2.17771e-07
2.15065e-08
-2.26829e-07
1.49998e-08
-2.24342e-07
1.70318e-08
-2.08393e-07
1.78571e-08
-2.03239e-07
8.7357e-09
-1.92834e-07
2.80398e-09
-2.12806e-07
-5.43802e-09
-1.24597e-07
3.4171e-08
-2.58612e-07
-3.76161e-08
-1.4345e-07
3.09167e-10
-1.49505e-07
-3.6551e-08
-1.46721e-07
-2.71739e-08
-2.16833e-07
-5.7404e-08
-2.15027e-07
-1.84741e-08
-2.05066e-07
-1.07078e-08
-2.19826e-07
-1.68111e-08
-2.01283e-07
-5.68622e-09
-2.07022e-07
-1.06419e-08
-2.08979e-07
-1.25894e-08
-1.84784e-07
-2.03676e-08
-2.20286e-07
-3.33777e-08
-2.01911e-07
-2.77974e-08
-2.03434e-07
4.45803e-08
-1.84393e-07
-2.29531e-08
-1.74176e-07
-2.88744e-08
-1.70839e-07
-5.11215e-08
-7.72823e-08
-6.18268e-09
-2.43126e-07
-2.70132e-08
-1.22077e-07
1.02119e-07
-1.49508e-07
3.39459e-08
-2.93678e-07
-1.41538e-08
-2.65717e-07
1.86628e-08
-2.32218e-07
-1.19341e-09
-2.33518e-07
4.24402e-08
-2.05615e-07
2.6075e-08
-1.9252e-07
1.95626e-08
-1.84277e-07
1.25742e-08
-1.67802e-07
-2.01373e-08
-1.80676e-07
-2.31411e-08
-1.67263e-07
-1.07376e-08
-1.52278e-07
-3.81177e-08
-1.51929e-07
1.10261e-08
-1.48135e-07
1.51258e-08
-1.4719e-07
-3.05792e-08
-1.68022e-07
3.0143e-08
-1.70828e-07
3.12617e-08
-1.47263e-07
4.08219e-08
-1.34637e-07
2.31351e-08
-1.58363e-07
3.05851e-08
-1.43865e-07
1.65844e-08
-1.60164e-07
2.14884e-08
-1.89555e-07
2.49572e-08
-1.95654e-07
7.26432e-09
-1.867e-07
-4.10972e-09
-1.85647e-07
8.60353e-09
-1.13347e-07
3.16801e-08
-1.96761e-07
-2.85813e-08
-1.79156e-07
1.5162e-08
2.33512e-09
-1.9912e-07
-3.88278e-08
-1.79119e-07
-4.45145e-08
-1.57397e-07
-6.23708e-08
-1.82186e-07
1.09092e-08
-1.59715e-07
-2.337e-08
-1.66227e-07
-3.13251e-09
-1.90404e-07
1.24267e-08
-1.46107e-07
-6.70048e-09
-1.93621e-07
3.15616e-08
-8.82941e-08
2.45953e-08
-1.82651e-07
-3.99249e-08
-1.67391e-07
-3.13804e-08
-1.60202e-07
-2.23826e-08
-1.65602e-07
-2.15234e-08
-1.99548e-07
-3.39784e-09
-1.98203e-07
-5.06567e-09
-1.98632e-07
2.19355e-08
-2.01767e-07
1.82889e-08
-1.96472e-07
1.17371e-08
-1.83868e-07
5.25389e-09
-1.70331e-07
-4.7115e-09
-1.43128e-07
-2.3175e-08
-1.37105e-07
-1.0076e-08
-1.26975e-07
2.26571e-08
-1.98865e-07
-8.49983e-09
-1.6054e-07
3.49938e-09
-1.63908e-07
-3.48548e-08
-1.93593e-07
-3.93953e-08
-2.14485e-07
6.35671e-09
-2.27701e-07
-4.88048e-09
-2.22952e-07
-1.54561e-08
-2.24097e-07
-1.56663e-08
-2.19071e-07
-1.07705e-08
-1.96564e-07
-3.34896e-08
-2.3228e-07
2.31258e-08
-2.28263e-07
-2.43845e-08
-2.57269e-07
-6.65582e-09
-1.68044e-07
8.69845e-09
-2.42746e-07
-4.24441e-08
-2.17908e-07
-6.73103e-09
-2.39321e-07
-1.242e-08
-1.76049e-07
1.08002e-08
-1.38489e-07
-4.27561e-08
-2.04629e-07
4.07975e-08
-2.40705e-07
1.41243e-08
-2.18652e-07
9.09164e-09
-2.61341e-07
2.81036e-08
-2.57887e-07
1.50186e-08
-1.74486e-07
4.16236e-08
-2.39224e-07
-1.60029e-08
-1.90598e-07
-2.49805e-08
-1.71548e-07
5.13022e-10
-1.91515e-07
3.25407e-08
-1.88747e-07
-2.29045e-08
-1.9135e-07
-2.05386e-08
-2.00056e-07
-4.18155e-09
-1.24263e-07
1.181e-08
-1.9242e-07
-4.44405e-08
-2.26511e-07
7.65947e-09
-1.32389e-07
4.25672e-08
-2.11658e-07
-1.59075e-08
-1.98417e-07
1.58393e-08
-1.80157e-07
2.45865e-08
-1.80591e-07
2.35692e-08
-1.70678e-07
2.06722e-08
-1.7079e-07
1.6696e-08
-1.68724e-07
1.94229e-08
-1.82419e-07
-2.82773e-09
-1.80168e-07
5.01409e-09
-1.81146e-07
3.87005e-08
-1.71319e-07
-1.22439e-09
-1.52999e-07
1.30364e-08
-1.85253e-07
3.67126e-09
-1.74415e-07
4.32345e-09
2.63262e-09
-1.10218e-07
1.58949e-08
-1.90264e-07
-7.6559e-08
-1.16862e-07
-7.45255e-09
-2.15357e-07
-5.6513e-08
-2.00128e-07
2.88168e-09
-1.61065e-07
-4.21957e-08
-1.57054e-07
8.41711e-09
-6.48838e-08
2.62296e-08
-1.63764e-07
7.2609e-09
-1.24759e-07
-1.60797e-08
-1.44004e-07
-2.10867e-08
-1.53706e-07
-2.16773e-08
-1.66476e-07
-1.13103e-08
-1.89888e-07
1.66649e-09
-1.68744e-07
-2.2341e-08
-1.71452e-07
-2.357e-09
-1.70189e-07
2.06729e-08
-1.64681e-07
1.27821e-08
-1.57603e-07
4.65904e-09
-1.48311e-07
-4.03673e-09
-1.70694e-07
1.59301e-08
-1.08626e-07
4.0479e-08
-1.35858e-07
1.83489e-08
-1.93364e-07
-4.40438e-08
-1.90798e-07
-1.30117e-08
-2.01742e-07
-2.74633e-08
-1.88177e-07
-4.8811e-09
-2.16144e-07
-1.10269e-08
-2.01684e-07
-8.10291e-09
-2.10586e-07
4.06408e-09
-2.17072e-07
-8.96992e-09
-2.15968e-07
-1.67703e-08
-2.35321e-07
6.18221e-09
-1.61347e-07
1.82568e-08
-2.59028e-07
-4.3465e-08
-2.53113e-07
1.12952e-08
-2.50751e-07
-9.01815e-09
-2.17514e-07
-2.46269e-08
-2.46241e-07
-1.37166e-08
-2.47468e-07
-5.57338e-09
-2.68366e-07
8.56587e-09
-2.8847e-07
2.49079e-08
-1.36716e-07
6.09732e-08
-2.78745e-07
-6.35898e-08
-2.90128e-07
2.25476e-08
-2.12361e-07
6.15164e-08
-2.73246e-07
-3.41922e-08
-2.42619e-07
-1.82104e-08
-2.05824e-07
4.82872e-09
-2.3417e-07
9.79053e-09
-1.52417e-07
1.89871e-08
-1.33121e-07
-1.72273e-08
-2.13383e-07
-5.31152e-08
-1.79698e-07
-1.51104e-08
-1.55134e-07
-4.55668e-08
-1.75157e-07
1.58417e-08
-1.70325e-07
5.12013e-09
-1.20192e-07
3.2386e-08
-2.07057e-07
-2.74434e-08
-1.83356e-07
1.6754e-08
-1.93586e-07
-5.83998e-09
-1.94772e-07
1.68645e-08
-1.88259e-07
1.80731e-08
-1.9561e-07
3.09203e-08
-1.92929e-07
1.79912e-08
-1.8989e-07
1.36568e-08
-1.81926e-07
1.1459e-08
-1.8804e-07
3.28617e-09
-1.84027e-07
-8.7595e-10
-1.84625e-07
-2.60907e-09
-1.79283e-07
3.67964e-08
-1.81738e-07
1.54899e-08
-2.03448e-07
2.56426e-08
-1.98193e-07
-9.32534e-10
9.50136e-09
-1.32845e-07
-6.17627e-08
-1.67127e-07
-6.14257e-08
-1.2713e-07
-4.40391e-08
-1.85516e-07
1.8553e-09
-1.95627e-07
1.29928e-08
-1.24223e-07
5.23188e-08
-1.25923e-07
1.0117e-08
-9.11697e-08
-8.52275e-09
-1.71285e-07
-7.92752e-08
-1.57097e-07
1.12123e-08
-1.66718e-07
-1.14657e-08
-1.4924e-07
-3.91539e-08
-1.75536e-07
1.48349e-08
-1.8872e-07
-2.472e-08
-1.53468e-07
-1.6532e-08
-1.29188e-07
-2.82017e-08
-1.42167e-07
-7.82694e-09
-1.46906e-07
1.75219e-08
-1.47521e-07
5.27436e-09
-1.48107e-07
3.80294e-08
-1.57352e-07
2.5175e-08
-1.43018e-07
2.42742e-08
-1.70903e-07
4.32756e-09
-1.76008e-07
4.28392e-09
-1.80885e-07
-8.13403e-09
-1.82727e-07
-2.53409e-08
-1.77044e-07
-1.05629e-08
-1.88643e-07
5.72437e-10
-1.8878e-07
-9.89233e-09
-2.07243e-07
-1.93787e-08
-1.99944e-07
-1.43008e-08
-2.11169e-07
3.59345e-08
-1.96508e-07
-8.47889e-09
-1.7973e-07
1.29313e-09
-2.13092e-07
-1.22772e-08
-2.24552e-07
-1.91521e-08
-2.33149e-07
1.87033e-09
-2.26661e-07
1.03644e-08
-2.39063e-07
-1.31448e-09
-2.57283e-07
1.00215e-08
-2.78734e-07
3.00169e-08
-2.67537e-07
1.6554e-08
-2.24432e-07
-2.48553e-08
-1.68158e-07
4.66449e-08
-2.51252e-07
-2.03043e-08
-2.5438e-07
-2.15375e-08
-2.46785e-07
4.45561e-09
-1.92685e-07
-3.12498e-08
-2.00606e-07
1.06754e-08
-1.82676e-07
-8.05713e-09
-1.55129e-07
-8.7533e-09
-1.30491e-07
-4.22975e-08
-1.80416e-07
-3.19002e-09
-1.86381e-07
-1.10466e-08
-1.01887e-07
-4.33955e-09
-1.58026e-07
-9.28973e-08
-1.4523e-07
-7.67597e-09
-1.56814e-07
4.31989e-08
-1.74611e-07
3.15524e-08
-2.01578e-07
2.24231e-09
-1.97461e-07
3.15228e-08
-2.12979e-07
3.23817e-08
-2.15e-07
2.00944e-08
-2.04658e-07
2.05785e-08
-1.97069e-07
1.05089e-08
-1.94001e-07
1.05893e-08
-1.86585e-07
4.04297e-09
-1.87464e-07
4.16541e-09
-1.92663e-07
4.32306e-09
-1.80974e-07
-1.44189e-08
-1.94946e-07
5.07679e-08
-1.70376e-07
-1.08193e-08
-1.94674e-07
8.03143e-09
-1.8373e-07
3.15889e-08
4.52206e-08
-2.66523e-07
6.47121e-08
-1.59152e-07
-5.27372e-08
-1.40238e-07
-5.66504e-08
-2.19702e-07
-4.18622e-08
-1.99263e-07
-9.68615e-09
-1.60033e-07
1.30886e-08
-1.61843e-07
1.19278e-08
-1.7164e-07
-4.76517e-10
-1.27907e-07
2.71324e-09
-2.03868e-07
-3.59594e-08
-2.0532e-07
-1.00131e-08
-1.31422e-07
1.27276e-08
-2.06654e-07
-3.31143e-08
-2.12778e-07
-2.07027e-08
-2.1157e-07
-1.79082e-08
-1.17626e-07
2.2924e-09
-2.09129e-07
-4.07606e-08
-2.05824e-07
-2.72626e-08
-1.90754e-07
3.16845e-08
-1.80319e-07
2.75954e-08
-1.79446e-07
2.43025e-08
-1.7234e-07
1.71681e-08
-1.79525e-07
1.14692e-08
-1.79066e-07
3.8254e-09
-1.87686e-07
4.86148e-10
-1.83532e-07
-2.91961e-08
-1.86985e-07
-7.10978e-09
-1.88368e-07
1.95649e-09
-1.91106e-07
-7.15455e-09
-2.16267e-07
3.77359e-09
-1.3523e-07
3.03836e-08
-2.30733e-07
-3.30999e-08
-2.09873e-07
1.21401e-08
-2.05981e-07
-2.59834e-09
-2.1534e-07
-2.94808e-09
-2.26606e-07
-7.69084e-09
-2.24954e-07
2.18169e-10
-2.18902e-07
4.31275e-09
-1.95931e-07
-2.42861e-08
-2.1372e-07
2.75296e-08
-2.30964e-07
5.47587e-09
-2.36112e-07
2.17017e-08
-1.48449e-07
5.4914e-08
-1.61535e-07
-6.34511e-08
-1.84282e-07
2.44288e-09
-1.83825e-07
-2.17769e-08
-2.0299e-07
-1.97337e-08
-8.27072e-08
1.49095e-08
-1.55583e-07
-3.80593e-08
-1.24394e-07
-4.12336e-08
-1.57269e-07
2.12485e-08
-8.63486e-08
1.25028e-08
-1.93545e-07
-6.10298e-08
-1.84328e-07
-2.02636e-08
-1.71678e-07
-1.69453e-08
-9.71182e-08
-1.53986e-09
-9.76724e-08
-6.12528e-09
-1.78477e-07
8.13917e-10
-1.57549e-07
8.80335e-09
-1.69534e-07
1.42278e-08
-1.69731e-07
3.17202e-08
-1.68537e-07
3.11874e-08
-1.76002e-07
2.75594e-08
-1.90585e-07
3.32176e-08
-1.90557e-07
1.04806e-08
-1.87999e-07
9.97475e-09
-1.84474e-07
5.17813e-10
-1.87081e-07
6.84203e-09
-2.03534e-07
1.87002e-08
-1.13773e-07
2.17645e-08
-2.44387e-07
1.66252e-08
-1.57177e-07
6.78866e-08
-1.84705e-07
3.54764e-08
-1.62505e-07
9.38798e-09
-1.09174e-08
-2.97506e-07
-7.39546e-08
-1.29443e-07
-1.03688e-09
-1.56556e-07
-2.53168e-08
-1.90567e-07
-8.27799e-09
-1.95525e-07
-4.7279e-09
-1.86235e-07
3.79925e-09
-1.83319e-07
9.01292e-09
-1.83099e-07
-6.95879e-10
-1.83292e-07
2.87851e-09
-1.73069e-07
-4.61812e-08
-1.75775e-07
-7.30643e-09
-1.95623e-07
3.25756e-08
-2.19053e-07
-1.00213e-08
-2.22477e-07
-1.72775e-08
-2.27152e-07
-1.32329e-08
-2.1099e-07
-1.38689e-08
-2.20053e-07
-3.16969e-08
-2.1027e-07
-3.74267e-08
-2.03442e-07
2.46062e-08
-2.02379e-07
2.65326e-08
-2.08522e-07
3.04465e-08
-2.09317e-07
1.79629e-08
-1.92817e-07
-5.03019e-09
-2.13187e-07
2.39516e-08
-2.28074e-07
-2.37788e-08
-2.07623e-07
-8.58637e-09
-2.01767e-07
-1.50834e-08
-1.88945e-07
-1.08654e-08
-1.88989e-07
-7.10967e-09
-1.82459e-07
-2.75659e-09
-1.5762e-07
5.23474e-09
-1.99513e-07
8.79369e-09
-1.90585e-07
3.21269e-09
-1.88748e-07
-6.36078e-09
-2.09787e-07
-2.3816e-08
-2.05995e-07
-9.34225e-09
-2.09528e-07
3.75057e-09
-2.18957e-07
1.37421e-08
-1.2372e-07
4.76562e-08
-2.07514e-07
-1.18578e-08
-2.063e-07
2.14522e-09
-2.05018e-07
2.02135e-08
-1.89464e-07
-2.11924e-09
-1.01031e-07
1.44164e-08
-1.86556e-07
-3.52136e-08
-1.57844e-07
-5.31567e-08
-1.85106e-07
7.52906e-09
-1.58485e-07
-1.17115e-08
-1.86791e-07
-1.20472e-08
-9.26877e-08
-1.01461e-08
-1.91339e-07
-3.55609e-09
-1.63335e-07
-1.56296e-08
-1.86621e-07
-3.81319e-08
-2.09987e-07
3.07082e-09
-2.15426e-07
-1.15064e-08
-1.07216e-07
1.46881e-08
-1.01579e-07
-1.07256e-08
-1.81311e-07
-4.26276e-08
-1.45718e-07
-2.89346e-08
-1.54578e-07
2.28555e-08
-1.45576e-07
2.27177e-08
-1.52565e-07
3.81769e-08
-1.47851e-07
2.28454e-08
-1.34431e-07
1.97971e-08
-1.3593e-07
1.17524e-08
-1.36342e-07
1.02821e-08
-1.5985e-07
2.2169e-08
-1.93984e-07
4.09756e-08
-2.1134e-07
3.58792e-08
-1.22386e-07
5.83067e-08
-2.32007e-07
3.02556e-09
-1.94066e-07
2.96418e-08
-1.82414e-07
2.38224e-08
-1.95983e-07
2.29569e-08
1.09236e-08
-2.67244e-07
1.83206e-09
-1.42217e-07
4.95931e-08
-2.11435e-07
-7.64077e-08
-2.14557e-07
-7.31237e-09
-2.0781e-07
-1.14746e-08
-2.03286e-07
-7.23858e-10
-2.0491e-07
1.06373e-08
-1.68516e-07
-3.70896e-08
-2.15964e-07
8.7591e-09
-1.50716e-07
5.50498e-08
-1.37857e-07
-2.01648e-08
-2.20313e-07
-5.08851e-08
-2.15877e-07
-1.44571e-08
-2.07844e-07
1.617e-08
-2.17368e-07
-3.70863e-09
-2.13036e-07
-1.82002e-08
-2.21518e-07
-2.54741e-08
-1.39655e-07
7.87156e-09
-2.12694e-07
-2.41254e-08
-2.03361e-07
1.50297e-08
-2.09342e-07
3.64286e-08
-2.21921e-07
3.05427e-08
-1.36239e-07
3.47611e-08
-2.10662e-07
-2.4806e-08
-2.13333e-07
-2.32564e-08
-2.00967e-07
-2.10394e-08
-1.96091e-07
-1.99596e-08
-1.96537e-07
-1.04192e-08
-1.82682e-07
-2.09634e-08
-1.55222e-07
-3.05282e-08
-1.71232e-07
2.12445e-08
-1.70572e-07
8.13451e-09
-1.62507e-07
-4.85201e-09
-1.72674e-07
3.8058e-09
-1.88172e-07
-7.99307e-09
-1.89515e-07
-7.99903e-09
-1.87767e-07
2.0025e-09
-1.89745e-07
1.57206e-08
-1.69612e-07
2.75231e-08
-1.61508e-07
-2.00835e-08
-1.88334e-07
3.05806e-08
-1.79464e-07
1.1344e-08
-1.83029e-07
-3.85482e-10
-1.65771e-07
-2.84136e-09