/*--------------------------------*- C++ -*----------------------------------*\
  =========                 |
  \\      /  F ield         | OpenFOAM: The Open Source CFD Toolbox
   \\    /   O peration     | Website:  https://openfoam.org
    \\  /    A nd           | Version:  12
     \\/     M anipulation  |
\*---------------------------------------------------------------------------*/
FoamFile
{
    format      ascii;
    class       surfaceScalarField;
    location    "0.35";
    object      phi.water;
}
// * * * * * * * * * * * * * * * * * * * * * * * * * * * * * * * * * * * * * //

dimensions      [0 3 -1 0 0 0 0];

internalField   nonuniform List<scalar> 
7375
(
-2.81422e-07
3.04302e-08
-1.43513e-07
-8.97385e-08
-9.23251e-08
-9.06662e-08
2.30413e-08
-7.33745e-08
2.66577e-08
-3.57122e-09
4.02223e-08
-1.34301e-08
3.11539e-08
9.57966e-09
3.90981e-08
-7.55359e-09
4.72093e-08
-8.06078e-09
7.84685e-08
-3.20532e-08
5.48089e-08
-1.83772e-08
9.88661e-08
-2.99817e-09
1.07066e-07
-7.09325e-09
9.91169e-08
7.86958e-09
9.21029e-08
8.00654e-09
6.50081e-08
-1.46373e-08
1.07593e-07
-1.77992e-09
1.14252e-07
-6.67329e-09
1.1088e-07
3.34578e-09
1.02552e-07
7.30386e-09
1.05741e-07
-3.22229e-09
1.12039e-07
-6.29034e-09
1.06829e-07
5.15796e-09
1.02448e-07
5.4456e-09
9.53143e-08
8.06802e-09
1.05734e-07
-1.02297e-08
1.13817e-07
-7.87632e-09
8.91868e-08
-1.74742e-08
1.15943e-07
1.28235e-08
1.23359e-07
-7.41698e-09
1.19581e-07
5.02432e-09
1.07261e-07
1.23017e-08
1.09623e-07
-2.33394e-09
1.16892e-07
-7.33317e-09
1.18185e-07
-1.40003e-09
1.26956e-07
-9.1043e-09
1.28404e-07
-2.75499e-09
1.27491e-07
9.13446e-10
1.30853e-07
-3.38143e-09
1.31385e-07
-5.26389e-10
1.36807e-07
-2.63154e-09
1.4711e-07
-1.05573e-08
1.56899e-07
-1.28774e-08
1.8362e-07
-2.6722e-08
1.98833e-07
-1.51807e-08
2.01077e-07
-2.24452e-09
1.6874e-07
3.61943e-08
1.16507e-07
5.33164e-08
7.67319e-08
3.90198e-08
7.68935e-08
-1.95437e-10
1.61269e-07
3.84148e-08
7.4938e-08
-3.68697e-08
8.30568e-08
-8.25811e-09
9.16619e-08
-8.6056e-09
9.7121e-08
-4.49741e-09
9.94519e-08
-2.24527e-09
1.24295e-07
-2.35145e-08
1.09852e-07
1.44357e-08
1.14804e-07
-4.97371e-09
1.1324e-07
1.50881e-09
1.14156e-07
-2.19165e-09
1.1755e-07
-3.33905e-09
1.06729e-07
1.08335e-08
9.88264e-08
8.16403e-09
7.96335e-08
1.92862e-08
6.18262e-08
1.76441e-08
4.84181e-08
1.33811e-08
4.38187e-08
4.59594e-09
5.14026e-08
-7.08866e-09
6.16481e-08
-1.02825e-08
9.50988e-08
-3.44688e-08
7.83281e-08
1.59731e-08
8.39413e-08
-5.6123e-09
7.59984e-08
8.78342e-09
1.14528e-08
-1.95604e-07
1.39466e-08
-1.58764e-07
-1.01539e-07
-1.53724e-07
-9.57588e-08
-1.51194e-07
-7.43016e-08
-9.55653e-08
-5.82356e-08
-9.06241e-08
-1.94729e-08
-8.20058e-08
3.55174e-11
-1.07134e-07
-2.39054e-08
-7.03168e-08
-4.03512e-09
-5.58898e-08
-4.69653e-08
-6.09101e-08
-1.26585e-08
-3.16663e-08
-3.19508e-08
3.30385e-09
-4.25272e-08
-1.95058e-08
3.07113e-08
-1.53003e-08
3.601e-09
-1.92652e-08
-1.07436e-08
1.29577e-08
-3.43543e-08
1.69414e-08
-1.06583e-08
1.17357e-08
8.79003e-09
-6.31655e-08
3.92026e-08
-5.34687e-08
-1.11e-08
-6.05238e-08
4.29753e-08
-4.57731e-08
-1.01526e-08
-3.30264e-08
-7.43214e-09
-8.74446e-09
-1.62144e-08
-3.27148e-09
-1.5655e-08
1.17898e-08
-2.30517e-08
-4.82214e-08
4.18439e-08
-5.05277e-08
-2.67115e-08
-4.92316e-08
3.37211e-08
-5.80098e-08
1.39447e-08
-8.52638e-08
-1.05407e-09
-4.32078e-08
-3.32928e-09
-3.19877e-08
-1.89943e-08
-2.23401e-08
-1.12752e-08
-2.93372e-08
-2.0857e-09
-2.93858e-08
-2.40663e-09
-3.63567e-08
7.97527e-09
-3.4983e-08
-4.3978e-09
-2.5967e-08
-9.54744e-09
-2.02732e-08
-9.00333e-09
2.23951e-08
-5.36743e-08
4.6249e-08
-3.68122e-08
7.43269e-08
-5.52667e-08
1.10633e-07
-5.20118e-08
1.45901e-07
-3.64058e-08
1.16481e-07
6.79908e-08
7.88378e-08
9.02852e-08
3.81596e-08
7.7666e-08
8.16624e-08
8.16291e-08
-1.27024e-08
7.50863e-09
-5.0455e-08
5.06582e-10
-5.75382e-08
-1.17475e-09
-6.14469e-08
-4.78475e-09
-5.11635e-08
-1.42588e-08
-4.69596e-08
-6.44935e-09
5.64936e-08
-3.00865e-09
1.87985e-09
-5.55361e-08
2.64071e-08
-2.9203e-08
3.93448e-08
-1.18459e-08
3.85783e-08
-1.81467e-09
2.6866e-08
8.76273e-09
1.94703e-08
1.88948e-08
-4.40555e-08
7.16898e-08
-3.43543e-08
1.03852e-08
-5.68677e-08
3.9756e-08
-5.88218e-08
1.53554e-08
-5.39305e-08
-2.95509e-10
-6.85244e-08
7.02659e-09
-7.85503e-08
-9.53389e-10
-4.77361e-09
1.74751e-08
-8.89446e-08
-2.42448e-08
-7.50464e-08
-1.95667e-08
-8.2823e-08
1.65607e-08
1.17594e-08
-1.83974e-07
-1.12681e-08
-1.77464e-07
-1.21066e-07
-1.5876e-07
-6.77183e-08
-1.9403e-07
-7.93039e-08
-1.30153e-07
-8.00654e-08
-1.39158e-07
-9.2469e-09
-1.14656e-07
-2.42228e-08
-1.35013e-07
-4.71965e-09
-1.39421e-07
-1.05067e-09
-5.70138e-08
-2.58086e-09
-1.35315e-07
-5.69644e-08
-1.35337e-07
-3.43407e-08
-3.40458e-08
-1.85368e-08
-1.74803e-07
6.2106e-09
-1.63085e-07
3.00331e-08
-2.01689e-07
2.60306e-08
-1.26505e-07
2.03385e-08
-1.35339e-07
-5.3444e-10
-1.3199e-07
5.43969e-09
-2.46788e-07
-1.2718e-08
-1.27238e-07
3.53794e-08
-1.96081e-07
-5.42148e-08
-1.98779e-07
3.39203e-08
-1.9529e-07
-1.08115e-08
-2.01712e-07
-1.00608e-08
-2.26118e-07
6.50932e-09
-1.54107e-07
3.04199e-08
-2.62415e-07
-1.46206e-08
-1.68051e-07
4.53872e-08
-2.44228e-07
-1.70327e-08
-2.19626e-07
-1.06571e-08
-1.96701e-07
-2.15192e-08
-1.81951e-07
-1.81136e-08
-1.90351e-07
-1.05938e-08
-1.76544e-07
-2.3281e-08
-1.65658e-07
-1.29504e-08
-1.67631e-07
-3.83298e-09
-1.62371e-07
2.71501e-09
-1.52991e-07
-1.21211e-08
-1.38909e-07
-2.37266e-08
-1.29977e-07
-1.926e-08
-3.21591e-08
-2.40854e-08
-8.12754e-08
-1.10851e-07
-7.98392e-08
-5.77465e-08
-7.48943e-08
-5.83153e-08
4.57086e-08
-3.21341e-08
-4.5473e-08
-6.28093e-09
1.42767e-08
6.96285e-08
-7.1417e-10
9.20169e-08
-2.79023e-08
1.07977e-07
-5.34919e-08
3.34395e-08
-1.07019e-07
5.4034e-08
-1.22707e-07
1.45127e-08
-1.19701e-07
-7.79067e-09
-1.03631e-07
-3.03291e-08
-1.12811e-07
2.63808e-09
-1.04705e-07
-1.11142e-08
-1.08263e-07
-5.13982e-08
-1.11936e-07
-2.57906e-08
-1.46553e-07
2.18518e-08
-1.29607e-07
-1.8973e-08
-1.30773e-07
8.68419e-09
-4.02605e-08
5.41031e-08
-1.54371e-07
1.95626e-08
-5.58133e-08
7.75232e-08
-1.38845e-07
7.57587e-12
-1.28877e-07
3.97185e-09
-1.34891e-07
4.33853e-09
-1.86649e-07
1.7054e-08
-1.51648e-07
7.42895e-09
-1.30475e-07
-3.87706e-09
-1.33655e-07
-2.10634e-08
-1.33661e-07
-1.93618e-08
-1.42955e-07
-1.56251e-08
2.53342e-08
-2.00282e-07
-2.31908e-08
-1.62291e-07
-1.26968e-07
-1.67561e-07
-6.01025e-08
-2.06436e-07
-4.13054e-08
-1.01049e-07
-5.97326e-08
-1.95732e-07
-7.82528e-08
-1.42676e-07
-3.64637e-08
-1.4318e-07
-5.67276e-09
-1.34672e-07
-9.55946e-09
-1.02836e-07
-3.40444e-08
-1.21453e-07
-3.76908e-08
-1.29428e-07
-2.63669e-08
-4.47862e-08
2.01275e-08
-1.66027e-07
2.98127e-09
-1.79085e-07
4.08464e-08
-1.89724e-07
3.57639e-08
-1.60469e-07
-7.18938e-09
-1.64036e-07
3.03146e-09
-1.89381e-07
3.04719e-08
-2.29866e-07
2.77658e-08
-2.29224e-07
3.23982e-08
-1.77504e-07
1.9785e-08
-2.51048e-07
-5.46398e-08
-2.44252e-07
2.0986e-08
-2.64747e-07
5.13419e-09
-2.62926e-07
7.34074e-09
-2.31864e-07
1.71172e-09
-2.46365e-07
-1.19971e-10
-2.1748e-07
1.6502e-08
-2.10053e-07
-2.47117e-08
-2.07099e-07
-1.13907e-08
-2.10099e-07
-1.85192e-08
-2.09993e-07
-2.03628e-08
-2.28135e-07
7.47257e-09
-2.33279e-07
-1.81369e-08
-2.13324e-07
-3.33783e-08
-1.86428e-07
-3.07287e-08
-1.65479e-07
-1.82608e-08
-1.55642e-07
-2.19579e-08
-1.50697e-07
-2.86714e-08
-1.43273e-07
-2.52216e-08
-1.27699e-07
-4.07062e-08
-7.00479e-08
-4.45172e-08
-1.60179e-07
-9.06727e-08
-1.55582e-07
-6.55378e-08
-1.55139e-07
-3.25768e-08
-1.77175e-07
1.73381e-08
-1.61075e-07
5.42388e-08
-1.23068e-07
5.49486e-08
-1.36355e-07
1.18664e-07
-8.37373e-08
1.06542e-07
-1.47383e-07
-5.96461e-09
-1.63702e-07
3.08315e-08
-1.61288e-07
-1.02047e-08
-8.80349e-08
2.15343e-08
-1.84013e-07
-2.45655e-08
-1.94191e-07
-4.79442e-09
-1.35993e-07
1.47224e-08
-1.40839e-07
-2.10428e-08
-2.53107e-07
-3.46658e-08
-2.5056e-07
2.2761e-08
-1.35118e-07
2.04454e-08
-1.04063e-07
2.24963e-08
-9.47802e-08
1.12465e-08
-1.34265e-07
-6.17294e-09
-1.57848e-07
2.19964e-08
-1.58592e-07
4.7639e-09
-1.5959e-07
3.70891e-09
-1.96049e-07
1.14305e-08
-1.65169e-07
2.00278e-08
-1.61317e-07
-7.72856e-09
-1.57819e-07
-2.29508e-08
-1.5637e-07
-2.08092e-08
-1.88389e-07
1.28767e-08
-2.58503e-09
-2.26217e-07
-3.21224e-09
-1.42151e-07
-4.54622e-08
-1.28636e-07
-6.94058e-08
-2.00182e-07
-9.29414e-08
-1.8063e-07
-8.34118e-08
-1.94243e-07
-6.46407e-08
-1.7174e-07
-5.73576e-08
-1.64929e-07
-5.39642e-08
-1.4178e-07
-3.12634e-08
-1.18678e-07
-1.62504e-08
-1.31392e-07
-2.61888e-08
-1.11314e-07
-4.67146e-08
-8.15763e-08
-8.77952e-09
-7.32845e-08
-4.6182e-09
-9.9087e-08
6.69083e-08
-1.41926e-07
7.80274e-08
-9.93218e-08
7.39505e-08
-1.28804e-07
3.38268e-08
-2.10545e-07
-1.09697e-08
-2.06141e-07
2.12126e-08
-2.00421e-07
2.64079e-08
-2.13367e-07
3.03512e-08
-1.60075e-07
1.77885e-08
-2.25171e-07
-3.42128e-08
-1.92798e-07
-2.53444e-08
-1.6672e-07
-1.90752e-08
-1.65569e-07
-1.13533e-09
-1.47019e-07
-2.03596e-08
-1.82338e-07
4.9961e-08
-1.20546e-07
3.92164e-08
-1.44711e-07
1.4004e-08
-1.58953e-07
-4.46638e-09
-1.57102e-07
-2.0611e-08
-2.30745e-07
-4.20661e-08
-2.25443e-07
-2.80925e-08
-2.1734e-07
-4.14813e-08
-1.84214e-07
-6.22723e-08
-1.61912e-07
-4.05623e-08
-1.47586e-07
-3.62838e-08
-1.46749e-07
-2.95077e-08
-1.40966e-07
-3.10046e-08
-1.39691e-07
-4.23963e-08
-1.44734e-07
-3.90191e-08
-1.89334e-07
-4.69973e-08
-2.14017e-07
-4.12759e-08
-2.40521e-07
-4.72195e-08
-2.44429e-07
2.12464e-08
-2.49914e-07
5.97244e-08
-1.37136e-07
1.09487e-07
-1.85916e-07
8.61931e-08
-1.82809e-07
9.85866e-08
-1.01063e-07
3.80096e-08
-2.1386e-07
-2.12573e-08
-1.79876e-07
-8.74546e-10
-1.55999e-07
-2.34292e-09
-1.78064e-07
-4.34207e-09
-1.82676e-07
-1.82324e-10
-1.6347e-07
-2.99679e-09
-1.67934e-07
-1.65338e-08
-2.12413e-07
1.06209e-08
-2.14181e-07
2.21363e-08
-1.29833e-07
5.96103e-08
-1.42153e-07
3.6141e-08
-1.32027e-07
1.12001e-09
-1.69168e-07
3.26307e-08
-2.42242e-07
-3.05569e-08
-2.31434e-07
-8.54044e-09
-2.18338e-07
-7.02631e-09
-2.09317e-07
2.29224e-09
-1.97443e-07
8.15461e-09
-1.97632e-07
-7.53942e-09
-2.08047e-07
-1.25352e-08
-2.11038e-07
-1.80287e-08
-2.23792e-07
-1.58493e-08
1.29946e-08
-1.88407e-07
-1.2259e-08
-1.38593e-07
-6.52112e-08
-1.31156e-07
-7.54297e-08
-1.79782e-07
-4.70977e-08
-1.2303e-07
-1.45948e-08
-1.54414e-07
-3.10268e-08
-1.49642e-07
-6.27702e-08
-1.51545e-07
-5.15363e-08
-1.42364e-07
-4.14752e-08
-1.26197e-07
-7.5268e-08
-1.48473e-07
-2.62657e-09
-1.49433e-07
-4.27598e-09
-1.71653e-07
1.1688e-08
-8.26869e-08
3.20875e-08
-1.56464e-07
1.61763e-08
-1.28385e-07
4.89242e-08
-1.07347e-07
5.42346e-08
-1.21953e-07
5.0037e-08
-1.59288e-07
2.62521e-08
-1.95973e-07
1.8417e-08
-1.64235e-07
3.57288e-08
-1.62157e-07
2.65969e-08
-1.62986e-07
1.84356e-08
-1.86142e-07
-1.10579e-08
-1.99076e-07
-1.267e-08
-1.61755e-07
-5.82411e-08
-1.9245e-07
-1.22332e-08
-7.47595e-08
2.98301e-08
-1.69257e-07
-2.14595e-08
-1.202e-07
3.12382e-08
-1.18511e-07
1.23151e-08
-1.31993e-07
9.01556e-09
-1.50867e-07
-1.73737e-09
-1.78367e-07
-1.48434e-08
-1.71836e-07
-3.42734e-08
-1.66539e-07
-4.85495e-08
-1.56666e-07
-7.14096e-08
-1.40355e-07
-5.52745e-08
-1.52354e-07
-2.42838e-08
-1.61441e-07
-2.04207e-08
-1.76473e-07
-1.59726e-08
-1.92669e-07
-2.61995e-08
-2.10697e-07
-2.09903e-08
-2.36097e-07
-2.37635e-08
-2.45516e-07
-3.15315e-08
-2.64282e-07
-2.59485e-08
-2.5478e-07
1.17447e-08
-2.38258e-07
4.32025e-08
-1.82848e-07
5.275e-08
-1.20368e-07
1.07309e-07
-1.94704e-07
8.23302e-09
-1.79519e-07
6.3917e-08
-2.1367e-07
1.28929e-08
-2.20459e-07
5.91499e-09
-2.21945e-07
-8.80784e-10
-2.21791e-07
-4.4958e-09
-2.24514e-07
2.49506e-10
-2.33776e-07
3.85585e-09
-2.56185e-07
8.11429e-09
-2.31622e-07
-1.1214e-08
-2.22701e-07
1.34403e-08
-1.94839e-07
3.11404e-08
-1.96996e-07
3.82978e-08
-1.13545e-07
4.21078e-08
-2.16316e-07
-3.05159e-08
-2.22467e-07
1.69345e-08
-2.20647e-07
-1.02732e-08
-2.13519e-07
-1.41546e-08
-2.06676e-07
-4.54992e-09
-2.00203e-07
1.68114e-09
-2.07597e-07
-1.44641e-10
-2.18906e-07
-1.22566e-09
-2.2809e-07
-8.84376e-09
-2.45837e-07
1.8987e-09
7.8451e-09
-2.0354e-07
-1.44892e-08
-1.5248e-07
-8.95258e-08
-1.56259e-07
-7.09284e-08
-1.34709e-07
-6.93152e-08
-1.31294e-07
-5.84141e-08
-1.81094e-07
-6.3851e-08
-1.38733e-07
2.01513e-08
-1.55658e-07
-3.19618e-08
-1.94934e-07
-5.79958e-09
-1.41983e-07
-3.6937e-09
-2.36995e-07
-3.09214e-08
-1.95496e-07
-4.57762e-08
-1.85069e-07
-4.02193e-08
-1.65695e-07
1.23854e-08
-1.3902e-07
3.20707e-08
-1.30218e-07
3.9627e-08
-1.16618e-07
3.75626e-08
-1.51887e-07
4.33978e-08
-1.53818e-07
7.12108e-08
-2.09888e-07
3.30067e-08
-1.65981e-07
3.36642e-08
-1.59546e-07
2.01616e-08
-1.50915e-07
9.70488e-09
-1.5637e-07
-5.60432e-09
-1.96509e-07
-1.40107e-08
-1.06112e-07
1.81757e-08
-1.77079e-07
-6.49804e-08
-1.20965e-07
-2.83811e-08
-1.31062e-07
-1.13626e-08
-1.13639e-07
1.38152e-08
-1.42751e-07
4.14271e-08
-1.32968e-07
-7.67599e-10
-1.19982e-07
-1.34998e-08
-7.1728e-08
-6.30094e-08
-7.33302e-08
-3.4136e-08
-1.08563e-07
-5.43006e-08
-8.69887e-08
-5.01056e-08
-9.3725e-08
-4.99348e-08
-1.49462e-07
3.14535e-08
-1.78004e-07
8.12198e-09
-1.90085e-07
-3.89132e-09
-1.83796e-07
-3.21604e-08
-1.9477e-07
-7.94815e-09
-1.92282e-07
-2.43086e-08
-1.95826e-07
-2.96106e-08
-2.05814e-07
-1.79579e-08
-2.19652e-07
2.58463e-08
-2.23605e-07
4.48742e-08
-9.76313e-08
5.3504e-08
-1.60599e-07
4.69974e-08
-1.10421e-07
8.08551e-08
-2.16722e-07
4.53179e-08
-2.17204e-07
1.33746e-08
-2.11395e-07
1.06577e-10
-2.04492e-07
-7.78466e-09
-1.88204e-07
-2.07834e-08
-1.69476e-07
-1.86685e-08
-1.97424e-07
3.17638e-08
-1.97576e-07
-3.12799e-08
-1.99527e-07
3.14795e-08
-2.04645e-07
1.65231e-08
-1.9569e-07
2.21849e-08
-1.83701e-07
2.63092e-08
-1.81821e-07
4.06416e-08
-2.04586e-07
-9.83746e-09
-2.04616e-07
-2.49428e-08
-2.00112e-07
-1.26888e-08
-1.89556e-07
1.67684e-08
-1.96059e-07
1.9532e-09
-1.86464e-07
-7.91404e-09
-1.92628e-07
6.01945e-09
-1.97225e-07
3.37229e-09
-2.02803e-07
-3.26322e-09
-2.03027e-07
2.12253e-09
1.52389e-08
-2.15864e-07
-3.72039e-08
-1.64906e-07
-5.80256e-08
-1.52361e-07
-8.02699e-08
-1.55163e-07
-6.87476e-08
-1.83064e-07
-3.15011e-08
-2.18628e-07
-2.89393e-08
-2.96731e-07
-2.9417e-08
-3.14455e-07
-1.78094e-08
-3.25186e-07
-3.04434e-08
-2.94367e-07
6.89539e-09
-3.31235e-07
-3.89948e-08
-2.92739e-07
-3.94147e-08
-2.89511e-07
-4.38964e-08
-2.53788e-07
-6.28702e-08
-2.05389e-07
2.47313e-08
-2.11837e-07
4.48404e-08
-1.44761e-07
9.49236e-08
-1.45374e-07
4.31268e-08
-2.09506e-07
1.09044e-08
-1.95686e-07
1.91851e-08
-1.75575e-07
1.35522e-08
-1.75421e-07
2.17963e-08
-1.78812e-07
1.30951e-08
-1.92987e-07
6.81584e-09
-2.11033e-07
6.18665e-09
-1.95912e-07
1.06532e-09
-1.52092e-07
1.25342e-08
-1.6154e-07
-1.71887e-08
-1.42257e-07
-2.8705e-08
-1.16404e-07
-1.19168e-08
-2.00725e-07
-3.97641e-08
-1.49159e-07
-1.07444e-08
-1.33459e-07
-3.02534e-08
-3.65875e-08
-3.51719e-08
-1.21426e-07
-7.2472e-08
-1.37979e-07
-3.75786e-08
-1.7874e-07
-1.30858e-08
-1.27353e-07
2.43989e-08
-2.32594e-07
-2.79241e-08
-2.16905e-07
-7.56631e-09
-2.05804e-07
-1.28924e-08
-1.74986e-07
-2.03554e-08
-2.04765e-07
2.00639e-08
-2.1134e-07
-1.98681e-08
-2.20275e-07
-2.09777e-08
-2.16043e-07
-2.43937e-08
-2.26517e-07
-5.58614e-09
-2.29153e-07
4.98213e-08
-1.1518e-07
1.05985e-07
-1.3884e-07
7.18694e-08
-1.15541e-07
5.81417e-08
-2.12314e-07
1.89097e-08
-2.05776e-07
4.67068e-09
-2.17266e-07
1.15971e-08
-1.97904e-07
-2.68728e-08
-2.05751e-07
-1.50349e-08
-1.19342e-07
2.06424e-08
-2.22407e-07
-2.98707e-08
-1.37476e-07
5.16361e-08
-1.94393e-07
-3.44676e-08
-1.9091e-07
1.10567e-08
-1.90347e-07
2.16219e-08
-1.89795e-07
2.38209e-08
-2.04643e-07
1.35828e-08
-1.9435e-07
2.34368e-08
-2.22024e-07
3.01699e-09
-1.93465e-07
-4.12481e-08
-1.98076e-07
2.11641e-08
-2.00439e-07
4.31626e-09
-2.08801e-07
4.47965e-10
-1.99301e-07
-3.51617e-09
-2.20023e-07
2.40956e-08
-2.09889e-07
-1.3396e-08
-2.02277e-07
-5.48876e-09
1.20474e-08
-2.18001e-07
-2.17075e-08
-1.60547e-07
-8.81152e-08
-2.21689e-07
-1.89336e-08
-1.56731e-07
-8.69441e-09
-2.53867e-07
-5.72046e-08
-2.49488e-07
-3.33193e-08
-2.75584e-07
-4.4801e-08
-2.96682e-07
3.46934e-09
-2.70072e-07
-1.52646e-08
-2.84364e-07
2.12567e-08
-3.0935e-07
-1.36116e-08
-3.29643e-07
-2.24855e-08
-3.59289e-07
-1.79545e-08
-2.88571e-07
-4.16564e-09
-3.44166e-07
-4.44272e-08
-2.17146e-07
1.63281e-09
-2.46692e-07
4.7622e-09
-2.02694e-07
3.97866e-08
-2.0882e-07
1.49616e-08
-2.09168e-07
1.95321e-08
-1.88124e-07
-7.49301e-09
-2.09615e-07
4.28502e-08
-2.16561e-07
1.79637e-08
-2.29951e-07
2.02057e-08
-1.83771e-07
-3.57739e-08
-1.6215e-07
-1.89073e-08
-1.21159e-07
-2.89981e-08
-1.00715e-07
-3.76659e-08
-3.85681e-08
-9.24133e-08
-6.44091e-08
1.41849e-08
-9.87506e-08
-5.07596e-09
-9.87597e-08
-1.07353e-08
-9.41119e-08
-3.6849e-08
-1.29394e-07
-4.92024e-10
-1.44244e-07
-5.83696e-08
-1.87974e-07
-3.6142e-08
-1.95046e-07
3.73832e-08
-1.91558e-07
2.06619e-08
-2.12676e-07
-6.8051e-09
-2.16361e-07
-3.88158e-09
-2.22496e-07
-8.93545e-09
-1.14073e-07
-3.26674e-09
-2.42101e-07
-1.39876e-08
-2.14026e-07
-6.88164e-09
-2.52284e-07
1.52518e-08
-2.65858e-07
-1.09309e-08
-2.48355e-07
-2.30315e-08
-2.65537e-07
6.42945e-08
-2.3001e-07
6.80868e-08
-2.00409e-07
4.67048e-08
-1.88519e-07
4.77935e-08
-2.00921e-07
2.95817e-08
-2.00686e-07
4.4351e-09
-2.12181e-07
-1.62224e-08
-1.86102e-07
-1.18915e-08
-1.63236e-07
-3.97988e-08
-1.5726e-07
1.43091e-08
-1.8519e-07
-3.82958e-09
-1.67395e-07
-8.06583e-09
-1.69456e-07
1.0429e-08
-1.64928e-07
6.52822e-09
-1.6716e-07
2.38538e-08
-1.82506e-07
3.91673e-08
-1.86475e-07
1.74132e-08
-1.86878e-07
2.19335e-08
-2.22148e-07
-3.62003e-09
-1.23962e-07
3.00151e-08
-2.01501e-07
-2.44785e-08
-1.93541e-07
-5.69967e-09
-1.90592e-07
-4.44529e-09
-1.35231e-07
6.61622e-08
-2.47596e-07
1.35417e-08
-1.62698e-07
2.61458e-08
-1.70801e-07
2.61382e-09
-2.81326e-09
-2.27733e-07
-1.89168e-09
-1.22247e-07
-2.77229e-08
-2.0857e-07
-5.33083e-08
-1.89428e-07
-2.77485e-08
-2.15153e-07
-3.14805e-08
-2.30145e-07
-1.83273e-08
-2.60061e-07
-1.48865e-08
-2.89388e-07
-8.68342e-09
-1.72542e-07
3.38054e-08
-2.78722e-07
-3.84812e-08
-2.1763e-07
-3.32249e-08
-2.231e-07
-1.70164e-08
-2.63763e-07
2.26589e-08
-2.55744e-07
-1.20204e-08
-2.67086e-07
-3.34273e-08
-2.41229e-07
-2.42418e-08
-2.34139e-07
6.0195e-11
-2.06855e-07
1.29032e-08
-2.13247e-07
1.9242e-08
-2.2184e-07
2.81245e-08
-1.36048e-07
3.25403e-08
-2.09971e-07
-6.40938e-09
-1.98575e-07
4.38078e-09
-1.98968e-07
-2.08754e-08
-1.69878e-07
-2.3385e-08
-1.87906e-07
-4.25514e-08
-1.86263e-07
-3.09375e-08
-2.12294e-07
-1.43317e-08
-5.21636e-08
3.98515e-08
-2.27356e-07
-5.88228e-08
-2.20917e-07
-1.15667e-08
-2.28234e-07
-3.52774e-09
-1.44565e-07
5.01881e-09
-2.39978e-07
-3.06789e-08
-1.43301e-07
-3.21306e-08
-1.48776e-07
-2.88356e-08
-2.03014e-07
-3.28174e-08
-2.13693e-07
3.13414e-08
-2.07745e-07
-1.2753e-08
-1.91653e-07
-1.78355e-08
-1.70822e-07
-3.00704e-08
-9.50839e-08
4.37247e-08
-2.41971e-07
-3.30178e-08
-1.9405e-07
-1.53728e-08
-2.41134e-07
-2.37182e-08
-2.79459e-07
2.98793e-08
-1.84224e-07
9.19815e-08
-2.60579e-07
1.62117e-08
-2.37731e-07
4.45441e-08
-1.86407e-07
-3.19381e-09
-1.74982e-07
3.68518e-08
-1.91349e-07
4.37175e-08
-1.87649e-07
7.34665e-10
-1.92305e-07
-1.15663e-08
-1.88615e-07
-1.57023e-08
-8.96307e-08
-1.35692e-08
-1.84557e-07
-1.3946e-08
-1.6316e-07
-2.71095e-08
-1.60138e-07
-1.10055e-08
-1.60745e-07
1.10356e-08
-1.34658e-07
-1.95587e-08
-1.53298e-07
4.24945e-08
-1.45721e-07
3.15899e-08
-1.44771e-07
1.64634e-08
-1.49259e-07
2.64218e-08
-1.66275e-07
1.34329e-08
-1.51023e-07
1.47628e-08
-1.85093e-07
9.34235e-09
-2.00475e-07
9.68246e-09
-1.22286e-07
4.30516e-08
-1.76274e-07
-5.47932e-09
-1.79889e-07
-2.68421e-08
-1.5972e-07
4.87947e-08
-1.63626e-07
6.51983e-09
-4.03441e-09
-2.28225e-07
2.12283e-08
-1.59749e-07
-5.71191e-08
-1.65456e-07
-4.59728e-08
-1.47015e-07
-4.61902e-08
-1.59324e-07
-1.9172e-08
-1.80036e-07
2.38428e-09
-2.08539e-07
1.36153e-08
-2.29146e-07
1.19232e-08
-1.79185e-07
-1.59934e-08
-2.16676e-07
-4.29085e-08
-1.01971e-07
1.79863e-08
-1.04699e-07
-1.3221e-08
-1.83018e-07
-2.01521e-08
-1.74273e-07
-2.4624e-08
-2.03499e-07
-5.99839e-09
-2.13532e-07
-1.21333e-08
-1.91686e-07
-2.20115e-08
-1.83357e-07
4.70514e-09
-1.7658e-07
1.24639e-08
-1.79159e-07
3.03924e-08
-1.30747e-07
-1.6036e-08
-1.6074e-07
2.51573e-08
-1.48536e-07
-6.32421e-09
-1.4449e-07
-2.6422e-08
-1.57654e-07
-1.16955e-08
-1.78724e-07
-2.17043e-08
-1.9555e-07
-1.61068e-08
-2.00188e-07
-9.69416e-09
-1.6395e-07
5.24913e-09
-1.94669e-07
-2.83943e-08
-2.19021e-07
1.26566e-08
-2.2064e-07
-1.9086e-09
-1.93398e-07
-2.24527e-08
-2.45973e-07
1.90737e-08
-1.56992e-07
4.94019e-09
-1.74821e-07
-9.40511e-09
-1.83584e-07
-2.40538e-08
-2.61675e-07
-5.64854e-08
-2.24113e-07
-6.54865e-09
-2.28225e-07
-1.60277e-08
-1.42425e-07
7.18858e-09
-1.98862e-07
-6.49657e-08
-2.57873e-07
2.62615e-08
-2.50549e-07
-1.99371e-08
-2.61974e-07
2.93026e-08
-2.7848e-07
4.34083e-08
-2.15406e-07
2.86157e-08
-2.26338e-07
2.71441e-08
-2.49173e-07
2.58999e-08
-1.3183e-07
4.58485e-08
-1.54307e-07
6.12788e-08
-2.14059e-07
-1.97117e-08
-1.91863e-07
-2.36453e-08
-1.87735e-07
-1.56939e-08
-2.06513e-07
9.69107e-10
-1.00732e-07
6.37024e-09
-2.01974e-07
-7.85372e-08
-2.10979e-07
2.33755e-08
-1.82387e-07
-3.95981e-08
-2.24713e-07
1.1763e-08
-1.23565e-07
4.52108e-08
-2.00942e-07
-4.56675e-09
-1.78704e-07
9.35213e-09
-1.7635e-07
1.41087e-08
-1.67986e-07
1.80583e-08
-1.6933e-07
1.47769e-08
-1.7218e-07
1.76137e-08
-1.76467e-07
1.36286e-08
-1.57933e-07
-8.94191e-09
-1.63039e-07
4.81576e-08
-1.92992e-07
2.24493e-08
-1.20023e-07
2.74239e-08
-1.8508e-07
-8.11534e-09
-1.793e-07
-1.14808e-09
-4.36468e-09
-3.0805e-07
-1.11068e-07
-1.27664e-07
-2.3856e-08
-1.74859e-07
-3.63509e-08
-1.50148e-07
-2.94223e-08
-1.70238e-07
9.17216e-10
-1.84337e-07
1.64826e-08
-1.818e-07
1.10776e-08
-2.06096e-07
-3.15825e-09
-1.74656e-07
-8.13772e-09
-1.20809e-07
2.71643e-08
-1.05769e-07
4.17723e-09
-1.05298e-07
-1.26187e-08
-1.98404e-07
-5.2435e-08
-1.97744e-07
-2.75844e-08
-1.86998e-07
-1.45184e-08
-2.08623e-07
7.36224e-09
-1.33459e-07
2.85446e-08
-1.32053e-07
4.65909e-09
-1.14588e-07
-3.83272e-09
-1.87581e-07
-2.16909e-08
-8.27113e-08
2.88049e-09
-1.6516e-07
-5.80612e-08
-1.84865e-07
1.33161e-08
-1.80679e-07
1.06013e-08
-1.80939e-07
-1.32826e-08
-1.89703e-07
-1.29404e-08
-2.03004e-07
-8.70997e-10
-2.13187e-07
5.86483e-10
-1.94562e-07
-1.5519e-08
-1.33441e-07
3.75809e-08
-2.31757e-07
-1.0862e-08
-2.36121e-07
-2.31803e-09
-1.53685e-07
2.08326e-08
-2.55106e-07
-4.38551e-08
-1.92554e-07
-1.63499e-08
-2.11932e-07
9.97358e-09
-2.20603e-07
-1.53834e-08
-2.51173e-07
-2.59146e-08
-2.41942e-07
-1.57799e-08
-2.31237e-07
-2.71727e-08
-2.47909e-07
2.12583e-08
-2.13657e-07
2.43006e-08
-3.50358e-07
-4.07575e-08
-3.12864e-07
2.5068e-08
-2.76976e-07
-9.41018e-09
-2.69562e-07
9.09026e-11
-2.28834e-07
2.89487e-08
-2.27774e-07
2.35105e-08
-2.33217e-07
2.89632e-08
-1.14301e-07
5.26533e-08
-1.94783e-07
-2.29898e-08
-1.96105e-07
-1.85916e-08
-1.68856e-07
-9.41459e-09
-1.56159e-07
-2.86828e-08
-1.81421e-07
2.62305e-08
-1.67418e-07
-9.40556e-09
-1.25824e-07
5.59013e-09
-2.32351e-07
-3.47314e-08
-1.2551e-07
2.0759e-08
-2.11112e-07
-2.5817e-08
-1.76523e-07
8.46877e-09
-1.87884e-07
6.79357e-09
-1.84973e-07
6.44124e-09
-1.88525e-07
1.76609e-08
-1.87197e-07
1.67301e-08
-1.83123e-07
1.07034e-08
-1.88472e-07
2.29635e-08
-1.98498e-07
2.16295e-08
-1.14692e-07
3.29728e-08
-1.96689e-07
6.88628e-09
-1.97347e-07
2.31084e-08
-1.705e-07
3.01014e-10
-2.04143e-07
2.54468e-08
-2.09198e-07
3.90734e-09
-8.37253e-09
-9.00955e-08
-4.06433e-08
-1.90877e-07
-3.20028e-08
-1.71494e-07
-5.37879e-08
-1.37378e-07
-6.35393e-08
-1.31222e-07
-5.23875e-09
-1.76803e-07
2.03755e-08
-1.72362e-07
6.63515e-09
-1.85007e-07
9.48604e-09
-1.74991e-07
2.34812e-08
-1.4273e-07
-5.37447e-09
-1.42233e-07
3.67886e-09
-1.53609e-07
-1.24292e-09
-1.72667e-07
-3.35707e-08
-1.74065e-07
-2.41301e-08
-1.64875e-07
-2.37097e-08
-1.67666e-07
8.4701e-09
-1.23893e-07
-1.55201e-08
-1.17912e-07
-1.32288e-09
-1.30662e-07
8.91614e-09
-1.58234e-07
5.6588e-09
-1.44434e-07
-1.25504e-08
-9.74638e-08
2.06881e-08
-2.14688e-07
7.02411e-09
-1.90285e-07
-1.38025e-08
-1.65581e-07
-3.83789e-08
-1.58392e-07
-1.99982e-08
-1.87486e-07
2.79378e-08
-2.10536e-07
2.14887e-08
-1.24248e-07
2.39127e-08
-1.82242e-07
-2.82675e-08
-2.25298e-07
3.20828e-08
-2.04568e-07
-2.30479e-08
-1.8242e-07
-1.52788e-09
-2.14083e-07
-1.43764e-08
-1.19996e-07
1.52841e-08
-2.09766e-07
-2.34709e-08
-2.1931e-07
-5.83881e-09
-2.3844e-07
-6.78496e-09
-2.65163e-07
8.23821e-09
-1.93287e-07
2.66719e-08
-2.82782e-07
-1.17119e-08
-2.52363e-07
-6.36659e-09
-3.02788e-07
1.00834e-08
-2.68516e-07
-4.72061e-08
-2.36635e-07
-2.5253e-09
-2.5072e-07
1.16175e-08
-2.12317e-07
-4.43456e-09
-2.01974e-07
1.31668e-08
-1.78507e-07
3.40152e-09
-1.48182e-07
2.15712e-08
-1.71049e-07
-1.22749e-10
-1.81658e-07
-8.06437e-09
-1.6577e-07
-2.69939e-08
-8.40926e-08
1.5361e-08
-1.86996e-07
-3.59251e-08
-1.66461e-07
1.15384e-08
-1.59743e-07
-1.18463e-09
-1.76326e-07
-1.79655e-08
-1.55545e-07
-2.18245e-11
-1.86311e-07
4.68631e-09
-1.93223e-07
1.538e-08
-2.09002e-07
2.25727e-08
-2.1289e-07
1.03295e-08
-1.87151e-07
-8.16076e-09
-1.9376e-07
2.33394e-08
-1.74623e-07
-8.52097e-09
-1.84595e-07
3.26035e-08
-1.81971e-07
1.90052e-08
-1.56274e-07
7.01174e-09
-2.06869e-07
5.74813e-08
-2.09096e-07
2.32024e-08
-1.36766e-07
5.36928e-08
-2.25022e-07
-9.33783e-09
-2.13164e-07
-7.95008e-09
-1.89303e-08
-9.49775e-08
-6.45615e-09
-2.24355e-07
-6.17248e-08
-2.19139e-07
-5.44268e-08
-1.37356e-07
2.05947e-08
-1.32654e-07
-8.58896e-09
-2.1038e-07
-2.50808e-08
-2.006e-07
-5.29106e-09
-1.91633e-07
-1.43705e-09
-1.997e-07
-1.03595e-08
-1.82493e-07
2.09339e-08
-1.7947e-07
6.55456e-10
-1.93095e-07
-2.71288e-08
-1.7932e-07
-6.28569e-09
-1.9101e-07
-1.42704e-08
-1.94054e-07
-2.09087e-08
-2.03468e-07
-2.35962e-08
-1.7928e-07
1.76994e-09
-1.83692e-07
3.08905e-09
-1.88143e-07
1.33654e-08
-2.07434e-07
2.2833e-08
-1.37827e-07
4.35622e-08
-1.28111e-07
1.34733e-08
-2.16825e-07
-2.74439e-08
-2.23564e-07
-1.1557e-08
-1.43209e-07
6.98617e-09
-1.22815e-07
-3.76789e-08
-2.09941e-07
-8.03685e-09
-1.9959e-07
8.99523e-09
-1.87648e-07
9.81227e-09
-1.16248e-07
2.60534e-08
-2.26423e-07
-2.24741e-08
-2.13198e-07
5.2065e-09
-2.08824e-07
-5.90274e-09
-1.91122e-07
-3.24092e-08
-1.74049e-07
-1.94401e-09
-1.95532e-07
-1.98844e-09
-2.03287e-07
1.91661e-09
-2.08813e-07
-1.25882e-09
-2.25893e-07
2.53187e-08
-2.05335e-07
5.78277e-09
-2.18434e-07
1.38772e-09
-2.20445e-07
-4.3558e-09
-2.29149e-07
-2.03542e-08
-2.26287e-07
-9.0073e-09
-1.74204e-07
-5.51654e-08
-1.54017e-07
-8.68596e-09
-1.46613e-07
-1.34102e-08
-1.46463e-07
-2.68341e-08
-1.06162e-07
5.23364e-09
-1.30775e-07
4.51124e-08
-1.38526e-07
4.88136e-09
-1.73645e-07
-1.48521e-08
-1.58965e-07
1.57648e-09
-1.40451e-07
-3.30956e-09
-1.60452e-07
-1.59233e-08
-1.7654e-07
-1.38537e-08
-1.69872e-07
-6.11912e-09
-1.39216e-07
-7.48503e-09
-1.47775e-07
7.1163e-09
-1.48437e-07
5.34886e-09
-1.64691e-07
3.16337e-08
-1.71383e-07
2.92648e-08
-1.93682e-07
3.0653e-08
-1.27951e-07
5.18294e-08
-2.19722e-07
-1.02646e-08
-1.26233e-07
2.50125e-08
-1.94214e-07
-2.13221e-08
-1.90095e-07
1.10795e-08
-1.06917e-07
4.9554e-08
-2.44731e-07
3.0469e-08
-1.93098e-07
1.30492e-08
-1.91898e-07
1.04667e-08
-2.09994e-07
8.75974e-09
-2.15582e-07
-2.36118e-09
2.12161e-08
-1.50969e-07
-2.35628e-08
-1.93059e-07
-3.80953e-08
-1.65162e-07
-7.64163e-08
-1.67091e-07
2.22951e-08
-1.76713e-07
1.03313e-09
-1.98911e-07
-3.1403e-09
-2.02654e-07
-1.54848e-09
-2.00852e-07
-3.23966e-09
-2.06071e-07
-5.0357e-09
-1.96922e-07
1.17844e-08
-1.97279e-07
1.01102e-09
-2.04251e-07
-2.01579e-08
-2.02193e-07
-8.40869e-09
-2.12676e-07
-3.78789e-09
-2.26898e-07
-6.68788e-09
-2.36208e-07
-1.42872e-08
-2.04525e-07
-3.02221e-08
-2.24818e-07
2.3381e-08
-1.89378e-07
-2.20756e-08
-2.053e-07
3.83628e-08
-1.8996e-07
2.7777e-08
-1.86157e-07
9.66944e-09
-2.21147e-07
7.26556e-09
-2.2255e-07
-1.0052e-08
-2.1691e-07
1.27418e-09
-1.31481e-07
2.67064e-09
-2.17707e-07
-4.50736e-08
-1.91168e-07
-1.97656e-08
-1.78006e-07
-3.34961e-09
-1.62531e-07
1.03127e-08
-1.83211e-07
-1.79534e-09
-1.93771e-07
1.57669e-08
-2.08783e-07
6.97914e-09
-1.23898e-07
8.42599e-09
-1.85823e-07
-6.38438e-08
-1.77864e-07
-9.94741e-09
-1.98415e-07
2.22404e-08
-1.82947e-07
-1.6899e-08
-1.99685e-07
2.61481e-09
-1.97269e-07
4.39827e-08
-1.99378e-07
1.48512e-09
-2.07895e-07
4.11892e-09
-2.17283e-07
-1.09659e-08
-2.30757e-07
-3.71042e-08
-1.21221e-07
1.22862e-09
-1.49875e-07
1.98796e-08
-1.43425e-07
-1.98598e-08
-1.4599e-07
-2.42691e-08
-9.78887e-08
-4.32552e-08
-2.11307e-07
-6.92639e-09
-1.70997e-07
5.99002e-09
-1.64578e-07
-2.13376e-08
-1.95714e-07
3.27126e-08
-1.78446e-07
-2.03688e-08
-1.83716e-07
-1.06537e-08
-2.02063e-07
-3.6986e-08
-1.81184e-07
-2.51494e-08
-1.28886e-07
-1.89895e-08
-1.52571e-07
2.94864e-08
-1.21661e-07
-2.55609e-08
-1.43677e-07
5.31079e-08
-1.50034e-07
3.56221e-08
-1.44355e-07
2.49739e-08
-1.1629e-07
2.32354e-08
-1.30992e-07
4.39344e-09
-1.13101e-07
6.79667e-09
-1.48468e-07
1.2189e-08
-1.67562e-07
3.01739e-08
-1.39042e-07
2.22381e-08
-2.56337e-07
-1.81535e-08
-2.16683e-07
1.4725e-08
-2.06277e-07
6.1396e-11
-2.02135e-07
4.61988e-09
-2.17606e-07
1.31102e-08
2.00522e-08
-1.37313e-07
-1.11105e-07
-2.23618e-07
3.15808e-08
-1.3855e-07
1.03036e-08
-2.27789e-07
-1.16486e-08
-2.11944e-07
-1.71368e-08
-2.08416e-07
-6.66869e-09
-2.0551e-07
-4.45575e-09
-2.153e-07
6.54986e-09
-1.80966e-07
-3.93702e-08
-2.04529e-07
-6.13334e-09
-2.00307e-07
-3.21158e-09
-1.89344e-07
1.03578e-08
-1.96521e-07
-1.23243e-09
-2.07299e-07
6.98905e-09
-2.19486e-07
5.49783e-09
-2.30823e-07
-5.30531e-09
-1.52828e-07
1.75024e-08
-2.59519e-07
-3.42872e-08
-1.47194e-07
3.30178e-08
-2.18679e-07
-1.3335e-08
-1.93577e-07
4.43174e-10
-1.89015e-07
5.10711e-09
-1.98416e-07
-2.27896e-08
-1.78188e-07
1.07802e-08
-1.95228e-07
1.63289e-08
-1.78902e-07
-1.36559e-08
-1.91966e-07
-3.247e-08
-1.85004e-07
-2.67276e-08
-1.55632e-07
-3.30595e-08
-1.76581e-07
3.12612e-08
-1.68079e-07
-1.02978e-08
-1.68361e-07
1.60491e-08
-1.72186e-07
1.08035e-08
-1.74598e-07
8.97068e-09
-1.16449e-07
3.72813e-09
-1.41248e-07
1.73044e-08
-2.27816e-07
-1.66738e-08
-1.48981e-07
2.7639e-08
-1.52535e-07
9.24499e-09
-2.17787e-07
-1.35025e-08
-1.81495e-07
-3.51766e-08
-1.92163e-07
1.46394e-08
-2.01165e-07