/*--------------------------------*- C++ -*----------------------------------*\
  =========                 |
  \\      /  F ield         | OpenFOAM: The Open Source CFD Toolbox
   \\    /   O peration     | Website:  https://openfoam.org
    \\  /    A nd           | Version:  12
     \\/     M anipulation  |
\*---------------------------------------------------------------------------*/
FoamFile
{
    format      ascii;
    class       volVectorField;
    location    "0.35";
    object      U.water_0;
}
// * * * * * * * * * * * * * * * * * * * * * * * * * * * * * * * * * * * * * //

dimensions      [0 1 -1 0 0 0 0];

internalField   nonuniform List<vector> 
3750
(
(0.000686042 -0.0494316 0)
(-0.00631707 -0.00632614 0)
(-0.0047974 -0.0122863 0)
(-0.00831197 0.00985863 0)
(0.000832148 -0.00102339 0)
(-0.000197152 0.00657131 0)
(0.000634612 0.00273554 0)
(-0.000558734 0.00552748 0)
(0.00130331 0.00364467 0)
(-0.000547277 0.00394833 0)
(0.000862805 0.00908706 0)
(-0.000723714 0.0116415 0)
(-3.02483e-05 0.00831152 0)
(0.000341868 0.00851386 0)
(0.00163114 0.00768899 0)
(0.00219272 0.0109075 0)
(-0.00120511 0.0103501 0)
(-0.00115445 0.00628965 0)
(-0.0013344 0.0078593 0)
(-0.00403074 0.0106103 0)
(-0.000807973 0.0126707 0)
(0.00071002 0.0118686 0)
(0.00127074 0.0109522 0)
(0.000861334 0.00915458 0)
(0.00176104 0.00849849 0)
(-0.000194945 0.0084564 0)
(0.000854059 0.00828851 0)
(0.000725116 0.012722 0)
(-0.00277136 0.0151448 0)
(-0.000365327 0.0103811 0)
(-0.000683414 0.00982521 0)
(-0.00172489 0.0101797 0)
(0.0012914 0.00944741 0)
(-0.00025804 0.0108266 0)
(-0.000124039 0.0101316 0)
(-0.000937971 0.011033 0)
(7.66273e-07 0.0127981 0)
(-0.000277335 0.01313 0)
(-0.000132609 0.0129489 0)
(-0.000323236 0.0136036 0)
(-9.32989e-05 0.0131591 0)
(-0.00123285 0.0121192 0)
(0.000591625 0.0143335 0)
(-0.000229976 0.0172368 0)
(0.000333308 0.0198947 0)
(-8.31041e-05 0.0223707 0)
(0.00100997 0.0210246 0)
(0.00189115 0.0173594 0)
(0.000835819 0.0105548 0)
(7.45568e-05 0.00656743 0)
(-0.00204651 0.00739477 0)
(-0.0014337 0.00809005 0)
(-0.00100957 0.008808 0)
(-0.000117534 0.00876317 0)
(0.000651536 0.00931951 0)
(0.00135 0.00959446 0)
(0.00137802 0.00946672 0)
(0.000224961 0.00944416 0)
(0.000232405 0.0102685 0)
(0.000521076 0.0111953 0)
(0.000658761 0.0125055 0)
(0.000484768 0.0108962 0)
(0.000504922 0.0101125 0)
(-0.000814799 0.00903469 0)
(-0.000234882 0.00779565 0)
(0.00046538 0.00572572 0)
(0.000595131 0.00546453 0)
(0.000437211 0.00605984 0)
(-0.0011443 0.00516735 0)
(-6.52395e-05 0.00542597 0)
(-0.000529936 0.00564697 0)
(0.000156789 0.00702684 0)
(-0.000772159 0.00929321 0)
(-0.00108497 0.0105409 0)
(2.35521e-05 0.0117635 0)
(0.00222923 -0.044354 0)
(-0.00911468 2.31312e-05 0)
(-0.00700368 -0.0206064 0)
(-0.0100674 -0.00588526 0)
(-0.00141975 -0.0127034 0)
(-0.00290196 -0.00819668 0)
(5.43304e-05 -0.00866465 0)
(-0.00203473 -0.00261035 0)
(-0.000151437 -0.0052948 0)
(-0.000460197 -0.00657845 0)
(-2.44545e-05 -0.00328135 0)
(-0.00366341 -0.00190749 0)
(-0.00181923 -0.00310013 0)
(-0.000352649 -0.000498913 0)
(0.0037064 -0.000420687 0)
(0.00224733 -0.000138097 0)
(-0.00124307 -0.000415381 0)
(-0.00155539 -0.00197719 0)
(-0.00101034 -0.00407716 0)
(-0.00225547 -0.00169593 0)
(0.00229708 0.000995874 0)
(-0.000152556 -0.00382327 0)
(0.00107076 -0.00570854 0)
(0.000604495 -0.00441488 0)
(0.000238281 -0.00328394 0)
(-0.000605691 -0.00185221 0)
(0.000148827 -0.000589374 0)
(0.000346968 -0.00234956 0)
(0.000710954 0.000898373 0)
(-7.99257e-05 -0.0034311 0)
(0.000361318 -0.00882379 0)
(-0.000662095 -0.00653506 0)
(0.000391553 -0.00547622 0)
(-0.00175008 -0.00487097 0)
(-0.00135452 -0.00425869 0)
(-0.000641314 -0.00295469 0)
(-0.00191829 -0.00208238 0)
(-6.4688e-05 -0.00443796 0)
(-0.000881157 -0.00284961 0)
(2.50373e-05 -0.00200063 0)
(0.000173905 -0.00221351 0)
(-0.00154934 -0.00206809 0)
(-0.00267768 0.000937502 0)
(-0.0041428 0.00490076 0)
(-0.00449639 0.0108148 0)
(-0.000549764 0.014061 0)
(0.0031289 0.016249 0)
(0.00911744 0.0132508 0)
(0.00675031 0.00925235 0)
(0.00399854 0.00413767 0)
(0.000229282 0.000528034 0)
(-0.000587742 -0.0033786 0)
(-0.000324256 -0.00570419 0)
(-5.73682e-05 -0.0058791 0)
(-0.000703732 -0.00434822 0)
(-0.000220205 -0.00300651 0)
(-0.00239623 -0.00304619 0)
(-0.00191086 -0.000654483 0)
(-0.0010042 0.00201058 0)
(-0.000565956 0.00236446 0)
(0.000166535 0.00419875 0)
(0.000617563 0.00290296 0)
(0.00197025 9.39709e-06 0)
(0.000378073 -0.00270498 0)
(0.0036636 -0.00339855 0)
(0.0013535 -0.00594805 0)
(0.000771485 -0.00614169 0)
(-0.000948789 -0.00530987 0)
(-0.00264929 -0.00433431 0)
(0.000550918 -0.00367664 0)
(0.000431764 -0.00606456 0)
(-0.000287592 -0.00731423 0)
(-0.00221416 -0.00775682 0)
(-0.00161733 -0.00549725 0)
(0.000168898 -0.00168551 0)
(0.000223836 -0.0367076 0)
(-0.00982629 0.000226566 0)
(-0.00790043 -0.023485 0)
(-0.00706919 -0.00988971 0)
(-0.00654752 -0.0158367 0)
(-0.0053011 -0.0120692 0)
(-0.000133143 -0.0129355 0)
(-0.000436928 -0.00967022 0)
(-0.00156617 -0.00882481 0)
(-0.00086794 -0.00996446 0)
(-0.00141171 -0.0113295 0)
(-0.00245175 -0.00993005 0)
(-0.00176345 -0.0109166 0)
(-0.00101028 -0.00934179 0)
(2.21953e-05 -0.0112998 0)
(0.000710154 -0.01597 0)
(-0.000588999 -0.0171787 0)
(-0.000801847 -0.0185881 0)
(0.000795671 -0.0194505 0)
(0.00335885 -0.014866 0)
(0.00133176 -0.0151781 0)
(-0.00185367 -0.0164532 0)
(-0.00261832 -0.0149868 0)
(7.02356e-05 -0.0189534 0)
(-0.00234919 -0.0206853 0)
(-0.000149629 -0.0207986 0)
(0.00110274 -0.0218455 0)
(0.0031285 -0.0188548 0)
(0.00288647 -0.0184649 0)
(0.000520757 -0.024057 0)
(-0.000416165 -0.0246774 0)
(-0.000282363 -0.0213044 0)
(-0.0037103 -0.0195136 0)
(-0.00276082 -0.0195622 0)
(-0.00226212 -0.0180357 0)
(0.000284772 -0.0180835 0)
(-0.000826806 -0.0161663 0)
(2.61558e-05 -0.0145472 0)
(-0.00122722 -0.0139474 0)
(-0.00270033 -0.013241 0)
(-0.00203642 -0.0123177 0)
(-0.00293933 -0.0101617 0)
(-0.00633772 -0.0080315 0)
(-0.00675688 -0.00796019 0)
(-0.0068026 -0.00506429 0)
(-0.00410509 -0.00298248 0)
(0.00313409 0.00251587 0)
(0.00799167 0.00460605 0)
(0.00989616 0.000770482 0)
(0.00782285 -0.0025265 0)
(0.00622101 -0.00658223 0)
(0.00280403 -0.0102516 0)
(-0.000463012 -0.0118628 0)
(0.000232869 -0.0120636 0)
(-0.00126407 -0.00977733 0)
(-0.00213483 -0.0101646 0)
(-0.00254996 -0.0126294 0)
(-0.00165961 -0.0115639 0)
(-0.00257658 -0.0123597 0)
(-0.00262041 -0.0119844 0)
(0.00138654 -0.0106859 0)
(0.0056321 -0.0127559 0)
(0.00633442 -0.0135478 0)
(0.00513339 -0.0103061 0)
(0.00195817 -0.00959102 0)
(-7.34637e-05 -0.0132509 0)
(-0.000134047 -0.0119732 0)
(-0.000876041 -0.0131487 0)
(-0.000454298 -0.0105051 0)
(0.00125374 -0.0105269 0)
(0.000106552 -0.0153753 0)
(-0.000753713 -0.0154028 0)
(-0.00207419 -0.0149865 0)
(-0.00150897 -0.0112881 0)
(-0.00204936 -0.00624744 0)
(0.00170648 -0.0406725 0)
(-0.00613464 -0.00372034 0)
(-0.0051282 -0.0222277 0)
(-0.00601436 -0.0110214 0)
(-0.00831679 -0.0199177 0)
(-0.00621525 -0.0132833 0)
(-0.00433194 -0.013427 0)
(-0.00281052 -0.0122358 0)
(-0.00213909 -0.0102006 0)
(-0.00157418 -0.0104169 0)
(-0.00341 -0.0104131 0)
(-0.0010664 -0.0102705 0)
(0.000238833 -0.0115353 0)
(0.00550054 -0.0110557 0)
(0.00321021 -0.0122092 0)
(0.00256836 -0.0169781 0)
(0.000314477 -0.0201171 0)
(-0.000958836 -0.0202165 0)
(0.000266497 -0.0203555 0)
(0.00256141 -0.0187227 0)
(0.00144768 -0.0195379 0)
(0.0019631 -0.0218886 0)
(-0.000590881 -0.0189375 0)
(0.000161894 -0.0223692 0)
(0.000383572 -0.0261911 0)
(0.00125976 -0.0249801 0)
(0.00139351 -0.0238726 0)
(0.00289184 -0.0234323 0)
(0.000606083 -0.0218371 0)
(0.000433727 -0.0227781 0)
(-0.000630173 -0.0234989 0)
(-0.00182551 -0.0231692 0)
(-0.00321595 -0.0224146 0)
(-0.00370536 -0.0228807 0)
(-0.00461457 -0.0233023 0)
(-0.00388052 -0.0222043 0)
(-0.00112735 -0.0193214 0)
(-0.00146246 -0.0164477 0)
(-0.00207028 -0.014875 0)
(-0.00383841 -0.013892 0)
(-0.00300412 -0.0127966 0)
(-0.00589441 -0.0120334 0)
(-0.00698916 -0.0125395 0)
(-0.00845632 -0.0140021 0)
(-0.00746547 -0.0143138 0)
(-0.00787558 -0.0138594 0)
(0.0014153 -0.0112969 0)
(0.00569529 -0.00998241 0)
(0.0113486 -0.010771 0)
(0.0116823 -0.0136643 0)
(0.00687629 -0.0151336 0)
(0.00378123 -0.0154703 0)
(-0.00123033 -0.0126658 0)
(0.00087558 -0.0121766 0)
(0.000482263 -0.014391 0)
(-0.00119213 -0.0158208 0)
(-0.00108304 -0.0170003 0)
(-0.00105107 -0.0170847 0)
(-0.0020639 -0.0191502 0)
(-0.000399565 -0.0187437 0)
(0.000942141 -0.0168287 0)
(0.00307919 -0.018589 0)
(0.00290788 -0.0185722 0)
(0.00329469 -0.015017 0)
(-0.00105853 -0.0128719 0)
(0.000592039 -0.0143995 0)
(0.000490165 -0.0155528 0)
(0.00157771 -0.0157292 0)
(0.00340567 -0.0117937 0)
(-0.000876615 -0.0133026 0)
(-0.000763026 -0.0175234 0)
(-0.00168134 -0.0181158 0)
(-0.000986205 -0.0176359 0)
(0.00038808 -0.0153329 0)
(0.00139529 -0.0111145 0)
(0.000424025 -0.0400985 0)
(-0.00702282 -0.00724939 0)
(-0.00484014 -0.0233024 0)
(-0.00634673 -0.0138153 0)
(-0.00645679 -0.0196443 0)
(-0.00482792 -0.017111 0)
(-0.00729336 -0.0181682 0)
(-0.00441285 -0.0133799 0)
(-0.00336475 -0.0102619 0)
(-0.0042007 -0.0105019 0)
(-0.00254318 -0.00954589 0)
(-0.000950239 -0.0100034 0)
(-0.000303752 -0.00966632 0)
(0.0040758 -0.00845817 0)
(0.00516003 -0.00856915 0)
(0.0047065 -0.00910547 0)
(0.00190676 -0.0139466 0)
(0.000536714 -0.0188748 0)
(0.00059756 -0.0189599 0)
(0.00218774 -0.0168311 0)
(0.00482444 -0.0170131 0)
(0.00232336 -0.0191416 0)
(0.00160247 -0.0185587 0)
(-0.00284921 -0.0199301 0)
(-0.00159795 -0.0199504 0)
(-0.000679908 -0.0176763 0)
(-0.000619776 -0.0166607 0)
(0.00301002 -0.0140461 0)
(0.000545544 -0.0133222 0)
(0.00159295 -0.0160489 0)
(0.000310401 -0.0174173 0)
(-0.00125808 -0.0182887 0)
(-0.00303272 -0.0189565 0)
(-0.0022895 -0.0212208 0)
(-0.00285783 -0.0220725 0)
(-0.00409286 -0.0204996 0)
(-0.0048684 -0.0173318 0)
(-0.00335878 -0.0176981 0)
(-0.00399708 -0.0151164 0)
(-0.00380527 -0.0132276 0)
(-0.00419631 -0.0132049 0)
(-0.00517749 -0.0134262 0)
(-0.0060216 -0.0151271 0)
(-0.00621947 -0.017593 0)
(-0.00433882 -0.0212698 0)
(-0.00253116 -0.0206682 0)
(0.00242989 -0.0183575 0)
(0.00730951 -0.017361 0)
(0.00800142 -0.0190648 0)
(0.00659866 -0.0226581 0)
(0.00392709 -0.0189875 0)
(0.00294554 -0.017753 0)
(-8.91591e-05 -0.0154658 0)
(-0.001818 -0.0149133 0)
(-0.00185823 -0.0179169 0)
(-0.000928168 -0.0174802 0)
(-0.00108439 -0.0175183 0)
(-0.00068108 -0.0182099 0)
(-0.00102032 -0.018062 0)
(0.00390438 -0.0173463 0)
(0.00169272 -0.0168759 0)
(0.000766608 -0.0182368 0)
(0.00268094 -0.018863 0)
(0.0030038 -0.0184404 0)
(-0.000619388 -0.0179882 0)
(0.0022115 -0.019731 0)
(0.00142519 -0.0214632 0)
(0.00233473 -0.0200432 0)
(0.00417246 -0.0191522 0)
(0.000137774 -0.0186887 0)
(-0.000655098 -0.020418 0)
(-0.00166801 -0.0219243 0)
(-0.00149384 -0.021906 0)
(0.000196341 -0.0196836 0)
(0.0017713 -0.016012 0)
(-0.000775081 -0.0413013 0)
(-0.00621238 -0.00273853 0)
(-0.00640449 -0.0219376 0)
(-0.00529921 -0.0102364 0)
(-0.00570162 -0.0169382 0)
(-0.00275767 -0.0138382 0)
(-0.00458638 -0.0145516 0)
(-0.00349835 -0.0119915 0)
(-0.00530997 -0.013108 0)
(-0.00678316 -0.0106316 0)
(-0.00427778 -0.0083042 0)
(-0.00381433 -0.0130707 0)
(-0.00365439 -0.0156317 0)
(-0.000188669 -0.0128004 0)
(0.00565576 -0.0124925 0)
(0.00685488 -0.0124435 0)
(0.00496012 -0.0123422 0)
(0.0029741 -0.0142448 0)
(0.00385849 -0.0165537 0)
(0.00229196 -0.0120529 0)
(0.00381001 -0.0136239 0)
(0.00309915 -0.0172932 0)
(0.00128404 -0.0160277 0)
(-0.000875676 -0.017527 0)
(-0.00321967 -0.0172126 0)
(-0.000870677 -0.0175884 0)
(-0.000588407 -0.0143892 0)
(0.00125343 -0.0144199 0)
(0.000692466 -0.0131223 0)
(0.000708941 -0.0113832 0)
(4.09711e-05 -0.0132737 0)
(0.00101031 -0.014396 0)
(-0.000322306 -0.0162323 0)
(-0.00040077 -0.0183945 0)
(-0.00240952 -0.0185178 0)
(-0.00583343 -0.0163555 0)
(-0.0066564 -0.0140387 0)
(-0.00643124 -0.0139429 0)
(-0.0061024 -0.0156909 0)
(-0.005326 -0.0139116 0)
(-0.00298016 -0.0150304 0)
(-0.00282312 -0.0170682 0)
(-0.00279663 -0.0210868 0)
(-0.00160336 -0.0224957 0)
(-0.00148613 -0.0237474 0)
(-0.000175418 -0.0226005 0)
(0.00158054 -0.0215765 0)
(0.00530489 -0.0201224 0)
(0.00595232 -0.0213616 0)
(0.00527945 -0.0216558 0)
(0.00386205 -0.0161117 0)
(0.00117689 -0.0172832 0)
(0.00165796 -0.0198418 0)
(-0.00161447 -0.0199014 0)
(-0.000659963 -0.0214119 0)
(-0.000580494 -0.0219746 0)
(-0.00056918 -0.0231955 0)
(-0.00137406 -0.0240035 0)
(-0.00233392 -0.0216269 0)
(0.00236896 -0.0203455 0)
(0.00114726 -0.0231717 0)
(0.00250025 -0.0222616 0)
(0.00212778 -0.0215136 0)
(0.00246354 -0.0218401 0)
(0.00127678 -0.0178935 0)
(-3.22839e-05 -0.0171787 0)
(0.00165305 -0.0206334 0)
(0.00329496 -0.0190803 0)
(0.00121161 -0.0197059 0)
(0.00104852 -0.0204272 0)
(6.76707e-05 -0.0206219 0)
(0.000614249 -0.0224022 0)
(-5.12303e-05 -0.0230128 0)
(0.00196602 -0.0218234 0)
(0.000952138 -0.0202925 0)
(-0.00202178 -0.0475837 0)
(-0.00824717 -0.00172904 0)
(-0.00642344 -0.0225356 0)
(-0.0063889 -0.0114688 0)
(-0.00640601 -0.0132592 0)
(-0.00766532 -0.010305 0)
(-0.00527939 -0.0149614 0)
(-0.00625513 -0.0122377 0)
(-0.00333869 -0.0137902 0)
(0.00121388 -0.0153899 0)
(-0.00298556 -0.0175166 0)
(-0.00126444 -0.0217387 0)
(-0.000144484 -0.020055 0)
(0.000250709 -0.0127425 0)
(0.00419636 -0.0142281 0)
(0.00381856 -0.0156905 0)
(0.00601254 -0.0141597 0)
(0.00477597 -0.0127147 0)
(0.00504902 -0.0161644 0)
(0.00367533 -0.0157592 0)
(0.00194063 -0.0143006 0)
(0.00263307 -0.017652 0)
(0.0014515 -0.0159202 0)
(-0.000191429 -0.016053 0)
(-0.000582585 -0.0141811 0)
(-0.00118445 -0.0140668 0)
(-0.000693096 -0.0166756 0)
(-0.00292794 -0.0149391 0)
(-0.000287702 -0.0135205 0)
(-0.00180226 -0.0136863 0)
(-0.00183614 -0.0138124 0)
(0.00206282 -0.0146261 0)
(0.00174259 -0.0142886 0)
(0.000160968 -0.0114756 0)
(-0.00448913 -0.0104662 0)
(-0.00601135 -0.00552965 0)
(-0.00648306 -0.00449208 0)
(-0.00694826 -0.0117054 0)
(-0.00536265 -0.0141378 0)
(-0.00243837 -0.0123779 0)
(-0.00143297 -0.0144862 0)
(-0.000851381 -0.0189874 0)
(-0.00285148 -0.0197298 0)
(-0.00264305 -0.0190985 0)
(-0.00255288 -0.0188328 0)
(-0.00112023 -0.0182502 0)
(-0.00018864 -0.0161232 0)
(0.00448142 -0.0163205 0)
(0.00818056 -0.0174087 0)
(0.00837098 -0.0177276 0)
(0.00565211 -0.0162016 0)
(0.000679195 -0.0184066 0)
(0.000291605 -0.0204531 0)
(-0.00113866 -0.0203239 0)
(-0.000244509 -0.0203071 0)
(-0.000839903 -0.0201757 0)
(-0.000218165 -0.019317 0)
(-0.00119664 -0.0195465 0)
(0.00297174 -0.0158115 0)
(0.000893814 -0.0174725 0)
(0.000681027 -0.0219204 0)
(0.00119215 -0.0213438 0)
(0.00124688 -0.020793 0)
(0.00150547 -0.019876 0)
(0.00394072 -0.0201646 0)
(-4.18321e-05 -0.0177259 0)
(0.000764765 -0.016045 0)
(0.000744608 -0.0185066 0)
(0.000146168 -0.0204652 0)
(0.000381196 -0.0186879 0)
(0.00141473 -0.0187592 0)
(0.000944406 -0.0201411 0)
(0.000114141 -0.0204705 0)
(-0.000274286 -0.0199131 0)
(-0.00155262 -0.0210186 0)
(-0.00266121 -0.0292701 0)
(-0.00641275 -0.00488584 0)
(-0.0083451 -0.023319 0)
(-0.00417712 -0.0144458 0)
(-0.0039733 -0.02036 0)
(-0.00679111 -0.0192346 0)
(-0.00485704 -0.0241344 0)
(-0.00327743 -0.0245439 0)
(0.00171135 -0.0236452 0)
(0.00100345 -0.0301628 0)
(-0.000564135 -0.0306037 0)
(-0.00375844 -0.0293898 0)
(-0.00218403 -0.0317185 0)
(-0.00241496 -0.0237155 0)
(-0.00134197 -0.0218205 0)
(0.00136707 -0.0208073 0)
(0.00588458 -0.0174395 0)
(0.00836281 -0.0186624 0)
(0.00393725 -0.0190781 0)
(0.00464322 -0.016977 0)
(0.000248123 -0.0162719 0)
(-2.48472e-05 -0.0175213 0)
(0.000923523 -0.017347 0)
(5.30491e-05 -0.018476 0)
(0.00203813 -0.0178631 0)
(-0.00211436 -0.0169462 0)
(-0.000683467 -0.0164175 0)
(-0.000150352 -0.0171283 0)
(0.000643241 -0.0172132 0)
(5.59985e-05 -0.0182325 0)
(0.000299928 -0.0148135 0)
(-9.34641e-05 -0.0141492 0)
(-0.00238611 -0.0146404 0)
(-0.00668828 -0.0111477 0)
(-0.00539042 -0.00999439 0)
(-0.00499016 -0.00887121 0)
(-0.00202272 -0.0129893 0)
(-0.00140004 -0.019736 0)
(-0.000608246 -0.0205394 0)
(-0.000986546 -0.0180315 0)
(-0.00290659 -0.0170663 0)
(-0.00300329 -0.0189623 0)
(-0.00439669 -0.0206792 0)
(-0.00252656 -0.0195825 0)
(-0.00444985 -0.0196405 0)
(-0.000665488 -0.0205699 0)
(0.00227612 -0.0176543 0)
(0.00492908 -0.014645 0)
(0.00559246 -0.0174306 0)
(0.00664515 -0.019774 0)
(0.0057854 -0.0179386 0)
(0.00382029 -0.018749 0)
(0.00121812 -0.0198599 0)
(-0.000885566 -0.0187741 0)
(0.00067875 -0.0191791 0)
(-0.00182754 -0.0202397 0)
(-0.000396634 -0.0205998 0)
(-0.000857621 -0.0158969 0)
(0.000672065 -0.0129329 0)
(0.000374249 -0.0176627 0)
(0.0020648 -0.0202542 0)
(0.00201203 -0.0210082 0)
(0.00294125 -0.0216533 0)
(0.00275074 -0.0188031 0)
(0.00234923 -0.0177363 0)
(0.000665537 -0.0195958 0)
(0.00209275 -0.0185411 0)
(-0.00118754 -0.0189394 0)
(0.000615149 -0.0192881 0)
(-0.000214303 -0.019841 0)
(0.000422262 -0.0195986 0)
(0.000395928 -0.0215545 0)
(0.000652114 -0.0223621 0)
(-3.76439e-05 -0.0220092 0)
(-6.02417e-05 -0.0220791 0)
(-0.000538992 -0.0478264 0)
(-0.00510869 0.000553518 0)
(-0.00667939 -0.0285971 0)
(-0.00384344 -0.0173161 0)
(-0.00325419 -0.0253171 0)
(-0.0019284 -0.023869 0)
(-0.000493408 -0.0243553 0)
(0.000773346 -0.0204987 0)
(0.00261117 -0.0232799 0)
(-0.00247233 -0.0266928 0)
(0.00144151 -0.027949 0)
(-0.00335032 -0.0319057 0)
(-0.00251176 -0.0344274 0)
(-0.00203615 -0.0337733 0)
(-0.00422551 -0.0344867 0)
(0.000406504 -0.0285289 0)
(0.00351299 -0.020599 0)
(0.00519426 -0.0219783 0)
(0.00412663 -0.0227792 0)
(0.00358331 -0.0200489 0)
(0.001063 -0.0200881 0)
(0.00111023 -0.020205 0)
(-7.67745e-05 -0.0205623 0)
(-0.000477698 -0.0204366 0)
(0.000321207 -0.0199421 0)
(-0.0029254 -0.0169953 0)
(-0.00225735 -0.0123395 0)
(-0.00166866 -0.0104977 0)
(-0.000445644 -0.0102329 0)
(-0.00181561 -0.00963065 0)
(0.000297814 -0.00763305 0)
(-0.00189806 -0.00863554 0)
(-0.00210498 -0.0115429 0)
(-0.00333087 -0.0123946 0)
(-0.00183518 -0.0157587 0)
(-0.00235093 -0.0161091 0)
(3.66814e-05 -0.0178791 0)
(-0.00092913 -0.0231339 0)
(0.00041834 -0.0210876 0)
(-0.00139113 -0.0187872 0)
(-0.00161024 -0.0191411 0)
(-0.0044714 -0.0197023 0)
(-0.00509691 -0.0164334 0)
(-0.0019119 -0.0172356 0)
(-0.00401766 -0.0201477 0)
(-0.000343322 -0.0195212 0)
(0.00629237 -0.0230042 0)
(0.00437477 -0.024975 0)
(0.00250101 -0.0251858 0)
(0.00438085 -0.0248001 0)
(0.00497835 -0.0225038 0)
(0.00405764 -0.0210599 0)
(0.0018775 -0.0207748 0)
(0.000396883 -0.0168681 0)
(-0.000932976 -0.0179318 0)
(-0.00152129 -0.0189921 0)
(-0.00109339 -0.0172639 0)
(0.00231832 -0.016823 0)
(6.89251e-05 -0.0125598 0)
(-0.000152993 -0.0146414 0)
(0.00102361 -0.0190299 0)
(0.00183603 -0.0193184 0)
(0.00344253 -0.0188578 0)
(0.00418811 -0.017709 0)
(0.00168899 -0.0186154 0)
(0.000805766 -0.0157654 0)
(-0.000374409 -0.0166297 0)
(0.000148351 -0.0192726 0)
(0.00025401 -0.0188536 0)
(0.000501736 -0.0186076 0)
(0.000934987 -0.0180113 0)
(-0.000385498 -0.018287 0)
(0.00181386 -0.0192102 0)
(-0.000263104 -0.0198857 0)
(0.000305991 -0.0201064 0)
(-0.00234483 -0.0407716 0)
(-0.0061045 -0.00155622 0)
(-0.000962228 -0.0276288 0)
(-0.00288475 -0.0169549 0)
(-0.00249474 -0.0237478 0)
(-0.00238915 -0.0203634 0)
(-0.000452783 -0.0225375 0)
(-2.94551e-05 -0.0181663 0)
(-0.000763924 -0.0199598 0)
(-0.000634442 -0.0201906 0)
(0.00316726 -0.0200786 0)
(-0.000174947 -0.0248617 0)
(-0.000974412 -0.0254867 0)
(-0.00212552 -0.0259671 0)
(-0.00274683 -0.0275235 0)
(-8.97971e-05 -0.0251035 0)
(0.00150178 -0.0218908 0)
(-2.458e-06 -0.0220267 0)
(0.00151147 -0.0224957 0)
(0.00172104 -0.0208042 0)
(0.0017255 -0.0202962 0)
(0.00123822 -0.019688 0)
(0.00112826 -0.0199037 0)
(-0.000189019 -0.0165689 0)
(-0.00356043 -0.0169448 0)
(-0.00409448 -0.0178 0)
(-0.00494133 -0.0147439 0)
(-0.0035569 -0.0148226 0)
(-0.00286578 -0.0184122 0)
(-0.00138648 -0.0213451 0)
(-5.89107e-05 -0.0199107 0)
(-0.000226591 -0.0204518 0)
(-0.000264016 -0.0206477 0)
(-0.000257688 -0.0201031 0)
(-0.000714171 -0.0202506 0)
(-0.000558485 -0.0200398 0)
(-0.00303105 -0.0201581 0)
(-0.00228258 -0.0202016 0)
(0.00160109 -0.0199108 0)
(-0.000299868 -0.0180649 0)
(-0.00209379 -0.0170153 0)
(-0.00482834 -0.0176822 0)
(-0.00237081 -0.0123034 0)
(-0.00250811 -0.0146017 0)
(0.00141549 -0.017368 0)
(0.00213513 -0.013802 0)
(0.00341317 -0.0224314 0)
(0.00303372 -0.0281223 0)
(0.00213757 -0.024765 0)
(0.00435619 -0.0222007 0)
(0.00232239 -0.0206442 0)
(0.00130523 -0.0198314 0)
(0.00212929 -0.0182035 0)
(0.00129022 -0.0166627 0)
(-0.0029307 -0.0169594 0)
(-0.00144286 -0.0172465 0)
(-0.00340529 -0.0158617 0)
(0.000527859 -0.015006 0)
(0.000678268 -0.0146815 0)
(-0.00212447 -0.0145912 0)
(0.00252447 -0.0160014 0)
(0.00305825 -0.0148777 0)
(0.00411366 -0.0136184 0)
(0.0021951 -0.0138147 0)
(0.00307517 -0.0148457 0)
(0.00200239 -0.0145923 0)
(-0.00127849 -0.015171 0)
(-0.000279752 -0.0173563 0)
(7.1382e-06 -0.0194279 0)
(0.000891061 -0.0183727 0)
(0.000927472 -0.0185365 0)
(0.000247656 -0.0146653 0)
(0.00087967 -0.0145005 0)
(-7.55012e-05 -0.0173192 0)
(0.000480388 -0.0168176 0)
(-0.00365411 -0.0373357 0)
(-0.00494577 -0.00450824 0)
(-0.00446681 -0.0240709 0)
(0.000306089 -0.012435 0)
(-0.000625101 -0.0187303 0)
(5.56933e-05 -0.0149503 0)
(0.000759161 -0.0175528 0)
(0.00126077 -0.0161956 0)
(0.000969255 -0.0164998 0)
(0.000979646 -0.0130242 0)
(-0.00193613 -0.0129836 0)
(-0.00237022 -0.0174265 0)
(-0.00283524 -0.0159093 0)
(-0.0029026 -0.0158646 0)
(-0.00101542 -0.0187101 0)
(-1.9019e-05 -0.0185476 0)
(0.00261833 -0.0181633 0)
(0.00165603 -0.0205218 0)
(0.00146298 -0.0193965 0)
(0.000672634 -0.0174728 0)
(7.60435e-05 -0.0162361 0)
(-0.00209784 -0.014682 0)
(-0.000312773 -0.0123046 0)
(0.00159202 -0.0131185 0)
(-0.0017141 -0.0139222 0)
(-1.12099e-05 -0.0145053 0)
(-0.00181779 -0.0152646 0)
(-0.00151017 -0.0170684 0)
(-0.00136592 -0.0196558 0)
(-0.000221468 -0.0210198 0)
(-0.000405651 -0.0213167 0)
(-0.0020609 -0.0223523 0)
(-0.00208299 -0.0210061 0)
(-0.0033413 -0.0177159 0)
(0.000179459 -0.0204164 0)
(-0.000595508 -0.0235492 0)
(-0.00136166 -0.0244265 0)
(-0.0011297 -0.0213259 0)
(0.000478845 -0.0202065 0)
(-0.00137179 -0.0225096 0)
(-0.00261545 -0.0227582 0)
(-0.00264922 -0.0204999 0)
(-0.00248228 -0.0151055 0)
(0.00165039 -0.0171165 0)
(0.0061791 -0.0224302 0)
(0.00281995 -0.0228639 0)
(0.00116743 -0.0231613 0)
(0.00135526 -0.0255167 0)
(0.00179925 -0.0213408 0)
(0.00114463 -0.0207773 0)
(2.10213e-05 -0.0216022 0)
(0.00116711 -0.0180135 0)
(0.00200838 -0.017407 0)
(-0.00130817 -0.0168958 0)
(-0.00190613 -0.0175962 0)
(-0.00143187 -0.0179579 0)
(-0.000922561 -0.0160899 0)
(-0.0021138 -0.0157895 0)
(0.000732703 -0.0195859 0)
(0.000167577 -0.0170847 0)
(0.000474044 -0.017674 0)
(0.00167404 -0.0199514 0)
(0.00246291 -0.0179797 0)
(0.00171442 -0.0162878 0)
(0.00326934 -0.015882 0)
(0.00197776 -0.0176981 0)
(0.00148679 -0.0162374 0)
(0.00129407 -0.0161754 0)
(0.00093595 -0.0179916 0)
(0.000858382 -0.0180099 0)
(-1.56096e-05 -0.016196 0)
(0.00233646 -0.0156284 0)
(-0.00071408 -0.0167853 0)
(0.000331211 -0.0177475 0)
(-3.50759e-06 -0.0171208 0)
(0.000258585 -0.0454691 0)
(-0.00728535 0.000642228 0)
(-0.00340653 -0.0223155 0)
(-0.00183941 -0.0101198 0)
(-0.000158674 -0.0220169 0)
(-0.00211716 -0.0161968 0)
(0.000211808 -0.0157593 0)
(0.00120544 -0.00992949 0)
(0.00140039 -0.0113429 0)
(0.000868685 -0.0134208 0)
(-0.00341058 -0.013256 0)
(-0.00312654 -0.0147641 0)
(-0.00185108 -0.0161755 0)
(-0.000784969 -0.017023 0)
(-0.000142804 -0.0184801 0)
(0.00108805 -0.0163686 0)
(0.00236406 -0.0147311 0)
(0.00173178 -0.0170688 0)
(0.000955656 -0.0163451 0)
(0.000428237 -0.0148816 0)
(-0.000503119 -0.0151961 0)
(0.000511518 -0.0137509 0)
(-0.00087584 -0.0124021 0)
(-0.000794806 -0.016176 0)
(2.65462e-05 -0.0173177 0)
(0.000534031 -0.0182339 0)
(-0.000466341 -0.0195972 0)
(-0.0025178 -0.0197259 0)
(-0.000663441 -0.0200349 0)
(-0.0015442 -0.0207354 0)
(-0.0015555 -0.0213405 0)
(-0.000357053 -0.0215066 0)
(0.00075199 -0.0223026 0)
(-0.000543515 -0.0196792 0)
(-0.000546542 -0.020613 0)
(-0.000931029 -0.0246118 0)
(-0.00161903 -0.0248189 0)
(5.34952e-05 -0.0232757 0)
(-0.00188673 -0.0227984 0)
(-0.000214742 -0.0245119 0)
(-8.02018e-05 -0.0253093 0)
(0.00115522 -0.027448 0)
(0.000778208 -0.0208112 0)
(-0.000948209 -0.0208339 0)
(0.00123836 -0.0280439 0)
(0.00153456 -0.0246079 0)
(0.000125464 -0.0241762 0)
(-3.77097e-05 -0.0246813 0)
(0.00151221 -0.0210033 0)
(-0.00133934 -0.0211979 0)
(0.00013614 -0.0191261 0)
(-0.000547077 -0.0147198 0)
(1.52964e-05 -0.0169207 0)
(-0.0016138 -0.0177843 0)
(-0.00346556 -0.015308 0)
(-0.000378308 -0.015112 0)
(0.000585162 -0.016984 0)
(-0.000320363 -0.0146109 0)
(-0.00070022 -0.016351 0)
(0.00182622 -0.0192299 0)
(-0.00115311 -0.0195445 0)
(0.00195748 -0.018873 0)
(0.00238333 -0.0172222 0)
(0.00364076 -0.0177358 0)
(0.00189883 -0.0180373 0)
(0.00104454 -0.0197048 0)
(0.000815615 -0.0178783 0)
(5.70762e-05 -0.0179107 0)
(-0.000438477 -0.0185185 0)
(0.000842753 -0.0176326 0)
(0.00151162 -0.0177258 0)
(0.00106412 -0.0177097 0)
(0.000566989 -0.0188515 0)
(0.00101694 -0.0194703 0)
(0.00167753 -0.0200977 0)
(-0.00315654 -0.0329828 0)
(-0.00563216 -0.00362069 0)
(-0.00160319 -0.0216395 0)
(-0.00209644 -0.0110014 0)
(0.000819101 -0.0210745 0)
(7.91085e-05 -0.0153034 0)
(0.000694629 -0.0129457 0)
(0.00106439 -0.0104265 0)
(-0.00308415 -0.012437 0)
(-0.000440449 -0.0141171 0)
(-0.00183182 -0.0151764 0)
(-0.00251839 -0.0160289 0)
(0.000135812 -0.0149629 0)
(-0.000789794 -0.0160368 0)
(-0.00283326 -0.0173147 0)
(-0.00165645 -0.0130519 0)
(0.000221514 -0.0118577 0)
(0.000642118 -0.0145275 0)
(0.000488458 -0.0145139 0)
(0.00119685 -0.0141345 0)
(0.002267 -0.0137239 0)
(0.0033546 -0.0136943 0)
(0.00147301 -0.0153624 0)
(-0.000905974 -0.0162853 0)
(-0.000802676 -0.0164024 0)
(-0.00202738 -0.0172825 0)
(-0.00135252 -0.018942 0)
(-0.00118116 -0.0171536 0)
(-0.00057633 -0.0174962 0)
(0.000157625 -0.0202608 0)
(-0.00116027 -0.0200913 0)
(0.00105462 -0.0205198 0)
(-1.76916e-05 -0.0203865 0)
(0.00135522 -0.0179721 0)
(-0.00144262 -0.018337 0)
(0.000289707 -0.0212573 0)
(7.80662e-05 -0.0225962 0)
(-0.000801897 -0.023153 0)
(-0.0015243 -0.0229256 0)
(0.000541202 -0.0247355 0)
(0.00144269 -0.0267062 0)
(0.00279794 -0.0263627 0)
(0.00284532 -0.0236119 0)
(-0.00111819 -0.019603 0)
(-0.000144871 -0.0208798 0)
(0.00152797 -0.0242874 0)
(-0.00238166 -0.022928 0)
(-0.00177178 -0.0216934 0)
(0.0015747 -0.020005 0)
(0.000253574 -0.0183585 0)
(0.000245083 -0.0151334 0)
(-0.00349921 -0.0128559 0)
(-0.00259149 -0.0149878 0)
(-0.00194939 -0.0183404 0)
(-0.00224559 -0.0143562 0)
(-0.00309462 -0.0123195 0)
(-0.00014198 -0.014956 0)
(0.00357011 -0.0157174 0)
(-0.000405713 -0.0156077 0)
(0.00153689 -0.0170887 0)
(0.00126367 -0.0189523 0)
(0.00204653 -0.0193965 0)
(0.00111398 -0.0209985 0)
(0.00175366 -0.0210753 0)
(0.00172058 -0.019726 0)
(0.00135554 -0.018938 0)
(0.00236025 -0.0186019 0)
(0.000667978 -0.0184529 0)
(0.000281905 -0.0192478 0)
(-0.00039663 -0.0185802 0)
(0.00311127 -0.0186118 0)
(0.000415909 -0.0185422 0)
(0.00137613 -0.0175244 0)
(0.00163564 -0.0182019 0)
(0.00274137 -0.0196804 0)
(0.00229948 -0.0559941 0)
(-0.00557955 0.00232089 0)
(-0.00588749 -0.0250922 0)
(-0.00228679 -0.0134362 0)
(-0.000425929 -0.0225123 0)
(0.00331832 -0.0174278 0)
(0.000902306 -0.0154987 0)
(-0.000311613 -0.0144293 0)
(-0.00268643 -0.0142144 0)
(-0.00168737 -0.0166094 0)
(-0.00188756 -0.0202176 0)
(-0.00045642 -0.0164004 0)
(-0.000653166 -0.0168898 0)
(-0.00209474 -0.0199493 0)
(-0.00285814 -0.0193372 0)
(-0.000979518 -0.0151241 0)
(-0.00151959 -0.0149641 0)
(-0.000272874 -0.0196039 0)
(0.00161826 -0.0188818 0)
(0.00256338 -0.0176311 0)
(0.00213875 -0.0176523 0)
(0.00169912 -0.0179307 0)
(0.000337867 -0.0175445 0)
(-0.000443951 -0.0170937 0)
(-0.000906134 -0.0177759 0)
(-0.0018416 -0.0188553 0)
(-0.000588908 -0.0194127 0)
(0.000956807 -0.0179791 0)
(-0.00116412 -0.0169146 0)
(-4.36528e-05 -0.0175847 0)
(0.00120172 -0.0173585 0)
(-0.000631483 -0.0187302 0)
(0.000351635 -0.0212889 0)
(-0.000223334 -0.0201634 0)
(-0.0018208 -0.0203714 0)
(-0.000639696 -0.0216902 0)
(6.84189e-05 -0.0226198 0)
(0.000485896 -0.0209776 0)
(-0.000737315 -0.0200535 0)
(0.00218607 -0.0205948 0)
(0.00171877 -0.021924 0)
(0.00145762 -0.0236179 0)
(0.00100113 -0.019473 0)
(-0.000729475 -0.0157629 0)
(-0.000961342 -0.0160735 0)
(-0.000852925 -0.017157 0)
(-0.000753516 -0.0186514 0)
(-0.00190181 -0.0130934 0)
(-0.00197713 -0.0114355 0)
(-0.00239189 -0.0137991 0)
(0.000446698 -0.0134584 0)
(-0.001225 -0.0113425 0)
(-0.00382837 -0.0139439 0)
(-0.00180043 -0.0185165 0)
(-0.000330171 -0.0179017 0)
(-0.00379667 -0.0134432 0)
(-8.58006e-05 -0.00978531 0)
(0.00241387 -0.0139888 0)
(0.0013821 -0.0158746 0)
(0.000364564 -0.0149552 0)
(0.00186631 -0.0166362 0)
(0.00271539 -0.0167741 0)
(0.00260485 -0.0172601 0)
(0.00173362 -0.0166582 0)
(2.07188e-06 -0.0177605 0)
(0.000231841 -0.0177309 0)
(-0.000752014 -0.018471 0)
(0.00035755 -0.0185641 0)
(0.000968981 -0.0187191 0)
(0.000190276 -0.0151327 0)
(0.00264012 -0.0177009 0)
(0.00217415 -0.0196722 0)
(0.00216064 -0.0171195 0)
(0.00133488 -0.01723 0)
(0.00127619 -0.0208305 0)
(-0.0018886 -0.0469843 0)
(-0.00209371 -0.0035 0)
(-0.00359217 -0.0236416 0)
(-0.0024055 -0.0132853 0)
(-0.000799897 -0.0197894 0)
(0.00194736 -0.0166303 0)
(0.00154769 -0.0188665 0)
(-0.000703134 -0.0179735 0)
(-0.000598279 -0.0187273 0)
(-0.00350773 -0.0174807 0)
(-0.000670399 -0.016888 0)
(0.00201062 -0.0181189 0)
(-0.00189566 -0.0209754 0)
(-0.00163621 -0.0217059 0)
(-0.00131526 -0.0218542 0)
(2.82191e-06 -0.0201255 0)
(-0.00284674 -0.0215869 0)
(-0.00289056 -0.0216833 0)
(0.00236358 -0.0202374 0)
(0.00253255 -0.0200241 0)
(0.00211876 -0.0196423 0)
(0.00147116 -0.0201092 0)
(-0.000466132 -0.0200016 0)
(0.00182711 -0.019792 0)
(-7.85368e-05 -0.0209258 0)
(-0.00132813 -0.0212742 0)
(-0.000400449 -0.0201038 0)
(-8.86353e-05 -0.0190337 0)
(0.000163826 -0.0182666 0)
(-0.000156817 -0.0172481 0)
(0.00199587 -0.0169005 0)
(0.000103247 -0.0181022 0)
(0.00038707 -0.0171867 0)
(-0.000398285 -0.0183595 0)
(-0.00136186 -0.0194725 0)
(-0.00100045 -0.0205777 0)
(0.000175 -0.0209754 0)
(0.00120274 -0.0210708 0)
(0.00130239 -0.017173 0)
(0.0006403 -0.0164306 0)
(0.00103585 -0.0201154 0)
(0.00188171 -0.0197264 0)
(0.00202911 -0.0183662 0)
(-0.00180962 -0.0138953 0)
(-0.0013075 -0.0142088 0)