/*--------------------------------*- C++ -*----------------------------------*\
  =========                 |
  \\      /  F ield         | OpenFOAM: The Open Source CFD Toolbox
   \\    /   O peration     | Website:  https://openfoam.org
    \\  /    A nd           | Version:  12
     \\/     M anipulation  |
\*---------------------------------------------------------------------------*/
FoamFile
{
    format      ascii;
    class       volVectorField;
    location    "0.35";
    object      U.water;
}
// * * * * * * * * * * * * * * * * * * * * * * * * * * * * * * * * * * * * * //

dimensions      [0 1 -1 0 0 0 0];

internalField   nonuniform List<vector> 
3750
(
(0.00173982 -0.0488095 0)
(-0.00725997 -0.00674969 0)
(-0.00676954 -0.0170261 0)
(-0.00699331 0.0050864 0)
(0.000748709 -0.00235995 0)
(-9.8426e-06 0.00607797 0)
(0.000737347 0.00221604 0)
(-5.8553e-05 0.00384894 0)
(0.000482893 0.00274764 0)
(-0.00141086 0.00549941 0)
(-0.000175642 0.00603424 0)
(0.000562482 0.00841355 0)
(0.000177793 0.00982393 0)
(0.000771695 0.0098515 0)
(0.0007955 0.00880927 0)
(5.6168e-05 0.00778758 0)
(-0.000372869 0.0086702 0)
(-0.000689012 0.00988128 0)
(-0.000439669 0.0101825 0)
(-0.00183193 0.0111862 0)
(-0.00131425 0.0110864 0)
(0.000420138 0.00997202 0)
(0.000931648 0.0108667 0)
(0.000748843 0.00961889 0)
(0.0014902 0.00926296 0)
(-0.000316571 0.010177 0)
(0.000140593 0.01069 0)
(-0.000377071 0.00945591 0)
(-0.00159365 0.0112309 0)
(-0.000535847 0.0116864 0)
(-0.000298438 0.0113305 0)
(-0.000428493 0.0116324 0)
(0.00067529 0.010714 0)
(7.53048e-05 0.0114649 0)
(0.000245363 0.0110836 0)
(-0.000653635 0.0116853 0)
(9.35175e-05 0.0130252 0)
(-0.000216234 0.0130235 0)
(2.72637e-05 0.0125416 0)
(-0.000284821 0.0130369 0)
(-0.000189828 0.0128159 0)
(-0.000955548 0.0136455 0)
(0.000336005 0.0155394 0)
(-4.46337e-05 0.0163346 0)
(0.000454729 0.0186719 0)
(1.88169e-05 0.0208891 0)
(0.00157154 0.018986 0)
(0.00176897 0.0149528 0)
(0.000566158 0.00883395 0)
(-0.000784504 0.0062256 0)
(0.000402932 0.0115613 0)
(-0.00250242 0.0109322 0)
(-0.00099086 0.00804009 0)
(-0.000291917 0.00860072 0)
(0.000532501 0.00854247 0)
(0.000852789 0.00953186 0)
(0.000450451 0.0107507 0)
(0.00149325 0.0116107 0)
(0.000254127 0.0116971 0)
(0.000382005 0.0112812 0)
(0.000234645 0.0119287 0)
(5.94833e-05 0.0109843 0)
(0.000369024 0.0108626 0)
(-6.06252e-05 0.0104122 0)
(-6.53464e-05 0.00918627 0)
(0.000897253 0.00633611 0)
(0.000934733 0.00531042 0)
(0.000815454 0.0051319 0)
(-0.000673722 0.0036607 0)
(-0.00090366 0.00532969 0)
(-0.00218665 0.00676877 0)
(0.00105051 0.00672802 0)
(-0.000103805 0.00765209 0)
(0.00015759 0.00752041 0)
(0.000543983 0.0077385 0)
(0.0029465 -0.0454235 0)
(-0.00960986 -0.00246109 0)
(-0.0101749 -0.0223799 0)
(-0.00784835 -0.00873976 0)
(-0.0020422 -0.014894 0)
(-0.00190361 -0.0083321 0)
(0.000131988 -0.00867743 0)
(-0.001634 -0.00502292 0)
(-0.000584807 -0.00749046 0)
(-0.00321354 -0.00544778 0)
(-0.00123978 -0.00390862 0)
(-0.00254914 -0.00395524 0)
(-0.00274633 -0.00233073 0)
(0.00201816 3.01484e-05 0)
(0.00179791 -0.00161839 0)
(-0.000593517 -0.0013328 0)
(-0.0015944 0.000423017 0)
(-0.000943846 0.00168838 0)
(0.000319267 -6.02069e-05 0)
(0.00170818 -0.00255032 0)
(-3.30689e-07 -0.00333169 0)
(0.00227302 -0.00548238 0)
(0.00083542 -0.00545712 0)
(-1.2637e-05 -0.00375112 0)
(-0.000185209 -0.00236333 0)
(-0.00133552 -0.000389246 0)
(-0.00225233 0.00106691 0)
(0.000206677 -0.00344122 0)
(-0.000666619 -0.00252386 0)
(0.00124605 -0.00336646 0)
(0.00136841 -0.00580029 0)
(0.0012537 -0.00564076 0)
(0.000823014 -0.00512985 0)
(-0.00101353 -0.00317814 0)
(-0.00066413 -0.00330996 0)
(-0.000319508 -0.00256877 0)
(-0.0012776 -0.00205535 0)
(0.000374937 -0.0044386 0)
(-0.000431259 -0.0032416 0)
(0.000268686 -0.00273378 0)
(0.000171669 -0.00233232 0)
(-0.00253297 -0.000551434 0)
(-0.00223489 0.00224534 0)
(-0.00361513 0.00433034 0)
(-0.00418469 0.00951202 0)
(-0.000898768 0.012958 0)
(0.00565645 0.0138594 0)
(0.00823979 0.00978935 0)
(0.00598755 0.00658348 0)
(0.00446726 0.00642079 0)
(0.00141447 0.0044951 0)
(-0.00211241 -0.00304669 0)
(-0.000111144 -0.00547392 0)
(-0.00058847 -0.00612556 0)
(-0.000926953 -0.00527501 0)
(-0.000191573 -0.0036344 0)
(-0.00214964 0.000144935 0)
(-0.00183612 0.00277334 0)
(-0.00118322 0.00225009 0)
(-0.000260621 0.00232326 0)
(-0.000856294 0.00362013 0)
(-0.00095362 0.00353314 0)
(0.000444516 0.00203736 0)
(0.00342552 -0.00105125 0)
(0.00228275 -0.00219601 0)
(0.00327576 -0.00494561 0)
(0.00174653 -0.00612078 0)
(-1.08467e-05 -0.00592329 0)
(-0.000846678 -0.0068547 0)
(-0.000899734 -0.00574791 0)
(-0.00055677 -0.00309985 0)
(-0.00041356 -0.00510764 0)
(-0.00120599 -0.00905816 0)
(0.00134922 -0.00845851 0)
(0.00165412 -0.00711701 0)
(-0.00126441 -0.0362129 0)
(-0.0117979 -0.00379665 0)
(-0.00843156 -0.0247617 0)
(-0.00747661 -0.0122609 0)
(-0.00690348 -0.0182269 0)
(-0.00140731 -0.0118398 0)
(5.23381e-05 -0.013922 0)
(-0.00020124 -0.0116389 0)
(-0.00057292 -0.0127565 0)
(-0.00204827 -0.00914886 0)
(-0.00310594 -0.0101928 0)
(-0.00336443 -0.0129816 0)
(-0.0035521 -0.00810952 0)
(-0.000191123 -0.00897793 0)
(-0.000330658 -0.0155409 0)
(-0.000255669 -0.017626 0)
(-0.000594914 -0.0155735 0)
(-0.000266182 -0.0134805 0)
(0.00118372 -0.0138192 0)
(0.0024154 -0.0176911 0)
(0.000310728 -0.0177923 0)
(-0.00173132 -0.0163251 0)
(0.000185707 -0.0182696 0)
(-0.000956131 -0.0188335 0)
(-0.00221801 -0.0199798 0)
(-0.000538022 -0.0208829 0)
(3.71765e-05 -0.0184435 0)
(0.00159945 -0.0203494 0)
(0.00171301 -0.0208209 0)
(0.000651558 -0.0209208 0)
(3.73421e-05 -0.022654 0)
(-0.000122502 -0.0200558 0)
(-0.00199577 -0.0192196 0)
(-0.0011045 -0.0184619 0)
(-0.00113816 -0.0174168 0)
(0.000650902 -0.0171554 0)
(0.000238274 -0.0156185 0)
(0.000702917 -0.0149859 0)
(-0.000720753 -0.0145862 0)
(-0.00198401 -0.0142319 0)
(-0.00132451 -0.0137314 0)
(-0.00309431 -0.00788977 0)
(-0.00789874 -0.00502987 0)
(-0.00541819 -0.00874094 0)
(-0.00589238 -0.00708956 0)
(-0.00305648 -0.00222261 0)
(0.00319124 -1.83402e-05 0)
(0.00782415 -0.000704316 0)
(0.00853222 0.000486043 0)
(0.00768116 -0.000900661 0)
(0.00313761 -0.00438391 0)
(0.00264781 -0.0084312 0)
(0.000858153 -0.0115957 0)
(-0.000878018 -0.0125231 0)
(-0.00267007 -0.0099036 0)
(-0.000180379 -0.00987926 0)
(-0.00105114 -0.0112061 0)
(-0.00449102 -0.0095945 0)
(-0.00328344 -0.0104025 0)
(-0.000149596 -0.0124606 0)
(-0.000242942 -0.0129326 0)
(0.00230562 -0.0130185 0)
(0.00518308 -0.00802675 0)
(0.00578065 -0.00855056 0)
(0.00387515 -0.00925836 0)
(0.0012449 -0.0101864 0)
(0.000550665 -0.0130418 0)
(-0.000264691 -0.0131697 0)
(0.000993222 -0.0145911 0)
(0.000757221 -0.0134306 0)
(0.000626609 -0.0127829 0)
(-0.00211896 -0.013481 0)
(-0.00182231 -0.0134819 0)
(2.63175e-06 -0.0135872 0)
(0.000151073 -0.0135759 0)
(-0.000458713 -0.0426423 0)
(-0.0111838 -0.00527977 0)
(-0.00501679 -0.0221842 0)
(-0.00584755 -0.013585 0)
(-0.00565572 -0.018076 0)
(-0.00448522 -0.0131545 0)
(-0.00262795 -0.0170378 0)
(-0.000322957 -0.0136621 0)
(-0.000549682 -0.0138424 0)
(-0.000849972 -0.0118502 0)
(-0.0053507 -0.0106754 0)
(-0.00225402 -0.0122089 0)
(0.000796177 -0.00904741 0)
(0.00203744 -0.00936517 0)
(0.00358848 -0.0154614 0)
(0.0025882 -0.0181497 0)
(0.000502296 -0.0180332 0)
(-0.000266533 -0.0162439 0)
(0.00150751 -0.0173687 0)
(-0.000348566 -0.0205093 0)
(0.00182525 -0.0226663 0)
(-0.000497958 -0.0198889 0)
(-0.000799179 -0.0201687 0)
(0.00148141 -0.024883 0)
(0.00120089 -0.0251212 0)
(0.00136922 -0.0248361 0)
(0.00231299 -0.0230365 0)
(-0.000796714 -0.023918 0)
(0.00228513 -0.022893 0)
(-0.00278581 -0.0209613 0)
(-0.00147462 -0.020268 0)
(-0.00233058 -0.0208698 0)
(-0.00196177 -0.0208334 0)
(-0.000836791 -0.021916 0)
(-0.0030089 -0.0234025 0)
(-0.00255842 -0.0214428 0)
(-0.000671928 -0.0186136 0)
(-0.000938227 -0.0168738 0)
(-0.00142314 -0.0153075 0)
(-0.0028581 -0.0145824 0)
(-0.00194066 -0.013554 0)
(-0.00411595 -0.0124447 0)
(-0.00815467 -0.00963959 0)
(-0.00840494 -0.011992 0)
(-0.00681585 -0.0159006 0)
(-0.00471539 -0.0158053 0)
(-0.000834091 -0.0146785 0)
(0.00508248 -0.0145146 0)
(0.00759126 -0.0129022 0)
(0.0109414 -0.0127836 0)
(0.00723433 -0.011143 0)
(0.00231498 -0.0108154 0)
(0.00174407 -0.0136499 0)
(0.000268609 -0.0151599 0)
(0.000802829 -0.0123477 0)
(-0.000364972 -0.0137824 0)
(-0.000508709 -0.0187341 0)
(-0.00158372 -0.0161533 0)
(-0.00240916 -0.0137765 0)
(-0.00119741 -0.020008 0)
(-0.000108545 -0.0234393 0)
(0.000973262 -0.0174558 0)
(0.00308109 -0.0123973 0)
(0.000745275 -0.00992465 0)
(0.0026798 -0.0111355 0)
(0.000978717 -0.0149636 0)
(0.000214334 -0.0163896 0)
(0.00071756 -0.0157324 0)
(0.00169257 -0.0158818 0)
(0.000368733 -0.0163185 0)
(-0.000593139 -0.015365 0)
(-0.00205677 -0.0161762 0)
(-0.00121051 -0.0159802 0)
(0.000418478 -0.0161442 0)
(0.00163123 -0.0181218 0)
(-0.00124963 -0.0417225 0)
(-0.00862058 -0.00688219 0)
(-0.0055659 -0.0192975 0)
(-0.00645177 -0.0133064 0)
(-0.00536017 -0.020688 0)
(-0.00726969 -0.0179091 0)
(-0.00572628 -0.0183186 0)
(-0.00317047 -0.0154165 0)
(-0.00190151 -0.0156955 0)
(-0.00151884 -0.0129316 0)
(-0.00211926 -0.010457 0)
(-0.00240526 -0.0106802 0)
(0.00158165 -0.00883041 0)
(0.000606667 -0.00774468 0)
(0.00544185 -0.00893292 0)
(0.0056372 -0.0105427 0)
(0.00279963 -0.01191 0)
(0.00137548 -0.0129107 0)
(0.000260045 -0.0168454 0)
(0.00191569 -0.0202073 0)
(0.00322253 -0.0193828 0)
(0.00190025 -0.0197075 0)
(-0.000949554 -0.0180666 0)
(-0.00116061 -0.0187097 0)
(-0.000959339 -0.0202745 0)
(-0.00122372 -0.0175014 0)
(-6.16469e-05 -0.0169108 0)
(-0.00058004 -0.0145847 0)
(0.00296799 -0.0152339 0)
(0.000816397 -0.0152392 0)
(0.000356402 -0.0126931 0)
(-0.00161174 -0.0152216 0)
(-0.00277616 -0.0154568 0)
(-0.00187567 -0.0198926 0)
(-0.00196974 -0.0231889 0)
(-0.00283621 -0.0207825 0)
(-0.00488771 -0.0175482 0)
(-0.00294961 -0.017609 0)
(-0.00289716 -0.0151814 0)
(-0.00261968 -0.0138306 0)
(-0.00314214 -0.0138344 0)
(-0.00413899 -0.013605 0)
(-0.00466469 -0.0142191 0)
(-0.00752785 -0.0168357 0)
(-0.00495819 -0.0202015 0)
(-0.00206555 -0.0228824 0)
(0.00193305 -0.0242103 0)
(0.00620613 -0.0242981 0)
(0.00719589 -0.0195792 0)
(0.00791061 -0.0167528 0)
(0.00857015 -0.0171057 0)
(0.00170483 -0.0134848 0)
(0.000144442 -0.0145763 0)
(-0.00067211 -0.0180105 0)
(0.000345914 -0.0164969 0)
(-0.00144266 -0.0167819 0)
(-0.000533824 -0.0175073 0)
(0.000985582 -0.0171801 0)
(-0.000210952 -0.0164722 0)
(-0.000256466 -0.018604 0)
(0.00182406 -0.0203253 0)
(0.00288046 -0.0172181 0)
(0.00301087 -0.0137037 0)
(0.000963614 -0.0133372 0)
(0.000883125 -0.0149669 0)
(0.000490791 -0.0209012 0)
(9.00492e-06 -0.0239099 0)
(-0.000119736 -0.0212999 0)
(0.00142671 -0.0206196 0)
(0.00121725 -0.0196317 0)
(-0.000516693 -0.0195752 0)
(-0.00202892 -0.0205135 0)
(-0.00214399 -0.019953 0)
(-0.00102248 -0.0213685 0)
(0.000318854 -0.0229806 0)
(-0.00105933 -0.0410466 0)
(-0.00507642 -0.00292721 0)
(-0.00730637 -0.020339 0)
(-0.00610271 -0.0110007 0)
(-0.00433265 -0.0173216 0)
(-0.00293105 -0.013143 0)
(-0.00479001 -0.014764 0)
(-0.00460179 -0.0134482 0)
(-0.00473359 -0.014998 0)
(-0.00622747 -0.013426 0)
(-0.00221595 -0.0131317 0)
(-0.00327196 -0.0141702 0)
(-0.00105177 -0.0153724 0)
(0.000180482 -0.0124495 0)
(0.0033485 -0.010969 0)
(0.00738465 -0.0126741 0)
(0.00691859 -0.0104319 0)
(0.00389036 -0.0118812 0)
(0.000621111 -0.01479 0)
(0.00228356 -0.0150961 0)
(0.00274732 -0.0164962 0)
(0.00249797 -0.016092 0)
(0.00174487 -0.01519 0)
(-0.00137326 -0.0168678 0)
(-0.00255815 -0.0182405 0)
(-0.00358884 -0.0174683 0)
(-0.000306071 -0.0167379 0)
(0.000989413 -0.0132257 0)
(0.0016286 -0.0113082 0)
(0.00364053 -0.011972 0)
(0.00180057 -0.0098013 0)
(0.000500502 -0.0122921 0)
(-0.00106841 -0.0141107 0)
(-0.00260745 -0.0167142 0)
(-0.00224165 -0.0176295 0)
(-0.00436902 -0.0163655 0)
(-0.00713859 -0.0143611 0)
(-0.00596295 -0.0134575 0)
(-0.00390003 -0.0153188 0)
(-0.00357497 -0.0147694 0)
(-0.00214339 -0.0161606 0)
(-0.00277342 -0.0175209 0)
(-0.00218075 -0.0207598 0)
(-0.00202459 -0.0226685 0)
(-0.0024387 -0.0235071 0)
(-0.00246257 -0.0243909 0)
(0.00147583 -0.0261063 0)
(0.00511376 -0.0244163 0)
(0.00697565 -0.0211103 0)
(0.00705743 -0.0153717 0)
(0.00377904 -0.0147639 0)
(0.00412343 -0.0174038 0)
(0.000592054 -0.0183794 0)
(0.000366487 -0.021069 0)
(0.000172695 -0.0211742 0)
(-0.000354599 -0.0216393 0)
(-8.44087e-05 -0.0228813 0)
(0.000265896 -0.0228734 0)
(-0.00140739 -0.0219972 0)
(-0.000154471 -0.021965 0)
(0.00156234 -0.0234162 0)
(0.00527319 -0.021074 0)
(0.00333784 -0.0194736 0)
(0.00248839 -0.0158518 0)
(-0.000648571 -0.0158567 0)
(-0.00200477 -0.0207037 0)
(-0.000743483 -0.022275 0)
(-0.00059086 -0.0204015 0)
(-0.000538044 -0.019745 0)
(0.000676509 -0.0204035 0)
(-0.000320777 -0.0199604 0)
(-7.80003e-05 -0.0214336 0)
(-0.000900515 -0.0222823 0)
(-0.000161354 -0.0235317 0)
(0.000940847 -0.0235086 0)
(-0.00119094 -0.0486593 0)
(-0.00891306 -0.00259256 0)
(-0.00699473 -0.0205118 0)
(-0.00666423 -0.00871707 0)
(-0.00391416 -0.0138081 0)
(-0.00521504 -0.0129035 0)
(-0.00249969 -0.0161953 0)
(-0.00532731 -0.013658 0)
(-0.00305563 -0.0177757 0)
(-0.00204568 -0.0168191 0)
(-0.002037 -0.0188053 0)
(-0.00034265 -0.0219414 0)
(0.000763194 -0.0193106 0)
(0.00313524 -0.0170208 0)
(0.00207649 -0.0142852 0)
(0.00405511 -0.0127035 0)
(0.00475787 -0.0116107 0)
(0.00337902 -0.0121497 0)
(0.00476779 -0.0151495 0)
(0.001981 -0.0171118 0)
(0.00284348 -0.0171169 0)
(0.00283767 -0.0163165 0)
(0.00164287 -0.0151158 0)
(-0.000450949 -0.0148107 0)
(-0.0010825 -0.0171718 0)
(-0.00121274 -0.0145576 0)
(-0.00352682 -0.0145139 0)
(-0.00114225 -0.0147804 0)
(-0.00216148 -0.01206 0)
(0.000986066 -0.0119725 0)
(0.00187177 -0.0126329 0)
(0.00101617 -0.0139765 0)
(0.000979642 -0.0122192 0)
(-0.0020205 -0.00887698 0)
(-0.0034181 -0.00776753 0)
(-0.00517873 -0.00684842 0)
(-0.00676051 -0.00596753 0)
(-0.00671017 -0.00924618 0)
(-0.00040076 -0.0131456 0)
(-8.52533e-05 -0.0144935 0)
(-0.000213728 -0.0169775 0)
(-0.00140068 -0.0193302 0)
(-0.0014213 -0.0190166 0)
(-0.00235924 -0.0193457 0)
(-0.00256497 -0.0194579 0)
(-0.00255287 -0.0197284 0)
(0.000397556 -0.0201542 0)
(0.00410937 -0.0220858 0)
(0.00554891 -0.0158833 0)
(0.00768697 -0.013137 0)
(0.00379968 -0.0133384 0)
(0.00450138 -0.0153435 0)
(0.000753338 -0.0207841 0)
(0.000131278 -0.0217076 0)
(-0.000570222 -0.0206807 0)
(-0.00106172 -0.0197065 0)
(-0.000819326 -0.0178077 0)
(0.00226055 -0.0182377 0)
(0.000448232 -0.0186065 0)
(0.000588526 -0.019235 0)
(0.000929298 -0.0200674 0)
(0.00225719 -0.0193173 0)
(0.00244772 -0.0182222 0)
(0.00357378 -0.0178083 0)
(-0.00156927 -0.019181 0)
(-0.000966314 -0.0195882 0)
(-0.00195544 -0.0203187 0)
(-0.000869419 -0.0192737 0)
(-0.000775445 -0.018481 0)
(-0.000359604 -0.0183157 0)
(0.000809193 -0.0182261 0)
(0.000269674 -0.0193315 0)
(-0.000783305 -0.0199683 0)
(-0.000882071 -0.0205282 0)
(0.000342804 -0.0206996 0)
(-0.00259069 -0.0326323 0)
(-0.00739405 -0.00567973 0)
(-0.00787827 -0.0211943 0)
(-0.0063606 -0.012201 0)
(-0.00342495 -0.0182471 0)
(-0.00490969 -0.0184835 0)
(-0.00121984 -0.0261964 0)
(-0.00183172 -0.0288357 0)
(-0.00120083 -0.0300538 0)
(0.000898476 -0.0316524 0)
(-0.00313666 -0.0312973 0)
(-0.00404768 -0.0304511 0)
(-0.00405877 -0.0291503 0)
(-0.00337149 -0.0262679 0)
(0.00230269 -0.0228091 0)
(0.0028385 -0.0196593 0)
(0.00699114 -0.0167052 0)
(0.00472435 -0.0150597 0)
(0.0035698 -0.0176308 0)
(0.00217982 -0.0187874 0)
(0.00144348 -0.0174337 0)
(0.00109409 -0.0169116 0)
(0.00160744 -0.0169398 0)
(0.000709793 -0.0184697 0)
(0.000266972 -0.0186962 0)
(0.00115741 -0.0190618 0)
(-0.00213279 -0.0169543 0)
(-0.000828613 -0.0150811 0)
(-0.00160705 -0.014512 0)
(0.000982544 -0.0131472 0)
(0.000764887 -0.0151541 0)
(-0.000608677 -0.0162376 0)
(-0.00335611 -0.0132883 0)
(-0.00700714 -0.00779117 0)
(-0.00603277 -0.00645643 0)
(-0.00473952 -0.0107569 0)
(-0.00132741 -0.0145349 0)
(0.000339533 -0.0141833 0)
(0.00155972 -0.01802 0)
(0.000532835 -0.0224889 0)
(-0.00142207 -0.0209243 0)
(-0.00205042 -0.0189283 0)
(0.000563468 -0.0192906 0)
(-0.0023061 -0.0209244 0)
(-0.00344278 -0.0211277 0)
(-0.00174535 -0.0219225 0)
(-0.000399979 -0.021624 0)
(0.00484608 -0.0223662 0)
(0.00756807 -0.0172115 0)
(0.00529875 -0.0126017 0)
(0.00703759 -0.0121876 0)
(0.00366891 -0.0162733 0)
(0.000840171 -0.020878 0)
(0.000300666 -0.0207187 0)
(-0.000940307 -0.0204201 0)
(-0.00216188 -0.0201248 0)
(9.51441e-05 -0.016545 0)
(-0.000634124 -0.0165041 0)
(-1.15233e-05 -0.0166376 0)
(0.000115616 -0.0166717 0)
(0.00191012 -0.0191924 0)
(0.00224073 -0.018924 0)
(0.00321655 -0.0187149 0)
(0.00190742 -0.0194771 0)
(-4.68148e-05 -0.0188037 0)
(-0.00102505 -0.0202662 0)
(-0.00192249 -0.0209404 0)
(0.000848326 -0.0185101 0)
(0.000356124 -0.0184659 0)
(-0.000650837 -0.0194169 0)
(-0.000571031 -0.0186724 0)
(0.00161982 -0.0209574 0)
(-0.00129712 -0.0216139 0)
(-0.000165638 -0.0207883 0)
(0.00174696 -0.0198906 0)
(-0.00157383 -0.0498271 0)
(-0.00591462 -0.000678279 0)
(-0.00525368 -0.027741 0)
(-0.0038636 -0.0145268 0)
(-0.00304782 -0.0217357 0)
(-0.00239675 -0.0234733 0)
(-0.00162591 -0.0260236 0)
(0.000295387 -0.0281308 0)
(-0.00199916 -0.0283619 0)
(0.000416067 -0.0274005 0)
(-0.00326663 -0.0294478 0)
(-0.0034238 -0.0321188 0)
(-0.00301832 -0.0348022 0)
(-0.00320375 -0.0327578 0)
(-0.00192923 -0.0321489 0)
(0.00181964 -0.027463 0)
(0.00483273 -0.0227274 0)
(0.00394665 -0.022454 0)
(0.00182853 -0.0204049 0)
(0.00208986 -0.0197216 0)
(0.000280822 -0.0194015 0)
(0.00332574 -0.0194061 0)
(0.000805692 -0.0204399 0)
(0.00101127 -0.021731 0)
(-0.00103235 -0.0201212 0)
(-0.000516898 -0.0169154 0)
(-0.000363641 -0.0139775 0)
(-0.00257749 -0.0109736 0)
(-0.0054518 -0.00697369 0)
(-0.000338845 -0.00504471 0)
(-0.0019904 -0.00764229 0)
(-0.00157131 -0.00913994 0)
(-0.00354 -0.00959427 0)
(-0.00154928 -0.0101156 0)
(-0.00559678 -0.0128293 0)
(-0.00261678 -0.0161743 0)
(0.00321292 -0.0182143 0)
(0.00262654 -0.0189844 0)
(-0.00187141 -0.0200166 0)
(-0.0011637 -0.0214587 0)
(-0.00032193 -0.0218598 0)
(-0.00114611 -0.0162886 0)
(0.000113613 -0.0165875 0)
(-0.00134019 -0.0217073 0)
(-0.0019346 -0.0224358 0)
(-0.00178814 -0.0247104 0)
(-0.00120561 -0.0257423 0)
(0.00530599 -0.0259148 0)
(0.00815009 -0.0249112 0)
(0.00522786 -0.020713 0)
(0.00523106 -0.0180503 0)
(0.00257335 -0.019138 0)
(0.00106073 -0.0197608 0)
(-0.000164769 -0.0195246 0)
(-0.00128643 -0.0198492 0)
(-0.00244559 -0.0164878 0)
(0.00205362 -0.0150281 0)
(-0.000565616 -0.0167596 0)
(0.00149247 -0.0160958 0)
(-0.000334573 -0.0160646 0)
(4.9706e-05 -0.016698 0)
(0.00156005 -0.016825 0)
(0.00258315 -0.0172717 0)
(0.00158209 -0.0183484 0)
(0.000899776 -0.0185917 0)
(-0.000905133 -0.0192742 0)
(-0.000928157 -0.0171145 0)
(0.000392985 -0.0160997 0)
(-0.000161444 -0.0194114 0)
(-0.000222914 -0.0189885 0)
(0.00277742 -0.0158155 0)
(0.00146937 -0.0185081 0)
(0.000692106 -0.0200136 0)
(-0.000191554 -0.0167691 0)
(0.000302128 -0.0164146 0)
(-0.00130636 -0.0435163 0)
(-0.00521106 -0.00107439 0)
(-0.000652112 -0.0248642 0)
(-0.00228633 -0.0159669 0)
(-0.00399156 -0.0219949 0)
(-0.00358669 -0.0206995 0)
(-0.00299294 -0.0240225 0)
(-0.00121608 -0.0258907 0)
(-0.000970363 -0.0224916 0)
(-0.00066936 -0.0219214 0)
(-0.00148433 -0.0237185 0)
(-0.000725039 -0.0218566 0)
(0.00112946 -0.0241637 0)
(-0.000348423 -0.0260815 0)
(-0.00343199 -0.0262242 0)
(-0.000869172 -0.0246334 0)
(-0.000695071 -0.0235992 0)
(0.000689816 -0.0218939 0)
(0.00121317 -0.0209796 0)
(0.00187669 -0.0209939 0)
(0.00197347 -0.0175773 0)
(0.00254915 -0.0173477 0)
(0.00134349 -0.0202619 0)
(-0.000976218 -0.0187331 0)
(-0.00373639 -0.016901 0)
(-0.00368826 -0.0167636 0)
(-0.00406527 -0.0186531 0)
(-0.00370931 -0.0198577 0)
(-0.00297782 -0.0136736 0)
(-0.00226402 -0.0135753 0)
(-0.000696756 -0.0214068 0)
(0.000700687 -0.0217266 0)
(-8.61981e-05 -0.0180815 0)
(-0.000268178 -0.0189593 0)
(-0.00441466 -0.01864 0)
(-0.00251255 -0.014989 0)
(-0.000337977 -0.0174819 0)
(0.00211481 -0.0198846 0)
(-0.000574551 -0.0208022 0)
(-0.000574407 -0.0188359 0)
(-0.00152988 -0.0174299 0)
(0.0016214 -0.0138806 0)
(-0.00150016 -0.0140138 0)
(-0.00217712 -0.0192964 0)
(-0.00113458 -0.0218796 0)
(0.000991588 -0.0252463 0)
(0.00202987 -0.0236222 0)
(0.00385394 -0.0225332 0)
(0.00518366 -0.0247058 0)
(0.00286718 -0.0202729 0)
(0.003148 -0.0168705 0)
(0.00258121 -0.0182563 0)
(0.000800661 -0.0184107 0)
(-0.00088138 -0.0181922 0)
(-0.00180935 -0.0185965 0)
(-0.00251082 -0.0138779 0)
(-0.000886288 -0.0135899 0)
(-0.0010084 -0.0172325 0)
(-0.0012314 -0.0158393 0)
(0.000249806 -0.0159057 0)
(-0.000152455 -0.015092 0)
(0.00358267 -0.0125766 0)
(0.00302023 -0.0129809 0)
(0.000925194 -0.0143386 0)
(0.00245073 -0.0149552 0)
(0.000637906 -0.0151549 0)
(0.00161729 -0.0158746 0)
(-0.0013077 -0.0168679 0)
(-0.000280256 -0.0194116 0)
(0.00166693 -0.0155472 0)
(0.0028013 -0.0149401 0)
(-0.00171623 -0.0170405 0)
(0.00335988 -0.0158293 0)
(0.00054376 -0.0151232 0)
(-0.000364204 -0.0159508 0)
(0.000344609 -0.0396408 0)
(-0.00380206 -0.00580861 0)
(-0.00480186 -0.0234069 0)
(-0.00196616 -0.0113149 0)
(-0.00180324 -0.0170615 0)
(0.000136448 -0.0157236 0)
(-7.19533e-05 -0.0192766 0)
(0.000323442 -0.0213593 0)
(0.000840567 -0.0204261 0)
(-0.00398884 -0.018166 0)
(-0.00156897 -0.0144205 0)
(-0.00162407 -0.010517 0)
(-0.00110653 -0.0139185 0)
(-0.00238691 -0.0174815 0)
(-0.00120295 -0.0193656 0)
(-0.00183491 -0.0197419 0)
(-0.000506846 -0.0189069 0)
(0.00116318 -0.0192901 0)
(0.00164282 -0.0175544 0)
(0.00254226 -0.0164889 0)
(0.000644112 -0.0143035 0)
(-0.000577693 -0.0137523 0)
(-0.000144523 -0.0138762 0)
(-0.00128428 -0.0146841 0)
(-0.00113913 -0.0132329 0)
(-0.00242897 -0.0138356 0)
(-0.00144217 -0.0180718 0)
(-7.06301e-05 -0.0191146 0)
(0.00320854 -0.0174283 0)
(-0.00364352 -0.0170462 0)
(0.000378047 -0.0197131 0)
(-0.000934988 -0.0220333 0)
(-0.00172646 -0.0197413 0)
(-0.001734 -0.0193673 0)
(-0.00049866 -0.0193208 0)
(-0.00143283 -0.017239 0)
(-0.0019622 -0.0182663 0)
(-0.000961532 -0.0218248 0)
(-0.000599212 -0.0235341 0)
(-0.00200157 -0.022337 0)
(-0.00173692 -0.0187486 0)
(-0.000762658 -0.0167065 0)
(-0.000965009 -0.0219687 0)
(0.000337031 -0.0253141 0)
(0.00177917 -0.0257687 0)
(0.00344801 -0.0269208 0)
(0.00518817 -0.0240942 0)
(0.00214833 -0.0218261 0)
(0.00304643 -0.0232121 0)
(0.00134063 -0.0189129 0)
(0.00362244 -0.0144888 0)
(0.00143772 -0.0182993 0)
(-0.000760128 -0.0197473 0)
(-0.00191276 -0.0172802 0)
(-0.000382429 -0.018645 0)
(-0.000786557 -0.0142841 0)
(-0.00393282 -0.0146652 0)
(-0.00108489 -0.0201945 0)
(-0.00263206 -0.0188862 0)
(0.00136792 -0.0189924 0)
(0.000931095 -0.0171908 0)
(0.00135503 -0.0157948 0)
(0.00162368 -0.0181074 0)
(0.00102819 -0.0163948 0)
(0.00316224 -0.0159612 0)
(0.00176493 -0.0174203 0)
(0.00247101 -0.016483 0)
(0.00158402 -0.0163774 0)
(0.00044205 -0.0166651 0)
(0.00409538 -0.0159318 0)
(-0.000159176 -0.0165458 0)
(0.000761831 -0.0151687 0)
(0.000949504 -0.0151982 0)
(0.000291953 -0.0180328 0)
(-0.00115181 -0.0176414 0)
(-0.00231077 -0.0515921 0)
(-0.0051496 -0.00157249 0)
(-0.0036444 -0.0226933 0)
(-0.00344119 -0.0101355 0)
(-0.00131863 -0.0178617 0)
(-6.65599e-05 -0.0161502 0)
(0.000598546 -0.0183641 0)
(6.6472e-05 -0.0168742 0)
(0.000163525 -0.0177767 0)
(-0.00101789 -0.014428 0)
(0.000535336 -0.0111126 0)
(-0.00170607 -0.0104574 0)
(-0.00383391 -0.0153385 0)
(-0.00174191 -0.0191442 0)
(-5.68844e-05 -0.0198288 0)
(0.000706346 -0.019283 0)
(0.000738139 -0.0151807 0)
(0.000694743 -0.0136543 0)
(0.000423462 -0.0124986 0)
(-9.08922e-05 -0.0147637 0)
(-0.00163294 -0.0131168 0)
(-0.00216936 -0.012065 0)
(-0.000198038 -0.017336 0)
(-0.00129608 -0.0182063 0)
(-0.00044911 -0.0166275 0)
(-0.0010253 -0.017415 0)
(9.0679e-05 -0.0197316 0)
(-0.000562844 -0.0204278 0)
(-3.05674e-05 -0.0196712 0)
(-3.48015e-05 -0.0165693 0)
(-0.000154969 -0.018194 0)
(-0.000377084 -0.0233202 0)
(0.000762731 -0.0194166 0)
(-0.000775286 -0.0197854 0)
(3.67672e-05 -0.0215684 0)
(0.000332954 -0.0194291 0)
(-0.00219038 -0.0214099 0)
(-0.00339834 -0.0233943 0)
(-0.00187617 -0.0242806 0)
(-0.00209603 -0.0235188 0)
(0.00190127 -0.023674 0)
(-0.00163944 -0.0231174 0)
(-0.000655629 -0.026249 0)
(-0.000377335 -0.0307562 0)
(-0.000264823 -0.0295469 0)
(0.00151776 -0.0267761 0)
(0.00335949 -0.0248458 0)
(0.00267562 -0.0219151 0)
(0.00219792 -0.0217749 0)
(0.00388364 -0.0170059 0)
(0.0018478 -0.0152914 0)
(-0.00171301 -0.0195344 0)
(-0.00150431 -0.0179978 0)
(-0.00229299 -0.0149139 0)
(0.000856524 -0.0157812 0)
(0.00144099 -0.0163794 0)
(-0.00289764 -0.0145375 0)
(-0.00136737 -0.0174953 0)
(-0.00135363 -0.0174589 0)
(-0.000436854 -0.0167147 0)
(0.00149785 -0.0200438 0)
(0.000499775 -0.0177917 0)
(0.00123104 -0.0170232 0)
(0.00246094 -0.0174443 0)
(0.00161091 -0.0176229 0)
(0.000841666 -0.0190461 0)
(0.00148234 -0.0179049 0)
(0.00109845 -0.0188836 0)
(0.000739647 -0.0156671 0)
(0.00275255 -0.0146862 0)
(0.00126024 -0.0192259 0)
(0.00125285 -0.0180967 0)
(0.000799832 -0.0184167 0)
(-1.46879e-05 -0.0200898 0)
(-0.0006599 -0.0208054 0)
(-0.0092399 -0.0296808 0)
(-0.00173927 -0.00315149 0)
(-0.00260489 -0.0246175 0)
(-0.00386839 -0.0108162 0)
(5.9283e-05 -0.0156367 0)
(0.00127419 -0.0145373 0)
(0.000669856 -0.0176974 0)
(0.000433859 -0.0171087 0)
(0.000364643 -0.0172316 0)
(0.00120916 -0.0141394 0)
(0.000420318 -0.0135235 0)
(-0.000994212 -0.015038 0)
(-0.00336124 -0.0152932 0)
(-0.00172307 -0.0155751 0)
(-0.00233108 -0.0172247 0)
(0.000251957 -0.0158109 0)
(0.000543043 -0.0131736 0)
(0.000207816 -0.0122633 0)
(-0.000245501 -0.0122158 0)
(-0.00165745 -0.0139108 0)
(6.3562e-05 -0.0139578 0)
(-0.000975333 -0.0111446 0)
(0.00157295 -0.0153434 0)
(-0.000140744 -0.0191639 0)
(-0.00273153 -0.0166526 0)
(-0.00193862 -0.0154589 0)
(0.00111474 -0.0181513 0)
(0.000850768 -0.0189134 0)
(0.00075246 -0.0156703 0)
(0.000867163 -0.0158233 0)
(0.000320817 -0.0201051 0)
(-0.000313578 -0.0214868 0)
(0.000602617 -0.0193445 0)
(-0.00212941 -0.0190299 0)
(-0.000261963 -0.0157058 0)
(0.000191256 -0.0159778 0)
(-0.000633845 -0.0211195 0)
(-0.0019696 -0.0228951 0)
(-0.000541162 -0.0248144 0)
(1.5476e-05 -0.0229858 0)
(0.000337729 -0.0237622 0)
(0.00139378 -0.0260418 0)
(-0.00149902 -0.0265196 0)
(-0.000762218 -0.0281578 0)
(-0.00080132 -0.0249495 0)
(0.000437484 -0.023458 0)
(0.000766705 -0.020932 0)
(0.0019303 -0.0203644 0)
(0.00268826 -0.0193871 0)
(0.00481375 -0.0157205 0)
(-0.00118374 -0.0144277 0)
(-0.00231448 -0.0162955 0)
(-0.00138611 -0.0170927 0)
(-0.00112411 -0.0128271 0)
(-7.13731e-05 -0.0129287 0)
(0.000704196 -0.0164687 0)
(0.000121078 -0.0163286 0)
(-0.00207418 -0.0172832 0)
(0.000624563 -0.016063 0)
(-0.00100152 -0.0157498 0)
(0.00107434 -0.0178847 0)
(0.00122246 -0.019191 0)
(0.000133597 -0.0208153 0)
(-0.000247684 -0.0201001 0)
(0.00240014 -0.0186826 0)
(0.000329748 -0.0178711 0)
(0.00392261 -0.0175664 0)
(0.00215467 -0.0181012 0)
(0.00204889 -0.0171508 0)
(0.00257519 -0.0180553 0)
(0.00133248 -0.0206335 0)
(0.00143332 -0.0176518 0)
(0.000339 -0.0172636 0)
(-0.000546462 -0.0211711 0)
(-0.00124567 -0.0205648 0)
(0.000450387 -0.0491998 0)
(-0.0046148 0.00477631 0)
(-0.00635965 -0.0311826 0)
(-0.0014184 -0.0129894 0)
(-0.000653238 -0.0153543 0)
(0.000485015 -0.0165782 0)
(-0.000182408 -0.0200821 0)
(-3.46774e-05 -0.0178284 0)
(0.00134671 -0.0189371 0)
(0.00145365 -0.019011 0)
(-0.000303919 -0.0180221 0)
(-0.00113034 -0.0177554 0)
(-0.00160343 -0.0182716 0)
(-0.00203313 -0.0178555 0)
(-0.00286474 -0.0177376 0)
(-0.000465373 -0.0183624 0)
(-0.000221529 -0.0177137 0)
(0.000908441 -0.0172922 0)
(0.000665292 -0.0173769 0)
(0.00132471 -0.0190196 0)
(0.00133819 -0.0169749 0)
(0.00138562 -0.0136122 0)
(-0.00115817 -0.0172165 0)
(-0.00141677 -0.021273 0)
(-0.00162474 -0.0178769 0)
(-0.00241736 -0.0136006 0)
(0.00130111 -0.0174522 0)
(0.00225803 -0.0198188 0)
(0.00136084 -0.017811 0)
(-0.000302201 -0.0133934 0)
(0.000305984 -0.0164508 0)
(-0.00113248 -0.0215884 0)
(-0.000515844 -0.0205548 0)
(-0.00278722 -0.0194599 0)
(0.000652013 -0.0176223 0)
(-0.00156836 -0.0182427 0)
(-0.000244928 -0.0200378 0)
(-0.000209931 -0.0194078 0)
(0.00102602 -0.021157 0)
(0.00231794 -0.0216447 0)
(-0.00106944 -0.0210889 0)
(-0.000873364 -0.0223158 0)
(-0.0023667 -0.0224385 0)
(-0.0016671 -0.0224758 0)
(-0.00285693 -0.019079 0)
(-0.000282327 -0.0155946 0)
(-0.00028009 -0.014759 0)
(-0.000756855 -0.0124072 0)
(0.000278421 -0.0111582 0)
(0.00294647 -0.011932 0)
(-0.000151295 -0.0131908 0)
(-0.000240332 -0.0139675 0)
(-0.000438934 -0.0156795 0)
(0.000487799 -0.0149614 0)
(-0.00161204 -0.0152129 0)
(-0.000114161 -0.016634 0)
(-0.000335512 -0.0168472 0)
(-0.000675377 -0.0157046 0)
(0.00120879 -0.0138542 0)
(-0.000525474 -0.0137344 0)
(0.00157048 -0.0154675 0)
(0.00234856 -0.0166792 0)
(0.00222715 -0.0183139 0)
(0.00141256 -0.0147706 0)
(-0.000115216 -0.0163938 0)
(0.000120287 -0.016292 0)
(-0.000550513 -0.0158902 0)
(0.00111906 -0.0192888 0)
(0.00257806 -0.0144443 0)
(0.0034476 -0.0157947 0)
(0.00170163 -0.0210702 0)
(0.00211051 -0.0192835 0)
(-0.000324323 -0.0198133 0)
(-0.000795795 -0.0208964 0)
(-0.000346728 -0.0209109 0)
(-0.00169868 -0.0404873 0)
(-0.00383241 -0.00102982 0)
(-0.00532384 -0.0266115 0)
(0.00235583 -0.0127569 0)
(-0.000465431 -0.0179274 0)
(-0.00138334 -0.0165996 0)
(0.000300907 -0.0204543 0)
(0.000107802 -0.0198886 0)
(-0.0010025 -0.0206726 0)
(0.000887366 -0.0197895 0)
(0.000319798 -0.0191574 0)
(-0.00121336 -0.0196983 0)
(-0.00106337 -0.0205943 0)
(-0.000889609 -0.0204332 0)
(-0.00141481 -0.0213021 0)
(-0.00109317 -0.0214972 0)
(-0.00135891 -0.0221569 0)
(0.000964705 -0.0216015 0)
(-0.000288316 -0.0203047 0)
(0.00301884 -0.019468 0)
(0.00311358 -0.0189209 0)
(0.000878683 -0.0181238 0)
(-0.00171829 -0.0203143 0)
(-0.000324471 -0.0218367 0)
(0.00156709 -0.0209653 0)
(-0.000954319 -0.0168543 0)
(-0.00209276 -0.0170652 0)
(-0.000375964 -0.019999 0)
(0.00105504 -0.0178868 0)
(0.00228665 -0.0158865 0)
(-0.00112052 -0.017176 0)
(0.00062406 -0.0191328 0)
(0.000156953 -0.0181949 0)
(-0.00108361 -0.0162525 0)
(-0.00276303 -0.0151377 0)
(-0.000826647 -0.017932 0)
(0.00126567 -0.0191038 0)
(-0.000783286 -0.0189122 0)
(0.000726252 -0.0182741 0)
(0.0022725 -0.0187821 0)
(-0.00055852 -0.0195257 0)
(-0.000278035 -0.0198514 0)
(-0.00150261 -0.0201002 0)