/*--------------------------------*- C++ -*----------------------------------*\
  =========                 |
  \\      /  F ield         | OpenFOAM: The Open Source CFD Toolbox
   \\    /   O peration     | Website:  https://openfoam.org
    \\  /    A nd           | Version:  12
     \\/     M anipulation  |
\*---------------------------------------------------------------------------*/
FoamFile
{
    format      ascii;
    class       volVectorField::Internal;
    location    "0.3";
    object      cloud:UTrans;
}
// * * * * * * * * * * * * * * * * * * * * * * * * * * * * * * * * * * * * * //

dimensions      [1 1 -1 0 0 0 0];

value           nonuniform List<vector> 
3750
(
(-1.2395e-10 -5.07201e-09 0)
(9.73071e-11 -2.27627e-09 0)
(-7.81185e-11 -2.19367e-09 0)
(-6.48612e-11 -2.21912e-09 0)
(-1.6722e-11 -2.17476e-09 0)
(3.1489e-11 -2.15832e-09 0)
(6.85408e-13 -2.25542e-09 0)
(4.53263e-12 -5.40639e-10 0)
(9.48375e-12 -1.10575e-09 0)
(3.73356e-11 -2.35591e-09 0)
(3.52378e-11 -2.35069e-09 0)
(5.55069e-11 -2.29017e-09 0)
(1.74856e-11 -2.21608e-09 0)
(2.25882e-11 -2.21951e-09 0)
(-2.0983e-10 -4.58966e-09 0)
(1.9289e-11 -2.1635e-09 0)
(-8.2845e-11 -2.011e-09 0)
(1.15858e-10 -2.28133e-09 0)
(-9.39121e-11 -2.24805e-09 0)
(-3.17786e-10 -6.16019e-09 0)
(1.11633e-11 -2.27918e-09 0)
(1.66888e-11 -2.10298e-09 0)
(-2.76416e-11 -2.24704e-09 0)
(6.98383e-11 -2.30555e-09 0)
(-5.95955e-11 -2.19947e-09 0)
(-1.45962e-10 -2.22047e-09 0)
(1.0713e-10 -2.1563e-09 0)
(1.31564e-10 -2.27945e-09 0)
(8.58355e-11 -2.45474e-09 0)
(2.29322e-11 -2.37271e-09 0)
(-2.00369e-11 -2.21995e-09 0)
(-6.95617e-11 -2.44225e-09 0)
(-1.23567e-10 -4.16035e-09 0)
(-1.03877e-11 -2.63772e-09 0)
(1.72692e-11 -2.15268e-09 0)
(4.39997e-11 -2.28549e-09 0)
(-4.04524e-12 -2.50052e-09 0)
(0 0 0)
(-1.09682e-11 -2.36265e-09 0)
(-2.87921e-12 -2.37478e-09 0)
(2.28528e-11 -2.22209e-09 0)
(-4.09719e-11 -2.45162e-09 0)
(7.14725e-11 -1.96694e-09 0)
(3.46249e-11 -2.13386e-09 0)
(5.36127e-11 -2.28929e-09 0)
(-7.54127e-12 -6.71526e-10 0)
(-1.19582e-11 -9.45694e-10 0)
(5.87057e-11 -2.40645e-09 0)
(1.63576e-10 -2.45796e-09 0)
(1.39671e-10 -2.4978e-09 0)
(-2.74757e-10 -2.36939e-09 0)
(-2.19899e-10 -2.8613e-09 0)
(-1.56171e-10 -5.0026e-09 0)
(2.82634e-12 -2.34878e-09 0)
(2.17421e-10 -2.48657e-09 0)
(-3.75238e-11 -2.34908e-09 0)
(-1.34353e-10 -2.2746e-09 0)
(2.14499e-11 -2.26199e-09 0)
(6.12074e-12 -2.38549e-09 0)
(-8.62375e-11 -2.50149e-09 0)
(1.00717e-12 -2.2495e-09 0)
(1.43991e-12 -4.43422e-10 0)
(3.93662e-12 -1.29966e-09 0)
(-1.43221e-11 -2.35579e-09 0)
(0 0 0)
(2.27874e-10 -5.49944e-09 0)
(0 0 0)
(0 0 0)
(0 0 0)
(0 0 0)
(0 0 0)
(0 0 0)
(0 0 0)
(0 0 0)
(0 0 0)
(-1.822e-10 -2.33531e-09 0)
(7.95477e-11 -2.30935e-09 0)
(8.32985e-11 -2.30726e-09 0)
(-2.15959e-12 -1.32865e-10 0)
(-3.47899e-11 -2.14968e-09 0)
(1.1541e-10 -4.50031e-09 0)
(8.25639e-12 -2.15575e-09 0)
(-2.9553e-11 -2.20961e-09 0)
(2.30652e-10 -2.27026e-09 0)
(2.26861e-10 -2.30479e-09 0)
(1.29077e-10 -2.29952e-09 0)
(2.28236e-11 -2.24137e-09 0)
(0 0 0)
(1.79779e-10 -2.16745e-09 0)
(1.65612e-10 -2.46902e-09 0)
(-1.74408e-10 -3.73067e-09 0)
(-1.65095e-10 -2.65635e-09 0)
(-1.90988e-10 -2.1569e-09 0)
(0 0 0)
(-2.30688e-11 -2.52846e-09 0)
(2.75358e-11 -8.59684e-10 0)
(2.87629e-11 -1.82204e-09 0)
(-2.95954e-11 -2.85373e-09 0)
(-1.89977e-11 -3.18501e-09 0)
(-9.03569e-12 -2.37837e-09 0)
(-1.22722e-10 -3.13617e-09 0)
(5.34384e-12 -1.98149e-09 0)
(3.77698e-11 -1.94686e-09 0)
(8.69919e-11 -2.21417e-09 0)
(-2.93603e-12 -2.33804e-09 0)
(-1.29914e-10 -2.27164e-09 0)
(0 0 0)
(-1.73028e-10 -2.14753e-09 0)
(3.59985e-11 -2.02143e-09 0)
(-1.95713e-11 -2.13077e-09 0)
(-5.76203e-11 -2.1888e-09 0)
(-4.89963e-12 -2.26572e-09 0)
(-2.02085e-11 -2.24207e-09 0)
(1.05715e-10 -3.07633e-09 0)
(4.15962e-11 -1.18163e-09 0)
(1.23877e-12 -2.28318e-09 0)
(0 0 0)
(1.93494e-11 -1.95993e-09 0)
(-1.47872e-11 -4.54285e-09 0)
(-8.66297e-11 -6.61471e-09 0)
(-9.67291e-11 -1.95213e-09 0)
(-5.28422e-11 -2.03414e-09 0)
(-6.21004e-12 -5.63424e-09 0)
(0 0 0)
(2.22756e-10 -2.16302e-09 0)
(0 0 0)
(-1.47711e-10 -2.12973e-09 0)
(-1.50776e-10 -2.18178e-09 0)
(7.69407e-11 -2.31006e-09 0)
(1.52231e-11 -2.39218e-09 0)
(0 0 0)
(-2.81212e-11 -2.16644e-09 0)
(-8.1992e-11 -2.09838e-09 0)
(4.41648e-11 -2.07988e-09 0)
(-1.00704e-09 -6.43803e-09 0)
(-7.70707e-11 -1.45725e-09 0)
(0 0 0)
(0 0 0)
(0 0 0)
(0 0 0)
(0 0 0)
(0 0 0)
(0 0 0)
(0 0 0)
(0 0 0)
(0 0 0)
(0 0 0)
(0 0 0)
(0 0 0)
(0 0 0)
(-1.96018e-11 -1.84918e-09 0)
(5.74118e-11 -2.35313e-09 0)
(-1.51567e-11 -5.52909e-09 0)
(4.74253e-11 -1.99546e-09 0)
(-8.18293e-11 -2.0967e-09 0)
(-4.8779e-11 -2.23555e-09 0)
(1.14825e-10 -2.22318e-09 0)
(-3.8607e-11 -2.09072e-09 0)
(1.61697e-10 -2.47583e-09 0)
(3.39752e-10 -2.52853e-09 0)
(1.05732e-10 -2.30664e-09 0)
(1.93256e-11 -2.26576e-09 0)
(5.0847e-11 -2.10017e-09 0)
(3.15782e-11 -2.17283e-09 0)
(-1.8156e-11 -4.61551e-09 0)
(-1.35514e-10 -2.00242e-09 0)
(-1.81352e-10 -2.03139e-09 0)
(-3.46476e-11 -5.84766e-10 0)
(-3.31366e-10 -4.60609e-09 0)
(-2.667e-11 -8.99209e-10 0)
(2.67408e-10 -3.26631e-09 0)
(7.78209e-11 -2.4025e-09 0)
(1.32396e-11 -1.91133e-09 0)
(-8.95375e-11 -2.27574e-09 0)
(4.3978e-11 -2.24876e-09 0)
(7.29126e-11 -2.2014e-09 0)
(1.50888e-10 -1.95581e-09 0)
(3.64053e-11 -2.16536e-09 0)
(7.18029e-11 -2.80431e-09 0)
(0 0 0)
(-1.65057e-10 -2.10455e-09 0)
(7.62913e-12 -2.19369e-09 0)
(8.8871e-11 -2.23202e-09 0)
(7.58562e-11 -2.28997e-09 0)
(-5.06057e-11 -2.27038e-09 0)
(-9.87489e-11 -2.21107e-09 0)
(-3.13929e-10 -5.04371e-09 0)
(-4.48146e-11 -1.89568e-09 0)
(7.85173e-12 -1.96629e-09 0)
(4.143e-10 -5.24271e-09 0)
(9.9155e-11 -1.95567e-09 0)
(7.45026e-11 -1.99657e-09 0)
(1.97979e-11 -2.03097e-09 0)
(-1.3003e-10 -2.17237e-09 0)
(8.27536e-11 -2.24994e-09 0)
(1.26041e-10 -1.97364e-09 0)
(3.17269e-11 -1.83222e-09 0)
(4.36028e-12 -3.56889e-10 0)
(3.16114e-11 -1.80597e-09 0)
(2.49377e-11 -2.60968e-09 0)
(-3.68177e-11 -2.25294e-09 0)
(1.49207e-11 -2.15713e-09 0)
(-2.43963e-11 -2.22297e-09 0)
(3.26382e-11 -2.24752e-09 0)
(1.61782e-10 -5.78686e-09 0)
(1.03203e-10 -2.27724e-09 0)
(2.60543e-11 -4.71326e-09 0)
(-3.62821e-11 -1.95969e-09 0)
(-3.13217e-10 -2.1952e-09 0)
(0 0 0)
(0 0 0)
(0 0 0)
(0 0 0)
(0 0 0)
(0 0 0)
(0 0 0)
(0 0 0)
(0 0 0)
(0 0 0)
(0 0 0)
(0 0 0)
(0 0 0)
(0 0 0)
(0 0 0)
(0 0 0)
(-1.97133e-12 -1.6226e-09 0)
(-1.29723e-10 -2.11628e-09 0)
(-9.88622e-11 -2.18552e-09 0)
(1.3539e-10 -4.96853e-09 0)
(-2.90417e-11 -2.16567e-09 0)
(-1.0079e-10 -2.04327e-09 0)
(9.80691e-12 -2.22953e-09 0)
(4.84297e-11 -2.16008e-09 0)
(-5.79787e-12 -2.21361e-09 0)
(1.5839e-11 -2.39096e-09 0)
(5.79197e-11 -5.3914e-09 0)
(7.68114e-11 -1.82773e-09 0)
(2.43584e-11 -1.09325e-09 0)
(-2.24442e-11 -1.37555e-09 0)
(-3.38085e-11 -1.07268e-09 0)
(-5.19691e-12 -2.09597e-09 0)
(-6.17282e-11 -2.23983e-09 0)
(-2.15882e-10 -2.22853e-09 0)
(-2.9725e-10 -2.26443e-09 0)
(-2.92429e-10 -2.26023e-09 0)
(-2.42997e-11 -2.10808e-09 0)
(1.15373e-10 -2.33305e-09 0)
(0 0 0)
(-1.07587e-10 -2.07558e-09 0)
(8.56066e-12 -2.12719e-09 0)
(2.44799e-12 -2.04368e-09 0)
(-1.17496e-11 -1.67988e-09 0)
(2.38218e-10 -1.982e-09 0)
(2.28869e-10 -2.67381e-09 0)
(-1.55186e-11 -6.62041e-10 0)
(-3.84101e-11 -1.28828e-09 0)
(1.02727e-11 -2.68168e-09 0)
(1.24856e-10 -3.21104e-09 0)
(2.57931e-11 -3.45866e-09 0)
(-1.82865e-10 -2.05383e-09 0)
(-1.96908e-10 -2.28016e-09 0)
(-3.2797e-10 -4.42252e-09 0)
(-4.21289e-11 -2.02502e-09 0)
(4.94129e-13 -2.05603e-09 0)
(7.3826e-12 -2.13416e-09 0)
(5.15113e-11 -2.13833e-09 0)
(6.0398e-11 -2.18956e-09 0)
(1.22448e-10 -2.17143e-09 0)
(1.62539e-10 -1.84943e-09 0)
(4.07852e-11 -1.02287e-09 0)
(1.63759e-10 -2.84164e-09 0)
(-1.00279e-11 -1.89387e-09 0)
(3.19718e-11 -2.59085e-09 0)
(-3.56133e-11 -2.60324e-09 0)
(1.56239e-11 -4.02033e-10 0)
(6.38478e-11 -1.53018e-09 0)
(-3.93079e-11 -2.12951e-09 0)
(4.77625e-11 -2.20346e-09 0)
(-1.78386e-11 -2.34437e-09 0)
(-8.30983e-11 -2.66717e-09 0)
(1.34907e-10 -4.55226e-09 0)
(-1.58132e-10 -1.74439e-09 0)
(-1.5089e-10 -5.00979e-09 0)
(-9.41996e-11 -1.96663e-09 0)
(0 0 0)
(0 0 0)
(0 0 0)
(0 0 0)
(0 0 0)
(0 0 0)
(0 0 0)
(0 0 0)
(0 0 0)
(0 0 0)
(0 0 0)
(0 0 0)
(0 0 0)
(0 0 0)
(0 0 0)
(0 0 0)
(-1.37259e-11 -2.18815e-09 0)
(-4.50739e-11 -2.16131e-09 0)
(-3.78955e-11 -1.84401e-09 0)
(-2.49048e-10 -4.6699e-09 0)
(-1.44544e-10 -2.02424e-09 0)
(6.9256e-12 -1.98899e-09 0)
(1.26334e-11 -2.0782e-09 0)
(-6.33073e-11 -1.97587e-09 0)
(-1.89341e-10 -5.55259e-09 0)
(-2.79356e-11 -2.44187e-09 0)
(0 0 0)
(2.37913e-10 -2.1363e-09 0)
(8.83767e-11 -2.11939e-09 0)
(-2.58467e-11 -2.30393e-09 0)
(0 0 0)
(8.62861e-11 -2.06142e-09 0)
(-1.32325e-10 -1.97584e-09 0)
(0 0 0)
(-8.2127e-11 -2.06353e-09 0)
(-9.95314e-11 -3.24783e-09 0)
(-4.44346e-11 -3.62885e-09 0)
(-1.47951e-11 -2.40692e-09 0)
(2.49096e-12 -9.00726e-10 0)
(1.45451e-12 -6.28108e-10 0)
(-7.79404e-11 -2.1802e-09 0)
(-3.84761e-11 -2.18091e-09 0)
(-1.83275e-11 -2.14106e-09 0)
(-2.47193e-11 -2.06774e-09 0)
(-2.2668e-11 -2.60839e-09 0)
(1.15531e-10 -2.5492e-09 0)
(5.72352e-11 -2.03587e-09 0)
(4.10401e-11 -1.95955e-09 0)
(-5.58384e-11 -2.10808e-09 0)
(-1.90329e-10 -2.61699e-09 0)
(-2.46986e-10 -5.21802e-09 0)
(-3.46873e-11 -1.92391e-09 0)
(-3.5777e-11 -1.96439e-09 0)
(-1.21006e-12 -8.35313e-11 0)
(-2.82268e-11 -2.04648e-09 0)
(2.98639e-11 -2.55409e-09 0)
(2.92402e-11 -2.32562e-09 0)
(3.68462e-11 -2.25016e-09 0)
(6.84664e-11 -2.45206e-09 0)
(2.38553e-12 -1.83792e-09 0)
(3.84712e-11 -2.04742e-09 0)
(4.63757e-11 -2.14284e-09 0)
(-2.21255e-11 -2.1296e-09 0)
(-6.22481e-11 -2.28297e-09 0)
(1.39885e-11 -2.40738e-09 0)
(1.89745e-10 -3.84012e-09 0)
(5.73115e-11 -3.98725e-09 0)
(-1.72017e-10 -2.02376e-09 0)
(-5.38064e-11 -2.43454e-09 0)
(0 0 0)
(0 0 0)
(-3.97535e-11 -2.43944e-09 0)
(-2.2801e-10 -2.0666e-09 0)
(-3.62886e-10 -2.02959e-09 0)
(-3.20299e-11 -2.09917e-09 0)
(-7.05563e-11 -1.94059e-09 0)
(0 0 0)
(0 0 0)
(0 0 0)
(0 0 0)
(0 0 0)
(0 0 0)
(0 0 0)
(0 0 0)
(0 0 0)
(0 0 0)
(0 0 0)
(0 0 0)
(0 0 0)
(0 0 0)
(0 0 0)
(-3.25791e-11 -2.18349e-09 0)
(-4.57151e-11 -2.22587e-09 0)
(-9.26523e-11 -2.24939e-09 0)
(-8.40655e-11 -2.26288e-09 0)
(3.25179e-12 -2.23257e-09 0)
(2.71255e-11 -2.28026e-09 0)
(-7.26838e-11 -5.22079e-09 0)
(-2.25094e-11 -1.19107e-09 0)
(-1.02291e-10 -2.73743e-09 0)
(-1.56747e-10 -2.13982e-09 0)
(5.54992e-11 -2.34592e-09 0)
(1.203e-10 -2.25151e-09 0)
(0 0 0)
(-6.52077e-11 -2.25875e-09 0)
(-4.18989e-11 -2.23749e-09 0)
(1.64477e-11 -2.27611e-09 0)
(0 0 0)
(3.19807e-13 -2.10889e-09 0)
(4.24069e-11 -2.13435e-09 0)
(-1.24326e-10 -2.2658e-09 0)
(-8.43674e-11 -2.22946e-09 0)
(-6.87331e-11 -2.34265e-09 0)
(4.54233e-11 -2.25128e-09 0)
(5.07717e-11 -2.15937e-09 0)
(6.86623e-11 -2.13398e-09 0)
(5.59162e-11 -2.1845e-09 0)
(5.77368e-11 -2.22494e-09 0)
(1.06688e-13 -2.23082e-09 0)
(-2.20603e-11 -2.21474e-09 0)
(9.17717e-12 -2.32904e-09 0)
(4.01313e-12 -2.25382e-09 0)
(-5.48756e-11 -2.15675e-09 0)
(-2.02255e-10 -5.39531e-09 0)
(-5.67533e-12 -2.41886e-09 0)
(1.06564e-10 -2.13285e-09 0)
(2.23908e-10 -1.81554e-09 0)
(6.67684e-11 -1.8029e-09 0)
(-2.3118e-11 -2.00253e-09 0)
(-3.79182e-11 -2.05445e-09 0)
(1.05669e-12 -2.00178e-09 0)
(2.92858e-12 -1.08421e-09 0)
(1.61647e-12 -2.9245e-10 0)
(4.13174e-11 -2.17176e-09 0)
(6.64786e-11 -2.12105e-09 0)
(3.38921e-11 -2.02815e-09 0)
(4.05886e-11 -1.97673e-09 0)
(2.49288e-11 -2.19263e-09 0)
(-1.42359e-10 -2.43702e-09 0)
(-7.13729e-11 -3.06483e-09 0)
(1.22649e-10 -5.26309e-09 0)
(-6.4009e-11 -2.40198e-09 0)
(-5.51741e-11 -2.0267e-09 0)
(-1.71895e-10 -1.99901e-09 0)
(0 0 0)
(1.45827e-10 -5.50954e-09 0)
(1.13309e-10 -4.93539e-09 0)
(0 0 0)
(0 0 0)
(-1.09325e-10 -1.92256e-09 0)
(-1.81264e-10 -2.01622e-09 0)
(0 0 0)
(0 0 0)
(0 0 0)
(0 0 0)
(0 0 0)
(0 0 0)
(0 0 0)
(0 0 0)
(0 0 0)
(0 0 0)
(0 0 0)
(0 0 0)
(0 0 0)
(0 0 0)
(0 0 0)
(-2.57945e-11 -2.20465e-09 0)
(-5.99331e-11 -2.20843e-09 0)
(-4.52501e-11 -2.2117e-09 0)
(-4.72062e-11 -2.29399e-09 0)
(-1.22189e-11 -2.54406e-09 0)
(-6.5919e-11 -1.03527e-09 0)
(-4.70414e-11 -6.31335e-10 0)
(-1.83167e-10 -3.88315e-09 0)
(-2.49657e-11 -3.77758e-09 0)
(-4.41319e-12 -5.75364e-10 0)
(6.5616e-11 -2.70345e-09 0)
(1.92585e-10 -3.39358e-09 0)
(-1.38448e-11 -2.34322e-09 0)
(1.041e-11 -2.30711e-09 0)
(0 0 0)
(9.16018e-11 -2.00576e-09 0)
(1.09231e-10 -2.19235e-09 0)
(4.42831e-11 -2.25395e-09 0)
(-1.58782e-10 -2.57037e-09 0)
(9.41802e-12 -6.88459e-10 0)
(-2.00899e-11 -3.87662e-09 0)
(-4.47037e-11 -2.02149e-09 0)
(2.67453e-11 -1.86671e-09 0)
(7.26522e-11 -2.04971e-09 0)
(6.44632e-11 -2.09453e-09 0)
(-1.23948e-11 -3.98096e-09 0)
(-2.52488e-11 -2.69901e-09 0)
(5.93077e-11 -2.15182e-09 0)
(1.14205e-10 -2.23556e-09 0)
(8.11853e-11 -2.41368e-09 0)
(-3.38177e-11 -2.34653e-09 0)
(-1.2344e-10 -2.30147e-09 0)
(-1.53995e-10 -2.28248e-09 0)
(-1.90207e-11 -2.29792e-09 0)
(2.16857e-10 -2.28167e-09 0)
(1.71318e-10 -2.00431e-09 0)
(7.54676e-11 -2.03952e-09 0)
(-2.92677e-11 -2.2035e-09 0)
(-5.1308e-11 -2.11079e-09 0)
(7.01807e-13 -2.24459e-09 0)
(1.13468e-11 -2.25972e-09 0)
(5.91972e-11 -2.11569e-09 0)
(2.51349e-11 -2.18442e-09 0)
(-1.13026e-11 -2.19449e-09 0)
(1.67197e-11 -2.03531e-09 0)
(2.72882e-11 -2.23238e-09 0)
(-4.21209e-12 -2.81439e-09 0)
(-2.25244e-11 -5.68736e-10 0)
(-6.69236e-11 -2.5868e-09 0)
(-6.61114e-11 -3.98757e-09 0)
(2.90644e-11 -2.17744e-09 0)
(2.83952e-11 -2.26082e-09 0)
(-8.48769e-11 -2.08859e-09 0)
(-1.07215e-10 -2.0498e-09 0)
(-8.33067e-11 -2.0345e-09 0)
(3.50922e-11 -5.03815e-09 0)
(1.92236e-10 -2.33906e-09 0)
(1.63874e-10 -2.14574e-09 0)
(3.97474e-11 -2.04293e-09 0)
(-6.97003e-11 -2.10169e-09 0)
(0 0 0)
(0 0 0)
(0 0 0)
(0 0 0)
(0 0 0)
(0 0 0)
(0 0 0)
(0 0 0)
(0 0 0)
(0 0 0)
(0 0 0)
(0 0 0)
(0 0 0)
(0 0 0)
(0 0 0)
(6.66455e-12 -1.98967e-09 0)
(-3.52516e-11 -2.11113e-09 0)
(-1.38998e-13 -2.11653e-09 0)
(5.70069e-13 -2.17501e-09 0)
(-3.39111e-11 -2.65669e-09 0)
(-3.82618e-11 -2.64828e-09 0)
(0 0 0)
(-1.21623e-10 -2.32514e-09 0)
(-3.2756e-11 -2.327e-09 0)
(6.85857e-11 -2.33769e-09 0)
(4.43726e-11 -2.23606e-09 0)
(-3.36067e-11 -2.24125e-09 0)
(2.25968e-11 -2.87676e-09 0)
(8.14756e-11 -2.97235e-09 0)
(5.32775e-11 -1.21673e-09 0)
(1.19028e-10 -2.11581e-09 0)
(8.03129e-11 -2.13711e-09 0)
(9.68297e-11 -5.5575e-09 0)
(-1.42011e-11 -2.07144e-09 0)
(1.00184e-10 -1.88584e-09 0)
(0 0 0)
(-9.3106e-11 -2.75506e-09 0)
(5.45164e-11 -4.20151e-09 0)
(1.54981e-12 -1.88355e-09 0)
(-3.10301e-10 -5.69383e-09 0)
(-6.96529e-11 -2.0459e-09 0)
(-2.09143e-10 -2.43546e-09 0)
(2.84711e-11 -1.58131e-09 0)
(1.79611e-10 -2.06471e-09 0)
(1.60441e-10 -2.30474e-09 0)
(-1.35921e-11 -2.49263e-09 0)
(-1.08441e-10 -2.27772e-09 0)
(-2.70983e-11 -1.15207e-09 0)
(-1.27115e-12 -5.557e-11 0)
(-5.21757e-11 -2.06285e-09 0)
(-2.43659e-11 -2.24431e-09 0)
(8.87564e-12 -2.21365e-09 0)
(-8.06249e-11 -2.08952e-09 0)
(-8.12942e-11 -2.16289e-09 0)
(-5.21451e-11 -5.28408e-09 0)
(2.55032e-11 -1.94479e-09 0)
(2.85494e-11 -8.74664e-10 0)
(1.34461e-10 -3.47633e-09 0)
(3.75135e-11 -2.24824e-09 0)
(0 0 0)
(-2.81407e-11 -1.82728e-09 0)
(-6.02121e-12 -2.86949e-09 0)
(-1.71524e-12 -2.61675e-10 0)
(-2.05214e-11 -1.88142e-09 0)
(-7.1184e-11 -2.26804e-09 0)
(1.09622e-11 -2.25112e-09 0)
(8.77146e-11 -5.33393e-09 0)
(2.7718e-11 -1.93406e-09 0)
(4.22256e-11 -1.95998e-09 0)
(-7.81466e-12 -2.0429e-09 0)
(-4.68779e-11 -2.34366e-09 0)
(1.27028e-10 -2.37291e-09 0)
(1.36343e-10 -4.52472e-09 0)
(-1.82154e-11 -1.95118e-09 0)
(-1.04783e-10 -2.10074e-09 0)
(-1.72205e-10 -2.26737e-09 0)
(0 0 0)
(0 0 0)
(0 0 0)
(0 0 0)
(0 0 0)
(0 0 0)
(0 0 0)
(0 0 0)
(0 0 0)
(0 0 0)
(0 0 0)
(0 0 0)
(0 0 0)
(0 0 0)
(-3.13731e-11 -2.10106e-09 0)
(1.84794e-11 -1.89569e-09 0)
(4.28607e-11 -2.10513e-09 0)
(-2.09481e-10 -2.19635e-09 0)
(-8.86683e-11 -2.62965e-09 0)
(0 0 0)
(-4.26478e-12 -2.61272e-09 0)
(1.62005e-10 -2.18825e-09 0)
(1.98288e-10 -2.16327e-09 0)
(6.878e-12 -2.18006e-09 0)
(5.85181e-11 -3.20803e-09 0)
(-1.15421e-10 -4.66385e-09 0)
(6.64398e-11 -2.14965e-09 0)
(1.36767e-10 -2.18649e-09 0)
(6.99995e-11 -2.13101e-09 0)
(-1.05567e-11 -1.99207e-09 0)
(8.99323e-11 -1.9857e-09 0)
(1.41572e-10 -5.65842e-09 0)
(1.48294e-10 -2.04123e-09 0)
(1.01317e-10 -1.85003e-09 0)
(1.26232e-10 -1.93622e-09 0)
(1.09991e-10 -1.99702e-09 0)
(7.5436e-11 -1.77445e-09 0)
(-4.69208e-11 -2.09969e-09 0)
(-3.132e-10 -2.20472e-09 0)
(-3.87621e-10 -5.67701e-09 0)
(-5.23355e-11 -1.98085e-09 0)
(5.44521e-11 -1.93551e-09 0)
(1.09909e-10 -2.28924e-09 0)
(4.8843e-11 -2.62449e-09 0)
(0 0 0)
(2.17264e-11 -2.23591e-09 0)
(1.78891e-10 -2.10648e-09 0)
(2.46937e-11 -9.13899e-10 0)
(1.29166e-11 -4.2333e-10 0)
(3.25979e-12 -2.16625e-09 0)
(-9.69728e-11 -2.21099e-09 0)
(-1.17712e-10 -2.12339e-09 0)
(-2.57691e-10 -4.0694e-09 0)
(-6.39003e-11 -2.40872e-09 0)
(4.3472e-11 -1.92073e-09 0)
(4.38083e-12 -2.02432e-09 0)
(-1.20585e-10 -2.283e-09 0)
(-8.19088e-11 -2.22454e-09 0)
(-6.30797e-11 -2.08998e-09 0)
(-1.252e-10 -1.81933e-09 0)
(-8.76803e-11 -2.41071e-09 0)
(0 0 0)
(8.21529e-11 -2.20333e-09 0)
(5.70327e-11 -2.28336e-09 0)
(8.43384e-11 -2.25118e-09 0)
(5.71677e-11 -2.27747e-09 0)
(8.71799e-11 -2.20961e-09 0)
(-4.90745e-11 -2.06743e-09 0)
(-1.21792e-10 -2.29286e-09 0)
(-1.31174e-10 -2.69152e-09 0)
(2.39633e-11 -5.30526e-10 0)
(6.99572e-11 -1.27585e-09 0)
(-2.43378e-11 -2.10738e-09 0)
(-2.16524e-10 -2.09128e-09 0)
(-1.25991e-10 -2.1994e-09 0)
(0 0 0)
(0 0 0)
(0 0 0)
(0 0 0)
(0 0 0)
(0 0 0)
(0 0 0)
(0 0 0)
(0 0 0)
(0 0 0)
(0 0 0)
(0 0 0)
(0 0 0)
(0 0 0)
(-6.58326e-11 -4.43137e-09 0)
(-1.33567e-10 -2.39129e-09 0)
(-5.32875e-11 -2.32322e-09 0)
(-5.82968e-11 -1.23126e-09 0)
(-3.14222e-11 -8.42405e-10 0)
(-5.90149e-11 -3.08009e-09 0)
(1.03106e-12 -2.87897e-09 0)
(3.24272e-11 -9.52096e-10 0)
(1.09748e-10 -2.04237e-09 0)
(1.10994e-10 -2.62717e-09 0)
(-5.09427e-11 -4.08013e-09 0)
(-1.86574e-10 -3.6987e-09 0)
(2.71701e-11 -2.04057e-09 0)
(1.06379e-10 -2.02698e-09 0)
(-1.58208e-10 -2.0657e-09 0)
(-6.27474e-11 -2.18222e-09 0)
(-4.55485e-11 -4.57755e-09 0)
(-1.34019e-11 -2.00324e-09 0)
(2.2406e-10 -3.65967e-09 0)
(1.22722e-10 -2.66821e-09 0)
(-3.58812e-11 -2.06845e-09 0)
(-5.00167e-11 -2.11611e-09 0)
(-1.68714e-10 -2.58122e-09 0)
(-1.08903e-10 -2.44827e-09 0)
(-2.57329e-11 -1.26456e-09 0)
(-1.12495e-10 -2.75158e-09 0)
(-2.22977e-11 -2.00023e-09 0)
(8.08567e-11 -2.07677e-09 0)
(2.55548e-11 -2.27293e-09 0)
(0 0 0)
(8.4191e-11 -2.32906e-09 0)
(-1.0197e-10 -2.3894e-09 0)
(-2.80157e-12 -2.22072e-09 0)
(-2.29718e-14 -3.35878e-11 0)
(5.38668e-12 -2.10627e-09 0)
(1.33968e-10 -2.15958e-09 0)
(-1.82968e-11 -2.36416e-09 0)
(-2.40465e-11 -2.2741e-09 0)
(-5.30194e-11 -2.07484e-09 0)
(-1.61554e-10 -2.30596e-09 0)
(-1.70545e-10 -3.72225e-09 0)
(-1.10017e-11 -1.88108e-09 0)
(6.83097e-12 -2.15475e-09 0)
(-3.88546e-11 -2.31355e-09 0)
(-5.95233e-11 -2.24193e-09 0)
(-1.51978e-10 -2.20012e-09 0)
(1.61185e-11 -6.93098e-10 0)
(3.30268e-11 -9.71409e-10 0)
(7.53662e-11 -2.39618e-09 0)
(3.11714e-11 -2.32769e-09 0)
(7.03544e-11 -2.20684e-09 0)
(7.97177e-11 -2.21683e-09 0)
(0 0 0)
(6.39529e-11 -2.20886e-09 0)
(-9.22983e-12 -2.27874e-09 0)
(-4.59742e-11 -2.69533e-09 0)
(9.86496e-12 -1.83875e-10 0)
(1.31923e-10 -5.42481e-09 0)
(-6.8677e-11 -2.34788e-09 0)
(-9.14791e-12 -8.5804e-10 0)
(-1.43906e-11 -2.1734e-09 0)
(-5.7929e-12 -5.41687e-10 0)
(0 0 0)
(0 0 0)
(0 0 0)
(0 0 0)
(0 0 0)
(0 0 0)
(0 0 0)
(0 0 0)
(0 0 0)
(0 0 0)
(0 0 0)
(0 0 0)
(0 0 0)
(-3.36185e-11 -2.26672e-09 0)
(-1.08519e-10 -2.21759e-09 0)
(-7.07815e-11 -2.21305e-09 0)
(-5.01739e-11 -2.50727e-09 0)
(0 0 0)
(-3.09696e-11 -2.41197e-09 0)
(3.0146e-11 -2.31763e-09 0)
(5.55051e-11 -2.16868e-09 0)
(5.69596e-12 -2.36811e-09 0)
(-7.11572e-11 -2.51532e-09 0)
(3.69814e-11 -2.49493e-09 0)
(0 0 0)
(5.7638e-11 -4.85812e-09 0)
(1.45967e-11 -1.94287e-09 0)
(-1.42166e-10 -2.16038e-09 0)
(-9.94026e-11 -2.20253e-09 0)
(-6.92619e-11 -4.76767e-09 0)
(-7.07487e-11 -1.96179e-09 0)
(-1.44677e-10 -4.66237e-09 0)
(-5.63995e-11 -1.94787e-09 0)
(-3.17372e-11 -2.06723e-09 0)
(-1.30876e-10 -2.21269e-09 0)
(-2.30657e-10 -2.26648e-09 0)
(-2.08709e-10 -2.28706e-09 0)
(-9.60991e-11 -2.37245e-09 0)
(-1.92521e-10 -2.51009e-09 0)
(3.72895e-11 -2.09811e-09 0)
(3.81758e-11 -2.08661e-09 0)
(-1.93897e-10 -5.41858e-09 0)
(5.01248e-11 -2.37546e-09 0)
(6.14847e-11 -2.47051e-09 0)
(0 0 0)
(1.19394e-10 -2.8762e-09 0)
(6.27628e-11 -1.67025e-09 0)
(3.281e-11 -1.96568e-09 0)
(8.46389e-11 -2.22843e-09 0)
(9.77622e-11 -2.3323e-09 0)
(-7.44971e-11 -2.43087e-09 0)
(0 0 0)
(-1.45455e-10 -2.14374e-09 0)
(5.24606e-13 -2.046e-09 0)
(2.06152e-10 -2.03822e-09 0)
(-3.10412e-10 -5.57861e-09 0)
(-2.67869e-11 -2.10522e-09 0)
(-8.49157e-11 -2.10326e-09 0)
(-4.86746e-11 -2.12385e-09 0)
(1.24617e-12 -2.26193e-09 0)
(-3.61564e-11 -2.33764e-09 0)
(5.0334e-11 -2.63136e-09 0)
(6.32178e-11 -2.25377e-09 0)
(2.28263e-10 -2.18188e-09 0)
(1.03391e-10 -2.277e-09 0)
(0 0 0)
(-3.32243e-11 -2.30874e-09 0)
(-6.11464e-11 -2.30896e-09 0)
(0 0 0)
(-6.75338e-12 -2.24503e-09 0)
(-1.19587e-10 -2.50006e-09 0)
(1.61423e-11 -2.54113e-09 0)
(6.92703e-11 -2.17048e-09 0)
(-1.19198e-11 -2.41413e-09 0)
(-1.7198e-11 -2.16623e-09 0)
(0 0 0)
(0 0 0)
(0 0 0)
(0 0 0)
(0 0 0)
(0 0 0)
(0 0 0)
(0 0 0)
(0 0 0)
(0 0 0)
(0 0 0)
(0 0 0)
(0 0 0)
(2.65254e-12 -2.83389e-09 0)
(-5.52025e-11 -1.52646e-09 0)
(-1.01951e-10 -2.13132e-09 0)
(-1.15545e-10 -2.30377e-09 0)
(-3.58699e-11 -2.22901e-09 0)
(-3.49072e-11 -2.1319e-09 0)
(0 0 0)
(-7.40291e-11 -4.6708e-09 0)
(-7.71125e-11 -5.62964e-09 0)
(0 0 0)
(1.54405e-10 -2.34992e-09 0)
(1.67001e-10 -2.36562e-09 0)
(-7.63057e-12 -2.272e-09 0)
(-5.2562e-11 -2.23996e-09 0)
(-2.93948e-11 -2.13734e-09 0)
(-4.31324e-11 -2.10626e-09 0)
(-1.63219e-10 -2.13545e-09 0)
(-1.48228e-10 -4.03432e-09 0)
(-9.3211e-11 -2.44616e-09 0)
(1.53682e-11 -2.04829e-09 0)
(1.05574e-10 -2.07528e-09 0)
(-1.17667e-10 -2.28844e-09 0)
(-1.95778e-10 -2.28198e-09 0)
(-1.84547e-10 -2.22782e-09 0)
(-1.42847e-10 -2.31608e-09 0)
(-5.64196e-11 -2.21001e-09 0)
(-6.50917e-11 -2.18042e-09 0)
(2.16103e-12 -2.19427e-09 0)
(0 0 0)
(-1.03302e-10 -2.33647e-09 0)
(-2.62069e-11 -2.35187e-09 0)
(-1.17194e-10 -2.4833e-09 0)
(1.3272e-10 -2.58173e-09 0)
(2.07315e-10 -3.81221e-09 0)
(1.92015e-11 -7.23323e-10 0)
(2.59643e-11 -1.94825e-09 0)
(1.10684e-10 -2.12921e-09 0)
(7.93887e-11 -2.6641e-09 0)
(-4.513e-12 -1.60237e-10 0)
(-5.44514e-11 -1.81744e-09 0)
(3.80577e-11 -1.9173e-09 0)
(9.23835e-11 -2.12385e-09 0)
(5.06745e-11 -3.27512e-09 0)
(-1.18989e-10 -5.01476e-09 0)
(-4.79618e-11 -2.08363e-09 0)
(-3.96729e-11 -2.05077e-09 0)
(1.22218e-11 -2.15612e-09 0)
(9.74872e-11 -2.29072e-09 0)
(-1.70074e-11 -2.22792e-09 0)
(1.2652e-11 -2.18946e-09 0)
(6.70772e-11 -1.72148e-09 0)
(9.0689e-11 -2.36934e-09 0)
(0 0 0)
(-1.57813e-11 -2.26342e-09 0)
(-7.5015e-11 -2.26025e-09 0)
(0 0 0)
(-5.06895e-11 -4.75008e-09 0)
(-3.16691e-11 -2.37662e-09 0)
(7.03586e-11 -2.24442e-09 0)
(8.84046e-11 -2.16093e-09 0)
(-1.60251e-11 -2.20899e-09 0)
(3.33327e-11 -2.19667e-09 0)
(0 0 0)
(0 0 0)
(0 0 0)
(0 0 0)
(0 0 0)
(0 0 0)
(0 0 0)
(0 0 0)
(0 0 0)
(0 0 0)
(0 0 0)
(0 0 0)
(0 0 0)
(-9.58174e-11 -2.08154e-09 0)
(-7.25733e-11 -2.16035e-09 0)
(-6.88837e-11 -2.13507e-09 0)
(-1.14173e-10 -2.106e-09 0)
(-1.37535e-10 -2.37335e-09 0)
(-7.09018e-11 -2.20996e-09 0)
(6.42477e-11 -2.20895e-09 0)
(-1.14709e-12 -6.25693e-11 0)
(-4.38801e-11 -2.1465e-09 0)
(-1.16486e-10 -2.12763e-09 0)
(1.56977e-11 -2.5913e-10 0)
(2.61264e-10 -5.02876e-09 0)
(4.27077e-11 -2.08055e-09 0)
(-7.11319e-11 -2.04758e-09 0)
(0 0 0)
(0 0 0)
(0 0 0)
(0 0 0)
(0 0 0)
(0 0 0)
(-5.71862e-11 -2.55301e-09 0)
(-4.09409e-10 -2.54857e-09 0)
(0 0 0)
(-9.8676e-11 -2.17556e-09 0)
(-6.44235e-11 -2.23594e-09 0)
(-1.01945e-11 -2.56091e-09 0)
(4.68287e-11 -2.15782e-09 0)
(-3.4718e-11 -2.68105e-09 0)
(2.84568e-11 -2.52793e-09 0)
(7.73715e-11 -2.12936e-09 0)
(5.1614e-11 -1.97263e-09 0)
(1.08212e-10 -2.54011e-09 0)
(3.11965e-10 -3.72358e-09 0)
(1.22898e-10 -2.08663e-09 0)
(1.11277e-10 -2.12099e-09 0)
(7.5141e-11 -2.1015e-09 0)
(2.95691e-11 -2.18674e-09 0)
(4.72627e-11 -2.38871e-09 0)
(9.18663e-11 -2.16461e-09 0)
(8.71501e-11 -1.91039e-09 0)
(3.68716e-11 -1.95636e-09 0)
(6.16672e-11 -2.45945e-09 0)
(-9.41719e-12 -2.71634e-09 0)
(-8.33345e-11 -2.3686e-09 0)
(-5.26704e-11 -2.1273e-09 0)
(-4.52114e-11 -2.12306e-09 0)
(2.13455e-11 -2.19659e-09 0)
(1.34375e-11 -2.18444e-09 0)
(-3.69825e-11 -2.24198e-09 0)
(-4.91643e-12 -2.20911e-09 0)
(-4.82531e-11 -2.25313e-09 0)
(2.66957e-14 -1.14612e-12 0)
(6.74069e-11 -2.33835e-09 0)
(3.49659e-11 -2.24917e-09 0)
(1.81796e-11 -2.18203e-09 0)
(1.77826e-10 -4.73593e-09 0)
(-2.59506e-11 -2.73509e-09 0)
(1.4697e-10 -4.26859e-09 0)
(1.06845e-10 -2.16103e-09 0)
(1.02656e-10 -2.14122e-09 0)
(4.43633e-11 -2.22154e-09 0)
(0 0 0)
(0 0 0)
(0 0 0)
(0 0 0)
(0 0 0)
(0 0 0)
(0 0 0)
(0 0 0)
(0 0 0)
(0 0 0)
(0 0 0)
(0 0 0)
(0 0 0)
(0 0 0)
(-3.84917e-11 -2.34402e-09 0)
(-3.88936e-11 -2.17877e-09 0)
(-1.17341e-10 -2.30998e-09 0)
(-6.46259e-11 -2.35719e-09 0)
(-1.1338e-10 -4.07415e-09 0)
(-3.42585e-11 -2.58997e-09 0)
(6.94363e-11 -2.05577e-09 0)
(5.45659e-11 -2.20597e-09 0)
(3.8795e-11 -2.27044e-09 0)
(1.10231e-10 -2.32684e-09 0)
(2.3451e-10 -2.21983e-09 0)
(7.00477e-11 -2.17725e-09 0)
(5.94687e-11 -2.2944e-09 0)
(2.30303e-11 -1.00805e-09 0)
(9.68142e-11 -2.51481e-09 0)
(9.78398e-11 -1.92832e-09 0)
(-2.65386e-11 -2.0795e-09 0)
(-1.21641e-10 -2.12453e-09 0)
(-7.29462e-11 -2.1509e-09 0)
(8.08388e-13 -5.21716e-09 0)
(7.12732e-11 -1.973e-09 0)
(-2.87595e-10 -2.27399e-09 0)
(-1.73708e-10 -2.31036e-09 0)
(0 0 0)
(-2.36012e-12 -2.09734e-09 0)
(1.82479e-10 -2.12562e-09 0)
(2.09581e-10 -2.09394e-09 0)
(1.94618e-11 -2.30939e-09 0)
(4.35166e-12 -2.29849e-09 0)
(8.9206e-11 -2.23765e-09 0)
(6.54544e-11 -4.77077e-09 0)
(7.99843e-11 -2.11265e-09 0)
(1.5782e-10 -5.14728e-09 0)
(1.10509e-10 -2.04265e-09 0)
(9.18024e-11 -2.02701e-09 0)
(-3.56568e-11 -2.1518e-09 0)
(0 0 0)
(1.97973e-11 -5.44968e-09 0)
(1.94146e-10 -1.95455e-09 0)
(1.56947e-10 -1.83005e-09 0)
(6.02629e-11 -1.98112e-09 0)
(-5.13786e-11 -2.35485e-09 0)
(-5.47641e-11 -2.81698e-09 0)
(2.82408e-12 -2.57177e-09 0)
(-3.57179e-11 -9.22829e-10 0)
(-2.35343e-11 -5.4006e-10 0)
(1.07954e-10 -2.18231e-09 0)
(3.70261e-11 -2.64024e-09 0)
(1.36151e-10 -4.26138e-09 0)
(1.00166e-10 -2.11447e-09 0)
(8.73668e-11 -2.15211e-09 0)
(8.86316e-11 -2.16328e-09 0)
(1.30538e-10 -2.23824e-09 0)
(0 0 0)
(0 0 0)
(0 0 0)
(1.11835e-10 -2.63721e-09 0)
(-1.59059e-11 -2.3703e-09 0)
(1.22054e-11 -2.16383e-09 0)
(1.01307e-10 -1.99582e-09 0)
(0 0 0)
(0 0 0)
(0 0 0)
(0 0 0)
(0 0 0)
(0 0 0)
(0 0 0)
(0 0 0)
(0 0 0)
(0 0 0)
(0 0 0)
(0 0 0)
(0 0 0)
(0 0 0)
(0 0 0)
(-8.86691e-11 -2.321e-09 0)
(-2.17455e-11 -2.23342e-09 0)
(-1.00008e-10 -2.24311e-09 0)
(-8.48444e-11 -2.28173e-09 0)
(-9.45762e-11 -2.28187e-09 0)
(5.63659e-12 -2.27601e-09 0)
(9.00682e-13 -2.10669e-09 0)
(1.18058e-10 -2.23268e-09 0)
(9.31438e-11 -2.25581e-09 0)
(1.28708e-10 -3.14446e-09 0)
(6.3179e-11 -1.32201e-09 0)
(6.70728e-11 -2.34683e-09 0)
(5.78563e-11 -2.31697e-09 0)
(-3.1444e-11 -2.32621e-09 0)
(0 0 0)
(-2.60389e-11 -4.37972e-09 0)
(5.84117e-11 -2.0555e-09 0)
(-8.18743e-12 -2.99083e-09 0)
(6.19585e-11 -3.34758e-09 0)
(1.08734e-10 -2.06611e-09 0)
(-6.80314e-11 -2.60009e-09 0)
(0 0 0)
(-9.93593e-11 -2.29489e-09 0)
(-9.72276e-11 -3.53671e-09 0)
(9.19939e-11 -2.62847e-09 0)
(5.15343e-11 -2.00983e-09 0)
(5.94749e-11 -2.2259e-09 0)
(6.78543e-11 -2.21511e-09 0)
(4.20556e-11 -2.25146e-09 0)
(-4.50443e-11 -2.6337e-09 0)
(-1.53826e-10 -2.24699e-09 0)
(-8.18018e-11 -2.1771e-09 0)
(-4.10888e-11 -2.21967e-09 0)
(3.59063e-11 -2.32224e-09 0)
(-3.03667e-11 -2.26108e-09 0)
(2.17831e-11 -2.15349e-09 0)
(-9.70696e-11 -2.16344e-09 0)
(-3.19324e-11 -2.17829e-09 0)
(2.44256e-10 -5.02732e-09 0)
(5.92261e-11 -1.85691e-09 0)
(1.90847e-12 -2.0107e-09 0)
(0 0 0)
(-2.37995e-10 -2.37323e-09 0)
(-1.08402e-10 -2.55015e-09 0)
(1.45083e-10 -2.31805e-09 0)
(1.4357e-10 -2.20762e-09 0)
(9.70133e-11 -2.18245e-09 0)
(2.91771e-11 -2.32663e-09 0)
(1.44878e-10 -2.09148e-09 0)
(3.63374e-10 -3.55329e-09 0)
(1.18097e-10 -3.45237e-09 0)
(1.22584e-10 -2.00854e-09 0)
(1.26685e-10 -2.14256e-09 0)
(7.42961e-11 -2.2399e-09 0)
(3.6311e-11 -4.5195e-09 0)
(2.19347e-10 -5.62329e-09 0)
(1.96852e-12 -2.39917e-09 0)
(0 0 0)
(-5.75829e-11 -2.31204e-09 0)
(0 0 0)
(0 0 0)
(0 0 0)
(0 0 0)
(0 0 0)
(0 0 0)
(0 0 0)
(0 0 0)
(0 0 0)
(0 0 0)
(0 0 0)
(0 0 0)
(0 0 0)
(0 0 0)
(0 0 0)
(0 0 0)
(-9.33977e-11 -2.22502e-09 0)
(1.33314e-10 -2.32074e-09 0)
(-1.89749e-10 -2.23865e-09 0)
(-1.0297e-10 -2.26208e-09 0)
(-1.27573e-10 -2.18322e-09 0)
(-9.92386e-12 -2.17874e-09 0)
(-8.37383e-13 -4.34833e-10 0)
(-9.48562e-11 -4.84278e-09 0)
(3.55e-11 -2.14375e-09 0)
(8.45305e-11 -2.13742e-09 0)
(1.52845e-11 -2.20596e-09 0)
(1.39721e-10 -2.30682e-09 0)
(1.21051e-10 -2.32798e-09 0)
(1.63039e-11 -2.24811e-09 0)
(-3.20603e-11 -2.13175e-09 0)
(0 0 0)
(-9.70557e-11 -4.48851e-09 0)
(-4.02844e-11 -2.10673e-09 0)
(3.23576e-11 -1.51503e-09 0)
(3.15872e-11 -2.54878e-09 0)
(-3.4359e-12 -1.33941e-09 0)
(-5.32883e-11 -2.15512e-09 0)
(-6.676e-11 -2.50697e-09 0)
(-3.42699e-11 -1.82542e-09 0)
(1.01087e-10 -4.49843e-09 0)
(-1.39386e-11 -2.04505e-09 0)
(-4.0511e-11 -2.18975e-09 0)
(0 0 0)
(4.36701e-12 -2.20714e-09 0)
(-2.26941e-11 -2.39432e-09 0)
(0 0 0)
(-1.25411e-10 -2.10646e-09 0)
(-1.39567e-10 -2.22408e-09 0)
(-4.54923e-11 -2.31554e-09 0)
(2.52849e-11 -2.27426e-09 0)
(2.3163e-11 -2.14851e-09 0)
(-7.20795e-11 -4.837e-09 0)
(-1.24346e-10 -1.93421e-09 0)
(-8.16732e-11 -4.9226e-09 0)
(1.1236e-10 -1.91405e-09 0)
(5.25154e-11 -2.03026e-09 0)
(-1.17406e-10 -2.58081e-09 0)
(0 0 0)
(1.82949e-10 -1.89751e-09 0)
(1.73249e-10 -2.15253e-09 0)
(1.81796e-10 -2.30735e-09 0)
(7.01093e-11 -2.4231e-09 0)
(-7.39117e-11 -2.15121e-09 0)
(-6.13139e-11 -2.10747e-09 0)
(-2.39576e-11 -5.25371e-09 0)
(-1.66232e-11 -1.82984e-09 0)
(-6.8967e-12 -2.09761e-09 0)
(6.84056e-12 -5.22253e-09 0)
(2.7776e-11 -1.9722e-09 0)
(-1.01493e-10 -1.86109e-09 0)
(-6.55863e-11 -1.98726e-09 0)
(2.32805e-11 -2.21758e-09 0)
(2.5585e-11 -2.18858e-09 0)
(7.79124e-12 -2.30056e-09 0)
(0 0 0)
(0 0 0)
(0 0 0)
(0 0 0)
(0 0 0)
(0 0 0)
(0 0 0)
(0 0 0)
(0 0 0)
(0 0 0)
(0 0 0)
(0 0 0)
(0 0 0)
(0 0 0)
(0 0 0)
(0 0 0)
(-1.95685e-10 -2.17711e-09 0)
(-3.78716e-11 -2.07195e-09 0)
(-6.31947e-12 -5.89208e-10 0)
(6.21776e-12 -2.32309e-09 0)
(6.8288e-11 -3.47889e-09 0)
(3.42923e-11 -2.05443e-09 0)
(1.07633e-12 -2.17773e-09 0)
(2.18153e-11 -2.4792e-09 0)
(6.89145e-11 -2.20822e-09 0)
(-3.17131e-11 -2.08814e-09 0)
(-1.37135e-10 -2.23621e-09 0)