/*--------------------------------*- C++ -*----------------------------------*\
  =========                 |
  \\      /  F ield         | OpenFOAM: The Open Source CFD Toolbox
   \\    /   O peration     | Website:  https://openfoam.org
    \\  /    A nd           | Version:  12
     \\/     M anipulation  |
\*---------------------------------------------------------------------------*/
FoamFile
{
    format      ascii;
    class       volScalarField::Internal;
    location    "0.3";
    object      cloud:UCoeff;
}
// * * * * * * * * * * * * * * * * * * * * * * * * * * * * * * * * * * * * * //

dimensions      [1 0 0 0 0 0 0];

value           nonuniform List<scalar> 
3750
(
1.56264e-07
6.52932e-08
6.43763e-08
6.46533e-08
6.41509e-08
6.39691e-08
6.50421e-08
1.59032e-08
3.36071e-08
6.61357e-08
6.60792e-08
6.54291e-08
6.46099e-08
6.46483e-08
1.51265e-07
6.40254e-08
6.23096e-08
6.53577e-08
6.49829e-08
1.67157e-07
6.53024e-08
6.33437e-08
6.49521e-08
6.56005e-08
6.44341e-08
6.47108e-08
6.39738e-08
6.53465e-08
6.71992e-08
6.63139e-08
6.46528e-08
6.70623e-08
1.25336e-07
8.02748e-08
6.39041e-08
6.53754e-08
6.76634e-08
0
6.6204e-08
6.63352e-08
6.46768e-08
6.71546e-08
6.17916e-08
6.36951e-08
6.54191e-08
1.93414e-08
2.82766e-08
6.66801e-08
6.72747e-08
6.7673e-08
6.64478e-08
8.20695e-08
1.42245e-07
6.60559e-08
6.76171e-08
6.60626e-08
6.52946e-08
6.51153e-08
6.64495e-08
6.769e-08
6.49768e-08
1.30238e-08
3.91678e-08
6.61318e-08
0
1.60714e-07
0
0
0
0
0
0
0
0
0
6.59877e-08
6.56455e-08
6.56239e-08
3.66796e-09
5.97989e-08
1.50128e-07
6.39374e-08
6.45397e-08
6.53329e-08
6.5702e-08
6.5563e-08
6.48892e-08
0
6.41521e-08
6.73916e-08
1.14682e-07
8.80425e-08
6.40456e-08
0
6.79555e-08
2.46032e-08
5.59819e-08
8.48994e-08
8.85132e-08
6.63732e-08
1.32928e-07
6.19469e-08
6.15455e-08
6.46071e-08
6.59405e-08
6.52604e-08
0
6.3924e-08
6.2414e-08
6.36582e-08
6.43151e-08
6.5155e-08
6.48967e-08
9.13535e-08
3.59432e-08
6.53458e-08
0
6.1696e-08
1.50499e-07
2.5338e-07
6.1631e-08
6.25647e-08
1.61989e-07
0
6.41472e-08
0
6.37033e-08
6.42866e-08
6.5652e-08
6.6521e-08
0
6.40581e-08
6.33092e-08
6.30858e-08
2.52553e-07
5.54259e-08
0
0
0
0
0
0
0
0
0
0
0
0
0
0
5.46895e-08
6.9981e-08
1.55867e-07
6.21156e-08
6.32901e-08
6.48297e-08
6.47206e-08
6.32076e-08
6.74606e-08
6.81911e-08
6.56272e-08
6.51563e-08
6.33182e-08
6.41312e-08
1.51379e-07
6.22437e-08
6.2619e-08
1.67779e-08
1.26449e-07
2.47377e-08
1.02511e-07
7.19558e-08
5.59562e-08
6.52838e-08
6.49739e-08
6.446e-08
6.17154e-08
6.40487e-08
7.07547e-08
0
6.34338e-08
6.43611e-08
6.48046e-08
6.54333e-08
6.52122e-08
6.45782e-08
1.56083e-07
6.09422e-08
6.17695e-08
1.58277e-07
6.16744e-08
6.21383e-08
6.25214e-08
6.41673e-08
6.49991e-08
6.19022e-08
6.01794e-08
9.71587e-09
4.94579e-08
6.87932e-08
6.50184e-08
6.39538e-08
6.46867e-08
6.49581e-08
1.63461e-07
6.99127e-08
1.4651e-07
6.1696e-08
6.46258e-08
0
0
0
0
0
0
0
0
0
0
0
0
0
0
0
0
5.75668e-08
6.35388e-08
6.42951e-08
1.55219e-07
6.40509e-08
6.26905e-08
6.47579e-08
6.39924e-08
6.45819e-08
6.6508e-08
1.59555e-07
6.01388e-08
3.18285e-08
3.96654e-08
3.05568e-08
6.32635e-08
6.48805e-08
6.48622e-08
6.53541e-08
6.53018e-08
6.34026e-08
6.59172e-08
0
6.30634e-08
6.36169e-08
6.26664e-08
5.82958e-08
6.21205e-08
6.95416e-08
1.79658e-08
3.60273e-08
7.95289e-08
9.47426e-08
1.00671e-07
6.28768e-08
6.72381e-08
1.47095e-07
6.24567e-08
6.28082e-08
6.36954e-08
6.37492e-08
6.43243e-08
6.41517e-08
6.04692e-08
2.8974e-08
9.07453e-08
6.09149e-08
6.85988e-08
6.87286e-08
1.13412e-08
4.42565e-08
6.36468e-08
6.44751e-08
6.60092e-08
7.74609e-08
1.4074e-07
5.91898e-08
1.55651e-07
6.17995e-08
0
0
0
0
0
0
0
0
0
0
0
0
0
0
0
0
6.42998e-08
6.40052e-08
6.03222e-08
1.51936e-07
6.25022e-08
6.2034e-08
6.30619e-08
6.18932e-08
1.61195e-07
6.70498e-08
0
6.38687e-08
6.35497e-08
6.55729e-08
0
6.289e-08
6.19332e-08
0
6.29126e-08
9.67756e-08
1.14452e-07
6.66782e-08
2.53856e-08
1.84353e-08
6.42265e-08
6.42226e-08
6.37738e-08
6.29441e-08
6.87778e-08
6.81974e-08
6.25854e-08
6.16952e-08
6.34094e-08
7.48294e-08
1.50359e-07
6.12741e-08
6.17509e-08
2.42621e-09
5.99183e-08
6.82213e-08
6.58083e-08
6.49878e-08
6.71658e-08
6.0242e-08
6.27135e-08
6.37986e-08
6.36453e-08
6.53524e-08
6.66828e-08
1.0572e-07
1.14989e-07
6.25216e-08
6.69766e-08
0
0
6.70251e-08
6.30738e-08
6.28765e-08
6.38361e-08
6.09589e-08
0
0
0
0
0
0
0
0
0
0
0
0
0
0
0
6.42502e-08
6.47224e-08
6.49971e-08
6.5141e-08
6.47911e-08
6.71155e-08
1.55511e-07
3.23084e-08
8.67389e-08
6.38238e-08
6.60327e-08
6.50348e-08
0
6.50893e-08
6.48496e-08
6.52693e-08
0
6.34098e-08
6.37023e-08
6.51933e-08
6.47744e-08
6.60007e-08
6.5002e-08
6.39849e-08
6.37058e-08
6.42668e-08
6.47153e-08
6.47718e-08
6.45955e-08
6.58433e-08
6.50247e-08
6.49885e-08
1.58281e-07
6.68044e-08
6.37105e-08
6.01405e-08
5.98346e-08
6.21932e-08
6.27942e-08
6.2183e-08
3.06555e-08
8.66406e-09
6.41212e-08
6.35595e-08
6.24913e-08
6.18966e-08
6.43507e-08
6.7041e-08
8.45514e-08
1.44278e-07
6.66345e-08
6.24792e-08
6.22369e-08
0
1.75259e-07
1.40264e-07
0
0
6.12925e-08
6.24448e-08
0
0
0
0
0
0
0
0
0
0
0
0
0
0
0
6.44842e-08
6.45334e-08
6.45657e-08
6.54685e-08
6.81154e-08
2.80569e-08
1.76972e-08
1.09761e-07
1.07064e-07
1.63874e-08
8.15371e-08
9.98557e-08
6.59965e-08
6.56061e-08
0
6.22534e-08
6.43765e-08
6.50308e-08
6.84391e-08
1.97478e-08
1.14596e-07
6.24165e-08
6.05923e-08
6.27507e-08
6.32586e-08
1.15647e-07
9.06987e-08
6.3903e-08
6.48563e-08
6.67637e-08
6.60344e-08
6.5581e-08
6.53948e-08
6.5507e-08
6.54419e-08
6.22972e-08
6.26348e-08
6.4472e-08
6.34387e-08
6.49233e-08
6.50897e-08
6.34965e-08
6.42594e-08
6.43701e-08
6.25708e-08
6.47906e-08
7.08453e-08
1.57632e-08
7.4988e-08
1.14304e-07
6.41822e-08
6.51034e-08
6.31995e-08
6.27691e-08
6.25808e-08
1.55926e-07
6.60368e-08
6.38958e-08
6.26625e-08
6.33417e-08
0
0
0
0
0
0
0
0
0
0
0
0
0
0
0
6.20421e-08
6.34388e-08
6.34966e-08
6.41531e-08
6.92705e-08
6.91887e-08
0
6.58358e-08
6.58235e-08
6.59475e-08
6.48344e-08
6.48893e-08
8.09279e-08
8.34163e-08
3.40601e-08
6.35264e-08
6.37456e-08
1.61127e-07
6.29847e-08
6.08504e-08
0
8.03281e-08
1.34522e-07
6.07918e-08
1.62732e-07
6.27055e-08
7.59996e-08
4.8656e-08
6.29974e-08
6.56409e-08
6.75817e-08
6.53145e-08
3.35209e-08
1.70273e-09
6.2894e-08
6.49216e-08
6.45824e-08
6.32081e-08
6.40348e-08
1.58481e-07
6.15186e-08
2.61114e-08
9.93829e-08
6.49664e-08
0
6.01176e-08
7.13853e-08
7.24587e-09
5.28717e-08
6.51926e-08
6.49953e-08
1.58984e-07
6.13929e-08
6.17006e-08
6.26579e-08
6.60057e-08
6.83171e-08
1.4796e-07
6.15933e-08
6.33476e-08
6.52447e-08
0
0
0
0
0
0
0
0
0
0
0
0
0
0
6.3324e-08
6.09375e-08
6.33726e-08
6.45019e-08
6.901e-08
0
6.88238e-08
6.43674e-08
6.41238e-08
6.42094e-08
9.00108e-08
1.33293e-07
6.38808e-08
6.43287e-08
6.36728e-08
6.20701e-08
6.20198e-08
1.62186e-07
6.27006e-08
6.04227e-08
6.1465e-08
6.21629e-08
5.94903e-08
6.33121e-08
6.47297e-08
1.62465e-07
6.19471e-08
6.1417e-08
6.54403e-08
6.89473e-08
0
6.4829e-08
6.3469e-08
2.69547e-08
1.29907e-08
6.40552e-08
6.45765e-08
6.36109e-08
1.24839e-07
7.7277e-08
6.12388e-08
6.24438e-08
6.53784e-08
6.47192e-08
6.32061e-08
6.00731e-08
6.67338e-08
0
6.44843e-08
6.53553e-08
6.50131e-08
6.52913e-08
6.45567e-08
6.29454e-08
6.54862e-08
6.96532e-08
1.49993e-08
3.72937e-08
6.33946e-08
6.33382e-08
6.44645e-08
0
0
0
0
0
0
0
0
0
0
0
0
0
0
1.28207e-07
7.77736e-08
6.57871e-08
3.21657e-08
2.28007e-08
8.26961e-08
7.93745e-08
2.74919e-08
6.26855e-08
6.8993e-08
1.09813e-07
1.09995e-07
6.26324e-08
6.25062e-08
6.29885e-08
6.62211e-08
1.48464e-07
6.22001e-08
1.14712e-07
8.70873e-08
6.29536e-08
6.34985e-08
6.85556e-08
6.71408e-08
3.52845e-08
8.1338e-08
6.21661e-08
6.30634e-08
6.52352e-08
0
6.58602e-08
6.65147e-08
6.46603e-08
9.86978e-10
6.22328e-08
6.40272e-08
6.62217e-08
6.5248e-08
6.30308e-08
7.21138e-08
1.33284e-07
6.07627e-08
6.39266e-08
6.56794e-08
6.49029e-08
6.44908e-08
1.97022e-08
2.84623e-08
6.65762e-08
6.58309e-08
6.45194e-08
6.46332e-08
0
6.45395e-08
6.52973e-08
6.96639e-08
5.01322e-09
1.52695e-07
6.60572e-08
2.5269e-08
6.4588e-08
1.5865e-08
0
0
0
0
0
0
0
0
0
0
0
0
0
6.51688e-08
6.46554e-08
6.4588e-08
6.77396e-08
0
6.69478e-08
6.55101e-08
6.40904e-08
6.62631e-08
6.78282e-08
6.76088e-08
0
1.54051e-07
6.14949e-08
6.40422e-08
6.44841e-08
1.53057e-07
6.17316e-08
1.51933e-07
6.15627e-08
6.29388e-08
6.46148e-08
6.52919e-08
6.54918e-08
6.63309e-08
6.78405e-08
6.32918e-08
6.31614e-08
1.59878e-07
6.63476e-08
6.73575e-08
0
8.54579e-08
5.11466e-08
5.5691e-08
6.47631e-08
6.59004e-08
6.69436e-08
0
6.38585e-08
6.26933e-08
6.27242e-08
1.61562e-07
6.33704e-08
6.33656e-08
6.35855e-08
6.51135e-08
6.59389e-08
6.90164e-08
6.50338e-08
6.43631e-08
6.53039e-08
0
6.56261e-08
6.56347e-08
0
6.49283e-08
6.76887e-08
6.80871e-08
6.41149e-08
6.67547e-08
6.40557e-08
0
0
0
0
0
0
0
0
0
0
0
0
0
8.44222e-08
4.40017e-08
6.36908e-08
6.5601e-08
6.4755e-08
6.36732e-08
0
1.51988e-07
1.61985e-07
0
6.61229e-08
6.62997e-08
6.52239e-08
6.48792e-08
6.37333e-08
6.33854e-08
6.37805e-08
1.2404e-07
7.81406e-08
6.272e-08
6.30586e-08
6.54362e-08
6.54245e-08
6.48232e-08
6.57509e-08
6.45499e-08
6.42241e-08
6.43673e-08
0
6.59481e-08
6.60907e-08
6.75119e-08
6.85403e-08
1.13567e-07
2.11731e-08
5.73334e-08
6.3672e-08
6.93561e-08
4.70014e-09
5.46871e-08
6.11978e-08
6.36019e-08
8.99303e-08
1.37736e-07
6.31293e-08
6.27522e-08
6.39423e-08
6.54506e-08
6.47405e-08
6.43143e-08
5.88344e-08
6.62952e-08
0
6.51305e-08
6.51088e-08
0
1.52866e-07
6.63566e-08
6.49337e-08
6.4016e-08
6.45313e-08
6.43968e-08
0
0
0
0
0
0
0
0
0
0
0
0
0
6.31248e-08
6.40029e-08
6.37182e-08
6.34126e-08
6.63623e-08
6.4554e-08
6.45406e-08
1.79156e-09
6.17916e-08
6.36577e-08
7.41444e-09
1.44878e-07
6.30933e-08
6.27255e-08
0
0
0
0
0
0
6.82165e-08
6.85029e-08
0
6.41841e-08
6.48384e-08
6.829e-08
6.39666e-08
6.9517e-08
6.79511e-08
6.36571e-08
6.18512e-08
8.01239e-08
1.26621e-07
6.31988e-08
6.35799e-08
6.33415e-08
6.42859e-08
6.64888e-08
6.40587e-08
6.11342e-08
6.16575e-08
6.72403e-08
6.98722e-08
6.62846e-08
6.36251e-08
6.35755e-08
6.43943e-08
6.42585e-08
6.4898e-08
6.4532e-08
6.50228e-08
3.22398e-11
6.59175e-08
6.49767e-08
6.42321e-08
1.52741e-07
8.16895e-08
1.3329e-07
6.40266e-08
6.38025e-08
6.46744e-08
0
0
0
0
0
0
0
0
0
0
0
0
0
0
6.60081e-08
6.41988e-08
6.56694e-08
6.67213e-08
1.20677e-07
8.38407e-08
6.28188e-08
6.45047e-08
6.52104e-08
6.5848e-08
6.47876e-08
6.41906e-08
6.54762e-08
3.0593e-08
8.17061e-08
6.13528e-08
6.30784e-08
6.36264e-08
6.38974e-08
1.5776e-07
6.18629e-08
6.54442e-08
6.57121e-08
0
6.32793e-08
6.36878e-08
6.336e-08
6.56315e-08
6.55123e-08
6.48666e-08
1.53084e-07
6.34699e-08
1.57089e-07
6.26889e-08
6.24982e-08
6.38967e-08
0
1.60171e-07
6.17455e-08
6.02301e-08
6.19535e-08
6.6126e-08
7.08768e-08
6.84032e-08
2.63236e-08
1.60696e-08
6.42642e-08
7.96621e-08
1.34402e-07
6.35002e-08
6.39168e-08
6.40424e-08
6.48955e-08
0
0
0
6.9096e-08
6.62877e-08
6.40285e-08
6.21435e-08
0
0
0
0
0
0
0
0
0
0
0
0
0
0
0
6.57748e-08
6.48016e-08
6.49317e-08
6.53471e-08
6.53529e-08
6.52676e-08
6.33853e-08
6.48268e-08
6.50677e-08
9.23099e-08
3.73128e-08
6.60453e-08
6.57205e-08
6.5815e-08
0
1.48791e-07
6.28116e-08
9.4035e-08
1.11127e-07
6.29561e-08
6.8702e-08
0
7.09323e-08
1.10572e-07
8.31785e-08
6.22839e-08
6.47263e-08
6.461e-08
6.50031e-08
6.90398e-08
6.50079e-08
6.41935e-08
6.46529e-08
6.5773e-08
6.51065e-08
6.39136e-08
6.40483e-08
6.41922e-08
1.55793e-07
6.04836e-08
6.22863e-08
0
6.6447e-08
6.82034e-08
6.57739e-08
6.45673e-08
6.426e-08
6.58192e-08
6.32702e-08
1.03924e-07
1.08036e-07
6.23046e-08
6.38319e-08
6.48854e-08
1.50122e-07
1.61886e-07
6.65954e-08
0
6.56671e-08
0
0
0
0
0
0
0
0
0
0
0
0
0
0
0
0
6.47295e-08
6.57954e-08
6.49467e-08
6.51409e-08
6.42862e-08
6.41949e-08
1.22407e-08
1.35956e-07
6.38062e-08
6.37509e-08
6.44976e-08
6.5649e-08
6.58659e-08
6.49627e-08
6.36709e-08
0
1.50008e-07
6.339e-08
5.61757e-08
6.81672e-08
3.4472e-08
6.47601e-08
8.26263e-08
6.00969e-08
1.5014e-07
6.26829e-08
6.43213e-08
0
6.45102e-08
6.65444e-08
0
6.34247e-08
6.4746e-08
6.57021e-08
6.52498e-08
6.3858e-08
1.5377e-07
6.14398e-08
1.54735e-07
6.11933e-08
6.25199e-08
6.85232e-08
0
6.10631e-08
6.39803e-08
6.56859e-08
6.68598e-08
6.39011e-08
6.45419e-08
1.56662e-07
6.01458e-08
6.32822e-08
1.57841e-07
6.18401e-08
6.05557e-08
6.20264e-08
6.4627e-08
6.43056e-08
6.55352e-08
0
0
0
0
0
0
0
0
0
0
0
0
0
0
0
0
6.42748e-08
6.29942e-08
1.70457e-08
6.97104e-08
1.09162e-07
6.27932e-08
6.41833e-08
6.74409e-08
6.45341e-08
6.31772e-08
6.48776e-08
6.54707e-08
1.07234e-07
3.18146e-08
5.48544e-08
6.456e-08
6.40108e-08
6.36912e-08
6.44455e-08
0
6.80616e-08
6.57009e-08
6.35005e-08
1.59067e-07
6.31166e-08
6.56618e-08
1.14347e-08
4.50752e-08
6.66553e-08
6.38357e-08
0
6.50989e-08
6.41452e-08
6.46855e-08
6.29689e-08
1.58552e-07
6.16879e-08
6.29598e-08
6.34933e-08
6.2755e-08
6.36739e-08
6.56484e-08
1.53689e-07
6.34595e-08
6.42455e-08
6.7597e-08
6.60767e-08
6.37458e-08
6.29502e-08
6.45505e-08
6.51192e-08
1.52781e-07
6.1484e-08
1.62476e-07
6.24096e-08
6.29968e-08
6.55147e-08
6.66992e-08
6.49651e-08
0
0
0
0
0
0
0
0
0
0
0
0
0
0
0
0
6.34927e-08
6.53814e-08
0
6.54838e-08
6.14801e-08
6.40132e-08
6.38177e-08
8.85689e-08
1.30434e-07
6.3777e-08
8.95341e-08
8.85859e-08
9.51232e-08
6.43852e-08
6.24332e-08
2.03408e-08
2.41954e-08
6.33541e-08
6.33733e-08
6.52977e-08
6.6871e-08
6.60311e-08
6.63069e-08
6.25299e-08
6.38122e-08
6.58193e-08
3.51977e-08
2.20371e-09
6.62249e-08
6.59612e-08
6.58805e-08
6.6116e-08
6.44213e-08
6.35093e-08
6.46544e-08
6.40054e-08
6.39117e-08
6.42999e-08
6.46231e-08
6.43124e-08
6.58723e-08
6.21588e-08
6.30932e-08
6.37484e-08
6.48292e-08
6.51814e-08
6.57406e-08
6.48913e-08
6.44207e-08
0
6.50188e-08
6.37852e-08
6.25956e-08
6.51681e-08
6.4664e-08
1.1475e-07
9.42491e-08
6.69029e-08
6.48951e-08
0
0
0
0
0
0
0
0
0
0
0
0
0
0
0
0
6.44427e-08
6.26032e-08
6.47994e-08
6.524e-08
6.43793e-08
6.4749e-08
6.43409e-08
1.62387e-07
6.3753e-08
6.31557e-08
9.01929e-08
1.19313e-07
6.32147e-08
6.37521e-08
6.29326e-08
6.29932e-08
6.37905e-08
6.42844e-08
6.69456e-08
3.50951e-08
2.16257e-09
6.51441e-08
6.45209e-08
6.39834e-08
6.44795e-08
6.41216e-08
6.48725e-08
6.47582e-08
6.5348e-08
1.13776e-07
9.78624e-08
2.52494e-08
1.9547e-08
6.46306e-08
6.53846e-08
6.55889e-08
0
6.26213e-08
6.47392e-08
6.50905e-08
0
6.40536e-08
6.37838e-08
6.23224e-08
1.59203e-07
6.50835e-08
6.26593e-08
6.22009e-08
6.31885e-08
2.73571e-07
6.16618e-08
6.31672e-08
6.68909e-08
8.15659e-08
1.34413e-07
6.30718e-08
6.21279e-08
6.46293e-08
6.56849e-08
0
0
0
0
0
0
0
0
0
0
0
0
0
0
0
0
6.0254e-08
6.76272e-08
6.57414e-08
6.44786e-08
1.53221e-07
6.29064e-08
6.44486e-08
1.66241e-07
6.45396e-08
6.24625e-08
6.21918e-08
6.69712e-08
1.49178e-07
6.2843e-08
6.27713e-08
6.2703e-08
6.22029e-08
6.58278e-08
6.16835e-08
2.4706e-08
1.88549e-08
6.10861e-08
6.54316e-08
6.56769e-08
6.5121e-08
6.29064e-08
6.33784e-08
6.54353e-08
6.48984e-08
1.22595e-07
1.07343e-08
6.31426e-08
6.65027e-08
6.54373e-08
6.4735e-08
0
6.31505e-08
6.38561e-08
6.47059e-08
6.53443e-08
6.48141e-08
9.77149e-08
1.13805e-07
6.17347e-08
6.90324e-08
1.53304e-07
6.22894e-08
6.18704e-08
6.72201e-08
7.14662e-09
5.32155e-08
6.49149e-08
6.47986e-08
6.51215e-08
1.61923e-07
6.17516e-08
6.16694e-08
1.14215e-07
1.36642e-08
0
0
0
0
0
0
0
0
0
0
0
0
0
0
0
0
1.01322e-07
1.59837e-07
6.42746e-08
6.38469e-08
6.44198e-08
6.5088e-08
9.19419e-08
1.32162e-07
6.29368e-08
6.05967e-08
6.13106e-08
6.26963e-08
9.09307e-08
1.18557e-07
6.11099e-08
6.30368e-08
6.34219e-08
6.54501e-08
6.76092e-08
6.76933e-08
6.44707e-08
6.17193e-08
6.26511e-08
6.8033e-08
0
6.60906e-08
6.32263e-08
6.50059e-08
6.55308e-08
6.47834e-08
6.54981e-08
6.41893e-08
6.68626e-08
6.61512e-08
6.47308e-08
0
6.37047e-08
6.47219e-08
6.48997e-08
6.53255e-08
6.29722e-08
1.58893e-07
6.16922e-08
7.21391e-08
1.43869e-07
6.49207e-08
6.52623e-08
6.39333e-08
2.35852e-08
2.23236e-08
6.5919e-08
6.63567e-08
6.64066e-08
6.85899e-08
0
0
0
1.60628e-07
6.29538e-08
6.14484e-08
0
0
0
0
0
0
0
0
0
0
0
0
0
0
0
6.52103e-08
6.61253e-08
6.56047e-08
6.54327e-08
6.57188e-08
6.66442e-08
6.75488e-08
6.63255e-08
6.20783e-08
6.17806e-08
6.14288e-08
6.35389e-08
6.27632e-08
6.36932e-08
6.29779e-08
6.39191e-08
1.0287e-07
1.09704e-07
6.76747e-08
6.60182e-08
6.13019e-08
6.03929e-08
6.22976e-08
6.80714e-08
0
6.50657e-08
6.46165e-08
6.56745e-08
6.45002e-08
6.86583e-08
6.65219e-08
6.47545e-08
6.40699e-08
6.55768e-08
6.45162e-08
6.39884e-08
6.36412e-08
6.38951e-08
6.36791e-08
6.39457e-08
6.41823e-08
6.43902e-08
6.54421e-08
1.09655e-07
1.01876e-07
6.79847e-08
3.19808e-08
9.79991e-09
6.14347e-08
6.46789e-08
6.36945e-08
6.79561e-08
1.04872e-08
4.74008e-08
6.56988e-08
1.01343e-07
1.16954e-07
5.75475e-08
6.55303e-08
6.56825e-08
6.44796e-08
6.40719e-08
0
0
0
0
0
0
0
0
0
0
0
0
0
6.36858e-08
6.45947e-08
6.47866e-08
6.53313e-08
6.53829e-08
6.66422e-08
6.83845e-08
0
0
0
0
0
0
6.43031e-08
6.57028e-08
6.42844e-08
6.42608e-08
6.36354e-08
6.5029e-08
6.65064e-08
6.10004e-08
5.97889e-08
6.56856e-08
7.63606e-08
4.9285e-08
6.58649e-08
6.46636e-08
6.56295e-08
6.51342e-08
6.53669e-08
6.51279e-08
6.39436e-08
6.31815e-08
1.6205e-07
6.35851e-08
6.28965e-08
6.33991e-08
6.44486e-08
6.39166e-08
6.40469e-08
6.65878e-08
2.83199e-08
1.67515e-08
7.30137e-08
5.65892e-08
6.68162e-08
7.07917e-08
0
1.17078e-07
9.54675e-08
0
6.45016e-08
6.55037e-08
6.65833e-08
6.53709e-08
6.45765e-08
0
6.51374e-08
6.7765e-08
6.61505e-08
7.47917e-08
5.35801e-08
0
0
0
0
0
0
0
0
0
0
0
0
0
6.22129e-08
6.30147e-08
6.50224e-08
6.49049e-08
1.0471e-07
1.12775e-07
0
1.57878e-07
6.36054e-08
6.3402e-08
6.37987e-08
6.39876e-08
1.17663e-07
1.01493e-08
6.31274e-08
6.37661e-08
9.57784e-08
7.04378e-08
7.9317e-08
9.98323e-08
6.38773e-08
6.00529e-08
6.19346e-08
6.4951e-08
6.52642e-08
6.40199e-08
6.65824e-08
6.64025e-08
1.05066e-07
1.04203e-07
6.20086e-08
1.42672e-07
6.06836e-08
6.92227e-08
6.67282e-08
1.16449e-09
6.28379e-08
6.35479e-08
6.30206e-08
6.27896e-08
6.47118e-08
0
6.56749e-08
6.96505e-08
1.97255e-08
3.19036e-08
6.52026e-08
6.37193e-08
6.37368e-08
6.56546e-08
6.65525e-08
3.4651e-08
8.58925e-08
6.65888e-08
6.1796e-08
6.19457e-08
6.78719e-08
3.10591e-08
9.45519e-08
6.18696e-08
6.08977e-08
0
0
0
0
0
0
0
0
0
0
0
0
0
0
6.30676e-08
6.31916e-08
6.47907e-08
6.58236e-08
6.60171e-08
1.65416e-07
6.81573e-08
2.82611e-08
8.71324e-08
6.36727e-08
6.41988e-08
6.734e-08
6.28658e-08
6.26592e-08
2.70525e-08
1.26245e-08
6.40428e-08
6.46374e-08
6.53547e-08
6.50851e-08
1.59427e-07
6.28069e-08
6.23082e-08
6.12783e-08
6.41703e-08
1.56918e-07
6.13268e-08
6.12523e-08
1.17404e-07
8.70096e-08
6.24568e-08
6.30428e-08
6.26919e-08
6.47004e-08
6.87167e-08
0
6.63066e-08
6.20394e-08
1.39047e-08
1.24608e-07
6.73986e-08
6.75797e-08
0
6.46432e-08
6.82057e-08
0
6.4712e-08
6.38228e-08
6.31386e-08
6.6161e-08
1.17482e-08
1.06691e-07
8.13695e-08
6.41272e-08
6.42696e-08
6.3345e-08
6.34324e-08
1.58779e-07
6.12135e-08
6.34931e-08
0
0
0
0
0
0
0
0
0
0
0
0
0
0
0
0
0
6.58541e-08
6.62563e-08
0
0
0
6.54412e-08
1.09412e-07
6.29633e-08
1.78554e-08
1.49779e-07
6.01585e-08
3.32755e-08
2.79663e-09
6.5946e-08
6.5216e-08
6.5117e-08
6.67694e-08
6.56453e-08
6.32365e-08
6.35643e-08
1.57225e-07
1.23187e-08
9.68364e-08
8.80488e-08
6.1989e-08
1.4998e-07
1.55469e-07
6.13733e-08
6.12976e-08
6.21513e-08
6.72529e-08
5.59372e-09
5.57047e-08
6.46042e-08
1.55597e-07
6.30973e-08
6.04399e-08
6.27156e-08
6.66809e-08
6.86275e-08
2.21077e-08
1.12287e-07
1.58496e-08
3.75317e-08
6.43529e-08
6.40806e-08
6.38691e-08
1.62842e-07
6.38535e-08
6.41884e-08
6.40614e-08
6.48133e-08
6.47326e-08
6.458e-08
6.49799e-08
6.54121e-08
6.57289e-08
6.53357e-08
0
0
0
0
0
0
0
0
0
0
0
0
0
0
0
6.42268e-08
6.52328e-08
0
6.78026e-08
6.63701e-08
6.57032e-08
6.60053e-08
0
6.34307e-08
1.20725e-07
1.42628e-07
2.05973e-08
5.89498e-08
6.51768e-08
6.26856e-08
6.13173e-08
1.52506e-07
6.56679e-08
6.64477e-08
6.69512e-08
6.4559e-08
6.41632e-08
6.47061e-08
1.02968e-07
1.05806e-07
0
0
0
6.39559e-08
1.57162e-07
6.17955e-08
6.24176e-08
6.51836e-08
6.58204e-08
6.45118e-08
6.24155e-08
0
0
6.40835e-08
6.47296e-08
6.58505e-08
6.61157e-08
6.64045e-08
6.646e-08
6.5479e-08
6.28988e-08
6.36603e-08
1.24235e-07
1.53135e-08
5.53769e-08
6.49425e-08
6.60148e-08
6.54623e-08
6.4989e-08
6.45002e-08
6.41585e-08
6.46287e-08
6.4997e-08
6.1566e-08
6.7169e-08
0
0
0
0
0
0
0
0
0
0
0
0
0
0
0
6.17588e-08
6.30662e-08
6.36211e-08
1.67175e-07
6.70423e-08
6.51193e-08
6.42449e-08
6.45147e-08
0
6.51118e-08
6.18578e-08
6.52808e-08
6.49602e-08
1.90518e-08
2.72226e-08
0
0
6.2754e-08
1.62952e-07
6.61584e-08
6.45781e-08
6.29876e-08
6.35704e-08
6.34442e-08
6.27789e-08
2.94616e-08
9.05624e-08
6.33455e-08
0
6.39651e-08
6.53575e-08
6.42259e-08
1.58158e-07
6.26209e-08
6.24473e-08
6.3955e-08
6.28909e-08
1.49565e-07
1.46652e-07
5.87955e-08
6.34943e-08
1.53684e-07
6.44174e-08
6.60261e-08
8.40107e-08
6.09275e-08
7.3825e-08
6.00904e-08
4.01565e-08
6.35011e-08
6.91474e-08
0
6.44306e-08
6.56854e-08
6.42594e-08
6.43018e-08
7.67565e-08
1.48676e-07
6.44765e-08
3.29504e-08
6.61726e-09
0
0
0
0
0
0
0
0
0
0
0
0
0
0
6.42141e-08
6.56992e-08
6.47868e-08
9.91617e-08
1.2609e-07
2.63562e-08
1.63538e-08
6.28809e-08
1.51249e-07
6.46957e-08
6.51416e-08
6.57961e-08
0
6.4451e-08
6.42976e-08
6.32596e-08
6.36451e-08
1.56195e-07
6.33851e-08
6.54977e-08
6.69547e-08
6.58597e-08
7.36939e-08
1.013e-07
1.46362e-08
1.60009e-07
6.38816e-08
7.1436e-08
1.42089e-07
6.09224e-08
6.29263e-08
6.3951e-08
6.3048e-08
6.45851e-08
6.35645e-08
6.34831e-08
1.50382e-07
6.29191e-08
0
8.65964e-08
1.26815e-07
6.41222e-08
1.6026e-07
6.35196e-08
7.99889e-08
1.07054e-07
5.88009e-09
1.4938e-07
1.52514e-07
6.41969e-08
0
9.05589e-08
4.52015e-08
6.53233e-08
6.50742e-08
6.4756e-08
6.90639e-08
0
0
1.58055e-07
6.35949e-08
0
0
0
0
0
0
0
0
0
0
0
0
0
0
1.57643e-07
2.36918e-08
2.6527e-08
6.36843e-08
6.64474e-08
9.4093e-08
7.42235e-08
2.41581e-08
6.26371e-08
6.52386e-08
6.3145e-08
6.39318e-08
6.4915e-08
6.41395e-08
6.43174e-08
6.51881e-08
6.30466e-08
6.65114e-08
7.71488e-08
1.42732e-07
6.75444e-08
6.62639e-08
6.1398e-08
5.61376e-08
6.07703e-08
6.46832e-08
6.46075e-08
6.46546e-08
0
6.42438e-08
0
6.26525e-08
6.4561e-08
6.5505e-08
2.82954e-08
1.80963e-07
6.05495e-08
0
6.48046e-08
6.33308e-08
6.58997e-08
0
6.88702e-08
6.5919e-08
6.44265e-08
6.29927e-08
6.39429e-08
0
0
6.48587e-08
6.60778e-08
7.00257e-08
3.27156e-08
8.64932e-09
6.40574e-08
6.41933e-08
6.7859e-08
0
1.52613e-07
6.44358e-08
1.22171e-07
7.48384e-09
0
0
0
0
0
0
0
0
0
0
0
0
0
6.52789e-08
6.43114e-08
6.63755e-08
6.70273e-08
6.41473e-08
6.19427e-08
6.36705e-08
6.22846e-08
6.40543e-08
6.21671e-08
6.32058e-08
6.46088e-08
6.38207e-08
6.32331e-08
6.42103e-08
6.43635e-08
6.39767e-08
6.4962e-08
6.54852e-08
6.60352e-08
6.64251e-08
6.69192e-08
6.49801e-08
0
1.52483e-07
6.40445e-08
6.56343e-08
6.55901e-08
3.11416e-08
8.8715e-09
6.47515e-08
6.53663e-08
6.38499e-08
6.24061e-08
6.13496e-08
0
6.29539e-08
6.40718e-08
1.50571e-07
6.05569e-08
1.53157e-07
6.05461e-08
1.54139e-07
6.53207e-08
6.55445e-08
6.49152e-08
6.54535e-08
6.52032e-08
6.59402e-08
6.48463e-08
6.53486e-08
6.63854e-08
6.73661e-08
8.37184e-08
4.39426e-08
6.43648e-08
6.56482e-08
2.20283e-08
2.34901e-08
6.53131e-08
6.48297e-08
0
0
0
0
0
0
0
0
0
0
0
0
0
0
0
1.61726e-07
6.71679e-08
6.56941e-08
6.28515e-08
6.36293e-08
6.60572e-08
6.55649e-08
1.48417e-07
9.60256e-08
1.18922e-07
6.75985e-08
6.31043e-08
6.2806e-08
6.23827e-08
6.24275e-08
1.50765e-07
6.33639e-08
6.53734e-08
6.58921e-08
6.54879e-08
6.62242e-08
2.6227e-08
9.54658e-08
6.53266e-08
6.73885e-08
6.76644e-08
6.79208e-08
6.46306e-08
6.53188e-08
6.51553e-08
6.46816e-08
6.31604e-08
6.26794e-08
0
1.56653e-07
6.46247e-08
1.52197e-07
6.03345e-08
6.29735e-08
6.61183e-08
6.44486e-08
6.22556e-08
1.01812e-07
3.04586e-08
6.61355e-08
6.49399e-08
6.42619e-08
6.50303e-08
6.49652e-08
6.63085e-08
1.06804e-07
1.03498e-07
6.31917e-08
1.08827e-08
4.47272e-08
1.81267e-08
2.75614e-08
6.6339e-08
6.56282e-08
5.91332e-08
0
0
0
0
0
0
0
0
0
0
0
0
0
0
1.9448e-08
9.02523e-08
6.34773e-09
1.63719e-07
2.64072e-08
3.90588e-08
3.89108e-08
6.53583e-08
7.53666e-08
6.70962e-08
1.40243e-07
6.34025e-08
6.31613e-08
1.62478e-07
6.48368e-08
6.26841e-08
9.66977e-08
1.10769e-07
1.13774e-08
4.49787e-08
6.41404e-08
6.50231e-08
0
6.19691e-08
6.54238e-08
6.14775e-08
6.79946e-08
0
6.47784e-08
6.58862e-08
6.53162e-08
6.28375e-08
6.05828e-08
1.48345e-07
1.51204e-07
1.56342e-07
6.25726e-08
6.26296e-08
6.21911e-08
6.54784e-08
0
6.63142e-08
6.48707e-08
6.56056e-08
6.6075e-08
6.56437e-08
6.53182e-08
6.22678e-08
6.43387e-08
6.50771e-08
6.52201e-08
6.61857e-08
9.32977e-08
7.5e-08
2.54485e-08
1.53385e-07
1.52489e-07
6.22509e-08
2.34142e-08
2.04189e-08
6.69865e-08
0
0
0
0
0
0
0
0
0
0
0
0
0
0
6.7044e-08
6.59911e-08
0
6.45631e-08
1.55347e-07
6.32959e-08
6.69681e-08
6.15752e-08
6.05088e-08
5.75684e-08
0
0
1.2779e-07
8.09366e-08
6.57443e-08
6.05156e-08
5.98672e-08
6.24291e-08
6.52323e-08
8.93158e-09
1.43829e-07
0
6.38357e-08
6.73934e-08
6.48436e-08
6.98895e-08
0
6.62765e-08
6.5683e-08
6.4111e-08
6.42859e-08
1.14951e-07
8.74271e-08
6.22017e-08
0
0
6.52044e-08
6.23576e-08
6.35901e-08
6.17838e-08
6.51187e-08
6.60682e-08
8.46341e-09
5.06832e-08
6.51201e-08
6.50273e-08
6.4085e-08
6.4283e-08
6.41283e-08
6.44527e-08
6.6226e-08
6.64728e-08
6.61057e-08
6.30133e-08
1.52834e-07
6.23821e-08
6.3121e-08
1.52439e-07
6.32056e-08
6.51644e-08
0
0
0
0
0
0
0
0
0
0
0
0
0
0
0
1.02347e-07
6.59169e-08
1.44368e-08
3.86288e-08
6.63299e-08
6.40546e-08
1.50186e-07
0
0
6.39272e-08
1.55151e-07
6.56361e-08
6.3993e-08
6.3427e-08
1.26517e-07
5.87095e-08
6.12123e-09
6.47775e-08
6.55977e-08
6.44108e-08
6.54098e-08
6.67238e-08
6.58691e-08
6.49703e-08
6.45151e-08
6.56544e-08
6.6407e-08
6.49383e-08
8.80182e-08
1.22696e-07
6.41524e-08
6.5097e-08
0
0
1.58889e-07
6.41901e-08
6.52674e-08
6.38997e-08
6.31803e-08
6.42601e-08
6.18021e-08
3.22091e-08
8.82385e-09
6.54904e-08
6.53785e-08
6.46506e-08
6.49992e-08
6.32246e-08
6.33915e-08
6.41554e-08
1.59338e-07
6.85185e-08
0
1.5391e-07
6.141e-08
6.23479e-08
6.48537e-08
0
6.37524e-08
6.66536e-08
0
0
0
0
0
0
0
0
0
0
0
0
0
0
0
6.4986e-08
6.52644e-08
9.31979e-08
3.66028e-08
6.68097e-08
6.59585e-08
1.26564e-08
1.19614e-07
6.38302e-08
0
6.7438e-08
6.59512e-08
0
6.31159e-08
6.42594e-08
6.38884e-08
6.62674e-08
6.46212e-08
1.05677e-07
6.92532e-08
1.06334e-07
6.54867e-08
7.01125e-08
0
6.46013e-08
6.43129e-08
6.45809e-08
1.56483e-07
6.15584e-08
1.13875e-07
9.40044e-08
2.55216e-08
7.81456e-08
4.9635e-08
3.79424e-08
7.56856e-08
1.35526e-07
0
5.62621e-08
6.11512e-08
6.49221e-08
6.72913e-08
6.97948e-08
2.18775e-08
2.64642e-08
6.41498e-08
6.33987e-08
1.5434e-07
6.15659e-08
6.44496e-08
9.30369e-08
3.58414e-08
1.62852e-07
6.29327e-08
6.30123e-08
6.42232e-08
6.33844e-08
1.70865e-08
2.23584e-07
1.28917e-07
3.75145e-09
0
0
0
0
0
0
0
0
0
0
0
0
0
0
6.37699e-08
8.7149e-08
1.33804e-07
6.53212e-08
6.70686e-08
6.42927e-08
6.17045e-08
3.18416e-08
5.68375e-09
6.33405e-08
8.09696e-08
1.41432e-07
1.49192e-07
6.27341e-08
6.37902e-08
9.74592e-09
1.30395e-07
6.25219e-08
6.63286e-08
6.3529e-08
6.52212e-08
6.62877e-08
6.82873e-08
6.47313e-08
6.32527e-08
6.39776e-08
6.25264e-08
6.3219e-08
6.33762e-08
1.23426e-07
3.95277e-08
8.46776e-08
1.6026e-08
5.51206e-08
6.48458e-08
6.69519e-08
6.48957e-08
1.49623e-07
6.08252e-08
6.37855e-08
6.66897e-08
6.62987e-08
6.69226e-08
6.26967e-08
6.07041e-08
6.31129e-08
8.18152e-08
1.31279e-07
6.25078e-08
6.40817e-08
6.46488e-08
6.65026e-08
6.36838e-08
6.31824e-08
6.36228e-08
6.55937e-08
6.53277e-08
9.07183e-08
1.2658e-07
2.50633e-08
2.08376e-08
0
0
0
0
0
0
0
0
0
0
0
0
0
0
6.44711e-08
6.65533e-08
6.6027e-08
6.51798e-08
6.45366e-08
6.69482e-08
6.20768e-08
6.45304e-08
8.74205e-08
1.26024e-07
6.23655e-08
6.40486e-08
6.18435e-08
6.56686e-08
0
6.54395e-08
6.38274e-08
1.5954e-07
6.24199e-08
6.33853e-08
6.32208e-08
6.61442e-08
6.70946e-08
2.51802e-08
6.97407e-08
9.6592e-08
6.30009e-08
6.28426e-08
6.39918e-08
6.40761e-08
6.50117e-08
6.45137e-08
6.11427e-08
1.48628e-07
1.57165e-07
6.37951e-08
6.36542e-08
6.45928e-08
6.32145e-08
6.45732e-08
6.41351e-08
6.67259e-08
6.70482e-08
6.24656e-08
6.35096e-08
1.26248e-07
7.93877e-08
6.26953e-08
6.28702e-08
6.33132e-08
9.63259e-08
1.09982e-07
0
6.40078e-08
6.79838e-08
6.88417e-08
6.51333e-08
6.16554e-08
6.34532e-08
6.49639e-08
0
0
0
0
0
0
0
0
0
0
0
0
0
0
0
6.39633e-08
6.24439e-08
1.59371e-07
6.59041e-08
6.66267e-08
0
6.19986e-08
6.76429e-08
2.67098e-08
1.46011e-08
1.50033e-07
3.16964e-08
1.11278e-07
3.14724e-08
1.54945e-07
6.34567e-08
0
6.52075e-08
6.52522e-08
6.5485e-08
6.3986e-08
6.46437e-08
6.53379e-08
9.11645e-08
1.20534e-07
6.34628e-08
6.4155e-08
6.46886e-08
6.60635e-08
6.66001e-08
6.32877e-08
6.16596e-08
1.12306e-07
1.40503e-08
6.34894e-08
6.58673e-08
6.75375e-08
6.64618e-08
0
6.47434e-08
6.35094e-08
6.4449e-08
1.57735e-07
6.35706e-08
6.32101e-08
1.57285e-07
6.32386e-08
6.18988e-08
6.2738e-08
6.24361e-08
6.36717e-08
6.23256e-08
8.61008e-08
1.29601e-07
6.41506e-08
6.74427e-08
2.89825e-08
8.69773e-08
6.18561e-08
6.25893e-08
0
0
0
0
0
0
0
0
0
0
0
0
0
0
0
6.40661e-08
6.32416e-08
6.40705e-08
6.41102e-08
6.64102e-08
6.55451e-08
6.40646e-08
2.38679e-08
2.1376e-08
6.56562e-08
6.28746e-08
6.23822e-08
6.43702e-08
0
0
6.36919e-08
1.27164e-07
3.26779e-09
6.59522e-08
1.28955e-07
7.93416e-08
6.45221e-08
6.41307e-08
1.22822e-07
8.20918e-08
6.29941e-08
6.45457e-08
6.63923e-08
6.79642e-08
0
6.18029e-08
6.25742e-08
6.7676e-08
6.90464e-08
6.38515e-08
6.8052e-08
0
6.77951e-08
6.50476e-08
6.46898e-08
6.54457e-08
6.47736e-08
6.45778e-08
9.18879e-08
1.20472e-07
6.32857e-08
6.40333e-08
6.3593e-08
1.19768e-07
8.60976e-08
0
0
6.29064e-08
6.44152e-08
6.64618e-08
6.57979e-08
6.60999e-08
6.47928e-08
6.47631e-08
1.50337e-07
6.05377e-08
0
0
0
0
0
0
0
0
0
0
0
0
0
0
6.48162e-08
1.00432e-07
1.08426e-07
6.15471e-08
6.35907e-08
8.39865e-08
4.35808e-08
6.38036e-08
6.63404e-08
6.5153e-08
1.17983e-07
4.64557e-08
2.79265e-08
8.23801e-09
1.29607e-07
1.4993e-07
6.44873e-08
6.54189e-08
0
6.53465e-08
6.49302e-08
6.37896e-08
6.40558e-08
1.54137e-07
6.17082e-08
1.58782e-07
6.54813e-08
6.69427e-08
0
6.87645e-08
5.98251e-08
0
6.61727e-08
6.41425e-08
6.32794e-08
6.48313e-08
1.62874e-07
6.50392e-08
6.1936e-08
6.39583e-08
6.43706e-08
6.47614e-08
6.59526e-08
6.45722e-08
6.40994e-08
6.54097e-08
0
6.33419e-08
6.41747e-08
6.33053e-08
6.34507e-08
1.55593e-07
6.31351e-08
6.37875e-08
6.60341e-08
6.54704e-08
6.60141e-08
6.45719e-08
1.22835e-08
9.06034e-08
1.42999e-08
0
0
0
0
0
0
0
0
0
0
0
0
0
0
6.56412e-08
6.57064e-08
6.34421e-08
6.36905e-08
6.42071e-08
0
6.39268e-08
1.65082e-07
6.33377e-08