/*--------------------------------*- C++ -*----------------------------------*\
  =========                 |
  \\      /  F ield         | OpenFOAM: The Open Source CFD Toolbox
   \\    /   O peration     | Website:  https://openfoam.org
    \\  /    A nd           | Version:  12
     \\/     M anipulation  |
\*---------------------------------------------------------------------------*/
FoamFile
{
    format      ascii;
    class       volScalarField;
    location    "0.3";
    object      p;
}
// * * * * * * * * * * * * * * * * * * * * * * * * * * * * * * * * * * * * * //

dimensions      [0 2 -2 0 0 0 0];

internalField   nonuniform List<scalar> 
3750
(
0.744849
0.742803
0.732592
0.722381
0.710445
0.700268
0.69076
0.682115
0.666953
0.65898
0.650595
0.64166
0.631028
0.621032
0.611024
0.600948
0.589244
0.577303
0.566035
0.556086
0.554917
0.542026
0.527903
0.515312
0.507038
0.496934
0.486417
0.476724
0.467653
0.458646
0.449144
0.439424
0.429995
0.413525
0.404793
0.395193
0.385321
0.375932
0.366437
0.355455
0.346227
0.336106
0.324415
0.314056
0.303817
0.295873
0.279777
0.270564
0.263273
0.253968
0.244226
0.234283
0.218373
0.216306
0.207416
0.198641
0.188216
0.17754
0.167472
0.157141
0.145741
0.134361
0.117792
0.108794
0.0985565
0.0888733
0.0859293
0.076107
0.0651362
0.0547532
0.0445831
0.0345473
0.0246171
0.0146592
0.00482687
0.747651
0.740355
0.730509
0.724259
0.708692
0.699668
0.690013
0.679873
0.668508
0.659303
0.651025
0.642649
0.631227
0.621115
0.611225
0.602575
0.588134
0.576603
0.566081
0.558271
0.555608
0.541758
0.526811
0.51203
0.507631
0.497194
0.485853
0.476012
0.466983
0.459359
0.449548
0.438902
0.427821
0.415443
0.40542
0.395348
0.384665
0.376287
0.367952
0.353171
0.346233
0.335849
0.324909
0.314636
0.302593
0.295237
0.281654
0.269426
0.26459
0.254407
0.244246
0.233612
0.222216
0.214287
0.204545
0.20062
0.188238
0.176614
0.167066
0.156981
0.144116
0.132885
0.120603
0.110264
0.100362
0.0912794
0.0840088
0.0747335
0.0646716
0.054544
0.0444441
0.0344615
0.0245575
0.0146007
0.00478999
0.747184
0.740347
0.726185
0.72303
0.709533
0.699825
0.68951
0.678861
0.667959
0.658633
0.651819
0.644644
0.632542
0.621134
0.610443
0.600862
0.589833
0.579958
0.564661
0.563337
0.550214
0.541079
0.525654
0.515195
0.507221
0.49765
0.484855
0.475008
0.465165
0.46215
0.450854
0.438781
0.426728
0.414846
0.406544
0.396488
0.383362
0.377422
0.365723
0.352447
0.347452
0.335962
0.324899
0.314593
0.302443
0.297015
0.282048
0.271129
0.261901
0.255718
0.24452
0.233723
0.223168
0.214093
0.204278
0.202024
0.185552
0.174016
0.167103
0.155902
0.143734
0.132744
0.121712
0.111358
0.101529
0.0922144
0.0833249
0.0740026
0.064249
0.0543273
0.0443707
0.0344357
0.0245243
0.0145474
0.00472542
0.748424
0.739055
0.728093
0.719892
0.711086
0.700675
0.689281
0.678188
0.666148
0.656106
0.652828
0.64767
0.634006
0.620431
0.609032
0.600347
0.590376
0.580086
0.569172
0.561665
0.549499
0.537426
0.528395
0.516611
0.5067
0.496724
0.485221
0.474769
0.463975
0.464099
0.452682
0.438665
0.425673
0.411607
0.408241
0.400872
0.384974
0.37472
0.363833
0.35343
0.345145
0.334647
0.32352
0.31568
0.305706
0.293588
0.28053
0.268887
0.263758
0.260268
0.243703
0.233636
0.222676
0.215514
0.207549
0.196121
0.18544
0.173816
0.169861
0.153993
0.143218
0.132628
0.122154
0.111989
0.102147
0.0925948
0.0832026
0.0736924
0.0639882
0.0541587
0.0442785
0.0343977
0.0244895
0.0145045
0.00468665
0.748577
0.738746
0.728224
0.71718
0.713403
0.701532
0.688512
0.678776
0.664633
0.657822
0.65426
0.643637
0.631505
0.618308
0.612613
0.600434
0.591375
0.581078
0.5708
0.562738
0.547709
0.535082
0.531967
0.515801
0.506209
0.496413
0.48586
0.475983
0.462243
0.459533
0.45416
0.438361
0.425758
0.417378
0.406172
0.402582
0.386712
0.376388
0.361364
0.353269
0.344661
0.33451
0.320696
0.316761
0.303627
0.292837
0.28142
0.272195
0.264178
0.256371
0.243899
0.235274
0.221569
0.216987
0.206103
0.192706
0.188568
0.177347
0.169192
0.152509
0.142534
0.132424
0.122317
0.112324
0.102485
0.0927991
0.0832027
0.0735691
0.0638505
0.0540492
0.0442083
0.0343497
0.0244441
0.0144634
0.00466328
0.749186
0.739111
0.729003
0.719304
0.712653
0.703015
0.686314
0.682891
0.665946
0.658804
0.650919
0.639448
0.630633
0.620437
0.612088
0.598844
0.593266
0.580957
0.570247
0.561622
0.548304
0.538191
0.528417
0.516768
0.506506
0.497064
0.486176
0.476956
0.464508
0.458323
0.451323
0.440246
0.422716
0.417746
0.412288
0.399909
0.386683
0.374949
0.362211
0.353974
0.346584
0.332615
0.320844
0.313712
0.302421
0.291925
0.282155
0.275014
0.26495
0.247997
0.24507
0.239667
0.225187
0.215512
0.206908
0.191116
0.189329
0.177284
0.165657
0.153539
0.142187
0.13223
0.122334
0.112468
0.102665
0.0929242
0.0832298
0.073526
0.0637868
0.0539903
0.0441618
0.0343093
0.0244063
0.0144292
0.00464919
0.749849
0.739658
0.729525
0.719435
0.711125
0.702813
0.691432
0.680755
0.665523
0.663902
0.64991
0.634455
0.63021
0.62162
0.613387
0.599833
0.590291
0.579243
0.569876
0.564226
0.546006
0.541651
0.526595
0.514968
0.505795
0.499542
0.48532
0.475888
0.465925
0.457875
0.449859
0.439863
0.427379
0.418152
0.410652
0.396764
0.386066
0.374765
0.363286
0.353491
0.346064
0.333938
0.32001
0.313396
0.301751
0.291116
0.280748
0.28002
0.263746
0.247164
0.245855
0.237344
0.227426
0.215782
0.205184
0.194302
0.188675
0.176561
0.164217
0.152972
0.141094
0.13198
0.122319
0.112547
0.102776
0.0930223
0.0832795
0.0735424
0.0637733
0.0539662
0.0441351
0.0342829
0.0243794
0.0144041
0.00464024
0.750939
0.740173
0.729626
0.719266
0.707457
0.702735
0.695501
0.681555
0.669366
0.661456
0.650535
0.638182
0.63421
0.621967
0.609103
0.598691
0.588478
0.57686
0.574042
0.560298
0.548548
0.540676
0.524634
0.512247
0.503155
0.500116
0.48845
0.47402
0.465625
0.457211
0.45109
0.442852
0.431612
0.416542
0.406554
0.395307
0.385283
0.374909
0.364241
0.35199
0.346928
0.333747
0.317287
0.315286
0.302399
0.291124
0.279926
0.280081
0.2631
0.251886
0.244173
0.233714
0.229281
0.216281
0.204506
0.194185
0.189236
0.174252
0.162355
0.153179
0.142236
0.132238
0.122392
0.11262
0.10287
0.0931197
0.0833572
0.0735908
0.0637931
0.0539698
0.0441294
0.0342744
0.0243686
0.0143906
0.00463713
0.752421
0.740709
0.728891
0.720497
0.708556
0.704997
0.693561
0.680856
0.670267
0.661103
0.653064
0.637403
0.634985
0.622293
0.610424
0.598942
0.588686
0.576438
0.57455
0.558776
0.547269
0.536315
0.523876
0.512093
0.505571
0.496891
0.486575
0.474648
0.465667
0.455025
0.453427
0.444061
0.43346
0.419165
0.40363
0.394319
0.384852
0.375466
0.366958
0.353112
0.342923
0.330932
0.320575
0.314175
0.304207
0.292303
0.280093
0.277703
0.265129
0.254218
0.244184
0.234556
0.226365
0.214711
0.203051
0.191115
0.189865
0.17187
0.163448
0.155339
0.143486
0.132348
0.122381
0.11268
0.102968
0.0932225
0.0834502
0.0736588
0.0638392
0.0539971
0.0441438
0.0342776
0.0243671
0.0143838
0.00463348
0.755132
0.740798
0.727467
0.724551
0.713589
0.704593
0.691441
0.677953
0.669394
0.65997
0.654263
0.642244
0.633717
0.62209
0.611499
0.602073
0.588743
0.577295
0.572264
0.556034
0.545355
0.533759
0.519614
0.513539
0.509349
0.491732
0.486909
0.472631
0.465774
0.456166
0.452131
0.444926
0.434959
0.419952
0.402936
0.393628
0.384455
0.375547
0.365715
0.355953
0.340494
0.329231
0.32065
0.314295
0.305635
0.294424
0.28539
0.273819
0.265074
0.255529
0.244771
0.234624
0.222406
0.212921
0.202121
0.190962
0.188577
0.16984
0.165027
0.160099
0.143626
0.131695
0.122112
0.11274
0.103099
0.0933478
0.0835621
0.0737483
0.0639046
0.0540428
0.0441738
0.0342972
0.0243783
0.0143867
0.00463667
0.754279
0.743182
0.730349
0.72033
0.716483
0.70626
0.689161
0.678937
0.669441
0.657996
0.65334
0.646735
0.634206
0.62097
0.611549
0.601355
0.591002
0.578001
0.568993
0.554787
0.544724
0.533815
0.522299
0.51393
0.505565
0.49342
0.483931
0.470232
0.465191
0.457973
0.451664
0.446433
0.435402
0.419608
0.403025
0.392933
0.383702
0.375207
0.365614
0.354082
0.341488
0.329245
0.319148
0.31534
0.307244
0.295625
0.285864
0.275317
0.265735
0.25666
0.244643
0.232271
0.221572
0.212472
0.202441
0.192708
0.184905
0.173482
0.165958
0.155861
0.141967
0.135421
0.122623
0.113065
0.103345
0.0935407
0.0837144
0.0738618
0.0639851
0.0540997
0.0442131
0.034322
0.0243928
0.0143919
0.00463558
0.75631
0.742107
0.732164
0.722357
0.714848
0.70471
0.690136
0.6798
0.667453
0.662622
0.653453
0.643362
0.634655
0.621585
0.611328
0.600605
0.59026
0.580259
0.566373
0.553628
0.544834
0.53507
0.5246
0.514297
0.504099
0.493061
0.482057
0.470835
0.465212
0.459804
0.450753
0.442499
0.431278
0.420955
0.405502
0.391537
0.382209
0.372405
0.370589
0.353039
0.340938
0.328786
0.322088
0.312234
0.309425
0.295941
0.286365
0.275895
0.265728
0.255877
0.244853
0.228978
0.223093
0.212354
0.202538
0.193185
0.184182
0.173637
0.165077
0.154443
0.143044
0.134466
0.12349
0.113542
0.10365
0.0937649
0.0838823
0.0739855
0.0640764
0.0541691
0.0442625
0.0343567
0.0244151
0.0144041
0.00464095
0.754972
0.74407
0.734163
0.724585
0.714419
0.70364
0.69081
0.682611
0.668635
0.662364
0.654424
0.638518
0.636151
0.621527
0.610902
0.599209
0.588774
0.577884
0.565635
0.553864
0.545939
0.536884
0.526754
0.514655
0.503458
0.492805
0.48146
0.469587
0.46522
0.461615
0.449306
0.440442
0.426264
0.418536
0.406416
0.394359
0.382195
0.371296
0.370258
0.354962
0.340912
0.326597
0.320474
0.317484
0.308743
0.29653
0.2864
0.276309
0.265192
0.255256
0.245125
0.231766
0.219794
0.211616
0.202305
0.192968
0.185416
0.172206
0.164225
0.154503
0.144342
0.134382
0.124067
0.113942
0.103943
0.0939858
0.0840469
0.07411
0.0641711
0.0542387
0.0443129
0.0343919
0.0244347
0.0144142
0.00464182
0.754633
0.744845
0.73571
0.727474
0.71464
0.701992
0.690781
0.682291
0.672379
0.663486
0.653997
0.64068
0.635179
0.623267
0.609513
0.597436
0.587794
0.576954
0.564107
0.55245
0.548738
0.53954
0.529411
0.51423
0.50316
0.492104
0.48182
0.471502
0.464049
0.456541
0.447642
0.435964
0.424266
0.419137
0.407153
0.396209
0.3823
0.371402
0.368807
0.354473
0.341589
0.329785
0.31848
0.316423
0.311354
0.295073
0.286194
0.277878
0.263372
0.254701
0.24386
0.231289
0.220777
0.212044
0.201841
0.190889
0.183508
0.174859
0.165089
0.154966
0.144839
0.134677
0.124449
0.11429
0.104216
0.0941943
0.0842041
0.074229
0.0642642
0.0543076
0.0443643
0.0344289
0.0244601
0.0144299
0.00464749
0.754458
0.744983
0.735661
0.725758
0.714413
0.702859
0.692073
0.682375
0.675339
0.66606
0.651502
0.642262
0.63348
0.622411
0.611287
0.598326
0.587961
0.578131
0.562259
0.552976
0.547163
0.542729
0.531335
0.51531
0.502406
0.490894
0.482783
0.472244
0.463071
0.452586
0.446954
0.435932
0.425609
0.417044
0.406701
0.396528
0.385046
0.37429
0.367023
0.352633
0.341942
0.331645
0.322824
0.315046
0.306381
0.294904
0.285811
0.276576
0.265331
0.255384
0.242891
0.230823
0.221279
0.213611
0.202207
0.187605
0.182884
0.177533
0.16543
0.155381
0.145311
0.135048
0.124783
0.114581
0.10445
0.0943759
0.0843443
0.0743385
0.0643492
0.054371
0.0444108
0.034461
0.0244789
0.0144405
0.00464891
0.754053
0.744938
0.736089
0.725512
0.714528
0.7035
0.693912
0.680205
0.677569
0.66483
0.652754
0.643766
0.633968
0.62312
0.611824
0.598863
0.587696
0.576187
0.563552
0.55263
0.55171
0.540599
0.52784
0.515523
0.50453
0.491186
0.485313
0.472277
0.463498
0.454694
0.448324
0.436354
0.425785
0.415679
0.405515
0.395431
0.387382
0.374733
0.366105
0.352584
0.342908
0.331358
0.327028
0.314762
0.30351
0.29229
0.284655
0.277409
0.266343
0.250053
0.245158
0.232476
0.219422
0.215258
0.203494
0.190271
0.182778
0.175612
0.16429
0.15634
0.145921
0.135417
0.125055
0.114803
0.104629
0.0945187
0.0844551
0.0744238
0.0644153
0.0544247
0.0444516
0.0344906
0.0244995
0.0144544
0.0046539
0.753271
0.744528
0.737766
0.725362
0.712995
0.702945
0.69235
0.684328
0.675334
0.665931
0.655641
0.645024
0.635267
0.624454
0.610067
0.599568
0.587743
0.575759
0.564641
0.553883
0.54812
0.538332
0.52774
0.516963
0.505008
0.492078
0.488927
0.472019
0.464228
0.456558
0.445465
0.436116
0.425528
0.415044
0.404901
0.3936
0.388384
0.375938
0.365343
0.354104
0.344386
0.333381
0.326663
0.313889
0.302051
0.288842
0.28391
0.278802
0.263852
0.252171
0.243825
0.233905
0.220268
0.211307
0.205955
0.19189
0.18144
0.174566
0.163273
0.158192
0.146458
0.135669
0.125223
0.114936
0.104743
0.0946112
0.0845316
0.0744855
0.0644641
0.054463
0.0444814
0.0345115
0.024512
0.0144615
0.00465454
0.753363
0.74322
0.735182
0.725101
0.714692
0.703901
0.693991
0.686142
0.672624
0.669738
0.660174
0.645245
0.629102
0.625545
0.612187
0.601856
0.588237
0.574569
0.565607
0.556081
0.546302
0.536836
0.526795
0.516812
0.506015
0.495878
0.487462
0.472917
0.464819
0.456026
0.444515
0.436568
0.425155
0.414978
0.405076
0.395318
0.385932
0.375415
0.364949
0.355236
0.346453
0.334141
0.325911
0.312322
0.301756
0.292284
0.283612
0.275298
0.26312
0.252027
0.243648
0.233669
0.222341
0.21129
0.202606
0.194762
0.178042
0.174131
0.168203
0.156172
0.145986
0.13559
0.125235
0.11497
0.104781
0.0946527
0.0845709
0.0745194
0.0644943
0.0544877
0.0445001
0.0345252
0.0245225
0.0144694
0.00465892
0.753456
0.741775
0.734046
0.724956
0.715294
0.704047
0.693973
0.683453
0.679738
0.670289
0.66091
0.645074
0.630604
0.623398
0.61144
0.599859
0.588422
0.577472
0.568083
0.559195
0.544778
0.5359
0.525882
0.515877
0.50642
0.495927
0.485731
0.475422
0.466138
0.457773
0.441227
0.438753
0.423437
0.414528
0.405263
0.396067
0.383991
0.374859
0.36506
0.355388
0.345837
0.335439
0.325347
0.312211
0.300401
0.29515
0.28443
0.274076
0.26132
0.251041
0.245656
0.234196
0.224711
0.210669
0.197153
0.196562
0.182195
0.174804
0.166625
0.155606
0.145647
0.135439
0.12517
0.114943
0.104777
0.0946606
0.0845807
0.0745338
0.0645071
0.0544969
0.0445065
0.0345295
0.0245253
0.014469
0.00465826
0.751105
0.740624
0.734011
0.725222
0.716085
0.704142
0.694998
0.684529
0.682855
0.669844
0.65949
0.648374
0.631672
0.6218
0.610015
0.599321
0.588455
0.578139
0.569903
0.560425
0.546244
0.536318
0.525009
0.514179
0.507557
0.495687
0.486256
0.476193
0.466723
0.458284
0.444026
0.433195
0.423941
0.414814
0.405735
0.395013
0.384275
0.374662
0.365019
0.355406
0.346034
0.337255
0.325586
0.313415
0.303306
0.289553
0.287123
0.274131
0.259025
0.255382
0.241872
0.232626
0.222715
0.209682
0.199272
0.197377
0.184814
0.175827
0.164408
0.15543
0.145534
0.135314
0.125065
0.114861
0.104715
0.0946166
0.0845535
0.0745179
0.0644961
0.0544897
0.0445023
0.0345262
0.0245237
0.0144705
0.00466051
0.747939
0.738567
0.734552
0.725196
0.715558
0.705543
0.698133
0.685261
0.684176
0.669658
0.658292
0.647169
0.635889
0.620881
0.60864
0.599142
0.588277
0.576332
0.56876
0.560299
0.551961
0.538295
0.524704
0.510335
0.508712
0.496907
0.486896
0.47673
0.466462
0.456265
0.444945
0.43427
0.424362
0.414989
0.406206
0.394233
0.384704
0.374714
0.364886
0.355044
0.3456
0.334805
0.329403
0.316602
0.30043
0.291212
0.28771
0.275915
0.261876
0.250294
0.241223
0.231666
0.223759
0.208333
0.204697
0.196101
0.184555
0.171875
0.166931
0.156176
0.145796
0.135217
0.124906
0.114734
0.104627
0.0945496
0.0845016
0.0744781
0.0644659
0.0544654
0.0444806
0.0345098
0.0245143
0.0144627
0.00465921
0.749094
0.739862
0.732701
0.723908
0.714835
0.70577
0.698184
0.690381
0.686036
0.67043
0.656693
0.646147
0.634776
0.622212
0.609798
0.599251
0.589263
0.572267
0.567251
0.560705
0.555675
0.540129
0.526076
0.510769
0.508008
0.497147
0.487091
0.47687
0.466183
0.45545
0.445249
0.434741
0.424193
0.414432
0.406768
0.395179
0.384933
0.374701
0.364519
0.354708
0.345646
0.337177
0.32983
0.31492
0.297826
0.293476
0.291176
0.276166
0.260318
0.249164
0.241141
0.230626
0.226907
0.210155
0.204349
0.197168
0.184495
0.171549
0.165135
0.156107
0.146292
0.134878
0.124634
0.114573
0.104511
0.0944617
0.0844318
0.0744178
0.0644167
0.0544263
0.0444505
0.0344893
0.0245018
0.0144562
0.00465954
0.749169
0.739637
0.73147
0.722823
0.713904
0.704262
0.698626
0.691136
0.682861
0.669794
0.657076
0.645696
0.634882
0.621967
0.610041
0.599059
0.588528
0.575843
0.566651
0.558479
0.553535
0.541244
0.529175
0.514964
0.504352
0.496389
0.487511
0.477649
0.465939
0.454038
0.445697
0.435283
0.423414
0.41244
0.408773
0.396213
0.384852
0.374666
0.364209
0.354043
0.34553
0.33941
0.327762
0.314502
0.301856
0.294538
0.287427
0.275816
0.264058
0.247181
0.243795
0.232498
0.222017
0.212001
0.204503
0.19476
0.183844
0.174446
0.164056
0.156891
0.14837
0.133441
0.124218
0.11439
0.104388
0.0943628
0.0843487
0.0743422
0.0643509
0.054373
0.0444101
0.0344589
0.0244786
0.0144447
0.00465434
0.74934
0.737583
0.730689
0.722377
0.714345
0.699715
0.699989
0.692144
0.680595
0.668735
0.656982
0.644711
0.63702
0.620594
0.60953
0.598559
0.590119
0.577258
0.566022
0.55331
0.552003
0.541772
0.528219
0.517735
0.506667
0.49662
0.489092
0.480199
0.465994
0.450065
0.446306
0.435881
0.42303
0.413983
0.406817
0.398192
0.384062
0.375101
0.363667
0.352214
0.344228
0.337049
0.327768
0.314492
0.309723
0.295518
0.285995
0.274926
0.263361
0.251439
0.244276
0.23448
0.217007
0.211227
0.20624
0.194373
0.182111
0.177159
0.161904
0.158086
0.146955
0.134958
0.124525
0.114378
0.104299
0.0942614
0.0842478
0.0742573
0.0642793
0.0543144
0.0443641
0.0344253
0.0244563
0.0144329
0.00465223
0.749658
0.737508
0.730213
0.721592
0.712564
0.700972
0.699129
0.695496
0.678922
0.667552
0.656021
0.641367
0.63771
0.622809
0.609686
0.595713
0.58718
0.576849
0.566539
0.556336
0.547087
0.543293
0.529084
0.521143
0.508337
0.494946
0.489824
0.478759
0.466916
0.453788
0.443879
0.435144
0.423877
0.415597
0.403499
0.398268
0.385508
0.377467
0.364959
0.348315
0.343164
0.335823
0.331126
0.316619
0.30782
0.299875
0.28673
0.274942
0.263221
0.252365
0.246781
0.234026
0.219712
0.210799
0.204103
0.193936
0.183013
0.172614
0.166529
0.156216
0.145743
0.134997
0.124549
0.114307
0.104179
0.0941329
0.0841288
0.0741515
0.06419
0.0542435
0.0443086
0.0343826
0.0244272
0.0144165
0.00464679
0.749818
0.738927
0.729802
0.72077
0.713995
0.705637
0.698689
0.691214
0.681156
0.667556
0.652848
0.642308
0.633954
0.623269
0.606881
0.595654
0.586216
0.576387
0.566882
0.558717
0.547939
0.541161
0.529619
0.526669
0.51019
0.495593
0.486681
0.477464
0.462873
0.457567
0.444906
0.434981
0.423148
0.420636
0.404052
0.395573
0.383441
0.378757
0.364917
0.352365
0.344306
0.332984
0.332059
0.315705
0.313406
0.297185
0.286438
0.275035
0.262484
0.249794
0.246332
0.234914
0.223348
0.212689
0.203572
0.193895
0.183806
0.173568
0.165233
0.153632
0.145087
0.134766
0.124337
0.114094
0.103989
0.0939643
0.0839883
0.0740345
0.0640922
0.0541637
0.0442473
0.0343367
0.024398
0.0144005
0.00464291
0.749902
0.739793
0.729703
0.719129
0.716477
0.709196
0.698725
0.688396
0.677786
0.668321
0.654333
0.642417
0.630306
0.620433
0.608311
0.595224
0.585616
0.575678
0.5661
0.559323
0.551833
0.541938
0.532405
0.525402
0.509553
0.497232
0.486961
0.476611
0.464771
0.454159
0.447658
0.436001
0.425104
0.418545
0.405986
0.395512
0.384963
0.376278
0.365169
0.35427
0.344295
0.334231
0.328193
0.31898
0.312666
0.297816
0.286739
0.276412
0.26155
0.248402
0.242763
0.235577
0.2247
0.214103
0.204136
0.194111
0.18432
0.174192
0.164105
0.15046
0.145899
0.134531
0.123956
0.113761
0.103723
0.0937544
0.0838174
0.0738945
0.0639818
0.0540766
0.044178
0.0342857
0.024363
0.0143807
0.00463796
0.749902
0.741256
0.730475
0.718757
0.715151
0.713331
0.698472
0.686091
0.673951
0.66474
0.653616
0.642719
0.632657
0.62125
0.606678
0.595807
0.585387
0.574617
0.564665
0.559499
0.555208
0.542846
0.53433
0.522943
0.509438
0.498759
0.487588
0.477983
0.467069
0.455345
0.446744
0.43611
0.424915
0.420314
0.405771
0.395979
0.38631
0.375631
0.365093
0.355272
0.344462
0.334294
0.326874
0.320894
0.314226
0.299084
0.286248
0.273272
0.259384
0.250129
0.240567
0.237605
0.225415
0.214709
0.204739
0.194072
0.18514
0.173867
0.16355
0.152503
0.143139
0.133197
0.1232
0.113273
0.103385
0.0935072
0.0836303
0.0737515
0.0638699
0.0539882
0.0441098
0.0342358
0.0243284
0.0143638
0.00463335
0.751074
0.743737
0.732786
0.7235
0.712505
0.712866
0.695448
0.68373
0.672848
0.66313
0.652577
0.641994
0.632083
0.620142
0.608226
0.59701
0.585684
0.573291
0.568272
0.558494
0.552296
0.544401
0.538126
0.522562
0.506208
0.495416
0.490046
0.485611
0.468974
0.454659
0.446338
0.436918
0.428126
0.418822
0.405761
0.396149
0.386793
0.376046
0.365075
0.357347
0.343885
0.332792
0.324216
0.322294
0.314045
0.299315
0.2857
0.271277
0.261461
0.251939
0.243046
0.237358
0.225226
0.214779
0.204917
0.19254
0.180474
0.175641
0.163604
0.151193
0.145929
0.131903
0.122373
0.11275
0.10304
0.0932646
0.0834499
0.0736101
0.063758
0.0538991
0.0440403
0.0341834
0.0242926
0.0143431
0.00462774
0.751714
0.748018
0.733474
0.721536
0.716144
0.710201
0.695265
0.68077
0.671135
0.66246
0.651597
0.64141
0.631544
0.620267
0.609111
0.598161
0.58718
0.576555
0.569181
0.553527
0.549562
0.543488
0.53846
0.52277
0.507028
0.498618
0.491486
0.484421
0.469208
0.457023
0.44714
0.437675
0.428569
0.418814
0.407283
0.394503
0.384362
0.37708
0.366338
0.355883
0.345114
0.333258
0.323717
0.320859
0.310769
0.298411
0.286081
0.273917
0.263451
0.253668
0.244199
0.23443
0.23041
0.214136
0.203425
0.19162
0.179989
0.176355
0.163594
0.153101
0.145909
0.130277
0.121573
0.112331
0.102763
0.0930597
0.08329
0.0734815
0.0636531
0.0538132
0.0439726
0.0341337
0.0242604
0.0143254
0.0046255
0.750479
0.742074
0.732456
0.72312
0.720001
0.706344
0.694363
0.681947
0.669732
0.663439
0.649536
0.640687
0.632318
0.620476
0.609951
0.599353
0.588409
0.57771
0.568018
0.55646
0.548932
0.541676
0.534197
0.521756
0.506043
0.5017
0.49248
0.484112
0.471496
0.457007
0.44808
0.437961
0.427923
0.417803
0.406421
0.394721
0.383726
0.379141
0.367691
0.35496
0.346284
0.334462
0.326152
0.319107
0.308345
0.297505
0.286342
0.275024
0.264724
0.255176
0.246086
0.236118
0.227492
0.216519
0.202156
0.192105
0.182917
0.17568
0.161181
0.152276
0.1432
0.131127
0.121657
0.112221
0.102624
0.0929252
0.0831617
0.0733668
0.0635562
0.0537334
0.0439088
0.034084
0.0242254
0.014307
0.00461723
0.74939
0.737605
0.731318
0.726347
0.719291
0.705937
0.69382
0.683116
0.672171
0.662051
0.64341
0.639416
0.634242
0.619269
0.611534
0.600936
0.589344
0.577532
0.569082
0.557582
0.54823
0.540288
0.53197
0.51473
0.506776
0.49981
0.49101
0.483542
0.472026
0.460162
0.450025
0.438482
0.42731
0.417382
0.405597
0.393915
0.386567
0.379
0.366612
0.355607
0.346409
0.336213
0.327718
0.320042
0.305954
0.296887
0.286737
0.27518
0.265394
0.256299
0.248771
0.237072
0.225929
0.214277
0.205268
0.191974
0.186008
0.172069
0.161715
0.151679
0.142825
0.131022
0.121854
0.11226
0.102577
0.0928397
0.0830651
0.0732787
0.0634754
0.053662
0.0438496
0.0340384
0.0241952
0.01429
0.00461577
0.752175
0.739762
0.729334
0.722518
0.720977
0.705749
0.691348
0.684516
0.674461
0.659394
0.642474
0.639985
0.631055
0.616672
0.6137
0.604043
0.591639
0.574004
0.571784
0.556035
0.546014
0.538963
0.529057
0.516755
0.507018
0.497896
0.489658
0.485543
0.473113
0.461551
0.451635
0.439621
0.426688
0.416602
0.404587
0.39215
0.388965
0.377512
0.366094
0.355928
0.34602
0.336116
0.328612
0.3182
0.307271
0.29742
0.287838
0.275114
0.265514
0.255871
0.24643
0.237098
0.229191
0.215793
0.202656
0.193423
0.185336
0.173701
0.163087
0.150056
0.14223
0.131791
0.122144
0.112377
0.102588
0.0927924
0.0829966
0.0732037
0.0634011
0.0535944
0.043792
0.0339937
0.0241622
0.0142722
0.00460777
0.749932
0.741592
0.732143
0.722356
0.715579
0.705021
0.691112
0.685828
0.67247
0.659092
0.645694
0.639378
0.630979
0.614321
0.611965
0.606021
0.589923
0.575857
0.568569
0.558127
0.54218
0.539768
0.528899
0.518217
0.507812
0.496827
0.492952
0.483987
0.473092
0.461391
0.451396
0.441698
0.426043
0.414217
0.403439
0.394968
0.388191
0.376628
0.366141
0.356024
0.346457
0.334989
0.331869
0.316899
0.307445
0.297614
0.287529
0.27589
0.265449
0.255221
0.243965
0.235802
0.22834
0.217116
0.205326
0.194653
0.183246
0.173838
0.162028
0.151534
0.143475
0.132827
0.122539
0.112513
0.102603
0.0927504
0.0829333
0.0731264
0.0633268
0.0535303
0.0437402
0.0339518
0.0241324
0.014258
0.00460474
0.745969
0.743993
0.73531
0.721012
0.713951
0.706364
0.693116
0.681975
0.670931
0.659126
0.647694
0.640382
0.630862
0.619433
0.612937
0.601887
0.586694
0.576219
0.567266
0.555973
0.543773
0.538403
0.528191
0.520155
0.509588
0.499249
0.491706
0.48324
0.473721
0.45924
0.449583
0.441344
0.427887
0.414071
0.401579
0.396857
0.386029
0.378072
0.365562
0.355771
0.347179
0.337176
0.326008
0.319108
0.308081
0.297962
0.287712
0.276755
0.265264
0.255844
0.239289
0.233715
0.228861
0.218796
0.206444
0.195108
0.18044
0.175604
0.161277
0.151566
0.145555
0.1334
0.122697
0.112532
0.102562
0.0926849
0.0828591
0.0730497
0.063252
0.0534633
0.043684
0.0339083
0.0241021
0.014241
0.00459778
0.749546
0.742802
0.733742
0.721187
0.713099
0.707991
0.695874
0.679707
0.669733
0.658891
0.64752
0.641757
0.632368
0.619729
0.609773
0.599829
0.587531
0.576475
0.568901
0.555868
0.541388
0.538833
0.525979
0.523384
0.511086
0.499753
0.490071
0.482191
0.470934
0.462071
0.446406
0.444403
0.428622
0.414046
0.402588
0.394306
0.38161
0.37917
0.367028
0.354437
0.344462
0.336917
0.325589
0.324825
0.307752
0.298403
0.288472
0.277791
0.264068
0.25483
0.244463
0.230931
0.224287
0.220343
0.206062
0.19471
0.183432
0.176778
0.156302
0.157354
0.141973
0.132336
0.122332
0.112344
0.102425
0.0925681
0.0827471
0.0729522
0.0631694
0.0533942
0.0436278
0.0338662
0.0240727
0.0142263
0.0045943
0.750768
0.742897
0.727065
0.72305
0.711779
0.708479
0.695705
0.683443
0.66961
0.659481
0.650628
0.636186
0.629701
0.616822
0.60751
0.60001
0.585934
0.574401
0.567594
0.556681
0.545273
0.537692
0.526875
0.525299
0.510917
0.497996
0.489583
0.480468
0.470556
0.462914
0.449769
0.44074
0.427995
0.411713
0.40144
0.393966
0.386854
0.377987
0.3664
0.356119
0.34178
0.336153
0.328682
0.324654
0.308989
0.299534
0.290082
0.276555
0.26415
0.255161
0.244854
0.230545
0.22567
0.215994
0.203139
0.193979
0.1855
0.177348
0.159378
0.157566
0.140971
0.131679
0.121956
0.112099
0.102246
0.0924218
0.0826277
0.0728494
0.0630827
0.0533209
0.0435698
0.0338225
0.0240422
0.0142101
0.00458929
0.750024
0.740841
0.727487
0.720018
0.712848
0.707467
0.695928
0.684409
0.674325
0.65909
0.650605
0.638533
0.62762
0.612343
0.608399
0.597622
0.585539
0.573123
0.56926
0.557698
0.547108
0.537969
0.529841
0.525034
0.50919
0.4926
0.49005
0.478319
0.469577
0.460586
0.449985
0.439334
0.428348
0.412222
0.399124
0.393541
0.388305
0.377919
0.368106
0.356814
0.345433
0.337386
0.329509
0.320559
0.308956
0.299802
0.287441
0.27801
0.266724
0.256676
0.248244
0.231641
0.223507
0.21217
0.19923
0.192593
0.187054
0.178889
0.163734
0.156164
0.141453
0.131601
0.121713
0.111848
0.102028
0.0922408
0.0824776
0.0727295
0.062986
0.0532462
0.0435118
0.0337788
0.0240144
0.0141948
0.00458573
0.749808
0.739764
0.725944
0.718975
0.713057
0.707783
0.695459
0.685026
0.675217
0.660621
0.653789
0.643873
0.625639
0.611211
0.605408
0.596409
0.586029
0.574783
0.567752
0.558163
0.54717
0.538372
0.530359
0.52343
0.506976
0.493701
0.487992
0.477251
0.468336
0.46083
0.450156
0.438609
0.425866
0.410987
0.401025
0.391504
0.383849
0.377962
0.371285
0.35832
0.347456
0.33827
0.330045
0.318299
0.307259
0.294952
0.289791
0.279128
0.268091
0.256608
0.245386
0.233998
0.224574
0.206131
0.202628
0.19071
0.190291
0.176292
0.163129
0.155683
0.142259
0.131541
0.12141
0.111534
0.101769
0.0920417
0.0823253
0.0726087
0.06289
0.0531726
0.0434542
0.0337365
0.0239869
0.0141804
0.00458262
0.750293
0.740724
0.728734
0.719372
0.712551
0.70419
0.693543
0.685235
0.67199
0.663097
0.655455
0.642323
0.62772
0.614832
0.604954
0.5958
0.587455
0.573905
0.567176
0.559286
0.545084
0.537814
0.529825
0.522458
0.506262
0.493888
0.487944
0.476337
0.467407
0.463321
0.451053
0.438209
0.425743
0.413622
0.403144
0.38936
0.385257
0.37797
0.368862
0.357875
0.348028
0.338329
0.329675
0.320152
0.306162
0.294735
0.288178
0.279643
0.269857
0.255611
0.243739
0.234392
0.222867
0.209416
0.20247
0.192972
0.186491
0.175685
0.162882
0.157382
0.141149
0.130942
0.120857
0.11113
0.101479
0.0918268
0.0821667
0.072485
0.0627971
0.0531032
0.0434023
0.0336978
0.0239618
0.0141675
0.0045794
0.751338
0.743414
0.728791
0.718957
0.712292
0.702474
0.689269
0.681394
0.673435
0.664319
0.657027
0.643177
0.628042
0.619216
0.604115
0.594755
0.585125
0.574944
0.568022
0.557514
0.5459
0.537158
0.528484
0.519912
0.506238
0.494691
0.490631
0.47593
0.471081
0.462079
0.451965
0.438026
0.426302
0.414641
0.403824
0.392261
0.382373
0.378727
0.366934
0.356213
0.348019
0.337157
0.329274
0.318943
0.307241
0.295989
0.287151
0.280134
0.26726
0.256287
0.245049
0.23562
0.223282
0.211209
0.203202
0.194949
0.186473
0.178121
0.166146
0.153257
0.138915
0.129237
0.11999
0.110645
0.101177
0.0916229
0.0820189
0.0723792
0.0627146
0.0530379
0.0433524
0.033662
0.0239397
0.0141568
0.00457876
0.751118
0.742747
0.729665
0.72005
0.710703
0.699658
0.688483
0.679148
0.674682
0.663311
0.655295
0.645375
0.631505
0.621008
0.608073
0.593851
0.583547
0.575112
0.571802
0.557085
0.543854
0.535302
0.526363
0.51888
0.507931
0.498653
0.492758
0.479875
0.469058
0.460916
0.45153
0.441524
0.426714
0.414901
0.40513
0.396114
0.382535
0.377701
0.362716
0.352547
0.348782
0.334588
0.330512
0.319098
0.307851
0.296052
0.284945
0.280606
0.266854
0.25631
0.245231
0.234856
0.223631
0.213234
0.204061
0.195155
0.186435
0.178387
0.167149
0.153357
0.141017
0.127259
0.119217
0.110281
0.100962
0.0914782
0.0819088
0.0722915
0.062648
0.0529844
0.0433126
0.0336334
0.0239217
0.01415
0.00457676
0.750607
0.74095
0.731212
0.720686
0.710046
0.698804
0.686799
0.682001
0.671625
0.659163
0.655448
0.649895
0.631463
0.621288
0.60867
0.596367
0.582322
0.579535
0.56577
0.554604
0.546017
0.534936
0.523964
0.519934
0.508967
0.499671
0.490399
0.482296
0.471227
0.461126
0.451241
0.440712
0.425977
0.420153
0.407299
0.395732
0.384808
0.377465
0.362515
0.353744
0.346382
0.334611
0.328978
0.319094
0.309943
0.294777
0.285745
0.278665
0.265771
0.255804
0.244826
0.234696
0.22436
0.214236
0.204529
0.195069
0.185653
0.176221
0.167184
0.155078
0.142996
0.128254
0.119445
0.110297
0.100916
0.0914156
0.0818452
0.0722335
0.0625968
0.0529441
0.0432818
0.033611
0.0239087
0.014147
0.00457668
0.74996
0.738356
0.733627
0.721191
0.710122
0.699091
0.68909
0.68091
0.670468
0.658734
0.656336
0.646044
0.631817
0.622422
0.609554
0.597141
0.584708
0.576308
0.565649
0.552147
0.549053
0.533407