/*--------------------------------*- C++ -*----------------------------------*\
  =========                 |
  \\      /  F ield         | OpenFOAM: The Open Source CFD Toolbox
   \\    /   O peration     | Website:  https://openfoam.org
    \\  /    A nd           | Version:  12
     \\/     M anipulation  |
\*---------------------------------------------------------------------------*/
FoamFile
{
    format      ascii;
    class       surfaceScalarField;
    location    "0.3";
    object      phi.water;
}
// * * * * * * * * * * * * * * * * * * * * * * * * * * * * * * * * * * * * * //

dimensions      [0 3 -1 0 0 0 0];

internalField   nonuniform List<scalar> 
7375
(
6.44344e-08
7.6859e-09
8.49174e-08
2.36667e-08
6.50258e-08
1.98545e-08
8.27124e-08
-1.76643e-08
5.78361e-08
2.4643e-08
6.3295e-08
-5.57121e-09
5.50769e-08
8.16934e-09
1.64565e-07
2.31213e-08
6.44526e-08
-3.28497e-08
7.60557e-08
-1.09276e-08
7.79956e-08
-1.88528e-09
9.57741e-08
-1.77375e-08
9.85635e-08
-2.68096e-09
1.08134e-07
-8.44459e-09
1.12092e-07
-4.0712e-09
1.25432e-07
-1.46164e-08
1.05283e-07
2.00577e-08
8.90293e-08
1.63488e-08
7.69515e-08
1.27554e-08
3.72736e-08
-5.60494e-09
9.75209e-08
-1.58235e-08
9.7051e-08
4.86263e-10
8.04644e-08
1.6554e-08
4.18805e-08
3.85359e-08
4.3503e-08
-1.67796e-09
4.15159e-08
1.87139e-09
3.21715e-08
9.4418e-09
2.70461e-08
5.20663e-09
1.9122e-08
8.06321e-09
1.87421e-08
4.18386e-10
1.8158e-08
6.16202e-10
1.04678e-08
7.68441e-09
1.24175e-07
2.1871e-08
2.39137e-08
-3.5343e-08
3.39265e-08
-1.00444e-08
3.76664e-08
-3.77315e-09
3.36089e-08
3.64808e-09
2.62867e-08
7.3217e-09
3.19736e-08
-5.41772e-09
-1.73681e-10
3.18762e-08
-5.68319e-09
5.55635e-09
-6.23584e-09
5.6498e-10
-1.55225e-09
-4.66288e-09
1.67064e-08
-1.84913e-08
2.29312e-08
-6.40661e-09
1.392e-07
1.65974e-08
4.06509e-08
-3.44278e-08
4.77884e-08
-6.84347e-09
4.95216e-08
-1.54102e-09
4.82973e-08
1.34033e-09
2.29277e-08
2.52308e-08
1.25271e-07
3.32892e-08
-2.58548e-08
-2.91989e-08
3.12876e-08
-1.24697e-08
4.04892e-08
-9.18078e-09
5.34991e-08
-1.28762e-08
5.63409e-08
-2.95869e-09
5.07851e-08
5.52529e-09
4.11826e-08
9.58529e-09
2.98976e-08
1.15028e-08
8.46016e-09
2.14826e-08
1.07323e-07
3.40133e-08
3.51798e-09
-2.88048e-08
1.71562e-08
-1.36013e-08
2.40114e-08
-6.54586e-09
-3.03471e-08
1.0043e-08
1.38769e-08
2.5604e-10
1.61094e-08
-2.23265e-09
3.16502e-08
-1.55404e-08
4.77418e-08
-1.60921e-08
4.81374e-08
-3.95365e-10
1.86314e-08
2.95061e-08
-3.63141e-08
5.49465e-08
-9.69138e-08
6.06009e-08
1.98525e-08
-8.08659e-08
3.37212e-08
-5.38035e-08
-3.43133e-09
-8.71943e-08
5.32447e-08
1.67767e-08
1.24959e-08
-7.57026e-08
-1.65891e-08
-9.05668e-08
8.5122e-09
-9.28855e-08
1.14116e-08
-7.66214e-08
6.85677e-09
-9.5396e-08
-1.44105e-08
-8.58931e-08
-2.0431e-08
-6.09223e-08
-2.68564e-08
-4.32616e-08
-3.49572e-08
-1.95583e-08
-2.63846e-08
-1.98825e-08
-8.32034e-09
-4.04255e-08
1.62665e-08
3.69508e-08
4.36941e-08
-6.42954e-08
-1.33761e-08
-3.19103e-08
-1.57112e-08
-6.03783e-08
4.12232e-08
-1.05706e-07
-5.60366e-09
-4.55559e-09
6.20961e-08
-2.00439e-09
-2.08657e-09
-1.88933e-08
3.3105e-08
-1.46312e-07
-1.31164e-08
-1.12437e-07
8.06768e-09
-1.19731e-07
9.16462e-09
-1.09722e-07
6.54447e-10
-1.08019e-07
3.50341e-09
-1.03517e-07
3.56153e-09
-9.8926e-08
-4.13093e-09
-8.50473e-08
-1.2395e-08
-7.06782e-08
-6.68491e-09
-5.12618e-08
1.51035e-09
-8.21371e-08
-4.46792e-09
-9.0249e-08
-1.93246e-09
-9.16138e-08
-2.40852e-09
-1.23359e-07
3.57585e-08
-1.26223e-07
8.97154e-09
-3.35765e-08
3.79694e-08
-1.23217e-07
-1.12037e-08
-9.6765e-08
-2.1166e-08
-9.05933e-08
-5.60696e-09
-8.86063e-08
-8.47802e-09
-1.17883e-07
8.35512e-09
-1.38717e-07
1.56554e-08
-1.0592e-07
-1.33701e-08
-1.35515e-07
-6.56679e-09
-1.55014e-07
-3.09761e-08
-1.35313e-07
2.43926e-08
-1.37125e-07
3.17052e-09
-1.22531e-07
1.06361e-08
-1.03298e-07
1.24666e-08
-1.24395e-07
-8.10244e-09
-1.20461e-07
-1.64035e-08
-1.58164e-07
-1.47827e-08
-9.78506e-08
-2.91692e-08
-1.35814e-07
3.40064e-08
-1.56414e-07
2.61255e-08
-1.7469e-07
2.42962e-08
-1.89196e-07
2.5741e-08
-1.80396e-07
1.81977e-08
-1.44458e-07
-4.61794e-10
-1.54895e-07
-1.83672e-08
-1.51342e-07
-1.70184e-08
-1.47307e-07
-1.05805e-08
-1.3762e-07
1.55296e-10
-1.27123e-07
-1.02397e-08
-1.12442e-07
-1.6914e-08
-1.04309e-07
-2.36727e-08
-9.62132e-08
-2.41885e-08
-9.75855e-08
9.77017e-10
-1.13327e-07
4.52478e-08
-1.28935e-07
7.05561e-08
-1.4312e-07
7.47867e-08
1.90459e-08
-1.63473e-07
-3.40578e-10
-7.19979e-08
3.90954e-08
-1.87424e-07
-9.66513e-09
-1.3211e-07
1.96822e-09
-1.5589e-07
7.0215e-09
-1.54613e-07
7.14815e-09
-1.49394e-07
6.19155e-09
-1.4192e-07
-6.17596e-10
-1.4588e-07
-1.04504e-08
-1.63659e-07
-2.65291e-09
-1.70376e-07
-2.03473e-08
-1.68863e-07
-3.64702e-08
-1.53563e-07
-4.19537e-08
-1.5991e-07
-3.60592e-09
-1.76964e-07
3.29811e-08
-1.39831e-07
7.91989e-09
-1.66108e-07
1.29002e-08
-8.91228e-08
4.16067e-08
-2.14244e-07
-1.23058e-08
-9.40035e-08
5.3226e-08
-1.74671e-07
6.67869e-09
-7.65789e-08
3.62972e-08
-1.52496e-07
-2.29195e-08
-1.64653e-07
-2.51626e-09
-1.58371e-07
1.78548e-09
-1.60444e-07
1.11447e-08
-1.51259e-07
-8.53126e-09
-1.47789e-07
3.34e-11
-1.88135e-07
1.0589e-09
-1.27379e-07
-2.05709e-08
-1.28569e-07
-1.25054e-08
-1.16237e-07
-1.90853e-08
-1.13531e-07
-1.19544e-09
-1.46187e-07
2.81877e-08
-1.44149e-07
-3.97064e-09
-1.33032e-07
-1.50355e-08
-1.75051e-07
3.25477e-08
-1.65375e-07
4.58492e-08
-1.44115e-07
1.48519e-08
-1.8424e-07
-1.64237e-08
-1.7005e-07
1.12911e-08
-1.6689e-07
-8.82439e-09
-1.78453e-07
3.08473e-09
-1.73929e-07
3.74563e-09
-1.80534e-07
-2.28261e-08
-1.8099e-07
3.18529e-08
-2.03906e-07
1.63489e-08
-1.41754e-07
4.29366e-08
-2.16452e-07
-3.36095e-08
-1.6491e-07
-5.05801e-08
-1.82356e-07
2.79061e-08
-1.7812e-07
8.23024e-09
-1.84152e-07
-2.0709e-09
-1.87481e-07
-1.49878e-08
-2.18416e-07
-3.16538e-08
-1.14731e-07
5.00121e-08
-2.11726e-07
-2.13078e-09
-2.01198e-07
1.57581e-08
-1.94274e-07
1.93536e-08
-2.11368e-07
4.4005e-08
-2.21403e-07
2.8051e-08
-2.28538e-07
6.67361e-09
-2.36676e-07
-1.02292e-08
-2.37111e-07
-1.65839e-08
-2.31517e-07
-1.61738e-08
-2.19108e-07
-1.22532e-08
-2.13094e-07
-1.62537e-08
-2.08292e-07
-2.17157e-08
-2.06579e-07
-2.53852e-08
-2.07668e-07
-2.30999e-08
-2.06934e-07
2.43771e-10
-2.0132e-07
3.96338e-08
-1.83557e-07
5.27944e-08
-1.62639e-07
5.38702e-08
9.71144e-09
-1.70456e-07
1.94357e-08
-1.52589e-07
2.08288e-08
-1.7378e-07
9.75276e-09
-1.93545e-07
2.19595e-08
-1.75746e-07
-8.80369e-09
-1.65108e-07
-3.49092e-09
-1.66466e-07
7.54936e-09
-1.69772e-07
2.68791e-09
-1.99652e-07
1.96297e-08
-2.35241e-07
-1.42313e-08
-2.41059e-07
-1.43822e-08
-2.49304e-07
1.90021e-08
-1.83258e-07
2.63019e-08
-1.82581e-07
-2.42051e-09
-2.35624e-07
-4.67832e-08
-2.11476e-07
-1.86322e-08
-1.99222e-07
6.46368e-10
-1.84059e-07
2.61758e-08
-2.09031e-07
1.26654e-08
-1.58999e-07
3.22707e-09
-1.86581e-07
3.42607e-08
-1.82748e-07
3.39575e-08
-1.59259e-07
-4.66403e-08
-1.83922e-07
2.03154e-08
-1.86886e-07
4.74915e-09
-1.77766e-07
2.0242e-09
-1.84339e-07
-1.95892e-09
-1.73573e-07
-1.07328e-08
-2.42103e-07
2.48213e-08
-1.17153e-07
3.33395e-08
-1.12005e-07
-1.76528e-08
-1.0719e-07
-2.39008e-08
-9.75983e-08
-1.07873e-08
-1.89187e-07
-5.99052e-08
-2.05587e-07
5.5099e-08
-1.17978e-07
3.30433e-08
-2.12078e-07
-6.78414e-09
-1.61596e-07
-4.63298e-09
-1.74326e-07
2.73035e-08
-1.95984e-07
5.4016e-09
-1.81106e-07
-3.58671e-09
-1.96665e-07
6.73368e-09
-2.06932e-07
1.33518e-08
-2.0078e-07
-2.40602e-09
-1.25056e-07
3.57526e-08
-2.16428e-07
-1.10783e-08
-1.89413e-07
-1.06665e-08
-1.80642e-07
-1.0602e-08
-2.04844e-07
-9.75095e-09
-9.63509e-08
2.11961e-08
-2.05277e-07
3.88527e-09
-1.93445e-07
-5.69655e-09
-2.04675e-07
9.15923e-09
-2.10356e-07
-1.13377e-08
-1.30358e-07
2.41137e-08
-1.99742e-07
-1.40875e-08
-1.9185e-07
-1.19803e-08
-2.15936e-07
-5.38538e-09
-1.66117e-07
1.83877e-08
-1.82127e-07
6.16758e-08
-1.91494e-07
3.74174e-08
-2.02564e-07
1.77438e-08
-2.12187e-07
-6.05843e-10
-2.1474e-07
-1.40309e-08
-2.15234e-07
-1.56791e-08
-2.19244e-07
-8.24325e-09
-2.26591e-07
-8.9063e-09
-2.28592e-07
-1.97144e-08
-2.27599e-07
-2.63779e-08
-2.28165e-07
-2.25335e-08
-2.27474e-07
-4.47036e-10
-2.12391e-07
2.45508e-08
-1.91115e-07
3.15202e-08
-1.69078e-07
3.18347e-08
3.358e-09
-2.27572e-07
1.58238e-09
-2.18395e-07
1.16512e-08
-2.19486e-07
8.60454e-09
-2.35987e-07
-6.99588e-09
-2.11562e-07
1.39465e-08
-1.91948e-07
-2.33433e-08
-2.22079e-07
3.76794e-08
-1.99417e-07
-2.20083e-08
-2.43522e-07
1.85052e-08
-2.63609e-07
1.10288e-08
-2.5095e-07
1.74192e-08
-2.5604e-07
2.1532e-08
-2.2469e-07
-4.99829e-09
-2.34775e-07
-3.47083e-08
-2.27038e-07
-1.06774e-08
-2.46353e-07
-1.63278e-09
-2.34238e-07
-8.98823e-09
-2.21357e-07
1.32944e-08
-2.34338e-07
2.09978e-08
-1.26562e-07
3.11382e-08
-2.06153e-07
-1.91602e-08
-2.14987e-07
-1.97678e-09
-1.07705e-07
2.57704e-08
-1.94929e-07
-2.54072e-08
-1.80891e-07
-1.12777e-08
-1.70876e-07
-7.99086e-09
-1.59049e-07
-1.37862e-08
-1.56977e-07
-1.2805e-08
-1.75836e-07
-1.0874e-09
-1.46255e-07
3.75823e-09
-1.35315e-07
1.6175e-08
-1.30047e-07
-2.94696e-08
-1.80366e-07
3.76913e-08
-1.2743e-07
2.28456e-08
-2.06613e-07
-4.3488e-08
-1.66589e-07
3.74495e-08
-1.96411e-07
2.3038e-08
-9.62222e-08
3.04624e-08
-1.93395e-07
-8.4709e-09
-1.81873e-07
-8.09293e-09
-1.64047e-07
-2.14126e-08
-1.69965e-07
1.25233e-08
-1.95404e-07
-5.977e-09
-1.69017e-07
1.59749e-08
-1.41211e-07
7.94563e-09
-1.49373e-07
-2.91596e-09
-1.50083e-07
-9.95696e-09
-1.51907e-07
-8.77812e-09
-1.52437e-07
-1.08875e-08
-7.92195e-08
8.36655e-08
-1.95134e-07
-1.36559e-08
-1.66634e-07
-3.41968e-08
-1.92057e-07
-8.22543e-09
-1.68654e-07
1.11647e-08
-1.21415e-07
-2.5589e-08
-1.89866e-07
8.3566e-09
-1.66016e-07
8.84734e-09
-1.97759e-07
2.41487e-08
-1.12735e-07
7.02122e-08
-1.95448e-07
1.51777e-08
-1.85131e-07
2.71007e-08
-1.9198e-07
2.45924e-08
-2.06438e-07
1.38523e-08
-2.236e-07
3.13066e-09
-2.38663e-07
-6.15845e-10
-2.47861e-07
9.55745e-10
-2.45773e-07
-1.09942e-08
-2.35324e-07
-3.01629e-08
-2.25082e-07
-3.66199e-08
-2.18135e-07
-2.94808e-08
-2.14414e-07
-4.167e-09
-2.02217e-07
1.23541e-08
-1.87226e-07
1.65317e-08
-1.72584e-07
1.71937e-08
1.43975e-09
-2.33198e-07
-2.40106e-09
-2.23742e-07
2.19539e-09
-2.17319e-07
2.18023e-09
-2.32065e-07
7.82089e-09
-2.30268e-07
9.79995e-09
-1.29696e-07
1.1772e-08
-2.46059e-07
-2.37057e-08
-1.34988e-07
4.59911e-08
-2.74975e-07
2.39996e-08
-2.26321e-07
-3.76251e-08
-2.08502e-07
-2.22094e-10
-2.18966e-07
3.42295e-08
-2.08808e-07
-1.51576e-08
-2.26413e-07
-1.92331e-08
-2.01916e-07
-3.49278e-08
-2.19193e-07
-2.68878e-08
-1.97706e-07
1.38404e-08
-1.85097e-07
-1.19603e-09
-1.78954e-07
1.48547e-08
-1.22599e-07
-2.55347e-08
-1.65094e-07
2.33343e-08
-1.53026e-07
-1.40455e-08
-1.22287e-07
-4.96819e-09
-1.49499e-07
1.54459e-09
-1.55205e-07
-5.57207e-09
-1.37284e-07
-2.61785e-08
-1.58716e-07
7.64558e-09
-1.75883e-07
4.36212e-09
-1.68376e-07
-8.5951e-09
-1.66268e-07
1.6499e-09
-1.68854e-07
1.70389e-08
-7.8153e-08
1.5516e-08
-1.87907e-07
-3.08279e-08
-1.669e-07
1.60542e-09
-1.89363e-07
2.37421e-08
-1.78213e-07
2.63002e-08
-1.83388e-07
2.82129e-08
-1.72308e-07
1.9382e-08
-1.90645e-07
9.77951e-09
-2.03711e-07
4.97301e-09
-1.06252e-07
1.65146e-08
-1.9052e-07
-3.61554e-08
-1.87442e-07
-1.09987e-08
-1.70085e-07
-1.38157e-09
-1.65209e-07
3.06863e-09
-1.67016e-07
-1.10909e-09
-1.79201e-07
2.22804e-09
-1.59461e-07
-3.01448e-08
-7.08572e-08
3.61953e-08
-1.89431e-07
2.3038e-08
-1.84944e-07
-1.81428e-08
-1.81894e-07
7.52002e-09
-1.95283e-07
7.15628e-09
-2.05324e-07
1.71713e-08
-1.24619e-07
2.84005e-08
-2.40875e-07
-4.99677e-08
-1.85e-07
-8.43675e-10
-1.77786e-07
1.50659e-08
-1.56063e-07
4.59597e-08
-1.73608e-07
3.46486e-08
-1.72101e-07
2.73291e-08
-1.76054e-07
2.85452e-08
-1.84009e-07
2.18077e-08
-2.00129e-07
1.92502e-08
-2.17805e-07
1.70604e-08
-2.25919e-07
9.07051e-09
-2.19677e-07
-1.72364e-08
-2.10839e-07
-3.90006e-08
-2.05555e-07
-4.1903e-08
-2.04415e-07
-3.0621e-08
-2.0095e-07
-7.63101e-09
-1.91731e-07
3.1352e-09
-1.83641e-07
8.44335e-09
-1.75595e-07
9.14934e-09
1.39075e-09
-2.02344e-07
-1.16656e-08
-1.99344e-07
-8.0485e-10
-1.96147e-07
-1.01746e-09
-1.9842e-07
1.00932e-08
-2.27438e-07
3.88177e-08
-1.35821e-07
5.4337e-08
-1.66268e-07
6.67326e-09
-1.27591e-07
7.31339e-09
-2.47876e-07
-3.47866e-08
-1.32048e-07
2.56174e-08
-1.20459e-07
-1.18116e-08
-2.02557e-07
-6.27434e-08
-1.59025e-07
-5.94507e-08
-1.54531e-07
-2.21512e-08
-1.63114e-07
1.77913e-08
-1.798e-07
-1.18666e-08
-1.62994e-07
-2.8242e-09
-1.69329e-07
5.19088e-09
-1.76802e-07
-2.24401e-08
-6.38531e-08
4.0587e-08
-1.86986e-07
-3.22744e-08
-1.3654e-07
-1.99272e-08
-1.53864e-07
1.23557e-08
-1.61319e-07
8.99896e-09
-1.91756e-07
2.31447e-08
-1.04681e-07
2.24339e-08
-2.0503e-07
-2.55011e-08
-2.17707e-07
1.6867e-08
-2.13229e-07
-1.30732e-08
-2.02816e-07
-8.76339e-09
-1.7785e-07
-7.92677e-09
-1.58325e-07
-4.16806e-09
-1.61226e-07
-2.79264e-08
-1.80568e-07
2.07358e-08
-1.98135e-07
4.13086e-08
-1.91956e-07
2.01215e-08
-1.90451e-07
2.67073e-08
-1.87238e-07
1.61692e-08
-1.81152e-07
3.69376e-09
-2.03411e-07
2.7512e-08
-1.7568e-07
-1.12159e-08
-1.86593e-07
-2.56119e-08
-2.25483e-07
2.78909e-08
-2.10994e-07
-1.58705e-08
-2.08034e-07
1.07644e-10
-2.06691e-07
-2.45251e-09
-2.4578e-07
-3.45045e-09
-1.11844e-07
1.49889e-08
-1.10383e-07
3.40183e-08
-2.35414e-07
-3.10022e-08
-2.08336e-07
-4.53412e-10
-2.09687e-07
8.96243e-09
-1.95417e-07
-7.11386e-09
-1.91988e-07
1.39172e-08
-1.82227e-07
1.62012e-08
-2.21163e-07
-1.10319e-08
-1.76205e-07
-4.40029e-08
-1.85266e-07
2.42799e-08
-1.76817e-07
3.75104e-08
-1.69903e-07
2.94683e-08
-1.6692e-07
2.63072e-08
-1.67934e-07
2.95594e-08
-1.73782e-07
2.76554e-08
-1.80536e-07
2.60049e-08
-1.82999e-07
1.95231e-08
-1.77652e-07
3.72393e-09
-1.71482e-07
-2.34057e-08
-1.73604e-07
-3.6879e-08
-1.80427e-07
-3.5079e-08
-1.90402e-07
-2.06462e-08
-1.91378e-07
-6.65449e-09
-1.87234e-07
-1.00781e-09
-1.83407e-07
4.61813e-09
-1.78878e-07
4.62117e-09
1.07847e-09
-2.10129e-07
-2.0326e-08
-2.08923e-07
-2.01085e-09
-2.1027e-07
3.28881e-10
-2.01848e-07
1.67073e-09
-2.07049e-07
-7.49658e-10
-1.66926e-07
1.57567e-08
-1.52599e-07
3.66611e-08
-1.58508e-07
1.16648e-08
-1.84931e-07
-8.3635e-09
-1.52666e-07
-6.64771e-09
-1.26463e-07
-3.84071e-08
-2.11314e-07
1.9951e-08
-1.29985e-07
-5.09281e-09
-1.32856e-07
-1.65987e-08
-2.06206e-07
-4.16262e-08
-1.93534e-07
-2.66418e-08
-1.85867e-07
-1.23883e-08
-2.24352e-07
-1.56965e-09
-1.95018e-07
-4.71728e-09
-1.58335e-07
5.51885e-09
-1.97695e-07
5.08861e-09
-1.15762e-07
3.17887e-08
-2.19143e-07
-1.73851e-08
-2.0807e-07
-4.1969e-09
-2.38471e-07
8.31611e-09
-2.22696e-07
5.18882e-08
-1.58322e-07
4.74434e-08
-2.55866e-07
-1.69364e-08
-2.54136e-07
-1.74138e-08
-2.6284e-07
-6.00324e-11
-2.48104e-07
-2.24336e-08
-2.47751e-07
-4.52146e-09
-1.48111e-07
8.24767e-09
-2.11892e-07
-4.84303e-08
-2.05932e-07
3.2852e-08
-1.9755e-07
1.17393e-08
-1.92587e-07
2.17446e-08
-1.89042e-07
1.26239e-08
-1.77334e-07
-9.9245e-09
-2.19158e-07
2.41069e-08
-2.1609e-07
3.27192e-08
-1.3658e-07
2.91804e-08
-2.5014e-07
-3.762e-08
-2.21561e-07
2.5784e-09
-2.17102e-07
-4.35153e-09
-2.14783e-07
-6.98602e-09
-2.71244e-07
8.24267e-09
-1.08638e-07
3.22328e-08
-1.90665e-07
-1.69013e-08
-2.07579e-07
-1.60338e-08
-1.98816e-07
-1.1245e-08
-2.09721e-07
-2.53621e-08
-1.8588e-07
1.59522e-08
-1.8071e-07
8.74734e-09
-1.81588e-07
1.7079e-08
-2.23189e-07
2.8404e-08
-1.33092e-07
1.58776e-09
-2.54604e-07
1.27167e-08
-2.34223e-07
1.71293e-08
-2.06183e-07
1.42797e-09
-1.82519e-07
4.77422e-09
-1.79081e-07
2.79458e-08
-1.76142e-07
2.47166e-08
-1.70875e-07
2.07382e-08
-1.64335e-07
1.29827e-08
-1.55723e-07
-4.88779e-09
-1.54872e-07
-2.42559e-08
-1.63258e-07
-2.84927e-08
-1.74387e-07
-2.39496e-08
-1.8246e-07
-1.25733e-08
-1.8401e-07
-5.10317e-09
-1.82999e-07
-2.01881e-09
-1.81603e-07
3.22411e-09
-1.80074e-07
3.09345e-09
1.27912e-09
-1.74884e-07
-3.95879e-08
-1.93382e-07
1.64868e-08
-2.12002e-07
1.89482e-08
-1.76492e-07
-3.38403e-08
-2.06418e-07
-1.34855e-08
-1.71995e-07
2.56492e-08
-1.53405e-07
1.66902e-08
-1.70944e-07
2.89077e-08
-1.77862e-07
-1.44526e-09
-1.85694e-07
-7.10668e-10
-7.65573e-08
-1.19805e-08
-2.09861e-07
-2.50348e-08
-1.64763e-07
-5.37157e-09
-1.59145e-07
-2.22169e-08
-1.84724e-07
-1.64724e-08
-1.89161e-07
-2.24336e-08
-2.20208e-07
1.64116e-08
-2.62583e-07
-4.40796e-09
-2.05742e-07
-1.42575e-08
-2.1614e-07
1.59171e-08
-2.1623e-07
5.2303e-09
-1.87856e-07
3.08956e-09
-2.31399e-07
2.61577e-08
-2.41112e-07
5.51603e-09
-2.28092e-07
-7.11537e-09
-2.50422e-07
7.42177e-08
-2.25878e-07
2.49699e-08
-2.54627e-07
1.164e-08
-2.66421e-07
-5.62074e-09
-2.96303e-07
-1.18019e-08
-2.85313e-07
1.08917e-08
-2.84387e-07
-8.35841e-09
-2.6089e-07
-1.52497e-08
-1.59046e-07
-1.48434e-08
-2.58314e-07
-8.18022e-10
-2.47344e-07
-1.86627e-09
-2.39854e-07
1.42552e-08
-2.39933e-07
1.02543e-08
-1.5326e-07
3.90893e-08
-2.32889e-07
-2.955e-08
-2.25332e-07
2.51617e-08
-2.05841e-07
9.68936e-09
-2.40111e-07
-3.34995e-09
-2.38746e-07
1.21333e-09
-2.449e-07
1.75754e-09
-2.45632e-07
-6.25396e-09
-2.52916e-07
-2.66608e-08
-2.08481e-07
3.17918e-08
-2.18979e-07
-8.703e-09
-2.16389e-07
-1.8624e-08
-2.10555e-07
-1.70794e-08
-2.1347e-07
-2.21884e-08
-1.84337e-07
-1.30476e-08
-1.77739e-07
2.14882e-09
-1.79411e-07
1.87511e-08
-2.37369e-07
4.15946e-08
-8.36868e-08
2.78133e-08
-2.40201e-07
3.62839e-08
-2.23446e-07
-2.07567e-09
-1.80633e-07
-4.13851e-08
-1.68041e-07
-6.10369e-09
-1.66451e-07
2.80356e-08
-1.64345e-07
2.26106e-08
-1.65662e-07
2.2055e-08
-1.69636e-07
1.69577e-08
-1.71503e-07
-3.02092e-09
-1.74776e-07
-2.09831e-08
-1.78644e-07
-2.46239e-08
-1.82974e-07
-1.96197e-08
-1.85922e-07
-9.62475e-09
-1.85553e-07
-5.47142e-09
-1.84911e-07
-2.66048e-09
-1.83833e-07
2.14849e-09
-1.82305e-07
1.56633e-09
5.26924e-10
-8.96727e-08
8.15643e-09
-1.92859e-07
-1.37158e-08
-2.12578e-07
-6.10079e-09
-1.35289e-07
6.7941e-08
-1.54032e-07
5.20433e-09
-1.2303e-07
-5.14416e-09
-1.31412e-07
2.61451e-08
-2.02829e-07
-3.26221e-08
-1.90753e-07
-1.55907e-08
-1.93765e-07
3.24253e-10
-8.37421e-08
1.3807e-08
-1.99795e-07
-4.20018e-08
-1.95982e-07
-9.28021e-09
-2.12321e-07
-5.87821e-09
-2.39589e-07
8.35141e-09
-1.54894e-07
2.85576e-08
-2.52335e-07
-1.90645e-08
-2.67884e-07
8.45346e-09
-1.71598e-07
2.5405e-08
-2.63982e-07
-2.4252e-08
-2.56494e-07
-2.25811e-09
-2.5525e-07
1.84606e-09
-2.77651e-07
3.79093e-09
-2.93263e-07
2.11275e-08
-1.87046e-07
6.57381e-08
-2.85547e-07
-7.10934e-09
-2.5265e-07
3.68403e-08
-2.64508e-07
2.34977e-08
-2.74816e-07
7.56822e-09
-2.86179e-07
-4.39341e-10
-2.74342e-07
-3.75313e-09
-2.5736e-07
-2.50852e-08
-2.435e-07
-2.94096e-08
-1.21393e-07
-1.40961e-09
-2.31258e-07
-2.36683e-08
-2.27664e-07
-7.81956e-09
-2.18484e-07
5.07436e-09
-2.24082e-07
1.58522e-08
-2.16948e-07
2.90469e-08
-1.46827e-07
3.60165e-08
-2.38497e-07
-1.59737e-08
-2.20496e-07
-8.31206e-09
-2.29453e-07
5.66471e-09
-2.272e-07
-1.0392e-09
-2.37394e-07
1.19514e-08
-2.52073e-07
8.42425e-09
-1.60142e-07
1.73445e-08
-2.25679e-07
-3.52964e-08
-2.11655e-07
-2.50302e-08
-2.05394e-07
-2.48848e-08
-1.99321e-07
-2.31522e-08
-1.92427e-07
-2.71198e-08
-1.90784e-07
-1.45436e-08
-1.89757e-07
-8.24445e-10
-1.8585e-07
1.48439e-08
-2.18488e-07
2.91674e-08
-6.0193e-08
4.85882e-08
-1.94899e-07
-7.71037e-09
-2.02156e-07
5.18103e-09
-1.02749e-07
3.82781e-08
-1.02524e-07
-5.2821e-09
-1.53181e-07
-5.24244e-08
-1.33525e-07
2.95497e-09
-1.29499e-07
1.80295e-08
-1.2954e-07
1.69986e-08
-1.39057e-07
6.49614e-09
-1.50182e-07
-9.85806e-09
-1.54555e-07
-2.02508e-08
-1.61654e-07
-1.25199e-08
-1.71087e-07
-1.91283e-10
-1.77789e-07
1.2311e-09
-1.80949e-07
5.00515e-10
-1.81513e-07
2.71379e-09
-1.82175e-07
2.2293e-09
2.66785e-10
-1.57289e-07
-2.50167e-08
-1.92018e-07
2.07997e-08
-1.98673e-07
5.53795e-10
-1.85865e-07
1.22616e-08
-1.76889e-07
3.87568e-08
-9.05064e-08
4.32698e-08
-1.79847e-07
-1.63813e-08
-1.79456e-07
-3.55444e-08
-1.78668e-07
-1.65471e-08
-1.56574e-07
-6.58663e-08
-1.27152e-07
-1.44586e-08
-1.37361e-07
1.11355e-08
-1.60788e-07
1.27301e-08
-1.71619e-07
6.59341e-09
-1.75206e-07
1.19379e-08
-1.63859e-07
1.52473e-08
-1.94912e-07
1.19878e-08
-1.77641e-07
-8.73076e-09
-2.00125e-07
4.76275e-08
-2.38392e-07
1.60567e-08
-2.48963e-07
8.31271e-09
-2.56055e-07
8.93716e-09
-2.64676e-07
1.24117e-08
-2.67925e-07
2.43762e-08
-2.33582e-07
3.13955e-08
-2.57765e-07
1.70733e-08
-2.35956e-07
1.50307e-08
-2.54086e-07
-5.7315e-09
-2.55945e-07
9.33076e-09
-2.48791e-07
-4.98666e-09
-2.51014e-07
1.03029e-09
-2.4954e-07
1.52361e-08
-1.7299e-07
2.71557e-08
-1.26667e-07
-4.51366e-08
-2.11915e-07
-7.16062e-08
-2.19141e-07
-2.72721e-09
-2.0573e-07
-8.33648e-09
-2.06961e-07
1.91942e-08
-1.68643e-07
-9.27133e-09
-1.75342e-07
4.02175e-08
-1.96103e-07
4.78718e-09
-1.98258e-07
-8.17989e-09
-1.93137e-07
-4.51514e-08
-1.9704e-07
4.96016e-08
-1.76892e-07
-8.19623e-09
-1.72938e-07
4.47024e-09
-1.55743e-07
1.49335e-10
-1.7595e-07
-1.54495e-08
-1.84786e-07
-1.61946e-08
-1.79332e-07
-3.0339e-08
-1.75788e-07
-2.66968e-08
-1.88645e-07
-1.23378e-08
-1.75656e-07
-2.74034e-08
-1.80631e-07
2.35862e-09
-1.71232e-07
7.19197e-09
-1.49596e-07
7.45558e-09
-1.08404e-07
5.93046e-09
-1.30711e-07
1.45971e-08
-1.40755e-07
1.52249e-08
-1.11964e-07
9.48702e-09
-1.52975e-07
-9.03873e-09
-1.44723e-07
-1.49671e-08
-1.25714e-07
-1.46077e-08
-1.09488e-07
1.80436e-09
-9.94901e-08
7.00039e-09
-1.06562e-07
1.35686e-08
-1.27387e-07
1.09668e-08
-1.49743e-07
2.10529e-09
-1.66654e-07
4.39178e-09
-1.76356e-07
9.51135e-09
-1.83093e-07
7.96799e-09
-1.86031e-07
3.43916e-09
-1.84282e-07
9.66502e-10
-1.83628e-07
1.57742e-09
-2.85828e-10
-1.42056e-07
3.26103e-08
-2.32138e-07
-2.06306e-08
-2.31136e-07
-2.81687e-09
-2.17785e-07
-1.09029e-09
-1.97294e-07
1.86615e-08
-1.74879e-07
2.2197e-08
-1.84201e-07
-9.08519e-09
-1.80546e-07
-4.29598e-08
-2.07988e-07
-3.00201e-08
-1.99159e-07
-2.82792e-08
-1.65916e-07
-4.97345e-08
-1.71075e-07
1.64082e-08
-1.53584e-07
-4.89085e-09
-1.60836e-07
1.38448e-08
-1.62002e-07
1.29716e-08
-1.60259e-07
1.33672e-08
-1.70979e-07
2.06304e-08
-9.08814e-08
4.63809e-08
-1.92301e-07
1.50315e-08
-1.98529e-07
2.20598e-08
-2.02761e-07
1.25443e-08
-2.09695e-07
1.58713e-08
-2.21583e-07
2.40542e-08
-2.21848e-07
2.46405e-08
-2.17821e-07
2.73684e-08
-2.13559e-07
1.28111e-08
-2.00684e-07
2.15608e-09
-2.10483e-07
6.21476e-09
-1.959e-07
-5.34751e-09
-1.77573e-07
-2.53118e-08
-1.84066e-07
7.52272e-09
-1.71369e-07
2.72246e-09
-1.93473e-07
4.70084e-08
-1.17376e-07
1.44533e-08
-1.48714e-07
-3.82835e-08
-2.27065e-07
-5.73235e-08
-2.29623e-07
-8.09488e-09
-2.6107e-07
5.87403e-09
-1.33048e-07
4.30398e-08
-2.08943e-07
-1.68347e-08
-1.92435e-07
-1.38522e-08
-2.0278e-07
9.57112e-11
-1.28199e-07
1.64198e-08
-1.94455e-07
-6.19051e-08
-1.65852e-07
7.96829e-09
-1.73695e-07
1.23136e-08
-1.77778e-07
4.23175e-09
-1.81104e-07
-1.21234e-08
-1.90909e-07
-6.3895e-09
-1.98867e-07
-2.23813e-08
-1.92071e-07
-3.34927e-08
-1.84345e-07
-6.29514e-08
-1.82074e-07
1.42205e-08
-1.89729e-07
8.156e-09
-1.81813e-07
1.13112e-09
-1.76114e-07
5.4065e-11
-1.55995e-07
-1.61714e-08
-1.60008e-07
2.02024e-08
-1.50121e-07
5.33756e-09
-1.32007e-07
-8.62747e-09
-1.28353e-07
-1.26929e-08
-1.29617e-07
-1.22551e-08
-1.28938e-07
-1.39908e-08
-1.2157e-07
-5.56337e-09
-1.20841e-07
6.27144e-09
-1.29073e-07
2.18002e-08
-1.47216e-07
2.91106e-08
-1.66644e-07
2.15334e-08
-1.75665e-07
1.3413e-08
-1.77879e-07
1.17252e-08
-1.79394e-07
9.4835e-09
-1.82313e-07
6.35952e-09
-1.82679e-07
1.33398e-09
-1.82927e-07
1.82695e-09
-3.64096e-10
-1.8156e-07
1.4365e-08
-2.04073e-07
1.67135e-09
-2.09734e-07
2.8436e-09
-1.87283e-07
-2.37838e-08
-1.77125e-07
8.50233e-09
-1.96651e-07
4.17235e-08
-2.12905e-07
7.07499e-09
-1.29774e-07
9.97447e-09
-2.40978e-07
-5.14598e-08
-2.28562e-07
-4.34425e-08
-1.34348e-07
-9.64577e-09
-2.35879e-07
-6.11322e-08
-1.86074e-07
-9.92775e-09
-1.53554e-07
-1.7109e-08
-1.57678e-07
1.86872e-08
-1.35758e-07
-8.7741e-09
-1.10436e-07
-4.94719e-09
-6.72e-08
2.23908e-09
-7.76964e-08
2.56337e-08
-9.99586e-08
4.39814e-08
-1.23532e-07
3.50975e-08
-1.48137e-07
4.19879e-08
-1.68045e-07
4.39613e-08
-1.8399e-07
3.84789e-08
-1.81634e-07
2.5012e-08
-1.78207e-07
9.38383e-09
-1.67356e-07
-8.69537e-09
-1.73635e-07
-3.22741e-08
-1.69527e-07
-9.51006e-09
-1.62606e-07
1.2535e-08
-1.77614e-07
2.09325e-08
-9.43492e-08
5.51443e-08
-1.87104e-07
6.48889e-09
-1.47418e-07
-2.53807e-08
-1.60726e-07
-2.49756e-08
-1.96296e-07
-2.23384e-08
-2.11222e-07
6.76199e-09
-2.57407e-07
7.36661e-09
-1.69758e-07
1.58667e-10
-1.72252e-07
-1.45131e-08
-1.65531e-07
-2.05724e-08
-1.73515e-07
-3.66886e-08
-1.75984e-07
1.87217e-08
-2.0468e-07
1.15579e-08
-1.59232e-07
-3.74802e-08
-1.7669e-07
2.9471e-08
-1.85425e-07
1.29669e-08
-1.67095e-07
-3.07676e-08
-1.82592e-07
9.1073e-09
-1.84272e-07
-2.07009e-08
-2.01175e-07
-1.65899e-08
-1.2757e-07
-9.5254e-10
-2.13363e-07
-3.27893e-08
-2.06621e-07
-7.55311e-10
-2.09449e-07
1.8035e-09
-2.23806e-07
1.19812e-08
-1.24033e-07
2.22164e-08
-2.05172e-07
-3.16958e-08
-1.68898e-07
-3.09363e-08
-1.58416e-07
-1.91094e-08
-1.48378e-07
-2.10029e-08
-1.38215e-07
-2.08126e-08
-1.3776e-07
-1.44461e-08
-1.39862e-07
-3.46091e-09
-1.50427e-07
1.68364e-08
-1.64389e-07
3.57624e-08
-1.75671e-07
4.03931e-08
-1.8474e-07
3.06022e-08
-1.86803e-07
1.54761e-08
-1.85478e-07
1.04014e-08
-1.84266e-07
8.27136e-09
-1.84492e-07
6.58649e-09
-1.8463e-07
1.47363e-09
-1.84091e-07
1.28994e-09
-9.69035e-10
-2.01886e-07
1.88576e-08
-2.10662e-07
1.04467e-08
-2.23557e-07
1.34575e-08
-1.55583e-07
4.39295e-08
-1.59121e-07
1.36266e-08
-2.33785e-07
-1.79152e-08
-2.26132e-07
-5.7897e-10
-2.10601e-07
-5.5564e-09
-2.31206e-07
-3.13805e-08
-2.16453e-07
-5.87956e-08
-2.07593e-07
-1.83192e-08
-2.43163e-07
-2.55621e-08
-2.49666e-07
-3.4251e-09
-1.54107e-07
2.16349e-08
-2.49898e-07
-1.94359e-08
-2.36655e-07
-2.23347e-08
-2.20952e-07
-2.07012e-08
-1.81427e-07
-3.76478e-08
-1.89404e-07
3.19404e-08
-2.12889e-07
2.26897e-08
-1.96675e-07
6.58233e-08
-1.89456e-07
3.44176e-08
-1.58623e-07
1.53516e-08
-1.53105e-07
3.29608e-08
-1.59096e-07
2.94399e-08
-1.49571e-07
-1.40865e-10
-1.38244e-07
-2.00222e-08
-1.48026e-07
-2.24926e-08
-1.41743e-07
-1.57928e-08
-1.40618e-07
9.975e-09
-1.35582e-07
1.58966e-08
-1.11271e-07
3.05179e-08
-1.60833e-07
1.08223e-08
-1.49196e-07
9.39068e-09
-1.66546e-07
-7.62606e-09
-1.93661e-07
6.75201e-09
-1.97952e-07
9.05419e-09
-2.3624e-07
-1.61494e-09
-1.90141e-07
1.24983e-09
-1.74397e-07
-3.02573e-08
-1.62696e-07
-3.2273e-08
-1.90699e-07
-8.59876e-09
-2.08948e-07
-7.79711e-09
-2.16249e-07
1.88593e-08
-1.20645e-07
4.72166e-08
-2.12069e-07
-1.20511e-08
-2.0499e-07
1.63253e-09
-1.06139e-07
6.06873e-09
-1.79248e-07
-5.1004e-08
-1.47623e-07
-5.28657e-08
-1.69976e-07
5.76348e-09
-1.68637e-07
-2.29226e-09
-1.86308e-07
-1.35512e-08
-1.70389e-07
-1.49537e-08
-1.61405e-07
-7.34574e-09
-1.60762e-07
9.68481e-09
-1.50334e-07
9.92152e-09
-1.72965e-07
-8.97359e-09
-1.90014e-07
-1.38868e-08
-1.94905e-07
-1.21067e-08
-1.91304e-07
-2.24452e-08
-1.87334e-07
-2.47827e-08
-1.81995e-07
-1.97852e-08
-1.81235e-07
-4.22029e-09
-1.82075e-07
1.76768e-08
-1.82238e-07
3.59251e-08
-1.81252e-07
3.94073e-08
-1.81164e-07
3.05144e-08
-1.80857e-07
1.51694e-08
-1.80915e-07
1.04602e-08
-1.81168e-07
8.52441e-09
-1.8216e-07
7.57933e-09
-1.82822e-07
2.13741e-09
-1.83043e-07
1.51281e-09
-8.16379e-10
-2.20235e-07
2.67134e-08
-2.18536e-07
8.74765e-09
-2.09822e-07
4.74271e-09
-1.79692e-07
1.33516e-08
-1.78326e-07
1.22601e-08
-1.95383e-07
-8.59172e-10
-1.72184e-07
-2.37776e-08
-2.00163e-07
2.24225e-08
-2.04262e-07
-2.93662e-08
-1.2615e-07
7.90962e-11
-2.04073e-07
-7.2069e-08
-1.91017e-07
-4.06996e-08
-1.77575e-07
-1.68674e-08
-1.5898e-07
4.66096e-09
-1.90287e-07
9.94957e-09
-2.15153e-07
5.63376e-10
-2.36587e-07
5.20035e-10
-1.67085e-07
2.85368e-08
-2.57366e-07
-1.03771e-08
-2.53322e-07
1.84136e-08
-2.02751e-07
-2.74465e-08
-1.72526e-07
4.67656e-08
-1.08953e-07
8.56868e-08
-8.60658e-08
1.15213e-08
-1.63426e-07
-2.77861e-08
-1.5065e-07
-1.29169e-08
-1.48617e-07
-2.20556e-08
-1.49563e-07
-2.13295e-08
-1.48704e-07
-1.66516e-08
-1.49771e-07
-3.37264e-08
-1.18703e-07
-1.51783e-08
-1.06437e-07
1.82517e-08
-1.19524e-07
2.37989e-08
-1.28273e-07
1.81396e-08
-1.51593e-07
1.56936e-08
-1.5594e-07
1.10992e-08
-1.57397e-07
1.07128e-08
-1.68322e-07
7.60861e-09
-1.57555e-07
-9.61611e-09
-1.58835e-07
-2.73704e-08
-1.61238e-07
-2.82253e-08
-1.79294e-07
9.45712e-09
-1.874e-07
-1.50414e-09
-1.91509e-07
2.29679e-08
-1.69899e-07
2.56058e-08
-1.91163e-07
9.09065e-09
-1.82339e-07
-7.19163e-09
-1.48694e-07
-2.76384e-08
-1.49607e-07
-5.215e-08
-9.07643e-08
2.39789e-08
-1.80929e-07
-3.74489e-08
-1.84196e-07
9.74559e-10
-2.2161e-07
2.41084e-08
-2.12918e-07
-2.59701e-08
-2.13378e-07
-9.16067e-09
-2.28188e-07
-1.84348e-08
-2.26507e-07
1.28789e-08
-2.18595e-07
2.74299e-08
-2.33092e-07
7.57673e-10
-2.28106e-07
-1.4641e-08
-2.3223e-07
-1.83214e-08
-2.38394e-07
-1.86182e-08
-2.43952e-07
-1.42278e-08
-2.42482e-07
-5.68966e-09
-2.32049e-07
7.24334e-09
-2.15515e-07
1.93914e-08
-2.01567e-07
2.546e-08
-1.92989e-07
2.19361e-08
-1.90949e-07
1.31295e-08
-1.89241e-07
8.75275e-09
-1.87439e-07
6.72271e-09
-1.85457e-07
5.5991e-09
-1.84576e-07
1.25796e-09
-1.83792e-07
7.29378e-10
-1.05245e-09
-2.13779e-07
4.40396e-08
-2.19971e-07
1.49386e-08
-1.98864e-07
-1.63641e-08
-1.87599e-07
2.08601e-09
-2.0813e-07
3.27908e-08
-2.11452e-07
2.46295e-09
-1.10109e-07
9.18116e-09
-2.07051e-07
-5.9706e-08
-1.74525e-07
-1.71251e-08
-1.57849e-07
-1.65982e-08
-1.86184e-07
-4.44688e-08
-1.90825e-07
-3.60588e-08
-1.71026e-07
-3.70452e-08
-1.60664e-07
-5.70065e-09
-1.76016e-07
2.69235e-08
-1.81687e-07
4.39404e-09
-1.95603e-07
1.25625e-08
-1.84048e-07
1.86868e-08
-2.00069e-07
5.64341e-09
-2.29504e-07
3.04991e-09
-1.3774e-07
5.98595e-08
-1.15795e-07
2.52975e-08
-1.62351e-07
-2.93494e-09
-1.40361e-07
-1.20234e-08
-1.67769e-07
-3.77659e-10
-1.72559e-07
-6.4156e-09
-1.52298e-07
-4.07637e-08
-1.81219e-07
7.51548e-09
-1.87916e-07
-1.1803e-08
-1.99787e-07
-1.98171e-08
-1.67405e-07
-3.21323e-09
-1.59637e-07
8.7758e-09
-1.53172e-07
1.73344e-08
-1.54614e-07
1.95812e-08
-1.56249e-07
1.73284e-08
-1.59266e-07
1.26202e-08
-1.43706e-07
-4.84748e-09
-1.38756e-07
2.70915e-09
-1.59439e-07
1.11662e-08
-1.63392e-07
-2.17918e-08
-1.7455e-07
-1.70674e-08
-1.99647e-07
-8.07966e-09
-1.81928e-07
2.53477e-08
-1.81363e-07
2.05469e-08
-1.66981e-07
1.12236e-08
-1.67678e-07
9.78757e-09
-1.66348e-07