/*--------------------------------*- C++ -*----------------------------------*\
  =========                 |
  \\      /  F ield         | OpenFOAM: The Open Source CFD Toolbox
   \\    /   O peration     | Website:  https://openfoam.org
    \\  /    A nd           | Version:  12
     \\/     M anipulation  |
\*---------------------------------------------------------------------------*/
FoamFile
{
    format      ascii;
    class       surfaceScalarField;
    location    "0.3";
    object      phi.water_0;
}
// * * * * * * * * * * * * * * * * * * * * * * * * * * * * * * * * * * * * * //

dimensions      [0 3 -1 0 0 0 0];

internalField   nonuniform List<scalar> 
7375
(
1.82865e-07
4.66846e-08
5.97295e-08
-1.29692e-08
5.92899e-08
4.0936e-10
5.64795e-08
2.81111e-09
5.72321e-08
-7.2766e-10
7.23804e-08
-1.53974e-08
7.35499e-08
-1.96639e-09
8.36713e-08
-1.01206e-08
9.28712e-08
-8.37235e-09
9.84685e-08
-5.57766e-09
9.36246e-08
4.90943e-09
9.63618e-08
-2.69367e-09
1.00912e-07
-4.40111e-09
1.09469e-07
-7.42672e-09
1.13006e-07
-3.41621e-09
1.02804e-07
9.07024e-09
8.91966e-08
1.36321e-08
7.60275e-08
1.32918e-08
6.13285e-08
1.51944e-08
1.76763e-07
2.02237e-08
3.87145e-08
1.94958e-09
4.17553e-08
-3.02164e-09
4.44836e-08
-2.76047e-09
6.72339e-08
-2.30491e-08
4.48582e-08
2.22844e-08
3.96023e-08
5.13972e-09
3.91947e-08
5.0377e-10
4.19162e-08
-2.63689e-09
3.3186e-08
8.87303e-09
2.56117e-08
7.61934e-09
2.17995e-08
3.84645e-09
2.12524e-08
5.40057e-10
3.41208e-08
-1.25789e-08
4.15367e-08
-7.51174e-09
4.48914e-08
-3.83055e-09
4.6986e-08
-2.12723e-09
4.78415e-08
-1.41019e-09
3.36915e-08
1.41506e-08
1.72246e-08
1.68537e-08
1.37854e-08
3.50366e-09
1.99305e-08
-6.09799e-09
-2.89104e-08
4.02354e-09
2.18865e-08
-6.01363e-09
2.70462e-08
-5.28579e-09
4.73801e-08
-2.1311e-08
5.37357e-08
-6.35476e-09
5.81726e-08
-3.94104e-09
8.53588e-08
-2.74776e-08
5.87836e-08
2.64695e-08
5.06355e-08
8.29664e-09
3.00454e-08
2.04285e-08
1.03649e-08
1.97081e-08
1.16555e-07
2.94394e-08
2.28028e-08
-4.18168e-08
7.1861e-08
-4.90083e-08
5.03504e-08
2.12543e-08
5.04797e-08
-1.85837e-10
5.07793e-08
-3.27636e-10
4.52335e-08
5.52113e-09
2.10633e-08
2.46402e-08
-8.14951e-09
-1.53396e-08
3.00195e-08
6.08553e-09
2.00466e-08
1.02136e-08
1.36396e-08
6.23263e-09
-3.64307e-09
1.70725e-08
8.78749e-08
4.30645e-08
-1.7812e-08
-2.76619e-08
3.03536e-09
-2.08472e-08
2.46472e-08
-2.16124e-08
4.3642e-08
-1.89943e-08
4.59233e-08
-2.28151e-09
1.73549e-08
2.85681e-08
-3.7249e-08
5.46027e-08
-9.81376e-08
6.08871e-08
2.02362e-08
-5.02739e-08
2.43336e-08
-6.32401e-08
-2.04546e-12
-4.66773e-08
-1.58382e-08
-6.43034e-08
2.04379e-08
-6.01434e-08
-6.15679e-09
-9.01247e-08
1.45845e-08
-9.74078e-08
6.23652e-09
-1.01111e-07
-6.51964e-09
-9.07468e-08
-1.87367e-08
-6.74181e-08
-2.89059e-08
-4.40599e-08
-1.84484e-08
-7.31392e-08
-1.76354e-08
-1.99388e-08
-1.32857e-08
-1.76206e-08
-9.94788e-09
-2.01309e-08
-8.79836e-10
-3.28586e-08
2.14632e-08
-7.90772e-08
1.46219e-08
-4.60786e-08
2.60721e-08
-3.81322e-08
7.32221e-09
4.41097e-08
7.05202e-08
-7.41583e-08
-1.28587e-08
-7.37862e-08
-4.14999e-09
-9.25066e-08
1.50164e-08
-2.02144e-08
4.0346e-08
-1.20927e-07
-1.23335e-08
-1.32594e-07
1.68076e-08
-1.09748e-07
-2.09899e-08
-1.00285e-07
-1.20992e-08
-7.18692e-08
-1.95433e-08
-9.87252e-08
3.41274e-08
-9.7123e-08
3.23505e-09
-8.77723e-08
-8.81054e-09
-8.8609e-08
-1.26377e-08
-8.58788e-08
-1.01651e-08
-9.14371e-08
1.72763e-09
-1.00155e-07
6.59053e-09
-1.02258e-07
7.00059e-10
-1.18985e-07
3.10226e-08
-1.09867e-07
7.73491e-09
-8.32436e-08
-2.33575e-08
-1.07521e-07
1.92767e-08
-9.73542e-08
-6.1434e-09
-9.75132e-08
-7.84263e-09
-1.37823e-07
-1.30454e-08
-1.18329e-07
6.33031e-09
-1.50488e-07
2.8154e-08
-1.65168e-07
9.05372e-09
-6.44536e-08
8.07681e-09
-1.4499e-07
-2.52895e-08
-1.47211e-07
1.05404e-08
-1.32722e-07
5.93963e-09
-1.24663e-07
1.02955e-08
-9.96082e-08
4.08454e-09
-1.31576e-07
-9.84915e-09
-2.9188e-08
-1.69682e-08
-1.32022e-07
-8.85779e-09
-1.49409e-07
1.60179e-08
-1.53936e-07
4.19928e-09
-1.78475e-07
2.64184e-08
-2.06136e-07
6.53314e-09
-1.95542e-07
2.47821e-08
-1.80119e-07
-7.38286e-09
-1.63867e-07
-6.14096e-09
-1.54703e-07
-2.99344e-09
-1.40619e-07
2.9878e-09
-1.08234e-07
9.81839e-09
-1.20589e-07
-1.53076e-08
-1.15842e-07
-2.55946e-08
-1.08502e-07
-2.89521e-08
-1.00062e-07
-2.74347e-08
-1.00451e-07
-1.89267e-09
-1.1557e-07
4.36864e-08
-1.30929e-07
6.99603e-08
-1.45052e-07
7.50087e-08
1.95108e-08
-1.21606e-07
1.98813e-08
-1.42253e-07
1.91948e-08
-5.58908e-08
3.34874e-08
-1.73457e-07
-4.07019e-08
-1.5869e-07
2.38437e-08
-1.6338e-07
1.91269e-08
-1.60814e-07
3.67038e-09
-1.57505e-07
-9.82792e-09
-1.44018e-07
-3.22238e-08
-1.24254e-07
-4.86688e-08
-1.32612e-07
-1.01943e-08
-1.84921e-07
3.46745e-08
-1.74155e-07
-2.3943e-08
-1.73764e-07
-1.21116e-08
-1.81908e-07
7.26481e-09
-1.53929e-07
-4.65978e-09
-1.56339e-07
1.84777e-08
-1.71239e-07
3.92429e-08
-8.07804e-08
5.16945e-08
-1.45504e-07
1.64405e-09
-1.58814e-07
-1.18049e-09
-1.61895e-07
5.50926e-10
-1.60041e-07
1.30299e-08
-1.389e-07
1.87932e-08
-1.56353e-07
5.12028e-09
-1.78876e-07
-5.60843e-09
-1.53299e-07
-1.79956e-09
-1.58159e-07
-7.23929e-09
-4.38121e-08
8.60068e-10
-1.51081e-07
8.36591e-09
-1.57571e-07
8.18305e-09
-1.47626e-07
-1.88454e-08
-1.43952e-07
-1.63119e-08
-1.26031e-07
-2.83751e-08
-1.46689e-07
2.23854e-08
-1.79036e-07
3.71116e-08
-1.09572e-07
6.76203e-08
-2.07336e-07
-4.39827e-09
-1.97436e-07
-4.17919e-09
-1.03945e-07
1.88388e-08
-1.94945e-07
-2.29665e-08
-1.81099e-07
-2.00518e-08
-1.84015e-07
-4.92663e-09
-2.12529e-07
1.5602e-08
-1.08253e-07
3.58629e-08
-2.32172e-07
-2.7276e-08
-2.06481e-07
-1.45303e-08
-1.51945e-07
-2.22507e-09
-1.71733e-07
-7.30959e-09
-1.88272e-07
2.68062e-08
-1.91247e-07
8.97557e-09
-1.83076e-07
2.12535e-09
-1.73302e-07
-5.68978e-09
-1.9131e-07
6.20803e-09
-9.85665e-08
2.59752e-08
-2.11811e-07
-3.14827e-08
-2.10385e-07
-3.06367e-08
-1.67831e-07
8.64705e-09
-2.06917e-07
6.76155e-08
-2.32475e-07
3.39642e-08
-2.31624e-07
2.36833e-08
-2.43937e-07
4.92982e-09
-2.44812e-07
-5.26642e-09
-2.38965e-07
-8.84056e-09
-2.2712e-07
-8.85794e-09
-2.09584e-07
-7.71785e-09
-2.07768e-07
-1.7124e-08
-2.08118e-07
-2.52452e-08
-2.08431e-07
-2.86393e-08
-2.1009e-07
-2.57753e-08
-2.09657e-07
-2.32647e-09
-2.03998e-07
3.80273e-08
-1.86106e-07
5.20668e-08
-1.64856e-07
5.3757e-08
9.97979e-09
-1.68867e-07
1.95137e-08
-1.71259e-07
2.15882e-08
-1.526e-07
1.29303e-08
-1.77739e-07
-1.57236e-08
-1.87825e-07
3.57429e-08
-1.85681e-07
1.6984e-08
-1.82425e-07
4.14326e-10
-1.98416e-07
6.16375e-09
-2.07516e-07
-2.33618e-08
-1.49634e-07
2.62261e-08
-1.82863e-07
2.28e-08
-2.78017e-07
-4.45403e-08
-2.40295e-07
-1.73488e-08
-2.08198e-07
-4.66598e-08
-2.13987e-07
1.28493e-08
-2.10316e-07
-8.33044e-09
-2.04714e-07
1.28757e-08
-1.95849e-07
3.04676e-08
-1.7626e-07
3.15781e-08
-1.92369e-07
1.77702e-08
-2.10041e-07
1.66744e-08
-1.8126e-07
-2.63814e-08
-1.89539e-07
2.10961e-08
-1.83395e-07
1.07163e-08
-1.8463e-07
6.35513e-09
-1.92229e-07
1.99055e-09
-1.95258e-07
1.23022e-09
-2.05361e-07
2.86346e-09
-5.09963e-08
-1.86814e-08
-1.42734e-07
-3.27579e-08
-1.62111e-07
2.61035e-08
-1.5373e-07
-2.72262e-08
-1.61152e-07
-1.05338e-08
-8.52212e-08
3.1381e-08
-1.72314e-07
-2.42021e-08
-1.98509e-07
6.12811e-08
-1.89814e-07
1.29997e-08
-1.85702e-07
3.7808e-08
-1.85689e-07
-4.19184e-09
-1.76482e-07
9.43896e-09
-1.94971e-07
-4.47678e-09
-2.06313e-07
-8.71019e-09
-1.79933e-07
-3.1306e-08
-1.97083e-07
3.47626e-08
-1.63798e-07
9.2402e-10
-2.33498e-07
-4.49279e-09
-2.22672e-07
2.17934e-08
-1.25192e-07
3.4575e-08
-1.27489e-07
-3.71145e-09
-1.96903e-07
-3.67259e-08
-1.97385e-07
7.52584e-09
-1.97589e-07
2.32946e-09
-1.67519e-07
-3.57591e-08
-1.85594e-07
2.40378e-08
-1.65048e-07
3.44579e-09
-1.89667e-07
-5.20926e-08
-2.20569e-07
4.50298e-08
-1.2634e-07
5.01049e-08
-2.34351e-07
2.35752e-10
-1.94448e-07
4.06843e-08
-1.99196e-07
2.84313e-08
-2.10078e-07
1.58117e-08
-2.16916e-07
1.5714e-09
-2.15764e-07
-9.99337e-09
-2.12584e-07
-1.20381e-08
-2.14415e-07
-5.88731e-09
-2.23102e-07
-8.43781e-09
-2.27777e-07
-2.05701e-08
-2.28347e-07
-2.80698e-08
-2.29645e-07
-2.44777e-08
-2.29516e-07
-2.45555e-09
-2.14717e-07
2.32272e-08
-1.93405e-07
3.0753e-08
-1.71192e-07
3.15425e-08
3.4668e-09
-2.2874e-07
8.74119e-09
-2.25883e-07
1.87324e-08
-2.35948e-07
2.0589e-08
-1.53854e-07
3.80317e-08
-2.42081e-07
-8.76213e-09
-2.32612e-07
7.5154e-09
-2.20588e-07
-1.17291e-08
-2.59552e-07
4.20515e-08
-2.04781e-07
5.81537e-08
-1.83595e-07
9.00291e-09
-2.57137e-07
-3.68345e-08
-2.77037e-07
-2.72637e-08
-2.67826e-07
-2.64659e-08
-1.77525e-07
-8.46681e-10
-2.57008e-07
-4.06138e-08
-2.31939e-07
-3.60206e-08
-2.422e-07
2.53492e-08
-2.2614e-07
1.44077e-08
-2.07614e-07
1.07456e-08
-2.04828e-07
1.28941e-08
-2.27439e-07
-5.94296e-09
-1.16787e-07
4.55493e-08
-2.00781e-07
-2.76441e-08
-1.87028e-07
-5.08431e-09
-1.78668e-07
-2.00478e-09
-1.82333e-07
5.6552e-09
-1.68616e-07
-1.24859e-08
-2.02357e-07
-8.16321e-09
-7.31506e-08
3.11826e-08
-9.63353e-08
-9.90729e-09
-2.06997e-07
-4.23054e-08
-1.79734e-07
-9.72099e-09
-1.66559e-07
-2.39531e-08
-1.57517e-07
2.04118e-08
-1.17731e-07
7.16991e-08
-2.27213e-07
-7.10652e-09
-1.94188e-07
2.65911e-08
-1.70594e-07
1.42143e-08
-1.7743e-07
9.03422e-10
-1.68734e-07
7.43286e-10
-1.75625e-07
2.38972e-09
-2.13801e-07
-1.53017e-08
-9.6749e-08
3.07125e-08
-2.01132e-07
-3.99243e-08
-1.59961e-07
4.52962e-09
-1.64076e-07
-3.31886e-10
-1.46813e-07
4.53077e-09
-1.31397e-07
1.9159e-08
-1.31357e-07
-3.75124e-09
-1.33486e-07
-3.67075e-08
-1.59739e-07
-1.145e-08
-2.0092e-07
4.51404e-08
-1.10919e-07
5.44421e-08
-1.87547e-07
-3.0082e-08
-1.7536e-07
-1.07435e-08
-8.93321e-08
-5.12773e-09
-1.90499e-07
1.17742e-08
-1.66504e-07
2.53404e-08
-2.01579e-07
3.531e-08
-1.90528e-07
3.19921e-08
-1.86721e-07
2.65296e-08
-1.95067e-07
2.41576e-08
-2.08591e-07
1.5095e-08
-2.23866e-07
5.28153e-09
-2.37386e-07
1.48119e-09
-2.46017e-07
2.74323e-09
-2.44779e-07
-9.67542e-09
-2.35346e-07
-3.00038e-08
-2.25863e-07
-3.75536e-08
-2.19324e-07
-3.10171e-08
-2.16002e-07
-5.77765e-09
-2.04122e-07
1.13466e-08
-1.89219e-07
1.58483e-08
-1.74517e-07
1.68383e-08
1.48109e-09
-2.36685e-07
5.86934e-09
-2.27357e-07
9.40492e-09
-2.15344e-07
8.57748e-09
-1.9051e-07
1.28097e-08
-2.21093e-07
2.1822e-08
-2.30848e-07
1.47655e-08
-1.54446e-07
4.91483e-08
-2.42897e-07
-3.33718e-09
-2.15255e-07
-1.80052e-08
-2.0673e-07
4.69623e-08
-2.31633e-07
-1.23069e-08
-2.08946e-07
-4.8311e-08
-2.10483e-07
-2.49294e-08
-2.04668e-07
-8.80852e-09
-2.4828e-07
2.55849e-09
-1.5517e-07
6.7558e-09
-2.32085e-07
-3.06828e-08
-1.96914e-07
-2.29836e-08
-1.59715e-07
-2.6453e-08
-1.70732e-07
2.36705e-08
-1.62292e-07
-1.44701e-08
-1.49168e-07
3.24253e-08
-1.4949e-07
-2.76044e-08
-1.5375e-07
-8.23881e-10
-1.49572e-07
-6.18226e-09
-1.53537e-07
9.61981e-09
-1.61799e-07
-4.2669e-09
-2.01385e-07
-1.33452e-08
-1.27401e-07
1.96665e-09
-1.29038e-07
-8.27016e-09
-1.77093e-07
5.7493e-09
-1.9886e-07
1.00181e-08
-1.3148e-07
4.43539e-08
-1.19393e-07
9.66626e-09
-2.02203e-07
-2.52929e-08
-2.06359e-07
-2.95039e-09
-2.00887e-07
2.1119e-08
-1.99754e-07
1.32264e-08
-1.83607e-07
2.95241e-08
-1.75151e-07
-5.92533e-09
-1.74022e-07
1.26052e-09
-2.04306e-07
1.32064e-08
-1.45855e-07
-2.77383e-08
-1.80055e-07
-5.72375e-09
-1.74069e-07
-1.45643e-09
-1.69094e-07
-5.30675e-09
-1.45709e-07
-1.8854e-08
-1.63214e-07
3.62942e-08
-1.84936e-07
1.60847e-08
-1.00397e-07
1.45905e-08
-1.27866e-07
1.7161e-08
-2.19487e-07
-4.23091e-08
-1.75384e-07
1.21286e-08
-1.9302e-07
2.96169e-08
-2.19728e-07
1.15994e-08
-1.09334e-07
2.38022e-08
-2.1409e-07
-1.31493e-08
-1.90381e-07
-5.30664e-10
-1.83879e-07
2.68654e-08
-1.85494e-07
3.54992e-08
-1.74542e-07
1.74327e-08
-1.7805e-07
2.76653e-08
-1.85e-07
2.20454e-08
-1.99969e-07
2.02494e-08
-2.17064e-07
1.85762e-08
-2.25326e-07
1.10047e-08
-2.19702e-07
-1.52997e-08
-2.11041e-07
-3.86651e-08
-2.06141e-07
-4.24536e-08
-2.0528e-07
-3.18789e-08
-2.02289e-07
-8.76895e-09
-1.93357e-07
2.41309e-09
-1.85388e-07
7.87738e-09
-1.77367e-07
8.81542e-09
1.41403e-09
-2.06098e-07
8.86784e-10
-2.02693e-07
6.00099e-09
-1.98489e-07
4.37462e-09
-1.87711e-07
2.03258e-09
-1.87304e-07
-2.14418e-08
-1.70767e-07
4.25447e-08
-1.83094e-07
5.86343e-08
-2.09377e-07
2.07757e-08
-1.22532e-07
3.22857e-08
-1.88571e-07
-1.87074e-08
-2.02218e-07
-2.64605e-09
-1.25815e-07
1.09739e-08
-1.41441e-07
-8.2743e-09
-1.28764e-07
-2.01715e-08
-2.09319e-07
-4.98328e-08
-1.73217e-07
-3.14818e-08
-1.7714e-07
-2.70722e-08
-1.66475e-07
-3.3995e-08
-1.06143e-07
4.8601e-08
-1.93438e-07
-2.39348e-08
-9.27486e-08
1.83451e-08
-1.89778e-07
-4.86698e-08
-1.7822e-07
5.66375e-09
-1.54033e-07
-2.5011e-08
-1.42167e-07
-1.8234e-08
-1.70893e-07
3.66023e-08
-2.02531e-07
2.73714e-08
-2.10293e-07
-3.51641e-09
-1.89727e-07
-1.85995e-08
-1.81644e-07
-1.63532e-08
-1.79111e-07
3.21657e-09
-1.94233e-07
2.51402e-08
-1.61032e-07
1.05919e-08
-1.59585e-07
8.21998e-09
-2.30278e-07
6.32307e-10
-2.052e-07
1.67393e-08
-2.03562e-07
1.94806e-08
-2.06424e-07
1.60887e-08
-1.87178e-07
1.02781e-08
-1.77286e-07
-1.59798e-08
-2.0736e-07
3.13471e-08
-2.20347e-07
-1.83866e-08
-1.8498e-07
-1.85261e-08
-2.25816e-07
3.51122e-08
-2.1718e-07
-9.99074e-09
-2.24133e-07
1.64665e-09
-1.03108e-07
-4.52435e-09
-2.07478e-07
7.64099e-09
-2.157e-07
1.99894e-08
-1.04065e-07
3.84928e-08
-1.92433e-07
-2.77115e-08
-1.97684e-07
-3.74403e-08
-2.11029e-07
2.5474e-08
-2.0045e-07
1.93404e-08
-2.00808e-07
9.79016e-09
-1.76614e-07
-6.36797e-10
-2.00578e-07
-3.2285e-08
-2.03333e-07
2.24144e-09
-1.88011e-07
1.15443e-08
-1.8424e-07
3.3607e-08
-1.65881e-07
4.52414e-08
-1.68527e-07
3.03106e-08
-1.74259e-07
2.77774e-08
-1.80724e-07
2.67141e-08
-1.83013e-07
2.08649e-08
-1.77717e-07
5.70875e-09
-1.71272e-07
-2.17455e-08
-1.73422e-07
-3.65149e-08
-1.80452e-07
-3.54248e-08
-1.90953e-07
-2.13776e-08
-1.92501e-07
-7.22132e-09
-1.88657e-07
-1.4328e-09
-1.85011e-07
4.22952e-09
-1.80562e-07
4.36458e-09
1.09505e-09
-2.23457e-07
-3.75775e-09
-2.16428e-07
-1.02679e-09
-2.14976e-07
2.92352e-09
-2.34029e-07
2.10857e-08
-1.3614e-07
1.49729e-08
-1.41024e-07
4.88039e-08
-2.10754e-07
-4.58187e-09
-1.90095e-07
-2.03267e-09
-1.56948e-07
-1.1909e-09
-1.67376e-07
-8.46961e-09
-1.64514e-07
-5.5075e-09
-1.28517e-07
-2.53936e-08
-1.6142e-07
2.46284e-08
-1.69963e-07
-1.16276e-08
-2.03009e-07
-1.72954e-08
-2.01078e-07
-3.34126e-08
-2.10864e-07
-1.94373e-08
-1.08995e-07
-1.77612e-10
-2.35492e-07
-2.86105e-09
-1.92771e-07
-2.01653e-08
-1.68971e-07
-5.63942e-09
-2.012e-07
-2.02174e-08
-2.24795e-07
-1.59705e-08
-2.06993e-07
2.1364e-09
-1.35195e-07
4.56559e-08
-2.49046e-07
1.77107e-08
-2.26724e-07
4.76951e-09
-2.33001e-07
2.76123e-09
-2.34653e-07
-1.69473e-08
-2.16909e-07
-3.40978e-08
-2.33299e-07
1.94092e-08
-2.4944e-07
-9.41761e-10
-2.30437e-07
3.59045e-08
-2.20672e-07
-3.85646e-09
-2.18216e-07
-1.82399e-09
-1.98885e-07
-2.5916e-09
-1.94978e-07
1.5574e-08
-1.99092e-07
2.02022e-08
-2.1435e-07
2.33495e-08
-1.46927e-07
5.28293e-08
-2.43518e-07
-4.71487e-08
-2.33097e-07
1.31535e-08
-1.39929e-07
2.15904e-08
-2.43767e-07
-3.62053e-08
-2.33818e-07
2.43758e-08
-2.38226e-07
3.66993e-09
-9.56768e-08
-1.17948e-08
-2.19684e-07
-1.20862e-09
-2.11501e-07
9.56479e-09
-1.78367e-07
4.96697e-09
-2.11781e-07
3.54142e-09
-1.22721e-07
9.18719e-09
-2.24918e-07
-5.37949e-09
-1.95573e-07
-1.00041e-08
-1.8479e-07
-9.93036e-10
-1.63685e-07
-2.17354e-08
-2.16126e-07
1.77706e-08
-2.53833e-07
-5.28098e-09
-2.25433e-07
3.05014e-08
-2.17205e-07
2.53792e-08
-1.87291e-07
1.76998e-08
-1.81702e-07
2.65944e-08
-1.76858e-07
2.29329e-08
-1.71026e-07
2.08819e-08
-1.64466e-07
1.43043e-08
-1.55727e-07
-3.03064e-09
-1.54407e-07
-2.30657e-08
-1.62988e-07
-2.79342e-08
-1.74458e-07
-2.39553e-08
-1.83121e-07
-1.27147e-08
-1.85057e-07
-5.28636e-09
-1.84298e-07
-2.19266e-09
-1.83079e-07
3.00789e-09
-1.81654e-07
2.9386e-09
1.31459e-09
-2.0238e-07
-7.83376e-09
-2.12931e-07
9.62321e-09
-1.90601e-07
-1.94055e-08
-2.14072e-07
4.41075e-08
-1.16444e-07
5.28363e-08
-1.98838e-07
-1.74909e-09
-1.93752e-07
-1.17423e-08
-1.80508e-07
-1.52764e-08
-1.67414e-07
-1.42841e-08
-1.6087e-07
-1.50137e-08
-1.70736e-07
2.61742e-09
-1.01868e-07
4.18574e-08
-1.88803e-07
-6.64675e-08
-1.76275e-07
-2.41561e-08
-1.91704e-07
-1.86553e-09
-2.08988e-07
2.86388e-08
-2.54982e-07
2.42024e-08
-1.35009e-07
1.55391e-08
-2.69428e-07
-4.61354e-08
-2.43147e-07
-1.6951e-09
-2.27366e-07
-2.14785e-08
-2.22538e-07
-2.50445e-08
-2.33377e-07
-4.97364e-08
-2.12592e-07
2.61187e-08
-2.24531e-07
5.42857e-08
-2.41596e-07
-1.05627e-08
-2.56054e-07
6.64601e-08
-2.47958e-07
-5.33467e-09
-2.77201e-07
1.2296e-08
-1.86068e-07
1.08597e-08
-2.83032e-07
-1.65731e-08
-2.92037e-07
5.17511e-09
-2.986e-07
1.11261e-09
-2.58778e-07
6.31093e-10
-2.53087e-07
-1.01546e-08
-2.42565e-07
-1.31137e-08
-2.33166e-07
6.1748e-09
-2.21752e-07
8.78858e-09
-2.19181e-07
1.85424e-08
-2.15513e-07
3.38781e-09
-2.47825e-07
3.24609e-08
-2.18008e-07
-1.6529e-08
-1.98677e-07
2.03936e-09
-2.40143e-07
5.25997e-09
-2.54636e-07
-5.64953e-09
-2.72586e-07
2.16197e-08
-1.51954e-07
4.77081e-08
-2.56959e-07
-2.91623e-08
-2.35851e-07
-1.41643e-08
-2.20687e-07
-1.01977e-08
-2.07278e-07
-9.86711e-09
-1.9283e-07
-5.35385e-09
-1.93645e-07
-4.88341e-08
-1.90481e-07
-1.31676e-08
-2.0007e-07
8.59556e-09
-8.34952e-08
4.16122e-08
-2.07921e-07
9.15743e-09
-2.09059e-07
-6.27453e-09
-1.94338e-07
1.57806e-08
-2.05321e-07
3.59955e-08
-1.87969e-07
2.26536e-09
-1.67041e-07
7.62128e-09
-1.62879e-07
1.87707e-08
-1.64826e-07
2.28289e-08
-1.69375e-07
1.8853e-08
-1.71582e-07
-8.2363e-10
-1.75039e-07
-1.96088e-08
-1.7916e-07
-2.38134e-08
-1.83732e-07
-1.93844e-08
-1.86956e-07
-9.49067e-09
-1.86799e-07
-5.44371e-09
-1.86248e-07
-2.74573e-09
-1.85338e-07
2.09627e-09
-1.83903e-07
1.50228e-09
5.54993e-10
-1.68983e-07
-2.68663e-09
-2.25172e-07
2.05849e-08
-1.03606e-07
4.14533e-08
-1.57646e-07
-3.47984e-08
-1.47794e-07
4.09589e-08
-1.71732e-07
2.21715e-08
-1.85044e-07
1.56982e-09
-1.83832e-07
-1.64885e-08
-1.8196e-07
-1.61556e-08
-1.43284e-07
-5.3689e-08
-1.3275e-07
-9.27067e-09
-1.62048e-07
2.52355e-08
-2.13625e-07
3.18551e-08
-2.1864e-07
-1.91402e-08
-2.28971e-07
8.46499e-09
-2.16739e-07
1.41963e-08
-2.51912e-07
1.42942e-08
-2.08387e-07
1.91929e-08
-2.58681e-07
1.53539e-09
-2.58011e-07
-4.75937e-08
-2.70203e-07
-6.65427e-09
-3.01356e-07
6.10887e-09
-2.33802e-07
6.17801e-08
-2.27305e-07
2.19407e-08
-3.05991e-07
-3.06427e-09
-2.15312e-07
3.14001e-08
-2.95986e-07
-2.97394e-08
-2.41806e-07
-1.47471e-08
-2.57449e-07
-1.43485e-08
-2.20227e-07
1.79532e-08
-2.42942e-07
3.72673e-09
-2.62189e-07
2.41755e-08
-2.89769e-07
-1.31185e-08
-2.40572e-07
-4.2443e-09
-2.27063e-07
-2.61182e-08
-2.20483e-07
-1.96936e-08
-2.04636e-07
-9.67177e-09
-2.22789e-07
2.69418e-08
-2.1313e-07
8.79402e-09
-2.25799e-07
1.37187e-08
-2.32261e-07
-6.30615e-09
-2.11361e-07
9.70771e-09
-1.86532e-07
-2.30238e-08
-2.13665e-07
3.23929e-08
-2.48117e-07
2.88022e-08
-2.41671e-07
1.76394e-08
-1.98686e-07
4.72357e-09
-2.17142e-07
-1.30302e-08
-2.1143e-07
-1.98765e-08
-2.1316e-07
-8.46745e-09
-2.00053e-07
-2.29742e-08
-2.02667e-07
-4.54398e-08
-1.889e-07
-1.81026e-08
-1.99803e-07
-4.19113e-09
-2.07769e-07
1.65618e-08
-8.23531e-08
5.08205e-08
-2.00684e-07
-7.3926e-09
-1.25702e-07
5.23627e-08
-1.28541e-07
2.12136e-08
-1.88741e-07
-3.67514e-08
-1.3671e-07
-5.16911e-08
-1.43123e-07
1.5572e-08
-1.27186e-07
4.26481e-09
-1.27816e-07
2.34586e-08
-1.29009e-07
2.00454e-08
-1.38881e-07
9.04805e-09
-1.5051e-07
-7.98008e-09
-1.55093e-07
-1.92304e-08
-1.62223e-07
-1.22554e-08
-1.7188e-07
1.66838e-10
-1.78902e-07
1.57725e-09
-1.82263e-07
6.14091e-10
-1.82966e-07
2.79756e-09
-1.8374e-07
2.27418e-09
2.97547e-10
-1.90184e-07
4.6212e-09
-2.10976e-07
-3.59943e-09
-1.8827e-07
1.87478e-08
-9.90858e-08
5.57442e-08
-1.89348e-07
-1.72541e-09
-1.90638e-07
2.15311e-08
-1.86465e-07
-2.57689e-09
-1.81223e-07
-2.19542e-08
-1.87791e-07
-5.49155e-08
-9.77863e-08
3.50201e-08
-9.1096e-08
-1.50313e-08
-1.67786e-07
-3.297e-08
-1.8281e-07
-7.90201e-11
-1.81594e-07
2.62766e-08
-1.81512e-07
8.38308e-09
-1.77242e-07
8.11877e-09
-2.16408e-07
8.08388e-09
-1.79205e-07
2.71376e-08
-2.35539e-07
1.27722e-08
-2.41359e-07
5.88197e-09
-2.5908e-07
1.10666e-08
-2.71819e-07
1.88481e-08
-2.46843e-07
3.68044e-08
-2.51628e-07
2.67262e-08
-2.66584e-07
1.18602e-08
-2.51013e-07
1.55092e-08
-2.82191e-07
1.43923e-09
-1.93115e-07
2.85093e-08
-2.20558e-07
1.29607e-08
-2.0704e-07
6.86918e-09
-1.93308e-07
-8.03318e-09
-2.61411e-07
-4.06684e-08
-2.51031e-07
-2.61645e-08
-2.27551e-07
-2.77677e-08
-2.16732e-07
-3.69369e-08
-2.11709e-07
-2.47175e-08
-1.96465e-07
-2.4915e-08
-1.85876e-07
-2.65187e-08
-1.94645e-07
6.12605e-08
-2.06863e-07
2.39502e-08
-2.15073e-07
1.96833e-09
-2.00871e-07
-6.5428e-09
-1.0645e-07
1.82421e-08
-1.79486e-07
-2.80741e-08
-1.92118e-07
4.14341e-08
-1.78497e-07
4.01874e-09
-1.7163e-07
-2.09556e-09
-1.79116e-07
-5.54335e-09
-1.84809e-07
-1.41832e-08
-1.94795e-07
-4.32498e-08
-1.91615e-07
-2.61533e-08
-1.82139e-07
-5.30579e-08
-1.74507e-07
1.82147e-08
-1.85479e-07
5.00089e-09
-1.71987e-07
4.82379e-09
-1.27945e-07
6.71146e-09
-1.40611e-07
3.93199e-09
-1.08446e-07
1.96637e-08
-1.26627e-07
-5.37246e-09
-1.59372e-07
-4.3818e-09
-5.85176e-08
2.65251e-08
-1.78965e-07
-4.12258e-08
-1.27609e-07
-1.42904e-09
-1.09795e-07
5.64459e-09
-9.97419e-08
9.99177e-09
-1.06608e-07
1.5914e-08
-1.27524e-07
1.29351e-08
-1.50186e-07
3.43129e-09
-1.67448e-07
5.00604e-09
-1.77405e-07
1.01237e-08
-1.84404e-07
8.5753e-09
-1.87562e-07
3.77183e-09
-1.85885e-07
1.11815e-09
-1.85277e-07
1.66458e-09
-2.58873e-10
-2.12821e-07
1.66086e-08
-2.26315e-07
9.89515e-09
-2.2738e-07
1.98142e-08
-1.94878e-07
2.32427e-08
-2.10721e-07
1.41e-08
-2.22369e-07
-9.3189e-09
-1.99744e-07
1.70963e-08
-2.23362e-07
-2.66927e-09
-1.38051e-07
-8.13573e-10
-1.94526e-07
-4.00573e-08
-1.74401e-07
-3.67651e-08
-1.57174e-07
-5.10546e-08
-1.87434e-07
3.01823e-08
-1.81677e-07
2.05202e-08
-1.74839e-07
1.52959e-09
-1.66795e-07
7.35639e-11
-1.64679e-07
5.82683e-09
-1.55806e-07
1.6507e-08
-2.06385e-07
1.7807e-08
-1.86749e-07
3.27848e-08
-2.02412e-07
2.67301e-08
-2.16505e-07
3.2941e-08
-2.24219e-07
4.40691e-08
-2.24722e-07
2.72292e-08
-2.34826e-07
2.1964e-08
-2.28849e-07
9.53256e-09
-2.22914e-07
-4.49589e-09
-1.59603e-07
-3.31724e-08
-1.39286e-07
-7.48733e-09
-1.62931e-07
2.90926e-08
-1.61451e-07
-9.51299e-09
-1.9017e-07
-1.23634e-08
-1.98081e-07
-1.84415e-08
-2.00311e-07
-2.55385e-08
-2.10307e-07
-2.69403e-08
-2.16626e-07
-1.83988e-08
-2.34242e-07
-7.29912e-09
-1.33857e-07
8.76517e-09
-2.34629e-07
2.97042e-08
-2.26316e-07
1.32437e-08
-2.12662e-07
-1.16855e-08
-1.59666e-07
-5.9538e-08
-1.41486e-07
-1.56739e-09
-9.52007e-08
6.13276e-08
-2.04878e-07
-2.69874e-08
-1.80727e-07
2.46348e-08
-1.91705e-07
8.88293e-09
-1.90564e-07
-6.6843e-09
-1.94822e-07
-9.92449e-09
-2.10831e-07
-2.72414e-08
-2.54223e-07
-2.75289e-08
-1.22374e-07
-4.54075e-09
-1.9836e-07
-3.85621e-08
-1.89195e-07
-6.18746e-09
-1.75311e-07
-7.27214e-09
-1.66988e-07
-3.26265e-09
-1.71787e-07
7.00918e-09
-1.46974e-07
-3.43162e-09
-1.53958e-07
1.61195e-09
-1.48547e-07
-9.7929e-09
-1.12247e-07
-9.77434e-09
-1.39542e-07
-1.23814e-08
-1.30789e-07
-8.78721e-09
-1.23695e-07
-1.4494e-09
-1.22272e-07
8.5687e-09
-1.30017e-07
2.36586e-08
-1.47968e-07
3.08854e-08
-1.67698e-07
2.31617e-08
-1.77043e-07
1.43499e-08
-1.79344e-07
1.24242e-08
-1.8085e-07
1.00809e-08
-1.83846e-07
6.76658e-09
-1.84294e-07
1.5645e-09
-1.8459e-07
1.95881e-09
-3.26179e-10
-2.03331e-07
1.39477e-08
-2.05814e-07
1.23787e-08
-2.04443e-07
1.84443e-08
-1.95594e-07
1.4394e-08
-1.91155e-07
9.66158e-09
-2.26571e-07
2.63658e-08
-1.95823e-07
-1.14791e-08
-1.9629e-07
-2.17528e-09
-1.93444e-07
-5.65262e-09
-2.0407e-07
-2.77586e-08
-2.22298e-07
-2.07816e-08
-1.23179e-07
-1.67772e-08
-2.41625e-07
-2.91847e-08
-1.766e-07
2.04375e-09
-1.7692e-07
3.6737e-09
-1.43782e-07
-3.33994e-08
-1.23366e-07
-1.4795e-08
-9.94947e-08
-7.60516e-09
-9.8787e-08
1.69125e-08
-7.03203e-08
3.35457e-09
-1.15724e-07
7.14166e-08
-1.53157e-07
7.19369e-08
-1.8749e-07
7.84017e-08
-1.98689e-07
3.61475e-08
-1.94697e-07
1.7972e-08
-1.93289e-07
8.12437e-09
-1.95038e-07
-2.74611e-09
-1.05798e-07
1.18898e-08
-9.18237e-08
-2.15377e-08
-1.81309e-07
-6.04927e-08
-1.63068e-07
1.71898e-08
-1.62221e-07
-1.48663e-08
-1.59002e-07
-2.18857e-08
-1.83059e-07
1.40613e-10
-1.92268e-07
-1.7731e-08
-2.1911e-07
8.44368e-09
-2.34963e-07
8.46731e-09
-1.02829e-07
1.10472e-08
-2.32899e-07
-1.89941e-08
-2.13317e-07
-6.33722e-09
-2.12224e-07
-1.27788e-08
-1.32127e-07
3.94357e-08
-9.1038e-08
-4.26565e-08
-1.74007e-07
-3.53994e-08
-1.98326e-07
4.16744e-08
-1.86299e-07
1.26072e-08
-1.90036e-07
1.26208e-08
-1.89406e-07
-7.31454e-09
-1.88261e-07
-1.11832e-08
-1.87037e-07
-2.84659e-08
-2.24007e-07
-3.30409e-08
-1.66325e-07
-1.79072e-08
-1.91796e-07
-1.51808e-08
-1.97274e-07
-7.02782e-10
-1.98365e-07
-8.12128e-09
-1.90493e-07
-1.10545e-08
-1.776e-07
-5.82401e-09
-1.83152e-07
2.1207e-09
-1.63837e-07
-1.58347e-08
-1.60644e-07
-1.29854e-08
-1.50671e-07
-1.80271e-08
-1.43815e-07
-1.76067e-08
-1.41518e-07
-1.10844e-08
-1.42254e-07
-7.13497e-10
-1.52281e-07
1.8595e-08
-1.66041e-07
3.74182e-08
-1.77204e-07
4.20481e-08
-1.86429e-07
3.23867e-08
-1.88638e-07
1.65586e-08
-1.87318e-07
1.11043e-08
-1.86011e-07
8.77277e-09
-1.86208e-07
6.96202e-09
-1.86376e-07
1.73115e-09
-1.85851e-07
1.43234e-09
-9.48291e-10
-2.06047e-07
1.35517e-08
-2.03664e-07
9.99616e-09
-2.00743e-07
1.55246e-08
-2.01478e-07
1.51292e-08
-2.04441e-07
1.05393e-08
-2.33101e-07
9.79686e-09
-2.2115e-07
2.37163e-08
-2.12942e-07
-1.04054e-08
-2.17395e-07
-1.19851e-09
-2.23117e-07
-2.20368e-08
-2.38578e-07
-5.02998e-08
-1.99561e-07
-1.08549e-08
-2.53176e-07
-1.77547e-08
-2.22524e-07
1.34608e-08
-2.56153e-07
-1.00781e-08
-2.35832e-07
-6.74917e-09
-2.32672e-07
-1.81059e-08
-2.20372e-07
-1.99824e-08
-2.16873e-07
1.14915e-08
-1.31593e-07
5.37957e-08
-1.93421e-07
2.84407e-10
-1.98686e-07
7.64226e-08
-2.0929e-07
4.71735e-08
-1.73768e-07
4.49411e-08
-1.70366e-07
1.29297e-08
-1.52739e-07
-9.50323e-09
-1.44397e-07
-1.10882e-08
-1.17609e-07
-1.48979e-08
-1.1346e-07
-2.56864e-08
-1.26189e-07
-4.90509e-08
-1.43531e-07
-1.06969e-08
-1.49669e-07
3.5977e-08
-7.82542e-08
4.26119e-08
-1.85654e-07
-2.59635e-08
-1.88512e-07
-1.48737e-08
-2.26369e-07
3.84255e-09
-2.18752e-07
4.29572e-08
-1.18802e-07
4.453e-08
-2.4849e-07
-2.26285e-08
-2.06308e-07
-4.85182e-08
-1.89836e-07
-2.92512e-08
-1.93387e-07
-1.76261e-09
-1.06993e-07
5.002e-08
-1.50009e-07
9.14703e-09
-2.18025e-07
-2.3256e-08
-2.01172e-07
-6.46995e-09
-1.82198e-07
-6.35306e-09
-1.77092e-07
-1.42268e-08
-1.68779e-07
-1.94966e-08
-1.58663e-07
-3.68597e-08
-1.88933e-07
-2.79902e-09
-1.79541e-07
-2.74825e-08
-1.77325e-07
-1.55874e-08
-1.72484e-07
-3.80136e-09
-1.69895e-07
-1.08463e-08
-1.29862e-07
-5.32294e-08
-1.3849e-07
1.47981e-09
-1.7467e-07
3.78917e-08
-1.90931e-07
4.26853e-10
-1.96736e-07
-5.12083e-09
-1.9506e-07
-1.75563e-08
-1.92071e-07
-2.05954e-08
-1.86338e-07
-1.68181e-08
-1.84715e-07
-2.33661e-09
-1.85001e-07
1.88809e-08
-1.84775e-07
3.71918e-08
-1.83489e-07
4.0762e-08
-1.83165e-07
3.2062e-08
-1.82777e-07
1.61708e-08
-1.82744e-07
1.10708e-08
-1.82934e-07
8.96184e-09
-1.8391e-07
7.93733e-09
-1.84597e-07
2.4154e-09
-1.84835e-07
1.66879e-09
-7.9609e-10
-2.18437e-07
1.86674e-08
-2.1643e-07
7.98942e-09
-2.11261e-07
1.03568e-08
-2.02978e-07
6.84658e-09
-2.01175e-07
8.73635e-09
-2.02532e-07
1.10543e-08
-1.80037e-07
1.20927e-09
-1.64226e-07
-2.64859e-08
-1.88343e-07
2.29187e-08
-1.96047e-07
-1.43331e-08
-1.95625e-07
-5.07212e-08
-1.82417e-07
-2.40625e-08
-1.90591e-07
-9.58053e-09
-1.77888e-07
2.70973e-09
-2.1433e-07
2.43019e-08
-2.14145e-07
-9.04985e-09
-2.26661e-07
-3.44022e-09
-2.50956e-07
1.7529e-09
-2.54757e-07
1.52924e-08
-2.0656e-07
7.6489e-09
-1.3499e-07
6.37442e-08
-1.93856e-07
2.3426e-09
-1.84217e-07
3.59231e-08
-1.3333e-07
-6.84693e-09
-1.67602e-07
1.9928e-09
-1.32557e-07
1.9302e-09
-1.56054e-07
1.24082e-08
-1.42256e-07
-2.84052e-08
-1.59365e-07
-8.57737e-09
-8.81034e-08
1.399e-08
-1.33053e-07
3.40146e-08
-1.17745e-07
2.06698e-08
-1.0372e-07
2.81521e-08
-1.40459e-07
1.07752e-08
-1.62563e-07
7.23032e-09
-1.69079e-07
1.03589e-08
-1.62869e-07
3.75683e-08
-1.3501e-07
1.48396e-08
-1.98173e-07
-4.74279e-09
-1.76604e-07
-2.32977e-08
-1.71493e-07
-3.26134e-08
-1.59871e-07
-1.33843e-08
-1.58033e-07
4.60812e-08
-1.73904e-07
2.50181e-08
-1.94673e-07
-2.7244e-09
-1.83675e-07
-1.74678e-08
-1.7649e-07
-1.35373e-08
-1.68178e-07
-2.25391e-08
-1.54232e-07
-3.32431e-08
-1.38024e-07
-5.5038e-08
-1.90044e-07
3.99211e-09
-1.85625e-07
1.48055e-08
-1.93157e-07
-8.13869e-09
-2.26922e-07
2.76103e-08
-2.59396e-07
-2.63868e-08
-1.69964e-07
4.03793e-08
-1.75151e-07
1.01875e-08
-2.47249e-07
-2.29565e-08
-2.34109e-07
-1.28478e-08
-2.30387e-07
-6.45113e-09
-2.37726e-07
-1.02164e-08
-2.43902e-07
-1.44194e-08
-2.49064e-07
-1.16568e-08
-2.47242e-07
-4.15819e-09
-2.3652e-07
8.15806e-09
-2.19358e-07
2.00292e-08
-2.04793e-07
2.61967e-08
-1.95577e-07
2.28462e-08
-1.93243e-07
1.3836e-08
-1.91399e-07
9.22703e-09
-1.89503e-07
7.06469e-09
-1.87427e-07
5.86082e-09
-1.86479e-07
1.46508e-09
-1.85657e-07
8.44968e-10
-1.04917e-09
-2.04816e-07
3.27999e-08
-2.12346e-07
1.55207e-08
-2.11716e-07
9.62842e-09
-2.04729e-07
-1.39562e-10
-2.15521e-07
1.97301e-08
-2.03206e-07
8.12702e-10
-1.80638e-07
-2.31829e-08
-9.9303e-08
2.60048e-08
-1.96281e-07
-5.81605e-08
-1.79022e-07
-3.15923e-08
-1.92477e-07
7.50249e-09
-1.92864e-07
-2.36758e-08
-1.86703e-07
-1.57412e-08
-1.8316e-07
-8.32608e-10
-1.9264e-07
-8.7725e-09
-1.95236e-07
3.59814e-08
-2.10581e-07
9.89282e-09
-2.15053e-07
8.37314e-09
-2.18013e-07
1.80968e-08
-1.06242e-07
3.0949e-08
-1.64114e-07
-1.13297e-08
-1.65825e-07
7.1149e-10
-1.74617e-07
-5.14297e-10
-1.60679e-07
2.4374e-08
-2.00461e-07
-3.47475e-09
-1.31043e-07
-2.06745e-08
-1.82516e-07
2.07632e-08
-1.78191e-07
1.15862e-08
-1.79874e-07
-8.7123e-09
-1.56236e-07
-8.05416e-09
-1.98713e-07
-5.58901e-08
-1.73336e-07
-6.73457e-09
-1.58933e-07
1.37489e-08
-1.64895e-07
1.6738e-08
-1.6871e-07
1.10444e-08
-1.39345e-07
-2.06372e-08
-1.65415e-07
1.84087e-08
-1.32769e-07
2.72943e-08
-1.92288e-07
9.59668e-09
-1.69133e-07
2.76674e-10
-2.05742e-07
3.99573e-09
-1.14106e-07
3.031e-08
-2.10155e-07
9.2773e-09
-1.92742e-07
5.46138e-09
-1.83631e-07
-1.18349e-08
-1.43853e-07
-5.72456e-08
-1.36529e-07
-2.08616e-08