/*--------------------------------*- C++ -*----------------------------------*\
  =========                 |
  \\      /  F ield         | OpenFOAM: The Open Source CFD Toolbox
   \\    /   O peration     | Website:  https://openfoam.org
    \\  /    A nd           | Version:  12
     \\/     M anipulation  |
\*---------------------------------------------------------------------------*/
FoamFile
{
    format      ascii;
    class       volVectorField;
    location    "0.3";
    object      U.water_0;
}
// * * * * * * * * * * * * * * * * * * * * * * * * * * * * * * * * * * * * * //

dimensions      [0 1 -1 0 0 0 0];

internalField   nonuniform List<vector> 
3750
(
(0.00264776 0.012924 0)
(-0.000545271 0.0116705 0)
(0.00036245 0.00592306 0)
(0.00153193 0.00478075 0)
(0.000688826 0.00515151 0)
(-0.00177627 0.00617445 0)
(-0.00112512 0.00712029 0)
(-0.00164964 0.00849279 0)
(-0.000941422 0.0087085 0)
(-0.000144765 0.00844755 0)
(0.000710832 0.00953493 0)
(0.000109551 0.00931376 0)
(0.00162349 0.00926175 0)
(0.000180197 0.0100054 0)
(0.000284282 0.0107553 0)
(9.15634e-05 0.0115529 0)
(-0.000849682 0.00923292 0)
(0.000395107 0.0076017 0)
(0.00196785 0.00730932 0)
(0.00142906 0.011335 0)
(0.000683145 0.00928294 0)
(0.000133546 0.00308151 0)
(-0.000325914 0.00331383 0)
(-0.00214407 0.00513148 0)
(-0.000371052 0.0057676 0)
(-0.000844256 0.00427098 0)
(0.000595231 0.00415073 0)
(-0.000144445 0.0033754 0)
(0.00181293 0.00316498 0)
(0.000532237 0.00175399 0)
(0.00104491 0.0025661 0)
(0.000288403 0.00293748 0)
(-0.000335064 0.00166545 0)
(-0.000487612 0.0020519 0)
(-0.00101223 0.00329845 0)
(-0.00142028 0.003428 0)
(-0.00141875 0.00330235 0)
(0.000582631 0.00353174 0)
(0.00142506 0.00279803 0)
(0.00126728 0.00118362 0)
(0.000716119 -0.000270114 0)
(0.00102432 -0.000861991 0)
(-0.000667166 -0.000647487 0)
(-0.00155514 0.000253196 0)
(-0.00198742 0.00317591 0)
(-0.000885229 0.00513111 0)
(-0.00115685 0.00441509 0)
(-0.00200864 0.00718598 0)
(0.00150899 0.00742524 0)
(0.000511996 0.00537596 0)
(0.00154995 0.00309352 0)
(0.00169005 0.00171017 0)
(0.00133801 0.00473473 0)
(-0.00221171 0.00560695 0)
(-0.0027605 0.00313571 0)
(0.000637604 0.00435083 0)
(-0.000618292 0.00452239 0)
(-0.0010123 0.00542104 0)
(-0.000486796 0.00370376 0)
(0.000915018 0.00157048 0)
(0.00101069 0.000472755 0)
(0.0016725 0.00041023 0)
(0.00161056 0.000750553 0)
(0.00105959 0.00155844 0)
(0.00134461 0.000578511 0)
(0.00276054 0.00412265 0)
(-0.00105174 0.00318646 0)
(-0.000999817 -0.00114621 0)
(-0.0013943 0.00132643 0)
(-0.00181554 0.0035163 0)
(-0.00101875 0.0049236 0)
(0.000270534 0.00379756 0)
(0.00235189 0.000239499 0)
(0.00369838 -0.00843884 0)
(0.00202828 -0.0117101 0)
(0.00403468 -0.00586538 0)
(-0.000537199 -0.00565824 0)
(-0.00153292 -0.0040721 0)
(-6.96114e-05 -0.00379566 0)
(-0.000882097 -0.00664439 0)
(-0.000368107 -0.00617408 0)
(0.000897147 -0.00819218 0)
(-0.000107147 -0.010367 0)
(-0.000658486 -0.00878547 0)
(-0.00102785 -0.00723125 0)
(-0.000344307 -0.00612272 0)
(-0.00147696 -0.00350084 0)
(-0.00142175 -0.00228182 0)
(-0.00112833 -0.00334759 0)
(-0.000448868 -0.00130809 0)
(0.00128126 -0.00308521 0)
(0.00102084 -0.00487008 0)
(0.00227135 -0.00387675 0)
(0.00105472 -0.00448485 0)
(0.00407735 -0.000599154 0)
(-0.00130903 -0.00141754 0)
(-0.000573785 -0.00705073 0)
(0.000421735 -0.00818275 0)
(0.00107679 -0.00587782 0)
(0.000811805 -0.00728699 0)
(0.00139162 -0.010396 0)
(0.000384465 -0.0113914 0)
(-0.000157909 -0.00998444 0)
(-0.00166782 -0.00841703 0)
(0.00151069 -0.00945259 0)
(-2.36649e-05 -0.00874263 0)
(-0.000274015 -0.00892538 0)
(-0.001475 -0.00929273 0)
(-0.000529252 -0.00816988 0)
(0.000822057 -0.00847274 0)
(0.000674068 -0.0101483 0)
(0.000555565 -0.00967627 0)
(0.00208095 -0.00816067 0)
(0.00169257 -0.00916183 0)
(-0.00120713 -0.00977792 0)
(0.000907873 -0.00950819 0)
(-0.00021636 -0.00941356 0)
(-0.000899325 -0.00963036 0)
(-0.00154091 -0.00989973 0)
(-0.000751738 -0.0100259 0)
(0.00100818 -0.0117431 0)
(0.000477942 -0.0154435 0)
(0.000112171 -0.0107375 0)
(0.000323343 -0.010596 0)
(0.00153425 -0.0134922 0)
(0.00130217 -0.0124114 0)
(0.00163417 -0.0126879 0)
(0.00171917 -0.0109784 0)
(-0.00256655 -0.0107078 0)
(-0.00322942 -0.0074149 0)
(0.00067759 -0.00845095 0)
(-0.000379952 -0.0139716 0)
(0.000303174 -0.014572 0)
(0.000970999 -0.0162875 0)
(0.000459391 -0.0183675 0)
(-0.000359023 -0.0196748 0)
(-0.000942393 -0.0182582 0)
(-0.000450597 -0.0175654 0)
(-0.000219052 -0.0162975 0)
(0.00129183 -0.0146717 0)
(0.00310913 -0.0122187 0)
(-0.00175582 -0.0111805 0)
(-0.00220362 -0.0117099 0)
(-0.00251441 -0.0112365 0)
(-0.00210076 -0.010579 0)
(0.000354408 -0.0104982 0)
(0.00472044 -0.00987522 0)
(0.00779858 -0.0119452 0)
(0.0078403 -0.0158928 0)
(0.00194919 -0.0142643 0)
(0.00135431 -0.0123407 0)
(0.000444173 -0.0129642 0)
(0.000615652 -0.00975092 0)
(-0.000999798 -0.0107528 0)
(0.000749623 -0.015484 0)
(0.00243347 -0.0146565 0)
(0.000103893 -0.0150013 0)
(-0.00117271 -0.0161998 0)
(-0.00317235 -0.014445 0)
(-0.00473014 -0.0121483 0)
(-0.00217991 -0.0127204 0)
(0.000450944 -0.0156228 0)
(-0.00131931 -0.0178869 0)
(-0.000988428 -0.0186931 0)
(0.000911387 -0.0151767 0)
(0.00188221 -0.0132796 0)
(0.00300431 -0.0163131 0)
(0.00244657 -0.0159786 0)
(0.0019987 -0.0123664 0)
(0.00353375 -0.0115568 0)
(-0.000470069 -0.0142202 0)
(-0.00101396 -0.014917 0)
(0.00168353 -0.015703 0)
(0.00316893 -0.0149901 0)
(7.87107e-05 -0.0145026 0)
(0.000408645 -0.0140116 0)
(-0.00133794 -0.0143601 0)
(-0.000640298 -0.0148255 0)
(-0.00140964 -0.00962274 0)
(0.00297157 -0.0097771 0)
(0.00107741 -0.0142952 0)
(-0.00159995 -0.0148636 0)
(-0.00204643 -0.014895 0)
(-0.00256208 -0.0126569 0)
(0.00110899 -0.0134357 0)
(0.00148549 -0.0149556 0)
(0.00261641 -0.013487 0)
(0.00157885 -0.0140426 0)
(-0.000286325 -0.0170002 0)
(-0.000906935 -0.0148533 0)
(-0.000923232 -0.014155 0)
(-0.0012528 -0.0181666 0)
(-0.000365402 -0.0180514 0)
(0.0026321 -0.0185348 0)
(0.00157391 -0.0145802 0)
(-0.00034271 -0.0165464 0)
(-0.000127371 -0.0214486 0)
(-0.00021475 -0.0186285 0)
(-0.00189048 -0.0154765 0)
(0.00198953 -0.0172529 0)
(0.000847487 -0.0186125 0)
(0.000249928 -0.0183312 0)
(-0.000650103 -0.0176813 0)
(-0.000855279 -0.0176527 0)
(0.000321265 -0.0139366 0)
(-0.00203381 -0.0150382 0)
(-0.000110153 -0.0198669 0)
(0.000379829 -0.0177445 0)
(0.00464864 -0.0193048 0)
(0.00330699 -0.0211291 0)
(0.00195808 -0.0225997 0)
(-0.000228002 -0.0241732 0)
(-0.000454059 -0.0246172 0)
(-0.000614908 -0.0243585 0)
(-0.000484569 -0.0234392 0)
(-0.000338723 -0.0215463 0)
(-0.00234156 -0.0204964 0)
(-0.00324435 -0.0206545 0)
(-0.00341802 -0.0208632 0)
(-0.00311228 -0.0211634 0)
(-0.000504114 -0.021529 0)
(0.00479337 -0.0201452 0)
(0.00678111 -0.0194466 0)
(0.00697894 -0.0197492 0)
(0.00157186 -0.0152571 0)
(0.00189607 -0.0153966 0)
(0.00209191 -0.0154618 0)
(0.00190479 -0.0150902 0)
(-0.00262085 -0.0158278 0)
(0.0023044 -0.016497 0)
(0.00127469 -0.0176135 0)
(0.000844689 -0.0188925 0)
(-0.000244564 -0.018612 0)
(-0.00143028 -0.0187533 0)
(-0.000438196 -0.0172036 0)
(0.000988757 -0.0164213 0)
(1.89529e-05 -0.0221347 0)
(-0.00069931 -0.0252456 0)
(-0.00233674 -0.0228798 0)
(0.00134869 -0.021034 0)
(-0.00207384 -0.0208896 0)
(0.000712254 -0.0196612 0)
(0.00293472 -0.0193299 0)
(0.00449646 -0.0181219 0)
(0.00139749 -0.0185321 0)
(0.00047178 -0.0202102 0)
(-0.000872366 -0.0186376 0)
(0.00107676 -0.0173734 0)
(0.000886961 -0.0180437 0)
(-0.000345917 -0.0180934 0)
(-0.000366738 -0.0188133 0)
(6.11335e-05 -0.0183819 0)
(0.000271198 -0.0170978 0)
(-0.000532244 -0.0112122 0)
(-0.00126112 -0.00991877 0)
(0.00164825 -0.015064 0)
(-0.00164567 -0.0154394 0)
(-0.00113968 -0.0154276 0)
(5.76782e-05 -0.0124596 0)
(0.000583748 -0.0126865 0)
(0.00457882 -0.0170265 0)
(0.00356163 -0.0179162 0)
(0.0010454 -0.0180884 0)
(-0.000703751 -0.0184222 0)
(0.000820954 -0.0182742 0)
(-0.00156548 -0.0184466 0)
(-0.00150533 -0.0199449 0)
(-0.00223986 -0.0191179 0)
(0.0017418 -0.0186543 0)
(0.00129042 -0.0181741 0)
(-0.000885959 -0.0189902 0)
(-9.06673e-06 -0.0207884 0)
(0.00114972 -0.0170118 0)
(-7.97087e-05 -0.0127982 0)
(-0.000981037 -0.015655 0)
(0.000126554 -0.0190747 0)
(0.000471952 -0.0199486 0)
(-0.000876529 -0.0180611 0)
(0.00166174 -0.0170959 0)
(0.00168612 -0.017694 0)
(-0.00464163 -0.0170544 0)
(0.000653368 -0.0191573 0)
(0.000783823 -0.0169237 0)
(0.00219042 -0.0171673 0)
(0.00251569 -0.0205567 0)
(0.00275233 -0.0193812 0)
(0.00113474 -0.0206972 0)
(-0.00058261 -0.0216056 0)
(-0.00133891 -0.0215897 0)
(-0.00140255 -0.021373 0)
(-0.000992085 -0.021208 0)
(-0.00117049 -0.0217674 0)
(-0.00174806 -0.0227321 0)
(-0.00222735 -0.0228496 0)
(-0.00200775 -0.0231018 0)
(-5.66421e-05 -0.0233894 0)
(0.00291918 -0.0216273 0)
(0.00388992 -0.0203737 0)
(0.00403969 -0.0204518 0)
(0.000555314 -0.0161357 0)
(0.000543059 -0.0227184 0)
(0.00108578 -0.022295 0)
(0.00152055 -0.0230455 0)
(0.000868145 -0.0190263 0)
(0.00137582 -0.0188079 0)
(-0.00028242 -0.0224828 0)
(-0.00129202 -0.0224774 0)
(0.0022954 -0.0236588 0)
(0.000841403 -0.0229501 0)
(0.00171059 -0.0191144 0)
(-8.58819e-05 -0.0222742 0)
(-0.00355001 -0.0265469 0)
(-0.00231501 -0.0271918 0)
(-0.00217652 -0.0224003 0)
(-0.00108195 -0.0212964 0)
(-0.00153194 -0.0235482 0)
(0.00251438 -0.0226376 0)
(0.00258947 -0.0230572 0)
(0.00229602 -0.0215547 0)
(0.00170854 -0.0195491 0)
(0.000206518 -0.0200745 0)
(0.0015359 -0.0159066 0)
(-0.000378087 -0.016376 0)
(0.000262615 -0.0192893 0)
(0.000459653 -0.0178151 0)
(0.000324407 -0.0170537 0)
(0.000268601 -0.0153757 0)
(-0.000368183 -0.0161659 0)
(0.00086146 -0.013006 0)
(-0.00241366 -0.00835963 0)
(-0.00142584 -0.0132991 0)
(-0.000968008 -0.0166473 0)
(-0.00173691 -0.016438 0)
(0.00249532 -0.0159028 0)
(0.0021795 -0.0132497 0)
(0.00204541 -0.0152638 0)
(0.00136939 -0.0186984 0)
(0.00115445 -0.0177562 0)
(0.000104466 -0.0174158 0)
(0.000690414 -0.0166933 0)
(-0.00011907 -0.0170286 0)
(-0.000337885 -0.0180266 0)
(-1.55424e-05 -0.0149732 0)
(-0.000446027 -0.0141647 0)
(0.000638627 -0.0168353 0)
(-0.000111035 -0.0162178 0)
(5.25336e-05 -0.0149947 0)
(0.00238805 -0.0132363 0)
(-0.00104353 -0.0123969 0)
(-0.0036173 -0.0130419 0)
(-0.000230158 -0.0143574 0)
(0.00136647 -0.0174584 0)
(0.000406642 -0.0156555 0)
(-0.000318829 -0.0145312 0)
(-0.000331124 -0.0174032 0)
(-0.0020155 -0.0138868 0)
(0.00259893 -0.0130823 0)
(0.00432651 -0.0165898 0)
(0.00077066 -0.0182193 0)
(0.00317551 -0.0192617 0)
(0.00324251 -0.0182856 0)
(0.00237075 -0.0194163 0)
(0.00105258 -0.0202198 0)
(-0.000362534 -0.0214403 0)
(-0.000828935 -0.0232014 0)
(-0.000220636 -0.0245405 0)
(-0.000586902 -0.0247412 0)
(-0.00228403 -0.0239697 0)
(-0.00330606 -0.023067 0)
(-0.00284259 -0.0224253 0)
(-0.000412285 -0.0217265 0)
(0.00158048 -0.0205665 0)
(0.00208501 -0.0196077 0)
(0.00219265 -0.0204292 0)
(0.000199504 -0.0168982 0)
(0.00117767 -0.0240071 0)
(0.00169085 -0.0222278 0)
(0.00146181 -0.0215307 0)
(0.00193356 -0.0201575 0)
(-0.000604657 -0.0202659 0)
(0.000971331 -0.0228799 0)
(0.00228278 -0.0188188 0)
(0.00166818 -0.0195175 0)
(0.00233072 -0.0224796 0)
(0.00316024 -0.020636 0)
(-0.00234136 -0.0218257 0)
(-0.00341659 -0.0208135 0)
(-0.00130506 -0.0205899 0)
(0.000447917 -0.0208312 0)
(-0.00112368 -0.0218968 0)
(-0.0013567 -0.0195136 0)
(-0.000939262 -0.0194581 0)
(-0.000711467 -0.0211455 0)
(-0.000450618 -0.0176241 0)
(0.00133057 -0.0164748 0)
(-0.00101238 -0.0157447 0)
(0.00287285 -0.0141824 0)
(-0.00222271 -0.014655 0)
(-0.0018909 -0.014042 0)
(-0.000696778 -0.0145479 0)
(0.000177754 -0.0149139 0)
(-0.00131846 -0.0148661 0)
(-0.000483338 -0.0145979 0)
(0.0021975 -0.0133057 0)
(-0.000182816 -0.0127511 0)
(-0.000609884 -0.0137169 0)
(0.000487165 -0.0181039 0)
(0.000999982 -0.0162137 0)
(0.001001 -0.0126442 0)
(0.00193431 -0.016082 0)
(-0.000925064 -0.0198236 0)
(0.000846825 -0.020352 0)
(0.00176155 -0.0195873 0)
(0.00145261 -0.0193853 0)
(-2.71056e-05 -0.0179625 0)
(0.000452648 -0.0173565 0)
(-0.000891457 -0.0181714 0)
(-6.7389e-05 -0.0170256 0)
(-0.0017359 -0.0162974 0)
(-0.00170653 -0.0174486 0)
(-0.00134626 -0.0171495 0)
(-0.000396789 -0.0154449 0)
(0.00396801 -0.015516 0)
(0.00128392 -0.0168142 0)
(-0.000988691 -0.0130157 0)
(0.000951991 -0.0113646 0)
(0.000538201 -0.0170258 0)
(0.00359231 -0.0194349 0)
(-0.000208201 -0.0181314 0)
(-0.000893513 -0.02007 0)
(-0.000281031 -0.016859 0)
(-0.000132929 -0.0160949 0)
(0.00124037 -0.0199905 0)
(0.00253316 -0.0180197 0)
(0.00324076 -0.0172832 0)
(0.00246233 -0.017383 0)
(0.00232731 -0.0176743 0)
(0.00174164 -0.0179959 0)
(0.0013686 -0.0191444 0)
(0.00116516 -0.0209835 0)
(0.000761843 -0.0227091 0)
(-0.0014655 -0.022803 0)
(-0.00397992 -0.0213028 0)
(-0.00438148 -0.0207639 0)
(-0.00343132 -0.0205569 0)
(-0.000738564 -0.0203893 0)
(0.000631347 -0.0192879 0)
(0.0010499 -0.0188454 0)
(0.00120737 -0.0204978 0)
(0.000129959 -0.0173685 0)
(0.00020971 -0.0209191 0)
(0.000590986 -0.0199708 0)
(0.000175897 -0.0196705 0)
(0.000698269 -0.0193476 0)
(-0.00100642 -0.0174374 0)
(0.00253702 -0.0169224 0)
(0.00564884 -0.017199 0)
(0.00110078 -0.0184277 0)
(0.00100078 -0.0157881 0)
(0.000297824 -0.0153121 0)
(-0.000744199 -0.0191955 0)
(-0.00165584 -0.0152637 0)
(-0.00226715 -0.013259 0)
(-0.00141441 -0.0140045 0)
(-0.00230857 -0.0165025 0)
(-0.00109939 -0.0183186 0)
(-0.00236499 -0.0169631 0)
(-0.00254261 -0.0164499 0)
(0.00114144 -0.0124108 0)
(0.000224949 -0.0152533 0)
(-0.000187721 -0.0137771 0)
(-0.000148596 -0.0130159 0)
(-0.0012121 -0.017548 0)
(-0.000814696 -0.0149142 0)
(-0.00140784 -0.0145037 0)
(0.00275078 -0.0153445 0)
(0.000968582 -0.0173558 0)
(-0.000700438 -0.0196038 0)
(-0.00132353 -0.0202692 0)
(-0.00130056 -0.018601 0)
(7.10108e-05 -0.0173536 0)
(0.00138565 -0.0181609 0)
(0.00387938 -0.0171856 0)
(0.000998429 -0.0161669 0)
(-0.000715705 -0.0178483 0)
(0.000241359 -0.0191749 0)
(0.00166396 -0.0194298 0)
(0.000917957 -0.0198186 0)
(0.000543172 -0.0197857 0)
(-0.00146579 -0.0178695 0)
(0.00062225 -0.0180543 0)
(-0.00107938 -0.0203257 0)
(-0.0021521 -0.0194065 0)
(0.00115714 -0.0203191 0)
(0.00061926 -0.022119 0)
(-0.000186543 -0.0211725 0)
(-0.0015475 -0.0154381 0)
(0.00213459 -0.0155906 0)
(0.00129209 -0.0200869 0)
(0.00264493 -0.0149199 0)
(-0.001022 -0.0146386 0)
(-0.00293038 -0.0184961 0)
(0.00230355 -0.0192492 0)
(0.00189209 -0.0200849 0)
(0.00120864 -0.0203523 0)
(0.000264176 -0.0186943 0)
(-0.00300598 -0.0180482 0)
(-0.000927198 -0.0206196 0)
(0.00276746 -0.0191305 0)
(0.00346421 -0.0183442 0)
(0.00269335 -0.0171208 0)
(0.0034695 -0.0165749 0)
(0.00297938 -0.0172134 0)
(0.00292953 -0.0179961 0)
(0.00270346 -0.0183808 0)
(0.00150505 -0.0184367 0)
(-0.00162981 -0.0174851 0)
(-0.0037995 -0.0169765 0)
(-0.00406796 -0.017421 0)
(-0.00298413 -0.0187826 0)
(-0.00111593 -0.019268 0)
(-0.000183054 -0.0184426 0)
(0.000458689 -0.018655 0)
(0.000498681 -0.0207879 0)
(0.000141897 -0.0176617 0)
(0.00027256 -0.0223139 0)
(0.000776535 -0.0220003 0)
(-0.000124271 -0.0209872 0)
(0.00112575 -0.0216966 0)
(0.000290913 -0.0181003 0)
(0.00360283 -0.0137881 0)
(0.00298413 -0.0170257 0)
(0.00129911 -0.0199281 0)
(0.00156075 -0.0170042 0)
(-0.00166445 -0.0159807 0)
(-0.0002132 -0.0162221 0)
(-0.000530866 -0.015035 0)
(0.000437226 -0.013317 0)
(-0.00143292 -0.0156862 0)
(-0.00304958 -0.0188267 0)
(-0.0022936 -0.0192311 0)
(-0.00189219 -0.0196487 0)
(-0.00224163 -0.01693 0)
(0.00187832 -0.0154593 0)
(-0.00125933 -0.0192249 0)
(0.00104847 -0.0183402 0)
(-0.00286265 -0.0182486 0)
(-0.00199281 -0.0198277 0)
(-0.00143316 -0.020192 0)
(0.000156309 -0.0176603 0)
(0.00111642 -0.0186246 0)
(0.00197335 -0.0226935 0)
(-0.000167446 -0.0224577 0)
(-0.00196256 -0.0238832 0)
(-0.00321308 -0.0231093 0)
(0.000778393 -0.0222558 0)
(0.00217089 -0.0230987 0)
(0.00214401 -0.0234293 0)
(0.000564043 -0.0229171 0)
(-0.00022556 -0.0213755 0)
(-0.000117517 -0.0204818 0)
(0.00112008 -0.0193954 0)
(0.00184149 -0.0196406 0)
(0.00157261 -0.020471 0)
(0.00153108 -0.0176519 0)
(-0.000327072 -0.0191793 0)
(-0.000206943 -0.0230527 0)
(-0.000261061 -0.0186391 0)
(-0.000652161 -0.018133 0)
(0.000446755 -0.0232951 0)
(7.88179e-05 -0.0235617 0)
(-0.00026832 -0.0161858 0)
(0.000606801 -0.0162784 0)
(0.00208114 -0.0204314 0)
(0.00225927 -0.0184238 0)
(-0.00131216 -0.0190503 0)
(-0.00160215 -0.0161034 0)
(-0.000552846 -0.0166628 0)
(0.000230569 -0.0191489 0)
(0.000770737 -0.0189988 0)
(-0.000734675 -0.016911 0)
(0.000308301 -0.017117 0)
(-0.00105708 -0.0225917 0)
(0.000860942 -0.0236164 0)
(0.00214458 -0.0221034 0)
(0.00180985 -0.0188399 0)
(0.00267107 -0.0176342 0)
(0.00223921 -0.0180497 0)
(0.00210416 -0.0175614 0)
(0.00131695 -0.0169817 0)
(-0.000341234 -0.0160696 0)
(-0.00256804 -0.015325 0)
(-0.00329109 -0.0156419 0)
(-0.00293086 -0.0168447 0)
(-0.0013349 -0.0183057 0)
(-0.000398509 -0.0183697 0)
(-6.85131e-05 -0.0179113 0)
(0.000434663 -0.0183593 0)
(0.0004217 -0.0207524 0)
(0.000109174 -0.0178284 0)
(-0.000367138 -0.0203289 0)
(-0.000446931 -0.0205455 0)
(-0.00114279 -0.0198825 0)
(0.00199146 -0.0191187 0)
(0.00351846 -0.0159498 0)
(0.00210218 -0.015675 0)
(-0.00146163 -0.019039 0)
(-0.00120167 -0.0186144 0)
(-0.000978399 -0.0167176 0)
(-0.00101542 -0.0161581 0)
(-0.000318613 -0.0161931 0)
(0.000244441 -0.0126296 0)
(-0.000454259 -0.0141519 0)
(-0.0017536 -0.0185074 0)
(-0.00108718 -0.0182552 0)
(0.000309058 -0.0193603 0)
(0.000159901 -0.0225637 0)
(0.000987166 -0.0197124 0)
(-0.00164452 -0.0191708 0)
(-0.00194994 -0.024258 0)
(-0.00191153 -0.0231008 0)
(-0.00239487 -0.0220274 0)
(-0.00235201 -0.021502 0)
(0.000548566 -0.0206902 0)
(0.00477557 -0.0218384 0)
(-0.000647677 -0.0226417 0)
(0.00195265 -0.0242569 0)
(0.000285488 -0.0248246 0)
(-0.000357806 -0.0254586 0)
(-0.000328725 -0.0226434 0)
(0.000151793 -0.0234817 0)
(-0.000451594 -0.0281972 0)
(0.000436115 -0.0289985 0)
(-0.000111451 -0.0272718 0)
(-0.000123173 -0.0248784 0)
(-0.000775348 -0.0240658 0)
(0.00139554 -0.0217281 0)
(0.00205099 -0.0210665 0)
(0.00280174 -0.0220592 0)
(0.0022831 -0.0214672 0)
(-0.00124522 -0.0219439 0)
(-0.000548191 -0.0225934 0)
(0.00147484 -0.0208077 0)
(-0.00052797 -0.0213775 0)
(0.000565109 -0.0234718 0)
(0.00115763 -0.0266625 0)
(0.00209726 -0.0217352 0)
(-0.00112056 -0.0201866 0)
(0.00024614 -0.0238023 0)
(0.000370187 -0.022306 0)
(-0.000490595 -0.0206757 0)
(-0.000170652 -0.0183271 0)
(-0.00333216 -0.0181987 0)
(-0.00117738 -0.0186102 0)
(-0.000153421 -0.0191889 0)
(0.000432934 -0.0141044 0)
(0.00213061 -0.014706 0)
(-5.5505e-05 -0.0199846 0)
(0.00251103 -0.019986 0)
(0.00286755 -0.0204975 0)
(0.000941969 -0.0185896 0)
(0.00184713 -0.0165863 0)
(0.00221499 -0.0164993 0)
(0.0023302 -0.0160823 0)
(0.00165039 -0.0168062 0)
(-0.000245925 -0.0170444 0)
(-0.0019839 -0.0173518 0)
(-0.00230241 -0.0175964 0)
(-0.00189304 -0.0182117 0)
(-0.00120845 -0.0187848 0)
(-0.000667499 -0.0185633 0)
(-0.000426327 -0.0181037 0)
(0.000125011 -0.0185464 0)
(0.000127671 -0.0210711 0)
(0.000114275 -0.0179528 0)
(-0.000231 -0.0161075 0)
(0.00148695 -0.0187923 0)
(0.00137545 -0.0152753 0)
(0.00104422 -0.013492 0)
(0.00477221 -0.0147383 0)
(0.00177488 -0.0148929 0)
(-0.000956814 -0.017499 0)
(-0.00146936 -0.0186902 0)
(-0.00179659 -0.0178551 0)
(-0.00261268 -0.0148446 0)
(0.000432483 -0.0135558 0)
(0.00397577 -0.0137839 0)
(-0.00146692 -0.0168245 0)
(-0.00125665 -0.0210872 0)
(0.000525672 -0.0227876 0)
(0.00131922 -0.0227115 0)
(0.000750836 -0.0221371 0)
(0.00202331 -0.0217895 0)
(-0.00272951 -0.0232422 0)
(-0.00297365 -0.0255405 0)
(-0.00178311 -0.0260956 0)
(-0.00132883 -0.0282862 0)
(-5.77973e-06 -0.0269911 0)
(0.00172598 -0.0232999 0)
(0.00158836 -0.0266227 0)
(0.00122471 -0.025916 0)
(0.000882692 -0.0250812 0)
(-0.00207168 -0.0262012 0)
(-0.000508643 -0.0242313 0)
(0.00187231 -0.0235697 0)
(-0.000608786 -0.0231002 0)
(0.00146156 -0.0249771 0)
(0.000234085 -0.0269143 0)
(-0.000162944 -0.0256071 0)
(-0.00203492 -0.0232131 0)
(-0.00181494 -0.0215334 0)
(-0.000352307 -0.019897 0)
(0.000580119 -0.0202411 0)
(0.00149984 -0.0202129 0)
(0.000686944 -0.0214147 0)
(-0.000221924 -0.0215556 0)
(-0.000578281 -0.0213872 0)
(-0.00108807 -0.0198135 0)
(0.00198359 -0.0200147 0)
(0.00269283 -0.0229879 0)
(0.00195173 -0.0235048 0)
(0.00204891 -0.0210596 0)
(-0.00221392 -0.0210151 0)
(-0.00218205 -0.0209451 0)
(-0.000986963 -0.0201792 0)
(-0.00160202 -0.020669 0)
(-0.00295247 -0.019242 0)
(-0.00268756 -0.0187726 0)
(-0.00129013 -0.0191543 0)
(0.00134038 -0.0189007 0)
(0.00420336 -0.0134888 0)
(0.00102875 -0.0144707 0)
(0.00238069 -0.0153819 0)
(0.00112906 -0.0119354 0)
(-0.000247736 -0.0166554 0)
(-0.001633 -0.015508 0)
(0.000785247 -0.0130453 0)
(0.00182651 -0.0140267 0)
(0.002225 -0.0126765 0)
(0.00193077 -0.0127576 0)
(9.16693e-06 -0.0134494 0)
(-0.00214631 -0.0146437 0)
(-0.00261184 -0.0152514 0)
(-0.00203431 -0.0159051 0)
(-0.000677939 -0.0168608 0)
(-0.000372779 -0.0174833 0)
(-5.37424e-05 -0.0174739 0)
(0.000336141 -0.0182538 0)
(0.000206891 -0.0209156 0)
(2.61621e-05 -0.0179929 0)
(-0.000186517 -0.0176772 0)
(0.000409545 -0.018478 0)
(0.00207563 -0.0195677 0)
(0.000462289 -0.01487 0)
(0.00187257 -0.0138838 0)
(0.0010655 -0.017994 0)
(0.000570086 -0.0194377 0)
(-0.00175241 -0.0173911 0)
(-0.00250313 -0.0169557 0)
(-0.000176362 -0.0138103 0)
(-0.000729496 -0.00953299 0)
(0.000421617 -0.0130009 0)
(0.00122713 -0.0165298 0)
(-0.000782617 -0.0144906 0)
(0.000397629 -0.0156048 0)
(0.00142602 -0.0178223 0)
(0.00156261 -0.0186903 0)
(0.000731444 -0.018216 0)
(-0.000588087 -0.0203741 0)
(-0.000199952 -0.0220241 0)
(0.000530916 -0.0249754 0)
(0.00154818 -0.0266531 0)
(0.00403458 -0.0260504 0)
(0.00240507 -0.0250933 0)
(0.000863243 -0.0253655 0)
(0.00183349 -0.0252502 0)
(-0.000732562 -0.0264992 0)
(0.000274599 -0.0241933 0)
(0.000656224 -0.0203942 0)
(0.000800731 -0.0206859 0)
(-0.000600021 -0.0201018 0)
(-0.00126104 -0.0224482 0)
(-0.00220858 -0.0246009 0)
(-0.00223408 -0.0230696 0)
(-0.00328451 -0.022498 0)
(-0.00203773 -0.0207354 0)
(-0.00134916 -0.0186901 0)
(0.000140425 -0.0180148 0)
(0.00355341 -0.0188281 0)
(0.0019255 -0.0196891 0)
(0.000794717 -0.0201405 0)
(-0.000557847 -0.0204578 0)
(-0.000335537 -0.0156106 0)
(-0.000309718 -0.0135195 0)
(0.00232373 -0.0172511 0)
(0.00116251 -0.0177449 0)
(0.00088158 -0.0170829 0)
(-0.00111551 -0.0178125 0)
(-0.00156045 -0.0178589 0)
(-0.00208891 -0.0177025 0)
(-0.00241897 -0.0189969 0)
(-0.00398926 -0.0182794 0)
(3.61719e-05 -0.0181156 0)
(0.000435032 -0.017446 0)
(0.00117213 -0.0165717 0)
(0.00237335 -0.0151383 0)
(-0.00123684 -0.0132574 0)
(0.00380971 -0.0107405 0)
(0.000336894 -0.0109225 0)
(-0.00223281 -0.0139401 0)
(-0.00104686 -0.0110409 0)
(-0.0013573 -0.0113364 0)
(0.000168358 -0.0141248 0)
(0.00174961 -0.0119126 0)
(0.00212464 -0.010324 0)
(0.00193582 -0.010161 0)
(0.000670253 -0.0114002 0)
(-0.00107038 -0.0141002 0)
(-0.000374281 -0.0163545 0)
(0.000695323 -0.0173735 0)
(0.000660311 -0.0179611 0)
(0.000165482 -0.0181198 0)
(0.00016802 -0.0186262 0)
(0.000201426 -0.0211545 0)
(1.30772e-05 -0.0181106 0)
(0.00136991 -0.0206674 0)
(0.000994943 -0.0218785 0)
(0.00201103 -0.0223961 0)
(0.00308918 -0.0206 0)
(0.00051779 -0.0193842 0)
(0.000757435 -0.0203966 0)
(0.000309656 -0.0206085 0)
(-0.000578434 -0.0204818 0)
(-0.00245847 -0.016803 0)
(-0.000991776 -0.0171573 0)
(-0.00251162 -0.0187908 0)
(-0.0047673 -0.0157409 0)
(0.00205123 -0.0160871 0)
(0.00235609 -0.0148642 0)
(0.00142858 -0.0142594 0)
(0.000604486 -0.0165708 0)
(0.00102111 -0.0162473 0)
(0.00209644 -0.015557 0)
(0.00203522 -0.0167959 0)
(0.00131627 -0.0179475 0)
(0.000826795 -0.018893 0)
(0.00187075 -0.021213 0)
(0.00374282 -0.0221071 0)
(0.00249255 -0.0219137 0)
(0.00160116 -0.023225 0)
(0.000778223 -0.0234288 0)
(-0.000367863 -0.0214255 0)
(-4.01684e-05 -0.0180491 0)
(0.000519447 -0.0147888 0)
(0.0019335 -0.0148279 0)
(-0.000465328 -0.0152259 0)
(-0.00234892 -0.0161265 0)
(-0.00255983 -0.0193911 0)
(-0.0022668 -0.0199895 0)
(-0.00349149 -0.0203171 0)
(-0.0027178 -0.0205602 0)
(-0.00251481 -0.0221651 0)
(-0.00200941 -0.018366 0)
(0.00279052 -0.0185909 0)
(0.00146284 -0.0224339 0)
(-0.000300277 -0.0211092 0)
(-0.00178236 -0.0188696 0)
(0.000413414 -0.0141994 0)
(0.000585767 -0.0110232 0)
(0.000188373 -0.0140678 0)
(0.000704787 -0.0175226 0)
(0.000199653 -0.0175644 0)
(-9.31193e-05 -0.018625 0)
(-0.000598994 -0.0202809 0)
(-0.00243246 -0.0200254 0)
(-0.00273056 -0.0214432 0)
(-0.00258206 -0.0169518 0)
(-0.00188861 -0.0158056 0)
(-0.000726115 -0.0182559 0)
(-0.000324531 -0.01698 0)
(-0.000115137 -0.0180989 0)
(0.000653767 -0.0165983 0)
(0.000559189 -0.0149136 0)
(0.000621847 -0.0155002 0)
(8.06926e-05 -0.0143058 0)
(0.0012511 -0.0123039 0)
(-0.00152418 -0.0123469 0)
(-0.00118968 -0.0134721 0)
(-0.000843948 -0.0127415 0)
(-5.51735e-05 -0.0124476 0)
(0.00118812 -0.0124269 0)
(0.00199172 -0.0136024 0)
(0.00173076 -0.0162175 0)
(0.00136241 -0.0176343 0)
(0.00139387 -0.0179043 0)
(0.00112682 -0.0178761 0)
(0.000656593 -0.0175911 0)
(8.99402e-05 -0.0184649 0)
(0.000175646 -0.0209993 0)
(-4.27228e-05 -0.0180936 0)
(0.000894972 -0.0188818 0)
(0.000956408 -0.019945 0)
(0.00164271 -0.0206701 0)
(0.00194054 -0.0201386 0)
(0.00107218 -0.0190539 0)
(0.000346055 -0.0203492 0)
(-0.00013002 -0.0205084 0)
(-3.75981e-05 -0.0189071 0)
(-0.000416537 -0.0189429 0)
(-0.00381964 -0.0192141 0)
(-0.00316262 -0.0209917 0)
(-0.00278526 -0.0176053 0)
(-0.000669222 -0.0161551 0)
(0.00169073 -0.0175911 0)
(-0.000249019 -0.0168458 0)
(-0.000748174 -0.0161755 0)
(0.000100931 -0.0134345 0)
(0.00117757 -0.0109043 0)
(0.00142107 -0.00940472 0)
(0.00142926 -0.00829195 0)
(0.00444603 -0.0087332 0)
(0.00432938 -0.0130756 0)
(0.0049887 -0.0173306 0)
(0.00334686 -0.0195136 0)
(0.0018641 -0.0190615 0)
(0.00098159 -0.0184376 0)
(-0.000100763 -0.0188543 0)
(-0.00120012 -0.0147815 0)
(-0.00214389 -0.00996788 0)
(-0.00227936 -0.0126799 0)
(-0.000379904 -0.0156445 0)
(-0.00108701 -0.0153034 0)
(-0.00211879 -0.0153916 0)
(-0.0011819 -0.0169813 0)
(-0.0020254 -0.0186386 0)
(-0.000906435 -0.0203256 0)
(0.000511402 -0.0224848 0)
(0.00103503 -0.01679 0)
(0.00102363 -0.0166263 0)
(-0.000113017 -0.0219503 0)
(-0.00119088 -0.0210544 0)
(-0.00119082 -0.0169881 0)
(-0.00148584 -0.0114383 0)
(0.000849842 -0.0123694 0)
(0.000771332 -0.016516 0)
(0.000993866 -0.0179282 0)
(0.000924751 -0.0185689 0)
(-0.000301084 -0.0186832 0)
(-0.000934239 -0.0189898 0)
(-0.00228456 -0.0184402 0)
(-0.00254314 -0.0183646 0)
(-0.00174658 -0.0172427 0)
(-0.00316693 -0.0177561 0)
(-0.000417163 -0.0184825 0)
(-0.00024688 -0.0188472 0)
(-0.000682639 -0.0191761 0)
(-1.79554e-05 -0.0183335 0)
(-0.000512579 -0.0175028 0)
(-0.00124614 -0.0154766 0)
(-0.0015581 -0.0161633 0)
(-0.00113548 -0.0142996 0)
(-0.00130788 -0.0134256 0)
(-0.00055272 -0.0141235 0)
(0.000345689 -0.0142265 0)
(0.00166043 -0.0146955 0)
(0.0034301 -0.0160309 0)
(0.00399836 -0.0169957 0)
(0.00279386 -0.0183428 0)
(0.00148335 -0.0190949 0)
(0.00100599 -0.0189485 0)
(0.000813337 -0.0184204 0)
(0.000628218 -0.018053 0)
(0.000172146 -0.0186288 0)
(0.000163461 -0.0212342 0)
(-4.55223e-05 -0.0181607 0)
(0.000682135 -0.019049 0)
(0.000777592 -0.0201034 0)
(0.00151115 -0.0195965 0)
(0.00173776 -0.0185877 0)
(0.00106338 -0.0198063 0)
(0.001275 -0.0212173 0)
(0.000992114 -0.0211606 0)
(8.68395e-05 -0.0208124 0)
(0.000388842 -0.0216928 0)
(-0.00193535 -0.0215345 0)
(-0.00262793 -0.0219004 0)
(-0.00059834 -0.0214876 0)
(-0.00229929 -0.0211806 0)
(-0.000559057 -0.0228491 0)
(-0.00065692 -0.0239614 0)
(-0.00261625 -0.023162 0)
(-0.00255979 -0.0230675 0)
(-0.002263 -0.0222927 0)
(-0.000178224 -0.0213735 0)
(0.0028069 -0.0167259 0)
(0.00520711 -0.0157411 0)
(0.00803364 -0.0192459 0)
(0.00607544 -0.0188654 0)
(0.00411728 -0.0184381 0)
(0.00179 -0.0169234 0)
(-0.00061923 -0.0158349 0)
(-0.000407654 -0.0142766 0)
(0.000599666 -0.0127309 0)
(-0.00190172 -0.0117229 0)
(-0.00380528 -0.0114164 0)
(-0.00025035 -0.0123525 0)
(0.000717952 -0.0134796 0)
(0.000177502 -0.0111647 0)
(-0.00212136 -0.0131959 0)
(-0.00183558 -0.0184821 0)
(0.000805661 -0.0202149 0)
(0.00216956 -0.0213009 0)
(0.00193132 -0.0170662 0)
(-0.00214852 -0.0171154 0)
(-0.0026468 -0.0214792 0)
(-0.00186232 -0.0198184 0)
(0.00135394 -0.0186266 0)
(0.000640069 -0.0139976 0)
(-0.000696856 -0.0126774 0)
(-0.000225405 -0.0187651 0)
(4.23718e-05 -0.020555 0)
(0.000606078 -0.0183568 0)
(-0.000101301 -0.0178235 0)
(-0.00159414 -0.015592 0)
(-0.00298273 -0.0143878 0)
(-0.0016388 -0.0170882 0)
(-0.00117066 -0.0181288 0)
(-0.00175064 -0.0173388 0)
(0.000472581 -0.0164684 0)
(-0.00091624 -0.0173969 0)
(-0.00257077 -0.0150246 0)
(-0.00087828 -0.0115693 0)
(0.00175361 -0.0138517 0)
(-0.0010856 -0.0182908 0)
(-0.000941186 -0.0196821 0)
(-0.00123955 -0.0198241 0)
(-0.00220685 -0.0196382 0)
(-0.00175871 -0.0187525 0)
(-0.000483926 -0.0182503 0)
(0.00197669 -0.0183219 0)
(0.00401291 -0.0184035 0)
(0.00436498 -0.0183579 0)
(0.00356758 -0.0183253 0)
(0.00177919 -0.0184243 0)
(0.00123481 -0.0184296 0)
(0.000989 -0.0181007 0)
(0.000826382 -0.01776 0)
(0.000226455 -0.0184379 0)
(0.000168796 -0.0210512 0)
(-0.000109103 -0.0181376 0)
(0.000988389 -0.0215627 0)
(0.00102929 -0.0217166 0)
(0.00111807 -0.0210214 0)
(0.000986625 -0.0206026 0)
(0.00133947 -0.0194149 0)
(0.000842411 -0.0183145 0)
(0.000372496 -0.0189892 0)
(-0.00171352 -0.0162932 0)
(0.000684173 -0.0167019 0)
(-0.00125086 -0.0185199 0)
(-0.00316297 -0.0192014 0)
(-0.00106288 -0.0191055 0)
(-0.000572259 -0.0179642 0)
(0.000659829 -0.0164655 0)
(0.00148875 -0.0184523 0)
(0.000121303 -0.0214355 0)
(-0.00155822 -0.0211009 0)
(-0.000769243 -0.0249668 0)
(0.000752957 -0.0247355 0)
(0.00127297 -0.0218369 0)
(0.00259438 -0.0167581 0)
(0.00422965 -0.0167155 0)
(0.00323221 -0.0181186 0)
(0.00118693 -0.0152396 0)
(-0.00046275 -0.0129179 0)
(-0.00115999 -0.0115381 0)
(-0.00031395 -0.0126128 0)
(-0.00184281 -0.0149058 0)
(-0.00200731 -0.0147823 0)
(-0.000950514 -0.012093 0)
(0.00124037 -0.0110917 0)
(0.00214977 -0.0118405 0)
(0.00295352 -0.0107428 0)
(-0.000418089 -0.0122001 0)
(0.000313435 -0.0155444 0)
(0.00119138 -0.0167683 0)
(0.00306202 -0.0166062 0)
(0.00318507 -0.0146574 0)
(-0.00284493 -0.0150605 0)
(-0.00303295 -0.0176058 0)
(-0.00146429 -0.0162319 0)
(0.000741309 -0.0160939 0)
(0.00497701 -0.0153951 0)
(0.00103004 -0.0157472 0)
(-0.00175519 -0.0184997 0)
(-0.00110382 -0.0190272 0)