/*--------------------------------*- C++ -*----------------------------------*\
  =========                 |
  \\      /  F ield         | OpenFOAM: The Open Source CFD Toolbox
   \\    /   O peration     | Website:  https://openfoam.org
    \\  /    A nd           | Version:  12
     \\/     M anipulation  |
\*---------------------------------------------------------------------------*/
FoamFile
{
    format      ascii;
    class       volVectorField;
    location    "0.3";
    object      U.water;
}
// * * * * * * * * * * * * * * * * * * * * * * * * * * * * * * * * * * * * * //

dimensions      [0 1 -1 0 0 0 0];

internalField   nonuniform List<vector> 
3750
(
(0.000951999 0.0089275 0)
(0.00100602 0.00753466 0)
(0.00156857 0.00668713 0)
(0.000234131 0.0064727 0)
(0.0018966 0.00658908 0)
(-0.00129654 0.00580912 0)
(-0.000580965 0.00575602 0)
(1.74033e-05 0.0115329 0)
(-0.00218142 0.0114257 0)
(-0.000416229 0.00604049 0)
(0.000489635 0.00769051 0)
(-0.000269541 0.0085844 0)
(0.0013378 0.00922506 0)
(0.000125245 0.00985337 0)
(7.31988e-05 0.0107052 0)
(-0.00115633 0.0125848 0)
(0.000183403 0.0112796 0)
(0.000807412 0.00915097 0)
(0.0018341 0.00765403 0)
(-6.22062e-05 0.00588456 0)
(5.43066e-05 0.00643725 0)
(0.000204886 0.00788922 0)
(0.000416018 0.00806217 0)
(2.54458e-05 0.00585689 0)
(-0.000376589 0.00456045 0)
(-0.000856661 0.00425607 0)
(0.000770994 0.00390547 0)
(0.000242381 0.00253171 0)
(0.00213499 0.00205683 0)
(0.000155881 0.0008932 0)
(0.000853511 0.00214984 0)
(0.000663759 0.00232129 0)
(0.00128007 0.00603819 0)
(-0.00198313 0.00603502 0)
(-0.00137976 0.00202852 0)
(-0.00142266 0.00299467 0)
(-0.000980544 0.00260755 0)
(0.000230691 0.0027239 0)
(0.000358567 0.00352672 0)
(0.00282477 0.00206985 0)
(0.000439332 -0.000202915 0)
(0.000955906 -0.000416263 0)
(-0.000679347 -0.000114601 0)
(-0.00135703 0.000730258 0)
(-0.00108461 0.00216099 0)
(-0.000150321 0.00813909 0)
(-0.00265712 0.007926 0)
(-0.00176053 0.00454693 0)
(0.00074188 0.00519437 0)
(0.000397597 0.00492299 0)
(0.00167897 0.00286253 0)
(0.00240875 0.00557796 0)
(-0.0012125 0.00407674 0)
(-0.00127397 -0.000111798 0)
(-0.00117924 0.00149281 0)
(-0.000428298 0.00400667 0)
(-0.000375212 0.00511228 0)
(-0.0004936 0.00576152 0)
(-0.00024625 0.00404551 0)
(0.000985109 0.00237641 0)
(0.00154 0.000557476 0)
(0.00312644 0.00503894 0)
(-0.000220529 0.0051356 0)
(9.31158e-05 0.00120359 0)
(0.000197927 0.00037332 0)
(0.00139895 -0.000418757 0)
(-5.1205e-05 -0.000833144 0)
(-0.000140996 -0.000659492 0)
(-0.00110042 0.00241781 0)
(-0.00166803 0.00406717 0)
(-0.00089892 0.00524916 0)
(0.000335501 0.00396152 0)
(0.00238916 0.000321672 0)
(0.003668 -0.00838718 0)
(0.0019927 -0.0115443 0)
(0.00281775 -0.00643516 0)
(0.000741113 -0.00691957 0)
(0.00250859 -0.00603294 0)
(-1.2237e-05 -0.0021119 0)
(-0.000519107 -0.00348279 0)
(-0.000131998 -0.00726714 0)
(0.00175781 -0.00834665 0)
(0.00225045 -0.00897528 0)
(-0.00164342 -0.00793353 0)
(-0.000885173 -0.00852261 0)
(-0.00115124 -0.00796529 0)
(-0.00329592 -0.00422614 0)
(-0.00256707 -0.00183607 0)
(-0.0011515 -0.00323639 0)
(9.4959e-05 -0.00240197 0)
(0.00127259 -0.000726712 0)
(0.000536836 -0.0012134 0)
(0.000277717 -0.00332488 0)
(0.00209479 -0.00562704 0)
(-0.000266348 -0.00610862 0)
(0.00177047 -0.00279045 0)
(-0.000136823 -0.00090035 0)
(0.00211272 -0.00130399 0)
(0.00119073 -0.00585246 0)
(0.000748569 -0.0107117 0)
(0.00100323 -0.0103344 0)
(0.00101907 -0.0111802 0)
(0.000629784 -0.0104604 0)
(-0.00032347 -0.010154 0)
(-0.0005818 -0.0107872 0)
(-0.00103215 -0.00828927 0)
(0.000149647 -0.00756059 0)
(0.000973245 -0.00655374 0)
(-0.00149874 -0.00611566 0)
(-0.000254383 -0.00826844 0)
(-2.36526e-05 -0.00967628 0)
(0.00170087 -0.0106023 0)
(0.00104287 -0.0104736 0)
(0.00213184 -0.00650645 0)
(0.000516552 -0.00804832 0)
(-0.000246545 -0.0109758 0)
(-0.000480162 -0.00860524 0)
(-0.000811917 -0.00891666 0)
(-0.00141457 -0.00872742 0)
(0.000208422 -0.0107288 0)
(0.0011591 -0.0114212 0)
(-0.00148599 -0.0123343 0)
(-0.00110991 -0.0124875 0)
(0.00137692 -0.012906 0)
(0.000741253 -0.0128621 0)
(0.00157783 -0.0115517 0)
(0.00252786 -0.0111924 0)
(-0.00146128 -0.0111191 0)
(-0.00174889 -0.0121392 0)
(-0.00147879 -0.01092 0)
(-0.00132125 -0.0100617 0)
(0.00185511 -0.0117588 0)
(0.00217475 -0.0140416 0)
(0.00121283 -0.0163973 0)
(0.000848891 -0.0175576 0)
(0.000583678 -0.0180769 0)
(0.000867235 -0.0158187 0)
(-0.00289574 -0.0153066 0)
(-0.00180803 -0.0156956 0)
(-0.000469694 -0.0148471 0)
(0.0011705 -0.0139099 0)
(-0.000461851 -0.0130095 0)
(-0.000915273 -0.0118903 0)
(-0.00196261 -0.0108599 0)
(-0.00180593 -0.0101745 0)
(0.00056186 -0.0101436 0)
(0.00483465 -0.00960805 0)
(0.00783622 -0.0117545 0)
(0.00780792 -0.0157136 0)
(0.00190257 -0.0140592 0)
(0.000959667 -0.0113435 0)
(0.00139762 -0.0119256 0)
(0.00216995 -0.0104982 0)
(0.00160486 -0.0129389 0)
(-0.00110071 -0.0138419 0)
(0.00158888 -0.0143979 0)
(0.000529418 -0.0141807 0)
(-9.89963e-05 -0.0148867 0)
(-0.00196036 -0.0138385 0)
(-0.002782 -0.0143439 0)
(-0.0032458 -0.016573 0)
(-0.00260401 -0.0167726 0)
(-0.00341778 -0.0161791 0)
(-0.000411478 -0.0169588 0)
(0.0028896 -0.0149622 0)
(0.00361267 -0.0132544 0)
(0.00121587 -0.0161465 0)
(0.000589507 -0.0126858 0)
(0.00040669 -0.0141275 0)
(0.0018863 -0.0143938 0)
(0.00359557 -0.0126363 0)
(0.00157831 -0.0116355 0)
(0.000668661 -0.0111581 0)
(5.44906e-05 -0.0158459 0)
(0.000194992 -0.0160877 0)
(0.000498924 -0.0134199 0)
(-0.000836731 -0.0134176 0)
(4.87123e-05 -0.0147138 0)
(0.000226435 -0.0135168 0)
(-0.000164655 -0.0127977 0)
(-0.00103969 -0.0121807 0)
(-0.00159065 -0.0119419 0)
(-0.000543252 -0.0117742 0)
(0.000169073 -0.0121726 0)
(-0.000186652 -0.0143891 0)
(-0.0016942 -0.0131895 0)
(0.00267205 -0.0146128 0)
(0.00200457 -0.0156167 0)
(0.00221089 -0.0135338 0)
(-0.00129401 -0.0157116 0)
(-0.000465505 -0.0162201 0)
(-0.000398916 -0.0164975 0)
(0.000627477 -0.0171902 0)
(0.00177585 -0.0169281 0)
(-0.000714186 -0.0154189 0)
(0.00092191 -0.0168986 0)
(4.50219e-05 -0.0192091 0)
(7.78773e-05 -0.0176581 0)
(-0.00128389 -0.0171461 0)
(-0.00140509 -0.0184543 0)
(0.00198008 -0.0170605 0)
(0.0005732 -0.0176629 0)
(-0.00109687 -0.0180409 0)
(-0.0018293 -0.0182909 0)
(-0.00185751 -0.0187252 0)
(0.000724815 -0.0152317 0)
(0.000954101 -0.0154741 0)
(0.00188804 -0.0194341 0)
(0.00283966 -0.0202417 0)
(0.00424337 -0.0195715 0)
(0.00254549 -0.0211039 0)
(0.000204796 -0.0228992 0)
(-0.00131793 -0.0234396 0)
(-0.0016852 -0.0238482 0)
(-0.00159039 -0.0235604 0)
(-0.00117949 -0.0222239 0)
(-0.00194516 -0.021255 0)
(-0.00261599 -0.0209431 0)
(-0.00298209 -0.0207776 0)
(-0.00280032 -0.0209592 0)
(-0.000217098 -0.0212671 0)
(0.00496749 -0.0198687 0)
(0.00684109 -0.0191902 0)
(0.00697215 -0.0195085 0)
(0.00153158 -0.0150538 0)
(0.00111712 -0.014718 0)
(0.00341452 -0.0148698 0)
(0.000221019 -0.0154672 0)
(0.000366476 -0.0177318 0)
(-0.000157936 -0.016842 0)
(0.000139854 -0.0162146 0)
(0.00146437 -0.0170491 0)
(-0.000236599 -0.0164563 0)
(0.00068449 -0.0172063 0)
(9.75471e-05 -0.0210154 0)
(-0.000503761 -0.0235373 0)
(0.000569144 -0.0243385 0)
(7.02781e-05 -0.0213247 0)
(-0.000398855 -0.0186789 0)
(6.2586e-05 -0.0208042 0)
(-0.0014809 -0.022082 0)
(-0.000105453 -0.0195716 0)
(0.00305751 -0.0185574 0)
(0.000839148 -0.0191472 0)
(0.00176296 -0.0185395 0)
(0.00212983 -0.0174784 0)
(0.00245432 -0.0176062 0)
(-0.00339429 -0.0160167 0)
(0.000463934 -0.0166542 0)
(5.76218e-05 -0.0182779 0)
(0.000234429 -0.018246 0)
(-5.48681e-05 -0.0174266 0)
(0.000143344 -0.0162479 0)
(0.000886119 -0.0169557 0)
(0.000155946 -0.0146388 0)
(-0.000252486 -0.0114825 0)
(-0.00171233 -0.0107201 0)
(-0.000387249 -0.0101182 0)
(-0.00163901 -0.0134931 0)
(0.0015719 -0.0184632 0)
(0.00131671 -0.0152458 0)
(0.000991375 -0.0150998 0)
(0.00100727 -0.017853 0)
(0.00182026 -0.0167685 0)
(0.000196277 -0.0186293 0)
(7.63558e-05 -0.0188019 0)
(-0.000472053 -0.0188187 0)
(2.98294e-05 -0.0199887 0)
(0.000568847 -0.0202327 0)
(5.21934e-05 -0.0162958 0)
(0.000810623 -0.0162726 0)
(0.000209905 -0.018787 0)
(0.00127033 -0.0180893 0)
(-0.0016219 -0.0191058 0)
(-0.00115186 -0.0145892 0)
(0.00160028 -0.014664 0)
(-0.000228982 -0.0201193 0)
(-0.000342068 -0.0196876 0)
(-0.000367775 -0.0202456 0)
(0.000128943 -0.0172576 0)
(0.000918649 -0.015736 0)
(-0.00185031 -0.0183783 0)
(-0.00113463 -0.0194613 0)
(0.000357274 -0.0177873 0)
(0.00439429 -0.0170536 0)
(0.00339063 -0.0184305 0)
(0.00131261 -0.0199278 0)
(-0.0009734 -0.0209858 0)
(-0.00191251 -0.0213021 0)
(-0.0019406 -0.0214482 0)
(-0.00132385 -0.0215778 0)
(-0.00112842 -0.022206 0)
(-0.00152442 -0.0229417 0)
(-0.00198972 -0.0228441 0)
(-0.00178985 -0.0230013 0)
(0.000163868 -0.0232163 0)
(0.00306558 -0.0214006 0)
(0.00396827 -0.0201484 0)
(0.00406367 -0.0202257 0)
(0.00053796 -0.0159413 0)
(0.000262891 -0.0228678 0)
(0.00108203 -0.022012 0)
(0.000824975 -0.0219569 0)
(0.00108683 -0.0219976 0)
(0.000243736 -0.0211582 0)
(-0.00235121 -0.0193074 0)
(0.000692511 -0.0205701 0)
(-0.000588541 -0.0210028 0)
(0.00183455 -0.0218775 0)
(-0.000260261 -0.0248602 0)
(0.0005283 -0.0258648 0)
(0.00117142 -0.0253364 0)
(0.000711683 -0.0240596 0)
(-0.00182368 -0.022533 0)
(-0.00311104 -0.0224172 0)
(-0.000553173 -0.0230284 0)
(0.000897632 -0.023083 0)
(0.00219818 -0.0224822 0)
(0.00188132 -0.0226177 0)
(0.0019245 -0.0172952 0)
(0.00125962 -0.0156247 0)
(0.00114942 -0.0190389 0)
(-0.000738544 -0.0155796 0)
(-0.000181608 -0.0150636 0)
(0.000192577 -0.0183925 0)
(-9.23693e-05 -0.0168145 0)
(-6.70886e-05 -0.0150744 0)
(-0.00100437 -0.0146861 0)
(0.000548863 -0.0153773 0)
(0.00133741 -0.01476 0)
(-0.000655327 -0.0130157 0)
(-0.00244358 -0.0113853 0)
(0.000304647 -0.014929 0)
(-0.00115248 -0.0151734 0)
(0.000255162 -0.0159915 0)
(0.00264855 -0.0170963 0)
(-0.000250849 -0.0161922 0)
(0.00115344 -0.0142076 0)
(0.000532063 -0.0145341 0)
(4.01644e-05 -0.0182764 0)
(-0.00127268 -0.0173527 0)
(0.00120682 -0.0158637 0)
(0.00149654 -0.0164099 0)
(0.000503159 -0.0162014 0)
(0.00246129 -0.0147906 0)
(-5.19279e-05 -0.0146069 0)
(-0.000478243 -0.0144236 0)
(-0.00114823 -0.0144942 0)
(-0.0020164 -0.0145717 0)
(0.00457685 -0.011439 0)
(-0.000810163 -0.0136291 0)
(-0.00171073 -0.0178391 0)
(-0.00125888 -0.0172223 0)
(-0.000905524 -0.0169609 0)
(-0.000430242 -0.0141699 0)
(0.000645518 -0.0148864 0)
(0.000866722 -0.0160593 0)
(0.00248799 -0.0174915 0)
(0.00293442 -0.0154615 0)
(0.00366001 -0.0151659 0)
(0.0036753 -0.01847 0)
(0.00247374 -0.0191674 0)
(0.000848942 -0.0199493 0)
(-0.000703521 -0.0213192 0)
(-0.00110759 -0.0232822 0)
(-0.00041394 -0.0246722 0)
(-0.000660302 -0.024894 0)
(-0.00227524 -0.0239944 0)
(-0.0031774 -0.0230385 0)
(-0.00266796 -0.0223232 0)
(-0.000232871 -0.0215987 0)
(0.00169432 -0.0203881 0)
(0.00215897 -0.0194136 0)
(0.0022263 -0.0202313 0)
(0.000192747 -0.0167141 0)
(0.00036915 -0.0237041 0)
(0.00100179 -0.0219522 0)
(0.000672743 -0.0214841 0)
(0.000540545 -0.0222689 0)
(0.000871938 -0.0228947 0)
(-0.000618878 -0.0184536 0)
(6.97531e-05 -0.0179064 0)
(0.000563421 -0.0185439 0)
(0.00206568 -0.0200266 0)
(-0.00116405 -0.024446 0)
(-0.00010128 -0.0218364 0)
(0.00243882 -0.0202677 0)
(8.39758e-05 -0.0209756 0)
(-0.00117622 -0.021902 0)
(-0.00141814 -0.0211022 0)
(-0.000882661 -0.0202045 0)
(-0.000135575 -0.0205472 0)
(0.000431631 -0.0190461 0)
(0.000360739 -0.0179096 0)
(0.000370135 -0.0151021 0)
(0.000125581 -0.0136663 0)
(-0.000319649 -0.0146368 0)
(0.000945429 -0.0135182 0)
(-0.00221912 -0.0126066 0)
(-0.000965836 -0.0147291 0)
(-0.00242434 -0.0144483 0)
(-0.000886572 -0.0142837 0)
(3.30329e-05 -0.0140576 0)
(0.000565061 -0.0146636 0)
(0.00098017 -0.0167703 0)
(0.00192771 -0.01548 0)
(-6.85777e-05 -0.0122409 0)
(-0.000238836 -0.0130099 0)
(0.000739129 -0.0173952 0)
(-0.00094833 -0.0176543 0)
(0.00196957 -0.0177782 0)
(0.00165409 -0.0181171 0)
(0.00334489 -0.0173287 0)
(7.81956e-05 -0.0182818 0)
(-0.000116324 -0.0197898 0)
(-0.000346009 -0.0154324 0)
(-0.00056589 -0.0143836 0)
(0.000318009 -0.0184605 0)
(-0.00012567 -0.0177452 0)
(-0.000613527 -0.016579 0)
(-0.000733471 -0.0166009 0)
(-7.99969e-06 -0.0169794 0)
(-0.00122501 -0.0170254 0)
(0.00159097 -0.0114556 0)
(0.00539203 -0.0118735 0)
(-0.000881128 -0.0182001 0)
(-0.0003517 -0.0184981 0)
(0.00041584 -0.0186552 0)
(0.000415295 -0.0198181 0)
(-0.000336941 -0.0163916 0)
(-0.00130782 -0.0173179 0)
(0.000205507 -0.0196781 0)
(0.00209777 -0.018208 0)
(0.00572138 -0.0159883 0)
(0.0024267 -0.0154664 0)
(0.00272773 -0.0167556 0)
(0.00241812 -0.0174502 0)
(0.00167572 -0.0178479 0)
(0.00121524 -0.0191032 0)
(0.000974617 -0.0210524 0)
(0.00056766 -0.0227767 0)
(-0.00164915 -0.0227994 0)
(-0.00399138 -0.0212815 0)
(-0.00429958 -0.0207296 0)
(-0.0032856 -0.0204946 0)
(-0.000593074 -0.0202832 0)
(0.000716595 -0.0191345 0)
(0.001112 -0.0186786 0)
(0.00124194 -0.0203214 0)
(0.000126928 -0.0171962 0)
(-0.000947897 -0.0207526 0)
(-8.13214e-05 -0.0196552 0)
(-0.000195148 -0.0194228 0)
(0.000534983 -0.0198947 0)
(0.00212149 -0.0199611 0)
(0.00308588 -0.0170747 0)
(-0.000182588 -0.0147712 0)
(0.00191143 -0.0140374 0)
(-0.00188382 -0.0179365 0)
(-0.0010844 -0.0182713 0)
(-0.000415948 -0.0126632 0)
(-0.000458176 -0.0151001 0)
(-0.00451156 -0.0177878 0)
(-0.00223845 -0.0158943 0)
(-0.000154088 -0.0157301 0)
(-0.00094887 -0.0167206 0)
(0.000669134 -0.0167372 0)
(0.000194295 -0.0159815 0)
(-0.000700499 -0.0157412 0)
(0.000609246 -0.0126043 0)
(-0.00060131 -0.0113377 0)
(-0.00160708 -0.0142019 0)
(0.00164039 -0.0139988 0)
(0.00111075 -0.0143543 0)
(0.000307682 -0.0173603 0)
(0.000675071 -0.0145734 0)
(-0.0010864 -0.0142555 0)
(0.000955768 -0.0202506 0)
(-0.00162522 -0.0218435 0)
(-0.000456312 -0.0207795 0)
(0.000469096 -0.0184142 0)
(0.000780388 -0.0163996 0)
(-0.00251505 -0.0154638 0)
(0.00117419 -0.0172527 0)
(0.00184865 -0.0173509 0)
(0.00291987 -0.0169947 0)
(0.00276331 -0.0184155 0)
(0.00129384 -0.0183439 0)
(-0.000133069 -0.0185045 0)
(0.000187538 -0.0188765 0)
(0.000827212 -0.0179745 0)
(-0.00313994 -0.017155 0)
(0.00019773 -0.0196307 0)
(0.00074574 -0.0217252 0)
(0.000638479 -0.0210956 0)
(-5.30854e-05 -0.0201052 0)
(-0.000673093 -0.0205625 0)
(-0.000991306 -0.0165947 0)
(0.00315288 -0.0107853 0)
(-8.55475e-06 -0.0156063 0)
(-0.00120842 -0.0209268 0)
(0.00013338 -0.0201952 0)
(0.000281972 -0.0192961 0)
(0.0021689 -0.018957 0)
(0.00290616 -0.019032 0)
(-0.00242993 -0.0200434 0)
(-0.00366691 -0.0191573 0)
(0.00162857 -0.0185294 0)
(0.00473597 -0.0176807 0)
(0.00337773 -0.0170578 0)
(0.00256816 -0.0164705 0)
(0.00344495 -0.0166464 0)
(0.00296219 -0.017169 0)
(0.00284581 -0.0179557 0)
(0.0025561 -0.018373 0)
(0.00129671 -0.0184313 0)
(-0.0018381 -0.0174669 0)
(-0.00383158 -0.0169958 0)
(-0.0040302 -0.0174422 0)
(-0.00287393 -0.018768 0)
(-0.00102708 -0.0191757 0)
(-0.000125121 -0.018314 0)
(0.000510426 -0.0185044 0)
(0.000532167 -0.0206231 0)
(0.00014045 -0.017497 0)
(-0.00135551 -0.0212021 0)
(0.000238818 -0.0209466 0)
(0.000228478 -0.020481 0)
(0.000206011 -0.0202575 0)
(0.00156137 -0.0200167 0)
(0.00304148 -0.0183056 0)
(0.0018864 -0.015687 0)
(0.00138537 -0.0155924 0)
(-0.00165117 -0.0167817 0)
(0.00040097 -0.0166745 0)
(-0.00229088 -0.013658 0)
(-0.00182892 -0.0171217 0)
(-0.00184724 -0.0159225 0)
(-0.00188252 -0.0125091 0)
(-0.00145791 -0.0171789 0)
(-0.00211797 -0.0192012 0)
(-0.000689939 -0.0184383 0)
(-0.000254035 -0.0199009 0)
(-0.000455284 -0.0182444 0)
(0.00226605 -0.01634 0)
(-0.000199652 -0.0180945 0)
(-0.000178418 -0.0154903 0)
(-0.0001859 -0.0154211 0)
(-0.000193398 -0.0199517 0)
(0.000179512 -0.0222403 0)
(0.00335095 -0.0219351 0)
(0.000522042 -0.0183831 0)
(-3.88974e-05 -0.0202522 0)
(-0.00181499 -0.025979 0)
(-0.00155686 -0.0262704 0)
(-0.0011997 -0.0253916 0)
(-7.70779e-05 -0.0239726 0)
(-0.00161909 -0.0193378 0)
(-0.00159829 -0.0183028 0)
(0.00365353 -0.0203809 0)
(0.00181966 -0.0198512 0)
(0.00207393 -0.0192233 0)
(0.00165232 -0.0190864 0)
(-0.000353103 -0.0182556 0)
(0.00251361 -0.0189523 0)
(0.00108827 -0.0212774 0)
(0.000778716 -0.0173056 0)
(-0.000506121 -0.0184965 0)
(-0.000779292 -0.0219566 0)
(-0.000472145 -0.0217506 0)
(-0.000689744 -0.0218173 0)
(-0.000328717 -0.021412 0)
(0.0024857 -0.0168396 0)
(0.00146632 -0.0142749 0)
(-0.00238377 -0.0190298 0)
(-0.000640475 -0.0201804 0)
(-0.000114225 -0.0193622 0)
(0.000540025 -0.0187443 0)
(0.000998058 -0.0171327 0)
(0.00158784 -0.0181488 0)
(-0.000114021 -0.0197235 0)
(-0.00143596 -0.0163271 0)
(0.00208367 -0.0186333 0)
(0.00147227 -0.0240403 0)
(0.000771264 -0.0220499 0)
(0.000932831 -0.0181678 0)
(0.00280909 -0.0173355 0)
(0.00233924 -0.0178858 0)
(0.00205888 -0.0175181 0)
(0.00118703 -0.016965 0)
(-0.000529352 -0.0160459 0)
(-0.0026881 -0.015352 0)
(-0.00333555 -0.0156776 0)
(-0.00289867 -0.0168723 0)
(-0.00129664 -0.0182633 0)
(-0.000368548 -0.0182784 0)
(-4.2733e-05 -0.0177961 0)
(0.000462147 -0.01822 0)
(0.000439743 -0.0206018 0)
(0.000106505 -0.017671 0)
(-0.00315355 -0.0183558 0)
(-0.000294553 -0.0182317 0)
(-0.000263426 -0.0200932 0)
(-0.00157232 -0.0187065 0)
(-0.000522243 -0.01816 0)
(0.00102694 -0.018007 0)
(0.00121864 -0.0159259 0)
(0.00150499 -0.0161113 0)
(-0.000891516 -0.0167795 0)
(-0.000198622 -0.0180065 0)
(-0.00261881 -0.0130161 0)
(-0.00163542 -0.0129256 0)
(-0.000112046 -0.0179375 0)
(-0.00204927 -0.0165872 0)
(-0.00296636 -0.0168803 0)
(-0.0018833 -0.0182354 0)
(0.000818753 -0.0204886 0)
(0.000486509 -0.0230709 0)
(-0.0011263 -0.0212519 0)
(0.00164997 -0.0203468 0)
(-0.000124127 -0.0212879 0)
(0.00165063 -0.0198723 0)
(-0.000467051 -0.0195326 0)
(5.29206e-05 -0.0218607 0)
(0.000667237 -0.0236016 0)
(0.00498888 -0.0233332 0)
(0.00353507 -0.0231739 0)
(0.000411818 -0.0238033 0)
(-0.000370968 -0.0255496 0)
(-0.000119657 -0.0273537 0)
(-0.00073849 -0.0284467 0)
(-0.00188817 -0.0282426 0)
(-0.000989745 -0.0267249 0)
(-0.00345926 -0.0203508 0)
(0.00205219 -0.0202882 0)
(0.000672914 -0.0247069 0)
(0.00224564 -0.0225485 0)
(0.00202429 -0.0225336 0)
(0.00216326 -0.0197896 0)
(-0.00043923 -0.0190121 0)
(0.00279966 -0.0217607 0)
(0.00230482 -0.0210127 0)
(-0.00103091 -0.0221919 0)
(-0.000512397 -0.02337 0)
(-0.000751806 -0.0233424 0)
(-0.000457805 -0.0249117 0)
(-0.00116747 -0.0241637 0)
(0.00326061 -0.0216563 0)
(-0.000921004 -0.02085 0)
(-0.001816 -0.0213221 0)
(-0.000782846 -0.0207009 0)
(-0.000900619 -0.0197173 0)
(-9.92572e-05 -0.0188449 0)
(0.000448562 -0.0176823 0)
(0.000859105 -0.0178008 0)
(0.00185551 -0.0182028 0)
(0.00210688 -0.0135208 0)
(0.00222987 -0.0156507 0)
(0.00135278 -0.0230663 0)
(-0.00141553 -0.0207164 0)
(0.000359544 -0.0164514 0)
(0.00275165 -0.0156817 0)
(0.00247582 -0.0165348 0)
(0.00227508 -0.016212 0)
(0.00148571 -0.0168598 0)
(-0.000443171 -0.0170541 0)
(-0.00210642 -0.0173309 0)
(-0.0023726 -0.0175556 0)
(-0.0019179 -0.0181544 0)
(-0.00121494 -0.0186935 0)
(-0.000657624 -0.0184454 0)
(-0.000412373 -0.0179752 0)
(0.000141605 -0.0184065 0)
(0.000141291 -0.0209153 0)
(0.000111237 -0.0177958 0)
(-0.00127563 -0.013353 0)
(0.000454079 -0.0140226 0)
(0.000202236 -0.0186103 0)
(0.000631307 -0.016746 0)
(-0.000139221 -0.0140267 0)
(0.00058634 -0.0128648 0)
(0.00190698 -0.0125103 0)
(-0.000197749 -0.0169653 0)
(-0.00116375 -0.0193641 0)
(-0.00110939 -0.0180238 0)
(0.000681913 -0.0137509 0)
(-0.00196029 -0.0132517 0)
(-0.00130507 -0.0179997 0)
(-0.000944052 -0.0201071 0)
(-7.14172e-05 -0.0229703 0)
(0.000410201 -0.0202592 0)
(-0.000259406 -0.0193136 0)
(0.000672912 -0.0248065 0)
(0.000288895 -0.0219908 0)
(-0.0005355 -0.0214579 0)
(-0.000501674 -0.0258226 0)
(-5.1481e-05 -0.0255994 0)
(0.000653792 -0.0266304 0)
(0.00100961 -0.0286326 0)
(0.00165798 -0.024292 0)
(0.00306766 -0.023356 0)
(0.00236187 -0.0262106 0)
(0.00034754 -0.0256087 0)
(-0.000189737 -0.0262872 0)
(-9.71279e-05 -0.0274562 0)
(0.000212805 -0.0279193 0)
(-0.000397918 -0.0265193 0)
(-0.00152827 -0.0244764 0)
(-3.70922e-05 -0.0173638 0)
(-0.00157406 -0.017507 0)
(-0.000652222 -0.0221948 0)
(0.000633919 -0.0211384 0)
(0.00140948 -0.0210756 0)
(0.00234005 -0.0205371 0)
(-0.000574213 -0.0178855 0)
(0.000768453 -0.018084 0)
(0.00032559 -0.0220382 0)
(-0.000618137 -0.0224387 0)
(0.00116193 -0.0228588 0)
(0.000683858 -0.0233079 0)
(0.000153833 -0.023671 0)
(-0.000674095 -0.0196751 0)
(-0.000514707 -0.0194513 0)
(-0.00222026 -0.0214596 0)
(-0.00203066 -0.0199113 0)
(-0.00207232 -0.0203287 0)
(-0.00228961 -0.0186958 0)
(-0.000926903 -0.0183244 0)
(-9.87645e-05 -0.0189652 0)
(0.00204754 -0.0179482 0)
(0.00379466 -0.0173093 0)
(0.00410844 -0.0125372 0)
(0.000891358 -0.0124368 0)
(9.46708e-05 -0.0190332 0)
(-0.000525834 -0.0162714 0)
(-0.00107493 -0.00973682 0)
(-0.000597746 -0.0119825 0)
(0.00153858 -0.0148106 0)
(0.00197275 -0.0130573 0)
(0.00168287 -0.0128685 0)
(-0.000230875 -0.0134862 0)
(-0.00229718 -0.0146276 0)
(-0.00269661 -0.0152011 0)
(-0.00205197 -0.0158548 0)
(-0.000693227 -0.0167965 0)
(-0.000387143 -0.0173874 0)
(-5.28345e-05 -0.0173472 0)
(0.000331905 -0.018119 0)
(0.00020715 -0.0207659 0)
(2.33006e-05 -0.0178369 0)
(-0.00113413 -0.0166006 0)
(-0.000545392 -0.0163003 0)
(-0.000351206 -0.0191482 0)
(0.00215733 -0.0184479 0)
(0.00138284 -0.0164413 0)
(0.00129464 -0.0128013 0)
(0.000756589 -0.0140393 0)
(-0.00351693 -0.0172626 0)
(-0.00146109 -0.016881 0)
(-0.00156512 -0.0161296 0)
(4.84086e-05 -0.0136752 0)
(-0.000785983 -0.0132506 0)
(0.000800023 -0.0141666 0)
(-0.000627182 -0.0135504 0)
(0.000701552 -0.015501 0)
(0.00257229 -0.0171736 0)
(-0.000116468 -0.0171405 0)
(-0.00121307 -0.0173693 0)
(0.00355604 -0.0186531 0)
(0.000408675 -0.0200485 0)
(0.000737498 -0.0244223 0)
(0.00120102 -0.0254053 0)
(0.00167889 -0.026157 0)
(0.00220561 -0.0267408 0)
(0.00428253 -0.0245725 0)
(0.000446803 -0.0240779 0)
(0.00177425 -0.0247643 0)
(0.00176387 -0.0246368 0)
(0.000732148 -0.0250511 0)
(-0.00120587 -0.0245677 0)
(-1.05987e-05 -0.0249836 0)
(-0.000433805 -0.0249023 0)
(-0.00046414 -0.0203582 0)
(-0.00236066 -0.0141944 0)
(-0.00492539 -0.0172397 0)
(-0.000337766 -0.0209292 0)
(0.000199983 -0.019847 0)
(0.00238561 -0.0196056 0)
(0.000556871 -0.0184357 0)
(0.00404146 -0.0168671 0)
(-0.000157522 -0.017834 0)
(-0.000331362 -0.0195631 0)
(-0.00180853 -0.0189993 0)
(0.000990697 -0.0179402 0)
(8.32073e-06 -0.0178078 0)
(-2.01689e-05 -0.0169326 0)
(0.000620048 -0.0160819 0)
(-0.00264564 -0.0168503 0)
(-0.00208027 -0.0178412 0)
(-0.00230233 -0.0171845 0)
(-0.00263846 -0.0175486 0)
(-0.0015631 -0.0177578 0)
(-0.000274652 -0.0184773 0)
(0.00090348 -0.017445 0)
(0.00125595 -0.0165544 0)
(0.00159237 -0.0161145 0)
(0.00187065 -0.0128331 0)
(0.00117506 -0.0106498 0)
(0.000304723 -0.0129806 0)
(0.00164066 -0.0126568 0)
(-0.000557323 -0.0102605 0)
(-0.00310873 -0.0114989 0)
(-0.000637194 -0.0130402 0)
(0.0012949 -0.0118339 0)
(0.00181648 -0.0103056 0)
(0.00168279 -0.0101336 0)
(0.000454541 -0.0113966 0)
(-0.00118933 -0.0140726 0)
(-0.00040843 -0.0162939 0)
(0.00064518 -0.0172741 0)
(0.000607346 -0.0178509 0)
(0.000139605 -0.0179718 0)
(0.000158337 -0.0184712 0)
(0.000194416 -0.020994 0)
(9.37188e-06 -0.0179468 0)
(0.000598336 -0.0181747 0)
(-0.000168737 -0.0187102 0)
(0.000126602 -0.022944 0)
(0.00131042 -0.0219411 0)
(0.00215645 -0.0200765 0)
(0.00283031 -0.0174102 0)
(-0.00135978 -0.0174086 0)
(-0.00364806 -0.0179372 0)
(-0.0018664 -0.0182827 0)
(-0.00299376 -0.0203984 0)
(-0.00338859 -0.0186382 0)
(9.25305e-05 -0.016148 0)
(0.00092857 -0.0156742 0)
(0.0019349 -0.0132239 0)
(0.00182758 -0.0135929 0)
(0.00165505 -0.0159247 0)
(0.00176972 -0.0162862 0)
(0.00221535 -0.0128372 0)
(0.00374316 -0.0129711 0)
(0.00202653 -0.0178373 0)
(0.000132022 -0.0196141 0)
(0.000548322 -0.0209494 0)
(0.00174804 -0.0216203 0)
(0.00225609 -0.021658 0)
(0.00294098 -0.0222397 0)
(0.00118341 -0.021852 0)
(0.00108157 -0.0197753 0)
(0.00052098 -0.019652 0)
(0.000634301 -0.0200572 0)
(0.000262512 -0.0184688 0)
(0.000563033 -0.0172058 0)
(0.000615333 -0.0164604 0)
(0.00335591 -0.018319 0)
(-0.00147939 -0.015628 0)
(-0.00579652 -0.0130674 0)
(-0.00361713 -0.0181706 0)
(-0.00185974 -0.0226776 0)
(0.000171784 -0.0235858 0)
(0.000865516 -0.0189955 0)
(0.00102 -0.0166691 0)
(-0.00038464 -0.0192959 0)
(-0.00056812 -0.0200513 0)
(-0.00039433 -0.0157154 0)
(-0.000643928 -0.0149508 0)
(-0.00154403 -0.0170156 0)
(4.53764e-05 -0.0157946 0)
(-0.000211478 -0.0166417 0)
(-0.00107142 -0.0175802 0)
(-0.000758494 -0.0194937 0)
(-0.00213424 -0.0194239 0)
(-0.00315356 -0.0185143 0)
(-0.00279433 -0.0164039 0)
(3.26947e-05 -0.0173948 0)
(0.00028483 -0.0178064 0)
(6.39405e-05 -0.0174975 0)
(-0.000117756 -0.0188494 0)
(2.57195e-05 -0.0163228 0)
(0.0012572 -0.0149454 0)
(0.00134607 -0.0159656 0)
(0.00124937 -0.0134117 0)
(0.000386827 -0.0123341 0)
(-0.00125776 -0.0126755 0)
(-0.0018019 -0.0129404 0)
(-0.0012516 -0.0125353 0)
(-0.000308815 -0.0122612 0)
(0.000997833 -0.0122985 0)
(0.00182349 -0.0135188 0)
(0.00159188 -0.016145 0)
(0.00127831 -0.0174965 0)
(0.00132666 -0.0177596 0)
(0.00106025 -0.01773 0)
(0.00061502 -0.0174445 0)
(7.05359e-05 -0.0183081 0)
(0.000164887 -0.0208382 0)
(-4.58208e-05 -0.017927 0)
(0.00213106 -0.0177644 0)
(-0.00114302 -0.0188828 0)
(-0.000585454 -0.0208318 0)
(-0.00119685 -0.019945 0)
(0.00145189 -0.0179535 0)
(0.00240016 -0.0183524 0)
(-0.000455193 -0.0200593 0)
(-0.00145633 -0.0165562 0)
(-0.00363202 -0.0180167 0)
(-0.00448682 -0.0229416 0)
(-0.00325127 -0.0182264 0)
(-0.00147956 -0.0179114 0)
(-0.000917952 -0.0189109 0)
(0.000362475 -0.0148718 0)
(0.00133155 -0.0150901 0)
(0.000808616 -0.0149213 0)
(0.00128887 -0.0123593 0)
(0.00317113 -0.00863532 0)
(0.00207622 -0.00680242 0)
(0.00245253 -0.00861855 0)
(0.00255591 -0.0104601 0)
(0.00206439 -0.0132534 0)
(0.00265426 -0.0161783 0)
(0.00343766 -0.0177625 0)
(0.00267322 -0.0176172 0)
(0.00141182 -0.0171806 0)
(-0.000191935 -0.0170284 0)
(-0.00184791 -0.0167047 0)
(-0.00153022 -0.0167419 0)
(-0.00025757 -0.0157247 0)
(0.00175122 -0.0158535 0)
(0.00255328 -0.0128224 0)
(0.0022915 -0.0134414 0)
(0.000452 -0.0166415 0)
(-0.00299839 -0.015274 0)
(-0.003755 -0.0178015 0)
(6.02477e-05 -0.020377 0)
(0.00136725 -0.0210529 0)
(0.00224128 -0.0190508 0)
(-0.00151301 -0.0172218 0)
(-0.00182841 -0.0168002 0)
(-0.00150196 -0.0166058 0)
(0.000519466 -0.0171975 0)
(-0.00226609 -0.017565 0)
(-0.00150475 -0.0165231 0)
(0.00209504 -0.0156924 0)
(0.000928599 -0.0179059 0)
(-0.00206824 -0.0173735 0)
(0.000219215 -0.0175452 0)
(-0.00195954 -0.0181256 0)
(-0.0020323 -0.0174433 0)
(-0.00272593 -0.0143584 0)
(-0.00134102 -0.0169383 0)
(0.000298195 -0.0201633 0)
(0.000512852 -0.0199763 0)
(0.000785364 -0.0214477 0)
(0.000261293 -0.0173868 0)
(-0.00154105 -0.0159978 0)
(-0.00153899 -0.0170414 0)
(-0.00190968 -0.0164537 0)
(-0.00215473 -0.0142402 0)
(-0.00149995 -0.0131684 0)
(-0.000993746 -0.0136817 0)
(4.4222e-05 -0.0139106 0)
(0.00144366 -0.0144825 0)
(0.00325093 -0.0158512 0)
(0.00381824 -0.0168344 0)
(0.00261439 -0.0181973 0)
(0.00138244 -0.0189082 0)
(0.000937062 -0.0187601 0)
(0.000764061 -0.0182411 0)
(0.000591841 -0.0178807 0)
(0.000148333 -0.0184579 0)
(0.000150116 -0.0210609 0)
(-4.86486e-05 -0.0179853 0)
(0.00119885 -0.0185911 0)
(0.000149874 -0.0203152 0)
(0.000681602 -0.0211581 0)
(0.00118737 -0.0175703 0)
(0.00121745 -0.0154714 0)
(0.0017514 -0.0190784 0)
(0.000349037 -0.021572 0)
(0.000829555 -0.0211426 0)
(-0.00410404 -0.0222669 0)
(-0.00486993 -0.022046 0)
(-0.000673858 -0.0199735 0)
(-0.00324814 -0.0221479 0)
(-0.000885481 -0.0232723 0)
(-0.000521857 -0.0192973 0)
(-0.000695222 -0.0203899 0)
(-0.00208744 -0.0229585 0)
(-0.00226727 -0.0225791 0)
(-0.00285159 -0.0198908 0)
(0.00194692 -0.0181665 0)
(0.00357448 -0.0191757 0)
(0.00486607 -0.0195451 0)
(0.0046801 -0.019154 0)
(0.00331406 -0.0159328 0)
(0.00385869 -0.014735 0)
(0.00310508 -0.0153887 0)
(0.000334374 -0.0151851 0)
(-0.00134223 -0.0138363 0)
(-0.00127094 -0.0139904 0)
(-0.00100131 -0.0146311 0)
(0.00104752 -0.0136322 0)
(0.00152878 -0.0128184 0)
(0.00376724 -0.0114823 0)
(0.000445896 -0.0123472 0)
(-0.00119321 -0.0142709 0)
(-0.00196202 -0.0158336 0)
(-0.000296784 -0.0175121 0)
(0.000536039 -0.0185504 0)
(-0.000276118 -0.0206466 0)
(-0.0010771 -0.0193574 0)
(-0.0021877 -0.0177345 0)
(-0.00244083 -0.0169457 0)
(-0.000954734 -0.0173073 0)
(-0.00084573 -0.0185647 0)
(0.000130104 -0.020626 0)
(0.00122534 -0.0173838 0)
(0.00104234 -0.0162825 0)
(0.000718333 -0.0201377 0)
(-0.000622706 -0.0155271 0)
(-0.00236112 -0.0126824 0)
(-0.00368196 -0.0144587 0)
(8.25736e-05 -0.0157071 0)
(4.23418e-05 -0.0166552 0)
(-0.002337 -0.0172534 0)
(-0.000404368 -0.0168724 0)
(-0.000563516 -0.0169331 0)
(0.00030388 -0.0160723 0)
(0.000994722 -0.0138243 0)
(-0.00167208 -0.0146163 0)
(-0.00199393 -0.018313 0)
(-0.00154548 -0.0195301 0)
(-0.0018519 -0.0195375 0)
(-0.00256194 -0.019207 0)
(-0.00208008 -0.018296 0)
(-0.000713264 -0.0178658 0)
(0.001855 -0.0180073 0)
(0.00386687 -0.0181317 0)
(0.00421854 -0.0181183 0)
(0.00339501 -0.0181169 0)
(0.00167029 -0.0182285 0)
(0.00116606 -0.0182399 0)
(0.000939588 -0.0179199 0)
(0.000787804 -0.0175854 0)
(0.000198239 -0.0182629 0)
(0.000153016 -0.0208763 0)
(-0.0001107 -0.0179572 0)
(0.0015849 -0.0216197 0)
(0.0010101 -0.0219243 0)
(0.00108453 -0.0210761 0)
(0.00284589 -0.0193856 0)
(0.00169204 -0.0172252 0)
(-0.000622564 -0.0170541 0)
(-0.00170196 -0.0183093 0)
(5.57764e-05 -0.017729 0)
(-0.00220838 -0.0194867 0)
(-0.00285034 -0.0159914 0)
(-0.00355198 -0.0161745 0)
(-0.00291828 -0.0199891 0)
(-4.68164e-06 -0.017911 0)
(0.0016331 -0.015093 0)
(0.000111248 -0.016548 0)
(-0.000573153 -0.0203196 0)
(-0.00136508 -0.0217716 0)
(-0.000293148 -0.0213789 0)
(0.000928828 -0.0208202 0)
(0.000855078 -0.0243264 0)
(0.000416332 -0.0220922 0)
(0.00365691 -0.0187119 0)
(0.00468722 -0.0135815 0)
(0.000797663 -0.00933841 0)
(-0.00109337 -0.0105928 0)
(-0.000851756 -0.0127109 0)
(-0.00265462 -0.0137721 0)
(-0.00277611 -0.0150711 0)
(-0.00177409 -0.014843 0)
(0.000170882 -0.0143128 0)
(0.000849155 -0.0130193 0)
(0.00252748 -0.0107567 0)
(0.00232798 -0.0109139 0)
(0.00171751 -0.0123433 0)
(0.00124522 -0.0144011 0)
(0.00157425 -0.0155963 0)
(0.000386337 -0.0156311 0)
(0.00054427 -0.0160597 0)
(-0.00203706 -0.0149892 0)
(-0.00265342 -0.0149164 0)
(-0.00234607 -0.0150196 0)
(-0.000173845 -0.016595 0)
(0.000618822 -0.0178595 0)
(0.00209472 -0.0181981 0)
(0.00330128 -0.0182155 0)
(-9.02434e-05 -0.0181547 0)