/*--------------------------------*- C++ -*----------------------------------*\
  =========                 |
  \\      /  F ield         | OpenFOAM: The Open Source CFD Toolbox
   \\    /   O peration     | Website:  https://openfoam.org
    \\  /    A nd           | Version:  12
     \\/     M anipulation  |
\*---------------------------------------------------------------------------*/
FoamFile
{
    format      ascii;
    class       IOPosition;
    location    "0.35/lagrangian/cloud";
    object      positions;
}
// * * * * * * * * * * * * * * * * * * * * * * * * * * * * * * * * * * * * * //

2912
(
(0.276533 0.361733 0.0797424 0.281991) 0 1 2
(0.0864802 0.45676 0.257358 0.199402) 0 0 1
(0.410833 0.294584 0.229654 0.0649294) 1 2 1
(0.495346 0.133677 0.252327 0.118649) 2 7377 2
(0.439264 0.240968 0.280368 0.0394002) 3 7378 2
(0.480498 0.0946508 0.259751 0.1651) 4 7379 2
(0.637527 0.0459699 0.135266 0.181236) 6 10 2
(0.243702 0.220198 0.157951 0.378149) 7 15 1
(0.263416 0.0801495 0.288143 0.368292) 8 17 1
(0.275086 0.00348723 0.35897 0.362457) 9 19 1
(0.27719 0.00589387 0.361405 0.355511) 10 20 2
(0.296352 0.053784 0.29804 0.351824) 11 23 1
(0.281827 0.149562 0.209524 0.359087) 12 25 1
(0.454434 0.272783 0.215726 0.0570566) 13 7388 1
(0.0329741 0.483513 0.291307 0.192206) 14 26 1
(0.402973 0.298513 0.25549 0.0430231) 14 28 1
(0.224166 0.105944 0.281973 0.387917) 15 31 1
(0.225311 0.0956993 0.291645 0.387344) 16 33 1
(0.300181 0.233844 0.116065 0.34991) 17 35 1
(0.386192 0.306904 0.195466 0.111438) 18 37 2
(0.250298 0.101279 0.273572 0.374851) 19 36 2
(0.242985 0.304067 0.378507 0.0744407) 19 38 2
(0.472774 0.134837 0.263613 0.128776) 20 7395 2
(0.429398 0.245158 0.285301 0.0401426) 21 7396 2
(0.404625 0.255148 0.297688 0.0425391) 22 7397 2
(0.420055 0.123121 0.289972 0.166851) 23 7398 2
(0.213457 0.351363 0.0419085 0.393272) 24 49 1
(0.252352 0.26237 0.111454 0.373824) 25 51 1
(0.19925 0.11852 0.281855 0.400375) 26 53 1
(0.23519 0.087692 0.294713 0.382405) 27 55 1
(0.284845 0.128465 0.229112 0.357577) 28 57 1
(0.335836 0.280281 0.0518012 0.332082) 29 59 1
(0.39789 0.301055 0.0874828 0.213572) 30 61 2
(0.337694 0.147405 0.183748 0.331153) 31 60 2
(0.148477 0.425762 0.148871 0.276891) 32 62 1
(0.117456 0.441272 0.251328 0.189944) 32 64 1
(0.290808 0.354596 0.283459 0.0711371) 33 66 1
(0.277054 0.361473 0.281664 0.0798091) 34 68 1
(0.586432 0.206784 0.107486 0.0992985) 36 7411 1
(0.235192 0.382404 0.0608214 0.321583) 37 74 1
(0.213552 0.0533609 0.339863 0.393224) 38 77 1
(0.331038 0.0132234 0.334481 0.321258) 39 78 2
(0.393114 0.234556 0.303443 0.0688872) 40 80 2
(0.288745 0.355628 0.260641 0.0949869) 41 82 1
(0.0472399 0.47638 0.151983 0.324397) 43 84 1
(0.3569 0.32155 0.271277 0.0502737) 44 7419 1
(0.582083 0.0478165 0.208959 0.161142) 45 7420 2
(0.231447 0.348338 0.0359383 0.384276) 46 93 1
(0.402148 0.298926 0.250519 0.0484072) 47 95 2
(0.159123 0.420438 0.229402 0.191037) 48 96 1
(0.134017 0.432991 0.224893 0.208098) 49 99 2
(0.34345 0.0689148 0.25936 0.328275) 50 98 2
(0.0178975 0.390277 0.100774 0.491051) 51 100 2
(0.116374 0.441813 0.208406 0.233407) 51 102 1
(0.348803 0.255095 0.0705032 0.325598) 52 105 1
(0.521816 0.239092 0.228511 0.0105806) 53 107 2
(0.53258 0.23371 0.1092 0.12451) 54 109 2
(0.448215 0.275892 0.170409 0.105484) 55 111 2
(0.410296 0.294852 0.209129 0.085723) 56 113 2
(0.437517 0.281242 0.164164 0.117078) 57 114 1
(0.177526 0.411237 0.125559 0.285678) 59 116 1
(0.385283 0.307358 0.00589248 0.301466) 60 118 1
(0.643616 0.084482 0.178192 0.0937102) 61 7436 2
(0.0329058 0.113823 0.369724 0.483547) 63 124 2
(0.173166 0.000124642 0.413417 0.413293) 63 126 2
(0.0486407 0.47568 0.347886 0.127793) 75 149 1
(0.247259 0.376371 0.295739 0.0806316) 77 5 2
(0.241425 0.379288 0.211692 0.167596) 78 7 2
(0.486794 0.0395907 0.256603 0.217012) 78 155 2
(0.532173 0.233913 0.0832528 0.150661) 79 158 2
(0.121419 0.236537 0.202753 0.43929) 80 157 2
(0.241795 0.033986 0.345117 0.379103) 81 159 2
(0.213006 0.0391544 0.354342 0.393497) 82 161 2
(0.268335 0.0342291 0.331604 0.365833) 83 163 2
(0.353905 0.169021 0.154027 0.323048) 84 168 1
(0.29436 0.35282 0.210103 0.142718) 86 172 2
(0.614171 0.192914 0.106511 0.0864029) 87 174 2
(0.238921 0.320475 0.380539 0.0600642) 162 174 1
(0.28834 0.35583 0.0651801 0.29065) 88 176 2
(0.0562656 0.121586 0.471867 0.350281) 88 175 2
(0.290873 0.0882501 0.266313 0.354564) 89 178 1
(0.305692 0.286161 0.0609923 0.347154) 90 180 1
(0.295153 0.352423 0.213557 0.138867) 93 183 1
(0.430428 0.284786 0.0465533 0.238233) 94 185 1
(0.332897 0.333552 0.280159 0.0533928) 95 41 2
(0.239856 0.380072 0.0382189 0.341853) 96 189 1
(0.160189 0.419905 0.0775985 0.342307) 97 191 1
(0.782011 0.0708119 0.108994 0.0381825) 97 193 2
(0.204056 0.016916 0.381056 0.397972) 98 193 2
(0.187857 0.377502 0.0285695 0.406071) 98 196 1
(0.222576 0.388712 0.0478601 0.340852) 99 198 2
(0.143828 0.066767 0.428086 0.361319) 99 197 2
(0.256261 0.0568139 0.315056 0.37187) 100 200 1
(0.230787 0.0795097 0.305097 0.384606) 101 202 1
(0.294066 0.0476665 0.352967 0.3053) 102 203 2
(0.461678 0.269161 0.0878659 0.181295) 105 61 2
(0.318741 0.340629 0.0264529 0.314177) 106 63 2
(0.267529 0.366236 0.0640656 0.30217) 107 65 2
(0.248585 0.375707 0.0437824 0.331925) 108 67 2
(0.235301 0.27389 0.38235 0.10846) 109 69 1
(0.17185 0.0701653 0.414075 0.34391) 110 71 1
(0.172628 0.0310967 0.382589 0.413686) 111 219 2
(0.192238 0.11849 0.285391 0.403881) 111 222 1
(0.247928 0.121146 0.25489 0.376036) 112 224 1
(0.138849 0.430576 0.190761 0.239814) 115 227 1
(0.236503 0.381749 0.315574 0.0661747) 116 83 2
(0.0119081 0.349305 0.144741 0.494046) 42 85 1
(0.295286 0.144297 0.20806 0.352357) 116 232 1
(0.198878 0.400561 0.101296 0.299265) 117 234 2
(0.3437 0.0954021 0.232748 0.32815) 117 234 1
(0.312228 0.343886 0.0879427 0.255943) 118 236 2
(0.235961 0.0429348 0.382019 0.339085) 118 235 2
(0.332718 0.176005 0.157636 0.333641) 119 238 1
(0.275225 0.344958 0.0174291 0.362387) 120 240 1
(0.533657 0.233171 0.0306412 0.20253) 122 244 2
(0.494659 0.25267 0.147825 0.104846) 124 245 1
(0.422833 0.288584 0.187076 0.101507) 125 101 2
(0.272467 0.363767 0.0110136 0.352753) 126 103 2
(0.137542 0.431229 0.303108 0.128121) 127 253 1
(0.174399 0.4128 0.119437 0.293364) 129 255 1
(0.382421 0.308789 0.292518 0.0162715) 130 111 2
(0.446909 0.276546 0.247031 0.0295149) 131 113 2
(0.150659 0.424671 0.0752236 0.349447) 132 115 2
(0.305713 0.029214 0.347143 0.317929) 132 115 1
(0.0723052 0.371576 0.0922717 0.463847) 132 264 1
(0.0214085 0.489296 0.103197 0.386098) 133 266 2
(0.290219 0.128397 0.354891 0.226493) 150 150 1
(0.31983 0.142705 0.340085 0.19738) 151 152 1
(0.0220895 0.0677701 0.421185 0.488955) 152 300 2
(0.129434 0.163038 0.435283 0.272245) 152 302 2
(0.389287 0.0189552 0.305357 0.286401) 153 304 2
(0.24971 0.375145 0.154905 0.22024) 154 306 1
(0.502135 0.012835 0.248932 0.236097) 155 308 2
(0.0190452 0.296089 0.194388 0.490477) 157 310 2
(0.0471688 0.234983 0.476416 0.241433) 157 312 2
(0.336268 0.0809402 0.250926 0.331866) 158 315 1
(0.323435 0.227608 0.110674 0.338282) 159 317 1
(0.266519 0.275973 0.0907677 0.36674) 160 319 1
(0.111448 0.444276 0.00967616 0.4346) 162 323 2
(0.0308854 0.0851908 0.484557 0.399367) 162 322 2
(0.226955 0.0195411 0.386523 0.366982) 163 324 2
(0.454443 0.272778 0.266068 0.0067106) 165 328 1
(0.293824 0.175399 0.353088 0.177689) 166 182 1
(0.19032 0.0997291 0.40484 0.305111) 167 184 1
(0.1492 0.0505798 0.37482 0.4254) 168 332 2
(0.118788 0.253209 0.187397 0.440606) 168 335 1
(0.199441 0.348616 0.0516636 0.400279) 169 337 1
(0.383395 0.0471673 0.308302 0.261135) 170 338 2
(0.114181 0.172622 0.442909 0.270288) 171 340 2
(0.315366 0.342317 0.107002 0.235315) 173 345 2
(0.368752 0.315624 0.014005 0.301619) 174 347 2
(0.244939 0.377531 0.109356 0.268175) 175 349 2
(0.221221 0.38939 0.274192 0.115198) 176 351 2
(0.423182 0.288409 0.175723 0.112686) 177 352 1
(0.268124 0.079393 0.365938 0.286545) 178 206 1
(0.244572 0.0721046 0.377714 0.305609) 179 208 1
(0.21842 0.0271831 0.39079 0.363607) 180 210 1
(0.145518 0.427241 0.392621 0.0346203) 181 360 1
(0.0741347 0.462933 0.37716 0.0857726) 182 362 1
(0.0213248 0.489338 0.336787 0.15255) 183 364 1
(0.169447 0.415277 0.342343 0.0729335) 184 367 2
(0.249351 0.375325 0.0968515 0.278473) 185 369 2
(0.0610279 0.075857 0.393629 0.469486) 186 368 2
(0.219001 0.175998 0.214501 0.390499) 186 371 1
(0.213587 0.393206 0.335148 0.0580586) 187 373 2
(0.266974 0.366513 0.0204918 0.346021) 188 375 2
(0.12229 0.0849049 0.438855 0.35395) 188 374 2
(0.258606 0.0586351 0.312062 0.370697) 189 377 1
(0.198043 0.0424 0.358579 0.400979) 190 379 1
(0.20767 0.396165 0.207046 0.189119) 192 383 2
(0.311066 0.344467 0.0358775 0.30859) 193 385 2
(0.300781 0.112847 0.236762 0.349609) 194 384 2
(0.475665 0.262168 0.127663 0.134504) 195 389 2
(0.546449 0.0410962 0.185679 0.226775) 196 391 1
(0.25766 0.189093 0.182077 0.37117) 197 393 1
(0.435535 0.0599023 0.22233 0.282232) 198 395 1
(0.272668 0.363666 0.339163 0.024503) 199 396 1
(0.264927 0.00660436 0.367536 0.360932) 200 250 1
(0.293528 0.126827 0.353236 0.226409) 201 252 1
(0.308756 0.254406 0.345622 0.0912157) 202 254 1
(0.091 0.0438454 0.4545 0.410655) 202 402 2
(0.370354 0.266773 0.0480499 0.314823) 203 405 1
(0.215378 0.392311 0.233243 0.159068) 204 258 2
(0.297399 0.3513 0.345992 0.00530836) 205 260 2
(0.201206 0.399397 0.110989 0.288408) 206 408 1
(0.271153 0.364424 0.317859 0.0465647) 225 447 1
(0.0626746 0.468663 0.0550126 0.41365) 226 450 2
(0.282491 0.120503 0.238252 0.358754) 226 450 1
(0.694686 0.152657 0.061051 0.091606) 227 451 1
(0.341265 0.329368 0.239596 0.089772) 228 453 1
(0.294613 0.352693 0.327584 0.0251096) 229 455 1
(0.110778 0.444611 0.13214 0.312471) 231 457 1
(0.360732 0.319634 0.10399 0.215644) 232 459 1
(0.226114 0.186024 0.200919 0.386943) 232 462 1
(0.303679 0.34816 0.0661797 0.281981) 233 464 2
(0.000218001 0.146353 0.499891 0.353538) 233 463 2
(0.0278085 0.13238 0.486096 0.353716) 234 465 2
(0.177383 0.0503465 0.360962 0.411308) 236 467 2
(0.285511 0.357245 0.126608 0.230637) 237 472 2
(0.309237 0.345381 0.271823 0.073558) 238 474 2
(0.299741 0.350129 0.339887 0.0102421) 239 475 1
(0.154954 0.422523 0.356945 0.0655775) 240 477 1
(0.211437 0.394281 0.280948 0.113334) 241 479 1
(0.28865 0.0288482 0.326827 0.355675) 242 482 1
(0.191323 0.0607214 0.404338 0.343617) 243 483 2
(0.640695 0.174299 0.179652 0.00535315) 245 339 1
(0.332426 0.333787 0.101484 0.232303) 246 489 1
(0.178014 0.410993 0.11258 0.298413) 247 491 1
(0.179533 0.410234 0.272543 0.13769) 249 493 1
(0.330674 0.105171 0.229492 0.334663) 250 495 2
(0.395519 0.302241 0.186704 0.115536) 251 500 2
(0.333442 0.300237 0.333279 0.0330414) 252 353 1
(0.241311 0.288299 0.379344 0.091045) 253 355 1
(0.246654 0.309184 0.376673 0.0674893) 254 357 1
(0.274149 0.344474 0.362926 0.0184514) 255 359 1
(0.266467 0.366766 0.0486307 0.318136) 256 361 2
(0.358793 0.320603 0.226836 0.0937676) 257 363 2
(0.15978 0.0684383 0.351672 0.42011) 257 512 1
(0.201475 0.310647 0.0886157 0.399262) 258 514 1
(0.222628 0.388686 0.21021 0.178476) 259 516 2
(0.207692 0.0352557 0.360898 0.396154) 260 515 2
(0.249469 0.375266 0.00755444 0.367711) 261 520 2
(0.0812481 0.0717838 0.459376 0.387592) 261 519 2
(0.214511 0.00862266 0.392745 0.384122) 262 521 2
(0.0611258 0.0604533 0.408984 0.469437) 264 523 2
(0.057712 0.171156 0.471144 0.299988) 264 525 2
(0.0347037 0.255209 0.227439 0.482648) 266 527 2
(0.294222 0.352889 0.167387 0.185502) 267 532 2
(0.240052 0.263598 0.116376 0.379974) 268 531 2
(0.0684645 0.465768 0.206148 0.25962) 269 533 1
(0.34177 0.329115 0.0256355 0.303479) 270 535 1
(0.324021 0.337989 0.245305 0.0926842) 271 391 2
(0.299964 0.350018 0.272117 0.0779011) 272 542 2
(0.257395 0.371303 0.337932 0.033371) 273 544 2
(0.295042 0.289816 0.0626625 0.352479) 274 546 1
(0.255455 0.320979 0.0512939 0.372273) 275 548 1
(0.245341 0.377329 0.359748 0.0175813) 276 550 2
(0.240718 0.379641 0.34151 0.0381306) 277 552 2
(0.2494 0.3753 0.0962091 0.279091) 278 554 2
(0.125627 0.437186 0.260752 0.176434) 278 553 1
(0.316429 0.177936 0.341785 0.16385) 279 407 1
(0.376636 0.311682 0.111457 0.200225) 280 409 2
(0.329524 0.335238 0.276967 0.0582708) 281 411 2
(0.184273 0.407863 0.113506 0.294357) 375 597 2
(0.180291 0.409855 0.123501 0.286353) 301 599 2
(0.0957752 0.452112 0.234095 0.218017) 302 598 1
(0.22597 0.387015 0.326371 0.0606442) 302 600 1
(0.326708 0.140589 0.336646 0.196058) 303 454 1
(0.294454 0.212798 0.352773 0.139975) 304 456 1
(0.238283 0.380859 0.203658 0.177201) 305 607 2
(0.176115 0.075651 0.336291 0.411942) 306 606 2
(0.0510512 0.169072 0.305402 0.474474) 307 608 2
(0.482012 0.258994 0.258835 0.000159233) 308 613 2
(0.445464 0.205335 0.0719334 0.277268) 309 615 1
(0.0165889 0.225934 0.491706 0.265772) 310 616 2
(0.500629 0.249686 0.0551687 0.194517) 312 621 2
(0.343259 0.328371 0.167061 0.161309) 313 622 1
(0.687864 0.0842462 0.0718216 0.156068) 315 624 2
(0.683357 0.120626 0.0376956 0.158322) 316 629 1
(0.610223 0.194888 0.166493 0.0283956) 317 482 2
(0.0945655 0.452717 0.437407 0.0153107) 318 630 1
(0.497992 0.251004 0.038692 0.212312) 319 632 1
(0.270723 0.364638 0.189977 0.174661) 320 488 2
(0.290438 0.237613 0.354781 0.117168) 321 490 1
(0.284901 0.0687002 0.357549 0.288849) 322 492 1
(0.085532 0.457234 0.360625 0.0966086) 323 642 1
(0.531032 0.234484 0.188376 0.0461078) 325 498 2
(0.273229 0.363386 0.224633 0.138753) 326 649 2
(0.281021 0.359489 0.230869 0.12862) 327 651 2
(0.294105 0.352947 0.166819 0.186129) 328 653 2
(0.29387 0.353065 0.0836547 0.26941) 329 655 2
(0.00551878 0.144153 0.353088 0.497241) 330 654 2
(0.231264 0.138246 0.246122 0.384368) 330 657 1
(0.297735 0.302856 0.0482764 0.351132) 331 659 1
(0.257423 0.371289 0.227585 0.143703) 332 661 2
(0.208927 0.395536 0.0942215 0.301315) 333 663 2
(0.197768 0.025594 0.375522 0.401116) 334 662 2
(0.625783 0.187108 0.0168156 0.170293) 335 518 2
(0.535985 0.0131902 0.218817 0.232007) 336 669 1
(0.000209124 0.122233 0.377662 0.499895) 338 670 2
(0.232028 0.383986 0.0508349 0.333151) 339 675 2
(0.266279 0.36686 0.141862 0.224998) 340 677 2
(0.378068 0.310966 0.293626 0.01734) 341 676 1
(0.122268 0.185383 0.253483 0.438866) 342 678 2
(0.126398 0.0467335 0.390068 0.436801) 343 680 2
(0.138071 0.430965 0.114721 0.316243) 344 685 2
(0.208876 0.395562 0.370927 0.0246353) 344 684 1
(0.316814 0.0715028 0.341593 0.27009) 345 538 1
(0.285922 0.224582 0.357039 0.132458) 346 540 1
(0.649854 0.175073 0.142026 0.0330466) 347 691 2
(0.394477 0.302762 0.0889335 0.213828) 348 693 2
(0.311155 0.344423 0.0941484 0.250274) 349 695 2
(0.239601 0.3802 0.134598 0.245601) 350 697 2
(0.163141 0.216841 0.418429 0.201589) 426 699 1
(0.301564 0.337321 0.349218 0.0118965) 427 701 1
(0.264743 0.367628 0.203237 0.164392) 353 703 2
(0.356729 0.321635 0.314835 0.00680035) 354 556 2
(0.0139406 0.49303 0.282525 0.210505) 354 704 1
(0.518114 0.240943 0.203216 0.0377271) 355 706 1
(0.362153 0.284083 0.318923 0.0348399) 356 560 1
(0.15227 0.193834 0.230031 0.423865) 375 746 1
(0.190793 0.286081 0.118522 0.404604) 376 748 1
(0.195712 0.257528 0.144616 0.402144) 377 750 1
(0.287083 0.356459 0.193747 0.162711) 378 603 2
(0.304649 0.347675 0.331192 0.0164834) 379 605 2
(0.269697 0.0587878 0.306364 0.365152) 380 753 2
(0.130654 0.117944 0.434673 0.316729) 380 755 2
(0.668972 0.0368477 0.165514 0.128666) 381 609 1
(0.391953 0.174188 0.304024 0.129836) 382 611 1
(0.461636 0.0186477 0.269182 0.250534) 383 613 1
(0.281237 0.359382 0.241858 0.117524) 385 617 2
(0.314526 0.200545 0.342737 0.142192) 386 619 1
(0.196419 0.40179 0.0372568 0.364533) 388 769 1
(0.218091 0.390954 0.247028 0.143927) 389 625 2
(0.456356 0.271822 0.169209 0.102613) 390 627 2
(0.443485 0.0844091 0.278257 0.193848) 391 629 1
(0.339373 0.330313 0.323345 0.00696823) 392 779 1
(0.0298231 0.485088 0.111501 0.373588) 394 781 1
(0.184845 0.407577 0.0247602 0.382817) 395 783 1
(0.142909 0.428546 0.0623343 0.366211) 396 785 1
(0.01277 0.493615 0.368007 0.125608) 396 787 1
(0.0528348 0.473583 0.377792 0.0957909) 397 789 1
(0.199758 0.400121 0.372857 0.0272637) 399 645 2
(0.249337 0.375332 0.212624 0.162708) 400 647 2
(0.0257815 0.110102 0.377007 0.487109) 401 795 2
(0.125408 0.0813351 0.437296 0.355961) 401 797 2
(0.282172 0.0342188 0.324695 0.358914) 402 800 1
(0.262071 0.182126 0.186839 0.368964) 403 802 1
(0.244317 0.330319 0.0475222 0.377841) 404 804 1
(0.155074 0.422463 0.289789 0.132674) 405 806 2
(0.222721 0.38864 0.151472 0.237167) 406 808 2
(0.247447 0.376277 0.0431794 0.333097) 407 810 2
(0.223057 0.0698447 0.318627 0.388472) 408 809 2
(0.419571 0.290215 0.193387 0.0968271) 409 811 1
(0.366208 0.316896 0.299727 0.0171691) 410 667 2
(0.0524782 0.473761 0.287171 0.18659) 411 815 1
(0.106723 0.446638 0.0436812 0.402957) 411 817 1
(0.478581 0.154973 0.105737 0.26071) 413 819 2
(0.424063 0.273911 0.0140577 0.287969) 414 824 1
(0.269864 0.365068 0.356096 0.00897175) 415 826 2
(0.282462 0.358769 0.312558 0.0462111) 416 828 2
(0.239915 0.380042 0.324619 0.0554238) 417 830 2
(0.23274 0.38363 0.363448 0.0201821) 418 832 2
(0.2523 0.338786 0.0350635 0.37385) 419 834 1
(0.747878 0.108346 0.0177152 0.126061) 420 836 1
(0.299928 0.350036 0.0317546 0.318281) 421 689 2
(0.395908 0.302046 0.146594 0.155452) 422 691 2
(0.723038 0.138481 0.0111219 0.127359) 423 839 1
(0.241721 0.379139 0.0608307 0.318309) 424 844 2
(0.230789 0.384606 0.0786003 0.306005) 425 846 2
(0.115246 0.438694 0.00368343 0.442377) 426 848 1
(0.281163 0.359418 0.0337501 0.325668) 502 850 2
(0.125293 0.437354 0.172763 0.264591) 428 852 2
(0.195682 0.402159 0.0310063 0.371153) 504 1000 1
(0.160819 0.41959 0.0303041 0.389286) 505 1002 1
(0.0612986 0.469351 0.0495421 0.419809) 431 858 2
(0.300742 0.349629 0.302242 0.0473877) 431 857 1
(0.20349 0.0811642 0.317091 0.398255) 450 895 1
(0.0473768 0.0664432 0.476312 0.409868) 451 896 2
(0.388437 0.177272 0.12851 0.305782) 453 898 2
(0.345596 0.327202 0.213437 0.113765) 454 754 2
(0.421457 0.289271 0.201006 0.0882656) 455 902 1
(0.303819 0.20257 0.14552 0.34809) 456 904 2
(0.267062 0.366469 0.249753 0.116716) 457 760 2
(0.263877 0.368062 0.218339 0.149722) 458 762 2
(0.181747 0.409126 0.249014 0.160112) 459 764 2
(0.162149 0.418925 0.280238 0.138687) 460 766 2
(0.160824 0.419588 0.241752 0.177836) 461 768 2
(0.141756 0.429122 0.090051 0.339071) 462 770 2
(0.151655 0.284049 0.424172 0.140123) 463 772 1
(0.083548 0.458226 0.181332 0.276894) 465 922 1
(0.225789 0.387105 0.243979 0.143126) 466 778 2
(0.265417 0.367292 0.110927 0.256365) 467 780 2
(0.263817 0.368092 0.102064 0.266028) 468 782 2
(0.248736 0.375632 0.179725 0.195907) 469 784 2
(0.277339 0.361331 0.344399 0.0169321) 470 786 2
(0.0720873 0.463956 0.377273 0.0866831) 470 934 1
(0.29072 0.0957696 0.35464 0.25887) 471 788 1
(0.221447 0.285071 0.389276 0.104205) 472 790 1
(0.252024 0.373988 0.0159588 0.358029) 473 792 2
(0.453563 0.273219 0.051631 0.221588) 474 940 1
(0.244075 0.0576671 0.320295 0.377962) 474 943 1
(0.260304 0.223544 0.146304 0.369848) 475 945 1
(0.249967 0.261828 0.113189 0.375017) 476 947 1
(0.247765 0.174402 0.201716 0.376118) 477 949 1
(0.231791 0.079736 0.304369 0.384105) 478 951 1
(0.191453 0.0230869 0.381187 0.404273) 479 953 1
(0.13077 0.0154206 0.434615 0.419194) 480 954 2
(0.0143179 0.080465 0.412376 0.492841) 482 956 2
(0.0137075 0.161913 0.493146 0.331233) 482 958 2
(0.34399 0.00476965 0.328005 0.323235) 483 960 2
(0.533253 0.233374 0.0969945 0.136379) 484 962 1
(0.34998 0.153586 0.32501 0.171424) 485 816 1
(0.363168 0.142108 0.318416 0.176308) 486 818 1
(0.138955 0.430522 0.342325 0.0881976) 487 968 1
(0.158227 0.420886 0.128155 0.292732) 489 970 1
(0.273401 0.0502269 0.313073 0.3633) 489 973 1
(0.309808 0.10096 0.244136 0.345096) 490 975 1
(0.27087 0.155417 0.209148 0.364565) 491 977 1
(0.250806 0.0663794 0.308218 0.374597) 492 979 1
(0.180007 0.0285393 0.381457 0.409996) 494 980 2
(0.324875 0.337562 0.123687 0.213875) 495 985 2
(0.29874 0.35063 0.139325 0.211305) 496 838 2
(0.302675 0.348662 0.209114 0.139548) 497 840 2
(0.261671 0.369164 0.0698595 0.299305) 498 988 1
(0.220152 0.0836121 0.306312 0.389924) 498 991 1
(0.266052 0.219227 0.147747 0.366974) 499 993 1
(0.262812 0.326457 0.0421371 0.368594) 500 995 1
(0.208483 0.330698 0.06506 0.395758) 501 997 1
(0.0679987 0.0856736 0.380327 0.466001) 502 999 1
(0.106582 0.446709 0.386794 0.0599146) 578 1149 1
(0.198547 0.400726 0.354535 0.0461914) 580 1005 2
(0.0408456 0.110521 0.369057 0.479577) 506 1004 2
(0.180703 0.409649 0.0901473 0.319501) 507 1006 1
(0.314359 0.0689318 0.273889 0.342821) 525 1044 1
(0.279065 0.00722288 0.353244 0.360467) 527 1045 2
(0.278726 0.360637 0.169224 0.191413) 528 1047 1
(0.331283 0.334359 0.158365 0.175993) 529 903 2
(0.608669 0.195665 0.00995511 0.18571) 530 905 2
(0.256982 0.055077 0.371509 0.316432) 531 907 1
(0.237422 0.0403338 0.381289 0.340955) 532 909 1
(0.284447 0.115302 0.357776 0.242474) 533 911 1
(0.196386 0.260558 0.401807 0.141249) 534 913 1
(0.207576 0.366732 0.396212 0.0294802) 535 915 1
(0.173271 0.413365 0.0602817 0.353083) 536 917 2
(0.15457 0.422715 0.0541938 0.368521) 537 919 2
(0.0740001 0.38412 0.463 0.0788799) 538 921 1
(0.225216 0.360392 0.387392 0.0270001) 539 923 1
(0.302026 0.348987 0.123047 0.22594) 540 1074 2
(0.189355 0.064689 0.340633 0.405322) 541 1073 2
(0.0452802 0.12098 0.47736 0.356379) 541 1075 2
(0.253702 0.312488 0.373149 0.0606615) 543 931 1
(0.319188 0.340406 0.0425372 0.297869) 544 933 2
(0.279823 0.360088 0.279526 0.0805628) 545 935 2
(0.109537 0.445231 0.399477 0.0457538) 545 1083 1
(0.254014 0.253343 0.372993 0.11965) 546 937 1
(0.232224 0.383888 0.173637 0.210251) 547 939 2
(0.0215338 0.489233 0.351962 0.137271) 547 1087 1
(0.680235 0.159882 0.142346 0.0175368) 548 1089 1
(0.311453 0.344274 0.104642 0.239631) 549 1092 2
(0.254837 0.372582 0.137043 0.235538) 550 1094 2
(0.243716 0.378142 0.103102 0.27504) 551 1096 2
(0.262197 0.368902 0.222385 0.146516) 552 1098 2
(0.296461 0.156086 0.195684 0.351769) 553 1100 1
(0.144733 0.0389407 0.427633 0.388693) 554 1101 2
(0.204004 0.397998 0.0257009 0.372297) 556 1106 2
(0.205235 0.397383 0.294272 0.103111) 557 1108 2
(0.217867 0.304815 0.0862512 0.391066) 558 1110 1
(0.54213 0.0903725 0.228935 0.138563) 559 963 1
(0.335396 0.292852 0.332302 0.0394497) 560 965 1
(0.337831 0.331084 0.093112 0.237972) 561 967 2
(0.318624 0.340688 0.235532 0.105156) 562 969 2
(0.26787 0.366065 0.341976 0.0240888) 563 971 2
(0.463336 0.113314 0.155018 0.268332) 564 1119 2
(0.232627 0.178199 0.205488 0.383686) 565 1121 2
(0.0405919 0.284488 0.479704 0.195216) 565 1123 2
(0.418187 0.157005 0.133901 0.290906) 567 1125 2
(0.141315 0.0463142 0.429342 0.383028) 568 1129 2
(0.224456 0.387772 0.0904242 0.297348) 570 1134 2
(0.23168 0.38416 0.233949 0.150211) 571 1136 2
(0.297522 0.351239 0.33962 0.0116194) 572 1138 2
(0.285761 0.357119 0.302354 0.0547651) 573 1140 2
(0.330109 0.334945 0.123366 0.211579) 574 1142 2
(0.160613 0.0614652 0.358228 0.419694) 575 1141 2
(0.156594 0.0593946 0.421703 0.362308) 575 1143 2
(0.224845 0.0601412 0.327436 0.387578) 576 1146 1
(0.213681 0.0758282 0.317331 0.393159) 577 1148 1
(0.0285892 0.479463 0.00624209 0.485705) 579 1152 1
(0.114256 0.377378 0.0654935 0.442872) 580 1154 1
(0.403759 0.169272 0.29812 0.128849) 581 1007 1
(0.35381 0.138074 0.323095 0.185021) 582 1009 1
(0.47479 0.262605 0.179038 0.083567) 600 1192 1
(0.287397 0.356302 0.146785 0.209517) 602 1194 1
(0.953897 0.0230513 0.00493637 0.0181149) 603 1199 2
(0.229877 0.00643725 0.385061 0.378624) 604 1200 2
(0.0432527 0.182262 0.478374 0.296111) 605 1202 2
(0.154589 0.0473687 0.422705 0.375337) 606 1056 1
(0.650858 0.0175415 0.15703 0.174571) 607 1207 1
(0.586793 0.148942 0.0576619 0.206604) 608 1209 1
(0.218773 0.390614 0.161244 0.22937) 609 1062 2
(0.205498 0.397251 0.235109 0.162143) 610 1064 2
(0.199361 0.40032 0.323766 0.076554) 611 1066 2
(0.0974011 0.451299 0.37428 0.0770198) 612 1068 2
(0.0442598 0.47787 0.104419 0.373451) 613 1216 1
(0.368899 0.054029 0.261522 0.315551) 613 1219 1
(0.292939 0.345637 0.0078934 0.353531) 614 1221 1
(0.257243 0.371378 0.0693739 0.302005) 615 1223 2
(0.12929 0.0853345 0.435355 0.35002) 615 1222 2
(0.28954 0.159493 0.195737 0.35523) 616 1225 1
(0.312145 0.328054 0.0158731 0.343927) 617 1227 1
(0.261833 0.369083 0.307389 0.0616941) 618 1229 2
(0.026014 0.486993 0.231762 0.255231) 619 1230 1
(0.306932 0.346534 0.327644 0.0188904) 620 1232 1
(0.419691 0.141202 0.290154 0.148952) 621 1086 1
(0.508687 0.245656 0.101511 0.144146) 622 1088 2
(0.00178332 0.499108 0.257252 0.241856) 622 1236 1
(0.567724 0.0103277 0.216138 0.20581) 623 1090 1
(0.49809 0.19649 0.250955 0.0544644) 624 1092 1
(0.390715 0.304642 0.275919 0.0287232) 625 1243 2
(0.301752 0.0527656 0.349124 0.296358) 626 1244 2
(0.702686 0.148657 0.000138194 0.148519) 628 1249 2
(0.411122 0.16249 0.131949 0.294439) 629 1251 1
(0.132869 0.0389949 0.433565 0.394571) 630 1252 2
(0.226139 0.386931 0.140307 0.246624) 632 1257 2
(0.215647 0.370726 0.0214511 0.392177) 633 1259 1
(0.509262 0.201051 0.245369 0.0443182) 634 1112 1
(0.353662 0.323169 0.0588057 0.264363) 635 1114 2
(0.374174 0.312913 0.260967 0.0519456) 636 1116 2
(0.0981079 0.450946 0.112146 0.3388) 637 1264 1
(0.29053 0.354735 0.347529 0.00720588) 637 1266 1
(0.374644 0.171901 0.312678 0.140778) 638 1120 1
(0.416656 0.152926 0.291672 0.138746) 639 1122 1
(0.503651 0.00137394 0.248174 0.2468) 640 1124 1
(0.188227 0.405887 0.314308 0.0915789) 641 1274 1
(0.369279 0.31536 0.104397 0.210964) 642 1276 1
(0.103309 0.0956595 0.448345 0.352686) 643 1278 2
(0.232469 0.383765 0.0632407 0.320525) 645 1283 2
(0.22992 0.38504 0.316166 0.0688744) 646 1285 2
(0.229242 0.252939 0.13244 0.385379) 647 1287 1
(0.239362 0.0423387 0.33798 0.380319) 648 1289 1
(0.16724 0.0403141 0.376066 0.41638) 650 1290 2
(0.259045 0.370477 0.0302944 0.340183) 651 1295 2
(0.212125 0.393938 0.0525148 0.341423) 652 1297 2
(0.159528 0.420236 0.170521 0.249715) 653 1299 2
(0.149392 0.425304 0.331576 0.093728) 654 1301 2
(0.740513 0.00886813 0.120875 0.129743) 655 1303 1
(0.293895 0.317715 0.353053 0.0353382) 656 1156 1
(0.273523 0.220893 0.363239 0.142346) 657 1158 1
(0.463471 0.268264 0.0533821 0.214882) 675 15084 2
(0.454139 0.27293 0.195749 0.0771809) 676 1195 2
(0.29869 0.350655 0.116958 0.233697) 677 1197 2
(0.463145 0.268428 0.149754 0.118674) 678 1348 2
(0.249765 0.375118 0.19783 0.177287) 679 1350 2
(0.251683 0.374159 0.35677 0.0173882) 680 1352 2
(0.418062 0.290969 0.162714 0.128255) 681 1353 1
(0.596606 0.201697 0.071688 0.130009) 682 1355 1
(0.459344 0.244342 0.0259857 0.270328) 683 1358 1
(0.282992 0.358504 0.224702 0.133802) 684 1211 2
(0.0730255 0.463487 0.0923998 0.371088) 685 1359 1
(0.196959 0.0430907 0.40152 0.35843) 685 1213 1
(0.254409 0.121729 0.372795 0.251066) 686 1215 1
(0.336574 0.2368 0.0949128 0.331713) 687 1366 1
(0.236607 0.381696 0.277782 0.103915) 688 1368 2
(0.223784 0.0137219 0.374386 0.388108) 689 1367 2
(0.261258 0.0331175 0.336254 0.369371) 689 1370 1
(0.188548 0.405726 0.397457 0.00826874) 690 1372 2
(0.31042 0.34479 0.0629046 0.281885) 691 1374 2
(0.0377544 0.133403 0.481123 0.34772) 691 1373 2
(0.281116 0.0415694 0.317872 0.359442) 692 1376 1
(0.272724 0.121415 0.242223 0.363638) 693 1378 1
(0.233856 0.170984 0.212088 0.383072) 694 1380 1
(0.192506 0.161473 0.242274 0.403747) 695 1382 1
(0.182789 0.0821857 0.32642 0.408606) 696 1384 1
(0.255851 0.372074 0.279105 0.0929693) 697 1385 1
(0.406893 0.0106226 0.296553 0.285931) 698 1239 1
(0.406942 0.135866 0.296529 0.160663) 699 1241 1
(0.60982 0.19509 0.169521 0.0255688) 700 1391 1
(0.0764857 0.461757 0.208821 0.252936) 702 1393 1
(0.390856 0.304572 0.239821 0.0647513) 703 1249 2
(0.842649 0.0786757 0.0707018 0.00797392) 704 1399 1
(0.286089 0.0404536 0.316502 0.356956) 706 1401 2
(0.298633 0.350683 0.171465 0.179218) 707 1406 2
(0.27427 0.250558 0.112306 0.362865) 708 1408 1
(0.0795801 0.0950258 0.365184 0.46021) 709 1410 1
(0.23223 0.0517674 0.332118 0.383885) 710 1412 1
(0.457549 0.106785 0.271225 0.164441) 711 1265 1
(0.356102 0.321949 0.100615 0.221334) 712 1267 2
(0.229948 0.385026 0.0620397 0.322986) 713 1415 1
(0.313623 0.0141334 0.343188 0.329055) 713 1269 1
(0.291055 0.272184 0.354473 0.0822886) 714 1271 1
(0.277896 0.361052 0.0828092 0.278243) 715 1273 2
(0.243754 0.378123 0.0922267 0.285896) 716 1275 2
(0.298894 0.128489 0.350553 0.222064) 717 1277 1
(0.440627 0.109369 0.170318 0.279687) 719 1427 2
(0.393387 0.303307 0.134793 0.168513) 720 1432 2
(0.370887 0.175624 0.138933 0.314556) 721 1434 1
(0.365749 0.119555 0.197571 0.317126) 722 1436 1
(0.152551 0.249228 0.174497 0.423725) 724 1437 2
(0.452062 0.25191 0.0220591 0.273969) 725 1442 1
(0.268919 0.0337979 0.36554 0.331742) 726 1443 2
(0.16988 0.41506 0.163941 0.251119) 728 1448 2
(0.17713 0.391913 0.0195217 0.411435) 729 1450 1
(0.590432 0.204784 0.159564 0.0452198) 730 1449 1
(0.405952 0.297024 0.231702 0.0653216) 731 1305 2
(0.265836 0.367082 0.177764 0.189318) 732 1307 2
(0.299058 0.350471 0.111695 0.238776) 733 1309 2
(0.249384 0.375308 0.0108359 0.364472) 750 15085 2
(0.371574 0.0492537 0.26496 0.314213) 751 1490 2
(0.404106 0.297947 0.241685 0.0562619) 752 1495 2
(0.769363 0.018841 0.0964773 0.115318) 753 1494 2
(0.80624 0.0540333 0.0968801 0.0428468) 754 1498 2
(0.257149 0.190168 0.181257 0.371425) 756 1500 2
(0.353734 0.323133 0.0796222 0.243511) 757 1505 2
(0.267005 0.366498 0.230126 0.136372) 758 1507 2
(0.197452 0.339938 0.0613359 0.401274) 759 1509 1
(0.250617 0.374692 0.191923 0.182769) 760 1362 2
(0.278838 0.360581 0.0257333 0.334848) 761 1510 1
(0.162488 0.418756 0.248052 0.170704) 761 1512 1
(0.175219 0.231535 0.180856 0.412391) 762 1515 1
(0.158469 0.381882 0.038883 0.420765) 763 1517 1
(0.234507 0.382747 0.183423 0.199324) 764 1519 2
(0.0386914 0.0537441 0.480654 0.42691) 764 1518 2
(0.213363 0.264675 0.128643 0.393318) 765 1521 1
(0.207219 0.39639 0.187649 0.208741) 766 1523 2
(0.278483 0.0339955 0.326763 0.360758) 766 1523 1
(0.279279 0.313645 0.046715 0.36036) 767 1525 1
(0.187974 0.406013 0.295514 0.110499) 768 1527 2