/*--------------------------------*- C++ -*----------------------------------*\
  =========                 |
  \\      /  F ield         | OpenFOAM: The Open Source CFD Toolbox
   \\    /   O peration     | Website:  https://openfoam.org
    \\  /    A nd           | Version:  12
     \\/     M anipulation  |
\*---------------------------------------------------------------------------*/
FoamFile
{
    format      ascii;
    class       vectorField;
    location    "0.35/lagrangian/cloud";
    object      U;
}
// * * * * * * * * * * * * * * * * * * * * * * * * * * * * * * * * * * * * * //


2912
(
(-0.0001471 -0.0314762 0)
(-4.84716e-05 -0.0324105 0)
(0.00105036 -0.030341 0)
(0.00050082 -0.030941 0)
(-0.000387449 -0.0312899 0)
(-0.00181604 -0.0338525 0)
(-0.000651091 -0.0351948 0)
(0.000401715 -0.0337425 0)
(0.000409485 -0.0339889 0)
(0.000302722 -0.033557 0)
(-0.000403142 -0.0297984 0)
(-0.000124813 -0.0291246 0)
(0.000519706 -0.0289112 0)
(-0.000191544 -0.0311329 0)
(0.000819793 -0.0294858 0)
(0.00135215 -0.0286394 0)
(0.00039484 -0.0304793 0)
(-4.36156e-06 -0.0305813 0)
(-0.000440691 -0.0313787 0)
(0.000974897 -0.0318677 0)
(-3.98949e-05 -0.0319144 0)
(0.000667213 -0.0301327 0)
(-2.32034e-05 -0.0302997 0)
(0.000222961 -0.0328107 0)
(0.000429332 -0.0333039 0)
(-0.000401899 -0.0329899 0)
(-4.85575e-05 -0.0359329 0)
(0.000698745 -0.0362506 0)
(-0.000224399 -0.0363896 0)
(0.000197832 -0.0361107 0)
(0.000494757 -0.0354161 0)
(0.000712805 -0.036738 0)
(-0.000736358 -0.0372165 0)
(-0.00122333 -0.0367347 0)
(-0.000334264 -0.0345147 0)
(0.00055158 -0.0354539 0)
(0.00103119 -0.0342452 0)
(0.000289892 -0.0360621 0)
(-4.33329e-05 -0.0335177 0)
(0.000936261 -0.0361494 0)
(0.000555745 -0.0371038 0)
(-0.000690429 -0.037626 0)
(0.0010799 -0.0364005 0)
(-0.000148431 -0.0367585 0)
(-0.000147231 -0.033309 0)
(-1.79097e-05 -0.0340856 0)
(-0.000116419 -0.0336201 0)
(0.000363687 -0.0364944 0)
(0.00101665 -0.0353763 0)
(0.00028991 -0.0370008 0)
(-0.00275096 -0.0346606 0)
(0.000526211 -0.0356541 0)
(0.000578161 -0.0367538 0)
(-0.000146685 -0.0363696 0)
(0.00277847 -0.0359659 0)
(-0.000201601 -0.0358511 0)
(-5.82276e-05 -0.0356664 0)
(-0.000176037 -0.0367011 0)
(-0.000264603 -0.0372946 0)
(-0.00163218 -0.0373783 0)
(1.38206e-05 -0.0348683 0)
(-4.56347e-05 -0.0363154 0)
(0.000680454 -0.0364866 0)
(-0.00025024 -0.0410035 0)
(-0.000411018 -0.0405758 0)
(0.000909154 -0.0363791 0)
(0.000644571 -0.034587 0)
(-0.000255225 -0.0326736 0)
(-0.000651047 -0.035916 0)
(0.00321119 -0.0392456 0)
(-0.000369936 -0.0432643 0)
(0.00152439 -0.0457776 0)
(-0.000700341 -0.0453525 0)
(-0.000919355 -0.0452116 0)
(0.00120923 -0.0428359 0)
(-0.000412949 -0.0427911 0)
(0.0020778 -0.0399708 0)
(-0.000449339 -0.0416385 0)
(-0.0016847 -0.041288 0)
(-0.00054243 -0.0388982 0)
(-0.000117502 -0.0374233 0)
(-0.000974214 -0.0397393 0)
(-0.000352468 -0.0343495 0)
(0.000316983 -0.0349308 0)
(-0.00069951 -0.0327903 0)
(-0.000616233 -0.035939 0)
(0.000167481 -0.0340338 0)
(0.000502157 -0.0335608 0)
(0.000981434 -0.0398701 0)
(0.000802677 -0.0404507 0)
(0.000659463 -0.0432912 0)
(3.78032e-06 -0.0435125 0)
(0.000265933 -0.0429412 0)
(0.000104169 -0.0428484 0)
(-0.000743316 -0.044062 0)
(-0.000728203 -0.0393759 0)
(3.04257e-05 -0.0382167 0)
(0.000598904 -0.0381125 0)
(0.00108958 -0.0372314 0)
(0.000199531 -0.0374487 0)
(0.000217563 -0.0381597 0)
(8.39021e-05 -0.0412656 0)
(0.00111786 -0.0423346 0)
(0.000544301 -0.0458964 0)
(0.000282679 -0.0392459 0)
(-0.000592021 -0.0364936 0)
(-0.00100473 -0.0352694 0)
(0.000320777 -0.0412135 0)
(0.000459441 -0.0402389 0)
(-0.000446951 -0.0393839 0)
(0.00138173 -0.0424414 0)
(-0.000800139 -0.044716 0)
(3.58453e-05 -0.0468515 0)
(-0.000976186 -0.0465243 0)
(0.000673425 -0.0472712 0)
(-0.000169411 -0.0432984 0)
(-0.000218358 -0.0400042 0)
(0.000628101 -0.0398975 0)
(-3.94699e-05 -0.0410783 0)
(0.000547061 -0.0402516 0)
(-0.000253239 -0.0418364 0)
(-0.00271029 -0.0430294 0)
(-0.000348026 -0.0370623 0)
(0.000404864 -0.0359342 0)
(0.00251692 -0.0443567 0)
(0.000389929 -0.0462575 0)
(0.000630321 -0.0425705 0)
(0.000632215 -0.0432676 0)
(-0.000383974 -0.0471856 0)
(-6.75494e-05 -0.0491366 0)
(0.00107973 -0.0468301 0)
(6.92425e-06 -0.0458991 0)
(0.000469354 -0.0492132 0)
(0.000532934 -0.0488497 0)
(-0.000216789 -0.0487239 0)
(0.000339693 -0.0490521 0)
(-0.000601866 -0.0508895 0)
(-0.00063862 -0.0525993 0)
(-0.0011051 -0.0496293 0)
(-0.00162711 -0.0502403 0)
(-0.000343294 -0.0498151 0)
(0.000527645 -0.0422872 0)
(2.48233e-05 -0.042569 0)
(0.00128849 -0.0439693 0)
(0.00176261 -0.0453995 0)
(0.00133987 -0.0466116 0)
(-0.000276497 -0.0485084 0)
(0.000429529 -0.0502683 0)
(-0.000755747 -0.0504278 0)
(0.0010863 -0.0493299 0)
(0.00063271 -0.0490942 0)
(0.000528968 -0.0490664 0)
(-3.91889e-05 -0.0475585 0)
(0.00023805 -0.046802 0)
(0.000117815 -0.0451736 0)
(8.93619e-05 -0.0457561 0)
(3.247e-05 -0.0462008 0)
(-0.000174617 -0.0474658 0)
(-0.000196678 -0.0460185 0)
(0.000295338 -0.0440243 0)
(0.000355652 -0.0463123 0)
(0.000644509 -0.0492863 0)
(0.00119324 -0.0467553 0)
(-1.65128e-05 -0.0478857 0)
(-0.00017588 -0.0497003 0)
(0.000435737 -0.0498971 0)
(-2.0501e-05 -0.0500136 0)
(-0.0003546 -0.048716 0)
(0.000411459 -0.0504156 0)
(-0.00114738 -0.0504623 0)
(-0.000100617 -0.0502972 0)
(-0.000255214 -0.0504353 0)
(0.000222762 -0.0522595 0)
(0.00230643 -0.0519947 0)
(-0.000286617 -0.0522091 0)
(0.000147254 -0.0530856 0)
(0.000890319 -0.0492451 0)
(0.000212395 -0.0480331 0)
(-0.000102954 -0.047392 0)
(-0.00169218 -0.047255 0)
(-0.00237171 -0.0485193 0)
(-0.00151387 -0.0489342 0)
(0.000513971 -0.0495168 0)
(5.29426e-05 -0.0494052 0)
(-0.00105778 -0.0503524 0)
(0.000510399 -0.0469527 0)
(0.000135472 -0.0492016 0)
(-0.000135382 -0.0492419 0)
(0.000990804 -0.0476155 0)
(0.00183209 -0.0506632 0)
(0.00197443 -0.0490038 0)
(0.00105497 -0.0497455 0)
(-0.000261484 -0.0523976 0)
(0.00094858 -0.0499826 0)
(-0.000676866 -0.0537935 0)
(0.000294298 -0.0549976 0)
(0.000287157 -0.057155 0)
(-0.00107692 -0.0571185 0)
(-0.000315787 -0.0559974 0)
(-0.000974923 -0.0555821 0)
(-0.000962796 -0.0520447 0)
(0.000385969 -0.0522693 0)
(-0.000914464 -0.0512671 0)
(0.00138444 -0.0521181 0)
(0.000829743 -0.0542958 0)
(-0.00165822 -0.0515214 0)
(-0.000287848 -0.0506888 0)
(0.00059868 -0.0518425 0)
(0.000305826 -0.0498578 0)
(0.00206995 -0.0505697 0)
(0.00168415 -0.0488932 0)
(-0.000556164 -0.0483262 0)
(0.000345177 -0.0477392 0)
(0.000355225 -0.047425 0)
(4.03301e-05 -0.0476847 0)
(-0.000170344 -0.0480528 0)
(-0.000515194 -0.0461472 0)
(0.00239457 -0.0468535 0)
(-0.00205355 -0.0477317 0)
(-0.000484641 -0.0500424 0)
(-0.000456619 -0.049425 0)
(-0.000137742 -0.0508275 0)
(0.000372288 -0.0508425 0)
(4.96042e-05 -0.0504976 0)
(0.000245646 -0.0507395 0)
(0.00084857 -0.050767 0)
(0.00109486 -0.0500692 0)
(0.000867906 -0.0514175 0)
(0.00251427 -0.0513785 0)
(0.00108805 -0.0501913 0)
(-1.09864e-05 -0.0522361 0)
(-0.000280463 -0.0523459 0)
(0.000257744 -0.0511473 0)
(-2.91302e-05 -0.0520316 0)
(0.000582088 -0.0522534 0)
(0.000362445 -0.0509026 0)
(7.29228e-05 -0.0505954 0)
(-0.000524043 -0.0513696 0)
(-0.000834255 -0.0508302 0)
(-0.00180943 -0.049991 0)
(-0.000956974 -0.048669 0)
(-0.000422977 -0.0509636 0)
(-0.00203392 -0.0499508 0)
(0.00106755 -0.0525304 0)
(-0.00049598 -0.0535394 0)
(0.00142598 -0.0530424 0)
(0.00138446 -0.0524764 0)
(0.000732021 -0.0507572 0)
(0.000598472 -0.0517973 0)
(-0.000235864 -0.0552764 0)
(-0.00043541 -0.0554324 0)
(-0.00039018 -0.0552533 0)
(0.00164437 -0.0565956 0)
(0.00126274 -0.0566112 0)
(-0.000256525 -0.0579283 0)
(0.000645499 -0.0555864 0)
(-0.00234337 -0.0542311 0)
(-0.00115553 -0.0557203 0)
(0.00397665 -0.0540814 0)
(-0.000272388 -0.0531061 0)
(0.000273735 -0.0515455 0)
(0.00100165 -0.053986 0)
(0.000397876 -0.0521676 0)
(0.000818423 -0.0509185 0)
(0.000710578 -0.0511675 0)
(0.000742798 -0.0511748 0)
(0.000218476 -0.0501533 0)
(0.000218332 -0.0493954 0)
(4.811e-05 -0.0494894 0)
(7.53881e-05 -0.0488773 0)
(-6.68074e-05 -0.0489409 0)
(-0.000280051 -0.0479704 0)
(0.00098943 -0.0473072 0)
(2.20993e-06 -0.048737 0)
(-0.000429818 -0.0500927 0)
(-0.000765986 -0.0511021 0)
(4.51865e-05 -0.050588 0)
(-0.00192607 -0.0499296 0)
(0.00065524 -0.0512287 0)
(0.000732826 -0.0515408 0)
(0.000571245 -0.0507916 0)
(0.000398359 -0.0512106 0)
(0.000232042 -0.0516686 0)
(0.00100755 -0.050764 0)
(-0.000200036 -0.050466 0)
(0.000912291 -0.0501877 0)
(0.000338077 -0.0494755 0)
(-4.20778e-05 -0.0482229 0)
(-4.39561e-05 -0.0488367 0)
(0.00219836 -0.0501389 0)
(0.000164129 -0.0504129 0)
(0.000561707 -0.0502504 0)
(0.000386842 -0.0497206 0)
(-0.00107382 -0.0487442 0)
(0.000974218 -0.0495461 0)
(0.000283576 -0.0493875 0)
(-0.00158444 -0.0498634 0)
(-0.000437091 -0.0487472 0)
(-9.54115e-06 -0.0472965 0)
(-0.00108106 -0.0488623 0)
(0.00180119 -0.0514851 0)
(-1.68034e-05 -0.0540698 0)
(0.000141017 -0.0539252 0)
(0.000370379 -0.0542024 0)
(-0.000717861 -0.053981 0)
(0.000620291 -0.0556622 0)
(0.00075892 -0.0543745 0)
(-0.00198064 -0.0525059 0)
(0.000546374 -0.0559199 0)
(0.000824802 -0.0570289 0)
(0.000270375 -0.0563217 0)
(-0.00132491 -0.0556476 0)
(-0.0014818 -0.0545076 0)
(-0.0013079 -0.0547199 0)
(-0.00136925 -0.0547232 0)
(-0.00152273 -0.0531943 0)
(0.00213749 -0.0529925 0)
(-0.000677723 -0.0498689 0)
(-0.000357144 -0.0494952 0)
(-0.000380492 -0.0489912 0)
(7.16252e-05 -0.0493344 0)
(-0.000147462 -0.0491403 0)
(4.1335e-05 -0.0492521 0)
(-0.000203658 -0.0490108 0)
(-5.92799e-05 -0.049984 0)
(0.000129936 -0.0506016 0)
(0.000248933 -0.0490897 0)
(0.000257463 -0.0491023 0)
(-0.000845349 -0.0494784 0)
(-0.000741355 -0.0504491 0)
(-0.000339855 -0.0508507 0)
(0.000323112 -0.0513647 0)
(0.00109198 -0.0513236 0)
(-0.0011771 -0.0527254 0)
(-0.00126992 -0.051476 0)
(-0.00147805 -0.0509303 0)
(-0.000866334 -0.0529304 0)
(0.000485347 -0.0537645 0)
(0.000444395 -0.0509821 0)
(5.18262e-05 -0.0517702 0)
(8.5065e-06 -0.0517814 0)
(-0.00038396 -0.0517039 0)
(-0.000118842 -0.051829 0)
(0.000226982 -0.0521171 0)
(0.000671495 -0.0509412 0)
(-0.000340983 -0.0507659 0)
(-0.000420879 -0.0504992 0)
(-0.000519027 -0.0507738 0)
(-0.000172134 -0.0520612 0)
(-0.000196371 -0.0516496 0)
(-1.1675e-05 -0.0495111 0)
(0.000259721 -0.0526182 0)
(0.000279769 -0.0524221 0)
(0.000811797 -0.0521316 0)
(0.000397784 -0.05269 0)
(-0.00035366 -0.0505865 0)
(-0.000358889 -0.0498243 0)
(-0.000134018 -0.053512 0)
(0.000168986 -0.0542508 0)
(0.000553927 -0.0556228 0)
(-0.000411786 -0.0552557 0)
(-0.000558297 -0.0556907 0)
(0.00305215 -0.0520549 0)
(0.000146361 -0.053797 0)
(0.000517602 -0.0530465 0)
(0.000576579 -0.0519995 0)
(0.000358079 -0.0523451 0)
(-3.97419e-06 -0.0518263 0)
(-5.01948e-05 -0.0525363 0)
(-0.00114827 -0.0528311 0)
(-0.00200029 -0.0501321 0)
(-5.23568e-05 -0.0511272 0)
(-4.26926e-05 -0.0507762 0)
(-5.13731e-05 -0.0506111 0)
(0.000143173 -0.0493437 0)
(-0.000605658 -0.0488353 0)
(-0.000922124 -0.0476961 0)
(0.000192134 -0.0466523 0)
(0.00092226 -0.0483981 0)
(0.000760163 -0.0492419 0)
(0.0003338 -0.0514732 0)
(0.000686941 -0.0479671 0)
(0.000420355 -0.0522062 0)
(0.000159465 -0.0544775 0)
(0.000107 -0.0549473 0)
(-0.00024198 -0.0550075 0)
(0.000119098 -0.0559411 0)
(0.000224528 -0.0537528 0)
(0.000776971 -0.0525573 0)
(0.00180916 -0.0530152 0)
(0.0013269 -0.0502806 0)
(-7.16458e-05 -0.0514311 0)
(0.000448667 -0.0521096 0)
(0.00144252 -0.0526251 0)
(0.000253025 -0.0539101 0)
(-0.000353816 -0.0515176 0)
(0.000577393 -0.0510449 0)
(-0.000393948 -0.0521361 0)
(-0.000499107 -0.0529399 0)
(3.089e-05 -0.0535273 0)
(1.54131e-05 -0.0538765 0)
(0.000591304 -0.0534698 0)
(-3.11514e-05 -0.052146 0)
(-0.00030956 -0.0523371 0)
(0.000177775 -0.0528048 0)
(0.00285231 -0.0495833 0)
(-3.72113e-05 -0.0510355 0)
(-0.000343959 -0.0515082 0)
(-0.000541541 -0.0517477 0)
(0.00112489 -0.0515137 0)
(0.00116106 -0.0521963 0)
(-0.000436963 -0.0524934 0)
(-2.89496e-05 -0.0523636 0)
(-0.00108101 -0.0507018 0)
(-0.000528804 -0.0535093 0)
(-0.00046012 -0.0528972 0)
(0.00119935 -0.0553056 0)
(-0.00118671 -0.0532037 0)
(0.000972212 -0.0510614 0)
(-0.000106573 -0.0517194 0)
(-1.33293e-05 -0.0500171 0)
(-0.000280431 -0.049897 0)
(-3.11458e-05 -0.0508113 0)
(0.000327516 -0.0495437 0)
(0.00022298 -0.0499465 0)
(-0.000403362 -0.0510714 0)
(-0.00128439 -0.0512969 0)
(-0.00165899 -0.0510239 0)
(2.06951e-05 -0.0532615 0)
(-0.000475814 -0.0528073 0)
(-0.00041029 -0.0535108 0)
(-0.00042204 -0.0518099 0)
(-0.000491783 -0.0513178 0)
(-0.000891276 -0.050928 0)
(-0.000297962 -0.049293 0)
(-0.000442949 -0.0488947 0)
(0.000138615 -0.0516272 0)
(-0.000739958 -0.0566 0)
(0.000263492 -0.0489766 0)
(0.00137447 -0.0551272 0)
(0.000789888 -0.0561342 0)
(0.000899228 -0.0569496 0)
(0.000244828 -0.0580747 0)
(-0.000781087 -0.0582553 0)
(-0.000128409 -0.0592532 0)
(-5.63639e-05 -0.0579697 0)
(-0.000403855 -0.0572256 0)
(0.000473782 -0.0559224 0)
(-0.00103525 -0.0530349 0)
(0.000403146 -0.0520509 0)
(0.000385744 -0.0524675 0)
(0.000229477 -0.0527348 0)
(-9.59764e-05 -0.0520458 0)
(0.0010477 -0.0537282 0)
(0.00134435 -0.0522361 0)
(-0.000107409 -0.0542759 0)
(-0.000759647 -0.0559296 0)
(-4.60966e-05 -0.0567017 0)
(-0.000174147 -0.0552779 0)
(-9.46246e-05 -0.0552531 0)
(0.000198803 -0.054766 0)
(0.000519184 -0.0534208 0)
(0.000247092 -0.0532152 0)
(-0.000102977 -0.0529259 0)
(-0.000186667 -0.0515334 0)
(-0.000316986 -0.0498465 0)
(0.000189703 -0.051402 0)
(0.000401538 -0.0490832 0)
(0.000831335 -0.0516921 0)
(-0.00271327 -0.0551673 0)
(-0.00161308 -0.0549268 0)
(0.0002485 -0.0498581 0)
(0.000230754 -0.0533074 0)
(0.00156319 -0.0480763 0)
(0.000717435 -0.0551748 0)
(0.000381812 -0.0502721 0)
(0.000183549 -0.0480601 0)
(0.0025257 -0.0490681 0)
(0.00201419 -0.0492145 0)
(5.81403e-05 -0.050448 0)
(-0.000252565 -0.0501566 0)
(-0.000230844 -0.05075 0)
(-0.00111926 -0.0524653 0)
(-0.000798495 -0.0529311 0)
(0.00136769 -0.0515595 0)
(-0.000771283 -0.0529308 0)
(-4.64312e-05 -0.0545954 0)
(0.000408318 -0.0543085 0)
(0.00128409 -0.0542554 0)
(-0.000240999 -0.0552732 0)
(-0.000320418 -0.0554574 0)
(-0.0006669 -0.0544012 0)
(0.00109222 -0.0520607 0)
(-0.000584698 -0.0526763 0)
(-0.00026039 -0.0545818 0)
(0.0012964 -0.055955 0)
(-1.19665e-06 -0.054593 0)
(0.00145734 -0.0551038 0)
(0.00178033 -0.0592938 0)
(-0.000409799 -0.0590519 0)
(-0.000256802 -0.0593788 0)
(0.00111686 -0.0608815 0)
(0.000195109 -0.0606786 0)
(0.000116784 -0.0582672 0)
(-3.40452e-05 -0.0568953 0)
(-0.00169769 -0.0549619 0)
(-0.000891105 -0.0546434 0)
(-0.00145464 -0.0538193 0)
(-0.000406004 -0.0523584 0)
(-0.000290376 -0.0519503 0)
(-3.56658e-05 -0.052686 0)
(-0.000151888 -0.0539446 0)
(-0.000134778 -0.0555386 0)
(-0.000742116 -0.0561142 0)
(-0.00245013 -0.0542893 0)
(0.00168752 -0.0576141 0)
(0.000518055 -0.0565954 0)
(-0.000181896 -0.0565686 0)
(0.000584802 -0.0557218 0)
(2.55552e-05 -0.0540925 0)
(-0.00102242 -0.0526721 0)
(-0.000827148 -0.0519919 0)
(-0.00121617 -0.0509331 0)
(-0.000808376 -0.0505458 0)
(-0.000542744 -0.0508931 0)
(0.00185018 -0.0515669 0)
(-0.000136018 -0.0536838 0)
(-0.000526167 -0.0551021 0)
(-0.00060537 -0.0524118 0)
(-0.0026914 -0.0505816 0)
(-0.00131619 -0.0513671 0)
(0.00306961 -0.0506491 0)
(0.00138009 -0.051189 0)
(0.000989066 -0.0514184 0)
(-0.000374928 -0.0494377 0)
(-0.00055555 -0.0462694 0)
(-0.000936531 -0.049078 0)
(2.48892e-05 -0.0510181 0)
(-0.000142606 -0.0488212 0)
(-0.000829073 -0.0487967 0)
(-0.00155438 -0.0503948 0)
(-0.000970747 -0.0521367 0)
(-0.000340017 -0.0537825 0)
(0.000357818 -0.0532418 0)
(0.00026392 -0.0525694 0)
(-0.000948273 -0.0529895 0)
(-0.000133331 -0.0549242 0)
(-0.000131346 -0.0550525 0)
(0.000711149 -0.0556834 0)
(-0.000479134 -0.0579923 0)
(-0.000540832 -0.0591751 0)
(-0.000573315 -0.0595559 0)
(-0.000447156 -0.0607801 0)
(0.00305753 -0.0620472 0)
(0.000225544 -0.0572254 0)
(0.00170028 -0.0579463 0)
(0.00131796 -0.0559673 0)
(0.000398235 -0.0569605 0)
(-0.000273034 -0.0594112 0)
(1.35736e-05 -0.0601633 0)
(0.0001756 -0.0574684 0)
(0.000400039 -0.0569873 0)
(-0.00035888 -0.0559547 0)
(-5.61898e-05 -0.0569989 0)
(0.00049132 -0.0518565 0)
(-0.00127796 -0.0527503 0)
(0.00038052 -0.0526083 0)
(-0.000346374 -0.0547347 0)
(-0.00193305 -0.0517552 0)
(-0.00023034 -0.0520561 0)
(0.00051779 -0.0541632 0)
(0.000243492 -0.0547828 0)
(-0.000112779 -0.0570982 0)
(0.00166164 -0.0550935 0)
(0.00277582 -0.0541136 0)
(-0.000283506 -0.0551659 0)
(0.000197577 -0.0535643 0)
(-0.00172275 -0.0535919 0)
(0.000163723 -0.0520107 0)
(-0.00235798 -0.0513522 0)
(-6.55371e-06 -0.0504193 0)
(0.000888072 -0.0500244 0)
(0.00197401 -0.0524287 0)
(0.00104232 -0.0512017 0)
(3.08545e-05 -0.0519405 0)
(-0.000355508 -0.051365 0)
(-0.000338167 -0.051436 0)
(-0.000166357 -0.0525853 0)
(0.00157768 -0.0522565 0)
(0.00106617 -0.0550633 0)
(0.000775353 -0.0502003 0)
(0.00120879 -0.0502363 0)
(3.62717e-05 -0.0518078 0)
(2.37205e-05 -0.0510092 0)
(-0.000579996 -0.050309 0)
(0.000218844 -0.0499751 0)
(0.000244559 -0.0515677 0)
(-7.51271e-05 -0.0500874 0)
(0.000291087 -0.0496684 0)
(-0.000778485 -0.050722 0)
(-0.000587106 -0.0509105 0)
(0.000918821 -0.0497976 0)
(-0.000903551 -0.048475 0)
(0.000997125 -0.0493203 0)
(0.000254607 -0.0501085 0)
(-0.000973994 -0.0517619 0)
(-0.000836162 -0.0549747 0)
(-0.00137066 -0.0570567 0)
(-0.00113394 -0.0580123 0)
(-0.000732811 -0.0587636 0)
(-0.00133217 -0.0615714 0)
(0.00178829 -0.0591733 0)
(0.000589591 -0.0580281 0)
(0.000600372 -0.056757 0)
(0.000617819 -0.0573836 0)
(-0.000325951 -0.0573926 0)
(0.0016934 -0.0532519 0)
(0.00222021 -0.0543531 0)
(0.00145364 -0.0559939 0)
(0.00143625 -0.0545182 0)
(-0.00140948 -0.0545721 0)
(-0.000631721 -0.0558338 0)
(0.00115671 -0.053304 0)
(0.000685715 -0.0535941 0)
(0.00163099 -0.052997 0)
(0.000326212 -0.0528193 0)
(9.17232e-05 -0.0527384 0)
(0.000123166 -0.0517903 0)
(-0.000188359 -0.0508976 0)
(7.06837e-05 -0.052024 0)
(0.000204223 -0.0528799 0)
(-6.20699e-05 -0.0527725 0)
(-0.000240464 -0.0486315 0)
(-0.00115812 -0.0527226 0)
(-0.00162466 -0.0534197 0)
(-0.00129845 -0.0524723 0)
(-0.00144379 -0.0506458 0)
(-0.0014878 -0.0519099 0)
(0.000220607 -0.0483234 0)
(0.000256207 -0.0488037 0)
(0.00218804 -0.0487339 0)
(0.0013696 -0.0481276 0)
(0.000705908 -0.0484803 0)
(3.68686e-05 -0.0477809 0)
(-7.70362e-05 -0.0531269 0)
(-0.00119237 -0.05303 0)
(0.000768872 -0.0520917 0)
(-0.000254362 -0.0507177 0)
(0.00300109 -0.0498418 0)
(0.00247726 -0.0539948 0)
(0.000524742 -0.0538381 0)
(-0.000252469 -0.0533946 0)
(-0.00129979 -0.0534923 0)
(-0.000277886 -0.0513417 0)
(1.62676e-05 -0.049716 0)
(0.00121369 -0.0515857 0)
(0.000872657 -0.0482718 0)
(0.000802679 -0.0456954 0)
(0.000518453 -0.0452899 0)
(-0.000787371 -0.0462299 0)
(0.00074653 -0.0445429 0)
(0.000735885 -0.0462274 0)
(0.000464329 -0.0472013 0)
(-0.00217699 -0.0510815 0)
(-0.00102429 -0.0522261 0)
(-2.70964e-05 -0.0538357 0)
(0.00099543 -0.0581598 0)
(-0.000485059 -0.057435 0)
(-4.57382e-05 -0.0572346 0)
(-0.00104689 -0.0535677 0)
(-0.000310815 -0.0548143 0)
(-0.00118878 -0.054932 0)
(-0.00112708 -0.0505781 0)
(-0.000345807 -0.0512592 0)
(0.000287621 -0.0535984 0)
(4.90414e-05 -0.0528653 0)
(-0.000871576 -0.0540196 0)
(-0.00262808 -0.0541496 0)
(-0.000493149 -0.0537369 0)
(0.000715044 -0.0544595 0)
(0.000342491 -0.0538463 0)
(0.000467409 -0.0533798 0)
(-0.000236237 -0.0509724 0)
(-2.55398e-05 -0.0522468 0)
(0.000150268 -0.0511846 0)
(-0.000237966 -0.0504341 0)
(-0.000291956 -0.051194 0)
(0.000145851 -0.0514479 0)
(5.66486e-05 -0.0507759 0)
(0.000126152 -0.0492925 0)
(-0.00216272 -0.0518686 0)
(-0.00307755 -0.0516696 0)
(-0.00125164 -0.0501419 0)
(-0.000776381 -0.051546 0)
(-0.000700378 -0.0518689 0)
(0.00165064 -0.0491879 0)
(0.000290587 -0.050384 0)
(0.00122224 -0.050401 0)
(-0.000253098 -0.0535908 0)
(0.000349832 -0.0505306 0)
(0.00022942 -0.0487248 0)
(1.52327e-05 -0.0539921 0)
(0.000166807 -0.0546279 0)
(7.74904e-05 -0.0547277 0)
(0.00227319 -0.0536055 0)
(0.00112025 -0.0504105 0)
(0.00093678 -0.0526566 0)
(-0.000775384 -0.0523401 0)
(0.000602503 -0.0526227 0)
(-0.00111657 -0.0536944 0)
(-0.00104926 -0.0535726 0)
(-0.000450136 -0.051927 0)
(0.00093339 -0.0535755 0)
(0.000287427 -0.0525673 0)
(2.40136e-05 -0.0506298 0)
(0.000336955 -0.0506338 0)
(-0.000847582 -0.05011 0)
(0.00221677 -0.0491534 0)
(0.00389985 -0.0449181 0)
(0.00112268 -0.0472347 0)
(0.00260835 -0.0502266 0)
(0.00106559 -0.0527322 0)
(0.0019985 -0.0492873 0)
(0.000641835 -0.0530124 0)
(-0.000204423 -0.053069 0)
(-0.000127673 -0.0520765 0)
(0.000206288 -0.0509797 0)
(-4.24727e-05 -0.0495042 0)
(0.000201813 -0.0479192 0)
(0.00168162 -0.0463987 0)
(-0.000567562 -0.0488477 0)
(0.000370159 -0.048992 0)
(0.000447123 -0.0498735 0)
(0.000306276 -0.051021 0)
(-0.0014206 -0.0539061 0)
(0.000992211 -0.0530551 0)
(0.00114135 -0.0533974 0)
(0.000628983 -0.0526741 0)
(0.000289553 -0.0524543 0)
(-0.000456496 -0.0530586 0)
(-0.000833974 -0.0508806 0)
(-0.000307255 -0.0507167 0)
(-0.00025699 -0.0502885 0)
(-0.00025315 -0.0509167 0)
(0.000563359 -0.0514006 0)
(0.000704669 -0.0495087 0)
(0.000892639 -0.050032 0)
(-0.000112566 -0.0519181 0)
(-0.0012702 -0.0523986 0)
(-0.00143838 -0.0500835 0)
(-0.000931215 -0.0519033 0)
(-0.000308422 -0.0488817 0)
(-0.000397531 -0.051269 0)
(-1.10543e-05 -0.0499307 0)
(-0.000202867 -0.0511906 0)
(0.000555754 -0.0510592 0)
(4.49218e-05 -0.0505667 0)
(0.00016776 -0.0533978 0)
(-0.000212538 -0.0534423 0)
(2.86965e-06 -0.0538686 0)
(0.000115935 -0.054004 0)
(0.000461045 -0.0544243 0)
(0.00142566 -0.0530906 0)
(0.000788737 -0.0516404 0)
(0.00112918 -0.0525403 0)
(0.000961044 -0.0545341 0)
(-0.000585845 -0.0538579 0)
(-0.00107675 -0.0537761 0)
(-0.00112902 -0.0548306 0)
(-0.000406174 -0.0536711 0)
(0.00023658 -0.0518251 0)
(0.000626817 -0.0525639 0)
(-0.000878699 -0.0530452 0)
(0.000583381 -0.053419 0)
(0.00124092 -0.050743 0)
(0.00372179 -0.0503941 0)
(0.00169823 -0.0495016 0)
(0.00287493 -0.0506393 0)
(0.00197392 -0.0482175 0)
(0.000951431 -0.0486438 0)
(0.000444535 -0.048663 0)
(0.000108598 -0.0489499 0)
(-0.00102437 -0.04822 0)
(-0.000938204 -0.0461952 0)
(-0.00131681 -0.0456606 0)
(-0.000206747 -0.047012 0)
(-0.000675196 -0.0464413 0)
(0.00179319 -0.0463892 0)
(0.000957278 -0.0479343 0)
(0.000133601 -0.0487892 0)
(-0.000865061 -0.0494698 0)
(0.000872038 -0.0508118 0)
(8.29062e-05 -0.0509609 0)
(0.000876101 -0.0516541 0)
(0.000675525 -0.0521167 0)
(6.10946e-06 -0.052314 0)
(-0.000294264 -0.0529251 0)
(-0.000766126 -0.0516869 0)
(-0.000326412 -0.0513954 0)
(-0.000140578 -0.0515958 0)
(0.000856342 -0.052703 0)
(0.00168327 -0.0521886 0)
(7.86735e-05 -0.0509179 0)
(0.00168808 -0.0510863 0)
(0.000602433 -0.0503751 0)
(-0.000700927 -0.0488216 0)
(-0.00114365 -0.0484704 0)
(-0.000438427 -0.0489114 0)
(-0.0002514 -0.0495088 0)
(0.000271681 -0.0496486 0)
(-0.00124458 -0.0491648 0)
(0.000408325 -0.052243 0)
(0.000394449 -0.0500431 0)
(0.000796885 -0.0496327 0)
(-3.56659e-05 -0.0511408 0)
(-0.000307303 -0.0551064 0)
(-0.000335854 -0.0551022 0)
(-0.000109404 -0.054254 0)
(0.0006651 -0.0544073 0)
(0.000662358 -0.0511488 0)
(0.000959739 -0.0511973 0)
(0.000940021 -0.0527122 0)
(0.00114811 -0.0532219 0)
(0.000557073 -0.0527251 0)
(-0.00114887 -0.0532275 0)
(-0.000678585 -0.0540105 0)
(0.000532346 -0.050721 0)
(-0.000123169 -0.0500466 0)
(0.0010705 -0.0504739 0)
(0.00290223 -0.0526267 0)
(0.00209827 -0.0545019 0)
(0.000709777 -0.0535756 0)
(0.000807934 -0.0530703 0)
(0.000635361 -0.052078 0)
(0.00346895 -0.0505461 0)
(0.000268291 -0.0489115 0)
(0.000325831 -0.0480064 0)
(0.000221095 -0.046595 0)
(-0.000158798 -0.046089 0)
(0.00112793 -0.0470631 0)
(-0.00215611 -0.0490951 0)
(0.000493792 -0.0494945 0)
(-0.000121641 -0.0463439 0)
(-0.000380093 -0.0463228 0)
(0.000288337 -0.0470323 0)
(0.000198238 -0.0473656 0)
(-0.000617281 -0.047419 0)
(0.000109639 -0.0494604 0)
(0.0017128 -0.0487361 0)
(0.000744419 -0.0475329 0)
(0.000531704 -0.0482899 0)
(0.000972533 -0.0494928 0)
(-0.000550758 -0.0498277 0)
(-0.00102949 -0.0523961 0)
(-0.00059001 -0.051286 0)
(9.36711e-05 -0.053877 0)
(0.000903229 -0.052004 0)
(0.0013184 -0.0508086 0)
(0.000151452 -0.0510481 0)
(-0.000153691 -0.0509638 0)
(2.14311e-05 -0.0503523 0)
(-0.000469857 -0.0487888 0)
(-0.000381384 -0.0500586 0)
(-0.000127693 -0.0496928 0)
(-0.000702531 -0.0488626 0)
(0.000655897 -0.04974 0)
(0.00145167 -0.05147 0)
(0.000256295 -0.0539889 0)
(0.000468315 -0.0499984 0)
(-0.000276325 -0.0543936 0)
(0.000170563 -0.0530807 0)
(0.000901709 -0.0555508 0)
(-0.000739662 -0.0554474 0)
(0.000370559 -0.0561849 0)
(0.00076155 -0.0539599 0)
(0.000457122 -0.0531015 0)
(1.22175e-05 -0.0522578 0)
(0.000691157 -0.0515664 0)
(0.000770321 -0.0516307 0)
(-0.000964781 -0.0510256 0)
(-0.000953162 -0.0519446 0)
(0.00011545 -0.0509415 0)
(0.00018284 -0.0524813 0)
(-9.76595e-05 -0.0530625 0)
(0.000710533 -0.0496798 0)
(3.20919e-05 -0.0499067 0)
(0.00376673 -0.0516486 0)
(0.0015886 -0.0551275 0)
(0.000382221 -0.053911 0)
(-5.06464e-05 -0.0523534 0)
(0.000238921 -0.0513795 0)
(-0.00188334 -0.0481175 0)
(0.00353893 -0.0479133 0)
(-8.56928e-05 -0.0469494 0)
(-0.000681287 -0.0478299 0)
(0.000326687 -0.0511404 0)
(-0.000192045 -0.0494921 0)
(-0.00160911 -0.0526146 0)
(-0.00326533 -0.0491357 0)
(-0.000473309 -0.0501852 0)
(-1.77536e-07 -0.0476654 0)
(0.00049962 -0.0498599 0)
(0.000913007 -0.0468743 0)
(0.000466552 -0.045935 0)
(-0.000754613 -0.0458359 0)
(-0.000350425 -0.0452893 0)
(0.00139792 -0.0457068 0)
(0.000665581 -0.0464444 0)
(0.000685907 -0.0487707 0)
(7.22671e-05 -0.0496265 0)
(-0.00075424 -0.0505481 0)
(0.00074073 -0.0530407 0)
(0.000404708 -0.0509156 0)
(0.000635079 -0.0530953 0)
(0.0018226 -0.0513342 0)
(0.000509739 -0.0504451 0)
(-0.000630013 -0.0481096 0)
(0.000166091 -0.0471334 0)
(-0.000923977 -0.0486757 0)
(0.000894023 -0.046767 0)
(-0.00110511 -0.0483097 0)
(0.000682078 -0.0506795 0)
(0.000460514 -0.0525116 0)
(-0.000702163 -0.0529356 0)
(-0.000945058 -0.0511705 0)
(0.00152777 -0.0531211 0)
(-0.000135417 -0.0542173 0)
(-0.00103417 -0.0554683 0)
(0.000190988 -0.0559163 0)
(0.00377353 -0.055157 0)
(0.00045095 -0.0551729 0)
(0.000566302 -0.053999 0)
(-0.000255219 -0.0533514 0)
(-0.000262791 -0.0539042 0)
(-0.000141763 -0.0525264 0)
(0.000882598 -0.0520105 0)
(-4.8322e-05 -0.0514721 0)
(-0.000796016 -0.0502491 0)
(0.000672071 -0.050382 0)
(-0.00040766 -0.0513417 0)
(0.000634861 -0.0538533 0)
(-0.000837669 -0.0529296 0)
(0.000820954 -0.0546721 0)
(-0.000208357 -0.0533529 0)
(-8.56817e-05 -0.0541348 0)
(7.48362e-05 -0.0541538 0)
(0.000211904 -0.0545236 0)
(-0.000109626 -0.0541067 0)
(-0.000266073 -0.0501819 0)
(-0.0012374 -0.0488443 0)
(-0.00220977 -0.0518846 0)
(0.00020423 -0.0500547 0)
(-0.00148056 -0.0487094 0)
(-5.92295e-05 -0.0491341 0)
(-0.000597214 -0.051075 0)
(-0.00236726 -0.0510763 0)
(-0.000265538 -0.0511861 0)
(-0.000881937 -0.0505964 0)
(-0.000592803 -0.0497045 0)
(0.00266625 -0.0490517 0)
(0.000578424 -0.0466331 0)
(-0.000248584 -0.0470428 0)
(-0.00066733 -0.0470296 0)
(-0.000348762 -0.0452934 0)
(0.000456419 -0.0462101 0)
(0.00133421 -0.049507 0)
(-0.00020091 -0.0472154 0)
(-0.000240746 -0.0509256 0)
(-0.00059935 -0.0513388 0)
(0.00139415 -0.0522921 0)
(0.000778322 -0.0513564 0)
(0.000767518 -0.0500889 0)
(0.0012926 -0.0493813 0)
(-0.000232831 -0.0474091 0)
(7.33114e-05 -0.047525 0)
(-0.000797849 -0.0458945 0)
(-0.000568895 -0.0461739 0)
(0.000156008 -0.0468905 0)
(-0.000250751 -0.0501846 0)
(0.000934392 -0.0498409 0)
(-5.11125e-05 -0.0507424 0)
(0.00130403 -0.0532341 0)
(0.00035032 -0.0536259 0)
(0.000290362 -0.0531667 0)
(-4.81216e-05 -0.0524467 0)
(0.000134757 -0.0563079 0)
(-0.000452679 -0.0540948 0)
(0.000982935 -0.0527789 0)
(-0.00240999 -0.0509282 0)
(-0.00109798 -0.0500539 0)
(-0.000223578 -0.0495601 0)
(-0.000722581 -0.04911 0)
(-0.000120269 -0.0502481 0)
(-0.000547391 -0.050509 0)
(-0.000485306 -0.0495 0)
(0.000517128 -0.0499963 0)
(0.000333265 -0.0514917 0)
(-0.000928549 -0.053432 0)
(-0.00133624 -0.0540115 0)
(-0.00127857 -0.0520045 0)
(-0.000424108 -0.0527391 0)
(0.00112888 -0.0551417 0)
(0.000364917 -0.0568143 0)
(0.000492674 -0.0567108 0)
(0.000778683 -0.0571255 0)
(0.000362588 -0.057137 0)
(0.000352251 -0.0559105 0)
(-0.000549442 -0.0561204 0)
(-0.000696376 -0.0521303 0)
(-0.0002854 -0.0509694 0)
(-0.000239171 -0.051094 0)
(0.000361304 -0.0507799 0)
(0.000115836 -0.0512051 0)
(-5.58545e-05 -0.0512242 0)
(-0.000443825 -0.0538404 0)
(-0.000731169 -0.0523354 0)
(-0.000135625 -0.0533503 0)
(0.000101644 -0.0522963 0)
(-0.000163946 -0.0519335 0)
(-0.000344572 -0.0514688 0)
(2.26002e-05 -0.0492213 0)
(-0.000288537 -0.0499462 0)
(-0.000873608 -0.0476373 0)
(-0.000264184 -0.0474468 0)
(-0.000635689 -0.0466402 0)
(0.000198434 -0.0500418 0)
(0.00284983 -0.0490374 0)
(0.000932681 -0.0503758 0)
(0.00131329 -0.0501904 0)
(0.000927368 -0.0494587 0)
(0.000669385 -0.0482788 0)
(-0.000656476 -0.0480018 0)
(-0.00145565 -0.0491854 0)
(-0.0017801 -0.0489128 0)
(0.000440804 -0.0476497 0)
(-0.000811765 -0.0490861 0)
(-0.000316472 -0.0511985 0)
(-4.98086e-05 -0.052392 0)
(0.00107681 -0.0507507 0)
(-4.04527e-05 -0.0494712 0)
(9.57569e-05 -0.0510836 0)
(-0.000123219 -0.0511234 0)
(8.38353e-05 -0.0520543 0)
(0.00040177 -0.0528391 0)
(-0.00120166 -0.0527302 0)
(0.000170672 -0.0492911 0)
(-0.000483432 -0.0479161 0)
(-0.000146633 -0.0494209 0)
(-1.27685e-05 -0.0491438 0)
(2.50381e-05 -0.047872 0)
(-0.000339544 -0.0486699 0)
(0.00100371 -0.0492981 0)
(0.000663867 -0.0488356 0)
(0.000828828 -0.0480238 0)
(-0.000572755 -0.0515258 0)
(-0.00115374 -0.0556545 0)
(-0.000955329 -0.0525858 0)
(-0.000570326 -0.0526573 0)
(-0.000308199 -0.0535549 0)
(-3.38668e-06 -0.055435 0)
(0.000559103 -0.0542008 0)
(0.00093505 -0.0562087 0)
(0.000913984 -0.0571163 0)
(0.00123632 -0.0592485 0)
(0.00133569 -0.0578825 0)
(-0.00116459 -0.056014 0)
(0.000125841 -0.0557095 0)
(-0.000773041 -0.0536896 0)
(-0.000591932 -0.05495 0)
(-9.97559e-05 -0.0534214 0)
(0.000245326 -0.0521149 0)
(0.000793326 -0.0504618 0)
(0.000486134 -0.0505229 0)
(0.00157846 -0.0507718 0)
(0.000360998 -0.0524659 0)
(0.00021535 -0.0537774 0)
(0.000113877 -0.0543263 0)
(-0.000331934 -0.0540595 0)
(5.53507e-05 -0.0518575 0)
(-0.00107264 -0.0502187 0)
(-0.00230211 -0.0507004 0)
(-0.00142279 -0.0501019 0)
(-0.000717426 -0.047107 0)
(0.000199263 -0.0489147 0)
(0.00252394 -0.0500424 0)
(0.000426317 -0.0481464 0)
(-0.000446348 -0.0491764 0)
(0.000903284 -0.0495949 0)