/*--------------------------------*- C++ -*----------------------------------*\
  =========                 |
  \\      /  F ield         | OpenFOAM: The Open Source CFD Toolbox
   \\    /   O peration     | Website:  https://openfoam.org
    \\  /    A nd           | Version:  12
     \\/     M anipulation  |
\*---------------------------------------------------------------------------*/
FoamFile
{
    format      ascii;
    class       IOPosition;
    location    "0.7/lagrangian/cloud";
    object      positions;
}
// * * * * * * * * * * * * * * * * * * * * * * * * * * * * * * * * * * * * * //

5376
(
(1.74249e-07 0.5 1.08098e-08 0.5) 0 7376 1
(1.74437e-07 0.5 1.005e-08 0.5) 0 7376 1
(1.74614e-07 0.5 0.000214529 0.499785) 0 7376 2
(1.74779e-07 0.5 0.0206611 0.479339) 0 7376 2
(1.74935e-07 0.5 0.0397248 0.460275) 0 7376 2
(1.75082e-07 0.5 0.0878533 0.412147) 0 7376 2
(1.75219e-07 0.5 0.0620001 0.438) 0 7376 2
(1.75349e-07 0.5 0.133791 0.366209) 0 7376 2
(1.7547e-07 0.5 0.139754 0.360246) 0 7376 2
(0.0792948 0.460353 0.0792843 0.381068) 0 7376 2
(0.18443 0.407785 0.151016 0.256769) 0 7375 1
(0.183529 0.408235 0.0449349 0.363301) 0 7375 1
(0.192015 0.403993 0.080741 0.323252) 0 7375 1
(0.158199 0.420901 0.0710788 0.349822) 0 7375 1
(0.00404378 0.149995 0.497978 0.347983) 0 7375 2
(0.0790245 0.460488 0.218595 0.241893) 1 7377 1
(0.111836 0.444082 0.00851999 0.435562) 1 7377 1
(0.408652 0.266304 0.295674 0.0293697) 1 7377 2
(0.510243 0.244878 0.00357763 0.241301) 1 2 1
(0.301119 0.349441 0.228097 0.121344) 1 2 1
(0.179425 0.173864 0.410288 0.236424) 1 2 2
(0.0665448 0.212331 0.254396 0.466728) 2 2 2
(0.762334 0.118833 0.0509538 0.0678793) 2 5 2
(0.487712 0.0316469 0.256144 0.224497) 3 6 2
(0.507564 0.118832 0.127386 0.246218) 4 9 1
(0.381593 0.309204 0.134594 0.174609) 5 7381 1
(0.423282 0.288359 0.280879 0.00748047) 6 7382 1
(0.416435 0.291782 0.219445 0.0723374) 7 7383 1
(0.0572479 0.303087 0.168289 0.471376) 9 16 2
(0.426881 0.0205302 0.28656 0.266029) 9 7385 2
(0.365594 0.317203 0.239343 0.0778601) 11 20 1
(0.360518 0.0172385 0.302502 0.319741) 12 25 1
(0.216007 0.381207 0.0107894 0.391996) 14 29 1
(0.373939 0.313031 0.0429712 0.27006) 15 28 1
(0.325279 0.33736 0.158184 0.179177) 16 33 2
(0.199141 0.0918222 0.308607 0.40043) 17 32 2
(0.225485 0.0968125 0.387257 0.290445) 17 34 2
(0.486604 0.256698 0.137882 0.118816) 18 7394 1
(0.371235 0.314383 0.260946 0.0534369) 19 7395 1
(0.00498148 0.497509 0.214114 0.283396) 19 38 1
(0.295964 0.352018 0.302933 0.0490848) 20 40 1
(0.0967912 0.451604 0.161243 0.290361) 22 42 1
(0.034264 0.482868 0.22511 0.257758) 23 44 1
(0.290754 0.354623 0.0798962 0.274727) 24 46 1
(0.273914 0.363043 0.095326 0.267717) 25 48 1
(0.369683 0.0379493 0.315158 0.277209) 26 7402 2
(0.104653 0.38434 0.0633339 0.447673) 28 54 2
(0.506528 0.218014 0.0287222 0.246736) 30 61 1
(0.00418846 0.201168 0.296738 0.497906) 32 62 2
(0.519468 0.0412355 0.240266 0.199031) 32 7408 2
(0.408791 0.117675 0.295605 0.177929) 33 7409 2
(0.452774 0.131398 0.142214 0.273613) 36 73 1
(0.0826566 0.079032 0.37964 0.458672) 38 74 2
(0.0956674 0.452166 0.322804 0.129363) 114 79 2
(0.0240871 0.487956 0.368229 0.119728) 41 83 2
(0.00796655 0.496017 0.368311 0.127706) 115 227 1
(0.439789 0.280106 0.24342 0.0366851) 39 78 1
(0.508212 0.245894 0.202428 0.0434661) 41 7417 1
(0.122208 0.438896 0.340461 0.0984353) 42 82 1
(0.5857 0.00999182 0.20715 0.197158) 42 7418 2
(0.219034 0.285905 0.104578 0.390483) 43 87 1
(0.229919 0.255883 0.129157 0.38504) 44 89 1
(0.235623 0.2602 0.121988 0.382188) 45 91 1
(0.217629 0.391186 0.370277 0.0209081) 46 93 2
(0.227978 0.386011 0.115588 0.270422) 47 95 2
(0.0162713 0.106508 0.385356 0.491864) 48 94 2
(0.138032 0.0749078 0.356076 0.430984) 48 97 1
(0.0132265 0.493387 0.290448 0.202938) 48 96 1
(0.51494 0.0164463 0.24253 0.226084) 49 7425 2
(0.626757 0.186621 0.0818057 0.104816) 50 7426 1
(0.2555 0.37225 0.110048 0.262202) 51 100 1
(0.14047 0.429765 0.238084 0.191681) 52 105 2
(0.407928 0.296036 0.284707 0.0113295) 52 104 1
(0.367427 0.254819 0.061468 0.316287) 54 109 1
(0.338665 0.28741 0.0432574 0.330668) 55 111 1
(1.72434e-07 0.499997 2.64544e-06 0.5) 75 7451 1
(1.73008e-07 0.499997 2.66979e-06 0.5) 75 7451 1
(1.12956e-07 0.5 0.0421948 0.457805) 0 7376 2
(1.16868e-07 0.236983 0.263017 0.5) 0 7376 1
(0.202413 0.398794 0.0806457 0.318148) 0 7375 1
(0.330878 0.320903 0.0136574 0.334561) 0 7376 1
(0.481757 0.259122 0.203236 0.0558856) 0 7376 2
(0.463518 0.0429802 0.268241 0.225261) 0 7375 2
(1.73521e-07 0.5 0.072212 0.427788) 75 7451 2
(0.410961 0.29452 0.283209 0.0113108) 0 0 1
(0.0410997 0.47945 0.00401637 0.475434) 0 1 2
(0.0187436 0.490628 0.169733 0.320895) 75 7451 2
(0.135081 0.43246 0.0706001 0.361859) 75 7451 2
(0.246288 0.376856 0.37601 0.000845959) 75 1 2
(0.193716 0.202888 0.403142 0.200254) 0 7375 2
(0.21993 0.390035 0.291589 0.0984456) 75 1 2
(0.13867 0.430665 0.153642 0.277023) 75 1 2
(0.132641 0.433679 0.0563076 0.377372) 75 1 2
(0.0807802 0.45961 0.0824899 0.37712) 1 7377 1
(0.737905 0.110132 0.131047 0.0209149) 1 7377 2
(0.36008 0.31996 0.0752934 0.244667) 76 3 2
(0.420702 0.206399 0.289649 0.08325) 1 2 2
(0.0995657 0.450217 0.0167639 0.433453) 76 3 2
(0.277808 0.361096 0.0039481 0.357148) 76 3 2
(0.0372415 0.280635 0.481379 0.200745) 76 3 1
(0.106533 0.131481 0.446733 0.315252) 2 4 2
(0.264605 0.367697 0.34854 0.0191572) 79 157 1
(0.0425448 0.478728 0.0240319 0.454696) 81 159 1
(0.00293035 0.454546 0.498535 0.0439884) 82 15 1
(0.00061844 0.499691 0.383511 0.11618) 84 19 2
(0.147239 0.426381 0.30296 0.123421) 85 21 2
(0.399721 0.300139 0.0653501 0.234789) 81 162 2
(0.0689948 0.465503 0.12078 0.344723) 79 158 2
(0.311269 0.0500153 0.29435 0.344366) 82 161 2
(0.005852 0.237718 0.497074 0.259356) 82 163 2
(0.428658 0.114164 0.171507 0.285671) 83 166 1
(0.3036 0.3482 0.194316 0.153884) 88 27 2
(0.385368 0.307316 0.00537251 0.301943) 90 31 2
(0.44372 0.27814 0.0666167 0.211523) 92 181 1
(0.147009 0.426495 0.284224 0.142271) 93 183 1
(0.103539 0.448231 0.311089 0.137142) 19 39 2
(0.105117 0.447442 0.3143 0.133142) 93 185 1
(0.409623 0.295189 0.269191 0.0259974) 166 182 2
(0.100401 0.440237 0.449799 0.00956252) 168 186 1
(0.736446 0.131777 0.122157 0.00962056) 94 187 1
(0.0119009 0.49405 0.0589314 0.435118) 99 49 2
(0.181741 0.40913 0.152307 0.256823) 26 53 2
(0.159275 0.420363 0.0647045 0.355658) 102 201 1
(0.162818 0.418591 0.0684841 0.350107) 103 203 1
(0.0663523 0.466824 0.102845 0.363979) 106 209 1
(0.0248711 0.330606 0.156958 0.487564) 33 67 1
(0.142951 0.188831 0.428524 0.239693) 178 206 1
(0.0276927 0.435185 0.0509689 0.486154) 105 210 1
(0.278708 0.329623 0.0310229 0.360646) 106 212 1
(0.309716 0.345142 0.0839508 0.261191) 107 214 2
(0.0092743 0.229703 0.495363 0.26566) 107 213 2
(0.408031 0.127223 0.168762 0.295985) 108 216 1
(0.003817 0.283787 0.498092 0.214304) 111 221 2
(0.197368 0.027499 0.373817 0.401316) 114 228 1
(0.536495 0.065369 0.231753 0.166384) 115 229 2
(0.842331 0.0429302 0.0788344 0.0359042) 116 83 1
(0.458534 0.270733 0.200234 0.0704986) 117 85 2
(0.458858 0.202274 0.270571 0.0682976) 187 224 1
(0.564905 0.217548 0.00600737 0.21154) 189 374 1
(0.237177 0.00628345 0.381411 0.375128) 190 230 1
(0.211691 0.104417 0.394154 0.289737) 191 232 1
(0.0847779 0.446522 0.457611 0.0110894) 192 234 1
(0.108666 0.445667 0.223193 0.222474) 193 236 2
(0.136121 0.43194 0.294778 0.137162) 194 238 2
(0.287559 0.356221 0.0331623 0.323058) 196 388 1
(0.309367 0.345317 0.173496 0.171821) 197 244 2
(0.293228 0.353386 0.344599 0.00878738) 124 247 1
(0.101734 0.449133 0.318618 0.130515) 199 248 2
(0.480185 0.259907 0.223271 0.036636) 198 246 2
(0.446188 0.0176111 0.276906 0.259295) 199 248 1
(1.75813e-07 0.5 0.5 3.53935e-09) 150 7452 2
(1.75841e-07 0.5 0.5 3.37574e-09) 150 7452 2
(1.91872e-07 0.5 0.032526 0.467474) 75 7451 2
(1.75868e-07 0.5 0.14379 0.35621) 150 7452 2
(0.111747 0.444127 0.0247593 0.419367) 75 1 2
(0.112101 0.435621 0.443949 0.00832876) 75 1 1
(1.14391e-07 0.5 0.210051 0.289949) 75 7451 2
(0.00245415 0.498773 0.27156 0.227213) 75 7451 2
(0.0925841 0.377559 0.453708 0.076149) 75 1 1
(0.0466194 0.47669 0.344297 0.132393) 75 7451 2
(0.326448 0.336776 0.175122 0.161654) 75 7451 2
(0.125048 0.360477 0.437476 0.0769992) 75 1 1
(0.631585 0.184207 0.0324645 0.151743) 75 7451 2
(0.269128 0.365436 0.297358 0.0680781) 150 150 2
(0.332863 0.333568 0.0129877 0.320581) 150 150 2
(0.410908 0.294546 0.0628441 0.231702) 150 150 2
(0.196761 0.368594 0.40162 0.0330256) 150 150 1
(0.604024 0.197988 0.121339 0.0766487) 75 1 2
(0.207147 0.235102 0.396426 0.161324) 75 1 1
(0.0462273 0.115904 0.360982 0.476886) 0 1 1
(0.0489163 0.475542 0.437931 0.0376106) 76 3 2
(0.155154 0.422423 0.383929 0.0384939) 76 3 2
(0.141511 0.429245 0.394976 0.0342683) 76 3 2
(0.424136 0.287932 0.26472 0.0232123) 76 3 2
(0.369141 0.31543 0.0709627 0.244467) 76 149 1
(0.275544 0.362228 0.0568176 0.30541) 151 152 2
(0.442932 0.235604 0.278534 0.0429302) 151 152 1
(0.393157 0.140574 0.303421 0.162848) 151 152 1
(0.430196 0.171447 0.284902 0.113455) 76 151 2
(0.139161 0.39474 0.0356794 0.43042) 77 151 2
(0.610832 0.0675512 0.194584 0.127033) 77 153 2
(0.305803 0.175109 0.347098 0.17199) 151 300 2
(0.0533764 0.473312 0.391853 0.0814585) 152 300 1
(0.740867 0.12012 0.00944621 0.129566) 152 300 2
(0.290436 0.307737 0.354782 0.0470455) 152 302 2
(0.672414 0.163793 0.00686854 0.156924) 153 305 2
(0.136817 0.431592 0.296259 0.135332) 155 160 2
(0.371584 0.314208 0.222705 0.091503) 156 162 2
(0.531112 0.234444 0.081267 0.153177) 157 164 2
(0.409825 0.182676 0.295088 0.112411) 158 166 1
(0.231538 0.384231 0.0738577 0.310373) 159 168 2
(0.210984 0.394508 0.365524 0.0289837) 160 170 2
(0.0411632 0.479418 0.162599 0.316819) 86 172 2
(0.0142646 0.492868 0.217621 0.275247) 162 174 2
(0.0417501 0.0219457 0.479125 0.457179) 163 176 1
(0.292918 0.353541 0.214026 0.139515) 167 330 1
(0.151226 0.424387 0.227156 0.197232) 168 334 1
(0.0701708 0.0964787 0.464915 0.368436) 169 188 1
(0.0738037 0.158858 0.463098 0.30424) 96 191 2
(0.774588 0.0497502 0.0629559 0.112706) 98 196 1
(0.407392 0.015561 0.296304 0.280743) 171 192 1
(0.00388724 0.498056 0.13592 0.362136) 173 196 2
(0.100091 0.449954 0.322785 0.127169) 173 344 1
(0.0572552 0.471372 0.357656 0.113716) 248 345 2
(0.256705 0.371647 0.00905059 0.362597) 174 347 2
(0.324565 0.200406 0.137311 0.337717) 174 347 1
(0.403294 0.298353 0.212497 0.0858553) 175 349 2
(0.305774 0.304761 0.0423518 0.347113) 176 351 1
(0.655703 0.00627852 0.16587 0.172149) 180 359 1
(0.596283 0.201858 0.151613 0.0502451) 182 362 1
(0.165539 0.41723 0.329484 0.0877463) 183 364 1
(0.0505389 0.0766954 0.398035 0.474731) 109 218 1
(0.0486025 0.475699 0.141162 0.334537) 257 363 2
(0.0371907 0.448647 0.481405 0.0327577) 258 365 1
(0.430536 0.220191 0.0645411 0.284732) 184 367 1
(0.0444603 0.0125102 0.47777 0.46526) 184 366 2
(0.240615 0.379692 0.254318 0.125374) 187 373 2
(0.402917 0.298541 0.034162 0.264379) 188 375 2
(0.0676137 0.0343881 0.466193 0.431805) 263 375 1
(0.13449 0.152509 0.280246 0.432755) 189 377 1
(0.143459 0.0352927 0.42827 0.392978) 190 378 2
(0.0258811 0.255289 0.487059 0.231771) 266 381 1
(0.0459836 0.318155 0.477008 0.158853) 267 383 1
(0.0344536 0.399119 0.482773 0.083654) 268 385 1
(0.313716 0.343142 0.0708797 0.272262) 269 387 2
(1.74733e-07 0.499999 9.97514e-07 0.5) 225 7453 1
(1.74856e-07 0.499999 9.98968e-07 0.5) 225 7453 1
(1.32794e-07 0.5 0.0520168 0.447983) 150 7452 2
(1.74972e-07 0.5 0.153336 0.346664) 225 7453 2
(1.33839e-07 0.5 0.00341839 0.496582) 150 7452 2
(0.261713 0.0348887 0.334255 0.369144) 75 7451 1
(1.34859e-07 0.5 0.0660969 0.433903) 150 7452 2
(0.412851 0.293574 0.234432 0.0591421) 75 150 2
(0.126181 0.412352 0.0245576 0.436909) 75 150 1
(0.190824 0.404588 0.27264 0.131948) 75 150 2
(0.1459 0.256321 0.170729 0.42705) 75 150 1
(0.36901 0.084614 0.230881 0.315495) 75 150 1
(0.402433 0.0202456 0.278538 0.298784) 75 150 1
(0.163112 0.0442425 0.374202 0.418444) 75 150 1
(0.27313 0.333936 0.363435 0.0294994) 225 299 1
(0.0303061 0.0300212 0.454826 0.484847) 75 150 1
(0.499446 0.250277 0.215164 0.0351129) 150 298 1
(0.839388 0.0803061 0.0177576 0.0625485) 150 298 1
(0.279357 0.360322 0.323481 0.0368407) 150 298 1
(0.0566085 0.471696 0.17561 0.296086) 151 152 2
(0.301609 0.349195 0.271237 0.0779582) 151 152 2
(0.0627632 0.468618 0.128004 0.340614) 151 152 2
(0.099027 0.450487 0.000604351 0.449882) 151 298 1
(0.0859831 0.457008 0.453443 0.00356505) 225 447 1
(0.186959 0.40652 0.158891 0.247629) 151 298 1
(0.575327 0.212336 0.179479 0.0328574) 151 152 2
(0.398344 0.300828 0.161275 0.139553) 226 301 2
(0.657493 0.171254 0.161431 0.00982251) 226 301 2
(0.79279 0.103605 0.00675376 0.0968514) 226 447 1
(0.835325 0.0823373 0.0456432 0.0366941) 226 301 2
(0.376167 0.236619 0.311917 0.0752972) 226 301 1
(0.135988 0.224651 0.432006 0.207355) 226 301 1
(0.224336 0.387832 0.214869 0.172963) 226 449 1
(0.149355 0.204247 0.221076 0.425322) 227 449 2
(0.586805 0.206598 0.17873 0.0278678) 227 449 1
(0.231415 0.207929 0.384293 0.176364) 227 451 2
(0.254899 0.37255 0.0633533 0.309197) 229 456 2
(0.131146 0.434427 0.0143294 0.420098) 154 307 2
(0.131621 0.187487 0.43419 0.246702) 229 307 1
(0.185438 0.407281 0.234163 0.173118) 230 309 2
(0.263376 0.00495997 0.368312 0.363352) 230 309 1
(0.30831 0.279006 0.345845 0.066839) 231 311 1
(0.249313 0.364897 0.375343 0.010446) 232 313 1
(0.0546043 0.472698 0.405296 0.0674016) 234 317 2
(0.0182485 0.490876 0.477663 0.0132125) 235 319 2
(0.321301 0.00888272 0.330467 0.33935) 160 319 1
(0.0113192 0.353079 0.49434 0.141262) 236 321 1
(0.244823 0.00789814 0.377588 0.36969) 162 322 2
(0.0305022 0.484749 0.0319499 0.452799) 164 327 2
(0.193576 0.403212 0.141586 0.261625) 240 329 2
(0.165989 0.237078 0.417006 0.179927) 241 331 1
(0.00702284 0.32044 0.176048 0.496489) 167 333 1
(0.161606 0.0977533 0.419197 0.321444) 243 335 1
(0.154951 0.422525 0.270214 0.15231) 170 339 2
(0.105482 0.31835 0.128909 0.447259) 246 487 2
(0.128848 0.123687 0.435576 0.311889) 246 489 2
(0.215515 0.38475 0.00749238 0.392242) 248 494 1
(0.358927 0.187215 0.320537 0.133322) 249 495 2
(0.32824 0.33588 0.148219 0.187661) 251 500 2
(0.580221 0.13535 0.0745401 0.20989) 252 499 2
(0.807825 0.0176818 0.0960877 0.0784059) 253 355 1
(0.22775 0.386125 0.146353 0.239772) 255 359 2
(0.0945914 0.321512 0.131192 0.452704) 256 507 2
(0.120326 0.439837 0.0132761 0.426561) 331 510 2
(0.230675 0.269669 0.114994 0.384662) 257 512 1
(0.248389 0.254639 0.121167 0.375806) 258 514 1
(0.183427 0.146253 0.262034 0.408286) 260 515 2
(0.671554 0.084937 0.0792861 0.164223) 261 517 2
(0.0391739 0.447213 0.0332 0.480413) 261 520 1
(0.405199 0.2974 0.0194292 0.277971) 262 522 2
(0.0288317 0.155194 0.485584 0.33039) 262 521 2
(0.153042 0.0518167 0.371662 0.423479) 264 523 2
(0.54647 0.226765 0.203779 0.0229862) 265 528 2
(0.105929 0.447036 0.309282 0.137753) 266 530 2
(0.0871756 0.456412 0.285509 0.170903) 342 532 2
(1.74939e-07 0.499999 4.19316e-07 0.5) 300 7454 1
(1.75038e-07 0.499999 4.20598e-07 0.5) 300 7454 1
(1.02889e-07 0.5 0.0278848 0.472115) 225 7453 2
(1.75132e-07 0.5 0.161481 0.338518) 300 7454 2
(1.06543e-07 0.5 0.0138086 0.486191) 225 7453 2
(0.0653887 0.467306 0.00747014 0.459836) 150 299 2
(0.138243 0.430878 0.366505 0.0643736) 225 299 2
(0.131567 0.434216 0.321664 0.112552) 225 299 2
(0.18241 0.061014 0.408795 0.347781) 225 299 1
(0.764606 0.0613917 0.117697 0.0563052) 150 298 2
(0.176531 0.0284487 0.411735 0.383286) 225 299 1
(0.174622 0.000913681 0.412689 0.411775) 225 299 1
(0.147329 0.426335 0.424653 0.00168289) 225 447 1
(0.146809 0.426595 0.396899 0.0296967) 225 447 1
(0.133261 0.43337 0.388207 0.0451625) 225 447 1
(0.131262 0.434369 0.400476 0.0338934) 225 447 1
(0.115947 0.442027 0.400839 0.0411872) 225 447 1
(0.0980155 0.450992 0.391448 0.0595439) 225 447 1
(0.722232 0.138884 0.00793504 0.130949) 225 447 1
(0.465178 0.022278 0.245133 0.267411) 150 299 1
(0.12356 0.43822 0.401851 0.0363694) 225 447 1
(0.130817 0.434591 0.391681 0.0429107) 225 447 1
(0.237827 0.127772 0.381086 0.253314) 300 448 1
(0.176944 0.411528 0.17592 0.235608) 301 596 1
(0.148235 0.425883 0.285477 0.140405) 301 596 1
(0.389265 0.305368 0.0702188 0.235149) 301 596 1
(0.372432 0.313784 0.284828 0.0289564) 301 596 1
(0.362689 0.318655 0.0940074 0.224648) 301 450 2
(0.657974 0.171013 0.082944 0.088069) 301 596 1
(0.776095 0.111952 0.111698 0.000254233) 301 450 2
(0.216785 0.3154 0.391607 0.076207) 301 450 1
(0.560873 0.107172 0.219564 0.112392) 301 450 1
(0.311096 0.344452 0.250288 0.0941643) 301 598 1
(0.0230839 0.488458 0.10002 0.388438) 301 598 1
(0.876253 0.0310467 0.030827 0.0618737) 302 598 2
(0.417719 0.169072 0.122069 0.291141) 303 600 2
(0.483074 0.258463 0.0511073 0.207355) 304 605 2
(0.174044 0.412978 0.187589 0.225389) 305 607 2
(0.115904 0.442048 0.126286 0.315762) 381 609 2
(0.24943 0.127393 0.375285 0.247892) 306 460 1
(0.488478 0.0940551 0.255761 0.161706) 307 462 1
(0.527465 0.236267 0.154631 0.081636) 308 464 2
(0.369943 0.315029 0.182345 0.132684) 233 464 2
(0.186244 0.406878 0.202959 0.203919) 234 466 2
(0.0290607 0.0619605 0.423509 0.48547) 235 465 2
(0.200064 0.320393 0.0795752 0.399968) 235 468 1
(0.250433 0.374784 0.0601431 0.31464) 236 470 2
(0.228304 0.0388882 0.34696 0.385848) 237 469 2
(0.0683815 0.105717 0.360092 0.465809) 238 471 2
(0.322302 0.338849 0.269612 0.0692371) 239 476 2
(0.145259 0.203546 0.223824 0.42737) 240 478 1
(0.148107 0.059359 0.366587 0.425946) 241 480 1
(0.20355 0.398225 0.00897681 0.389248) 243 484 2
(0.225285 0.131979 0.255379 0.387358) 244 486 1
(0.141227 0.429386 0.112174 0.317212) 321 636 1
(0.417773 0.153536 0.291114 0.137577) 322 640 2
(0.31779 0.0497637 0.291341 0.341105) 323 643 1
(0.264306 0.0429937 0.367847 0.324853) 324 644 2
(0.138368 0.0719169 0.430816 0.358899) 325 646 2
(0.191406 0.0700341 0.404297 0.334263) 326 648 2
(0.321484 0.0219188 0.317339 0.339258) 327 651 1
(0.376587 0.129216 0.18249 0.311706) 328 653 1
(0.443738 0.236573 0.0415585 0.278131) 329 655 1
(0.259114 0.322715 0.047728 0.370443) 330 657 1
(0.219087 0.0236547 0.366802 0.390456) 331 659 1
(0.281604 0.186336 0.172863 0.359198) 332 661 1
(0.302335 0.348832 0.276915 0.0719177) 333 663 2
(0.346566 0.326717 0.0342229 0.292494) 334 665 2
(0.00298373 0.248816 0.498508 0.249692) 334 664 2
(0.210471 0.169133 0.394764 0.225631) 335 666 2
(0.311257 0.207085 0.137286 0.344371) 336 669 1
(0.352285 0.323858 0.251622 0.072236) 337 671 2
(0.383958 0.221037 0.0869844 0.308021) 338 673 1
(0.0332762 0.369822 0.11354 0.483362) 340 674 2
(0.357833 0.159814 0.161269 0.321083) 340 677 1
(1.74457e-07 0.499999 8.00379e-07 0.5) 375 7455 1
(1.74579e-07 0.499999 8.03472e-07 0.5) 375 7455 1
(1.4368e-07 0.5 0.0415821 0.458418) 300 7454 2
(1.74696e-07 0.5 0.16727 0.33273) 375 7455 2
(0.687633 0.156184 0.0457248 0.110459) 225 7453 2
(1.45153e-07 0.5 0.000659442 0.49934) 300 7454 2
(0.717597 0.141202 0.104787 0.0364143) 225 7453 2
(1.46605e-07 0.5 0.0783539 0.421646) 300 7454 2
(0.232311 0.216404 0.383844 0.167441) 300 448 1
(0.240707 0.243067 0.379646 0.136579) 300 448 1
(0.242871 0.082563 0.378565 0.296002) 300 448 1
(0.247018 0.112918 0.376491 0.263573) 300 448 1
(0.237976 0.0263351 0.381012 0.354677) 300 448 1
(0.29113 0.354435 0.322874 0.0315605) 300 596 1
(0.18735 0.406325 0.319427 0.086898) 300 596 1
(0.203253 0.398373 0.319616 0.078757) 300 596 1
(0.21635 0.391825 0.329536 0.0622893) 300 596 1
(0.248307 0.0672236 0.375847 0.308623) 300 448 1
(0.271258 0.00102694 0.364371 0.363344) 300 448 1
(0.244199 0.377901 0.347836 0.0300652) 300 596 1
(0.275253 0.362374 0.338294 0.02408) 300 596 1
(0.133575 0.433212 0.0967008 0.336511) 301 596 1
(0.107627 0.174129 0.272058 0.446187) 301 596 2
(0.225943 0.387029 0.300012 0.0870163) 376 745 1
(0.181658 0.409171 0.296083 0.113088) 376 745 1
(0.353976 0.323012 0.171672 0.151341) 376 745 1
(0.587236 0.206382 0.00389846 0.202483) 376 745 1
(0.420803 0.289599 0.159378 0.13022) 376 599 2
(0.598315 0.200842 0.199817 0.00102492) 376 745 1
(0.518397 0.240802 0.0115242 0.229277) 376 599 2
(0.518755 0.109801 0.240623 0.130822) 376 599 1
(0.426822 0.286589 0.215379 0.0712102) 376 747 1
(0.163526 0.418237 0.387649 0.0305881) 376 747 1
(0.107152 0.446424 0.355294 0.0911305) 376 747 1
(0.295345 0.352327 0.172155 0.180172) 377 747 1
(0.626992 0.0150976 0.186504 0.171406) 377 749 2
(0.658953 0.0500661 0.170524 0.120457) 378 751 2
(0.371933 0.29208 0.0219533 0.314034) 379 754 1
(0.242532 0.3139 0.0648341 0.378734) 380 756 1
(0.149549 0.208898 0.216327 0.425226) 381 758 1
(0.440102 0.252337 0.279949 0.0276121) 383 613 1
(0.394837 0.246267 0.302581 0.0563147) 384 615 1
(0.417288 0.291356 0.0849287 0.206427) 385 617 2
(0.376052 0.311974 0.0935929 0.218381) 386 765 1
(0.220098 0.367711 0.0222394 0.389951) 311 619 1
(0.251499 0.374251 0.240419 0.133831) 312 621 2
(0.275236 0.0105307 0.351851 0.362382) 313 620 2
(0.148431 0.0803204 0.425784 0.345464) 313 622 2
(0.29546 0.11434 0.23793 0.35227) 314 625 1
(0.276983 0.265286 0.0962227 0.361508) 315 627 1
(0.274217 0.309295 0.0535959 0.362891) 316 629 1
(0.289987 0.254005 0.101002 0.355007) 317 631 1
(0.158286 0.0650983 0.420857 0.355759) 318 632 2
(0.289888 0.355056 0.0535321 0.301524) 320 637 2
(0.179795 0.410103 0.094977 0.315126) 397 641 2
(0.400058 0.160846 0.139125 0.299971) 398 792 1
(0.518973 0.240513 0.131947 0.108566) 399 794 2
(0.305186 0.0671141 0.280293 0.347407) 400 793 2
(0.0260284 0.156276 0.486986 0.330709) 400 795 2
(0.335165 0.0200962 0.332418 0.312321) 401 797 2
(0.344799 0.176102 0.151499 0.327601) 402 800 1
(0.508615 0.245692 0.212247 0.0334459) 403 802 2
(0.336166 0.331917 0.238524 0.0933926) 404 804 2
(0.222844 0.32338 0.0651976 0.388578) 405 806 1
(0.0161159 0.491942 0.476276 0.0156665) 406 808 2
(0.119681 0.440159 0.09328 0.346879) 482 810 2
(0.112329 0.443836 0.203966 0.239869) 483 812 2
(0.158972 0.420514 0.354171 0.0663434) 484 814 2
(0.203838 0.0869329 0.398081 0.311148) 409 813 2
(0.434413 0.0770659 0.205728 0.282794) 410 816 1
(0.22669 0.386655 0.324615 0.0620402) 486 818 2
(0.226885 0.0272035 0.386558 0.359354) 486 818 1
(0.219735 0.390133 0.0467516 0.343381) 487 820 2
(0.0103385 0.494831 0.356793 0.138038) 487 968 1
(0.203156 0.0211286 0.398422 0.377293) 488 822 1
(1.74939e-07 0.5 0.5 6.56466e-09) 450 7456 2
(1.75038e-07 0.5 0.5 6.40044e-09) 450 7456 2
(0.778283 0.110858 0.04243 0.0684284) 300 7454 2
(1.75132e-07 0.5 0.137766 0.362234) 450 7456 2
(1.74806e-07 0.5 0.0226116 0.477388) 375 7455 2
(0.170991 0.414504 0.335984 0.0785203) 375 597 2
(0.235077 0.382462 0.0967284 0.285733) 375 597 2
(0.235111 0.382444 0.0680349 0.314409) 375 597 2
(1.13162e-07 0.5 0.102453 0.397547) 375 7455 2
(0.784682 0.107659 0.07487 0.0327888) 300 7454 2
(0.362645 0.318677 0.314853 0.00382419) 375 745 1
(0.360035 0.319983 0.302622 0.0173609) 375 745 1
(0.449099 0.0753754 0.27545 0.200075) 375 597 1
(0.270235 0.364883 0.327052 0.0378305) 375 745 1
(0.230354 0.384823 0.318991 0.0658325) 375 745 1
(0.18074 0.40963 0.33883 0.0707999) 375 745 1
(0.144975 0.427512 0.311111 0.116402) 375 745 1
(0.0988187 0.450591 0.27492 0.175671) 375 745 1
(0.164328 0.417836 0.124935 0.2929) 375 745 1
(0.119931 0.440034 0.156084 0.28395) 375 745 1
(0.150725 0.424638 0.281916 0.142721) 375 745 1
(0.187873 0.406064 0.173807 0.232257) 375 745 1
(0.188594 0.405703 0.0972659 0.308437) 375 745 1
(0.303666 0.098445 0.348167 0.249722) 450 746 1
(0.48367 0.0587677 0.258165 0.199397) 450 746 1
(0.309466 0.345267 0.15368 0.191586) 450 894 1
(0.504422 0.205334 0.0424554 0.247789) 451 894 2
(0.442231 0.257237 0.278885 0.0216476) 451 748 1
(0.72151 0.109673 0.139245 0.0295725) 451 748 1
(0.924575 0.0377127 0.0159702 0.0217425) 451 896 1
(0.071127 0.464436 0.423159 0.0412771) 451 896 1
(0.0430711 0.478464 0.0753328 0.403132) 452 896 1
(0.0366796 0.48166 0.033818 0.447842) 452 896 1
(0.00410069 0.49795 0.200477 0.297473) 451 896 1
(0.164929 0.417536 0.400754 0.0167817) 452 896 1
(0.756983 0.121509 0.0931083 0.0284003) 452 899 2
(0.0591959 0.368297 0.102106 0.470402) 453 898 2
(0.379498 0.11233 0.197921 0.310251) 453 901 1
(0.462951 0.159169 0.109355 0.268524) 454 903 1
(0.357634 0.224679 0.0965042 0.321183) 455 905 1
(0.308429 0.0156768 0.345786 0.330109) 456 906 2
(0.397638 0.301181 0.291968 0.00921309) 458 762 2
(0.396632 0.251799 0.301684 0.0498854) 459 764 1
(0.459223 0.0180095 0.270388 0.252379) 460 766 1
(0.129365 0.0588129 0.376505 0.435318) 386 768 1
(0.186837 0.0833719 0.32321 0.406582) 387 770 1
(0.21654 0.0616247 0.330105 0.39173) 388 772 1
(0.248707 0.082563 0.293084 0.375647) 389 774 1
(0.25225 0.100816 0.273059 0.373875) 390 776 1
(0.271652 0.0373135 0.32686 0.364174) 391 778 1
(0.248447 0.0223898 0.375776 0.353387) 392 779 2
(0.312549 0.0107177 0.333008 0.343725) 393 782 1
(0.273112 0.0144798 0.348964 0.363444) 394 784 1
(0.75118 0.113483 0.0109269 0.12441) 396 788 1
(0.212306 0.00702789 0.386819 0.393847) 397 790 1
(0.389949 0.031965 0.273061 0.305026) 474 940 2
(0.261325 0.109061 0.369338 0.260276) 474 942 2
(0.406768 0.24742 0.049196 0.296616) 475 945 1
(0.40139 0.299305 0.0261686 0.273136) 476 947 2
(0.211591 0.128089 0.394205 0.266116) 476 946 2
(0.195433 0.402283 0.0891541 0.313129) 552 949 2
(0.104697 0.447651 0.0551016 0.39255) 553 951 2
(0.60014 0.043956 0.155974 0.19993) 479 953 1
(0.27915 0.360425 0.321671 0.0387543) 480 955 2
(0.113621 0.443189 0.0356409 0.407548) 556 1103 1
(0.0798286 0.460086 0.0412276 0.418858) 557 1105 1
(0.117258 0.152588 0.441371 0.288783) 557 959 1
(0.267242 0.366379 0.0886054 0.277774) 558 961 2
(0.238594 0.380703 0.267789 0.112914) 484 963 2
(0.230821 0.0366826 0.347907 0.38459) 485 962 2
(0.34783 0.230477 0.326085 0.0956076) 560 965 1
(0.252073 0.292218 0.373963 0.0817458) 561 967 1
(0.278026 0.335962 0.360987 0.0250246) 562 969 1
(0.259976 0.370012 0.153275 0.216736) 563 971 2
(0.182669 0.408665 0.170993 0.237672) 489 973 2
(1.74733e-07 0.5 0.5 8.90995e-09) 525 7457 2
(1.74856e-07 0.5 0.5 8.69511e-09) 525 7457 2
(8.81242e-08 0.5 0.0417461 0.458254) 450 7456 2
(1.74972e-07 0.5 0.0999985 0.400001) 525 7457 2
(0.0394386 0.480281 0.458519 0.0217618) 450 746 2
(0.156742 0.421629 0.144858 0.276771) 450 746 2
(0.1631 0.41845 0.237456 0.180994) 375 597 2
(0.155007 0.422496 0.149102 0.273395) 450 746 2
(0.198261 0.40087 0.0771682 0.323701) 450 746 2
(0.702892 0.143303 0.00525106 0.148554) 375 7455 1
(0.282221 0.358889 0.311366 0.047523) 450 894 1
(0.138073 0.430964 0.264023 0.166941) 450 894 1
(0.132735 0.433632 0.238736 0.194896) 450 894 1
(0.139175 0.430413 0.24035 0.190063) 450 894 1
(0.151776 0.424112 0.178559 0.245553) 450 894 1
(0.159738 0.420131 0.181542 0.238589) 450 894 1
(1.75083e-07 0.5 0.0480336 0.451966) 525 7457 2
(0.319067 0.340467 0.0495114 0.290955) 525 895 2
(0.350612 0.241063 0.324694 0.0836313) 525 895 1
(0.180592 0.409704 0.206456 0.203248) 450 894 1
(0.177061 0.411469 0.185104 0.226365) 450 894 1
(0.230088 0.384956 0.177622 0.207334) 450 894 1
(0.267554 0.366223 0.23602 0.130203) 450 894 1
(0.381261 0.196956 0.309369 0.112413) 525 895 1
(0.403496 0.114182 0.298252 0.18407) 525 895 1
(0.819287 0.0903564 0.0531205 0.0372359) 525 1043 1
(0.152061 0.42397 0.0191488 0.404821) 525 1043 1
(0.134953 0.153737 0.432523 0.278786) 600 1044 1
(0.0380468 0.480977 0.00762267 0.473354) 526 1046 2
(0.037809 0.481095 0.032471 0.448624) 526 897 2
(0.420869 0.285554 0.289566 0.00401127) 526 897 1
(0.918838 0.040581 0.033426 0.00715499) 526 897 2
(0.635585 0.182207 0.0121155 0.170092) 526 1045 1
(0.287623 0.0878378 0.356189 0.268351) 526 897 1
(0.00772783 0.496136 0.154493 0.341643) 526 1045 1
(0.0223575 0.488821 0.0699807 0.418841) 527 1045 1
(0.0679175 0.368217 0.0978244 0.466041) 527 1045 2
(0.767237 0.116382 0.0456708 0.0707107) 527 1048 2
(0.376618 0.0966072 0.311691 0.215084) 527 1047 2
(0.172038 0.347282 0.413981 0.0666991) 528 1049 2
(0.551633 0.0405417 0.183642 0.224183) 531 1053 2
(0.0101541 0.494923 0.458128 0.0367947) 532 1057 1
(0.456522 0.271739 0.253892 0.0178467) 534 1061 1
(0.294585 0.352707 0.309351 0.0433563) 537 919 2
(0.183263 0.0415972 0.408369 0.366771) 462 918 2
(0.253977 0.0495975 0.323414 0.373012) 463 921 1
(0.271627 0.142918 0.221268 0.364186) 464 923 1
(0.248223 0.191822 0.184066 0.375888) 465 925 1
(0.260996 0.00857216 0.36093 0.369502) 466 927 1
(0.219232 0.0337856 0.356598 0.390384) 468 928 2
(0.111207 0.409461 0.0349353 0.444396) 469 933 1
(0.14275 0.338028 0.428625 0.090597) 545 935 1
(0.128017 0.162032 0.435991 0.27396) 470 934 2
(0.288484 0.030165 0.355758 0.325593) 471 936 2
(0.295622 0.162765 0.189424 0.352189) 472 939 1
(0.271576 0.364212 0.332892 0.0313198) 473 941 2
(0.389989 0.250679 0.0543261 0.305006) 548 1090 1
(0.344446 0.327777 0.155562 0.172215) 549 1092 2
(0.0439152 0.153422 0.32462 0.478042) 550 1091 2
(0.336055 0.122937 0.209036 0.331972) 550 1094 1
(0.276632 0.361684 0.173419 0.188265) 626 1096 2
(0.269832 0.365084 0.00575308 0.359331) 627 1244 1
(0.0259321 0.487034 0.100075 0.386959) 628 1246 1
(0.363226 0.00813432 0.310253 0.318387) 554 1099 2
(0.272065 0.175218 0.363968 0.18875) 629 1102 1
(0.117367 0.283532 0.441316 0.157785) 630 1104 1
(0.102238 0.448881 0.0120752 0.436806) 557 1108 2
(0.135794 0.0610647 0.432103 0.371038) 632 1108 1
(0.305154 0.253424 0.347423 0.093999) 633 1110 1
(0.244906 0.355339 0.377547 0.0222078) 634 1112 1
(0.207564 0.167876 0.396218 0.228342) 635 1114 1
(0.217257 0.12648 0.391371 0.264891) 636 1116 1
(0.091283 0.454358 0.405435 0.0489231) 637 1266 1
(0.205739 0.39713 0.00781259 0.389318) 639 1268 1
(0.292485 0.353758 0.189653 0.164105) 564 1121 1
(1.8991e-07 0.5 0.49999 9.81497e-06) 600 7458 2
(1.89018e-07 0.5 0.49999 9.48365e-06) 600 7458 2
(0.0262696 0.486865 0.170732 0.316133) 525 7457 2
(1.882e-07 0.5 0.0291327 0.470867) 600 7458 2
(0.126428 0.436786 0.414385 0.0224007) 525 895 2
(0.0134375 0.493281 0.0172778 0.476003) 525 7457 2
(0.322713 0.107473 0.338643 0.231171) 450 894 2
(0.150846 0.424577 0.265344 0.159233) 525 1043 1
(0.163583 0.418209 0.341875 0.0763341) 525 895 2
(0.116186 0.441907 0.25647 0.185437) 525 1043 1
(0.112525 0.443737 0.269001 0.174736) 525 1043 1