/*--------------------------------*- C++ -*----------------------------------*\
  =========                 |
  \\      /  F ield         | OpenFOAM: The Open Source CFD Toolbox
   \\    /   O peration     | Website:  https://openfoam.org
    \\  /    A nd           | Version:  12
     \\/     M anipulation  |
\*---------------------------------------------------------------------------*/
FoamFile
{
    format      ascii;
    class       vectorField;
    location    "0.7/lagrangian/cloud";
    object      U;
}
// * * * * * * * * * * * * * * * * * * * * * * * * * * * * * * * * * * * * * //


5376
(
(3.22043e-11 -4.43571e-05 0)
(3.03993e-11 -4.44048e-05 0)
(2.86953e-11 -4.44497e-05 0)
(2.70866e-11 -4.44919e-05 0)
(2.55679e-11 -4.45315e-05 0)
(2.41341e-11 -4.45687e-05 0)
(2.27806e-11 -4.46037e-05 0)
(2.15029e-11 -4.46366e-05 0)
(2.02967e-11 -4.46676e-05 0)
(0.000238948 -0.00374423 0)
(0.000344557 -0.00562217 0)
(0.000296882 -0.00530865 0)
(0.000297539 -0.00518742 0)
(0.000243039 -0.00417901 0)
(-0.000114327 -0.00173846 0)
(0.000835796 0.00242321 0)
(-0.000333304 -0.00447278 0)
(-0.000867017 0.00353455 0)
(-0.00121767 -0.00743108 0)
(0.000712505 -0.00533624 0)
(-0.00172852 -0.000944097 0)
(0.00438057 -0.0118968 0)
(0.00171107 -0.0158079 0)
(-0.00221727 -0.0330728 0)
(-0.00135145 -0.0343207 0)
(-0.000352741 -0.0322379 0)
(-0.00198124 -0.0308561 0)
(-0.00126022 -0.0292635 0)
(-0.00166282 -0.0292771 0)
(-0.000519089 -0.0282113 0)
(-9.24025e-05 -0.0308094 0)
(0.000490733 -0.0279596 0)
(0.000126392 -0.0263904 0)
(-0.000232941 -0.029972 0)
(2.42678e-05 -0.026265 0)
(-0.00058917 -0.024245 0)
(0.00112513 -0.0240608 0)
(0.000697184 -0.028181 0)
(-0.000149618 -0.0266575 0)
(0.00132858 -0.0275188 0)
(0.000798131 -0.0310761 0)
(-0.000115824 -0.0326569 0)
(-5.46437e-05 -0.0327053 0)
(0.000108695 -0.0313373 0)
(0.000252732 -0.0302347 0)
(0.000679698 -0.0270532 0)
(6.01852e-06 -0.0264444 0)
(-0.000669568 -0.0251166 0)
(0.00014163 -0.0262033 0)
(-0.000395834 -0.0246932 0)
(-0.000315772 -0.0245795 0)
(0.00118642 -0.0242889 0)
(-0.00012519 -0.0233501 0)
(-0.000415426 -0.0213608 0)
(0.000437234 -0.0198268 0)
(-0.00266759 -0.0221977 0)
(-0.000334039 -0.0271933 0)
(-0.00166447 -0.0216882 0)
(0.000169033 -0.021686 0)
(0.000508152 -0.0199205 0)
(-8.34287e-07 -0.0185006 0)
(1.8398e-05 -0.0177936 0)
(6.80179e-05 -0.017338 0)
(-0.000895804 -0.0168149 0)
(0.000215092 -0.0176256 0)
(0.001004 -0.0157059 0)
(0.000774474 -0.0172786 0)
(8.71452e-06 -0.0263565 0)
(-0.000236466 -0.025656 0)
(-0.000447478 -0.0287665 0)
(-0.000514745 -0.0305476 0)
(0.00168393 -0.022412 0)
(0.00135298 -0.0253576 0)
(0.000103494 -0.0244696 0)
(0.000259635 -0.0238977 0)
(6.18789e-11 -4.40099e-05 0)
(5.60874e-11 -4.4156e-05 0)
(-7.98328e-06 -2.87712e-05 0)
(-7.52324e-06 -2.9766e-05 0)
(0.000297616 -0.00510983 0)
(0.000586345 -0.0077983 0)
(0.000845051 -0.0106341 0)
(0.000535615 -0.0091143 0)
(5.08356e-11 -4.42867e-05 0)
(0.000257753 -0.00721783 0)
(-0.000365438 -0.000176424 0)
(6.9864e-05 -0.00185561 0)
(0.00047063 -0.00337962 0)
(0.000837627 -0.00482961 0)
(0.000454533 -0.00230741 0)
(0.000737356 -0.00598898 0)
(8.06055e-05 -0.00695208 0)
(2.01728e-05 -0.00779617 0)
(-8.90845e-05 -0.00319649 0)
(-0.000614983 -0.00371281 0)
(0.000489636 -0.00352106 0)
(-0.00177328 -0.000716014 0)
(-0.00139326 -0.00997033 0)
(-0.00122772 -0.00855093 0)
(-0.000993164 -0.00857748 0)
(-0.00448111 -0.0140168 0)
(-0.00143534 -0.0331905 0)
(-0.0018607 -0.029235 0)
(1.71359e-05 -0.0287491 0)
(-0.000431384 -0.0310196 0)
(-8.41083e-05 -0.0307844 0)
(7.65591e-05 -0.0342077 0)
(-0.00303527 -0.0377972 0)
(-0.000463814 -0.0361807 0)
(-0.000748719 -0.0356388 0)
(0.000168503 -0.0340375 0)
(0.000322738 -0.0266352 0)
(-0.00020805 -0.0265131 0)
(0.000768244 -0.026826 0)
(0.00177535 -0.024267 0)
(-0.000687394 -0.0236045 0)
(-0.0017955 -0.0258462 0)
(-0.00292244 -0.0389116 0)
(0.0027255 -0.0308568 0)
(0.000878198 -0.024221 0)
(0.00150417 -0.0284637 0)
(0.00151682 -0.02554 0)
(0.000219756 -0.0266924 0)
(0.000174528 -0.0267219 0)
(-0.00120523 -0.0225809 0)
(-6.76994e-05 -0.0212272 0)
(-0.000286013 -0.0357622 0)
(-0.00111087 -0.0337914 0)
(6.96311e-05 -0.0272597 0)
(1.58726e-06 -0.0320181 0)
(-0.000552966 -0.0299077 0)
(0.00103227 -0.0265977 0)
(-0.000705365 -0.0286107 0)
(-0.000837931 -0.0254913 0)
(-0.00081593 -0.020059 0)
(-0.00112466 -0.0203462 0)
(-0.00170663 -0.020806 0)
(-0.0012093 -0.0294237 0)
(-0.00113299 -0.0314704 0)
(-0.00134341 -0.0254353 0)
(0.000299418 -0.0234284 0)
(0.000290018 -0.0245314 0)
(-0.000185695 -0.0241808 0)
(-0.00189093 -0.0231616 0)
(-0.000753401 -0.0218463 0)
(0.00166378 -0.0216135 0)
(0.000889995 -0.0218636 0)
(0.00225265 -0.0187088 0)
(0.00195748 -0.0220277 0)
(0.00177787 -0.0184479 0)
(4.66319e-12 -4.46633e-05 0)
(4.5589e-12 -4.46703e-05 0)
(-2.95267e-05 -4.89486e-05 0)
(4.45694e-12 -4.46772e-05 0)
(-6.41487e-05 -0.00772732 0)
(-0.000111974 -0.00776235 0)
(-3.78533e-05 -2.91966e-05 0)
(-0.000320554 -0.00116367 0)
(-0.000196843 -0.00833597 0)
(-0.000217573 -0.00141785 0)
(0.000246175 -0.00441405 0)
(-0.000424314 -0.00814069 0)
(0.000885347 -0.00700197 0)
(0.00723121 -0.00871913 0)
(-0.00899074 -0.0101139 0)
(0.011621 -0.0131953 0)
(-0.0070456 -0.00712067 0)
(0.000464206 -0.00724665 0)
(-0.0009064 -0.00835879 0)
(-0.000574244 -0.0069159 0)
(-0.00608679 -0.00285306 0)
(-0.00117072 -0.011068 0)
(-0.000860194 -0.0120589 0)
(-0.0073369 -0.0028248 0)
(-0.0134855 -0.00634591 0)
(-0.00146517 -0.00654299 0)
(-0.00145513 -0.0131531 0)
(-0.00321372 -0.00319448 0)
(-0.00323128 -0.0165071 0)
(-0.00176719 -0.0169713 0)
(-0.00581256 -0.0282728 0)
(-0.00547243 -0.00489713 0)
(-0.000569357 0.00692436 0)
(-0.00460573 -0.038029 0)
(-0.00580536 -0.0331979 0)
(-0.00353871 -0.0391465 0)
(-0.00161016 -0.039343 0)
(-0.000770898 -0.0401661 0)
(-0.00140139 -0.039716 0)
(-0.000497593 -0.0397205 0)
(0.000961498 -0.0384857 0)
(-7.2478e-05 -0.0371321 0)
(-0.00183687 -0.0392599 0)
(-0.00139185 -0.037697 0)
(-0.000467207 -0.0385507 0)
(-0.0014112 -0.0388245 0)
(0.00330095 -0.0334076 0)
(0.0031827 -0.0298096 0)
(-0.000450041 -0.0365685 0)
(0.000633913 -0.028716 0)
(0.00148393 -0.037626 0)
(0.00340116 -0.0351721 0)
(0.000514204 -0.036412 0)
(-1.2609e-05 -0.0398486 0)
(0.00174279 -0.0355362 0)
(0.00124901 -0.036019 0)
(-0.000158783 -0.0409632 0)
(0.000419625 -0.0432366 0)
(-9.80026e-06 -0.039863 0)
(0.000674848 -0.0338264 0)
(-0.000391839 -0.0313399 0)
(-0.000955373 -0.0325824 0)
(-0.000103346 -0.0371288 0)
(0.00043959 -0.0343125 0)
(0.00068191 -0.0357512 0)
(-0.00304257 -0.0379668 0)
(-0.000348372 -0.0355474 0)
(4.60142e-05 -0.0387493 0)
(-0.000394328 -0.0367981 0)
(0.000461835 -0.0327192 0)
(-0.00278942 -0.0290704 0)
(-0.00209762 -0.0310722 0)
(-0.00200974 -0.0334444 0)
(-0.00268704 -0.0336494 0)
(-0.00442565 -0.0356903 0)
(1.39701e-11 -4.44512e-05 0)
(1.33325e-11 -4.44823e-05 0)
(2.01269e-06 -3.37322e-05 0)
(1.27241e-11 -4.45118e-05 0)
(1.96628e-06 -3.39977e-05 0)
(-0.000549721 -0.00230723 0)
(1.92097e-06 -3.42568e-05 0)
(-0.000753523 -0.00703079 0)
(-0.00176565 -0.00796891 0)
(-0.00136458 -0.00575642 0)
(-0.00124717 -0.00946842 0)
(-0.00076432 -0.0103066 0)
(-0.000764149 -0.0103485 0)
(-0.00137667 -0.0102681 0)
(-0.000315773 -0.00911103 0)
(-0.00145321 -0.0103355 0)
(-0.000737469 -0.00812608 0)
(0.000632792 -0.0114713 0)
(0.00350796 -0.00980721 0)
(-0.000768294 -0.00214609 0)
(0.000999631 -0.00979246 0)
(-0.000877267 -0.000782652 0)
(-0.00235574 -0.0154379 0)
(0.000106682 -0.0127702 0)
(-0.0069258 -0.0113571 0)
(-0.00462131 -0.00570814 0)
(-0.000433249 -0.0121903 0)
(-0.000790755 -0.00238346 0)
(-0.00197679 -0.001031 0)
(-0.00414818 -0.0074154 0)
(-0.00162501 0.00536586 0)
(0.00150124 -0.0077477 0)
(-0.0053242 -0.0119172 0)
(-0.0034294 0.00421275 0)
(-0.00672595 -0.0338017 0)
(-0.00497244 -0.0290105 0)
(-0.00231672 -0.0417399 0)
(-0.00458006 -0.0434887 0)
(-0.00257963 -0.0414798 0)
(-0.00208306 -0.0406059 0)
(-0.0015099 -0.0402755 0)
(-0.00100196 -0.0404816 0)
(0.00118454 -0.0416276 0)
(0.000347969 -0.0415389 0)
(0.000147919 -0.0408929 0)
(0.000717541 -0.0453194 0)
(0.00103231 -0.0452485 0)
(-0.00187495 -0.0486188 0)
(-0.00284418 -0.0475614 0)
(-0.00264438 -0.0478924 0)
(-0.000729445 -0.0471109 0)
(0.000618602 -0.0428458 0)
(0.00229273 -0.0414438 0)
(0.00011462 -0.0411663 0)
(-2.28442e-06 -0.0450281 0)
(-0.000332103 -0.0452819 0)
(3.64114e-05 -0.0389625 0)
(0.00196933 -0.0423701 0)
(-0.000212973 -0.0436046 0)
(7.67785e-05 -0.0450624 0)
(-0.00160864 -0.0435577 0)
(0.00015012 -0.0420154 0)
(-0.00167229 -0.0420422 0)
(0.000424855 -0.0416241 0)
(-0.000216287 -0.0396357 0)
(-0.000159137 -0.0380678 0)
(0.0021051 -0.0425042 0)
(0.00125752 -0.0403757 0)
(0.00135043 -0.0399218 0)
(0.00276241 -0.0419899 0)
(0.000862473 -0.0407337 0)
(0.000227904 -0.0380717 0)
(-0.00309983 -0.0405045 0)
(-0.00429667 -0.0375753 0)
(-0.00413437 -0.0384682 0)
(6.02599e-12 -4.44914e-05 0)
(5.77776e-12 -4.45165e-05 0)
(1.9761e-05 -2.62018e-05 0)
(5.53974e-12 -4.45405e-05 0)
(1.88257e-05 -2.71299e-05 0)
(0.00177984 0.000505643 0)
(0.000712793 -0.00542373 0)
(-0.00190881 -0.00508321 0)
(-0.000541493 -0.0111353 0)
(-0.0029419 -0.0175276 0)
(-0.000454604 -0.0107277 0)
(-0.000402715 -0.0102009 0)
(-0.000412303 -0.00937834 0)
(-0.000563297 -0.00863999 0)
(-0.00108732 -0.0088153 0)
(-0.00019495 -0.00734674 0)
(-0.00127782 -0.00744109 0)
(-0.00135433 -0.00671626 0)
(0.00137495 -0.00645862 0)
(0.00983453 -0.00975658 0)
(0.000240345 -0.00522571 0)
(-0.000216674 -0.00599167 0)
(0.00183907 -0.0104465 0)
(-0.00109775 -0.00328119 0)
(-5.96587e-05 -0.00276491 0)
(-0.00107561 -0.000915603 0)
(0.00152022 -0.00815543 0)
(0.00135295 -0.00766833 0)
(0.000173769 -0.0130989 0)
(0.00348008 -0.0154097 0)
(-0.00125864 0.000400406 0)
(0.00580836 -0.0081229 0)
(-0.00315069 0.000733325 0)
(-0.00822859 -0.00555144 0)
(-0.00695062 -0.0289815 0)
(-0.0063735 -0.042445 0)
(-0.00322907 -0.0435593 0)
(-0.00476027 -0.0432699 0)
(-0.00247502 -0.038644 0)
(-0.00132114 -0.040296 0)
(0.000423134 -0.0388068 0)
(0.000113041 -0.0369463 0)
(-0.000380478 -0.0412266 0)
(0.000300776 -0.0386744 0)
(0.00127425 -0.0367048 0)
(-0.000444132 -0.0382789 0)
(-0.00112378 -0.0417443 0)
(1.92783e-05 -0.0469733 0)
(0.000304326 -0.0470054 0)
(-0.000767106 -0.0483288 0)
(-0.00129683 -0.0472368 0)
(-0.00073282 -0.0469668 0)
(0.00208695 -0.0457223 0)
(-0.000105107 -0.0451978 0)
(0.000958803 -0.044592 0)
(0.00102578 -0.041773 0)
(0.000843618 -0.0397086 0)
(-0.000523249 -0.0435691 0)
(-1.8139e-05 -0.0440849 0)
(-0.000442273 -0.0406277 0)
(5.58012e-05 -0.0412208 0)
(0.000345953 -0.0422576 0)
(0.000631964 -0.0439863 0)
(-0.000198215 -0.0432039 0)
(0.000343846 -0.0394244 0)
(-0.000304282 -0.0385716 0)
(-0.000361813 -0.039876 0)
(-0.00013312 -0.0401508 0)
(0.000112608 -0.0380688 0)
(0.00235211 -0.0389145 0)
(0.00115488 -0.0366853 0)
(0.00079424 -0.037396 0)
(-0.000878254 -0.0394905 0)
(-0.00273855 -0.0397786 0)
(-0.00219991 -0.0389678 0)
(-2.85013e-12 -4.43731e-05 0)
(-2.71876e-12 -4.44041e-05 0)
(1.2931e-05 -3.65146e-05 0)
(-2.59343e-12 -4.44337e-05 0)
(0.00151856 -0.00474699 0)
(1.23858e-05 -3.68903e-05 0)
(0.00138493 -0.00527302 0)
(1.18645e-05 -3.72621e-05 0)
(0.00165254 -0.00901775 0)
(0.00100998 -0.0081466 0)
(0.00170167 -0.00898782 0)
(0.00144749 -0.00806737 0)
(0.00225985 -0.00822085 0)
(0.00118965 -0.00825953 0)
(0.00038111 -0.00645047 0)
(0.000403733 -0.00607532 0)
(0.000358715 -0.00579892 0)
(0.00158532 -0.00533701 0)
(0.00164102 -0.00566198 0)
(0.00105095 -0.00403506 0)
(0.000692287 -0.0038368 0)
(0.000792731 -0.00788463 0)
(0.0036671 -0.00896203 0)
(0.00177167 0.00235925 0)
(-0.000494807 0.00212756 0)
(-0.000274343 -0.00815151 0)
(0.00272338 -0.0024283 0)
(-0.00160885 0.00165823 0)
(0.00128175 0.00271895 0)
(-0.00220265 -0.0114068 0)
(0.00315716 -0.00880125 0)
(-0.0032189 -0.010613 0)
(-0.00391252 -0.00497073 0)
(-0.00443154 -0.007292 0)
(-0.00812397 -0.0178542 0)
(-0.00666164 -0.0263216 0)
(-0.00465771 -0.0447519 0)
(-0.00400974 -0.0468901 0)
(-0.00491477 -0.048452 0)
(-0.00435411 -0.0447116 0)
(-0.0020534 -0.0405342 0)
(-0.0011417 -0.0371983 0)
(-0.00031129 -0.0371454 0)
(0.00114978 -0.0376325 0)
(0.000157924 -0.03633 0)
(-0.000856784 -0.0367982 0)
(-0.000152942 -0.0376784 0)
(6.47192e-05 -0.0384966 0)
(0.000251684 -0.039915 0)
(-0.000290597 -0.042138 0)
(-0.00015684 -0.0444013 0)
(0.000602709 -0.0449869 0)
(-0.000812444 -0.0439177 0)
(3.918e-05 -0.0439657 0)
(5.51459e-05 -0.0411383 0)
(0.00117681 -0.0384216 0)
(0.00222267 -0.0409637 0)
(0.000855207 -0.0421811 0)
(0.00060656 -0.0405757 0)
(-6.81195e-06 -0.0393595 0)
(0.000627089 -0.0407868 0)
(0.00132389 -0.0420906 0)
(0.000918319 -0.0419292 0)
(-0.00276705 -0.0410335 0)
(-0.00308461 -0.040152 0)
(-0.00106425 -0.0385654 0)
(-0.000405073 -0.0385128 0)
(-0.00158575 -0.0347037 0)
(-0.000616516 -0.0372146 0)
(0.000770157 -0.0348281 0)
(-0.000108908 -0.0374178 0)
(-0.000527263 -0.0369423 0)
(0.00138414 -0.0387723 0)
(0.00103063 -0.0398829 0)
(3.62293e-05 -0.0388704 0)
(-1.55653e-12 -4.44914e-05 0)
(-1.49188e-12 -4.45165e-05 0)
(0.000703352 -0.0109902 0)
(-1.42991e-12 -4.45405e-05 0)
(-2.47385e-12 -4.44618e-05 0)
(0.0001613 -0.00490914 0)
(0.000288795 -0.00731821 0)
(0.000320663 -0.00709888 0)
(7.90336e-06 -2.87888e-05 0)
(0.00054474 -0.0106978 0)
(0.000316082 -0.0123456 0)
(0.000338522 -0.0115833 0)
(0.000288181 -0.0107398 0)
(0.000531044 -0.00971695 0)
(0.000560334 -0.00867976 0)
(0.000601542 -0.0075763 0)
(0.000586624 -0.00656223 0)
(0.000801018 -0.00572212 0)
(0.00055667 -0.0085786 0)
(0.000836025 -0.00511856 0)
(0.00111974 -0.00667759 0)
(0.000744687 -0.00511218 0)
(0.00074658 -0.00457616 0)
(-0.000396815 -0.0110565 0)
(-0.00081941 -0.0126919 0)
(-0.000445377 -0.0109098 0)
(-0.0030267 0.00487895 0)
(-0.000483134 -0.00792778 0)
(0.00172945 -0.00924122 0)
(0.00128883 -0.000866517 0)
(-0.00210686 -0.00191714 0)
(-0.00553214 -0.00943124 0)
(-0.00554009 0.000620588 0)
(-0.00449262 -0.00385161 0)
(-0.00380681 -0.0163536 0)
(-0.00812721 -0.0204057 0)
(-0.00261095 -0.0419388 0)
(-0.00111218 -0.0425156 0)
(-0.00140959 -0.0472338 0)
(-0.00139478 -0.0491122 0)
(-0.0035903 -0.0489835 0)
(-0.00281191 -0.04757 0)
(-9.35196e-05 -0.0443772 0)
(0.00112427 -0.0423024 0)
(0.00350625 -0.0347717 0)
(0.000956605 -0.0396311 0)
(0.000759133 -0.0404036 0)
(0.000807182 -0.0413092 0)
(0.000405608 -0.0416116 0)
(-7.51924e-05 -0.0425227 0)
(-0.00066392 -0.0429119 0)
(0.000112559 -0.0415167 0)
(-0.00055905 -0.0435313 0)
(-0.000950085 -0.040333 0)
(0.00071223 -0.0390865 0)
(0.00027927 -0.0384187 0)
(8.59073e-05 -0.0363506 0)
(0.00117155 -0.0370793 0)
(0.000907758 -0.0377569 0)
(0.000304189 -0.038234 0)
(0.00161622 -0.0390364 0)
(0.00143997 -0.0384953 0)
(-0.00245061 -0.0385214 0)
(-0.00300135 -0.0385794 0)
(-0.000682381 -0.0391742 0)
(-0.00214623 -0.0358552 0)
(-0.00196103 -0.0375182 0)
(5.01491e-05 -0.0414455 0)
(0.000198201 -0.0408512 0)
(-0.000405102 -0.0431139 0)
(-0.000678249 -0.0453821 0)
(0.00013428 -0.0453201 0)
(0.000973052 -0.0445493 0)
(0.000465408 -0.0434443 0)
(-0.000287674 -0.0427892 0)
(-2.17118e-11 -4.44512e-05 0)
(-2.07189e-11 -4.44823e-05 0)
(8.934e-06 -2.23764e-05 0)
(-1.97714e-11 -4.45118e-05 0)
(0.000118466 -0.0027965 0)
(-0.0007034 -0.00528773 0)
(0.000884246 -0.000619413 0)
(-0.00046845 -0.00493716 0)
(-0.000546297 -0.00633326 0)
(0.000410931 -0.00726304 0)
(-0.000533496 -0.00963422 0)
(-0.000135331 -0.0077871 0)
(-8.17908e-05 -0.00851551 0)
(7.52536e-05 -0.0112564 0)
(0.000235218 -0.00820319 0)
(0.000413238 -0.00686467 0)
(-1.88671e-11 -4.454e-05 0)
(-3.89063e-05 -0.00842328 0)
(3.85056e-05 -0.00933083 0)
(0.000558451 -0.00569021 0)
(0.00065458 -0.00515126 0)
(-0.00066612 -0.00543233 0)
(-0.000929097 -0.0057035 0)
(5.13906e-05 -0.00922064 0)
(8.62808e-05 -0.00938779 0)
(-0.000408203 -0.0121672 0)
(0.000752032 -0.00619803 0)
(-0.000178466 -0.00946869 0)
(-0.00381637 -0.0152327 0)
(-0.00224391 -0.00531991 0)
(-0.00295966 0.00402861 0)
(0.00259568 -0.0061336 0)
(-0.00211591 -0.00979557 0)
(-0.00204229 0.00231572 0)
(-0.00324077 0.00104431 0)
(-0.0051916 -0.00466338 0)
(-0.00676083 -0.0179486 0)
(-0.00777303 -0.0198804 0)
(-0.00152675 -0.0297081 0)
(-0.00227048 -0.0466921 0)
(-0.00133042 -0.0500809 0)
(-0.00388705 -0.0462035 0)
(-0.00192423 -0.0472589 0)
(0.00154306 -0.0422019 0)
(0.00161506 -0.0409382 0)
(0.000534093 -0.0387068 0)
(0.000272008 -0.0392608 0)
(-0.000139608 -0.039677 0)
(0.00047619 -0.0424227 0)
(0.000683792 -0.0403289 0)
(-0.0016601 -0.040641 0)
(-0.000234667 -0.0398496 0)
(-0.00108033 -0.0410192 0)
(-0.000865583 -0.0365597 0)
(-0.000149046 -0.0376347 0)
(-0.000468591 -0.0377528 0)
(-0.000623509 -0.0360101 0)
(0.000240191 -0.0369783 0)
(0.000954708 -0.0355469 0)
(0.00212795 -0.0352785 0)
(0.00121819 -0.0384503 0)
(0.000514172 -0.0390446 0)
(-0.000860393 -0.0397692 0)
(-0.0013326 -0.0408654 0)
(-0.00140278 -0.0406794 0)
(-0.00069015 -0.0415992 0)
(-0.000950512 -0.0379144 0)
(-0.000750599 -0.0412044 0)
(0.00013675 -0.0425778 0)
(6.43007e-05 -0.0456904 0)
(-0.000782484 -0.045329 0)
(0.000366669 -0.0474299 0)
(-0.000155412 -0.0467852 0)
(-0.000331528 -0.0455626 0)
(4.7895e-06 -0.0447825 0)
(4.59329e-06 -4.84708e-05 0)
(4.1908e-06 -4.82464e-05 0)
(0.00117657 2.82339e-05 0)
(3.82351e-06 -4.80404e-05 0)
(0.000968109 -0.0021301 0)
(0.00121383 3.42255e-05 0)
(-0.00146594 -0.00462354 0)
(0.000248926 -0.0069107 0)
(0.000954007 -0.00309155 0)
(0.000534258 -0.0063736 0)
(0.000681133 -0.00564478 0)
(-0.000117624 -0.00999032 0)
(-0.000104817 -0.0101108 0)
(0.000238828 -0.00989116 0)
(0.00117624 -0.00944551 0)
(-0.000647788 -0.00569191 0)
(3.48844e-06 -4.78576e-05 0)
(-9.74193e-05 -0.00483275 0)
(0.000116734 -0.00673503 0)
(8.48312e-05 -0.00819331 0)
(0.000216171 -0.00759051 0)
(0.0007666 -0.00438428 0)
(0.0002602 -0.0117137 0)
(0.000921994 -0.00532414 0)
(0.000699792 -0.00971673 0)
(0.000809553 -0.00899686 0)
(0.000774584 -0.00597332 0)
(0.00186145 -0.00800667 0)
(0.00113689 -0.0110696 0)
(0.00194758 -0.0111286 0)
(0.00177843 -0.00376158 0)
(0.00169936 0.00160949 0)
(0.00195187 0.00141499 0)
(0.00229314 -0.00572526 0)
(-0.00195573 -0.00422442 0)
(-0.00247499 -0.00972095 0)
(-0.00119288 0.00512066 0)
(-0.0069692 -0.00656207 0)
(0.00144216 -0.0399719 0)
(0.000119654 -0.0442599 0)
(-0.00180992 -0.0483717 0)
(-0.00476475 -0.0469311 0)
(-3.30627e-05 -0.0420556 0)
(0.000748415 -0.0385953 0)
(-0.000151086 -0.0369362 0)
(0.000377678 -0.036288 0)
(3.70275e-05 -0.0373328 0)
(0.000203279 -0.0384107 0)
(-0.000220017 -0.0388675 0)
(-0.000766188 -0.0397645 0)
(-0.00116033 -0.037475 0)
(-0.002455 -0.0341627 0)
(-0.000648881 -0.0371675 0)
(-0.000733065 -0.0360488 0)
(-0.000648448 -0.0321535 0)
(0.000100827 -0.0350544 0)
(-0.000216317 -0.0344591 0)
(0.000208234 -0.0360058 0)
(0.00010525 -0.0363983 0)
(-0.000551867 -0.0385855 0)
(0.000248926 -0.0410849 0)
(-0.000336707 -0.040236 0)
(5.13962e-05 -0.0412363 0)
(-0.000281282 -0.0420742 0)
(-0.000514596 -0.0420492 0)
(0.000119883 -0.0422817 0)
(-0.00161494 -0.0452037 0)
(0.000625572 -0.0462457 0)
(0.000387469 -0.048123 0)
(-0.000189559 -0.046307 0)
(0.000386673 -0.0475111 0)
(-0.000782099 -0.0449253 0)
(4.809e-05 -0.0468554 0)
(-0.000249925 -0.0434527 0)
(-0.00163985 -0.0431319 0)
(8.42871e-12 -4.44504e-05 0)
(8.04521e-12 -4.44816e-05 0)
(0.000829859 -4.72181e-05 0)
(7.67913e-12 -4.45112e-05 0)
(0.000804429 -0.000220802 0)
(0.000726913 -0.00143675 0)
(0.000659188 -0.00832415 0)
(0.000668866 -0.00198874 0)
(0.000706594 -0.00769969 0)
(0.000521665 -0.00758427 0)
(0.000797792 -0.0063715 0)
(0.000519304 -0.000820539 0)
(0.000413619 -0.00612363 0)
(0.000842319 -0.00508967 0)
(0.000780545 -0.00615489 0)
(0.00180261 -0.00359491 0)
(0.0021222 -0.00159247 0)
(0.00262437 -0.00318996 0)
(0.000665849 -0.00912686 0)
(0.00151399 -0.0161381 0)
(0.00164175 -0.0137116 0)
(0.00208472 -0.00822174 0)
(0.00213508 -0.00756341 0)
(0.00206417 -0.00721338 0)
(0.00147519 -0.0079484 0)
(0.00135038 -0.00926083 0)
(0.00207757 -0.00892884 0)
(-0.00102004 -0.00678718 0)
(0.00161094 -0.00196168 0)
(0.00122328 0.00522845 0)
(0.00186609 0.00402555 0)
(0.00102489 0.00573736 0)
(0.000523756 0.00550795 0)
(0.000865568 -0.00463245 0)
(-0.000646823 0.00687484 0)
(0.000305981 -0.0116476 0)
(-0.00304184 0.00685564 0)
(-0.00064307 -0.0257918 0)
(0.00114737 -0.0408416 0)
(-0.00272258 -0.0473371 0)
(-0.00482564 -0.044927 0)
(-0.00535174 -0.044614 0)
(-0.00502144 -0.0439493 0)
(-0.0037714 -0.0438998 0)
(-0.00131023 -0.0401873 0)
(0.000293462 -0.0377307 0)
(-0.00120234 -0.0401684 0)
(0.000500458 -0.0375057 0)
(-0.000770115 -0.0373842 0)
(0.000152181 -0.037802 0)
(0.000295467 -0.0371906 0)
(0.00035419 -0.0369274 0)
(-0.00130168 -0.0340864 0)
(-0.00128638 -0.0377872 0)
(0.000520418 -0.0419307 0)
(0.000292459 -0.0433652 0)
(-0.000156287 -0.0418691 0)
(-0.000115108 -0.0426495 0)
(0.000327098 -0.045607 0)
(-0.000145269 -0.0431933 0)
(0.000522172 -0.0435594 0)
(-7.85973e-05 -0.0441542 0)
(0.00058105 -0.0440394 0)
(0.000355062 -0.0462646 0)
(0.00050742 -0.0451171 0)
(-0.000347295 -0.0446944 0)
(0.000285178 -0.0451969 0)
(0.000436148 -0.0476892 0)
(0.000812792 -0.0457081 0)
(0.000800564 -0.0468664 0)
(-0.00182327 -0.0451877 0)
(-0.000841372 -0.0465247 0)
(0.000517927 -0.0458963 0)
(-0.00103596 -0.0473637 0)
(-0.00131181 -0.0472184 0)
(1.65946e-11 -4.44065e-05 0)
(1.57512e-11 -4.4445e-05 0)
(-0.000625672 0.000321522 0)
(1.49506e-11 -4.44814e-05 0)
(0.000101458 -0.00151038 0)
(0.00149219 -0.00975471 0)
(0.00128432 -0.00656504 0)
(7.44916e-05 -0.000764767 0)
(0.00104118 -0.0079838 0)
(0.00198224 -0.00885019 0)
(-0.000367918 -0.00166141 0)
(0.00193175 -0.00893491 0)
(0.00126275 -0.0058591 0)
(1.41907e-11 -4.45159e-05 0)
(0.00085955 -0.00970844 0)
(0.00139011 -0.0128795 0)
(0.00124409 -0.0163718 0)
(0.00148424 -0.00943886 0)
(0.00154477 -0.0080928 0)
(0.00141012 -0.00757468 0)
(0.00149682 -0.00722771 0)
(0.00141575 -0.00682225 0)
(0.00127679 -0.00648863 0)
(0.000330186 -0.00783579 0)
(0.000172079 -0.00902951 0)
(0.000137295 -0.00829887 0)
(0.000846229 -0.00705552 0)
(-0.000735151 -0.00996083 0)
(-0.0104675 -0.00223611 0)
(0.000375367 -0.00459696 0)
(0.000430082 -0.00961867 0)
(0.00021082 0.0039383 0)
(0.000563469 -0.012261 0)
(0.00081327 -0.0117583 0)
(-0.00106847 -0.0112509 0)
(-0.00727789 -0.0143422 0)
(0.00121356 -0.0250181 0)
(-0.000329368 -0.0401347 0)
(-0.00204184 -0.0431165 0)
(-0.00234922 -0.0415039 0)
(-0.00224635 -0.0421182 0)
(-0.00222851 -0.0426281 0)
(-0.000991137 -0.0395293 0)
(-0.00040894 -0.040199 0)
(0.000853334 -0.0415395 0)
(0.000696723 -0.0411385 0)
(0.000553461 -0.0404316 0)
(0.00127418 -0.04113 0)
(0.000538739 -0.0404121 0)
(0.000384502 -0.0407913 0)
(0.000817932 -0.0423718 0)
(-0.000291418 -0.0448417 0)
(0.000577686 -0.0454238 0)
(0.00017797 -0.0475489 0)
(9.60991e-05 -0.0488374 0)
(9.40589e-05 -0.048978 0)
(-0.00012849 -0.047041 0)
(-0.000145562 -0.0462772 0)
(0.000496897 -0.0479629 0)
(-0.000801434 -0.044676 0)
(-0.000344976 -0.0455804 0)
(0.000214539 -0.0464082 0)
(0.00213914 -0.0486285 0)
(0.00112616 -0.0482481 0)
(0.00198496 -0.0480685 0)
(0.0011277 -0.0491682 0)
(0.00152018 -0.0490994 0)
(0.00135688 -0.0477314 0)
(6.55841e-06 -0.0485087 0)
(0.000213457 -0.0477271 0)
(-0.000175433 -0.0445517 0)
(-0.000304844 -0.0460931 0)
(-5.90134e-05 -0.0468663 0)
(-0.00027795 -0.0468966 0)
(-0.000133532 -0.0467247 0)
(4.95906e-11 -4.44512e-05 0)
(4.73196e-11 -4.44823e-05 0)
(-0.000608628 0.00162907 0)
(4.51524e-11 -4.45119e-05 0)
(-0.000980294 -0.0012917 0)
(-0.000494132 0.00190749 0)
(0.000655957 -0.00631902 0)
(0.000691899 -0.00622032 0)
(0.000708307 -0.00609265 0)
(0.00070263 -0.00605338 0)
(0.001405 -0.00570021 0)
(0.000524367 -0.00278334 0)
(0.00157041 -0.0074667 0)
(0.00227045 -0.00998596 0)
(0.00109544 -0.00896915 0)
(0.00181466 -0.0118904 0)
(0.00169426 -0.01297 0)
(0.00206166 -0.0126966 0)
(0.000346099 -0.00925453 0)
(0.000120187 -0.00864527 0)
(0.000432562 -0.00804237 0)
(7.7744e-06 -0.00716392 0)
(-6.80046e-05 -0.00663688 0)
(-0.00127273 0.00337146 0)
(-0.00145969 0.00244594 0)
(-0.00184375 0.000480351 0)
(-0.00222606 -0.0118647 0)
(-0.00211338 -0.0102418 0)
(-0.000865319 -0.00891874 0)
(-0.00109341 -0.00911728 0)
(-0.00203862 -0.00954061 0)
(0.00258885 -0.00806188 0)
(0.000113054 -0.0104951 0)
(-0.00189143 -0.0135244 0)
(-0.00349644 -0.0197347 0)
(0.00112313 -0.0378966 0)
(-0.000463679 -0.0382814 0)
(-0.00276072 -0.0394251 0)
(-0.00465097 -0.0400342 0)
(-0.00438665 -0.0426609 0)
(-0.00315691 -0.0433337 0)
(-0.00281441 -0.0445118 0)
(-0.00127764 -0.0425769 0)
(-0.000590032 -0.044312 0)
(-0.000736374 -0.0446203 0)
(-0.00144973 -0.0434859 0)
(-0.00131109 -0.0432064 0)
(-0.000188674 -0.044455 0)
(1.60621e-05 -0.0455189 0)
(-7.03413e-05 -0.0461483 0)
(1.66572e-06 -0.0452258 0)
(0.000722524 -0.0459133 0)
(0.000320356 -0.0478106 0)
(-0.000195826 -0.0480492 0)
(0.000732694 -0.046859 0)
(0.00057451 -0.0461919 0)
(-0.000271574 -0.0473933 0)
(-0.00033095 -0.0480884 0)
(-0.00192061 -0.0469845 0)
(-0.000133767 -0.0500386 0)
(-0.000705159 -0.0470467 0)
(-0.000967666 -0.0490125 0)
(0.00170869 -0.0488593 0)
(0.000583109 -0.0496321 0)
(0.00146898 -0.0498751 0)
(0.000412788 -0.0486288 0)
(-0.000704794 -0.0447647 0)
(-0.000132762 -0.0467557 0)
(-0.000562809 -0.0470868 0)
(-0.000493646 -0.0469881 0)
(0.000204626 -0.046269 0)
(-0.000185 -0.0462496 0)
(0.00028878 -0.0461663 0)
(0.000229259 -0.0456332 0)
(3.5187e-05 -0.0454645 0)
(3.86417e-11 -4.44903e-05 0)
(3.70423e-11 -4.45154e-05 0)
(0.00226247 -0.00657583 0)
(3.55089e-11 -4.45395e-05 0)
(-0.000449571 0.00102668 0)
(-0.000388793 0.000945346 0)
(0.000322859 -0.00997916 0)
(0.00215286 -0.00618864 0)
(0.000397414 -0.00971288 0)
(-0.000535659 0.00064714 0)
(0.000396792 -0.00991216 0)
(0.00047362 -0.0104307 0)
(-0.000503854 -0.000307079 0)
(-0.000545487 -0.00064794 0)
(-0.000219473 -0.00932783 0)
(-0.000306614 -0.00932084 0)
(0.00118946 -0.0110215 0)
(0.000101987 -0.00841829 0)
(0.000553027 -0.00781379 0)
(4.84015e-05 -0.00750843 0)
(0.000567583 -0.00681043 0)
(0.000760038 -0.0061246 0)
(0.000749463 -0.00661612 0)
(-0.000175437 -0.000620419 0)
(-0.00124001 -0.00188466 0)
(0.0101829 -0.00251738 0)
(0.00479241 -0.00403878 0)
(0.000838775 0.00555131 0)
(-0.00284287 -0.00847661 0)
(-0.00249065 0.0041571 0)
(-0.00291017 -0.00783915 0)
(-0.00237735 -0.00848209 0)
(4.57185e-05 -0.0135052 0)
(-0.00309013 -0.0242213 0)
(0.000106893 -0.0373977 0)
(-0.000236613 -0.0386283 0)
(-0.000298186 -0.0410061 0)
(0.000344137 -0.0409033 0)
(-0.0047273 -0.0418817 0)
(-0.00404727 -0.0433127 0)
(-0.0016219 -0.0430965 0)
(0.000214664 -0.0432298 0)
(-0.00137953 -0.0465497 0)
(-0.000317827 -0.0472133 0)
(0.000817396 -0.0474037 0)
(-8.49455e-05 -0.0467323 0)
(-0.000359377 -0.0456299 0)
(-0.000468999 -0.0468638 0)
(0.000136415 -0.0468912 0)
(0.000470102 -0.047016 0)
(0.000160469 -0.0464107 0)
(-0.000145777 -0.0474193 0)
(0.000370156 -0.0456109 0)
(0.000570905 -0.044585 0)
(-7.38177e-05 -0.0463259 0)
(-0.000134405 -0.0476782 0)
(0.000365133 -0.0477014 0)
(-0.000554038 -0.0466401 0)
(-0.00132184 -0.0484705 0)
(-0.000715271 -0.0476584 0)
(0.000370515 -0.0485866 0)
(0.000262547 -0.0490287 0)
(0.000717129 -0.0481014 0)
(0.000516632 -0.0440993 0)
(0.000322987 -0.0446795 0)
(-0.000234955 -0.0433632 0)
(-0.000742857 -0.0452477 0)
(-0.00121223 -0.0421659 0)
(0.00094188 -0.0428472 0)
(-0.00010392 -0.0428703 0)
(6.13069e-05 -0.0417048 0)
(-0.000400552 -0.0416822 0)
(-0.000425626 -0.0421231 0)
(-0.000434067 -0.042308 0)
(-0.000223249 -0.0430789 0)
(1.83492e-11 -4.44914e-05 0)
(1.75892e-11 -4.45165e-05 0)
(8.57626e-05 0.00088379 0)
(1.68605e-11 -4.45405e-05 0)
(-8.09186e-05 0.00163228 0)
(0.00106273 -0.00867234 0)
(0.000609733 -0.0111035 0)
(0.000650799 -0.0109986 0)
(0.00109965 -0.00521248 0)
(0.000443167 -0.0107881 0)
(0.00284042 -0.00535036 0)
(0.000414024 -0.00483294 0)
(0.000245452 -0.00960466 0)
(0.000172378 -0.0101061 0)
(0.000181159 -0.00996971 0)
(0.000266464 -0.00961173 0)
(-0.00115326 -0.00793117 0)
(-0.00116191 -0.00716854 0)
(-0.000436604 -0.00618747 0)
(-0.000400936 -0.00556727 0)
(-0.0006303 -0.00558119 0)
(-0.000129877 -0.00497864 0)
(-0.00026815 -0.00442166 0)
(-0.000720774 -0.0040265 0)
(-0.000192865 -0.00417282 0)
(-0.00115446 0.00505036 0)
(-0.00324247 -0.00935712 0)
(-0.00782372 -0.00449949 0)
(-0.00562128 -0.0033342 0)
(-0.00473824 -0.0107964 0)
(-0.00458826 -0.0113825 0)
(-0.00395388 0.000636424 0)
(-0.00275682 -0.0078127 0)
(0.00340158 -0.00892761 0)
(-0.00887457 -0.0122955 0)
(-0.00221601 -0.0245659 0)
(-0.00290743 -0.0301484 0)
(-0.00023085 -0.0410212 0)
(-0.000604238 -0.0432059 0)
(-0.000858069 -0.0433454 0)
(1.54513e-05 -0.0432976 0)
(-0.000803245 -0.0455029 0)
(-0.000814114 -0.0449752 0)
(-0.00083197 -0.0452574 0)
(-0.00100459 -0.0456845 0)
(-0.000454199 -0.0435308 0)
(-0.000734916 -0.042638 0)
(0.000610826 -0.0440832 0)
(0.000318928 -0.0450443 0)
(0.000397082 -0.0429246 0)
(0.00179887 -0.0418755 0)
(-0.000194421 -0.0440931 0)
(-0.000205539 -0.0449881 0)
(-1.31623e-05 -0.0452284 0)
(-0.000105947 -0.0456951 0)
(0.000275805 -0.0466436 0)
(-0.000462674 -0.0460757 0)
(-0.000287769 -0.0464777 0)
(-8.54086e-06 -0.0461698 0)
(-6.58573e-05 -0.0460387 0)
(8.8423e-05 -0.0471533 0)
(0.000842828 -0.0462568 0)
(-0.000404015 -0.0413439 0)
(-8.27014e-05 -0.0417842 0)
(-4.18655e-05 -0.0416196 0)
(-0.000146289 -0.0413426 0)
(-0.000661289 -0.0374436 0)
(0.000646312 -0.0395451 0)
(-0.000539122 -0.0399826 0)
(-7.76731e-05 -0.040866 0)
(1.23479e-05 -0.0402533 0)
(0.000160047 -0.0390987 0)
(-0.000672209 -0.040554 0)
(-0.000223483 -0.0419617 0)
(-0.000142118 -0.0418043 0)
(-1.54807e-10 -4.48226e-05 0)
(-1.42491e-10 -4.49132e-05 0)
(0.00134728 0.000498571 0)
(-1.29965e-10 -4.42771e-05 0)
(0.000420754 -0.00441376 0)
(0.00136652 -8.6571e-05 0)
(-0.000862756 -0.00383678 0)
(0.00146504 -0.00545264 0)
(0.000763571 5.73366e-05 0)
(0.00153924 0.000155535 0)
(-0.00110075 -0.00340869 0)
(-0.00222444 -0.00206029 0)
(-1.19552e-10 -4.43524e-05 0)
(-0.000223259 -0.00251327 0)
(-0.000245127 -0.00267717 0)
(2.14746e-06 -5.11529e-05 0)
(-0.00271005 -0.00870905 0)
(-0.00569633 -0.0149664 0)
(-0.00433975 -0.0130881 0)
(-0.00544875 -0.0133307 0)
(-0.00477796 -0.0119055 0)
(-0.00358444 -0.0110356 0)
(-0.00143602 -0.00935885 0)
(-0.00228436 -0.00990534 0)
(-0.00153111 -0.0082406 0)