/*--------------------------------*- C++ -*----------------------------------*\
  =========                 |
  \\      /  F ield         | OpenFOAM: The Open Source CFD Toolbox
   \\    /   O peration     | Website:  https://openfoam.org
    \\  /    A nd           | Version:  12
     \\/     M anipulation  |
\*---------------------------------------------------------------------------*/
FoamFile
{
    format      ascii;
    class       IOPosition;
    location    "0.15/lagrangian/cloud";
    object      positions;
}
// * * * * * * * * * * * * * * * * * * * * * * * * * * * * * * * * * * * * * //

3403
(
(0.873038 0.0634812 0.030381 0.0331003) 0 7375 1
(0.724206 0.137897 0.112365 0.0255319) 1 7376 1
(0.700966 0.142047 0.149517 0.00746995) 2 7377 2
(0.832644 0.0836778 0.0293798 0.054298) 4 7379 1
(0.700737 0.060944 0.0886874 0.149631) 5 8 2
(0.165571 0.292716 0.124499 0.417214) 6 10 2
(0.0292029 0.485399 0.386209 0.0991892) 7 12 1
(0.41849 0.290755 0.233334 0.0574209) 7 14 1
(0.562837 0.0032913 0.218581 0.21529) 8 7383 2
(0.298259 0.35087 0.0859407 0.26493) 9 18 1
(0.031981 0.48401 0.463477 0.0205328) 11 20 1
(0.664323 0.148384 0.0194546 0.167838) 12 25 1
(0.55694 0.165919 0.0556103 0.22153) 13 27 1
(0.413779 0.29311 0.1659 0.12721) 14 29 2
(0.389527 0.0431736 0.262063 0.305237) 15 28 2
(0.142116 0.234022 0.19492 0.428942) 16 30 2
(0.0870313 0.26749 0.188995 0.456484) 17 32 2
(0.336278 0.149519 0.331861 0.182342) 17 34 2
(0.624657 0.0865484 0.187672 0.101123) 18 7393 2
(0.413269 0.277931 0.293365 0.0154341) 19 7394 2
(0.438873 0.185979 0.280563 0.0945841) 20 7395 2
(0.314892 0.233555 0.342554 0.108999) 21 42 2
(0.0342269 0.232748 0.482887 0.250138) 22 44 2
(0.350981 0.0485918 0.275918 0.32451) 23 47 1
(0.35704 0.289726 0.0317539 0.32148) 24 49 1
(0.431835 0.284083 0.0813827 0.2027) 25 51 2
(0.0946643 0.443303 0.00936465 0.452668) 26 50 2
(0.277268 0.361366 0.103195 0.25817) 27 52 1
(0.423195 0.288402 0.00526689 0.283136) 28 54 1
(0.482061 0.25897 0.0105674 0.248402) 29 56 1
(0.77256 0.11372 0.0229124 0.0908078) 30 7405 1
(0.842329 0.0105614 0.0682742 0.0788356) 31 63 1
(0.844824 0.00154596 0.077588 0.0760421) 32 64 2
(0.42216 0.0969598 0.28892 0.19196) 33 66 2
(0.452141 0.154271 0.119659 0.27393) 34 69 1
(0.331711 0.334144 0.220989 0.113156) 35 71 2
(0.333295 0.333353 0.0618433 0.271509) 36 73 2
(0.0561304 0.131136 0.340799 0.471935) 37 72 2
(0.267967 0.112875 0.366016 0.253141) 37 74 2
(0.621238 0.189381 0.0548054 0.134576) 38 76 1
(0.430241 0.284879 0.120249 0.164631) 39 78 1
(0.106137 0.446931 0.164623 0.282308) 40 80 1
(0.27726 0.36137 0.180201 0.181169) 42 82 1
(0.699489 0.055611 0.150255 0.0946444) 43 7418 2
(0.477018 0.261491 0.0689816 0.192509) 44 88 1
(0.403592 0.182964 0.298204 0.11524) 45 90 2
(0.56437 0.0485075 0.217815 0.169307) 46 92 2
(0.892277 0.034018 0.0538617 0.0198437) 47 94 2
(0.808114 0.0959428 0.00324598 0.0926968) 48 94 1
(0.493378 0.223166 0.253311 0.0301453) 49 7424 2
(0.436755 0.281622 0.262254 0.0193682) 50 100 1
(0.365868 0.317066 0.159436 0.15763) 52 102 1
(0.490541 0.198513 0.0562166 0.25473) 53 104 2
(0.0781842 0.428577 0.032331 0.460908) 54 106 2
(0.639874 0.180063 0.151346 0.0287165) 55 108 1
(0.0687355 0.125091 0.340542 0.465632) 56 110 2
(0.429712 0.0565436 0.2286 0.285144) 56 113 1
(0.757105 0.121448 0.114834 0.00661329) 57 115 2
(0.86104 0.0694798 0.0460913 0.0233885) 58 7433 1
(0.595058 0.170279 0.0321917 0.202471) 59 116 2
(0.593982 0.0528018 0.150207 0.203009) 60 118 2
(0.657005 0.144532 0.0269653 0.171497) 61 123 1
(0.585077 0.107188 0.100274 0.207462) 62 125 1
(0.393428 0.10657 0.303286 0.196716) 63 126 2
(0.603915 0.148751 0.198043 0.0492915) 64 128 2
(0.446344 0.0337377 0.276828 0.24309) 65 7440 2
(0.268535 0.365733 0.324897 0.040836) 66 132 1
(0.546913 0.226543 0.157563 0.0689806) 68 7443 1
(0.640375 0.136489 0.179812 0.0433229) 69 138 2
(0.703052 0.144732 0.0037417 0.148474) 70 141 1
(0.618133 0.0355083 0.190934 0.155425) 75 1 1
(0.310369 0.110031 0.344816 0.234784) 76 3 1
(0.408334 0.218169 0.295833 0.0776639) 77 5 1
(0.528287 0.211396 0.0244605 0.235856) 78 153 2
(0.595761 0.162769 0.0393505 0.20212) 79 158 1
(0.551972 0.148217 0.0757968 0.224014) 80 160 1
(0.518825 0.240588 0.047489 0.193099) 81 162 2
(0.59279 0.203605 0.194002 0.00960369) 82 161 1
(0.517163 0.241418 0.0419498 0.199468) 83 163 1
(0.34733 0.325391 0.326335 0.000944694) 84 19 1
(0.441189 0.137344 0.279406 0.142062) 85 21 1
(0.951084 0.0116406 0.0128175 0.024458) 86 172 1
(0.610839 0.154287 0.0402932 0.19458) 87 174 1
(0.297357 0.114333 0.351322 0.236989) 88 175 2
(0.557841 0.0719679 0.149112 0.221079) 89 178 1
(0.420237 0.274785 0.0150967 0.289882) 90 180 1
(0.519874 0.148736 0.091327 0.240063) 91 182 1
(0.387834 0.161657 0.306083 0.144426) 92 183 2
(0.277496 0.361252 0.0490948 0.312157) 93 185 1
(0.620814 0.189593 0.121444 0.0681491) 94 187 1
(0.517906 0.241047 0.0999713 0.141076) 95 190 2
(0.241224 0.0399434 0.339445 0.379388) 96 189 2
(0.0520119 0.136117 0.337877 0.473994) 97 191 2
(0.129346 0.0772784 0.358048 0.435327) 98 193 2
(0.317691 0.0951294 0.246025 0.341155) 99 195 2
(0.86158 0.06921 0.0259612 0.0432488) 100 51 2
(0.670438 0.164781 0.131377 0.033404) 101 53 2
(0.536206 0.231897 0.0643425 0.167555) 102 55 2
(0.467393 0.131208 0.266304 0.135095) 103 57 1
(0.486999 0.243902 0.2565 0.0125979) 104 59 1
(0.465647 0.267176 0.253465 0.0137117) 105 207 1
(0.0692102 0.300535 0.16486 0.465395) 106 209 2
(0.291277 0.1428 0.354361 0.211561) 106 211 2
(0.495358 0.0110593 0.252321 0.241262) 107 213 2
(0.192406 0.06443 0.403797 0.339367) 108 215 2
(0.0570827 0.110219 0.471459 0.361239) 109 217 2
(0.152282 0.0643679 0.423859 0.359491) 110 219 2
(0.0403185 0.286626 0.479841 0.193215) 111 221 2
(0.57288 0.21356 0.07025 0.14331) 113 223 1
(0.455942 0.272029 0.0194904 0.252538) 114 225 1
(0.348495 0.325752 0.229679 0.0960737) 115 81 2
(0.241428 0.379286 0.0850741 0.294212) 116 83 2
(0.142114 0.361699 0.428943 0.0672436) 117 85 1
(0.47369 0.161603 0.263155 0.101552) 118 87 1
(0.61064 0.0620259 0.132654 0.19468) 119 235 2
(0.543706 0.228147 0.049458 0.178689) 120 240 2
(0.706674 0.0821774 0.0644856 0.146663) 121 242 1
(0.594107 0.202946 0.0868592 0.116087) 122 243 1
(0.512426 0.206208 0.243787 0.0375792) 123 97 1
(0.359287 0.320357 0.0566931 0.263664) 124 99 2
(0.145862 0.281973 0.427069 0.145096) 124 247 2
(0.603196 0.135849 0.0625531 0.198402) 125 250 1
(0.601623 0.199188 0.0942229 0.104965) 126 252 2
(0.520031 0.105155 0.239985 0.13483) 127 253 2
(0.437151 0.281425 0.233638 0.0477868) 128 256 2
(0.270746 0.364627 0.141456 0.223171) 129 258 2
(0.358491 0.320755 0.186013 0.134741) 130 260 2
(0.745136 0.0997405 0.127432 0.0276914) 131 261 2
(0.825117 0.0310473 0.0874416 0.0563943) 132 115 1
(0.782857 0.108238 0.108571 0.000333067) 133 117 1
(0.360581 0.319709 0.301534 0.0181759) 134 267 1
(0.199067 0.400467 0.0440891 0.356377) 136 269 1
(0.318458 0.340771 0.0622303 0.278541) 137 125 2
(0.664673 0.0283482 0.167664 0.139315) 138 127 1
(0.51578 0.114017 0.24211 0.128093) 139 129 1
(0.480549 0.259725 0.0631965 0.196529) 140 277 1
(0.348968 0.325516 0.105671 0.219845) 140 279 1
(0.8307 0.0588355 0.0258144 0.08465) 141 282 1
(0.716846 0.090987 0.05059 0.141577) 142 284 1
(0.449373 0.275313 0.0436542 0.231659) 150 15077 2
(0.342211 0.328895 0.0231114 0.305783) 151 298 1
(0.159779 0.42011 0.101641 0.318469) 152 300 1
(0.0483349 0.4129 0.0629328 0.475833) 153 302 2
(0.1585 0.223279 0.42075 0.197471) 153 304 2
(0.196654 0.0974612 0.401673 0.304212) 154 306 2
(0.232822 0.118032 0.383589 0.265557) 155 308 2
(0.420425 0.145166 0.289787 0.144621) 156 310 2
(0.486187 0.256907 0.218373 0.0385334) 157 312 1
(0.30156 0.143256 0.34922 0.205964) 158 166 1
(0.21842 0.204206 0.39079 0.186584) 159 168 1
(0.626205 0.0714119 0.186897 0.115486) 160 170 1
(0.660021 0.145568 0.0244214 0.16999) 161 321 1
(0.647732 0.0805063 0.176134 0.0956277) 162 322 2
(0.738736 0.0490332 0.081599 0.130632) 163 325 1
(0.767499 0.11625 0.110732 0.00551809) 164 327 2
(0.317238 0.166853 0.341381 0.174528) 165 328 2
(0.00779047 0.425144 0.0709611 0.496105) 167 330 2
(0.245234 0.243524 0.377383 0.133859) 167 332 2
(0.266811 0.0898226 0.366595 0.276772) 168 334 2
(0.230505 0.0816595 0.303088 0.384748) 169 337 1
(0.25377 0.130215 0.2429 0.373115) 170 339 1
(0.432509 0.119331 0.164414 0.283745) 171 341 1
(0.341053 0.21783 0.111644 0.329473) 172 343 1
(0.340582 0.140241 0.329709 0.189468) 173 344 2
(0.0983801 0.45081 0.133358 0.317452) 174 346 1
(0.34834 0.32583 0.236176 0.0896542) 175 348 1
(0.515643 0.242179 0.240034 0.00214495) 176 350 1
(0.774078 0.0816314 0.112961 0.0313296) 177 352 2
(0.646922 0.176539 0.173766 0.00277351) 178 355 2
(0.484942 0.155222 0.102307 0.257529) 179 357 1
(0.520117 0.106694 0.239941 0.133248) 180 358 2
(0.584437 0.114581 0.207781 0.0932007) 181 360 2
(0.570348 0.163304 0.214826 0.0515217) 182 362 2
(0.373944 0.160571 0.313028 0.152457) 183 364 2
(0.159616 0.130864 0.420192 0.289328) 184 366 2
(0.0466575 0.224256 0.252415 0.476671) 186 368 2
(0.0754483 0.462276 0.34378 0.118496) 187 370 1
(0.067541 0.46623 0.166129 0.300101) 188 372 1
(0.141361 0.42932 0.131587 0.297732) 189 374 1
(0.139258 0.430371 0.390568 0.0398032) 190 230 2
(0.16953 0.415235 0.377778 0.0374572) 191 232 2
(0.106785 0.446608 0.0148496 0.431758) 192 380 1
(0.143091 0.428455 0.232813 0.195641) 192 382 1
(0.452565 0.00620746 0.273717 0.26751) 193 384 2
(0.54594 0.0411109 0.185919 0.22703) 194 387 1
(0.562627 0.218686 0.198658 0.0200282) 195 389 2
(0.513763 0.243118 0.0478686 0.19525) 196 391 2
(0.491866 0.254067 0.0918047 0.162262) 197 393 2
(0.483182 0.0249144 0.233495 0.258409) 198 392 2
(0.468427 0.0423686 0.223418 0.265787) 199 394 2
(0.372744 0.172887 0.140741 0.313628) 200 396 2
(0.453103 0.196876 0.0765729 0.273448) 201 398 2
(0.915415 0.0422927 0.0338101 0.00848258) 202 400 1
(0.690941 0.0680677 0.0864619 0.15453) 203 402 2
(0.537453 0.231274 0.137752 0.0935218) 204 407 2
(0.498431 0.0416555 0.250784 0.209129) 205 408 2
(0.214787 0.241532 0.392607 0.151074) 206 410 2
(0.062735 0.232892 0.235741 0.468633) 208 412 2
(0.309188 0.345406 0.0191329 0.326273) 208 414 1
(0.275088 0.230484 0.362456 0.131972) 209 268 1
(0.232745 0.383628 0.0503886 0.333239) 210 270 2
(0.263393 0.368304 0.254906 0.113397) 211 272 2
(0.0429062 0.478547 0.25805 0.220497) 212 420 1
(0.61413 0.0375518 0.192935 0.155383) 212 422 2
(0.69502 0.15249 0.0387253 0.113765) 213 425 2
(0.786541 0.10673 0.0249575 0.0817722) 214 278 2
(0.697936 0.00872878 0.151032 0.142303) 215 280 1
(0.105184 0.447408 0.179986 0.267422) 216 430 1
(0.0117719 0.494114 0.327305 0.166809) 225 447 1
(0.156137 0.421931 0.314587 0.107344) 226 449 1
(0.397072 0.301464 0.184362 0.117102) 227 451 1
(0.485556 0.195773 0.0614487 0.257222) 228 454 1
(0.459069 0.270465 0.263483 0.00698199) 229 456 2
(0.4681 0.178459 0.087491 0.26595) 230 458 1
(0.657356 0.0177939 0.171322 0.153528) 231 459 2
(0.667988 0.166006 0.0493968 0.116609) 232 461 1
(0.589299 0.0803488 0.205351 0.125002) 233 315 1
(0.308221 0.345889 0.0170315 0.328858) 234 317 2
(0.41992 0.29004 0.146421 0.143619) 235 319 2
(0.0590736 0.193737 0.276726 0.470463) 236 467 2
(0.318607 0.0489107 0.340696 0.291786) 236 469 2
(0.295917 0.299993 0.352042 0.0520485) 237 471 2
(0.350539 0.32473 0.188241 0.136489) 239 473 1
(0.111007 0.444496 0.322017 0.12248) 240 475 1
(0.826144 0.0167125 0.0869278 0.0702153) 241 331 1
(0.826408 0.0867958 0.0208338 0.0659619) 242 481 1
(0.324157 0.337922 0.0773724 0.260549) 243 484 2
(0.095075 0.057465 0.394997 0.452462) 244 483 2
(0.266042 0.366979 0.0161556 0.350824) 245 488 2
(0.480176 0.259912 0.0968912 0.163021) 246 490 2
(0.413876 0.293062 0.0392245 0.253838) 247 492 2
(0.581038 0.209481 0.0108202 0.198661) 248 494 2
(0.677719 0.0339918 0.127149 0.16114) 249 493 2
(0.558123 0.220939 0.0408953 0.180043) 250 495 1
(0.353558 0.323221 0.0278186 0.295403) 251 497 1
(0.533317 0.233341 0.0740723 0.159269) 252 499 1
(0.475557 0.14837 0.113851 0.262222) 253 501 2
(0.677274 0.161363 0.0963263 0.0650365) 254 506 2
(0.736825 0.131588 0.0151052 0.116482) 255 507 1
(0.593436 0.203282 0.0311278 0.172154) 256 509 1
(0.692128 0.153936 0.0737049 0.0802312) 257 511 1
(0.465893 0.263453 0.267054 0.00360041) 258 513 2
(0.214297 0.257049 0.392852 0.135803) 259 515 2
(0.109849 0.315216 0.12986 0.445075) 261 517 2
(0.166279 0.416861 0.222779 0.194081) 262 519 1
(0.14286 0.42857 0.220538 0.208032) 263 521 1
(0.0253784 0.487311 0.271071 0.216239) 263 523 1
(0.169391 0.415305 0.370636 0.0446688) 264 525 1
(0.415807 0.0155875 0.292097 0.276509) 265 379 1
(0.715174 0.0686916 0.142413 0.0737213) 266 381 1
(0.738062 0.0204488 0.11052 0.130969) 267 529 2
(0.445963 0.277018 0.167607 0.109412) 268 534 2
(0.464052 0.267974 0.0973501 0.170624) 269 536 2
(0.464094 0.267953 0.0780209 0.189932) 270 538 2
(0.491185 0.254408 0.117403 0.137005) 271 540 2
(0.43479 0.123763 0.158842 0.282605) 272 539 2
(0.561421 0.141796 0.0774932 0.21929) 273 541 2
(0.583786 0.208107 0.143022 0.0650853) 274 546 2
(0.451633 0.274183 0.225693 0.04849) 275 545 1
(0.393448 0.303276 0.156919 0.146357) 276 547 1
(0.880769 0.0271618 0.0324536 0.0596154) 277 552 1
(0.736386 0.131807 0.110817 0.0209893) 278 551 1
(0.551288 0.224356 0.159336 0.0650203) 279 407 2
(0.559253 0.0625482 0.220373 0.157825) 280 409 1
(0.805805 0.0483168 0.0970974 0.0487806) 281 411 1
(0.63945 0.0364867 0.143788 0.180275) 282 562 1
(0.291311 0.0796343 0.354344 0.27471) 283 563 2
(0.390513 0.128267 0.304743 0.176477) 284 565 2
(0.211504 0.268522 0.125726 0.394248) 285 568 1
(0.112649 0.443675 0.348499 0.0951759) 286 570 2
(0.250494 0.374753 0.0657942 0.308959) 287 572 2
(0.239119 0.166977 0.38044 0.213463) 287 571 2
(0.248505 0.375747 0.194258 0.18149) 288 573 1
(0.177159 0.411421 0.291625 0.119796) 289 575 1
(0.0139596 0.49302 0.324745 0.168276) 290 577 1
(0.0520312 0.473984 0.297082 0.176902) 291 579 1
(0.613426 0.193287 0.114835 0.0784517) 300 15079 2
(0.487828 0.256086 0.0292196 0.226866) 301 596 1
(0.135867 0.23402 0.432067 0.198046) 301 598 2
(0.286729 0.151952 0.356635 0.204683) 302 600 2
(0.192637 0.283743 0.119939 0.403681) 304 602 2
(0.372773 0.132346 0.181268 0.313613) 305 604 2
(0.528925 0.0545029 0.181035 0.235538) 306 606 2
(0.519625 0.240187 0.0216288 0.218558) 307 611 2
(0.619589 0.190205 0.062365 0.12784) 308 613 2
(0.557747 0.221126 0.136311 0.0848151) 309 612 1
(0.0278451 0.486077 0.416326 0.0697515) 310 614 1
(0.330448 0.0792598 0.255516 0.334776) 310 617 1
(0.243027 0.241477 0.13701 0.378487) 311 619 1
(0.657129 0.171435 0.140206 0.0312294) 312 620 1
(0.470564 0.106825 0.264718 0.157893) 313 474 1
(0.530019 0.0197427 0.23499 0.215248) 314 476 1
(0.730291 0.0180893 0.134854 0.116765) 315 478 1
(0.708883 0.027775 0.145558 0.117783) 316 628 2
(0.541584 0.168978 0.0602295 0.229208) 317 631 1
(0.450193 0.187225 0.0876785 0.274903) 318 633 1
(0.413676 0.0900768 0.203085 0.293162) 320 634 2
(0.476273 0.0952395 0.166624 0.261863) 321 636 2
(0.678514 0.0538494 0.106893 0.160743) 322 638 2
(0.637817 0.167198 0.0138939 0.181092) 323 640 2
(0.864233 0.0678836 0.0527018 0.0151818) 324 644 1
(0.486761 0.243136 0.256619 0.013483) 325 646 2
(0.5344 0.209924 0.2328 0.0228759) 326 648 2
(0.930484 0.0347578 0.0131766 0.0215812) 327 502 2
(0.589753 0.205123 0.117131 0.0879928) 328 650 1
(0.668335 0.0784784 0.165833 0.0873542) 329 506 1
(0.522764 0.13126 0.238618 0.107358) 330 508 1
(0.544623 0.227688 0.141792 0.0858966) 331 658 1
(0.532917 0.233541 0.141556 0.0919854) 332 660 1
(0.407303 0.296348 0.144161 0.152187) 333 662 1
(0.0261765 0.486912 0.0847394 0.402172) 334 664 1
(0.176146 0.162942 0.248984 0.411927) 336 666 2
(0.0922939 0.243827 0.453853 0.210026) 336 668 2
(0.189053 0.247047 0.405474 0.158427) 337 670 2
(0.437584 0.18945 0.281208 0.0917577) 338 672 2
(0.668448 0.129246 0.0365295 0.165776) 339 675 1
(0.594052 0.202974 0.0630864 0.139888) 340 677 2
(0.573377 0.148175 0.0651368 0.213312) 341 676 2
(0.475102 0.223865 0.0385842 0.262449) 342 678 2
(0.709951 0.0678129 0.0772115 0.145024) 343 680 2
(0.918713 0.0406433 0.00710722 0.0335361) 344 685 2
(0.55238 0.22381 0.0631737 0.160636) 345 686 1
(0.118237 0.341498 0.0993833 0.440882) 347 688 2
(0.474005 0.0222889 0.240709 0.262998) 348 690 2
(0.183955 0.139876 0.268146 0.408022) 349 692 2
(0.0735758 0.281033 0.463212 0.182179) 349 694 2
(0.278226 0.360887 0.0878456 0.273041) 350 696 1
(0.557125 0.221437 0.0286684 0.192769) 351 698 1
(0.484973 0.0355833 0.22193 0.257514) 352 701 1
(0.576992 0.0101218 0.211504 0.201382) 353 702 2
(0.746775 0.0515131 0.126612 0.0750994) 354 556 1
(0.644988 0.177506 0.0547729 0.122733) 355 558 2
(0.603412 0.198294 0.028415 0.169879) 356 560 2
(0.856188 0.0657372 0.00616906 0.0719062) 357 711 1
(0.533543 0.227756 0.00547239 0.233228) 358 713 1
(0.268568 0.297384 0.0683323 0.365716) 359 715 1
(0.222978 0.332097 0.0564141 0.388511) 360 717 1
(0.0723577 0.448784 0.0150368 0.463821) 361 719 1
(0.187943 0.406028 0.238206 0.167822) 362 721 2
(0.234996 0.244891 0.137611 0.382502) 363 720 2
(0.153871 0.423064 0.135046 0.288019) 364 722 1
(0.0707966 0.464602 0.204529 0.260073) 365 724 1
(0.24244 0.37878 0.166902 0.211878) 365 726 1
(0.193018 0.403491 0.253815 0.149676) 366 728 1
(0.0459166 0.259124 0.477042 0.217918) 375 745 2
(0.295088 0.199854 0.352456 0.152602) 376 747 2
(0.261651 0.369175 0.0272547 0.34192) 377 749 1
(0.00944196 0.495279 0.1078 0.387479) 378 751 1
(0.332821 0.333589 0.275134 0.0584557) 380 753 1
(0.567625 0.181649 0.0345384 0.216187) 381 755 2
(0.625382 0.187309 0.0419912 0.145318) 382 760 2
(0.363627 0.318187 0.202637 0.11555) 383 762 2
(0.262251 0.368874 0.241072 0.127802) 384 764 2
(0.222739 0.38863 0.193046 0.195584) 385 766 2
(0.267092 0.00248766 0.363966 0.366454) 386 765 2
(0.160828 0.0115892 0.407997 0.419586) 387 767 2
(0.638127 0.0609794 0.119957 0.180936) 388 769 2
(0.154266 0.422867 0.193788 0.22908) 389 771 1
(0.22907 0.385465 0.201629 0.183837) 389 773 1
(0.000225343 0.42403 0.499887 0.0758573) 390 775 2
(0.16314 0.296869 0.41843 0.121561) 391 777 2
(0.393295 0.303352 0.0119925 0.29136) 392 779 1
(0.0870261 0.456487 0.052847 0.40364) 393 781 1
(0.424979 0.28751 0.174906 0.112605) 395 783 1
(0.733271 0.133364 0.122947 0.0104169) 396 787 1
(0.600095 0.199952 0.0935339 0.106418) 397 789 1
(0.309342 0.345329 0.144445 0.200885) 398 791 1
(0.583976 0.208012 0.173597 0.0344149) 399 793 1
(0.494805 0.252597 0.185792 0.0668057) 400 795 1
(0.416735 0.291633 0.191974 0.0996586) 401 797 1
(0.420917 0.289541 0.135039 0.154502) 402 799 1
(0.279813 0.360094 0.223009 0.137085) 403 801 1
(0.197353 0.401323 0.167533 0.23379) 404 803 1
(0.530364 0.234818 0.0671565 0.167661) 405 805 1
(0.750609 0.124695 0.0630341 0.0616612) 406 807 1
(0.557486 0.0331751 0.221257 0.188082) 407 661 1
(0.394352 0.302824 0.268907 0.0339173) 408 811 1
(0.285034 0.357483 0.228759 0.128724) 409 813 1
(0.356375 0.00475539 0.317057 0.321813) 410 816 1
(0.345038 0.123373 0.204108 0.327481) 411 818 1
(0.301916 0.285302 0.0637402 0.349042) 412 820 1
(0.314543 0.342728 0.335048 0.00768014) 413 822 2
(0.610325 0.174652 0.020186 0.194838) 414 824 1
(0.728185 0.135908 0.076827 0.0590808) 415 826 2
(0.54685 0.226575 0.196766 0.0298085) 416 825 1
(0.415079 0.29246 0.228683 0.0637772) 417 827 1
(0.626371 0.186814 0.0652475 0.121567) 418 829 1
(0.50164 0.155478 0.24918 0.0937022) 419 685 1
(0.474261 0.215556 0.262869 0.0473137) 420 687 1
(0.586042 0.201439 0.00554067 0.206979) 421 835 2
(0.709487 0.145257 0.0840431 0.0612135) 422 840 2
(0.615754 0.0127063 0.179417 0.192123) 423 842 1
(0.436228 0.147088 0.281886 0.134798) 424 843 2
(0.554745 0.100429 0.122199 0.222627) 425 846 1
(0.540321 0.128689 0.101151 0.22984) 426 848 1
(0.312431 0.263689 0.0800954 0.343784) 427 850 1
(0.233952 0.304109 0.0789152 0.383024) 428 852 1
(0.271612 0.239452 0.124741 0.364194) 429 854 1
(0.948894 0.0255531 0.0209556 0.00459751) 430 855 1
(0.434318 0.282841 0.14923 0.133611) 431 709 2
(0.431508 0.284246 0.176751 0.107495) 432 711 2
(0.924054 0.0379729 0.025439 0.0125339) 433 713 2
(0.281501 0.247734 0.111516 0.35925) 434 864 1
(0.124774 0.328257 0.109356 0.437613) 435 866 1
(0.0583797 0.376685 0.0941252 0.47081) 436 868 1
(0.373202 0.199189 0.11421 0.313399) 437 870 1
(0.646056 0.14954 0.0274322 0.176972) 438 872 1
(0.364027 0.317986 0.252029 0.0659574) 439 874 2
(0.334406 0.332797 0.0500424 0.282754) 440 876 2
(0.0284389 0.266138 0.485781 0.219642) 440 875 2
(0.305268 0.347366 0.325234 0.0221322) 441 877 1
(0.418518 0.290741 0.26171 0.0290315) 450 15081 2
(0.57704 0.21148 0.0858998 0.12558) 451 897 2
(0.802934 0.0223296 0.0762034 0.0985331) 452 896 2
(0.496459 0.251771 0.141043 0.110727) 453 898 1
(0.435456 0.282272 0.246587 0.0356848) 454 900 1
(0.434397 0.158902 0.1239 0.282802) 455 902 2
(0.455938 0.272031 0.190275 0.0817555) 456 904 1
(0.726414 0.0899753 0.0468176 0.136793) 457 906 2
(0.366509 0.316746 0.165437 0.151308) 458 911 2
(0.291046 0.354477 0.205777 0.1487) 459 913 2
(0.265537 0.367231 0.21528 0.151952) 460 915 2
(0.28707 0.356465 0.344052 0.0124127) 461 917 2
(0.308385 0.283743 0.0620642 0.345807) 462 919 1
(0.481489 0.259255 0.0521195 0.207136) 463 920 1
(0.473313 0.263344 0.165511 0.0978327) 464 922 1
(0.726979 0.13651 0.0734224 0.0630879) 465 924 1
(0.942473 0.0148338 0.0287633 0.0139296) 466 926 2
(0.731523 0.115774 0.134239 0.0184645) 467 928 2
(0.795228 0.102386 0.0976431 0.00474291) 468 930 1
(0.623497 0.0559038 0.188252 0.132348) 469 784 1
(0.451839 0.0781985 0.27408 0.195882) 470 786 1
(0.428558 0.122097 0.285721 0.163624) 471 788 1
(0.460214 0.0633989 0.269893 0.206494) 472 790 1
(0.27881 0.360595 0.223478 0.137117) 473 940 1
(0.0973066 0.402645 0.0487012 0.451347) 475 942 2
(0.149505 0.425248 0.395543 0.0297048) 476 944 1
(0.0118307 0.494085 0.163831 0.330254) 476 946 1
(0.367073 0.316463 0.236738 0.0797257) 477 948 1
(0.434588 0.166173 0.282706 0.116533) 478 802 1
(0.61507 0.192465 0.0260037 0.166461) 479 804 2
(0.63138 0.18431 0.123927 0.060383) 480 806 2
(0.633102 0.164007 0.183449 0.0194421) 481 808 1
(0.509345 0.180224 0.245327 0.065103) 482 810 1
(0.740543 0.129729 0.0231521 0.106577) 483 812 2
(0.796633 0.0382531 0.0634306 0.101684) 484 960 2
(0.341295 0.30811 0.0212428 0.329353) 485 965 1
(0.290081 0.350235 0.00472464 0.35496) 486 967 1
(0.361148 0.319426 0.214639 0.104788) 487 969 2
(0.520303 0.239648 0.000200429 0.239848) 488 971 1
(0.667474 0.117657 0.0486062 0.166263) 489 973 1
(0.692778 0.153611 0.138022 0.015589) 490 975 2
(0.669184 0.0713748 0.0940333 0.165408) 491 974 2
(0.443952 0.278024 0.231124 0.0468994) 492 976 1
(0.725792 0.137104 0.0263169 0.110787) 493 978 1
(0.507451 0.22982 0.0164539 0.246274) 494 980 2
(0.197064 0.376578 0.0248902 0.401468) 495 982 2
(0.119067 0.440466 0.292537 0.147929) 496 984 1
(0.536591 0.231705 0.074137 0.157568) 497 986 1
(0.819738 0.0746759 0.090131 0.015455) 498 842 1
(0.936801 0.0315997 0.0217108 0.0098889) 499 844 2
(0.578632 0.210684 0.173996 0.0366879) 500 995 2
(0.550623 0.224688 0.110044 0.114644) 501 997 2
(0.410284 0.294858 0.149653 0.145205) 502 999 2
(0.252768 0.339978 0.0336381 0.373616) 503 1001 1
(0.222844 0.190549 0.198029 0.388578) 504 1003 1
(0.599483 0.0851166 0.115142 0.200258) 505 1005 1
(0.342045 0.328977 0.0472577 0.28172) 506 858 2
(0.386813 0.306594 0.175835 0.130758) 507 860 2
(0.188727 0.405637 0.238959 0.166678) 508 1008 1
(0.289069 0.0225044 0.355466 0.332961) 508 1010 2
(0.243944 0.0876237 0.290404 0.378028) 509 1013 1
(0.105934 0.0386232 0.40841 0.447033) 511 1014 2
(0.170229 0.414885 0.21536 0.199526) 512 1019 2
(0.182543 0.408728 0.291027 0.117701) 513 1021 2
(0.147302 0.426349 0.306091 0.120258) 514 1023 2
(0.220407 0.389796 0.244891 0.144905) 515 1025 2
(0.528242 0.235879 0.117702 0.118177) 516 1024 1
(0.33056 0.33472 0.266349 0.0683715) 517 880 2
(0.0747987 0.350646 0.462601 0.111954) 525 1043 2
(0.336232 0.255487 0.076397 0.331884) 527 1045 2
(0.585819 0.20709 0.162982 0.0441087) 528 1047 1
(0.561815 0.219092 0.0596805 0.159412) 529 1049 1
(0.594532 0.202734 0.0549278 0.147806) 530 1051 1
(0.462759 0.26862 0.0941271 0.174493) 531 1053 1
(0.331848 0.334076 0.324313 0.00976314) 532 1055 1
(0.434869 0.0512896 0.231276 0.282566) 533 1057 2
(0.413433 0.293284 0.0764684 0.216815) 534 1062 2
(0.455004 0.272498 0.0886452 0.183853) 535 1064 2
(0.500715 0.248965 0.000677704 0.249642) 536 1066 1
(0.553243 0.0888135 0.223379 0.134565) 537 1067 2
(0.611388 0.194306 0.18808 0.00622628) 538 1069 1
(0.54305 0.228475 0.153083 0.0753918) 539 1071 1
(0.7178 0.1411 0.0587152 0.0823847) 540 1073 1
(0.439188 0.280406 0.113423 0.166983) 541 1075 1
(0.66685 0.166575 0.0976309 0.0689443) 542 1077 1
(0.932121 0.022176 0.0339396 0.0117636) 543 931 1
(0.483096 0.258452 0.0119419 0.24651) 544 933 2
(0.331513 0.334244 0.010395 0.323849) 545 935 2
(0.269421 0.258013 0.365289 0.107276) 546 937 1
(0.206187 0.228174 0.396907 0.168733) 547 939 1
(0.198638 0.171986 0.400681 0.228695) 548 941 1
(0.757024 0.121488 0.100588 0.0209) 549 1091 1
(0.543135 0.228433 0.172137 0.0562956) 550 1094 2
(0.317099 0.341451 0.169604 0.171847) 551 1096 2
(0.256996 0.371502 0.147132 0.22437) 552 1098 2
(0.870818 0.0645912 0.0110837 0.0535075) 553 951 2
(0.623489 0.188255 0.027349 0.160906) 554 1099 1
(0.158391 0.420804 0.128058 0.292747) 555 1101 1
(0.181424 0.409288 0.344648 0.06464) 555 1103 1
(0.305602 0.347199 0.330654 0.016545) 556 1105 1
(0.454648 0.272676 0.261929 0.0107472) 557 1107 1
(0.363973 0.318013 0.0255366 0.292477) 558 1109 1
(0.719281 0.0521895 0.140359 0.0881698) 559 1111 2
(0.437343 0.117404 0.281328 0.163924) 560 1113 2
(0.158084 0.286646 0.134312 0.420958) 562 1115 2
(0.245687 0.10485 0.272307 0.377157) 563 1117 2
(0.268547 0.365726 0.116976 0.248751) 564 1122 2
(0.321836 0.339082 0.1288 0.210282) 565 1124 2
(0.480453 0.0393191 0.220454 0.259773) 566 1123 2
(0.39852 0.0559883 0.244752 0.30074) 567 1125 2
(0.631662 0.184169 0.0367505 0.147419) 568 1130 2
(0.500941 0.156537 0.0929932 0.24953) 569 1129 2
(0.128615 0.435692 0.279645 0.156048) 570 1131 1
(0.153569 0.423215 0.279677 0.143538) 570 1133 1
(0.0849936 0.457503 0.28059 0.176913) 571 1135 1
(0.272436 0.363782 0.134271 0.229511) 572 1137 1
(0.288477 0.355761 0.025244 0.330517) 573 1139 1
(0.488058 0.191936 0.0640348 0.255971) 575 1141 2
(0.238889 0.297725 0.08283 0.380555) 576 1143 2
(0.369186 0.21789 0.0975169 0.315407) 577 1145 2
(0.790707 0.104646 0.0447674 0.0598789) 578 1150 2
(0.147022 0.0989322 0.426489 0.327557) 579 1151 2
(0.227543 0.0603915 0.386228 0.325837) 580 1153 2
(0.157003 0.0893304 0.332168 0.421499) 581 1156 1
(0.15045 0.298703 0.126072 0.424775) 582 1158 1
(0.18042 0.40979 0.242038 0.167752) 583 1160 2
(0.13443 0.0762293 0.356555 0.432785) 584 1159 2
(0.268454 0.0883539 0.365773 0.277419) 584 1161 2
(0.273893 0.195368 0.167685 0.363053) 586 1163 2
(0.425714 0.287143 0.154061 0.133083) 587 1168 2
(0.532805 0.233598 0.226939 0.00665866) 588 1170 2
(0.616202 0.0095571 0.191899 0.182342) 589 1171 2
(0.558593 0.165373 0.220703 0.0553307) 590 1173 2
(0.112583 0.443709 0.0920936 0.351615) 592 1175 1
(0.0154753 0.492262 0.309248 0.183014) 592 1177 1
(0.374719 0.312641 0.207543 0.105098) 600 15083 2
(0.172345 0.413827 0.237451 0.176376) 601 1192 1
(0.608326 0.180757 0.195837 0.0150799) 602 1048 1
(0.593752 0.159586 0.203124 0.0435383) 603 1198 2
(0.737323 0.0380381 0.131339 0.0933005) 604 1200 2
(0.681826 0.159087 0.145391 0.0136957) 605 1200 1
(0.536835 0.231582 0.192956 0.0386267) 606 1056 2
(0.521524 0.239238 0.0792242 0.160014) 607 1204 1
(0.574585 0.166273 0.0464347 0.212707) 608 1206 2
(0.712592 0.0620666 0.0816372 0.143704) 609 1208 2
(0.787464 0.106268 0.00693018 0.0993376) 610 1213 2
(0.827835 0.0860824 0.0303459 0.0557365) 611 1212 1
(0.601102 0.199449 0.197624 0.00182526) 612 1216 1
(0.21257 0.387775 0.393715 0.00593989) 613 1218 2
(0.358521 0.0824348 0.32074 0.238305) 614 1220 2
(0.650773 0.0297999 0.144814 0.174614) 615 1223 1
(0.803248 0.0610443 0.0983762 0.0373319) 616 1076 1
(0.88532 0.0573399 0.0253615 0.0319784) 617 1227 2
(0.813285 0.0651108 0.0282469 0.0933577) 618 1226 2
(0.624605 0.187697 0.183006 0.00469141) 619 1082 2
(0.280127 0.359937 0.0793522 0.280584) 620 1084 2
(0.200945 0.34519 0.399528 0.0543377) 621 1086 1
(0.192788 0.304785 0.403606 0.0988211) 622 1088 1
(0.57189 0.214055 0.0576005 0.156455) 623 1090 2
(0.31544 0.26185 0.0804303 0.34228) 624 1238 2
(0.0586211 0.33262 0.470689 0.138069) 624 1240 2
(0.260289 0.126023 0.369856 0.243833) 625 1242 2
(0.261663 0.0165855 0.369168 0.352583) 626 1244 2
(0.228645 0.0212375 0.385677 0.36444) 627 1246 2
(0.268019 0.0115241 0.36599 0.354466) 628 1248 2
(0.306376 0.0696478 0.346812 0.277164) 629 1250 2
(0.351341 0.32433 0.0499569 0.274373) 630 1252 1
(0.380272 0.122447 0.309864 0.187416) 631 1106 1
(0.505797 0.229306 0.247102 0.0177958) 632 1108 1
(0.629509 0.185245 0.067924 0.117321) 633 1256 1
(0.461436 0.269282 0.18852 0.0807619) 634 1258 1
(0.322237 0.338882 0.23705 0.101832) 635 1260 1
(0.757712 0.121144 0.0560056 0.0651386) 636 1116 2
(0.578759 0.177807 0.21062 0.0328134) 637 1266 2
(0.00878922 0.332654 0.162951 0.495605) 639 1268 2
(0.377776 0.139504 0.171608 0.311112) 640 1270 2
(0.450611 0.198632 0.0760625 0.274695) 641 1272 2
(0.406653 0.179687 0.116987 0.296673) 642 1274 2
(0.282542 0.358729 0.184664 0.174065) 643 1279 2
(0.31559 0.342205 0.146961 0.195244) 644 1281 2
(0.222794 0.388603 0.218446 0.170157) 645 1280 1
(0.130314 0.434843 0.303919 0.130924) 645 1282 1
(0.336108 0.0339248 0.331946 0.298021) 646 1136 1
(0.420749 0.0447029 0.289626 0.244923) 647 1138 1
(0.505836 0.247082 0.165974 0.0811083) 648 1288 1
(0.766049 0.116975 0.0526874 0.0642879) 649 1290 1
(0.162362 0.418819 0.116568 0.302251) 650 1292 1
(0.165476 0.417262 0.248102 0.16916) 652 1294 1
(0.56992 0.21504 0.0652478 0.149792) 653 1296 1
(0.524582 0.107798 0.129912 0.237709) 654 1298 2
(0.328197 0.335901 0.0799376 0.255964) 655 1303 2
(0.0467447 0.476628 0.302108 0.174519) 656 1305 2
(0.0450684 0.477466 0.35588 0.121586) 657 1307 2
(0.227581 0.386209 0.263212 0.122998) 658 1309 2