/*--------------------------------*- C++ -*----------------------------------*\
  =========                 |
  \\      /  F ield         | OpenFOAM: The Open Source CFD Toolbox
   \\    /   O peration     | Website:  https://openfoam.org
    \\  /    A nd           | Version:  12
     \\/     M anipulation  |
\*---------------------------------------------------------------------------*/
FoamFile
{
    format      ascii;
    class       vectorField;
    location    "0.15/lagrangian/cloud";
    object      U;
}
// * * * * * * * * * * * * * * * * * * * * * * * * * * * * * * * * * * * * * //


3403
(
(-0.00213074 -0.0224742 0)
(-0.00344588 -0.0258719 0)
(0.000293154 -0.0282519 0)
(-0.00167636 -0.0237973 0)
(-0.000110018 -0.0219491 0)
(-0.000290145 -0.0265935 0)
(-0.000943396 -0.0254552 0)
(5.66907e-05 -0.0267196 0)
(0.00118766 -0.0289441 0)
(-0.00257894 -0.0342513 0)
(-0.00162492 -0.0296949 0)
(0.00439558 -0.0198403 0)
(0.00376477 -0.0167914 0)
(0.00264466 -0.01899 0)
(0.00311844 -0.0201884 0)
(0.00155768 -0.0235356 0)
(0.00174868 -0.0240801 0)
(0.00196072 -0.0227056 0)
(-0.0019518 -0.0247373 0)
(0.000752864 -0.0280827 0)
(-0.00094593 -0.0299133 0)
(0.00069873 -0.0318762 0)
(-1.33903e-05 -0.0291474 0)
(0.00061856 -0.0258299 0)
(0.00185232 -0.026374 0)
(0.00304458 -0.0278978 0)
(0.00184768 -0.0307187 0)
(-0.000808168 -0.0326346 0)
(-0.00108583 -0.0335933 0)
(-0.00133024 -0.033416 0)
(-0.00143689 -0.0299303 0)
(0.0024093 -0.0289164 0)
(-0.000300205 -0.027338 0)
(0.000264865 -0.0298544 0)
(0.0034249 -0.0263617 0)
(0.00189913 -0.029548 0)
(0.00314018 -0.0312008 0)
(0.00126403 -0.0317022 0)
(0.00290149 -0.0313356 0)
(0.000524996 -0.0331256 0)
(-7.33688e-05 -0.038539 0)
(-0.000110725 -0.0400619 0)
(-0.000938835 -0.0356566 0)
(-0.0018433 -0.0335459 0)
(-0.00107134 -0.0319521 0)
(-0.000510843 -0.0289322 0)
(-0.000470653 -0.0266916 0)
(-0.000406014 -0.0242353 0)
(-0.000602204 -0.0250769 0)
(-0.00111157 -0.0302584 0)
(-0.000301412 -0.0318309 0)
(-0.00168713 -0.0275041 0)
(-0.00144125 -0.0298662 0)
(-0.00183481 -0.0295932 0)
(-0.00147417 -0.0197324 0)
(0.00228742 -0.0262532 0)
(0.00315446 -0.0241714 0)
(0.00362841 -0.0226877 0)
(0.00154422 -0.0241991 0)
(0.00330257 -0.032396 0)
(0.00242708 -0.0322625 0)
(0.000239668 -0.0327169 0)
(-0.000332618 -0.0312935 0)
(-0.000631409 -0.0309614 0)
(0.00124964 -0.0284498 0)
(0.00164103 -0.0319866 0)
(1.15333e-06 -0.0315701 0)
(-0.00199194 -0.0271309 0)
(-0.00167091 -0.0204541 0)
(-0.001952 -0.0201617 0)
(-0.0018043 -0.0367156 0)
(-4.19301e-07 -0.0350429 0)
(-0.000550713 -0.0333265 0)
(-0.000649071 -0.0390575 0)
(0.00244002 -0.0395499 0)
(0.00388087 -0.0390854 0)
(0.00285129 -0.0407289 0)
(0.00169752 -0.0402652 0)
(-0.00332159 -0.0395329 0)
(-0.000572237 -0.0370892 0)
(-0.00183255 -0.0353987 0)
(0.000754333 -0.0361081 0)
(-0.000645694 -0.0414792 0)
(0.00203817 -0.0371389 0)
(0.00192977 -0.0355377 0)
(0.00278832 -0.0405826 0)
(0.00412052 -0.0395843 0)
(0.00354452 -0.0350441 0)
(0.00142096 -0.033866 0)
(0.000418868 -0.0344487 0)
(0.00428477 -0.0394662 0)
(0.00280197 -0.041807 0)
(0.00215162 -0.0430495 0)
(0.00219675 -0.0447178 0)
(0.00320333 -0.0456574 0)
(-0.000683346 -0.0395795 0)
(-0.00343374 -0.0393694 0)
(-0.00156999 -0.0391175 0)
(-0.00237671 -0.036932 0)
(-0.00364677 -0.0368298 0)
(-0.00106591 -0.0399787 0)
(-0.00120709 -0.0440167 0)
(0.000218124 -0.0402392 0)
(-0.00141773 -0.0440586 0)
(0.000462983 -0.0457146 0)
(0.00293686 -0.0468194 0)
(0.00285787 -0.0462007 0)
(0.003044 -0.0444987 0)
(0.000984766 -0.0427062 0)
(0.000876464 -0.0425841 0)
(-0.000534334 -0.0418022 0)
(-0.00150675 -0.0397383 0)
(-0.00192647 -0.0386681 0)
(-0.00291442 -0.0367099 0)
(0.00115487 -0.0397048 0)
(0.00130362 -0.0423377 0)
(0.00123999 -0.0397464 0)
(0.00128251 -0.0335247 0)
(-0.000150015 -0.0365266 0)
(-0.000206545 -0.0372243 0)
(0.00257551 -0.0437575 0)
(0.00336867 -0.0435178 0)
(0.00387073 -0.0472034 0)
(-0.000650438 -0.0452519 0)
(0.000489373 -0.0490727 0)
(-0.000156833 -0.0504786 0)
(0.0011294 -0.0515206 0)
(0.00303428 -0.0400354 0)
(-0.00126694 -0.040494 0)
(0.00195831 -0.0448683 0)
(-0.000613816 -0.0432631 0)
(-0.0026259 -0.0421977 0)
(-0.00233709 -0.0413521 0)
(-0.00110504 -0.0396866 0)
(-0.000963766 -0.0380398 0)
(-6.24913e-05 -0.0413851 0)
(0.000784451 -0.0413051 0)
(0.00465271 -0.0451401 0)
(-0.000158246 -0.0479753 0)
(0.000519823 -0.0449251 0)
(-0.000234205 -0.0435138 0)
(-0.000900303 -0.0417193 0)
(-0.000775074 -0.041719 0)
(0.00129392 -0.0440094 0)
(0.000233088 -0.0439041 0)
(0.00191979 -0.0442864 0)
(0.00228104 -0.0450687 0)
(0.00121644 -0.0446279 0)
(0.000579588 -0.0464254 0)
(0.00020691 -0.0458016 0)
(-0.00359371 -0.0448159 0)
(0.00215647 -0.0469508 0)
(-0.00209298 -0.048627 0)
(0.000729596 -0.0479112 0)
(0.00108967 -0.0490885 0)
(0.00024298 -0.0510041 0)
(0.00182016 -0.0470716 0)
(0.00278712 -0.0445127 0)
(0.00258173 -0.0450415 0)
(0.00168651 -0.0457919 0)
(0.00301892 -0.0460282 0)
(0.00522819 -0.0458074 0)
(0.00499473 -0.0480365 0)
(0.00277584 -0.0501409 0)
(-0.000366728 -0.0493198 0)
(5.52912e-05 -0.0453165 0)
(-0.000138095 -0.0449067 0)
(3.86716e-06 -0.0465688 0)
(0.002499 -0.0471248 0)
(0.00172115 -0.0492331 0)
(0.00085462 -0.0448746 0)
(0.0023451 -0.0435276 0)
(0.000587331 -0.0455144 0)
(-0.000610523 -0.0477034 0)
(0.00158212 -0.0487985 0)
(0.00250139 -0.045878 0)
(0.00135045 -0.0446608 0)
(0.000181553 -0.0452645 0)
(-0.00156306 -0.0448102 0)
(-0.000836268 -0.0442749 0)
(-0.00101178 -0.0427427 0)
(-0.00190188 -0.042663 0)
(-0.00347356 -0.0430797 0)
(-0.000551852 -0.0436467 0)
(0.00334501 -0.0462864 0)
(0.00315198 -0.0487039 0)
(0.00489359 -0.0512657 0)
(0.00546183 -0.0519494 0)
(0.00479675 -0.054488 0)
(0.00404708 -0.0523676 0)
(0.00427229 -0.0525329 0)
(0.00117698 -0.0519572 0)
(0.000418392 -0.0475709 0)
(-9.47296e-05 -0.0511962 0)
(-0.000774976 -0.0520268 0)
(-0.00122021 -0.0497917 0)
(0.000940413 -0.0511987 0)
(0.00257183 -0.0473635 0)
(0.00197266 -0.0435256 0)
(0.00187611 -0.0439824 0)
(0.000240713 -0.0470916 0)
(-0.00188858 -0.0483212 0)
(-0.00234261 -0.0508397 0)
(-0.000278412 -0.0473007 0)
(0.00140728 -0.0547541 0)
(-0.00017604 -0.0592169 0)
(0.0012629 -0.0581664 0)
(-0.000929548 -0.0575071 0)
(-0.00349852 -0.047425 0)
(-0.00122143 -0.044003 0)
(-0.00064579 -0.042004 0)
(0.00580832 -0.0454607 0)
(0.00188324 -0.0482119 0)
(0.0032598 -0.0490921 0)
(0.00329619 -0.0437119 0)
(0.00116628 -0.0457353 0)
(-0.00314557 -0.0470431 0)
(-0.00126395 -0.0470586 0)
(-0.00349908 -0.0475775 0)
(0.00168875 -0.0510712 0)
(-0.000213281 -0.0489641 0)
(-0.00109905 -0.0553222 0)
(-0.000158878 -0.0544977 0)
(0.000534066 -0.0545661 0)
(-0.000839982 -0.0514653 0)
(1.46433e-05 -0.045698 0)
(0.00244219 -0.0530496 0)
(0.00142783 -0.0521904 0)
(0.00341199 -0.0549784 0)
(0.00552996 -0.0528115 0)
(0.00567307 -0.0532747 0)
(0.00371014 -0.0533096 0)
(0.00271865 -0.0525184 0)
(-0.000415444 -0.0519411 0)
(-0.00127545 -0.0514607 0)
(-0.00138855 -0.0510576 0)
(0.000789858 -0.0515871 0)
(0.00127278 -0.0521363 0)
(-0.000114091 -0.0463779 0)
(0.00108329 -0.0455907 0)
(-0.000453418 -0.0463742 0)
(-0.00131568 -0.0468901 0)
(0.000276927 -0.0478093 0)
(0.00118629 -0.0462988 0)
(0.00103644 -0.0462338 0)
(-0.000579398 -0.0447226 0)
(-0.00126567 -0.0448635 0)
(-0.00211107 -0.0439027 0)
(-0.00230656 -0.0423442 0)
(-0.00502535 -0.0442203 0)
(0.00161997 -0.0518386 0)
(0.00306555 -0.0517183 0)
(0.00491913 -0.0525556 0)
(0.00330448 -0.0527532 0)
(0.00219698 -0.0522201 0)
(0.00317362 -0.0530563 0)
(0.00352241 -0.0540925 0)
(0.00232326 -0.0483133 0)
(0.000274159 -0.0515355 0)
(-0.000282441 -0.0520109 0)
(-0.000458801 -0.0492954 0)
(-0.00182239 -0.0534967 0)
(-0.00325182 -0.0518481 0)
(-0.00254135 -0.0517221 0)
(-0.000619305 -0.0490631 0)
(-0.00220873 -0.0504853 0)
(0.000507816 -0.0488458 0)
(0.00268945 -0.0437369 0)
(0.00254678 -0.0455954 0)
(0.00182042 -0.0468578 0)
(0.00524001 -0.0463159 0)
(0.00422051 -0.0487466 0)
(0.000483535 -0.0553452 0)
(-0.000957921 -0.059226 0)
(-0.0025007 -0.0569474 0)
(-0.00309345 -0.0563359 0)
(-0.00604348 -0.0520121 0)
(-0.00403192 -0.0515189 0)
(0.000818194 -0.0499969 0)
(0.00164704 -0.0527191 0)
(0.000964416 -0.0549497 0)
(0.00041743 -0.0593041 0)
(0.00305778 -0.0541344 0)
(0.00359558 -0.0528374 0)
(0.00236523 -0.0516678 0)
(-0.00202799 -0.0537218 0)
(-0.00139495 -0.0497622 0)
(0.00272566 -0.0496135 0)
(0.000612534 -0.0518697 0)
(9.0969e-05 -0.0545371 0)
(-0.00254337 -0.0577628 0)
(-0.000492395 -0.057755 0)
(-0.00122953 -0.056144 0)
(-0.00213037 -0.0549106 0)
(0.000287434 -0.059082 0)
(0.00155615 -0.0592347 0)
(0.0026754 -0.0598952 0)
(0.00235175 -0.0566508 0)
(0.00132519 -0.0526786 0)
(0.0010994 -0.0531437 0)
(1.58906e-05 -0.0483289 0)
(0.000254418 -0.047862 0)
(9.44197e-05 -0.0455977 0)
(-0.00394128 -0.0476721 0)
(0.000211303 -0.0512988 0)
(-0.0002581 -0.0495228 0)
(-0.0012294 -0.0490482 0)
(-0.000639015 -0.0452477 0)
(-0.00354076 -0.0444212 0)
(-0.00259744 -0.0466742 0)
(-0.00113469 -0.048476 0)
(0.0014038 -0.0473821 0)
(0.00170099 -0.0454222 0)
(0.00271581 -0.0450508 0)
(0.00277252 -0.0417819 0)
(0.00505318 -0.0437539 0)
(0.00720135 -0.0485664 0)
(0.0038137 -0.0519679 0)
(0.00050947 -0.0537447 0)
(0.000242223 -0.0537984 0)
(0.000747156 -0.0489748 0)
(8.19849e-05 -0.0519257 0)
(0.00105325 -0.0509058 0)
(0.00170274 -0.0456055 0)
(0.00119482 -0.0426355 0)
(0.00208558 -0.0432324 0)
(0.0010693 -0.0433846 0)
(0.0011237 -0.0442221 0)
(0.00036172 -0.0454537 0)
(-0.000618622 -0.0454127 0)
(-0.00474738 -0.0469416 0)
(-0.00188978 -0.048698 0)
(-0.00184451 -0.049559 0)
(-0.000100295 -0.0514305 0)
(0.000765694 -0.0530754 0)
(0.000569243 -0.0509262 0)
(0.00221408 -0.0488619 0)
(0.00366842 -0.0475046 0)
(0.00334159 -0.0484485 0)
(0.00564052 -0.0492787 0)
(0.000568737 -0.0539408 0)
(-0.00101852 -0.0525363 0)
(-0.00302944 -0.0514841 0)
(-0.00400797 -0.0567725 0)
(0.000128678 -0.0550282 0)
(0.00202184 -0.0537875 0)
(0.00316676 -0.0543472 0)
(-0.000161592 -0.0566238 0)
(-0.0012984 -0.0575165 0)
(-0.0010417 -0.0541703 0)
(0.00323639 -0.0518918 0)
(0.0024264 -0.0520007 0)
(0.00171158 -0.0509575 0)
(0.00108781 -0.0498008 0)
(0.00175572 -0.0496523 0)
(0.00152305 -0.050012 0)
(0.00213775 -0.0552887 0)
(-0.00167594 -0.0540186 0)
(-0.00165921 -0.0525648 0)
(-9.16195e-05 -0.0542259 0)
(0.000583354 -0.055639 0)
(-0.000807131 -0.0557854 0)
(0.000435354 -0.0577272 0)
(0.000481721 -0.058921 0)
(-0.00231141 -0.0514763 0)
(-0.00153116 -0.0490919 0)
(-0.00236399 -0.0486808 0)
(-0.000283015 -0.0458825 0)
(0.000281551 -0.0476344 0)
(0.000479774 -0.0457666 0)
(-0.00143866 -0.044303 0)
(-0.00362804 -0.0468604 0)
(-0.00387281 -0.0471482 0)
(-0.00102629 -0.0441998 0)
(-0.00101964 -0.0441264 0)
(-0.00455468 -0.0465711 0)
(-0.00154028 -0.0464707 0)
(0.000241667 -0.0473034 0)
(0.0028474 -0.0460452 0)
(0.00126422 -0.0456274 0)
(0.00204235 -0.0479417 0)
(0.00389589 -0.0503131 0)
(0.00380189 -0.0490189 0)
(0.00349127 -0.04859 0)
(0.0017788 -0.051182 0)
(0.00118757 -0.0546743 0)
(-0.000273366 -0.0509874 0)
(-0.00168957 -0.0502985 0)
(-0.00257519 -0.0508605 0)
(-0.00307954 -0.0546907 0)
(-0.00208342 -0.0497135 0)
(0.00302036 -0.0494429 0)
(0.00245161 -0.0464847 0)
(0.0031197 -0.0472416 0)
(0.00487096 -0.0471808 0)
(0.00168682 -0.0475239 0)
(0.00094185 -0.0485474 0)
(0.00214299 -0.0489692 0)
(0.0016706 -0.0472972 0)
(-0.00174601 -0.0492598 0)
(-0.000780981 -0.0515045 0)
(-0.00240949 -0.0515123 0)
(-0.00130046 -0.0526415 0)
(-0.000619476 -0.0512547 0)
(0.00144351 -0.0499208 0)
(0.0057623 -0.0481429 0)
(0.00759742 -0.046458 0)
(0.00467477 -0.048256 0)
(0.002476 -0.0493959 0)
(0.002466 -0.0489798 0)
(-0.000911151 -0.0524713 0)
(7.33188e-05 -0.0541835 0)
(0.00254629 -0.0551514 0)
(-0.000421535 -0.0546362 0)
(-0.00120588 -0.05414 0)
(0.000424701 -0.0537912 0)
(0.000962451 -0.0546734 0)
(-0.0011054 -0.0547569 0)
(0.00206569 -0.0527811 0)
(0.00374173 -0.0518852 0)
(0.00203261 -0.0510928 0)
(0.00215508 -0.050144 0)
(0.0022655 -0.0503483 0)
(0.00215159 -0.0497069 0)
(0.000303001 -0.048496 0)
(-0.000503468 -0.0485033 0)
(-0.000337377 -0.0469148 0)
(-0.000727815 -0.0478098 0)
(-0.00118201 -0.045768 0)
(0.000473602 -0.0484616 0)
(-0.000765455 -0.0492891 0)
(-0.00266362 -0.0479332 0)
(-0.00286015 -0.0480616 0)
(-0.00227229 -0.0475866 0)
(-0.00272334 -0.0480015 0)
(-0.000547503 -0.0462739 0)
(-0.000659983 -0.0467598 0)
(7.00489e-05 -0.0434932 0)
(0.000652473 -0.0407585 0)
(-0.00128829 -0.0423512 0)
(-0.00292532 -0.0473997 0)
(-0.00441657 -0.0497317 0)
(-0.00165942 -0.0490859 0)
(-0.00471412 -0.0479115 0)
(-0.00480632 -0.047955 0)
(-0.00194406 -0.0523807 0)
(0.00299372 -0.0512405 0)
(0.00284366 -0.0508247 0)
(0.00386136 -0.0506847 0)
(0.00577947 -0.0512717 0)
(0.0080316 -0.0497043 0)
(0.00640973 -0.0457266 0)
(0.00411174 -0.0480566 0)
(-0.000292846 -0.0538178 0)
(-0.00345379 -0.0524803 0)
(-0.000686747 -0.0537398 0)
(-0.000727629 -0.0526883 0)
(-0.0032249 -0.0531595 0)
(-0.00323087 -0.0533055 0)
(-0.00362091 -0.0491047 0)
(-0.00384116 -0.0508456 0)
(0.0029755 -0.0505738 0)
(0.00366164 -0.0495601 0)
(0.00187832 -0.051249 0)
(0.00210505 -0.051365 0)
(0.00229853 -0.0492212 0)
(0.00243198 -0.0464177 0)
(-0.00109233 -0.0487721 0)
(-0.000864229 -0.0489207 0)
(-0.00128534 -0.0502527 0)
(0.00112519 -0.0492376 0)
(-0.000146483 -0.052641 0)
(0.00104466 -0.0555901 0)
(0.00293143 -0.0548689 0)
(0.00167825 -0.051795 0)
(0.00150604 -0.049538 0)
(0.00130429 -0.0499932 0)
(0.000455649 -0.0517823 0)
(-0.00197072 -0.0524345 0)
(0.00281073 -0.0554252 0)
(-0.000663201 -0.0577543 0)
(-0.000776625 -0.0543806 0)
(-0.00066684 -0.055608 0)
(-0.00124493 -0.0551608 0)
(-0.00315368 -0.0529446 0)
(-0.00133455 -0.0528252 0)
(0.0027469 -0.0545894 0)
(0.00301362 -0.0531401 0)
(0.00283515 -0.0525069 0)
(0.0034021 -0.051966 0)
(0.000729328 -0.046841 0)
(0.00104747 -0.0483811 0)
(0.000266917 -0.0483427 0)
(0.000469461 -0.0459238 0)
(-0.00191641 -0.0446207 0)
(-0.00072961 -0.0459279 0)
(-0.00474897 -0.0483684 0)
(-0.00291836 -0.0500299 0)
(-0.003493 -0.0491923 0)
(-0.00264438 -0.0485625 0)
(-0.00216766 -0.0483663 0)
(-0.00203552 -0.0480107 0)
(-0.00165175 -0.0428953 0)
(0.000355633 -0.0485144 0)
(-0.000562203 -0.0505722 0)
(0.00132974 -0.0514761 0)
(-0.00121711 -0.0469915 0)
(0.00101127 -0.0481097 0)
(-0.000383568 -0.0533849 0)
(-0.0015554 -0.0530291 0)
(-0.00308607 -0.0528705 0)
(-0.00386652 -0.0547551 0)
(-0.00272912 -0.0570528 0)
(-0.00112827 -0.0576503 0)
(0.00263974 -0.0595327 0)
(0.00259462 -0.05774 0)
(0.00215823 -0.0569722 0)
(0.000812527 -0.0553132 0)
(0.00320916 -0.0517603 0)
(0.00343517 -0.0531737 0)
(0.00569387 -0.0541785 0)
(0.00446793 -0.0515736 0)
(0.000548758 -0.0531696 0)
(-0.00130718 -0.0532878 0)
(-0.00196763 -0.0540615 0)
(-0.00317423 -0.0539076 0)
(-0.00199167 -0.053367 0)
(-0.003652 -0.056664 0)
(0.000404759 -0.056493 0)
(0.00155267 -0.0546214 0)
(0.000831762 -0.0558936 0)
(0.000720764 -0.0522732 0)
(0.00138156 -0.0506239 0)
(0.000916349 -0.0459654 0)
(0.00133165 -0.0447025 0)
(0.000901072 -0.0435188 0)
(0.00196472 -0.0463021 0)
(0.00440273 -0.046498 0)
(0.0047036 -0.0490229 0)
(0.00304958 -0.0561094 0)
(0.00414194 -0.0541806 0)
(0.00224701 -0.0509507 0)
(0.00213485 -0.0456231 0)
(0.00157821 -0.0468812 0)
(-0.000385941 -0.0483672 0)
(-0.00143616 -0.0470331 0)
(0.00171137 -0.0517709 0)
(0.00251322 -0.0536064 0)
(-0.00258273 -0.0514403 0)
(-0.00138791 -0.0474549 0)
(-0.000796482 -0.0469395 0)
(0.000167714 -0.0513838 0)
(-0.00418433 -0.0500829 0)
(-0.00304359 -0.0528161 0)
(0.00397323 -0.052696 0)
(0.00240925 -0.0523239 0)
(-0.000950078 -0.0523492 0)
(0.00078613 -0.0551435 0)
(0.00112064 -0.0478187 0)
(-0.000408133 -0.0449421 0)
(-0.000425383 -0.0436041 0)
(0.00210903 -0.0447066 0)
(-0.00521474 -0.0438771 0)
(0.00244225 -0.0478576 0)
(0.00154439 -0.0502211 0)
(-0.00241457 -0.0509361 0)
(-0.00217056 -0.0516001 0)
(-0.000911493 -0.0502107 0)
(-0.00202119 -0.0499747 0)
(-0.003532 -0.0463945 0)
(-4.78824e-05 -0.0526386 0)
(3.38515e-05 -0.0510184 0)
(0.00180476 -0.0527669 0)
(0.00305237 -0.0578462 0)
(0.00121183 -0.0611363 0)
(0.0026342 -0.055464 0)
(0.00312699 -0.0555289 0)
(-0.00103521 -0.0532423 0)
(-0.00299952 -0.052941 0)
(-0.00295871 -0.0544428 0)
(-0.00341347 -0.0585131 0)
(-0.00358128 -0.0616691 0)
(-0.00133647 -0.0656713 0)
(-0.00146781 -0.0641279 0)
(0.000123215 -0.0591863 0)
(-2.45041e-05 -0.0559405 0)
(5.12364e-05 -0.0561715 0)
(0.00253875 -0.0534197 0)
(0.00355845 -0.0547704 0)
(0.00138265 -0.0512149 0)
(0.000429834 -0.0502897 0)
(-0.00160714 -0.0533891 0)
(-0.000966009 -0.0530389 0)
(-0.000837417 -0.0527943 0)
(-0.00256422 -0.0537574 0)
(-0.00182672 -0.0551263 0)
(-0.00313959 -0.0576976 0)
(-0.00137333 -0.0589601 0)
(-8.23513e-05 -0.0570039 0)
(-0.000965794 -0.0546622 0)
(-0.000548038 -0.0561832 0)
(-0.000287924 -0.0547367 0)
(-0.000974948 -0.0533168 0)
(0.000599017 -0.0511103 0)
(0.00438906 -0.0501967 0)
(0.00478416 -0.0505271 0)
(0.00574258 -0.0506011 0)
(0.00200109 -0.0500852 0)
(0.00152296 -0.0488104 0)
(0.0028936 -0.0448703 0)
(0.00194043 -0.0448522 0)
(0.000954783 -0.0452567 0)
(-0.00293779 -0.0485227 0)
(-0.00301826 -0.0461348 0)
(0.000513764 -0.0435169 0)
(-0.00146296 -0.0476476 0)
(-0.0028959 -0.0471239 0)
(-0.000460133 -0.0465134 0)
(-0.000781791 -0.0472156 0)
(0.000479192 -0.0464316 0)
(0.000384371 -0.0447812 0)
(-0.000656125 -0.0451841 0)
(0.00231196 -0.0504518 0)
(-0.00125699 -0.0506367 0)
(-0.00217253 -0.0509528 0)
(-0.00116569 -0.0471035 0)
(-0.00271576 -0.0445363 0)
(-0.0025712 -0.0428352 0)
(0.00190118 -0.0455675 0)
(0.00350305 -0.0489227 0)
(7.87886e-05 -0.0469955 0)
(-0.00151696 -0.0493647 0)
(0.00301695 -0.0511968 0)
(-0.00116896 -0.0531325 0)
(-0.00133818 -0.053286 0)
(-0.00236676 -0.0526687 0)
(-0.00135897 -0.052671 0)
(-0.000795794 -0.0523462 0)
(-0.000788569 -0.0523777 0)
(0.00131771 -0.0521552 0)
(0.0030215 -0.0550132 0)
(0.00538162 -0.058858 0)
(0.00378847 -0.0619164 0)
(0.00387444 -0.061385 0)
(0.00248332 -0.0612881 0)
(0.00157554 -0.0544502 0)
(0.00193108 -0.0551935 0)
(0.00249002 -0.0566232 0)
(0.00444019 -0.0559377 0)
(-0.00214474 -0.0614852 0)
(-0.00112131 -0.0646862 0)
(-0.0019016 -0.0609398 0)
(-0.00204829 -0.0577371 0)
(-0.00223131 -0.0536058 0)
(-0.00136864 -0.0554389 0)
(-0.000521521 -0.0558773 0)
(0.00149394 -0.052892 0)
(0.00346683 -0.051342 0)
(0.00337547 -0.0513361 0)
(0.00434784 -0.0509722 0)
(0.00417227 -0.0533615 0)
(0.00175395 -0.0514056 0)
(0.000628017 -0.0509464 0)
(-0.00126497 -0.0565573 0)
(-0.0024356 -0.0573738 0)
(-0.000963538 -0.0598559 0)
(-0.00104448 -0.0589557 0)
(-0.00350176 -0.0570825 0)
(-0.00218209 -0.0526164 0)
(-0.000643808 -0.0542718 0)
(0.000331274 -0.0542639 0)
(0.00133113 -0.0520851 0)
(0.00369395 -0.0502985 0)
(0.00439254 -0.0491603 0)
(0.000406243 -0.0484485 0)
(-0.00201648 -0.0492009 0)
(0.00092807 -0.0463935 0)
(0.00203276 -0.0448608 0)
(0.00201674 -0.0451462 0)
(0.000188491 -0.0441605 0)
(-0.00183898 -0.0449668 0)
(-0.0032557 -0.0436687 0)
(-0.000297416 -0.044448 0)
(-0.00160133 -0.0472915 0)
(-0.003287 -0.046407 0)
(-0.00110106 -0.0464029 0)
(0.0027853 -0.0493767 0)
(0.00170886 -0.0512648 0)
(0.00172443 -0.0522525 0)
(0.00200275 -0.0525995 0)
(-0.000586455 -0.0483091 0)
(-0.000944271 -0.0496074 0)
(-0.00221505 -0.0525993 0)
(-0.00470845 -0.0503161 0)
(-0.00221211 -0.0469823 0)
(0.00104627 -0.0444396 0)
(0.00270498 -0.0465171 0)
(0.000763919 -0.0462122 0)
(0.00122015 -0.048593 0)
(0.00113539 -0.0451061 0)
(0.0023736 -0.0431484 0)
(-0.00186322 -0.0410645 0)
(-0.0012836 -0.0421087 0)
(3.00191e-05 -0.0445295 0)
(0.00214261 -0.0461622 0)
(0.00089116 -0.0487781 0)
(0.00154748 -0.0502149 0)
(0.00292583 -0.0545568 0)
(0.00497217 -0.0553188 0)
(0.00461882 -0.0525372 0)
(0.00339211 -0.0556384 0)
(0.00249105 -0.059014 0)
(0.0015965 -0.0584996 0)
(0.00259235 -0.0554179 0)
(0.00201919 -0.054666 0)
(0.00384701 -0.055135 0)
(0.00258253 -0.0550782 0)
(0.00148613 -0.0584696 0)
(-0.00136916 -0.0571714 0)
(-0.00663539 -0.0534648 0)
(-0.00585473 -0.0520987 0)
(-0.00298722 -0.0518054 0)
(0.000556931 -0.0528529 0)
(0.00166745 -0.0553989 0)
(0.000267768 -0.0558362 0)
(0.00111591 -0.0534135 0)
(0.000542302 -0.051124 0)
(0.00152432 -0.0495064 0)
(0.00182906 -0.0472421 0)
(0.00204232 -0.0419312 0)
(0.00214326 -0.0452068 0)
(-0.00104394 -0.048537 0)
(-0.00132449 -0.0501032 0)
(-0.00122163 -0.0531347 0)
(-0.0027728 -0.0524763 0)
(-0.00429672 -0.049944 0)
(-0.00345276 -0.0521414 0)
(-0.000189903 -0.0551972 0)
(0.000465179 -0.05433 0)
(0.000704774 -0.0490898 0)
(0.00448061 -0.0490687 0)
(0.00151676 -0.0477321 0)
(0.000632927 -0.0465298 0)
(-0.00346141 -0.0485898 0)
(-0.00236354 -0.0455798 0)
(0.00246645 -0.0415821 0)
(0.00187841 -0.0339536 0)
(-0.0025749 -0.0360765 0)
(0.00439392 -0.038715 0)
(0.00265136 -0.0396948 0)
(-0.00242786 -0.046201 0)
(-0.00275356 -0.0480817 0)
(0.00438756 -0.0515245 0)
(0.00459013 -0.0521979 0)
(0.00189921 -0.0509152 0)
(0.00245594 -0.0519136 0)
(0.00433681 -0.054032 0)
(0.00173382 -0.056422 0)
(0.00119307 -0.0555899 0)
(0.00138934 -0.0540537 0)
(0.00164873 -0.0529082 0)
(-0.0045403 -0.0508431 0)
(-0.00267816 -0.0518387 0)
(0.00186321 -0.0477839 0)
(0.00150732 -0.0459689 0)
(0.000690659 -0.04439 0)
(0.000372589 -0.0476722 0)
(-0.000386772 -0.0470114 0)
(0.000937414 -0.0473293 0)
(0.00352342 -0.0469805 0)
(0.00352391 -0.0429054 0)
(0.00267402 -0.0444169 0)
(0.00181079 -0.0444809 0)
(0.00188114 -0.0470211 0)
(0.00178839 -0.0503395 0)
(0.0046294 -0.0512551 0)
(0.00616978 -0.0533801 0)
(0.00491684 -0.0535378 0)
(0.000727528 -0.0556772 0)
(0.000751257 -0.0544252 0)
(-0.000304826 -0.0509308 0)
(-0.000397351 -0.0488069 0)
(0.00208207 -0.0491808 0)
(0.00243181 -0.0539394 0)
(0.00192379 -0.0537245 0)
(0.00105793 -0.0542155 0)
(-0.00230103 -0.0528563 0)
(-0.00609668 -0.051789 0)
(-0.00283983 -0.0493016 0)
(-0.0027494 -0.0537675 0)
(0.000872196 -0.0540789 0)
(-0.000470386 -0.0556867 0)
(-0.000195288 -0.0556728 0)
(-0.000639047 -0.0555064 0)
(-0.00220828 -0.0478623 0)
(-0.000127924 -0.0492393 0)
(0.000408867 -0.0480945 0)
(0.00180851 -0.0459106 0)
(0.00260169 -0.0450692 0)
(0.00162555 -0.0464954 0)
(-0.00265007 -0.0496211 0)
(-0.0010347 -0.0505225 0)
(-0.00389046 -0.0508255 0)
(-0.00600468 -0.051118 0)
(-0.0068554 -0.0517291 0)
(-0.00139903 -0.0550103 0)
(0.000337378 -0.0537519 0)
(-0.000114383 -0.052854 0)
(0.000383129 -0.0513263 0)
(-0.0013445 -0.0484267 0)
(0.000520004 -0.0464485 0)
(-0.00177999 -0.0460603 0)
(-0.00312242 -0.044809 0)
(-0.00122496 -0.0448472 0)
(2.61356e-05 -0.0436025 0)
(0.000413373 -0.0430095 0)
(0.00223849 -0.0415631 0)
(0.00436245 -0.0412665 0)
(0.000474274 -0.0506656 0)
(0.00179088 -0.0508121 0)
(0.000483426 -0.0505897 0)
(0.00210057 -0.0499055 0)
(0.0041502 -0.0493866 0)
(0.00224276 -0.0478603 0)
(0.00288931 -0.0507321 0)
(0.00139013 -0.053112 0)
(-0.00123477 -0.0550054 0)
(0.000411399 -0.0533133 0)
(5.09773e-05 -0.0514274 0)
(-0.00259388 -0.0506081 0)
(-0.00608993 -0.0532104 0)
(-0.000634588 -0.056146 0)
(-0.000912992 -0.0498607 0)
(-0.000839655 -0.0514515 0)
(0.00110394 -0.051132 0)
(-0.00049431 -0.0533524 0)
(0.00194733 -0.052452 0)
(0.00304501 -0.0483061 0)
(0.00200021 -0.048159 0)
(0.00124972 -0.0489532 0)
(0.00203522 -0.0495648 0)
(0.00428244 -0.0477649 0)
(0.00556889 -0.0506557 0)
(0.00614146 -0.051753 0)
(0.00539418 -0.0542708 0)
(0.000774031 -0.0498191 0)
(-0.000363067 -0.0508404 0)
(-0.00222462 -0.0488367 0)
(4.53913e-05 -0.0486773 0)
(0.00103732 -0.0443905 0)
(0.00191768 -0.0463668 0)
(-0.00137281 -0.0472019 0)
(-0.000907492 -0.0463884 0)
(-0.00253877 -0.0431718 0)
(-0.002578 -0.0413996 0)
(-0.00561661 -0.0437384 0)
(7.82815e-05 -0.0488306 0)
(0.00182743 -0.0568765 0)
(-0.00122796 -0.0572849 0)
(-0.00209752 -0.0562583 0)
(-0.00218161 -0.0528536 0)
(-0.0027079 -0.0509334 0)
(-0.00468651 -0.0489608 0)
(0.00268069 -0.0480366 0)
(6.12595e-05 -0.0506685 0)
(0.000634 -0.0523277 0)
(0.00387904 -0.0511246 0)
(-0.000409321 -0.0502126 0)
(-0.00192955 -0.0517478 0)
(-0.00135557 -0.0525361 0)
(-0.00226603 -0.0513982 0)
(-0.0040809 -0.0514569 0)
(-0.00470227 -0.0508807 0)
(-0.00399614 -0.053783 0)
(-0.00121813 -0.0533686 0)
(-0.00150192 -0.0533894 0)
(-0.000310264 -0.0502295 0)
(-0.000462601 -0.0514336 0)
(-0.000975792 -0.0468421 0)
(-0.0025855 -0.0446228 0)
(-0.00259613 -0.0425109 0)
(-0.00331351 -0.0433944 0)
(0.000325168 -0.0454464 0)
(-0.00017036 -0.0477287 0)
(0.00108018 -0.048648 0)
(0.00241577 -0.047093 0)
(-0.00217547 -0.0501629 0)
(-0.000625272 -0.0525509 0)
(-0.000750338 -0.0530287 0)
(-9.514e-05 -0.0555267 0)
(0.00267103 -0.0562481 0)
(0.000856668 -0.0529924 0)
(0.000258206 -0.0510769 0)
(0.00300128 -0.0491239 0)
(0.00554705 -0.0483269 0)
(0.00569567 -0.0489986 0)
(0.000376363 -0.0523353 0)
(-0.000597388 -0.0522716 0)
(-0.00299834 -0.0546046 0)
(-0.00354059 -0.0553373 0)
(-0.00166422 -0.0544092 0)
(-0.00243778 -0.0521042 0)
(-9.96278e-05 -0.0521161 0)
(-0.00177805 -0.055561 0)
(-0.00327171 -0.0573791 0)
(-0.0023544 -0.0559203 0)
(-0.000591812 -0.0547215 0)
(-0.00049824 -0.0537635 0)
(0.00119631 -0.0541111 0)
(0.00377034 -0.0493034 0)
(0.00619503 -0.0503462 0)
(0.00356178 -0.0489125 0)
(0.00117799 -0.0476704 0)
(0.00100997 -0.049714 0)
(-0.00199455 -0.0470766 0)
(-0.00579707 -0.0463738 0)
(-0.00136297 -0.041331 0)
(0.000645159 -0.0419309 0)
(0.00157182 -0.0427567 0)
(0.00313048 -0.0422317 0)
(0.000677702 -0.0407536 0)
(6.4302e-05 -0.0390068 0)
(0.00125095 -0.0434573 0)
(0.00291241 -0.048044 0)
(0.00136783 -0.0488824 0)
(0.0011094 -0.056344 0)
(-0.00293939 -0.0561913 0)
(-0.00292328 -0.0511589 0)
(-0.00277724 -0.0472535 0)
(-0.00375327 -0.0459714 0)
(0.00141846 -0.0486032 0)
(0.00205443 -0.0511386 0)
(0.0017154 -0.0526784 0)
(0.00253171 -0.0545491 0)
(0.00235082 -0.0531941 0)
(-0.00105409 -0.049736 0)
(0.000778883 -0.0492396 0)
(-0.000829449 -0.0466142 0)
(-0.00294656 -0.0450291 0)
(0.00629438 -0.0464513 0)
(0.00277248 -0.0502644 0)
(0.00260573 -0.0540343 0)
(-0.000938669 -0.0544289 0)
(-0.00222167 -0.0533557 0)
(0.000201033 -0.0517544 0)
(-0.00210513 -0.0508605 0)
(-0.00134182 -0.0494376 0)
(-0.00395037 -0.0477639 0)
(-0.00361879 -0.0483735 0)
(-0.00309885 -0.0484988 0)
(0.000786154 -0.051887 0)
(-0.00115662 -0.0541785 0)
(0.000681256 -0.0565502 0)
(0.00207106 -0.054399 0)
(0.00343217 -0.0439853 0)
(0.00389332 -0.0460076 0)
(-0.000162636 -0.0507389 0)
(-0.000464898 -0.0541807 0)
(0.000382664 -0.0551982 0)
(0.000717259 -0.0547988 0)
(0.00127613 -0.0550949 0)
(0.00264619 -0.0535361 0)
(0.00620684 -0.0500011 0)
(0.00512277 -0.0521226 0)
(-0.00123337 -0.0515892 0)
(-0.000599949 -0.0521196 0)
(-0.00201629 -0.0508013 0)
(-0.00227514 -0.0507819 0)
(0.00213132 -0.0512263 0)
(-0.000366401 -0.0524777 0)
(0.000102942 -0.0523919 0)
(-0.000349022 -0.0533318 0)
(-0.00271857 -0.0533485 0)
(-0.000482375 -0.0523217 0)
(0.000605551 -0.0535956 0)
(0.0018584 -0.0526876 0)
(0.00368235 -0.0506545 0)
(0.0041923 -0.0502181 0)
(0.00448224 -0.0477374 0)
(0.00165764 -0.0454757 0)
(0.000608243 -0.0448579 0)
(-0.000742065 -0.0447628 0)
(-0.00171002 -0.043943 0)
(-0.00329759 -0.0439074 0)
(-0.00187469 -0.0416175 0)
(-0.000771899 -0.0508753 0)
(-8.70164e-05 -0.0482986 0)
(0.000704295 -0.0469324 0)
(0.000985748 -0.0461184 0)
(0.00164051 -0.0489299 0)
(0.000412611 -0.0493643 0)
(0.00415046 -0.0433695 0)
(0.00155079 -0.0485042 0)
(0.00271367 -0.0510548 0)
(-0.00407181 -0.0490849 0)
(-0.0048395 -0.0436246 0)
(-0.00504833 -0.0425625 0)
(-0.000790882 -0.0430999 0)
(0.00487649 -0.0479834 0)
(0.0037638 -0.0507099 0)
(0.0033724 -0.0537948 0)
(0.00197057 -0.0556033 0)
(6.51893e-05 -0.052147 0)
(-0.00407047 -0.049568 0)
(-0.00333719 -0.0435368 0)
(-0.001725 -0.041153 0)
(0.000346186 -0.0413383 0)
(0.00177181 -0.0434349 0)
(0.00207493 -0.0492051 0)
(-0.00179733 -0.0513571 0)
(-0.00277881 -0.0522173 0)
(-0.00221078 -0.0498731 0)
(-0.0040642 -0.0466192 0)
(-0.00431332 -0.0483318 0)
(-0.00162552 -0.051902 0)
(-0.00209394 -0.05309 0)
(-0.00308545 -0.0522496 0)
(-0.00275345 -0.0523263 0)
(-0.000339878 -0.0570629 0)
(0.00101085 -0.0600789 0)
(7.44387e-05 -0.0616529 0)
(0.00246119 -0.0586829 0)
(0.00347016 -0.048299 0)
(0.00306592 -0.048445 0)
(0.00505148 -0.0496245 0)
(0.00192323 -0.0540338 0)
(0.000211356 -0.0530746 0)
(0.000508558 -0.0549187 0)
(-3.03602e-05 -0.0567369 0)
(0.00148968 -0.0575104 0)
(0.00167051 -0.052608 0)
(4.77637e-05 -0.049974 0)
(-0.000611159 -0.0485331 0)
(-0.000901427 -0.0481754 0)
(-0.00195992 -0.0489635 0)
(-0.00488883 -0.0519426 0)
(-0.00235574 -0.0494676 0)
(-0.00201174 -0.0507777 0)
(-0.00385241 -0.0493958 0)
(-0.00161537 -0.0476411 0)
(-0.00415021 -0.0461604 0)
(0.00187973 -0.0523612 0)
(0.00313937 -0.0538558 0)
(0.00159774 -0.054101 0)
(0.00208259 -0.0489163 0)
(0.000481895 -0.0490716 0)
(0.000911565 -0.0468469 0)
(-0.000143327 -0.0450638 0)
(-8.8909e-05 -0.041736 0)
(-0.00100811 -0.0410685 0)
(-0.00390646 -0.0413878 0)
(-0.00519511 -0.0455 0)
(-0.00544847 -0.0502271 0)
(0.00142723 -0.0530732 0)
(0.000338843 -0.0544967 0)
(0.000628133 -0.053509 0)
(0.00221402 -0.0494377 0)
(0.00348714 -0.0499868 0)
(-0.00061889 -0.0491795 0)
(-6.14845e-05 -0.0465738 0)
(0.00221479 -0.041585 0)
(-0.000956694 -0.0403673 0)
(-0.0014958 -0.0406745 0)
(0.000781885 -0.0413475 0)
(-0.000322165 -0.0464061 0)
(0.000484204 -0.0488399 0)
(0.00184424 -0.0487631 0)
(0.00279321 -0.0525903 0)
(0.00222495 -0.0538808 0)
(0.000537367 -0.054325 0)
(0.000560135 -0.0523246 0)
(-0.00545135 -0.0483789 0)
(-0.00354922 -0.0445116 0)
(-0.000251776 -0.0460753 0)
(0.00306593 -0.046854 0)
(0.00336501 -0.046124 0)
(0.000558798 -0.0484821 0)
(-0.00194039 -0.0506023 0)
(0.00634462 -0.0468937 0)
(0.00302522 -0.0491656 0)
(0.0013563 -0.0527437 0)
(-0.00274133 -0.0527202 0)
(-0.00170511 -0.0564803 0)
(-0.00254145 -0.0565082 0)
(-0.00314754 -0.0525966 0)
(-0.00152642 -0.0532222 0)
(-0.000175284 -0.0554697 0)
(-0.0015346 -0.0595363 0)
(-0.000333502 -0.0582085 0)
(-0.000133685 -0.0603126 0)
(0.00399256 -0.0549777 0)
(0.0070036 -0.0553948 0)
(0.00724237 -0.0564594 0)
(0.00273921 -0.0546417 0)
(0.000342807 -0.0532957 0)
(-0.00163251 -0.0550255 0)
(0.000263431 -0.0557232 0)
(-0.00165855 -0.0526223 0)
(-0.00203082 -0.0470831 0)
(-0.0027247 -0.0488659 0)
(0.000602216 -0.0471555 0)
(0.000146675 -0.0481868 0)
(-0.00027237 -0.0483659 0)
(-0.00149224 -0.051634 0)
(-0.00330812 -0.0508516 0)
(-0.00539012 -0.0503535 0)
(-0.000762893 -0.0508634 0)