/*--------------------------------*- C++ -*----------------------------------*\
  =========                 |
  \\      /  F ield         | OpenFOAM: The Open Source CFD Toolbox
   \\    /   O peration     | Website:  https://openfoam.org
    \\  /    A nd           | Version:  12
     \\/     M anipulation  |
\*---------------------------------------------------------------------------*/
FoamFile
{
    format      ascii;
    class       IOPosition;
    location    "0.9/lagrangian/cloud";
    object      positions;
}
// * * * * * * * * * * * * * * * * * * * * * * * * * * * * * * * * * * * * * //

5774
(
(4.05577e-08 0.5 1.74068e-09 0.5) 0 7376 1
(4.06581e-08 0.5 1.95466e-09 0.5) 0 7376 1
(4.07493e-08 0.5 0.000216988 0.499783) 0 7376 2
(4.08321e-08 0.5 0.0206636 0.479336) 0 7376 2
(4.09074e-08 0.5 0.0397272 0.460273) 0 7376 2
(4.09758e-08 0.5 0.0878556 0.412144) 0 7376 2
(4.10379e-08 0.5 0.0620025 0.437997) 0 7376 2
(4.10943e-08 0.5 0.133794 0.366206) 0 7376 2
(4.11455e-08 0.5 0.139757 0.360243) 0 7376 2
(4.11921e-08 0.5 0.109961 0.390039) 0 7376 2
(0.150005 0.424997 0.311422 0.113576) 0 7375 1
(0.187611 0.406195 0.218072 0.188123) 0 7375 1
(0.202383 0.398809 0.198873 0.199936) 0 7375 1
(0.203649 0.398175 0.154628 0.243547) 0 7375 1
(0.0538785 0.445008 0.473061 0.0280532) 0 7375 2
(0.0483071 0.0720655 0.475846 0.403781) 0 7375 2
(0.0221282 0.488936 0.445734 0.0432023) 0 0 1
(0.000972597 0.499514 0.443848 0.0556652) 1 7377 1
(0.140141 0.42993 0.27675 0.153179) 1 0 1
(0.379597 0.310202 0.191101 0.1191) 1 0 1
(0.278824 0.360588 0.262419 0.0981697) 1 0 1
(0.272077 0.362121 0.00184004 0.363962) 1 0 2
(0.360113 0.311964 0.00797922 0.319943) 1 0 2
(0.190374 0.404813 0.213011 0.191802) 1 3 2
(0.803859 0.0469091 0.0511613 0.0980704) 1 3 1
(0.653851 0.173074 0.0358224 0.137252) 1 2 1
(0.181587 0.409207 0.390853 0.0183539) 1 2 1
(0.19762 0.40119 0.141672 0.259518) 2 2 1
(0.361267 0.226785 0.319367 0.0925812) 2 4 2
(0.308811 0.185548 0.345595 0.160046) 3 7379 2
(0.218784 0.390608 0.167669 0.22294) 5 8 1
(0.347817 0.0591363 0.266955 0.326092) 7 12 2
(0.0823337 0.0702817 0.388551 0.458833) 9 16 2
(0.443626 0.0186387 0.278187 0.259548) 9 7385 2
(0.250963 0.0181606 0.356358 0.374518) 11 20 2
(0.272943 0.0692252 0.294303 0.363528) 12 22 2
(0.0576565 0.471172 0.37431 0.0968621) 13 27 2
(0.50888 0.24556 0.228187 0.017373) 13 7389 1
(0.0951206 0.45244 0.235421 0.217019) 13 26 1
(0.576075 0.115086 0.211963 0.096877) 14 7390 2
(0.455144 0.272428 0.0494486 0.222979) 15 28 1
(0.16564 0.41718 0.219961 0.197219) 15 30 1
(0.474128 0.0418443 0.262936 0.221092) 16 7392 2
(0.371861 0.10685 0.314069 0.207219) 17 7393 2
(0.0858262 0.457087 0.293247 0.16384) 18 36 1
(0.358368 0.320816 0.205927 0.114889) 21 7397 1
(0.259595 0.259013 0.370202 0.11119) 22 44 2
(0.56338 0.0190288 0.21831 0.199281) 25 50 2
(0.26669 0.366655 0.316365 0.0502901) 27 55 2
(0.449911 0.116657 0.275045 0.158388) 27 7403 2
(0.472395 0.263803 0.0258321 0.23797) 28 7404 1
(0.025992 0.163848 0.487004 0.323156) 31 62 2
(0.22395 0.356011 0.0320142 0.388025) 33 67 1
(0.184919 0.40754 0.391433 0.0161078) 110 71 2
(0.0653967 0.467302 0.46005 0.00725174) 37 75 2
(0.380367 0.309816 0.232927 0.0768891) 110 219 1
(0.567597 0.216201 0.203044 0.0131575) 34 7410 1
(0.112132 0.443934 0.229112 0.214822) 35 70 1
(0.449491 0.275255 0.0293279 0.245927) 37 7413 1
(0.375924 0.312038 0.113213 0.198825) 38 74 1
(0.261922 0.369039 0.31101 0.0580284) 39 79 2
(0.24612 0.113579 0.26336 0.37694) 40 81 1
(0.178306 0.0586066 0.35224 0.410847) 42 82 2
(0.212118 0.393941 0.263022 0.130919) 43 87 2
(0.148403 0.383552 0.425798 0.0422461) 119 89 1
(0.323361 0.331583 0.33832 0.0067364) 120 91 1
(0.676296 0.161852 0.0961662 0.0656859) 121 239 1
(0.214763 0.392618 0.129236 0.263383) 44 86 1
(0.197405 0.401298 0.215968 0.18533) 44 88 1
(0.579343 0.0989653 0.210328 0.111363) 45 7421 2
(0.505563 0.247218 0.0420268 0.205192) 46 90 1
(0.428541 0.154089 0.28573 0.131641) 123 97 1
(0.140165 0.429918 0.141868 0.288049) 47 92 1
(0.0334833 0.102863 0.483258 0.380396) 49 98 2
(0.269539 0.0347963 0.330434 0.36523) 50 101 1
(3.94196e-08 0.499997 2.92712e-06 0.5) 75 7451 1
(4.00429e-08 0.499997 2.95099e-06 0.5) 75 7451 1
(4.53354e-08 0.5 0.053505 0.446495) 0 7376 2
(4.49615e-08 0.227805 0.272195 0.5) 0 7376 1
(0.22061 0.389695 0.159565 0.23013) 0 7375 1
(0.13413 0.432935 0.430945 0.00199012) 0 7376 2
(0.197423 0.401289 0.313148 0.0881406) 0 7376 2
(0.39402 0.221228 0.30299 0.0817617) 0 7375 2
(4.0518e-08 0.5 0.0722121 0.427788) 75 7451 2
(0.413502 0.149629 0.293249 0.14362) 0 7375 2
(0.00588322 0.497058 0.215997 0.281061) 0 1 2
(4.08797e-08 0.5 0.179583 0.320417) 75 7451 2
(4.11559e-08 0.5 0.143324 0.356676) 75 7451 2
(4.13664e-08 0.5 0.136817 0.363183) 75 7451 2
(0.299882 0.266748 0.350059 0.083311) 0 7375 2
(4.15269e-08 0.5 0.127105 0.372895) 75 7451 2
(4.16492e-08 0.5 0.0888983 0.411102) 75 7451 2
(0.0176475 0.491176 0.0761431 0.415033) 75 7451 2
(0.0363085 0.481846 0.0231982 0.458647) 1 0 1
(0.00122106 0.499389 0.358483 0.140906) 1 7377 1
(0.00548445 0.35819 0.139068 0.497258) 0 1 1
(0.532777 0.233612 0.16154 0.0720714) 1 0 1
(0.183709 0.160099 0.248047 0.408146) 0 1 1
(0.195158 0.0794381 0.322983 0.402421) 0 1 1
(0.157203 0.0354359 0.385963 0.421399) 0 1 1
(0.372452 0.313774 0.145068 0.168706) 1 3 2
(0.0958637 0.425059 0.0270087 0.452068) 1 3 1
(0.0596729 0.239851 0.230313 0.470164) 1 3 1
(0.283977 0.0958528 0.262159 0.358011) 2 2 2
(0.0636895 0.468155 0.00178496 0.46637) 3 7 2
(0.220242 0.389879 0.181736 0.208143) 4 9 2
(0.449224 0.0805564 0.275388 0.194832) 76 151 2
(0.886203 0.0568986 0.0412565 0.0156421) 76 149 1
(0.0105085 0.415365 0.079381 0.494746) 77 151 2
(0.0220174 0.39134 0.0976514 0.488991) 77 151 2
(0.465198 0.267401 0.129152 0.138249) 77 151 1
(0.161188 0.0393972 0.419406 0.380009) 82 15 1
(0.0436956 0.478152 0.0799325 0.39822) 85 167 1
(0.00939613 0.495302 0.226964 0.268338) 86 171 1
(0.0430259 0.478487 0.173316 0.305171) 87 173 1
(0.0104583 0.0061146 0.494771 0.488656) 89 29 1
(0.174781 0.412609 0.233204 0.179405) 88 175 1
(0.212217 0.102907 0.290985 0.393892) 83 166 1
(0.0234423 0.0852935 0.488279 0.402985) 161 172 1
(0.533277 0.233361 0.038843 0.194518) 89 177 1
(0.180252 0.409874 0.370699 0.0391745) 94 39 2
(0.027945 0.486028 0.279664 0.206364) 21 43 2
(0.00631121 0.496844 0.325949 0.170895) 96 191 1
(0.108744 0.445628 0.360375 0.0852529) 97 193 1
(0.078715 0.193391 0.460642 0.267252) 101 53 1
(0.0281692 0.485915 0.284253 0.201662) 29 59 2
(0.180386 0.409807 0.26575 0.144056) 172 194 2
(0.303365 0.348318 0.331908 0.0164095) 99 198 2
(0.165234 0.417383 0.147466 0.269917) 101 202 2
(0.122686 0.0640078 0.374649 0.438657) 102 201 2
(0.500964 0.0982001 0.151318 0.249518) 102 204 1
(0.458093 0.270954 0.137428 0.133526) 103 206 2
(0.665784 0.0997723 0.0673358 0.167108) 106 212 1
(0.109391 0.153567 0.291737 0.445305) 109 218 1
(0.0812969 0.247122 0.212229 0.459352) 111 219 2
(0.161576 0.419212 0.238987 0.180225) 111 221 1
(0.163331 0.418335 0.0683988 0.349936) 113 77 2
(0.0145276 0.492736 0.426723 0.0660128) 181 360 1
(0.146212 0.426894 0.19607 0.230824) 183 216 2
(0.351994 0.324003 0.0739157 0.250087) 185 220 2
(0.278775 0.360613 0.0467517 0.313861) 186 222 2
(0.125715 0.437142 0.339666 0.0974765) 112 224 2
(0.404973 0.297513 0.292665 0.00484827) 113 226 2
(0.422518 0.0628876 0.225853 0.288741) 114 225 2
(0.568998 0.0467066 0.168794 0.215501) 116 232 1
(0.241944 0.379028 0.0770129 0.302015) 118 236 2
(0.185711 0.335215 0.0719296 0.407144) 122 241 2
(0.146623 0.426688 0.356023 0.070665) 194 386 1
(0.133127 0.433437 0.419886 0.0135503) 194 238 2
(0.841283 0.0793586 0.0697526 0.00960604) 195 386 1
(4.12753e-08 0.5 0.5 1.14736e-09) 150 7452 2
(4.1279e-08 0.5 0.5 1.05738e-09) 150 7452 2
(4.87458e-08 0.5 0.0349992 0.465001) 75 7451 2
(4.12826e-08 0.5 0.14379 0.35621) 150 7452 2
(0.0170166 0.491492 0.0947944 0.396697) 75 7451 2
(0.0432477 0.478376 0.0839267 0.394449) 75 7451 2
(6.88605e-08 0.5 0.211912 0.288088) 75 7451 2
(6.25568e-08 0.5 0.273707 0.226293) 75 7451 2
(0.121031 0.439485 0.00774955 0.431735) 75 7451 2
(6.49717e-08 0.5 0.362105 0.137895) 75 7451 2
(5.95505e-08 0.5 0.320725 0.179275) 75 7451 2
(0.139771 0.430115 0.0228038 0.407311) 75 7451 2
(6.30135e-08 0.5 0.3543 0.1457) 75 7451 2
(0.430663 0.0446037 0.284668 0.240065) 150 150 1
(0.274199 0.362901 0.161185 0.201715) 150 298 1
(0.280019 0.35999 0.143644 0.216346) 150 298 1
(0.458821 0.270589 0.251586 0.0190033) 150 298 1
(0.00144015 0.49928 0.313777 0.185502) 75 7451 2
(0.153039 0.42348 0.388281 0.035199) 75 1 2
(0.402554 0.161672 0.13705 0.298723) 0 1 1
(0.0172061 0.491397 0.236193 0.255203) 75 1 2
(0.0250328 0.487484 0.184265 0.303219) 75 1 2
(0.333778 0.125273 0.207839 0.333111) 0 1 1
(0.245464 0.122993 0.254275 0.377268) 0 1 1
(0.357191 0.0902973 0.231107 0.321404) 0 1 1
(0.224533 0.0783347 0.387733 0.309399) 150 150 1
(0.0671549 0.238531 0.227891 0.466423) 75 150 1
(0.188285 0.405857 0.379749 0.0261085) 150 298 1
(0.232575 0.0287171 0.354995 0.383713) 0 1 1
(0.231297 0.384352 0.342551 0.0418006) 76 149 1
(0.693122 0.153439 0.120078 0.0333614) 76 149 1
(0.268725 0.365637 0.177731 0.187906) 150 298 1
(0.123547 0.221554 0.438226 0.216673) 75 149 2
(0.0582609 0.47087 0.0912292 0.37964) 151 298 1
(0.318202 0.340899 0.312186 0.0287126) 151 152 2
(0.219809 0.390095 0.0315412 0.358554) 151 298 1
(0.726893 0.0197638 0.136554 0.11679) 76 151 2
(0.292506 0.210251 0.353747 0.143496) 151 152 1
(0.203286 0.398357 0.00323682 0.39512) 151 300 1
(0.0297618 0.485119 0.15203 0.333089) 152 300 1
(0.286064 0.316007 0.0409604 0.356968) 77 154 1
(0.372957 0.0552121 0.258309 0.313521) 78 153 2
(0.160838 0.156587 0.262994 0.419581) 79 155 2
(0.107903 0.164957 0.446049 0.281092) 79 157 2
(0.156425 0.0368089 0.421787 0.384979) 81 161 2
(0.0373457 0.121009 0.481327 0.360318) 159 168 1
(0.353922 0.323039 0.163153 0.159886) 162 174 2
(0.264075 0.367962 0.21636 0.151602) 163 176 2
(0.287208 0.113217 0.243179 0.356396) 90 180 1
(0.350689 0.262465 0.324655 0.0621901) 92 183 2
(0.475443 0.0327144 0.262278 0.229564) 164 178 1
(0.0324813 0.483759 0.413335 0.0704247) 92 184 2
(0.323856 0.338072 0.263636 0.0744361) 168 186 2
(0.126863 0.436569 0.105176 0.331392) 165 329 2
(0.0331873 0.483406 0.0466382 0.436768) 167 333 2
(0.15978 0.131831 0.288279 0.42011) 167 333 1
(0.268874 0.365563 0.277087 0.0884756) 168 335 2
(0.204021 0.113862 0.397989 0.284127) 168 334 2
(0.361424 0.232901 0.0863866 0.319288) 173 342 2
(0.75937 0.0357905 0.120315 0.0845246) 176 202 1
(0.231749 0.384125 0.0384394 0.345686) 178 352 1
(0.274995 0.362503 0.104935 0.257568) 104 208 2
(0.020314 0.489843 0.0899622 0.399881) 250 349 2
(0.124725 0.214261 0.437637 0.223377) 251 351 1
(0.193485 0.403257 0.161182 0.242076) 178 355 2
(0.184479 0.323361 0.0843993 0.40776) 178 355 1
(0.00103942 0.137898 0.49948 0.361582) 179 356 2
(0.279981 0.36001 0.173471 0.186539) 181 361 2
(0.364714 0.301162 0.317643 0.0164809) 256 361 1
(0.0913691 0.230206 0.224109 0.454315) 182 363 1
(0.169184 0.166009 0.249399 0.415408) 183 365 1
(0.114885 0.442557 0.424473 0.0180849) 260 369 2
(0.0286672 0.485666 0.114446 0.37122) 186 371 2
(0.0787048 0.170341 0.290307 0.460648) 187 370 2
(0.507073 0.00840679 0.246463 0.238057) 187 372 2
(4.11476e-08 0.499995 4.64168e-06 0.5) 225 7453 1
(4.11586e-08 0.499995 4.65899e-06 0.5) 225 7453 1
(0.0160827 0.491959 0.037159 0.4548) 150 7452 2
(4.11693e-08 0.5 0.15334 0.34666) 225 7453 2
(0.00196494 0.00176311 0.497254 0.499018) 75 7451 1
(9.1632e-08 0.168985 0.331015 0.5) 75 7451 1
(0.0197049 0.490148 0.0496308 0.440517) 150 7452 2
(1.29126e-07 0.20817 0.29183 0.5) 75 7451 1
(1.08522e-07 0.0868557 0.413144 0.5) 75 7451 1
(9.27247e-08 0.123137 0.376863 0.5) 75 7451 1
(0.0838618 0.113621 0.344448 0.458069) 75 7451 1
(0.176216 0.152324 0.259568 0.411892) 75 7451 1
(0.231622 0.141884 0.242305 0.384189) 75 7451 1
(0.302423 0.0690639 0.279724 0.348788) 75 7451 1
(0.305041 0.34748 0.0664248 0.281055) 225 299 2
(0.36292 0.0253674 0.293173 0.31854) 75 7451 1
(0.271952 0.0647604 0.364024 0.299264) 150 150 1
(0.640121 0.179939 0.0120139 0.167926) 150 298 1
(0.290531 0.354734 0.159017 0.195717) 150 298 1
(0.134024 0.261905 0.432988 0.171084) 150 150 1
(0.231 0.3845 0.0904259 0.294074) 75 150 2
(0.0205088 0.447342 0.489746 0.0424035) 150 150 1
(0.418404 0.290798 0.00847023 0.282328) 75 150 2
(0.222683 0.260618 0.388659 0.128041) 225 299 1
(0.447135 0.276432 0.0143135 0.262119) 75 150 2
(0.085494 0.457253 0.318955 0.138298) 75 150 2
(0.125148 0.437426 0.319444 0.117982) 226 447 1
(0.137915 0.431042 0.0840921 0.34695) 225 447 1
(0.120259 0.43987 0.389142 0.050728) 226 447 1
(0.168621 0.235084 0.41569 0.180606) 225 447 2
(0.220554 0.389723 0.319414 0.0703091) 226 447 1
(0.301898 0.349051 0.222408 0.126643) 226 447 1
(0.335367 0.332317 0.216952 0.115365) 226 447 1
(0.273398 0.270958 0.0923432 0.363301) 226 447 2
(0.509518 0.245241 0.0519443 0.193297) 226 447 1
(0.434311 0.282845 0.246219 0.0366257) 226 447 1
(0.100746 0.449627 0.180056 0.269571) 301 450 2
(0.444144 0.277928 0.0799403 0.197988) 151 298 1
(0.302347 0.348827 0.279586 0.0692406) 151 298 1
(0.594799 0.202601 0.173348 0.0292529) 151 298 1
(0.562388 0.218806 0.147472 0.0713336) 151 301 2
(0.337721 0.327143 0.00399683 0.33114) 151 301 1
(0.0105816 0.323494 0.494709 0.171215) 226 301 1
(0.016016 0.16533 0.326662 0.491992) 152 300 2
(0.465882 0.267059 0.205926 0.0611333) 152 303 2
(0.311917 0.268042 0.344041 0.0759991) 152 302 2
(0.472161 0.263919 0.0771369 0.186782) 153 305 2
(0.00375759 0.207626 0.290495 0.498121) 154 304 2
(0.184692 0.0993411 0.407654 0.308313) 154 306 2
(0.00707862 0.160471 0.496461 0.335989) 155 308 2
(0.336043 0.233554 0.0984239 0.331978) 157 313 1
(0.0993671 0.0996244 0.450316 0.350692) 158 314 2
(0.170974 0.0816466 0.414513 0.332866) 234 317 1
(0.0303381 0.484831 0.240942 0.243889) 162 323 2
(0.658121 0.0668474 0.104092 0.170939) 237 469 2
(0.355569 0.322216 0.0890989 0.233117) 238 474 2
(0.425783 0.287108 0.252575 0.0345332) 240 478 2
(0.0363311 0.129916 0.481834 0.351919) 241 479 2
(0.296357 0.0182199 0.333602 0.351822) 243 481 2
(0.380034 0.309983 0.229283 0.0807002) 244 337 2
(0.189457 0.405271 0.0501296 0.355142) 245 339 2
(0.0067877 0.386146 0.496606 0.11046) 247 343 1
(0.415174 0.19146 0.100954 0.292413) 248 491 2
(0.129948 0.361326 0.435026 0.0736997) 323 494 1
(0.245914 0.132845 0.244197 0.377043) 249 496 1
(0.183592 0.094461 0.313743 0.408204) 250 498 1
(0.169106 0.00338005 0.412067 0.415447) 251 500 1
(0.679725 0.117452 0.160137 0.0426852) 253 355 1
(0.0332731 0.237744 0.483363 0.245619) 328 504 1
(0.429717 0.285142 0.0651831 0.219959) 254 506 2
(0.179476 0.048378 0.361884 0.410262) 255 505 2
(0.09375 0.453125 0.034998 0.418127) 331 510 2
(0.332288 0.333856 0.290321 0.0435348) 257 512 2
(0.247122 0.376439 0.245492 0.130946) 258 514 2
(0.167286 0.416357 0.325541 0.0908159) 259 516 2
(3.57592e-08 0.499988 1.2273e-05 0.5) 300 7454 1
(3.57838e-08 0.499988 1.24306e-05 0.5) 300 7454 1
(3.82939e-08 0.5 0.0275243 0.472476) 225 7453 2
(3.57775e-08 0.5 0.161491 0.338509) 300 7454 2
(3.83901e-08 0.5 0.0134643 0.486536) 225 7453 2
(0.0359406 0.48203 0.0855839 0.396446) 150 299 2
(3.84834e-08 0.5 0.149081 0.350919) 225 7453 2
(0.305474 0.347263 0.325981 0.0212817) 225 299 2
(0.37492 0.31254 0.231475 0.0810648) 225 447 1
(0.849609 0.0222964 0.0751956 0.0528993) 150 298 2
(0.314054 0.342973 0.233397 0.109576) 225 447 1
(0.263868 0.368066 0.232892 0.135174) 225 447 1
(0.249968 0.375016 0.223961 0.151055) 225 447 1
(0.191246 0.404377 0.246075 0.158302) 225 447 1
(0.192254 0.403873 0.242704 0.161169) 225 447 1
(0.161725 0.419137 0.241335 0.177803) 225 447 1
(0.159206 0.420397 0.228534 0.191863) 225 447 1
(0.119066 0.440467 0.26299 0.177477) 225 447 1
(0.898401 0.00567538 0.0507995 0.0451241) 225 447 2
(0.326433 0.336784 0.0254713 0.311312) 150 298 1
(0.21019 0.394905 0.192584 0.202321) 225 447 1
(0.261771 0.369115 0.188836 0.180279) 225 447 1
(1.90991e-08 0.5 0.0732489 0.426751) 300 7454 2
(0.373751 0.313125 0.121078 0.192047) 300 7454 2
(0.408222 0.295889 0.235118 0.0607711) 300 7454 2
(0.759603 0.120199 0.066485 0.0537138) 300 596 1
(0.786754 0.0664022 0.0402205 0.106623) 300 597 1
(0.526945 0.236527 0.00211756 0.23441) 300 596 1
(0.348348 0.223536 0.325826 0.10229) 300 596 2
(0.0459063 0.477047 0.00834637 0.4687) 301 599 2
(0.25375 0.36922 0.00390499 0.373125) 301 596 2
(0.149121 0.164476 0.260963 0.425439) 301 596 2
(0.266064 0.172623 0.194345 0.366968) 301 596 2
(0.334854 0.142998 0.189575 0.332573) 301 596 2
(0.227995 0.386003 0.102444 0.283558) 301 599 2
(0.485014 0.239944 0.017549 0.257493) 301 596 2
(0.102956 0.448522 0.136709 0.311813) 376 599 2
(0.0274503 0.486275 0.0248727 0.461402) 376 599 2
(0.513596 0.0747905 0.243202 0.168412) 301 598 2
(0.642068 0.175798 0.00316755 0.178966) 226 450 1
(0.792322 0.0356257 0.103839 0.0682134) 301 450 1
(0.114231 0.121711 0.442885 0.321173) 301 450 1
(0.339934 0.174756 0.330033 0.155277) 226 449 2
(0.0279533 0.39473 0.0912936 0.486023) 227 449 2
(0.524827 0.237586 0.231385 0.00620175) 227 452 2
(0.00444785 0.197919 0.497776 0.299857) 227 451 2
(0.348614 0.295215 0.0304786 0.325693) 228 454 1
(0.0231595 0.212706 0.275714 0.48842) 229 453 2
(0.440372 0.147149 0.132665 0.279814) 229 456 1
(0.350022 0.324989 0.309887 0.0151025) 230 458 2
(0.400696 0.133824 0.165828 0.299652) 231 460 1
(0.297525 0.028863 0.322374 0.351237) 232 462 1
(0.0923738 0.0832752 0.453813 0.370538) 233 463 2
(0.390434 0.115511 0.189272 0.304783) 235 468 1
(0.244258 0.377871 0.0542744 0.323597) 312 472 2
(0.490535 0.149285 0.254733 0.105447) 314 624 2
(0.37965 0.117394 0.19278 0.310175) 315 627 1
(0.393401 0.0790616 0.224238 0.303299) 316 629 1
(0.33287 0.0370407 0.296524 0.333565) 317 631 1
(0.303558 0.0334764 0.348221 0.314745) 318 632 2
(0.388241 0.0313863 0.274493 0.305879) 319 635 1
(0.366116 0.226261 0.0906806 0.316942) 320 637 1
(0.319663 0.340168 0.20784 0.132329) 321 639 2
(0.280523 0.359739 0.0740853 0.285653) 322 641 2
(0.14588 0.0938784 0.333182 0.42706) 323 643 1
(0.23507 0.309336 0.0731289 0.382465) 324 645 1
(0.265362 0.367319 0.200367 0.166952) 325 647 2
(0.26422 0.36789 0.0441459 0.323744) 326 649 2
(0.1778 0.0426106 0.368489 0.4111) 327 648 2
(0.31091 0.344545 0.00972178 0.334823) 328 653 2
(0.314744 0.342628 0.187356 0.155272) 329 655 2
(0.256226 0.0234088 0.348478 0.371887) 330 654 2
(0.223164 0.388418 0.157143 0.231275) 331 659 2
(0.339961 0.323714 0.00630554 0.330019) 332 658 2
(0.549136 0.225432 0.215476 0.00995628) 333 663 2
(3.59765e-08 0.499961 3.85656e-05 0.5) 375 7455 1
(3.60081e-08 0.499961 3.88706e-05 0.5) 375 7455 1
(0.000517865 0.499741 0.0582408 0.4415) 300 7454 2
(3.60272e-08 0.5 0.167304 0.332696) 375 7455 2
(0.440781 0.279609 0.12196 0.157649) 225 299 2
(0.000348106 0.499826 0.0150193 0.484807) 300 7454 2
(0.490509 0.254746 0.0751296 0.179616) 225 299 2
(5.41442e-09 0.5 0.0902797 0.40972) 300 7454 2
(0.267973 0.366013 0.035296 0.330717) 300 7454 2
(0.53082 0.23459 0.166038 0.068552) 300 448 2
(0.555837 0.222082 0.0262789 0.195803) 300 448 2
(0.572936 0.194493 0.213532 0.0190394) 300 448 1
(0.575102 0.107934 0.212449 0.104515) 300 448 1
(0.449861 0.275069 0.136748 0.138321) 300 596 1
(0.312192 0.343904 0.103384 0.24052) 300 596 1
(0.28499 0.357505 0.101004 0.256501) 300 596 1
(0.26735 0.366325 0.10285 0.263475) 300 596 1
(0.274839 0.362581 0.117426 0.245154) 300 596 1
(0.272801 0.3636 0.121499 0.2421) 300 596 1
(0.290263 0.354869 0.138824 0.216044) 300 596 1
(0.293156 0.353422 0.125281 0.228141) 300 596 1
(0.295531 0.352235 0.119724 0.232511) 300 596 1
(0.0999388 0.352297 0.450031 0.0977339) 375 597 1
(3.7027e-08 0.262938 0.237062 0.5) 375 7455 1
(0.012567 0.250485 0.243231 0.493717) 375 7455 1
(0.182817 0.215299 0.193293 0.408592) 375 7455 1
(0.689539 0.155231 0.0640625 0.0911681) 375 746 2
(0.860077 0.0699613 0.0522262 0.017735) 375 746 2
(0.107159 0.44642 0.348394 0.0980265) 450 746 2
(0.0897922 0.102024 0.35308 0.455104) 376 745 2
(0.304524 0.333783 0.347738 0.0139551) 450 746 1
(0.0911259 0.290336 0.454437 0.164101) 450 746 1
(0.0565875 0.471706 0.0601912 0.411515) 376 748 2
(0.0380718 0.0233361 0.480964 0.457628) 375 745 2
(0.199469 0.345072 0.0551939 0.400265) 376 745 2
(0.471849 0.264075 0.0552073 0.208868) 376 745 1
(0.644842 0.162553 0.0150261 0.177579) 376 745 2
(0.757103 0.121449 0.0224733 0.0989753) 376 745 1
(0.207361 0.378481 0.396319 0.0178378) 376 599 1
(0.275745 0.0591734 0.362127 0.302954) 376 599 1
(0.00529301 0.237107 0.497353 0.260247) 301 598 2
(0.64755 0.176225 0.0230004 0.153225) 302 601 2
(0.299444 0.0324604 0.350278 0.317818) 302 600 2
(0.0263149 0.0697435 0.486843 0.417099) 378 603 1
(0.48771 0.063393 0.192752 0.256145) 304 602 2
(0.466265 0.266868 0.0700953 0.196772) 305 607 2
(0.376313 0.0152886 0.296555 0.311844) 306 606 2
(0.0206967 0.168883 0.489652 0.320768) 306 608 2
(0.260528 0.146777 0.222958 0.369736) 307 611 1
(0.296539 0.35173 0.216151 0.135579) 308 613 2
(0.0297049 0.128166 0.356982 0.485148) 309 612 2
(0.297406 0.0783175 0.27298 0.351297) 309 615 1
(0.272972 0.207241 0.156273 0.363514) 310 617 1
(0.31752 0.0334227 0.307817 0.34124) 311 619 1
(0.0755201 0.46224 0.0221799 0.44006) 389 625 2
(0.218772 0.107073 0.390614 0.283541) 390 775 2
(0.519542 0.13953 0.100699 0.240229) 391 778 1
(0.433533 0.283234 0.151607 0.131627) 392 780 2
(0.289072 0.0737501 0.281714 0.355464) 393 779 2
(0.164051 0.0988752 0.417975 0.319099) 393 781 2
(0.349702 0.135657 0.189491 0.325149) 394 784 1
(0.331272 0.334364 0.300032 0.0343317) 395 786 2
(0.289541 0.355229 0.204342 0.150887) 396 788 2
(0.30028 0.34986 0.307803 0.0420571) 397 790 2
(0.251641 0.311191 0.0629882 0.374179) 398 792 1
(0.225823 0.242504 0.144585 0.387089) 399 794 1
(0.222912 0.133781 0.254763 0.388544) 400 796 1
(0.0110934 0.163358 0.494453 0.331095) 401 797 2
(0.402476 0.0723744 0.298762 0.226388) 402 799 2
(0.630426 0.123745 0.0610414 0.184787) 403 802 1
(0.170246 0.132633 0.414877 0.282244) 478 802 1
(0.0586407 0.284267 0.47068 0.186412) 479 804 1
(0.0744969 0.462752 0.0279647 0.434787) 480 806 2
(0.00265466 0.498673 0.0470832 0.451589) 481 954 1
(0.221023 0.0961797 0.293309 0.389489) 406 808 1
(3.24058e-08 0.5 0.499346 0.000653532) 450 7456 2
(3.25151e-08 0.5 0.499397 0.000603154) 450 7456 2
(0.308639 0.34568 0.274318 0.0713619) 300 7454 2
(3.27057e-08 0.5 0.137213 0.362787) 450 7456 2
(9.55344e-09 0.5 0.0265443 0.473456) 375 7455 2
(9.81017e-09 0.5 0.114536 0.385464) 375 7455 2
(1.09002e-08 0.5 0.168445 0.331555) 375 7455 2
(0.0656226 0.467189 0.113814 0.353375) 375 7455 2
(1.2591e-08 0.5 0.0966201 0.40338) 375 7455 2
(0.290734 0.354633 0.303407 0.0512264) 300 7454 2
(0.536899 0.231551 0.208084 0.023467) 375 597 2
(0.553041 0.22348 0.159815 0.0636649) 375 597 2
(0.61255 0.193725 0.162455 0.0312698) 375 597 2
(0.642251 0.149259 0.178874 0.0296149) 375 597 1
(0.712175 0.0762096 0.143913 0.0677031) 375 745 2
(0.554857 0.19304 0.222571 0.029531) 375 745 2
(0.441543 0.197942 0.279228 0.0812867) 375 745 2
(0.351735 0.232628 0.324132 0.0915043) 375 745 2
(0.344685 0.0463053 0.327657 0.281352) 375 745 2
(0.294437 0.0841047 0.352781 0.268677) 375 745 2
(0.212902 0.295282 0.393549 0.0982669) 375 745 2
(0.217554 0.177021 0.391223 0.214202) 375 745 2
(0.232231 0.0918266 0.383885 0.292058) 375 745 2
(0.671175 0.133117 0.164412 0.0312956) 450 746 1
(0.317841 0.341079 0.255742 0.0853379) 450 7456 2
(0.371645 0.152888 0.161289 0.314178) 450 895 1
(0.3442 0.0479144 0.3279 0.279986) 450 894 2
(0.208988 0.395506 0.122195 0.273311) 451 894 1
(0.234999 0.0025034 0.379997 0.3825) 451 894 2
(0.230545 0.0199988 0.364729 0.384728) 451 894 2
(0.498682 0.250659 0.159923 0.0907356) 376 748 2
(0.320552 0.199363 0.339724 0.140361) 451 748 1
(0.466912 0.266544 0.0593747 0.207169) 451 748 2
(0.526518 0.103068 0.236741 0.133673) 451 748 1
(0.87427 0.0628651 0.0493868 0.0134783) 451 748 2
(0.0620384 0.468981 0.237258 0.231723) 451 896 1
(0.135236 0.432382 0.400218 0.032164) 451 896 1
(0.0756849 0.462158 0.388723 0.073435) 451 896 1
(0.0298727 0.485064 0.130542 0.354522) 452 896 1
(0.00927667 0.495362 0.0316958 0.463666) 452 896 1
(0.182097 0.408952 0.0131457 0.395806) 452 896 1
(0.00799312 0.115877 0.380126 0.496003) 301 599 1
(0.394039 0.30298 0.263534 0.0394463) 377 601 2
(0.443842 0.112123 0.278079 0.165956) 377 749 2
(0.422387 0.288807 0.18475 0.104057) 379 754 2
(0.509331 0.0105915 0.234743 0.245334) 380 753 2
(0.410195 0.294903 0.0205653 0.274337) 381 758 2
(0.322961 0.33852 0.113549 0.224971) 382 760 2
(0.287044 0.356478 0.0846817 0.271796) 383 762 2
(0.234703 0.382649 0.0575103 0.325138) 384 764 2
(0.222148 0.0167063 0.37222 0.388926) 385 763 2
(0.0976273 0.0812193 0.369967 0.451186) 386 765 2
(0.0475275 0.0892779 0.386958 0.476236) 387 767 2
(0.793507 0.0628353 0.103246 0.0404111) 388 771 2
(0.30519 0.347405 0.0693696 0.278035) 390 776 2
(0.00263514 0.210103 0.28858 0.498682) 467 926 2
(0.402274 0.0438553 0.255008 0.298863) 467 929 1
(0.351407 0.324296 0.291794 0.0325021) 468 931 2
(0.283309 0.032923 0.325423 0.358346) 469 930 2
(0.442743 0.0767237 0.201905 0.278628) 469 933 1
(0.287381 0.356309 0.320683 0.0356263) 545 935 2
(0.0881508 0.455925 0.308015 0.147909) 546 937 2
(0.268017 0.0968979 0.269093 0.365991) 472 936 2
(0.210022 0.135897 0.259092 0.394989) 473 938 2
(0.014599 0.0297369 0.492701 0.462964) 473 940 2
(0.0256367 0.487182 0.389082 0.0980999) 550 945 2
(0.102267 0.0601638 0.448866 0.388703) 550 945 1
(0.364902 0.317549 0.20145 0.116099) 551 947 2
(0.157721 0.134423 0.42114 0.286716) 476 946 2
(0.417682 0.194578 0.0965815 0.291159) 477 949 1
(0.412325 0.0460923 0.293838 0.247745) 552 949 1
(0.254816 0.329166 0.372592 0.0434259) 553 951 1
(0.303905 0.348047 0.220706 0.127342) 554 953 2
(0.18078 0.40961 0.0512307 0.358379) 555 1101 1
(0.26354 0.36823 0.0112809 0.356949) 481 957 2
(4.11794e-08 0.5 0.5 1.27227e-07) 525 7457 2
(4.11883e-08 0.5 0.5 1.27503e-07) 525 7457 2
(9.07224e-09 0.5 0.0445572 0.455443) 450 7456 2
(4.11968e-08 0.5 0.0999985 0.400002) 525 7457 2
(8.9232e-09 0.5 0.011624 0.488376) 450 7456 2
(0.599664 0.200168 0.109209 0.0909592) 450 746 2
(0.184245 0.407878 0.141857 0.266021) 375 597 2
(0.635909 0.182046 0.0430815 0.138964) 450 746 2
(0.65194 0.171046 0.17403 0.0029837) 450 746 1
(0.251376 0.175502 0.19881 0.374312) 375 7455 1
(0.212518 0.192427 0.393741 0.201314) 450 894 2
(0.174959 0.200572 0.412521 0.211949) 450 894 2
(0.17917 0.183567 0.410415 0.226848) 450 894 2
(0.175759 0.183746 0.412121 0.228374) 450 894 2
(0.190994 0.127448 0.404503 0.277055) 450 894 2
(0.189624 0.145314 0.405188 0.259874) 450 894 2
(4.12052e-08 0.5 0.0480336 0.451966) 525 7457 2
(0.411793 0.294104 0.245507 0.0485971) 525 895 2
(0.543091 0.101403 0.228454 0.127051) 525 895 1
(0.196196 0.149145 0.401902 0.252757) 450 894 2
(0.194655 0.144503 0.402673 0.25817) 450 894 2
(0.208468 0.176706 0.395766 0.21906) 450 894 2
(0.234728 0.180583 0.382636 0.202053) 450 894 2
(0.53223 0.0259855 0.233885 0.207899) 525 895 1
(0.280747 0.152543 0.359627 0.207084) 525 1043 2
(0.390503 0.00685052 0.304748 0.297898) 525 1043 2
(0.335839 0.0722067 0.259874 0.332081) 525 1044 1
(4.08409e-08 0.5 0.186616 0.313384) 600 7458 2
(0.0842099 0.457895 0.0599314 0.397964) 600 7458 2
(0.422527 0.288736 0.121245 0.167491) 526 897 2
(0.503485 0.248258 0.0276794 0.220578) 526 897 2
(0.159564 0.420218 0.231169 0.189048) 600 1044 2
(0.86004 0.0699802 0.0186377 0.0513425) 526 897 2
(0.406737 0.28102 0.296631 0.0156111) 526 897 1
(0.0341308 0.482935 0.47449 0.00844433) 527 899 2
(0.230815 0.0883248 0.384592 0.296268) 451 896 2
(0.043456 0.478272 0.131346 0.346926) 527 1045 1
(0.0174514 0.491274 0.0607892 0.430485) 527 1045 1
(0.0358432 0.369997 0.482078 0.112081) 526 1045 2
(0.0386309 0.480685 0.0116276 0.469057) 527 1045 1
(0.561948 0.219026 0.217181 0.0018454) 527 899 2
(0.640788 0.179606 0.174248 0.0053576) 452 750 2
(0.559973 0.0416206 0.220014 0.178393) 452 898 2
(0.214766 0.119516 0.2731 0.392617) 454 900 2
(0.0228508 0.390975 0.488575 0.0975992) 454 902 2
(0.0176087 0.260389 0.491196 0.230806) 455 904 2
(0.137221 0.158354 0.273036 0.43139) 457 906 2
(0.24245 0.0524745 0.326301 0.378775) 458 908 2
(0.258536 0.370732 0.138951 0.231781) 459 913 2
(0.209598 0.395201 0.392341 0.00285999) 460 915 2
(0.0658676 0.0897729 0.467066 0.377293) 461 916 2
(0.309346 0.345327 0.161884 0.183443) 538 921 2
(0.411211 0.208355 0.0860398 0.294394) 463 921 1
(0.348229 0.288613 0.0372727 0.325886) 464 923 1
(0.299566 0.350217 0.255694 0.0945225) 465 925 2
(0.33885 0.330575 0.0507466 0.279828) 466 927 2
(0.423059 0.0705478 0.288471 0.217923) 541 1075 2
(0.427735 0.153532 0.132601 0.286133) 542 1078 1
(0.306191 0.346905 0.0849506 0.261954) 543 1080 2
(0.37931 0.0263545 0.283991 0.310345) 543 1080 1
(0.341045 0.329478 0.00318446 0.326293) 619 1228 1
(0.186792 0.406604 0.380386 0.0262177) 619 1230 1
(0.230223 0.149402 0.384888 0.235486) 620 1084 1
(0.401231 0.0319219 0.267463 0.299385) 546 1086 1
(0.247197 0.376402 0.355929 0.0204724) 622 1088 2
(0.243205 0.378397 0.147309 0.231089) 548 1090 2
(0.385899 0.307051 0.199794 0.107257) 549 1092 2
(0.261739 0.0785748 0.369131 0.290556) 624 1092 1
(0.31392 0.34304 0.03681 0.30623) 625 1094 2
(0.275722 0.362139 0.260414 0.101725) 626 1096 2
(0.0627596 0.46862 0.116703 0.351918) 627 1244 1
(0.114689 0.442656 0.367186 0.0754696) 627 1246 1
(0.159312 0.420344 0.0990318 0.321312) 629 1102 2
(0.248728 0.375636 0.0883242 0.287312) 630 1104 2
(0.44588 0.27706 0.239962 0.0370979) 556 957 2
(3.64428e-08 0.499547 0.000453464 0.5) 600 7458 1
(3.67579e-08 0.499582 0.000417568 0.5) 600 7458 1
(1.17821e-08 0.5 0.14512 0.35488) 525 7457 2
(3.70537e-08 0.5 0.0295266 0.470473) 600 7458 2
(0.235414 0.382293 0.172203 0.21009) 525 895 2
(0.00271414 0.498643 0.428593 0.0700504) 525 895 2
(0.0339619 0.28962 0.483019 0.1934) 525 895 1
(0.23684 0.218584 0.38158 0.162996) 525 1043 2
(0.30017 0.349915 0.0416834 0.308232) 525 895 2
(0.247028 0.206698 0.376486 0.169788) 525 1043 2
(0.230846 0.200585 0.384577 0.183992) 525 1043 2
(0.264965 0.123792 0.367517 0.243726) 525 1043 2