/*--------------------------------*- C++ -*----------------------------------*\
  =========                 |
  \\      /  F ield         | OpenFOAM: The Open Source CFD Toolbox
   \\    /   O peration     | Website:  https://openfoam.org
    \\  /    A nd           | Version:  12
     \\/     M anipulation  |
\*---------------------------------------------------------------------------*/
FoamFile
{
    format      ascii;
    class       vectorField;
    location    "0.9/lagrangian/cloud";
    object      U;
}
// * * * * * * * * * * * * * * * * * * * * * * * * * * * * * * * * * * * * * //


5774
(
(-7.30647e-11 -2.13593e-05 0)
(-6.70669e-11 -2.14121e-05 0)
(-6.15598e-11 -2.146e-05 0)
(-5.65035e-11 -2.15036e-05 0)
(-5.18612e-11 -2.15432e-05 0)
(-4.75992e-11 -2.15792e-05 0)
(-4.36864e-11 -2.16118e-05 0)
(-4.00944e-11 -2.16415e-05 0)
(-3.67969e-11 -2.16684e-05 0)
(-3.37699e-11 -2.16929e-05 0)
(-0.00250315 -0.00210937 0)
(-0.00293398 -0.00244104 0)
(-0.00296308 -0.00251484 0)
(-0.00274067 -0.00247798 0)
(-0.000158088 -0.00126567 0)
(-4.88666e-05 -0.00129425 0)
(0.000130555 -0.00117848 0)
(0.000513586 -0.00348969 0)
(-0.00220143 -0.00339276 0)
(-0.0017057 -0.00637136 0)
(-0.00180745 -0.00347432 0)
(-0.00309736 -0.00353755 0)
(-0.00278657 -0.00346844 0)
(-0.00273062 -0.00484874 0)
(-0.000794271 -0.00513383 0)
(-0.00154925 -0.00356221 0)
(-0.00027835 -0.00728792 0)
(-0.00153607 -0.015616 0)
(-0.00119502 -0.0243644 0)
(0.000218837 -0.0279439 0)
(-0.000804669 -0.0328376 0)
(0.000595968 -0.0309907 0)
(0.000494395 -0.0265465 0)
(3.25578e-05 -0.0265874 0)
(9.16706e-05 -0.0276057 0)
(-0.00145697 -0.0268582 0)
(0.00071647 -0.022699 0)
(-0.000105753 -0.0243955 0)
(-0.000376312 -0.0262947 0)
(-0.000514832 -0.0265865 0)
(-0.000599871 -0.0277486 0)
(0.000970386 -0.0272499 0)
(0.000938537 -0.0294231 0)
(0.000673016 -0.0328682 0)
(0.00132787 -0.0304019 0)
(-0.000616059 -0.0271267 0)
(0.000242446 -0.0262188 0)
(-0.00110826 -0.0198848 0)
(-0.000326534 -0.0192658 0)
(0.000480546 -0.0242245 0)
(0.00067222 -0.0253481 0)
(-2.80733e-06 -0.0240137 0)
(2.61235e-07 -0.021449 0)
(-0.00197798 -0.0180642 0)
(0.000131244 -0.0191322 0)
(-0.000585545 -0.0197524 0)
(-1.48718e-05 -0.0262851 0)
(7.22626e-05 -0.0270455 0)
(0.000129452 -0.024357 0)
(6.58244e-05 -0.0264733 0)
(0.00121471 -0.0228835 0)
(8.58073e-06 -0.0230949 0)
(-0.00132067 -0.020409 0)
(-0.00161607 -0.0189345 0)
(0.000917937 -0.0149318 0)
(0.000392723 -0.0126163 0)
(0.000813906 -0.0146766 0)
(-0.000225192 -0.0247977 0)
(0.000418488 -0.0235511 0)
(0.000218785 -0.0213135 0)
(-0.000730303 -0.0242784 0)
(-0.00176162 -0.0161584 0)
(-0.000150801 -0.0278972 0)
(0.000644441 -0.017498 0)
(-0.000450813 -0.0187656 0)
(-9.79711e-11 -2.09391e-05 0)
(-8.05943e-11 -2.1269e-05 0)
(8.25379e-05 -2.39033e-05 0)
(7.54903e-05 -2.3702e-05 0)
(-0.00296468 -0.00273388 0)
(-0.00142632 -0.00177935 0)
(-0.00235476 -0.00222686 0)
(-0.00535128 -0.00398715 0)
(-6.62177e-11 -2.15205e-05 0)
(-0.00522489 -0.00402945 0)
(0.000123538 -0.000550122 0)
(-5.43511e-11 -2.1712e-05 0)
(-4.45779e-11 -2.18582e-05 0)
(-3.65432e-11 -2.19696e-05 0)
(-0.00297147 -0.00286207 0)
(-2.99487e-11 -2.20545e-05 0)
(-2.45442e-11 -2.21193e-05 0)
(-0.00021685 -0.000383315 0)
(-0.000537515 -0.00636965 0)
(0.000653136 -0.00333515 0)
(-0.00278539 -0.00119986 0)
(-0.00262669 -0.00346611 0)
(-0.00622055 -0.0030906 0)
(-0.00695442 -0.00343999 0)
(-0.00684495 -0.00333356 0)
(-0.00118909 -0.00730471 0)
(-0.00290538 -0.00599022 0)
(0.00389622 -0.00188346 0)
(-0.00264867 -0.0160703 0)
(-0.00106575 -0.0281939 0)
(-0.00247236 -0.0338647 0)
(0.00169116 -0.00729227 0)
(-0.00646067 -0.00690796 0)
(-0.000219789 -0.00141411 0)
(-0.000129467 0.00601213 0)
(-0.00468986 -0.0139145 0)
(0.00111493 -0.0281105 0)
(-4.81456e-05 -0.0281813 0)
(-0.00148393 -0.0298558 0)
(-0.00120713 -0.0272565 0)
(-0.000468109 -0.0232886 0)
(0.00294804 -0.0254563 0)
(-0.00159344 -0.0375191 0)
(-0.000980187 -0.0333216 0)
(-0.000486089 -0.0271953 0)
(-7.98767e-05 -0.024132 0)
(-0.000418384 -0.0235814 0)
(7.4496e-05 -0.0243212 0)
(0.00105509 -0.0238957 0)
(-0.000634895 -0.0209776 0)
(-0.000528236 -0.0240832 0)
(0.000327023 -0.0299022 0)
(-0.000320288 -0.0278331 0)
(-0.00034894 -0.0241564 0)
(0.000391889 -0.02394 0)
(0.0011255 -0.0222169 0)
(-0.000460153 -0.0256141 0)
(-0.000591938 -0.0268766 0)
(-0.0013043 -0.0301025 0)
(0.00118374 -0.0238945 0)
(-0.000387557 -0.0220327 0)
(0.000275411 -0.0204631 0)
(-0.00047849 -0.0263901 0)
(-0.0019791 -0.0261486 0)
(0.00158733 -0.031662 0)
(0.00285565 -0.0274634 0)
(0.00071887 -0.0290555 0)
(0.00129301 -0.0267447 0)
(0.000206599 -0.0301394 0)
(-0.00145788 -0.0224434 0)
(-0.00408665 -0.0234559 0)
(0.00194462 -0.0144562 0)
(-0.00295046 -0.0258379 0)
(-0.00318792 -0.0221682 0)
(-0.00344941 -0.0267935 0)
(2.60235e-12 -2.16475e-05 0)
(2.55813e-12 -2.16494e-05 0)
(1.64805e-06 -2.57866e-05 0)
(2.51467e-12 -2.16513e-05 0)
(-0.000193929 -0.000452397 0)
(-0.000508063 -0.0005309 0)
(4.07453e-06 -3.65865e-05 0)
(3.32292e-06 -3.32372e-05 0)
(-0.0014636 -0.000531332 0)
(2.19863e-06 -3.44941e-05 0)
(1.80671e-06 -3.16184e-05 0)
(-0.00169997 -0.000528077 0)
(4.76334e-07 -3.3436e-05 0)
(0.000753832 -0.000395215 0)
(-0.00171692 -0.00705322 0)
(-0.00140924 -0.0104959 0)
(-0.0014188 -0.00623931 0)
(-1.34019e-05 -0.000531976 0)
(-0.0020139 -0.000717385 0)
(-0.00864055 -0.00533532 0)
(-0.00206089 -0.00103751 0)
(-0.00252336 -0.00120527 0)
(-0.00812614 -0.00491226 0)
(-0.00712651 -0.00429215 0)
(-0.00862713 -0.00536915 0)
(-0.0013101 -0.00646372 0)
(-0.00168435 -0.00579616 0)
(-0.00197266 -0.00460755 0)
(-0.00767031 -0.00452145 0)
(-0.00367816 0.00094364 0)
(-0.00105593 -0.0076717 0)
(-0.0014402 -0.00934441 0)
(-0.00415715 -0.00598681 0)
(-0.00182791 -0.00404903 0)
(0.00695502 -0.00181136 0)
(-0.00129227 0.00212608 0)
(-0.000506893 -0.0053226 0)
(0.00258037 -0.000224067 0)
(0.000298188 -0.010273 0)
(0.00320269 -0.00643597 0)
(-0.00684107 -0.0186686 0)
(-0.000274011 -0.0362655 0)
(-0.000581122 -0.038952 0)
(-0.00168369 -0.037561 0)
(-0.00170426 -0.036655 0)
(-0.000450214 -0.0358245 0)
(-0.000484285 -0.0324134 0)
(0.00147163 -0.0364939 0)
(-3.55591e-07 -0.0282009 0)
(-0.000730325 -0.0267566 0)
(0.000816308 -0.0352292 0)
(-0.00156511 -0.0277994 0)
(-0.000334645 -0.0245699 0)
(-0.00185852 -0.0404292 0)
(-0.00124545 -0.0358908 0)
(-0.000821851 -0.0347928 0)
(-8.598e-05 -0.0311328 0)
(-0.00165151 -0.0308071 0)
(-0.00147724 -0.0363373 0)
(-8.0829e-05 -0.0271052 0)
(0.000426592 -0.0240319 0)
(0.00107621 -0.0275243 0)
(-0.000125275 -0.0332235 0)
(0.000931218 -0.0333683 0)
(0.00175365 -0.0289586 0)
(0.00186531 -0.0285554 0)
(-0.000492216 -0.0371735 0)
(-0.00203292 -0.0372684 0)
(-0.000435309 -0.0371539 0)
(-0.000803078 -0.0332749 0)
(0.000341576 -0.0343459 0)
(0.00192814 -0.0351666 0)
(0.00271292 -0.0349772 0)
(0.00267157 -0.0352203 0)
(0.000403706 -0.0336778 0)
(7.25968e-12 -2.15954e-05 0)
(7.04954e-12 -2.16012e-05 0)
(-0.00033844 -0.00240982 0)
(6.84547e-12 -2.16068e-05 0)
(-0.000137872 -0.00132496 0)
(-2.3493e-05 -9.32464e-05 0)
(-0.00192086 7.60127e-05 0)
(-1.80943e-05 -6.85232e-05 0)
(-1.43518e-05 -5.75964e-05 0)
(-1.13789e-05 -4.92168e-05 0)
(-0.00105939 -0.000736695 0)
(-0.00218251 -0.000829519 0)
(-0.00269178 -0.000943661 0)
(-0.00334778 -0.00105576 0)
(-0.00273459 -0.00776707 0)
(-0.0038371 -0.00116192 0)
(9.72803e-05 -0.00694676 0)
(-0.000683435 -0.00955989 0)
(-0.00136131 -0.00916932 0)
(-0.00336697 -0.00433313 0)
(-0.00236238 -0.00184106 0)
(0.00161482 -0.00612103 0)
(-0.0045531 -0.00140323 0)
(-0.00188446 -0.00324792 0)
(-0.00492445 -0.00152738 0)
(-0.00116729 -0.00373184 0)
(-5.96381e-05 0.00492607 0)
(0.000250412 -0.00402481 0)
(-0.000973747 -0.00375319 0)
(0.00343426 -0.0084211 0)
(-4.06861e-05 -0.00358822 0)
(-0.000398703 -0.00582549 0)
(-0.00127381 -0.00603483 0)
(0.00505811 -0.0103292 0)
(-0.00153184 -0.00103768 0)
(-0.000702124 -0.00486311 0)
(0.00231478 0.00142123 0)
(-0.000829432 0.00243663 0)
(-0.00292992 0.00170733 0)
(-0.0020326 -0.00115423 0)
(0.00489902 -0.00861712 0)
(0.0132548 -0.00877121 0)
(-0.01342 -0.00797327 0)
(0.00384016 -0.0121756 0)
(-0.00263274 -0.0263626 0)
(-0.00210997 -0.0308659 0)
(-0.00108612 -0.0397986 0)
(-0.0014745 -0.0412365 0)
(-0.0017962 -0.0416653 0)
(-0.00132554 -0.044544 0)
(-0.000527451 -0.0437975 0)
(-0.000679241 -0.0417994 0)
(-0.000334937 -0.0410069 0)
(0.000242747 -0.0389163 0)
(0.000128402 -0.0436034 0)
(0.00142676 -0.0414935 0)
(-0.000501246 -0.0412866 0)
(-0.000231857 -0.0406047 0)
(-0.000145964 -0.0408841 0)
(-0.00497635 -0.0343092 0)
(-0.00105915 -0.0387149 0)
(-0.000630079 -0.0368785 0)
(-0.000548294 -0.0393285 0)
(1.6315e-05 -0.0381589 0)
(-0.000455374 -0.0407912 0)
(-0.000396952 -0.0390773 0)
(5.14507e-05 -0.0393387 0)
(-0.00105816 -0.0360486 0)
(-0.000717213 -0.0399463 0)
(0.000326419 -0.0402771 0)
(0.00108255 -0.040741 0)
(-0.000508579 -0.0378441 0)
(0.000746262 -0.0402424 0)
(0.000175382 -0.0412689 0)
(0.000143004 -0.0408373 0)
(4.43426e-10 -1.84735e-05 0)
(8.60538e-10 -1.84863e-05 0)
(-1.9267e-05 -2.01075e-05 0)
(1.20302e-09 -1.84809e-05 0)
(-1.87007e-05 -2.01577e-05 0)
(-0.00171534 -0.00314909 0)
(-1.81513e-05 -2.02064e-05 0)
(-0.00119347 -0.00137538 0)
(8.6203e-05 -0.00346223 0)
(-0.00411569 -0.0143854 0)
(-4.79286e-05 -0.00306027 0)
(-0.000149862 -0.00269689 0)
(-0.000194293 -0.00239232 0)
(-0.000375261 -0.00209622 0)
(-0.000412377 -0.00186075 0)
(-0.000486318 -0.0016154 0)
(-0.000496281 -0.00138158 0)
(-0.000676012 -0.00127915 0)
(-0.00492602 -0.00635678 0)
(-0.00126635 -0.00961619 0)
(-0.000688861 -0.000935541 0)
(-0.000466415 -0.000602956 0)
(1.54837e-07 -8.58359e-06 0)
(0.000995344 -0.00683411 0)
(0.00106409 -0.00739162 0)
(0.00267929 -0.00709216 0)
(0.0024592 -0.00669016 0)
(0.00313005 -0.00466408 0)
(0.00424884 -0.00350059 0)
(0.00684344 -0.00141255 0)
(0.00348846 -0.00382314 0)
(0.00656495 -0.00124038 0)
(0.00690779 -0.00120774 0)
(0.00656454 -0.00454231 0)
(0.00483387 -0.00381096 0)
(0.00347514 0.00482715 0)
(0.00240185 -0.00304769 0)
(0.00238301 0.000608876 0)
(0.00360335 -0.000728428 0)
(-0.00063934 -0.00559018 0)
(0.00627447 5.94685e-05 0)
(0.00213409 -0.00842415 0)
(-0.000445668 0.00548783 0)
(-0.00208833 0.00379563 0)
(-0.00290968 -0.0334977 0)
(-0.00197763 -0.0369159 0)
(-0.00176597 -0.036252 0)
(-0.00207583 -0.0386469 0)
(-0.000987134 -0.0388696 0)
(-0.00075226 -0.0402626 0)
(-0.00147671 -0.0426569 0)
(-0.000378498 -0.0423223 0)
(-0.000284514 -0.0403771 0)
(-0.00140075 -0.0408137 0)
(-4.39212e-05 -0.0402613 0)
(-0.000957525 -0.0400506 0)
(-0.000164686 -0.0397306 0)
(1.07098e-05 -0.0410947 0)
(-0.000720784 -0.0416584 0)
(-0.00189858 -0.0390042 0)
(-0.000540594 -0.0382578 0)
(0.000181331 -0.0396355 0)
(-0.000497597 -0.0408656 0)
(0.000329341 -0.0413504 0)
(0.000404153 -0.0390834 0)
(0.000129816 -0.040332 0)
(-3.01189e-05 -0.0422715 0)
(0.000223899 -0.0427525 0)
(0.000342178 -0.0424517 0)
(0.00170002 -0.0396978 0)
(-0.000129689 -0.0401614 0)
(0.000889319 -0.0399689 0)
(2.86167e-05 -0.0366766 0)
(0.0008368 -0.0404286 0)
(0.00131378 -0.0379511 0)
(1.0171e-09 -1.86163e-05 0)
(1.9728e-09 -1.86327e-05 0)
(-0.000313627 -4.83247e-05 0)
(2.85764e-09 -1.86419e-05 0)
(0.00197308 -0.00100377 0)
(-0.000306041 -0.000132824 0)
(0.00287499 -0.00178023 0)
(-1.80631e-05 -2.77229e-06 0)
(0.000411576 -0.00386391 0)
(0.00132122 -0.00365199 0)
(0.0011517 -0.0037688 0)
(0.00107915 -0.00363283 0)
(0.00108081 -0.00347747 0)
(0.00237917 -0.00268261 0)
(0.00288697 -0.0041975 0)
(0.00289634 -0.0040475 0)
(0.0028746 -0.00400831 0)
(0.0027622 -0.00412613 0)
(0.00270788 -0.00399801 0)
(0.00257012 -0.00415288 0)
(0.00256516 -0.00416195 0)
(0.00253645 -0.00417126 0)
(0.00195353 -0.00356146 0)
(-1.76472e-05 -1.91906e-05 0)
(0.000439057 -0.00185634 0)
(0.00115078 -0.00215177 0)
(0.00260919 -0.00494542 0)
(0.00305421 -0.00553842 0)
(0.00229544 -0.00209657 0)
(0.00276246 -0.0047185 0)
(0.00349314 -0.00235855 0)
(-0.000471498 -0.00440845 0)
(0.00306207 -0.000507096 0)
(0.00434496 -0.00452601 0)
(0.00213422 -0.00116504 0)
(0.00390409 -0.00135771 0)
(0.0028907 0.00120233 0)
(0.00405431 -0.000595753 0)
(0.00214949 0.0033102 0)
(0.00131758 -0.00145529 0)
(-0.00184386 -0.00182455 0)
(-0.0048966 -0.0116588 0)
(-0.00147935 -0.0229968 0)
(-0.00239258 -0.0380069 0)
(-0.00240548 -0.0395859 0)
(6.95323e-05 -0.0379503 0)
(-0.000828237 -0.0385462 0)
(-0.000290419 -0.035739 0)
(0.000368241 -0.0325731 0)
(-0.00121272 -0.0346247 0)
(0.000633103 -0.0332885 0)
(0.000456799 -0.0326253 0)
(-0.000748762 -0.0346204 0)
(0.000287698 -0.0389284 0)
(-0.000376246 -0.0394435 0)
(-0.000464867 -0.0366173 0)
(0.000224621 -0.0379275 0)
(-0.000463845 -0.0403175 0)
(-0.00030491 -0.039801 0)
(-0.000588257 -0.037426 0)
(-7.88605e-05 -0.0376355 0)
(-0.000758628 -0.0389308 0)
(-1.33889e-05 -0.0399875 0)
(0.000527257 -0.04106 0)
(0.000386322 -0.0396865 0)
(-0.000162943 -0.0393208 0)
(0.000203197 -0.038524 0)
(-0.000436053 -0.0356246 0)
(0.000347107 -0.0341756 0)
(0.000806945 -0.0354356 0)
(6.34123e-06 -0.0355595 0)
(5.23864e-05 -0.0346211 0)
(-0.00112905 -0.0353247 0)
(-0.00211876 -0.0328515 0)
(-0.00345154 -0.036873 0)
(-1.64718e-06 -1.67059e-05 0)
(-1.59905e-06 -1.6762e-05 0)
(-4.58718e-05 -0.00279429 0)
(-1.55319e-06 -1.68662e-05 0)
(-1.83537e-05 -4.25819e-06 0)
(-1.73563e-05 -4.33992e-06 0)
(-1.65949e-05 -4.92069e-06 0)
(-9.21713e-05 -0.0015013 0)
(-1.6295e-05 -5.71814e-06 0)
(-0.000106293 -0.00268596 0)
(0.00202929 -0.0033523 0)
(0.00218574 -0.00324387 0)
(0.00223389 -0.00323419 0)
(0.00281292 -0.00347756 0)
(0.0039024 -0.0039182 0)
(0.00406546 -0.00308783 0)
(0.0040601 -0.00264234 0)
(0.00407777 -0.00230978 0)
(0.00379157 -0.00251605 0)
(0.00379693 -0.00230728 0)
(0.00403142 -0.00179519 0)
(0.00381741 -0.00198747 0)
(0.00364404 -0.00208931 0)
(0.00188438 -0.00274476 0)
(0.000838368 -0.00115069 0)
(0.00304895 -0.00277016 0)
(0.00172745 -0.00190783 0)
(-0.00761452 -0.00164031 0)
(0.0027247 -0.000245756 0)
(0.00313052 -0.00111033 0)
(0.00323625 -0.00417462 0)
(0.00589212 0.000552463 0)
(0.0033631 -0.000861132 0)
(0.0059759 -0.00488554 0)
(-0.00208228 -0.00036148 0)
(-0.000770987 -0.00135733 0)
(-0.000435138 0.00130284 0)
(0.000153217 -0.00108771 0)
(-0.0028289 -0.0031608 0)
(-0.00295785 -0.00249112 0)
(-0.00491521 -0.00245741 0)
(0.00252427 -0.00125452 0)
(-0.00598197 -0.00670078 0)
(-0.0122831 -0.0142556 0)
(-0.000516824 -0.0382231 0)
(-0.00114164 -0.0392606 0)
(-0.00147482 -0.0407253 0)
(-0.00106555 -0.0381534 0)
(-0.000730723 -0.0369259 0)
(-0.000806627 -0.0363365 0)
(-0.000529513 -0.0355444 0)
(-0.000406287 -0.0350907 0)
(0.00038564 -0.0350284 0)
(-0.000584826 -0.0379171 0)
(-0.000360892 -0.0372636 0)
(4.31581e-05 -0.0341623 0)
(0.000259559 -0.0324203 0)
(-0.00109437 -0.034907 0)
(-0.00118097 -0.0340145 0)
(-0.000585105 -0.0327459 0)
(-0.000738131 -0.0340392 0)
(-0.000868354 -0.0338256 0)
(0.000637235 -0.0367978 0)
(0.000262569 -0.0377073 0)
(-0.00124121 -0.0361984 0)
(-8.29872e-06 -0.0340912 0)
(0.0010441 -0.0324957 0)
(0.00047508 -0.0331623 0)
(-0.000413727 -0.0342689 0)
(0.001378 -0.0337477 0)
(-0.000503005 -0.0364857 0)
(-0.000313583 -0.035118 0)
(6.16677e-05 -0.037434 0)
(-0.000337714 -0.0385433 0)
(-0.00100168 -0.0381218 0)
(1.70669e-12 -2.16084e-05 0)
(1.66252e-12 -2.1613e-05 0)
(4.54154e-06 -4.12129e-06 0)
(1.6195e-12 -2.16175e-05 0)
(4.3757e-06 -3.98753e-06 0)
(0.00139913 -0.00157511 0)
(0.00134115 -0.000539726 0)
(0.0015481 -0.0015291 0)
(0.00151111 -0.00139009 0)
(0.00113371 -1.9852e-05 0)
(0.00202669 -0.00120076 0)
(0.0020223 -0.000939012 0)
(0.00197216 -0.00078074 0)
(0.00188504 -0.00464105 0)
(0.00168929 -0.00467243 0)
(0.00175839 -0.00454559 0)
(1.57758e-12 -2.16219e-05 0)
(-0.000802552 -0.00184116 0)
(0.00248388 -0.00281117 0)
(0.00178489 -0.00447523 0)
(0.00176817 -0.0043755 0)
(0.00191324 -0.00430619 0)
(0.00196313 -0.00433032 0)
(0.00349819 -0.00324965 0)
(6.65972e-05 -0.00211687 0)
(-0.00125602 -0.0027246 0)
(0.00482797 -0.00403789 0)
(1.0605e-11 -2.14716e-05 0)
(0.000913426 -0.00217079 0)
(0.000533674 0.000826461 0)
(-0.000314469 -0.000441533 0)
(0.000531225 -0.00343317 0)
(-0.000988154 -0.000108627 0)
(-0.000670829 0.00111195 0)
(0.000402203 -0.00229858 0)
(-0.000337891 -0.00301625 0)
(-0.0015518 -0.00464953 0)
(-0.00122875 -0.00463566 0)
(0.000400865 0.000386275 0)
(-0.00122138 -0.00196021 0)
(-0.00264582 -0.00427697 0)
(0.000423725 -0.00156269 0)
(-0.00210952 -0.00494816 0)
(-0.00144114 -0.0382165 0)
(-0.00216246 -0.0388903 0)
(-0.00177727 -0.0396354 0)
(-0.00124282 -0.0380125 0)
(-0.000734276 -0.0368915 0)
(-0.000381172 -0.0363097 0)
(-0.000496235 -0.0352736 0)
(0.000309947 -0.0341815 0)
(0.000462398 -0.0350525 0)
(0.000561818 -0.0348618 0)
(0.00057524 -0.035071 0)
(-6.17045e-06 -0.0354601 0)
(-0.000119039 -0.0356952 0)
(-0.00117355 -0.032471 0)
(-0.000535314 -0.0317814 0)
(-0.000583394 -0.0319704 0)
(-0.000310833 -0.0323149 0)
(-0.000665825 -0.0327084 0)
(-0.00109764 -0.0334477 0)
(-8.79171e-06 -0.0342622 0)
(-0.000430907 -0.0346821 0)
(-0.000886292 -0.0347246 0)
(-0.00056528 -0.0379157 0)
(0.000285457 -0.0390941 0)
(0.000469756 -0.0394568 0)
(0.00019514 -0.0383856 0)
(0.000289378 -0.0406195 0)
(6.942e-05 -0.0412041 0)
(-6.88506e-05 -0.041075 0)
(0.000221475 -0.041165 0)
(-8.72289e-05 -0.0414339 0)
(0.000394412 -0.0421947 0)
(2.88799e-07 -1.91627e-05 0)
(2.71874e-07 -1.93282e-05 0)
(-2.42393e-05 -9.49819e-06 0)
(2.55943e-07 -1.94835e-05 0)
(-0.000858854 -0.005823 0)
(-0.000115083 -0.00184213 0)
(0.0017265 -0.000613301 0)
(0.00110555 -0.00675577 0)
(0.00108558 -0.000817325 0)
(0.00151497 -0.00659458 0)
(0.00176224 -0.00644157 0)
(0.000917293 -0.00652622 0)
(0.00325712 -0.001744 0)
(0.0033285 -0.00169287 0)
(0.00240662 -0.00234505 0)
(0.00337334 -0.00124779 0)
(2.40946e-07 -1.96292e-05 0)
(2.26829e-07 -1.97661e-05 0)
(2.1354e-07 -1.98945e-05 0)
(2.0103e-07 -2.00151e-05 0)
(1.89253e-07 -2.01283e-05 0)
(1.78167e-07 -2.02345e-05 0)
(1.67731e-07 -2.03342e-05 0)
(-0.00123707 -0.00122647 0)
(0.000575681 -0.00204176 0)
(0.00067727 -0.0030587 0)
(0.000595514 -0.00174706 0)
(0.0009937 -0.00415718 0)
(0.00113931 -0.00434054 0)
(0.00012811 0.000728666 0)
(-0.00383581 -0.00715575 0)
(0.000877922 -0.003094 0)
(0.000311177 -0.00273293 0)
(0.00267458 -0.00747047 0)
(-0.00190042 -0.00430891 0)
(-0.00214932 -0.00404813 0)
(0.000731712 -0.00537078 0)
(-0.000602881 -0.00586966 0)
(-0.000936616 -0.00565741 0)
(2.56952e-05 -0.00418743 0)
(0.000266825 -0.00612423 0)
(0.00159018 -0.00176178 0)
(0.0031288 -0.0356439 0)
(-0.00374935 -0.0377916 0)
(-0.00274245 -0.0383926 0)
(-0.00250124 -0.0360897 0)
(-0.000998823 -0.0364293 0)
(-6.49864e-05 -0.035337 0)
(-2.30197e-05 -0.0349595 0)
(0.000482703 -0.0331741 0)
(-0.000572724 -0.0321479 0)
(-0.00128793 -0.0292802 0)
(2.71537e-05 -0.030947 0)
(0.000295141 -0.0318843 0)
(0.00089296 -0.0307667 0)
(0.00046795 -0.0319478 0)
(-0.0010602 -0.0318526 0)
(-0.000790474 -0.0318166 0)
(-0.000253263 -0.0324041 0)
(0.000640486 -0.0326044 0)
(0.00102879 -0.0345448 0)
(0.000390477 -0.0353331 0)
(-0.000350678 -0.034941 0)
(-0.000329311 -0.0375791 0)
(0.000368146 -0.0411084 0)
(0.000153632 -0.040138 0)
(0.000466477 -0.0383787 0)
(-0.000186375 -0.0412789 0)
(0.00182253 -0.0426271 0)
(0.00115769 -0.0432595 0)
(0.000421446 -0.0440297 0)
(-6.0236e-05 -0.0430924 0)
(0.000731451 -0.0427165 0)
(0.00011178 -0.0445537 0)
(-0.000405121 -0.0460885 0)
(1.27085e-11 -2.15241e-05 0)
(1.21346e-11 -2.15387e-05 0)
(-0.000554342 7.44014e-05 0)
(1.15866e-11 -2.15526e-05 0)
(-0.000510059 -1.48772e-06 0)
(-3.49977e-05 -1.25611e-06 0)
(0.000890344 -0.00436607 0)
(0.000532473 -0.00109157 0)
(0.00128952 -0.00550005 0)
(0.00108411 -0.00464874 0)
(0.00127988 -0.00579489 0)
(0.000458661 -0.00136657 0)
(0.0012787 -0.0051635 0)
(0.000954381 -0.00517889 0)
(1.10633e-11 -2.15658e-05 0)
(1.05034e-11 -2.13437e-05 0)
(1.00865e-11 -2.15922e-05 0)
(0.00105211 -0.0023501 0)
(0.000175822 -0.00209333 0)
(-2.39683e-06 -2.21381e-05 0)
(0.00059652 -0.00295366 0)
(0.00147129 -0.00574328 0)
(0.00168868 -0.00657345 0)
(0.0028861 -0.00621659 0)
(0.00014395 -0.00417528 0)
(-6.1867e-05 -0.0042845 0)
(-3.57809e-05 -0.00148659 0)
(-0.00233414 -0.00190109 0)
(-0.00361491 -0.00521834 0)
(-0.000581672 -0.00635268 0)
(-0.000374309 -0.0066567 0)
(-0.00217016 -4.37022e-05 0)
(-0.00081933 0.000521398 0)
(-0.00621749 -0.00276635 0)
(-0.00518601 -0.0110209 0)
(0.00374657 -0.00890952 0)
(-0.000619689 -0.00426386 0)
(-0.000572993 -0.00325379 0)
(-0.000733841 -0.00552491 0)
(-0.00126147 8.59534e-05 0)
(-0.000166637 -0.0076672 0)
(0.00245851 -0.00506883 0)
(0.000182707 -0.00566876 0)
(-0.000844462 -0.00787623 0)
(-0.00401532 -0.037661 0)
(-0.00401917 -0.0355101 0)
(-0.00454665 -0.0363756 0)
(-0.0024242 -0.0357342 0)
(-0.00291044 -0.036061 0)
(-0.000922599 -0.0347051 0)
(-0.00105261 -0.0341649 0)
(6.92405e-05 -0.0333529 0)
(0.000168151 -0.0305304 0)
(-0.000351224 -0.0326295 0)
(-0.000247008 -0.0390146 0)
(0.000983359 -0.0388801 0)
(0.000802821 -0.0380106 0)
(0.000273132 -0.0385724 0)
(0.000277846 -0.0393392 0)
(0.000513713 -0.0413672 0)
(0.000270508 -0.0396831 0)
(-0.000334115 -0.0396752 0)
(0.000892242 -0.0445272 0)
(0.00182547 -0.0459209 0)
(0.00155893 -0.0446957 0)
(0.000736532 -0.0472022 0)
(0.000208304 -0.0436744 0)
(0.00178356 -0.0396635 0)
(-0.000461153 -0.0485964 0)
(0.00134666 -0.0448294 0)
(0.000938771 -0.0439769 0)
(-0.000185385 -0.046384 0)
(0.000204238 -0.0456434 0)
(0.000625282 -0.0447969 0)
(-1.7687e-05 -0.0447835 0)
(2.25021e-12 -2.15808e-05 0)
(2.17768e-12 -2.15881e-05 0)
(0.000116786 -0.00135818 0)
(2.10749e-12 -2.15951e-05 0)
(0.000639136 -0.00188358 0)
(0.00246784 -0.00532701 0)
(-0.000417161 -0.0035025 0)
(0.00121211 -0.00224311 0)
(-0.000365132 -0.00404589 0)
(-0.000637837 -0.00405478 0)
(0.000671809 -0.00193319 0)
(0.00146723 -0.00422432 0)
(-4.79849e-05 -0.00363929 0)
(2.03955e-12 -2.16018e-05 0)
(1.9738e-12 -2.16084e-05 0)
(-0.000537874 -0.00259177 0)
(-9.91027e-05 -0.00236308 0)
(0.000551377 -0.00399898 0)
(0.000480125 -0.00374111 0)
(0.00058089 -0.0037644 0)
(-0.00113666 -0.00313442 0)
(0.000332212 -0.00279741 0)
(0.000326456 -0.00256381 0)
(0.000256556 -0.00357572 0)
(0.000304608 -0.00363005 0)
(-0.00284716 -0.00424401 0)
(-0.00271709 -0.00201576 0)
(3.27751e-05 -0.0022155 0)
(-0.00271748 -0.00240678 0)
(-0.00082756 -0.00618216 0)
(-0.000472348 -0.0043392 0)
(-0.0032928 -0.00761921 0)
(0.000197701 -0.00140349 0)
(3.32463e-06 -0.00555737 0)
(-0.000726516 0.000272408 0)
(-0.00116352 -0.00436115 0)
(-0.00149225 -0.00417716 0)
(-0.00135343 -0.00310455 0)
(-0.00142534 -0.00430982 0)
(-0.000917708 -0.0064893 0)
(-0.000124009 -0.00884767 0)
(-0.00113007 -0.00939325 0)
(-0.00184321 -0.0165541 0)
(-0.00312783 -0.0335337 0)
(-0.00391104 -0.0383301 0)
(-0.00435634 -0.0349328 0)
(-0.00258638 -0.0341645 0)
(-0.00476394 -0.0346024 0)
(-0.00414884 -0.0358441 0)
(-0.00548035 -0.0364634 0)
(-0.00389778 -0.0360023 0)
(-0.00209702 -0.0411959 0)
(-0.00246596 -0.0408506 0)
(-0.00198095 -0.0439825 0)
(-0.0026149 -0.0435647 0)
(-0.000396603 -0.0446155 0)
(-0.000417649 -0.0476842 0)
(-0.000559219 -0.0480792 0)
(-0.000777906 -0.0473804 0)
(-0.000348519 -0.0445518 0)
(-0.000407307 -0.0459192 0)
(0.00031953 -0.0440613 0)
(0.000899711 -0.0485276 0)
(0.00149347 -0.0441516 0)
(0.00318974 -0.0478724 0)
(0.00131992 -0.0470399 0)
(0.00314554 -0.0438263 0)
(-0.000383765 -0.0464685 0)
(-0.00109046 -0.0478783 0)
(-0.000599787 -0.0463841 0)
(0.000765926 -0.0459773 0)
(0.000246093 -0.0450851 0)
(0.000198438 -0.0440334 0)
(0.000128066 -0.0434627 0)
(0.000118573 -0.0433608 0)
(1.12177e-12 -2.16199e-05 0)
(1.09565e-12 -2.16236e-05 0)
(-0.000453327 -0.000325256 0)
(1.07014e-12 -2.16272e-05 0)
(-0.00134551 -0.00167514 0)
(-0.00143038 -0.00185516 0)
(-0.0018652 -0.00216014 0)
(-0.00299686 -0.00312976 0)
(-0.000215191 -0.001713 0)
(-0.000309175 -0.00424684 0)
(-0.00173061 -0.00302288 0)
(-0.00198893 -0.00117723 0)
(-0.000288596 -0.00584294 0)
(-0.00128875 -0.00129005 0)
(-1.28913e-06 -2.13532e-05 0)
(0.00172339 -0.00145542 0)
(0.000545423 -0.00198877 0)
(-0.000240897 -0.0014721 0)
(0.00141638 -0.00862771 0)
(0.00137597 -0.00584513 0)
(0.00128816 -0.00407222 0)
(0.000989822 -0.00337115 0)
(0.000557618 -0.00449814 0)
(0.000863747 -0.00728366 0)
(0.000832256 -0.0072035 0)
(0.000807039 -0.00712864 0)
(0.00022626 0.000537896 0)
(0.000274938 -0.000747927 0)
(-0.000271139 -0.00174708 0)
(0.00112121 -0.000200121 0)
(-0.000290063 -0.00228669 0)
(-0.00233177 -0.00643239 0)
(-0.00338171 -0.00715634 0)
(-0.00331717 -0.00264654 0)
(-0.00296126 -0.00580357 0)
(-0.00168288 -0.00761272 0)
(-0.00133584 -0.00572409 0)
(-0.00101703 -0.0060862 0)
(-0.000141946 -0.00704878 0)
(-0.00354846 -0.0111562 0)
(-0.00010109 -0.00810718 0)
(-0.0025098 -0.0112192 0)
(-0.00226004 -0.00910207 0)
(-0.00136368 -0.0134778 0)
(-0.00176283 -0.0208879 0)
(0.000250258 -0.0360233 0)
(-0.00207052 -0.0365191 0)
(-0.00390201 -0.0377438 0)
(-0.00224637 -0.0379384 0)
(-0.00270691 -0.0395247 0)
(-0.00235119 -0.0433753 0)
(-0.000932162 -0.0445583 0)
(-0.000655953 -0.0454601 0)
(-0.00113687 -0.0441413 0)
(-0.000858839 -0.0446378 0)
(-0.00129188 -0.04658 0)
(-0.00062715 -0.0481105 0)
(-0.000839894 -0.0484236 0)
(-0.000880011 -0.0478438 0)
(-0.00130297 -0.0466577 0)
(-0.000373854 -0.0473215 0)
(-1.38541e-05 -0.0476152 0)
(0.000158835 -0.0495548 0)
(0.000530761 -0.047844 0)
(0.00399262 -0.0474549 0)
(0.00104125 -0.0471955 0)
(-0.00110041 -0.04236 0)
(-0.000151153 -0.0441104 0)
(-0.000242203 -0.0447746 0)
(1.94795e-05 -0.0451752 0)
(0.000296028 -0.0438421 0)
(-0.000146237 -0.0428903 0)
(-0.000132436 -0.0425916 0)
(-0.00010686 -0.0416982 0)
(0.000881366 -0.0416723 0)
(5.00818e-12 -2.15808e-05 0)
(4.84661e-12 -2.15881e-05 0)
(0.000544623 -0.000106095 0)
(4.69024e-12 -2.15951e-05 0)
(-0.000815008 -0.000552983 0)
(-0.000804415 -0.00054072 0)
(0.000873125 -0.00700615 0)
(0.000416011 -0.00552887 0)
(0.000865701 -0.00684274 0)
(-0.00078984 -0.000629957 0)
(0.000888811 -0.00683222 0)
(0.000876185 -0.00670418 0)
(4.529e-12 -2.15058e-05 0)
(4.39232e-12 -2.16075e-05 0)
(-0.00139439 -0.00331923 0)
(-0.00166212 -0.00390825 0)
(-0.000833743 -0.00534056 0)
(-0.00183053 -0.00462487 0)
(0.00083601 -0.00761589 0)
(0.000631042 -0.00686171 0)
(0.000438797 -0.00612636 0)
(0.000514119 -0.00588322 0)
(0.000335106 -0.00533357 0)
(0.000345573 -0.00480135 0)
(-0.00017274 -0.00752114 0)
(-0.000579782 -0.00342701 0)
(4.71379e-05 -0.00664327 0)
(-0.000797974 -0.00256798 0)
(-0.000752024 -0.00566545 0)
(0.00323558 -0.00195055 0)
(-0.000905865 0.00112729 0)
(0.00151228 -0.00246432 0)
(-0.00192968 -0.00199879 0)
(-0.000735641 0.00159322 0)
(-0.00320736 -0.0040522 0)
(4.7354e-05 0.00357888 0)
(0.0014295 -0.00359914 0)
(0.00162519 -0.00259227 0)
(-0.00102212 -0.00451892 0)
(-0.000676244 -0.004775 0)
(-0.000651951 -0.00475943 0)
(0.00265026 -0.00745812 0)
(-0.000820939 -0.00704583 0)
(-0.00227128 -0.0135157 0)
(0.000165463 -0.00901017 0)
(-0.000421778 -0.0152347 0)
(0.00151096 -0.0143117 0)
(0.00351676 -0.0376267 0)
(0.00103234 -0.0426475 0)
(-0.000910577 -0.0415554 0)
(0.00056841 -0.0449651 0)
(0.000457102 -0.0445975 0)
(-0.000993832 -0.0438196 0)
(-0.00125577 -0.0420637 0)
(-0.00145553 -0.0432513 0)
(-0.000722312 -0.0460736 0)
(-0.000229566 -0.0453793 0)
(0.000391025 -0.0454803 0)
(-0.000486391 -0.0448339 0)
(-0.00109087 -0.0468962 0)
(-0.00134954 -0.047814 0)
(-0.000539424 -0.0481143 0)
(0.000800382 -0.0466231 0)
(0.000369934 -0.0457943 0)
(-0.000758214 -0.0407755 0)
(-0.000279496 -0.0396885 0)
(-0.000428091 -0.0396296 0)
(0.000688812 -0.0406045 0)
(-0.00041683 -0.0380415 0)
(-0.000757138 -0.0377303 0)
(-0.000448974 -0.0372576 0)
(-0.000773932 -0.0360987 0)
(-0.000218393 -0.03662 0)
(0.000194529 -0.0374416 0)
(0.000787683 -0.0338218 0)
(4.78481e-12 -2.15808e-05 0)
(4.63015e-12 -2.15881e-05 0)
(-0.000460813 -0.000478362 0)
(4.48048e-12 -2.1595e-05 0)
(-0.000474235 -0.000435232 0)
(0.000455978 -0.0050984 0)
(0.00318011 -0.00360757 0)
(0.00213444 -0.00529282 0)
(0.000517477 -0.00438471 0)
(0.000965174 -0.00666871 0)
(-0.000819024 -0.00481458 0)
(0.00017489 -0.0073318 0)
(4.33564e-12 -2.16018e-05 0)
(0.000352696 -0.0018074 0)
(-0.00188451 -0.00323134 0)
(-0.00202849 -0.00316223 0)
(-0.0028637 -0.00589322 0)
(-0.000262138 -0.0043404 0)
(-0.000884926 -0.00364312 0)
(-0.000831536 -0.00327156 0)
(-0.00220275 -0.00323178 0)
(-0.000971141 -0.00259738 0)
(-0.00221232 -0.00260737 0)
(-0.000824195 -0.0022014 0)
(-0.00254197 -0.00225396 0)
(-0.00139041 -0.00752791 0)
(-0.00167222 -0.00520262 0)
(-0.000704469 -0.00692055 0)
(-0.000165584 0.000694047 0)
(-0.0124168 -0.00688781 0)
(0.000997995 -0.00201705 0)
(-0.000136699 -0.00463221 0)
(4.42181e-05 -0.00161076 0)
(-0.00117207 -0.00355275 0)
(-0.0004983 -0.00170193 0)
(-0.000182608 0.00216171 0)
(0.000445652 0.00270399 0)
(-0.00625712 -0.00714218 0)
(0.00314369 -0.00596289 0)
(0.00213043 -0.00490136 0)
(0.000915894 -0.000864121 0)
(0.00533177 -0.00686231 0)
(0.00652109 -0.00575789 0)
(-0.00385717 -0.00753554 0)
(-0.00670762 -0.0161547 0)
(0.00244776 -0.0363291 0)
(-0.000529114 -0.0395228 0)
(-0.00175728 -0.0408641 0)
(-0.000447997 -0.0429185 0)
(0.000358585 -0.0424939 0)
(-0.000264393 -0.0404928 0)
(-8.74831e-06 -0.0405348 0)
(-9.03531e-05 -0.038896 0)
(0.000495547 -0.0392227 0)
(-0.000102079 -0.0409635 0)
(-0.000172886 -0.0429253 0)
(-0.000165679 -0.043577 0)
(-0.000394862 -0.0433703 0)
(-0.0006658 -0.044055 0)
(-0.00040232 -0.0437361 0)
(-0.000123433 -0.0454314 0)
(0.000541271 -0.046478 0)
(-5.27263e-05 -0.0389707 0)
(0.000135497 -0.0393751 0)
(0.000357104 -0.0387788 0)
(-0.000981809 -0.038244 0)
(-0.000233878 -0.0374917 0)
(0.000124084 -0.0302953 0)
(-0.000686636 -0.0338115 0)
(-7.82963e-05 -0.032653 0)
(-0.000149171 -0.0328263 0)
(-0.0011424 -0.034581 0)
(-8.9001e-05 -0.0350458 0)
(0.000570177 -0.0355709 0)
(0.000173039 -0.036741 0)
(-2.65505e-11 -2.15839e-05 0)
(-2.56932e-11 -2.15909e-05 0)
(-0.000268328 -0.000170786 0)
(-2.48635e-11 -2.15977e-05 0)
(-0.000297393 -0.00768385 0)
(-0.000259159 -6.35847e-05 0)
(-0.0010805 -0.001359 0)
(-0.000596165 -0.00155898 0)
(0.00053545 -0.00315416 0)
(-0.000284348 -0.000363182 0)
(-0.000576298 -0.00188606 0)
(-0.00137206 -0.00148726 0)
(-2.40607e-11 -2.16042e-05 0)
(-2.32837e-11 -2.16105e-05 0)
(-2.25318e-11 -2.16166e-05 0)