/*--------------------------------*- C++ -*----------------------------------*\
  =========                 |
  \\      /  F ield         | OpenFOAM: The Open Source CFD Toolbox
   \\    /   O peration     | Website:  https://openfoam.org
    \\  /    A nd           | Version:  12
     \\/     M anipulation  |
\*---------------------------------------------------------------------------*/
FoamFile
{
    format      ascii;
    class       IOPosition;
    location    "0.5/lagrangian/cloud";
    object      positions;
}
// * * * * * * * * * * * * * * * * * * * * * * * * * * * * * * * * * * * * * //

2553
(
(0.630431 0.184785 0.161701 0.0230834) 1 3 2
(0.216255 0.0912992 0.300573 0.391873) 2 5 1
(0.0746715 0.0735964 0.462664 0.389068) 3 6 2
(0.0901865 0.0684767 0.38643 0.454907) 5 8 2
(0.220566 0.389717 0.0364915 0.353226) 6 13 2
(0.247742 0.376129 0.0721931 0.303936) 7 15 2
(0.143496 0.428252 0.282839 0.145413) 8 17 2
(0.407834 0.296083 0.266381 0.0297019) 8 16 1
(0.553131 0.109993 0.223434 0.113441) 9 7384 2
(0.4744 0.2628 0.0312318 0.231568) 10 7385 1
(0.206835 0.396583 0.212549 0.184033) 11 23 2
(0.252895 0.373552 0.243903 0.129649) 12 25 2
(0.364944 0.317528 0.0378981 0.27963) 13 27 2
(0.152845 0.148747 0.27483 0.423577) 14 26 2
(0.436944 0.0129236 0.268605 0.281528) 14 29 1
(0.47872 0.26064 0.257611 0.00302923) 15 31 2
(0.0834568 0.458272 0.170577 0.287695) 16 30 1
(0.317871 0.341065 0.25405 0.0870151) 16 32 1
(0.430855 0.0502782 0.284573 0.234294) 17 7392 2
(0.370027 0.0319475 0.314986 0.283039) 18 7393 2
(0.19508 0.382616 0.0198443 0.40246) 19 39 1
(0.284207 0.357897 0.322057 0.0358399) 20 41 2
(0.263242 0.368379 0.36229 0.00608922) 21 43 2
(0.23799 0.299694 0.0813109 0.381005) 22 45 1
(0.260838 0.265423 0.104158 0.369581) 23 47 1
(0.349516 0.325242 0.228485 0.0967565) 24 49 2
(0.419897 0.290051 0.0470143 0.243037) 25 51 2
(0.097044 0.164893 0.286585 0.451478) 26 50 2
(0.242556 0.378722 0.277293 0.101429) 26 52 1
(0.424554 0.287723 0.24479 0.0429334) 27 54 1
(0.435876 0.036354 0.282062 0.245708) 28 7403 2
(0.387275 0.0381244 0.306362 0.268238) 29 7404 2
(0.474957 0.213735 0.262522 0.0487869) 31 7406 2
(0.0629131 0.43009 0.468543 0.0384533) 32 64 2
(0.244854 0.164339 0.213234 0.377573) 33 67 1
(0.388585 0.203701 0.102007 0.305707) 34 69 1
(0.592792 0.0890196 0.114584 0.203604) 35 71 1
(0.494556 0.252722 0.237776 0.0149457) 36 72 1
(0.0788318 0.460584 0.153739 0.306845) 38 74 1
(0.141469 0.429266 0.116235 0.31303) 39 76 1
(0.663261 0.0727108 0.16837 0.0956588) 40 7415 2
(0.237952 0.381024 0.218969 0.162056) 41 83 2
(0.277904 0.361048 0.113931 0.247117) 42 85 2
(0.192475 0.403763 0.157401 0.246361) 44 86 1
(0.0793412 0.460329 0.289087 0.171242) 119 89 2
(0.202188 0.135174 0.263732 0.398906) 45 88 2
(0.325956 0.110409 0.337022 0.226613) 45 90 2
(0.173019 0.413491 0.265647 0.147844) 46 92 1
(0.162775 0.418613 0.289141 0.129472) 47 95 2
(0.362412 0.0361958 0.282598 0.318794) 48 94 2
(0.0747293 0.219863 0.242773 0.462635) 49 96 2
(0.0505829 0.198667 0.474709 0.276041) 49 98 2
(0.191177 0.150447 0.404411 0.253965) 50 100 2
(0.400545 0.299727 0.108133 0.191595) 52 7427 1
(0.379716 0.160245 0.310142 0.149897) 53 7428 2
(0.364561 0.0333342 0.31772 0.284385) 54 7429 2
(0.0293406 0.48533 0.202574 0.282755) 55 110 1
(0.222934 0.159587 0.228945 0.388533) 56 113 1
(0.245992 0.193248 0.183756 0.377004) 57 115 1
(0.0509728 0.0780322 0.396481 0.474514) 75 15076 1
(0.251504 0.00919464 0.374248 0.365053) 75 149 2
(0.263273 0.0285528 0.339811 0.368364) 76 152 1
(0.21548 0.39226 0.237495 0.154765) 78 156 2
(0.102955 0.075612 0.37291 0.448522) 80 157 2
(0.46824 0.229893 0.035987 0.26588) 81 162 1
(0.22546 0.38727 0.024382 0.362888) 156 162 2
(0.337036 0.331482 0.300052 0.0314302) 82 164 2
(0.324223 0.337889 0.126624 0.211264) 83 166 2
(0.00568894 0.206445 0.497156 0.290711) 83 165 2
(0.21844 0.19718 0.39078 0.1936) 84 167 2
(0.581478 0.0777269 0.209261 0.131534) 88 27 1
(0.801554 0.0992232 0.0625135 0.0367097) 89 177 1
(0.497566 0.17685 0.251217 0.0743672) 90 31 1
(0.438687 0.280657 0.130908 0.149748) 91 33 2
(0.24427 0.377865 0.355109 0.0227556) 92 35 2
(0.305296 0.347352 0.185066 0.162287) 92 184 2
(0.359364 0.230772 0.320318 0.0895458) 167 184 1
(0.0282262 0.0553104 0.430576 0.485887) 93 183 2
(0.155375 0.3292 0.0931123 0.422313) 93 186 1
(0.206007 0.0133556 0.383641 0.396997) 94 185 2
(0.214993 0.128256 0.264248 0.392504) 94 188 1
(0.284727 0.344257 0.0133796 0.357637) 95 190 1
(0.472186 0.263907 0.227145 0.0367625) 96 192 2
(0.179947 0.410027 0.2245 0.185527) 99 197 1
(0.260975 0.369513 0.0821533 0.287359) 101 199 1
(0.103482 0.448259 0.100909 0.34735) 102 201 1
(0.110148 0.444926 0.069845 0.375081) 103 203 1
(0.214346 0.392827 0.327171 0.0656561) 104 59 2
(0.0269928 0.486504 0.000456858 0.486047) 31 63 2
(0.114657 0.0774991 0.365173 0.442672) 105 207 2
(0.268624 0.00327252 0.362415 0.365688) 105 210 1
(0.283947 0.232605 0.125422 0.358027) 106 212 1
(0.555647 0.222177 0.0132098 0.208967) 109 69 2
(0.281528 0.359236 0.291036 0.0681998) 110 219 1
(0.000393083 0.499803 0.0284433 0.47136) 112 75 2
(0.0919248 0.0794797 0.374558 0.454038) 110 220 1
(0.113967 0.443017 0.303515 0.139501) 111 222 2
(0.239673 0.0259683 0.354195 0.380164) 111 222 1
(0.239907 0.380046 0.184415 0.195632) 112 224 2
(0.211682 0.115902 0.278257 0.394159) 112 224 1
(0.30485 0.347575 0.151239 0.196336) 113 226 2
(0.142448 0.0617317 0.367044 0.428776) 114 225 2
(0.434573 0.191424 0.0912899 0.282714) 115 230 1
(0.601663 0.199168 0.0936199 0.105549) 118 233 1
(0.527439 0.0253201 0.236281 0.21096) 119 89 1
(0.116081 0.44196 0.111718 0.330241) 121 239 1
(0.52949 0.235255 0.0185457 0.216709) 122 241 1
(0.446129 0.276936 0.136915 0.140021) 123 97 2
(0.440938 0.279531 0.113943 0.165588) 124 99 2
(0.425192 0.287404 0.0723092 0.215095) 125 101 2
(0.191613 0.162445 0.404193 0.241749) 126 103 1
(0.337774 0.331113 0.238699 0.0924141) 127 105 2
(0.378835 0.310582 0.0108137 0.299769) 200 250 2
(0.478535 0.260733 0.255397 0.00533562) 201 252 2
(0.238512 0.0324882 0.380744 0.348256) 150 298 2
(0.257548 0.195872 0.175354 0.371226) 151 301 1
(0.316787 0.341607 0.313314 0.0282921) 152 303 2
(0.258572 0.370714 0.181192 0.189521) 153 305 2
(0.255117 0.372441 0.296843 0.0755986) 154 307 2
(0.0922141 0.0399973 0.453893 0.413896) 155 308 2
(0.26225 0.0107359 0.368875 0.358139) 156 310 2
(0.344031 0.327984 0.0222975 0.305687) 159 168 2
(0.216101 0.247293 0.39195 0.144657) 160 170 1
(0.113745 0.443128 0.221116 0.222011) 87 174 2
(0.303932 0.348034 0.27971 0.0683238) 161 321 2
(0.273393 0.363304 0.00604429 0.357259) 162 323 2
(0.343458 0.107255 0.221016 0.328271) 162 323 1
(0.390139 0.187431 0.117499 0.304931) 163 325 1
(0.309347 0.0381891 0.307138 0.345327) 164 327 1
(0.257949 0.371026 0.295244 0.0757812) 166 331 2
(0.0488979 0.379153 0.0963976 0.475551) 167 333 1
(0.101663 0.39712 0.0520483 0.449168) 168 335 1
(0.193894 0.334814 0.0682394 0.403053) 169 337 1
(0.37524 0.31238 0.0232649 0.289115) 171 338 1
(0.250359 0.374821 0.218057 0.156764) 172 194 2
(0.200106 0.399947 0.20587 0.194077) 173 196 2
(0.256505 0.371747 0.125002 0.246745) 174 198 2
(0.246959 0.376521 0.0269152 0.349606) 175 200 2
(0.255833 0.327557 0.372084 0.0445265) 176 202 1
(0.11408 0.44296 0.41499 0.0279696) 177 352 1
(0.0585585 0.199147 0.271574 0.470721) 177 353 1
(0.298977 0.350511 0.338309 0.0122026) 178 355 2
(0.249539 0.375231 0.0122356 0.362995) 179 357 2
(0.222443 0.106219 0.282559 0.388778) 179 357 1
(0.220409 0.389795 0.346973 0.0428228) 180 359 2
(0.208385 0.0138138 0.381994 0.395807) 181 358 2
(0.31138 0.0719697 0.272341 0.34431) 181 361 1
(0.316323 0.277143 0.0646949 0.341838) 182 363 1
(0.263191 0.354699 0.0137054 0.368404) 183 365 1
(0.0721754 0.0244285 0.463912 0.439484) 184 366 2
(0.128493 0.0317811 0.403972 0.435753) 186 368 2
(0.195626 0.0362567 0.36593 0.402187) 187 370 2
(0.359835 0.00466862 0.315414 0.320083) 188 372 2
(0.42022 0.28989 0.21613 0.0737603) 189 377 2
(0.291697 0.354151 0.232384 0.121767) 190 379 2
(0.287035 0.356482 0.170484 0.185999) 191 381 2
(0.296072 0.16612 0.351964 0.185844) 192 234 1
(0.249628 0.109468 0.375186 0.265718) 193 236 1
(0.2375 0.141059 0.38125 0.240191) 194 238 1
(0.202077 0.398962 0.383621 0.0153401) 195 388 1
(0.0305577 0.190354 0.294367 0.484721) 195 389 1
(0.335955 0.332022 0.228639 0.103383) 196 391 2
(0.248625 0.375687 0.238475 0.137213) 197 244 2
(0.293224 0.353388 0.315516 0.0378717) 198 246 2
(0.233024 0.383488 0.037089 0.346399) 199 394 1
(0.0649047 0.467548 0.423796 0.0437518) 225 448 2
(0.172964 0.0392325 0.413518 0.374286) 225 447 2
(0.215441 0.304098 0.0881817 0.392279) 226 450 1
(0.227288 0.386356 0.224225 0.162131) 227 452 2
(0.256282 0.371859 0.0803018 0.291557) 228 454 2
(0.211275 0.394362 0.131234 0.263128) 229 456 2
(0.429961 0.256211 0.0288085 0.28502) 230 458 1
(0.29694 0.35153 0.0809201 0.27061) 232 313 2
(0.159252 0.420374 0.0326473 0.387727) 233 315 2
(0.159508 0.35482 0.420246 0.0654256) 234 317 1
(0.478041 0.26098 0.104681 0.156299) 235 468 2
(0.413158 0.293421 0.118483 0.174938) 236 470 2
(0.416229 0.291886 0.250591 0.0412949) 238 325 2
(0.574252 0.0548947 0.212874 0.157979) 239 327 1
(0.174375 0.412813 0.162676 0.250136) 240 477 1
(0.530021 0.23499 0.184821 0.0501688) 242 479 1
(0.159708 0.0462742 0.373872 0.420146) 243 481 2
(0.189713 0.405143 0.250217 0.154926) 244 486 2
(0.260597 0.30919 0.369701 0.0605116) 245 339 1
(0.228731 0.326268 0.385634 0.059366) 246 341 1
(0.226309 0.321501 0.386846 0.0653448) 247 343 1
(0.246106 0.335238 0.376947 0.0417096) 248 345 1
(0.254514 0.367253 0.372743 0.0054902) 249 347 1
(0.304723 0.279834 0.347639 0.0678044) 250 349 1
(0.0770838 0.00472669 0.456731 0.461458) 250 498 1
(0.225123 0.211073 0.176365 0.387438) 251 500 1
(0.189863 0.405068 0.208147 0.196922) 252 502 2
(0.0901078 0.103801 0.454946 0.351145) 252 501 2
(0.0657265 0.103016 0.467137 0.36412) 253 503 2
(0.181959 0.0505028 0.358518 0.40902) 254 506 1
(0.243189 0.13544 0.242966 0.378405) 255 508 1
(0.22649 0.236184 0.150571 0.386755) 256 510 1
(0.271768 0.274848 0.0892683 0.364116) 257 512 1
(0.302329 0.322483 0.0263524 0.348836) 258 514 1
(0.0862613 0.118312 0.338558 0.456869) 259 516 1
(0.271185 0.0244418 0.364407 0.339966) 260 517 2
(0.197861 0.401069 0.157637 0.243432) 261 519 1
(0.201842 0.399079 0.261423 0.137656) 262 521 1
(0.107248 0.446376 0.320531 0.125845) 263 523 1
(0.11747 0.100589 0.340676 0.441265) 265 525 2
(0.0923298 0.0974714 0.356364 0.453835) 266 527 2
(0.0151541 0.126805 0.365618 0.492423) 267 529 2
(0.0194438 0.10667 0.490278 0.383608) 267 531 2
(0.0480182 0.0753459 0.400645 0.475991) 269 533 2
(0.141906 0.0106524 0.418395 0.429047) 270 535 2
(0.12485 0.437575 0.0019972 0.435578) 271 540 2
(0.365407 0.0249947 0.317296 0.292302) 271 391 1
(0.241395 0.379302 0.0689327 0.31037) 272 393 2
(0.168895 0.415553 0.0635732 0.351979) 273 541 1
(0.131704 0.434148 0.358529 0.0756188) 273 543 1
(0.25061 0.374695 0.282797 0.0918983) 300 597 2
(0.257811 0.283058 0.0880368 0.371094) 301 599 1
(0.0946218 0.130495 0.322194 0.452689) 303 600 2
(0.451298 0.274351 0.214458 0.0598929) 304 605 2
(0.0200535 0.489973 0.126896 0.363078) 306 606 1
(0.352103 0.175515 0.323949 0.148433) 307 462 1
(0.388079 0.132993 0.30596 0.172967) 308 612 2
(0.233188 0.203467 0.383406 0.179939) 309 466 1
(0.671657 0.11786 0.164171 0.0463111) 310 468 1
(0.34244 0.158296 0.32878 0.170484) 311 470 1
(0.220226 0.154551 0.389887 0.235336) 312 472 1
(0.296602 0.351699 0.29535 0.0563488) 314 476 2
(0.308294 0.323979 0.345853 0.0218746) 315 478 1
(0.375716 0.0192637 0.312142 0.292878) 316 480 1
(0.489287 0.255356 0.0795647 0.175792) 318 630 1
(0.205974 0.397013 0.125391 0.271622) 319 635 2
(0.220285 0.389858 0.072073 0.317785) 320 637 2
(0.20799 0.020589 0.375416 0.396005) 321 636 2
(0.0516945 0.106271 0.367882 0.474153) 322 638 2
(0.215966 0.0463724 0.392017 0.345645) 322 640 2
(0.312384 0.14961 0.194198 0.343808) 323 643 1
(0.311251 0.344374 0.304901 0.0394734) 324 645 2
(0.270497 0.364751 0.0990119 0.265739) 325 647 2
(0.0257802 0.113034 0.374076 0.48711) 326 646 2
(0.274541 0.025615 0.337114 0.362729) 326 649 1
(0.447738 0.276131 0.228482 0.0476487) 328 504 2
(0.346577 0.326711 0.225641 0.10107) 329 655 2
(0.233565 0.275439 0.107778 0.383217) 330 657 1
(0.210451 0.0754927 0.319282 0.394775) 331 659 1
(0.223949 0.0100821 0.388025 0.377943) 332 660 2
(0.415911 0.161781 0.292045 0.130263) 333 662 2
(0.203686 0.223638 0.174519 0.398157) 334 665 1
(0.199675 0.230991 0.169171 0.400163) 335 667 1
(0.115732 0.0687737 0.37336 0.442134) 336 669 1
(0.286586 0.234002 0.356707 0.122705) 337 522 1
(0.328153 0.322454 0.335924 0.01347) 338 524 1
(0.287349 0.356326 0.149908 0.206417) 339 526 2
(0.307212 0.110631 0.235763 0.346394) 340 674 2
(0.0359339 0.229194 0.252839 0.482033) 341 676 2
(0.17794 0.0706632 0.41103 0.340367) 341 678 2
(0.256861 0.026996 0.344573 0.371569) 342 681 1
(0.130832 0.313604 0.434584 0.12098) 419 685 1
(0.274263 0.362868 0.000877222 0.361991) 420 687 2
(0.226055 0.386972 0.247076 0.139897) 346 689 2
(0.310495 0.344753 0.328909 0.0158432) 347 542 2
(0.016061 0.49197 0.334389 0.15758) 347 690 1
(0.366685 0.0481329 0.316657 0.268524) 348 544 1
(0.263762 0.262857 0.368119 0.105262) 349 546 1
(0.554305 0.0390238 0.222848 0.183824) 375 597 1
(0.392033 0.303984 0.199715 0.104269) 377 601 2
(0.34915 0.0668757 0.325425 0.258549) 378 603 1
(0.185652 0.407174 0.15916 0.248014) 380 607 2
(0.116199 0.421228 0.441901 0.0206723) 381 609 1
(0.147376 0.250716 0.426312 0.175596) 382 611 1
(0.15217 0.423915 0.0392983 0.384617) 384 761 1
(0.182857 0.408571 0.307554 0.101018) 385 617 2
(0.177496 0.411252 0.0696624 0.341589) 386 619 2
(0.192549 0.286727 0.403726 0.116998) 387 621 1
(0.194413 0.179144 0.402794 0.223649) 388 623 1
(0.235279 0.0858573 0.382361 0.296503) 389 625 1
(0.227474 0.0387641 0.386263 0.347499) 390 627 1
(0.0819422 0.459029 0.381452 0.0775765) 391 777 1
(0.349107 0.325446 0.270509 0.0549375) 393 633 2
(0.167814 0.0808755 0.335218 0.416093) 393 782 1
(0.210145 0.221482 0.173445 0.394928) 394 784 1
(0.216262 0.391869 0.387391 0.00447764) 395 786 2
(0.224862 0.387569 0.210528 0.177042) 396 788 2
(0.232803 0.383598 0.0749863 0.308612) 397 790 2
(0.0933058 0.0550586 0.398289 0.453347) 398 789 2
(0.127487 0.0468948 0.436256 0.389362) 398 791 2
(0.225386 0.0599427 0.327364 0.387307) 399 794 1
(0.212623 0.129957 0.263731 0.393688) 400 796 1
(0.295128 0.352436 0.11569 0.236746) 401 797 1
(0.305483 0.00297287 0.347259 0.344286) 402 651 1
(0.566391 0.0177869 0.216804 0.199017) 403 653 1
(0.862927 0.0312973 0.0685364 0.0372391) 404 655 1
(0.543279 0.00435545 0.22836 0.224005) 405 805 2
(0.112768 0.104441 0.339175 0.443616) 407 807 2
(0.0381772 0.0882248 0.392687 0.480911) 408 809 2
(0.0115696 0.107411 0.494215 0.386804) 408 811 2
(0.0446789 0.0737152 0.477661 0.403945) 409 813 2
(0.00395973 0.0961649 0.49802 0.401855) 410 815 2
(0.126416 0.0345224 0.40227 0.436792) 412 817 2
(0.0332815 0.21418 0.269179 0.483359) 413 819 2
(0.0296648 0.485168 0.36977 0.115397) 413 821 1
(0.0647006 0.46765 0.28697 0.18068) 414 823 1
(0.0889085 0.455546 0.259709 0.195837) 415 825 1
(0.263343 0.110787 0.257541 0.368329) 416 828 1
(0.256784 0.146314 0.225294 0.371608) 417 830 1
(0.039483 0.0608954 0.419363 0.480258) 419 831 2
(0.0539545 0.473023 0.109845 0.363177) 495 982 1
(0.161896 0.0198946 0.419052 0.399157) 420 835 2
(0.307502 0.299811 0.346249 0.0464386) 496 838 1
(0.234688 0.3541 0.382656 0.0285561) 497 840 1
(0.221913 0.27609 0.112953 0.389043) 423 842 1
(0.223849 0.164478 0.388076 0.223598) 424 695 1
(0.266545 0.366728 0.0553914 0.311336) 450 746 2
(0.244298 0.327389 0.377851 0.0504624) 451 748 1
(0.209887 0.256582 0.395056 0.138474) 452 750 1
(0.209241 0.184356 0.395379 0.211024) 453 752 1
(0.156287 0.0174101 0.421857 0.404447) 454 754 1
(0.102655 0.448673 0.350579 0.0980941) 456 758 2
(0.07785 0.253074 0.461075 0.208001) 457 760 1
(0.142148 0.0349415 0.428926 0.393985) 458 762 1
(0.00980302 0.495098 0.399666 0.0954323) 459 912 1
(0.0286743 0.485663 0.098507 0.387156) 461 914 1
(0.0455634 0.477218 0.388113 0.0891053) 461 916 1
(0.112443 0.443779 0.382557 0.0612221) 462 918 1
(0.254818 0.0415533 0.372591 0.331038) 463 772 1
(0.264815 0.203632 0.367593 0.16396) 464 774 1
(0.216121 0.381801 0.391939 0.0101381) 465 776 1
(0.283598 0.358201 0.163054 0.195147) 466 778 2
(0.243001 0.3785 0.139649 0.23885) 467 926 1
(0.100884 0.446977 0.00258027 0.449558) 467 929 1
(0.263353 0.368324 0.0222249 0.346099) 468 931 2
(0.146221 0.0292749 0.42689 0.397615) 468 930 2
(0.165817 0.0705149 0.346577 0.417092) 469 933 1
(0.152954 0.0565902 0.366933 0.423523) 470 935 1
(0.049126 0.0679441 0.475437 0.407493) 471 936 2
(0.193096 0.00395717 0.399495 0.403452) 473 938 2
(0.214882 0.392559 0.0793029 0.313256) 474 943 2
(0.227015 0.386493 0.124145 0.262348) 475 945 2
(0.330713 0.334644 0.0469126 0.287731) 476 947 2
(0.266624 0.366688 0.0864675 0.28022) 477 946 1
(0.188741 0.405629 0.0445291 0.3611) 478 948 1
(0.255812 0.372094 0.0276743 0.34442) 479 950 1
(0.345889 0.327055 0.12717 0.199885) 480 806 2
(0.41609 0.253147 0.291955 0.0388085) 481 808 1
(0.232029 0.383985 0.177061 0.206924) 482 959 2
(0.254197 0.372901 0.079218 0.293683) 483 961 2
(0.217096 0.391452 0.00512814 0.386324) 484 963 2
(0.201181 0.399409 0.0593233 0.340086) 485 965 2
(0.188619 0.405691 0.308885 0.0968056) 486 967 2
(0.19426 0.295439 0.107431 0.40287) 487 969 1
(0.334258 0.0187381 0.332871 0.314133) 488 822 1
(0.283585 0.0770744 0.358208 0.281133) 489 824 1
(0.275789 0.126947 0.362105 0.235159) 490 826 1
(0.214921 0.392539 0.218858 0.173681) 491 977 2
(0.234388 0.0255457 0.35726 0.382806) 492 976 2
(0.134916 0.0724388 0.432542 0.360103) 492 978 2
(0.229108 0.000683937 0.385446 0.384762) 493 980 2
(0.0596829 0.470159 0.354618 0.115541) 495 985 2
(0.250846 0.374577 0.164386 0.210191) 571 987 2
(0.156011 0.313453 0.421994 0.108542) 572 989 1
(0.368059 0.315971 0.192926 0.123045) 498 991 2
(0.232558 0.215635 0.383721 0.168086) 499 844 1
(0.272167 0.363917 0.201654 0.162263) 525 895 2
(0.257442 0.371279 0.1996 0.171679) 526 897 2
(0.236673 0.381663 0.221939 0.159724) 527 899 2
(0.248919 0.37554 0.27389 0.10165) 528 901 2
(0.229308 0.385346 0.345966 0.03938) 529 903 2
(0.178483 0.410759 0.00929368 0.401465) 530 1051 1
(0.0743413 0.462829 0.374797 0.0880321) 531 907 2
(0.0579283 0.471036 0.339082 0.131953) 457 909 2
(0.349475 0.110603 0.214659 0.325262) 532 1058 1
(0.403728 0.260373 0.0377636 0.298136) 533 1060 1
(0.367055 0.316472 0.176676 0.139796) 534 1062 2
(0.165863 0.417068 0.372928 0.0441405) 535 1063 1
(0.182134 0.408933 0.360997 0.0479365) 536 1065 1
(0.286162 0.0600837 0.356919 0.296835) 537 919 1
(0.201536 0.263956 0.399232 0.135276) 538 921 1
(0.262822 0.368589 0.258063 0.110526) 539 923 2
(0.148802 0.425599 0.359921 0.0656781) 539 1071 1
(0.135124 0.415616 0.432438 0.0168225) 540 925 1
(0.304937 0.347532 0.315669 0.0318623) 541 927 2
(0.193065 0.403468 0.308999 0.0944691) 541 1076 2
(0.309736 0.345132 0.10061 0.244522) 542 1078 2
(0.18457 0.0230407 0.384674 0.407715) 543 1077 2
(0.197746 0.401127 0.0133649 0.387762) 544 1082 2
(0.190221 0.404889 0.307109 0.0977806) 545 1084 2
(0.165921 0.256901 0.160139 0.41704) 546 1086 1
(0.187532 0.0077405 0.398493 0.406234) 547 1088 1
(0.210398 0.394801 0.0520023 0.342799) 549 1092 2
(0.226144 0.386928 0.216221 0.170707) 550 1094 2
(0.374703 0.0351643 0.312648 0.277484) 551 947 1
(0.264605 0.118121 0.367697 0.249576) 552 949 1
(0.266284 0.180162 0.366858 0.186696) 553 951 1
(0.267951 0.247361 0.366024 0.118664) 554 953 1
(0.200146 0.280302 0.399927 0.119624) 555 955 1
(0.509998 0.245001 0.233594 0.0114073) 556 1106 2
(0.396912 0.301544 0.195148 0.106396) 557 1108 2
(0.384013 0.307994 0.0824218 0.225572) 558 1110 2
(0.566389 0.216806 0.12903 0.0877759) 559 1112 2
(0.167385 0.0110105 0.405297 0.416308) 561 1113 2
(0.198953 0.400523 0.234774 0.165749) 562 1118 2
(0.229432 0.385284 0.348037 0.0372476) 563 1120 2
(0.206356 0.326695 0.0701274 0.396822) 564 1122 1
(0.22956 0.259271 0.125948 0.38522) 565 1124 1
(0.237258 0.267888 0.113483 0.381371) 566 1126 1
(0.248096 0.375952 0.351989 0.0239625) 567 1128 2
(0.266772 0.366614 0.194175 0.172439) 568 1130 2
(0.265904 0.367048 0.0699458 0.297102) 569 1132 2
(0.229315 0.385343 0.0846405 0.300702) 570 1134 2
(0.117629 0.441186 0.128019 0.313167) 572 1138 2
(0.168962 0.415519 0.0964916 0.319027) 573 1140 2
(0.18963 0.405185 0.334999 0.0701866) 573 1139 1
(0.222872 0.00451792 0.388564 0.384046) 574 993 1
(0.399088 0.300456 0.0759966 0.224459) 600 1193 2
(0.356295 0.00292043 0.318932 0.321853) 601 1192 2
(0.0215651 0.489217 0.387705 0.101513) 601 1194 1
(0.154588 0.422706 0.378509 0.0441964) 602 1196 1
(0.235928 0.0614526 0.382036 0.320583) 603 1050 1
(0.189487 0.178457 0.405256 0.2268) 604 1052 1
(0.155716 0.197669 0.422142 0.224474) 605 1054 1
(0.230532 0.384734 0.0677449 0.316989) 606 1205 2
(0.228453 0.0297433 0.385774 0.35603) 606 1204 2
(0.27413 0.362935 0.335201 0.0277341) 607 1207 2
(0.149308 0.0990827 0.326264 0.425346) 608 1206 2
(0.372814 0.0215619 0.292031 0.313593) 608 1209 1
(0.358428 0.298979 0.0218068 0.320786) 609 1211 1
(0.295424 0.352288 0.176114 0.176174) 610 1213 2
(0.281351 0.359324 0.324584 0.0347405) 611 1214 1
(0.270717 0.364641 0.349638 0.0150039) 612 1216 1
(0.336591 0.105335 0.331704 0.226369) 613 1070 1
(0.444003 0.277998 0.0335998 0.244399) 614 1072 2
(0.215043 0.392478 0.352632 0.0398465) 615 1074 2
(0.429911 0.0469877 0.285044 0.238057) 615 1074 1
(0.554955 0.20638 0.222522 0.0161423) 616 1076 1
(0.236748 0.381626 0.0158194 0.365806) 617 1227 2
(0.348897 0.325552 0.0830755 0.242476) 618 1229 2
(0.378848 0.123174 0.310576 0.187402) 619 1230 2
(0.248735 0.375633 0.0188559 0.356777) 621 1235 2
(0.149312 0.385218 0.0401266 0.425344) 622 1237 1
(0.191752 0.0171488 0.386975 0.404124) 623 1239 1
(0.173655 0.413173 0.125506 0.287667) 625 1243 2
(0.343204 0.328398 0.187049 0.141349) 626 1096 2
(0.298728 0.350636 0.173516 0.17712) 627 1098 2
(0.288163 0.355919 0.212944 0.142974) 628 1100 2
(0.268213 0.365893 0.29443 0.0714634) 629 1102 2
(0.232636 0.383682 0.0159277 0.367754) 630 1250 1
(0.126183 0.436909 0.323688 0.113221) 630 1252 1
(0.218432 0.390784 0.295776 0.0950079) 631 1254 1
(0.143788 0.428106 0.237778 0.190328) 632 1256 1
(0.0908111 0.454594 0.170344 0.28425) 634 1258 1
(0.117573 0.441213 0.215097 0.226116) 634 1260 1
(0.0882155 0.0475524 0.455892 0.40834) 635 1262 2
(0.203253 0.398374 0.115473 0.282901) 637 1267 2
(0.187191 0.406405 0.36183 0.0445745) 638 1269 2
(0.19885 0.232797 0.167778 0.400575) 639 1271 1
(0.013494 0.0825595 0.410693 0.493253) 641 1272 2
(0.21169 0.394155 0.237723 0.156432) 642 1277 2
(0.216707 0.313504 0.0781426 0.391646) 643 1279 1
(0.239216 0.276705 0.103687 0.380392) 644 1281 1
(0.241114 0.0773176 0.302125 0.379443) 645 1283 1
(0.140833 0.0427869 0.386797 0.429584) 647 1284 2
(0.446919 0.276541 0.100709 0.175832) 648 1289 2
(0.215404 0.392298 0.0325996 0.359698) 649 1288 1
(0.00648085 0.49676 0.383457 0.113302) 649 1290 1
(0.547105 0.193808 0.032639 0.226447) 675 15084 1
(0.200133 0.399934 0.12935 0.270583) 676 1344 2
(0.00848888 0.495756 0.148168 0.347588) 677 1343 1
(0.251171 0.0782087 0.374414 0.296206) 677 1197 1
(0.235907 0.307965 0.382047 0.0740813) 678 1199 1
(0.193058 0.403471 0.0471223 0.356349) 679 1201 2
(0.337228 0.331386 0.0287026 0.302683) 680 1352 2
(0.142136 0.0604548 0.428932 0.368477) 680 1351 2
(0.213606 0.332193 0.0610035 0.393197) 681 1354 1
(0.285504 0.357248 0.0475902 0.309658) 682 1356 2
(0.185921 0.119754 0.287286 0.40704) 682 1356 1
(0.237967 0.381017 0.223836 0.157181) 683 1358 2
(0.0894967 0.0805478 0.455252 0.374704) 683 1357 2
(0.29943 0.192529 0.157756 0.350285) 684 1360 1
(0.3358 0.3321 0.284222 0.0478777) 685 1362 2
(0.320336 0.339832 0.109885 0.229947) 686 1364 2
(0.279281 0.36036 0.0403665 0.319993) 687 1366 2
(0.299603 0.350199 0.0185956 0.331603) 688 1368 2
(0.342838 0.328581 0.110114 0.218467) 689 1221 2
(0.327185 0.336407 0.129065 0.207342) 690 1223 2
(0.394401 0.3028 0.257719 0.0450802) 691 1225 2
(0.624656 0.187672 0.182492 0.00517951) 692 1227 2
(0.429275 0.285363 0.0163449 0.269018) 693 1229 2
(0.380077 0.0974923 0.309962 0.212469) 694 1231 1
(0.0533075 0.473346 0.451859 0.0214877) 696 1381 1
(0.183874 0.0343388 0.408063 0.373724) 697 1385 2
(0.26876 0.00117971 0.36444 0.36562) 699 1387 2
(0.22078 0.378632 0.0109781 0.38961) 700 1392 1
(0.208799 0.0522213 0.343379 0.3956) 701 1394 1
(0.020238 0.109841 0.38004 0.489881) 703 1395 2
(0.24974 0.0634423 0.37513 0.311687) 703 1249 1
(0.283571 0.205576 0.358215 0.152639) 704 1251 1
(0.247327 0.376337 0.0627532 0.313583) 705 1253 2
(0.283577 0.358211 0.32098 0.0372316) 706 1255 2
(0.12283 0.438585 0.365511 0.0730742) 706 1403 1
(0.304103 0.132879 0.347949 0.21507) 707 1257 1
(0.299162 0.250466 0.350419 0.0999527) 708 1259 1
(0.243684 0.11578 0.378158 0.262377) 709 1261 1
(0.493666 0.253167 0.182501 0.0706657) 711 1414 2
(0.283103 0.244909 0.113539 0.358448) 712 1416 1
(0.241336 0.00963031 0.379332 0.369702) 713 1417 2
(0.0744243 0.0982976 0.462788 0.36449) 714 1419 2
(0.616644 0.191678 0.174605 0.0170731) 716 1424 2
(0.0780894 0.190348 0.460955 0.270607) 717 1425 2
(0.471675 0.264162 0.198186 0.0659759) 719 1430 2
(0.244201 0.0272782 0.350621 0.377899) 720 1432 1
(0.286385 0.356808 0.124511 0.232297) 722 1436 2
(0.193917 0.354088 0.048954 0.403042) 723 1435 2
(0.0589536 0.470523 0.272638 0.197886) 723 1437 1
(0.234036 0.382982 0.356891 0.0260912) 724 1439 1
(0.224296 0.0220715 0.387852 0.365781) 725 1293 1
(0.179222 0.00241819 0.407971 0.410389) 750 1491 1
(0.140768 0.429616 0.139814 0.289802) 752 1495 2
(0.0530117 0.473494 0.368908 0.104586) 752 1494 1
(0.294955 0.352523 0.348067 0.0044554) 753 1496 1
(0.342424 0.147692 0.328788 0.181096) 754 1350 1
(0.221896 0.389052 0.269069 0.119984) 755 1501 2
(0.20147 0.399265 0.119205 0.28006) 756 1503 2
(0.0331952 0.0886288 0.394774 0.483402) 757 1502 2
(0.147885 0.189794 0.236264 0.426058) 757 1505 1
(0.258106 0.370947 0.182313 0.188634) 758 1507 2
(0.0860906 0.0729129 0.456955 0.384042) 758 1506 2
(0.236114 0.381943 0.330872 0.0510714) 759 1509 2
(0.0161745 0.100879 0.491913 0.391033) 759 1508 2
(0.278416 0.255611 0.105181 0.360792) 760 1511 1
(0.320585 0.339708 0.1681 0.171608) 761 1513 2
(0.266974 0.0152498 0.351263 0.366513) 762 1512 2
(0.0834429 0.0851271 0.373151 0.458279) 763 1514 2
(0.467395 0.266302 0.224168 0.0421347) 763 1516 1
(0.290202 0.0458553 0.354899 0.309044) 764 1370 1
(0.343324 0.328338 0.0895291 0.238809) 766 1374 2
(0.234382 0.382809 0.363959 0.01885) 767 1524 1
(0.307438 0.1383 0.346281 0.207981) 768 1378 1
(0.245245 0.257447 0.377378 0.11993) 769 1380 1
(0.639545 0.169902 0.0103254 0.180227) 771 1533 1
(0.576911 0.203243 0.00830121 0.211545) 772 1535 1
(0.611931 0.155061 0.0389734 0.194034) 773 1537 1
(0.580485 0.0186514 0.191106 0.209757) 774 1539 1
(0.388297 0.131633 0.174219 0.305852) 775 1541 1
(0.245681 0.37716 0.023138 0.354022) 777 1545 2
(0.276326 0.0651841 0.296653 0.361837) 778 1547 1
(0.0462184 0.0972852 0.379606 0.476891) 780 1548 2
(0.1225 0.43875 0.206185 0.232565) 781 1553 2
(0.243859 0.037053 0.378071 0.341018) 781 1404 1
(0.256012 0.204267 0.371994 0.167727) 782 1406 1
(0.254939 0.37253 0.0746026 0.297928) 783 1408 2
(0.280489 0.359755 0.331819 0.0279365) 784 1410 2
(0.00060887 0.499696 0.366663 0.133033) 784 1558 1
(0.355688 0.0324584 0.322156 0.289697) 785 1412 1
(0.418258 0.0701586 0.290871 0.220712) 786 1414 1
(0.310428 0.264788 0.0799978 0.344786) 788 1564 2
(0.611535 0.194232 0.184936 0.00929618) 789 1569 2
(0.717605 0.122086 0.0191118 0.141197) 790 1571 1
(0.386433 0.284067 0.306784 0.0227165) 791 1424 1
(0.159579 0.420211 0.198777 0.221433) 793 1574 1
(0.352054 0.323973 0.127228 0.196745) 794 1430 2
(0.450632 0.274684 0.2154 0.0592843) 796 1580 1
(0.0866011 0.306002 0.150697 0.456699) 798 1584 2
(0.0361489 0.0856125 0.396313 0.481926) 799 1586 2
(0.0590113 0.470494 0.407432 0.0630623) 800 1588 1
(0.0255164 0.068759 0.487242 0.418483) 800 1590 2
(0.0821947 0.0351666 0.423736 0.458903) 802 1592 2
(0.0879445 0.0710773 0.38495 0.456028) 826 1639 2
(0.218871 0.390564 0.277094 0.11347) 827 1644 2
(0.237599 0.365107 0.0160935 0.381201) 828 1646 1
(0.220363 0.159082 0.230737 0.389819) 829 1648 1
(0.206828 0.12099 0.275596 0.396586) 830 1650 1
(0.212067 0.066849 0.327118 0.393967) 831 1652 1
(0.188369 0.064618 0.341198 0.405816) 832 1654 1
(0.18383 0.0916095 0.316475 0.408085) 833 1656 1
(0.17804 0.212301 0.198679 0.41098) 834 1658 1
(0.133051 0.227982 0.205492 0.433475) 835 1660 1
(0.298824 0.350588 0.141499 0.209089) 836 1662 2
(0.0820238 0.0668819 0.458988 0.392106) 836 1661 2
(0.367088 0.142143 0.174314 0.316456) 837 1664 1
(0.226175 0.383344 0.00356864 0.386913) 838 1666 1
(0.091774 0.454113 0.30061 0.153503) 839 1668 2
(0.0407858 0.140649 0.479607 0.338958) 839 1667 2
(0.306664 0.346668 0.115222 0.231446) 840 1521 2
(0.272332 0.363834 0.30444 0.0593944) 841 1523 2
(0.0373664 0.250372 0.230944 0.481317) 767 1525 1
(0.258271 0.169817 0.370864 0.201048) 843 1527 1
(0.211862 0.153868 0.394069 0.240201) 844 1529 1
(0.237085 0.381458 0.336965 0.0444928) 845 1679 1
(0.459264 0.270368 0.119293 0.151075) 846 1681 1
(0.415292 0.111347 0.292354 0.181007) 847 1535 1
(0.285187 0.191881 0.357406 0.165525) 848 1537 1
(0.37472 0.224137 0.31264 0.0885036) 849 1539 1
(0.0336247 0.483188 0.223345 0.259842) 851 1689 1
(0.251009 0.374496 0.218405 0.156091) 852 1694 2
(0.248901 0.253283 0.122267 0.37555) 853 1696 1
(0.242164 0.107359 0.271559 0.378918) 854 1698 1
(0.159146 0.0380965 0.38233 0.420427) 855 1700 1
(0.280788 0.0310661 0.359606 0.32854) 856 1701 2
(0.253238 0.121162 0.373381 0.252219) 857 1555 1
(0.288826 0.110836 0.355587 0.244751) 858 1557 1
(0.276123 0.171165 0.361938 0.190773) 859 1559 1
(0.280626 0.243888 0.359687 0.115799) 860 1561 1
(0.256776 0.342198 0.371612 0.0294139) 861 1563 1
(0.308412 0.345794 0.0855731 0.260221) 862 1565 2
(0.402914 0.298543 0.192951 0.105592) 863 1567 2
(0.37867 0.310665 0.250886 0.0597787) 864 1569 2