/*--------------------------------*- C++ -*----------------------------------*\
  =========                 |
  \\      /  F ield         | OpenFOAM: The Open Source CFD Toolbox
   \\    /   O peration     | Website:  https://openfoam.org
    \\  /    A nd           | Version:  12
     \\/     M anipulation  |
\*---------------------------------------------------------------------------*/
FoamFile
{
    format      ascii;
    class       vectorField;
    location    "0.5/lagrangian/cloud";
    object      U;
}
// * * * * * * * * * * * * * * * * * * * * * * * * * * * * * * * * * * * * * //


2553
(
(-0.00129512 -0.0276772 0)
(0.000548734 -0.0304649 0)
(0.000183819 -0.0316075 0)
(-0.000134748 -0.0301084 0)
(-2.22623e-05 -0.0298335 0)
(0.00071555 -0.0291801 0)
(0.000950792 -0.0273374 0)
(0.000868899 -0.0276634 0)
(-0.000699167 -0.0289816 0)
(-0.000798878 -0.0291928 0)
(-0.000157217 -0.0285907 0)
(-0.00010777 -0.0285275 0)
(0.000344802 -0.0281071 0)
(-0.000251411 -0.0269451 0)
(0.00230163 -0.0250609 0)
(0.000228412 -0.0277372 0)
(-0.000325612 -0.0288429 0)
(0.000161833 -0.0289399 0)
(0.000605982 -0.0302206 0)
(0.00032693 -0.0326489 0)
(0.000294554 -0.0314083 0)
(0.000376425 -0.0317763 0)
(0.000355514 -0.0332831 0)
(0.000306554 -0.0330203 0)
(0.00050337 -0.0321703 0)
(-0.000917074 -0.0324356 0)
(-0.00161725 -0.0316468 0)
(0.000321535 -0.0300994 0)
(0.000646944 -0.0319003 0)
(0.000524466 -0.0325124 0)
(0.00072042 -0.0337299 0)
(0.00093023 -0.0339702 0)
(-0.000397995 -0.0283655 0)
(0.00151583 -0.0312907 0)
(0.00146815 -0.0291135 0)
(-0.00046218 -0.0307941 0)
(0.00074299 -0.0315621 0)
(0.000698437 -0.0299965 0)
(0.000982368 -0.0313691 0)
(-0.000159207 -0.0338514 0)
(0.000320121 -0.033125 0)
(0.000217077 -0.0344864 0)
(0.000178478 -0.0342147 0)
(0.00108386 -0.0322209 0)
(0.000179479 -0.0327463 0)
(-0.000330791 -0.0319496 0)
(0.000254394 -0.0302569 0)
(0.00130509 -0.0343602 0)
(-0.000421143 -0.0310595 0)
(-9.64739e-05 -0.0337116 0)
(5.27766e-05 -0.0352328 0)
(-7.77777e-05 -0.0356407 0)
(-0.000119818 -0.035538 0)
(-7.64375e-05 -0.0355431 0)
(5.81247e-05 -0.0366266 0)
(0.000114376 -0.0360411 0)
(3.68618e-05 -0.0358387 0)
(0.00108587 -0.0379926 0)
(-0.00102499 -0.040214 0)
(9.52728e-05 -0.035746 0)
(-0.000428577 -0.035739 0)
(-0.000653138 -0.0371098 0)
(-2.21443e-05 -0.0401482 0)
(0.000309947 -0.0389649 0)
(0.000538668 -0.0374491 0)
(-0.000849153 -0.0377301 0)
(0.000330546 -0.0376024 0)
(-2.09778e-05 -0.0384843 0)
(-0.000452829 -0.0365258 0)
(-0.00184564 -0.0357952 0)
(-0.00118607 -0.0279683 0)
(0.00194644 -0.0252558 0)
(0.000697198 -0.0272778 0)
(-0.000522863 -0.027964 0)
(-0.000362493 -0.0265391 0)
(0.00225153 -0.033609 0)
(0.00247671 -0.0352498 0)
(0.00113387 -0.0336466 0)
(0.000965861 -0.0336589 0)
(0.00144368 -0.03369 0)
(0.00154949 -0.0349613 0)
(0.000429836 -0.0386079 0)
(0.000103311 -0.0401699 0)
(-0.000471004 -0.033979 0)
(0.00183357 -0.0321944 0)
(0.000601956 -0.032654 0)
(0.000439787 -0.0326048 0)
(-0.000170606 -0.0334558 0)
(0.000773992 -0.0286552 0)
(-0.000495523 -0.038207 0)
(0.00152427 -0.0370223 0)
(-4.78439e-07 -0.0368016 0)
(-0.00213576 -0.0343634 0)
(0.000548285 -0.0322271 0)
(-0.000262432 -0.0283219 0)
(0.000521956 -0.0353031 0)
(2.51878e-05 -0.0346983 0)
(-0.00108706 -0.0352404 0)
(0.000489944 -0.0342404 0)
(0.000821471 -0.0346625 0)
(-0.00132358 -0.0394225 0)
(0.00113111 -0.0402368 0)
(-0.000395419 -0.0425914 0)
(-0.00124712 -0.0406332 0)
(0.000582522 -0.0321585 0)
(0.000913829 -0.0315079 0)
(0.000664138 -0.0354075 0)
(8.99321e-05 -0.0360506 0)
(0.00033124 -0.0370899 0)
(0.000500081 -0.0368878 0)
(-7.964e-05 -0.0367175 0)
(6.80018e-06 -0.0365 0)
(0.00072262 -0.0458256 0)
(0.000522426 -0.0449872 0)
(0.000376766 -0.0434314 0)
(0.000451608 -0.0430388 0)
(-0.000152173 -0.0449462 0)
(-0.000112743 -0.0456964 0)
(0.000302893 -0.0484724 0)
(0.000106259 -0.0455009 0)
(-0.000374545 -0.0419197 0)
(0.000492503 -0.0404444 0)
(-6.45236e-05 -0.0380392 0)
(-0.00137559 -0.0371603 0)
(-0.00100288 -0.0444947 0)
(0.00124437 -0.041649 0)
(0.000995562 -0.0414478 0)
(-0.000219481 -0.0434319 0)
(-0.000684921 -0.0448627 0)
(-0.000734031 -0.042755 0)
(0.00251913 -0.0391654 0)
(0.00120659 -0.0411867 0)
(0.000424466 -0.0420946 0)
(0.000154923 -0.0412196 0)
(-0.000129221 -0.0403992 0)
(2.99857e-05 -0.0399831 0)
(2.51822e-05 -0.0399469 0)
(-0.000256735 -0.0393856 0)
(7.2528e-05 -0.0388515 0)
(0.00061271 -0.0359568 0)
(0.00131749 -0.0430114 0)
(-0.000470719 -0.0397675 0)
(0.00192285 -0.0419885 0)
(0.000740282 -0.042259 0)
(-0.000448108 -0.0441499 0)
(-0.000109283 -0.0437389 0)
(0.00163094 -0.0440514 0)
(-0.000218019 -0.0454276 0)
(-0.000406233 -0.0458297 0)
(-0.000300724 -0.0479538 0)
(0.00178967 -0.0434413 0)
(0.00112973 -0.0430372 0)
(0.000285012 -0.0443826 0)
(0.000888493 -0.0448271 0)
(0.000385761 -0.0459174 0)
(0.000481274 -0.0457056 0)
(-0.000952992 -0.044927 0)
(-0.00043169 -0.0446895 0)
(0.000385882 -0.0430096 0)
(-0.0009537 -0.0399105 0)
(0.000979171 -0.0448749 0)
(0.00014747 -0.0445639 0)
(0.000631761 -0.0453916 0)
(0.000256101 -0.0451349 0)
(-9.04917e-05 -0.0452973 0)
(0.00109493 -0.0449759 0)
(0.000940216 -0.0457383 0)
(0.000532937 -0.0447358 0)
(-0.0002912 -0.0481105 0)
(7.44156e-05 -0.049205 0)
(-0.000197275 -0.0500336 0)
(-0.000165957 -0.049988 0)
(0.000868141 -0.0464664 0)
(0.000929777 -0.0471171 0)
(8.24314e-05 -0.04595 0)
(-0.000775568 -0.0466014 0)
(-0.000902744 -0.047746 0)
(-0.000916894 -0.0449523 0)
(-0.00145378 -0.0446923 0)
(-0.00111151 -0.0440613 0)
(0.000219824 -0.0446411 0)
(-0.000335142 -0.0431919 0)
(-0.000235869 -0.0439866 0)
(0.000434662 -0.0424259 0)
(0.000368307 -0.0437417 0)
(0.000112691 -0.0438036 0)
(-7.53515e-05 -0.0438494 0)
(0.00013107 -0.0440976 0)
(-0.000978456 -0.0450496 0)
(4.17698e-05 -0.0440308 0)
(-0.000197177 -0.0429279 0)
(-0.000862627 -0.0451993 0)
(0.000981094 -0.0454629 0)
(0.00137292 -0.0446666 0)
(0.00149103 -0.0441891 0)
(0.000404487 -0.0441123 0)
(-0.000190743 -0.0457689 0)
(-0.000116628 -0.0459368 0)
(0.000302902 -0.0460818 0)
(0.000130658 -0.0487796 0)
(0.0010734 -0.0462678 0)
(0.00111646 -0.0448028 0)
(0.000529504 -0.0455723 0)
(0.000140755 -0.0470742 0)
(0.000395305 -0.0469894 0)
(-0.000665097 -0.0470702 0)
(-0.0004242 -0.0469375 0)
(-0.000329374 -0.0473961 0)
(0.000344423 -0.0472041 0)
(0.000349213 -0.0468829 0)
(0.000418547 -0.0437301 0)
(0.000289926 -0.0451715 0)
(0.000775745 -0.0469505 0)
(0.000360845 -0.0487483 0)
(3.57901e-06 -0.0482753 0)
(-0.00028846 -0.0513409 0)
(-0.000507843 -0.0504223 0)
(0.000172521 -0.0485824 0)
(0.000292472 -0.0487055 0)
(-0.000227143 -0.0491255 0)
(-0.00242517 -0.0477078 0)
(-0.00077692 -0.046664 0)
(-0.00090169 -0.0472081 0)
(-0.00190494 -0.0474413 0)
(-0.00094388 -0.0481002 0)
(-0.00101293 -0.0480233 0)
(-0.000146568 -0.0471298 0)
(0.00031721 -0.0460379 0)
(-1.56923e-05 -0.0456238 0)
(-0.00115302 -0.0447696 0)
(-0.000303916 -0.0445471 0)
(3.44382e-05 -0.0451783 0)
(0.000145723 -0.0462118 0)
(0.000917585 -0.0453326 0)
(0.000435266 -0.0439384 0)
(0.000217214 -0.0448362 0)
(-0.000272765 -0.0459612 0)
(0.000158487 -0.0470421 0)
(0.000811509 -0.0455899 0)
(0.000819563 -0.0451948 0)
(-0.000628312 -0.0447637 0)
(0.000928143 -0.0459275 0)
(-3.15274e-05 -0.0459494 0)
(0.000497613 -0.0460603 0)
(0.000315244 -0.0458823 0)
(0.000537971 -0.0442421 0)
(-0.000392511 -0.0461078 0)
(-0.000249065 -0.0472978 0)
(2.10347e-05 -0.0464116 0)
(-0.000525699 -0.0453877 0)
(0.00028803 -0.0466332 0)
(0.000405427 -0.0475247 0)
(-0.000515566 -0.0487533 0)
(-0.00150188 -0.0463662 0)
(0.000146691 -0.0476504 0)
(-1.24715e-05 -0.0463397 0)
(-0.000282672 -0.0446017 0)
(-0.000524291 -0.0460488 0)
(0.000236219 -0.0448994 0)
(-0.000623621 -0.0452364 0)
(-3.64597e-05 -0.0449391 0)
(9.30066e-05 -0.0425962 0)
(0.000720345 -0.0430987 0)
(-0.00074394 -0.0509993 0)
(-0.000372524 -0.0503558 0)
(-0.000169643 -0.0491502 0)
(0.000333921 -0.0481758 0)
(0.000997119 -0.0479872 0)
(3.10467e-05 -0.0467412 0)
(7.03034e-06 -0.0455219 0)
(-0.000599373 -0.0470404 0)
(-0.000268643 -0.0474747 0)
(-0.00061018 -0.0474124 0)
(-0.000806014 -0.0471114 0)
(-0.000264428 -0.04635 0)
(-6.04281e-05 -0.04623 0)
(0.000237054 -0.0471757 0)
(-0.000419839 -0.0437629 0)
(0.000132221 -0.0444514 0)
(-0.000371507 -0.0441697 0)
(-0.000797093 -0.046373 0)
(0.000288097 -0.0473969 0)
(-5.10307e-05 -0.0480988 0)
(0.000406036 -0.0476283 0)
(0.00135753 -0.0470731 0)
(0.000779486 -0.0459925 0)
(0.000562636 -0.0466012 0)
(0.00136236 -0.0476164 0)
(0.000399585 -0.0449398 0)
(-0.000354382 -0.0448717 0)
(-0.000213732 -0.0459011 0)
(-0.000344336 -0.0475963 0)
(-0.00015024 -0.0460665 0)
(0.000496478 -0.0452487 0)
(0.000184549 -0.0466471 0)
(0.00058512 -0.0469446 0)
(0.000496697 -0.0475202 0)
(0.000148119 -0.0467585 0)
(0.000216794 -0.0473772 0)
(-0.000229678 -0.0491691 0)
(0.000240196 -0.0486104 0)
(0.000239069 -0.0482528 0)
(0.000358699 -0.0457195 0)
(5.24859e-06 -0.0474324 0)
(-0.00045002 -0.0454499 0)
(4.73015e-05 -0.0466519 0)
(-0.000142172 -0.0478574 0)
(0.000312288 -0.0489033 0)
(9.21916e-06 -0.0487258 0)
(1.02771e-05 -0.0471289 0)
(6.00974e-06 -0.0449025 0)
(0.00038779 -0.0501067 0)
(-0.000501229 -0.0500376 0)
(-0.000336168 -0.049205 0)
(-0.000422471 -0.0482759 0)
(0.000345828 -0.0475557 0)
(1.29524e-05 -0.0469679 0)
(-0.000934878 -0.0419246 0)
(-0.000721947 -0.0454443 0)
(-0.000367666 -0.0457885 0)
(-0.000290231 -0.0458309 0)
(-0.000510823 -0.0475557 0)
(-0.000264137 -0.0459534 0)
(5.12052e-05 -0.0443697 0)
(7.27556e-06 -0.0444481 0)
(0.000152404 -0.0457338 0)
(0.000538472 -0.0468917 0)
(0.000924288 -0.0473917 0)
(0.00077481 -0.0475854 0)
(0.000744299 -0.0496041 0)
(0.000701778 -0.0487415 0)
(0.000351093 -0.0476819 0)
(0.000647318 -0.048942 0)
(0.000522198 -0.0503338 0)
(5.50003e-05 -0.0496159 0)
(0.000202674 -0.0496478 0)
(1.44784e-05 -0.0495217 0)
(0.000347466 -0.0491951 0)
(0.000107892 -0.0475386 0)
(0.000163151 -0.0476282 0)
(-0.00112251 -0.0469727 0)
(-0.000447186 -0.0479959 0)
(-0.00034199 -0.0472286 0)
(-0.000170822 -0.0479856 0)
(-0.000123494 -0.0478942 0)
(-1.37309e-05 -0.0477783 0)
(0.000787619 -0.0481907 0)
(0.000703932 -0.0486456 0)
(0.000376343 -0.048184 0)
(0.000513548 -0.049169 0)
(0.0003211 -0.0470122 0)
(0.000618892 -0.0472843 0)
(-0.00133899 -0.0486982 0)
(-0.000245398 -0.0490704 0)
(0.000296677 -0.0482874 0)
(0.000383845 -0.048245 0)
(-0.00112916 -0.0482798 0)
(-4.24488e-05 -0.049389 0)
(-0.000774034 -0.0486625 0)
(-0.000361153 -0.0496531 0)
(0.00018763 -0.0464511 0)
(-0.000145498 -0.0479926 0)
(-5.04968e-05 -0.0481759 0)
(0.000232702 -0.0480223 0)
(0.000264844 -0.0476627 0)
(0.000406592 -0.0475014 0)
(0.000102928 -0.0471872 0)
(-0.000229229 -0.047511 0)
(-0.00190218 -0.0429826 0)
(-0.00146192 -0.0494532 0)
(-0.000281481 -0.0473124 0)
(0.000928403 -0.048389 0)
(0.000564248 -0.0505354 0)
(-0.000342515 -0.0479945 0)
(-3.22146e-05 -0.04583 0)
(0.000498836 -0.0467005 0)
(9.11234e-05 -0.0476715 0)
(-0.000830856 -0.0478443 0)
(-0.000271556 -0.0467796 0)
(-0.000881409 -0.0471434 0)
(0.000236117 -0.0505092 0)
(-0.000320298 -0.0520249 0)
(-0.000172684 -0.0526444 0)
(0.000437328 -0.0525048 0)
(-0.00048552 -0.0516452 0)
(0.000105845 -0.0514778 0)
(0.000360762 -0.0508892 0)
(0.000170971 -0.0508624 0)
(-8.18353e-05 -0.051797 0)
(-0.000101129 -0.04985 0)
(-0.000329011 -0.0495404 0)
(-0.000263262 -0.0492789 0)
(-0.000313545 -0.0496262 0)
(-0.000734985 -0.0485577 0)
(0.00035096 -0.049586 0)
(-0.000642667 -0.0491721 0)
(-3.66492e-05 -0.048949 0)
(0.000812252 -0.0489353 0)
(0.000746423 -0.049296 0)
(0.00012195 -0.0488491 0)
(0.000293937 -0.0488537 0)
(0.000222475 -0.0489819 0)
(0.000290077 -0.0495324 0)
(1.99251e-05 -0.0488174 0)
(-5.69206e-05 -0.0490159 0)
(-0.00018632 -0.0493129 0)
(8.86134e-05 -0.0494229 0)
(0.000147732 -0.0491635 0)
(-0.000178378 -0.0474069 0)
(-1.52722e-05 -0.0479779 0)
(-0.000114426 -0.0482258 0)
(-0.000297512 -0.0483817 0)
(0.00196848 -0.0467325 0)
(0.000558191 -0.0484782 0)
(-0.00039539 -0.0475046 0)
(-0.000449844 -0.0462444 0)
(-0.000149053 -0.0455562 0)
(0.000718104 -0.0474349 0)
(0.00035507 -0.0476749 0)
(0.00104157 -0.048139 0)
(-0.000163845 -0.0472173 0)
(-0.000635432 -0.0481428 0)
(-0.000819498 -0.0490915 0)
(0.001195 -0.0501385 0)
(-0.000522794 -0.0504889 0)
(0.00019283 -0.0521179 0)
(0.000591263 -0.0518581 0)
(0.000659251 -0.0504053 0)
(-5.60916e-05 -0.0506402 0)
(5.16224e-05 -0.0509865 0)
(-0.000599127 -0.0499311 0)
(-0.00211316 -0.0511226 0)
(4.69943e-05 -0.0509452 0)
(-0.000911211 -0.0530553 0)
(-1.14791e-05 -0.0546233 0)
(0.0002373 -0.054544 0)
(0.000261583 -0.0526937 0)
(0.000161361 -0.0521563 0)
(0.000250412 -0.0512573 0)
(0.000127002 -0.0519457 0)
(-0.000383462 -0.051724 0)
(-0.000302424 -0.0522598 0)
(-0.00035394 -0.051353 0)
(-1.6631e-05 -0.0516133 0)
(-7.92783e-05 -0.0516262 0)
(-0.00226121 -0.0496642 0)
(-0.000393189 -0.0498002 0)
(-0.000621694 -0.0501229 0)
(0.0002553 -0.0490743 0)
(4.00021e-05 -0.0501636 0)
(0.000610316 -0.0496715 0)
(0.000200159 -0.0496819 0)
(-0.000116566 -0.0493159 0)
(0.00030346 -0.0494226 0)
(0.000271451 -0.0486757 0)
(-4.56384e-05 -0.0488273 0)
(-0.000471159 -0.0480524 0)
(0.000185013 -0.0478281 0)
(-0.000173505 -0.0470909 0)
(0.000284103 -0.0463716 0)
(0.000415635 -0.0469475 0)
(-0.000150428 -0.0475964 0)
(-0.000733244 -0.0476055 0)
(0.00143617 -0.0485536 0)
(5.025e-05 -0.0476579 0)
(0.000100852 -0.047213 0)
(-1.27908e-05 -0.0452242 0)
(0.00056744 -0.0464028 0)
(0.000759528 -0.0477342 0)
(0.000862327 -0.0489073 0)
(-0.000422208 -0.0469413 0)
(-0.000292657 -0.0468761 0)
(-0.000364898 -0.0474937 0)
(0.000300906 -0.0476525 0)
(3.17176e-05 -0.0500602 0)
(0.00121399 -0.0501306 0)
(6.34963e-05 -0.0511007 0)
(-0.000414778 -0.0536526 0)
(0.00068538 -0.0551345 0)
(0.000389425 -0.055257 0)
(0.000864242 -0.0547291 0)
(-5.27294e-06 -0.0543053 0)
(0.000370386 -0.0537719 0)
(-0.000539379 -0.0533147 0)
(-0.00107034 -0.0534045 0)
(-0.000633436 -0.0540711 0)
(-7.59361e-05 -0.0545049 0)
(0.000528801 -0.0518018 0)
(3.66617e-05 -0.0542593 0)
(0.00027654 -0.05051 0)
(-0.000274967 -0.0508154 0)
(0.000371862 -0.0512057 0)
(2.22674e-05 -0.048377 0)
(-0.000187008 -0.0484866 0)
(-4.94214e-05 -0.050313 0)
(0.000721268 -0.0512224 0)
(-0.000971322 -0.0497374 0)
(-0.000300678 -0.0478741 0)
(-0.00049097 -0.0466469 0)
(0.000660564 -0.0490052 0)
(0.000308438 -0.0504835 0)
(0.000970836 -0.0506714 0)
(0.000161948 -0.0492724 0)
(0.000280235 -0.0491284 0)
(7.8423e-05 -0.0497823 0)
(0.00075008 -0.0470408 0)
(-2.83006e-05 -0.0485074 0)
(0.000825429 -0.0467539 0)
(0.000108189 -0.0476157 0)
(-0.000432707 -0.0466725 0)
(0.000524354 -0.0464966 0)
(0.000282881 -0.0456873 0)
(-0.00016455 -0.0449767 0)
(-0.000481797 -0.0466075 0)
(0.000543565 -0.050179 0)
(0.000657201 -0.0477462 0)
(0.0010929 -0.0466811 0)
(0.000244462 -0.0453245 0)
(7.02869e-05 -0.0459628 0)
(-0.00124524 -0.0481266 0)
(-0.0008332 -0.0481016 0)
(0.000485783 -0.0454051 0)
(-0.000611515 -0.0450797 0)
(-0.000207366 -0.0463946 0)
(-8.34861e-05 -0.0465378 0)
(0.000142084 -0.0463621 0)
(0.000633441 -0.0480087 0)
(0.000632452 -0.0485502 0)
(-0.000514718 -0.052241 0)
(-0.000210922 -0.0528634 0)
(9.86376e-05 -0.0529921 0)
(7.64828e-05 -0.0518339 0)
(-0.000124251 -0.0557286 0)
(0.000921859 -0.0546336 0)
(-0.000312927 -0.0504802 0)
(0.000307653 -0.0505509 0)
(0.000518385 -0.0525109 0)
(0.000433395 -0.0504278 0)
(0.00107709 -0.0510675 0)
(0.00113917 -0.0498878 0)
(0.000802592 -0.0491255 0)
(-2.40178e-05 -0.0496762 0)
(0.00034607 -0.0483091 0)
(-1.09097e-05 -0.0473319 0)
(-0.000283798 -0.0474031 0)
(0.000514397 -0.0454336 0)
(-0.00125921 -0.0468668 0)
(4.73439e-05 -0.0464375 0)
(-0.000190258 -0.0485261 0)
(-0.000112878 -0.0494318 0)
(0.000131911 -0.0487762 0)
(-7.2935e-05 -0.0483162 0)
(0.000378514 -0.0497525 0)
(0.000125907 -0.04839 0)
(8.95237e-05 -0.0474025 0)
(-0.000695394 -0.0465568 0)
(0.000497419 -0.0470534 0)
(0.000612033 -0.0478432 0)
(0.000305488 -0.0467046 0)
(4.4721e-05 -0.0479304 0)
(-0.000896883 -0.0430881 0)
(3.8885e-05 -0.0452535 0)
(-0.00010562 -0.0454008 0)
(0.000279595 -0.0480821 0)
(0.000165665 -0.0488307 0)
(0.000537979 -0.0484893 0)
(0.000515837 -0.0484657 0)
(0.000742458 -0.046371 0)
(0.000641243 -0.0464695 0)
(0.000101591 -0.0468398 0)
(3.32615e-05 -0.0465208 0)
(0.000234852 -0.0440478 0)
(-3.44291e-05 -0.0420268 0)
(-0.000290583 -0.0418189 0)
(-0.000586758 -0.0426358 0)
(-0.000808024 -0.0428521 0)
(0.000224048 -0.0414957 0)
(0.00071876 -0.0419596 0)
(-0.000494235 -0.0430325 0)
(-0.000673854 -0.043275 0)
(0.000719059 -0.0439881 0)
(-0.000168823 -0.0474658 0)
(-0.000849418 -0.0504197 0)
(0.000461601 -0.0506787 0)
(-4.07816e-05 -0.0509286 0)
(-0.000117336 -0.0514164 0)
(-0.00110622 -0.0508036 0)
(-0.00152199 -0.0489483 0)
(0.000730243 -0.0489347 0)
(0.000465036 -0.049225 0)
(-6.35035e-05 -0.0488108 0)
(0.00042724 -0.049045 0)
(0.000351449 -0.0478489 0)
(0.000351537 -0.0473118 0)
(0.000267276 -0.0474064 0)
(-0.000210184 -0.0478571 0)
(0.00012636 -0.0463214 0)
(-0.00104596 -0.0468286 0)
(-0.000278907 -0.0481798 0)
(0.000265385 -0.0483993 0)
(0.000279222 -0.049137 0)
(0.000405257 -0.0493925 0)
(0.000800396 -0.0494312 0)
(-0.000949365 -0.0480152 0)
(-0.00111215 -0.0477541 0)
(-0.000842162 -0.0473474 0)
(0.00066102 -0.0444977 0)
(1.75294e-05 -0.0462924 0)
(0.000476191 -0.046547 0)
(0.000280831 -0.0450453 0)
(0.000426368 -0.0437524 0)
(-8.25151e-05 -0.0441317 0)
(0.00028402 -0.0480933 0)
(5.16873e-05 -0.0496111 0)
(-0.000139209 -0.0510708 0)
(0.000672118 -0.0485236 0)
(0.000638943 -0.047896 0)
(0.000548188 -0.0477732 0)
(0.000477695 -0.0466711 0)
(0.000503511 -0.0470977 0)
(0.000272225 -0.0469118 0)
(0.000444617 -0.0458276 0)
(-0.000265437 -0.045299 0)
(0.000169348 -0.0453936 0)
(-0.00188417 -0.040359 0)
(-0.000229135 -0.0427221 0)
(0.0011132 -0.0410921 0)
(-0.000124143 -0.0389687 0)
(0.000800611 -0.0385249 0)
(0.000815846 -0.0384325 0)
(-0.000107342 -0.0392587 0)
(0.000750839 -0.0438022 0)
(0.000109034 -0.0459992 0)
(-0.00013146 -0.0472698 0)
(-0.000281974 -0.0460929 0)
(-0.00197919 -0.0473618 0)
(0.000968791 -0.0459588 0)
(0.00112924 -0.0458259 0)
(0.00118357 -0.0461021 0)
(0.000851266 -0.0478072 0)
(0.000600709 -0.0491997 0)
(-0.000153096 -0.0487009 0)
(0.00019321 -0.0480706 0)
(0.000122917 -0.0469301 0)
(0.000250194 -0.0462209 0)
(1.75282e-05 -0.0463738 0)
(0.00186523 -0.0472683 0)
(-0.000454542 -0.0475238 0)
(-0.00043693 -0.0480091 0)
(2.026e-05 -0.0479398 0)
(9.01073e-05 -0.0479156 0)
(0.000430584 -0.0483436 0)
(-0.000623646 -0.0475861 0)
(-0.000850627 -0.0471477 0)
(-0.000175094 -0.0471395 0)
(-0.000108337 -0.0470269 0)
(0.000938692 -0.0434686 0)
(0.00135009 -0.0449674 0)
(0.000250554 -0.0447582 0)
(-0.000811112 -0.045391 0)
(-0.000174747 -0.0437499 0)
(0.000437716 -0.0432823 0)
(-0.000502852 -0.0446394 0)
(-9.01161e-05 -0.0481636 0)
(0.000195331 -0.0484393 0)
(-0.000249593 -0.0497059 0)
(-8.24357e-05 -0.0495985 0)
(-4.25787e-05 -0.0489238 0)
(0.000247578 -0.0480168 0)
(-0.000501305 -0.0446584 0)
(0.000551581 -0.0468488 0)
(0.000436739 -0.0478395 0)
(0.000289666 -0.0456162 0)
(-0.000688432 -0.0456684 0)
(-0.000664139 -0.0458876 0)
(-0.00179188 -0.0484694 0)
(0.000414836 -0.042462 0)
(0.000677346 -0.0432287 0)
(0.000699072 -0.0486336 0)
(0.000687876 -0.0451375 0)
(0.00108128 -0.0443704 0)
(0.00121823 -0.0431564 0)
(0.000953594 -0.0439541 0)
(0.000538396 -0.0434174 0)
(-0.000287654 -0.0445385 0)
(-0.00017314 -0.0442969 0)
(0.00122951 -0.0467614 0)
(0.000253577 -0.0483179 0)
(-0.00040523 -0.047863 0)
(-0.00133955 -0.0478805 0)
(-0.000637164 -0.0459229 0)
(-0.000564117 -0.0453317 0)
(-0.000263331 -0.0436916 0)
(0.000260412 -0.0444897 0)
(-0.000814767 -0.0451265 0)
(-0.000574125 -0.0472956 0)
(-0.0005155 -0.0481712 0)
(0.00047344 -0.0480703 0)
(0.000772339 -0.0490651 0)
(-0.000434072 -0.0459045 0)
(-0.00133546 -0.0477156 0)
(-0.00110316 -0.0476627 0)
(-0.00109551 -0.0454634 0)
(-8.66318e-05 -0.0467869 0)
(-0.000183619 -0.0470291 0)
(0.000110822 -0.0475322 0)
(0.000256479 -0.0466528 0)
(0.000178818 -0.0438322 0)
(1.65641e-05 -0.0424132 0)
(0.000689875 -0.0410038 0)
(8.20273e-05 -0.0461878 0)
(0.000469296 -0.0458768 0)
(-0.000374443 -0.0451475 0)
(0.000387586 -0.0449224 0)
(-0.000740029 -0.0488352 0)
(0.0002486 -0.0483103 0)
(8.3433e-05 -0.0468189 0)
(1.76951e-05 -0.0439099 0)
(-0.000315173 -0.044933 0)
(6.95495e-05 -0.0450947 0)
(-0.000790814 -0.0480801 0)
(0.000265392 -0.0469443 0)
(-0.000456744 -0.0484021 0)
(0.000481003 -0.0494633 0)
(-0.000735252 -0.0494089 0)
(0.000158578 -0.0483706 0)
(1.12814e-06 -0.0482875 0)
(3.89566e-05 -0.050084 0)
(0.000439093 -0.0465352 0)
(0.00132383 -0.0460216 0)
(0.000801515 -0.0442804 0)
(0.00105742 -0.0457842 0)
(0.000960118 -0.04383 0)
(0.000214569 -0.0435687 0)
(-3.01428e-05 -0.0449864 0)
(-0.000101216 -0.0457277 0)
(0.000198914 -0.0467372 0)
(-6.07676e-05 -0.0457283 0)
(-0.000102761 -0.0431083 0)
(-0.000139685 -0.0457549 0)
(-0.00157577 -0.046099 0)
(-0.00108695 -0.0463461 0)
(7.47169e-05 -0.0452203 0)
(0.000293072 -0.0444633 0)
(-5.96826e-05 -0.0479449 0)
(0.000447016 -0.0468439 0)
(-5.61898e-05 -0.0450806 0)
(-1.88675e-05 -0.0445073 0)
(-0.000420475 -0.0442665 0)
(-0.00151772 -0.0478052 0)
(-0.000291197 -0.0466075 0)
(-8.83808e-05 -0.0482072 0)
(-1.58205e-05 -0.0485055 0)
(-0.000697509 -0.0464988 0)
(-0.00132861 -0.045075 0)
(-0.000717439 -0.0456157 0)
(0.00090285 -0.047499 0)
(-0.000178018 -0.0472351 0)
(-0.000568318 -0.046032 0)
(0.00186141 -0.0451911 0)
(0.00141141 -0.045455 0)
(-0.000473818 -0.0498796 0)
(-1.4552e-05 -0.0489391 0)
(-0.000697708 -0.0493248 0)
(-8.59634e-05 -0.0479882 0)
(-0.00017789 -0.0477723 0)
(-0.00029553 -0.0469455 0)
(0.000182581 -0.0471409 0)
(4.5208e-05 -0.0448521 0)
(0.000953791 -0.0455536 0)
(-0.000778169 -0.0462599 0)
(-0.00077503 -0.0503401 0)
(-0.00035694 -0.0503329 0)
(9.99654e-05 -0.0513382 0)
(0.0004731 -0.0512715 0)
(0.000341952 -0.0500104 0)
(-0.00178388 -0.0490631 0)
(-0.000862999 -0.0470308 0)
(-0.000813091 -0.0467675 0)
(-3.30549e-06 -0.0461184 0)
(0.00132002 -0.0459435 0)
(0.00067372 -0.0445302 0)
(-2.8171e-05 -0.0431597 0)
(0.000146265 -0.0431598 0)
(-0.000673562 -0.0427567 0)
(-0.000524418 -0.0442831 0)
(-0.000759861 -0.0450223 0)
(-0.000297897 -0.0441038 0)
(-0.000582914 -0.0451662 0)
(-4.26412e-05 -0.044177 0)
(-0.000403073 -0.0445075 0)
(-0.00108012 -0.0460734 0)
(-0.000236723 -0.0471359 0)
(0.000270808 -0.0463033 0)
(0.000173161 -0.0477104 0)
(0.000773749 -0.0441053 0)
(-1.12791e-05 -0.0442177 0)
(0.000285698 -0.0443767 0)
(2.43489e-05 -0.0449421 0)
(-0.00135315 -0.0457566 0)
(-0.000380292 -0.0457723 0)
(0.000467098 -0.0474083 0)
(0.000979595 -0.047699 0)
(0.000754072 -0.0480025 0)
(0.000358667 -0.0472856 0)
(0.000764934 -0.0472945 0)
(-0.000796053 -0.0470364 0)
(0.000415502 -0.0471869 0)
(-0.000129107 -0.0494831 0)
(-0.000332688 -0.0488577 0)
(0.000549584 -0.0478595 0)
(-4.92853e-05 -0.0492427 0)
(-0.000193656 -0.0498711 0)
(-9.50498e-05 -0.0481917 0)
(-0.000487822 -0.0494816 0)
(-0.000389717 -0.0464765 0)
(-0.000868315 -0.046439 0)
(-0.00204559 -0.0469562 0)
(0.000370245 -0.0490318 0)
(-8.27608e-06 -0.0495247 0)
(0.000111133 -0.0493834 0)
(2.86929e-05 -0.0491736 0)
(0.000217816 -0.0524037 0)
(0.000374842 -0.0497417 0)
(-3.39519e-05 -0.0492039 0)
(-0.00067812 -0.0461923 0)
(0.00131621 -0.0465444 0)
(-0.000208781 -0.0486436 0)
(-0.000841044 -0.0480474 0)
(0.000449375 -0.0472665 0)
(0.000691368 -0.0463676 0)
(7.98134e-05 -0.0442585 0)
(0.000278897 -0.0465248 0)
(5.17892e-05 -0.0438683 0)
(-0.000520005 -0.0432589 0)
(0.00137078 -0.0427555 0)
(0.000411275 -0.044734 0)
(-0.000444167 -0.0461198 0)
(-0.00052379 -0.0469831 0)
(0.000467747 -0.0454821 0)
(0.000734906 -0.0450954 0)
(0.00044816 -0.0464028 0)
(-0.000121312 -0.0459521 0)
(5.57278e-05 -0.046482 0)
(-0.000228096 -0.0460698 0)
(-0.000204956 -0.0454218 0)
(-0.000481038 -0.0442312 0)
(-0.000385799 -0.0469849 0)
(-0.000347471 -0.0460682 0)
(8.4475e-05 -0.0473618 0)
(0.000332366 -0.047201 0)
(0.000506126 -0.0469215 0)
(0.000213957 -0.0467769 0)
(0.000940813 -0.041116 0)
(-0.000183555 -0.0432297 0)
(-0.000149326 -0.0419309 0)
(0.000561214 -0.0449481 0)
(-0.000465669 -0.0466706 0)
(0.000382209 -0.0468311 0)
(-0.00106342 -0.0479328 0)
(-0.000140679 -0.049418 0)
(-0.000479597 -0.0494393 0)
(-0.000838705 -0.05031 0)
(-0.000235859 -0.0487528 0)
(-0.000701669 -0.0478041 0)
(-0.000204963 -0.0466401 0)
(-0.000132404 -0.0482445 0)
(7.62569e-05 -0.0483334 0)
(0.000464716 -0.0487792 0)
(-0.000816968 -0.0503405 0)
(-0.000361796 -0.0502148 0)
(-4.8901e-05 -0.0512665 0)
(-3.15954e-05 -0.0511073 0)
(2.89027e-05 -0.0510367 0)
(-0.000117551 -0.0509133 0)
(-0.000127799 -0.0493489 0)
(0.000410663 -0.0494795 0)
(-0.00075642 -0.0493969 0)
(8.86534e-05 -0.048291 0)
(-0.000537329 -0.0485228 0)
(-0.000259255 -0.0470931 0)
(-0.000298668 -0.0457384 0)
(-0.000170487 -0.0473012 0)
(0.000205308 -0.0475053 0)
(0.000268644 -0.0475843 0)
(3.23157e-05 -0.0476724 0)
(0.000125772 -0.0474801 0)
(0.000278907 -0.0476039 0)
(2.76111e-06 -0.0481342 0)
(0.000506339 -0.0463317 0)
(-0.000147162 -0.045493 0)
(2.62467e-05 -0.0456013 0)
(-0.000627622 -0.0427845 0)
(0.000404024 -0.041912 0)
(-0.000869594 -0.0432341 0)
(-0.000314711 -0.0435942 0)
(-2.47932e-05 -0.0433651 0)
(-0.000231323 -0.0448999 0)
(-0.000834779 -0.046446 0)
(-0.000479432 -0.0473548 0)
(-0.000372771 -0.0477873 0)
(0.000329862 -0.0451697 0)
(0.00172313 -0.0454463 0)
(-0.000135496 -0.0474072 0)
(0.000770777 -0.0443997 0)
(-9.83552e-05 -0.045108 0)
(-0.000762372 -0.0464779 0)
(1.54523e-05 -0.0467408 0)
(-0.000967707 -0.0470012 0)
(-0.000264544 -0.0468371 0)
(-0.000518785 -0.0452687 0)
(0.000136435 -0.0472213 0)
(-0.000484899 -0.0477149 0)
(-0.00149604 -0.0470147 0)
(-0.000367672 -0.0469236 0)
(-0.000482821 -0.046906 0)
(0.000608443 -0.0490836 0)
(-0.000276771 -0.0485856 0)
(-0.000968939 -0.0479087 0)
(-0.000137857 -0.0486756 0)
(0.000128938 -0.0507884 0)
(0.000116596 -0.0517719 0)
(-0.00022155 -0.0519492 0)
(-5.77113e-05 -0.0526226 0)
(-0.000491223 -0.0531121 0)
(-2.10346e-06 -0.0507986 0)
(-4.99506e-05 -0.0507027 0)
(2.26421e-05 -0.0508486 0)
(-8.5557e-05 -0.050116 0)
(-0.000365452 -0.0498711 0)
(-0.000388335 -0.0493476 0)
(-0.000480972 -0.0496571 0)
(-0.000596954 -0.0463988 0)
(-0.000506247 -0.047362 0)
(-0.000113141 -0.0490902 0)
(-0.000818755 -0.0492654 0)
(-0.000159692 -0.0492257 0)
(0.00019492 -0.048366 0)
(-8.06275e-05 -0.0471472 0)
(-0.000222458 -0.0473839 0)
(0.000187463 -0.0460753 0)
(6.65262e-05 -0.0458168 0)
(-0.000208729 -0.0430614 0)
(-0.000855289 -0.0408139 0)
(0.00146346 -0.0424848 0)
(-0.00107109 -0.0445198 0)
(-0.000652969 -0.0461554 0)
(-0.000403132 -0.0472065 0)
(0.000446024 -0.0457866 0)
(0.00022369 -0.0459324 0)
(0.000135164 -0.0480125 0)
(-8.19596e-05 -0.0478796 0)
(2.45935e-05 -0.0472989 0)
(0.000321414 -0.0474363 0)
(0.000468447 -0.0472988 0)
(0.000798177 -0.0478451 0)
(-0.000346504 -0.0508196 0)
(-7.017e-05 -0.0508601 0)
(-0.000599734 -0.0498038 0)
(-0.000178123 -0.0496653 0)
(-0.000370239 -0.0487997 0)
(-2.65839e-05 -0.0489766 0)
(-0.000489347 -0.0483898 0)
(0.000769064 -0.0453796 0)
(-0.000489078 -0.0478701 0)
(1.49759e-05 -0.0464243 0)
(-0.000313186 -0.0480867 0)
(-0.000164442 -0.0485803 0)
(-0.00187705 -0.0477707 0)
(-0.000223748 -0.0490967 0)
(-0.000179158 -0.0510092 0)
(-0.000955879 -0.052503 0)
(-0.000119894 -0.0523868 0)
(-0.000572739 -0.0525677 0)
(-0.000302125 -0.0536297 0)
(-0.000369874 -0.0513819 0)
(0.00047346 -0.0508534 0)
(0.000672738 -0.0494545 0)
(0.00208565 -0.0503875 0)
(0.00188515 -0.0521163 0)
(-0.000113692 -0.0519515 0)
(-0.000116809 -0.0519558 0)
(-0.000407686 -0.0513619 0)
(-0.000434407 -0.0506757 0)
(-0.000299451 -0.0485935 0)
(-0.000563049 -0.0483669 0)
(-0.000552931 -0.0484904 0)
(0.000211712 -0.048031 0)
(-0.000149277 -0.0469833 0)
(-0.000104431 -0.0466666 0)
(0.000217848 -0.0466597 0)
(1.17293e-05 -0.0465757 0)
(-6.03977e-05 -0.0466394 0)
(-0.000851376 -0.0450608 0)
(0.000751166 -0.0463955 0)
(-0.0010284 -0.0476769 0)
(-0.00124444 -0.0492363 0)
(-0.00062372 -0.0498416 0)
(0.000649627 -0.0474594 0)
(0.00123952 -0.0472682 0)
(-0.000364534 -0.0484825 0)
(-0.000271352 -0.0493797 0)
(-5.75407e-05 -0.0492683 0)
(-0.000103753 -0.0488157 0)
(-0.00012145 -0.0493352 0)
(-0.000213172 -0.0487262 0)
(-0.000142948 -0.0491119 0)
(-0.00055597 -0.0486814 0)
(0.000252601 -0.0506197 0)
(-0.000714835 -0.0509365 0)
(0.000358053 -0.0492424 0)
(-0.00105897 -0.0480006 0)
(-4.7897e-05 -0.0484079 0)
(0.000349859 -0.043656 0)
(0.000597307 -0.0442845 0)
(-0.000723604 -0.045422 0)
(9.3839e-05 -0.0454298 0)
(-0.000347748 -0.0466723 0)
(0.000217525 -0.0485803 0)
(-0.000558466 -0.0485367 0)
(-0.00121581 -0.0479974 0)
(-0.000501722 -0.0493253 0)
(-2.35706e-05 -0.0517772 0)
(-0.000215895 -0.0526267 0)
(-0.0012899 -0.0528797 0)
(-0.000673737 -0.0521508 0)
(-0.000227305 -0.0518222 0)
(0.000330686 -0.0520802 0)
(0.000427317 -0.0516721 0)
(0.00220199 -0.0522543 0)
(5.90381e-05 -0.0521969 0)
(-0.000706002 -0.0520117 0)
(-0.000693371 -0.0508423 0)
(-0.000466684 -0.0510946 0)
(-0.000234063 -0.0502695 0)
(-0.000327817 -0.0488466 0)
(-0.000733684 -0.0498409 0)
(-0.000231395 -0.0483527 0)
(0.000479847 -0.047375 0)
(-0.00012484 -0.0484747 0)
(-0.000244205 -0.0489015 0)
(-0.000127786 -0.0495529 0)
(2.98428e-05 -0.0472516 0)
(-0.00253247 -0.0462645 0)
(0.00239936 -0.0464139 0)
(-0.00055065 -0.0473004 0)
(-0.000404067 -0.0500511 0)
(0.000471657 -0.0506463 0)
(0.000978875 -0.0490644 0)
(0.000213956 -0.0480618 0)
(-0.000622902 -0.0495409 0)
(-0.000435144 -0.0496833 0)
(-0.000270162 -0.0491626 0)
(7.35453e-05 -0.0488661 0)
(0.00033444 -0.0485345 0)
(0.00024757 -0.049446 0)
(-0.000118178 -0.0465453 0)
(-0.000136665 -0.0467904 0)
(-0.000151604 -0.0468954 0)
(-6.49363e-05 -0.0434809 0)
(-0.000325626 -0.0440369 0)
(-0.00018928 -0.0435985 0)
(-0.00109672 -0.0435536 0)
(-0.000775916 -0.0428209 0)
(-0.000490178 -0.0430202 0)
(0.000287142 -0.0433637 0)
(0.000296747 -0.0424918 0)
(0.00097806 -0.039368 0)
(-0.000615703 -0.0448593 0)
(-0.00192575 -0.0457098 0)
(-0.000594755 -0.0455948 0)
(-0.000500117 -0.0472141 0)
(-8.1455e-05 -0.0497706 0)
(-3.09445e-06 -0.051217 0)
(-0.000242788 -0.0499864 0)
(-0.000211427 -0.0507675 0)
(-7.11176e-05 -0.051548 0)
(9.25755e-07 -0.0513428 0)
(9.39909e-05 -0.0502851 0)
(0.000190977 -0.0507176 0)
(0.000312463 -0.0521239 0)
(-0.000276538 -0.050939 0)