/*--------------------------------*- C++ -*----------------------------------*\
  =========                 |
  \\      /  F ield         | OpenFOAM: The Open Source CFD Toolbox
   \\    /   O peration     | Website:  https://openfoam.org
    \\  /    A nd           | Version:  12
     \\/     M anipulation  |
\*---------------------------------------------------------------------------*/
FoamFile
{
    format      ascii;
    class       volScalarField;
    location    "0.05";
    object      p;
}
// * * * * * * * * * * * * * * * * * * * * * * * * * * * * * * * * * * * * * //

dimensions      [0 2 -2 0 0 0 0];

internalField   nonuniform List<scalar> 
3750
(
0.311079
0.309505
0.307636
0.305854
0.30388
0.301848
0.299803
0.297753
0.295696
0.293634
0.291567
0.289497
0.287425
0.285347
0.283267
0.281192
0.279111
0.277029
0.274951
0.27287
0.270786
0.268702
0.26662
0.264539
0.26245
0.26036
0.258274
0.25619
0.254106
0.252022
0.249941
0.247855
0.245769
0.243685
0.241601
0.239517
0.237434
0.235347
0.233255
0.231163
0.229076
0.226993
0.224908
0.222823
0.220738
0.218652
0.216566
0.21448
0.212395
0.210309
0.208225
0.20614
0.204055
0.201971
0.199885
0.1978
0.195715
0.193631
0.191546
0.189462
0.187377
0.185289
0.183196
0.181108
0.179026
0.176943
0.174858
0.172775
0.170683
0.168583
0.166497
0.16441
0.162313
0.160226
0.158145
0.311332
0.309612
0.307684
0.305887
0.303899
0.301861
0.299813
0.29776
0.295701
0.293637
0.29157
0.2895
0.287426
0.285348
0.283269
0.281191
0.279112
0.277032
0.274954
0.272873
0.270785
0.2687
0.26662
0.264539
0.262452
0.260362
0.258274
0.25619
0.254105
0.25202
0.249939
0.247856
0.245772
0.243686
0.241599
0.239516
0.237433
0.235346
0.233256
0.231166
0.229078
0.226993
0.224909
0.222824
0.220738
0.218652
0.216566
0.21448
0.212394
0.210309
0.208224
0.20614
0.204056
0.201971
0.199886
0.1978
0.195715
0.193631
0.191546
0.189461
0.187376
0.185287
0.183197
0.18111
0.179026
0.176943
0.174857
0.17277
0.170679
0.168584
0.166499
0.164412
0.162316
0.160226
0.158146
0.311502
0.309721
0.307751
0.305933
0.303929
0.301881
0.299829
0.297773
0.295711
0.293645
0.291576
0.289505
0.287429
0.28535
0.28327
0.281193
0.279113
0.277032
0.274954
0.272874
0.27079
0.268702
0.26662
0.264537
0.262449
0.260363
0.258276
0.25619
0.254105
0.252021
0.249938
0.247855
0.245772
0.243689
0.241602
0.239516
0.237433
0.235348
0.233257
0.231165
0.229078
0.226993
0.224909
0.222825
0.220739
0.218653
0.216566
0.21448
0.212393
0.210308
0.208224
0.20614
0.204056
0.201973
0.199886
0.197798
0.195715
0.193631
0.191546
0.189461
0.187377
0.185286
0.183195
0.18111
0.179025
0.176941
0.174855
0.17277
0.170678
0.168583
0.166495
0.16441
0.162322
0.160232
0.158147
0.311619
0.309813
0.307819
0.305982
0.303966
0.30191
0.299851
0.297789
0.295726
0.293656
0.291583
0.289508
0.287429
0.285354
0.283276
0.281197
0.279116
0.277035
0.274955
0.272874
0.27079
0.268706
0.266623
0.264539
0.262451
0.260365
0.258278
0.25619
0.254104
0.252021
0.249938
0.247855
0.245772
0.243688
0.241603
0.239519
0.237436
0.235348
0.233258
0.231168
0.229078
0.226992
0.224909
0.222826
0.220741
0.218653
0.216566
0.214479
0.212391
0.210306
0.208223
0.206139
0.204055
0.201971
0.199886
0.197801
0.195716
0.193631
0.191545
0.189461
0.187378
0.185286
0.183194
0.181109
0.179024
0.176939
0.174853
0.172769
0.170679
0.168582
0.166491
0.164407
0.162322
0.160235
0.15815
0.311707
0.30989
0.307881
0.30603
0.304004
0.301941
0.299874
0.297807
0.29574
0.293668
0.291594
0.289515
0.287434
0.28536
0.283283
0.281202
0.279119
0.277038
0.274957
0.272875
0.270791
0.268708
0.266626
0.264545
0.262452
0.26036
0.258282
0.256193
0.254101
0.25202
0.249939
0.247855
0.245771
0.243688
0.241604
0.23952
0.237437
0.235351
0.233258
0.23117
0.229079
0.226989
0.22491
0.22283
0.220745
0.218653
0.216565
0.214479
0.212388
0.210303
0.208222
0.206139
0.204055
0.201971
0.199886
0.197802
0.195719
0.193631
0.191542
0.18946
0.187379
0.185287
0.183194
0.181109
0.179022
0.176936
0.174851
0.172765
0.170676
0.168583
0.166494
0.164407
0.162321
0.160235
0.158149
0.311777
0.309954
0.307936
0.306076
0.304042
0.301973
0.299899
0.297825
0.295754
0.29368
0.291604
0.289525
0.287446
0.285369
0.283292
0.281208
0.279122
0.27704
0.27496
0.272877
0.270793
0.268708
0.266626
0.264541
0.262452
0.260366
0.258285
0.256195
0.254103
0.25202
0.249939
0.247856
0.245771
0.243688
0.241604
0.239522
0.237441
0.235351
0.233256
0.231169
0.229081
0.226991
0.22491
0.222828
0.220744
0.218654
0.216564
0.214479
0.21239
0.210305
0.208222
0.206139
0.204055
0.201971
0.199886
0.197802
0.195719
0.193631
0.191542
0.189458
0.187376
0.185289
0.183202
0.181111
0.179018
0.176933
0.174849
0.172764
0.170674
0.168583
0.166494
0.164407
0.16232
0.160235
0.158149
0.311835
0.310009
0.307985
0.306118
0.304078
0.302001
0.299923
0.297846
0.295771
0.293694
0.291616
0.289536
0.287456
0.285378
0.2833
0.281217
0.279127
0.277042
0.274964
0.272882
0.270794
0.268706
0.266623
0.264541
0.262455
0.26037
0.258288
0.256198
0.254103
0.25202
0.249941
0.247856
0.245771
0.243687
0.241604
0.239521
0.237439
0.235351
0.233259
0.231172
0.229081
0.226993
0.224911
0.222827
0.220743
0.218655
0.216567
0.214481
0.212391
0.210304
0.208222
0.20614
0.204056
0.201971
0.199886
0.197801
0.195716
0.193631
0.191543
0.189456
0.187375
0.185292
0.183207
0.181113
0.179016
0.176928
0.174848
0.172766
0.170674
0.168579
0.166494
0.164407
0.162319
0.160235
0.15815
0.311885
0.310056
0.308028
0.306157
0.304112
0.302029
0.299945
0.297867
0.295789
0.29371
0.291629
0.289547
0.287466
0.285386
0.283304
0.281221
0.279135
0.277051
0.274967
0.272883
0.270795
0.268707
0.266626
0.264545
0.262457
0.260369
0.258286
0.256199
0.254109
0.252024
0.249945
0.247858
0.245769
0.243686
0.241602
0.23952
0.237437
0.235351
0.233261
0.231172
0.229085
0.226997
0.224913
0.222826
0.220738
0.218656
0.216573
0.214481
0.212387
0.210305
0.208224
0.206141
0.204056
0.201972
0.199886
0.197798
0.195713
0.193629
0.191543
0.189457
0.187374
0.185291
0.183206
0.181114
0.179019
0.176932
0.174847
0.172763
0.170677
0.168582
0.166489
0.164405
0.16232
0.160236
0.158149
0.311929
0.310098
0.308066
0.306191
0.30414
0.302055
0.29997
0.297887
0.295807
0.293728
0.291644
0.289557
0.287475
0.285395
0.283311
0.281225
0.279142
0.277055
0.274969
0.272886
0.270798
0.268709
0.266629
0.264548
0.262458
0.26037
0.258288
0.256202
0.254111
0.252022
0.249943
0.247861
0.245776
0.243687
0.241599
0.239519
0.237436
0.23535
0.233262
0.231176
0.229089
0.226997
0.224912
0.222824
0.220736
0.218656
0.216576
0.214484
0.212389
0.210306
0.208225
0.206143
0.204058
0.201974
0.199887
0.197794
0.19571
0.193629
0.191542
0.189455
0.187372
0.185289
0.183205
0.181115
0.179024
0.176935
0.174845
0.172759
0.170674
0.168582
0.166492
0.164405
0.162318
0.160235
0.158151
0.31197
0.310133
0.308095
0.306222
0.304171
0.302081
0.299991
0.297906
0.295825
0.293743
0.29166
0.28957
0.287482
0.285401
0.283318
0.281234
0.279146
0.277057
0.274974
0.27289
0.270799
0.268711
0.266631
0.264547
0.262459
0.260375
0.258292
0.256202
0.25411
0.252026
0.249945
0.247863
0.245775
0.243687
0.241603
0.239521
0.237438
0.235349
0.23326
0.231175
0.229091
0.226998
0.224907
0.222824
0.22074
0.218657
0.216573
0.214488
0.212395
0.210306
0.208224
0.206141
0.204057
0.201973
0.199887
0.197798
0.19571
0.193627
0.191542
0.189456
0.187372
0.185288
0.183204
0.181118
0.179028
0.176939
0.174845
0.172755
0.17067
0.168581
0.166494
0.164407
0.162318
0.160234
0.15815
0.311998
0.310163
0.308126
0.306248
0.304195
0.302104
0.300014
0.297927
0.295843
0.293758
0.29167
0.289581
0.287496
0.285411
0.283324
0.281241
0.27915
0.27706
0.27498
0.272892
0.270798
0.268713
0.266632
0.264547
0.262461
0.260379
0.258296
0.256203
0.25411
0.252027
0.249948
0.247863
0.245774
0.243689
0.241605
0.239523
0.237437
0.235349
0.233261
0.231173
0.229086
0.226998
0.224909
0.222825
0.220741
0.218657
0.216572
0.214486
0.212399
0.210314
0.208226
0.206138
0.204055
0.201972
0.19989
0.1978
0.195708
0.193625
0.191541
0.189456
0.187372
0.185287
0.183203
0.181116
0.179026
0.176939
0.174849
0.172754
0.170665
0.168581
0.166497
0.16441
0.162319
0.160233
0.158148
0.312026
0.31019
0.308152
0.306272
0.304217
0.302126
0.300035
0.297947
0.295861
0.293775
0.291682
0.289588
0.287505
0.285421
0.283334
0.281248
0.279153
0.277061
0.274982
0.272899
0.270804
0.268712
0.266632
0.264548
0.262461
0.260378
0.258294
0.256205
0.254117
0.252032
0.249949
0.247864
0.245777
0.243691
0.241605
0.239521
0.23744
0.235356
0.233264
0.231168
0.229084
0.226998
0.224908
0.222825
0.220742
0.21866
0.216572
0.214484
0.2124
0.210317
0.208229
0.206138
0.204054
0.20197
0.199887
0.197802
0.195714
0.193625
0.191539
0.189456
0.187372
0.185285
0.183199
0.181115
0.179028
0.176936
0.174845
0.172756
0.17067
0.168582
0.166494
0.164409
0.162322
0.160234
0.158145
0.312047
0.310214
0.308178
0.306295
0.304236
0.302145
0.300054
0.297965
0.295877
0.293791
0.291694
0.289595
0.287513
0.285433
0.283343
0.28125
0.279154
0.277066
0.274986
0.272907
0.270808
0.268709
0.266631
0.26455
0.262463
0.260379
0.258294
0.256207
0.254121
0.252036
0.249951
0.247868
0.245779
0.243688
0.241604
0.239524
0.237443
0.235357
0.233263
0.231169
0.229085
0.226998
0.224908
0.222824
0.220742
0.21866
0.216573
0.214484
0.212401
0.21032
0.208232
0.20614
0.204052
0.201968
0.199885
0.197801
0.195714
0.193629
0.191542
0.189457
0.187373
0.185281
0.183194
0.181111
0.179026
0.176939
0.174847
0.172755
0.17067
0.168582
0.166495
0.164409
0.162321
0.160234
0.158146
0.312067
0.310234
0.308198
0.306315
0.304257
0.302164
0.300071
0.29798
0.295891
0.293798
0.291702
0.289609
0.287521
0.285435
0.283349
0.281262
0.279164
0.277069
0.274988
0.272904
0.270813
0.26872
0.266634
0.26455
0.262464
0.260381
0.258297
0.256209
0.254123
0.252039
0.24995
0.247864
0.245778
0.243691
0.241608
0.239525
0.237442
0.235353
0.233262
0.231176
0.229094
0.227001
0.224903
0.222822
0.220742
0.218659
0.216575
0.214486
0.212401
0.21032
0.208233
0.206145
0.204054
0.201964
0.199884
0.197801
0.195714
0.193628
0.191543
0.189458
0.187373
0.185281
0.18319
0.18111
0.179024
0.176935
0.174848
0.172761
0.170673
0.168581
0.166493
0.164406
0.162319
0.160235
0.158149
0.312086
0.310253
0.308216
0.306333
0.304274
0.30218
0.300085
0.297993
0.295903
0.293808
0.291712
0.289619
0.287526
0.285438
0.283353
0.281266
0.279171
0.277078
0.274994
0.272907
0.270815
0.268725
0.266638
0.26455
0.262467
0.260386
0.258301
0.256208
0.254119
0.252038
0.249955
0.247866
0.245777
0.243693
0.241609
0.239527
0.237441
0.235351
0.233264
0.231178
0.229093
0.227001
0.224908
0.222825
0.220742
0.218658
0.216573
0.214487
0.212403
0.21032
0.208233
0.206147
0.204056
0.201966
0.199887
0.197802
0.195712
0.193626
0.191544
0.189459
0.187374
0.185279
0.183185
0.181107
0.179025
0.176936
0.174848
0.172762
0.170674
0.168584
0.166496
0.164403
0.162313
0.160231
0.158146
0.312102
0.31027
0.308233
0.30635
0.30429
0.302194
0.300098
0.298003
0.295911
0.293818
0.29172
0.289624
0.287533
0.285445
0.283357
0.281269
0.279177
0.277085
0.274997
0.272908
0.27082
0.26873
0.26664
0.264554
0.262469
0.260385
0.258299
0.25621
0.254123
0.252039
0.249956
0.247868
0.245778
0.243693
0.24161
0.239526
0.237442
0.235353
0.233265
0.23118
0.229091
0.227001
0.224912
0.222828
0.220742
0.218658
0.216572
0.214486
0.212403
0.210322
0.208232
0.206141
0.204057
0.201973
0.19989
0.197806
0.195712
0.19362
0.19154
0.189459
0.187372
0.185278
0.183189
0.181109
0.179028
0.176938
0.174845
0.17276
0.170674
0.168585
0.166493
0.164402
0.162316
0.16023
0.158143
0.312117
0.310285
0.308249
0.306365
0.304303
0.302207
0.300109
0.298012
0.29592
0.293826
0.291727
0.289631
0.287539
0.285451
0.283363
0.281274
0.279182
0.27709
0.274999
0.272908
0.270821
0.268734
0.266646
0.264557
0.26247
0.260387
0.2583
0.256212
0.254125
0.25204
0.249956
0.247871
0.245782
0.243693
0.241609
0.239526
0.237441
0.235355
0.23327
0.231184
0.229091
0.226999
0.224914
0.222831
0.220741
0.218654
0.216571
0.214488
0.212403
0.210318
0.208231
0.206144
0.204059
0.201976
0.199893
0.197807
0.19571
0.193619
0.191539
0.189455
0.187368
0.185279
0.183193
0.18111
0.179026
0.176941
0.174849
0.172759
0.170675
0.168581
0.166489
0.164403
0.16232
0.160229
0.158137
0.312131
0.310298
0.308264
0.30638
0.304314
0.302213
0.300119
0.298022
0.295926
0.293836
0.291738
0.289635
0.287541
0.285456
0.28337
0.281282
0.279187
0.277095
0.275001
0.272905
0.270821
0.268738
0.266648
0.264558
0.262473
0.260391
0.258301
0.256211
0.254126
0.252039
0.249956
0.247871
0.245785
0.243696
0.241609
0.239526
0.237441
0.235355
0.23327
0.231187
0.229092
0.226997
0.224919
0.222833
0.220738
0.218652
0.216572
0.21449
0.212403
0.210316
0.208231
0.206145
0.20406
0.201978
0.199893
0.197803
0.195711
0.193624
0.19154
0.189452
0.187364
0.185279
0.183194
0.181111
0.179024
0.176937
0.174851
0.172762
0.170673
0.16858
0.166487
0.164402
0.162317
0.160229
0.158142
0.312141
0.310308
0.308272
0.306388
0.304326
0.302227
0.300125
0.298028
0.295934
0.293839
0.291742
0.289644
0.287551
0.285462
0.283376
0.281289
0.279187
0.277089
0.275004
0.272913
0.270823
0.268737
0.26665
0.264561
0.262474
0.26039
0.258303
0.256215
0.254128
0.25204
0.249956
0.247873
0.245785
0.243697
0.241612
0.239527
0.237442
0.235353
0.233266
0.231182
0.229093
0.227004
0.224919
0.222833
0.220741
0.218653
0.216572
0.21449
0.212405
0.210318
0.208232
0.206145
0.204058
0.201975
0.19989
0.197802
0.195714
0.193628
0.191544
0.189454
0.187361
0.185276
0.183194
0.18111
0.179024
0.176937
0.17485
0.172763
0.170676
0.16858
0.166485
0.164401
0.162316
0.160229
0.158143
0.31215
0.310317
0.308279
0.306395
0.304333
0.302235
0.300135
0.298038
0.295941
0.293843
0.291745
0.28965
0.287556
0.285464
0.283377
0.281288
0.279192
0.277096
0.275008
0.272918
0.270826
0.268737
0.266653
0.264563
0.262473
0.260389
0.258305
0.25622
0.254129
0.252039
0.249955
0.247872
0.245786
0.2437
0.241616
0.239529
0.237439
0.235351
0.233266
0.231181
0.229095
0.227008
0.224919
0.222831
0.220742
0.218655
0.216573
0.214491
0.212408
0.210318
0.208229
0.206144
0.20406
0.201975
0.199889
0.197802
0.195714
0.193628
0.191542
0.189453
0.187365
0.185279
0.183195
0.18111
0.179023
0.176936
0.17485
0.172764
0.170673
0.168579
0.166489
0.164401
0.162314
0.160228
0.158142
0.312158
0.310324
0.308286
0.3064
0.304339
0.302241
0.300143
0.298049
0.295949
0.293848
0.291747
0.289649
0.287559
0.285469
0.283379
0.281288
0.279195
0.277104
0.275013
0.272918
0.270827
0.268741
0.266655
0.264564
0.262473
0.26039
0.258308
0.256222
0.254131
0.25204
0.249954
0.247872
0.245787
0.243702
0.241615
0.239527
0.237442
0.235353
0.233265
0.231181
0.229095
0.227007
0.224919
0.22283
0.220743
0.218658
0.216574
0.214492
0.21241
0.210319
0.208227
0.206145
0.204062
0.201975
0.199888
0.197802
0.195714
0.193627
0.19154
0.189453
0.187366
0.18528
0.183196
0.181111
0.179024
0.176936
0.174849
0.172763
0.170673
0.16858
0.16649
0.1644
0.162312
0.160226
0.15814
0.312166
0.31033
0.308291
0.306405
0.304343
0.302245
0.300147
0.29805
0.295952
0.293854
0.291752
0.289653
0.287562
0.285472
0.283382
0.281288
0.279196
0.277105
0.275014
0.272922
0.270831
0.268743
0.266654
0.264564
0.262474
0.26039
0.258306
0.256221
0.254134
0.252044
0.249956
0.247873
0.245788
0.243701
0.241614
0.23953
0.237447
0.235354
0.233261
0.231184
0.229097
0.227007
0.224918
0.222826
0.220743
0.218659
0.216574
0.214492
0.212408
0.210321
0.208232
0.206146
0.204064
0.201975
0.199887
0.197804
0.195714
0.193625
0.19154
0.189452
0.187366
0.185281
0.183196
0.181115
0.179025
0.176933
0.174849
0.172764
0.170674
0.168579
0.166487
0.164396
0.162309
0.160225
0.15814
0.312173
0.310336
0.308294
0.306408
0.304346
0.302248
0.300149
0.298052
0.295955
0.293855
0.291757
0.289658
0.287563
0.285473
0.283381
0.281288
0.279196
0.277106
0.275017
0.272925
0.270832
0.268745
0.266656
0.264564
0.262475
0.26039
0.258305
0.25622
0.254133
0.252046
0.249962
0.247877
0.24579
0.243699
0.24161
0.239529
0.237444
0.235354
0.233268
0.231188
0.229097
0.227001
0.224914
0.222829
0.220745
0.218661
0.216576
0.214493
0.212409
0.210325
0.208234
0.206144
0.204061
0.201974
0.199889
0.197806
0.195719
0.193627
0.191535
0.189449
0.187366
0.185283
0.183198
0.181115
0.179027
0.176938
0.17485
0.172762
0.170674
0.168576
0.166482
0.164396
0.16231
0.160225
0.15814
0.312177
0.31034
0.308299
0.306411
0.304348
0.302249
0.30015
0.298054
0.295959
0.293856
0.291754
0.289661
0.287568
0.285475
0.283382
0.281287
0.279194
0.277104
0.275016
0.272927
0.270835
0.268744
0.266658
0.264567
0.262475
0.260388
0.258305
0.256221
0.254133
0.252045
0.249961
0.247875
0.245789
0.243703
0.241613
0.239527
0.237443
0.235356
0.233271
0.231189
0.2291
0.227002
0.224911
0.222829
0.220746
0.218662
0.216578
0.214495
0.212408
0.210321
0.208236
0.20615
0.204061
0.201971
0.199887
0.197805
0.195722
0.193629
0.191534
0.189448
0.187367
0.185284
0.1832
0.181118
0.17903
0.176938
0.17485
0.17276
0.170669
0.168574
0.16648
0.164396
0.162315
0.160226
0.158137
0.312182
0.310345
0.308303
0.306413
0.304346
0.302247
0.300149
0.298053
0.295957
0.293857
0.291758
0.289665
0.287571
0.285477
0.283383
0.281284
0.27919
0.277102
0.275015
0.272928
0.270835
0.268744
0.26666
0.264572
0.262475
0.260385
0.258303
0.256219
0.254133
0.252048
0.249961
0.247874
0.245789
0.243703
0.241614
0.239528
0.237444
0.235357
0.23327
0.231189
0.229098
0.227003
0.224915
0.222829
0.220747
0.218664
0.216579
0.214494
0.212409
0.210323
0.208238
0.206152
0.204061
0.20197
0.199885
0.197802
0.195719
0.193629
0.191538
0.189451
0.187368
0.185285
0.183198
0.181115
0.179028
0.176941
0.174853
0.172757
0.170662
0.168573
0.166485
0.1644
0.162318
0.160227
0.158135
0.312182
0.310348
0.308307
0.306414
0.304346
0.302245
0.300145
0.298052
0.295959
0.293857
0.291757
0.289668
0.287572
0.285474
0.283382
0.281284
0.279187
0.277099
0.275013
0.272925
0.270835
0.268745
0.266659
0.264569
0.262478
0.260389
0.258304
0.256218
0.25413
0.252047
0.249962
0.247876
0.245791
0.243704
0.241613
0.239527
0.237444
0.235357
0.23327
0.231185
0.229097
0.227008
0.224918
0.22283
0.220748
0.218666
0.21658
0.214493
0.212409
0.210326
0.20824
0.206151
0.204063
0.20197
0.199882
0.1978
0.195715
0.193629
0.191539
0.189452
0.18737
0.185289
0.1832
0.181113
0.179027
0.176938
0.174852
0.172759
0.170664
0.168572
0.166485
0.164401
0.162316
0.160228
0.15814
0.312181
0.310344
0.308302
0.306412
0.304346
0.302246
0.300147
0.298051
0.295954
0.293855
0.291758
0.289666
0.287573
0.285472
0.283374
0.281283
0.27919
0.2771
0.275012
0.272925
0.270833
0.268742
0.266656
0.264568
0.262479
0.260391
0.258304
0.256218
0.254131
0.252047
0.249963
0.247876
0.245788
0.243703
0.241616
0.239529
0.237445
0.235357
0.233269
0.231185
0.229097
0.227007
0.22492
0.222833
0.220749
0.218666
0.216582
0.214495
0.212408
0.210324
0.208238
0.206149
0.204062
0.201973
0.199887
0.1978
0.19571
0.193625
0.191539
0.189453
0.187369
0.185286
0.1832
0.181114
0.179028
0.176944
0.174849
0.172751
0.170664
0.16858
0.166488
0.164397
0.162314
0.16023
0.158144
0.312176
0.310341
0.308303
0.30641
0.304341
0.302244
0.300146
0.29805
0.29595
0.293851
0.291757
0.289664
0.287567
0.285469
0.283376
0.281283
0.27919
0.277099
0.275011
0.272927
0.270832
0.268735
0.266653
0.264568
0.262479
0.260391
0.258305
0.256218
0.25413
0.252046
0.249962
0.247876
0.24579
0.243705
0.241617
0.239529
0.237444
0.235357
0.233271
0.231187
0.229097
0.227005
0.224919
0.222835
0.22075
0.218665
0.216581
0.214497
0.212411
0.210325
0.208237
0.206145
0.204057
0.201973
0.199889
0.197804
0.195714
0.193623
0.191537
0.189453
0.187369
0.185285
0.1832
0.181114
0.179027
0.176939
0.17485
0.172754
0.170663
0.16858
0.16649
0.164399
0.162315
0.16023
0.158144
0.31217
0.310336
0.308296
0.306407
0.304342
0.302242
0.300142
0.298045
0.295947
0.293849
0.291754
0.289658
0.287562
0.285469
0.283376
0.281283
0.279188
0.277094
0.275006
0.27292
0.270831
0.268741
0.266653
0.264566
0.262477
0.26039
0.258308
0.256217
0.254126
0.252044
0.249961
0.247876
0.245792
0.243708
0.241618
0.239528
0.237443
0.235357
0.233272
0.231188
0.2291
0.227006
0.224918
0.222836
0.22075
0.218664
0.21658
0.214495
0.212413
0.210327
0.208235
0.206143
0.204056
0.201973
0.199889
0.197805
0.195714
0.193623
0.19154
0.189454
0.187368
0.185285
0.183202
0.181116
0.179026
0.176935
0.174845
0.172755
0.170667
0.16858
0.166491
0.164403
0.162318
0.160231
0.158143
0.312164
0.31033
0.308289
0.306402
0.304341
0.302237
0.300136
0.298042
0.295942
0.293843
0.291746
0.289652
0.28756
0.28547
0.283376
0.281278
0.279184
0.277091
0.274999
0.272916
0.27083
0.268744
0.266652
0.26456
0.262475
0.26039
0.258305
0.256217
0.254129
0.252044
0.24996
0.247876
0.245793
0.243706
0.241617
0.23953
0.237444
0.23536
0.233272
0.231187
0.2291
0.227007
0.224919
0.222834
0.220748
0.218663
0.216579
0.214496
0.212414
0.210327
0.208235
0.206143
0.204057
0.201974
0.199889
0.197806
0.195714
0.193622
0.19154
0.189456
0.187369
0.185284
0.183199
0.181114
0.179027
0.176937
0.174844
0.172756
0.170671
0.168581
0.16649
0.164403
0.162317
0.160232
0.158147
0.312156
0.310321
0.30828
0.306394
0.304333
0.302234
0.300132
0.298036
0.295936
0.293835
0.291744
0.28965
0.287558
0.285464
0.283368
0.281276
0.279181
0.277087
0.274999
0.272913
0.270827
0.26874
0.266652
0.264562
0.262474
0.260388
0.258303
0.256217
0.25413
0.252044
0.249959
0.247875
0.24579
0.243703
0.241616
0.23953
0.237445
0.23536
0.233274
0.231189
0.229105
0.227011
0.224916
0.222832
0.220746
0.21866
0.216578
0.214495
0.212411
0.210326
0.20824
0.206147
0.204057
0.201974
0.199887
0.197801
0.195716
0.193627
0.191541
0.189457
0.18737
0.185283
0.183196
0.181112
0.179025
0.176936
0.174847
0.172759
0.170674
0.168582
0.166488
0.164402
0.162322
0.160233
0.158142
0.312148
0.310311
0.308269
0.306383
0.304323
0.302224
0.300123
0.298028
0.295931
0.293834
0.291743
0.289646
0.287549
0.28546
0.283363
0.28127
0.279178
0.277084
0.274996
0.272911
0.270824
0.268738
0.266652
0.264562
0.262472
0.260386
0.258302
0.256218
0.25413
0.252042
0.249959
0.247875
0.245788
0.243701
0.241615
0.23953
0.237445
0.23536
0.233276
0.23119
0.229105
0.22701
0.224914
0.222833
0.220748
0.218661
0.216578
0.214494
0.21241
0.210325
0.208239
0.206148
0.204058
0.201974
0.199888
0.197801
0.195714
0.193627
0.191541
0.189456
0.18737
0.185284
0.183197
0.181113
0.179025
0.176935
0.174848
0.172758
0.170669
0.168585
0.166493
0.164404
0.162326
0.160233
0.15814
0.312135
0.310301
0.30826
0.30637
0.304309
0.302213
0.300116
0.298022
0.295925
0.293827
0.291734
0.28964
0.287542
0.28545
0.28336
0.281271
0.279178
0.277081
0.274993
0.272908
0.270821
0.268736
0.266649
0.264561
0.262472
0.260384
0.2583
0.256215
0.254129
0.252043
0.249959
0.247875
0.245788
0.243699
0.241613
0.239528
0.237444
0.235361
0.233279
0.231188
0.229096
0.227009
0.224921
0.222839
0.220749
0.218658
0.216577
0.214494
0.212408
0.210323
0.208237
0.206148
0.20406
0.201974
0.19989
0.197802
0.195714
0.193627
0.191541
0.189455
0.18737
0.185285
0.183197
0.18111
0.179026
0.176938
0.174848
0.172755
0.170666
0.168583
0.166496
0.16441
0.162323
0.160233
0.158147
0.312121
0.310286
0.308245
0.306358
0.304298
0.302202
0.300105
0.298011
0.295916
0.29382
0.291726
0.289632
0.287537
0.285445
0.283357
0.281269
0.279173
0.277078
0.274993
0.272906
0.270818
0.268734
0.266646
0.264557
0.262471
0.260385
0.2583
0.256214
0.254127
0.252043
0.249958
0.247874
0.245789
0.2437
0.241611
0.239526
0.237443
0.23536
0.233277
0.231188
0.229096
0.227008
0.224922
0.222839
0.22075
0.218662
0.21658
0.214494
0.212407
0.210323
0.208236
0.206149
0.20406
0.201973
0.19989
0.197804
0.195717
0.193628
0.191539
0.189454
0.187369
0.185282
0.183195
0.18111
0.179026
0.176941
0.174849
0.172752
0.170663
0.168583
0.166498
0.164411
0.162322
0.160235
0.158149
0.312107
0.31027
0.308229
0.306343
0.304284
0.302189
0.300093
0.297999
0.295906
0.293812
0.291719
0.289624
0.287528
0.285438
0.283351
0.281261
0.279169
0.277078
0.274991
0.272903
0.270816
0.26873
0.266644
0.264557
0.262471
0.260385
0.2583
0.256212
0.254125
0.252042
0.249957
0.247872
0.245787
0.243701
0.241611
0.239523
0.237441
0.235358
0.233274
0.231189
0.2291
0.227007
0.22492
0.222837
0.220751
0.218666
0.216582
0.214496
0.212409
0.210325
0.208235
0.206143
0.20406
0.201976
0.199891
0.197804
0.195717
0.193627
0.191539
0.189454
0.187368
0.18528
0.183192
0.181109
0.179027
0.176936
0.174843
0.172755
0.170669
0.168586
0.166501
0.164412
0.162321
0.160234
0.158145
0.312095
0.310255
0.308208
0.306325
0.304268
0.302174
0.30008
0.297986
0.295896
0.293804
0.291706
0.28961
0.287522
0.285434
0.283346
0.281255
0.279164
0.277076
0.274989
0.2729
0.270812
0.268727
0.266642
0.264555
0.26247
0.260383
0.258296
0.256211
0.254125
0.252042
0.249957
0.247869
0.245785
0.2437
0.241609
0.239521
0.237441
0.235357
0.233272
0.231187
0.2291
0.227008
0.224921
0.222836
0.22075
0.218669
0.216585
0.214498
0.212407
0.210321
0.208235
0.206146
0.204061
0.201977
0.199894
0.197805
0.195714
0.193625
0.191538
0.189456
0.187368
0.185279
0.183192
0.181107
0.179021
0.176932
0.174846
0.172758
0.170671
0.16859
0.166506
0.164414
0.162315
0.160225
0.158141
0.312074
0.310239
0.308193
0.306304
0.30425
0.302159
0.300065
0.297971
0.29588
0.293789
0.291697
0.289605
0.287516
0.285428
0.283339
0.28125
0.279161
0.277075
0.274987
0.272895
0.270807
0.268724
0.26664
0.264552
0.262465
0.260381
0.258298
0.25621
0.254122
0.252038
0.249954
0.247869
0.245784
0.243699
0.241609
0.239522
0.237442
0.235357
0.233271
0.231187
0.229097
0.227006
0.224922
0.222837
0.220751
0.218667
0.216582
0.214497
0.21241
0.210324
0.208238
0.206149
0.204062
0.201976
0.19989
0.197807
0.195716
0.193623
0.191537
0.189455
0.187369
0.185277
0.183188
0.181105
0.17902
0.176932
0.174845
0.172759
0.170675
0.168595
0.166503
0.164404
0.162318
0.160232
0.158139
0.312052
0.310217
0.308173
0.306286
0.304232
0.302142
0.300048
0.297953
0.295863
0.293776
0.291688
0.289597
0.287509
0.285422
0.283332
0.281244
0.279157
0.277069
0.274981
0.272893
0.270805
0.268722
0.266636
0.264548
0.262464
0.26038
0.258295
0.256211
0.254122
0.252034
0.249951
0.247867
0.245784
0.243696
0.241607
0.239523
0.237441
0.235357
0.233273
0.231186
0.229093
0.227005
0.224922
0.222838
0.220752
0.218666
0.216581
0.214497
0.212412
0.210327
0.208244
0.206149
0.204056
0.201975
0.19989
0.197802
0.195715
0.193627
0.19154
0.189457
0.187368
0.185273
0.183188
0.181105
0.179019
0.17693
0.174843
0.172759
0.170675
0.168591
0.1665
0.164407
0.16232
0.160231
0.158139
0.312029
0.310196
0.308148
0.306259
0.304211
0.302121
0.300027
0.297938
0.295849
0.293762
0.291675
0.289587
0.2875
0.285414
0.283328
0.281244
0.279153
0.277062
0.274977
0.272889
0.2708
0.268715
0.266632
0.264548
0.262463
0.260377
0.258293
0.256208
0.254122
0.252034
0.249948
0.247866
0.245781
0.243694
0.241607
0.239524
0.237441
0.235357
0.233273
0.231184
0.229093
0.227007
0.224924
0.222841
0.220752
0.218662
0.21658
0.214497
0.212413
0.210329
0.208246
0.206149
0.204053
0.201973
0.19989
0.197803
0.195716
0.193631
0.19154
0.189451
0.187365
0.185276
0.183192
0.181106
0.179016
0.176928
0.174843
0.172759
0.170673
0.168587
0.1665
0.164409
0.16232
0.16023
0.158141
0.311997
0.310164
0.308124
0.30624
0.304187
0.302099
0.300009
0.297921
0.295835
0.293749
0.291662
0.289576
0.287491
0.285407
0.283322
0.281237
0.279149
0.277057
0.27497
0.272885
0.270799
0.268714
0.26663
0.264548
0.262462
0.260374
0.258291
0.256206
0.254118
0.252032
0.249948
0.247866
0.245781
0.243691
0.241605
0.239523
0.237441
0.235358
0.233275
0.231183
0.22909
0.227006
0.224925
0.222843
0.220752
0.218661
0.21658
0.214498
0.212415
0.210327
0.20824
0.20615
0.204059
0.201976
0.199891
0.197802
0.195715
0.193626
0.191537
0.18945
0.187365
0.185279
0.183192
0.181104
0.179017
0.17693
0.174844
0.17276
0.170672
0.168582
0.166496
0.164411
0.162321
0.160229
0.158141
0.311964
0.310133
0.308096
0.306213
0.304161
0.302075
0.299988
0.297903
0.295819
0.293736
0.291649
0.289563
0.287482
0.2854
0.283314
0.281228
0.279142
0.277054
0.274968
0.272882
0.270795
0.268711
0.266627
0.264545
0.262461
0.260374
0.258291
0.256204
0.254113
0.252028
0.249945
0.247863
0.245778
0.243691
0.241606
0.239524
0.237441
0.235358
0.233274
0.231185
0.229091
0.227005
0.224923
0.222839
0.220752
0.218665
0.216581
0.214497
0.212413
0.210326
0.208238
0.20615
0.204064
0.201982
0.199893
0.1978
0.195714
0.193622
0.191531
0.189449
0.187364
0.185279
0.183193
0.181106
0.17902
0.17693
0.174842
0.172759
0.170672
0.168581
0.166493
0.164409
0.162324
0.160231
0.158139
0.311926
0.310096
0.308064
0.306185
0.304132
0.302049
0.299966
0.297884
0.295803
0.29372
0.291635
0.289554
0.287472
0.285389
0.283306
0.281224
0.279138
0.277051
0.274967
0.272878
0.27079
0.268706
0.266623
0.264543
0.262458
0.260371
0.258287
0.256202
0.254116
0.252028
0.249942
0.247862
0.245776
0.243689
0.241606
0.239524
0.237441
0.235358
0.233276
0.231183
0.229088
0.227005
0.224923
0.222838
0.220752
0.218668
0.216581
0.214496
0.212414
0.210325
0.208236
0.20615
0.204064
0.201981
0.199897
0.197802
0.195707
0.193621
0.191534
0.18945
0.187363
0.185277
0.183194
0.181108
0.179019
0.17693
0.174841
0.172756
0.170671
0.168583
0.166493
0.164406
0.162321
0.160232
0.158144
0.311883
0.310054
0.308026
0.306153
0.304104
0.302021
0.299943
0.297865
0.295789
0.293704
0.29162
0.289544
0.287464
0.285379
0.283298
0.281218
0.279134
0.277049
0.274966
0.272873
0.270781
0.268702
0.266622
0.26454
0.262455
0.260372
0.258286
0.256199
0.254115
0.252028
0.249941
0.247859
0.245775
0.24369
0.241607
0.239524
0.237441
0.235358
0.233275
0.231182
0.22909
0.227006
0.224923
0.222838
0.220752
0.218671
0.216581
0.214491
0.21241
0.210325
0.208238
0.206152
0.204067
0.201979
0.199892
0.197802
0.195709
0.193622
0.191539
0.189452
0.187361
0.185273
0.183191
0.181107
0.179022
0.17693
0.174839
0.172757
0.170671
0.16858
0.166492
0.164408
0.162321
0.160233
0.158146
0.311835
0.310008
0.307983
0.306114
0.304071
0.301994
0.299918
0.297843
0.295768
0.29369
0.29161
0.289532
0.287452
0.285372
0.283294
0.281215
0.279125
0.277039
0.274959
0.272876
0.270785
0.268698
0.26662
0.264538
0.262451
0.260368
0.258285
0.256199
0.254112
0.252026
0.249941
0.247858
0.245774
0.24369
0.241607
0.239523
0.23744
0.235357
0.233271
0.23118
0.229093
0.227008
0.224923
0.222838
0.220754
0.218669
0.21658
0.214492
0.212409
0.210325
0.208239
0.206152
0.204066
0.201977
0.199887
0.1978
0.195712
0.193627
0.191546
0.189452
0.187355
0.185271
0.18319
0.181106
0.17902
0.176931
0.174842
0.172756
0.170669
0.16858
0.166493
0.164407
0.16232
0.160233
0.158147
0.311778
0.309954
0.307936