/*--------------------------------*- C++ -*----------------------------------*\
  =========                 |
  \\      /  F ield         | OpenFOAM: The Open Source CFD Toolbox
   \\    /   O peration     | Website:  https://openfoam.org
    \\  /    A nd           | Version:  12
     \\/     M anipulation  |
\*---------------------------------------------------------------------------*/
FoamFile
{
    format      ascii;
    class       surfaceScalarField;
    location    "0.05";
    object      phi.water;
}
// * * * * * * * * * * * * * * * * * * * * * * * * * * * * * * * * * * * * * //

dimensions      [0 3 -1 0 0 0 0];

internalField   nonuniform List<scalar> 
7375
(
-3.65156e-06
-9.80648e-08
-3.57064e-06
-4.37341e-08
-3.51641e-06
-1.78094e-08
-3.50353e-06
-1.28782e-08
-3.49621e-06
-7.31885e-09
-3.4914e-06
-4.81286e-09
-3.48733e-06
-4.06831e-09
-3.48455e-06
-2.77236e-09
-3.48256e-06
-1.99643e-09
-3.48103e-06
-1.52838e-09
-3.47986e-06
-1.17425e-09
-3.479e-06
-8.60187e-10
-3.47884e-06
-1.55258e-10
-3.47841e-06
-4.3375e-10
-3.47768e-06
-7.27192e-10
-3.47781e-06
1.3268e-10
-3.47753e-06
-2.86282e-10
-3.47656e-06
-9.63734e-10
-3.47543e-06
-1.12734e-09
-3.47445e-06
-9.86065e-10
-3.4746e-06
1.4908e-10
-3.47523e-06
6.27962e-10
-3.47532e-06
8.94666e-11
-3.47521e-06
-1.04706e-10
-3.47464e-06
-5.71928e-10
-3.47392e-06
-7.21761e-10
-3.47417e-06
2.54048e-10
-3.47435e-06
1.80601e-10
-3.47459e-06
2.38983e-10
-3.47538e-06
7.87571e-10
-3.47612e-06
7.41715e-10
-3.47589e-06
-2.27023e-10
-3.47452e-06
-1.36889e-09
-3.47404e-06
-4.84505e-10
-3.47454e-06
4.98329e-10
-3.47497e-06
4.3552e-10
-3.47566e-06
6.90282e-10
-3.47614e-06
4.77181e-10
-3.47592e-06
-2.21982e-10
-3.47508e-06
-8.37156e-10
-3.47423e-06
-8.52277e-10
-3.47402e-06
-2.13382e-10
-3.47395e-06
-6.60042e-11
-3.47382e-06
-1.29677e-10
-3.47369e-06
-1.31372e-10
-3.47363e-06
-5.51726e-11
-3.47366e-06
2.34946e-11
-3.47375e-06
8.92549e-11
-3.4739e-06
1.50194e-10
-3.47405e-06
1.49781e-10
-3.47414e-06
9.49298e-11
-3.47416e-06
2.13866e-11
-3.47409e-06
-7.60728e-11
-3.47389e-06
-1.95675e-10
-3.47387e-06
-1.64617e-11
-3.47405e-06
1.73156e-10
-3.47411e-06
6.34098e-11
-3.47414e-06
2.55246e-11
-3.47421e-06
7.0747e-11
-3.47439e-06
1.84494e-10
-3.47502e-06
6.32562e-10
-3.4757e-06
6.70567e-10
-3.47531e-06
-3.83722e-10
-3.4746e-06
-7.10348e-10
-3.47446e-06
-1.37412e-10
-3.47428e-06
-1.84042e-10
-3.47486e-06
5.75844e-10
-3.47663e-06
1.77048e-09
-3.47822e-06
1.58926e-09
-3.47789e-06
-3.25102e-10
-3.47709e-06
-8.01175e-10
-3.47621e-06
-8.80556e-10
-3.47498e-06
-1.22727e-09
-3.47485e-06
-1.35879e-10
-1.72545e-10
-3.92265e-06
-6.7109e-08
-3.88039e-06
-4.55789e-08
-3.83279e-06
-2.58261e-08
-3.82728e-06
-1.83868e-08
-3.8225e-06
-1.21033e-08
-3.81928e-06
-8.02748e-09
-3.81695e-06
-6.40198e-09
-3.81472e-06
-4.99999e-09
-3.81274e-06
-3.98045e-09
-3.81125e-06
-3.01057e-09
-3.81008e-06
-2.34778e-09
-3.80881e-06
-2.12855e-09
-3.80756e-06
-1.40523e-09
-3.80713e-06
-8.70756e-10
-3.80739e-06
-4.61574e-10
-3.80672e-06
-5.41733e-10
-3.80647e-06
-5.2897e-10
-3.80739e-06
-5.10412e-11
-3.80861e-06
9.20676e-11
-3.80894e-06
-6.51553e-10
-3.80715e-06
-1.64581e-09
-3.80586e-06
-6.59589e-10
-3.80572e-06
-4.4195e-11
-3.80654e-06
7.09097e-10
-3.8081e-06
9.87805e-10
-3.80838e-06
-4.39594e-10
-3.8071e-06
-1.02313e-09
-3.8068e-06
-1.2631e-10
-3.80666e-06
9.98407e-11
-3.80552e-06
-3.51703e-10
-3.8049e-06
1.25675e-10
-3.80523e-06
1.04896e-10
-3.80668e-06
7.36723e-11
-3.8063e-06
-8.63579e-10
-3.80493e-06
-8.66599e-10
-3.80467e-06
1.75896e-10
-3.8038e-06
-1.87607e-10
-3.80262e-06
-6.94835e-10
-3.80255e-06
-2.95462e-10
-3.8035e-06
1.11451e-10
-3.80426e-06
-8.92672e-11
-3.80442e-06
-5.26376e-11
-3.80433e-06
-1.58678e-10
-3.80412e-06
-3.38494e-10
-3.8039e-06
-3.46953e-10
-3.80384e-06
-1.15172e-10
-3.80388e-06
6.09731e-11
-3.80398e-06
1.8706e-10
-3.8042e-06
3.68341e-10
-3.80441e-06
3.6062e-10
-3.80453e-06
2.12645e-10
-3.80457e-06
6.83466e-11
-3.80452e-06
-1.25765e-10
-3.80414e-06
-5.75232e-10
-3.80412e-06
-4.49794e-11
-3.80446e-06
5.16966e-10
-3.80445e-06
4.95695e-11
-3.8044e-06
-2.00751e-11
-3.8044e-06
7.41307e-11
-3.80415e-06
-6.9463e-11
-3.80303e-06
-4.85591e-10
-3.80263e-06
2.73243e-10
-3.80381e-06
7.89834e-10
-3.8047e-06
1.8579e-10
-3.80521e-06
3.715e-10
-3.80642e-06
1.02703e-09
-3.80646e-06
6.07593e-10
-3.8048e-06
1.19716e-10
-3.80357e-06
3.5519e-10
-3.8044e-06
5.00451e-10
-3.80661e-06
1.40997e-09
-3.80859e-06
1.0985e-09
-3.80775e-06
-2.06284e-09
-3.8054e-06
-2.49181e-09
-4.9612e-10
-3.91257e-06
-4.62332e-08
-3.87897e-06
-3.87801e-08
-3.83927e-06
-2.59514e-08
-3.83862e-06
-1.90452e-08
-3.83618e-06
-1.4534e-08
-3.83268e-06
-1.15307e-08
-3.83057e-06
-8.51259e-09
-3.82899e-06
-6.57854e-09
-3.82719e-06
-5.77959e-09
-3.82603e-06
-4.1774e-09
-3.82542e-06
-2.95809e-09
-3.82624e-06
-1.3093e-09
-3.82752e-06
-1.24988e-10
-3.82693e-06
-1.45763e-09
-3.82507e-06
-2.32175e-09
-3.82407e-06
-1.54369e-09
-3.82347e-06
-1.12208e-09
-3.82225e-06
-1.27146e-09
-3.82179e-06
-3.71561e-10
-3.82277e-06
3.24892e-10
-3.82421e-06
-2.05102e-10
-3.82351e-06
-1.35796e-09
-3.8226e-06
-9.55199e-10
-3.82105e-06
-8.41737e-10
-3.81926e-06
-7.94506e-10
-3.81909e-06
-6.12819e-10
-3.81933e-06
-7.8063e-10
-3.81969e-06
2.26712e-10
-3.82008e-06
4.93214e-10
-3.82047e-06
3.85857e-11
-3.82035e-06
7.39777e-12
-3.82032e-06
7.18965e-11
-3.82044e-06
1.96049e-10
-3.82162e-06
3.18261e-10
-3.82191e-06
-5.84652e-10
-3.82045e-06
-1.28145e-09
-3.81947e-06
-1.16094e-09
-3.82e-06
-1.66184e-10
-3.81992e-06
-3.7826e-10
-3.81888e-06
-9.33063e-10
-3.81927e-06
3.00592e-10
-3.8198e-06
4.79676e-10
-3.81979e-06
-1.64443e-10
-3.81942e-06
-7.10799e-10
-3.81898e-06
-7.92091e-10
-3.81897e-06
-1.24239e-10
-3.81905e-06
1.46635e-10
-3.8191e-06
2.34043e-10
-3.8195e-06
7.65134e-10
-3.81984e-06
7.05402e-10
-3.81996e-06
3.27863e-10
-3.82005e-06
1.67449e-10
-3.82039e-06
2.06341e-10
-3.8215e-06
5.40138e-10
-3.82143e-06
-1.19365e-10
-3.82007e-06
-8.3879e-10
-3.81954e-06
-4.81655e-10
-3.81958e-06
2.33176e-11
-3.81983e-06
3.24045e-10
-3.81998e-06
7.71648e-11
-3.82018e-06
-2.83913e-10
-3.8199e-06
-9.54635e-12
-3.81944e-06
3.27796e-10
-3.81954e-06
2.87503e-10
-3.81971e-06
5.45654e-10
-3.81954e-06
8.51882e-10
-3.81965e-06
7.16704e-10
-3.8199e-06
3.74424e-10
-3.81891e-06
-6.34151e-10
-3.8187e-06
2.83195e-10
-3.81913e-06
1.84096e-09
-3.8189e-06
8.70727e-10
-3.82085e-06
-1.1226e-10
-3.82231e-06
-1.02713e-09
-1.0424e-09
-3.90323e-06
-3.46929e-08
-3.86958e-06
-3.21367e-08
-3.83219e-06
-2.38619e-08
-3.83203e-06
-1.9209e-08
-3.83123e-06
-1.53278e-08
-3.83045e-06
-1.23114e-08
-3.82956e-06
-9.40892e-09
-3.82899e-06
-7.14687e-09
-3.82898e-06
-5.78773e-09
-3.82833e-06
-4.83162e-09
-3.82702e-06
-4.26437e-09
-3.82555e-06
-2.78003e-09
-3.82398e-06
-1.6985e-09
-3.82306e-06
-2.36866e-09
-3.82262e-06
-2.76966e-09
-3.82211e-06
-2.05319e-09
-3.82195e-06
-1.27508e-09
-3.82214e-06
-1.08168e-09
-3.82173e-06
-7.81413e-10
-3.82096e-06
-4.54701e-10
-3.82068e-06
-4.7881e-10
-3.8212e-06
-8.41701e-10
-3.82097e-06
-1.18528e-09
-3.81962e-06
-2.18439e-09
-3.82015e-06
-2.6646e-10
-3.82246e-06
1.69207e-09
-3.82165e-06
-1.5896e-09
-3.82009e-06
-1.33334e-09
-3.82077e-06
1.17023e-09
-3.8211e-06
3.71152e-10
-3.82094e-06
-1.51276e-10
-3.82083e-06
-3.92508e-11
-3.8207e-06
7.04686e-11
-3.82044e-06
5.12376e-11
-3.82067e-06
-3.51938e-10
-3.82126e-06
-6.94433e-10
-3.82188e-06
-5.33352e-10
-3.82113e-06
-9.16961e-10
-3.82114e-06
-3.69659e-10
-3.82102e-06
-1.05025e-09
-3.82011e-06
-6.10353e-10
-3.82081e-06
1.1728e-09
-3.82094e-06
-3.38703e-11
-3.8203e-06
-1.35149e-09
-3.81937e-06
-1.71538e-09
-3.81963e-06
1.3421e-10
-3.81985e-06
3.6807e-10
-3.81958e-06
-3.83057e-11
-3.8203e-06
1.48919e-09
-3.82081e-06
1.21525e-09
-3.82075e-06
2.60289e-10
-3.82066e-06
8.039e-11
-3.82057e-06
1.17952e-10
-3.82021e-06
1.74111e-10
-3.82021e-06
-1.19003e-10
-3.82051e-06
-5.34573e-10
-3.82009e-06
-9.0262e-10
-3.82008e-06
1.75454e-11
-3.82072e-06
9.62821e-10
-3.82099e-06
3.44018e-10
-3.82083e-06
-4.45501e-10
-3.82048e-06
-3.6081e-10
-3.8201e-06
-5.1932e-11
-3.81989e-06
8.22521e-11
-3.82004e-06
6.99871e-10
-3.82018e-06
9.90918e-10
-3.8205e-06
1.03026e-09
-3.82168e-06
1.55904e-09
-3.82385e-06
1.53179e-09
-3.82307e-06
-4.97434e-10
-3.81999e-06
-1.2334e-09
-3.81912e-06
-4.56171e-12
-3.81949e-06
2.63958e-10
-3.82043e-06
-9.12894e-11
1.9485e-10
-3.89874e-06
-2.76447e-08
-3.86375e-06
-2.68917e-08
-3.82693e-06
-2.12607e-08
-3.82794e-06
-1.81977e-08
-3.82812e-06
-1.51543e-08
-3.82772e-06
-1.27088e-08
-3.82747e-06
-9.65898e-09
-3.82765e-06
-6.96602e-09
-3.82803e-06
-5.40662e-09
-3.82793e-06
-4.9362e-09
-3.82829e-06
-3.90139e-09
-3.82707e-06
-4.003e-09
-3.82393e-06
-4.83302e-09
-3.82264e-06
-3.65953e-09
-3.82192e-06
-3.49257e-09
-3.82139e-06
-2.57979e-09
-3.82167e-06
-9.95656e-10
-3.82186e-06
-8.89947e-10
-3.82144e-06
-1.20665e-09
-3.82087e-06
-1.02837e-09
-3.82081e-06
-5.36506e-10
-3.82145e-06
-1.97665e-10
-3.82242e-06
-2.19388e-10
-3.82593e-06
1.32981e-09
-3.82619e-06
-1.04953e-11
-3.82204e-06
-2.45532e-09
-3.82254e-06
-1.09283e-09
-3.82311e-06
-7.59269e-10
-3.82125e-06
-6.95548e-10
-3.82079e-06
-8.77324e-11
-3.82081e-06
-1.2473e-10
-3.82075e-06
-1.07381e-10
-3.82074e-06
6.24441e-11
-3.82073e-06
3.99337e-11
-3.8209e-06
-1.74494e-10
-3.82102e-06
-5.79717e-10
-3.82011e-06
-1.43734e-09
-3.82078e-06
-2.45884e-10
-3.82222e-06
1.06808e-09
-3.82359e-06
3.18059e-10
-3.82368e-06
-5.2235e-10
-3.82168e-06
-8.22796e-10
-3.82155e-06
-1.64059e-10
-3.82352e-06
6.14883e-10
-3.82563e-06
3.97209e-10
-3.82499e-06
-5.11934e-10
-3.82488e-06
2.62114e-10
-3.8251e-06
1.85007e-10
-3.82255e-06
-1.06251e-09
-3.8208e-06
-5.40885e-10
-3.82065e-06
1.1083e-10
-3.82064e-06
6.97834e-11
-3.82053e-06
1.74988e-11
-3.82039e-06
2.94161e-11
-3.82052e-06
6.67072e-12
-3.82105e-06
-3.47417e-12
-3.82195e-06
-1.40331e-12
-3.82189e-06
-3.5941e-11
-3.82123e-06
2.95411e-10
-3.82165e-06
7.70903e-10
-3.82336e-06
1.25857e-09
-3.82278e-06
-9.39141e-10
-3.81969e-06
-3.14625e-09
-3.81888e-06
-7.25837e-10
-3.81976e-06
1.57826e-09
-3.82015e-06
1.38292e-09
-3.81985e-06
7.31836e-10
-3.81874e-06
4.51079e-10
-3.81784e-06
6.32267e-10
-3.81868e-06
3.44235e-10
-3.81967e-06
-2.45361e-10
-3.81973e-06
5.38667e-11
-3.81977e-06
3.03353e-10
-3.8199e-06
4.2023e-11
-5.93664e-11
-3.89639e-06
-2.29489e-08
-3.8602e-06
-2.28814e-08
-3.8233e-06
-1.87791e-08
-3.82481e-06
-1.66896e-08
-3.8258e-06
-1.41601e-08
-3.82728e-06
-1.12336e-08
-3.82738e-06
-9.55847e-09
-3.82582e-06
-8.52733e-09
-3.82455e-06
-6.67731e-09
-3.82389e-06
-5.59493e-09
-3.82305e-06
-4.73687e-09
-3.82274e-06
-4.31118e-09
-3.82338e-06
-4.19833e-09
-3.82347e-06
-3.56279e-09
-3.8238e-06
-3.16954e-09
-3.82281e-06
-3.56731e-09
-3.82169e-06
-2.11374e-09
-3.82189e-06
-6.95632e-10
-3.82135e-06
-1.73957e-09
-3.82065e-06
-1.73349e-09
-3.82073e-06
-4.56346e-10
-3.82171e-06
7.79448e-10
-3.82304e-06
1.11962e-09
-3.82166e-06
-5.98133e-11
-3.82039e-06
-1.27605e-09
-3.82154e-06
-1.30352e-09
-3.82138e-06
-1.25741e-09
-3.82085e-06
-1.28932e-09
-3.82122e-06
-3.20073e-10
-3.82137e-06
6.0274e-11
-3.82082e-06
-6.73781e-10
-3.82059e-06
-3.41527e-10
-3.82076e-06
2.3495e-10
-3.82093e-06
2.14737e-10
-3.82131e-06
1.98624e-10
-3.82214e-06
2.5269e-10
-3.82427e-06
6.88451e-10
-3.82477e-06
2.61749e-10
-3.82224e-06
-1.46556e-09
-3.82097e-06
-9.52439e-10
-3.82137e-06
-1.23201e-10
-3.82148e-06
-7.09864e-10
-3.82123e-06
-4.13124e-10
-3.82104e-06
4.22694e-10
-3.82134e-06
6.96782e-10
-3.82152e-06
-3.34627e-10
-3.82023e-06
-1.02423e-09
-3.81919e-06
-8.56402e-10
-3.82021e-06
-4.20824e-11
-3.82114e-06
3.86768e-10
-3.82098e-06
-4.43286e-11
-3.8207e-06
-2.10435e-10
-3.82052e-06
-1.60123e-10
-3.82041e-06
-8.55934e-11
-3.82052e-06
1.19967e-10
-3.82105e-06
5.20816e-10
-3.82199e-06
9.43387e-10
-3.8217e-06
-3.27523e-10
-3.82088e-06
-5.20815e-10
-3.82089e-06
7.77986e-10
-3.82007e-06
4.38242e-10
-3.81983e-06
-1.17546e-09
-3.82091e-06
-2.06822e-09
-3.82059e-06
-1.04956e-09
-3.82009e-06
1.07623e-09
-3.82046e-06
1.75777e-09
-3.82008e-06
3.49579e-10
-3.81868e-06
-9.45759e-10
-3.818e-06
-4.97672e-11
-3.81899e-06
1.33855e-09
-3.81951e-06
2.68588e-10
-3.81966e-06
2.00948e-10
-3.82002e-06
6.69568e-10
-3.81999e-06
5.46617e-12
-1.02615e-10
-3.89498e-06
-1.96645e-08
-3.8579e-06
-1.97855e-08
-3.8207e-06
-1.66167e-08
-3.8222e-06
-1.51871e-08
-3.82288e-06
-1.34819e-08
-3.82312e-06
-1.09945e-08
-3.82375e-06
-8.92635e-09
-3.82409e-06
-8.19422e-09
-3.82359e-06
-7.17745e-09
-3.82289e-06
-6.2898e-09
-3.82235e-06
-5.27386e-09
-3.82236e-06
-4.30268e-09
-3.82277e-06
-3.78931e-09
-3.82313e-06
-3.20143e-09
-3.82446e-06
-1.84202e-09
-3.82671e-06
-1.31992e-09
-3.82559e-06
-3.23258e-09
-3.8226e-06
-3.6886e-09
-3.82336e-06
-9.74723e-10
-3.82479e-06
-3.0631e-10
-3.82467e-06
-5.72527e-10
-3.82341e-06
-4.82011e-10
-3.82117e-06
-1.11945e-09
-3.81972e-06
-1.50914e-09
-3.82027e-06
-7.2894e-10
-3.82194e-06
3.70586e-10
-3.82408e-06
8.81703e-10
-3.82494e-06
-4.36951e-10
-3.82301e-06
-2.2461e-09
-3.82143e-06
-1.52275e-09
-3.82047e-06
-1.62723e-09
-3.82027e-06
-5.40854e-10
-3.82076e-06
7.22308e-10
-3.82092e-06
3.71366e-10
-3.82125e-06
5.28705e-10
-3.82157e-06
5.69638e-10
-3.82182e-06
9.45515e-10
-3.82131e-06
-2.54434e-10
-3.82219e-06
-5.86242e-10
-3.82319e-06
5.18628e-11
-3.82185e-06
-1.46701e-09
-3.82098e-06
-1.57962e-09
-3.82057e-06
-8.237e-10
-3.82076e-06
6.20437e-10
-3.82195e-06
1.88466e-09
-3.82193e-06
-3.59775e-10
-3.82024e-06
-2.71237e-09
-3.8209e-06
-1.96652e-10
-3.82224e-06
1.29784e-09
-3.82143e-06
-4.18149e-10
-3.8209e-06
-5.80807e-10
-3.82064e-06
-4.61468e-10
-3.82046e-06
-3.49084e-10
-3.82022e-06
-3.26516e-10
-3.82014e-06
4.04271e-11
-3.8205e-06
8.80622e-10
-3.82065e-06
1.09858e-09
-3.82178e-06
7.99567e-10
-3.82233e-06
2.83122e-11
-3.82136e-06
-1.93338e-10
-3.82128e-06
3.61102e-10
-3.82318e-06
7.2831e-10
-3.82566e-06
4.10013e-10
-3.82657e-06
-1.4122e-10
-3.82397e-06
-1.52174e-09
-3.82066e-06
-1.55785e-09
-3.82075e-06
4.43766e-10
-3.82309e-06
1.39758e-09
-3.82217e-06
-9.68988e-10
-3.81986e-06
-9.7573e-10
-3.8213e-06
1.70614e-09
-3.8217e-06
6.02277e-10
-3.82055e-06
-4.79297e-10
-3.81996e-06
-5.79838e-10
1.42466e-10
-3.89396e-06
-1.74029e-08
-3.85632e-06
-1.72591e-08
-3.81894e-06
-1.46524e-08
-3.82068e-06
-1.34475e-08
-3.82299e-06
-1.11776e-08
-3.82351e-06
-1.04682e-08
-3.82275e-06
-9.68994e-09
-3.82281e-06
-8.13561e-09
-3.8227e-06
-7.28647e-09
-3.82201e-06
-6.98409e-09
-3.82152e-06
-5.76177e-09
-3.82184e-06
-3.97687e-09
-3.82218e-06
-3.45696e-09
-3.82177e-06
-3.60741e-09
-3.82107e-06
-2.54252e-09
-3.82055e-06
-1.83787e-09
-3.82115e-06
-2.62999e-09
-3.82338e-06
-1.46664e-09
-3.82355e-06
-7.98858e-10
-3.82236e-06
-1.49662e-09
-3.82199e-06
-9.44226e-10
-3.8217e-06
-7.71018e-10
-3.82171e-06
-1.10782e-09
-3.82194e-06
-1.28005e-09
-3.82204e-06
-6.30011e-10
-3.82114e-06
-5.29575e-10
-3.81964e-06
-6.2419e-10
-3.81896e-06
-1.11446e-09
-3.82058e-06
-6.2723e-10
-3.82278e-06
6.79731e-10
-3.825e-06
5.89041e-10
-3.82434e-06
-1.19614e-09
-3.82079e-06
-2.82617e-09
-3.82018e-06
-2.43499e-10
-3.82113e-06
1.48511e-09
-3.821e-06
4.40887e-10
-3.82026e-06
2.03756e-10
-3.82111e-06
5.93284e-10
-3.82143e-06
-2.62152e-10
-3.81968e-06
-1.69772e-09
-3.81941e-06
-1.73884e-09
-3.8209e-06
-8.84187e-11
-3.82227e-06
5.45299e-10
-3.82222e-06
5.66762e-10
-3.82127e-06
9.3803e-10
-3.82151e-06
-1.22477e-10
-3.82334e-06
-8.8751e-10
-3.82265e-06
-8.84931e-10
-3.82075e-06
-5.99311e-10
-3.82083e-06
-3.32806e-10
-3.821e-06
-4.10798e-10
-3.82068e-06
-7.85667e-10
-3.82058e-06
-4.46631e-10
-3.82013e-06
-7.83039e-10
-3.81969e-06
-3.93361e-10
-3.82037e-06
1.56075e-09
-3.82064e-06
1.3632e-09
-3.81993e-06
8.74463e-11
-3.8201e-06
2.02273e-10
-3.82095e-06
6.53338e-10
-3.82102e-06
4.37586e-10
-3.82076e-06
4.64346e-10
-3.82062e-06
2.67055e-10
-3.82004e-06
-7.12047e-10
-3.81959e-06
-1.97559e-09
-3.82001e-06
-1.13686e-09
-3.82043e-06
8.61493e-10
-3.82042e-06
1.38907e-09
-3.82237e-06
9.78052e-10
-3.8231e-06
-2.4796e-10
-3.82019e-06
-1.20185e-09
-3.8195e-06
-8.46486e-11
-3.82087e-06
8.90495e-10
-3.8221e-06
6.51301e-10
-5.18555e-10
-3.89311e-06
-1.59842e-08
-3.85553e-06
-1.46931e-08
-3.81985e-06
-1.09908e-08
-3.82091e-06
-1.23912e-08
-3.8198e-06
-1.22904e-08
-3.82015e-06
-1.01208e-08
-3.82143e-06
-8.40085e-09
-3.82221e-06
-7.36347e-09
-3.82253e-06
-6.96703e-09
-3.8234e-06
-6.11236e-09
-3.82261e-06
-6.55436e-09
-3.82146e-06
-5.12126e-09
-3.82216e-06
-2.75341e-09
-3.82325e-06
-2.52253e-09
-3.82281e-06
-2.98364e-09
-3.82105e-06
-3.59354e-09
-3.82207e-06
-1.61194e-09
-3.82271e-06
-8.24784e-10
-3.82143e-06
-2.08576e-09
-3.82155e-06
-1.36798e-09
-3.82194e-06
-5.55513e-10
-3.82194e-06
-7.77225e-10
-3.82216e-06
-8.86857e-10
-3.82417e-06
7.35468e-10
-3.82477e-06
-3.08344e-11
-3.82336e-06
-1.93759e-09
-3.82224e-06
-1.74399e-09
-3.82337e-06
1.53004e-11
-3.82419e-06
1.87921e-10
-3.82203e-06
-1.48475e-09
-3.82061e-06
-8.29653e-10
-3.82104e-06
-7.63924e-10
-3.82429e-06
4.24143e-10
-3.8246e-06
6.55777e-11
-3.8216e-06
-1.51155e-09
-3.82038e-06
-7.75783e-10
-3.8197e-06
-4.84224e-10
-3.81934e-06
2.3683e-10
-3.82026e-06
6.62095e-10
-3.82234e-06
3.75668e-10
-3.82337e-06
-7.06053e-10
-3.82316e-06
-2.96088e-10
-3.82457e-06
1.95189e-09
-3.82422e-06
2.2207e-10
-3.82171e-06
-1.57416e-09
-3.82154e-06
-2.9426e-10
-3.82331e-06
8.86499e-10
-3.82252e-06
-1.68063e-09
-3.82063e-06
-2.49326e-09
-3.8209e-06
-6.08093e-11
-3.82148e-06
1.75734e-10
-3.82295e-06
6.7785e-10
-3.82377e-06
3.80733e-10
-3.82507e-06
5.09834e-10
-3.82539e-06
-7.08566e-11
-3.82255e-06
-1.27615e-09
-3.82103e-06
-1.61972e-10
-3.82196e-06
1.02358e-09
-3.82209e-06
3.27257e-10
-3.82103e-06
-4.08281e-10
-3.82074e-06
1.45277e-10
-3.82079e-06
5.22186e-10
-3.82118e-06
6.49966e-10
-3.82104e-06
-8.5286e-10
-3.82141e-06
-1.60338e-09
-3.82109e-06
-1.45562e-09
-3.82007e-06
-1.56933e-10
-3.82027e-06
1.58463e-09
-3.8208e-06
1.50747e-09
-3.82163e-06
5.83527e-10
-3.82217e-06
-6.62097e-10
-3.82171e-06
-5.45251e-10
-3.82088e-06
6.19629e-11
-3.82054e-06
3.1715e-10
1.67632e-10
-3.89654e-06
-1.11407e-08
-3.85829e-06
-1.27548e-08
-3.81792e-06
-1.20042e-08
-3.82002e-06
-1.02898e-08
-3.82292e-06
-9.39109e-09
-3.82361e-06
-9.4306e-09
-3.82261e-06
-9.40592e-09
-3.8214e-06
-8.56627e-09
-3.82127e-06
-7.10063e-09
-3.82149e-06
-5.89427e-09
-3.82393e-06
-4.11378e-09
-3.82454e-06
-4.5041e-09
-3.8216e-06
-5.69605e-09
-3.82039e-06
-3.73119e-09
-3.82091e-06
-2.46553e-09
-3.8218e-06
-2.70346e-09
-3.82166e-06
-1.75076e-09
-3.82113e-06
-1.35874e-09
-3.8207e-06
-2.51397e-09
-3.82113e-06
-9.34153e-10
-3.82202e-06
3.34313e-10
-3.82213e-06
-6.71349e-10
-3.82289e-06
-1.31764e-10
-3.82206e-06
-9.428e-11
-3.82099e-06
-1.09861e-09
-3.82118e-06
-1.74065e-09
-3.82151e-06
-1.42382e-09
-3.82102e-06
-4.69442e-10
-3.82078e-06
-5.42605e-11
-3.82167e-06
-5.95733e-10
-3.82135e-06
-1.14252e-09
-3.82209e-06
-2.71593e-11
-3.82192e-06
2.52076e-10
-3.82077e-06
-1.08003e-09
-3.82122e-06
-1.06462e-09
-3.8212e-06
-7.93764e-10
-3.82174e-06
5.57751e-11
-3.82137e-06
-1.3947e-10
-3.82015e-06
-5.56787e-10
-3.82069e-06
9.14008e-10
-3.8231e-06
1.70943e-09
-3.8235e-06
1.00582e-10
-3.82063e-06
-9.20386e-10
-3.82001e-06
-3.95119e-10
-3.82101e-06
-5.76126e-10
-3.82096e-06
-3.42048e-10
-3.82057e-06
4.9958e-10
-3.8231e-06
8.45287e-10
-3.82413e-06
-1.46184e-09
-3.8211e-06
-3.09104e-09
-3.82018e-06
-7.43989e-10
-3.82059e-06
1.08895e-09
-3.82078e-06
5.6703e-10
-3.82033e-06
6.5365e-11
-3.81923e-06
-1.16785e-09
-3.81975e-06
-7.63109e-10
-3.8207e-06
7.85585e-10
-3.82032e-06
6.49657e-10
-3.82024e-06
2.4645e-10
-3.82061e-06
-3.4383e-11
-3.82062e-06
1.53383e-10
-3.82055e-06
4.44872e-10
-3.82019e-06
2.91152e-10
-3.82179e-06
7.47915e-10
-3.82426e-06
8.74223e-10
-3.82542e-06
-2.96638e-10
-3.82391e-06
-1.66881e-09
-3.82257e-06
2.45345e-10
-3.82312e-06
2.05865e-09
-3.82238e-06
-1.57276e-10
-3.82195e-06
-1.09707e-09
-3.82139e-06
-1.09904e-09
-3.82076e-06
-5.74443e-10
-3.82068e-06
2.38902e-10
9.55221e-10
-3.89195e-06
-1.08883e-08
-3.85332e-06
-1.12512e-08
-3.8162e-06
-9.81767e-09
-3.81705e-06
-9.43711e-09
-3.81768e-06
-8.76101e-09
-3.81854e-06
-8.56861e-09
-3.81959e-06
-8.35571e-09
-3.82036e-06
-7.80044e-09
-3.82034e-06
-7.11844e-09
-3.81947e-06
-6.75888e-09
-3.81899e-06
-4.59444e-09
-3.82058e-06
-2.9194e-09
-3.82284e-06
-3.43509e-09
-3.82246e-06
-4.10978e-09
-3.82095e-06
-3.9737e-09
-3.82087e-06
-2.78289e-09
-3.82142e-06
-1.20383e-09
-3.82238e-06
-4.03996e-10
-3.82429e-06
-5.97588e-10
-3.82259e-06
-2.63769e-09
-3.81985e-06
-2.3997e-09
-3.82075e-06
2.20961e-10
-3.82058e-06
-2.94647e-10
-3.82034e-06
-3.42203e-10
-3.82161e-06
1.72364e-10
-3.82375e-06
4.07359e-10
-3.82592e-06
7.40914e-10
-3.82551e-06
-8.76522e-10
-3.82292e-06
-2.64699e-09
-3.82162e-06
-1.89266e-09
-3.82245e-06
-3.12839e-10
-3.82177e-06
-7.06341e-10
-3.82027e-06
-1.25319e-09
-3.8205e-06
-8.46667e-10
-3.82149e-06
-7.42455e-11
-3.82288e-06
5.93277e-10
-3.82193e-06
-8.89163e-10
-3.81935e-06
-2.7229e-09
-3.81896e-06
-9.44483e-10
-3.81985e-06
1.80465e-09
-3.8192e-06
1.05262e-09
-3.8192e-06
1.03628e-10
-3.82043e-06
3.1392e-10
-3.82077e-06
-6.02723e-11
-3.82085e-06
-4.94722e-10
-3.82028e-06
-9.09246e-10
-3.81982e-06
3.27629e-11
-3.81977e-06
8.00384e-10
-3.82062e-06
-6.16506e-10
-3.82214e-06
-1.56285e-09
-3.82194e-06
-9.5255e-10
-3.82088e-06
2.89634e-11
-3.82085e-06
5.44633e-10
-3.82154e-06
7.47939e-10
-3.82378e-06
1.07586e-09
-3.82353e-06
-1.00905e-09
-3.82054e-06
-2.20805e-09
-3.81988e-06
-1.15065e-11
-3.82033e-06
6.99523e-10
-3.82042e-06
5.8353e-11
-3.82036e-06
8.42871e-11
-3.82082e-06
9.13274e-10
-3.82207e-06
1.53556e-09
-3.82151e-06
1.90206e-10
-3.82011e-06
-5.27589e-10
-3.82162e-06
1.20962e-09
-3.8249e-06
1.61928e-09
-3.82406e-06
-5.93688e-10
-3.82013e-06
-1.87084e-09
-3.82003e-06
-2.642e-10
-3.82231e-06
1.18383e-09
-3.82364e-06
2.28705e-10
-3.82282e-06
-1.3896e-09
-3.82244e-06
-1.39219e-10
1.14618e-09
-3.89408e-06
-8.50155e-09
-3.85517e-06
-1.00152e-08
-3.81555e-06
-1.01037e-08
-3.81608e-06
-8.9045e-09
-3.81719e-06
-7.65369e-09
-3.81805e-06
-7.70943e-09
-3.81892e-06
-7.48661e-09
-3.8197e-06
-7.02221e-09
-3.82015e-06
-6.66812e-09
-3.82033e-06
-6.57938e-09
-3.82018e-06
-4.74085e-09
-3.82062e-06
-2.47801e-09
-3.82073e-06
-3.33315e-09
-3.82017e-06
-4.6607e-09
-3.82058e-06
-3.56628e-09
-3.82254e-06
-8.21736e-10
-3.82328e-06
-4.69221e-10
-3.8218e-06
-1.88495e-09
-3.82054e-06
-1.85229e-09
-3.82007e-06
-3.10814e-09
-3.82087e-06
-1.6064e-09
-3.82199e-06
1.34731e-09
-3.82274e-06
4.5572e-10
-3.82225e-06
-8.36611e-10
-3.82109e-06
-9.82777e-10
-3.82029e-06
-3.97794e-10
-3.81932e-06
-2.28248e-10
-3.81937e-06
-8.20993e-10
-3.82045e-06
-1.57209e-09
-3.82095e-06
-1.38823e-09
-3.82056e-06
-7.01276e-10
-3.8199e-06
-1.37593e-09
-3.82039e-06
-7.53358e-10
-3.8227e-06
1.45514e-09
-3.82326e-06
4.92111e-10
-3.82161e-06
-1.06204e-09
-3.8212e-06
-1.29846e-09
-3.82346e-06
-4.63689e-10
-3.8248e-06
3.93654e-10
-3.82281e-06
-1.76451e-10
-3.82143e-06
-3.35159e-10
-3.821e-06
-3.28198e-10
-3.82067e-06
-6.34268e-12
-3.82097e-06
2.32815e-10
-3.82139e-06
-7.34888e-11
-3.82208e-06
-2.18686e-10
-3.82175e-06
-2.96045e-10
-3.82076e-06
-1.93857e-10
-3.82102e-06
-3.56389e-10
-3.8217e-06
-8.81707e-10
-3.82127e-06
-1.37579e-09
-3.8205e-06
-7.49159e-10
-3.82063e-06
6.796e-10
-3.82092e-06
1.03661e-09
-3.82063e-06
7.89043e-10
-3.82216e-06
5.22182e-10
-3.82415e-06
-2.1892e-10
-3.82261e-06
-1.55842e-09
-3.82075e-06
-1.1621e-09
-3.82026e-06
-4.29138e-10
-3.81978e-06
-3.97966e-10
-3.82021e-06
1.34576e-09
-3.82091e-06
2.23546e-09
-3.82221e-06
1.49364e-09
-3.82331e-06
5.66682e-10
-3.82092e-06
-1.17613e-09
-3.8188e-06
-4.99548e-10
-3.81991e-06
5.202e-10
-3.82172e-06
-6.38181e-11
-3.82178e-06
-2.10402e-10
-3.82032e-06
-2.70324e-10
-3.81993e-06
-1.62271e-10
-3.82173e-06
4.14498e-10
-3.82169e-06
-1.85246e-10
-6.48266e-10
-3.89229e-06
-7.90698e-09
-3.85358e-06
-8.58843e-09
-3.81674e-06
-7.62834e-09
-3.81763e-06
-8.0169e-09
-3.81711e-06
-8.17949e-09
-3.81755e-06
-7.2641e-09
-3.81844e-06
-6.59951e-09
-3.81936e-06
-6.10451e-09
-3.82048e-06
-5.54521e-09
-3.82433e-06
-2.72996e-09
-3.82604e-06
-3.02888e-09
-3.82294e-06
-5.57845e-09
-3.82314e-06
-3.13403e-09
-3.82681e-06
-9.94108e-10
-3.82822e-06
-2.14832e-09
-3.82419e-06
-4.85911e-09
-3.82081e-06
-3.85071e-09
-3.82139e-06
-1.29919e-09
-3.82256e-06
-6.87049e-10
-3.82684e-06
1.1785e-09
-3.82645e-06
-1.9973e-09
-3.82063e-06
-4.47879e-09
-3.81884e-06
-1.33008e-09
-3.81979e-06
1.12118e-10
-3.82063e-06
-1.41265e-10
-3.82023e-06
-8.0258e-10
-3.81951e-06
-9.39514e-10
-3.81973e-06
-6.0233e-10
-3.82031e-06
-9.91575e-10
-3.82058e-06
-1.11952e-09
-3.82152e-06
2.33806e-10
-3.82459e-06
1.69306e-09
-3.82595e-06
6.12846e-10
-3.82305e-06
-1.44619e-09
-3.82122e-06
-1.3363e-09
-3.82168e-06
-6.02298e-10
-3.82322e-06
2.39338e-10
-3.82535e-06
1.66069e-09
-3.82523e-06
2.78566e-10
-3.82259e-06
-2.81681e-09
-3.81923e-06
-3.69295e-09
-3.81864e-06
-9.23734e-10
-3.82064e-06
2.00002e-09
-3.82144e-06
1.03474e-09
-3.82153e-06
1.14367e-11
-3.82216e-06
4.14989e-10
-3.82178e-06
-6.75967e-10
-3.82104e-06
-9.35045e-10
-3.82153e-06
1.27598e-10
-3.82231e-06
-1.0047e-10
-3.82327e-06
-4.10612e-10
-3.82195e-06
-2.07533e-09
-3.82042e-06
-8.4749e-10
-3.82086e-06
1.47248e-09
-3.82044e-06
3.73258e-10
-3.8199e-06
-1.37743e-11
-3.82045e-06
3.32647e-10
-3.82241e-06
3.97511e-10
-3.82315e-06
-4.25472e-10
-3.82311e-06
-4.66145e-10
-3.82313e-06
-3.81525e-10
-3.82189e-06
1.13927e-10
-3.82098e-06
1.31563e-09
-3.82011e-06
6.2795e-10
-3.82022e-06
6.80697e-10
-3.82298e-06
1.57655e-09
-3.82305e-06
-4.23028e-10
-3.81992e-06
-2.61361e-09
-3.81873e-06
-1.25424e-09
-3.81937e-06
4.33683e-10
-3.82033e-06
6.88471e-10
-3.82182e-06
1.32484e-09
-3.82233e-06
9.27939e-10
-3.82206e-06
-4.58301e-10
-1.13442e-09
-3.89233e-06
-7.27106e-09
-3.85305e-06
-7.74419e-09
-3.81436e-06
-7.01068e-09
-3.81519e-06
-7.18346e-09
-3.81634e-06
-7.03472e-09
-3.81715e-06
-6.44716e-09
-3.81796e-06
-5.79293e-09
-3.81893e-06
-5.13632e-09
-3.81999e-06
-4.48492e-09
-3.81891e-06
-3.81204e-09
-3.81775e-06
-4.18264e-09
-3.81916e-06
-4.17013e-09
-3.82016e-06
-2.13045e-09
-3.82009e-06
-1.07154e-09
-3.82069e-06
-1.54479e-09
-3.82419e-06
-1.36331e-09
-3.82523e-06
-2.80246e-09
-3.82306e-06
-3.47002e-09
-3.82142e-06
-2.32908e-09
-3.81893e-06
-1.31601e-09
-3.82031e-06
-6.15093e-10
-3.82277e-06
-2.02007e-09
-3.82285e-06
-1.25234e-09
-3.82237e-06
-3.64667e-10
-3.82114e-06
-1.36844e-09
-3.82025e-06
-1.69056e-09
-3.81956e-06
-1.6303e-09
-3.8205e-06
3.39748e-10
-3.82313e-06
1.63022e-09
-3.82439e-06
1.41709e-10
-3.82238e-06
-1.77854e-09
-3.81992e-06
-7.57165e-10
-3.81981e-06
4.99828e-10
-3.8208e-06
-4.61472e-10
-3.82136e-06
-7.72534e-10
-3.82128e-06
-6.81699e-10
-3.82168e-06
6.40165e-10
-3.82096e-06
9.43154e-10
-3.82e-06
-6.84001e-10
-3.82178e-06
-1.03448e-09
-3.82583e-06
3.52527e-10
-3.82675e-06
-5.83187e-12
-3.82283e-06
-1.92078e-09
-3.82055e-06
-1.23849e-09
-3.82064e-06
1.00026e-10
-3.82063e-06
4.07444e-10
-3.82193e-06
6.16588e-10
-3.82272e-06
-1.45779e-10
-3.82188e-06
-7.05494e-10
-3.82211e-06
1.27292e-10
-3.82247e-06
-5.37509e-11
-3.82375e-06
-7.88442e-10
-3.82382e-06
-7.77568e-10
-3.82159e-06
-7.59872e-10
-3.82005e-06
-1.16459e-09
-3.8195e-06
-5.63718e-10
-3.82e-06
8.25419e-10
-3.82049e-06
8.95314e-10
-3.82062e-06
-2.95439e-10
-3.82074e-06
-3.51653e-10
-3.82074e-06
-3.83067e-10
-3.82126e-06
6.36847e-10
-3.82197e-06
2.02858e-09
-3.82243e-06
1.08665e-09
-3.82139e-06
-3.63682e-10
-3.81937e-06
-4.38293e-10
-3.81982e-06
2.64517e-11
-3.82201e-06
-4.24877e-10
-3.8231e-06
-1.61754e-10
-3.82162e-06
-1.04956e-09
-3.81957e-06
-1.36609e-09
-3.8196e-06
1.35672e-09
-3.82094e-06
2.26518e-09
-3.82295e-06
1.5597e-09
1.23552e-09
-3.89236e-06
-6.60919e-09
-3.85294e-06
-7.03729e-09
-3.81419e-06
-6.44719e-09
-3.81487e-06
-6.50466e-09
-3.81576e-06
-6.15182e-09
-3.81652e-06
-5.68581e-09
-3.81731e-06
-5.00123e-09
-3.81828e-06
-4.16928e-09
-3.8193e-06
-3.46186e-09
-3.81911e-06
-3.99715e-09
-3.82004e-06
-3.25769e-09
-3.82223e-06
-1.97568e-09
-3.82149e-06
-2.87734e-09
-3.81974e-06
-2.81914e-09
-3.8194e-06
-1.88402e-09
-3.81964e-06
-1.12722e-09
-3.8202e-06
-2.23594e-09
-3.82074e-06
-2.92945e-09
-3.82204e-06
-1.02871e-09
-3.82293e-06
-4.30717e-10
-3.82151e-06
-2.03378e-09
-3.82175e-06
-1.78044e-09
-3.82195e-06
-1.05074e-09
-3.82089e-06
-1.42353e-09
-3.82148e-06
-7.77898e-10
-3.82331e-06
1.39064e-10
-3.82554e-06
5.98151e-10
-3.82424e-06
-9.62144e-10
-3.82101e-06
-1.59391e-09
-3.82037e-06
-5.00199e-10
-3.82159e-06
-5.63127e-10
-3.82152e-06
-8.27743e-10
-3.8205e-06
-5.1903e-10
-3.82073e-06
-2.27059e-10
-3.82143e-06
-7.91122e-11
-3.82245e-06
3.41172e-10
-3.82135e-06
-4.59567e-10
-3.81957e-06
-8.41293e-10
-3.8198e-06
-4.47295e-10
-3.82027e-06
-5.62121e-10
-3.82054e-06
6.18615e-10
-3.82056e-06
9.9259e-12
-3.8208e-06
-1.67651e-09
-3.82087e-06
-1.17086e-09
-3.82068e-06
-9.1681e-11
-3.82031e-06
3.65401e-11
-3.82008e-06
3.91446e-10
-3.82069e-06
4.59262e-10
-3.82107e-06
-3.20324e-10
-3.82008e-06
-8.58853e-10
-3.82063e-06
4.8782e-10
-3.82373e-06
2.31084e-09
-3.82405e-06
-4.47951e-10
-3.82215e-06
-2.66303e-09
-3.82208e-06
-1.2394e-09
-3.82099e-06
-1.64794e-09
-3.82006e-06
-1.10167e-10
-3.82138e-06
2.21516e-09
-3.8231e-06
1.42492e-09
-3.82364e-06
1.93119e-10
-3.82518e-06
1.15493e-09
-3.82511e-06
5.65761e-10
-3.82153e-06
-1.54814e-09
-3.81978e-06
-6.64497e-10
-3.81906e-06
-1.08914e-09
-3.81905e-06
-4.42567e-10
-3.82024e-06
1.21986e-09
-3.82163e-06
9.57193e-10
-3.82158e-06
-2.12539e-10
-3.82236e-06
-2.66848e-10
-3.82505e-06
1.32816e-09
-3.82397e-06
2.72535e-10
-3.82051e-06
-1.19546e-09
-3.81942e-06
4.72832e-10
1.22596e-09
-3.89238e-06
-5.91968e-09
-3.85293e-06
-6.36593e-09
-3.81406e-06
-6.00505e-09
-3.8145e-06
-6.0726e-09
-3.81531e-06
-5.34054e-09
-3.81597e-06
-5.02612e-09
-3.81661e-06
-4.35547e-09
-3.81744e-06
-3.34249e-09
-3.81734e-06
-3.56004e-09
-3.81825e-06
-3.08799e-09
-3.81875e-06
-2.75432e-09
-3.81807e-06
-2.6572e-09
-3.81872e-06
-2.2264e-09
-3.81918e-06
-2.36782e-09
-3.81875e-06
-2.31179e-09
-3.81772e-06
-2.1575e-09
-3.81788e-06
-2.06983e-09
-3.81881e-06
-2.00748e-09
-3.81895e-06
-8.83485e-10
-3.81945e-06
7.27543e-11
-3.82114e-06
-3.52871e-10
-3.82129e-06
-1.62799e-09
-3.81989e-06
-2.44698e-09
-3.82015e-06
-1.16866e-09
-3.82069e-06
-2.36146e-10
-3.82001e-06
-5.39013e-10
-3.81917e-06
-2.37414e-10
-3.81971e-06
-4.22808e-10
-3.82065e-06
-6.5542e-10
-3.82104e-06
-1.14595e-10
-3.82177e-06
1.69898e-10
-3.82135e-06
-1.24386e-09
-3.82034e-06
-1.52946e-09
-3.82058e-06
6.67222e-12