/*--------------------------------*- C++ -*----------------------------------*\
  =========                 |
  \\      /  F ield         | OpenFOAM: The Open Source CFD Toolbox
   \\    /   O peration     | Website:  https://openfoam.org
    \\  /    A nd           | Version:  12
     \\/     M anipulation  |
\*---------------------------------------------------------------------------*/
FoamFile
{
    format      ascii;
    class       volVectorField;
    location    "0.05";
    object      U.water;
}
// * * * * * * * * * * * * * * * * * * * * * * * * * * * * * * * * * * * * * //

dimensions      [0 1 -1 0 0 0 0];

internalField   nonuniform List<vector> 
3750
(
(-0.00481199 -0.378946 0)
(-0.00214361 -0.370117 0)
(-0.000873996 -0.352795 0)
(-0.000631661 -0.35088 0)
(-0.000358945 -0.35017 0)
(-0.000236035 -0.349392 0)
(-0.000199526 -0.348949 0)
(-0.000135968 -0.348588 0)
(-9.79127e-05 -0.348355 0)
(-7.49577e-05 -0.34818 0)
(-5.75899e-05 -0.348044 0)
(-4.2187e-05 -0.347937 0)
(-7.61444e-06 -0.347905 0)
(-2.12722e-05 -0.347849 0)
(-3.56644e-05 -0.347812 0)
(6.50715e-06 -0.347781 0)
(-1.404e-05 -0.347753 0)
(-4.72653e-05 -0.347717 0)
(-5.52894e-05 -0.347588 0)
(-4.83605e-05 -0.3475 0)
(7.31146e-06 -0.34746 0)
(3.07977e-05 -0.347485 0)
(4.38779e-06 -0.34752 0)
(-5.13518e-06 -0.347534 0)
(-2.80488e-05 -0.347485 0)
(-3.5398e-05 -0.347442 0)
(1.24595e-05 -0.347403 0)
(8.85737e-06 -0.347414 0)
(1.17207e-05 -0.347459 0)
(3.86256e-05 -0.347488 0)
(3.63766e-05 -0.347586 0)
(-1.11338e-05 -0.347587 0)
(-6.71359e-05 -0.347528 0)
(-2.37621e-05 -0.347434 0)
(2.444e-05 -0.347424 0)
(2.13596e-05 -0.347469 0)
(3.38541e-05 -0.347539 0)
(2.34021e-05 -0.347584 0)
(-1.08865e-05 -0.347615 0)
(-4.10563e-05 -0.347543 0)
(-4.17992e-05 -0.347472 0)
(-1.04651e-05 -0.347406 0)
(-3.2371e-06 -0.347399 0)
(-6.35987e-06 -0.347389 0)
(-6.44301e-06 -0.347375 0)
(-2.70588e-06 -0.347366 0)
(1.15227e-06 -0.347365 0)
(4.37741e-06 -0.34737 0)
(7.36612e-06 -0.347382 0)
(7.34586e-06 -0.347397 0)
(4.65573e-06 -0.347409 0)
(1.04888e-06 -0.347415 0)
(-3.73091e-06 -0.347412 0)
(-9.59667e-06 -0.347399 0)
(-8.07347e-07 -0.347389 0)
(8.49226e-06 -0.347396 0)
(3.10987e-06 -0.347408 0)
(1.25183e-06 -0.347412 0)
(3.46971e-06 -0.347417 0)
(9.04832e-06 -0.347424 0)
(3.10233e-05 -0.347478 0)
(3.28863e-05 -0.347535 0)
(-1.88187e-05 -0.347549 0)
(-3.48384e-05 -0.347502 0)
(-6.73924e-06 -0.347446 0)
(-9.02614e-06 -0.347432 0)
(2.82416e-05 -0.347458 0)
(8.68313e-05 -0.347578 0)
(7.79389e-05 -0.347751 0)
(-1.59433e-05 -0.347787 0)
(-3.92931e-05 -0.347774 0)
(-4.31838e-05 -0.347636 0)
(-6.01883e-05 -0.347592 0)
(-6.66409e-06 -0.347481 0)
(-8.46229e-06 -0.347458 0)
(-0.00834976 -0.407485 0)
(-0.00450868 -0.400702 0)
(-0.00219818 -0.383734 0)
(-0.00157546 -0.382915 0)
(-0.000978088 -0.382712 0)
(-0.000646606 -0.382126 0)
(-0.000527394 -0.381806 0)
(-0.000391261 -0.381583 0)
(-0.000300747 -0.381373 0)
(-0.000228405 -0.3812 0)
(-0.000177221 -0.381066 0)
(-0.000150257 -0.380939 0)
(-7.81723e-05 -0.38082 0)
(-6.56389e-05 -0.380747 0)
(-6.01317e-05 -0.380726 0)
(-2.03261e-05 -0.380686 0)
(-4.10356e-05 -0.380683 0)
(-5.16577e-05 -0.380677 0)
(-5.28386e-05 -0.380804 0)
(-8.28226e-05 -0.380871 0)
(-7.4694e-05 -0.38081 0)
(-9.82651e-07 -0.380664 0)
(2.34888e-06 -0.380552 0)
(3.01197e-05 -0.380628 0)
(2.02476e-05 -0.380732 0)
(-5.87571e-05 -0.380831 0)
(-3.82115e-05 -0.380759 0)
(2.88672e-06 -0.380716 0)
(1.71694e-05 -0.380651 0)
(2.25444e-05 -0.380623 0)
(4.40767e-05 -0.380509 0)
(-6.32282e-06 -0.380511 0)
(-6.60663e-05 -0.380605 0)
(-6.78669e-05 -0.380626 0)
(-1.79383e-05 -0.380589 0)
(3.0986e-05 -0.380467 0)
(2.57919e-05 -0.380415 0)
(-1.04277e-05 -0.380322 0)
(-2.60839e-05 -0.380272 0)
(-3.70835e-05 -0.380302 0)
(-4.78899e-05 -0.380381 0)
(-1.35044e-05 -0.380434 0)
(-1.12971e-05 -0.380438 0)
(-2.35322e-05 -0.380423 0)
(-2.40415e-05 -0.380401 0)
(-8.56985e-06 -0.380388 0)
(4.24579e-06 -0.380386 0)
(1.39008e-05 -0.380393 0)
(2.607e-05 -0.380409 0)
(2.56629e-05 -0.38043 0)
(1.54692e-05 -0.380447 0)
(4.50705e-06 -0.380455 0)
(-1.01645e-05 -0.380455 0)
(-3.87319e-05 -0.380427 0)
(-3.08775e-06 -0.380426 0)
(3.46712e-05 -0.380423 0)
(5.70943e-06 -0.380444 0)
(2.96815e-07 -0.380443 0)
(7.31135e-06 -0.38044 0)
(5.92747e-06 -0.380427 0)
(7.95172e-06 -0.380347 0)
(4.78299e-05 -0.380302 0)
(1.99397e-05 -0.380323 0)
(-2.69053e-05 -0.380418 0)
(1.15734e-05 -0.380489 0)
(4.1974e-05 -0.380597 0)
(5.97218e-05 -0.380622 0)
(9.6198e-05 -0.380574 0)
(9.874e-05 -0.380421 0)
(8.45745e-06 -0.380414 0)
(2.9676e-05 -0.380518 0)
(1.0056e-05 -0.380789 0)
(-0.00016568 -0.3808 0)
(-0.000131514 -0.380683 0)
(-3.35977e-05 -0.380482 0)
(-0.00566711 -0.407565 0)
(-0.00421795 -0.400225 0)
(-0.00258888 -0.383933 0)
(-0.0018716 -0.383837 0)
(-0.00133187 -0.383945 0)
(-0.000977908 -0.38349 0)
(-0.000745729 -0.383156 0)
(-0.000578927 -0.382977 0)
(-0.000488002 -0.382804 0)
(-0.000359398 -0.382674 0)
(-0.000265294 -0.382554 0)
(-0.000171893 -0.382602 0)
(-7.65107e-05 -0.382675 0)
(-0.000116419 -0.382734 0)
(-0.000139166 -0.382586 0)
(-0.000104271 -0.382478 0)
(-8.25526e-05 -0.382355 0)
(-6.61249e-05 -0.3823 0)
(-1.39747e-05 -0.382183 0)
(-1.6333e-05 -0.382242 0)
(-9.25455e-05 -0.382356 0)
(-0.000100877 -0.382371 0)
(-4.99697e-05 -0.382325 0)
(-6.63201e-06 -0.382153 0)
(9.66495e-06 -0.382038 0)
(-5.26206e-05 -0.381906 0)
(-9.0188e-05 -0.381938 0)
(5.02012e-06 -0.381935 0)
(2.96527e-05 -0.381998 0)
(-1.56559e-05 -0.382023 0)
(6.65363e-06 -0.382039 0)
(8.83962e-06 -0.382034 0)
(1.3486e-05 -0.382025 0)
(-2.72659e-05 -0.38213 0)
(-7.25625e-05 -0.382156 0)
(-5.52778e-05 -0.38213 0)
(-6.74276e-05 -0.381977 0)
(-4.3051e-05 -0.382 0)
(-3.36861e-05 -0.381971 0)
(-4.10806e-05 -0.381965 0)
(1.05662e-05 -0.381896 0)
(2.13519e-05 -0.381951 0)
(-1.6156e-05 -0.381981 0)
(-5.24646e-05 -0.38196 0)
(-5.69522e-05 -0.38192 0)
(-1.19705e-05 -0.381898 0)
(1.03804e-05 -0.3819 0)
(2.10552e-05 -0.381908 0)
(5.66738e-05 -0.38193 0)
(5.33011e-05 -0.381966 0)
(2.70254e-05 -0.38199 0)
(1.17898e-05 -0.382 0)
(4.02879e-06 -0.382016 0)
(-1.75466e-06 -0.382109 0)
(-8.21721e-06 -0.382131 0)
(-1.60912e-05 -0.382089 0)
(-2.16043e-05 -0.381973 0)
(1.62123e-07 -0.381956 0)
(1.99088e-05 -0.381971 0)
(3.8509e-07 -0.381984 0)
(-3.84752e-05 -0.382016 0)
(1.31848e-05 -0.382003 0)
(5.58815e-05 -0.381976 0)
(2.36646e-05 -0.38194 0)
(4.58577e-05 -0.381962 0)
(9.39457e-05 -0.381957 0)
(6.62148e-05 -0.381965 0)
(2.4707e-05 -0.381973 0)
(-1.39481e-05 -0.381938 0)
(3.91823e-05 -0.381911 0)
(0.000162547 -0.381863 0)
(9.84611e-05 -0.381892 0)
(-0.000108755 -0.382026 0)
(-0.000175947 -0.382124 0)
(-7.69262e-05 -0.382221 0)
(-0.0040463 -0.407129 0)
(-0.00354584 -0.399281 0)
(-0.00249067 -0.383117 0)
(-0.00191271 -0.383133 0)
(-0.00149309 -0.383397 0)
(-0.0011921 -0.383111 0)
(-0.000896075 -0.383 0)
(-0.000686271 -0.382921 0)
(-0.000578366 -0.382907 0)
(-0.000450451 -0.382856 0)
(-0.000361123 -0.382778 0)
(-0.000204466 -0.382624 0)
(-9.11746e-05 -0.382487 0)
(-0.000191315 -0.382342 0)
(-0.000254571 -0.382291 0)
(-0.000179844 -0.382225 0)
(-0.000119858 -0.382215 0)
(-0.000117657 -0.3822 0)
(-5.76487e-05 -0.382192 0)
(-6.49047e-06 -0.382129 0)
(-3.41956e-05 -0.382089 0)
(-0.000109983 -0.382101 0)
(-0.000107024 -0.382094 0)
(-0.000151306 -0.382023 0)
(-5.30483e-05 -0.382018 0)
(5.39624e-05 -0.382128 0)
(-0.000118511 -0.382169 0)
(-5.53316e-05 -0.382131 0)
(8.31723e-05 -0.382026 0)
(2.04869e-05 -0.382088 0)
(-7.19391e-06 -0.382104 0)
(1.63229e-06 -0.382089 0)
(1.33259e-05 -0.382076 0)
(1.84749e-05 -0.382051 0)
(-4.68295e-05 -0.382068 0)
(-9.87943e-05 -0.382084 0)
(-8.47148e-05 -0.382169 0)
(-5.41573e-05 -0.382119 0)
(-3.73959e-05 -0.382167 0)
(-9.91656e-05 -0.382062 0)
(-1.54881e-05 -0.382094 0)
(8.26239e-05 -0.38203 0)
(-9.91566e-06 -0.382082 0)
(-0.000103115 -0.382058 0)
(-0.000125374 -0.381984 0)
(4.9856e-07 -0.381971 0)
(2.57353e-05 -0.381949 0)
(9.78689e-06 -0.381987 0)
(0.000112716 -0.381999 0)
(9.60326e-05 -0.382046 0)
(2.94076e-05 -0.382078 0)
(1.23919e-05 -0.382071 0)
(1.62147e-05 -0.382061 0)
(3.57125e-05 -0.382033 0)
(-1.19184e-05 -0.382033 0)
(-6.86682e-05 -0.38203 0)
(-6.92137e-05 -0.382022 0)
(2.04315e-06 -0.382022 0)
(6.43433e-05 -0.382035 0)
(2.10591e-05 -0.382076 0)
(-3.64707e-05 -0.382088 0)
(-1.85178e-05 -0.382089 0)
(1.37932e-05 -0.382027 0)
(1.84878e-05 -0.381986 0)
(6.22762e-05 -0.381999 0)
(9.214e-05 -0.382012 0)
(8.73483e-05 -0.382028 0)
(9.6673e-05 -0.382104 0)
(4.48818e-05 -0.382304 0)
(-1.0712e-05 -0.382324 0)
(3.03783e-05 -0.382173 0)
(4.33083e-05 -0.38194 0)
(7.58488e-06 -0.381925 0)
(-5.59212e-05 -0.382004 0)
(-4.23777e-05 -0.382107 0)
(-0.00311688 -0.40691 0)
(-0.00295142 -0.398758 0)
(-0.00225613 -0.382565 0)
(-0.00187033 -0.382672 0)
(-0.0015241 -0.383024 0)
(-0.00125101 -0.382818 0)
(-0.000953395 -0.382773 0)
(-0.000705644 -0.382744 0)
(-0.000559718 -0.382791 0)
(-0.000488391 -0.382783 0)
(-0.000408288 -0.382843 0)
(-0.000339152 -0.382741 0)
(-0.000326576 -0.382574 0)
(-0.000301409 -0.382312 0)
(-0.000313112 -0.382221 0)
(-0.000231649 -0.38218 0)
(-0.000113537 -0.382149 0)
(-9.85814e-05 -0.382175 0)
(-9.94031e-05 -0.382165 0)
(-7.41536e-05 -0.382115 0)
(-5.07658e-05 -0.382084 0)
(-5.19683e-05 -0.382113 0)
(-7.02332e-05 -0.382166 0)
(-4.27288e-05 -0.382476 0)
(-1.38478e-05 -0.382554 0)
(-3.81628e-05 -0.382435 0)
(-0.000134121 -0.38224 0)
(-0.000104631 -0.382257 0)
(2.37342e-05 -0.382244 0)
(1.4171e-05 -0.382085 0)
(-1.38003e-05 -0.382079 0)
(-7.33156e-06 -0.38208 0)
(6.64564e-06 -0.382074 0)
(4.55856e-06 -0.382073 0)
(-2.63216e-05 -0.382082 0)
(-6.37075e-05 -0.382095 0)
(-9.85344e-05 -0.382031 0)
(-5.81422e-05 -0.382092 0)
(3.49212e-05 -0.382113 0)
(-3.66095e-05 -0.382329 0)
(-5.66351e-05 -0.382334 0)
(1.75003e-05 -0.38229 0)
(-9.89648e-06 -0.382139 0)
(-3.68305e-05 -0.382254 0)
(-6.59088e-05 -0.382468 0)
(-1.88862e-05 -0.382514 0)
(3.15092e-05 -0.382533 0)
(7.33506e-06 -0.382465 0)
(2.13342e-05 -0.382397 0)
(3.37182e-05 -0.382168 0)
(1.85559e-05 -0.382064 0)
(7.50867e-06 -0.382066 0)
(6.77257e-06 -0.382059 0)
(1.01763e-05 -0.382046 0)
(-5.6166e-06 -0.382046 0)
(-2.69024e-05 -0.382071 0)
(-4.52012e-05 -0.382158 0)
(-9.1978e-07 -0.38219 0)
(6.29116e-05 -0.382165 0)
(5.57461e-05 -0.382121 0)
(4.06533e-05 -0.382274 0)
(-6.49976e-05 -0.38229 0)
(-0.000159909 -0.382141 0)
(-3.21792e-05 -0.381924 0)
(0.000113907 -0.381926 0)
(0.000118692 -0.381995 0)
(8.8105e-05 -0.382 0)
(0.000100506 -0.381922 0)
(0.000108203 -0.381831 0)
(-7.65994e-06 -0.381846 0)
(-7.39378e-05 -0.381905 0)
(2.46525e-06 -0.381966 0)
(2.83655e-05 -0.381977 0)
(-2.46332e-06 -0.381984 0)
(6.7742e-06 -0.38197 0)
(-0.00252968 -0.406794 0)
(-0.00248865 -0.398459 0)
(-0.00200199 -0.382208 0)
(-0.00174436 -0.382333 0)
(-0.00146572 -0.382745 0)
(-0.00119712 -0.382701 0)
(-0.000960873 -0.382718 0)
(-0.000774668 -0.382673 0)
(-0.000604196 -0.382505 0)
(-0.000526556 -0.382434 0)
(-0.000431913 -0.382329 0)
(-0.000415709 -0.382315 0)
(-0.000451568 -0.382296 0)
(-0.000361116 -0.382331 0)
(-0.000333105 -0.382373 0)
(-0.000307355 -0.382316 0)
(-0.00015547 -0.38226 0)
(-7.92789e-05 -0.382159 0)
(-0.000147311 -0.382151 0)
(-0.000138093 -0.382109 0)
(-4.96426e-05 -0.382071 0)
(2.90891e-05 -0.382121 0)
(4.50118e-05 -0.382244 0)
(6.35e-05 -0.3822 0)
(-6.43274e-05 -0.382158 0)
(-0.000187942 -0.382066 0)
(-0.000117512 -0.382126 0)
(-0.000102429 -0.382147 0)
(-5.07811e-05 -0.38211 0)
(-1.37292e-06 -0.382108 0)
(-3.99255e-05 -0.382111 0)
(-2.24454e-05 -0.382073 0)
(1.48697e-05 -0.382067 0)
(1.27335e-05 -0.382085 0)
(1.20651e-06 -0.382112 0)
(-1.63514e-05 -0.382159 0)
(-3.74443e-05 -0.382337 0)
(7.93269e-07 -0.382442 0)
(-1.98741e-05 -0.382359 0)
(-3.1719e-05 -0.382161 0)
(-3.22776e-05 -0.382125 0)
(-7.6633e-05 -0.382141 0)
(-2.88592e-05 -0.382123 0)
(5.18788e-05 -0.382103 0)
(5.46995e-05 -0.382128 0)
(-4.2328e-05 -0.38216 0)
(-3.81057e-05 -0.382071 0)
(-3.35697e-05 -0.381973 0)
(-5.52295e-05 -0.381987 0)
(-7.70584e-06 -0.382052 0)
(3.32506e-06 -0.382105 0)
(-7.03257e-06 -0.382085 0)
(-7.13122e-06 -0.382061 0)
(-2.80886e-06 -0.382047 0)
(6.33189e-06 -0.382047 0)
(2.58671e-05 -0.382072 0)
(4.70992e-05 -0.38216 0)
(-1.81732e-05 -0.382176 0)
(-1.12702e-05 -0.382151 0)
(7.74444e-05 -0.382074 0)
(8.48404e-05 -0.382034 0)
(-0.00010573 -0.38201 0)
(-0.000260724 -0.382041 0)
(-8.87699e-05 -0.382064 0)
(0.000132725 -0.382064 0)
(0.000157035 -0.382006 0)
(5.40708e-05 -0.382023 0)
(-2.4734e-05 -0.381928 0)
(2.9125e-05 -0.38186 0)
(8.41393e-05 -0.381841 0)
(1.16136e-06 -0.381914 0)
(1.27407e-05 -0.381972 0)
(4.8646e-05 -0.381979 0)
(2.37446e-06 -0.381999 0)
(-8.09908e-06 -0.381996 0)
(-0.00213067 -0.406725 0)
(-0.00213335 -0.398271 0)
(-0.00176979 -0.381963 0)
(-0.00159383 -0.382073 0)
(-0.0013821 -0.382469 0)
(-0.0011114 -0.382339 0)
(-0.000924241 -0.382352 0)
(-0.000836078 -0.382385 0)
(-0.000692738 -0.382382 0)
(-0.000594237 -0.382325 0)
(-0.000500537 -0.382262 0)
(-0.000430693 -0.382237 0)
(-0.000399382 -0.382256 0)
(-0.000338211 -0.382288 0)
(-0.000250578 -0.382375 0)
(-0.000244361 -0.382586 0)
(-0.000267316 -0.382593 0)
(-0.000219212 -0.382418 0)
(-0.000135714 -0.382303 0)
(-0.00010199 -0.382388 0)
(-5.14436e-05 -0.3825 0)
(1.48718e-05 -0.382391 0)
(8.51016e-09 -0.382228 0)
(-7.84478e-05 -0.382044 0)
(-0.00010025 -0.382009 0)
(-4.66469e-05 -0.382089 0)
(-1.87851e-05 -0.382317 0)
(-8.63133e-05 -0.382449 0)
(-0.000128309 -0.382406 0)
(-7.31237e-05 -0.382218 0)
(-0.000115051 -0.382075 0)
(-4.41191e-05 -0.382065 0)
(4.78629e-05 -0.382042 0)
(2.93051e-05 -0.38208 0)
(3.63665e-05 -0.38211 0)
(4.11164e-05 -0.382133 0)
(8.16983e-05 -0.382171 0)
(3.65761e-07 -0.382149 0)
(-0.00010259 -0.382212 0)
(-4.50288e-05 -0.382239 0)
(-7.95107e-05 -0.382263 0)
(-0.000114474 -0.382144 0)
(-6.18412e-05 -0.382061 0)
(5.21565e-05 -0.382074 0)
(0.000129072 -0.382139 0)
(-3.47201e-05 -0.38219 0)
(-0.00018683 -0.382098 0)
(-5.26527e-05 -0.38209 0)
(6.2788e-05 -0.382131 0)
(-1.56903e-06 -0.382193 0)
(-3.12568e-05 -0.382111 0)
(-3.35952e-05 -0.382076 0)
(-2.54604e-05 -0.382056 0)
(-2.06055e-05 -0.382033 0)
(8.01971e-06 -0.382018 0)
(7.00719e-05 -0.382031 0)
(0.000102098 -0.382044 0)
(2.36022e-05 -0.382149 0)
(-2.46251e-05 -0.382185 0)
(2.92324e-05 -0.382196 0)
(3.99672e-05 -0.382118 0)
(-2.23575e-05 -0.382224 0)
(-8.29106e-05 -0.382431 0)
(-5.95391e-05 -0.382651 0)
(-2.22753e-05 -0.382507 0)
(9.99615e-06 -0.382241 0)
(3.96673e-05 -0.382042 0)
(2.2591e-05 -0.382222 0)
(-5.09378e-05 -0.382222 0)
(1.8141e-05 -0.382151 0)
(9.87364e-05 -0.382046 0)
(4.01612e-05 -0.382129 0)
(9.51351e-06 -0.38213 0)
(-2.87186e-05 -0.382013 0)
(1.99254e-06 -0.382013 0)
(-0.00185337 -0.406675 0)
(-0.00185223 -0.39814 0)
(-0.00156346 -0.381791 0)
(-0.00143173 -0.381915 0)
(-0.00123297 -0.382414 0)
(-0.00107313 -0.38234 0)
(-0.000930814 -0.38233 0)
(-0.000816492 -0.38227 0)
(-0.000723196 -0.382275 0)
(-0.000663695 -0.38223 0)
(-0.000551782 -0.382188 0)
(-0.000413978 -0.382164 0)
(-0.000362313 -0.382199 0)
(-0.000340442 -0.382191 0)
(-0.000219227 -0.382148 0)
(-0.000157889 -0.382076 0)
(-0.000293128 -0.382092 0)
(-0.000257762 -0.382242 0)
(-8.8679e-05 -0.382309 0)
(-9.01463e-05 -0.382325 0)
(-7.58376e-05 -0.382211 0)
(-6.26515e-05 -0.382198 0)
(-0.000111364 -0.382149 0)
(-0.000139459 -0.382185 0)
(-6.79476e-05 -0.382211 0)
(-7.94948e-06 -0.382156 0)
(1.28757e-05 -0.382026 0)
(-7.75707e-05 -0.381935 0)
(-0.000143667 -0.382004 0)
(-4.21509e-05 -0.382134 0)
(-5.19094e-05 -0.382414 0)
(-8.68498e-05 -0.382438 0)
(-0.000105193 -0.382274 0)
(6.39333e-06 -0.382059 0)
(0.000100691 -0.382054 0)
(5.05262e-05 -0.382104 0)
(5.74635e-05 -0.382052 0)
(1.69425e-05 -0.382097 0)
(-4.24197e-05 -0.3821 0)
(-8.22931e-05 -0.382068 0)
(-0.000160292 -0.381962 0)
(-8.34019e-05 -0.382009 0)
(-1.392e-05 -0.382153 0)
(5.936e-05 -0.382235 0)
(0.000141134 -0.382173 0)
(-2.41126e-05 -0.382126 0)
(-0.000179994 -0.382255 0)
(-5.40791e-05 -0.382287 0)
(3.49266e-05 -0.382203 0)
(-3.75478e-05 -0.382053 0)
(-4.95803e-05 -0.38209 0)
(-6.23568e-05 -0.382081 0)
(-3.97858e-05 -0.382075 0)
(-5.54778e-05 -0.382017 0)
(-1.76467e-05 -0.382009 0)
(0.000122069 -0.382006 0)
(0.000123089 -0.38204 0)
(4.43506e-05 -0.382017 0)
(1.15292e-05 -0.382027 0)
(2.3e-05 -0.382041 0)
(3.99344e-05 -0.382095 0)
(5.96328e-05 -0.382077 0)
(3.38534e-05 -0.382077 0)
(-4.26634e-05 -0.382039 0)
(-0.000174867 -0.381999 0)
(-0.000134735 -0.381969 0)
(6.52629e-05 -0.382014 0)
(0.000139332 -0.382017 0)
(4.53193e-07 -0.38219 0)
(-6.11845e-05 -0.382245 0)
(2.52145e-05 -0.382171 0)
(2.58814e-05 -0.381995 0)
(2.05599e-05 -0.382001 0)
(3.57316e-06 -0.382162 0)
(-1.88045e-05 -0.382156 0)
(-0.00166935 -0.406621 0)
(-0.00159761 -0.398079 0)
(-0.00128216 -0.381811 0)
(-0.00129193 -0.381934 0)
(-0.0011734 -0.382273 0)
(-0.00102945 -0.382036 0)
(-0.000904539 -0.38208 0)
(-0.000774954 -0.382175 0)
(-0.000712675 -0.38223 0)
(-0.000654823 -0.382311 0)
(-0.000615807 -0.382273 0)
(-0.000454907 -0.382244 0)
(-0.000310518 -0.382157 0)
(-0.000306497 -0.38228 0)
(-0.000276308 -0.382289 0)
(-0.000271571 -0.382195 0)
(-0.000212097 -0.382177 0)
(-0.000114571 -0.382211 0)
(-0.000144231 -0.382225 0)
(-0.00014323 -0.382141 0)
(-7.49869e-05 -0.382183 0)
(-7.74122e-05 -0.382198 0)
(-9.9734e-05 -0.382175 0)
(-2.7229e-05 -0.382353 0)
(-3.30423e-05 -0.382418 0)
(-0.000123358 -0.382443 0)
(-0.000118409 -0.382229 0)
(-5.49582e-05 -0.382338 0)
(-2.19655e-05 -0.382337 0)
(-4.02509e-05 -0.382336 0)
(-1.20306e-05 -0.382104 0)
(-9.80033e-05 -0.382088 0)
(-0.000120102 -0.3823 0)
(-8.89608e-06 -0.382404 0)
(-1.32209e-06 -0.382339 0)
(-1.67448e-05 -0.382084 0)
(-1.40234e-05 -0.381997 0)
(4.15057e-05 -0.381961 0)
(1.99971e-05 -0.381981 0)
(-6.61028e-05 -0.382131 0)
(-0.000122244 -0.382272 0)
(-1.92253e-05 -0.382339 0)
(0.00012486 -0.382407 0)
(3.94416e-05 -0.38241 0)
(-3.18066e-05 -0.382322 0)
(-2.08369e-05 -0.382133 0)
(-5.05913e-08 -0.382258 0)
(-0.000128278 -0.382277 0)
(-0.000154628 -0.382203 0)
(-1.96808e-05 -0.382045 0)
(-1.17532e-05 -0.382109 0)
(-5.39082e-06 -0.38224 0)
(-3.29492e-06 -0.382308 0)
(-1.36602e-05 -0.382479 0)
(-2.32109e-05 -0.382499 0)
(1.42303e-05 -0.382412 0)
(6.00616e-05 -0.382172 0)
(5.55513e-05 -0.382155 0)
(2.64765e-05 -0.38219 0)
(1.22529e-05 -0.382171 0)
(2.91432e-05 -0.382081 0)
(4.93266e-05 -0.382069 0)
(4.5851e-05 -0.382107 0)
(-7.82454e-05 -0.382096 0)
(-0.000178949 -0.382152 0)
(-0.000129624 -0.382095 0)
(3.5228e-05 -0.382091 0)
(0.000148685 -0.381986 0)
(0.000124276 -0.382058 0)
(1.67783e-05 -0.382135 0)
(-9.31974e-05 -0.382194 0)
(-3.1495e-05 -0.382179 0)
(4.76229e-05 -0.38214 0)
(4.84225e-05 -0.38205 0)
(-1.75462e-05 -0.382109 0)
(-0.00135624 -0.406852 0)
(-0.00137239 -0.39835 0)
(-0.00114975 -0.381878 0)
(-0.00113405 -0.381831 0)
(-0.00108407 -0.382353 0)
(-0.00097757 -0.382373 0)
(-0.000890338 -0.382304 0)
(-0.000796487 -0.382207 0)
(-0.000703383 -0.382126 0)
(-0.000600332 -0.382118 0)
(-0.000533407 -0.382314 0)
(-0.000481268 -0.382387 0)
(-0.000422473 -0.382328 0)
(-0.000312686 -0.382091 0)
(-0.000272459 -0.382064 0)
(-0.00031485 -0.382138 0)
(-0.000168135 -0.382165 0)
(-0.000109176 -0.38216 0)
(-0.000229987 -0.382059 0)
(-0.000115107 -0.382124 0)
(-1.106e-05 -0.382147 0)
(-7.24287e-05 -0.382205 0)
(-5.09311e-05 -0.382257 0)
(3.20594e-05 -0.38222 0)
(-5.64725e-05 -0.382193 0)
(-0.000183912 -0.382072 0)
(-0.000158391 -0.382156 0)
(-2.27071e-05 -0.382111 0)
(6.68304e-06 -0.382129 0)
(-0.000104024 -0.382095 0)
(-9.86086e-05 -0.382133 0)
(-3.95542e-05 -0.382203 0)
(3.38109e-05 -0.382167 0)
(-5.07224e-05 -0.382173 0)
(-0.000128808 -0.382083 0)
(-7.84774e-05 -0.382103 0)
(-2.14225e-05 -0.382177 0)
(4.868e-06 -0.382134 0)
(5.26539e-06 -0.382089 0)
(6.44838e-05 -0.382015 0)
(5.0169e-05 -0.382225 0)
(-9.77527e-06 -0.382307 0)
(5.15755e-05 -0.382216 0)
(-8.65245e-06 -0.382042 0)
(-0.000107514 -0.382039 0)
(-3.18154e-05 -0.382094 0)
(6.93039e-05 -0.382053 0)
(-4.17673e-05 -0.38224 0)
(-0.000197755 -0.38232 0)
(-0.000157592 -0.382279 0)
(-2.84128e-05 -0.382063 0)
(8.83399e-05 -0.382026 0)
(4.73881e-05 -0.382081 0)
(2.876e-05 -0.382037 0)
(-6.19354e-05 -0.381985 0)
(-0.000101963 -0.381978 0)
(3.11807e-05 -0.382002 0)
(8.36619e-05 -0.382041 0)
(2.86854e-05 -0.382043 0)
(-2.21332e-05 -0.382037 0)
(1.4933e-05 -0.38206 0)
(4.83529e-05 -0.382058 0)
(4.70559e-05 -0.382018 0)
(-5.24728e-06 -0.382132 0)
(-3.64579e-05 -0.382272 0)
(-8.76129e-05 -0.382516 0)
(-9.12873e-05 -0.382433 0)
(9.1499e-05 -0.382372 0)
(0.000178306 -0.382251 0)
(2.13125e-05 -0.382277 0)
(-8.79584e-05 -0.382224 0)
(-8.22144e-05 -0.382162 0)
(-2.5624e-05 -0.382124 0)
(2.78026e-05 -0.382045 0)
(5.61426e-05 -0.382126 0)
(-0.00110145 -0.406558 0)
(-0.0012003 -0.397928 0)
(-0.00109109 -0.381494 0)
(-0.000986346 -0.381578 0)
(-0.000907605 -0.381966 0)
(-0.000899961 -0.381844 0)
(-0.000888081 -0.381913 0)
(-0.000818335 -0.381991 0)
(-0.000710954 -0.382033 0)
(-0.000632658 -0.381984 0)
(-0.000435411 -0.381926 0)
(-0.000371175 -0.381993 0)
(-0.000456557 -0.382172 0)
(-0.000392048 -0.382245 0)
(-0.000321962 -0.38218 0)
(-0.000274317 -0.382081 0)
(-0.000147729 -0.382137 0)
(-8.81367e-05 -0.382176 0)
(-0.000155578 -0.382349 0)
(-0.000178592 -0.382302 0)
(-0.000103269 -0.38218 0)
(-2.25194e-05 -0.382002 0)
(-2.13205e-05 -0.382049 0)
(-2.18241e-05 -0.382074 0)
(-4.63125e-05 -0.382081 0)
(-6.66646e-05 -0.382265 0)
(-3.41453e-05 -0.382487 0)
(-6.72982e-05 -0.382582 0)
(-0.000135062 -0.382424 0)
(-0.00012442 -0.382217 0)
(-7.27679e-05 -0.38221 0)
(-3.6675e-05 -0.382191 0)
(-5.00559e-05 -0.38213 0)
(-9.63346e-05 -0.382021 0)
(-5.69432e-05 -0.382103 0)
(-1.00243e-05 -0.382228 0)
(-4.16694e-05 -0.382217 0)
(-0.000143119 -0.382079 0)
(-7.50635e-05 -0.381924 0)
(0.000135933 -0.38194 0)
(0.000138103 -0.381925 0)
(1.02105e-05 -0.381959 0)
(-3.03233e-05 -0.381966 0)
(-2.27695e-05 -0.382055 0)
(-5.35424e-05 -0.382083 0)
(-6.25647e-05 -0.38205 0)
(2.66171e-05 -0.382017 0)
(8.22836e-05 -0.381962 0)
(-0.000103917 -0.382037 0)
(-0.000232694 -0.382136 0)
(-8.4827e-05 -0.382197 0)
(5.58956e-05 -0.382151 0)
(5.55831e-05 -0.382078 0)
(4.06652e-05 -0.382106 0)
(-4.59976e-06 -0.382296 0)
(-8.8608e-05 -0.382329 0)
(-7.11234e-05 -0.382239 0)
(3.19075e-05 -0.382012 0)
(4.72987e-05 -0.382003 0)
(1.1985e-06 -0.382038 0)
(1.18835e-05 -0.38204 0)
(6.79073e-05 -0.382053 0)
(9.13356e-05 -0.382158 0)
(4.6906e-05 -0.382152 0)
(1.73317e-05 -0.382101 0)
(4.56491e-05 -0.382082 0)
(-2.47658e-06 -0.382353 0)
(-1.74172e-05 -0.382413 0)
(9.39037e-06 -0.382229 0)
(-2.10738e-05 -0.382008 0)
(4.33777e-06 -0.382105 0)
(-4.35166e-05 -0.382309 0)
(-9.82021e-05 -0.382306 0)
(4.98413e-06 -0.382295 0)
(0.00010507 -0.382206 0)
(-0.000969494 -0.406705 0)
(-0.00106332 -0.398078 0)
(-0.000996067 -0.381587 0)
(-0.00091708 -0.381515 0)
(-0.000820735 -0.381879 0)
(-0.000813902 -0.381793 0)
(-0.000792116 -0.38185 0)
(-0.000741132 -0.381931 0)
(-0.000689328 -0.381985 0)
(-0.000666913 -0.38202 0)
(-0.000466764 -0.382044 0)
(-0.000269871 -0.382052 0)
(-0.000338412 -0.382032 0)
(-0.000438524 -0.382059 0)
(-0.000376999 -0.382028 0)
(-0.000180231 -0.382186 0)
(-8.36523e-05 -0.382274 0)
(-0.000114447 -0.382267 0)
(-0.000122494 -0.38208 0)
(-0.000287291 -0.382045 0)
(-0.000200305 -0.382078 0)
(7.84138e-05 -0.382127 0)
(8.05366e-06 -0.38223 0)
(-5.89407e-05 -0.382242 0)
(-4.05206e-05 -0.382182 0)
(4.78235e-07 -0.382055 0)
(2.56333e-05 -0.38198 0)
(-8.48758e-05 -0.38195 0)
(-0.000210954 -0.381991 0)
(-0.000164045 -0.38206 0)
(-5.07058e-05 -0.38207 0)
(-0.000104113 -0.382023 0)
(-0.000100328 -0.382023 0)
(3.04236e-05 -0.38217 0)
(2.08933e-05 -0.382273 0)
(-2.34382e-05 -0.382252 0)
(-0.000109381 -0.382126 0)
(-0.00015933 -0.382251 0)
(-2.75414e-05 -0.38241 0)
(8.14097e-05 -0.382389 0)
(3.58732e-05 -0.382215 0)
(-1.12285e-05 -0.3821 0)
(1.53789e-05 -0.3821 0)
(8.62711e-06 -0.382075 0)
(-2.84106e-05 -0.382111 0)
(-5.63966e-05 -0.382183 0)
(-1.31641e-05 -0.382189 0)
(3.03263e-05 -0.382134 0)
(-4.86447e-05 -0.382074 0)
(-0.000122228 -0.382137 0)
(-0.000116417 -0.382154 0)
(-3.60098e-05 -0.382104 0)
(6.12116e-05 -0.382042 0)
(8.92275e-05 -0.382075 0)
(9.3245e-05 -0.38206 0)
(-2.43434e-05 -0.382174 0)
(-0.000121349 -0.382304 0)
(-7.84962e-05 -0.382326 0)
(-2.31286e-05 -0.382189 0)
(-1.85393e-05 -0.382031 0)
(-1.56839e-05 -0.382007 0)
(0.000112952 -0.382008 0)
(0.000188551 -0.382036 0)
(8.41921e-05 -0.382175 0)
(1.95464e-06 -0.38227 0)
(1.67466e-06 -0.38219 0)
(5.59867e-05 -0.382021 0)
(-3.67444e-06 -0.381931 0)
(-9.6733e-05 -0.38208 0)
(-2.37301e-05 -0.382158 0)
(4.56751e-05 -0.382114 0)
(3.32169e-06 -0.382 0)
(-4.8755e-05 -0.382117 0)
(-1.62233e-05 -0.382132 0)
(2.48956e-05 -0.382114 0)
(-0.000820427 -0.406587 0)
(-0.00093018 -0.397924 0)
(-0.000886601 -0.381565 0)
(-0.00084607 -0.381625 0)
(-0.000791659 -0.381973 0)
(-0.000748677 -0.381758 0)
(-0.000704306 -0.3818 0)
(-0.000656336 -0.38189 0)
(-0.000610667 -0.381965 0)
(-0.000465467 -0.382287 0)
(-0.000388487 -0.382494 0)
(-0.000402823 -0.382465 0)
(-0.000323359 -0.382293 0)
(-0.00028274 -0.382489 0)
(-0.00028573 -0.38276 0)
(-0.000284042 -0.382595 0)
(-0.000215997 -0.382315 0)
(-0.000159207 -0.382076 0)
(-0.000126967 -0.38216 0)
(-9.64819e-05 -0.382529 0)
(-0.000180185 -0.382609 0)
(-0.000156574 -0.382421 0)
(-4.37181e-05 -0.381919 0)
(-3.62246e-05 -0.381952 0)
(-5.62021e-05 -0.382018 0)
(-6.00187e-05 -0.382039 0)
(-5.83881e-05 -0.381988 0)
(-7.11661e-05 -0.381964 0)
(-0.000128183 -0.381996 0)
(-0.000125387 -0.382051 0)
(-2.33735e-05 -0.382099 0)
(1.58566e-05 -0.382322 0)
(-7.02561e-06 -0.382509 0)
(4.47509e-07 -0.382459 0)
(-4.22094e-05 -0.382225 0)
(-8.3217e-05 -0.382124 0)
(-5.29559e-05 -0.38224 0)
(5.98502e-05 -0.382437 0)
(3.3611e-05 -0.382542 0)
(-0.000149663 -0.382397 0)
(-0.000201405 -0.382054 0)
(-6.25966e-05 -0.381933 0)
(9.96839e-05 -0.381958 0)
(6.33778e-05 -0.382088 0)
(-3.10261e-06 -0.382145 0)
(9.81513e-06 -0.382194 0)
(-4.86006e-05 -0.382189 0)
(-5.64451e-05 -0.382163 0)
(-1.14395e-05 -0.382107 0)
(-4.91089e-05 -0.382186 0)
(-8.93201e-05 -0.382305 0)
(-0.000141224 -0.382236 0)
(-8.39447e-06 -0.382149 0)
(0.000125455 -0.382046 0)
(5.8115e-05 -0.382059 0)
(2.54204e-05 -0.382015 0)
(5.68633e-06 -0.382018 0)
(-5.80453e-05 -0.382165 0)
(-7.93783e-05 -0.382249 0)
(-4.47642e-05 -0.382334 0)
(-3.89745e-05 -0.382298 0)
(7.29842e-05 -0.382264 0)
(0.000177555 -0.382144 0)
(0.000106079 -0.382033 0)
(6.23689e-05 -0.382023 0)
(2.00214e-05 -0.382192 0)
(-4.61288e-05 -0.382262 0)
(-0.000104671 -0.382171 0)
(-6.59029e-05 -0.381918 0)
(1.11641e-05 -0.381923 0)
(2.09074e-05 -0.381968 0)
(5.81284e-05 -0.38212 0)
(6.71218e-05 -0.382181 0)
(-3.21774e-05 -0.382254 0)
(-8.91344e-05 -0.382147 0)
(-0.000758902 -0.406595 0)
(-0.000816631 -0.397891 0)
(-0.000731951 -0.3814 0)
(-0.000760018 -0.381418 0)
(-0.000760711 -0.381792 0)
(-0.000685563 -0.381705 0)
(-0.000619622 -0.381757 0)
(-0.000562042 -0.381837 0)
(-0.000501507 -0.381953 0)
(-0.0003271 -0.381922 0)
(-0.000360576 -0.38187 0)
(-0.000487429 -0.381841 0)
(-0.000263224 -0.381952 0)
(-0.000103282 -0.382008 0)
(-0.000184655 -0.382026 0)
(-0.000311121 -0.382292 0)
(-0.000332659 -0.38243 0)
(-0.000238461 -0.382459 0)
(-0.000150807 -0.382174 0)
(-6.87521e-06 -0.382005 0)
(-0.00013062 -0.382035 0)
(-0.000324943 -0.3821 0)
(-0.000129121 -0.382305 0)
(-1.26274e-05 -0.382241 0)
(-7.54853e-05 -0.382187 0)
(-0.000124657 -0.382057 0)
(-0.000128491 -0.381991 0)
(-1.31291e-05 -0.382018 0)
(3.19324e-05 -0.382177 0)
(-4.88903e-05 -0.38237 0)
(-7.72369e-05 -0.382332 0)
(4.67946e-05 -0.382123 0)
(5.56337e-05 -0.381994 0)
(-9.5383e-05 -0.382031 0)
(-0.000105442 -0.382099 0)
(-6.41998e-05 -0.382119 0)
(4.39752e-05 -0.382169 0)
(0.000130192 -0.382112 0)
(-2.02717e-05 -0.382076 0)
(-0.000192564 -0.382063 0)
(-0.000167021 -0.382403 0)
(-4.64783e-05 -0.382611 0)
(3.96218e-06 -0.382503 0)
(-1.01873e-05 -0.382156 0)
(5.57312e-06 -0.38205 0)
(4.11216e-05 -0.382055 0)
(-2.96899e-06 -0.382157 0)
(-5.40412e-05 -0.382211 0)
(-2.88948e-05 -0.382236 0)
(1.34111e-06 -0.3822 0)
(-2.32182e-05 -0.382208 0)
(-0.000143188 -0.38235 0)
(-8.12529e-05 -0.38236 0)
(3.56304e-05 -0.382288 0)
(-3.95664e-05 -0.382057 0)
(-2.88746e-05 -0.381991 0)
(5.79033e-05 -0.381973 0)
(6.46412e-05 -0.382017 0)
(-3.60455e-05 -0.382062 0)
(-4.08899e-05 -0.382062 0)
(-3.82296e-05 -0.382069 0)
(3.75387e-05 -0.382132 0)
(0.00016721 -0.382148 0)
(8.573e-05 -0.382217 0)
(1.58507e-05 -0.382179 0)
(5.69131e-05 -0.382042 0)
(-1.98288e-05 -0.381971 0)
(-0.000151924 -0.382082 0)
(-7.07996e-05 -0.382263 0)
(-3.07939e-05 -0.382225 0)
(-3.38808e-05 -0.382065 0)
(0.000134078 -0.381966 0)
(0.000159656 -0.382021 0)
(5.50699e-05 -0.382181 0)
(5.05489e-06 -0.38244 0)
(-0.000694012 -0.406597 0)
(-0.000739074 -0.397887 0)
(-0.000672894 -0.381392 0)
(-0.000684406 -0.381382 0)
(-0.000659327 -0.381752 0)
(-0.000606648 -0.381645 0)
(-0.000539708 -0.381692 0)
(-0.00046528 -0.381772 0)
(-0.000397339 -0.381886 0)
(-0.00039046 -0.381905 0)
(-0.000372017 -0.381988 0)
(-0.000307291 -0.382099 0)
(-0.00025039 -0.382183 0)
(-0.000194534 -0.382069 0)
(-0.00017144 -0.381942 0)
(-0.000124527 -0.381948 0)
(-0.00025192 -0.382017 0)
(-0.000319973 -0.382034 0)
(-0.00016789 -0.382143 0)
(-8.73361e-05 -0.382244 0)
(-0.000132444 -0.382204 0)
(-0.000190025 -0.382209 0)
(-0.000115154 -0.382145 0)
(-8.941e-05 -0.382167 0)
(-0.000107317 -0.382101 0)
(-7.75746e-05 -0.382239 0)
(-5.16074e-05 -0.382458 0)
(-3.11198e-05 -0.382472 0)
(1.81586e-06 -0.382278 0)
(-1.79245e-05 -0.382053 0)
(-0.000117084 -0.382113 0)
(-7.92454e-05 -0.382147 0)
(-9.60122e-07 -0.38211 0)
(-3.44265e-05 -0.382053 0)
(-4.25823e-05 -0.382101 0)
(-1.70263e-05 -0.382208 0)
(9.02993e-06 -0.382163 0)
(5.09307e-06 -0.382085 0)
(-5.65648e-05 -0.381951 0)
(-7.983e-05 -0.381993 0)
(4.85571e-05 -0.382038 0)
(2.04701e-07 -0.382074 0)
(-0.000179865 -0.38208 0)
(-0.000120467 -0.382061 0)
(4.17243e-07 -0.382079 0)
(2.21992e-05 -0.382044 0)
(5.04017e-05 -0.382026 0)
(1.56741e-05 -0.382045 0)
(-5.12909e-05 -0.38208 0)
(-3.6578e-05 -0.382038 0)
(2.17034e-05 -0.382061 0)
(7.61199e-05 -0.382219 0)
(-6.1276e-05 -0.382378 0)
(-0.000171145 -0.382325 0)
(-0.000120199 -0.382205 0)
(-0.000110583 -0.382127 0)
(3.57626e-05 -0.382096 0)
(0.000155524 -0.382047 0)
(5.64739e-05 -0.382232 0)
(-7.92673e-06 -0.382297 0)
(3.85931e-05 -0.382502 0)