/*--------------------------------*- C++ -*----------------------------------*\
  =========                 |
  \\      /  F ield         | OpenFOAM: The Open Source CFD Toolbox
   \\    /   O peration     | Website:  https://openfoam.org
    \\  /    A nd           | Version:  12
     \\/     M anipulation  |
\*---------------------------------------------------------------------------*/
FoamFile
{
    format      ascii;
    class       volVectorField::Internal;
    location    "0.85";
    object      cloud:UTrans;
}
// * * * * * * * * * * * * * * * * * * * * * * * * * * * * * * * * * * * * * //

dimensions      [1 1 -1 0 0 0 0];

value           nonuniform List<vector> 
3750
(
(-5.54095e-09 4.81613e-08 0)
(6.29703e-09 -1.59512e-09 0)
(4.46087e-10 -1.94784e-09 0)
(2.47019e-11 -5.01503e-10 0)
(6.57603e-11 -9.00644e-10 0)
(5.37593e-11 -2.03647e-09 0)
(6.76673e-12 -8.19463e-10 0)
(0 0 0)
(-9.31457e-12 -9.2291e-10 0)
(0 0 0)
(-2.62359e-11 -1.00059e-09 0)
(2.10444e-13 -9.06222e-10 0)
(-9.7329e-14 -1.11795e-09 0)
(2.63691e-12 -1.0759e-09 0)
(5.17331e-11 -1.97672e-09 0)
(2.64808e-11 -1.94681e-09 0)
(1.23194e-10 -6.81977e-10 0)
(2.55807e-11 -7.37169e-10 0)
(-1.93033e-11 -8.62165e-10 0)
(4.27451e-12 -9.18116e-10 0)
(4.93139e-12 -9.17711e-10 0)
(0 0 0)
(1.57418e-11 -2.04901e-09 0)
(0 0 0)
(7.61749e-12 -9.17585e-10 0)
(0 0 0)
(1.59151e-11 -8.10387e-10 0)
(0 0 0)
(2.59532e-11 -1.93077e-09 0)
(1.92658e-11 -8.26409e-10 0)
(0 0 0)
(0 0 0)
(0 0 0)
(-8.8212e-12 -1.03182e-09 0)
(5.5898e-12 -1.00028e-09 0)
(1.7541e-11 -9.61811e-10 0)
(0 0 0)
(1.06181e-11 -9.73647e-10 0)
(7.25111e-11 -2.10093e-09 0)
(3.44658e-12 -9.25786e-10 0)
(1.1436e-11 -9.9011e-10 0)
(-3.54256e-12 -9.52398e-10 0)
(0 0 0)
(-9.01559e-12 -8.54445e-10 0)
(1.85613e-11 -9.43007e-10 0)
(1.61317e-10 -2.13268e-09 0)
(-9.63636e-13 -1.88147e-09 0)
(-7.41907e-11 -8.22326e-10 0)
(-3.02947e-12 -9.51844e-10 0)
(0 0 0)
(-7.12333e-11 -8.93739e-10 0)
(-1.10008e-10 -2.55156e-09 0)
(6.92834e-11 -9.97924e-10 0)
(2.57381e-11 -8.64668e-10 0)
(-3.43312e-12 -9.04412e-10 0)
(5.49583e-11 -1.83229e-09 0)
(1.9306e-11 -7.65541e-10 0)
(1.29785e-11 -1.73964e-09 0)
(6.9186e-11 -1.05248e-09 0)
(-1.58249e-11 -1.0624e-09 0)
(0 0 0)
(5.48281e-11 -2.0545e-09 0)
(-4.47154e-11 -2.02664e-09 0)
(1.66478e-11 -8.73732e-10 0)
(2.62046e-11 -8.10824e-10 0)
(-5.52896e-12 -7.05592e-10 0)
(6.36504e-11 -9.46383e-10 0)
(0 0 0)
(-1.92993e-11 -9.05507e-10 0)
(-8.14946e-12 -9.48724e-10 0)
(1.9327e-12 -9.45267e-10 0)
(1.10553e-11 -9.29235e-10 0)
(-1.10173e-11 -9.32491e-10 0)
(-7.57232e-12 -9.16679e-10 0)
(1.22406e-11 -9.39925e-10 0)
(-2.48658e-08 1.91849e-08 0)
(-1.33994e-09 -5.5603e-10 0)
(2.1542e-10 -7.67816e-10 0)
(7.45327e-11 -7.90578e-10 0)
(9.50075e-11 -1.16506e-09 0)
(3.70277e-11 -5.77303e-10 0)
(3.88325e-11 -2.11324e-09 0)
(0 0 0)
(-7.91581e-12 -8.58959e-10 0)
(6.93972e-13 -8.07083e-10 0)
(-1.28403e-10 -9.47404e-10 0)
(-1.34396e-11 -1.07433e-09 0)
(0 0 0)
(2.20686e-13 -1.01341e-09 0)
(3.23958e-11 -9.29338e-10 0)
(3.72416e-11 -8.4553e-10 0)
(2.95318e-10 -1.69007e-09 0)
(2.07905e-11 -9.80318e-10 0)
(0 0 0)
(2.1749e-11 -9.9336e-10 0)
(4.83913e-11 -9.87715e-10 0)
(0 0 0)
(0 0 0)
(1.42353e-11 -9.96396e-10 0)
(9.38265e-12 -9.73705e-10 0)
(2.21665e-11 -9.45198e-10 0)
(0 0 0)
(-1.20411e-11 -1.97388e-09 0)
(-3.81469e-11 -1.93483e-09 0)
(3.60384e-12 -8.71665e-10 0)
(-2.35412e-11 -1.99231e-09 0)
(0 0 0)
(-1.14728e-11 -9.43497e-10 0)
(0 0 0)
(0 0 0)
(0 0 0)
(-5.99812e-11 -3.3317e-09 0)
(2.10976e-11 -9.15698e-10 0)
(3.33638e-11 -2.22078e-09 0)
(-6.94002e-11 -1.89935e-09 0)
(-3.03171e-11 -9.70242e-10 0)
(0 0 0)
(-4.37437e-11 -9.07866e-10 0)
(0 0 0)
(0 0 0)
(0 0 0)
(8.23985e-12 -2.19827e-09 0)
(-2.82515e-11 -9.77308e-10 0)
(0 0 0)
(-2.13552e-10 -2.0724e-09 0)
(-1.31667e-10 -9.6546e-10 0)
(-1.226e-10 -2.35138e-09 0)
(4.48298e-11 -1.00662e-09 0)
(0 0 0)
(0 0 0)
(0 0 0)
(-4.3179e-11 -1.99175e-09 0)
(8.23841e-11 -1.96265e-09 0)
(1.7719e-10 -2.34652e-09 0)
(2.97454e-12 -9.87942e-10 0)
(6.21509e-12 -9.35108e-10 0)
(0 0 0)
(-9.8009e-11 -1.63071e-09 0)
(-4.31417e-11 -1.07892e-09 0)
(-2.23628e-10 -2.96793e-09 0)
(-1.51418e-10 -3.17048e-09 0)
(-4.53714e-11 -7.1867e-10 0)
(-1.15406e-12 -8.78718e-10 0)
(0 0 0)
(0 0 0)
(2.7506e-13 -9.3083e-10 0)
(-2.76857e-11 -2.07282e-09 0)
(2.50287e-11 -8.99962e-10 0)
(0 0 0)
(3.00895e-11 -2.13837e-09 0)
(-5.09213e-10 3.17243e-08 0)
(-2.05225e-09 2.67647e-09 0)
(1.71641e-10 -5.8256e-10 0)
(4.98746e-11 -7.8555e-10 0)
(2.4389e-10 -2.85511e-09 0)
(7.29468e-11 -8.90194e-10 0)
(3.49369e-11 -1.01565e-09 0)
(1.85344e-11 -9.73216e-10 0)
(6.31543e-12 -9.51672e-10 0)
(-4.19423e-11 -1.00125e-09 0)
(0 0 0)
(-1.01922e-10 -1.89053e-09 0)
(0 0 0)
(4.4557e-11 -1.2693e-09 0)
(4.88471e-11 -1.47602e-09 0)
(1.86088e-11 -8.44931e-10 0)
(-2.7985e-11 -8.8155e-10 0)
(0 0 0)
(3.05673e-11 -8.58534e-10 0)
(-2.76802e-11 -1.85418e-09 0)
(7.28848e-11 -1.99332e-09 0)
(0 0 0)
(0 0 0)
(2.60104e-11 -1.01802e-09 0)
(1.18022e-12 -3.79961e-11 0)
(3.14848e-11 -9.82872e-10 0)
(0 0 0)
(0 0 0)
(4.0401e-11 -8.02293e-10 0)
(-8.96795e-11 -1.99608e-09 0)
(-3.05506e-11 -7.95405e-10 0)
(2.29916e-11 -1.00426e-09 0)
(0 0 0)
(4.0286e-11 -2.01206e-09 0)
(-7.75708e-11 -2.0868e-09 0)
(-3.58435e-11 -9.68097e-10 0)
(2.92069e-11 -1.89888e-09 0)
(1.00043e-10 -2.01859e-09 0)
(2.65699e-11 -9.09093e-10 0)
(5.91042e-11 -9.48141e-10 0)
(-6.60923e-11 -1.0007e-09 0)
(-2.7394e-11 -9.96107e-10 0)
(-1.58349e-11 -9.07841e-10 0)
(-3.57943e-11 -1.50261e-10 0)
(-1.63569e-10 -1.7023e-09 0)
(-5.83203e-11 -1.08129e-09 0)
(-1.01817e-10 -2.95712e-09 0)
(0 0 0)
(-4.64601e-11 -9.99434e-10 0)
(-1.20746e-10 -1.17197e-09 0)
(-8.53045e-11 -9.29414e-10 0)
(-3.46948e-11 -1.04858e-09 0)
(-9.31909e-11 -2.09754e-09 0)
(-6.47188e-12 -9.25159e-10 0)
(0 0 0)
(0 0 0)
(2.65695e-11 -1.9807e-09 0)
(-3.74861e-11 -9.2201e-10 0)
(9.20713e-11 -4.1065e-09 0)
(0 0 0)
(-3.76048e-11 -1.11589e-09 0)
(0 0 0)
(-1.05079e-11 -1.10145e-09 0)
(4.07037e-12 -2.18802e-09 0)
(-4.6752e-11 -8.96775e-10 0)
(-6.96843e-11 -9.12342e-10 0)
(-3.91303e-11 -8.35503e-10 0)
(-1.35395e-11 -8.49071e-10 0)
(0 0 0)
(1.66781e-11 -9.44313e-10 0)
(0 0 0)
(0 0 0)
(-2.31999e-11 -8.5005e-10 0)
(0 0 0)
(1.25787e-11 -2.11317e-09 0)
(8.46412e-09 5.75186e-08 0)
(-1.10271e-09 5.0338e-09 0)
(1.46131e-10 -1.20985e-10 0)
(4.79437e-11 -7.54293e-10 0)
(2.85332e-11 -1.94319e-09 0)
(9.3935e-11 -2.36614e-09 0)
(6.56201e-11 -9.30607e-10 0)
(3.78573e-11 -8.52656e-10 0)
(3.38475e-11 -1.00197e-09 0)
(0 0 0)
(9.52326e-11 -9.82388e-10 0)
(1.03427e-10 -9.12756e-10 0)
(-3.15585e-11 -2.12049e-09 0)
(0 0 0)
(6.37852e-11 -7.3757e-10 0)
(7.44889e-11 -8.35241e-10 0)
(0 0 0)
(-4.06719e-11 -1.89001e-09 0)
(2.65252e-11 -1.95101e-09 0)
(0 0 0)
(4.0808e-11 -8.99792e-10 0)
(-3.6524e-11 -1.00073e-09 0)
(1.40546e-11 -1.00481e-09 0)
(0 0 0)
(4.18856e-11 -9.65364e-10 0)
(5.39026e-11 -1.00461e-09 0)
(-1.51292e-11 -8.51704e-10 0)
(1.40568e-12 -1.79577e-09 0)
(-2.99046e-11 -2.02404e-09 0)
(0 0 0)
(-3.82593e-11 -8.21049e-10 0)
(3.20478e-11 -9.11889e-10 0)
(3.46152e-11 -8.98021e-10 0)
(-8.74481e-13 -9.47631e-10 0)
(1.5528e-11 -9.41421e-10 0)
(2.05408e-11 -9.52642e-10 0)
(6.01202e-12 -9.27726e-10 0)
(2.3648e-11 -9.50897e-10 0)
(1.35263e-10 -1.03235e-09 0)
(-2.0944e-10 -2.53926e-09 0)
(0 0 0)
(-4.80146e-11 -2.2513e-09 0)
(0 0 0)
(1.87654e-11 -1.02514e-09 0)
(-2.88831e-10 -1.55693e-09 0)
(-5.00391e-11 -8.69814e-10 0)
(-4.3122e-11 -9.05666e-10 0)
(-8.76203e-11 -8.76657e-10 0)
(2.01743e-11 -1.00107e-09 0)
(0 0 0)
(-7.94975e-12 -9.91751e-10 0)
(8.74118e-13 -9.06919e-10 0)
(5.56011e-11 -9.28328e-10 0)
(1.73778e-11 -8.8999e-10 0)
(-8.51261e-12 -8.75105e-10 0)
(-3.73989e-11 -1.04358e-09 0)
(3.41042e-11 -9.50739e-10 0)
(-9.12533e-11 -2.0551e-09 0)
(0 0 0)
(1.21743e-10 -2.75036e-09 0)
(-3.74618e-13 -1.14478e-10 0)
(-2.52943e-12 -8.34946e-10 0)
(1.05739e-10 -1.95808e-09 0)
(2.22527e-11 -1.42451e-09 0)
(5.46054e-12 -1.85162e-09 0)
(0 0 0)
(0 0 0)
(7.01206e-12 -8.49829e-10 0)
(-1.19674e-11 -7.59247e-10 0)
(9.20822e-12 -8.57081e-10 0)
(1.8167e-11 -9.3845e-10 0)
(-3.16279e-11 -2.18634e-09 0)
(0 0 0)
(-1.1164e-11 -9.17032e-10 0)
(9.70827e-13 -4.58015e-11 0)
(2.30429e-08 3.75019e-08 0)
(1.08826e-08 7.14468e-09 0)
(2.927e-10 -1.03536e-09 0)
(2.22404e-11 -8.27882e-10 0)
(0 0 0)
(0 0 0)
(9.95149e-11 -1.02626e-09 0)
(7.03337e-11 -1.02455e-09 0)
(3.48898e-11 -2.20442e-09 0)
(3.20478e-11 -8.72192e-10 0)
(1.79754e-10 -2.07791e-09 0)
(4.20459e-11 -9.93602e-10 0)
(-1.64942e-11 -1.00939e-09 0)
(2.25129e-11 -9.22656e-10 0)
(2.43259e-11 -8.46739e-10 0)
(0 0 0)
(3.61441e-11 -8.93674e-10 0)
(5.74191e-11 -8.89868e-10 0)
(1.94018e-11 -8.90894e-10 0)
(6.10048e-11 -8.97134e-10 0)
(3.49912e-11 -9.34496e-10 0)
(3.56512e-11 -9.39962e-10 0)
(4.41513e-11 -9.02944e-10 0)
(4.20414e-11 -9.29659e-10 0)
(5.9209e-11 -9.33894e-10 0)
(1.2606e-11 -2.19143e-09 0)
(-3.85695e-11 -8.49014e-10 0)
(-4.24969e-11 -8.21622e-10 0)
(-1.67431e-11 -8.57061e-10 0)
(1.66359e-11 -8.84533e-10 0)
(-2.09136e-11 -2.0024e-09 0)
(-8.84049e-12 -9.1326e-10 0)
(2.82471e-11 -9.39855e-10 0)
(2.0941e-11 -1.98977e-09 0)
(1.26957e-11 -1.00711e-09 0)
(-1.27803e-11 -8.79287e-10 0)
(4.42549e-11 -1.98328e-09 0)
(7.18468e-11 -8.70441e-10 0)
(2.07318e-12 -1.15056e-09 0)
(0 0 0)
(3.21271e-11 -1.02267e-09 0)
(1.22802e-11 -9.57806e-10 0)
(-1.15764e-12 -1.30123e-09 0)
(-1.46793e-11 -5.68102e-10 0)
(-3.4135e-11 -9.38618e-10 0)
(1.42994e-11 -8.30336e-10 0)
(-5.37453e-11 -9.9639e-10 0)
(4.22658e-12 -7.33454e-10 0)
(2.14263e-10 -2.98128e-09 0)
(9.98876e-11 -8.79774e-10 0)
(-3.96607e-11 -1.00754e-09 0)
(0 0 0)
(4.69828e-12 -2.22403e-09 0)
(-1.29466e-13 -1.77025e-11 0)
(3.35685e-11 -2.22193e-09 0)
(-4.76636e-11 -9.80723e-10 0)
(-2.41844e-11 -9.07598e-10 0)
(-1.67752e-10 -2.05005e-09 0)
(-2.8517e-10 -2.27122e-09 0)
(0 0 0)
(3.53683e-11 -9.9148e-10 0)
(1.74827e-10 -1.92747e-09 0)
(1.74401e-10 -1.6818e-09 0)
(-3.54871e-11 -1.09346e-09 0)
(0 0 0)
(1.55057e-11 -8.34457e-10 0)
(2.29231e-11 -8.94844e-10 0)
(6.98222e-12 -9.39055e-10 0)
(0 0 0)
(5.75846e-11 -9.30157e-10 0)
(3.71975e-11 -9.5803e-10 0)
(1.38901e-12 -9.2499e-10 0)
(-1.62397e-12 -8.66378e-10 0)
(-2.86742e-11 -8.65881e-10 0)
(-8.80338e-12 -2.30444e-10 0)
(3.24517e-08 2.41431e-08 0)
(6.84288e-09 8.12634e-10 0)
(8.44844e-11 5.81953e-11 0)
(1.40203e-10 -8.71802e-10 0)
(8.11753e-11 -1.87881e-09 0)
(1.09679e-10 -9.8172e-10 0)
(1.1225e-10 -9.76709e-10 0)
(6.02496e-11 -1.0612e-09 0)
(2.71377e-11 -1.00548e-09 0)
(1.2301e-11 -9.27586e-10 0)
(-1.99663e-11 -1.00003e-09 0)
(3.72055e-12 -2.4212e-09 0)
(2.13069e-11 -9.95406e-10 0)
(2.26897e-11 -8.86273e-10 0)
(0 0 0)
(3.48869e-11 -9.24025e-10 0)
(5.82858e-11 -9.08212e-10 0)
(1.24775e-10 -2.05742e-09 0)
(5.33201e-11 -8.39691e-10 0)
(3.65284e-11 -8.09422e-10 0)
(1.53485e-10 -2.05286e-09 0)
(4.3174e-11 -8.97744e-10 0)
(9.31229e-12 -8.89055e-10 0)
(1.13857e-11 -9.12456e-10 0)
(5.87446e-11 -1.06921e-09 0)
(-3.96979e-11 -1.01594e-09 0)
(1.05341e-11 -9.48971e-10 0)
(1.51631e-11 -9.31822e-10 0)
(6.5869e-12 -9.88634e-10 0)
(7.08359e-11 -8.74462e-10 0)
(6.36482e-11 -9.17842e-10 0)
(0 0 0)
(0 0 0)
(0 0 0)
(-5.64215e-12 -1.00282e-09 0)
(0 0 0)
(0 0 0)
(6.57068e-11 -1.01795e-09 0)
(2.80785e-11 -1.12791e-09 0)
(6.10885e-11 -1.11407e-09 0)
(2.02669e-10 -2.6126e-09 0)
(7.76996e-11 -1.02136e-09 0)
(5.33072e-11 -9.65944e-10 0)
(-2.29041e-11 -9.14723e-10 0)
(1.78328e-11 -8.99208e-10 0)
(-2.57695e-11 -9.02971e-10 0)
(-5.13044e-11 -1.93113e-09 0)
(6.97655e-12 -1.88566e-09 0)
(-6.32299e-11 -8.63189e-10 0)
(-7.51035e-11 -9.07032e-10 0)
(-5.24337e-11 -9.73334e-10 0)
(-1.04546e-11 -1.02148e-09 0)
(-2.17594e-11 -1.02045e-09 0)
(0 0 0)
(-1.39583e-11 -9.28445e-10 0)
(-1.21903e-11 -9.65896e-10 0)
(-2.30295e-11 -1.00901e-09 0)
(-5.73585e-11 -1.00357e-09 0)
(-1.67799e-10 -9.51981e-10 0)
(-1.06797e-10 -8.7608e-10 0)
(3.35701e-11 -9.74513e-10 0)
(4.82333e-11 -9.15665e-10 0)
(-7.8948e-13 -1.00244e-09 0)
(0 0 0)
(3.12171e-11 -9.05039e-10 0)
(5.5797e-11 -8.8359e-10 0)
(5.42059e-11 -9.46418e-10 0)
(0 0 0)
(0 0 0)
(4.60508e-11 -9.48723e-10 0)
(1.36652e-11 -9.51779e-10 0)
(-9.54466e-12 -9.9361e-10 0)
(-7.95689e-12 -3.32434e-10 0)
(-9.04172e-12 -3.57006e-10 0)
(-2.1223e-11 -9.26473e-10 0)
(1.35781e-08 3.0069e-08 0)
(5.10549e-09 -1.03228e-09 0)
(7.39888e-11 -6.91777e-10 0)
(1.50607e-10 -9.45704e-10 0)
(0 0 0)
(0 0 0)
(1.58781e-10 -2.65348e-09 0)
(6.67725e-11 -4.56192e-10 0)
(7.22586e-11 -6.88466e-10 0)
(4.21981e-11 -5.12631e-10 0)
(-1.03258e-11 -9.32266e-10 0)
(-5.16747e-11 -9.78729e-10 0)
(2.31172e-11 -1.01601e-09 0)
(3.69905e-11 -9.57335e-10 0)
(0 0 0)
(6.1442e-11 -9.1326e-10 0)
(3.99483e-11 -9.16006e-10 0)
(2.92498e-11 -1.19052e-09 0)
(7.8408e-11 -1.74536e-09 0)
(5.46653e-11 -7.80515e-10 0)
(1.10299e-10 -1.99238e-09 0)
(9.51414e-11 -9.42593e-10 0)
(0 0 0)
(0 0 0)
(6.28814e-11 -2.61393e-09 0)
(0 0 0)
(0 0 0)
(0 0 0)
(2.4056e-11 -9.26426e-10 0)
(4.62364e-11 -9.18743e-10 0)
(5.9658e-11 -9.42159e-10 0)
(7.104e-11 -9.21789e-10 0)
(1.08007e-10 -2.01947e-09 0)
(-2.61284e-11 -2.05326e-09 0)
(-8.90616e-12 -9.6068e-10 0)
(-5.38936e-11 -1.95488e-09 0)
(-2.20773e-11 -1.94858e-09 0)
(-1.37853e-11 -9.20027e-10 0)
(-4.31212e-11 -9.9116e-10 0)
(-5.11376e-11 -1.09539e-09 0)
(1.78642e-11 -1.08287e-09 0)
(1.19631e-10 -8.96084e-10 0)
(1.12657e-10 -1.07934e-09 0)
(0 0 0)
(-6.72361e-11 -2.12422e-09 0)
(-2.986e-11 -8.26807e-10 0)
(-5.16184e-11 -8.91623e-10 0)
(-1.33341e-11 -9.30595e-10 0)
(-2.08423e-11 -9.32066e-10 0)
(-4.42804e-11 -9.16037e-10 0)
(-2.571e-11 -9.45213e-10 0)
(2.09091e-12 -9.9111e-10 0)
(0 0 0)
(-3.3672e-11 -9.03163e-10 0)
(-2.86023e-11 -1.00567e-09 0)
(-4.13156e-11 -9.62731e-10 0)
(2.20261e-11 -2.10389e-09 0)
(-2.81722e-11 -1.03046e-09 0)
(-4.229e-11 -9.61986e-10 0)
(-7.84073e-11 -8.81463e-10 0)
(-4.63694e-11 -8.54481e-10 0)
(1.84164e-11 -9.32108e-10 0)
(-7.72119e-12 -1.08327e-09 0)
(0 0 0)
(8.47775e-12 -1.09283e-10 0)
(6.27055e-11 -7.30264e-10 0)
(1.13193e-10 -8.91808e-10 0)
(1.30125e-10 -8.99424e-10 0)
(7.60078e-11 -9.4423e-10 0)
(5.04245e-11 -9.2508e-10 0)
(2.64792e-11 -9.2656e-10 0)
(1.60935e-11 -9.45797e-10 0)
(1.49495e-11 -9.55708e-10 0)
(-2.01081e-11 -9.8622e-10 0)
(-1.11243e-10 -2.18673e-09 0)
(-1.82565e-09 2.97594e-08 0)
(1.18705e-09 2.72297e-10 0)
(2.6001e-10 5.17662e-10 0)
(0 0 0)
(0 0 0)
(1.12216e-11 -9.88909e-10 0)
(0 0 0)
(1.05045e-10 -1.03508e-09 0)
(1.913e-10 -1.13086e-09 0)
(2.67689e-11 -1.12616e-09 0)
(-1.5377e-12 -1.00917e-09 0)
(-1.43472e-12 -9.55415e-10 0)
(1.65483e-11 -9.6468e-10 0)
(5.71302e-11 -9.48031e-10 0)
(0 0 0)
(6.06962e-11 -9.40349e-10 0)
(4.01488e-11 -9.2156e-10 0)
(0 0 0)
(5.93099e-11 -8.9419e-10 0)
(6.49127e-11 -1.83832e-09 0)
(-8.16916e-12 -7.65058e-10 0)
(5.44098e-11 -1.03452e-09 0)
(-1.624e-12 -2.79184e-10 0)
(4.62547e-11 -1.4374e-09 0)
(0 0 0)
(1.36464e-10 -2.30707e-09 0)
(7.93391e-11 -2.12272e-09 0)
(4.03822e-11 -7.92223e-10 0)
(4.48932e-11 -8.11304e-10 0)
(3.22975e-11 -8.87536e-10 0)
(1.61365e-11 -9.03759e-10 0)
(3.14482e-11 -9.13924e-10 0)
(4.74213e-11 -8.98053e-10 0)
(-7.38725e-11 -1.00659e-09 0)
(-2.04667e-11 -9.96672e-10 0)
(-1.15058e-10 -9.22842e-10 0)
(0 0 0)
(-1.16164e-10 -2.37986e-09 0)
(1.1165e-11 -1.01644e-09 0)
(0 0 0)
(4.82637e-11 -1.92534e-09 0)
(1.7341e-10 -2.15126e-09 0)
(3.0026e-10 -2.6528e-09 0)
(4.52698e-11 -9.45027e-10 0)
(-2.7584e-11 -8.37945e-10 0)
(-5.36408e-12 -7.96661e-10 0)
(2.20088e-12 -9.03577e-10 0)
(-1.12335e-11 -9.15681e-10 0)
(-6.50471e-11 -8.63053e-10 0)
(-2.176e-11 -8.63912e-10 0)
(-2.94066e-13 -8.89651e-10 0)
(0 0 0)
(-2.46463e-11 -2.22168e-09 0)
(-6.4303e-11 -9.59437e-10 0)
(-1.20501e-10 -1.99426e-09 0)
(-4.73681e-11 -7.31662e-10 0)
(3.32419e-12 -4.57792e-10 0)
(9.03103e-11 -1.39203e-09 0)
(7.36485e-11 -1.10497e-09 0)
(2.1651e-11 -9.06868e-10 0)
(1.54899e-11 -8.96751e-10 0)
(-3.49924e-12 -9.81909e-10 0)
(-1.19861e-12 -1.10126e-09 0)
(7.86916e-11 -9.22238e-10 0)
(0 0 0)
(1.02787e-10 -8.64591e-10 0)
(1.91448e-10 -1.01745e-09 0)
(8.57115e-11 -1.0558e-09 0)
(1.082e-10 -1.04299e-09 0)
(1.47948e-12 -8.63238e-11 0)
(1.51305e-11 -8.45157e-10 0)
(-4.6701e-12 -1.65329e-09 0)
(-7.32349e-11 -1.52197e-09 0)
(-2.85216e-11 -8.41705e-10 0)
(-3.07772e-11 -8.215e-10 0)
(3.33348e-10 5.65642e-08 0)
(5.35074e-10 -1.76986e-10 0)
(1.72582e-10 -9.24376e-11 0)
(-5.35359e-11 -7.6945e-10 0)
(-1.26081e-11 -8.41632e-10 0)
(0 0 0)
(-2.21164e-11 -9.56848e-10 0)
(3.83889e-12 -2.90323e-10 0)
(1.43512e-10 -2.86882e-09 0)
(5.52744e-11 -1.08097e-09 0)
(0 0 0)
(3.43546e-11 -9.88766e-10 0)
(0 0 0)
(3.42908e-11 -1.00921e-09 0)
(0 0 0)
(2.61276e-11 -1.91201e-09 0)
(1.77237e-11 -9.40125e-10 0)
(8.02147e-11 -1.98031e-09 0)
(2.0826e-11 -1.95538e-09 0)
(-5.8993e-11 -1.78557e-09 0)
(-3.96901e-11 -1.88961e-09 0)
(1.40409e-11 -9.38436e-10 0)
(1.01515e-10 -9.19563e-10 0)
(0 0 0)
(9.97597e-11 -2.21237e-09 0)
(4.89967e-11 -1.03753e-09 0)
(-2.60846e-11 -9.18622e-10 0)
(-7.23506e-12 -8.37662e-10 0)
(6.77908e-12 -8.5799e-10 0)
(1.94786e-11 -8.81712e-10 0)
(-8.98104e-12 -8.97139e-10 0)
(1.48375e-11 -1.86134e-09 0)
(9.6402e-11 -2.40133e-09 0)
(2.86533e-11 -9.9203e-10 0)
(-4.53437e-14 -9.96405e-10 0)
(-9.74231e-11 -8.8767e-10 0)
(-6.77384e-11 -8.28801e-10 0)
(-1.05635e-10 -8.83811e-10 0)
(-3.02977e-11 -9.68965e-10 0)
(9.08325e-12 -9.62482e-10 0)
(-2.04434e-12 -9.12514e-10 0)
(-2.24036e-12 -9.09934e-10 0)
(1.86066e-11 -1.06882e-09 0)
(9.50779e-11 -2.65223e-09 0)
(0 0 0)
(2.13854e-12 -8.48685e-10 0)
(1.18539e-11 -9.81783e-10 0)
(-8.41754e-11 -2.09549e-09 0)
(-5.89618e-11 -8.31306e-10 0)
(-7.64984e-12 -7.51009e-10 0)
(3.28497e-11 -8.45433e-10 0)
(5.93976e-11 -8.99086e-10 0)
(7.74582e-11 -1.03656e-09 0)
(-8.58488e-11 -9.85372e-10 0)
(0 0 0)
(-6.54525e-11 -9.02227e-10 0)
(-8.94579e-11 -9.91251e-10 0)
(0 0 0)
(-5.99363e-11 -9.97833e-10 0)
(2.30313e-11 -1.02282e-09 0)
(1.26347e-13 -1.00409e-09 0)
(-3.74724e-11 -1.48762e-09 0)
(-7.78532e-14 -1.54198e-09 0)
(7.52766e-11 -8.30617e-10 0)
(1.58804e-10 -1.92927e-09 0)
(3.18112e-11 -7.89744e-10 0)
(1.59747e-10 -3.67543e-09 0)
(8.68598e-11 -8.87598e-10 0)
(1.5373e-10 -8.74012e-10 0)
(3.27803e-12 -9.79989e-10 0)
(2.80278e-13 -9.79243e-10 0)
(1.33637e-11 -1.00984e-09 0)
(-1.22499e-10 -9.51907e-10 0)
(-1.88725e-10 -1.92985e-09 0)
(-4.06612e-11 -2.05565e-09 0)
(-2.04106e-08 2.63038e-08 0)
(-2.13071e-09 -3.07519e-09 0)
(1.16821e-10 -4.97817e-10 0)
(1.0815e-10 -1.02304e-09 0)
(9.37134e-11 -1.00703e-09 0)
(2.88587e-11 -2.23641e-09 0)
(-1.39702e-11 -7.30125e-10 0)
(-3.05834e-11 -2.36149e-09 0)
(-4.27602e-11 -9.82056e-10 0)
(1.37103e-10 -1.1691e-09 0)
(0 0 0)
(0 0 0)
(7.82584e-11 -9.41308e-10 0)
(4.06901e-11 -9.06028e-10 0)
(-3.77923e-12 -9.31057e-10 0)
(6.04683e-11 -2.01916e-09 0)
(2.33478e-11 -8.69334e-10 0)
(0 0 0)
(0 0 0)
(0 0 0)
(-4.77823e-11 -1.95867e-09 0)
(1.09175e-11 -8.70698e-10 0)
(6.19109e-11 -9.14871e-10 0)
(-1.81291e-11 -2.05075e-09 0)
(1.70123e-11 -2.10685e-09 0)
(-1.47657e-11 -1.07498e-09 0)
(1.02677e-11 -8.92805e-10 0)
(0 0 0)
(1.10829e-11 -1.78645e-09 0)
(-9.59571e-12 -2.00908e-09 0)
(-1.23049e-11 -8.50715e-10 0)
(-1.90475e-11 -8.67785e-10 0)
(0 0 0)
(8.51426e-11 -1.27504e-09 0)
(2.04108e-11 -2.36822e-09 0)
(0 0 0)
(1.50435e-11 -9.13858e-10 0)
(0 0 0)
(1.28302e-11 -9.3244e-10 0)
(3.75912e-11 -9.21388e-10 0)
(2.22806e-11 -8.90683e-10 0)
(8.1997e-12 -1.02337e-09 0)
(-3.56885e-11 -1.32341e-09 0)
(9.06254e-13 -1.21687e-09 0)
(-2.74471e-11 -9.05681e-10 0)
(-2.34412e-11 -7.21772e-10 0)
(2.00171e-12 -1.09358e-09 0)
(0 0 0)
(-5.25976e-12 -1.94083e-09 0)
(-2.72443e-11 -7.93922e-10 0)
(1.18147e-11 -7.98689e-10 0)
(1.04737e-11 -8.18399e-10 0)
(7.42549e-11 -2.76872e-09 0)
(-7.11032e-11 -1.13479e-09 0)
(0 0 0)
(-4.21987e-11 -9.17024e-10 0)
(-1.09133e-10 -9.65932e-10 0)
(-5.27829e-11 -9.53077e-10 0)
(0 0 0)
(-2.65594e-11 -9.88315e-10 0)
(-9.02989e-12 -9.67566e-10 0)
(-3.99225e-11 -9.65097e-10 0)
(-3.97271e-11 -2.08588e-09 0)
(1.93159e-11 -8.32451e-10 0)
(-3.45379e-11 -1.91151e-09 0)
(-1.40185e-10 -1.93045e-09 0)
(-1.45355e-10 -1.78289e-09 0)
(1.99486e-10 -3.05638e-09 0)
(3.51334e-10 -3.45912e-09 0)
(1.18854e-10 -7.52846e-10 0)
(2.34353e-11 -9.15204e-10 0)
(-3.26602e-11 -1.09504e-09 0)
(0 0 0)
(-9.09921e-11 -9.1636e-10 0)
(1.25011e-11 -8.72558e-10 0)
(-8.88898e-09 2.86687e-08 0)
(-1.35698e-09 3.22205e-10 0)
(2.47471e-11 -2.68467e-10 0)
(1.2903e-10 -9.19613e-10 0)
(1.37706e-10 -2.20247e-09 0)
(-3.99026e-11 -1.17062e-09 0)
(-3.06315e-11 -6.86813e-10 0)
(0 0 0)
(-5.33621e-13 -9.92912e-10 0)
(3.55961e-11 -2.44121e-09 0)
(7.63375e-11 -9.03085e-10 0)
(5.59922e-11 -8.52293e-10 0)
(5.2922e-11 -2.10984e-09 0)
(2.14728e-11 -8.93807e-10 0)
(0 0 0)
(0 0 0)
(5.71718e-11 -1.96596e-09 0)
(-7.32881e-12 -8.53264e-10 0)
(-4.52529e-11 -2.60775e-09 0)
(-5.28218e-11 -2.38785e-09 0)
(-6.1021e-11 -1.71512e-09 0)
(2.89664e-11 -8.26343e-10 0)
(1.07926e-10 -2.18232e-09 0)
(-6.70521e-11 -9.21513e-10 0)
(-1.82826e-10 -1.94942e-09 0)
(-2.37307e-11 -9.91e-10 0)
(0 0 0)
(2.38768e-11 -9.02493e-10 0)
(0 0 0)
(6.43189e-12 -9.50982e-10 0)
(2.94248e-11 -9.19778e-10 0)
(1.40504e-11 -8.75965e-10 0)
(6.0142e-11 -9.11818e-10 0)
(5.14044e-11 -1.06894e-09 0)
(-5.83857e-11 -1.19091e-09 0)
(2.48948e-11 -1.02457e-09 0)
(4.65105e-11 -9.165e-10 0)
(7.08819e-12 -9.50587e-10 0)
(2.79737e-11 -9.07073e-10 0)
(2.10707e-11 -8.66548e-10 0)
(3.70423e-12 -8.76818e-10 0)
(-5.86145e-12 -9.3151e-10 0)
(-1.3697e-11 -1.1741e-09 0)
(0 0 0)
(-1.30636e-12 -1.23074e-09 0)
(7.41249e-12 -9.155e-10 0)
(-7.84979e-12 -2.06661e-09 0)
(5.84596e-11 -9.18467e-10 0)
(3.00843e-11 -8.86015e-10 0)
(2.36235e-11 -8.50437e-10 0)
(-4.9684e-11 -1.96009e-09 0)
(-3.49858e-11 -9.80166e-10 0)
(-4.22425e-11 -1.22162e-09 0)
(0 0 0)
(1.10085e-10 -1.04332e-09 0)
(-2.39532e-11 -1.02435e-09 0)
(-6.65888e-11 -9.15045e-10 0)
(0 0 0)
(-9.28809e-12 -9.29338e-10 0)
(-3.39331e-11 -8.9289e-10 0)
(-3.06272e-11 -9.54343e-10 0)
(0 0 0)
(-8.99782e-12 -9.33548e-10 0)
(-1.57064e-11 -8.82916e-10 0)
(-6.98251e-11 -8.95044e-10 0)
(0 0 0)
(0 0 0)
(-6.21142e-11 -9.7688e-10 0)
(-1.36655e-10 -2.0746e-09 0)
(1.86806e-10 -3.4269e-09 0)
(2.35365e-11 -2.55858e-09 0)
(-5.33572e-11 -2.31405e-09 0)
(0 0 0)
(5.36472e-12 -9.17967e-10 0)
(2.12143e-11 -9.97794e-10 0)
(5.19774e-09 5.02625e-08 0)
(-8.44276e-10 2.45178e-09 0)
(-1.5643e-10 -9.4439e-10 0)
(-1.10216e-13 -1.08077e-10 0)
(4.16829e-11 -1.06724e-09 0)
(0 0 0)
(4.33387e-12 -9.35118e-10 0)
(-1.27472e-11 -2.447e-09 0)
(1.59124e-12 -9.61369e-10 0)
(7.25744e-12 -8.83151e-10 0)
(9.2901e-11 -9.17812e-10 0)
(2.19838e-10 -2.07701e-09 0)
(5.35085e-11 -8.64767e-10 0)
(5.69416e-11 -8.52724e-10 0)
(3.74054e-11 -8.48299e-10 0)
(2.9094e-11 -9.00466e-10 0)
(-7.66554e-12 -9.26658e-10 0)
(-1.66532e-11 -9.20577e-10 0)
(-7.46717e-11 -9.00505e-10 0)
(-2.00027e-11 -8.46404e-10 0)
(0 0 0)
(-6.49522e-11 -7.5691e-10 0)
(-1.52253e-11 -1.10106e-09 0)
(0 0 0)
(0 0 0)
(-2.14412e-11 -2.16196e-09 0)
(3.20121e-11 -8.58264e-10 0)
(3.57929e-11 -8.2269e-10 0)
(3.04432e-11 -8.44325e-10 0)
(5.18688e-12 -9.11714e-10 0)
(2.49163e-11 -9.15449e-10 0)
(-8.01087e-12 -8.71057e-10 0)
(8.58235e-12 -9.99983e-10 0)
(-1.95577e-12 -1.2609e-09 0)
(-3.71218e-11 -1.09679e-09 0)
(0 0 0)
(5.668e-11 -8.79181e-10 0)
(2.56309e-11 -8.81905e-10 0)
(5.48657e-11 -9.44905e-10 0)
(1.68046e-11 -8.9679e-10 0)
(-7.71377e-12 -8.76163e-10 0)
(-5.71879e-12 -8.76454e-10 0)
(-5.02416e-11 -2.95248e-09 0)
(-2.69347e-11 -1.13641e-09 0)
(4.33421e-13 -8.43723e-10 0)
(6.38295e-12 -8.34789e-10 0)
(-9.33263e-12 -8.87599e-10 0)
(1.33693e-11 -9.16563e-10 0)
(2.39415e-11 -9.04292e-10 0)
(-4.89975e-12 -8.75848e-10 0)
(-1.27962e-11 -8.49477e-10 0)
(-2.37162e-11 -9.0968e-10 0)
(-6.89088e-11 -1.06247e-09 0)
(3.05784e-11 -1.06354e-09 0)
(3.97106e-11 -1.16746e-09 0)
(0 0 0)
(-2.04325e-12 -2.07323e-10 0)
(-3.01236e-11 -1.48885e-09 0)
(-5.27977e-11 -2.10652e-09 0)
(-2.8213e-12 -8.22939e-10 0)
(-2.60661e-11 -8.67066e-10 0)
(0 0 0)
(-1.53431e-11 -9.03798e-10 0)
(-2.88679e-11 -1.91633e-09 0)
(0 0 0)
(-2.82738e-11 -8.91247e-10 0)
(-1.14237e-10 -2.21326e-09 0)
(0 0 0)
(-7.22282e-11 -9.79337e-10 0)
(0 0 0)
(-2.05023e-11 -1.03504e-09 0)
(-5.70158e-11 -1.13788e-09 0)
(-2.38444e-11 -1.02185e-09 0)
(3.674e-11 -1.38099e-09 0)
(3.67606e-11 -1.2913e-09 0)
(2.94996e-09 4.12504e-08 0)
(1.79895e-11 1.99582e-09 0)
(-5.01116e-11 -9.63265e-10 0)
(1.24597e-11 -1.19189e-09 0)
(3.88821e-11 -1.05604e-09 0)
(1.84619e-11 -9.07188e-10 0)
(1.19509e-11 -9.10065e-10 0)
(-8.45121e-11 -2.07254e-09 0)
(7.48211e-11 -9.63156e-10 0)
(7.66445e-11 -9.32239e-10 0)
(1.15289e-10 -1.28436e-09 0)
(1.35586e-10 -1.59749e-09 0)
(5.45709e-11 -8.71153e-10 0)
(6.73701e-11 -9.10454e-10 0)
(2.04415e-11 -1.98836e-09 0)
(-6.54392e-11 -2.15368e-09 0)
(5.95705e-12 -8.29373e-10 0)
(-1.50506e-12 -9.53971e-10 0)
(0 0 0)
(-5.53014e-11 -9.37588e-10 0)
(-2.5419e-11 -8.85832e-10 0)
(0 0 0)
(-4.67199e-11 -1.06161e-09 0)
(1.02757e-11 -2.27345e-09 0)
(0 0 0)
(0 0 0)
(1.7261e-11 -1.67873e-09 0)
(2.34881e-12 -1.26099e-10 0)
(3.14794e-11 -1.9971e-09 0)
(3.40027e-11 -9.23448e-10 0)
(1.04908e-11 -9.57533e-10 0)
(1.41157e-11 -8.99785e-10 0)
(-9.93449e-12 -1.00044e-09 0)
(1.118e-12 -1.14771e-09 0)
(-9.4896e-12 -1.00782e-09 0)
(4.06578e-11 -9.1839e-10 0)
(4.79989e-11 -8.5853e-10 0)
(1.99828e-11 -9.29918e-10 0)
(0 0 0)
(7.9544e-12 -1.25817e-09 0)
(-1.98532e-11 -1.56512e-09 0)
(-4.26756e-11 -9.3061e-10 0)
(-7.31787e-11 -2.86829e-09 0)
(3.25775e-11 -1.12145e-09 0)
(1.40572e-11 -8.50688e-10 0)
(-5.66847e-12 -8.23247e-10 0)
(7.25091e-12 -9.05692e-10 0)
(1.79528e-12 -9.18981e-10 0)
(-3.94851e-13 -9.03929e-10 0)
(1.14515e-11 -9.03679e-10 0)
(1.79149e-11 -8.9181e-10 0)
(5.01384e-12 -1.18351e-09 0)
(-1.58785e-10 -2.04089e-09 0)
(4.83174e-12 -9.70661e-10 0)
(3.37591e-11 -1.10618e-09 0)
(0 0 0)
(0 0 0)
(-1.63715e-11 -8.86969e-10 0)
(-3.54557e-11 -8.67258e-10 0)
(-1.85657e-11 -9.37432e-10 0)
(-1.0619e-12 -9.99998e-11 0)
(-7.77761e-12 -7.16061e-10 0)
(-2.90325e-11 -9.47564e-10 0)
(-3.5952e-11 -9.52169e-10 0)
(-4.00844e-11 -9.7324e-10 0)
(0 0 0)
(-3.08069e-11 -9.1652e-10 0)
(-9.10392e-11 -9.25376e-10 0)
(0 0 0)
(0 0 0)
(-5.71775e-12 -1.23466e-09 0)
(0 0 0)
(0 0 0)
(0 0 0)
(2.70136e-11 -9.2237e-10 0)
(-5.7074e-09 5.04472e-08 0)
(6.7729e-10 2.45754e-09 0)
(4.40843e-10 -8.01243e-10 0)
(-6.83313e-11 -8.97599e-10 0)
(0 0 0)
(3.33824e-11 -1.06063e-09 0)
(9.67691e-12 -9.49704e-10 0)
(-2.00207e-12 -9.3617e-10 0)
(5.15706e-11 -9.33685e-10 0)
(3.17806e-11 -1.00329e-09 0)
(3.40845e-11 -9.34634e-10 0)
(8.85932e-11 -2.11264e-09 0)
(6.67334e-11 -9.07541e-10 0)
(7.07192e-11 -9.88299e-10 0)
(-2.40747e-11 -1.01298e-09 0)
(-3.95887e-11 -8.56729e-10 0)
(-9.8951e-13 -8.44074e-10 0)
(4.68142e-11 -9.04778e-10 0)
(-1.90963e-12 -9.59824e-10 0)
(-1.95311e-11 -8.96473e-10 0)
(-1.50098e-11 -9.54635e-10 0)
(0 0 0)
(0 0 0)
(0 0 0)
(1.2533e-11 -9.97219e-10 0)
(-1.18461e-11 -9.85476e-10 0)
(0 0 0)
(0 0 0)
(0 0 0)
(0 0 0)
(6.36043e-12 -8.88778e-10 0)
(6.18391e-13 -2.00029e-09 0)
(-6.14722e-11 -8.6363e-10 0)
(-7.3515e-11 -2.71593e-09 0)
(4.7251e-11 -1.02692e-09 0)
(0 0 0)
(4.91746e-11 -9.49516e-10 0)
(3.17014e-11 -9.64753e-10 0)
(6.71328e-11 -2.13465e-09 0)
(-1.72076e-12 -9.98328e-10 0)
(-3.11007e-11 -9.71748e-10 0)
(-4.18012e-11 -1.07576e-09 0)
(-2.97251e-11 -1.21869e-09 0)
(0 0 0)
(4.3382e-11 -2.27178e-09 0)
(1.98162e-11 -9.08021e-10 0)
(-5.24802e-12 -9.77509e-10 0)
(-9.48129e-12 -9.20919e-10 0)
(-1.83427e-11 -9.07038e-10 0)
(-3.16079e-11 -9.02166e-10 0)
(-4.6103e-11 -9.09191e-10 0)
(-5.44677e-11 -2.55272e-09 0)
(-9.30447e-12 -9.29683e-10 0)
(1.67356e-11 -8.82917e-10 0)
(3.37675e-11 -1.05154e-09 0)
(1.28299e-10 -2.12494e-09 0)
(-6.86391e-12 -2.2592e-09 0)
(0 0 0)
(-4.20465e-11 -8.20652e-10 0)
(-4.23221e-11 -8.32834e-10 0)
(-9.10435e-12 -8.88839e-10 0)
(-6.7602e-12 -9.34908e-10 0)
(0 0 0)
(1.00792e-11 -9.40978e-10 0)
(-5.01942e-11 -9.48726e-10 0)
(-2.83561e-11 -9.5272e-10 0)
(-1.11175e-11 -9.35649e-10 0)
(0 0 0)
(-1.57442e-11 -9.06553e-10 0)
(-5.03085e-11 -1.0283e-09 0)
(-6.76714e-11 -1.07502e-09 0)
(0 0 0)
(2.54237e-11 -1.00308e-09 0)
(5.36687e-11 -9.32678e-10 0)
(3.13151e-11 -1.00173e-09 0)
(2.39233e-09 3.71845e-08 0)
(1.40049e-09 3.1291e-09 0)
(3.01286e-11 -3.64079e-10 0)
(0 0 0)
(1.1232e-10 -1.02172e-09 0)
(6.06409e-11 -1.02244e-09 0)
(6.05625e-12 -1.03201e-09 0)
(-1.2561e-11 -9.94102e-10 0)
(3.19414e-11 -9.88619e-10 0)
(1.38143e-11 -9.55173e-10 0)
(-1.2604e-11 -9.17167e-10 0)
(-3.4956e-11 -8.90003e-10 0)
(-9.48644e-12 -8.75492e-10 0)
(7.94673e-12 -2.49079e-09 0)
(4.41057e-11 -9.29267e-10 0)
(7.90438e-12 -7.64077e-10 0)
(-5.64912e-12 -8.70734e-10 0)
(1.34063e-11 -1.18893e-09 0)
(0 0 0)
(4.6102e-13 -9.37072e-10 0)
(0 0 0)
(0 0 0)
(2.38872e-11 -9.95626e-10 0)
(3.90607e-11 -1.18874e-09 0)
(0 0 0)
(2.62059e-11 -9.93665e-10 0)
(3.78554e-11 -9.18228e-10 0)
(4.47168e-11 -9.35486e-10 0)
(4.22656e-11 -9.1587e-10 0)
(3.87068e-11 -1.97656e-09 0)
(4.29954e-11 -1.91255e-09 0)
(-3.74603e-11 -9.34331e-10 0)
(0 0 0)
(-4.55775e-11 -1.08551e-09 0)
(9.27465e-11 -9.74594e-10 0)
(1.01249e-10 -9.25367e-10 0)
(5.31133e-11 -9.36819e-10 0)
(6.28983e-11 -9.32646e-10 0)
(3.83344e-11 -9.86212e-10 0)
(0 0 0)
(-2.97738e-11 -9.33957e-10 0)
(-9.31901e-11 -1.01241e-09 0)
(-2.00648e-11 -1.33035e-09 0)
(2.59618e-11 -1.15017e-09 0)
(0 0 0)
(4.35144e-12 -9.30551e-10 0)
(-3.76515e-11 -9.79471e-10 0)
(0 0 0)
(-1.88429e-11 -9.62586e-10 0)
(0 0 0)
(0 0 0)
(-2.20445e-11 -1.11637e-09 0)
(7.10629e-11 -9.74816e-10 0)
(6.72312e-11 -9.00385e-10 0)
(7.4535e-11 -9.65046e-10 0)
(-1.15338e-10 -1.11989e-09 0)
(-3.16189e-11 -1.0096e-09 0)
(-3.12452e-12 -9.39074e-10 0)
(-7.51963e-11 -2.09875e-09 0)
(0 0 0)
(8.12362e-13 -9.24536e-10 0)
(-1.08955e-11 -9.35885e-10 0)
(0 0 0)
(1.34254e-11 -9.40077e-10 0)
(0 0 0)
(0 0 0)
(-1.91318e-11 -9.63412e-10 0)
(-4.67578e-12 -9.26595e-10 0)
(-3.25221e-11 -2.10277e-09 0)
(-4.91739e-11 -9.23078e-10 0)
(-6.42921e-11 -1.00833e-09 0)
(-7.73097e-12 -1.01618e-09 0)
(1.19068e-11 -9.26902e-10 0)
(4.95102e-11 -9.18881e-10 0)
(-6.57668e-11 -2.41901e-09 0)
(9.78436e-09 4.29628e-08 0)
(7.29525e-10 2.27554e-09 0)
(4.46047e-10 -1.9259e-10 0)
(7.19822e-11 -8.81262e-10 0)
(6.8297e-11 -1.0493e-09 0)
(9.00137e-12 -9.74719e-10 0)
(1.02899e-11 -9.77563e-10 0)
(2.15826e-11 -9.94747e-10 0)
(2.10957e-11 -9.7699e-10 0)
(7.13476e-12 -9.88958e-10 0)
(-2.68335e-11 -9.61169e-10 0)
(-3.53272e-11 -9.48932e-10 0)
(-4.00357e-11 -9.68151e-10 0)
(-4.60612e-11 -1.0251e-09 0)
(3.41544e-11 -1.00761e-09 0)
(3.07181e-11 -8.64493e-10 0)
(-2.00931e-11 -8.12477e-10 0)
(2.00311e-11 -1.17192e-09 0)