/*--------------------------------*- C++ -*----------------------------------*\
  =========                 |
  \\      /  F ield         | OpenFOAM: The Open Source CFD Toolbox
   \\    /   O peration     | Website:  https://openfoam.org
    \\  /    A nd           | Version:  12
     \\/     M anipulation  |
\*---------------------------------------------------------------------------*/
FoamFile
{
    format      ascii;
    class       volScalarField::Internal;
    location    "0.85";
    object      cloud:UCoeff;
}
// * * * * * * * * * * * * * * * * * * * * * * * * * * * * * * * * * * * * * //

dimensions      [1 0 0 0 0 0 0];

value           nonuniform List<scalar> 
3750
(
1.8395e-05
1.23499e-06
1.31773e-07
2.08856e-08
2.58382e-08
6.21396e-08
2.49079e-08
0
2.60539e-08
0
2.68779e-08
2.58727e-08
2.80592e-08
2.76418e-08
6.14985e-08
6.11085e-08
2.34109e-08
2.39521e-08
2.53908e-08
2.60018e-08
2.59974e-08
0
6.22047e-08
0
2.59962e-08
0
2.48057e-08
0
6.09767e-08
2.49892e-08
0
0
0
2.71959e-08
2.68713e-08
2.64701e-08
0
2.65937e-08
6.27794e-08
2.60844e-08
2.6766e-08
2.63688e-08
0
2.53028e-08
2.62707e-08
6.31736e-08
6.04645e-08
2.49783e-08
2.63629e-08
0
2.57677e-08
6.72185e-08
2.68717e-08
2.54205e-08
2.58532e-08
5.99396e-08
2.42863e-08
5.88705e-08
2.74289e-08
2.75075e-08
0
6.22696e-08
6.20099e-08
2.55184e-08
2.48139e-08
2.35653e-08
2.63275e-08
0
2.58672e-08
2.63301e-08
2.62929e-08
2.61221e-08
2.6157e-08
2.59865e-08
2.62368e-08
7.99712e-05
4.16121e-07
7.59673e-08
2.46164e-08
3.38446e-08
1.71854e-08
6.29174e-08
0
2.53531e-08
2.47661e-08
2.64077e-08
2.76268e-08
0
2.70068e-08
2.61285e-08
2.52117e-08
5.86467e-08
2.66654e-08
0
2.68016e-08
2.67527e-08
0
0
2.68318e-08
2.65942e-08
2.62949e-08
0
6.1457e-08
6.10406e-08
2.54939e-08
6.16474e-08
0
2.62748e-08
0
0
0
1.07723e-07
2.59782e-08
6.39828e-08
6.06581e-08
2.65623e-08
0
2.59021e-08
0
0
0
6.37595e-08
2.66358e-08
0
6.26437e-08
2.66011e-08
6.53114e-08
2.69471e-08
0
0
0
6.16446e-08
6.13543e-08
6.52899e-08
2.67428e-08
2.61846e-08
0
4.81863e-08
3.3703e-08
1.04091e-07
1.06165e-07
2.37414e-08
2.55718e-08
0
0
2.61385e-08
6.24788e-08
2.58085e-08
0
6.31704e-08
2.94814e-06
1.1913e-06
3.53116e-08
2.89409e-08
1.02904e-07
2.57306e-08
2.70362e-08
2.65905e-08
2.63612e-08
2.68903e-08
0
6.05775e-08
0
3.65539e-08
4.76443e-08
2.5198e-08
2.56078e-08
0
2.5354e-08
6.01761e-08
6.16731e-08
0
0
2.70577e-08
9.92129e-10
2.56134e-08
0
0
2.47228e-08
6.17044e-08
2.46384e-08
2.6915e-08
0
6.18612e-08
6.26466e-08
2.65417e-08
6.06577e-08
6.19421e-08
2.59082e-08
2.63431e-08
2.68981e-08
2.68317e-08
2.58919e-08
4.9139e-09
5.07036e-08
2.77114e-08
7.04202e-08
0
2.68735e-08
2.86441e-08
2.61653e-08
2.73722e-08
6.27654e-08
2.60778e-08
0
0
6.15298e-08
2.60519e-08
1.15137e-07
0
2.80452e-08
0
2.78967e-08
6.3657e-08
2.57832e-08
2.5968e-08
2.50999e-08
2.52434e-08
0
2.62843e-08
0
0
2.52567e-08
0
6.2905e-08
6.32574e-06
9.97375e-07
8.56681e-08
2.41688e-08
6.11291e-08
6.54225e-08
2.6161e-08
2.52917e-08
2.68943e-08
0
2.67331e-08
2.60069e-08
6.29547e-08
0
2.39846e-08
2.51241e-08
0
6.05732e-08
6.12128e-08
0
2.58129e-08
2.68826e-08
2.6919e-08
0
2.65155e-08
2.69309e-08
2.52732e-08
5.95356e-08
6.19756e-08
0
2.49359e-08
2.59404e-08
2.57908e-08
2.63181e-08
2.62532e-08
2.63737e-08
2.61054e-08
2.63559e-08
2.72912e-08
6.71661e-08
0
6.42958e-08
0
2.71292e-08
5.7182e-08
2.54893e-08
2.58779e-08
2.55972e-08
2.68814e-08
0
2.67826e-08
2.58804e-08
2.61295e-08
2.56975e-08
2.55323e-08
2.73225e-08
2.63576e-08
6.23217e-08
0
6.90437e-08
2.99347e-09
2.18994e-08
6.13149e-08
3.93043e-08
5.00592e-08
0
0
2.5251e-08
2.42104e-08
2.53323e-08
2.6222e-08
6.36417e-08
0
2.59907e-08
1.32892e-09
1.57218e-05
1.05814e-06
7.98287e-08
2.50067e-08
0
0
2.71882e-08
2.71461e-08
6.38176e-08
2.55062e-08
6.26201e-08
2.68109e-08
2.69668e-08
2.60536e-08
2.522e-08
0
2.5744e-08
2.57146e-08
2.57079e-08
2.57964e-08
2.61849e-08
2.62435e-08
2.58489e-08
2.61362e-08
2.61915e-08
6.37002e-08
2.52514e-08
2.49448e-08
2.53334e-08
2.56375e-08
6.17579e-08
2.59496e-08
2.62397e-08
6.16214e-08
2.69427e-08
2.5579e-08
6.15532e-08
2.55131e-08
2.83779e-08
0
2.71073e-08
2.64269e-08
3.69368e-08
1.54146e-08
2.62286e-08
2.50325e-08
2.68457e-08
2.39024e-08
1.04238e-07
2.56456e-08
2.69543e-08
0
6.40175e-08
4.81205e-10
6.32755e-08
2.66794e-08
2.58913e-08
6.22921e-08
6.46614e-08
0
2.67863e-08
6.09684e-08
5.83671e-08
2.78227e-08
0
2.50794e-08
2.5752e-08
2.62269e-08
0
2.61505e-08
2.64361e-08
2.60758e-08
2.54352e-08
2.5435e-08
6.27091e-09
1.57258e-05
3.69726e-07
4.01275e-08
2.56191e-08
6.04575e-08
2.67416e-08
2.66926e-08
2.75112e-08
2.69287e-08
2.61046e-08
2.90022e-08
6.30884e-08
2.68229e-08
2.56581e-08
0
2.60725e-08
2.59147e-08
6.2365e-08
2.51559e-08
2.48024e-08
6.23364e-08
2.57918e-08
2.56859e-08
2.59412e-08
2.75908e-08
2.70409e-08
2.63329e-08
2.61505e-08
2.67502e-08
2.55564e-08
2.60225e-08
0
0
0
2.68975e-08
0
0
2.70753e-08
2.81603e-08
2.80375e-08
6.7834e-08
2.7119e-08
2.65275e-08
2.59681e-08
2.57984e-08
2.58415e-08
6.10116e-08
6.05187e-08
2.54255e-08
2.59153e-08
2.66046e-08
2.70903e-08
2.70817e-08
0
2.61141e-08
2.65123e-08
2.69641e-08
2.69221e-08
2.65197e-08
2.56142e-08
2.66083e-08
2.59889e-08
2.68934e-08
0
2.58658e-08
2.56448e-08
2.63217e-08
0
0
2.63416e-08
2.63632e-08
2.68023e-08
9.08968e-09
9.86891e-09
2.60943e-08
8.42349e-06
1.19946e-06
1.13603e-07
2.64242e-08
0
0
6.81894e-08
1.18764e-08
1.8712e-08
1.40778e-08
2.61545e-08
2.66607e-08
2.70363e-08
2.64286e-08
0
2.59715e-08
2.59883e-08
3.34843e-08
5.3298e-08
2.44811e-08
6.16761e-08
2.63155e-08
0
0
6.7749e-08
0
0
0
2.60946e-08
2.6021e-08
2.62799e-08
2.60708e-08
6.19597e-08
6.22807e-08
2.64569e-08
6.12622e-08
6.11868e-08
2.60234e-08
2.67861e-08
2.78482e-08
2.77129e-08
2.58491e-08
2.77349e-08
0
6.3023e-08
2.49973e-08
2.57299e-08
2.6137e-08
2.61543e-08
2.59908e-08
2.6296e-08
2.67758e-08
0
2.58464e-08
2.69311e-08
2.64875e-08
6.27882e-08
2.71858e-08
2.64801e-08
2.56403e-08
2.53168e-08
2.61542e-08
2.77157e-08
0
3.19145e-09
2.13369e-08
2.46825e-08
2.59008e-08
2.63144e-08
2.60915e-08
2.60967e-08
2.63e-08
2.64051e-08
2.78941e-08
6.21704e-08
5.35398e-06
4.00217e-07
1.64724e-07
0
0
2.67535e-08
0
2.72834e-08
2.83426e-08
2.81429e-08
2.69631e-08
2.64007e-08
2.65002e-08
2.63406e-08
0
2.62613e-08
2.60482e-08
0
2.57631e-08
6.00104e-08
2.42783e-08
2.72381e-08
8.17224e-09
4.35495e-08
0
6.48784e-08
6.29738e-08
2.46067e-08
2.48287e-08
2.56752e-08
2.58476e-08
2.59622e-08
2.57975e-08
2.69645e-08
2.68358e-08
2.61296e-08
0
6.55477e-08
2.70387e-08
0
6.09431e-08
6.3344e-08
6.82852e-08
2.63019e-08
2.51223e-08
2.46463e-08
2.58441e-08
2.59761e-08
2.54255e-08
2.54109e-08
2.56919e-08
0
6.3994e-08
2.64661e-08
6.17052e-08
2.38992e-08
1.23841e-08
3.8073e-08
2.79555e-08
2.58826e-08
2.57711e-08
2.66797e-08
2.78943e-08
2.60823e-08
0
2.5483e-08
2.72316e-08
2.74747e-08
2.73665e-08
2.31715e-09
2.26783e-08
4.50934e-08
4.25059e-08
2.51649e-08
2.49374e-08
1.57234e-05
9.71262e-07
1.04653e-07
2.43513e-08
2.51597e-08
0
2.64186e-08
9.48118e-09
7.0079e-08
2.77068e-08
0
2.67575e-08
0
2.69696e-08
0
6.07987e-08
2.62398e-08
6.15417e-08
6.12605e-08
5.94342e-08
6.0549e-08
2.62211e-08
2.60776e-08
0
6.39287e-08
2.72659e-08
2.60111e-08
2.51143e-08
2.53422e-08
2.56071e-08
2.57743e-08
6.02438e-08
6.57778e-08
2.67897e-08
2.68308e-08
2.57287e-08
2.50451e-08
2.5697e-08
2.65488e-08
2.64759e-08
2.59411e-08
2.59131e-08
2.75722e-08
6.80905e-08
0
2.52379e-08
2.66791e-08
6.2741e-08
2.50658e-08
2.41122e-08
2.52086e-08
2.58165e-08
2.72736e-08
2.6755e-08
0
2.58552e-08
2.68192e-08
0
2.68644e-08
2.71063e-08
2.69106e-08
4.1655e-08
4.48616e-08
2.50729e-08
6.10549e-08
2.45735e-08
1.11134e-07
2.5716e-08
2.56678e-08
2.66597e-08
2.66518e-08
2.69709e-08
2.64468e-08
6.10721e-08
6.98456e-08
1.14747e-05
1.17823e-06
1.10521e-07
2.71642e-08
2.6986e-08
6.41337e-08
2.38639e-08
7.86529e-08
2.6691e-08
2.8634e-08
0
0
2.62853e-08
2.58806e-08
2.61411e-08
6.19359e-08
2.54715e-08
0
0
0
6.12928e-08
2.54839e-08
2.59893e-08
6.22612e-08
6.284e-08
2.76336e-08
2.57271e-08
0
5.94296e-08
6.18174e-08
2.52616e-08
2.54532e-08
0
3.47162e-08
5.89133e-08
0
2.5957e-08
0
2.61567e-08
2.60452e-08
2.57063e-08
2.71095e-08
3.00027e-08
2.90128e-08
2.58714e-08
2.37661e-08
2.78183e-08
0
6.11104e-08
2.46199e-08
2.46706e-08
2.48963e-08
6.9176e-08
2.82462e-08
0
2.60004e-08
2.65767e-08
2.63914e-08
0
2.67504e-08
2.65296e-08
2.65118e-08
6.26129e-08
2.50576e-08
6.0816e-08
6.10465e-08
5.94629e-08
1.04995e-07
1.09168e-07
2.42439e-08
2.59734e-08
2.78376e-08
0
2.60315e-08
2.55047e-08
1.14726e-05
7.85957e-07
1.6257e-07
2.61149e-08
6.38469e-08
3.27804e-08
1.94655e-08
0
2.67945e-08
6.61402e-08
2.58738e-08
2.52988e-08
6.28699e-08
2.57403e-08
0
0
6.13766e-08
2.52895e-08
8.18743e-08
8.14779e-08
5.86532e-08
2.49917e-08
6.36231e-08
2.60646e-08
6.1286e-08
2.67775e-08
0
2.58357e-08
0
2.63539e-08
2.60247e-08
2.55426e-08
2.5955e-08
2.75842e-08
2.87796e-08
2.71247e-08
2.5997e-08
2.63497e-08
2.58867e-08
2.544e-08
2.55509e-08
2.6146e-08
2.86056e-08
0
2.91433e-08
2.59737e-08
6.24253e-08
2.60255e-08
2.56577e-08
2.52612e-08
6.13159e-08
2.66679e-08
2.90643e-08
0
2.73718e-08
2.71222e-08
2.59947e-08
0
2.6123e-08
2.57345e-08
2.63946e-08
0
2.61682e-08
2.56195e-08
2.57807e-08
0
0
2.66477e-08
6.25547e-08
1.08734e-07
8.5524e-08
7.5639e-08
0
2.60002e-08
2.68475e-08
6.30418e-06
6.46079e-07
2.57149e-07
6.04261e-09
2.7563e-08
0
2.61846e-08
6.61955e-08
2.64638e-08
2.56209e-08
2.60491e-08
6.26424e-08
2.54357e-08
2.53044e-08
2.52428e-08
2.58153e-08
2.6094e-08
2.60298e-08
2.58443e-08
2.52149e-08
0
2.42146e-08
2.78935e-08
0
0
6.33936e-08
2.53516e-08
2.49533e-08
2.51951e-08
2.59326e-08
2.59765e-08
2.54875e-08
2.68683e-08
2.94249e-08
2.78563e-08
0
2.5597e-08
2.56109e-08
2.6306e-08
2.57718e-08
2.55439e-08
2.5547e-08
7.07715e-08
2.82434e-08
2.51821e-08
2.50818e-08
2.567e-08
2.59859e-08
2.58553e-08
2.55402e-08
2.52478e-08
2.59137e-08
2.75293e-08
2.7522e-08
2.85478e-08
0
6.38793e-09
4.62618e-08
6.28366e-08
2.49473e-08
2.54472e-08
0
2.58479e-08
6.08445e-08
0
2.57143e-08
6.39436e-08
0
2.66806e-08
0
2.72307e-08
2.82683e-08
2.70965e-08
4.12902e-08
4.12183e-08
8.45611e-06
6.45738e-07
1.49226e-07
3.3426e-08
2.74492e-08
2.58853e-08
2.59154e-08
6.25053e-08
2.65133e-08
2.61874e-08
3.69516e-08
4.87615e-08
2.55071e-08
2.59457e-08
6.16054e-08
6.33231e-08
2.50205e-08
2.63854e-08
0
2.62284e-08
2.5654e-08
0
2.75084e-08
6.45077e-08
0
0
4.78822e-08
3.76373e-09
6.16996e-08
2.60659e-08
2.64238e-08
2.58039e-08
2.68732e-08
2.83499e-08
2.69496e-08
2.60144e-08
2.53629e-08
2.61311e-08
0
3.71087e-08
4.77288e-08
2.61466e-08
7.00366e-08
2.80983e-08
2.52616e-08
2.49509e-08
2.58673e-08
2.6011e-08
2.58479e-08
2.58459e-08
2.57176e-08
3.30455e-08
5.68144e-08
2.65618e-08
2.79481e-08
0
0
2.56642e-08
2.5453e-08
2.62112e-08
2.85227e-09
2.05213e-08
2.63221e-08
2.63735e-08
2.65975e-08
0
2.599e-08
2.6128e-08
0
0
2.91802e-08
0
0
0
2.60517e-08
8.48285e-06
7.96979e-07
1.17431e-07
2.58072e-08
0
2.74936e-08
2.63406e-08
2.61958e-08
2.61844e-08
2.69075e-08
2.6186e-08
6.29059e-08
2.59138e-08
2.67728e-08
2.70054e-08
2.5338e-08
2.51861e-08
2.58703e-08
2.64474e-08
2.57689e-08
2.63937e-08
0
0
0
2.68401e-08
2.67177e-08
0
0
0
0
2.56826e-08
6.17294e-08
2.5429e-08
6.87229e-08
2.71569e-08
0
2.63516e-08
2.6505e-08
6.31264e-08
2.68509e-08
2.65784e-08
2.76484e-08
2.9033e-08
0
6.44472e-08
2.58947e-08
2.66338e-08
2.60324e-08
2.58837e-08
2.58347e-08
2.59177e-08
6.72024e-08
2.61267e-08
2.56197e-08
3.01599e-08
5.95329e-08
6.43589e-08
0
2.49334e-08
2.50716e-08
2.56835e-08
2.61825e-08
0
2.62477e-08
2.63438e-08
2.63766e-08
2.61909e-08
0
2.58779e-08
2.71724e-08
2.76543e-08
0
2.69034e-08
2.61749e-08
2.68912e-08
8.42123e-06
9.72344e-07
6.8842e-08
0
2.71555e-08
2.71181e-08
2.71979e-08
2.68077e-08
2.67552e-08
2.63992e-08
2.59924e-08
2.57033e-08
2.55367e-08
6.66138e-08
2.6133e-08
2.42667e-08
2.54837e-08
2.87479e-08
0
2.62054e-08
0
0
2.68257e-08
2.87516e-08
0
2.6806e-08
2.60113e-08
2.61999e-08
2.59879e-08
6.14891e-08
6.08096e-08
2.61841e-08
0
2.77473e-08
2.66493e-08
2.61393e-08
2.62188e-08
2.61807e-08
2.67324e-08
0
2.61772e-08
2.70406e-08
3.0063e-08
2.8377e-08
0
2.61356e-08
2.66618e-08
0
2.64785e-08
0
0
2.80457e-08
2.66326e-08
2.58366e-08
2.65329e-08
2.81365e-08
2.69727e-08
2.62269e-08
6.27686e-08
0
2.60709e-08
2.61934e-08
0
2.62385e-08
0
0
2.64873e-08
2.60932e-08
6.27939e-08
2.60693e-08
2.69756e-08
2.70356e-08
2.60972e-08
2.60243e-08
6.59386e-08
1.33981e-05
6.40153e-07
4.15101e-08
2.56321e-08
2.73962e-08
2.66048e-08
2.66348e-08
2.68161e-08
2.66306e-08
2.67536e-08
2.64656e-08
2.63389e-08
2.6544e-08
2.71376e-08
2.6953e-08
2.54204e-08
2.48308e-08
2.85856e-08
0
0
2.6452e-08
0
6.34266e-08
2.73169e-08
3.51786e-08
5.34985e-08
2.55589e-08
6.08137e-08
6.08423e-08
2.50801e-08
2.54952e-08
0
2.59686e-08
2.6407e-08
2.56403e-08
6.20183e-08
2.50161e-08
2.55232e-08
2.57221e-08
2.68807e-08
0
0
0
2.90637e-08
2.73074e-08
2.63904e-08
2.64682e-08
2.66188e-08
0
2.66465e-08
2.70159e-08
2.65528e-08
2.61553e-08
2.60594e-08
6.99748e-08
2.81664e-08
2.70412e-08
6.40891e-08
2.50817e-08
2.48753e-08
6.16549e-08
2.43696e-08
2.53234e-08
2.6296e-08
2.65348e-08
0
2.64033e-08
2.63015e-08
2.58966e-08
5.09676e-08
3.33381e-08
2.60317e-08
2.57242e-08
2.65575e-08
2.68624e-08
4.36357e-05
2.97137e-07
4.16429e-08
2.59896e-08
2.73154e-08
2.68475e-08
2.59702e-08
2.60559e-08
2.61832e-08
6.35855e-08
2.62534e-08
0
2.64015e-08
2.69132e-08
8.2864e-09
1.10027e-08
2.59818e-08
4.81332e-08
4.63367e-09
2.63997e-08
2.63572e-08
2.7589e-08
2.78371e-08
2.68077e-08
6.34431e-08
4.06386e-08
4.2557e-08
2.44258e-08
2.59222e-08
2.63554e-08
0
6.34035e-08
2.58389e-08
6.17954e-08
6.08096e-08
6.1209e-08
2.45904e-08
6.08475e-08
2.50543e-08
2.89607e-08
0
6.31272e-08
2.96779e-08
0
0
6.29064e-08
0
2.60783e-08
2.6029e-08
2.63122e-08
2.62739e-08
2.59513e-08
6.17533e-08
0
2.96034e-08
1.75921e-10
6.75367e-08
2.63003e-08
2.49343e-08
2.44356e-08
2.56648e-08
2.53726e-08
2.56019e-08
2.59692e-08
2.58307e-08
2.56412e-08
2.68572e-08
2.61846e-08
2.6372e-08
2.64214e-08
2.67704e-08
2.67562e-08
2.63972e-08
2.65065e-08
2.65401e-08
7.25953e-06
6.39491e-07
3.84497e-08
2.45247e-08
6.73929e-08
2.63368e-08
2.51698e-08
6.17309e-08
2.59505e-08
2.59127e-08
0
2.56199e-08
2.63286e-08
2.71426e-08
0
2.64526e-08
0
2.6476e-08
2.63613e-08
2.59258e-08
2.55129e-08
6.7563e-08
1.28881e-08
4.1208e-09
2.59066e-08
6.27049e-08
2.53165e-08
2.53792e-08
2.60122e-08
2.64898e-08
2.70313e-08
2.78399e-08
2.65761e-08
6.30688e-08
2.48134e-08
6.05558e-08
6.14758e-08
6.27778e-08
2.52317e-08
6.396e-08
2.64185e-08
2.69269e-08
2.64125e-08
6.23825e-08
5.94448e-08
2.65156e-08
6.1697e-08
2.55298e-08
6.03539e-08
6.29778e-08
2.5705e-08
2.61929e-08
0
2.54357e-08
2.68786e-08
0
2.68649e-08
4.08114e-08
1.42375e-08
1.04215e-07
5.9837e-08
2.42834e-08
2.43577e-08
6.0722e-08
2.47423e-08
2.55093e-08
6.11674e-08
2.62619e-08
2.62324e-08
0
2.74251e-08
0
2.60701e-08
2.65799e-08
0
2.55614e-05
6.37574e-07
1.40759e-07
3.37613e-08
2.74625e-08
2.70683e-08
2.63903e-08
4.37574e-08
4.12389e-08
0
2.59338e-08
2.67131e-08
0
2.65183e-08
2.65535e-08
0
6.11061e-08
2.67821e-08
2.67329e-08
2.61689e-08
2.57061e-08
2.74986e-08
0
9.32018e-09
9.57825e-09
2.64254e-08
2.61964e-08
2.59346e-08
2.5682e-08
2.56387e-08
6.72012e-08
2.71118e-08
0
2.53939e-08
2.62448e-08
2.611e-08
2.59824e-08
2.72017e-08
2.76975e-08
2.78613e-08
2.79629e-08
2.30173e-09
2.23712e-08
2.62833e-08
2.61577e-08
2.57354e-08
1.13541e-07
5.86353e-08
2.45388e-08
2.8071e-08
0
6.13831e-08
2.57924e-08
2.59082e-08
2.70521e-08
0
2.67161e-08
6.75096e-08
2.61766e-08
2.44607e-08
5.76532e-08
5.84884e-08
5.86053e-08
6.11484e-08
2.53593e-08
2.58683e-08
2.59065e-08
6.13629e-08
0
2.86585e-08
0
2.64381e-08
0
6.15632e-08
2.58962e-08
1.57743e-05
6.53546e-07
1.6555e-07
5.9011e-08
2.63586e-08
2.57791e-08
6.32613e-08
2.59472e-08
2.56934e-08
2.62207e-08
2.63289e-08
2.63057e-08
2.65045e-08
2.63513e-08
2.67401e-08
0
2.66806e-08
2.67783e-08
2.63456e-08
2.56723e-08
2.58075e-08
0
2.68553e-08
2.70507e-08
0
0
1.09376e-07
2.48169e-08
0
2.64728e-08
2.72818e-08
0
2.6544e-08
0
2.59855e-08
2.61106e-08
2.61445e-08
2.82246e-08
0
2.8882e-08
0
4.25035e-08
1.14049e-08
0
2.61197e-08
0
0
2.72558e-08
0
0
2.74755e-08
0
3.85786e-09
2.03918e-08
2.6283e-08
6.85015e-08
0
0
0
0
2.54965e-08
2.49261e-08
5.98956e-08
6.11258e-08
2.56615e-08
2.69063e-08
2.60741e-08
2.70217e-08
0
2.65437e-08
0
6.0138e-08
0
2.70149e-08
2.70934e-08
1.04034e-05
8.24226e-07
1.08489e-07
2.59334e-08
2.59067e-08
0
2.60461e-08
2.64418e-08
2.63595e-08
3.75617e-08
4.67701e-08
2.5976e-08
2.60365e-08
6.26214e-08
2.55124e-08
6.27053e-08
2.53947e-08
2.59714e-08
2.57258e-08
6.35623e-08
2.53509e-08
2.58747e-08
2.5844e-08
0
6.34715e-08
2.70949e-08
2.77736e-08
2.58259e-08
6.0499e-08
2.53449e-08
0
6.32838e-08
0
1.09941e-07
0
2.61066e-08
0
0
2.69082e-08
2.63508e-08
6.97953e-08
0
2.58783e-08
2.55575e-08
6.20202e-08
0
2.75938e-08
1.26253e-09
2.42905e-08
2.66102e-08
2.68014e-08
2.71557e-08
2.76738e-08
2.67822e-08
6.27373e-08
6.22542e-08
6.45986e-08
6.35939e-08
2.54594e-08
6.09604e-08
5.99284e-08
5.60573e-08
2.22075e-08
1.10566e-07
6.72427e-08
2.55984e-08
2.70468e-08
0
2.58933e-08
2.62557e-08
0
2.56365e-08
2.67737e-08
2.50456e-08
6.14409e-08
4.38459e-06
9.99568e-07
7.657e-08
2.60711e-08
6.2688e-08
6.09485e-08
0
2.60096e-08
2.61732e-08
2.67584e-08
0
2.65286e-08
2.61664e-08
2.63817e-08
2.60676e-08
6.34039e-08
2.54302e-08
6.15285e-08
2.50849e-08
2.50973e-08
2.547e-08
2.59602e-08
2.56269e-08
2.56864e-08
3.98528e-08
5.23004e-08
0
2.5137e-08
2.55805e-08
2.49969e-08
2.56196e-08
2.59439e-08
2.66255e-08
2.78984e-08
2.59219e-08
2.61999e-08
0
2.71945e-08
0
2.6977e-08
0
0
2.642e-08
6.21723e-08
2.45814e-08
2.56913e-08
2.66799e-08
2.52406e-08
2.4758e-08
2.71167e-08
0
2.80188e-08
2.59958e-08
2.63374e-08
0
2.519e-08
6.29802e-08
6.20109e-08
4.37324e-08
3.78324e-08
2.36153e-08
2.21652e-08
2.40292e-08
2.43837e-08
6.58986e-08
2.63222e-08
6.33483e-08
2.62905e-08
2.58446e-08
2.5574e-08
2.58724e-08
2.70674e-08
2.62209e-08
2.35758e-08
2.43036e-08
1.84037e-05
7.84459e-07
1.19716e-07
2.6086e-08
2.64313e-08
6.30645e-08
2.49454e-08
2.59786e-08
2.64316e-08
0
0
6.22598e-08
2.53267e-08
2.59721e-08
6.75104e-08
2.6833e-08
2.52005e-08
2.51206e-08
2.53036e-08
2.60667e-08
2.54072e-08
6.11855e-08
2.54047e-08
2.48589e-08
2.80221e-08
1.32701e-08
3.57145e-08
2.54508e-08
0
2.51836e-08
2.58608e-08
0
2.8771e-08
0
0
6.05002e-08
2.51645e-08
6.49565e-08
2.57523e-08
2.59522e-08
6.38932e-08
6.17574e-08
2.4604e-08
2.51767e-08
2.48824e-08
2.41919e-08
6.63888e-08
2.56275e-08
2.50297e-08
6.01533e-08
5.96269e-08
1.08609e-07
2.53237e-08
6.18695e-08
2.60206e-08
2.63763e-08
2.648e-08
2.64144e-08
2.67795e-08
0
2.59284e-08
2.62626e-08
0
2.66328e-08
0
2.81628e-08
0
1.07574e-07
6.14318e-08
2.49495e-08
2.49415e-08
2.59509e-08
2.65439e-08
0
0
8.42891e-06
6.41356e-07
1.72939e-07
2.36079e-08
2.65985e-08
2.59802e-08
6.31561e-08
2.57334e-08
2.56976e-08
2.66878e-08
2.54286e-08
2.49981e-08
6.14038e-08
2.56019e-08
2.66317e-08
3.7906e-08
4.94078e-08
2.45171e-08
2.6569e-08
0
2.60324e-08
2.59269e-08
2.58456e-08
2.58261e-08
6.52209e-08
2.73158e-08
0
6.29162e-08
2.54728e-08
2.53246e-08
2.61088e-08
0
6.52156e-08
2.76706e-08
0
2.56301e-08
2.72873e-08
3.65915e-08
5.61296e-08
2.55398e-08
2.52981e-08
2.48435e-08
6.13703e-08
0
2.50743e-08
2.5582e-08
6.31803e-08
5.1649e-08
3.19787e-08
2.5915e-08
2.60958e-08
2.63233e-08
2.64041e-08
2.60498e-08
2.62412e-08
2.65529e-08
2.68752e-08
2.63686e-08
2.67548e-08
0
2.63504e-08
2.69593e-08
0
2.68102e-08
0
0
2.78749e-08
0
2.71264e-08
2.64581e-08
2.55356e-08
6.31027e-08
2.55027e-08
6.19803e-08
2.51014e-08
7.25978e-06
5.12678e-07
3.15044e-07
2.32121e-08
2.61934e-08
2.63537e-08
2.60688e-08
6.48422e-08
2.56885e-08
6.21793e-08
2.44298e-08
2.49282e-08
2.56094e-08
4.29792e-08
9.99355e-09
2.67935e-08
2.62471e-08
2.61488e-08
0
2.57584e-08
6.2748e-08
2.59991e-08
0
2.64734e-08
2.68281e-08
2.71325e-08
0
2.63301e-08
2.62069e-08
2.59984e-08
2.64299e-08
0
2.81317e-08
2.72127e-08
2.65278e-08
2.53403e-08
6.76427e-08
2.86162e-08
0
2.63688e-08
2.60286e-08
2.56635e-08
2.61052e-08
1.06388e-07
5.98642e-08
0
2.68572e-08
2.62812e-08
2.60598e-08
2.58582e-08
4.45257e-08
3.98797e-08
2.60258e-08
2.61421e-08
2.67108e-08
6.41348e-08
2.73665e-08
2.65895e-08
2.60286e-08
2.61138e-08
2.63291e-08
0
0
6.11616e-08
2.59323e-08
6.36572e-08
0
2.74174e-08
4.59163e-08
3.7014e-08
5.10118e-09
5.19198e-08
2.55157e-08
2.45906e-08
6.19043e-08
8.44419e-06
9.93925e-07
7.09599e-08
5.83267e-08
2.54647e-08
0
6.22399e-08
6.68183e-08
2.56746e-08
6.4026e-08
2.47349e-08
0
2.53652e-08
2.58874e-08
2.65784e-08
2.67012e-08
0
0
2.65751e-08
3.18119e-08
5.26238e-08
2.54481e-08
6.73583e-08
0
2.66243e-08
2.66401e-08
2.60599e-08
2.53717e-08
2.59682e-08
2.5886e-08
2.55737e-08
2.6937e-08
2.99216e-08
2.74137e-08
2.47172e-08
2.50236e-08
2.67583e-08
0
0
0
2.61032e-08
2.62622e-08
0
2.47245e-08
2.65102e-08
2.68683e-08
2.66548e-08
2.62175e-08
2.71441e-08
2.66059e-08
2.70932e-08
0
0
0
2.71768e-08
2.94686e-08
0
2.56962e-08
0
0
2.59465e-08
6.11883e-08
6.18297e-08
2.39229e-08
2.56547e-08
6.07501e-08
6.71556e-08
2.5952e-08
0
2.56929e-08
0
2.69464e-08
2.67659e-08
2.63991e-08
0
2.161e-05
6.56172e-07
1.23517e-07
2.42061e-08
2.54854e-08
2.63914e-08
2.63712e-08
2.73315e-08
2.80124e-08
2.6102e-08
2.42949e-08
2.50106e-08
2.63897e-08
0
2.65945e-08
0
0
2.63056e-08
6.26962e-08
2.58272e-08
2.59533e-08
2.64024e-08
0
0
2.75883e-08
2.66697e-08
6.33543e-08
2.54553e-08
6.13668e-08
6.22471e-08
2.38242e-08
2.47114e-08
6.75212e-08
2.69744e-08
2.50996e-08
2.56308e-08
0
2.75782e-08
0
6.2324e-08
2.68878e-08
0
2.67142e-08
2.594e-08
2.6698e-08
2.68509e-08
0
0
2.62052e-08
2.59853e-08
2.71005e-08
0
2.66877e-08
2.67727e-08
0
0
0
2.69762e-08
2.66968e-08
2.77909e-08
2.73187e-08
0
2.54693e-08
2.51841e-08
2.55135e-08
2.62994e-08
6.46491e-08
6.5031e-08
6.28431e-08
0
0
2.73202e-08
2.64217e-08
2.5541e-08
2.66938e-08
3.0422e-05
7.60386e-07
8.01984e-08
2.44415e-08
0
2.56511e-08
2.62783e-08
2.68196e-08
2.73063e-08
6.48959e-08
2.57839e-08
2.5621e-08
2.60466e-08
2.66054e-08
2.66091e-08
0
2.61909e-08
2.63965e-08
0
2.66451e-08
2.69086e-08
2.68574e-08
2.68955e-08
2.75913e-08
2.68739e-08
6.24844e-08
2.46537e-08
2.54905e-08
2.55177e-08
6.32728e-08
2.51969e-08
6.34373e-08
2.66099e-08
2.66157e-08
2.6307e-08
2.63291e-08
2.67077e-08
5.12756e-08
2.56697e-09
2.61028e-08
2.60122e-08
6.24303e-08
6.16028e-08
2.43355e-08
6.27745e-08
2.53295e-08
2.5228e-08
6.14061e-08
6.33184e-08
0
0
2.63367e-08
2.66299e-08
2.66993e-08
2.6864e-08
2.74425e-08
2.70443e-08
2.59828e-08
6.82939e-08
2.90359e-08
0
2.52433e-08
2.52945e-08
2.62246e-08
2.57283e-08
2.56892e-08
2.67676e-08
2.75445e-08
2.59089e-08
2.5297e-08
6.62758e-08
2.78637e-08
2.52671e-08
2.50431e-08
6.04167e-08
1.56598e-05
5.58506e-07
6.96939e-08
0
6.1561e-08
0
2.57099e-08
2.63752e-08
2.70725e-08
8.98665e-09
1.0833e-08
2.66123e-08
2.67314e-08
2.69148e-08
2.63995e-08
6.32212e-08
2.5224e-08
0
2.61015e-08
0
2.65681e-08
2.62546e-08
6.25406e-08
6.72075e-08
0
2.43291e-08
2.44095e-08
2.48663e-08
6.67884e-08
2.6362e-08
2.54794e-08
2.59233e-08
3.94553e-08
4.75414e-08
2.57976e-08
2.60045e-08
1.19485e-08
3.61489e-08
6.21862e-08
3.5391e-08
5.00324e-08
2.61814e-08
2.58365e-08
0
2.59853e-08
6.29075e-08
2.60345e-08
0
0
0
2.65065e-08
2.67788e-08
2.66649e-08
2.64298e-08
2.62562e-08
6.79201e-08
2.61613e-08
2.66504e-08
0
2.81077e-08
2.55824e-08
2.66934e-08
5.64035e-08
2.55736e-08
2.48874e-08
2.5747e-08
2.88861e-08
0
2.57781e-08
0
0
0
2.68765e-08
0
0
8.41631e-06
4.06695e-07
8.20742e-08
0
0
6.29397e-08
2.60105e-08
2.6376e-08
2.56719e-08
2.64706e-08
2.71528e-08
2.7071e-08
2.6792e-08
2.70656e-08
2.67615e-08
2.65401e-08
2.53634e-08
2.50804e-08
2.54282e-08
2.63838e-08
6.24131e-08
2.57619e-08
6.49989e-08
2.67086e-08
2.57249e-08
2.55678e-08
2.55176e-08
2.64948e-08
2.71503e-08
2.67514e-08
2.63132e-08
3.012e-08
5.81554e-08
4.62226e-08
3.66809e-08
2.71953e-08
2.63723e-08
6.28302e-08
2.45864e-08
2.45209e-08
2.5458e-08
2.62658e-08
2.63049e-08
2.60758e-08
2.54834e-08
2.64606e-08
0
0
2.61284e-08
2.66935e-08
2.6843e-08
2.68221e-08
2.65687e-08
2.6376e-08
2.62854e-08
2.71502e-08
2.76163e-08
0
2.63084e-08
6.35052e-08
6.29452e-08
2.45261e-08
2.4747e-08
2.54305e-08
2.56769e-08
2.65406e-08
2.73088e-08
0
2.99563e-08
2.98095e-08
5.666e-08
2.60548e-08
2.66204e-08
6.61627e-08
2.96459e-08
0.000164728
2.46318e-07
1.89608e-08
2.54762e-08
0
2.64604e-08
2.62808e-08
2.63162e-08
2.60329e-08
2.62294e-08
6.74441e-08
2.66551e-08
2.63746e-08
2.87467e-08
0
0
6.68625e-09
4.37781e-08
6.20101e-08
2.5968e-08
2.6432e-08
2.60808e-08
2.65697e-08
2.6741e-08
2.64897e-08
2.62952e-08
2.61646e-08
2.64334e-08
2.64062e-08
2.62688e-08
6.55315e-08
2.69519e-08
2.62993e-08
6.10624e-08
2.4863e-08
6.66284e-08
2.64716e-08
2.51492e-08
2.6015e-08
0
6.32272e-08
2.63829e-08
8.60564e-09
4.4263e-08
2.609e-08
0
2.66094e-08
2.61255e-08
2.64458e-08
2.65489e-08
2.65196e-08
2.67011e-08
2.66015e-08
2.66802e-08
2.67408e-08
2.71195e-08
2.75082e-08
0
2.75095e-08
2.69248e-08
0
2.54032e-08
6.19364e-08
2.54109e-08
2.54574e-08
2.67588e-08
0
2.7596e-08
2.75608e-08
6.13432e-08
2.56602e-08
2.5426e-08
6.61128e-08
2.66875e-08
0
5.29028e-05
3.86963e-07
1.19487e-08
2.75629e-08
2.64189e-08
6.24546e-08
2.55958e-08
2.59979e-08
2.6193e-08
2.61891e-08
6.46683e-08
2.63584e-08
2.56909e-08
2.67324e-08
2.74064e-08
2.64075e-08
2.61658e-08
2.58165e-08
2.58795e-08
2.69109e-08
0
2.65735e-08
1.168e-08
6.28209e-09
6.36807e-08
2.58351e-08
2.52257e-08
6.26028e-08
2.51709e-08
2.56161e-08
2.77515e-08
2.69573e-08
2.57445e-08
2.53239e-08
2.59963e-08
2.66971e-08
2.66854e-08
2.63271e-08
2.6263e-08
2.61077e-08
2.65064e-08
2.65595e-08
2.63375e-08
2.6281e-08
2.62456e-08
2.63803e-08
2.6417e-08
2.60663e-08
2.59207e-08
2.65419e-08
0
2.77627e-08
0
7.69183e-08
4.76251e-08
2.89135e-08
2.28766e-08
2.70391e-08
0
2.64237e-08
6.36999e-08
6.21726e-08
2.52592e-08
2.52974e-08
2.56818e-08
2.63367e-08
2.67272e-08
2.76288e-08
2.58521e-08
2.51377e-08
6.1059e-08
1.08131e-07
2.53146e-08
2.54973e-08
0
1.1495e-05
5.1153e-07
9.22218e-08
0
2.59415e-08
2.67949e-08
2.77152e-08
2.62692e-08
6.26503e-08
2.55077e-08
2.62578e-08
6.27088e-08
2.56274e-08
6.32649e-08
2.56659e-08
2.53912e-08
2.53886e-08
2.57917e-08
2.60664e-08
2.69249e-08
2.73236e-08
0
0
2.71435e-08
0
2.64178e-08
6.16963e-08
2.57171e-08
6.23678e-08
2.58083e-08
2.65656e-08
2.71901e-08
2.68468e-08
2.62229e-08
6.28481e-08
2.58928e-08
2.60816e-08
2.6212e-08
2.62683e-08
2.63042e-08
2.62878e-08
2.6053e-08
2.61033e-08
2.57736e-08
2.63542e-08
2.62972e-08
2.6711e-08
2.64817e-08
2.56953e-08
2.6626e-08
0
2.87894e-08
0
2.582e-08
2.56708e-08
2.56456e-08
2.58477e-08
0
6.50949e-08
2.85754e-08
6.54144e-08
0
0
0
0
0
0
6.65227e-08
2.73657e-08
2.51493e-08
6.73787e-08
0
2.61016e-08
6.39234e-08
0
7.27904e-06
5.04358e-07
4.88318e-08
0
2.41508e-08
2.83737e-08
0
2.64453e-08
2.65849e-08
0
2.64795e-08
2.64681e-08
2.69597e-08
2.62826e-08
6.35916e-08
2.52369e-08
2.60674e-08
2.58157e-08
2.54575e-08
6.67744e-08
1.19945e-08
5.09871e-09
2.61246e-08
2.80371e-08
0
1.06825e-07
6.16987e-08
0
2.64322e-08
0
2.7329e-08
0
2.66845e-08
2.61875e-08
2.59285e-08
2.64831e-08
2.64783e-08
2.65901e-08
2.74513e-08
0
6.30908e-08
2.65132e-08
1.02221e-08
4.02168e-08
2.58926e-08
2.51182e-08
2.5742e-08
2.6109e-08
2.61053e-08
2.57734e-08
2.65507e-08
2.82212e-08
0
2.69639e-08
2.58696e-08
2.58633e-08
2.5003e-08
2.4375e-08
6.79483e-08
2.95903e-08
2.79988e-08
0
2.5476e-08
2.53652e-08
2.52593e-08
2.61289e-08
6.74902e-08
0
6.34704e-08
2.56896e-08
0
2.764e-08
2.68181e-08
0
2.67665e-08
0.00012715
4.0895e-07
1.31387e-07
2.46023e-08
0
2.69789e-08
2.73998e-08
0
2.6602e-08
2.67196e-08
2.66697e-08
2.66402e-08
2.64516e-08
2.65031e-08
2.65453e-08
2.62512e-08
2.63104e-08
2.59899e-08
2.56776e-08
6.56633e-08
2.61102e-08
4.71303e-08
8.29964e-08
2.66089e-08
2.62345e-08
2.67037e-08
0
2.46303e-08
6.32566e-08
0
0
6.17324e-08
6.40196e-08
0
2.64927e-08
0
2.67344e-08
0
2.69963e-08
2.68298e-08
2.68815e-08
2.68508e-08
2.67737e-08
2.66018e-08
2.59219e-08
2.53227e-08
6.10635e-08
6.21894e-08
2.54471e-08
2.59585e-08
2.72971e-08
0
0
6.15911e-08
0
2.60287e-08
2.56036e-08
2.61292e-08
0
0
2.78672e-08
2.70775e-08
6.02079e-08
2.76678e-08
5.67043e-08
2.61691e-08
0
2.80551e-08
0
2.62279e-08
2.70095e-08
3.6822e-09
2.0299e-08
2.66195e-08
6.47532e-08
4.66307e-06
6.45456e-07
1.23542e-07
5.54528e-08
2.54653e-08
2.64059e-08
1.01572e-08
8.36361e-09
2.5987e-08
2.69604e-08
2.68486e-08
2.62734e-08
2.62632e-08
2.63206e-08
2.66088e-08
2.67163e-08
2.67514e-08
2.59886e-08
2.5944e-08
6.12028e-08
6.24604e-08
2.57672e-08
2.6437e-08
2.65587e-08
2.88572e-08
0
2.58786e-08
2.60365e-08
0
2.57215e-08
2.56865e-08
0
2.62366e-08
1.28474e-08
2.75601e-09
2.70578e-08
0
2.70951e-08
2.66379e-08
2.65593e-08
2.65156e-08
2.70878e-08
2.68627e-08
2.69327e-08
2.54041e-08
2.52521e-08
2.55606e-08
6.23545e-08
2.53139e-08
2.59537e-08
2.76534e-08
2.77346e-08
0
2.55028e-08
2.60588e-08
0
2.55549e-08
2.77081e-08
2.80254e-08
6.89837e-08
0
0
2.63808e-08
6.2378e-08
2.45583e-08
2.53702e-08
6.82624e-08
2.72736e-08
0
6.17603e-08
6.25409e-08
9.02304e-08
3.38329e-08
6.21968e-08
2.56441e-08
3.03754e-05
3.08784e-07
6.93739e-08
5.81198e-08
6.0263e-08
6.11901e-08
2.60085e-08
2.58165e-08
2.6137e-08
2.78513e-08
0
2.66636e-08
0
0
0
2.78916e-08
2.73917e-08
2.58134e-08
2.53934e-08
2.52456e-08
2.58196e-08
6.36007e-08
6.26825e-08
2.54506e-08
6.9109e-08
2.74941e-08
2.4907e-08
0
2.56576e-08
2.62328e-08
0
2.60523e-08
2.67681e-08
0
2.63675e-08
2.6689e-08
0
6.30241e-08
2.6104e-08
2.59786e-08
2.58828e-08
2.63439e-08
2.88712e-08
0
2.63554e-08
2.61288e-08
2.58991e-08
2.59909e-08
2.55268e-08
2.54567e-08
6.88978e-08
2.73492e-08
2.54224e-08
2.60053e-08
0
6.11653e-08
2.41764e-08
2.90266e-08
2.92608e-08
2.75753e-08
2.67535e-08
0
2.61153e-08
2.60646e-08
2.60369e-08
6.24191e-08
2.74372e-08
2.65463e-08
2.66274e-08
0
2.72389e-08
2.64514e-08
2.55878e-08
6.13243e-08
2.5463e-08
7.3289e-06
1.22604e-06
3.80592e-08
0
2.53671e-08
2.50881e-08
6.05274e-08
6.10225e-08
2.49439e-08
6.51722e-08
2.65461e-08
0
0
5.89109e-08
2.74208e-08
2.87094e-08
0
2.61045e-08
2.64265e-08
2.64166e-08
3.1537e-08
5.74793e-08
2.60829e-08
2.42033e-08
2.84039e-08
6.81454e-08
2.55249e-08
5.83964e-08
5.92024e-08
5.96677e-08
2.48408e-08
2.52743e-08
2.56811e-08
2.67169e-08
2.6029e-08
2.5837e-08
2.61129e-08
2.61446e-08
2.55982e-08
2.52367e-08
2.67461e-08
0
2.69427e-08
2.78942e-08
2.59884e-08
2.58985e-08
2.57737e-08
2.58787e-08
2.49889e-08
6.14138e-08
2.86702e-08
6.57452e-08
7.83224e-09
1.11689e-08
3.01795e-08
5.444e-08
2.49877e-08