/*--------------------------------*- C++ -*----------------------------------*\
  =========                 |
  \\      /  F ield         | OpenFOAM: The Open Source CFD Toolbox
   \\    /   O peration     | Website:  https://openfoam.org
    \\  /    A nd           | Version:  12
     \\/     M anipulation  |
\*---------------------------------------------------------------------------*/
FoamFile
{
    format      ascii;
    class       volScalarField;
    location    "0.85";
    object      p;
}
// * * * * * * * * * * * * * * * * * * * * * * * * * * * * * * * * * * * * * //

dimensions      [0 2 -2 0 0 0 0];

internalField   nonuniform List<scalar> 
3750
(
1.46911
1.45576
1.43821
1.41985
1.40407
1.3812
1.36912
1.35812
1.34668
1.3327
1.31821
1.31668
1.31374
1.30854
1.30147
1.301
1.28825
1.26393
1.24829
1.23781
1.22804
1.21963
1.21206
1.2049
1.19733
1.18576
1.16867
1.14396
1.1365
1.12872
1.12114
1.11338
1.10616
1.1013
1.09365
1.0865
1.08047
1.07579
1.07272
1.06929
1.06578
1.05993
1.0491
1.02626
1.01221
1.00522
1.00035
0.995032
0.988142
0.978485
0.963699
0.95331
0.987497
0.975973
0.958894
0.945952
0.934617
0.92521
0.920017
0.920432
0.916397
0.908286
0.896749
0.874434
0.862837
0.84825
0.842663
0.834082
0.814928
0.80318
0.792701
0.779735
0.757968
0.744116
0.732196
1.47692
1.46109
1.43929
1.41715
1.41067
1.37037
1.36778
1.36042
1.34983
1.33584
1.31866
1.32092
1.31681
1.3106
1.29461
1.28094
1.25697
1.25467
1.24607
1.2357
1.22659
1.21874
1.21179
1.20527
1.19835
1.18401
1.16186
1.14792
1.13827
1.12946
1.12132
1.11378
1.10542
1.10041
1.09327
1.08598
1.07969
1.07463
1.07135
1.06917
1.06717
1.06309
1.05502
1.02481
1.0053
1.00341
1.00097
0.996617
0.990866
0.983517
0.973594
0.967119
0.97349
0.967208
0.956048
0.94418
0.932725
0.921533
0.914538
0.925041
0.920539
0.911661
0.907791
0.868082
0.864355
0.855515
0.844509
0.835538
0.81425
0.804892
0.794237
0.7832
0.755846
0.743834
0.731217
1.48444
1.46777
1.44689
1.40069
1.39511
1.37653
1.37521
1.36522
1.35364
1.34621
1.35086
1.32938
1.32067
1.32006
1.28118
1.27414
1.2593
1.25355
1.24476
1.23319
1.22398
1.21725
1.21095
1.20565
1.20527
1.16592
1.1589
1.15055
1.14154
1.12903
1.12188
1.1144
1.10698
1.09971
1.09211
1.0853
1.07727
1.07094
1.07033
1.0692
1.07068
1.06768
1.05899
1.04052
0.993177
1.00488
1.00359
0.999679
0.995026
0.991169
0.980182
0.972982
0.969584
0.963157
0.952279
0.941792
0.931032
0.916659
0.903131
0.929579
0.928594
0.909397
0.898224
0.88133
0.868785
0.859159
0.847693
0.834659
0.817638
0.805836
0.795732
0.782503
0.760075
0.744692
0.730633
1.48024
1.46859
1.44024
1.4116
1.39519
1.36917
1.38498
1.3694
1.35642
1.3504
1.34534
1.32822
1.31735
1.31105
1.29189
1.27826
1.26645
1.2557
1.24575
1.2301
1.22182
1.21534
1.20841
1.20072
1.19202
1.17471
1.16418
1.15388
1.14678
1.129
1.12208
1.11483
1.10719
1.09939
1.09157
1.08345
1.07548
1.06821
1.06437
1.07141
1.07409
1.06764
1.06215
1.04428
1.03299
1.01613
1.00793
1.0026
0.998259
0.99864
0.980692
0.974199
0.968889
0.963503
0.948361
0.939474
0.930973
0.920532
0.910271
0.911103
0.940818
0.89846
0.893254
0.890973
0.861845
0.857136
0.846844
0.83433
0.819471
0.808203
0.797701
0.78472
0.765024
0.748909
0.738639
1.47177
1.4696
1.43642
1.41122
1.39333
1.37755
1.37756
1.37048
1.35849
1.34728
1.33601
1.31958
1.31776
1.30946
1.29528
1.28148
1.26909
1.25703
1.24377
1.22734
1.21902
1.21438
1.20623
1.19657
1.18729
1.17737
1.16841
1.15834
1.14804
1.133
1.12322
1.11506
1.10714
1.09906
1.09099
1.08243
1.07327
1.06226
1.05264
1.07785
1.07527
1.07363
1.07507
1.03687
1.03539
1.02091
1.0112
1.00355
0.99683
0.970258
0.972232
0.971981
0.969886
0.972381
0.937503
0.937299
0.932069
0.925693
0.921819
0.911114
0.913472
0.897059
0.886559
0.873717
0.880476
0.860874
0.845313
0.832971
0.817983
0.807048
0.797328
0.787452
0.772086
0.752328
0.74389
1.44008
1.43223
1.41965
1.40442
1.39001
1.37714
1.37559
1.37626
1.36069
1.3432
1.33635
1.29676
1.32245
1.31243
1.29724
1.28352
1.27122
1.25843
1.23879
1.226
1.21549
1.21203
1.20407
1.19191
1.18238
1.18072
1.17174
1.15942
1.14622
1.13699
1.12475
1.11545
1.10665
1.0985
1.0905
1.08205
1.07301
1.06461
1.0601
1.06291
1.05721
1.07742
1.0697
1.04593
1.03625
1.02103
1.01245
1.0035
0.992562
0.975195
0.973441
0.97083
0.967073
0.961704
0.947636
0.940367
0.933852
0.928854
0.92826
0.915394
0.90571
0.892104
0.880159
0.883068
0.879677
0.858247
0.838671
0.828883
0.819686
0.809777
0.799112
0.791368
0.785996
0.745218
0.732613
1.41877
1.40308
1.4046
1.39662
1.38574
1.37259
1.36366
1.39212
1.36036
1.32868
1.32722
1.31465
1.31521
1.3076
1.29587
1.28385
1.27357
1.2685
1.22791
1.22218
1.21138
1.20765
1.20786
1.18546
1.17118
1.18966
1.17618
1.16029
1.14738
1.13615
1.12458
1.1146
1.10596
1.09888
1.09085
1.08207
1.07197
1.06336
1.06696
1.06221
1.05676
1.06153
1.05648
1.04674
1.04099
1.02147
1.01444
1.00514
0.995243
0.983923
0.976846
0.971153
0.96606
0.959673
0.951005
0.942948
0.934214
0.922446
0.934359
0.916058
0.903042
0.889685
0.873649
0.892157
0.887548
0.8529
0.822094
0.824553
0.820488
0.813916
0.799553
0.792789
0.77884
0.765025
0.728568
1.41369
1.41071
1.39899
1.39199
1.38298
1.37218
1.36403
1.36413
1.35044
1.34157
1.33314
1.32125
1.31243
1.30398
1.29353
1.28209
1.27062
1.25835
1.2375
1.22299
1.20887
1.19756
1.22341
1.1807
1.17481
1.17789
1.17152
1.16006
1.14719
1.13505
1.12358
1.1123
1.1028
1.10143
1.09177
1.0839
1.07251
1.05811
1.07595
1.06546
1.05488
1.04803
1.03244
1.05166
1.04052
1.02545
1.01587
1.00728
0.998997
0.988451
0.979157
0.971122
0.965284
0.960403
0.953703
0.946275
0.94152
0.896433
0.912878
0.911065
0.902037
0.891841
0.878948
0.872692
0.86939
0.844587
0.826845
0.827482
0.823697
0.825884
0.792376
0.799509
0.769573
0.757349
0.744626
1.40476
1.38837
1.39085
1.39084
1.38215
1.37095
1.35956
1.35457
1.33237
1.34976
1.33794
1.32367
1.31264
1.30257
1.29187
1.28048
1.26893
1.2565
1.24164
1.22615
1.21073
1.20103
1.20082
1.18532
1.17508
1.17144
1.17161
1.16073
1.14721
1.13409
1.12257
1.10853
1.09313
1.10718
1.08754
1.08926
1.07907
1.06916
1.06895
1.05993
1.04863
1.03633
1.02586
1.03718
1.04377
1.02931
1.01532
1.01346
1.00573
0.992518
0.979882
0.967459
0.960925
0.963573
0.957213
0.947114
0.934295
0.916193
0.910325
0.906922
0.902337
0.902444
0.868254
0.86502
0.862247
0.835032
0.813504
0.830876
0.819221
0.819269
0.800052
0.787587
0.781588
0.767606
0.761693
1.41262
1.39755
1.39432
1.38838
1.38306
1.37237
1.34569
1.32411
1.32841
1.33324
1.33638
1.32446
1.31187
1.30181
1.29061
1.27908
1.26791
1.25693
1.24527
1.22703
1.2137
1.1998
1.1935
1.18508
1.17287
1.16297
1.18031
1.16206
1.14608
1.13207
1.12247
1.11004
1.10135
1.10686
1.06906
1.09729
1.08439
1.07284
1.06451
1.05513
1.04291
1.02835
1.01326
1.03355
1.0553
1.03266
1.01031
1.02446
1.00976
0.994715
0.980867
0.96007
0.947591
0.974063
0.96263
0.951262
0.939605
0.922037
0.912171
0.903984
0.897562
0.889366
0.873688
0.864
0.854747
0.838825
0.81551
0.81723
0.803817
0.82215
0.801235
0.774725
0.790988
0.772063
0.757568
1.42621
1.41171
1.40103
1.38435
1.37963
1.37998
1.33857
1.3334
1.33397
1.32234
1.34168
1.32303
1.309
1.30095
1.29013
1.27911
1.26685
1.2582
1.25523
1.21605
1.21065
1.19641
1.18728
1.18958
1.18033
1.17129
1.17299
1.15844
1.14454
1.13171
1.12102
1.10925
1.09917
1.09191
1.08929
1.09358
1.08449
1.07383
1.06381
1.05287
1.03863
1.0249
1.01832
1.03648
1.0466
1.03381
1.01937
1.01828
1.00749
0.994837
0.98356
0.958093
0.947622
0.971335
0.962183
0.957375
0.951243
0.924665
0.914379
0.901772
0.894072
0.883595
0.871927
0.862075
0.851474
0.839152
0.823659
0.8133
0.805272
0.809664
0.808998
0.771982
0.781395
0.771372
0.752668
1.42942
1.41969
1.41565
1.3688
1.3695
1.37064
1.349
1.3322
1.3486
1.33484
1.3338
1.31667
1.30636
1.29803
1.28879
1.27919
1.26312
1.25363
1.24469
1.22604
1.21294
1.19629
1.18148
1.20149
1.18749
1.17715
1.17117
1.15307
1.14105
1.12986
1.11877
1.107
1.0935
1.08348
1.10327
1.09545
1.08451
1.07398
1.0639
1.05354
1.03446
1.02082
1.0127
1.04708
1.04684
1.03453
1.02333
1.01458
1.00469
0.994075
0.983872
0.968904
0.956598
0.956499
0.9495
0.96841
0.963583
0.916466
0.915501
0.90001
0.894855
0.879016
0.868935
0.859436
0.849802
0.838783
0.82635
0.814272
0.803431
0.798058
0.790909
0.785245
0.781856
0.778232
0.736038
1.42833
1.41946
1.41497
1.3638
1.36076
1.37674
1.35815
1.34464
1.34638
1.34032
1.3404
1.30308
1.30106
1.29482
1.28806
1.28133
1.25833
1.25036
1.24373
1.23035
1.2175
1.19982
1.19022
1.19406
1.18928
1.18193
1.17959
1.14057
1.13684
1.12811
1.11761
1.10645
1.09351
1.08839
1.10053
1.09522
1.08398
1.07328
1.06458
1.06352
1.024
1.01853
1.01357
1.04811
1.04638
1.03377
1.02266
1.01254
1.00252
0.992388
0.982723
0.979649
0.955034
0.956266
0.953144
0.951954
0.948105
0.92583
0.917897
0.906517
0.905726
0.868315
0.865406
0.857883
0.849188
0.839921
0.828773
0.814516
0.801983
0.788439
0.775712
0.795904
0.782503
0.766771
0.746127
1.42661
1.41547
1.40333
1.38097
1.37188
1.36961
1.36028
1.35062
1.34429
1.33688
1.32791
1.31026
1.29995
1.29155
1.29095
1.2791
1.259
1.2467
1.24583
1.23254
1.22156
1.20129
1.19394
1.1894
1.1918
1.18177
1.1682
1.1488
1.13786
1.12811
1.11807
1.10661
1.09301
1.08355
1.10578
1.09716
1.08233
1.07115
1.05922
1.05257
1.03503
1.02348
1.02417
1.04327
1.04238
1.03194
1.02103
1.01095
1.00063
0.989838
0.977484
0.964157
0.974896
0.961938
0.964009
0.93309
0.941515
0.926413
0.919468
0.908688
0.896888
0.877356
0.866921
0.857802
0.849263
0.841204
0.830025
0.814703
0.802507
0.791688
0.783156
0.784139
0.774718
0.760338
0.746447
1.42441
1.41312
1.40171
1.3873
1.37738
1.36976
1.3619
1.35272
1.34385
1.33475
1.32455
1.31172
1.29761
1.28232
1.29711
1.27846
1.25795
1.23971
1.25086
1.23324
1.21994
1.20443
1.19193
1.18178
1.20136
1.18082
1.163
1.14867
1.13764
1.12786
1.11866
1.10911
1.10013
1.09418
1.09652
1.08977
1.07758
1.06704
1.05709
1.04909
1.03806
1.02498
1.01979
1.04678
1.04182
1.02954
1.0192
1.00926
0.998742
0.988601
0.978235
0.968802
0.966164
0.950491
0.946662
0.944242
0.94177
0.930229
0.921531
0.910724
0.897169
0.879258
0.866808
0.856996
0.848598
0.839792
0.829352
0.816217
0.806544
0.797983
0.783526
0.777213
0.768627
0.754739
0.740103
1.42481
1.41342
1.40211
1.3887
1.37926
1.37192
1.36433
1.35462
1.34391
1.33391
1.3245
1.31317
1.30154
1.29268
1.29003
1.27218
1.25955
1.25022
1.23602
1.22606
1.21678
1.20791
1.19946
1.19488
1.2021
1.16602
1.15443
1.14529
1.13608
1.12745
1.11911
1.1114
1.1049
1.09906
1.09233
1.08559
1.07216
1.06302
1.05346
1.04577
1.04367
1.0333
1.02843
1.04069
1.0361
1.02563
1.01758
1.00803
0.99765
0.987357
0.978104
0.9693
0.956583
0.939022
0.928584
0.956519
0.943294
0.936285
0.927406
0.914441
0.899818
0.878633
0.864315
0.85568
0.847191
0.838282
0.828597
0.818604
0.811309
0.81031
0.774749
0.774353
0.767114
0.756841
0.748208
1.43232
1.41499
1.40222
1.38653
1.37762
1.37728
1.36901
1.35691
1.34359
1.33219
1.32508
1.315
1.30562
1.29958
1.29587
1.25938
1.26027
1.26243
1.224
1.22149
1.21404
1.20873
1.20973
1.19782
1.19023
1.18151
1.14344
1.14122
1.13408
1.1263
1.11958
1.11356
1.10823
1.10226
1.08909
1.08489
1.06453
1.06005
1.0519
1.03985
1.05874
1.04119
1.02513
1.04276
1.02957
1.01792
1.01815
1.0086
0.996325
0.985186
0.977416
0.966694
0.953969
0.940063
0.929585
0.96098
0.92463
0.94513
0.927392
0.914102
0.901559
0.877355
0.864307
0.854898
0.846198
0.837289
0.828076
0.818426
0.809603
0.801054
0.786297
0.778504
0.768957
0.759186
0.750801
1.4385
1.4186
1.40607
1.37947
1.36654
1.38529
1.37373
1.36015
1.34159
1.33212
1.32318
1.3142
1.30678
1.29798
1.28366
1.26585
1.25841
1.25055
1.2331
1.22326
1.21174
1.20268
1.23189
1.19272
1.18044
1.17039
1.15334
1.14264
1.13314
1.12372
1.11622
1.11746
1.11183
1.10559
1.08616
1.07964
1.06469
1.0604
1.05637
1.05239
1.05888
1.05061
1.03152
1.03022
1.0182
1.00144
1.01888
1.01139
0.993869
0.978234
0.979735
0.966086
0.951825
0.947221
0.939026
0.943321
0.932885
0.943611
0.917343
0.911492
0.900804
0.874505
0.864937
0.853061
0.845246
0.836606
0.828044
0.818378
0.807416
0.795329
0.791179
0.78384
0.771324
0.760208
0.751511
1.45035
1.42935
1.41735
1.37321
1.37245
1.37629
1.37201
1.36935
1.33087
1.33099
1.32131
1.31214
1.3038
1.29421
1.28025
1.26772
1.25796
1.24806
1.23532
1.22744
1.21496
1.20901
1.2135
1.20706
1.16944
1.1663
1.15592
1.14297
1.13271
1.1207
1.10878
1.1271
1.11587
1.10423
1.08933
1.07847
1.06513
1.05751
1.06045
1.05906
1.06725
1.07058
1.0268
1.02506
1.01656
1.00425
0.998343
1.01335
0.989569
0.969328
0.985159
0.965264
0.947156
0.954888
0.939324
0.933742
0.932952
0.922314
0.929831
0.912971
0.896683
0.878078
0.863105
0.847843
0.842763
0.837107
0.828935
0.819357
0.808574
0.789872
0.802737
0.786572
0.77079
0.759985
0.751196
1.47369
1.43628
1.40444
1.38419
1.37733
1.37213
1.36629
1.35822
1.34211
1.33448
1.31831
1.30927
1.30048
1.29066
1.27956
1.2689
1.25878
1.24869
1.23881
1.2294
1.21549
1.2106
1.20495
1.1951
1.17838
1.16796
1.15789
1.14323
1.13379
1.12448
1.11816
1.11959
1.11281
1.10259
1.0917
1.08023
1.06503
1.05159
1.06643
1.05326
1.07535
1.08067
1.03241
1.02679
1.01763
1.00873
1.00251
1.00417
0.984075
0.972243
0.972611
0.965417
0.964257
0.936906
0.931228
0.92052
0.940366
0.92947
0.921812
0.906723
0.891662
0.876649
0.859524
0.839271
0.839451
0.840735
0.83045
0.827541
0.815066
0.801336
0.79842
0.782712
0.765709
0.757908
0.750767
1.49122
1.42652
1.40036
1.38594
1.3767
1.36965
1.36318
1.3554
1.34685
1.34524
1.30824
1.30611
1.29828
1.28836
1.27856
1.26928
1.25989
1.2493
1.23916
1.23128
1.2131
1.21021
1.20103
1.19124
1.17926
1.16283
1.16208
1.1487
1.13725
1.12788
1.12031
1.11433
1.10859
1.10194
1.096
1.08481
1.07359
1.06573
1.0635
1.05514
1.05394
1.07384
1.04876
1.03274
1.01845
1.01184
1.00784
1.01107
0.971498
0.969717
0.964823
0.95727
0.958506
0.944925
0.936077
0.929881
0.931443
0.926584
0.919425
0.899096
0.885328
0.871609
0.855718
0.828754
0.840067
0.853142
0.829818
0.841947
0.82239
0.807476
0.796035
0.780702
0.757688
0.760756
0.751866
1.35645
1.38841
1.39264
1.3834
1.37546
1.3678
1.36123
1.35311
1.34494
1.33525
1.31847
1.3089
1.29808
1.28511
1.2766
1.27277
1.26118
1.24927
1.23892
1.2296
1.21474
1.20637
1.19813
1.18952
1.18514
1.15217
1.16962
1.15285
1.13989
1.12946
1.12004
1.1112
1.10436
1.10644
1.10024
1.08953
1.08014
1.07304
1.06598
1.05974
1.05516
1.05841
1.04813
1.03582
1.01688
1.01004
1.00454
1.00666
0.98021
0.970299
0.960596
0.946872
0.963799
0.949991
0.938363
0.931607
0.927854
0.924622
0.926667
0.884303
0.879984
0.869689
0.856603
0.843149
0.842484
0.847524
0.837243
0.836143
0.824223
0.810599
0.798523
0.785995
0.779459
0.778894
0.754857
1.37688
1.38478
1.38512
1.37948
1.37438
1.36576
1.36057
1.35333
1.34366
1.3334
1.32117
1.312
1.29972
1.28105
1.26683
1.28291
1.26152
1.24782
1.23679
1.22696
1.21463
1.20508
1.19581
1.18428
1.17087
1.18984
1.15623
1.1507
1.14089
1.13009
1.11928
1.10843
1.0963
1.11761
1.10644
1.09298
1.08422
1.07988
1.06913
1.0633
1.05777
1.05253
1.04409
1.03378
1.01838
1.00732
0.994941
1.01361
0.984639
0.971395
0.961861
0.951751
0.954234
0.94495
0.936026
0.92973
0.925116
0.920222
0.914306
0.887986
0.880214
0.870788
0.86039
0.850916
0.845672
0.842666
0.838423
0.833371
0.824894
0.811817
0.801392
0.790188
0.783177
0.773504
0.757855
1.39627
1.38931
1.38427
1.37897
1.37407
1.36626
1.35787
1.3541
1.34488
1.33444
1.32098
1.31515
1.30264
1.28436
1.27539
1.28339
1.24689
1.24313
1.23395
1.22599
1.2127
1.20261
1.19464
1.18648
1.17896
1.17952
1.16319
1.15227
1.14184
1.1307
1.11889
1.11181
1.10613
1.11032
1.10484
1.09238
1.08327
1.09322
1.06753
1.0663
1.0587
1.05034
1.0412
1.03164
1.02036
1.0111
1.00575
1.01418
0.974421
0.97194
0.965323
0.951056
0.945543
0.938828
0.931646
0.926238
0.922309
0.91628
0.907253
0.892112
0.88232
0.87286
0.863232
0.854139
0.847009
0.841308
0.837946
0.834594
0.828682
0.811794
0.805297
0.788711
0.778796
0.770315
0.760304
1.40316
1.39171
1.39496
1.38417
1.37489
1.36567
1.35601
1.35206
1.34936
1.34001
1.31993
1.31373
1.30621
1.30109
1.26623
1.26689
1.25355
1.24475
1.23595
1.22625
1.20696
1.19876
1.19064
1.19018
1.18403
1.17571
1.16459
1.15372
1.14306
1.13213
1.1204
1.11088
1.10767
1.11279
1.10726
1.09103
1.06973
1.08509
1.09314
1.07382
1.05983
1.04937
1.03944
1.02967
1.02047
1.01197
1.00497
0.998752
0.983702
0.976962
0.976187
0.9403
0.939719
0.933194
0.924767
0.918858
0.921733
0.915477
0.905562
0.893789
0.885066
0.875475
0.865286
0.855386
0.846515
0.838698
0.835892
0.841092
0.842829
0.80562
0.811821
0.778477
0.773234
0.770487
0.762908
1.41085
1.40042
1.41364
1.38893
1.37471
1.36415
1.34981
1.33631
1.35268
1.34721
1.32277
1.31361
1.30393
1.29353
1.27683
1.26716
1.25622
1.24656
1.23859
1.23603
1.19648
1.19096
1.18098
1.20052
1.18844
1.17631
1.16541
1.15492
1.14468
1.13452
1.12374
1.10594
1.09796
1.12617
1.11625
1.09825
1.08505
1.08424
1.08171
1.07071
1.058
1.04693
1.03766
1.02857
1.01991
1.01133
1.00328
0.994528
0.982907
0.975708
0.96402
0.949556
0.939674
0.93007
0.917019
0.906084
0.928301
0.914547
0.903878
0.896032
0.889238
0.878761
0.866599
0.855811
0.844814
0.833437
0.825664
0.84827
0.836388
0.811883
0.802247
0.787739
0.780359
0.772974
0.76403
1.4257
1.42028
1.41195
1.38537
1.37324
1.36268
1.34958
1.33657
1.33259
1.34885
1.32742
1.31261
1.30239
1.29255
1.28049
1.26922
1.25739
1.24646
1.23634
1.22594
1.20748
1.19576
1.18744
1.19123
1.18603
1.17722
1.16607
1.15549
1.14576
1.13745
1.13118
1.11646
1.10006
1.12387
1.11718
1.10305
1.09366
1.08634
1.07329
1.0644
1.05354
1.0442
1.03542
1.02674
1.01797
1.01026
1.00185
0.993341
0.983366
0.971698
0.961002
0.94988
0.939747
0.929597
0.919075
0.912084
0.915623
0.906423
0.895461
0.897131
0.897623
0.883589
0.867128
0.854764
0.844769
0.835534
0.831842
0.839158
0.831173
0.808558
0.795148
0.792649
0.786986
0.776641
0.765717
1.41315
1.38903
1.3977
1.3844
1.3735
1.363
1.35238
1.34254
1.33454
1.33515
1.31903
1.30883
1.30087
1.29316
1.28353
1.27176
1.25783
1.24527
1.23478
1.22421
1.21183
1.20024
1.18908
1.18476
1.18637
1.1785
1.16635
1.15444
1.14558
1.14583
1.14007
1.13196
1.11616
1.11216
1.10868
1.10345
1.10045
1.09523
1.06014
1.06073
1.04793
1.04125
1.03439
1.02462
1.01499
1.00906
1.00045
0.991885
0.985461
0.966683
0.959772
0.950165
0.940274
0.9299
0.919253
0.912048
0.91205
0.900555
0.884281
0.900205
0.914558
0.888568
0.863188
0.850729
0.844368
0.834938
0.831826
0.837406
0.82893
0.805072
0.785584
0.801598
0.794028
0.780494
0.768119
1.42936
1.4196
1.40253
1.38589
1.37343
1.36385
1.35557
1.34759
1.33499
1.33612
1.30232
1.30307
1.2991
1.29406
1.28738
1.27601
1.26009
1.24484
1.23388
1.22464
1.21444
1.20423
1.18896
1.17484
1.19342
1.18083
1.16617
1.15191
1.13887
1.1591
1.15025
1.14362
1.13455
1.10187
1.09996
1.10151
1.10849
1.07725
1.06787
1.07073
1.03631
1.03829
1.03386
1.02362
1.01368
1.00595
0.998544
0.989748
0.981256
0.967269
0.958779
0.950671
0.941496
0.931007
0.917852
0.904592
0.918862
0.904747
0.898662
0.903746
0.903528
0.888361
0.850348
0.848996
0.841992
0.831786
0.822862
0.845415
0.833346
0.810206
0.792408
0.793852
0.789059
0.782577
0.774388
1.42895
1.42117
1.40421
1.38603
1.37323
1.36393
1.35812
1.35689
1.32034
1.31796
1.30517
1.30539
1.2983
1.29154
1.29175
1.28257
1.26571
1.24492
1.2347
1.22585
1.21676
1.20742
1.1992
1.18304
1.18459
1.17747
1.16568
1.15515
1.14896
1.15286
1.15022
1.15267
1.12074
1.12047
1.08808
1.0927
1.09954
1.08948
1.06865
1.06321
1.04824
1.04275
1.03625
1.01951
1.01049
1.00226
0.997228
0.987897
0.978157
0.968048
0.959457
0.951723
0.943869
0.934559
0.922667
0.913953
0.911403
0.904166
0.900139
0.902016
0.889671
0.870954
0.858966
0.851566
0.843358
0.834559
0.830107
0.83722
0.842473
0.812896
0.783833
0.787086
0.784508
0.788559
0.791345
1.4353
1.43518
1.3999
1.38273
1.37299
1.36336
1.35548
1.34569
1.32704
1.31247
1.2965
1.31301
1.29711
1.28148
1.29923
1.28671
1.27796
1.23707
1.2338
1.22724
1.21992
1.2121
1.20313
1.18669
1.1814
1.17563
1.16411
1.15642
1.1513
1.14586
1.14074
1.14292
1.12918
1.11619
1.09679
1.08447
1.10464
1.0902
1.07205
1.06282
1.05302
1.04715
1.04667
1.00915
1.00751
1.00109
0.994091
0.985532
0.97644
0.967372
0.959402
0.95273
0.947837
0.940877
0.925372
0.91742
0.904283
0.899687
0.896369
0.894158
0.885155
0.872216
0.864119
0.854617
0.844398
0.834418
0.830854
0.827669
0.830323
0.814357
0.797001
0.787987
0.776149
0.795429
0.78536
1.38517
1.36209
1.37725
1.37973
1.3726
1.36242
1.35414
1.34348
1.32951
1.31619
1.30533
1.30567
1.29566
1.28536
1.28735
1.27848
1.2663
1.2472
1.23685
1.22934
1.22352
1.21599
1.21433
1.17859
1.1805
1.17779
1.16381
1.15761
1.15326
1.14313
1.13007
1.1462
1.1347
1.11823
1.1032
1.09371
1.09439
1.08503
1.07305
1.063
1.05434
1.04668
1.0379
1.01945
1.00946
1.00011
0.992019
0.983672
0.974709
0.965552
0.957245
0.950958
0.95469
0.956022
0.920672
0.92641
0.890901
0.8915
0.888885
0.887736
0.884601
0.878771
0.871103
0.85839
0.845706
0.834468
0.825687
0.814426
0.831961
0.815406
0.798826
0.796923
0.789313
0.789056
0.779653
1.39421
1.37696
1.36528
1.38502
1.37141
1.35799
1.35577
1.3446
1.33127
1.31926
1.30922
1.3017
1.29437
1.28701
1.28219
1.2733
1.26178
1.24842
1.23713
1.22945
1.23004
1.21425
1.20273
1.18805
1.18358
1.17828
1.16837
1.1613
1.15502
1.14708
1.14056
1.14001
1.13261
1.11841
1.10528
1.09602
1.08931
1.08101
1.07193
1.06299
1.05482
1.04742
1.03871
1.02037
1.01085
0.998061
0.990119
0.982331
0.973506
0.963789
0.955112
0.942972
0.961572
0.950134
0.930938
0.919581
0.897418
0.887007
0.878489
0.882985
0.887631
0.888707
0.877087
0.861943
0.84581
0.8327
0.823058
0.825493
0.826916
0.811038
0.794548
0.810866
0.796736
0.784049
0.776491
1.40315
1.39289
1.37408
1.37482
1.36528
1.35021
1.36588
1.34685
1.33182
1.32023
1.31007
1.30117
1.29304
1.28477
1.27593
1.27035
1.25943
1.24761
1.23471
1.22235
1.24874
1.20409
1.19121
1.19075
1.18671
1.18014
1.17231
1.16503
1.15722
1.15054
1.14386
1.13816
1.13109
1.1173
1.10444
1.09477
1.0865
1.07846
1.0702
1.06224
1.05477
1.04934
1.04944
1.01101
1.00979
0.995244
0.989273
0.981421
0.973322
0.964803
0.957383
0.95185
0.954086
0.945252
0.932278
0.91783
0.895654
0.882954
0.863747
0.87947
0.894519
0.907095
0.884615
0.866524
0.844148
0.828398
0.816616
0.838073
0.828762
0.816437
0.807516
0.806185
0.788927
0.778448
0.770165
1.41827
1.40608
1.38417
1.37356
1.36642
1.35956
1.35905
1.34172
1.32968
1.31946
1.3097
1.30028
1.29104
1.28187
1.27328
1.26686
1.25861
1.24803
1.23577
1.22648
1.23266
1.21512
1.17002
1.19628
1.18829
1.18344
1.17694
1.16837
1.15901
1.15385
1.14589
1.13809
1.13239
1.11595
1.10052
1.09247
1.08454
1.07663
1.0685
1.06048
1.05258
1.04574
1.04009
1.02326
1.01162
0.997151
0.989191
0.981184
0.972939
0.964987
0.959676
0.956416
0.951398
0.942106
0.93011
0.915095
0.896515
0.885049
0.878969
0.885958
0.893521
0.896715
0.885505
0.877793
0.835397
0.827762
0.821398
0.833439
0.830272
0.820252
0.814545
0.815647
0.772052
0.769783
0.763648
1.42476
1.40919
1.39337
1.38036
1.37152
1.3657
1.36586
1.32809
1.32522
1.31789
1.31013
1.29932
1.28852
1.27856
1.26989
1.26403
1.25892
1.25089
1.2379
1.22919
1.225
1.2008
1.18527
1.18581
1.18059
1.18863
1.18351
1.17377
1.16387
1.15558
1.14627
1.13801
1.13122
1.12595
1.0895
1.08878
1.0829
1.07512
1.06687
1.05836
1.04959
1.04078
1.03407
1.02937
1.01481
1.00114
0.991314
0.981845
0.972469
0.96354
0.958712
0.962334
0.954874
0.941596
0.928666
0.912662
0.897276
0.884472
0.886068
0.894312
0.895385
0.890178
0.87953
0.865963
0.847665
0.832241
0.81826
0.837272
0.83085
0.819443
0.814046
0.81464
0.769449
0.766544
0.759334
1.43144
1.4125
1.39791
1.38459
1.37437
1.36597
1.35566
1.33508
1.32311
1.31455
1.31515
1.29856
1.28595
1.27437
1.26421
1.25862
1.26225
1.25365
1.23785
1.22923
1.21988
1.19501
1.19101
1.18014
1.16554
1.19505
1.19396
1.17946
1.16672
1.15562
1.14546
1.13586
1.12668
1.11628
1.09942
1.09053
1.08254
1.07405
1.06547
1.05663
1.04712
1.03511
1.02195
1.03737
1.02037
1.00527
0.993736
0.983006
0.971712
0.958279
0.948302
0.975849
0.962053
0.943013
0.931304
0.909301
0.896905
0.87807
0.886677
0.90893
0.899927
0.888177
0.876408
0.864304
0.851356
0.838718
0.827974
0.829329
0.821821
0.811129
0.811099
0.803167
0.780685
0.767951
0.757226
1.45463
1.41851
1.40102
1.38556
1.37494
1.36664
1.35569
1.33512
1.32003
1.30687
1.32641
1.29613
1.2831
1.2692
1.25499
1.25154
1.27012
1.25172
1.23585
1.2355
1.22972
1.18366
1.19709
1.1843
1.16447
1.18596
1.20407
1.18187
1.16693
1.1548
1.14381
1.13334
1.12316
1.11304
1.10154
1.09152
1.08279
1.07315
1.0641
1.05526
1.04687
1.03827
1.03038
1.0306
1.01948
1.00711
0.995666
0.984478
0.972656
0.958712
0.948151
0.975363
0.973061
0.9394
0.944064
0.901473
0.900801
0.901798
0.878892
0.894534
0.902999
0.885283
0.873264
0.863508
0.854003
0.844377
0.829224
0.823346
0.816574
0.797463
0.814658
0.803953
0.780931
0.76843
0.763281
1.50863
1.41335
1.39328
1.38193
1.37291
1.36499
1.36427
1.32731
1.31538
1.31651
1.33005
1.28795
1.28018
1.26546
1.24533
1.26264
1.25733
1.24542
1.23153
1.24767
1.23114
1.21344
1.18149
1.19126
1.18575
1.18435
1.18602
1.17492
1.16539
1.15296
1.14153
1.13065
1.11994
1.11119
1.10298
1.09246
1.08369
1.07162
1.06118
1.05363
1.04819
1.04195
1.03462
1.02763
1.01723
1.00739
0.997679
0.987077
0.974804
0.963947
0.957148
0.958575
0.948305
0.955942
0.941362
0.91164
0.905556
0.900216
0.889912
0.887555
0.921181
0.873245
0.86916
0.862694
0.856651
0.856048
0.820357
0.820412
0.814589
0.802374
0.803341
0.797013
0.775377
0.765275
0.756967
1.37583
1.39406
1.38563
1.37826
1.37057
1.36211
1.35304
1.3343
1.3156
1.32043
1.31778
1.29945
1.28462
1.27032
1.25095
1.25094
1.24372
1.24473
1.2466
1.24467
1.22882
1.20881
1.18588
1.20747
1.19827
1.18235
1.17712
1.16971
1.16072
1.15008
1.13892
1.12765
1.11517
1.10763
1.10838
1.0971
1.08451
1.0654
1.05641
1.04861
1.05197
1.04661
1.03789
1.02942
1.01502
1.00698
0.999952
0.991039
0.975987
0.966374
0.958069
0.954408
0.948149
0.947109
0.936807
0.918031
0.90928
0.902924
0.898438
0.900378
0.912025
0.870242
0.867758
0.86118
0.853981
0.846609
0.831635
0.824617
0.816638
0.806489
0.795897
0.783217
0.764565
0.775406
0.760613
1.39131
1.38981
1.38296
1.37662
1.36898
1.3604
1.35165
1.34399
1.30176
1.32775
1.31736
1.30752
1.28899
1.2827
1.24449
1.2417
1.2271
1.2444
1.2626
1.24516
1.22882
1.21335
1.20232
1.20379
1.20716
1.17134
1.17161
1.16582
1.15712
1.14737
1.13697
1.12546
1.10976
1.09794
1.11957
1.10044
1.08249
1.05984
1.04592
1.03371
1.06298
1.05256
1.04012
1.03692
1.00764
1.00357
1.0042
0.997468
0.976531
0.967689
0.959419
0.953646
0.948246
0.941986
0.933072
0.920954
0.910666
0.902903
0.900123
0.908371
0.897708
0.880212
0.870302
0.860322
0.851412
0.844295
0.83581
0.828626
0.820423
0.809483
0.791515
0.780369
0.770649
0.768146
0.759623
1.39199
1.38422
1.38331
1.37642
1.36786
1.35906
1.34939
1.33835
1.32276
1.32486
1.32024
1.31841
1.2809
1.27074
1.25582
1.24722
1.24014
1.24604
1.25136
1.24075
1.22797
1.21527
1.20519
1.19768
1.19295
1.17968
1.17276
1.1643
1.15478
1.14532
1.13587
1.12663
1.11194
1.11076
1.12111
1.0849
1.07955
1.06465
1.0426
1.03129
1.06179
1.05185
1.03538
1.01795
1.02138
1.00482
1.01608
0.997833
0.976935
0.967952
0.959539
0.953254
0.946712
0.940065
0.931525
0.921884
0.91001
0.898937
0.90063
0.931562
0.889999
0.882058
0.872614
0.85917
0.847073
0.839669
0.840429
0.834136
0.826563
0.819575
0.780295
0.777346
0.770889
0.763948
0.756833
1.38191
1.37177
1.39562
1.38341
1.36972
1.35889
1.34857
1.33865
1.33016
1.32623
1.31889
1.30907
1.30128
1.26384
1.26086
1.25482
1.24995
1.24805
1.24533
1.23755
1.22702
1.21539
1.20289
1.19261
1.18583
1.18376
1.17501
1.16345
1.15279
1.14315
1.13469
1.13208
1.10429
1.10999
1.10588
1.09098
1.08316
1.079
1.04058
1.04308
1.04878
1.04422
1.03431
1.02482
1.02129
1.01192
1.01106
0.997801
0.97692
0.962149
0.961981
0.954217
0.944573
0.939119
0.933202
0.924837
0.911156
0.896503
0.917346
0.915103
0.897353
0.886518
0.875027
0.856019
0.840472
0.830463
0.851399
0.838778
0.82741
0.808698
0.788557
0.778028
0.770097
0.762424
0.75492
1.38563
1.38022
1.38929
1.38061
1.36951
1.35839
1.34746
1.33748
1.33092
1.33142
1.32249
1.30531
1.29511
1.27818
1.26891
1.26158
1.25542
1.25025
1.24472
1.23721
1.22709
1.21574
1.19848
1.18716
1.17494
1.1918
1.17607
1.16146
1.14988
1.13945
1.1283
1.11243
1.11993
1.11028
1.10109
1.09037
1.08344
1.07147
1.05377
1.049
1.04561
1.04086
1.03445
1.02791
1.02136
1.01626
1.01279
1.00475
0.974456
0.94066
0.968273
0.95417
0.940353
0.936136
0.938036
0.932088
0.921441
0.911805
0.911153
0.905237
0.896978
0.891272
0.882545
0.844927
0.835067
0.841328
0.846418
0.837362
0.825047
0.806513
0.793974
0.776359
0.768484
0.761111
0.752423
1.40116
1.38978
1.38619
1.37825
1.36821
1.3573
1.34547
1.33386
1.33124
1.34313
1.3321
1.31022
1.2974
1.28497
1.27509
1.26717
1.2601
1.25261
1.24662
1.23917
1.22702
1.22151
1.18861
1.18868
1.18418
1.18466
1.16956
1.15625
1.14635
1.13653
1.12592
1.11748
1.10638
1.10219
1.10251
1.09195
1.0817
1.06942
1.05667
1.0526
1.04557
1.03936
1.03419
1.02864
1.0227
1.01602
1.00775
0.993936
0.975704
0.959964
0.960772
0.953777
0.932124
0.927715
0.955273
0.943846
0.930636
0.922167
0.904539
0.897669
0.892441
0.901446
0.863962
0.849437
0.834891
0.854561
0.845387
0.834532
0.822021
0.805918
0.803453
0.766106
0.767005
0.760997
0.750269
1.40501
1.39416
1.38706
1.37799
1.36788
1.35695
1.34485
1.3319
1.36006
1.32918
1.32675
1.31361
1.30045
1.28897
1.27946
1.27154
1.26491
1.25352
1.25048
1.24742
1.21992
1.19645
1.20247
1.19517
1.1905
1.18157
1.16319
1.15094
1.14244
1.13431
1.12564
1.11705
1.10185
1.09113
1.10792
1.09391
1.07997
1.06713
1.05533
1.05173
1.04524
1.03793
1.03038
1.03143
1.02509
1.01563
1.00504
0.992589
0.978088
0.964855
0.954533
0.947974
0.941055
0.932752
0.960166
0.949612
0.936524
0.918979
0.904585
0.889977
0.878727
0.896517
0.876211
0.85852
0.847217
0.846975
0.840161
0.831106
0.819815
0.795038
0.788301
0.778898
0.772703
0.764515
0.755786
1.40776
1.39716
1.38871
1.37866
1.36818
1.35791
1.34811
1.34198
1.34624
1.33251
1.32427
1.31375
1.30215
1.29155
1.28234
1.27408
1.26889
1.25052
1.24969
1.22893
1.21074
1.19608
1.23377
1.19682
1.19881
1.18091
1.16296
1.14553
1.13861
1.13225
1.12446
1.1157
1.10631
1.1002
1.10018
1.09117
1.07779
1.06459
1.0523
1.04674
1.04649
1.03804
1.02464
1.04199
1.02933
1.01641
1.00411
0.991756
0.979053
0.966103
0.951205
0.939567
0.958208
0.952207
0.951263
0.947709
0.946258
0.909116
0.904998
0.890528
0.885212
0.884426
0.876405
0.864167
0.85414
0.844263
0.835562
0.828185
0.81405
0.787289
0.774495
0.791096
0.779638
0.768459
0.759277
1.41026
1.4004
1.39113
1.37987
1.36861
1.3578
1.34835
1.34488
1.33927
1.33018
1.32216
1.31272
1.30257
1.29285
1.28399
1.27541
1.2674
1.25439
1.2441
1.22729
1.2073
1.1949
1.22676
1.21194