/*--------------------------------*- C++ -*----------------------------------*\
  =========                 |
  \\      /  F ield         | OpenFOAM: The Open Source CFD Toolbox
   \\    /   O peration     | Website:  https://openfoam.org
    \\  /    A nd           | Version:  12
     \\/     M anipulation  |
\*---------------------------------------------------------------------------*/
FoamFile
{
    format      ascii;
    class       surfaceScalarField;
    location    "0.85";
    object      phi.water_0;
}
// * * * * * * * * * * * * * * * * * * * * * * * * * * * * * * * * * * * * * //

dimensions      [0 3 -1 0 0 0 0];

internalField   nonuniform List<scalar> 
7375
(
-1.50215e-07
3.20023e-08
-9.75678e-08
-1.13428e-08
-5.87085e-08
-2.68974e-08
-5.64646e-09
-5.1332e-08
4.28699e-08
-4.80895e-08
7.6813e-08
-3.4031e-08
9.46216e-08
-1.97993e-08
9.20212e-08
2.57391e-09
9.2381e-08
-3.53941e-10
9.93903e-08
-7.00985e-09
1.40342e-07
-3.99245e-08
1.47578e-07
-7.21149e-09
1.46041e-07
1.55441e-09
1.54467e-07
-6.84448e-09
1.79026e-07
-2.26617e-08
1.23925e-07
-6.11001e-08
4.38474e-08
-1.49206e-07
7.30424e-08
-2.92098e-08
8.72776e-08
-1.41016e-08
8.53806e-08
1.90899e-09
1.03642e-07
-1.93225e-08
1.09499e-07
-4.70442e-09
1.12367e-07
-2.8736e-09
1.20919e-07
-9.68765e-09
1.17675e-07
3.25563e-09
1.18584e-07
-9.09517e-10
6.30018e-08
-5.64068e-08
1.76795e-07
8.7265e-11
1.72624e-07
6.03676e-09
1.74267e-07
-5.16689e-09
1.62819e-07
9.90441e-09
1.63217e-07
-3.98608e-10
1.70463e-07
-5.59763e-09
1.61153e-07
1.09705e-08
1.64155e-07
-2.95591e-09
1.66826e-07
-4.30593e-09
1.74478e-07
-7.81003e-09
1.84338e-07
-6.18083e-09
1.74734e-07
9.68116e-09
1.77777e-07
-4.88855e-09
1.78779e-07
-1.00432e-09
1.63909e-07
1.30873e-08
1.5946e-07
4.44956e-09
1.83102e-07
-2.17225e-08
2.03815e-07
-1.84306e-08
1.95987e-07
9.89259e-09
1.80947e-07
1.31753e-08
1.56772e-07
2.22968e-08
1.28964e-07
2.62348e-08
9.18583e-08
3.74839e-08
4.76816e-08
4.55964e-08
3.13268e-07
7.84127e-08
4.33017e-08
-7.29142e-08
6.7392e-08
-2.38453e-08
7.37999e-08
-5.57747e-09
8.89796e-08
-1.50079e-08
9.24175e-08
-3.4282e-09
1.04662e-07
-1.2388e-08
1.55357e-07
-5.23013e-08
1.37841e-07
1.61135e-08
1.38843e-07
4.00367e-10
1.21439e-07
1.99783e-08
9.69166e-08
2.32667e-08
1.0648e-07
-1.06778e-08
7.92668e-08
2.77564e-08
1.54747e-07
3.83968e-08
1.07057e-07
4.66276e-08
8.81136e-08
1.89434e-08
1.04957e-07
-1.57489e-08
1.18535e-07
-1.3444e-08
1.10617e-07
7.92534e-09
8.73839e-08
2.3455e-08
1.10932e-07
-2.3539e-08
1.23417e-07
-1.23548e-08
-1.60312e-08
-5.50933e-08
5.81525e-08
-1.34253e-07
1.02235e-07
-4.56903e-08
-1.04833e-07
-2.43913e-08
-7.24381e-08
-1.32565e-08
-6.04583e-08
3.41566e-09
-5.03216e-08
3.98584e-09
-2.04109e-08
1.26682e-08
-6.12315e-09
1.50018e-08
-2.55872e-09
-1.09477e-08
1.88677e-08
1.14468e-07
1.72612e-07
9.34721e-08
1.29629e-08
1.09227e-07
-1.4059e-08
9.55615e-08
7.93486e-09
7.3897e-08
-7.74343e-10
9.76047e-09
3.75877e-09
1.62699e-07
4.10705e-08
1.17866e-07
1.2632e-08
1.1972e-07
-1.59563e-08
1.13895e-07
9.04722e-09
1.22899e-07
-2.98851e-08
1.28538e-07
-1.15729e-08
1.3146e-07
-4.42429e-09
1.29609e-07
-6.59443e-09
1.59063e-07
-2.5934e-08
8.28132e-08
-3.87525e-08
9.13433e-08
4.75992e-08
1.02936e-07
-9.40519e-09
9.70708e-08
1.07785e-08
8.33646e-08
8.48583e-09
1.01634e-07
-9.31021e-09
1.29613e-07
-2.9408e-08
1.16314e-07
7.70096e-09
1.51309e-07
-2.58131e-08
1.40369e-07
8.17699e-09
1.42208e-07
-1.85536e-09
1.2388e-07
1.20436e-08
1.06758e-07
9.60107e-09
1.11455e-07
6.03322e-09
1.25631e-07
-2.02133e-08
1.21037e-07
1.07347e-09
1.62352e-07
-2.82278e-08
9.91803e-08
-4.49267e-08
2.11301e-07
-2.36435e-08
2.73166e-07
-8.17462e-08
2.88681e-07
-4.78901e-11
2.89848e-07
1.50022e-08
2.6809e-07
3.79758e-08
2.5175e-07
4.5117e-08
2.10834e-07
8.1381e-08
1.99582e-07
5.6734e-08
2.35069e-07
4.21177e-08
1.77557e-07
-1.98139e-08
1.72521e-07
-2.05519e-08
1.69934e-07
-2.93409e-09
1.64554e-07
-6.03763e-09
1.65162e-07
-6.44228e-10
1.78447e-07
-2.54084e-08
2.05452e-07
-8.28538e-08
1.86524e-07
3.26123e-08
1.59785e-07
2.55142e-08
1.59802e-07
1.9562e-08
1.62005e-07
2.41085e-08
1.15995e-07
3.81166e-08
1.51805e-07
-6.09951e-09
7.37614e-08
-2.31818e-09
1.13869e-07
5.01551e-09
4.71142e-08
-2.78277e-08
1.18358e-07
2.36671e-08
9.94095e-08
6.70002e-09
1.15562e-07
-5.97364e-09
6.61234e-08
-4.10875e-08
1.23114e-07
3.07786e-08
1.18957e-07
-6.92619e-09
-1.20977e-08
-1.19958e-07
2.93139e-08
-2.23176e-07
-4.26888e-08
-6.91537e-08
-3.69925e-09
-1.03049e-07
-4.06675e-08
-1.0904e-07
-5.3956e-08
-3.20278e-08
-1.26399e-07
-8.33857e-08
3.11548e-08
-8.93115e-08
-2.60237e-10
-6.13115e-08
-3.05591e-08
-5.80764e-08
1.60608e-08
-1.4634e-07
-7.68859e-08
-1.13929e-07
-1.9783e-08
-1.01167e-07
-2.60759e-08
-9.56189e-08
3.74941e-10
-8.86265e-08
-7.7672e-09
-7.58268e-08
-8.13723e-09
-2.3751e-08
-1.10695e-08
-7.1313e-09
-4.02881e-09
-3.44813e-08
1.09173e-08
-6.95829e-09
-1.83587e-08
-1.31205e-08
-2.35163e-08
-1.14913e-08
-1.30709e-08
-2.78412e-10
-1.57982e-08
1.16207e-08
-1.84273e-08
1.07838e-08
-2.50973e-08
-1.12002e-08
-1.65446e-08
2.87493e-08
7.83993e-09
2.77601e-08
-8.11289e-09
1.72878e-08
2.18229e-08
2.88724e-08
-3.06735e-09
3.47535e-08
-1.53909e-08
2.05192e-08
-1.56831e-08
2.1887e-08
6.55415e-09
1.23306e-08
-1.617e-08
1.08369e-08
9.62789e-09
-1.23245e-08
2.10509e-08
-2.318e-08
2.2412e-08
-1.67326e-08
3.39267e-09
-2.52616e-09
-8.06387e-09
-2.34088e-10
-2.25289e-08
4.30971e-08
-4.18308e-08
8.33413e-08
-6.94685e-08
-1.69654e-08
-5.71023e-08
5.62854e-08
1.55299e-08
1.619e-07
1.57213e-07
1.38729e-07
2.28861e-08
1.51851e-07
1.61126e-10
1.72318e-07
1.59752e-08
1.93324e-07
2.63296e-08
1.59125e-07
1.1359e-07
1.55533e-07
6.0326e-08
1.5019e-07
4.85631e-08
1.20172e-07
1.02039e-08
8.44766e-08
1.28465e-08
8.08491e-08
-1.52745e-10
6.75868e-08
8.6627e-09
5.35524e-08
1.40934e-08
2.0601e-09
2.6105e-08
2.23637e-07
4.04716e-08
4.19896e-08
-1.27832e-07
3.61939e-08
3.10523e-08
6.43125e-08
-8.35906e-09
7.67495e-08
1.32458e-08
9.04777e-08
2.39956e-08
3.72743e-08
4.67827e-08
2.28539e-09
3.23877e-08
1.01175e-08
-2.78808e-09
-1.80576e-08
5.31518e-10
1.39906e-08
-8.14208e-09
3.84774e-08
-1.79683e-08
3.83071e-08
-6.19017e-09
-7.58289e-09
5.66181e-09
4.59179e-08
-2.30324e-08
4.55874e-08
-6.20514e-09
5.96234e-09
-6.77752e-08
8.2758e-09
-1.65063e-07
8.45082e-08
-1.06143e-07
-4.46406e-08
-1.0424e-07
-4.10532e-08
-2.38264e-07
-3.53169e-08
6.00947e-08
3.49578e-08
-1.69629e-07
-7.94492e-08
-1.34416e-07
-3.54734e-08
-1.54935e-07
-8.54719e-09
-1.11353e-07
-2.75222e-08
-1.40902e-07
-4.97646e-08
-1.25397e-07
-3.63658e-08
-1.49785e-07
-4.14132e-10
-1.31199e-07
-1.66988e-08
-1.35074e-07
-5.15195e-09
-1.1468e-07
-2.70851e-08
-9.92881e-08
-2.74646e-08
-6.58965e-08
-3.91649e-08
-1.41635e-07
-2.56111e-08
-4.43912e-08
-1.89252e-09
-5.67485e-08
-1.13724e-08
-4.61554e-08
-2.37977e-08
-3.72887e-08
-2.44461e-08
-3.39372e-08
-2.17791e-08
-4.54774e-08
-1.41596e-08
-4.94107e-08
-1.27416e-08
-4.5517e-08
3.56163e-09
-4.86323e-08
-5.58267e-09
-1.28076e-07
-1.13173e-08
-4.02731e-08
2.25484e-08
-5.16171e-08
-4.50376e-09
-6.40961e-08
-3.20407e-09
-4.98681e-08
-7.60699e-09
-7.17372e-08
5.92448e-09
-7.78401e-08
1.56327e-08
-7.00806e-08
1.32914e-08
-7.18752e-08
2.42253e-08
-5.68929e-08
-1.16241e-08
2.31019e-08
-8.78228e-08
-1.28542e-08
1.34215e-08
-2.23188e-09
-5.23458e-08
-1.24256e-08
-5.91696e-08
-5.90886e-08
-1.03136e-08
-1.3876e-08
-3.02685e-08
-1.27006e-07
-7.44933e-08
-6.84374e-08
-3.43864e-08
-3.77757e-08
-3.05021e-08
7.86916e-09
-2.95066e-08
2.9312e-08
4.68345e-09
-5.95952e-08
-1.33786e-07
-3.1738e-09
3.29673e-09
1.28486e-08
3.22121e-08
2.28418e-09
2.08773e-08
-7.34328e-09
2.2247e-08
-1.33151e-08
5.87748e-09
-1.87273e-08
1.41632e-08
-1.88445e-08
1.38746e-08
-2.29857e-08
3.08005e-08
-2.95461e-08
4.66191e-08
1.4562e-07
3.67165e-08
-7.96009e-08
-8.14811e-08
-6.06206e-08
-2.91525e-08
-3.91224e-08
-8.33842e-09
1.48741e-08
-2.96949e-08
-1.14851e-07
6.26406e-08
-1.86387e-08
4.96183e-08
-3.91902e-08
1.75752e-08
-6.45396e-08
2.54811e-08
-3.59097e-08
-3.64829e-08
-1.72595e-08
-3.66185e-08
9.23342e-09
-3.26519e-08
-6.80441e-08
-3.07059e-08
1.67317e-08
4.97407e-09
-8.48315e-09
1.92038e-08
2.81055e-08
7.20985e-10
-1.02923e-07
-1.7288e-07
-1.4976e-07
-8.91191e-08
-1.08801e-07
-5.59935e-08
-7.17895e-08
-5.21911e-08
-3.8626e-08
4.4765e-08
-6.28788e-08
2.30141e-08
-5.7242e-08
1.66036e-08
-2.88939e-08
1.45182e-08
-6.4622e-09
5.18861e-09
-1.85689e-08
-1.7711e-08
-2.68655e-08
9.82501e-09
-6.43783e-08
-5.35563e-08
6.2971e-08
-6.01652e-08
-1.02608e-08
-6.0716e-08
-3.94197e-09
-6.15525e-08
-2.6249e-08
-7.00455e-08
-1.98801e-08
-7.082e-08
-3.83829e-08
-9.45245e-08
-1.64584e-09
-4.70112e-08
-4.94255e-08
-2.30325e-08
-3.57159e-08
-3.45939e-08
-1.22367e-08
-4.13103e-08
-1.773e-08
-4.94024e-08
-1.39095e-08
-4.19454e-08
-2.20449e-08
-8.41825e-08
2.94952e-08
-8.31598e-08
3.39748e-09
-1.12533e-07
2.38478e-08
-1.40947e-07
1.72112e-08
-9.25703e-08
-2.65425e-08
-8.03111e-08
-1.6763e-08
-6.75895e-08
-1.49538e-08
-6.09571e-08
-1.47112e-08
-5.99921e-08
4.90889e-09
-4.29259e-08
-8.21449e-10
-3.61861e-08
6.12014e-09
-1.99598e-08
7.91744e-09
-2.87843e-08
-2.59579e-09
1.86774e-07
3.44283e-08
-4.64493e-08
-8.97745e-08
1.86615e-08
-1.19685e-07
-8.5034e-08
4.51298e-08
-6.55731e-08
-2.98796e-08
-8.61444e-08
-9.69706e-09
-1.1128e-07
-4.85975e-08
-1.09738e-07
-3.59288e-08
-1.30268e-07
-1.00746e-08
-1.44288e-07
-1.86203e-08
-2.80794e-07
2.55933e-08
-3.7821e-08
8.05574e-08
-7.67163e-08
4.29748e-08
-5.05874e-08
5.57235e-09
-5.72548e-08
2.76134e-08
-4.77282e-08
1.26884e-08
-6.23072e-08
1.99645e-08
-6.31592e-08
1.56508e-08
-6.22331e-08
1.23137e-08
-5.93804e-08
2.70183e-08
-1.51701e-07
2.71909e-08
-3.88462e-08
3.71171e-08
-1.09287e-07
-1.33824e-08
-1.51369e-07
1.13688e-08
-1.27044e-07
-3.10174e-08
9.13003e-08
9.11104e-08
-1.33199e-07
-4.97763e-08
-5.8362e-08
-2.60712e-08
-1.7596e-08
-2.30115e-08
-8.06082e-08
-2.36808e-08
1.71033e-08
-2.1879e-08
1.07512e-09
-2.04158e-08
-1.34904e-08
-1.80863e-08
-3.77719e-08
-6.11075e-09
-2.41724e-08
-8.48746e-09
-1.80521e-08
1.32679e-08
8.54817e-09
-6.91992e-08
1.05261e-07
-1.0375e-07
-8.89831e-08
-8.96339e-08
-1.17904e-07
-9.94494e-08
-6.20746e-08
-8.03857e-08
-5.74956e-08
-4.85313e-08
-9.36e-08
1.06913e-08
-1.17665e-07
-2.27943e-08
4.54492e-09
-1.86553e-08
-1.05356e-08
-2.21573e-08
-1.50674e-08
-6.72637e-08
1.78284e-08
1.44893e-07
6.66805e-08
-8.29218e-08
-5.04074e-08
-7.11316e-08
-2.13257e-08
-5.47282e-08
-2.01424e-08
-5.70474e-08
-2.47565e-08
-5.66585e-08
-2.08474e-08
-8.16165e-08
-1.34254e-08
-6.48361e-08
-1.77753e-08
-7.53121e-08
-3.97182e-08
-8.50195e-08
-2.62798e-08
-5.36741e-08
-4.27151e-08
-6.79287e-08
-3.44067e-09
-6.75186e-08
-1.41753e-08
-2.28598e-08
-6.73915e-08
-6.26359e-08
6.82736e-08
-5.87963e-08
-4.37832e-10
-4.15123e-08
6.49725e-09
-1.77076e-08
-6.5936e-09
-1.58714e-08
-2.83788e-08
-2.5327e-09
-2.9905e-08
2.54261e-08
-4.31695e-08
4.73147e-08
-3.71965e-08
7.58837e-08
-2.34688e-08
8.58065e-08
-1.08454e-08
9.35024e-08
-2.54565e-09
9.25486e-08
9.83493e-09
8.12509e-08
9.64626e-09
8.44193e-08
3.126e-08
-3.77525e-08
3.10964e-08
1.42719e-07
4.30595e-08
-8.55033e-08
-6.78186e-08
-8.81218e-08
-2.72609e-08
-7.72548e-08
-2.03563e-08
-1.21047e-07
-4.85456e-09
-1.3499e-07
-2.33631e-08
-1.44613e-07
-1.94143e-09
-1.6132e-07
-4.23126e-10
-1.51968e-07
1.73652e-08
-9.46705e-08
2.32598e-08
-7.37464e-08
2.20507e-08
-7.55239e-08
7.40667e-09
-6.72794e-08
1.95739e-08
-5.86502e-08
4.18738e-09
-5.74608e-08
1.79731e-08
-5.30197e-08
1.12097e-08
-5.05775e-08
9.97315e-09
-4.28808e-08
1.90459e-08
-1.04134e-07
8.81666e-08
-9.40928e-08
2.74546e-08
-1.1711e-07
9.63492e-09
-1.02646e-07
-3.2113e-09
-6.74096e-08
-6.52498e-08
-2.15756e-08
4.48238e-08
-6.54663e-08
-6.5467e-09
-4.8593e-08
-4.29444e-08
-2.86327e-08
-4.26797e-08
-2.20662e-08
-3.00244e-08
-3.55926e-09
-4.08296e-08
-4.07184e-09
-1.99395e-08
-8.06922e-09
-1.40888e-08
-9.23136e-09
-4.85401e-09
-1.45243e-08
-3.19401e-09
-1.86425e-08
1.72382e-08
2.17022e-08
-1.41926e-07
-3.12728e-08
7.47368e-08
1.41372e-07
-1.52145e-08
-3.77391e-08
-5.87768e-08
-1.72712e-08
-6.86988e-08
-4.58367e-08
-1.19945e-07
-4.42591e-08
1.15106e-07
-1.18018e-08
-8.01285e-08
-1.37667e-07
-1.90835e-08
-7.23985e-08
-1.29861e-08
-2.11652e-08
-9.47076e-09
1.43127e-08
3.92734e-08
1.72556e-08
-9.0827e-09
-2.05174e-09
-1.21999e-08
-1.80844e-08
-1.93609e-08
-1.30534e-08
-2.50184e-08
-1.9297e-08
-3.09657e-08
-1.49005e-08
-3.78507e-08
-6.72139e-09
-3.11145e-08
-2.45119e-08
-4.42841e-08
-2.69585e-08
-3.43785e-08
-3.59149e-08
6.34526e-09
-8.31533e-08
-4.00972e-08
4.29724e-08
-6.34412e-08
8.20554e-09
1.65123e-07
4.44459e-08
-3.88172e-08
-6.60123e-08
-6.12977e-09
-3.37969e-08
1.24505e-08
-1.21452e-08
5.85463e-09
1.29176e-10
-6.0901e-09
-1.64342e-08
-3.04774e-08
-5.51772e-09
-5.36658e-08
-2.0969e-08
-7.44675e-08
-1.75458e-08
-9.35236e-08
-3.88704e-09
-1.0408e-07
-3.9691e-10
-1.31129e-07
2.31263e-08
-1.28683e-07
8.75133e-09
-7.37014e-08
-4.44762e-08
-1.08335e-07
6.58936e-08
-1.03116e-07
2.56164e-08
-5.93831e-08
-1.12414e-09
-1.04992e-07
-2.24389e-08
-1.20368e-07
-1.25171e-07
-5.47421e-08
2.55596e-08
-1.97371e-07
2.28052e-08
-1.16674e-07
1.11909e-08
-1.11258e-07
-7.3374e-09
-1.08508e-07
-3.16851e-09
-1.08707e-07
1.75644e-08
-9.47855e-08
9.33834e-09
-8.09964e-08
8.26173e-09
-8.1479e-08
8.63244e-09
-6.30534e-08
1.16005e-09
-7.30482e-08
1.35816e-08
-8.10583e-08
2.6251e-08
-9.83579e-08
2.75059e-08
-9.57693e-08
7.30917e-09
-1.01305e-08
-6.62922e-08
-1.84983e-07
-7.66954e-08
-1.43321e-07
-1.42076e-08
-1.33514e-07
-1.71433e-10
-1.44106e-07
7.38062e-09
6.18831e-08
6.78439e-08
-1.32048e-07
-9.57427e-08
-6.0085e-08
-7.90446e-08
-5.71151e-08
-4.65273e-08
-3.80747e-08
-6.172e-08
-3.40261e-08
-3.43792e-08
-3.84253e-08
-3.68469e-08
-4.38833e-08
-1.43352e-08
-5.14991e-08
-6.47279e-09
-6.23168e-08
5.96412e-09
-8.88469e-08
2.35444e-08
-6.01321e-08
-1.20899e-08
-6.69329e-09
-4.92086e-08
-9.12434e-08
-9.75023e-08
-2.13552e-07
-4.72136e-08
-8.16686e-08
-3.2711e-08
-2.95366e-08
-3.03638e-08
-4.89774e-08
-2.7072e-08
-4.75512e-08
8.52798e-09
-4.7283e-08
-3.1838e-08
-9.76232e-08
1.95463e-08
-1.25059e-07
-2.88115e-08
2.71922e-08
-2.52797e-08
1.06716e-08
-5.33202e-09
-2.69244e-09
1.80108e-09
-9.0925e-09
-1.2792e-09
-1.49916e-08
2.22112e-09
-1.65192e-08
1.10388e-08
-2.8382e-08
1.35824e-08
-1.75832e-08
1.79998e-08
-1.12529e-08
5.6767e-09
-1.18182e-08
-1.19426e-08
-9.43688e-09
-3.61033e-08
-1.13825e-08
1.56165e-07
6.26991e-08
-6.0494e-08
-7.68293e-08
-2.44765e-08
-2.78123e-08
4.2093e-08
-2.21238e-08
-2.78381e-09
-2.1411e-08
-3.39393e-08
-2.9613e-09
-4.54583e-08
-4.03953e-10
-4.4144e-08
-1.18529e-09
-4.26124e-08
-1.79659e-08
-6.03494e-08
1.22192e-08
-6.48792e-08
-1.66088e-08
-2.90593e-08
-5.37349e-08
-7.88258e-08
4.59192e-08
-7.31663e-08
-6.05638e-09
-9.69396e-08
4.76526e-08
-1.24573e-07
3.5038e-08
1.07617e-07
6.52664e-08
-1.18351e-07
-4.77433e-08
-8.21151e-08
-1.14487e-08
-9.16144e-08
6.58468e-09
-2.12545e-07
-1.71594e-08
5.84791e-08
6.36159e-08
-1.61396e-07
-9.55907e-08
-1.52789e-07
1.38251e-08
-1.35526e-07
-6.07205e-09
-1.27556e-07
-1.53076e-08
-1.27024e-07
-3.73844e-09
-1.24759e-07
1.52992e-08
-1.1512e-07
-3.00135e-10
-1.01468e-07
-4.35481e-09
-9.14241e-08
-2.33523e-09
-8.57077e-08
-5.48659e-09
-9.655e-08
2.43133e-08
-1.14474e-07
4.37239e-08
-1.27117e-07
4.26139e-08
-1.52768e-07
3.13436e-08
1.98866e-08
1.01647e-07
-6.65115e-08
9.49982e-09
-6.60237e-08
-1.46954e-08
-6.0662e-08
-5.53319e-09
-5.27401e-08
-5.41239e-10
-7.47248e-08
-2.36508e-08
-4.22539e-08
-1.55211e-08
-9.5176e-08
-2.71954e-08
-6.68946e-08
-7.57796e-08
-2.03326e-08
-1.10537e-07
-6.79114e-08
1.31996e-08
-6.88863e-08
-3.51693e-08
-7.6858e-08
-6.36335e-09
-7.60885e-08
-8.02624e-09
-6.43858e-08
-6.39498e-09
-1.72936e-07
1.76895e-08
-1.1253e-07
4.29456e-08
2.46781e-08
-1.46706e-07
2.10816e-07
1.49544e-08
8.39119e-08
-3.45959e-08
-3.14034e-08
-3.00504e-08
-3.33249e-08
-4.16805e-08
-3.74221e-08
-4.04989e-08
-4.92302e-08
-5.40742e-09
-8.32152e-08
-4.1055e-08
-6.36767e-08
1.85596e-07
-8.91796e-09
-5.74251e-09
-1.23019e-07
3.00622e-08
-2.48822e-08
4.42726e-08
-1.6876e-08
6.15636e-08
-2.63839e-08
5.39908e-08
-7.34187e-09
5.49458e-08
-1.70866e-08
3.59034e-08
-8.86504e-09
3.0417e-08
-1.21531e-08
1.39982e-08
5.14086e-09
-5.8838e-09
7.77825e-09
-2.02846e-08
4.86227e-09
-6.17824e-08
3.06398e-08
1.69136e-08
-1.53669e-08
-2.89561e-08
-3.14484e-08
-3.89854e-08
-1.80788e-08
-3.50458e-08
-2.69715e-08
-6.72467e-09
-4.91563e-08
-8.60019e-08
7.6346e-08
-1.07717e-07
2.10958e-08
-1.24565e-07
1.58243e-08
-1.34207e-07
-8.41013e-09
-1.46024e-07
2.25468e-08
-1.76087e-07
1.1639e-08
5.80811e-08
5.65447e-08
-1.51306e-07
-8.5001e-08
-8.75224e-08
-7.05593e-08
-8.50798e-08
4.47536e-08
-8.03443e-08
3.066e-08
-4.02049e-08
2.42142e-08
-9.11551e-08
3.20706e-09
-9.47749e-08
-7.9456e-09
-9.25983e-08
4.34098e-09
-9.98823e-08
-9.70023e-09
2.64045e-08
-6.30503e-08
-5.62159e-08
-1.23908e-08
-1.03673e-07
6.18499e-08
-1.17388e-07
6.58512e-09
-6.27479e-08
-7.05873e-08
-1.34763e-07
6.75802e-08
-1.17854e-07
-2.36862e-10
-1.2684e-07
8.68509e-09
-1.06549e-07
-2.46455e-08
-8.54475e-08
-2.34603e-08
-2.96553e-08
-6.18538e-08
-9.23637e-08
8.7964e-08
-8.23585e-08
3.29445e-08
-7.04938e-08
2.9909e-08
-7.18732e-08
3.3776e-08
-1.49949e-08
4.3742e-08
-3.00618e-08
2.41672e-08
-4.68617e-08
2.1045e-09
-5.24946e-08
9.96464e-11
-6.35895e-08
9.90499e-09
-7.98721e-08
-7.445e-09
-8.63608e-08
-9.09851e-09
-2.03563e-07
-2.49356e-08
-2.07214e-07
3.93601e-08
3.23314e-09
2.60771e-08
-2.13728e-07
-1.11903e-07
-1.34346e-07
-1.16937e-07
-1.61663e-07
2.08888e-08
-1.59444e-07
-1.0245e-08
-1.19461e-07
-4.63774e-08
-1.89366e-07
8.46195e-08
-1.98364e-07
4.98987e-08
2.32684e-08
-8.72541e-08
2.99372e-09
3.33149e-08
-2.2465e-08
-8.42187e-09
7.43009e-09
1.70752e-09
-4.31969e-08
1.16902e-08
-4.77732e-08
-7.64241e-08
-7.60289e-08
1.4739e-08
-6.00602e-08
-4.38983e-10
-4.86554e-08
3.50112e-08
-4.42685e-08
4.31243e-08
-1.32928e-07
-5.74851e-09
2.37969e-08
-1.47811e-08
-7.90186e-09
-1.28327e-08
-2.90491e-08
-2.00707e-08
-1.04283e-10
-2.4813e-08
-1.26431e-08
-3.50308e-08
1.42902e-09
-3.41631e-08
-1.24423e-08
-2.78227e-08
-9.70947e-10
-2.7392e-08
7.33837e-09
-5.43237e-09
-1.78386e-08
-1.03909e-07
1.44881e-08
-3.06331e-08
2.56552e-08
-7.0125e-08
7.40325e-09
-1.32308e-07
4.25538e-08
-2.18393e-07
6.13873e-08
2.33924e-08
5.10008e-08
-2.08675e-07
-2.88772e-08
-1.77722e-07
-1.16529e-08
-1.65445e-07
1.03698e-11
-1.87481e-07
1.53305e-08
-1.48265e-07
-1.47561e-08
-1.50293e-07
1.50819e-08
-7.09362e-08
-2.33836e-08
-1.56696e-07
-1.56327e-09
5.48393e-08
6.05557e-08
-1.77799e-07
-5.94453e-08
-1.31795e-07
-1.58133e-08
-9.56285e-08
-1.19523e-08
-8.72946e-08
-6.10232e-09
-8.24343e-08
-1.28058e-08
-7.58655e-08
-2.22768e-09
-1.11049e-07
2.54838e-08
1.04486e-07
6.11283e-08
7.60244e-08
1.60339e-08
-1.43912e-07
-5.72969e-08
-1.36606e-07
-7.21013e-10
7.74731e-08
5.48171e-08
-1.39742e-07
-5.35822e-08
-1.0848e-07
-3.29389e-08
-9.63856e-08
-2.30235e-09
-1.32271e-07
1.13554e-08
-1.48428e-07
-8.81745e-09
1.44777e-07
-1.18431e-08
-2.06173e-07
-1.3276e-08
-7.11795e-08
1.03781e-08
-8.46979e-08
4.27012e-08
-1.00756e-07
4.98338e-08
-6.09661e-08
4.96987e-09
-2.87761e-08
-8.02274e-09
-4.44382e-08
1.7473e-08
-4.94472e-08
5.10867e-09
-6.18023e-08
2.14112e-08
-8.77667e-08
1.85962e-08
-9.82863e-08
1.31378e-09
-1.59007e-07
3.4403e-08
-2.39069e-07
4.14936e-09
-1.5378e-07
5.3399e-08
-2.84751e-07
1.47396e-08
-7.6314e-08
2.76348e-08
-2.95781e-07
-9.98384e-08
-2.82763e-07
-2.35029e-08
-3.59963e-08
4.79159e-08
-2.41102e-07
-4.60927e-08
-1.93407e-07
-7.64332e-10
2.09931e-08
-9.89262e-08
2.35732e-08
-6.06666e-08
-3.47515e-08
-4.37531e-08
-3.45206e-09
-1.68903e-08
-6.84468e-08
-2.19398e-08
-4.27241e-08
-5.38726e-08
-4.26618e-08
-5.15759e-08
-6.1831e-08
-2.00939e-08
-7.99627e-08
-2.17335e-07
3.73117e-08
4.7951e-08
5.94065e-08
-1.86433e-07
-8.17804e-08
-1.46848e-07
-4.95718e-08
-1.69449e-07
-6.44784e-09
-1.34897e-07
-3.15525e-08
-1.32156e-07
-1.40495e-08
-1.27022e-07
-6.33721e-09
-1.39246e-07
-1.52833e-09
-1.33059e-07
-7.10433e-09
-1.51195e-07
2.24326e-08
-1.81946e-07
1.24058e-08
-1.86251e-07
2.21656e-08
-1.69152e-07
8.73024e-09
-1.16031e-07
-4.57181e-08
-1.56503e-07
8.13484e-08
-1.56366e-07
5.99992e-08
-9.96851e-08
-3.09973e-09
-1.2965e-07
1.08747e-09
-1.26304e-07
-1.51524e-08
-1.12006e-07
-1.4288e-08
-1.06025e-07
8.05083e-09
-1.00854e-07
-1.99272e-08
-9.25986e-08
6.82631e-09
-7.69615e-08
-3.92593e-08
-2.83618e-08
-5.0163e-08
-3.17532e-08
6.33294e-08
-8.47686e-08
-6.96533e-09
-8.85807e-08
-1.20011e-08
-9.27623e-08
-7.89248e-09
-8.40102e-08
-1.48544e-08
-9.3958e-08
-2.85793e-09
-9.76238e-08
1.4383e-09
-7.16232e-08
-5.16711e-10
3.55546e-08
-4.68904e-08
-1.44951e-08
6.60838e-08
-9.79894e-08
2.60495e-08
-9.19699e-08
-7.6786e-09
-4.95345e-08
1.23818e-08
-8.42068e-08
-1.89511e-08
-1.09481e-07
-7.32882e-09
-1.0226e-07
-1.05661e-08
-1.93175e-07
-1.21355e-08
-1.1058e-07
2.3797e-08
1.46178e-07
6.97428e-08
-1.3784e-07
-6.55417e-08
-3.475e-08
-9.40122e-08
-4.93953e-08
5.67674e-08
-1.17368e-07
5.70804e-09
-2.63278e-08
2.62892e-08
-6.05475e-08
2.6113e-08
-3.05833e-08
-1.24912e-08
-3.5815e-08
1.07058e-08
-2.32858e-08
8.79322e-09
-2.82273e-08
2.31105e-08
-4.29518e-08
1.62036e-08
-4.25864e-08
3.37766e-08
-6.52648e-08
2.7445e-08
-3.27304e-08
1.9867e-08
-6.45589e-08
4.48177e-08
-8.36364e-08
4.44187e-08
-1.90856e-07
6.19999e-09
-2.09956e-07
-4.79668e-09
-1.88991e-07
3.11066e-08
-2.20352e-07
-1.13794e-08
-1.99135e-07
-2.42288e-08
-3.56316e-08
-8.96333e-08
2.49405e-08
-9.32476e-08
-1.14808e-08
-9.55358e-08
8.2729e-09
-1.01974e-07
-5.77249e-08
-5.43901e-08
-8.93173e-08
-1.08613e-07
1.15608e-08
-1.76444e-07
3.09211e-09
4.05285e-08
4.59289e-08
-2.08569e-07
-5.3719e-08
-1.12823e-07
-3.69454e-08
-1.41559e-07
-5.44895e-08
-1.60602e-07
-3.08465e-08
-1.4502e-07
-2.03259e-08
-1.45654e-07
-3.09188e-08
-1.38136e-07
-2.19351e-08
-1.43256e-07
-1.29603e-09
-1.36593e-07
-8.17569e-09
-1.27407e-07
-1.62906e-08
-1.43626e-07
3.80338e-08
-1.5822e-07
2.83605e-08
-1.5315e-07
1.68715e-08
-1.75661e-07
2.93789e-08
5.59605e-08
6.22696e-08
-1.41494e-07
-5.66236e-08
-8.33108e-08
-1.0501e-09
-1.05275e-07
1.78218e-08
-9.06426e-08
-1.246e-08
-1.09667e-07
3.87189e-09
-1.15388e-07
-8.80314e-09
-1.0539e-07
-1.94667e-09
-1.02754e-07
-2.25632e-08
-9.02942e-08
-5.63397e-09
-1.32072e-07
2.51809e-09
1.18503e-07
3.89766e-08
-9.64756e-08
-6.0422e-08
-9.01568e-08
-1.32841e-08
-9.04898e-08
-1.25879e-08
-9.51179e-08
-3.26435e-09
-8.19364e-08
-2.77526e-08
-9.16176e-08
6.82338e-09
-9.2916e-08
2.76495e-09
-1.03248e-07
8.76244e-09
1.73021e-07
2.0265e-08
-1.20915e-07
1.9215e-08
-8.29691e-08
-1.18967e-08
-9.20188e-08
1.37123e-09
-7.97656e-08
2.31414e-12
-9.49589e-08
-3.75768e-09
-9.01099e-08
-1.21778e-08
-9.0672e-08
-1.00039e-08
-1.03153e-07
4.68981e-10
-7.84715e-08
-8.84076e-10
-1.5722e-08
7.06544e-09
-1.02522e-07
2.05897e-08
1.04098e-07
3.80201e-08
-1.01959e-07
-7.1705e-08
-9.30466e-08
-5.12225e-09
-6.397e-08
-4.13475e-09
-1.50767e-07
-8.36394e-10
-6.5814e-08
1.73325e-08
-7.19371e-08
1.73854e-08
-6.34066e-08
3.5157e-10
-6.60053e-08
2.43889e-08
-6.07621e-08
1.15867e-08
-4.86606e-08
2.22888e-08
-4.99177e-08
2.7694e-08
-4.2307e-08
1.28973e-08
-3.95495e-08
4.24875e-08
-2.18615e-08
2.58335e-08
-4.57627e-08
2.96765e-08
-8.31325e-09
-4.26639e-08
-5.89386e-08
8.02787e-08
-8.2094e-08
1.15427e-08
-1.02666e-07
-4.65614e-09
1.2507e-08
-7.37302e-08
2.01902e-08
-2.5889e-08
-4.41119e-08
-3.02468e-08
1.4796e-08
-1.10003e-07
2.29665e-08
1.04829e-07
3.63157e-08
-1.57928e-07
-6.52782e-08
-1.4129e-07
-1.4988e-08
-8.14392e-08
-1.43956e-08
-1.13998e-07
-2.03299e-08
-1.0611e-07
-4.48334e-08
-1.32021e-07
-2.99257e-08
-1.42426e-07
-2.03339e-08
-1.36499e-07
-2.48007e-08
-1.37284e-07
-3.1534e-08
-1.57937e-07
-2.91133e-09
-2.62304e-07
-9.70611e-09
-1.60148e-07
5.58208e-09
-1.67883e-07
-6.84372e-09
-1.36408e-07
6.55893e-09
-1.32429e-07
2.29889e-08
-1.32189e-07
1.81518e-08
-1.06057e-07
3.21392e-09
-4.57225e-08
3.8299e-10
-7.71762e-08
-2.47038e-08
-7.67093e-08
2.61382e-11
-7.58702e-08
1.60279e-08
-7.98724e-08
-9.1388e-09
-7.01174e-08
-6.53195e-09
-7.39226e-08
-4.94707e-09
-5.13653e-08
-2.35101e-08
-6.62844e-08
-7.64424e-09
-5.92543e-08
-1.27947e-08
-5.74406e-08
7.04385e-10
4.08405e-08
-5.99158e-08
-6.13085e-08
4.1727e-08
-6.0857e-08
-1.3731e-08
-5.49471e-08
-1.84977e-08
-5.40546e-08
-3.60534e-09
-7.57544e-08
-6.11446e-09
-8.36273e-08
1.30704e-08
-9.94378e-08
1.85755e-08
-1.1516e-07
2.43246e-08
1.66246e-07
8.18658e-08
-1.27086e-07
-2.85718e-08
-1.09951e-07
-2.93313e-08
-9.71599e-08
-1.14194e-08
-8.46088e-08
-1.25487e-08
-8.44588e-08
-3.90758e-09
-9.08442e-08
-5.79235e-09
-1.00468e-07
-3.79652e-10
-9.81931e-08
-1.80622e-09
-4.55921e-08
-5.45062e-08
-1.01271e-07
6.27443e-08
-8.02685e-08
6.20504e-10
-4.3591e-08
1.78732e-09
-8.78076e-08
-2.76045e-08
-9.05126e-08
-3.38999e-09
-7.02677e-08
-2.50056e-08
-7.24594e-08
1.36385e-09
-5.8488e-08
3.95777e-09
-4.15129e-08
4.10387e-10
-4.91969e-08
7.61563e-09
-3.98774e-08
1.49173e-08
-3.44545e-08
6.04564e-09
-3.0878e-08
1.92547e-08
-3.2974e-08
2.97901e-08
-5.54276e-08
3.48831e-08
-5.95461e-09
-6.42567e-09
1.91486e-08
5.37021e-10
2.36661e-08
2.56521e-08
2.49471e-07
6.89423e-08
4.61972e-08
-5.26654e-08
7.48566e-08
-1.74054e-08
8.49087e-08
-1.39521e-08
1.49407e-09
-7.65608e-08
1.27507e-08
-8.86922e-08
-1.09921e-08
-7.67542e-08
1.19765e-08
-6.58495e-08
1.46981e-08
-1.5934e-08
-1.36001e-08
-5.42212e-08
-2.71539e-08
-4.20289e-08
-2.71806e-08
-4.91502e-08
-7.12786e-09
-4.76351e-08
-2.18453e-08
-7.06354e-08
-2.18334e-08
-9.0334e-08
-1.11491e-08
-1.02842e-07
-7.61715e-09
-9.37201e-08
-3.28733e-08
-5.4488e-08
-7.14958e-08
-1.06895e-07
4.95246e-08
-1.32142e-07
1.56396e-08
-1.14712e-07
-1.18482e-08
-5.84173e-08
-6.31387e-08
-9.96943e-08
4.74187e-08
-8.51226e-08
8.41685e-09
-1.58941e-07
-1.94482e-08
-4.98252e-08
6.6605e-09
-2.68279e-08
-2.28468e-08
2.38308e-08
-7.53842e-08
-6.86449e-09
3.06519e-08
1.30239e-08
-3.83014e-09
2.24391e-08
-1.87808e-08
3.69386e-08
-2.11781e-08
5.44113e-08
-2.25464e-08
4.42432e-08
-1.29232e-08
3.29745e-08
4.45763e-09
1.04863e-08
9.69347e-09
-2.82353e-08
3.86367e-08
1.98319e-07
5.6746e-08
-3.52824e-08
-6.60496e-08
-1.7074e-08
-3.19394e-08
-2.56307e-08
-1.01151e-08
-1.81112e-08
-1.13095e-08
-2.14314e-08
-2.85721e-09
-9.22441e-09
1.07113e-09
-3.39453e-08
4.3107e-08
-2.86843e-08
1.90636e-08
7.19155e-08
-2.03027e-08
-7.68987e-09
5.0956e-08
-4.44075e-08
7.23265e-09
-3.92116e-08
-1.61621e-08
-5.2472e-08
7.11769e-10
-5.36271e-08
-2.7246e-09
-7.0906e-08
1.14867e-08
-8.23103e-08
1.09134e-08
-1.22632e-07
3.68878e-08
8.18411e-08
8.42368e-08
-1.62817e-07
-3.37866e-08
-1.00968e-07
-6.12285e-08
-5.83234e-08
-4.14524e-08
-8.07976e-08
-6.24764e-09
-1.6862e-07
-2.74373e-08
-7.36484e-08
-6.17941e-09
-8.82343e-08
1.5355e-08
-8.31761e-08
-1.08924e-09
-6.49182e-08
-1.78433e-08
-6.75055e-08
1.08916e-08
-4.97079e-08
-2.85134e-09
-4.73936e-08
3.22425e-09
-4.05648e-08
1.23005e-08
-1.0301e-08
-1.67892e-10
-8.005e-08
-7.78928e-09
7.67316e-09
1.79458e-08
-1.05307e-08
1.90188e-08
-5.0718e-09
2.04551e-08
4.68252e-08
1.65679e-08
5.97357e-10
-6.96891e-09
-5.54452e-09
-1.14344e-08
7.37293e-09
-2.70115e-08
-4.30808e-08
-5.92727e-08
-1.06925e-08
-4.78774e-08
-6.55613e-09
-4.73168e-08
1.7198e-08
-1.84849e-08
-1.31784e-08
-7.00004e-09
-2.54126e-08
-2.10587e-08
-1.30955e-08
-3.51277e-08
-1.31119e-08
-3.16788e-08
-1.05772e-08
-4.28022e-08
-1.07222e-08
-3.99251e-08
-2.47108e-08
-5.15316e-08
4.57068e-10
-7.74406e-08
1.83691e-08
-1.18455e-07
6.93263e-09
9.61848e-08
5.70794e-08
-1.36823e-07
-5.81638e-08
-1.10918e-07
-1.02654e-08
-1.36128e-07
1.33609e-08
8.26405e-08
5.6964e-08
-1.09247e-07
-9.60078e-08
-6.53856e-08
-3.55304e-08
-6.15312e-08
-2.26815e-08
-3.4732e-08
-2.04863e-08
-5.64499e-08
-1.73433e-09
1.5867e-07
4.68223e-08
-6.44858e-08
-8.24764e-08
-3.97182e-08
-2.95574e-08
-3.75579e-08
-2.11329e-08
-4.74923e-08
-1.15781e-08
-4.80362e-08
-2.29569e-08
-6.9044e-08
7.2396e-09
-6.55739e-08
1.69909e-09
-6.66488e-08
1.18969e-08
-3.73775e-08
9.36538e-09
9.45447e-09
8.95381e-09
-4.42388e-08
-1.23563e-08
-4.21581e-08
-3.47e-08
-3.68911e-08
-1.53821e-08
-2.04635e-08
-2.77371e-08
-2.97231e-08
6.73483e-09
-1.8841e-08
-9.81082e-09
-2.2283e-08
4.58887e-08
-3.48822e-08
3.13431e-08
2.11229e-07
7.25602e-08
-2.59304e-08
-5.08145e-08
-4.31614e-09
-1.44545e-08
-8.56718e-10
-1.96655e-08
-8.96724e-10
7.6101e-10
1.20606e-10
-3.74185e-09
9.639e-09
1.85234e-09
1.80965e-08
2.27321e-09
3.20843e-08
2.30828e-08
1.06524e-07
9.26557e-09
-8.74538e-09
-3.17557e-08
5.31753e-08
-9.91104e-09
7.97536e-08
-6.87318e-08
4.99843e-09
6.85713e-08
-2.9463e-08
7.30405e-09
-2.92647e-08
-6.80869e-09
-2.47096e-08
1.10547e-08
-3.05055e-08
4.95629e-09
-5.6728e-08
8.15115e-09
-3.30141e-08
-1.24854e-08
-1.91806e-08
-1.67136e-08
-1.08224e-08
-5.21918e-09
-1.61246e-09
3.10699e-09
-5.85954e-09
4.0224e-09
-3.27007e-08
1.89922e-08
-2.24456e-08
7.645e-09
-2.98549e-08
2.64282e-08
-3.65839e-08
2.74888e-08
-3.59508e-08
1.60992e-08
-5.0488e-08
7.49771e-09
-6.30323e-08
1.1107e-09
-1.14601e-07
2.3388e-08
6.5257e-08
-6.95631e-08
-1.87018e-08
-4.42622e-08
-1.12012e-08
-3.38245e-08
1.06208e-08
-2.09269e-08
-2.58657e-08
-9.25624e-09
-3.70835e-08
-1.4672e-08
-7.6801e-09
-1.87894e-08
-8.99485e-09
-2.18795e-08
-7.48737e-09
-1.96451e-08
-1.29569e-08
-3.44586e-08
-9.99979e-09
-4.14756e-08
7.47379e-09
-3.46412e-08
1.14178e-08
-4.02677e-08
1.25588e-08
3.93252e-09
1.22965e-08
-5.48063e-08
5.68844e-10
-5.23585e-08
-1.27136e-08
-3.05009e-08
-8.49703e-09
-5.35067e-08
-3.27227e-08
-6.04594e-09
-3.22829e-08
-1.87358e-08
-2.29019e-08
-1.42665e-08
-2.74281e-08
-4.91243e-09
-3.00972e-08
-2.19016e-08
1.5204e-08
1.07424e-08
1.44014e-08
-5.25383e-08
-2.07853e-08
-6.14761e-08
-2.06198e-08
-7.6417e-08
-6.40998e-09
-9.15629e-08
2.6239e-09
-1.00327e-07
-1.3249e-08
-1.04801e-07
1.2663e-08
-9.42667e-08
-7.81133e-09
-7.51692e-08
-7.27421e-09
-7.31879e-08
6.71274e-09
-6.54949e-08
1.27381e-09
-7.99159e-08
1.26221e-09
-1.02022e-07
-1.27251e-08
-7.96141e-08
-3.6749e-08
-8.34693e-08
-2.4128e-08
-6.9561e-08
-7.1734e-09
-1.78414e-08
-6.14484e-08
-4.23202e-08
7.00872e-08
-2.58802e-08
1.48875e-08
8.01816e-08
-3.37628e-08
-1.61845e-08
4.59014e-08
-1.74486e-08
-1.32031e-08
-1.07095e-08
-2.66767e-08
-7.41523e-09
-2.50759e-09
-1.21061e-08
1.03447e-09
-4.22744e-09
-6.02627e-09
9.22371e-09
-1.11978e-08
1.11193e-08
2.14228e-08