/*--------------------------------*- C++ -*----------------------------------*\
  =========                 |
  \\      /  F ield         | OpenFOAM: The Open Source CFD Toolbox
   \\    /   O peration     | Website:  https://openfoam.org
    \\  /    A nd           | Version:  12
     \\/     M anipulation  |
\*---------------------------------------------------------------------------*/
FoamFile
{
    format      ascii;
    class       surfaceScalarField;
    location    "0.85";
    object      phi.water;
}
// * * * * * * * * * * * * * * * * * * * * * * * * * * * * * * * * * * * * * //

dimensions      [0 3 -1 0 0 0 0];

internalField   nonuniform List<scalar> 
7375
(
-1.36052e-07
1.90714e-08
-6.3065e-08
-3.3226e-08
-1.6507e-08
-3.9399e-08
2.59059e-08
-4.1943e-08
1.13873e-07
-8.77081e-08
8.48351e-08
2.86524e-08
9.16869e-08
-8.77788e-09
1.01027e-07
-9.24646e-09
1.17432e-07
-1.65662e-08
1.28878e-07
-1.14463e-08
1.01219e-07
2.89347e-08
1.19355e-07
-1.81107e-08
1.32707e-07
-1.3187e-08
1.54588e-07
-2.02897e-08
1.36005e-07
2.00179e-08
7.69816e-08
5.7532e-08
1.37394e-07
5.2516e-08
9.94749e-08
3.7899e-08
9.41015e-08
5.30905e-09
9.03024e-08
3.80623e-09
1.015e-07
-1.22403e-08
1.03853e-07
-1.29023e-09
1.05761e-07
-1.91506e-09
1.17629e-07
-1.29359e-08
1.34744e-07
-1.73055e-08
1.52341e-07
-1.75957e-08
1.4267e-07
9.6672e-09
1.5702e-07
-1.28944e-08
1.60469e-07
-1.8606e-09
1.61121e-07
-3.90962e-09
1.54974e-07
4.62761e-09
1.54868e-07
1.0683e-10
1.58141e-07
-1.70966e-09
1.52754e-07
6.95757e-09
1.51387e-07
1.36695e-09
1.49979e-07
-1.03802e-10
1.51199e-07
-1.24551e-09
1.54616e-07
-2.82728e-10
1.48075e-07
6.60764e-09
1.50627e-07
-4.1178e-09
1.59688e-07
-9.07279e-09
1.62355e-07
-4.27293e-09
2.01138e-07
-3.87836e-08
1.98131e-07
5.01882e-09
1.88633e-07
1.13312e-08
1.70827e-07
1.95263e-08
1.58139e-07
1.10641e-08
1.4169e-07
1.47988e-08
1.28241e-07
1.20316e-08
1.16821e-07
1.15369e-08
1.25253e-07
-5.97037e-09
1.73499e-08
-6.53127e-09
1.24511e-07
5.89247e-09
1.01195e-07
2.30844e-08
8.69406e-08
1.50044e-08
8.98566e-08
-2.87369e-09
8.26859e-08
7.17977e-09
7.71077e-08
5.62421e-09
1.11212e-07
-3.52532e-08
1.07602e-07
2.51538e-09
1.26095e-07
-1.72198e-08
1.27688e-07
1.10026e-09
1.70656e-07
-4.47616e-08
1.19692e-07
4.9211e-08
9.18015e-08
2.84897e-08
1.33177e-07
-4.2318e-08
1.05501e-07
2.66418e-08
1.18562e-07
-1.30605e-08
1.09054e-07
1.06115e-08
1.20685e-07
-1.15209e-08
1.20916e-07
-2.28503e-10
1.32481e-07
-1.16813e-08
1.25291e-07
7.18797e-09
1.35854e-07
-1.04601e-08
-1.02317e-08
-4.6045e-08
3.45187e-08
-7.05685e-08
1.47952e-08
1.63482e-08
-1.21202e-07
-4.79499e-08
2.15329e-08
1.71368e-07
3.51485e-08
-3.5935e-08
-1.02711e-07
-5.28079e-09
-3.97476e-08
1.93571e-08
-3.39239e-08
3.22076e-08
-2.92187e-08
6.7041e-08
-4.6396e-08
4.347e-08
-6.01186e-08
7.40572e-08
-4.99626e-08
9.86473e-08
-3.73989e-08
1.38331e-07
-5.95743e-08
8.9924e-08
6.82213e-08
1.2889e-07
1.92943e-08
9.61818e-08
-2.91803e-08
1.17856e-07
1.38997e-08
1.27971e-07
-4.80482e-09
1.13661e-07
1.96221e-08
1.18462e-07
-1.84375e-08
1.2088e-07
-4.89201e-09
1.22516e-07
-2.28735e-09
1.25141e-07
-1.44428e-08
1.82879e-07
-7.50428e-08
1.0331e-07
6.01268e-08
1.03485e-07
1.0432e-08
9.6656e-08
-4.09309e-09
9.1522e-08
2.29643e-09
7.63764e-08
1.11959e-08
8.91783e-08
-9.0457e-09
1.13191e-07
-2.48053e-08
1.05366e-07
6.1149e-09
1.34625e-07
-2.39019e-08
1.28265e-07
7.87024e-09
1.23706e-07
8.24915e-09
1.03215e-07
2.07366e-08
8.06184e-08
2.12472e-08
7.60724e-08
1.18694e-08
8.70761e-08
-1.59057e-08
9.87256e-08
-2.2618e-08
1.46247e-07
-5.17941e-08
1.70163e-07
-6.33397e-08
2.78429e-07
-1.06059e-07
2.37254e-07
5.29217e-08
2.5253e-07
8.99961e-09
2.61965e-07
4.16028e-09
2.47079e-07
2.42441e-08
2.39351e-07
2.21765e-08
2.11542e-07
4.19317e-08
1.82762e-07
2.25165e-08
1.559e-07
2.03981e-08
1.61507e-07
-2.98373e-09
1.8121e-07
1.55138e-09
1.80944e-07
1.51208e-08
1.73007e-07
8.57977e-09
1.69328e-07
1.45375e-08
1.55737e-07
1.90173e-08
1.07726e-07
1.13868e-08
1.57359e-07
-4.77291e-08
1.55488e-07
-1.71109e-08
1.23882e-07
3.36067e-08
3.41294e-07
8.27807e-08
9.34647e-08
-4.47053e-08
1.2458e-07
-3.04125e-11
6.62987e-08
1.3368e-08
9.50512e-08
-3.46357e-09
7.60485e-08
5.03309e-09
1.09107e-07
-2.33131e-08
1.06054e-07
-7.36572e-09
1.17253e-07
-9.05744e-09
1.08323e-07
-2.72391e-09
1.32548e-07
-1.94946e-08
1.30821e-07
-7.33785e-09
-9.40316e-09
-1.40899e-07
3.9149e-08
-1.2163e-07
2.37966e-08
1.02409e-07
1.58437e-08
-1.25733e-07
-9.36498e-08
-5.51598e-08
-3.61666e-08
-9.49759e-08
-6.34641e-08
-7.41455e-08
-6.01721e-08
-7.36735e-08
-3.47415e-08
-6.15829e-08
-4.13089e-08
-1.06227e-07
-6.60579e-10
-8.01115e-08
2.50515e-08
-1.17463e-07
-1.22256e-08
-1.47583e-07
-8.04174e-09
8.21286e-08
5.18748e-08
-1.10882e-07
-7.93201e-08
-5.50739e-08
-3.65129e-08
-5.43204e-08
-2.87878e-08
-2.68685e-08
-1.36899e-08
-1.68366e-08
-1.54891e-08
-1.68335e-08
1.92476e-08
-2.18592e-08
-1.30126e-08
-2.20861e-08
-4.27026e-09
-2.22233e-08
-2.39593e-09
-4.39774e-08
7.01343e-09
1.72648e-07
4.62848e-08
-2.53528e-08
-7.78993e-08
1.00036e-08
-2.51758e-08
1.83263e-08
-1.23984e-08
1.95679e-08
1.43274e-09
1.4909e-08
1.56931e-08
2.28144e-08
-1.70108e-08
1.14852e-08
-1.38463e-08
1.54633e-08
2.29293e-09
4.47103e-09
-1.29505e-08
8.03849e-10
1.15724e-08
-1.7961e-08
2.69067e-08
-3.3885e-08
3.58838e-08
-4.18832e-08
2.95945e-08
-3.38275e-08
4.11964e-09
-3.39875e-08
-1.57441e-08
1.73216e-09
-5.77487e-08
2.22408e-08
-7.3582e-08
3.49253e-08
-7.52566e-08
2.82025e-07
-1.45266e-08
3.39078e-08
-1.52934e-07
9.78327e-08
-5.38356e-08
1.2183e-07
-2.11361e-08
1.42979e-07
1.86546e-09
1.61728e-07
5.11144e-09
1.68228e-07
3.46507e-08
1.43284e-07
4.74601e-08
1.20603e-07
4.41015e-08
1.03236e-07
1.43838e-08
9.27114e-08
1.00923e-08
8.55504e-08
2.15706e-08
7.14855e-08
2.43172e-08
7.01728e-08
1.64371e-08
8.9746e-08
3.69126e-10
-4.36679e-09
-1.00653e-08
4.42009e-08
1.6048e-08
9.22816e-08
-6.56821e-08
7.07726e-08
5.49006e-08
1.12738e-07
4.22744e-08
1.18588e-07
-5.10823e-08
2.05753e-08
9.67732e-08
1.55902e-08
1.78976e-08
9.7674e-09
2.33533e-09
2.31665e-08
-8.60233e-09
1.56805e-08
-1.60626e-08
3.6836e-08
-2.88122e-08
4.83191e-08
-2.10286e-08
7.21382e-08
-2.62934e-08
6.61928e-08
-1.3353e-08
7.01328e-08
-1.0644e-08
-2.92348e-08
-7.05619e-08
3.93071e-08
-4.28801e-08
1.10886e-08
-2.57236e-09
-2.01359e-08
-5.9205e-08
-3.75683e-08
-7.43344e-08
-2.08425e-08
-1.86249e-07
-6.45234e-08
-1.14042e-07
-1.72401e-08
-1.13451e-07
-3.53324e-08
-1.42477e-07
-1.09402e-08
-1.27799e-07
-1.53381e-08
-9.88201e-08
-5.02665e-09
-1.15225e-07
3.12898e-09
-1.36578e-07
1.46367e-08
-7.26938e-08
-1.11536e-08
-1.14491e-07
-3.82644e-08
-1.06728e-07
-4.27503e-08
-9.53527e-08
-4.11253e-08
-6.36278e-08
-4.7194e-08
-8.412e-08
6.5265e-09
-5.65192e-08
-7.69756e-09
-5.99253e-08
-1.00499e-08
-5.17521e-08
-1.24866e-08
-4.46023e-08
-9.11473e-09
-3.8209e-08
6.20463e-10
1.40951e-09
6.27681e-09
-4.93245e-08
-2.82479e-08
-5.9222e-08
-1.61392e-08
-5.78227e-08
-1.45211e-08
-6.44023e-08
9.27223e-09
-4.90627e-08
8.45565e-10
-5.74191e-08
-9.24917e-09
-6.4025e-08
-7.24042e-09
-5.59739e-08
-5.73471e-09
-7.81308e-08
9.43461e-09
-8.48788e-08
1.82023e-08
-7.76005e-08
1.96283e-08
-7.62516e-08
3.45208e-08
-7.54203e-08
2.84612e-08
-7.25145e-08
4.7394e-10
-3.62383e-08
-5.11201e-08
-1.98866e-08
-7.39355e-08
-1.81195e-08
-7.53675e-08
9.71636e-10
-9.51255e-08
-4.91028e-08
3.47026e-08
-8.32122e-08
-4.41966e-09
-8.07491e-08
-5.54499e-08
-6.3147e-08
-3.85226e-08
-3.4506e-08
-2.67566e-08
-4.30932e-08
1.44326e-08
1.66707e-09
1.01985e-07
-2.41968e-08
7.33409e-08
-1.7158e-08
3.66884e-08
-1.18395e-08
9.01036e-09
3.34455e-08
-3.51926e-08
-1.72134e-08
7.24495e-08
-2.17476e-08
2.90996e-08
-1.57075e-08
1.0069e-08
-2.28686e-08
7.84683e-09
-3.36415e-08
8.10265e-10
-1.2993e-07
-2.22757e-09
1.67111e-07
8.98501e-08
-8.66846e-08
-2.81928e-08
-7.47355e-08
2.896e-08
1.03266e-07
1.15428e-07
-7.16662e-08
-6.76409e-08
-4.08877e-08
-1.24681e-08
-3.39631e-08
-5.00219e-09
-3.44864e-08
-8.42554e-09
-3.79965e-08
-1.25879e-08
-3.79568e-08
-2.88519e-08
-2.76778e-08
-3.18045e-08
-1.89838e-08
-3.50632e-08
-1.75373e-09
-3.0392e-08
-2.81456e-08
1.56211e-08
6.45078e-09
-9.66519e-08
1.02605e-07
-1.32025e-08
9.08487e-08
-1.22142e-08
-1.9394e-08
-1.31971e-08
-3.62011e-08
-1.20225e-08
-2.19061e-08
-2.02597e-08
-5.57555e-08
1.15991e-08
-4.93051e-08
2.97735e-08
-5.32026e-08
2.98239e-08
-1.09902e-08
1.09942e-08
3.14356e-09
3.98841e-08
-3.42693e-08
-4.28863e-08
8.5493e-08
-4.19273e-08
1.35289e-08
-3.00663e-08
-2.31279e-08
-4.57306e-08
-2.19095e-08
-5.13262e-08
-3.71541e-08
-5.81858e-08
-3.52084e-08
-5.52441e-08
-5.01655e-08
-6.26696e-08
1.38859e-08
-4.37967e-08
-2.66486e-08
-3.56226e-08
-1.84113e-08
-4.22149e-08
-5.89391e-09
-4.40928e-08
-7.23634e-09
-5.35744e-08
1.01088e-08
-4.43807e-08
-3.36938e-09
-8.40573e-08
1.14291e-08
-8.62705e-08
-1.30682e-08
-1.11791e-07
1.11478e-08
-1.20444e-07
1.78312e-08
-9.12186e-08
-2.93021e-08
-8.44092e-08
-1.60585e-08
-7.4057e-08
-1.65625e-08
-6.75598e-08
-1.27907e-08
-6.49688e-08
6.77381e-09
-4.72474e-08
1.14355e-09
-3.79139e-08
9.80786e-09
-1.28859e-08
9.39583e-09
4.26155e-08
-2.69088e-08
-3.98299e-08
-2.99126e-08
2.90591e-09
1.87547e-08
-6.99436e-08
-1.82953e-09
-1.3297e-07
-1.29291e-08
1.02012e-07
1.10762e-08
-1.41932e-07
-5.86668e-08
-9.27533e-08
-5.50018e-08
-1.12113e-07
-3.60906e-08
-1.37074e-07
-1.3701e-08
-1.50042e-07
-1.70237e-08
-1.68357e-07
3.27468e-08
-1.50175e-07
-2.49593e-08
-1.12586e-07
3.69007e-08
-8.81257e-08
1.13377e-08
-1.23024e-07
4.29998e-08
1.06488e-07
7.54949e-08
-1.18713e-07
-4.20632e-08
-8.65977e-08
-3.01616e-09
-7.76892e-08
3.6799e-10
-7.60782e-08
5.37081e-09
-1.03762e-07
3.03557e-08
-1.37339e-07
3.24197e-08
-6.87539e-08
1.9163e-08
-1.24798e-07
2.62749e-08
-7.93129e-08
-1.55377e-08
-1.06866e-07
3.01576e-08
-3.45254e-08
-2.78873e-08
-3.0353e-08
-1.712e-08
-4.19664e-08
6.56005e-09
-3.40357e-08
-1.58474e-08
-2.01654e-08
-2.61937e-08
-1.56587e-08
-3.35644e-08
-1.54767e-08
-3.19866e-08
-2.04409e-08
-2.97417e-08
2.72842e-08
-7.84279e-08
-3.18402e-08
7.39906e-08
8.8187e-08
-7.73671e-08
8.9464e-08
-7.73977e-08
1.18123e-07
-5.91223e-08
-3.35193e-08
-7.67564e-08
-1.87465e-08
-6.90033e-08
-2.95796e-08
-6.97113e-08
-5.43575e-08
-6.75422e-08
-5.20044e-08
1.39912e-08
-1.34736e-07
2.89944e-08
-2.58808e-08
-4.59967e-08
7.68816e-08
1.89676e-07
7.36272e-08
-1.17493e-07
-6.22244e-08
-7.56588e-09
1.684e-08
-3.49876e-08
4.65124e-09
-4.23023e-08
-1.44483e-08
-5.08305e-08
-2.94361e-08
-4.92375e-08
-3.73031e-08
-2.15099e-08
-7.87038e-08
-5.73508e-08
4.99468e-08
-7.22796e-08
-1.24567e-08
-8.87839e-08
-1.9264e-09
-6.44555e-08
-2.93161e-08
-5.68434e-08
-1.4698e-08
-7.05774e-08
2.36023e-08
-8.42472e-08
1.04069e-08
-6.5791e-08
-7.07119e-09
-4.84636e-08
-3.00884e-08
-3.42522e-08
-3.0325e-09
-8.08865e-09
-8.33219e-09
-1.4209e-08
-2.31816e-08
-6.08128e-10
-2.94893e-08
2.13626e-08
-3.87489e-08
4.17568e-08
-3.37315e-08
6.8598e-08
-1.99153e-08
8.11458e-08
-1.15324e-08
9.09189e-08
-8.92433e-10
8.66943e-08
1.45909e-08
5.81268e-08
2.54304e-09
1.57566e-08
1.24574e-08
2.69429e-08
8.03448e-09
-9.08528e-08
1.56073e-09
-2.6511e-08
3.68939e-08
-2.58468e-08
1.02989e-08
-8.74738e-08
2.33769e-09
-1.06488e-07
-3.63587e-08
-1.40245e-07
-3.76445e-09
-1.4666e-07
-8.79782e-09
-1.52865e-07
-9.30753e-09
-1.22787e-07
3.56056e-09
-1.34293e-07
-1.34531e-08
-1.06136e-07
8.74288e-09
-1.03913e-07
9.23063e-09
-8.59962e-08
2.5264e-08
-2.91369e-08
1.86356e-08
-6.9653e-08
-1.8443e-09
-6.77958e-08
-4.87338e-09
-7.00656e-08
2.66496e-09
-9.10874e-08
2.63378e-08
-9.58854e-08
3.4844e-08
-9.27593e-08
2.96243e-08
-9.31754e-08
1.95791e-08
-8.39677e-08
1.67991e-08
-1.09489e-07
1.12588e-08
-6.6964e-08
-1.22435e-08
1.12477e-09
-9.69438e-08
6.94631e-09
-2.29417e-08
-3.00789e-08
4.34488e-08
-3.37035e-08
-1.18825e-08
-1.39654e-08
-4.65367e-08
-5.29573e-09
-4.23767e-08
-2.23175e-08
-1.49651e-08
-4.50776e-08
-6.982e-09
1.64765e-07
4.97623e-08
-7.07724e-09
-9.13739e-08
5.33931e-08
-7.23073e-08
5.12213e-08
-3.28324e-08
-4.31038e-08
-2.05043e-08
-4.31651e-08
-5.02632e-08
1.20303e-08
-5.47854e-08
-2.3963e-08
-7.67989e-08
-3.36725e-08
-1.91161e-07
-5.22999e-08
1.06205e-07
2.28016e-08
1.03476e-07
-2.42071e-08
-6.53432e-08
-9.05821e-08
2.44816e-08
-1.76149e-08
-2.57984e-08
-1.19439e-08
-3.78808e-09
-5.16985e-09
8.33253e-10
2.19052e-11
-1.20703e-08
-1.67326e-09
-2.84053e-08
-1.32238e-08
-6.72416e-08
8.47723e-10
1.44954e-07
5.25864e-08
-6.20234e-08
-8.42689e-08
-4.2729e-08
-3.25183e-08
-4.32613e-08
-1.37373e-09
-5.10054e-08
-2.06099e-08
2.7798e-08
-9.37818e-08
3.31896e-08
1.88269e-08
-4.93085e-08
-2.04389e-08
4.2773e-08
1.31409e-08
1.33291e-08
-3.50443e-10
1.86448e-08
-8.2134e-09
1.32093e-08
-2.70623e-09
-7.32799e-10
-9.23941e-09
-2.96193e-08
-6.02722e-10
-5.92152e-08
-1.01523e-08
-8.52525e-08
-8.92055e-09
-9.90473e-08
-5.44712e-09
-1.06135e-07
-4.51743e-09
-1.25544e-07
1.72139e-08
-1.26552e-07
1.68695e-08
-1.39077e-07
1.65274e-08
-1.2829e-07
1.66997e-09
-1.21395e-07
1.12839e-09
-1.37666e-07
1.79984e-08
-1.15724e-07
1.51066e-08
-1.22136e-07
1.81415e-08
-7.98272e-08
-4.07775e-08
-1.32305e-07
1.52959e-08
-1.14623e-07
-2.00966e-08
-1.0786e-07
-1.54713e-08
-1.05693e-07
-1.13794e-08
-1.03046e-07
9.13097e-10
-1.08732e-07
-7.76701e-09
-1.00824e-07
8.34485e-10
-1.0011e-07
9.4415e-09
-7.87308e-08
3.92468e-09
-7.68495e-08
1.61412e-08
-9.06115e-08
1.20404e-08
-1.02648e-07
6.11573e-09
-6.85299e-08
-3.14529e-08
-1.90473e-07
1.4898e-07
-1.30197e-07
8.78061e-08
-1.29887e-07
2.93143e-08
-1.13798e-07
3.4903e-09
-8.2952e-08
-1.40468e-08
-1.85174e-07
2.13206e-09
-1.26575e-07
4.11286e-08
7.80783e-08
3.64534e-08
6.54006e-08
-1.09312e-08
-1.13713e-07
-1.13721e-07
-7.14041e-08
-5.5473e-08
-5.88089e-08
-5.96067e-08
-1.51891e-08
-8.59966e-08
-6.90958e-08
3.85482e-08
-3.68979e-08
-3.95842e-08
-7.77219e-08
8.97927e-08
1.07695e-07
6.54829e-08
-7.59917e-08
-9.55982e-08
7.67763e-08
-5.82514e-08
7.58402e-08
-6.19126e-08
-3.42229e-08
-3.56944e-08
-1.13261e-08
-2.7807e-08
-3.24525e-08
-3.02244e-08
-3.12547e-08
-6.65433e-08
-1.54525e-08
8.46281e-09
-5.2883e-08
-6.77301e-10
-1.52219e-08
-2.11895e-08
-7.09936e-08
-1.07109e-08
-2.78093e-08
-1.00631e-08
-1.25912e-08
-4.40016e-09
-1.07229e-08
3.88653e-09
-8.30395e-09
9.83779e-09
-7.56454e-09
1.62023e-08
-1.96883e-08
2.53039e-08
-8.51159e-09
7.5939e-08
1.43526e-09
2.23593e-08
-2.99919e-08
7.87708e-09
-1.82235e-08
3.48808e-08
-2.87365e-08
-9.26156e-08
-6.35128e-09
2.08195e-07
5.74034e-08
-4.95338e-08
-6.18298e-08
-4.45993e-08
-2.58785e-08
-1.79233e-08
-1.40438e-08
-2.80229e-08
9.93054e-09
-3.23176e-08
-3.71635e-09
-3.35362e-08
-1.48748e-09
-3.25045e-08
-1.0271e-08
-5.3029e-08
1.99219e-08
-6.7085e-08
3.94403e-09
-9.6477e-08
2.07744e-08
-6.78358e-08
-3.40328e-08
-7.50871e-08
2.73391e-09
-8.93239e-08
3.21862e-08
-7.51344e-08
1.75076e-09
-1.60032e-07
-1.37548e-08
-6.15263e-08
1.86626e-08
-7.95329e-08
1.83317e-08
-9.58771e-08
3.25345e-08
-1.0063e-07
1.98106e-08
-2.01332e-07
5.47544e-09
-1.32475e-07
5.29463e-09
-1.37923e-07
2.03805e-08
-1.36097e-07
-2.19229e-08
-1.30739e-07
-2.08296e-08
-1.30575e-07
-1.16621e-08
-1.19239e-07
-1.04229e-08
-1.16496e-07
-1.05108e-08
-1.09196e-07
-5.35157e-09
-1.11254e-07
1.03762e-08
-1.08737e-07
3.01604e-10
-1.15963e-07
2.32933e-08
-1.307e-07
2.65042e-08
-1.63707e-07
4.04558e-08
7.17321e-08
7.31436e-08
-1.88492e-07
-4.33065e-08
-9.50011e-08
-5.68517e-09
-7.06366e-08
4.94979e-09
-5.92816e-08
-7.86469e-09
-1.09853e-08
-6.29856e-08
-8.55235e-08
7.66702e-08
-4.85379e-08
5.05773e-09
-2.57652e-08
1.38202e-08
-2.15251e-08
-1.54342e-08
-1.006e-07
-3.65519e-08
-1.01623e-07
-5.44508e-08
-1.38331e-07
-2.2898e-08
6.8383e-08
4.63056e-08
-1.73967e-07
-5.71422e-08
7.37618e-08
5.41088e-08
-1.54972e-07
-2.19407e-08
-7.64694e-08
-1.38293e-08
-7.13534e-08
-6.77524e-08
4.74132e-08
-5.4209e-08
-5.96496e-08
-4.53017e-08
-3.65684e-08
-3.6467e-08
-1.88895e-08
-3.6998e-08
-3.18748e-08
-3.64981e-08
-3.20781e-08
-5.77776e-08
5.29741e-09
1.08947e-07
1.22468e-07
-6.21286e-09
-1.44665e-08
6.46578e-08
-2.9222e-08
4.36187e-08
-6.70209e-09
5.25624e-08
-2.14073e-08
6.45033e-08
-2.26634e-08
5.87442e-08
-2.48556e-09
6.0656e-08
-8.93977e-09
4.22992e-08
-7.13176e-10
4.12647e-08
-7.48712e-09
3.9887e-08
3.20625e-09
2.06584e-08
-1.08491e-08
-4.093e-09
6.39516e-09
-3.95408e-08
6.82423e-09
-6.09556e-08
1.54673e-08
5.30784e-09
-8.91379e-09
-3.68052e-08
-2.0293e-08
-5.70546e-08
-6.34021e-09
-8.36407e-08
1.32679e-08
-7.68119e-08
3.0007e-09
-8.96701e-08
9.0497e-09
-1.10771e-07
1.98154e-08
-1.23847e-07
2.83443e-09
-1.27737e-07
2.25086e-08
-1.25785e-07
6.95486e-10
-1.94824e-07
-2.30569e-08
-5.24836e-08
-6.17783e-08
-1.24558e-07
7.48082e-08
-8.01487e-08
-1.20997e-08
-7.81672e-08
-2.12965e-10
-1.01265e-07
9.38721e-09
-8.86435e-08
6.04128e-09
-8.37998e-08
1.36748e-08
-7.75359e-08
2.59385e-08
-9.10983e-08
3.31708e-08
-1.37888e-07
5.0802e-08
-1.33779e-07
2.56476e-09
-8.2011e-08
-3.00366e-08
-9.54963e-08
-9.2745e-09
-1.08861e-07
-8.57509e-09
-1.15535e-07
-4.93732e-09
-1.01408e-07
-2.36129e-08
-1.12126e-07
2.07172e-10
-9.32027e-08
-2.42749e-08
-9.93661e-08
1.66455e-08
-1.16739e-07
1.78537e-08
-1.17402e-07
2.51537e-08
-8.18671e-08
-9.20546e-09
-5.48827e-08
1.26362e-08
1.47011e-09
1.67759e-08
-5.52531e-08
1.34167e-08
-6.64712e-08
4.91913e-09
-7.39514e-08
1.24299e-08
-1.06772e-07
2.3867e-08
9.19037e-08
8.1554e-08
-1.29702e-07
-4.28123e-08
-1.15201e-07
-1.06194e-08
-1.27654e-07
2.6691e-08
-1.19285e-07
-2.51914e-08
-2.61607e-07
-9.93046e-09
-1.79076e-07
-1.87891e-08
-1.87824e-07
-1.4445e-08
-1.0452e-07
-3.69988e-08
-1.40321e-07
-2.19246e-08
-1.35939e-07
4.91744e-08
-1.8299e-07
2.30079e-08
-2.30088e-07
2.85254e-08
5.45006e-08
-5.42461e-08
8.00863e-09
-2.08827e-08
-7.88882e-08
-1.95768e-08
-3.55799e-08
-2.61725e-08
-1.16942e-08
-2.58761e-08
-3.27691e-08
4.71859e-08
-1.06569e-07
4.5095e-08
7.29291e-09
-7.59025e-08
-9.87326e-08
-5.29118e-08
-3.65348e-08
-2.17252e-08
-6.08069e-08
1.53251e-08
-4.39744e-08
2.53159e-09
-8.45861e-09
-6.45526e-09
-1.40245e-08
-1.33275e-08
4.38715e-09
-1.85197e-08
-3.9866e-09
-2.85867e-08
9.26618e-09
-2.93603e-08
-6.18506e-09
-1.56318e-08
-1.03963e-08
2.62897e-08
-5.41783e-08
-2.00609e-08
5.32826e-08
-5.24394e-08
3.93314e-08
-5.44285e-08
1.79918e-08
-7.99516e-08
1.59568e-08
-1.19558e-07
1.78728e-08
-1.47339e-07
2.29747e-08
-2.21852e-07
-2.39532e-08
-1.45599e-07
4.10518e-08
-1.49171e-07
1.11162e-08
-1.45534e-07
1.30065e-08
-1.61375e-07
2.01755e-08
-1.33356e-07
-3.86374e-09
-1.50849e-07
1.97206e-08
-1.78916e-07
3.43602e-09
5.79225e-08
4.27545e-08
-2.52899e-07
-6.53332e-08
-1.3498e-07
-1.79248e-08
-1.22696e-07
-1.26221e-08
-1.00313e-07
-1.29965e-08
-8.83806e-08
-6.91413e-09
-6.97584e-08
-4.9475e-09
-5.81522e-08
1.43322e-08
-4.76031e-08
2.26216e-08
-8.00251e-08
-3.00142e-08
-1.02123e-07
2.43881e-08
-5.1054e-08
3.18255e-08
-6.08769e-08
5.48278e-10
-1.58788e-07
-2.25118e-08
-6.54952e-08
1.32526e-08
-8.13368e-08
-8.44638e-09
-8.24699e-08
2.16997e-09
-8.95017e-08
-1.74208e-08
-8.73328e-08
1.35856e-08
-1.86986e-07
3.10148e-09
-6.1756e-08
1.55409e-08
-5.37721e-08
-1.72824e-08
-6.96769e-08
2.79923e-08
-5.41015e-08
1.20041e-09
-5.86318e-08
1.84934e-08
-4.89265e-08
-4.78622e-09
-6.16196e-08
2.46239e-08
-5.634e-08
1.85875e-08
-2.416e-08
4.78077e-08
-8.38399e-08
1.68675e-08
-1.03453e-07
8.79356e-09
-1.23067e-07
4.47609e-08
-1.76729e-07
2.76328e-08
-2.09788e-07
2.06178e-08
-2.33898e-07
2.63402e-09
-3.30044e-07
-2.93297e-08
-2.27417e-07
-2.00632e-08
-1.74771e-07
-7.61245e-08
-2.81435e-07
4.594e-08
-1.8623e-07
3.94976e-08
-1.73305e-07
1.34099e-08
4.35288e-08
-8.33343e-08
-5.75945e-12
-5.85931e-08
-7.89991e-08
1.13118e-09
-9.39309e-08
-4.11547e-08
2.98218e-08
-8.04092e-08
5.65707e-09
1.3413e-07
2.24221e-08
-7.83227e-08
-1.17102e-07
-1.25666e-07
-5.17052e-08
-1.09234e-07
-5.53627e-08
-2.16664e-07
-6.77814e-08
-1.20068e-07
-2.55706e-08
-1.24534e-07
-5.40411e-09
-1.50953e-07
1.2395e-08
-1.27585e-07
-1.61383e-08
-1.28277e-07
-1.99859e-09
-1.17864e-07
-3.72548e-09
-1.42769e-07
1.75052e-08
-1.71843e-07
1.65219e-08
3.21506e-08
8.83896e-08
-2.11297e-07
-4.87762e-08
-1.78039e-07
7.76643e-09
-1.68239e-07
8.2919e-09
-1.7448e-07
2.2198e-08
-1.54872e-07
-1.69949e-09
-1.52837e-07
2.04916e-08
-1.55517e-07
-1.83139e-08
-1.02816e-07
-1.16493e-08
-1.0583e-07
1.42745e-08
-9.83837e-08
5.42939e-09
-9.77114e-08
1.82939e-08
-9.27407e-08
-8.83437e-09
-9.26204e-08
1.96003e-08
-8.6695e-08
-2.45423e-09
-6.02347e-08
1.58581e-08
-1.08434e-07
-1.71338e-08
-8.86143e-08
-3.75445e-08
-8.38396e-08
-1.73969e-08
-8.65059e-08
-1.04628e-08
-7.72407e-08
-1.61795e-08
-6.73935e-08
-1.47948e-08
-7.42685e-08
2.1207e-08
-7.72493e-08
2.56023e-08
-1.27699e-07
2.19625e-08
-1.10017e-07
6.70529e-09
-7.31165e-08
-6.19727e-09
-6.67426e-08
-6.50663e-09
-9.68943e-08
7.6398e-09
-7.77029e-08
-4.8152e-09
-9.21053e-08
6.0421e-09
-8.33512e-08
-7.43456e-09
-1.03061e-07
2.28939e-09
-4.87402e-08
-3.96844e-08
-1.75602e-07
1.84852e-08
-7.59369e-08
2.79702e-08
-9.21553e-08
-2.0151e-09
-4.99491e-08
-1.40703e-08
-2.01635e-09
-4.67118e-08
-4.35476e-08
6.00246e-08
-5.23638e-08
3.57331e-09
-4.31502e-08
1.54103e-08
-2.31588e-08
-1.16777e-09
-8.49764e-09
3.28151e-08
-2.62335e-08
3.43445e-08
-3.92966e-08
2.20819e-08
-3.29422e-08
3.78992e-08
-3.82626e-08
3.30605e-08
-3.29716e-08
1.48823e-08
-7.24803e-08
4.05989e-08
-1.55099e-07
5.0696e-08
-2.31839e-07
5.29124e-08
-3.62661e-08
7.95435e-08
-2.91019e-07
-3.87767e-08
-2.18425e-07
-2.97585e-08
-1.35641e-07
-7.23407e-08
8.17404e-08
-9.58879e-08
2.24697e-08
-1.37813e-07
-1.53427e-08
1.43275e-07
2.97968e-09
-1.44504e-07
-2.73634e-08
-1.20076e-07
-1.90779e-08
-4.45185e-08
-5.33614e-08
-1.09213e-07
-5.51693e-08
-2.13403e-07
-6.31041e-08
-1.45383e-07
-7.96651e-09
-1.63802e-07
-4.86708e-08
-9.44638e-08
-9.68603e-08
-1.51166e-07
5.12986e-08
-1.45523e-07
8.168e-09
-1.46958e-07
-1.47025e-08
-1.39511e-07
-9.5638e-09
-1.25347e-07
-1.81117e-08
-1.39658e-07
3.16387e-08
-1.24205e-07
1.06885e-09
-8.8858e-08
5.07223e-08
-1.40929e-07
5.23022e-09
-1.24314e-07
-8.9262e-09
-1.27263e-07
9.87269e-09
-2.05326e-07
-1.11088e-08
-9.62383e-08
2.30257e-09
-8.17786e-08
3.98726e-09
-9.94889e-08
-1.43143e-09
-4.08002e-08
-7.01573e-08
-9.92595e-08
7.19995e-08
-1.09686e-07
1.60754e-08
-9.85293e-08
7.13742e-09
-9.56705e-08
-1.16931e-08
-8.00385e-08
3.96844e-09
-8.14176e-08
-1.07516e-09
-1.42061e-07
-3.67366e-08
-6.59065e-08
2.06222e-08
-8.58539e-08
-1.75972e-08
-8.74498e-08
-1.6677e-08
-9.4286e-08
-3.62666e-09
-7.47274e-08
-3.53772e-08
-3.37316e-08
-5.63657e-08
-7.54418e-08
6.29171e-08
-7.29161e-08
2.23325e-08
-1.79379e-07
1.41662e-08
-7.80974e-08
2.056e-08
-7.42032e-08
-1.00916e-08
-8.57558e-08
5.04584e-09
-8.40729e-08
5.87888e-09
-9.34591e-08
4.57085e-09
-8.5095e-08
-2.32208e-09
-8.95378e-08
-2.99187e-09
-8.55543e-08
-1.71754e-09
-5.19502e-08
-7.40439e-08
-1.02598e-07
6.9133e-08
-5.93485e-08
-1.49942e-08
-1.42783e-07
-3.0362e-08
-8.90279e-08
4.38263e-08
1.10478e-07
9.16529e-08
-1.13144e-07
-5.66097e-08
-1.15125e-07
5.55455e-09
-7.40925e-08
-2.44476e-08
-2.85806e-08
-4.63881e-08
-6.00953e-08
6.40147e-08
-6.68525e-08
3.98066e-08
-6.24568e-08
1.83298e-08
-4.86133e-08
2.46864e-08
-4.30751e-08
2.66522e-08
-3.77481e-08
1.00977e-08
-4.04164e-08
4.36483e-08
-2.70199e-08
3.62755e-08
-4.9796e-08
7.38736e-08
-5.14613e-08
7.90775e-08
-9.42459e-08
4.35858e-09
-1.21956e-07
-3.56093e-09
8.87032e-08
5.96016e-08
-6.35146e-08
-8.42921e-08
3.31081e-08
-6.50778e-08
-1.48758e-08
2.0972e-07
9.13011e-08
-8.27271e-08
-8.34671e-08
-1.54676e-07
-5.97572e-08
-8.82841e-08
-7.0591e-09
-1.21298e-07
-2.33921e-08
-1.48179e-07
-3.55723e-08
-1.35763e-07
-1.88713e-08
-1.64262e-07
-2.18464e-08
3.70491e-08
4.50444e-08
-1.84898e-07
-6.80636e-08
-1.5151e-07
-2.52201e-08
-1.48119e-07
-1.96039e-08
-1.6074e-07
1.40084e-09
-1.98468e-07
2.12741e-08
-1.55421e-07
-9.38308e-09
-1.52518e-07
-2.77808e-10
-1.13945e-07
1.21492e-08
-1.17498e-07
7.62092e-09
-1.04343e-07
-2.11073e-08
-1.05715e-07
1.11333e-08
-1.18932e-07
-1.81984e-10
-9.57088e-08
-1.97067e-08
-8.93267e-08
-4.85681e-10
-1.12455e-07
1.96737e-08
9.98841e-08
5.7934e-08
-1.08926e-07
-5.70072e-08
-8.10227e-08
-1.2818e-08
-5.16755e-08
-2.11671e-08
-5.68085e-08
-6.56006e-09
-4.15212e-08
-1.14354e-08
-6.31645e-08
2.05681e-08
-1.17646e-07
1.79276e-08
-5.56934e-08
-4.13302e-08
-5.09399e-08
-2.23027e-08
-5.86108e-08
-9.00615e-09
-5.99741e-08
-1.65163e-09
-1.11969e-07
1.56444e-08
1.02575e-07
7.11525e-08
-1.2811e-07
-4.71587e-08
-1.03704e-07
-3.13163e-09
-2.0485e-07
7.60351e-10
-9.20558e-08
2.28606e-08
-9.76683e-08
-4.52528e-09
-9.22128e-08
-4.09783e-10
-8.38657e-08
-2.46832e-09
-8.36197e-08
4.3247e-09
-8.99356e-08
3.99375e-09
-1.04574e-07
1.16467e-08
-1.39765e-07
3.20476e-08
4.69466e-08
8.33185e-08
-1.5602e-07
-6.80936e-08
-1.16997e-07
-5.40175e-08
-8.03812e-08
-6.68396e-08
-1.04521e-07
6.94643e-08
-2.96037e-08
1.58398e-08
-8.20162e-08
-4.45387e-09
-7.77174e-08
1.19902e-09
-1.0928e-07
7.11487e-09
1.25476e-07
5.72905e-08
-9.0979e-08
-5.51677e-08
-5.47341e-08
2.60678e-09
-4.18323e-08
5.24088e-09
-3.39462e-08
1.73984e-08
-2.9533e-08
2.22388e-08
-3.57313e-08
1.58917e-08
-3.75826e-09
1.2036e-08
2.75735e-08
4.66506e-09
1.02542e-07
-7.06876e-11
6.61113e-08
2.64172e-09
1.36079e-07
4.46593e-08
1.04818e-07
2.80152e-08
1.44012e-07
2.08644e-08
-2.19457e-08
-6.87624e-08
2.25759e-08
-6.97088e-08
4.531e-09
4.21579e-10
2.51941e-08
-6.12485e-08
-2.09708e-08
-8.41308e-08
-3.68745e-08
-6.03034e-08
-3.17444e-08
-4.85894e-08
-3.51058e-08
-6.53765e-08
-1.84219e-08
-6.42353e-08
-2.00121e-08
-7.73042e-08
-8.77709e-09
-4.11873e-08
8.04824e-09
-9.42223e-08
-1.50282e-08
-9.9846e-08
-1.86347e-08
-1.16354e-07
-3.12768e-09
-9.63278e-08
-1.8639e-08
-8.9869e-08
1.45988e-08
-1.00266e-07
1.01424e-09
-1.04489e-07
3.94528e-09
-7.74989e-08
-1.45675e-08
-6.39574e-08
-5.92023e-09
-8.38036e-08
-4.01751e-10
-4.95548e-08
-2.22773e-08
-4.45822e-08
-5.20443e-09
-4.55906e-08
-1.89491e-08
1.32902e-08
-5.92321e-08
3.70312e-08
-4.24411e-09
8.06167e-08
1.29496e-08
4.40617e-08
-2.06585e-08
5.23167e-08
-2.10268e-08
4.33474e-08
-1.17884e-08
3.67744e-08
8.38933e-10
2.6273e-08
-9.33918e-10
4.43689e-08
2.63009e-09
-4.14251e-08
-1.06837e-08
2.03394e-08
1.03586e-08
-4.44593e-09
2.48257e-09
-1.92019e-08
5.70445e-09
-2.93854e-08
8.23196e-09
-2.37746e-08
1.01948e-08
3.2982e-08
1.3772e-08
-2.52167e-08
1.10399e-08
-3.67089e-08
8.36042e-09
-8.78699e-08
5.281e-08
-4.05312e-08
-2.48876e-08
-3.72807e-08
-8.11003e-09
-3.55632e-08
-1.74705e-09
-4.98086e-08
1.17769e-08
-5.20764e-08
6.52585e-09
-6.7296e-08
1.92132e-08
-7.22342e-08
1.64174e-08
-7.25374e-08
3.12915e-08
-1.37006e-07
3.2523e-08
-1.14487e-07
2.40231e-08
-1.70717e-07
4.71296e-10
6.24236e-08
4.32351e-08
-1.47077e-07
-6.21781e-08
-1.0543e-07
-2.45578e-08
-7.57192e-08
-3.30995e-08
-7.92802e-08
4.02855e-09
-7.48596e-08
2.66709e-09
-1.13292e-08
-6.24e-09
-6.54726e-08
-9.19329e-10
-5.43544e-08
-8.42639e-09
-5.32377e-08
3.56963e-09
-4.82615e-08
1.22966e-08
-3.75838e-08
1.16688e-08
-3.24694e-08
1.11084e-08
-1.48912e-08
-5.54242e-09
-3.93239e-09
-6.46415e-09
7.88231e-09
-1.18863e-08
-1.49016e-08
2.55773e-08
1.38241e-08
1.63841e-08
2.24529e-08
1.98126e-08
3.54956e-08
8.03411e-09
1.66752e-08
-5.58259e-08
-8.01805e-09
-3.38491e-08
-3.73393e-09
-1.95255e-08
1.43138e-08
-1.62428e-08
-2.38587e-08
-1.77575e-08
-3.59014e-08
-2.44845e-08
-2.50171e-08
-3.30331e-08
-2.65568e-08
-3.34632e-08
-1.79914e-08
-3.98736e-08
-1.36013e-08
-3.52141e-08
-1.34361e-08
-3.25295e-08
5.364e-09
-5.59557e-08
8.55182e-09
-5.42086e-08
-2.09345e-08
-1.49115e-07
-2.26264e-08
-5.19861e-08
-1.00779e-09
-6.09257e-08
2.35387e-08
-5.95359e-08
-3.75128e-10
-1.20979e-07
-4.6615e-08
-3.77285e-08
1.41341e-08
-4.89815e-08
5.3929e-09
-3.9693e-08
-9.28898e-09
-2.39109e-08
-3.82981e-08
1.62927e-08
-4.61758e-08
-5.73722e-08
-5.813e-08
7.05182e-08
-7.57931e-08
4.95235e-09
6.20414e-08
-1.14116e-08
2.94459e-08
-4.06844e-08
8.49034e-09
-4.96245e-08
-1.29393e-08
-7.24419e-08
1.0161e-08
-6.72619e-08
-3.59434e-09
-6.9667e-08
2.84861e-09
-5.90166e-08
-8.02017e-09
-7.70175e-08
6.8241e-09
-5.01667e-08
-1.64922e-08
-3.46319e-08
-1.31612e-08
-3.76771e-08
8.74957e-09
-2.08608e-08
-8.58439e-09
-2.44628e-08
1.39422e-08
-1.70253e-09
-8.98834e-09
-6.05504e-09
1.52197e-08
1.92347e-08
-1.67585e-08
-3.82268e-08
-2.93673e-09
2.19968e-08
2.76484e-08
-4.26433e-10
1.4395e-08
-1.18016e-09
-9.97768e-10
-5.13747e-10
1.11156e-08
3.05643e-09
2.95558e-09
1.30979e-08
8.9776e-09
2.40592e-08
5.21307e-09
3.24267e-08
2.31668e-08
3.99351e-08
2.50135e-08
5.98507e-08
4.10747e-09
2.12642e-08
3.90577e-08
3.59016e-08
2.84467e-08
-1.03835e-08
-1.58931e-08
-6.66257e-09
-2.80283e-08
-2.97612e-08
-1.0752e-08
-2.09416e-08
-4.57525e-09
-1.81107e-08
4.75738e-11
-1.6106e-08
-8.51634e-09
-1.8459e-08
1.62184e-09
-2.21864e-08
-4.78415e-09
-1.68809e-08
-1.79006e-09
-1.17606e-08
7.29493e-09
-8.10377e-09
7.81415e-09
-1.90029e-08
2.19247e-08
-2.36888e-08
-1.15489e-09
-3.36882e-08
3.53511e-09
-1.8472e-09
-4.38309e-08
-4.99431e-08
7.3673e-08
-5.83847e-08
2.49922e-08
-4.62912e-08
7.71835e-09
-4.2348e-08
3.65857e-09
-1.03955e-09
-6.3499e-08
-2.24379e-08
-3.10593e-08
-1.80161e-08
-1.39187e-08
-2.42902e-10
-2.2881e-08
-1.49975e-08
-2.61285e-08
-3.26535e-08
-2.67804e-08
-2.43649e-08
-1.90829e-08
-3.42538e-08
-1.47645e-08
-2.23094e-08
-1.83863e-08
-9.97919e-09
-2.76335e-08
-4.23164e-09
-3.01316e-08
7.86247e-09
-2.63609e-08
4.73321e-09
-4.29391e-08
-4.35592e-09
-5.87467e-08
-6.5875e-09
-3.56809e-09
-5.6186e-08
-3.64893e-08
5.58902e-08
-2.64186e-08
-1.04454e-08
-1.14587e-08
-6.2091e-08
-2.80494e-08
3.08397e-08
-2.38222e-08
8.82814e-10
-1.905e-08
-1.42042e-08
-1.76412e-08
-4.02715e-08
-3.63357e-08
-2.76628e-08
-1.05925e-07
1.07493e-08
1.15183e-07
4.60081e-08
-5.09258e-08
-1.13901e-07
-8.1157e-08
5.88494e-08
-9.65575e-08
2.28958e-08
-1.07481e-07
-1.02026e-09
-1.10401e-07
1.40741e-08
-1.03087e-07
-9.72106e-09
-9.22278e-08
-8.09208e-09
-9.3814e-08
-7.4567e-09
-7.71356e-08
-9.95579e-09
-9.75509e-08
2.95807e-09
-9.27334e-08
-1.81659e-08
-7.84212e-08
-4.61662e-09
-7.47679e-08
-1.23639e-08
-7.05217e-08
9.69592e-09
-7.2503e-08
-6.35914e-09
-3.2878e-08
-2.38327e-08
-2.15874e-08
-2.84505e-08
-6.43176e-08
3.95753e-08
-1.38034e-08
-2.32844e-08
-1.233e-08
1.29363e-08
-1.85272e-08
5.25302e-09
-9.97428e-09
2.53671e-09
-8.88734e-09
1.98935e-09
-6.51112e-10
7.4128e-10
7.47724e-09
-2.86883e-09
6.26767e-09
2.46126e-08
5.69362e-09
2.55875e-08
-1.42878e-08
2.43371e-08