/*--------------------------------*- C++ -*----------------------------------*\
  =========                 |
  \\      /  F ield         | OpenFOAM: The Open Source CFD Toolbox
   \\    /   O peration     | Website:  https://openfoam.org
    \\  /    A nd           | Version:  12
     \\/     M anipulation  |
\*---------------------------------------------------------------------------*/
FoamFile
{
    format      ascii;
    class       volVectorField;
    location    "0.85";
    object      U.water;
}
// * * * * * * * * * * * * * * * * * * * * * * * * * * * * * * * * * * * * * //

dimensions      [0 1 -1 0 0 0 0];

internalField   nonuniform List<vector> 
3750
(
(-0.00351016 -0.0172354 0)
(-0.00694223 -0.00761269 0)
(-0.0041363 -0.00600978 0)
(-0.0032668 0.00288791 0)
(-0.00512021 0.0047004 0)
(4.66418e-05 0.010867 0)
(-0.0018788 0.00626085 0)
(0.000609403 0.0087949 0)
(-0.000273256 0.0107398 0)
(0.000664315 0.012853 0)
(-0.00195396 0.0106108 0)
(3.55123e-05 0.010636 0)
(0.000598689 0.013177 0)
(-0.000195384 0.0143212 0)
(0.0010698 0.0100198 0)
(0.00161585 0.010409 0)
(-0.00188554 0.00900995 0)
(0.000278657 0.00716689 0)
(0.000770607 0.00937098 0)
(0.00079463 0.00927869 0)
(-0.000260337 0.00941734 0)
(0.00019778 0.00975897 0)
(-0.000418017 0.00995577 0)
(-0.00117003 0.010445 0)
(-0.00138368 0.0120321 0)
(-0.0021232 0.013391 0)
(-0.000840723 0.012593 0)
(-0.00101971 0.0127788 0)
(-0.000645608 0.0120059 0)
(0.000574345 0.0140715 0)
(0.000835205 0.0141614 0)
(0.00160684 0.015312 0)
(0.000375063 0.0154717 0)
(0.0020947 0.0154559 0)
(0.000514352 0.014979 0)
(0.000234103 0.0151869 0)
(-0.000413509 0.0150606 0)
(0.000583424 0.0149469 0)
(-0.000715444 0.0152641 0)
(-0.000841345 0.014893 0)
(-0.00125423 0.0140106 0)
(0.000162552 0.0157969 0)
(-0.00134663 0.0187749 0)
(0.000385112 0.0195725 0)
(0.00216868 0.0191263 0)
(0.0016907 0.0174699 0)
(0.000480157 0.016844 0)
(0.000411599 0.0154446 0)
(0.000174588 0.0133447 0)
(-0.000327888 0.0116952 0)
(-0.000237901 0.0072464 0)
(-0.000484976 0.00523123 0)
(0.000169733 0.00622884 0)
(0.00168048 0.00680528 0)
(0.00174967 0.0095275 0)
(-7.53983e-05 0.00933818 0)
(0.000367637 0.00644501 0)
(0.000598548 0.00747113 0)
(-0.00135967 0.00944755 0)
(-0.000644236 0.0115915 0)
(-0.00140407 0.011555 0)
(0.000225632 0.0114374 0)
(-0.00285278 0.0153296 0)
(0.000846607 0.0139854 0)
(0.000691096 0.0117745 0)
(-0.00441846 0.00888771 0)
(0.000663146 0.00924971 0)
(-0.00179905 0.0117954 0)
(0.00068203 0.0114494 0)
(-0.00082203 0.0114605 0)
(-5.92876e-05 0.0113619 0)
(-0.00066883 0.0124006 0)
(0.000497226 0.0137096 0)
(-0.000105347 0.0123331 0)
(-0.000190287 0.0134874 0)
(0.00344134 -0.00572527 0)
(0.00245327 -0.00266438 0)
(-0.00760919 -0.00494991 0)
(-0.000619037 -0.00025229 0)
(-0.00223091 0.00490433 0)
(-0.00288522 0.00864511 0)
(-0.00209956 -0.00340122 0)
(-0.00241124 0.00207726 0)
(-0.00227775 0.00190826 0)
(-0.00422065 0.00363123 0)
(-0.00194271 0.00279161 0)
(-0.00365769 0.00679489 0)
(-0.00253847 0.00908142 0)
(-0.00487252 0.0113825 0)
(0.00391547 0.0117288 0)
(0.00415298 0.00811544 0)
(0.00200026 0.0077165 0)
(0.00345469 0.0107376 0)
(9.44269e-06 0.0126605 0)
(-0.000557501 0.011458 0)
(-0.00262709 0.0114614 0)
(-0.000392322 0.011625 0)
(0.000287479 0.0124537 0)
(-0.00132543 0.0123252 0)
(-0.00355902 0.0115916 0)
(0.0030165 0.0126353 0)
(0.00121584 0.0122005 0)
(3.70747e-05 0.0079815 0)
(0.000359086 0.00914573 0)
(-0.00129415 0.00842625 0)
(-0.000423663 0.00810368 0)
(-0.00152843 0.00773183 0)
(-0.000519815 0.0094491 0)
(-0.00132291 0.0115441 0)
(-0.000123153 0.0110049 0)
(-0.000274233 0.0122208 0)
(0.000799211 0.0104263 0)
(0.000255133 0.00838733 0)
(0.00151031 0.00687855 0)
(-0.000401876 0.00766193 0)
(-0.000782295 0.00797458 0)
(-0.00127881 0.00880334 0)
(-0.00406268 0.0137293 0)
(-0.00496231 0.0218364 0)
(0.000790188 0.0236318 0)
(0.00135272 0.0247503 0)
(0.00165786 0.0262372 0)
(0.00258347 0.0260015 0)
(0.00296031 0.0248587 0)
(0.00313797 0.0226028 0)
(0.0014546 0.0197483 0)
(0.000819463 0.0162798 0)
(-0.00114597 0.0163706 0)
(-8.15682e-05 0.016865 0)
(0.000660203 0.0177287 0)
(-0.000284173 0.0180339 0)
(0.000423416 0.0166402 0)
(0.00074023 0.0139724 0)
(-0.00234581 0.0125184 0)
(-1.61114e-05 0.0126955 0)
(-0.00198815 0.0132274 0)
(0.00273471 0.0140308 0)
(0.00313039 0.0217083 0)
(0.00102546 0.023233 0)
(0.00200457 0.0100995 0)
(-0.000713513 0.00811533 0)
(0.00155327 0.00835963 0)
(0.000324619 0.00692114 0)
(1.91824e-05 0.00837921 0)
(-0.000542119 0.007403 0)
(-0.000132742 0.00924914 0)
(0.00012435 0.0104142 0)
(-0.0013961 0.0122395 0)
(-0.00131464 0.00951545 0)
(-0.00196007 0.0121219 0)
(0.00287547 -0.0386077 0)
(-0.00199071 -0.000126664 0)
(-0.0031019 -0.00301213 0)
(-0.00438848 -0.000902618 0)
(-0.00287298 -0.00991904 0)
(-0.0102512 -0.00406462 0)
(-0.00384147 -0.00855116 0)
(-0.00351722 -0.00719527 0)
(-0.00305562 -0.0078185 0)
(-0.00160987 -0.00579715 0)
(-8.50444e-05 -0.00798418 0)
(-0.0020796 -0.0121204 0)
(-0.00348844 -0.0116594 0)
(0.000804087 -0.0027563 0)
(0.000257552 -0.000106435 0)
(0.000425092 -0.00900878 0)
(0.00128645 -0.00474449 0)
(0.000740631 -0.00395516 0)
(-0.0017214 -0.00151956 0)
(0.00303035 -0.00106601 0)
(-0.00109815 -0.00228912 0)
(8.58242e-05 -0.00168732 0)
(-9.47535e-05 -0.00259473 0)
(0.000323953 -0.00304081 0)
(-0.00165712 0.00663035 0)
(-0.000354964 0.00638866 0)
(-0.000443671 -0.00118646 0)
(-0.000856398 0.000984802 0)
(-9.18625e-05 0.00181277 0)
(0.00215535 0.00180298 0)
(-0.000735071 0.00143173 0)
(-0.00175918 0.00226226 0)
(0.00128527 0.0020984 0)
(-0.00137053 0.00044482 0)
(0.00113295 0.00106469 0)
(0.00222917 5.53665e-05 0)
(0.00303282 -0.0034319 0)
(0.0028548 -0.00239002 0)
(0.00120881 -0.00405727 0)
(-0.00270405 -0.00367666 0)
(-0.00306362 -0.000960295 0)
(-0.00828357 -0.000822414 0)
(-0.00710051 0.0015911 0)
(-0.00618405 0.0110464 0)
(-0.00482837 0.0116737 0)
(-0.00154161 0.0078652 0)
(-0.000544656 0.0106045 0)
(0.00210546 0.0135597 0)
(0.00304355 0.0153192 0)
(0.00683771 0.0170275 0)
(0.00239093 0.015443 0)
(0.00457804 0.013665 0)
(0.0015131 0.0116573 0)
(0.0012437 0.00890839 0)
(0.00206352 0.00836935 0)
(0.00210717 0.00817249 0)
(0.00203943 0.00719776 0)
(0.00124361 0.00279537 0)
(0.00151308 0.00253449 0)
(-0.00279534 0.00257239 0)
(-0.00247295 0.0037229 0)
(0.003952 0.00851158 0)
(0.00502046 0.00826727 0)
(-0.00522075 0.00970847 0)
(0.00235822 0.00672415 0)
(0.00397664 0.00186259 0)
(-0.000609757 0.00117323 0)
(-0.000192692 0.00135633 0)
(-0.00300031 0.000947742 0)
(-0.00159298 0.00221149 0)
(-0.0014861 0.00421078 0)
(-0.00175263 0.00403039 0)
(-0.0015119 0.00551591 0)
(-0.00148449 0.00618579 0)
(-0.00220623 0.00771107 0)
(0.00525137 -0.0152046 0)
(0.00466341 0.00169822 0)
(0.00104431 -0.00481046 0)
(-0.00600543 -0.00363608 0)
(-0.000375475 -0.00915668 0)
(-0.00207281 -0.00514446 0)
(-0.00236685 -0.00967984 0)
(-0.00267942 -0.0134058 0)
(-0.00284269 -0.0115241 0)
(-0.000538055 -0.00959352 0)
(-0.00371972 -0.0123671 0)
(0.000425588 -0.0125234 0)
(-0.000421916 -0.00980698 0)
(0.00175431 -0.00800544 0)
(-0.00672558 -0.0111595 0)
(-0.00462176 -0.0107244 0)
(-0.00424692 -0.0101804 0)
(-0.00252821 -0.0112937 0)
(0.000238813 -0.00514692 0)
(0.000535894 -0.00580008 0)
(7.99966e-05 -0.00788611 0)
(-0.000796606 -0.00396765 0)
(-0.00104236 -0.00445395 0)
(-0.000168997 -0.00399181 0)
(0.00227993 -0.00211895 0)
(-0.00680023 -0.000614244 0)
(-0.00181078 -0.00570195 0)
(-0.00227708 -0.00935641 0)
(-0.000337997 -0.00453913 0)
(-9.73727e-05 -0.00469594 0)
(-0.00230531 -0.00676234 0)
(-0.00190368 -0.00473902 0)
(-0.00123124 -0.00609147 0)
(-0.000306778 -0.00650359 0)
(0.00199342 -0.00732506 0)
(0.0014038 -0.00896747 0)
(0.00307893 -0.00752825 0)
(0.00433822 -0.00674638 0)
(-0.000136706 -0.00743957 0)
(-0.000416311 -0.00307773 0)
(-0.00584202 -0.00281721 0)
(-0.00745781 -0.00417662 0)
(-0.00718273 -0.000104022 0)
(0.00309587 -0.00100916 0)
(-0.00434677 -0.00507856 0)
(-0.00433789 -0.0086555 0)
(-0.00283057 -0.00767542 0)
(-0.00220079 -0.00595839 0)
(-0.000827335 -0.00206444 0)
(0.00333655 -0.00166162 0)
(0.0044534 -0.00186952 0)
(0.00547335 0.000173531 0)
(0.00193587 -0.00109938 0)
(-0.000414354 0.00168444 0)
(0.00431895 0.000132356 0)
(0.00259766 -0.00117882 0)
(0.000697725 -0.00135662 0)
(-0.00017521 -0.002184 0)
(-0.000787187 -0.00533932 0)
(0.000557917 -0.00718426 0)
(0.00133129 0.00278843 0)
(0.000967469 0.00166399 0)
(0.00393863 -0.00811953 0)
(0.000779263 0.00135379 0)
(0.00183183 0.00359215 0)
(0.000626011 -0.00462901 0)
(4.95395e-05 -0.00459949 0)
(-0.00104669 -0.00286753 0)
(-0.000119396 -0.00280551 0)
(-0.00191686 -0.00368409 0)
(-0.00216727 -0.00293976 0)
(-0.00279448 -0.00123696 0)
(-0.00157251 0.000487101 0)
(0.000599424 -0.00156896 0)
(-0.000145048 0.0092019 0)
(0.00680945 -0.00984499 0)
(0.00713607 0.00105299 0)
(-0.000699845 -0.00570076 0)
(-0.003154 0.000480706 0)
(-0.000402355 -0.0025478 0)
(-0.00328106 8.34009e-05 0)
(-0.00306688 -0.000591427 0)
(-0.0047109 0.00330267 0)
(-0.00115576 0.00255177 0)
(-0.00155082 0.0021111 0)
(-0.00299869 0.00158712 0)
(0.00233302 0.000684368 0)
(0.00320861 -0.00286479 0)
(-0.00172733 -0.00385699 0)
(-0.00272043 -0.00471122 0)
(-0.0031653 -0.00585598 0)
(-0.00413614 -0.00477419 0)
(-0.00485106 -0.00510244 0)
(0.00106268 -0.00463387 0)
(-0.0024091 -0.00410521 0)
(-0.0020573 -0.00315775 0)
(-0.000605239 -0.00137265 0)
(-0.00101702 -0.00385396 0)
(0.000363185 -0.00497826 0)
(0.000643943 -0.00629516 0)
(-0.00128235 -0.00515667 0)
(-0.00138744 -0.00816752 0)
(0.000752575 -0.0125668 0)
(0.0019 -0.0107948 0)
(-0.000472166 -0.0105386 0)
(0.000617489 -0.00863243 0)
(0.00034364 -0.00647409 0)
(0.000113202 -0.00789511 0)
(0.0018467 -0.00667012 0)
(0.00178061 -0.00515333 0)
(0.00272285 -0.00490534 0)
(0.00211086 -0.00223327 0)
(-0.00168105 -0.00218049 0)
(-0.00199416 0.000411723 0)
(-0.00224854 -0.00147824 0)
(-0.00710353 -0.00636332 0)
(-0.00193298 -0.00826416 0)
(-0.00389026 -0.001326 0)
(-0.00234998 -0.00246493 0)
(-0.00690874 -0.0113618 0)
(-0.00574147 -0.0110952 0)
(-0.0031329 -0.0113894 0)
(-0.00242979 -0.0141976 0)
(0.00242462 -0.0157934 0)
(0.00175345 -0.0111347 0)
(0.00454562 -0.00949689 0)
(0.000428994 -0.0103391 0)
(0.00135488 -0.00980211 0)
(0.00158049 -0.000236194 0)
(0.00128786 -0.00154842 0)
(0.00136978 -0.00946314 0)
(0.000708139 -0.0087797 0)
(0.000811452 -0.0102864 0)
(-2.51891e-05 -0.00799424 0)
(0.00323259 -0.00801565 0)
(0.0046001 -0.0111784 0)
(0.000421957 -0.00836758 0)
(0.00104491 -0.00937047 0)
(0.0058937 -0.00525209 0)
(-0.00424339 -0.00237452 0)
(-0.00120212 -0.00484369 0)
(0.000306739 -0.0043406 0)
(-0.000125184 -0.00225299 0)
(-0.0023411 -0.00118903 0)
(-0.00305664 -0.00201594 0)
(-0.0029121 -0.000682459 0)
(-0.0023584 -0.00182405 0)
(-0.00595669 0.000497709 0)
(0.00392171 -0.0013821 0)
(0.00390505 0.00870062 0)
(0.00982795 -0.012971 0)
(0.00392183 -0.00471413 0)
(-0.00335283 -0.00838208 0)
(-0.00360366 -0.00633412 0)
(-0.00321361 -0.0106501 0)
(-0.00562098 -0.00592728 0)
(-0.00563796 -0.00540771 0)
(-0.00602947 -0.00247902 0)
(-0.000229644 0.00193896 0)
(0.00570833 6.10378e-05 0)
(0.00361658 0.00289617 0)
(0.00195048 0.0046073 0)
(0.00149132 -0.00407623 0)
(-0.000581821 -0.004749 0)
(-0.0010935 -0.00291585 0)
(-0.00323798 -0.00300955 0)
(-0.00364036 -0.00624188 0)
(-0.00761101 -0.00380307 0)
(0.00258615 -0.00132994 0)
(9.01008e-05 -0.00892421 0)
(-0.00135568 -0.00791082 0)
(-0.000429043 -0.00575797 0)
(-0.00132503 -0.00798224 0)
(0.00238076 -0.00634356 0)
(-0.00104394 -0.00704136 0)
(0.00293843 -0.00593536 0)
(-0.00172513 -0.00553515 0)
(-0.000196119 -0.00422861 0)
(-0.00097099 -0.0013954 0)
(-0.00274708 -0.000951868 0)
(-0.00288475 -0.000931126 0)
(-0.00413422 0.00156109 0)
(-0.00355379 0.00290575 0)
(-0.00114795 0.00513365 0)
(-0.00177856 0.0078429 0)
(-0.000413009 0.00832979 0)
(0.000245368 0.00826722 0)
(-7.09957e-05 0.00787048 0)
(0.00111769 0.00465079 0)
(0.000804581 -0.00134869 0)
(0.00319564 -0.00395569 0)
(0.00382193 -0.00433709 0)
(0.0020876 -0.00278541 0)
(-0.00322296 -0.00484108 0)
(-0.0047967 -0.010458 0)
(-0.0014457 -0.011228 0)
(-4.58346e-06 -0.0143584 0)
(-0.000576788 -0.0152925 0)
(0.00397902 -0.0130681 0)
(0.00232145 -0.0126545 0)
(0.00222985 -0.0118736 0)
(0.00153127 -0.0108702 0)
(0.00492971 -0.00802284 0)
(0.00481144 -0.00539235 0)
(-0.00131009 -0.00543056 0)
(-0.000586751 -0.00630248 0)
(-0.000362006 -0.00645238 0)
(0.00301999 -0.00734209 0)
(0.004632 -0.00858882 0)
(0.00155252 -0.00904638 0)
(0.00302081 -0.00915876 0)
(0.00296907 -0.00986903 0)
(-9.17657e-05 -0.00837774 0)
(0.00202182 -0.00622096 0)
(-0.00799148 -0.00427652 0)
(-0.00171709 0.000928439 0)
(0.0031427 -0.00209048 0)
(-0.000700188 -0.00268366 0)
(-0.00465164 -0.00156844 0)
(-0.00394317 -0.00120744 0)
(-0.00258281 -0.00095747 0)
(-0.0021638 -0.00322523 0)
(-0.000631602 0.00613526 0)
(-0.00131494 0.00729163 0)
(0.00640834 0.000686026 0)
(0.00627048 -0.0153904 0)
(0.011154 0.00236217 0)
(-0.0012944 -0.00424175 0)
(-3.55918e-05 -0.0027062 0)
(-0.00137908 -0.00572955 0)
(-0.00333754 -0.00855132 0)
(-0.00461666 -0.0104751 0)
(-0.00502451 -0.000608205 0)
(-0.00280575 0.00748816 0)
(-0.00138429 0.00294211 0)
(0.00244473 -0.00297846 0)
(-0.00224563 0.000496629 0)
(-0.00113877 -0.00138836 0)
(1.45815e-05 -0.000581963 0)
(-0.00055028 -0.000104539 0)
(-0.00162221 -0.00172608 0)
(-0.0013528 -0.00465524 0)
(0.000316619 0.00398506 0)
(-0.00107305 0.00497832 0)
(-0.00257088 -0.00622475 0)
(1.54461e-05 -0.00471482 0)
(-0.00463455 -0.0020483 0)
(-0.00331224 -0.000211249 0)
(0.00210487 -0.000370345 0)
(0.000894364 -0.000868384 0)
(-0.000513047 0.000663363 0)
(-0.00124385 -0.000804871 0)
(-0.000433086 0.00184109 0)
(-0.00103182 0.00177425 0)
(-0.00302863 0.000744521 0)
(-0.0023802 -0.0015933 0)
(-0.00269382 -0.00372817 0)
(-0.00196399 -0.00713865 0)
(-0.00202043 -0.00834137 0)
(-0.00035729 -0.0107668 0)
(-0.000278933 -0.0119165 0)
(0.00151325 -0.011405 0)
(0.000690429 -0.0125918 0)
(0.00257549 -0.012621 0)
(0.00311356 -0.0130045 0)
(0.00307426 -0.0131992 0)
(0.00102315 -0.0124754 0)
(0.000616474 -0.00777344 0)
(-3.92753e-05 -0.00817095 0)
(0.000297987 -0.00942199 0)
(-0.000284891 -0.00856931 0)
(-0.00135702 -0.0130454 0)
(-0.000922652 -0.0107363 0)
(-0.00202863 -0.00998123 0)
(-0.00114075 -0.0101853 0)
(-3.71436e-06 -0.0101848 0)
(0.000252165 -0.00971432 0)
(0.000361506 -0.00773307 0)
(0.000890545 -0.00740142 0)
(-0.000689292 -0.00813647 0)
(-0.00026479 -0.00961737 0)
(-0.00173288 -0.00811763 0)
(0.00528866 -0.00932618 0)
(0.00438151 -0.0126205 0)
(0.00386173 -0.0135972 0)
(0.00179595 -0.0131232 0)
(-8.90619e-05 -0.0106818 0)
(0.0014803 -0.00860472 0)
(0.000854566 -0.0109957 0)
(-0.00101665 -0.00454119 0)
(-0.00268068 0.00785047 0)
(-0.00406328 -0.00245511 0)
(-0.00459429 -0.00903898 0)
(-0.00511111 -0.00552659 0)
(-0.00617204 -0.00396314 0)
(0.00150479 -0.00411853 0)
(-0.00196536 -0.00517883 0)
(0.00554796 -0.00361396 0)
(-0.00199359 0.000476475 0)
(-0.00193478 0.000776294 0)
(0.00815366 -0.0175425 0)
(0.00275476 0.000110199 0)
(-0.00348012 -0.0105904 0)
(0.00126817 -0.00204822 0)
(-0.00288374 -0.00490697 0)
(-0.00245182 -0.00197111 0)
(-0.000505649 -0.00403054 0)
(-0.00124489 -0.00263842 0)
(-0.0034815 0.000776862 0)
(-0.00556517 0.000426761 0)
(-0.00160068 -0.00204351 0)
(-0.00138994 -0.00112812 0)
(0.000548843 -0.000323625 0)
(-0.000143359 0.000108546 0)
(0.000377732 0.000383272 0)
(-0.00141839 0.00114488 0)
(-0.000515945 0.00219225 0)
(0.00166482 0.00584683 0)
(-0.00593976 0.00563468 0)
(-0.00296556 0.000692785 0)
(-0.000241126 -0.00129728 0)
(4.75643e-05 -0.0022979 0)
(-0.000768335 0.00633835 0)
(-0.000751545 0.00385743 0)
(0.000626588 -0.00362738 0)
(-0.000267269 -0.00239842 0)
(-0.00102078 -0.00248972 0)
(-0.00129306 -0.00333136 0)
(1.55774e-05 -0.00420809 0)
(0.000369972 -0.00288091 0)
(0.0023155 -0.003562 0)
(0.000599695 -0.00587412 0)
(0.000239966 -0.00796863 0)
(0.000637881 -0.00684059 0)
(0.00119738 -0.00563128 0)
(0.00308697 -0.00674282 0)
(0.000548392 -0.00935695 0)
(-0.00225815 -0.00835096 0)
(-0.000898204 -0.00497848 0)
(-0.000699027 -0.00927601 0)
(0.00145238 -0.0115051 0)
(0.00217496 -0.0110337 0)
(0.00470343 -0.00904721 0)
(-0.00110658 -0.011275 0)
(0.00262969 -0.0143649 0)
(-0.00261877 -0.0130072 0)
(-0.00172069 -0.0135903 0)
(-0.00222165 -0.0130035 0)
(0.000495706 -0.0115657 0)
(-0.000864669 -0.0104946 0)
(0.000735176 -0.0108817 0)
(0.00204905 -0.0115044 0)
(0.00160273 -0.00993627 0)
(0.0034738 -0.0108213 0)
(0.00217102 -0.0128426 0)
(0.00269914 -0.0136351 0)
(0.00192265 -0.00523978 0)
(0.00411803 -0.00297514 0)
(0.00211377 -0.00968399 0)
(2.58811e-05 -0.00876141 0)
(-0.000987287 -0.0086704 0)
(-0.00390099 -0.00560222 0)
(0.00460384 -0.00228656 0)
(0.00194882 -0.00683212 0)
(0.00218134 -0.00579733 0)
(-1.30319e-05 -0.000774837 0)
(-0.00936813 -0.00415885 0)
(-0.00296803 -0.00903318 0)
(-0.00414037 -0.0116635 0)
(-0.00297972 -0.00356003 0)
(-0.0010414 -0.00574247 0)
(0.00133285 -0.00640484 0)
(0.00268089 -0.00157289 0)
(0.00124711 -0.00888025 0)
(-0.00736462 -0.0099465 0)
(0.0030377 -0.0138054 0)
(-0.000668208 0.000881587 0)
(-0.00421598 -0.00578266 0)
(-0.00117881 -0.000932106 0)
(-0.0022113 -0.00620313 0)
(-0.00443471 -0.00134525 0)
(0.00097068 -0.00448977 0)
(0.00342411 -3.49533e-06 0)
(0.00141417 0.00417705 0)
(-0.00268654 0.00405981 0)
(-0.00239888 0.000824714 0)
(-0.00205749 0.00484499 0)
(-0.00174586 0.00575103 0)
(-0.00126844 0.00633687 0)
(-0.00140667 0.00613487 0)
(-0.00193172 0.00446322 0)
(-0.0012957 0.00447521 0)
(0.000196595 0.00387945 0)
(-0.00189351 0.0041936 0)
(0.000926502 -0.000273633 0)
(-0.00082985 -0.00291532 0)
(0.00197793 -0.00282079 0)
(0.00114116 -0.00183636 0)
(-0.00544326 -0.00191572 0)
(-0.00472197 -0.0043232 0)
(-0.000939934 -0.00490399 0)
(0.00186701 -0.00730991 0)
(0.000623036 -0.00707243 0)
(0.000464642 -0.0104158 0)
(-0.000958748 -0.0111314 0)
(0.00152849 -0.0124796 0)
(-0.000874634 -0.0134126 0)
(-0.000674764 -0.0105613 0)
(-0.00467009 -0.00915184 0)
(0.00209012 -0.0085259 0)
(0.00155812 -0.0094623 0)
(0.000511629 -0.010981 0)
(0.00267328 -0.00921348 0)
(0.000951209 -0.00789068 0)
(0.00250074 -0.00822808 0)
(0.0041893 -0.00789601 0)
(0.00463367 -0.00732882 0)
(0.00369209 -0.00953488 0)
(-0.000886744 -0.00992362 0)
(0.000102326 -0.0101995 0)
(-0.00148917 -0.0108319 0)
(-0.00231007 -0.0110393 0)
(-0.000387965 -0.00921485 0)
(-0.00120911 -0.00997519 0)
(-0.000810556 -0.0127845 0)
(-0.00226184 -0.00866015 0)
(7.81455e-05 -0.0100553 0)
(7.15797e-05 -0.00937956 0)
(0.00161717 -0.00938115 0)
(0.00294226 -0.00989162 0)
(0.00225916 -0.00922564 0)
(0.00454695 -0.0023263 0)
(-0.000996618 -0.0013717 0)
(0.00116953 -0.00679847 0)
(0.000425225 -0.00670389 0)
(0.00159174 -0.00867297 0)
(0.00107947 -0.000811842 0)
(0.000881813 -5.75279e-06 0)
(0.000629425 -0.0142267 0)
(0.00121115 -0.00986205 0)
(-0.00112041 -0.00825731 0)
(-0.00132377 -0.0147673 0)
(-0.00271903 -0.016407 0)
(-0.00183207 -0.0189587 0)
(0.00380965 -0.0143568 0)
(-0.00337685 -0.0120605 0)
(0.00401892 -0.012736 0)
(0.000305463 -0.0157224 0)
(-0.000690771 -0.0211023 0)
(-0.00225479 -0.0111858 0)
(0.00463723 -0.0122476 0)
(-0.00156844 0.00309389 0)
(-0.00185463 -0.00636775 0)
(-0.00266868 0.00137515 0)
(-0.00398873 -0.00482277 0)
(-0.00671287 0.00296424 0)
(0.00215151 0.00463397 0)
(0.000955842 -0.00226044 0)
(-0.00276153 -0.00484559 0)
(-0.00592638 -0.00220063 0)
(-0.00109184 -0.00137339 0)
(-0.00106944 0.000476652 0)
(-0.00266364 0.000443063 0)
(0.000654263 -0.00100311 0)
(-3.83718e-05 -0.00222679 0)
(0.00114309 -0.0024263 0)
(-0.00057335 -0.00226363 0)
(0.000372288 -0.00275772 0)
(-0.00258016 0.00055169 0)
(0.00224194 -0.000256811 0)
(0.00193822 -0.00208593 0)
(0.000349989 -0.00398692 0)
(0.00113501 -0.00768167 0)
(-0.000348948 -0.0114719 0)
(0.00118133 -0.0139662 0)
(0.000163914 -0.011968 0)
(0.00164084 -0.013422 0)
(0.00160771 -0.0152376 0)
(0.00248992 -0.0161682 0)
(0.0017965 -0.0127854 0)
(0.00164166 -0.0118977 0)
(0.00236689 -0.0136941 0)
(0.00229179 -0.0146938 0)
(-0.0003393 -0.00799776 0)
(-0.000466769 -0.0040276 0)
(-0.00218093 -0.0138023 0)
(-0.0010319 -0.0144708 0)
(-0.00121232 -0.0108422 0)
(-0.000103873 -0.00886872 0)
(-0.000503005 -0.00762173 0)
(0.000715964 -0.00833794 0)
(0.00193835 -0.00714984 0)
(0.00144459 -0.00666929 0)
(0.00209648 -0.00545803 0)
(-0.00062323 -0.00652423 0)
(7.71892e-05 -0.00833316 0)
(-0.0014351 -0.00646313 0)
(0.00119409 -0.0056148 0)
(-0.00238987 -0.00792679 0)
(0.000830884 -0.0087555 0)
(-0.00170446 -0.00903692 0)
(0.00158519 -0.00962746 0)
(0.000236026 -0.00835367 0)
(0.00270139 -0.00647941 0)
(0.000569616 -0.00921174 0)
(0.00183427 -0.00796506 0)
(0.000809727 -0.00500998 0)
(0.00139341 -0.00438654 0)
(0.000201474 -0.00533313 0)
(0.00220632 -0.00575482 0)
(0.00124582 -0.00501859 0)
(0.00623465 -0.00538379 0)
(-0.00203007 -0.00408447 0)
(0.000454833 -0.00982656 0)
(0.00476917 -0.0126558 0)
(0.00117102 -0.0105634 0)
(0.00181304 -0.0161292 0)
(-0.00206958 -0.0233649 0)
(-0.00215888 -0.0224641 0)
(-0.0037659 -0.0217905 0)
(-0.00442758 -0.0209158 0)
(0.00461239 -0.0158068 0)
(0.00323935 -0.0170743 0)
(0.00355835 -0.0199187 0)
(0.00581128 -0.0148714 0)
(0.000638249 -0.0139213 0)
(-0.0103639 0.00110318 0)
(-0.00679451 -0.00771552 0)
(0.00490671 0.00192147 0)
(-0.00123128 -0.00749454 0)
(-0.00182686 0.00498122 0)
(-0.00776184 0.00221872 0)
(-0.00890254 -0.00779304 0)
(-0.00286262 -0.011968 0)
(-0.0020289 -0.010662 0)
(-0.00173234 -0.0116179 0)
(0.000200937 -0.0148244 0)
(0.00165126 -0.0121322 0)
(0.000814767 -0.0112619 0)
(0.000404003 -0.0139678 0)
(0.00114366 -0.0130802 0)
(-0.000324987 -0.0113232 0)
(-0.000423774 -0.0141437 0)
(0.000428244 -0.00826361 0)
(-0.000442084 -0.00810532 0)
(0.00278267 -0.0177938 0)
(0.0015949 -0.0177265 0)
(0.0022604 -0.0171065 0)
(0.00443604 -0.0153981 0)
(0.00383055 -0.0150386 0)
(-0.00135743 -0.0145023 0)
(0.000157881 -0.0131489 0)
(0.000378995 -0.00977546 0)
(0.000566619 -0.00975889 0)
(0.00152404 -0.00848368 0)
(-0.00125743 -0.00825751 0)
(0.00061007 -0.00902605 0)
(-0.00242605 -0.00868178 0)
(0.00248868 -0.00677443 0)
(-0.00276845 -0.00772687 0)
(-0.00316942 -0.00986327 0)
(-0.00184694 -0.00999665 0)
(-0.00145207 -0.00846836 0)
(-0.000776689 -0.00759918 0)
(-0.00115073 -0.00880805 0)
(0.00255328 -0.00683242 0)
(0.00340495 -0.0074664 0)
(0.00114568 -0.00899299 0)
(0.00248565 -0.00854007 0)
(0.000333442 -0.00846875 0)
(-0.000496335 -0.00751049 0)
(0.000389643 -0.00788172 0)
(-0.00207794 -0.00759192 0)
(0.000507687 -0.00823233 0)
(-0.00075712 -0.0104305 0)
(-0.000526129 -0.00668011 0)
(-0.00112988 -0.00618 0)
(0.00186215 -0.00685034 0)
(2.686e-06 -0.00818314 0)
(-0.002063 -0.00954793 0)
(0.000979522 -0.00749436 0)
(-0.00356891 -0.00117677 0)
(0.00456809 -0.000702346 0)
(-0.000720076 -0.004648 0)
(0.00250602 -0.00438508 0)
(0.00134086 -0.00330904 0)
(0.00444478 -0.000749523 0)
(0.00273886 -0.00148177 0)
(0.00137543 -0.00249239 0)
(0.00426909 -0.00393123 0)
(0.00350453 -0.00207998 0)
(0.000905236 -0.00322153 0)
(0.00415567 -0.00465766 0)
(0.00269138 -0.0111465 0)
(0.00115836 -0.01726 0)
(-0.000248661 -0.0130497 0)
(0.000152394 -0.0162587 0)
(-0.00278754 -0.0249355 0)
(-0.0047217 -0.019461 0)
(0.00497946 -0.0108725 0)
(-0.0019566 -0.015975 0)
(-0.00232529 -0.00732546 0)
(-0.00432087 -0.00329998 0)
(-0.00339095 0.00425612 0)
(-0.00252705 -0.014306 0)
(-0.00134836 -0.00625964 0)
(-0.00723507 -0.00907463 0)
(-0.00339641 -0.0108563 0)
(-0.00162906 -0.012371 0)
(-0.00203804 -0.0162684 0)
(-0.00669013 -0.0139453 0)
(0.00175593 -0.0112426 0)
(0.000779704 -0.0128702 0)
(-0.00202287 -0.0153767 0)
(-0.00200801 -0.0140823 0)
(-0.00156128 -0.012328 0)
(0.00332497 -0.0123323 0)
(0.00214043 -0.0123314 0)
(0.00906589 -0.0111855 0)
(-0.000258002 -0.0102343 0)
(0.000772491 -0.0117967 0)
(0.000409855 -0.0141733 0)
(-0.00135751 -0.0107339 0)
(-0.00211715 -0.00964321 0)
(-0.000753117 -0.0116924 0)
(-0.00272002 -0.00778971 0)
(-0.00395282 -0.00550648 0)
(0.0041878 -0.00923828 0)
(0.000357125 -0.0109571 0)
(0.00134317 -0.0107998 0)
(-0.00075039 -0.00920417 0)
(0.00265125 -0.0110654 0)
(0.00126777 -0.0105114 0)
(0.00128949 -0.00628367 0)
(-0.00169387 -0.00591159 0)
(-0.00202166 -0.00875475 0)
(-0.001281 -0.00884829 0)
(-0.000378089 -0.00862115 0)
(-0.00349329 -0.00846165 0)
(-0.00374264 -0.00491429 0)
(0.00363499 -0.0047978 0)
(0.000979893 -0.00952258 0)
(-0.000990143 -0.00983939 0)
(0.000516024 -0.00823567 0)
(0.00135193 -0.010791 0)
(-0.000113063 -0.00998742 0)
(0.00110667 -0.00867122 0)
(0.000317542 -0.00846441 0)
(-0.000131993 -0.00856104 0)
(0.000189119 -0.00873077 0)
(0.000689674 -0.00812546 0)
(-0.00534029 -0.00605305 0)
(0.00325098 -0.00552841 0)
(0.00139048 -0.0091861 0)
(-0.000643472 -0.00727302 0)
(0.0022112 -0.00711776 0)
(0.00272124 0.000708124 0)
(-0.00145137 -0.000639256 0)
(0.00037978 -0.0102563 0)
(-0.00180069 -0.0073028 0)
(-0.00203989 -0.0068649 0)
(0.00440177 -0.00475386 0)
(0.0028717 -0.00654476 0)
(0.0017973 -0.00562969 0)
(0.0029133 -0.0056027 0)
(0.00285233 -0.00522153 0)
(0.00242543 -0.00261595 0)
(0.00462477 -0.00392883 0)
(0.00601114 -0.00246372 0)
(0.00914129 -0.00201914 0)
(0.00732302 -0.00499453 0)
(0.000102333 -0.00552179 0)
(-0.000594002 -0.0110057 0)
(-0.000185541 -0.00232894 0)
(0.00127118 -0.00198161 0)
(0.004598 -0.0140053 0)
(-0.000953221 -0.00564469 0)
(0.00523798 0.0110018 0)
(-0.00609286 0.00269636 0)
(-0.00196605 -0.00650395 0)
(-0.000800666 -0.00831645 0)
(-0.0020552 -0.0114432 0)
(-0.00340908 -0.0130612 0)
(-0.00333912 -0.0135642 0)
(-0.00469072 -0.0138294 0)
(-0.00266562 -0.0070395 0)
(-0.00172414 -0.00625725 0)
(-0.000936904 -0.01536 0)
(-0.00112766 -0.0156025 0)
(-0.000598953 -0.0161681 0)
(-8.89776e-05 -0.0143124 0)
(0.00102703 -0.014574 0)
(0.000510791 -0.013009 0)
(0.0016665 -0.010928 0)
(-0.000418679 -0.0130663 0)
(-0.00243227 -0.00967839 0)
(0.00197436 -0.0102736 0)
(0.00145039 -0.0108388 0)
(-0.000635025 -0.00940418 0)
(-0.000261307 -0.0091049 0)
(0.00143378 -0.0100027 0)
(0.000191007 0.00103165 0)
(0.00173241 -0.000712377 0)
(0.00080806 -0.00955324 0)
(3.33796e-05 -0.00733704 0)
(-0.000798654 -0.00528356 0)
(-0.00155746 -0.00399511 0)
(0.000396437 -0.00554381 0)
(-0.00156429 -0.00640271 0)
(-0.00160027 -0.00658887 0)
(-0.00300429 -0.00507176 0)
(-0.00224 -0.00504259 0)
(-0.000694507 -0.00698384 0)
(-8.74029e-05 -0.00664319 0)
(0.00122192 2.91775e-05 0)
(0.000383232 -0.00133953 0)
(0.00148245 -0.0133517 0)
(0.00213824 -0.0119833 0)
(0.000218126 -0.00928907 0)
(-0.00112457 -0.0114605 0)
(0.000999603 -0.0108186 0)
(-0.00104576 -0.00898393 0)
(0.000772615 -0.00828651 0)
(-0.000329594 -0.00770136 0)
(-0.000281775 -0.00888194 0)
(-0.000235885 -0.0123122 0)
(-0.00152411 -0.00519638 0)
(0.000752358 -0.00304959 0)
(-0.00173971 -0.0148515 0)
(-0.00260584 -0.0118024 0)
(0.00328179 -0.00661688 0)
(0.00467958 -0.00663711 0)
(-0.00176465 -0.00421179 0)
(0.00137595 -0.00700823 0)
(-0.000216211 -0.00844596 0)
(0.000452987 0.00124664 0)
(0.000567031 0.00128595 0)
(0.00229134 -0.00743561 0)
(0.00158394 -0.00550748 0)
(0.00123799 -0.00339649 0)
(0.00236656 -0.00330672 0)
(0.00088899 -0.00307966 0)
(0.00239574 -0.000830424 0)
(0.0020827 0.000907366 0)
(0.00180426 0.00313508 0)
(0.00288553 0.00744199 0)
(0.00147618 0.00974679 0)
(0.00205304 0.00826284 0)
(0.00484539 0.0122534 0)
(-0.00314019 0.0124662 0)
(0.00237759 -0.0132842 0)
(-0.0028168 -0.00263245 0)
(0.00588577 -0.0063282 0)
(-0.00218565 -0.00037393 0)
(-0.00233099 -0.00706168 0)
(-0.00251356 -0.00559709 0)
(-0.00351919 -0.00713124 0)
(-0.0037366 -0.00527904 0)
(-0.00229486 -0.00606176 0)
(-0.00135323 -0.00847939 0)
(0.00213141 -0.00713214 0)
(-0.00416137 -0.00599664 0)
(-0.00174484 -0.00875521 0)
(-0.00253839 -0.0109338 0)
(0.0010012 -0.00998925 0)
(0.00252104 -0.00899982 0)
(-0.000729242 -0.00890931 0)
(0.000317061 -0.00890811 0)
(0.000779871 -0.00870624 0)
(0.000204275 -0.00983634 0)
(-0.000215975 -0.00521446 0)
(-0.000868102 -0.00525637 0)
(-0.001304 -0.00698035 0)
(-0.00303564 -0.00302323 0)
(-0.00177108 -0.00158437 0)
(0.000418231 0.00156896 0)
(0.00326308 0.00607386 0)
(-0.00465149 0.006329 0)
(-0.00129187 0.00482164 0)
(-0.00260383 0.00504561 0)
(0.000286172 0.00380243 0)
(-0.00141555 0.00283035 0)
(0.00124501 0.000151192 0)
(-0.000919996 -9.142e-06 0)
(0.000107846 -0.00037365 0)
(0.000120509 -0.0029902 0)
(-0.00046896 0.000155247 0)
(0.000529199 0.000246526 0)
(0.00158611 -0.00175283 0)
(0.00358109 0.0014398 0)
(-0.0028779 -0.0001374 0)
(-0.000787787 -0.00345616 0)
(0.000516484 -0.00572035 0)
(0.000241428 -0.00583734 0)
(-0.000473007 -0.00524863 0)
(-0.000552868 -0.0037518 0)
(0.000757172 -0.00476737 0)
(0.000512731 -0.00421739 0)
(0.00136242 -0.00626435 0)
(0.00195023 -0.00721048 0)
(0.00359071 -0.00913804 0)
(0.00546383 -0.00519517 0)
(-0.00273977 -0.00758673 0)
(-0.00209771 -0.0159985 0)
(1.79064e-05 -0.00668671 0)
(-0.00109288 -0.00619408 0)
(-0.000970039 -0.0103334 0)
(-0.0027616 -0.00759072 0)
(-0.00153715 -0.00927322 0)
(0.000360942 -0.00683099 0)
(0.00234999 -0.00456636 0)
(-0.00341735 -0.0034076 0)
(-0.000154707 -0.00559033 0)
(0.000319974 -0.00613845 0)
(0.00200839 -0.00500903 0)
(0.000584761 -0.00524309 0)
(0.000287645 -0.00195393 0)
(-0.000403118 -0.00100144 0)
(-0.00162794 -0.00147671 0)
(-0.000455498 -3.4785e-05 0)
(0.00263782 -0.000567358 0)
(0.00117189 0.000485547 0)
(0.00166377 0.00066791 0)
(0.000430666 0.00245946 0)
(-0.00219367 0.00161885 0)
(0.00130808 -0.0126526 0)
(0.00278285 -4.26491e-05 0)
(0.00229034 -0.00464728 0)
(-0.00456153 -0.000569596 0)
(-0.00463131 -0.00256061 0)
(-0.00291211 -0.000662068 0)
(-0.00270998 -0.00257485 0)
(-0.00115028 -0.00247197 0)
(-0.00153926 -0.00280936 0)
(-4.31099e-05 -0.00268719 0)
(0.000762307 -0.0023757 0)
(6.60486e-05 -0.00366193 0)
(-0.00225673 -0.00701952 0)
(-0.00139638 -0.00595188 0)
(-0.00150808 -0.00438367 0)
(0.00119015 -0.00715914 0)
(0.00051079 -0.00871561 0)
(-0.00191609 -0.0032352 0)
(0.00114793 -0.00354321 0)
(0.000296877 -0.00680698 0)
(-0.000472019 -0.00235402 0)
(-0.00318802 -0.00253071 0)
(-0.00358248 -0.00404477 0)
(-0.00307046 -0.00107674 0)
(-0.00535169 0.00149864 0)
(0.0027072 0.000217676 0)
(0.00172594 -0.000529836 0)
(-0.00119742 -0.00217825 0)
(-0.00231982 -0.00497725 0)
(-0.000416156 -0.00550395 0)