/*--------------------------------*- C++ -*----------------------------------*\
  =========                 |
  \\      /  F ield         | OpenFOAM: The Open Source CFD Toolbox
   \\    /   O peration     | Website:  https://openfoam.org
    \\  /    A nd           | Version:  12
     \\/     M anipulation  |
\*---------------------------------------------------------------------------*/
FoamFile
{
    format      ascii;
    class       volVectorField;
    location    "0.85";
    object      U.water_0;
}
// * * * * * * * * * * * * * * * * * * * * * * * * * * * * * * * * * * * * * //

dimensions      [0 1 -1 0 0 0 0];

internalField   nonuniform List<vector> 
3750
(
(-0.00286595 -0.0183605 0)
(-0.00650177 -0.0102044 0)
(-0.00312581 -0.00947356 0)
(-0.00370997 -0.000204415 0)
(-0.00303651 -0.000827114 0)
(-0.00300167 0.00621756 0)
(-0.00241362 0.0050046 0)
(0.00135017 0.00748672 0)
(0.000648937 0.00887705 0)
(0.00154965 0.010187 0)
(-0.00120505 0.0109656 0)
(0.00138941 0.0138859 0)
(0.00158697 0.0152633 0)
(0.000611821 0.0148252 0)
(-5.81203e-05 0.0121943 0)
(-0.00261323 0.0136194 0)
(-0.00913947 0.00673377 0)
(-0.00234709 0.00212514 0)
(0.00015491 0.00694334 0)
(0.000198154 0.00860856 0)
(-0.000605846 0.00923358 0)
(1.17402e-05 0.0100555 0)
(-0.000425367 0.0105098 0)
(-0.000989125 0.0108354 0)
(-0.00119575 0.0112315 0)
(-0.00269221 0.0109689 0)
(-0.000847676 0.0105344 0)
(-0.00110088 0.0121556 0)
(-0.000698503 0.0123476 0)
(0.000555888 0.0146742 0)
(0.0008389 0.0148463 0)
(0.00160351 0.0160758 0)
(-1.73524e-05 0.0164871 0)
(0.00186943 0.0164727 0)
(0.000581405 0.0160167 0)
(0.000269233 0.0166952 0)
(-0.000467555 0.0170457 0)
(0.000390276 0.0175669 0)
(-0.00117408 0.0180912 0)
(-0.00090245 0.0175424 0)
(-0.00102155 0.0162052 0)
(0.000501361 0.016801 0)
(-0.000711556 0.0167231 0)
(0.000974131 0.0166524 0)
(0.000681926 0.0191052 0)
(0.00120362 0.0194231 0)
(0.000586349 0.019244 0)
(0.00077624 0.017321 0)
(0.000889065 0.0141206 0)
(0.000947197 0.0104313 0)
(0.00230549 0.0064888 0)
(0.00246529 0.015878 0)
(-0.00301319 0.0158033 0)
(-0.000788263 0.00487423 0)
(0.00108741 0.00670357 0)
(-0.000610285 0.00831255 0)
(-0.000235083 0.00627878 0)
(-0.000525025 0.00907358 0)
(-0.00267194 0.012922 0)
(0.00074325 0.015303 0)
(-0.000203988 0.0135697 0)
(0.00120781 0.0116254 0)
(0.000345331 0.0113115 0)
(-0.0013654 0.00959212 0)
(5.58094e-05 0.0102412 0)
(-0.00475263 0.00810786 0)
(1.80426e-05 0.00928865 0)
(-0.00214099 0.0103329 0)
(0.000876801 0.00975983 0)
(-0.000155232 0.0111238 0)
(0.000117947 0.0105955 0)
(-0.000282944 0.00978666 0)
(0.000360752 0.0110096 0)
(0.000101787 0.0109647 0)
(-0.000377273 0.0124681 0)
(0.00504998 -0.00600678 0)
(0.00397545 -0.00445499 0)
(-0.00295639 -0.00983812 0)
(-0.00573896 -0.00220569 0)
(-0.00490161 -0.00315038 0)
(-0.0033021 0.00139646 0)
(-0.000329629 -0.000853202 0)
(-0.000413908 0.00217974 0)
(-0.000378355 0.000193929 0)
(-0.000882347 0.000778414 0)
(0.00589503 0.0035377 0)
(-0.000541047 0.0102071 0)
(-0.00052093 0.0106022 0)
(-0.00117305 0.0097089 0)
(-0.000904863 0.00881903 0)
(-0.00188575 0.00509041 0)
(-0.00616299 0.00698245 0)
(-2.37962e-05 0.0124386 0)
(-0.00130262 0.0122321 0)
(-0.00142192 0.0110216 0)
(-0.0034625 0.0116892 0)
(-0.000858377 0.0122231 0)
(0.000145665 0.0132816 0)
(-0.000833815 0.0128708 0)
(-0.000608647 0.0100412 0)
(-0.00185854 0.0100309 0)
(-0.000163349 0.0105566 0)
(-0.000105171 0.00754427 0)
(0.000546618 0.00951268 0)
(-0.00149293 0.00908078 0)
(-9.99438e-05 0.00888257 0)
(-0.0014413 0.00814789 0)
(-0.000382821 0.0102991 0)
(-0.00173367 0.0129497 0)
(-0.00047849 0.0121925 0)
(-0.000365081 0.0135514 0)
(-8.56133e-05 0.0123538 0)
(-0.000898999 0.0106911 0)
(0.00113791 0.0098513 0)
(-0.000370803 0.0110655 0)
(0.000456962 0.0105327 0)
(0.000141975 0.0101268 0)
(-0.00229627 0.0120079 0)
(-0.000127411 0.0167509 0)
(-0.00372382 0.0225635 0)
(0.00127115 0.0282351 0)
(0.00227555 0.0294669 0)
(0.00359315 0.0284387 0)
(0.00470701 0.0265255 0)
(0.00646938 0.0232091 0)
(0.00553802 0.0206149 0)
(0.00502049 0.0209332 0)
(-0.00533061 0.0209658 0)
(-0.00347258 0.0172768 0)
(-0.00099572 0.016752 0)
(-0.00148603 0.0170732 0)
(-0.000650013 0.0159233 0)
(-0.00169766 0.0148722 0)
(-0.00632606 0.0186355 0)
(0.00218976 0.0188691 0)
(0.00122837 0.0148233 0)
(0.00289413 0.0160146 0)
(0.00317249 0.0145622 0)
(0.00208029 0.0149945 0)
(0.00243846 0.0104408 0)
(0.00019226 0.00754028 0)
(0.00213049 0.00848048 0)
(0.000255058 0.00625819 0)
(0.000605154 0.00755861 0)
(2.41441e-05 0.00701051 0)
(0.00041783 0.00822115 0)
(0.000588194 0.00762582 0)
(-0.000495243 0.00925637 0)
(-0.000968269 0.0081289 0)
(-0.00236924 0.010254 0)
(0.00311223 -0.0403574 0)
(1.60056e-05 0.000414452 0)
(-0.00324077 -0.0135413 0)
(-0.00668422 -0.0114094 0)
(-0.00823606 -0.0107817 0)
(-0.00869591 -0.00425575 0)
(0.000413581 -0.00731397 0)
(-0.00123734 -0.00837628 0)
(-0.00119487 -0.00839416 0)
(0.00204031 -0.00268837 0)
(0.00591527 -0.00776944 0)
(-0.000275108 -0.0146705 0)
(-0.00315728 -0.0092083 0)
(0.00106615 -0.00914354 0)
(-0.000108842 -0.00779954 0)
(-0.000201474 -0.00887552 0)
(0.00259876 -0.00460629 0)
(8.93334e-05 -0.00260332 0)
(-0.00268099 -0.00125 0)
(0.0025727 -0.00120818 0)
(-0.00176947 -0.00204619 0)
(-0.000779299 -0.000785431 0)
(-0.000930754 -0.00116884 0)
(-0.000582366 0.000418019 0)
(-0.00245683 0.000462726 0)
(-0.00165253 -0.000464736 0)
(-0.000653954 0.00142503 0)
(-0.000831677 0.00198372 0)
(0.000900948 0.00204997 0)
(0.00234879 0.00253461 0)
(-0.000476462 0.00246038 0)
(-0.00156454 0.0029235 0)
(0.00166255 0.0026369 0)
(-0.00156418 0.00106343 0)
(0.000615205 0.00252477 0)
(0.00151093 0.00111128 0)
(0.00190754 -0.00235779 0)
(0.00117955 0.000812902 0)
(-0.000186707 -0.000115405 0)
(-0.00200533 0.000562635 0)
(-0.000836308 0.00266787 0)
(-0.00680199 0.000713288 0)
(-0.00437789 0.00303459 0)
(-0.00297198 0.00165774 0)
(0.000718947 0.00625836 0)
(0.000906573 0.0149421 0)
(0.000743127 0.0141737 0)
(0.00317595 0.0165076 0)
(0.00443066 0.0183224 0)
(0.0103876 0.0181412 0)
(0.00393359 0.0156166 0)
(0.00606317 0.0157359 0)
(0.000150788 0.0139635 0)
(0.000343934 0.00928225 0)
(-6.38537e-05 0.00772099 0)
(0.00068867 0.00774127 0)
(0.00133573 0.00582453 0)
(0.000436317 0.00157347 0)
(-0.000130995 0.0111062 0)
(-0.00526479 0.013 0)
(0.00289609 0.00384 0)
(4.32101e-05 0.00541059 0)
(0.000466045 0.00513806 0)
(0.00117903 0.00560616 0)
(0.000584244 0.00495373 0)
(0.00582191 0.00126467 0)
(0.000964556 0.000258623 0)
(0.000215327 -0.000134372 0)
(-0.0017792 -0.000159486 0)
(-0.000870175 0.00173296 0)
(-0.000719701 0.00327817 0)
(-0.00127293 0.00173369 0)
(0.000914181 0.00260945 0)
(-0.000265171 0.00352527 0)
(8.11353e-05 0.00348124 0)
(0.00308898 -0.0163209 0)
(0.00706188 -0.00322379 0)
(-0.00435785 -0.0140505 0)
(-0.00386599 -0.0105775 0)
(-0.00128672 -0.0134579 0)
(-0.00217919 -0.00277321 0)
(-0.00179133 -0.00663522 0)
(-0.00127586 -0.0157734 0)
(-0.00169575 -0.0119401 0)
(6.46184e-06 -0.00824229 0)
(-0.00673758 -0.0135821 0)
(-0.00171683 -0.0150165 0)
(-0.00120452 -0.0096612 0)
(-0.00140287 -0.0103315 0)
(-0.00228788 -0.0149862 0)
(-0.00249484 -0.0121645 0)
(-0.00173284 -0.0109357 0)
(-0.0015069 -0.0119592 0)
(0.000315529 -0.00527701 0)
(-0.000782314 -0.00595554 0)
(-0.00101889 -0.00813514 0)
(-0.00163267 -0.00354494 0)
(-0.00243027 -0.0036031 0)
(-0.00246528 -0.00341295 0)
(-0.00248327 -0.00402945 0)
(-0.00293724 -0.00269337 0)
(0.000553679 -0.00594831 0)
(-0.000543067 -0.00860013 0)
(0.000923776 -0.00401568 0)
(0.000627388 -0.00492872 0)
(-0.00253492 -0.00602365 0)
(-0.00198648 -0.00417312 0)
(-0.0014496 -0.00563356 0)
(-0.000359056 -0.0058694 0)
(0.00182564 -0.00653545 0)
(0.000488609 -0.00823278 0)
(0.00214561 -0.0066681 0)
(0.00216664 -0.00483508 0)
(-0.00406046 -0.00230678 0)
(0.0015178 0.00407424 0)
(-0.00400951 0.000531162 0)
(-0.00497889 -0.00216906 0)
(-0.00170377 -0.000242908 0)
(-0.000694439 -0.00363844 0)
(0.00505679 -0.0070052 0)
(-0.00087205 -0.00915063 0)
(-0.00121596 -0.00598237 0)
(-0.00169236 -0.00341631 0)
(-0.000901477 0.00209668 0)
(-0.000324234 -0.000881741 0)
(0.00273218 -0.00317067 0)
(0.00513928 0.00171839 0)
(0.00200867 0.00120405 0)
(0.00252607 0.00132716 0)
(-0.000169197 -0.00134409 0)
(0.00109584 -0.000669738 0)
(0.000546966 -0.0014485 0)
(0.00142742 -0.00215062 0)
(0.00239647 -0.00129305 0)
(-0.00308939 0.00644802 0)
(-0.00217141 0.00303012 0)
(-0.00207063 -0.00617967 0)
(0.000874708 -0.00496651 0)
(-0.000196106 -0.00404852 0)
(0.00460165 -0.000634251 0)
(0.00198101 -0.00213546 0)
(6.46668e-05 -0.00594672 0)
(-0.00129385 -0.00389018 0)
(0.000906172 -0.00323659 0)
(-0.00113726 -0.00460702 0)
(-0.00157734 -0.0042319 0)
(-0.00130366 -0.00242563 0)
(0.000819409 -0.00182474 0)
(0.00184279 -0.00327089 0)
(0.00313929 -0.00188373 0)
(-0.00126003 -0.00770826 0)
(-0.00299687 -0.00541265 0)
(-0.00649813 -0.0154786 0)
(-0.00506545 -0.00548341 0)
(-0.00169356 -0.00576563 0)
(-0.00259317 0.00129276 0)
(-0.00494088 0.00217717 0)
(-0.00270378 0.00272974 0)
(-0.000218864 0.00111846 0)
(-0.00349916 0.00111598 0)
(-0.00475876 -0.000778423 0)
(-0.00547027 0.000523256 0)
(0.00348325 -0.00132652 0)
(-0.00135073 -0.00502177 0)
(-0.000908088 -0.00693744 0)
(-0.00163171 -0.00761313 0)
(-0.00263213 -0.00573761 0)
(-0.00353344 -0.00616245 0)
(0.000369993 -0.00672168 0)
(-0.0041763 -0.00539706 0)
(-0.00385345 -0.00249259 0)
(-0.00163343 -0.000724097 0)
(-0.00221854 -0.00378626 0)
(-0.00193116 -0.00484036 0)
(-0.00160624 -0.00628746 0)
(0.000521206 -0.00469528 0)
(0.000806013 -0.00757588 0)
(0.00276425 -0.0126248 0)
(0.00193889 -0.0116247 0)
(0.000627422 -0.0113963 0)
(0.000511587 -0.00840172 0)
(6.42705e-05 -0.00578383 0)
(-0.000196974 -0.00728307 0)
(0.00161638 -0.0060781 0)
(0.00145601 -0.00464731 0)
(0.00226174 -0.00462645 0)
(0.00134558 -0.00252247 0)
(-0.00266603 -0.00212233 0)
(-0.00317204 0.0084642 0)
(-0.00412573 0.00798491 0)
(-0.0106643 -0.00225129 0)
(0.000357458 -0.0029053 0)
(-0.00191911 -0.00612976 0)
(-0.00208056 -0.00803835 0)
(-0.00548753 -0.00947517 0)
(-0.00417621 -0.0119072 0)
(-0.0017923 -0.0108191 0)
(-0.00222382 -0.0126511 0)
(0.00106355 -0.0170046 0)
(-0.00402994 -0.011605 0)
(0.00272802 -0.00581308 0)
(-0.000465456 -0.00662206 0)
(0.00099268 -0.00414524 0)
(0.00110243 -0.00427147 0)
(0.000985363 -0.0066296 0)
(0.00152156 -0.00548802 0)
(0.00129927 -0.00702326 0)
(0.00298027 -0.00818206 0)
(0.00395296 -0.00502331 0)
(0.00343099 -0.00426298 0)
(-0.00467857 -0.0105006 0)
(-0.000941603 -0.0106524 0)
(-0.00233446 -0.0105573 0)
(0.00358303 -0.00352313 0)
(0.00215486 -0.00173047 0)
(-0.000792865 -0.00814327 0)
(-0.00161777 -0.00692905 0)
(-0.000966587 -0.00266359 0)
(-0.00216214 -0.00131799 0)
(-0.00242104 -0.00287925 0)
(-0.00203439 -0.000866149 0)
(-4.6853e-05 -0.00226743 0)
(-0.00125818 -0.00264043 0)
(0.000984684 -0.00318324 0)
(0.000718893 -0.00100184 0)
(-0.00328468 -0.0130522 0)
(-0.0142726 -0.00577233 0)
(-0.0113187 -0.0111826 0)
(-0.00742716 -0.00903637 0)
(-0.00527032 -0.0122666 0)
(-0.00711157 -0.00429395 0)
(-0.00857 -0.00109111 0)
(-0.000450584 -0.00195123 0)
(0.000278328 -0.00230313 0)
(3.62751e-05 -0.0011057 0)
(0.00119005 -0.00414147 0)
(0.000527267 0.00422454 0)
(0.000785769 0.00403019 0)
(-0.000710733 -0.00559549 0)
(-0.000719803 -0.00550463 0)
(-0.00229626 -0.00469762 0)
(-0.0019842 -0.00716769 0)
(-0.00366889 -0.00664221 0)
(-0.00178548 -0.00456952 0)
(-0.0015491 -0.0101288 0)
(-0.00341222 -0.00728853 0)
(-0.00185854 -0.00477361 0)
(-0.000671018 -0.00839631 0)
(-0.000515449 -0.00678229 0)
(-0.0044395 -0.00495169 0)
(0.0058143 -0.00357021 0)
(0.000335023 -0.00557842 0)
(0.000456547 -0.00569529 0)
(-0.00095353 -0.00184995 0)
(-0.00219812 -0.00124735 0)
(-0.00286895 -0.00156393 0)
(-0.00446956 0.0018942 0)
(-0.00394739 0.00338062 0)
(-0.00126193 0.00574206 0)
(-0.00192723 0.00841248 0)
(-0.000697874 0.00862822 0)
(-0.000268335 0.0086094 0)
(0.000100715 0.00941435 0)
(0.00392626 0.00886196 0)
(-0.00287988 0.00325424 0)
(-0.0021469 0.00403972 0)
(0.000344469 0.00295022 0)
(-0.00332783 -0.0048588 0)
(0.000358816 -0.00798753 0)
(-0.00344068 -0.0110617 0)
(-0.00056544 -0.0117964 0)
(0.00132343 -0.0139095 0)
(5.46628e-05 -0.0155177 0)
(0.00351734 -0.0147781 0)
(0.00394332 -0.0121314 0)
(0.00279065 -0.0083538 0)
(0.00107696 -0.0077722 0)
(0.00385432 -0.00533067 0)
(0.000943466 -0.00571089 0)
(0.0027507 -0.0063005 0)
(0.00117236 -0.00490574 0)
(0.00048607 -0.00458472 0)
(0.00234231 -0.00393885 0)
(0.00742672 -0.00641173 0)
(0.00153755 -0.0092418 0)
(-0.000254692 -0.0103206 0)
(0.000683654 -0.0117665 0)
(-0.00316105 -0.00625992 0)
(0.00602581 -0.00191882 0)
(-0.00375265 -0.00583886 0)
(-0.00316792 -0.00501624 0)
(-0.00267839 -0.00469259 0)
(-0.00188712 -0.00164652 0)
(-0.00432443 -0.000540134 0)
(-0.00212067 -0.00144908 0)
(-0.00178303 -0.00054268 0)
(-0.000705676 -0.000675381 0)
(0.000284158 -0.00122748 0)
(0.00119817 -0.00235297 0)
(0.000185065 -0.00222133 0)
(-0.00170285 -0.0154658 0)
(0.00262349 0.00531236 0)
(-0.00745169 -0.00159507 0)
(-0.00380187 -0.00294001 0)
(-0.00360755 -0.00669612 0)
(-0.00528576 -0.00836044 0)
(-0.00797773 -0.000164193 0)
(-0.00811755 0.00207215 0)
(-0.00539209 -0.00528506 0)
(-0.00219293 -0.00111064 0)
(0.000878836 -0.00108813 0)
(0.00373329 0.00200104 0)
(-0.00293721 0.00134481 0)
(-0.00200988 -0.000667849 0)
(-0.00139224 -0.0012682 0)
(-0.0016477 -0.0021973 0)
(-0.00121951 -0.00265131 0)
(0.000560903 -0.00310318 0)
(-0.00156896 -0.00276072 0)
(-0.00362052 -0.00518715 0)
(-0.00166002 -0.00378475 0)
(-0.00712761 0.00113461 0)
(0.00179461 -0.00162407 0)
(-0.00121188 -0.00427175 0)
(-0.00120029 0.00516455 0)
(-0.00117066 0.00627423 0)
(-0.00135815 -0.0025097 0)
(-0.000287935 -0.000262711 0)
(-0.000572217 0.00087472 0)
(-0.00363745 -6.04496e-05 0)
(-0.00269169 -0.00223777 0)
(-0.00343538 -0.00341725 0)
(-0.00283785 -0.006206 0)
(-0.00143236 -0.00742139 0)
(-5.88005e-05 -0.0104027 0)
(-0.000129637 -0.0119973 0)
(0.00140897 -0.0112719 0)
(-0.000552773 -0.00929395 0)
(0.00556663 -0.0085009 0)
(0.00360707 -0.011026 0)
(0.00148936 -0.00904782 0)
(-0.00620617 -0.00743189 0)
(-0.00746337 -0.00538993 0)
(0.0012001 -0.00699587 0)
(0.0011672 -0.0101228 0)
(0.000758193 -0.00941552 0)
(-0.000579926 -0.0127717 0)
(-1.48687e-05 -0.0110839 0)
(-0.000606548 -0.0103406 0)
(0.00164118 -0.00969132 0)
(0.00104614 -0.00845195 0)
(0.000130108 -0.0075274 0)
(-0.000315097 -0.00578657 0)
(0.00018358 -0.00638501 0)
(0.000983355 -0.00743811 0)
(0.00162738 -0.0088447 0)
(0.00146055 -0.00881366 0)
(-0.00267599 -0.00534678 0)
(0.00051409 -0.0092151 0)
(0.00234315 -0.0157744 0)
(0.000371761 -0.0148068 0)
(-0.000790352 -0.012898 0)
(0.000429899 -0.00320803 0)
(-0.00135222 -0.00248789 0)
(-0.00255428 -0.00935072 0)
(-0.00520359 -0.00549077 0)
(-0.0058922 -0.00477116 0)
(-0.00412726 -0.00333967 0)
(-0.00370141 -0.00253193 0)
(-0.00141128 -0.00434613 0)
(-0.000657624 -0.00467126 0)
(-9.26383e-05 -0.00549668 0)
(-0.000970892 -0.00565345 0)
(0.00157309 -0.00840822 0)
(0.00126126 -0.00693711 0)
(0.00651753 -0.0150219 0)
(-0.001789 0.00106452 0)
(-0.00794132 -0.0103215 0)
(-0.00105369 -0.00138381 0)
(-0.00471823 -0.00480216 0)
(-0.00378337 -0.00135984 0)
(-0.00266744 -0.00100864 0)
(-0.0107188 -0.00153386 0)
(-0.0101216 -0.00109993 0)
(-0.00027233 0.000312312 0)
(0.00120037 -0.00230715 0)
(0.000740652 -0.00179578 0)
(-4.40035e-05 -5.9837e-05 0)
(-0.00142723 0.00016546 0)
(-0.000539682 -0.000246143 0)
(-0.00216752 0.000426767 0)
(-0.00177033 0.00146823 0)
(-0.00198706 0.00238947 0)
(-0.00211194 0.00105097 0)
(-0.00241602 -0.00165058 0)
(-0.000920818 -0.00228222 0)
(-0.00115622 0.00565726 0)
(-0.00190629 0.00504169 0)
(-0.000338436 -0.00392669 0)
(0.00124826 0.00113845 0)
(-0.00425904 0.00203986 0)
(-0.00231412 -0.00160438 0)
(-0.00129514 -0.00419275 0)
(-0.000131241 -0.00545263 0)
(-0.000278936 -0.00391033 0)
(0.00176458 -0.00430817 0)
(-0.000790399 -0.00601441 0)
(-0.00229334 -0.00613444 0)
(0.0019852 -0.00507526 0)
(0.000154492 -0.00548357 0)
(0.004503 -0.00682856 0)
(0.00241225 -0.0103966 0)
(-0.000664438 -0.00343547 0)
(-0.000490935 0.000888851 0)
(-0.00124603 -0.00931902 0)
(-0.000547148 -0.0115938 0)
(-0.00360737 -0.0101303 0)
(-0.00278505 -0.00225563 0)
(-0.00409641 -0.00541568 0)
(0.00355972 -0.0152432 0)
(-0.00137541 -0.0137131 0)
(-0.00203364 -0.0133728 0)
(-0.000360945 -0.0126213 0)
(0.00280336 -0.01142 0)
(0.000982837 -0.0103771 0)
(0.00122761 -0.0102834 0)
(0.000953039 -0.0101635 0)
(-6.39789e-05 -0.00770771 0)
(0.00368067 -0.00867166 0)
(0.00380366 -0.0110341 0)
(0.00377051 -0.0108263 0)
(0.00212652 -0.0131306 0)
(0.00263945 -0.0067368 0)
(-0.00320061 -0.0010779 0)
(-0.0021789 -0.00644371 0)
(-0.00107398 -0.0089944 0)
(-0.000357059 -0.00702724 0)
(0.00175585 -0.00179497 0)
(-0.00509864 -0.00286526 0)
(-0.00513258 -0.00753208 0)
(-0.00353146 -0.00689726 0)
(-0.00902974 -0.00366321 0)
(-0.0010153 -0.00458539 0)
(-0.00403756 -0.00627281 0)
(-0.00150971 -0.00731165 0)
(-0.000920766 -0.00822344 0)
(-0.000295114 -0.00818392 0)
(0.00272263 -0.00730003 0)
(0.0018242 -0.00879153 0)
(0.0028583 -0.0141275 0)
(0.00106429 -0.0169345 0)
(-0.0057363 0.00231898 0)
(-0.00605853 -0.00156709 0)
(-0.00288227 0.00103263 0)
(-0.00325417 -0.00612726 0)
(-0.00571065 -0.0013925 0)
(-0.00435499 -0.00280168 0)
(-0.00792102 -0.00161134 0)
(-0.00517386 0.00641387 0)
(-0.00443288 0.00936023 0)
(-0.00151821 -0.000461719 0)
(-0.00127969 0.00295145 0)
(-0.00188611 0.00507665 0)
(-0.00187651 0.00589899 0)
(-0.0021576 0.00553341 0)
(-0.00275228 0.00372036 0)
(-0.00201073 0.00357726 0)
(-0.000296291 0.00188623 0)
(6.70206e-05 0.000862366 0)
(0.00150891 -0.00374069 0)
(-0.000652453 -0.00376076 0)
(0.00282956 -0.000157605 0)
(-0.00546521 -0.00166641 0)
(-0.00298139 -0.00390796 0)
(-0.00432266 -0.00275707 0)
(-0.00375172 -0.000922993 0)
(0.00358102 -0.00504173 0)
(0.000891756 -0.00800231 0)
(-4.0779e-05 -0.0119443 0)
(-0.00181187 -0.0123462 0)
(0.00112087 -0.0138372 0)
(-0.00134346 -0.0152462 0)
(-0.000757216 -0.00675523 0)
(-0.00241749 -0.0068812 0)
(-0.00370361 -0.00817938 0)
(0.00411321 -0.00666248 0)
(0.00312272 -0.0107609 0)
(0.00577632 -0.00731437 0)
(-0.00115484 -0.00572227 0)
(3.51128e-05 -0.00862331 0)
(0.00153116 -0.00899596 0)
(0.000547616 -0.00752042 0)
(-0.00127311 -0.004247 0)
(-0.00539498 -0.000287662 0)
(0.00323469 -0.00677227 0)
(1.89923e-05 -0.0129798 0)
(-0.00351376 -0.0101403 0)
(0.00311384 -0.00678902 0)
(0.000965136 -0.0103155 0)
(0.000405724 -0.0141531 0)
(-0.00209922 -0.00992268 0)
(-0.00255636 -0.00997953 0)
(-0.00397338 -0.00604556 0)
(0.00333374 -0.00510092 0)
(0.00546871 -0.00842909 0)
(0.00308339 -0.00991318 0)
(0.00266169 -0.00546903 0)
(0.00513672 -0.00295575 0)
(0.00150552 -0.00415844 0)
(-0.00128234 -0.00363258 0)
(0.000713805 -0.00452905 0)
(0.000873586 -0.00564042 0)
(-0.000213394 -0.0053024 0)
(-0.00206073 -0.00993708 0)
(-0.00386796 -0.0109697 0)
(-0.00289631 -0.0137407 0)
(-0.00315793 -0.0112076 0)
(-0.00425753 -0.0109046 0)
(-0.00598451 -0.0165276 0)
(0.00191903 -0.0147048 0)
(-0.000408655 -0.015754 0)
(-0.00211555 -0.0131181 0)
(0.0061244 -0.0155293 0)
(0.00250377 -0.0197202 0)
(0.000757723 -0.0187277 0)
(0.00916797 -0.0120188 0)
(0.00341942 0.00662701 0)
(-0.000113762 -0.00343394 0)
(-0.00492384 0.00286635 0)
(-0.00523725 -0.00426992 0)
(-0.00455108 -0.000572105 0)
(-0.00484041 -0.00246222 0)
(-0.00659677 -0.00207521 0)
(-0.00446444 0.00311768 0)
(-0.0111837 0.00494942 0)
(-0.000708701 0.000944849 0)
(-0.00156049 -0.00123058 0)
(-0.00370567 -0.00066128 0)
(-0.000104339 -0.00152175 0)
(-0.000632605 -0.00294879 0)
(0.000782644 -0.00302373 0)
(-0.00103678 -0.00262775 0)
(0.00105759 -0.00366098 0)
(0.00134946 -0.00299559 0)
(-0.00082255 -0.00433846 0)
(0.00205058 -0.00270615 0)
(-0.000569567 -0.00278923 0)
(-0.0018841 -0.00718772 0)
(0.00132675 -0.0119732 0)
(0.00306064 -0.0145294 0)
(0.000440322 -0.00630669 0)
(0.00214153 -0.00959641 0)
(0.000956742 -0.0182786 0)
(0.00173572 -0.0185203 0)
(0.00110711 -0.0137047 0)
(0.00112688 -0.0122279 0)
(0.00239165 -0.0135405 0)
(0.00326575 -0.0103144 0)
(-0.00321756 -0.0120327 0)
(4.85304e-05 -0.00343223 0)
(-0.000926576 -0.00584499 0)
(0.000142357 -0.0150706 0)
(-0.000172311 -0.0110477 0)
(-0.00109289 -0.00855357 0)
(-0.00189968 -0.00823594 0)
(-0.0015218 -0.0100793 0)
(-0.000719523 -0.00866351 0)
(-0.000709233 -0.000339341 0)
(0.00191712 0.008625 0)
(-0.000314801 -0.00155915 0)
(0.000971442 -0.0134231 0)
(-0.000617288 -0.00427734 0)
(0.00205906 -0.00195596 0)
(-0.00208682 -0.00993074 0)
(0.000978204 -0.0105563 0)
(-0.00145944 -0.0122497 0)
(-0.000405689 -0.0125568 0)
(-0.00236376 -0.00148886 0)
(0.00403099 0.00220811 0)
(0.00152968 -0.00842489 0)
(0.00356078 -0.00964694 0)
(0.0040577 -0.00758635 0)
(0.00354779 -0.00586565 0)
(0.00137804 -0.00479601 0)
(0.00116507 -0.00468856 0)
(-0.000738525 -0.00383069 0)
(0.00116919 -0.00695259 0)
(-0.000296067 -0.00603534 0)
(-3.85248e-05 -0.00975402 0)
(0.00211067 -0.0134194 0)
(0.00148767 -0.0131483 0)
(0.00392161 -0.0153766 0)
(-0.00578392 -0.0214085 0)
(-0.00567603 -0.0168929 0)
(-0.00628263 -0.0183547 0)
(-0.00137731 -0.0277796 0)
(7.52999e-05 -0.0147462 0)
(0.00335198 -0.0135713 0)
(0.00407747 -0.0226516 0)
(0.00197099 -0.0162905 0)
(0.0059025 -0.014096 0)
(-0.00332801 0.00123064 0)
(-0.000591162 -0.00992078 0)
(-0.000939276 0.00109578 0)
(-0.00479413 -0.00281203 0)
(-0.00212697 -0.000698328 0)
(-0.00797701 -0.00544169 0)
(-0.00656677 -0.00417011 0)
(0.000744975 -0.00797645 0)
(-0.00195934 -0.00286699 0)
(-0.00275583 -0.00813001 0)
(-0.00236569 -0.018084 0)
(2.91075e-05 -0.0130334 0)
(-0.000459258 -0.0112031 0)
(-0.000469288 -0.0142429 0)
(0.000878527 -0.0137578 0)
(-0.001391 -0.0112035 0)
(-0.00103085 -0.0116368 0)
(0.000326576 -0.0154211 0)
(-0.000415715 -0.0155419 0)
(0.00357025 -0.0163648 0)
(0.00041832 -0.0181071 0)
(-0.000326749 -0.0144128 0)
(0.00822519 -0.0126159 0)
(0.00746104 -0.0149195 0)
(0.00205723 -0.0119356 0)
(-0.00131981 -0.0119062 0)
(-0.00177209 -0.0120281 0)
(-0.000727705 -0.0113489 0)
(0.00083573 -0.00948208 0)
(-0.00223578 -0.00892476 0)
(-0.000433722 -0.00930014 0)
(-0.00479367 -0.00800065 0)
(-0.00332361 -0.00491235 0)
(0.00522864 -0.00315277 0)
(-0.00266833 -0.00637353 0)
(-0.00137343 -0.0100192 0)
(-0.00073054 -0.00868415 0)
(-0.00031449 -0.00790694 0)
(-0.00118044 -0.0104528 0)
(0.00040534 -0.00919828 0)
(0.00148406 -0.00754841 0)
(0.000796467 -0.00132934 0)
(0.00491221 0.0030074 0)
(-0.0016223 -0.00388854 0)
(-0.000269836 -0.00916222 0)
(0.00301239 -0.0069464 0)
(-0.00409411 -0.00573663 0)
(-0.000481456 -0.00932362 0)
(-0.000967462 -0.0118472 0)
(9.21549e-05 -0.0100871 0)
(0.00118403 -0.00897014 0)
(0.00361919 -2.37331e-05 0)
(-0.0030482 -0.000857522 0)
(-0.00550539 -0.00774597 0)
(0.00424506 -0.00589297 0)
(0.00259491 -0.00387742 0)
(0.00195054 -0.0043176 0)
(-0.000795858 -0.00519627 0)
(0.00203839 -0.00449993 0)
(0.00107072 -0.00324732 0)
(0.00176923 -0.00195421 0)
(0.00171561 -0.00213503 0)
(0.000525934 -0.00254841 0)
(0.00356462 -0.00442514 0)
(0.00358523 -0.00305087 0)
(0.00255315 -0.00406583 0)
(0.00313167 -0.00439852 0)
(0.00183158 -0.00715989 0)
(-0.00484541 -0.0106247 0)
(-0.0030871 -0.0186206 0)
(0.00233925 -0.0196641 0)
(-0.00426445 -0.0200461 0)
(-0.002488 -0.0223166 0)
(-0.00117131 -0.0156914 0)
(-0.00144231 -0.0162435 0)
(0.000707499 -0.00524126 0)
(0.000596116 -0.0133244 0)
(-0.00931791 -0.00341336 0)
(-0.0067738 -0.00830928 0)
(-0.00347958 -0.00653328 0)
(-0.0022258 -0.0135643 0)
(-0.00037138 -0.00668021 0)
(0.00175122 -0.00679957 0)
(0.00117322 -0.0138823 0)
(-0.00635004 -0.0141432 0)
(-0.0041567 -0.0134983 0)
(-0.00151473 -0.0126678 0)
(-0.00363848 -0.0151987 0)
(-0.0031371 -0.0138915 0)
(-0.00187285 -0.0131092 0)
(0.00157041 -0.0130025 0)
(0.00025663 -0.012236 0)
(0.00532652 -0.0140534 0)
(0.0040933 -0.0135332 0)
(0.00267876 -0.0136945 0)
(0.0013524 -0.0164188 0)
(-0.000351689 -0.0051934 0)
(-0.000817145 -0.00447733 0)
(0.00171602 -0.0126462 0)
(0.000559166 -0.00721745 0)
(-0.00143952 -0.00711991 0)
(-0.000838633 -0.0121186 0)
(-0.00187921 -0.011832 0)
(0.000126255 -0.0114509 0)
(-0.00172369 -0.00994071 0)
(0.00194185 -0.0122379 0)
(-0.000349054 -0.0108216 0)
(0.000491888 0.000287993 0)
(0.00118761 0.000687399 0)
(-0.00128451 -0.00802472 0)
(-0.000696058 -0.00917905 0)
(0.000132927 -0.00874979 0)
(-0.00262729 -0.00887215 0)
(-0.000289289 -0.00812441 0)
(-0.000813747 -0.00841421 0)
(-0.00085926 -0.00932758 0)
(-0.00165569 0.00128653 0)
(0.00253171 0.00411833 0)
(0.00115611 -0.00792201 0)
(-0.000331023 -0.0105255 0)
(0.00182457 -0.00878521 0)
(-0.00109041 -0.0082728 0)
(-0.0013148 -0.00881203 0)
(-6.69192e-05 -0.00897418 0)
(0.00124021 -0.00883188 0)
(0.000205343 -0.00774627 0)
(0.00334496 -0.00453211 0)
(-0.0017178 -0.00569422 0)
(-0.00314347 5.70901e-05 0)
(0.000808875 0.00049829 0)
(0.0018496 -0.00766784 0)
(-0.0018473 -0.00847943 0)
(0.000961524 -0.00723466 0)
(-0.000629042 -0.00640604 0)
(0.00153618 -0.00800134 0)
(3.91519e-06 -0.00712484 0)
(0.0012887 -0.00666645 0)
(0.000695188 -0.00531754 0)
(0.00244134 -0.00557995 0)
(0.00288982 -0.00566444 0)
(0.00298905 -0.00313425 0)
(0.00473224 -0.0046106 0)
(0.00505964 -0.00202153 0)
(0.00389602 -0.000564217 0)
(-0.00126239 -0.00393018 0)
(0.00617753 -0.00311963 0)
(2.45145e-05 -0.00720931 0)
(-0.00107723 -0.0097145 0)
(5.25172e-05 -0.0111369 0)
(0.00384915 -0.0133037 0)
(-0.00211876 -0.00284471 0)
(0.0012727 0.000139674 0)
(-0.00233131 -0.00704516 0)
(-0.00131086 0.00192906 0)
(-0.00139933 -0.00481798 0)
(0.000662662 -0.0140532 0)
(0.000743793 -0.0108956 0)
(-0.00332814 -0.0092505 0)
(-0.00438031 -0.00958144 0)
(-0.00432228 -0.0124664 0)
(-0.00353262 -0.0122549 0)
(-0.00276266 -0.0121342 0)
(-0.00264434 -0.0143228 0)
(-0.000190819 -0.01499 0)
(-0.000325195 -0.0153393 0)
(-0.000235617 -0.0161232 0)
(-0.00155241 -0.0125887 0)
(0.00150769 -0.0119578 0)
(0.00100949 -0.0147995 0)
(-0.000670746 -0.0117508 0)
(0.00385407 -0.0115669 0)
(0.00450974 -0.00767283 0)
(-0.00280391 -0.00494189 0)
(0.00102113 -0.00730778 0)
(0.00270398 -0.00757637 0)
(-0.000408734 -0.00591395 0)
(0.000544863 -0.00766456 0)
(-0.000154136 -0.00722723 0)
(-0.00054125 -0.00705569 0)
(-0.00096788 -0.00547084 0)
(-0.00171503 -0.00496186 0)
(0.000143389 -0.00496464 0)
(-0.00171179 -1.27165e-05 0)
(-0.00105835 -0.000510068 0)
(-0.00191097 -0.00393617 0)
(-0.00220761 -0.00533514 0)
(-0.000947545 -0.00694637 0)
(-0.00153105 -0.00408613 0)
(0.0010975 -0.00689241 0)
(0.000538224 -0.00904685 0)
(0.00169892 -0.00976107 0)
(0.00457253 0.000189608 0)
(-0.00011806 0.00289136 0)
(-0.00207198 -0.00911351 0)
(0.000341555 -0.0116009 0)
(-0.00169734 -0.00932133 0)
(-8.37797e-05 -0.00835957 0)
(-0.00124719 -0.00765154 0)
(-0.00112131 -0.00855124 0)
(-0.001592 -0.00993769 0)
(-0.00267158 -0.00829538 0)
(0.00416564 -0.00491956 0)
(0.000130384 -0.00967855 0)
(0.00129043 -0.00838538 0)
(-0.00583843 -0.00355016 0)
(-0.00185529 -0.00824223 0)
(0.00235446 -0.00633281 0)
(0.00297756 -0.00598591 0)
(0.00112517 -0.00559723 0)
(0.000357658 -0.00427091 0)
(-6.93425e-05 -0.00510802 0)
(0.00195712 -0.00467599 0)
(0.00136868 -0.00446884 0)
(0.0010935 -0.00279365 0)
(0.00263865 -0.00325159 0)
(0.00104859 -0.00391546 0)
(0.00299244 -0.00214497 0)
(0.00221784 -0.000877605 0)
(0.000356103 0.00159173 0)
(0.000875417 0.013414 0)
(0.00144916 0.0153382 0)
(0.000331781 0.00629068 0)
(-1.77442e-05 0.00783028 0)
(0.0002079 0.00916275 0)
(0.00187042 -0.0141305 0)
(-0.00507954 -0.00375993 0)
(0.0012628 -0.0109331 0)
(0.00474004 -0.00376636 0)
(0.0014259 -0.00531884 0)
(-0.00364916 -0.00385483 0)
(-0.00239534 -0.00693545 0)
(-0.00174611 -0.00403984 0)
(-0.00275883 -0.00422769 0)
(-0.00299285 -0.00767935 0)
(-0.00268752 -0.00940359 0)
(-0.00146334 -0.00843019 0)
(-0.00248002 -0.00831638 0)
(-0.00497205 -0.00855765 0)
(0.00294797 -0.00847414 0)
(0.00220094 -0.0114691 0)
(-0.00161948 -0.0114121 0)
(-0.00248915 -0.00771727 0)
(0.00224421 -0.00807673 0)
(0.00105648 -0.011213 0)
(0.000658527 -0.00667273 0)
(0.000282439 -0.00622322 0)
(-0.000879588 -0.00570557 0)
(-0.00532631 0.000439818 0)
(0.000699908 0.000903122 0)
(-0.000471922 0.00012361 0)
(-0.00167972 0.00195378 0)
(-0.0022036 0.00308535 0)
(-0.00102875 0.0045234 0)
(-0.00269937 0.00513944 0)
(0.000513502 0.00350837 0)
(-0.00103174 0.00162981 0)
(0.0027718 6.86062e-05 0)
(0.000263194 0.00761403 0)
(-0.000855099 0.00748334 0)
(-0.000878288 -0.00276027 0)
(-0.00187618 -0.00149876 0)
(-0.000650871 -0.00134556 0)
(-0.000383081 -0.00186071 0)
(-0.000575079 -0.000137006 0)
(0.00136744 -0.00338047 0)
(0.000784551 -0.000960522 0)
(0.00199058 0.00418598 0)
(3.19681e-05 0.00314362 0)
(-0.00133892 -0.00272079 0)
(-0.00146615 -0.00394478 0)
(-2.7693e-05 -0.00505939 0)
(-0.000247476 -0.00430166 0)
(0.000413804 -0.00648106 0)
(0.000929207 -0.00789792 0)
(0.00216781 -0.0101959 0)
(0.00130648 -0.001982 0)
(-5.09868e-05 -0.00352676 0)
(-0.00255335 -0.0119746 0)
(-0.000583117 -0.0106313 0)
(-0.00294727 -0.0086796 0)
(-0.00242491 -0.00530265 0)
(-0.00148836 -0.00715377 0)
(-0.00116704 -0.00924199 0)
(0.000666894 -0.00763127 0)
(-0.00116342 -0.0076356 0)
(-4.39869e-06 -0.00604884 0)
(0.000732161 -0.00534201 0)
(0.000452873 -0.00568163 0)
(0.00209927 -0.00446538 0)
(0.000597286 -0.00542489 0)
(0.000509497 -0.00216725 0)
(0.00011231 -0.00175377 0)
(-0.000360118 -0.0031026 0)
(0.00211295 -0.000646857 0)
(0.00395659 0.00188274 0)
(-0.00303812 0.00290461 0)
(-0.00195667 -0.00053128 0)
(-0.00272321 9.0608e-05 0)
(-0.00303683 0.00236613 0)
(0.000628372 -0.0129407 0)
(0.00180675 -0.000919636 0)
(0.00177418 -0.00646613 0)
(-0.00243835 -0.00201849 0)
(-0.00265552 -0.00230538 0)
(-0.00205571 0.000220553 0)
(-0.00143778 -0.00206397 0)
(0.000102728 -0.00188534 0)
(-0.00170008 -0.00213023 0)
(-0.000918347 -0.00281721 0)
(-0.00036535 -0.00354928 0)
(0.000901365 -0.00551441 0)
(-0.00186574 -0.00890849 0)
(-0.000958167 -0.00172193 0)
(-0.00137468 -0.00116494 0)
(-0.000450668 -0.0112434 0)
(-2.15324e-05 -0.0127189 0)
(-0.00182267 -0.00042218 0)
(-0.000596153 -0.00102464 0)
(-0.00046236 -0.00915812 0)
(-0.00100126 -0.00415457 0)
(-0.00210353 -0.00427864 0)
(-0.00269458 -0.00436377 0)
(-0.00168637 0.00533713 0)
(-0.00250812 0.00458681 0)
(-0.00220217 -0.00471155 0)