/*--------------------------------*- C++ -*----------------------------------*\
  =========                 |
  \\      /  F ield         | OpenFOAM: The Open Source CFD Toolbox
   \\    /   O peration     | Website:  https://openfoam.org
    \\  /    A nd           | Version:  12
     \\/     M anipulation  |
\*---------------------------------------------------------------------------*/
FoamFile
{
    format      ascii;
    class       IOPosition;
    location    "0.55/lagrangian/cloud";
    object      positions;
}
// * * * * * * * * * * * * * * * * * * * * * * * * * * * * * * * * * * * * * //

2433
(
(0.0598205 0.295021 0.175069 0.47009) 0 15075 1
(0.1983 0.40085 0.218189 0.182661) 1 3 2
(0.195674 0.402163 0.361158 0.0410054) 2 5 2
(0.212067 0.348387 0.0455794 0.393966) 3 7 1
(0.236871 0.268352 0.113213 0.381565) 4 9 1
(0.215235 0.197672 0.19471 0.392382) 5 11 1
(0.0506868 0.00983342 0.464823 0.474657) 6 13 1
(0.436298 0.281851 0.172153 0.109698) 7 7382 1
(0.269789 0.365106 0.129164 0.235942) 8 14 1
(0.0173089 0.491346 0.263902 0.227444) 8 16 1
(0.210049 0.0180945 0.376881 0.394976) 9 19 1
(0.13005 0.0693229 0.434975 0.365652) 10 20 2
(0.357247 0.0111686 0.321376 0.310208) 11 22 2
(0.454524 0.0770918 0.195646 0.272738) 12 25 1
(0.41278 0.29361 0.216242 0.0773675) 13 27 2
(0.302484 0.0506448 0.298113 0.348758) 14 26 2
(0.392186 0.17488 0.303907 0.129027) 14 7389 2
(0.540463 0.229768 0.12664 0.103128) 15 7390 1
(0.433736 0.283132 0.277083 0.00604897) 16 7391 1
(0.381341 0.309329 0.289136 0.0201933) 17 7392 1
(0.0801342 0.0593913 0.459933 0.400542) 17 34 2
(0.259521 0.0126835 0.370239 0.357556) 18 36 2
(0.254908 0.0207157 0.35183 0.372546) 19 39 1
(0.131778 0.0502641 0.434111 0.383847) 20 40 2
(0.0114608 0.13405 0.49427 0.360219) 21 42 2
(0.363515 0.0190965 0.318243 0.299146) 22 44 2
(0.477889 0.0486784 0.212377 0.261055) 23 47 1
(0.426848 0.241854 0.0447219 0.286576) 24 49 1
(0.433718 0.283141 0.231878 0.0512629) 25 7400 1
(0.297705 0.351148 0.0924494 0.258698) 26 50 1
(0.187552 0.406224 0.118162 0.288062) 27 52 1
(0.214914 0.392543 0.0877735 0.304769) 28 54 1
(0.0141373 0.492931 0.294288 0.198643) 29 58 1
(0.851001 0.00967996 0.0648193 0.0744993) 31 60 2
(0.243338 0.0212945 0.357037 0.378331) 32 62 2
(0.0390929 0.21869 0.261764 0.480454) 33 64 2
(0.106784 0.213946 0.232661 0.446608) 34 66 2
(0.324438 0.337781 0.0767759 0.261005) 35 68 1
(0.384848 0.307576 0.0751773 0.232399) 36 7411 1
(0.40535 0.297325 0.0863937 0.210931) 37 7412 1
(0.156449 0.421775 0.139787 0.281988) 38 76 1
(0.194912 0.232869 0.169675 0.402544) 39 79 1
(0.29674 0.296198 0.0554319 0.35163) 40 81 1
(0.516061 0.241969 0.0435986 0.198371) 42 7417 1
(0.0899903 0.434277 0.455005 0.0207275) 117 85 1
(0.464908 0.267546 0.250035 0.0175108) 43 87 2
(0.4712 0.2644 0.039351 0.225049) 44 89 2
(0.411605 0.294198 0.200653 0.0935449) 45 7420 1
(0.1807 0.0991506 0.3105 0.40965) 45 91 1
(0.39525 0.214362 0.088013 0.302375) 46 93 1
(0.459378 0.270311 0.140135 0.130176) 47 95 2
(0.426547 0.286727 0.0114459 0.275281) 48 97 2
(0.235739 0.104543 0.277587 0.382131) 49 96 2
(0.424031 0.191275 0.287985 0.0967099) 50 7425 2
(0.355556 0.322222 0.31265 0.00957224) 51 102 1
(0.073532 0.463234 0.311178 0.152056) 52 104 1
(0.256429 0.371785 0.133743 0.238042) 54 106 1
(0.246684 0.0879531 0.288705 0.376658) 54 109 1
(0.258547 0.194153 0.176574 0.370726) 55 111 1
(0.226679 0.38666 0.256499 0.130161) 76 152 2
(0.195985 0.402008 0.00197862 0.400029) 78 156 2
(0.475346 0.0762467 0.18608 0.262327) 79 158 1
(0.23111 0.32877 0.384445 0.0556747) 154 158 1
(0.272753 0.245743 0.11788 0.363624) 80 160 1
(0.295319 0.35234 0.323025 0.0293152) 81 162 2
(0.344415 0.0423761 0.285417 0.327793) 82 161 2
(0.159897 0.240012 0.180039 0.420052) 83 163 2
(0.454069 0.272965 0.0351153 0.23785) 87 171 1
(0.439583 0.280209 0.203446 0.0767625) 88 173 1
(0.383216 0.308392 0.071242 0.23715) 89 175 1
(0.0370793 0.48146 0.282572 0.198889) 89 177 1
(0.234109 0.0130547 0.382946 0.369891) 90 31 1
(0.135851 0.20505 0.227025 0.432075) 90 180 1
(0.31236 0.34382 0.208849 0.134971) 165 328 1
(0.117144 0.441428 0.374435 0.0669928) 91 182 2
(0.152405 0.00176478 0.423797 0.422032) 91 181 2
(0.222447 0.388777 0.312913 0.0758636) 92 184 2
(0.0188888 0.0629203 0.427635 0.490556) 93 183 2
(0.233005 0.229091 0.154406 0.383497) 93 186 1
(0.456038 0.241697 0.0302842 0.271981) 94 188 1
(0.422117 0.288942 0.253283 0.0356584) 98 47 2
(0.480169 0.251687 0.259916 0.00822818) 99 49 1
(0.333697 0.333151 0.0415623 0.291589) 100 51 2
(0.257784 0.371108 0.0892375 0.28187) 101 53 2
(0.231826 0.347271 0.384087 0.0368157) 102 55 1
(0.0382642 0.480868 0.389779 0.0910891) 29 59 2
(0.264202 0.367899 0.0108977 0.357002) 103 206 2
(0.0894328 0.0878571 0.455284 0.367426) 103 205 2
(0.283365 0.130896 0.227422 0.358318) 104 208 1
(0.428963 0.285518 0.244347 0.0411713) 107 213 1
(0.434865 0.282567 0.158832 0.123735) 109 69 2
(0.00597254 0.117425 0.379589 0.497014) 35 71 1
(0.00800846 0.495996 0.451732 0.044264) 184 218 2
(0.113989 0.344751 0.0982548 0.443006) 109 218 1
(0.145283 0.0747651 0.352593 0.427358) 110 217 2
(0.25815 0.354011 0.0169135 0.370925) 110 220 1
(0.0550513 0.0775065 0.472474 0.394968) 110 219 2
(0.306841 0.346579 0.278364 0.068215) 111 222 2
(0.273053 0.363474 0.0089774 0.354496) 112 224 2
(0.387765 0.306117 0.303809 0.00230868) 113 226 2
(0.583841 0.208079 0.132993 0.0750867) 116 83 2
(0.0702278 0.464886 0.191662 0.273224) 118 233 1
(0.364604 0.317698 0.111504 0.206194) 119 89 2
(0.664003 0.161586 0.167999 0.00641299) 120 91 1
(0.532781 0.14037 0.233609 0.0932395) 121 93 1
(0.50995 0.160411 0.245025 0.0846137) 122 95 1
(0.434199 0.213277 0.2829 0.0696234) 123 97 1
(0.176668 0.000423453 0.411666 0.411243) 124 99 1
(0.317738 0.341131 0.0204284 0.320703) 125 101 2
(0.341592 0.329204 0.0587668 0.270437) 198 392 1
(0.0192758 0.490362 0.214899 0.275464) 198 394 1
(0.312365 0.343818 0.106084 0.237734) 150 299 2
(0.126817 0.0636228 0.372968 0.436591) 151 298 2
(0.0744059 0.0837847 0.379012 0.462797) 152 300 2
(0.158154 0.272694 0.148229 0.420923) 153 305 1
(0.194761 0.212748 0.189871 0.40262) 154 307 1
(0.376973 0.311514 0.00321372 0.3083) 157 164 2
(0.233373 0.158423 0.383314 0.22489) 158 166 1
(0.217982 0.391009 0.317297 0.0737124) 85 170 2
(0.311316 0.344342 0.149528 0.194814) 159 317 2
(0.0714796 0.119169 0.345091 0.46426) 160 316 2
(0.382101 0.201881 0.107068 0.30895) 160 319 1
(0.42918 0.28541 0.247795 0.0376153) 161 321 2
(0.382038 0.229471 0.0795098 0.308981) 162 323 1
(0.309615 0.345193 0.130103 0.21509) 164 327 2
(0.0751662 0.240401 0.462417 0.222016) 240 329 1
(0.0952781 0.399697 0.0526634 0.452361) 166 331 1
(0.165615 0.406441 0.0107515 0.417193) 167 333 1
(0.377374 0.311313 0.0321699 0.279143) 169 334 1
(0.276174 0.361913 0.214449 0.147464) 170 190 2
(0.194057 0.402972 0.206121 0.196851) 171 192 2
(0.183838 0.408081 0.134651 0.27343) 172 194 2
(0.202797 0.398602 0.0188301 0.379771) 173 196 2
(0.23843 0.267852 0.380785 0.112933) 174 198 1
(0.116867 0.441567 0.355243 0.0863237) 176 202 2
(0.0470134 0.286722 0.476493 0.189772) 250 349 1
(0.234815 0.382592 0.337685 0.0449078) 176 351 2
(0.0698932 0.0678438 0.39721 0.465053) 177 350 2
(0.198367 0.244991 0.155825 0.400817) 177 353 1
(0.187719 0.406141 0.190268 0.215872) 178 355 2
(0.136295 0.029387 0.431853 0.402466) 178 354 2
(0.251164 0.306321 0.0680968 0.374418) 179 357 1
(0.301996 0.349002 0.155808 0.193194) 180 359 2
(0.26959 0.365205 0.0835515 0.281653) 181 361 2
(0.153562 0.339636 0.0835833 0.423219) 182 363 1
(0.178706 0.163882 0.246765 0.410647) 183 365 1
(0.24517 0.0222017 0.355213 0.377415) 184 367 1
(0.0426753 0.138043 0.478662 0.34062) 185 368 2
(0.343331 0.328334 0.0564911 0.271843) 187 373 2
(0.274851 0.362575 0.030804 0.331771) 188 375 2
(0.202511 0.0415976 0.357147 0.398744) 189 374 2
(0.213848 0.393076 0.0156403 0.377435) 190 230 2
(0.231166 0.288958 0.384417 0.0954587) 191 232 1
(0.248681 0.282797 0.37566 0.0928626) 192 234 1
(0.0602753 0.0680483 0.469862 0.401814) 193 236 1
(0.0843681 0.431383 0.0264333 0.457816) 193 385 1
(0.343563 0.0046696 0.323549 0.328219) 194 384 2
(0.173022 0.413489 0.0431548 0.370334) 195 386 1
(0.07773 0.461135 0.339665 0.12147) 195 388 1
(0.22453 0.387735 0.346441 0.0412935) 196 390 1
(0.255013 0.0334116 0.339082 0.372493) 225 448 1
(0.217017 0.0798053 0.311686 0.391491) 226 450 1
(0.0924081 0.151618 0.302177 0.453796) 228 451 2
(0.206358 0.396821 0.0797367 0.317084) 230 455 1
(0.204218 0.397891 0.378734 0.0191573) 231 311 2
(0.135351 0.432325 0.203726 0.228599) 232 313 2
(0.112452 0.219688 0.224086 0.443774) 233 461 2
(0.0100621 0.247454 0.247515 0.494969) 234 463 2
(0.127714 0.436143 0.137638 0.298505) 236 467 1
(0.471644 0.264178 0.0681331 0.196045) 237 323 2
(0.512577 0.0487127 0.243712 0.194999) 238 325 1
(0.409384 0.295308 0.258281 0.0370267) 240 475 1
(0.0263739 0.0989534 0.486813 0.38786) 240 477 2
(0.18868 0.40566 0.101692 0.303968) 242 482 2
(0.293977 0.353012 0.0798696 0.273142) 243 335 2
(0.263309 0.368346 0.052241 0.316105) 244 337 2
(0.247603 0.376198 0.0719811 0.304217) 245 339 2
(0.259702 0.370149 0.12828 0.241869) 246 341 2
(0.239808 0.380096 0.183193 0.196904) 247 343 2
(0.251124 0.374438 0.099099 0.275339) 248 345 2
(0.0469159 0.244487 0.232055 0.476542) 248 494 1
(0.237252 0.381374 0.334444 0.0469298) 249 496 2
(0.134636 0.017115 0.415567 0.432682) 250 495 2
(0.235873 0.154512 0.227552 0.382063) 250 498 1
(0.249032 0.163674 0.21181 0.375484) 251 500 1
(0.175023 0.307442 0.105047 0.412489) 252 502 1
(0.202644 0.393564 0.00511446 0.398678) 253 504 1
(0.230811 0.384594 0.281688 0.102906) 254 506 2
(0.281715 0.359142 0.168273 0.190869) 255 508 2
(0.281996 0.359002 0.0857569 0.273245) 256 510 2
(0.0801829 0.459909 0.413702 0.0462066) 257 512 2
(0.228507 0.385747 0.376751 0.00899534) 258 514 2
(0.688921 0.0406881 0.15554 0.114852) 259 367 1
(0.504709 0.113089 0.247645 0.134557) 260 369 1
(0.380936 0.124354 0.309532 0.185178) 261 371 1
(0.314875 0.0844559 0.258107 0.342562) 262 522 1
(0.3011 0.125986 0.223464 0.34945) 263 524 1
(0.280986 0.189817 0.16969 0.359507) 264 526 1
(0.235464 0.231648 0.15062 0.382268) 265 528 1
(0.211931 0.232928 0.161106 0.394035) 266 530 1
(0.211828 0.169573 0.224513 0.394086) 267 532 1
(0.129457 0.144116 0.291156 0.435272) 268 534 1
(0.369356 0.278884 0.315322 0.0364381) 269 387 1
(0.23848 0.38076 0.349419 0.0313412) 270 389 2
(0.312498 0.10024 0.343751 0.243511) 270 389 1
(0.29731 0.260282 0.351345 0.0910624) 271 391 1
(0.339393 0.242494 0.0878096 0.330304) 300 597 1
(0.100716 0.15628 0.293362 0.449642) 302 598 2
(0.283287 0.30343 0.358357 0.0549262) 303 454 1
(0.176463 0.411768 0.232924 0.178845) 305 458 2
(0.605309 0.194683 0.00266224 0.197345) 306 609 1
(0.206898 0.396551 0.148327 0.248224) 307 462 2
(0.484954 0.257523 0.0256152 0.231908) 308 610 1
(0.2703 0.36485 0.158831 0.206019) 309 466 2
(0.182947 0.408527 0.123492 0.285035) 310 468 2
(0.218306 0.0123572 0.390847 0.37849) 311 470 1
(0.241439 0.37928 0.300219 0.0790608) 313 474 2
(0.33103 0.300248 0.334485 0.0342371) 314 476 1
(0.22334 0.38833 0.195533 0.192797) 316 626 1
(0.0180473 0.0919006 0.399076 0.490976) 317 628 2
(0.129839 0.0529415 0.435081 0.382139) 317 630 2
(0.247027 0.0449762 0.33151 0.376486) 318 633 1
(0.243912 0.135567 0.242477 0.378044) 319 635 1
(0.27442 0.246914 0.115876 0.36279) 320 637 1
(0.292949 0.353525 0.262985 0.0905404) 321 639 2
(0.27688 0.36156 0.0261896 0.335371) 322 641 2
(0.152793 0.0396453 0.423604 0.383958) 322 640 2
(0.223647 0.184844 0.203332 0.388177) 323 643 1
(0.287014 0.32386 0.0326325 0.356493) 324 645 1
(0.0275021 0.486249 0.223683 0.262566) 326 646 1
(0.203121 0.0578268 0.340613 0.39844) 327 648 2
(0.224563 0.387718 0.194963 0.192755) 328 653 2
(0.211521 0.340024 0.0542155 0.39424) 329 655 1
(0.246478 0.24089 0.135871 0.376761) 330 657 1
(0.589636 0.157978 0.0472043 0.205182) 331 659 1
(0.219258 0.390371 0.27178 0.118591) 332 661 2
(0.22123 0.389385 0.231619 0.157766) 333 663 2
(0.119239 0.436529 0.00385091 0.44038) 334 665 1
(0.285665 0.357168 0.209676 0.147492) 335 518 2
(0.327866 0.336067 0.310031 0.0260358) 336 520 2
(0.0689444 0.465528 0.116089 0.349438) 337 668 1
(0.368921 0.0699293 0.31554 0.24561) 337 670 2
(0.546461 0.051273 0.175496 0.226769) 338 673 1
(0.296602 0.273141 0.0785574 0.351699) 339 675 1
(0.256938 0.34914 0.022391 0.371531) 340 677 1
(0.110606 0.444697 0.144998 0.299699) 417 681 2
(0.250663 0.374669 0.209665 0.165004) 418 683 2
(0.221026 0.389487 0.0487511 0.340736) 344 685 2
(0.0757205 0.46214 0.333335 0.128804) 344 684 1
(0.370414 0.0404887 0.314793 0.274304) 345 538 1
(0.369088 0.253807 0.315456 0.0616491) 346 540 1
(0.287942 0.356029 0.0769837 0.279045) 347 542 2
(0.345497 0.327251 0.188653 0.138598) 376 599 2
(0.0921856 0.453907 0.390677 0.0632297) 377 749 1
(0.191136 0.404432 0.348304 0.056128) 379 605 2
(0.204717 0.397642 0.163879 0.233763) 380 607 2
(0.254536 0.100325 0.372732 0.272407) 381 609 1
(0.160274 0.0232576 0.419863 0.396606) 382 611 1
(0.14103 0.429485 0.401693 0.0277917) 384 615 2
(0.161893 0.419054 0.223082 0.195972) 385 617 2
(0.168712 0.415644 0.136241 0.279403) 386 619 2
(0.195146 0.402427 0.02918 0.373247) 387 621 2
(0.195618 0.353564 0.402191 0.0486275) 388 623 1
(0.232788 0.22291 0.383606 0.160696) 389 625 1
(0.0328447 0.483578 0.156322 0.327255) 391 775 1
(0.147675 0.365646 0.0605165 0.426162) 391 778 1
(0.213278 0.393361 0.282944 0.110417) 392 780 2
(0.207042 0.396479 0.0846918 0.311787) 393 782 2
(0.00506966 0.104176 0.497465 0.393289) 393 781 2
(0.213409 0.0398818 0.353414 0.393295) 394 784 1
(0.21319 0.187354 0.206051 0.393405) 395 786 1
(0.219065 0.313882 0.0765855 0.390468) 396 788 1
(0.216088 0.391956 0.359377 0.0325791) 397 790 2
(0.207293 0.396354 0.285869 0.110485) 398 792 2
(0.756508 0.121746 0.013019 0.108727) 399 645 2
(0.30133 0.333056 0.349335 0.0162789) 400 647 1
(0.489397 0.255302 0.114261 0.14104) 401 649 2
(0.421165 0.289418 0.196028 0.093389) 402 797 1
(0.558282 0.220859 0.0773365 0.143522) 403 802 2
(0.352654 0.0867236 0.23695 0.323673) 404 804 1
(0.225217 0.164399 0.222992 0.387392) 405 806 1
(0.234878 0.190199 0.192362 0.382561) 406 808 1
(0.205284 0.246735 0.150623 0.397358) 407 810 1
(0.197331 0.268522 0.132812 0.401334) 408 812 1
(0.173811 0.231171 0.181923 0.413095) 409 814 1
(0.413708 0.129714 0.163432 0.293146) 410 816 1
(0.279623 0.250822 0.360188 0.109367) 411 669 1
(0.421468 0.224867 0.289266 0.0643991) 412 671 1
(0.43935 0.230387 0.280325 0.0499379) 413 673 1
(0.255255 0.372373 0.263866 0.108506) 414 824 2
(0.266509 0.366746 0.227588 0.139157) 415 826 2
(0.200491 0.298382 0.101373 0.399755) 416 828 1
(0.246917 0.237302 0.376542 0.13924) 492 830 1
(0.188081 0.315929 0.0900311 0.40596) 418 832 1
(0.23233 0.383835 0.0533489 0.330486) 494 980 1
(0.217021 0.39149 0.3858 0.00569006) 495 836 2
(0.237407 0.381297 0.142686 0.23861) 421 838 2
(0.259232 0.370384 0.0445134 0.325871) 422 691 2
(0.20169 0.399155 0.300854 0.0983005) 450 746 2
(0.200835 0.399583 0.202879 0.196704) 451 748 2
(0.168872 0.383703 0.415564 0.0318614) 452 750 1
(0.110358 0.154236 0.444821 0.290585) 453 752 1
(0.035776 0.407879 0.482112 0.0742327) 455 756 1
(0.15143 0.289405 0.424285 0.13488) 456 758 1
(0.183147 0.176444 0.408426 0.231982) 457 760 1
(0.204733 0.1714 0.397633 0.226234) 458 762 1
(0.213636 0.197946 0.393182 0.195236) 459 764 1
(0.234002 0.238474 0.382999 0.144525) 460 766 1
(0.240456 0.348366 0.379772 0.0314057) 461 768 1
(0.247835 0.376082 0.134102 0.24198) 462 770 2
(0.240722 0.379639 0.291425 0.0882147) 463 772 2
(0.0911851 0.454407 0.09204 0.362367) 464 920 1
(0.303553 0.348224 0.248484 0.0997392) 464 922 1
(0.0482881 0.475856 0.0895234 0.386333) 465 925 2
(0.257425 0.120848 0.25044 0.371288) 465 925 1
(0.197416 0.401292 0.385974 0.0153178) 466 927 2
(0.150241 0.42488 0.29505 0.129829) 467 929 2
(0.151044 0.424478 0.288979 0.135499) 468 931 2
(0.171921 0.414039 0.384521 0.0295181) 469 933 2
(0.193959 0.285188 0.117832 0.403021) 470 935 1
(0.209305 0.177101 0.218246 0.395347) 471 937 1
(0.222111 0.127566 0.261379 0.388945) 472 939 1
(0.347158 0.0843639 0.242057 0.326421) 473 941 1
(0.347198 0.116996 0.326401 0.209405) 474 794 1
(0.255649 0.176114 0.372176 0.196062) 475 796 1
(0.288722 0.110651 0.355639 0.244988) 476 798 1
(0.0153289 0.492336 0.340434 0.151901) 477 948 1
(0.365303 0.317349 0.00427249 0.313076) 479 950 1
(0.147084 0.0477039 0.426458 0.378754) 479 952 2
(0.270955 0.020394 0.344128 0.364522) 480 955 1
(0.218156 0.130289 0.260633 0.390922) 481 957 1
(0.177442 0.111631 0.299648 0.411279) 482 959 1
(0.0088234 0.071494 0.424094 0.495588) 484 960 2
(0.157211 0.421394 0.142652 0.278742) 485 965 2
(0.350284 0.324858 0.0681582 0.2567) 486 818 2
(0.291459 0.35427 0.0941968 0.260074) 487 820 2
(0.289213 0.355393 0.132159 0.223234) 488 822 2
(0.103667 0.0543757 0.448167 0.393791) 488 970 2
(0.290019 0.105833 0.249158 0.35499) 489 973 1
(0.27669 0.29565 0.0660052 0.361655) 490 975 1
(0.237939 0.38103 0.368583 0.0124474) 491 977 2
(0.0855066 0.00367529 0.453571 0.457247) 492 979 1
(0.211611 0.394195 0.376222 0.0179725) 568 1129 1
(0.176265 0.411867 0.323669 0.0881983) 570 985 2
(0.094315 0.147249 0.452842 0.305593) 495 984 2
(0.241643 0.379178 0.177527 0.201652) 497 840 2
(0.238427 0.0353911 0.380786 0.345395) 525 895 1
(0.227943 0.0965058 0.386029 0.289523) 526 897 1
(0.197397 0.178844 0.401302 0.222458) 527 899 1
(0.0928376 0.196706 0.453581 0.256875) 528 901 1
(0.243005 0.378498 0.0401286 0.338369) 455 905 2
(0.366472 0.316764 0.0892507 0.227513) 530 1054 2
(0.241352 0.0729293 0.306395 0.379324) 531 1053 2
(0.0857668 0.127169 0.457117 0.329948) 531 1055 2
(0.231305 0.384347 0.0121393 0.372208) 533 911 2
(0.242855 0.371855 0.378573 0.00671742) 534 913 1
(0.276859 0.36157 0.0891259 0.272444) 535 915 2
(0.190879 0.40456 0.213173 0.191387) 536 917 2
(0.187065 0.406468 0.370528 0.0359399) 536 1065 1
(0.264765 0.311198 0.367618 0.0564192) 537 919 1
(0.145362 0.427319 0.349615 0.0777043) 538 921 2
(0.238381 0.0616403 0.38081 0.319169) 538 921 1
(0.189096 0.00683306 0.398619 0.405452) 538 1070 1
(0.310294 0.120666 0.224187 0.344853) 539 1072 1
(0.248389 0.371637 0.00416871 0.375806) 540 1074 1
(0.210738 0.394631 0.388069 0.00656256) 541 1076 2
(0.192306 0.118207 0.28564 0.403847) 542 1078 1
(0.160363 0.419819 0.00103597 0.418783) 544 1082 2
(0.185964 0.407018 0.265876 0.141142) 545 1084 2
(0.186191 0.273362 0.133542 0.406905) 546 1086 1
(0.23812 0.103213 0.277727 0.38094) 547 1088 1
(0.341219 0.329391 0.203127 0.126264) 549 943 2
(0.256106 0.371947 0.230405 0.141542) 550 945 2
(0.257606 0.371197 0.293497 0.0777002) 551 947 2
(0.255078 0.372461 0.345284 0.0271772) 552 949 2
(0.18932 0.40534 0.307108 0.0982313) 553 951 2
(0.0062018 0.260299 0.496899 0.2366) 553 1099 2
(0.12305 0.161048 0.438475 0.277427) 554 1101 2
(0.312617 0.0366123 0.343692 0.307079) 555 1103 2
(0.0359266 0.212968 0.482037 0.269069) 556 1105 2
(0.164068 0.274535 0.143431 0.417966) 558 1110 1
(0.17958 0.0133809 0.396829 0.41021) 559 1112 1
(0.0648685 0.0724048 0.395161 0.467566) 561 1113 2
(0.191131 0.404435 0.0376184 0.366816) 562 1118 2
(0.221726 0.389137 0.0787049 0.310432) 563 1120 2
(0.224995 0.387502 0.0775657 0.309937) 564 1122 2
(0.140166 0.0491783 0.380739 0.429917) 565 1121 2
(0.144393 0.0551394 0.427803 0.372664) 565 1123 2
(0.255673 0.0710724 0.301091 0.372164) 566 1126 1
(0.223421 0.107152 0.281137 0.388289) 567 1128 1
(0.139967 0.115156 0.314861 0.430017) 569 1132 1
(0.158802 0.126227 0.294372 0.420599) 570 1134 1
(0.284252 0.357874 0.0251617 0.332712) 571 987 2
(0.225469 0.387265 0.0423579 0.344908) 572 989 2
(0.255403 0.329354 0.372298 0.0429448) 600 1044 1
(0.259931 0.370034 0.0555963 0.314438) 601 1046 2
(0.236476 0.381762 0.164501 0.217261) 602 1048 2
(0.163853 0.418073 0.131275 0.286798) 603 1050 2
(0.198814 0.134765 0.265828 0.400593) 603 1199 1
(0.286421 0.356789 0.321325 0.0354649) 604 1201 2
(0.12696 0.0672559 0.369264 0.43652) 605 1200 2
(0.301006 0.221471 0.128026 0.349497) 605 1203 1
(0.352762 0.323619 0.0951052 0.228514) 606 1205 2
(0.0987725 0.148139 0.450614 0.302474) 606 1204 2
(0.341062 0.0860463 0.243423 0.329469) 607 1207 1
(0.312104 0.343948 0.244632 0.0993154) 609 1062 2
(0.296704 0.351648 0.222073 0.129575) 610 1064 2
(0.322761 0.33862 0.00359367 0.335026) 611 1212 1
(0.18287 0.408565 0.269921 0.138644) 611 1214 1
(0.231323 0.272861 0.384338 0.111477) 612 1068 1
(0.350808 0.324596 0.0280852 0.296511) 613 1216 1
(0.0776752 0.461162 0.216553 0.244609) 613 1218 1
(0.212602 0.374156 0.0195427 0.393699) 614 1221 1
(0.390849 0.247007 0.0575688 0.304575) 615 1223 1
(0.20453 0.23472 0.163015 0.397735) 617 1224 2
(0.249019 0.37549 0.352106 0.0233842) 618 1229 2
(0.11812 0.0102068 0.44094 0.430733) 619 1230 2
(0.178942 0.410529 0.248631 0.161898) 621 1235 2
(0.174018 0.263823 0.149168 0.412991) 622 1237 1
(0.296754 0.123012 0.351623 0.228611) 623 1090 1
(0.263318 0.109542 0.368341 0.258799) 624 1092 1
(0.27266 0.119951 0.36367 0.243719) 625 1094 1
(0.266148 0.207507 0.366926 0.15942) 626 1096 1
(0.254997 0.298748 0.372502 0.0737533) 627 1098 1
(0.288959 0.35552 0.0644947 0.291026) 628 1100 2
(0.370391 0.314805 0.0899119 0.224893) 629 1102 2
(0.453679 0.27316 0.0303312 0.242829) 630 1104 2
(0.418295 0.206502 0.290852 0.0843509) 631 1106 1
(0.57121 0.214395 0.00522357 0.209171) 632 1108 2
(0.189752 0.405124 0.373309 0.0318147) 633 1259 2
(0.176394 0.161439 0.250364 0.411803) 634 1261 1
(0.0199839 0.086629 0.403379 0.490008) 636 1262 2
(0.200374 0.399813 0.113989 0.285824) 637 1267 2
(0.172017 0.353042 0.0609497 0.413991) 638 1269 1
(0.12356 0.0415898 0.43822 0.39663) 639 1270 2
(0.199009 0.400495 0.0963701 0.304125) 641 1275 2
(0.214643 0.392679 0.117204 0.275475) 642 1277 2
(0.201676 0.399162 0.335159 0.0640033) 643 1279 2
(0.213972 0.168702 0.224312 0.393014) 644 1281 1
(0.0170181 0.20024 0.291251 0.491491) 646 1282 2
(0.252543 0.0958087 0.373728 0.27792) 646 1136 1
(0.232823 0.210127 0.383589 0.173462) 647 1138 1
(0.288669 0.355666 0.0319811 0.323685) 675 1193 2
(0.287888 0.356056 0.277811 0.0782453) 676 1195 2
(0.179446 0.410277 0.021696 0.388581) 677 1343 1
(0.292224 0.0324836 0.321404 0.353888) 677 1346 1
(0.269968 0.33911 0.0259062 0.365016) 678 1348 1
(0.212389 0.393806 0.0549679 0.338838) 679 1350 2
(0.262916 0.108198 0.260344 0.368542) 679 1350 1
(0.220471 0.389764 0.244542 0.145222) 680 1352 2
(0.23588 0.0209182 0.38206 0.361142) 680 1351 2
(0.244049 0.377976 0.339815 0.038161) 681 1354 2
(0.140532 0.0789578 0.350776 0.429734) 682 1353 2
(0.341968 0.030411 0.298605 0.329016) 682 1356 1
(0.348926 0.240159 0.085378 0.325537) 683 1358 1
(0.32147 0.339265 0.303855 0.0354104) 684 1360 2
(0.291854 0.354073 0.2819 0.0721727) 685 1362 2
(0.352954 0.152894 0.323523 0.170629) 686 1215 1
(0.342801 0.143846 0.328599 0.184753) 687 1217 1
(0.400142 0.204123 0.299929 0.095806) 688 1219 1
(0.640252 0.00593312 0.179874 0.173941) 689 1221 1
(0.360631 0.019355 0.319685 0.30033) 690 1223 1
(0.00596597 0.497017 0.160348 0.336669) 692 1373 1
(0.673593 0.163204 0.147296 0.0159072) 693 1375 1
(0.247985 0.376008 0.172801 0.203207) 695 1382 2
(0.251525 0.279601 0.0946362 0.374237) 696 1384 1
(0.00518427 0.114505 0.497408 0.382903) 697 1385 2
(0.199808 0.400096 0.22648 0.173616) 699 1390 2
(0.202292 0.350145 0.0487088 0.398854) 700 1392 1
(0.278906 0.360547 0.197288 0.163259) 701 1245 2
(0.287383 0.356309 0.0116329 0.344676) 702 1393 1
(0.106652 0.446674 0.365034 0.0816406) 702 1395 1
(0.257089 0.155735 0.371455 0.21572) 703 1249 1
(0.23166 0.38417 0.0015341 0.382636) 704 1251 2
(0.2658 0.3671 0.213116 0.153984) 705 1253 2
(0.274342 0.362829 0.347884 0.0149451) 706 1255 2
(0.246425 0.376788 0.241074 0.135714) 707 1257 2
(0.153105 0.156403 0.423447 0.267044) 708 1407 2
(0.264796 0.367602 0.0158187 0.351783) 710 1412 2
(0.253732 0.373134 0.309715 0.0634192) 711 1414 2
(0.248593 0.315665 0.0600383 0.375704) 712 1416 1
(0.245858 0.162319 0.214752 0.377071) 714 1417 2
(0.368112 0.222144 0.0937999 0.315944) 715 1422 1
(0.210199 0.0955229 0.299377 0.3949) 717 1423 2
(0.22287 0.384161 0.0044036 0.388565) 718 1428 1
(0.0309755 0.11498 0.484512 0.369532) 719 1429 2
(0.306023 0.201738 0.346989 0.14525) 720 1431 2
(0.415054 0.060369 0.292473 0.232104) 721 1285 1
(0.247852 0.264801 0.376074 0.111274) 722 1287 1
(0.20812 0.340138 0.39594 0.0558017) 723 1289 1
(0.277732 0.21851 0.361134 0.142624) 750 1342 1
(0.322376 0.304418 0.338812 0.0343944) 751 1344 1
(0.374162 0.312919 0.141622 0.171297) 752 1346 2
(0.0324503 0.0777621 0.406013 0.483775) 753 1494 2
(0.193557 0.0432259 0.359996 0.403222) 753 1497 1
(0.214959 0.222965 0.169556 0.392521) 754 1499 1
(0.142697 0.428651 0.346873 0.081778) 755 1501 2
(0.0167112 0.106371 0.491644 0.385273) 755 1500 2
(0.227643 0.265208 0.120971 0.386179) 756 1503 1
(0.231153 0.0246266 0.359797 0.384424) 757 1502 2
(0.244392 0.237968 0.139836 0.377804) 757 1505 1
(0.251039 0.37448 0.0355449 0.338936) 758 1507 2
(0.297664 0.0482559 0.302912 0.351168) 758 1507 1
(0.304063 0.272916 0.0750531 0.347969) 759 1509 1
(0.273344 0.363328 0.349605 0.013723) 760 1511 2
(0.273757 0.363122 0.133837 0.229285) 761 1510 1
(0.204226 0.397887 0.0357181 0.362169) 762 1512 1
(0.308722 0.103988 0.345639 0.241651) 763 1368 1
(0.270024 0.364988 0.179931 0.185056) 765 1372 2
(0.297016 0.351492 0.341312 0.01018) 766 1374 2
(0.0611605 0.46942 0.102889 0.366531) 767 1522 1
(0.0510001 0.303647 0.4745 0.170853) 768 1526 2
(0.0946482 0.223705 0.452676 0.228971) 769 1528 2
(0.0381613 0.272809 0.20811 0.480919) 771 1530 2
(0.430145 0.0779229 0.207004 0.284927) 772 1532 2
(0.378388 0.310806 0.0128951 0.297911) 773 1537 2
(0.221478 0.167603 0.221658 0.389261) 774 1539 1
(0.238394 0.380803 0.317601 0.0632024) 776 1543 2
(0.23159 0.232974 0.151231 0.384205) 777 1545 1
(0.0495541 0.0625552 0.475223 0.412668) 778 1546 2
(0.191387 0.404306 0.0163001 0.388006) 779 1400 2
(0.247236 0.376382 0.214615 0.161767) 780 1402 2
(0.0276934 0.486153 0.119153 0.367) 781 1550 1
(0.265666 0.107241 0.367167 0.259926) 781 1404 1
(0.277684 0.291097 0.361158 0.0700612) 782 1406 1
(0.366991 0.316504 0.175863 0.140641) 783 1408 2
(0.402502 0.298749 0.252408 0.046341) 784 1410 2
(0.561054 0.145993 0.219473 0.0734802) 785 1560 2
(0.200067 0.203058 0.196909 0.399966) 787 1562 2
(0.238393 0.237257 0.143547 0.380804) 788 1564 2
(0.337224 0.331388 0.0412074 0.290181) 789 1566 1
(0.53106 0.23447 0.19542 0.0390502) 790 1570 1
(0.0889356 0.455532 0.144941 0.310591) 792 1572 1
(0.21685 0.391575 0.0393387 0.352236) 793 1576 1
(0.301172 0.171232 0.349414 0.178182) 795 1580 2
(0.251954 0.0759286 0.298094 0.374023) 796 1583 1
(0.456397 0.271801 0.0756657 0.196136) 797 1584 1
(0.199552 0.29983 0.100394 0.400224) 798 1587 1
(0.207678 0.295733 0.100428 0.396161) 799 1589 1
(0.205336 0.397332 0.0742356 0.323096) 826 1642 2
(0.187939 0.40603 0.319453 0.086577) 827 1644 2
(0.186284 0.406858 0.383795 0.0230625) 828 1646 2
(0.200554 0.344483 0.0552396 0.399723) 829 1648 1
(0.184072 0.283653 0.124311 0.407964) 830 1650 1
(0.182288 0.254635 0.154221 0.408856) 831 1652 1
(0.175261 0.312263 0.100106 0.412369) 832 1654 1
(0.131234 0.295162 0.139221 0.434383) 833 1656 1
(0.289953 0.355023 0.105241 0.249783) 834 1658 2
(0.159832 0.0182323 0.420084 0.401851) 834 1657 2
(0.330699 0.292354 0.0422972 0.334651) 835 1660 1
(0.293615 0.353193 0.208223 0.144969) 836 1662 2
(0.102914 0.448543 0.185666 0.262877) 837 1664 2
(0.159981 0.0456845 0.42001 0.374325) 837 1663 2
(0.112361 0.44382 0.0902647 0.353555) 838 1663 1
(0.317265 0.0541714 0.341367 0.287196) 838 1517 1
(0.0357055 0.482147 0.203566 0.278582) 765 1521 2
(0.258804 0.370598 0.326769 0.0438292) 841 1523 2
(0.216292 0.391854 0.30728 0.0845738) 842 1525 2
(0.288415 0.355793 0.212679 0.143114) 843 1527 2
(0.488319 0.25584 0.0760443 0.179796) 844 1675 1
(0.357887 0.321057 0.0345024 0.286554) 845 1677 1
(0.303981 0.348009 0.347458 0.000551766) 846 1533 2
(0.287337 0.356332 0.0166153 0.339716) 847 1681 1
(0.448842 0.197461 0.275579 0.0781185) 848 1537 1
(0.110136 0.0607134 0.444932 0.384219) 849 1687 2
(0.229168 0.385416 0.143918 0.241498) 851 1692 2
(0.230449 0.384775 0.297617 0.0871583) 852 1694 2
(0.169293 0.392869 0.0224843 0.415354) 853 1696 1
(0.326213 0.317141 0.0197523 0.336893) 854 1698 1
(0.240197 0.379902 0.130971 0.248931) 855 1551 2
(0.266408 0.366796 0.168646 0.19815) 856 1553 2
(0.276814 0.361593 0.238368 0.123225) 857 1555 2
(0.287736 0.356132 0.327532 0.0285996) 858 1557 2
(0.151818 0.424091 0.0572691 0.366822) 859 1705 1
(0.0555718 0.472214 0.345749 0.126465) 859 1707 1
(0.210042 0.394979 0.328185 0.0667946) 860 1709 1
(0.261134 0.369433 0.318509 0.050924) 861 1711 1
(0.240574 0.379713 0.0577761 0.321937) 863 1713 1
(0.212867 0.0374599 0.393567 0.356107) 864 1569 1
(0.129541 0.435229 0.39452 0.0407096) 865 1719 1
(0.0945754 0.452712 0.0599329 0.392779) 867 1721 1
(0.170322 0.0435702 0.414839 0.371269) 869 1579 1
(0.391075 0.0415876 0.304463 0.262875) 870 1581 1
(0.15973 0.420135 0.127363 0.292772) 871 1732 2
(0.0903581 0.086793 0.454821 0.368028) 871 1731 2
(0.226468 0.0930735 0.293692 0.386766) 872 1734 1
(0.17642 0.130544 0.281247 0.41179) 873 1736 1
(0.252747 0.373626 0.0663411 0.307285) 900 1789 2
(0.244986 0.377507 0.0425334 0.334974) 901 1791 2
(0.232001 0.383999 0.354301 0.0296982) 977 1793 2
(0.235168 0.382416 0.377712 0.00470425) 978 1795 2
(0.190209 0.404895 0.403931 0.000964483) 979 1797 2
(0.167536 0.416232 0.337486 0.0787461) 980 1799 2
(0.190242 0.288071 0.404879 0.116808) 981 1801 1
(0.214173 0.245368 0.392914 0.147546) 983 1805 1
(0.289149 0.229934 0.125492 0.355425) 909 1807 1
(0.735403 0.132299 0.0163073 0.115991) 910 1808 1
(0.0965445 0.451728 0.381685 0.0700428) 986 1959 1
(0.242988 0.378506 0.258813 0.119693) 988 1815 2
(0.156913 0.0452496 0.376294 0.421544) 914 1814 2
(0.28031 0.226897 0.359845 0.132948) 914 1668 1
(0.300627 0.349687 0.0234063 0.32628) 915 1670 2
(0.278408 0.360796 0.0900051 0.270791) 916 1672 2
(0.210222 0.394889 0.084984 0.309905) 917 1674 2
(0.254763 0.372619 0.132032 0.240587) 918 1676 2