/*--------------------------------*- C++ -*----------------------------------*\
  =========                 |
  \\      /  F ield         | OpenFOAM: The Open Source CFD Toolbox
   \\    /   O peration     | Website:  https://openfoam.org
    \\  /    A nd           | Version:  12
     \\/     M anipulation  |
\*---------------------------------------------------------------------------*/
FoamFile
{
    format      ascii;
    class       vectorField;
    location    "0.55/lagrangian/cloud";
    object      U;
}
// * * * * * * * * * * * * * * * * * * * * * * * * * * * * * * * * * * * * * //


2433
(
(0.000348675 -0.029181 0)
(-7.49833e-05 -0.0283227 0)
(0.000150529 -0.0286134 0)
(0.000142629 -0.0289345 0)
(0.000265778 -0.0294639 0)
(0.000209244 -0.0293338 0)
(0.000374018 -0.0292385 0)
(0.000218571 -0.0300205 0)
(0.000332353 -0.0311237 0)
(0.00159271 -0.0300602 0)
(0.000271568 -0.0260896 0)
(-0.000135297 -0.0269707 0)
(-0.000832484 -0.0260687 0)
(1.21268e-05 -0.0272901 0)
(-0.000414073 -0.0278 0)
(0.000299668 -0.0262723 0)
(-4.13053e-05 -0.0273681 0)
(-0.00102875 -0.0299602 0)
(-0.000879797 -0.0302606 0)
(-0.00207963 -0.0302953 0)
(-0.000115647 -0.0298575 0)
(-6.50428e-05 -0.0291638 0)
(-0.000147108 -0.0316937 0)
(-0.000306882 -0.0356016 0)
(-2.29296e-06 -0.0293524 0)
(-0.000514548 -0.0283273 0)
(0.000657548 -0.0305581 0)
(0.000480934 -0.0300969 0)
(-4.99723e-05 -0.0330323 0)
(0.00107973 -0.0327489 0)
(0.000555793 -0.0313706 0)
(8.02576e-05 -0.0315593 0)
(0.000204316 -0.0340313 0)
(-1.48033e-05 -0.0314259 0)
(-0.000915406 -0.0311427 0)
(-0.000476884 -0.0311538 0)
(0.00041588 -0.0300647 0)
(-0.000614721 -0.0295876 0)
(-0.000183386 -0.0327232 0)
(-0.000428129 -0.0313763 0)
(0.000617974 -0.0321844 0)
(0.00122285 -0.0323689 0)
(-0.000457248 -0.0338096 0)
(-0.000357404 -0.0326261 0)
(0.000902946 -0.0346023 0)
(0.000589788 -0.0318756 0)
(0.00115123 -0.0316736 0)
(-0.000981551 -0.0298843 0)
(0.00400897 -0.02976 0)
(0.000506375 -0.0308724 0)
(0.000864359 -0.0335132 0)
(0.00047084 -0.03425 0)
(0.000269167 -0.0352306 0)
(0.000316247 -0.0354041 0)
(0.000117675 -0.0362942 0)
(0.000134035 -0.0377495 0)
(0.0004445 -0.0370602 0)
(0.000566697 -0.0360099 0)
(-0.000728259 -0.0390026 0)
(-0.000223895 -0.0380366 0)
(0.000293989 -0.0383467 0)
(0.000671852 -0.036559 0)
(-0.000267058 -0.0369011 0)
(0.000353045 -0.0365427 0)
(0.000344798 -0.0370293 0)
(0.000518588 -0.0370418 0)
(-0.000309409 -0.0358712 0)
(-0.00177079 -0.0282345 0)
(-0.000588825 -0.028655 0)
(-0.000352468 -0.0285222 0)
(0.000296441 -0.0258719 0)
(-2.70373e-06 -0.0216126 0)
(0.00193435 -0.0312279 0)
(0.00217316 -0.0338425 0)
(-0.000366429 -0.0302065 0)
(-0.000434238 -0.0328268 0)
(-0.000972365 -0.0329093 0)
(0.00100232 -0.0328952 0)
(-0.000392379 -0.034129 0)
(0.000231193 -0.0371438 0)
(-0.00234644 -0.031499 0)
(-0.000959436 -0.0314407 0)
(0.000390601 -0.0309042 0)
(0.000255575 -0.0314221 0)
(-5.8371e-05 -0.0319195 0)
(-0.00164546 -0.0326378 0)
(0.000389075 -0.038628 0)
(0.000647226 -0.0366195 0)
(-0.000358874 -0.0351061 0)
(0.00179561 -0.0322802 0)
(3.57678e-05 -0.0281665 0)
(-0.000101472 -0.030854 0)
(0.000977289 -0.0359387 0)
(0.000412821 -0.0339645 0)
(9.04953e-05 -0.0353699 0)
(1.23919e-06 -0.0360888 0)
(0.000135255 -0.0361423 0)
(0.000547324 -0.0370633 0)
(0.000843225 -0.0383057 0)
(0.00038826 -0.0403474 0)
(-0.00152759 -0.0367562 0)
(-0.000398157 -0.0348307 0)
(5.22966e-05 -0.032967 0)
(0.00116879 -0.0349448 0)
(-0.000417507 -0.0347689 0)
(0.000428446 -0.0349244 0)
(0.000594255 -0.0360308 0)
(-0.000350275 -0.0355331 0)
(-0.00052041 -0.0344655 0)
(0.000350773 -0.047427 0)
(0.00118338 -0.044932 0)
(-0.00018254 -0.0443551 0)
(-7.3954e-05 -0.0439471 0)
(0.000327509 -0.0461714 0)
(-0.000250036 -0.0455625 0)
(0.000773965 -0.0424845 0)
(0.000797859 -0.0391907 0)
(0.000244945 -0.0382934 0)
(-0.00172415 -0.0363398 0)
(-0.00163252 -0.0440046 0)
(-0.000201426 -0.0415519 0)
(0.00110923 -0.0404472 0)
(-0.000792886 -0.0414103 0)
(-0.000526284 -0.0424974 0)
(9.36872e-05 -0.0420566 0)
(-0.00138889 -0.0344953 0)
(-0.00125884 -0.038023 0)
(-0.00139155 -0.0405589 0)
(0.000124446 -0.0384511 0)
(1.916e-05 -0.0380378 0)
(0.000233548 -0.0388548 0)
(-0.000158819 -0.0385672 0)
(-0.000176145 -0.0384955 0)
(-0.000103534 -0.0373908 0)
(-0.000233885 -0.0345556 0)
(-0.000841355 -0.0397129 0)
(0.000183601 -0.0403411 0)
(0.000215997 -0.0399879 0)
(8.02747e-05 -0.0409906 0)
(-6.77111e-05 -0.0444143 0)
(-0.000392578 -0.0427598 0)
(0.000414669 -0.0421548 0)
(0.000108596 -0.0452275 0)
(0.000452321 -0.0454467 0)
(-4.28747e-05 -0.0470125 0)
(0.000909528 -0.0457833 0)
(0.000726867 -0.0433696 0)
(0.00132309 -0.0427182 0)
(0.000121061 -0.0432728 0)
(-0.000143164 -0.0431653 0)
(0.000172099 -0.0432792 0)
(-0.000746382 -0.0422554 0)
(-0.000165723 -0.0423252 0)
(0.00045868 -0.0418393 0)
(-0.00182351 -0.0397253 0)
(-0.000220295 -0.044653 0)
(8.55417e-05 -0.0443326 0)
(-0.000822381 -0.0432566 0)
(3.249e-06 -0.0437999 0)
(0.000165653 -0.0429549 0)
(0.000346187 -0.0453728 0)
(-4.09805e-05 -0.0469479 0)
(-0.000235108 -0.0478155 0)
(0.000202486 -0.0445183 0)
(-6.72061e-05 -0.0458176 0)
(0.000769674 -0.0450432 0)
(-0.000704647 -0.0447215 0)
(-0.000739092 -0.0439418 0)
(-0.000342832 -0.0410025 0)
(-0.00113275 -0.0431056 0)
(-0.00105544 -0.0429069 0)
(0.000492633 -0.040564 0)
(0.000618055 -0.0409734 0)
(0.000468381 -0.0428842 0)
(-0.000758828 -0.0408151 0)
(-0.000305454 -0.0413096 0)
(0.000202029 -0.0418002 0)
(7.82802e-05 -0.0421739 0)
(-0.000175564 -0.042726 0)
(-0.000945497 -0.0411527 0)
(0.000690033 -0.0441678 0)
(-9.0891e-05 -0.0456468 0)
(0.000366856 -0.0419845 0)
(0.00160313 -0.0425905 0)
(-0.00104276 -0.0436201 0)
(0.000172765 -0.0448697 0)
(-0.000538757 -0.0445534 0)
(-0.000237644 -0.0446907 0)
(-6.73246e-05 -0.0447605 0)
(0.000112487 -0.0448409 0)
(8.1998e-05 -0.0465895 0)
(0.000373512 -0.0463909 0)
(-0.00124156 -0.0451494 0)
(-0.000204127 -0.0445653 0)
(0.00028769 -0.0444779 0)
(-0.000234961 -0.0451418 0)
(-0.000200131 -0.0448226 0)
(0.000164681 -0.0459546 0)
(0.000162175 -0.0464538 0)
(0.000228832 -0.0461049 0)
(0.000157709 -0.0455813 0)
(-0.000190292 -0.0445328 0)
(0.000711661 -0.0455961 0)
(-0.00132477 -0.0447378 0)
(-0.00066384 -0.0452231 0)
(0.000802955 -0.0451945 0)
(0.000188592 -0.0479623 0)
(-0.000139269 -0.0473567 0)
(-0.000259604 -0.0477892 0)
(-0.00082143 -0.0466731 0)
(0.000883703 -0.0451091 0)
(-0.000224035 -0.045312 0)
(-0.00114039 -0.04561 0)
(-0.000261204 -0.0452775 0)
(-0.000757957 -0.045691 0)
(-0.000976599 -0.0451591 0)
(-0.000364136 -0.0442413 0)
(-0.000549558 -0.0435101 0)
(0.000496146 -0.0416118 0)
(0.00102446 -0.0431501 0)
(0.000473308 -0.0436021 0)
(0.000360023 -0.0425537 0)
(4.88418e-05 -0.043853 0)
(0.000112594 -0.0442576 0)
(0.000164828 -0.0455985 0)
(0.00185281 -0.046421 0)
(-0.000266129 -0.0440562 0)
(1.1135e-05 -0.0441208 0)
(-0.000638404 -0.0451289 0)
(0.000609262 -0.0429545 0)
(0.000357644 -0.0453864 0)
(-0.000132579 -0.0451562 0)
(-0.000216274 -0.0443001 0)
(0.000304492 -0.0434172 0)
(0.00272338 -0.0432399 0)
(0.000281539 -0.0445003 0)
(0.00026336 -0.0446981 0)
(-7.65924e-05 -0.04614 0)
(0.000244025 -0.0466192 0)
(-0.000475594 -0.0463595 0)
(0.000193211 -0.0459181 0)
(0.000217298 -0.0443051 0)
(0.000507558 -0.0456946 0)
(-0.000159645 -0.0461078 0)
(-0.000346636 -0.0458561 0)
(0.000162493 -0.0451713 0)
(-4.1252e-05 -0.0419639 0)
(0.000908941 -0.0427302 0)
(0.000718039 -0.0434765 0)
(0.000410513 -0.0420641 0)
(0.000357334 -0.0424822 0)
(0.000115063 -0.042948 0)
(-0.000107772 -0.0478404 0)
(-0.00025595 -0.0471943 0)
(0.000782275 -0.0459594 0)
(0.000346403 -0.0455944 0)
(0.000223438 -0.0451577 0)
(-1.0477e-05 -0.0445507 0)
(-0.000175727 -0.0455324 0)
(-0.000293918 -0.0455702 0)
(1.87616e-05 -0.0450968 0)
(-0.000511215 -0.0452448 0)
(-0.00031768 -0.0446811 0)
(-0.000300351 -0.044578 0)
(0.000570142 -0.0412883 0)
(0.00149857 -0.0430354 0)
(0.000765159 -0.04628 0)
(0.000325258 -0.0472361 0)
(0.000568081 -0.0459384 0)
(0.000514051 -0.0448051 0)
(6.29516e-05 -0.0451904 0)
(-0.000422864 -0.0464293 0)
(-0.000251085 -0.0468941 0)
(-2.00578e-05 -0.0469338 0)
(-0.001787 -0.046005 0)
(0.000744455 -0.0459017 0)
(-0.000879264 -0.0459817 0)
(-0.000806369 -0.0470782 0)
(0.000235745 -0.0465507 0)
(9.5935e-05 -0.0458862 0)
(2.79e-05 -0.0436943 0)
(2.08031e-05 -0.0448649 0)
(0.000188463 -0.0450805 0)
(0.000246419 -0.045997 0)
(0.00036863 -0.0464693 0)
(0.000851164 -0.0461735 0)
(0.000154369 -0.0466952 0)
(0.000615357 -0.0473102 0)
(-0.00145839 -0.0468103 0)
(-0.000220488 -0.0473725 0)
(-0.000335707 -0.0471918 0)
(-0.000501653 -0.0479949 0)
(-0.000164376 -0.0484436 0)
(0.000638949 -0.0448454 0)
(0.000343921 -0.0475601 0)
(-0.000692629 -0.0476996 0)
(-0.000266504 -0.0460994 0)
(0.000513212 -0.0432171 0)
(-0.000268009 -0.0475637 0)
(-0.000277997 -0.0470032 0)
(-3.2952e-05 -0.0463608 0)
(-9.4962e-05 -0.0471054 0)
(-0.00119478 -0.041437 0)
(-0.000195117 -0.0441389 0)
(0.000123339 -0.0442337 0)
(-0.000164133 -0.0448223 0)
(-0.000344827 -0.0449633 0)
(-0.000187705 -0.0445745 0)
(0.000128972 -0.0446681 0)
(-4.73399e-05 -0.045794 0)
(-0.000175265 -0.0460365 0)
(-0.000415927 -0.0450583 0)
(0.00102622 -0.043759 0)
(0.000684663 -0.0460596 0)
(0.000429744 -0.0462042 0)
(0.00031566 -0.0485336 0)
(-0.000404763 -0.0500442 0)
(0.000195505 -0.0504052 0)
(-4.44904e-05 -0.0499836 0)
(0.000246743 -0.0489158 0)
(0.000123233 -0.048162 0)
(9.49772e-05 -0.0485115 0)
(0.000207841 -0.0483974 0)
(-0.00157229 -0.0479261 0)
(-0.000558151 -0.0476612 0)
(-0.00055489 -0.047704 0)
(-0.000116025 -0.0479385 0)
(-0.000513423 -0.0468529 0)
(-0.000308937 -0.0466762 0)
(-0.000181679 -0.0449966 0)
(-0.000475645 -0.0457397 0)
(-0.000577208 -0.045597 0)
(0.000451395 -0.0454167 0)
(0.00077526 -0.0463254 0)
(0.000263242 -0.0466549 0)
(6.74339e-05 -0.0470802 0)
(-5.38983e-05 -0.0473032 0)
(0.000299621 -0.0457384 0)
(0.000703059 -0.0456325 0)
(-0.000456326 -0.0468835 0)
(-0.00106777 -0.047297 0)
(8.33188e-05 -0.048903 0)
(0.000147133 -0.0481106 0)
(0.000513661 -0.0473204 0)
(-0.000551257 -0.047902 0)
(0.000102048 -0.0455687 0)
(-0.000522236 -0.0461801 0)
(-0.000287082 -0.045781 0)
(-0.00052295 -0.04603 0)
(0.000405383 -0.0467626 0)
(-0.000431442 -0.0422798 0)
(0.000659786 -0.0484396 0)
(7.6684e-05 -0.0486736 0)
(-6.42063e-05 -0.0482973 0)
(-0.000555238 -0.0469002 0)
(-2.03823e-05 -0.0471167 0)
(-2.53402e-05 -0.0473294 0)
(-0.000122358 -0.0463834 0)
(5.97411e-05 -0.0460111 0)
(0.00142289 -0.0461944 0)
(-0.00168682 -0.0453887 0)
(-0.000596699 -0.0456843 0)
(0.00105464 -0.0480036 0)
(0.000759908 -0.0487337 0)
(-0.000583702 -0.0508084 0)
(-0.000446377 -0.0528717 0)
(0.000146447 -0.0520037 0)
(0.000337184 -0.0504911 0)
(-0.000363965 -0.0503997 0)
(0.000359865 -0.0494238 0)
(0.000315323 -0.0492925 0)
(-0.000196926 -0.0481691 0)
(-9.70474e-05 -0.0486531 0)
(-3.41516e-05 -0.04849 0)
(0.000107281 -0.0485213 0)
(0.000333789 -0.0477503 0)
(-0.000650177 -0.0511037 0)
(-0.000143491 -0.0497006 0)
(-2.85558e-05 -0.0466709 0)
(0.000273269 -0.0483849 0)
(0.000173873 -0.0479191 0)
(0.000581996 -0.047393 0)
(-0.000197639 -0.0468762 0)
(2.65825e-05 -0.0474406 0)
(2.53365e-05 -0.0475222 0)
(0.000197334 -0.0478523 0)
(0.000424994 -0.0473219 0)
(0.000414992 -0.0467344 0)
(0.000289778 -0.0459442 0)
(-0.000221348 -0.0476247 0)
(-0.000222581 -0.0463301 0)
(0.000456248 -0.0460648 0)
(-0.000230447 -0.048166 0)
(0.00057332 -0.0483826 0)
(0.00021792 -0.0461216 0)
(0.000168661 -0.0475362 0)
(-0.000301962 -0.0476127 0)
(-0.0011172 -0.0457613 0)
(-0.000177859 -0.0474225 0)
(-0.000975678 -0.0487964 0)
(-0.000257749 -0.0472405 0)
(0.000784574 -0.0476471 0)
(0.000587382 -0.051186 0)
(-0.000848511 -0.0498119 0)
(-0.000700686 -0.0499966 0)
(-0.000396336 -0.0516499 0)
(-7.00042e-05 -0.0518043 0)
(0.000329617 -0.0516748 0)
(0.000807747 -0.0497077 0)
(0.000735185 -0.0485925 0)
(0.000551636 -0.0519205 0)
(0.00146286 -0.0494426 0)
(0.000553099 -0.0497392 0)
(-0.000335214 -0.0526153 0)
(-0.000944048 -0.0527804 0)
(-0.000260094 -0.0522605 0)
(0.000323888 -0.0521333 0)
(0.000254741 -0.0498139 0)
(-7.56925e-05 -0.0495633 0)
(-0.000886504 -0.0505535 0)
(-0.000472613 -0.0498804 0)
(-0.000274813 -0.0499318 0)
(-3.26778e-05 -0.0494298 0)
(0.000248837 -0.05017 0)
(-3.03315e-05 -0.0506011 0)
(0.000524938 -0.0496359 0)
(-0.000969767 -0.0487672 0)
(-4.41903e-05 -0.0479722 0)
(-0.000170689 -0.0475475 0)
(-0.000366764 -0.0493535 0)
(0.000282718 -0.0486406 0)
(0.000178346 -0.0465553 0)
(8.6142e-05 -0.0476919 0)
(-1.80979e-05 -0.0472667 0)
(0.000459641 -0.0483463 0)
(7.09841e-05 -0.0467418 0)
(0.000207921 -0.0461325 0)
(-0.000215487 -0.0460553 0)
(8.1497e-05 -0.0453993 0)
(-0.000158074 -0.0434192 0)
(-0.000373985 -0.0445382 0)
(0.000480805 -0.0456249 0)
(0.000439228 -0.0451978 0)
(0.000613581 -0.0471063 0)
(-0.00130333 -0.0465415 0)
(0.000943979 -0.0466407 0)
(-0.000512252 -0.0470293 0)
(0.000392632 -0.0472534 0)
(0.000647623 -0.0479225 0)
(0.000109038 -0.0483833 0)
(-0.00120397 -0.0487133 0)
(-0.000556753 -0.0501878 0)
(0.000718822 -0.0507308 0)
(0.0014222 -0.0513564 0)
(-0.000273904 -0.0525769 0)
(-0.000223449 -0.0539457 0)
(-0.00027179 -0.0544963 0)
(0.00136348 -0.0534706 0)
(0.000868522 -0.0530193 0)
(0.000442957 -0.0522494 0)
(-0.000731924 -0.0514141 0)
(-0.000572182 -0.0535531 0)
(-0.000715616 -0.0525529 0)
(0.000134251 -0.0544926 0)
(-0.000403056 -0.0514421 0)
(-0.000104595 -0.0488297 0)
(-0.000167466 -0.0498158 0)
(-3.37016e-05 -0.0485478 0)
(0.000549755 -0.0482686 0)
(0.000479784 -0.0510026 0)
(3.31788e-05 -0.0506038 0)
(0.000434096 -0.0490123 0)
(0.000128864 -0.0474932 0)
(0.000106716 -0.048906 0)
(0.000322782 -0.0490162 0)
(-0.000365237 -0.0488741 0)
(-0.000368337 -0.0491066 0)
(0.000280515 -0.0513312 0)
(0.000208438 -0.0485968 0)
(-0.000185443 -0.0473634 0)
(0.000681166 -0.0472142 0)
(-0.000248375 -0.0468924 0)
(0.00182169 -0.0460281 0)
(-0.000372901 -0.0445615 0)
(0.000275932 -0.0452925 0)
(-6.75119e-05 -0.044069 0)
(0.000849126 -0.0415995 0)
(5.13375e-05 -0.0420842 0)
(0.000294254 -0.0438959 0)
(0.000518002 -0.0443059 0)
(-0.00130026 -0.0444655 0)
(9.25993e-05 -0.0458516 0)
(0.000257422 -0.0475042 0)
(0.00106708 -0.0448268 0)
(6.03997e-05 -0.0452686 0)
(8.56342e-05 -0.0456297 0)
(-3.97917e-06 -0.0466652 0)
(0.000695276 -0.0470057 0)
(-0.00161582 -0.0461477 0)
(-0.00085496 -0.0465877 0)
(-0.000420612 -0.0466002 0)
(0.00125773 -0.0469855 0)
(-0.000135534 -0.0487494 0)
(-0.000766827 -0.0502687 0)
(-0.00130421 -0.0502519 0)
(0.000577744 -0.0541107 0)
(0.000161628 -0.0537343 0)
(-0.000439087 -0.0522493 0)
(0.000627805 -0.0495194 0)
(0.000201993 -0.0511795 0)
(0.000146156 -0.0508134 0)
(-0.000587435 -0.0515961 0)
(-0.000193581 -0.0509092 0)
(-8.00867e-05 -0.049354 0)
(-0.000470645 -0.0494906 0)
(0.000650597 -0.0482435 0)
(0.000402824 -0.047241 0)
(0.000379838 -0.0461972 0)
(8.53678e-05 -0.0464629 0)
(-0.000514649 -0.044798 0)
(-0.000597301 -0.0453604 0)
(-3.02744e-05 -0.0475017 0)
(-0.000478637 -0.0466941 0)
(-0.00169634 -0.0463164 0)
(-0.000287716 -0.047608 0)
(7.03928e-06 -0.0490353 0)
(-9.99394e-05 -0.048921 0)
(-0.00015321 -0.0477065 0)
(-0.00018501 -0.0467002 0)
(6.31476e-05 -0.047391 0)
(0.00104484 -0.0465123 0)
(0.00101787 -0.0440809 0)
(0.000531607 -0.045201 0)
(0.00052839 -0.0450963 0)
(0.000111874 -0.043732 0)
(-0.000173807 -0.0426925 0)
(-0.000431527 -0.0441093 0)
(-0.000258546 -0.0461474 0)
(-0.00119772 -0.047073 0)
(0.0010123 -0.0455141 0)
(0.0005213 -0.0457771 0)
(0.000719122 -0.0448768 0)
(0.000157605 -0.043804 0)
(-3.19798e-05 -0.0432278 0)
(3.00034e-05 -0.0423826 0)
(-0.000406651 -0.0412466 0)
(-0.00109712 -0.0410356 0)
(-0.000281169 -0.0397596 0)
(0.000298608 -0.0386721 0)
(2.78133e-05 -0.0405013 0)
(-0.00106805 -0.0427498 0)
(8.45609e-06 -0.0430995 0)
(0.000906611 -0.0420954 0)
(3.25752e-05 -0.0447156 0)
(4.74254e-05 -0.0431696 0)
(-3.27766e-05 -0.0483233 0)
(-0.000229681 -0.0492288 0)
(-0.000197814 -0.0503207 0)
(-0.000495552 -0.0512319 0)
(-0.000363714 -0.0506 0)
(5.09853e-05 -0.0497963 0)
(0.000595594 -0.0489546 0)
(-0.000566588 -0.0480886 0)
(4.45638e-05 -0.0471753 0)
(-7.52168e-06 -0.0485756 0)
(0.000279147 -0.0464578 0)
(0.000223211 -0.0459077 0)
(-5.93177e-05 -0.0458627 0)
(-3.7378e-05 -0.0455565 0)
(0.000325064 -0.0476718 0)
(-0.000100284 -0.0472855 0)
(-4.25539e-05 -0.0480122 0)
(-0.000219577 -0.0485576 0)
(-4.00193e-05 -0.0484697 0)
(-0.000486417 -0.0480083 0)
(-0.00030777 -0.0474114 0)
(0.000291134 -0.047682 0)
(0.000207895 -0.0466213 0)
(0.000815926 -0.0441798 0)
(-3.74361e-05 -0.043971 0)
(0.000662629 -0.0449811 0)
(-0.00142594 -0.04168 0)
(0.00107358 -0.0424352 0)
(-0.000184732 -0.0445975 0)
(0.000123733 -0.0453593 0)
(-0.000170601 -0.0465136 0)
(-0.00110175 -0.0487914 0)
(0.000482567 -0.0458882 0)
(0.000724163 -0.0457506 0)
(0.000569482 -0.0461568 0)
(0.000473886 -0.0458991 0)
(-4.34157e-05 -0.0449138 0)
(-0.000627151 -0.0438542 0)
(-0.00121063 -0.0429952 0)
(0.000590678 -0.0407608 0)
(-1.59644e-05 -0.0397167 0)
(0.000800465 -0.0387849 0)
(8.60975e-05 -0.040721 0)
(0.000149412 -0.0372647 0)
(-0.000152409 -0.0357969 0)
(-0.000103051 -0.0367246 0)
(0.000224573 -0.0397594 0)
(1.51797e-05 -0.0421615 0)
(0.000402279 -0.0444268 0)
(6.79642e-05 -0.0451762 0)
(-0.00232987 -0.0472425 0)
(0.000269766 -0.0451905 0)
(-0.00305245 -0.0451168 0)
(0.000558405 -0.0471967 0)
(-0.000580495 -0.0468329 0)
(-0.00102586 -0.0455961 0)
(-0.000125439 -0.0460898 0)
(-0.000313897 -0.0465799 0)
(-6.50297e-05 -0.0466887 0)
(0.000147104 -0.0461812 0)
(0.000164408 -0.0458828 0)
(0.000448635 -0.0456955 0)
(-0.000564519 -0.0459884 0)
(-0.00042288 -0.0468196 0)
(-0.000309954 -0.0475437 0)
(-0.000256606 -0.0480091 0)
(0.000619866 -0.0481591 0)
(0.000199409 -0.048097 0)
(0.000618235 -0.0465029 0)
(-0.00101372 -0.0470981 0)
(-0.000456632 -0.046054 0)
(-0.00109402 -0.0425417 0)
(-6.84434e-05 -0.0428328 0)
(0.000732478 -0.0417417 0)
(0.00178623 -0.0415413 0)
(0.000927515 -0.042309 0)
(0.00121952 -0.0417516 0)
(-0.000105577 -0.0439354 0)
(0.000134814 -0.0451519 0)
(0.00112814 -0.0468907 0)
(0.000194978 -0.0468797 0)
(0.00148702 -0.044558 0)
(0.000115957 -0.0452092 0)
(0.00030725 -0.0467222 0)
(0.000184323 -0.0448205 0)
(-0.000555528 -0.0472974 0)
(0.00180916 -0.0398574 0)
(-0.00105601 -0.041218 0)
(-0.000136875 -0.042627 0)
(-4.53276e-05 -0.0421573 0)
(-0.000205086 -0.0459648 0)
(-0.000179795 -0.0464245 0)
(0.000808665 -0.0453544 0)
(0.000782044 -0.0444327 0)
(0.000741927 -0.0437558 0)
(0.00140676 -0.0420818 0)
(-0.000298198 -0.0447334 0)
(0.000508007 -0.0465009 0)
(0.000142372 -0.0466812 0)
(2.84856e-05 -0.045698 0)
(2.65501e-05 -0.045572 0)
(0.000690139 -0.045323 0)
(-0.000953065 -0.0452818 0)
(-0.000268548 -0.0445017 0)
(-0.000587077 -0.0451752 0)
(-0.000610146 -0.0451838 0)
(2.59422e-05 -0.0441919 0)
(0.000246983 -0.0456622 0)
(-7.173e-06 -0.0465853 0)
(-0.000301509 -0.0471365 0)
(0.000182693 -0.0472542 0)
(0.000434122 -0.0460555 0)
(-2.69257e-05 -0.0461583 0)
(0.000319986 -0.0449273 0)
(0.000600821 -0.0466226 0)
(-0.000238005 -0.0455971 0)
(-0.000285166 -0.0456407 0)
(-0.000363501 -0.0456868 0)
(3.13055e-05 -0.0447465 0)
(1.53502e-06 -0.0422807 0)
(0.00190018 -0.0403801 0)
(0.00100846 -0.0410263 0)
(0.000133897 -0.0445689 0)
(-0.000378163 -0.044725 0)
(0.000684824 -0.0445399 0)
(0.0014906 -0.0437929 0)
(-0.000315024 -0.0467375 0)
(-9.23808e-05 -0.0422003 0)
(0.000629166 -0.0438952 0)
(0.00115375 -0.0439265 0)
(-0.000411249 -0.0443822 0)
(-0.000558447 -0.0468882 0)
(0.000221377 -0.0465328 0)
(-0.00020062 -0.0482402 0)
(0.000542581 -0.0480696 0)
(-0.000418408 -0.0473352 0)
(-0.000905987 -0.0488612 0)
(-0.000265701 -0.0488335 0)
(-0.000229527 -0.048211 0)
(1.76556e-05 -0.0473903 0)
(0.000190236 -0.0460066 0)
(0.000352128 -0.0451979 0)
(0.00112804 -0.0449755 0)
(0.000568645 -0.0443701 0)
(0.000638619 -0.045047 0)
(0.000396026 -0.0437127 0)
(0.000213386 -0.0416009 0)
(-0.000192446 -0.0433392 0)
(0.000232329 -0.0443129 0)
(-0.000546671 -0.0464001 0)
(-0.0014196 -0.0465989 0)
(0.000154047 -0.0451276 0)
(-0.000789065 -0.0428647 0)
(-0.000758965 -0.0439646 0)
(-0.000580614 -0.0460718 0)
(0.000586383 -0.0469927 0)
(0.000573202 -0.0454647 0)
(0.000478342 -0.0450328 0)
(0.000507838 -0.0446693 0)
(-0.000258721 -0.0445435 0)
(-0.00043635 -0.0456254 0)
(-0.000714319 -0.0437486 0)
(-0.000494414 -0.0449827 0)
(-0.000217018 -0.0469423 0)
(-0.00087555 -0.0450083 0)
(0.0009979 -0.0471486 0)
(0.000417593 -0.0471137 0)
(-0.000773498 -0.044996 0)
(0.000209781 -0.0400574 0)
(-0.000961756 -0.0440429 0)
(-0.000889327 -0.0454185 0)
(-0.000517941 -0.0457785 0)
(-0.000202226 -0.0473839 0)
(-0.000488559 -0.0466052 0)
(-0.000520251 -0.0471343 0)
(-0.000564783 -0.046644 0)
(0.000120732 -0.0428237 0)
(-0.000184138 -0.0444501 0)
(0.000884411 -0.0464309 0)
(-0.000127441 -0.0478746 0)
(0.000821403 -0.0468007 0)
(-7.06536e-05 -0.0492728 0)
(-0.000443658 -0.0499748 0)
(-4.41955e-05 -0.0489991 0)
(-0.000333366 -0.0467039 0)
(0.00140949 -0.0464056 0)
(-0.000188753 -0.0472126 0)
(-0.000227292 -0.0479115 0)
(0.000154216 -0.0459635 0)
(0.000723738 -0.0453109 0)
(0.000194472 -0.0425778 0)
(0.000493317 -0.041944 0)
(0.000864823 -0.0428539 0)
(0.000125851 -0.0402707 0)
(0.0004899 -0.0410052 0)
(-0.00059322 -0.0434587 0)
(-0.00114522 -0.0452725 0)
(-0.00147868 -0.0433965 0)
(-0.00114836 -0.0431575 0)
(-0.000147701 -0.0447863 0)
(-0.000127191 -0.0439586 0)
(6.96044e-05 -0.0453594 0)
(0.000341121 -0.0459682 0)
(0.000122775 -0.0456875 0)
(-1.39989e-05 -0.0448412 0)
(-9.39158e-05 -0.0441423 0)
(-0.000110478 -0.0435722 0)
(0.000343608 -0.0450715 0)
(-0.000397995 -0.0435188 0)
(-0.000634474 -0.0464172 0)
(-0.00055236 -0.0455058 0)
(0.000396281 -0.0441436 0)
(-0.000418777 -0.0452043 0)
(0.000392277 -0.0458741 0)
(0.00127325 -0.0467452 0)
(-0.00030372 -0.0473699 0)
(-0.00126466 -0.0468891 0)
(0.000265 -0.0464318 0)
(-0.000802462 -0.0482184 0)
(-0.000445838 -0.0474911 0)
(7.42807e-05 -0.0471051 0)
(0.000696577 -0.0472823 0)
(-0.00114694 -0.0474445 0)
(-0.000404329 -0.0485514 0)
(-7.11007e-05 -0.0477802 0)
(-7.46077e-05 -0.0474073 0)
(-0.00014936 -0.0470633 0)
(0.000201488 -0.0482533 0)
(-0.000145047 -0.0489423 0)
(2.15757e-05 -0.0485636 0)
(0.000396937 -0.0487345 0)
(0.000144363 -0.046552 0)
(-8.77083e-05 -0.0470598 0)
(-5.83474e-05 -0.0478987 0)
(-0.00103886 -0.0480781 0)
(-9.92665e-05 -0.0469071 0)
(0.00117651 -0.0448775 0)
(-7.8148e-05 -0.0451666 0)
(0.00075832 -0.041322 0)
(0.000793667 -0.0395369 0)
(0.00134283 -0.0404393 0)
(0.000389346 -0.043515 0)
(-0.0004566 -0.0449971 0)
(0.000540273 -0.0442017 0)
(0.000201962 -0.0431497 0)
(-0.000484824 -0.0445781 0)
(-8.90447e-05 -0.045192 0)
(0.000733078 -0.0465801 0)
(0.000148449 -0.0471141 0)
(-4.02654e-05 -0.0464785 0)
(-0.000609047 -0.0449993 0)
(-0.00032461 -0.0442353 0)
(4.55894e-05 -0.0446681 0)
(3.88571e-05 -0.0454625 0)
(0.000360516 -0.0469899 0)
(0.000208596 -0.0459606 0)
(0.000321792 -0.0455818 0)
(0.000458694 -0.0452774 0)
(0.000761071 -0.0427011 0)
(-0.000829946 -0.0420069 0)
(0.000417116 -0.0428903 0)
(0.000178787 -0.0442243 0)
(-2.18404e-05 -0.0447428 0)
(0.000278943 -0.0473111 0)
(-0.000306043 -0.0461333 0)
(-0.000792708 -0.0454006 0)
(0.000349678 -0.0471154 0)
(-0.000827812 -0.0490046 0)
(-0.000617489 -0.0477762 0)
(-0.000408998 -0.048163 0)
(-0.00114793 -0.0487114 0)
(0.0009033 -0.0487488 0)
(-2.63595e-05 -0.049441 0)
(0.000199347 -0.0492608 0)
(0.000193738 -0.0492501 0)
(0.000235246 -0.0494731 0)
(0.00019932 -0.0495979 0)
(-0.000187704 -0.0480499 0)
(0.000180799 -0.0473959 0)
(0.00016759 -0.0479922 0)
(-0.000442628 -0.0473108 0)
(0.000398595 -0.0479244 0)
(-0.000668838 -0.0488492 0)
(-0.000150802 -0.0458544 0)
(-0.000431602 -0.0470604 0)
(-0.000421407 -0.0449109 0)
(-0.000360943 -0.0456865 0)
(-0.000140951 -0.0465096 0)
(0.000344245 -0.0471267 0)
(0.000916484 -0.0446555 0)
(-0.000246394 -0.0464086 0)
(0.000624586 -0.0452537 0)
(0.000555874 -0.0444192 0)
(0.000189986 -0.0440852 0)
(-0.00106934 -0.0425984 0)
(-0.000486233 -0.0439116 0)
(0.0005887 -0.041958 0)
(0.000166447 -0.0417512 0)
(-0.000117507 -0.0428693 0)
(-0.00011741 -0.0446974 0)
(0.00021484 -0.0460946 0)
(0.00026858 -0.0466077 0)
(0.000360816 -0.0473665 0)
(0.000759148 -0.045347 0)
(0.000229127 -0.0435675 0)
(0.000198401 -0.0458759 0)
(-0.000241722 -0.0459578 0)
(-0.000329424 -0.0468382 0)
(0.000626873 -0.0464405 0)
(1.13689e-05 -0.0450761 0)
(-0.000488273 -0.0437897 0)
(-0.000131332 -0.0436328 0)
(-0.000159509 -0.0450917 0)
(0.000324325 -0.0461703 0)
(-0.000517117 -0.0461629 0)
(-0.000274452 -0.0465433 0)
(0.000366405 -0.0490814 0)
(-5.7571e-05 -0.0505574 0)
(-0.000185628 -0.0501894 0)
(9.81602e-05 -0.0503049 0)
(9.13193e-05 -0.0487248 0)
(0.000119545 -0.0494523 0)
(0.000109802 -0.0504845 0)
(-0.000213188 -0.05094 0)
(-0.00010081 -0.0482276 0)
(0.000289505 -0.0484826 0)
(-0.00024872 -0.0490005 0)
(-0.000383914 -0.0496064 0)
(-8.47895e-05 -0.0492175 0)
(-0.00010293 -0.0497448 0)
(-0.000417604 -0.0492548 0)
(0.000623344 -0.0491813 0)
(6.16154e-05 -0.0489578 0)
(6.50347e-05 -0.0483571 0)
(-5.7193e-05 -0.0482791 0)
(-0.000513754 -0.0473329 0)
(0.00029858 -0.0452254 0)
(0.000827881 -0.0471172 0)
(0.000535516 -0.0442222 0)
(0.000378903 -0.0432133 0)
(-0.000425004 -0.0412656 0)
(-0.000449663 -0.0401832 0)
(0.00110071 -0.0414932 0)
(-0.000292877 -0.0442231 0)
(0.000731709 -0.0432968 0)
(0.000827559 -0.0434795 0)
(-0.00026445 -0.044824 0)
(-0.000601419 -0.047141 0)
(-0.000531646 -0.0484715 0)
(0.000332821 -0.0482893 0)
(0.000791092 -0.046999 0)
(0.00103643 -0.0459885 0)
(0.00117508 -0.0451524 0)
(0.00125407 -0.0473961 0)
(0.000401898 -0.0478865 0)
(0.000120433 -0.0486325 0)
(-0.000121521 -0.0480616 0)
(0.000127101 -0.0469881 0)
(-0.000256662 -0.0466474 0)
(-0.00061435 -0.0460794 0)
(0.0002579 -0.046009 0)
(0.000456899 -0.0468982 0)
(7.55472e-05 -0.0496699 0)
(-0.000745404 -0.0483501 0)
(-0.000932087 -0.0486261 0)
(0.000357636 -0.0499929 0)
(-0.000531532 -0.0486997 0)
(-0.000200747 -0.0508074 0)
(0.00049774 -0.0511837 0)
(-0.000288182 -0.0497173 0)
(-0.000282604 -0.0490807 0)
(0.000855996 -0.0490825 0)
(-0.00091929 -0.0502993 0)
(-0.000350624 -0.0509794 0)
(-4.78406e-06 -0.0508934 0)
(-0.000311491 -0.0512545 0)
(-0.000487058 -0.050203 0)
(-0.000707988 -0.0496092 0)
(0.000922167 -0.0501345 0)
(0.000276408 -0.0483319 0)
(0.00112982 -0.0481198 0)
(-0.00138149 -0.0468562 0)
(-5.6677e-05 -0.0460853 0)
(0.000752821 -0.0453334 0)
(0.000333708 -0.0453785 0)
(0.000227321 -0.0443826 0)
(-0.000228643 -0.0458163 0)
(-0.00068962 -0.041948 0)
(0.000923584 -0.0450899 0)
(0.000604446 -0.0479555 0)
(0.00116347 -0.0472611 0)
(0.00151342 -0.0469378 0)
(0.000256139 -0.0473419 0)
(-0.00118703 -0.0489702 0)
(-0.00024668 -0.0494381 0)
(2.03874e-06 -0.0483417 0)
(0.000328486 -0.0496901 0)
(0.000865836 -0.0487286 0)
(0.00035401 -0.0488356 0)
(0.000697824 -0.0475171 0)
(0.000690889 -0.0465953 0)
(0.000958085 -0.045365 0)
(0.000622122 -0.046101 0)
(5.39599e-05 -0.0467591 0)
(-0.000624418 -0.0480112 0)
(-0.000290922 -0.0480863 0)
(-0.000826985 -0.0481534 0)
(0.000674326 -0.0467269 0)
(-0.000949752 -0.0467069 0)
(-0.00103377 -0.0477514 0)
(-0.000154979 -0.0490847 0)
(0.00012368 -0.0489902 0)
(-0.000487186 -0.048116 0)
(-0.000242183 -0.0494324 0)
(-0.000175774 -0.0512466 0)
(-0.000393568 -0.0525729 0)
(7.50272e-05 -0.0508722 0)
(-0.000352821 -0.0500464 0)
(-0.000105956 -0.0498227 0)
(0.00018009 -0.049548 0)
(0.00113558 -0.0513867 0)
(0.000596247 -0.049759 0)
(0.00046441 -0.0503883 0)
(-0.00014533 -0.0502177 0)
(-0.000422643 -0.0499566 0)
(-0.000453743 -0.0483109 0)
(0.00050406 -0.0478917 0)
(0.000102706 -0.0473841 0)
(-0.000353376 -0.0462087 0)
(0.000486215 -0.0474181 0)
(0.000357686 -0.0477527 0)
(-0.000127722 -0.0472402 0)
(8.5802e-05 -0.0448284 0)
(0.00051435 -0.045578 0)
(0.00182261 -0.0462374 0)
(0.000938884 -0.0483285 0)
(0.00139292 -0.0473348 0)
(0.000586339 -0.0470126 0)
(0.000594346 -0.0492486 0)
(0.000112757 -0.0500586 0)
(0.000521728 -0.0495468 0)
(0.000250202 -0.0493661 0)
(7.03913e-05 -0.0481081 0)
(4.20206e-06 -0.050122 0)
(0.000226395 -0.0472249 0)
(0.000504194 -0.0458782 0)
(0.000656717 -0.0460255 0)
(5.45814e-05 -0.0437166 0)
(-0.00120593 -0.0446917 0)
(-0.000884934 -0.0418686 0)
(-0.000575174 -0.0439146 0)
(-0.000864921 -0.0422756 0)
(-0.000255712 -0.0425538 0)
(-0.00102159 -0.0416678 0)
(0.0008495 -0.0408676 0)
(0.00171243 -0.0378182 0)
(0.000360181 -0.0439333 0)
(-0.000223341 -0.0435263 0)
(-0.000268064 -0.0447119 0)
(0.00018941 -0.0484984 0)
(-0.0015505 -0.0465117 0)
(-0.000990055 -0.046544 0)
(-5.62032e-05 -0.0478954 0)
(0.000256734 -0.049823 0)
(8.00277e-05 -0.0499893 0)
(-9.60897e-05 -0.0505998 0)
(-2.4436e-06 -0.0507296 0)
(0.000253332 -0.0497796 0)
(-0.000116443 -0.050181 0)
(0.000854333 -0.0502749 0)
(0.000356374 -0.0493054 0)
(0.00092057 -0.0487457 0)
(0.000249418 -0.0503702 0)
(-0.000110851 -0.0492542 0)
(3.59779e-05 -0.0484955 0)
(0.000721539 -0.0476599 0)
(-0.000621124 -0.0471907 0)
(-0.000639565 -0.0442482 0)
(0.00102282 -0.0478114 0)
(7.78441e-05 -0.0502425 0)
(0.000251923 -0.0507392 0)
(0.000438422 -0.0504273 0)
(-0.000114513 -0.0486178 0)
(-0.000110371 -0.048821 0)
(-7.06335e-06 -0.0496124 0)
(-1.44601e-07 -0.0492123 0)
(0.00091542 -0.0506101 0)
(0.00181126 -0.0500496 0)
(0.000430815 -0.0490261 0)
(-0.000230168 -0.0483249 0)
(-0.000239917 -0.0465329 0)
(0.000402251 -0.0464324 0)
(-0.000546398 -0.0459293 0)
(0.000262384 -0.0448989 0)
(-2.29142e-05 -0.0439845 0)
(0.000235508 -0.0439224 0)
(-5.82182e-05 -0.0440638 0)
(-0.000406559 -0.0439175 0)
(-0.0013156 -0.0444878 0)
(3.20639e-05 -0.044337 0)
(-0.00110354 -0.0433905 0)
(0.000188301 -0.0463805 0)
(0.000730284 -0.048282 0)
(0.000333975 -0.041804 0)
(0.00171767 -0.0388592 0)
(-0.000101436 -0.0368582 0)
(-0.000425491 -0.0385286 0)
(-0.000325297 -0.041173 0)
(-4.09828e-05 -0.041275 0)
(-0.00151562 -0.0399893 0)
(0.000713952 -0.0406379 0)
(-0.000107501 -0.0431815 0)
(0.000176505 -0.0429778 0)
(0.000126978 -0.0457424 0)
(0.000271245 -0.0474887 0)
(6.53371e-06 -0.0477284 0)
(-0.000266527 -0.0484882 0)
(0.00022733 -0.0489111 0)
(-0.000325001 -0.0498667 0)
(0.000245281 -0.0499583 0)
(0.000196978 -0.0484326 0)
(0.000373535 -0.0489261 0)
(0.000613692 -0.0490874 0)
(0.000437545 -0.048065 0)
(0.000697228 -0.0510999 0)
(-0.00109906 -0.0459736 0)
(-0.000116177 -0.0482046 0)
(0.000437472 -0.0474251 0)