/*--------------------------------*- C++ -*----------------------------------*\
  =========                 |
  \\      /  F ield         | OpenFOAM: The Open Source CFD Toolbox
   \\    /   O peration     | Website:  https://openfoam.org
    \\  /    A nd           | Version:  12
     \\/     M anipulation  |
\*---------------------------------------------------------------------------*/
FoamFile
{
    format      ascii;
    class       IOPosition;
    location    "0.05/lagrangian/cloud";
    object      positions;
}
// * * * * * * * * * * * * * * * * * * * * * * * * * * * * * * * * * * * * * //

3650
(
(0.876335 0.0618324 2.60209e-16 0.0618324) 0 0 1
(0.781581 0.109209 8.67362e-17 0.109209) 1 2 1
(0.876477 0.0617614 1.2326e-32 0.0617614) 2 4 1
(0.87636 0.0618201 2.46519e-32 0.0618201) 3 6 1
(0.876335 0.0618324 2.46519e-32 0.0618324) 4 8 1
(0.876335 0.0618324 2.60209e-16 0.0618324) 5 10 1
(0.781581 0.109209 3.69779e-32 0.109209) 6 12 1
(0.876477 0.0617614 2.12749e-16 0.0617614) 7 14 1
(0.87636 0.0618201 2.60209e-16 0.0618201) 8 16 1
(0.876335 0.0618324 4.93038e-32 0.0618324) 9 18 1
(0.876335 0.0618324 0 0.0618324) 10 20 1
(0.876335 0.0618324 9.92439e-17 0.0618324) 11 22 1
(0.781581 0.109209 1.8604e-16 0.109209) 12 24 1
(0.876477 0.0617614 1.2326e-32 0.0617614) 13 26 1
(0.781602 0.109199 1.2326e-32 0.109199) 14 28 1
(0.876477 0.0617614 0 0.0617614) 15 30 1
(0.87636 0.0618201 2.84818e-16 0.0618201) 16 32 1
(0.876335 0.0618324 2.46519e-32 0.0618324) 17 34 1
(0.876335 0.0618324 1.73472e-16 0.0618324) 18 36 1
(0.781581 0.109209 4.97317e-17 0.109209) 19 38 1
(0.876477 0.0617614 3.76842e-16 0.0617614) 20 40 1
(0.87636 0.0618201 2.46519e-32 0.0618201) 21 42 1
(0.876335 0.0618324 7.9531e-17 0.0618324) 22 44 1
(0.876335 0.0618324 5.99664e-17 0.0618324) 23 46 1
(0.781581 0.109209 3.50883e-16 0.109209) 24 48 1
(0.876477 0.0617614 2.20932e-16 0.0617614) 25 50 1
(0.781602 0.109199 8.67362e-17 0.109199) 26 52 1
(0.876477 0.0617614 2.20439e-16 0.0617614) 27 54 1
(0.87636 0.0618201 3.46945e-16 0.0618201) 28 56 1
(0.876335 0.0618324 8.67362e-17 0.0618324) 29 58 1
(0.781581 0.109209 1.2579e-16 0.109209) 30 60 1
(0.876477 0.0617614 8.67362e-17 0.0617614) 31 62 1
(0.87636 0.0618201 1.34195e-16 0.0618201) 32 64 1
(0.876335 0.0618324 0 0.0618324) 33 66 1
(0.876335 0.0618324 2.46519e-32 0.0618324) 34 68 1
(0.781581 0.109209 8.67362e-17 0.109209) 35 70 1
(0.78172 0.10914 2.78739e-16 0.10914) 36 72 1
(0.876502 0.0617491 8.67362e-17 0.0617491) 37 74 1
(0.87636 0.0618201 0 0.0618201) 38 76 1
(0.781581 0.109209 1.58028e-16 0.109209) 39 78 1
(0.876477 0.0617614 0 0.0617614) 40 80 1
(0.781602 0.109199 1.5294e-16 0.109199) 41 82 1
(0.876477 0.0617614 1.73472e-16 0.0617614) 42 84 1
(0.87636 0.0618201 1.10934e-31 0.0618201) 43 86 1
(0.876335 0.0618324 1.73472e-16 0.0618324) 44 88 1
(0.781581 0.109209 0 0.109209) 45 90 1
(0.78172 0.10914 1.73472e-16 0.10914) 46 92 1
(0.876502 0.0617491 1.60979e-16 0.0617491) 47 94 1
(0.87636 0.0618201 3.89101e-16 0.0618201) 48 96 1
(0.876335 0.0618324 2.71252e-16 0.0618324) 49 98 1
(0.876335 0.0618324 7.62063e-17 0.0618324) 50 100 1
(0.876335 0.0618324 0 0.0618324) 51 102 1
(0.876335 0.0618324 8.55028e-17 0.0618324) 52 104 1
(0.876335 0.0618324 1.96926e-16 0.0618324) 53 106 1
(0.876335 0.0618324 2.57282e-16 0.0618324) 54 108 1
(0.876335 0.0618324 8.1853e-17 0.0618324) 55 110 1
(0.876335 0.0618324 0 0.0618324) 56 112 1
(0.682202 0.158899 0 0.158899) 57 114 1
(0.876778 0.061611 1.68552e-16 0.061611) 58 116 1
(0.876412 0.0617941 8.67362e-17 0.0617941) 59 118 1
(0.876335 0.0618324 8.67362e-17 0.0618324) 60 120 1
(0.781581 0.109209 1.2579e-16 0.109209) 61 122 1
(0.876477 0.0617614 1.70042e-16 0.0617614) 62 124 1
(0.87636 0.0618201 2.12039e-16 0.0618201) 63 126 1
(0.682202 0.158899 3.7787e-16 0.158899) 64 128 1
(0.876778 0.061611 1.01347e-16 0.061611) 65 130 1
(0.781644 0.109178 8.67362e-17 0.109178) 66 132 1
(0.876477 0.0617614 1.73472e-16 0.0617614) 67 134 1
(0.781602 0.109199 8.67362e-17 0.109199) 68 136 1
(0.876477 0.0617614 3.69779e-32 0.0617614) 69 138 1
(0.781602 0.109199 4.76828e-17 0.109199) 70 140 1
(0.876477 0.0617614 8.67362e-17 0.0617614) 71 142 1
(0.87636 0.0618201 1.34195e-16 0.0618201) 72 144 1
(0.876335 0.0618324 6.33085e-16 0.0618324) 75 149 1
(0.682202 0.158899 3.5043e-17 0.158899) 76 151 1
(0.876778 0.061611 6.03172e-17 0.061611) 77 153 1
(0.876412 0.0617941 0.0617941 3.0718e-16) 78 155 2
(0.876335 0.0618324 3.92577e-16 0.0618324) 79 157 1
(0.876335 0.0618324 0 0.0618324) 80 159 1
(0.876335 0.0618324 0.0618324 3.04297e-16) 81 161 2
(0.876335 0.0618324 1.75207e-16 0.0618324) 82 163 1
(0.682202 0.158899 0.158899 2.37886e-16) 83 165 2
(0.782015 0.108992 0 0.108992) 84 167 1
(0.876554 0.061723 3.00752e-16 0.061723) 85 169 1
(0.87636 0.0618201 3.26618e-16 0.0618201) 86 171 1
(0.876335 0.0618324 2.88643e-16 0.0618324) 87 173 1
(0.876335 0.0618324 1.53321e-18 0.0618324) 88 175 1
(0.876335 0.0618324 8.55028e-17 0.0618324) 89 177 1
(0.876335 0.0618324 2.5814e-16 0.0618324) 90 179 1
(0.876335 0.0618324 2.5523e-16 0.0618324) 91 181 1
(0.781581 0.109209 3.07693e-16 0.109209) 92 183 1
(0.876477 0.0617614 1.70359e-16 0.0617614) 93 185 1
(0.87636 0.0618201 3.63116e-16 0.0618201) 94 187 1
(0.876335 0.0618324 0.0618324 4.06709e-16) 95 189 2
(0.876335 0.0618324 3.25827e-16 0.0618324) 96 191 1
(0.876335 0.0618324 0 0.0618324) 97 193 1
(0.876335 0.0618324 7.32472e-18 0.0618324) 98 195 1
(0.876335 0.0618324 5.69178e-16 0.0618324) 99 197 1
(0.876335 0.0618324 0.0618324 5.16743e-16) 100 199 2
(0.876335 0.0618324 4.59613e-16 0.0618324) 101 201 1
(0.876335 0.0618324 0 0.0618324) 102 203 1
(0.876335 0.0618324 1.08488e-16 0.0618324) 103 205 1
(0.876335 0.0618324 0.0618324 3.19192e-16) 104 207 2
(0.876335 0.0618324 0.0618324 2.48654e-16) 105 209 2
(0.682202 0.158899 9.59864e-17 0.158899) 106 211 1
(0.876778 0.061611 1.12061e-16 0.061611) 107 213 1
(0.876412 0.0617941 0 0.0617941) 108 215 1
(0.876335 0.0618324 0.0618324 2.31319e-17) 109 217 2
(0.781581 0.109209 0 0.109209) 110 219 1
(0.876477 0.0617614 0 0.0617614) 111 221 1
(0.87636 0.0618201 8.36475e-17 0.0618201) 112 223 1
(0.781581 0.109209 2.2058e-16 0.109209) 113 225 1
(0.876477 0.0617614 0.0617614 3.33804e-16) 114 227 2
(0.87636 0.0618201 1.58344e-16 0.0618201) 115 229 1
(0.876335 0.0618324 0.0618324 6.42796e-16) 116 231 2
(0.876335 0.0618324 0.0618324 0) 117 233 2
(0.876335 0.0618324 1.75207e-16 0.0618324) 118 235 1
(0.876335 0.0618324 0.0618324 3.54143e-16) 119 237 2
(0.876335 0.0618324 0.0618324 3.58469e-16) 120 239 2
(0.876335 0.0618324 0.0618324 2.21477e-16) 121 241 2
(0.876335 0.0618324 0.0618324 4.32698e-16) 122 243 2
(0.876335 0.0618324 0 0.0618324) 123 245 1
(0.781581 0.109209 5.94136e-17 0.109209) 124 247 1
(0.876477 0.0617614 8.67362e-17 0.0617614) 125 249 1
(0.87636 0.0618201 0.0618201 1.73472e-16) 126 251 2
(0.876335 0.0618324 0.0618324 0) 127 253 2
(0.876335 0.0618324 1.61264e-16 0.0618324) 128 255 1
(0.876335 0.0618324 1.9782e-17 0.0618324) 129 257 1
(0.876335 0.0618324 0 0.0618324) 130 259 1
(0.876335 0.0618324 0 0.0618324) 131 261 1
(0.876335 0.0618324 0.0618324 3.11585e-16) 132 263 2
(0.781581 0.109209 4.09158e-16 0.109209) 133 265 1
(0.876477 0.0617614 0.0617614 3.07302e-16) 134 267 2
(0.781602 0.109199 0.109199 3.89222e-16) 135 269 2
(0.876477 0.0617614 1.61234e-16 0.0617614) 136 271 1
(0.781602 0.109199 8.54645e-17 0.109199) 137 273 1
(0.876477 0.0617614 0 0.0617614) 138 275 1
(0.579077 0.210462 2.49794e-16 0.210462) 139 277 1
(0.877208 0.0613961 0.0613961 0) 140 279 2
(0.781705 0.109147 0 0.109147) 141 281 1
(0.876477 0.0617614 0 0.0617614) 142 283 1
(0.87636 0.0618201 1.43391e-16 0.0618201) 143 285 1
(0.876335 0.0618324 0.0618324 1.55966e-16) 144 287 2
(0.876335 0.0618324 0 0.0618324) 145 289 1
(0.781581 0.109209 0.109209 4.3149e-16) 146 291 2
(0.876477 0.0617614 0 0.0617614) 147 293 1
(0.781602 0.109199 1.73472e-16 0.109199) 150 298 1
(0.876477 0.0617614 0 0.0617614) 151 300 1
(0.87636 0.0618201 8.67362e-17 0.0618201) 152 302 1
(0.781581 0.109209 1.28361e-16 0.109209) 153 304 1
(0.876477 0.0617614 0 0.0617614) 154 306 1
(0.87636 0.0618201 1.467e-16 0.0618201) 155 308 1
(0.876335 0.0618324 0 0.0618324) 156 310 1
(0.876335 0.0618324 3.44018e-16 0.0618324) 157 312 1
(0.876335 0.0618324 7.82033e-17 0.0618324) 158 314 1
(0.682202 0.158899 0.158899 8.67362e-17) 159 316 2
(0.876778 0.061611 6.42001e-16 0.061611) 160 318 1
(0.876412 0.0617941 6.2288e-17 0.0617941) 161 320 1
(0.876335 0.0618324 1.66381e-16 0.0618324) 162 322 1
(0.876335 0.0618324 0.0618324 1.73472e-16) 163 324 2
(0.876335 0.0618324 5.56439e-16 0.0618324) 164 326 1
(0.876335 0.0618324 0 0.0618324) 165 328 1
(0.876335 0.0618324 4.97575e-16 0.0618324) 166 330 1
(0.781581 0.109209 0.109209 1.01842e-16) 167 332 2
(0.78172 0.10914 3.62005e-16 0.10914) 168 334 1
(0.876502 0.0617491 8.04986e-17 0.0617491) 169 336 1
(0.781602 0.109199 4.648e-16 0.109199) 170 338 1
(0.78172 0.10914 0.10914 0) 171 340 2
(0.781741 0.10913 5.26351e-16 0.10913) 172 342 1
(0.876502 0.0617491 8.04986e-17 0.0617491) 173 344 1
(0.87636 0.0618201 3.62448e-16 0.0618201) 174 346 1
(0.876335 0.0618324 2.91611e-16 0.0618324) 175 348 1
(0.876335 0.0618324 1.09868e-16 0.0618324) 176 350 1
(0.876335 0.0618324 5.57122e-16 0.0618324) 177 352 1
(0.781581 0.109209 3.49517e-16 0.109209) 178 354 1
(0.876477 0.0617614 1.86074e-16 0.0617614) 179 356 1
(0.87636 0.0618201 0 0.0618201) 180 358 1
(0.876335 0.0618324 5.11317e-16 0.0618324) 181 360 1
(0.876335 0.0618324 0 0.0618324) 182 362 1
(0.876335 0.0618324 0 0.0618324) 183 364 1
(0.682202 0.158899 1.51115e-16 0.158899) 184 366 1
(0.876778 0.061611 4.83138e-16 0.061611) 185 368 1
(0.876412 0.0617941 0 0.0617941) 186 370 1
(0.876335 0.0618324 1.50435e-16 0.0618324) 187 372 1
(0.781581 0.109209 8.62292e-17 0.109209) 188 374 1
(0.876477 0.0617614 4.70434e-16 0.0617614) 189 376 1
(0.682218 0.158891 1.86044e-16 0.158891) 190 378 1
(0.782015 0.108992 1.5468e-16 0.108992) 191 380 1
(0.876554 0.061723 1.60983e-16 0.061723) 192 382 1
(0.87636 0.0618201 8.67362e-17 0.0618201) 193 384 1
(0.876335 0.0618324 5.57122e-16 0.0618324) 194 386 1
(0.876335 0.0618324 2.88608e-16 0.0618324) 195 388 1
(0.876335 0.0618324 7.82033e-17 0.0618324) 196 390 1
(0.876335 0.0618324 1.27644e-16 0.0618324) 197 392 1
(0.781581 0.109209 0 0.109209) 198 394 1
(0.876477 0.0617614 3.07444e-17 0.0617614) 199 396 1
(0.87636 0.0618201 2.99978e-16 0.0618201) 200 398 1
(0.876335 0.0618324 1.60237e-31 0.0618324) 201 400 1
(0.682202 0.158899 0.158899 3.85521e-17) 202 402 2
(0.876778 0.061611 3.94263e-16 0.061611) 203 404 1
(0.876412 0.0617941 0 0.0617941) 204 406 1
(0.876335 0.0618324 0 0.0618324) 205 408 1
(0.876335 0.0618324 1.26505e-16 0.0618324) 206 410 1
(0.876335 0.0618324 5.10411e-17 0.0618324) 207 412 1
(0.876335 0.0618324 0.0618324 3.75248e-16) 208 414 2
(0.876335 0.0618324 7.59708e-16 0.0618324) 209 416 1
(0.876335 0.0618324 0.0618324 4.97156e-16) 210 418 2
(0.876335 0.0618324 5.28463e-16 0.0618324) 211 420 1
(0.682202 0.158899 0 0.158899) 212 422 1
(0.876778 0.061611 0 0.061611) 213 424 1
(0.579102 0.210449 0.210449 8.67362e-17) 214 426 2
(0.877208 0.0613961 3.22999e-16 0.0613961) 215 428 1
(0.781705 0.109147 0 0.109147) 216 430 1
(0.876477 0.0617614 8.67362e-17 0.0617614) 217 432 1
(0.87636 0.0618201 2.46519e-32 0.0618201) 218 434 1
(0.876335 0.0618324 0 0.0618324) 219 436 1
(0.781581 0.109209 1.73472e-16 0.109209) 220 438 1
(0.876477 0.0617614 8.67362e-17 0.0617614) 221 440 1
(0.87636 0.0618201 0.0618201 1.73472e-16) 222 442 2
(0.781581 0.109209 8.47084e-17 0.109209) 225 447 1
(0.876477 0.0617614 2.86161e-16 0.0617614) 226 449 1
(0.87636 0.0618201 4.57889e-16 0.0618201) 227 451 1
(0.876335 0.0618324 2.08423e-16 0.0618324) 228 453 1
(0.781581 0.109209 8.67362e-17 0.109209) 229 455 1
(0.78172 0.10914 0 0.10914) 230 457 1
(0.876502 0.0617491 2.01871e-16 0.0617491) 231 459 1
(0.87636 0.0618201 4.88524e-16 0.0618201) 232 461 1
(0.876335 0.0618324 1.31846e-16 0.0618324) 233 463 1
(0.876335 0.0618324 6.16556e-16 0.0618324) 234 465 1
(0.781581 0.109209 3.44754e-16 0.109209) 235 467 1
(0.876477 0.0617614 8.67362e-17 0.0617614) 236 469 1
(0.781602 0.109199 8.67362e-17 0.109199) 237 471 1
(0.876477 0.0617614 1.2326e-32 0.0617614) 238 473 1
(0.87636 0.0618201 8.67362e-17 0.0618201) 239 475 1
(0.781581 0.109209 3.90534e-17 0.109209) 240 477 1
(0.876477 0.0617614 1.73472e-16 0.0617614) 241 479 1
(0.87636 0.0618201 1.73472e-16 0.0618201) 242 481 1
(0.876335 0.0618324 0 0.0618324) 243 483 1
(0.781581 0.109209 3.90534e-17 0.109209) 244 485 1
(0.876477 0.0617614 2.73665e-16 0.0617614) 245 487 1
(0.87636 0.0618201 1.73472e-16 0.0618201) 246 489 1
(0.876335 0.0618324 1.60965e-16 0.0618324) 247 491 1
(0.876335 0.0618324 8.67362e-17 0.0618324) 248 493 1
(0.876335 0.0618324 4.41727e-16 0.0618324) 249 495 1
(0.876335 0.0618324 0.0618324 7.42731e-16) 250 497 2
(0.876335 0.0618324 8.73175e-16 0.0618324) 251 499 1
(0.876335 0.0618324 8.05692e-17 0.0618324) 252 501 1
(0.781581 0.109209 2.78728e-16 0.109209) 253 503 1
(0.876477 0.0617614 0.0617614 1.73472e-16) 254 505 2
(0.87636 0.0618201 2.50005e-16 0.0618201) 255 507 1
(0.876335 0.0618324 8.05692e-17 0.0618324) 256 509 1
(0.876335 0.0618324 9.16193e-17 0.0618324) 257 511 1
(0.876335 0.0618324 0.0618324 8.67362e-17) 258 513 2
(0.876335 0.0618324 4.15297e-16 0.0618324) 259 515 1
(0.876335 0.0618324 0 0.0618324) 260 517 1
(0.781581 0.109209 1.52939e-16 0.109209) 261 519 1
(0.876477 0.0617614 0.0617614 8.67362e-17) 262 521 2
(0.87636 0.0618201 4.15297e-16 0.0618201) 263 523 1
(0.876335 0.0618324 8.05692e-17 0.0618324) 264 525 1
(0.781581 0.109209 6.25528e-17 0.109209) 265 527 1
(0.876477 0.0617614 0.0617614 1.2478e-16) 266 529 2
(0.781602 0.109199 0.109199 9.8594e-16) 267 531 2
(0.876477 0.0617614 4.05425e-16 0.0617614) 268 533 1
(0.87636 0.0618201 0 0.0618201) 269 535 1
(0.876335 0.0618324 2.63953e-16 0.0618324) 270 537 1
(0.876335 0.0618324 7.82033e-17 0.0618324) 271 539 1
(0.781581 0.109209 3.68202e-16 0.109209) 272 541 1
(0.876477 0.0617614 0 0.0617614) 273 543 1
(0.87636 0.0618201 2.08425e-16 0.0618201) 274 545 1
(0.876335 0.0618324 0 0.0618324) 275 547 1
(0.876335 0.0618324 0 0.0618324) 276 549 1
(0.876335 0.0618324 0.0618324 1.73472e-16) 277 551 2
(0.876335 0.0618324 3.70459e-16 0.0618324) 278 553 1
(0.876335 0.0618324 0 0.0618324) 279 555 1
(0.876335 0.0618324 0 0.0618324) 280 557 1
(0.876335 0.0618324 0 0.0618324) 281 559 1
(0.876335 0.0618324 0 0.0618324) 282 561 1
(0.876335 0.0618324 0.0618324 1.73472e-16) 283 563 2
(0.876335 0.0618324 3.76058e-16 0.0618324) 284 565 1
(0.876335 0.0618324 0.0618324 4.97156e-16) 285 567 2
(0.876335 0.0618324 4.09737e-16 0.0618324) 286 569 1
(0.876335 0.0618324 8.05692e-17 0.0618324) 287 571 1
(0.876335 0.0618324 2.60209e-16 0.0618324) 288 573 1
(0.876335 0.0618324 0.0618324 2.99536e-16) 289 575 2
(0.781581 0.109209 4.14291e-16 0.109209) 290 577 1
(0.876477 0.0617614 8.0509e-17 0.0617614) 291 579 1
(0.87636 0.0618201 2.99978e-16 0.0618201) 292 581 1
(0.876335 0.0618324 0 0.0618324) 293 583 1
(0.682202 0.158899 0.158899 1.25288e-16) 294 585 2
(0.876778 0.061611 5.05784e-16 0.061611) 295 587 1
(0.781644 0.109178 0 0.109178) 296 589 1
(0.682337 0.158831 0.158831 8.67362e-17) 297 591 2
(0.876335 0.0618324 1.5444e-15 0.0618324) 300 596 1
(0.876335 0.0618324 1.75535e-15 0.0618324) 301 598 1
(0.876335 0.0618324 7.78004e-16 0.0618324) 302 600 1
(0.781581 0.109209 7.43489e-16 0.109209) 303 602 1
(0.876477 0.0617614 5.65302e-16 0.0617614) 304 604 1
(0.87636 0.0618201 1.46841e-15 0.0618201) 305 606 1
(0.876335 0.0618324 7.18736e-16 0.0618324) 306 608 1
(0.876335 0.0618324 6.39482e-16 0.0618324) 307 610 1
(0.876335 0.0618324 1.60362e-15 0.0618324) 308 612 1
(0.876335 0.0618324 9.14232e-16 0.0618324) 309 614 1
(0.876335 0.0618324 7.4118e-16 0.0618324) 310 616 1
(0.876335 0.0618324 6.39482e-16 0.0618324) 311 618 1
(0.781581 0.109209 1.38122e-15 0.109209) 312 620 1
(0.876477 0.0617614 8.27543e-16 0.0617614) 313 622 1
(0.87636 0.0618201 6.0454e-16 0.0618201) 314 624 1
(0.876335 0.0618324 6.66951e-16 0.0618324) 315 626 1
(0.876335 0.0618324 6.0404e-16 0.0618324) 316 628 1
(0.876335 0.0618324 1.76786e-15 0.0618324) 317 630 1
(0.781581 0.109209 7.2497e-16 0.109209) 318 632 1
(0.876477 0.0617614 5.40507e-16 0.0617614) 319 634 1
(0.87636 0.0618201 1.50768e-15 0.0618201) 320 636 1
(0.876335 0.0618324 1.7204e-15 0.0618324) 321 638 1
(0.682202 0.158899 6.2401e-16 0.158899) 322 640 1
(0.876778 0.061611 6.22209e-16 0.061611) 323 642 1
(0.876412 0.0617941 1.47001e-15 0.0617941) 324 644 1
(0.682202 0.158899 1.46315e-15 0.158899) 325 646 1
(0.876778 0.061611 6.22035e-16 0.061611) 326 648 1
(0.781644 0.109178 1.58396e-15 0.109178) 327 650 1
(0.876477 0.0617614 7.33969e-16 0.0617614) 328 652 1
(0.781602 0.109199 7.06477e-16 0.109199) 329 654 1
(0.78172 0.10914 6.22681e-16 0.10914) 330 656 1
(0.876502 0.0617491 1.62908e-15 0.0617491) 331 658 1
(0.781602 0.109199 6.95443e-16 0.109199) 332 660 1
(0.876477 0.0617614 8.02749e-16 0.0617614) 333 662 1
(0.781602 0.109199 6.21926e-16 0.109199) 334 664 1
(0.876477 0.0617614 1.67447e-15 0.0617614) 335 666 1
(0.87636 0.0618201 6.47182e-16 0.0618201) 336 668 1
(0.876335 0.0618324 5.94756e-16 0.0618324) 337 670 1
(0.781581 0.109209 7.47709e-16 0.109209) 338 672 1
(0.78172 0.10914 1.54501e-15 0.10914) 339 674 1
(0.781741 0.10913 5.44105e-16 0.10913) 340 676 1
(0.876502 0.0617491 9.41071e-16 0.0617491) 341 678 1
(0.87636 0.0618201 3.79452e-16 0.0618201) 342 680 1
(0.876335 0.0618324 7.21054e-16 0.0618324) 343 682 1
(0.876335 0.0618324 1.68587e-15 0.0618324) 344 684 1
(0.876335 0.0618324 6.88974e-16 0.0618324) 345 686 1
(0.781581 0.109209 1.39956e-15 0.109209) 346 688 1
(0.876477 0.0617614 6.34378e-16 0.0617614) 347 690 1
(0.87636 0.0618201 1.59239e-15 0.0618201) 348 692 1
(0.876335 0.0618324 6.7876e-16 0.0618324) 349 694 1
(0.876335 0.0618324 6.04531e-16 0.0618324) 350 696 1
(0.876335 0.0618324 8.27495e-16 0.0618324) 351 698 1
(0.781581 0.109209 4.86784e-16 0.109209) 352 700 1
(0.78172 0.10914 7.74917e-16 0.10914) 353 702 1
(0.682353 0.158823 9.52458e-16 0.158823) 354 704 1
(0.876803 0.0615987 7.28449e-16 0.0615987) 355 706 1
(0.876412 0.0617941 7.38752e-16 0.0617941) 356 708 1
(0.876335 0.0618324 9.18487e-16 0.0618324) 357 710 1
(0.682202 0.158899 5.77724e-16 0.158899) 358 712 1
(0.682624 0.158688 1.29188e-15 0.158688) 359 714 1
(0.782078 0.108961 8.99429e-16 0.108961) 360 716 1
(0.579234 0.210383 7.75896e-16 0.210383) 361 718 1
(0.683051 0.158475 7.31096e-16 0.158475) 362 720 1
(0.782139 0.10893 6.50021e-16 0.10893) 363 722 1
(0.781783 0.109108 4.87567e-16 0.109108) 364 724 1
(0.781741 0.10913 6.00738e-16 0.10913) 365 726 1
(0.682353 0.158823 8.5812e-16 0.158823) 366 728 1
(0.876803 0.0615987 9.09615e-16 0.0615987) 367 730 1
(0.876412 0.0617941 7.75743e-16 0.0617941) 368 732 1
(0.781581 0.109209 7.27175e-16 0.109209) 369 734 1
(0.876477 0.0617614 7.28312e-16 0.0617614) 370 736 1
(0.781602 0.109199 6.00678e-16 0.109199) 371 738 1
(0.78172 0.10914 7.56223e-16 0.10914) 372 740 1
(0.876335 0.0618324 0 0.0618324) 375 745 1
(0.876335 0.0618324 8.15745e-16 0.0618324) 376 747 1
(0.781581 0.109209 7.88786e-17 0.109209) 377 749 1
(0.78172 0.10914 3.7308e-16 0.10914) 378 751 1
(0.876502 0.0617491 2.37237e-16 0.0617491) 379 753 1
(0.87636 0.0618201 0 0.0618201) 380 755 1
(0.876335 0.0618324 0.0618324 2.71899e-16) 381 757 2
(0.876335 0.0618324 0 0.0618324) 382 759 1
(0.876335 0.0618324 0 0.0618324) 383 761 1
(0.781581 0.109209 0 0.109209) 384 763 1
(0.876477 0.0617614 2.97924e-16 0.0617614) 385 765 1
(0.87636 0.0618201 1.29883e-16 0.0618201) 386 767 1
(0.682202 0.158899 3.92703e-16 0.158899) 387 769 1
(0.876778 0.061611 0 0.061611) 388 771 1
(0.876412 0.0617941 3.63294e-16 0.0617941) 389 773 1
(0.781581 0.109209 2.68392e-16 0.109209) 390 775 1
(0.876477 0.0617614 0 0.0617614) 391 777 1
(0.87636 0.0618201 1.84526e-16 0.0618201) 392 779 1
(0.781581 0.109209 2.20909e-16 0.109209) 393 781 1
(0.876477 0.0617614 3.14994e-16 0.0617614) 394 783 1
(0.87636 0.0618201 0 0.0618201) 395 785 1
(0.682202 0.158899 1.70628e-16 0.158899) 396 787 1
(0.876778 0.061611 7.93819e-16 0.061611) 397 789 1
(0.781644 0.109178 2.02669e-16 0.109178) 398 791 1
(0.78172 0.10914 8.36239e-17 0.10914) 399 793 1
(0.781741 0.10913 8.78621e-17 0.10913) 400 795 1
(0.682353 0.158823 7.88359e-16 0.158823) 401 797 1
(0.782035 0.108982 0 0.108982) 402 799 1
(0.876554 0.061723 8.04766e-17 0.061723) 403 801 1
(0.87636 0.0618201 9.81332e-17 0.0618201) 404 803 1
(0.876335 0.0618324 7.05842e-17 0.0618324) 405 805 1
(0.876335 0.0618324 0 0.0618324) 406 807 1
(0.876335 0.0618324 6.93161e-16 0.0618324) 407 809 1
(0.876335 0.0618324 2.72115e-16 0.0618324) 408 811 1
(0.781581 0.109209 1.12952e-16 0.109209) 409 813 1
(0.876477 0.0617614 0 0.0617614) 410 815 1
(0.781602 0.109199 7.36619e-16 0.109199) 411 817 1
(0.876477 0.0617614 0 0.0617614) 412 819 1
(0.781602 0.109199 2.81302e-16 0.109199) 413 821 1
(0.78172 0.10914 8.41426e-17 0.10914) 414 823 1
(0.781741 0.10913 2.69975e-16 0.10913) 415 825 1
(0.876502 0.0617491 6.19155e-16 0.0617491) 416 827 1
(0.87636 0.0618201 3.99038e-16 0.0618201) 417 829 1
(0.876335 0.0618324 2.44057e-16 0.0618324) 418 831 1
(0.876335 0.0618324 8.05692e-17 0.0618324) 419 833 1
(0.876335 0.0618324 3.90102e-16 0.0618324) 420 835 1
(0.781581 0.109209 1.01715e-15 0.109209) 421 837 1
(0.876477 0.0617614 7.92636e-17 0.0617614) 422 839 1
(0.87636 0.0618201 8.05588e-17 0.0618201) 423 841 1
(0.781581 0.109209 5.72427e-16 0.109209) 424 843 1
(0.876477 0.0617614 1.78326e-16 0.0617614) 425 845 1
(0.87636 0.0618201 2.80544e-16 0.0618201) 426 847 1
(0.781581 0.109209 5.54834e-17 0.109209) 427 849 1
(0.78172 0.10914 5.95071e-16 0.10914) 428 851 1
(0.876502 0.0617491 2.46962e-16 0.0617491) 429 853 1
(0.87636 0.0618201 9.42237e-17 0.0618201) 430 855 1
(0.876335 0.0618324 9.42342e-17 0.0618324) 431 857 1
(0.876335 0.0618324 5.77128e-17 0.0618324) 432 859 1
(0.876335 0.0618324 1.34641e-16 0.0618324) 433 861 1
(0.876335 0.0618324 8.05692e-17 0.0618324) 434 863 1
(0.876335 0.0618324 2.62339e-16 0.0618324) 435 865 1
(0.781581 0.109209 8.40043e-16 0.109209) 436 867 1
(0.876477 0.0617614 1.60234e-16 0.0617614) 437 869 1
(0.87636 0.0618201 2.15374e-16 0.0618201) 438 871 1
(0.682202 0.158899 3.4865e-16 0.158899) 439 873 1
(0.876778 0.061611 2.40723e-17 0.061611) 440 875 1
(0.682251 0.158874 1.80617e-18 0.158874) 441 877 1
(0.682624 0.158688 2.23183e-16 0.158688) 442 879 1
(0.876855 0.0615726 8.11975e-16 0.0615726) 443 881 1
(0.876412 0.0617941 3.41851e-16 0.0617941) 444 883 1
(0.876335 0.0618324 9.85183e-16 0.0618324) 445 885 1
(0.876335 0.0618324 2.97972e-16 0.0618324) 446 887 1
(0.876335 0.0618324 9.33663e-16 0.0618324) 447 889 1
(0.876335 0.0618324 6.74641e-16 0.0618324) 450 894 1
(0.781581 0.109209 1.36123e-15 0.109209) 451 896 1
(0.876477 0.0617614 1.31751e-15 0.0617614) 452 898 1
(0.781602 0.109199 1.44799e-15 0.109199) 453 900 1
(0.876477 0.0617614 1.50347e-15 0.0617614) 454 902 1
(0.781602 0.109199 1.36125e-15 0.109199) 455 904 1
(0.876477 0.0617614 1.3718e-15 0.0617614) 456 906 1
(0.87636 0.0618201 1.84029e-15 0.0618201) 457 908 1
(0.876335 0.0618324 1.68266e-15 0.0618324) 458 910 1
(0.682202 0.158899 1.18346e-15 0.158899) 459 912 1
(0.876778 0.061611 7.01639e-16 0.061611) 460 914 1
(0.876412 0.0617941 1.53017e-15 0.0617941) 461 916 1
(0.781581 0.109209 1.36854e-15 0.109209) 462 918 1
(0.876477 0.0617614 1.54528e-15 0.0617614) 463 920 1
(0.87636 0.0618201 1.32986e-15 0.0618201) 464 922 1
(0.876335 0.0618324 1.3673e-15 0.0618324) 465 924 1
(0.781581 0.109209 1.41806e-15 0.109209) 466 926 1
(0.876477 0.0617614 1.83227e-15 0.0617614) 467 928 1
(0.579077 0.210462 1.14177e-15 0.210462) 468 930 1
(0.877208 0.0613961 1.52401e-15 0.0613961) 469 932 1
(0.876486 0.0617569 1.63202e-15 0.0617569) 470 934 1
(0.876335 0.0618324 1.46655e-15 0.0618324) 471 936 1
(0.876335 0.0618324 1.83774e-15 0.0618324) 472 938 1
(0.876335 0.0618324 1.3673e-15 0.0618324) 473 940 1
(0.876335 0.0618324 1.74263e-15 0.0618324) 474 942 1
(0.682202 0.158899 1.40422e-15 0.158899) 475 944 1
(0.876778 0.061611 7.80186e-16 0.061611) 476 946 1
(0.876412 0.0617941 1.62761e-15 0.0617941) 477 948 1
(0.876335 0.0618324 1.66679e-15 0.0618324) 478 950 1
(0.876335 0.0618324 1.40658e-15 0.0618324) 479 952 1
(0.876335 0.0618324 1.58005e-15 0.0618324) 480 954 1
(0.781581 0.109209 1.36123e-15 0.109209) 481 956 1
(0.876477 0.0617614 1.83792e-15 0.0617614) 482 958 1
(0.87636 0.0618201 1.49335e-15 0.0618201) 483 960 1
(0.781581 0.109209 1.38176e-15 0.109209) 484 962 1
(0.876477 0.0617614 1.57772e-15 0.0617614) 485 964 1
(0.781602 0.109199 1.44596e-15 0.109199) 486 966 1
(0.876477 0.0617614 1.3718e-15 0.0617614) 487 968 1
(0.87636 0.0618201 1.37984e-15 0.0618201) 488 970 1
(0.876335 0.0618324 1.54078e-15 0.0618324) 489 972 1
(0.579065 0.210467 1.18411e-15 0.210467) 490 974 1
(0.877208 0.0613961 1.79395e-15 0.0613961) 491 976 1
(0.876486 0.0617569 1.48102e-15 0.0617569) 492 978 1
(0.876335 0.0618324 1.3673e-15 0.0618324) 493 980 1
(0.876335 0.0618324 1.6591e-15 0.0618324) 494 982 1
(0.876335 0.0618324 1.92447e-15 0.0618324) 495 984 1
(0.876335 0.0618324 1.45404e-15 0.0618324) 496 986 1
(0.876335 0.0618324 1.46655e-15 0.0618324) 497 988 1
(0.876335 0.0618324 1.49332e-15 0.0618324) 498 990 1
(0.781581 0.109209 1.40028e-15 0.109209) 499 992 1
(0.876477 0.0617614 1.48532e-15 0.0617614) 500 994 1
(0.87636 0.0618201 1.53564e-15 0.0618201) 501 996 1
(0.781581 0.109209 1.42029e-15 0.109209) 502 998 1
(0.876477 0.0617614 1.78868e-15 0.0617614) 503 1000 1
(0.87636 0.0618201 1.65432e-15 0.0618201) 504 1002 1
(0.876335 0.0618324 1.40658e-15 0.0618324) 505 1004 1
(0.876335 0.0618324 1.40658e-15 0.0618324) 506 1006 1
(0.876335 0.0618324 1.44586e-15 0.0618324) 507 1008 1
(0.876335 0.0618324 1.4402e-15 0.0618324) 508 1010 1
(0.876335 0.0618324 1.88157e-15 0.0618324) 509 1012 1
(0.876335 0.0618324 1.51443e-15 0.0618324) 510 1014 1
(0.876335 0.0618324 1.65428e-15 0.0618324) 511 1016 1
(0.876335 0.0618324 1.65428e-15 0.0618324) 512 1018 1
(0.876335 0.0618324 1.57802e-15 0.0618324) 513 1020 1
(0.876335 0.0618324 1.58928e-15 0.0618324) 514 1022 1
(0.876335 0.0618324 1.37981e-15 0.0618324) 515 1024 1
(0.876335 0.0618324 1.64912e-15 0.0618324) 516 1026 1
(0.781581 0.109209 1.5281e-15 0.109209) 517 1028 1
(0.876477 0.0617614 1.64833e-15 0.0617614) 518 1030 1
(0.87636 0.0618201 1.48189e-15 0.0618201) 519 1032 1
(0.781581 0.109209 1.30439e-15 0.109209) 520 1034 1
(0.876477 0.0617614 1.39427e-15 0.0617614) 521 1036 1
(0.87636 0.0618201 1.51446e-15 0.0618201) 522 1038 1
(0.876477 0.0617614 8.64701e-16 0.0617614) 525 1043 1
(0.87636 0.0618201 0.0618201 7.12683e-16) 526 1045 2
(0.876335 0.0618324 1.52443e-15 0.0618324) 527 1047 1
(0.876335 0.0618324 0.0618324 1.41784e-15) 528 1049 2
(0.876335 0.0618324 0.0618324 0) 529 1051 2
(0.876335 0.0618324 0 0.0618324) 530 1053 1
(0.876335 0.0618324 1.38477e-15 0.0618324) 531 1055 1
(0.876335 0.0618324 2.37937e-16 0.0618324) 532 1057 1
(0.781581 0.109209 0 0.109209) 533 1059 1
(0.682337 0.158831 0.158831 5.99375e-17) 534 1061 2
(0.782035 0.108982 2.92344e-17 0.108982) 535 1063 1
(0.876554 0.061723 0.061723 7.18512e-16) 536 1065 2
(0.87636 0.0618201 6.12635e-16 0.0618201) 537 1067 1
(0.876335 0.0618324 0.0618324 6.25937e-16) 538 1069 2
(0.876335 0.0618324 0.0618324 0) 539 1071 2
(0.876335 0.0618324 0.0618324 9.15348e-16) 540 1073 2
(0.781581 0.109209 5.91327e-16 0.109209) 541 1075 1
(0.876477 0.0617614 0.0617614 9.46523e-16) 542 1077 2
(0.87636 0.0618201 0.0618201 3.48396e-16) 543 1079 2
(0.876335 0.0618324 7.00853e-17 0.0618324) 544 1081 1
(0.876335 0.0618324 0 0.0618324) 545 1083 1
(0.579065 0.210467 0.210467 1.58507e-16) 546 1085 2
(0.877208 0.0613961 6.77802e-17 0.0613961) 547 1087 1
(0.876486 0.0617569 0.0617569 3.61725e-16) 548 1089 2
(0.876335 0.0618324 0 0.0618324) 549 1091 1
(0.876335 0.0618324 3.30476e-18 0.0618324) 550 1093 1
(0.876335 0.0618324 0.0618324 2.23919e-16) 551 1095 2
(0.876335 0.0618324 0 0.0618324) 552 1097 1
(0.876335 0.0618324 0 0.0618324) 553 1099 1
(0.781581 0.109209 3.88219e-16 0.109209) 554 1101 1
(0.876477 0.0617614 0.0617614 3.79574e-17) 555 1103 2
(0.87636 0.0618201 6.231e-17 0.0618201) 556 1105 1
(0.876335 0.0618324 0.0618324 8.94709e-16) 557 1107 2
(0.781581 0.109209 4.92305e-16 0.109209) 558 1109 1
(0.876477 0.0617614 0.0617614 8.17545e-17) 559 1111 2
(0.87636 0.0618201 8.05588e-17 0.0618201) 560 1113 1
(0.876335 0.0618324 0.0618324 6.52941e-16) 561 1115 2
(0.876335 0.0618324 3.71383e-16 0.0618324) 562 1117 1
(0.876335 0.0618324 7.38641e-16 0.0618324) 563 1119 1
(0.781581 0.109209 1.76436e-16 0.109209) 564 1121 1
(0.876477 0.0617614 0.0617614 8.1188e-16) 565 1123 2
(0.87636 0.0618201 0.0618201 1.30815e-15) 566 1125 2
(0.876335 0.0618324 7.00853e-17 0.0618324) 567 1127 1
(0.781581 0.109209 0 0.109209) 568 1129 1
(0.78172 0.10914 1.0706e-15 0.10914) 569 1131 1
(0.781741 0.10913 1.61176e-16 0.10913) 570 1133 1
(0.876502 0.0617491 0 0.0617491) 571 1135 1
(0.87636 0.0618201 0.0618201 5.79558e-16) 572 1137 2
(0.682202 0.158899 3.88467e-16 0.158899) 573 1139 1
(0.876778 0.061611 0.061611 8.95253e-16) 574 1141 2
(0.876412 0.0617941 7.86211e-16 0.0617941) 575 1143 1
(0.876335 0.0618324 7.40759e-16 0.0618324) 576 1145 1
(0.876335 0.0618324 7.80037e-16 0.0618324) 577 1147 1
(0.781581 0.109209 8.20508e-16 0.109209) 578 1149 1
(0.876477 0.0617614 6.87003e-16 0.0617614) 579 1151 1
(0.87636 0.0618201 7.38735e-16 0.0618201) 580 1153 1
(0.876335 0.0618324 6.99449e-16 0.0618324) 581 1155 1
(0.876335 0.0618324 6.68753e-16 0.0618324) 582 1157 1
(0.876335 0.0618324 8.27495e-16 0.0618324) 583 1159 1
(0.781581 0.109209 1.05612e-15 0.109209) 584 1161 1
(0.876477 0.0617614 9.01784e-16 0.0617614) 585 1163 1
(0.87636 0.0618201 5.92034e-16 0.0618201) 586 1165 1
(0.876335 0.0618324 8.60413e-16 0.0618324) 587 1167 1
(0.876335 0.0618324 6.29967e-16 0.0618324) 588 1169 1
(0.781581 0.109209 8.82128e-16 0.109209) 589 1171 1
(0.876477 0.0617614 1.43156e-15 0.0617614) 590 1173 1
(0.87636 0.0618201 8.14998e-16 0.0618201) 591 1175 1
(0.781581 0.109209 6.60973e-16 0.109209) 592 1177 1
(0.682337 0.158831 7.33719e-16 0.158831) 593 1179 1