/*--------------------------------*- C++ -*----------------------------------*\
  =========                 |
  \\      /  F ield         | OpenFOAM: The Open Source CFD Toolbox
   \\    /   O peration     | Website:  https://openfoam.org
    \\  /    A nd           | Version:  12
     \\/     M anipulation  |
\*---------------------------------------------------------------------------*/
FoamFile
{
    format      ascii;
    class       IOPosition;
    location    "0.8/lagrangian/cloud";
    object      positions;
}
// * * * * * * * * * * * * * * * * * * * * * * * * * * * * * * * * * * * * * //

5569
(
(8.49662e-08 0.5 1.09943e-08 0.5) 0 7376 1
(8.50237e-08 0.5 1.02261e-08 0.5) 0 7376 1
(8.50786e-08 0.5 0.000214574 0.499785) 0 7376 2
(8.51308e-08 0.5 0.0206611 0.479339) 0 7376 2
(8.51805e-08 0.5 0.0397248 0.460275) 0 7376 2
(8.52278e-08 0.5 0.0878533 0.412147) 0 7376 2
(8.52729e-08 0.5 0.0620002 0.438) 0 7376 2
(8.53159e-08 0.5 0.133791 0.366209) 0 7376 2
(8.53568e-08 0.5 0.139754 0.360246) 0 7376 2
(0.107914 0.446043 0.071863 0.37418) 0 7376 2
(0.203755 0.398122 0.115387 0.282735) 0 7375 1
(0.220928 0.389536 0.0153845 0.374152) 0 7375 1
(0.222496 0.388752 0.0141285 0.374624) 0 7375 1
(0.198548 0.400726 0.00189302 0.398833) 0 7375 1
(0.0100682 0.305808 0.494966 0.189158) 0 7375 2
(0.0581401 0.47093 0.290017 0.180913) 1 7377 1
(0.0620639 0.468968 0.0540097 0.414958) 1 7377 1
(0.233477 0.381336 0.383262 0.00192549) 1 7377 2
(0.476423 0.261788 0.0477507 0.214038) 1 2 1
(0.322118 0.338941 0.119868 0.219073) 1 2 1
(0.525291 0.235864 0.237355 0.00149099) 1 2 2
(0.379572 0.168689 0.310214 0.141525) 1 2 2
(0.233277 0.117973 0.383361 0.265388) 1 2 2
(0.104017 0.115503 0.332489 0.447992) 2 2 2
(0.660482 0.00583996 0.163919 0.169759) 2 2 2
(0.40304 0.125998 0.29848 0.172482) 2 7378 2
(0.415577 0.292212 0.224521 0.067691) 3 7379 1
(0.340705 0.329648 0.255807 0.0738404) 4 7380 1
(0.0526413 0.291236 0.182444 0.473679) 6 10 2
(0.399779 0.0140616 0.300111 0.286049) 6 7382 2
(0.455576 0.272212 0.153475 0.118737) 8 14 1
(0.133794 0.161037 0.272066 0.433103) 10 18 2
(0.116816 0.0401423 0.441592 0.40145) 11 22 2
(0.475164 0.208599 0.262418 0.0538191) 12 7388 2
(0.27614 0.00365596 0.358274 0.36193) 13 27 1
(0.330793 0.0718137 0.26279 0.334604) 14 29 1
(0.30729 0.210302 0.136053 0.346355) 15 31 1
(0.372052 0.313974 0.235303 0.0786704) 15 30 1
(0.530296 0.16712 0.234852 0.0677319) 16 7392 2
(0.587397 0.206301 0.150915 0.0553864) 17 7393 1
(0.0413239 0.479338 0.267961 0.211377) 18 34 1
(0.276643 0.361678 0.28227 0.0794086) 18 36 1
(0.320494 0.339753 0.284884 0.0548686) 19 38 1
(0.00464066 0.49768 0.309096 0.188584) 20 40 1
(0.245896 0.377052 0.0722257 0.304826) 22 42 1
(0.0121555 0.493922 0.169472 0.324451) 24 46 1
(0.858447 0.0707764 0.0522892 0.0184872) 25 51 2
(0.341515 0.11495 0.214293 0.329243) 28 54 2
(0.293468 0.190125 0.163141 0.353266) 29 59 1
(0.349937 0.325031 0.0503834 0.274648) 30 58 1
(0.138882 0.430559 0.142882 0.287677) 31 60 1
(0.425071 0.287465 0.12789 0.159575) 34 69 2
(0.214219 0.0854021 0.307488 0.39289) 35 71 1
(0.0734461 0.463277 0.395569 0.0677076) 112 75 2
(0.135273 0.393726 0.0386375 0.432363) 39 79 1
(0.0687643 0.465618 0.208448 0.257169) 112 223 1
(0.0914751 0.454262 0.181933 0.272329) 37 72 1
(0.396935 0.0438331 0.301532 0.257699) 38 7414 2
(0.146114 0.426943 0.249573 0.17737) 39 78 1
(0.581596 0.162821 0.209202 0.0463806) 40 7416 2
(0.229945 0.153498 0.231529 0.385027) 41 83 1
(0.161828 0.0358718 0.419086 0.383214) 42 84 2
(0.0846222 0.0756277 0.382061 0.457689) 44 86 2
(0.108478 0.0434719 0.402289 0.445761) 45 88 2
(0.169246 0.00287376 0.412503 0.415377) 45 91 1
(0.011443 0.181943 0.494279 0.312336) 121 93 1
(0.419722 0.28156 0.290139 0.00857938) 122 95 1
(0.484697 0.159488 0.257651 0.0981634) 46 7422 2
(0.505616 0.247192 0.0143046 0.232888) 47 92 1
(0.245741 0.37713 0.210118 0.167012) 47 94 1
(0.543353 0.173359 0.228323 0.0549646) 48 7424 2
(0.0165163 0.491742 0.137542 0.354199) 125 101 2
(0.161312 0.419344 0.0918678 0.327476) 50 98 1
(0.326932 0.336534 0.113666 0.222868) 52 105 2
(0.305333 0.347333 0.0635887 0.283745) 53 107 2
(8.31236e-08 0.499997 2.9203e-06 0.5) 75 7451 1
(8.36424e-08 0.499997 2.94557e-06 0.5) 75 7451 1
(5.46619e-08 0.5 0.0421752 0.457825) 0 7376 2
(5.6175e-08 0.237001 0.262999 0.5) 0 7376 1
(0.236687 0.371072 0.381657 0.0105845) 0 7375 2
(0.531938 0.22252 0.0115114 0.234031) 0 7376 1
(0.704119 0.147941 0.0870468 0.0608938) 0 7376 2
(0.401178 0.299411 0.296621 0.00278996) 0 0 1
(8.40851e-08 0.5 0.072212 0.427788) 75 7451 2
(0.367476 0.316262 0.312599 0.00366314) 0 0 1
(0.0429617 0.478519 0.157629 0.32089) 0 1 2
(8.44628e-08 0.5 0.179329 0.320671) 75 7451 2
(8.47851e-08 0.5 0.143139 0.356861) 75 7451 2
(8.50601e-08 0.5 0.136682 0.363318) 75 7451 2
(0.224028 0.21127 0.387986 0.176716) 0 7375 2
(8.52947e-08 0.5 0.127006 0.372993) 75 7451 2
(0.153628 0.423186 0.00381566 0.41937) 75 7451 2
(0.121968 0.439016 0.342109 0.0969072) 75 1 2
(0.0791732 0.460413 0.121126 0.339287) 1 7377 1
(0.386457 0.296816 0.306772 0.0099556) 1 7377 2
(0.288409 0.355795 0.324217 0.0315783) 76 3 2
(0.472978 0.263511 0.0317532 0.231758) 1 2 1
(0.0477759 0.476112 0.267318 0.208794) 76 3 2
(0.217399 0.391301 0.251714 0.139586) 76 3 2
(0.0558433 0.472078 0.20871 0.263368) 76 3 2
(0.010312 0.124106 0.494844 0.370738) 1 2 2
(0.192635 0.403683 0.0475405 0.356142) 77 5 2
(0.0794607 0.46027 0.064866 0.395404) 3 7 2
(0.0792217 0.353728 0.106661 0.460389) 4 9 1
(0.0920888 0.453956 0.333274 0.120681) 81 13 2
(0.11125 0.444375 0.167467 0.276908) 82 15 2
(0.232743 0.25734 0.383628 0.126289) 77 153 2
(0.053498 0.418554 0.0546971 0.473251) 77 151 2
(0.653311 0.0359015 0.137443 0.173345) 78 156 1
(0.595659 0.175334 0.0268368 0.20217) 79 158 1
(0.609856 0.195072 0.0228254 0.172247) 80 160 2
(0.211469 0.238088 0.394265 0.156177) 85 21 1
(0.270181 0.364909 0.35387 0.011039) 87 173 1
(0.499068 0.250466 0.138661 0.111805) 89 177 1
(0.718551 0.0426626 0.140724 0.0980617) 90 31 1
(0.000943872 0.499528 0.24876 0.250768) 92 35 2
(0.476917 0.253859 0.261541 0.00768264) 91 33 1
(0.117592 0.409948 0.441204 0.0312558) 162 174 1
(0.155473 0.422263 0.210868 0.211396) 165 180 2
(0.645168 0.177416 0.0946402 0.0827758) 92 181 1
(0.114897 0.166529 0.442552 0.276023) 96 43 1
(0.0205946 0.256374 0.233329 0.489703) 23 47 1
(0.365969 0.296318 0.317016 0.0206979) 99 49 1
(0.286131 0.317875 0.356935 0.0390597) 100 51 1
(0.172395 0.0277436 0.413803 0.386059) 103 57 1
(0.00035626 0.432119 0.0677024 0.499822) 31 63 1
(0.0989413 0.450529 0.0555081 0.395021) 175 200 2
(0.24295 0.378525 0.360029 0.0184961) 102 204 2
(0.121892 0.00232797 0.439054 0.436726) 103 205 2
(0.246483 0.343832 0.0329262 0.376758) 104 208 1
(0.474371 0.0300392 0.232775 0.262815) 105 207 2
(0.0195547 0.222646 0.490223 0.267577) 105 209 2
(0.54971 0.225145 0.0353033 0.189842) 109 218 2
(0.231148 0.384426 0.340462 0.043964) 112 224 2
(0.788295 0.105852 0.0516929 0.0541595) 113 226 2
(0.572263 0.213869 0.117334 0.0965343) 114 79 2
(0.305059 0.34747 0.026643 0.320827) 115 81 2
(0.315239 0.104556 0.342381 0.237824) 184 218 1
(0.287229 0.356385 0.0334511 0.322934) 186 368 1
(0.0911941 0.454403 0.21573 0.238672) 188 226 2
(0.0223904 0.488805 0.179307 0.309498) 189 228 2
(0.141563 0.429218 0.187462 0.241756) 115 230 2
(0.0767661 0.111922 0.349695 0.461617) 116 229 2
(0.0512981 0.0950093 0.474351 0.379342) 116 231 2
(0.0144605 0.49277 0.385018 0.107752) 194 238 2
(0.130511 0.434745 0.0895761 0.345169) 195 240 2
(0.681941 0.15903 0.134305 0.0247248) 123 97 2
(0.535125 0.232437 0.211176 0.0212614) 197 244 2
(0.449271 0.275365 0.247325 0.0280393) 196 242 2
(0.349806 0.301991 0.325097 0.0231057) 197 392 2
(8.56204e-08 0.5 0.5 3.02263e-09) 150 7452 2
(8.56271e-08 0.5 0.5 2.87086e-09) 150 7452 2
(1.07595e-07 0.5 0.0323071 0.467693) 75 7451 2
(8.56336e-08 0.5 0.14379 0.35621) 150 7452 2
(0.133392 0.433304 0.311053 0.12225) 75 1 2
(0.127534 0.436233 0.2625 0.173733) 75 1 2
(1.03511e-07 0.5 0.21007 0.28993) 75 7451 2
(1.0103e-07 0.5 0.272321 0.227679) 75 7451 2
(0.0868871 0.456556 0.203788 0.252769) 75 1 2
(7.87633e-08 0.5 0.360797 0.139203) 75 7451 2
(0.0080976 0.495951 0.315759 0.180192) 75 7451 2
(0.119114 0.440443 0.187955 0.252488) 75 1 2
(0.225965 0.387017 0.22882 0.158197) 75 7451 2
(0.392984 0.303508 0.156612 0.146896) 150 150 2
(0.469143 0.183881 0.265428 0.0815473) 150 150 1
(0.504367 0.17579 0.247816 0.072026) 150 150 1
(0.411427 0.294286 0.0310747 0.263212) 150 150 2
(0.320983 0.339509 0.137766 0.201742) 75 7451 2
(0.148446 0.425777 0.0979936 0.327783) 75 1 2
(0.177105 0.0140544 0.411447 0.397393) 0 0 2
(0.0443628 0.277896 0.477819 0.199922) 75 1 1
(0.0520239 0.165506 0.473988 0.308482) 75 1 1
(0.0227367 0.0124587 0.476173 0.488632) 0 1 1
(0.0984967 0.450752 0.424146 0.0266058) 76 3 2
(0.0107829 0.494609 0.473333 0.0212755) 76 3 2
(0.208422 0.395789 0.348048 0.0477409) 151 152 2
(0.203267 0.398367 0.199602 0.198765) 151 152 2
(0.13456 0.43272 0.120138 0.312583) 151 152 2
(0.674073 0.162963 0.0720026 0.0909609) 76 149 1
(0.884025 0.0169575 0.0410301 0.0579876) 76 152 1
(0.347736 0.319244 0.326132 0.00688761) 76 151 2
(0.532365 0.233818 0.01529 0.218528) 151 298 1
(0.234443 0.382779 0.00125362 0.381525) 151 152 2
(0.455007 0.195475 0.272497 0.0770213) 151 152 1
(0.362451 0.318775 0.311448 0.00732709) 151 300 1
(0.411242 0.294379 0.172044 0.122335) 151 300 1
(0.629809 0.0959969 0.0890984 0.185095) 77 151 2
(0.0245191 0.259399 0.228342 0.48774) 77 154 1
(0.264146 0.200905 0.367927 0.167022) 153 156 1
(0.274055 0.0146218 0.362973 0.348351) 154 158 1
(0.20528 0.089285 0.39736 0.308075) 155 160 1
(0.050017 0.232773 0.242218 0.474991) 81 162 1
(0.357188 0.0770547 0.244351 0.321406) 82 164 1
(0.323251 0.186308 0.152066 0.338374) 83 166 1
(0.0828215 0.451516 0.00707276 0.458589) 85 170 1
(0.392436 0.248615 0.303782 0.0551666) 163 176 1
(0.535384 0.0646232 0.232308 0.167685) 165 180 1
(0.283425 0.0447912 0.358288 0.313496) 166 182 1
(0.294348 0.0332778 0.352826 0.319548) 93 185 2
(0.750399 0.028624 0.1248 0.0961763) 95 189 2
(0.532791 0.233605 0.220119 0.0134855) 168 186 2
(0.032372 0.483814 0.182954 0.30086) 170 190 2
(0.0716877 0.464156 0.169529 0.294627) 171 338 1
(0.0888739 0.455563 0.294309 0.161254) 244 337 2
(0.00106425 0.263764 0.499468 0.235704) 245 339 1
(0.180131 0.409934 0.113563 0.296372) 171 341 2
(0.354612 0.0529738 0.26972 0.322694) 171 341 1
(0.307959 0.298343 0.0476778 0.346021) 172 343 1
(0.212161 0.207635 0.39392 0.186284) 176 350 2
(0.574116 0.0681639 0.212942 0.144778) 179 208 1
(0.075735 0.462133 0.351528 0.110605) 180 358 1
(0.0856531 0.10085 0.457173 0.356323) 106 211 2
(0.0239438 0.114686 0.488028 0.373342) 253 355 1
(0.0562491 0.471875 0.362815 0.109061) 255 359 2
(0.363868 0.318066 0.219634 0.0984315) 181 361 2
(0.225214 0.134113 0.25328 0.387393) 181 361 1
(0.184367 0.142402 0.265414 0.407817) 183 365 1
(0.227867 0.0560509 0.386067 0.330016) 184 366 2
(0.281326 0.359337 0.162624 0.196712) 260 369 2
(0.0788149 0.460593 0.310804 0.149789) 186 371 2
(0.331095 0.252129 0.0823231 0.334452) 187 373 1
(0.273209 0.231962 0.131434 0.363396) 188 375 1
(0.387568 0.206964 0.0992523 0.306216) 189 377 1
(0.684894 0.09758 0.0599729 0.157553) 190 379 1
(0.379862 0.310069 0.0297299 0.280339) 191 381 2
(8.52418e-08 0.499999 9.9901e-07 0.5) 225 7453 1
(8.52716e-08 0.499999 1.0004e-06 0.5) 225 7453 1
(6.59038e-08 0.5 0.0519101 0.44809) 150 7452 2
(8.53004e-08 0.5 0.153336 0.346664) 225 7453 2
(6.62368e-08 0.5 0.00331456 0.496685) 150 7452 2
(0.0349387 0.149157 0.333373 0.482531) 75 7451 1
(6.65641e-08 0.5 0.0659958 0.434004) 150 7452 2
(0.399995 0.0384773 0.261525 0.300003) 75 7451 1
(0.201119 0.39944 0.0526506 0.34679) 75 150 2
(0.193027 0.0293249 0.374162 0.403487) 75 7451 1
(0.373276 0.313362 0.116343 0.197019) 75 150 2
(0.56461 0.217695 0.112307 0.105388) 75 150 2
(0.605626 0.197187 0.149648 0.0475392) 75 150 2
(0.448256 0.239872 0.0359994 0.275872) 75 150 1
(0.150546 0.389779 0.424727 0.0349481) 225 299 1
(0.36014 0.209458 0.110472 0.31993) 75 150 1
(0.237222 0.381389 0.359646 0.0217435) 150 298 1
(0.704448 0.147776 0.0999309 0.047845) 150 298 1
(0.38168 0.0796519 0.30916 0.229508) 150 150 1
(0.13195 0.434025 0.00775772 0.426268) 151 298 1
(0.0824341 0.172043 0.28674 0.458783) 75 150 1
(0.132172 0.433914 0.387635 0.0462786) 151 152 2
(0.219197 0.183346 0.207056 0.390401) 75 150 1
(0.119365 0.440317 0.43156 0.00875793) 225 447 1
(0.227068 0.16335 0.223116 0.386466) 75 150 1
(0.0994786 0.450261 0.00422239 0.446038) 151 298 1
(0.19661 0.401695 0.287264 0.11443) 226 301 2
(0.323593 0.338203 0.0142166 0.323987) 226 447 1
(0.426421 0.28679 0.0163449 0.270445) 226 447 1
(0.54899 0.225505 0.0699989 0.155506) 226 447 1
(0.508072 0.245964 0.119067 0.126897) 226 301 2
(0.378477 0.294222 0.310762 0.0165393) 226 301 1
(0.463021 0.20619 0.26849 0.0622994) 226 301 1
(0.463215 0.268393 0.0610211 0.207372) 226 449 1
(0.330847 0.0685611 0.334577 0.266016) 226 301 1
(0.308505 0.345747 0.0314221 0.314325) 226 449 1
(0.247203 0.0781117 0.298287 0.376399) 227 449 2
(0.114962 0.442519 0.0750378 0.367481) 151 300 1
(0.101462 0.344607 0.449269 0.104662) 151 300 2
(0.297136 0.117685 0.233747 0.351432) 152 300 2
(0.483258 0.258371 0.172934 0.0854365) 152 303 2
(0.199191 0.144059 0.256346 0.400405) 152 303 1
(0.0362491 0.398916 0.481875 0.0829597) 228 305 1
(0.00335229 0.498324 0.339409 0.158915) 230 309 2
(0.0501029 0.474949 0.316026 0.158922) 231 311 2
(0.423422 0.0341794 0.254109 0.288289) 156 311 1
(0.142135 0.428932 0.295086 0.133846) 157 313 2
(0.290564 0.354718 0.122939 0.231779) 158 315 2
(0.294403 0.352799 0.306565 0.0462338) 159 317 2
(0.123974 0.287527 0.150486 0.438013) 160 319 1
(0.140912 0.429544 0.095738 0.333806) 162 323 2
(0.106861 0.446569 0.340495 0.106074) 163 325 2
(0.209312 0.395344 0.140087 0.255257) 239 327 2
(0.00889297 0.495554 0.133076 0.362478) 241 331 2
(0.567134 0.105528 0.216433 0.110905) 241 479 2
(0.396733 0.168002 0.133631 0.301633) 242 482 1
(0.225902 0.267263 0.119786 0.387049) 244 486 1
(0.285948 0.00988464 0.357026 0.347141) 245 487 2
(0.385912 0.307044 0.0297683 0.277276) 247 492 2
(0.419724 0.290138 0.260063 0.0300748) 248 491 1
(0.492214 0.253893 0.0101825 0.243711) 249 347 2
(0.182949 0.408525 0.0977995 0.310726) 251 351 2
(0.230346 0.287999 0.0968283 0.384827) 252 499 2
(0.119958 0.405599 0.440021 0.0344214) 327 502 1
(0.234622 0.117257 0.265432 0.382689) 253 504 1
(0.201027 0.0296152 0.369871 0.399487) 254 506 1
(0.0274997 0.101455 0.48625 0.384795) 255 507 2
(0.731392 0.104819 0.0294847 0.134304) 257 509 2
(0.0909882 0.252401 0.454506 0.202105) 332 512 1
(0.347285 0.326357 0.0841353 0.242222) 258 514 2
(0.0916008 0.0699797 0.38422 0.4542) 259 513 2
(0.0307678 0.484616 0.31639 0.168226) 260 518 2
(0.702029 0.0549666 0.0940188 0.148985) 261 520 1
(0.527073 0.191945 0.0445187 0.236464) 262 522 1
(0.417405 0.291298 0.214635 0.0766622) 263 524 2
(7.37383e-08 0.5 0.499998 1.88448e-06) 300 7454 2
(7.38021e-08 0.5 0.499998 1.89559e-06) 300 7454 2
(5.64162e-08 0.5 0.0276303 0.47237) 225 7453 2
(7.38487e-08 0.5 0.161479 0.338521) 300 7454 2
(5.74471e-08 0.5 0.013567 0.486433) 225 7453 2
(0.0633995 0.4683 0.0695166 0.398784) 150 299 2
(0.135586 0.432207 0.369203 0.0630041) 225 299 2
(0.149398 0.425301 0.304387 0.120914) 225 299 2
(0.118128 0.440936 0.419731 0.0212047) 225 447 1
(0.820538 0.0897311 0.0488627 0.0408684) 150 298 1
(0.14082 0.42959 0.421438 0.00815207) 225 447 1
(0.143338 0.428331 0.420241 0.00808984) 225 447 1
(0.171419 0.41429 0.405813 0.00847786) 225 447 1
(0.147731 0.426135 0.417248 0.00888658) 225 447 1
(0.158539 0.420731 0.406903 0.0138275) 225 447 1
(0.187966 0.406017 0.393998 0.0120194) 225 447 1
(0.213612 0.393194 0.382382 0.0108119) 225 447 1
(0.139388 0.430306 0.413807 0.0164989) 225 447 1
(0.875684 0.0185554 0.0621581 0.0436027) 225 299 1
(0.619126 0.190437 0.149114 0.0413232) 150 298 1
(0.22019 0.389905 0.374769 0.0151362) 225 447 1
(0.280218 0.359891 0.353311 0.00657981) 225 447 1
(0.16643 0.407663 0.416785 0.00912171) 300 448 1
(0.336249 0.331876 0.253582 0.0782935) 300 596 1
(0.325113 0.337444 0.147425 0.190018) 300 596 1
(0.11432 0.44284 0.195404 0.247436) 301 596 1
(0.117647 0.441176 0.0953584 0.345818) 300 596 1
(0.243473 0.378263 0.188884 0.189379) 301 596 1
(0.314099 0.342951 0.237811 0.10514) 301 596 1
(0.417793 0.291104 0.227334 0.0637702) 301 596 1
(0.474432 0.262784 0.179448 0.0833357) 301 450 2
(0.525074 0.237463 0.156221 0.0812419) 301 596 1
(0.647181 0.163394 0.176409 0.0130152) 301 450 1
(0.756155 0.0237431 0.121922 0.0981793) 301 450 1
(0.371083 0.0184624 0.314458 0.295996) 301 450 1
(0.255415 0.372292 0.293669 0.0786236) 301 598 1
(0.222834 0.249965 0.388583 0.138617) 301 598 2
(0.257401 0.196465 0.174834 0.3713) 302 598 2
(0.477427 0.133303 0.127983 0.261287) 302 601 1
(0.207486 0.0652972 0.396257 0.33096) 227 451 2
(0.145165 0.257875 0.427417 0.169542) 303 454 1
(0.447868 0.236921 0.276066 0.0391451) 304 456 1
(0.484966 0.257517 0.170989 0.0865285) 229 456 2
(0.210918 0.266632 0.127909 0.394541) 230 458 1
(0.215384 0.392308 0.287073 0.105236) 231 460 2
(0.204424 0.0136607 0.384127 0.397788) 231 460 1
(0.21132 0.39434 0.267135 0.127205) 232 462 2
(0.0574336 0.121243 0.471283 0.35004) 232 461 2
(0.278079 0.12549 0.235471 0.360961) 233 464 1
(0.31631 0.0856445 0.2562 0.341845) 234 466 1
(0.334489 0.0258581 0.306897 0.332755) 236 467 2
(0.317058 0.341471 0.153261 0.18821) 237 472 2
(0.303011 0.348494 0.231572 0.116923) 238 474 2
(0.317275 0.341363 0.0376675 0.303695) 240 478 2
(0.273532 0.121218 0.363234 0.242016) 316 480 1
(0.355908 0.178222 0.322046 0.143824) 318 632 2
(0.343926 0.0187508 0.309286 0.328037) 319 635 1
(0.25108 0.0526444 0.37446 0.321815) 320 636 2
(0.160342 0.0710137 0.419829 0.348815) 321 638 2
(0.203801 0.0678536 0.3981 0.330246) 322 640 2
(0.334088 0.0318651 0.301091 0.332956) 323 643 1
(0.329582 0.200812 0.134396 0.335209) 324 645 1
(0.341534 0.329233 0.252559 0.0766741) 325 647 2
(0.262597 0.368701 0.203377 0.165324) 326 649 2
(0.154277 0.0184758 0.422862 0.404386) 327 650 2
(0.283556 0.137356 0.220866 0.358222) 328 653 1
(0.312149 0.300746 0.0431796 0.343926) 329 655 1
(0.343585 0.328208 0.214637 0.113571) 330 657 2
(0.379992 0.310004 0.0476341 0.26237) 331 659 2
(0.344654 0.0199422 0.307731 0.327673) 332 658 2
(0.219776 0.390112 0.0629942 0.327118) 333 663 2
(0.156497 0.0580798 0.421751 0.363672) 333 662 2
(0.175172 0.0301766 0.412414 0.382238) 334 664 2
(0.370681 0.314659 0.243257 0.0714024) 336 666 1
(0.292976 0.22993 0.123582 0.353512) 337 668 2
(7.37615e-08 0.49999 1.03094e-05 0.5) 375 7455 1
(7.38252e-08 0.49999 1.03411e-05 0.5) 375 7455 1
(5.44256e-09 0.5 0.0415018 0.458498) 300 7454 2
(7.38793e-08 0.5 0.167277 0.332723) 375 7455 2
(0.50174 0.24913 0.100356 0.148774) 225 7453 2
(3.05832e-09 0.5 0.000581995 0.499418) 300 7454 2
(0.579292 0.210354 0.106007 0.104347) 225 7453 2
(1.58384e-08 0.5 0.0782782 0.421722) 300 7454 2
(0.235577 0.32028 0.382211 0.0619312) 300 448 1
(0.284882 0.272344 0.357559 0.0852147) 300 448 1
(0.250666 0.15741 0.374667 0.217257) 300 448 1
(0.272533 0.128933 0.363733 0.234801) 300 448 1
(0.233621 0.0876595 0.383189 0.29553) 300 448 1
(0.228341 0.385829 0.340269 0.0455602) 300 596 1
(0.166519 0.41674 0.321334 0.0954065) 300 596 1
(0.181159 0.409421 0.325549 0.0838718) 300 596 1
(0.165514 0.417243 0.328955 0.0882878) 300 596 1
(0.302167 0.348916 0.340854 0.00806238) 300 596 1
(0.168273 0.415863 0.348515 0.0673488) 300 596 1
(0.183381 0.408309 0.34853 0.0597789) 300 596 1
(0.203349 0.398326 0.332626 0.0656996) 300 596 1
(0.211226 0.394387 0.327105 0.0672815) 300 596 1
(0.286576 0.096516 0.356712 0.260196) 300 596 2
(0.390491 0.29139 0.304754 0.013364) 375 745 2
(0.361189 0.307731 0.319406 0.0116741) 375 745 2
(0.246193 0.376904 0.0929075 0.283996) 375 745 1
(0.0819016 0.459049 0.289997 0.169052) 376 745 1
(0.0590148 0.470493 0.209953 0.26054) 376 745 1
(0.342791 0.0169266 0.311678 0.328605) 375 746 1
(0.286757 0.356621 0.229328 0.127293) 376 745 1
(0.183111 0.408445 0.0450464 0.363398) 376 748 2
(0.428764 0.285618 0.0340483 0.25157) 376 748 2
(0.488479 0.25576 0.188653 0.0671076) 376 745 1
(0.422402 0.288799 0.262408 0.026391) 376 745 1
(0.305829 0.347085 0.193877 0.153208) 376 599 2
(0.140888 0.429556 0.423255 0.00630102) 301 599 2
(0.0292288 0.369223 0.116162 0.485386) 301 599 1
(0.0010268 0.215892 0.283594 0.499487) 301 599 1
(0.300705 0.349647 0.0135333 0.336114) 377 747 1
(0.672805 0.0719806 0.163598 0.0916169) 377 749 2
(0.0161793 0.454712 0.49191 0.0371986) 379 605 1
(0.136494 0.245017 0.431753 0.186737) 380 607 1
(0.222218 0.125208 0.388891 0.263683) 381 609 1
(0.458866 0.270567 0.227857 0.0427098) 382 759 1
(0.188455 0.0403888 0.365384 0.405772) 308 610 2
(0.0121572 0.137453 0.356468 0.493921) 309 612 2
(0.285209 0.104456 0.25294 0.357396) 309 615 1
(0.312519 0.343741 0.310226 0.0335144) 310 617 2
(0.25374 0.0160315 0.357099 0.37313) 311 616 2
(0.314741 0.0440959 0.298534 0.34263) 311 619 1
(0.303577 0.278327 0.0698845 0.348212) 312 621 1
(0.279318 0.360341 0.318132 0.0422091) 313 623 2
(0.363665 0.202417 0.11575 0.318167) 314 625 1
(0.0897996 0.15822 0.4551 0.29688) 315 626 2
(0.164423 0.417788 0.0238412 0.393947) 393 633 2
(0.379902 0.0141669 0.310049 0.295882) 394 783 2
(0.50335 0.198693 0.049632 0.248325) 395 786 1
(0.404551 0.297725 0.114369 0.183355) 396 788 2
(0.1684 0.09131 0.32449 0.4158) 397 787 2
(0.224675 0.0549571 0.387662 0.332705) 397 789 2
(0.290337 0.164695 0.190137 0.354832) 398 792 1
(0.335292 0.332354 0.304191 0.0281633) 399 794 2
(0.268286 0.365857 0.220832 0.145025) 400 796 2
(0.419359 0.21485 0.0754704 0.290321) 401 798 1
(0.36603 0.201273 0.115712 0.316985) 402 800 1
(0.293193 0.207394 0.146009 0.353403) 403 802 1
(0.294303 0.219316 0.133533 0.352848) 404 804 1
(0.170708 0.167456 0.24719 0.414646) 405 806 1
(0.531012 0.234494 0.206383 0.0281107) 406 808 2
(0.44158 0.0117752 0.267435 0.27921) 407 807 2
(0.270292 0.364854 0.0271303 0.337724) 482 810 2
(0.163161 0.418419 0.193962 0.224458) 483 812 2
(0.0491715 0.475414 0.409952 0.0654626) 483 960 1
(0.283768 0.358116 0.0498196 0.308296) 484 814 2
(0.115182 0.442409 0.120801 0.321608) 485 816 2
(8.53147e-08 0.499995 4.48326e-06 0.5) 450 7456 1
(8.53387e-08 0.499995 4.49799e-06 0.5) 450 7456 1
(0.510899 0.24455 0.129179 0.115371) 300 7454 2
(8.5362e-08 0.5 0.137771 0.362229) 450 7456 2
(4.24876e-10 0.5 0.0160562 0.483944) 375 7455 2
(0.206338 0.396831 0.291396 0.105435) 375 597 2
(0.222112 0.388944 0.0769448 0.311999) 375 597 2
(0.217924 0.391038 0.0437182 0.34732) 375 597 2
(0.000531404 0.499734 0.0924496 0.407285) 375 7455 2
(0.517024 0.241488 0.161686 0.0798018) 300 7454 2
(0.374187 0.196192 0.312907 0.116715) 375 597 1
(0.379222 0.167652 0.310389 0.142737) 375 597 1
(0.438611 0.186824 0.280695 0.0938705) 375 597 1
(0.306525 0.346738 0.293108 0.0536296) 375 745 1
(0.22541 0.387295 0.223581 0.163714) 375 745 1
(0.199375 0.400313 0.26313 0.137183) 375 745 1
(0.203223 0.398389 0.210126 0.188263) 375 745 1
(0.189514 0.405243 0.190374 0.214869) 375 745 1
(0.179575 0.410213 0.0212342 0.388978) 375 745 1
(0.205989 0.397005 0.057721 0.339284) 375 745 1
(0.210597 0.394701 0.197014 0.197687) 375 745 1
(0.223212 0.388394 0.0938882 0.294506) 375 745 1
(0.237813 0.381093 0.00771656 0.373377) 375 745 1
(0.412457 0.0941277 0.293772 0.199644) 450 746 1
(0.544129 0.179033 0.227935 0.048902) 450 746 1
(0.298646 0.226864 0.350677 0.123813) 450 894 2
(0.0110279 0.371803 0.122683 0.494486) 451 894 2
(0.588386 0.205807 0.090877 0.11493) 451 748 2
(0.783888 0.0344795 0.0735767 0.108056) 451 894 2
(0.847068 0.0130714 0.0633948 0.0764662) 451 894 2
(0.546499 0.0146085 0.226751 0.212142) 376 747 2
(0.045629 0.166062 0.477186 0.311123) 451 748 1
(0.162707 0.256429 0.418647 0.162217) 451 748 1
(0.176575 0.0548105 0.411713 0.356902) 451 748 1
(0.318248 0.340876 0.305356 0.03552) 451 896 1
(0.0790525 0.460474 0.168549 0.291925) 451 896 1
(0.0069621 0.496519 0.158746 0.337773) 452 896 1
(0.0191183 0.490441 0.327439 0.163002) 451 896 1
(0.367959 0.31602 0.255847 0.0601729) 452 896 1
(0.867647 0.0569131 0.00926327 0.0661764) 452 896 2
(0.337483 0.0878611 0.331259 0.243398) 452 898 2
(0.166967 0.0752312 0.416516 0.341285) 378 751 2
(0.0843667 0.457817 0.124979 0.332837) 380 756 2
(0.161957 0.330063 0.419022 0.0889587) 456 758 1
(0.0744431 0.462778 0.220269 0.242509) 383 762 2
(0.222318 0.388841 0.00647239 0.382369) 384 764 2
(0.136311 0.0523108 0.379534 0.431845) 385 763 2
(0.0136148 0.116143 0.493193 0.377049) 385 765 2
(0.166673 0.0260057 0.416664 0.390658) 386 767 2
(0.22452 0.0114194 0.376321 0.38774) 387 770 1
(0.26351 0.00682878 0.368245 0.361416) 388 771 2
(0.293066 0.0260453 0.327422 0.353467) 389 774 1
(0.263798 0.0411843 0.326917 0.368101) 390 776 1
(0.793818 0.0274213 0.0756697 0.103091) 392 780 1
(0.206532 0.0195715 0.377163 0.396734) 394 781 2
(0.439675 0.159789 0.120373 0.280163) 470 935 1
(0.394144 0.302928 0.139269 0.163659) 471 937 2
(0.0231822 0.130986 0.357423 0.488409) 472 936 2
(0.267264 0.189471 0.176897 0.366368) 472 939 1
(0.348534 0.325733 0.11737 0.208363) 473 941 2
(0.320519 0.0508324 0.33974 0.288908) 548 941 1
(0.0958341 0.133596 0.452083 0.318487) 549 943 1
(0.181429 0.217333 0.409285 0.191952) 475 944 2
(0.383382 0.0590503 0.308309 0.249259) 476 946 2
(0.0451993 0.4774 0.024849 0.452551) 552 949 2
(0.056667 0.404912 0.471666 0.0667543) 553 951 1
(0.0875076 0.456246 0.220012 0.236234) 554 953 2
(0.323317 0.0964251 0.338341 0.241916) 554 953 1
(0.34681 0.242368 0.0842272 0.326595) 480 955 1
(0.413083 0.293459 0.0209874 0.272471) 481 957 2
(0.375015 0.3111 0.312492 0.00139193) 556 957 1
(0.256941 0.371529 0.160688 0.210841) 557 959 2
(0.271189 0.364406 0.267681 0.0967245) 558 961 2
(0.24757 0.376215 0.00688185 0.369333) 559 1109 1
(0.182393 0.408803 0.108514 0.300289) 485 965 2
(8.52419e-08 0.5 0.5 1.28473e-07) 525 7457 2
(8.52717e-08 0.5 0.5 1.28685e-07) 525 7457 2
(4.1417e-08 0.5 0.0413879 0.458612) 450 7456 2
(8.53004e-08 0.5 0.0999984 0.400002) 525 7457 2
(4.28216e-08 0.5 0.00736952 0.49263) 450 7456 2
(0.157164 0.421418 0.102849 0.318569) 450 746 2
(0.109041 0.445479 0.213414 0.232066) 375 597 2
(0.19995 0.400025 0.104295 0.29573) 450 746 2
(0.237349 0.381326 0.0841238 0.297202) 450 746 2
(0.241975 0.31119 0.0678225 0.379012) 375 7455 1
(0.212164 0.38602 0.393918 0.00789863) 450 894 2
(0.189411 0.385011 0.405294 0.0202831) 450 894 2
(0.211467 0.353446 0.394266 0.0408203) 450 894 2
(0.239772 0.333889 0.380114 0.046225) 450 894 2
(0.206952 0.289333 0.396524 0.107191) 450 894 2
(0.211547 0.309375 0.394226 0.0848513) 450 894 2
(8.53282e-08 0.5 0.0480335 0.451966) 525 7457 2
(0.448481 0.275759 0.0389155 0.236844) 525 895 2
(0.522925 0.0978516 0.238537 0.140686) 525 895 1
(0.221697 0.306217 0.389152 0.0829342) 450 894 2
(0.254368 0.280885 0.372816 0.0919311) 450 894 2
(0.263312 0.322154 0.368344 0.04619) 450 894 2
(0.28063 0.333137 0.359685 0.0265479) 450 894 2
(0.545824 0.0328372 0.227088 0.194251) 525 895 1
(0.288871 0.355564 0.0854071 0.270157) 525 1043 1
(0.556696 0.00253758 0.221652 0.219115) 525 1043 2
(0.406846 0.0118408 0.284736 0.296577) 525 1044 1
(0.328653 0.335674 0.245041 0.0906323) 600 1044 2
(0.123625 0.438188 0.0735986 0.364589) 600 1044 2
(0.365271 0.317364 0.153301 0.164063) 526 897 2
(0.509988 0.245006 0.0793456 0.16566) 526 897 2
(0.0398836 0.480058 0.00986798 0.47019) 526 1046 2
(0.914866 0.0341852 0.0425669 0.00838168) 526 897 1
(0.341441 0.245409 0.32928 0.0838701) 526 897 1
(0.130762 0.434619 0.37061 0.0640087) 526 1045 1
(0.168849 0.0712134 0.415575 0.344362) 451 896 2
(0.00401955 0.49799 0.35057 0.147421) 527 1045 1
(0.0185719 0.490714 0.250582 0.240132) 526 1045 1
(0.0257955 0.421477 0.0656251 0.487102) 527 1045 2
(0.291219 0.35439 0.0116843 0.342706) 527 1045 1
(0.615424 0.0836936 0.192288 0.108594) 527 1047 2
(0.414519 0.196911 0.09583 0.292741) 453 901 1
(0.190783 0.404608 0.162175 0.242433) 455 905 2
(0.103504 0.448248 0.30988 0.138367) 533 911 2
(0.0118132 0.180623 0.494093 0.31347) 458 910 2
(0.0607045 0.115997 0.469648 0.35365) 459 912 2
(0.150574 0.0512847 0.424713 0.373428) 460 914 2
(0.202253 0.0143817 0.398873 0.384492) 461 916 2
(0.00966225 0.102522 0.392647 0.495169) 463 918 2
(0.234098 0.382951 0.113373 0.269578) 464 923 2
(0.298495 0.179668 0.171085 0.350753) 465 925 1
(0.0875156 0.456242 0.43199 0.0242519) 541 1075 1
(0.456148 0.000467302 0.271459 0.271926) 467 926 2
(0.33431 0.0194541 0.313391 0.332845) 468 928 2
(0.0630249 0.146205 0.322283 0.468488) 469 930 2
(0.305565 0.0223047 0.347217 0.324913) 469 932 2
(0.271908 0.102985 0.261062 0.364046) 545 1081 2
(0.142491 0.110008 0.428754 0.318746) 545 1083 2
(0.289273 0.246627 0.108736 0.355363) 546 1086 1
(0.321307 0.339346 0.0685781 0.270768) 547 1088 2
(0.33042 0.117403 0.33479 0.217387) 622 1088 1
(0.273524 0.310387 0.363238 0.0528514) 623 1090 1
(0.259284 0.370358 0.0819485 0.28841) 624 1092 2
(0.384137 0.307931 0.293864 0.0140676) 550 1094 2
(0.212694 0.393653 0.350009 0.0436444) 625 1242 1
(0.0530249 0.0344777 0.43901 0.473488) 552 1095 2
(0.289042 0.355479 0.0947033 0.260776) 553 1100 2
(0.218457 0.0858012 0.390772 0.30497) 628 1100 1
(0.362922 0.318539 0.0310999 0.287439) 629 1102 2
(0.293901 0.35305 0.136608 0.216442) 630 1104 2
(0.226371 0.386815 0.164276 0.222539) 631 1106 2
(0.242692 0.378654 0.197575 0.181079) 632 1108 2
(0.126565 0.309276 0.436718 0.127442) 633 1110 1
(0.210528 0.204543 0.394736 0.190193) 634 1112 1
(0.577305 0.109836 0.211348 0.101512) 560 965 1
(5.24652e-08 0.5 0.499855 0.000145341) 600 7458 2
(5.45279e-08 0.5 0.499867 0.000132776) 600 7458 2
(0.00044092 0.49978 0.181054 0.318726) 525 7457 2
(5.64612e-08 0.5 0.0290207 0.470979) 600 7458 2
(0.167296 0.416352 0.333227 0.0831248) 525 895 2
(0.000434806 0.499783 0.00489541 0.494887) 525 7457 2
(0.256875 0.0657871 0.305775 0.371562) 450 895 1
(0.207735 0.396132 0.00927026 0.386862) 525 1043 1
(0.215916 0.392042 0.243383 0.148659) 525 895 2
(0.202451 0.398774 0.0134037 0.385371) 525 1043 1
(0.206023 0.396988 0.0273723 0.369616) 525 1043 1