/*--------------------------------*- C++ -*----------------------------------*\
  =========                 |
  \\      /  F ield         | OpenFOAM: The Open Source CFD Toolbox
   \\    /   O peration     | Website:  https://openfoam.org
    \\  /    A nd           | Version:  12
     \\/     M anipulation  |
\*---------------------------------------------------------------------------*/
FoamFile
{
    format      ascii;
    class       vectorField;
    location    "0.8/lagrangian/cloud";
    object      U;
}
// * * * * * * * * * * * * * * * * * * * * * * * * * * * * * * * * * * * * * //


5569
(
(-8.52719e-12 -3.09966e-05 0)
(-8.14268e-12 -3.10175e-05 0)
(-7.77548e-12 -3.10375e-05 0)
(-7.42481e-12 -3.10566e-05 0)
(-7.08993e-12 -3.10747e-05 0)
(-6.77013e-12 -3.10919e-05 0)
(-6.46473e-12 -3.11084e-05 0)
(-6.17308e-12 -3.1124e-05 0)
(-5.89457e-12 -3.1139e-05 0)
(-0.000190703 -0.00263161 0)
(-0.000317377 -0.00352674 0)
(-0.000362413 -0.00350298 0)
(-0.000364055 -0.00328755 0)
(-0.000436553 -0.00278255 0)
(-4.5224e-06 -0.00164669 0)
(-0.00120438 -0.00667296 0)
(-0.00138716 -0.00824559 0)
(-0.00185063 -0.00724107 0)
(-0.00235931 -0.00862711 0)
(-0.000454307 0.00113515 0)
(-0.00240407 -0.000546094 0)
(-0.00263466 -0.00672262 0)
(-0.00235425 -0.00949533 0)
(0.00386907 -0.0105862 0)
(0.0038337 -0.00469236 0)
(0.00400732 -0.0170596 0)
(0.00125296 -0.0252847 0)
(-0.00235605 -0.0290258 0)
(-0.000894144 -0.0288506 0)
(0.000301123 -0.0290074 0)
(-0.000704165 -0.0303191 0)
(-0.0013399 -0.0269463 0)
(0.000234648 -0.0258376 0)
(-0.000698324 -0.0246383 0)
(-0.000193099 -0.0247658 0)
(0.000482778 -0.0240205 0)
(-8.41526e-05 -0.0208718 0)
(-0.000158153 -0.0244045 0)
(0.000600822 -0.0273894 0)
(-0.000304252 -0.0278046 0)
(0.00146112 -0.0270374 0)
(0.0016469 -0.0305834 0)
(-0.000261158 -0.032234 0)
(-0.000870538 -0.0331303 0)
(-6.16195e-05 -0.0302149 0)
(0.000556394 -0.0272311 0)
(0.00183176 -0.0245224 0)
(-0.000437888 -0.0234973 0)
(4.81424e-05 -0.0219477 0)
(-0.00010849 -0.0279659 0)
(0.00125923 -0.0270652 0)
(0.000155079 -0.0216572 0)
(0.000163537 -0.0224419 0)
(-0.000947447 -0.0175956 0)
(-0.000683285 -0.0192392 0)
(-0.000343374 -0.0224472 0)
(0.000390114 -0.0267324 0)
(0.00108393 -0.0284322 0)
(-0.000620549 -0.0254748 0)
(-0.000646561 -0.0221462 0)
(-5.82667e-05 -0.020493 0)
(-0.000115553 -0.0189009 0)
(9.13255e-05 -0.0164036 0)
(0.00057904 -0.0118711 0)
(-8.38565e-05 -0.0102809 0)
(0.00111687 -0.0111079 0)
(0.00194345 -0.0114563 0)
(-0.000590029 -0.024352 0)
(-0.000206279 -0.0247022 0)
(-8.06707e-05 -0.0214307 0)
(-0.0003533 -0.023308 0)
(0.00170762 -0.016882 0)
(0.00091496 -0.0285776 0)
(0.000772223 -0.0233759 0)
(0.000397312 -0.0233388 0)
(-1.09558e-11 -3.04959e-05 0)
(-9.60705e-12 -3.06858e-05 0)
(7.27761e-07 -1.99536e-05 0)
(6.94199e-07 -2.0505e-05 0)
(-0.000382934 -0.00318089 0)
(-0.00061636 -0.00659598 0)
(-0.000757971 -0.00825678 0)
(-0.000705252 -0.00704655 0)
(-8.42297e-12 -3.08479e-05 0)
(-0.000590357 -0.00652682 0)
(-0.000682164 -0.000695368 0)
(-7.38372e-12 -3.09861e-05 0)
(-6.47181e-12 -3.11041e-05 0)
(-5.67184e-12 -3.12048e-05 0)
(-0.000331424 -0.00423037 0)
(-4.97022e-12 -3.12907e-05 0)
(-0.000141883 -0.00193243 0)
(-0.000495574 -0.0031068 0)
(-0.00131547 0.00128791 0)
(-0.00302294 -0.00590901 0)
(-0.0094153 0.00158267 0)
(-0.00123633 3.47101e-05 0)
(-0.00174306 -0.00991001 0)
(-0.00198837 -0.00541224 0)
(-0.000113178 -0.00952394 0)
(-0.00054743 -0.00748836 0)
(0.00211176 -0.0137465 0)
(0.00105783 -0.0284767 0)
(-0.00117737 -0.0298341 0)
(-0.000413629 -0.0281994 0)
(-0.00217493 -0.0259565 0)
(-0.00291716 -0.0220721 0)
(0.00266129 -0.00863935 0)
(-0.00164135 -0.0336166 0)
(-0.000681662 -0.0376807 0)
(-0.000675521 -0.0340399 0)
(-0.00102784 -0.0242042 0)
(-0.00196603 -0.0282877 0)
(0.000892921 -0.0251306 0)
(-0.00107881 -0.0232674 0)
(-8.87265e-05 -0.0210615 0)
(-0.000107068 -0.0255147 0)
(-0.00190003 -0.0338195 0)
(-0.00276237 -0.0313029 0)
(-0.000131714 -0.0255391 0)
(0.000741021 -0.0256465 0)
(-0.000632038 -0.02562 0)
(-0.00031423 -0.0246671 0)
(-7.23385e-05 -0.0245539 0)
(-0.000757923 -0.021551 0)
(-0.000222898 -0.0194599 0)
(-0.000339416 -0.0317339 0)
(-0.000655079 -0.0297562 0)
(0.000502197 -0.0235665 0)
(0.00119506 -0.0241721 0)
(0.00103329 -0.0288302 0)
(-0.00125932 -0.0240405 0)
(0.000571007 -0.0267681 0)
(0.000415999 -0.024273 0)
(0.00134132 -0.021966 0)
(-0.00107658 -0.0246343 0)
(-0.000339952 -0.0179529 0)
(-0.000501521 -0.0281897 0)
(0.000118169 -0.0288932 0)
(0.000191157 -0.0247043 0)
(-0.000363994 -0.0264678 0)
(-0.00100173 -0.0252049 0)
(-0.00281505 -0.0260688 0)
(-0.00389393 -0.0256704 0)
(-0.000735804 -0.0201877 0)
(-0.000900588 -0.0188999 0)
(0.00255793 -0.010856 0)
(-5.39073e-05 -0.0145369 0)
(-0.00192048 -0.019565 0)
(0.0021145 -0.0186614 0)
(-1.72728e-13 -3.11811e-05 0)
(-1.70005e-13 -3.11835e-05 0)
(1.57096e-06 -3.94485e-05 0)
(-1.67326e-13 -3.11859e-05 0)
(-0.000373984 -0.00364042 0)
(-0.000492821 -0.0041166 0)
(4.45045e-05 -3.78949e-05 0)
(3.8743e-05 -3.69959e-05 0)
(-0.000733904 -0.0046407 0)
(4.94866e-05 -2.87783e-05 0)
(0.000303568 -0.00089328 0)
(-0.00071171 -0.00478926 0)
(0.000202243 -0.00235188 0)
(0.00826353 -0.00703277 0)
(-0.0112623 -0.00788046 0)
(-0.0116674 -0.00800271 0)
(0.00978644 -0.0123568 0)
(-1.82822e-05 -0.00295175 0)
(-0.00104467 -0.00575805 0)
(-0.00199586 -0.00706651 0)
(-0.00213358 -0.00909095 0)
(-0.00231708 -0.00988414 0)
(-0.00201484 -0.00627897 0)
(-0.00248986 -0.00408823 0)
(0.00160128 0.000221294 0)
(-0.00209507 -0.00200131 0)
(-0.00129684 -0.0110589 0)
(-0.000865761 -4.56243e-05 0)
(-0.0093766 -0.00422629 0)
(-0.00402689 -0.00243676 0)
(0.000123452 -0.00982548 0)
(-0.00457732 -0.00435057 0)
(-0.00087844 -0.00388168 0)
(-0.000391028 -0.003605 0)
(-0.00187107 -0.0065542 0)
(-0.00211305 -0.00791915 0)
(-0.00304693 -0.0137353 0)
(-0.00280658 -0.0183801 0)
(-0.00183432 -0.0379674 0)
(-0.000924213 -0.0374485 0)
(-0.000331562 -0.0354051 0)
(-0.00123951 -0.032658 0)
(-0.000701511 -0.0308329 0)
(0.000243343 -0.0356104 0)
(-0.000736181 -0.0316546 0)
(-0.00218006 -0.0350356 0)
(-0.000770898 -0.0323343 0)
(-0.00113099 -0.0352984 0)
(-0.000336755 -0.0298492 0)
(-0.00143362 -0.0275246 0)
(-0.000881986 -0.0345959 0)
(0.000392401 -0.0281983 0)
(-0.000222237 -0.0292611 0)
(-0.000661905 -0.0377195 0)
(0.000458038 -0.0351972 0)
(0.000715755 -0.0314961 0)
(0.00115311 -0.0313315 0)
(-0.000745135 -0.0370822 0)
(-0.000783832 -0.036698 0)
(0.00130483 -0.0293709 0)
(0.000209301 -0.0270844 0)
(-0.000660468 -0.0252819 0)
(8.42756e-05 -0.0337353 0)
(0.00103203 -0.0337985 0)
(0.00236554 -0.0292457 0)
(0.00106345 -0.0286868 0)
(-0.000732692 -0.0369324 0)
(-0.000226066 -0.0330069 0)
(0.00210423 -0.0348424 0)
(0.0025662 -0.0352446 0)
(0.00161899 -0.0376003 0)
(0.000676184 -0.0331012 0)
(-4.80691e-05 -0.0321238 0)
(-0.00104773 -0.0334577 0)
(-0.00269251 -0.0346474 0)
(8.28199e-12 -3.1074e-05 0)
(8.00961e-12 -3.10848e-05 0)
(-2.35628e-06 -2.40139e-05 0)
(7.74617e-12 -3.10953e-05 0)
(-2.31776e-06 -2.41349e-05 0)
(0.000843747 0.00041052 0)
(-2.27989e-06 -2.42539e-05 0)
(0.00051449 -0.00231359 0)
(0.000629884 -0.00180615 0)
(0.000727248 -0.00113352 0)
(2.87109e-05 -0.00405274 0)
(-0.000136458 -0.00501129 0)
(-0.000229797 -0.00547987 0)
(-0.000325932 -0.0062626 0)
(-0.00199487 -0.00467576 0)
(-0.000408537 -0.0068406 0)
(-0.00265161 -0.0130164 0)
(0.00715368 -0.00435534 0)
(-0.0108671 -0.00577855 0)
(0.00161295 -0.0110472 0)
(-0.000593734 -0.00873953 0)
(-0.00184485 -0.00140596 0)
(-0.000478182 -0.00700687 0)
(-0.000456862 -0.00722622 0)
(-0.00049067 -0.00665035 0)
(-0.00306179 -0.00689883 0)
(-0.00153048 -0.0106165 0)
(-0.00151008 -0.00323526 0)
(-0.00189116 -0.00273254 0)
(-0.00193131 -0.000826927 0)
(0.0010793 -0.00307149 0)
(0.00245298 -1.83071e-05 0)
(-0.0035667 -0.0114571 0)
(-0.0031095 -0.00962542 0)
(-0.00298912 -0.0030829 0)
(-0.0013718 0.000863162 0)
(0.0057378 -0.0114406 0)
(-0.0025423 -0.00848146 0)
(-0.00305929 -0.00933544 0)
(-0.00148432 -0.0123158 0)
(-0.00227811 -0.0145316 0)
(-0.00127706 -0.0231786 0)
(0.00192004 -0.0348766 0)
(-0.00131602 -0.0387042 0)
(-0.00134964 -0.0371283 0)
(-0.00110715 -0.0408745 0)
(-0.0013157 -0.0430339 0)
(-6.0431e-05 -0.0440226 0)
(-0.000457813 -0.0461722 0)
(-0.00193828 -0.0464711 0)
(-0.00179199 -0.0431991 0)
(-0.00133151 -0.0428773 0)
(0.000222273 -0.0455125 0)
(-0.00141652 -0.0411145 0)
(-0.00147633 -0.0403098 0)
(0.000740406 -0.0418461 0)
(-0.000565772 -0.0379638 0)
(0.00302666 -0.0378924 0)
(-0.000557826 -0.0396656 0)
(-0.00193329 -0.0398569 0)
(-0.00125291 -0.0393334 0)
(-0.000355224 -0.0389001 0)
(-0.00121629 -0.041073 0)
(0.000668361 -0.0400275 0)
(0.000881019 -0.0375718 0)
(0.000634087 -0.0389841 0)
(-0.00023907 -0.0414305 0)
(-0.00162622 -0.0394709 0)
(-0.00253481 -0.0380069 0)
(-0.00146971 -0.0403528 0)
(0.000229936 -0.0389499 0)
(0.000941864 -0.0374356 0)
(0.00194177 -0.0385558 0)
(0.00199053 -0.039361 0)
(0.00134537 -0.0386662 0)
(-2.18247e-10 -2.64539e-05 0)
(-4.27283e-10 -2.64767e-05 0)
(-1.93284e-06 -2.04987e-05 0)
(-5.86228e-10 -2.64929e-05 0)
(-1.86846e-06 -2.0877e-05 0)
(-0.00102117 -0.00275163 0)
(0.000489195 -0.00154254 0)
(0.00120939 -0.00211766 0)
(-0.000105619 -0.00570675 0)
(-0.000491051 -0.0121665 0)
(-0.000127577 -0.00600916 0)
(-0.000832424 -0.0113557 0)
(-0.00013453 -0.00536777 0)
(-0.000784886 -0.0106103 0)
(-2.13133e-05 -0.00471842 0)
(2.00196e-05 -0.00428438 0)
(0.000218248 -0.00389159 0)
(0.000399752 -0.00341703 0)
(-0.00400053 -0.00453854 0)
(-0.00625744 -0.00607417 0)
(0.000159332 -0.0027207 0)
(-0.00385379 -0.00391843 0)
(-0.00106007 -0.00546004 0)
(-0.000976387 -0.00793192 0)
(-0.000758097 -0.00742674 0)
(-0.0013186 -0.00949172 0)
(-0.000804535 -0.0065026 0)
(-0.00149784 -0.0087293 0)
(-0.000642377 -0.00753811 0)
(-0.00137168 -0.00796628 0)
(-0.00228017 -0.00776586 0)
(-0.00152787 -0.00838867 0)
(-0.00263798 -0.00651687 0)
(-4.68282e-07 -0.00339681 0)
(-0.00284043 -0.00842297 0)
(-0.00504726 -0.00685365 0)
(-0.00163402 -0.00859972 0)
(0.00109709 -0.0125967 0)
(0.002819 -0.0251896 0)
(-0.00259071 -0.0342304 0)
(-0.00196355 -0.0401487 0)
(-0.0021768 -0.0405823 0)
(-0.000706857 -0.0427041 0)
(-0.00138185 -0.0379949 0)
(-0.00147005 -0.0371248 0)
(-5.17276e-05 -0.0371061 0)
(-0.000259393 -0.039097 0)
(0.000134463 -0.0405109 0)
(0.000787872 -0.0394873 0)
(0.00106315 -0.0432309 0)
(-0.00124292 -0.0454976 0)
(-0.000533969 -0.0455209 0)
(-0.000351844 -0.0460967 0)
(-0.000279618 -0.0467521 0)
(-0.000122414 -0.0412847 0)
(-0.0012803 -0.0407113 0)
(-0.00116339 -0.0386855 0)
(-0.000119841 -0.0398178 0)
(-0.000622022 -0.0400576 0)
(-0.00074418 -0.0375075 0)
(-2.8218e-05 -0.0375316 0)
(0.000392533 -0.0394471 0)
(0.000189654 -0.0412813 0)
(0.000218772 -0.0414677 0)
(0.000663152 -0.0388188 0)
(0.00102896 -0.0385434 0)
(0.000327059 -0.0400332 0)
(0.000559607 -0.0408702 0)
(0.000386512 -0.0404538 0)
(-0.000446076 -0.0372531 0)
(-0.000429781 -0.0359823 0)
(0.000110085 -0.0353286 0)
(0.000643934 -0.0367588 0)
(0.000606477 -0.0391901 0)
(-0.000642132 -0.0336069 0)
(1.50626e-11 -2.64633e-05 0)
(2.26402e-11 -2.64862e-05 0)
(-1.28182e-05 -1.89001e-06 0)
(6.69411e-12 -2.65053e-05 0)
(-0.00278125 -0.000541699 0)
(-1.06991e-05 -7.05106e-07 0)
(-0.00297502 -0.000860193 0)
(-1.24578e-05 -5.77934e-06 0)
(-0.000763575 -0.00445645 0)
(-0.000827675 -0.00452941 0)
(-0.000927271 -0.00477609 0)
(-0.000989572 -0.00459845 0)
(-0.00107776 -0.00433898 0)
(-0.00108314 -0.00441309 0)
(-0.00108344 -0.00386099 0)
(-0.00107286 -0.00347009 0)
(-0.00107822 -0.00305247 0)
(-0.000804066 -0.00289188 0)
(-0.00105849 -0.00254264 0)
(-0.00105356 -0.00271311 0)
(-0.00102716 -0.00435673 0)
(-0.00109713 -0.00477696 0)
(-0.00254515 -0.00333845 0)
(-0.000252514 -0.0102088 0)
(-0.000608479 -0.00957694 0)
(0.000367638 -0.00838919 0)
(-0.000546297 -0.0112618 0)
(0.000655938 0.004008 0)
(0.00138528 -0.0132306 0)
(-0.000435042 -0.00349234 0)
(-0.00330938 0.00173044 0)
(0.000419289 0.00443761 0)
(0.000783189 -0.0106196 0)
(0.000324229 -0.00797093 0)
(0.00530606 -0.0147199 0)
(0.00540266 -0.0135758 0)
(-0.0148305 -0.00492615 0)
(0.0093978 -0.0171744 0)
(-0.0124112 -0.0145631 0)
(-0.00317152 -0.0174942 0)
(-0.00175055 -0.0380963 0)
(-0.00223995 -0.0380539 0)
(-0.00206792 -0.0388514 0)
(0.000443351 -0.0355081 0)
(-6.28013e-05 -0.0351077 0)
(7.64727e-05 -0.0332552 0)
(0.000915258 -0.03157 0)
(-0.000796432 -0.0332676 0)
(-0.000702217 -0.033392 0)
(0.000782722 -0.0329535 0)
(-0.00065287 -0.0351221 0)
(-0.00065149 -0.0376549 0)
(0.0009743 -0.0410799 0)
(-0.000532793 -0.0415775 0)
(-0.00011511 -0.0412015 0)
(-0.00129628 -0.0358661 0)
(-0.000361748 -0.0377838 0)
(-0.000670145 -0.0398273 0)
(6.69051e-05 -0.0386697 0)
(-0.000402848 -0.0368055 0)
(0.000341608 -0.0377708 0)
(2.45719e-05 -0.0392441 0)
(4.02118e-05 -0.0393628 0)
(0.00150247 -0.0398177 0)
(0.000737208 -0.0392083 0)
(-0.000464092 -0.0378962 0)
(-0.00141669 -0.0365246 0)
(-0.00273619 -0.0357892 0)
(-0.000797431 -0.0339991 0)
(-0.000800715 -0.0365181 0)
(-0.000104609 -0.0373308 0)
(-0.00133305 -0.0370692 0)
(-0.0011973 -0.0343459 0)
(-0.00132002 -0.0331941 0)
(-0.00128025 -0.0330885 0)
(3.45587e-12 -3.10945e-05 0)
(3.3533e-12 -3.11033e-05 0)
(-0.000417152 -0.0018831 0)
(3.25377e-12 -3.11118e-05 0)
(-2.93976e-05 1.47177e-07 0)
(-0.00142921 -0.0028155 0)
(-0.00207942 -0.00454132 0)
(-0.00143515 -0.00411445 0)
(-0.000979454 0.000307619 0)
(-0.00040804 -0.00212167 0)
(-0.000917914 -0.00601797 0)
(-0.000876884 -0.00581847 0)
(-0.000813584 -0.00548768 0)
(-0.000634883 -0.00568151 0)
(-0.000497789 -0.00522955 0)
(-0.000580574 -0.00463757 0)
(-0.000496455 -0.00430179 0)
(-0.000467942 -0.0039218 0)
(-0.000130809 -0.00395292 0)
(-0.000212663 -0.00348134 0)
(-0.000511157 -0.00247529 0)
(-0.000328147 -0.00237876 0)
(-0.000203739 -0.00235583 0)
(0.00146719 -0.00939073 0)
(0.00138201 -0.00986813 0)
(0.00162615 -0.00559918 0)
(0.000426083 -0.0075877 0)
(0.00214605 -0.00643259 0)
(0.00218274 -0.00546272 0)
(0.00231421 -0.00512769 0)
(-0.000998107 -0.00357624 0)
(-0.000658501 -0.00479373 0)
(-0.00121114 -0.00191127 0)
(0.000680621 -0.00582819 0)
(-0.00042296 -0.00659528 0)
(-0.00163833 0.00248916 0)
(-0.00422183 -0.00599903 0)
(-0.00467873 -0.00457228 0)
(-0.00664834 -0.00747811 0)
(-0.0073581 -0.00957092 0)
(-0.00296224 -0.0178871 0)
(-0.00218727 -0.0407217 0)
(-0.00357133 -0.0409573 0)
(-0.00329109 -0.0425685 0)
(-0.00199605 -0.0380532 0)
(-0.00130755 -0.0373889 0)
(-0.000861406 -0.0363097 0)
(-0.000399081 -0.0345005 0)
(0.00152724 -0.0350881 0)
(0.000810086 -0.0368326 0)
(-1.2438e-05 -0.0383747 0)
(-0.000164574 -0.0381987 0)
(-0.000293715 -0.038793 0)
(0.0013937 -0.0397946 0)
(-0.000845374 -0.0368167 0)
(-4.47009e-05 -0.0340651 0)
(-0.000720836 -0.0359704 0)
(-0.000166114 -0.0343253 0)
(-8.30965e-05 -0.0333327 0)
(-0.000858047 -0.0358712 0)
(0.000152291 -0.035624 0)
(2.7033e-05 -0.0349853 0)
(0.000574797 -0.0386279 0)
(-0.00178896 -0.0334091 0)
(-0.000398117 -0.0315838 0)
(-0.00169116 -0.0329659 0)
(-0.000459065 -0.0324906 0)
(-7.96173e-05 -0.0335487 0)
(-0.000905272 -0.037561 0)
(-0.000470305 -0.0382317 0)
(0.000821289 -0.0393915 0)
(-5.80891e-05 -0.0411284 0)
(-0.000996963 -0.0419837 0)
(-0.000866678 -0.0416662 0)
(-0.000478926 -0.0402528 0)
(2.37117e-11 -3.1074e-05 0)
(2.29326e-11 -3.10848e-05 0)
(-2.68073e-06 -1.50445e-05 0)
(2.21791e-11 -3.10953e-05 0)
(-2.60026e-06 -1.55583e-05 0)
(-0.000271005 -0.00363014 0)
(-0.00123911 0.00188172 0)
(0.000932912 -0.0041309 0)
(0.00118779 -0.00483588 0)
(0.000645016 0.00177034 0)
(0.00116175 -0.00425431 0)
(0.00115945 -0.00388904 0)
(0.00121063 -0.00976704 0)
(0.00111153 -0.0102418 0)
(0.0012566 -0.00372313 0)
(0.00119507 -0.00330969 0)
(2.14502e-11 -3.11055e-05 0)
(0.000498889 -0.00572297 0)
(0.00077756 -0.00679022 0)
(0.00113523 -0.00293527 0)
(0.0013775 -0.00268068 0)
(0.00133091 -0.00229154 0)
(0.00131663 -0.00196506 0)
(0.000991775 -0.00664261 0)
(0.0032917 -0.00617075 0)
(0.00446168 -0.0133959 0)
(-0.00439523 -0.00879679 0)
(0.000268597 -0.00632904 0)
(0.000664311 -0.00609637 0)
(0.00168376 -0.00894249 0)
(-2.50487e-05 -0.00779921 0)
(-0.00171398 -0.00730641 0)
(-0.00095404 -0.00391621 0)
(0.000522729 -0.00684571 0)
(-0.00224265 -0.00701022 0)
(-0.000556241 0.00203359 0)
(-0.00297543 -0.00288725 0)
(-0.00273013 -0.00424354 0)
(-0.000581417 0.00345011 0)
(-0.00728428 -0.00537749 0)
(-0.00282457 -0.0155707 0)
(0.00184768 -0.0403813 0)
(-0.00351045 -0.0438527 0)
(-0.00180645 -0.0415201 0)
(-0.00170298 -0.039851 0)
(-0.000516924 -0.0383853 0)
(0.000392678 -0.0358604 0)
(0.000868199 -0.0353269 0)
(0.000583534 -0.0363093 0)
(0.000292996 -0.0372012 0)
(-0.000691427 -0.0371435 0)
(0.000479587 -0.0343271 0)
(0.000620053 -0.0355573 0)
(0.000112415 -0.0374826 0)
(2.99748e-05 -0.0346523 0)
(-0.000872891 -0.0331873 0)
(-0.000888727 -0.0317751 0)
(-0.000274408 -0.0315599 0)
(-0.00061072 -0.0326546 0)
(-0.00109479 -0.0350416 0)
(-0.000128467 -0.035338 0)
(0.000166159 -0.0354968 0)
(0.000357413 -0.0354961 0)
(0.00151551 -0.0361796 0)
(0.0010484 -0.0369815 0)
(-0.00139389 -0.0334624 0)
(-0.00053313 -0.036551 0)
(0.000235772 -0.0399383 0)
(-0.000646593 -0.0399051 0)
(-0.000514375 -0.0392068 0)
(0.000476629 -0.0433796 0)
(0.000262876 -0.0444697 0)
(-0.000922191 -0.0406661 0)
(0.000632571 -0.0427995 0)
(-0.00122751 -0.0429037 0)
(-1.58391e-05 -1.90465e-05 0)
(-1.49478e-05 -1.98071e-05 0)
(-0.0012659 -0.000198689 0)
(-1.41043e-05 -2.05198e-05 0)
(-0.000163416 -0.00336153 0)
(-0.00127936 -0.000287789 0)
(0.000819251 -0.00608122 0)
(0.00232175 -0.00500044 0)
(0.000917343 -0.00115768 0)
(0.00228833 -0.0043569 0)
(0.00235108 -0.00555844 0)
(0.00238827 -0.00369094 0)
(0.00237173 -0.0033554 0)
(0.00328398 -0.00994288 0)
(0.00332756 -0.00979184 0)
(0.00251247 -0.00964944 0)
(-1.33067e-05 -2.11878e-05 0)
(-1.25529e-05 -2.18142e-05 0)
(-1.18408e-05 -2.24018e-05 0)
(-4.57978e-05 -0.00267568 0)
(4.01844e-05 -0.00361599 0)
(-1.5107e-05 -2.24622e-05 0)
(0.00018535 -0.00540677 0)
(0.00368473 -0.00981208 0)
(0.000638053 -0.0101047 0)
(0.000816752 -0.0112039 0)
(0.00153232 -0.00317311 0)
(0.00121318 -0.0103412 0)
(0.000332361 -0.00672917 0)
(-0.00031074 -0.00578049 0)
(-0.000232229 -0.00451666 0)
(-0.000480264 -0.00424533 0)
(0.000183599 0.00112787 0)
(0.000300119 0.00102061 0)
(-0.00169461 -0.00430983 0)
(-0.00149411 0.000824939 0)
(0.00846306 -0.000786606 0)
(-0.00128337 -0.00019383 0)
(-0.0012029 -0.00646997 0)
(-0.00215689 -0.00891205 0)
(0.00808822 -0.0123223 0)
(0.00186909 -0.0386317 0)
(-0.00241593 -0.0395493 0)
(-0.00172447 -0.0399023 0)
(-0.00131833 -0.0381853 0)
(-0.000229803 -0.0365523 0)
(2.50789e-05 -0.0349114 0)
(0.000491436 -0.0342863 0)
(0.000537109 -0.0340116 0)
(0.00188896 -0.0344314 0)
(0.000720731 -0.0312745 0)
(-0.00208891 -0.0283393 0)
(0.000147935 -0.0305135 0)
(-0.00054486 -0.0291794 0)
(0.000570282 -0.0300897 0)
(0.000549683 -0.0337388 0)
(0.000926703 -0.0311277 0)
(0.000220081 -0.030863 0)
(0.000250787 -0.0331348 0)
(-0.00056789 -0.0341124 0)
(-1.45195e-05 -0.0351471 0)
(-0.000111534 -0.0357271 0)
(-0.000476643 -0.0395543 0)
(0.000623953 -0.0385482 0)
(0.0013878 -0.0393226 0)
(0.00223614 -0.0412958 0)
(-0.000276448 -0.0425435 0)
(-0.00010432 -0.042325 0)
(-8.56546e-06 -0.0456503 0)
(0.000879895 -0.0426135 0)
(0.000892201 -0.0449545 0)
(-0.000277901 -0.0418754 0)
(-0.00109479 -0.045793 0)
(-0.000249828 -0.0441531 0)
(-0.000205689 -0.0440101 0)
(3.05552e-11 -3.09647e-05 0)
(2.90178e-11 -3.09909e-05 0)
(-0.000378468 0.00151144 0)
(2.75576e-11 -3.10158e-05 0)
(-0.000335392 0.00146615 0)
(-0.000252021 0.000727159 0)
(0.00142788 -0.00938917 0)
(-0.000267383 -0.00101401 0)
(0.00143419 -0.00828071 0)
(0.00098379 -0.00767724 0)
(0.00147955 -0.00638217 0)
(-0.000312309 -0.000559791 0)
(0.00106416 -0.00672235 0)
(0.00140257 -0.00484987 0)
(2.61708e-11 -3.10393e-05 0)
(-0.000519335 -0.00469411 0)
(-0.00115618 -0.00369798 0)
(-0.000483064 -0.00464386 0)
(-0.000487718 -0.0058168 0)
(0.00238555 -0.0104685 0)
(-0.00059665 -0.0108125 0)
(-0.00178144 -0.00913351 0)
(-0.0015538 -0.00827222 0)
(-0.00197214 -0.00748819 0)
(-0.000446181 -0.0064701 0)
(-0.000712171 -0.00587445 0)
(-4.058e-06 -0.00437847 0)
(-0.00345577 -0.00537829 0)
(-0.00155052 -0.00310855 0)
(-0.00197396 -0.000270492 0)
(-0.00143284 -0.00524286 0)
(-0.00177712 -0.00503333 0)
(-0.00165618 -0.00472633 0)
(-0.00127128 -0.00664142 0)
(-0.00117092 -0.00762081 0)
(-0.000847165 0.000731106 0)
(-0.00111952 -0.00476884 0)
(-0.00126044 -0.00446987 0)
(-0.00181828 -0.00877096 0)
(-0.000994914 -0.0104652 0)
(0.0027513 -0.0371799 0)
(-0.00320314 -0.0403865 0)
(-0.00152557 -0.0395547 0)
(-0.00450824 -0.0359174 0)
(-0.00428489 -0.0379921 0)
(-0.00242175 -0.037368 0)
(-0.00589222 -0.0364176 0)
(-0.00100875 -0.0357116 0)
(-0.00211823 -0.0343439 0)
(0.000423675 -0.033003 0)
(0.000877586 -0.0338963 0)
(0.000411362 -0.0339742 0)
(-0.000463036 -0.0307203 0)
(1.10652e-05 -0.0306892 0)
(0.000260794 -0.041711 0)
(0.000607172 -0.0392172 0)
(0.00106323 -0.0386253 0)
(0.000221572 -0.0388804 0)
(0.000328651 -0.0391624 0)
(0.00184072 -0.0400454 0)
(0.000303079 -0.041091 0)
(-0.000102397 -0.0404836 0)
(0.000923636 -0.0405964 0)
(0.00142437 -0.0414657 0)
(0.00102344 -0.042966 0)
(0.00105826 -0.042783 0)
(-0.000588417 -0.044433 0)
(0.00193904 -0.0434905 0)
(2.0398e-05 -0.0487711 0)
(0.000264049 -0.0459237 0)
(-0.00094375 -0.0449976 0)
(0.000328114 -0.0445757 0)
(0.000631019 -0.0453351 0)
(-0.0007141 -0.0467488 0)
(-0.000608892 -0.046579 0)
(-3.37198e-10 -2.66518e-05 0)
(-6.06002e-10 -2.66607e-05 0)
(-0.00175527 0.00159097 0)
(-1.01708e-09 -2.67871e-05 0)
(-0.00167601 0.000560334 0)
(-0.000604733 -0.00655544 0)
(-0.00130888 -0.00376976 0)
(-0.00184179 0.000623219 0)
(-0.00113969 -0.00455891 0)
(-0.00128277 -0.00405645 0)
(-0.00182115 0.00108977 0)
(-0.00118155 -0.0037341 0)
(-0.00408102 -0.00431213 0)
(-1.37202e-09 -2.67578e-05 0)
(-0.00140103 -0.00585235 0)
(-0.0019389 -0.00894802 0)
(-0.0090966 -0.00975929 0)
(-0.00487849 -0.00608733 0)
(-0.00459047 -0.00552002 0)
(-0.00447563 -0.00512332 0)
(-0.00401205 -0.00426912 0)
(-0.00388086 -0.00375417 0)
(-0.00388136 -0.00339305 0)
(-0.00339051 -0.0025106 0)
(-0.00233044 -0.00656399 0)
(-0.00289295 -0.00793965 0)
(-0.00218084 -0.00113413 0)
(-0.00316057 -0.00681337 0)
(-0.00205805 -0.00374537 0)
(-0.00225412 -0.00711809 0)
(-0.00246852 -0.00605169 0)
(-0.00272395 -0.00509208 0)
(-0.00464188 -0.00263714 0)
(-0.001453 -0.000304262 0)
(-0.0016009 -0.00158936 0)
(-0.00160853 -0.00625731 0)
(-0.00120566 -0.00694243 0)
(-0.000925762 -0.00887931 0)
(-0.00304471 -0.0144584 0)
(-0.00127529 -0.0233174 0)
(-0.00301907 -0.0406224 0)
(-0.00189781 -0.0391829 0)
(-0.00312245 -0.0379542 0)
(-0.00511716 -0.0340263 0)
(-0.00527299 -0.0342313 0)
(-0.00460055 -0.0368076 0)
(-0.0034391 -0.0359841 0)
(-0.00164329 -0.0370492 0)
(-0.000684951 -0.037818 0)
(-0.000458973 -0.0385761 0)
(-0.0021062 -0.0405091 0)
(0.000312908 -0.0451491 0)
(0.00112034 -0.044496 0)
(-0.00040951 -0.0439609 0)
(0.000760625 -0.0455263 0)
(-0.000362316 -0.0475447 0)
(-0.000496742 -0.0488793 0)
(-7.52802e-05 -0.0478207 0)
(2.03508e-05 -0.0466416 0)
(0.000533401 -0.0434026 0)
(-0.000717977 -0.044411 0)
(-0.000611352 -0.0448341 0)
(0.00065186 -0.047704 0)
(0.000799273 -0.0444794 0)
(0.000597013 -0.0438304 0)
(0.00499499 -0.0453798 0)
(0.00143364 -0.0455843 0)
(0.00125426 -0.0478858 0)
(-0.000343747 -0.0488294 0)
(-0.000107996 -0.0465987 0)
(-0.000277527 -0.0449015 0)
(5.23042e-05 -0.0430623 0)
(0.000508321 -0.0424591 0)
(-0.000105655 -0.043015 0)
(-6.17746e-06 -0.0440387 0)
(-3.34818e-10 -2.56224e-05 0)
(-6.00041e-10 -2.5641e-05 0)
(0.00109494 0.00107259 0)
(-5.98055e-10 -3.1033e-05 0)
(-0.00177373 0.00236777 0)
(-0.00248276 0.00239534 0)
(-0.000829392 -0.00405398 0)
(-0.000566758 -0.00409272 0)
(-0.000502205 -0.00436654 0)
(-0.00377011 -0.00241211 0)
(-0.00262544 -0.00760031 0)
(-0.00162685 -0.00268772 0)
(-0.0036003 -0.00805175 0)
(-0.00429828 -0.00712102 0)
(-0.00290896 -0.00633918 0)
(-0.00438191 -0.00865853 0)
(-0.00205415 -0.00734405 0)
(-0.00439896 -0.0097036 0)
(-0.00530335 -0.00920885 0)
(-0.00426421 -0.0090266 0)
(-0.00420576 -0.00863691 0)
(-0.00481487 -0.00835585 0)
(-0.00457001 -0.00797308 0)
(-0.00421054 -0.00760897 0)
(-0.0021512 -0.00997332 0)
(0.00150753 -0.00386227 0)
(-0.000895262 -0.00138133 0)
(-0.00105734 0.00246311 0)
(-0.00361192 -0.000554216 0)
(-0.00323819 -0.0038541 0)
(-0.000339185 -0.00379311 0)
(-0.00214724 -0.00298908 0)
(-0.0025204 -0.00310112 0)
(-0.00254836 -0.00288446 0)
(-0.00172863 -0.00571538 0)
(-0.000174579 -0.00721982 0)
(-0.000681645 -0.00439421 0)
(-0.00269161 -0.00528026 0)
(-0.00250423 -0.0112599 0)
(-0.00719948 -0.0353792 0)
(0.000122678 -0.0307383 0)
(-0.00454082 -0.0337523 0)
(-0.00458976 -0.0349428 0)
(-0.00388835 -0.0388526 0)
(-0.00477418 -0.0373834 0)
(-0.00467642 -0.0392978 0)
(-0.00251003 -0.0416134 0)
(-0.00187282 -0.0414637 0)
(-0.00163579 -0.0427407 0)
(1.28301e-05 -0.0429674 0)
(-0.0010783 -0.0459499 0)
(-0.000819834 -0.0457891 0)
(0.000149229 -0.0438045 0)
(0.000860316 -0.0440065 0)
(-6.78604e-05 -0.0468747 0)
(-0.000885612 -0.0486713 0)
(-0.000827059 -0.0468595 0)
(0.000102971 -0.0460599 0)
(0.000466425 -0.0455072 0)
(-6.91543e-06 -0.0473945 0)
(0.000614272 -0.0477975 0)
(0.000385652 -0.0468766 0)
(-0.000310056 -0.0481158 0)
(0.0003046 -0.0477718 0)
(0.000923244 -0.0469097 0)
(0.000842041 -0.0471405 0)
(8.78092e-05 -0.0431145 0)
(-0.000217037 -0.0426014 0)
(-0.000208522 -0.042317 0)
(0.000415908 -0.0427329 0)
(-0.00045357 -0.0436825 0)
(-0.000605898 -0.0430382 0)
(-3.82912e-05 -0.0430137 0)
(-0.000365795 -0.0432267 0)
(0.000204295 -0.0405696 0)
(4.67422e-12 -3.10945e-05 0)
(4.53584e-12 -3.11033e-05 0)
(-0.00284214 -0.00377942 0)
(4.40156e-12 -3.11117e-05 0)
(0.00191634 0.00168476 0)
(-0.000184613 0.000317064 0)
(-0.00467432 -0.00701331 0)
(-0.00294681 -0.00422492 0)
(-0.00420839 -0.00604291 0)
(0.000603664 -0.00183776 0)
(-0.00419371 -0.00557152 0)
(-0.00421446 -0.00519394 0)
(0.00325014 -0.000961807 0)
(0.00322255 -0.0011523 0)
(-0.0038347 -0.00438892 0)
(-0.00375351 -0.00449493 0)
(-0.00144445 -0.00389978 0)
(-0.00261416 -0.00372544 0)
(-0.00214926 -0.00291037 0)
(-0.00211953 -0.00255873 0)
(-0.000605383 -0.00836124 0)
(-0.00102464 -0.00799989 0)
(-0.000518181 -0.00834036 0)
(-0.000636169 -0.00765639 0)
(-0.000785088 -0.00137989 0)
(0.000491862 -0.00572133 0)
(-0.00323696 -0.00182966 0)
(1.365e-05 -0.00256644 0)
(-0.00143605 -0.00308875 0)
(-0.00154357 0.00236095 0)
(-0.00147562 -0.000400545 0)
(-0.00161623 0.00360733 0)
(-0.000572397 -0.000865145 0)
(0.000310549 -0.00214214 0)
(-0.00237877 -0.00505567 0)
(0.00367038 -0.00588466 0)
(0.00343337 -0.00617086 0)
(-0.00404265 -0.00362635 0)
(-0.0019976 -0.0160333 0)
(-0.00123818 -0.0186822 0)
(-0.00507687 -0.0313648 0)
(-0.000215422 -0.0387431 0)
(-0.00320734 -0.0346028 0)
(-0.00187624 -0.0423063 0)
(-0.000984154 -0.0413258 0)
(-0.000146169 -0.0427539 0)
(-0.00067075 -0.0456199 0)
(-0.000718831 -0.0476862 0)
(-0.000489653 -0.0463343 0)
(-0.00180399 -0.0453337 0)
(-0.000893323 -0.0433693 0)
(-0.000213963 -0.0417212 0)
(-0.000936394 -0.0442213 0)
(-0.000885583 -0.0464672 0)
(-0.000248653 -0.0449576 0)
(9.5489e-05 -0.0432811 0)
(7.56991e-06 -0.0442111 0)
(-0.000591157 -0.045208 0)
(0.000536679 -0.0443615 0)
(0.000355458 -0.0476995 0)
(0.000548597 -0.0484539 0)
(-0.000693333 -0.0481223 0)
(-0.00181341 -0.0452883 0)
(0.000621307 -0.042968 0)
(-0.000756904 -0.0407866 0)
(0.000340109 -0.043674 0)
(0.000472909 -0.0409276 0)
(-0.000573972 -0.0393809 0)
(-0.00019975 -0.0385296 0)
(-0.000337934 -0.0375464 0)
(-0.000611971 -0.0386875 0)
(-0.000683118 -0.0386995 0)
(-0.000481407 -0.0385431 0)
(-0.00120879 -0.0377125 0)
(4.36919e-05 -0.0391429 0)
(1.76037e-11 -3.10253e-05 0)
(1.68891e-11 -3.10421e-05 0)
(-0.000154504 -0.00147038 0)
(1.62034e-11 -3.10582e-05 0)
(-0.000172529 -0.00140922 0)
(-0.0016309 -0.00774761 0)
(-0.00164682 -0.00759163 0)
(-0.00123555 -0.00770358 0)
(-0.00140151 -0.00275329 0)
(-0.00350537 -0.0044389 0)
(-0.000252755 -0.00390356 0)
(-0.000397635 -0.0023186 0)
(0.0018212 -0.00445588 0)
(0.00217415 -0.00523929 0)
(0.00222716 -0.00529571 0)
(0.00230341 -0.00522085 0)
(0.00116717 -0.00548148 0)
(0.00099527 -0.00518413 0)
(0.00064696 -0.00451279 0)
(0.000578381 -0.00440789 0)
(0.00213943 -0.00449944 0)
(0.000519582 -0.0043904 0)
(0.0021808 -0.0046517 0)
(0.000648618 -0.00527647 0)
(0.0012174 -0.0088899 0)
(0.000869054 0.00329051 0)
(0.000698254 0.00280699 0)
(-0.0013636 -0.0054754 0)
(-0.0132025 -0.00537203 0)
(-0.00231363 -0.00780054 0)
(2.60472e-05 -0.00726428 0)
(0.000448314 0.00123682 0)
(0.000142262 0.00310933 0)
(-0.00110124 -0.00453119 0)
(-0.000252187 0.00368113 0)
(-0.000445998 -0.00412659 0)
(0.000527697 -0.00075266 0)
(0.000406616 -0.00886758 0)
(0.00627663 -0.0113256 0)
(0.00486133 -0.0108932 0)
(0.00891872 -0.016562 0)
(0.000891617 -0.0213806 0)
(-0.000378029 -0.0389122 0)
(-0.000626221 -0.0398792 0)
(-0.000121046 -0.041217 0)
(7.39955e-05 -0.0416046 0)
(-0.000478296 -0.0403854 0)
(0.000624615 -0.0424983 0)
(4.57337e-05 -0.0416583 0)
(-7.6208e-05 -0.0398188 0)
(-0.000624696 -0.0410212 0)
(-0.000568331 -0.0421704 0)
(-0.000376739 -0.0433023 0)
(0.000277531 -0.0418215 0)
(0.000857919 -0.040684 0)
(8.85026e-05 -0.0426685 0)
(-0.00087876 -0.0432357 0)
(0.000197258 -0.0429523 0)
(-0.000152271 -0.0439188 0)
(-5.58553e-05 -0.0454261 0)
(-0.000260565 -0.0456278 0)
(0.000143158 -0.044598 0)
(-0.00125139 -0.0385378 0)
(-0.000160088 -0.0383111 0)
(0.000347933 -0.0386435 0)
(0.000223299 -0.0388037 0)
(0.000396433 -0.0341239 0)
(0.000242153 -0.0328296 0)
(0.000705982 -0.0325124 0)
(-0.000179611 -0.0340633 0)
(-0.000120156 -0.0367442 0)
(-4.35313e-05 -0.0358563 0)
(-0.000359852 -0.0354147 0)
(6.68487e-05 -0.0382156 0)
(-0.000311494 -0.0381104 0)
(-1.07215e-11 -3.1051e-05 0)
(-1.03307e-11 -3.10645e-05 0)
(0.000254529 -0.000619992 0)
(-9.95414e-12 -3.10775e-05 0)
(-0.000836688 -0.00212648 0)
(0.000159797 -0.000437288 0)
(0.000512253 -0.00531 0)
(0.00259508 -0.00423851 0)
(-0.00184929 -0.000725882 0)
(-9.97969e-05 -0.00185133 0)
(0.00059726 -0.00667486 0)
(-0.000576514 -0.0027907 0)
(-9.59127e-12 -3.109e-05 0)
(-9.24159e-12 -3.1102e-05 0)
(-8.90465e-12 -3.11135e-05 0)
(-8.57997e-12 -3.11247e-05 0)