/*--------------------------------*- C++ -*----------------------------------*\
  =========                 |
  \\      /  F ield         | OpenFOAM: The Open Source CFD Toolbox
   \\    /   O peration     | Website:  https://openfoam.org
    \\  /    A nd           | Version:  12
     \\/     M anipulation  |
\*---------------------------------------------------------------------------*/
FoamFile
{
    format      ascii;
    class       IOPosition;
    location    "0.65/lagrangian/cloud";
    object      positions;
}
// * * * * * * * * * * * * * * * * * * * * * * * * * * * * * * * * * * * * * //

5272
(
(6.60358e-08 0.5 8.43037e-09 0.5) 0 7376 1
(6.60582e-08 0.5 7.81493e-09 0.5) 0 7376 1
(6.60799e-08 0.5 0.000214581 0.499785) 0 7376 2
(6.61008e-08 0.5 0.0206611 0.479339) 0 7376 2
(6.61211e-08 0.5 0.0397248 0.460275) 0 7376 2
(6.61406e-08 0.5 0.0878533 0.412147) 0 7376 2
(6.61595e-08 0.5 0.0620002 0.438) 0 7376 2
(6.61778e-08 0.5 0.133791 0.366209) 0 7376 2
(6.61954e-08 0.5 0.139754 0.360246) 0 7376 2
(0.155035 0.422483 0.0269109 0.395572) 0 7376 2
(0.178042 0.410979 0.136488 0.274491) 0 7375 1
(0.180753 0.409624 0.0457319 0.363892) 0 7375 1
(0.188486 0.405757 0.0967297 0.309027) 0 7375 1
(0.0824576 0.458771 0.0721124 0.386659) 0 7375 1
(0.0116578 0.0406281 0.494171 0.453543) 0 7375 2
(0.090968 0.454516 0.229982 0.224534) 1 7377 1
(0.162708 0.418646 0.018555 0.400091) 1 7377 1
(0.486108 0.245549 0.256946 0.0113971) 1 7377 2
(0.562774 0.218613 0.00317816 0.215435) 1 2 1
(0.148852 0.425574 0.359214 0.06636) 1 2 1
(0.0196855 0.249494 0.240664 0.490157) 2 2 2
(0.621948 0.189026 0.152418 0.0366079) 2 5 2
(0.707284 0.14045 0.00590838 0.146358) 3 7 1
(0.411239 0.29438 0.168956 0.125425) 5 11 2
(0.40978 0.00516942 0.289941 0.29511) 6 10 2
(0.160747 0.419626 0.29359 0.126036) 6 12 1
(0.489046 0.255477 0.245561 0.00991562) 7 14 1
(0.454114 0.0398761 0.272943 0.233067) 8 7384 2
(0.600237 0.199882 0.147278 0.0526038) 10 21 2
(0.402721 0.29864 0.288669 0.00997073) 11 7387 1
(0.686003 0.156998 0.081081 0.0759173) 12 24 1
(0.345162 0.0214011 0.306018 0.327419) 14 26 2
(0.237558 0.0454648 0.335756 0.381221) 15 31 1
(0.471593 0.192305 0.264204 0.0718989) 16 7392 2
(0.342079 0.220086 0.108874 0.32896) 17 35 1
(0.373348 0.313326 0.141709 0.171617) 18 37 2
(0.193352 0.149041 0.254283 0.403324) 19 36 2
(0.448755 0.0882048 0.275623 0.187418) 19 7395 2
(0.348697 0.258144 0.325651 0.0675072) 20 7396 2
(0.482588 0.258706 0.152692 0.106014) 21 7397 1
(0.364327 0.317837 0.0797167 0.23812) 22 7398 1
(0.461148 0.118866 0.269426 0.15056) 23 7399 2
(0.504666 0.150578 0.247667 0.0970893) 24 7400 2
(0.434741 0.114291 0.28263 0.168339) 25 7401 2
(0.409097 0.18342 0.295452 0.112032) 26 7402 2
(0.314257 0.342871 0.0294736 0.313398) 28 54 1
(0.729486 0.0641368 0.0711202 0.135257) 29 56 2
(0.390159 0.0138951 0.304921 0.291026) 31 62 2
(0.416173 0.291914 0.0636867 0.228227) 33 67 2
(0.0031155 0.498442 0.260205 0.238238) 33 66 1
(0.181119 0.40944 0.300384 0.109057) 34 68 1
(0.32786 0.0483189 0.33607 0.287751) 37 74 2
(0.288407 0.355797 0.0404288 0.315368) 39 79 2
(0.0514049 0.474298 0.228337 0.245961) 115 81 2
(0.00184621 0.499077 0.267307 0.23177) 42 85 2
(0.103545 0.448228 0.38478 0.0634475) 116 229 1
(0.149615 0.425192 0.20405 0.221143) 41 80 1
(0.560148 0.219926 0.118427 0.101499) 42 7418 1
(0.123125 0.438438 0.387871 0.0505666) 43 84 1
(0.594678 0.00351998 0.202661 0.199141) 43 7419 2
(0.180935 0.409532 0.392882 0.0166506) 44 89 2
(0.187833 0.406083 0.388672 0.0174111) 45 91 2
(0.236768 0.381616 0.289184 0.0924319) 46 93 2
(0.227482 0.386259 0.119339 0.266921) 47 95 2
(0.126821 0.0548716 0.381718 0.436589) 48 94 2
(0.0999237 0.0668732 0.450038 0.383165) 48 96 2
(0.258695 0.0249927 0.34566 0.370652) 49 99 1
(0.425577 0.287212 0.155196 0.132016) 50 7426 1
(0.152918 0.423541 0.188718 0.234823) 51 100 1
(0.498825 0.250588 0.166188 0.0843993) 51 102 1
(0.514684 0.242658 0.0125263 0.230131) 52 7428 1
(0.229645 0.366246 0.0189311 0.385177) 53 107 1
(0.277343 0.361328 0.0450471 0.316281) 54 106 1
(0.368789 0.0779239 0.237682 0.315605) 55 111 1
(0.31878 0.140226 0.200384 0.34061) 56 113 1
(6.56252e-08 0.499997 2.64159e-06 0.5) 75 7451 1
(6.56951e-08 0.499997 2.66633e-06 0.5) 75 7451 1
(5.1075e-08 0.5 0.0425148 0.457485) 0 7376 2
(5.1605e-08 0.236683 0.263317 0.5) 0 7376 1
(0.196084 0.401958 0.111962 0.289996) 0 7375 1
(0.376488 0.307539 0.00421702 0.311756) 0 7376 1
(0.591067 0.204466 0.140479 0.0639879) 0 7376 2
(0.525576 0.060052 0.237212 0.17716) 0 7375 2
(6.57608e-08 0.5 0.072212 0.427788) 75 7451 2
(0.495037 0.252481 0.246756 0.00572539) 0 0 1
(0.0733091 0.463345 0.0175752 0.44577) 0 1 2
(0.299301 0.350349 0.325507 0.0248419) 75 1 2
(0.186455 0.406772 0.178278 0.228494) 75 1 2
(0.160503 0.419748 0.0797318 0.340017) 75 1 2
(0.21079 0.310054 0.394605 0.0845507) 0 7375 2
(0.160173 0.411364 0.419913 0.00854896) 75 1 1
(0.152607 0.343071 0.423697 0.0806256) 75 1 1
(0.178648 0.246759 0.410676 0.163917) 75 1 1
(0.0615947 0.469203 0.0927381 0.376464) 1 7377 1
(0.89357 0.0459077 0.0532152 0.00730753) 1 7377 2
(0.300681 0.349659 0.00563466 0.344025) 76 3 2
(0.324833 0.162819 0.337584 0.174764) 1 2 2
(0.033492 0.426017 0.483254 0.0572372) 76 3 1
(0.311137 0.180695 0.344432 0.163737) 76 3 1
(0.0128195 0.0935483 0.49359 0.400042) 76 3 1
(0.0274438 0.390733 0.0955448 0.486278) 4 9 1
(0.36999 0.315005 0.0572031 0.257802) 81 13 2
(0.197205 0.396141 0.401397 0.00525627) 82 15 1
(0.00240547 0.0495165 0.449281 0.498797) 8 17 1
(0.00554418 0.497228 0.0171617 0.480066) 85 21 2
(0.0702754 0.286262 0.464862 0.1786) 86 23 1
(0.0998906 0.157216 0.450055 0.292839) 82 163 2
(0.0133204 0.49334 0.432048 0.0612918) 155 308 1
(0.0417382 0.180706 0.479131 0.298425) 83 165 2
(0.434665 0.00545387 0.282668 0.277214) 84 167 2
(0.365476 0.317262 0.159384 0.157878) 85 170 2
(0.272363 0.215793 0.363818 0.148026) 89 29 1
(0.376741 0.0124865 0.311629 0.299143) 91 33 1
(0.561892 0.219054 0.00461306 0.214441) 93 37 2
(0.592238 0.203881 0.0188503 0.18503) 94 185 1
(0.10878 0.444543 0.00106665 0.44561) 20 41 1
(0.31079 0.344605 0.0385559 0.306049) 95 187 1
(0.257269 0.371366 0.116463 0.254903) 168 332 1
(0.0408572 0.479571 0.0119943 0.467577) 95 190 2
(0.347308 0.326346 0.158114 0.168232) 95 189 1
(0.000533492 0.259305 0.240428 0.499733) 25 51 1
(0.196397 0.329916 0.0718852 0.401801) 27 55 1
(0.297651 0.351175 0.101653 0.249522) 103 57 2
(0.311693 0.344154 0.0997648 0.244389) 104 59 2
(0.391051 0.304475 0.253131 0.0513432) 107 65 2
(0.0309644 0.250795 0.233722 0.484518) 34 69 1
(0.181152 0.369295 0.409424 0.0401288) 180 210 1
(0.0290876 0.485456 0.375194 0.110262) 182 214 2
(0.210805 0.0352274 0.394598 0.35937) 107 213 2
(0.329222 0.0712351 0.264154 0.335389) 108 216 1
(0.46634 0.26683 0.249283 0.0175472) 109 218 2
(0.0920898 0.174436 0.279519 0.453955) 110 217 2
(0.472436 0.263782 0.188892 0.0748897) 113 226 2
(0.0812017 0.0517137 0.407685 0.459399) 116 229 2
(0.34826 0.164489 0.32587 0.161381) 116 231 2
(0.895482 0.00373573 0.0522592 0.0485234) 117 85 1
(0.566915 0.216543 0.210216 0.00632625) 118 87 2
(0.135716 0.432142 0.265548 0.166594) 189 374 1
(0.453645 0.273178 0.100838 0.17234) 190 378 1
(0.188676 0.405662 0.034249 0.371413) 192 380 1
(0.143958 0.428021 0.404597 0.0234243) 192 382 1
(0.0988875 0.322695 0.450556 0.127862) 193 236 1
(0.155858 0.422071 0.106722 0.315349) 194 238 2
(0.212877 0.393562 0.178243 0.215319) 195 240 2
(0.217925 0.391037 0.254857 0.13618) 197 244 2
(0.0303863 0.484807 0.360238 0.124569) 123 246 2
(0.188586 0.405707 0.388266 0.0174409) 125 249 1
(0.0987821 0.450609 0.223489 0.22712) 125 250 2
(0.23907 0.380465 0.112765 0.2677) 199 248 2
(0.266476 0.0122216 0.366762 0.35454) 200 250 1
(6.62963e-08 0.5 0.5 3.63527e-09) 150 7452 2
(6.63025e-08 0.5 0.5 3.47034e-09) 150 7452 2
(3.11843e-08 0.5 0.0337779 0.466222) 75 7451 2
(6.63086e-08 0.5 0.14379 0.35621) 150 7452 2
(0.15058 0.247078 0.42471 0.177632) 75 1 1
(0.153604 0.229775 0.423198 0.193423) 75 1 1
(0.0437827 0.478109 0.197153 0.280956) 75 7451 2
(0.190301 0.40485 0.183601 0.221248) 75 7451 2
(0.130006 0.167276 0.434997 0.267721) 75 1 1
(0.262091 0.368955 0.222617 0.146338) 75 7451 2
(0.602296 0.198852 0.116921 0.0819306) 75 7451 2
(0.182481 0.170737 0.40876 0.238022) 75 1 1
(0.818716 0.0906421 0.0127579 0.0778843) 75 1 2
(0.15662 0.42169 0.362451 0.0592394) 150 150 2
(0.328994 0.335503 0.201833 0.13367) 150 150 2
(0.185955 0.407022 0.0809842 0.326038) 150 150 2
(0.114893 0.332069 0.442554 0.110485) 150 150 1
(0.770884 0.0918307 0.114558 0.0227273) 75 1 1
(0.346476 0.0334917 0.326762 0.29327) 75 1 1
(0.0533879 0.0535241 0.473306 0.419782) 75 1 1
(0.0774009 0.4613 0.441564 0.019735) 76 3 2
(0.183384 0.408308 0.339109 0.0691993) 76 3 2
(0.238719 0.380641 0.348785 0.0318556) 76 3 2
(0.546364 0.226818 0.170967 0.0558506) 76 3 2
(0.752578 7.79226e-05 0.123633 0.123711) 76 149 2
(0.297991 0.333356 0.351005 0.0176486) 151 152 1
(0.445346 0.00515905 0.277327 0.272168) 151 152 1
(0.0357581 0.482121 0.195941 0.28618) 151 300 1
(0.543611 0.037497 0.190698 0.228195) 77 151 2
(0.243851 0.194331 0.183744 0.378075) 78 153 2
(0.375048 0.293475 0.019001 0.312476) 79 158 1
(0.225438 0.387281 0.0680952 0.319186) 153 305 2
(0.751851 0.124075 0.0965095 0.0275651) 153 305 2
(0.539404 0.000693103 0.229605 0.230298) 154 304 2
(0.493753 0.0454092 0.207714 0.253123) 154 307 1
(0.429271 0.285364 0.0254569 0.259907) 155 309 2
(0.243484 0.378258 0.0564944 0.321764) 157 310 1
(0.368552 0.315724 0.312609 0.00311448) 158 166 2
(0.630345 0.184827 0.158505 0.0263221) 159 168 2
(0.406551 0.286341 0.296725 0.010384) 160 170 1
(0.222433 0.388783 0.27144 0.117343) 161 172 2
(0.0459038 0.477048 0.397737 0.0793115) 161 320 1
(0.0492755 0.475362 0.454062 0.0213) 162 322 1
(0.0844516 0.457774 0.292382 0.165392) 164 178 2
(0.157977 0.165152 0.421011 0.25586) 165 180 1
(0.0126502 0.493675 0.111072 0.382602) 168 334 1
(0.282265 0.256214 0.358867 0.102653) 170 190 1
(0.157127 0.421436 0.208706 0.21273) 96 192 2
(0.471529 0.0764407 0.187795 0.264236) 98 196 1
(0.250336 0.189548 0.185284 0.374832) 100 197 2
(0.347512 0.170866 0.326244 0.155378) 173 196 1
(0.0181037 0.490948 0.441106 0.0498423) 175 200 2
(0.340946 0.179108 0.329527 0.150419) 175 200 1
(0.0422307 0.478885 0.303034 0.17585) 250 349 2
(0.0253235 0.153021 0.334317 0.487338) 176 348 2
(0.323258 0.253259 0.0851125 0.338371) 176 351 1
(0.38579 0.307105 0.279945 0.0271597) 177 353 2
(0.291473 0.145282 0.208982 0.354264) 178 355 1
(0.719334 0.103813 0.03652 0.140333) 182 363 1
(0.733559 0.13322 0.105171 0.0280493) 184 218 2
(0.264394 0.367803 0.0648192 0.302984) 185 220 2
(0.0711723 0.464414 0.157408 0.307006) 186 222 2
(0.0849584 0.457521 0.296343 0.161178) 259 367 2
(0.0204537 0.489773 0.227873 0.2619) 260 369 2
(0.347479 0.32626 0.104946 0.221314) 186 371 2
(0.0878062 0.157021 0.456097 0.299076) 261 371 1
(0.183458 0.000201157 0.40807 0.408271) 189 374 2
(0.026876 0.0812029 0.486562 0.405359) 189 376 2
(0.244718 0.247763 0.377641 0.129878) 265 379 1
(0.0669231 0.466538 0.0583656 0.408173) 266 381 2
(0.0183953 0.490802 0.0475503 0.443252) 267 383 2
(0.163119 0.41844 0.112366 0.306074) 268 385 2
(0.184379 0.40781 0.188866 0.218945) 269 387 2
(0.225529 0.387236 0.206644 0.180592) 270 389 2
(0.598458 0.200771 0.169571 0.0311997) 271 391 2
(6.62275e-08 0.5 0.5 1.21106e-09) 225 7453 2
(6.62369e-08 0.5 0.5 1.16204e-09) 225 7453 2
(5.90656e-08 0.5 0.0519515 0.448049) 150 7452 2
(6.62462e-08 0.5 0.153335 0.346665) 225 7453 2
(5.92005e-08 0.5 0.00335445 0.496646) 150 7452 2
(0.191416 0.404292 0.12405 0.280242) 75 150 2
(0.0193915 0.490304 0.0654953 0.424809) 150 7452 2
(0.137823 0.386122 0.0449671 0.431089) 75 150 1
(0.0811428 0.324502 0.134926 0.459429) 75 150 1
(0.0876763 0.429883 0.0262789 0.456162) 75 150 1
(0.015733 0.236916 0.255218 0.492134) 75 150 1
(0.170069 0.0988049 0.316161 0.414966) 75 150 1
(0.192891 0.0548818 0.348673 0.403555) 75 150 1
(0.0476319 0.0356824 0.476184 0.440502) 150 150 1
(0.462888 0.138205 0.268556 0.130351) 225 299 1
(0.0866733 0.456663 0.440091 0.0165719) 150 298 1
(0.597042 0.201479 0.192606 0.00887281) 150 298 1
(0.955312 0.0223438 0.012009 0.0103348) 150 298 1
(0.168863 0.0557141 0.415568 0.359854) 150 150 1
(0.0588507 0.470575 0.176127 0.294447) 151 152 2
(0.0961361 0.451932 0.219549 0.232383) 151 152 2
(0.081194 0.459403 0.112394 0.347009) 151 152 2
(0.360392 0.319804 0.0778855 0.241919) 151 298 1
(0.360431 0.319784 0.0164064 0.303378) 226 447 1
(0.465566 0.267217 0.206323 0.0608943) 151 298 1
(0.753081 0.12346 0.0630104 0.0604492) 151 152 2
(0.281542 0.359229 0.0499674 0.309261) 226 301 2
(0.684829 0.157585 0.0193985 0.138187) 226 301 2
(0.653036 0.0990843 0.173482 0.0743974) 226 301 1
(0.576064 0.211968 0.210753 0.00121434) 226 449 1
(0.333377 0.333311 0.296631 0.0366807) 226 449 1
(0.347182 0.326409 0.236415 0.0899937) 227 449 1
(0.0992495 0.303184 0.147191 0.450375) 228 451 2
(0.0413622 0.418902 0.0604172 0.479319) 228 454 1
(0.167337 0.171593 0.244739 0.416332) 229 453 2
(0.192599 0.0762783 0.403701 0.327422) 229 455 2
(0.143427 0.428287 0.0665171 0.36177) 231 460 2
(0.0442468 0.477877 0.459325 0.0185519) 231 311 2
(0.206947 0.24614 0.396526 0.150387) 231 311 1
(0.264168 0.367916 0.282011 0.0859047) 232 313 2
(0.261533 0.369234 0.355284 0.0139495) 232 461 1
(0.299849 0.242941 0.350075 0.107134) 233 315 1
(0.197007 0.33038 0.401496 0.0711167) 234 317 1
(0.0270729 0.486464 0.357421 0.129042) 236 321 2
(0.0215287 0.489236 0.371562 0.117674) 237 323 2
(0.106488 0.0793238 0.367432 0.446756) 163 322 2
(0.0922588 0.023583 0.453871 0.430288) 238 325 1
(0.1066 0.4467 0.248381 0.198319) 165 329 2
(0.104686 0.447657 0.0452907 0.402367) 241 331 2
(0.369479 0.0527979 0.315261 0.262463) 242 333 1
(0.137786 0.431107 0.407756 0.0233507) 243 483 1
(0.0187117 0.115785 0.374859 0.490644) 169 337 1
(0.0603678 0.0451374 0.424679 0.469816) 170 339 1
(0.148373 0.425814 0.421508 0.00430574) 172 343 2
(0.480302 0.184464 0.0753847 0.259849) 248 491 2
(0.174472 0.138176 0.274588 0.412764) 249 493 2
(0.227714 0.381783 0.00436008 0.386143) 250 498 1
(0.104705 0.352101 0.447647 0.0955465) 251 499 2
(0.333006 0.333497 0.31449 0.0190071) 253 504 2
(0.867076 0.0664621 0.0276158 0.0388462) 254 506 2
(0.491083 0.254458 0.0132061 0.241252) 255 507 1
(0.246728 0.376636 0.0771962 0.29944) 257 363 2
(0.128123 0.280676 0.155262 0.435938) 258 511 2
(0.0795581 0.460221 0.0204011 0.43982) 333 514 2
(0.183404 0.332281 0.0760166 0.408298) 259 516 1
(0.255045 0.356922 0.0155555 0.372478) 260 518 1
(0.0971398 0.227716 0.223714 0.45143) 262 519 2
(0.534593 0.150885 0.0818187 0.232703) 263 521 2
(0.176698 0.411651 0.389881 0.0217698) 263 524 2
(0.377778 0.311111 0.00455147 0.30656) 264 526 2
(0.0655552 0.0623766 0.467222 0.404846) 264 525 2
(0.0252188 0.0973424 0.390048 0.487391) 265 528 1
(0.186701 0.406649 0.342545 0.0641043) 267 532 2
(0.178667 0.410667 0.131667 0.279) 343 534 2
(0.327499 0.33625 0.287091 0.0491592) 344 536 2
(6.61423e-08 0.5 0.5 6.30017e-08) 300 7454 2
(6.61568e-08 0.5 0.5 6.2934e-08) 300 7454 2
(6.17417e-08 0.5 0.0281216 0.471878) 225 7453 2
(6.61709e-08 0.5 0.161481 0.338519) 300 7454 2
(6.18497e-08 0.5 0.0140357 0.485964) 225 7453 2
(0.085471 0.457265 0.0132942 0.44397) 150 299 2
(0.0551444 0.472428 0.213543 0.258885) 225 299 2
(0.0748403 0.46258 0.214126 0.248454) 225 299 2
(0.188617 0.405692 0.389465 0.0162263) 225 447 1
(0.755254 0.0235248 0.122373 0.0988481) 150 298 2
(0.216069 0.391965 0.370907 0.0210583) 225 447 1
(0.214204 0.392898 0.371075 0.0218228) 225 447 1
(0.178547 0.0314225 0.410727 0.379304) 225 299 1
(0.179633 0.410183 0.398703 0.0114808) 225 447 1
(0.149533 0.425233 0.403684 0.0215495) 225 447 1
(0.204999 0.397501 0.387608 0.00989276) 225 447 1
(0.216693 0.391654 0.389839 0.00181457) 225 447 1
(0.207819 0.396091 0.384033 0.0120571) 225 447 1
(0.706011 0.146994 0.130851 0.0161431) 225 447 1
(0.518843 0.240578 0.171516 0.0690626) 150 299 2
(0.0620345 0.468983 0.0975895 0.371393) 226 447 1
(0.0804351 0.459782 0.0467827 0.413) 226 447 1
(0.236319 0.0237392 0.38184 0.358101) 300 448 1
(0.381623 0.309188 0.0552267 0.253962) 301 596 1
(0.383197 0.308401 0.150555 0.157846) 301 596 1
(0.538476 0.230762 0.148015 0.0827472) 301 450 2
(0.677693 0.161154 0.11184 0.0493137) 301 596 1
(0.274957 0.271195 0.362521 0.0913264) 301 450 1
(0.737322 0.0589386 0.131339 0.0724002) 301 450 1
(0.19637 0.116879 0.401815 0.284936) 301 450 1
(0.148542 0.425729 0.259399 0.16633) 301 598 1
(0.0703945 0.464803 0.306523 0.158279) 302 598 1
(0.808106 0.0583456 0.0376016 0.0959471) 302 598 2
(0.448672 0.275664 0.13921 0.136454) 303 603 2
(0.472779 0.26361 0.071833 0.191777) 304 605 2
(0.335522 0.332239 0.180027 0.152212) 305 607 2
(0.027577 0.486212 0.398205 0.0880062) 306 609 2
(0.153605 0.423197 0.180251 0.242946) 382 611 2
(0.249461 0.37527 0.116033 0.259236) 383 613 2
(0.316957 0.1773 0.341522 0.164222) 308 464 1
(0.500698 0.2195 0.249651 0.0301511) 309 466 1
(0.20133 0.399335 0.125105 0.27423) 310 614 1
(0.296539 0.35173 0.148797 0.202934) 235 468 2
(0.225331 0.387335 0.0363404 0.350994) 236 470 2
(0.160508 0.0370129 0.419746 0.382733) 236 469 2
(0.251694 0.268278 0.105875 0.374153) 237 472 1
(0.265424 0.367288 0.152499 0.214789) 238 474 2
(0.296901 0.351549 0.255114 0.0964356) 239 476 2
(0.300518 0.349741 0.322317 0.0274238) 240 478 2
(0.206379 0.0950635 0.301747 0.39681) 241 480 1
(0.0296911 0.485154 0.0743348 0.41082) 243 484 2
(0.142186 0.428907 0.0939545 0.334952) 244 486 2
(0.203705 0.398147 0.359691 0.038456) 245 488 2
(0.0389813 0.0988398 0.38167 0.480509) 247 489 2
(0.359735 0.320133 0.28408 0.0360524) 323 494 2
(0.412296 0.220683 0.293852 0.0731691) 324 644 2
(0.386987 0.0229421 0.306506 0.283564) 325 646 2
(0.0631268 0.172851 0.468437 0.295586) 326 648 2
(0.0561458 0.139285 0.332642 0.471927) 328 650 2
(0.00870293 0.179635 0.316014 0.495649) 329 652 2
(0.162193 0.0977802 0.418903 0.321123) 329 654 2
(0.394286 0.0168836 0.302857 0.285973) 330 656 2
(0.51355 0.0569862 0.186239 0.243225) 331 659 1
(0.259596 0.225556 0.144646 0.370202) 332 661 1
(0.233434 0.0766046 0.306678 0.383283) 333 663 1
(0.28251 0.253177 0.105568 0.358745) 334 665 1
(0.325928 0.337036 0.173212 0.163824) 335 667 2
(0.230375 0.0773646 0.307448 0.384813) 336 666 2
(0.121408 0.235717 0.439296 0.203579) 336 668 2
(0.278925 0.154929 0.360537 0.205609) 337 670 2
(0.288841 0.348964 0.00661497 0.355579) 338 673 1
(0.364103 0.317949 0.108635 0.209313) 339 675 2
(0.0568656 0.359301 0.112267 0.471567) 340 677 1
(0.205436 0.121972 0.27531 0.397282) 342 678 2
(0.0153904 0.283646 0.208659 0.492305) 342 681 1
(6.6092e-08 0.5 0.5 3.54306e-08) 375 7455 2
(6.61101e-08 0.5 0.5 3.51187e-08) 375 7455 2
(6.13284e-08 0.5 0.0416754 0.458325) 300 7454 2
(6.61276e-08 0.5 0.167269 0.332731) 375 7455 2
(0.891051 0.053635 0.000839309 0.0544743) 225 7453 1
(6.14738e-08 0.5 0.000748165 0.499252) 300 7454 2
(0.810039 0.0949807 0.0210781 0.0739026) 225 448 2
(0.101631 0.449185 0.441888 0.00729649) 300 448 2
(0.20155 0.200827 0.399225 0.198399) 300 448 1
(0.211655 0.268703 0.394173 0.12547) 300 448 1
(0.225553 0.0667552 0.387223 0.320468) 300 448 1
(0.23379 0.140801 0.383105 0.242304) 300 448 1
(0.238168 0.0514146 0.380916 0.329501) 300 448 1
(0.176272 0.411864 0.367053 0.0448108) 300 596 1
(0.154494 0.422753 0.359894 0.0628585) 300 596 1
(0.171055 0.414472 0.362579 0.0518932) 300 596 1
(0.164292 0.417854 0.37403 0.0438243) 300 596 1
(0.176138 0.0824632 0.411931 0.329468) 300 448 1
(0.190633 0.0426598 0.404684 0.362024) 300 448 1
(0.250749 0.045751 0.374626 0.328875) 300 448 1
(0.258731 0.0337165 0.370634 0.336918) 300 448 1
(0.229519 0.38524 0.0138758 0.371365) 301 596 1
(0.168681 0.309905 0.105755 0.415659) 301 596 2
(0.300425 0.349788 0.199613 0.150174) 376 745 1
(0.349805 0.325097 0.106271 0.218826) 376 745 1
(0.534178 0.232911 0.216589 0.0163221) 376 599 2
(0.309568 0.345216 0.0425318 0.302684) 376 599 2
(0.229211 0.372475 0.385395 0.0129198) 376 599 1
(0.898329 0.0508356 0.037068 0.0137676) 376 599 2
(0.56221 0.0460578 0.218895 0.172837) 376 599 1
(0.297783 0.351109 0.199749 0.151359) 376 747 1
(0.254765 0.372618 0.0147098 0.357908) 376 747 1
(0.110284 0.444858 0.375101 0.0697572) 377 747 1
(0.77376 0.0238267 0.0892933 0.11312) 377 747 2
(0.684074 0.157963 0.110544 0.0474193) 378 752 2
(0.430433 0.050977 0.233807 0.284784) 379 754 1
(0.123861 0.155786 0.43807 0.282284) 380 755 2
(0.0506991 0.183267 0.47465 0.291383) 456 758 1
(0.149736 0.0765777 0.425132 0.348554) 457 760 1
(0.017392 0.491304 0.41007 0.0812339) 458 910 1
(0.44292 0.27854 0.0514405 0.2271) 385 617 2
(0.433887 0.283057 0.105117 0.17794) 386 619 2
(0.425304 0.287348 0.262639 0.0247085) 387 621 2
(0.0286183 0.485691 0.241467 0.244223) 387 769 1
(0.253498 0.373251 0.21372 0.159531) 313 623 2
(0.257459 0.37127 0.080555 0.290715) 314 625 2
(0.140968 0.0779095 0.351606 0.429516) 315 624 2
(0.1119 0.094685 0.44405 0.349365) 315 626 2
(0.28343 0.0433048 0.31498 0.358285) 316 629 1
(0.274798 0.0775199 0.285081 0.362601) 317 631 1
(0.284678 0.0601792 0.297482 0.357661) 318 633 1
(0.293757 0.00105659 0.353122 0.352065) 319 634 2
(0.270446 0.364777 0.000778823 0.363998) 321 639 2
(0.276436 0.361782 0.23363 0.128152) 322 641 2
(0.0850299 0.457485 0.122753 0.334732) 399 645 2
(0.541327 0.133034 0.0963019 0.229336) 400 796 1
(0.649817 0.175091 0.0625273 0.112564) 401 798 2
(0.334592 0.100719 0.231985 0.332704) 402 797 2
(0.0571991 0.161368 0.310032 0.4714) 403 799 2
(0.239754 0.0912445 0.380123 0.288879) 403 801 2
(0.413796 0.0661661 0.226936 0.293102) 404 804 1
(0.551927 0.17035 0.053686 0.224036) 405 806 1
(0.147335 0.426333 0.37015 0.0561821) 406 808 2
(0.00878954 0.495605 0.00213329 0.493472) 482 810 2
(0.125048 0.437476 0.102988 0.334488) 483 812 2
(0.214081 0.39296 0.215782 0.177178) 484 814 2
(0.202612 0.398694 0.354631 0.0440627) 485 816 2
(0.143696 0.428152 0.37652 0.0516322) 485 964 1
(0.3434 0.129223 0.199077 0.3283) 411 818 1
(0.457574 0.250736 0.0204766 0.271213) 412 820 1
(0.15927 0.420365 0.404883 0.0154823) 488 822 2
(0.205551 0.141398 0.397225 0.255826) 488 822 1
(0.190878 0.404561 0.138612 0.265948) 489 824 2
(0.0808211 0.459589 0.402379 0.0572109) 489 972 1
(0.180267 0.0246639 0.409867 0.385203) 490 826 1
(6.61423e-08 0.5 0.5 7.49672e-09) 450 7456 2
(6.61568e-08 0.5 0.5 7.28726e-09) 450 7456 2
(0.925854 0.0334417 0.00363116 0.0370729) 300 7454 1
(6.61709e-08 0.5 0.137766 0.362234) 450 7456 2
(6.61445e-08 0.5 0.0226104 0.47739) 375 7455 2
(0.117455 0.441272 0.336564 0.104708) 375 597 2
(0.174969 0.412515 0.0943303 0.318185) 375 597 2
(0.164209 0.417896 0.084528 0.333368) 375 597 2
(5.52584e-08 0.5 0.102334 0.397666) 375 7455 2
(0.8141 0.0605137 0.0324363 0.09295) 300 7454 1
(0.283003 0.358499 0.34878 0.00971822) 375 745 1
(0.243465 0.378267 0.340867 0.0374005) 375 745 1
(0.388841 0.137186 0.30558 0.168394) 375 597 1
(0.18873 0.405635 0.368935 0.0367002) 375 745 1
(0.213128 0.393436 0.363092 0.0303443) 375 745 1
(0.206988 0.396506 0.37654 0.0199658) 375 745 1
(0.231389 0.384305 0.358406 0.025899) 375 745 1
(0.198426 0.400787 0.334304 0.066483) 375 745 1
(0.337174 0.331413 0.183411 0.148002) 375 745 1
(0.152328 0.423836 0.23435 0.189486) 375 745 1
(0.198084 0.400958 0.348933 0.0520251) 375 745 1
(0.21606 0.39197 0.238471 0.153499) 375 745 1
(0.180485 0.409758 0.15737 0.252387) 375 745 1
(0.185873 0.0901701 0.407064 0.316894) 450 746 1
(0.368708 0.315646 0.304877 0.0107695) 450 894 1
(0.239612 0.380194 0.225813 0.154381) 450 894 1
(0.584818 0.207591 0.102544 0.105047) 451 894 1
(0.420728 0.289636 0.0140387 0.275597) 451 748 2
(0.574028 0.155585 0.212986 0.057401) 451 748 1
(0.921022 0.0394888 0.0196067 0.0198822) 451 896 1
(0.282008 0.358996 0.259811 0.0991847) 451 896 1
(0.00879339 0.495603 0.325337 0.170266) 452 896 1
(0.00924977 0.495375 0.2973 0.198075) 452 896 1
(0.785314 0.107343 0.105808 0.00153449) 452 899 2
(0.741276 0.129362 0.109897 0.0194653) 453 901 2
(0.561736 0.219132 0.113831 0.105301) 454 903 2
(0.625532 0.0210964 0.166138 0.187234) 455 902 2
(0.0169017 0.063107 0.491549 0.428442) 455 904 2
(0.00965757 0.0684413 0.495171 0.42673) 456 906 2
(0.0322622 0.00959739 0.483869 0.474272) 532 909 1
(0.0628678 0.468566 0.301721 0.166845) 534 913 2
(0.51569 0.242155 0.0339 0.208255) 460 766 2
(0.425336 0.0796501 0.287332 0.207682) 461 768 1
(0.292556 0.353722 0.289215 0.0645067) 462 918 1
(0.160219 0.0862574 0.333633 0.419891) 388 772 1
(0.220257 0.035068 0.354804 0.389872) 389 774 1
(0.185821 0.0287615 0.40709 0.378328) 390 775 2
(0.236724 0.017852 0.381638 0.363786) 391 777 2
(0.248434 0.0093663 0.375783 0.366417) 392 779 2
(0.0924783 0.0935169 0.453761 0.360244) 393 781 2
(0.00379463 0.148381 0.498103 0.349722) 394 783 2
(0.120084 0.115542 0.439958 0.324416) 395 785 2
(0.0998959 0.0922107 0.450052 0.357841) 396 787 2
(0.790132 0.0629501 0.0419839 0.104934) 398 792 1
(0.242086 0.051805 0.327152 0.378957) 399 794 1
(0.0944393 0.206263 0.246517 0.45278) 476 944 2
(0.523134 0.0309987 0.238433 0.207435) 476 946 2
(0.573304 0.213348 0.151179 0.0621689) 477 949 2
(0.245323 0.148183 0.229155 0.377339) 478 948 2
(0.385675 0.0839397 0.307163 0.223223) 478 950 2
(0.0826079 0.458696 0.138903 0.319793) 554 953 2
(0.0596888 0.470156 0.14915 0.321005) 555 955 2
(0.448037 0.145247 0.130734 0.275981) 481 957 1
(0.00680503 0.496597 0.370592 0.126006) 482 959 2
(0.121477 0.439261 0.0571877 0.382074) 558 1107 1
(0.10291 0.448545 0.403643 0.0449015) 558 1109 1
(0.195199 0.131516 0.402401 0.270884) 559 963 1
(0.289766 0.355117 0.0119341 0.343183) 560 965 2
(0.242998 0.378501 0.316293 0.0622083) 486 967 2
(0.323891 0.338055 0.054691 0.283364) 487 969 2
(0.315847 0.0359974 0.342077 0.306079) 562 969 1
(0.213961 0.0842435 0.39302 0.308776) 563 971 1
(0.272448 0.159423 0.363776 0.204353) 564 973 1
(0.240235 0.379882 0.00876434 0.371118) 565 975 2
(0.135951 0.432024 0.313398 0.118626) 491 977 2
(6.60358e-08 0.5 0.5 8.98597e-09) 525 7457 2
(6.60582e-08 0.5 0.5 8.76514e-09) 525 7457 2
(5.41854e-08 0.5 0.0416236 0.458376) 450 7456 2
(6.60799e-08 0.5 0.0999985 0.400001) 525 7457 2
(0.030706 0.484647 0.409846 0.0748012) 450 746 2
(0.114663 0.442669 0.19964 0.243029) 450 746 2
(0.120036 0.439982 0.269573 0.17041) 375 597 2
(0.116968 0.441516 0.217277 0.224239) 450 746 2
(0.142695 0.428652 0.107759 0.320893) 450 746 2
(0.984511 0.00774429 0.000871397 0.00687289) 375 746 2
(0.257761 0.00714221 0.37112 0.363977) 450 746 1
(0.241696 0.379152 0.360511 0.0186408) 450 894 1
(0.251751 0.374124 0.32431 0.0498149) 450 894 1
(0.242093 0.378953 0.328378 0.0505752) 450 894 1
(0.272142 0.363929 0.28777 0.076159) 450 894 1
(0.221804 0.389098 0.292543 0.0965549) 450 894 1
(0.0524398 0.47378 0.446351 0.0274291) 525 895 2
(0.183765 0.408117 0.00888252 0.399235) 525 895 2
(0.205746 0.276621 0.397127 0.120505) 525 895 1
(0.224002 0.387999 0.306594 0.0814046) 450 894 1
(0.245807 0.377097 0.291108 0.0859881) 450 894 1
(0.271412 0.364294 0.260032 0.104262) 450 894 1
(0.289879 0.355061 0.331405 0.0236562) 450 894 1
(0.221347 0.268542 0.389327 0.120785) 525 895 1
(0.25558 0.188528 0.37221 0.183682) 525 895 1
(0.761538 0.0457168 0.119231 0.073514) 525 895 1
(0.131003 0.434499 0.135098 0.2994) 525 1043 1
(0.0324892 0.483755 0.0700697 0.413686) 526 1046 2
(0.462314 0.020079 0.248764 0.268843) 526 1043 2
(0.0774368 0.457133 0.461282 0.00414908) 526 897 1
(0.449016 0.233439 0.275492 0.042053) 526 897 1
(0.776465 0.0209862 0.111767 0.0907811) 526 897 1
(0.519418 0.226564 0.240291 0.0137271) 526 1045 2
(0.17193 0.031052 0.414035 0.382983) 526 897 1
(0.160967 0.419517 0.205401 0.214116) 527 1045 1
(0.0174063 0.491297 0.226848 0.264449) 527 1047 1
(0.177845 0.411077 0.265789 0.145288) 528 1050 2
(0.30233 0.0781715 0.270663 0.348835) 529 1049 2
(0.102119 0.290081 0.448941 0.158859) 529 1051 2
(0.599128 0.200436 0.0344446 0.165991) 531 1056 2
(0.357131 0.124162 0.197273 0.321434) 533 1060 1
(0.419375 0.290313 0.146624 0.143688) 535 915 2
(0.133006 0.433497 0.213369 0.220128) 537 1065 1
(0.204524 0.397738 0.292553 0.105184) 539 923 2
(0.188237 0.0606153 0.405882 0.345266) 464 922 2
(0.28067 0.0397425 0.319923 0.359665) 465 925 1
(0.274572 0.144625 0.218089 0.362714) 466 927 1
(0.259384 0.167882 0.202426 0.370308) 467 929 1
(0.128563 0.0852345 0.435718 0.350484) 468 930 2
(0.289859 0.35507 0.0122705 0.3428) 470 935 2
(0.0483275 0.43877 0.475836 0.0370661) 546 937 1
(0.197872 0.401064 0.0275909 0.373473) 547 939 2
(0.286273 0.0609964 0.356863 0.295867) 472 938 2
(0.31898 0.0715744 0.268936 0.34051) 473 941 1
(0.260145 0.295497 0.0744306 0.369928) 474 943 1
(0.238481 0.38076 0.19958 0.181179) 475 945 2
(0.370545 0.314727 0.160894 0.153834) 550 1094 2
(0.218396 0.104499 0.286303 0.390802) 551 1093 2
(0.349902 0.0488953 0.325049 0.276154) 551 1095 2
(0.441472 0.251636 0.0276279 0.279264) 552 1098 1
(0.18635 0.406825 0.31235 0.0944751) 628 1100 2
(0.030185 0.484907 0.102261 0.382646) 629 1248 1
(0.175133 0.412433 0.398337 0.014096) 629 1250 1
(0.367882 0.316059 0.00783628 0.308223) 556 1106 2
(0.289596 0.113557 0.355202 0.241645) 631 1106 1
(0.139574 0.21326 0.430213 0.216953) 632 1108 1
(0.0864691 0.456765 0.0649357 0.39183) 559 1112 2
(0.00385673 0.498072 0.0546804 0.443391) 635 1260 1
(0.282622 0.0773474 0.358689 0.281342) 635 1114 1
(0.228686 0.14076 0.385657 0.244897) 636 1116 1
(0.0639475 0.468026 0.061855 0.406171) 638 1266 1
(0.15448 0.42276 0.0188322 0.403928) 639 1268 1
(0.22071 0.389645 0.276812 0.112833) 640 1124 2
(0.272589 0.363706 0.140295 0.223411) 641 1126 2
(0.0888657 0.455567 0.293812 0.161755) 567 1125 1
(6.59725e-08 0.5 0.5 3.64431e-09) 600 7458 2
(6.60005e-08 0.5 0.5 3.77272e-09) 600 7458 2
(3.11899e-08 0.5 0.164529 0.335471) 525 7457 2
(6.60274e-08 0.5 0.0291419 0.470858) 600 7458 2
(0.0540792 0.47296 0.448764 0.0241962) 525 895 2
(3.19547e-08 0.5 0.012678 0.487322) 525 7457 2
(0.610956 0.0315526 0.194522 0.162969) 450 894 2
(0.26278 0.36861 0.357695 0.0109152) 525 1043 1
(0.0604004 0.4698 0.40108 0.06872) 525 895 2
(0.284673 0.357664 0.346414 0.0112492) 525 1043 1
(0.260728 0.369636 0.367133 0.00250292) 525 1043 1