/*--------------------------------*- C++ -*----------------------------------*\
  =========                 |
  \\      /  F ield         | OpenFOAM: The Open Source CFD Toolbox
   \\    /   O peration     | Website:  https://openfoam.org
    \\  /    A nd           | Version:  12
     \\/     M anipulation  |
\*---------------------------------------------------------------------------*/
FoamFile
{
    format      ascii;
    class       vectorField;
    location    "0.65/lagrangian/cloud";
    object      U;
}
// * * * * * * * * * * * * * * * * * * * * * * * * * * * * * * * * * * * * * //


5272
(
(1.15039e-11 -2.73511e-05 0)
(1.11312e-11 -2.73604e-05 0)
(1.07705e-11 -2.73693e-05 0)
(1.04215e-11 -2.7378e-05 0)
(1.00838e-11 -2.73864e-05 0)
(9.75699e-12 -2.73945e-05 0)
(9.44078e-12 -2.74023e-05 0)
(9.1348e-12 -2.74098e-05 0)
(8.83873e-12 -2.74171e-05 0)
(0.000378676 -0.00224667 0)
(0.00051333 -0.0021676 0)
(0.00036836 -0.00201458 0)
(0.000472702 -0.00189756 0)
(0.000994248 -0.00361446 0)
(2.22745e-05 -0.00252513 0)
(9.13978e-05 -0.00356141 0)
(0.000624312 0.00359118 0)
(-0.000429117 0.000203745 0)
(0.00078187 0.000682446 0)
(0.0025254 -0.00631349 0)
(0.00623806 -0.00525175 0)
(0.000407195 -0.00507962 0)
(-0.00155699 -0.0331363 0)
(-0.000528913 -0.0296471 0)
(-0.000235447 -0.0296511 0)
(0.000694654 -0.0288909 0)
(-9.27691e-05 -0.0290032 0)
(9.32316e-06 -0.0291978 0)
(0.000834868 -0.0245709 0)
(-0.000179084 -0.0309753 0)
(-0.000164682 -0.0275042 0)
(0.00038694 -0.0264221 0)
(0.000202659 -0.0247927 0)
(-0.000618951 -0.0273135 0)
(0.000956584 -0.0240298 0)
(0.000183201 -0.0238681 0)
(0.00014491 -0.0248327 0)
(-0.000977559 -0.0244484 0)
(0.000507557 -0.0263447 0)
(-0.000582511 -0.02757 0)
(0.000617509 -0.0318209 0)
(-0.000568784 -0.0310801 0)
(-0.00137581 -0.0298799 0)
(-0.00110537 -0.0271551 0)
(0.00071245 -0.0276714 0)
(-0.00017699 -0.0296793 0)
(-6.73666e-05 -0.0257802 0)
(-0.00275367 -0.0246438 0)
(0.000250478 -0.0237279 0)
(0.000560279 -0.0242931 0)
(0.000146954 -0.0256866 0)
(-0.000449762 -0.0243894 0)
(0.000509337 -0.0209303 0)
(0.000521323 -0.0217061 0)
(0.00333809 -0.0179764 0)
(-0.0019126 -0.0193235 0)
(-0.000261638 -0.0245576 0)
(-0.000385242 -0.0195231 0)
(3.28483e-05 -0.0192986 0)
(0.000278597 -0.0178757 0)
(-0.000984376 -0.0160308 0)
(-0.000432766 -0.0150733 0)
(-0.000551218 -0.015349 0)
(-5.00266e-05 -0.0163504 0)
(0.000171211 -0.0159962 0)
(0.000677496 -0.0177627 0)
(0.00234348 -0.022248 0)
(-7.9018e-05 -0.0284682 0)
(0.000154009 -0.026266 0)
(0.000521556 -0.0249533 0)
(-0.00011746 -0.0253044 0)
(0.000335402 -0.0232799 0)
(-0.00185756 -0.0265543 0)
(0.000456557 -0.0221141 0)
(-0.000305121 -0.0218026 0)
(1.69492e-11 -2.72204e-05 0)
(1.60049e-11 -2.72494e-05 0)
(-1.6778e-06 -2.11705e-05 0)
(-1.62235e-06 -2.13895e-05 0)
(0.000398837 -0.00189601 0)
(0.000569607 -0.00356289 0)
(0.000831835 -0.00550676 0)
(0.000480833 -0.00408568 0)
(1.51131e-11 -2.72766e-05 0)
(0.00133003 -0.00985601 0)
(1.24644e-05 -0.00200235 0)
(0.00124518 -0.00414998 0)
(0.000682871 -0.00518978 0)
(0.000410021 -0.00438821 0)
(0.00352016 -0.00532932 0)
(0.000488628 -0.00471948 0)
(0.000440247 -0.00490437 0)
(0.000333751 -0.00521081 0)
(0.000994054 -7.12797e-05 0)
(-0.00327128 -0.00302108 0)
(-0.00142559 -0.00312028 0)
(-0.00214675 -0.000956765 0)
(0.000338605 -0.00263907 0)
(-0.00167268 -0.00664456 0)
(-0.000489725 -0.00753612 0)
(-0.00184265 -0.0327154 0)
(0.000128008 -0.0307599 0)
(3.87323e-05 -0.0282983 0)
(0.00108968 -0.0276489 0)
(0.000693782 -0.0246026 0)
(0.000804313 -0.0283576 0)
(-0.00114541 -0.0333292 0)
(-0.00125325 -0.0356843 0)
(0.00035651 -0.0335472 0)
(-0.00135071 -0.0316845 0)
(-0.00146624 -0.0331319 0)
(6.00931e-05 -0.0251817 0)
(0.000425355 -0.0244972 0)
(-0.000312475 -0.0243749 0)
(-0.000225232 -0.025306 0)
(-0.000111812 -0.0202466 0)
(-0.000873278 -0.0206648 0)
(0.000247376 -0.0370967 0)
(0.00267304 -0.0247054 0)
(0.00055651 -0.019993 0)
(0.000853895 -0.0222806 0)
(-0.000738692 -0.0256028 0)
(-0.000211725 -0.0253653 0)
(-0.000811482 -0.0249896 0)
(-0.00122639 -0.0234098 0)
(-0.00227547 -0.0188499 0)
(-0.000520466 -0.0349851 0)
(-0.000518726 -0.0294343 0)
(0.000185739 -0.0257423 0)
(0.000709439 -0.0285671 0)
(0.000982415 -0.0297693 0)
(-0.000906097 -0.0272508 0)
(-0.000322423 -0.0282496 0)
(-0.00130948 -0.0201984 0)
(-0.00057929 -0.0166978 0)
(-0.000768758 -0.0180381 0)
(-0.00144119 -0.0195336 0)
(-0.00197416 -0.030494 0)
(-0.00187823 -0.0260027 0)
(0.000373872 -0.0227388 0)
(-0.0026328 -0.021086 0)
(-0.00146896 -0.0204691 0)
(-0.000818453 -0.0220715 0)
(-0.000867999 -0.0217345 0)
(0.00319169 -0.020652 0)
(0.00291635 -0.0203258 0)
(-0.000477909 -0.0211545 0)
(0.00140961 -0.0209497 0)
(0.00296113 -0.0192147 0)
(0.00148055 -0.0222663 0)
(9.04331e-13 -2.74348e-05 0)
(8.88728e-13 -2.74374e-05 0)
(-9.79553e-06 -1.30281e-05 0)
(8.73394e-13 -2.74399e-05 0)
(0.000321695 -0.00495437 0)
(0.000283539 -0.00471573 0)
(-2.91025e-05 -0.000364104 0)
(0.000590723 -0.00152679 0)
(0.000249791 -0.00498518 0)
(0.000878249 -0.00173949 0)
(0.000394329 -0.0036084 0)
(1.86808e-05 -0.00455928 0)
(0.000614943 -0.00457964 0)
(-0.00152433 -0.000110236 0)
(0.00428466 -0.0137449 0)
(-0.00318032 -0.000715112 0)
(-0.00135466 -0.00735366 0)
(0.000144566 -0.00442729 0)
(-0.00052422 -0.00451637 0)
(-0.000646345 -0.00443828 0)
(0.000847908 -0.00068019 0)
(-0.000157298 -0.00757178 0)
(8.09829e-05 -0.000491859 0)
(-0.00171445 0.00260214 0)
(-0.0135972 -0.00738102 0)
(0.00193809 -0.00785404 0)
(-0.000366664 -0.00686963 0)
(0.00143892 -0.00639077 0)
(-0.00306653 -0.0147603 0)
(-0.00274551 -0.0373732 0)
(-0.00237505 -0.0363083 0)
(-0.00323732 -0.0385114 0)
(-0.00302129 -0.0363833 0)
(-0.00261814 -0.0370341 0)
(-0.00107139 -0.0360432 0)
(-0.00172046 -0.0380503 0)
(-0.0022737 -0.0365181 0)
(-0.000330913 -0.0364677 0)
(-0.00204027 -0.0388722 0)
(0.0015857 -0.0367768 0)
(0.000249671 -0.0364812 0)
(-0.000551995 -0.0378341 0)
(-0.00221151 -0.0347202 0)
(0.000165666 -0.0371385 0)
(-0.00293074 -0.0329601 0)
(3.73454e-05 -0.0380399 0)
(0.00261908 -0.0296124 0)
(9.15242e-05 -0.0283825 0)
(0.0011689 -0.0340742 0)
(-0.00166667 -0.0326781 0)
(0.000579325 -0.0370476 0)
(-0.000449017 -0.0327134 0)
(-0.000519475 -0.0334785 0)
(0.000120744 -0.039798 0)
(0.000283512 -0.0383699 0)
(0.00138965 -0.0388861 0)
(-7.23205e-05 -0.04094 0)
(-8.14922e-05 -0.0420887 0)
(0.000386598 -0.0340627 0)
(-0.000591234 -0.0329775 0)
(0.00213824 -0.0295847 0)
(-0.0013488 -0.0268048 0)
(-0.000856856 -0.0347819 0)
(5.45541e-06 -0.0335738 0)
(-1.72941e-05 -0.0331279 0)
(-0.000574529 -0.0386492 0)
(-0.00176463 -0.0325874 0)
(-0.0034509 -0.0325118 0)
(-0.00265911 -0.0304683 0)
(-0.00173601 -0.0321268 0)
(-0.00110481 -0.0278176 0)
(-0.00153727 -0.0317681 0)
(-0.00160451 -0.0334961 0)
(-0.00216854 -0.0349353 0)
(-0.00202736 -0.0387085 0)
(9.95758e-12 -2.74126e-05 0)
(9.74556e-12 -2.74165e-05 0)
(-1.11928e-06 -2.44277e-05 0)
(9.53805e-12 -2.74204e-05 0)
(-1.09966e-06 -2.44838e-05 0)
(-0.000620202 -0.000957075 0)
(0.00132689 -0.00315203 0)
(-0.00112224 -0.00422189 0)
(0.000790061 -0.00452116 0)
(-0.00105169 -0.00387724 0)
(0.000618541 -0.00462798 0)
(0.000442892 -0.00425755 0)
(0.000522267 -0.00409376 0)
(0.005777 -0.011958 0)
(0.00959794 -0.00797058 0)
(0.00107006 3.52996e-05 0)
(0.00134259 -0.0183167 0)
(-0.000431318 -0.0185782 0)
(-0.00565191 -0.00206697 0)
(0.000823414 -0.00257878 0)
(0.0018729 -0.00670156 0)
(0.00292565 -0.000416976 0)
(-0.00133849 -0.00505004 0)
(-0.00973248 -0.0122511 0)
(-0.00328231 -0.00787073 0)
(0.0020371 0.00356453 0)
(0.000261428 -0.0078716 0)
(0.00132384 -0.00966035 0)
(0.00383803 -0.0100775 0)
(0.00744377 -0.0130458 0)
(-0.006212 -0.0141729 0)
(-0.00995511 -0.0361536 0)
(-0.0052998 -0.0381441 0)
(-0.00387014 -0.0389375 0)
(-0.00180707 -0.0395653 0)
(-0.00129017 -0.0384555 0)
(-0.000279181 -0.032892 0)
(3.31345e-05 -0.0350472 0)
(-0.000180247 -0.0344886 0)
(-0.000539925 -0.0367975 0)
(0.000225803 -0.0371317 0)
(-0.000121191 -0.0390339 0)
(0.00190866 -0.0411298 0)
(-0.000546847 -0.0405798 0)
(-0.000166126 -0.0417483 0)
(0.000183698 -0.0420408 0)
(-0.00159813 -0.0460134 0)
(-0.00278971 -0.045579 0)
(-0.00200177 -0.0458754 0)
(-0.000902832 -0.0461342 0)
(0.00130322 -0.0419562 0)
(0.000972938 -0.0395511 0)
(0.0018234 -0.0397873 0)
(9.12369e-05 -0.0438467 0)
(0.00147287 -0.0439173 0)
(0.000290215 -0.0432178 0)
(8.25412e-06 -0.0383844 0)
(0.000811787 -0.041547 0)
(0.000138309 -0.0425815 0)
(0.00168178 -0.0402188 0)
(-0.00154085 -0.0416696 0)
(-0.000133905 -0.039875 0)
(-0.00139911 -0.0406721 0)
(0.000309893 -0.0386074 0)
(-0.000198767 -0.0374345 0)
(8.41629e-05 -0.0367626 0)
(-0.000684405 -0.0387527 0)
(0.000359131 -0.0383812 0)
(0.000639277 -0.0378529 0)
(-0.00234222 -0.0407811 0)
(-0.00274023 -0.0365371 0)
(-0.00350075 -0.0364129 0)
(-0.00478969 -0.0361959 0)
(-0.00248464 -0.041294 0)
(-0.00336845 -0.042388 0)
(-2.7191e-12 -2.73852e-05 0)
(-2.64755e-12 -2.73912e-05 0)
(6.31599e-06 -2.55515e-05 0)
(-2.57787e-12 -2.73971e-05 0)
(6.18009e-06 -2.55963e-05 0)
(0.00185684 0.000505662 0)
(0.0027422 -0.00122734 0)
(0.0020661 -0.00564716 0)
(0.00115539 -0.00225453 0)
(-0.00164132 -0.0159765 0)
(0.00300591 -0.0114271 0)
(0.00304983 -0.0112038 0)
(0.000941179 -0.0105859 0)
(0.00207507 -0.00193426 0)
(0.000924156 -0.00154123 0)
(0.00583057 -0.00260342 0)
(0.00376194 -0.011326 0)
(0.00120793 -0.00962101 0)
(0.00621562 -0.0124742 0)
(-0.00859589 -0.00641236 0)
(-0.00846075 -0.00796825 0)
(-0.0042322 -0.0102602 0)
(-0.000629174 -0.0066451 0)
(0.00035505 0.00144182 0)
(-0.000240894 -0.00857121 0)
(-0.000353895 -0.00498939 0)
(0.000210226 -0.00725488 0)
(0.00125377 -0.00887558 0)
(0.00112979 -0.00391501 0)
(0.00374775 -0.000921675 0)
(-0.00565394 -0.00967368 0)
(-0.00976934 -0.00755356 0)
(-0.00732761 -0.0358073 0)
(-0.00480693 -0.0423754 0)
(-0.00380524 -0.0422391 0)
(-0.00451984 -0.0415533 0)
(-0.00442573 -0.0391342 0)
(-0.00174705 -0.0395524 0)
(-0.000501482 -0.0379779 0)
(-0.00129344 -0.0362732 0)
(-0.00167463 -0.0360805 0)
(0.00150042 -0.035685 0)
(-0.00156526 -0.0401721 0)
(2.07397e-05 -0.0372892 0)
(0.000981903 -0.0367772 0)
(5.9047e-05 -0.0391529 0)
(-0.000712966 -0.0430087 0)
(-0.000738541 -0.0454832 0)
(0.000486098 -0.0495563 0)
(-0.00175448 -0.0458562 0)
(-0.000887142 -0.0456305 0)
(0.000253828 -0.043796 0)
(-0.00045873 -0.0445473 0)
(0.000541142 -0.0430279 0)
(-6.83253e-05 -0.0425701 0)
(-0.000122654 -0.0408031 0)
(-0.000260582 -0.0381587 0)
(-0.000306713 -0.0427948 0)
(-0.000397872 -0.0409328 0)
(-0.000974034 -0.0403278 0)
(-0.000353237 -0.0395366 0)
(-0.000379703 -0.0390626 0)
(0.000538082 -0.0407883 0)
(-0.000423239 -0.0404345 0)
(0.000678729 -0.0367744 0)
(0.000218524 -0.0372119 0)
(0.000360505 -0.038739 0)
(0.00104453 -0.0382172 0)
(0.000459974 -0.0366143 0)
(-0.00108866 -0.0369422 0)
(-0.00221474 -0.0366562 0)
(-0.00181279 -0.0378509 0)
(-0.00424879 -0.0417512 0)
(-0.00303718 -0.041493 0)
(-0.00226006 -0.0413848 0)
(-1.92344e-12 -2.73691e-05 0)
(-1.867e-12 -2.73766e-05 0)
(5.8492e-07 -2.54015e-05 0)
(-1.81222e-12 -2.73838e-05 0)
(-0.000126033 -0.011893 0)
(5.69348e-07 -2.54614e-05 0)
(0.0131244 -0.0114153 0)
(-0.000668564 -0.00181703 0)
(-0.000611095 -0.00430469 0)
(-0.000667578 -0.00358129 0)
(-0.000648201 -0.00513068 0)
(-0.000694076 -0.00418585 0)
(-0.000685962 -0.0047293 0)
(0.000526566 -0.00376363 0)
(0.000581909 -0.00496863 0)
(0.000631107 -0.0044801 0)
(0.000676827 -0.00341275 0)
(0.000106689 -0.00774489 0)
(0.000197018 -0.00817562 0)
(-0.000421982 -0.00990463 0)
(0.000179364 -0.00854783 0)
(0.000626919 0.00402869 0)
(0.00111042 0.0031661 0)
(0.0040502 -0.00135578 0)
(0.00232781 -0.00698067 0)
(0.00843985 -0.00543791 0)
(-0.00247449 -0.0112522 0)
(0.00287061 -0.000436681 0)
(0.0064809 -0.00202912 0)
(0.00289331 -0.00929094 0)
(-0.00442558 -0.0100547 0)
(-0.00477741 -0.0101256 0)
(-0.0078325 -0.0133965 0)
(-0.00559633 -0.0291965 0)
(-0.00432128 -0.0434819 0)
(-0.0018365 -0.0451383 0)
(-0.0035609 -0.0424567 0)
(-0.00352511 -0.0431714 0)
(-0.00342451 -0.044774 0)
(-0.00154619 -0.0460633 0)
(-0.000390147 -0.0364653 0)
(-0.00111712 -0.0357211 0)
(-0.000201522 -0.0369427 0)
(0.00143857 -0.0360076 0)
(0.000482269 -0.0368643 0)
(-0.000120312 -0.0385211 0)
(-0.000130778 -0.0391622 0)
(-0.000396637 -0.03842 0)
(3.25173e-05 -0.0398981 0)
(-0.00071438 -0.0428174 0)
(-0.000291832 -0.0433407 0)
(-0.000513124 -0.0430664 0)
(-0.00030561 -0.042351 0)
(-6.33643e-05 -0.0417716 0)
(0.00100527 -0.0393705 0)
(0.000675314 -0.0380215 0)
(0.000408024 -0.0403506 0)
(0.000659467 -0.0415538 0)
(0.000392099 -0.0399761 0)
(-3.51708e-05 -0.0381421 0)
(-1.54761e-05 -0.0381172 0)
(-0.00134269 -0.039554 0)
(-0.00343894 -0.0390404 0)
(-0.000363836 -0.0361773 0)
(-0.00061922 -0.0372021 0)
(-0.000532235 -0.0373981 0)
(-0.000385802 -0.0358915 0)
(0.000245679 -0.0339418 0)
(0.000844812 -0.0352448 0)
(0.000476477 -0.0355157 0)
(-0.000265707 -0.0361589 0)
(-0.000196369 -0.0373767 0)
(0.000412277 -0.0397832 0)
(0.00135447 -0.0405058 0)
(-0.000895902 -0.0407588 0)
(-5.40415e-12 -2.73852e-05 0)
(-5.26215e-12 -2.73912e-05 0)
(0.000136679 -0.00740345 0)
(-5.12388e-12 -2.73971e-05 0)
(-1.75905e-12 -2.73908e-05 0)
(0.00187352 -0.00216743 0)
(0.00174781 -0.00234234 0)
(-0.0010307 -0.00228254 0)
(7.90441e-06 -2.28986e-05 0)
(0.000462853 -0.00496128 0)
(0.00113713 -0.0086153 0)
(0.00106327 -0.00494146 0)
(-0.00133296 -0.00324945 0)
(0.00100415 -0.00815195 0)
(0.00087573 -0.00713407 0)
(0.000997792 -0.00946019 0)
(0.0012989 -0.00962378 0)
(0.000659245 -0.00900012 0)
(0.00152992 -0.0041236 0)
(0.00109829 -0.00380282 0)
(0.00125979 -0.00398594 0)
(0.00133192 -0.00385846 0)
(0.00127745 -0.00334933 0)
(0.000414177 -0.00436006 0)
(0.000357867 -0.00479787 0)
(-0.000150926 -0.00762012 0)
(0.00158181 -0.00528386 0)
(0.00405688 -0.00492669 0)
(0.000776041 -0.00510776 0)
(0.00631867 -0.000368692 0)
(-0.00372434 -0.00805326 0)
(-0.00435139 -0.00224748 0)
(-0.0084382 -0.00256686 0)
(-0.00507144 -0.033297 0)
(-0.00157346 -0.0434745 0)
(0.000350529 -0.0470707 0)
(-0.000236747 -0.0477099 0)
(-0.00371353 -0.0439895 0)
(-0.00432804 -0.0453843 0)
(-0.00426411 -0.0465957 0)
(-0.00163197 -0.0472935 0)
(0.000699867 -0.0439096 0)
(0.000957314 -0.0420693 0)
(0.00304063 -0.0404163 0)
(0.00194456 -0.0381374 0)
(0.000798918 -0.0399857 0)
(0.000379732 -0.0396031 0)
(-5.05038e-05 -0.0407733 0)
(-0.000539871 -0.041331 0)
(-0.000573564 -0.0413978 0)
(-0.000342244 -0.0408369 0)
(-3.00678e-05 -0.0412338 0)
(-0.000397654 -0.0413908 0)
(0.000146621 -0.0386049 0)
(0.00043001 -0.0374093 0)
(8.82257e-05 -0.0379401 0)
(0.000131235 -0.0351371 0)
(0.00082444 -0.0376629 0)
(0.000562007 -0.0388545 0)
(-0.000789085 -0.0355884 0)
(-0.000219651 -0.0380869 0)
(-0.000475144 -0.03757 0)
(-0.00169144 -0.0394496 0)
(-0.00144176 -0.0379051 0)
(-0.000383984 -0.0385728 0)
(-0.000914503 -0.0379499 0)
(-0.000762536 -0.0373262 0)
(0.000297319 -0.0409124 0)
(-0.000480846 -0.0394183 0)
(0.000177058 -0.0428118 0)
(-9.02502e-05 -0.0440487 0)
(0.000121474 -0.042649 0)
(-0.000348983 -0.0423635 0)
(-0.000214458 -0.0419353 0)
(-0.000841045 -0.0419086 0)
(6.21243e-12 -2.73511e-05 0)
(6.0109e-12 -2.73603e-05 0)
(1.17279e-05 -2.24928e-05 0)
(5.81589e-12 -2.73693e-05 0)
(0.00145403 -0.00109548 0)
(0.00104575 -0.00238619 0)
(0.00134715 -0.00280716 0)
(0.000583513 -0.0021601 0)
(0.00076412 -0.00335534 0)
(0.000359487 -0.00834085 0)
(0.000512528 -0.00428989 0)
(9.84502e-06 -0.00605925 0)
(0.00014155 -0.0034154 0)
(-0.000492416 -0.00796839 0)
(-0.000154113 -0.00800634 0)
(-0.000183907 -0.0078728 0)
(-0.000877956 -0.00169638 0)
(0.0020427 -0.00395271 0)
(0.00294326 -0.00496037 0)
(-0.000129791 -0.00774576 0)
(-3.34836e-05 -0.00775803 0)
(1.12044e-05 -0.00779094 0)
(1.20676e-05 -0.00784956 0)
(-0.000788317 -0.00319788 0)
(0.00313423 -0.00491959 0)
(-0.000560468 -0.00559543 0)
(0.000620607 -0.00793939 0)
(0.00426589 -0.00857604 0)
(0.00358414 0.00198027 0)
(-0.00218675 -0.00418764 0)
(-0.00292748 -0.00840366 0)
(-0.0010017 -0.00385993 0)
(-0.002186 -2.41059e-05 0)
(-0.00179911 -0.0105781 0)
(0.00376614 -0.0246498 0)
(-0.00433879 -0.0414413 0)
(-0.00106936 -0.0416725 0)
(9.81638e-05 -0.0465042 0)
(-0.000862609 -0.0460774 0)
(-0.00421545 -0.0498713 0)
(-0.00361292 -0.0453276 0)
(-0.00230681 -0.0474029 0)
(0.00136572 -0.0435717 0)
(0.00150421 -0.038555 0)
(0.000921845 -0.0389873 0)
(0.000551773 -0.0376129 0)
(0.000250362 -0.0387328 0)
(-0.000286192 -0.0399355 0)
(0.000159653 -0.0413177 0)
(-0.000572868 -0.0388304 0)
(-0.00119522 -0.0357804 0)
(-0.000626852 -0.0358195 0)
(-0.000692088 -0.0375146 0)
(0.000405892 -0.0368324 0)
(-0.00025657 -0.0370406 0)
(-0.000167343 -0.0374592 0)
(-0.000400699 -0.0358887 0)
(0.00039303 -0.03626 0)
(0.000218829 -0.0338189 0)
(0.00106641 -0.036044 0)
(0.00147769 -0.0381813 0)
(-8.97366e-05 -0.0365552 0)
(-0.00167763 -0.0379023 0)
(-2.27746e-06 -0.0402881 0)
(-0.000566872 -0.0411095 0)
(0.000622368 -0.0410814 0)
(0.000193825 -0.0398572 0)
(0.00025424 -0.0418022 0)
(-0.000181064 -0.042244 0)
(0.000593573 -0.0435989 0)
(0.000200194 -0.0452956 0)
(-0.000472445 -0.0442192 0)
(-0.00108622 -0.0442183 0)
(-0.00080102 -0.0440388 0)
(-0.000343291 -0.0429679 0)
(5.70543e-12 -2.73308e-05 0)
(5.49944e-12 -2.73424e-05 0)
(6.77836e-06 -1.30042e-05 0)
(5.30087e-12 -2.73535e-05 0)
(0.000403822 -0.000202364 0)
(6.86402e-06 -1.33374e-05 0)
(-0.000548843 -0.00447969 0)
(5.48176e-05 -0.00587612 0)
(0.000480352 -0.000203038 0)
(-1.18766e-05 -0.00561108 0)
(-6.24964e-05 -0.00837005 0)
(0.00207461 -0.00621573 0)
(0.000179632 -0.00447314 0)
(7.24464e-05 -0.0081009 0)
(0.000231102 -0.00436247 0)
(0.000288553 -0.00540876 0)
(-2.11935e-05 -0.00230796 0)
(0.000540725 -0.00311452 0)
(1.79873e-05 -0.00307271 0)
(0.000452862 -0.00356886 0)
(0.000170484 -0.0030449 0)
(0.000678283 -0.0031204 0)
(0.00111282 -0.00437622 0)
(0.000334076 -0.00428597 0)
(0.00154977 -0.00322279 0)
(0.00169071 -0.00431983 0)
(-0.00113514 -0.00355473 0)
(-0.00100435 -0.00617164 0)
(0.00300049 0.00368171 0)
(0.00121055 0.00267081 0)
(0.00182409 -0.0027974 0)
(2.97362e-07 0.00130873 0)
(0.00281498 -0.00703267 0)
(0.00148145 -0.00482228 0)
(-0.00190485 -0.0018842 0)
(-0.00284862 -0.0107787 0)
(0.00262661 -0.026448 0)
(0.000280223 -0.045157 0)
(0.000507624 -0.0448301 0)
(-0.00418513 -0.0457441 0)
(-0.00461835 -0.0480517 0)
(-0.00273324 -0.0459351 0)
(0.00135061 -0.0395315 0)
(0.000598789 -0.0349275 0)
(4.9909e-05 -0.0353445 0)
(-0.000150795 -0.0363638 0)
(-7.32156e-05 -0.0373269 0)
(0.000484797 -0.0382225 0)
(0.000327136 -0.0381328 0)
(-0.00148981 -0.0362919 0)
(-0.00180838 -0.0352638 0)
(-0.00214471 -0.0342851 0)
(-0.00187456 -0.0347789 0)
(-0.000350176 -0.0340541 0)
(-0.000639453 -0.0333168 0)
(-4.21424e-05 -0.0358146 0)
(0.000813385 -0.0363258 0)
(0.000729324 -0.0356719 0)
(0.000861209 -0.0351553 0)
(1.27177e-05 -0.0381738 0)
(0.000530414 -0.0401338 0)
(0.000879501 -0.0397417 0)
(0.00139514 -0.0401091 0)
(-0.000630547 -0.0410509 0)
(-0.000192425 -0.0412387 0)
(-0.000603235 -0.0421031 0)
(-0.000398394 -0.0450523 0)
(-0.000293988 -0.0465851 0)
(8.72328e-05 -0.0454268 0)
(-0.000950214 -0.0460891 0)
(-0.000462366 -0.0476732 0)
(-0.000484979 -0.0454001 0)
(-0.000809412 -0.04319 0)
(-0.000536164 -0.0434909 0)
(-0.000534622 -0.0438534 0)
(2.0383e-12 -2.74126e-05 0)
(1.99487e-12 -2.74165e-05 0)
(-0.000315838 -0.00145373 0)
(1.95236e-12 -2.74204e-05 0)
(-0.000270141 -0.00197733 0)
(3.53928e-05 -0.00134622 0)
(0.0016629 -0.00516296 0)
(0.00108994 -0.00120157 0)
(0.00211151 -0.00553368 0)
(-0.000749947 -0.00281335 0)
(0.000756242 -0.00502747 0)
(0.00210112 -0.00289458 0)
(4.36932e-05 -0.00209413 0)
(-0.00149662 7.08633e-05 0)
(0.000767525 -0.0033667 0)
(0.00188053 -0.00227069 0)
(-0.00140915 -0.00270002 0)
(-0.00129845 -0.00185135 0)
(0.00138526 -0.00406401 0)
(0.000906434 -0.00985902 0)
(0.000375955 -0.0130944 0)
(0.000390799 -0.00497403 0)
(0.000636217 -0.0054417 0)
(0.000856966 -0.00873095 0)
(0.00175665 -0.00697629 0)
(0.000657771 -0.0062959 0)
(0.00188157 0.00385661 0)
(0.00137632 -0.0035302 0)
(-0.00211206 -0.00476702 0)
(-0.000561055 -0.000796143 0)
(0.000106526 -0.00465051 0)
(-0.000179283 -0.00337553 0)
(-0.00483176 0.00383995 0)
(-0.00289954 -0.00888902 0)
(-0.00284297 -0.00216528 0)
(-0.00960284 -0.0135545 0)
(-0.0014593 -0.0245051 0)
(0.00102516 -0.0408369 0)
(-0.0023242 -0.0428577 0)
(-0.00264999 -0.0454569 0)
(-0.00418555 -0.0439419 0)
(-0.00297467 -0.0395858 0)
(-0.00142939 -0.0414916 0)
(-0.000903089 -0.0406045 0)
(-0.000443431 -0.0394304 0)
(-0.000488875 -0.0367891 0)
(-0.000318053 -0.0400921 0)
(-0.000937352 -0.035784 0)
(-0.00198761 -0.0362037 0)
(0.000919634 -0.0359093 0)
(0.000235553 -0.0365718 0)
(-0.000748441 -0.0371706 0)
(-0.000912369 -0.035406 0)
(-0.000808663 -0.0347439 0)
(-0.00122194 -0.0417687 0)
(-0.00096945 -0.0410589 0)
(0.000380579 -0.0417262 0)
(0.000249039 -0.0414293 0)
(-0.000421407 -0.0436044 0)
(0.000359919 -0.0418423 0)
(0.00132488 -0.0420257 0)
(0.00128795 -0.0452623 0)
(0.000902293 -0.0430371 0)
(0.000639381 -0.0453437 0)
(-0.000230222 -0.044951 0)
(-0.00112314 -0.0441327 0)
(0.000146379 -0.0449518 0)
(0.000505746 -0.0447636 0)
(-0.000156938 -0.0473515 0)
(-0.000672858 -0.0458609 0)
(-0.00081442 -0.0430203 0)
(-0.000815271 -0.0452123 0)
(-0.000491253 -0.0457662 0)
(-0.000989514 -0.0463635 0)
(1.51553e-06 -0.0474018 0)
(-1.48441e-12 -2.73852e-05 0)
(-1.44544e-12 -2.73912e-05 0)
(-0.000174671 -0.00238055 0)
(-1.40749e-12 -2.73971e-05 0)
(0.000171857 -0.00213258 0)
(0.00318308 -0.00186299 0)
(0.00127533 -0.00437331 0)
(7.83169e-05 -0.00214162 0)
(0.00174153 -0.00895891 0)
(0.00181642 -0.00786057 0)
(-0.000667182 -0.00233144 0)
(0.00180882 -0.00713831 0)
(0.000380103 -0.00843489 0)
(-1.37054e-12 -2.74028e-05 0)
(0.000861265 -0.00669659 0)
(0.00113253 -0.00452419 0)
(0.000135413 -0.00578577 0)
(-0.000396891 -0.00756601 0)
(-0.000503978 -0.00365319 0)
(-0.000614294 -0.00583362 0)
(-0.000254654 -0.00289513 0)
(0.00027256 -0.00874899 0)
(-0.000956959 -0.00555983 0)
(0.000382683 0.00422546 0)
(-0.00075363 -0.00430562 0)
(-0.000439651 0.00394455 0)
(-0.000686586 0.00268733 0)
(-0.00244615 0.00128392 0)
(-0.000759085 0.000698271 0)
(-0.000327134 -0.00150836 0)
(0.000113671 0.00236681 0)
(0.00102659 -0.0136197 0)
(0.00985488 -0.0167398 0)
(-0.00950948 -0.0180543 0)
(-0.00052495 -0.024088 0)
(0.000722133 -0.0375675 0)
(-9.68557e-05 -0.0405945 0)
(-0.00187066 -0.0399003 0)
(-0.003733 -0.0408142 0)
(-0.00320341 -0.0402464 0)
(-0.00147876 -0.0386458 0)
(-0.00124977 -0.0395201 0)
(-0.00121134 -0.0392007 0)
(0.000235337 -0.0388077 0)
(0.000579784 -0.0404195 0)
(0.000771786 -0.0399135 0)
(0.000555337 -0.038767 0)
(0.000866774 -0.0400319 0)
(0.000632352 -0.0411001 0)
(0.000735428 -0.0400943 0)
(0.000930979 -0.0392347 0)
(-0.000483677 -0.0451438 0)
(-0.00033094 -0.044743 0)
(0.000249095 -0.0443403 0)
(-8.1606e-05 -0.044894 0)
(-0.000234932 -0.0462006 0)
(-0.000759743 -0.046829 0)
(-0.00053076 -0.0472037 0)
(-0.00037137 -0.0475479 0)
(0.00134278 -0.0432775 0)
(0.000366437 -0.0442239 0)
(0.000366059 -0.0448522 0)
(0.000498772 -0.0458263 0)
(0.00103352 -0.047087 0)
(0.000811513 -0.049644 0)
(0.00077209 -0.0473303 0)
(-0.000613345 -0.0470019 0)
(-0.000745073 -0.047219 0)
(0.000243405 -0.0475257 0)
(-0.00063697 -0.0460267 0)
(-0.000220357 -0.0434332 0)
(-0.000510763 -0.0436572 0)
(-0.000409215 -0.0460393 0)
(-0.00027975 -0.0465335 0)
(-0.000356712 -0.0462757 0)
(-2.27291e-13 -2.74126e-05 0)
(-2.22454e-13 -2.74165e-05 0)
(0.000165868 -0.00251276 0)
(-2.1772e-13 -2.74204e-05 0)
(0.000236875 -0.00421824 0)
(0.000182578 -0.00236574 0)
(0.00151812 -0.00446729 0)
(0.000405591 -0.00439277 0)
(-0.00184753 -0.00431279 0)
(0.00113958 -0.00990029 0)
(0.000197168 -0.00276795 0)
(0.00547161 -0.0042986 0)
(-0.000263328 -0.00322734 0)
(-0.00139751 -0.00198591 0)
(0.000481958 -0.00825737 0)
(0.00168231 -0.00844145 0)
(0.00183788 -0.0108989 0)
(0.00195548 -0.013517 0)
(-0.0011525 -0.00529494 0)
(-0.00122616 -0.00263446 0)
(-0.0012087 -0.00263776 0)
(-0.00142823 -0.00636151 0)
(-0.00214132 -0.00233292 0)
(-0.00171172 0.00302884 0)
(-0.00186836 -0.00500284 0)
(-0.00292421 -0.00147227 0)
(-0.00360119 -0.00147061 0)
(-0.00349073 -0.00140446 0)
(-0.00130868 -0.00556437 0)
(-0.000857444 -0.00613113 0)
(-0.000954301 -0.0047547 0)
(-0.0118358 -0.0172716 0)
(-0.00380492 -0.0236357 0)
(-0.00159217 -0.0381589 0)
(-0.00143486 -0.0404787 0)
(-0.00343675 -0.0377032 0)
(-0.0045189 -0.0362216 0)
(-0.00542321 -0.0389381 0)
(-0.00622044 -0.0407082 0)
(-0.00400624 -0.040634 0)
(-0.000831417 -0.043844 0)
(-0.00117777 -0.0436342 0)
(-0.0011502 -0.0414197 0)
(-0.000591282 -0.0419376 0)
(-0.000317526 -0.0430306 0)
(-0.000725715 -0.0428497 0)
(-0.000480703 -0.0416005 0)
(-0.000162031 -0.0412787 0)
(0.00014708 -0.0436593 0)
(0.000640617 -0.0439022 0)
(0.000335974 -0.0455217 0)
(-0.00024769 -0.0439624 0)
(0.00034296 -0.0432321 0)
(0.000320341 -0.0447665 0)
(-0.000406218 -0.0461039 0)
(-0.00026006 -0.0459138 0)
(9.66581e-05 -0.0444201 0)
(7.58708e-05 -0.0461771 0)
(-8.10962e-05 -0.0456824 0)
(1.51175e-05 -0.0466928 0)
(0.000300727 -0.0464537 0)
(0.000986607 -0.0477354 0)
(0.00206991 -0.0446433 0)
(0.000404641 -0.0486422 0)
(0.000217901 -0.0491357 0)
(-0.000514135 -0.0477169 0)
(-0.00131385 -0.0438886 0)
(6.10728e-05 -0.0450724 0)
(0.000494115 -0.0459479 0)
(0.000170501 -0.045977 0)
(-0.000432964 -0.0453911 0)
(-0.00082524 -0.0451483 0)
(-0.000812201 -0.0449456 0)
(-0.0003575 -0.0440988 0)
(-0.000636171 -0.0443912 0)
(8.0519e-12 -2.73852e-05 0)
(7.8404e-12 -2.73912e-05 0)
(0.00195811 -0.00391077 0)
(7.63445e-12 -2.73971e-05 0)
(9.09578e-05 -0.00335371 0)
(-2.7157e-05 -0.00222717 0)
(-0.00153816 -0.00541273 0)
(0.00177365 -0.00261257 0)
(-0.000856198 0.00278254 0)
(0.000162402 -0.00394589 0)
(-0.00118901 -0.00311504 0)
(-0.00136221 -0.000772327 0)
(8.2459e-05 -0.00174147 0)
(-3.96186e-05 -0.00213659 0)
(0.000381708 -0.00231754 0)
(0.00126461 -0.00326905 0)
(0.0019821 -0.00341136 0)
(1.67128e-05 -0.0081045 0)
(0.000336609 -0.00849756 0)
(0.000818804 -0.00244874 0)
(0.000210621 -0.00779204 0)
(0.000361841 -0.00232773 0)
(0.000118109 -0.00740202 0)
(5.33991e-05 -0.00720798 0)
(0.000840952 -0.00151514 0)
(0.0014873 -0.00511905 0)
(-0.00448879 0.00325465 0)
(0.000481248 -0.00481202 0)
(-0.00314587 0.0030638 0)
(-0.00322984 -0.00511424 0)
(-0.00359489 -0.00520955 0)
(-0.00249116 -0.00333086 0)
(0.00144119 -0.0350555 0)
(-0.00121734 -0.0409722 0)
(-0.00186724 -0.0387946 0)
(0.000161013 -0.0392882 0)
(3.80781e-05 -0.0409265 0)
(-0.000523566 -0.0425521 0)
(-0.00271791 -0.0429564 0)
(-0.00199558 -0.0416127 0)
(-0.00202755 -0.0418029 0)
(-0.000886353 -0.0432503 0)
(-0.000147276 -0.0435526 0)
(0.000339079 -0.0434502 0)
(-0.00117015 -0.0443621 0)
(-0.000432526 -0.0468681 0)
(-0.000247863 -0.0461544 0)
(1.73e-05 -0.0454896 0)
(-0.000446852 -0.0432715 0)
(0.00080869 -0.0433387 0)
(-0.000186753 -0.0445531 0)
(-0.000116189 -0.0447423 0)
(-5.53226e-05 -0.0458219 0)
(0.000215437 -0.0443953 0)
(0.000625444 -0.0432575 0)
(0.000317324 -0.0443356 0)
(-0.000111106 -0.0456354 0)
(-0.00120128 -0.0470036 0)
(0.00110241 -0.0447215 0)
(7.19954e-05 -0.0479104 0)
(-0.000838307 -0.0482154 0)
(-0.000490106 -0.0478216 0)
(0.000434637 -0.047067 0)
(-0.000135895 -0.0439479 0)
(-0.000359293 -0.0445138 0)
(-3.61217e-05 -0.0439358 0)
(-0.000267042 -0.0444885 0)
(0.000548542 -0.0448511 0)
(-0.000425234 -0.0428459 0)
(-0.000580491 -0.0419347 0)
(-0.000282181 -0.041679 0)
(-0.000982632 -0.0407893 0)
(-0.00045073 -0.0412186 0)
(-0.000226841 -0.0421427 0)
(-6.43522e-06 -0.0415255 0)
(1.48969e-11 -2.73852e-05 0)
(1.45057e-11 -2.73912e-05 0)
(0.00114052 -0.00144094 0)
(1.41247e-11 -2.73971e-05 0)
(0.00026164 -0.00203422 0)
(-0.000126153 -0.00267673 0)
(-0.00058656 -0.00709973 0)
(-0.000721523 -0.00659908 0)
(0.000232245 -0.00184697 0)
(-0.0013446 -0.00581815 0)
(0.00291204 -0.00316479 0)
(0.000927072 -0.00167678 0)
(0.00196799 -0.00402023 0)
(0.00202201 -0.00401036 0)
(0.00218423 -0.00406227 0)
(0.00205653 -0.00356644 0)
(0.00319504 -0.00491579 0)
(0.00257347 -0.00193453 0)
(0.00131892 -0.00676482 0)
(0.00193305 -0.0016187 0)
(0.0007833 -0.00683327 0)
(0.00130521 -0.00693697 0)
(0.00189224 -0.00134559 0)
(0.00206209 -0.00126076 0)
(6.88366e-05 0.00504606 0)
(-0.00141925 -0.00344157 0)
(0.00534997 -0.00175078 0)
(-0.00549938 -0.00290212 0)
(-0.00512258 -0.0056537 0)
(-0.00457298 -0.00616569 0)
(-0.00337634 0.00252764 0)
(-0.0020765 0.000823565 0)
(0.00525324 -0.0138722 0)
(-0.00605668 -0.0212425 0)
(0.000143396 -0.0388303 0)
(-0.00044383 -0.0388437 0)
(-0.00157621 -0.0416161 0)
(-0.000220352 -0.0404279 0)
(-0.000299292 -0.0420743 0)
(2.69158e-05 -0.0430644 0)
(-0.000404675 -0.0444655 0)
(-0.00102291 -0.0454489 0)
(0.000194984 -0.0441069 0)
(-0.000242101 -0.0442878 0)
(-0.000799536 -0.0443816 0)
(-0.0009115 -0.0423675 0)
(-0.000301622 -0.0397415 0)
(-0.000823405 -0.0408034 0)
(-3.06525e-05 -0.0430481 0)
(-0.000578691 -0.0422906 0)
(0.0011875 -0.041224 0)
(6.86635e-05 -0.0418876 0)
(-0.000180084 -0.0431201 0)
(-0.00029216 -0.0440509 0)
(-0.000251107 -0.0442912 0)
(-0.000300592 -0.044417 0)
(-0.00012333 -0.0457032 0)
(0.000252446 -0.0451962 0)
(0.000204697 -0.0459553 0)
(-0.000250507 -0.0461825 0)
(-0.000702917 -0.0464826 0)
(0.000676712 -0.0454076 0)
(-0.000768268 -0.0403133 0)
(4.94321e-05 -0.040965 0)
(0.000201062 -0.0418736 0)
(-0.000181867 -0.0420858 0)
(-0.00114789 -0.0400295 0)
(0.000433006 -0.0394771 0)
(-0.000626318 -0.0397975 0)
(-0.000470443 -0.0404397 0)
(0.000289691 -0.0393739 0)
(-3.68685e-05 -0.037914 0)
(-0.000501721 -0.0390809 0)
(-0.000432348 -0.0421452 0)
(1.34112e-06 -0.0404629 0)
(1.78109e-11 -2.72824e-05 0)
(1.70133e-11 -2.73005e-05 0)
(0.000152633 -0.00252286 0)
(1.62514e-11 -2.73178e-05 0)
(0.000893167 -0.00730847 0)
(-4.80986e-05 -0.00107462 0)
(0.00115406 -0.0065033 0)
(0.00303075 -0.00421654 0)
(0.00205922 -0.0011143 0)
(0.000904637 -0.00328157 0)
(0.00176329 -0.00102323 0)
(-0.000643733 -0.00230283 0)
(9.61636e-05 -0.00265666 0)
(-0.00117998 -0.00388152 0)
(-0.00068045 -0.00392931 0)
(0.000724855 -0.00530526 0)
(0.00295446 -0.00751987 0)
(0.00152567 -0.00653497 0)
(0.00176274 -0.00628452 0)
(0.00140031 -0.00560514 0)
(0.00121793 -0.00521508 0)
(0.000579129 -0.0045809 0)