/*--------------------------------*- C++ -*----------------------------------*\
  =========                 |
  \\      /  F ield         | OpenFOAM: The Open Source CFD Toolbox
   \\    /   O peration     | Website:  https://openfoam.org
    \\  /    A nd           | Version:  12
     \\/     M anipulation  |
\*---------------------------------------------------------------------------*/
FoamFile
{
    format      ascii;
    class       IOPosition;
    location    "0.4/lagrangian/cloud";
    object      positions;
}
// * * * * * * * * * * * * * * * * * * * * * * * * * * * * * * * * * * * * * //

4716
(
(2.64054e-07 0.5 0.5 6.09618e-09) 0 7376 2
(2.642e-07 0.5 0.5 5.88106e-09) 0 7376 2
(2.64339e-07 0.5 0.000214469 0.499785) 0 7376 2
(2.64472e-07 0.5 0.020661 0.479339) 0 7376 2
(0.0536557 0.473172 0.471867 0.00130473) 0 7375 1
(0.089358 0.455321 0.327505 0.127816) 0 7375 1
(0.0255761 0.487212 0.433693 0.0535192) 0 7375 1
(0.0721021 0.463949 0.251474 0.212475) 0 7375 1
(0.0899966 0.455002 0.153026 0.301976) 0 7375 1
(0.101524 0.449238 0.137165 0.312073) 0 7375 1
(0.449929 0.275035 0.182909 0.0921261) 0 0 1
(0.423856 0.288072 0.141478 0.146594) 0 0 1
(0.263226 0.368387 0.0242725 0.344114) 1 0 1
(0.566092 0.00370251 0.216954 0.213251) 1 7377 2
(0.593708 0.172111 0.203146 0.0310346) 2 7378 2
(0.353475 0.323262 0.233469 0.089793) 4 9 2
(0.663857 0.112467 0.0556044 0.168071) 5 11 1
(0.459172 0.270414 0.112957 0.157457) 6 7382 1
(0.45346 0.27327 0.0320378 0.241232) 7 12 1
(0.0934402 0.45328 0.179373 0.273907) 8 14 1
(0.462009 0.268995 0.0499979 0.218997) 9 19 2
(0.259744 0.278968 0.0911605 0.370128) 10 21 1
(0.308198 0.20024 0.145661 0.345901) 11 23 1
(0.404806 0.01337 0.297597 0.284227) 12 24 2
(0.408953 0.147346 0.148177 0.295523) 13 27 1
(0.46844 0.26578 0.115682 0.150098) 14 7390 1
(0.302461 0.34877 0.125566 0.223203) 15 28 1
(0.0150135 0.492493 0.199243 0.29325) 16 30 1
(0.273131 0.291823 0.0716112 0.363435) 17 32 2
(0.458684 0.270658 0.208413 0.0622449) 18 7394 1
(0.327324 0.336338 0.276037 0.0603007) 20 38 1
(0.29997 0.350015 0.263773 0.0862415) 21 43 2
(0.434821 0.0533438 0.229246 0.282589) 22 45 1
(0.464498 0.155731 0.267751 0.11202) 23 7399 2
(0.328469 0.335765 0.123244 0.212521) 24 49 2
(0.175595 0.148451 0.263752 0.412202) 25 48 2
(0.26449 0.223685 0.367755 0.14407) 25 50 2
(0.36311 0.284089 0.318445 0.0343553) 26 7402 2
(0.456738 0.271631 0.142578 0.129053) 27 7403 1
(0.186186 0.406907 0.333863 0.073044) 28 56 1
(0.515019 0.24249 0.196377 0.0461138) 30 7406 1
(0.316231 0.341885 0.100466 0.241418) 31 60 1
(0.106664 0.446668 0.206799 0.239869) 31 62 1
(0.391418 0.304291 0.273557 0.0307345) 32 64 1
(0.221492 0.389254 0.235418 0.153836) 33 66 1
(0.277621 0.361189 0.171852 0.189337) 35 68 1
(0.851587 0.00525088 0.0742067 0.0689558) 36 72 2
(0.453647 0.160643 0.112533 0.273177) 38 77 1
(0.549592 0.0779619 0.225204 0.147242) 39 78 2
(0.470538 0.241256 0.264731 0.0234748) 40 7416 2
(0.658846 0.170577 0.134564 0.0360125) 41 7417 1
(0.210977 0.164882 0.22963 0.394512) 43 87 1
(0.29386 0.155058 0.35307 0.198012) 119 89 1
(0.679092 0.0949309 0.160454 0.0655233) 120 91 1
(0.216316 0.0274985 0.364344 0.391842) 45 91 1
(0.695697 0.152152 0.0171478 0.135004) 121 239 1
(0.380045 0.309977 0.169322 0.140655) 46 90 1
(0.664455 0.167773 0.108021 0.0597512) 46 92 1
(0.289372 0.355314 0.226498 0.128816) 47 92 1
(0.374762 0.312619 0.230349 0.0822699) 47 94 1
(0.478924 0.260538 0.22977 0.0307682) 49 99 2
(0.272255 0.363873 0.0996976 0.264175) 51 103 2
(0.231857 0.384072 0.334514 0.049558) 52 105 2
(0.219264 0.354866 0.035502 0.390368) 53 107 1
(0.267671 0.238977 0.127188 0.366165) 54 109 1
(0.290564 0.258924 0.0957943 0.354718) 55 111 1
(0.516668 0.241666 0.160207 0.0814594) 56 113 2
(0.239742 0.380129 0.201677 0.178452) 57 112 1
(0.466083 0.266959 0.14243 0.124529) 57 114 1
(0.656056 0.171972 0.106176 0.065796) 58 7434 1
(0.104694 0.447653 0.206446 0.241207) 59 116 1
(0.235109 0.0141531 0.368293 0.382446) 59 119 1
(0.348506 0.325747 0.152288 0.173459) 60 120 1
(0.257771 0.0101216 0.371114 0.360993) 61 122 2
(0.259714 0.130406 0.239737 0.370143) 62 125 1
(2.65003e-07 0.5 5.21102e-08 0.5) 75 7451 1
(2.65066e-07 0.5 5.25335e-08 0.5) 75 7451 1
(1.78832e-07 0.5 0.0459364 0.454064) 0 7376 2
(1.82712e-07 0.233454 0.266546 0.5) 0 7376 1
(0.360639 0.0964682 0.319681 0.223212) 0 7375 2
(0.365531 0.304292 0.317234 0.0129429) 0 0 2
(0.383598 0.277583 0.308201 0.0306183) 0 0 2
(0.831148 0.0844259 0.0305357 0.0538902) 0 0 1
(0.210445 0.394777 0.336595 0.0581825) 75 1 2
(0.320099 0.250291 0.33995 0.0896596) 0 0 2
(0.0671852 0.466407 0.0701336 0.396274) 0 1 2
(0.194465 0.402767 0.380014 0.0227534) 75 149 1
(0.119445 0.440277 0.37845 0.0618274) 75 149 1
(0.143724 0.428138 0.371256 0.0568819) 75 149 1
(0.621699 0.18915 0.140373 0.048777) 1 0 1
(0.219642 0.390179 0.0836744 0.306505) 76 149 1
(0.352207 0.323897 0.144881 0.179015) 76 3 2
(0.10207 0.0181968 0.448965 0.430768) 76 3 1
(0.438254 0.280873 0.241454 0.0394189) 79 157 1
(0.178195 0.410903 0.0255645 0.385338) 81 159 1
(0.286692 0.0906087 0.356654 0.266045) 81 13 1
(0.155398 0.422301 0.0213303 0.400971) 82 15 2
(0.229248 0.226408 0.385376 0.158968) 82 163 2
(0.564 0.0906856 0.127314 0.218) 83 166 1
(0.616668 0.191666 0.0390426 0.152624) 84 168 2
(0.519683 0.240159 0.151548 0.0886101) 87 25 2
(0.131717 0.434142 0.302774 0.131368) 88 175 1
(0.190878 0.404561 0.366989 0.0375724) 89 177 1
(0.211687 0.394157 0.373228 0.020929) 90 179 1
(0.0559469 0.472027 0.391373 0.080654) 91 181 1
(0.0133703 0.493315 0.0115941 0.481721) 93 37 2
(0.0837453 0.0672048 0.390923 0.458127) 92 181 2
(0.743992 0.0542667 0.128004 0.0737375) 166 182 1
(0.138581 0.0372802 0.430709 0.393429) 92 183 2
(0.391029 0.304486 0.282884 0.0216017) 93 186 2
(0.0507943 0.172518 0.474603 0.302085) 93 185 2
(0.172326 0.413837 0.284719 0.129118) 96 191 1
(0.245703 0.377149 0.100942 0.276206) 99 195 1
(0.29372 0.201255 0.35314 0.151885) 100 51 1
(0.369087 0.315456 0.010669 0.304787) 101 199 1
(0.37937 0.179713 0.310315 0.130602) 101 53 1
(0.230838 0.384581 0.135433 0.249148) 101 201 1
(0.130112 0.102462 0.332482 0.434944) 102 201 2
(0.665562 0.0387879 0.167219 0.128431) 102 203 2
(0.785167 0.107417 0.0876011 0.0198155) 103 203 1
(0.182905 0.315086 0.408548 0.0934615) 107 65 1
(0.0223877 0.47919 0.00961575 0.488806) 34 69 1
(0.15723 0.347158 0.421385 0.0742268) 110 71 1
(0.270764 0.217409 0.364618 0.147209) 111 73 1
(0.00540629 0.497297 0.20554 0.291757) 114 225 1
(0.214679 0.392661 0.0254609 0.3672) 115 81 2
(0.19459 0.398925 0.00378007 0.402705) 114 228 1
(0.191624 0.404188 0.122765 0.281424) 115 230 2
(0.165915 0.120972 0.417043 0.296071) 115 229 2
(0.555601 0.00506561 0.222199 0.217134) 116 231 2
(0.328135 0.335933 0.284539 0.0513937) 117 234 2
(0.0691311 0.465434 0.0662226 0.399212) 193 382 1
(0.335606 0.0488999 0.332197 0.283297) 195 240 1
(0.285762 0.035309 0.357119 0.32181) 121 241 2
(0.601494 0.144077 0.0551764 0.199253) 122 241 2
(0.626451 0.186775 0.14871 0.0380651) 122 243 1
(0.415192 0.292404 0.14098 0.151424) 123 97 2
(0.924478 0.022848 0.0377611 0.0149131) 197 244 1
(0.484699 0.25765 0.174909 0.0827417) 198 246 2
(0.00120489 0.0396163 0.459781 0.499398) 123 246 1
(0.156636 0.140342 0.28134 0.421682) 124 248 1
(0.234568 0.209656 0.17306 0.382716) 125 250 1
(0.258659 0.261306 0.109365 0.370671) 126 252 1
(0.290138 0.212044 0.142887 0.354931) 127 254 1
(0.10686 0.120754 0.325816 0.44657) 130 257 2
(0.13035 0.183803 0.251022 0.434825) 131 259 2
(0.45163 0.274185 0.110882 0.163303) 132 261 1
(0.20821 0.355388 0.0405071 0.395895) 132 264 1
(0.349373 0.325313 0.120812 0.204501) 207 264 2
(0.251966 0.374017 0.0674177 0.306599) 208 266 2
(2.64054e-07 0.5 0.5 8.04472e-09) 150 7452 2
(2.64199e-07 0.5 0.5 7.65447e-09) 150 7452 2
(1.86628e-07 0.5 0.0751084 0.424891) 75 7451 2
(2.64338e-07 0.5 0.14379 0.35621) 150 7452 2
(0.245449 0.377275 0.351431 0.0258445) 75 149 1
(0.498723 0.062609 0.250639 0.18803) 75 1 1
(1.47247e-07 0.5 0.20859 0.29141) 75 7451 2
(0.528915 0.235543 0.105604 0.129938) 75 7451 2
(0.294827 0.352586 0.304556 0.0480303) 75 149 1
(0.5637 0.21815 0.0426294 0.17552) 75 7451 2
(0.259743 0.370129 0.348672 0.0214569) 75 149 1
(0.289679 0.35516 0.302723 0.052437) 75 149 1
(0.368792 0.315604 0.288074 0.02753) 75 149 1
(0.206832 0.102064 0.396584 0.29452) 150 150 1
(0.248701 0.00901468 0.37565 0.366635) 150 150 1
(0.301278 0.349361 0.307313 0.0420476) 150 298 1
(0.150701 0.42465 0.168678 0.255972) 151 298 1
(0.755728 0.0498857 0.0722503 0.122136) 76 149 2
(0.465511 0.0706114 0.196633 0.267244) 76 152 1
(0.267995 0.173673 0.19233 0.366002) 77 151 2
(0.252174 0.373913 0.218848 0.155065) 152 302 1
(0.175182 0.412409 0.389629 0.0227806) 155 160 2
(0.0510743 0.474463 0.144656 0.329807) 156 162 2
(0.178021 0.410989 0.231337 0.179652) 157 310 1
(0.387868 0.185426 0.306066 0.12064) 157 312 2
(0.218005 0.390998 0.0720192 0.318978) 159 314 1
(0.147872 0.426064 0.373116 0.0529483) 160 170 2
(0.142457 0.428772 0.373381 0.0553903) 160 318 1
(0.246193 0.120057 0.376904 0.256846) 161 172 1
(0.267889 0.349525 0.366056 0.0165305) 162 174 1
(0.302694 0.348653 0.104892 0.243761) 163 322 1
(0.246289 0.376855 0.350545 0.0263107) 238 325 2
(0.141773 0.429113 0.428781 0.000332061) 163 325 2
(0.0204187 0.130375 0.489791 0.359415) 163 324 2
(0.264311 0.320382 0.0474629 0.367845) 164 327 1
(0.261892 0.369054 0.271599 0.0974552) 165 329 2
(0.768346 0.0517039 0.115827 0.0641233) 167 184 1
(0.579022 0.047219 0.210489 0.16327) 168 186 1
(0.361859 0.260254 0.319071 0.058817) 169 188 1
(0.285509 0.357245 0.127419 0.229826) 170 190 2
(0.280343 0.359829 0.264631 0.0951976) 171 192 2
(0.245407 0.377296 0.355778 0.0215186) 172 194 2
(0.125681 0.43716 0.054861 0.382299) 173 342 1
(0.348849 0.325576 0.277819 0.047757) 174 198 2
(0.513803 0.151828 0.243099 0.0912701) 176 202 1
(0.0304127 0.484794 0.0249667 0.459827) 178 206 2
(0.230128 0.384936 0.331464 0.0534724) 104 208 2
(0.191057 0.12412 0.280351 0.404471) 105 210 1
(0.314183 0.342908 0.228863 0.114045) 108 216 2
(0.413103 0.293448 0.018635 0.274813) 109 218 2
(0.224827 0.387587 0.0999474 0.287639) 184 364 1
(0.118604 0.440698 0.379567 0.0611305) 184 366 1
(0.850129 0.0184789 0.0749355 0.0564566) 185 220 1
(0.221155 0.0988819 0.290541 0.389423) 186 368 2
(0.131304 0.261247 0.434348 0.173101) 186 370 2
(0.304036 0.115114 0.347982 0.232868) 187 372 2
(0.4102 0.0394784 0.2949 0.255422) 188 374 2
(0.31205 0.024406 0.343975 0.319569) 189 376 2
(0.413705 0.293147 0.0408844 0.252263) 192 383 2
(0.276224 0.361888 0.0970942 0.264794) 193 385 2
(0.00157692 0.239229 0.259982 0.499212) 194 384 2
(0.138201 0.0135002 0.430899 0.417399) 194 386 2
(0.411426 0.294287 0.0531496 0.241138) 269 536 2
(0.245361 0.0946282 0.282691 0.377319) 270 535 2
(0.151643 0.318643 0.105536 0.424178) 271 537 2
(0.856158 0.0719211 0.00933436 0.0625868) 272 393 2
(0.216316 0.391842 0.0767834 0.315059) 273 395 2
(0.0418036 0.479098 0.183241 0.295857) 199 397 2
(0.0138346 0.0288392 0.464243 0.493083) 199 397 1
(0.137992 0.0148613 0.416143 0.431004) 200 399 1
(0.273194 0.363403 0.0776618 0.285741) 202 403 2
(0.272587 0.363706 0.204552 0.159154) 203 405 2
(0.32049 0.339755 0.247546 0.092209) 204 407 2
(0.389952 0.305024 0.176938 0.128086) 205 409 2
(0.0867546 0.456623 0.101572 0.355051) 281 411 2
(2.64548e-07 0.5 0.5 7.10911e-09) 225 7453 2
(2.64645e-07 0.5 0.5 6.7855e-09) 225 7453 2
(1.45377e-07 0.5 0.0518663 0.448134) 150 7452 2
(2.64739e-07 0.5 0.153335 0.346665) 225 7453 2
(0.155132 0.422434 0.163667 0.258767) 150 150 2
(0.155414 0.422293 0.144566 0.277727) 150 150 2
(0.173594 0.413203 0.109704 0.303499) 150 150 2
(0.150904 0.424548 0.380699 0.0438492) 150 298 1
(0.131019 0.43449 0.379243 0.0552476) 150 298 1
(0.254297 0.275652 0.372851 0.0971999) 150 150 1
(0.176201 0.411899 0.351711 0.0601888) 150 298 1
(0.162308 0.418846 0.380104 0.038742) 150 298 1
(0.192166 0.0135404 0.403917 0.390377) 150 150 1
(0.525822 0.237089 0.140483 0.0966064) 150 298 1
(0.187882 0.406059 0.341261 0.0647976) 225 447 1
(0.241295 0.379352 0.204976 0.174377) 150 298 1
(0.264938 0.327046 0.367531 0.0404849) 150 298 2
(0.259344 0.21585 0.154478 0.370328) 151 298 2
(0.873019 0.0634904 0.0265557 0.0369347) 151 298 1
(0.280017 0.195679 0.359992 0.164313) 151 300 2
(0.17942 0.41029 0.0415419 0.368748) 227 303 2
(0.487394 0.256303 0.0561782 0.200125) 228 305 2
(0.595641 0.202179 0.164501 0.0376785) 229 456 2
(0.448832 0.108261 0.167323 0.275584) 230 458 1
(0.0405233 0.479738 0.374764 0.104975) 231 459 1
(0.186817 0.406591 0.34297 0.0636215) 233 315 2
(0.0642628 0.467869 0.120914 0.346955) 308 464 2
(0.156951 0.421525 0.138024 0.283501) 309 466 2
(0.237542 0.381229 0.355043 0.0261855) 310 468 2
(0.311435 0.0565222 0.28776 0.344282) 235 468 1
(0.110674 0.383131 0.061532 0.444663) 236 470 1
(0.157762 0.421119 0.110682 0.310437) 237 472 2
(0.0853856 0.0911939 0.366113 0.457307) 237 472 1
(0.0440593 0.395997 0.0819732 0.47797) 238 474 1
(0.154615 0.422693 0.205628 0.217064) 239 476 2
(0.134602 0.432699 0.0392697 0.393429) 240 478 2
(0.0870449 0.0757414 0.380736 0.456478) 241 477 2
(0.167072 0.416464 0.309248 0.107216) 241 479 1
(0.366819 0.00811326 0.31659 0.308477) 242 333 1
(0.361646 0.195654 0.319177 0.123523) 243 335 1
(0.330434 0.334783 0.134426 0.200356) 244 337 2
(0.257655 0.371173 0.273546 0.097626) 245 339 2
(0.179144 0.410428 0.196822 0.213606) 246 341 2
(0.0534285 0.473286 0.446048 0.0272373) 247 491 1
(0.0499488 0.475026 0.242264 0.232761) 249 347 2
(0.22039 0.389805 0.044207 0.345598) 175 349 2
(0.0633165 0.468342 0.00974679 0.458595) 251 351 2
(0.202905 0.31425 0.0842978 0.398547) 177 353 1
(0.292434 0.201891 0.151892 0.353783) 178 355 1
(0.285122 0.321199 0.0362401 0.357439) 179 357 1
(0.319057 0.202844 0.137628 0.340472) 180 359 1
(0.335031 0.0561089 0.276376 0.332485) 181 361 1
(0.0350223 0.482489 0.0171979 0.465291) 258 511 1
(0.0615867 0.469207 0.146518 0.322688) 259 513 1
(0.0130785 0.314193 0.179268 0.493461) 260 515 2
(0.0456729 0.208865 0.477164 0.268298) 260 517 2
(0.0834469 0.142515 0.458277 0.315762) 261 519 2
(0.578909 0.0663024 0.144243 0.210546) 263 521 2
(0.503607 0.0148482 0.233348 0.248197) 264 526 1
(0.81272 0.0516895 0.0936401 0.0419506) 265 527 2
(0.406271 0.039588 0.257276 0.296864) 266 530 1
(0.228751 0.150623 0.385625 0.235001) 267 531 2
(0.330582 0.334709 0.262676 0.0720329) 343 534 2
(0.189961 0.290602 0.114417 0.405019) 344 682 2
(0.351626 0.273985 0.0502022 0.324187) 345 684 2
(0.540332 0.229834 0.195798 0.0340358) 346 686 1
(0.0484526 0.0599153 0.415858 0.475774) 272 542 1
(0.38532 0.160612 0.30734 0.146728) 273 543 2
(0.159167 0.420416 0.187032 0.233384) 349 546 2
(0.153657 0.423172 0.113218 0.309953) 275 548 2
(0.212973 0.393514 0.0165668 0.376947) 276 550 2
(0.221994 0.389003 0.329162 0.0598405) 277 552 2
(0.533747 0.152755 0.080371 0.233126) 278 554 1
(0.42989 0.0873538 0.285055 0.197701) 279 555 2
(0.087885 0.456057 0.446659 0.00939856) 280 558 2
(2.64054e-07 0.5 0.5 1.11873e-08) 300 7454 2
(2.64199e-07 0.5 0.5 1.07843e-08) 300 7454 2
(2.33737e-07 0.5 0.0276156 0.472384) 225 7453 2
(2.64338e-07 0.5 0.161481 0.338519) 300 7454 2
(0.132318 0.433841 0.213625 0.220216) 225 299 2
(0.249895 0.375052 0.240782 0.13427) 225 299 2
(0.18603 0.406985 0.0206923 0.386293) 225 299 2
(0.189475 0.405263 0.0625997 0.342663) 225 299 2
(0.166779 0.416611 0.33862 0.0779903) 225 447 1
(0.0696382 0.465181 0.21982 0.245361) 150 299 2
(0.177232 0.411384 0.367813 0.0435715) 225 447 1
(0.180511 0.409745 0.35486 0.0548849) 225 447 1
(0.193182 0.403409 0.324224 0.0791856) 225 447 1
(0.370535 0.314732 0.262423 0.0523088) 225 447 1
(0.557106 0.221447 0.134371 0.0870758) 225 447 1
(0.208054 0.395973 0.0703998 0.325573) 225 447 1
(0.215102 0.392449 0.104758 0.287691) 225 447 1
(0.0399023 0.480049 0.204536 0.275513) 225 447 1
(0.472175 0.238586 0.0253266 0.263913) 226 447 2
(0.887754 0.000811642 0.0561228 0.0553112) 226 449 2
(0.052778 0.24057 0.233041 0.473611) 227 449 2
(0.0581651 0.470917 0.118251 0.352667) 228 454 2
(0.211841 0.280541 0.113538 0.394079) 304 602 2
(0.570472 0.214764 0.120652 0.0941124) 305 607 2
(0.673271 0.163364 0.158057 0.00530766) 306 609 2
(0.277216 0.361392 0.320839 0.0405534) 307 611 2
(0.0671822 0.439672 0.0267366 0.466409) 308 613 1
(0.152483 0.423758 0.10443 0.319328) 384 615 2
(0.248956 0.375522 0.31239 0.0631319) 385 617 2
(0.0999963 0.450002 0.374532 0.0754694) 385 765 1
(0.543619 0.0530847 0.228191 0.175106) 386 619 1
(0.657239 0.171381 0.0551393 0.116241) 387 621 2
(0.362993 0.318503 0.0560794 0.262424) 388 769 1
(0.0365807 0.48171 0.214913 0.266796) 388 771 1
(0.250944 0.187329 0.374528 0.187199) 389 625 1
(0.110681 0.378541 0.444659 0.0661187) 390 627 1
(0.0270602 0.261744 0.48647 0.224726) 391 629 1
(0.0124961 0.0154539 0.478298 0.493752) 318 630 2
(0.120312 0.00799568 0.431849 0.439844) 319 632 2
(0.227259 0.31703 0.38637 0.0693403) 319 486 1
(0.307238 0.346381 0.240233 0.106148) 320 488 2
(0.00892816 0.495536 0.327859 0.167677) 320 636 1
(0.16319 0.0889254 0.329479 0.418405) 246 490 1
(0.151385 0.0679309 0.356377 0.424308) 247 492 1
(0.255396 0.099897 0.272405 0.372302) 248 494 1
(0.227439 0.216614 0.169667 0.386281) 249 496 1
(0.21651 0.166891 0.224854 0.391745) 250 498 1
(0.149914 0.0314052 0.425043 0.393638) 251 499 2
(0.11381 0.0539167 0.443095 0.389178) 252 501 2
(0.305927 0.347036 0.105708 0.241328) 254 506 2
(0.330438 0.334781 0.133432 0.201348) 255 508 2
(0.294678 0.352661 0.148883 0.203778) 256 510 2
(0.209234 0.0886876 0.306695 0.395383) 257 512 1
(0.069363 0.0590367 0.465319 0.406282) 333 514 1
(0.140107 0.429946 0.00276053 0.427186) 334 664 1
(0.345949 0.105345 0.327025 0.221681) 335 666 2
(0.101274 0.190889 0.449363 0.258474) 336 668 2
(0.391139 0.0468807 0.25755 0.304431) 338 670 2
(0.36846 0.0280778 0.287692 0.31577) 339 672 2
(0.245797 0.140324 0.236777 0.377101) 340 674 2
(0.0921112 0.167902 0.286042 0.453944) 341 676 2
(0.100915 0.0152186 0.434324 0.449543) 342 678 2
(0.0848168 0.0672368 0.457592 0.390355) 417 681 1
(0.480966 0.259517 0.175861 0.0836554) 418 831 1
(0.495765 0.252117 0.172081 0.0800365) 419 833 1
(0.500208 0.249896 0.118426 0.131471) 420 835 1
(0.52482 0.23759 0.1874 0.0501902) 421 837 1
(0.222053 0.291278 0.388974 0.0976956) 422 691 1
(0.266698 0.348621 0.0180294 0.366651) 348 693 1
(0.290034 0.354983 0.283249 0.0717339) 349 695 2
(0.177571 0.411215 0.167637 0.243578) 350 697 2
(0.227469 0.386266 0.0794305 0.306835) 351 699 2
(0.393353 0.151237 0.303324 0.152087) 352 700 2
(0.410945 0.294527 0.103966 0.190562) 353 702 1
(0.444191 0.239687 0.0382178 0.277904) 354 705 1
(2.64799e-07 0.5 0.5 3.60811e-08) 375 7455 2
(2.64876e-07 0.5 0.5 3.57188e-08) 375 7455 2
(2.64471e-07 0.5 0.0415227 0.458477) 300 7454 2
(2.64951e-07 0.5 0.167269 0.332731) 375 7455 2
(0.000938244 0.499531 0.373735 0.125796) 300 448 2
(0.0962422 0.451879 0.369844 0.0820352) 300 448 2
(0.106196 0.446902 0.213782 0.23312) 300 448 2
(0.130761 0.434619 0.0984125 0.336207) 300 448 2
(0.223568 0.0719329 0.388216 0.316283) 300 448 1
(0.167756 0.296068 0.416122 0.120054) 300 448 1
(0.141484 0.429258 0.393376 0.0358816) 300 596 1
(0.469657 0.265171 0.0717012 0.19347) 300 448 2
(0.127781 0.43611 0.383847 0.0522623) 300 596 1
(0.271167 0.364416 0.324838 0.0395781) 300 596 1
(0.471146 0.264427 0.160685 0.103742) 300 596 1
(0.424039 0.287981 0.13531 0.15267) 300 596 1
(0.177806 0.411097 0.180659 0.230438) 300 596 1
(0.158591 0.420704 0.137431 0.283273) 300 596 1
(0.399868 0.300066 0.248301 0.0517645) 301 596 1
(0.870888 0.0645559 0.0275632 0.0369927) 301 450 2
(0.124043 0.338929 0.437978 0.099049) 301 598 2
(0.304488 0.212554 0.347756 0.135201) 302 600 2
(0.00773842 0.496131 0.0237496 0.472381) 378 751 1
(0.264835 0.236981 0.367583 0.130602) 379 753 2
(0.435211 0.0876831 0.282395 0.194711) 380 755 2
(0.487242 0.0676752 0.188704 0.256379) 381 758 1
(0.212412 0.302454 0.09134 0.393794) 382 760 1
(0.100141 0.449929 0.206354 0.243576) 458 762 2
(0.172967 0.413517 0.34481 0.0687062) 459 764 2
(0.185172 0.407414 0.321068 0.0863461) 460 766 2
(0.341436 0.329282 0.12051 0.208772) 461 914 1
(0.406929 0.296535 0.258238 0.0382972) 462 916 1
(0.295517 0.352241 0.212784 0.139458) 463 772 2
(0.245677 0.377162 0.264609 0.112553) 464 774 2
(0.0260153 0.0413853 0.445607 0.486992) 390 773 2
(0.111814 0.117916 0.444093 0.326176) 390 775 2
(0.355792 0.322104 0.105847 0.216258) 392 780 2
(0.0922157 0.251534 0.202358 0.453892) 393 782 1
(0.1875 0.0635196 0.34273 0.40625) 394 784 1
(0.443303 0.227067 0.278348 0.0512812) 395 785 2
(0.248018 0.115849 0.375991 0.260142) 396 639 1
(0.2088 0.12739 0.3956 0.26821) 397 641 1
(0.278496 0.267092 0.360752 0.09366) 398 643 1
(0.330557 0.334721 0.210651 0.12407) 399 645 2
(0.314658 0.063905 0.278766 0.342671) 324 645 1
(0.251594 0.140865 0.233338 0.374203) 325 647 1
(0.244946 0.224978 0.152549 0.377527) 326 649 1
(0.237084 0.336213 0.0452445 0.381458) 327 651 1
(0.278892 0.360554 0.327256 0.0332984) 328 653 2
(0.282999 0.358501 0.250962 0.107538) 329 655 2
(0.317417 0.341291 0.160052 0.18124) 330 657 2
(0.461836 0.269082 0.144569 0.124513) 331 659 2
(0.250275 0.0860668 0.374862 0.288796) 332 660 2
(0.0581017 0.101092 0.369857 0.470949) 334 662 2
(0.0145305 0.492735 0.0650869 0.427648) 409 813 1
(0.1733 0.140936 0.272414 0.41335) 411 815 2
(0.109371 0.129912 0.315402 0.445314) 412 817 2
(0.0259947 0.197944 0.487003 0.289059) 412 819 2
(0.291212 0.040173 0.354394 0.314221) 413 821 2
(0.378625 0.092016 0.218672 0.310688) 414 824 1
(0.345879 0.182264 0.144796 0.32706) 415 826 1
(0.414817 0.136044 0.156547 0.292591) 416 828 1
(0.138626 0.430687 0.00961578 0.421071) 492 830 2
(0.210458 0.394771 0.0113435 0.383428) 493 832 2
(0.444504 0.277748 0.100816 0.176931) 494 834 2
(0.618929 0.190536 0.00885808 0.181678) 495 982 1
(0.458416 0.270792 0.0672358 0.203556) 496 984 1
(0.490233 0.254884 0.247619 0.00726477) 497 840 2
(0.463785 0.24319 0.0249173 0.268107) 423 839 2
(0.301624 0.349188 0.221224 0.127963) 424 841 1
(0.154149 0.0258134 0.422925 0.397112) 424 843 2
(0.250458 0.15115 0.223621 0.374771) 425 846 1
(0.289207 0.307579 0.0478177 0.355397) 426 848 1
(0.281566 0.359217 0.278029 0.0811879) 427 850 2
(0.251158 0.374421 0.278075 0.0963465) 428 852 2
(2.6519e-07 0.5 0.5 1.21461e-08) 450 7456 2
(2.65241e-07 0.5 0.5 1.1748e-08) 450 7456 2
(0.0885399 0.45573 0.0264052 0.429325) 300 597 2
(2.6529e-07 0.5 0.137766 0.362234) 450 7456 2
(0.216714 0.391643 0.0134439 0.378199) 375 597 2
(0.25607 0.367328 0.371965 0.00463723) 375 597 1
(0.279786 0.340391 0.360107 0.0197161) 375 597 1
(0.234029 0.382985 0.042066 0.340919) 375 597 2
(1.78432e-07 0.5 0.101272 0.398728) 375 7455 2
(0.0616566 0.469172 0.186588 0.282584) 300 597 2
(0.154364 0.422818 0.344312 0.0785063) 375 745 1
(0.168057 0.415972 0.245745 0.170227) 375 745 1
(0.467696 0.0489869 0.217165 0.266152) 375 746 1
(0.191836 0.03106 0.404082 0.373022) 375 597 1
(0.206273 0.396863 0.306245 0.0906181) 375 745 1
(0.219371 0.390315 0.318283 0.0720319) 375 745 1
(0.212396 0.393802 0.217266 0.176536) 375 745 1
(0.0867438 0.456628 0.183667 0.272961) 375 745 1
(0.184212 0.374478 0.0334165 0.407894) 376 745 2
(0.853482 0.073259 0.0623168 0.0109422) 376 599 2
(0.346138 0.314631 0.326931 0.0123005) 376 747 2
(0.749412 0.121837 0.125294 0.00345762) 377 749 2
(0.419353 0.290323 0.193316 0.0970069) 378 752 2
(0.761821 0.0161037 0.102986 0.119089) 453 901 1
(0.401698 0.299151 0.0517892 0.247362) 454 903 2
(0.0388949 0.11238 0.480553 0.368173) 454 902 2
(0.198391 0.181088 0.219717 0.400805) 455 905 1
(0.278908 0.0703114 0.290235 0.360546) 456 907 1
(0.0433159 0.0374611 0.440881 0.478342) 458 908 2
(0.0195298 0.490235 0.329032 0.161203) 534 913 2
(0.237893 0.0273727 0.381054 0.353681) 535 915 1
(0.643749 0.178126 0.131307 0.0468183) 537 919 2
(0.0378122 0.120933 0.360161 0.481094) 463 921 1
(0.485294 0.0294207 0.257353 0.227932) 464 922 2
(0.954496 0.0227522 0.0216155 0.00113671) 465 925 2
(0.542616 0.228692 0.123799 0.104893) 466 924 1
(0.429658 0.285171 0.145379 0.139792) 467 926 1
(0.0866289 0.0296451 0.42704 0.456686) 468 928 2
(0.0547548 0.0714633 0.472623 0.401159) 468 930 2
(0.184639 0.0152752 0.392405 0.40768) 469 933 1
(0.206744 0.0048128 0.396628 0.391815) 470 934 2
(0.156578 0.421711 0.251679 0.170032) 472 790 2
(0.201989 0.399006 0.104467 0.294539) 473 792 2
(0.233176 0.360617 0.383412 0.0227949) 474 794 1
(0.279537 0.360231 0.297483 0.062748) 400 796 2
(0.257949 0.371026 0.317272 0.0537533) 401 798 2
(0.222973 0.388514 0.272697 0.115816) 402 800 2
(0.268149 0.365925 0.154342 0.211584) 403 802 2
(0.231802 0.384099 0.105004 0.279096) 404 804 2
(0.285726 0.357137 0.0353041 0.321833) 405 806 2
(0.0294951 0.279874 0.485252 0.205378) 405 805 2
(0.278641 0.278603 0.36068 0.0820762) 406 807 2
(0.037262 0.293531 0.187838 0.481369) 408 809 2
(0.405859 0.0997772 0.197293 0.29707) 409 811 2
(0.264529 0.367736 0.240555 0.12718) 484 962 1
(0.0664453 0.16033 0.466777 0.306447) 485 964 2
(0.248536 0.0398574 0.375732 0.335874) 486 966 2
(0.326241 0.0686555 0.268224 0.33688) 487 969 1
(0.309456 0.180178 0.165093 0.345272) 488 971 1
(0.320547 0.272884 0.066842 0.339726) 489 973 1
(0.0693166 0.465342 0.0443956 0.420946) 565 975 2
(0.123461 0.415254 0.438269 0.0230155) 566 977 1
(0.135115 0.429036 0.432442 0.00340632) 567 979 1
(0.160035 0.419982 0.0373772 0.382605) 568 981 2
(0.376639 0.31168 0.268261 0.043419) 569 983 2
(0.220231 0.389885 0.083246 0.306639) 570 1131 1
(0.40884 0.29558 0.0381857 0.257394) 571 1133 1
(0.501753 0.249123 0.164663 0.0844602) 572 989 2
(0.508943 0.245528 0.0789959 0.166532) 498 988 1
(0.218791 0.390605 0.181779 0.208826) 499 990 1
(0.122554 0.0294299 0.409293 0.438723) 499 993 1
(0.185331 0.0283987 0.378936 0.407335) 500 995 1
(0.224851 0.0709615 0.316613 0.387574) 501 997 1
(0.259448 0.0833202 0.286956 0.370276) 502 999 1
(0.352185 0.0130461 0.323907 0.310861) 503 1000 2
(2.64054e-07 0.5 0.5 1.36635e-08) 525 7457 2
(2.64199e-07 0.5 0.5 1.31897e-08) 525 7457 2
(2.65338e-07 0.5 0.0415194 0.45848) 450 7456 2
(2.64338e-07 0.5 0.0999984 0.400001) 525 7457 2
(0.393184 0.303408 0.274128 0.0292805) 450 746 2
(0.29753 0.351235 0.097681 0.253554) 450 746 2
(0.566542 0.216729 0.113235 0.103493) 375 597 2
(0.31325 0.343375 0.127259 0.216116) 450 746 2
(0.434283 0.282859 0.14937 0.133489) 450 746 2
(0.242872 0.00913099 0.378564 0.369433) 450 746 1
(0.215004 0.392498 0.359364 0.033134) 450 894 1
(0.236409 0.381796 0.2863 0.0954952) 450 894 1
(0.342 0.329 0.26881 0.0601896) 450 894 1
(0.303384 0.348308 0.312541 0.0357666) 450 894 1
(0.353933 0.323033 0.310918 0.0121152) 450 894 1
(0.296576 0.351712 0.313711 0.0380015) 450 894 1
(0.644316 0.099287 0.177842 0.0785548) 525 895 1
(0.193884 0.403058 0.373095 0.029963) 525 1043 1
(0.363567 0.318217 0.0253125 0.292904) 526 1043 1
(0.201836 0.399082 0.020145 0.378937) 451 894 1
(0.901045 0.0494776 0.0451913 0.00428624) 451 748 2
(0.128037 0.393073 0.435981 0.0429083) 451 896 2
(0.849365 0.0272267 0.048091 0.0753177) 452 899 1
(0.467008 0.266144 0.000351953 0.266496) 527 1045 2
(0.373395 0.0258981 0.313302 0.287404) 527 1047 2
(0.424803 0.287599 0.264915 0.0226834) 528 1050 2
(0.280008 0.211855 0.148141 0.359996) 529 1052 1
(0.279374 0.0650325 0.295281 0.360313) 530 1054 1
(0.26124 0.0157865 0.353593 0.36938) 531 1056 1
(0.22811 0.0422292 0.343716 0.385945) 533 1057 2
(0.30004 0.34998 0.245836 0.104145) 534 1062 2
(0.0449168 0.477542 0.000469194 0.477072) 610 1064 2
(0.127353 0.345333 0.436323 0.0909903) 611 1066 1
(0.0761616 0.0959149 0.366004 0.461919) 537 1068 1
(0.721369 0.139315 0.0158382 0.123477) 539 1072 2
(0.814473 0.0569675 0.0927634 0.0357959) 540 925 1
(0.0126227 0.493689 0.060627 0.433062) 541 1076 2
(0.20159 0.151725 0.399205 0.24748) 616 1076 1
(0.0818606 0.389402 0.0696675 0.45907) 542 1078 1
(0.230272 0.238013 0.146851 0.384864) 543 1080 1
(0.385834 0.145291 0.161792 0.307083) 545 1084 1
(0.177411 0.411294 0.3668 0.0444942) 547 939 2
(0.14545 0.292385 0.427275 0.13489) 548 941 1
(0.0927164 0.453642 0.366609 0.0870332) 550 945 2
(0.0382551 0.136112 0.480872 0.344761) 475 944 2
(0.0937034 0.0725625 0.453148 0.380586) 476 946 2
(0.0896427 0.0946033 0.455179 0.360575) 477 948 2
(0.0907984 0.086476 0.454601 0.368125) 478 950 2
(0.141109 0.190171 0.239275 0.429446) 480 952 2
(0.0300826 0.113379 0.37158 0.484959) 481 954 2
(0.479507 0.260247 0.159075 0.101171) 556 1105 1
(0.603993 0.198003 0.0411819 0.156821) 557 959 2
(0.148574 0.264129 0.161584 0.425713) 483 958 2
(0.336482 0.0819029 0.331759 0.249856) 483 960 2
(0.264196 0.367902 0.221288 0.146614) 484 963 2
(0.011628 0.494186 0.162674 0.331512) 485 965 2
(0.309291 0.345355 0.310659 0.0346953) 560 1114 2
(0.297833 0.351084 0.0817072 0.269377) 561 1116 2
(0.214936 0.0253646 0.367167 0.392532) 562 1115 2
(0.214914 0.0138463 0.378697 0.392543) 563 1117 2
(0.163878 0.418061 0.189137 0.228924) 639 1122 2
(0.206412 0.396794 0.219375 0.177419) 640 1124 2
(0.113626 0.367976 0.443187 0.0752115) 641 1126 1
(0.0334206 0.245174 0.48329 0.238116) 642 1128 1
(0.313112 0.315729 0.343444 0.0277149) 643 1130 1
(0.253798 0.373101 0.11391 0.25919) 644 1132 2
(0.35386 0.158184 0.32307 0.164886) 645 1134 1
(0.211459 0.39427 0.27682 0.11745) 646 1284 1
(0.287636 0.356182 0.271756 0.0844263) 648 1140 2
(0.0238002 0.4881 0.366193 0.121907) 574 1142 2
(0.145383 0.427309 0.382002 0.0453062) 575 1144 2
(0.21982 0.39009 0.372814 0.0172765) 576 1146 2
(0.257547 0.331511 0.0397156 0.371226) 577 1148 1
(0.299869 0.300631 0.0494345 0.350066) 578 1150 1
(0.519873 0.240063 0.127708 0.112355) 579 1003 2
(2.65004e-07 0.5 0.5 1.16564e-08) 600 7458 2
(2.65066e-07 0.5 0.5 1.12792e-08) 600 7458 2
(1.74028e-07 0.5 0.171307 0.328693) 525 7457 2
(2.65127e-07 0.5 0.0291417 0.470858) 600 7458 2
(0.0718183 0.464091 0.185195 0.278896) 525 895 2
(0.0763463 0.461827 0.203657 0.25817) 525 895 2
(0.0697132 0.465143 0.28533 0.179813) 525 895 2
(0.157773 0.421114 0.382664 0.0384493) 525 1043 1
(0.052017 0.473992 0.152021 0.32197) 525 895 2
(0.133717 0.433141 0.387654 0.045487) 525 1043 1
(0.131097 0.434452 0.382588 0.0518636) 525 1043 1