/*--------------------------------*- C++ -*----------------------------------*\
  =========                 |
  \\      /  F ield         | OpenFOAM: The Open Source CFD Toolbox
   \\    /   O peration     | Website:  https://openfoam.org
    \\  /    A nd           | Version:  12
     \\/     M anipulation  |
\*---------------------------------------------------------------------------*/
FoamFile
{
    format      ascii;
    class       vectorField;
    location    "0.4/lagrangian/cloud";
    object      U;
}
// * * * * * * * * * * * * * * * * * * * * * * * * * * * * * * * * * * * * * //


4716
(
(2.28383e-11 -5.46601e-05 0)
(2.19062e-11 -5.46902e-05 0)
(2.10121e-11 -5.47189e-05 0)
(2.01543e-11 -5.47464e-05 0)
(-0.000202557 -0.00361862 0)
(7.16288e-05 -0.00725469 0)
(0.0014432 -0.0037834 0)
(-0.000276155 -0.00694389 0)
(-0.00287997 -0.00583273 0)
(-0.000186663 -0.00871033 0)
(-0.00037468 -0.0146128 0)
(-0.000681302 -0.0133983 0)
(-0.00772966 -0.0144473 0)
(0.00744623 -0.0175061 0)
(-0.00543099 -0.0395393 0)
(0.000293548 -0.0386414 0)
(4.81989e-05 -0.0317527 0)
(-0.000136364 -0.0330988 0)
(0.00137169 -0.0329227 0)
(0.000753795 -0.0307211 0)
(0.0007679 -0.0312107 0)
(-0.000279479 -0.0315318 0)
(-0.000376239 -0.0297734 0)
(-0.00102955 -0.0285541 0)
(0.00100494 -0.0274976 0)
(-0.000803403 -0.0307914 0)
(0.000626969 -0.0301649 0)
(-0.000110521 -0.0286321 0)
(-0.000653156 -0.0291619 0)
(-0.000933691 -0.0296669 0)
(-3.12031e-05 -0.0276944 0)
(-0.000204821 -0.030171 0)
(0.000727036 -0.02795 0)
(0.000410293 -0.0298212 0)
(-0.00037065 -0.0287851 0)
(-0.000280198 -0.0289311 0)
(-0.000306476 -0.0282226 0)
(3.15219e-05 -0.0286728 0)
(-0.000174048 -0.0282976 0)
(-0.000110228 -0.0338727 0)
(-0.000924388 -0.0294986 0)
(-0.000104995 -0.0304544 0)
(0.000649841 -0.0306895 0)
(0.000442695 -0.0303594 0)
(-0.000186849 -0.0309688 0)
(-0.00120421 -0.0267147 0)
(-0.000355302 -0.0251629 0)
(0.00184446 -0.0271228 0)
(0.000876687 -0.0232966 0)
(-0.000864672 -0.0263657 0)
(-0.00193105 -0.0250168 0)
(-0.00124546 -0.0200344 0)
(-0.00147656 -0.019379 0)
(7.82088e-05 -0.0184953 0)
(0.00161134 -0.018169 0)
(0.00366946 -0.0200517 0)
(0.00149272 -0.0186062 0)
(0.00113661 -0.0173344 0)
(0.00112311 -0.02196 0)
(0.00176099 -0.0218815 0)
(0.00442363 -0.0281041 0)
(0.000369839 -0.0291151 0)
(-0.000188852 -0.0293388 0)
(0.000196012 -0.0287243 0)
(0.00100084 -0.0291217 0)
(0.000388509 -0.0277603 0)
(0.00161907 -0.0263111 0)
(-3.02047e-05 -0.0265166 0)
(0.000227596 -0.0245381 0)
(5.50736e-05 -0.0262694 0)
(0.000387934 -0.0267906 0)
(0.00105281 -0.0234312 0)
(-0.000138477 -0.0296359 0)
(-0.000754001 -0.0265711 0)
(-0.000372916 -0.0266381 0)
(8.06026e-12 -5.48118e-05 0)
(7.84109e-12 -5.48247e-05 0)
(-1.86543e-05 -3.7004e-05 0)
(-1.7871e-05 -3.7808e-05 0)
(-0.00636703 -0.0115675 0)
(-0.00183737 -0.0173907 0)
(-0.00190019 -0.0206898 0)
(-0.00111405 -0.0196371 0)
(0.00289961 -0.00537114 0)
(-0.00234613 -0.0110673 0)
(-0.00105844 -0.00415397 0)
(-0.00300201 -0.0231943 0)
(-0.00374726 -0.0105172 0)
(-0.00407911 -0.0104744 0)
(-0.00981261 -0.0117997 0)
(-0.00722778 -0.0211717 0)
(-0.00152141 -0.0283518 0)
(-0.00464937 -0.0224278 0)
(-0.00088995 -0.038869 0)
(-0.000744446 -0.0331601 0)
(-0.00100683 -0.0328007 0)
(0.000108568 -0.0318035 0)
(-0.000746594 -0.0350368 0)
(-0.000638524 -0.0374611 0)
(-0.00110886 -0.0384735 0)
(-0.00223417 -0.0316651 0)
(0.000877645 -0.0291192 0)
(0.000481864 -0.0291132 0)
(8.63555e-05 -0.0301505 0)
(-0.000115318 -0.0307312 0)
(-0.00291615 -0.0230406 0)
(-0.000573007 -0.0375323 0)
(0.000709215 -0.0448898 0)
(-0.00192715 -0.0365146 0)
(-0.00181084 -0.0336575 0)
(-0.000712567 -0.0380231 0)
(-0.000187226 -0.0346001 0)
(0.000388891 -0.031995 0)
(7.26181e-05 -0.0305765 0)
(-0.00121613 -0.0298812 0)
(-0.000671715 -0.0262556 0)
(-0.00101307 -0.0308881 0)
(0.0011992 -0.0396908 0)
(-0.00021746 -0.032426 0)
(-0.000133787 -0.0374194 0)
(0.00141423 -0.0313363 0)
(-0.00122153 -0.0260125 0)
(0.000355101 -0.0304747 0)
(-0.000280856 -0.0303325 0)
(0.00102989 -0.0268113 0)
(0.00198073 -0.0224855 0)
(-3.08825e-05 -0.0332812 0)
(0.000286096 -0.0312164 0)
(-0.00105948 -0.0269318 0)
(-0.00354734 -0.0310399 0)
(-0.00599679 -0.0331403 0)
(-0.00452529 -0.0319099 0)
(0.000984181 -0.0259673 0)
(0.00562784 -0.0111066 0)
(0.00601091 -0.0201843 0)
(0.0048486 -0.0197189 0)
(0.00256955 -0.0251973 0)
(0.00313322 -0.0322155 0)
(0.00553188 -0.0318155 0)
(0.00450708 -0.0310887 0)
(0.00235703 -0.0311615 0)
(0.000238853 -0.0362483 0)
(-0.000290856 -0.0381962 0)
(-3.95362e-05 -0.0383146 0)
(0.00170547 -0.0354468 0)
(0.00152269 -0.0343081 0)
(-0.000199415 -0.0318134 0)
(0.000848274 -0.0312978 0)
(-0.00116321 -0.0388831 0)
(0.000818598 -0.0347855 0)
(-4.23039e-11 -5.466e-05 0)
(-4.05738e-11 -5.46901e-05 0)
(5.96013e-07 -3.86426e-05 0)
(-3.89142e-11 -5.47188e-05 0)
(-0.00289066 -0.0222787 0)
(0.00204586 -0.0118668 0)
(6.68975e-06 -3.05673e-05 0)
(-0.00106247 -0.0114693 0)
(-0.00282257 -0.0111271 0)
(-0.00110995 -0.0115736 0)
(-0.00185986 -0.00894682 0)
(0.000127087 -0.00667602 0)
(-0.0017745 -0.0196352 0)
(-0.00189536 -0.0118802 0)
(-0.00204523 -0.0127364 0)
(-0.00281662 -0.0144301 0)
(-0.00106845 -0.012602 0)
(-0.0159233 -0.0198372 0)
(-0.00660183 -0.0213205 0)
(-0.00718587 -0.0419635 0)
(-0.00927803 -0.0476468 0)
(-0.00108141 -0.0425963 0)
(0.00083418 -0.0418907 0)
(-0.000653042 -0.0422043 0)
(-0.000890263 -0.0387026 0)
(-0.000317234 -0.0411464 0)
(-0.00165933 -0.0413866 0)
(-0.00105745 -0.0397439 0)
(-0.000506861 -0.037489 0)
(-0.000218567 -0.0387147 0)
(0.000254365 -0.0419002 0)
(0.003059 -0.0417581 0)
(0.00214261 -0.0430849 0)
(0.00148331 -0.0430444 0)
(0.00052358 -0.0440521 0)
(-0.000561795 -0.0475859 0)
(0.000424484 -0.0447727 0)
(0.00222853 -0.0442042 0)
(0.0014053 -0.0422417 0)
(0.000461287 -0.0449584 0)
(0.000344923 -0.0451476 0)
(0.00035672 -0.0436163 0)
(-0.000452612 -0.0447112 0)
(-0.00325281 -0.0465155 0)
(0.00216898 -0.0477499 0)
(0.000938968 -0.0417713 0)
(-0.000775619 -0.0442538 0)
(-0.000866158 -0.0450285 0)
(-0.00117336 -0.0419018 0)
(-0.00154375 -0.0386427 0)
(-0.00066169 -0.0448915 0)
(-0.000514568 -0.0436374 0)
(-0.00101219 -0.041603 0)
(0.000121196 -0.0478109 0)
(0.000170461 -0.0463099 0)
(0.000447558 -0.0439361 0)
(0.000102007 -0.0413148 0)
(0.000143161 -0.0422638 0)
(-0.00519985 -0.0405112 0)
(-0.00581833 -0.0376432 0)
(-0.00500647 -0.0382591 0)
(-0.00229265 -0.0382964 0)
(-0.00223307 -0.0484084 0)
(0.000530106 -0.0479545 0)
(0.00272591 -0.0497022 0)
(0.00833848 -0.0425148 0)
(0.00783653 -0.0365483 0)
(0.00622575 -0.0404838 0)
(0.00440126 -0.0428175 0)
(0.00178482 -0.0423882 0)
(0.000726201 -0.0442421 0)
(0.000822553 -0.0445593 0)
(0.000145758 -0.0447644 0)
(0.000294081 -0.0439837 0)
(-0.000731001 -0.0431185 0)
(-6.31534e-12 -5.4737e-05 0)
(-6.10363e-12 -5.47572e-05 0)
(2.03639e-05 -3.02035e-05 0)
(-5.899e-12 -5.47767e-05 0)
(-0.00313044 -0.00669415 0)
(-0.00342601 -0.00677983 0)
(-0.00345991 -0.00743738 0)
(-0.00329728 -0.0114278 0)
(-0.00324058 -0.0106819 0)
(-0.00422735 -0.00683375 0)
(-0.00319741 -0.00978129 0)
(-0.00281444 -0.0071251 0)
(-0.00453106 -0.00688181 0)
(-0.00272272 -0.0117244 0)
(-0.00223589 -0.0127246 0)
(-0.00325792 -0.0131151 0)
(-0.00339164 -0.0134795 0)
(0.00239152 -0.0161617 0)
(0.000620269 -0.0213585 0)
(-0.00525266 -0.0264671 0)
(-0.00669336 -0.0455838 0)
(-0.0086888 -0.0441849 0)
(-0.00237242 -0.0499509 0)
(-0.000740304 -0.0472108 0)
(0.000188562 -0.0449584 0)
(-9.74021e-05 -0.0403884 0)
(0.000315371 -0.0415298 0)
(-0.000689819 -0.0429019 0)
(-0.00105627 -0.0421692 0)
(-0.00188233 -0.041784 0)
(-0.000608456 -0.040706 0)
(0.00061683 -0.0400491 0)
(0.000843435 -0.0391922 0)
(0.00292343 -0.0384155 0)
(0.00114599 -0.0445222 0)
(0.000175264 -0.0471693 0)
(0.00014775 -0.0490425 0)
(0.000190196 -0.0509057 0)
(0.000192524 -0.0486148 0)
(0.000536012 -0.048102 0)
(-2.52453e-05 -0.0507782 0)
(0.000305475 -0.0520979 0)
(-0.000714378 -0.0524702 0)
(-0.000699611 -0.0497065 0)
(0.00218793 -0.0519945 0)
(0.000323764 -0.0519641 0)
(0.0016922 -0.0518909 0)
(0.000310014 -0.0537924 0)
(0.00162392 -0.0506127 0)
(-6.42681e-05 -0.0525012 0)
(5.82024e-05 -0.0531675 0)
(-0.000251078 -0.053578 0)
(-0.00202922 -0.0483142 0)
(-0.00384737 -0.0497122 0)
(-0.00334085 -0.0506872 0)
(-0.00205679 -0.0498178 0)
(-0.00187556 -0.0479463 0)
(-0.0014328 -0.0455523 0)
(-0.00153301 -0.0444592 0)
(-0.0032578 -0.0423257 0)
(-0.00280298 -0.0456254 0)
(-0.00613314 -0.0459366 0)
(-0.00746662 -0.0472237 0)
(-0.00348728 -0.0518675 0)
(0.00181131 -0.053257 0)
(0.000846437 -0.0532704 0)
(0.00904049 -0.044319 0)
(0.00956152 -0.0395592 0)
(0.00597957 -0.0447551 0)
(0.00304131 -0.0479923 0)
(0.00143243 -0.0473309 0)
(0.000448496 -0.0478119 0)
(0.00156479 -0.0462283 0)
(-2.24719e-05 -0.0452539 0)
(-0.000277996 -0.046316 0)
(3.46711e-11 -5.466e-05 0)
(3.32546e-11 -5.46901e-05 0)
(5.51868e-06 -4.83541e-05 0)
(3.18958e-11 -5.47188e-05 0)
(0.00286771 -0.0073274 0)
(-0.000343553 -0.00718727 0)
(-0.00324957 -0.00848804 0)
(-0.0042538 -0.00765339 0)
(-0.00176568 -0.00943094 0)
(-0.000771284 -0.00202173 0)
(-0.00232376 -0.0121517 0)
(-0.00223882 -0.00950911 0)
(-0.00201656 -0.00992816 0)
(-0.00162407 -0.0114949 0)
(-0.000560948 -0.0146406 0)
(-0.0016744 -0.00738974 0)
(-0.00156843 -0.00866113 0)
(-0.00261855 -0.0068615 0)
(-0.000674365 -0.0128873 0)
(-0.0103498 -0.0225443 0)
(-0.0050894 -0.029061 0)
(-0.00612095 -0.0452293 0)
(-0.00421407 -0.0505884 0)
(-0.00193217 -0.047702 0)
(-0.0013659 -0.0452484 0)
(-0.00330226 -0.0458508 0)
(-0.00405722 -0.042436 0)
(-0.00181861 -0.0459386 0)
(-0.00211608 -0.0452657 0)
(-0.00156812 -0.0448561 0)
(-0.00291005 -0.0426928 0)
(-0.00126158 -0.0440574 0)
(0.000482264 -0.0455455 0)
(0.00243907 -0.0415015 0)
(0.00387838 -0.0395374 0)
(0.00416847 -0.0405398 0)
(0.00401555 -0.0470404 0)
(0.00043482 -0.0497725 0)
(0.000835289 -0.0468096 0)
(-0.000242352 -0.0491654 0)
(0.000630064 -0.0518809 0)
(0.00141308 -0.0531261 0)
(0.000234084 -0.0522897 0)
(-0.000389931 -0.0513566 0)
(0.000106672 -0.0495264 0)
(0.000204415 -0.0498723 0)
(-0.000183747 -0.0522161 0)
(0.000493955 -0.0513925 0)
(0.000728897 -0.0516385 0)
(0.000856869 -0.0530461 0)
(8.8376e-05 -0.0531984 0)
(0.000250244 -0.0527067 0)
(-0.00231411 -0.0515688 0)
(-0.00306152 -0.0518554 0)
(-0.00312514 -0.0490587 0)
(-0.00242334 -0.0470358 0)
(-0.000853175 -0.0489703 0)
(-0.000139321 -0.0459779 0)
(-0.000135991 -0.0458451 0)
(-0.000939284 -0.0463663 0)
(-0.00123976 -0.0478013 0)
(-0.00409635 -0.0512219 0)
(-0.00239953 -0.053739 0)
(-0.00463071 -0.0511823 0)
(-0.00310537 -0.0524473 0)
(0.000435341 -0.0529442 0)
(0.00469971 -0.052921 0)
(0.00691622 -0.0529316 0)
(0.00490208 -0.0528811 0)
(0.00466949 -0.0471338 0)
(0.00210057 -0.0501695 0)
(0.000976527 -0.0489371 0)
(0.000578326 -0.0489227 0)
(0.000424648 -0.0447916 0)
(0.00214212 -0.0490164 0)
(-3.64859e-12 -5.4779e-05 0)
(-3.53864e-12 -5.4795e-05 0)
(3.05925e-11 -5.47464e-05 0)
(-3.43199e-12 -5.48105e-05 0)
(-0.00272173 -0.00483471 0)
(-0.00244733 -0.00508837 0)
(0.00148249 -0.00726614 0)
(0.00173049 -0.0084044 0)
(-0.000372535 -0.0122116 0)
(-0.00188876 -0.00844937 0)
(-0.00268034 -0.0131923 0)
(-0.00169258 -0.00927964 0)
(-0.00261786 -0.011367 0)
(-0.00206594 -0.0128364 0)
(-0.000881008 -0.0151346 0)
(-0.00113527 -0.0139822 0)
(-0.00256301 -0.0100954 0)
(-0.00264215 -0.00993365 0)
(-0.00383831 -0.0118428 0)
(-0.0067508 -0.0125335 0)
(-0.00500048 -0.0141914 0)
(-0.00553728 -0.0481265 0)
(-0.00595791 -0.0468838 0)
(-0.00348708 -0.0457996 0)
(-0.00450061 -0.0449969 0)
(-0.00403761 -0.0458013 0)
(-0.00404965 -0.0463564 0)
(-0.00229666 -0.0452111 0)
(-0.000729402 -0.0495655 0)
(-0.000784764 -0.0513441 0)
(-0.00108127 -0.0515901 0)
(6.28808e-05 -0.0521064 0)
(0.00337688 -0.046406 0)
(0.00423769 -0.0419314 0)
(0.00478708 -0.0417284 0)
(0.0046231 -0.0446591 0)
(0.00251253 -0.0485861 0)
(0.000301914 -0.0499403 0)
(0.00103316 -0.0488573 0)
(0.00175871 -0.0483762 0)
(0.000174041 -0.0506803 0)
(-0.000183249 -0.0501522 0)
(0.000325456 -0.0486488 0)
(5.06265e-05 -0.0488839 0)
(-0.000185867 -0.049452 0)
(0.000403545 -0.0484713 0)
(6.26749e-05 -0.0469881 0)
(0.000352371 -0.0465046 0)
(9.81239e-05 -0.047284 0)
(0.000189255 -0.0485432 0)
(0.000909 -0.0488161 0)
(0.0020394 -0.0502917 0)
(-0.00153085 -0.0505634 0)
(-0.0038939 -0.0475983 0)
(-0.0055331 -0.0461272 0)
(-0.00193294 -0.044311 0)
(-0.00172621 -0.0455241 0)
(-0.000419848 -0.0460742 0)
(-0.000325194 -0.0450852 0)
(-0.000807962 -0.0465734 0)
(-0.000906398 -0.0489278 0)
(-0.00170437 -0.0526416 0)
(-0.00138226 -0.0522619 0)
(-0.00306848 -0.051707 0)
(-0.00322147 -0.0512573 0)
(-0.0016161 -0.0525969 0)
(-0.000639469 -0.0557061 0)
(0.00328848 -0.0530948 0)
(0.00709529 -0.0543826 0)
(0.0042006 -0.0520939 0)
(0.00245068 -0.0492864 0)
(0.00144686 -0.048792 0)
(0.000388737 -0.0501341 0)
(0.000219954 -0.0516702 0)
(0.000144612 -0.0519352 0)
(2.37188e-11 -5.48418e-05 0)
(2.31372e-11 -5.48522e-05 0)
(0.000199472 -0.000270648 0)
(2.25698e-11 -5.48624e-05 0)
(-0.00463592 -0.00994032 0)
(0.0038583 -0.0103237 0)
(0.00389966 -0.0105208 0)
(-0.00534378 -0.00917223 0)
(6.12546e-06 -3.69288e-05 0)
(-0.000389914 -0.00260673 0)
(-0.001637 -0.00933777 0)
(-0.0018798 -0.00953724 0)
(-0.00151589 -0.014763 0)
(-0.00131091 -0.00759981 0)
(-0.00247228 -0.00584535 0)
(-0.0017038 -0.00615024 0)
(-0.00187932 -0.00724538 0)
(-0.00197627 -0.00400423 0)
(-0.00492046 -0.02184 0)
(-0.0057781 -0.0192471 0)
(-0.00544245 -0.0217489 0)
(-0.00618213 -0.0461299 0)
(-0.00496042 -0.0464087 0)
(-0.00222205 -0.0466167 0)
(-0.00461777 -0.0486485 0)
(-0.00540871 -0.0478241 0)
(-0.00537417 -0.0480266 0)
(-0.00235301 -0.0538738 0)
(-0.0025064 -0.0511534 0)
(-0.00298178 -0.0547821 0)
(-0.00367614 -0.0593871 0)
(-0.000939989 -0.0545321 0)
(0.00582503 -0.0458119 0)
(0.00599857 -0.0387978 0)
(0.00846849 -0.0456777 0)
(0.00216271 -0.047441 0)
(0.00168724 -0.049071 0)
(0.000250863 -0.0497068 0)
(0.00113079 -0.0487127 0)
(0.00116988 -0.0477391 0)
(0.000363925 -0.0511606 0)
(-4.85108e-05 -0.0492955 0)
(0.000144835 -0.0491514 0)
(-0.000478136 -0.0489554 0)
(-0.000163615 -0.0483184 0)
(-0.000363654 -0.0475618 0)
(-0.000514547 -0.0465479 0)
(-3.05523e-05 -0.0460132 0)
(-0.000128011 -0.0459905 0)
(-0.000148818 -0.0464577 0)
(0.00193637 -0.0460048 0)
(0.00116159 -0.0459424 0)
(-0.000656097 -0.0461751 0)
(-0.0044764 -0.0454647 0)
(-0.0063143 -0.0399835 0)
(-0.00181331 -0.04345 0)
(-0.00151337 -0.0436479 0)
(0.000153045 -0.0458671 0)
(0.000283766 -0.0470083 0)
(8.41912e-05 -0.0489607 0)
(0.000397104 -0.0499539 0)
(-0.000517113 -0.0512155 0)
(-0.00145319 -0.050987 0)
(-0.00174442 -0.05067 0)
(-0.00206 -0.050718 0)
(-0.00327495 -0.0520357 0)
(-0.000268924 -0.0545738 0)
(0.00115332 -0.0513984 0)
(0.00291189 -0.0541477 0)
(0.0025857 -0.0533687 0)
(0.00299844 -0.0509778 0)
(0.00113062 -0.0496606 0)
(0.00100924 -0.0518119 0)
(0.000178183 -0.0520384 0)
(-0.000784618 -0.0505604 0)
(2.41297e-11 -5.466e-05 0)
(2.31429e-11 -5.46901e-05 0)
(2.20163e-11 -5.48723e-05 0)
(2.21965e-11 -5.47188e-05 0)
(0.00297259 -0.0112561 0)
(0.00233051 -0.0104812 0)
(-0.00156039 -0.00976669 0)
(0.00261549 -0.00989429 0)
(0.00369811 -0.0131369 0)
(-0.0033672 -0.0133719 0)
(0.000995302 -0.00942915 0)
(-0.0025672 -0.0105737 0)
(0.00151033 -0.0101305 0)
(0.00210201 -0.0102735 0)
(0.0020906 -0.0120646 0)
(0.00204829 -0.00815583 0)
(-0.00207201 -0.0152998 0)
(-0.00244427 -0.0164951 0)
(-0.00656913 -0.00251284 0)
(-0.0143135 -0.0215059 0)
(-0.0143389 -0.026121 0)
(-0.0070196 -0.023491 0)
(-0.00313273 -0.0434664 0)
(-0.00660864 -0.0464845 0)
(-0.00541047 -0.04322 0)
(-0.00338048 -0.0474337 0)
(-0.00170538 -0.0555882 0)
(-0.00151463 -0.0575831 0)
(-0.000930726 -0.0595111 0)
(-0.000380853 -0.0619991 0)
(-0.00207844 -0.0591676 0)
(-0.00250604 -0.0616286 0)
(-0.002679 -0.0581581 0)
(-0.00131664 -0.0570887 0)
(0.00461125 -0.0516932 0)
(-9.84623e-05 -0.0451074 0)
(0.00258855 -0.0514817 0)
(0.00292282 -0.0482571 0)
(0.00100406 -0.0508594 0)
(0.0013068 -0.0515914 0)
(0.0010897 -0.0504227 0)
(0.000464709 -0.0490296 0)
(-0.000162953 -0.0490375 0)
(-0.000829287 -0.0462998 0)
(-0.00061426 -0.0474711 0)
(-0.000492633 -0.0470918 0)
(0.000163164 -0.0466272 0)
(0.000566411 -0.0465063 0)
(0.000280655 -0.0466024 0)
(-0.00192413 -0.04441 0)
(-0.00341775 -0.0409142 0)
(-0.00413091 -0.0411641 0)
(-0.00110507 -0.0422057 0)
(-0.00263746 -0.0380203 0)
(-0.00443724 -0.0385153 0)
(-0.00466258 -0.0409384 0)
(-0.00143407 -0.0444444 0)
(-0.000850184 -0.0476952 0)
(-2.08039e-05 -0.0498025 0)
(0.00044433 -0.0503541 0)
(0.000733952 -0.0506935 0)
(-0.000181242 -0.0506343 0)
(-0.00161764 -0.0522257 0)
(-0.00187257 -0.0515894 0)
(-0.00203856 -0.0509424 0)
(-0.00140099 -0.0523199 0)
(-0.00119744 -0.0534085 0)
(0.00276923 -0.0572184 0)
(0.00350915 -0.0540078 0)
(0.00202787 -0.0524071 0)
(0.00211537 -0.0518982 0)
(0.00156464 -0.0514101 0)
(0.000739426 -0.050952 0)
(0.000956501 -0.0504113 0)
(-0.00102935 -0.0512234 0)
(-1.4456e-11 -5.48118e-05 0)
(-1.40629e-11 -5.48248e-05 0)
(-1.27281e-05 -3.61317e-05 0)
(-1.36804e-11 -5.48373e-05 0)
(-0.000237582 -0.00979078 0)
(-0.000945279 -0.00564321 0)
(-0.00173126 -0.00415135 0)
(-0.00031421 -0.0127702 0)
(-0.00360689 -0.00564777 0)
(-0.000668823 -0.0114861 0)
(-0.000163205 -0.0107164 0)
(-0.00195714 -0.0122759 0)
(-0.00159402 -0.0170386 0)
(-0.00193219 -0.0118539 0)
(-8.8476e-05 -0.00878819 0)
(0.000190122 -0.0140847 0)
(-0.0104783 -0.0133318 0)
(0.00142175 -0.00950431 0)
(-0.000111423 -0.00936971 0)
(-0.0014432 -0.0128766 0)
(-0.00155199 -0.0178479 0)
(-0.00143371 -0.0102088 0)
(-0.00953565 0.00160995 0)
(-0.0271899 -0.0152654 0)
(-0.00327452 -0.0307874 0)
(-0.00305809 -0.0504933 0)
(-0.00212772 -0.0531172 0)
(-0.00150295 -0.0540988 0)
(-0.000742311 -0.0544568 0)
(-0.000315668 -0.0566361 0)
(-0.000387401 -0.0584664 0)
(-0.000190993 -0.0586355 0)
(-0.000276467 -0.059632 0)
(-0.00254166 -0.0580165 0)
(-0.002515 -0.0569877 0)
(-0.000586615 -0.0558633 0)
(0.00318079 -0.0555287 0)
(0.00287096 -0.050961 0)
(0.000597371 -0.0498572 0)
(0.001307 -0.0512827 0)
(0.000678533 -0.0512617 0)
(0.000266248 -0.0508602 0)
(-0.00123955 -0.0478382 0)
(0.000128404 -0.0445786 0)
(-0.000617173 -0.0462915 0)
(-0.000285734 -0.0469506 0)
(0.000316867 -0.0456941 0)
(0.000215694 -0.0448784 0)
(0.000953688 -0.044411 0)
(-0.00198834 -0.0423735 0)
(0.000398892 -0.0427382 0)
(-0.00131748 -0.0416736 0)
(-0.000389967 -0.0423825 0)
(-0.00043432 -0.0437878 0)
(-0.000490256 -0.0446727 0)
(-0.000979899 -0.0514765 0)
(-0.000257798 -0.0492081 0)
(0.000522571 -0.0489766 0)
(0.00063416 -0.049907 0)
(-5.69241e-05 -0.0500215 0)
(0.000148793 -0.0496955 0)
(0.000237398 -0.0502822 0)
(-0.000223649 -0.0495373 0)
(8.30947e-05 -0.0482975 0)
(-0.000310045 -0.0485449 0)
(0.000252208 -0.051511 0)
(0.00139209 -0.0539154 0)
(-0.001082 -0.0559616 0)
(7.62322e-05 -0.0533304 0)
(0.00197691 -0.0522663 0)
(0.00130766 -0.0510894 0)
(0.000556962 -0.0503579 0)
(0.000393058 -0.050475 0)
(-0.00206548 -0.0490154 0)
(-0.000583086 -0.048597 0)
(6.17543e-12 -5.47036e-05 0)
(5.94707e-12 -5.47279e-05 0)
(2.93478e-06 -2.61803e-05 0)
(5.72715e-12 -5.47514e-05 0)
(-0.00120097 -0.0102869 0)
(0.000197213 -9.01772e-05 0)
(2.31135e-05 -0.00833894 0)
(0.000408013 -0.000987047 0)
(0.00898911 -0.015066 0)
(0.00397557 -0.00952314 0)
(0.00218364 -0.00645418 0)
(0.00276883 -0.0143629 0)
(-0.000814702 -0.0125946 0)
(-0.0097208 -0.0100373 0)
(-0.00297297 -0.013982 0)
(-0.00126383 -0.0159559 0)
(-0.00127718 -0.0137445 0)
(-0.00136893 -0.015746 0)
(-0.00311052 -0.0102454 0)
(-0.00152877 -0.0093713 0)
(-0.00108483 -0.0141558 0)
(-0.00437354 -0.016938 0)
(-0.00804039 -0.0164003 0)
(-0.0032696 -0.0158635 0)
(-0.00206878 -0.0508319 0)
(-0.00135887 -0.050118 0)
(-0.000790775 -0.0514672 0)
(-0.000314181 -0.0523989 0)
(-0.000286741 -0.0531634 0)
(-0.000444352 -0.0533368 0)
(-0.000363211 -0.0526507 0)
(-0.000718191 -0.0505591 0)
(-0.000201344 -0.0519627 0)
(0.000231024 -0.0532794 0)
(-0.0033178 -0.0569868 0)
(-0.00250337 -0.0582752 0)
(0.00130828 -0.055992 0)
(0.00207334 -0.0519615 0)
(0.000187147 -0.05109 0)
(0.000394379 -0.0500869 0)
(-0.000128821 -0.0506713 0)
(5.03321e-05 -0.0507593 0)
(-0.000221628 -0.0495188 0)
(0.000135363 -0.0485192 0)
(6.3412e-05 -0.0469725 0)
(-0.00327161 -0.0465178 0)
(-0.000879667 -0.0500302 0)
(-0.00114899 -0.0500998 0)
(-0.00153463 -0.0477096 0)
(0.00138644 -0.0470644 0)
(0.00037785 -0.0476151 0)
(8.31357e-05 -0.0485615 0)
(0.000978169 -0.0472776 0)
(0.000971326 -0.0487747 0)
(-0.000899684 -0.0532966 0)
(-0.000320343 -0.0521614 0)
(-0.000118317 -0.0493815 0)
(0.000139336 -0.0498409 0)
(0.000311309 -0.0514224 0)
(-0.000248202 -0.0511961 0)
(-0.000334337 -0.0509608 0)
(-0.000454257 -0.0511458 0)
(-0.00171953 -0.0519387 0)
(-0.000572923 -0.0496808 0)
(6.04766e-05 -0.0504597 0)
(0.0014603 -0.0518709 0)
(0.00245181 -0.0565463 0)
(0.00212629 -0.0538576 0)
(0.00301777 -0.0516987 0)
(0.00234311 -0.0525691 0)
(0.000879557 -0.0504792 0)
(0.00108335 -0.0492756 0)
(0.000908287 -0.0491032 0)
(0.00156378 -0.0495916 0)
(-0.000150586 -0.0502989 0)
(2.42346e-11 -5.466e-05 0)
(2.32437e-11 -5.469e-05 0)
(-0.00097397 -0.00675877 0)
(2.22933e-11 -5.47188e-05 0)
(-0.000145645 0.000532489 0)
(0.00376031 -0.00968731 0)
(-0.00241326 -0.00875731 0)
(0.00222271 -0.00153563 0)
(-0.00349739 -0.00390823 0)
(-0.00389769 -0.00856803 0)
(-0.00154575 -0.0113823 0)
(-0.0034854 -0.00955244 0)
(-0.000227034 -0.0115877 0)
(-0.00286892 -0.0120348 0)
(-0.00120359 -0.0168496 0)
(-0.0011563 -0.0165433 0)
(-0.00021362 -0.0144398 0)
(-0.000297189 -0.0126114 0)
(-0.000786304 -0.0186624 0)
(-0.0031575 -0.0233109 0)
(-0.010483 -0.0196876 0)
(-0.00271357 -0.0229798 0)
(-0.00288295 -0.0501165 0)
(-0.00138839 -0.0488522 0)
(-0.000568016 -0.0478669 0)
(0.000457868 -0.0500612 0)
(-3.40771e-05 -0.048949 0)
(-0.000229749 -0.0484975 0)
(-0.0001464 -0.0478749 0)
(-0.00135392 -0.0455084 0)
(-0.00280434 -0.047338 0)
(-0.00137807 -0.049333 0)
(-0.00123209 -0.046656 0)
(-0.000290864 -0.0506796 0)
(-0.000365328 -0.0529353 0)
(-0.000451134 -0.0536985 0)
(0.00116037 -0.0520994 0)
(0.000386958 -0.0502479 0)
(0.000512378 -0.0506907 0)
(0.000748598 -0.0497328 0)
(0.000537892 -0.0497044 0)
(0.000251271 -0.0478283 0)
(0.00039872 -0.0460694 0)
(7.12295e-06 -0.0463575 0)
(0.00130346 -0.0460449 0)
(-0.000515449 -0.0461976 0)
(-0.00149355 -0.0482992 0)
(-0.000148213 -0.0493829 0)
(-0.000738052 -0.05086 0)
(0.000382536 -0.0510219 0)
(0.000618172 -0.0528227 0)
(0.000557731 -0.0526754 0)
(0.000158179 -0.0526682 0)
(0.000113532 -0.0525201 0)
(0.000263828 -0.0535395 0)
(-5.41629e-05 -0.05404 0)
(0.000168525 -0.0522538 0)
(-0.000230514 -0.0515466 0)
(8.10762e-05 -0.0534572 0)
(-0.00066752 -0.0539676 0)
(-0.000713535 -0.0542106 0)
(0.000294614 -0.0525185 0)
(0.000270049 -0.0537283 0)
(0.00147687 -0.0558963 0)
(0.00308879 -0.0541013 0)
(0.00109222 -0.055971 0)
(0.00168083 -0.0557097 0)
(0.000810088 -0.0549956 0)
(0.00204834 -0.055147 0)
(0.00239455 -0.0522423 0)
(0.000492903 -0.0503079 0)
(0.000553103 -0.0478301 0)
(0.000493292 -0.046705 0)
(3.11718e-05 -0.0480772 0)
(8.39703e-05 -0.0491528 0)
(3.64815e-11 -5.47431e-05 0)
(3.52621e-11 -5.47628e-05 0)
(-0.000416262 0.000675632 0)
(3.40833e-11 -5.47819e-05 0)
(-0.000403445 0.00051967 0)
(-0.00132166 -0.00398999 0)
(0.0040116 -0.00866208 0)
(0.000921217 -0.00913729 0)
(0.00393426 -0.00695775 0)
(0.00419349 -0.00652906 0)
(0.000239713 -0.0143967 0)
(0.00753394 -0.0148992 0)
(0.00139821 -0.0148375 0)
(-1.6979e-05 -0.0148783 0)
(0.00187781 -0.0207503 0)
(-0.000175819 -0.0131033 0)
(0.000168195 -0.0129861 0)
(0.000167022 -0.0101762 0)
(-0.00403896 0.00650997 0)
(-0.00377232 -0.00391827 0)
(-0.0105676 -0.0146975 0)
(-0.00256838 -0.0481856 0)
(-0.000626153 -0.048193 0)
(-0.000940991 -0.0485764 0)
(-0.000830615 -0.047961 0)
(0.00194595 -0.0468712 0)
(8.73248e-05 -0.0464315 0)
(-0.000295398 -0.046538 0)
(-0.000511004 -0.0468289 0)
(-0.000452292 -0.0454925 0)
(-0.000664377 -0.0455717 0)
(-0.000789074 -0.0482547 0)
(-0.0014161 -0.0492153 0)
(-0.000176615 -0.0502902 0)
(-6.6901e-05 -0.0505731 0)
(-0.00027516 -0.0498918 0)
(-0.000524221 -0.0489152 0)
(-0.000368993 -0.0480281 0)
(0.00019845 -0.0478615 0)
(0.000469007 -0.0477303 0)
(-0.000710937 -0.0498816 0)
(0.00143493 -0.0475338 0)
(0.000106255 -0.0484907 0)
(0.000655423 -0.0489122 0)
(-4.32265e-05 -0.048085 0)
(-0.00138694 -0.0475122 0)
(-0.000741041 -0.0493337 0)
(-0.000863667 -0.0505866 0)
(-0.000380548 -0.0518719 0)
(-0.000223601 -0.0525542 0)
(0.000832032 -0.0523061 0)
(-0.000198041 -0.0527894 0)
(0.000143943 -0.0532239 0)
(0.000380075 -0.0519534 0)
(0.000956038 -0.0516528 0)
(0.000164526 -0.052024 0)
(-0.000446134 -0.0528467 0)
(-0.000462823 -0.0524107 0)
(-0.000349528 -0.0534337 0)
(-0.000699823 -0.0525192 0)
(-0.00140598 -0.0553893 0)
(-0.000330731 -0.0543792 0)
(0.00166441 -0.0546821 0)
(0.000391089 -0.0576721 0)
(0.00135834 -0.0563646 0)
(0.00104384 -0.0554873 0)
(0.000523568 -0.0517877 0)
(5.41468e-05 -0.0531144 0)
(0.000543201 -0.052867 0)
(0.00120413 -0.0515642 0)
(0.000558149 -0.0487876 0)
(0.000579129 -0.0467537 0)
(0.00057273 -0.0464283 0)
(-0.000153589 -0.0464639 0)
(-0.00075216 -0.046715 0)
(-2.698e-11 -5.47035e-05 0)
(-2.59844e-11 -5.47279e-05 0)
(0.000130531 -0.00703207 0)
(-2.50254e-11 -5.47513e-05 0)
(0.00103433 0.000421646 0)
(-1.0051e-05 -1.17922e-05 0)
(-1.04507e-05 -0.0106185 0)
(0.000210392 -0.00745678 0)
(7.66226e-05 -0.00995214 0)
(6.97348e-06 -0.00355658 0)
(8.8466e-05 -0.0115733 0)
(6.47166e-05 -0.0140904 0)
(-0.000703889 -0.00522369 0)
(-0.00104774 -0.0107564 0)
(-0.00124238 -0.0111336 0)
(-0.00162296 -0.0105245 0)
(-0.00224304 -0.0100238 0)
(-0.00166188 -0.00904316 0)
(-0.00107496 0.00738196 0)
(-0.00331958 -0.016445 0)
(-0.00312283 -0.0201062 0)
(-0.00150526 -0.048701 0)
(-0.000661261 -0.0486502 0)
(-0.000442161 -0.0480374 0)
(-5.15635e-05 -0.0476346 0)
(-0.000278742 -0.0470732 0)
(-0.000106656 -0.0477802 0)
(-0.000299261 -0.0470947 0)
(-0.000372127 -0.0462425 0)
(-0.00128663 -0.0471349 0)
(-0.000551758 -0.0482437 0)
(-0.000694327 -0.0490616 0)
(-0.00174718 -0.0483203 0)
(-0.000637153 -0.0483937 0)
(-0.00014471 -0.0475342 0)
(0.000280389 -0.0482979 0)
(-0.000340447 -0.0466113 0)
(0.000613849 -0.0455493 0)
(-0.000587674 -0.0485372 0)
(-0.000981094 -0.0496095 0)
(5.23149e-05 -0.0499101 0)
(0.000878233 -0.0476177 0)
(-9.56625e-05 -0.0475019 0)
(0.00108014 -0.0498118 0)
(0.000469219 -0.0494235 0)
(0.000355976 -0.0507366 0)
(-0.000651236 -0.050631 0)
(-0.00054572 -0.0515497 0)
(-0.000669312 -0.0512777 0)
(-0.0010831 -0.0503894 0)
(0.000444028 -0.0507625 0)
(0.000130955 -0.0511747 0)
(-2.25751e-05 -0.0519592 0)
(-0.000152886 -0.052032 0)
(0.00030189 -0.0521643 0)
(0.000223611 -0.0515537 0)
(-4.44839e-05 -0.0505066 0)
(-0.000232792 -0.0509318 0)
(-0.00115969 -0.0522073 0)
(-0.00370185 -0.055331 0)
(-0.00145522 -0.058155 0)
(0.000577057 -0.0579539 0)
(0.000352244 -0.0559278 0)
(-0.000705705 -0.0544175 0)
(8.22402e-05 -0.0554939 0)
(0.000363644 -0.0519819 0)
(0.000770917 -0.0506339 0)
(0.000479846 -0.048042 0)
(0.00102251 -0.0482435 0)
(0.000518581 -0.0480329 0)
(0.00029876 -0.0478337 0)
(0.00017096 -0.0474171 0)
(-2.56359e-07 -0.0475284 0)
(-0.000303424 -0.0481335 0)
(-0.00103104 -0.0488245 0)
(-3.6426e-11 -5.47413e-05 0)
(-3.55325e-11 -5.47517e-05 0)
(-0.000579852 -0.00323977 0)
(-3.4661e-11 -5.47621e-05 0)
(-3.52131e-06 -4.97124e-06 0)
(-0.00134769 -0.008977 0)
(-0.000773496 -0.00506528 0)
(-0.000781677 -0.00481559 0)
(-0.0013935 -0.00636003 0)
(0.000194202 -0.0112717 0)
(-0.00067549 -0.00693524 0)
(-0.00479084 -0.00858466 0)
(-0.00313403 -0.0249709 0)
(-0.00186426 -0.0116729 0)
(-0.0019271 -0.0129632 0)
(-0.00240531 -0.0078196 0)
(-0.0023604 -0.00753076 0)
(-0.00242484 -0.00683179 0)
(-0.00180495 -0.00373729 0)
(-0.000632135 0.00936724 0)
(-0.00331171 -0.02134 0)
(-0.014437 -0.0265104 0)
(-0.000534328 -0.0517027 0)
(-0.00106183 -0.049299 0)
(-0.000470297 -0.0500754 0)
(0.000317018 -0.0475366 0)
(-0.000443145 -0.0478634 0)
(-0.00097637 -0.050032 0)
(-0.00109046 -0.0499166 0)
(-0.00019668 -0.0499364 0)
(0.000730038 -0.0506825 0)
(-0.0013597 -0.0509211 0)
(-0.0022457 -0.0523424 0)
(0.00227459 -0.0513595 0)
(-0.00182421 -0.0488123 0)
(-0.000681918 -0.0481566 0)
(0.000782245 -0.0510161 0)
(-0.000348811 -0.0504866 0)
(0.000147462 -0.0512845 0)
(0.000143588 -0.05099 0)
(4.91073e-05 -0.0518178 0)
(0.0012119 -0.0506699 0)
(0.000592283 -0.0487303 0)
(0.000921539 -0.0525216 0)
(-0.000667793 -0.0517308 0)
(-0.000599344 -0.0501342 0)
(-0.000636678 -0.0498392 0)
(0.000150964 -0.0504456 0)
(-0.000597679 -0.0499612 0)
(-0.0010487 -0.0506785 0)
(0.000317447 -0.0490177 0)
(0.000553133 -0.0497675 0)
(0.000410795 -0.0503306 0)
(-0.000426004 -0.0518163 0)
(-0.000442244 -0.0517848 0)
(-0.000432901 -0.0514213 0)
(-0.00030066 -0.0525762 0)
(0.00111063 -0.0526853 0)
(-0.000347016 -0.0540984 0)
(-0.000251233 -0.0542679 0)
(-0.000229891 -0.0556414 0)
(7.3042e-05 -0.0540781 0)
(-0.00102744 -0.0503636 0)
(-0.000103819 -0.0513724 0)
(0.000160581 -0.0508386 0)
(0.000459451 -0.0507993 0)
(0.000625559 -0.0488487 0)
(0.00238815 -0.0451039 0)
(0.000305656 -0.0465099 0)
(0.000507129 -0.047279 0)
(0.000391367 -0.0480013 0)
(-8.16195e-05 -0.0488285 0)
(-0.000118348 -0.0500717 0)
(0.000198097 -0.048367 0)
(-0.000373946 -0.0478318 0)
(-1.23176e-11 -5.46038e-05 0)
(-1.1763e-11 -5.46417e-05 0)
(1.11262e-05 -7.46913e-06 0)
(-1.12334e-11 -5.46778e-05 0)
(-0.00321161 -0.0165838 0)
(-0.000317183 0.0024311 0)
(-0.00240495 -0.00629938 0)
(0.000163607 -0.00753631 0)
(-0.00373007 -0.00672192 0)
(0.00147421 -0.00645971 0)
(-0.00322366 -0.0209754 0)
(-0.00290639 -0.0149932 0)
(-0.00307838 -0.0133787 0)
(-0.00315329 -0.0126066 0)
(-0.00232406 -0.0114566 0)
(-0.00149803 -0.0103999 0)
(-0.00110447 -0.0104909 0)
(-0.00100543 -0.0106182 0)
(-0.000918842 -0.0152683 0)
(-0.000973502 -0.00939044 0)
(0.000682084 -0.0166136 0)
(-0.0183357 -0.0127922 0)
(-0.00178783 -0.0301351 0)
(-0.00131526 -0.0512572 0)
(-0.00103703 -0.0498774 0)
(-0.000169192 -0.0503817 0)
(2.29451e-06 -0.0502578 0)
(0.000102723 -0.0525153 0)
(-0.000335076 -0.0491092 0)
(2.15824e-05 -0.0503545 0)
(-0.000553245 -0.0503019 0)
(-0.000854079 -0.0504643 0)
(-0.000739045 -0.0513324 0)
(0.00291233 -0.0514636 0)
(0.00157069 -0.0529298 0)