/*--------------------------------*- C++ -*----------------------------------*\
  =========                 |
  \\      /  F ield         | OpenFOAM: The Open Source CFD Toolbox
   \\    /   O peration     | Website:  https://openfoam.org
    \\  /    A nd           | Version:  12
     \\/     M anipulation  |
\*---------------------------------------------------------------------------*/
FoamFile
{
    format      ascii;
    class       volVectorField::Internal;
    location    "0.45";
    object      cloud:UTrans;
}
// * * * * * * * * * * * * * * * * * * * * * * * * * * * * * * * * * * * * * //

dimensions      [1 1 -1 0 0 0 0];

value           nonuniform List<vector> 
3750
(
(5.94089e-11 -1.91427e-09 0)
(5.95642e-11 -1.89866e-09 0)
(0 0 0)
(3.27077e-12 -1.96105e-09 0)
(2.15686e-11 -2.00174e-09 0)
(5.35168e-11 -2.14836e-09 0)
(4.14801e-11 -2.24752e-09 0)
(-2.38966e-11 -2.199e-09 0)
(-2.94032e-12 -2.04697e-09 0)
(-4.56699e-11 -2.00087e-09 0)
(2.89223e-11 -2.02958e-09 0)
(-1.3082e-12 -4.67464e-09 0)
(1.2381e-10 -2.00492e-09 0)
(2.5121e-11 -2.00662e-09 0)
(6.87048e-11 -2.29031e-09 0)
(-6.26038e-12 -2.06657e-09 0)
(-3.99788e-11 -4.79e-09 0)
(7.95907e-11 -1.70289e-09 0)
(4.31061e-12 -1.81178e-09 0)
(-1.35672e-11 -1.94874e-09 0)
(3.60375e-11 -2.03141e-09 0)
(-5.69246e-11 -2.29233e-09 0)
(-5.51106e-11 -2.20924e-09 0)
(-1.84201e-12 -2.11086e-09 0)
(-1.36969e-11 -2.17643e-09 0)
(-4.24746e-11 -2.08511e-09 0)
(-1.16526e-10 -4.26027e-09 0)
(5.27725e-11 -1.75565e-09 0)
(-3.49111e-11 -2.0468e-09 0)
(2.59115e-11 -2.02118e-09 0)
(3.75151e-11 -2.07126e-09 0)
(7.95065e-12 -2.09704e-09 0)
(0 0 0)
(-2.47294e-11 -1.82382e-09 0)
(5.9538e-11 -2.30575e-09 0)
(-7.61124e-11 -2.26282e-09 0)
(-8.18358e-11 -2.19821e-09 0)
(1.52134e-11 -2.41196e-09 0)
(1.48307e-11 -2.1073e-09 0)
(2.69299e-11 -4.46632e-09 0)
(-6.74138e-12 -2.10827e-09 0)
(0 0 0)
(6.7922e-12 -2.20654e-09 0)
(-1.48179e-10 -3.5703e-09 0)
(-6.8556e-12 -4.29461e-10 0)
(1.54858e-10 -5.05817e-09 0)
(2.33733e-11 -2.08892e-09 0)
(1.21342e-10 -1.88599e-09 0)
(-1.70295e-10 -2.89786e-09 0)
(-1.49969e-10 -4.08992e-09 0)
(7.07032e-11 -2.07019e-09 0)
(6.21926e-11 -1.85749e-09 0)
(8.85064e-11 -2.00562e-09 0)
(0 0 0)
(-1.4552e-11 -1.99866e-09 0)
(-1.31545e-11 -2.17426e-09 0)
(-1.40873e-11 -2.03593e-09 0)
(-5.60059e-11 -2.49662e-09 0)
(9.69688e-11 -2.04068e-09 0)
(-2.01923e-12 -1.87394e-09 0)
(0 0 0)
(0 0 0)
(0 0 0)
(0 0 0)
(0 0 0)
(0 0 0)
(0 0 0)
(0 0 0)
(0 0 0)
(0 0 0)
(0 0 0)
(0 0 0)
(0 0 0)
(0 0 0)
(0 0 0)
(-1.2136e-10 -6.44326e-09 0)
(-1.01915e-10 -4.76943e-09 0)
(1.21207e-11 -1.86038e-09 0)
(5.37312e-11 -1.85131e-09 0)
(0 0 0)
(1.13952e-10 -2.03362e-09 0)
(0 0 0)
(-3.66547e-11 -2.24288e-09 0)
(7.31569e-12 -2.01058e-09 0)
(-2.98626e-11 -1.90364e-09 0)
(-1.91406e-10 -5.19036e-09 0)
(-1.30427e-11 -2.13902e-09 0)
(0 0 0)
(0 0 0)
(0 0 0)
(2.01053e-11 -2.12868e-09 0)
(4.56836e-11 -1.51142e-09 0)
(-3.06776e-11 -4.14318e-09 0)
(3.2565e-11 -1.74076e-09 0)
(-2.46825e-10 -4.3686e-09 0)
(-2.19841e-10 -4.55703e-09 0)
(3.21659e-11 -1.89585e-09 0)
(3.28371e-11 -2.03295e-09 0)
(6.08093e-11 -2.12972e-09 0)
(0 0 0)
(0 0 0)
(-6.65658e-11 -1.80904e-09 0)
(3.19226e-11 -1.82902e-09 0)
(6.88394e-11 -1.81621e-09 0)
(4.38881e-11 -2.14273e-09 0)
(-1.31321e-11 -2.33342e-09 0)
(0 0 0)
(1.69263e-10 -6.65711e-09 0)
(-1.30582e-11 -1.69263e-09 0)
(0 0 0)
(0 0 0)
(-3.17491e-10 -2.0997e-09 0)
(-1.05256e-10 -4.30323e-09 0)
(-1.98565e-10 -4.09818e-09 0)
(1.24907e-11 -3.99442e-09 0)
(-2.49308e-11 -1.88422e-09 0)
(7.48712e-11 -1.82349e-09 0)
(-1.40792e-11 -1.9699e-09 0)
(0 0 0)
(0 0 0)
(-9.11357e-11 -2.52742e-09 0)
(-3.17676e-11 -2.07641e-09 0)
(2.59212e-11 -1.98072e-09 0)
(0 0 0)
(-2.90432e-11 -1.9945e-09 0)
(5.49471e-11 -2.14705e-09 0)
(3.3528e-11 -1.96451e-09 0)
(-8.6259e-11 -1.80351e-09 0)
(3.87855e-11 -1.94587e-09 0)
(-2.77162e-11 -1.85016e-09 0)
(0 0 0)
(0 0 0)
(0 0 0)
(0 0 0)
(0 0 0)
(0 0 0)
(0 0 0)
(0 0 0)
(0 0 0)
(0 0 0)
(0 0 0)
(0 0 0)
(0 0 0)
(0 0 0)
(0 0 0)
(0 0 0)
(0 0 0)
(0 0 0)
(0 0 0)
(0 0 0)
(-1.56086e-10 -1.83646e-09 0)
(-1.71519e-10 -1.95796e-09 0)
(4.30138e-11 -2.0312e-09 0)
(5.82755e-11 -3.33484e-09 0)
(3.82229e-11 -2.30115e-09 0)
(-2.06634e-11 -1.76736e-09 0)
(1.16536e-11 -2.43507e-09 0)
(0 0 0)
(-3.46224e-11 -4.44372e-09 0)
(1.53308e-11 -1.75058e-09 0)
(0 0 0)
(1.67498e-12 -2.22397e-09 0)
(2.07071e-10 -1.78518e-09 0)
(3.41403e-12 -1.87996e-09 0)
(-4.09719e-11 -7.63777e-09 0)
(2.04807e-11 -1.15527e-09 0)
(3.62669e-12 -1.94049e-10 0)
(-7.534e-11 -2.05685e-09 0)
(-1.16571e-10 -2.0162e-09 0)
(-1.459e-10 -4.26276e-09 0)
(-1.36333e-10 -2.03427e-09 0)
(2.83499e-11 -2.12783e-09 0)
(0 0 0)
(8.0619e-11 -2.11282e-09 0)
(5.34984e-11 -2.09687e-09 0)
(-5.43014e-11 -2.04743e-09 0)
(-5.26322e-11 -1.92063e-09 0)
(-3.78297e-13 -1.82532e-09 0)
(1.68485e-11 -1.91824e-09 0)
(-3.81474e-10 -4.92245e-09 0)
(-7.40913e-11 -1.74647e-09 0)
(-4.51631e-11 -2.00897e-09 0)
(-9.70657e-11 -4.19421e-09 0)
(-5.98598e-11 -1.90024e-09 0)
(-1.14826e-10 -5.0445e-09 0)
(5.02901e-11 -2.31221e-09 0)
(0 0 0)
(-2.52848e-11 -2.19624e-09 0)
(-4.71279e-11 -2.073e-09 0)
(2.86079e-11 -2.04069e-09 0)
(3.71431e-11 -2.12982e-09 0)
(3.29785e-11 -2.2171e-09 0)
(-2.92385e-12 -1.96766e-09 0)
(4.94446e-11 -1.97764e-09 0)
(-3.93032e-12 -2.07585e-10 0)
(-3.76839e-11 -1.79597e-09 0)
(1.99089e-11 -3.27349e-09 0)
(1.06818e-11 -1.14943e-09 0)
(2.40122e-10 -7.72617e-09 0)
(-2.69194e-11 -2.04998e-09 0)
(2.88798e-12 -1.93441e-09 0)
(1.05561e-11 -1.90287e-09 0)
(1.51666e-12 -1.80807e-09 0)
(-7.36971e-11 -1.6965e-09 0)
(0 0 0)
(0 0 0)
(0 0 0)
(0 0 0)
(0 0 0)
(0 0 0)
(0 0 0)
(0 0 0)
(0 0 0)
(0 0 0)
(0 0 0)
(0 0 0)
(0 0 0)
(0 0 0)
(0 0 0)
(0 0 0)
(0 0 0)
(0 0 0)
(0 0 0)
(0 0 0)
(0 0 0)
(-2.42147e-11 -2.90559e-10 0)
(-9.71369e-11 -1.92556e-09 0)
(1.32444e-10 -4.63977e-09 0)
(-6.31499e-11 -2.87003e-09 0)
(-2.69727e-11 -2.81389e-09 0)
(-1.00318e-10 -1.83636e-09 0)
(1.43182e-11 -2.44222e-09 0)
(0 0 0)
(7.822e-11 -2.07582e-09 0)
(1.47039e-11 -1.98639e-09 0)
(6.53684e-11 -2.4099e-09 0)
(2.3104e-11 -1.06974e-09 0)
(1.08688e-10 -2.70719e-09 0)
(-9.04608e-11 -1.91979e-09 0)
(0 0 0)
(2.15465e-11 -2.12933e-09 0)
(-7.1414e-13 -6.32869e-11 0)
(-2.21153e-11 -2.0687e-09 0)
(-1.33679e-10 -2.08246e-09 0)
(-1.0562e-10 -1.92925e-09 0)
(-5.17897e-11 -2.09278e-09 0)
(-1.78267e-11 -2.06673e-09 0)
(5.59233e-11 -2.15271e-09 0)
(3.84559e-11 -2.52852e-09 0)
(-1.0206e-11 -2.31789e-09 0)
(-3.29669e-11 -1.84997e-09 0)
(-2.83132e-11 -1.68811e-09 0)
(-3.58133e-11 -1.64142e-09 0)
(-2.25532e-10 -4.44648e-09 0)
(-9.30087e-11 -1.88032e-09 0)
(-5.61421e-11 -2.01291e-09 0)
(-6.28026e-11 -1.99134e-09 0)
(-1.05443e-10 -2.03223e-09 0)
(-9.25291e-11 -2.13764e-09 0)
(-1.02607e-10 -2.61266e-09 0)
(2.75988e-11 -3.3234e-09 0)
(1.45226e-11 -4.12408e-10 0)
(8.1644e-11 -2.12e-09 0)
(6.25179e-11 -2.04123e-09 0)
(-2.54026e-12 -2.05912e-09 0)
(2.77885e-11 -2.13308e-09 0)
(-4.60991e-11 -2.12953e-09 0)
(-2.03423e-11 -1.98485e-09 0)
(1.39062e-11 -2.02493e-09 0)
(-1.10103e-11 -2.06787e-09 0)
(-4.54224e-11 -2.12754e-09 0)
(-8.66116e-11 -2.1227e-09 0)
(-1.1597e-10 -2.14467e-09 0)
(-8.91093e-11 -2.00722e-09 0)
(-1.48265e-11 -4.31062e-09 0)
(3.11626e-11 -1.7772e-09 0)
(-1.32072e-11 -1.76278e-09 0)
(0 0 0)
(0 0 0)
(0 0 0)
(0 0 0)
(0 0 0)
(0 0 0)
(0 0 0)
(0 0 0)
(0 0 0)
(0 0 0)
(0 0 0)
(0 0 0)
(0 0 0)
(0 0 0)
(0 0 0)
(0 0 0)
(0 0 0)
(0 0 0)
(0 0 0)
(0 0 0)
(0 0 0)
(0 0 0)
(0 0 0)
(-1.56098e-10 -4.46027e-09 0)
(-2.04144e-11 -1.80702e-09 0)
(0 0 0)
(5.36552e-11 -1.67732e-09 0)
(3.44402e-11 -2.0392e-09 0)
(-5.88448e-11 -2.11377e-09 0)
(1.2316e-11 -6.0711e-10 0)
(3.40524e-11 -1.11092e-09 0)
(-2.37641e-12 -2.16576e-09 0)
(0 0 0)
(-1.16245e-10 -2.10326e-09 0)
(1.34821e-10 -2.13088e-09 0)
(8.075e-11 -3.39527e-09 0)
(-3.67425e-12 -5.60677e-10 0)
(-7.5091e-11 -1.95593e-09 0)
(-2.35554e-11 -2.07683e-09 0)
(5.43539e-11 -2.10976e-09 0)
(-1.39001e-11 -2.25648e-09 0)
(0 0 0)
(-4.55229e-11 -2.06572e-09 0)
(-2.04283e-10 -2.02058e-09 0)
(-1.12358e-10 -2.06435e-09 0)
(-3.34994e-11 -2.14609e-09 0)
(-9.51679e-11 -2.19477e-09 0)
(-1.59814e-11 -2.17734e-09 0)
(5.62108e-11 -2.02881e-09 0)
(1.15278e-10 -4.22316e-09 0)
(-6.88406e-11 -1.66373e-09 0)
(-1.76758e-10 -1.94184e-09 0)
(-4.50289e-11 -1.9731e-09 0)
(-3.50499e-11 -2.07398e-09 0)
(3.76995e-11 -2.25925e-09 0)
(-7.37727e-12 -4.66298e-10 0)
(-2.43163e-11 -1.31557e-09 0)
(-8.36004e-11 -2.14292e-09 0)
(-7.49404e-11 -2.17872e-09 0)
(6.8116e-11 -2.22214e-09 0)
(3.21678e-11 -2.02507e-09 0)
(2.17139e-11 -2.00292e-09 0)
(-3.12852e-11 -2.41114e-09 0)
(1.62713e-11 -4.75866e-09 0)
(-1.76587e-11 -2.0017e-09 0)
(8.23505e-11 -1.95165e-09 0)
(3.70299e-11 -1.90494e-09 0)
(5.93763e-11 -1.96473e-09 0)
(4.11311e-11 -2.03659e-09 0)
(0 0 0)
(0 0 0)
(-1.36657e-10 -1.88305e-09 0)
(-5.63742e-11 -2.01906e-09 0)
(-4.61659e-11 -1.94129e-09 0)
(4.55111e-12 -4.53827e-09 0)
(0 0 0)
(0 0 0)
(0 0 0)
(0 0 0)
(0 0 0)
(0 0 0)
(0 0 0)
(0 0 0)
(0 0 0)
(0 0 0)
(0 0 0)
(0 0 0)
(0 0 0)
(0 0 0)
(0 0 0)
(0 0 0)
(0 0 0)
(0 0 0)
(0 0 0)
(0 0 0)
(0 0 0)
(0 0 0)
(0 0 0)
(-1.26398e-10 -1.57496e-09 0)
(-4.76073e-11 -1.77517e-09 0)
(-5.00972e-11 -1.89823e-09 0)
(-6.78332e-11 -1.86518e-09 0)
(1.90777e-11 -2.24491e-09 0)
(0 0 0)
(2.14887e-11 -2.12753e-09 0)
(1.26277e-10 -2.39092e-09 0)
(5.13302e-12 -3.05256e-10 0)
(2.97362e-11 -1.61298e-09 0)
(3.95435e-11 -2.08227e-09 0)
(7.54606e-11 -2.1166e-09 0)
(6.5651e-11 -2.14798e-09 0)
(-1.45242e-11 -2.27983e-09 0)
(0 0 0)
(-2.59997e-11 -1.93544e-09 0)
(2.24367e-11 -1.99518e-09 0)
(4.67282e-11 -2.1623e-09 0)
(6.07633e-11 -2.21423e-09 0)
(2.44994e-11 -2.14543e-09 0)
(-1.88502e-10 -2.09014e-09 0)
(-2.16509e-10 -2.00377e-09 0)
(-1.87131e-10 -4.82764e-09 0)
(-8.64788e-12 -1.94543e-09 0)
(2.43538e-11 -1.97937e-09 0)
(-5.58376e-12 -1.95686e-09 0)
(-5.11603e-12 -1.87415e-09 0)
(-9.18979e-11 -1.85551e-09 0)
(-6.03176e-11 -1.89381e-09 0)
(-9.98909e-11 -2.25846e-09 0)
(-4.88908e-11 -2.11015e-09 0)
(-1.74958e-11 -4.08762e-09 0)
(-2.30412e-12 -3.15869e-10 0)
(-4.56722e-11 -2.30465e-09 0)
(-6.14749e-11 -2.06771e-09 0)
(-9.75362e-11 -2.05732e-09 0)
(-6.50672e-11 -2.0136e-09 0)
(-1.69849e-12 -2.04099e-09 0)
(2.22588e-11 -2.1758e-09 0)
(-5.8613e-11 -2.19092e-09 0)
(1.42577e-11 -2.15505e-09 0)
(6.04069e-13 -2.1835e-09 0)
(2.85679e-11 -2.0387e-09 0)
(-4.67811e-11 -1.96599e-09 0)
(4.24007e-11 -2.0205e-09 0)
(6.04985e-11 -2.00654e-09 0)
(-2.62728e-11 -3.54475e-09 0)
(6.51819e-12 -2.83179e-09 0)
(-8.1453e-11 -1.89442e-09 0)
(0 0 0)
(0 0 0)
(-8.36541e-11 -2.119e-09 0)
(-6.09836e-11 -1.95267e-09 0)
(0 0 0)
(0 0 0)
(0 0 0)
(0 0 0)
(0 0 0)
(0 0 0)
(0 0 0)
(0 0 0)
(0 0 0)
(0 0 0)
(0 0 0)
(0 0 0)
(0 0 0)
(0 0 0)
(0 0 0)
(0 0 0)
(0 0 0)
(0 0 0)
(0 0 0)
(0 0 0)
(0 0 0)
(0 0 0)
(8.39322e-12 -8.71954e-10 0)
(3.58889e-11 -2.90132e-09 0)
(-2.62872e-11 -9.39323e-10 0)
(-9.05356e-11 -1.79701e-09 0)
(-1.74241e-11 -2.03715e-09 0)
(2.15519e-11 -2.14198e-09 0)
(7.0848e-11 -2.07706e-09 0)
(7.57567e-11 -2.15963e-09 0)
(1.42749e-10 -2.24044e-09 0)
(0 0 0)
(1.33152e-10 -1.94112e-09 0)
(1.46901e-10 -2.13486e-09 0)
(1.3339e-11 -2.20711e-09 0)
(-2.75586e-11 -2.20769e-09 0)
(5.02877e-11 -2.17087e-09 0)
(5.65767e-11 -2.0047e-09 0)
(2.84994e-11 -1.9944e-09 0)
(1.11681e-10 -4.83001e-09 0)
(1.00505e-10 -1.91747e-09 0)
(-2.58452e-11 -4.94573e-09 0)
(-1.55338e-10 -1.85261e-09 0)
(-1.32575e-10 -1.82553e-09 0)
(-1.20232e-10 -1.85815e-09 0)
(-1.82174e-11 -2.07769e-09 0)
(1.22e-11 -2.06226e-09 0)
(6.1706e-11 -2.05314e-09 0)
(4.68794e-11 -2.15672e-09 0)
(-7.4366e-11 -1.97139e-09 0)
(-3.53628e-11 -1.88511e-09 0)
(-2.13063e-10 -2.11962e-09 0)
(-1.72403e-11 -2.03905e-09 0)
(7.47326e-11 -2.05768e-09 0)
(1.83452e-11 -2.39261e-09 0)
(-7.31964e-12 -6.33758e-10 0)
(-4.35942e-11 -3.56508e-09 0)
(-8.2265e-11 -1.94555e-09 0)
(-1.04161e-10 -1.93517e-09 0)
(-1.3637e-10 -1.97035e-09 0)
(1.04901e-11 -2.3842e-09 0)
(0 0 0)
(-8.66603e-12 -2.24146e-09 0)
(-2.20029e-11 -2.08692e-09 0)
(2.42556e-12 -2.06517e-09 0)
(1.44768e-10 -4.68137e-09 0)
(-1.05296e-11 -1.89024e-09 0)
(-1.42708e-11 -2.03056e-09 0)
(-1.12813e-10 -2.00661e-09 0)
(-4.50449e-11 -4.85976e-09 0)
(-5.8084e-13 -4.35783e-11 0)
(-3.73401e-11 -2.24985e-09 0)
(-6.87911e-11 -4.48628e-09 0)
(0 0 0)
(-6.00788e-11 -1.84487e-09 0)
(0 0 0)
(0 0 0)
(0 0 0)
(0 0 0)
(0 0 0)
(0 0 0)
(0 0 0)
(0 0 0)
(0 0 0)
(0 0 0)
(0 0 0)
(0 0 0)
(0 0 0)
(0 0 0)
(0 0 0)
(0 0 0)
(0 0 0)
(0 0 0)
(0 0 0)
(0 0 0)
(0 0 0)
(0 0 0)
(-7.72678e-11 -1.98723e-09 0)
(-2.78418e-12 -2.08169e-09 0)
(-7.09454e-11 -2.09584e-09 0)
(-5.09691e-11 -1.92575e-09 0)
(1.17905e-11 -1.92037e-09 0)
(7.91718e-11 -2.0591e-09 0)
(8.47415e-11 -2.0003e-09 0)
(8.43717e-11 -2.06115e-09 0)
(1.77042e-10 -2.13336e-09 0)
(2.35799e-10 -2.02297e-09 0)
(2.06812e-10 -2.85901e-09 0)
(1.09123e-10 -4.28098e-09 0)
(0 0 0)
(-8.19661e-11 -2.18854e-09 0)
(-3.04669e-11 -2.06396e-09 0)
(-1.97935e-11 -1.93409e-09 0)
(-9.65223e-11 -4.22367e-09 0)
(7.33806e-12 -3.1118e-09 0)
(-7.00155e-11 -3.68619e-09 0)
(-3.71749e-11 -4.15886e-09 0)
(3.14628e-13 -1.95793e-09 0)
(-5.87175e-11 -1.74238e-09 0)
(0 0 0)
(3.30294e-11 -1.98496e-09 0)
(-2.75845e-11 -2.14357e-09 0)
(7.23378e-12 -2.01136e-09 0)
(1.49617e-11 -2.26225e-09 0)
(0 0 0)
(-8.50612e-12 -1.92447e-09 0)
(-3.03601e-11 -1.97308e-09 0)
(-1.0446e-11 -2.05811e-09 0)
(9.33215e-12 -2.07369e-09 0)
(-9.60024e-11 -2.19655e-09 0)
(-4.0194e-11 -2.24856e-09 0)
(2.47116e-12 -5.10616e-09 0)
(-8.69755e-12 -2.00075e-09 0)
(-1.5841e-11 -9.40892e-10 0)
(-6.26553e-12 -2.75126e-10 0)
(-5.14115e-11 -2.13868e-09 0)
(1.90954e-11 -2.40073e-09 0)
(-2.46867e-12 -1.96509e-10 0)
(-2.54096e-11 -1.81338e-09 0)
(3.1144e-11 -2.04725e-09 0)
(8.46005e-12 -2.04609e-09 0)
(-3.6201e-11 -3.09259e-09 0)
(-1.4811e-10 -3.914e-09 0)
(-6.67868e-11 -1.92208e-09 0)
(-1.17487e-10 -2.07176e-09 0)
(2.99067e-11 -2.0503e-09 0)
(-2.97557e-11 -1.81339e-09 0)
(-3.09652e-12 -4.21708e-09 0)
(4.42304e-11 -1.8801e-09 0)
(2.77168e-11 -1.86207e-09 0)
(0 0 0)
(0 0 0)
(0 0 0)
(0 0 0)
(0 0 0)
(0 0 0)
(0 0 0)
(0 0 0)
(0 0 0)
(0 0 0)
(0 0 0)
(0 0 0)
(0 0 0)
(0 0 0)
(0 0 0)
(0 0 0)
(0 0 0)
(0 0 0)
(0 0 0)
(0 0 0)
(0 0 0)
(0 0 0)
(-5.34921e-12 -5.49938e-10 0)
(1.76062e-11 -3.84405e-09 0)
(1.49446e-10 -1.90576e-09 0)
(7.06523e-11 -1.8109e-09 0)
(3.50153e-11 -1.93597e-09 0)
(9.0592e-11 -1.98128e-09 0)
(9.61034e-11 -2.07282e-09 0)
(2.56882e-11 -2.0746e-09 0)
(9.25886e-11 -4.50835e-09 0)
(6.43516e-11 -2.66374e-09 0)
(2.62201e-10 -3.54641e-09 0)
(-3.85178e-12 -2.1156e-09 0)
(4.7407e-11 -3.09195e-09 0)
(-1.20986e-11 -9.81833e-10 0)
(-5.62744e-11 -2.02734e-09 0)
(-8.28368e-11 -1.98363e-09 0)
(-1.7076e-10 -1.85201e-09 0)
(-3.46554e-10 -4.35915e-09 0)
(-7.5202e-11 -1.74936e-09 0)
(-5.05965e-11 -5.47778e-09 0)
(0 0 0)
(3.21893e-11 -1.91596e-09 0)
(-3.09507e-12 -2.0318e-09 0)
(4.78737e-11 -2.28639e-09 0)
(0 0 0)
(4.41426e-11 -2.09216e-09 0)
(9.70519e-12 -2.02997e-09 0)
(2.34927e-11 -1.0323e-09 0)
(1.72475e-12 -8.86772e-10 0)
(-4.44802e-12 -1.58438e-09 0)
(-1.16023e-11 -3.41694e-09 0)
(-8.56987e-11 -3.26594e-09 0)
(-5.41657e-11 -1.94746e-09 0)
(-1.33866e-11 -1.96575e-09 0)
(-6.80051e-11 -2.01662e-09 0)
(2.2224e-11 -1.99386e-09 0)
(-3.54781e-11 -2.03108e-09 0)
(-1.05206e-10 -2.04306e-09 0)
(-9.61946e-11 -2.15928e-09 0)
(-3.36123e-11 -2.13508e-09 0)
(-1.80059e-13 -1.41544e-10 0)
(-4.18641e-12 -1.79442e-09 0)
(2.96228e-12 -2.01619e-09 0)
(-1.48584e-11 -2.18382e-09 0)
(-1.54198e-10 -2.43769e-09 0)
(0 0 0)
(2.78807e-11 -2.00766e-09 0)
(-5.22531e-11 -2.08516e-09 0)
(-3.59896e-11 -2.0274e-09 0)
(-2.00174e-12 -2.05799e-09 0)
(1.54364e-11 -1.92152e-09 0)
(3.73903e-11 -1.8442e-09 0)
(5.64909e-11 -1.81139e-09 0)
(0 0 0)
(0 0 0)
(0 0 0)
(0 0 0)
(0 0 0)
(0 0 0)
(0 0 0)
(0 0 0)
(0 0 0)
(0 0 0)
(0 0 0)
(0 0 0)
(0 0 0)
(0 0 0)
(0 0 0)
(0 0 0)
(0 0 0)
(0 0 0)
(0 0 0)
(0 0 0)
(0 0 0)
(0 0 0)
(-8.55508e-11 -2.0994e-09 0)
(-5.37385e-11 -1.94059e-09 0)
(9.87958e-11 -1.91601e-09 0)
(9.55871e-11 -1.95303e-09 0)
(8.03183e-11 -1.91345e-09 0)
(3.05394e-11 -2.75699e-09 0)
(8.23936e-11 -3.71644e-09 0)
(4.74646e-11 -1.81377e-09 0)
(-2.87369e-11 -2.17959e-09 0)
(-2.91736e-11 -3.8526e-09 0)
(1.77811e-10 -4.81325e-09 0)
(1.34737e-10 -2.11837e-09 0)
(2.50183e-11 -2.13762e-09 0)
(-7.81428e-12 -2.12127e-09 0)
(-6.05696e-11 -2.87516e-09 0)
(-5.22008e-11 -1.84086e-09 0)
(-3.30443e-11 -1.16819e-09 0)
(-7.01799e-11 -2.02215e-09 0)
(-1.78385e-10 -3.09427e-09 0)
(-6.6766e-11 -1.02933e-09 0)
(1.68607e-11 -2.09394e-09 0)
(2.60527e-11 -2.03944e-09 0)
(-2.8017e-11 -2.02315e-09 0)
(1.03991e-11 -1.99377e-09 0)
(0 0 0)
(2.89009e-11 -2.12623e-09 0)
(5.55749e-12 -2.13317e-09 0)
(0 0 0)
(4.02475e-11 -2.04281e-09 0)
(6.82852e-13 -2.14383e-09 0)
(-4.18333e-11 -2.12634e-09 0)
(-4.51471e-11 -2.13861e-09 0)
(-1.96112e-11 -3.02225e-09 0)
(-2.55197e-11 -3.33893e-09 0)
(1.60409e-12 -1.87864e-09 0)
(1.91489e-11 -1.94654e-09 0)
(-4.58803e-11 -2.03283e-09 0)
(-5.74824e-11 -2.10288e-09 0)
(-3.71801e-12 -3.71831e-10 0)
(-1.29453e-11 -1.31947e-09 0)
(-5.03941e-12 -2.09095e-09 0)
(-6.24702e-11 -2.0674e-09 0)
(-9.16563e-11 -1.9635e-09 0)
(-7.02851e-11 -2.344e-09 0)
(0 0 0)
(6.1128e-11 -2.11362e-09 0)
(1.77201e-11 -2.32756e-09 0)
(0 0 0)
(5.331e-11 -2.07176e-09 0)
(-2.3709e-11 -2.01423e-09 0)
(-1.78063e-11 -2.24839e-09 0)
(-2.34249e-11 -1.93381e-09 0)
(-2.04772e-11 -1.95531e-09 0)
(-7.81659e-12 -1.94318e-09 0)
(0 0 0)
(0 0 0)
(0 0 0)
(0 0 0)
(0 0 0)
(0 0 0)
(0 0 0)
(0 0 0)
(0 0 0)
(0 0 0)
(0 0 0)
(0 0 0)
(0 0 0)
(0 0 0)
(0 0 0)
(0 0 0)
(0 0 0)
(0 0 0)
(0 0 0)
(0 0 0)
(0 0 0)
(0 0 0)
(7.36084e-12 -2.02092e-09 0)
(-3.33589e-11 -1.92248e-09 0)
(-5.41537e-11 -2.00715e-09 0)
(1.79087e-11 -2.16316e-09 0)
(5.8245e-12 -2.14539e-09 0)
(-6.03997e-11 -2.04204e-09 0)
(2.442e-10 -4.56743e-09 0)
(-1.03831e-10 -1.81699e-09 0)
(-1.16784e-10 -1.85099e-09 0)
(-1.31111e-10 -4.34516e-09 0)
(2.49614e-10 -5.23671e-09 0)
(8.07337e-11 -2.06499e-09 0)
(2.52613e-11 -3.61483e-09 0)
(-2.29948e-11 -2.64083e-09 0)
(-8.76446e-11 -1.72598e-09 0)
(-1.73848e-10 -1.74942e-09 0)
(-6.84033e-11 -2.11781e-09 0)
(0 0 0)
(-1.79464e-10 -2.13583e-09 0)
(-8.14379e-11 -4.5983e-09 0)
(-2.62794e-11 -1.89801e-09 0)
(-3.23971e-11 -1.87922e-09 0)
(0 0 0)
(5.2715e-11 -1.8803e-09 0)
(9.56178e-11 -2.07295e-09 0)
(9.69201e-12 -1.90216e-09 0)
(1.0267e-11 -2.02444e-09 0)
(5.56537e-11 -2.05754e-09 0)
(3.39198e-11 -2.33049e-09 0)
(0 0 0)
(-3.47024e-11 -2.12073e-09 0)
(-4.31554e-11 -2.11236e-09 0)
(-4.81541e-11 -2.04256e-09 0)
(3.9886e-11 -2.00216e-09 0)
(-8.4908e-12 -5.01054e-09 0)
(-3.15378e-12 -1.92871e-09 0)
(2.0477e-12 -1.9185e-09 0)
(1.57425e-11 -1.99877e-09 0)
(7.06817e-11 -2.10429e-09 0)
(-8.72212e-11 -1.96503e-09 0)
(-3.16343e-11 -7.04648e-10 0)
(-1.94325e-10 -2.10488e-09 0)
(-1.27832e-10 -3.5101e-09 0)
(0 0 0)
(-2.53151e-11 -2.09328e-09 0)
(1.2502e-12 -2.29447e-09 0)
(0 0 0)
(3.9817e-11 -2.07098e-09 0)
(0 0 0)
(9.2182e-11 -2.12719e-09 0)
(1.98245e-11 -1.87575e-09 0)
(4.71923e-11 -2.00708e-09 0)
(9.54677e-12 -2.19586e-09 0)
(-3.16125e-11 -2.14901e-09 0)
(0 0 0)
(0 0 0)
(0 0 0)
(0 0 0)
(0 0 0)
(0 0 0)
(0 0 0)
(0 0 0)
(0 0 0)
(0 0 0)
(0 0 0)
(0 0 0)
(0 0 0)
(0 0 0)
(0 0 0)
(0 0 0)
(0 0 0)
(0 0 0)
(0 0 0)
(0 0 0)
(3.15784e-11 -1.87934e-09 0)
(4.02167e-11 -1.91078e-09 0)
(-2.55443e-11 -1.96868e-09 0)
(-3.3971e-11 -1.9787e-09 0)
(6.65563e-11 -2.30843e-09 0)
(3.56733e-11 -1.0649e-09 0)
(1.6539e-11 -5.04507e-10 0)
(7.74341e-12 -2.13965e-09 0)
(-1.06359e-10 -2.01573e-09 0)
(-1.94398e-10 -1.97817e-09 0)
(-1.74493e-10 -1.9209e-09 0)
(-1.44768e-10 -5.27271e-09 0)
(7.1318e-11 -2.29311e-09 0)
(3.99052e-11 -1.94062e-09 0)
(-9.8765e-11 -4.85484e-09 0)
(-4.21845e-11 -1.67452e-09 0)
(-2.19893e-11 -1.80016e-09 0)
(1.92547e-12 -4.2864e-09 0)
(-1.90098e-11 -1.93247e-09 0)
(0 0 0)
(0 0 0)
(-2.78285e-11 -1.96621e-09 0)
(6.18857e-11 -2.05484e-09 0)
(6.11722e-11 -2.03899e-09 0)
(1.20764e-10 -2.25463e-09 0)
(1.05421e-10 -2.13888e-09 0)
(4.44211e-11 -2.01319e-09 0)
(4.31385e-11 -1.83593e-09 0)
(-6.15757e-11 -2.02133e-09 0)
(-1.87104e-11 -2.56463e-09 0)
(0 0 0)
(1.45869e-11 -2.07682e-09 0)
(-3.31301e-11 -2.07692e-09 0)
(-6.79849e-11 -2.07941e-09 0)
(-9.60178e-12 -2.05338e-09 0)
(-4.63076e-11 -2.18202e-09 0)
(5.8827e-12 -2.17496e-09 0)
(4.94607e-11 -2.08053e-09 0)
(6.14267e-11 -2.14547e-09 0)
(1.60752e-10 -4.98561e-09 0)
(-1.4322e-10 -2.08146e-09 0)
(-4.34991e-11 -1.94258e-09 0)
(-6.50353e-11 -9.15225e-10 0)
(-3.26606e-11 -4.21603e-10 0)
(5.44737e-11 -4.74532e-09 0)
(3.51222e-11 -1.96001e-09 0)
(5.45476e-11 -2.106e-09 0)
(0 0 0)
(1.20342e-11 -1.93925e-09 0)
(7.95086e-11 -1.96796e-09 0)
(-1.86438e-11 -4.29709e-09 0)
(-1.41531e-10 -1.69885e-09 0)
(-1.31161e-10 -1.80824e-09 0)
(-6.54798e-11 -2.21974e-09 0)
(0 0 0)
(0 0 0)
(0 0 0)
(0 0 0)
(0 0 0)
(0 0 0)
(0 0 0)
(0 0 0)
(0 0 0)
(0 0 0)
(0 0 0)
(0 0 0)
(0 0 0)
(0 0 0)
(0 0 0)
(0 0 0)
(0 0 0)
(0 0 0)
(0 0 0)
(0 0 0)
(0 0 0)
(-9.80546e-11 -2.02519e-09 0)
(-1.57569e-11 -2.14977e-09 0)
(0 0 0)
(-1.42029e-11 -2.12166e-09 0)
(-5.38934e-11 -3.02355e-09 0)
(2.22584e-10 -3.79048e-09 0)
(0 0 0)
(0 0 0)
(0 0 0)
(0 0 0)
(0 0 0)
(0 0 0)
(0 0 0)
(-7.59132e-11 -2.73553e-09 0)
(1.81166e-12 -2.1706e-09 0)
(0 0 0)
(0 0 0)
(0 0 0)
(1.11581e-10 -4.71645e-09 0)
(2.2902e-11 -2.23184e-09 0)
(0 0 0)
(-2.02931e-11 -2.06951e-09 0)
(3.3405e-11 -2.01011e-09 0)
(3.53177e-11 -1.95759e-09 0)
(3.96047e-12 -3.13652e-09 0)
(2.54159e-10 -3.13428e-09 0)
(-2.22306e-11 -4.37892e-09 0)
(-1.55514e-11 -1.83359e-09 0)
(-1.76399e-11 -1.98927e-09 0)
(7.32677e-12 -6.68028e-10 0)
(1.97233e-11 -1.70226e-09 0)
(-3.18819e-11 -3.04978e-09 0)
(-1.01707e-10 -2.80844e-09 0)
(-2.30371e-12 -1.1516e-09 0)
(7.02634e-13 -1.07603e-09 0)
(-4.76273e-11 -2.10141e-09 0)
(-1.95491e-11 -2.15214e-09 0)
(5.23986e-11 -2.07443e-09 0)
(7.14788e-11 -3.41181e-09 0)
(-4.24648e-11 -3.73772e-09 0)
(-7.89768e-12 -2.05835e-09 0)
(-3.32161e-12 -1.90426e-09 0)
(-2.97014e-11 -8.17182e-10 0)
(-2.83371e-11 -6.69011e-10 0)
(0 0 0)
(1.52909e-10 -2.10266e-09 0)
(3.72565e-11 -1.00328e-09 0)
(1.40947e-10 -2.4374e-09 0)
(2.828e-11 -1.9168e-09 0)
(1.41773e-10 -4.35212e-09 0)
(-9.20381e-11 -2.60353e-09 0)
(-1.34993e-10 -3.51634e-09 0)
(-1.6287e-10 -1.89539e-09 0)
(0 0 0)
(0 0 0)
(0 0 0)
(0 0 0)
(0 0 0)
(0 0 0)
(0 0 0)
(0 0 0)
(0 0 0)
(0 0 0)
(0 0 0)
(0 0 0)
(0 0 0)
(0 0 0)
(0 0 0)
(0 0 0)
(0 0 0)
(0 0 0)
(0 0 0)
(0 0 0)
(0 0 0)
(0 0 0)
(-4.24346e-11 -1.94013e-09 0)
(2.41256e-12 -2.07986e-09 0)
(5.83426e-12 -2.31202e-09 0)
(-1.75476e-11 -1.82535e-09 0)
(-9.32782e-12 -1.77947e-09 0)
(5.9671e-12 -4.11339e-10 0)
(2.43434e-10 -4.42857e-09 0)
(8.42152e-11 -2.20591e-09 0)
(-7.74196e-11 -1.91111e-09 0)
(-5.43216e-11 -1.88843e-09 0)
(0 0 0)
(-3.98816e-11 -2.01021e-09 0)
(-4.59674e-10 -5.68472e-09 0)
(0 0 0)
(-6.19619e-11 -2.20719e-09 0)
(6.1084e-11 -2.56062e-09 0)
(9.40467e-11 -2.74388e-09 0)
(-4.86601e-12 -3.48185e-09 0)
(-1.57636e-10 -1.91942e-09 0)
(-1.98111e-10 -2.15689e-09 0)
(-7.12752e-11 -2.10261e-09 0)
(-4.23375e-11 -2.01945e-09 0)
(3.93992e-11 -2.00464e-09 0)
(9.43856e-11 -1.97153e-09 0)
(1.33254e-10 -4.37445e-09 0)
(8.17709e-11 -4.72079e-09 0)
(4.74715e-11 -1.76084e-09 0)
(3.10889e-11 -1.84453e-09 0)
(4.20124e-11 -1.87604e-09 0)
(9.90129e-11 -2.20576e-09 0)
(-5.01479e-11 -2.32309e-09 0)
(-1.52744e-10 -3.26824e-09 0)
(-9.72595e-11 -2.67025e-09 0)
(3.1233e-12 -1.31915e-09 0)
(8.35313e-12 -8.40303e-10 0)
(-3.59493e-11 -2.08764e-09 0)
(8.05209e-11 -2.11406e-09 0)
(8.60464e-11 -2.16738e-09 0)
(9.92104e-12 -2.37726e-09 0)
(-7.91438e-11 -2.31655e-09 0)
(8.10748e-11 -2.13937e-09 0)
(1.8346e-11 -2.16022e-09 0)
(4.04533e-11 -2.01973e-09 0)
(1.84351e-11 -1.99516e-09 0)
(7.85387e-11 -2.08722e-09 0)
(1.16263e-10 -2.07073e-09 0)
(0 0 0)
(0 0 0)
(1.85698e-11 -2.33896e-09 0)
(-1.31433e-10 -2.09741e-09 0)
(-1.77822e-10 -1.8784e-09 0)
(-1.53348e-10 -1.87297e-09 0)
(0 0 0)
(0 0 0)
(0 0 0)
(0 0 0)
(0 0 0)
(0 0 0)
(0 0 0)
(0 0 0)
(0 0 0)
(0 0 0)
(0 0 0)
(0 0 0)
(0 0 0)
(0 0 0)
(0 0 0)
(0 0 0)
(0 0 0)
(0 0 0)
(0 0 0)
(0 0 0)
(0 0 0)
(0 0 0)
(0 0 0)
(-1.35304e-11 -1.97519e-09 0)
(-3.83541e-11 -1.97852e-09 0)
(-4.86093e-11 -2.09539e-09 0)
(9.74833e-11 -1.93591e-09 0)
(5.74455e-11 -1.85492e-09 0)
(-9.81823e-12 -2.1231e-09 0)
(0 0 0)
(6.85849e-11 -5.33449e-09 0)
(9.374e-11 -1.82106e-09 0)
(0 0 0)
(6.38288e-11 -4.00145e-09 0)
(-2.79454e-11 -4.60692e-09 0)
(-3.80563e-11 -1.09602e-09 0)
(-1.47274e-11 -4.3615e-10 0)
(-1.36762e-10 -2.16171e-09 0)
(-1.42011e-10 -1.9956e-09 0)
(5.9586e-11 -2.02522e-09 0)
(-6.23481e-11 -2.1032e-09 0)
(-1.09439e-10 -1.97859e-09 0)
(-1.35313e-10 -1.96702e-09 0)
(-4.99761e-11 -2.00482e-09 0)
(2.03608e-11 -1.97616e-09 0)
(3.57711e-11 -2.0147e-09 0)
(2.31648e-11 -2.21171e-09 0)
(5.79096e-13 -2.1353e-09 0)
(1.09378e-11 -2.07e-09 0)
(1.41911e-10 -2.01145e-09 0)
(1.23372e-10 -1.93584e-09 0)
(7.23677e-11 -2.32361e-09 0)
(2.82026e-11 -4.9856e-09 0)
(-9.53513e-11 -2.22893e-09 0)
(-1.46521e-11 -1.84198e-09 0)
(-6.97117e-11 -1.92157e-09 0)
(-1.59477e-11 -1.81652e-09 0)
(-3.11546e-11 -1.94373e-09 0)
(2.48333e-11 -2.0625e-09 0)
(-3.45818e-11 -2.26665e-09 0)
(3.12808e-11 -2.42954e-09 0)
(5.78599e-11 -2.34695e-09 0)
(3.93315e-11 -2.01894e-09 0)
(5.3158e-11 -2.05811e-09 0)
(-3.67204e-11 -2.04553e-09 0)
(1.49555e-11 -1.98994e-09 0)
(7.30869e-11 -2.96066e-09 0)
(2.32073e-10 -3.24592e-09 0)
(3.43719e-10 -4.45389e-09 0)
(1.15166e-10 -1.81761e-09 0)
(1.73274e-10 -4.01164e-09 0)
(-5.06673e-11 -4.70376e-09 0)
(0 0 0)
(-1.72996e-11 -1.94779e-09 0)
(0 0 0)
(0 0 0)
(0 0 0)
(0 0 0)
(0 0 0)
(0 0 0)
(0 0 0)
(0 0 0)
(0 0 0)
(0 0 0)
(0 0 0)
(0 0 0)
(0 0 0)
(0 0 0)
(0 0 0)
(0 0 0)
(0 0 0)
(0 0 0)
(0 0 0)
(0 0 0)
(0 0 0)
(0 0 0)
(0 0 0)
(0 0 0)
(-9.94895e-12 -2.00339e-09 0)
(-4.12797e-11 -1.99396e-09 0)
(-2.32959e-11 -2.06954e-09 0)
(3.47226e-11 -2.48876e-09 0)
(1.16741e-10 -3.70921e-09 0)
(4.79383e-12 -2.03711e-09 0)
(0 0 0)
(-1.86605e-11 -2.03648e-09 0)
(1.53698e-10 -3.35275e-09 0)
(1.10575e-10 -2.14573e-09 0)
(1.28888e-10 -4.90423e-09 0)
(-4.60818e-11 -2.15621e-09 0)
(-7.88659e-11 -2.30318e-09 0)
(-3.11906e-12 -4.00872e-10 0)
(-1.08536e-11 -1.35808e-09 0)
(-9.89563e-12 -1.82523e-09 0)
(6.64071e-11 -4.99262e-09 0)
(-3.70557e-11 -1.8954e-09 0)
(-5.15432e-11 -1.8808e-09 0)
(4.64614e-11 -1.94302e-09 0)
(9.3717e-11 -2.02726e-09 0)
(0 0 0)
(-3.84742e-12 -1.94754e-09 0)
(1.99686e-11 -2.27472e-09 0)
(0 0 0)
(-7.23353e-12 -2.13188e-09 0)
(1.37312e-10 -2.09432e-09 0)
(9.1385e-11 -2.03434e-09 0)
(-1.52581e-12 -2.06933e-09 0)
(-2.82061e-10 -5.29222e-09 0)
(-1.01319e-10 -2.03038e-09 0)
(-4.51376e-11 -4.55223e-09 0)
(-4.61292e-11 -1.74625e-09 0)
(-7.66817e-11 -1.82083e-09 0)
(-3.47598e-11 -1.9492e-09 0)
(0 0 0)
(-6.75445e-11 -3.27775e-09 0)
(3.03726e-11 -2.6785e-09 0)
(1.72013e-11 -5.98715e-10 0)
(2.64983e-10 -4.10749e-09 0)
(6.54289e-11 -2.85103e-09 0)
(-1.45981e-11 -2.07936e-09 0)
(2.53329e-11 -1.79875e-09 0)
(4.18098e-11 -1.82484e-09 0)
(1.97579e-10 -1.97605e-09 0)
(1.03802e-10 -1.9516e-09 0)
(-5.49145e-11 -4.09596e-09 0)
(-6.46105e-11 -1.67865e-09 0)
(-1.29943e-11 -1.78122e-09 0)
(1.88299e-10 -5.15853e-09 0)
(0 0 0)
(0 0 0)
(0 0 0)
(0 0 0)
(0 0 0)
(0 0 0)
(0 0 0)
(0 0 0)
(0 0 0)
(0 0 0)
(0 0 0)
(0 0 0)
(0 0 0)
(0 0 0)
(0 0 0)
(0 0 0)
(0 0 0)
(0 0 0)
(0 0 0)
(0 0 0)
(0 0 0)
(0 0 0)
(0 0 0)
(0 0 0)
(0 0 0)
(0 0 0)
(-3.89259e-12 -2.00906e-09 0)
(-1.99445e-11 -1.89297e-09 0)
(6.48368e-11 -4.36279e-09 0)
(4.86812e-11 -1.86812e-09 0)
(1.1386e-10 -2.06182e-09 0)
(6.12228e-11 -2.13331e-09 0)
(-1.83026e-11 -2.11581e-09 0)
(4.36192e-12 -2.01256e-09 0)
(-1.26534e-11 -1.92253e-09 0)
(-1.05161e-10 -2.12888e-09 0)
(0 0 0)
(-7.28397e-11 -2.36729e-09 0)
(2.31272e-11 -2.27062e-09 0)
(9.48292e-12 -2.03179e-09 0)
(5.33879e-12 -1.88801e-09 0)
(-9.82029e-11 -2.10916e-09 0)
(2.7298e-11 -2.20092e-09 0)
(-4.4982e-11 -1.8738e-09 0)
(6.12701e-11 -1.94034e-09 0)
(1.23759e-10 -2.05914e-09 0)
(0 0 0)
(-1.79689e-11 -2.08276e-09 0)
(-5.90085e-11 -2.00647e-09 0)
(0 0 0)
(6.13816e-11 -2.02484e-09 0)
(9.35672e-11 -2.08747e-09 0)
(9.18456e-12 -3.42376e-09 0)
(-1.1859e-10 -3.48899e-09 0)
(-1.70748e-10 -2.16578e-09 0)
(-1.03496e-10 -2.09928e-09 0)
(-2.39301e-11 -1.96915e-09 0)
(6.51244e-12 -1.90704e-09 0)
(-1.50853e-11 -1.90207e-09 0)
(-1.71373e-11 -1.95959e-09 0)
(3.29302e-12 -2.03165e-09 0)
(-4.52968e-11 -2.03448e-09 0)
(-2.17262e-11 -2.04351e-09 0)
(-2.01891e-11 -2.08947e-09 0)
(3.39623e-11 -2.30207e-09 0)
(1.51719e-11 -2.495e-09 0)
(1.57925e-11 -2.28166e-09 0)
(1.91748e-11 -2.0171e-09 0)
(1.06316e-10 -1.88347e-09 0)
(1.36173e-10 -4.19066e-09 0)
(1.12915e-10 -4.31144e-09 0)
(7.98983e-11 -2.60398e-09 0)
(-6.63559e-11 -3.16392e-09 0)
(-3.81236e-11 -1.79697e-09 0)
(4.66145e-11 -2.1518e-09 0)
(-4.41686e-11 -2.27287e-09 0)
(0 0 0)
(0 0 0)
(0 0 0)
(0 0 0)
(0 0 0)
(0 0 0)
(0 0 0)
(0 0 0)
(0 0 0)
(0 0 0)
(0 0 0)
(0 0 0)
(0 0 0)
(0 0 0)
(0 0 0)
(0 0 0)
(0 0 0)
(0 0 0)
(0 0 0)
(0 0 0)
(0 0 0)
(0 0 0)
(0 0 0)
(0 0 0)
(4.60858e-11 -2.09018e-09 0)
(4.07835e-11 -2.98176e-09 0)
(3.03596e-11 -3.11672e-09 0)
(2.84675e-11 -1.80519e-09 0)
(3.20615e-11 -1.88858e-09 0)
(1.49111e-10 -2.84103e-09 0)
(1.33494e-10 -4.04725e-09 0)
(1.47787e-10 -2.1041e-09 0)
(2.26386e-11 -1.98158e-09 0)
(-8.37354e-11 -1.94315e-09 0)
(-1.26334e-10 -2.30294e-09 0)
(-6.50501e-12 -6.11669e-10 0)
(-1.17612e-11 -1.11982e-09 0)
(-1.77537e-11 -2.17759e-09 0)
(4.26219e-11 -2.03578e-09 0)
(2.09748e-11 -1.9835e-09 0)
(2.72373e-11 -2.3768e-09 0)
(0 0 0)
(2.70727e-11 -2.05324e-09 0)
(6.80944e-11 -1.89652e-09 0)
(1.05477e-10 -2.05051e-09 0)
(6.24816e-12 -2.37905e-09 0)
(5.17697e-11 -2.02221e-09 0)
(-9.52114e-12 -2.00182e-09 0)
(7.68694e-12 -1.97798e-09 0)
(1.74699e-11 -1.97099e-09 0)
(6.3485e-13 -2.11592e-09 0)
(-4.89675e-11 -2.49326e-09 0)
(-1.14177e-10 -2.32539e-09 0)
(-4.96326e-11 -2.33274e-09 0)
(0 0 0)
(3.06497e-11 -1.95294e-09 0)
(-3.48662e-11 -1.97849e-09 0)
(-5.6562e-11 -1.97942e-09 0)
(-2.21013e-11 -1.86846e-09 0)
(2.28259e-11 -4.20044e-09 0)
(-2.0098e-11 -1.91937e-09 0)
(-3.34902e-11 -1.91413e-09 0)
(5.4187e-12 -3.82799e-09 0)
(9.3489e-11 -2.7692e-09 0)
(1.40564e-10 -2.45137e-09 0)
(0 0 0)
(0 0 0)
(1.90082e-11 -1.72278e-09 0)
(8.60779e-11 -1.84582e-09 0)
(1.21991e-10 -3.79884e-09 0)
(-5.3385e-11 -2.72034e-09 0)
(-1.35003e-10 -1.84807e-09 0)
(-1.49761e-10 -1.84612e-09 0)
(-1.52775e-10 -1.86624e-09 0)
(-8.0911e-11 -5.28321e-09 0)
(0 0 0)
(0 0 0)
(0 0 0)
(0 0 0)
(0 0 0)
(0 0 0)
(0 0 0)
(0 0 0)
(0 0 0)
(0 0 0)
(0 0 0)
(0 0 0)
(0 0 0)
(0 0 0)
(0 0 0)
(0 0 0)
(0 0 0)
(0 0 0)
(0 0 0)
(0 0 0)
(0 0 0)
(0 0 0)
(0 0 0)
(0 0 0)
(4.82391e-11 -2.15419e-09 0)