/*--------------------------------*- C++ -*----------------------------------*\
  =========                 |
  \\      /  F ield         | OpenFOAM: The Open Source CFD Toolbox
   \\    /   O peration     | Website:  https://openfoam.org
    \\  /    A nd           | Version:  12
     \\/     M anipulation  |
\*---------------------------------------------------------------------------*/
FoamFile
{
    format      ascii;
    class       volScalarField::Internal;
    location    "0.45";
    object      cloud:UCoeff;
}
// * * * * * * * * * * * * * * * * * * * * * * * * * * * * * * * * * * * * * //

dimensions      [1 0 0 0 0 0 0];

value           nonuniform List<scalar> 
3750
(
5.62497e-08
5.6076e-08
0
5.67559e-08
5.72028e-08
5.87776e-08
5.9807e-08
5.9302e-08
5.76914e-08
5.71978e-08
5.75059e-08
1.39103e-07
5.7278e-08
5.72564e-08
6.02522e-08
5.79021e-08
1.40234e-07
5.38464e-08
5.50852e-08
5.66215e-08
5.75269e-08
6.027e-08
5.94144e-08
5.83743e-08
5.90656e-08
5.8105e-08
1.34799e-07
5.44492e-08
5.76927e-08
5.74145e-08
5.79558e-08
5.82276e-08
0
5.52241e-08
6.04083e-08
5.99737e-08
5.93085e-08
6.14671e-08
5.83371e-08
1.36987e-07
5.8347e-08
0
5.93792e-08
1.022e-07
1.22071e-08
1.43044e-07
5.81424e-08
5.59677e-08
8.31669e-08
1.12218e-07
5.79538e-08
5.56154e-08
5.72652e-08
0
5.71685e-08
5.90429e-08
5.75728e-08
6.23126e-08
5.76486e-08
5.57887e-08
0
0
0
0
0
0
0
0
0
0
0
0
0
0
0
2.28741e-07
1.40073e-07
5.56365e-08
5.55428e-08
0
5.75818e-08
0
5.97585e-08
5.72979e-08
5.61237e-08
1.44323e-07
5.86731e-08
0
0
0
6.49781e-08
4.53882e-08
1.33564e-07
5.42707e-08
1.36034e-07
1.37995e-07
5.60373e-08
5.75431e-08
5.85832e-08
0
0
5.50679e-08
5.52846e-08
5.51506e-08
5.87159e-08
6.06812e-08
0
2.3105e-07
5.37045e-08
0
0
5.85104e-08
1.35263e-07
1.33129e-07
1.31942e-07
5.59059e-08
5.52356e-08
5.68542e-08
0
0
6.26209e-08
5.801e-08
5.6974e-08
0
5.7125e-08
5.87645e-08
5.67977e-08
5.50143e-08
5.65936e-08
5.55232e-08
0
0
0
0
0
0
0
0
0
0
0
0
0
0
0
0
0
0
0
0
5.54413e-08
5.68053e-08
5.75262e-08
1.01687e-07
7.58991e-08
5.45768e-08
6.16979e-08
0
1.36755e-07
5.43816e-08
0
5.95599e-08
5.49187e-08
5.58564e-08
2.40863e-07
3.04e-08
5.23862e-09
5.78125e-08
5.73955e-08
1.34866e-07
5.76036e-08
5.85561e-08
0
5.84115e-08
5.82328e-08
5.77042e-08
5.63181e-08
5.52394e-08
5.62843e-08
1.41775e-07
5.43515e-08
5.88692e-08
1.32121e-07
5.60938e-08
1.42857e-07
6.04708e-08
0
5.92734e-08
5.79765e-08
5.76258e-08
5.85785e-08
5.94914e-08
5.68291e-08
5.69454e-08
5.61106e-09
4.88169e-08
8.81157e-08
3.07465e-08
2.41612e-07
5.77256e-08
5.64628e-08
5.61128e-08
5.5043e-08
5.37683e-08
0
0
0
0
0
0
0
0
0
0
0
0
0
0
0
0
0
0
0
0
0
8.23575e-09
5.63919e-08
1.38796e-07
8.93322e-08
9.05934e-08
5.5396e-08
6.17687e-08
0
5.8017e-08
5.70347e-08
6.14564e-08
2.8273e-08
8.01385e-08
5.63246e-08
0
5.85712e-08
1.71843e-09
5.60095e-08
5.81182e-08
5.64378e-08
5.81888e-08
5.79044e-08
5.88242e-08
6.26184e-08
6.05234e-08
5.55219e-08
5.36531e-08
5.31014e-08
1.36837e-07
5.58862e-08
5.73315e-08
5.70991e-08
5.75619e-08
6.05981e-08
7.18373e-08
9.0548e-08
1.10088e-08
5.8488e-08
5.76398e-08
5.7822e-08
5.86114e-08
5.85775e-08
5.70185e-08
5.74539e-08
5.79162e-08
5.85562e-08
5.85185e-08
5.87649e-08
5.72827e-08
1.35347e-07
5.46919e-08
5.4523e-08
0
0
0
0
0
0
0
0
0
0
0
0
0
0
0
0
0
0
0
0
0
0
0
1.36916e-07
5.50321e-08
0
5.3533e-08
5.76104e-08
5.84139e-08
1.62012e-08
3.00434e-08
5.89536e-08
0
5.83281e-08
5.86319e-08
9.70348e-08
1.68247e-08
5.67164e-08
5.80132e-08
5.83699e-08
5.9896e-08
0
5.78983e-08
5.75182e-08
5.7911e-08
5.87494e-08
5.92783e-08
5.90755e-08
5.75038e-08
1.34395e-07
5.33792e-08
5.66337e-08
5.68944e-08
5.79845e-08
5.99273e-08
1.26085e-08
3.596e-08
5.87306e-08
5.91028e-08
5.95516e-08
5.74576e-08
5.72157e-08
6.73717e-08
1.32508e-07
5.7202e-08
5.66724e-08
5.61396e-08
5.68069e-08
5.75838e-08
0
0
5.59467e-08
5.73983e-08
5.65448e-08
1.37727e-07
0
0
0
0
0
0
0
0
0
0
0
0
0
0
0
0
0
0
0
0
0
0
0
5.23558e-08
5.46729e-08
5.60682e-08
5.57043e-08
5.97773e-08
0
5.8552e-08
6.12914e-08
8.23573e-09
4.39836e-08
5.80739e-08
5.84495e-08
5.87773e-08
6.01359e-08
0
5.64761e-08
5.71314e-08
5.89221e-08
5.94678e-08
5.87414e-08
5.82448e-08
5.7351e-08
1.40742e-07
5.65847e-08
5.69591e-08
5.67105e-08
5.57913e-08
5.56072e-08
5.60222e-08
5.99378e-08
5.83728e-08
1.10379e-07
8.27646e-09
6.03926e-08
5.7924e-08
5.78276e-08
5.7342e-08
5.76267e-08
5.90595e-08
5.92249e-08
5.88417e-08
5.91392e-08
5.76044e-08
5.6817e-08
5.74101e-08
5.72638e-08
1.01223e-07
8.51751e-08
5.60378e-08
0
0
5.84783e-08
5.66749e-08
0
0
0
0
0
0
0
0
0
0
0
0
0
0
0
0
0
0
0
0
0
0
2.57746e-08
8.48922e-08
2.77369e-08
5.49425e-08
5.7586e-08
5.87047e-08
5.80271e-08
5.89028e-08
5.97773e-08
0
5.65875e-08
5.86817e-08
5.93854e-08
5.93929e-08
5.90134e-08
5.72426e-08
5.90117e-08
1.38246e-07
5.63044e-08
1.41881e-07
5.56223e-08
5.52965e-08
5.56551e-08
5.80217e-08
5.78561e-08
5.77677e-08
5.88638e-08
5.68856e-08
5.59177e-08
5.85806e-08
5.76067e-08
5.78211e-08
6.12764e-08
1.75175e-08
1.02568e-07
5.66052e-08
5.65023e-08
5.69104e-08
6.11916e-08
0
5.97413e-08
5.81209e-08
5.78869e-08
1.39244e-07
5.59719e-08
5.75148e-08
5.72893e-08
1.41021e-07
1.26289e-09
6.57336e-08
1.2771e-07
0
5.54721e-08
0
0
0
0
0
0
0
0
0
0
0
0
0
0
0
0
0
0
0
0
0
0
5.70598e-08
5.80636e-08
5.82277e-08
5.63744e-08
5.63076e-08
5.78381e-08
5.72055e-08
5.78624e-08
5.86902e-08
5.75809e-08
8.02131e-08
1.17448e-07
0
5.9208e-08
5.78764e-08
5.64604e-08
1.34444e-07
9.47168e-08
1.1419e-07
1.15662e-07
5.67222e-08
5.42973e-08
0
5.70215e-08
5.87223e-08
5.73064e-08
5.99549e-08
0
5.63528e-08
5.68911e-08
5.78115e-08
5.79782e-08
5.9297e-08
6.20621e-08
1.40572e-07
5.7191e-08
2.65943e-08
8.06046e-09
5.8675e-08
6.13579e-08
5.31776e-09
4.93171e-08
5.76969e-08
5.76819e-08
8.69862e-08
1.08182e-07
5.63391e-08
5.79932e-08
5.77296e-08
5.51062e-08
1.34353e-07
5.58637e-08
5.56576e-08
0
0
0
0
0
0
0
0
0
0
0
0
0
0
0
0
0
0
0
0
0
0
1.54581e-08
1.07965e-07
5.62103e-08
5.50908e-08
5.64836e-08
5.70011e-08
5.79928e-08
5.79897e-08
1.37408e-07
8.09201e-08
1.06355e-07
5.84248e-08
8.65239e-08
2.86251e-08
5.74879e-08
5.7023e-08
5.56309e-08
1.35977e-07
5.4386e-08
1.47066e-07
0
5.62609e-08
5.75275e-08
6.02075e-08
0
5.81805e-08
5.7508e-08
2.88067e-08
2.44606e-08
4.30036e-08
9.56576e-08
9.20833e-08
5.66153e-08
5.68087e-08
5.73757e-08
5.71171e-08
5.75233e-08
5.76784e-08
5.89079e-08
5.86335e-08
3.94309e-09
5.05089e-08
5.73585e-08
5.91424e-08
6.17726e-08
0
5.72682e-08
5.8108e-08
5.74835e-08
5.78098e-08
5.63207e-08
5.54578e-08
5.50907e-08
0
0
0
0
0
0
0
0
0
0
0
0
0
0
0
0
0
0
0
0
0
0
5.82712e-08
5.65394e-08
5.62871e-08
5.66942e-08
5.62491e-08
8.16608e-08
1.08372e-07
5.51148e-08
6.58588e-08
1.21925e-07
1.40586e-07
5.84996e-08
5.86594e-08
5.89231e-08
8.23726e-08
5.33524e-08
3.41435e-08
5.74364e-08
8.75058e-08
2.82673e-08
5.81958e-08
5.7612e-08
5.7436e-08
5.71151e-08
0
5.85391e-08
5.86106e-08
0
5.76507e-08
5.87229e-08
5.85427e-08
5.86728e-08
8.65596e-08
1.01922e-07
5.58416e-08
5.65978e-08
5.75444e-08
5.82979e-08
1.04875e-08
3.78363e-08
5.81626e-08
5.7921e-08
5.68069e-08
6.07977e-08
0
5.84131e-08
6.0622e-08
0
5.79649e-08
5.73389e-08
5.98131e-08
5.64577e-08
5.66946e-08
5.65598e-08
0
0
0
0
0
0
0
0
0
0
0
0
0
0
0
0
0
0
0
0
0
0
5.74101e-08
5.63338e-08
5.72683e-08
5.89268e-08
5.87395e-08
5.76478e-08
1.38102e-07
5.51786e-08
5.5572e-08
1.35733e-07
1.44797e-07
5.79021e-08
1.03667e-07
8.09736e-08
5.41207e-08
5.44681e-08
5.84597e-08
0
5.87183e-08
1.38367e-07
5.60604e-08
5.58512e-08
0
5.58684e-08
5.79938e-08
5.61048e-08
5.74483e-08
5.78129e-08
6.06525e-08
0
5.84821e-08
5.8395e-08
5.765e-08
5.72105e-08
1.42476e-07
5.63997e-08
5.62864e-08
5.71698e-08
5.83171e-08
5.68216e-08
2.0618e-08
6.01522e-08
9.34166e-08
0
5.81891e-08
6.02842e-08
0
5.79534e-08
0
5.85685e-08
5.58102e-08
5.72658e-08
5.9268e-08
5.87801e-08
0
0
0
0
0
0
0
0
0
0
0
0
0
0
0
0
0
0
0
0
5.58523e-08
5.62053e-08
5.68421e-08
5.69532e-08
6.04361e-08
2.70784e-08
1.31059e-08
5.86791e-08
5.73842e-08
5.7049e-08
5.64012e-08
1.45057e-07
6.02818e-08
5.6536e-08
1.40951e-07
5.34958e-08
5.49538e-08
1.35026e-07
5.64423e-08
0
0
5.68153e-08
5.7786e-08
5.76152e-08
5.9909e-08
5.86983e-08
5.73314e-08
5.53656e-08
5.74244e-08
6.29672e-08
0
5.80123e-08
5.80157e-08
5.80513e-08
5.77605e-08
5.91288e-08
5.90501e-08
5.80578e-08
6.20816e-08
1.37943e-07
5.81142e-08
5.65585e-08
2.52437e-08
1.19783e-08
1.39857e-07
5.67485e-08
5.83302e-08
0
5.65167e-08
5.68501e-08
1.35206e-07
5.38465e-08
5.50994e-08
5.95259e-08
0
0
0
0
0
0
0
0
0
0
0
0
0
0
0
0
0
0
0
0
0
5.7482e-08
5.87857e-08
0
5.84893e-08
8.79253e-08
1.04787e-07
0
0
0
0
0
0
0
6.46065e-08
5.90046e-08
0
0
0
1.39532e-07
5.96435e-08
0
5.79346e-08
5.72957e-08
5.6722e-08
9.06665e-08
9.62109e-08
1.36079e-07
5.5334e-08
5.70664e-08
1.6746e-08
4.31894e-08
8.17059e-08
8.04123e-08
3.17138e-08
2.93611e-08
5.82797e-08
5.88114e-08
5.79932e-08
9.58249e-08
9.93006e-08
5.78139e-08
5.6128e-08
2.21192e-08
1.85461e-08
0
5.83465e-08
2.86152e-08
7.38248e-08
5.62699e-08
1.35797e-07
7.77734e-08
1.09172e-07
5.61073e-08
0
0
0
0
0
0
0
0
0
0
0
0
0
0
0
0
0
0
0
0
0
0
5.65311e-08
5.8044e-08
6.04632e-08
5.52406e-08
5.47151e-08
1.16249e-08
1.19334e-07
5.93896e-08
5.62219e-08
5.596e-08
0
5.72977e-08
1.4918e-07
0
5.93956e-08
6.29349e-08
8.16078e-08
1.05867e-07
5.63687e-08
5.89559e-08
5.82997e-08
5.73988e-08
5.72373e-08
5.68966e-08
1.36033e-07
1.39627e-07
5.45073e-08
5.54602e-08
5.58177e-08
5.93937e-08
6.05811e-08
9.0362e-08
7.70831e-08
3.80598e-08
2.42847e-08
5.81304e-08
5.84245e-08
5.89884e-08
6.11219e-08
6.05231e-08
5.86924e-08
5.88964e-08
5.74014e-08
5.71309e-08
5.81385e-08
5.79815e-08
0
0
6.07365e-08
5.82755e-08
5.59335e-08
5.58485e-08
0
0
0
0
0
0
0
0
0
0
0
0
0
0
0
0
0
0
0
0
0
0
0
5.69122e-08
5.69522e-08
5.82158e-08
5.65066e-08
5.55847e-08
5.85041e-08
0
1.45687e-07
5.5218e-08
0
1.32009e-07
1.38411e-07
2.79761e-08
1.13378e-08
5.89567e-08
5.71899e-08
5.74659e-08
5.83029e-08
5.69821e-08
5.68732e-08
5.72419e-08
5.69235e-08
5.73458e-08
5.94339e-08
5.8633e-08
5.79389e-08
5.73618e-08
5.65223e-08
6.87462e-08
1.31557e-07
5.96328e-08
5.54287e-08
5.63345e-08
5.51399e-08
5.65685e-08
5.78597e-08
6.00026e-08
6.16456e-08
6.08245e-08
5.73926e-08
5.78186e-08
5.76794e-08
5.70736e-08
8.62745e-08
1.00606e-07
1.37e-07
5.51934e-08
1.32173e-07
1.3943e-07
0
5.66116e-08
0
0
0
0
0
0
0
0
0
0
0
0
0
0
0
0
0
0
0
0
0
0
0
0
5.72198e-08
5.71214e-08
5.79351e-08
7.54459e-08
1.12498e-07
5.75849e-08
0
5.75793e-08
9.96855e-08
6.9995e-08
1.52803e-07
5.88582e-08
6.03873e-08
1.10067e-08
3.79945e-08
5.52387e-08
1.42348e-07
5.60332e-08
5.58737e-08
5.6564e-08
5.75021e-08
0
5.66078e-08
6.0084e-08
0
5.85973e-08
5.82468e-08
5.75773e-08
5.79314e-08
1.45353e-07
5.75397e-08
1.37873e-07
5.43379e-08
5.52067e-08
5.66294e-08
0
9.02194e-08
7.14652e-08
1.5781e-08
1.12463e-07
7.87635e-08
5.80396e-08
5.49381e-08
5.52394e-08
5.70294e-08
5.66831e-08
1.3307e-07
5.35535e-08
5.47354e-08
1.43951e-07
0
0
0
0
0
0
0
0
0
0
0
0
0
0
0
0
0
0
0
0
0
0
0
0
0
0
5.72813e-08
5.60032e-08
1.3596e-07
5.57306e-08
5.78848e-08
5.86214e-08
5.84278e-08
5.73193e-08
5.63317e-08
5.85925e-08
0
6.10328e-08
6.00421e-08
5.75279e-08
5.59466e-08
5.83804e-08
5.93226e-08
5.57933e-08
5.65391e-08
5.7862e-08
0
5.80759e-08
5.72625e-08
0
5.74625e-08
5.8148e-08
9.55278e-08
9.7487e-08
5.90243e-08
5.82786e-08
5.68471e-08
5.61591e-08
5.61043e-08
5.67412e-08
5.7526e-08
5.75621e-08
5.76553e-08
5.81477e-08
6.03635e-08
6.22888e-08
6.01545e-08
5.73695e-08
5.59295e-08
1.34092e-07
1.35376e-07
7.9771e-08
1.02806e-07
5.49205e-08
5.88117e-08
6.00687e-08
0
0
0
0
0
0
0
0
0
0
0
0
0
0
0
0
0
0
0
0
0
0
0
0
5.81598e-08
8.70052e-08
9.8444e-08
5.50124e-08
5.5956e-08
8.39122e-08
1.0992e-07
5.8358e-08
5.69831e-08
5.65795e-08
6.04056e-08
1.62138e-08
3.02344e-08
5.90782e-08
5.75755e-08
5.70036e-08
6.1119e-08
0
5.77609e-08
5.60554e-08
5.77585e-08
6.11394e-08
5.74311e-08
5.72028e-08
5.69424e-08
5.68665e-08
5.84277e-08
6.22754e-08
6.06274e-08
6.06791e-08
0
5.667e-08
5.69512e-08
5.69669e-08
5.57287e-08
1.34181e-07
5.62973e-08
5.62411e-08
1.12245e-07
7.41184e-08
6.19e-08
0
0
5.40586e-08
5.54947e-08
1.07338e-07
7.97541e-08
5.55532e-08
5.55442e-08
5.57727e-08
1.45186e-07
0
0
0
0
0
0
0
0
0
0
0
0
0
0
0
0
0
0
0
0
0
0
0
0
5.88378e-08
5.6737e-08
1.35175e-07
5.35501e-08
1.34235e-07
5.52156e-08
5.79039e-08
5.8696e-08
5.83531e-08
5.64496e-08
5.64364e-08
5.8259e-08
5.93434e-08
0
5.75439e-08
5.76602e-08
5.9337e-08
5.97854e-08
5.80697e-08
5.61709e-08
5.72049e-08
5.77073e-08
5.82636e-08
5.58813e-08
5.54259e-08
5.6572e-08
5.88874e-08
6.34191e-08
0
5.88781e-08
5.84945e-08
6.13665e-08
0
0
5.56848e-08
1.08118e-07
6.98812e-08
5.5504e-08
5.58873e-08
1.42029e-07
5.79368e-08
1.43444e-07
1.27425e-07
5.09402e-08
1.36173e-07
6.04955e-08
6.02016e-08
5.74472e-08
5.4222e-08
5.47982e-08
5.59862e-08
0
0
0
0
0
0
0
0
0
0
0
0
0
0
0
0
0
0
0
0
0
0
0
0
1.45618e-07
5.60631e-08
7.39478e-08
1.0791e-07
1.33001e-07
5.42068e-08
5.55649e-08
1.42054e-07
6.0033e-08
0
5.80554e-08
5.79822e-08
5.87753e-08
5.92325e-08
0
5.82773e-08
5.90833e-08
5.95506e-08
5.83522e-08
5.69732e-08
5.70688e-08
5.81045e-08
5.64612e-08
5.92105e-08
5.82689e-08
5.76536e-08
6.01005e-08
0
6.17466e-08
5.91337e-08
5.81245e-08
5.92322e-08
5.90201e-08
5.65202e-08
5.68739e-08
6.27993e-08
1.26224e-07
5.43473e-08
5.69994e-08
1.02007e-07
9.06562e-08
3.03989e-08
5.6714e-09
5.3222e-08
5.66644e-08
5.83761e-08
1.46918e-07
5.64737e-08
5.43083e-08
5.4693e-08
5.59552e-08
0
0
0
0
0
0
0
0
0
0
0
0
0
0
0
0
0
0
0
0
0
0
0
0
5.80627e-08
5.74057e-08
5.65563e-08
1.34812e-07
5.38139e-08
9.71292e-08
7.80866e-08
5.67139e-08
6.35466e-08
1.38291e-07
4.11562e-09
4.96418e-08
5.79627e-08
5.78907e-08
5.81834e-08
5.90235e-08
0
5.83424e-08
5.75177e-08
5.70456e-08
5.77275e-08
5.86054e-08
5.87741e-08
5.79011e-08
5.74717e-08
5.82754e-08
6.27726e-08
0
5.93026e-08
5.73996e-08
5.74525e-08
5.89733e-08
5.89039e-08
5.90512e-08
1.04702e-07
7.44737e-08
5.36796e-08
5.50181e-08
1.41628e-07
5.76153e-08
6.07035e-08
0
5.94271e-08
5.85706e-08
5.86676e-08
6.20409e-08
0
0
0
0
1.32917e-07
5.53532e-08
5.4897e-08
0
0
0
0
0
0
0
0
0
0
0
0
0
0
0
0
0
0
0
0
0
0
5.90584e-08
5.81858e-08
5.76566e-08
5.72101e-08
5.66692e-08
1.37097e-07
5.52711e-08
5.645e-08
7.55081e-08
1.18053e-07
5.66309e-08
5.67747e-08
5.6936e-08
5.72544e-08
5.82997e-08
5.92201e-08
2.63432e-08
1.14335e-08
5.8011e-08
5.83566e-08
5.82469e-08
6.09003e-08
5.81158e-08
5.76713e-08
5.73086e-08
5.8742e-08
6.13691e-08
5.91449e-08
5.81966e-08
5.65025e-08
8.31645e-08
1.09207e-07
3.01886e-08
3.96898e-08
2.18646e-08
5.66366e-08
5.5442e-08
5.68025e-08
5.74275e-08
5.83977e-08
5.99479e-08
5.94857e-08
6.10873e-08
1.90767e-08
2.37e-08
5.78988e-08
5.98078e-08
6.06202e-08
5.42655e-08
1.31112e-07
5.46909e-08
5.69979e-08
5.67825e-08
5.75834e-08
0
0
0
0
0
0
0
0
0
0
0
0
0
0
0
0
0
0
0
0
0
0
0
0
0
0
0
7.31855e-08
1.20537e-07
5.61957e-08
5.71733e-08
5.69615e-08
5.61911e-08
5.57015e-08
5.88016e-08
5.80759e-08
5.77723e-08
6.86341e-08
4.60715e-08
5.73221e-08
5.94424e-08
5.93016e-08
5.84125e-08
5.79446e-08
5.78454e-08
5.77287e-08
1.08123e-07
7.87937e-08
1.41581e-07
5.59472e-08
5.50126e-08
5.73914e-08
6.01342e-08
0
5.74624e-08
6.16242e-08
9.01116e-09
4.32274e-08
5.74754e-08
5.69405e-08
0
5.85048e-08
6.01369e-08
5.93088e-08
5.8792e-08
5.9725e-08
6.17796e-08
0
5.87302e-08
5.72031e-08
5.47372e-08
5.60817e-08
5.63986e-08
5.72159e-08
5.70383e-08
0
0
0
0
0
0
0
0
0
0
0
0
0
0
0
0
0
0
0
0
0
5.72548e-08
5.61421e-08
5.70346e-08
5.76716e-08
6.12131e-08
0
0
0
5.92448e-08
5.99999e-08
5.83224e-08
5.78531e-08
5.73547e-08
5.67205e-08
8.18891e-08
1.14561e-07
5.65757e-08
5.49078e-08
5.68922e-08
5.76037e-08
7.49545e-08
1.19543e-07
5.62596e-08
9.69748e-08
1.82343e-07
2.99038e-08
3.85224e-09
5.72605e-08
5.81145e-08
5.44854e-08
5.78963e-08
3.94168e-09
5.30931e-08
0
5.8477e-08
6.05326e-08
0
5.80173e-08
5.8535e-08
5.93266e-08
6.08012e-08
6.09976e-08
2.70933e-08
1.10311e-08
5.80369e-08
5.92197e-08
5.92469e-08
5.79525e-08
5.98354e-08
5.77726e-08
5.67166e-08
5.68924e-08
5.66896e-08
5.56262e-08
0
0
0
0
0
0
0
0
0
0
0
0
0
0
0
0
0
0
0
0
0
1.36206e-07
5.55527e-08
5.59505e-08
5.78024e-08
5.79901e-08
5.73241e-08
5.65275e-08
7.8413e-08
3.79069e-08
5.78362e-08
5.83848e-08
5.72812e-08
5.68415e-08
5.72015e-08
5.80736e-08
5.8441e-08
1.41321e-07
5.49608e-08
1.38918e-07
5.42466e-08
1.35095e-07
5.55381e-08
8.93702e-08
9.51798e-08
6.0229e-08
2.78648e-08
7.81347e-09
6.16248e-08
0
5.66904e-08
5.51621e-08
5.72432e-08
1.32766e-07
1.37233e-07
0
6.05131e-08
1.90686e-08
2.2117e-08
5.77979e-08
5.85207e-08
6.14528e-08
0
5.88656e-08
5.80625e-08
5.80617e-08
5.87194e-08
5.81268e-08
5.77533e-08
5.78363e-08
7.26193e-08
1.18177e-07
5.47941e-08
5.52296e-08
0
0
0
0
0
0
0
0
0
0
0
0
0
0
0
0
0
0
0
0
0
0
5.77663e-08
1.37582e-07
5.65049e-08
5.51028e-08
5.76694e-08
6.15822e-08
1.34581e-07
5.62193e-08
5.699e-08
5.76362e-08
5.77271e-08
0
5.69473e-08
5.75114e-08
1.43925e-07
5.70795e-08
5.77288e-08
5.79652e-08
5.78325e-08
5.68416e-08
1.34853e-07
1.35012e-07
5.65924e-08
5.58702e-08
5.77886e-08
5.93828e-08
5.87385e-08
0
1.36316e-07
1.39898e-07
5.61102e-08
1.37146e-07
5.69266e-08
2.32485e-08
1.44653e-07
2.28675e-08
4.58518e-08
5.67662e-08
5.71439e-08
5.74929e-08
5.92697e-08
5.8471e-08
5.80697e-08
1.38479e-07
5.53994e-08
5.70866e-08
5.77389e-08
5.76341e-08
5.76465e-08
5.81314e-08
5.85417e-08
5.75566e-08
0
0
0
0
0
0
0
0
0
0
0
0
0
0
0
0
0
0
0
0
0
0
0
0
0
5.71651e-08
1.4043e-07
5.61739e-08
5.73879e-08
5.80824e-08
0
3.89577e-09
1.25583e-07
5.42372e-08
5.54901e-08
5.75008e-08
5.91807e-08
5.94134e-08
5.84097e-08
5.68094e-08
5.71301e-08
5.7227e-08
0
0
1.42079e-07
5.64026e-08
1.36657e-07
1.34913e-07
5.5006e-08
5.68635e-08
5.66456e-08
0
0
5.88141e-08
6.02255e-08
5.76344e-08
0
5.65362e-08
2.88914e-08
8.8429e-09
1.36695e-07
5.59783e-08
8.44815e-08
7.7388e-08
7.38116e-09
5.73284e-08
5.82983e-08
5.74914e-08
5.80909e-08
5.82589e-08
5.81901e-08
5.78155e-08
5.77462e-08
0
5.6133e-08
5.78878e-08
0
0
0
0
0
0
0
0
0
0
0
0
0
0
0
0
0
0
0
0
0
0
5.66795e-08
5.78256e-08
5.827e-08
5.82838e-08
1.041e-07
7.68056e-09
5.84142e-08
6.11229e-08
0
0
5.57598e-08
5.64622e-08
8.80162e-08
1.03177e-07
5.84791e-08
5.71087e-08
5.61583e-08
5.61134e-08
2.03858e-08
4.76619e-08
1.16282e-07
2.73266e-08
8.58058e-08
2.9029e-08
7.02821e-09
1.3554e-07
5.63869e-08
5.65415e-08
5.73995e-08
5.77097e-08
5.90846e-08
5.79304e-08
0
5.35297e-08
5.69202e-08
1.44931e-07
5.71133e-08
5.60881e-08
5.55337e-08
9.7101e-08
1.50645e-08
5.81997e-08
5.88614e-08
1.40367e-08
3.11937e-08
5.7915e-08
5.81163e-08
5.8464e-08
5.85886e-08
5.72014e-08
5.67819e-08
5.66965e-08
5.66687e-08
0
0
0
0
0
0
0
0
0
0
0
0
0
0
0
0
0
0
0
0
0
0
5.48824e-08
6.05596e-08
5.7812e-08
5.45047e-08
5.44671e-08
5.71455e-08
6.09029e-08
2.47854e-08
1.6092e-08
5.72426e-08
1.3672e-07
5.54636e-08
5.62983e-08
6.74065e-08
1.27511e-07
5.63719e-08
5.64906e-08
5.68389e-08
5.7349e-08
6.00398e-08
0
1.41894e-07
5.86845e-08
5.7889e-08
0
5.63634e-08
5.70579e-08
5.75487e-08
5.76565e-08
0
1.35387e-07
5.52346e-08
5.77777e-08
1.44694e-07
1.21207e-07
1.47693e-07
5.52419e-08
1.33805e-07
5.44966e-08
5.58292e-08
1.37613e-07
1.36318e-07
2.18063e-08
4.07751e-08
3.38596e-08
5.57289e-08
0
5.85071e-08
5.93523e-08
5.8621e-08
0
6.31313e-10
1.32356e-07
5.47461e-08
0
0
0
0
0
0
0
0
0
0
0
0
0
0
0
0
0
0
0
0
0
0
1.35981e-07
1.4285e-07
5.56898e-08
5.69866e-08
5.74927e-08
5.86977e-08
5.94658e-08
5.67058e-08
5.7023e-08
5.92711e-08
5.89421e-08
5.63879e-08
5.57227e-08
5.61424e-08
5.72894e-08
5.8329e-08
5.61704e-08
5.34031e-08
1.35687e-07
1.39481e-07
6.05477e-08
0
5.77608e-08
0
5.65972e-08
5.81492e-08
0
1.34345e-07
1.3506e-07
0
5.69975e-08
5.8011e-08
5.98092e-08
0
5.96634e-08
6.02313e-08
5.74008e-08
5.5601e-08
5.58513e-08
0
6.13367e-08
5.79733e-08
0
1.37544e-07
5.69939e-08
5.83503e-08
6.00142e-08
0
5.79475e-08
2.63208e-08
1.60253e-07
5.51291e-08
5.46212e-08
0
0
0
0
0
0
0
0
0
0
0
0
0
0
0
0
0
0
0
0
0
5.81783e-08
6.9071e-08
1.22292e-07
5.84467e-08
9.88981e-08
8.48118e-08
5.58862e-08
5.78033e-08
0
1.00951e-07
8.63911e-08
5.91731e-08
5.5887e-08
5.5547e-08
5.6501e-08
0
5.83855e-08
5.72287e-08
9.13452e-08
1.95948e-08
5.77742e-08
6.03946e-08
6.05785e-08
0
5.80474e-08
5.76311e-08
5.7928e-08
5.70294e-08
0
0
1.32979e-07
1.34016e-07
1.41483e-07
0
1.39767e-07
8.70474e-08
1.0077e-07
5.65364e-08
5.79156e-08
5.73135e-08
5.81013e-08
6.11118e-08
5.88868e-08
5.70942e-08
0
5.62047e-08
5.58019e-08
5.74145e-08
5.88138e-08
3.27062e-08
1.0091e-09
5.71461e-08
5.77906e-08
0
0
0
0
0
0
0
0
0
0
0
0
0
0
0
0
0
0
0
0
0
0
5.8969e-08
2.99471e-08
7.78689e-08
5.86348e-08
5.54009e-08
5.47119e-08
5.50485e-08
5.63362e-08
8.30867e-08
1.04226e-07
1.36841e-07
5.67543e-08
5.72934e-08
5.67334e-08
0
7.19244e-08
1.1935e-07
5.86134e-08
5.83703e-08
5.50931e-08
5.77935e-08
6.18933e-08
4.60234e-09
5.10517e-08
5.80366e-08
5.80426e-08
5.77767e-08
0
1.35445e-07
9.01871e-08
8.81616e-08
1.34145e-07
5.63614e-08
5.62711e-08
5.68127e-08
1.40573e-07
5.72839e-08
6.01758e-08
6.7989e-09
4.60186e-08
5.77312e-08
5.84199e-08
7.08382e-08
8.63795e-08
9.43089e-08
5.70307e-08
0
1.34169e-07
1.72553e-08
2.56944e-08
5.86545e-08
5.68027e-08
5.65656e-08
0
0
0
0
0
0
0
0
0
0
0
0
0
0
0
0
0
0
0
0
0
0
5.77035e-08
1.43104e-07
5.56693e-08
0
0
0
0
0
1.39356e-07
5.68968e-08
5.69153e-08
5.79175e-08
5.85261e-08
5.82101e-08
0
5.81443e-08
6.0532e-08
1.68144e-08
2.70901e-08
5.93577e-08
6.37962e-08
0
6.01099e-08
5.91426e-08
5.9143e-08
5.71949e-08
5.67244e-08
1.33636e-07
1.33823e-07
1.3449e-07
5.4533e-08
5.5908e-08
5.7749e-08
5.76431e-08
5.56154e-08
6.54222e-08
5.11383e-08
5.89227e-08
6.02592e-08
5.81785e-08
5.7522e-08
5.81877e-08
5.79397e-08
5.76263e-08
5.80832e-08
5.78105e-08
1.36212e-07
5.5804e-08
9.43409e-08
1.86324e-07
5.60562e-08
5.19607e-08
0
0
0
0
0
0
0
0
0
0
0
0
0
0
0
0
0
0
0
0
0
0
0
5.57604e-08
5.77062e-08
5.91231e-08
5.77806e-08
5.73594e-08
5.59478e-08
7.55347e-08
2.14821e-07
5.60756e-08
5.66862e-08
1.41787e-07
0
5.91133e-08
5.92568e-08
5.7601e-08
5.90589e-08
2.63861e-08
1.16893e-08
5.74895e-08
1.90333e-08
2.51698e-08
6.09198e-08
5.95869e-08
9.1952e-08
9.89893e-08
5.73151e-08
5.60256e-08
0
0
0
0
5.7768e-08
6.29929e-08
1.32184e-07
5.8426e-08
6.23833e-08
2.18956e-08
2.02659e-08
5.7257e-08
5.79018e-08
5.80706e-08
5.82043e-08
5.80816e-08
5.8122e-08
5.76102e-08
5.7554e-08
5.70339e-08
5.7033e-08
5.66562e-08
5.59812e-08
1.36787e-07
6.48128e-08
4.75727e-08
0
0
0
0
0
0
0
0
0
0
0
0
0
0
0
0
0
0
0
0
0
0
0
5.76369e-08
5.9869e-08
5.76594e-08
7.85652e-08
1.08817e-07
5.62644e-08
2.67749e-08
7.50015e-08
6.03137e-08
2.8605e-08
7.97031e-08
5.63686e-08
5.61412e-08
5.80833e-08
5.79899e-08
5.84803e-08
5.82211e-08
5.79772e-08
6.10348e-08
6.01173e-08
5.88481e-08
5.6989e-08
1.3836e-07
0
0
0
5.7445e-08
1.3645e-07
5.51987e-08
1.34006e-07
5.6129e-08
1.76874e-09
9.51481e-08
9.20693e-08
1.45397e-08
3.74459e-08
5.88938e-08
5.80614e-08
5.82323e-08
5.82888e-08
5.85807e-08
5.88327e-08
5.75246e-08
5.53876e-08
1.35228e-07
5.50017e-08
5.6777e-08
5.79938e-08
2.5074e-08
1.22871e-08
5.77164e-08
5.75183e-08
0
0
0
0
0
0
0
0
0
0
0
0
0
0
0
0
0
0
0
0
0
0
6.1286e-08
5.28597e-08
0
5.92619e-08
5.80036e-08
5.66943e-08
5.58787e-08
1.32179e-07
5.28867e-08
5.75222e-08
7.93696e-08
1.12974e-07
5.68881e-08
5.73935e-08
5.75092e-08
5.6492e-08
5.84276e-08
5.79219e-08
5.60178e-08
5.75031e-08
1.45007e-07
5.70777e-08
5.66311e-08
5.67383e-08
5.69387e-08
5.85073e-08
5.84755e-08
5.8068e-08
5.77925e-08
5.74507e-08
1.37116e-07
1.39265e-07
5.41966e-08
5.42984e-08
5.95327e-08
6.36098e-08
0
5.8568e-08
5.77818e-08
5.49327e-08
5.68294e-08
1.44174e-07
5.59658e-08
5.58753e-08
6.78444e-08
1.19144e-07
5.48518e-08
5.54853e-08
5.7754e-08
0
5.88859e-08
5.71475e-08
5.75063e-08
0
0
0
0
0
0
0
0
0
0
0
0
0
0
0
0
0
0
0
0
0
0
5.72274e-08
5.72158e-08
5.81004e-08
5.79775e-08
5.75828e-08
5.73312e-08
1.36167e-07
5.5049e-08
0
0
0
5.79375e-08
1.42254e-07
2.86356e-08
6.42805e-09
9.76879e-08
9.40154e-08
5.63399e-08
5.59707e-08
5.78816e-08
5.90099e-08
5.84025e-08
5.76694e-08
5.74503e-08
5.71383e-08
5.79228e-08
5.86601e-08
5.83558e-08
5.85535e-08
5.79276e-08
5.6986e-08
5.43009e-08
5.72596e-08
0
5.79257e-08
5.89112e-08
5.82018e-08
5.72482e-08
1.40899e-07
5.64064e-08
5.68729e-08
5.74841e-08
6.01526e-08
5.60431e-08
1.36033e-07
5.56576e-08
5.51999e-08
5.5774e-08
5.70692e-08
6.00032e-08
5.95249e-08
5.65547e-08
5.64188e-08
0
0
0
0
0
0
0
0
0
0
0
0
0
0
0
0
0
0
0
0
0
0
5.70666e-08
1.35483e-07
5.5041e-08
5.55613e-08
5.73302e-08
8.88964e-08
1.9686e-08
5.83906e-08
5.97854e-08
5.67535e-08
5.4282e-08
5.62054e-08
5.66721e-08
1.08024e-07
8.03469e-08
0
5.81559e-08
5.71984e-08
5.85613e-08
1.40812e-07
5.77506e-08
5.7536e-08
5.83375e-08
5.64246e-08
5.75582e-08
5.82554e-08
1.42245e-07
5.50428e-08
1.37249e-07
5.58834e-08
5.50421e-08
5.56886e-08
5.70504e-08
6.15238e-08
2.42478e-08
1.53655e-08
5.85197e-08
1.03735e-07
8.02967e-08
5.67042e-08
5.82454e-08
9.83108e-08
1.41593e-08
5.79992e-08
5.57046e-08
5.54489e-08
5.51787e-08
5.65653e-08
5.92657e-08
6.29664e-08
5.73425e-08
5.50417e-08
0
0
0
0
0
0
0
0
0
0
0
0
0
0
0
0
0
0
0
0
0
0
0
2.0665e-08
1.74523e-08
2.07672e-08
8.2943e-08
1.34692e-07
5.44194e-08
5.71887e-08
9.85362e-08
9.01296e-08
5.87309e-08
5.41866e-08
1.29266e-07
5.38144e-08
5.55719e-08
1.4319e-07
2.41692e-08
8.21471e-08
5.65496e-08
5.70064e-08
1.0772e-07
8.04058e-08
5.9911e-08
5.94535e-08
2.89997e-08
6.94561e-08
5.951e-08
5.68706e-08
5.46973e-08
5.89636e-08
1.16498e-08
3.54518e-08
0
5.75098e-08
5.84164e-08
5.87927e-08
1.45495e-07
5.72369e-08
5.66361e-08
5.95328e-08
1.28891e-07
5.61537e-08
1.42539e-07
0
1.3703e-07
8.54816e-08
9.55451e-08
5.45448e-08
9.68432e-08
9.02742e-08
6.06845e-08
5.6797e-08
5.62212e-08
0
0
0
0
0
0
0
0
0
0
0
0
0
0
0
0
0
0
0
0
0
0
0
5.71668e-08
9.96397e-08
1.15804e-08
5.66472e-08
5.74031e-08
5.76025e-08
0
5.83039e-08
5.90332e-08
5.92726e-08
0
5.84218e-08
5.66906e-08
5.83212e-08
1.40897e-07
5.61031e-08
1.38826e-07
5.65162e-08
5.80532e-08
5.85546e-08
5.90068e-08
5.8041e-08
5.79406e-08
1.53309e-08
1.08921e-07
1.45315e-07
3.08346e-08
2.01169e-09
5.62324e-08
5.83174e-08
5.92124e-08
0
5.77622e-08
5.79635e-08
5.85612e-08
5.89129e-08
5.86301e-08
5.75068e-08
9.49696e-08
9.51361e-08
5.53628e-08
1.42488e-07
5.67245e-08
0
5.66536e-08
5.69601e-08
5.66622e-08
5.6851e-08
5.81224e-08
5.96892e-08
0
5.87409e-08
5.86519e-08
5.73591e-08
0
0
0
0
0
0
0
0
0
0
0
0
0
0
0
0
0
0
0
0
0
5.70483e-08
0
5.65728e-08
5.60556e-08
5.65506e-08
0
5.78603e-08
8.98435e-08
9.71181e-08
5.73309e-08
5.62882e-08
0
5.5691e-08
5.83078e-08
5.93295e-08
5.86455e-08
5.79081e-08
1.44511e-07
5.64159e-08
1.43084e-07
5.63913e-08
5.63942e-08
0
5.68614e-08
5.88079e-08
6.2794e-08
8.84416e-09
1.18074e-07
5.54574e-08
5.54091e-08
5.61449e-08
5.64414e-08
5.73831e-08
9.84126e-08
5.01689e-08
2.23402e-08
5.76032e-08
5.79505e-08
5.82222e-08
0
5.83634e-08
5.86713e-08
5.80599e-08
5.67162e-08
1.3805e-07
5.60383e-08
5.60712e-08
5.69575e-08
6.42098e-08
1.06362e-07
4.76586e-09
5.95311e-08
5.71523e-08
5.68367e-08
0
0
0
0
0
0
0
0
0
0
0
0
0
0
0
0
0
0
0
0
0
5.41932e-08
8.32228e-08
1.06257e-07
5.46221e-08
5.66074e-08
5.80544e-08
0
5.74877e-08
1.03724e-08
1.08904e-07
1.32432e-07
1.34133e-07
5.49265e-08
5.95793e-08
0
0
5.98402e-08
1.7767e-08
1.02101e-07
5.69635e-08
5.97643e-08
1.01324e-07
3.81665e-08
3.33841e-08
5.91172e-08
5.98129e-08
5.96302e-08
5.87311e-08
0
1.34949e-07
5.62486e-08
1.39841e-07
8.42298e-08
1.05643e-07
5.54803e-08
5.58461e-08
5.85674e-08
0
5.79248e-08
5.89246e-08
0
5.75652e-08
5.81437e-08
5.70347e-08
5.84022e-08
5.76929e-08
5.72935e-08
5.83929e-08
5.92641e-08
5.77565e-08
5.66895e-08
5.54953e-08
5.70132e-08
5.74961e-08
0
0
0
0
0
0
0
0
0
0
0
0
0
0
0
0
0
0
0
0
0
1.02228e-07
8.04719e-08
5.44981e-08
5.51805e-08
5.7642e-08
5.67589e-08
5.74775e-08
6.23712e-08
2.25667e-08
1.57909e-08
5.63007e-08
5.69032e-08
5.78686e-08
6.16666e-08
6.17321e-08
6.07398e-08
0
0
5.87539e-08
6.11845e-08
5.87303e-08
5.78625e-08
5.74654e-08
5.6798e-08
5.80661e-08
5.88706e-08
5.80901e-08
0
0
0
5.76186e-08
5.80827e-08
6.11648e-08
5.842e-08
5.70048e-08
5.70582e-08
5.65658e-08
5.77518e-08
5.72573e-08
0
1.35221e-07
5.77214e-08
3.23636e-08
9.24249e-10
5.74986e-08
5.74594e-08
5.87429e-08
6.04376e-08
0
5.64584e-08
5.52788e-08
5.78951e-08
1.42668e-07
0
0
0
0
0
0
0
0
0
0
0
0
0
0
0
0
0
0
0
0
0
0
5.61426e-08
5.57248e-08
5.56934e-08
5.66917e-08
5.62318e-08
5.70061e-08
5.67529e-08
5.87241e-08
5.68215e-08
5.50067e-08
0
5.72727e-08
5.784e-08
5.90683e-08
2.01322e-08
2.4827e-08
5.89925e-08
5.7979e-08
5.58296e-08
6.20732e-08
5.78553e-08
5.71116e-08
5.72409e-08
5.79089e-08
5.85165e-08
5.77994e-08
5.79627e-08
9.28083e-09
1.5641e-07
9.65521e-08
0
5.90225e-08
5.9727e-08
5.92778e-08
5.5908e-08
1.36712e-07
0
5.47352e-08
5.69917e-08
5.74804e-08
5.74152e-08
0
5.70208e-08
1.42441e-07
5.52105e-08
5.66788e-08
5.88987e-08
5.89304e-08
5.77604e-08
5.74146e-08
5.42463e-08
5.6506e-08
5.63428e-08
0
0
0
0
0
0
0
0
0
0
0
0
0
0
0
0
0
0
0
0
0
0
4.72879e-08
5.00239e-08
5.98694e-08
5.69831e-08
5.48705e-08
5.95565e-08
1.37319e-07
5.76407e-08
2.38052e-08
1.31813e-08
5.76569e-08
5.86414e-08
5.83902e-08
5.90735e-08
0
1.38759e-07
1.37876e-07
1.35792e-07
5.39854e-08
5.84159e-08
5.90091e-08
5.84703e-08
5.84727e-08
5.93373e-08
5.85955e-08
5.78732e-08
5.68959e-08
5.68733e-08
5.63564e-08
1.00695e-07
8.50421e-08
8.55589e-09
1.27535e-07
6.08526e-08
0
0
5.19863e-08
1.3115e-07
1.33826e-07
5.46168e-08
6.33273e-08
5.05938e-08
5.7413e-08
0
9.96138e-08
9.18166e-08
5.90974e-08
3.24048e-08
9.10128e-10
5.7388e-08
0
5.73874e-08
1.41231e-07
5.64719e-08
0
0
0
0
0
0
0
0
0
0
0
0
0
0
0
0
0
0
0
0
0
5.6703e-08
6.1808e-08
5.12221e-09
1.2707e-07
5.48595e-08
5.68969e-08
5.85679e-08
5.79578e-08
5.61661e-08
5.4573e-08
5.70876e-08
5.75797e-08
5.80011e-08
5.85316e-08
5.82827e-08
5.89463e-08
5.98295e-08
1.84098e-08
2.27822e-08
5.85293e-08
5.82307e-08
5.81386e-08
6.05853e-08
6.23346e-08
5.80868e-08
5.55305e-08
5.55617e-08
5.85262e-08
5.4061e-08
1.38183e-07
5.73288e-08
5.84043e-08
1.53306e-08
2.9482e-08
5.78695e-08
5.72267e-08
5.69489e-08
5.70928e-08
5.85969e-08
5.6494e-08
5.80269e-08
5.70489e-08
1.35753e-07
5.54643e-08
0
5.83011e-08
1.39249e-07
5.63216e-08
5.75014e-08
1.13678e-07
6.97094e-08
0
0
5.53159e-08
0
0
0
0
0
0
0
0
0
0
0
0
0
0
0
0
0
0
0
0
0
5.74673e-08
5.89979e-08
5.96964e-08
5.53357e-08
5.47803e-08
5.56978e-08
5.75777e-08
5.77431e-08
1.08847e-07
6.72612e-08
5.35664e-08
5.69089e-08
5.67484e-08
5.7559e-08
5.85592e-08
6.22479e-08
1.52833e-08
3.22603e-08
5.85078e-08
5.89312e-08
5.82267e-08
2.15292e-08
1.02705e-07
6.19031e-08
5.66392e-08
5.52886e-08
5.57302e-08
5.62426e-08
5.64711e-08
5.95788e-08
5.60421e-08
1.36265e-07
1.35081e-07
1.3651e-07
0