/*--------------------------------*- C++ -*----------------------------------*\
  =========                 |
  \\      /  F ield         | OpenFOAM: The Open Source CFD Toolbox
   \\    /   O peration     | Website:  https://openfoam.org
    \\  /    A nd           | Version:  12
     \\/     M anipulation  |
\*---------------------------------------------------------------------------*/
FoamFile
{
    format      ascii;
    class       volScalarField;
    location    "0.45";
    object      p;
}
// * * * * * * * * * * * * * * * * * * * * * * * * * * * * * * * * * * * * * //

dimensions      [0 2 -2 0 0 0 0];

internalField   nonuniform List<scalar> 
3750
(
0.740113
0.730164
0.722617
0.710033
0.695953
0.685002
0.675598
0.666523
0.657242
0.647719
0.633827
0.62612
0.626946
0.614698
0.604647
0.594597
0.582421
0.56769
0.55765
0.547842
0.537695
0.531797
0.52331
0.514314
0.505378
0.496328
0.486442
0.472861
0.460818
0.450084
0.441236
0.434209
0.423327
0.412395
0.401681
0.391943
0.382525
0.372665
0.363289
0.353783
0.343595
0.334382
0.324432
0.315954
0.297641
0.286897
0.285953
0.275914
0.265319
0.247425
0.247325
0.235253
0.222593
0.212386
0.201922
0.191594
0.180957
0.171823
0.169673
0.156407
0.142237
0.13162
0.122333
0.112812
0.103121
0.0933534
0.0835405
0.0736994
0.063845
0.0539926
0.0441597
0.0343394
0.0245088
0.0146174
0.00482055
0.739579
0.729214
0.724283
0.710688
0.6946
0.683529
0.674725
0.667091
0.657841
0.646769
0.634953
0.631795
0.624227
0.613224
0.603313
0.596858
0.578925
0.567821
0.558294
0.547564
0.536648
0.533075
0.523749
0.513944
0.505511
0.49673
0.485978
0.473883
0.45995
0.448698
0.440832
0.436837
0.423257
0.412031
0.400561
0.391641
0.383145
0.372846
0.363187
0.35356
0.343797
0.334358
0.323312
0.314223
0.302245
0.291059
0.283776
0.273299
0.263799
0.252609
0.244633
0.234226
0.223342
0.211732
0.201766
0.191865
0.182138
0.173244
0.166001
0.154966
0.142944
0.132495
0.122704
0.112961
0.103192
0.0933919
0.0835605
0.0737056
0.063836
0.0539744
0.0441478
0.0343391
0.0244979
0.0145974
0.00479969
0.740784
0.730707
0.723411
0.711955
0.692388
0.681713
0.67203
0.670144
0.659255
0.648334
0.637762
0.633308
0.622985
0.610972
0.599665
0.597599
0.578749
0.567572
0.558339
0.548521
0.538732
0.531629
0.522818
0.512248
0.505816
0.499128
0.486798
0.47333
0.458703
0.449667
0.44582
0.438485
0.42105
0.411114
0.397028
0.391075
0.385414
0.373206
0.36292
0.353055
0.343156
0.334731
0.322877
0.314528
0.3063
0.291139
0.285197
0.270574
0.262644
0.253766
0.243192
0.233663
0.223988
0.210618
0.201579
0.192067
0.182551
0.173308
0.164113
0.153971
0.143307
0.132998
0.123002
0.113127
0.103288
0.0934491
0.0835983
0.0737353
0.0638643
0.0540004
0.0441617
0.0343421
0.0244985
0.0145939
0.00477332
0.740207
0.729893
0.721764
0.709964
0.69315
0.681603
0.672598
0.670529
0.660064
0.649981
0.637591
0.636681
0.621409
0.609228
0.598289
0.592428
0.581699
0.565437
0.559045
0.549672
0.539962
0.530761
0.521923
0.508779
0.506237
0.502921
0.487972
0.47306
0.458189
0.45445
0.445868
0.43661
0.423617
0.413999
0.399827
0.390004
0.379262
0.371467
0.362248
0.352612
0.341436
0.334673
0.324346
0.314515
0.304703
0.293321
0.2838
0.272631
0.263022
0.254473
0.241978
0.233494
0.222719
0.211569
0.201894
0.192267
0.182662
0.17311
0.16348
0.153527
0.143337
0.133199
0.123188
0.113262
0.103379
0.0935109
0.0836472
0.0737792
0.0639098
0.0540448
0.0441926
0.0343574
0.0245054
0.0145837
0.00476583
0.742025
0.72853
0.718932
0.706892
0.694455
0.685914
0.678304
0.665972
0.660617
0.649749
0.639068
0.63233
0.623284
0.606714
0.599816
0.590348
0.57869
0.5656
0.562163
0.550816
0.540757
0.530868
0.520795
0.512645
0.506922
0.500381
0.488918
0.472981
0.461575
0.45436
0.445624
0.437237
0.424748
0.41023
0.400322
0.389832
0.379975
0.37087
0.362084
0.354311
0.337571
0.335852
0.325193
0.314461
0.303891
0.29364
0.28409
0.273088
0.262915
0.253382
0.242242
0.233949
0.221487
0.211929
0.202177
0.192435
0.182716
0.173003
0.16323
0.153321
0.143303
0.133274
0.123291
0.113356
0.103453
0.09357
0.0836949
0.0738204
0.0639476
0.0540783
0.0442182
0.0343699
0.0245073
0.0145789
0.00476123
0.740327
0.728734
0.717211
0.705469
0.692617
0.689362
0.678
0.665909
0.664863
0.64804
0.639016
0.62984
0.619696
0.607129
0.603328
0.590929
0.578922
0.566129
0.55999
0.550097
0.542169
0.53126
0.519387
0.515996
0.507005
0.498186
0.488659
0.475155
0.462884
0.454117
0.445194
0.436967
0.420165
0.412757
0.401235
0.389823
0.380023
0.369784
0.360505
0.35342
0.342496
0.33442
0.324596
0.314368
0.302899
0.293316
0.285918
0.271264
0.262761
0.252793
0.241085
0.233676
0.222537
0.212455
0.20247
0.192584
0.182761
0.172954
0.163118
0.153221
0.14327
0.133304
0.123348
0.113416
0.103507
0.0936194
0.0837384
0.0738588
0.063981
0.054106
0.0442387
0.0343804
0.0245084
0.0145782
0.00475792
0.737898
0.730314
0.715717
0.70568
0.694341
0.687663
0.6778
0.667604
0.660405
0.649409
0.639252
0.628434
0.620835
0.610377
0.602101
0.591375
0.5814
0.563391
0.559053
0.547358
0.545386
0.533058
0.521187
0.514548
0.506065
0.49651
0.487631
0.477009
0.463793
0.454211
0.443619
0.432894
0.420329
0.418152
0.399648
0.39051
0.380538
0.368729
0.358108
0.355276
0.345625
0.333467
0.323347
0.31387
0.300912
0.290934
0.284173
0.271771
0.268019
0.254026
0.237479
0.235589
0.223596
0.212863
0.202664
0.192679
0.182789
0.172933
0.16307
0.153177
0.143256
0.13332
0.123385
0.113462
0.103554
0.0936631
0.0837758
0.0738906
0.0640082
0.0541278
0.044255
0.0343902
0.0245107
0.0145767
0.00475593
0.738842
0.727286
0.719641
0.707596
0.695492
0.687337
0.678104
0.668822
0.659575
0.649555
0.640312
0.624855
0.62391
0.611939
0.601579
0.590983
0.580376
0.570764
0.556746
0.543068
0.546118
0.533308
0.520635
0.512646
0.505866
0.495987
0.484791
0.48065
0.465613
0.453921
0.442157
0.430427
0.423182
0.416746
0.397615
0.39525
0.383376
0.368137
0.360005
0.352403
0.350153
0.330733
0.321497
0.311839
0.3019
0.287506
0.286194
0.275107
0.262019
0.256848
0.242438
0.234301
0.223598
0.212868
0.202646
0.192673
0.182783
0.17292
0.163052
0.153163
0.143256
0.133337
0.123415
0.1135
0.103595
0.0936997
0.0838077
0.0739178
0.0640305
0.0541467
0.0442695
0.0343993
0.0245142
0.0145759
0.00475473
0.739946
0.723219
0.720581
0.708943
0.697338
0.688023
0.67712
0.669817
0.66001
0.650118
0.634908
0.629666
0.626335
0.611815
0.601922
0.590684
0.579367
0.570596
0.55628
0.544302
0.544678
0.532772
0.520963
0.510579
0.507583
0.496284
0.487102
0.480335
0.466237
0.453786
0.44132
0.426031
0.425443
0.413135
0.401128
0.393738
0.383074
0.372264
0.363268
0.354154
0.346348
0.329696
0.319896
0.309053
0.299145
0.294835
0.28505
0.275995
0.263984
0.25528
0.244156
0.233825
0.223004
0.212442
0.202418
0.192585
0.182756
0.172913
0.16305
0.153167
0.143266
0.133355
0.123441
0.113529
0.103626
0.0937299
0.0838359
0.073942
0.0640501
0.0541627
0.0442817
0.0344075
0.0245181
0.0145754
0.00475393
0.739051
0.728456
0.717924
0.708946
0.698737
0.690427
0.673276
0.671687
0.660727
0.644107
0.632581
0.632109
0.625943
0.618094
0.603639
0.590445
0.576005
0.569467
0.561082
0.545947
0.541047
0.532061
0.522206
0.513487
0.503891
0.49527
0.487103
0.475145
0.464962
0.453886
0.443096
0.431987
0.426181
0.40969
0.400749
0.391268
0.383935
0.374566
0.366686
0.351934
0.343336
0.332336
0.319975
0.306351
0.304181
0.295042
0.283283
0.277648
0.265351
0.255105
0.244644
0.233483
0.222219
0.211471
0.201952
0.192476
0.182741
0.172925
0.163067
0.153185
0.143286
0.133377
0.123465
0.113555
0.103653
0.0937566
0.0838595
0.0739622
0.0640666
0.0541761
0.0442927
0.0344149
0.0245215
0.0145755
0.00475367
0.739855
0.729292
0.717881
0.708224
0.698184
0.690356
0.677557
0.670707
0.657584
0.645449
0.633643
0.625003
0.626041
0.618976
0.601786
0.591568
0.577898
0.568374
0.561507
0.549288
0.540867
0.531792
0.52255
0.513622
0.503258
0.494036
0.485169
0.473746
0.463869
0.453611
0.445646
0.434714
0.423732
0.410781
0.399847
0.388279
0.385788
0.375198
0.364982
0.352347
0.34547
0.33675
0.321925
0.304616
0.304876
0.295402
0.285721
0.273847
0.264544
0.255236
0.245457
0.233078
0.220912
0.209067
0.201952
0.192571
0.182825
0.172976
0.163103
0.153215
0.143313
0.133404
0.123493
0.113584
0.103681
0.093781
0.0838789
0.0739783
0.06408
0.0541866
0.0443008
0.0344203
0.0245245
0.0145757
0.00475335
0.742049
0.729927
0.719119
0.708958
0.696947
0.693022
0.677224
0.669546
0.65876
0.646704
0.634184
0.622018
0.620039
0.616026
0.602322
0.595294
0.580128
0.566819
0.563771
0.548759
0.541515
0.532151
0.522544
0.513202
0.503689
0.493144
0.484392
0.473193
0.463746
0.45345
0.449043
0.436418
0.423918
0.410943
0.39883
0.389246
0.382875
0.374351
0.36595
0.347887
0.347931
0.335964
0.327044
0.308691
0.303625
0.296273
0.287012
0.272744
0.263543
0.25554
0.245576
0.232617
0.219439
0.205365
0.203278
0.192977
0.182946
0.17305
0.163157
0.153256
0.143345
0.133431
0.123518
0.113608
0.103703
0.093799
0.0838936
0.0739911
0.0640911
0.0541954
0.0443068
0.034425
0.0245271
0.014576
0.00475343
0.74056
0.729989
0.719739
0.711914
0.701041
0.683712
0.677942
0.66978
0.661709
0.648544
0.635112
0.624254
0.616487
0.610268
0.605096
0.593708
0.581596
0.569337
0.560781
0.547431
0.543238
0.532208
0.522245
0.513012
0.50516
0.490244
0.485321
0.473518
0.465025
0.458307
0.448637
0.437909
0.424748
0.410665
0.395495
0.388203
0.380581
0.372772
0.365273
0.348072
0.34816
0.336263
0.328717
0.311379
0.303975
0.297107
0.286871
0.272164
0.2626
0.256092
0.245658
0.231856
0.219996
0.207393
0.201943
0.192733
0.182965
0.173111
0.163219
0.153304
0.143381
0.133458
0.123539
0.113628
0.103718
0.0938107
0.0839035
0.0739988
0.0640976
0.0542005
0.0443105
0.0344278
0.0245282
0.0145759
0.00475301
0.740117
0.729683
0.718723
0.715818
0.700847
0.686456
0.671101
0.669409
0.667646
0.650425
0.63554
0.624762
0.614289
0.611169
0.602646
0.592007
0.583316
0.567856
0.559595
0.549394
0.541703
0.531434
0.521254
0.511567
0.501945
0.489956
0.486747
0.474703
0.464675
0.454458
0.447919
0.442259
0.426524
0.411476
0.395712
0.387521
0.378452
0.371026
0.36321
0.353976
0.346604
0.336449
0.326748
0.315203
0.304511
0.295617
0.283822
0.272251
0.262535
0.25442
0.242649
0.233311
0.222076
0.211047
0.202039
0.192777
0.183074
0.173217
0.163302
0.153364
0.143421
0.133486
0.12356
0.113643
0.10373
0.0938192
0.0839102
0.0740042
0.0641016
0.0542033
0.0443124
0.0344293
0.0245288
0.0145759
0.00475318
0.740736
0.731024
0.721522
0.714073
0.700035
0.686208
0.675527
0.668304
0.667819
0.649693
0.633636
0.624143
0.617462
0.609214
0.599858
0.589782
0.579806
0.570621
0.560692
0.55064
0.541171
0.529883
0.519498
0.509691
0.502113
0.492491
0.484552
0.474382
0.464893
0.447669
0.446474
0.443173
0.427005
0.413057
0.399729
0.388163
0.376287
0.36988
0.362189
0.357223
0.344467
0.337247
0.326932
0.318476
0.303254
0.296228
0.282575
0.270162
0.258349
0.254831
0.244638
0.234543
0.223859
0.213145
0.203086
0.193238
0.183325
0.173373
0.163406
0.153438
0.143476
0.133524
0.123585
0.113657
0.103738
0.0938236
0.0839135
0.074006
0.0641019
0.054203
0.0443119
0.0344287
0.0245276
0.0145751
0.00475253
0.742152
0.732718
0.723162
0.715109
0.699066
0.686799
0.678464
0.671457
0.6683
0.649559
0.625195
0.62204
0.617499
0.614714
0.597452
0.588124
0.576615
0.573365
0.561683
0.551185
0.541537
0.527533
0.518409
0.507917
0.504171
0.493323
0.483208
0.473104
0.461853
0.449288
0.448839
0.441267
0.426108
0.414082
0.402051
0.390937
0.381856
0.369733
0.358141
0.353759
0.338886
0.338177
0.325985
0.316644
0.305049
0.296001
0.284901
0.269307
0.257873
0.248916
0.246558
0.236782
0.225635
0.214589
0.204006
0.193743
0.183613
0.173543
0.16351
0.153503
0.143518
0.133552
0.123603
0.113667
0.103741
0.0938228
0.083911
0.0740029
0.0640987
0.0541999
0.0443091
0.0344266
0.0245257
0.014574
0.00475244
0.744331
0.73428
0.72274
0.712338
0.700748
0.688818
0.678249
0.672937
0.663862
0.647101
0.630615
0.624088
0.617076
0.609977
0.598779
0.588661
0.576799
0.572294
0.562083
0.550844
0.540262
0.526291
0.519121
0.509647
0.502159
0.492218
0.482252
0.472517
0.459779
0.451512
0.448839
0.43943
0.427131
0.415384
0.403915
0.392317
0.380981
0.369442
0.358216
0.347542
0.340605
0.337504
0.327102
0.315915
0.304951
0.296117
0.28718
0.269231
0.258056
0.249205
0.241392
0.23994
0.227245
0.215528
0.204614
0.194113
0.183837
0.173679
0.163589
0.153547
0.14354
0.133562
0.123605
0.113664
0.103735
0.0938154
0.0839027
0.0739944
0.0640909
0.0541931
0.0443035
0.034422
0.024522
0.0145718
0.00475162
0.743845
0.737529
0.721984
0.711739
0.701702
0.690386
0.673334
0.673007
0.661058
0.647559
0.632338
0.631229
0.615727
0.608354
0.5985
0.588814
0.575429
0.572887
0.562243
0.549749
0.53714
0.525597
0.521292
0.51047
0.5008
0.490934
0.480832
0.465942
0.461886
0.455211
0.450801
0.43836
0.428685
0.417041
0.405541
0.393522
0.380039
0.36887
0.358494
0.340118
0.339295
0.337402
0.328893
0.314546
0.303065
0.296342
0.283563
0.272392
0.263021
0.252238
0.24126
0.239404
0.22722
0.215697
0.204818
0.194274
0.183944
0.173744
0.163622
0.153557
0.143536
0.133549
0.123588
0.113647
0.103718
0.0937992
0.0838876
0.0739808
0.064079
0.0541829
0.0442951
0.0344157
0.0245175
0.0145692
0.00475114
0.743536
0.737538
0.726587
0.711618
0.702115
0.686944
0.67545
0.667989
0.659351
0.649357
0.637212
0.629094
0.617975
0.609209
0.597968
0.588357
0.577515
0.570475
0.562146
0.549065
0.536037
0.527454
0.519826
0.510048
0.499961
0.489761
0.479358
0.4675
0.465199
0.456295
0.447798
0.436052
0.43106
0.41901
0.40657
0.396337
0.377152
0.366132
0.35544
0.342034
0.338983
0.332089
0.331326
0.311983
0.297803
0.292084
0.283496
0.277036
0.269138
0.255651
0.244416
0.236498
0.226033
0.215278
0.204689
0.194235
0.183922
0.173721
0.163594
0.153523
0.143503
0.133518
0.123559
0.113618
0.103692
0.093776
0.0838666
0.0739617
0.0640619
0.0541686
0.0442835
0.0344066
0.0245111
0.0145655
0.00475003
0.740061
0.739465
0.7295
0.711678
0.701898
0.687456
0.675406
0.66335
0.658774
0.651716
0.640291
0.628129
0.617935
0.609876
0.597192
0.588556
0.579126
0.569668
0.560197
0.548689
0.537157
0.528061
0.518991
0.509398
0.499266
0.488781
0.478841
0.472344
0.465709
0.456647
0.446762
0.43653
0.429031
0.420373
0.406628
0.39622
0.376678
0.364242
0.355295
0.348849
0.334431
0.336726
0.32414
0.311555
0.298997
0.290359
0.282481
0.281524
0.268421
0.256866
0.245086
0.235145
0.225015
0.214691
0.204416
0.194055
0.18379
0.173613
0.163501
0.153443
0.143431
0.133455
0.123505
0.113572
0.103651
0.0937399
0.0838361
0.0739361
0.0640407
0.0541512
0.0442694
0.0343958
0.0245042
0.0145613
0.00474908
0.742454
0.736147
0.726183
0.714776
0.701905
0.692253
0.674971
0.666567
0.660657
0.644739
0.643595
0.626274
0.617367
0.608261
0.597962
0.588986
0.580162
0.568744
0.558794
0.548528
0.53812
0.528411
0.519005
0.509247
0.49897
0.488107
0.477143
0.476044
0.466724
0.456562
0.446794
0.435579
0.429021
0.419515
0.407795
0.392389
0.377396
0.365656
0.354205
0.351461
0.336412
0.334851
0.323213
0.313704
0.300117
0.288865
0.286284
0.278785
0.269668
0.256944
0.243939
0.234462
0.224223
0.214023
0.204111
0.19378
0.183565
0.173435
0.16336
0.153329
0.143338
0.133376
0.123436
0.113511
0.103599
0.0936956
0.0837983
0.0739042
0.0640143
0.0541294
0.044252
0.0343825
0.0244953
0.0145559
0.00474747
0.742256
0.733705
0.723966
0.713478
0.702076
0.693137
0.678602
0.668849
0.660641
0.645011
0.636901
0.627218
0.617343
0.606564
0.599592
0.59052
0.583632
0.566292
0.557669
0.548544
0.538767
0.528681
0.519434
0.509651
0.499303
0.489093
0.476868
0.475454
0.467947
0.456735
0.448614
0.431077
0.432939
0.417634
0.402232
0.393952
0.379098
0.367684
0.35747
0.350518
0.339763
0.332246
0.321059
0.31828
0.29976
0.289306
0.285216
0.27567
0.271533
0.256942
0.241923
0.233364
0.223349
0.213151
0.203474
0.193371
0.183262
0.173205
0.163184
0.153194
0.143227
0.133282
0.123354
0.11344
0.103538
0.0936435
0.0837539
0.0738673
0.0639839
0.0541051
0.044233
0.0343679
0.0244858
0.0145503
0.00474606
0.742809
0.732433
0.72248
0.711984
0.701648
0.693737
0.683938
0.668628
0.656986
0.646956
0.636454
0.626937
0.617184
0.603553
0.601301
0.589834
0.584767
0.566611
0.557294
0.549147
0.539665
0.52812
0.520703
0.510649
0.499247
0.493858
0.476874
0.469916
0.469424
0.455604
0.446852
0.431659
0.429587
0.415976
0.402289
0.399555
0.378812
0.368666
0.359041
0.350492
0.341342
0.332847
0.322701
0.313667
0.302162
0.28887
0.285984
0.276057
0.268725
0.257171
0.241811
0.232335
0.222614
0.212917
0.202933
0.192912
0.182924
0.17294
0.162973
0.153024
0.143089
0.133168
0.123258
0.11336
0.103469
0.0935833
0.0837042
0.0738264
0.0639502
0.0540776
0.0442114
0.0343518
0.0244741
0.0145442
0.00474394
0.74481
0.731098
0.721535
0.711179
0.699696
0.695444
0.68311
0.670879
0.657987
0.647324
0.636963
0.626882
0.616767
0.6058
0.600117
0.584159
0.582598
0.569646
0.557138
0.551305
0.542827
0.524386
0.523632
0.513114
0.49482
0.498103
0.478551
0.47064
0.465173
0.454989
0.446824
0.437841
0.424353
0.413526
0.403369
0.39679
0.381609
0.37007
0.360032
0.350521
0.341521
0.335995
0.325544
0.310638
0.301456
0.290892
0.284375
0.275774
0.266736
0.256745
0.243265
0.231654
0.221829
0.21219
0.202378
0.19247
0.182571
0.172658
0.162745
0.152838
0.142938
0.133044
0.123154
0.113271
0.103395
0.0935237
0.0836527
0.0737833
0.0639148
0.0540489
0.0441888
0.0343349
0.0244627
0.0145378
0.00474218
0.741619
0.730622
0.721151
0.711214
0.700729
0.693171
0.681465
0.673984
0.657093
0.647325
0.63712
0.626828
0.616441
0.605821
0.596264
0.587305
0.576868
0.571625
0.557704
0.553986
0.542558
0.528478
0.524844
0.51045
0.496594
0.498445
0.47979
0.471396
0.463003
0.45377
0.44777
0.43846
0.427344
0.413618
0.403645
0.396308
0.385038
0.369321
0.360683
0.351063
0.340505
0.336897
0.324906
0.313274
0.301508
0.292012
0.283565
0.274987
0.266309
0.258327
0.242886
0.231137
0.220853
0.211415
0.201841
0.192074
0.182233
0.172375
0.162513
0.152649
0.142781
0.13291
0.123044
0.113181
0.103318
0.0934583
0.0835985
0.0737375
0.0638775
0.0540189
0.044165
0.034317
0.0244503
0.014531
0.00474011
0.740136
0.730307
0.721184
0.712127
0.701581
0.69328
0.676374
0.673637
0.660542
0.647947
0.637303
0.626901
0.61622
0.605349
0.594701
0.590939
0.577599
0.569873
0.559672
0.551132
0.54045
0.529045
0.523327
0.51297
0.501699
0.493571
0.482046
0.472066
0.462135
0.451117
0.449775
0.439593
0.431427
0.423039
0.402707
0.397816
0.381981
0.372558
0.362535
0.353419
0.342422
0.334285
0.324276
0.31424
0.300749
0.291981
0.283137
0.2743
0.265285
0.255884
0.244679
0.233194
0.220132
0.211171
0.201501
0.191703
0.181904
0.172098
0.162282
0.152455
0.142618
0.132775
0.12293
0.113086
0.103241
0.093393
0.0835429
0.0736917
0.0638401
0.0539885
0.044141
0.0342992
0.0244383
0.0145244
0.00473829
0.739751
0.729932
0.721394
0.713618
0.701301
0.690752
0.680253
0.670209
0.663399
0.64677
0.63741
0.626989
0.616342
0.604324
0.596695
0.590107
0.579055
0.569768
0.560442
0.549002
0.537418
0.528678
0.524309
0.515486
0.504818
0.492006
0.482418
0.472566
0.462713
0.453218
0.446566
0.439898
0.431355
0.419712
0.40517
0.398266
0.384111
0.376779
0.364924
0.358238
0.343464
0.330817
0.323655
0.314049
0.300765
0.29138
0.282661
0.273797
0.264666
0.255275
0.244667
0.233726
0.221255
0.210939
0.201135
0.191342
0.181591
0.171835
0.162061
0.152269
0.142462
0.132646
0.122822
0.112995
0.103162
0.0933265
0.0834873
0.0736455
0.0638019
0.0539578
0.0441171
0.0342809
0.0244259
0.0145175
0.00473651
0.739461
0.728068
0.720846
0.714184
0.705058
0.688238
0.678554
0.669125
0.66334
0.649617
0.63874
0.62749
0.618767
0.601166
0.597124
0.589979
0.579876
0.570229
0.561982
0.547157
0.534077
0.534124
0.520649
0.519552
0.502681
0.492685
0.482995
0.47319
0.4633
0.453777
0.44343
0.440145
0.430149
0.418394
0.404278
0.392593
0.389698
0.379289
0.367802
0.359385
0.342434
0.333638
0.32595
0.316217
0.298577
0.290458
0.282243
0.273588
0.264831
0.255705
0.245139
0.233795
0.220682
0.210424
0.200612
0.19094
0.181286
0.171587
0.161854
0.152096
0.142316
0.132522
0.122718
0.112908
0.10309
0.0932647
0.0834354
0.0736025
0.0637659
0.0539281
0.0440937
0.0342636
0.0244141
0.0145112
0.00473493
0.739433
0.724791
0.721018
0.716574
0.703824
0.690132
0.678153
0.676116
0.659469
0.649249
0.639277
0.627167
0.618625
0.607878
0.592292
0.589983
0.579625
0.569396
0.55849
0.544583
0.539098
0.531429
0.523744
0.516378
0.504563
0.493887
0.483725
0.473837
0.464072
0.454881
0.444957
0.437518
0.428495
0.419552
0.401491
0.390015
0.391823
0.379557
0.368075
0.357195
0.344931
0.334996
0.32977
0.31454
0.298412
0.29081
0.282347
0.273356
0.266347
0.256576
0.246149
0.235485
0.217521
0.209614
0.200158
0.190641
0.181026
0.171371
0.161675
0.151946
0.142189
0.132412
0.122626
0.11283
0.103023
0.0932078
0.0833871
0.0735617
0.0637319
0.0539003
0.0440714
0.0342467
0.0244028
0.0145049
0.00473346
0.739611
0.729158
0.721747
0.712522
0.703649
0.690996
0.680161
0.673564
0.659026
0.64838
0.636144
0.62757
0.620901
0.608838
0.595894
0.58706
0.577406
0.569648
0.558718
0.545644
0.537695
0.528651
0.526327
0.515728
0.504838
0.494474
0.484513
0.474727
0.464994
0.455383
0.44544
0.435859
0.426132
0.418255
0.40598
0.394314
0.386874
0.37752
0.367534
0.356335
0.344919
0.333667
0.329872
0.314367
0.301593
0.292349
0.282153
0.272062
0.268749
0.257719
0.247488
0.231912
0.218754
0.209146
0.199772
0.19033
0.180804
0.171193
0.161527
0.151822
0.142084
0.132323
0.122549
0.112762
0.102963
0.093156
0.0833427
0.0735239
0.0637003
0.0538745
0.0440509
0.034231
0.0243925
0.0144992
0.00473235
0.738947
0.733298
0.717646
0.712088
0.707178
0.690895
0.67851
0.670615
0.659881
0.649152
0.630937
0.627525
0.624649
0.610467
0.597667
0.585581
0.574345
0.570861
0.561016
0.543298
0.535747
0.528722
0.525326
0.515046
0.50464
0.494638
0.48494
0.475464
0.466091
0.456551
0.444927
0.434492
0.422929
0.419729
0.408487
0.396805
0.385123
0.373448
0.367368
0.355777
0.34523
0.335343
0.32815
0.314231
0.301421
0.294238
0.282985
0.274079
0.267274
0.257603
0.242482
0.232582
0.220656
0.208334
0.199514
0.190178
0.180667
0.171072
0.161421
0.151727
0.142
0.13225
0.122483
0.112703
0.102909
0.0931075
0.0833021
0.0734899
0.0636715
0.0538509
0.0440321
0.0342166
0.0243825
0.0144942
0.00473108
0.736016
0.734384
0.716364
0.712443
0.708732
0.691634
0.680393
0.670304
0.662409
0.645595
0.636309
0.626877
0.621517
0.610814
0.598478
0.589306
0.574652
0.567746
0.557871
0.543687
0.535112
0.528874
0.528639
0.512662
0.503684
0.494654
0.485183
0.475857
0.467091
0.459434
0.442713
0.435206
0.423499
0.41695
0.406283
0.393563
0.387146
0.372014
0.371102
0.354055
0.345319
0.336469
0.329121
0.313944
0.297537
0.296762
0.283389
0.275342
0.268016
0.251198
0.24374
0.233482
0.220416
0.208973
0.199615
0.190149
0.180608
0.171005
0.161353
0.151662
0.141938
0.132191
0.122429
0.112653
0.102864
0.0930699
0.0832687
0.0734602
0.0636456
0.0538293
0.0440152
0.0342038
0.024374
0.0144898
0.00473034
0.736702
0.728066
0.723758
0.712327
0.705473
0.692698
0.680895
0.667873
0.660951
0.646934
0.63823
0.627459
0.619831
0.610668
0.597643
0.588844
0.580033
0.568187
0.553549
0.543419
0.53323
0.532156
0.525438
0.514281
0.502577
0.495416
0.485307
0.475957
0.466929
0.45823
0.444321
0.436218
0.426127
0.415662
0.404424
0.39506
0.38411
0.373185
0.366465
0.355449
0.345662
0.336221
0.326731
0.314955
0.303013
0.295484
0.284356
0.275498
0.266786
0.247635
0.245742
0.234425
0.218966
0.209505
0.199751
0.190187
0.180609
0.170988
0.161323
0.151625
0.141899
0.132152
0.122389
0.112614
0.102829
0.0930383
0.0832403
0.0734343
0.0636231
0.0538104
0.0439996
0.0341921
0.0243657
0.0144861
0.00472928
0.73797
0.728956
0.721056
0.713647
0.704557
0.693101
0.682886
0.665656
0.660324
0.647783
0.640393
0.626217
0.619914
0.609175
0.598378
0.589541
0.582228
0.565517
0.554681
0.545508
0.534219
0.531748
0.524714
0.516385
0.498668
0.496417
0.48454
0.475557
0.466487
0.457415
0.445804
0.437099
0.429804
0.413552
0.401368
0.392515
0.38877
0.372497
0.364624
0.355273
0.345678
0.336136
0.326807
0.316288
0.305487
0.295024
0.284212
0.274389
0.264247
0.252217
0.243479
0.234846
0.21734
0.209052
0.199767
0.19025
0.180652
0.171007
0.161325
0.151614
0.14188
0.13213
0.122365
0.112588
0.102803
0.0930123
0.0832154
0.0734122
0.0636045
0.0537943
0.0439862
0.0341823
0.0243587
0.0144831
0.0047288
0.740388
0.729716
0.716991
0.7147
0.706057
0.691212
0.680681
0.669629
0.656575
0.645631
0.643418
0.623562
0.620396
0.607935
0.598265
0.588938
0.579451
0.56869
0.555265
0.541752
0.537849
0.532821
0.524328
0.515079
0.501087
0.494771
0.484487
0.475321
0.466108
0.456798
0.446502
0.435838
0.430691
0.41386
0.396875
0.397041
0.384986
0.374628
0.3648
0.355412
0.345772
0.335915
0.328288
0.317716
0.307029
0.294929
0.283289
0.273584
0.263661
0.254987
0.23976
0.231321
0.219576
0.2097
0.200044
0.190398
0.180741
0.171061
0.161354
0.151626
0.141882
0.132123
0.122353
0.112573
0.102787
0.0929949
0.083197
0.0733943
0.0635884
0.0537802
0.0439747
0.0341733
0.0243525
0.0144807
0.00472828
0.743962
0.727572
0.717993
0.711191
0.701834
0.690985
0.679327
0.670085
0.65633
0.648462
0.64247
0.625801
0.616647
0.609432
0.598141
0.588489
0.577503
0.57014
0.556481
0.543929
0.53564
0.534146
0.52412
0.514214
0.502773
0.493567
0.48437
0.47554
0.465867
0.456832
0.447054
0.432677
0.430295
0.41456
0.401406
0.392602
0.388334
0.37561
0.364087
0.35615
0.346068
0.335028
0.331582
0.319053
0.310139
0.294428
0.282067
0.272638
0.262201
0.25219
0.241296
0.230953
0.220057
0.21007
0.200289
0.190567
0.180859
0.171141
0.161406
0.151658
0.141897
0.132123
0.122343
0.112561
0.102772
0.0929794
0.0831821
0.0733797
0.0635748
0.0537684
0.043965
0.0341658
0.0243475
0.0144788
0.00472819
0.743156
0.730126
0.719396
0.708965
0.698756
0.689941
0.675693
0.668103
0.65743
0.650061
0.639769
0.627748
0.616181
0.613504
0.595396
0.590221
0.573363
0.571338
0.556742
0.545063
0.538274
0.531315
0.523224
0.513972
0.503061
0.493104
0.483708
0.476568
0.465176
0.457668
0.446817
0.434928
0.427356
0.412789
0.404664
0.393964
0.386661
0.375661
0.361643
0.358197
0.347422
0.338175
0.33196
0.31685
0.308402
0.296929
0.283181
0.271564
0.260055
0.249892
0.242917
0.231723
0.219884
0.210159
0.200453
0.190723
0.180985
0.171233
0.161472
0.151701
0.141922
0.132137
0.122349
0.11256
0.102766
0.0929687
0.0831696
0.0733674
0.0635632
0.0537583
0.0439565
0.0341593
0.0243433
0.0144775
0.00472826
0.744089
0.731142
0.719767
0.707079
0.695138
0.692929
0.674337
0.662421
0.655325
0.652287
0.638755
0.629637
0.618959
0.611534
0.592955
0.591162
0.577254
0.569622
0.559537
0.542071
0.539114
0.529165
0.523237
0.515424
0.502346
0.492315
0.483587
0.47986
0.46289
0.461385
0.447153
0.435881
0.425409
0.41218
0.410029
0.392625
0.386852
0.37862
0.362289
0.355173
0.346562
0.339552
0.327785
0.318863
0.309318
0.297416
0.283636
0.270938
0.25719
0.247247
0.246045
0.232572
0.21934
0.21025
0.200635
0.190895
0.181122
0.171335
0.161545
0.15175
0.141953
0.132156
0.122357
0.112558
0.102759
0.0929582
0.0831579
0.073357
0.0635537
0.0537497
0.0439492
0.0341536
0.0243399
0.0144768
0.00472864
0.746935
0.730948
0.720398
0.704602
0.696132
0.688753
0.676717
0.66616
0.649884
0.646799
0.637197
0.631579
0.619334
0.608065
0.595288
0.593408
0.576457
0.567177
0.558256
0.548422
0.533563
0.529629
0.523865
0.519865
0.498623
0.491185
0.491394
0.479061
0.464236
0.462653
0.443995
0.436171
0.425901
0.414865
0.406151
0.392734
0.388742
0.378058
0.367457
0.350669
0.344674
0.334775
0.331625
0.320928
0.312442
0.294786
0.28349
0.27242
0.253043
0.249512
0.246378
0.232996
0.221249
0.210854
0.200936
0.191101
0.181274
0.171447
0.161623
0.151802
0.141985
0.132172
0.122364
0.112558
0.102754
0.0929503
0.0831482
0.0733475
0.0635446
0.0537416
0.0439426
0.0341483
0.0243372
0.0144766
0.00472927
0.74392
0.735883
0.716184
0.706431
0.697156
0.687885
0.677349
0.667032
0.655251
0.645583
0.634026
0.62715
0.617087
0.60704
0.597771
0.587328
0.577351
0.564911
0.55808
0.548636
0.540119
0.532529
0.523355
0.515909
0.495409
0.494238
0.497241
0.477901
0.466045
0.456533
0.442492
0.438279
0.426912
0.416312
0.405276
0.393843
0.386574
0.376884
0.36743
0.348808
0.345698
0.334044
0.331054
0.320076
0.310101
0.296087
0.283473
0.270217
0.260032
0.25258
0.241188
0.231376
0.221016
0.21103
0.201174
0.191304
0.181424
0.171553
0.161695
0.151848
0.142012
0.132187
0.122369
0.112556
0.102747
0.092941
0.0831391
0.0733381
0.0635357
0.0537342
0.0439365
0.0341434
0.0243351
0.014477
0.0047301
0.74518
0.734442
0.719621
0.707817
0.698203
0.688807
0.678233
0.670537
0.656425
0.646854
0.630866
0.623621
0.614549
0.605064
0.595993
0.585874
0.575768
0.565089
0.559718
0.549321
0.546195
0.536472
0.522673
0.511979
0.500168
0.494421
0.496254
0.478912
0.466159
0.454736
0.442669
0.436695
0.426875
0.418343
0.405429
0.392023
0.385136
0.374841
0.364931
0.353463
0.345991
0.334418
0.327584
0.317491
0.30715
0.295941
0.284017
0.272455
0.265337
0.252403
0.237873
0.230054
0.220421
0.211216
0.201457
0.191516
0.181565
0.171642
0.161749
0.151878
0.142027
0.132192
0.122365
0.112548
0.102737
0.0929314
0.083129
0.073327
0.0635254
0.0537258
0.0439305
0.0341387
0.0243335
0.0144781
0.00473122
0.746246
0.735009
0.720517
0.708142
0.699079
0.689807
0.677224
0.668669
0.661591
0.643355
0.632154
0.622508
0.612484
0.602091
0.594852
0.585952
0.576327
0.572447
0.556066
0.553184
0.546365
0.53905
0.5238
0.509994
0.502507
0.495587
0.490047
0.480466
0.465942
0.454469
0.443363
0.435773
0.425846
0.414325
0.405823
0.395092
0.385899
0.373571
0.364348
0.354456
0.345588
0.335232
0.325819
0.314841
0.305346
0.294936
0.284203
0.272497
0.264726
0.253226
0.240819
0.230659
0.21941
0.211892
0.201883
0.191737
0.181683
0.171705
0.16178
0.151891
0.142029
0.132185
0.122355
0.112535
0.102723
0.0929176
0.0831166
0.0733161
0.0635159
0.0537173
0.0439233
0.0341338
0.0243327
0.0144799
0.00473257
0.748823
0.728488
0.723555
0.710754
0.700122
0.689821
0.677615
0.667058
0.66411
0.643805
0.632097
0.6219
0.611239
0.59888
0.59431
0.586575
0.581896
0.571173
0.5586
0.551246
0.54511
0.536012
0.524363
0.51333
0.504519
0.496535
0.488551
0.478875
0.46581
0.453916
0.442437
0.433147
0.422365
0.417385
0.406989
0.396532
0.385343
0.374116
0.36458
0.355028
0.345173
0.335088
0.326416
0.310601
0.304314
0.294287
0.284656
0.271509
0.26706
0.254821
0.241918
0.232765
0.215607
0.213166
0.202316
0.19187
0.181729
0.171719
0.161778
0.151879
0.14201
0.132163
0.122332
0.112513
0.102703
0.0928999
0.0831008
0.0733031
0.063505
0.0537087
0.0439161
0.0341293
0.0243311
0.0144829
0.00473437
0.747021
0.729893
0.723111
0.712245
0.701028
0.68996
0.677426
0.669743
0.660406
0.645992
0.631467
0.621796
0.611798
0.602112
0.596941
0.584527
0.579355