/*--------------------------------*- C++ -*----------------------------------*\
  =========                 |
  \\      /  F ield         | OpenFOAM: The Open Source CFD Toolbox
   \\    /   O peration     | Website:  https://openfoam.org
    \\  /    A nd           | Version:  12
     \\/     M anipulation  |
\*---------------------------------------------------------------------------*/
FoamFile
{
    format      ascii;
    class       surfaceScalarField;
    location    "0.45";
    object      phi.water;
}
// * * * * * * * * * * * * * * * * * * * * * * * * * * * * * * * * * * * * * //

dimensions      [0 3 -1 0 0 0 0];

internalField   nonuniform List<scalar> 
7375
(
1.08194e-07
6.86831e-09
9.54032e-08
1.19516e-08
1.08657e-07
-1.32538e-08
1.19859e-07
-1.00729e-08
1.16124e-07
3.72559e-09
1.05886e-07
1.0259e-08
1.10814e-07
-4.88341e-09
1.03577e-07
7.23676e-09
1.06745e-07
-3.15192e-09
9.38576e-08
1.28695e-08
9.76373e-08
-2.79395e-09
6.60089e-08
-1.98285e-08
1.13033e-07
3.50807e-09
1.01708e-07
1.12557e-08
1.09066e-07
-7.25481e-09
1.37768e-07
-2.75918e-08
9.1469e-08
4.57939e-08
8.7576e-08
2.99646e-09
7.18549e-08
1.5714e-08
6.62495e-08
5.58072e-09
5.32592e-08
1.31041e-08
6.6534e-08
-1.33068e-08
6.65072e-08
1.42293e-11
6.99888e-08
-3.49594e-09
6.38606e-08
6.1086e-09
6.0286e-08
4.14538e-09
5.36149e-08
6.64887e-09
4.37502e-08
9.3906e-09
4.27046e-08
1.05405e-09
4.29369e-08
-2.54238e-10
4.40521e-08
-1.1409e-09
7.81252e-08
-3.45044e-08
9.06397e-08
-1.27731e-08
8.91577e-08
2.36983e-09
9.10118e-08
-1.83495e-09
8.04743e-08
1.03994e-08
6.43561e-08
1.60864e-08
5.72966e-08
7.12145e-09
4.42944e-08
1.35892e-08
3.33183e-08
1.10908e-08
3.0156e-08
2.53801e-09
4.15965e-08
-1.14402e-08
3.05804e-08
1.17517e-08
1.57071e-07
2.67086e-08
5.68127e-08
-5.22489e-08
2.12022e-08
-1.52449e-08
6.41471e-08
8.00888e-09
3.72115e-08
2.73794e-08
1.57017e-07
3.49529e-08
-1.37819e-08
-3.54908e-08
4.30823e-08
-5.6944e-09
2.84365e-08
1.46459e-08
2.76704e-08
5.43362e-10
2.90423e-08
-1.37148e-09
1.98663e-08
9.45074e-09
1.02623e-08
9.49116e-09
6.98486e-09
3.25773e-09
-5.99184e-08
1.55943e-08
-2.20141e-08
1.31991e-08
-3.90338e-08
1.72849e-08
-3.057e-08
-8.07408e-09
-1.91241e-08
-1.14456e-08
-8.37643e-09
-1.07482e-08
2.11559e-10
-8.58784e-09
8.10866e-09
-7.89776e-09
1.71461e-08
-9.03735e-09
2.96363e-08
-1.24909e-08
4.24955e-08
-1.2859e-08
4.90684e-08
-6.57328e-09
4.00936e-08
8.97528e-09
1.49284e-08
2.51651e-08
-1.99069e-08
3.48352e-08
-5.93296e-08
3.94218e-08
-9.08364e-08
3.15057e-08
6.67249e-09
-2.60388e-09
2.33836e-08
-5.76736e-08
1.53583e-08
-1.06263e-08
-8.65681e-09
9.09767e-09
-3.01971e-08
-1.12401e-08
2.40636e-08
-1.68848e-08
1.59617e-08
-1.32741e-08
-8.494e-09
-3.91482e-09
-2.23478e-09
4.46682e-09
-1.16523e-08
3.03974e-08
-1.27506e-08
-2.69402e-09
-2.1202e-08
3.04537e-08
-1.86645e-09
4.32637e-08
-9.73879e-09
5.0715e-08
3.72929e-09
3.52448e-08
9.27072e-09
1.62501e-07
-1.00509e-09
3.95786e-08
1.48419e-08
1.66848e-08
2.62984e-08
-4.62667e-09
3.6808e-08
-2.39963e-08
2.49605e-08
-8.56461e-08
2.3283e-08
-5.13679e-08
4.47932e-09
-4.90036e-08
-2.32646e-09
-5.04463e-08
-1.53851e-09
-3.11331e-08
-1.28904e-08
-1.40249e-08
-1.32771e-08
-6.81202e-09
-7.75093e-10
-1.09105e-08
1.34891e-08
-1.37013e-08
3.84465e-09
-1.7424e-08
3.50425e-09
-3.45593e-08
-3.48437e-08
2.01161e-08
-3.84888e-08
-1.12541e-08
1.86733e-08
-6.5689e-09
-2.01875e-09
-2.84276e-08
2.05178e-08
-3.13155e-08
1.30001e-08
-3.20642e-08
1.60247e-08
-5.08787e-08
2.54115e-08
-6.45408e-08
2.71102e-08
-6.98041e-08
1.69049e-08
-7.17986e-08
5.24434e-09
-7.58809e-08
-7.47455e-09
-7.00979e-08
6.68356e-09
-2.4703e-08
-1.87066e-08
-2.23492e-08
-5.538e-08
-5.08403e-08
1.30407e-08
-1.58597e-08
-2.72499e-08
-2.97216e-08
4.11251e-08
-7.00868e-09
1.21319e-08
-4.97435e-08
7.17261e-09
-5.64108e-08
9.72841e-10
-4.63804e-08
4.61554e-09
-6.12061e-08
1.5369e-08
-8.44862e-08
2.18947e-08
-9.4539e-08
2.02612e-08
-1.06271e-07
2.20732e-08
-1.22455e-07
1.9409e-08
-1.21352e-07
1.4336e-08
-1.13328e-07
5.04305e-09
-9.97395e-08
3.52365e-09
-9.71279e-08
-1.06859e-08
-9.55428e-08
-1.30307e-08
-9.33368e-08
-1.29545e-08
-9.06124e-08
-1.13123e-08
-8.51958e-08
-1.33147e-08
-7.48427e-08
-1.93907e-08
-6.3058e-08
-2.42761e-08
-5.17225e-08
-2.41946e-08
-4.62944e-08
-1.20015e-08
-5.48749e-08
1.75559e-08
-7.39935e-08
4.42838e-08
-9.68569e-08
5.76983e-08
-1.11841e-07
5.44053e-08
-1.14293e-07
3.39562e-08
2.94452e-09
-9.23039e-08
4.73096e-08
-1.0281e-07
2.57092e-08
-1.22558e-07
9.94338e-09
-1.85156e-08
2.11325e-08
-1.44729e-07
-2.85923e-09
-1.29628e-07
8.61197e-10
-1.76012e-07
-1.15914e-08
-1.25836e-07
-2.9779e-09
-1.27673e-07
-1.11121e-08
-1.23401e-07
-1.44613e-08
-1.31444e-07
-1.29447e-08
-8.0333e-08
-5.43181e-08
-9.20557e-08
1.88466e-09
-1.09625e-07
1.91004e-08
-1.71133e-07
1.84262e-08
-1.1302e-09
3.72677e-08
-8.91346e-08
-4.9024e-08
-9.8818e-08
3.44528e-08
-8.65603e-08
2.36673e-08
-8.19038e-08
2.00467e-08
-7.57455e-08
1.77227e-08
-8.23414e-08
1.19153e-08
-8.44612e-08
-2.06667e-10
-9.66261e-08
9.76473e-09
-9.75458e-08
-1.21022e-08
-8.41963e-08
-2.67621e-08
-8.16892e-08
-3.28232e-09
-7.60598e-08
7.85973e-09
-8.89895e-08
1.60299e-08
-1.31162e-07
-6.04098e-09
-1.37595e-07
2.27137e-08
-4.24201e-08
2.10935e-08
-1.56914e-07
-2.03524e-08
-1.14319e-07
-4.6252e-08
-1.22739e-07
-2.25688e-08
-1.13964e-07
6.77218e-09
-1.09379e-07
6.14919e-08
-1.13994e-07
2.8651e-08
-1.0352e-07
1.636e-08
-9.3714e-08
6.92625e-09
-1.04689e-07
1.62196e-08
-1.24407e-07
1.22432e-08
-1.23949e-07
6.22476e-09
-1.36561e-07
-6.28526e-09
-5.34206e-08
1.50309e-08
-1.75772e-07
-1.84031e-08
-7.75601e-08
2.86797e-08
-1.77737e-07
-1.3525e-08
-1.73911e-07
6.58116e-09
-1.60879e-07
-2.33495e-09
-1.59886e-07
-2.00447e-11
-1.48986e-07
-6.28404e-09
-1.55142e-07
2.13071e-08
-1.55251e-07
2.33499e-08
-1.49376e-07
1.57355e-08
-1.47893e-07
2.05897e-08
-1.52542e-07
2.40584e-08
-1.57327e-07
1.91209e-08
-1.63813e-07
1.15292e-08
-1.61528e-07
1.23882e-09
-1.61943e-07
-1.0271e-08
-1.61132e-07
-1.38421e-08
-1.6038e-07
-1.3707e-08
-1.58561e-07
-1.31316e-08
-1.54873e-07
-1.70026e-08
-1.49199e-07
-2.50647e-08
-1.45612e-07
-2.78638e-08
-1.43428e-07
-2.6379e-08
-1.44079e-07
-1.13504e-08
-1.46091e-07
1.95677e-08
-1.45992e-07
4.41852e-08
-1.38395e-07
5.01008e-08
-1.29375e-07
4.53837e-08
-1.20643e-07
2.52232e-08
-1.38501e-09
-1.53202e-07
-6.20775e-09
-1.51653e-07
2.10514e-08
-1.83201e-07
3.91999e-08
-5.45983e-08
4.93547e-08
-1.96304e-07
-1.41672e-08
-1.81298e-07
-1.41451e-08
-1.98607e-07
-4.34463e-08
-1.6475e-07
1.3671e-08
-1.61406e-07
-1.60233e-08
-1.67792e-07
-7.99406e-09
-2.05607e-07
-2.64513e-08
-6.18163e-08
6.65266e-09
-1.41402e-07
-7.28436e-08
-1.46546e-07
2.54791e-08
-1.43561e-07
1.50693e-08
-1.21901e-07
1.41432e-08
-3.45113e-08
1.70093e-08
-1.37908e-07
-1.41705e-08
-1.11101e-07
-4.50091e-09
-1.03503e-07
1.22438e-08
-9.85772e-08
1.27972e-08
-9.99794e-08
1.33176e-08
-1.04416e-07
4.22775e-09
-1.29827e-07
-1.60146e-08
-1.34003e-07
-7.92674e-09
-1.21688e-07
1.21136e-08
-1.15706e-07
-9.35952e-09
-1.20075e-07
1.10032e-08
-1.72858e-07
1.70951e-08
-1.47031e-07
2.11474e-08
-1.30649e-07
6.33152e-09
-1.03997e-07
-5.77409e-09
-1.19791e-07
-5.78042e-09
-7.40633e-08
6.25298e-08
-1.08385e-07
1.2739e-08
-9.95229e-08
-1.07517e-09
-1.6414e-07
-2.52901e-08
-1.40629e-07
3.4648e-09
-1.24578e-07
3.08657e-10
-9.74904e-08
-2.0369e-08
-1.33387e-07
5.21159e-08
-1.18549e-07
-2.59506e-09
-1.22888e-07
1.05643e-08
-1.26391e-07
-2.78234e-09
-1.18796e-07
7.43535e-09
-1.3806e-07
6.73673e-10
-1.16865e-07
7.11863e-09
-1.39841e-07
9.21901e-09
-1.46786e-07
1.18947e-08
-1.66119e-07
1.6998e-08
-1.57588e-07
-6.85642e-09
-1.5224e-07
-1.01832e-08
-1.42274e-07
1.26504e-08
-1.27657e-07
8.49939e-09
-1.26947e-07
1.50259e-08
-1.29023e-07
2.26657e-08
-1.33183e-07
2.82184e-08
-1.41534e-07
2.74719e-08
-1.52162e-07
2.21568e-08
-1.59438e-07
8.51471e-09
-1.64596e-07
-5.11288e-09
-1.683e-07
-1.01382e-08
-1.73091e-07
-8.91581e-09
-1.76793e-07
-9.42977e-09
-1.75922e-07
-1.78741e-08
-1.72498e-07
-2.8489e-08
-1.70136e-07
-3.02262e-08
-1.71246e-07
-2.52687e-08
-1.74065e-07
-8.53212e-09
-1.70088e-07
1.55908e-08
-1.59252e-07
3.33493e-08
-1.44673e-07
3.55207e-08
-1.31394e-07
3.21034e-08
-1.23812e-07
1.76404e-08
-3.78752e-09
-1.85804e-07
2.17787e-08
-1.72347e-07
1.12496e-08
-1.68105e-07
3.45638e-08
-1.43777e-07
2.28082e-08
-1.78898e-07
2.09539e-08
-1.84317e-07
-8.63733e-09
-8.85054e-08
1.52165e-08
-1.82647e-07
-4.407e-08
-1.31689e-07
-6.75e-08
-1.47673e-07
7.90938e-09
-1.59826e-07
-1.58043e-08
-1.55086e-07
3.30328e-10
-8.24664e-08
1.05413e-08
-1.83647e-07
-2.45279e-08
-1.49915e-07
-2.01766e-08
-1.30433e-07
-5.33838e-09
-1.04039e-07
-9.38435e-09
-1.49174e-07
-1.88487e-08
-1.0881e-07
5.80786e-09
-1.04933e-07
7.25758e-09
-1.04331e-07
1.21949e-08
-1.06082e-07
1.50682e-08
-1.23141e-07
2.15063e-08
-1.28717e-07
-1.0439e-08
-1.39833e-07
3.18958e-09
-1.3581e-07
6.70554e-09
-1.52611e-07
7.44062e-09
-1.46025e-07
5.9741e-09
-1.35927e-07
6.82328e-09
-1.25765e-07
1.09846e-08
-1.26094e-07
6.66076e-09
-1.16315e-07
-1.57131e-08
-2.2539e-08
5.36965e-08
-1.02228e-07
-1.04333e-08
-9.53062e-08
4.77439e-09
-1.07654e-07
1.12726e-08
-1.32895e-07
-3.07822e-10
-1.41355e-07
1.19246e-08
-1.58087e-07
1.54278e-08
-5.81201e-08
3.48185e-08
-1.78848e-07
-3.13247e-08
-1.4307e-07
1.28171e-08
-1.30823e-07
-1.68307e-09
-1.27178e-07
-6.42753e-09
-1.2053e-07
7.87618e-10
-1.12144e-07
-6.56843e-09
-7.77869e-08
-2.6723e-08
-8.85183e-08
1.91649e-08
-8.95832e-08
1.20565e-08
-9.07383e-08
1.77982e-08
-1.13049e-07
1.41564e-08
-1.38184e-07
1.63758e-08
-1.23958e-07
1.2002e-09
-1.2175e-07
6.29128e-09
-1.20733e-07
1.40091e-08
-1.22798e-07
2.47299e-08
-1.26357e-07
3.17774e-08
-1.31751e-07
3.28664e-08
-1.39369e-07
2.97746e-08
-1.51518e-07
2.06638e-08
-1.65485e-07
8.85381e-09
-1.77021e-07
1.39807e-09
-1.8425e-07
-1.68708e-09
-1.85051e-07
-8.62916e-09
-1.79178e-07
-2.37477e-08
-1.73899e-07
-3.3768e-08
-1.69414e-07
-3.47109e-08
-1.67728e-07
-2.69556e-08
-1.68612e-07
-7.64843e-09
-1.64869e-07
1.18483e-08
-1.53509e-07
2.19885e-08
-1.40608e-07
2.26187e-08
-1.29644e-07
2.11382e-08
-1.24939e-07
1.29348e-08
-3.11137e-09
-1.95738e-07
2.73939e-08
-1.68877e-07
-1.57709e-08
-1.72147e-07
3.7801e-08
-1.61623e-07
1.22851e-08
-1.8134e-07
-8.66939e-09
-1.47518e-07
8.21465e-09
-1.2639e-07
-7.41606e-09
-1.94103e-07
-2.79966e-08
-5.83231e-08
2.07677e-09
-1.46329e-07
-5.54651e-08
-1.29029e-07
-3.45969e-08
-1.21573e-07
-7.12517e-09
-1.06145e-07
-4.99414e-09
-1.54527e-07
-2.601e-08
-1.24314e-07
2.83404e-10
-1.15013e-07
-1.59077e-08
-8.26295e-08
-4.21979e-08
-1.22005e-07
2.05268e-08
-9.44147e-08
-2.17231e-08
-1.07549e-07
2.06024e-08
-1.17024e-07
2.16698e-08
-1.20615e-07
1.74281e-08
-1.67772e-07
1.69455e-08
-1.47633e-07
2.23237e-08
-1.50895e-07
6.45203e-09
-1.44532e-07
3.4249e-10
-1.37528e-07
3.60682e-10
-1.3044e-07
-1.11437e-09
-1.25535e-07
1.919e-09
-1.2104e-07
6.48951e-09
-1.37733e-07
2.19477e-08
-3.65162e-08
3.8601e-08
-1.17889e-07
-1.65825e-08
-8.70057e-08
-4.26258e-08
-1.1147e-07
2.92388e-08
-1.1799e-07
1.77926e-08
-1.24458e-07
6.15963e-09
-1.27685e-07
1.51517e-08
-1.35456e-07
2.31987e-08
-1.02074e-07
1.06994e-09
-1.22336e-07
-1.10623e-08
-1.21305e-07
1.1786e-08
-1.2944e-07
6.4517e-09
-1.3626e-07
3.96496e-10
-1.31476e-07
-3.99696e-09
-1.57409e-07
1.77592e-08
-6.617e-08
3.69163e-08
-1.8913e-07
-1.06847e-08
-1.20111e-07
-5.57378e-08
-9.57743e-08
-5.57083e-09
-1.22078e-07
3.94929e-08
-1.12142e-07
4.97615e-09
-1.12225e-07
2.44103e-09
-1.12078e-07
7.2658e-09
-1.14937e-07
1.68679e-08
-1.16061e-07
2.58543e-08
-1.19209e-07
3.49249e-08
-1.21599e-07
3.5257e-08
-1.24666e-07
3.28413e-08
-1.3156e-07
2.75576e-08
-1.42989e-07
2.02828e-08
-1.55979e-07
1.4388e-08
-1.64277e-07
6.61138e-09
-1.63619e-07
-9.28769e-09
-1.57351e-07
-3.00158e-08
-1.54768e-07
-3.63508e-08
-1.54107e-07
-3.53721e-08
-1.56272e-07
-2.47907e-08
-1.57436e-07
-6.48505e-09
-1.52833e-07
7.24457e-09
-1.44571e-07
1.37267e-08
-1.36608e-07
1.46545e-08
-1.29805e-07
1.43339e-08
-1.26564e-07
9.6927e-09
-2.02806e-09
-1.88864e-07
-1.94959e-08
-8.132e-08
3.07322e-08
-1.6989e-07
-2.48274e-08
-1.49472e-07
-9.86494e-09
-1.52982e-07
-5.15924e-09
-1.26129e-07
-1.85541e-08
-1.14154e-07
-1.93909e-08
-1.24724e-07
-1.74262e-08
-9.01313e-08
-3.15965e-08
-1.03475e-07
-4.2681e-08
-8.58594e-08
-5.38175e-08
-1.07378e-07
1.43931e-08
-9.93968e-08
-1.28437e-08
-1.21869e-07
-3.53783e-09
-1.22472e-07
8.89794e-10
-1.47609e-07
7.7232e-09
-5.12718e-08
1.6792e-08
-1.63581e-07
-7.21386e-08
-1.27978e-07
-7.51813e-09
-2.01941e-07
4.28478e-08
-1.63713e-07
3.66928e-08
-1.62719e-07
1.64333e-08
-1.73869e-07
2.76407e-08
-1.66981e-07
1.54363e-08
-1.64589e-07
4.05969e-09
-1.5649e-07
-7.7564e-09
-1.59819e-07
3.68948e-09
-1.3699e-07
-2.37017e-08
-1.41273e-07
6.20188e-09
-1.39626e-07
4.84248e-09
-1.36447e-07
1.87683e-08
-1.21067e-07
2.28275e-08
-1.84935e-07
-4.07371e-09
-3.41722e-08
1.14897e-08
-1.87577e-07
2.90719e-08
-1.57511e-07
-1.22729e-08
-1.26352e-07
-2.5e-08
-1.49147e-07
3.75632e-08
-1.59457e-07
-1.60546e-08
-1.35731e-07
2.80176e-08
-1.07557e-07
-4.06218e-08
-1.34342e-07
3.81818e-08
-1.43169e-07
1.38176e-08
-1.57625e-07
1.48528e-08
-1.40857e-07
-1.93548e-08
-1.77608e-07
5.45105e-08
-1.48174e-07
5.59376e-09
-2.05726e-07
-4.85023e-09
-1.12426e-07
5.78224e-08
-9.82908e-08
-1.97631e-08
-2.04436e-07
-5.72191e-08
-1.49098e-07
3.11817e-10
-1.46644e-07
-3.74906e-11
-1.41531e-07
3.6187e-09
-1.34786e-07
1.01233e-08
-1.28817e-07
1.98851e-08
-1.23558e-07
2.96658e-08
-1.21878e-07
3.35772e-08
-1.20721e-07
3.16838e-08
-1.21588e-07
2.84242e-08
-1.25571e-07
2.42657e-08
-1.30067e-07
1.88848e-08
-1.31797e-07
8.34068e-09
-1.30736e-07
-1.03491e-08
-1.31418e-07
-2.93332e-08
-1.34558e-07
-3.32114e-08
-1.39911e-07
-3.00193e-08
-1.46896e-07
-1.78061e-08
-1.48948e-07
-4.43303e-09
-1.4534e-07
3.63643e-09
-1.40103e-07
8.48864e-09
-1.35165e-07
9.71571e-09
-1.30982e-07
1.01502e-08
-1.28431e-07
7.13973e-09
-1.3546e-09
-1.1746e-07
-2.26376e-08
-1.2971e-07
4.26702e-08
-1.38212e-07
-1.65781e-08
-1.45381e-07
-2.69516e-09
-1.36038e-07
-1.45021e-08
-1.33606e-07
-2.09861e-08
-1.40926e-07
-1.20706e-08
-1.40903e-07
-1.74484e-08
-1.43588e-07
-2.92092e-08
-1.47248e-07
-4.13812e-08
-7.68294e-08
3.09183e-08
-2.05497e-07
-5.88205e-08
-1.29279e-07
-3.87794e-08
-1.45944e-07
1.16883e-08
-1.51136e-07
6.08268e-09
-1.6447e-07
1.93793e-08
-1.88703e-07
3.89062e-08
-1.35362e-07
3.05397e-08
-1.47264e-07
5.77886e-09
-2.93428e-07
-1.48356e-08
-2.01378e-07
-4.12492e-09
-1.91144e-07
8.14868e-09
-1.7777e-07
1.42667e-08
-1.92364e-07
2.8217e-08
-1.8187e-07
-6.36896e-09
-1.75686e-07
-1.39408e-08
-1.93656e-07
-2.75556e-08
-1.46227e-07
-2.04571e-08
-1.43692e-07
2.1752e-09
-1.3962e-07
7.70762e-10
-1.34157e-07
1.33051e-08
-1.63987e-07
5.26568e-08
-1.70465e-07
6.65699e-10
-4.32088e-08
3.93872e-08
-1.96531e-07
-2.19267e-08
-1.79646e-07
2.20318e-08
-7.63238e-08
2.6028e-08
-1.66442e-07
-2.43396e-08
-1.63624e-07
-2.05701e-08
-1.74205e-07
-1.2306e-08
-3.34536e-08
2.37294e-08
-1.56533e-07
9.14807e-09
-1.60324e-07
1.6012e-08
-1.7195e-07
2.45726e-08
-9.81038e-08
6.19533e-08
-2.08643e-07
-3.83206e-08
-1.70866e-07
1.90074e-08
-1.84854e-07
9.18698e-09
-1.67857e-07
-1.03648e-08
-1.51698e-07
1.37209e-08
-1.94708e-07
-1.4209e-08
-1.83185e-07
-9.22184e-09
-1.83224e-07
1.87042e-09
-1.76842e-07
-9.30797e-10
-1.70623e-07
3.90451e-09
-1.61646e-07
1.09074e-08
-1.49362e-07
1.7382e-08
-1.37287e-07
2.15022e-08
-1.2794e-07
2.23367e-08
-1.23026e-07
2.35096e-08
-1.20884e-07
2.21243e-08
-1.19567e-07
1.7568e-08
-1.18866e-07
7.63951e-09
-1.19573e-07
-9.6427e-09
-1.2424e-07
-2.46664e-08
-1.29867e-07
-2.75845e-08
-1.36012e-07
-2.38747e-08
-1.41442e-07
-1.23758e-08
-1.4229e-07
-3.58538e-09
-1.40186e-07
1.53179e-09
-1.37212e-07
5.51418e-09
-1.34142e-07
6.64483e-09
-1.3162e-07
7.62734e-09
-1.29846e-07
5.36449e-09
-8.79575e-10
-5.28988e-08
3.13293e-08
-1.80535e-07
-3.44538e-08
-1.57607e-07
1.16851e-08
-1.49558e-07
-1.07436e-08
-1.41751e-07
-2.23084e-08
-1.20605e-07
-4.25664e-08
-1.57066e-07
2.43905e-08
-1.52386e-07
-2.36822e-08
-1.69368e-07
-1.41184e-08
-1.00668e-07
4.68183e-08
-2.16992e-07
-5.67532e-09
-2.38108e-07
-4.01334e-08
-1.208e-07
-8.78284e-11
-1.88532e-07
-7.21085e-08
-1.75856e-07
-8.51632e-09
-1.76344e-07
1.98675e-08
-1.96818e-07
5.63997e-08
-1.88235e-07
2.1642e-08
-1.69949e-07
-1.25072e-08
-2.5255e-07
1.84603e-08
-2.05419e-07
1.96807e-09
-2.01721e-07
2.35486e-09
-1.90894e-07
3.5857e-09
-2.08085e-07
-3.66003e-09
-1.88716e-07
2.46864e-08
-2.03936e-07
-6.46531e-10
-2.40148e-07
8.65674e-09
-1.44411e-07
3.67934e-08
-1.58324e-07
1.60877e-08
-1.56883e-07
-6.69685e-10
-1.35181e-07
-8.39724e-09
-2.30652e-07
-5.66344e-08
-1.56518e-07
-2.25075e-08
-1.38351e-07
2.08181e-08
-1.77596e-07
1.73188e-08
-1.69234e-07
1.36693e-08
-1.5258e-07
9.37387e-09
-1.62009e-07
-1.5159e-08
-1.56341e-07
-2.62381e-08
-2.06147e-07
3.71208e-08
-6.1303e-08
3.30824e-08
-1.7595e-07
-2.81333e-08
-1.64395e-07
2.6623e-09
-1.55425e-07
1.5603e-08
-1.47571e-07
3.74407e-09
-1.51714e-07
1.64959e-08
-1.43107e-07
8.85167e-09
-1.34273e-07
3.49583e-10
-1.38446e-07
-6.19119e-09
-1.19947e-07
-4.77874e-09
-1.40187e-07
6.17592e-09
-1.40908e-07
-8.50057e-09
-1.4538e-07
7.8251e-09
-1.48041e-07
3.21647e-09
-1.53415e-07
9.27854e-09
-1.53702e-07
1.11944e-08
-1.47332e-07
1.10116e-08
-1.36786e-07
1.09561e-08
-1.25002e-07
1.05524e-08
-1.16829e-07
1.53372e-08
-1.12736e-07
1.80312e-08
-1.12097e-07
1.69291e-08
-1.1636e-07
1.19024e-08
-1.22928e-07
-3.07517e-09
-1.28222e-07
-1.93725e-08
-1.31717e-07
-2.40904e-08
-1.35112e-07
-2.04793e-08
-1.38523e-07
-8.96549e-09
-1.39881e-07
-2.22784e-09
-1.38857e-07
5.07923e-10
-1.36994e-07
3.65073e-09
-1.34875e-07
4.52544e-09
-1.3267e-07
5.42031e-09
-1.31033e-07
3.72624e-09
-6.61815e-10
-1.09787e-07
1.39111e-08
-1.50609e-07
6.36934e-09
-1.39045e-07
1.21533e-10
-1.53829e-07
4.04075e-09
-1.70438e-07
-7.43735e-09
-7.34309e-08
1.55808e-08
-2.14397e-07
-3.86558e-08
-1.91159e-07
2.34421e-09
-9.39942e-08
4.40166e-08
-1.90575e-07
-1.16353e-08
-2.28656e-07
-1.95128e-08
-2.37636e-07
2.25997e-08
-2.25735e-07
-1.42899e-08
-1.44559e-07
1.13796e-09
-1.78016e-07
2.6415e-08
-1.55344e-07
-1.2199e-09
-2.30654e-07
-2.03098e-08
-2.21925e-07
8.0746e-09
-1.14911e-07
3.64417e-08
-2.29688e-07
-1.78091e-08
-2.18557e-07
-1.16042e-08
-2.19037e-07
2.83484e-09
-2.14849e-07
-6.01935e-10
-2.24071e-07
7.76839e-09
-1.90421e-07
-8.71421e-09
-1.99578e-07
6.56744e-09
-1.98282e-07
9.38331e-09
-1.69465e-07
7.97707e-09
-1.65703e-07
1.05967e-08
-1.55314e-07
-1.10591e-08
-1.55941e-07
-7.69134e-09
-1.92568e-07
-2.19724e-08
-8.04935e-08
2.05721e-08
-1.90087e-07
-2.23388e-08
-1.75736e-07
2.96745e-09
-1.83426e-07
2.15803e-08
-1.69481e-07
-4.57168e-09
-1.83007e-07
-1.63335e-09
-7.52333e-08
2.0327e-08
-1.70314e-07
-1.98186e-08
-1.31403e-07
-7.56628e-09
-1.19446e-07
-4.03779e-08
-1.12589e-07
-4.19406e-09
-1.86098e-07
3.982e-08
-1.44229e-07
1.24222e-08
-1.2707e-07
-1.96601e-09
-1.41332e-07
-2.66346e-08
-1.15798e-07
2.52343e-08
-1.1907e-07
-4.10069e-09
-1.21358e-07
-2.46615e-09
-1.16319e-07
1.1373e-09
-1.31342e-07
6.52239e-09
-1.3494e-07
1.14234e-08
-1.3971e-07
9.4445e-09
-1.38978e-07
1.00437e-08
-1.37274e-07
9.49024e-09
-1.30057e-07
3.79482e-09
-1.20973e-07
1.87204e-09
-1.08841e-07
-1.58011e-09
-9.67834e-08
3.27969e-09
-8.86603e-08
9.90807e-09
-8.62431e-08
1.45118e-08
-8.78973e-08
1.35565e-08
-9.62769e-08
5.30438e-09
-1.07169e-07
-8.48042e-09
-1.15632e-07
-1.56276e-08
-1.23369e-07
-1.27431e-08
-1.29575e-07
-2.75942e-09
-1.33652e-07
1.84891e-09
-1.35329e-07
2.18435e-09
-1.35064e-07
3.38595e-09
-1.34297e-07
3.75739e-09
-1.32743e-07
3.86513e-09
-1.3174e-07
2.72203e-09
-4.30076e-10
-1.1325e-07
-6.43608e-09
-1.18832e-07
1.07969e-08
-1.20374e-07
1.66475e-09
-1.1892e-07
2.58666e-09
-1.32804e-07
6.44727e-09
-8.21036e-08
-3.52782e-08
-1.44849e-07
2.23838e-08
-1.56292e-07
1.37868e-08
-1.2913e-07
1.80003e-08
-1.56782e-07
1.4418e-08
-1.95578e-07
1.74685e-08
-2.38265e-07
1.57464e-08
-2.32059e-07
3.0758e-08
-1.02702e-07
2.69231e-08
-2.21696e-07
-7.18749e-09
-1.97839e-07
-2.50768e-08
-2.13739e-07
-4.6171e-09
-2.19439e-07
1.61785e-08
-1.75291e-07
-8.07405e-09
-2.05123e-07
7.87941e-09
-2.23292e-07
6.49781e-09
-2.12877e-07
-5.30224e-09
-2.04347e-07
-7.04709e-09
-1.91263e-07
-5.31588e-09
-1.78784e-07
-2.32329e-08
-1.66505e-07
-5.71211e-09
-1.54139e-07
-2.98246e-09
-1.46845e-07
7.64428e-10
-1.37523e-07
1.27467e-09
-1.44736e-07
-2.36976e-09
-1.2458e-07
-2.75682e-08
-1.2629e-07
-2.15338e-08
-1.04476e-07
-1.45168e-09
-1.41943e-07
1.51277e-08
-1.59834e-07
1.92281e-08
-1.98747e-07
8.77508e-09
-1.79447e-07
2.93463e-08
-1.731e-07
-7.9804e-09
-1.16139e-07
-3.70121e-08
-1.51464e-07
1.53049e-08
-1.63834e-07
4.80319e-09
-7.03093e-08
1.96686e-08
-4.53107e-08
-2.91926e-08
-2.08407e-07
2.78068e-10
-1.40324e-07
-4.91155e-09
-1.34492e-07
-9.22992e-09
-1.47304e-07
-1.23198e-08
-1.10147e-07
-1.1551e-08
-1.06449e-07
-7.83692e-09
-9.4731e-08
-1.41839e-08
-9.24613e-08
-2.12057e-09
-1.08263e-07
2.23245e-08
-1.12501e-07
1.5661e-08
-1.38483e-07
3.54266e-08
-1.38222e-07
1.1181e-08
-1.33145e-07
5.79528e-09
-1.27867e-07
-1.48393e-09
-1.17837e-07
-8.15755e-09
-1.08009e-07
-1.14084e-08
-9.58515e-08
-8.8776e-09
-8.33751e-08
-2.56835e-09
-7.44219e-08
5.55841e-09
-7.07253e-08
9.85989e-09
-7.51615e-08
9.74041e-09
-8.94148e-08
5.77275e-09
-1.08015e-07
2.97222e-09
-1.23494e-07
2.73544e-09
-1.31385e-07
5.13232e-09
-1.35016e-07
5.47971e-09
-1.36668e-07
3.83545e-09
-1.36096e-07
2.81375e-09
-1.3503e-07
2.69104e-09
-1.33264e-07
2.09682e-09
-1.32389e-07
1.84609e-09
-3.3404e-10
-1.6641e-07
1.81535e-08
-1.56897e-07
1.2853e-09
-1.59497e-07
4.2225e-09
-1.46794e-07
-1.01159e-08
-1.51491e-07
-4.04576e-08
-4.41813e-08
6.26242e-08
-1.4602e-07
-2.75199e-08
-1.26709e-07
-7.08164e-09
-1.03486e-07
-5.17047e-09
-1.0218e-07
1.29803e-08
-1.09548e-07
2.33031e-08
-1.56067e-07
1.02784e-08
-1.38503e-07
1.4637e-08
-1.22791e-07
6.08743e-08
-1.73838e-07
-7.85782e-09
-1.67385e-07
2.12176e-08
-1.65657e-07
-7.95457e-09
-2.00282e-07
-9.05093e-10
-1.79978e-07
2.68842e-08
-1.7187e-07
1.50678e-09
-1.6199e-07
-5.13172e-09
-1.70058e-07
1.11284e-09
-1.67746e-07
-9.35913e-09
-1.60432e-07
-1.26834e-08
-1.35268e-07
-4.88965e-08
-1.5241e-07
1.14305e-08
-1.45523e-07
-9.97178e-09
-1.44514e-07
-2.44105e-10
-1.37932e-07
-5.30796e-09
-1.4809e-07
-4.18906e-08
-1.05894e-07
-1.93698e-08
-1.02565e-07
-2.59432e-08
-9.87933e-08
-5.22316e-09
-1.02995e-07
1.93289e-08
-1.43485e-07
5.91155e-08
-1.62146e-07
2.73468e-08
-1.52464e-07
1.96636e-08
-1.66322e-07
4.1813e-09
-4.33198e-08
-4.91126e-09
-2.24424e-07
-7.911e-09
-1.70054e-07
1.62348e-09
-1.50136e-07
-2.48924e-10
-2.27668e-08
-2.7586e-09
-1.65653e-07
-1.04237e-08
-1.63087e-07
-9.14154e-09
-1.49203e-07
-2.14501e-08
-1.40439e-07
-1.96515e-08
-1.41985e-07
-1.01212e-08
-1.45745e-07
-5.52547e-09
-1.38469e-07
-2.32548e-08
-1.31424e-07
-9.2614e-09
-1.54072e-07
4.63138e-08
-1.61149e-07
2.2738e-08
-1.93366e-07
1.8239e-08
-1.48141e-07
1.79443e-08
-1.36655e-07
-5.69005e-09
-1.22318e-07
-1.58216e-08
-1.0883e-07
-2.16454e-08
-9.9444e-08
-2.07945e-08
-9.07508e-08
-1.75708e-08
-8.42956e-08
-9.02363e-09
-8.05163e-08
1.77907e-09
-8.17676e-08
1.11111e-08
-8.89941e-08
1.69669e-08
-1.03463e-07
2.02412e-08
-1.18602e-07
1.8111e-08
-1.28246e-07
1.23793e-08
-1.32332e-07
9.2184e-09
-1.34025e-07
7.17267e-09
-1.34975e-07
4.78459e-09
-1.34838e-07
2.67713e-09
-1.34463e-07
2.31541e-09
-1.33325e-07
9.56513e-10
-1.32711e-07
1.23123e-09
-1.7197e-10
-1.33716e-07
4.74081e-09
-1.32352e-07
1.27284e-09
-1.46587e-07
1.84588e-08
-1.54191e-07
-5.5801e-09
-6.05356e-08
2.10415e-08
-1.30487e-07
-7.02366e-08
-1.3005e-07
2.37521e-08
-1.06164e-07
-3.12095e-08
-6.55125e-08
-4.62322e-08
-5.077e-08
-1.91099e-09
-3.53288e-08
7.62902e-09
-3.06655e-08
5.46428e-09
-2.17241e-08
5.44097e-09
-1.63803e-08
4.07688e-09
-3.50217e-09
3.05704e-08
4.7346e-09
1.2933e-08
-4.2768e-09
1.15956e-09
-5.98312e-08
5.40111e-08
-7.82776e-08
4.47139e-08
-1.48964e-07
2.33361e-08
-1.25811e-07
2.23377e-08
-1.37991e-07
1.20085e-08
-1.4869e-07
1.34007e-09
-1.63367e-07
3.2731e-10
-7.53011e-08
1.8381e-08
-1.86755e-07
-3.21515e-08
-1.80272e-07
-1.64555e-08
-1.59059e-07
-1.96183e-08
-1.6689e-07
2.52395e-09
-8.81689e-08
3.2959e-08
-1.09287e-07
1.5502e-09
-9.09174e-08
-4.4769e-08
-8.67324e-08
-9.40823e-09
-7.46667e-08
8.02478e-09
-1.80916e-07
1.32112e-08
-1.65854e-07
1.04391e-08
-1.53118e-07
6.92744e-09
-1.59142e-07
8.58151e-09
-3.4035e-08
2.51864e-08
-2.07103e-07
-3.92574e-08
-1.503e-07
-3.98933e-09
-1.53059e-07
2.50992e-09
-2.29482e-08
2.09361e-08
-1.37191e-07
-4.69212e-08
-1.31156e-07
-1.64693e-08
-1.44024e-07
-9.92068e-09
-2.70827e-08
1.68071e-08
-1.58986e-07
-3.157e-08
-1.5323e-07
-1.28452e-08
-2.05451e-07
2.68485e-08
-1.0476e-07
4.74146e-08
-2.02151e-07
-8.79771e-09
-1.86285e-07
8.68428e-09
-1.77458e-07
1.1092e-08
-1.51532e-07
-7.98209e-09
-1.39272e-07
-1.79504e-08
-1.26077e-07
-2.90165e-08
-1.15077e-07
-3.2645e-08
-1.05957e-07
-2.99144e-08
-9.86562e-08
-2.48719e-08
-9.52854e-08
-1.23946e-08
-9.73161e-08
3.8097e-09
-1.06608e-07
2.0403e-08
-1.18421e-07
2.87794e-08
-1.29285e-07
3.11049e-08
-1.35989e-07
2.48156e-08
-1.3711e-07
1.34998e-08
-1.36459e-07
8.56676e-09
-1.3569e-07
6.40373e-09
-1.35562e-07
4.65609e-09
-1.35361e-07
2.47621e-09
-1.3485e-07
1.80366e-09
-1.33837e-07
-5.82515e-11
-1.33135e-07
5.27587e-10
-1.51952e-10
-1.75589e-07
-3.8012e-09
-1.72591e-07
-1.72404e-09
-1.861e-07
-1.90334e-08
-1.53103e-07
1.26138e-08
-1.43481e-07
1.12049e-08
-6.76048e-08
7.45902e-09
-1.86255e-07
-6.14893e-08
-1.79455e-07
-3.87235e-08
-1.41263e-07
-3.37054e-08
-1.34101e-07
-7.64582e-09
-1.36613e-07
1.03228e-08
-1.4001e-07
6.15702e-09
-1.5264e-07
-3.20169e-08
-1.2707e-07
3.04143e-08
-1.20782e-07
2.29859e-08
-1.32829e-07
2.37567e-08
-2.82656e-08
5.17626e-08
-1.28282e-07
1.29594e-09
-1.06817e-07
2.27924e-08
-1.10935e-07
2.74542e-08
-1.10043e-07
2.16737e-08
-1.20406e-07
2.23712e-08
-1.34523e-07
1.54572e-08
-1.41161e-07
5.52503e-09
-1.25665e-07
1.40069e-09
-1.81934e-07
-2.6305e-08
-1.37303e-07
-7.87274e-09
-1.37444e-07
-1.94775e-08
-1.08929e-07
-2.62589e-08
-1.20667e-07
4.46971e-08
-1.50703e-07
3.00483e-08
-6.01166e-08
1.9799e-08
-8.46989e-08
1.57874e-08
-7.3782e-08
-2.13947e-09
-1.70004e-07
-4.24537e-08
-1.50368e-07
-1.09319e-08
-1.37078e-07
-6.36193e-09
-1.24867e-07
-3.63011e-09
-1.06373e-07
6.43606e-09
-1.24122e-07
-2.15085e-08
-1.32075e-07
3.96377e-09
-1.37801e-07
8.23543e-09
-1.16872e-07
6.71386e-12
-1.08645e-07
-5.62004e-08
-1.14926e-07
-1.03561e-08
-1.03969e-07
-2.00212e-08
-5.44744e-08
-3.21375e-08
-7.77318e-08
-8.95317e-09
-1.1225e-07
2.10949e-08
-1.04336e-07
1.84722e-08
-9.22835e-08
3.48785e-08
-1.25928e-07
2.58676e-08
-1.2592e-07
9.84863e-09
-1.18444e-07
3.61609e-09
-1.21937e-07
-4.49005e-09
-1.28573e-07
-1.13138e-08
-1.36167e-07
-2.14229e-08
-1.41334e-07
-2.74776e-08
-1.42787e-07
-2.84614e-08
-1.41915e-07
-2.57446e-08
-1.37392e-07
-1.69174e-08
-1.34932e-07
1.35004e-09
-1.35363e-07
2.08337e-08
-1.3741e-07
3.08259e-08
-1.38118e-07
3.18127e-08
-1.37845e-07
2.45426e-08
-1.36576e-07
1.22304e-08
-1.35541e-07
7.53206e-09
-1.34961e-07
5.82316e-09
-1.34715e-07
4.40976e-09
-1.34457e-07
2.21847e-09
-1.34108e-07
1.45382e-09
-1.33564e-07
-6.04377e-10
-1.33172e-07
1.34517e-10
-4.98814e-11
-1.69513e-07
-7.89558e-09
-1.59725e-07
-1.15108e-08
-1.63272e-07
-1.54858e-08
-1.16948e-07
-3.40569e-08
-1.19168e-07
1.34253e-08
-1.13795e-07
3.24674e-09
-1.51459e-07
-2.51009e-08
-2.12138e-07
-3.13242e-08
-1.2896e-07
-6.28535e-08
-1.06912e-07
-3.1088e-08
-1.83161e-07
8.36888e-08
-2.08793e-07
3.36766e-08
-1.26151e-07
4.26565e-08
-1.77939e-07
-6.95115e-08
-1.81844e-07
2.48225e-08
-1.71806e-07
1.37194e-08
-1.35994e-07
1.55811e-08
-1.3825e-07
3.55239e-09
-1.31184e-07
1.57257e-08
-1.20409e-07
1.66801e-08
-1.0535e-07
6.61432e-09
-1.04111e-07
2.09188e-08
-1.00684e-07
1.20301e-08
-1.04837e-07
9.67844e-09
-9.81483e-08
-5.24923e-09
-1.1097e-07
-1.32145e-08
-1.05379e-07
-1.34642e-08
-1.22883e-07
-3.22692e-09
-2.60636e-08
3.20755e-08
-1.63672e-07
-2.24193e-08
-1.35622e-07
1.99893e-09
-9.76906e-08
3.31944e-08
-1.02092e-07
2.01889e-08
-1.01986e-07
-2.24566e-09
-1.28865e-07
-1.60076e-08
-1.22813e-07
-1.68122e-08
-1.07049e-07
-7.40724e-08
-1.01944e-07
-8.73528e-09
-1.25988e-07
3.01723e-08
-1.01097e-07
4.83984e-09
-1.40499e-07
4.33659e-08
-1.45385e-07
1.31215e-08
-1.59606e-07
1.25994e-08
-7.15799e-08
1.09275e-08
-1.77426e-07
-5.91612e-08
-1.6378e-07
-3.36674e-08
-1.5834e-07
-3.824e-08
-1.70292e-07
1.15154e-09
-1.93788e-07
-3.37413e-09
-1.66834e-07
4.45981e-08
-1.43388e-07
1.10806e-08
-1.33955e-07
1.76094e-08
-1.32493e-07
8.38695e-09
-1.33852e-07
4.97474e-09
-1.40077e-07
1.73509e-09
-1.48752e-07
-2.63918e-09
-1.57438e-07
-1.27367e-08
-1.63554e-07
-2.13619e-08
-1.6912e-07
-2.28954e-08
-1.7471e-07
-2.01549e-08
-1.77919e-07
-1.37086e-08
-1.74122e-07
-2.44677e-09
-1.65168e-07
1.18793e-08
-1.56392e-07
2.205e-08
-1.48855e-07
2.42761e-08
-1.42786e-07
1.84733e-08
-1.40454e-07
9.89801e-09
-1.38934e-07
6.01188e-09
-1.37329e-07
4.21739e-09
-1.35852e-07
2.93272e-09
-1.34987e-07
1.35343e-09
-1.34221e-07
6.87321e-10
-1.33785e-07
-1.04248e-09
-1.33381e-07
-2.70851e-10
-1.38477e-11
-1.43337e-07
-1.71222e-08
-1.39282e-07
-1.55648e-08
-1.58832e-07
2.44428e-09
-5.36061e-08
1.60374e-08
-1.66391e-07
-2.68142e-08
-1.34353e-07
-2.742e-08
-1.4524e-07
-1.44674e-08
-1.84316e-07
4.70968e-09
-1.31675e-07
3.83018e-08
-2.70217e-08
2.045e-08
-2.27812e-07
-7.44319e-08
-1.93778e-07
-6.93705e-10
-1.75613e-07
2.44913e-08
-7.81745e-08
3.79003e-08
-1.7982e-07
-2.55523e-08
-1.56519e-07
-1.30127e-08
-1.80906e-07
-1.17501e-08
-1.47977e-07
2.36598e-08
-1.39874e-07
7.62215e-09
-1.27874e-07
4.67995e-09
-1.20579e-07
5.4971e-10
-1.02307e-07
2.62006e-09
-9.08896e-08
-4.30567e-10
-1.27185e-07
-3.91864e-09
-9.366e-08
1.17798e-08
-1.03366e-07
-4.46372e-09
-1.0691e-07
-9.92019e-09
-9.41937e-08
-1.61079e-08
-9.73568e-08
3.39181e-08
-1.84502e-07
1.30078e-08
-1.5153e-07
2.05541e-08
-1.40305e-07
2.19689e-08
-1.21519e-07
2.83429e-09
-1.10696e-07
-1.30689e-08
-1.12547e-07
-1.30087e-08
-1.17422e-07
-1.31228e-08
-5.7328e-08
1.97776e-08
-6.26834e-08
-2.15563e-09
-1.66214e-07
-1.99956e-08
-5.22714e-08
4.43377e-08
-2.01742e-07
-1.13915e-08
-1.52621e-07
1.51907e-08
-1.43339e-07
3.3174e-09
-1.18906e-07
-1.36177e-08
-1.57521e-07
-2.07575e-08
-1.5722e-07
-3.55921e-08
-1.57341e-07
-3.85159e-08
-1.80716e-07
2.61197e-08
-1.95322e-07
9.2739e-09
-1.92533e-07