/*--------------------------------*- C++ -*----------------------------------*\
  =========                 |
  \\      /  F ield         | OpenFOAM: The Open Source CFD Toolbox
   \\    /   O peration     | Website:  https://openfoam.org
    \\  /    A nd           | Version:  12
     \\/     M anipulation  |
\*---------------------------------------------------------------------------*/
FoamFile
{
    format      ascii;
    class       surfaceScalarField;
    location    "0.45";
    object      phi.water_0;
}
// * * * * * * * * * * * * * * * * * * * * * * * * * * * * * * * * * * * * * //

dimensions      [0 3 -1 0 0 0 0];

internalField   nonuniform List<scalar> 
7375
(
1.0843e-07
-1.10072e-08
1.21894e-07
-1.47883e-08
8.67842e-08
3.51098e-08
8.20208e-08
5.67388e-09
1.0558e-07
-2.32925e-08
1.11083e-07
-5.48761e-09
1.21474e-07
-1.02907e-08
1.06951e-07
1.45214e-08
1.05881e-07
1.08002e-09
6.65325e-08
-1.1795e-08
1.15809e-07
3.12737e-09
2.04218e-07
6.67111e-08
8.65374e-08
-3.74887e-08
9.26164e-08
-6.01836e-09
1.04749e-07
-1.19919e-08
1.03867e-07
1.89876e-09
5.23321e-08
-8.56452e-11
8.83473e-08
1.47518e-08
7.00911e-08
1.8239e-08
6.85561e-08
1.45689e-09
9.72234e-08
-2.89266e-08
8.09424e-08
1.62106e-08
7.48587e-08
6.09662e-09
8.0095e-08
-5.25147e-09
7.11112e-08
8.93471e-09
6.79642e-08
3.79829e-09
7.56301e-09
8.73179e-09
2.55542e-08
3.31931e-08
3.02616e-08
-4.71358e-09
5.00797e-08
-1.98295e-08
7.64415e-08
-2.6332e-08
6.15773e-08
1.40838e-08
7.27311e-08
-1.13831e-08
7.65609e-08
-3.12427e-09
9.04708e-08
-1.37621e-08
8.47362e-08
5.62597e-09
6.43482e-08
2.03567e-08
5.90162e-08
5.42249e-09
4.99283e-08
9.69109e-09
3.77564e-08
1.23179e-08
3.32285e-08
3.82936e-09
4.74684e-08
-1.42403e-08
5.0576e-08
-2.61178e-09
4.85771e-08
1.89343e-09
4.46033e-08
4.38688e-09
1.63152e-07
3.6652e-08
2.90417e-08
-2.11174e-08
3.27945e-08
-3.67984e-09
2.03793e-08
1.24559e-08
1.44614e-07
3.08665e-08
-2.22169e-08
-3.93513e-08
3.69591e-08
-8.02736e-09
2.78841e-08
8.75029e-09
2.91225e-08
-1.23903e-09
1.71688e-08
1.22385e-08
1.17624e-09
1.5818e-08
-1.76996e-08
1.86961e-08
9.83013e-08
3.71842e-08
-7.56454e-08
-3.03827e-08
-7.01931e-08
-4.59131e-09
-1.91836e-08
-1.4035e-10
-1.638e-08
-2.80403e-09
-7.98954e-09
-8.38986e-09
-2.27546e-10
-7.76222e-09
7.27801e-09
-7.50476e-09
1.60593e-08
-8.78137e-09
2.84462e-08
-1.23861e-08
4.13249e-08
-1.28789e-08
4.80561e-08
-6.73071e-09
3.93386e-08
8.71701e-09
1.42695e-08
2.50693e-08
-2.07344e-08
3.5004e-08
-6.04668e-08
3.97335e-08
-9.2258e-08
3.17925e-08
6.68736e-09
-3.14051e-08
3.36609e-08
6.60153e-08
4.35915e-08
-6.62695e-08
-3.76829e-08
-4.94016e-08
-1.06906e-08
-1.00034e-08
-1.21401e-08
-8.83061e-09
-6.67275e-09
2.19411e-08
-4.10625e-08
5.51778e-10
3.57693e-08
-6.09951e-09
7.81093e-09
-3.15099e-08
1.32936e-08
1.04088e-07
2.24523e-08
4.38908e-08
-2.88535e-08
3.22104e-08
-2.61336e-08
4.77282e-08
-2.16931e-08
7.44176e-08
-3.89867e-08
5.4984e-08
2.18683e-08
3.66833e-08
1.85902e-08
2.9619e-08
2.18161e-08
1.02452e-08
3.74152e-08
-8.43973e-08
4.39645e-08
3.78631e-08
5.65551e-08
-7.52623e-08
-2.46217e-08
-4.90492e-08
-1.99132e-08
-3.73709e-08
-1.65486e-08
-1.78422e-08
-1.04137e-08
-2.08943e-08
6.67016e-09
-2.4515e-08
1.20503e-08
-3.27372e-08
-9.7752e-09
3.84283e-09
9.89693e-09
-2.02416e-08
4.29868e-09
6.83986e-08
3.79014e-08
-4.19281e-08
-2.84568e-08
-4.17422e-08
-1.22516e-08
-2.9925e-08
-1.37845e-08
-9.3699e-09
-3.45716e-08
-8.69846e-09
4.85991e-09
-3.80647e-08
4.87487e-08
-5.89898e-08
2.57396e-08
-7.111e-08
2.16865e-08
-7.45154e-08
1.63292e-08
-7.10095e-08
1.08381e-09
-8.45712e-08
-8.2398e-10
-7.74888e-08
-8.90348e-09
-5.93773e-08
-1.56185e-08
-4.21621e-08
-1.32936e-08
-1.50234e-08
8.70918e-09
-3.10066e-08
-5.13416e-09
-3.87686e-08
4.4775e-09
-2.91259e-08
2.87121e-09
-1.57559e-08
1.68842e-08
-5.58549e-08
7.47777e-10
-5.71145e-08
-6.76802e-09
-7.73641e-08
2.89999e-08
-8.72955e-08
8.6795e-09
-9.66486e-08
2.23497e-08
-1.07029e-07
2.70065e-08
-1.14795e-07
2.62754e-08
-9.39572e-08
1.5974e-08
-1.18312e-07
-5.72428e-09
-1.15965e-07
-6.89232e-09
-1.05105e-07
-1.1e-08
-9.7339e-08
-1.05703e-08
-9.43781e-08
-1.13505e-08
-9.17316e-08
-1.04085e-08
-8.6527e-08
-1.27089e-08
-7.63205e-08
-1.89876e-08
-6.46399e-08
-2.40662e-08
-5.33562e-08
-2.41624e-08
-4.77935e-08
-1.22933e-08
-5.62178e-08
1.71412e-08
-7.53607e-08
4.42122e-08
-9.81993e-08
5.7843e-08
-1.13264e-07
5.47996e-08
-1.15782e-07
3.43121e-08
2.93279e-09
-9.89904e-08
3.53867e-08
-7.23727e-08
1.65278e-08
-1.23049e-07
1.31266e-08
-1.33586e-07
-1.51702e-09
-1.5954e-07
1.38305e-08
-1.47448e-07
-1.71367e-08
-2.60351e-08
-9.05798e-09
-1.46249e-07
2.46091e-09
-1.39054e-07
-8.9195e-10
-1.27826e-07
4.78788e-09
-5.52434e-08
-5.03567e-08
-9.41881e-08
9.43137e-09
-1.15102e-07
-5.54345e-09
-1.41211e-07
1.31417e-09
-3.17457e-08
8.15706e-09
-1.23101e-07
-3.81561e-08
-1.06519e-07
7.45048e-10
-9.35637e-08
8.63833e-09
-8.74166e-08
3.03762e-08
-7.53098e-08
3.14046e-08
-4.68919e-08
2.83285e-08
-8.4267e-08
1.3613e-08
-9.19271e-08
-1.22531e-08
-6.02607e-08
-4.91528e-08
-6.35951e-08
-7.18555e-09
-1.04491e-07
4.7634e-08
-1.08727e-07
1.62861e-08
-1.17031e-07
-1.47104e-09
-9.17009e-08
-1.65371e-08
-4.66639e-08
6.26977e-08
-1.1915e-07
8.48295e-09
-1.4254e-07
-6.81116e-09
-1.7078e-07
1.62408e-08
-1.76606e-07
-8.0178e-09
-8.50319e-08
2.86523e-08
-7.03708e-08
-8.16616e-09
-1.42614e-07
-3.10282e-08
-1.22012e-07
3.42032e-09
-1.0989e-07
9.34367e-09
-9.81512e-08
4.42345e-09
-9.75402e-08
4.72915e-10
-1.46982e-07
-2.5726e-09
-1.18591e-07
1.38962e-08
-1.22382e-07
-1.07386e-08
-1.25471e-07
-1.03392e-08
-1.27314e-07
9.27244e-09
-1.4278e-07
1.03322e-08
-1.54492e-07
1.30365e-08
-1.66428e-07
1.48379e-08
-1.62776e-07
1.67983e-08
-1.53578e-07
-8.44995e-09
-1.51186e-07
-9.16033e-09
-1.77422e-07
4.0043e-09
-1.53619e-07
3.72543e-08
-1.49218e-07
1.92605e-08
-1.46106e-07
2.38949e-08
-1.46836e-07
2.70058e-08
-1.50139e-07
1.92762e-08
-1.6375e-07
7.88715e-09
-1.67588e-07
-3.05446e-09
-1.66903e-07
-1.16849e-08
-1.64043e-07
-1.34301e-08
-1.62344e-07
-1.30493e-08
-1.60221e-07
-1.25318e-08
-1.5654e-07
-1.63899e-08
-1.50877e-07
-2.46504e-08
-1.47327e-07
-2.76157e-08
-1.45158e-07
-2.63308e-08
-1.45777e-07
-1.16745e-08
-1.47768e-07
1.91322e-08
-1.47658e-07
4.41025e-08
-1.40041e-07
5.02266e-08
-1.30961e-07
4.57218e-08
-1.22141e-07
2.54932e-08
-1.39431e-09
-1.48401e-07
2.35536e-08
-1.34806e-07
1.5558e-09
-1.87073e-07
1.35355e-08
-1.53606e-07
1.65472e-08
-1.92576e-07
9.39762e-10
-1.8414e-07
2.75823e-08
-6.89228e-08
2.96957e-08
-1.80071e-07
-3.83867e-08
-1.67905e-07
-1.48859e-08
-1.95603e-07
-1.85156e-08
-5.04782e-08
9.28092e-09
-1.45263e-07
-4.92709e-08
-1.53157e-07
-5.08656e-08
-1.42909e-07
-5.91312e-09
-1.06645e-07
2.24012e-08
-1.42359e-07
-2.46658e-09
-1.24198e-07
-1.74163e-08
-9.91855e-08
-1.76411e-08
-1.06089e-07
3.69028e-08
-1.02271e-07
2.72671e-08
-9.34825e-08
1.95396e-08
-9.77021e-08
1.78327e-08
-1.59711e-07
-1.55993e-09
-4.71618e-08
4.30599e-08
-5.27081e-08
-1.63921e-09
-1.65535e-07
-4.43009e-08
-1.49827e-07
5.83884e-10
-1.67418e-07
1.44123e-08
-4.77162e-08
7.06333e-08
-1.37995e-07
-7.47614e-10
-1.2653e-07
-2.98191e-09
-1.42211e-07
8.8696e-09
-1.22368e-07
-3.72976e-09
-1.34201e-07
3.81571e-09
-1.15604e-07
9.76272e-09
-1.20286e-07
-3.48404e-09
-1.40705e-07
-1.09255e-08
-1.38107e-07
8.22371e-10
-1.26288e-07
-2.47527e-09
-1.18812e-07
-3.05206e-09
-9.81889e-08
-2.03581e-08
-1.20648e-07
1.9886e-08
-1.27876e-07
2.11249e-08
-1.30357e-07
-8.25804e-09
-1.40315e-07
-4.86761e-10
-1.36263e-07
5.2212e-09
-1.36256e-07
1.02208e-08
-1.39015e-07
1.56357e-08
-1.41096e-07
1.5177e-08
-1.7919e-07
3.1739e-09
-1.48997e-07
1.43753e-08
-1.58043e-07
1.51362e-09
-1.51816e-07
-6.82731e-10
-1.27724e-07
1.27897e-08
-1.26374e-07
1.79106e-08
-1.2741e-07
2.49309e-08
-1.30293e-07
2.98883e-08
-1.38734e-07
2.77169e-08
-1.51748e-07
2.09014e-08
-1.61714e-07
6.9118e-09
-1.67441e-07
-5.95826e-09
-1.70586e-07
-1.02852e-08
-1.74905e-07
-8.72986e-09
-1.78475e-07
-8.96189e-09
-1.77692e-07
-1.71729e-08
-1.7426e-07
-2.80814e-08
-1.71847e-07
-3.00282e-08
-1.7287e-07
-2.53075e-08
-1.75712e-07
-8.8322e-09
-1.71864e-07
1.5284e-08
-1.61049e-07
3.32876e-08
-1.46432e-07
3.56102e-08
-1.3299e-07
3.2282e-08
-1.25331e-07
1.78357e-08
-3.78871e-09
-2.08047e-07
-1.0987e-08
-1.8073e-07
2.93934e-08
-1.8483e-07
1.74981e-08
-1.73498e-07
3.32882e-09
-1.57391e-07
-1.51771e-08
-1.65834e-07
3.73365e-08
-1.33023e-07
-3.11577e-09
-1.33906e-07
-3.92525e-08
-1.52014e-07
4.72424e-09
-1.55705e-07
-1.48244e-08
-1.27714e-07
-2.0299e-08
-1.49233e-07
-2.82546e-08
-1.67435e-07
-3.21447e-08
-1.40611e-07
-3.27365e-08
-1.46648e-07
2.83767e-08
-1.55047e-07
5.93212e-09
-1.74799e-07
2.15796e-09
-4.73636e-08
8.97821e-09
-1.3324e-07
-2.92415e-08
-1.07401e-07
6.934e-11
-1.03253e-07
1.53915e-08
-1.07488e-07
2.20676e-08
-9.9023e-08
-1.01284e-08
-8.69345e-08
3.09714e-08
-1.03895e-07
1.53208e-08
-1.49089e-07
-6.27511e-10
-1.99065e-07
-1.15792e-09
-1.62028e-07
3.05969e-08
-1.10418e-07
1.83019e-08
-1.19598e-07
8.43284e-09
-1.20701e-07
-1.87872e-09
-1.40832e-07
-2.07533e-08
-9.91008e-08
5.2128e-09
-1.09313e-07
1.30173e-08
-1.07541e-07
7.99066e-09
-1.13913e-07
2.88834e-09
-1.2691e-07
2.0712e-09
-1.30616e-07
4.52825e-09
-1.33696e-07
6.04994e-10
-1.57749e-07
1.9392e-08
-6.19377e-08
3.89844e-08
-1.80728e-07
-1.42634e-08
-1.42318e-07
-1.72852e-08
-1.38692e-07
-1.18834e-08
-1.28907e-07
-1.02717e-08
-1.13166e-07
-9.36554e-09
-9.76437e-08
-4.31549e-09
-9.00751e-08
7.15319e-09
-9.12354e-08
1.54182e-08
-1.05178e-07
1.69114e-08
-9.87181e-08
6.8385e-09
-1.57902e-07
1.0607e-08
-1.2474e-07
1.96756e-08
-1.21434e-07
9.48426e-09
-1.20393e-07
1.68689e-08
-1.22036e-07
2.65738e-08
-1.25187e-07
3.30392e-08
-1.30761e-07
3.32913e-08
-1.39368e-07
2.95077e-08
-1.52639e-07
2.01831e-08
-1.67166e-07
8.569e-09
-1.78865e-07
1.4133e-09
-1.86139e-07
-1.45539e-09
-1.87039e-07
-8.06204e-09
-1.81163e-07
-2.30485e-08
-1.75767e-07
-3.34772e-08
-1.71195e-07
-3.45994e-08
-1.69365e-07
-2.71375e-08
-1.70201e-07
-7.99628e-09
-1.6658e-07
1.1664e-08
-1.55279e-07
2.19865e-08
-1.42334e-07
2.26662e-08
-1.31281e-07
2.12307e-08
-1.26499e-07
1.30547e-08
-3.11041e-09
-2.17324e-07
2.59006e-08
-1.927e-07
4.76838e-09
-1.87883e-07
1.28587e-08
-1.98809e-07
1.42544e-08
-8.40781e-08
2.45203e-08
-1.68835e-07
-2.99271e-08
-1.60845e-07
-1.28603e-08
-5.78941e-08
1.19583e-08
-1.5206e-07
-5.31301e-08
-1.33569e-07
-3.46649e-08
-1.22497e-07
-3.13711e-08
-1.26932e-07
-2.38194e-08
-1.60986e-07
1.90856e-09
-5.99222e-08
2.03826e-08
-1.5545e-07
-2.81156e-08
-1.39161e-07
-1.19435e-08
-1.25495e-07
-1.15073e-08
-8.05585e-08
-3.63294e-08
-9.92074e-08
-1.08909e-08
-8.56799e-08
-1.35969e-08
-1.26997e-07
5.67087e-08
-1.44678e-07
3.82724e-08
-5.13286e-08
5.16763e-08
-1.57751e-07
-1.56541e-08
-1.40959e-07
-1.47052e-09
-1.38871e-07
-2.7159e-09
-1.61445e-07
2.14279e-08
-1.47461e-07
1.66133e-08
-1.16357e-07
-1.2802e-08
-1.13545e-07
5.62041e-09
-1.19458e-07
4.03433e-09
-1.26573e-07
-1.36379e-08
-9.537e-08
-2.59372e-08
-1.13506e-07
3.08383e-08
-1.27468e-07
2.21796e-08
-1.2146e-07
-3.11934e-09
-1.32264e-07
1.28748e-08
-1.25939e-07
-1.79676e-09
-1.06649e-07
-1.86847e-08
-1.20647e-07
3.30529e-08
-1.06013e-07
2.39527e-08
-1.25629e-07
5.35269e-09
-1.33811e-07
-9.10306e-09
-1.51739e-07
6.10656e-09
-1.32261e-07
-2.97493e-08
-1.31282e-07
-1.03443e-08
-1.40165e-07
3.09342e-09
-1.51832e-07
-3.31667e-08
-1.30501e-07
4.7672e-08
-1.2071e-07
8.33956e-09
-9.09837e-08
-2.43533e-08
-1.19159e-07
3.73648e-08
-1.13082e-07
1.49531e-08
-1.1359e-07
1.11228e-08
-1.15518e-07
1.87966e-08
-1.1607e-07
2.71252e-08
-1.1902e-07
3.5989e-08
-1.21579e-07
3.58512e-08
-1.25128e-07
3.30559e-08
-1.32542e-07
2.75977e-08
-1.4431e-07
2.03362e-08
-1.57487e-07
1.45906e-08
-1.66034e-07
7.09187e-09
-1.65644e-07
-8.45165e-09
-1.59245e-07
-2.94475e-08
-1.56542e-07
-3.61796e-08
-1.55769e-07
-3.53723e-08
-1.57845e-07
-2.50611e-08
-1.59068e-07
-6.77287e-09
-1.54534e-07
7.13e-09
-1.46277e-07
1.37298e-08
-1.38283e-07
1.46732e-08
-1.3144e-07
1.43895e-08
-1.2815e-07
9.76608e-09
-2.01911e-09
-1.57279e-07
-8.64955e-10
-1.45952e-07
-6.55974e-09
-1.57365e-07
2.42713e-08
-1.56441e-07
1.33293e-08
-1.18423e-07
-1.34978e-08
-1.30697e-07
-1.79585e-08
-1.20045e-07
-2.35133e-08
-9.68241e-08
-1.12624e-08
-1.12582e-07
-3.67659e-08
-1.11978e-07
-3.52693e-08
-1.00898e-07
-4.35933e-08
-8.31427e-08
-4.20033e-08
-1.10983e-07
2.9448e-08
-1.01749e-07
1.11486e-08
-1.29096e-07
-1.05539e-09
-1.43718e-07
2.67887e-09
-1.5964e-07
2.81497e-09
-7.12913e-08
3.04755e-08
-2.02476e-07
-3.49729e-08
-5.53998e-08
-5.57618e-09
-1.96077e-07
4.43797e-08
-1.79067e-07
2.12626e-08
-1.37007e-07
8.99708e-09
-1.54958e-07
2.2975e-09
-1.65096e-07
8.6675e-09
-1.5454e-07
-1.32719e-08
-1.44782e-07
-3.95208e-08
-1.59455e-07
3.09701e-08
-1.56082e-07
3.50153e-08
-1.52126e-07
1.66511e-09
-1.48738e-07
6.46131e-10
-1.62719e-07
3.43181e-10
-6.03287e-08
2.5859e-08
-1.58139e-07
-2.49682e-08
-1.56006e-07
-3.36485e-08
-1.67234e-07
6.08906e-08
-1.53848e-07
-5.06357e-10
-1.84107e-07
2.84631e-08
-6.44737e-08
1.59108e-08
-1.38925e-07
-4.45161e-08
-1.40589e-07
2.39555e-08
-1.4152e-07
6.2834e-09
-1.44128e-07
-7.96501e-09
-1.7637e-07
-1.33697e-08
-1.55339e-07
2.20902e-09
-1.45746e-07
-2.01426e-08
-1.83895e-07
3.93662e-08
-1.17605e-07
5.72515e-08
-1.62808e-07
-5.79583e-08
-1.84567e-07
2.66403e-08
-8.05816e-08
2.76799e-08
-1.72787e-07
-2.1636e-08
-1.52492e-07
-5.54949e-09
-1.44675e-07
4.83063e-09
-1.36341e-07
1.04626e-08
-1.2969e-07
2.04733e-08
-1.24059e-07
3.03586e-08
-1.22462e-07
3.42538e-08
-1.21589e-07
3.21833e-08
-1.22759e-07
2.87673e-08
-1.26979e-07
2.45563e-08
-1.31655e-07
1.92668e-08
-1.33499e-07
8.93597e-09
-1.32437e-07
-9.51336e-09
-1.32956e-07
-2.8929e-08
-1.36065e-07
-3.30695e-08
-1.41359e-07
-3.00789e-08
-1.48387e-07
-1.80318e-08
-1.50588e-07
-4.57158e-09
-1.47034e-07
3.57578e-09
-1.41786e-07
8.48237e-09
-1.36827e-07
9.71492e-09
-1.3263e-07
1.01943e-08
-1.30044e-07
7.18185e-09
-1.3422e-09
-1.40058e-07
-1.9221e-08
-1.18987e-07
-2.7917e-08
-1.45845e-07
-6.1811e-11
-1.50596e-07
1.80802e-08
-1.2808e-07
1.51755e-08
-1.3234e-07
-1.36989e-08
-1.35479e-07
-2.03736e-08
-1.33146e-07
-1.35957e-08
-1.52362e-07
-1.77311e-08
-1.4758e-07
-4.04117e-08
-1.60786e-07
-3.23574e-08
-5.93116e-08
1.22876e-08
-1.57292e-07
-2.39929e-08
-1.49737e-07
1.9886e-09
-1.57423e-07
6.6305e-09
-1.70359e-07
1.38769e-08
-1.88645e-07
2.11015e-08
-1.82949e-07
2.47787e-08
-2.24286e-07
4.05317e-09
-7.20393e-08
-3.03257e-10
-2.2196e-07
-9.62788e-09
-2.03972e-07
5.35528e-09
-1.68099e-07
2.37972e-08
-1.58928e-07
-8.58822e-09
-1.80777e-07
3.02089e-08
-1.97681e-07
3.63129e-09
-1.06084e-07
2.35362e-08
-2.01033e-07
-2.58399e-08
-1.68237e-07
1.68336e-10
-1.64803e-07
-1.76955e-09
-1.60431e-07
-3.72599e-09
-1.37404e-07
-2.2917e-08
-1.38921e-07
2.73761e-08
-1.72941e-07
7.03291e-09
-8.38512e-08
3.27624e-08
-1.90939e-07
-3.39801e-08
-1.55293e-07
1.45215e-08
-1.51611e-07
2.31971e-08
-1.496e-07
1.38996e-08
-7.67126e-08
3.64962e-08
-1.60091e-07
-4.42393e-08
-1.48753e-07
-6.68823e-09
-1.57366e-07
6.4792e-10
-1.65576e-07
-5.02351e-09
-1.6251e-07
-2.51462e-09
-9.17677e-08
6.36136e-08
-1.99466e-07
-5.57085e-09
-2.11235e-07
1.72466e-08
-9.88624e-08
3.38391e-08
-2.10568e-07
-1.73732e-08
-1.7315e-07
-1.00238e-08
-1.87414e-07
-5.82636e-09
-1.90557e-07
-4.62358e-10
-1.80171e-07
-3.65048e-09
-1.72175e-07
2.46681e-09
-1.62892e-07
1.11898e-08
-1.50562e-07
1.80282e-08
-1.38529e-07
2.22216e-08
-1.29284e-07
2.29381e-08
-1.24498e-07
2.39808e-08
-1.22486e-07
2.25447e-08
-1.21243e-07
1.80237e-08
-1.20526e-07
8.21904e-09
-1.21091e-07
-8.94811e-09
-1.25684e-07
-2.43361e-08
-1.31323e-07
-2.74304e-08
-1.37486e-07
-2.39157e-08
-1.42994e-07
-1.25228e-08
-1.43931e-07
-3.63499e-09
-1.41858e-07
1.50352e-09
-1.38879e-07
5.50406e-09
-1.35796e-07
6.63259e-09
-1.33274e-07
7.67461e-09
-1.31481e-07
5.38978e-09
-8.66803e-10
-1.49902e-07
2.22509e-08
-7.4286e-08
5.00748e-08
-1.97447e-07
-2.97153e-08
-1.63301e-07
-1.60662e-08
-1.38762e-07
-9.36421e-09
-1.39311e-07
-1.31501e-08
-1.26524e-07
-3.35023e-08
-1.45788e-07
4.18132e-09
-1.69199e-07
5.67922e-09
-1.7849e-07
-3.15371e-08
-1.68778e-07
-4.25074e-08
-1.60352e-07
5.45803e-09
-1.83165e-07
-1.42498e-09
-1.87604e-07
6.42758e-09
-1.90426e-07
9.452e-09
-1.91529e-07
1.49806e-08
-1.91243e-07
1.86487e-08
-2.21344e-07
3.16211e-09
-2.12641e-07
4.65877e-08
-9.78472e-08
4.10686e-08
-2.21884e-07
-3.66232e-08
-2.14932e-07
-3.86011e-09
-2.04107e-07
1.32141e-08
-1.15417e-07
5.74712e-08
-2.06199e-07
-3.07199e-08
-1.97278e-07
-7.39334e-09
-1.91552e-07
1.97645e-08
-1.94574e-07
-2.28473e-08
-1.92156e-07
-4.23484e-09
-1.9176e-07
-2.16596e-09
-2.08218e-07
1.06079e-08
-1.07398e-07
3.14171e-08
-2.03488e-07
-2.90098e-08
-1.72284e-07
-2.44198e-08
-1.49558e-07
9.70272e-09
-1.75661e-07
-7.87749e-09
-1.73293e-07
1.23019e-08
-1.58153e-07
8.05689e-09
-1.62555e-07
1.81168e-08
-1.63423e-07
-1.21586e-08
-1.60242e-07
2.80599e-09
-1.77297e-07
8.73287e-09
-1.79538e-07
2.88892e-09
-1.65581e-07
-1.89813e-08
-7.39314e-08
5.9554e-08
-1.54974e-07
-8.00689e-09
-1.34543e-07
-2.75828e-08
-1.51404e-07
3.3763e-08
-1.2436e-07
6.79541e-09
-1.34173e-07
-7.56045e-09
-1.51753e-07
7.65908e-09
-1.47879e-07
-9.70123e-09
-1.49648e-07
2.83357e-09
-1.48636e-07
-3.19874e-09
-1.53138e-07
6.96959e-09
-1.541e-07
1.21517e-08
-1.48306e-07
1.22343e-08
-1.38144e-07
1.20591e-08
-1.26552e-07
1.13459e-08
-1.18451e-07
1.58799e-08
-1.14411e-07
1.85044e-08
-1.13765e-07
1.73781e-08
-1.17981e-07
1.24352e-08
-1.24498e-07
-2.43068e-09
-1.29854e-07
-1.89805e-08
-1.33355e-07
-2.39293e-08
-1.36733e-07
-2.05372e-08
-1.40156e-07
-9.0996e-09
-1.41546e-07
-2.24413e-09
-1.4054e-07
4.97772e-10
-1.38679e-07
3.64342e-09
-1.36565e-07
4.51991e-09
-1.34336e-07
5.44649e-09
-1.32684e-07
3.73955e-09
-6.53264e-10
-1.27366e-07
1.84985e-08
-1.43374e-07
1.43803e-08
-1.46515e-07
2.46148e-08
-1.58738e-07
-3.84383e-09
-1.51507e-07
-1.6595e-08
-1.73046e-07
6.62254e-09
-7.56818e-08
2.42878e-08
-2.00098e-07
-2.44509e-08
-1.8032e-07
-1.59964e-08
-2.18874e-07
4.7606e-09
-1.18133e-07
1.47516e-08
-1.96904e-07
-6.88395e-08
-2.01669e-07
3.34007e-09
-2.04803e-07
9.56153e-09
-2.11686e-07
1.65037e-08
-2.08163e-07
1.1457e-08
-1.89151e-07
-3.62623e-10
-2.00109e-07
1.40876e-08
-1.86221e-07
3.23689e-08
-1.73489e-07
2.79183e-08
-2.05889e-07
-4.64445e-09
-2.18041e-07
8.29192e-09
-2.1108e-07
6.25316e-09
-1.97733e-07
-4.99889e-09
-1.82804e-07
4.71501e-09
-1.89401e-07
-2.66095e-09
-2.00704e-07
-1.8076e-08
-1.80533e-07
7.42463e-09
-1.83296e-07
-3.31344e-09
-1.75487e-07
-9.97513e-09
-1.79838e-07
1.48081e-08
-1.46779e-07
-1.96256e-09
-1.72859e-07
-4.69383e-09
-1.90085e-07
-7.19289e-09
-1.72126e-07
-6.31697e-09
-1.547e-07
-2.55644e-08
-1.68747e-07
2.63492e-08
-1.63603e-07
4.5812e-09
-1.4386e-07
-1.62551e-09
-1.49882e-07
-7.60498e-09
-1.46028e-07
-1.01934e-09
-1.52455e-07
1.5007e-08
-1.68371e-07
1.88049e-08
-4.52431e-08
1.20468e-08
-1.43295e-07
5.52952e-09
-1.57148e-07
4.30259e-09
-5.67173e-08
2.61363e-08
-1.46492e-07
-2.81979e-08
-1.22178e-07
-1.90134e-08
-1.27025e-07
-2.6863e-09
-1.29057e-07
9.69109e-09
-1.41464e-07
2.70653e-09
-1.40002e-07
1.37144e-09
-1.35244e-07
-6.6099e-09
-1.35239e-07
8.4008e-09
-1.37186e-07
1.40988e-08
-1.3102e-07
6.06801e-09
-1.22478e-07
3.5175e-09
-1.10575e-07
-5.57721e-10
-9.85657e-08
3.87079e-09
-9.03926e-08
1.03313e-08
-8.79207e-08
1.49062e-08
-8.94957e-08
1.40103e-08
-9.77547e-08
5.82842e-09
-1.08679e-07
-8.05561e-09
-1.17153e-07
-1.54552e-08
-1.24873e-07
-1.28176e-08
-1.31121e-07
-2.85138e-09
-1.35255e-07
1.89058e-09
-1.36974e-07
2.21706e-09
-1.36725e-07
3.3946e-09
-1.35969e-07
3.76572e-09
-1.34408e-07
3.88661e-09
-1.33398e-07
2.73173e-09
-4.23545e-10
-1.21271e-07
2.73395e-08
-1.28988e-07
2.08585e-08
-1.1812e-07
1.37458e-08
-1.19548e-07
-2.41653e-09
-1.10547e-07
-2.55957e-08
-1.25427e-07
2.12845e-08
-1.13664e-07
1.11173e-08
-1.77525e-07
-1.23081e-08
-1.61777e-07
2.12574e-08
-1.84834e-07
2.58835e-08
-1.94586e-07
2.23455e-08
-9.60773e-08
-1.02946e-08
-2.0427e-07
-4.10581e-08
-2.05755e-07
8.94764e-09
-2.05149e-07
-3.61937e-08
-2.28755e-07
3.71559e-08
-2.18172e-07
4.02448e-08
-1.94165e-07
-8.02101e-09
-1.99176e-07
3.73803e-08
-1.88842e-07
1.34885e-08
-2.1425e-07
2.05516e-08
-2.05311e-07
1.53844e-09
-1.95422e-07
-1.64213e-09
-1.91745e-07
-8.67641e-09
-1.71562e-07
-1.73756e-08
-1.56384e-07
-1.78394e-08
-1.6276e-07
-1.16995e-08
-1.48446e-07
-6.81333e-09
-1.47103e-07
-4.65634e-09
-1.36394e-07
-1.9293e-08
-1.40603e-07
1.88266e-08
-1.43121e-07
-8.79012e-10
-1.47014e-07
-8.00459e-10
-1.71518e-07
1.73844e-08
-1.89803e-07
1.00323e-08
-9.29995e-08
3.27858e-08
-2.03589e-07
-1.56836e-08
-1.79279e-07
-1.97284e-08
-1.57809e-07
-2.31126e-08
-1.2035e-07
-4.5528e-08
-1.4723e-07
2.73628e-08
-1.37595e-07
5.37122e-09
-1.52397e-07
3.03396e-08
-3.10329e-08
4.61564e-08
-1.46851e-07
-3.06123e-08
-1.36121e-07
-7.92642e-09
-1.56299e-07
-3.2815e-09
-1.09876e-07
-2.39898e-08
-1.10866e-07
-1.80133e-08
-9.39352e-08
-1.96169e-08
-1.1357e-07
2.86601e-08
-1.25451e-07
1.45877e-08
-1.28331e-07
4.25069e-09
-1.06353e-07
-2.85877e-08
-1.34974e-07
3.80958e-08
-1.33973e-07
1.4447e-08
-1.29803e-07
1.89881e-09
-1.19842e-07
-6.4437e-09
-1.10078e-07
-1.03218e-08
-9.79703e-08
-8.23707e-09
-8.54244e-08
-2.21451e-09
-7.6302e-08
5.78372e-09
-7.2403e-08
1.01113e-08
-7.66186e-08
1.00441e-08
-9.07358e-08
6.06186e-09
-1.09349e-07
3.15805e-09
-1.24958e-07
2.79136e-09
-1.32993e-07
5.1846e-09
-1.36674e-07
5.57112e-09
-1.38351e-07
3.89475e-09
-1.37794e-07
2.83796e-09
-1.36729e-07
2.70245e-09
-1.3494e-07
2.09894e-09
-1.34055e-07
1.84807e-09
-3.31737e-10
-1.94443e-07
-1.60437e-08
-1.65961e-07
-7.62462e-09
-1.61553e-07
9.24199e-09
-1.81049e-07
1.70796e-08
-6.39377e-08
1.15159e-08
-1.27449e-07
-6.79101e-08
-1.19121e-07
1.47319e-09
-1.27897e-07
-3.37218e-09
-1.24664e-07
1.78425e-08
-1.28186e-07
2.91084e-08
-1.42369e-07
3.44967e-08
-4.48231e-08
4.69355e-08
-7.78885e-08
-7.4594e-09
-1.80458e-07
-4.38952e-08
-1.2466e-07
6.3536e-08
-2.32639e-07
-7.0931e-09
-2.11486e-07
1.67636e-08
-1.06724e-07
4.19389e-08
-2.40289e-07
-3.02037e-08
-1.49327e-07
-2.52916e-08
-1.58623e-07
2.78513e-08
-1.67304e-07
8.60097e-09
-1.5962e-07
-9.32613e-09
-1.57563e-07
-1.08224e-08
-1.46432e-07
-2.85066e-08
-1.39324e-07
-2.52048e-08
-1.50584e-07
-4.43828e-10
-1.41228e-07
-1.61695e-08
-1.56968e-07
1.10836e-08
-4.9133e-08
2.66727e-08
-1.44206e-07
-3.79301e-08
-1.36731e-07
-9.8253e-09
-1.40578e-07
3.04678e-09
-1.36449e-07
1.32551e-08
-1.42045e-07
1.56277e-08
-1.22051e-07
1.24574e-08
-1.39739e-07
2.00461e-09
-1.47925e-07
-1.15426e-08
-1.59283e-07
-1.33789e-08
-4.23425e-08
-7.39078e-09
-2.18964e-07
-3.44918e-10
-1.59765e-07
-9.53186e-10
-1.41196e-07
1.16533e-08
-1.14731e-07
1.66093e-08
-1.46395e-07
7.28767e-10
-1.40397e-07
-1.24312e-08
-1.75243e-07
-1.76577e-08
-1.35513e-07
-1.3424e-08
-1.34754e-07
-2.0155e-08
-1.40821e-07
-1.53432e-08
-1.52312e-07
-1.1567e-08
-1.72232e-07
3.64326e-08
-1.96251e-07
2.82696e-08
-6.74836e-08
4.76098e-08
-1.6529e-07
-1.43045e-08
-1.41749e-07
-9.09386e-09
-1.25311e-07
-1.4539e-08
-1.11303e-07
-2.0452e-08
-1.01731e-07
-1.98936e-08
-9.29454e-08
-1.70229e-08
-8.63798e-08
-8.78008e-09
-8.24401e-08
1.84405e-09
-8.35181e-08
1.11894e-08
-9.05619e-08
1.70881e-08
-1.04925e-07
2.04254e-08
-1.20131e-07
1.83641e-08
-1.29878e-07
1.25386e-08
-1.34015e-07
9.32183e-09
-1.35707e-07
7.26338e-09
-1.3666e-07
4.84839e-09
-1.36527e-07
2.70509e-09
-1.36154e-07
2.33025e-09
-1.34999e-07
9.45937e-10
-1.34377e-07
1.22807e-09
-1.72628e-10
-1.42586e-07
5.15243e-09
-1.39901e-07
-8.8838e-09
-1.21078e-07
-9.58186e-09
-1.54269e-07
4.90355e-08
-1.55627e-07
1.12858e-08
-4.80668e-08
-2.03117e-08
-1.20301e-07
-7.73944e-08
-8.58866e-08
-3.81341e-08
-9.47724e-08
2.6818e-08
-8.41875e-08
1.84165e-08
-4.83553e-08
-1.68035e-09
-9.55027e-09
7.26447e-09
4.29619e-09
-2.16207e-08
6.02658e-08
5.32073e-08
-7.06309e-08
-1.02566e-08
-3.08575e-08
4.1185e-09
-3.88629e-08
2.48499e-08
-3.18673e-08
3.41503e-08
-1.54661e-07
4.05434e-08
-2.96363e-08
5.60676e-08
-1.42196e-07
-1.13282e-08
-1.37122e-07
2.07655e-09
-1.39444e-07
-7.00432e-09
-1.36575e-07
-1.36912e-08
-1.44971e-07
-2.18118e-08
-1.30786e-07
-4.11625e-08
-1.89889e-07
8.28879e-09
-1.50892e-07
-2.03865e-09
-1.34525e-07
-3.91055e-09
-9.37909e-08
-1.40617e-08
-1.2346e-07
-9.60509e-09
-1.33436e-07
1.51495e-10
-1.41876e-07
1.14863e-08
-1.46546e-07
1.79256e-08
-1.48603e-07
1.76847e-08
-1.4192e-07
5.77379e-09
-1.30847e-07
-9.06764e-09
-1.31019e-07
-1.13712e-08
-1.419e-07
-3.94481e-09
-2.85371e-08
3.44762e-08
-2.04814e-07
-2.85387e-08
-1.45903e-07
-7.18524e-09
-1.28211e-07
-5.92074e-09
-1.14832e-07
3.09404e-09
-1.04868e-07
-9.24343e-09
-1.39508e-07
-2.86277e-08
-9.92366e-08
-8.17552e-09
-1.37577e-07
-2.76779e-08
-1.22923e-07
1.65314e-08
-1.89522e-07
-4.62307e-10
-1.68805e-07
1.92356e-08
-1.9963e-07
1.55393e-08
-1.98563e-07
3.09498e-08
-1.39874e-07
4.05961e-08
-1.52044e-07
-2.1342e-09
-1.42534e-07
-1.86039e-08
-1.28925e-07
-2.81483e-08
-1.17656e-07
-3.17208e-08
-1.08366e-07
-2.91838e-08
-1.00908e-07
-2.44801e-08
-9.73847e-08
-1.23038e-08
-9.92081e-08
3.66749e-09
-1.0834e-07
2.03217e-08
-1.20113e-07
2.88612e-08
-1.3098e-07
3.12925e-08
-1.37774e-07
2.51582e-08
-1.38937e-07
1.37017e-08
-1.3826e-07
8.64467e-09
-1.37436e-07
6.43995e-09
-1.37276e-07
4.68848e-09
-1.37066e-07
2.49611e-09
-1.36546e-07
1.81131e-09
-1.35517e-07
-8.14139e-11
-1.34802e-07
5.14072e-10
-1.58446e-10
-1.82462e-07
3.50275e-09
-2.07256e-07
1.59091e-08
-8.46524e-08
2.12876e-08
-1.98005e-07
-4.23739e-08
-1.79023e-07
-5.87003e-09
-1.53448e-07
3.44208e-09
-9.95455e-08
2.12584e-08
-8.02834e-08
-5.73549e-08
-2.1027e-07
-4.76831e-08
-1.74044e-07
-1.56869e-08
-1.5169e-07
2.6894e-08
-1.53596e-07
6.19307e-09
-4.30527e-08
2.29744e-08
-1.19084e-07
-2.23468e-08
-1.25552e-07
-5.00411e-09
-1.19604e-07
-1.7875e-09
-1.06021e-07
1.04393e-08
-1.082e-07
3.66817e-08
-1.03247e-07
3.62806e-08
-8.67796e-08
3.95998e-08
-1.16277e-07
1.80537e-08
-1.22672e-07
8.47113e-09
-1.31415e-07
1.73932e-09
-1.37562e-07
-8.94818e-09
-1.5656e-07
-4.4274e-09
-5.80046e-08
1.74741e-08
-1.6477e-07
-3.80101e-08
-1.41684e-07
-2.51246e-08
-1.20471e-07
-2.51234e-08
-8.76746e-08
-4.74859e-08
-1.01998e-07
4.71859e-09
-1.34994e-07
3.31475e-08
-1.50598e-07
2.70902e-08
-1.51969e-07
1.92964e-08
-1.47407e-07
1.31233e-08
-1.44391e-07
2.75732e-09
-1.1096e-07
-4.24988e-08
-1.05346e-07
-1.69851e-08
-1.07461e-07
-1.82957e-09
-1.03625e-07
3.02882e-08
-1.34904e-07
2.74053e-09
-1.42518e-07
4.28674e-10
-1.42704e-07
-5.79483e-09
-1.25534e-07
-1.40766e-08
-1.08103e-07
-2.70442e-08
-1.1752e-07
-1.81977e-08
-7.7432e-08
-4.75638e-08
-8.03148e-08
-2.55556e-08
-7.36705e-08
-4.25568e-08
-1.16331e-07
4.17766e-08
-1.06678e-07
6.07735e-08
-1.36818e-07
4.64422e-08
-1.3217e-07
2.73605e-08
-1.11932e-07
2.0358e-08
-1.18693e-07
4.62685e-09
-1.29449e-07
-7.84746e-09
-1.38226e-07
-1.93715e-08
-1.43708e-07
-2.62388e-08
-1.45211e-07
-2.76809e-08
-1.44349e-07
-2.53418e-08
-1.39727e-07
-1.69256e-08
-1.37137e-07
1.07673e-09
-1.37388e-07
2.05728e-08
-1.3936e-07
3.08332e-08
-1.40012e-07
3.19454e-08
-1.39705e-07
2.48512e-08
-1.38402e-07
1.23988e-08
-1.37319e-07
7.56159e-09
-1.36698e-07
5.81963e-09
-1.36424e-07
4.41516e-09
-1.36151e-07
2.22318e-09
-1.35789e-07
1.45065e-09
-1.3523e-07
-6.39332e-10
-1.34828e-07
1.1367e-10
-5.85844e-11
-1.6915e-07
2.31136e-09
-1.6027e-07
7.02727e-09
-1.36813e-07
-2.1699e-09
-1.59877e-07
-1.931e-08
-1.55427e-07
-1.04276e-08
-1.4511e-07
-5.35879e-09
-1.28025e-07
2.63851e-09
-4.62076e-08
1.46624e-08
-2.44378e-07
-5.13098e-08
-1.81126e-07
-3.00945e-08
-1.59021e-07
-5.12132e-08
-1.60139e-07
1.06004e-08
-1.28354e-07
4.32473e-08
-1.80524e-07
2.80009e-08
-1.86126e-07
5.97371e-10
-1.75842e-07
-1.20715e-08
-1.33495e-07
-3.22361e-08
-1.40052e-07
4.28642e-08
-1.32892e-07
2.912e-08
-1.1479e-07
2.14986e-08
-1.13936e-07
1.71989e-08
-1.09584e-07
4.07802e-09
-1.01939e-07
-5.90603e-09
-8.23013e-08
-2.85857e-08
-1.16459e-07
2.94743e-08
-9.15453e-08
-7.61743e-09
-1.08152e-07
-2.14036e-08
-1.15867e-07
-1.74094e-08
-1.3083e-07
-1.14951e-08
-3.01728e-08
7.08426e-09
-6.17936e-08
3.66472e-08
-1.84386e-07
2.19079e-09
-1.52207e-07
-5.08846e-09
-1.45639e-07
1.27285e-08
-1.48108e-07
1.55925e-08
-1.67535e-07
2.19603e-08
-7.32004e-08
1.67375e-08
-8.58329e-08
-4.35264e-09
-6.73575e-08
-2.03049e-08
-1.4801e-07
-4.26307e-08
-1.11311e-07
-3.43087e-08
-1.48766e-07
3.78845e-08
-1.47494e-07
-7.06688e-09
-1.48563e-07
-1.45235e-08
-1.49333e-07
-2.7813e-08
-1.83984e-07
-3.37254e-08
-1.84569e-07
3.75824e-09
-2.01351e-07
-1.11125e-08
-1.05595e-07
2.00055e-08
-1.65673e-07
-4.9601e-08
-1.47773e-07
4.22603e-08
-1.41073e-07
4.07555e-08
-1.39246e-07
2.55333e-08
-1.36676e-07
1.77882e-08
-1.4165e-07
9.60017e-09
-1.51151e-07
1.65438e-09
-1.60207e-07
-1.03156e-08
-1.66378e-07
-2.00679e-08
-1.71844e-07
-2.2215e-08
-1.77321e-07
-1.98649e-08
-1.80514e-07
-1.37319e-08
-1.76733e-07
-2.70494e-09
-1.67684e-07
1.15238e-08
-1.58694e-07
2.18434e-08
-1.5101e-07
2.42622e-08
-1.4477e-07
1.86109e-08
-1.42333e-07
9.9624e-09
-1.40766e-07
5.99478e-09
-1.39118e-07
4.17159e-09
-1.37594e-07
2.89157e-09
-1.36693e-07
1.32292e-09
-1.35899e-07
6.57252e-10
-1.35444e-07
-1.0928e-09
-1.35026e-07
-3.02531e-10
-2.60301e-11
-1.40719e-07
2.10447e-08
-1.37081e-07
3.38819e-09
-1.34851e-07
-4.40062e-09
-1.39904e-07
-1.58465e-08
-1.89978e-07
-1.20715e-08
-1.38869e-07
-1.92234e-09
-1.18231e-07
-1.79738e-08
-1.08824e-07
3.89982e-09
-2.2143e-07
1.01059e-08
-2.10953e-07
6.00754e-09
-1.32294e-07
2.74311e-08
-1.31206e-07
1.19811e-08
-9.14593e-08
4.87509e-09
-1.78953e-07
-3.65257e-08
-1.73074e-07
-7.10713e-09
-1.75518e-07
-1.14181e-08
-7.42869e-08
2.16866e-08
-1.7423e-07
-1.00062e-08
-1.47971e-07
2.86083e-09
-1.28888e-07
2.41562e-09
-1.57566e-07
-3.70545e-09
-1.02238e-07
-5.71424e-10
-1.15599e-07
6.41229e-09
-1.77418e-08
2.73091e-08
-1.16082e-07
-2.39636e-08
-1.0667e-07
-1.82139e-08
-1.06926e-07
-2.11474e-08
-1.12709e-07
-1.16266e-08
-1.37399e-07
1.19144e-08
-1.56304e-08
4.0397e-08
-1.33654e-07
-1.04434e-10
-1.87177e-07
3.99618e-09
-1.5629e-07
1.71245e-08
-1.41062e-07
-2.49949e-09
-1.3028e-07
6.13944e-09
-1.08978e-07
6.57891e-10
-9.2191e-08
-1.1611e-09
-9.18962e-08
-4.64749e-09
-9.97024e-08
-1.24986e-08
-1.3485e-07
-8.85874e-09
-4.1889e-08
2.78842e-08
-1.86239e-07
-2.20999e-08
-1.47194e-07
5.07902e-09
-1.4325e-07
-1.84683e-08
-1.5726e-07
-1.3658e-08
-1.72061e-07
-2.05452e-08
-1.98578e-07
-2.1443e-08
-1.96962e-07