/*--------------------------------*- C++ -*----------------------------------*\
  =========                 |
  \\      /  F ield         | OpenFOAM: The Open Source CFD Toolbox
   \\    /   O peration     | Website:  https://openfoam.org
    \\  /    A nd           | Version:  12
     \\/     M anipulation  |
\*---------------------------------------------------------------------------*/
FoamFile
{
    format      ascii;
    class       volVectorField;
    location    "0.45";
    object      U.water_0;
}
// * * * * * * * * * * * * * * * * * * * * * * * * * * * * * * * * * * * * * //

dimensions      [0 1 -1 0 0 0 0];

internalField   nonuniform List<vector> 
3750
(
(-0.00143449 0.00888027 0)
(-0.000786487 0.0108332 0)
(0.000281196 0.0109113 0)
(0.00045079 0.00808485 0)
(0.000376005 0.00877961 0)
(-0.000394422 0.0104817 0)
(-0.000813586 0.00986557 0)
(0.000376351 0.0091792 0)
(0.000485786 0.0102007 0)
(0.000304495 0.00898597 0)
(-2.12522e-05 0.00897809 0)
(0.00279627 0.0148692 0)
(-0.000788599 0.0113383 0)
(0.000713908 0.00732197 0)
(-0.000396467 0.0107252 0)
(-0.000245766 0.00879613 0)
(-6.44559e-05 0.00822266 0)
(-0.00132842 0.00573461 0)
(-0.000257897 0.00545809 0)
(-0.00193234 0.00619583 0)
(-0.00112859 0.00849882 0)
(0.000139355 0.0093402 0)
(0.00062363 0.00776787 0)
(-0.000347994 0.00728664 0)
(0.00132948 0.00795545 0)
(0.000667982 0.00595367 0)
(0.000627328 0.00308023 0)
(0.000997161 0.00264382 0)
(0.000838697 0.00233339 0)
(-0.00102879 0.00356219 0)
(-0.00128749 0.00592091 0)
(0.000201585 0.00674704 0)
(-0.00155743 0.00651263 0)
(-0.000560131 0.00747655 0)
(-0.000959596 0.00790893 0)
(0.000460069 0.00789638 0)
(0.000594417 0.00665404 0)
(-0.000517728 0.0067901 0)
(-0.000328084 0.00527242 0)
(-0.000196041 0.00245884 0)
(0.000724512 0.00350839 0)
(-3.49273e-05 0.0032507 0)
(-0.000117682 0.00392708 0)
(0.000542233 0.00516407 0)
(0.000441351 0.00425524 0)
(0.00177127 0.00779243 0)
(-0.000923223 0.00855035 0)
(-0.000476568 0.00276992 0)
(0.00142159 0.00235444 0)
(0.0022808 0.00694169 0)
(-0.00175139 0.00592869 0)
(-0.0011286 -0.000507473 0)
(1.54282e-05 0.000706321 0)
(-0.00139584 0.00197046 0)
(-0.000294383 0.00199997 0)
(-0.00019142 0.000988232 0)
(0.000604708 -0.000777124 0)
(0.00184913 0.00259585 0)
(-0.000405554 0.00048349 0)
(0.00118477 -0.00548029 0)
(-9.37003e-05 -0.00434574 0)
(4.69587e-05 -0.00338326 0)
(-0.000425022 -0.000879718 0)
(-0.000564174 -0.000440457 0)
(-0.000492494 0.000402248 0)
(-0.000330299 0.00107678 0)
(-0.000410125 0.00212177 0)
(-0.000585548 0.00348458 0)
(-0.000409391 0.00461214 0)
(0.000289428 0.00475346 0)
(0.000875795 0.00303072 0)
(0.00116918 -2.41617e-05 0)
(0.00185912 -0.00377596 0)
(0.00179728 -0.00948602 0)
(0.000870315 -0.00978951 0)
(0.00141563 -0.00195556 0)
(0.00106785 0.000737401 0)
(0.000130221 -0.000450354 0)
(-0.000645537 -0.00415011 0)
(-0.00139271 -0.00335753 0)
(-0.000909403 -0.00152056 0)
(-0.00220403 0.000141552 0)
(0.00273024 0.000502324 0)
(0.000491035 -0.000397642 0)
(0.00053108 -0.00137754 0)
(0.00115121 0.00302846 0)
(0.00183625 0.0060998 0)
(-0.00343036 0.00265818 0)
(-0.00250781 0.00256003 0)
(-0.00279581 0.00655347 0)
(0.00154961 0.00623778 0)
(0.00149529 0.00375005 0)
(0.00139266 0.00233044 0)
(0.00235592 1.81608e-05 0)
(0.00179097 -0.00245349 0)
(0.00118532 -0.000626861 0)
(-0.00010571 -0.00141886 0)
(4.09173e-05 -0.00482528 0)
(-0.00137493 -0.00449229 0)
(0.000198216 -0.00224848 0)
(0.00104764 -0.00280624 0)
(0.00117639 -0.0021832 0)
(0.000343852 -0.00202833 0)
(-0.00140874 -0.0025665 0)
(-0.00116408 -0.00202297 0)
(0.000782259 0.00293368 0)
(-0.000550115 3.59014e-05 0)
(-0.00146394 -0.00378236 0)
(-0.000254783 -0.00247597 0)
(-0.0020865 -0.00381952 0)
(0.000985937 -0.000992869 0)
(0.00393001 -0.00325889 0)
(0.00239424 -0.00385587 0)
(0.00191061 -0.00415016 0)
(0.000738414 -0.0067595 0)
(-0.00024072 -0.00698607 0)
(-0.00125167 -0.00875684 0)
(0.000163255 -0.00655147 0)
(-0.000316912 -0.0045357 0)
(8.50205e-05 -0.00539913 0)
(0.00230263 -0.00314304 0)
(-0.000868124 -0.00229686 0)
(0.000255788 -0.00208207 0)
(0.000520648 -0.00205568 0)
(0.0024039 -0.00240028 0)
(-0.00141687 -0.00297547 0)
(-0.000950989 -0.00489257 0)
(0.000533663 -0.0064699 0)
(0.000266768 -0.00724394 0)
(0.00214993 -0.00827492 0)
(0.00258319 -0.010248 0)
(0.0029172 -0.0116509 0)
(0.00301943 -0.0106193 0)
(-0.00143391 -0.0106363 0)
(-0.000973464 -0.0113827 0)
(-0.00136199 -0.0109916 0)
(-0.00105659 -0.0101505 0)
(-0.00118175 -0.00955531 0)
(-0.000897746 -0.00932985 0)
(-0.000932876 -0.00887502 0)
(-0.00136166 -0.00807413 0)
(-0.00208847 -0.00705543 0)
(-0.00217117 -0.00597733 0)
(-0.00114957 -0.00501605 0)
(0.00119713 -0.00503931 0)
(0.00380447 -0.00613497 0)
(0.00559484 -0.00813123 0)
(0.00572279 -0.0109935 0)
(0.00417038 -0.0132917 0)
(0.000354358 -0.0110686 0)
(0.00404584 -0.00884845 0)
(0.00323269 -0.00751753 0)
(-0.00143013 -0.00926718 0)
(-0.000707727 -0.013144 0)
(-0.00129885 -0.0124799 0)
(-0.00105551 -0.0116594 0)
(-0.00274339 -0.00839049 0)
(0.00149427 -0.00908057 0)
(0.000109677 -0.0132374 0)
(9.80604e-05 -0.0123174 0)
(-4.99446e-05 -0.00965764 0)
(-0.000210972 -0.00767731 0)
(-0.0028958 -0.00975885 0)
(-0.000831911 -0.0109882 0)
(-0.000272513 -0.00663903 0)
(3.09262e-05 -0.0081552 0)
(0.00137658 -0.0112748 0)
(0.00237019 -0.0095934 0)
(0.00353309 -0.00872904 0)
(0.00487892 -0.00764089 0)
(0.00375407 -0.00622414 0)
(-0.00124169 -0.00451897 0)
(-0.00221493 -0.00708064 0)
(-0.00316705 -0.00793702 0)
(-0.00171436 -0.00567445 0)
(0.0013241 -0.00789032 0)
(0.00134108 -0.0101616 0)
(0.000773609 -0.0109365 0)
(-0.00056397 -0.00968579 0)
(0.00326783 -0.00511944 0)
(0.00293222 -0.00665686 0)
(-0.0011349 -0.0119295 0)
(0.000537288 -0.0134431 0)
(-0.00163353 -0.0143411 0)
(-0.000563524 -0.0125968 0)
(-0.000287333 -0.00776898 0)
(0.00110865 -0.0108013 0)
(0.00219353 -0.0120989 0)
(0.00177234 -0.0107565 0)
(0.00105219 -0.0104442 0)
(-0.000553187 -0.00894662 0)
(0.000409699 -0.00857085 0)
(0.000143381 -0.00986886 0)
(-0.00163075 -0.011009 0)
(-0.00120696 -0.0124831 0)
(5.6184e-06 -0.0128128 0)
(-0.000505918 -0.0135203 0)
(0.000382191 -0.0151331 0)
(-5.54006e-05 -0.014971 0)
(0.000614323 -0.0145287 0)
(6.61585e-05 -0.0155363 0)
(0.000395634 -0.0156869 0)
(0.00165761 -0.0146815 0)
(0.00282493 -0.0143739 0)
(0.00226623 -0.0144593 0)
(0.00240514 -0.0147429 0)
(0.00264417 -0.0147215 0)
(0.00137487 -0.0148079 0)
(-0.000487211 -0.0158302 0)
(-0.00060761 -0.0167249 0)
(-0.000940426 -0.0167698 0)
(-0.00116553 -0.0165318 0)
(-0.00131354 -0.0163776 0)
(-0.00132647 -0.0161913 0)
(-0.0017071 -0.0157532 0)
(-0.00251896 -0.0152394 0)
(-0.00279938 -0.0148887 0)
(-0.00265082 -0.0146332 0)
(-0.00113892 -0.0147236 0)
(0.00244445 -0.0150207 0)
(0.00524144 -0.0146927 0)
(0.0059674 -0.0140367 0)
(0.00546324 -0.0132936 0)
(0.00299856 -0.0146178 0)
(0.000135807 -0.0115965 0)
(0.00119904 -0.0151885 0)
(0.000884712 -0.0145451 0)
(0.000736845 -0.0130531 0)
(0.000672902 -0.0145779 0)
(0.00148416 -0.0166454 0)
(0.00117691 -0.0170337 0)
(0.00195497 -0.0130566 0)
(-0.00122079 -0.0122973 0)
(-0.000514797 -0.0170382 0)
(7.29882e-05 -0.0158222 0)
(-0.00157238 -0.0102899 0)
(-0.00251374 -0.0099918 0)
(-0.00155512 -0.0145291 0)
(0.000247521 -0.0142181 0)
(0.00114001 -0.0125912 0)
(-0.00240083 -0.0115854 0)
(-0.00199984 -0.0120217 0)
(-0.00107153 -0.0111708 0)
(0.00330095 -0.00966815 0)
(0.00262378 -0.0100461 0)
(0.0024067 -0.00971704 0)
(0.00142262 -0.00844546 0)
(-0.000680787 -0.00899244 0)
(9.91598e-05 -0.0080058 0)
(-0.000225811 -0.00549378 0)
(3.02054e-05 -0.0106498 0)
(-0.000212437 -0.0154542 0)
(0.00099638 -0.0154361 0)
(0.00284653 -0.0107851 0)
(0.00356749 -0.00871654 0)
(0.000365536 -0.0123532 0)
(0.000320435 -0.0131593 0)
(0.00155618 -0.0124112 0)
(0.000715015 -0.012859 0)
(0.00160273 -0.0125649 0)
(-0.00121335 -0.0120666 0)
(-0.00274698 -0.0133074 0)
(-0.000928353 -0.0128028 0)
(1.93555e-05 -0.0117112 0)
(-8.13519e-05 -0.0124091 0)
(-0.000147788 -0.0104698 0)
(0.00138472 -0.0109821 0)
(0.00152298 -0.0119989 0)
(-0.000347479 -0.0126702 0)
(0.000407746 -0.0135798 0)
(0.00166721 -0.0137087 0)
(0.00216359 -0.0137082 0)
(0.00228812 -0.0137527 0)
(0.00132431 -0.0141272 0)
(0.000252825 -0.0140805 0)
(-0.000955514 -0.0151016 0)
(-0.00117267 -0.0150404 0)
(0.000388397 -0.0143049 0)
(0.00130927 -0.013819 0)
(0.00148745 -0.0128877 0)
(0.00231989 -0.012502 0)
(0.00282766 -0.0127563 0)
(0.0025742 -0.0133806 0)
(0.00167557 -0.0145837 0)
(-5.75249e-05 -0.0157535 0)
(-0.00117993 -0.0165693 0)
(-0.00135485 -0.0168768 0)
(-0.0011793 -0.0172995 0)
(-0.00109064 -0.0177191 0)
(-0.00152892 -0.0178901 0)
(-0.00243158 -0.0175692 0)
(-0.00266547 -0.0172392 0)
(-0.00243998 -0.017147 0)
(-0.00100143 -0.017677 0)
(0.0016155 -0.0179362 0)
(0.00390671 -0.0166538 0)
(0.00434156 -0.0147627 0)
(0.003876 -0.0137 0)
(0.00196375 -0.0147427 0)
(-0.000360692 -0.0121006 0)
(0.000695359 -0.0195331 0)
(0.000835764 -0.0182053 0)
(0.00192997 -0.0178117 0)
(0.000301589 -0.0182623 0)
(-0.000321816 -0.0161884 0)
(0.0024616 -0.0147079 0)
(0.00184646 -0.0136373 0)
(-0.00414087 -0.0133809 0)
(-0.000560515 -0.0123062 0)
(-0.00116249 -0.0128927 0)
(-0.00118954 -0.014495 0)
(-0.00401631 -0.0129764 0)
(-0.00288061 -0.0148416 0)
(-0.0020903 -0.015733 0)
(0.00178493 -0.0145753 0)
(0.000494897 -0.0148896 0)
(-0.000377168 -0.013761 0)
(0.000240321 -0.00843192 0)
(0.00101986 -0.00881383 0)
(0.00116689 -0.0119588 0)
(0.0024736 -0.0102043 0)
(0.00208786 -0.0101175 0)
(-0.000180019 -0.0099274 0)
(0.00287516 -0.00922968 0)
(0.000345015 -0.00915608 0)
(-0.00134771 -0.0120357 0)
(0.000434467 -0.0151797 0)
(0.00149907 -0.0141291 0)
(0.00342344 -0.0128365 0)
(6.41694e-05 -0.0115019 0)
(-0.000366372 -0.0106821 0)
(-0.000489767 -0.00977918 0)
(0.000204748 -0.0104603 0)
(0.00105057 -0.0102761 0)
(0.00146945 -0.0105254 0)
(0.000690215 -0.00986391 0)
(1.40657e-05 -0.011015 0)
(0.00058954 -0.0129934 0)
(-5.41877e-05 -0.0133585 0)
(0.000717016 -0.0139479 0)
(0.000706539 -0.0102835 0)
(-0.000291505 -0.00971412 0)
(0.000124353 -0.013219 0)
(-0.000886732 -0.0134326 0)
(-0.000764545 -0.0125857 0)
(-0.000826549 -0.0123745 0)
(-0.000602996 -0.0107031 0)
(0.000133365 -0.00950432 0)
(0.00177524 -0.00800779 0)
(0.00175431 -0.00762774 0)
(0.000591672 -0.0101882 0)
(0.000329297 -0.0106935 0)
(-6.61375e-05 -0.0112017 0)
(0.00102751 -0.0124289 0)
(0.00174832 -0.0123482 0)
(0.00255111 -0.0120289 0)
(0.00311309 -0.0123832 0)
(0.00304415 -0.0127275 0)
(0.00255812 -0.01348 0)
(0.00148132 -0.0145604 0)
(5.06002e-05 -0.0159888 0)
(-0.000619392 -0.017447 0)
(-0.000578975 -0.0185057 0)
(-0.000724262 -0.0187997 0)
(-0.00183735 -0.0185208 0)
(-0.00311714 -0.0177136 0)
(-0.00330221 -0.0173201 0)
(-0.00267328 -0.0169326 0)
(-0.000841459 -0.0171327 0)
(0.00135859 -0.0172814 0)
(0.00265889 -0.0161223 0)
(0.00270273 -0.0142636 0)
(0.00248609 -0.0134834 0)
(0.00158371 -0.014534 0)
(-0.000367387 -0.0125188 0)
(0.000503587 -0.0205062 0)
(0.000233982 -0.0192097 0)
(0.000444259 -0.0188984 0)
(0.000801452 -0.0187515 0)
(0.000687389 -0.0130482 0)
(0.00100246 -0.0126573 0)
(-0.000483844 -0.015714 0)
(-0.00116496 -0.0101329 0)
(-0.00160647 -0.0102426 0)
(-0.00183414 -0.0138883 0)
(-0.00209915 -0.0126614 0)
(-0.00227611 -0.0118423 0)
(-0.00128764 -0.0121111 0)
(-8.58297e-05 -0.00913935 0)
(-1.94016e-05 -0.0106314 0)
(-0.000374374 -0.0146854 0)
(-0.000686159 -0.01334 0)
(-0.00207056 -0.010185 0)
(-0.00315816 -0.00893871 0)
(-0.00141902 -0.00861783 0)
(0.00300898 -0.00938931 0)
(0.00280757 -0.0126925 0)
(0.00196755 -0.00972048 0)
(0.00159046 -0.00951922 0)
(0.000221062 -0.0121418 0)
(-0.000904069 -0.0130032 0)
(0.000357633 -0.0149434 0)
(0.00184402 -0.0145473 0)
(0.00137068 -0.0132274 0)
(0.00121702 -0.0111581 0)
(0.0006629 -0.0114321 0)
(-0.00126337 -0.0119415 0)
(-0.0022411 -0.0111522 0)
(0.00198411 -0.0102425 0)
(0.000651278 -0.0115274 0)
(0.00148337 -0.0120851 0)
(0.00057238 -0.0128168 0)
(-0.00042428 -0.0128971 0)
(-0.000541234 -0.0115938 0)
(0.00273594 -0.0111099 0)
(0.00283539 -0.0112133 0)
(-0.000308697 -0.0113813 0)
(-0.00130735 -0.0127654 0)
(-0.000554506 -0.0137199 0)
(-0.00160245 -0.0135406 0)
(-0.000784404 -0.0135044 0)
(6.03263e-05 -0.0132435 0)
(-0.00113091 -0.012307 0)
(0.00275492 -0.0122841 0)
(0.00137985 -0.0124555 0)
(-0.000453833 -0.0106024 0)
(0.00317671 -0.0104707 0)
(0.00121066 -0.011139 0)
(0.000811984 -0.0110951 0)
(0.00168811 -0.0118991 0)
(0.00281631 -0.0115379 0)
(0.00353967 -0.0117594 0)
(0.00354015 -0.0120919 0)
(0.0031905 -0.0123361 0)
(0.00243019 -0.0128005 0)
(0.00154674 -0.0137865 0)
(0.000926862 -0.0151152 0)
(0.000274313 -0.0163438 0)
(-0.000962624 -0.0170408 0)
(-0.00293289 -0.0162196 0)
(-0.00369586 -0.0156594 0)
(-0.00367915 -0.0155239 0)
(-0.00275002 -0.0156265 0)
(-0.00075329 -0.0160909 0)
(0.000951589 -0.0159906 0)
(0.00167582 -0.0148972 0)
(0.00177245 -0.0137484 0)
(0.00170373 -0.0132933 0)
(0.00110146 -0.0147194 0)
(-0.000245503 -0.0127193 0)
(-0.000870916 -0.017003 0)
(0.000232017 -0.0145637 0)
(0.00113354 -0.0146902 0)
(0.00130313 -0.0160407 0)
(0.00109875 -0.0133356 0)
(-0.00225358 -0.012542 0)
(-0.00174278 -0.0124325 0)
(-2.08342e-05 -0.0109001 0)
(-0.00533868 -0.00863535 0)
(-0.00349509 -0.00899933 0)
(-0.00291279 -0.0111464 0)
(-0.00310329 -0.00892773 0)
(0.00163171 -0.00887201 0)
(0.00161716 -0.0104151 0)
(-0.00176217 -0.0116811 0)
(-0.00110231 -0.0136796 0)
(-0.000584924 -0.0149775 0)
(0.000506909 -0.0119352 0)
(-0.00232976 -0.0114522 0)
(-0.00102159 -0.00992175 0)
(0.00455763 -0.0115788 0)
(0.0036774 -0.0166034 0)
(0.00386856 -0.0157598 0)
(-2.98295e-05 -0.014852 0)
(-0.000134991 -0.0145742 0)
(-0.00175698 -0.0146924 0)
(-0.00215008 -0.0140881 0)
(0.00239144 -0.0141671 0)
(0.000891966 -0.0138505 0)
(0.000463426 -0.0131836 0)
(-0.000171817 -0.0149022 0)
(-0.000582266 -0.0155663 0)
(0.000319171 -0.0110231 0)
(3.47592e-05 -0.0110407 0)
(-0.000574883 -0.0146403 0)
(0.00229945 -0.0128252 0)
(0.00198683 -0.0154647 0)
(0.000973026 -0.0151633 0)
(-0.000301868 -0.0100853 0)
(-0.000309572 -0.010195 0)
(0.0022145 -0.0135059 0)
(0.000371091 -0.0138588 0)
(-0.000577544 -0.0139982 0)
(-0.000716807 -0.0145482 0)
(-0.0012597 -0.013939 0)
(-0.00109313 -0.0143319 0)
(0.00234249 -0.0167079 0)
(0.000938377 -0.0148918 0)
(-0.00141198 -0.0140544 0)
(0.000592449 -0.0172758 0)
(-0.00015986 -0.0132003 0)
(0.000159972 -0.0125572 0)
(0.00054818 -0.0156845 0)
(0.000833918 -0.0144472 0)
(0.00188628 -0.0139381 0)
(0.00272117 -0.0133395 0)
(0.00360921 -0.0125363 0)
(0.00369401 -0.0123107 0)
(0.00345982 -0.012144 0)
(0.00306322 -0.0121819 0)
(0.00258138 -0.0124432 0)
(0.002084 -0.0129748 0)
(0.00117382 -0.0134461 0)
(-0.000698074 -0.0134562 0)
(-0.00291885 -0.0131951 0)
(-0.00346166 -0.0133337 0)
(-0.00334866 -0.0137484 0)
(-0.00226539 -0.0145118 0)
(-0.000646602 -0.0152643 0)
(0.0004281 -0.0151154 0)
(0.00100243 -0.0142367 0)
(0.00113368 -0.0135343 0)
(0.00116136 -0.0132876 0)
(0.000817583 -0.0149691 0)
(-0.000151734 -0.0128644 0)
(-5.63997e-05 -0.0146964 0)
(-0.00114686 -0.0116732 0)
(0.000570231 -0.0118114 0)
(0.00128698 -0.013769 0)
(0.000864837 -0.0133176 0)
(-0.00135552 -0.0126964 0)
(-0.000919788 -0.0121492 0)
(-0.000308445 -0.013187 0)
(-0.00203571 -0.0137849 0)
(-0.00364833 -0.0116017 0)
(-0.00305798 -0.0142309 0)
(-0.00105645 -0.0105526 0)
(0.000611905 -0.011128 0)
(0.00109613 -0.0152943 0)
(0.000584353 -0.015138 0)
(0.00123034 -0.016593 0)
(0.000975068 -0.0163949 0)
(0.00175899 -0.0175594 0)
(-0.00107271 -0.0192065 0)
(-0.00105236 -0.0133628 0)
(0.000411169 -0.0147357 0)
(0.000964432 -0.0206442 0)
(0.00117289 -0.0186063 0)
(-0.000263031 -0.0166268 0)
(0.00212452 -0.0162167 0)
(-0.000488849 -0.0181448 0)
(-0.00013558 -0.0145005 0)
(-5.43499e-05 -0.014879 0)
(0.00146339 -0.0186207 0)
(-0.000246017 -0.016257 0)
(0.000123573 -0.0159294 0)
(-0.00115958 -0.0151125 0)
(0.00347967 -0.0135857 0)
(-0.000769018 -0.0152228 0)
(0.000881388 -0.0129079 0)
(0.00124145 -0.0128366 0)
(-4.23847e-05 -0.0164849 0)
(0.0025688 -0.015739 0)
(0.000685614 -0.0130359 0)
(-0.00066078 -0.0091805 0)
(-6.65328e-05 -0.0119457 0)
(0.000152768 -0.0150077 0)
(-0.000275267 -0.0147524 0)
(0.000183107 -0.0155473 0)
(-8.87975e-05 -0.0164049 0)
(0.00196334 -0.0128037 0)
(0.000903076 -0.0140253 0)
(0.00262538 -0.016995 0)
(-0.000267074 -0.0131742 0)
(0.000880229 -0.0153965 0)
(0.000912578 -0.0184891 0)
(-0.00166157 -0.0180728 0)
(-0.000528327 -0.0188908 0)
(-6.07585e-05 -0.0185847 0)
(0.000361072 -0.0177801 0)
(0.00123712 -0.0167796 0)
(0.00238625 -0.0155416 0)
(0.00302157 -0.0145293 0)
(0.00293412 -0.0131789 0)
(0.00272841 -0.0126097 0)
(0.00239722 -0.0122491 0)
(0.00180562 -0.0122216 0)
(0.000655965 -0.012165 0)
(-0.00114233 -0.0120365 0)
(-0.00272742 -0.0123161 0)
(-0.003062 -0.0127687 0)
(-0.00262372 -0.0133742 0)
(-0.00135589 -0.014119 0)
(-0.000313519 -0.014597 0)
(0.000277633 -0.0144397 0)
(0.000692078 -0.0138461 0)
(0.000818335 -0.0133751 0)
(0.000893016 -0.0132686 0)
(0.000625706 -0.0151357 0)
(-0.000110088 -0.0129863 0)
(-0.000383728 -0.0132575 0)
(0.00013834 -0.011393 0)
(-0.000650335 -0.0110723 0)
(4.58932e-05 -0.0145403 0)
(-0.000504719 -0.014405 0)
(-0.00149895 -0.0140492 0)
(-0.00238507 -0.0120725 0)
(-0.00070828 -0.01374 0)
(-0.0005315 -0.0146911 0)
(-0.00285922 -0.0160814 0)
(-0.00361472 -0.0168131 0)
(0.000899838 -0.0154705 0)
(-0.00154062 -0.0172067 0)
(0.000163116 -0.0188563 0)
(0.00130915 -0.0188409 0)
(0.00200414 -0.0190163 0)
(0.0018187 -0.0189363 0)
(0.00136088 -0.019299 0)
(0.00255515 -0.0205784 0)
(0.00243761 -0.0154243 0)
(-0.0012812 -0.0167752 0)
(-0.000206086 -0.0216394 0)
(0.000564546 -0.0198975 0)
(0.000600337 -0.0152726 0)
(0.000267909 -0.0160004 0)
(-0.000591454 -0.0198 0)
(0.000746406 -0.0183409 0)
(-0.00204893 -0.01887 0)
(-4.49927e-06 -0.0194936 0)
(7.89815e-05 -0.0189001 0)
(-5.10284e-05 -0.019879 0)
(0.000416562 -0.0161572 0)
(0.000337202 -0.0143541 0)
(-0.00048464 -0.0169217 0)
(0.0020143 -0.0160965 0)
(-0.000879646 -0.0164239 0)
(0.0015299 -0.0156657 0)
(0.00157848 -0.0153913 0)
(0.00242729 -0.0154347 0)
(0.00126456 -0.0136589 0)
(-0.00182583 -0.0153496 0)
(-0.000251825 -0.0172657 0)
(0.00017794 -0.0176165 0)
(-0.0017246 -0.0156142 0)
(0.0035032 -0.0108441 0)
(0.00355521 -0.0112197 0)
(-0.000175749 -0.0143582 0)
(0.00270988 -0.0143424 0)
(0.0012741 -0.013455 0)
(-0.00153722 -0.011968 0)
(0.000411637 -0.0127395 0)
(-0.000685641 -0.0126797 0)
(1.46446e-05 -0.0143002 0)
(-0.000485584 -0.0150209 0)
(0.000341326 -0.0152534 0)
(0.00113944 -0.0155462 0)
(0.00136535 -0.0153513 0)
(0.00154426 -0.0144143 0)
(0.00170015 -0.0130359 0)
(0.00205879 -0.0121309 0)
(0.00210641 -0.0115514 0)
(0.00176246 -0.0113342 0)
(0.000973981 -0.0115108 0)
(-0.000681736 -0.0121208 0)
(-0.00218874 -0.012831 0)
(-0.00248828 -0.0130627 0)
(-0.00218694 -0.0134451 0)
(-0.00113099 -0.0138937 0)
(-0.000396588 -0.0142954 0)
(1.83662e-05 -0.0142444 0)
(0.000388067 -0.0137686 0)
(0.000498443 -0.0134117 0)
(0.000637124 -0.0133712 0)
(0.000442951 -0.0152814 0)
(-6.83111e-05 -0.0130793 0)
(0.00178576 -0.0122091 0)
(0.0030221 -0.0109849 0)
(-0.000657901 -0.0108943 0)
(-0.00106221 -0.0121379 0)
(-0.00177789 -0.014385 0)
(-0.000816613 -0.0160065 0)
(-0.000885051 -0.012751 0)
(-0.000640662 -0.0129358 0)
(0.000187812 -0.0174726 0)
(-0.000197261 -0.0188724 0)
(-0.00126279 -0.0158992 0)
(-0.00256549 -0.0154215 0)
(0.000221738 -0.0195509 0)
(0.00104647 -0.0202181 0)
(0.000344889 -0.0208853 0)
(0.00156636 -0.0209635 0)
(0.000893754 -0.0198444 0)
(0.000746312 -0.0191197 0)
(0.00318143 -0.0191789 0)
(0.00302371 -0.0176256 0)
(-0.00250428 -0.0189982 0)
(-7.73016e-05 -0.0217716 0)
(0.00109232 -0.0208094 0)
(0.00270933 -0.0187215 0)
(-0.00156266 -0.0178104 0)
(-0.000454362 -0.0177457 0)
(3.08003e-05 -0.0167922 0)
(-0.000571712 -0.0174031 0)
(3.72045e-06 -0.0179518 0)
(4.51444e-05 -0.0177297 0)
(0.00156931 -0.0161309 0)
(0.00141931 -0.0140282 0)
(-0.00177106 -0.0157899 0)
(-0.00188089 -0.016417 0)
(-0.000430894 -0.0160646 0)
(-0.00181673 -0.016474 0)
(0.00223865 -0.0165105 0)
(0.000620745 -0.0159008 0)
(0.00101215 -0.0143169 0)
(6.47902e-05 -0.0146855 0)
(2.89348e-05 -0.0145672 0)
(0.0010659 -0.0144171 0)
(0.00110904 -0.0158482 0)
(-0.000467507 -0.0106504 0)
(0.00367683 -0.00928469 0)
(-0.0014122 -0.0137876 0)
(-0.00141407 -0.00979307 0)
(-0.000284037 -0.0101449 0)
(-0.00028578 -0.0127592 0)
(-0.000260663 -0.0110115 0)
(0.00102029 -0.0120178 0)
(-0.000501271 -0.0126892 0)
(0.000681225 -0.0133517 0)
(-0.000273374 -0.0140351 0)
(0.000833568 -0.013474 0)
(0.00112754 -0.0137454 0)
(0.00110425 -0.0136615 0)
(0.000869037 -0.0127565 0)
(0.00056018 -0.011482 0)
(0.00111865 -0.0105555 0)
(0.00163234 -0.0093207 0)
(0.00173048 -0.00889476 0)
(0.00145706 -0.00883488 0)
(0.000167266 -0.00922964 0)
(-0.001699 -0.0104124 0)
(-0.00235991 -0.0111733 0)
(-0.00193875 -0.0120732 0)
(-0.000694867 -0.0129274 0)
(-4.70119e-05 -0.0134745 0)
(8.21541e-05 -0.0137221 0)
(0.000354187 -0.0135868 0)
(0.000415319 -0.0132168 0)
(0.000468678 -0.0133853 0)
(0.000318023 -0.0153457 0)
(-5.49803e-05 -0.013152 0)
(0.00200822 -0.00981659 0)
(0.00139151 -0.0127091 0)
(0.000685665 -0.0125177 0)
(0.000437644 -0.0109767 0)
(-0.00111048 -0.010114 0)
(0.00192699 -0.0107002 0)
(0.00203819 -0.0115673 0)
(-0.00145851 -0.0129199 0)
(-3.74077e-05 -0.0143323 0)
(0.000893955 -0.0160155 0)
(0.00113813 -0.0170889 0)
(-0.0051559 -0.0132131 0)
(-0.00243541 -0.0148884 0)
(0.000251244 -0.0203501 0)
(-0.000603749 -0.0200732 0)
(0.00146065 -0.0212891 0)
(0.00104239 -0.022687 0)
(-0.00105788 -0.0194958 0)
(0.003396 -0.0179979 0)
(0.00301397 -0.019528 0)
(0.00126283 -0.0193791 0)
(0.000548485 -0.0198093 0)
(0.000322051 -0.0202957 0)
(-0.000251248 -0.0191945 0)
(-0.00122487 -0.0183502 0)
(-0.000961093 -0.01588 0)
(-0.000979658 -0.0157728 0)
(-0.00116191 -0.0156263 0)
(-0.000836672 -0.0144926 0)
(-0.00157358 -0.0121885 0)
(0.00197799 -0.0119062 0)
(-0.000103335 -0.0144537 0)
(-0.000536673 -0.0137661 0)
(0.000787483 -0.0132734 0)
(-0.000321886 -0.0145935 0)
(0.000455801 -0.014079 0)
(-5.53261e-05 -0.0137866 0)
(-0.000224126 -0.0169841 0)
(-0.00119259 -0.0163889 0)
(-0.00274466 -0.0132599 0)
(0.00165867 -0.0117973 0)
(0.00155269 -0.0126098 0)
(0.00256517 -0.0144586 0)
(0.00289714 -0.00906141 0)
(-0.00110684 -0.00901533 0)
(0.000645594 -0.013917 0)
(0.00101314 -0.0110431 0)
(-0.00138915 -0.0104568 0)
(-0.00144028 -0.00961767 0)
(-0.00021322 -0.0080812 0)
(-0.000310404 -0.0105688 0)
(0.00102637 -0.0111197 0)
(-0.00018053 -0.0112187 0)
(-0.0017933 -0.0119192 0)
(0.00215714 -0.0119155 0)
(0.000990529 -0.0135149 0)
(0.000348077 -0.0134422 0)
(-0.000156976 -0.0126561 0)
(-0.00069654 -0.0116774 0)
(-0.000356922 -0.0105328 0)
(0.000421246 -0.00921418 0)
(0.00128737 -0.00810271 0)
(0.00145128 -0.00731926 0)
(0.00109026 -0.00728726 0)
(0.000159101 -0.00809651 0)
(-0.000629432 -0.00984934 0)
(-0.000574071 -0.0119404 0)
(0.000125323 -0.0131683 0)
(0.000408323 -0.0136019 0)
(0.000340581 -0.0138432 0)
(0.00030904 -0.013727 0)
(0.000314015 -0.0133159 0)
(0.00029485 -0.0134254 0)
(0.000224993 -0.015427 0)
(-3.50627e-05 -0.0132031 0)
(0.000509405 -0.013639 0)
(0.000988991 -0.0184076 0)
(0.00159192 -0.0162052 0)
(0.00116535 -0.015104 0)
(0.000113331 -0.0107675 0)
(-0.00220765 -0.00940598 0)
(0.000926898 -0.0121064 0)
(0.00121406 -0.012126 0)
(0.00287354 -0.0124181 0)
(0.00333799 -0.0123288 0)
(0.00321456 -0.0133768 0)
(0.00231232 -0.00910378 0)
(-0.00237239 -0.00626352 0)
(-0.00158258 -0.0125651 0)
(0.000936775 -0.0146086 0)
(0.0014274 -0.0159048 0)
(0.00105062 -0.020641 0)
(0.000192898 -0.0161887 0)
(-0.00182591 -0.0150645 0)
(-0.000872438 -0.0168522 0)
(0.00219507 -0.0157252 0)
(0.000124669 -0.0155691 0)
(-0.000818053 -0.0156563 0)
(-0.00154022 -0.0145204 0)
(-0.00213682 -0.0135072 0)
(-0.00272928 -0.0136516 0)
(-0.00113594 -0.0145057 0)
(0.000400364 -0.0149057 0)
(0.000751681 -0.0140792 0)
(0.000991241 -0.00919432 0)
(-0.000770372 -0.00965929 0)
(-0.000752557 -0.0138663 0)
(0.00021097 -0.0135256 0)
(0.00110665 -0.013401 0)
(0.00162142 -0.0129451 0)
(0.00189331 -0.0128186 0)
(-0.000464758 -0.0132265 0)
(-0.00142688 -0.0142483 0)
(-0.00192745 -0.0152589 0)
(-0.00324045 -0.0106294 0)
(0.000753145 -0.00969246 0)
(0.000347434 -0.0131301 0)
(0.00258654 -0.0134842 0)
(0.00321323 -0.0131829 0)
(-0.00110407 -0.0108228 0)
(-0.000970818 -0.0123852 0)
(-0.000453894 -0.0131182 0)
(-0.00360492 -0.0126381 0)
(-0.00163261 -0.0120835 0)
(-0.00205669 -0.0120223 0)
(0.000158519 -0.0142896 0)
(0.00235059 -0.0156161 0)
(0.00141328 -0.0179201 0)
(0.00198711 -0.0129299 0)
(0.00200674 -0.0111017 0)
(0.000970907 -0.0150028 0)
(-0.000179619 -0.013067 0)
(-0.00107638 -0.0117762 0)
(-0.00130271 -0.0107658 0)
(-0.00125361 -0.00980141 0)
(-0.000871823 -0.00901383 0)
(-0.000156425 -0.00843302 0)
(0.000537717 -0.0082289 0)
(0.000908433 -0.00854655 0)
(0.00109036 -0.00957835 0)
(0.00126465 -0.0112352 0)
(0.00111839 -0.012792 0)
(0.000929341 -0.0133452 0)
(0.000748273 -0.0135983 0)
(0.000470962 -0.0137302 0)
(0.000266538 -0.0135368 0)
(0.000247091 -0.0132069 0)
(0.000140684 -0.01343 0)
(0.000153996 -0.0154449 0)
(-2.51202e-05 -0.0132421 0)
(-0.000217794 -0.0132627 0)
(-0.000502019 -0.0137212 0)
(-0.000480425 -0.0129001 0)
(0.00173236 -0.0131435 0)
(0.000936627 -0.0146363 0)
(-0.00369734 -0.0101397 0)
(-0.00420982 -0.00827645 0)
(-0.00256235 -0.0100687 0)
(0.00154001 -0.00901881 0)
(0.00202829 -0.00862113 0)
(0.0032534 -0.00667546 0)
(0.00325848 -0.00285752 0)
(-0.0009102 8.42856e-05 0)
(0.00108979 0.00227133 0)
(0.00212948 0.00117766 0)
(-0.00031919 -0.00271925 0)
(0.00220374 -0.00426802 0)
(0.00308748 -0.00428865 0)
(0.00114764 -0.00611768 0)
(-0.000336778 -0.00604176 0)
(-0.000254752 -0.00957333 0)
(0.000575699 -0.0138391 0)
(-0.00111029 -0.0124815 0)
(-0.00105547 -0.0133498 0)
(-0.00230855 -0.0146052 0)
(-0.0036755 -0.0135142 0)
(0.000646806 -0.0130957 0)
(0.000109308 -0.014113 0)
(0.000704706 -0.0137777 0)
(0.000717939 -0.0111642 0)
(-0.00196859 -0.0110089 0)
(-0.000563677 -0.0126916 0)
(0.000512066 -0.0135697 0)
(0.00121473 -0.0144767 0)
(0.0016593 -0.0152046 0)
(0.00137302 -0.0138828 0)
(-0.000532653 -0.0123823 0)
(-0.000878926 -0.0135478 0)
(-0.000364439 -0.0134661 0)
(0.00213703 -0.00891492 0)
(-0.000503867 -0.00816828 0)
(-0.000501147 -0.0118962 0)
(-0.000598022 -0.0127044 0)
(0.000929183 -0.0122207 0)
(0.000135812 -0.0107378 0)
(-0.00107542 -0.00946931 0)
(-0.000884107 -0.00909533 0)
(-0.00151954 -0.0102017 0)
(-0.00126193 -0.0116935 0)
(-0.00143224 -0.0142855 0)
(0.000334318 -0.0163062 0)
(0.00188268 -0.0183628 0)
(0.00351216 -0.0196406 0)
(0.00380022 -0.0169961 0)
(-0.00117231 -0.0145627 0)
(-0.00187183 -0.0148509 0)
(-0.00267559 -0.0134129 0)
(-0.0031227 -0.0121817 0)
(-0.00274176 -0.0111157 0)
(-0.00224493 -0.0105716 0)
(-0.000930492 -0.00976853 0)
(0.000521256 -0.00972777 0)
(0.00163315 -0.0102545 0)
(0.00244404 -0.0113761 0)
(0.0028899 -0.0125894 0)
(0.00230676 -0.0134877 0)
(0.00133769 -0.0139785 0)
(0.000873642 -0.0139243 0)
(0.000653104 -0.0138641 0)
(0.000464372 -0.0138332 0)
(0.000260098 -0.0135724 0)
(0.000203488 -0.0132611 0)
(3.82081e-05 -0.0134757 0)
(8.22436e-05 -0.0155077 0)
(-1.44929e-05 -0.0132693 0)
(0.000343412 -0.0189085 0)
(0.000278992 -0.0175025 0)
(0.000980539 -0.0124777 0)
(0.00159263 -0.0137646 0)
(0.00100149 -0.0179293 0)
(-0.000436374 -0.0165087 0)
(-0.00269236 -0.0128129 0)
(-0.00557148 -0.0093137 0)
(-0.000493603 -0.0136516 0)
(0.000311458 -0.0180265 0)
(-0.000644089 -0.0164819 0)
(-0.000369552 -0.0149732 0)
(-0.000129371 -0.00882454 0)
(0.00127537 -0.00791432 0)
(-0.000676217 -0.0121226 0)
(-0.000773536 -0.0109044 0)
(0.00249696 -0.0104313 0)
(0.00473165 -0.0107857 0)
(0.0051027 -0.00947777 0)
(0.00524072 -0.00952251 0)
(0.00120731 -0.00886998 0)
(0.000867334 -0.0106666 0)
(-4.01164e-05 -0.0125246 0)
(-0.00185213 -0.0132148 0)
(-0.000870401 -0.0146601 0)
(-0.00044857 -0.0112063 0)
(-0.000583429 -0.0104203 0)
(-0.00174277 -0.0142133 0)
(-0.00181048 -0.0130017 0)
(-0.00276789 -0.0093644 0)
(-0.000129188 -0.00809816 0)
(0.00171634 -0.01096 0)
(0.00166754 -0.0139905 0)
(0.00214146 -0.0153944 0)
(0.00192159 -0.0151586 0)
(-0.000182847 -0.0139194 0)
(-0.00274776 -0.0125481 0)
(-0.00180642 -0.011224 0)
(-0.000753975 -0.0100946 0)
(0.0031289 -0.0102055 0)
(-0.00121608 -0.0116182 0)
(-9.84741e-05 -0.0134668 0)
(-0.00151376 -0.0139258 0)
(-0.000885607 -0.0140681 0)
(-0.00244322 -0.011886 0)
(-0.00183993 -0.0100108 0)
(-0.00249311 -0.00921504 0)
(-0.00156745 -0.00804336 0)
(-0.00153385 -0.00725322 0)
(0.00351819 -0.00735651 0)
(0.00244282 -0.00894674 0)
(0.00268581 -0.0108364 0)
(0.00269816 -0.0130317 0)
(0.00219691 -0.0127169 0)
(-0.000449547 -0.0113204 0)
(-0.00184618 -0.0125589 0)
(-0.00278475 -0.0134219 0)
(-0.00300988 -0.0142044 0)
(-0.00298928 -0.0145233 0)
(-0.00261714 -0.0146525 0)
(-0.00168112 -0.0143725 0)
(0.000141208 -0.0138406 0)
(0.00229317 -0.0135248 0)
(0.0031977 -0.0138156 0)
(0.00329283 -0.0139228 0)
(0.00269199 -0.0139791 0)
(0.00136577 -0.0139314 0)
(0.000854621 -0.0138128 0)
(0.000658479 -0.0137873 0)
(0.000494195 -0.013774 0)
(0.000251952 -0.0134695 0)
(0.000171411 -0.0131704 0)
(-5.08965e-05 -0.0134297 0)
(2.80756e-05 -0.0154955 0)
(-1.15163e-05 -0.0132809 0)
(0.000213783 -0.0172672 0)
(0.00120089 -0.0159436 0)
(0.00114038 -0.0149798 0)
(-0.00230043 -0.0143543 0)
(-0.00164493 -0.0155948 0)
(3.08578e-06 -0.0120918 0)
(0.00192419 -0.0113651 0)
(-0.00120322 -0.00934025 0)
(-0.00370322 -0.00924283 0)
(-0.00187684 -0.0167281 0)
(-0.00209869 -0.0179283 0)
(0.000495463 -0.0151564 0)
(0.00282171 -0.0140573 0)
(0.000644171 -0.0158346 0)
(-0.000110376 -0.018776 0)
(6.79951e-05 -0.0174447 0)
(-0.00142785 -0.014012 0)
(0.00352218 -0.0139482 0)
(0.00214545 -0.012889 0)
(0.00290166 -0.0110606 0)
(0.00112228 -0.0113948 0)
(0.00048109 -0.0115283 0)
(-0.000209674 -0.0106392 0)
(-0.00125238 -0.00862458 0)
(0.00114935 -0.00787025 0)
(0.000851825 -0.00755421 0)
(-0.00355603 -0.00884054 0)
(-0.00284642 -0.0109552 0)
(-0.00164072 -0.0115627 0)
(-0.00242004 -0.00760692 0)
(0.00154579 -0.00484981 0)
(0.000760574 -0.0105872 0)
(0.00119163 -0.0147822 0)
(0.00140329 -0.0152196 0)
(0.00079411 -0.0147815 0)
(0.00100851 -0.013117 0)
(-0.000960504 -0.00926216 0)
(-0.000569075 -0.00792506 0)
(-0.000568559 -0.00782279 0)
(-0.0007781 -0.0106174 0)