/*--------------------------------*- C++ -*----------------------------------*\
  =========                 |
  \\      /  F ield         | OpenFOAM: The Open Source CFD Toolbox
   \\    /   O peration     | Website:  https://openfoam.org
    \\  /    A nd           | Version:  12
     \\/     M anipulation  |
\*---------------------------------------------------------------------------*/
FoamFile
{
    format      ascii;
    class       volVectorField;
    location    "0.45";
    object      U.water;
}
// * * * * * * * * * * * * * * * * * * * * * * * * * * * * * * * * * * * * * //

dimensions      [0 1 -1 0 0 0 0];

internalField   nonuniform List<vector> 
3750
(
(-0.00121754 0.00983423 0)
(-0.000598604 0.00969042 0)
(-0.000103428 0.0107218 0)
(0.000104231 0.0110736 0)
(0.000933489 0.0112404 0)
(0.000433171 0.0109018 0)
(-0.000384879 0.0096217 0)
(4.6996e-05 0.00905195 0)
(-3.96793e-06 0.00995903 0)
(0.000378888 0.00974826 0)
(-0.000365159 0.00890678 0)
(0.000267489 0.00837745 0)
(0.000851949 0.00789797 0)
(0.00151427 0.00928889 0)
(-5.80172e-05 0.0115556 0)
(-0.00209575 0.0109581 0)
(0.00157668 0.0118057 0)
(-0.00104904 0.00759446 0)
(-0.000315524 0.00572333 0)
(-0.00155204 0.006417 0)
(-0.000974244 0.00623985 0)
(-0.000276071 0.00642318 0)
(0.000499813 0.00663295 0)
(-0.0001284 0.00638485 0)
(0.00116907 0.0070821 0)
(0.000329005 0.00551605 0)
(0.000655284 0.00332565 0)
(0.00115027 0.00389771 0)
(0.00159652 0.00371388 0)
(-0.000210518 0.00382921 0)
(-0.00160121 0.00416027 0)
(-0.0012567 0.00612302 0)
(-0.00141696 0.00822813 0)
(-0.000309374 0.00905839 0)
(-0.000410707 0.00868205 0)
(0.000616393 0.00798046 0)
(0.000378497 0.00661928 0)
(-0.000429865 0.0067099 0)
(-0.000168622 0.00529993 0)
(5.25183e-05 0.00286101 0)
(0.000597234 0.00363136 0)
(1.39642e-05 0.00308585 0)
(0.000338812 0.00300167 0)
(0.00164009 0.00968371 0)
(-0.00240713 0.0100315 0)
(-0.000498695 0.00355107 0)
(0.000164964 0.00432479 0)
(0.00101554 0.00321409 0)
(0.00238457 0.00764621 0)
(-0.000966926 0.00672812 0)
(-0.000975883 0.000474037 0)
(-0.000114961 0.000722952 0)
(-9.42105e-05 0.00264153 0)
(-0.00115849 0.00265753 0)
(-0.000367486 0.00246083 0)
(-0.000446878 0.00157077 0)
(-0.000158556 -0.000936392 0)
(0.00109677 -0.00137513 0)
(0.000718785 -0.00233126 0)
(0.00191957 -0.00369033 0)
(0.000135385 -0.00213992 0)
(-0.000219232 -0.00253623 0)
(-0.000548915 -0.000968081 0)
(-0.000605495 -0.000454276 0)
(-0.000509768 0.000463735 0)
(-0.000340842 0.00117388 0)
(-0.000414262 0.0022365 0)
(-0.000580868 0.00360188 0)
(-0.000395207 0.00472434 0)
(0.000308269 0.00484131 0)
(0.000884044 0.00310444 0)
(0.00116755 4.39282e-05 0)
(0.00184653 -0.00367395 0)
(0.00178346 -0.00932394 0)
(0.000866805 -0.00964956 0)
(0.00104796 -0.000661326 0)
(0.000667664 -0.00123482 0)
(-0.000390204 -0.00136902 0)
(-0.00208979 -0.000200176 0)
(0.000859456 0.0005626 0)
(0.000847552 -0.00101389 0)
(-0.00058672 -0.00108281 0)
(0.000858298 -0.000445125 0)
(-0.000776851 -0.000173675 0)
(-0.000124285 -0.00049655 0)
(-0.000615683 0.000102423 0)
(-0.00144072 0.00202339 0)
(-0.00102061 0.00232408 0)
(-0.00045777 0.00351595 0)
(-0.0010822 0.00487317 0)
(-0.000907136 0.00978394 0)
(0.00299596 0.00955121 0)
(0.00190815 0.00241002 0)
(0.00247989 0.000438783 0)
(0.00163869 -0.00207926 0)
(0.00072859 -0.00375152 0)
(0.000209895 -0.00453999 0)
(0.000573428 -0.00532049 0)
(-0.000348515 -0.00526377 0)
(-7.96608e-05 -0.00340802 0)
(-0.000544133 -0.00290381 0)
(0.000548881 -0.00125478 0)
(0.000699728 -0.000211624 0)
(8.0741e-05 -0.000441281 0)
(-0.00080665 -0.00276866 0)
(-0.00211121 -0.00103602 0)
(-0.00325919 -0.000200772 0)
(-0.000110929 -0.00048721 0)
(0.000466993 -0.000549543 0)
(0.000294938 -0.0029089 0)
(0.00160574 -0.00144427 0)
(0.00278439 -0.00336816 0)
(0.00250375 -0.00362428 0)
(0.00237634 -0.00405438 0)
(0.00136789 -0.00662248 0)
(0.000178991 -0.00704471 0)
(-0.00128609 -0.00832477 0)
(0.000805976 -0.00623405 0)
(0.00061024 -0.00309067 0)
(-0.00503857 -0.00280516 0)
(0.000251331 -0.00312938 0)
(-0.000984088 -0.00289677 0)
(0.00339677 -0.00166632 0)
(0.00215948 -0.00118927 0)
(-0.00134865 -0.0025888 0)
(-0.000139301 -0.004387 0)
(0.00049486 -0.00465997 0)
(0.000263177 -0.00524962 0)
(0.000761013 -0.00656385 0)
(0.00200551 -0.00822578 0)
(0.0020949 -0.0101532 0)
(0.00181697 -0.0119822 0)
(0.00198218 -0.0121984 0)
(0.000448564 -0.0117348 0)
(0.000279731 -0.0103676 0)
(-0.00105714 -0.00978046 0)
(-0.00144486 -0.00966137 0)
(-0.00137434 -0.00941998 0)
(-0.000982355 -0.00922305 0)
(-0.000982732 -0.00875419 0)
(-0.00139833 -0.00793588 0)
(-0.00210761 -0.00690371 0)
(-0.00217104 -0.00581575 0)
(-0.00112794 -0.00485367 0)
(0.00122704 -0.00488465 0)
(0.00381488 -0.00600411 0)
(0.0055734 -0.00800971 0)
(0.00568131 -0.0108463 0)
(0.004134 -0.0131137 0)
(0.000356832 -0.0109267 0)
(0.00425983 -0.00726868 0)
(0.00294382 -0.00877301 0)
(-0.000766083 -0.0107683 0)
(-0.000821606 -0.00750426 0)
(0.000484985 -0.006502 0)
(-0.000403551 -0.0115177 0)
(-0.00178381 -0.0122019 0)
(-0.000185728 -0.0120229 0)
(-0.0011016 -0.0122888 0)
(-0.0014589 -0.0118285 0)
(-0.00165906 -0.0121627 0)
(-0.00288898 -0.00972156 0)
(-0.000331544 -0.00813642 0)
(0.00154101 -0.00959362 0)
(0.00203162 -0.0105869 0)
(0.0021489 -0.00631701 0)
(-0.00111775 -0.00457172 0)
(0.00395274 -0.00899556 0)
(0.0033576 -0.00900776 0)
(0.00366432 -0.00798925 0)
(0.00258591 -0.00792992 0)
(5.75257e-05 -0.00641038 0)
(-0.0011079 -0.00740388 0)
(-0.000913721 -0.00952407 0)
(-0.0020508 -0.00913283 0)
(-0.0013508 -0.00874826 0)
(0.000151285 -0.00798281 0)
(0.000758358 -0.00766497 0)
(-5.45723e-05 -0.0082383 0)
(0.000449519 -0.00937756 0)
(0.00056847 -0.011546 0)
(-0.00108559 -0.0086024 0)
(-5.85055e-05 -0.00833427 0)
(-0.00304751 -0.0116726 0)
(5.61294e-05 -0.011774 0)
(0.000913639 -0.0111524 0)
(0.00373256 -0.0112492 0)
(0.00329863 -0.0104273 0)
(0.00248995 -0.0101113 0)
(0.00157303 -0.00992909 0)
(0.00102185 -0.00943196 0)
(0.000341972 -0.00862427 0)
(-0.000289945 -0.00976581 0)
(-0.00157217 -0.0122952 0)
(-0.0023801 -0.00967869 0)
(-0.00117675 -0.0115637 0)
(-0.000674863 -0.0126851 0)
(0.00063014 -0.0130311 0)
(0.000377055 -0.0166845 0)
(-0.000393054 -0.0151373 0)
(0.00102194 -0.0159164 0)
(0.000969553 -0.0159913 0)
(0.00184014 -0.0136487 0)
(0.00256786 -0.0135765 0)
(0.00199695 -0.0148053 0)
(0.00200704 -0.0148476 0)
(0.00213296 -0.0150856 0)
(0.00113893 -0.015447 0)
(0.000469101 -0.016206 0)
(0.000149295 -0.0164236 0)
(-0.000836645 -0.0162067 0)
(-0.00131527 -0.0161363 0)
(-0.00143067 -0.016135 0)
(-0.00140449 -0.0160105 0)
(-0.00176714 -0.0155874 0)
(-0.00255729 -0.0150743 0)
(-0.0028193 -0.0147205 0)
(-0.00265201 -0.014461 0)
(-0.0011033 -0.0145546 0)
(0.00249974 -0.0148426 0)
(0.0052429 -0.0145241 0)
(0.00595086 -0.0138808 0)
(0.00542029 -0.0131209 0)
(0.00296224 -0.0144264 0)
(0.000137105 -0.011452 0)
(0.000841215 -0.0102572 0)
(0.00157841 -0.0157492 0)
(0.00303759 -0.0140441 0)
(0.00375336 -0.00983856 0)
(0.000306407 -0.012149 0)
(-0.00119159 -0.0172083 0)
(-0.00164617 -0.0168353 0)
(0.000843254 -0.0152701 0)
(-0.001364 -0.0165069 0)
(-0.000588398 -0.015152 0)
(-0.0020326 -0.014068 0)
(-0.00180789 -0.0101503 0)
(-0.00183553 -0.00988911 0)
(0.00312861 -0.0136937 0)
(0.00137367 -0.0143985 0)
(0.00154583 -0.0126544 0)
(-0.00270158 -0.00691832 0)
(-0.000309252 -0.00858472 0)
(0.0012375 -0.0118926 0)
(0.00130822 -0.010419 0)
(0.00149032 -0.0100644 0)
(0.0017919 -0.00932617 0)
(0.000225883 -0.00858487 0)
(-0.000253689 -0.0104141 0)
(-0.000896471 -0.0118482 0)
(-0.000681018 -0.012045 0)
(-0.00124369 -0.0119804 0)
(0.000875116 -0.011799 0)
(0.00103464 -0.0114446 0)
(0.00112442 -0.0121911 0)
(0.00099206 -0.0135714 0)
(0.00163602 -0.0115792 0)
(-0.0010867 -0.0105022 0)
(0.00144467 -0.00974505 0)
(0.000223019 -0.00918399 0)
(-0.000458922 -0.0106163 0)
(0.000152131 -0.0134597 0)
(0.00042819 -0.0143161 0)
(0.000422534 -0.0119807 0)
(-0.00119978 -0.0112746 0)
(0.00292633 -0.0111211 0)
(0.000992493 -0.0125863 0)
(0.000931611 -0.0116826 0)
(7.04643e-05 -0.0122551 0)
(0.00204719 -0.0123155 0)
(0.00010676 -0.0127385 0)
(0.0029727 -0.0128177 0)
(0.000696645 -0.0128249 0)
(0.000843784 -0.0146372 0)
(-6.60253e-05 -0.0140212 0)
(-0.000627114 -0.0150487 0)
(-0.00123898 -0.0154495 0)
(0.00112516 -0.0136889 0)
(0.000773642 -0.0133735 0)
(0.00118393 -0.0128808 0)
(0.00204808 -0.01262 0)
(0.00259973 -0.0129806 0)
(0.00256036 -0.0136661 0)
(0.00194624 -0.014746 0)
(0.00023096 -0.0156675 0)
(-0.00107159 -0.0163068 0)
(-0.00136692 -0.0166164 0)
(-0.0012156 -0.0170997 0)
(-0.0011376 -0.0175447 0)
(-0.0015918 -0.017719 0)
(-0.0024761 -0.0173863 0)
(-0.00269098 -0.0170669 0)
(-0.00244606 -0.0169805 0)
(-0.000975657 -0.0175191 0)
(0.00165057 -0.0177591 0)
(0.00391923 -0.0164751 0)
(0.00433098 -0.0145899 0)
(0.00385168 -0.013523 0)
(0.00194074 -0.0145477 0)
(-0.000360851 -0.0119536 0)
(-0.000119878 -0.0168656 0)
(0.00122537 -0.0167837 0)
(0.00423177 -0.0168105 0)
(0.00316774 -0.0159113 0)
(-0.000703071 -0.0157667 0)
(-0.00138265 -0.0170587 0)
(-0.001078 -0.0125925 0)
(-0.00214786 -0.0135826 0)
(-0.00359044 -0.0140963 0)
(3.4061e-05 -0.0120357 0)
(-0.00113745 -0.0157411 0)
(-0.000121137 -0.0149254 0)
(-0.00284044 -0.0111055 0)
(-0.000842172 -0.0136142 0)
(-0.000174935 -0.0168359 0)
(0.00153977 -0.0140243 0)
(0.00122451 -0.0103448 0)
(-0.000497348 -0.00924998 0)
(0.000371144 -0.0109371 0)
(0.00100784 -0.0110025 0)
(0.00130207 -0.0101485 0)
(0.00143601 -0.010155 0)
(0.00064891 -0.0110855 0)
(-0.000581139 -0.0124901 0)
(-0.000106901 -0.0130589 0)
(0.000379327 -0.0135185 0)
(-3.49865e-05 -0.0125165 0)
(0.000594076 -0.0114074 0)
(0.00133842 -0.0137032 0)
(2.15003e-05 -0.0130866 0)
(0.000206345 -0.0117708 0)
(-0.000545814 -0.00956884 0)
(0.00276299 -0.00579957 0)
(0.00246731 -0.00618407 0)
(0.0011886 -0.0095941 0)
(0.000722766 -0.00906434 0)
(-0.000812148 -0.011166 0)
(0.0013494 -0.0138461 0)
(0.000942432 -0.0151445 0)
(0.000250915 -0.0107882 0)
(3.69215e-05 -0.0101933 0)
(3.65732e-05 -0.013442 0)
(0.00055981 -0.0122659 0)
(-0.000469006 -0.0125243 0)
(8.81147e-05 -0.0117279 0)
(-0.000971127 -0.011909 0)
(-0.00192935 -0.00964211 0)
(0.00130391 -0.00843072 0)
(0.00126679 -0.0081493 0)
(0.00192629 -0.00735839 0)
(0.00118332 -0.0105377 0)
(0.000107648 -0.0108511 0)
(-7.47712e-05 -0.0105496 0)
(0.000687972 -0.0125396 0)
(0.00147466 -0.0123715 0)
(0.00234449 -0.0120836 0)
(0.00296704 -0.0124771 0)
(0.00301336 -0.0128349 0)
(0.00263788 -0.01353 0)
(0.00158321 -0.0145056 0)
(0.000101425 -0.0158488 0)
(-0.000606521 -0.0172782 0)
(-0.000594713 -0.0183143 0)
(-0.000772958 -0.0186079 0)
(-0.0019152 -0.0183125 0)
(-0.00315455 -0.0175223 0)
(-0.0033178 -0.0171379 0)
(-0.00266006 -0.0167609 0)
(-0.000806567 -0.0169764 0)
(0.00138281 -0.0171168 0)
(0.00266066 -0.0159456 0)
(0.00269709 -0.0140937 0)
(0.00247522 -0.0133054 0)
(0.00156916 -0.0143366 0)
(-0.000367789 -0.0123685 0)
(0.00260797 -0.0180432 0)
(-0.000467183 -0.0171531 0)
(0.00281764 -0.0170436 0)
(0.00167747 -0.0165606 0)
(0.000432514 -0.0150861 0)
(0.000180688 -0.0151894 0)
(0.000131188 -0.0135283 0)
(-0.00242887 -0.0135306 0)
(-0.0018738 -0.0105487 0)
(-0.00202604 -0.0101694 0)
(-0.00217301 -0.0136345 0)
(-1.9392e-05 -0.0120563 0)
(0.000186477 -0.0102075 0)
(-0.00238725 -0.0105798 0)
(-0.00101935 -0.0125482 0)
(-0.00088911 -0.012241 0)
(-0.00245938 -0.00998505 0)
(-0.000848245 -0.00994771 0)
(-0.0015867 -0.0106728 0)
(0.000557627 -0.00955253 0)
(0.0010152 -0.010252 0)
(0.00148662 -0.0116269 0)
(0.00126582 -0.0123866 0)
(0.000386525 -0.0131071 0)
(0.000333271 -0.0133873 0)
(0.000846465 -0.0142229 0)
(0.00121728 -0.0142764 0)
(-0.000125551 -0.012677 0)
(-4.67306e-06 -0.0127739 0)
(0.00143621 -0.012004 0)
(0.00176834 -0.0127659 0)
(0.00113091 -0.00843367 0)
(0.00104767 -0.00772311 0)
(-0.00203479 -0.00999715 0)
(0.00222252 -0.00949109 0)
(0.00117673 -0.0111723 0)
(0.000106316 -0.0122707 0)
(0.000565665 -0.0126103 0)
(0.00175223 -0.013078 0)
(0.00277005 -0.0116579 0)
(-0.00161708 -0.0111 0)
(0.00103966 -0.0119693 0)
(-4.69834e-05 -0.0123746 0)
(0.00016616 -0.0128621 0)
(-0.000233848 -0.0128659 0)
(0.000702908 -0.0147456 0)
(-0.000113891 -0.0111184 0)
(-0.000522486 -0.0106072 0)
(-0.000747657 -0.0136583 0)
(0.000563011 -0.0108559 0)
(0.00217183 -0.0107693 0)
(0.0022895 -0.0116056 0)
(0.00037447 -0.01084 0)
(0.000439623 -0.0109968 0)
(0.00145335 -0.011782 0)
(0.00265834 -0.0115043 0)
(0.00342327 -0.0117684 0)
(0.00349031 -0.0121002 0)
(0.00319496 -0.0123116 0)
(0.0024548 -0.0127279 0)
(0.0015607 -0.0136732 0)
(0.000916401 -0.0149775 0)
(0.000233585 -0.0161879 0)
(-0.00103524 -0.0168464 0)
(-0.002997 -0.0160094 0)
(-0.00371426 -0.0154799 0)
(-0.00368289 -0.015351 0)
(-0.0027244 -0.015469 0)
(-0.000718012 -0.0159337 0)
(0.00096395 -0.0158211 0)
(0.00167478 -0.0147278 0)
(0.00176957 -0.0135835 0)
(0.00169673 -0.0131184 0)
(0.00109202 -0.0145195 0)
(-0.000245802 -0.0125656 0)
(0.000164076 -0.0141036 0)
(0.0014167 -0.0129633 0)
(0.000464246 -0.0122216 0)
(0.000211467 -0.0163241 0)
(-0.000938519 -0.0146456 0)
(-0.00139884 -0.0140106 0)
(-0.00160971 -0.0119679 0)
(-0.00167108 -0.0120627 0)
(-0.00268878 -0.00941005 0)
(-0.00506237 -0.00801459 0)
(-0.00400402 -0.0100564 0)
(-0.000140942 -0.00935505 0)
(-0.000264267 -0.00963264 0)
(-0.000874824 -0.0109346 0)
(-0.000819595 -0.0122965 0)
(-0.00102097 -0.0136179 0)
(-0.00136224 -0.0100665 0)
(-0.00252839 -0.00955428 0)
(-0.00103275 -0.0131688 0)
(0.00323408 -0.0128928 0)
(0.00329028 -0.0149108 0)
(0.00254159 -0.0152998 0)
(0.00245251 -0.0167467 0)
(0.00123201 -0.0172517 0)
(-0.000218609 -0.0155026 0)
(-0.00119436 -0.0152893 0)
(-0.00046499 -0.0150746 0)
(-0.000573991 -0.0137419 0)
(-0.00048287 -0.0124361 0)
(0.000791192 -0.0123427 0)
(0.00175078 -0.013844 0)
(0.00354667 -0.0131267 0)
(-0.00138155 -0.0129213 0)
(-0.00206834 -0.00884889 0)
(0.00215657 -0.00996069 0)
(0.000181689 -0.0140794 0)
(-0.000279364 -0.0142232 0)
(0.00218276 -0.0131222 0)
(0.000229812 -0.0128489 0)
(0.000328694 -0.0135539 0)
(-0.00232798 -0.0119049 0)
(0.00274912 -0.0118534 0)
(0.0012029 -0.0137513 0)
(0.0006692 -0.013722 0)
(-0.000834476 -0.0125318 0)
(0.00252284 -0.0154468 0)
(0.00264622 -0.0167333 0)
(-0.00170848 -0.0173724 0)
(-0.00129815 -0.0155116 0)
(-0.00161289 -0.0107954 0)
(-0.0010371 -0.0135871 0)
(-0.000184932 -0.0159713 0)
(6.79603e-05 -0.0145742 0)
(0.000663002 -0.0140014 0)
(0.00177108 -0.0137168 0)
(0.00262754 -0.0132091 0)
(0.00351451 -0.0124727 0)
(0.00362737 -0.0122577 0)
(0.00342346 -0.0120711 0)
(0.00304435 -0.0120793 0)
(0.00256378 -0.0123148 0)
(0.0020525 -0.0128278 0)
(0.00111522 -0.0132823 0)
(-0.000792654 -0.013278 0)
(-0.00296686 -0.013032 0)
(-0.00347867 -0.0131808 0)
(-0.0033468 -0.0136036 0)
(-0.0022393 -0.0143689 0)
(-0.000623698 -0.0151081 0)
(0.000437804 -0.0149442 0)
(0.00100343 -0.0140703 0)
(0.0011334 -0.0133707 0)
(0.00115752 -0.0131126 0)
(0.000812496 -0.0147666 0)
(-0.000153043 -0.0127083 0)
(-0.00195015 -0.0117653 0)
(0.00308273 -0.0114284 0)
(-0.00228546 -0.012446 0)
(-0.000473069 -0.013086 0)
(-0.000937127 -0.0133683 0)
(-0.00157243 -0.0133178 0)
(-0.000504604 -0.0126576 0)
(-0.00167364 -0.0140157 0)
(-0.00227851 -0.0141233 0)
(-0.00448373 -0.0118369 0)
(-0.000380044 -0.0107307 0)
(-0.00150518 -0.0117018 0)
(-0.00242721 -0.0145634 0)
(0.000535185 -0.0139276 0)
(0.000900013 -0.0146663 0)
(0.00188865 -0.0160154 0)
(0.00269843 -0.0163189 0)
(-0.00221165 -0.0154458 0)
(-0.000493621 -0.0138178 0)
(0.00021577 -0.0171219 0)
(0.000491954 -0.0208314 0)
(0.000911321 -0.0194858 0)
(0.000945207 -0.0183068 0)
(0.0016625 -0.0188257 0)
(0.000788417 -0.018062 0)
(-0.000901297 -0.0175105 0)
(-0.000568423 -0.0172256 0)
(-0.00230139 -0.0160297 0)
(0.000488662 -0.0149346 0)
(0.000150397 -0.0137969 0)
(0.00166657 -0.0134074 0)
(0.00333481 -0.0150853 0)
(0.00118199 -0.0164936 0)
(0.00225781 -0.0107931 0)
(-0.000413035 -0.0108022 0)
(2.41243e-06 -0.0167995 0)
(-0.00114868 -0.012563 0)
(0.0010447 -0.0125864 0)
(-0.00184255 -0.0151104 0)
(0.000346956 -0.0148538 0)
(-0.00117023 -0.0100804 0)
(0.0022525 -0.00921314 0)
(0.00156159 -0.0153392 0)
(0.00258762 -0.0161548 0)
(0.00140197 -0.0135993 0)
(0.000273106 -0.0143682 0)
(0.000766987 -0.017924 0)
(0.000410914 -0.0154522 0)
(0.00236455 -0.0144206 0)
(0.000219709 -0.0151215 0)
(-0.00323078 -0.0170613 0)
(-0.000978358 -0.0189277 0)
(-0.000380619 -0.018326 0)
(4.05105e-05 -0.0180417 0)
(0.00038757 -0.0175362 0)
(0.00120436 -0.0166398 0)
(0.00233227 -0.0154211 0)
(0.002956 -0.0144012 0)
(0.0028783 -0.0130525 0)
(0.00268618 -0.0124703 0)
(0.00236065 -0.0120971 0)
(0.00176231 -0.0120588 0)
(0.000597446 -0.0119952 0)
(-0.00121341 -0.0118764 0)
(-0.00276166 -0.0121688 0)
(-0.00307608 -0.0126242 0)
(-0.0026155 -0.0132295 0)
(-0.00133815 -0.0139706 0)
(-0.000307384 -0.0144349 0)
(0.000280053 -0.0142715 0)
(0.000692414 -0.0136819 0)
(0.000818446 -0.0132125 0)
(0.000888089 -0.0130936 0)
(0.000622288 -0.0149314 0)
(-0.000111311 -0.0128283 0)
(-0.000507704 -0.00854941 0)
(-0.000476236 -0.0109058 0)
(-0.000677772 -0.0146088 0)
(-0.000785245 -0.013694 0)
(-0.00191077 -0.0142386 0)
(-0.00340098 -0.0133168 0)
(0.000503485 -0.0127615 0)
(-0.00180145 -0.0156717 0)
(-0.00160409 -0.0151121 0)
(0.00030546 -0.0124585 0)
(0.000952052 -0.0154129 0)
(-0.00292162 -0.021767 0)
(-0.00291027 -0.0180519 0)
(-0.00359582 -0.0157918 0)
(0.000436136 -0.0181744 0)
(0.00247167 -0.0175105 0)
(0.00453836 -0.0186441 0)
(0.00206319 -0.0181205 0)
(-0.000227234 -0.0169193 0)
(0.000312081 -0.0188962 0)
(0.000116371 -0.0212246 0)
(0.000168368 -0.0204994 0)
(0.000360585 -0.0187419 0)
(0.000533348 -0.018699 0)
(0.000599929 -0.0191272 0)
(-0.000491338 -0.0195222 0)
(-0.000737728 -0.0212643 0)
(0.000351814 -0.0188412 0)
(0.000407393 -0.0152559 0)
(0.00012054 -0.0155363 0)
(-0.000322103 -0.0147706 0)
(-0.000323751 -0.0177418 0)
(-0.00131143 -0.0174917 0)
(0.00405618 -0.0134899 0)
(0.000184028 -0.0157612 0)
(0.00101174 -0.0175381 0)
(0.00194061 -0.0145876 0)
(-0.00196257 -0.0147487 0)
(-0.00145287 -0.0156772 0)
(0.00209969 -0.0158177 0)
(0.00221583 -0.0126053 0)
(-0.00160116 -0.0122702 0)
(0.000704641 -0.0169405 0)
(0.00145315 -0.0147964 0)
(0.00327395 -0.0133792 0)
(-0.000170448 -0.0138174 0)
(0.00138567 -0.0148743 0)
(0.00124075 -0.0139592 0)
(2.41496e-05 -0.0133808 0)
(-0.000564991 -0.0121771 0)
(-0.000957977 -0.011745 0)
(-0.000420571 -0.0120455 0)
(0.000484419 -0.0138789 0)
(-2.45656e-05 -0.0147762 0)
(0.000539689 -0.0152297 0)
(0.00107267 -0.015541 0)
(0.00126661 -0.0152799 0)
(0.00145621 -0.0142934 0)
(0.00163506 -0.0128902 0)
(0.00201012 -0.0119729 0)
(0.00206111 -0.0113884 0)
(0.00171667 -0.0111667 0)
(0.000917031 -0.011346 0)
(-0.000750612 -0.0119662 0)
(-0.00222294 -0.0126678 0)
(-0.00250447 -0.0128985 0)
(-0.00218516 -0.013284 0)
(-0.00111869 -0.0137334 0)
(-0.000393044 -0.014129 0)
(2.14404e-05 -0.014075 0)
(0.000389578 -0.0136036 0)
(0.0005009 -0.013247 0)
(0.000633352 -0.0131928 0)
(0.000441277 -0.015075 0)
(-6.95101e-05 -0.0129199 0)
(0.00264457 -0.0114314 0)
(-0.000423758 -0.0106568 0)
(0.000398658 -0.0116142 0)
(-0.000731573 -0.0128008 0)
(-0.00185371 -0.0156278 0)
(-0.00180616 -0.0123879 0)
(-0.000738072 -0.0125722 0)
(-0.00047884 -0.0177624 0)
(0.00151741 -0.0136524 0)
(0.00260088 -0.013657 0)
(-0.0010245 -0.0197324 0)
(-0.000478858 -0.022129 0)
(0.000706686 -0.0230511 0)
(-0.00323435 -0.0184222 0)
(0.00126788 -0.0162424 0)
(0.00107616 -0.0166324 0)
(0.00108747 -0.0192426 0)
(0.00160493 -0.0223446 0)
(0.00079988 -0.0167309 0)
(-0.000167563 -0.0168125 0)
(-0.0012761 -0.0224428 0)
(8.61703e-05 -0.0224727 0)
(0.000458689 -0.021296 0)
(0.000930432 -0.0201583 0)
(0.000512062 -0.0193228 0)
(0.000638202 -0.0189345 0)
(0.00088755 -0.0173105 0)
(0.00324429 -0.0165981 0)
(0.00144483 -0.0166543 0)
(0.000151465 -0.0159201 0)
(-0.000571162 -0.0142641 0)
(-0.00345681 -0.0154894 0)
(-0.000901095 -0.0136178 0)
(-0.000628028 -0.0120738 0)
(0.000156969 -0.0165344 0)
(0.0010057 -0.0181312 0)
(0.00103336 -0.0179541 0)
(-0.000858639 -0.0170433 0)
(-5.22116e-05 -0.012014 0)
(0.000984404 -0.0122481 0)
(0.00151946 -0.0148619 0)
(-0.00351534 -0.0121554 0)
(-0.000301063 -0.0118603 0)
(0.00242659 -0.0119193 0)
(0.0015123 -0.0131393 0)
(-0.00119403 -0.0133003 0)
(-0.00116946 -0.0111707 0)
(0.000585291 -0.0112908 0)
(-0.000487241 -0.0115236 0)
(0.000122465 -0.0107493 0)
(0.000660066 -0.0112367 0)
(-0.000177587 -0.0116859 0)
(0.00137307 -0.0127022 0)
(0.0010075 -0.0139927 0)
(0.000730144 -0.0138791 0)
(0.000907581 -0.0139376 0)
(0.000914398 -0.0136177 0)
(0.000729302 -0.0126293 0)
(0.000471202 -0.0113229 0)
(0.00106388 -0.0103741 0)
(0.00158675 -0.00914367 0)
(0.0016877 -0.00872495 0)
(0.00140648 -0.00866828 0)
(0.000105112 -0.00907851 0)
(-0.00174073 -0.0102612 0)
(-0.00237364 -0.0110209 0)
(-0.00192824 -0.0119255 0)
(-0.00067943 -0.0127762 0)
(-4.73977e-05 -0.0133153 0)
(8.11418e-05 -0.0135584 0)
(0.000354763 -0.0134223 0)
(0.000414624 -0.0130557 0)
(0.000466276 -0.0132071 0)
(0.000316837 -0.0151391 0)
(-5.56313e-05 -0.0129916 0)
(0.000749536 -0.0106152 0)
(0.000515858 -0.0118672 0)
(0.000462885 -0.012118 0)
(0.000577001 -0.0112318 0)
(2.99458e-05 -0.0113835 0)
(0.00102177 -0.00982857 0)
(0.000424474 -0.0111679 0)
(9.88458e-05 -0.0136952 0)
(0.00182977 -0.0119299 0)
(-0.000522035 -0.0134044 0)
(-0.000210868 -0.0162844 0)
(-0.000245787 -0.0196976 0)
(0.000735724 -0.0222857 0)
(0.00170786 -0.0169885 0)
(9.74019e-05 -0.0157409 0)
(-0.00151097 -0.0205641 0)
(-0.00188111 -0.0209554 0)
(0.000329112 -0.0206293 0)
(0.00275917 -0.0181561 0)
(0.000465024 -0.0191498 0)
(0.000303796 -0.0207773 0)
(5.05119e-05 -0.0208019 0)
(-0.000268456 -0.0211326 0)
(-0.000817016 -0.0196423 0)
(-0.000966821 -0.0186241 0)
(0.00030208 -0.016797 0)
(0.000377275 -0.0158458 0)
(0.000230767 -0.0151047 0)
(-0.000142415 -0.0140066 0)
(-0.00137905 -0.0123186 0)
(-0.000993868 -0.0117263 0)
(-0.00238333 -0.0128843 0)
(0.00118589 -0.0109104 0)
(-0.000110754 -0.0102511 0)
(0.000647787 -0.0128436 0)
(0.00158278 -0.0172765 0)
(0.000539454 -0.0169928 0)
(-0.000172315 -0.0162666 0)
(-0.00100436 -0.0141519 0)
(-0.000467423 -0.0127974 0)
(0.000141877 -0.0145406 0)
(-0.000695429 -0.0105152 0)
(-0.00147406 -0.00627402 0)
(0.00233234 -0.009376 0)
(-0.000565703 -0.014035 0)
(0.000566501 -0.0141264 0)
(-0.000571625 -0.0109097 0)
(0.000992533 -0.0103985 0)
(-0.000560953 -0.00998751 0)
(-9.18926e-05 -0.00832858 0)
(-0.000243514 -0.00962851 0)
(0.00159392 -0.00937997 0)
(0.000738321 -0.0098202 0)
(0.000217909 -0.0126886 0)
(0.00104406 -0.0136288 0)
(0.000498953 -0.0136616 0)
(8.8505e-05 -0.0133033 0)
(-0.000325638 -0.0124533 0)
(-0.000800752 -0.011469 0)
(-0.000416462 -0.01032 0)
(0.000385912 -0.00900336 0)
(0.00125628 -0.00789794 0)
(0.00141328 -0.00714392 0)
(0.00104584 -0.0071271 0)
(0.000117401 -0.00795983 0)
(-0.000651296 -0.00972153 0)
(-0.000570713 -0.011806 0)
(0.000127378 -0.0130085 0)
(0.000401204 -0.0134376 0)
(0.00033569 -0.0136759 0)
(0.000306923 -0.0135581 0)
(0.000313148 -0.0131508 0)
(0.00029355 -0.0132458 0)
(0.000224413 -0.0152192 0)
(-3.55974e-05 -0.0130421 0)
(-2.14354e-06 -0.0164559 0)
(0.000610508 -0.0169085 0)
(0.000982269 -0.0157226 0)
(-0.000577256 -0.0142902 0)
(-0.00169063 -0.0129667 0)
(0.00137404 -0.00839685 0)
(0.00122619 -0.00940196 0)
(0.00203393 -0.0134478 0)
(0.00168898 -0.0113193 0)
(0.00205863 -0.0100324 0)
(0.00222469 -0.0108496 0)
(0.00230957 -0.0119668 0)
(0.00238744 -0.0131284 0)
(0.00301366 -0.0131811 0)
(-0.00149595 -0.0145217 0)
(-0.000312335 -0.0154229 0)
(-0.00095207 -0.0159355 0)
(-0.000229273 -0.0172398 0)
(-0.00135347 -0.016347 0)
(-0.00063289 -0.0160822 0)
(0.000612624 -0.0170148 0)
(-0.000491484 -0.0159612 0)
(-0.00106429 -0.0163275 0)
(-0.00178122 -0.0152431 0)
(-0.00360345 -0.0133354 0)
(-0.000253738 -0.013853 0)
(-0.000935069 -0.0148661 0)
(0.000455961 -0.0148 0)
(0.000201767 -0.0138584 0)
(-0.00176156 -0.0111473 0)
(-0.00244443 -0.0102502 0)
(-0.0024558 -0.0105439 0)
(-0.000173314 -0.00974927 0)
(0.00144675 -0.00969094 0)
(0.00439335 -0.0114857 0)
(0.00227889 -0.0149493 0)
(0.00232187 -0.0158383 0)
(-0.000299724 -0.0159034 0)
(-0.00239671 -0.0107887 0)
(-0.000591921 -0.0101104 0)
(0.000231848 -0.0145688 0)
(0.00100933 -0.0134144 0)
(-0.000972614 -0.00789092 0)
(-0.000102369 -0.00973991 0)
(-0.000598432 -0.0146517 0)
(-0.00185826 -0.0141905 0)
(-0.00171002 -0.0120771 0)
(-0.00191419 -0.0113238 0)
(-0.000481654 -0.0131289 0)
(-0.00238592 -0.0126083 0)
(-0.000613228 -0.0132724 0)
(0.00329792 -0.0138377 0)
(0.00165358 -0.015728 0)
(0.00211419 -0.0148867 0)
(0.00156261 -0.0139432 0)
(0.000651481 -0.0143455 0)
(-0.000387624 -0.012671 0)
(-0.00122981 -0.0115056 0)
(-0.00140782 -0.0105244 0)
(-0.00131897 -0.00957506 0)
(-0.0009049 -0.00879704 0)
(-0.000168588 -0.00822983 0)
(0.000526197 -0.00804323 0)
(0.000892999 -0.00837947 0)
(0.00107464 -0.00942716 0)
(0.00124952 -0.0110952 0)
(0.00110484 -0.0126299 0)
(0.000918292 -0.0131773 0)
(0.000736249 -0.0134292 0)
(0.000463487 -0.0135615 0)
(0.000263711 -0.0133693 0)
(0.000245521 -0.0130435 0)
(0.000141396 -0.0132504 0)
(0.000154048 -0.0152374 0)
(-2.51373e-05 -0.0130809 0)
(0.000544611 -0.0141388 0)
(-0.000490175 -0.0129503 0)
(-2.99764e-05 -0.0137241 0)
(-0.000985678 -0.0146262 0)
(-0.000826356 -0.0104877 0)
(-0.000569698 -0.00715802 0)
(-0.00116367 -0.0104822 0)
(-0.0021312 -0.0119226 0)
(-0.00195577 -0.0085276 0)
(0.000302594 -0.00553492 0)
(0.00213601 -0.00439722 0)
(0.00145553 -0.00314706 0)
(0.00127789 -0.00260904 0)
(0.00342374 -0.00142573 0)
(0.00144538 -0.000795482 0)
(0.00117883 -0.00135755 0)
(0.000122475 -0.00114154 0)
(0.00293201 -0.00305528 0)
(0.00289768 -0.00604636 0)
(-0.000569935 -0.00783902 0)
(-0.000468641 -0.0114582 0)
(0.000571737 -0.0133594 0)
(-0.000741381 -0.0131221 0)
(-0.000407184 -0.0152505 0)
(-0.00156676 -0.0124667 0)
(-0.00188723 -0.0129459 0)
(-0.000260807 -0.0158235 0)
(-0.000492572 -0.0144634 0)
(0.000433868 -0.0160181 0)
(0.000662539 -0.0122935 0)
(-0.00145288 -0.00984242 0)
(-0.00408085 -0.00989099 0)
(-0.000963825 -0.00867555 0)
(0.00101926 -0.00815105 0)
(0.0036542 -0.0132272 0)
(0.00229065 -0.0167637 0)
(0.00191778 -0.0148108 0)
(0.000971977 -0.0161075 0)
(0.00159145 -0.00991036 0)
(-0.00147325 -0.00881445 0)
(-0.000190661 -0.0129087 0)
(-0.000113921 -0.0129674 0)
(0.000261114 -0.00852498 0)
(-0.00281573 -0.0080796 0)
(-0.000263662 -0.0133358 0)
(-0.000835589 -0.011463 0)
(0.000370859 -0.00637329 0)
(-0.000730448 -0.00781535 0)
(7.02887e-06 -0.0144145 0)
(-0.00133167 -0.0167868 0)
(0.000812187 -0.0140376 0)
(0.00132908 -0.0157975 0)
(0.00218666 -0.0191082 0)
(0.00132551 -0.0179917 0)
(-0.000607141 -0.0163536 0)
(-0.00181735 -0.0146773 0)
(-0.00277936 -0.0131091 0)
(-0.00322358 -0.0119124 0)
(-0.00281994 -0.0108709 0)
(-0.00228752 -0.0103378 0)
(-0.000944116 -0.00955024 0)
(0.000518787 -0.00952817 0)
(0.00163101 -0.0100723 0)
(0.00243738 -0.0112059 0)
(0.00286981 -0.0124207 0)
(0.00227366 -0.0133172 0)
(0.00132004 -0.0137956 0)
(0.000864821 -0.0137407 0)
(0.000648221 -0.0136862 0)
(0.000460075 -0.0136605 0)
(0.00025774 -0.0134035 0)
(0.000202418 -0.0130963 0)
(3.98137e-05 -0.0132955 0)
(8.31157e-05 -0.0152995 0)
(-1.42352e-05 -0.0131082 0)
(0.000230768 -0.0186948 0)
(-0.000233816 -0.0161748 0)
(9.27711e-05 -0.014891 0)
(0.000745736 -0.0154412 0)
(0.00230422 -0.014341 0)
(-0.00180117 -0.0105135 0)
(-0.00161599 -0.0127732 0)
(-0.00494141 -0.0173614 0)
(-0.00295398 -0.0150069 0)
(-0.000331224 -0.0132033 0)
(0.000597079 -0.0136985 0)
(-0.000719811 -0.0140484 0)
(-0.00200132 -0.011594 0)
(0.00143448 -0.0110665 0)
(0.00148934 -0.0125611 0)
(0.00168057 -0.0116197 0)
(0.00358409 -0.00739662 0)
(0.00387751 -0.00793476 0)
(0.00477328 -0.0107756 0)
(0.00403031 -0.0109387 0)
(0.00216813 -0.0100492 0)
(0.00180316 -0.0105376 0)
(0.00118252 -0.012609 0)
(-2.53324e-05 -0.0136051 0)
(0.00105507 -0.0135637 0)
(-0.0019488 -0.0133389 0)
(-0.000401256 -0.013078 0)
(-0.00185967 -0.0134491 0)
(-0.00174047 -0.012296 0)
(0.00372621 -0.0105008 0)
(0.00160809 -0.0123067 0)
(-0.000660744 -0.00979924 0)
(0.000410067 -0.00708463 0)
(0.000605752 -0.00820236 0)
(-0.00107995 -0.0123756 0)
(-0.000743155 -0.0154233 0)
(-0.000750944 -0.0141871 0)
(-0.00019536 -0.0134689 0)
(0.00151166 -0.0110462 0)
(-0.00202303 -0.0111891 0)
(0.000401548 -0.0125567 0)
(8.80296e-05 -0.0131873 0)
(-0.000174872 -0.012481 0)
(-0.00548703 -0.0119236 0)
(-0.00199002 -0.0114151 0)
(-0.00128868 -0.00999852 0)
(-9.48233e-05 -0.00760194 0)
(-0.00124886 -0.00677679 0)
(0.000742076 -0.00906384 0)
(0.00381544 -0.00883223 0)
(0.00302703 -0.00854945 0)
(0.000489078 -0.0105868 0)
(0.000761151 -0.0124728 0)
(1.35755e-05 -0.0126422 0)
(-0.000683627 -0.0117676 0)
(-0.0019905 -0.0126826 0)
(-0.00292102 -0.0132762 0)
(-0.00311622 -0.0139814 0)
(-0.00306427 -0.0142845 0)
(-0.00265786 -0.01441 0)
(-0.00168356 -0.0141325 0)
(0.000172761 -0.0136062 0)
(0.00231289 -0.0133168 0)
(0.00318958 -0.013618 0)
(0.0032779 -0.0137316 0)
(0.00265771 -0.0137933 0)
(0.00134454 -0.0137465 0)
(0.000848959 -0.013632 0)
(0.000656395 -0.0136111 0)
(0.000491738 -0.0136012 0)
(0.000250165 -0.0133014 0)
(0.000170832 -0.0130069 0)
(-4.79152e-05 -0.0132509 0)
(2.97011e-05 -0.0152888 0)
(-1.06992e-05 -0.0131205 0)
(-0.00101989 -0.0175322 0)
(-0.000421223 -0.015972 0)
(-0.00151846 -0.0162215 0)
(-0.00276965 -0.013624 0)
(0.000240288 -0.011805 0)
(0.000763411 -0.00926377 0)
(-0.00195406 -0.011835 0)
(-0.00255724 -0.015621 0)
(-0.00480857 -0.0106365 0)
(-0.00196341 -0.0102842 0)
(0.00431849 -0.015632 0)
(0.00197931 -0.0187603 0)
(0.000870199 -0.0162529 0)
(-0.00212721 -0.0153892 0)
(0.00276835 -0.018459 0)
(0.00234415 -0.017173 0)
(0.00250144 -0.0140995 0)
(0.000336925 -0.0139943 0)
(0.00090862 -0.0128488 0)
(0.00215347 -0.0114525 0)
(0.0013097 -0.0112263 0)
(0.00217877 -0.0107587 0)
(0.000954291 -0.010324 0)
(0.000413785 -0.00981163 0)
(0.00024283 -0.00899391 0)
(-0.00078894 -0.00861824 0)
(-0.00173947 -0.00998885 0)
(-0.00162562 -0.011333 0)
(0.000331349 -0.00742075 0)
(0.000525642 -0.00747648 0)
(0.0016616 -0.0127026 0)
(0.00217266 -0.0109462 0)
(0.00121025 -0.00916284 0)
(-0.000336483 -0.0105815 0)
(-0.00335815 -0.0117152 0)
(-0.00136372 -0.0110251 0)
(-0.00339694 -0.00965792 0)
(5.6254e-05 -0.0103087 0)
(0.00248908 -0.0110774 0)
(-0.0011517 -0.011073 0)