/*--------------------------------*- C++ -*----------------------------------*\
  =========                 |
  \\      /  F ield         | OpenFOAM: The Open Source CFD Toolbox
   \\    /   O peration     | Website:  https://openfoam.org
    \\  /    A nd           | Version:  12
     \\/     M anipulation  |
\*---------------------------------------------------------------------------*/
FoamFile
{
    format      ascii;
    class       volVectorField::Internal;
    location    "0.8";
    object      cloud:UTrans;
}
// * * * * * * * * * * * * * * * * * * * * * * * * * * * * * * * * * * * * * //

dimensions      [1 1 -1 0 0 0 0];

value           nonuniform List<vector> 
3750
(
(-1.16628e-11 -1.06114e-09 0)
(6.05348e-11 -2.78569e-09 0)
(0 0 0)
(3.83226e-11 -1.19741e-09 0)
(1.44016e-11 -1.15416e-09 0)
(1.90351e-11 -1.14564e-09 0)
(-5.00803e-12 -2.52305e-09 0)
(4.87872e-12 -1.06617e-09 0)
(1.14241e-11 -1.06185e-09 0)
(8.2171e-11 -2.36309e-09 0)
(-1.51618e-11 -9.01619e-10 0)
(1.78386e-12 -9.67276e-10 0)
(-3.0317e-11 -1.09646e-09 0)
(-1.07038e-11 -1.23224e-09 0)
(-2.95393e-11 -1.25643e-09 0)
(-1.83298e-11 -1.19596e-09 0)
(-1.18515e-11 -1.17958e-09 0)
(2.21468e-11 -1.18224e-09 0)
(2.71252e-11 -2.37013e-09 0)
(-5.0247e-12 -1.04684e-09 0)
(-1.63202e-11 -1.09122e-09 0)
(3.30177e-11 -1.32866e-09 0)
(-1.31357e-11 -1.32481e-09 0)
(0 0 0)
(-3.12355e-11 -1.26178e-09 0)
(-2.4359e-11 -1.19884e-09 0)
(3.69704e-12 -2.37757e-09 0)
(1.45637e-11 -8.20609e-10 0)
(2.82826e-11 -1.09422e-09 0)
(9.9464e-11 -1.13028e-09 0)
(0 0 0)
(5.07973e-12 -1.25931e-09 0)
(-4.86247e-11 -2.69401e-09 0)
(0 0 0)
(1.94249e-12 -1.1906e-09 0)
(-5.44566e-11 -1.23506e-09 0)
(-4.51391e-11 -1.17361e-09 0)
(-1.86145e-11 -1.09567e-09 0)
(-1.06301e-10 -2.67333e-09 0)
(-5.02702e-12 -1.25649e-09 0)
(-1.04386e-10 -2.79611e-09 0)
(4.97729e-11 -1.16314e-09 0)
(-4.07914e-12 -1.13226e-09 0)
(-1.42969e-11 -1.21086e-09 0)
(0 0 0)
(2.84926e-11 -2.47198e-09 0)
(-2.45404e-11 -9.50289e-10 0)
(0 0 0)
(0 0 0)
(0 0 0)
(0 0 0)
(0 0 0)
(0 0 0)
(0 0 0)
(0 0 0)
(0 0 0)
(0 0 0)
(0 0 0)
(0 0 0)
(0 0 0)
(0 0 0)
(0 0 0)
(0 0 0)
(0 0 0)
(0 0 0)
(0 0 0)
(0 0 0)
(0 0 0)
(0 0 0)
(0 0 0)
(0 0 0)
(0 0 0)
(0 0 0)
(0 0 0)
(0 0 0)
(-2.97297e-11 -1.18493e-09 0)
(-2.95489e-12 -1.19844e-09 0)
(3.05906e-11 -1.24978e-09 0)
(0 0 0)
(0 0 0)
(-2.44827e-11 -1.14882e-09 0)
(6.51112e-11 -1.13074e-09 0)
(1.1476e-11 -1.1139e-09 0)
(1.02076e-10 -2.59794e-09 0)
(-8.2629e-11 -1.03916e-09 0)
(-2.00236e-10 -3.45247e-09 0)
(-1.3912e-10 -2.21547e-09 0)
(-3.12633e-11 -6.28339e-10 0)
(0 0 0)
(0 0 0)
(0 0 0)
(5.53812e-12 -1.17193e-09 0)
(-1.19996e-11 -1.20658e-09 0)
(3.13558e-12 -2.51285e-09 0)
(1.03333e-11 -9.42784e-10 0)
(-6.46395e-11 -1.1501e-09 0)
(4.45278e-11 -3.14674e-09 0)
(8.76495e-12 -1.24296e-09 0)
(0 0 0)
(0 0 0)
(-3.56699e-11 -1.13166e-09 0)
(0 0 0)
(-2.06116e-11 -3.01066e-09 0)
(-8.39112e-11 -2.53593e-09 0)
(-1.05728e-10 -3.66673e-09 0)
(0 0 0)
(0 0 0)
(0 0 0)
(-1.97266e-13 -1.08613e-09 0)
(7.65751e-12 -1.22247e-09 0)
(-2.16915e-11 -1.1876e-09 0)
(-5.09409e-11 -1.17132e-09 0)
(-1.23079e-10 -1.13284e-09 0)
(-5.79023e-11 -1.07429e-09 0)
(-2.40834e-11 -2.81669e-09 0)
(0 0 0)
(-5.58223e-11 -2.30645e-09 0)
(0 0 0)
(0 0 0)
(0 0 0)
(0 0 0)
(0 0 0)
(0 0 0)
(0 0 0)
(0 0 0)
(0 0 0)
(0 0 0)
(0 0 0)
(0 0 0)
(0 0 0)
(0 0 0)
(0 0 0)
(0 0 0)
(0 0 0)
(0 0 0)
(0 0 0)
(0 0 0)
(0 0 0)
(0 0 0)
(0 0 0)
(0 0 0)
(0 0 0)
(0 0 0)
(0 0 0)
(0 0 0)
(0 0 0)
(0 0 0)
(0 0 0)
(0 0 0)
(0 0 0)
(-2.24704e-11 -1.18525e-09 0)
(-2.14371e-11 -4.00679e-09 0)
(3.81045e-11 -2.65023e-09 0)
(0 0 0)
(2.40405e-11 -1.13601e-09 0)
(0 0 0)
(0 0 0)
(0 0 0)
(-3.85202e-11 -2.96932e-09 0)
(8.65286e-12 -1.10088e-09 0)
(0 0 0)
(5.37948e-11 -9.46654e-10 0)
(-2.30906e-11 -7.74643e-10 0)
(8.998e-11 -3.08579e-09 0)
(0 0 0)
(4.14175e-11 -1.1844e-09 0)
(8.89637e-11 -2.70632e-09 0)
(-4.05355e-11 -1.13579e-09 0)
(-1.41492e-10 -2.44957e-09 0)
(-2.24576e-10 -2.24943e-09 0)
(-1.3069e-10 -1.13252e-09 0)
(-9.862e-11 -2.5629e-09 0)
(1.14943e-10 -1.62954e-09 0)
(0 0 0)
(-1.11107e-10 -1.19481e-09 0)
(-1.12558e-11 -1.03063e-09 0)
(-5.09479e-11 -2.18724e-09 0)
(-2.726e-11 -1.04204e-09 0)
(-5.84271e-12 -1.08124e-09 0)
(5.15945e-11 -1.15391e-09 0)
(2.62914e-11 -1.1734e-09 0)
(-8.25295e-12 -1.27391e-09 0)
(0 0 0)
(-1.66623e-10 -2.46274e-09 0)
(-1.47794e-10 -2.52831e-09 0)
(-2.91595e-11 -1.0327e-09 0)
(-1.61968e-10 -2.61255e-09 0)
(-3.32288e-11 -8.89605e-10 0)
(-1.42618e-10 -1.03737e-09 0)
(0 0 0)
(0 0 0)
(0 0 0)
(0 0 0)
(0 0 0)
(0 0 0)
(0 0 0)
(0 0 0)
(0 0 0)
(0 0 0)
(0 0 0)
(0 0 0)
(0 0 0)
(0 0 0)
(0 0 0)
(0 0 0)
(0 0 0)
(0 0 0)
(0 0 0)
(0 0 0)
(0 0 0)
(0 0 0)
(0 0 0)
(0 0 0)
(0 0 0)
(0 0 0)
(0 0 0)
(0 0 0)
(0 0 0)
(0 0 0)
(0 0 0)
(0 0 0)
(0 0 0)
(0 0 0)
(0 0 0)
(0 0 0)
(0 0 0)
(9.21858e-11 -1.06238e-09 0)
(4.29742e-11 -1.07856e-09 0)
(4.69176e-11 -1.22452e-09 0)
(0 0 0)
(0 0 0)
(3.13031e-12 -1.16594e-09 0)
(-2.43701e-11 -2.42949e-09 0)
(3.34661e-11 -2.51093e-09 0)
(-1.47436e-12 -1.05755e-09 0)
(2.38059e-11 -1.12744e-09 0)
(-6.70144e-11 -1.02277e-09 0)
(-6.00092e-11 -1.69046e-09 0)
(-2.39524e-12 -5.1976e-10 0)
(4.40211e-11 -4.24197e-09 0)
(-4.16451e-11 -9.24939e-10 0)
(7.13487e-11 -4.43742e-09 0)
(1.7273e-11 -1.08155e-09 0)
(-5.7681e-12 -1.17702e-09 0)
(-8.29031e-11 -1.12542e-09 0)
(-6.48463e-11 -1.06567e-09 0)
(-2.30656e-11 -1.163e-09 0)
(9.59529e-11 -1.37462e-09 0)
(3.54119e-11 -1.42003e-09 0)
(0 0 0)
(-9.52146e-11 -1.09903e-09 0)
(-4.03457e-11 -1.05508e-09 0)
(-1.00432e-11 -1.02308e-09 0)
(-1.70487e-11 -1.02616e-09 0)
(-5.42296e-11 -2.7273e-09 0)
(-1.15529e-11 -1.15773e-09 0)
(-3.57073e-12 -1.39147e-09 0)
(0 0 0)
(-8.13345e-13 -1.1752e-09 0)
(-1.03282e-10 -9.79976e-10 0)
(-1.88743e-10 -2.44766e-09 0)
(-1.04227e-10 -1.01258e-09 0)
(0 0 0)
(0 0 0)
(0 0 0)
(0 0 0)
(0 0 0)
(0 0 0)
(0 0 0)
(0 0 0)
(0 0 0)
(0 0 0)
(0 0 0)
(0 0 0)
(0 0 0)
(0 0 0)
(0 0 0)
(0 0 0)
(0 0 0)
(0 0 0)
(0 0 0)
(0 0 0)
(0 0 0)
(0 0 0)
(0 0 0)
(0 0 0)
(0 0 0)
(0 0 0)
(0 0 0)
(0 0 0)
(0 0 0)
(0 0 0)
(0 0 0)
(0 0 0)
(0 0 0)
(0 0 0)
(0 0 0)
(0 0 0)
(0 0 0)
(0 0 0)
(-1.24324e-11 -1.16236e-09 0)
(5.88008e-11 -1.1716e-09 0)
(0 0 0)
(5.73069e-11 -1.15235e-09 0)
(2.41011e-11 -1.17784e-09 0)
(0 0 0)
(1.88693e-11 -1.07394e-09 0)
(0 0 0)
(-1.07396e-10 -2.69173e-09 0)
(-9.5591e-11 -1.18215e-09 0)
(-1.85106e-10 -2.50454e-09 0)
(-7.37725e-11 -9.86829e-10 0)
(-1.17552e-10 -1.69346e-09 0)
(-1.50012e-10 -3.15498e-09 0)
(0 0 0)
(-9.91234e-12 -1.04331e-09 0)
(-6.76098e-11 -1.14243e-09 0)
(-1.44946e-11 -1.24347e-09 0)
(2.09699e-11 -1.44685e-09 0)
(0 0 0)
(-2.76333e-11 -1.21696e-09 0)
(-5.38162e-11 -1.08923e-09 0)
(-5.35344e-11 -3.23659e-09 0)
(5.77823e-11 -1.54045e-09 0)
(-7.63918e-11 -1.15296e-09 0)
(-5.60101e-11 -1.02174e-09 0)
(-1.77171e-11 -1.02086e-09 0)
(-6.12235e-11 -2.40472e-09 0)
(-2.4428e-11 -9.80618e-10 0)
(-4.38793e-11 -1.04938e-09 0)
(0 0 0)
(0 0 0)
(0 0 0)
(0 0 0)
(2.95846e-11 -2.67802e-09 0)
(-5.71758e-11 -1.05762e-09 0)
(-6.01542e-11 -1.12157e-09 0)
(-1.24785e-10 -1.15453e-09 0)
(0 0 0)
(0 0 0)
(0 0 0)
(0 0 0)
(0 0 0)
(0 0 0)
(0 0 0)
(0 0 0)
(0 0 0)
(0 0 0)
(0 0 0)
(0 0 0)
(0 0 0)
(0 0 0)
(0 0 0)
(0 0 0)
(0 0 0)
(0 0 0)
(0 0 0)
(0 0 0)
(0 0 0)
(0 0 0)
(0 0 0)
(0 0 0)
(0 0 0)
(0 0 0)
(0 0 0)
(0 0 0)
(0 0 0)
(0 0 0)
(0 0 0)
(0 0 0)
(0 0 0)
(0 0 0)
(0 0 0)
(0 0 0)
(0 0 0)
(0 0 0)
(1.73175e-11 -1.15763e-09 0)
(8.42682e-11 -1.11787e-09 0)
(9.48367e-11 -1.17347e-09 0)
(7.55208e-11 -1.21954e-09 0)
(-1.5551e-11 -3.59491e-10 0)
(-1.11263e-10 -1.64148e-09 0)
(-1.54489e-11 -2.2806e-09 0)
(-2.03866e-10 -2.97019e-09 0)
(-4.48085e-11 -1.10739e-09 0)
(-9.19484e-11 -1.02742e-09 0)
(-9.8704e-11 -1.07648e-09 0)
(-8.54775e-11 -1.07745e-09 0)
(-1.61749e-10 -9.96448e-10 0)
(-1.1053e-11 -1.03214e-09 0)
(-3.27666e-12 -1.16335e-09 0)
(-6.98351e-11 -1.27903e-09 0)
(-2.58712e-11 -1.22653e-09 0)
(0 0 0)
(2.58711e-11 -1.34524e-09 0)
(-2.70538e-11 -1.25407e-09 0)
(-6.67776e-11 -1.16129e-09 0)
(-1.15657e-10 -1.48639e-09 0)
(5.13311e-11 -2.83967e-09 0)
(8.63102e-11 -1.25996e-09 0)
(-3.44061e-11 -9.56442e-10 0)
(-3.40339e-11 -9.80843e-10 0)
(-4.60013e-11 -1.01692e-09 0)
(-3.74812e-11 -1.09642e-09 0)
(-1.89412e-11 -1.112e-09 0)
(-8.517e-12 -1.10276e-09 0)
(1.92284e-11 -1.25511e-09 0)
(1.79789e-11 -1.18798e-09 0)
(8.91624e-11 -1.15148e-09 0)
(0 0 0)
(-9.76783e-11 -1.19409e-09 0)
(-1.0065e-10 -1.48863e-09 0)
(0 0 0)
(0 0 0)
(0 0 0)
(0 0 0)
(0 0 0)
(0 0 0)
(0 0 0)
(0 0 0)
(0 0 0)
(0 0 0)
(0 0 0)
(0 0 0)
(0 0 0)
(0 0 0)
(0 0 0)
(0 0 0)
(0 0 0)
(0 0 0)
(0 0 0)
(0 0 0)
(0 0 0)
(0 0 0)
(0 0 0)
(0 0 0)
(0 0 0)
(0 0 0)
(0 0 0)
(0 0 0)
(0 0 0)
(0 0 0)
(0 0 0)
(0 0 0)
(0 0 0)
(0 0 0)
(0 0 0)
(0 0 0)
(0 0 0)
(0 0 0)
(7.79821e-11 -1.28402e-09 0)
(1.06998e-10 -1.9386e-09 0)
(1.0629e-10 -1.53575e-09 0)
(1.06008e-10 -9.73675e-10 0)
(-1.08087e-10 -4.46986e-09 0)
(-3.88562e-11 -1.03568e-09 0)
(-1.51687e-10 -2.30123e-09 0)
(-1.50024e-10 -1.03656e-09 0)
(-6.72606e-11 -1.23291e-09 0)
(0 0 0)
(5.67758e-11 -1.12442e-09 0)
(-5.43712e-11 -1.19245e-09 0)
(-5.78637e-11 -1.13728e-09 0)
(-8.78086e-11 -1.06823e-09 0)
(-3.04395e-11 -1.07817e-09 0)
(1.70801e-12 -1.19669e-09 0)
(-3.846e-12 -1.82365e-10 0)
(-1.64649e-11 -8.15348e-10 0)
(-2.84833e-11 -1.2464e-09 0)
(-1.58777e-10 -3.17825e-09 0)
(-3.14722e-11 -1.15051e-09 0)
(-5.93299e-11 -1.12192e-09 0)
(0 0 0)
(-4.84097e-11 -1.13173e-09 0)
(6.96677e-11 -1.35009e-09 0)
(-6.07106e-11 -1.10132e-09 0)
(-2.45856e-11 -1.04136e-09 0)
(-5.54766e-11 -1.09417e-09 0)
(-8.46997e-11 -1.12228e-09 0)
(-7.73842e-11 -2.38198e-09 0)
(-5.02999e-11 -9.58729e-10 0)
(4.82483e-11 -2.58973e-09 0)
(1.10706e-12 -1.15972e-09 0)
(6.62449e-11 -1.1315e-09 0)
(-5.97211e-11 -1.1947e-09 0)
(0 0 0)
(-1.32433e-10 -1.24057e-09 0)
(0 0 0)
(0 0 0)
(0 0 0)
(0 0 0)
(0 0 0)
(0 0 0)
(0 0 0)
(0 0 0)
(0 0 0)
(0 0 0)
(0 0 0)
(0 0 0)
(0 0 0)
(0 0 0)
(0 0 0)
(0 0 0)
(0 0 0)
(0 0 0)
(0 0 0)
(0 0 0)
(0 0 0)
(0 0 0)
(0 0 0)
(0 0 0)
(0 0 0)
(0 0 0)
(0 0 0)
(0 0 0)
(0 0 0)
(0 0 0)
(0 0 0)
(0 0 0)
(0 0 0)
(0 0 0)
(0 0 0)
(0 0 0)
(0 0 0)
(0 0 0)
(-8.54741e-12 -2.74824e-09 0)
(4.60922e-11 -9.3177e-10 0)
(-3.29422e-11 -2.15005e-09 0)
(-1.53786e-10 -3.72969e-09 0)
(-6.9351e-11 -9.88582e-10 0)
(6.25085e-11 -1.02476e-09 0)
(-6.29833e-11 -1.15904e-09 0)
(0 0 0)
(-5.01583e-11 -1.09807e-09 0)
(5.25933e-11 -1.22614e-09 0)
(0 0 0)
(-2.31166e-11 -1.26343e-09 0)
(-2.5767e-11 -1.12215e-09 0)
(-2.4016e-11 -1.03349e-09 0)
(9.5274e-12 -1.13326e-09 0)
(-4.5304e-12 -1.40426e-09 0)
(0 0 0)
(8.33583e-11 -2.69065e-09 0)
(-4.06988e-11 -1.32652e-09 0)
(-1.33429e-10 -1.29643e-09 0)
(1.24242e-12 -1.21595e-09 0)
(0 0 0)
(-3.90346e-11 -1.15545e-09 0)
(-2.56658e-11 -1.19964e-09 0)
(2.94815e-11 -1.40598e-09 0)
(0 0 0)
(2.79432e-11 -1.19169e-09 0)
(-4.13259e-11 -1.13748e-09 0)
(-7.99703e-11 -1.14633e-09 0)
(-9.13913e-11 -1.12894e-09 0)
(-8.44438e-11 -1.10375e-09 0)
(-1.44366e-10 -2.7736e-09 0)
(1.39306e-11 -9.54177e-10 0)
(-8.51568e-11 -2.98032e-09 0)
(1.17107e-11 -1.09237e-09 0)
(-3.94098e-11 -1.05089e-09 0)
(-4.28003e-11 -1.00313e-09 0)
(0 0 0)
(0 0 0)
(0 0 0)
(0 0 0)
(0 0 0)
(0 0 0)
(0 0 0)
(0 0 0)
(0 0 0)
(0 0 0)
(0 0 0)
(0 0 0)
(0 0 0)
(0 0 0)
(0 0 0)
(0 0 0)
(0 0 0)
(0 0 0)
(0 0 0)
(0 0 0)
(0 0 0)
(0 0 0)
(0 0 0)
(0 0 0)
(0 0 0)
(0 0 0)
(0 0 0)
(0 0 0)
(0 0 0)
(0 0 0)
(0 0 0)
(0 0 0)
(0 0 0)
(0 0 0)
(0 0 0)
(0 0 0)
(0 0 0)
(0 0 0)
(-3.77508e-13 -1.10846e-09 0)
(-9.14817e-11 -2.48906e-09 0)
(-5.84952e-11 -4.81575e-10 0)
(-1.4277e-10 -2.33728e-09 0)
(-1.99048e-11 -1.10892e-09 0)
(-3.42467e-11 -1.36801e-09 0)
(0 0 0)
(2.42274e-11 -1.2221e-09 0)
(0 0 0)
(-1.4624e-11 -1.12201e-09 0)
(3.29564e-11 -1.45542e-09 0)
(0 0 0)
(-1.49499e-11 -1.17606e-09 0)
(-3.34946e-11 -1.03435e-09 0)
(-4.99836e-11 -1.0157e-09 0)
(-4.98608e-11 -1.14096e-09 0)
(4.85164e-11 -1.79082e-09 0)
(-9.86915e-12 -2.31194e-09 0)
(-3.68519e-11 -1.42039e-09 0)
(0 0 0)
(-3.31739e-11 -1.21837e-09 0)
(-4.88886e-11 -1.143e-09 0)
(-3.77578e-11 -1.07074e-09 0)
(-2.27579e-11 -1.13256e-09 0)
(9.63531e-12 -1.25567e-09 0)
(0 0 0)
(1.06714e-10 -1.2131e-09 0)
(0 0 0)
(0 0 0)
(-4.79377e-11 -1.16872e-09 0)
(-1.44511e-10 -1.19015e-09 0)
(-1.46007e-10 -1.22929e-09 0)
(-1.27373e-10 -1.31911e-09 0)
(0 0 0)
(-5.53084e-11 -1.23294e-09 0)
(4.02416e-11 -1.14249e-09 0)
(1.19179e-10 -2.776e-09 0)
(0 0 0)
(0 0 0)
(0 0 0)
(0 0 0)
(0 0 0)
(0 0 0)
(0 0 0)
(0 0 0)
(0 0 0)
(0 0 0)
(0 0 0)
(0 0 0)
(0 0 0)
(0 0 0)
(0 0 0)
(0 0 0)
(0 0 0)
(0 0 0)
(0 0 0)
(0 0 0)
(0 0 0)
(0 0 0)
(0 0 0)
(0 0 0)
(0 0 0)
(0 0 0)
(0 0 0)
(0 0 0)
(0 0 0)
(0 0 0)
(0 0 0)
(0 0 0)
(0 0 0)
(0 0 0)
(0 0 0)
(0 0 0)
(0 0 0)
(0 0 0)
(-6.64863e-11 -1.22703e-09 0)
(0 0 0)
(-6.22661e-11 -1.48421e-09 0)
(-9.11346e-11 -1.1206e-09 0)
(-5.05901e-11 -1.2055e-09 0)
(-1.30343e-11 -1.33855e-09 0)
(0 0 0)
(0 0 0)
(7.71963e-11 -1.14435e-09 0)
(-2.08839e-11 -1.24424e-09 0)
(0 0 0)
(8.68596e-11 -1.20542e-09 0)
(1.69807e-14 -1.17578e-09 0)
(0 0 0)
(-9.09509e-11 -1.10784e-09 0)
(-1.37945e-10 -2.55893e-09 0)
(-3.51039e-11 -1.06654e-09 0)
(-1.21842e-10 -1.1843e-09 0)
(-3.96538e-11 -1.24177e-09 0)
(1.47875e-10 -3.23308e-09 0)
(-4.06156e-11 -1.11101e-09 0)
(0 0 0)
(2.30446e-11 -1.04558e-09 0)
(4.24448e-12 -1.14365e-09 0)
(0 0 0)
(1.0969e-10 -1.09247e-09 0)
(7.89428e-11 -1.30365e-09 0)
(-1.55653e-11 -4.46598e-10 0)
(-1.15567e-10 -1.45848e-09 0)
(-6.8276e-11 -1.28588e-09 0)
(0 0 0)
(-6.64113e-11 -1.20314e-09 0)
(0 0 0)
(0 0 0)
(-1.42265e-11 -1.24875e-09 0)
(-3.47749e-11 -1.09788e-09 0)
(-2.4655e-11 -1.1155e-09 0)
(1.01909e-10 -1.17337e-09 0)
(5.43524e-11 -1.07541e-09 0)
(0 0 0)
(0 0 0)
(0 0 0)
(0 0 0)
(0 0 0)
(0 0 0)
(0 0 0)
(0 0 0)
(0 0 0)
(0 0 0)
(0 0 0)
(0 0 0)
(0 0 0)
(0 0 0)
(0 0 0)
(0 0 0)
(0 0 0)
(0 0 0)
(0 0 0)
(0 0 0)
(0 0 0)
(0 0 0)
(0 0 0)
(0 0 0)
(0 0 0)
(0 0 0)
(0 0 0)
(0 0 0)
(0 0 0)
(0 0 0)
(0 0 0)
(0 0 0)
(0 0 0)
(0 0 0)
(0 0 0)
(0 0 0)
(-3.09965e-12 -4.62732e-10 0)
(-2.01019e-12 -3.49932e-10 0)
(0 0 0)
(-4.30669e-11 -1.25175e-09 0)
(-5.78599e-11 -2.18157e-09 0)
(-2.67598e-11 -1.08371e-09 0)
(0 0 0)
(2.14965e-11 -1.19787e-09 0)
(2.85329e-11 -1.20769e-09 0)
(-1.61332e-11 -1.06762e-09 0)
(4.10334e-11 -1.09263e-09 0)
(-2.08272e-11 -1.2387e-09 0)
(0 0 0)
(-1.35453e-11 -1.15842e-09 0)
(0 0 0)
(-7.64679e-11 -1.16474e-09 0)
(-6.78177e-11 -1.3579e-09 0)
(0 0 0)
(-5.68612e-11 -1.36234e-09 0)
(2.4867e-11 -2.2262e-09 0)
(1.91699e-10 -3.07623e-09 0)
(8.0436e-11 -1.07483e-09 0)
(6.80356e-11 -1.07769e-09 0)
(4.17279e-11 -1.02204e-09 0)
(5.11468e-11 -9.51459e-10 0)
(3.91325e-11 -1.20975e-09 0)
(6.77753e-12 -1.57819e-09 0)
(0 0 0)
(-7.88681e-11 -8.95329e-10 0)
(0 0 0)
(-1.41148e-11 -1.16286e-09 0)
(-5.72229e-11 -1.17743e-09 0)
(0 0 0)
(2.50194e-12 -2.79598e-09 0)
(0 0 0)
(-1.55921e-12 -6.05544e-11 0)
(-7.13524e-11 -2.39058e-09 0)
(4.49385e-11 -1.0816e-09 0)
(-2.61911e-11 -1.0934e-09 0)
(1.95784e-12 -1.00684e-09 0)
(0 0 0)
(0 0 0)
(0 0 0)
(0 0 0)
(0 0 0)
(0 0 0)
(0 0 0)
(0 0 0)
(0 0 0)
(0 0 0)
(0 0 0)
(0 0 0)
(0 0 0)
(0 0 0)
(0 0 0)
(0 0 0)
(0 0 0)
(0 0 0)
(0 0 0)
(0 0 0)
(0 0 0)
(0 0 0)
(0 0 0)
(0 0 0)
(0 0 0)
(0 0 0)
(0 0 0)
(0 0 0)
(0 0 0)
(0 0 0)
(0 0 0)
(0 0 0)
(0 0 0)
(0 0 0)
(0 0 0)
(-6.82375e-11 -9.91459e-10 0)
(-7.20841e-11 -2.6538e-09 0)
(-1.85638e-11 -1.04531e-09 0)
(1.08883e-11 -3.66871e-09 0)
(1.12845e-11 -1.24022e-09 0)
(3.67941e-11 -1.13905e-09 0)
(2.68127e-11 -1.15182e-09 0)
(8.14146e-11 -1.26484e-09 0)
(2.89572e-11 -1.2092e-09 0)
(5.30275e-11 -1.07997e-09 0)
(6.51488e-11 -2.60048e-09 0)
(0 0 0)
(-1.34635e-11 -1.25108e-09 0)
(-2.21493e-11 -1.11007e-09 0)
(0 0 0)
(-6.0994e-11 -1.15312e-09 0)
(-5.48593e-11 -1.22092e-09 0)
(-5.91462e-12 -1.26672e-09 0)
(-2.35061e-11 -1.25605e-09 0)
(-3.54839e-11 -1.23176e-09 0)
(-1.06977e-11 -1.23688e-09 0)
(8.98348e-11 -1.22564e-09 0)
(7.17184e-11 -1.14062e-09 0)
(7.32232e-11 -2.58679e-09 0)
(3.6356e-11 -1.00646e-09 0)
(1.81505e-11 -1.07037e-09 0)
(5.83682e-11 -1.51486e-09 0)
(0 0 0)
(0 0 0)
(-2.50285e-11 -1.13933e-09 0)
(1.12278e-11 -1.87794e-09 0)
(4.2149e-12 -1.67563e-09 0)
(0 0 0)
(0 0 0)
(-1.18815e-11 -1.14987e-09 0)
(3.06509e-11 -2.59438e-09 0)
(-7.79608e-11 -1.08181e-09 0)
(-8.90892e-11 -1.09826e-09 0)
(-5.70774e-11 -1.0544e-09 0)
(0 0 0)
(0 0 0)
(0 0 0)
(0 0 0)
(0 0 0)
(0 0 0)
(0 0 0)
(0 0 0)
(0 0 0)
(0 0 0)
(0 0 0)
(0 0 0)
(0 0 0)
(0 0 0)
(0 0 0)
(0 0 0)
(0 0 0)
(0 0 0)
(0 0 0)
(0 0 0)
(0 0 0)
(0 0 0)
(0 0 0)
(0 0 0)
(0 0 0)
(0 0 0)
(0 0 0)
(0 0 0)
(0 0 0)
(0 0 0)
(0 0 0)
(0 0 0)
(0 0 0)
(0 0 0)
(0 0 0)
(0 0 0)
(-7.09848e-12 -1.24077e-09 0)
(1.18347e-12 -1.35448e-09 0)
(0 0 0)
(0 0 0)
(1.96836e-11 -1.20799e-09 0)
(6.86051e-11 -1.20336e-09 0)
(8.74855e-11 -2.3005e-09 0)
(2.27544e-12 -1.09755e-09 0)
(4.32511e-11 -2.52463e-09 0)
(4.15342e-11 -1.00504e-09 0)
(-2.65205e-11 -1.15505e-09 0)
(-2.69792e-11 -3.15545e-09 0)
(2.18689e-11 -1.10995e-09 0)
(-8.02509e-12 -2.40161e-09 0)
(-1.92903e-11 -1.13425e-09 0)
(0 0 0)
(-2.15074e-11 -1.12919e-09 0)
(-2.99423e-12 -1.21105e-09 0)
(-3.25229e-11 -1.23746e-09 0)
(-4.84141e-11 -1.23289e-09 0)
(-6.04013e-11 -1.24543e-09 0)
(1.3729e-11 -1.20991e-09 0)
(4.70965e-11 -1.17652e-09 0)
(3.16838e-11 -1.1422e-09 0)
(2.99957e-11 -1.12971e-09 0)
(2.92517e-11 -1.06473e-09 0)
(-4.43833e-11 -1.14995e-09 0)
(6.51926e-11 -1.34534e-09 0)
(2.52037e-11 -1.21877e-09 0)
(0 0 0)
(2.95466e-11 -1.10835e-09 0)
(-2.55346e-12 -1.14363e-09 0)
(3.47218e-11 -1.15225e-09 0)
(-1.23937e-11 -1.22193e-09 0)
(0 0 0)
(-4.69931e-11 -1.15814e-09 0)
(-4.80186e-11 -1.11705e-09 0)
(0 0 0)
(0 0 0)
(0 0 0)
(0 0 0)
(0 0 0)
(0 0 0)
(0 0 0)
(0 0 0)
(0 0 0)
(0 0 0)
(0 0 0)
(0 0 0)
(0 0 0)
(0 0 0)
(0 0 0)
(0 0 0)
(0 0 0)
(0 0 0)
(0 0 0)
(0 0 0)
(0 0 0)
(0 0 0)
(0 0 0)
(0 0 0)
(0 0 0)
(0 0 0)
(0 0 0)
(0 0 0)
(0 0 0)
(0 0 0)
(0 0 0)
(0 0 0)
(0 0 0)
(0 0 0)
(0 0 0)
(0 0 0)
(0 0 0)
(0 0 0)
(-1.96121e-11 -1.20132e-09 0)
(1.12666e-12 -1.15373e-09 0)
(1.96386e-12 -1.16509e-09 0)
(1.59384e-11 -2.359e-09 0)
(-2.52057e-11 -1.13137e-09 0)
(-3.6698e-11 -2.88526e-09 0)
(-1.34255e-11 -1.15445e-09 0)
(-2.65614e-11 -1.12593e-09 0)
(0 0 0)
(-2.72328e-11 -1.20758e-09 0)
(-4.70779e-11 -1.16738e-09 0)
(-1.41349e-10 -2.66161e-09 0)
(-7.04973e-11 -2.60016e-09 0)
(-3.18458e-11 -1.11882e-09 0)
(-2.09685e-11 -1.04894e-09 0)
(9.12392e-12 -1.08682e-09 0)
(2.04233e-11 -1.15812e-09 0)
(3.06534e-11 -1.19988e-09 0)
(-4.09095e-11 -1.20979e-09 0)
(-2.76103e-11 -1.24494e-09 0)
(-2.54963e-11 -1.2122e-09 0)
(5.04566e-12 -1.16341e-09 0)
(8.34781e-12 -1.19465e-09 0)
(6.39844e-13 -1.21313e-09 0)
(0 0 0)
(-7.85366e-11 -2.72009e-09 0)
(7.04768e-12 -1.16501e-09 0)
(7.20569e-11 -1.14034e-09 0)
(1.62428e-12 -1.13257e-09 0)
(1.91577e-10 -2.57427e-09 0)
(0 0 0)
(0 0 0)
(8.7504e-11 -1.09637e-09 0)
(-2.07888e-11 -1.17307e-09 0)
(-3.25042e-11 -1.85498e-09 0)
(-6.11863e-11 -1.83661e-09 0)
(-6.31156e-11 -1.0954e-09 0)
(-7.04537e-11 -2.46634e-09 0)
(0 0 0)
(0 0 0)
(0 0 0)
(0 0 0)
(0 0 0)
(0 0 0)
(0 0 0)
(0 0 0)
(0 0 0)
(0 0 0)
(0 0 0)
(0 0 0)
(0 0 0)
(0 0 0)
(0 0 0)
(0 0 0)
(0 0 0)
(0 0 0)
(0 0 0)
(0 0 0)
(0 0 0)
(0 0 0)
(0 0 0)
(0 0 0)
(0 0 0)
(0 0 0)
(0 0 0)
(0 0 0)
(0 0 0)
(0 0 0)
(0 0 0)
(0 0 0)
(0 0 0)
(0 0 0)
(0 0 0)
(0 0 0)
(0 0 0)
(-1.67791e-12 -1.10815e-09 0)
(-5.32494e-11 -1.16111e-09 0)
(-1.52869e-11 -1.07087e-09 0)
(1.05499e-11 -1.10565e-09 0)
(-3.0873e-11 -1.18803e-09 0)
(-3.2618e-11 -1.23769e-09 0)
(3.76129e-11 -1.21963e-09 0)
(0 0 0)
(-1.16431e-11 -1.17228e-09 0)
(-4.95229e-11 -2.52736e-09 0)
(-6.607e-11 -1.0758e-09 0)
(-5.11126e-11 -1.14849e-09 0)
(-6.93166e-11 -2.72118e-09 0)
(-4.67528e-11 -1.07201e-09 0)
(9.89455e-12 -1.09498e-09 0)
(1.04863e-11 -1.12431e-09 0)
(5.04191e-12 -1.15052e-09 0)
(-2.94044e-11 -2.85784e-09 0)
(-3.69217e-11 -1.11992e-09 0)
(-1.75128e-11 -1.27703e-09 0)
(0 0 0)
(3.69535e-11 -1.16742e-09 0)
(5.49231e-11 -1.15177e-09 0)
(8.2703e-11 -1.16392e-09 0)
(4.92411e-11 -1.18361e-09 0)
(-1.21924e-11 -1.16998e-09 0)
(2.07701e-11 -1.20476e-09 0)
(-6.26442e-12 -1.16898e-09 0)
(4.4749e-12 -1.19239e-09 0)
(0 0 0)
(1.20607e-10 -1.16029e-09 0)
(2.44837e-11 -2.38531e-09 0)
(3.75346e-11 -2.51433e-09 0)
(-7.58581e-11 -9.86499e-10 0)
(-3.35753e-12 -1.06062e-09 0)
(-8.85196e-11 -1.10452e-09 0)
(-7.63975e-11 -1.16876e-09 0)
(0 0 0)
(0 0 0)
(0 0 0)
(0 0 0)
(0 0 0)
(0 0 0)
(0 0 0)
(0 0 0)
(0 0 0)
(0 0 0)
(0 0 0)
(0 0 0)
(0 0 0)
(0 0 0)
(0 0 0)
(0 0 0)
(0 0 0)
(0 0 0)
(0 0 0)
(0 0 0)
(0 0 0)
(0 0 0)
(0 0 0)
(0 0 0)
(0 0 0)
(0 0 0)
(0 0 0)
(0 0 0)
(0 0 0)
(0 0 0)
(0 0 0)
(0 0 0)
(0 0 0)
(0 0 0)
(0 0 0)
(0 0 0)
(0 0 0)
(0 0 0)
(-5.3505e-12 -1.15719e-09 0)
(-1.41893e-12 -1.11899e-09 0)
(1.54539e-11 -1.13115e-09 0)
(3.20887e-11 -1.1467e-09 0)
(0 0 0)
(1.54607e-12 -1.07692e-09 0)
(0 0 0)
(2.77638e-11 -1.15546e-09 0)
(-2.55788e-11 -1.28476e-09 0)
(0 0 0)
(-4.21439e-11 -1.19483e-09 0)
(-1.33932e-10 -1.21559e-09 0)
(0 0 0)
(-8.43731e-11 -1.55316e-09 0)
(-1.07941e-10 -2.01244e-09 0)
(-3.98757e-11 -1.07207e-09 0)
(-8.25579e-11 -2.41748e-09 0)
(8.4822e-11 -2.49928e-09 0)
(-8.54201e-11 -2.65976e-09 0)
(0 0 0)
(3.34859e-11 -1.03339e-09 0)
(7.53507e-11 -1.12769e-09 0)
(5.88954e-11 -1.04896e-09 0)
(4.75265e-11 -1.17773e-09 0)
(4.24031e-11 -1.26381e-09 0)
(-2.20521e-12 -1.51106e-10 0)
(-2.70498e-11 -2.35153e-09 0)
(-3.40083e-11 -1.10341e-09 0)
(-2.31248e-11 -1.11518e-09 0)
(3.77413e-11 -2.47041e-09 0)
(1.02092e-10 -2.54833e-09 0)
(-4.14917e-11 -9.28771e-10 0)
(5.21219e-11 -2.40333e-09 0)
(-4.59381e-11 -1.05686e-09 0)
(0 0 0)
(0 0 0)
(0 0 0)
(0 0 0)
(0 0 0)
(0 0 0)
(0 0 0)
(0 0 0)
(0 0 0)
(0 0 0)
(0 0 0)
(0 0 0)
(0 0 0)
(0 0 0)
(0 0 0)
(0 0 0)
(0 0 0)
(0 0 0)
(0 0 0)
(0 0 0)
(0 0 0)
(0 0 0)
(0 0 0)
(0 0 0)
(0 0 0)
(0 0 0)
(0 0 0)
(0 0 0)
(0 0 0)
(0 0 0)
(0 0 0)
(0 0 0)
(0 0 0)
(0 0 0)
(0 0 0)
(0 0 0)
(0 0 0)
(0 0 0)
(0 0 0)
(0 0 0)
(0 0 0)
(1.10724e-12 -1.15194e-09 0)
(1.50259e-11 -1.09198e-09 0)
(-1.47674e-11 -1.16235e-09 0)
(1.70925e-11 -1.16441e-09 0)
(0 0 0)
(8.90931e-11 -2.50815e-09 0)
(1.98749e-11 -1.23087e-09 0)
(6.63703e-11 -1.16563e-09 0)
(-4.85291e-12 -1.18235e-09 0)
(0 0 0)
(2.51706e-11 -1.2857e-09 0)
(0 0 0)
(-7.60731e-11 -1.23657e-09 0)
(-6.82021e-11 -1.09639e-09 0)
(-8.41643e-11 -1.09613e-09 0)
(-1.88794e-10 -2.46415e-09 0)
(-7.92439e-11 -1.02961e-09 0)
(-7.20337e-11 -2.80981e-09 0)
(-2.53527e-11 -1.06802e-09 0)
(6.92007e-11 -2.47573e-09 0)
(1.45453e-11 -1.07094e-09 0)
(1.10794e-10 -2.07958e-09 0)
(7.11504e-11 -1.36726e-09 0)
(5.01911e-11 -1.16263e-09 0)
(1.8291e-11 -1.45676e-09 0)
(-9.69533e-13 -1.33413e-10 0)
(-1.01901e-11 -1.01203e-09 0)
(3.93208e-12 -1.06559e-09 0)
(-3.94859e-12 -1.14345e-09 0)
(1.16939e-11 -1.11228e-09 0)
(-1.01305e-10 -2.38507e-09 0)
(-2.96476e-11 -2.27233e-09 0)
(5.6626e-11 -2.41993e-09 0)
(1.17769e-11 -1.08094e-09 0)
(-3.38171e-11 -1.06857e-09 0)
(0 0 0)
(0 0 0)
(0 0 0)
(0 0 0)
(0 0 0)
(0 0 0)
(0 0 0)
(0 0 0)
(0 0 0)
(0 0 0)
(0 0 0)
(0 0 0)
(0 0 0)
(0 0 0)
(0 0 0)
(0 0 0)
(0 0 0)
(0 0 0)
(0 0 0)
(0 0 0)
(0 0 0)
(0 0 0)
(0 0 0)
(0 0 0)
(0 0 0)
(0 0 0)
(0 0 0)
(0 0 0)
(0 0 0)
(0 0 0)
(0 0 0)
(0 0 0)
(0 0 0)
(0 0 0)
(0 0 0)
(0 0 0)
(0 0 0)
(0 0 0)
(0 0 0)
(0 0 0)
(1.07319e-11 -3.92705e-10 0)
(9.7923e-12 -3.33911e-10 0)
(2.98483e-11 -1.16308e-09 0)
(5.70766e-11 -1.20407e-09 0)
(0 0 0)
(0 0 0)
(1.81781e-11 -5.07037e-10 0)
(-2.75857e-11 -1.91361e-09 0)
(-5.15538e-11 -1.038e-09 0)
(-6.862e-11 -1.07174e-09 0)
(-2.50777e-11 -1.44603e-09 0)
(0 0 0)
(-1.09113e-10 -2.66801e-09 0)
(-5.07645e-11 -9.95125e-10 0)
(-6.39553e-11 -1.13007e-09 0)
(0 0 0)
(-2.79682e-11 -1.06364e-09 0)
(-7.58578e-11 -1.29443e-09 0)
(0 0 0)
(1.63439e-11 -1.21901e-09 0)
(0 0 0)
(5.34433e-11 -1.12445e-09 0)
(1.58234e-10 -2.37541e-09 0)
(2.16222e-10 -2.41464e-09 0)
(3.26239e-14 -1.17081e-09 0)
(2.68843e-13 -1.29817e-09 0)
(0 0 0)
(5.42829e-12 -1.16856e-09 0)
(-1.52082e-11 -1.06891e-09 0)
(-1.09761e-10 -2.65255e-09 0)
(-5.31979e-12 -9.87082e-10 0)
(-2.20866e-11 -1.48772e-09 0)
(-4.51936e-11 -1.93171e-09 0)
(-1.47802e-11 -1.15061e-09 0)
(-3.30824e-11 -1.12132e-09 0)
(2.50002e-12 -1.13512e-09 0)
(0 0 0)
(0 0 0)
(0 0 0)
(0 0 0)
(0 0 0)
(0 0 0)
(0 0 0)
(0 0 0)
(0 0 0)
(0 0 0)
(0 0 0)
(0 0 0)
(0 0 0)
(0 0 0)
(0 0 0)
(0 0 0)
(0 0 0)
(0 0 0)
(0 0 0)
(0 0 0)
(0 0 0)
(0 0 0)
(0 0 0)
(0 0 0)
(0 0 0)
(0 0 0)
(0 0 0)
(0 0 0)
(0 0 0)
(0 0 0)
(0 0 0)
(0 0 0)
(0 0 0)
(0 0 0)
(0 0 0)
(0 0 0)
(0 0 0)
(0 0 0)
(0 0 0)
(4.73979e-11 -2.33258e-09 0)
(4.04576e-11 -1.08473e-09 0)
(5.90139e-11 -1.15757e-09 0)
(8.19047e-11 -1.18916e-09 0)
(8.49187e-11 -1.1206e-09 0)
(1.07232e-10 -1.20052e-09 0)
(9.34296e-11 -3.06724e-09 0)
(2.82315e-11 -1.2069e-09 0)
(-3.51847e-11 -1.09659e-09 0)
(0 0 0)
(-4.77017e-11 -1.19578e-09 0)
(0 0 0)
(2.71986e-11 -1.18925e-09 0)
(0 0 0)
(-6.22559e-11 -1.09885e-09 0)
(-4.08719e-11 -1.20734e-09 0)
(0 0 0)
(-6.9699e-11 -1.21585e-09 0)
(0 0 0)
(0 0 0)
(3.24536e-11 -2.54525e-09 0)
(-3.59523e-11 -2.34691e-09 0)
(-4.39446e-11 -2.26229e-09 0)
(-2.20666e-10 -2.33311e-09 0)
(-1.69446e-10 -2.95494e-09 0)
(1.25551e-12 -2.06922e-10 0)
(4.4555e-12 -8.82474e-10 0)
(3.10303e-12 -1.16357e-09 0)
(4.31863e-12 -2.29105e-09 0)
(-9.6119e-11 -1.03804e-09 0)
(-2.48681e-11 -1.03462e-09 0)
(-3.48478e-12 -1.16244e-09 0)
(-2.43113e-11 -1.22517e-09 0)
(-4.91915e-11 -1.26395e-09 0)
(-6.15369e-11 -1.18306e-09 0)
(0 0 0)
(0 0 0)
(0 0 0)
(0 0 0)
(0 0 0)
(0 0 0)
(0 0 0)
(0 0 0)
(0 0 0)
(0 0 0)
(0 0 0)
(0 0 0)
(0 0 0)
(0 0 0)
(0 0 0)
(0 0 0)
(0 0 0)
(0 0 0)
(0 0 0)
(0 0 0)
(0 0 0)
(0 0 0)
(0 0 0)
(0 0 0)
(0 0 0)
(0 0 0)
(0 0 0)
(0 0 0)
(0 0 0)
(0 0 0)
(0 0 0)
(0 0 0)
(0 0 0)
(0 0 0)
(0 0 0)
(0 0 0)
(0 0 0)
(0 0 0)
(0 0 0)
(0 0 0)
(7.21334e-11 -1.11066e-09 0)
(1.10903e-10 -1.1996e-09 0)
(6.99695e-11 -1.18359e-09 0)
(6.06063e-11 -1.16964e-09 0)
(5.33463e-11 -1.14926e-09 0)
(-2.303e-12 -1.14373e-09 0)
(-3.89749e-11 -1.28279e-09 0)
(7.77635e-11 -1.38178e-09 0)
(0 0 0)
(1.13587e-10 -1.11325e-09 0)
(-3.54298e-11 -1.26575e-09 0)
(6.89493e-12 -1.04325e-09 0)
(3.71736e-11 -1.12705e-09 0)
(0 0 0)
(-5.9562e-11 -1.17234e-09 0)
(-6.93911e-11 -1.21024e-09 0)
(-5.43996e-11 -1.19143e-09 0)
(-2.2137e-11 -1.23058e-09 0)
(0 0 0)
(-1.43525e-11 -1.19795e-09 0)
(-5.40052e-11 -2.36739e-09 0)
(-1.12004e-10 -2.17784e-09 0)
(-1.33794e-10 -2.38353e-09 0)
(-6.48634e-11 -1.08063e-09 0)
(-8.79927e-11 -1.16789e-09 0)
(5.10366e-11 -1.22894e-09 0)
(2.2058e-11 -1.15191e-09 0)
(2.97336e-11 -1.07859e-09 0)
(-5.5443e-11 -1.00722e-09 0)
(0 0 0)
(-9.63297e-11 -1.06354e-09 0)
(-6.03817e-11 -1.08873e-09 0)
(-9.40363e-11 -3.11717e-09 0)
(-3.27202e-11 -1.24358e-09 0)
(0 0 0)
(-2.57137e-11 -7.5145e-10 0)
(1.507e-10 -1.03813e-09 0)
(1.46611e-10 -1.09826e-09 0)
(0 0 0)
(0 0 0)
(0 0 0)
(0 0 0)
(0 0 0)
(0 0 0)
(0 0 0)
(0 0 0)
(0 0 0)
(0 0 0)
(0 0 0)
(0 0 0)
(0 0 0)
(0 0 0)
(0 0 0)
(0 0 0)
(0 0 0)
(0 0 0)
(0 0 0)
(0 0 0)
(0 0 0)
(0 0 0)
(0 0 0)
(0 0 0)
(0 0 0)
(0 0 0)
(0 0 0)
(0 0 0)
(0 0 0)
(0 0 0)
(0 0 0)
(0 0 0)
(0 0 0)
(0 0 0)
(0 0 0)
(0 0 0)
(0 0 0)
(5.87239e-11 -1.10188e-09 0)
(1.12019e-10 -2.62293e-09 0)
(4.83367e-11 -1.20099e-09 0)
(6.5806e-11 -1.21439e-09 0)
(6.4295e-11 -1.2073e-09 0)
(-5.26246e-11 -1.20454e-09 0)
(-4.73242e-11 -1.30235e-09 0)
(0 0 0)
(1.3851e-10 -1.18319e-09 0)
(1.30386e-10 -2.66237e-09 0)
(0 0 0)
(3.31206e-11 -1.03936e-09 0)
(5.60598e-11 -1.14897e-09 0)
(-3.19209e-11 -2.0113e-09 0)
(-1.09502e-11 -3.96344e-10 0)
(-2.33776e-11 -1.25046e-09 0)
(0 0 0)
(-1.93746e-11 -1.17892e-09 0)
(-1.10258e-10 -2.01884e-09 0)
(-9.9584e-11 -1.41326e-09 0)
(-8.53867e-11 -2.0237e-09 0)
(-9.84956e-11 -1.4409e-09 0)
(-8.94285e-11 -1.09993e-09 0)
(-6.32329e-11 -1.10947e-09 0)
(-5.19878e-11 -1.13148e-09 0)
(1.18572e-12 -1.19667e-09 0)
(-5.97964e-12 -2.59336e-09 0)
(2.72101e-11 -2.38362e-09 0)
(6.26933e-13 -5.59472e-10 0)
(7.06246e-14 -7.19379e-11 0)
(-2.00263e-11 -9.84369e-10 0)
(-3.76572e-11 -1.0315e-09 0)
(-2.08679e-12 -1.75649e-10 0)
(-8.4799e-12 -9.54556e-10 0)
(0 0 0)
(6.5212e-11 -1.18783e-09 0)
(1.15715e-10 -2.57222e-09 0)
(5.85027e-12 -1.11215e-09 0)
(0 0 0)
(0 0 0)
(0 0 0)
(0 0 0)
(0 0 0)
(0 0 0)
(0 0 0)
(0 0 0)
(0 0 0)
(0 0 0)
(0 0 0)
(0 0 0)
(0 0 0)
(0 0 0)
(0 0 0)
(0 0 0)
(0 0 0)
(0 0 0)
(0 0 0)
(0 0 0)
(0 0 0)
(0 0 0)
(0 0 0)
(0 0 0)
(0 0 0)
(0 0 0)
(0 0 0)
(0 0 0)
(0 0 0)
(0 0 0)
(0 0 0)
(0 0 0)
(0 0 0)
(0 0 0)
(0 0 0)
(0 0 0)
(0 0 0)
(4.2427e-11 -9.75692e-10 0)
(0 0 0)
(0 0 0)
(1.04184e-11 -1.12108e-09 0)
(-9.12903e-11 -3.3089e-09 0)
(-1.17678e-11 -4.68042e-10 0)
(-1.16313e-11 -4.17098e-10 0)
(-1.19506e-11 -1.18524e-09 0)
(5.88216e-11 -2.46069e-09 0)
(-4.24281e-11 -1.33991e-09 0)
(9.50659e-12 -1.04046e-09 0)
(-9.63868e-12 -9.89116e-10 0)
(-1.04405e-11 -2.80218e-09 0)
(2.70671e-11 -1.15151e-09 0)
(1.32092e-11 -1.06109e-09 0)
(-3.57299e-11 -1.09125e-09 0)
(0 0 0)
(-5.16942e-11 -2.55642e-09 0)
(-5.17217e-11 -1.13476e-09 0)
(-6.47764e-11 -1.15671e-09 0)
(-5.85576e-11 -1.2136e-09 0)
(-3.4882e-11 -1.23633e-09 0)
(0 0 0)
(-5.0604e-11 -1.15994e-09 0)
(-4.8424e-11 -1.22437e-09 0)
(0 0 0)
(-7.67197e-12 -1.17147e-09 0)
(-6.05718e-12 -1.14753e-09 0)
(1.48983e-11 -1.24747e-09 0)
(0 0 0)
(1.36191e-11 -1.17368e-09 0)
(2.528e-12 -1.21748e-09 0)
(0 0 0)
(0 0 0)
(5.34504e-11 -1.2316e-09 0)
(4.30676e-11 -1.28882e-09 0)
(-2.77901e-11 -1.11591e-09 0)
(0 0 0)
(7.1381e-11 -1.11216e-09 0)
(0 0 0)
(0 0 0)
(0 0 0)
(0 0 0)
(0 0 0)
(0 0 0)
(0 0 0)
(0 0 0)
(0 0 0)
(0 0 0)
(0 0 0)
(0 0 0)
(0 0 0)
(0 0 0)
(0 0 0)
(0 0 0)
(0 0 0)
(0 0 0)
(0 0 0)
(0 0 0)
(0 0 0)
(0 0 0)
(0 0 0)
(0 0 0)
(0 0 0)
(0 0 0)
(0 0 0)
(0 0 0)
(0 0 0)
(0 0 0)
(0 0 0)
(0 0 0)
(0 0 0)
(0 0 0)
(0 0 0)
(0 0 0)
(3.10292e-11 -1.11746e-09 0)
(9.25106e-11 -1.08529e-09 0)
(1.6379e-10 -2.80102e-09 0)
(-5.78587e-11 -1.26373e-09 0)
(0 0 0)
(6.30056e-11 -1.26359e-09 0)
(5.7288e-11 -1.21675e-09 0)
(-6.1278e-11 -2.53778e-09 0)
(-4.29602e-11 -1.10732e-09 0)
(-1.4411e-10 -1.64618e-09 0)
(-1.65457e-10 -2.05099e-09 0)
(-5.93104e-11 -2.36546e-09 0)
(-6.07601e-11 -1.07652e-09 0)
(0 0 0)
(5.40055e-11 -1.12412e-09 0)
(0 0 0)
(1.05709e-11 -1.14518e-09 0)
(0 0 0)
(2.33359e-11 -1.18833e-09 0)
(8.14168e-12 -1.21317e-09 0)
(0 0 0)
(-4.33309e-11 -1.23003e-09 0)
(-5.47951e-12 -2.5766e-10 0)
(-1.59894e-11 -7.00985e-10 0)
(0 0 0)
(1.27162e-11 -1.22881e-09 0)
(-1.13603e-11 -1.25405e-09 0)
(3.10016e-11 -1.19189e-09 0)
(1.48791e-11 -1.19427e-09 0)
(-9.49591e-13 -4.33381e-10 0)
(-1.10049e-12 -4.27584e-10 0)
(2.12775e-11 -1.215e-09 0)
(6.84587e-12 -1.25635e-09 0)
(1.02942e-11 -1.27579e-09 0)
(5.47786e-12 -5.46453e-10 0)
(3.42433e-11 -1.19369e-09 0)
(2.50396e-11 -1.3632e-09 0)
(3.73829e-12 -1.06218e-09 0)
(-4.71303e-11 -9.65884e-10 0)
(0 0 0)
(0 0 0)
(0 0 0)
(0 0 0)
(0 0 0)
(0 0 0)
(0 0 0)
(0 0 0)
(0 0 0)
(0 0 0)