/*--------------------------------*- C++ -*----------------------------------*\
  =========                 |
  \\      /  F ield         | OpenFOAM: The Open Source CFD Toolbox
   \\    /   O peration     | Website:  https://openfoam.org
    \\  /    A nd           | Version:  12
     \\/     M anipulation  |
\*---------------------------------------------------------------------------*/
FoamFile
{
    format      ascii;
    class       volScalarField::Internal;
    location    "0.8";
    object      cloud:UCoeff;
}
// * * * * * * * * * * * * * * * * * * * * * * * * * * * * * * * * * * * * * //

dimensions      [1 0 0 0 0 0 0];

value           nonuniform List<scalar> 
3750
(
3.28896e-08
8.36513e-08
0
3.44267e-08
3.39444e-08
3.38503e-08
8.08834e-08
3.2947e-08
3.28977e-08
7.91642e-08
3.09752e-08
3.17797e-08
3.32989e-08
3.47985e-08
3.50613e-08
3.44058e-08
3.42252e-08
3.42561e-08
7.92202e-08
3.2723e-08
3.32358e-08
3.5823e-08
3.57795e-08
0
3.51189e-08
3.44384e-08
7.92887e-08
2.99427e-08
3.32726e-08
3.37255e-08
0
3.50884e-08
8.26971e-08
0
3.43456e-08
3.48414e-08
3.41684e-08
3.32869e-08
8.25102e-08
3.50584e-08
8.37649e-08
3.40549e-08
3.36989e-08
3.45675e-08
0
8.03209e-08
3.15776e-08
0
0
0
0
0
0
0
0
0
0
0
0
0
0
0
0
0
0
0
0
0
0
0
0
0
0
0
0
3.42874e-08
3.44314e-08
3.49905e-08
0
0
3.38868e-08
3.37029e-08
3.34927e-08
8.17301e-08
3.26716e-08
1.33444e-07
8.443e-08
2.22865e-08
0
0
0
3.41403e-08
3.45207e-08
8.07312e-08
3.14828e-08
3.39184e-08
8.7264e-08
3.49138e-08
0
0
3.36984e-08
0
1.08923e-07
9.60375e-08
1.35754e-07
0
0
0
3.31762e-08
3.46928e-08
3.43149e-08
3.41457e-08
3.37801e-08
3.30584e-08
8.39693e-08
0
7.84848e-08
0
0
0
0
0
0
0
0
0
0
0
0
0
0
0
0
0
0
0
0
0
0
0
0
0
0
0
0
0
0
0
0
0
3.42893e-08
1.3939e-07
8.22449e-08
0
3.37436e-08
0
0
0
8.5523e-08
3.33449e-08
0
3.15482e-08
2.93388e-08
8.66307e-08
0
3.42855e-08
8.28402e-08
3.37464e-08
8.01313e-08
7.79959e-08
3.59965e-08
7.8452e-08
3.88344e-08
0
3.44481e-08
3.25342e-08
7.71623e-08
3.26712e-08
3.31204e-08
3.39534e-08
3.41597e-08
3.5244e-08
0
8.02936e-08
8.09639e-08
3.25625e-08
8.18859e-08
3.08314e-08
3.27265e-08
0
0
0
0
0
0
0
0
0
0
0
0
0
0
0
0
0
0
0
0
0
0
0
0
0
0
0
0
0
0
0
0
0
0
0
0
0
3.29493e-08
3.30993e-08
3.47244e-08
0
0
3.40741e-08
7.98694e-08
8.07512e-08
3.28472e-08
3.36474e-08
3.24671e-08
5.13307e-08
1.54684e-08
1.4179e-07
3.12746e-08
1.43808e-07
3.31254e-08
3.41966e-08
3.36564e-08
3.29639e-08
3.4044e-08
3.63272e-08
3.67588e-08
0
3.33702e-08
3.28276e-08
3.24454e-08
3.24827e-08
8.30473e-08
3.39837e-08
3.64651e-08
0
3.41763e-08
3.19979e-08
8.01454e-08
3.23844e-08
0
0
0
0
0
0
0
0
0
0
0
0
0
0
0
0
0
0
0
0
0
0
0
0
0
0
0
0
0
0
0
0
0
0
0
0
0
0
3.40351e-08
3.41529e-08
0
3.39391e-08
3.42081e-08
0
3.30383e-08
0
8.26861e-08
3.42953e-08
8.07405e-08
3.20477e-08
5.47349e-08
1.07605e-07
0
3.26821e-08
3.3835e-08
3.49197e-08
3.7025e-08
0
3.46363e-08
3.32269e-08
8.80917e-08
3.79552e-08
3.39582e-08
3.24471e-08
3.24205e-08
7.96075e-08
3.1944e-08
3.27631e-08
0
0
0
0
8.2526e-08
3.28659e-08
3.35968e-08
3.40224e-08
0
0
0
0
0
0
0
0
0
0
0
0
0
0
0
0
0
0
0
0
0
0
0
0
0
0
0
0
0
0
0
0
0
0
0
0
0
0
3.39834e-08
3.35727e-08
3.41995e-08
3.46862e-08
1.07483e-08
5.51084e-08
7.82668e-08
8.55908e-08
3.34286e-08
3.2544e-08
3.31176e-08
3.31156e-08
3.22849e-08
3.25518e-08
3.40454e-08
3.53181e-08
3.47393e-08
0
3.59935e-08
3.50356e-08
3.40438e-08
4.4405e-08
7.52336e-08
3.51269e-08
3.16558e-08
3.19501e-08
3.23846e-08
3.3301e-08
3.34724e-08
3.33662e-08
3.50451e-08
3.43183e-08
3.39519e-08
0
3.44275e-08
3.74715e-08
0
0
0
0
0
0
0
0
0
0
0
0
0
0
0
0
0
0
0
0
0
0
0
0
0
0
0
0
0
0
0
0
0
0
0
0
0
0
3.53759e-08
5.88809e-08
4.96723e-08
3.19263e-08
1.44127e-07
3.26011e-08
7.84963e-08
3.27293e-08
3.48249e-08
0
3.36267e-08
3.43794e-08
3.37715e-08
3.30123e-08
3.30899e-08
3.44122e-08
5.30853e-09
2.40243e-08
3.49538e-08
8.75989e-08
3.39076e-08
3.36003e-08
0
3.37045e-08
3.60594e-08
3.33684e-08
3.26624e-08
3.32841e-08
3.36227e-08
7.93628e-08
3.16923e-08
8.16023e-08
3.40052e-08
3.37121e-08
3.44068e-08
0
3.49634e-08
0
0
0
0
0
0
0
0
0
0
0
0
0
0
0
0
0
0
0
0
0
0
0
0
0
0
0
0
0
0
0
0
0
0
0
0
0
0
8.32501e-08
3.13611e-08
7.6753e-08
1.3646e-07
3.20648e-08
3.24868e-08
3.40166e-08
0
3.33255e-08
3.47444e-08
0
3.51346e-08
3.35885e-08
3.25703e-08
3.37104e-08
3.65952e-08
0
8.26809e-08
3.58031e-08
3.55538e-08
3.46219e-08
0
3.39651e-08
3.44474e-08
3.66156e-08
0
3.43611e-08
3.37658e-08
3.38873e-08
3.37031e-08
3.34138e-08
8.35748e-08
3.16222e-08
8.56321e-08
3.32481e-08
3.27785e-08
3.22196e-08
0
0
0
0
0
0
0
0
0
0
0
0
0
0
0
0
0
0
0
0
0
0
0
0
0
0
0
0
0
0
0
0
0
0
0
0
0
0
3.34304e-08
8.0522e-08
1.52332e-08
7.88946e-08
3.34377e-08
3.62298e-08
0
3.46911e-08
0
3.35846e-08
3.71127e-08
0
3.41868e-08
3.25835e-08
3.23724e-08
3.38085e-08
5.19814e-08
6.44289e-08
3.6763e-08
0
3.46531e-08
3.38307e-08
3.30072e-08
3.37047e-08
3.50499e-08
0
3.46419e-08
0
0
3.41157e-08
3.44364e-08
3.48595e-08
3.57835e-08
0
3.4819e-08
3.38213e-08
8.35727e-08
0
0
0
0
0
0
0
0
0
0
0
0
0
0
0
0
0
0
0
0
0
0
0
0
0
0
0
0
0
0
0
0
0
0
0
0
0
0
3.47613e-08
0
4.54464e-08
3.36095e-08
3.45198e-08
3.59224e-08
0
0
3.38632e-08
3.4929e-08
0
3.45415e-08
3.41827e-08
0
3.34658e-08
8.13184e-08
3.29579e-08
3.43452e-08
3.49074e-08
8.81196e-08
3.34677e-08
0
3.27112e-08
3.38263e-08
0
3.33115e-08
3.55826e-08
1.39528e-08
4.73871e-08
3.53896e-08
0
3.45026e-08
0
0
3.49763e-08
3.33166e-08
3.35132e-08
3.4205e-08
3.30691e-08
0
0
0
0
0
0
0
0
0
0
0
0
0
0
0
0
0
0
0
0
0
0
0
0
0
0
0
0
0
0
0
0
0
0
0
0
1.3177e-08
1.00549e-08
0
3.78958e-08
7.35088e-08
3.31523e-08
0
3.44272e-08
3.45359e-08
3.2965e-08
3.32593e-08
3.48695e-08
0
3.39916e-08
0
3.40886e-08
3.61391e-08
0
4.17845e-08
7.0652e-08
8.66165e-08
3.30811e-08
3.31042e-08
3.24425e-08
3.16047e-08
3.45613e-08
3.83083e-08
0
3.09387e-08
0
3.40409e-08
3.42163e-08
0
8.37538e-08
0
1.94046e-09
7.63183e-08
3.3135e-08
3.32628e-08
3.2253e-08
0
0
0
0
0
0
0
0
0
0
0
0
0
0
0
0
0
0
0
0
0
0
0
0
0
0
0
0
0
0
0
0
0
0
0
3.20982e-08
8.22914e-08
3.27069e-08
1.18094e-07
4.21649e-08
3.37815e-08
3.39209e-08
3.51752e-08
3.45523e-08
3.31206e-08
8.17541e-08
0
3.50012e-08
3.34512e-08
0
3.39498e-08
3.46891e-08
3.51675e-08
3.50559e-08
3.47984e-08
3.48485e-08
3.47624e-08
3.38177e-08
8.15693e-08
3.22563e-08
3.29971e-08
3.77063e-08
0
0
3.37811e-08
5.73078e-08
5.22391e-08
0
0
3.38963e-08
8.16358e-08
3.3159e-08
3.33558e-08
3.28286e-08
0
0
0
0
0
0
0
0
0
0
0
0
0
0
0
0
0
0
0
0
0
0
0
0
0
0
0
0
0
0
0
0
0
0
0
0
3.48901e-08
3.60864e-08
0
0
3.45371e-08
3.45062e-08
7.84689e-08
3.33065e-08
8.09073e-08
3.22419e-08
3.39567e-08
8.73398e-08
3.34497e-08
7.95599e-08
3.37229e-08
0
3.36666e-08
3.45688e-08
3.48588e-08
3.48153e-08
3.49556e-08
3.45571e-08
3.42012e-08
3.38151e-08
3.36747e-08
3.2935e-08
3.39061e-08
3.60083e-08
3.46553e-08
0
3.34337e-08
3.38261e-08
3.3928e-08
3.46873e-08
0
3.39983e-08
3.35393e-08
0
0
0
0
0
0
0
0
0
0
0
0
0
0
0
0
0
0
0
0
0
0
0
0
0
0
0
0
0
0
0
0
0
0
0
0
0
0
3.44645e-08
3.39386e-08
3.40646e-08
7.91018e-08
3.3692e-08
8.46611e-08
3.39475e-08
3.36312e-08
0
3.45344e-08
3.41006e-08
8.23977e-08
8.17078e-08
3.35527e-08
3.27498e-08
3.31846e-08
3.39893e-08
3.44513e-08
3.45625e-08
3.49379e-08
3.45841e-08
3.40461e-08
3.43902e-08
3.45913e-08
0
8.29856e-08
3.4064e-08
3.38148e-08
3.37023e-08
8.15086e-08
0
0
3.33329e-08
3.41549e-08
5.4333e-08
5.74709e-08
3.33029e-08
8.02871e-08
0
0
0
0
0
0
0
0
0
0
0
0
0
0
0
0
0
0
0
0
0
0
0
0
0
0
0
0
0
0
0
0
0
0
0
0
0
3.34269e-08
3.40341e-08
3.30022e-08
3.33992e-08
3.43218e-08
3.48614e-08
3.46681e-08
0
3.41447e-08
8.09341e-08
3.30812e-08
3.3893e-08
8.29992e-08
3.3026e-08
3.32777e-08
3.361e-08
3.3903e-08
8.44007e-08
3.35669e-08
3.5278e-08
0
3.40969e-08
3.39315e-08
3.40842e-08
3.42801e-08
3.41194e-08
3.45022e-08
3.41078e-08
3.43652e-08
0
3.40809e-08
7.939e-08
8.07946e-08
3.20457e-08
3.28827e-08
3.34261e-08
3.41328e-08
0
0
0
0
0
0
0
0
0
0
0
0
0
0
0
0
0
0
0
0
0
0
0
0
0
0
0
0
0
0
0
0
0
0
0
0
0
0
3.39772e-08
3.35495e-08
3.36876e-08
3.38653e-08
0
3.30706e-08
0
3.39615e-08
3.53613e-08
0
3.44e-08
3.46979e-08
0
4.61412e-08
6.55407e-08
3.30234e-08
7.97541e-08
8.06432e-08
8.23602e-08
0
3.25721e-08
3.36758e-08
3.27668e-08
3.42148e-08
3.51439e-08
4.52709e-09
7.21364e-08
3.33792e-08
3.35092e-08
8.03216e-08
8.11764e-08
3.13217e-08
7.95905e-08
3.28508e-08
0
0
0
0
0
0
0
0
0
0
0
0
0
0
0
0
0
0
0
0
0
0
0
0
0
0
0
0
0
0
0
0
0
0
0
0
0
0
0
0
0
3.39187e-08
3.32443e-08
3.40353e-08
3.40586e-08
0
8.07426e-08
3.4785e-08
3.40915e-08
3.42551e-08
0
3.53711e-08
0
3.48699e-08
3.33176e-08
3.33272e-08
8.03295e-08
3.25574e-08
8.3898e-08
3.29716e-08
8.03901e-08
3.3003e-08
6.36656e-08
4.37408e-08
3.40493e-08
3.71233e-08
3.69634e-09
2.82673e-08
3.29403e-08
3.38242e-08
3.34745e-08
7.94068e-08
7.81343e-08
7.9772e-08
3.31175e-08
3.29807e-08
0
0
0
0
0
0
0
0
0
0
0
0
0
0
0
0
0
0
0
0
0
0
0
0
0
0
0
0
0
0
0
0
0
0
0
0
0
0
0
0
1.19255e-08
1.03947e-08
3.40466e-08
3.45075e-08
0
0
1.37978e-08
5.5196e-08
3.26347e-08
3.30365e-08
3.70174e-08
0
8.2446e-08
3.21293e-08
3.36946e-08
0
3.29219e-08
3.5484e-08
0
3.46563e-08
0
3.36253e-08
7.93048e-08
7.98119e-08
3.41279e-08
3.55e-08
0
3.41032e-08
3.29798e-08
8.2284e-08
3.20178e-08
4.74189e-08
6.20125e-08
3.3905e-08
3.35813e-08
3.3731e-08
0
0
0
0
0
0
0
0
0
0
0
0
0
0
0
0
0
0
0
0
0
0
0
0
0
0
0
0
0
0
0
0
0
0
0
0
0
0
0
7.8801e-08
3.31689e-08
3.3998e-08
3.43607e-08
3.36039e-08
3.45063e-08
8.64871e-08
3.45271e-08
3.3302e-08
0
3.44127e-08
0
3.43342e-08
0
3.33414e-08
3.45359e-08
0
3.46425e-08
0
0
8.10481e-08
7.89643e-08
7.80209e-08
7.89184e-08
8.54178e-08
5.71364e-09
2.46232e-08
3.40479e-08
7.83371e-08
3.26722e-08
3.25838e-08
3.40354e-08
3.47243e-08
3.51481e-08
3.42804e-08
0
0
0
0
0
0
0
0
0
0
0
0
0
0
0
0
0
0
0
0
0
0
0
0
0
0
0
0
0
0
0
0
0
0
0
0
0
0
0
0
3.34819e-08
3.44999e-08
3.42914e-08
3.41323e-08
3.39027e-08
3.38273e-08
3.53438e-08
3.63888e-08
0
3.35501e-08
3.51622e-08
3.26814e-08
3.36472e-08
0
3.41615e-08
3.45815e-08
3.43683e-08
3.47823e-08
0
3.4427e-08
7.9195e-08
7.70837e-08
7.94007e-08
3.31355e-08
3.41322e-08
3.4774e-08
3.39207e-08
3.30946e-08
3.22757e-08
0
3.29669e-08
3.32251e-08
8.69807e-08
3.49247e-08
0
2.9028e-08
3.27485e-08
3.34256e-08
0
0
0
0
0
0
0
0
0
0
0
0
0
0
0
0
0
0
0
0
0
0
0
0
0
0
0
0
0
0
0
0
0
0
0
0
0
3.33735e-08
8.19751e-08
3.44698e-08
3.46243e-08
3.45465e-08
3.45104e-08
3.55529e-08
0
3.43531e-08
8.23947e-08
0
3.26418e-08
3.39009e-08
5.75893e-08
1.13956e-08
3.49962e-08
0
3.42191e-08
6.15341e-08
4.6095e-08
6.17014e-08
4.62604e-08
3.33749e-08
3.34624e-08
3.37035e-08
3.44119e-08
8.16277e-08
7.93752e-08
1.66385e-08
2.196e-09
3.19878e-08
3.25518e-08
4.84023e-09
2.63888e-08
0
3.43348e-08
8.14317e-08
3.34724e-08
0
0
0
0
0
0
0
0
0
0
0
0
0
0
0
0
0
0
0
0
0
0
0
0
0
0
0
0
0
0
0
0
0
0
0
0
0
3.18923e-08
0
0
3.35736e-08
8.88088e-08
1.28595e-08
1.16747e-08
3.42875e-08
8.02373e-08
3.59428e-08
3.26488e-08
3.20426e-08
8.3815e-08
3.39175e-08
3.28892e-08
3.32415e-08
0
8.12293e-08
3.37401e-08
3.39919e-08
3.46118e-08
3.48474e-08
0
3.40198e-08
3.47235e-08
0
3.41355e-08
3.38697e-08
3.49627e-08
0
3.41604e-08
3.46385e-08
0
0
3.48036e-08
3.54092e-08
3.35187e-08
0
3.34983e-08
0
0
0
0
0
0
0
0
0
0
0
0
0
0
0
0
0
0
0
0
0
0
0
0
0
0
0
0
0
0
0
0
0
0
0
0
3.35371e-08
3.32118e-08
8.38512e-08
3.51497e-08
0
3.51509e-08
3.46452e-08
8.1053e-08
3.3427e-08
4.81661e-08
6.48027e-08
7.91685e-08
3.30857e-08
0
3.3622e-08
0
3.3844e-08
0
3.43232e-08
3.4592e-08
0
3.47825e-08
7.41393e-09
2.04109e-08
0
3.47618e-08
3.50327e-08
3.43641e-08
3.43868e-08
1.21832e-08
1.22204e-08
3.46136e-08
3.5057e-08
3.52641e-08
1.54588e-08
3.57892e-08
4.44414e-08
3.29009e-08
3.17767e-08
0
0
0
0
0
0
0
0
0
0
0
0
0
0
0
0
0
0
0
0
0
0
0
0
0
0
0
0
0
0
0
0
0
0
0
0
3.13964e-08
3.22025e-08
1.44974e-07
3.37887e-08
3.39639e-08
3.71225e-08
7.94511e-08
7.98445e-08
7.91758e-08
0
3.48812e-08
3.21831e-08
3.38856e-08
0
8.05545e-08
3.30455e-08
0
3.36943e-08
0
3.35439e-08
3.61743e-08
0
3.47905e-08
0
3.43558e-08
3.45867e-08
3.47976e-08
5.1221e-09
2.46618e-08
3.46843e-08
3.41716e-08
3.44029e-08
3.41256e-08
3.4494e-08
3.40355e-08
3.43284e-08
3.38358e-08
6.03593e-08
7.8052e-09
0
0
0
0
0
0
0
0
0
0
0
0
0
0
0
0
0
0
0
0
0
0
0
0
0
0
0
0
0
0
0
0
0
0
0
0
3.04598e-08
7.97755e-08
4.03771e-08
7.28738e-08
7.96468e-08
1.45896e-07
3.26547e-08
3.17013e-08
0
3.46757e-08
0
1.29666e-08
9.78479e-09
2.52615e-09
7.29634e-08
3.29882e-08
8.05545e-08
3.17913e-08
8.10728e-08
0
8.62303e-08
0
3.3559e-08
3.49102e-08
0
3.46118e-08
3.34664e-08
0
3.44439e-08
3.39894e-08
8.19724e-08
3.43286e-08
3.47777e-08
3.40947e-08
3.37024e-08
3.37103e-08
3.71929e-08
3.02833e-08
0
0
0
0
0
0
0
0
0
0
0
0
0
0
0
0
0
0
0
0
0
0
0
0
0
0
0
0
0
0
0
0
0
0
0
0
0
3.3356e-08
0
0
3.33184e-08
8.40701e-08
8.34472e-08
7.90972e-08
3.18116e-08
3.44114e-08
0
0
3.41852e-08
3.17112e-08
7.90851e-08
3.3079e-08
3.42632e-08
3.80281e-08
3.19656e-08
3.40665e-08
3.39225e-08
0
3.49954e-08
3.41571e-08
3.3406e-08
3.32341e-08
3.25099e-08
3.1835e-08
3.24968e-08
8.12926e-08
3.34111e-08
3.34667e-08
8.69157e-08
1.0017e-08
1.53783e-08
3.3494e-08
3.41562e-08
0
0
0
0
0
0
0
0
0
0
0
0
0
0
0
0
0
0
0
0
0
0
0
0
0
0
0
0
0
0
0
0
0
0
0
0
0
0
0
3.32685e-08
7.93201e-08
3.34267e-08
3.40867e-08
3.50531e-08
3.53352e-08
3.4524e-08
3.39248e-08
3.31839e-08
8.22558e-08
8.07485e-08
7.81022e-08
0
0
3.52854e-08
3.67969e-08
0
3.38862e-08
0
3.412e-08
3.49193e-08
3.43804e-08
8.28643e-08
7.79819e-08
7.57977e-08
7.88532e-08
3.21319e-08
3.20863e-08
8.38308e-08
3.52681e-08
3.6148e-08
0
3.47759e-08
3.41567e-08
3.48496e-08
0
3.3676e-08
0
0
0
0
0
0
0
0
0
0
0
0
0
0
0
0
0
0
0
0
0
0
0
0
0
0
0
0
0
0
0
0
0
0
0
0
0
0
4.5573e-08
6.72703e-08
7.74767e-08
3.3865e-08
3.38201e-08
3.38066e-08
0
3.45399e-08
5.65711e-08
5.96133e-08
8.41672e-08
7.84574e-08
3.06341e-08
3.21993e-08
3.29796e-08
3.49512e-08
3.47882e-08
3.42873e-08
0
3.35309e-08
3.39566e-08
3.49999e-08
0
3.40379e-08
3.3268e-08
7.9796e-08
3.28744e-08
3.3058e-08
1.65394e-09
3.10022e-08
3.42819e-08
3.53698e-08
3.65424e-08
1.80319e-08
1.56113e-09
7.90642e-08
3.22482e-08
0
0
0
0
0
0
0
0
0
0
0
0
0
0
0
0
0
0
0
0
0
0
0
0
0
0
0
0
0
0
0
0
0
0
0
0
0
0
0
0
3.45536e-08
3.36999e-08
0
3.37732e-08
0
1.50151e-07
3.42562e-08
0
0
3.41821e-08
7.93563e-08
3.26245e-08
0
3.40665e-08
3.4353e-08
8.13533e-08
3.29493e-08
3.32014e-08
3.40577e-08
6.13658e-08
4.65448e-08
8.00695e-08
5.34252e-08
5.21527e-08
1.39452e-07
3.14286e-08
0
0
3.31995e-08
3.39486e-08
3.74803e-08
0
3.43537e-08
0
0
5.16433e-09
6.76516e-08
3.22707e-08
0
0
0
0
0
0
0
0
0
0
0
0
0
0
0
0
0
0
0
0
0
0
0
0
0
0
0
0
0
0
0
0
0
0
0
4.45334e-08
8.21201e-08
3.46134e-08
0
3.35686e-08
8.05658e-08
8.0715e-08
0
3.39503e-08
3.56102e-08
0
3.43527e-08
0
0
6.22674e-08
4.84716e-08
3.35303e-08
3.32287e-08
8.13034e-08
3.26556e-08
3.37057e-08
3.41861e-08
3.3798e-08
3.3349e-08
3.33166e-08
0
3.35459e-08
3.25804e-08
3.36846e-08
4.36234e-09
7.02628e-08
3.35152e-08
3.49568e-08
9.19353e-09
1.84079e-08
0
3.42695e-08
8.07172e-08
7.96731e-08
0
0
0
0
0
0
0
0
0
0
0
0
0
0
0
0
0
0
0
0
0
0
0
0
0
0
0
0
0
0
0
0
0
0
0
0
3.37225e-08
3.42338e-08
3.32276e-08
3.40452e-08
0
6.09448e-08
4.56534e-09
3.37121e-08
0
3.40807e-08
3.46903e-08
3.44313e-08
3.53132e-08
0
3.53365e-08
8.0479e-10
4.09675e-08
6.81608e-08
7.92362e-08
3.15742e-08
8.25342e-08
3.26492e-08
3.40831e-08
8.34429e-08
3.29626e-08
3.37836e-08
9.80238e-09
1.59208e-08
3.36842e-08
0
8.1721e-08
3.1975e-08
3.40263e-08
3.45611e-08
3.45904e-08
3.41901e-08
0
0
0
0
0
0
0
0
0
0
0
0
0
0
0
0
0
0
0
0
0
0
0
0
0
0
0
0
0
0
0
0
0
0
0
0
0
0
0
6.5495e-09
2.18851e-08
5.67814e-08
3.19918e-08
7.77836e-08
3.32839e-08
3.47102e-08
0
8.06771e-08
3.39474e-08
3.437e-08
3.44279e-08
0
3.59471e-08
3.5269e-08
7.90389e-08
7.67827e-08
3.01756e-08
7.72885e-08
7.90847e-08
3.17475e-08
8.45605e-08
3.65449e-08
0
3.2977e-08
3.31469e-08
3.36992e-08
3.40067e-08
3.38273e-08
8.17705e-08
0
8.05829e-08
3.45593e-08
3.43776e-08
3.30647e-08
3.18598e-08
3.38954e-08
0
0
0
0
0
0
0
0
0
0
0
0
0
0
0
0
0
0
0
0
0
0
0
0
0
0
0
0
0
0
0
0
0
0
0
0
0
0
8.22867e-08
0
1.04787e-07
3.40186e-08
3.25041e-08
0
3.45968e-08
3.44682e-08
0
3.45187e-08
3.38276e-08
3.36173e-08
8.6014e-08
8.75852e-08
6.07994e-08
4.50715e-08
7.60547e-08
3.04353e-08
7.83805e-08
3.11928e-08
3.23093e-08
3.44536e-08
3.65854e-08
3.50286e-08
3.34355e-08
3.36317e-08
3.32989e-08
3.34713e-08
3.31229e-08
0
3.4638e-08
3.47543e-08
8.37039e-08
8.61174e-08
3.32872e-08
0
0
0
0
0
0
0
0
0
0
0
0
0
0
0
0
0
0
0
0
0
0
0
0
0
0
0
0
0
0
0
0
0
0
0
0
0
0
0
0
0
3.50956e-08
3.38974e-08
3.47336e-08
0
3.27741e-08
3.30794e-08
3.43713e-08
3.36778e-08
3.3801e-08
3.43091e-08
3.4519e-08
3.51894e-08
0
0
0
0
3.22884e-08
5.10029e-08
5.25374e-08
7.86768e-08
3.64368e-08
8.06605e-08
3.38269e-08
3.35307e-08
3.34128e-08
3.33102e-08
8.21967e-08
3.34262e-08
0
3.28248e-08
8.58444e-08
3.41824e-08
3.38933e-08
3.31192e-08
3.28152e-08
0
0
0
0
0
0
0
0
0
0
0
0
0
0
0
0
0
0
0
0
0
0
0
0
0
0
0
0
0
0
0
0
0
0
0
0
0
0
0
7.42606e-08
3.44084e-08
3.29822e-08
3.40305e-08
0
3.42375e-08
3.41123e-08
8.16272e-08
3.34697e-08
0
0
0
3.61562e-08
3.61665e-08
3.53524e-08
3.33061e-08
8.10932e-08
7.82976e-08
0
3.33393e-08
3.40001e-08
3.46254e-08
3.41104e-08
8.30983e-08
3.2666e-08
3.30079e-08
3.35513e-08
3.37918e-08
3.34384e-08
8.11789e-08
3.29183e-08
3.33814e-08
3.35009e-08
3.42819e-08
8.23346e-08
3.31276e-08
0
0
0
0
0
0
0
0
0
0
0
0
0
0
0
0
0
0
0
0
0
0
0
0
0
0
0
0
0
0
0
0
0
0
0
0
0
0
0
8.34937e-08
3.37354e-08
3.25702e-08
0
8.17704e-08
3.25042e-08
7.98082e-08
3.24204e-08
3.29711e-08
3.29749e-08
3.3593e-08
3.47278e-08
3.5147e-08
3.51649e-08
3.46484e-08
3.37426e-08
3.2947e-08
7.90605e-08
3.06494e-08
3.31235e-08
3.58493e-08
0
3.4419e-08
3.35592e-08
3.27564e-08
3.35684e-08
3.38574e-08
7.9398e-08
8.04263e-08
3.29046e-08
3.35176e-08
3.36816e-08
3.4271e-08
3.44681e-08
3.37509e-08
3.45394e-08
0
0
0
0
0
0
0
0
0
0
0
0
0
0
0
0
0
0
0
0
0
0
0
0
0
0
0
0
0
0
0
0
0
0
0
0
0
0
0
8.48864e-08
3.37054e-08
3.25465e-08
3.2889e-08
6.26605e-08
4.37047e-08
3.30853e-08
5.43364e-08
5.40861e-08
3.32767e-08
3.36166e-08
3.49925e-08
0
8.12774e-08
8.26702e-08
0
3.31582e-08
3.30404e-08
3.37873e-08
3.46963e-08
3.68684e-08
0
8.17439e-08
3.24671e-08
3.259e-08
3.32919e-08
8.15354e-08
3.23719e-08
3.43978e-08
3.43026e-08
3.43622e-08
3.41955e-08
3.42751e-08
3.41686e-08
3.86037e-08
2.94897e-08
3.43286e-08
0
0
0
0
0
0
0
0
0
0
0
0
0
0
0
0
0
0
0
0
0
0
0
0
0
0
0
0
0
0
0
0
0
0
0
0
0
0
5.96544e-08
3.44198e-08
3.3932e-08
3.36098e-08
3.36408e-08
3.77052e-08
7.53454e-08
3.19489e-08
3.24805e-08
3.29634e-08
8.24237e-08
8.30418e-08
8.14183e-08
3.27674e-08
3.33523e-08
3.34148e-08
3.3863e-08
0
3.41152e-08
0
3.43549e-08
3.43939e-08
8.17928e-08
3.24458e-08
3.28849e-08
4.61353e-08
1.95834e-08
3.34841e-08
3.47228e-08
2.81415e-09
7.63013e-08
3.32039e-08
3.33794e-08
3.34316e-08
3.33841e-08
3.40783e-08
0
0
0
0
0
0
0
0
0
0
0
0
0
0
0
0
0
0
0
0
0
0
0
0
0
0
0
0
0
0
0
0
0
0
0
0
0
0
0
3.34106e-08
8.34077e-08
3.29817e-08
3.29341e-08
3.30848e-08
3.31271e-08
3.34234e-08
3.28942e-08
7.96234e-08
3.57123e-08
2.88645e-09
1.39122e-07
0
3.37837e-08
0
0
3.0109e-08
0
8.32873e-08
3.36783e-08
3.38795e-08
5.8465e-08
5.18676e-08
0
3.38646e-08
7.97479e-08
3.21117e-08
3.36851e-08
8.45931e-08
6.06653e-08
4.81633e-08
3.30122e-08
3.35993e-08
8.22245e-08
3.2396e-08
3.31453e-08
0
0
0
0
0
0
0
0
0
0
0
0
0
0
0
0
0
0
0
0
0
0
0
0
0
0
0
0
0
0
0
0
0
0
0
0
0
0
0
3.47872e-08
3.46397e-08
3.43472e-08
3.39467e-08
8.10055e-08
3.23256e-08
0
3.27098e-08
3.33863e-08
3.44658e-08
3.43992e-08
3.35455e-08
3.43849e-08
3.40478e-08
0
3.36607e-08
3.26144e-08
3.4956e-08
3.6436e-08
1.40999e-08
1.73235e-08
2.52934e-08
3.31382e-08
8.65065e-08
0
3.27321e-08
3.23221e-08
7.88873e-08
0
0
3.4628e-08
4.7338e-08
6.78323e-08
3.32091e-08
3.28177e-08
3.32874e-08
3.31335e-08
3.42105e-08
0
0
0
0
0
0
0
0
0
0
0
0
0
0
0
0
0
0
0
0
0
0
0
0
0
0
0
0
0
0
0
0
0
0
0
0
0
3.54302e-08
0
3.45401e-08
3.42865e-08
4.61708e-08
6.40499e-08
3.22047e-08
3.37578e-08
0
0
3.43219e-08
8.39237e-08
0
3.43216e-08
8.37879e-08
3.33106e-08
3.14114e-08
3.2737e-08
8.46495e-08
3.33882e-08
3.38274e-08
0
3.34097e-08
0
3.45512e-08
3.38337e-08
3.87374e-09
7.04776e-08
3.35897e-08
3.42984e-08
8.6119e-08
3.38738e-08
5.54377e-08
5.56406e-08
8.05456e-08
3.16764e-08
3.34144e-08
3.32433e-08
0
0
0
0
0
0
0
0
0
0
0
0
0
0
0
0
0
0
0
0
0
0
0
0
0
0
0
0
0
0
0
0
0
0
0
0
0
3.49369e-08
3.51298e-08
3.43789e-08
3.45366e-08
3.38606e-08
5.20793e-08
5.1238e-08
7.88849e-08
3.24133e-08
3.44721e-08
0
3.37526e-08
3.29476e-08
7.96063e-08
3.59773e-08
3.37564e-08
3.23204e-08
3.63098e-08
3.56072e-08
8.08892e-08
3.27099e-08
3.30372e-08
3.31905e-08
3.35109e-08
3.32797e-08
3.38047e-08
3.40454e-08
3.29813e-08
3.34739e-08
3.40611e-08
3.48723e-08
3.4341e-08
8.72564e-08
3.38119e-08
3.22863e-08
3.24181e-08
3.3504e-08
3.35089e-08
3.39535e-08
0
0
0
0
0
0
0
0
0
0
0
0
0
0
0
0
0
0
0
0
0
0
0
0
0
0
0
0
0
0
0
0
0
0
0
0
3.48146e-08
0
0
0
3.44278e-08
3.46602e-08
3.32319e-08
3.31644e-08
3.38273e-08
3.4409e-08
3.4525e-08
3.37904e-08
3.3449e-08
0
0
3.48208e-08
0
8.9181e-08
0
3.47048e-08
8.13677e-08
3.42655e-08
3.36519e-08
3.34788e-08
3.27411e-08
0
3.36984e-08
3.43972e-08
3.44619e-08
0
3.4964e-08
3.47682e-08
3.5092e-08
3.53303e-08
3.41697e-08
4.43879e-08
6.82089e-08
3.4362e-08
0
0
0
0
0
0
0
0
0
0
0
0
0
0
0
0
0
0
0
0
0
0
0
0
0
0
0
0
0
0
0
0
0
0
0
0
0
0
3.51118e-08
3.48828e-08
3.4121e-08
0
3.39592e-08
3.39535e-08
3.40122e-08
3.39504e-08
3.36279e-08
8.00735e-08
3.23375e-08
0
0
8.12761e-08
3.38751e-08
3.38617e-08
0
3.61785e-08
3.49824e-08
3.36513e-08
3.36014e-08
0
3.25705e-08
8.11446e-08
3.20789e-08
3.28299e-08
3.3754e-08
0
3.46712e-08
8.26806e-08
3.33591e-08
3.44689e-08
3.49636e-08
3.4258e-08
3.36642e-08
3.35013e-08
3.39161e-08
0
0
0
0
0
0
0
0
0
0
0
0
0
0
0
0
0
0
0
0
0
0
0
0
0
0
0
0
0
0
0
0
0
0
0
0
0
9.92428e-09
1.16742e-07
8.0901e-08
7.82247e-08
7.80535e-08
3.26167e-08
3.3045e-08
3.33341e-08
3.37449e-08
3.53334e-08
3.39862e-08
3.23151e-08
0
3.3085e-08
3.37352e-08
3.3784e-08
3.40855e-08
5.99494e-08
5.82507e-08
0
3.4398e-08
0
7.83418e-08
3.31595e-08
3.38897e-08
7.83711e-08
7.81433e-08
3.23775e-08
3.35005e-08
0
3.37532e-08
3.62353e-08
8.18191e-08
3.37789e-08
0
0
3.30268e-08
4.03215e-08
7.43613e-08
3.41632e-08
3.33413e-08
0
0
0
0
0
0
0
0
0
0
0
0
0
0
0
0
0
0
0
0
0
0
0
0
0
0
0
0
0
0
0
0
0
0
0
3.47034e-08
0
8.13848e-08
3.24004e-08
3.28022e-08
0
3.36934e-08
1.64177e-08
4.92489e-08
3.31671e-08
3.11571e-08
3.13189e-08
3.17329e-08
3.39213e-08
8.53229e-08
3.35584e-08
3.56765e-08
0
3.46545e-08
3.36647e-08
3.34285e-08
3.25643e-08
3.40918e-08
0
8.19588e-08
3.24549e-08
3.34892e-08
3.39907e-08
8.45296e-08
7.54245e-10
5.65789e-08
5.85234e-08
3.46134e-08
3.17382e-08
3.21774e-08
3.26647e-08
3.2719e-08
3.42348e-08
0
3.42136e-08
0
0
0
0
0
0
0
0
0
0
0
0
0
0
0
0
0
0
0
0
0
0
0
0
0
0
0
0
0
0
0
0
0
0
0
3.23868e-08
3.40758e-08
0
3.49948e-08
3.41371e-08
3.31134e-08
0
3.31564e-08
3.43236e-08
3.43116e-08
8.08017e-08
3.16476e-08
3.19883e-08
3.3022e-08
0
8.44514e-08
8.27614e-08
8.05184e-08
4.95051e-08
5.67338e-08
7.84256e-08
0
1.44823e-08
7.6891e-09
3.36494e-08
1.8598e-08
2.60086e-10
3.49444e-08
0
3.5166e-08
3.45448e-08
0
0
0
2.59987e-09
2.94053e-08
3.38255e-08
8.2502e-08
3.3209e-08
3.39044e-08
3.45554e-08
0
0
0
0
0
0
0
0
0
0
0
0
0
0
0
0
0
0
0
0
0
0
0
0
0
0
0
0
0
0
0
0
0
7.965e-08
0
0
7.2602e-08
8.76262e-08
3.27213e-08
3.12627e-08
3.31974e-08
0
0
3.27243e-08
3.2479e-08
3.24982e-08
3.35323e-08
3.44538e-08
3.72545e-08
0
3.45073e-08
3.47529e-08
0
3.40926e-08
3.32463e-08
0
3.42901e-08
7.8183e-08
0
8.00467e-08
3.3049e-08
8.16657e-08
3.37045e-08
3.49776e-08
3.30922e-08
0
0
3.4469e-08
3.35199e-08
3.34968e-08
3.34674e-08
0
3.35245e-08
0
3.49274e-08
3.56223e-08
3.4122e-08
3.35418e-08
0
0
0
0
0
0
0
0
0
0
0
0
0
0
0
0
0
0
0
0
0
0
0
0
0
0
0
0
0
0
3.41071e-08
3.42944e-08
3.43119e-08
0
1.45221e-07
3.52787e-08
8.04545e-08
3.35185e-08
3.33993e-08
8.0164e-08
1.39036e-07
0
3.19904e-08
0
0
0
3.60517e-08
0
3.47006e-08
5.81386e-08
5.35962e-08
3.39497e-08
3.35893e-08
7.7905e-08
0
0
3.47851e-08
3.73478e-08
3.64773e-08
3.36751e-08
1.09107e-07
7.98906e-09
0
3.46252e-08
3.44496e-08
3.39555e-08
3.47189e-08
3.38693e-08
8.22921e-08
0
8.13711e-08
8.50577e-08
3.32465e-08
7.94598e-08
7.80947e-08
7.78522e-08
3.38902e-08
0
0
0
0
0
0
0
0
0
0
0
0
0
0
0
0
0
0
0
0
0
0
0
0
0
0
0
0
3.3079e-08
8.00949e-08
3.32708e-08
3.32592e-08
3.44092e-08
3.45625e-08
3.3969e-08
0
3.44535e-08
3.29416e-08
3.26882e-08
3.3195e-08
3.39419e-08
3.43481e-08
3.39546e-08
3.47789e-08
0
3.38981e-08
8.15935e-08
3.25475e-08
3.39847e-08
0
3.36138e-08
3.34021e-08
3.32031e-08
3.30843e-08
3.44503e-08
8.11243e-08
0
3.17291e-08
0
3.18603e-08
3.39466e-08
3.48869e-08
3.47422e-08
3.4165e-08
8.08496e-08
3.32535e-08
0
3.39151e-08
3.22881e-08
3.5308e-08
3.58961e-08
3.36353e-08
0
3.48446e-08
3.3893e-08
3.36953e-08
0
0
0
0
0
0
0
0
0
0
0
0
0
0
0
0
0
0
0
0
0
0
0
0
0
0
0
)
;


// ************************************************************************* //
