/*--------------------------------*- C++ -*----------------------------------*\
  =========                 |
  \\      /  F ield         | OpenFOAM: The Open Source CFD Toolbox
   \\    /   O peration     | Website:  https://openfoam.org
    \\  /    A nd           | Version:  12
     \\/     M anipulation  |
\*---------------------------------------------------------------------------*/
FoamFile
{
    format      ascii;
    class       volScalarField;
    location    "0.8";
    object      p;
}
// * * * * * * * * * * * * * * * * * * * * * * * * * * * * * * * * * * * * * //

dimensions      [0 2 -2 0 0 0 0];

internalField   nonuniform List<scalar> 
3750
(
0.753837
0.740027
0.754172
0.740087
0.72494
0.711586
0.699284
0.688735
0.681884
0.673851
0.655671
0.63531
0.618178
0.609047
0.601677
0.593356
0.584341
0.576042
0.566229
0.549832
0.538583
0.5308
0.534157
0.529399
0.522064
0.513965
0.504569
0.485505
0.468297
0.460046
0.450744
0.44168
0.431025
0.422743
0.412727
0.402352
0.392091
0.38106
0.369752
0.360767
0.358329
0.350412
0.339415
0.327642
0.316887
0.305434
0.294226
0.283309
0.272534
0.26184
0.25122
0.240664
0.230163
0.21971
0.209298
0.198921
0.188576
0.178258
0.167965
0.157695
0.147444
0.13721
0.126989
0.116778
0.106576
0.0963815
0.0861984
0.076028
0.0658727
0.0557295
0.0455887
0.0354489
0.0253114
0.0151683
0.00504239
0.757142
0.747927
0.746003
0.735752
0.722918
0.709794
0.697351
0.685719
0.6774
0.67301
0.659049
0.644825
0.61408
0.605983
0.603535
0.594077
0.583911
0.575325
0.567261
0.550339
0.53883
0.522445
0.536077
0.531898
0.523149
0.514401
0.504242
0.492504
0.464166
0.458147
0.450373
0.442313
0.431487
0.423165
0.412875
0.403007
0.392394
0.38174
0.368612
0.357147
0.363811
0.352192
0.339102
0.327436
0.316215
0.305093
0.294088
0.283195
0.272439
0.261763
0.251153
0.240606
0.230114
0.219668
0.209261
0.198888
0.188546
0.178231
0.167942
0.157674
0.147426
0.137194
0.126975
0.116765
0.106563
0.0963654
0.086181
0.0760122
0.0658613
0.0557248
0.0455869
0.0354484
0.0253083
0.0151618
0.00503631
0.759881
0.751333
0.742926
0.733672
0.719651
0.706872
0.694605
0.681652
0.669874
0.675907
0.6616
0.643034
0.621376
0.601249
0.606355
0.594151
0.58073
0.576621
0.566899
0.554787
0.54738
0.520185
0.522979
0.533444
0.524139
0.514927
0.502408
0.488008
0.469259
0.457667
0.450201
0.442057
0.433966
0.42438
0.413224
0.404367
0.392883
0.384072
0.373165
0.36431
0.359436
0.349459
0.338249
0.326843
0.315714
0.30472
0.293807
0.282999
0.272262
0.261609
0.251023
0.240495
0.230017
0.219583
0.209187
0.198823
0.188489
0.17818
0.167895
0.157633
0.147389
0.137162
0.126946
0.116739
0.10654
0.0963483
0.0861664
0.0760007
0.0658508
0.0557108
0.045574
0.0354386
0.025302
0.0151574
0.00503004
0.761995
0.75291
0.742585
0.730773
0.71719
0.704548
0.692586
0.681561
0.672611
0.66971
0.660335
0.644838
0.63408
0.601126
0.59723
0.588716
0.573407
0.576417
0.564238
0.556943
0.54563
0.529992
0.522008
0.52528
0.526517
0.515523
0.502135
0.488234
0.468686
0.452096
0.452163
0.439702
0.441035
0.426448
0.414271
0.404529
0.394182
0.385249
0.37571
0.366317
0.357526
0.347706
0.337043
0.326084
0.315138
0.304255
0.293433
0.282685
0.272005
0.261392
0.250837
0.240335
0.229878
0.219461
0.209079
0.198727
0.188404
0.178105
0.167828
0.157573
0.147336
0.137114
0.126903
0.116702
0.106511
0.0963277
0.0861544
0.0759941
0.0658451
0.0557031
0.0455653
0.0354296
0.0252946
0.01515
0.00502563
0.764749
0.753668
0.740644
0.727433
0.715863
0.705781
0.690856
0.68048
0.671457
0.668216
0.661332
0.644911
0.6379
0.606889
0.594262
0.586801
0.576427
0.568859
0.556819
0.561839
0.548394
0.533817
0.517833
0.522161
0.533671
0.517077
0.502656
0.489888
0.468872
0.457417
0.450304
0.441153
0.435075
0.424606
0.413235
0.404424
0.394026
0.387282
0.378071
0.367552
0.357237
0.34681
0.336134
0.325329
0.314513
0.303731
0.292987
0.282305
0.271683
0.261116
0.250599
0.240128
0.229697
0.219302
0.208938
0.198603
0.188293
0.178007
0.167741
0.157495
0.147267
0.137052
0.126849
0.116657
0.106474
0.0962999
0.0861341
0.0759783
0.065831
0.0556898
0.0455528
0.0354188
0.025286
0.0151423
0.00502187
0.770215
0.755048
0.736699
0.724106
0.714304
0.712814
0.686001
0.677788
0.666416
0.672517
0.660502
0.646089
0.633231
0.614358
0.597768
0.587216
0.578631
0.56582
0.557499
0.554916
0.551184
0.54012
0.531845
0.51142
0.529163
0.515051
0.502416
0.48898
0.472283
0.459896
0.449256
0.439768
0.431495
0.422169
0.413519
0.403435
0.390822
0.394265
0.381236
0.368496
0.357116
0.346181
0.335361
0.324581
0.313829
0.303133
0.292477
0.281868
0.271305
0.260789
0.250314
0.239879
0.229479
0.21911
0.208768
0.198452
0.18816
0.177888
0.167635
0.1574
0.147182
0.136978
0.126785
0.116602
0.106429
0.0962629
0.0861046
0.0759537
0.0658096
0.055671
0.0455367
0.0354057
0.0252757
0.0151344
0.00501866
0.766133
0.756641
0.727302
0.718871
0.705163
0.711039
0.693573
0.681196
0.670956
0.667123
0.65799
0.646832
0.634567
0.617085
0.599329
0.586282
0.58639
0.56079
0.556744
0.549767
0.556175
0.543314
0.532863
0.519903
0.517714
0.513493
0.501936
0.488316
0.473863
0.460871
0.448272
0.436692
0.431109
0.419336
0.414774
0.409341
0.397455
0.391992
0.380514
0.368161
0.356552
0.345432
0.334557
0.323812
0.313131
0.302507
0.291926
0.281385
0.270883
0.26042
0.249991
0.239595
0.229229
0.218889
0.208573
0.19828
0.188007
0.177752
0.167515
0.157293
0.147087
0.136894
0.126712
0.116539
0.106374
0.0962165
0.0860652
0.0759204
0.0657814
0.0556472
0.0455171
0.03539
0.0252635
0.0151266
0.00501551
0.763704
0.747317
0.730995
0.718441
0.706696
0.70188
0.694905
0.683216
0.67185
0.661677
0.653136
0.648568
0.639221
0.619133
0.59998
0.581059
0.584837
0.562534
0.559926
0.559567
0.55649
0.545742
0.53457
0.521793
0.509142
0.515327
0.501972
0.488443
0.474492
0.461202
0.44755
0.432147
0.43225
0.413764
0.416839
0.418157
0.398507
0.391418
0.379365
0.367076
0.355502
0.344423
0.333614
0.322944
0.312362
0.301828
0.291329
0.280861
0.270424
0.260016
0.249635
0.239281
0.228952
0.218645
0.208357
0.198088
0.187837
0.177601
0.167381
0.157174
0.146981
0.1368
0.126629
0.116467
0.106312
0.0961624
0.0860188
0.0758808
0.0657478
0.0556192
0.0454942
0.0353721
0.0252502
0.0151181
0.00501234
0.761476
0.746617
0.73321
0.718964
0.706085
0.694037
0.696913
0.683143
0.671744
0.660235
0.645618
0.652081
0.639226
0.619477
0.603487
0.58939
0.584056
0.552836
0.560921
0.567912
0.560473
0.547464
0.536963
0.525272
0.510979
0.50948
0.499855
0.489364
0.473991
0.461918
0.450331
0.438339
0.431305
0.424294
0.418464
0.408839
0.39005
0.391752
0.377582
0.365152
0.35395
0.343152
0.332534
0.322016
0.31155
0.301113
0.2907
0.280308
0.269938
0.259587
0.249257
0.238946
0.228655
0.218381
0.208123
0.19788
0.187651
0.177436
0.167233
0.157043
0.146864
0.136697
0.126538
0.116388
0.106242
0.0961015
0.0859661
0.0758356
0.0657096
0.0555873
0.0454685
0.035352
0.0252356
0.015109
0.00500909
0.761563
0.737846
0.721305
0.718042
0.705114
0.697561
0.688385
0.680628
0.671262
0.662093
0.646932
0.64508
0.636937
0.618499
0.606368
0.594625
0.5774
0.569999
0.565312
0.555154
0.561726
0.551316
0.53973
0.528949
0.51245
0.504949
0.496213
0.496089
0.470214
0.462319
0.453741
0.442129
0.433015
0.427054
0.420303
0.407534
0.388293
0.381308
0.372301
0.362224
0.351995
0.341691
0.33136
0.321035
0.310706
0.300377
0.290052
0.279736
0.26943
0.259136
0.248855
0.238589
0.228338
0.218099
0.207873
0.197657
0.187452
0.177258
0.167074
0.156901
0.146738
0.136586
0.126441
0.116301
0.106166
0.0960347
0.0859082
0.0757858
0.0656674
0.0555523
0.0454402
0.0353301
0.0252198
0.0150993
0.00500572
0.762363
0.730924
0.730049
0.727406
0.699615
0.696078
0.686009
0.679038
0.670633
0.661631
0.649731
0.641639
0.634721
0.620314
0.608656
0.595703
0.579634
0.583975
0.575816
0.551584
0.548963
0.554464
0.540476
0.52768
0.513599
0.502486
0.487123
0.496519
0.479682
0.467063
0.456463
0.44182
0.433548
0.426098
0.420564
0.412414
0.38484
0.374995
0.367792
0.359469
0.350116
0.340273
0.330231
0.320076
0.309866
0.299634
0.289393
0.27915
0.268908
0.258671
0.248442
0.238221
0.228009
0.217805
0.207608
0.19742
0.18724
0.177068
0.166905
0.156751
0.146606
0.136469
0.126337
0.116209
0.106084
0.0959628
0.0858455
0.0757317
0.0656216
0.0555144
0.0454097
0.0353066
0.0252029
0.015089
0.00500223
0.752494
0.734968
0.738418
0.730008
0.70033
0.696692
0.686022
0.678746
0.670445
0.66075
0.649027
0.640387
0.636149
0.62363
0.611983
0.59987
0.588477
0.582141
0.571969
0.56044
0.552396
0.547799
0.538177
0.526357
0.514667
0.501154
0.486011
0.494709
0.481704
0.470195
0.46303
0.436731
0.432746
0.424761
0.41537
0.403551
0.389494
0.376353
0.366814
0.357947
0.348682
0.339052
0.329167
0.319141
0.309043
0.298904
0.288742
0.278566
0.268385
0.258202
0.248021
0.237843
0.227669
0.217499
0.207334
0.197173
0.187017
0.176868
0.166727
0.156593
0.146466
0.136344
0.126226
0.11611
0.105997
0.0958867
0.0857793
0.0756747
0.0655732
0.0554743
0.0453773
0.0352817
0.0251852
0.0150783
0.00499861
0.754653
0.743877
0.731736
0.722883
0.707065
0.69941
0.68906
0.681348
0.671604
0.66111
0.647883
0.637528
0.64199
0.626522
0.613532
0.602818
0.59253
0.582855
0.57239
0.562679
0.55469
0.546788
0.537497
0.527256
0.514082
0.502536
0.492509
0.486639
0.477629
0.46891
0.45746
0.442354
0.432779
0.423702
0.41416
0.399197
0.387576
0.376673
0.366837
0.357341
0.347792
0.338091
0.328243
0.318288
0.308262
0.298194
0.2881
0.277987
0.267862
0.257731
0.247596
0.23746
0.227324
0.217188
0.207052
0.196918
0.186787
0.176661
0.16654
0.156428
0.146319
0.136213
0.126109
0.116006
0.105905
0.0958064
0.0857099
0.0756155
0.065523
0.0554324
0.0453435
0.0352556
0.0251666
0.0150672
0.00499488
0.757152
0.746191
0.732105
0.720963
0.707546
0.69407
0.696719
0.68523
0.674171
0.662847
0.652062
0.643542
0.637895
0.624902
0.614288
0.603885
0.593876
0.584561
0.572227
0.564255
0.556619
0.547244
0.537472
0.528647
0.512994
0.504108
0.494413
0.484938
0.476108
0.466382
0.455364
0.442602
0.432126
0.424024
0.418227
0.391935
0.385352
0.376063
0.366499
0.35675
0.347016
0.337261
0.327413
0.317495
0.307525
0.297515
0.287478
0.27742
0.267347
0.257263
0.247173
0.237077
0.226978
0.216875
0.206769
0.196663
0.186557
0.176453
0.166354
0.15626
0.146169
0.136079
0.125989
0.1159
0.105811
0.0957243
0.0856387
0.0755542
0.065471
0.055389
0.0453085
0.0352286
0.0251475
0.0150557
0.00499106
0.75706
0.745272
0.732957
0.721427
0.709979
0.699715
0.695419
0.685983
0.676434
0.663184
0.654242
0.646379
0.638996
0.624044
0.612343
0.602847
0.593807
0.586802
0.572106
0.565808
0.558901
0.5489
0.537382
0.52593
0.514005
0.506623
0.492926
0.48343
0.474421
0.465062
0.45508
0.440454
0.429437
0.421396
0.411103
0.396362
0.385872
0.375901
0.366046
0.356211
0.346388
0.336554
0.326683
0.316776
0.306837
0.296868
0.286877
0.276867
0.266842
0.256804
0.246755
0.236698
0.226634
0.216563
0.206488
0.19641
0.186329
0.176249
0.16617
0.156094
0.146018
0.135944
0.125868
0.115792
0.105716
0.0956407
0.0855659
0.0754915
0.0654176
0.0553446
0.0452726
0.035201
0.0251279
0.015044
0.00498717
0.757009
0.744569
0.732889
0.722014
0.711868
0.702706
0.694859
0.685812
0.676281
0.662654
0.655497
0.647979
0.641
0.63292
0.606935
0.601234
0.592619
0.58321
0.576848
0.570283
0.560907
0.550994
0.536722
0.522968
0.513847
0.516181
0.487304
0.481744
0.473652
0.46446
0.45562
0.437848
0.427548
0.418222
0.408022
0.396571
0.385925
0.375697
0.365636
0.355661
0.34573
0.335849
0.325968
0.316075
0.306167
0.296241
0.286295
0.276331
0.26635
0.256354
0.246345
0.236325
0.226295
0.216256
0.20621
0.196158
0.186103
0.176045
0.165987
0.155928
0.145869
0.135809
0.125747
0.115684
0.10562
0.0955564
0.0854923
0.075428
0.0653635
0.0552995
0.0452362
0.035173
0.0251081
0.0150321
0.00498325
0.758121
0.74284
0.732022
0.722081
0.712638
0.704031
0.696184
0.684461
0.674144
0.662978
0.654354
0.650791
0.64223
0.62894
0.613468
0.6027
0.591617
0.579255
0.584283
0.573087
0.56315
0.557492
0.532682
0.520424
0.509295
0.520963
0.489176
0.482096
0.473951
0.465042
0.45209
0.438398
0.424703
0.415704
0.406245
0.396033
0.385661
0.375344
0.365157
0.355081
0.345097
0.335163
0.325272
0.315397
0.305522
0.295633
0.28573
0.275809
0.265871
0.255916
0.245946
0.235961
0.225964
0.215956
0.205937
0.195911
0.185879
0.175843
0.165805
0.155764
0.145721
0.135675
0.125627
0.115576
0.105525
0.095472
0.0854185
0.075364
0.065309
0.0552542
0.0451996
0.0351448
0.0250881
0.0150201
0.00497929
0.763422
0.736768
0.730413
0.721631
0.712525
0.704432
0.70135
0.681076
0.673297
0.66468
0.653042
0.657832
0.645417
0.626061
0.615064
0.604553
0.59437
0.585415
0.581626
0.572449
0.561695
0.551099
0.535742
0.521112
0.512693
0.513432
0.495459
0.484237
0.474407
0.464963
0.450117
0.443318
0.417503
0.413586
0.405657
0.395711
0.385292
0.374852
0.364541
0.354384
0.344359
0.334428
0.324558
0.314716
0.304879
0.295039
0.285183
0.275306
0.26541
0.255494
0.24556
0.235609
0.225644
0.215665
0.205672
0.195668
0.185658
0.175644
0.165625
0.155602
0.145574
0.135542
0.125507
0.11547
0.10543
0.095388
0.0853449
0.0753004
0.0652549
0.0552091
0.0451631
0.0351167
0.0250681
0.0150083
0.00497539
0.757087
0.741603
0.731167
0.72142
0.711551
0.700401
0.688219
0.689397
0.681484
0.670129
0.660511
0.655083
0.643431
0.628831
0.616753
0.606035
0.596723
0.588537
0.580177
0.571012
0.55966
0.548102
0.535395
0.522661
0.512058
0.521457
0.492517
0.485006
0.473894
0.46125
0.447276
0.435671
0.420674
0.415785
0.406845
0.395916
0.384971
0.374253
0.363772
0.35355
0.343528
0.333636
0.323817
0.314032
0.304252
0.294463
0.284655
0.274824
0.264968
0.25509
0.245191
0.235272
0.225336
0.215383
0.205413
0.195432
0.185444
0.175449
0.165449
0.155443
0.14543
0.135412
0.12539
0.115364
0.105336
0.095305
0.0852722
0.0752375
0.0652014
0.0551645
0.045127
0.0350888
0.0250484
0.0149965
0.00497148
0.754156
0.741648
0.731195
0.721355
0.711889
0.701717
0.688807
0.682549
0.687131
0.67318
0.664816
0.651208
0.641551
0.631366
0.617086
0.607102
0.598684
0.590464
0.582238
0.569846
0.560897
0.546172
0.534205
0.523994
0.515337
0.510862
0.497912
0.488363
0.474814
0.45885
0.446981
0.433127
0.418458
0.419321
0.408922
0.396171
0.384466
0.373398
0.362749
0.352527
0.342568
0.332768
0.323042
0.31334
0.303632
0.293904
0.284149
0.274363
0.264549
0.254707
0.24484
0.234951
0.225041
0.215112
0.205164
0.195203
0.185235
0.17526
0.165278
0.155288
0.14529
0.135285
0.125276
0.115262
0.105244
0.0952238
0.0852009
0.0751759
0.0651489
0.0551207
0.0450915
0.0350615
0.025029
0.014985
0.00496768
0.751235
0.740122
0.730524
0.720946
0.712385
0.707179
0.692704
0.684013
0.678867
0.66961
0.665809
0.647339
0.639828
0.639244
0.613099
0.60646
0.600306
0.592675
0.588557
0.565324
0.565214
0.541256
0.533171
0.523802
0.515394
0.507204
0.497931
0.492099
0.479876
0.45201
0.446714
0.432585
0.430408
0.410458
0.406478
0.395355
0.383151
0.372117
0.361387
0.35122
0.341431
0.331808
0.322239
0.312654
0.303034
0.293373
0.283672
0.273933
0.264157
0.254349
0.244512
0.234649
0.224763
0.214856
0.20493
0.19499
0.185041
0.175083
0.165115
0.155138
0.145154
0.135162
0.125164
0.115162
0.105155
0.095145
0.0851318
0.0751159
0.0650978
0.0550779
0.0450569
0.0350348
0.0250101
0.0149737
0.00496393
0.747218
0.74006
0.729995
0.720621
0.710535
0.719995
0.691355
0.684827
0.67634
0.66572
0.666041
0.645656
0.632977
0.637548
0.620589
0.608888
0.599839
0.590907
0.582139
0.569301
0.561256
0.550917
0.534479
0.522704
0.514288
0.506023
0.497597
0.489065
0.476914
0.45718
0.44504
0.434463
0.42743
0.416298
0.408763
0.395528
0.381056
0.370479
0.359447
0.349587
0.340172
0.330834
0.321456
0.312
0.302473
0.292881
0.283233
0.273536
0.263796
0.254019
0.244208
0.23437
0.224506
0.214621
0.204716
0.194795
0.184861
0.174917
0.164961
0.154997
0.145024
0.135045
0.125058
0.115066
0.10507
0.0950692
0.0850651
0.075058
0.0650483
0.0550365
0.0450234
0.0350089
0.0249918
0.0149628
0.00496033
0.750152
0.739336
0.728053
0.725143
0.71671
0.710727
0.695209
0.686826
0.679588
0.676357
0.656226
0.647032
0.636959
0.633096
0.620524
0.609191
0.599263
0.589344
0.579481
0.568806
0.559868
0.551751
0.543907
0.51846
0.512759
0.504955
0.496731
0.488048
0.474571
0.464809
0.439865
0.434382
0.427842
0.420304
0.417188
0.396491
0.375075
0.369247
0.356452
0.347509
0.338816
0.329893
0.320746
0.311426
0.301985
0.292452
0.282848
0.273186
0.263474
0.253722
0.243935
0.234117
0.224272
0.214404
0.204517
0.194612
0.184693
0.174762
0.164818
0.154865
0.144903
0.134933
0.124957
0.114975
0.104988
0.094997
0.0850014
0.0750026
0.0650009
0.0549968
0.0449912
0.034984
0.0249742
0.0149523
0.00495686
0.75194
0.739547
0.72528
0.727878
0.717423
0.712609
0.692628
0.68752
0.68012
0.673352
0.662136
0.652295
0.639027
0.63056
0.61655
0.607809
0.598429
0.587447
0.577076
0.566923
0.556655
0.552829
0.541621
0.52647
0.513058
0.504359
0.496349
0.491632
0.465973
0.458813
0.447398
0.436574
0.429318
0.420972
0.411863
0.398286
0.384361
0.374632
0.349779
0.34522
0.337722
0.329184
0.320198
0.310967
0.301581
0.292091
0.282518
0.272882
0.263193
0.25346
0.243691
0.233889
0.224061
0.214208
0.204334
0.194443
0.184538
0.174618
0.164685
0.154741
0.144789
0.13483
0.124863
0.11489
0.104912
0.0949286
0.084941
0.0749499
0.0649557
0.054959
0.0449605
0.0349603
0.0249573
0.0149423
0.00495356
0.756052
0.743527
0.736361
0.715342
0.709465
0.702455
0.702882
0.690466
0.681057
0.674047
0.666593
0.661038
0.636104
0.634911
0.610673
0.605912
0.598959
0.585733
0.574953
0.565069
0.551696
0.557132
0.542343
0.530037
0.511465
0.503446
0.493892
0.483554
0.468978
0.458876
0.44952
0.43625
0.434567
0.421398
0.411038
0.400172
0.389684
0.3637
0.354049
0.346033
0.337678
0.328928
0.319894
0.310663
0.301292
0.291814
0.282255
0.272632
0.262955
0.253235
0.243478
0.233689
0.223872
0.214031
0.204169
0.19429
0.184395
0.174484
0.16456
0.154627
0.144684
0.134733
0.124775
0.114811
0.10484
0.0948642
0.0848841
0.0749002
0.064913
0.0549232
0.0449313
0.0349378
0.0249413
0.0149328
0.00495043
0.756134
0.743245
0.731767
0.716643
0.704678
0.710681
0.697881
0.688097
0.678489
0.676321
0.669329
0.657597
0.640178
0.630468
0.61652
0.606299
0.606894
0.581323
0.574183
0.565456
0.556159
0.550341
0.539844
0.528165
0.513638
0.503864
0.492185
0.480206
0.467079
0.460413
0.445684
0.437058
0.448527
0.418397
0.409926
0.398079
0.381277
0.368188
0.356856
0.347183
0.338046
0.328958
0.319786
0.310497
0.301101
0.291614
0.282054
0.272432
0.26276
0.253046
0.243296
0.233515
0.223706
0.213874
0.204021
0.194151
0.184263
0.174361
0.164446
0.154521
0.144586
0.134644
0.124694
0.114736
0.104773
0.0948042
0.0848309
0.0748537
0.064873
0.0548895
0.0449039
0.0349166
0.0249263
0.0149239
0.00494749
0.756792
0.741483
0.730493
0.71949
0.71044
0.706646
0.694848
0.684287
0.672336
0.675596
0.672615
0.66108
0.640573
0.630318
0.618286
0.601762
0.60661
0.588898
0.576989
0.567113
0.558038
0.548829
0.537644
0.526679
0.514848
0.502866
0.491434
0.47821
0.462495
0.459975
0.441966
0.445177
0.439163
0.423306
0.410387
0.394173
0.381454
0.369806
0.357983
0.347808
0.338353
0.329079
0.319794
0.310439
0.301002
0.29149
0.281915
0.272285
0.262609
0.252894
0.243146
0.233368
0.223564
0.213738
0.203892
0.194028
0.184147
0.174251
0.164342
0.154425
0.144498
0.134562
0.124619
0.114668
0.104711
0.0947487
0.0847816
0.0748105
0.0648358
0.0548582
0.0448784
0.0348967
0.0249122
0.0149155
0.00494474
0.762045
0.735382
0.729292
0.720682
0.711976
0.703308
0.692577
0.683518
0.681909
0.660396
0.66905
0.668487
0.643421
0.63191
0.620628
0.6067
0.600178
0.588446
0.57763
0.568116
0.559159
0.549941
0.535404
0.525272
0.515463
0.501401
0.491538
0.478294
0.472296
0.45035
0.443057
0.43916
0.435856
0.430596
0.404393
0.392832
0.382758
0.372001
0.357617
0.347731
0.338484
0.329207
0.319873
0.310461
0.300976
0.291429
0.281828
0.272182
0.262496
0.252776
0.243025
0.233247
0.223446
0.213623
0.203781
0.193921
0.184044
0.174153
0.164251
0.154339
0.144419
0.134489
0.124551
0.114606
0.104655
0.0946979
0.0847364
0.0747707
0.0648014
0.0548291
0.0448547
0.0348784
0.0248991
0.0149077
0.00494219
0.754942
0.739933
0.730508
0.722068
0.713117
0.703085
0.690541
0.679023
0.684885
0.672595
0.667246
0.660342
0.644246
0.633906
0.623973
0.609268
0.598553
0.586888
0.576948
0.568477
0.560699
0.556408
0.528648
0.523887
0.520315
0.495692
0.491001
0.475446
0.467588
0.45499
0.442318
0.433315
0.423699
0.429011
0.40765
0.394602
0.385019
0.37882
0.352779
0.346982
0.338539
0.329391
0.320032
0.310558
0.301015
0.291422
0.281788
0.272119
0.262418
0.252688
0.242931
0.233151
0.223349
0.213528
0.203687
0.19383
0.183957
0.17407
0.164172
0.154265
0.144349
0.134424
0.124491
0.114551
0.104604
0.0946519
0.0846952
0.0747343
0.0647699
0.0548025
0.0448329
0.0348615
0.0248871
0.0149006
0.00493985
0.748179
0.738607
0.730677
0.723945
0.715004
0.705417
0.691747
0.684477
0.681168
0.675267
0.663695
0.65468
0.642457
0.635417
0.631535
0.607289
0.597684
0.584415
0.574762
0.567805
0.55859
0.548494
0.532056
0.524542
0.514371
0.501448
0.491247
0.476249
0.467075
0.461284
0.436847
0.432263
0.426111
0.426248
0.400649
0.393583
0.384106
0.373704
0.358942
0.348953
0.339394
0.329862
0.320306
0.310717
0.301098
0.291453
0.281782
0.272088
0.262369
0.252626
0.242862
0.233077
0.223273
0.21345
0.203611
0.193755
0.183884
0.174
0.164105
0.154201
0.144288
0.134367
0.124437
0.114501
0.104558
0.0946104
0.0846579
0.0747014
0.0647413
0.0547783
0.0448131
0.034846
0.0248761
0.014894
0.00493772
0.755196
0.739686
0.72965
0.723936
0.716897
0.712334
0.687752
0.683951
0.678088
0.670771
0.660704
0.651028
0.641891
0.635891
0.630732
0.622203
0.600254
0.578385
0.573411
0.564826
0.555607
0.537887
0.532455
0.530381
0.513824
0.504734
0.497767
0.470713
0.463951
0.454825
0.44163
0.432986
0.425337
0.418071
0.405708
0.394644
0.383888
0.372879
0.360953
0.350315
0.340199
0.330358
0.320617
0.310909
0.301211
0.291512
0.281804
0.272081
0.262343
0.252587
0.242813
0.233022
0.223214
0.21339
0.203549
0.193693
0.183823
0.17394
0.164047
0.154145
0.144234
0.134316
0.124389
0.114456
0.104518
0.0945735
0.0846247
0.0746718
0.0647155
0.0547564
0.0447951
0.0348321
0.0248661
0.0148881
0.0049358
0.762743
0.735529
0.724528
0.724435
0.716987
0.70763
0.694122
0.685466
0.677016
0.667933
0.657897
0.647468
0.638308
0.636668
0.634661
0.61905
0.602934
0.587087
0.575016
0.562857
0.549816
0.530176
0.532062
0.535292
0.516313
0.503507
0.491702
0.47614
0.464027
0.452665
0.442945
0.432426
0.423451
0.414819
0.409829
0.395731
0.384115
0.372952
0.361794
0.351082
0.340798
0.330771
0.32089
0.311087
0.301323
0.291577
0.281836
0.27209
0.262334
0.252565
0.242782
0.232984
0.223171
0.213343
0.203501
0.193643
0.183773
0.17389
0.163998
0.154097
0.144188
0.134272
0.124348
0.114418
0.104482
0.0945411
0.0845954
0.0746456
0.0646926
0.0547368
0.0447791
0.0348195
0.0248572
0.0148829
0.00493409
0.758335
0.746505
0.743645
0.729335
0.718654
0.707581
0.696257
0.685976
0.676201
0.666163
0.655655
0.643619
0.629761
0.637304
0.647732
0.615928
0.60519
0.591804
0.575965
0.560945
0.549606
0.538302
0.530569
0.525821
0.513847
0.501987
0.490453
0.477942
0.463402
0.452139
0.440996
0.430096
0.42308
0.411323
0.415883
0.395148
0.384111
0.372984
0.362041
0.351442
0.341133
0.331039
0.321087
0.311227
0.30142
0.291641
0.281874
0.272108
0.262338
0.252558
0.242766
0.232961
0.223143
0.21331
0.203464
0.193605
0.183733
0.17385
0.163958
0.154058
0.14415
0.134235
0.124314
0.114386
0.104452
0.094513
0.0845698
0.0746227
0.0646722
0.0547194
0.0447648
0.0348085
0.0248493
0.0148782
0.00493258
0.754931
0.748891
0.742559
0.730581
0.720412
0.70799
0.697159
0.685891
0.675363
0.664961
0.654843
0.644394
0.635531
0.635152
0.634642
0.622026
0.610199
0.595874
0.581178
0.553017
0.550511
0.548051
0.525732
0.51891
0.511131
0.500932
0.489843
0.479147
0.4613
0.453142
0.439823
0.425142
0.428491
0.417246
0.410004
0.395936
0.384123
0.372882
0.362038
0.351517
0.341243
0.331151
0.321191
0.311313
0.301487
0.291692
0.28191
0.272132
0.26235
0.252561
0.242762
0.232951
0.223127
0.21329
0.20344
0.193578
0.183705
0.173821
0.163929
0.154028
0.14412
0.134206
0.124284
0.114358
0.104426
0.0944889
0.0845477
0.0746027
0.0646546
0.0547043
0.0447524
0.0347988
0.0248424
0.0148742
0.00493129
0.743753
0.752868
0.744373
0.732399
0.720827
0.708769
0.697212
0.685974
0.674509
0.664115
0.654441
0.645451
0.637632
0.633498
0.629575
0.621514
0.611111
0.594582
0.574552
0.559072
0.553438
0.545476
0.538013
0.513251
0.50962
0.500379
0.489327
0.477503
0.464037
0.453686
0.442243
0.431172
0.426669
0.417116
0.406443
0.394894
0.383668
0.372397
0.3617
0.351348
0.341179
0.331145
0.321212
0.311346
0.301525
0.291728
0.281942
0.272158
0.262371
0.252575
0.24277
0.232953
0.223124
0.213282
0.203428
0.193563
0.183687
0.173802
0.163908
0.154007
0.144098
0.134183
0.124261
0.114335
0.104404
0.0944686
0.0845289
0.0745857
0.0646397
0.0546916
0.0447418
0.0347904
0.0248365
0.0148707
0.0049302
0.755128
0.751756
0.745135
0.734013
0.722715
0.708832
0.696336
0.685899
0.671721
0.66242
0.653762
0.645491
0.638361
0.632148
0.625644
0.617502
0.607835
0.595496
0.573267
0.563083
0.55521
0.546286
0.536834
0.521472
0.51067
0.500816
0.489829
0.475995
0.464972
0.456294
0.444521
0.433338
0.424783
0.416029
0.40539
0.391198
0.382101
0.371532
0.361127
0.350995
0.340973
0.331035
0.321164
0.311337
0.301538
0.291754
0.281974
0.272191
0.262401
0.252602
0.242791
0.232968
0.223133
0.213287
0.203428
0.193559
0.18368
0.173792
0.163896
0.153992
0.144082
0.134165
0.124244
0.114318
0.104387
0.0944519
0.0845133
0.0745715
0.0646272
0.0546808
0.0447328
0.0347834
0.0248314
0.0148678
0.00492931
0.75352
0.757241
0.746326
0.736492
0.730257
0.704108
0.693888
0.689141
0.663849
0.659364
0.652832
0.644528
0.638084
0.631125
0.623197
0.614444
0.604194
0.591975
0.577121
0.565073
0.552761
0.554931
0.539381
0.524537
0.510633
0.501694
0.489265
0.473314
0.466913
0.460179
0.445878
0.43307
0.424512
0.416632
0.410128
0.384639
0.379211
0.370158
0.360395
0.350534
0.340679
0.33086
0.32107
0.311299
0.301537
0.291775
0.282007
0.27223
0.262441
0.25264
0.242825
0.232997
0.223156
0.213303
0.203439
0.193566
0.183682
0.173791
0.163892
0.153985
0.144072
0.134154
0.124231
0.114304
0.104373
0.0944386
0.0845007
0.07456
0.0646169
0.0546717
0.0447252
0.0347774
0.0248272
0.0148654
0.0049286
0.753226
0.754751
0.744461
0.735868
0.726731
0.714757
0.686819
0.680303
0.666802
0.658032
0.653808
0.64122
0.638943
0.631082
0.622024
0.612447
0.602122
0.59102
0.580064
0.570384
0.559708
0.552891
0.540273
0.522883
0.509382
0.507755
0.482676
0.473607
0.46795
0.470684
0.442943
0.431266
0.424906
0.416154
0.402914
0.38914
0.3795
0.369609
0.359801
0.350071
0.340352
0.330653
0.320957
0.311253
0.301536
0.291802
0.282051
0.272282
0.262495
0.252691
0.242871
0.233037
0.223189
0.21333
0.203461
0.193581
0.183693
0.173797
0.163894
0.153984
0.144068
0.134147
0.124223
0.114295
0.104363
0.0944284
0.0844908
0.0745507
0.0646084
0.0546644
0.044719
0.0347726
0.0248238
0.0148635
0.00492808
0.762739
0.75681
0.742944
0.736088
0.726673
0.709752
0.689992
0.678905
0.666562
0.655297
0.663389
0.633151
0.64214
0.631365
0.621228
0.61083
0.600967
0.590178
0.578796
0.577218
0.565112
0.555199
0.530412
0.516826
0.512598
0.503682
0.488531
0.474999
0.463389
0.475219
0.444382
0.43701
0.425881
0.417132
0.400347
0.39036
0.379847
0.368943
0.359141
0.349548
0.340005
0.330447
0.320851
0.311219
0.30155
0.291848
0.282114
0.272351
0.262565
0.252757
0.242931
0.23309
0.223235
0.213368
0.203491
0.193606
0.183711
0.17381
0.163902
0.153987
0.144068
0.134145
0.124218
0.114289
0.104357
0.0944212
0.0844834
0.0745435
0.0646018
0.0546584
0.044714
0.0347687
0.0248211
0.0148622
0.00492774
0.765181
0.756245
0.745638
0.737736
0.729901
0.708168
0.688379
0.679675
0.66902
0.65936
0.655023
0.640272
0.638596
0.629341
0.620602
0.609337
0.600602
0.590471
0.577614
0.589471
0.565921
0.542051
0.529632
0.515219
0.519399
0.5056
0.49197
0.4758
0.465428
0.461736
0.448835
0.447972
0.424238
0.416512
0.404767
0.391522
0.380401
0.367455
0.358393
0.349065
0.339684
0.330274
0.320782
0.311223
0.301599
0.291924
0.282204
0.272446
0.262656
0.252842
0.243007
0.233156
0.223291
0.213415
0.20353
0.193637
0.183736
0.173828
0.163914
0.153995
0.144072
0.134146
0.124217
0.114286
0.104353
0.0944171
0.0844785
0.0745382
0.0645966
0.0546538
0.0447101
0.0347656
0.0248191
0.0148612
0.00492759
0.765455
0.75643
0.747432
0.740471
0.736135
0.705534
0.690542
0.680057
0.67094
0.661902
0.653939
0.646334
0.636245
0.626214
0.618045
0.60897
0.600982
0.591056
0.581141
0.578608
0.564394
0.547952
0.534306
0.522373
0.516854
0.506269
0.498608
0.47141
0.464808
0.455107
0.442587
0.446813
0.436557
0.41517
0.409379
0.391689
0.383023
0.364486
0.358016
0.348701
0.339425
0.330174
0.320788
0.311289
0.301702
0.292046
0.282332
0.27257
0.262773
0.252947
0.2431
0.233236
0.22336
0.213473
0.203577
0.193675
0.183765
0.17385
0.16393
0.154006
0.144079
0.13415
0.124219
0.114287
0.104352
0.0944146
0.0844751
0.0745344
0.0645928
0.0546502
0.044707
0.0347633
0.0248177
0.0148607
0.00492764
0.765128
0.755778
0.747175
0.739101
0.730708
0.718683
0.691072
0.680978
0.672189
0.663394
0.655027
0.64707
0.634872
0.621643
0.609393
0.612022
0.599674
0.588825
0.584569
0.576585
0.564082
0.550466
0.537923
0.52631
0.515311
0.50388
0.492737
0.477478
0.466555
0.455685
0.445294
0.436661
0.425185
0.425712
0.413841
0.398159
0.381724
0.366768
0.35706
0.348117
0.339306
0.330211
0.3209
0.311441
0.301875
0.292225
0.282506
0.272732
0.262918
0.253075
0.243211
0.233332
0.22344
0.21354
0.203632
0.193719
0.1838
0.173876
0.16395
0.154021
0.14409
0.134157
0.124223
0.114288
0.104352
0.0944134
0.0844732
0.0745319
0.06459
0.0546476
0.0447047
0.0347616
0.0248168
0.0148606
0.00492789
0.764113
0.754351
0.746215
0.737858
0.728637
0.717319
0.699444
0.68513
0.674435
0.665922
0.656929
0.646767
0.634181
0.621819
0.611523
0.605784
0.59423
0.582741
0.590763
0.578636
0.564674
0.552701
0.540572
0.528104
0.51396
0.502427
0.49113
0.479303
0.4682
0.457744
0.447541
0.436156
0.425565
0.420315
0.412802
0.405376
0.37755
0.364995
0.355978
0.347586
0.339476
0.330478
0.321159
0.311698
0.302132
0.292473
0.282735
0.272936
0.263096
0.253227
0.24334
0.23344
0.22353
0.213614
0.203694
0.193769
0.183839
0.173907
0.163972
0.154037
0.144101
0.134165
0.124229
0.114291
0.104353
0.0944127
0.0844717
0.0745299
0.0645877
0.0546454
0.0447029
0.0347604
0.0248166
0.0148609
0.00492835
0.762966
0.750978
0.746724
0.738504
0.72746
0.716515
0.703693
0.690311
0.678004
0.667863
0.658762
0.646319
0.632455
0.621846
0.611967
0.603745
0.595283
0.587419
0.581747
0.578103
0.566125
0.553531