/*--------------------------------*- C++ -*----------------------------------*\
  =========                 |
  \\      /  F ield         | OpenFOAM: The Open Source CFD Toolbox
   \\    /   O peration     | Website:  https://openfoam.org
    \\  /    A nd           | Version:  12
     \\/     M anipulation  |
\*---------------------------------------------------------------------------*/
FoamFile
{
    format      ascii;
    class       surfaceScalarField;
    location    "0.8";
    object      phi.water_0;
}
// * * * * * * * * * * * * * * * * * * * * * * * * * * * * * * * * * * * * * //

dimensions      [0 3 -1 0 0 0 0];

internalField   nonuniform List<scalar> 
7375
(
6.65843e-08
1.41655e-08
2.71018e-07
4.97049e-08
7.32383e-08
-5.66753e-08
8.93433e-08
-1.52137e-08
9.43699e-08
-4.98917e-09
9.74772e-08
-2.12749e-09
9.94968e-08
-2.07188e-09
8.35411e-08
1.4949e-08
1.20472e-07
-3.60777e-08
3.73866e-08
-2.38944e-09
2.8927e-08
8.27353e-09
1.06921e-07
6.79379e-09
9.23663e-08
1.45475e-08
9.73204e-08
-4.89257e-09
9.32688e-08
4.00594e-09
8.75527e-08
5.66806e-09
8.84058e-08
-8.2766e-10
7.99231e-08
9.31345e-09
6.37865e-08
1.61948e-08
8.82444e-08
-2.50609e-08
1.07776e-07
-1.95371e-08
1.73123e-07
-6.60324e-08
1.45049e-07
2.65835e-08
1.33205e-07
1.17257e-08
1.29422e-07
5.11562e-09
1.23936e-07
6.7629e-09
3.74665e-08
9.87522e-10
1.20376e-07
1.43731e-09
1.08983e-07
1.1621e-08
1.0843e-07
-6.13122e-10
9.19927e-08
1.62723e-08
9.49344e-08
-1.01346e-09
8.67905e-08
7.18035e-09
8.87329e-08
-2.81848e-09
9.91289e-08
-9.49698e-09
7.89241e-08
2.01866e-08
8.01668e-08
-1.26803e-09
5.15381e-08
2.91813e-08
3.52108e-08
1.63326e-08
5.33767e-08
-1.81821e-08
-7.73901e-09
6.04812e-08
-3.79668e-08
3.06473e-08
-5.02199e-08
1.21329e-08
-6.58249e-08
1.61419e-08
-6.82643e-08
1.73213e-09
-8.16906e-08
1.26663e-08
-8.41249e-08
4.06482e-09
-8.15302e-08
-1.75316e-09
-7.28113e-08
-8.71914e-09
-6.39781e-08
-8.83265e-09
-5.3506e-08
-1.04724e-08
-4.55496e-08
-7.95582e-09
-3.79012e-08
-7.64869e-09
-3.13171e-08
-6.58353e-09
-2.45178e-08
-6.79961e-09
-1.72314e-08
-7.28587e-09
-1.03945e-08
-6.83726e-09
-3.92795e-09
-6.46607e-09
1.56267e-09
-5.49102e-09
6.73477e-09
-5.17165e-09
1.20473e-08
-5.31297e-09
1.82561e-08
-6.20852e-09
2.58945e-08
-7.63891e-09
3.4976e-08
-9.0813e-09
4.4766e-08
-9.79073e-09
5.29046e-08
-8.13861e-09
5.60476e-08
-3.14371e-09
5.07531e-08
5.29467e-09
3.8442e-08
1.23107e-08
2.27233e-08
1.57191e-08
6.2931e-09
1.643e-08
-8.80906e-09
1.5102e-08
-2.41208e-08
1.53108e-08
-3.68612e-08
1.27392e-08
4.21397e-09
1.00963e-07
-1.0558e-08
1.36396e-07
1.40525e-08
9.02278e-08
-1.21291e-08
1.01794e-07
-2.75294e-08
9.91479e-08
-1.31479e-09
9.63173e-08
1.69764e-09
1.00644e-07
-6.31312e-09
1.19581e-07
-2.7391e-09
1.2659e-07
-4.3536e-08
6.41475e-08
6.00954e-08
5.04732e-08
2.2242e-08
4.31552e-08
1.30716e-08
5.79621e-08
-1.29087e-09
1.11277e-07
-5.99367e-08
8.77411e-08
2.75022e-08
9.40097e-08
2.85709e-10
1.09487e-07
-1.55045e-08
1.29859e-07
-9.7335e-09
6.88561e-08
-8.69532e-09
9.86054e-08
2.95522e-08
4.87157e-08
3.08496e-08
2.13933e-07
2.59281e-08
8.64321e-08
-1.03269e-07
8.19796e-08
1.53142e-08
8.73922e-08
5.30878e-10
7.34694e-08
2.08278e-08
6.43473e-08
1.08591e-08
6.31686e-08
4.5814e-09
6.46475e-08
1.08306e-08
5.76472e-08
4.44037e-09
6.25115e-08
9.77652e-09
5.02801e-08
1.13415e-08
5.74815e-08
4.09924e-10
4.4991e-08
1.03351e-08
4.58293e-08
-1.0442e-08
4.38223e-08
2.21937e-08
2.52747e-08
1.74575e-08
1.01061e-08
4.43499e-08
-3.16522e-08
5.76013e-08
1.21495e-07
8.34684e-08
-5.88791e-08
-1.31655e-08
-4.64421e-08
1.78978e-08
-3.15384e-08
-1.96353e-09
-4.14656e-08
2.59078e-08
-3.52801e-08
-4.45332e-09
-3.01624e-08
7.29545e-09
-2.77817e-08
1.64345e-09
-2.96143e-08
7.96421e-11
-3.14817e-08
-6.85169e-09
-3.30945e-08
-7.21964e-09
-3.54398e-08
-8.1271e-09
-3.88813e-08
-4.51403e-09
-4.40614e-08
-2.46857e-09
-5.00942e-08
-5.50535e-10
-5.47517e-08
-2.14207e-09
-5.60396e-08
-5.99776e-09
-5.49042e-08
-7.97267e-09
-5.24998e-08
-8.87031e-09
-4.9629e-08
-8.36194e-09
-4.67796e-08
-8.02092e-09
-4.27368e-08
-9.35585e-09
-3.59076e-08
-1.30378e-08
-2.59196e-08
-1.76272e-08
-1.3683e-08
-2.1318e-08
-6.72394e-10
-2.28017e-08
1.07793e-08
-1.95906e-08
1.69455e-08
-9.3103e-09
1.42492e-08
7.99082e-09
2.98487e-09
2.35749e-08
-1.33833e-08
3.20874e-08
-3.11398e-08
3.41864e-08
-4.4125e-08
2.80868e-08
-5.01772e-08
2.13619e-08
-5.22027e-08
1.47635e-08
3.49443e-09
9.09356e-09
2.70035e-08
5.25948e-09
1.79424e-08
-1.63181e-08
9.50894e-09
-3.94648e-08
-4.49531e-09
-8.86147e-09
-3.19178e-08
9.04418e-09
-1.61361e-08
1.80899e-08
-1.54499e-08
2.8174e-10
1.54104e-08
1.71869e-07
4.26787e-08
2.43657e-09
-2.65395e-08
3.20394e-08
-7.80988e-09
3.17451e-08
1.35595e-08
1.2234e-08
1.83452e-08
1.82178e-07
2.45342e-08
-4.77432e-09
-3.9629e-08
2.52634e-08
-2.95399e-08
6.26615e-08
-5.4016e-08
1.20656e-08
4.03464e-08
-4.0148e-08
4.31941e-08
-3.6698e-08
2.65162e-08
-3.35434e-08
2.77272e-08
-4.48777e-08
3.69952e-08
9.89323e-08
6.65884e-09
-6.30531e-08
-7.42673e-08
-6.20275e-08
-1.12108e-09
-6.33815e-08
2.15351e-08
-7.04362e-08
1.80258e-08
-6.67142e-08
1.53118e-09
-5.02981e-08
-5.80652e-09
-7.65608e-09
-3.86869e-08
-1.50341e-08
1.72542e-08
-5.66772e-08
-3.10847e-08
-4.40576e-08
7.05443e-08
-6.37762e-08
2.89422e-08
-8.82314e-08
1.46705e-08
-8.40568e-08
1.82479e-08
-1.03423e-07
3.68236e-08
-8.90406e-08
3.07093e-08
-7.75262e-08
4.64043e-08
-4.36052e-08
4.86535e-08
-7.53551e-08
1.85844e-08
-7.25667e-08
1.47516e-08
-7.74069e-08
2.87662e-09
-6.1838e-08
1.03389e-08
-6.37236e-08
-2.56767e-09
-5.89351e-08
2.50709e-09
-5.51219e-08
-2.16968e-09
-5.31553e-08
-1.8868e-09
-5.40686e-08
-5.93832e-09
-5.45706e-08
-6.71749e-09
-5.7122e-08
-5.57556e-09
-6.13428e-08
-2.93121e-10
-6.79222e-08
4.1109e-09
-7.50137e-08
6.54111e-09
-8.15682e-08
4.41253e-09
-8.60425e-08
-1.52335e-09
-8.79601e-08
-6.05494e-09
-8.89725e-08
-7.85788e-09
-8.96225e-08
-7.71194e-09
-8.90868e-08
-8.55655e-09
-8.55184e-08
-1.29243e-08
-7.83594e-08
-2.01968e-08
-7.00029e-08
-2.59838e-08
-6.27031e-08
-2.8618e-08
-5.71786e-08
-2.83265e-08
-5.46381e-08
-2.21314e-08
-5.60236e-08
-7.92507e-09
-6.06146e-08
1.25815e-08
-6.49698e-08
2.79299e-08
-6.6783e-08
3.39006e-08
-6.58358e-08
3.3239e-08
-6.21086e-08
2.43591e-08
-5.93186e-08
1.85707e-08
-5.64277e-08
1.18713e-08
1.53035e-09
-3.62938e-10
1.12655e-08
7.58422e-09
9.62646e-09
2.39017e-08
-6.83511e-09
-3.57698e-08
-2.92675e-08
2.04948e-08
-4.48185e-09
-7.58011e-09
1.18634e-08
-2.19912e-08
-1.49784e-09
-2.45829e-08
1.77251e-08
1.24336e-08
5.53298e-09
-3.51296e-08
2.0897e-08
-5.76885e-08
1.48207e-08
-3.93316e-08
-4.79721e-09
-3.98054e-08
1.88191e-08
-3.97343e-08
2.38897e-08
-9.07992e-08
1.09097e-08
-1.2479e-07
3.75769e-09
1.0684e-08
7.06585e-08
-1.44921e-07
-5.85559e-08
-6.73959e-08
-3.47718e-08
-9.84002e-08
5.66719e-08
-9.60635e-08
2.53906e-08
-7.03331e-08
1.08874e-08
3.56793e-09
-6.79352e-08
-4.32269e-08
-2.77892e-08
-8.90296e-08
4.46817e-08
-8.79144e-08
1.95117e-08
-8.42581e-08
1.41856e-08
-1.02085e-07
1.95572e-08
-1.0549e-07
-3.4773e-09
6.39741e-08
4.87594e-08
-1.50664e-07
-2.28171e-08
2.26402e-08
4.9168e-08
-1.03717e-07
-5.35664e-08
-8.42948e-08
8.08366e-09
-9.13229e-08
2.08297e-08
-9.73395e-08
2.42645e-08
-7.59048e-08
1.67805e-08
-8.12286e-08
3.68533e-08
-7.32668e-08
3.79785e-08
-5.2568e-08
2.79546e-08
-5.52895e-08
2.13059e-08
-5.61164e-08
1.55785e-08
-5.96169e-08
6.37717e-09
-5.38809e-08
4.60301e-09
-5.71283e-08
6.79711e-10
-5.46027e-08
-1.84115e-11
-5.46849e-08
-2.08736e-09
-5.30248e-08
-3.54678e-09
-5.38373e-08
-5.1257e-09
-5.53517e-08
-5.203e-09
-5.82036e-08
-2.72347e-09
-6.17398e-08
3.24318e-09
-6.72415e-08
9.61268e-09
-7.40347e-08
1.33345e-08
-8.19509e-08
1.23288e-08
-8.99946e-08
6.52048e-09
-9.6022e-08
-2.74534e-11
-9.98365e-08
-4.04331e-09
-1.01765e-07
-5.783e-09
-1.01347e-07
-8.97449e-09
-9.7099e-08
-1.71729e-08
-9.07999e-08
-2.64959e-08
-8.6106e-08
-3.06778e-08
-8.33731e-08
-3.13511e-08
-8.3761e-08
-2.79388e-08
-8.80041e-08
-1.78887e-08
-9.27273e-08
-3.20214e-09
-9.29526e-08
1.28065e-08
-8.8714e-08
2.36911e-08
-8.20988e-08
2.72854e-08
-7.30259e-08
2.41658e-08
-6.61542e-08
1.74868e-08
-6.2003e-08
1.44182e-08
-5.8717e-08
8.58399e-09
4.16151e-11
-2.67322e-08
3.21747e-08
-1.81372e-08
1.21758e-09
-2.36732e-09
-2.26042e-08
-1.59064e-08
-1.57521e-08
1.27677e-08
-3.33315e-08
1.00426e-08
1.45615e-08
-9.26751e-09
1.81952e-08
-1.51318e-08
2.34951e-08
1.21467e-08
-2.2187e-08
-3.50854e-08
6.76475e-08
-1.32914e-07
2.70124e-08
-8.48405e-08
3.32488e-08
-8.46645e-08
1.69158e-08
-1.64195e-07
1.86014e-08
-9.33979e-08
2.71161e-08
-9.53712e-08
4.77827e-09
-5.46342e-08
2.84799e-08
-1.17677e-07
4.48666e-09
5.83376e-08
4.24751e-08
-9.06695e-08
-4.60425e-08
-7.45879e-08
8.38401e-09
-8.46817e-08
2.01173e-08
4.25258e-08
6.17678e-08
6.17548e-08
-4.7941e-08
-1.3352e-07
-1.38771e-08
-1.04351e-07
-9.65761e-09
-9.96209e-08
8.43941e-09
-1.62835e-07
-2.86538e-09
-9.51945e-08
1.53064e-08
-5.35283e-08
7.14181e-09
-8.15166e-08
5.99435e-09
-1.44091e-08
-1.86172e-08
-4.89772e-08
-1.91902e-08
-4.55072e-08
3.65947e-09
-4.13337e-08
1.60219e-08
-4.22848e-08
2.53897e-08
-1.59551e-08
-9.54928e-09
-5.33459e-08
7.44053e-08
-5.53717e-08
4.05376e-08
-4.99615e-08
2.25444e-08
-4.44711e-08
1.58156e-08
-3.96598e-08
1.07671e-08
-3.92266e-08
5.94402e-09
-3.82702e-08
3.64663e-09
-3.84681e-08
8.77723e-10
-3.76819e-08
-8.04586e-10
-3.73785e-08
-2.39061e-09
-3.81635e-08
-2.76174e-09
-4.01258e-08
-3.16329e-09
-4.36916e-08
-1.63708e-09
-4.85323e-08
2.11741e-09
-5.32738e-08
7.98476e-09
-5.83638e-08
1.47027e-08
-6.45742e-08
1.9545e-08
-7.23284e-08
2.00831e-08
-8.1561e-08
1.57531e-08
-9.08464e-08
9.25806e-09
-9.78509e-08
2.96122e-09
-1.01018e-07
-2.61606e-09
-9.99338e-08
-1.00585e-08
-9.5178e-08
-2.19287e-08
-9.0928e-08
-3.0746e-08
-8.85548e-08
-3.30511e-08
-8.74941e-08
-3.2412e-08
-8.98646e-08
-2.55686e-08
-9.46854e-08
-1.30681e-08
-9.7694e-08
-1.93853e-10
-9.5019e-08
1.01312e-08
-8.82002e-08
1.68722e-08
-7.9613e-08
1.86979e-08
-7.14524e-08
1.60048e-08
-6.62712e-08
1.23048e-08
-6.24208e-08
1.05664e-08
-6.00053e-08
6.16709e-09
-5.32066e-10
-6.93545e-08
-5.96644e-08
-4.94381e-08
-1.94053e-08
-4.00479e-08
-3.25564e-08
-2.49745e-08
-3.0825e-08
-2.90433e-09
-5.65249e-08
-3.709e-08
4.85199e-08
-6.25213e-08
4.30436e-08
-8.38858e-08
4.48818e-08
6.15602e-08
9.03711e-08
-1.03254e-07
-2.22287e-08
-1.05506e-07
2.89892e-08
-1.01874e-07
2.96167e-08
-1.07334e-07
2.23756e-08
-1.21305e-07
3.21934e-08
-8.71645e-08
-6.74784e-09
-7.50097e-08
-7.37642e-09
-5.93095e-08
1.26508e-08
-5.28098e-08
-1.47419e-09
-1.57812e-08
5.44654e-09
-2.80277e-08
-3.47814e-08
-7.71853e-08
5.75417e-08
-8.00541e-08
2.29862e-08
-6.42375e-08
4.42147e-08
1.16381e-07
2.83509e-08
-1.60388e-07
-7.73477e-08
-9.02495e-08
4.96674e-09
-9.2772e-08
1.09619e-08
-1.08957e-07
1.33486e-08
-9.97547e-08
6.10436e-09
-8.45455e-08
-8.15058e-09
-8.67848e-08
8.29483e-09
-8.26984e-08
-2.31296e-08
-9.48456e-08
-7.2388e-09
-7.08362e-08
-1.959e-08
-7.73569e-08
2.23807e-08
-9.49533e-08
4.17707e-08
7.61398e-08
7.28705e-08
-8.48808e-08
-1.52843e-08
-5.37474e-08
9.40426e-09
-4.40228e-08
1.28197e-08
-3.81079e-08
9.90064e-09
-3.37468e-08
6.406e-09
-3.27359e-08
4.93316e-09
-3.12714e-08
2.18215e-09
-3.11528e-08
7.59186e-10
-3.15446e-08
-4.1269e-10
-3.26586e-08
-1.27653e-09
-3.40669e-08
-1.3533e-09
-3.64353e-08
-7.94841e-10
-3.98563e-08
1.78401e-09
-4.39998e-08
6.26109e-09
-4.79061e-08
1.18911e-08
-5.12988e-08
1.80956e-08
-5.43258e-08
2.25722e-08
-5.81064e-08
2.38638e-08
-6.38797e-08
2.15265e-08
-7.07585e-08
1.6137e-08
-7.72873e-08
9.48997e-09
-8.18549e-08
1.95161e-09
-8.30172e-08
-8.89622e-09
-8.14525e-08
-2.34933e-08
-8.04176e-08
-3.1781e-08
-8.01339e-08
-3.33348e-08
-8.16311e-08
-3.0915e-08
-8.55666e-08
-2.16332e-08
-8.93506e-08
-9.28445e-09
-9.00134e-08
4.68742e-10
-8.67036e-08
6.82104e-09
-8.04826e-08
1.06509e-08
-7.38119e-08
1.2027e-08
-6.88232e-08
1.10157e-08
-6.53941e-08
8.87489e-09
-6.24565e-08
7.62743e-09
-6.08571e-08
4.56627e-09
-6.22236e-10
-9.86409e-08
-1.56189e-09
-9.95533e-08
-1.95073e-08
-1.35539e-07
3.46563e-09
-1.51559e-07
-1.68579e-08
-1.23901e-08
6.38926e-08
-1.84466e-07
-3.48273e-08
-1.63148e-07
2.1282e-08
-1.43162e-07
2.5839e-08
-1.03495e-07
5.08376e-08
-1.12579e-07
-1.31439e-08
-1.01069e-07
1.61658e-08
-9.61976e-08
2.47452e-08
-1.11287e-07
3.74648e-08
-1.11418e-07
3.23245e-08
-9.91708e-08
-1.89946e-08
-3.99206e-08
-6.62192e-08
-6.47402e-08
3.70959e-08
-7.01392e-08
3.29808e-09
-8.19571e-08
1.6484e-08
7.45158e-08
6.56564e-08
-8.87832e-08
-3.42091e-08
-8.86718e-08
2.35394e-08
-5.27218e-08
8.26473e-09
-2.17239e-08
-3.47401e-09
-3.83184e-08
-6.07532e-08
-7.68948e-08
4.31035e-08
-7.68016e-08
1.08687e-08
-8.31697e-08
1.97167e-08
-9.36683e-08
1.56474e-08
-1.19709e-07
1.78899e-08
-1.12845e-07
1.50066e-09
-1.00246e-07
-3.61007e-08
-1.37134e-07
3.06725e-08
-1.0791e-07
-4.93172e-08
-9.69825e-08
1.26707e-08
-1.12525e-07
5.73131e-08
-5.88397e-08
1.86375e-08
-8.22335e-08
8.69773e-09
-7.75057e-08
4.67643e-09
-7.03638e-08
5.67778e-09
-6.58153e-08
5.3521e-09
-6.16026e-08
2.19335e-09
-5.83985e-08
1.72913e-09
-5.60516e-08
-1.6479e-10
-5.46643e-08
-6.27995e-10
-5.4143e-08
-9.33985e-10
-5.36475e-08
-1.77195e-09
-5.30118e-08
-1.98886e-09
-5.26896e-08
-1.11693e-09
-5.28075e-08
1.90203e-09
-5.29374e-08
6.39111e-09
-5.3266e-08
1.22198e-08
-5.31208e-08
1.79504e-08
-5.24951e-08
2.19465e-08
-5.18163e-08
2.31851e-08
-5.20009e-08
2.17112e-08
-5.36852e-08
1.78213e-08
-5.67869e-08
1.25917e-08
-6.06373e-08
5.80202e-09
-6.45269e-08
-5.00661e-09
-6.8179e-08
-1.98412e-08
-7.07227e-08
-2.92374e-08
-7.30436e-08
-3.10139e-08
-7.61598e-08
-2.77989e-08
-7.96475e-08
-1.81457e-08
-8.17965e-08
-7.13578e-09
-8.11847e-08
-1.43358e-10
-7.8192e-08
3.8281e-09
-7.42711e-08
6.7298e-09
-7.04754e-08
8.23104e-09
-6.72457e-08
7.78554e-09
-6.48256e-08
6.45391e-09
-6.27164e-08
5.51681e-09
-6.15378e-08
3.38631e-09
-5.65272e-10
-1.77989e-07
4.83581e-09
-1.7396e-07
6.19006e-08
-1.85325e-07
1.08636e-08
-2.28672e-07
2.87189e-08
-1.69066e-07
7.64857e-09
-1.63788e-07
-4.01054e-08
-1.91537e-07
5.02554e-08
-1.72542e-07
6.84438e-09
-1.49144e-07
2.54209e-08
-1.50254e-07
-1.06357e-08
-8.63273e-08
-4.77603e-08
-1.0805e-07
4.51268e-08
-1.45897e-07
-9.45083e-09
-1.27752e-07
1.41793e-08
-1.70244e-07
2.3498e-08
4.10045e-08
6.11664e-08
-1.11043e-07
-6.33246e-08
-6.01893e-08
-4.92075e-08
-3.88238e-08
-4.26734e-09
-3.81873e-08
6.37002e-08
-9.06329e-08
1.91612e-08
-8.79126e-08
2.08191e-08
-8.37837e-08
3.32334e-09
-9.17172e-08
4.45959e-09
5.28712e-08
4.84086e-08
-1.05762e-07
-4.94856e-08
-8.06224e-08
-1.53494e-08
-7.20443e-08
1.10261e-08
-8.23801e-08
2.57207e-08
-9.02373e-08
2.55646e-08
-1.30575e-07
4.05067e-08
2.0559e-08
7.00475e-08
-2.04282e-07
-1.07009e-09
-7.48948e-08
7.74083e-08
-6.01065e-08
-1.35362e-09
-1.91008e-07
-6.54904e-08
-1.05307e-07
-6.66688e-08
-1.19855e-07
2.42982e-08
-1.13894e-07
-1.28451e-09
-1.06099e-07
-2.11747e-09
-9.88494e-08
-1.89738e-09
-9.36266e-08
-3.02943e-09
-8.93696e-08
-2.52783e-09
-8.64749e-08
-3.05942e-09
-8.42941e-08
-2.80876e-09
-8.307e-08
-2.15804e-09
-8.2107e-08
-2.73485e-09
-8.10835e-08
-3.01231e-09
-8.03255e-08
-1.87479e-09
-7.89464e-08
5.23027e-10
-7.56649e-08
3.10966e-09
-7.05591e-08
7.11412e-09
-6.41508e-08
1.15422e-08
-5.76162e-08
1.54119e-08
-5.23694e-08
1.79384e-08
-4.83582e-08
1.77e-08
-4.60122e-08
1.54753e-08
-4.60111e-08
1.25906e-08
-4.84979e-08
8.28888e-09
-5.33252e-08
-1.79289e-10
-6.02191e-08
-1.29473e-08
-6.56485e-08
-2.38081e-08
-6.94896e-08
-2.71728e-08
-7.23877e-08
-2.4901e-08
-7.46885e-08
-1.5845e-08
-7.57748e-08
-6.04973e-09
-7.49294e-08
-9.89048e-10
-7.29841e-08
1.88255e-09
-7.07002e-08
4.44556e-09
-6.83997e-08
5.93027e-09
-6.62207e-08
5.60608e-09
-6.44572e-08
4.68958e-09
-6.29514e-08
4.00952e-09
-6.20648e-08
2.49836e-09
-4.81796e-10
-2.08767e-07
4.53889e-08
-2.3472e-07
4.58903e-09
-1.76176e-07
3.70841e-08
-1.89762e-07
3.98973e-08
-1.99159e-07
1.89823e-08
-3.02088e-08
4.5542e-08
-1.85091e-07
-4.61184e-08
-1.65386e-07
-1.28601e-08
-1.32374e-07
-7.59095e-09
-1.67634e-07
2.32742e-08
3.15826e-08
6.43761e-09
-1.21113e-07
-5.38987e-08
-1.39908e-07
8.10796e-09
-1.19336e-07
-6.32772e-09
-1.19047e-07
2.32088e-08
-8.17148e-08
2.40803e-08
-1.36547e-07
-1.05316e-08
-1.06618e-08
8.23253e-08
1.45447e-09
-1.62896e-08
-8.96619e-08
-9.78936e-08
-1.08066e-07
3.66505e-08
-8.15093e-08
-5.46928e-09
-9.15556e-08
1.33698e-08
-9.57628e-08
8.6668e-09
-4.51625e-08
-1.71351e-09
-5.0232e-08
-4.49157e-08
-4.95607e-08
-1.60275e-08
-4.70434e-08
8.89408e-09
-4.58473e-08
2.42948e-08
-4.50544e-08
2.43039e-08
-4.20814e-08
3.71546e-08
-1.71436e-08
4.43951e-08
-5.3413e-08
3.53832e-08
-5.34902e-09
2.8277e-08
-6.61405e-08
5.93832e-08
-1.29227e-07
-3.72271e-09
5.2435e-08
8.03966e-09
-1.03194e-07
-7.10364e-08
-8.12368e-08
-2.34765e-08
-6.98737e-08
-1.34806e-08
-6.5362e-08
-6.40909e-09
-6.42134e-08
-4.17803e-09
-6.56218e-08
-1.11941e-09
-6.74159e-08
-1.26522e-09
-6.89672e-08
-1.25745e-09
-6.99855e-08
-1.13963e-09
-7.18714e-08
-8.48914e-10
-7.4447e-08
-4.36609e-10
-7.76643e-08
1.34258e-09
-7.99068e-08
2.76566e-09
-8.02971e-08
3.50002e-09
-7.76245e-08
4.44156e-09
-7.19082e-08
5.82598e-09
-6.36237e-08
7.12748e-09
-5.42288e-08
8.54358e-09
-4.5659e-08
9.1303e-09
-3.98174e-08
9.63376e-09
-3.74506e-08
1.02238e-08
-3.84828e-08
9.32112e-09
-4.33715e-08
4.70942e-09
-5.13819e-08
-4.93698e-09
-5.89799e-08
-1.621e-08
-6.35218e-08
-2.2631e-08
-6.68273e-08
-2.15956e-08
-6.97081e-08
-1.29644e-08
-7.11619e-08
-4.59619e-09
-7.12096e-08
-9.41579e-10
-7.03442e-08
1.01683e-09
-6.88444e-08
2.94549e-09
-6.71828e-08
4.2684e-09
-6.55847e-08
4.00756e-09
-6.42465e-08
3.35048e-09
-6.31297e-08
2.89124e-09
-6.2452e-08
1.81935e-09
-3.95784e-10
-2.39156e-07
-3.31622e-09
-1.73681e-07
2.1222e-08
-1.60095e-07
2.18659e-08
-1.3376e-07
1.47893e-08
-1.19798e-07
5.07194e-09
-1.4575e-07
-1.1782e-08
-1.09717e-07
2.37489e-09
-1.10907e-07
-1.27778e-08
-1.06802e-07
-1.29055e-08
-1.59895e-07
-6.76459e-09
-5.91833e-08
-1.03664e-08
-9.29047e-08
-2.13308e-08
-1.61015e-07
-6.83221e-09
-9.44091e-08
1.09734e-08
-1.0042e-07
2.69577e-08
-1.55989e-07
-5.98774e-09
-7.2692e-08
-7.4741e-09
-7.20657e-08
8.00426e-08
-1.0615e-07
1.67118e-08
2.57104e-08
2.642e-08
-1.62569e-07
-1.13888e-07
-1.06732e-07
2.26009e-08
-9.64793e-08
2.02831e-09
-1.40282e-07
-3.08622e-08
-6.4986e-08
6.89738e-09
-8.34667e-08
-2.75563e-08
-2.87337e-08
-7.04673e-08
-6.39781e-08
4.31465e-08
-6.44957e-08
2.44034e-08
-6.5794e-08
2.66594e-08
-4.24825e-08
1.38431e-08
-9.72768e-09
1.13061e-08
-1.50814e-08
4.04804e-08
1.18579e-08
1.48594e-09
-2.04794e-08
7.00669e-09
-4.17202e-08
1.73411e-08
-9.51868e-09
6.11431e-08
-5.46757e-08
-2.66041e-08
-6.65755e-08
-1.1137e-08
-6.65062e-08
-1.30143e-08
-6.85599e-08
-4.35543e-09
-7.06329e-08
-2.10495e-09
-7.16472e-08
-1.05111e-10
-7.23707e-08
-5.41697e-10
-7.30714e-08
-5.56646e-10
-7.34935e-08
-7.17514e-10
-7.46378e-08
2.95484e-10
-7.65609e-08
1.48654e-09
-7.8289e-08
3.07071e-09
-7.90152e-08
3.49194e-09
-7.82569e-08
2.74182e-09
-7.49386e-08
1.12332e-09
-6.86888e-08
-4.23787e-10
-5.9643e-08
-1.9182e-09
-4.87655e-08
-2.33393e-09
-3.79451e-08
-1.69003e-09
-2.94312e-08
1.11988e-09
-2.44705e-08
5.26312e-09
-2.32628e-08
8.11342e-09
-2.55328e-08
6.97935e-09
-3.18887e-08
1.41894e-09
-4.10888e-08
-7.00993e-09
-5.02001e-08
-1.35199e-08
-5.84886e-08
-1.33073e-08
-6.43466e-08
-7.10653e-09
-6.71117e-08
-1.83132e-09
-6.82617e-08
2.08152e-10
-6.83649e-08
1.11982e-09
-6.75407e-08
2.12098e-09
-6.62484e-08
2.97582e-09
-6.50502e-08
2.80896e-09
-6.40662e-08
2.36564e-09
-6.32312e-08
2.05478e-09
-6.27233e-08
1.31013e-09
-3.10794e-10
-2.07727e-07
-1.98383e-08
-1.29061e-07
-5.8627e-08
-1.40219e-07
3.28032e-08
-1.43952e-07
1.57856e-08
-1.29945e-07
-9.02843e-09
-1.34045e-07
-4.98798e-09
-1.18958e-07
-1.2688e-08
-1.16666e-07
-1.6414e-08
-1.09023e-07
-2.05484e-08
-1.06455e-07
-9.33258e-09
-8.5295e-08
-3.19577e-08
-8.49824e-08
-2.05665e-08
-9.96869e-08
7.87243e-09
-7.87618e-08
-1.00532e-08
-6.80931e-08
1.61262e-08
-1.10624e-07
3.59092e-08
7.47829e-08
6.06462e-08
-6.99996e-08
-2.68965e-08
-7.4923e-08
2.01568e-08
-6.60577e-08
1.66017e-08
2.91484e-08
4.84969e-08
-1.32945e-07
-6.96624e-08
-1.01784e-07
-2.91327e-08
-1.07511e-07
-2.53934e-08
-8.74461e-08
-1.30976e-08
-1.74967e-07
-2.47984e-08
8.38449e-08
8.91815e-09
-1.15893e-07
-8.31759e-09
-8.92373e-08
-2.74503e-09
-7.4024e-08
1.14461e-08
-5.96712e-08
-1.12371e-09
-4.45972e-08
-3.34717e-09
-2.32769e-08
1.91405e-08
-2.28556e-08
1.06464e-09
-3.58679e-08
2.0612e-08
-1.56803e-08
-3.40147e-09
-4.31541e-08
2.81849e-09
-1.46959e-08
3.01411e-08
-4.30334e-08
1.72006e-08
-6.21646e-08
6.55139e-09
-6.63815e-08
4.82995e-10
-7.34308e-08
4.94439e-09
-7.82109e-08
4.67502e-09
-8.12892e-08
2.53666e-09
-8.32737e-08
1.4279e-09
-8.43989e-08
4.07729e-10
-8.48626e-08
7.59291e-10
-8.50101e-08
1.63407e-09
-8.42487e-08
2.30934e-09
-8.23166e-08
1.55993e-09
-7.89516e-08
-6.23113e-10
-7.28881e-08
-4.94016e-09
-6.38507e-08
-9.46115e-09
-5.29129e-08
-1.28559e-08
-4.19332e-08
-1.33136e-08
-3.18364e-08
-1.17868e-08
-2.37166e-08
-6.9999e-09
-1.85046e-08
5.10811e-11
-1.66781e-08
6.28697e-09
-1.80103e-08
8.31157e-09
-2.26913e-08
6.09988e-09
-3.13566e-08
1.65534e-09
-4.34352e-08
-1.44137e-09
-5.56182e-08
-1.12433e-09
-6.33365e-08
6.11578e-10
-6.64843e-08
1.31628e-09
-6.75452e-08
1.26882e-09
-6.76667e-08
1.24106e-09
-6.69874e-08
1.44152e-09
-6.57403e-08
1.72837e-09
-6.46909e-08
1.75913e-09
-6.39455e-08
1.61938e-09
-6.33044e-08
1.41223e-09
-6.2917e-08
9.21375e-10
-2.34289e-10
-1.34129e-07
3.31209e-08
8.56572e-09
5.55898e-08
-1.40684e-07
-7.26826e-08
-1.04041e-07
-2.17052e-08
-9.33125e-08
-1.85913e-08
-8.67236e-08
-1.06247e-08
-6.36611e-08
-3.62495e-08
-6.01721e-08
-1.99029e-08
-6.96418e-08
-1.11927e-08
-6.70502e-08
-1.26081e-08
-8.40336e-08
-1.4108e-08
-4.48541e-08
-5.94981e-08
-5.66276e-08
1.92687e-08
-7.56389e-08
9.83014e-09
-5.74241e-08
-1.92568e-09
-5.79933e-08
3.55302e-08
-1.04461e-08
1.30991e-08
-3.04825e-08
-7.13432e-09
-3.70262e-08
2.67005e-08
-2.77972e-08
7.2034e-09
-8.26058e-09
2.84656e-08
-6.76772e-08
-1.02457e-08
-7.58354e-08
-2.17481e-08
-9.36828e-08
-7.54597e-09
-1.01537e-07
-4.28714e-09
-1.29982e-07
3.64607e-09
8.86306e-08
4.3691e-08
-1.04405e-07
-6.60331e-08
-7.52586e-08
-3.29459e-08
-5.12335e-08
-1.30964e-08
-5.00938e-08
-2.77454e-09
-6.23389e-08
9.54049e-09
-3.50909e-08
-6.93031e-09
-5.73927e-08
2.30013e-08
-3.42855e-08
-3.18775e-09
-4.87311e-08
1.10091e-08
-8.26677e-08
3.72234e-08
-7.01297e-08
1.74253e-08
-8.06038e-08
2.82093e-08
-8.47334e-08
1.14214e-08
-9.25816e-08
8.33119e-09
-9.64555e-08
8.81825e-09
-9.83181e-08
6.53765e-09
-9.90922e-08
3.31084e-09
-9.86913e-08
1.02709e-09
-9.80989e-08
-1.84629e-10
-9.59864e-08
-1.35322e-09
-9.36125e-08
-7.39738e-10
-9.03266e-08
-9.76529e-10
-8.53152e-08
-3.4514e-09
-7.80256e-08
-7.91272e-09
-6.92214e-08
-1.37443e-08
-5.94228e-08
-1.92597e-08
-4.92191e-08
-2.30596e-08
-3.90749e-08
-2.34578e-08
-3.01652e-08
-2.06965e-08
-2.34315e-08
-1.37336e-08
-1.96351e-08
-3.74535e-09
-1.93626e-08
6.01449e-09
-2.27116e-08
1.16605e-08
-2.89845e-08
1.23729e-08
-3.84118e-08
1.10826e-08
-4.97847e-08
9.93142e-09
-5.90534e-08
8.14424e-09
-6.39693e-08
5.52739e-09
-6.60533e-08
3.40004e-09
-6.67897e-08
2.00499e-09
-6.67739e-08
1.22502e-09
-6.61655e-08
8.32886e-10
-6.52105e-08
7.73139e-10
-6.44174e-08
9.6557e-10
-6.38324e-08
1.03353e-09
-6.33381e-08
9.16484e-10
-6.3046e-08
6.27958e-10
-1.65456e-10
9.93902e-08
-8.38908e-10
8.95923e-08
-2.08557e-08
1.00845e-07
-1.04557e-09
9.98676e-08
-1.9689e-08
9.90219e-08
-1.65368e-08
8.25331e-08
-7.88615e-08
7.94523e-08
5.24684e-08
2.95524e-08
2.94881e-08
6.6124e-09
1.16276e-08
-1.01741e-09
-5.04566e-09
-5.06694e-08
3.51711e-08
9.27387e-08
5.39472e-08
-1.01592e-07
-4.31122e-08
-9.97883e-08
8.02628e-09
-1.13981e-07
1.44278e-08
-8.07221e-08
2.27178e-09
-7.85213e-08
1.00749e-08
-8.84762e-08
2.8206e-09
-7.51712e-08
1.33956e-08
-6.54692e-08
-2.49847e-09
-4.93606e-08
1.2357e-08
-6.02697e-08
6.63431e-10
-7.22553e-08
-9.76251e-09
-8.50892e-08
5.36497e-09
-7.29316e-08
-1.62786e-08
-6.07622e-08
-8.61109e-09
-2.04822e-08
3.41098e-09
-5.42887e-08
-3.29001e-08
-6.75544e-08
-1.93271e-08
-5.56824e-08
-2.52231e-08
-4.94025e-08
-9.52529e-09
-3.40768e-08
-5.82318e-09
-1.48662e-08
-2.62116e-08
-1.07388e-09
9.45461e-09
-1.19524e-08
7.69075e-09
-1.891e-08
1.79152e-08
-1.66832e-08
3.51669e-08
-2.90108e-08
3.03524e-08
-4.64154e-08
4.53319e-08
-7.04543e-08
3.54602e-08
-9.06967e-08
2.85737e-08
-9.87229e-08
1.68445e-08
-1.00818e-07
8.63238e-09
-1.0131e-07
3.80362e-09
-9.99691e-08
-3.14198e-10
-9.80597e-08
-2.09391e-09
-9.47727e-08
-4.64016e-09
-9.03321e-08
-5.18029e-09
-8.48773e-08
-6.4313e-09
-7.84574e-08
-9.8713e-09
-7.09544e-08
-1.54157e-08
-6.50814e-08
-1.96172e-08
-6.00358e-08
-2.43053e-08
-5.53119e-08
-2.77835e-08
-5.0014e-08
-2.87557e-08
-4.43375e-08
-2.6373e-08
-3.88031e-08
-1.92679e-08
-3.49694e-08
-7.57914e-09
-3.48711e-08
5.91621e-09
-3.95618e-08
1.63512e-08
-4.71531e-08
1.99641e-08
-5.59701e-08
1.98996e-08
-6.29501e-08
1.69114e-08
-6.57841e-08
1.09781e-08
-6.6025e-08
5.76813e-09
-6.60087e-08
3.38349e-09
-6.61554e-08
2.15155e-09
-6.60219e-08
1.09123e-09
-6.55093e-08
3.20021e-10
-6.48283e-08
9.18919e-11
-6.42309e-08
3.67723e-10
-6.37489e-08
5.50654e-10
-6.33671e-08
5.33266e-10
-6.31376e-08
3.97145e-10
-1.11218e-10
-2.22875e-08
2.57151e-09
-5.08624e-08
7.72013e-09
-4.78116e-08
-4.59418e-09
-6.47784e-08
-2.92466e-09
-1.04884e-07
2.31601e-08
2.27332e-08
5.04319e-08
-1.25989e-07
-5.38659e-08
-9.58595e-08
3.33209e-10
-7.31949e-08
-1.11543e-08
-8.83279e-08
9.43705e-09
-8.09522e-08
2.69697e-08
-4.23251e-08
1.43279e-08
-9.67344e-08
1.18557e-08
-1.0089e-07
1.30868e-08
-9.36996e-08
7.23761e-09
-8.64808e-08
-4.92379e-09
-8.12548e-08
4.84894e-09
-9.42392e-08
1.5968e-08
-7.02205e-08
-1.0623e-08
-7.78154e-08
5.0965e-09
-7.12564e-08
5.7395e-09
-6.84031e-08
-2.18984e-09
-5.48702e-08
-2.32954e-08
-1.09517e-07
-2.36338e-08
-3.62673e-08
-5.98761e-09
-5.53903e-08
1.01381e-08
-3.62026e-08
-1.52116e-08
-6.95296e-08
4.26895e-10
-8.84749e-08
-1.2844e-09
-8.29586e-08
-2.98369e-08
-6.71843e-08
-2.37833e-08
-6.3087e-08
-1.07071e-08
-5.41845e-08
-3.61262e-08
-6.12677e-08
1.65377e-08
-6.76752e-08
1.34863e-08
-7.56653e-08
2.59052e-08
-6.81915e-08
2.77693e-08
-7.68932e-08
3.97498e-08
-6.18712e-08
3.18474e-08
-6.28055e-08
3.63946e-08
-5.3204e-08
1.89721e-08
-4.60479e-08
9.68845e-09
-4.33768e-08
5.9613e-09
-4.34631e-08
3.89002e-09
-4.57722e-08
1.99491e-09
-4.8858e-08
9.9191e-10
-5.28082e-08
-6.89921e-10
-5.54264e-08
-2.56199e-09
-5.69487e-08
-4.90903e-09
-5.79203e-08
-8.89965e-09
-5.95396e-08
-1.37964e-08
-6.26736e-08
-1.64832e-08
-6.65792e-08
-2.03997e-08
-6.96492e-08
-2.47135e-08
-7.10412e-08
-2.73637e-08
-7.10807e-08
-2.63335e-08
-6.96475e-08
-2.07012e-08
-6.7162e-08
-1.00647e-08
-6.59671e-08
4.72136e-09
-6.68515e-08
1.72355e-08
-6.84367e-08
2.15494e-08
-7.01057e-08
2.15685e-08
-7.01584e-08
1.69639e-08
-6.84072e-08
9.22691e-09
-6.68994e-08
4.26016e-09
-6.60178e-08
2.50171e-09
-6.55931e-08
1.72661e-09
-6.52932e-08
7.91058e-10
-6.4868e-08
-1.05385e-10
-6.43974e-08
-3.79035e-10
-6.39638e-08
-6.62925e-11
-6.36223e-08
2.083e-10
-6.33485e-08
2.58005e-10
-6.31852e-08
2.32576e-10
-6.33412e-11
-8.65641e-08
1.37354e-08
-8.58649e-08
7.02186e-09
-9.12015e-08
7.43027e-10
-1.00133e-07
6.03686e-09
-8.67803e-08
9.70891e-09
-4.38405e-08
6.97773e-09
-8.52816e-08
-1.14379e-08
-7.82354e-08
-6.71283e-09
-1.015e-07
1.01626e-08
-9.91945e-08
7.05931e-09
-7.56605e-08
4.44768e-09
-7.54426e-08
1.31943e-08
-1.57663e-07
8.23235e-09
-9.40854e-08
3.58808e-08
-8.93283e-08
2.50616e-09
-9.16713e-08
-2.5807e-09
-8.9386e-08
1.66877e-09
-1.44738e-07
-1.4466e-08
-7.86352e-08
9.61218e-09
-9.13894e-08
1.85934e-08
-6.98327e-08
-1.58172e-08
-6.97482e-08
-2.98674e-09
-6.93675e-08
-2.3676e-08
-7.3998e-08
-1.90032e-08
-4.73068e-08
-3.27399e-08
-5.5751e-08
1.82923e-08
-6.1958e-08
-9.09742e-09
-6.87293e-08
7.1982e-09
-6.72439e-08
-2.08379e-09
-8.37963e-08
-1.31156e-08
-1.03934e-07
-5.86278e-09
-1.0766e-07
-8.20205e-09
-1.29033e-07
-1.37855e-08
-1.2868e-07
1.75012e-08
-1.26949e-07
1.16373e-08
-1.33013e-07
3.13847e-08
-1.25411e-07
2.12301e-08
-1.126e-07
2.7397e-08
-8.77394e-08
6.98725e-09
-6.81233e-08
1.67784e-08
-5.66257e-08
7.4746e-09
-4.62676e-08
-6.6959e-10
-3.94941e-08
-8.12189e-10
-3.62698e-08
6.65697e-10
-3.57399e-08
1.46513e-09
-3.69907e-08
2.2427e-09
-4.00299e-08
2.34931e-09
-4.3989e-08
1.39711e-09
-4.87959e-08
-1.02039e-10
-5.41646e-08
-3.53093e-09
-6.09563e-08
-7.00468e-09
-6.76459e-08
-9.79365e-09
-7.34088e-08
-1.46368e-08
-7.75716e-08
-2.05507e-08
-8.10171e-08
-2.39183e-08
-8.5148e-08
-2.22027e-08
-8.91173e-08
-1.67319e-08
-9.06651e-08
-8.51695e-09
-8.86221e-08
2.67834e-09
-8.51014e-08
1.37147e-08
-8.17781e-08
1.8226e-08
-7.78246e-08
1.76151e-08
-7.34723e-08
1.26115e-08
-7.00624e-08
5.81692e-09
-6.79616e-08
2.1592e-09
-6.652e-08
1.0599e-09
-6.5533e-08
7.39337e-10
-6.48764e-08
1.34278e-10
-6.44761e-08
-5.0592e-10
-6.41698e-08
-6.85603e-10
-6.38495e-08
-3.87086e-10
-6.3586e-08
-5.60909e-11
-6.33717e-08
4.22777e-11
-6.32305e-08
9.00282e-11
-3.54257e-11
-1.01963e-07
9.50281e-09
-9.5135e-08
1.95088e-10
-9.13351e-08
-3.05622e-09
-8.72174e-08
2.80929e-09
-6.49076e-08
-1.24746e-08
-5.06627e-08
-7.48872e-09
-4.47764e-08
-1.7324e-08
-2.72376e-08
-2.47768e-08
-9.07647e-08
-1.01475e-08
-2.1859e-08
2.17697e-08
-1.86829e-08
1.04871e-09
-3.38694e-08
2.84362e-08
-5.45049e-08
2.87848e-08
-4.75235e-08
2.78586e-08
-5.172e-08
6.7027e-09
-7.24545e-08
1.81273e-08
-8.74447e-08
1.57577e-08
-7.10004e-08
-3.09102e-08
-1.06214e-07
4.66522e-08
-9.11495e-08
4.64865e-09
-9.78099e-08
-1.0248e-08
-7.98244e-08
-2.09721e-08
-9.19243e-08
-1.16954e-08
-8.39381e-08
-2.69894e-08
-3.37098e-08
-8.26242e-08
-4.65401e-08
3.03462e-08
-7.75207e-08
2.14035e-08
-7.51802e-08
5.64865e-09
-8.27321e-08
4.62406e-09
-9.0122e-08
-6.78967e-09
-1.77462e-07
-3.26468e-09
-1.22716e-07
2.26887e-08
-1.29284e-07
-7.14818e-09
-1.20752e-07
1.15193e-08
-1.0657e-07
-1.46801e-09
-9.29447e-08
1.74455e-08
-8.6073e-08
1.41462e-08
-6.96888e-08
1.10129e-08
-7.01536e-08
7.45206e-09
-5.99565e-08
6.58134e-09
-5.30188e-08
5.36926e-10
-4.97736e-08
-3.91477e-09
-4.56125e-08
-4.97325e-09
-4.29141e-08
-2.03263e-09
-4.21701e-08
7.21067e-10
-4.29912e-08
3.06392e-09
-4.52624e-08
4.62053e-09
-4.88921e-08
5.02678e-09
-5.37226e-08
4.72848e-09
-5.98595e-08
2.60601e-09
-6.63398e-08