/*--------------------------------*- C++ -*----------------------------------*\
  =========                 |
  \\      /  F ield         | OpenFOAM: The Open Source CFD Toolbox
   \\    /   O peration     | Website:  https://openfoam.org
    \\  /    A nd           | Version:  12
     \\/     M anipulation  |
\*---------------------------------------------------------------------------*/
FoamFile
{
    format      ascii;
    class       surfaceScalarField;
    location    "0.8";
    object      phi.water;
}
// * * * * * * * * * * * * * * * * * * * * * * * * * * * * * * * * * * * * * //

dimensions      [0 3 -1 0 0 0 0];

internalField   nonuniform List<scalar> 
7375
(
1.45101e-07
-1.51443e-08
7.12056e-08
-1.2325e-08
1.40595e-07
1.37988e-08
1.23687e-07
1.81601e-08
1.1528e-07
8.31403e-09
1.07218e-07
9.14649e-09
9.83048e-08
8.87494e-09
6.76511e-08
2.9647e-08
7.77499e-08
-9.42825e-09
6.0774e-08
1.70121e-08
7.76467e-08
-1.78773e-08
1.44118e-07
-6.78995e-08
9.29337e-08
5.06603e-08
8.41357e-08
8.71227e-09
8.36003e-08
5.23686e-10
8.40233e-08
-4.09746e-10
8.11061e-08
2.944e-09
7.69623e-08
4.94542e-09
9.29074e-08
-1.61476e-08
9.3795e-08
-1.80595e-09
9.60956e-08
-2.31577e-09
8.46893e-08
1.14687e-08
1.16467e-07
-3.29575e-08
1.20155e-07
-3.65073e-09
1.22155e-07
-7.39453e-10
1.19146e-07
4.23319e-09
1.16725e-07
2.46786e-09
1.65692e-07
-5.12159e-08
1.11651e-07
5.46138e-08
1.00995e-07
9.78409e-09
7.652e-08
2.4231e-08
8.48616e-08
-6.61691e-09
8.02952e-08
3.68714e-09
8.10445e-08
-1.56047e-09
9.363e-08
-1.1764e-08
8.12081e-08
1.24009e-08
8.32166e-08
-2.03335e-09
5.95748e-08
2.42793e-08
2.99708e-08
2.95766e-08
-9.63476e-09
3.95561e-08
-1.44317e-08
4.82668e-09
-2.31987e-08
9.04537e-09
-3.58826e-08
1.25703e-08
-5.17398e-08
1.62424e-08
-5.78018e-08
5.42378e-09
-7.3189e-08
1.46943e-08
-7.66113e-08
4.88801e-09
-7.48173e-08
-1.02851e-09
-6.69081e-08
-7.90897e-09
-5.86878e-08
-8.22068e-09
-4.87245e-08
-9.96308e-09
-4.11945e-08
-7.53042e-09
-3.39151e-08
-7.27915e-09
-2.76473e-08
-6.26834e-09
-2.11184e-08
-6.52859e-09
-1.40787e-08
-7.0401e-09
-7.45711e-09
-6.62135e-09
-1.18563e-09
-6.27187e-09
4.134e-09
-5.31932e-09
9.15447e-09
-5.02083e-09
1.43406e-08
-5.18577e-09
2.0445e-08
-6.1047e-09
2.79973e-08
-7.55189e-09
3.69993e-08
-9.00213e-09
4.67175e-08
-9.71765e-09
5.47671e-08
-8.04966e-09
5.78229e-08
-3.05519e-09
5.24627e-08
5.36001e-09
4.01192e-08
1.23438e-08
2.43961e-08
1.57227e-08
7.97857e-09
1.64177e-08
-7.10235e-09
1.5081e-08
-2.23778e-08
1.52762e-08
-3.50998e-08
1.27229e-08
4.21364e-09
9.43163e-08
-1.9611e-08
8.17744e-08
3.49027e-10
9.54548e-08
-7.22435e-10
1.20134e-07
-7.65538e-09
1.1948e-07
1.01808e-08
1.15294e-07
1.44046e-08
1.155e-07
8.49126e-09
1.06988e-07
3.88544e-08
8.25434e-08
1.51724e-08
7.62256e-08
2.38693e-08
5.24562e-08
6.91265e-09
2.02581e-07
3.83592e-08
4.27662e-08
-4.577e-08
5.78016e-08
-6.54126e-09
8.64857e-08
-2.81656e-08
9.97642e-08
-1.2815e-08
1.09271e-07
-5.60268e-09
1.22937e-07
-7.46576e-09
9.77438e-08
9.30766e-09
1.0499e-07
-1.0153e-08
1.43073e-07
-3.93408e-08
3.8256e-08
3.06489e-08
6.0698e-08
2.83542e-08
7.65177e-08
-2.00774e-08
8.10835e-08
-4.53247e-09
6.94782e-08
1.59568e-08
5.21051e-08
2.10814e-08
2.06033e-07
5.71302e-08
2.94889e-08
-2.93915e-08
4.01437e-08
-1.59594e-09
4.2978e-08
2.03967e-08
4.78267e-08
-1.15147e-08
4.94594e-08
2.47535e-09
4.92988e-08
-9.20633e-10
4.85492e-08
-1.11277e-08
4.66531e-08
1.4297e-08
3.3922e-08
1.08081e-08
2.66336e-08
3.15676e-08
3.21801e-08
2.40567e-08
-4.37844e-08
3.00256e-08
-6.41272e-11
4.49525e-08
-2.65715e-08
3.54604e-08
-2.21556e-08
8.56014e-09
-3.27879e-08
2.67121e-08
-2.67877e-08
-5.76391e-10
-2.27191e-08
1.03317e-08
-2.12602e-08
3.3803e-09
-2.3971e-08
1.68212e-09
-2.62263e-08
-5.65369e-09
-2.82812e-08
-6.16592e-09
-3.10232e-08
-7.22111e-09
-3.48132e-08
-3.74065e-09
-4.0295e-08
-1.79738e-09
-4.65871e-08
2.36117e-11
-5.14535e-08
-1.6622e-09
-5.2925e-08
-5.56877e-09
-5.1961e-08
-7.58536e-09
-4.97219e-08
-8.51108e-09
-4.70089e-08
-8.03232e-09
-4.42936e-08
-7.73616e-09
-4.03523e-08
-9.12698e-09
-3.36029e-08
-1.28541e-08
-2.36882e-08
-1.74664e-08
-1.15281e-08
-2.11621e-08
1.39352e-09
-2.2639e-08
1.27825e-08
-1.94384e-08
1.88719e-08
-9.1443e-09
1.61083e-08
8.12374e-09
4.81462e-09
2.36377e-08
-1.15718e-08
3.2109e-08
-2.93297e-08
3.41757e-08
-4.23189e-08
2.80705e-08
-4.83994e-08
2.13576e-08
-5.04297e-08
1.47541e-08
3.50118e-09
-1.65742e-10
1.42505e-08
-1.16959e-08
1.17566e-08
-8.44683e-09
-3.64389e-09
-1.70244e-08
9.29781e-10
9.3272e-09
-1.6171e-08
2.68567e-08
-3.36235e-09
3.74806e-08
-2.24005e-09
6.61987e-08
1.12972e-08
2.02956e-08
-2.42859e-08
7.99424e-08
4.79629e-08
7.59675e-08
1.07479e-08
1.0909e-07
5.22929e-09
1.40648e-07
-7.71475e-08
4.09587e-08
6.94976e-09
6.47723e-08
3.18736e-08
3.92928e-08
1.35953e-08
9.50369e-09
2.46955e-08
3.07353e-09
-1.10127e-09
-2.6281e-08
3.82954e-08
-6.00024e-08
2.32208e-08
1.06132e-07
5.20541e-08
-8.58551e-08
-3.30494e-08
-1.06365e-07
-3.4814e-08
-4.11558e-08
-1.58212e-09
-5.62476e-08
9.99134e-09
-5.3849e-08
1.30088e-08
-4.81571e-08
1.56068e-08
-3.68152e-09
1.19803e-08
-3.76863e-08
4.91309e-09
-5.30499e-08
1.39425e-08
-1.75056e-08
-1.49394e-08
-4.6237e-08
1.7571e-08
-3.64487e-08
-7.57938e-09
-5.21624e-08
1.38797e-08
-7.75336e-08
1.47813e-08
-7.69882e-08
1.3899e-08
-9.4105e-08
2.7925e-08
-8.12913e-08
1.95149e-08
-8.66588e-08
3.00023e-08
-9.34896e-08
3.71225e-08
-7.40389e-08
2.55018e-08
-6.44008e-08
2.51132e-08
-6.67135e-08
1.08728e-08
-5.47453e-08
1.47439e-08
-5.63427e-08
1.02097e-09
-5.19541e-08
5.94304e-09
-4.89611e-08
3.87248e-10
-4.74607e-08
1.81719e-10
-4.88999e-08
-4.21459e-09
-4.98266e-08
-5.2394e-09
-5.2758e-08
-4.28979e-09
-5.73238e-08
8.251e-10
-6.41995e-08
5.07824e-09
-7.15433e-08
7.36726e-09
-7.83118e-08
5.10627e-09
-8.2967e-08
-9.13649e-10
-8.50597e-08
-5.49278e-09
-8.62333e-08
-7.33752e-09
-8.70172e-08
-7.24846e-09
-8.65844e-08
-8.16897e-09
-8.309e-08
-1.26213e-08
-7.60047e-08
-1.99394e-08
-6.77364e-08
-2.57346e-08
-6.0521e-08
-2.83774e-08
-5.50691e-08
-2.80907e-08
-5.26101e-08
-2.18972e-08
-5.40526e-08
-7.70151e-09
-5.86835e-08
1.27547e-08
-6.30734e-08
2.80277e-08
-6.49196e-08
3.39552e-08
-6.4006e-08
3.32622e-08
-6.03098e-08
2.43747e-08
-5.7544e-08
1.85928e-08
-5.46642e-08
1.18752e-08
1.54316e-09
-8.11417e-09
5.60437e-09
1.40182e-09
1.91713e-09
-2.53013e-09
3.21406e-10
7.78889e-09
-9.45959e-09
4.25087e-09
-1.26761e-08
1.36296e-09
-4.61019e-10
-1.24038e-08
1.1391e-08
-2.65923e-08
2.50696e-08
-6.37425e-08
1.3528e-08
-4.52529e-08
3.01235e-08
-2.99893e-08
-4.45161e-09
-4.27605e-08
1.75642e-08
1.4013e-07
-4.61921e-09
-1.04665e-07
-3.61295e-09
-9.15628e-08
1.78276e-08
-7.85106e-08
8.09409e-10
-1.63636e-07
2.30348e-08
-9.89627e-08
2.23274e-08
-1.06748e-07
4.56896e-08
-9.25245e-08
8.67222e-09
-5.25016e-08
1.15001e-08
-7.85471e-08
-7.00396e-09
-1.14383e-07
1.0322e-09
-1.02331e-07
-1.26061e-08
-7.65111e-08
-1.58287e-08
-6.85257e-08
4.24289e-09
-6.14767e-08
8.39854e-09
-4.51896e-08
-4.35119e-09
-4.55672e-08
4.82591e-09
-1.10651e-07
-6.61079e-09
-4.10175e-08
1.30609e-09
-1.18907e-07
1.17901e-08
-5.95338e-08
1.67094e-08
-6.97621e-08
2.31232e-08
-8.10486e-08
2.53487e-08
-9.12758e-08
2.41262e-08
-7.88008e-08
1.69003e-08
-8.27928e-08
2.4343e-08
-7.59773e-08
2.28869e-08
-5.94188e-08
2.0564e-08
-5.59073e-08
2.19904e-08
-5.14241e-08
2.06299e-08
-5.25415e-08
1.19903e-08
-4.71902e-08
9.39253e-09
-5.07264e-08
4.55718e-09
-4.84122e-08
3.62877e-09
-4.8895e-08
8.69992e-10
-4.76823e-08
-1.03114e-09
-4.89203e-08
-2.97663e-09
-5.08205e-08
-3.33929e-09
-5.40204e-08
-1.08998e-09
-5.78713e-08
4.67586e-09
-6.36523e-08
1.08592e-08
-7.06892e-08
1.44041e-08
-7.88178e-08
1.32348e-08
-8.70363e-08
7.3048e-09
-9.32115e-08
6.8233e-10
-9.71588e-08
-3.39025e-09
-9.92013e-08
-5.20594e-09
-9.88677e-08
-8.50259e-09
-9.46832e-08
-1.68058e-08
-8.84816e-08
-2.6141e-08
-8.3889e-08
-3.03272e-08
-8.12408e-08
-3.10254e-08
-8.17131e-08
-2.76181e-08
-8.60268e-08
-1.75833e-08
-9.07851e-08
-2.94293e-09
-9.10358e-08
1.30056e-08
-8.6833e-08
2.38251e-08
-8.02519e-08
2.73742e-08
-7.12167e-08
2.42271e-08
-6.43777e-08
1.75364e-08
-6.02447e-08
1.44609e-08
-5.69695e-08
8.601e-09
5.81405e-11
-1.8853e-08
-2.65958e-08
6.65424e-09
-2.36588e-08
7.58305e-09
-6.07984e-10
-5.02528e-09
3.22572e-09
9.17397e-09
-2.70986e-08
4.50167e-08
-3.63086e-08
-2.26663e-09
5.91565e-08
-1.93006e-08
4.20803e-08
-6.00289e-08
5.44793e-08
-5.0588e-08
2.07787e-08
-8.10026e-08
2.59628e-08
-1.01647e-07
3.79974e-08
8.76408e-08
6.39548e-08
-1.42218e-07
-3.01391e-08
-1.03238e-07
-2.00764e-08
-9.22395e-08
-1.12426e-08
-8.0714e-08
1.10393e-08
-6.71876e-08
8.80094e-09
-1.23414e-07
1.82254e-08
-4.43613e-08
1.35272e-08
-4.63758e-08
1.3062e-08
-2.86072e-08
-2.50645e-08
-5.60999e-08
-5.77067e-08
-1.16973e-07
4.88389e-08
-6.65317e-08
1.83321e-08
-7.71114e-08
1.48226e-08
-7.18373e-08
2.39156e-09
-9.02882e-08
1.40997e-08
-7.43359e-08
-1.02053e-08
-7.75188e-08
-2.56957e-09
-7.34827e-08
-1.98792e-09
-5.72613e-08
-4.59503e-09
-4.47152e-08
4.20546e-09
-3.94585e-08
1.70165e-08
-3.5022e-08
2.02963e-08
-3.94397e-08
2.86552e-08
-6.38294e-08
4.12901e-08
-5.68318e-08
1.799e-08
-5.14322e-08
1.80555e-08
-4.69493e-08
1.60811e-08
-4.0934e-08
1.59751e-08
-3.46244e-08
1.43203e-08
-3.32796e-08
1.06455e-08
-3.22034e-08
8.31632e-09
-3.26082e-08
4.96194e-09
-3.20347e-08
3.05522e-09
-3.20572e-08
8.92412e-10
-3.32213e-08
1.32861e-10
-3.55444e-08
-6.53634e-10
-3.94413e-08
5.57524e-10
-4.45821e-08
4.05079e-09
-4.95932e-08
9.68682e-09
-5.49311e-08
1.6197e-08
-6.13652e-08
2.08381e-08
-6.93225e-08
2.1192e-08
-7.87262e-08
1.67084e-08
-8.81434e-08
1.00995e-08
-9.52469e-08
3.71322e-09
-9.8497e-08
-1.95585e-09
-9.74873e-08
-9.51238e-09
-9.28166e-08
-2.14765e-08
-8.86766e-08
-3.02809e-08
-8.63913e-08
-3.26124e-08
-8.54184e-08
-3.19982e-08
-8.78756e-08
-2.51608e-08
-9.27545e-08
-1.27042e-08
-9.57919e-08
9.47208e-11
-9.31416e-08
1.03554e-08
-8.63607e-08
1.70444e-08
-7.78107e-08
1.88244e-08
-6.96822e-08
1.60989e-08
-6.4523e-08
1.23778e-08
-6.06836e-08
1.06226e-08
-5.82794e-08
6.19784e-09
-5.13767e-10
-8.69376e-09
-1.69816e-08
9.43644e-09
-4.23102e-08
-2.1409e-08
3.02306e-08
-2.76596e-08
9.47599e-09
-7.79907e-08
2.37161e-08
9.75022e-08
4.21176e-08
-8.14832e-08
-1.71542e-08
-6.059e-08
2.09962e-08
-1.32691e-07
4.10067e-08
-6.96761e-08
4.34371e-08
-9.24608e-08
4.84826e-08
-8.47264e-08
3.02629e-08
-4.45917e-08
2.31675e-08
-8.76237e-08
1.32003e-08
-8.69027e-08
-2.10023e-08
-8.15517e-08
-1.65937e-08
-3.08853e-08
-3.96272e-08
-5.9799e-08
3.79376e-08
-7.10604e-08
2.94867e-08
-7.14146e-08
1.34314e-08
-6.60493e-08
7.69661e-09
-9.1596e-08
-4.52229e-10
5.57284e-08
5.19389e-08
-1.76531e-07
-5.8523e-08
-5.84529e-08
-1.49828e-08
-5.93449e-08
1.57146e-08
-7.03161e-08
1.33628e-08
-7.38255e-08
1.74652e-08
-8.01182e-08
-3.91257e-09
-7.68458e-08
-5.90214e-09
-8.74151e-08
8.56118e-09
-9.03317e-08
-1.74315e-09
-9.44876e-08
8.40436e-09
-7.55621e-08
-9.64451e-10
-7.31496e-08
1.76789e-08
-4.87436e-08
3.46761e-09
-1.04176e-07
1.30219e-08
-3.43837e-08
3.21279e-08
-3.64682e-08
2.014e-08
-3.43774e-08
1.39904e-08
-3.12154e-08
1.2813e-08
-2.76517e-08
1.07567e-08
-2.6838e-08
9.83179e-09
-2.55224e-08
7.00065e-09
-2.57912e-08
5.23074e-09
-2.64152e-08
3.67919e-09
-2.78395e-08
2.31665e-09
-2.95257e-08
1.81895e-09
-3.21898e-08
2.01044e-09
-3.58917e-08
4.25928e-09
-4.02888e-08
8.44778e-09
-4.44249e-08
1.38229e-08
-4.80228e-08
1.97949e-08
-5.12382e-08
2.40533e-08
-5.52033e-08
2.51571e-08
-6.11443e-08
2.26493e-08
-6.81595e-08
1.71146e-08
-7.47937e-08
1.03474e-08
-7.94417e-08
2.69209e-09
-8.06799e-08
-8.2742e-09
-7.92108e-08
-2.29455e-08
-7.82678e-08
-3.12239e-08
-7.8061e-08
-3.28191e-08
-7.96383e-08
-3.04209e-08
-8.36382e-08
-2.11607e-08
-8.74619e-08
-8.88036e-09
-8.81545e-08
7.87564e-10
-8.48736e-08
7.07475e-09
-7.86868e-08
1.08578e-08
-7.20517e-08
1.21895e-08
-6.70915e-08
1.11391e-08
-6.36824e-08
8.96928e-09
-6.07533e-08
7.69455e-09
-5.91601e-08
4.60569e-09
-6.03063e-10
-1.20238e-07
-6.34276e-09
4.74729e-08
4.68888e-08
-1.35939e-07
-4.15561e-08
-1.105e-07
-1.85969e-08
-1.98227e-07
2.49137e-08
-1.09451e-07
4.10327e-08
-1.46877e-07
2.02719e-08
-1.38714e-07
1.3974e-08
-1.40148e-07
4.34528e-08
-1.13824e-07
1.7113e-08
-9.21677e-08
2.54054e-08
-8.2642e-08
2.07372e-08
-7.1601e-08
1.21264e-08
-7.61031e-08
1.77025e-08
-9.27612e-08
-4.34439e-09
-1.2531e-07
1.59548e-08
6.6286e-08
2.21643e-08
-1.12025e-07
-3.58352e-08
-7.72716e-08
-6.89674e-09
-1.43826e-07
-5.65138e-09
-5.77514e-08
7.8527e-09
-6.99067e-08
1.22909e-08
-2.4215e-08
5.72256e-09
-8.07076e-08
-2.27749e-09
-8.88838e-08
-6.80665e-09
-6.60346e-08
-7.06258e-09
-5.39222e-08
1.25042e-09
-5.46044e-08
1.81475e-08
-7.4332e-08
1.50567e-08
-9.51836e-08
1.49494e-08
-9.8724e-08
1.20656e-08
-1.24194e-07
2.39735e-08
-1.16556e-07
2.03412e-09
-1.37751e-07
2.04386e-08
-1.25769e-07
7.16048e-09
-9.96445e-08
-2.26566e-08
-9.26229e-08
5.92868e-09
-7.01313e-08
1.05624e-08
-6.09486e-08
1.09574e-08
-5.87309e-08
1.17727e-08
-5.73761e-08
1.14582e-08
-5.48413e-08
8.22187e-09
-5.25414e-08
7.53196e-09
-5.06394e-08
5.09855e-09
-4.9661e-08
4.25237e-09
-4.94293e-08
3.44743e-09
-4.92148e-08
2.10203e-09
-4.88314e-08
1.43555e-09
-4.87572e-08
1.9361e-09
-4.90996e-08
4.60166e-09
-4.9446e-08
8.79412e-09
-4.99754e-08
1.43521e-08
-5.00143e-08
1.98337e-08
-4.95546e-08
2.35936e-08
-4.90221e-08
2.46245e-08
-4.93494e-08
2.29765e-08
-5.11685e-08
1.89337e-08
-5.43884e-08
1.35672e-08
-5.83413e-08
6.64499e-09
-6.23252e-08
-4.29031e-09
-6.60649e-08
-1.92058e-08
-6.86771e-08
-2.86117e-08
-7.10636e-08
-3.04326e-08
-7.42382e-08
-2.72462e-08
-7.7768e-08
-1.76308e-08
-7.99465e-08
-6.70166e-09
-7.93647e-08
2.05931e-10
-7.64069e-08
4.11716e-09
-7.25193e-08
6.97041e-09
-6.87525e-08
8.42282e-09
-6.55468e-08
7.93374e-09
-6.31433e-08
6.56649e-09
-6.10435e-08
5.59586e-09
-5.98696e-08
3.43283e-09
-5.44876e-10
-1.47342e-07
2.62279e-08
-1.27588e-07
2.71339e-08
-1.61887e-07
-1.05948e-08
-1.9641e-07
1.77969e-08
-1.96871e-07
2.88736e-08
-1.78912e-07
2.30735e-08
-1.75695e-07
1.84525e-08
-1.6351e-07
1.78878e-09
-1.4814e-07
2.61479e-08
-1.30946e-07
1.42856e-09
-1.19573e-07
1.40326e-08
-1.01442e-07
1.37252e-09
-9.74981e-08
8.18231e-09
-8.81286e-08
8.33285e-09
-9.21489e-08
-3.24146e-10
-1.43255e-07
-1.62412e-08
4.26835e-09
-4.1831e-08
-1.08994e-07
7.71013e-08
-1.06298e-07
-8.48048e-09
-9.82078e-08
-1.35458e-08
-7.65014e-08
-1.30733e-08
-7.64357e-08
1.22251e-08
-6.55433e-08
-5.89129e-09
-4.90471e-08
-1.87737e-08
-1.31372e-07
-7.9043e-09
-6.13218e-08
6.72608e-09
-5.83844e-08
-2.31259e-09
-4.59669e-08
5.67216e-09
-6.09588e-08
2.97451e-08
-6.65087e-08
2.03468e-08
-7.67899e-08
2.15634e-08
-1.51977e-07
1.32765e-08
-8.87391e-08
2.42047e-08
-1.48004e-07
-5.87245e-09
-1.48359e-07
9.02489e-09
-1.16309e-07
2.98258e-08
-1.30301e-07
2.14689e-08
-1.05762e-07
-1.26736e-08
-9.74582e-08
2.65328e-09
-9.4251e-08
8.56548e-09
-9.03784e-08
7.58559e-09
-8.70382e-08
4.88169e-09
-8.37854e-08
4.27914e-09
-8.15609e-08
2.87407e-09
-7.97495e-08
2.44093e-09
-7.87922e-08
2.49004e-09
-7.80617e-08
1.37146e-09
-7.72537e-08
6.2757e-10
-7.66873e-08
1.3696e-09
-7.54791e-08
3.39338e-09
-7.23644e-08
5.67935e-09
-6.7418e-08
9.40571e-09
-6.11648e-08
1.35804e-08
-5.47879e-08
1.72167e-08
-4.9687e-08
1.95236e-08
-4.58062e-08
1.90957e-08
-4.35846e-08
1.6712e-08
-4.3701e-08
1.36836e-08
-4.62972e-08
9.24122e-09
-5.12276e-08
6.40048e-10
-5.82058e-08
-1.22276e-08
-6.36874e-08
-2.313e-08
-6.75781e-08
-2.6542e-08
-7.0519e-08
-2.43051e-08
-7.28576e-08
-1.52921e-08
-7.39725e-08
-5.58653e-09
-7.31594e-08
-6.07019e-10
-7.12476e-08
2.20564e-09
-6.89935e-08
4.71649e-09
-6.67174e-08
6.1469e-09
-6.45587e-08
5.77538e-09
-6.281e-08
4.81851e-09
-6.13126e-08
4.0996e-09
-6.04302e-08
2.55151e-09
-4.60215e-10
-1.80245e-07
2.82288e-08
-2.37763e-07
8.37875e-08
-1.23633e-07
1.30836e-07
-1.55769e-07
4.95663e-08
-1.58802e-07
3.34954e-08
-2.08149e-07
-1.02198e-08
-1.46089e-07
3.98966e-08
-1.47643e-07
3.34258e-09
-1.21392e-07
-1.02406e-10
-1.2004e-07
-1.16205e-09
-1.73504e-07
-1.51986e-08
-9.21897e-08
3.9652e-09
-9.1297e-08
6.34907e-09
-9.34506e-08
1.03804e-08
-1.02457e-07
8.68225e-09
-1.29762e-07
9.84008e-09
5.04345e-08
3.44521e-08
-1.62034e-07
-5.07841e-08
-1.29067e-07
-4.01309e-08
-9.98154e-08
4.15292e-08
-9.22929e-08
-2.16141e-08
-7.5882e-08
-4.02011e-09
-7.75373e-08
-4.23608e-09
-7.16718e-08
-2.46392e-08
-8.82179e-08
9.44537e-09
-5.46277e-08
-2.67962e-08
-4.42412e-08
-1.28051e-08
-4.45747e-09
-3.40665e-08
-3.12188e-08
5.64614e-08
-3.00619e-08
1.88715e-08
-2.61896e-08
1.75125e-08
-4.07492e-08
2.77007e-08
-3.98916e-08
2.35142e-08
-5.84536e-08
1.26214e-08
-8.21466e-08
3.21217e-08
-4.45072e-08
-8.26763e-09
-1.18007e-07
1.05485e-08
-5.73157e-08
1.21846e-08
-6.44259e-08
9.86203e-09
-6.05646e-08
4.70422e-09
-5.87837e-08
5.80473e-09
-5.89852e-08
5.08319e-09
-6.11078e-08
6.40171e-09
-6.33068e-08
5.07304e-09
-6.5108e-08
4.24203e-09
-6.63198e-08
3.70182e-09
-6.83812e-08
3.43278e-09
-7.11223e-08
3.36869e-09
-7.44725e-08
4.71971e-09
-7.68382e-08
5.75901e-09
-7.73339e-08
6.17495e-09
-7.47613e-08
6.83315e-09
-6.91402e-08
7.95916e-09
-6.09577e-08
9.03409e-09
-5.16787e-08
1.02446e-08
-4.32309e-08
1.06478e-08
-3.75057e-08
1.09869e-08
-3.52468e-08
1.14247e-08
-3.63807e-08
1.03751e-08
-4.13639e-08
5.62329e-09
-4.94482e-08
-4.14333e-09
-5.70886e-08
-1.54896e-08
-6.16731e-08
-2.19573e-08
-6.50242e-08
-2.09539e-08
-6.79407e-08
-1.23756e-08
-6.94201e-08
-4.10689e-09
-6.9496e-08
-5.30939e-10
-6.86578e-08
1.36762e-09
-6.71832e-08
3.24209e-09
-6.55434e-08
4.50736e-09
-6.39632e-08
4.19557e-09
-6.26382e-08
3.49414e-09
-6.1529e-08
2.99155e-09
-6.08551e-08
1.87866e-09
-3.73082e-10
-1.58641e-07
-9.01651e-09
-1.2169e-07
4.55292e-08
-2.07172e-07
-3.88169e-08
-1.02959e-07
-5.57217e-08
-1.22543e-07
5.30791e-08
-1.62847e-07
3.17456e-08
-1.13282e-07
-8.04044e-09
-1.11443e-07
3.59257e-10
-9.91343e-08
-1.35491e-08
-1.06975e-07
7.76987e-09
-1.05448e-07
-1.6726e-08
-9.29261e-08
-9.5918e-09
-9.87638e-08
1.3061e-08
-7.44858e-08
-1.38976e-08
-8.38768e-08
1.62914e-08
-1.01845e-07
2.78084e-08
-7.05665e-08
3.86086e-09
-1.05015e-07
-1.61705e-08
-7.99772e-08
-6.66649e-08
-1.50015e-07
2.63579e-08
-1.08042e-07
2.40546e-08
-8.37385e-08
-2.83239e-08
-8.0447e-08
-8.38189e-09
-8.87925e-08
-1.5388e-08
-7.11432e-08
-8.20395e-09
-9.92005e-08
2.62056e-10
-1.11557e-07
-4.48278e-10
6.58748e-08
4.20147e-08
-8.38203e-08
-4.7557e-08
-5.88185e-08
-5.47434e-09
-3.21464e-08
-9.15958e-09
-2.06212e-08
1.60579e-08
-2.99595e-08
3.28236e-08
-2.85584e-08
1.11578e-08
-1.34542e-08
1.65573e-08
1.42259e-08
-3.59477e-08
-6.09319e-08
8.55987e-08
-5.69879e-08
8.36505e-09
-6.23636e-08
1.59745e-08
-6.27441e-08
5.76595e-09
-6.48305e-08
7.89107e-09
-6.69945e-08
7.2472e-09
-6.82672e-08
7.6744e-09
-6.90925e-08
5.89826e-09
-6.9865e-08
5.01452e-09
-7.03674e-08
4.20417e-09
-7.162e-08
4.68532e-09
-7.36444e-08
5.39313e-09
-7.54723e-08
6.54748e-09
-7.6291e-08
6.57764e-09
-7.56056e-08
5.48957e-09
-7.2356e-08
3.58344e-09
-6.61697e-08
1.77281e-09
-5.71931e-08
5.7467e-11
-4.63987e-08
-5.49886e-10
-3.56752e-08
-7.57495e-11
-2.72657e-08
2.57734e-09
-2.24064e-08
6.56537e-09
-2.12854e-08
9.2541e-09
-2.3639e-08
7.97687e-09
-3.00698e-08
2.28747e-09
-3.93187e-08
-6.24068e-09
-4.84702e-08
-1.28058e-08
-5.67896e-08
-1.26345e-08
-6.26618e-08
-6.50318e-09
-6.54434e-08
-1.32516e-09
-6.6613e-08
6.38864e-10
-6.67359e-08
1.49074e-09
-6.59305e-08
2.43691e-09
-6.46565e-08
3.2335e-09
-6.3474e-08
3.01343e-09
-6.25012e-08
2.52205e-09
-6.16727e-08
2.16413e-09
-6.11678e-08
1.37487e-09
-2.87069e-10
-5.56153e-08
6.27957e-08
-1.97426e-07
-6.25606e-08
-1.96305e-07
-4.3915e-08
6.67642e-09
-3.89637e-09
-1.80652e-07
-1.39503e-08
-1.43822e-07
-3.61736e-09
-1.38962e-07
-1.29813e-08
-1.23638e-07
-1.63797e-08
-1.1556e-07
-2.16268e-08
-1.03414e-07
-4.37575e-09
-9.50056e-08
-2.55663e-08
-8.88927e-08
-1.46485e-08
-7.25595e-08
-3.27223e-09
-6.73587e-08
-1.92933e-08
-5.26044e-08
1.52174e-09
-3.76358e-08
1.20194e-08
-1.12134e-07
-5.2605e-09
-7.06522e-08
2.55415e-08
6.45396e-08
5.43256e-08
-1.14507e-07
-5.09808e-08
-1.51106e-07
-2.49835e-08
-8.76558e-08
-5.75784e-09
-8.59711e-08
-1.00667e-08
-8.56904e-08
-1.58302e-08
-7.35373e-08
-2.04408e-08
-6.66253e-08
-6.64996e-09
-1.56322e-07
6.07996e-09
-3.98402e-08
9.34576e-09
-7.07417e-08
-1.61752e-08
-6.53097e-08
-1.09063e-08
-2.24861e-08
-5.32866e-08
-5.06812e-08
4.47701e-08
-4.48375e-08
2.65901e-08
-4.23019e-08
8.62232e-09
-6.13744e-08
3.6057e-08
9.6243e-08
6.07178e-08
-5.56741e-08
-1.67739e-08
-5.57376e-08
8.42855e-09
-5.6698e-08
1.69349e-08
-6.4632e-08
1.42726e-08
-6.56868e-08
9.59199e-09
-7.17414e-08
1.33018e-08
-7.59377e-08
1.18707e-08
-7.88116e-08
8.77218e-09
-8.07116e-08
6.91453e-09
-8.1819e-08
5.31152e-09
-8.23001e-08
5.1664e-09
-8.24794e-08
5.57236e-09
-8.1757e-08
5.825e-09
-7.98785e-08
4.69914e-09
-7.65584e-08
2.16938e-09
-7.05336e-08
-2.44135e-09
-6.15438e-08
-7.21702e-09
-5.06693e-08
-1.08171e-08
-3.97592e-08
-1.146e-08
-2.97375e-08
-1.00974e-08
-2.16984e-08
-5.46181e-09
-1.65755e-08
1.44251e-09
-1.48324e-08
7.511e-09
-1.62395e-08
9.3839e-09
-2.09871e-08
7.03508e-09
-2.97103e-08
2.48252e-09
-4.18249e-08
-6.91136e-10
-5.40139e-08
-4.4543e-10
-6.17255e-08
1.2086e-09
-6.48821e-08
1.83162e-09
-6.59582e-08
1.71514e-09
-6.60951e-08
1.62775e-09
-6.54295e-08
1.77154e-09
-6.41978e-08
2.00203e-09
-6.31628e-08
1.97872e-09
-6.2427e-08
1.7869e-09
-6.17912e-08
1.52946e-09
-6.14061e-08
9.90838e-10
-2.09637e-10
-5.88375e-08
3.51581e-09
-1.75107e-07
-3.25731e-08
-1.51389e-07
1.52236e-08
5.76108e-08
4.62484e-08
-1.41455e-07
-7.03503e-08
-9.29185e-08
-5.21536e-08
-8.5595e-08
-2.0648e-08
-7.02842e-08
-3.16906e-08
-7.06813e-08
-2.14487e-08
-6.2492e-08
-1.32026e-08
-8.32457e-08
-3.95472e-09
-8.05887e-08
-1.66328e-08
-4.38057e-08
-4.09108e-08
-5.0235e-08
-1.24788e-08
-4.18495e-08
-6.84852e-09
-4.98589e-08
1.94039e-08
-6.19582e-08
6.83878e-09
-2.7516e-08
-8.64017e-09
-2.1094e-09
2.83647e-08
-4.10529e-08
-1.20373e-08
-7.79913e-08
1.22098e-08
-7.10407e-08
-1.27085e-08
-6.69883e-08
-1.48025e-08
-7.1186e-08
-1.16325e-08
-8.31189e-08
-7.78167e-09
-7.64935e-08
-1.32753e-08
-1.50154e-07
-3.49123e-09
-4.86448e-08
-7.67035e-09
-6.15073e-08
-3.80398e-09
-7.79163e-08
3.92905e-09
8.0948e-08
4.47596e-08
-9.28583e-08
-3.55917e-08
-5.00946e-08
-1.53991e-08
-5.67265e-08
1.46613e-08
-2.38411e-08
2.69003e-09
-5.56824e-09
4.2445e-08
-6.47279e-08
4.24426e-08
-7.28766e-08
1.64099e-08
-8.60139e-08
3.06372e-08
-8.80015e-08
1.69774e-08
-9.35477e-08
1.51382e-08
-9.58934e-08
1.56474e-08
-9.69389e-08
1.29162e-08
-9.73262e-08
9.15949e-09
-9.67271e-08
6.31537e-09
-9.60073e-08
4.59167e-09
-9.38322e-08
2.99125e-09
-9.14345e-08
3.17463e-09
-8.81489e-08
2.5394e-09
-8.31443e-08
-3.05581e-10
-7.58753e-08
-5.0996e-09
-6.71064e-08
-1.12103e-08
-5.73574e-08
-1.6966e-08
-4.72053e-08
-2.09693e-08
-3.71161e-08
-2.15492e-08
-2.82643e-08
-1.89492e-08
-2.15918e-08
-1.21344e-08
-1.7858e-08
-2.29129e-09
-1.76544e-08
7.3075e-09
-2.10587e-08
1.27881e-08
-2.73793e-08
1.33557e-08
-3.68479e-08
1.19511e-08
-4.82385e-08
1.06995e-08
-5.75044e-08
8.8206e-09
-6.24215e-08
6.12578e-09
-6.45178e-08
3.92808e-09
-6.52692e-08
2.46666e-09
-6.52642e-08
1.62294e-09
-6.46656e-08
1.1731e-09
-6.37228e-08
1.05946e-09
-6.29408e-08
1.19706e-09
-6.23634e-08
1.2102e-09
-6.18731e-08
1.04032e-09
-6.15826e-08
7.01357e-10
-1.40019e-10
1.05693e-07
-7.5995e-09
6.78871e-08
4.87187e-09
1.01792e-07
-1.97096e-08
1.45716e-07
2.44236e-09
9.13098e-08
-1.44576e-08
4.37088e-08
-4.14916e-09
6.09005e-08
-3.78398e-08
3.02697e-08
-1.37234e-09
6.48066e-09
2.31639e-09
7.27145e-09
-1.40596e-08
4.04779e-09
-6.49483e-10
-9.52315e-08
-3.19485e-09
-5.05692e-08
-3.57966e-10
-7.75674e-08
1.45193e-08
-9.50321e-08
1.23072e-08
-8.01292e-08
4.5009e-09
-7.95383e-08
5.43037e-09
-8.15812e-08
-6.59729e-09
-6.92814e-08
1.60649e-08
-7.05515e-08
-1.07673e-08
-5.91242e-08
7.82469e-10
-6.48274e-08
-7.00533e-09
-7.2817e-08
-6.81289e-09
-6.8699e-08
-1.56319e-08
-6.46833e-08
-1.16782e-08
-5.85827e-08
-1.95757e-08
-7.20643e-08
9.99037e-09
-5.8949e-08
-2.08639e-08
-5.80753e-08
-4.12408e-09
-4.74787e-08
-6.73548e-09
-8.77308e-09
5.06134e-09
-3.16721e-08
-1.25645e-08
-2.0907e-08
-2.63212e-08
-7.16227e-09
1.13916e-09
2.59176e-08
-3.06998e-08
-6.23096e-09
7.44249e-08
-1.38116e-08
5.01642e-08
-3.09917e-08
3.42488e-08
-4.93708e-08
4.87099e-08
-7.26499e-08
4.02566e-08
-9.15341e-08
3.40224e-08
-9.85127e-08
2.2626e-08
-9.99482e-08
1.43517e-08
-1.00004e-07
9.21553e-09
-9.84204e-08
4.73151e-09
-9.63679e-08
2.53911e-09
-9.29765e-08
-4.00149e-10
-8.84828e-08
-1.31917e-09
-8.29998e-08
-2.94356e-09
-7.65715e-08
-6.73388e-09
-6.90941e-08
-1.2577e-08
-6.32572e-08
-1.70473e-08
-5.82469e-08
-2.19762e-08
-5.35483e-08
-2.56679e-08
-4.8277e-08
-2.68205e-08
-4.26288e-08
-2.45975e-08
-3.71294e-08
-1.76337e-08
-3.33372e-08
-6.08351e-09
-3.32947e-08
7.265e-09
-3.80181e-08
1.75116e-08
-4.56334e-08
2.0971e-08
-5.44634e-08
2.0781e-08
-6.14399e-08
1.76761e-08
-6.42715e-08
1.16523e-08
-6.45272e-08
6.38154e-09
-6.45292e-08
3.93029e-09
-6.46904e-08
2.62804e-09
-6.45687e-08
1.50136e-09
-6.40674e-08
6.72048e-10
-6.33966e-08
3.88856e-10
-6.28077e-08
6.08437e-10
-6.23316e-08
7.34777e-10
-6.19526e-08
6.62447e-10
-6.17239e-08
4.73775e-10
-8.51128e-11
-1.72221e-08
3.95628e-09
-2.76313e-08
1.52804e-08
-4.05412e-08
-7.41495e-09
-3.54152e-08
-2.65879e-09
-5.14925e-08
1.45548e-09
-1.26189e-07
-1.50897e-08
-7.30703e-08
-4.52198e-09
-7.92376e-08
5.54667e-09
-6.6855e-08
-1.00897e-08
-8.16958e-08
1.00127e-10
-9.21968e-08
8.91088e-09
-1.03532e-07
7.10628e-09
-8.29338e-08
-2.00964e-08
-7.80469e-08
1.03303e-08
-8.31382e-08
1.73985e-08
-8.73233e-08
8.73183e-09
-8.78947e-08
6.00178e-09
-8.50702e-08
-9.51896e-09
-7.99332e-08
1.09278e-08
-8.51688e-08
-5.53172e-09
-7.41052e-08
-1.01773e-08
-6.83534e-08
-1.27571e-08
-5.24413e-08
-2.27251e-08
-5.82205e-08
-9.25871e-09
-3.79276e-08
-3.23542e-08
-4.95974e-08
-8.29683e-09
-4.44048e-08
5.30378e-09
-7.57518e-08
1.04831e-08
-8.88321e-08
8.05e-09
-7.63552e-08
-1.83062e-08
-4.75674e-08
-2.24751e-08
-5.80128e-08
-2.62592e-09
-6.35223e-08
-2.16242e-08
-9.54528e-08
3.20959e-08
6.49719e-08
6.54697e-08
-1.03019e-07
-1.25367e-08
-7.53105e-08
2.16875e-08
-8.01003e-08
3.9807e-08
-6.41775e-08
3.43888e-08
-6.42562e-08
4.03352e-08
-5.39885e-08
2.37547e-08
-4.62088e-08
1.48464e-08
-4.30356e-08
1.11784e-08
-4.27734e-08
8.95337e-09
-4.4828e-08
6.78607e-09
-4.77373e-08
5.4484e-09
-5.15509e-08
3.41339e-09
-5.40712e-08
1.20113e-09
-5.55275e-08
-1.48732e-09
-5.64638e-08
-5.79756e-09
-5.8071e-08
-1.09699e-08
-6.11959e-08
-1.39224e-08
-6.50867e-08
-1.80854e-08
-6.81328e-08
-2.26218e-08
-6.95075e-08
-2.54457e-08
-6.95403e-08
-2.45647e-08
-6.81094e-08
-1.90646e-08
-6.56417e-08
-8.55122e-09
-6.44789e-08
6.10226e-09
-6.53814e-08
1.84141e-08
-6.69804e-08
2.257e-08
-6.86567e-08
2.24574e-08
-6.87103e-08
1.77297e-08
-6.69679e-08
9.90995e-09
-6.54753e-08
4.88912e-09
-6.46078e-08
3.06288e-09
-6.41953e-08
2.21573e-09
-6.39046e-08
1.21087e-09
-6.3488e-08
2.55553e-10
-6.30245e-08
-7.44423e-11
-6.25968e-08
1.81093e-10
-6.22591e-08
3.97758e-10
-6.19865e-08
3.91041e-10
-6.18232e-08
3.11535e-10
-3.67764e-11
-7.38872e-08
1.12911e-08
-7.13658e-08
1.27583e-08
-8.17503e-08
2.96904e-09
-8.77308e-08
3.34858e-09
-8.47386e-08
-1.52147e-09
-9.20814e-08
-7.593e-09
-8.28135e-08
-1.28144e-08
-7.88606e-08
1.59371e-09
-9.10449e-08
2.58291e-10
-1.04583e-07
1.34993e-08
-8.96998e-08
-4.90567e-09
-9.01326e-08
6.54698e-09
-1.14829e-07
4.75786e-09
-6.72657e-08
-3.64331e-08
-9.27165e-08
4.28493e-08
-9.51128e-08
1.1128e-08
-1.01262e-07
1.12329e-08
-1.137e-07
2.94934e-09
-8.82747e-08
-1.34754e-08
-8.94199e-08
-3.43918e-09
-6.67144e-08
-3.2883e-08
-5.66339e-08
-2.35182e-08
-6.19543e-08
-1.74048e-08
-6.71086e-08
-4.10442e-09
-6.07516e-08
-3.90412e-08
-2.07661e-08
-4.81978e-08
-6.07231e-08
4.52608e-08
-7.39914e-08
2.37514e-08
-6.9729e-08
4.49892e-09
-8.42424e-08
-3.6447e-09
-8.3806e-08
-2.51113e-08
-1.00484e-07
1.29894e-08
-1.23327e-07
2.2776e-09
-1.2286e-07
3.28873e-08
-8.89489e-08
3.05788e-08
-1.29158e-07
2.73933e-08
-1.25243e-07
1.88571e-08
-1.12693e-07
2.77139e-08
-8.83424e-08
1.00378e-08
-6.85387e-08
2.05315e-08
-5.67425e-08
1.19584e-08
-4.6148e-08
4.25187e-09
-3.91593e-08
4.18971e-09
-3.57459e-08
5.53997e-09
-3.50367e-08
6.07687e-09
-3.61688e-08
6.58044e-09
-3.91084e-08
6.35303e-09
-4.29802e-08
5.07288e-09
-4.77161e-08
3.24859e-09
-5.30282e-08
-4.8551e-10
-5.97695e-08
-4.22859e-09
-6.64097e-08
-7.28216e-09
-7.21235e-08
-1.23717e-08
-7.62489e-08
-1.84964e-08
-7.96766e-08
-2.2018e-08
-8.37999e-08
-2.04413e-08
-8.7753e-08
-1.51115e-08
-8.92749e-08
-7.02932e-09
-8.72175e-08
4.04487e-09
-8.37085e-08
1.49052e-08
-8.03921e-08
1.92537e-08
-7.64398e-08
1.8505e-08
-7.20967e-08
1.33866e-08
-6.8701e-08
6.51435e-09
-6.661e-08
2.79816e-09
-6.51776e-08
1.6307e-09
-6.41994e-08
1.23767e-09
-6.35515e-08
5.6312e-10
-6.31579e-08
-1.37846e-10
-6.2856e-08
-3.7609e-10
-6.25389e-08
-1.35652e-10
-6.22775e-08
1.3703e-10
-6.20633e-08
1.77975e-10
-6.19214e-08
1.70639e-10
-8.54956e-12
-8.39715e-08
-1.3089e-09
-8.36912e-08
1.24773e-08
-8.48933e-08
4.17064e-09
-8.37723e-08
3.08199e-09
-6.85902e-08
-1.65368e-08
-6.03692e-08
-1.60618e-08
-4.37856e-08
-2.93981e-08
-3.2619e-08
-1.00034e-08
-4.78912e-08
1.6019e-08
-4.36975e-08
9.07755e-09
-4.78476e-08
-1.2015e-09
-5.75211e-08
1.66375e-08
-7.65923e-08
2.30075e-08
8.1172e-08
6.19237e-08
-8.59372e-08
-4.51592e-08
-8.12882e-08
5.708e-09
-9.02698e-08
1.9284e-08
-1.09862e-07
2.25416e-08
-1.08422e-07
-1.26661e-08
-9.10784e-08
-1.98883e-08
-9.65047e-08
-2.87214e-08
-5.15452e-08
-6.91835e-08
-7.8811e-08
9.86103e-09
-8.41777e-08
1.26216e-09
-1.08162e-07
-1.50572e-08
1.09614e-07
-1.16844e-08
-1.09349e-07
9.83448e-09
-9.02657e-08
4.66792e-09
-9.1491e-08
4.79089e-09
-9.123e-08
-4.88365e-09
-1.28496e-07
1.32317e-08
-1.09754e-07
-5.75321e-09
-1.23011e-07
1.56733e-08
-1.14983e-07
2.72865e-08
-9.32083e-08
9.74578e-09
-8.6593e-08
2.05042e-08
-8.34212e-08
1.54968e-08
-6.87954e-08
1.3088e-08
-6.94234e-08
1.06658e-08
-5.96128e-08
1.0721e-08
-5.29843e-08
5.32985e-09
-4.96705e-08
9.38037e-10
-4.54233e-08
-5.75187e-11
-4.26316e-08
2.74826e-09
-4.17796e-08
5.22487e-09
-4.24839e-08
7.28475e-09
-4.46497e-08
8.51882e-09
-4.81817e-08
8.60482e-09
-5.29256e-08
7.99248e-09
-5.8986e-08
5.57491e-09
-6.53888e-08
2.17426e-09
-7.06203e-08
-2.05067e-09
-7.46215e-08
-8.37049e-09
-7.82992e-08
-1.48187e-08
-8.2702e-08