/*--------------------------------*- C++ -*----------------------------------*\
  =========                 |
  \\      /  F ield         | OpenFOAM: The Open Source CFD Toolbox
   \\    /   O peration     | Website:  https://openfoam.org
    \\  /    A nd           | Version:  12
     \\/     M anipulation  |
\*---------------------------------------------------------------------------*/
FoamFile
{
    format      ascii;
    class       volVectorField;
    location    "0.8";
    object      U.water;
}
// * * * * * * * * * * * * * * * * * * * * * * * * * * * * * * * * * * * * * //

dimensions      [0 1 -1 0 0 0 0];

internalField   nonuniform List<vector> 
3750
(
(0.000458889 0.0112706 0)
(-0.000386988 0.00980375 0)
(0.000626298 0.0103738 0)
(0.000453783 0.0113405 0)
(-0.000191379 0.0120826 0)
(-0.000411048 0.0106509 0)
(-0.000158908 0.00725678 0)
(0.000628057 0.00804033 0)
(-0.000392687 0.00540788 0)
(-0.00101871 0.0051353 0)
(-0.00172067 0.00801816 0)
(-0.00449992 0.00835908 0)
(0.00288844 0.0102392 0)
(0.00177102 0.00896573 0)
(1.23899e-05 0.00821923 0)
(0.000636753 0.00777704 0)
(0.00156482 0.00789762 0)
(0.000560828 0.00800543 0)
(-0.00078945 0.00765505 0)
(0.000793145 0.00959507 0)
(-0.000615733 0.00807035 0)
(-0.000672249 0.00921552 0)
(0.000341601 0.0100481 0)
(0.000867611 0.01173 0)
(0.00159885 0.0116538 0)
(0.000630589 0.00995312 0)
(0.000675875 0.00848866 0)
(-0.00302018 0.0108495 0)
(0.00207052 0.0116974 0)
(-0.00370954 0.00954965 0)
(3.89946e-05 0.00671904 0)
(0.000218992 0.00672265 0)
(-0.000163333 0.00549016 0)
(-0.000138428 0.00562005 0)
(-0.000360247 0.00688157 0)
(0.00034999 0.00808981 0)
(0.000160587 0.00718311 0)
(0.00165709 0.00663804 0)
(0.00113429 0.00355476 0)
(-0.00110019 0.00259484 0)
(0.000975616 -0.00300425 0)
(-0.00033466 -0.000867719 0)
(0.0010694 -0.0031291 0)
(0.00138281 -0.00283458 0)
(0.000520222 -0.00421753 0)
(0.000807088 -0.00820118 0)
(0.000208142 -0.00659673 0)
(-0.000486108 -0.00767252 0)
(-0.000837482 -0.00650269 0)
(-0.000843464 -0.00641027 0)
(-0.000984245 -0.00520685 0)
(-0.000805791 -0.00459606 0)
(-0.000823756 -0.00362896 0)
(-0.000775328 -0.00311445 0)
(-0.000723516 -0.00244418 0)
(-0.0006433 -0.00176495 0)
(-0.000465048 -0.00107363 0)
(-0.000353732 -0.000416477 0)
(-0.000219818 0.000166964 0)
(-0.000220879 0.000663867 0)
(-0.00024351 0.00117914 0)
(-0.000271474 0.00170951 0)
(-0.000292294 0.00239927 0)
(-0.000297614 0.00320264 0)
(-0.000268692 0.00416492 0)
(-0.00012664 0.00508194 0)
(0.000181684 0.00576839 0)
(0.000656287 0.00567645 0)
(0.000849367 0.00486962 0)
(0.000772052 0.00329856 0)
(0.000579413 0.0016023 0)
(0.000467723 -4.60688e-05 0)
(0.000815881 -0.00131722 0)
(0.000758382 -0.00334518 0)
(0.000397914 -0.00391492 0)
(-0.00276717 0.00840578 0)
(-9.49187e-05 0.00852781 0)
(0.000569842 0.0096347 0)
(0.00147717 0.0104307 0)
(0.00103843 0.011832 0)
(0.00194529 0.0122472 0)
(0.00155869 0.01114 0)
(0.00425791 0.010259 0)
(0.000287919 0.00882585 0)
(0.00257513 0.00833224 0)
(-3.72342e-05 0.00688822 0)
(-0.000547097 0.011197 0)
(-2.37967e-05 0.0119003 0)
(-0.000613492 0.00480668 0)
(0.000464081 0.0073847 0)
(-6.43406e-05 0.00954278 0)
(-3.65899e-05 0.0106983 0)
(-0.000673565 0.0101485 0)
(-0.0014437 0.0112326 0)
(-0.00255124 0.00997952 0)
(-0.00312034 0.00744508 0)
(0.00145022 0.00843485 0)
(-0.000176891 0.00605426 0)
(-0.000137938 0.00593282 0)
(-0.000872181 0.00735298 0)
(0.000684634 0.00801573 0)
(0.000277707 0.0068197 0)
(0.000374058 0.0124945 0)
(0.00178604 0.0109542 0)
(0.00427313 0.00231376 0)
(0.00363548 0.00296609 0)
(-0.000932141 0.00372878 0)
(-0.000565287 0.00568293 0)
(-0.000328546 0.0045952 0)
(-0.00193217 0.00447371 0)
(0.00187992 0.00492722 0)
(-0.000531623 0.00324499 0)
(0.00352391 0.00360109 0)
(0.00302301 -0.000314828 0)
(0.0030253 -0.000128158 0)
(0.00222623 -0.000990098 0)
(0.00300248 -0.00384632 0)
(0.000860223 -0.00275524 0)
(0.00276898 -0.00277216 0)
(0.000228162 -0.00247434 0)
(0.00160796 -0.00235282 0)
(0.000716845 -0.00203638 0)
(0.000311975 -0.00259629 0)
(-0.000658038 -0.00224061 0)
(-0.000690459 -0.00278276 0)
(-0.00094358 -0.00293135 0)
(-0.000679606 -0.003273 0)
(-0.000616278 -0.00365694 0)
(-0.000455059 -0.00436459 0)
(-0.000554602 -0.00497556 0)
(-0.000746495 -0.00531528 0)
(-0.000855893 -0.00531029 0)
(-0.000924353 -0.00512333 0)
(-0.000857096 -0.00482072 0)
(-0.000773639 -0.00457674 0)
(-0.000769096 -0.00426195 0)
(-0.000920229 -0.00375623 0)
(-0.00119782 -0.0029238 0)
(-0.00152857 -0.00179139 0)
(-0.0017387 -0.000524592 0)
(-0.00157307 0.000775253 0)
(-0.000861956 0.00171718 0)
(0.00032751 0.00200979 0)
(0.00151531 0.00125245 0)
(0.0024268 -0.000224128 0)
(0.00280885 -0.00208303 0)
(0.0026453 -0.00381999 0)
(0.00219754 -0.00451532 0)
(0.00169931 -0.00548841 0)
(0.000404553 -0.00495063 0)
(-0.00112863 0.000585331 0)
(-8.45645e-05 0.000392438 0)
(6.87864e-05 -0.00222763 0)
(-0.0002826 -0.00109271 0)
(0.000175219 -0.000502353 0)
(0.000237623 0.00222948 0)
(-0.000261052 0.00293786 0)
(0.00149846 0.00287933 0)
(4.80535e-05 0.00337606 0)
(0.00313736 0.00494497 0)
(0.00171946 0.00462625 0)
(0.00284244 0.00881642 0)
(-0.00669919 0.00977028 0)
(0.000584008 0.0084156 0)
(-0.00103318 0.00548182 0)
(-0.000514583 0.00111186 0)
(-0.0010469 0.0022787 0)
(0.000601745 0.000707616 0)
(0.00368883 -0.00131647 0)
(0.00093196 -0.00360076 0)
(0.000884357 0.000791234 0)
(0.0015187 -0.000487537 0)
(0.000760205 -0.00738713 0)
(-0.00047158 -0.00632611 0)
(-0.000558629 -0.00566558 0)
(0.000949493 -0.00456551 0)
(0.00157166 -0.00680954 0)
(0.00437915 -0.0025386 0)
(-0.0016707 -0.0017932 0)
(-0.00210962 -0.0039186 0)
(-0.000758939 -0.00474017 0)
(-0.000874793 -0.00261181 0)
(2.6285e-05 -0.00297153 0)
(0.000381704 -0.00773104 0)
(0.000228816 -0.0045944 0)
(0.00132591 -0.0071313 0)
(0.00243782 -0.00874607 0)
(0.00229428 -0.00645126 0)
(0.00325128 -0.00911235 0)
(0.00444779 -0.00922274 0)
(0.00194107 -0.00821859 0)
(0.00267195 -0.0060699 0)
(0.000777103 -0.00646836 0)
(0.00149302 -0.00612944 0)
(-0.000236595 -0.00560289 0)
(0.000745147 -0.00520422 0)
(-0.000128181 -0.00470658 0)
(3.82985e-05 -0.0048573 0)
(-0.000490664 -0.00487058 0)
(-0.000582626 -0.00485671 0)
(-0.000524323 -0.00505587 0)
(-6.09132e-05 -0.00545018 0)
(0.000249256 -0.00600823 0)
(0.000453828 -0.00677338 0)
(0.00020245 -0.00750135 0)
(-0.000392451 -0.00816239 0)
(-0.000679607 -0.00844944 0)
(-0.000785273 -0.00858726 0)
(-0.000770252 -0.00869584 0)
(-0.000801061 -0.00872056 0)
(-0.00109064 -0.00856187 0)
(-0.0016868 -0.00799447 0)
(-0.00232388 -0.00713657 0)
(-0.00272904 -0.0063599 0)
(-0.00279613 -0.00575467 0)
(-0.00229436 -0.00534006 0)
(-0.000937842 -0.0053524 0)
(0.00130813 -0.00555174 0)
(0.00313318 -0.00606869 0)
(0.0038159 -0.0064009 0)
(0.0038404 -0.00652117 0)
(0.00283788 -0.00620092 0)
(0.00205329 -0.00569719 0)
(0.00132626 -0.00615147 0)
(0.00027132 -0.00524375 0)
(0.00152666 -0.0015725 0)
(0.000993158 0.0013367 0)
(0.000986728 -0.000939726 0)
(0.000321384 0.000567766 0)
(-0.000536409 0.000789962 0)
(-0.000788324 0.000125756 0)
(0.000261931 1.05157e-05 0)
(0.00168387 -0.0020739 0)
(0.000997467 -0.00330729 0)
(0.000942805 -0.00431547 0)
(-0.00152058 -0.00354532 0)
(0.00106357 -0.00311184 0)
(-0.00360334 0.00395838 0)
(0.000358513 0.00325547 0)
(0.00301556 -0.0073229 0)
(0.000515227 -0.00930898 0)
(0.00236729 -0.00992272 0)
(0.00140404 -0.00887721 0)
(0.00253183 -0.01021 0)
(0.00340104 -0.0113355 0)
(0.00319665 -0.00780624 0)
(-0.00260074 -0.00654183 0)
(-0.00143081 -0.0091916 0)
(-0.000537723 -0.00827083 0)
(0.0012286 -0.00731628 0)
(0.00055365 -0.00789906 0)
(0.000857015 -0.0063998 0)
(-0.000651091 -0.0055253 0)
(4.74746e-05 -0.0044298 0)
(0.000527748 -0.00404535 0)
(-5.94169e-05 -0.00613125 0)
(0.00198013 -0.00661877 0)
(0.00128562 -0.00531006 0)
(0.00199873 -0.00727708 0)
(0.00167585 -0.0061074 0)
(0.00126625 -0.00747153 0)
(0.00250018 -0.00897031 0)
(0.00128629 -0.00790586 0)
(0.00159103 -0.00735027 0)
(0.00196408 -0.00670537 0)
(0.00234961 -0.0058737 0)
(0.00212122 -0.00504813 0)
(0.00120019 -0.00507764 0)
(0.00108812 -0.00496316 0)
(0.000488014 -0.0049272 0)
(0.00053106 -0.00495968 0)
(0.000223123 -0.00484021 0)
(-5.21529e-05 -0.0047705 0)
(-0.000347792 -0.00481785 0)
(-0.00045504 -0.00495738 0)
(-0.000321516 -0.00519609 0)
(0.000230429 -0.00555012 0)
(0.000789397 -0.00602456 0)
(0.00105242 -0.00667448 0)
(0.000845053 -0.00744245 0)
(0.000217425 -0.00831394 0)
(-0.000401081 -0.00910109 0)
(-0.000669901 -0.00956783 0)
(-0.000660992 -0.00988104 0)
(-0.000810939 -0.00997899 0)
(-0.00142213 -0.00977071 0)
(-0.00232397 -0.00911708 0)
(-0.00287742 -0.00853625 0)
(-0.00299883 -0.00821928 0)
(-0.0028228 -0.00805892 0)
(-0.00199808 -0.00835447 0)
(-0.000518864 -0.00900553 0)
(0.00136089 -0.0092187 0)
(0.00264339 -0.00888026 0)
(0.0031412 -0.00840327 0)
(0.00294195 -0.00758098 0)
(0.00208066 -0.00660161 0)
(0.00166145 -0.00605848 0)
(0.00100051 -0.0063627 0)
(4.87035e-05 -0.00551925 0)
(-0.000867572 -0.00300848 0)
(-0.00165169 -0.000880269 0)
(-0.000719995 0.00147205 0)
(0.000462518 -0.000716606 0)
(-0.00144849 0.000868732 0)
(-0.00122178 0.0022777 0)
(0.00322231 0.00255401 0)
(0.00403392 -0.0011568 0)
(0.00142204 -0.003326 0)
(0.00302132 -0.00479417 0)
(0.00229385 -0.00715765 0)
(0.00130032 -0.00572948 0)
(0.00287984 -0.00382029 0)
(-0.00246787 -0.000855375 0)
(0.00123541 -0.00876161 0)
(0.000124724 -0.0123646 0)
(0.00263285 -0.00781058 0)
(0.0010391 -0.0088826 0)
(0.00198952 -0.00589913 0)
(0.000547811 -0.00457413 0)
(0.00057176 -0.00530515 0)
(-0.00199793 -0.00542465 0)
(-0.00417859 -0.00382223 0)
(0.000831854 -0.0047965 0)
(1.44388e-05 -0.0077576 0)
(0.000667767 -0.0084198 0)
(0.000335385 -0.00837079 0)
(0.000615439 -0.00647842 0)
(-7.80689e-05 -0.00486367 0)
(0.000857293 -0.00880613 0)
(-0.000982959 -0.00724258 0)
(0.00062903 -0.00515214 0)
(-0.00103461 -0.00333102 0)
(0.00185453 -0.00464053 0)
(0.00181399 -0.00197428 0)
(0.00189535 -0.00333237 0)
(0.00090686 -0.00582706 0)
(0.00286581 -0.00443563 0)
(0.00232424 -0.00505428 0)
(0.00234335 -0.00487811 0)
(0.00208433 -0.00442974 0)
(0.00195674 -0.00354555 0)
(0.00118304 -0.00346093 0)
(0.000871062 -0.00319864 0)
(0.000410528 -0.00325319 0)
(0.000200198 -0.00322319 0)
(-4.05124e-05 -0.00321097 0)
(-0.00012233 -0.00320557 0)
(-0.00025839 -0.00339692 0)
(-0.000197423 -0.0037153 0)
(0.000114535 -0.0041691 0)
(0.000706557 -0.00472059 0)
(0.00136497 -0.00521354 0)
(0.00179733 -0.00576807 0)
(0.00176708 -0.00648741 0)
(0.00121576 -0.00738086 0)
(0.000534653 -0.0083901 0)
(-2.51855e-05 -0.00924126 0)
(-0.000402144 -0.00983172 0)
(-0.000920442 -0.00993305 0)
(-0.0019626 -0.00954395 0)
(-0.00292619 -0.00899264 0)
(-0.00318909 -0.00870772 0)
(-0.00318071 -0.00855382 0)
(-0.00265422 -0.0085546 0)
(-0.0014685 -0.00905243 0)
(-5.53142e-05 -0.00961189 0)
(0.00121841 -0.00959411 0)
(0.00207567 -0.00900392 0)
(0.00232021 -0.0082405 0)
(0.00191895 -0.00731917 0)
(0.00145146 -0.00655589 0)
(0.00124721 -0.00611675 0)
(0.000716005 -0.00641132 0)
(-3.66209e-05 -0.00574015 0)
(-0.000752243 -0.00247135 0)
(-0.00291182 -0.00163371 0)
(0.000874981 -0.000730955 0)
(0.000375945 -0.00229843 0)
(-0.00233884 -0.00361976 0)
(0.000511827 0.00147021 0)
(0.001505 0.000637956 0)
(0.00196556 -0.00777868 0)
(0.00383839 -0.00707825 0)
(0.00337194 -0.00490523 0)
(0.00540968 -0.00893486 0)
(0.00351112 -0.00770603 0)
(0.00432137 -0.00670687 0)
(0.000219563 -0.00608658 0)
(-0.00290966 -0.00821216 0)
(-0.000883773 -0.00783091 0)
(-0.00219943 -0.00583046 0)
(0.00335277 -0.0049302 0)
(0.0032403 -0.00530903 0)
(-0.000216941 -0.00705333 0)
(0.00115952 -0.00638609 0)
(-0.00103923 -0.00728237 0)
(0.00122552 -0.00322759 0)
(0.000709576 -0.00235091 0)
(3.86582e-05 -0.00748572 0)
(0.000656238 -0.00822029 0)
(0.00130641 -0.0078515 0)
(0.00105394 -0.00790312 0)
(-0.00132296 -0.00592545 0)
(-0.0016233 -0.006925 0)
(0.000880445 -0.00784726 0)
(-0.00109901 -0.00867718 0)
(0.00115534 -0.00808955 0)
(0.00147362 -0.0081785 0)
(0.00347283 -0.00758208 0)
(0.00153439 -0.00635473 0)
(0.00206221 -0.00473684 0)
(0.00162245 -0.00302455 0)
(0.00170859 -0.00514212 0)
(0.00115138 -0.00365343 0)
(0.00125479 -0.00305369 0)
(0.00104821 -0.00292668 0)
(0.000976836 -0.00282799 0)
(0.000778963 -0.00252087 0)
(0.000521179 -0.00253775 0)
(0.000367394 -0.0026055 0)
(0.00021405 -0.00271398 0)
(0.000139733 -0.00281928 0)
(0.000111161 -0.00306879 0)
(0.000297748 -0.00338314 0)
(0.000683436 -0.00378603 0)
(0.00119729 -0.00426446 0)
(0.00183613 -0.00461855 0)
(0.00233811 -0.00497657 0)
(0.0024531 -0.00525509 0)
(0.00210794 -0.00578326 0)
(0.00146425 -0.00647056 0)
(0.000747173 -0.00717751 0)
(-7.95592e-06 -0.00781402 0)
(-0.00102241 -0.00814382 0)
(-0.00239174 -0.00800819 0)
(-0.00317429 -0.00782126 0)
(-0.00334472 -0.00777925 0)
(-0.00319058 -0.00781047 0)
(-0.00233338 -0.00813534 0)
(-0.00104428 -0.00862728 0)
(7.79394e-05 -0.00890594 0)
(0.000862059 -0.00878071 0)
(0.00131986 -0.00821871 0)
(0.00143918 -0.00751403 0)
(0.00129794 -0.00693288 0)
(0.00103215 -0.00641829 0)
(0.000882614 -0.00609114 0)
(0.000531636 -0.00644928 0)
(-6.08345e-05 -0.00587579 0)
(-0.00293646 -0.0102713 0)
(-0.000115129 -0.00379652 0)
(-0.00130221 -0.00278398 0)
(-0.00238079 -0.0120204 0)
(0.00326793 -0.0115198 0)
(0.00490907 -0.0104926 0)
(0.001189 -0.0133692 0)
(0.00385532 -0.0148434 0)
(0.00438676 -0.0118656 0)
(0.00147372 -0.0107773 0)
(0.0043133 -0.0110568 0)
(0.00260522 -0.00867587 0)
(0.00107159 -0.0081127 0)
(0.000676906 -0.00635822 0)
(-0.00119603 -0.0089051 0)
(-0.00164936 -0.00993635 0)
(0.000653006 -0.00239039 0)
(0.000454484 -0.00263521 0)
(0.000490805 -0.00904115 0)
(-0.000368101 -0.00785726 0)
(-0.000171089 -0.00761817 0)
(0.000815303 -0.00720127 0)
(0.00207692 -0.00386139 0)
(-0.00273072 -0.005757 0)
(-0.00126417 -0.00691671 0)
(0.000721265 -0.00664917 0)
(0.000164264 -0.00617041 0)
(0.00153221 -0.00640721 0)
(0.00100115 -0.00722103 0)
(0.000301463 -0.00708081 0)
(0.000559374 -0.00931221 0)
(-0.000391253 -0.0105959 0)
(0.00120178 -0.0105569 0)
(-0.00136185 -0.0132853 0)
(0.000697326 -0.0125848 0)
(0.000402777 -0.0118889 0)
(0.00205999 -0.0100557 0)
(0.000499345 -0.00682408 0)
(0.00125473 -0.00690338 0)
(0.00172504 -0.00621358 0)
(0.00133062 -0.00555791 0)
(0.00111817 -0.00552647 0)
(0.00110244 -0.00543821 0)
(0.000705626 -0.00517023 0)
(0.000581194 -0.00496544 0)
(0.000400335 -0.00496101 0)
(0.000287113 -0.00493469 0)
(0.000237668 -0.0048653 0)
(0.000297507 -0.00488986 0)
(0.000567942 -0.00489144 0)
(0.00102443 -0.0049058 0)
(0.00158489 -0.00500065 0)
(0.00214088 -0.00497657 0)
(0.00247921 -0.00499854 0)
(0.00254958 -0.00491365 0)
(0.00239429 -0.00488108 0)
(0.00194736 -0.00499822 0)
(0.00133519 -0.0052523 0)
(0.000558489 -0.0056513 0)
(-0.000609235 -0.00607039 0)
(-0.00216586 -0.00643498 0)
(-0.00303412 -0.00674038 0)
(-0.00318625 -0.00694046 0)
(-0.00287787 -0.00724289 0)
(-0.00191852 -0.00760644 0)
(-0.000760611 -0.00795755 0)
(7.04639e-05 -0.00806242 0)
(0.000522766 -0.00784542 0)
(0.000823378 -0.00746512 0)
(0.000973152 -0.00706986 0)
(0.00091817 -0.00671071 0)
(0.000758862 -0.0063309 0)
(0.000647461 -0.00608242 0)
(0.000397373 -0.00651355 0)
(-5.78058e-05 -0.00596084 0)
(0.0022453 -0.0105911 0)
(0.00400754 -0.00896174 0)
(-0.00114949 -0.0152649 0)
(0.000367396 -0.0170206 0)
(0.00362383 -0.0167637 0)
(0.00204465 -0.0213637 0)
(0.00129488 -0.0167597 0)
(0.000199404 -0.016003 0)
(0.00395883 -0.01779 0)
(0.000140383 -0.0108579 0)
(0.000870712 -0.0104777 0)
(0.0015869 -0.0127973 0)
(0.000781085 -0.00794616 0)
(0.000889357 -0.00698058 0)
(-0.00118868 -0.00991149 0)
(-0.000328712 -0.00545012 0)
(-0.00133649 -0.00379021 0)
(-0.000152158 -0.0060489 0)
(-0.000441237 -0.00946145 0)
(0.00182606 -0.0115747 0)
(-0.00160415 -0.0079939 0)
(0.000720872 -0.00563605 0)
(-0.000394156 -0.00751181 0)
(-0.00104648 -0.00707033 0)
(-0.000193828 -0.00474782 0)
(0.00131628 -0.00616204 0)
(0.000830946 -0.00687174 0)
(0.00209777 -0.00518097 0)
(0.00299343 -0.00591679 0)
(0.00232625 -0.00504494 0)
(0.0005469 -0.00753612 0)
(0.00113074 -0.00698922 0)
(3.58017e-05 -0.00955306 0)
(0.000523796 -0.0118154 0)
(0.00110191 -0.011822 0)
(-0.000155009 -0.0140619 0)
(-0.000603318 -0.0125347 0)
(0.0014774 -0.0114654 0)
(0.000919682 -0.0106264 0)
(0.000692911 -0.00956515 0)
(0.000937508 -0.00924399 0)
(0.000465193 -0.00875108 0)
(0.000356364 -0.00854777 0)
(0.000299079 -0.00830031 0)
(0.000238613 -0.0080551 0)
(0.000285241 -0.00797376 0)
(0.000126599 -0.00780989 0)
(3.85272e-05 -0.00775235 0)
(8.35234e-05 -0.00772199 0)
(0.000325798 -0.0076462 0)
(0.000693124 -0.00747018 0)
(0.00123512 -0.00704432 0)
(0.00178056 -0.00642624 0)
(0.00221663 -0.00578354 0)
(0.00239576 -0.00516684 0)
(0.00224187 -0.00475428 0)
(0.00187936 -0.00442313 0)
(0.00141694 -0.00431532 0)
(0.000801402 -0.00445606 0)
(-0.000224945 -0.00484267 0)
(-0.0016269 -0.00544556 0)
(-0.00263325 -0.00614579 0)
(-0.00286926 -0.00655334 0)
(-0.00255911 -0.0069121 0)
(-0.00161494 -0.00718303 0)
(-0.000593936 -0.00739549 0)
(-3.05399e-05 -0.00741495 0)
(0.000288707 -0.00725056 0)
(0.000556181 -0.00702998 0)
(0.000703688 -0.00680493 0)
(0.000666789 -0.00656885 0)
(0.000557827 -0.00627555 0)
(0.00047553 -0.00607779 0)
(0.000294323 -0.0065724 0)
(-4.98496e-05 -0.00601913 0)
(0.00215693 -0.0180667 0)
(0.00517985 -0.0163572 0)
(0.00497461 -0.0153591 0)
(0.00477488 -0.013815 0)
(0.00143278 -0.0131346 0)
(0.00147212 -0.0141669 0)
(0.00334953 -0.0148931 0)
(9.83556e-05 -0.0129085 0)
(0.000964215 -0.0124235 0)
(0.00095022 -0.0135816 0)
(0.000414948 -0.00979106 0)
(0.000971338 -0.00872511 0)
(-9.13502e-05 -0.00864762 0)
(0.000924393 -0.00786825 0)
(0.000765581 -0.0101712 0)
(9.17173e-05 -0.0107516 0)
(-0.00100286 -0.00481612 0)
(-0.000411809 -0.00450642 0)
(-0.003261 -0.0109278 0)
(-0.0006431 -0.00974687 0)
(0.000566903 -0.00979306 0)
(0.000297728 -0.0078228 0)
(-0.000656783 -0.00794322 0)
(-0.00154421 -0.00832665 0)
(0.00194663 -0.00688333 0)
(-0.000854913 -0.0069281 0)
(-0.000776439 -0.00636776 0)
(-0.00234889 -0.00206438 0)
(0.00363575 -0.00208627 0)
(0.00151793 -0.00181732 0)
(0.00349212 -0.00244552 0)
(0.00267899 -0.00325495 0)
(0.00290195 -0.00259358 0)
(0.00222611 -0.00379796 0)
(0.000437615 -0.00590059 0)
(-0.000439807 -0.007709 0)
(0.00174017 -0.00454854 0)
(0.00055265 -0.00424495 0)
(0.000748718 -0.00754473 0)
(0.000969735 -0.00615095 0)
(0.000517461 -0.0056052 0)
(0.00054285 -0.00599563 0)
(0.000511302 -0.00607994 0)
(0.000309057 -0.00617693 0)
(0.000269743 -0.00643196 0)
(0.00022043 -0.00657285 0)
(0.000147578 -0.00673305 0)
(9.25219e-05 -0.00694015 0)
(0.000196495 -0.0073011 0)
(0.00035677 -0.0076135 0)
(0.000481543 -0.0077868 0)
(0.000699615 -0.00769363 0)
(0.00098972 -0.00726388 0)
(0.00127384 -0.00655349 0)
(0.00154668 -0.00561057 0)
(0.00160557 -0.00472069 0)
(0.00149082 -0.00395553 0)
(0.00133599 -0.00356871 0)
(0.0010419 -0.0035053 0)
(0.000348797 -0.00381027 0)
(-0.000833067 -0.00447437 0)
(-0.00204627 -0.00542756 0)
(-0.00248653 -0.00593588 0)
(-0.00231849 -0.00632442 0)
(-0.00144149 -0.00668589 0)
(-0.000518474 -0.00692692 0)
(-9.59537e-05 -0.0069849 0)
(0.000144797 -0.00694371 0)
(0.000377254 -0.00681902 0)
(0.00051728 -0.00665487 0)
(0.000484018 -0.00648179 0)
(0.000406996 -0.00624447 0)
(0.000347682 -0.00607777 0)
(0.000217957 -0.00661757 0)
(-4.10071e-05 -0.0060616 0)
(0.00068771 -0.0140519 0)
(0.00757224 -0.0102402 0)
(0.0040964 -0.0164717 0)
(-0.00155061 -0.0150004 0)
(0.00525214 -0.0107566 0)
(0.00169544 -0.0106322 0)
(6.50654e-05 -0.0103983 0)
(0.000364562 -0.0114171 0)
(-0.00150671 -0.0116158 0)
(-0.000190102 -0.00843242 0)
(-0.000407964 -0.00775139 0)
(-0.00213129 -0.010992 0)
(0.000404476 -0.00733049 0)
(-0.000493164 -0.00544245 0)
(0.00117516 -0.0096565 0)
(0.00116828 -0.00704481 0)
(0.00203282 -0.00592353 0)
(-0.0021469 -0.00957401 0)
(-0.00516426 -0.0105248 0)
(0.00226336 -0.00837903 0)
(-0.000425732 -0.0078334 0)
(4.2088e-05 -0.00884653 0)
(0.000139816 -0.0104867 0)
(-0.00131615 -0.0056703 0)
(-7.91768e-05 -0.00583181 0)
(-0.0021871 -0.010362 0)
(-0.000754006 -0.00856802 0)
(0.000560361 -0.00195462 0)
(0.000147022 -0.00310032 0)
(0.000352535 -0.00582949 0)
(0.00130341 -0.0037688 0)
(0.00220965 -0.00328255 0)
(0.0029527 -0.00105825 0)
(0.000447495 -0.00251627 0)
(0.00253257 -0.00107613 0)
(-0.000485169 0.00103468 0)
(0.00601477 -0.00179922 0)
(0.000667224 -0.00458365 0)
(0.000930395 -0.00565872 0)
(7.21083e-06 -0.00627621 0)
(0.000653081 -0.00675697 0)
(0.000435024 -0.00654506 0)
(0.000720906 -0.00670917 0)
(0.000673181 -0.00683469 0)
(0.000560998 -0.00696575 0)
(0.00051133 -0.00701432 0)
(0.000545643 -0.00707143 0)
(0.00058891 -0.00729039 0)
(0.000732828 -0.00748493 0)
(0.000765825 -0.00762495 0)
(0.00072102 -0.00764873 0)
(0.000631033 -0.00746591 0)
(0.000569957 -0.00700204 0)
(0.000514339 -0.0062223 0)
(0.0005086 -0.00519011 0)
(0.00054929 -0.00409193 0)
(0.000729031 -0.00309061 0)
(0.000977876 -0.00237183 0)
(0.00105899 -0.00212517 0)
(0.000772953 -0.00215753 0)
(-1.20115e-05 -0.00257822 0)
(-0.00106087 -0.00342246 0)
(-0.00186321 -0.00436721 0)
(-0.00184424 -0.00528393 0)
(-0.00101672 -0.00608936 0)
(-0.000299619 -0.00648207 0)
(-8.77911e-06 -0.0066324 0)
(0.000132182 -0.00670554 0)
(0.000274729 -0.00667206 0)
(0.000386701 -0.00655138 0)
(0.000355795 -0.00640739 0)
(0.000292864 -0.00622115 0)
(0.000252716 -0.00607559 0)
(0.000159899 -0.00665041 0)
(-3.2494e-05 -0.0060926 0)
(0.00201563 -0.0164566 0)
(-0.00214474 -0.0114338 0)
(-0.002954 -0.0199526 0)
(-0.00333231 -0.00898941 0)
(0.00161173 -0.00785461 0)
(0.00178705 -0.0177689 0)
(-0.000183027 -0.0137203 0)
(-0.00123808 -0.0123326 0)
(-0.000143551 -0.0121036 0)
(0.000978253 -0.0117779 0)
(-0.00295501 -0.0112894 0)
(-0.00041141 -0.00787405 0)
(0.00079251 -0.00639558 0)
(-0.00178493 -0.00543975 0)
(0.00111627 -0.00547924 0)
(0.00144216 -0.00640246 0)
(-0.000373747 -0.00288976 0)
(-0.00142696 -0.00632015 0)
(-0.00050735 -0.00143659 0)
(0.00174674 -0.00229143 0)
(-0.000502898 -0.0108045 0)
(-0.00207349 -0.00824915 0)
(-0.00140215 -0.00941083 0)
(-0.00119315 -0.0091998 0)
(-0.00165389 -0.00903492 0)
(-0.000708144 -0.00889853 0)
(0.000701007 -0.00540361 0)
(0.0037101 -0.00551214 0)
(-0.00222236 -0.00678279 0)
(-0.000715011 -0.00492549 0)
(-0.003141 -0.00432807 0)
(0.00248835 -0.00319217 0)
(0.00239773 -0.00358271 0)
(0.000463199 -0.00386203 0)
(0.00230849 -0.00273836 0)
(0.000878023 0.00110948 0)
(0.00201137 0.00312434 0)
(0.00137342 -0.00359108 0)
(0.00217367 -0.00604724 0)
(0.00126493 -0.00756198 0)
(0.000906768 -0.00655636 0)
(0.00101697 -0.00701972 0)
(0.000806245 -0.00715529 0)
(0.000533969 -0.0077513 0)
(0.000461405 -0.00806663 0)
(0.000317938 -0.00813775 0)
(0.000380448 -0.00823315 0)
(0.000463153 -0.00826974 0)
(0.000552898 -0.0082625 0)
(0.000537205 -0.00813606 0)
(0.000390772 -0.00788231 0)
(0.000103132 -0.00741195 0)
(-0.000212635 -0.00667954 0)
(-0.000495747 -0.00564296 0)
(-0.000614769 -0.00450839 0)
(-0.000562062 -0.00347181 0)
(-0.000207792 -0.00251475 0)
(0.000348422 -0.00184416 0)
(0.000815881 -0.00148493 0)
(0.000861148 -0.00148636 0)
(0.000492618 -0.00175109 0)
(-0.000149906 -0.00242406 0)
(-0.000667021 -0.00349055 0)
(-0.000658048 -0.00484245 0)
(-0.000274837 -0.0059839 0)
(2.78028e-05 -0.00641118 0)
(0.000133091 -0.00657308 0)
(0.000159085 -0.00662581 0)
(0.000206496 -0.00660964 0)
(0.000255426 -0.00650594 0)
(0.000243727 -0.00635916 0)
(0.000210611 -0.00620736 0)
(0.000181004 -0.00607572 0)
(0.000116228 -0.00667576 0)
(-2.42695e-05 -0.00611548 0)
(0.00294023 -0.00655015 0)
(-0.00440105 -0.00880019 0)
(-0.00182394 -0.0127384 0)
(0.00300471 -0.00703486 0)
(-0.00468044 -0.00398033 0)
(-0.00248451 -0.0100965 0)
(-0.00238801 -0.00915577 0)
(-0.0032699 -0.00838175 0)
(-0.00358235 -0.00542757 0)
(-0.00200173 -0.00786715 0)
(-0.00234212 -0.00855904 0)
(-0.0032713 -0.0045399 0)
(-0.00159197 -0.00674482 0)
(-0.00129413 -0.00358399 0)
(-0.00110455 -0.00444656 0)
(0.000685067 -0.00573199 0)
(0.000391401 -0.00414948 0)
(-0.000655834 -0.00463557 0)
(0.00410447 -0.00187996 0)
(-0.00338139 -0.00208854 0)
(0.00183439 -0.00633176 0)
(-0.000565226 -0.00582781 0)
(-0.000797418 -0.00791544 0)
(-0.000903306 -0.00613075 0)
(-0.00121453 -0.00646709 0)
(0.000285222 -0.00996365 0)
(0.000658259 -0.00626763 0)
(-0.000872649 -0.00550682 0)
(-0.00151295 -0.00657783 0)
(-5.20419e-05 -0.00606333 0)
(-0.000755988 -0.0017099 0)
(9.06937e-05 -0.000372839 0)
(0.000393028 -0.00648435 0)
(0.000995443 -0.00594432 0)
(0.000559452 -0.00451299 0)
(0.0047167 -0.0020337 0)
(0.000634109 -0.00250819 0)
(0.00183863 -0.00585874 0)
(0.00139067 -0.00722199 0)
(0.00144655 -0.00913375 0)
(0.000971994 -0.00922251 0)
(0.00154744 -0.0093942 0)
(0.00150748 -0.00968296 0)
(0.00114349 -0.009799 0)
(0.000903932 -0.00971786 0)
(0.000757471 -0.00970875 0)
(0.000676535 -0.00948329 0)
(0.000681897 -0.00933848 0)
(0.000642601 -0.00902115 0)
(0.000425894 -0.00862734 0)
(4.28551e-05 -0.00802626 0)
(-0.00060247 -0.00719235 0)
(-0.00125248 -0.00618155 0)
(-0.0016857 -0.00525098 0)
(-0.001695 -0.00420066 0)
(-0.00147546 -0.00325778 0)
(-0.000888309 -0.00241679 0)
(-5.85164e-05 -0.00192206 0)
(0.000686061 -0.00166738 0)
(0.000993496 -0.00185238 0)
(0.000885653 -0.0023265 0)
(0.000633502 -0.00312166 0)
(0.000528302 -0.00420748 0)
(0.000566796 -0.00542043 0)
(0.000518167 -0.00611673 0)
(0.000346166 -0.00640551 0)
(0.000214528 -0.00651381 0)
(0.000169478 -0.00654673 0)
(0.000148436 -0.00652577 0)
(0.000143955 -0.00644197 0)
(0.000151259 -0.00632668 0)
(0.000148025 -0.00619593 0)
(0.000126111 -0.00607501 0)
(8.33373e-05 -0.00669436 0)
(-1.70577e-05 -0.00613231 0)
(0.000752843 0.00740603 0)
(-0.000344254 0.00874685 0)
(-4.11902e-05 0.00837335 0)
(0.00128526 0.00966034 0)
(-0.0038345 0.010038 0)
(-0.00385471 0.0077849 0)
(-0.00238022 0.00515351 0)
(-0.00126919 0.00221919 0)
(-0.000249887 0.00179833 0)
(-0.00158951 0.00134866 0)
(0.000214886 -0.0022269 0)
(-0.000948415 -0.00196796 0)
(-0.000865125 -0.00440183 0)
(-0.000492194 -0.00763879 0)
(-0.00065363 -0.0067606 0)
(0.000827308 -0.00827672 0)
(0.000131653 -0.00898362 0)
(-0.000168333 -0.00731283 0)
(0.00188924 -0.0070754 0)
(-0.000950947 -0.00541002 0)
(0.000526261 -0.00588069 0)
(-0.000631584 -0.00606236 0)
(-0.00124951 -0.00673451 0)
(-0.000895801 -0.00604987 0)
(-0.000674782 -0.00568781 0)
(-0.00192106 -0.00578426 0)
(0.00108993 -0.00493543 0)
(-0.00193826 -0.00651623 0)
(-1.2834e-05 -0.00543077 0)
(2.73372e-05 -0.00437091 0)
(0.00337676 -0.0047539 0)
(-0.00177409 -0.00115882 0)
(-0.00164314 -0.00243698 0)
(0.000540909 -0.00105292 0)
(-0.00050538 0.00157503 0)
(0.00548076 0.000439864 0)
(0.00384209 -0.000443731 0)
(0.00176938 -0.00187141 0)
(0.00494502 -0.00316307 0)
(0.00244856 -0.00629819 0)
(0.00237958 -0.00875825 0)
(0.00173733 -0.00975255 0)
(0.00115634 -0.00977704 0)
(0.000752998 -0.0100672 0)
(0.000356317 -0.0100042 0)
(0.000147878 -0.00975636 0)
(-9.3806e-05 -0.00951282 0)
(-6.33109e-05 -0.00914406 0)
(-0.000142278 -0.008597 0)
(-0.000510859 -0.00804339 0)
(-0.0010997 -0.00724064 0)
(-0.00167333 -0.00660396 0)
(-0.00218474 -0.00599742 0)
(-0.00256516 -0.00562392 0)
(-0.00267627 -0.00507398 0)
(-0.00238313 -0.00460512 0)
(-0.00160773 -0.00397867 0)
(-0.000438585 -0.0035035 0)
(0.000728289 -0.00320826 0)
(0.00152035 -0.00343394 0)
(0.00179324 -0.00408354 0)
(0.00176803 -0.00500964 0)
(0.00158556 -0.00586713 0)
(0.00117224 -0.00640569 0)
(0.000685748 -0.00648627 0)
(0.000423351 -0.00644897 0)
(0.000271384 -0.00646413 0)
(0.000152836 -0.00648035 0)
(8.58781e-05 -0.00646268 0)
(6.70134e-05 -0.00639513 0)
(8.67439e-05 -0.00630919 0)
(9.27784e-05 -0.00618797 0)
(8.16858e-05 -0.0060767 0)
(5.67328e-05 -0.00670986 0)
(-1.09647e-05 -0.00614496 0)
(-0.00108164 -0.00112998 0)
(-2.11896e-05 -0.00145985 0)
(-0.00129953 -0.00290299 0)
(-0.000550728 -0.00398757 0)
(-0.0014085 -0.0048875 0)
(-0.000268863 -0.00588422 0)
(-0.00113006 -0.0069636 0)
(0.00077962 -0.00698085 0)
(0.000348086 -0.0072121 0)
(-0.000486971 -0.00718949 0)
(0.000734588 -0.00721816 0)
(0.00185955 -0.00941294 0)
(-0.00222507 -0.00878304 0)
(0.00116293 -0.00725734 0)
(0.00189639 -0.00697753 0)
(0.000180623 -0.00915245 0)
(0.000227896 -0.0100226 0)
(-0.000780081 -0.00899671 0)
(0.00128822 -0.00779345 0)
(-0.00146167 -0.007151 0)
(-0.000139082 -0.00824509 0)
(-0.00066093 -0.00851206 0)
(-0.000835544 -0.00760536 0)
(-0.000374292 -0.0040981 0)
(-0.00104227 -0.00373226 0)
(-0.00145392 -0.00489846 0)
(0.000418941 -0.00456282 0)
(-0.000228965 -0.00648034 0)
(0.000843255 -0.00755816 0)
(-0.00222056 -0.00847566 0)
(-0.00144401 -0.00573852 0)
(-0.00231649 -0.0054244 0)
(-0.00256738 -0.0051547 0)
(0.000963044 -0.00664872 0)
(0.00109005 -0.00238242 0)
(0.00306905 -0.00131559 0)
(0.00396856 -0.00840412 0)
(0.00472245 -0.00845891 0)
(0.0055333 -0.00600847 0)
(0.00549738 -0.00829993 0)
(0.00386779 -0.00548545 0)
(0.00251606 -0.00497763 0)
(0.00154514 -0.00446236 0)
(0.000989246 -0.00424022 0)
(0.000577102 -0.00428371 0)
(0.000354063 -0.00464819 0)
(1.99184e-05 -0.00492048 0)
(-0.000171504 -0.00534629 0)
(-0.000414625 -0.0055183 0)
(-0.000800787 -0.00560459 0)
(-0.0013909 -0.0057079 0)
(-0.00173098 -0.00592897 0)
(-0.00217696 -0.00625217 0)
(-0.00252129 -0.0067367 0)
(-0.00265848 -0.00690589 0)
(-0.00251541 -0.00700804 0)
(-0.00193189 -0.00696103 0)
(-0.000816165 -0.00675548 0)
(0.000691464 -0.00644321 0)
(0.0019214 -0.0064033 0)
(0.00232799 -0.00658124 0)
(0.00232799 -0.00677428 0)
(0.00191477 -0.00692016 0)
(0.00114369 -0.00681697 0)
(0.000586577 -0.00662285 0)
(0.000369377 -0.00649606 0)
(0.00025801 -0.00643116 0)
(0.000147224 -0.00641524 0)
(4.72832e-05 -0.00639711 0)
(1.05195e-05 -0.00634667 0)
(3.58446e-05 -0.00628002 0)
(5.49898e-05 -0.00617634 0)
(5.16667e-05 -0.00607406 0)
(3.90883e-05 -0.00672012 0)
(-5.58635e-06 -0.00615424 0)
(0.000918127 -0.00620128 0)
(0.0016429 -0.00641341 0)
(0.000895377 -0.00930567 0)
(0.000929417 -0.00860192 0)
(0.00137464 -0.00853416 0)
(-3.68968e-05 -0.00869661 0)
(-0.00165167 -0.00786854 0)
(-0.000569368 -0.00788852 0)
(-0.00150298 -0.00760492 0)
(2.74544e-05 -0.00803213 0)
(-0.000353604 -0.00889782 0)
(-0.00068708 -0.0105619 0)
(-2.40301e-05 -0.00878574 0)
(-0.00177686 -0.00540897 0)
(0.00280864 -0.0101328 0)
(0.000960844 -0.0104288 0)