/*--------------------------------*- C++ -*----------------------------------*\
  =========                 |
  \\      /  F ield         | OpenFOAM: The Open Source CFD Toolbox
   \\    /   O peration     | Website:  https://openfoam.org
    \\  /    A nd           | Version:  12
     \\/     M anipulation  |
\*---------------------------------------------------------------------------*/
FoamFile
{
    format      ascii;
    class       volVectorField;
    location    "0.8";
    object      U.water_0;
}
// * * * * * * * * * * * * * * * * * * * * * * * * * * * * * * * * * * * * * //

dimensions      [0 1 -1 0 0 0 0];

internalField   nonuniform List<vector> 
3750
(
(0.0017539 0.00823107 0)
(0.00192852 0.0166179 0)
(-0.00178659 0.016216 0)
(-0.000941064 0.00855976 0)
(-0.000801702 0.00933736 0)
(-0.000943921 0.00860252 0)
(-0.000634392 0.0059474 0)
(-0.000298122 0.0084972 0)
(-0.00154889 0.00615137 0)
(-0.000355945 0.0044733 0)
(-0.000470369 0.00564661 0)
(-0.00201076 0.00350095 0)
(0.000561343 0.00709531 0)
(0.000463091 0.00947684 0)
(0.000559696 0.00929003 0)
(0.000939809 0.00836544 0)
(0.00149572 0.00839043 0)
(8.39138e-05 0.00841799 0)
(-0.00101972 0.00600369 0)
(0.00151063 0.00762742 0)
(-0.000198415 0.00827827 0)
(-0.0031801 0.0139832 0)
(0.000714751 0.0156331 0)
(0.00162826 0.013766 0)
(0.00205077 0.0125811 0)
(0.00109184 0.0103739 0)
(0.00129425 0.00785035 0)
(-0.001133 0.00682756 0)
(-0.000156722 0.00863386 0)
(-0.00475605 0.00953348 0)
(-0.000343978 0.00705618 0)
(0.000321377 0.00661452 0)
(0.000337729 0.00605124 0)
(0.000102297 0.00632105 0)
(-0.000300801 0.00640531 0)
(0.000677603 0.0076806 0)
(0.000224509 0.00662564 0)
(0.00189613 0.00554533 0)
(0.00079181 0.00340117 0)
(-0.00191439 0.00531081 0)
(0.00263653 0.000273526 0)
(0.000241189 8.10374e-05 0)
(0.000752042 -0.00409528 0)
(0.00141269 -0.00371953 0)
(0.000228693 -0.00468906 0)
(0.000650734 -0.00914533 0)
(0.00016838 -0.00733175 0)
(-0.000529867 -0.00833117 0)
(-0.000875432 -0.00709921 0)
(-0.000872559 -0.00696485 0)
(-0.00101149 -0.00570972 0)
(-0.000829406 -0.00505351 0)
(-0.0008445 -0.00404515 0)
(-0.000793476 -0.00349728 0)
(-0.000739508 -0.0027977 0)
(-0.000657536 -0.00209245 0)
(-0.000476981 -0.00137811 0)
(-0.000364046 -0.000700477 0)
(-0.000228199 -9.8858e-05 0)
(-0.000228419 0.000414298 0)
(-0.000250127 0.000943602 0)
(-0.000277249 0.00148533 0)
(-0.000297426 0.0021847 0)
(-0.000302118 0.00299612 0)
(-0.000272679 0.00396603 0)
(-0.000131224 0.004891 0)
(0.000177153 0.00558596 0)
(0.000654002 0.00550266 0)
(0.000847903 0.00470064 0)
(0.000771775 0.00313169 0)
(0.000579393 0.0014342 0)
(0.000468047 -0.000215894 0)
(0.000818659 -0.00148961 0)
(0.000759886 -0.00352044 0)
(0.000398709 -0.00409179 0)
(-0.000205577 0.00806151 0)
(0.00333718 0.0113489 0)
(-0.00325843 0.0121715 0)
(-0.000533834 0.0094524 0)
(-0.00047755 0.00988971 0)
(0.000568944 0.0102855 0)
(0.000262196 0.00940714 0)
(0.00231234 0.0100203 0)
(-0.00265321 0.0113461 0)
(0.00435703 0.0100484 0)
(0.00207978 0.00643985 0)
(0.000624065 0.00284509 0)
(0.000322243 0.00477337 0)
(-0.0032781 0.0079609 0)
(0.00146552 0.00989345 0)
(0.000121134 0.00941763 0)
(-0.00123529 0.0104064 0)
(-0.000348524 0.0104151 0)
(-0.00109876 0.0108169 0)
(-0.000823638 0.00850224 0)
(0.000241092 0.00444293 0)
(-0.00287451 0.0134599 0)
(-0.00361991 0.0147816 0)
(0.000818724 0.00802464 0)
(-0.000312623 0.00790077 0)
(0.0013703 0.00859151 0)
(0.000359709 0.00753881 0)
(4.87039e-05 0.00577688 0)
(0.00137371 0.0048126 0)
(0.00346172 0.00435023 0)
(0.00288852 0.00434783 0)
(-0.00116902 0.00440352 0)
(0.00105943 0.00624334 0)
(0.000329451 0.00488795 0)
(-0.00170582 0.00408291 0)
(0.00249388 0.00447896 0)
(-0.000250832 0.00258797 0)
(0.00422661 0.00203435 0)
(0.00425887 -0.00158899 0)
(0.00440406 0.00458925 0)
(0.00277858 0.00341781 0)
(0.00272497 -0.00490968 0)
(0.000303533 -0.00428745 0)
(0.00265126 -0.00370938 0)
(-0.000245882 -0.00323479 0)
(0.0013244 -0.00309648 0)
(0.000572073 -0.00274073 0)
(0.000211948 -0.00322195 0)
(-0.000753542 -0.00277966 0)
(-0.000768733 -0.00328287 0)
(-0.0010127 -0.00339286 0)
(-0.000738484 -0.00369765 0)
(-0.000667864 -0.0040484 0)
(-0.000499184 -0.0047287 0)
(-0.000592303 -0.00531506 0)
(-0.00078067 -0.00563624 0)
(-0.000886165 -0.00561369 0)
(-0.000952528 -0.0054097 0)
(-0.000883017 -0.00509058 0)
(-0.000796318 -0.00483202 0)
(-0.00078785 -0.00450536 0)
(-0.000935148 -0.00399055 0)
(-0.00120996 -0.00315091 0)
(-0.00153979 -0.0020109 0)
(-0.00175034 -0.000737692 0)
(-0.00158534 0.000569757 0)
(-0.000874767 0.00152152 0)
(0.000317217 0.00182065 0)
(0.00151002 0.00106855 0)
(0.00242568 -0.000405241 0)
(0.00281154 -0.00226394 0)
(0.00264921 -0.00400176 0)
(0.00220039 -0.00469384 0)
(0.00170106 -0.00566772 0)
(0.000403978 -0.00512797 0)
(0.000663623 0.000607709 0)
(0.0016049 0.000755141 0)
(-0.00144575 -0.00141548 0)
(-0.00244258 -0.00165963 0)
(-0.00103602 -0.0026817 0)
(-0.00103251 0.000294169 0)
(-0.00160926 0.000909176 0)
(0.000520709 0.00168461 0)
(-0.00112521 0.00802078 0)
(0.00246884 0.00898157 0)
(0.001865 0.0017863 0)
(0.00211924 0.00244234 0)
(0.000707979 0.0026349 0)
(-0.00193932 0.00963225 0)
(-0.00329757 0.00934224 0)
(-0.00210806 -0.000433512 0)
(-0.00397601 0.00296331 0)
(0.00095825 0.00267329 0)
(0.00352506 -0.00150197 0)
(0.00247543 -0.00258572 0)
(0.00266335 -0.00484724 0)
(0.00359141 -0.00271924 0)
(-0.00390657 0.00355413 0)
(-0.00249904 -0.000531563 0)
(0.00031923 -0.00498979 0)
(0.00139814 -0.00458352 0)
(0.000692855 -0.00846764 0)
(0.00190544 -0.0069099 0)
(0.000245202 -0.00555828 0)
(-0.00328707 -0.00424553 0)
(-0.000450349 -0.00375004 0)
(-0.00125191 -0.000343601 0)
(0.00272411 -0.00163023 0)
(0.00148263 -0.0084026 0)
(0.00085409 -0.00502991 0)
(0.00169011 -0.00749542 0)
(0.00295445 -0.00920734 0)
(0.0032299 -0.00668204 0)
(0.00557956 -0.00875271 0)
(0.00711834 -0.00749923 0)
(0.000400165 -0.0068368 0)
(0.00127118 -0.00643454 0)
(0.000147485 -0.00735603 0)
(0.00110608 -0.00702669 0)
(-0.000612604 -0.00635327 0)
(0.000461142 -0.00590403 0)
(-0.00035862 -0.00534725 0)
(-0.000126947 -0.00545049 0)
(-0.000636274 -0.00541657 0)
(-0.000709773 -0.00535146 0)
(-0.000633784 -0.00551139 0)
(-0.000154901 -0.00586937 0)
(0.000167975 -0.00639496 0)
(0.000384756 -0.00713278 0)
(0.000144896 -0.00783699 0)
(-0.000444145 -0.00847936 0)
(-0.000727241 -0.008749 0)
(-0.000828949 -0.00886851 0)
(-0.000809714 -0.00896293 0)
(-0.000834919 -0.00897597 0)
(-0.0011174 -0.00880832 0)
(-0.00170838 -0.00823447 0)
(-0.00234373 -0.00736781 0)
(-0.0027488 -0.00658191 0)
(-0.0028159 -0.00596933 0)
(-0.00231345 -0.00554656 0)
(-0.000957539 -0.00555239 0)
(0.00129255 -0.00574748 0)
(0.00312607 -0.00626001 0)
(0.00381271 -0.00658864 0)
(0.00383985 -0.00670609 0)
(0.00283766 -0.0063819 0)
(0.00205219 -0.00587565 0)
(0.0013266 -0.00632993 0)
(0.000270327 -0.0054201 0)
(0.00277414 -0.00175828 0)
(0.00158891 0.000872784 0)
(0.000594488 -0.00226805 0)
(-0.00187576 -8.31414e-05 0)
(-0.00157317 -0.000362249 0)
(-0.000721246 -0.00203413 0)
(-0.000939903 -0.00144616 0)
(0.00143495 -0.00205636 0)
(0.00112102 -0.000594474 0)
(-0.00158386 -0.00135428 0)
(-0.00230596 -0.00397128 0)
(0.00165967 -0.00409731 0)
(0.00228383 -0.00487202 0)
(0.000757573 -0.00312943 0)
(-0.000348789 -0.00346445 0)
(-0.00157858 -0.00986863 0)
(0.0013243 -0.00805507 0)
(-0.000875072 -0.00589813 0)
(-0.000229502 -0.00950074 0)
(0.00510095 -0.0108552 0)
(0.00281684 -0.0104474 0)
(0.00248005 -0.0084022 0)
(-0.00310861 -0.00439928 0)
(-0.00415264 -0.00052044 0)
(0.00357765 -0.00415024 0)
(0.00133362 -0.00903474 0)
(0.000668057 -0.00850918 0)
(-0.000573018 -0.00950537 0)
(0.00032734 -0.0092318 0)
(0.00094345 -0.00367497 0)
(0.000683273 -0.00396625 0)
(0.00222697 -0.0034075 0)
(0.00111641 -0.0033104 0)
(0.00203003 -0.00911274 0)
(0.00151885 -0.00717511 0)
(0.00126027 -0.00798125 0)
(0.00275973 -0.00904175 0)
(0.00236753 -0.00770792 0)
(0.00309599 -0.00700344 0)
(0.00285828 -0.0062271 0)
(0.00173924 -0.00554817 0)
(0.00131726 -0.00524211 0)
(0.000528599 -0.00564825 0)
(0.000617789 -0.00564393 0)
(9.98832e-05 -0.00558824 0)
(0.000208068 -0.0055875 0)
(-4.6327e-05 -0.0054398 0)
(-0.000283542 -0.00532583 0)
(-0.000541157 -0.00533081 0)
(-0.00062187 -0.00542998 0)
(-0.000467578 -0.00563169 0)
(0.00010245 -0.00595266 0)
(0.000678606 -0.0063974 0)
(0.000957753 -0.007021 0)
(0.000765065 -0.00776599 0)
(0.000147827 -0.00861797 0)
(-0.000464989 -0.00939006 0)
(-0.000729706 -0.00984153 0)
(-0.000713956 -0.0101432 0)
(-0.000854365 -0.0102309 0)
(-0.00145566 -0.0100163 0)
(-0.00235331 -0.00935517 0)
(-0.00290737 -0.00876224 0)
(-0.00302706 -0.00843652 0)
(-0.0028505 -0.0082685 0)
(-0.00202532 -0.00855461 0)
(-0.000543389 -0.00920128 0)
(0.00134202 -0.00941291 0)
(0.00263173 -0.00907027 0)
(0.00313384 -0.00858984 0)
(0.00293784 -0.00776415 0)
(0.00207724 -0.00677998 0)
(0.00165807 -0.00623483 0)
(0.000999258 -0.00653982 0)
(4.71395e-05 -0.0056942 0)
(0.00137251 -0.00195928 0)
(-0.00078534 -0.00235307 0)
(-0.00214579 -0.000670008 0)
(-0.000938664 -0.00191179 0)
(-0.00259137 0.00102824 0)
(0.00177562 0.000213546 0)
(0.000453219 0.000247016 0)
(0.00275845 -0.00101921 0)
(-0.000286188 -0.00106024 0)
(0.00357185 -0.00143019 0)
(0.00207803 -0.00672089 0)
(0.00109373 -0.00538636 0)
(0.00167414 -0.0111073 0)
(0.00232507 -0.00903685 0)
(0.00185019 -0.00728409 0)
(-0.000191218 -0.0117436 0)
(0.00433385 -0.00750975 0)
(-0.00190629 -0.0087639 0)
(-0.000275001 -0.00203374 0)
(-0.000238754 -0.00145115 0)
(0.00215363 -0.00758621 0)
(0.00164449 -0.00883329 0)
(-0.000100533 -0.00155335 0)
(-0.00409772 0.00561979 0)
(-8.61592e-05 -0.00279894 0)
(0.000807433 -0.0110312 0)
(0.000811218 -0.0107042 0)
(0.00108154 -0.0102788 0)
(0.000960297 -0.0082501 0)
(0.00315481 -0.00873136 0)
(-0.00123651 -0.00654574 0)
(0.000441277 -0.00395174 0)
(-0.00398051 -0.00226372 0)
(0.00032347 -0.00533812 0)
(0.00114783 -0.00247515 0)
(0.00152542 -0.00327109 0)
(0.000210914 -0.00519247 0)
(0.00550087 -0.00334458 0)
(0.00412185 -0.00485683 0)
(0.00305862 -0.00519117 0)
(0.00202297 -0.00475617 0)
(0.00151912 -0.00397106 0)
(0.000665769 -0.00401058 0)
(0.000400754 -0.00379898 0)
(-3.17151e-06 -0.00384961 0)
(-0.000164953 -0.00379887 0)
(-0.000354703 -0.00375905 0)
(-0.000392454 -0.00371821 0)
(-0.000491978 -0.00387345 0)
(-0.000400867 -0.00415692 0)
(-6.39676e-05 -0.00457908 0)
(0.000549568 -0.0051022 0)
(0.00122775 -0.00556943 0)
(0.00167899 -0.00610016 0)
(0.00166665 -0.00679794 0)
(0.00112919 -0.0076723 0)
(0.000457369 -0.00866659 0)
(-9.54389e-05 -0.00950619 0)
(-0.000464273 -0.0100879 0)
(-0.000971087 -0.010182 0)
(-0.00200227 -0.00978626 0)
(-0.00296756 -0.00922298 0)
(-0.00322892 -0.00892784 0)
(-0.00321754 -0.00876639 0)
(-0.00269074 -0.00875766 0)
(-0.00150213 -0.00924736 0)
(-8.26614e-05 -0.00980338 0)
(0.00119736 -0.00978412 0)
(0.00206035 -0.00919039 0)
(0.00230979 -0.00842271 0)
(0.00191112 -0.00749777 0)
(0.00144518 -0.00673112 0)
(0.00124194 -0.00629063 0)
(0.000713948 -0.0065861 0)
(-3.83699e-05 -0.00591317 0)
(-0.000276733 0.000675677 0)
(-0.000883081 -0.00575447 0)
(-0.00341474 -0.00427039 0)
(-0.0020527 -0.00263892 0)
(-0.00558209 -0.00019757 0)
(0.00167965 -0.00219105 0)
(0.00233596 -0.00525679 0)
(0.00205143 -0.00671159 0)
(0.00370167 -0.00237598 0)
(0.00343018 -0.000404737 0)
(0.00438032 -0.0100865 0)
(0.00305582 -0.00969348 0)
(0.00177173 -0.0106261 0)
(0.00443847 -0.0106116 0)
(-0.00119607 -0.0096284 0)
(-0.000451827 -0.00744377 0)
(0.00186613 -0.00690898 0)
(0.00034822 -0.00588888 0)
(0.00272721 -0.00253824 0)
(-0.00365795 -0.00274677 0)
(0.002855 -0.00452991 0)
(0.00185507 -0.00672489 0)
(0.00590011 -0.00703212 0)
(-2.45679e-05 0.00169232 0)
(-0.00428701 0.000804491 0)
(-0.000232659 -0.00869258 0)
(0.00152327 -0.00962506 0)
(0.000970179 -0.0113326 0)
(-0.000102828 -0.00888068 0)
(-0.00088936 -0.00796348 0)
(0.000218464 -0.00809603 0)
(-0.00263071 -0.00820905 0)
(-0.000180888 -0.00737004 0)
(-0.000545139 -0.00766663 0)
(0.00370199 -0.00758163 0)
(0.00318179 -0.00704183 0)
(0.00321853 -0.00173464 0)
(0.00335247 -0.000325946 0)
(0.00264034 -0.00666434 0)
(0.00142154 -0.00502963 0)
(0.00109957 -0.00387489 0)
(0.000651233 -0.00357808 0)
(0.000498377 -0.00343252 0)
(0.000307032 -0.00310227 0)
(8.24423e-05 -0.00309319 0)
(-2.80732e-05 -0.00313012 0)
(-0.000133952 -0.00321146 0)
(-0.000163375 -0.00328711 0)
(-0.000154378 -0.00350813 0)
(6.44836e-05 -0.00379372 0)
(0.000477847 -0.00416967 0)
(0.00101539 -0.00462429 0)
(0.00167591 -0.00495601 0)
(0.00219898 -0.00529547 0)
(0.0023326 -0.00555456 0)
(0.00200426 -0.00606485 0)
(0.00137387 -0.00673699 0)
(0.000667496 -0.00743154 0)
(-7.7087e-05 -0.00805904 0)
(-0.00108044 -0.00838226 0)
(-0.00244217 -0.00823883 0)
(-0.00322584 -0.00803993 0)
(-0.00339252 -0.00799028 0)
(-0.00323643 -0.00801415 0)
(-0.00237811 -0.00833072 0)
(-0.00108306 -0.00881767 0)
(4.77752e-05 -0.00909347 0)
(0.00083836 -0.00896557 0)
(0.00130082 -0.00840061 0)
(0.00142442 -0.00769193 0)
(0.00128692 -0.00710743 0)
(0.00102374 -0.00659009 0)
(0.000876727 -0.00626098 0)
(0.000527742 -0.00662125 0)
(-6.26517e-05 -0.00604624 0)
(-0.00492982 -0.00637004 0)
(-0.0020234 -0.00987021 0)
(-0.00239351 -0.009312 0)
(-0.00406771 -0.0121087 0)
(0.000651163 -0.00733129 0)
(0.000857667 -0.00828971 0)
(0.00463577 -0.0167531 0)
(0.00570547 -0.0157443 0)
(0.00594717 -0.00990849 0)
(-0.00137751 -0.00849811 0)
(0.00162047 -0.0113194 0)
(0.00273498 -0.00984768 0)
(0.00196516 -0.0107796 0)
(0.00215623 -0.0100822 0)
(-6.9119e-05 -0.0111349 0)
(-0.00221001 -0.00694076 0)
(0.00277347 -0.00550162 0)
(-0.000757936 -0.00709611 0)
(0.0012005 -0.00566902 0)
(0.00118772 -0.00209059 0)
(0.00119529 -0.00362988 0)
(0.00233912 -0.00769832 0)
(0.00220365 -0.00546436 0)
(0.00105263 -0.00464797 0)
(-0.00600627 -0.00209144 0)
(0.000436796 -0.00450546 0)
(-0.000103984 -0.00770733 0)
(0.00136079 -0.00926875 0)
(0.00166565 -0.00973234 0)
(0.000641302 -0.00877009 0)
(7.12044e-05 -0.0107004 0)
(-0.00257312 -0.00983554 0)
(0.000898677 -0.00980609 0)
(-0.00428893 -0.0124296 0)
(0.00110204 -0.009621 0)
(0.00465691 -0.0110619 0)
(0.00418977 -0.00941271 0)
(0.00013725 -0.00598963 0)
(0.000826483 -0.00824834 0)
(0.00137267 -0.00763584 0)
(0.000880378 -0.00655618 0)
(0.000595181 -0.00628221 0)
(0.000568924 -0.00607072 0)
(0.000194425 -0.00573432 0)
(0.000117264 -0.00548547 0)
(-1.91604e-05 -0.00544753 0)
(-8.42291e-05 -0.00539174 0)
(-9.19186e-05 -0.00529488 0)
(4.95523e-06 -0.00529594 0)
(0.00030913 -0.00527362 0)
(0.000795157 -0.00526565 0)
(0.00138229 -0.00534026 0)
(0.00196268 -0.00529626 0)
(0.00232383 -0.00530055 0)
(0.00241301 -0.0052002 0)
(0.00227449 -0.00515388 0)
(0.00184299 -0.00525646 0)
(0.0012441 -0.00549778 0)
(0.000480294 -0.00588581 0)
(-0.000675286 -0.00629587 0)
(-0.00222456 -0.00665095 0)
(-0.00309334 -0.00694813 0)
(-0.00324119 -0.00714174 0)
(-0.00293055 -0.00743781 0)
(-0.00196801 -0.00779615 0)
(-0.000802617 -0.0081438 0)
(3.71601e-05 -0.00824621 0)
(0.000495759 -0.00802605 0)
(0.000801002 -0.00764218 0)
(0.000955342 -0.00724369 0)
(0.000904508 -0.00688186 0)
(0.0007485 -0.00649964 0)
(0.000640095 -0.00624936 0)
(0.000393134 -0.00668246 0)
(-5.97819e-05 -0.00612843 0)
(0.000712932 -0.0101969 0)
(0.000280026 -0.0121156 0)
(0.00243882 -0.0184104 0)
(0.000794593 -0.0187399 0)
(0.00366488 -0.0158123 0)
(-0.00312307 -0.0193662 0)
(0.00224829 -0.0166609 0)
(0.000765192 -0.0169531 0)
(0.00431398 -0.0182875 0)
(-0.00220624 -0.0106035 0)
(-0.00252208 -0.00870329 0)
(0.00294492 -0.0112393 0)
(0.00202954 -0.0104742 0)
(0.00172525 -0.0112527 0)
(0.000117281 -0.0134141 0)
(0.000678272 -0.00389594 0)
(-0.0016991 -0.00544355 0)
(-0.00229934 -0.00840668 0)
(0.000772069 -0.00384855 0)
(0.00691361 -0.00657725 0)
(3.14529e-05 -0.00614222 0)
(0.00194601 -0.00638351 0)
(0.000815531 -0.00906369 0)
(0.000809607 -0.00829374 0)
(-0.00195959 -0.000415124 0)
(0.0003967 -0.00231892 0)
(0.000392103 -0.00857429 0)
(0.00266533 -0.00764338 0)
(0.00306426 -0.00835668 0)
(0.00271045 -0.00722089 0)
(0.00117578 -0.0102326 0)
(0.00168869 -0.00623276 0)
(-0.000349522 -0.00957698 0)
(0.00172785 -0.0102203 0)
(0.00155597 -0.00446648 0)
(-0.000469483 -0.0130524 0)
(-0.00240838 -0.0144405 0)
(0.00124453 -0.0112529 0)
(4.75007e-05 -0.0121536 0)
(-0.000209306 -0.0109883 0)
(0.000156247 -0.0102612 0)
(-0.000234696 -0.00950207 0)
(-0.000279221 -0.00915669 0)
(-0.000271823 -0.00882631 0)
(-0.000269543 -0.00852771 0)
(-0.000165915 -0.00841583 0)
(-0.000271416 -0.00822552 0)
(-0.00031473 -0.00814521 0)
(-0.000231092 -0.00809587 0)
(4.58844e-05 -0.00800123 0)
(0.00044365 -0.00780878 0)
(0.0010131 -0.00736689 0)
(0.00158379 -0.006733 0)
(0.00204367 -0.00607464 0)
(0.0022452 -0.00544178 0)
(0.00210953 -0.0050161 0)
(0.00176218 -0.00467214 0)
(0.00131376 -0.00455217 0)
(0.00071191 -0.00468155 0)
(-0.000301854 -0.00505794 0)
(-0.00169477 -0.00565051 0)
(-0.00269863 -0.00634435 0)
(-0.00293007 -0.00674701 0)
(-0.00261656 -0.00710104 0)
(-0.00166802 -0.00736783 0)
(-0.00063859 -0.00757703 0)
(-6.69906e-05 -0.00759379 0)
(0.000258075 -0.00742613 0)
(0.000530571 -0.00720227 0)
(0.000683264 -0.00697446 0)
(0.000650904 -0.00673617 0)
(0.000545751 -0.00644076 0)
(0.000467084 -0.00624127 0)
(0.000289351 -0.00673794 0)
(-5.19482e-05 -0.00618336 0)
(0.00161369 -0.0182551 0)
(0.0019045 -0.0173422 0)
(0.00125668 -0.0176509 0)
(0.00467758 -0.0176322 0)
(0.000333968 -0.0150142 0)
(-0.000578174 -0.0110529 0)
(0.00174131 -0.0125428 0)
(-0.000623282 -0.0144248 0)
(0.000712559 -0.0133521 0)
(0.000668255 -0.0151314 0)
(-0.00114126 -0.00617889 0)
(0.000186373 -0.00528787 0)
(-0.000358602 -0.0119393 0)
(0.00129933 -0.011616 0)
(0.00227981 -0.0121896 0)
(0.00264636 -0.00945631 0)
(-0.00328471 -0.0109954 0)
(0.00277131 -0.00725281 0)
(-0.00122233 -0.000328833 0)
(-0.00230822 -0.0042315 0)
(0.00129938 -0.00955472 0)
(0.00226827 -0.00873845 0)
(0.00113592 -0.00894055 0)
(0.000484775 -0.0101198 0)
(0.00292379 -0.00492248 0)
(-0.00352653 -0.00364972 0)
(-0.00201723 -0.00641691 0)
(0.000781743 -0.00448178 0)
(0.00172683 -0.00486345 0)
(0.00174363 -0.00301208 0)
(0.00537429 -0.00368836 0)
(0.0053364 -0.00346323 0)
(0.00341705 -0.00126245 0)
(0.00562366 -0.00223939 0)
(0.000637587 -0.00433337 0)
(-0.00392272 -0.009058 0)
(-0.00135152 -0.00351513 0)
(-0.00227028 -0.00245203 0)
(-0.0013177 -0.00952739 0)
(-0.000488078 -0.00747349 0)
(-0.000560713 -0.00638866 0)
(-0.0003115 -0.0065901 0)
(-0.000201862 -0.00657057 0)
(-0.000305143 -0.0066084 0)
(-0.000268279 -0.00683036 0)
(-0.000253969 -0.00694928 0)
(-0.000272323 -0.00709119 0)
(-0.000280015 -0.00728063 0)
(-0.000134798 -0.00762676 0)
(6.1997e-05 -0.00792621 0)
(0.000219219 -0.00808837 0)
(0.000465141 -0.0079851 0)
(0.000780447 -0.0075458 0)
(0.00108725 -0.00682579 0)
(0.00138131 -0.00587173 0)
(0.0014597 -0.0049697 0)
(0.00136158 -0.00419259 0)
(0.00122139 -0.00379426 0)
(0.000941667 -0.00372068 0)
(0.000262153 -0.00401582 0)
(-0.000908408 -0.00467076 0)
(-0.00211619 -0.00561871 0)
(-0.00255177 -0.00612336 0)
(-0.00238012 -0.00650669 0)
(-0.00149877 -0.00686397 0)
(-0.000566108 -0.00710246 0)
(-0.000135699 -0.00715782 0)
(0.000110965 -0.0071139 0)
(0.000348783 -0.00698661 0)
(0.000494466 -0.00681998 0)
(0.000466122 -0.00664492 0)
(0.000393361 -0.00640574 0)
(0.000338163 -0.00623738 0)
(0.000212337 -0.00677934 0)
(-4.32142e-05 -0.00622206 0)
(0.00160705 -0.0175642 0)
(0.00212661 -0.0165828 0)
(0.00179603 -0.0166205 0)
(0.00143029 -0.0141376 0)
(0.00224097 -0.0116821 0)
(0.00162323 -0.00910503 0)
(-0.00324424 -0.00905428 0)
(-0.000806416 -0.0109235 0)
(-0.00193955 -0.0116481 0)
(0.000151925 -0.00935013 0)
(0.000381 -0.00644552 0)
(-0.00479709 -0.00821022 0)
(-0.00032151 -0.00855146 0)
(-6.50863e-05 -0.00799292 0)
(0.00255636 -0.0109867 0)
(0.00246607 -0.00926122 0)
(-0.000165354 -0.00717668 0)
(0.00779871 -0.00766225 0)
(0.000472698 -0.00963103 0)
(-0.00364081 -0.00440243 0)
(-0.00378451 -0.00237389 0)
(0.00154302 -0.00855922 0)
(0.00109494 -0.0119863 0)
(-0.000604241 -0.0076241 0)
(0.000589832 -0.00638486 0)
(-0.00481308 -0.00861309 0)
(-0.00390242 -0.00436514 0)
(0.00260084 -0.0050892 0)
(0.00204164 -0.00865976 0)
(0.00201804 -0.00426893 0)
(0.00304963 -0.0041194 0)
(0.00287859 -0.00405162 0)
(0.00357239 -0.000347033 0)
(0.00070045 -0.00153508 0)
(0.0033441 -0.000750172 0)
(0.000625209 -0.00108231 0)
(0.0026724 -0.00316032 0)
(-0.00432188 -0.00341846 0)
(-0.00197139 -0.00558763 0)
(-0.00173142 -0.00663434 0)
(-0.000554141 -0.00714915 0)
(-0.000493908 -0.0069152 0)
(-2.5626e-05 -0.00705952 0)
(4.155e-05 -0.00716643 0)
(9.34361e-06 -0.00729009 0)
(2.27117e-05 -0.00733164 0)
(0.000112843 -0.00737829 0)
(0.00020344 -0.00758779 0)
(0.000390672 -0.00777122 0)
(0.000463714 -0.00790141 0)
(0.000450983 -0.00791728 0)
(0.000389134 -0.0077279 0)
(0.000353766 -0.00725736 0)
(0.00032064 -0.0064712 0)
(0.000334563 -0.00543136 0)
(0.000392646 -0.00432405 0)
(0.000588386 -0.00331291 0)
(0.000853103 -0.00258279 0)
(0.000949373 -0.00232707 0)
(0.000677578 -0.00235125 0)
(-9.47164e-05 -0.00276347 0)
(-0.00113497 -0.00360186 0)
(-0.00193247 -0.00454205 0)
(-0.00191059 -0.00545489 0)
(-0.00107693 -0.00625811 0)
(-0.000349488 -0.00665021 0)
(-5.10076e-05 -0.00679834 0)
(9.60157e-05 -0.00686954 0)
(0.000244049 -0.00683428 0)
(0.000361886 -0.00671164 0)
(0.000336211 -0.00656586 0)
(0.000277854 -0.00637802 0)
(0.000242233 -0.00623093 0)
(0.000153697 -0.00680803 0)
(-3.48111e-05 -0.00624891 0)
(-0.000567348 -0.0234546 0)
(-0.00305684 -0.0158012 0)
(0.00269381 -0.0139703 0)
(0.00106177 -0.0135125 0)
(-0.000755414 -0.0127773 0)
(0.00149652 -0.0150443 0)
(-0.00120619 -0.0124651 0)
(-0.00196584 -0.0109128 0)
(-0.000317097 -0.0114458 0)
(0.000955039 -0.0119555 0)
(-0.00273371 -0.0108189 0)
(-0.00141705 -0.00589965 0)
(0.0011495 -0.0066057 0)
(-0.000474047 -0.00713524 0)
(0.00282207 -0.00672971 0)
(0.00309719 -0.00870867 0)
(0.00268657 -0.000444454 0)
(0.00176625 -0.00164523 0)
(0.00149779 -0.00647087 0)
(0.00329299 -0.00537559 0)
(-0.00270395 -0.00286807 0)
(-0.00383147 -0.00481247 0)
(-0.00210539 -0.0111748 0)
(-0.00170161 -0.0112984 0)
(-0.00138274 -0.010483 0)
(-0.00186344 -0.00939586 0)
(-0.00245297 -0.000559587 0)
(0.00228375 -0.00301456 0)
(0.00210339 -0.010045 0)
(0.00185898 -0.00621962 0)
(0.000154673 -0.00664779 0)
(6.49294e-08 -0.00462605 0)
(0.00216496 -0.00272992 0)
(0.000248507 -0.00192061 0)
(0.00169428 -0.000451717 0)
(-0.000366783 -0.00435275 0)
(0.001463 -0.00200447 0)
(-0.000544416 -0.00125129 0)
(0.000216579 -0.00470213 0)
(-0.000230071 -0.00717876 0)
(-0.000216565 -0.00652821 0)
(0.0001329 -0.00714732 0)
(7.51417e-05 -0.00734858 0)
(-9.54572e-05 -0.00798551 0)
(-8.78292e-05 -0.00831944 0)
(-0.00017215 -0.00839496 0)
(-5.88063e-05 -0.00849094 0)
(7.09172e-05 -0.00852431 0)
(0.000203149 -0.00851365 0)
(0.000224737 -0.00838285 0)
(0.00011269 -0.00812381 0)
(-0.000144953 -0.00764929 0)
(-0.000434866 -0.00691317 0)
(-0.000696051 -0.00587095 0)
(-0.000796409 -0.00472939 0)
(-0.000727271 -0.00368574 0)
(-0.000357668 -0.00272068 0)
(0.000213636 -0.0020418 0)
(0.000697841 -0.00167315 0)
(0.000757754 -0.00166736 0)
(0.000402635 -0.00192502 0)
(-0.000229293 -0.00259139 0)
(-0.00073999 -0.00365311 0)
(-0.000725724 -0.00500189 0)
(-0.000334847 -0.00614519 0)
(-2.34196e-05 -0.00657239 0)
(8.93363e-05 -0.00673253 0)
(0.000121306 -0.00678377 0)
(0.0001742 -0.00676638 0)
(0.000228844 -0.00666117 0)
(0.000222514 -0.0065127 0)
(0.000194413 -0.00635951 0)
(0.000169674 -0.00622647 0)
(0.000109518 -0.00682891 0)
(-2.66845e-05 -0.00626732 0)
(-0.000548269 -0.0106326 0)
(-0.000313363 -0.00663764 0)
(-0.000979359 -0.00771984 0)
(0.0012158 -0.0142897 0)
(-0.00190226 -0.00964442 0)
(-0.00152043 -0.00740544 0)
(-0.000937776 -0.00816052 0)
(-0.0021794 -0.00694308 0)
(-0.00324392 -0.00472534 0)
(-0.001947 -0.00840924 0)
(-0.00294983 -0.00812187 0)
(-0.00418808 -0.00173203 0)
(0.000466256 -0.00579303 0)
(0.000518427 -0.00473387 0)
(0.000293773 -0.00546516 0)
(0.0026512 -0.00680747 0)
(0.00378364 -0.00363118 0)
(-0.000956269 -0.00368546 0)
(0.0024578 -0.00296612 0)
(0.000908994 -0.00244769 0)
(0.00347742 -0.00407858 0)
(-0.00277103 -0.00406073 0)
(-0.00184604 -0.0080618 0)
(-0.000950892 -0.00708558 0)
(-0.00075306 -0.00762636 0)
(0.000617348 -0.0116895 0)
(0.00129009 -0.00226099 0)
(-0.00427234 -0.00145016 0)
(-0.00223516 -0.00790259 0)
(0.000287781 -0.00554464 0)
(-0.000312205 -0.00706339 0)
(0.000378926 -0.00467529 0)
(0.000238737 -0.00353582 0)
(0.0007771 -0.00538615 0)
(-0.00106466 -0.00526944 0)
(0.000164985 -0.00400412 0)
(0.00225824 -0.00441835 0)
(0.00185838 -0.00618684 0)
(0.000620507 -0.00672865 0)
(0.000567048 -0.00870147 0)
(0.000125381 -0.00902639 0)
(0.000789106 -0.00937137 0)
(0.00083179 -0.00977994 0)
(0.000540191 -0.00995712 0)
(0.000366276 -0.00990398 0)
(0.000275423 -0.00991186 0)
(0.00024177 -0.0096958 0)
(0.00029082 -0.00955537 0)
(0.000292285 -0.0092391 0)
(0.000112874 -0.00884472 0)
(-0.000236245 -0.00824276 0)
(-0.000852409 -0.00740624 0)
(-0.00147773 -0.0063904 0)
(-0.00189188 -0.00545491 0)
(-0.0018829 -0.00439946 0)
(-0.00164704 -0.00345069 0)
(-0.00104506 -0.00260353 0)
(-0.000200748 -0.00210323 0)
(0.000559989 -0.00184137 0)
(0.000883024 -0.00202049 0)
(0.000789079 -0.00248948 0)
(0.000547818 -0.00327998 0)
(0.00045161 -0.0043622 0)
(0.000499044 -0.00557465 0)
(0.000459086 -0.00627217 0)
(0.000294633 -0.00656012 0)
(0.000169284 -0.00666641 0)
(0.000130274 -0.00669819 0)
(0.000115008 -0.00667665 0)
(0.000115964 -0.00659152 0)
(0.000128663 -0.00647491 0)
(0.000130816 -0.00634304 0)
(0.000114057 -0.00622088 0)
(7.61956e-05 -0.00684274 0)
(-1.95597e-05 -0.00627939 0)
(0.00181134 0.00566506 0)
(0.00254821 0.00896528 0)
(-0.00230678 0.00877262 0)
(-0.00226619 0.00700402 0)
(-0.000730981 0.0078866 0)
(-0.00426018 0.00940439 0)
(0.000904709 0.00676433 0)
(0.000867255 0.00267099 0)
(0.000770535 0.00149145 0)
(-0.000945442 0.000268788 0)
(0.00141878 -0.00262511 0)
(-0.000180277 0.00293584 0)
(-0.000790121 -0.0017842 0)
(0.000175583 -0.00988559 0)
(-0.000100389 -0.0077918 0)
(0.00182692 -0.00852968 0)
(0.00149719 -0.00890501 0)
(0.000392347 -0.00746886 0)
(0.00190821 -0.00761932 0)
(0.000709989 -0.00520529 0)
(0.00190226 -0.00488361 0)
(-0.000792383 -0.00530153 0)
(-0.00173738 -0.00635216 0)
(-0.00033599 -0.00660777 0)
(-0.000436261 -0.00663765 0)
(-0.00097123 -0.00604484 0)
(0.00299751 -0.0040362 0)
(-0.00505028 -0.00523129 0)
(-0.0021068 -0.00479775 0)
(-0.00150521 -0.00448107 0)
(0.000414767 -0.00713962 0)
(0.000819952 -0.00313716 0)
(-0.00146531 -0.00203393 0)
(0.000470628 -0.000669884 0)
(0.00127861 -0.000248622 0)
(0.00130255 -0.00189487 0)
(0.00260018 -0.00116331 0)
(0.00134702 -0.00199185 0)
(0.00467178 -0.00283596 0)
(0.00193563 -0.00603489 0)
(0.00175994 -0.00861513 0)
(0.00110072 -0.00972664 0)
(0.000545725 -0.00982847 0)
(0.000186886 -0.0101753 0)
(-0.000162628 -0.010148 0)
(-0.000324653 -0.00991842 0)
(-0.000524068 -0.00968755 0)
(-0.000452978 -0.00932678 0)
(-0.000492148 -0.00878319 0)
(-0.000824522 -0.00823209 0)
(-0.00138191 -0.0074285 0)
(-0.00192892 -0.00678836 0)
(-0.00241693 -0.00617725 0)
(-0.0027761 -0.00580164 0)
(-0.0028693 -0.00524863 0)
(-0.00256017 -0.00477743 0)
(-0.00177011 -0.0041478 0)
(-0.00058634 -0.0036691 0)
(0.00059651 -0.00336907 0)
(0.00140564 -0.00358991 0)
(0.00169346 -0.00423614 0)
(0.00168058 -0.00516058 0)
(0.00150902 -0.00601759 0)
(0.00110503 -0.00655703 0)
(0.000625401 -0.00663725 0)
(0.000369589 -0.00659783 0)
(0.000224537 -0.00661129 0)
(0.00011244 -0.00662628 0)
(5.12534e-05 -0.00660764 0)
(3.78413e-05 -0.00653897 0)
(6.31411e-05 -0.00645196 0)
(7.47278e-05 -0.00632983 0)
(6.90253e-05 -0.00621747 0)
(4.92256e-05 -0.00685325 0)
(-1.35417e-05 -0.00628705 0)
(-0.000128775 -0.00192014 0)
(0.000743369 -0.00268496 0)
(-0.00157839 -0.00442733 0)
(-0.00158534 -0.0057811 0)
(-0.000123165 -0.00716704 0)
(0.000291954 -0.00293536 0)
(0.000235997 -0.00344323 0)
(0.0015815 -0.00768273 0)
(0.00154237 -0.00806692 0)
(-2.79366e-05 -0.00757875 0)
(0.00304838 -0.00664912 0)
(0.00434106 -0.00750578 0)
(-0.0033639 -0.00773859 0)
(0.000809332 -0.00789346 0)
(0.00164877 -0.00756702 0)
(0.000129479 -0.00943093 0)
(0.00016286 -0.00996705 0)
(-0.000128821 -0.00944117 0)
(0.00112511 -0.00784359 0)
(-4.79459e-05 -0.00615935 0)
(0.00133334 -0.0078207 0)
(0.000294535 -0.00864027 0)
(-0.000803707 -0.00705433 0)
(-0.00075687 -0.00440698 0)
(-0.00079475 -0.00459252 0)
(-0.000117216 -0.00475198 0)
(1.66922e-05 -0.00464863 0)
(-0.00153672 -0.00619058 0)
(-0.000543421 -0.00722705 0)
(-0.0037966 -0.00883824 0)
(-0.00249957 -0.00701391 0)
(-0.00276002 -0.00660849 0)
(-0.00334855 -0.00475071 0)
(0.000187855 -0.00431349 0)
(0.000312173 -0.0072 0)
(0.00219374 -0.00646174 0)
(0.0033878 -0.00653528 0)
(0.00447373 -0.00783326 0)
(0.00518601 -0.00565674 0)
(0.005069 -0.00824443 0)
(0.00335775 -0.00540431 0)
(0.00197524 -0.00492593 0)
(0.00100084 -0.00447403 0)
(0.000466328 -0.004292 0)
(8.7304e-05 -0.00436523 0)
(-9.92216e-05 -0.00475158 0)
(-0.00039735 -0.00503894 0)
(-0.000552404 -0.00547702 0)
(-0.000760307 -0.00565765 0)
(-0.00111288 -0.00574894 0)
(-0.00167466 -0.00585414 0)
(-0.00198791 -0.00607641 0)
(-0.00240965 -0.00640008 0)
(-0.00273209 -0.0068866 0)
(-0.00285102 -0.00705864 0)
(-0.00269222 -0.00716183 0)
(-0.00209522 -0.00711492 0)
(-0.000967061 -0.00690901 0)
(0.000554176 -0.00659454 0)
(0.00180448 -0.00655053 0)
(0.00222676 -0.00672753 0)
(0.00223937 -0.00691915 0)
(0.00183858 -0.00706487 0)
(0.0010763 -0.00696158 0)
(0.000524464 -0.00676605 0)
(0.000314025 -0.00663784 0)
(0.000209772 -0.00657151 0)
(0.000105816 -0.00655454 0)
(1.16923e-05 -0.00653569 0)
(-1.95517e-05 -0.0064845 0)
(1.14289e-05 -0.00641704 0)
(3.63041e-05 -0.0063127 0)
(3.85553e-05 -0.0062095 0)
(3.13124e-05 -0.00685831 0)
(-8.21665e-06 -0.00629116 0)
(0.00109372 -0.00705814 0)
(0.00108322 -0.00751589 0)
(0.000894489 -0.0106347 0)
(0.00101167 -0.00978443 0)
(0.00285995 -0.00920259 0)
(0.00255853 -0.00705262 0)
(-0.00226665 -0.0060609 0)
(-0.00105084 -0.00780228 0)
(-0.00152574 -0.00832708 0)
(0.00024814 -0.00793824 0)
(0.00104281 -0.00738947 0)
(0.000576582 -0.00933274 0)
(0.00132216 -0.00888513 0)
(0.00123783 -0.00677334 0)
(-0.000219952 -0.0109045 0)