/*--------------------------------*- C++ -*----------------------------------*\
  =========                 |
  \\      /  F ield         | OpenFOAM: The Open Source CFD Toolbox
   \\    /   O peration     | Website:  https://openfoam.org
    \\  /    A nd           | Version:  12
     \\/     M anipulation  |
\*---------------------------------------------------------------------------*/
FoamFile
{
    format      ascii;
    class       volVectorField::Internal;
    location    "1";
    object      cloud:UTrans;
}
// * * * * * * * * * * * * * * * * * * * * * * * * * * * * * * * * * * * * * //

dimensions      [1 1 -1 0 0 0 0];

value           nonuniform List<vector> 
3750
(
(2.04021e-13 -1.43485e-10 0)
(2.26208e-12 -1.38163e-10 0)
(4.11592e-12 -4.52129e-10 0)
(3.73946e-12 -1.24728e-10 0)
(-2.1687e-12 -1.36246e-10 0)
(1.19412e-11 -1.6643e-10 0)
(1.00213e-11 -1.80552e-10 0)
(1.0766e-12 -1.89792e-10 0)
(-1.31671e-11 -1.77913e-10 0)
(-7.74899e-12 -1.56832e-10 0)
(-3.82989e-12 -1.48097e-10 0)
(-1.63039e-12 -1.37741e-10 0)
(6.00792e-13 -2.87525e-10 0)
(4.20626e-12 -2.77808e-10 0)
(6.34564e-12 -1.22898e-10 0)
(0 0 0)
(8.64744e-12 -2.84064e-10 0)
(0 0 0)
(0 0 0)
(7.33785e-12 -1.7612e-10 0)
(1.06959e-11 -1.88464e-10 0)
(1.01133e-13 -1.88794e-10 0)
(-1.26585e-11 -3.38746e-10 0)
(8.01639e-12 -1.18208e-10 0)
(-1.01269e-12 -2.83312e-10 0)
(-4.60245e-12 -1.47471e-10 0)
(-2.6204e-12 -1.53642e-10 0)
(-7.7504e-13 -1.45784e-10 0)
(-2.59905e-12 -1.51724e-10 0)
(3.27515e-12 -1.43428e-10 0)
(-3.23934e-12 -1.61591e-10 0)
(-8.26324e-12 -1.30377e-10 0)
(-6.95151e-12 -1.51961e-10 0)
(-1.11875e-11 -3.15159e-10 0)
(-1.04281e-11 -3.06759e-10 0)
(-7.19574e-15 -1.35927e-10 0)
(1.26481e-12 -1.44583e-10 0)
(-2.55343e-12 -1.44993e-10 0)
(-1.05692e-12 -1.48531e-10 0)
(0 0 0)
(0 0 0)
(0 0 0)
(0 0 0)
(0 0 0)
(0 0 0)
(0 0 0)
(0 0 0)
(0 0 0)
(0 0 0)
(0 0 0)
(0 0 0)
(0 0 0)
(0 0 0)
(0 0 0)
(0 0 0)
(0 0 0)
(0 0 0)
(0 0 0)
(0 0 0)
(0 0 0)
(0 0 0)
(0 0 0)
(0 0 0)
(0 0 0)
(0 0 0)
(0 0 0)
(0 0 0)
(0 0 0)
(0 0 0)
(0 0 0)
(0 0 0)
(0 0 0)
(0 0 0)
(0 0 0)
(0 0 0)
(-9.65162e-13 -1.50419e-10 0)
(-4.49054e-12 -1.43038e-10 0)
(-1.63775e-12 -1.2329e-10 0)
(5.31569e-12 -1.2258e-10 0)
(2.81028e-11 -2.85994e-10 0)
(6.89048e-11 -3.75948e-10 0)
(5.8069e-11 -4.40948e-10 0)
(-2.15964e-11 -4.80096e-10 0)
(0 0 0)
(0 0 0)
(1.95044e-12 -1.37157e-10 0)
(-1.11906e-12 -1.13561e-10 0)
(-7.75944e-13 -1.42556e-10 0)
(-6.03186e-12 -1.32791e-10 0)
(6.50391e-12 -1.31822e-10 0)
(-6.88661e-12 -4.59365e-10 0)
(-4.36162e-12 -1.27261e-10 0)
(5.56036e-12 -1.50263e-10 0)
(0 0 0)
(1.98058e-11 -1.70954e-10 0)
(1.26894e-11 -1.98212e-10 0)
(0 0 0)
(-3.22335e-11 -1.74234e-10 0)
(-3.4835e-11 -5.33273e-10 0)
(-1.04406e-11 -2.9101e-10 0)
(0 0 0)
(0 0 0)
(-1.75962e-13 -1.48773e-10 0)
(-4.83978e-12 -1.54108e-10 0)
(-1.15717e-12 -1.50153e-10 0)
(-6.50619e-12 -1.51388e-10 0)
(-2.24227e-11 -3.46533e-10 0)
(0 0 0)
(0 0 0)
(-5.63475e-12 -3.02545e-10 0)
(0 0 0)
(0 0 0)
(-1.84018e-12 -1.60551e-10 0)
(0 0 0)
(0 0 0)
(0 0 0)
(0 0 0)
(0 0 0)
(0 0 0)
(0 0 0)
(0 0 0)
(0 0 0)
(0 0 0)
(0 0 0)
(0 0 0)
(0 0 0)
(0 0 0)
(0 0 0)
(0 0 0)
(0 0 0)
(0 0 0)
(0 0 0)
(0 0 0)
(0 0 0)
(0 0 0)
(0 0 0)
(0 0 0)
(0 0 0)
(0 0 0)
(0 0 0)
(0 0 0)
(0 0 0)
(0 0 0)
(0 0 0)
(0 0 0)
(0 0 0)
(0 0 0)
(0 0 0)
(0 0 0)
(0 0 0)
(0 0 0)
(0 0 0)
(-2.12449e-12 -1.19096e-10 0)
(3.75459e-12 -3.01661e-10 0)
(0 0 0)
(1.38146e-11 -1.09089e-10 0)
(0 0 0)
(-5.61162e-11 -2.69652e-10 0)
(-1.26383e-10 -5.81183e-10 0)
(4.21872e-12 -1.14891e-10 0)
(-7.91359e-12 -2.69451e-10 0)
(1.07992e-12 -2.87781e-10 0)
(-1.74155e-11 -2.89834e-10 0)
(-1.66681e-11 -2.70198e-10 0)
(-3.00458e-12 -1.13052e-10 0)
(-6.40316e-12 -1.39987e-10 0)
(4.53376e-12 -1.38703e-10 0)
(0 0 0)
(9.87905e-12 -1.33037e-10 0)
(3.29853e-11 -1.84863e-10 0)
(7.05422e-11 -6.19958e-10 0)
(-1.16177e-10 -5.01125e-10 0)
(0 0 0)
(0 0 0)
(-2.1353e-12 -1.28667e-10 0)
(-9.28351e-13 -3.14931e-10 0)
(9.55794e-13 -1.36006e-10 0)
(1.8622e-12 -3.28025e-10 0)
(-6.18524e-12 -1.22676e-10 0)
(1.37012e-12 -3.1536e-10 0)
(-8.94678e-13 -3.11696e-10 0)
(-2.10824e-12 -1.33163e-10 0)
(-7.34765e-12 -2.96062e-10 0)
(0 0 0)
(0 0 0)
(0 0 0)
(0 0 0)
(0 0 0)
(0 0 0)
(0 0 0)
(0 0 0)
(0 0 0)
(0 0 0)
(0 0 0)
(0 0 0)
(0 0 0)
(0 0 0)
(0 0 0)
(0 0 0)
(0 0 0)
(0 0 0)
(0 0 0)
(0 0 0)
(0 0 0)
(0 0 0)
(0 0 0)
(0 0 0)
(0 0 0)
(0 0 0)
(0 0 0)
(0 0 0)
(0 0 0)
(0 0 0)
(0 0 0)
(0 0 0)
(0 0 0)
(0 0 0)
(0 0 0)
(0 0 0)
(0 0 0)
(0 0 0)
(0 0 0)
(0 0 0)
(0 0 0)
(0 0 0)
(-2.21576e-12 -1.46618e-10 0)
(1.36248e-12 -1.51278e-10 0)
(5.26296e-12 -3.06742e-10 0)
(7.94393e-13 -1.00787e-10 0)
(-3.78519e-13 -8.41067e-11 0)
(1.6906e-12 -9.26498e-11 0)
(-1.27394e-11 -8.60221e-10 0)
(1.0746e-11 -3.10453e-10 0)
(4.37901e-11 -3.13008e-10 0)
(5.70236e-12 -3.86802e-10 0)
(-4.45586e-12 -1.0297e-10 0)
(-4.60685e-12 -1.264e-10 0)
(-2.19451e-12 -1.53976e-10 0)
(-3.28886e-12 -1.46232e-10 0)
(-1.90845e-13 -1.3423e-10 0)
(-5.65529e-13 -1.35268e-10 0)
(0 0 0)
(3.47469e-12 -1.23631e-10 0)
(-9.38158e-13 -1.16632e-10 0)
(-1.17134e-11 -1.02242e-10 0)
(-4.13425e-11 -7.38279e-10 0)
(3.00568e-11 -2.38234e-10 0)
(6.93769e-12 -8.87909e-11 0)
(4.46831e-12 -1.28704e-10 0)
(0 0 0)
(-1.88429e-13 -1.49521e-10 0)
(3.22237e-13 -1.49305e-10 0)
(-5.86317e-12 -2.94372e-10 0)
(-2.85584e-12 -1.25584e-10 0)
(0 0 0)
(0 0 0)
(0 0 0)
(0 0 0)
(0 0 0)
(0 0 0)
(0 0 0)
(0 0 0)
(0 0 0)
(0 0 0)
(0 0 0)
(0 0 0)
(0 0 0)
(0 0 0)
(0 0 0)
(0 0 0)
(0 0 0)
(0 0 0)
(0 0 0)
(0 0 0)
(0 0 0)
(0 0 0)
(0 0 0)
(0 0 0)
(0 0 0)
(0 0 0)
(0 0 0)
(0 0 0)
(0 0 0)
(0 0 0)
(0 0 0)
(0 0 0)
(0 0 0)
(0 0 0)
(0 0 0)
(0 0 0)
(0 0 0)
(0 0 0)
(0 0 0)
(0 0 0)
(0 0 0)
(0 0 0)
(0 0 0)
(0 0 0)
(0 0 0)
(0 0 0)
(-4.30077e-12 -1.51155e-10 0)
(-5.44624e-12 -1.36385e-10 0)
(-1.35006e-11 -1.24362e-10 0)
(-4.49628e-11 -2.77869e-10 0)
(-6.82029e-11 -2.8165e-10 0)
(-3.67876e-11 -1.30891e-10 0)
(-6.60543e-11 -2.23901e-10 0)
(1.55408e-10 -5.38062e-10 0)
(0 0 0)
(1.69729e-11 -1.44883e-10 0)
(4.73545e-12 -1.3811e-10 0)
(-2.91536e-12 -1.39189e-10 0)
(2.7729e-12 -6.36745e-11 0)
(1.87155e-12 -4.28427e-11 0)
(-9.80214e-13 -3.48848e-10 0)
(0 0 0)
(-7.51972e-12 -2.99108e-10 0)
(-1.44407e-12 -1.44417e-10 0)
(-2.45296e-11 -3.00222e-10 0)
(-3.93781e-11 -1.69187e-10 0)
(-4.81365e-11 -2.20769e-10 0)
(5.00766e-11 -2.25878e-10 0)
(2.31621e-11 -1.5271e-10 0)
(0 0 0)
(0 0 0)
(0 0 0)
(-5.26313e-12 -1.53556e-10 0)
(-4.31086e-12 -1.49986e-10 0)
(-3.84353e-12 -3.18562e-10 0)
(-1.13686e-11 -1.32586e-10 0)
(0 0 0)
(0 0 0)
(0 0 0)
(0 0 0)
(0 0 0)
(0 0 0)
(0 0 0)
(0 0 0)
(0 0 0)
(0 0 0)
(0 0 0)
(0 0 0)
(0 0 0)
(0 0 0)
(0 0 0)
(0 0 0)
(0 0 0)
(0 0 0)
(0 0 0)
(0 0 0)
(0 0 0)
(0 0 0)
(0 0 0)
(0 0 0)
(0 0 0)
(0 0 0)
(0 0 0)
(0 0 0)
(0 0 0)
(0 0 0)
(0 0 0)
(0 0 0)
(0 0 0)
(0 0 0)
(0 0 0)
(0 0 0)
(0 0 0)
(0 0 0)
(0 0 0)
(0 0 0)
(0 0 0)
(0 0 0)
(0 0 0)
(0 0 0)
(0 0 0)
(-6.58336e-12 -1.52197e-10 0)
(-5.03035e-12 -1.41763e-10 0)
(-5.18869e-12 -1.42227e-10 0)
(0 0 0)
(0 0 0)
(-2.12328e-11 -1.67435e-10 0)
(-1.14449e-10 -4.38697e-10 0)
(4.26467e-12 -2.1122e-10 0)
(3.88471e-11 -1.77601e-10 0)
(9.662e-12 -1.58007e-10 0)
(5.43044e-12 -1.48599e-10 0)
(2.75313e-13 -1.47412e-10 0)
(6.33632e-12 -1.56868e-10 0)
(4.85788e-12 -1.52876e-10 0)
(-1.50337e-12 -1.54934e-10 0)
(-1.64446e-12 -1.39588e-10 0)
(-1.0759e-11 -1.42081e-10 0)
(-9.04589e-12 -1.47934e-10 0)
(-9.97281e-12 -1.49173e-10 0)
(-2.49395e-11 -1.65385e-10 0)
(-1.94472e-11 -1.88336e-10 0)
(3.51458e-11 -4.32442e-10 0)
(0 0 0)
(9.12567e-12 -1.44323e-10 0)
(0 0 0)
(2.80375e-12 -1.49633e-10 0)
(1.23803e-12 -1.52371e-10 0)
(0 0 0)
(0 0 0)
(-4.83627e-12 -1.45924e-10 0)
(0 0 0)
(0 0 0)
(0 0 0)
(0 0 0)
(0 0 0)
(0 0 0)
(0 0 0)
(0 0 0)
(0 0 0)
(0 0 0)
(0 0 0)
(0 0 0)
(0 0 0)
(0 0 0)
(0 0 0)
(0 0 0)
(0 0 0)
(0 0 0)
(0 0 0)
(0 0 0)
(0 0 0)
(0 0 0)
(0 0 0)
(0 0 0)
(0 0 0)
(0 0 0)
(0 0 0)
(0 0 0)
(0 0 0)
(0 0 0)
(0 0 0)
(0 0 0)
(0 0 0)
(0 0 0)
(0 0 0)
(0 0 0)
(0 0 0)
(0 0 0)
(0 0 0)
(0 0 0)
(0 0 0)
(0 0 0)
(0 0 0)
(0 0 0)
(0 0 0)
(-1.84246e-11 -1.34756e-10 0)
(-1.75585e-11 -3.50632e-10 0)
(-1.72398e-11 -1.51904e-10 0)
(-1.04898e-11 -1.39519e-10 0)
(-1.90149e-11 -1.44993e-10 0)
(-1.56525e-11 -1.79588e-10 0)
(0 0 0)
(-4.2658e-12 -1.85295e-10 0)
(1.27252e-11 -1.66469e-10 0)
(0 0 0)
(3.37107e-11 -3.44329e-10 0)
(7.37705e-13 -1.41606e-10 0)
(9.75108e-13 -1.45885e-10 0)
(1.43678e-12 -1.47952e-10 0)
(1.02618e-12 -1.63324e-10 0)
(0 0 0)
(-6.06979e-12 -1.52893e-10 0)
(-1.14892e-11 -1.59964e-10 0)
(-1.08012e-11 -1.57151e-10 0)
(-1.76227e-11 -1.77244e-10 0)
(-8.07959e-12 -1.77661e-10 0)
(7.54661e-12 -3.78976e-10 0)
(5.65304e-12 -1.47389e-10 0)
(2.48019e-11 -3.28429e-10 0)
(1.08503e-11 -1.34465e-10 0)
(5.19375e-12 -3.21051e-10 0)
(0 0 0)
(-4.58864e-12 -1.5185e-10 0)
(0 0 0)
(0 0 0)
(0 0 0)
(0 0 0)
(0 0 0)
(0 0 0)
(0 0 0)
(0 0 0)
(0 0 0)
(0 0 0)
(0 0 0)
(0 0 0)
(0 0 0)
(0 0 0)
(0 0 0)
(0 0 0)
(0 0 0)
(0 0 0)
(0 0 0)
(0 0 0)
(0 0 0)
(0 0 0)
(0 0 0)
(0 0 0)
(0 0 0)
(0 0 0)
(0 0 0)
(0 0 0)
(0 0 0)
(0 0 0)
(0 0 0)
(0 0 0)
(0 0 0)
(0 0 0)
(0 0 0)
(0 0 0)
(0 0 0)
(0 0 0)
(0 0 0)
(0 0 0)
(0 0 0)
(0 0 0)
(0 0 0)
(0 0 0)
(0 0 0)
(0 0 0)
(0 0 0)
(-9.38466e-12 -2.72414e-10 0)
(4.73819e-12 -3.25818e-10 0)
(0 0 0)
(-1.55763e-11 -2.79312e-10 0)
(0 0 0)
(-1.28413e-11 -1.57169e-10 0)
(-1.19382e-11 -1.76147e-10 0)
(-4.82947e-12 -1.72562e-10 0)
(7.88728e-12 -1.53341e-10 0)
(8.22321e-12 -1.41621e-10 0)
(3.99679e-12 -1.51212e-10 0)
(6.51146e-12 -1.50051e-10 0)
(3.84715e-12 -1.47427e-10 0)
(0 0 0)
(1.73413e-12 -1.5392e-10 0)
(-1.51525e-12 -1.58413e-10 0)
(-2.83528e-12 -1.5338e-10 0)
(0 0 0)
(-9.70909e-12 -1.61534e-10 0)
(-1.00542e-11 -1.71421e-10 0)
(-8.39971e-12 -1.74604e-10 0)
(-5.73231e-12 -1.77896e-10 0)
(4.68291e-14 -1.65388e-10 0)
(-1.73983e-12 -1.53443e-10 0)
(9.12789e-12 -1.56642e-10 0)
(6.90414e-12 -1.43514e-10 0)
(4.65941e-12 -1.4735e-10 0)
(8.71013e-13 -1.46409e-10 0)
(0 0 0)
(0 0 0)
(0 0 0)
(0 0 0)
(0 0 0)
(0 0 0)
(0 0 0)
(0 0 0)
(0 0 0)
(0 0 0)
(0 0 0)
(0 0 0)
(0 0 0)
(0 0 0)
(0 0 0)
(0 0 0)
(0 0 0)
(0 0 0)
(0 0 0)
(0 0 0)
(0 0 0)
(0 0 0)
(0 0 0)
(0 0 0)
(0 0 0)
(0 0 0)
(0 0 0)
(0 0 0)
(0 0 0)
(0 0 0)
(0 0 0)
(0 0 0)
(0 0 0)
(0 0 0)
(0 0 0)
(0 0 0)
(0 0 0)
(0 0 0)
(0 0 0)
(0 0 0)
(0 0 0)
(0 0 0)
(0 0 0)
(0 0 0)
(0 0 0)
(0 0 0)
(0 0 0)
(-3.20666e-13 -1.30173e-10 0)
(5.97e-12 -1.52451e-10 0)
(5.11401e-12 -1.36042e-10 0)
(0 0 0)
(-5.0242e-12 -1.49581e-10 0)
(-1.12841e-11 -1.59596e-10 0)
(-4.15707e-12 -1.68601e-10 0)
(6.59724e-13 -1.58102e-10 0)
(6.01067e-12 -1.55032e-10 0)
(6.4795e-12 -1.4965e-10 0)
(2.26385e-12 -1.45144e-10 0)
(4.93229e-12 -1.49477e-10 0)
(4.29462e-12 -1.47959e-10 0)
(5.55972e-13 -1.4954e-10 0)
(0 0 0)
(1.38351e-12 -1.61122e-10 0)
(3.59841e-12 -1.5949e-10 0)
(0 0 0)
(-2.37841e-12 -1.63513e-10 0)
(0 0 0)
(0 0 0)
(-4.19762e-12 -1.70666e-10 0)
(-1.48089e-12 -1.6479e-10 0)
(0 0 0)
(-1.89347e-12 -3.34913e-10 0)
(-2.96048e-12 -1.60952e-10 0)
(-5.5797e-12 -3.46146e-10 0)
(0 0 0)
(2.36191e-12 -3.21196e-10 0)
(-2.45844e-12 -1.32253e-10 0)
(0 0 0)
(0 0 0)
(0 0 0)
(0 0 0)
(0 0 0)
(0 0 0)
(0 0 0)
(0 0 0)
(0 0 0)
(0 0 0)
(0 0 0)
(0 0 0)
(0 0 0)
(0 0 0)
(0 0 0)
(0 0 0)
(0 0 0)
(0 0 0)
(0 0 0)
(0 0 0)
(0 0 0)
(0 0 0)
(0 0 0)
(0 0 0)
(0 0 0)
(0 0 0)
(0 0 0)
(0 0 0)
(0 0 0)
(0 0 0)
(0 0 0)
(0 0 0)
(0 0 0)
(0 0 0)
(0 0 0)
(0 0 0)
(0 0 0)
(0 0 0)
(0 0 0)
(0 0 0)
(0 0 0)
(0 0 0)
(0 0 0)
(0 0 0)
(0 0 0)
(-1.46372e-12 -1.21362e-10 0)
(0 0 0)
(8.60716e-12 -1.48805e-10 0)
(0 0 0)
(-4.05875e-13 -1.53007e-10 0)
(0 0 0)
(-8.28541e-12 -3.48578e-10 0)
(-3.86274e-13 -1.3046e-10 0)
(2.64204e-12 -1.48231e-10 0)
(5.09524e-12 -1.61054e-10 0)
(7.25155e-12 -3.25682e-10 0)
(8.40233e-12 -1.37611e-10 0)
(6.75722e-12 -1.45027e-10 0)
(0 0 0)
(1.41842e-11 -1.35327e-10 0)
(1.19051e-12 -1.50293e-10 0)
(7.88527e-12 -1.53037e-10 0)
(0 0 0)
(1.10428e-12 -1.68537e-10 0)
(0 0 0)
(-1.72578e-12 -3.85105e-10 0)
(-1.49633e-12 -1.77981e-10 0)
(0 0 0)
(0 0 0)
(-9.04581e-12 -1.67398e-10 0)
(0 0 0)
(2.39722e-12 -1.52148e-10 0)
(0 0 0)
(0 0 0)
(-1.79946e-12 -3.26508e-10 0)
(-2.76932e-12 -3.16355e-10 0)
(0 0 0)
(0 0 0)
(0 0 0)
(0 0 0)
(0 0 0)
(0 0 0)
(0 0 0)
(0 0 0)
(0 0 0)
(0 0 0)
(0 0 0)
(0 0 0)
(0 0 0)
(0 0 0)
(0 0 0)
(0 0 0)
(0 0 0)
(0 0 0)
(0 0 0)
(0 0 0)
(0 0 0)
(0 0 0)
(0 0 0)
(0 0 0)
(0 0 0)
(0 0 0)
(0 0 0)
(0 0 0)
(0 0 0)
(0 0 0)
(0 0 0)
(0 0 0)
(0 0 0)
(0 0 0)
(0 0 0)
(0 0 0)
(0 0 0)
(0 0 0)
(0 0 0)
(0 0 0)
(0 0 0)
(0 0 0)
(0 0 0)
(0 0 0)
(-1.92511e-11 -9.91846e-11 0)
(0 0 0)
(1.84432e-12 -1.3744e-10 0)
(9.16813e-12 -3.42402e-10 0)
(0 0 0)
(2.59198e-12 -1.62984e-10 0)
(0 0 0)
(1.24949e-12 -1.48706e-10 0)
(0 0 0)
(5.41936e-13 -1.57454e-10 0)
(0 0 0)
(4.04248e-12 -3.3612e-10 0)
(1.77462e-11 -3.31207e-10 0)
(1.45737e-11 -2.99705e-10 0)
(2.13111e-11 -3.39047e-10 0)
(0 0 0)
(9.86237e-12 -1.4025e-10 0)
(1.24861e-11 -1.72904e-10 0)
(3.03217e-12 -1.60835e-10 0)
(0 0 0)
(1.67451e-12 -1.65203e-10 0)
(0 0 0)
(-2.18763e-12 -1.76205e-10 0)
(0 0 0)
(-7.83402e-12 -1.63789e-10 0)
(0 0 0)
(1.31614e-12 -3.35147e-10 0)
(-6.39726e-13 -1.50034e-10 0)
(-5.82244e-12 -1.45452e-10 0)
(-3.47254e-12 -1.4589e-10 0)
(-6.4955e-12 -1.45614e-10 0)
(-5.47263e-12 -1.52731e-10 0)
(0 0 0)
(0 0 0)
(0 0 0)
(0 0 0)
(0 0 0)
(0 0 0)
(0 0 0)
(0 0 0)
(0 0 0)
(0 0 0)
(0 0 0)
(0 0 0)
(0 0 0)
(0 0 0)
(0 0 0)
(0 0 0)
(0 0 0)
(0 0 0)
(0 0 0)
(0 0 0)
(0 0 0)
(0 0 0)
(0 0 0)
(0 0 0)
(0 0 0)
(0 0 0)
(0 0 0)
(0 0 0)
(0 0 0)
(0 0 0)
(0 0 0)
(0 0 0)
(0 0 0)
(0 0 0)
(0 0 0)
(0 0 0)
(0 0 0)
(0 0 0)
(0 0 0)
(0 0 0)
(0 0 0)
(0 0 0)
(0 0 0)
(0 0 0)
(4.10785e-12 -1.14925e-10 0)
(-1.65563e-12 -1.51923e-10 0)
(9.75774e-12 -1.64739e-10 0)
(-4.19636e-13 -1.57718e-10 0)
(0 0 0)
(1.61062e-12 -1.44245e-10 0)
(7.92792e-12 -1.49187e-10 0)
(2.23192e-12 -1.62861e-10 0)
(-4.71794e-13 -1.59019e-10 0)
(3.5508e-13 -1.5459e-10 0)
(0 0 0)
(-4.90588e-12 -3.53117e-10 0)
(3.25628e-12 -1.21678e-10 0)
(1.42975e-12 -1.36895e-10 0)
(2.50104e-11 -3.3234e-10 0)
(3.2943e-12 -1.41376e-10 0)
(1.44321e-11 -1.61099e-10 0)
(9.58934e-12 -1.63134e-10 0)
(0 0 0)
(0 0 0)
(2.23046e-12 -1.71471e-10 0)
(-1.07022e-11 -1.54111e-10 0)
(-6.54236e-12 -1.53443e-10 0)
(-6.0252e-12 -1.48398e-10 0)
(0 0 0)
(0 0 0)
(-1.10741e-11 -3.29226e-10 0)
(-6.71598e-12 -1.40043e-10 0)
(0 0 0)
(-4.0513e-12 -1.57444e-10 0)
(0 0 0)
(0 0 0)
(0 0 0)
(0 0 0)
(0 0 0)
(0 0 0)
(0 0 0)
(0 0 0)
(0 0 0)
(0 0 0)
(0 0 0)
(0 0 0)
(0 0 0)
(0 0 0)
(0 0 0)
(0 0 0)
(0 0 0)
(0 0 0)
(0 0 0)
(0 0 0)
(0 0 0)
(0 0 0)
(0 0 0)
(0 0 0)
(0 0 0)
(0 0 0)
(0 0 0)
(0 0 0)
(0 0 0)
(0 0 0)
(0 0 0)
(0 0 0)
(0 0 0)
(0 0 0)
(0 0 0)
(0 0 0)
(0 0 0)
(0 0 0)
(0 0 0)
(0 0 0)
(0 0 0)
(0 0 0)
(0 0 0)
(0 0 0)
(2.70815e-11 -2.56073e-10 0)
(9.02718e-12 -2.79318e-10 0)
(0 0 0)
(-3.75443e-12 -3.60011e-10 0)
(1.50748e-12 -1.46093e-10 0)
(5.88005e-12 -3.29104e-10 0)
(5.97272e-12 -2.8952e-10 0)
(-3.42867e-12 -1.29318e-10 0)
(-1.17839e-12 -1.6079e-10 0)
(-2.11559e-12 -1.44637e-10 0)
(0 0 0)
(-1.0187e-12 -1.51259e-10 0)
(-3.25259e-12 -1.50377e-10 0)
(7.56212e-12 -1.42827e-10 0)
(-2.94823e-12 -1.52359e-10 0)
(5.53935e-12 -1.5888e-10 0)
(1.33771e-12 -1.45384e-10 0)
(2.91101e-11 -3.60343e-10 0)
(0 0 0)
(4.79144e-11 -3.85891e-10 0)
(9.55286e-12 -1.97957e-10 0)
(-8.09105e-13 -9.37122e-12 0)
(-1.52222e-11 -1.75282e-10 0)
(-7.47551e-12 -1.53921e-10 0)
(-6.41727e-12 -1.41668e-10 0)
(-2.2545e-12 -1.51273e-10 0)
(0 0 0)
(5.52339e-13 -1.45712e-10 0)
(-3.58305e-12 -1.28417e-10 0)
(-2.26132e-12 -1.31591e-10 0)
(1.09186e-13 -3.11724e-10 0)
(0 0 0)
(0 0 0)
(0 0 0)
(0 0 0)
(0 0 0)
(0 0 0)
(0 0 0)
(0 0 0)
(0 0 0)
(0 0 0)
(0 0 0)
(0 0 0)
(0 0 0)
(0 0 0)
(0 0 0)
(0 0 0)
(0 0 0)
(0 0 0)
(0 0 0)
(0 0 0)
(0 0 0)
(0 0 0)
(0 0 0)
(0 0 0)
(0 0 0)
(0 0 0)
(0 0 0)
(0 0 0)
(0 0 0)
(0 0 0)
(0 0 0)
(0 0 0)
(0 0 0)
(0 0 0)
(0 0 0)
(0 0 0)
(0 0 0)
(0 0 0)
(0 0 0)
(0 0 0)
(0 0 0)
(0 0 0)
(0 0 0)
(0 0 0)
(0 0 0)
(-3.09444e-12 -1.32384e-10 0)
(-1.09745e-11 -1.4808e-10 0)
(-2.17777e-12 -1.55411e-10 0)
(9.82091e-12 -3.32593e-10 0)
(-8.59523e-12 -3.10226e-10 0)
(8.18557e-12 -3.43957e-10 0)
(-6.9004e-12 -1.19578e-10 0)
(-3.02472e-13 -1.4248e-10 0)
(1.28803e-13 -1.40452e-10 0)
(-7.37733e-14 -1.57718e-10 0)
(0 0 0)
(-4.94124e-12 -1.50442e-10 0)
(-2.14123e-12 -1.47723e-10 0)
(-1.0333e-11 -1.53144e-10 0)
(5.69956e-12 -1.50958e-10 0)
(8.47434e-12 -1.30139e-10 0)
(1.67329e-11 -1.32093e-10 0)
(3.2187e-11 -1.56126e-10 0)
(0 0 0)
(7.74652e-11 -2.26119e-10 0)
(-2.92252e-11 -5.2826e-10 0)
(0 0 0)
(-1.49328e-11 -1.51104e-10 0)
(-1.2844e-11 -1.45846e-10 0)
(-2.86831e-12 -1.40759e-10 0)
(-9.28254e-12 -1.50874e-10 0)
(-8.18872e-12 -3.18538e-10 0)
(5.53028e-12 -1.35758e-10 0)
(2.37279e-12 -1.59257e-10 0)
(1.38117e-12 -1.28457e-10 0)
(0 0 0)
(0 0 0)
(0 0 0)
(0 0 0)
(0 0 0)
(0 0 0)
(0 0 0)
(0 0 0)
(0 0 0)
(0 0 0)
(0 0 0)
(0 0 0)
(0 0 0)
(0 0 0)
(0 0 0)
(0 0 0)
(0 0 0)
(0 0 0)
(0 0 0)
(0 0 0)
(0 0 0)
(0 0 0)
(0 0 0)
(0 0 0)
(0 0 0)
(0 0 0)
(0 0 0)
(0 0 0)
(0 0 0)
(0 0 0)
(0 0 0)
(0 0 0)
(0 0 0)
(0 0 0)
(0 0 0)
(0 0 0)
(0 0 0)
(0 0 0)
(0 0 0)
(0 0 0)
(0 0 0)
(0 0 0)
(0 0 0)
(0 0 0)
(-5.25252e-12 -3.15322e-10 0)
(-5.30571e-12 -1.21779e-10 0)
(-2.90005e-12 -1.39675e-10 0)
(-1.70773e-11 -3.32179e-10 0)
(-2.51463e-12 -1.30219e-10 0)
(-5.01864e-12 -1.54379e-10 0)
(-6.6799e-13 -1.67277e-10 0)
(3.95274e-12 -1.53142e-10 0)
(-6.14046e-12 -3.1516e-10 0)
(3.68338e-12 -3.05812e-10 0)
(2.99737e-12 -1.37075e-10 0)
(-1.45663e-12 -1.43276e-10 0)
(-3.88374e-12 -1.45215e-10 0)
(-9.63248e-13 -1.47553e-10 0)
(0 0 0)
(5.66046e-13 -1.4123e-10 0)
(7.23303e-12 -1.39496e-10 0)
(1.7523e-11 -1.33418e-10 0)
(3.12307e-11 -1.41922e-10 0)
(6.10377e-11 -1.72462e-10 0)
(1.22411e-10 -2.65022e-10 0)
(0 0 0)
(-4.31133e-11 -1.89634e-10 0)
(-1.74462e-11 -1.18718e-10 0)
(-2.57613e-11 -2.76202e-10 0)
(-6.68176e-12 -1.16997e-10 0)
(-1.62961e-11 -2.96841e-10 0)
(1.39989e-12 -1.23811e-10 0)
(0 0 0)
(0 0 0)
(0 0 0)
(0 0 0)
(0 0 0)
(0 0 0)
(0 0 0)
(0 0 0)
(0 0 0)
(0 0 0)
(0 0 0)
(0 0 0)
(0 0 0)
(0 0 0)
(0 0 0)
(0 0 0)
(0 0 0)
(0 0 0)
(0 0 0)
(0 0 0)
(0 0 0)
(0 0 0)
(0 0 0)
(0 0 0)
(0 0 0)
(0 0 0)
(0 0 0)
(0 0 0)
(0 0 0)
(0 0 0)
(0 0 0)
(0 0 0)
(0 0 0)
(0 0 0)
(0 0 0)
(0 0 0)
(0 0 0)
(0 0 0)
(0 0 0)
(0 0 0)
(0 0 0)
(0 0 0)
(0 0 0)
(0 0 0)
(0 0 0)
(0 0 0)
(0 0 0)
(4.29931e-13 -1.39645e-10 0)
(0 0 0)
(-5.07838e-12 -1.50302e-10 0)
(-7.02212e-12 -1.51946e-10 0)
(0 0 0)
(-7.26901e-12 -1.57329e-10 0)
(-6.69903e-13 -1.5638e-10 0)
(-2.97768e-12 -1.53129e-10 0)
(-2.11798e-12 -3.1884e-10 0)
(5.37423e-12 -3.15471e-10 0)
(-1.18412e-12 -3.11296e-10 0)
(-3.68976e-12 -1.37993e-10 0)
(1.37847e-13 -1.43787e-10 0)
(-9.60659e-13 -1.41243e-10 0)
(0 0 0)
(-4.7178e-12 -1.31839e-10 0)
(6.25449e-12 -1.31039e-10 0)
(0 0 0)
(2.95208e-11 -1.89548e-10 0)
(1.59528e-11 -8.3727e-11 0)
(9.54246e-11 -1.04819e-09 0)
(-7.39195e-11 -3.49904e-10 0)
(-9.82797e-11 -3.04492e-10 0)
(-5.93388e-12 -1.75658e-10 0)
(-9.2077e-12 -1.06762e-10 0)
(-9.56697e-12 -1.11758e-10 0)
(0 0 0)
(0 0 0)
(0 0 0)
(0 0 0)
(0 0 0)
(0 0 0)
(0 0 0)
(0 0 0)
(0 0 0)
(0 0 0)
(0 0 0)
(0 0 0)
(0 0 0)
(0 0 0)
(0 0 0)
(0 0 0)
(0 0 0)
(0 0 0)
(0 0 0)
(0 0 0)
(0 0 0)
(0 0 0)
(0 0 0)
(0 0 0)
(0 0 0)
(0 0 0)
(0 0 0)
(0 0 0)
(0 0 0)
(0 0 0)
(0 0 0)
(0 0 0)
(0 0 0)
(0 0 0)
(0 0 0)
(0 0 0)
(0 0 0)
(0 0 0)
(0 0 0)
(0 0 0)
(0 0 0)
(0 0 0)
(0 0 0)
(0 0 0)
(0 0 0)
(0 0 0)
(0 0 0)
(0 0 0)
(0 0 0)
(6.29968e-12 -1.48052e-10 0)
(0 0 0)
(0 0 0)
(-4.18836e-12 -1.53558e-10 0)
(-1.95805e-12 -1.57294e-10 0)
(0 0 0)
(-4.25491e-12 -1.58973e-10 0)
(-1.27306e-11 -3.45371e-10 0)
(-6.22614e-12 -1.4067e-10 0)
(-1.93812e-12 -1.43409e-10 0)
(-1.05823e-11 -3.06942e-10 0)
(-8.00267e-12 -3.24161e-10 0)
(-6.78604e-12 -1.33185e-10 0)
(-5.71901e-12 -1.46944e-10 0)
(-3.42084e-12 -3.28787e-10 0)
(-1.18896e-11 -1.14542e-10 0)
(-7.40715e-12 -1.07745e-10 0)
(-4.498e-12 -1.00901e-10 0)
(-1.52305e-11 -8.34066e-11 0)
(-5.07775e-11 -1.67427e-10 0)
(1.5135e-11 -6.74896e-10 0)
(2.53607e-11 -3.20227e-10 0)
(1.78798e-11 -1.35246e-10 0)
(2.80619e-11 -2.50188e-10 0)
(1.09052e-11 -2.08664e-10 0)
(6.01055e-12 -1.07287e-10 0)
(0 0 0)
(0 0 0)
(0 0 0)
(0 0 0)
(0 0 0)
(0 0 0)
(0 0 0)
(0 0 0)
(0 0 0)
(0 0 0)
(0 0 0)
(0 0 0)
(0 0 0)
(0 0 0)
(0 0 0)
(0 0 0)
(0 0 0)
(0 0 0)
(0 0 0)
(0 0 0)
(0 0 0)
(0 0 0)
(0 0 0)
(0 0 0)
(0 0 0)
(0 0 0)
(0 0 0)
(0 0 0)
(0 0 0)
(0 0 0)
(0 0 0)
(0 0 0)
(0 0 0)
(0 0 0)
(0 0 0)
(0 0 0)
(0 0 0)
(0 0 0)
(0 0 0)
(0 0 0)
(0 0 0)
(0 0 0)
(0 0 0)
(0 0 0)
(0 0 0)
(0 0 0)
(0 0 0)
(0 0 0)
(0 0 0)
(5.98249e-12 -1.59036e-10 0)
(9.68258e-12 -3.41967e-10 0)
(2.06086e-12 -1.50505e-10 0)
(0 0 0)
(0 0 0)
(-1.75664e-12 -1.60495e-10 0)
(-3.00774e-12 -1.55669e-10 0)
(-4.21741e-12 -1.5729e-10 0)
(0 0 0)
(-8.15267e-12 -3.17818e-10 0)
(-1.30496e-11 -1.50552e-10 0)
(0 0 0)
(-6.79268e-12 -1.5446e-10 0)
(0 0 0)
(9.74734e-12 -1.57016e-10 0)
(-1.25908e-11 -3.123e-10 0)
(-3.0458e-11 -2.41989e-10 0)
(-6.47574e-13 -2.07534e-10 0)
(0 0 0)
(-3.17179e-11 -1.1645e-10 0)
(-8.30037e-11 -2.36532e-10 0)
(1.6397e-10 -6.96903e-10 0)
(6.02147e-11 -1.67351e-10 0)
(5.67576e-11 -2.74053e-10 0)
(3.04609e-11 -2.68082e-10 0)
(4.138e-12 -1.16427e-10 0)
(3.33046e-12 -1.32038e-10 0)
(0 0 0)
(0 0 0)
(0 0 0)
(0 0 0)
(0 0 0)
(0 0 0)
(0 0 0)
(0 0 0)
(0 0 0)
(0 0 0)
(0 0 0)
(0 0 0)
(0 0 0)
(0 0 0)
(0 0 0)
(0 0 0)
(0 0 0)
(0 0 0)
(0 0 0)
(0 0 0)
(0 0 0)
(0 0 0)
(0 0 0)
(0 0 0)
(0 0 0)
(0 0 0)
(0 0 0)
(0 0 0)
(0 0 0)
(0 0 0)
(0 0 0)
(0 0 0)
(0 0 0)
(0 0 0)
(0 0 0)
(0 0 0)
(0 0 0)
(0 0 0)
(0 0 0)
(0 0 0)
(0 0 0)
(0 0 0)
(0 0 0)
(0 0 0)
(0 0 0)
(0 0 0)
(0 0 0)
(0 0 0)
(9.14997e-12 -1.39798e-10 0)
(3.39228e-12 -6.03701e-11 0)
(1.59779e-12 -2.83182e-11 0)
(0 0 0)
(-2.13972e-12 -1.55539e-10 0)
(-1.52466e-14 -1.54516e-10 0)
(-1.14772e-12 -1.56404e-10 0)
(0 0 0)
(-7.52182e-12 -1.5562e-10 0)
(-3.20075e-12 -1.4163e-10 0)
(0 0 0)
(0 0 0)
(-6.4323e-12 -1.5375e-10 0)
(0 0 0)
(-8.21963e-12 -5.6902e-10 0)
(-1.72501e-11 -3.06859e-10 0)
(-4.50158e-11 -3.78296e-10 0)
(-4.2847e-11 -2.44493e-10 0)
(-2.68662e-11 -1.14888e-10 0)
(-2.84312e-11 -1.37508e-10 0)
(-5.35642e-11 -4.84507e-10 0)
(5.88526e-11 -2.27991e-10 0)
(3.49363e-11 -1.58115e-10 0)
(1.69088e-11 -1.42976e-10 0)
(1.1398e-11 -1.43883e-10 0)
(1.59441e-12 -1.38512e-10 0)
(0 0 0)
(0 0 0)
(0 0 0)
(0 0 0)
(0 0 0)
(0 0 0)
(0 0 0)
(0 0 0)
(0 0 0)
(0 0 0)
(0 0 0)
(0 0 0)
(0 0 0)
(0 0 0)
(0 0 0)
(0 0 0)
(0 0 0)
(0 0 0)
(0 0 0)
(0 0 0)
(0 0 0)
(0 0 0)
(0 0 0)
(0 0 0)
(0 0 0)
(0 0 0)
(0 0 0)
(0 0 0)
(0 0 0)
(0 0 0)
(0 0 0)
(0 0 0)
(0 0 0)
(0 0 0)
(0 0 0)
(0 0 0)
(0 0 0)
(0 0 0)
(0 0 0)
(0 0 0)
(0 0 0)
(0 0 0)
(0 0 0)
(0 0 0)
(0 0 0)
(0 0 0)
(0 0 0)
(0 0 0)
(0 0 0)
(0 0 0)
(1.07059e-11 -1.5392e-10 0)
(1.67685e-12 -1.40461e-10 0)
(9.04382e-12 -1.54338e-10 0)
(-9.02234e-13 -1.49563e-10 0)
(0 0 0)
(-9.40403e-13 -1.58019e-10 0)
(-3.92595e-12 -1.61026e-10 0)
(-2.81322e-12 -1.5898e-10 0)
(0 0 0)
(-3.28562e-12 -1.5132e-10 0)
(0 0 0)
(-1.9157e-11 -3.40607e-10 0)
(-1.99089e-11 -3.14689e-10 0)
(-3.24878e-11 -3.06687e-10 0)
(-1.39416e-11 -3.0113e-10 0)
(0 0 0)
(-2.66922e-11 -9.57771e-11 0)
(-3.04301e-11 -2.82307e-10 0)
(0 0 0)
(-2.03289e-11 -1.49916e-10 0)
(2.32495e-12 -2.0368e-10 0)
(1.61181e-11 -1.8408e-10 0)
(1.0781e-11 -1.67033e-10 0)
(9.49794e-12 -1.56367e-10 0)
(4.79422e-12 -1.47197e-10 0)
(0 0 0)
(9.71673e-12 -1.76303e-10 0)
(1.5104e-11 -1.49704e-10 0)
(1.13192e-11 -1.51061e-10 0)
(0 0 0)
(0 0 0)
(0 0 0)
(0 0 0)
(0 0 0)
(0 0 0)
(0 0 0)
(0 0 0)
(0 0 0)
(0 0 0)
(0 0 0)
(0 0 0)
(0 0 0)
(0 0 0)
(0 0 0)
(0 0 0)
(0 0 0)
(0 0 0)
(0 0 0)
(0 0 0)
(0 0 0)
(0 0 0)
(0 0 0)
(0 0 0)
(0 0 0)
(0 0 0)
(0 0 0)
(0 0 0)
(0 0 0)
(0 0 0)
(0 0 0)
(0 0 0)
(0 0 0)
(0 0 0)
(0 0 0)
(0 0 0)
(0 0 0)
(0 0 0)
(0 0 0)
(0 0 0)
(0 0 0)
(0 0 0)
(0 0 0)
(0 0 0)
(0 0 0)
(8.41863e-12 -1.26362e-10 0)
(1.02137e-11 -1.36944e-10 0)
(1.72723e-11 -3.26412e-10 0)
(1.45804e-11 -3.38054e-10 0)
(-2.17271e-12 -1.41475e-10 0)
(-6.94885e-12 -1.38621e-10 0)
(0 0 0)
(-3.87275e-12 -1.4834e-10 0)
(0 0 0)
(-1.18535e-11 -3.26628e-10 0)
(-6.66848e-12 -1.31255e-10 0)
(-4.48506e-12 -3.32158e-10 0)
(-1.3785e-11 -3.1577e-10 0)
(-1.7448e-11 -3.4197e-10 0)
(-2.87092e-12 -1.33005e-10 0)
(-2.42976e-12 -1.32998e-10 0)
(-2.85294e-12 -1.18093e-10 0)
(0 0 0)
(-2.9963e-11 -3.05994e-10 0)
(-3.71477e-11 -3.20373e-10 0)
(-1.34545e-11 -1.47325e-10 0)
(1.37199e-12 -6.31806e-11 0)
(1.73009e-12 -7.89301e-11 0)
(-1.59273e-12 -1.63732e-10 0)
(4.91828e-13 -2.89379e-11 0)
(1.92936e-12 -1.14836e-10 0)
(0 0 0)
(8.10557e-12 -1.4965e-10 0)
(1.48444e-11 -1.51099e-10 0)
(8.75476e-12 -1.58799e-10 0)
(1.04828e-11 -3.53456e-10 0)
(0 0 0)
(0 0 0)
(0 0 0)
(0 0 0)
(0 0 0)
(0 0 0)
(0 0 0)
(0 0 0)
(0 0 0)
(0 0 0)
(0 0 0)
(0 0 0)
(0 0 0)
(0 0 0)
(0 0 0)
(0 0 0)
(0 0 0)
(0 0 0)
(0 0 0)
(0 0 0)
(0 0 0)
(0 0 0)
(0 0 0)
(0 0 0)
(0 0 0)
(0 0 0)
(0 0 0)
(0 0 0)
(0 0 0)
(0 0 0)
(0 0 0)
(0 0 0)
(0 0 0)
(0 0 0)
(0 0 0)
(0 0 0)
(0 0 0)
(0 0 0)
(0 0 0)
(0 0 0)
(0 0 0)
(0 0 0)
(0 0 0)
(0 0 0)
(1.31252e-11 -1.41168e-10 0)
(1.0221e-11 -1.41421e-10 0)
(2.68525e-11 -3.2383e-10 0)
(1.70514e-11 -3.59025e-10 0)
(1.59537e-12 -1.4863e-10 0)
(-6.52439e-12 -1.58936e-10 0)
(-1.01479e-11 -1.56881e-10 0)
(0 0 0)
(-9.42905e-12 -2.09716e-10 0)
(-1.02688e-11 -2.4999e-10 0)
(-8.95576e-12 -1.44818e-10 0)
(0 0 0)
(2.09558e-12 -1.49546e-10 0)
(-4.21029e-12 -1.49236e-10 0)
(0 0 0)
(-9.87013e-12 -1.38548e-10 0)
(2.6374e-12 -1.49779e-10 0)
(0 0 0)
(0 0 0)
(-1.15631e-11 -1.34327e-10 0)
(-7.95315e-12 -1.55443e-10 0)
(-6.11677e-13 -1.66278e-10 0)
(2.44771e-12 -1.66495e-10 0)
(0 0 0)
(3.78153e-12 -1.78961e-10 0)
(0 0 0)
(6.32429e-12 -1.55517e-10 0)
(0 0 0)
(1.10081e-11 -3.81142e-10 0)
(0 0 0)
(0 0 0)
(0 0 0)
(0 0 0)
(0 0 0)
(0 0 0)
(0 0 0)
(0 0 0)
(0 0 0)
(0 0 0)
(0 0 0)
(0 0 0)
(0 0 0)
(0 0 0)
(0 0 0)
(0 0 0)
(0 0 0)
(0 0 0)
(0 0 0)
(0 0 0)
(0 0 0)
(0 0 0)
(0 0 0)
(0 0 0)
(0 0 0)
(0 0 0)
(0 0 0)
(0 0 0)
(0 0 0)
(0 0 0)
(0 0 0)
(0 0 0)
(0 0 0)
(0 0 0)
(0 0 0)
(0 0 0)
(0 0 0)
(0 0 0)
(0 0 0)
(0 0 0)
(0 0 0)
(0 0 0)
(0 0 0)
(0 0 0)
(0 0 0)
(0 0 0)
(2.79243e-11 -2.95832e-10 0)
(2.23227e-11 -3.16419e-10 0)
(7.20707e-12 -1.36588e-10 0)
(4.73381e-12 -1.43881e-10 0)
(5.87302e-12 -1.70779e-10 0)
(-9.84508e-12 -1.72719e-10 0)
(-1.07562e-11 -1.5759e-10 0)
(0 0 0)
(0 0 0)
(-3.49805e-12 -1.4978e-10 0)
(-5.3108e-12 -1.51007e-10 0)
(0 0 0)
(0 0 0)
(1.11137e-12 -1.50666e-10 0)
(-1.33427e-12 -1.39024e-10 0)
(0 0 0)
(0 0 0)
(0 0 0)
(-2.70844e-12 -3.52267e-10 0)
(-6.51023e-12 -1.57435e-10 0)
(0 0 0)
(2.40269e-13 -1.71257e-10 0)
(1.58467e-13 -1.66834e-10 0)
(0 0 0)
(2.53532e-12 -1.69782e-10 0)
(1.25199e-11 -1.66116e-10 0)
(2.26591e-12 -1.55042e-10 0)
(5.61079e-12 -1.51565e-10 0)
(5.29891e-13 -1.62677e-10 0)
(8.3894e-12 -1.57491e-10 0)
(5.13391e-12 -1.4405e-10 0)
(6.31476e-12 -1.35976e-10 0)
(0 0 0)
(0 0 0)
(0 0 0)
(0 0 0)
(0 0 0)
(0 0 0)
(0 0 0)
(0 0 0)
(0 0 0)
(0 0 0)
(0 0 0)
(0 0 0)
(0 0 0)
(0 0 0)
(0 0 0)
(0 0 0)
(0 0 0)
(0 0 0)
(0 0 0)
(0 0 0)
(0 0 0)
(0 0 0)
(0 0 0)
(0 0 0)
(0 0 0)
(0 0 0)
(0 0 0)
(0 0 0)
(0 0 0)
(0 0 0)
(0 0 0)
(0 0 0)
(0 0 0)
(0 0 0)
(0 0 0)
(0 0 0)
(0 0 0)
(0 0 0)
(0 0 0)
(0 0 0)
(0 0 0)
(0 0 0)
(0 0 0)
(7.16799e-12 -1.28999e-10 0)
(7.40977e-12 -1.5775e-10 0)
(1.41481e-11 -1.51223e-10 0)
(0 0 0)
(0 0 0)
(-2.66246e-11 -2.02301e-10 0)
(-2.82105e-11 -1.64888e-10 0)
(0 0 0)
(-6.29534e-12 -1.33243e-10 0)
(0 0 0)
(1.34104e-12 -1.42217e-10 0)
(1.65095e-12 -1.56469e-10 0)
(0 0 0)
(1.0146e-12 -1.41308e-10 0)
(2.50082e-12 -1.22793e-10 0)
(-4.54487e-12 -1.22369e-10 0)
(-4.50507e-12 -1.55161e-10 0)
(8.09025e-13 -1.51118e-10 0)
(0 0 0)
(-3.06092e-12 -1.56402e-10 0)
(-2.69296e-12 -1.67993e-10 0)
(0 0 0)
(4.8879e-12 -1.59372e-10 0)
(7.37207e-13 -1.59246e-10 0)
(1.66018e-12 -1.60935e-10 0)
(-1.95087e-13 -1.52422e-10 0)
(5.13211e-12 -1.54812e-10 0)
(1.12418e-11 -3.43316e-10 0)
(-2.94722e-12 -1.47428e-10 0)
(-3.8954e-12 -3.39758e-10 0)
(0 0 0)
(0 0 0)
(0 0 0)
(0 0 0)
(0 0 0)
(0 0 0)
(0 0 0)
(0 0 0)
(0 0 0)
(0 0 0)
(0 0 0)
(0 0 0)
(0 0 0)
(0 0 0)
(0 0 0)
(0 0 0)
(0 0 0)
(0 0 0)
(0 0 0)
(0 0 0)
(0 0 0)
(0 0 0)
(0 0 0)
(0 0 0)
(0 0 0)
(0 0 0)
(0 0 0)
(0 0 0)
(0 0 0)
(0 0 0)
(0 0 0)
(0 0 0)
(0 0 0)
(0 0 0)
(0 0 0)
(0 0 0)
(0 0 0)
(0 0 0)
(0 0 0)
(0 0 0)
(0 0 0)
(0 0 0)
(0 0 0)
(0 0 0)
(0 0 0)
(0 0 0)
(0 0 0)
(1.07081e-11 -1.20889e-10 0)
(0 0 0)
(0 0 0)
(-8.13403e-11 -6.17919e-10 0)
(-2.5873e-11 -1.28599e-10 0)
(-1.87421e-11 -2.85187e-10 0)
(-3.3412e-12 -1.14087e-10 0)
(-6.1659e-15 -3.06526e-10 0)
(0 0 0)
(-3.41554e-12 -3.32564e-10 0)
(0 0 0)
(6.14649e-12 -1.38596e-10 0)
(-1.56401e-12 -1.53449e-10 0)
(0 0 0)
(-6.73865e-12 -1.39236e-10 0)
(-5.89382e-15 -1.44205e-10 0)
(7.09254e-12 -1.55742e-10 0)
(0 0 0)
(0 0 0)
(6.27391e-12 -1.57263e-10 0)
(9.82668e-12 -3.47154e-10 0)
(-1.35997e-12 -1.38131e-10 0)
(-3.647e-12 -1.57078e-10 0)
(-9.7469e-12 -3.49252e-10 0)
(-6.17668e-12 -1.44872e-10 0)
(-1.98723e-12 -1.52349e-10 0)
(-9.67414e-13 -1.5055e-10 0)
(0 0 0)
(0 0 0)
(0 0 0)
(0 0 0)
(0 0 0)
(0 0 0)
(0 0 0)
(0 0 0)
(0 0 0)
(0 0 0)
(0 0 0)
(0 0 0)
(0 0 0)
(0 0 0)
(0 0 0)
(0 0 0)
(0 0 0)
(0 0 0)
(0 0 0)
(0 0 0)
(0 0 0)
(0 0 0)
(0 0 0)
(0 0 0)
(0 0 0)
(0 0 0)
(0 0 0)
(0 0 0)
(0 0 0)
(0 0 0)
(0 0 0)
(0 0 0)
(0 0 0)
(0 0 0)
(0 0 0)
(0 0 0)
(0 0 0)
(0 0 0)
(0 0 0)
(0 0 0)
(0 0 0)
(0 0 0)
(0 0 0)
(0 0 0)
(0 0 0)
(0 0 0)
(0 0 0)
(3.1525e-13 -1.33794e-10 0)
(0 0 0)
(-2.20272e-11 -1.58305e-10 0)
(-1.38258e-12 -8.97216e-10 0)
(1.93622e-11 -2.59663e-10 0)
(1.31394e-11 -1.13426e-10 0)
(4.77087e-12 -1.03783e-10 0)
(3.83659e-12 -1.24635e-10 0)
(2.24765e-12 -1.34662e-10 0)
(0 0 0)
(-2.55394e-12 -1.52681e-10 0)
(0 0 0)
(7.29823e-12 -1.48483e-10 0)
(0 0 0)
(0 0 0)
(4.53136e-12 -3.30388e-10 0)
(4.85731e-12 -1.39254e-10 0)
(1.52849e-11 -3.18834e-10 0)
(2.86411e-12 -1.33626e-10 0)
(8.24061e-12 -3.27813e-10 0)
(2.45211e-12 -1.46418e-10 0)
(8.1563e-12 -3.28334e-10 0)
(-4.23832e-12 -1.50226e-10 0)
(-2.74182e-12 -1.52854e-10 0)
(2.4045e-12 -1.59206e-10 0)
(0 0 0)
(1.54482e-12 -1.56518e-10 0)
(0 0 0)
(0 0 0)
(0 0 0)
(0 0 0)
(0 0 0)
(0 0 0)
(0 0 0)
(0 0 0)
(0 0 0)
(0 0 0)
(0 0 0)
(0 0 0)
(0 0 0)
(0 0 0)
(0 0 0)
(0 0 0)
(0 0 0)
(0 0 0)
(0 0 0)
(0 0 0)
(0 0 0)
(0 0 0)
(0 0 0)
(0 0 0)
(0 0 0)
(0 0 0)
(0 0 0)
(0 0 0)
(0 0 0)
(0 0 0)
(0 0 0)
(0 0 0)
(0 0 0)
(0 0 0)
(0 0 0)
(0 0 0)
(0 0 0)
(0 0 0)
(0 0 0)
(0 0 0)
(0 0 0)
(0 0 0)
(0 0 0)
(0 0 0)
(0 0 0)
(0 0 0)
(0 0 0)
(-7.9595e-12 -1.50529e-10 0)
(-2.50032e-11 -3.07033e-10 0)
(-1.44712e-11 -2.61834e-10 0)
(-5.75425e-11 -2.75964e-10 0)
(0 0 0)
(0 0 0)
(3.2655e-11 -1.53715e-10 0)
(1.68211e-11 -1.42009e-10 0)
(0 0 0)
(6.25358e-12 -1.39752e-10 0)
(0 0 0)
(1.62673e-13 -2.9697e-10 0)
(8.75457e-12 -1.50823e-10 0)
(2.92534e-14 -1.3646e-10 0)