/*--------------------------------*- C++ -*----------------------------------*\
  =========                 |
  \\      /  F ield         | OpenFOAM: The Open Source CFD Toolbox
   \\    /   O peration     | Website:  https://openfoam.org
    \\  /    A nd           | Version:  12
     \\/     M anipulation  |
\*---------------------------------------------------------------------------*/
FoamFile
{
    format      ascii;
    class       volScalarField::Internal;
    location    "1";
    object      cloud:UCoeff;
}
// * * * * * * * * * * * * * * * * * * * * * * * * * * * * * * * * * * * * * //

dimensions      [1 0 0 0 0 0 0];

value           nonuniform List<scalar> 
3750
(
4.10431e-09
4.04613e-09
1.63122e-08
3.89428e-09
4.02483e-09
4.34944e-09
4.4882e-09
4.57456e-09
4.46444e-09
4.24842e-09
4.15463e-09
4.04136e-09
9.4808e-09
9.37007e-09
3.87421e-09
0
9.44196e-09
0
0
4.44352e-09
4.56476e-09
4.56502e-09
1.00183e-08
3.82018e-09
9.42963e-09
4.14816e-09
4.21323e-09
4.12924e-09
4.19297e-09
4.1041e-09
4.29603e-09
3.96153e-09
4.19693e-09
9.77921e-09
9.69036e-09
4.02107e-09
4.1163e-09
4.12092e-09
4.15879e-09
0
0
0
0
0
0
0
0
0
0
0
0
0
0
0
0
0
0
0
0
0
0
0
0
0
0
0
0
0
0
0
0
0
0
0
0
4.17892e-09
4.10022e-09
3.87701e-09
3.86992e-09
9.48389e-09
1.04576e-08
1.10369e-08
1.13476e-08
0
0
4.03492e-09
3.76116e-09
4.09422e-09
3.98744e-09
3.97677e-09
1.63912e-08
3.92376e-09
4.17832e-09
0
4.4021e-09
4.65767e-09
0
4.45257e-09
1.71576e-08
9.52117e-09
0
0
4.16133e-09
4.21869e-09
4.17611e-09
4.19066e-09
1.01063e-08
0
0
9.64456e-09
0
0
4.2851e-09
0
0
0
0
0
0
0
0
0
0
0
0
0
0
0
0
0
0
0
0
0
0
0
0
0
0
0
0
0
0
0
0
0
0
0
0
0
0
0
3.82773e-09
9.63496e-09
0
3.71708e-09
0
5.31716e-09
1.77278e-08
3.77812e-09
9.27913e-09
9.48304e-09
9.51221e-09
9.29471e-09
3.75539e-09
4.06767e-09
4.05271e-09
0
3.99279e-09
4.55536e-09
1.24694e-08
1.16361e-08
0
0
3.93924e-09
9.77444e-09
4.022e-09
9.91225e-09
3.87152e-09
9.77536e-09
9.74017e-09
3.99027e-09
9.57048e-09
0
0
0
0
0
0
0
0
0
0
0
0
0
0
0
0
0
0
0
0
0
0
0
0
0
0
0
0
0
0
0
0
0
0
0
0
0
0
0
0
0
0
4.1384e-09
4.18807e-09
9.68194e-09
3.60187e-09
3.37916e-09
3.4957e-09
1.41882e-08
5.58925e-09
9.70502e-09
1.55869e-08
3.63091e-09
3.91395e-09
4.21668e-09
4.13446e-09
4.00209e-09
4.01373e-09
0
3.88143e-09
3.79816e-09
3.62893e-09
1.33458e-08
5.0268e-09
3.44725e-09
3.94035e-09
0
4.16932e-09
4.16702e-09
9.55598e-09
3.90392e-09
0
0
0
0
0
0
0
0
0
0
0
0
0
0
0
0
0
0
0
0
0
0
0
0
0
0
0
0
0
0
0
0
0
0
0
0
0
0
0
0
0
0
0
0
0
0
4.18736e-09
4.0274e-09
3.89786e-09
9.41467e-09
9.50644e-09
4.02148e-09
4.96958e-09
1.1993e-08
0
4.13019e-09
4.04624e-09
4.0576e-09
1.71159e-09
1.15442e-09
1.01231e-08
0
9.60756e-09
4.11451e-09
9.62979e-09
4.41815e-09
4.90453e-09
4.95162e-09
4.22156e-09
0
0
0
4.21304e-09
4.17493e-09
9.813e-09
3.98907e-09
0
0
0
0
0
0
0
0
0
0
0
0
0
0
0
0
0
0
0
0
0
0
0
0
0
0
0
0
0
0
0
0
0
0
0
0
0
0
0
0
0
0
0
0
0
4.19925e-09
4.08651e-09
4.09164e-09
0
0
4.3688e-09
1.1109e-08
4.77376e-09
4.49765e-09
4.26172e-09
4.16054e-09
4.14676e-09
4.24813e-09
4.20573e-09
4.22664e-09
4.06176e-09
4.09345e-09
4.15531e-09
4.16917e-09
4.35345e-09
4.57021e-09
1.09369e-08
0
4.11654e-09
0
4.1708e-09
4.19964e-09
0
0
4.1316e-09
0
0
0
0
0
0
0
0
0
0
0
0
0
0
0
0
0
0
0
0
0
0
0
0
0
0
0
0
0
0
0
0
0
0
0
0
0
0
0
0
0
0
0
0
0
4.022e-09
1.01447e-08
4.20495e-09
4.06524e-09
4.13408e-09
4.48273e-09
0
4.53194e-09
4.35041e-09
0
1.00933e-08
4.08384e-09
4.13035e-09
4.15263e-09
4.3135e-09
0
4.20637e-09
4.28318e-09
4.25361e-09
4.46168e-09
4.459e-09
1.04209e-08
4.14767e-09
9.92657e-09
4.00962e-09
9.83896e-09
0
4.19481e-09
0
0
0
0
0
0
0
0
0
0
0
0
0
0
0
0
0
0
0
0
0
0
0
0
0
0
0
0
0
0
0
0
0
0
0
0
0
0
0
0
0
0
0
0
0
0
0
9.31576e-09
9.88858e-09
0
9.39551e-09
0
4.25538e-09
4.44626e-09
4.4074e-09
4.21196e-09
4.08659e-09
4.18787e-09
4.17648e-09
4.14746e-09
0
4.21603e-09
4.26294e-09
4.21051e-09
0
4.29811e-09
4.39829e-09
4.42903e-09
4.46041e-09
4.33452e-09
4.211e-09
4.24721e-09
4.10644e-09
4.14688e-09
4.136e-09
0
0
0
0
0
0
0
0
0
0
0
0
0
0
0
0
0
0
0
0
0
0
0
0
0
0
0
0
0
0
0
0
0
0
0
0
0
0
0
0
0
0
0
0
0
0
0
3.95624e-09
4.20166e-09
4.02343e-09
0
4.17086e-09
4.27924e-09
4.36755e-09
4.25965e-09
4.22882e-09
4.17219e-09
4.1225e-09
4.16972e-09
4.15329e-09
4.16953e-09
0
4.29093e-09
4.27444e-09
0
4.31557e-09
0
0
4.38831e-09
4.3285e-09
0
9.98317e-09
4.2894e-09
1.00961e-08
0
9.84128e-09
3.98008e-09
0
0
0
0
0
0
0
0
0
0
0
0
0
0
0
0
0
0
0
0
0
0
0
0
0
0
0
0
0
0
0
0
0
0
0
0
0
0
0
0
0
0
0
0
0
3.85438e-09
0
4.16434e-09
0
4.20631e-09
0
1.01202e-08
3.9595e-09
4.15578e-09
4.291e-09
9.88554e-09
4.04265e-09
4.12274e-09
0
4.02265e-09
4.17759e-09
4.20876e-09
0
4.36643e-09
0
1.04794e-08
4.4604e-09
0
0
4.35736e-09
0
4.19743e-09
0
0
9.89571e-09
9.78955e-09
0
0
0
0
0
0
0
0
0
0
0
0
0
0
0
0
0
0
0
0
0
0
0
0
0
0
0
0
0
0
0
0
0
0
0
0
0
0
0
0
0
0
0
0
3.60502e-09
0
4.03804e-09
1.0059e-08
0
4.3102e-09
0
4.16067e-09
0
4.25291e-09
0
9.99595e-09
9.94899e-09
9.61686e-09
1.00314e-08
0
4.07275e-09
4.41462e-09
4.28821e-09
0
4.33273e-09
0
4.44299e-09
0
4.32014e-09
0
9.98341e-09
4.1748e-09
4.1269e-09
4.13081e-09
4.12895e-09
4.20442e-09
0
0
0
0
0
0
0
0
0
0
0
0
0
0
0
0
0
0
0
0
0
0
0
0
0
0
0
0
0
0
0
0
0
0
0
0
0
0
0
0
0
0
0
0
3.77849e-09
4.19494e-09
4.33085e-09
4.25565e-09
0
4.11267e-09
4.16801e-09
4.30889e-09
4.26916e-09
4.22297e-09
0
1.01656e-08
3.85851e-09
4.03194e-09
9.96516e-09
4.08172e-09
4.29727e-09
4.31441e-09
0
0
4.39599e-09
4.22183e-09
4.21236e-09
4.15863e-09
0
0
9.92537e-09
4.06844e-09
0
4.25334e-09
0
0
0
0
0
0
0
0
0
0
0
0
0
0
0
0
0
0
0
0
0
0
0
0
0
0
0
0
0
0
0
0
0
0
0
0
0
0
0
0
0
0
0
0
9.1433e-09
9.39132e-09
0
1.02344e-08
4.13264e-09
9.91748e-09
9.50348e-09
3.94701e-09
4.2875e-09
4.11699e-09
0
4.18785e-09
4.17881e-09
4.09934e-09
4.19976e-09
4.26871e-09
4.12497e-09
1.02501e-08
0
1.0515e-08
4.65366e-09
2.25206e-10
4.20589e-09
4.21784e-09
4.08608e-09
4.18814e-09
0
4.12846e-09
3.93675e-09
3.97255e-09
9.74067e-09
0
0
0
0
0
0
0
0
0
0
0
0
0
0
0
0
0
0
0
0
0
0
0
0
0
0
0
0
0
0
0
0
0
0
0
0
0
0
0
0
0
0
0
0
0
3.98171e-09
4.15826e-09
4.23173e-09
9.95772e-09
9.72639e-09
1.00723e-08
3.83558e-09
4.09337e-09
4.07117e-09
4.25564e-09
0
4.17999e-09
4.15025e-09
4.21142e-09
4.18575e-09
3.95898e-09
3.98993e-09
4.2732e-09
0
5.01742e-09
1.17679e-08
0
4.19397e-09
4.13598e-09
4.07486e-09
4.18675e-09
9.813e-09
4.02044e-09
4.60754e-09
3.60892e-09
0
0
0
0
0
0
0
0
0
0
0
0
0
0
0
0
0
0
0
0
0
0
0
0
0
0
0
0
0
0
0
0
0
0
0
0
0
0
0
0
0
0
0
0
9.77806e-09
3.86054e-09
4.06295e-09
9.95763e-09
3.95704e-09
4.2216e-09
4.35369e-09
4.20826e-09
9.77784e-09
9.67784e-09
4.03422e-09
4.10213e-09
4.12364e-09
4.1483e-09
0
4.07972e-09
4.06271e-09
4.00583e-09
4.12419e-09
4.50877e-09
5.44663e-09
0
4.61886e-09
3.83813e-09
9.36973e-09
3.80477e-09
9.58695e-09
3.88305e-09
0
0
0
0
0
0
0
0
0
0
0
0
0
0
0
0
0
0
0
0
0
0
0
0
0
0
0
0
0
0
0
0
0
0
0
0
0
0
0
0
0
0
0
0
0
0
0
4.0623e-09
0
4.17856e-09
4.1968e-09
0
4.25334e-09
4.24172e-09
4.20789e-09
9.81594e-09
9.78097e-09
9.73677e-09
4.04458e-09
4.10761e-09
4.07988e-09
0
3.9761e-09
3.96777e-09
0
8.32141e-09
3.3948e-09
1.53948e-08
5.92996e-09
9.76573e-09
8.11401e-09
3.68236e-09
3.74412e-09
0
0
0
0
0
0
0
0
0
0
0
0
0
0
0
0
0
0
0
0
0
0
0
0
0
0
0
0
0
0
0
0
0
0
0
0
0
0
0
0
0
0
0
0
0
0
0
0
0
4.15505e-09
0
0
4.21271e-09
4.25137e-09
0
4.26927e-09
1.00901e-08
4.07507e-09
4.10364e-09
9.69233e-09
9.87228e-09
3.99228e-09
4.14292e-09
9.91627e-09
3.7804e-09
3.69283e-09
3.60457e-09
3.38859e-09
4.43054e-09
7.81099e-09
5.66812e-09
4.89717e-09
1.25516e-08
8.56025e-09
3.68607e-09
0
0
0
0
0
0
0
0
0
0
0
0
0
0
0
0
0
0
0
0
0
0
0
0
0
0
0
0
0
0
0
0
0
0
0
0
0
0
0
0
0
0
0
0
0
0
0
0
0
4.2705e-09
1.00548e-08
4.17996e-09
0
0
4.2845e-09
4.23458e-09
4.25178e-09
0
9.80676e-09
4.1863e-09
0
4.22317e-09
0
4.25149e-09
9.74711e-09
8.98369e-09
8.54323e-09
0
3.8464e-09
5.11561e-09
1.32096e-08
4.45911e-09
9.40072e-09
9.28518e-09
3.79655e-09
3.97786e-09
0
0
0
0
0
0
0
0
0
0
0
0
0
0
0
0
0
0
0
0
0
0
0
0
0
0
0
0
0
0
0
0
0
0
0
0
0
0
0
0
0
0
0
0
0
0
0
0
4.06727e-09
1.7448e-09
8.20572e-10
0
4.23307e-09
4.22218e-09
4.242e-09
0
4.23566e-09
4.08448e-09
0
0
4.21554e-09
0
1.75022e-08
9.69387e-09
1.5523e-08
9.03804e-09
3.81433e-09
4.07078e-09
1.14081e-08
4.98699e-09
4.29917e-09
4.10962e-09
4.11354e-09
4.04988e-09
0
0
0
0
0
0
0
0
0
0
0
0
0
0
0
0
0
0
0
0
0
0
0
0
0
0
0
0
0
0
0
0
0
0
0
0
0
0
0
0
0
0
0
0
0
0
0
0
0
0
4.21983e-09
4.07138e-09
4.2231e-09
4.1698e-09
0
4.25881e-09
4.29038e-09
4.26901e-09
0
4.18883e-09
0
1.00444e-08
9.77884e-09
9.70582e-09
9.63217e-09
0
3.58435e-09
9.44212e-09
0
4.18812e-09
4.70468e-09
4.52654e-09
4.35472e-09
4.24458e-09
4.14528e-09
0
4.44646e-09
4.17937e-09
4.1902e-09
0
0
0
0
0
0
0
0
0
0
0
0
0
0
0
0
0
0
0
0
0
0
0
0
0
0
0
0
0
0
0
0
0
0
0
0
0
0
0
0
0
0
0
0
0
3.91578e-09
4.03663e-09
9.8994e-09
1.00167e-08
4.08257e-09
4.05292e-09
0
4.15725e-09
0
9.89516e-09
3.97044e-09
9.95481e-09
9.78673e-09
1.00586e-08
3.98866e-09
3.98848e-09
3.81599e-09
0
9.69402e-09
9.85511e-09
4.1524e-09
1.52446e-09
1.90482e-09
4.31772e-09
7.54161e-10
2.99368e-09
0
4.17304e-09
4.19382e-09
4.26937e-09
1.01678e-08
0
0
0
0
0
0
0
0
0
0
0
0
0
0
0
0
0
0
0
0
0
0
0
0
0
0
0
0
0
0
0
0
0
0
0
0
0
0
0
0
0
0
0
0
4.08569e-09
4.08583e-09
9.87913e-09
1.02286e-08
4.15989e-09
4.26968e-09
4.25035e-09
0
5.87845e-09
7.75327e-09
4.12177e-09
0
4.16975e-09
4.16691e-09
0
4.05406e-09
4.17233e-09
0
0
4.00875e-09
4.23404e-09
4.34357e-09
4.34594e-09
0
4.47034e-09
0
4.23403e-09
0
1.04411e-08
0
0
0
0
0
0
0
0
0
0
0
0
0
0
0
0
0
0
0
0
0
0
0
0
0
0
0
0
0
0
0
0
0
0
0
0
0
0
0
0
0
0
0
0
0
0
9.5852e-09
9.79868e-09
4.03055e-09
4.10946e-09
4.38993e-09
4.41109e-09
4.25813e-09
0
0
4.17252e-09
4.18613e-09
0
0
4.18156e-09
4.05551e-09
0
0
0
1.01543e-08
4.2541e-09
0
4.39371e-09
4.34919e-09
0
4.37911e-09
4.34669e-09
4.22788e-09
4.19215e-09
4.30685e-09
4.25561e-09
4.11145e-09
4.02325e-09
0
0
0
0
0
0
0
0
0
0
0
0
0
0
0
0
0
0
0
0
0
0
0
0
0
0
0
0
0
0
0
0
0
0
0
0
0
0
0
0
0
0
0
3.94512e-09
4.25779e-09
4.19443e-09
0
0
4.70793e-09
4.35374e-09
0
3.99266e-09
0
4.09057e-09
4.24273e-09
0
4.08059e-09
3.87137e-09
3.86709e-09
4.22964e-09
4.18633e-09
0
4.24225e-09
4.36112e-09
0
4.27358e-09
4.27152e-09
4.28903e-09
4.20013e-09
4.22619e-09
1.00692e-08
4.14724e-09
1.00317e-08
0
0
0
0
0
0
0
0
0
0
0
0
0
0
0
0
0
0
0
0
0
0
0
0
0
0
0
0
0
0
0
0
0
0
0
0
0
0
0
0
0
0
0
0
0
0
0
3.85428e-09
0
0
1.24768e-08
3.96763e-09
9.45869e-09
3.76806e-09
9.68567e-09
0
9.95791e-09
0
4.05221e-09
4.21105e-09
0
4.05958e-09
4.11214e-09
4.23672e-09
0
0
4.25222e-09
1.01044e-08
4.04564e-09
4.24942e-09
1.01278e-08
4.12079e-09
4.19949e-09
4.18031e-09
0
0
0
0
0
0
0
0
0
0
0
0
0
0
0
0
0
0
0
0
0
0
0
0
0
0
0
0
0
0
0
0
0
0
0
0
0
0
0
0
0
0
0
0
0
0
0
3.99719e-09
0
4.27754e-09
1.44192e-08
5.19577e-09
3.76865e-09
3.64137e-09
3.89323e-09
4.00714e-09
0
4.20308e-09
0
4.16015e-09
0
0
9.93598e-09
4.05891e-09
9.81952e-09
3.99565e-09
9.91006e-09
4.13628e-09
9.91543e-09
4.17747e-09
4.20495e-09
4.27128e-09
0
4.24323e-09
0
0
0
0
0
0
0
0
0
0
0
0
0
0
0
0
0
0
0
0
0
0
0
0
0
0
0
0
0
0
0
0
0
0
0
0
0
0
0
0
0
0
0
0
0
0
0
4.18229e-09
9.70442e-09
9.19472e-09
9.40149e-09
0
0
4.24969e-09
4.09906e-09
0
4.065e-09
0
9.58433e-09
4.18588e-09
4.02702e-09
4.15602e-09
4.13541e-09
9.90122e-09
4.02064e-09
9.73505e-09
9.79125e-09
4.10828e-09
4.15273e-09
4.26312e-09
4.24556e-09
0
4.27038e-09
4.22494e-09
0
4.27027e-09
0
0
0
0
0
0
0
0
0
0
0
0
0
0
0
0
0
0
0
0
0
0
0
0
0
0
0
0
0
0
0
0
0
0
0
0
0
0
0
0
0
0
0
0
0
0
4.22923e-09
4.19312e-09
9.81855e-09
1.02502e-08
1.0833e-08
1.10653e-08
0
4.30982e-09
3.68827e-09
3.9878e-09
4.17719e-09
4.08483e-09
4.05356e-09
4.14147e-09
4.22853e-09
0
3.9563e-09
9.86343e-09
9.61975e-09
4.09058e-09
4.15511e-09
0
4.35923e-09
4.33562e-09
4.31432e-09
0
4.28104e-09
4.29573e-09
1.01561e-08
0
0
0
0
0
0
0
0
0
0
0
0
0
0
0
0
0
0
0
0
0
0
0
0
0
0
0
0
0
0
0
0
0
0
0
0
0
0
0
0
0
0
0
0
0
0
4.38777e-09
4.26063e-09
0
4.37036e-09
4.45108e-09
4.49295e-09
4.40364e-09
4.36109e-09
1.00191e-08
4.19152e-09
0
3.96763e-09
4.01084e-09
4.13209e-09
0
9.87313e-09
9.72335e-09
4.01643e-09
9.77556e-09
9.64812e-09
0
0
0
4.26398e-09
4.1005e-09
4.29352e-09
4.26228e-09
0
0
0
3.95753e-09
9.83554e-09
0
0
0
0
0
0
0
0
0
0
0
0
0
0
0
0
0
0
0
0
0
0
0
0
0
0
0
0
0
0
0
0
0
0
0
0
0
0
0
0
0
0
0
4.42443e-09
9.99092e-09
4.22699e-09
0
4.41595e-09
0
0
4.28893e-09
4.17441e-09
4.26921e-09
1.00943e-08
9.88406e-09
3.97337e-09
1.65116e-09
6.13495e-09
4.02229e-09
4.01142e-09
4.09729e-09
3.98326e-09
4.1169e-09
4.08506e-09
0
9.94896e-09
9.83693e-09
4.19181e-09
0
4.2636e-09
0
0
4.26027e-09
4.16121e-09
4.14612e-09
0
0
0
0
0
0
0
0
0
0
0
0
0
0
0
0
0
0
0
0
0
0
0
0
0
0
0
0
0
0
0
0
0
0
0
0
0
0
0
0
0
0
0
0
4.23972e-09
4.26273e-09
0
4.32604e-09
4.28849e-09
4.33171e-09
0
4.2818e-09
4.22143e-09
1.78601e-08
3.97499e-09
4.14247e-09
9.74781e-09
9.95057e-09
3.89666e-09
3.98882e-09
4.07702e-09
4.12087e-09
4.1685e-09
0
4.39333e-09
4.24205e-09
4.1054e-09
4.2377e-09
1.01184e-08
4.08103e-09
1.77114e-09
1.01605e-09
4.22586e-09
0
0
0
0
0
0
0
0
0
0
0
0
0
0
0
0
0
0
0
0
0
0
0
0
0
0
0
0
0
0
0
0
0
0
0
0
0
0
0
0
0
0
0
0
0
4.04444e-09
4.02527e-09
4.22834e-09
0
1.02157e-08
0
1.01174e-08
1.01229e-08
9.87963e-09
9.87275e-09
3.99603e-09
9.74563e-09
9.64633e-09
9.65416e-09
4.00686e-09
0
4.02457e-09
4.09984e-09
4.05313e-09
4.04325e-09
0
4.53095e-09
0
1.02766e-08
4.14517e-09
4.2194e-09
4.12966e-09
9.93809e-09
0
0
0
0
0
0
0
0
0
0
0
0
0
0
0
0
0
0
0
0
0
0
0
0
0
0
0
0
0
0
0
0
0
0
0
0
0
0
0
0
0
0
0
0
0
0
0
3.65249e-09
3.80985e-09
4.0661e-09
4.23853e-09
4.31073e-09
4.28204e-09
1.0238e-08
9.83255e-09
9.95114e-09
9.58327e-09
1.00265e-08
3.98398e-09
4.07621e-09
4.12289e-09
4.10143e-09
4.11462e-09
3.97494e-09
3.90196e-09
0
3.84489e-09
4.22201e-09
4.98718e-09
0
4.5174e-09
1.0221e-08
1.02444e-08
4.16774e-09
0
0
0
0
0
0
0
0
0
0
0
0
0
0
0
0
0
0
0
0
0
0
0
0
0
0
0
0
0
0
0
0
0
0
0
0
0
0
0
0
0
0
0
0
0
0
0
0
3.93109e-09
3.91678e-09
4.01697e-09
4.18129e-09
4.32795e-09
4.37638e-09
0
0
0
4.14835e-09
4.3331e-09
4.24076e-09
4.26996e-09
1.7064e-08
9.59134e-09
3.9707e-09
4.01984e-09
9.55547e-09
3.35132e-09
3.41992e-09
1.1055e-08
4.65415e-09
4.41624e-09
1.00747e-08
4.04702e-09
4.19981e-09
4.13003e-09
4.08864e-09
0
0
0
0
0
0
0
0
0
0
0
0
0
0
0
0
0
0
0
0
0
0
0
0
0
0
0
0
0
0
0
0
0
0
0
0
0
0
0
0
0
0
0
0
0
0
0
3.71624e-09
0
0
0
0
4.37436e-09
4.44665e-09
4.39886e-09
4.4299e-09
4.14211e-09
9.93552e-09
0
1.02955e-08
1.00287e-08
4.00104e-09
4.06135e-09
1.6901e-08
3.78799e-09
4.05306e-09
4.22078e-09
4.24765e-09
3.33489e-09
8.9128e-09
3.9554e-09
4.05894e-09
4.01271e-09
4.00447e-09
4.11669e-09
0
0
0
0
0
0
0
0
0
0
0
0
0
0
0
0
0
0
0
0
0
0
0
0
0
0
0
0
0
0
0
0
0
0
0
0
0
0
0
0
0
0
0
0
0
0
0
3.57788e-09
9.71314e-09
3.92072e-09
4.26635e-09
0
4.4341e-09
1.05223e-08
0
4.12205e-09
1.03861e-08
3.95115e-09
3.96043e-09
4.2779e-09
4.25286e-09
0
0
3.88057e-09
4.06329e-09
1.07244e-08
4.70377e-09
4.53843e-09
9.45128e-09
3.85215e-09
4.06003e-09
4.09874e-09
4.18993e-09
0
4.18265e-09
0
0
0
0
0
0
0
0
0
0
0
0
0
0
0
0
0
0
0
0
0
0
0
0
0
0
0
0
0
0
0
0
0
0
0
0
0
0
0
0
0
0
0
0
0
0
0
8.88223e-09
3.83617e-09
9.52088e-09
0
1.01952e-08
4.17942e-09
4.40178e-09
0
1.05458e-08
0
4.33177e-09
0
4.2576e-09
4.33423e-09
4.32099e-09
3.88343e-09
9.8901e-09
3.96603e-09
3.94537e-09
1.04974e-08
4.24677e-09
4.09722e-09
4.05223e-09
4.15269e-09
4.16951e-09
4.14917e-09
4.20581e-09
4.19089e-09
0
0
0
0
0
0
0
0
0
0
0
0
0
0
0
0
0
0
0
0
0
0
0
0
0
0
0
0
0
0
0
0
0
0
0
0
0
0
0
0
0
0
0
0
0
0
0
3.52278e-09
9.67225e-09
4.07451e-09
4.08227e-09
4.3223e-09
9.99594e-09
4.46274e-09
0
4.21757e-09
4.20866e-09
0
2.03388e-09
5.28138e-09
4.14895e-09
4.10668e-09
9.46657e-09
3.80711e-09
3.92897e-09
4.02046e-09
4.17209e-09
0
4.18895e-09
9.7423e-09
4.12685e-09
4.19102e-09
4.13886e-09
4.22133e-09
0
0
0
0
0
0
0
0
0
0
0
0
0
0
0
0
0
0
0
0
0
0
0
0
0
0
0
0
0
0
0
0
0
0
0
0
0
0
0
0
0
0
0
0
0
0
0
0
9.35806e-09
0
4.1562e-09
9.91658e-09
9.83462e-09
0
0
0
4.39058e-09
0
9.72595e-09
3.8551e-09
9.85768e-09
4.11814e-09
4.05973e-09
0
9.57021e-09
3.87142e-09
9.67436e-09
4.08569e-09
9.94906e-09
4.0181e-09
9.59286e-09
4.07794e-09
4.18543e-09
4.1207e-09
1.03725e-08
0
9.74858e-09
0
0
0
0
0
0
0
0
0
0
0
0
0
0
0
0
0
0
0
0
0
0
0
0
0
0
0
0
0
0
0
0
0
0
0
0
0
0
0
0
0
0
0
0
0
0
3.79756e-09
4.19188e-09
4.17191e-09
4.15406e-09
1.04938e-08
0
0
4.32327e-09
4.19559e-09
4.19184e-09
4.15839e-09
4.10746e-09
4.11306e-09
0
4.18569e-09
4.2193e-09
4.05481e-09
4.11506e-09
4.18074e-09
9.84036e-09
0
0
4.09786e-09
1.02097e-08
4.05976e-09
3.98572e-09
4.31534e-09
1.00691e-08
0
0
0
0
0
0
0
0
0
0
0
0
0
0
0
0
0
0
0
0
0
0
0
0
0
0
0
0
0
0
0
0
0
0
0
0
0
0
0
0
0
0
0
0
0
0
0
0
0
9.50029e-09
4.06554e-09
0
4.9102e-09
5.15724e-09
4.70921e-09
9.33999e-09
3.84571e-09
4.05767e-09
4.18827e-09
9.92978e-09
0
4.1463e-09
0
0
4.04928e-09
4.12883e-09
4.20165e-09
9.94714e-09
4.20187e-09
4.15639e-09
4.26079e-09
1.00146e-08
4.01101e-09
9.82351e-09
4.09133e-09
9.78193e-09
4.04333e-09
0
0
0
0
0
0
0
0
0
0
0
0
0
0
0
0
0
0
0
0
0
0
0
0
0
0
0
0
0
0
0
0
0
0
0
0
0
0
0
0
0
0
0
0
0
9.36282e-09
3.7603e-09
0
0
8.84203e-09
5.98362e-09
5.84628e-09
1.00183e-08
9.33231e-09
0
4.07469e-09
4.24881e-09
4.13535e-09
9.90494e-09
4.05231e-09
4.12485e-09
9.80533e-09
3.97908e-09
0
4.19535e-09
4.21001e-09
4.2282e-09
4.17013e-09
4.28389e-09
4.30349e-09
1.01416e-08
4.0042e-09
4.06266e-09
4.19737e-09
4.19982e-09
4.21226e-09
0
0
0
0
0
0
0
0
0
0
0
0
0
0
0
0
0
0
0
0
0
0
0
0
0
0
0
0
0
0
0
0
0
0
0
0
0
0
0
0
0
0
0
0
3.92985e-09
3.95657e-09
3.97297e-09
3.84454e-09
4.28928e-09
4.96151e-09
0
0
3.86741e-09
0
4.12584e-09
4.24777e-09
0
1.00286e-08
4.00585e-09
4.0818e-09
4.07099e-09
4.11459e-09
0
4.16069e-09
4.22668e-09
4.22456e-09
0
4.2357e-09
4.24185e-09
4.21435e-09
9.99492e-09
4.04958e-09
4.14282e-09
4.17504e-09
4.23024e-09
0
0
0
0
0
0
0
0
0
0
0
0
0
0
0
0
0
0
0
0
0
0
0
0
0
0
0
0
0
0
0
0
0
0
0
0
0
0
0
0
0
0
0
0
4.12915e-09
4.10755e-09
4.07532e-09
1.0049e-08
4.23537e-09
0
4.73454e-09
4.29956e-09
4.08064e-09
4.05779e-09
0
4.17508e-09
4.13544e-09
4.10287e-09
0
1.66385e-08
0
4.1674e-09
1.00129e-08
4.10305e-09
4.11226e-09
0
1.01524e-08
4.11855e-09
9.8881e-09
4.07006e-09
4.15633e-09
4.13012e-09
4.15253e-09
4.26481e-09
1.00573e-08
0
0
0
0
0
0
0
0
0
0
0
0
0
0
0
0
0
0
0
0
0
0
0
0
0
0
0
0
0
0
0
0
0
0
0
0
0
0
0
0
0
0
0
0
4.15093e-09
4.18093e-09
4.16615e-09
0
4.24348e-09
4.47735e-09
0
1.05654e-08
4.10609e-09
4.1696e-09
4.13636e-09
4.21037e-09
0
4.22938e-09
0
3.96314e-09
0
9.91424e-09
9.8571e-09
9.6059e-09
4.0075e-09
4.14612e-09
4.03181e-09
4.04489e-09
4.09495e-09
4.14979e-09
4.16049e-09
4.18475e-09
0
4.30483e-09
4.02341e-09
4.10263e-09
0
0
0
0
0
0
0
0
0
0
0
0
0
0
0
0
0
0
0
0
0
0
0
0
0
0
0
0
0
0
0
0
0
0
0
0
0
0
0
0
0
0
0
4.21012e-09
4.23351e-09
4.25006e-09
4.29296e-09
4.28767e-09
4.34144e-09
4.33885e-09
1.00722e-08
4.20335e-09
9.99313e-09
0
4.12184e-09
4.17619e-09
4.21406e-09
4.04448e-09
1.01273e-08
0
4.2204e-09
4.28474e-09
1.00711e-08
4.04405e-09
3.9553e-09
3.95494e-09
4.19671e-09
4.16126e-09
4.14135e-09
4.11489e-09
4.17575e-09
4.24032e-09
4.2432e-09
1.02519e-08
0
4.15491e-09
4.06528e-09
0
0
0
0
0
0
0
0
0
0
0
0
0
0
0
0
0
0
0
0
0
0
0
0
0
0
0
0
0
0
0
0
0
0
0
0
0
0
0
0
0
0
4.09264e-09
4.18806e-09
4.24088e-09
4.27228e-09
4.26918e-09
4.30246e-09
1.02462e-08
4.05364e-09
4.16812e-09
4.14598e-09
9.81158e-09
9.66496e-09
9.7467e-09
3.98995e-09
4.05526e-09
0
4.17448e-09
0
4.1896e-09
0
9.78844e-09
4.16253e-09
0
4.25962e-09
0
0
0
0
4.28355e-09
4.235e-09
4.16416e-09
4.23542e-09
9.96455e-09
3.93527e-09
4.04852e-09
4.22474e-09
4.16052e-09
0
0
0
0
0
0
0
0
0
0
0
0
0
0
0
0
0
0
0
0
0
0
0
0
0
0
0
0
0
0
0
0
0
0
0
0
0
9.77692e-09
9.52916e-09
0
4.18892e-09
4.18892e-09
4.1843e-09
4.12269e-09
4.20849e-09
4.28123e-09
4.27859e-09
0
4.25424e-09
0
4.23382e-09
4.20947e-09
0
1.0078e-08
0
9.88649e-09
4.03826e-09
4.17179e-09
4.20346e-09
4.0959e-09
9.76635e-09
4.01721e-09
4.1587e-09
4.06562e-09
0
4.22819e-09
4.18539e-09
4.1413e-09
4.13789e-09
4.19295e-09
0
9.81236e-09
3.99549e-09
1.00277e-08
4.05791e-09
0
0
0
0
0
0
0
0
0
0
0
0
0
0
0
0
0
0
0
0
0
0
0
0
0
0
0
0
0
0
0
0
0
0
0
0
0
9.77284e-09
4.11267e-09
9.87546e-09
0
1.01149e-08
9.81348e-09
4.02768e-09
0
0
0
4.31249e-09
4.36692e-09
0
4.31971e-09
4.17294e-09
4.23605e-09
9.88793e-09
0
1.0145e-08
0
0
0
4.14528e-09
3.96291e-09
9.85274e-09
1.01225e-08
0
0
4.20809e-09
4.27002e-09
9.99289e-09
4.12774e-09
1.01988e-08
4.11504e-09
0
0
4.26319e-09
4.10475e-09
4.18706e-09
9.96598e-09
0
0
0
0
0
0
0
0
0
0
0
0
0
0
0
0
0
0
0
0
0
0
0
0
0
0
0
0
0
0
0
0
0
0
0
4.12151e-09
0
0
4.12131e-09
4.27797e-09
4.20999e-09
4.24801e-09
4.26372e-09
4.26402e-09
4.27934e-09
4.28804e-09
0
9.94409e-09
9.72966e-09
0
0
3.90751e-09
4.22351e-09
4.13749e-09
4.16994e-09
4.13606e-09
3.91326e-09
9.66485e-09
3.88973e-09
0
0
4.04706e-09
9.7069e-09
4.08083e-09
4.22214e-09
9.47993e-09
4.02002e-09
0
9.75411e-09
4.07025e-09
4.13815e-09
4.2862e-09
0
1.00768e-08
4.09493e-09
0
0
0
0
0
0
0
0
0
0
0
0
0
0
0
0
0
0
0
0
0
0
0
0
0
0
0
0
0
0
0
0
0
0
0
)
;


// ************************************************************************* //
