/*--------------------------------*- C++ -*----------------------------------*\
  =========                 |
  \\      /  F ield         | OpenFOAM: The Open Source CFD Toolbox
   \\    /   O peration     | Website:  https://openfoam.org
    \\  /    A nd           | Version:  12
     \\/     M anipulation  |
\*---------------------------------------------------------------------------*/
FoamFile
{
    format      ascii;
    class       volScalarField;
    location    "1";
    object      p;
}
// * * * * * * * * * * * * * * * * * * * * * * * * * * * * * * * * * * * * * //

dimensions      [0 2 -2 0 0 0 0];

internalField   nonuniform List<scalar> 
3750
(
-0.0781953
-0.113443
-0.147812
-0.176475
-0.184033
-0.163133
-0.089919
0.00899363
0.0858771
0.116019
0.111366
0.0814918
0.0315653
-0.0316513
-0.0853228
-0.128467
-0.157598
-0.175548
-0.174683
-0.140636
-0.0565922
0.0493413
0.132793
0.167372
0.169204
0.155968
0.136743
0.11565
0.0958235
0.0770356
0.0596993
0.0441049
0.0303156
0.0179838
0.00718006
-0.00220315
-0.0102721
-0.0168524
-0.0225157
-0.027198
-0.0310556
-0.0340945
-0.0365053
-0.0383397
-0.0396752
-0.0405802
-0.0411046
-0.0413058
-0.0411993
-0.0408652
-0.0403124
-0.0395702
-0.0386625
-0.0376125
-0.036445
-0.0351614
-0.0337924
-0.0323246
-0.0307789
-0.0291667
-0.0274975
-0.0257789
-0.0240181
-0.0222205
-0.0203916
-0.0185336
-0.016647
-0.0147268
-0.0127833
-0.0108268
-0.00885854
-0.00688325
-0.00490347
-0.00292969
-0.000982684
-0.0785024
-0.114971
-0.152934
-0.190999
-0.220528
-0.21787
-0.125262
0.0392974
0.134934
0.149523
0.137462
0.0998737
0.0395092
-0.0416372
-0.102539
-0.141547
-0.16949
-0.19412
-0.207947
-0.191293
-0.0879241
0.0789619
0.182667
0.199323
0.184646
0.161635
0.138515
0.115731
0.094563
0.0745965
0.0580722
0.0428461
0.0286472
0.016453
0.00583936
-0.00361971
-0.0114844
-0.0178145
-0.0234495
-0.028069
-0.0317773
-0.0347501
-0.0370795
-0.0388433
-0.0401122
-0.0409635
-0.0414351
-0.0415893
-0.0414565
-0.0410862
-0.0405051
-0.0397374
-0.0388053
-0.0377307
-0.0365613
-0.0352486
-0.0338921
-0.0324036
-0.0308452
-0.0292237
-0.0275473
-0.0258232
-0.0240581
-0.0222572
-0.0204248
-0.018563
-0.016671
-0.0147498
-0.012802
-0.010837
-0.00886172
-0.00688358
-0.0048945
-0.00290827
-0.000995636
-0.0779429
-0.116791
-0.158192
-0.213254
-0.284966
-0.360415
-0.301961
0.197418
0.270412
0.21229
0.178935
0.139765
0.073677
-0.0707883
-0.137868
-0.165395
-0.185822
-0.220644
-0.270587
-0.328029
-0.230472
0.218275
0.319076
0.261436
0.208021
0.167408
0.139887
0.111259
0.0918644
0.0713514
0.0542642
0.0394076
0.025386
0.013475
0.00299207
-0.00628293
-0.0140529
-0.0198305
-0.0253664
-0.0297655
-0.0332498
-0.0360601
-0.0382214
-0.0398419
-0.0409765
-0.0417115
-0.0420858
-0.0421542
-0.0419519
-0.0415171
-0.0408805
-0.0400671
-0.0390995
-0.0379943
-0.0367788
-0.0354543
-0.0340479
-0.032549
-0.0309767
-0.0293415
-0.0276513
-0.025914
-0.0241372
-0.0223266
-0.0204862
-0.0186181
-0.0167232
-0.0147946
-0.0128425
-0.0108714
-0.00888881
-0.00690418
-0.00488563
-0.00283027
-0.00105967
-0.076203
-0.116017
-0.163735
-0.224018
-0.335164
-0.549571
-0.652491
0.552507
0.466711
0.243069
0.246719
0.192991
0.162128
-0.166368
-0.202808
-0.189451
-0.196149
-0.228456
-0.304922
-0.498913
-0.597317
0.586101
0.498415
0.296021
0.214773
0.166013
0.133799
0.106027
0.085608
0.0657175
0.0488928
0.0341463
0.0204576
0.00882157
-0.00147718
-0.0101831
-0.0174789
-0.0233042
-0.0282785
-0.0322903
-0.035498
-0.0380102
-0.0399181
-0.0413148
-0.0422517
-0.0428162
-0.0430456
-0.0429874
-0.0426777
-0.042151
-0.0414341
-0.0405506
-0.0395225
-0.0383675
-0.0371038
-0.0357418
-0.0342949
-0.0327675
-0.0311709
-0.0295134
-0.027804
-0.0260487
-0.0242538
-0.0224259
-0.0205686
-0.0186846
-0.0167744
-0.014838
-0.0128787
-0.0109049
-0.00891787
-0.00693158
-0.00492329
-0.00291435
-0.00101427
-0.0713261
-0.113566
-0.159731
-0.212233
-0.282599
-0.361755
-0.259849
0.165173
0.271749
0.21607
0.229298
0.273996
0.539441
-0.564268
-0.316737
-0.188562
-0.181016
-0.201962
-0.249929
-0.312993
-0.21398
0.208596
0.313315
0.243509
0.190569
0.151396
0.121689
0.0972925
0.0772917
0.0586754
0.0411805
0.0276045
0.0136819
0.00228206
-0.00739721
-0.0155644
-0.0222877
-0.0277148
-0.032145
-0.0356885
-0.0384398
-0.0405581
-0.0421254
-0.0432229
-0.0439115
-0.0442539
-0.0442943
-0.0440729
-0.0436235
-0.0429755
-0.0421536
-0.04118
-0.0400747
-0.0388531
-0.0375302
-0.0361164
-0.0346223
-0.0330565
-0.0314268
-0.0297387
-0.0280015
-0.0262209
-0.0244032
-0.0225547
-0.0206783
-0.0187776
-0.0168538
-0.0149054
-0.0129381
-0.0109569
-0.00896515
-0.00697316
-0.00496479
-0.00296267
-0.00100612
-0.0661135
-0.106113
-0.145806
-0.183537
-0.21579
-0.220135
-0.13382
0.00280228
0.105307
0.134725
0.14441
0.149603
0.118512
-0.190632
-0.209043
-0.167884
-0.162916
-0.163055
-0.175124
-0.162279
-0.0614119
0.062575
0.166204
0.166463
0.150213
0.126792
0.105859
0.0854833
0.066958
0.0494227
0.0327884
0.0184844
0.00532222
-0.00567343
-0.0148554
-0.0223317
-0.0283517
-0.0331179
-0.0368788
-0.0398018
-0.0420217
-0.0436608
-0.0448105
-0.0455441
-0.0459222
-0.0459959
-0.0458062
-0.0453872
-0.0447693
-0.0439757
-0.0430277
-0.0419455
-0.0407448
-0.0394402
-0.0380462
-0.0365701
-0.035022
-0.0334089
-0.0317376
-0.0300129
-0.0282403
-0.0264289
-0.0245848
-0.0227126
-0.0208151
-0.0188946
-0.0169523
-0.0149909
-0.0130125
-0.0110211
-0.00902073
-0.00701879
-0.00500514
-0.0029947
-0.00101036
-0.0606592
-0.101483
-0.133056
-0.163899
-0.175867
-0.162649
-0.108039
-0.0458261
0.0192219
0.0556566
0.0627611
0.0550584
0.00592041
-0.10788
-0.144644
-0.133604
-0.1288
-0.126011
-0.118094
-0.0851852
-0.0240065
0.035923
0.0946183
0.111988
0.112293
0.100712
0.0867902
0.0723418
0.0558067
0.0387894
0.0228127
0.00787596
-0.0050765
-0.015537
-0.024024
-0.030601
-0.0356555
-0.0395345
-0.0424507
-0.0446187
-0.0461787
-0.0472451
-0.0479029
-0.0482157
-0.048234
-0.048
-0.0475469
-0.0469009
-0.0460906
-0.0451296
-0.0440349
-0.0428279
-0.0415182
-0.0401199
-0.038643
-0.0370949
-0.0354839
-0.0338149
-0.0320947
-0.0303281
-0.0285172
-0.0266709
-0.0247965
-0.0228976
-0.0209759
-0.0190339
-0.0170729
-0.0150939
-0.0131007
-0.0110961
-0.0090827
-0.00706935
-0.00504417
-0.00302036
-0.00101842
-0.0605863
-0.104531
-0.132274
-0.15752
-0.15823
-0.144037
-0.109004
-0.0656036
-0.0289055
0.00237979
0.000279289
-0.00524794
-0.0368049
-0.0899877
-0.109933
-0.106982
-0.102106
-0.0923083
-0.0773011
-0.0468859
-0.00927724
0.0280804
0.0610476
0.0771944
0.0809138
0.0783178
0.0692412
0.0601216
0.0440609
0.0278161
0.0108633
-0.00446135
-0.0177686
-0.0276032
-0.0349615
-0.0403672
-0.0441368
-0.0468986
-0.0487809
-0.0500501
-0.0508391
-0.0512491
-0.0513465
-0.0511851
-0.0508009
-0.0502237
-0.0494777
-0.0485825
-0.047556
-0.0464107
-0.0451594
-0.0438132
-0.0423818
-0.0408787
-0.0393097
-0.0376816
-0.0360002
-0.0342697
-0.0324954
-0.030682
-0.0288297
-0.0269419
-0.0250347
-0.0231067
-0.0211588
-0.0191924
-0.0172095
-0.0152115
-0.013201
-0.0111805
-0.00915197
-0.0071231
-0.00508305
-0.00304264
-0.0010288
-0.0702769
-0.118852
-0.149161
-0.162959
-0.156359
-0.138735
-0.112456
-0.0827752
-0.0580283
-0.0382965
-0.0380672
-0.0458519
-0.063841
-0.0865837
-0.0951483
-0.0864653
-0.0766783
-0.0654753
-0.0467433
-0.0215234
0.00646978
0.0296737
0.0415352
0.0526671
0.0565082
0.0606028
0.0565771
0.0501263
0.0350806
0.0193729
-0.00146128
-0.019814
-0.0333777
-0.0421507
-0.0481649
-0.0516215
-0.0537843
-0.0551052
-0.0557252
-0.0559531
-0.0558727
-0.0555556
-0.0550455
-0.0543735
-0.0535587
-0.0526162
-0.0515584
-0.050396
-0.049139
-0.047795
-0.046372
-0.0448776
-0.043319
-0.0417033
-0.0400361
-0.0383221
-0.036565
-0.034768
-0.0329348
-0.0310703
-0.0291817
-0.0272331
-0.0252959
-0.0233371
-0.0213603
-0.0193677
-0.0173607
-0.0153412
-0.0133112
-0.0112728
-0.0092275
-0.00718061
-0.00512391
-0.00306703
-0.00103783
-0.100918
-0.161453
-0.185396
-0.179692
-0.167886
-0.143085
-0.117641
-0.0953209
-0.0802252
-0.065893
-0.0665076
-0.0760975
-0.0876634
-0.091006
-0.0967436
-0.0701734
-0.0715097
-0.048966
-0.0239764
0.000780754
0.0273356
0.0408986
0.0324166
0.0314535
0.0380177
0.0467894
0.0482705
0.0435459
0.0314635
0.0115309
-0.0172507
-0.0394669
-0.0533399
-0.0600414
-0.0636541
-0.0641661
-0.0642974
-0.0639175
-0.0630917
-0.062169
-0.0611487
-0.0600594
-0.0589115
-0.0577085
-0.0564465
-0.0551248
-0.0537439
-0.052305
-0.0508097
-0.0492605
-0.0476598
-0.0460102
-0.0443156
-0.0425815
-0.0408109
-0.039006
-0.037169
-0.0353011
-0.0334039
-0.0314818
-0.0295364
-0.0275635
-0.025581
-0.0235868
-0.0215783
-0.0195569
-0.0175239
-0.0154811
-0.0134298
-0.0113718
-0.00930828
-0.00724155
-0.00516722
-0.00309335
-0.00104634
-0.163589
-0.226389
-0.240674
-0.208179
-0.181671
-0.151429
-0.120324
-0.100286
-0.0906952
-0.085338
-0.0871312
-0.0973216
-0.104431
-0.105236
-0.137244
-0.0583656
-0.0734689
-0.0496301
-0.0139902
0.019999
0.0621036
0.0739909
0.0114425
0.00719261
0.0225437
0.0375001
0.0461347
0.0473369
0.0370456
0.0091153
-0.0383404
-0.0674094
-0.0793416
-0.0818108
-0.0810318
-0.0782801
-0.0755341
-0.0729998
-0.0706219
-0.0684699
-0.0664808
-0.064617
-0.0628298
-0.0610984
-0.0593913
-0.0576914
-0.0559868
-0.0542699
-0.0525344
-0.0507766
-0.0489943
-0.0471866
-0.0453535
-0.0434991
-0.0416223
-0.0397236
-0.0378035
-0.0358615
-0.0338976
-0.0319149
-0.0299171
-0.0279049
-0.0258816
-0.0238507
-0.02181
-0.0197577
-0.0176971
-0.0156293
-0.0135554
-0.0114761
-0.00939216
-0.00730657
-0.00521333
-0.003121
-0.00105492
-0.18213
-0.296931
-0.283666
-0.233353
-0.187784
-0.159361
-0.128036
-0.10879
-0.0969449
-0.0967919
-0.103087
-0.10667
-0.114013
-0.101558
-0.115547
-0.0943537
-0.0860504
-0.0719989
-0.0242907
0.0336603
0.124187
0.182931
-0.0672756
-0.0379246
0.00482167
0.0333029
0.0513305
0.0621649
0.0610236
0.0266208
-0.0780502
-0.112263
-0.114912
-0.107693
-0.0995372
-0.0924663
-0.0865804
-0.0818674
-0.0779427
-0.0746143
-0.071708
-0.0691048
-0.066715
-0.0644679
-0.0623292
-0.0602626
-0.058243
-0.0562538
-0.0542818
-0.0523182
-0.0503564
-0.0483924
-0.0464163
-0.0444416
-0.0424577
-0.0404641
-0.038459
-0.0364414
-0.0344109
-0.0323688
-0.0303182
-0.0282593
-0.026194
-0.0241262
-0.0220497
-0.0199665
-0.0178775
-0.0157838
-0.013686
-0.0115844
-0.00947931
-0.00737412
-0.00526089
-0.00314955
-0.00106391
-0.16118
-0.257058
-0.254996
-0.233184
-0.185223
-0.1754
-0.105328
-0.109781
-0.10737
-0.103937
-0.110598
-0.11454
-0.116636
-0.126214
-0.126291
-0.11532
-0.106357
-0.111107
-0.0686579
0.0226853
0.215484
0.607593
-0.42013
-0.0942485
0.000948266
0.0433652
0.0628815
0.0883293
0.117845
0.114955
-0.188369
-0.18929
-0.159388
-0.13466
-0.117255
-0.105318
-0.0965712
-0.0899387
-0.0846638
-0.0803252
-0.0766185
-0.0733671
-0.0704307
-0.0677282
-0.065194
-0.0627857
-0.0604694
-0.0582204
-0.0560223
-0.0538584
-0.05172
-0.0496007
-0.0474915
-0.0453956
-0.043305
-0.0412168
-0.0391275
-0.0370343
-0.0349354
-0.0328323
-0.0307283
-0.0286226
-0.0265157
-0.0244074
-0.0222962
-0.0201809
-0.0180628
-0.0159424
-0.01382
-0.0116955
-0.00956863
-0.00744345
-0.00530959
-0.00317876
-0.0010732
-0.143974
-0.189416
-0.211858
-0.207062
-0.186518
-0.170972
-0.135495
-0.121577
-0.114162
-0.112675
-0.116525
-0.120706
-0.121716
-0.128337
-0.131701
-0.133993
-0.13971
-0.159084
-0.160269
-0.0949313
0.0779968
0.263015
0.0752016
0.0670488
0.0593237
0.060705
0.0728595
0.108905
0.206886
0.507792
-0.595221
-0.299179
-0.197787
-0.153739
-0.129827
-0.114885
-0.104449
-0.0966434
-0.0904795
-0.0854124
-0.0810835
-0.0773275
-0.0739276
-0.0708205
-0.0679353
-0.0652174
-0.0626289
-0.0601348
-0.0577243
-0.0553704
-0.0530645
-0.0507954
-0.0485564
-0.0463421
-0.0441468
-0.0419659
-0.039794
-0.037627
-0.035462
-0.0333001
-0.0311431
-0.0289896
-0.0268395
-0.0246917
-0.0225448
-0.0203977
-0.0182506
-0.0161032
-0.0139559
-0.0118079
-0.009659
-0.00751366
-0.00535895
-0.00320832
-0.00108268
-0.112297
-0.146632
-0.178474
-0.18923
-0.183773
-0.171911
-0.139124
-0.126138
-0.12127
-0.119383
-0.120464
-0.120477
-0.120464
-0.12695
-0.128865
-0.145754
-0.174764
-0.227462
-0.291497
-0.337748
-0.144857
0.353542
0.406096
0.210115
0.108856
0.0687598
0.059169
0.0698837
0.094748
0.0910493
-0.21103
-0.211485
-0.179007
-0.152542
-0.133574
-0.119944
-0.109712
-0.101703
-0.0951801
-0.0897326
-0.0850161
-0.0808576
-0.0771148
-0.0736879
-0.070506
-0.0675172
-0.064685
-0.0619751
-0.0593662
-0.0568338
-0.0543711
-0.0519618
-0.0495972
-0.0472695
-0.0449724
-0.0427
-0.0404473
-0.038208
-0.0359791
-0.0337607
-0.0315528
-0.0293534
-0.0271614
-0.0249752
-0.0227933
-0.0206145
-0.0184383
-0.016264
-0.0140917
-0.0119205
-0.00974962
-0.00758381
-0.00540841
-0.00323794
-0.00109224
-0.0761446
-0.117293
-0.166691
-0.187444
-0.184736
-0.16964
-0.147251
-0.133271
-0.125133
-0.123685
-0.121878
-0.120616
-0.118214
-0.119938
-0.122693
-0.143656
-0.188945
-0.277481
-0.426468
-0.707858
-0.726313
0.911087
0.854827
0.245855
0.0954535
0.0440781
0.0246942
0.0180983
0.0113121
-0.023146
-0.125423
-0.15622
-0.15449
-0.14373
-0.131997
-0.121589
-0.112747
-0.105267
-0.0988625
-0.093307
-0.0883963
-0.0839949
-0.0799935
-0.0763109
-0.0728857
-0.0696687
-0.0666208
-0.0637151
-0.0609266
-0.0582344
-0.0556254
-0.0530845
-0.0506015
-0.0481675
-0.0457748
-0.0434155
-0.0410844
-0.0387755
-0.0364855
-0.0342123
-0.0319544
-0.0297104
-0.0274778
-0.0252544
-0.0230384
-0.0208285
-0.0186235
-0.0164229
-0.014226
-0.0120318
-0.00983933
-0.00765314
-0.00545729
-0.00326719
-0.00110174
-0.0350031
-0.0768948
-0.182648
-0.209108
-0.196753
-0.173965
-0.151883
-0.134351
-0.126228
-0.124595
-0.123188
-0.119912
-0.115143
-0.108951
-0.103039
-0.11032
-0.157668
-0.262171
-0.460952
-0.744511
-0.749239
0.985777
1.25387
-0.154243
-0.0153912
-0.0108637
-0.0224086
-0.0325725
-0.044766
-0.0695047
-0.111048
-0.133652
-0.139056
-0.135811
-0.129125
-0.121666
-0.114424
-0.10775
-0.101696
-0.0962266
-0.0912638
-0.0867269
-0.0825495
-0.0786745
-0.0750521
-0.0716436
-0.0684143
-0.0653383
-0.0623913
-0.0595544
-0.0568121
-0.0541505
-0.051558
-0.0490252
-0.0465423
-0.0441013
-0.0416972
-0.0393229
-0.0369742
-0.0346491
-0.0323444
-0.0300575
-0.0277854
-0.0255261
-0.0232773
-0.0210372
-0.0188046
-0.0165783
-0.0143575
-0.0121409
-0.00992721
-0.0077209
-0.00550514
-0.00329583
-0.00111108
0.0297768
0.0234877
-0.282552
-0.268772
-0.22258
-0.178514
-0.145948
-0.125948
-0.120076
-0.124807
-0.12691
-0.122528
-0.112466
-0.0973407
-0.0751302
-0.0482441
-0.0649438
-0.169316
-0.386678
-0.479445
-0.266228
0.323974
0.489752
0.104762
0.010188
-0.0470145
-0.0726031
-0.081044
-0.0870939
-0.098813
-0.116016
-0.128009
-0.132392
-0.131256
-0.127067
-0.121508
-0.115534
-0.109613
-0.10395
-0.0986455
-0.0937042
-0.0891009
-0.0848063
-0.0807879
-0.0770102
-0.0734415
-0.0700553
-0.0668315
-0.0637453
-0.0607795
-0.0579181
-0.0551472
-0.052455
-0.0498337
-0.0472713
-0.0447539
-0.04228
-0.0398446
-0.0374413
-0.0350666
-0.0327176
-0.0303899
-0.0280807
-0.0257873
-0.0235073
-0.0212384
-0.0189793
-0.0167284
-0.0144844
-0.0122463
-0.0100122
-0.00778621
-0.00555136
-0.00332346
-0.00112014
0.108495
0.413412
-0.679193
-0.364576
-0.240048
-0.171728
-0.128016
-0.103082
-0.103191
-0.127534
-0.136803
-0.130763
-0.115363
-0.0918681
-0.0564658
0.00559753
0.0271212
-0.0922276
-0.266535
-0.309072
-0.118664
0.111538
0.156088
0.0650198
-0.00329727
-0.110934
-0.139564
-0.132116
-0.12446
-0.122937
-0.126167
-0.129897
-0.13128
-0.129738
-0.126417
-0.121862
-0.116595
-0.111209
-0.105856
-0.100707
-0.0958069
-0.091166
-0.0867873
-0.0826565
-0.0787536
-0.0750541
-0.0715372
-0.0681871
-0.0649802
-0.061901
-0.0589346
-0.0560669
-0.0532868
-0.0505836
-0.0479468
-0.0453618
-0.0428261
-0.040333
-0.0378788
-0.0354597
-0.0330702
-0.0307049
-0.0283608
-0.0260352
-0.0237257
-0.0214298
-0.0191457
-0.0168716
-0.0146058
-0.012347
-0.0100935
-0.00784873
-0.00559562
-0.00334998
-0.00112879
-0.0312114
-0.0145993
-0.296025
-0.26807
-0.202168
-0.141704
-0.090138
-0.0557059
-0.0623324
-0.145142
-0.162206
-0.149022
-0.124993
-0.0996835
-0.0568283
-0.00485229
0.025417
-0.0254522
-0.147412
-0.122077
0.000468278
0.148182
-0.045047
-0.00357775
0.022384
-0.258022
-0.242011
-0.184137
-0.157664
-0.14162
-0.135804
-0.134028
-0.13276
-0.130395
-0.127059
-0.122755
-0.117826
-0.112721
-0.10756
-0.102509
-0.0976324
-0.0929618
-0.088519
-0.0843015
-0.080294
-0.076485
-0.0728578
-0.0693987
-0.0660884
-0.062911
-0.0598535
-0.0569008
-0.0540437
-0.0512708
-0.0485694
-0.0459262
-0.0433343
-0.0407881
-0.0382866
-0.0358247
-0.0333989
-0.0309984
-0.0286219
-0.026267
-0.0239307
-0.0216097
-0.0193022
-0.0170064
-0.0147202
-0.012442
-0.0101701
-0.00790737
-0.00563734
-0.00337494
-0.001137
-0.145647
-0.142004
-0.212044
-0.21049
-0.161633
-0.102818
-0.0342264
0.0319745
0.0556905
-0.228595
-0.217781
-0.175286
-0.137578
-0.109833
-0.071817
-0.0319495
-0.0106023
-0.029226
-0.0579432
-0.00529431
0.147014
0.534354
-0.472774
-0.0571177
0.356695
-0.691357
-0.374979
-0.236625
-0.18579
-0.150411
-0.141529
-0.137616
-0.135204
-0.132151
-0.128595
-0.124256
-0.119274
-0.114294
-0.109209
-0.104174
-0.0992721
-0.0945493
-0.0900263
-0.0857407
-0.0816362
-0.0777311
-0.0740105
-0.0704595
-0.067062
-0.0638028
-0.0606681
-0.0576439
-0.0547202
-0.0518858
-0.0491262
-0.0464281
-0.0437863
-0.0411975
-0.0386551
-0.0361555
-0.0337043
-0.0312696
-0.0288631
-0.0264811
-0.02412
-0.0217762
-0.0194474
-0.0171316
-0.0148266
-0.0125306
-0.0102413
-0.007962
-0.00567627
-0.00339823
-0.00114467
-0.186046
-0.193027
-0.207004
-0.19163
-0.135336
-0.0652226
0.0245174
0.161454
0.485554
-0.603866
-0.302241
-0.196302
-0.147026
-0.115492
-0.0881554
-0.0476894
-0.0379051
-0.029168
-0.0229227
0.00659104
0.0644934
0.111094
-0.13703
-0.0934563
-0.0524973
-0.29962
-0.301491
-0.18302
-0.184666
-0.149044
-0.141904
-0.140692
-0.138096
-0.134757
-0.130688
-0.12605
-0.12104
-0.115905
-0.110747
-0.105659
-0.100702
-0.0959184
-0.0913294
-0.086954
-0.0827761
-0.0787933
-0.0749948
-0.0713682
-0.0678983
-0.0645702
-0.0613696
-0.0582838
-0.055302
-0.0524184
-0.0496076
-0.0468672
-0.0441856
-0.0415628
-0.0389891
-0.0364585
-0.0339686
-0.0315093
-0.0290792
-0.0266743
-0.0242914
-0.0219275
-0.0195797
-0.0172459
-0.0149238
-0.0126117
-0.0103067
-0.00801229
-0.00571202
-0.00341962
-0.00115173
-0.222213
-0.23459
-0.235089
-0.208722
-0.138001
-0.0478013
0.0399861
0.10464
0.116279
-0.181657
-0.184906
-0.160032
-0.138418
-0.117629
-0.113578
-0.0328605
-0.0597701
-0.0408991
-0.0327152
-0.0221399
-0.00554802
-0.0113663
-0.0877727
-0.10757
-0.128932
-0.207606
-0.225667
-0.194682
-0.175228
-0.15912
-0.149922
-0.146178
-0.141988
-0.138048
-0.133347
-0.128239
-0.122957
-0.117592
-0.112264
-0.107037
-0.101973
-0.0970973
-0.0924275
-0.0879693
-0.0837185
-0.0796682
-0.0758051
-0.0721176
-0.0685899
-0.0652077
-0.0619568
-0.0588238
-0.055799
-0.0528695
-0.0500203
-0.0472444
-0.0445277
-0.0418786
-0.0392764
-0.0367201
-0.0342042
-0.0317221
-0.0292704
-0.0268455
-0.0244438
-0.0220622
-0.0196979
-0.0173483
-0.0150112
-0.0126846
-0.0103656
-0.00805775
-0.00574434
-0.00343898
-0.00115811
-0.280487
-0.286983
-0.289204
-0.27206
-0.16596
-0.0239502
0.0831217
0.100503
0.0614792
-0.0528328
-0.096093
-0.108163
-0.104635
-0.0998375
-0.102404
-0.0778106
-0.0799764
-0.0602966
-0.0559409
-0.0518892
-0.0514161
-0.0626052
-0.0937129
-0.116037
-0.139814
-0.175662
-0.191114
-0.181579
-0.168296
-0.163661
-0.155657
-0.15234
-0.146198
-0.141272
-0.136292
-0.130566
-0.124836
-0.119186
-0.113631
-0.108243
-0.103047
-0.0980633
-0.0933075
-0.0887771
-0.0844641
-0.0803574
-0.0764438
-0.0727089
-0.0691383
-0.0657155
-0.0624273
-0.0592596
-0.0562008
-0.0532381
-0.0503598
-0.0475568
-0.0448116
-0.0421412
-0.0395189
-0.0369398
-0.0344033
-0.0319032
-0.0294347
-0.0269937
-0.0245763
-0.0221797
-0.0198013
-0.0174382
-0.0150881
-0.0127489
-0.0104177
-0.008098
-0.00577297
-0.00345614
-0.00116379
-0.346447
-0.338887
-0.367489
-0.420988
-0.30871
0.11215
0.217559
0.148962
0.0804862
0.00724455
-0.0371595
-0.0617111
-0.075304
-0.0899557
-0.103254
-0.0894786
-0.0894828
-0.0874609
-0.0855574
-0.0844154
-0.086344
-0.094158
-0.11055
-0.123107
-0.139222
-0.156546
-0.166834
-0.16941
-0.166061
-0.164974
-0.160507
-0.157621
-0.151062
-0.145173
-0.139326
-0.133002
-0.126845
-0.120775
-0.11492
-0.109306
-0.10393
-0.0988196
-0.093969
-0.089369
-0.0850002
-0.0808508
-0.0769023
-0.0731343
-0.0695374
-0.0660889
-0.062777
-0.0595871
-0.0565061
-0.0535218
-0.050625
-0.0477963
-0.0450434
-0.0423534
-0.0397135
-0.0371204
-0.034569
-0.0320545
-0.0295722
-0.0271179
-0.0246881
-0.0222794
-0.0198893
-0.017515
-0.015154
-0.0128042
-0.0104626
-0.00813279
-0.00579778
-0.00347104
-0.00116869
-0.338798
-0.352482
-0.410462
-0.599794
-0.680583
0.482022
0.393488
0.19202
0.101587
0.0405667
0.0010108
-0.0259927
-0.0466696
-0.0738349
-0.0939783
-0.105424
-0.11106
-0.114547
-0.114736
-0.11424
-0.114996
-0.118704
-0.12445
-0.130416
-0.137273
-0.144546
-0.151196
-0.160612
-0.164376
-0.16789
-0.166485
-0.162934
-0.156552
-0.149586
-0.142371
-0.135283
-0.12861
-0.122099
-0.115907
-0.110044
-0.104523
-0.0993063
-0.0943802
-0.0897261
-0.0853216
-0.0811457
-0.077178
-0.0733971
-0.0697867
-0.0663281
-0.0630058
-0.0598061
-0.0567145
-0.0537196
-0.0508118
-0.0479758
-0.0452133
-0.0425139
-0.0398642
-0.0372601
-0.0346982
-0.0321736
-0.0296816
-0.0272178
-0.0247786
-0.0223608
-0.0199616
-0.0175784
-0.0152086
-0.0128502
-0.0105002
-0.00816199
-0.00581865
-0.0034836
-0.00117281
-0.30198
-0.318608
-0.354607
-0.407394
-0.305546
0.116565
0.21413
0.148146
0.0934698
0.0536511
0.0257986
0.00425969
-0.0166672
-0.0534557
-0.10017
-0.127578
-0.1389
-0.142701
-0.143564
-0.142879
-0.141008
-0.141004
-0.138207
-0.135865
-0.134329
-0.135316
-0.142441
-0.15191
-0.1643
-0.173042
-0.17576
-0.170773
-0.163195
-0.154219
-0.14538
-0.137522
-0.130219
-0.123143
-0.116604
-0.110512
-0.104821
-0.099504
-0.0945201
-0.0898339
-0.0854135
-0.0812322
-0.0772654
-0.0734886
-0.0698831
-0.0664298
-0.0631118
-0.0599157
-0.0568253
-0.0538308
-0.050922
-0.0480871
-0.045323
-0.0426202
-0.0399666
-0.0373571
-0.03479
-0.0322601
-0.0297624
-0.0272929
-0.0248477
-0.0224237
-0.0200181
-0.0176283
-0.015252
-0.0128869
-0.0105303
-0.00818545
-0.00583557
-0.00349384
-0.00117613
-0.251856
-0.263995
-0.2704
-0.25273
-0.154089
-0.0200522
0.071717
0.0825872
0.0702006
0.054953
0.0442151
0.0372896
0.0234318
-0.0189096
-0.127479
-0.166327
-0.174289
-0.174384
-0.174634
-0.1722
-0.167167
-0.163202
-0.152504
-0.138936
-0.129798
-0.122522
-0.126773
-0.135497
-0.172063
-0.188794
-0.191254
-0.181479
-0.17185
-0.158272
-0.147355
-0.139661
-0.131354
-0.123678
-0.116824
-0.110538
-0.10474
-0.0993683
-0.0943622
-0.0896752
-0.0852675
-0.0811066
-0.0771628
-0.0734097
-0.0698277
-0.0663949
-0.0630953
-0.0599173
-0.0568402
-0.0538572
-0.0509563
-0.0481309
-0.045373
-0.0426732
-0.0400231
-0.0374121
-0.0348451
-0.0323143
-0.0298152
-0.0273435
-0.0248954
-0.022468
-0.0200587
-0.0176648
-0.015284
-0.0129143
-0.010553
-0.0082032
-0.00584854
-0.00350174
-0.00117865
-0.208354
-0.212719
-0.206714
-0.179459
-0.119537
-0.0474703
0.0111164
0.0387203
0.0481942
0.0514952
0.0615986
0.0751198
0.0939381
0.0822126
-0.225544
-0.235276
-0.21794
-0.207028
-0.204081
-0.204046
-0.198221
-0.185955
-0.167568
-0.14287
-0.123061
-0.0974538
-0.0854235
-0.10485
-0.197303
-0.219785
-0.212941
-0.196069
-0.181857
-0.161779
-0.147919
-0.140507
-0.131689
-0.123614
-0.116506
-0.110092
-0.104247
-0.0988678
-0.0938841
-0.0892354
-0.0848742
-0.0807623
-0.0768671
-0.073161
-0.0696212
-0.0662268
-0.0629619
-0.0598115
-0.0567604
-0.0537994
-0.0509179
-0.0481084
-0.0453627
-0.0426722
-0.0400295
-0.0374272
-0.0348649
-0.0323371
-0.0298407
-0.0273702
-0.0249223
-0.0224943
-0.0200837
-0.017688
-0.0153049
-0.0129326
-0.0105684
-0.00821536
-0.00585758
-0.00350732
-0.00118037
-0.170927
-0.172438
-0.162914
-0.14087
-0.103628
-0.0593014
-0.0168275
0.0121864
0.0315404
0.0471378
0.0689235
0.107906
0.200699
0.490395
-0.618598
-0.334278
-0.254662
-0.231913
-0.232974
-0.237846
-0.23654
-0.217734
-0.186561
-0.14857
-0.109417
-0.0623814
-0.0140943
-0.0017273
-0.29224
-0.283008
-0.243608
-0.21023
-0.1862
-0.165729
-0.150207
-0.139826
-0.130734
-0.122611
-0.11546
-0.109066
-0.103274
-0.0979702
-0.0930713
-0.0885106
-0.0842355
-0.0802048
-0.0763847
-0.0727471
-0.0692685
-0.0659288
-0.0627123
-0.059604
-0.0565902
-0.053661
-0.0508075
-0.048021
-0.0452968
-0.042623
-0.0399932
-0.0374035
-0.0348505
-0.0323302
-0.0298396
-0.0273741
-0.0249291
-0.0225033
-0.0200937
-0.0176984
-0.0153151
-0.012942
-0.0105766
-0.00822212
-0.00586283
-0.00351067
-0.00118133
-0.142747
-0.144016
-0.131394
-0.118039
-0.0948349
-0.0647957
-0.0316706
-0.00441275
0.0195457
0.0394451
0.0565446
0.0870606
0.111795
0.0996801
-0.21814
-0.232714
-0.229304
-0.236696
-0.255113
-0.280609
-0.290376
-0.263927
-0.212721
-0.154961
-0.102608
-0.0322703
0.0892253
0.406954
-0.682243
-0.377195
-0.267777
-0.215972
-0.184928
-0.165151
-0.149802
-0.137876
-0.12878
-0.12071
-0.113686
-0.107444
-0.101817
-0.0966685
-0.0919214
-0.0874994
-0.0833513
-0.0794349
-0.0757183
-0.0721734
-0.0687763
-0.065508
-0.0623547
-0.0593017
-0.0563362
-0.0534493
-0.0506331
-0.0478807
-0.0451808
-0.0425291
-0.0399187
-0.037345
-0.0348056
-0.0322965
-0.0298151
-0.0273562
-0.024917
-0.0224957
-0.0200896
-0.0176967
-0.0153151
-0.012943
-0.0105781
-0.00822367
-0.00586445
-0.00351188
-0.00118155
-0.105978
-0.117809
-0.115709
-0.105994
-0.0941713
-0.0716679
-0.0402553
-0.0183701
0.0125211
0.0327046
0.0478688
0.0580451
0.0594239
0.015495
-0.105511
-0.158523
-0.191443
-0.224627
-0.273828
-0.339096
-0.380738
-0.335264
-0.243096
-0.168383
-0.10418
-0.0523743
-0.000285514
0.0110109
-0.279063
-0.270742
-0.231912
-0.199794
-0.176239
-0.158697
-0.144959
-0.134107
-0.125299
-0.117733
-0.11111
-0.105202
-0.0998615
-0.0949707
-0.0904427
-0.086215
-0.0822358
-0.0784685
-0.0748816
-0.0714509
-0.0681547
-0.0649752
-0.0618985
-0.0589122
-0.0560052
-0.0531693
-0.0503972
-0.0476821
-0.0450157
-0.0423926
-0.0398066
-0.037254
-0.0347317
-0.0322369
-0.0297665
-0.0273174
-0.0248869
-0.0224727
-0.0200721
-0.0176836
-0.0153055
-0.0129361
-0.0105733
-0.00822028
-0.00586262
-0.00351104
-0.00118108
-0.099321
-0.108413
-0.137725
-0.119065
-0.105168
-0.0841006
-0.0525526
-0.023124
0.00918195
0.0289604
0.0426709
0.0542361
0.0351289
0.000458909
-0.0584155
-0.106659
-0.149974
-0.197446
-0.271355
-0.41992
-0.591057
-0.421238
-0.255097
-0.163133
-0.100044
-0.0707933
-0.052503
-0.0774018
-0.170022
-0.195067
-0.189529
-0.175376
-0.160941
-0.148236
-0.137446
-0.128339
-0.120599
-0.113834
-0.107828
-0.102416
-0.0974767
-0.0929156
-0.0886676
-0.0846794
-0.0809071
-0.0773193
-0.0738891
-0.0705942
-0.067416
-0.0643395
-0.0613523
-0.0584438
-0.0556047
-0.0528276
-0.0501067
-0.0474356
-0.0448076
-0.0422184
-0.0396607
-0.0371322
-0.0346307
-0.032153
-0.0296964
-0.0272601
-0.0248409
-0.0224358
-0.0200426
-0.0176601
-0.0152871
-0.012922
-0.0105627
-0.0082122
-0.00585761
-0.00350834
-0.00117998
-0.0462178
-0.0906966
-0.161959
-0.1693
-0.145739
-0.10606
-0.0646687
-0.0244952
0.0108517
0.0365
0.0541999
0.0556516
0.0380019
0.0115514
-0.0206554
-0.0558126
-0.0986479
-0.144006
-0.198482
-0.331702
-0.711673
-0.356212
-0.165702
-0.120346
-0.0891611
-0.0758458
-0.0722539
-0.0922529
-0.129744
-0.150321
-0.155182
-0.151024
-0.143807
-0.135868
-0.128222
-0.121204
-0.114879
-0.109156
-0.103939
-0.0991434
-0.0946977
-0.0905432
-0.086633
-0.0829274
-0.0793951
-0.0760137
-0.0727615
-0.0696208
-0.066576
-0.0636154
-0.0607287
-0.0579068
-0.0551429
-0.0524312
-0.0497674
-0.0471459
-0.0445607
-0.0420081
-0.0394825
-0.0369819
-0.0345048
-0.0320481
-0.0296098
-0.0271879
-0.0247808
-0.0223861
-0.0200021
-0.0176275
-0.0152611
-0.0129015
-0.010547
-0.00819987
-0.00584962
-0.00350386
-0.00117833
0.0134261
-0.0791507
-0.207141
-0.248317
-0.197287
-0.130861
-0.0730081
-0.0212146
0.0233402
0.0547525
0.0785218
0.0719934
0.0448502
0.0274747
0.0222543
0.00651875
-0.0352333
-0.0955352
-0.110911
0.0584267
0.415945
0.0498381
-0.0557379
-0.0690141
-0.0683988
-0.0684217
-0.0733561
-0.0876823
-0.106783
-0.121774
-0.12907
-0.129991
-0.127447
-0.123236
-0.118379
-0.113414
-0.108581
-0.103987
-0.0996362
-0.0955249
-0.0916301
-0.0879266
-0.0843904
-0.0809997
-0.0777356
-0.074582
-0.0715248
-0.0685513
-0.0656516
-0.0628155
-0.0600372
-0.0573096
-0.0546281
-0.0519883
-0.0493868
-0.0468189
-0.0442805
-0.0417684
-0.0392783
-0.0368083
-0.0343575
-0.031924
-0.0295055
-0.0271007
-0.0247081
-0.0223256
-0.0199522
-0.0175867
-0.0152281
-0.0128754
-0.0105265
-0.00818392
-0.00583904
-0.0034978
-0.00117625
0.00626196
-0.110846
-0.252612
-0.318647
-0.233497
-0.144691
-0.076126
-0.00814313
0.044201
0.0825867
0.124965
0.116435
0.0380374
0.0299549
0.0742928
0.0934705
0.0385994
-0.0732672
-0.0839165
0.102445
0.297565
0.138672
0.0231269
-0.0255327
-0.0438073
-0.054744
-0.0639627
-0.0761325
-0.0897137
-0.101459
-0.108978
-0.112389
-0.112733
-0.11122
-0.108622
-0.105458
-0.102044
-0.0985588
-0.0950903
-0.0916896
-0.0883721
-0.0851437
-0.0820033
-0.0789456
-0.0759643
-0.0730515
-0.0702004
-0.0674045
-0.0646581
-0.0619558
-0.0592936
-0.0566662
-0.0540722
-0.0515094
-0.0489737
-0.0464626
-0.0439739
-0.0415051
-0.0390535
-0.0366164
-0.0341942
-0.0317855
-0.0293885
-0.0270019
-0.0246249
-0.022256
-0.0198944
-0.0175391
-0.0151892
-0.012844
-0.010502
-0.00816506
-0.00582633
-0.00349034
-0.00117384
-0.136715
-0.161576
-0.276979
-0.292891
-0.222605
-0.140222
-0.0710292
0.0141106
0.0776813
0.147846
0.212187
0.234172
-0.0423094
-0.00886621
0.0962992
0.147448
0.0583394
-0.0617354
-0.113895
-0.0173742
0.0858366
0.0678135
0.0190973
-0.0123104
-0.0276697
-0.0407867
-0.0525682
-0.062408
-0.0752906
-0.0857695
-0.0929614
-0.0978307
-0.0999259
-0.100315
-0.0994427
-0.0977601
-0.0955833
-0.0931167
-0.0904803
-0.0877714
-0.0850252
-0.0822722
-0.0795336
-0.0768157
-0.0741251
-0.0714599
-0.0688215
-0.0662089
-0.0636204
-0.0610555
-0.0585128
-0.0559898
-0.0534869
-0.0510032
-0.0485357
-0.0460841
-0.0436474
-0.0412239
-0.0388121
-0.0364098
-0.0340179
-0.0316355
-0.0292609
-0.026894
-0.0245337
-0.0221793
-0.0198302
-0.0174858
-0.0151455
-0.0128086
-0.010474
-0.00814408
-0.0058117
-0.00348156
-0.00117126
-0.275318
-0.240643
-0.25811
-0.253086
-0.203171
-0.127766
-0.0478466
0.0380341
0.112875
0.194731
0.324114
0.653924
-0.432472
-0.0969536
0.0458058
0.09241
0.0719173
-0.0601294