/*--------------------------------*- C++ -*----------------------------------*\
  =========                 |
  \\      /  F ield         | OpenFOAM: The Open Source CFD Toolbox
   \\    /   O peration     | Website:  https://openfoam.org
    \\  /    A nd           | Version:  12
     \\/     M anipulation  |
\*---------------------------------------------------------------------------*/
FoamFile
{
    format      ascii;
    class       surfaceScalarField;
    location    "1";
    object      phi.water_0;
}
// * * * * * * * * * * * * * * * * * * * * * * * * * * * * * * * * * * * * * //

dimensions      [0 3 -1 0 0 0 0];

internalField   nonuniform List<scalar> 
7375
(
1.01597e-07
7.22705e-09
9.45543e-08
8.97633e-09
8.32969e-08
1.1262e-08
1.10373e-07
-2.87774e-08
1.09087e-07
1.29424e-09
1.452e-07
-3.64875e-08
1.70719e-07
-2.57863e-08
1.53468e-07
1.74295e-08
1.11174e-07
4.18686e-08
1.06778e-07
4.35078e-09
1.05026e-07
1.75637e-09
1.06478e-07
-3.63834e-10
1.00494e-07
7.02498e-09
1.07008e-07
-7.55358e-09
1.11681e-07
-6.90311e-09
1.08898e-07
3.96267e-09
1.18723e-07
-9.92669e-09
1.24159e-07
-7.88837e-09
1.50019e-07
-2.43601e-08
1.64035e-07
-1.24821e-08
1.88982e-07
-2.49479e-08
1.61492e-07
2.88457e-08
1.33552e-07
2.79407e-08
1.22581e-07
1.10891e-08
1.07719e-07
1.50237e-08
1.08877e-07
-2.23849e-09
9.30631e-08
1.56568e-08
1.06433e-07
-1.33704e-08
8.94168e-08
1.70216e-08
1.08826e-07
-1.94176e-08
1.06444e-07
2.37749e-09
6.0938e-08
4.59801e-08
4.721e-08
1.40646e-08
1.00447e-08
3.68871e-08
-1.58734e-08
2.60855e-08
-3.92512e-08
2.33033e-08
-5.72084e-08
1.77781e-08
-6.7386e-08
1.01759e-08
-6.89203e-08
2.21378e-09
-6.18355e-08
-6.39591e-09
-5.52403e-08
-6.59498e-09
-4.6394e-08
-8.84648e-09
-3.94583e-08
-6.93548e-09
-3.00104e-08
-9.44806e-09
-2.0317e-08
-9.69327e-09
-1.12451e-08
-9.07204e-09
-4.2429e-09
-7.00207e-09
2.12146e-09
-6.36455e-09
8.19849e-09
-6.07689e-09
1.37449e-08
-5.5466e-09
1.86642e-08
-4.91921e-09
2.2201e-08
-3.53696e-09
2.55918e-08
-3.39063e-09
2.88732e-08
-3.28166e-09
3.26502e-08
-3.77688e-09
3.64898e-08
-3.83971e-09
3.99931e-08
-3.50324e-09
4.29661e-08
-2.97314e-09
4.57039e-08
-2.73762e-09
4.91005e-08
-3.39678e-09
5.38662e-08
-4.76553e-09
6.03764e-08
-6.51038e-09
6.82283e-08
-7.85168e-09
7.66888e-08
-8.46051e-09
8.43708e-08
-7.68175e-09
8.88661e-08
-4.49534e-09
8.74095e-08
1.4569e-09
8.03139e-08
7.09547e-09
6.93488e-08
1.09653e-08
5.73955e-08
1.19531e-08
4.6136e-08
1.12596e-08
3.57962e-08
1.03398e-08
2.55895e-08
1.0207e-08
1.63808e-08
9.20921e-09
3.48533e-09
1.47167e-07
8.79247e-09
1.44491e-07
1.15348e-08
1.40161e-07
1.53619e-08
1.14627e-07
-2.09573e-09
1.19304e-07
-2.13142e-09
1.61497e-07
-7.82458e-08
2.10682e-07
-7.37048e-08
1.4922e-07
7.51825e-08
1.01415e-07
8.89386e-08
1.34895e-07
-2.8105e-08
1.2858e-07
9.54523e-09
1.52297e-07
-2.43295e-08
1.53636e-07
5.67256e-09
1.31369e-07
1.49423e-08
1.33561e-07
-6.36963e-09
1.05408e-07
3.2157e-08
1.1258e-07
-1.91485e-08
1.09389e-07
-5.83436e-09
1.31746e-07
-4.69626e-08
1.77318e-07
-5.67099e-08
2.42836e-07
-9.39011e-08
1.76129e-07
9.65271e-08
1.28715e-07
7.86894e-08
1.09419e-07
3.11997e-08
9.56084e-08
2.54389e-08
9.94382e-08
-8.11996e-09
1.11654e-07
4.44476e-09
1.04822e-07
-5.45495e-09
1.08483e-07
1.33615e-08
9.01861e-08
-1.13271e-09
5.96002e-08
3.39175e-08
5.00854e-08
5.49787e-08
3.9712e-08
2.37713e-08
2.33443e-08
5.2984e-08
1.18325e-08
3.70652e-08
-2.56701e-09
3.72332e-08
-1.05017e-08
2.54302e-08
-1.84058e-08
1.79773e-08
-2.22812e-08
6.25111e-09
-2.42553e-08
-4.42177e-09
-2.11576e-08
-9.69263e-09
-1.57713e-08
-1.42328e-08
-9.51393e-09
-1.31928e-08
-4.57195e-09
-1.43901e-08
-1.1407e-09
-1.31245e-08
1.25153e-09
-1.14643e-08
3.57775e-09
-9.32827e-09
5.76619e-09
-8.55304e-09
7.72441e-09
-8.0351e-09
8.86597e-09
-6.68823e-09
8.47051e-09
-4.52374e-09
6.12406e-09
-1.19059e-09
2.73358e-09
-1.41185e-13
2.86767e-11
-5.76828e-10
-6.93039e-10
-3.05516e-09
-1.10518e-11
-4.52176e-09
1.17797e-09
-4.69225e-09
2.49123e-09
-4.28645e-09
4.48342e-09
-4.72979e-09
8.30454e-09
-7.21793e-09
1.50341e-08
-1.14951e-08
2.43957e-08
-1.58719e-08
3.55258e-08
-1.89818e-08
4.72894e-08
-2.0224e-08
5.79953e-08
-1.83875e-08
6.53572e-08
-1.18572e-08
6.70653e-08
-2.51014e-10
6.11417e-08
1.30192e-08
5.0481e-08
2.1626e-08
3.68023e-08
2.56317e-08
2.26735e-08
2.53884e-08
1.25018e-08
2.05116e-08
6.40179e-09
1.63074e-08
3.9456e-09
1.16659e-08
3.62296e-09
1.00207e-07
3.24676e-09
1.07209e-07
5.54502e-09
1.31747e-07
-6.80793e-09
1.14603e-07
1.38668e-08
1.24515e-07
-1.31795e-08
1.38991e-07
-9.2071e-08
4.27715e-07
-3.65374e-07
1.43457e-07
3.65964e-07
9.98861e-08
1.3484e-07
8.01159e-08
-1.00473e-08
4.36278e-08
4.6483e-08
2.00302e-08
-9.75157e-10
1.51069e-08
1.05451e-08
-1.50204e-09
3.13955e-08
4.01172e-08
-4.79735e-08
1.25618e-08
5.90562e-08
2.72327e-08
-3.37529e-08
1.61738e-08
5.2245e-09
-1.7033e-09
-2.93995e-08
2.93842e-08
-8.74977e-08
3.32275e-07
-3.97464e-07
2.60499e-08
4.00054e-07
-1.02451e-08
1.14825e-07
-7.21124e-09
2.74322e-08
-1.17034e-09
1.88606e-08
-1.30889e-08
3.71488e-09
-1.24779e-08
3.88542e-09
-3.2497e-08
1.47158e-08
-4.11454e-08
2.19217e-08
-6.9211e-08
2.59521e-08
-6.16e-08
2.67442e-08
-5.08608e-08
4.33461e-08
-5.32693e-08
2.66986e-08
-3.32995e-08
3.40795e-08
-1.86409e-08
2.16655e-08
-6.59014e-09
2.51825e-08
-5.35626e-10
1.93757e-08
3.11258e-09
1.41494e-08
3.05476e-09
6.30899e-09
5.3668e-10
-1.90367e-09
-1.74449e-09
-7.41143e-09
-3.78138e-09
-1.21959e-08
-3.72222e-09
-1.3252e-08
-3.88337e-09
-1.42289e-08
-3.99989e-09
-1.3008e-08
-4.04949e-09
-1.14147e-08
-3.4046e-09
-9.97318e-09
-2.75519e-09
-9.20248e-09
-2.59536e-09
-8.19494e-09
-3.75866e-09
-5.52497e-09
-7.0487e-09
-1.23373e-09
-1.20612e-08
3.82184e-09
-1.79659e-08
5.90457e-09
-2.30931e-08
4.55037e-09
-2.66935e-08
5.452e-10
-2.8806e-08
-2.40932e-09
-3.02738e-08
-3.22442e-09
-3.08491e-08
-3.71122e-09
-2.93968e-08
-6.18203e-09
-2.45159e-08
-1.20989e-08
-1.70142e-08
-1.89967e-08
-9.09441e-09
-2.37917e-08
-2.09556e-09
-2.59805e-08
3.5799e-09
-2.58994e-08
7.24165e-09
-2.20491e-08
8.34184e-09
-1.29573e-08
6.8874e-09
1.20355e-09
3.41176e-09
1.64949e-08
-5.05499e-10
2.55433e-08
-3.62109e-09
2.87473e-08
-4.68903e-09
2.64564e-08
-3.53835e-09
1.93612e-08
-2.20017e-09
1.49697e-08
-2.6957e-10
9.73576e-09
2.13396e-09
5.23235e-08
1.08879e-08
4.42459e-08
1.41301e-08
1.42293e-08
2.32084e-08
1.45635e-09
2.66245e-08
-6.91842e-08
5.79174e-08
-2.6887e-07
1.04872e-07
1.10534e-06
4.1768e-07
-3.09922e-07
-3.76033e-07
-9.98102e-08
-7.92916e-08
-9.91236e-08
-9.6945e-09
-5.28539e-08
1.76151e-09
-8.47291e-08
3.09099e-08
-4.96067e-08
-2.44356e-08
-3.82233e-08
1.96918e-08
-7.58744e-08
-1.04289e-08
-3.43695e-08
1.77212e-08
-3.65023e-08
-3.19426e-08
-5.79393e-08
2.63423e-08
-1.05773e-07
1.86243e-08
-3.03971e-07
1.07599e-07
1.06799e-06
3.95705e-07
-3.00488e-07
-3.85431e-07
-1.03113e-07
-8.13789e-08
-4.06257e-08
-3.40139e-08
-1.75196e-08
-4.20304e-09
-2.30857e-08
8.97287e-09
-2.53494e-08
5.89056e-09
-4.33779e-08
3.25926e-08
-2.47997e-08
4.0807e-09
-3.78299e-08
3.91023e-08
-2.44211e-08
1.28007e-08
-1.8017e-08
3.65087e-08
-1.26001e-08
2.07479e-08
-6.14145e-09
2.76208e-08
1.04928e-09
1.44748e-08
5.94748e-09
2.02843e-08
1.0824e-08
1.44992e-08
1.33617e-08
1.16117e-08
1.28213e-08
6.84943e-09
1.08509e-08
6.67055e-11
8.33062e-09
-4.89108e-09
5.19814e-09
-9.06339e-09
3.05924e-09
-1.11131e-08
1.47568e-09
-1.26454e-08
8.22607e-10
-1.23549e-08
5.8972e-10
-1.11818e-08
4.01031e-10
-9.7845e-09
-3.91675e-10
-8.4098e-09
-2.05656e-09
-6.53008e-09
-4.73223e-09
-2.84933e-09
-8.58072e-09
2.61474e-09
-1.35897e-08
8.83077e-09
-1.98848e-08
1.21996e-08
-2.65979e-08
1.12634e-08
-3.30122e-08
6.95947e-09
-3.78068e-08
2.38532e-09
-4.0584e-08
-4.47228e-10
-4.11776e-08
-3.11768e-09
-3.88044e-08
-8.55522e-09
-3.30891e-08
-1.78142e-08
-2.70657e-08
-2.50201e-08
-2.2795e-08
-2.80623e-08
-2.02048e-08
-2.85707e-08
-2.02789e-08
-2.58252e-08
-2.36549e-08
-1.86731e-08
-2.79664e-08
-8.64563e-09
-2.9947e-08
3.18427e-09
-2.83637e-08
1.49117e-08
-2.44327e-08
2.16124e-08
-1.87709e-08
2.30855e-08
-1.22712e-08
1.99568e-08
-7.65806e-09
1.47482e-08
-4.86665e-09
1.21789e-08
-2.36882e-09
7.23846e-09
8.36852e-10
6.02427e-08
1.68282e-08
5.42639e-08
2.01084e-08
2.19103e-08
5.55485e-08
-8.8998e-09
5.67577e-08
-3.67902e-08
8.50231e-08
-3.51842e-08
1.03641e-07
2.51783e-07
1.3035e-07
-5.16668e-08
-7.20514e-08
-6.52182e-08
-6.44176e-08
-9.98126e-08
2.44324e-08
-4.65019e-08
-5.15493e-08
-3.56059e-08
2.03772e-08
-4.4426e-08
-1.56156e-08
-2.43484e-08
-1.08736e-09
-3.57076e-08
1.2983e-09
-2.03357e-08
2.50448e-09
-7.11855e-08
1.83683e-08
-7.16637e-08
2.68157e-08
-7.22058e-08
1.91664e-08
-2.94079e-08
6.55377e-08
2.61578e-07
1.00682e-07
-2.52923e-08
-9.9576e-08
-3.63579e-08
-6.9236e-08
-2.29931e-08
-4.71465e-08
-7.48479e-09
-1.97114e-08
4.08256e-09
-2.67006e-09
8.28686e-09
1.72792e-09
1.80481e-09
3.83692e-08
-6.04268e-09
1.18065e-08
-2.06662e-09
3.56079e-08
-5.36317e-09
1.6118e-08
1.71286e-09
2.94327e-08
4.70334e-09
1.77574e-08
7.31245e-09
2.50118e-08
8.01875e-09
1.37685e-08
1.14842e-08
1.68189e-08
1.46945e-08
1.1289e-08
1.78986e-08
8.40762e-09
2.02485e-08
4.49958e-09
2.13793e-08
-1.06405e-09
2.22199e-08
-5.7317e-09
2.13876e-08
-8.23108e-09
2.00151e-08
-9.74045e-09
1.81146e-08
-1.07449e-08
1.63577e-08
-1.05979e-08
1.48905e-08
-9.71469e-09
1.33586e-08
-8.25264e-09
1.1104e-08
-6.15523e-09
7.75746e-09
-3.18354e-09
3.42103e-09
1.48708e-09
-1.45762e-09
7.49336e-09
-6.49042e-09
1.38635e-08
-1.23389e-08
1.8048e-08
-1.92369e-08
1.81614e-08
-2.6743e-08
1.44656e-08
-3.33344e-08
8.97668e-09
-3.74846e-08
3.70299e-09
-3.82972e-08
-2.30515e-09
-3.57959e-08
-1.10565e-08
-3.13254e-08
-2.22848e-08
-2.79141e-08
-2.84314e-08
-2.58981e-08
-3.00783e-08
-2.52158e-08
-2.9253e-08
-2.77045e-08
-2.33365e-08
-3.25601e-08
-1.38174e-08
-3.64712e-08
-4.7344e-09
-3.66058e-08
3.31892e-09
-3.26593e-08
1.09653e-08
-2.65431e-08
1.54962e-08
-1.91847e-08
1.57272e-08
-1.26568e-08
1.3429e-08
-8.60713e-09
1.06988e-08
-5.56824e-09
9.14052e-09
-3.59442e-09
5.26517e-09
1.60856e-10
2.96151e-08
1.73661e-08
4.49253e-08
4.84719e-09
2.37367e-08
7.64946e-08
2.19491e-08
5.77503e-08
1.5282e-08
9.10531e-08
4.22067e-08
7.73029e-08
9.47795e-08
7.69841e-08
1.29152e-08
9.58096e-09
-1.82572e-08
-3.39025e-08
-1.52371e-09
7.62105e-09
-1.97585e-08
-3.36579e-08
-8.41143e-09
9.03012e-09
-2.27628e-08
-1.42352e-09
-9.31406e-09
-1.45361e-08
-4.42834e-08
3.62544e-08
-2.6622e-08
-1.49786e-08
-3.13461e-08
2.29051e-08
-2.69032e-08
2.23727e-08
-3.09594e-08
2.3027e-08
-8.52131e-09
4.30996e-08
7.11695e-08
2.17171e-08
-2.43619e-09
-2.62154e-08
-1.91587e-08
-5.24889e-08
-3.72103e-08
-2.96947e-08
-2.29281e-08
-3.41926e-08
-2.87721e-08
2.94281e-09
-1.19353e-08
-1.48357e-08
-8.09878e-09
3.46145e-08
-4.17839e-09
7.6083e-09
2.39938e-09
2.86705e-08
7.48976e-09
1.10036e-08
1.3538e-08
2.33844e-08
1.91653e-08
1.21302e-08
2.2053e-08
2.21241e-08
2.31114e-08
1.27102e-08
2.52994e-08
1.4631e-08
2.62886e-08
1.02998e-08
2.75745e-08
7.12177e-09
2.7952e-08
4.12213e-09
2.7723e-08
-8.35015e-10
2.66669e-08
-4.6756e-09
2.51812e-08
-6.7454e-09
2.34248e-08
-7.98396e-09
2.15466e-08
-8.86673e-09
1.96221e-08
-8.67346e-09
1.78981e-08
-7.99069e-09
1.62066e-08
-6.56113e-09
1.41784e-08
-4.1271e-09
1.13537e-08
-3.58827e-10
7.83093e-09
5.00981e-09
4.36881e-09
1.09555e-08
1.41886e-09
1.68135e-08
-1.38882e-09
2.08557e-08
-4.95405e-09
2.17266e-08
-9.99302e-09
1.95046e-08
-1.5393e-08
1.43766e-08
-1.96328e-08
7.94279e-09
-2.21093e-08
1.71397e-10
-2.26983e-08
-1.04676e-08
-2.2216e-08
-2.27671e-08
-2.16651e-08
-2.89823e-08
-2.15037e-08
-3.02396e-08
-2.27896e-08
-2.79671e-08
-2.61702e-08
-1.99558e-08
-2.98437e-08
-1.01439e-08
-3.1727e-08
-2.85096e-09
-3.07399e-08
2.3319e-09
-2.68099e-08
7.03536e-09
-2.12322e-08
9.91864e-09
-1.5731e-08
1.02261e-08
-1.13932e-08
9.09137e-09
-8.23132e-09
7.53729e-09
-5.71636e-09
6.62612e-09
-4.37413e-09
3.92348e-09
-9.5455e-11
-1.61484e-07
2.81525e-08
-1.48816e-07
-7.90308e-09
-1.211e-07
4.97887e-08
-8.79531e-08
2.54519e-08
-5.73592e-08
6.07681e-08
-2.73178e-08
4.75401e-08
1.6246e-08
3.26428e-08
2.89837e-09
2.30943e-08
-1.23429e-08
-1.85354e-08
-1.26458e-08
7.79624e-09
-1.86778e-08
-2.77562e-08
-7.44866e-09
-2.00854e-09
-9.88179e-09
1.00959e-09
-1.97776e-08
-4.59342e-09
1.31024e-08
3.24065e-09
-3.93058e-09
2.05439e-09
4.65719e-09
1.42772e-08
4.26825e-09
2.25318e-08
-1.50872e-09
2.8804e-08
8.58754e-09
3.30033e-08
1.8215e-08
1.22755e-08
-2.68655e-08
1.91353e-08
-4.14169e-08
-3.86215e-08
-8.6261e-08
1.51494e-08
-7.83636e-08
-4.23582e-08
-9.22754e-08
1.78057e-08
-7.71381e-08
-2.90412e-08
-5.968e-08
1.73314e-08
-3.06716e-08
-2.08034e-08
-1.8428e-08
1.61404e-08
-8.03345e-09
6.09116e-10
-1.59367e-09
1.69447e-08
1.97228e-09
8.56431e-09
3.38983e-09
2.07066e-08
4.76125e-09
1.13388e-08
7.33415e-09
1.20581e-08
9.25874e-09
8.37523e-09
1.00313e-08
6.34925e-09
9.9214e-09
4.23205e-09
8.75102e-09
3.35388e-10
6.99356e-09
-2.91812e-09
5.47595e-09
-5.22778e-09
4.25544e-09
-6.76344e-09
2.87303e-09
-7.48432e-09
1.57313e-09
-7.37356e-09
7.33307e-10
-7.15088e-09
5.62119e-10
-6.38995e-09
7.68927e-10
-4.33393e-09
9.36602e-10
-5.26522e-10
1.15779e-09
4.78859e-09
1.36637e-09
1.07469e-08
1.81473e-09
1.63651e-08
2.81157e-09
1.98588e-08
3.79302e-09
2.07451e-08
3.67618e-09
1.96214e-08
2.07666e-09
1.59761e-08
-6.03171e-10
1.06226e-08
-3.9432e-09
3.51142e-09
-8.11454e-09
-6.29621e-09
-1.23338e-08
-1.85479e-08
-1.48508e-08
-2.64652e-08
-1.67429e-08
-2.83475e-08
-1.8891e-08
-2.5819e-08
-2.12621e-08
-1.75847e-08
-2.31914e-08
-8.21453e-09
-2.36741e-08
-2.36812e-09
-2.24564e-08
1.11423e-09
-1.96225e-08
4.20158e-09
-1.61515e-08
6.44778e-09
-1.28607e-08
6.93535e-09
-1.00392e-08
6.27006e-09
-7.84037e-09
5.33879e-09
-5.93914e-09
4.72546e-09
-4.93361e-09
2.91848e-09
-1.65506e-10
-1.64277e-07
1.16132e-08
-2.01201e-07
3.28683e-08
-1.29864e-07
-2.08279e-08
-1.35319e-07
3.06469e-08
-8.20192e-08
8.83469e-09
-6.17082e-08
2.63924e-08
-3.28521e-08
4.11956e-09
-2.45042e-08
1.47464e-08
-2.0897e-08
-2.21426e-08
-3.64899e-09
-9.37226e-09
-3.05871e-08
-5.35016e-10
-2.14179e-08
-1.11778e-08
-6.64183e-09
-1.36987e-08
-1.67994e-08
5.56413e-09
5.15585e-09
-1.86953e-08
-5.9594e-09
1.31906e-08
5.85255e-09
2.40556e-09
1.79035e-08
1.0376e-08
1.14171e-08
3.54731e-08
2.82227e-08
1.60341e-08
2.41174e-08
1.62153e-08
2.63378e-08
1.67197e-08
-1.01334e-08
-2.1503e-09
-1.07835e-08
1.54869e-08
-4.40759e-08
-9.15925e-09
-3.81499e-08
1.16981e-08
-6.08537e-08
-6.70203e-09
-4.04948e-08
-2.588e-09
-4.23338e-08
-1.89382e-08
-2.69933e-08
8.07975e-10
-3.02908e-08
3.90657e-09
-2.61475e-08
1.28014e-08
-2.28522e-08
5.26909e-09
-2.00816e-08
1.79359e-08
-1.80552e-08
9.31244e-09
-1.8444e-08
1.2447e-08
-1.7013e-08
6.94429e-09
-1.64489e-08
5.78517e-09
-1.54719e-08
3.25506e-09
-1.54403e-08
3.03757e-10
-1.58105e-08
-2.54787e-09
-1.61219e-08
-4.91639e-09
-1.65489e-08
-6.33641e-09
-1.70156e-08
-7.01759e-09
-1.76056e-08
-6.78353e-09
-1.81467e-08
-6.60984e-09
-1.84725e-08
-6.06412e-09
-1.83376e-08
-4.46893e-09
-1.71918e-08
-1.67229e-09
-1.43039e-08
1.90066e-09
-9.67128e-09
6.11425e-09
-4.03367e-09
1.07275e-08
1.5063e-09
1.43189e-08
6.22198e-09
1.60294e-08
9.88532e-09
1.5958e-08
1.18079e-08
1.40535e-08
1.14855e-08
1.0945e-08
8.66812e-09
6.3288e-09
3.3028e-09
-9.30898e-10
-3.82929e-09
-1.14158e-08
-9.25851e-09
-2.1036e-08
-1.25887e-08
-2.50173e-08
-1.48465e-08
-2.35612e-08
-1.64419e-08
-1.59892e-08
-1.75586e-08
-7.09769e-09
-1.757e-08
-2.35668e-09
-1.66531e-08
1.97467e-10
-1.5062e-08
2.61054e-09
-1.30577e-08
4.44355e-09
-1.1002e-08
4.87981e-09
-9.05792e-09
4.32611e-09
-7.52605e-09
3.80724e-09
-6.14912e-09
3.3491e-09
-5.33872e-09
2.10863e-09
-1.67148e-10
-1.50037e-07
2.27028e-08
-1.24947e-07
7.36697e-09
-9.3798e-08
-5.12326e-08
-5.80354e-08
-5.37111e-09
-4.22016e-08
-7.50124e-09
-3.34391e-08
1.74518e-08
-3.23653e-08
3.07713e-09
-2.11912e-08
3.57224e-09
-4.60261e-08
2.69231e-09
-3.0458e-08
-2.49404e-08
-3.4964e-08
4.01193e-09
-3.04852e-08
-1.56566e-08
-1.10158e-08
-3.31681e-08
-1.60404e-08
1.07e-08
2.33377e-08
-5.80734e-08
-1.84118e-09
3.86075e-08
1.41432e-08
-1.37231e-08
2.66132e-08
-1.96926e-09
3.71724e-08
2.48061e-08
5.88977e-08
-6.22316e-09
5.78548e-08
1.80351e-08
6.77119e-08
7.45284e-09
6.10591e-08
3.84034e-09
5.70377e-08
1.98835e-08
3.31297e-08
1.53367e-08
3.064e-08
1.40194e-08
1.19414e-08
1.18735e-08
6.44447e-09
2.82494e-09
-1.5719e-08
3.06496e-09
-1.39162e-08
-6.91312e-10
-1.38236e-08
4.0338e-09
-1.23853e-08
1.13632e-08
-1.30357e-08
5.91949e-09
-9.49829e-09
1.43986e-08
-8.62304e-09
8.43722e-09
-6.69634e-09
1.05203e-08
-5.99498e-09
6.24296e-09
-4.97557e-09
4.76579e-09
-4.18915e-09
2.46867e-09
-4.34945e-09
4.64076e-10
-5.60474e-09
-1.29256e-09
-7.5012e-09
-3.01992e-09
-9.6584e-09
-4.1792e-09
-1.18676e-08
-4.80842e-09
-1.41191e-08
-4.53198e-09
-1.65573e-08
-4.17162e-09
-1.93593e-08
-3.26218e-09
-2.1954e-08
-1.87426e-09
-2.30376e-08
-5.88665e-10
-2.16861e-08
5.49157e-10
-1.75267e-08
1.95475e-09
-1.07165e-08
3.91726e-09
-2.35213e-09
5.95449e-09
6.1467e-09
7.53058e-09
1.35258e-08
8.57889e-09
1.8653e-08
8.92632e-09
2.06575e-08
8.94055e-09
1.9307e-08
7.67928e-09
1.46693e-08
3.70679e-09
7.32508e-09
-4.07157e-09
1.22395e-12
-1.37122e-08
-5.11007e-09
-1.9906e-08
-8.805e-09
-1.98662e-08
-1.16303e-08
-1.31639e-08
-1.31925e-08
-5.53541e-09
-1.36626e-08
-1.88644e-09
-1.34307e-08
-3.44109e-11
-1.24998e-08
1.67974e-09
-1.11708e-08
3.11471e-09
-9.71535e-09
3.42442e-09
-8.36905e-09
2.97998e-09
-7.27041e-09
2.70893e-09
-6.2842e-09
2.36346e-09
-5.67431e-09
1.49928e-09
-1.50809e-10
-1.11798e-07
3.36684e-08
-4.0304e-08
-6.34867e-08
-4.96027e-08
-4.18394e-08
-3.04745e-08
-2.48043e-08
-3.81736e-08
2.73583e-10
-1.38256e-08
-7.03594e-09
-2.00128e-08
9.02869e-09
-1.42704e-08
-1.96597e-09
-2.82297e-08
1.64834e-08
-3.94843e-08
-1.40886e-08
-3.26217e-08
-2.82163e-09
-3.21731e-08
-1.5935e-08
-3.51209e-08
-3.01698e-08
-1.98082e-08
-4.65977e-09
-4.7108e-08
-3.18935e-08
-5.79379e-09
-2.67934e-09
-7.30205e-09
-1.21404e-08
2.85587e-09
-1.21471e-08
1.91676e-08
8.32805e-09
2.58059e-08
-1.25372e-08
3.30684e-08
1.12246e-08
4.8976e-08
-9.19791e-09
3.65694e-08
1.58776e-08
5.22095e-08
4.76544e-09
5.23107e-08
1.5078e-08
6.34295e-08
2.87154e-09
6.41189e-08
1.11699e-08
5.96468e-08
6.72322e-09
3.83859e-08
2.5285e-08
2.22002e-08
1.61189e-08
1.27385e-08
1.31769e-08
1.45802e-08
9.36038e-09
2.6437e-09
1.7856e-08
7.23183e-09
9.81048e-09
-9.42686e-10
1.66118e-08
-1.1745e-09
1.07521e-08
-5.62721e-09
1.06957e-08
-6.36966e-09
5.50826e-09
-6.96695e-09
3.06598e-09
-7.85376e-09
1.3509e-09
-9.53407e-09
3.87761e-10
-1.15511e-08
-1.00283e-09
-1.35293e-08
-2.20103e-09
-1.5419e-08
-2.91871e-09
-1.71555e-08
-2.79546e-09
-1.91319e-08
-2.19524e-09
-2.13415e-08
-1.05262e-09
-2.29034e-08
-3.12334e-10
-2.31676e-08
-3.245e-10
-2.14943e-08
-1.12412e-09
-1.71588e-08
-2.38077e-09
-9.81984e-09
-3.42173e-09
-2.81626e-10
-3.58373e-09
1.00034e-08
-2.75441e-09
1.95696e-08
-9.87354e-10
2.68964e-08
1.5995e-09
3.08874e-08
4.94954e-09
3.14164e-08
7.15027e-09
2.88356e-08
6.28757e-09
2.31595e-08
1.60458e-09
1.51863e-08
-5.73898e-09
6.59992e-09
-1.13196e-08
-1.29312e-09
-1.19732e-08
-7.03506e-09
-7.42193e-09
-9.81879e-09
-2.75163e-09
-1.10146e-08
-6.90519e-10
-1.13294e-08
2.8049e-10
-1.08656e-08
1.21595e-09
-9.86348e-09
2.11271e-09
-8.80378e-09
2.36482e-09
-7.95215e-09
2.12851e-09
-7.0785e-09
1.8356e-09
-6.3623e-09
1.64783e-09
-5.9167e-09
1.05422e-09
-1.28927e-10
-8.62955e-08
-1.02388e-07
-2.85885e-08
-1.21835e-07
-4.4507e-08
-2.66669e-08
-2.54725e-08
-4.38321e-08
-2.90352e-08
4.09345e-09
2.065e-08
-5.67212e-08
-5.39211e-09
3.49796e-08
1.628e-08
-2.38592e-08
2.93099e-08
3.45349e-09
1.85419e-08
-3.21085e-09
1.73842e-08
-1.45982e-09
-5.77382e-10
2.17729e-09
-4.98673e-08
1.88059e-08
-3.07167e-08
-2.3661e-08
-7.06023e-08
9.03644e-09
-2.63173e-08
-4.67232e-08
-5.38763e-08
1.51501e-08
-1.12968e-08
-5.48505e-08
3.57511e-09
-6.58037e-09
2.40918e-08
-3.28487e-08
3.10276e-08
4.06206e-09
3.81246e-08
-1.62949e-08
4.29961e-08
1.11184e-08
3.63562e-08
1.14535e-08
4.12774e-08
1.01066e-08
3.21249e-08
1.22537e-08
3.13699e-08
1.21311e-08
2.56304e-08
1.23371e-08
2.51423e-08
2.60311e-08
2.59458e-08
1.49979e-08
2.04635e-08
1.85248e-08
1.24459e-08
1.71713e-08
2.37755e-09
2.78e-08
-2.46954e-09
1.46576e-08
-7.57427e-09
2.17165e-08
-1.13178e-08
1.44957e-08
-1.43227e-08
1.37006e-08
-1.51725e-08
6.35806e-09
-1.47492e-08
2.64272e-09
-1.51924e-08
1.79416e-09
-1.75142e-08
2.70952e-09
-2.04595e-08
1.94244e-09
-2.28823e-08
2.21831e-10
-2.4818e-08
-9.83003e-10
-2.62024e-08
-1.41112e-09
-2.70871e-08
-1.31053e-09
-2.72635e-08
-8.76239e-10
-2.65126e-08
-1.06316e-09
-2.43288e-08
-2.50833e-09
-2.01323e-08
-5.32065e-09
-1.35718e-08
-8.94129e-09
-4.75419e-09
-1.22393e-08
5.35173e-09
-1.36897e-08
1.56641e-08
-1.30668e-08
2.49817e-08
-1.0305e-08
3.21681e-08
-5.58687e-09
3.61262e-08
9.91427e-10
3.65259e-08
6.75056e-09
3.42281e-08
8.58536e-09
2.94638e-08
6.36887e-09
2.18759e-08
1.84897e-09
1.19693e-08
-1.41292e-09
1.61032e-09
-1.61418e-09
-5.59019e-09
-2.21391e-10
-8.80535e-09
4.63594e-10
-1.00194e-08
5.23603e-10
-1.03393e-08
6.00445e-10
-9.9663e-09
8.43057e-10
-9.07856e-09
1.22505e-09
-8.15247e-09
1.43883e-09
-7.4764e-09
1.4526e-09
-6.90486e-09
1.26438e-09
-6.40048e-09
1.14402e-09
-6.08199e-09
7.36274e-10
-1.0376e-10
1.73101e-07
5.93006e-08
9.77974e-09
4.24415e-08
-3.19442e-09
-1.35548e-08
-1.52505e-08
-3.16519e-08
1.0591e-08
-2.18144e-08
-5.51951e-09
-4.1025e-08
2.31782e-08
6.65027e-09
2.61115e-08
-2.67926e-08
2.92765e-08
3.23716e-10
2.34118e-08
2.65381e-09
2.23078e-08
-5.92186e-10
2.28528e-08
1.84109e-09
4.33884e-09
3.73615e-08
-1.60455e-09
-1.75205e-08
-5.83023e-08
6.50472e-08
-2.59128e-08
-7.95943e-08
-2.49946e-08
1.44963e-08
-3.55479e-08
-4.47538e-08
8.15596e-09
-4.98587e-08
2.15488e-08
-4.72682e-08
4.63956e-08
-2.05672e-08
3.76514e-08
-7.17053e-09
3.32458e-08
1.5524e-08
3.19446e-08
1.28714e-08
2.36617e-08
1.81482e-08
2.7677e-08
8.08267e-09
1.72761e-08
2.26349e-08
1.8694e-08
1.10973e-08
2.07693e-08
2.35533e-08
1.76659e-08
1.81012e-08
1.53067e-08
2.11237e-08
2.65566e-09
2.94976e-08
-9.49414e-10
3.14051e-08
-1.04112e-08
2.41194e-08
-1.62423e-08
2.75476e-08
-2.15122e-08
1.97657e-08
-2.26972e-08
1.48856e-08
-2.53961e-08
9.05702e-09
-2.83626e-08
5.60926e-09
-3.10407e-08
4.47228e-09
-3.35857e-08
5.25451e-09
-3.5214e-08
3.5707e-09
-3.63179e-08
1.3258e-09
-3.64793e-08
-8.21672e-10
-3.55943e-08
-2.29608e-09
-3.39041e-08
-3.00073e-09
-3.13004e-08
-3.47992e-09
-2.79239e-08
-4.43971e-09
-2.30207e-08
-7.41151e-09
-1.64851e-08
-1.18562e-08
-8.97761e-09
-1.64488e-08
-1.15409e-09
-2.00629e-08
7.28579e-09
-2.21295e-08
1.59356e-08
-2.17166e-08
2.39714e-08
-1.83407e-08
3.0251e-08
-1.18665e-08
3.36126e-08
-2.37016e-09
3.33584e-08
7.00475e-09
3.01935e-08
1.17503e-08
2.46217e-08
1.19407e-08
1.64911e-08
9.97957e-09
6.84949e-09
8.2287e-09
-1.47132e-09
6.70665e-09
-6.43563e-09
4.74295e-09
-8.64443e-09
2.67245e-09
-9.48077e-09
1.36001e-09
-9.56282e-09
6.82572e-10
-9.14884e-09
4.2916e-10
-8.43679e-09
5.13078e-10
-7.75482e-09
7.56957e-10
-7.22169e-09
9.19634e-10
-6.7984e-09
8.41414e-10
-6.42168e-09
7.67866e-10
-6.19329e-09
5.0843e-10
-7.73905e-11
5.59975e-08
-3.41982e-08
6.67835e-08
3.03895e-08
4.49602e-08
8.04779e-09
7.98091e-09
5.79061e-09
1.54751e-08
-2.95335e-08
-3.18218e-08
5.57846e-09
-1.59128e-08
-9.02382e-09
-5.4271e-08
1.17279e-08
-2.79165e-08
-2.60308e-08
-1.76489e-08
-7.43378e-09
-1.2024e-08
-6.21705e-09
-6.30875e-09
-3.9379e-09
-3.00594e-09
3.36775e-08
-1.40073e-09
-1.91257e-08
1.54397e-08
4.82068e-08
-4.50122e-08
-1.83305e-08
-2.46022e-08
-6.16466e-09
-2.95018e-08
-3.95501e-08
-2.27617e-08
-5.65308e-08
-3.64422e-10
-6.96693e-08
4.86954e-08
-7.03299e-08
2.84061e-08
1.32526e-08
6.87716e-09
3.69656e-08
1.48102e-08
4.93839e-09
5.32994e-09
2.76285e-08
1.79042e-08
-4.59175e-09
1.46673e-08
2.61003e-08
7.78616e-09
1.82005e-08
2.90495e-09
2.84345e-08
-5.51728e-09
2.66519e-08
-1.54095e-08
3.11747e-08
-5.77515e-09
2.01714e-08
-4.83444e-09
3.04644e-08
2.13804e-09
1.71469e-08
7.50805e-09
2.21777e-08
8.85906e-09
1.84147e-08
4.76818e-09
1.89765e-08
-4.56476e-09
1.839e-08
-1.78252e-08
1.88697e-08
-2.74451e-08
1.40922e-08
-3.09105e-08
8.71999e-09
-3.16083e-08
4.26845e-09
-3.14215e-08
1.13902e-09
-3.04403e-08
-1.80282e-09
-2.89216e-08
-3.81482e-09
-2.66997e-08
-5.22259e-09
-2.34134e-08
-6.76624e-09
-1.93187e-08
-8.53445e-09
-1.4682e-08
-1.20482e-08
-1.00535e-08
-1.64848e-08
-6.26392e-09
-2.02384e-08
-3.0009e-09
-2.33259e-08
7.30924e-10
-2.58614e-08
5.01405e-09
-2.59997e-08
9.97353e-09
-2.33002e-08
1.46029e-08
-1.64959e-08
1.79421e-08
-5.70942e-09
1.83324e-08
6.61453e-09
1.52393e-08
1.48434e-08
9.46939e-09
1.77106e-08
2.19606e-09
1.72529e-08
-4.14974e-09
1.45745e-08
-7.527e-09
1.00839e-08
-8.33907e-09
5.55506e-09
-8.56773e-09
2.90115e-09
-8.79303e-09
1.58539e-09
-8.75413e-09
6.43754e-10
-8.41931e-09
9.44159e-11
-7.93917e-09
3.3017e-11
-7.45054e-09
2.68429e-10
-7.01952e-09
4.88776e-10
-6.70894e-09
5.3115e-10
-6.43625e-09
4.95745e-10
-6.27098e-09
3.43703e-10
-5.25909e-11
-3.92368e-08
-3.19224e-09
-1.8523e-08
8.96495e-09
-1.93035e-08
8.9102e-09
-3.30667e-08
1.93547e-08
-5.26531e-08
-1.04899e-08
-1.04024e-07
5.63625e-08
-6.2793e-08
-4.90898e-08
-5.86351e-08
8.21059e-09
-7.32869e-08
-1.14963e-08
-5.39268e-08
-2.70701e-08
-4.93885e-08
-1.0315e-08
-4.38897e-08
-9.43664e-09
-4.08596e-08
3.01997e-08
-4.63746e-08
-1.36107e-08
-4.58363e-08
4.71871e-08
-4.67919e-08
-1.73749e-08
-2.37298e-08
-2.92268e-08
-2.36323e-08
-3.92441e-08
-5.19099e-09
-7.54958e-08
4.54472e-08
-1.19604e-07
1.299e-07
-1.52994e-07
4.6237e-08
9.55904e-08
-3.41382e-09
8.61496e-08
-1.18058e-08
1.32956e-08
-2.95872e-08
4.58778e-08
-1.64581e-08
-1.77208e-08
-3.75051e-08
4.75157e-08
-4.33329e-08
2.40283e-08
-4.33584e-08
2.86102e-08
-5.43129e-08
3.72266e-08
-5.47874e-08
3.15681e-08
-4.57891e-08
1.17209e-08
-2.96348e-08
1.43101e-08
-2.11448e-08
8.65695e-09
-1.17316e-08
1.27644e-08
-6.69482e-09
1.33779e-08
-4.20299e-09
1.64847e-08
-4.08166e-09
1.82687e-08
-5.07129e-09
1.98593e-08
-4.44867e-09
1.34696e-08
-3.6904e-10
4.64037e-09
3.49166e-09
4.0776e-10
5.2933e-09
-6.62616e-10
5.10806e-09
-1.61757e-09
3.74658e-09
-2.45335e-09
1.9141e-09
-3.3901e-09
2.18959e-10
-5.0711e-09
-1.02882e-09
-7.28667e-09
-2.52217e-09
-1.05548e-08
-4.61009e-09
-1.43969e-08
-7.20106e-09
-1.76474e-08
-9.84494e-09
-2.0682e-08
-1.1381e-08
-2.43253e-08
-1.1823e-08
-2.55577e-08
-1.1715e-08
-2.34082e-08
-1.10318e-08
-1.7179e-08
-9.55465e-09
-7.18655e-09
-8.79195e-09
5.85184e-09
-9.38581e-09
1.54373e-08
-1.05544e-08
1.88792e-08
-1.20554e-08
1.87539e-08
-1.23531e-08
1.48722e-08
-1.10231e-08
8.75403e-09
-9.47543e-09
4.0074e-09
-8.69477e-09
2.12055e-09
-8.34189e-09
1.23257e-09
-8.12567e-09
4.27606e-10
-7.85943e-09
-1.7174e-10
-7.52326e-09
-3.03067e-10
-7.15285e-09
-1.01886e-10
-6.8599e-09
1.95981e-10
-6.63517e-09
3.06754e-10
-6.43813e-09
2.9927e-10
-6.32079e-09
2.26906e-10
-2.94699e-11
-3.51699e-08
-9.84342e-10
-4.1198e-08
1.51965e-08
-4.39361e-08
1.11998e-08
-5.09615e-08
2.638e-08
-6.58533e-08
4.97795e-09
-3.85361e-08
2.84702e-08
-7.65364e-08
-1.05887e-08
-6.42611e-08
-4.72028e-09
-7.14447e-08
-5.10168e-09
-7.13627e-08
-2.66908e-08
-7.52949e-08
-5.71297e-09
-7.91548e-08
-5.67305e-09
-6.06659e-08
1.17107e-08
-5.12019e-08
-2.25524e-08
-2.3806e-08
1.95934e-08
-4.32671e-08
1.84331e-09
-5.67771e-08
-1.57167e-08
-4.67396e-08
-4.87839e-08
-4.68849e-08
-7.61273e-08
1.38108e-08
-1.8152e-07
3.70957e-07
-5.19221e-07
1.5936e-08
4.49646e-07
-3.62007e-08
1.40764e-07
-4.9387e-08
2.62458e-08
-4.04759e-08
3.69667e-08
-7.55855e-08
1.70307e-08
-5.75565e-08
2.91859e-08
-6.04638e-08
2.76127e-08
-6.64246e-08
3.48895e-08
-5.68639e-08
2.72937e-08
-5.10755e-08
2.54641e-08
-4.91196e-08
9.76506e-09
-4.33294e-08
8.51985e-09
-4.01874e-08
5.51502e-09
-3.42521e-08
6.82911e-09
-2.77462e-08
6.87205e-09
-1.9203e-08
7.94141e-09
-1.08114e-08
9.87713e-09
-1.99484e-09
1.10427e-08
6.14146e-09
5.33329e-09
1.28616e-08
-2.07977e-09
1.74832e-08
-4.21383e-09
2.00938e-08
-3.27321e-09
2.02811e-08
-1.80486e-09
1.85702e-08
-7.42499e-10
1.53867e-08
-2.06568e-10
1.11251e-08
-8.09478e-10
6.32167e-09
-2.48325e-09
9.55248e-10
-5.1884e-09
-4.88095e-09
-8.56065e-09
-1.05252e-08
-1.20031e-08
-1.49099e-08
-1.62973e-08
-1.82335e-08
-2.10017e-08
-2.15943e-08
-2.21969e-08
-2.58046e-08
-1.91979e-08
-2.94617e-08
-1.35219e-08
-3.06507e-08
-5.99754e-09
-2.90348e-08
4.23596e-09
-2.64186e-08
1.28211e-08
-2.35706e-08
1.60313e-08
-1.99681e-08
1.51513e-08
-1.60148e-08
1.09189e-08
-1.25908e-08
5.33008e-09
-1.04148e-08
1.83147e-09
-9.02063e-09
7.26404e-10
-8.19591e-09
4.07929e-10
-7.73954e-09
-2.86832e-11
-7.47789e-09
-4.33309e-10
-7.25699e-09
-5.23882e-10
-6.98622e-09
-3.72564e-10
-6.76142e-09
-2.86512e-11
-6.59161e-09
1.37264e-10
-6.44953e-09
1.57761e-10
-6.36046e-09
1.38374e-10
-1.23944e-11
5.9905e-09
-7.97917e-09
1.02381e-08
1.08391e-08
1.89451e-08
2.57067e-09
2.13406e-08
2.34975e-08
2.39105e-08
2.40792e-09
2.40315e-08
2.83044e-08
1.62508e-08
-2.80804e-09
-2.98407e-09
1.46334e-08
-1.60946e-08
7.89552e-09
-4.45553e-08
1.75172e-09
-5.88979e-08
9.18347e-09
-6.7389e-08
3.45412e-09
-5.85232e-08
2.84496e-09
-8.5954e-08
5.75529e-09
-5.46723e-08
-1.16076e-08
-6.90326e-08
1.56458e-08
-8.21943e-08
-1.71641e-09
-1.10099e-07
-2.19907e-08
-1.87121e-07
-2.40357e-10
-3.5177e-07
-1.85508e-08
1.32303e-06
-3.29816e-08
-3.55086e-07
-2.3764e-08
-1.91953e-07
-2.43477e-08
-1.40663e-07
-2.35512e-08
-9.30504e-08
-9.68636e-09
-8.38775e-08
8.71346e-09
-5.43552e-08
-8.14176e-11
-5.19034e-08
2.48849e-08
-3.85274e-08
2.15136e-08
-2.86349e-08
1.74012e-08
-1.95899e-08
1.64191e-08
-1.93627e-08
9.53791e-09
-1.78817e-08
7.03883e-09
-1.8317e-08
5.95036e-09
-1.70779e-08
5.59001e-09
-1.513e-08
4.92415e-09
-1.09701e-08
3.78157e-09
-4.6803e-09
3.58732e-09
3.29558e-09
3.06687e-09
9.60082e-09
-9.7194e-10
1.2748e-08
-5.22699e-09
1.45496e-08
-6.01533e-09
1.60126e-08
-4.73625e-09
1.58948e-08
-1.68706e-09
1.44215e-08
7.30802e-10
1.1841e-08
2.37394e-09
8.08553e-09
2.94599e-09
3.17469e-09
2.4276e-09
-2.62995e-09
6.16252e-10
-8.5215e-09
-2.66909e-09
-1.34859e-08
-7.03868e-09
-1.73567e-08
-1.24265e-08
-2.14521e-08
-1.69063e-08
-2.68089e-08
-1.68401e-08
-3.34419e-08
-1.25649e-08
-3.88536e-08
-8.11016e-09
-4.1062e-08
-3.78912e-09
-3.89845e-08
2.15853e-09
-3.40745e-08
7.91101e-09
-2.83385e-08
1.02954e-08
-2.23252e-08
9.13801e-09
-1.69825e-08
5.5762e-09
-1.31945e-08
1.54207e-09