/*--------------------------------*- C++ -*----------------------------------*\
  =========                 |
  \\      /  F ield         | OpenFOAM: The Open Source CFD Toolbox
   \\    /   O peration     | Website:  https://openfoam.org
    \\  /    A nd           | Version:  12
     \\/     M anipulation  |
\*---------------------------------------------------------------------------*/
FoamFile
{
    format      ascii;
    class       surfaceScalarField;
    location    "1";
    object      phi.water;
}
// * * * * * * * * * * * * * * * * * * * * * * * * * * * * * * * * * * * * * //

dimensions      [0 3 -1 0 0 0 0];

internalField   nonuniform List<scalar> 
7375
(
1.19701e-07
7.57017e-09
1.12581e-07
9.42174e-09
9.82902e-08
1.42938e-08
1.05591e-07
-9.30785e-09
8.4262e-08
2.15423e-08
7.75808e-08
6.75096e-09
8.68867e-08
-9.4045e-09
8.64793e-08
4.14735e-10
8.60455e-08
4.28813e-10
1.10085e-07
-2.38005e-08
1.37243e-07
-2.71529e-08
1.55783e-07
-1.69491e-08
1.60365e-07
-2.92297e-09
1.53454e-07
5.25492e-09
1.48033e-07
2.34639e-09
1.32381e-07
1.73389e-08
1.30671e-07
1.72702e-09
1.18949e-07
9.20118e-09
1.16325e-07
3.78671e-09
8.93558e-08
2.81625e-08
9.85801e-08
-9.22302e-09
8.61024e-08
1.32265e-08
9.85045e-08
-1.24035e-08
1.14166e-07
-1.58194e-08
1.12314e-07
1.87686e-09
1.18055e-07
-6.82112e-09
1.04405e-07
1.35143e-08
1.16054e-07
-1.16494e-08
9.89743e-08
1.70849e-08
1.16589e-07
-1.76223e-08
1.12746e-07
3.83796e-09
6.59137e-08
4.73202e-08
5.07468e-08
1.55245e-08
1.24491e-08
3.8033e-08
-1.48573e-08
2.74626e-08
-3.94592e-08
2.4505e-08
-5.8398e-08
1.87494e-08
-6.93704e-08
1.0971e-08
-7.16835e-08
3.01227e-09
-6.53124e-08
-5.65438e-09
-5.93364e-08
-5.97606e-09
-5.1055e-08
-8.28137e-09
-4.46078e-08
-6.4473e-09
-3.55854e-08
-9.02225e-09
-2.62588e-08
-9.32672e-09
-1.75051e-08
-8.75353e-09
-1.07737e-08
-6.73154e-09
-4.64009e-09
-6.13343e-09
1.2263e-09
-5.86649e-09
6.59975e-09
-5.37328e-09
1.13689e-08
-4.76923e-09
1.47764e-08
-3.40733e-09
1.80573e-08
-3.28105e-09
2.12505e-08
-3.19297e-09
2.49387e-08
-3.68833e-09
2.87172e-08
-3.77829e-09
3.21455e-08
-3.42845e-09
3.50619e-08
-2.91628e-09
3.77527e-08
-2.69084e-09
4.11089e-08
-3.35607e-09
4.584e-08
-4.73125e-09
5.23205e-08
-6.48044e-09
6.01465e-08
-7.82615e-09
6.85853e-08
-8.43873e-09
7.62488e-08
-7.6637e-09
8.07303e-08
-4.48152e-09
7.92622e-08
1.46795e-09
7.21578e-08
7.10436e-09
6.11851e-08
1.09726e-08
4.92257e-08
1.19595e-08
3.79624e-08
1.12633e-08
2.7625e-08
1.03374e-08
1.74302e-08
1.01946e-08
8.24992e-09
9.17988e-09
3.4984e-09
1.67219e-07
8.39329e-09
1.64457e-07
1.20609e-08
1.62758e-07
1.57012e-08
1.31107e-07
2.39248e-08
1.08646e-07
4.46632e-08
7.24265e-08
4.25973e-08
6.46067e-08
-1.64829e-09
6.40583e-08
-3.62976e-10
9.6309e-08
-3.41307e-08
1.48302e-07
-7.48206e-08
1.66718e-07
-4.45105e-08
2.02416e-07
-5.31892e-08
2.24203e-07
-2.49345e-08
1.86384e-07
4.3463e-08
1.63829e-07
2.82444e-08
1.28142e-07
5.32071e-08
1.29943e-07
-2.70675e-09
1.15354e-07
2.24783e-08
1.11846e-07
7.33266e-09
8.35624e-08
5.75873e-08
1.06823e-07
-3.39198e-08
8.37149e-08
3.67057e-08
1.07775e-07
-3.29477e-08
1.14659e-07
-2.12875e-08
1.07938e-07
5.1025e-09
1.11058e-07
-1.22774e-08
1.21546e-07
4.14806e-09
1.14027e-07
-2.91987e-09
1.16406e-07
1.47054e-08
9.68108e-08
1.9934e-09
6.55451e-08
3.6141e-08
5.51839e-08
5.71127e-08
4.34852e-08
2.64943e-08
2.56142e-08
5.56557e-08
1.31562e-08
3.93602e-08
-2.32014e-09
3.94733e-08
-1.15678e-08
2.76939e-08
-2.04165e-08
1.9709e-08
-2.51165e-08
7.88622e-09
-2.78205e-08
-2.95043e-09
-2.53596e-08
-8.43693e-09
-2.05278e-08
-1.31132e-08
-1.47516e-08
-1.22235e-08
-1.02279e-08
-1.35459e-08
-7.15498e-09
-1.23997e-08
-5.06553e-09
-1.08429e-08
-3.00311e-09
-8.79396e-09
-1.04217e-09
-8.09432e-09
7.26063e-10
-7.63472e-09
1.69935e-09
-6.3465e-09
1.15874e-09
-4.22862e-09
-1.31188e-09
-9.36643e-10
-4.8103e-09
2.17383e-10
-7.62556e-09
-3.77651e-10
-8.41784e-09
-2.89605e-09
-7.82738e-09
-4.36869e-09
-6.67301e-09
-4.58283e-09
-5.40447e-09
-4.18477e-09
-3.45578e-09
-4.63955e-09
3.28779e-10
-7.1406e-09
7.02499e-09
-1.14275e-08
1.63581e-08
-1.58135e-08
2.74629e-08
-1.89311e-08
3.92041e-08
-2.01799e-08
4.98905e-08
-1.83503e-08
5.72359e-08
-1.1827e-08
5.89321e-08
-2.28282e-10
5.30001e-08
1.30363e-08
4.23317e-08
2.1641e-08
2.86502e-08
2.5641e-08
1.45216e-08
2.53919e-08
4.34086e-09
2.0518e-08
-1.75504e-09
1.62901e-08
-4.16627e-09
1.15907e-08
3.68369e-09
1.20598e-07
2.23879e-09
1.28255e-07
5.62209e-09
1.46735e-07
2.67079e-11
1.50329e-07
1.87817e-08
1.58053e-07
3.49699e-08
9.86355e-08
1.02187e-07
-1.5518e-08
1.1367e-07
8.18963e-08
-9.62608e-08
1.44322e-07
-9.79313e-08
1.14351e-07
-4.83781e-08
7.08621e-08
-2.91481e-10
8.62396e-08
-6.84082e-08
1.44321e-07
-8.24168e-08
6.88167e-08
1.17479e-07
5.87647e-08
3.75944e-08
3.61164e-08
7.47698e-08
4.73117e-08
-1.42394e-08
4.98563e-08
1.99337e-08
5.12555e-08
6.51687e-09
1.45953e-08
9.43965e-08
-1.04483e-07
8.49569e-08
1.14749e-08
-7.79149e-08
4.30455e-08
-6.50689e-08
2.95932e-08
-6.97061e-09
2.15318e-08
1.34958e-08
5.36899e-09
3.75888e-09
2.27399e-09
7.25378e-09
-1.86801e-08
1.82221e-08
-2.97336e-08
2.56461e-08
-5.81697e-08
2.95256e-08
-5.36649e-08
3.19069e-08
-4.53594e-08
4.78213e-08
-4.93465e-08
3.09441e-08
-3.08486e-08
3.81445e-08
-1.77017e-08
2.54262e-08
-6.73444e-09
2.8506e-08
-1.31536e-09
2.22748e-08
1.01637e-09
1.71802e-08
7.54761e-11
8.82709e-09
-3.14487e-09
2.69909e-10
-6.10139e-09
-5.48043e-09
-8.68242e-09
-1.05321e-08
-9.09147e-09
-1.18145e-08
-9.64953e-09
-1.29878e-08
-1.01048e-08
-1.19444e-08
-1.04468e-08
-1.05009e-08
-1.00542e-08
-9.18652e-09
-9.62166e-09
-8.52687e-09
-9.64452e-09
-7.61183e-09
-1.09679e-08
-5.02305e-09
-1.43947e-08
-8.01857e-10
-1.95251e-08
4.19379e-09
-2.5533e-08
6.22531e-09
-3.07401e-08
4.82949e-09
-3.44202e-08
7.84157e-10
-3.65888e-08
-2.20012e-09
-3.81228e-08
-3.04881e-09
-3.87493e-08
-3.55825e-09
-3.73391e-08
-6.0497e-09
-3.24942e-08
-1.19855e-08
-2.50245e-08
-1.88972e-08
-1.7133e-08
-2.37051e-08
-1.01574e-08
-2.59067e-08
-4.50122e-09
-2.58362e-08
-8.56727e-10
-2.19948e-08
2.29478e-10
-1.29133e-08
-1.23808e-09
1.23917e-09
-4.72385e-09
1.6522e-08
-8.64777e-09
2.55649e-08
-1.17752e-08
2.87684e-08
-1.28587e-08
2.64754e-08
-1.17209e-08
1.938e-08
-1.04312e-08
1.5e-08
-8.6517e-09
9.81086e-09
2.08995e-09
7.6294e-08
7.78788e-09
7.19092e-08
1.07982e-08
5.22637e-08
1.96724e-08
5.54049e-08
1.50696e-08
7.33827e-08
1.75278e-08
2.57966e-07
-7.97644e-08
-2.68738e-07
-7.87999e-08
2.3591e-07
1.18444e-07
2.20508e-08
1.17194e-07
-4.63659e-08
1.98091e-08
-6.89933e-08
2.32849e-08
-6.44664e-08
-7.22371e-08
2.53117e-07
-3.9916e-07
-1.65084e-08
3.82009e-07
-6.52517e-08
8.72276e-08
-3.69188e-08
4.63409e-08
-2.54779e-08
-2.59423e-08
-9.97253e-09
4.37184e-09
2.87605e-08
-3.25482e-08
2.08314e-07
-8.30314e-08
-3.29788e-07
-9.81618e-08
2.08632e-07
1.0082e-07
3.56064e-08
1.07293e-07
1.64442e-08
1.1832e-08
1.43224e-08
1.54614e-08
-1.72644e-09
1.97143e-08
-1.07462e-08
1.61639e-08
-3.05893e-08
3.78773e-08
-1.55092e-08
1.115e-08
-3.0226e-08
4.42494e-08
-1.80105e-08
1.90534e-08
-1.28519e-08
4.21846e-08
-9.0442e-09
2.65176e-08
-3.88798e-09
3.29883e-08
1.8903e-09
1.96479e-08
5.49844e-09
2.48978e-08
9.1178e-09
1.86554e-08
1.08527e-08
1.54452e-08
9.49895e-09
1.01808e-08
6.8355e-09
2.93335e-09
3.7175e-09
-2.36244e-09
7.02857e-11
-6.88492e-09
-2.50527e-09
-9.23894e-09
-4.45342e-09
-1.10397e-08
-5.42862e-09
-1.09692e-08
-5.93468e-09
-9.99478e-09
-6.35662e-09
-8.76456e-09
-7.35032e-09
-7.53315e-09
-9.18734e-09
-5.77477e-09
-1.20113e-08
-2.19909e-09
-1.59878e-08
3.17467e-09
-2.11061e-08
9.31213e-09
-2.74951e-08
1.26144e-08
-3.42868e-08
1.16212e-08
-4.0771e-08
7.26837e-09
-4.56248e-08
2.65366e-09
-4.84578e-08
-2.15776e-10
-4.90973e-08
-2.91867e-09
-4.67625e-08
-8.38451e-09
-4.10817e-08
-1.76662e-08
-3.50878e-08
-2.48912e-08
-3.08423e-08
-2.79506e-08
-2.82744e-08
-2.84746e-08
-2.83692e-08
-2.57415e-08
-3.17626e-08
-1.86015e-08
-3.60891e-08
-8.5869e-09
-3.8079e-08
3.22893e-09
-3.65067e-08
1.49497e-08
-3.25878e-08
2.16459e-08
-2.69353e-08
2.31158e-08
-2.04464e-08
1.99865e-08
-1.58436e-08
1.47769e-08
-1.3054e-08
1.221e-08
-1.05236e-08
7.27999e-09
8.26552e-10
8.39733e-08
1.35956e-08
7.91233e-08
1.56487e-08
5.43081e-08
4.48411e-08
3.7593e-08
3.18441e-08
2.44818e-08
2.9943e-08
-4.31404e-08
-1.23918e-08
-1.88003e-07
6.56184e-08
-5.83979e-08
-1.05596e-08
-2.61753e-08
8.43772e-08
-8.82821e-08
8.12448e-08
-1.02201e-07
3.72039e-08
-3.02419e-07
1.2798e-07
1.04421e-06
3.82546e-07
-3.07453e-07
-3.86818e-07
-1.13827e-07
-1.08394e-07
-4.71411e-08
-1.9672e-08
-5.86666e-08
-1.51701e-08
-4.00376e-08
-1.40671e-08
-2.73659e-08
-4.52199e-08
-4.9626e-08
-6.04921e-08
-1.71826e-07
2.50399e-08
-4.03991e-08
-3.09223e-08
1.68627e-08
4.93553e-08
1.40646e-08
1.44881e-08
1.80422e-08
1.14839e-08
2.17313e-08
1.62074e-08
2.25776e-08
1.55394e-08
1.31854e-08
4.65427e-08
3.90822e-09
2.02188e-08
5.11461e-09
4.34024e-08
1.25305e-09
2.28638e-08
6.3849e-09
3.70528e-08
7.93695e-09
2.49655e-08
9.00955e-09
3.19157e-08
8.37303e-09
2.02843e-08
1.05524e-08
2.27184e-08
1.26267e-08
1.65812e-08
1.49411e-08
1.31308e-08
1.65143e-08
8.60762e-09
1.6955e-08
2.49263e-09
1.72497e-08
-2.65713e-09
1.59525e-08
-5.58773e-09
1.4186e-08
-7.47241e-09
1.19465e-08
-8.80023e-09
9.90631e-09
-8.92902e-09
8.19486e-09
-8.2833e-09
6.45415e-09
-7.02383e-09
4.02045e-09
-5.09943e-09
5.19869e-10
-2.27416e-09
-3.94957e-09
2.27038e-09
-8.94137e-09
8.1665e-09
-1.40734e-08
1.44442e-08
-2.00068e-08
1.85479e-08
-2.69775e-08
1.85919e-08
-3.45466e-08
1.48375e-08
-4.11915e-08
9.29859e-09
-4.53888e-08
3.98151e-09
-4.62429e-08
-2.06448e-09
-4.37779e-08
-1.08495e-08
-3.93389e-08
-2.21053e-08
-3.59543e-08
-2.82758e-08
-3.39608e-08
-2.99442e-08
-3.32994e-08
-2.91359e-08
-3.58063e-08
-2.32347e-08
-4.0676e-08
-1.37318e-08
-4.45993e-08
-4.66374e-09
-4.47489e-08
3.37849e-09
-4.08143e-08
1.1015e-08
-3.47072e-08
1.55387e-08
-2.73565e-08
1.5765e-08
-2.08336e-08
1.34635e-08
-1.67846e-08
1.07277e-08
-1.37436e-08
9.16857e-09
-1.17535e-08
5.28948e-09
1.63087e-10
5.21622e-08
1.412e-08
6.43878e-08
3.45868e-09
4.53302e-08
6.34364e-08
3.86616e-08
3.78008e-08
1.13578e-08
5.7335e-08
-3.41946e-08
3.29277e-08
-3.24683e-08
6.32403e-08
-7.10672e-08
2.84783e-08
-3.09129e-08
4.50837e-08
-1.71212e-08
6.6772e-08
-1.99155e-08
4.04104e-08
1.19293e-08
9.61356e-08
2.9782e-07
9.66552e-08
4.62428e-10
-9.34064e-08
-5.07397e-08
-5.60861e-08
-3.98085e-08
-3.04928e-08
-3.32899e-08
-2.15339e-08
-2.7827e-08
-1.953e-08
-4.41619e-08
-2.84236e-08
-8.13413e-08
-2.33128e-08
-5.92738e-08
2.36783e-09
-7.25286e-08
-1.70962e-08
-2.62632e-08
3.8224e-09
-2.41716e-08
1.2652e-08
-8.87989e-09
-3.69184e-09
-1.63127e-08
2.39594e-08
-1.25398e-09
4.88467e-10
1.15643e-09
4.41206e-08
4.44681e-09
1.65686e-08
1.00465e-08
3.73643e-08
1.35747e-08
1.92352e-08
1.8379e-08
3.22484e-08
2.21435e-08
2.12011e-08
2.33352e-08
3.07239e-08
2.28678e-08
2.07517e-08
2.36991e-08
2.18871e-08
2.36064e-08
1.66738e-08
2.40124e-08
1.27247e-08
2.36535e-08
8.96649e-09
2.2819e-08
3.32719e-09
2.12662e-08
-1.10439e-09
1.93683e-08
-3.68982e-09
1.72661e-08
-5.37023e-09
1.50976e-08
-6.63165e-09
1.29284e-08
-6.75986e-09
1.0996e-08
-6.35094e-09
9.12619e-09
-5.15395e-09
6.94597e-09
-2.91918e-09
3.9888e-09
6.83033e-10
3.53068e-10
5.90614e-09
-3.20771e-09
1.17273e-08
-6.24265e-09
1.74791e-08
-9.12412e-09
2.14294e-08
-1.27544e-08
2.22222e-08
-1.78488e-08
1.99319e-08
-2.32962e-08
1.4746e-08
-2.75776e-08
8.26293e-09
-3.00897e-08
4.47689e-10
-3.07104e-08
-1.02289e-08
-3.02562e-08
-2.25594e-08
-2.97304e-08
-2.88016e-08
-2.95903e-08
-3.00843e-08
-3.0894e-08
-2.78322e-08
-3.42893e-08
-1.98394e-08
-3.79757e-08
-1.00454e-08
-3.98711e-08
-2.76847e-09
-3.88936e-08
2.40091e-09
-3.4973e-08
7.09433e-09
-2.94037e-08
9.96943e-09
-2.39084e-08
1.02695e-08
-1.95726e-08
9.12767e-09
-1.64134e-08
7.56817e-09
-1.38958e-08
6.65049e-09
-1.2547e-08
3.94026e-09
-8.9722e-11
-1.37564e-07
2.57981e-08
-1.30998e-07
-3.13935e-09
-1.02508e-07
3.59167e-08
-8.53898e-08
2.12858e-08
-7.32375e-08
4.53055e-08
-7.41632e-08
3.461e-08
-5.02309e-08
3.86694e-08
-5.97948e-08
3.75298e-08
-3.8515e-08
2.41969e-08
-2.15787e-08
4.96178e-08
-1.08583e-08
2.94676e-08
3.34289e-08
5.19592e-08
9.46179e-08
3.54662e-08
2.65984e-08
-2.51305e-08
1.08071e-08
-4.04051e-08
5.70839e-09
-2.5394e-08
-9.52596e-10
-1.48146e-08
-8.97191e-09
-1.13944e-08
-2.75869e-08
-9.80861e-09
-4.97866e-08
-1.11312e-09
-4.73491e-08
-5.52687e-10
-7.76791e-08
1.341e-08
-6.32363e-08
-1.04341e-08
-8.91298e-08
3.85455e-08
-7.58819e-08
-1.68422e-08
-8.48387e-08
3.37906e-08
-6.9743e-08
-1.37505e-08
-5.04057e-08
2.50362e-08
-2.26409e-08
-1.06922e-08
-1.07352e-08
2.50851e-08
-1.293e-09
9.79294e-09
3.25396e-09
2.77014e-08
4.73489e-09
1.97201e-08
4.11719e-09
3.13416e-08
3.78025e-09
2.10886e-08
4.93809e-09
2.07293e-08
5.78309e-09
1.58288e-08
5.71459e-09
1.27932e-08
4.94655e-09
9.73452e-09
3.25347e-09
5.02026e-09
1.0792e-09
1.06987e-09
-7.76929e-10
-1.8337e-09
-2.27944e-09
-3.86772e-09
-3.89443e-09
-5.01665e-09
-5.3913e-09
-5.26298e-09
-6.3994e-09
-5.34283e-09
-6.71464e-09
-4.83869e-09
-6.63419e-09
-2.99961e-09
-6.57108e-09
6.19953e-10
-6.4409e-09
5.77599e-09
-6.31363e-09
1.16001e-08
-5.93545e-09
1.7101e-08
-5.0004e-09
2.04944e-08
-4.07262e-09
2.12945e-08
-4.23679e-09
2.00961e-08
-5.87792e-09
1.63871e-08
-8.59231e-09
1.09773e-08
-1.19626e-08
3.81803e-09
-1.61608e-08
-6.03077e-09
-2.04046e-08
-1.83155e-08
-2.29437e-08
-2.62624e-08
-2.48518e-08
-2.81762e-08
-2.70139e-08
-2.56702e-08
-2.93973e-08
-1.7456e-08
-3.13377e-08
-8.10499e-09
-3.18307e-08
-2.27554e-09
-3.06226e-08
1.19264e-09
-2.77965e-08
4.26821e-09
-2.43315e-08
6.50436e-09
-2.10453e-08
6.98324e-09
-1.82276e-08
6.30979e-09
-1.60293e-08
5.36964e-09
-1.41269e-08
4.74764e-09
-1.31174e-08
2.93035e-09
-1.57542e-10
-1.51984e-07
1.96431e-08
-1.76716e-07
2.5013e-08
-1.34477e-07
-5.89516e-09
-1.41131e-07
2.77227e-08
-9.9742e-08
5.34168e-09
-8.98851e-08
2.37355e-08
-6.19205e-08
1.10994e-08
-5.37023e-08
2.93117e-08
-3.61649e-08
6.65955e-09
-1.51654e-08
2.91245e-08
-2.00315e-08
3.40331e-08
7.59427e-09
2.43335e-08
3.60298e-08
6.66309e-09
8.99657e-09
1.90277e-09
4.34404e-09
-3.53006e-08
-7.35606e-09
-1.3953e-08
-2.47112e-09
-1.96743e-08
-8.05391e-10
-1.29296e-08
-1.64383e-08
5.81607e-09
-9.16427e-09
-8.30242e-09
-9.13059e-09
-5.80436e-10
-5.97335e-09
1.0116e-08
-2.28364e-08
6.42897e-09
-1.98258e-08
3.47868e-08
-4.45734e-08
7.98691e-09
-3.75292e-08
2.64017e-08
-5.49538e-08
3.57021e-09
-3.57618e-08
6.14627e-09
-3.4778e-08
-1.15494e-08
-1.82962e-08
8.6901e-09
-2.25145e-08
1.40113e-08
-2.11757e-08
2.63625e-08
-2.06981e-08
1.92426e-08
-2.02591e-08
3.09025e-08
-2.02234e-08
2.10529e-08
-2.18927e-08
2.23985e-08
-2.15068e-08
1.5443e-08
-2.16961e-08
1.29824e-08
-2.12563e-08
9.29473e-09
-2.16292e-08
5.39316e-09
-2.2311e-08
1.75162e-09
-2.28725e-08
-1.27221e-09
-2.34991e-08
-3.24105e-09
-2.41354e-08
-4.38042e-09
-2.48683e-08
-4.52999e-09
-2.55316e-08
-4.67954e-09
-2.59635e-08
-4.40673e-09
-2.59201e-08
-3.04299e-09
-2.48549e-08
-4.45226e-10
-2.20369e-08
2.95797e-09
-1.74662e-08
7.02935e-09
-1.18829e-08
1.15177e-08
-6.3911e-09
1.50026e-08
-1.71696e-09
1.66204e-08
1.90971e-09
1.64695e-08
3.80045e-09
1.44964e-08
3.44943e-09
1.13284e-08
6.06903e-10
6.66056e-09
-4.78013e-09
-6.43725e-10
-1.19303e-08
-1.11654e-08
-1.73826e-08
-2.08102e-08
-2.07196e-08
-2.48392e-08
-2.29885e-08
-2.34013e-08
-2.45948e-08
-1.58498e-08
-2.57207e-08
-6.97905e-09
-2.57405e-08
-2.25586e-09
-2.4831e-08
2.83058e-10
-2.3246e-08
2.68318e-09
-2.12465e-08
4.50477e-09
-1.91943e-08
4.9309e-09
-1.72531e-08
4.3685e-09
-1.57226e-08
3.83887e-09
-1.43469e-08
3.37145e-09
-1.35386e-08
2.12165e-09
-1.61329e-10
-1.25624e-07
3.51698e-08
-1.08242e-07
7.30175e-09
-8.68567e-08
-2.64543e-08
-6.875e-08
9.24278e-09
-6.19488e-08
-2.10632e-09
-5.78901e-08
1.94782e-08
-5.75229e-08
1.08428e-08
-4.74462e-08
1.9235e-08
-6.30888e-08
2.23022e-08
-3.856e-08
4.59579e-09
-3.33259e-08
2.90958e-08
-1.75992e-08
8.60686e-09
7.81555e-09
-1.87517e-08
7.86437e-09
1.77504e-09
1.86188e-08
-4.6055e-08
6.55325e-09
-1.69746e-09
1.10639e-09
-1.42387e-08
4.91792e-09
-1.6703e-08
9.81141e-09
8.72676e-10
3.06275e-08
-2.91336e-08
3.52544e-08
-4.94797e-09
5.30018e-08
-7.27178e-09
4.56755e-08
1.31551e-08
4.70088e-08
3.35889e-08
2.58248e-08
2.96554e-08
2.70355e-08
2.49488e-08
1.28906e-08
1.75823e-08
1.30344e-08
5.94388e-09
-3.20223e-09
4.65455e-09
-6.54835e-10
6.33533e-09
-4.38416e-09
1.81092e-08
-6.97991e-09
2.89583e-08
-1.14751e-08
2.37378e-08
-1.11247e-08
3.05521e-08
-1.24516e-08
2.23798e-08
-1.17385e-08
2.16853e-08
-1.1861e-08
1.55655e-08
-1.13698e-08
1.24913e-08
-1.09344e-08
8.8593e-09
-1.13385e-08
5.79721e-09
-1.27748e-08
3.18795e-09
-1.48061e-08
7.59019e-10
-1.70726e-08
-9.74531e-10
-1.93761e-08
-2.07693e-09
-2.17095e-08
-2.19649e-09
-2.42204e-08
-2.16864e-09
-2.70866e-08
-1.5405e-09
-2.97374e-08
-3.92198e-10
-3.0872e-08
6.89369e-10
-2.95659e-08
1.65194e-09
-2.54464e-08
2.90987e-09
-1.86719e-08
4.74321e-09
-1.03394e-08
6.67007e-09
-1.87007e-09
8.15108e-09
5.4828e-09
9.11663e-09
1.05868e-08
9.39237e-09
1.25705e-08
9.34473e-09
1.12024e-08
8.0287e-09
6.55023e-09
4.00842e-09
-8.02471e-10
-3.81269e-09
-8.11832e-09
-1.34943e-08
-1.32588e-08
-1.96988e-08
-1.69674e-08
-1.96926e-08
-1.98018e-08
-1.30155e-08
-2.13715e-08
-5.40941e-09
-2.1848e-08
-1.77944e-09
-2.16214e-08
5.64021e-11
-2.06949e-08
1.75657e-09
-1.93694e-08
3.17913e-09
-1.79167e-08
3.47812e-09
-1.65727e-08
3.02441e-09
-1.54752e-08
2.74112e-09
-1.44907e-08
2.38642e-09
-1.38827e-08
1.51331e-09
-1.46093e-10
-8.07595e-08
6.93941e-08
-3.43574e-08
-3.87092e-08
-5.75468e-08
-3.02805e-09
-4.14462e-08
-6.83337e-09
-5.35186e-08
9.98741e-09
-3.4919e-08
5.26079e-10
-3.70677e-08
1.25027e-08
-2.91094e-08
1.16549e-08
-3.97424e-08
3.26027e-08
-4.37581e-08
8.16506e-09
-3.14625e-08
1.66289e-08
-2.40448e-08
1.52574e-09
-3.22113e-08
-1.03622e-08
-1.51081e-08
-1.54845e-08
-3.09833e-08
-3.11213e-08
-8.2022e-09
-2.42314e-08
-1.29073e-08
-9.40197e-09
-1.7809e-08
-1.19699e-08
-9.33637e-09
-7.68636e-09
-1.7155e-09
-3.66954e-08
2.06207e-08
-2.73529e-08
5.62012e-08
-4.31953e-08
3.7753e-08
3.1222e-08
4.22232e-08
2.95409e-08
4.14926e-08
3.0091e-08
5.49723e-08
1.13544e-08
6.0841e-08
1.15926e-08
6.35224e-08
2.68102e-09
5.15206e-08
1.77711e-08
4.20778e-08
1.67429e-08
2.69508e-08
3.27113e-08
2.06667e-08
3.50539e-08
2.55534e-09
4.18492e-08
3.49509e-09
2.96123e-08
-6.36912e-09
3.2244e-08
-8.05547e-09
2.33716e-08
-1.30969e-08
2.06069e-08
-1.40534e-08
1.34477e-08
-1.47669e-08
9.57282e-09
-1.56968e-08
6.7271e-09
-1.73995e-08
4.89066e-09
-1.94292e-08
2.78869e-09
-2.14186e-08
1.01491e-09
-2.33251e-08
-1.70415e-10
-2.50803e-08
-4.41317e-10
-2.70771e-08
-1.71841e-10
-2.93069e-08
6.8936e-10
-3.08898e-08
1.19075e-09
-3.11756e-08
9.75175e-10
-2.95239e-08
2.58542e-13
-2.52076e-08
-1.40646e-09
-1.78876e-08
-2.57677e-09
-8.36643e-09
-2.85108e-09
1.9028e-09
-2.11813e-09
1.1454e-08
-4.34544e-10
1.87672e-08
2.07921e-09
2.27463e-08
5.36556e-09
2.32646e-08
7.5105e-09
2.06739e-08
6.59904e-09
1.49877e-08
1.87354e-09
7.00003e-09
-5.50661e-09
-1.58474e-09
-1.1114e-08
-9.48212e-09
-1.17952e-08
-1.5228e-08
-7.26957e-09
-1.80162e-08
-2.62126e-09
-1.9216e-08
-5.79698e-10
-1.95341e-08
3.74382e-10
-1.90729e-08
1.29531e-09
-1.8073e-08
2.17916e-09
-1.70145e-08
2.41952e-09
-1.61622e-08
2.17203e-09
-1.52914e-08
1.86998e-09
-1.45774e-08
1.67195e-09
-1.41331e-08
1.06864e-09
-1.24596e-10
-6.29206e-08
1.47767e-08
-6.11325e-08
-4.08878e-08
-7.16471e-08
6.13216e-09
-4.75697e-08
-3.04908e-08
-4.54207e-08
8.31892e-09
5.58703e-10
-4.54533e-08
-1.29581e-08
2.58933e-08
3.51896e-09
-4.99017e-09
1.66329e-08
1.94887e-08
1.29066e-08
1.19295e-08
1.80519e-08
1.14979e-08
1.07618e-08
9.01986e-09
-2.67621e-08
2.70537e-08
-3.75913e-08
-4.92655e-09
-8.06511e-08
1.31573e-08
-5.78858e-08
-4.66533e-08
-7.20475e-08
4.16918e-09
-3.8033e-08
-4.61065e-08
-3.44e-08
-1.09685e-08
-1.84044e-08
-5.2531e-08
1.94321e-08
-6.46369e-08
9.89093e-08
-1.22672e-07
4.45763e-08
8.64278e-08
1.94373e-08
5.49782e-08
2.1131e-08
2.838e-08
1.81406e-08
1.44964e-08
2.33633e-08
6.48996e-09
2.89374e-08
-3.13607e-09
4.57694e-08
1.12034e-09
6.51224e-08
-2.75284e-09
4.14096e-08
5.60904e-08
1.67934e-08
5.92519e-08
-2.0637e-09
6.05384e-08
-1.08574e-08
3.8406e-08
-1.7097e-08
3.84836e-08
-2.09271e-08
2.72017e-08
-2.37453e-08
2.34251e-08
-2.43448e-08
1.40472e-08
-2.36737e-08
8.9017e-09
-2.39211e-08
6.97454e-09
-2.60814e-08
7.05098e-09
-2.89103e-08
5.61758e-09
-3.12424e-08
3.347e-09
-3.31166e-08
1.70383e-09
-3.4455e-08
8.97073e-10
-3.53091e-08
6.82196e-10
-3.54657e-08
8.46052e-10
-3.4703e-08
4.28004e-10
-3.25117e-08
-1.21607e-09
-2.83117e-08
-4.19974e-09
-2.17501e-08
-7.96805e-09
-1.29349e-08
-1.13919e-08
-2.83031e-09
-1.29557e-08
7.47863e-09
-1.24271e-08
1.67924e-08
-9.74828e-09
2.39747e-08
-5.10311e-09
2.79287e-08
1.41159e-09
2.83248e-08
7.11434e-09
2.60233e-08
8.90056e-09
2.12547e-08
6.64214e-09
1.36629e-08
2.08518e-09
3.75535e-09
-1.20647e-09
-6.60358e-09
-1.43633e-09
-1.38056e-08
-6.75582e-11
-1.70218e-08
5.94874e-10
-1.82372e-08
6.35596e-10
-1.85584e-08
6.95521e-10
-1.81864e-08
9.23242e-10
-1.72995e-08
1.29219e-09
-1.6374e-08
1.49396e-09
-1.56987e-08
1.49657e-09
-1.51277e-08
1.29875e-09
-1.46241e-08
1.16788e-09
-1.43065e-08
7.50637e-10
-9.94291e-11
-4.55058e-08
-4.21313e-08
-6.38266e-08
-2.36898e-08
-2.64203e-08
-3.0958e-08
-2.60071e-08
-3.09082e-08
-1.21599e-08
-5.31927e-09
3.53316e-10
-5.85578e-08
-4.47018e-11
2.68329e-08
5.90193e-09
-1.09368e-08
1.91156e-08
6.47387e-09
2.05276e-08
1.05175e-08
2.4887e-08
6.93125e-09
3.16576e-08
2.47788e-09
6.07732e-09
5.26815e-08
9.27919e-09
-8.14014e-09
-3.86179e-08
6.05263e-08
-3.90557e-08
-4.66964e-08
-5.40094e-08
1.95213e-08
-7.08345e-08
-2.95831e-08
-5.82467e-08
-2.27302e-08
-6.23714e-08
-4.87998e-08
-5.79558e-09
-1.21843e-07
2.84951e-07
-4.14729e-07
4.78013e-09
3.62896e-07
-1.17759e-08
7.20951e-08
-7.86018e-09
2.45445e-08
4.91519e-09
1.81775e-09
7.18749e-10
1.0571e-08
1.31381e-08
-1.5548e-08
4.63114e-08
-3.26595e-08
1.115e-07
-6.79413e-08
4.11915e-08
1.28426e-07
-2.37495e-09
1.01814e-07
-1.46465e-08
7.28099e-08
-2.51231e-08
4.88826e-08
-3.00509e-08
4.34113e-08
-3.39585e-08
3.11094e-08
-3.40966e-08
2.35631e-08
-3.59993e-08
1.59498e-08
-3.83648e-08
1.12672e-08
-4.06002e-08
9.2099e-09
-4.2815e-08
9.26579e-09
-4.42009e-08
7.00353e-09
-4.51295e-08
4.27561e-09
-4.51492e-08
1.72348e-09
-4.41627e-08
-8.93629e-11
-4.23951e-08
-1.08546e-09
-3.97322e-08
-1.81677e-09
-3.63101e-08
-2.99407e-09
-3.13719e-08
-6.15432e-09
-2.48097e-08
-1.07619e-08
-1.72819e-08
-1.54958e-08
-9.44058e-09
-1.92332e-08
-9.92589e-10
-2.14037e-08
7.66515e-09
-2.10848e-08
1.57078e-08
-1.7791e-08
2.19923e-08
-1.13875e-08
2.5358e-08
-1.95411e-09
2.51074e-08
7.36486e-09
2.19459e-08
1.20621e-08
1.6376e-08
1.2212e-08
8.24626e-09
1.0215e-08
-1.39205e-09
8.43184e-09
-9.71169e-09
6.88328e-09
-1.46726e-08
4.89332e-09
-1.68794e-08
2.80161e-09
-1.77148e-08
1.47093e-09
-1.77964e-08
7.77136e-10
-1.73821e-08
5.08834e-10
-1.66695e-08
5.79491e-10
-1.5987e-08
8.11362e-10
-1.54534e-08
9.62861e-10
-1.50303e-08
8.75409e-10
-1.46543e-08
7.91386e-10
-1.44266e-08
5.22538e-10
-7.31042e-11
6.94536e-08
-2.89622e-08
4.26039e-08
2.00521e-09
2.94862e-08
-1.79726e-08
6.01328e-09
-7.1312e-09
3.54436e-09
-2.90508e-09
-6.06012e-08
4.40503e-09
-4.44652e-08
1.14395e-08
-5.64767e-08
1.5284e-09
-3.25527e-08
-1.74501e-08
-2.21256e-08
3.16052e-10
-1.74467e-08
2.25243e-09
-1.54187e-08
2.94114e-10
-4.43982e-09
4.11652e-08
-1.66143e-09
-1.09185e-08
9.72251e-09
4.91423e-08
-3.40903e-08
-2.40722e-09
-3.2714e-08
1.78113e-08
-5.2679e-08
-9.07514e-09
-8.60752e-08
1.03288e-08
-1.57678e-07
2.11944e-08
-3.16551e-07
3.7396e-08
1.02631e-06
3.74748e-07
-2.95188e-07
-4.28661e-07
-8.36253e-08
-1.42479e-07
-3.37225e-08
-2.53583e-08
-1.10865e-08
-2.06866e-08
-1.5503e-08
1.50942e-08
-2.83085e-08
-2.77032e-09
-2.13076e-09
-5.88372e-08
2.85034e-07
-3.56528e-07
-2.07671e-08
4.30009e-07
-4.235e-08
1.23812e-07
-3.54701e-08
6.593e-08
-2.10271e-08
3.44395e-08
-1.08802e-08
3.32644e-08
-6.39731e-09
2.66265e-08
-8.43994e-09
2.56058e-08
-1.64344e-08
2.39442e-08
-2.87671e-08
2.35999e-08
-3.77275e-08
1.81703e-08
-4.07171e-08
1.22553e-08
-4.1075e-08
7.36149e-09
-4.06309e-08
3.83147e-09
-3.94489e-08
5.41471e-10
-3.7778e-08
-1.76021e-09
-3.54383e-08
-3.4252e-09
-3.20599e-08
-5.19513e-09
-2.78902e-08
-7.16374e-09
-2.31957e-08
-1.08488e-08
-1.85199e-08
-1.54377e-08
-1.46926e-08
-1.93231e-08
-1.14e-08
-2.25258e-08
-7.64277e-09
-2.51609e-08
-3.33829e-09
-2.53893e-08
1.63802e-09
-2.27673e-08
6.28182e-09
-1.60313e-08
9.63307e-09
-5.30537e-09
1.00325e-08
6.96542e-09
6.94778e-09
1.51468e-08
1.18772e-09
1.79721e-08
-6.0771e-09
1.74798e-08
-1.24165e-08
1.47712e-08
-1.57877e-08
1.02545e-08
-1.65965e-08
5.70206e-09
-1.68224e-08
3.02748e-09
-1.70446e-08
1.69314e-09
-1.7003e-08
7.35395e-10
-1.6666e-08
1.71803e-10
-1.61837e-08
9.71437e-11
-1.56934e-08
3.20966e-10
-1.52614e-08
5.30765e-10
-1.49503e-08
5.63971e-10
-1.46778e-08
5.18496e-10
-1.45131e-08
3.57328e-10
-4.83943e-11
-2.62934e-08
-9.6379e-09
-2.0984e-08
-3.59257e-09
-3.24528e-08
-6.68696e-09
-5.75481e-08
1.76298e-08
-6.13203e-08
2.35133e-10
-1.00453e-07
4.30895e-08
-6.93225e-08
-1.8774e-08
-7.40902e-08
7.00334e-09
-8.11201e-08
-1.05276e-08
-5.88335e-08
-2.21969e-08
-5.11244e-08
-4.91219e-09
-4.78652e-08
-2.96506e-09
-3.66858e-08
2.94976e-08
-3.80596e-08
-9.5447e-09
-3.52551e-08
4.58698e-08
-3.30053e-08
-4.65696e-09
-1.8991e-08
3.79698e-09
-3.69582e-08
8.9846e-09
-5.19965e-08
2.60029e-08
-1.02958e-07
7.19415e-08
-3.07069e-08
-3.62184e-08
2.46025e-07
9.45068e-08
1.83376e-08
-2.07788e-07
-1.1735e-08
-1.12219e-07
-3.71526e-08
5.99253e-11
-3.80879e-08
-1.97512e-08
-8.1345e-08
5.82699e-08
-1.44813e-07
6.06978e-08
-3.42822e-07
1.35766e-07
1.00971e-06
4.37062e-07
-3.45882e-07
-3.39405e-07
-1.49224e-07
-7.28454e-08
-7.86853e-08
-4.60852e-09
-5.07523e-08
6.50653e-09
-3.28751e-08
1.53873e-08
-2.34907e-08
1.7242e-08
-1.847e-08
2.05851e-08
-1.67417e-08
2.22159e-08
-1.66544e-08
2.35126e-08
-1.52855e-08
1.68014e-08
-1.06702e-08
7.64004e-09
-6.38596e-09
3.07729e-09
-4.26545e-09
1.71096e-09
-4.2096e-09
4.85623e-10
-5.37812e-09
-5.91675e-10
-7.05617e-09
-1.74714e-09
-8.62699e-09
-3.62431e-09
-9.77916e-09
-6.01157e-09
-1.11918e-08
-9.43612e-09
-1.32131e-08
-1.34164e-08
-1.57494e-08
-1.67868e-08
-1.83462e-08
-1.99291e-08
-1.98415e-08
-2.36656e-08
-2.02508e-08
-2.498e-08
-2.01156e-08
-2.29025e-08
-1.9409e-08
-1.67378e-08
-1.79132e-08
-6.80122e-09
-1.71338e-08
6.18598e-09
-1.77128e-08
1.57259e-08
-1.88698e-08
1.9129e-08
-2.03594e-08
1.89694e-08
-2.0647e-08
1.50588e-08
-1.93085e-08
8.91599e-09
-1.77544e-08
4.14789e-09
-1.69676e-08
2.24067e-09
-1.66097e-08
1.33516e-09
-1.6389e-08
5.14654e-10
-1.61188e-08
-9.84482e-11
-1.57797e-08
-2.42045e-10
-1.54068e-08
-5.19792e-11
-1.51119e-08
2.35703e-10
-1.48858e-08
3.37627e-10
-1.46886e-08
3.20837e-10
-1.45716e-08
2.39825e-10
-2.54976e-11
-2.74776e-08
-3.09657e-08
-2.60279e-08
-4.71351e-09
-4.38914e-08
1.0729e-08
-6.10339e-08
3.47724e-08
-7.38644e-08
1.35477e-08
-6.04727e-08
2.92582e-08
-7.67488e-08
-2.30629e-09
-7.24456e-08
1.96113e-09
-7.95199e-08
-4.31739e-09
-7.72435e-08
-2.39e-08
-7.7616e-08
-3.79039e-09
-7.58015e-08
-4.80981e-09
-5.74594e-08
1.11555e-08
-4.24701e-08
-2.41007e-08
-1.83585e-08
2.15407e-08
-2.64294e-08
3.22666e-09
-1.96961e-08
-2.93633e-09
-8.47663e-09
-2.21227e-09
-1.54453e-08
3.33115e-08
-7.2089e-08
1.29319e-07
-9.83034e-08
-9.09383e-09
7.01294e-08
-7.48804e-08
1.43661e-07
-2.85638e-07
3.67278e-08
-4.96234e-09
-1.42781e-08
5.10658e-08
-7.45793e-08
3.99349e-08
-7.80538e-08
6.11145e-08
-9.21406e-08
7.51351e-08
-6.94891e-08
1.12679e-07
2.24221e-07
1.34613e-07
-5.7715e-08
-5.7469e-08
-8.67311e-08
-4.38293e-08
-7.55145e-08
-1.58251e-08
-6.51305e-08
-3.87745e-09
-5.40925e-08
4.34919e-09
-4.43212e-08
7.47078e-09
-3.36268e-08
9.89066e-09
-2.377e-08
1.23591e-08
-1.393e-08
1.36726e-08
-5.02471e-09
7.89615e-09
2.26574e-09
3.49596e-10
7.32046e-09
-1.97744e-09
1.02694e-08
-1.23796e-09
1.07233e-08
3.17332e-11
9.22722e-09
9.04398e-10
6.22006e-09
1.26002e-09
2.10058e-09
4.95183e-10
-2.58283e-09
-1.32816e-09
-7.84967e-09
-4.16928e-09
-1.36053e-08
-7.66083e-09
-1.91796e-08
-1.12125e-08
-2.35053e-08
-1.56034e-08
-2.67787e-08
-2.03922e-08
-3.00974e-08
-2.16613e-08
-3.42721e-08
-1.87279e-08
-3.78976e-08
-1.31123e-08
-3.9058e-08
-5.64084e-09
-3.74182e-08
4.54609e-09
-3.47817e-08
1.30894e-08
-3.19168e-08
1.62642e-08
-2.83001e-08
1.53526e-08
-2.43343e-08
1.1093e-08
-2.08994e-08
5.48109e-09
-1.87134e-08
1.96179e-09
-1.73109e-08
8.38214e-10
-1.64791e-08
5.03242e-10
-1.60167e-08
5.22216e-11
-1.57498e-08
-3.65406e-10
-1.55245e-08
-4.6744e-10
-1.52503e-08
-3.26229e-10
-1.50229e-08
8.16148e-12
-1.48513e-08
1.65764e-10
-1.47086e-08
1.77597e-10
-1.46194e-08
1.50257e-10
-8.68282e-12
2.2352e-08
-4.89388e-08
4.19905e-08
-2.41082e-08
2.71858e-08
2.57e-08
1.38513e-08
4.76109e-08
8.74107e-09
1.8658e-08
2.00079e-09
3.57233e-08
1.73814e-09
-2.04361e-09
-1.17819e-08
1.55193e-08
-2.35905e-08
7.29257e-09
-4.94169e-08
1.90655e-09
-6.33541e-08
1.07672e-08
-7.21227e-08
4.65262e-09
-6.30336e-08
2.06632e-09
-8.39171e-08
-2.36104e-09
-4.66701e-08
-1.56467e-08
-3.92957e-08
-4.62386e-09
-2.55314e-08
-1.64402e-08
-9.45763e-09
-1.83816e-08
2.63234e-08
-2.56698e-09
1.66117e-07
-9.04833e-09
-5.34763e-07
-2.85589e-08
2.18012e-07
-1.07743e-07
3.55992e-07
-4.24322e-07
-1.77892e-08
3.68952e-07
-6.05661e-08
9.4467e-08
-7.64709e-08
5.66198e-08
-5.70269e-08
4.1213e-08
-5.23051e-08
6.96621e-08
-1.23974e-08
7.27711e-08
6.20979e-08
6.01175e-08
3.01387e-09
1.61507e-09
-2.78566e-08
-1.29588e-08
-3.50604e-08
-8.62139e-09
-3.63544e-08
-2.58343e-09
-3.38519e-08
1.84672e-09
-3.03698e-08
3.98868e-09
-2.48676e-08
4.38847e-09
-1.75016e-08
4.99305e-09
-8.67453e-09
4.84554e-09
-1.70839e-09
9.3002e-10
1.96781e-09
-3.32661e-09
4.18843e-09
-4.19805e-09
5.98894e-09
-3.03847e-09
6.14753e-09
-1.26856e-10
4.90124e-09
2.15069e-09
2.50802e-09
3.65324e-09
-1.08828e-09
4.09148e-09
-5.8657e-09
3.44926e-09
-1.15578e-08
1.52278e-09
-1.73536e-08
-1.86503e-09
-2.22363e-08
-6.32974e-09
-2.60379e-08
-1.18018e-08
-3.00742e-08
-1.63558e-08
-3.53806e-08
-1.63549e-08
-4.19693e-08
-1.21393e-08
-4.73424e-08
-7.73909e-09
-4.95164e-08
-3.46687e-09
-4.74094e-08
2.43903e-09
-4.24745e-08
8.1545e-09
-3.67165e-08
1.05062e-08
-3.06846e-08
9.32073e-09
-2.5326e-08
5.7344e-09