/*--------------------------------*- C++ -*----------------------------------*\
  =========                 |
  \\      /  F ield         | OpenFOAM: The Open Source CFD Toolbox
   \\    /   O peration     | Website:  https://openfoam.org
    \\  /    A nd           | Version:  12
     \\/     M anipulation  |
\*---------------------------------------------------------------------------*/
FoamFile
{
    format      ascii;
    class       volVectorField;
    location    "1";
    object      U.water;
}
// * * * * * * * * * * * * * * * * * * * * * * * * * * * * * * * * * * * * * //

dimensions      [0 1 -1 0 0 0 0];

internalField   nonuniform List<vector> 
3750
(
(-0.000121685 0.0128869 0)
(0.00105435 0.0120258 0)
(0.000193946 0.00956406 0)
(-0.00107734 0.0100128 0)
(-0.000249494 0.00977139 0)
(-0.000240146 0.00775757 0)
(-0.00182244 0.00915588 0)
(-0.000528664 0.00827604 0)
(0.000593449 0.00870729 0)
(-0.00106001 0.00964406 0)
(0.00145274 0.0118891 0)
(0.000364101 0.0144182 0)
(0.000607618 0.0161159 0)
(-0.000467851 0.0153489 0)
(-0.000443167 0.0151055 0)
(0.00057063 0.0146626 0)
(-0.000445399 0.0130134 0)
(0.000322797 0.0121515 0)
(0.000766906 0.0112783 0)
(0.00256557 0.0106139 0)
(-0.000724588 0.00978978 0)
(0.000577568 0.00830302 0)
(-0.00097304 0.00959232 0)
(-0.00169494 0.0108839 0)
(0.000384497 0.0104605 0)
(-0.000542397 0.0127696 0)
(0.00135714 0.0107528 0)
(1.15533e-05 0.00929766 0)
(0.00243299 0.0144939 0)
(-0.0034958 0.00621471 0)
(-0.000903534 0.0164452 0)
(0.00413321 0.00552951 0)
(0.00116897 0.0076448 0)
(0.00104221 0.00206416 0)
(0.00137189 0.000518929 0)
(0.000576694 -0.00373267 0)
(0.00049813 -0.00472058 0)
(0.000107494 -0.00652154 0)
(-0.00014166 -0.00706744 0)
(-0.000840523 -0.00699699 0)
(-0.000391 -0.00643096 0)
(-0.000451858 -0.00518909 0)
(-0.000329243 -0.00497679 0)
(-0.000608886 -0.00388315 0)
(-0.000730992 -0.00322445 0)
(-0.000710638 -0.00206782 0)
(-0.00053287 -0.00141068 0)
(-0.000475051 -0.000759754 0)
(-0.000451807 -0.000123676 0)
(-0.000413091 0.000362963 0)
(-0.000392714 0.000970659 0)
(-0.000332562 0.00129154 0)
(-0.000363287 0.00167644 0)
(-0.00034304 0.00193887 0)
(-0.000318936 0.00230481 0)
(-0.00026638 0.00268222 0)
(-0.000185675 0.0030528 0)
(-0.000135362 0.00337122 0)
(-0.0001059 0.00364497 0)
(-0.000137133 0.00392244 0)
(-0.000171838 0.00431774 0)
(-0.000204883 0.0048689 0)
(-0.000222488 0.00559744 0)
(-0.000211708 0.00641822 0)
(-0.000138564 0.00725318 0)
(4.46924e-05 0.00793848 0)
(0.000385688 0.00812167 0)
(0.000578345 0.00773947 0)
(0.000683338 0.00677059 0)
(0.000537303 0.00550964 0)
(0.000323595 0.00436089 0)
(0.000261367 0.00318525 0)
(0.00047268 0.00237736 0)
(0.000520428 0.00115388 0)
(0.000291432 0.000476014 0)
(0.00152659 0.0178873 0)
(0.000632882 0.0180725 0)
(0.00283528 0.0134651 0)
(0.000460074 0.0172514 0)
(0.00416838 0.00753651 0)
(0.00202416 0.0126324 0)
(0.0035266 0.0051085 0)
(-0.00309004 0.0063561 0)
(-0.00111872 0.0080773 0)
(-0.00366711 0.0122353 0)
(-0.00525606 0.0147228 0)
(-0.00390497 0.0185864 0)
(-0.00251219 0.0186965 0)
(0.00152345 0.0215276 0)
(0.000807584 0.0159704 0)
(0.00323435 0.0145675 0)
(0.000151854 0.0136227 0)
(0.00120475 0.0109957 0)
(3.94687e-05 0.0118527 0)
(0.00418492 0.00972639 0)
(0.00109254 0.00954078 0)
(0.000107269 0.0104825 0)
(-0.00256972 0.00928861 0)
(-0.00169343 0.0114238 0)
(0.000120167 0.0101463 0)
(-0.00057093 0.0116189 0)
(0.00158056 0.0110339 0)
(-0.00162941 0.0108768 0)
(0.000539781 0.0102764 0)
(-0.000654184 0.0106544 0)
(0.00177344 0.00903331 0)
(0.00616842 0.00395661 0)
(0.00192621 0.00631994 0)
(0.00626302 0.00258469 0)
(0.00450814 0.00267909 0)
(0.00414231 -0.00021923 0)
(0.00310089 -0.000158559 0)
(0.00211897 -0.00181532 0)
(0.000763381 -0.0024209 0)
(-0.00034582 -0.00278942 0)
(-0.000754261 -0.00266768 0)
(-0.0011665 -0.00233287 0)
(-0.000938143 -0.00178315 0)
(-0.00120139 -0.00116497 0)
(-0.00115588 -0.000877746 0)
(-0.0010688 -0.000571504 0)
(-0.000839275 -0.000430666 0)
(-0.000768112 -0.000189216 0)
(-0.000743605 2.46531e-06 0)
(-0.000675914 0.000132419 0)
(-0.000580474 0.000198592 0)
(-0.000360866 2.89725e-05 0)
(-0.000292858 -0.000276635 0)
(-0.000285273 -0.000677288 0)
(-0.000412163 -0.000850144 0)
(-0.000495998 -0.000837872 0)
(-0.000511822 -0.000731815 0)
(-0.000454699 -0.000611675 0)
(-0.000425798 -0.00046546 0)
(-0.000519351 -0.000221046 0)
(-0.000757482 0.000294673 0)
(-0.00107477 0.00110882 0)
(-0.00134972 0.00216397 0)
(-0.00149857 0.00332331 0)
(-0.00141938 0.00449366 0)
(-0.000960296 0.00544089 0)
(-9.20534e-05 0.00595637 0)
(0.000827072 0.00580247 0)
(0.00149973 0.00486666 0)
(0.00189845 0.00363506 0)
(0.00198208 0.00212962 0)
(0.00183959 0.000752626 0)
(0.0015896 0.000133548 0)
(0.00128125 -0.000459273 0)
(0.000412639 -0.00043142 0)
(0.000305242 0.0116344 0)
(0.00138925 0.0141166 0)
(0.000899324 0.0126817 0)
(0.0033787 0.0119259 0)
(0.00269967 0.012713 0)
(0.00457235 0.00823652 0)
(-0.00536771 0.00660007 0)
(0.00352357 0.00762867 0)
(-0.00502417 0.00450358 0)
(-0.00622396 0.012182 0)
(-0.00420437 0.00481869 0)
(-0.00767203 0.0104772 0)
(-0.00489301 0.0112058 0)
(0.00841536 0.0100258 0)
(0.00448625 0.00565479 0)
(0.00584874 0.00506419 0)
(-0.000595389 0.00339038 0)
(0.00239852 0.00455748 0)
(-0.000274295 0.00550035 0)
(0.00475383 -0.0031503 0)
(-0.00801571 -0.0037684 0)
(0.00730298 -0.00440196 0)
(-0.00210935 -0.0029608 0)
(-0.000546382 0.00381063 0)
(0.0012933 0.00152376 0)
(-0.00161375 0.0027607 0)
(-0.000210977 -0.000479611 0)
(0.000549312 -7.09525e-05 0)
(0.00250744 -0.00182667 0)
(0.00117646 -0.00420453 0)
(0.00463081 -0.00553501 0)
(0.00436219 -0.00366136 0)
(0.00317469 -0.00574963 0)
(0.00541787 -0.00334651 0)
(0.0029924 -0.00258297 0)
(0.00356735 -0.00139582 0)
(0.00257012 -0.000117921 0)
(0.00188253 -6.16962e-05 0)
(0.000763442 0.000124483 0)
(-0.000198687 -0.000103177 0)
(-0.000935316 -0.000488691 0)
(-0.00144605 -0.00075028 0)
(-0.00149327 -0.000958038 0)
(-0.00149255 -0.00088803 0)
(-0.00130131 -0.00101029 0)
(-0.00108003 -0.00102995 0)
(-0.000914051 -0.00104072 0)
(-0.000852185 -0.000983527 0)
(-0.000787806 -0.000941495 0)
(-0.000584505 -0.000976807 0)
(-0.000250814 -0.00121782 0)
(0.000176695 -0.00165473 0)
(0.000335256 -0.00223994 0)
(0.000204676 -0.00284925 0)
(-0.000176205 -0.00330491 0)
(-0.000374375 -0.00357114 0)
(-0.00039453 -0.00377891 0)
(-0.000388814 -0.00387083 0)
(-0.000513379 -0.00386546 0)
(-0.000931375 -0.0035696 0)
(-0.00155252 -0.00289374 0)
(-0.00211041 -0.00208141 0)
(-0.00245473 -0.00133214 0)
(-0.00255836 -0.000698738 0)
(-0.002286 -0.000203133 0)
(-0.00144382 2.26347e-05 0)
(3.76603e-05 6.32964e-06 0)
(0.00172221 -0.000231487 0)
(0.00275475 -0.000699323 0)
(0.0031401 -0.00101984 0)
(0.00300311 -0.00131018 0)
(0.00220353 -0.00130041 0)
(0.00163392 -0.00100524 0)
(0.00108107 -0.00107136 0)
(0.000305553 -0.000689183 0)
(8.04801e-06 0.00926193 0)
(3.90389e-05 0.00827255 0)
(-0.0013979 0.00544492 0)
(-0.000513424 0.00615106 0)
(0.000691149 0.00747181 0)
(0.00144642 -0.00794227 0)
(0.00113458 -0.000840933 0)
(0.00192289 0.00356268 0)
(0.00135556 -0.0109697 0)
(-0.00208183 -0.000791073 0)
(0.00212023 -0.00329332 0)
(-0.00669783 -0.00422353 0)
(-0.0238142 0.0153752 0)
(0.0258625 0.0105189 0)
(0.00658447 -0.00409078 0)
(0.00419943 -0.0046088 0)
(-0.00362675 -0.00104503 0)
(0.000486079 -0.000221106 0)
(0.000430891 0.00138647 0)
(0.000620014 -0.0121632 0)
(-0.000823158 -0.00602271 0)
(0.00117256 -6.61753e-05 0)
(0.00127485 -0.0131174 0)
(0.000262341 0.00255339 0)
(0.00193184 0.00354575 0)
(0.00246144 -0.000800478 0)
(0.00141357 0.00179432 0)
(0.00325028 -0.00521844 0)
(0.00181959 0.000801407 0)
(0.00411926 -0.00479784 0)
(0.0023553 -0.000725597 0)
(0.00487631 -0.0022401 0)
(0.00304667 -0.000358166 0)
(0.00249771 -0.00113275 0)
(0.00181201 0.000299692 0)
(0.00220032 0.000110166 0)
(0.00176133 0.000977537 0)
(0.00146657 0.00101484 0)
(0.0010196 0.00104368 0)
(0.000261104 0.000844716 0)
(-0.000159171 0.000547708 0)
(-0.000693913 0.000197939 0)
(-0.000906723 -0.000176027 0)
(-0.00112957 -0.000347697 0)
(-0.00111595 -0.000512392 0)
(-0.00101704 -0.000573626 0)
(-0.000910238 -0.000605467 0)
(-0.000838919 -0.000660531 0)
(-0.00071702 -0.000803898 0)
(-0.000411523 -0.00102972 0)
(8.81055e-05 -0.00137347 0)
(0.000672467 -0.00181969 0)
(0.00092637 -0.00240105 0)
(0.000776796 -0.0030863 0)
(0.000336857 -0.00377769 0)
(-5.95841e-05 -0.00438466 0)
(-0.000212384 -0.00476713 0)
(-0.000313173 -0.00494239 0)
(-0.000684343 -0.00488134 0)
(-0.00145929 -0.00443796 0)
(-0.00224848 -0.00376297 0)
(-0.0026662 -0.00323497 0)
(-0.00276339 -0.00291736 0)
(-0.00262884 -0.00275164 0)
(-0.00207136 -0.00295199 0)
(-0.00109418 -0.00344831 0)
(0.000231556 -0.0038306 0)
(0.0016522 -0.00374445 0)
(0.00244177 -0.00349384 0)
(0.0026974 -0.00299446 0)
(0.00236609 -0.00235242 0)
(0.00171228 -0.00180446 0)
(0.0013839 -0.00136396 0)
(0.000848808 -0.00126509 0)
(0.000124195 -0.000919909 0)
(0.0014841 0.00851263 0)
(0.00143316 0.00824439 0)
(0.00425097 0.00673736 0)
(0.00257808 0.00500905 0)
(0.00403984 0.0017124 0)
(-0.00409854 -0.00516924 0)
(0.00827908 -0.0103216 0)
(-0.00364326 -0.0121686 0)
(0.00509255 -0.00754229 0)
(0.00575961 -0.00766701 0)
(0.00167407 -0.00563377 0)
(0.00387605 -0.024771 0)
(-0.00163298 0.0435531 0)
(-0.000682178 0.0366721 0)
(-0.000296091 -0.0211988 0)
(-0.00156558 -0.00745084 0)
(-0.0014876 -0.00521501 0)
(-0.000406026 0.000640413 0)
(-0.00487722 -0.00584625 0)
(-0.00520688 -0.00563472 0)
(0.00709251 -0.0121005 0)
(-0.00640088 -0.00796052 0)
(0.00594332 -0.00704392 0)
(0.00116561 0.00270753 0)
(0.000778946 0.000755296 0)
(0.00158059 0.00273461 0)
(0.00184681 0.00164976 0)
(0.00351128 0.00260278 0)
(0.000322107 0.000213657 0)
(0.00491808 0.000611796 0)
(0.00111036 0.000218816 0)
(0.00416832 0.000477412 0)
(0.00212281 0.000580439 0)
(0.00361625 0.00104848 0)
(0.00220616 0.000815431 0)
(0.00258223 0.000809763 0)
(0.00193186 0.00123955 0)
(0.00154796 0.00138177 0)
(0.000953379 0.00156584 0)
(0.00031801 0.00174017 0)
(-0.000298492 0.00171348 0)
(-0.000651812 0.00171137 0)
(-0.000905833 0.00150592 0)
(-0.00104515 0.00133291 0)
(-0.00104745 0.00107475 0)
(-0.000964005 0.000905382 0)
(-0.000832198 0.000737365 0)
(-0.000663469 0.000556592 0)
(-0.000432535 0.000255772 0)
(-2.12386e-05 -0.000145821 0)
(0.000556997 -0.000633004 0)
(0.00119912 -0.00114582 0)
(0.00158517 -0.00167075 0)
(0.00152612 -0.0023258 0)
(0.00109781 -0.00308746 0)
(0.00058091 -0.00384038 0)
(0.000167897 -0.00440941 0)
(-0.000279667 -0.00468518 0)
(-0.00101283 -0.00459998 0)
(-0.00208911 -0.00413121 0)
(-0.00274928 -0.00371595 0)
(-0.00292768 -0.00345763 0)
(-0.00291546 -0.00332467 0)
(-0.00248919 -0.00335447 0)
(-0.0016151 -0.00381508 0)
(-0.000604793 -0.00433967 0)
(0.000398618 -0.00458431 0)
(0.00132337 -0.00433081 0)
(0.00186831 -0.00380784 0)
(0.00191499 -0.00311278 0)
(0.00161237 -0.002364 0)
(0.00125238 -0.00186366 0)
(0.00106305 -0.00145474 0)
(0.000608642 -0.00130917 0)
(3.68174e-05 -0.00110636 0)
(0.000690154 0.0033662 0)
(0.00216107 0.00704103 0)
(0.00630706 0.00424206 0)
(0.00384347 0.00542835 0)
(0.00304746 0.00105676 0)
(0.00180788 -0.00102133 0)
(0.00525764 -0.0015308 0)
(0.00496786 -0.00644739 0)
(0.00653092 -0.00529997 0)
(0.00608684 -0.0031322 0)
(0.00562438 -0.00103317 0)
(0.0106452 -0.000618189 0)
(0.0242778 0.0158756 0)
(-0.0250213 0.0160307 0)
(-0.00828093 -0.00201463 0)
(-0.00208731 -0.00251264 0)
(0.000110367 -0.00374301 0)
(-0.00211381 9.24091e-05 0)
(-0.00282266 -0.00652902 0)
(-0.00476512 -0.00377475 0)
(-0.00105747 -0.00934009 0)
(-0.000883036 -0.0045492 0)
(0.00238728 -0.00604334 0)
(-0.000307645 -0.00374042 0)
(0.00104919 8.95472e-05 0)
(0.00118084 -0.0022101 0)
(0.00130537 -0.000203396 0)
(0.00514502 -0.000393969 0)
(0.003533 0.000771336 0)
(0.00414845 2.87899e-05 0)
(0.0035771 0.00180945 0)
(0.00286115 0.00115297 0)
(0.00297264 0.00233185 0)
(0.00298478 0.002286 0)
(0.001914 0.00229341 0)
(0.00204153 0.00231837 0)
(0.00145931 0.00225905 0)
(0.00112253 0.0024884 0)
(0.000779125 0.00235662 0)
(0.000182712 0.00237532 0)
(-0.000254019 0.00219321 0)
(-0.000497332 0.00206064 0)
(-0.000629729 0.00182404 0)
(-0.000747727 0.00163072 0)
(-0.000767805 0.00139981 0)
(-0.000712903 0.00119146 0)
(-0.000586983 0.00100497 0)
(-0.000364547 0.000827111 0)
(-2.76963e-05 0.000565979 0)
(0.000467962 0.000229662 0)
(0.00105537 -0.00014905 0)
(0.00166288 -0.00048878 0)
(0.0020988 -0.000751213 0)
(0.00217597 -0.00106269 0)
(0.00185724 -0.00150017 0)
(0.00126662 -0.00207973 0)
(0.000616567 -0.00259894 0)
(-0.000142605 -0.00294468 0)
(-0.00117832 -0.00310163 0)
(-0.00236772 -0.0030308 0)
(-0.00292997 -0.00298396 0)
(-0.00306013 -0.00294348 0)
(-0.00288944 -0.00296083 0)
(-0.00213358 -0.003229 0)
(-0.00113099 -0.00365401 0)
(-0.000329135 -0.00397574 0)
(0.0002924 -0.00402889 0)
(0.000888794 -0.00375396 0)
(0.00122315 -0.00321224 0)
(0.00122754 -0.00264661 0)
(0.00108136 -0.00215194 0)
(0.000888949 -0.00180994 0)
(0.000772978 -0.00145493 0)
(0.000450847 -0.00134226 0)
(-3.67768e-06 -0.0012277 0)
(0.00317601 -0.0156483 0)
(-0.00172097 -0.0108395 0)
(0.00484999 -0.0116901 0)
(0.00186875 -0.0112178 0)
(0.00633117 -0.00544436 0)
(0.0034525 -0.00855591 0)
(0.00529258 -0.00345634 0)
(0.00485247 -0.00682142 0)
(0.00345332 -0.0036029 0)
(0.00614888 -0.00380139 0)
(0.001315 -0.00104295 0)
(0.00846373 0.00110879 0)
(0.00665092 0.00646807 0)
(-0.00610525 0.0052294 0)
(-0.00507795 0.00243201 0)
(-0.00298498 0.00216672 0)
(-0.00194557 -0.00122662 0)
(-0.00146396 0.00082083 0)
(-0.00296233 -0.00284224 0)
(-0.00106421 -0.00283447 0)
(-0.00151931 -0.00542819 0)
(0.000630377 -0.0046922 0)
(-0.000863756 -0.00785435 0)
(0.00354244 -0.00709485 0)
(-0.00132313 -0.0082077 0)
(0.00338187 -0.00930063 0)
(-0.00151637 -0.00629911 0)
(0.00330867 -0.00575744 0)
(3.91892e-05 -0.00359132 0)
(0.00300232 -0.00165215 0)
(0.000525957 -0.000209171 0)
(0.0032187 4.27903e-05 0)
(0.00142374 0.000540817 0)
(0.00315668 0.000513502 0)
(0.0021708 0.000261114 0)
(0.00229993 0.000560886 0)
(0.00182964 0.000458492 0)
(0.0013931 0.000652372 0)
(0.00102747 0.000533652 0)
(0.000477194 0.00044978 0)
(5.61946e-05 0.000221058 0)
(-0.000207621 3.42257e-06 0)
(-0.00041011 -0.000157974 0)
(-0.00055157 -0.00030559 0)
(-0.000563629 -0.00046121 0)
(-0.000548265 -0.000608447 0)
(-0.000452653 -0.000667262 0)
(-0.000231609 -0.000668642 0)
(0.000161623 -0.000667928 0)
(0.000701271 -0.000641266 0)
(0.00128968 -0.000631807 0)
(0.00183953 -0.000625866 0)
(0.00217457 -0.000551959 0)
(0.00224823 -0.000447263 0)
(0.00211327 -0.000374975 0)
(0.00167246 -0.000479859 0)
(0.00104546 -0.000707498 0)
(0.000234313 -0.00101343 0)
(-0.000847238 -0.00138557 0)
(-0.00212522 -0.00184354 0)
(-0.00280878 -0.0022071 0)
(-0.00293764 -0.00236583 0)
(-0.00266376 -0.00258479 0)
(-0.00183601 -0.00282429 0)
(-0.000884323 -0.00307389 0)
(-0.000231027 -0.00322322 0)
(0.000176223 -0.00317194 0)
(0.00051699 -0.00294421 0)
(0.000764238 -0.00260581 0)
(0.000819149 -0.00226512 0)
(0.000743971 -0.00195869 0)
(0.000629223 -0.00174127 0)
(0.00055074 -0.00146333 0)
(0.000341856 -0.00138329 0)
(-1.42344e-05 -0.00130331 0)
(0.00140355 -0.0212763 0)
(0.000206482 -0.0150845 0)
(8.64015e-05 -0.014105 0)
(0.00313717 -0.0196871 0)
(0.00310575 -0.00957546 0)
(0.00221729 -0.0124342 0)
(0.00220385 -0.00287102 0)
(0.00306102 -0.0073047 0)
(0.00208522 -0.00246571 0)
(0.00411147 -0.00317361 0)
(0.00367836 -0.00131634 0)
(0.00233546 -2.92394e-05 0)
(0.00307718 0.00205251 0)
(-0.00139464 0.0025147 0)
(-0.00347797 0.000306698 0)
(-0.00220818 0.00139261 0)
(-0.000884022 -0.00346477 0)
(-0.000586931 0.00320814 0)
(0.000590238 -0.003274 0)
(0.000240646 0.00106872 0)
(0.000572538 -0.00309345 0)
(0.00164589 0.00134904 0)
(0.000561397 -0.0022186 0)
(0.00394547 -0.00223312 0)
(-0.00130421 -0.00222535 0)
(0.0027094 -0.00502875 0)
(-0.0010842 -0.0039542 0)
(0.00147805 -0.00458643 0)
(-0.00213394 -0.00439596 0)
(0.00196332 -0.00234623 0)
(0.00135643 -0.00152075 0)
(0.00268315 -0.00236415 0)
(0.00259802 -0.00248469 0)
(0.00309373 -0.00132401 0)
(0.00225441 -0.00250208 0)
(0.00196835 -0.00178006 0)
(0.00137759 -0.00232826 0)
(0.00118024 -0.00211323 0)
(0.000891097 -0.0021626 0)
(0.000512662 -0.0020981 0)
(0.000132527 -0.00220642 0)
(-0.000195455 -0.00224539 0)
(-0.000374515 -0.00231999 0)
(-0.000480602 -0.00237425 0)
(-0.000509043 -0.00245226 0)
(-0.000525654 -0.00252674 0)
(-0.000505534 -0.0025722 0)
(-0.000358958 -0.00261025 0)
(-3.85484e-05 -0.00259141 0)
(0.000442474 -0.00239543 0)
(0.00100153 -0.00201076 0)
(0.0015512 -0.00147097 0)
(0.0019194 -0.000889726 0)
(0.00202459 -0.000395717 0)
(0.00192817 4.61857e-05 0)
(0.00163001 0.000329644 0)
(0.00116869 0.000425121 0)
(0.000539443 0.000262354 0)
(-0.000347689 -0.000143936 0)
(-0.00151116 -0.000821992 0)
(-0.00241266 -0.00154365 0)
(-0.00268004 -0.00192156 0)
(-0.002462 -0.00220038 0)
(-0.00166056 -0.00239269 0)
(-0.000746547 -0.00254955 0)
(-0.000227908 -0.00261505 0)
(6.01367e-05 -0.00255389 0)
(0.000328171 -0.00241655 0)
(0.000526824 -0.0022309 0)
(0.00057318 -0.00202423 0)
(0.000516773 -0.00181844 0)
(0.000448637 -0.00167843 0)
(0.00039586 -0.00145575 0)
(0.000246457 -0.00143458 0)
(-1.70437e-05 -0.00135141 0)
(0.00308127 -0.0138549 0)
(0.00385956 -0.00736572 0)
(-0.00275298 -0.0107219 0)
(0.00172948 -0.00628569 0)
(-0.00199991 -0.00729564 0)
(0.0035066 -0.00609176 0)
(0.000224879 -0.00458459 0)
(0.00230503 -0.00630156 0)
(0.000963226 -0.00412188 0)
(0.00164324 -0.00600368 0)
(0.00381958 -0.00350402 0)
(0.00278644 -0.0026298 0)
(-0.00140954 -0.000929681 0)
(0.00146475 0.00109654 0)
(-0.00312989 0.000828483 0)
(-0.00115276 0.00223387 0)
(-0.00196921 -0.000932947 0)
(-0.00243677 0.0017103 0)
(0.000939697 0.000185433 0)
(-0.0025952 0.00156561 0)
(-0.000260815 0.00378873 0)
(0.000670079 0.00455019 0)
(0.000902915 0.00417829 0)
(0.00307283 0.00374856 0)
(0.00268998 0.00352943 0)
(0.00312364 0.00295215 0)
(0.00182557 0.00096127 0)
(-0.000190658 0.00200399 0)
(-0.00079331 -1.17052e-06 0)
(-0.000133764 0.000255893 0)
(0.00170055 -0.000620755 0)
(0.00276048 -0.000858102 0)
(0.00142552 -0.000849663 0)
(0.00328554 -0.000983824 0)
(0.00183497 -0.00146676 0)
(0.00241036 -0.000875885 0)
(0.00162925 -0.00142637 0)
(0.0013971 -0.00105171 0)
(0.000973672 -0.00114326 0)
(0.000563207 -0.00106007 0)
(0.000225798 -0.00119849 0)
(-3.56163e-05 -0.00137866 0)
(-0.000251539 -0.00158862 0)
(-0.000375795 -0.00181474 0)
(-0.000382754 -0.00206016 0)
(-0.000403416 -0.00228426 0)
(-0.000371577 -0.0025574 0)
(-0.0002427 -0.00286017 0)
(-4.72441e-05 -0.00308993 0)
(0.000154761 -0.0030908 0)
(0.000429516 -0.00282243 0)
(0.000782653 -0.00225647 0)
(0.00110602 -0.00146709 0)
(0.00132277 -0.000594364 0)
(0.00138609 0.000218413 0)
(0.00128453 0.000871352 0)
(0.001106 0.00123881 0)
(0.000795779 0.0012714 0)
(0.000219825 0.000965457 0)
(-0.000729396 0.000343976 0)
(-0.001783 -0.000509313 0)
(-0.00231563 -0.00111096 0)
(-0.00223003 -0.00152245 0)
(-0.0015039 -0.00187031 0)
(-0.000647351 -0.00210333 0)
(-0.000227346 -0.002188 0)
(-4.99462e-06 -0.00219634 0)
(0.000205215 -0.00213228 0)
(0.000371517 -0.00200732 0)
(0.000407669 -0.00186761 0)
(0.000357452 -0.00172161 0)
(0.000320741 -0.00163075 0)
(0.000280678 -0.00144732 0)
(0.00017784 -0.00147061 0)
(-1.55172e-05 -0.0013876 0)
(0.0027389 -0.00769985 0)
(-0.00270984 -0.00320523 0)
(-0.00223882 -0.00556991 0)
(0.000141004 -0.00393985 0)
(0.000653057 -0.00492654 0)
(9.23084e-05 -0.0037104 0)
(0.00215988 -0.00247011 0)
(0.00161337 -0.00369948 0)
(0.00326382 -0.0033378 0)
(0.000127352 -0.00247837 0)
(0.00200042 -0.00554315 0)
(-0.000556768 -0.00193296 0)
(-0.00139554 -0.00156839 0)
(-0.000609438 -0.0011009 0)
(-0.00111609 -0.00225433 0)
(-0.00102651 8.88689e-05 0)
(-0.0028771 -0.00134083 0)
(-0.000635753 -0.000198414 0)
(-0.00117192 -0.00323482 0)
(-0.00344783 0.00111634 0)
(-0.0011321 -0.00158153 0)
(-0.00263605 0.0060036 0)
(0.00279831 0.00393495 0)
(0.00315397 0.0032225 0)
(0.00418999 0.00483622 0)
(0.00199045 0.00581733 0)
(0.00169686 0.00409302 0)
(0.000944905 0.00711372 0)
(0.00164402 0.00449281 0)
(0.0011608 0.0067022 0)
(0.00193667 0.000137984 0)
(0.00318669 0.00512537 0)
(0.00323183 -0.000946624 0)
(0.00301361 0.00178482 0)
(0.00256529 -0.00114219 0)
(0.00198346 -1.95735e-06 0)
(0.0015553 -0.00158143 0)
(0.0010841 -0.00116777 0)
(0.00077971 -0.00151596 0)
(0.000576844 -0.00147771 0)
(0.000396774 -0.00165572 0)
(0.000163786 -0.00183362 0)
(3.07756e-05 -0.00203644 0)
(-6.23266e-05 -0.00224166 0)
(-7.31678e-05 -0.00242397 0)
(-4.00723e-05 -0.00258982 0)
(6.19833e-05 -0.00281533 0)
(0.000158848 -0.00305949 0)
(0.000181992 -0.00313637 0)
(0.000168426 -0.00309363 0)
(0.0001428 -0.00280716 0)
(0.000151069 -0.00221192 0)
(0.000221297 -0.00134789 0)
(0.000318364 -0.000324761 0)
(0.0004507 0.000702508 0)
(0.000606453 0.00157791 0)
(0.000779081 0.00217423 0)
(0.000821275 0.00237171 0)
(0.000588554 0.00227875 0)
(-4.12373e-05 0.00185852 0)
(-0.000915357 0.00113498 0)
(-0.00159477 0.000268979 0)
(-0.0016883 -0.000578118 0)
(-0.00108697 -0.0013272 0)
(-0.00042858 -0.00173086 0)
(-0.000128399 -0.00188353 0)
(1.65796e-05 -0.00196116 0)
(0.000146082 -0.00195004 0)
(0.000263225 -0.00186651 0)
(0.000290495 -0.00175802 0)
(0.000251773 -0.00164448 0)
(0.000223846 -0.00159437 0)
(0.000197729 -0.00143972 0)
(0.000126022 -0.00149496 0)
(-1.36217e-05 -0.0014133 0)
(0.00537109 -0.00859846 0)
(-0.0032465 -0.0072529 0)
(0.00244516 -0.00494333 0)
(-0.000873011 -0.00533007 0)
(0.000868929 -0.00539575 0)
(-0.000651284 -0.0022309 0)
(0.00151027 0.00181725 0)
(0.00125834 -0.00442737 0)
(0.00369249 0.00564917 0)
(0.00133068 -0.0013562 0)
(0.00165532 0.00449836 0)
(0.00106169 -0.00055611 0)
(0.000910389 0.00255503 0)
(-4.83002e-05 -0.0025137 0)
(-0.00162327 -0.00518177 0)
(-0.00176082 -0.00233761 0)
(-0.00109766 -0.00631858 0)
(-0.00282918 -0.00124393 0)
(-0.000233654 -0.00570603 0)
(-0.00422785 -0.00206364 0)
(-0.00461865 2.08327e-05 0)
(-0.00889889 0.0057306 0)
(0.0052963 0.0077071 0)
(0.00371662 0.00258882 0)
(0.00286347 0.00209735 0)
(0.000440511 0.00215297 0)
(0.000713434 0.00199512 0)
(-0.000235498 0.00242599 0)
(0.0016218 0.00343471 0)
(0.000952709 0.00639859 0)
(0.00509808 0.00510997 0)
(0.00410208 0.00301538 0)
(0.00567209 0.000661156 0)
(0.00281349 -0.000680061 0)
(0.00374993 -0.00155108 0)
(0.0025301 -0.00161128 0)
(0.00241777 -0.00256371 0)
(0.00160407 -0.00234623 0)
(0.0011306 -0.00244508 0)
(0.000766398 -0.00231378 0)
(0.000585055 -0.00248691 0)
(0.000395091 -0.00273459 0)
(0.000175776 -0.00301247 0)
(4.03256e-05 -0.00325157 0)
(-6.17688e-06 -0.00339424 0)
(1.06029e-05 -0.00349971 0)
(7.38652e-05 -0.00356115 0)
(7.67228e-05 -0.00354552 0)
(1.42244e-05 -0.00340274 0)
(-0.00016598 -0.0031008 0)
(-0.00041533 -0.00255957 0)
(-0.00065519 -0.0017713 0)
(-0.000783391 -0.00080509 0)
(-0.000740776 0.000238038 0)
(-0.000538027 0.00125387 0)
(-0.000189354 0.00209599 0)
(0.000300178 0.00269146 0)
(0.000693683 0.00288731 0)
(0.000746835 0.00278298 0)
(0.000425599 0.00243664 0)
(-0.000167039 0.00181926 0)
(-0.000617221 0.000923837 0)
(-0.000656903 -0.000162535 0)
(-0.000362134 -0.00116908 0)
(-0.000101834 -0.00161505 0)
(1.08696e-05 -0.00179317 0)
(5.65296e-05 -0.00185713 0)
(0.000110531 -0.00185384 0)
(0.000170093 -0.00178357 0)
(0.000190616 -0.00168473 0)
(0.000178456 -0.00159281 0)
(0.000153716 -0.00157219 0)
(0.000138229 -0.00143025 0)
(8.87528e-05 -0.0015108 0)
(-1.11852e-05 -0.0014311 0)
(-0.00215781 -0.00249645 0)
(-0.00170067 -0.0078565 0)
(-0.00183121 -0.000489903 0)
(-0.00379218 -0.00276153 0)
(0.000738598 -0.00183435 0)
(-0.00462032 -0.000579627 0)
(-2.43156e-05 0.00137297 0)
(-0.00302339 0.00160421 0)
(0.000609793 0.00247568 0)
(0.00132516 0.00192067 0)
(0.000456177 0.00204442 0)
(0.00148918 0.00427493 0)
(0.00383765 0.00230097 0)
(-0.00194933 0.00118819 0)
(0.00194747 -0.00233482 0)
(-0.00311585 -0.00109425 0)
(0.00231294 -0.00544581 0)
(-0.0045052 -0.00370154 0)
(-0.00163799 -0.00772342 0)
(-0.00555782 -0.00501483 0)
(-0.00859824 -0.00326389 0)
(-0.02679 0.0144521 0)
(0.0228729 0.013131 0)
(0.00698779 0.000961487 0)
(0.00226107 -0.00151698 0)
(0.00173247 0.000229744 0)
(0.00108307 0.0011116 0)
(-0.000783239 -9.13196e-05 0)
(-0.00168598 0.00356983 0)
(-0.00373551 0.00683731 0)
(0.00843627 0.00875872 0)
(0.00860981 0.00132863 0)
(0.0060434 -0.000899725 0)
(0.00462789 -0.00155146 0)
(0.00407642 -0.00324087 0)
(0.00294012 -0.00301853 0)
(0.00226247 -0.00352089 0)
(0.00117518 -0.00340541 0)
(0.000611976 -0.00374496 0)
(0.000599211 -0.00398235 0)
(0.000789086 -0.00418078 0)
(0.000700098 -0.00437061 0)
(0.000478014 -0.0044927 0)
(0.000290463 -0.00454485 0)
(0.000179058 -0.00448341 0)
(0.000121534 -0.00435718 0)
(9.34825e-05 -0.00411767 0)
(7.38367e-06 -0.00385506 0)
(-0.000256032 -0.00341947 0)
(-0.000682911 -0.00285226 0)
(-0.00119694 -0.00210924 0)
(-0.00164777 -0.00134566 0)
(-0.00182452 -0.000522218 0)
(-0.00175871 0.000321362 0)
(-0.00142337 0.00120722 0)
(-0.000841071 0.00193245 0)
(-1.42956e-05 0.0024609 0)
(0.000735008 0.00260803 0)
(0.00102396 0.00242283 0)
(0.00088444 0.00197798 0)
(0.00057338 0.00129021 0)
(0.000378857 0.000360501 0)
(0.000366634 -0.000634601 0)
(0.000348853 -0.00132388 0)
(0.000223738 -0.00162713 0)
(0.000116674 -0.0017564 0)
(8.18399e-05 -0.00178919 0)
(7.23123e-05 -0.00176978 0)
(8.7592e-05 -0.00170783 0)
(0.00010873 -0.00163114 0)
(0.000119638 -0.00155967 0)
(0.000106236 -0.00155521 0)
(9.5543e-05 -0.00142201 0)
(6.21576e-05 -0.0015217 0)
(-8.56827e-06 -0.0014433 0)
(-0.00419795 0.00434407 0)
(0.000944913 0.00381896 0)
(-0.00288547 0.00380318 0)
(-0.00183783 0.00417982 0)
(-0.000731876 0.000175593 0)
(-0.000849449 -0.00431301 0)
(0.0008574 -0.00111391 0)
(0.000412095 -0.00488785 0)
(0.000305518 0.000195947 0)
(0.000897919 -0.00454452 0)
(0.0012653 -0.000659952 0)
(-0.00100559 -0.00196654 0)
(0.00407569 -6.50984e-05 0)
(-0.0021521 -0.00164869 0)
(0.00446331 0.00124125 0)
(-0.00114737 0.000806877 0)
(0.00293546 -0.00482899 0)
(-0.00102255 -0.00560713 0)
(-0.00106882 -0.00465618 0)
(-0.00143846 -0.0152626 0)
(-0.00430215 -0.0209249 0)
(-0.00377367 0.032955 0)
(-0.00411477 0.038953 0)
(-0.00302318 -0.0209591 0)
(-0.000169947 -0.00498792 0)
(-0.000711185 -0.00320684 0)
(0.000701435 -0.00107948 0)
(-0.00138305 -0.00141021 0)
(-0.00437915 -0.00261187 0)
(-0.0213574 0.0152539 0)
(0.0281699 0.0122765 0)
(0.0115609 -0.00232323 0)
(0.0079646 -0.00471155 0)
(0.00463384 -0.0023939 0)
(0.00417785 -0.00179779 0)
(0.00301553 -0.000505055 0)
(0.00230716 -0.000755552 0)
(0.00194879 -0.000994214 0)
(0.00166243 -0.00230157 0)
(0.00126714 -0.00354761 0)
(0.0010908 -0.00401527 0)
(0.000724654 -0.00412429 0)
(0.000391753 -0.00406955 0)
(5.54768e-05 -0.00405492 0)
(-0.000189012 -0.00386273 0)
(-0.0003305 -0.00368717 0)
(-0.000463527 -0.00339226 0)
(-0.00061315 -0.00303786 0)
(-0.00099605 -0.00256017 0)
(-0.00149064 -0.0020671 0)
(-0.00191754 -0.00162169 0)
(-0.00222404 -0.00131397 0)
(-0.00249091 -0.000947992 0)
(-0.00249549 -0.000584748 0)
(-0.00217114 -8.43718e-05 0)
(-0.00146545 0.000401471 0)
(-0.000389155 0.000850341 0)
(0.000712496 0.00107381 0)
(0.0013616 0.000940617 0)
(0.00156624 0.000452145 0)
(0.00148139 -0.000218088 0)
(0.00129503 -0.000989864 0)
(0.000999149 -0.00149599 0)
(0.000619051 -0.00166538 0)
(0.000327205 -0.00166705 0)
(0.000173967 -0.00169665 0)
(7.47273e-05 -0.00171171 0)
(3.01083e-05 -0.00169312 0)
(2.87971e-05 -0.00164714 0)
(5.26527e-05 -0.00159213 0)
(7.13976e-05 -0.00153934 0)
(6.90648e-05 -0.00154268 0)
(6.31812e-05 -0.00141595 0)
(4.26255e-05 -0.00152957 0)
(-5.98861e-06 -0.00145185 0)
(0.00110671 -0.00118182 0)
(0.000374859 -0.00299146 0)
(-0.000119393 -0.00275054 0)
(0.0014285 -0.00355849 0)
(-0.000839324 -0.00734123 0)
(0.00301154 -0.00797183 0)
(-1.10612e-05 -0.00819462 0)
(0.0027499 -0.00923493 0)
(-0.00168394 -0.00707269 0)
(-0.000809557 -0.00635278 0)
(-0.00103839 -0.00515127 0)
(0.000842939 -0.00380077 0)
(0.00276471 -0.00495836 0)
(0.000550423 -0.00334811 0)
(0.00439412 -0.0023687 0)
(-0.000138323 -0.00160765 0)
(0.000249931 -0.0017429 0)
(0.00144801 -0.00469027 0)
(0.00150418 -0.00516286 0)
(0.00471584 -0.00713016 0)
(0.00179072 -0.00657398 0)
(0.020495 0.0116712 0)
(-0.0309886 0.0128004 0)
(-0.013886 -0.000601995 0)
(-0.000817889 -0.00196483 0)
(-0.00291875 -0.00438766 0)
(0.00376927 -0.00447725 0)
(0.00294581 -0.0132575 0)
(0.0038151 -0.021137 0)
(0.00467802 0.0308115 0)
(0.00516869 0.0337415 0)
(0.00196182 -0.0244593 0)
(0.00258004 -0.0116942 0)
(0.00186328 -0.00619912 0)
(0.00239017 -0.0042366 0)
(0.00240062 -0.00268124 0)
(0.00279418 -0.00206512 0)
(0.00286321 -0.00169195 0)
(0.00295612 -0.00165895 0)
(0.00228281 -0.00170304 0)
(0.00131697 -0.00133419 0)
(0.000708043 -0.000826898 0)
(0.000352276 -0.000458245 0)
(4.87238e-05 -0.000390094 0)
(-0.000183636 -0.000442822 0)
(-0.000361471 -0.000637781 0)
(-0.000587961 -0.000775385 0)
(-0.000806648 -0.000944431 0)
(-0.00115375 -0.00102379 0)
(-0.00158384 -0.00120954 0)
(-0.0019518 -0.00144119 0)
(-0.00225148 -0.00171117 0)
(-0.00251793 -0.00195748 0)
(-0.00256781 -0.00201875 0)
(-0.00237359 -0.00203593 0)
(-0.00174511 -0.00200231 0)
(-0.000684739 -0.00187947 0)
(0.000665681 -0.0017111 0)
(0.00164072 -0.00169654 0)
(0.00198709 -0.00182458 0)
(0.00198169 -0.00195683 0)
(0.00163755 -0.0021043 0)
(0.00104198 -0.00202621 0)
(0.000516524 -0.00183962 0)
(0.000283927 -0.00172487 0)
(0.000165512 -0.00167207 0)
(7.09055e-05 -0.00164967 0)
(4.42613e-06 -0.00162886 0)
(-1.0078e-05 -0.00159604 0)
(1.04699e-05 -0.00156025 0)
(3.63773e-05 -0.00152315 0)
(4.37456e-05 -0.00153254 0)
(4.08529e-05 -0.00141085 0)
(2.92392e-05 -0.00153484 0)
(-3.53648e-06 -0.00145757 0)
(-0.0025664 -0.00447051 0)
(-0.0014906 -0.00148087 0)
(-0.000481663 -0.00428178 0)
(0.00271069 -0.00487736 0)
(0.000581638 -0.00649108 0)
(0.0015026 -0.00656208 0)
(0.000119005 -0.00435623 0)
(-0.000823749 -0.00837891 0)
(-6.16569e-05 -0.00800391 0)
(-0.00319216 -0.0086949 0)
(-2.87704e-07 -0.00825811 0)
(-0.000610825 -0.00499548 0)
(0.00320637 -0.00673986 0)
(-0.00237244 -0.0043253 0)
(0.00399795 -0.00134955 0)
(-0.00165779 -0.00352732 0)
(0.000582267 -0.00242052 0)
(-0.000340662 -0.000776927 0)
(0.00343992 -0.00152423 0)
(0.00790833 -0.00914306 0)