/*--------------------------------*- C++ -*----------------------------------*\
  =========                 |
  \\      /  F ield         | OpenFOAM: The Open Source CFD Toolbox
   \\    /   O peration     | Website:  https://openfoam.org
    \\  /    A nd           | Version:  12
     \\/     M anipulation  |
\*---------------------------------------------------------------------------*/
FoamFile
{
    format      ascii;
    class       volVectorField;
    location    "1";
    object      U.water_0;
}
// * * * * * * * * * * * * * * * * * * * * * * * * * * * * * * * * * * * * * //

dimensions      [0 1 -1 0 0 0 0];

internalField   nonuniform List<vector> 
3750
(
(-0.000139004 0.0110871 0)
(0.00102042 0.0102418 0)
(2.30494e-05 0.00786882 0)
(-0.00166371 0.00948473 0)
(-0.00177318 0.0112707 0)
(-0.00250266 0.0124418 0)
(-0.00306891 0.0167045 0)
(0.000701599 0.0157504 0)
(0.00276494 0.0133473 0)
(0.000592654 0.0107725 0)
(0.00251384 0.0100793 0)
(0.00109836 0.0103606 0)
(0.000894815 0.0106386 0)
(-0.000982593 0.0100033 0)
(-0.00133475 0.010967 0)
(-0.000134012 0.0117443 0)
(-0.00105041 0.0112203 0)
(-0.000524292 0.0118178 0)
(-0.00063444 0.0131946 0)
(0.00048655 0.0160619 0)
(-0.00187023 0.0179632 0)
(0.00163159 0.0164408 0)
(0.00108602 0.015196 0)
(-0.000388033 0.0130545 0)
(0.00103855 0.0106622 0)
(-0.000309411 0.0121133 0)
(0.00147208 0.00971671 0)
(4.36904e-05 0.00824229 0)
(0.0024033 0.0135772 0)
(-0.00363836 0.00535029 0)
(-0.000962673 0.0157475 0)
(0.00410845 0.004942 0)
(0.00109469 0.00721919 0)
(0.000976801 0.00175242 0)
(0.00131887 0.000342078 0)
(0.000512408 -0.00379983 0)
(0.000445222 -0.00466194 0)
(6.7854e-05 -0.00635466 0)
(-0.000181382 -0.00682415 0)
(-0.000879178 -0.00668859 0)
(-0.000421458 -0.00605506 0)
(-0.000479879 -0.0047487 0)
(-0.000353517 -0.00448618 0)
(-0.000630232 -0.00334673 0)
(-0.000749587 -0.00264892 0)
(-0.000726948 -0.00145774 0)
(-0.000546729 -0.000771147 0)
(-0.000486817 -9.38183e-05 0)
(-0.000462582 0.000563663 0)
(-0.000421938 0.00106805 0)
(-0.000400456 0.00169274 0)
(-0.000339215 0.00202749 0)
(-0.00036889 0.00242443 0)
(-0.000347537 0.00269671 0)
(-0.000323419 0.00307153 0)
(-0.000269526 0.00345643 0)
(-0.000189461 0.00383382 0)
(-0.000138221 0.00415882 0)
(-0.000108212 0.00443774 0)
(-0.000139086 0.00471959 0)
(-0.000173488 0.00511865 0)
(-0.000206329 0.00567301 0)
(-0.000223766 0.00640433 0)
(-0.000212852 0.00722745 0)
(-0.000139504 0.00806439 0)
(4.40456e-05 0.00875136 0)
(0.000385302 0.00893567 0)
(0.000578057 0.00855448 0)
(0.000682998 0.00758686 0)
(0.000537121 0.00632637 0)
(0.00032366 0.00517799 0)
(0.000261551 0.00400244 0)
(0.000473474 0.00319431 0)
(0.000521738 0.00196839 0)
(0.000290858 0.00129011 0)
(0.00153181 0.0160272 0)
(0.000536496 0.0161359 0)
(0.00250108 0.0112709 0)
(-0.00144273 0.01537 0)
(0.000231711 0.00733784 0)
(-0.00618198 0.0177294 0)
(-0.0046816 0.0163427 0)
(0.00481986 0.0174778 0)
(0.00688855 0.0130373 0)
(0.000562829 0.0122435 0)
(-0.00221582 0.0119863 0)
(-0.00156004 0.0137496 0)
(-0.00048233 0.0120788 0)
(-0.000293311 0.0151204 0)
(-0.00128773 0.0116149 0)
(0.00112774 0.0117943 0)
(-0.00129612 0.011731 0)
(-0.000964093 0.00981101 0)
(-0.00402268 0.0125848 0)
(-0.00358968 0.0154739 0)
(-0.0053812 0.0208143 0)
(0.00627912 0.0215329 0)
(0.0050807 0.0150206 0)
(0.00236744 0.0122583 0)
(0.00175989 0.0092578 0)
(-0.000113552 0.0104449 0)
(0.00183644 0.00981166 0)
(-0.00187328 0.00967319 0)
(0.000445575 0.00917931 0)
(-0.00089952 0.00978159 0)
(0.00154242 0.00840415 0)
(0.00598869 0.0033658 0)
(0.00171541 0.00586207 0)
(0.0060829 0.0022861 0)
(0.00432779 0.00249279 0)
(0.00396721 -0.000292158 0)
(0.00293903 -8.51121e-05 0)
(0.00199251 -0.00163921 0)
(0.000641596 -0.00218451 0)
(-0.000456103 -0.00247198 0)
(-0.000847066 -0.00227821 0)
(-0.00125032 -0.00188467 0)
(-0.00101073 -0.00128345 0)
(-0.00126481 -0.000620244 0)
(-0.00121038 -0.000294799 0)
(-0.00111585 4.45885e-05 0)
(-0.000879645 0.000214075 0)
(-0.000802643 0.000480224 0)
(-0.000774257 0.000692777 0)
(-0.00070168 0.000840368 0)
(-0.000602772 0.000922278 0)
(-0.000380093 0.000766303 0)
(-0.000309604 0.000472484 0)
(-0.000299674 8.03095e-05 0)
(-0.000424585 -8.36746e-05 0)
(-0.000506752 -6.47534e-05 0)
(-0.000521083 4.7624e-05 0)
(-0.000462709 0.000175482 0)
(-0.000432722 0.000326286 0)
(-0.000525318 0.000574756 0)
(-0.000762587 0.00109396 0)
(-0.00107916 0.00191113 0)
(-0.00135355 0.00296899 0)
(-0.00150198 0.00413073 0)
(-0.00142233 0.00530317 0)
(-0.000962731 0.0062522 0)
(-9.42177e-05 0.00676906 0)
(0.000825334 0.00661628 0)
(0.00149824 0.00568127 0)
(0.00189758 0.00445018 0)
(0.00198175 0.00294477 0)
(0.00183945 0.00156829 0)
(0.00159111 0.000949785 0)
(0.00128652 0.000353023 0)
(0.000408859 0.000381849 0)
(0.000335921 0.00967538 0)
(0.00138651 0.0120123 0)
(0.000474929 0.00923531 0)
(0.00201889 0.00778746 0)
(-0.00179115 0.00814557 0)
(-0.00883715 0.00872965 0)
(-0.022234 0.0292023 0)
(0.0215601 0.031244 0)
(0.00988253 0.00573716 0)
(-0.00350525 0.00820382 0)
(0.00176093 0.000946711 0)
(-0.00323101 0.0053153 0)
(0.00143034 0.00147045 0)
(0.00278999 0.000460131 0)
(0.000228207 0.00130004 0)
(0.00329902 0.00272837 0)
(-0.00237647 0.00148623 0)
(0.000452914 0.00157814 0)
(-0.00441733 0.00186298 0)
(-0.00774621 -5.63778e-05 0)
(-0.025124 0.0186246 0)
(0.0245584 0.0182665 0)
(0.0104724 5.93479e-05 0)
(0.00323956 -2.43123e-05 0)
(0.0025538 -0.00171705 0)
(-0.00141458 0.000710369 0)
(-0.000373977 -0.00221733 0)
(0.000111741 -0.00150119 0)
(0.00214598 -0.00276126 0)
(0.000813549 -0.00520358 0)
(0.00422984 -0.00620869 0)
(0.00398557 -0.0042027 0)
(0.00281537 -0.00620843 0)
(0.00509855 -0.00363439 0)
(0.00267431 -0.00277517 0)
(0.00328711 -0.00146853 0)
(0.00231125 -2.19502e-05 0)
(0.00164475 0.000130637 0)
(0.000554835 0.000369976 0)
(-0.000379892 0.000234641 0)
(-0.00109478 -8.23211e-05 0)
(-0.00158547 -0.000287521 0)
(-0.00161391 -0.000444731 0)
(-0.00159691 -0.000331291 0)
(-0.00139079 -0.000416618 0)
(-0.00115671 -0.000404909 0)
(-0.000980051 -0.000388375 0)
(-0.000908848 -0.00030783 0)
(-0.000836902 -0.000245674 0)
(-0.000626621 -0.000263827 0)
(-0.000287058 -0.000490052 0)
(0.000145497 -0.000914214 0)
(0.00030808 -0.00148834 0)
(0.000180853 -0.00208852 0)
(-0.000196114 -0.00253623 0)
(-0.000392461 -0.00279566 0)
(-0.000408744 -0.00299749 0)
(-0.000401529 -0.00308345 0)
(-0.000524523 -0.00307319 0)
(-0.000941013 -0.00277347 0)
(-0.00156096 -0.00209418 0)
(-0.00211779 -0.00127886 0)
(-0.00246109 -0.000527071 0)
(-0.00256379 0.000108448 0)
(-0.00229057 0.000605902 0)
(-0.00144751 0.000832969 0)
(3.4798e-05 0.000818187 0)
(0.0017202 0.000581687 0)
(0.00275311 0.00011478 0)
(0.00313855 -0.000204494 0)
(0.00300182 -0.000494206 0)
(0.00220206 -0.000482549 0)
(0.00163311 -0.000183805 0)
(0.00108109 -0.000262365 0)
(0.000304673 0.000123496 0)
(0.000190029 0.00724126 0)
(2.17802e-05 0.00587863 0)
(-0.00157904 0.00185723 0)
(4.38953e-06 0.000106693 0)
(0.000592592 -0.00474269 0)
(0.00152138 -0.0158505 0)
(0.00347656 0.0430936 0)
(0.00040764 0.0451891 0)
(0.00212318 -0.0211997 0)
(-0.00153804 -0.00957692 0)
(0.00451083 -0.0045129 0)
(0.000584128 -0.00867307 0)
(-0.000294043 -0.00110569 0)
(0.00285143 -0.00635091 0)
(-0.0030285 -0.00552856 0)
(0.00423139 -0.004808 0)
(-0.00405539 -0.00235583 0)
(0.000674415 -0.00375962 0)
(0.00111936 -0.00834043 0)
(0.00122107 -0.0192998 0)
(5.66121e-06 0.0361642 0)
(0.0007695 0.039989 0)
(0.00112419 -0.0202045 0)
(-0.000481457 -0.00828528 0)
(0.00129821 -0.000914953 0)
(0.00188094 -0.00342402 0)
(0.000588377 -5.82156e-05 0)
(0.0027623 -0.00665458 0)
(0.00120125 -0.000214296 0)
(0.00363082 -0.00570559 0)
(0.0018107 -0.00137831 0)
(0.00438644 -0.00277945 0)
(0.00254928 -0.000776912 0)
(0.00200945 -0.00140927 0)
(0.00135819 0.00014587 0)
(0.00179948 8.79056e-05 0)
(0.00140583 0.0010879 0)
(0.00112167 0.00122852 0)
(0.000726175 0.00133232 0)
(5.50156e-06 0.00121159 0)
(-0.000381898 0.000979275 0)
(-0.00088587 0.000685002 0)
(-0.00107215 0.000358231 0)
(-0.00127176 0.000227433 0)
(-0.00123833 9.74381e-05 0)
(-0.001122 6.52244e-05 0)
(-0.0010005 5.87652e-05 0)
(-0.000916489 2.53915e-05 0)
(-0.000783872 -9.93617e-05 0)
(-0.000469091 -0.000309208 0)
(3.85547e-05 -0.000639176 0)
(0.000629851 -0.00107352 0)
(0.000889642 -0.00164469 0)
(0.000744954 -0.00232131 0)
(0.000309408 -0.00300529 0)
(-8.35259e-05 -0.00360586 0)
(-0.000232771 -0.0039826 0)
(-0.000330778 -0.00415271 0)
(-0.000699509 -0.00408741 0)
(-0.00147233 -0.00364044 0)
(-0.00225994 -0.00296214 0)
(-0.0026762 -0.00243151 0)
(-0.00277194 -0.00211153 0)
(-0.00263616 -0.00194374 0)
(-0.00207747 -0.00214223 0)
(-0.00109909 -0.00263715 0)
(0.000227928 -0.003018 0)
(0.00164927 -0.00293045 0)
(0.0024393 -0.0026787 0)
(0.00269516 -0.00217833 0)
(0.00236392 -0.00153587 0)
(0.00171002 -0.000987012 0)
(0.00138089 -0.000545452 0)
(0.000842876 -0.00045227 0)
(0.000126907 -0.000105802 0)
(0.00181215 0.00623614 0)
(0.00171685 0.00574435 0)
(0.00494567 0.00383335 0)
(0.0043615 0.000953799 0)
(0.00900266 -0.00347042 0)
(0.00931841 -0.00230443 0)
(0.0253896 0.0109899 0)
(-0.0234653 0.0104189 0)
(-0.00994366 -0.00426037 0)
(0.00276543 -0.0100663 0)
(-0.0033809 -0.00265933 0)
(0.00299741 -0.00871907 0)
(-0.00259303 0.00450322 0)
(-0.000882684 -0.00589597 0)
(-0.000338032 -0.0020255 0)
(-0.000338071 -0.000831446 0)
(-7.51922e-05 -0.00694067 0)
(0.00241851 -0.00124853 0)
(0.000528965 -0.00914324 0)
(0.00853244 -0.00242848 0)
(0.0251724 0.00876059 0)
(-0.023963 0.0133377 0)
(-0.00732157 -0.00425283 0)
(-0.00387729 -0.00159887 0)
(-0.00170628 -0.00227301 0)
(7.03347e-05 0.00057434 0)
(0.000714478 4.61749e-06 0)
(0.00275162 0.00141083 0)
(-0.000432657 -0.000758362 0)
(0.00428225 -0.000309571 0)
(0.000446848 -0.000442985 0)
(0.00351325 -2.58901e-05 0)
(0.00147265 0.000136247 0)
(0.00298632 0.00080457 0)
(0.00162326 0.000713773 0)
(0.00205367 0.000836528 0)
(0.00146048 0.00139112 0)
(0.00111958 0.00163542 0)
(0.00058033 0.00190017 0)
(-6.24891e-06 0.00214851 0)
(-0.000578708 0.00218348 0)
(-0.000892876 0.00223163 0)
(-0.00111306 0.00206919 0)
(-0.00122268 0.00193283 0)
(-0.00120018 0.00170575 0)
(-0.00109495 0.00156273 0)
(-0.000944666 0.00141737 0)
(-0.000760114 0.00125602 0)
(-0.000515783 0.000971884 0)
(-9.29256e-05 0.000584689 0)
(0.000495332 0.000109833 0)
(0.00114597 -0.00039243 0)
(0.00153938 -0.000908199 0)
(0.00148666 -0.00155538 0)
(0.00106371 -0.00231028 0)
(0.000551338 -0.00305737 0)
(0.000142366 -0.00362136 0)
(-0.000301716 -0.00389276 0)
(-0.0010318 -0.00380367 0)
(-0.00210556 -0.00333144 0)
(-0.00276358 -0.00291312 0)
(-0.00293999 -0.00265256 0)
(-0.00292607 -0.00251743 0)
(-0.00249838 -0.00254518 0)
(-0.00162288 -0.00300417 0)
(-0.00061121 -0.00352746 0)
(0.000393391 -0.00377068 0)
(0.00131896 -0.00351588 0)
(0.00186446 -0.00299185 0)
(0.00191155 -0.00229596 0)
(0.00160911 -0.00154704 0)
(0.00124951 -0.00104618 0)
(0.0010601 -0.000636893 0)
(0.000605346 -0.000494216 0)
(3.7207e-05 -0.000290771 0)
(0.00102975 0.00121179 0)
(0.00263503 0.00500847 0)
(0.00753716 0.00217772 0)
(0.00576842 0.00359031 0)
(0.0072716 0.000507983 0)
(0.00977645 0.00355314 0)
(0.0104234 0.00815964 0)
(-0.00346965 0.00359318 0)
(-0.00502674 0.000999907 0)
(-0.000901598 -0.00136396 0)
(-0.00134887 -3.05181e-05 0)
(0.000955674 -0.00102812 0)
(-0.00106228 7.24871e-05 0)
(-0.00241111 0.000106822 0)
(0.00153723 -0.00199413 0)
(-0.000107091 -0.00127587 0)
(0.00314444 -0.00350118 0)
(0.00189207 0.000479632 0)
(0.00291096 -0.00537419 0)
(0.00485979 0.00210746 0)
(0.00623295 -2.77962e-05 0)
(-0.00717714 0.00524965 0)
(-0.00622467 -0.000967234 0)
(-0.00553362 -0.0038204 0)
(-0.00192604 -0.000834102 0)
(-0.000821365 -0.00343012 0)
(-8.22991e-05 -0.00128843 0)
(0.00424067 -0.00139604 0)
(0.00268839 -0.000119123 0)
(0.0033277 -0.000827476 0)
(0.00284035 0.00112908 0)
(0.00201291 0.000625752 0)
(0.0021638 0.00193551 0)
(0.00221194 0.00207583 0)
(0.00118577 0.00224062 0)
(0.00138411 0.00240742 0)
(0.000876484 0.00246986 0)
(0.000606345 0.00280084 0)
(0.000331628 0.0027497 0)
(-0.000202831 0.00283546 0)
(-0.00058614 0.00270842 0)
(-0.000782097 0.00262134 0)
(-0.000873753 0.00242262 0)
(-0.000956667 0.00226112 0)
(-0.000946936 0.00205696 0)
(-0.00086648 0.00187125 0)
(-0.000718817 0.0017041 0)
(-0.000477777 0.00154277 0)
(-0.000125243 0.00129584 0)
(0.000383919 0.000971935 0)
(0.000983035 0.0006038 0)
(0.00160048 0.000273128 0)
(0.00204505 1.883e-05 0)
(0.00212963 -0.000285834 0)
(0.00181726 -0.000717391 0)
(0.00123206 -0.00129182 0)
(0.000586634 -0.00180664 0)
(-0.000168436 -0.00214855 0)
(-0.0012006 -0.00230209 0)
(-0.00238718 -0.0022281 0)
(-0.0029468 -0.00217862 0)
(-0.00307458 -0.00213587 0)
(-0.00290203 -0.00215121 0)
(-0.00214448 -0.00241785 0)
(-0.00114021 -0.00284156 0)
(-0.000336804 -0.00316205 0)
(0.000286008 -0.00321406 0)
(0.000883319 -0.0029381 0)
(0.00121841 -0.00239541 0)
(0.00122345 -0.00182914 0)
(0.00107782 -0.00133445 0)
(0.000885966 -0.000992145 0)
(0.000770344 -0.000636871 0)
(0.000448805 -0.000525968 0)
(-4.0675e-06 -0.000410848 0)
(0.00327368 -0.0179185 0)
(-0.00184609 -0.0124708 0)
(0.00579547 -0.0131129 0)
(0.00308913 -0.0121359 0)
(0.00869322 -0.00454172 0)
(0.00631893 -0.00494393 0)
(0.00566364 0.00172192 0)
(0.00193349 -0.00127697 0)
(-0.00277267 0.00117059 0)
(0.00052508 -0.00163658 0)
(-0.00496337 -0.000779066 0)
(0.0015045 -0.00117454 0)
(-0.000480629 -0.00109011 0)
(-0.00124518 -0.00213421 0)
(-8.30321e-05 0.000495068 0)
(0.000534332 0.00222388 0)
(0.00168263 -0.000939079 0)
(0.00232035 0.00161484 0)
(0.00150238 -0.000452881 0)
(0.00393493 0.00194063 0)
(0.000539711 1.31415e-05 0)
(-6.05081e-05 0.000684515 0)
(-0.00497723 -0.00413689 0)
(0.00010669 -0.0056905 0)
(-0.00400836 -0.008052 0)
(0.0014867 -0.00985801 0)
(-0.00296654 -0.00685804 0)
(0.00237722 -0.00644954 0)
(-0.000891459 -0.00444157 0)
(0.00212281 -0.00246695 0)
(-0.000382303 -0.000917631 0)
(0.00223448 -0.000533579 0)
(0.000415548 0.000171086 0)
(0.0021949 0.0003493 0)
(0.0012871 0.000274206 0)
(0.00150619 0.000732521 0)
(0.00113842 0.000751294 0)
(0.000790732 0.00104106 0)
(0.000510108 0.000998471 0)
(3.45063e-05 0.000973496 0)
(-0.000321753 0.000791846 0)
(-0.000530081 0.000611849 0)
(-0.000685239 0.000481374 0)
(-0.00078669 0.00035955 0)
(-0.000764796 0.000225499 0)
(-0.000720627 9.64712e-05 0)
(-0.000600535 5.33184e-05 0)
(-0.000358699 6.52351e-05 0)
(5.22465e-05 7.74411e-05 0)
(0.000607045 0.000114339 0)
(0.00120835 0.000132411 0)
(0.00176942 0.000145676 0)
(0.00211411 0.000226205 0)
(0.00219593 0.00033659 0)
(0.00206818 0.000413921 0)
(0.0016335 0.000313415 0)
(0.00101181 8.95924e-05 0)
(0.000205275 -0.000213023 0)
(-0.000872345 -0.000582304 0)
(-0.00214714 -0.00103759 0)
(-0.00282786 -0.00139883 0)
(-0.00295393 -0.00155568 0)
(-0.00267793 -0.00177313 0)
(-0.00184826 -0.00201142 0)
(-0.000894744 -0.0022599 0)
(-0.0002398 -0.0024082 0)
(0.000168766 -0.00235587 0)
(0.000510646 -0.00212719 0)
(0.000758841 -0.00178809 0)
(0.000814575 -0.00144692 0)
(0.000740174 -0.00114055 0)
(0.00062615 -0.000922908 0)
(0.000548393 -0.000644607 0)
(0.00034044 -0.000566016 0)
(-1.49158e-05 -0.000485372 0)
(0.00100832 -0.024064 0)
(-3.92849e-05 -0.0162653 0)
(-0.000134635 -0.0148013 0)
(0.00353744 -0.0201832 0)
(0.00406127 -0.00851628 0)
(0.00315504 -0.00987563 0)
(0.0017059 0.000849768 0)
(0.00125615 -0.00386984 0)
(-0.00147553 0.00101477 0)
(-0.000136894 -0.00133751 0)
(-0.000783088 -0.00153134 0)
(-0.00208736 -0.00142796 0)
(0.000174252 -0.00193242 0)
(-4.25328e-05 -0.00121642 0)
(-0.000761761 -0.000923627 0)
(0.000242829 0.0012526 0)
(0.00176949 -0.00303598 0)
(0.00219444 0.00439943 0)
(0.00400433 -0.000908933 0)
(0.00317068 0.00454386 0)
(0.00206905 0.000566014 0)
(0.00188129 0.00476384 0)
(-0.00154053 0.000266744 0)
(0.00180597 -0.000870302 0)
(-0.0036896 -0.00165651 0)
(0.0011891 -0.00503669 0)
(-0.00225245 -0.00410703 0)
(0.000673476 -0.00507423 0)
(-0.00301167 -0.0052536 0)
(0.00120117 -0.0031697 0)
(0.000347805 -0.00231021 0)
(0.00148061 -0.00299338 0)
(0.0013477 -0.00286105 0)
(0.00191634 -0.00141144 0)
(0.00118334 -0.00238861 0)
(0.0010385 -0.00149983 0)
(0.000579023 -0.00192729 0)
(0.000498212 -0.00162817 0)
(0.000313888 -0.00161081 0)
(2.37822e-05 -0.00149938 0)
(-0.00028192 -0.00157192 0)
(-0.000547407 -0.00158281 0)
(-0.000673835 -0.00163496 0)
(-0.000735844 -0.00167076 0)
(-0.000727243 -0.00173313 0)
(-0.000712547 -0.00179438 0)
(-0.000665925 -0.00182838 0)
(-0.000496917 -0.00185657 0)
(-0.000157243 -0.00182917 0)
(0.000340176 -0.00162565 0)
(0.000913141 -0.00123436 0)
(0.00147493 -0.000688696 0)
(0.00185352 -0.000102392 0)
(0.00196768 0.000396041 0)
(0.00187894 0.000841906 0)
(0.0015874 0.00112878 0)
(0.00113183 0.00122731 0)
(0.00050755 0.00106717 0)
(-0.000375301 0.000663174 0)
(-0.00153525 -1.26908e-05 0)
(-0.00243411 -0.000732263 0)
(-0.00269753 -0.00110874 0)
(-0.00247743 -0.00138666 0)
(-0.00167395 -0.00157799 0)
(-0.000757966 -0.00173389 0)
(-0.000237592 -0.0017985 0)
(5.19185e-05 -0.00173651 0)
(0.000321179 -0.00159845 0)
(0.000520911 -0.00141226 0)
(0.000568219 -0.00120519 0)
(0.000512669 -0.000999438 0)
(0.000445521 -0.000859237 0)
(0.000393633 -0.000636116 0)
(0.000245214 -0.000616578 0)
(-1.77315e-05 -0.000532503 0)
(0.00160989 -0.0165799 0)
(0.00272561 -0.00879168 0)
(-0.00443311 -0.0115154 0)
(0.00129789 -0.00598979 0)
(-0.00215059 -0.0058457 0)
(0.00367121 -0.00393341 0)
(-0.000414983 -0.00203598 0)
(0.000736873 -0.00381712 0)
(-0.00149423 -0.00178797 0)
(-0.00178701 -0.00469866 0)
(0.000854614 -0.00342395 0)
(-0.000205397 -0.00336137 0)
(-0.00314996 -0.00268824 0)
(0.00229796 -0.000646196 0)
(-0.00199802 -2.72737e-05 0)
(0.000530486 0.00223288 0)
(-0.000968247 -0.000260277 0)
(-0.000788675 0.00322326 0)
(0.0036006 0.00265903 0)
(-0.000189187 0.00435348 0)
(0.00173158 0.00646269 0)
(0.00163753 0.00620695 0)
(-0.000114582 0.0055132 0)
(0.00117763 0.00480852 0)
(0.000784866 0.00432076 0)
(0.00192149 0.00363593 0)
(0.00106135 0.00112103 0)
(-0.000811855 0.00160636 0)
(-0.00127739 -0.000839996 0)
(-0.000751661 -0.000696758 0)
(0.000503486 -0.00176465 0)
(0.0012051 -0.0016766 0)
(-0.00017267 -0.00119409 0)
(0.00183655 -0.000968113 0)
(0.000546432 -0.00120513 0)
(0.00135368 -0.000430553 0)
(0.000738952 -0.000885155 0)
(0.00065105 -0.000441318 0)
(0.000352289 -0.00048504 0)
(4.19027e-05 -0.000373473 0)
(-0.000213146 -0.00049069 0)
(-0.000406656 -0.000655089 0)
(-0.000566561 -0.000852664 0)
(-0.000644253 -0.00106858 0)
(-0.000612215 -0.00130523 0)
(-0.000600099 -0.00152159 0)
(-0.000540553 -0.00178786 0)
(-0.000388132 -0.00208461 0)
(-0.000172514 -0.00230905 0)
(4.66441e-05 -0.00230509 0)
(0.000336081 -0.00203246 0)
(0.000701853 -0.00146271 0)
(0.00103606 -0.000669939 0)
(0.00126225 0.000205837 0)
(0.00133372 0.00102142 0)
(0.00123913 0.00167682 0)
(0.00106668 0.00204648 0)
(0.00076174 0.00208098 0)
(0.000190399 0.00177663 0)
(-0.000754892 0.00115631 0)
(-0.0018053 0.000305593 0)
(-0.00233487 -0.000294848 0)
(-0.00224667 -0.000706767 0)
(-0.00151827 -0.00105361 0)
(-0.000659569 -0.00128585 0)
(-0.000237754 -0.00136983 0)
(-1.38265e-05 -0.00137756 0)
(0.000197734 -0.00131299 0)
(0.000365234 -0.00118764 0)
(0.000402424 -0.00104763 0)
(0.000353124 -0.000901617 0)
(0.000317543 -0.000810588 0)
(0.000278416 -0.000626787 0)
(0.000176489 -0.000651768 0)
(-1.60449e-05 -0.000567759 0)
(0.000269633 -0.0120769 0)
(-0.00491684 -0.00455325 0)
(-0.00499335 -0.00558867 0)
(-0.000916779 -0.0028878 0)
(8.38766e-05 -0.00324437 0)
(-0.000247287 -0.00166831 0)
(0.00141495 -0.000435276 0)
(0.00033626 -0.00207668 0)
(0.00127162 -0.0017224 0)
(-0.00238423 -0.00113799 0)
(-0.000229547 -0.00531756 0)
(-0.0027003 -0.0020986 0)
(-0.00258298 -0.00173021 0)
(-0.000730191 -0.00199707 0)
(-0.00384046 -0.00266108 0)
(0.00135478 -0.000202972 0)
(-0.00295079 -0.000904587 0)
(2.56356e-05 0.00261694 0)
(0.0007717 -9.55378e-05 0)
(-0.00105935 0.00390542 0)
(0.00200002 0.000634821 0)
(-0.000252428 0.00637129 0)
(0.0017984 0.0035129 0)
(0.00108965 0.00370832 0)
(0.00287422 0.00613138 0)
(0.00104098 0.0068994 0)
(0.00138413 0.0045018 0)
(0.000905974 0.00690197 0)
(0.00192584 0.00365641 0)
(0.000782931 0.00511088 0)
(0.00022417 -0.00165469 0)
(0.00103025 0.00411083 0)
(0.00114688 -0.00121749 0)
(0.00121742 0.00200852 0)
(0.00108465 -0.000635125 0)
(0.000792822 0.000677346 0)
(0.000593306 -0.000868774 0)
(0.00030087 -0.000412852 0)
(0.000134811 -0.000738678 0)
(4.11756e-05 -0.000695904 0)
(-5.18673e-05 -0.000870311 0)
(-0.000214839 -0.00104643 0)
(-0.000290395 -0.00124803 0)
(-0.000336238 -0.00145188 0)
(-0.000307596 -0.00163244 0)
(-0.000241335 -0.0017963 0)
(-0.00011117 -0.00201975 0)
(9.63819e-06 -0.00226201 0)
(5.31908e-05 -0.0023367 0)
(5.70477e-05 -0.0022917 0)
(4.63802e-05 -0.00200321 0)
(6.75303e-05 -0.00140602 0)
(0.000148924 -0.000540237 0)
(0.00025555 0.000484498 0)
(0.00039619 0.00151331 0)
(0.000559189 0.00239016 0)
(0.000738132 0.00298783 0)
(0.000785883 0.00318631 0)
(0.000557978 0.00309436 0)
(-6.75753e-05 0.00267523 0)
(-0.000937775 0.00195286 0)
(-0.00161535 0.00108752 0)
(-0.00170586 0.000240521 0)
(-0.001102 -0.0005082 0)
(-0.000441408 -0.000911398 0)
(-0.000139296 -0.0010636 0)
(7.3377e-06 -0.00114087 0)
(0.000138265 -0.00112945 0)
(0.000256678 -0.00104568 0)
(0.000285075 -0.000937028 0)
(0.000247372 -0.000823424 0)
(0.000220522 -0.000773141 0)
(0.000195378 -0.000618272 0)
(0.000124604 -0.000675198 0)
(-1.40737e-05 -0.000592537 0)
(0.00728695 -0.014058 0)
(-0.00552702 -0.00893798 0)
(-0.00060448 -0.00454693 0)
(-0.00235692 -0.00279027 0)
(0.000934327 -0.00325237 0)
(-0.00118271 -0.000249117 0)
(0.000703792 0.00339807 0)
(-0.000198813 -0.00321898 0)
(0.0024046 0.00672699 0)
(-0.000491655 -0.000251967 0)
(-0.000124078 0.00494015 0)
(-0.000278136 -0.000272354 0)
(-0.000573467 0.00285055 0)
(-0.000115935 -0.00588911 0)
(-0.00229154 -0.00336554 0)
(-0.00268965 0.000177086 0)
(-0.000943385 -0.00731485 0)
(-0.00312123 0.00232837 0)
(0.000692082 -0.00146543 0)
(-0.00195138 0.00182944 0)
(0.00064478 0.00269863 0)
(-0.00187562 0.00334169 0)
(0.000629527 0.00454725 0)
(0.00055382 0.00335434 0)
(0.00137666 0.00399741 0)
(-0.000164201 0.00379353 0)
(0.000936268 0.00309944 0)
(0.000759471 0.00262214 0)
(0.00325681 0.00227726 0)
(0.00177531 0.00348354 0)
(0.00224646 0.00212501 0)
(0.000675354 0.00174194 0)
(0.00284469 0.000681653 0)
(0.000631859 -6.02123e-05 0)
(0.00213371 -0.000683685 0)
(0.00126364 -0.000647759 0)
(0.00143425 -0.00161566 0)
(0.000822902 -0.00141912 0)
(0.000492369 -0.00153972 0)
(0.000238517 -0.00143118 0)
(0.000143041 -0.00162212 0)
(2.15026e-05 -0.00188357 0)
(-0.000142247 -0.00217181 0)
(-0.000231356 -0.00241869 0)
(-0.000239425 -0.00256667 0)
(-0.000190209 -0.00267599 0)
(-9.93758e-05 -0.00274001 0)
(-7.30647e-05 -0.00272587 0)
(-0.000115369 -0.00258407 0)
(-0.000278238 -0.0022827 0)
(-0.000512693 -0.00174167 0)
(-0.000739791 -0.000953293 0)
(-0.000856684 1.30706e-05 0)
(-0.000804584 0.00105642 0)
(-0.000593523 0.00207262 0)
(-0.000237564 0.00291514 0)
(0.0002584 0.00351108 0)
(0.000657508 0.00370723 0)
(0.000715567 0.0036032 0)
(0.000398464 0.00325729 0)
(-0.000190456 0.00264045 0)
(-0.000637796 0.00174522 0)
(-0.000674675 0.000658809 0)
(-0.000377435 -0.000347876 0)
(-0.000114914 -0.0007936 0)
(-2.71928e-07 -0.00097147 0)
(4.70654e-05 -0.00103529 0)
(0.00010254 -0.00103188 0)
(0.000163408 -0.000961526 0)
(0.000185119 -0.000862638 0)
(0.000174064 -0.000770732 0)
(0.000150292 -0.000749975 0)
(0.000135835 -0.000607863 0)
(8.7316e-05 -0.000690094 0)
(-1.16176e-05 -0.000609407 0)
(-0.00198992 -0.0053986 0)
(-0.00340485 -0.0140474 0)
(-0.0025098 0.00035996 0)
(-0.00458176 0.00143612 0)
(0.00107524 0.000768536 0)
(-0.00677647 0.000557753 0)
(0.00137017 0.00244775 0)
(-0.00407615 0.00273792 0)
(-0.000883757 0.00373249 0)
(0.000132351 0.00275409 0)
(-0.000906049 0.00276744 0)
(0.000557719 0.00446246 0)
(0.00260767 0.00342126 0)
(-0.00332522 0.00108397 0)
(0.00370706 -0.00360806 0)
(-0.00616751 -0.000576351 0)
(0.00208858 -0.00434894 0)
(-0.00619915 -5.2009e-05 0)
(-0.00257247 -0.00196539 0)
(-0.00429101 0.00201555 0)
(-0.000387092 0.00360508 0)
(-0.000546926 0.00488097 0)
(0.00180136 0.00231891 0)
(0.00194083 0.00465167 0)
(0.000941357 0.00238801 0)
(0.00218163 0.00297939 0)
(0.0018433 0.00309401 0)
(0.00132917 0.00114431 0)
(0.0024032 0.00255393 0)
(0.00140489 0.000889573 0)
(0.00122919 0.00274484 0)
(0.00291061 0.000272572 0)
(0.00232685 8.79524e-06 0)
(0.00220105 -0.000116966 0)
(0.0024457 -0.00182032 0)
(0.00173596 -0.00170777 0)
(0.00134144 -0.0023234 0)
(0.000445723 -0.00230562 0)
(1.60219e-05 -0.00271461 0)
(0.000103349 -0.00300445 0)
(0.000371321 -0.00324144 0)
(0.000344691 -0.00345976 0)
(0.000173701 -0.00360282 0)
(2.89076e-05 -0.00367081 0)
(-4.66995e-05 -0.00362146 0)
(-7.37589e-05 -0.00350423 0)
(-7.57515e-05 -0.00327155 0)
(-0.000139397 -0.00301422 0)
(-0.000383525 -0.00258262 0)
(-0.000793678 -0.00201847 0)
(-0.00129324 -0.00127784 0)
(-0.0017317 -0.000515643 0)
(-0.00189762 0.000306604 0)
(-0.00182239 0.00114881 0)
(-0.00147878 0.00203396 0)
(-0.000889295 0.0027586 0)
(-5.6135e-05 0.00328661 0)
(0.000698712 0.00343332 0)
(0.000992473 0.00324774 0)
(0.000857116 0.00280254 0)
(0.000549704 0.00211479 0)
(0.00035836 0.00118484 0)
(0.000348898 0.000189251 0)
(0.000333637 -0.000500326 0)
(0.000210708 -0.000803591 0)
(0.000105512 -0.000932998 0)
(7.23632e-05 -0.000965821 0)
(6.43174e-05 -0.000946416 0)
(8.09138e-05 -0.00088452 0)
(0.000103251 -0.000807918 0)
(0.000115272 -0.000736578 0)
(0.000102819 -0.000731992 0)
(9.31747e-05 -0.000598618 0)
(6.0736e-05 -0.000700017 0)
(-8.99851e-06 -0.000620679 0)
(-0.00824577 0.00104527 0)
(0.00172736 0.00124329 0)
(-0.00117467 0.00511421 0)
(-0.0015262 0.0077642 0)
(-0.00129554 0.000942567 0)
(-0.0014849 -0.0010485 0)
(-0.000126575 0.00163849 0)
(-1.33796e-05 -0.00651083 0)
(-0.000572583 0.0011545 0)
(5.56653e-05 -0.0033002 0)
(0.000377038 1.05789e-05 0)
(-0.00211624 -0.00154515 0)
(0.00337047 -0.000232925 0)
(-0.0044018 -0.00197436 0)
(0.00388198 0.00127931 0)
(-0.00201593 0.00148722 0)
(0.00122787 -0.00456797 0)
(-0.00311621 -0.00267371 0)
(-0.00567418 0.00242225 0)
(-0.0057197 -0.00170285 0)
(-0.00476088 0.00671495 0)
(-5.87217e-06 0.00169921 0)
(0.00222737 0.00450843 0)
(0.0015962 -0.000411365 0)
(0.00218928 0.00242845 0)
(0.000521161 0.000559236 0)
(0.00174124 0.0015509 0)
(0.000931461 0.00209384 0)
(0.0028183 -0.000595979 0)
(0.00216804 0.00104965 0)
(0.00260565 -0.00205898 0)
(0.00275138 -0.00022344 0)
(0.00412113 -0.00142365 0)
(0.00253548 0.000312723 0)
(0.00282772 0.000293476 0)
(0.00203715 0.00117 0)
(0.00154055 0.000668737 0)
(0.00132616 0.000259479 0)
(0.00114262 -0.00116152 0)
(0.000825987 -0.00248711 0)
(0.000713564 -0.0030109 0)
(0.000398293 -0.00316059 0)
(0.000109535 -0.00313567 0)
(-0.00018976 -0.00314409 0)
(-0.000402161 -0.00296952 0)
(-0.00051607 -0.00280742 0)
(-0.000625298 -0.00252303 0)
(-0.00075392 -0.00217702 0)
(-0.00111891 -0.00170593 0)
(-0.00159776 -0.00121805 0)
(-0.00201102 -0.000776924 0)
(-0.00230555 -0.000472454 0)
(-0.00256229 -0.000109155 0)
(-0.00255773 0.000251523 0)
(-0.00222539 0.000749991 0)
(-0.00151272 0.00123427 0)
(-0.000430256 0.0016819 0)
(0.000676806 0.00190423 0)
(0.00133069 0.00177015 0)
(0.00153951 0.00128074 0)
(0.00145824 0.000609678 0)
(0.00127498 -0.000162839 0)
(0.000981769 -0.000669621 0)
(0.000604145 -0.0008395 0)
(0.000314392 -0.000841474 0)
(0.000163023 -0.000871322 0)
(6.54131e-05 -0.000886702 0)
(2.22573e-05 -0.000868358 0)
(2.22501e-05 -0.000822575 0)
(4.72972e-05 -0.000767751 0)
(6.71425e-05 -0.000715286 0)
(6.57236e-05 -0.000718517 0)
(6.08684e-05 -0.000591568 0)
(4.12399e-05 -0.000706917 0)
(-6.41147e-06 -0.000628313 0)
(0.00135419 -0.00170356 0)
(0.00281698 -0.00362662 0)
(0.00167661 -0.0023459 0)
(0.00189071 -0.00167603 0)
(-0.00205344 -0.00562254 0)
(0.00382405 -0.00716706 0)
(-0.00277925 -0.00687967 0)
(0.00242276 -0.0080231 0)
(-0.0017097 -0.00623582 0)
(-0.00142263 -0.00555005 0)
(-0.00174452 -0.00469396 0)
(0.000106111 -0.00342456 0)
(0.00215543 -0.005018 0)
(-0.0001986 -0.00332682 0)
(0.0044166 -0.00224606 0)
(-0.00100199 -0.00222904 0)
(-0.00209776 -0.0018351 0)
(-0.00215361 -0.00404203 0)
(-0.00727724 -0.00154246 0)
(-0.00891278 0.00405884 0)
(-0.0118941 0.00844465 0)
(0.00612238 0.00886274 0)
(0.00672609 0.00296538 0)
(-0.000112011 -0.000896388 0)
(0.00415862 -0.00144167 0)
(-0.0020134 -0.00287084 0)
(0.00367908 -0.00135858 0)
(0.00210998 -0.0057666 0)
(0.0027685 -0.000941764 0)
(0.00365241 -0.00747987 0)
(0.00420694 -0.00476821 0)
(0.000999126 -0.00481445 0)
(0.00174752 -0.00407739 0)
(0.00110941 -0.00227092 0)
(0.0017047 -0.00169618 0)
(0.00179795 -0.000786364 0)
(0.0022577 -0.000511671 0)
(0.00238872 -0.000345549 0)
(0.00253722 -0.00044658 0)
(0.00191255 -0.000581831 0)
(0.000990349 -0.00027925 0)
(0.000420425 0.000179769 0)
(9.88863e-05 0.000513621 0)
(-0.000174346 0.000553805 0)
(-0.000379555 0.00047935 0)
(-0.00053338 0.000266947 0)
(-0.000738845 0.000115748 0)
(-0.000938896 -6.4506e-05 0)
(-0.00126961 -0.000152954 0)
(-0.00168518 -0.000345887 0)
(-0.00204056 -0.0005837 0)
(-0.00232909 -0.000858624 0)
(-0.00258592 -0.00110944 0)
(-0.00262712 -0.00117435 0)
(-0.00242541 -0.00119449 0)
(-0.00179029 -0.00116339 0)
(-0.000724153 -0.00104265 0)
(0.000631499 -0.000876057 0)
(0.00161118 -0.000863017 0)
(0.00196147 -0.000992445 0)
(0.00195951 -0.00112584 0)
(0.00161835 -0.00127438 0)
(0.00102535 -0.00119724 0)
(0.000502135 -0.00101142 0)
(0.000271622 -0.000897319 0)
(0.000154996 -0.000845034 0)
(6.19677e-05 -0.000823114 0)
(-3.1119e-06 -0.000802734 0)
(-1.63518e-05 -0.000770234 0)
(5.34105e-06 -0.000734738 0)
(3.23003e-05 -0.000698104 0)
(4.05591e-05 -0.000707424 0)
(3.86377e-05 -0.000585505 0)
(2.79128e-05 -0.000711257 0)
(-3.94429e-06 -0.000633147 0)
(0.000256699 -0.00405476 0)
(0.000645593 -0.00248682 0)
(0.000353295 -0.00494275 0)
(0.00240307 -0.00434324 0)
(-0.000536233 -0.00537798 0)
(0.000759482 -0.00503757 0)
(0.000158048 -0.00271505 0)
(-0.00100518 -0.00736623 0)
(-4.87251e-05 -0.00730438 0)
(-0.00358263 -0.00810005 0)
(-0.000360522 -0.00770774 0)
(-0.00095846 -0.004475 0)
(0.00298283 -0.00690931 0)
(-0.00230664 -0.004028 0)
(0.00400366 -0.00143541 0)