/*--------------------------------*- C++ -*----------------------------------*\
  =========                 |
  \\      /  F ield         | OpenFOAM: The Open Source CFD Toolbox
   \\    /   O peration     | Website:  https://openfoam.org
    \\  /    A nd           | Version:  12
     \\/     M anipulation  |
\*---------------------------------------------------------------------------*/
FoamFile
{
    format      ascii;
    class       volVectorField::Internal;
    location    "0.4";
    object      cloud:UTrans;
}
// * * * * * * * * * * * * * * * * * * * * * * * * * * * * * * * * * * * * * //

dimensions      [1 1 -1 0 0 0 0];

value           nonuniform List<vector> 
3750
(
(-1.27423e-08 5.174e-08 0)
(3.48819e-10 -1.25879e-09 0)
(-8.01074e-11 -1.98474e-09 0)
(0 0 0)
(1.1527e-10 -2.41998e-09 0)
(-3.77821e-11 -2.23299e-09 0)
(-1.01202e-11 -2.13121e-09 0)
(1.12446e-10 -2.30615e-09 0)
(4.56305e-11 -1.82209e-09 0)
(5.66153e-11 -2.16874e-09 0)
(3.11014e-11 -2.09178e-09 0)
(-1.51077e-12 -2.15298e-09 0)
(-5.29005e-11 -2.27877e-09 0)
(8.82322e-11 -2.39713e-09 0)
(-4.52754e-11 -2.33108e-09 0)
(2.10643e-11 -2.18018e-09 0)
(-1.26256e-11 -1.6578e-09 0)
(-2.03965e-11 -2.0546e-09 0)
(1.09519e-11 -2.11918e-09 0)
(0 0 0)
(1.08866e-11 -1.95234e-09 0)
(-7.11137e-12 -2.54033e-09 0)
(-5.8282e-11 -2.34196e-09 0)
(-7.61178e-12 -2.08273e-09 0)
(-7.84217e-11 -2.04647e-09 0)
(-6.50215e-11 -4.76177e-09 0)
(3.12767e-11 -1.80693e-09 0)
(-7.34991e-12 -1.9214e-09 0)
(-1.31984e-11 -2.27731e-09 0)
(0 0 0)
(-1.03155e-11 -2.10121e-09 0)
(4.27394e-11 -3.56142e-09 0)
(2.88708e-11 -2.93636e-09 0)
(-3.79733e-11 -2.10632e-09 0)
(-2.76371e-11 -1.95969e-09 0)
(-4.97763e-11 -1.78309e-09 0)
(2.31735e-11 -2.49716e-09 0)
(0 0 0)
(1.14437e-10 -2.45337e-09 0)
(8.38703e-11 -2.10188e-09 0)
(-2.12823e-12 -2.01811e-09 0)
(-1.61213e-10 -2.18863e-09 0)
(0 0 0)
(-9.14994e-12 -2.13294e-09 0)
(0 0 0)
(9.87789e-12 -2.31425e-09 0)
(1.148e-10 -4.076e-09 0)
(2.97102e-11 -3.85364e-09 0)
(0 0 0)
(3.05484e-10 -2.21708e-09 0)
(0 0 0)
(8.72656e-11 -2.20361e-09 0)
(3.16542e-11 -2.21487e-09 0)
(6.31229e-12 -2.1901e-09 0)
(5.97146e-11 -2.35404e-09 0)
(3.86984e-11 -2.1742e-09 0)
(8.27537e-11 -2.12194e-09 0)
(-2.1976e-11 -4.39033e-09 0)
(-4.0915e-11 -2.02134e-09 0)
(1.69068e-10 -4.33365e-09 0)
(-1.04516e-11 -2.01037e-09 0)
(-6.55946e-11 -2.12565e-09 0)
(-7.72316e-11 -2.15421e-09 0)
(-5.28077e-11 -2.22452e-09 0)
(-2.99054e-11 -2.28779e-09 0)
(-4.83942e-11 -2.37954e-09 0)
(-4.05821e-11 -2.54486e-09 0)
(-2.51932e-11 -2.37334e-09 0)
(-1.3188e-11 -2.18381e-09 0)
(1.29026e-10 -3.0192e-09 0)
(2.83342e-11 -8.32868e-10 0)
(0 0 0)
(-1.93743e-11 -4.07257e-09 0)
(-5.24478e-11 -1.91138e-09 0)
(-3.66704e-11 -2.06256e-09 0)
(1.62357e-09 7.07904e-08 0)
(-6.88089e-12 -6.55341e-09 0)
(1.36277e-10 -1.97485e-09 0)
(0 0 0)
(-1.08572e-11 -2.02033e-09 0)
(0 0 0)
(-1.25032e-10 -4.53262e-09 0)
(3.40806e-11 -4.97093e-09 0)
(8.43289e-12 -1.99568e-09 0)
(5.99781e-11 -2.00112e-09 0)
(0 0 0)
(0 0 0)
(-7.72509e-11 -2.02952e-09 0)
(1.22161e-11 -2.22515e-09 0)
(-3.15937e-11 -2.45219e-09 0)
(-3.46659e-11 -2.37722e-09 0)
(4.39689e-12 -4.62767e-10 0)
(-3.30766e-11 -5.3855e-09 0)
(-2.42388e-10 -5.66045e-09 0)
(-2.25436e-11 -1.36748e-09 0)
(0 0 0)
(-4.11415e-11 -2.61643e-09 0)
(0 0 0)
(0 0 0)
(-3.31107e-11 -1.99965e-09 0)
(5.92683e-12 -1.88689e-09 0)
(-2.30835e-10 -8.07815e-09 0)
(3.9813e-11 -4.47682e-09 0)
(-1.0652e-10 -2.07974e-09 0)
(3.76273e-11 -2.01979e-09 0)
(7.49941e-11 -2.29255e-09 0)
(0 0 0)
(2.27326e-11 -2.16152e-09 0)
(-1.1432e-10 -2.45116e-09 0)
(-1.97187e-11 -2.09095e-09 0)
(1.33524e-10 -2.19836e-09 0)
(7.54255e-11 -2.12815e-09 0)
(0 0 0)
(0 0 0)
(-1.79296e-11 -4.45309e-09 0)
(8.3e-11 -7.56203e-09 0)
(-1.83837e-11 -1.84281e-09 0)
(-2.45137e-11 -1.99335e-09 0)
(0 0 0)
(9.01312e-12 -2.06856e-09 0)
(-2.71652e-11 -2.00508e-09 0)
(5.99153e-12 -3.73781e-09 0)
(-3.29552e-11 -4.08456e-09 0)
(-7.56471e-11 -3.14209e-09 0)
(-2.20865e-11 -3.32347e-09 0)
(-1.42424e-11 -2.16153e-09 0)
(-1.44981e-12 -2.14936e-09 0)
(3.87834e-11 -2.17804e-09 0)
(0 0 0)
(0 0 0)
(1.81807e-10 -2.02023e-09 0)
(1.77561e-10 -2.00683e-09 0)
(2.14025e-10 -5.32901e-09 0)
(0 0 0)
(0 0 0)
(-5.68161e-11 -2.12281e-09 0)
(-2.08324e-11 -2.0916e-09 0)
(8.31165e-12 -1.98375e-09 0)
(-1.62132e-11 -4.65687e-10 0)
(-5.62107e-11 -1.60683e-09 0)
(0 0 0)
(-1.37836e-11 -2.45539e-09 0)
(0 0 0)
(3.11314e-11 -2.10081e-09 0)
(1.01133e-10 -6.8743e-09 0)
(5.37101e-11 -1.85501e-09 0)
(4.50391e-11 -2.10738e-09 0)
(1.74521e-12 -2.12019e-09 0)
(0 0 0)
(-6.56856e-11 -1.85857e-09 0)
(2.56415e-09 7.50136e-08 0)
(1.45046e-09 -2.74488e-09 0)
(-5.54222e-11 -2.35778e-09 0)
(0 0 0)
(0 0 0)
(7.82836e-11 -1.98745e-09 0)
(6.27559e-11 -2.13854e-09 0)
(-1.42692e-10 -5.22516e-09 0)
(0 0 0)
(1.21315e-10 -2.07959e-09 0)
(2.11964e-10 -3.72955e-09 0)
(1.70421e-10 -2.69168e-09 0)
(5.21374e-11 -1.88971e-09 0)
(-2.13522e-10 -5.26666e-09 0)
(-2.65074e-10 -4.37277e-09 0)
(-1.03177e-10 -1.99913e-09 0)
(1.0367e-10 -1.83118e-09 0)
(1.25016e-10 -1.80367e-09 0)
(1.09457e-10 -2.00876e-09 0)
(7.26995e-11 -1.77726e-09 0)
(1.2649e-11 -1.9901e-09 0)
(4.87007e-11 -2.18848e-09 0)
(1.04573e-10 -2.18019e-09 0)
(-4.09092e-11 -2.12754e-09 0)
(-2.71303e-10 -1.97551e-09 0)
(-6.0208e-11 -1.63877e-09 0)
(-1.90813e-11 -2.0147e-09 0)
(-4.08392e-11 -2.14518e-09 0)
(2.05477e-10 -4.2831e-09 0)
(6.94718e-11 -1.83243e-09 0)
(1.52149e-10 -2.06068e-09 0)
(2.54742e-10 -2.67619e-09 0)
(0 0 0)
(0 0 0)
(5.48162e-11 -3.61365e-09 0)
(7.0714e-11 -3.05279e-09 0)
(9.96837e-11 -3.49825e-09 0)
(1.29065e-10 -3.57133e-09 0)
(1.74146e-11 -1.85321e-09 0)
(5.79254e-11 -2.18483e-09 0)
(0 0 0)
(0 0 0)
(1.96877e-10 -2.18141e-09 0)
(2.28758e-10 -4.71383e-09 0)
(1.89564e-10 -3.55146e-09 0)
(2.16247e-11 -2.52326e-09 0)
(0 0 0)
(-3.21619e-10 -2.06633e-09 0)
(-7.61176e-11 -2.07187e-09 0)
(-8.37652e-11 -2.91107e-09 0)
(-7.40764e-11 -3.21722e-09 0)
(-1.94541e-12 -1.30976e-10 0)
(7.64402e-11 -2.29195e-09 0)
(8.54561e-11 -2.3325e-09 0)
(5.53033e-11 -2.22184e-09 0)
(1.09992e-10 -2.1002e-09 0)
(0 0 0)
(2.96464e-11 -2.17641e-09 0)
(1.43539e-10 -1.76585e-09 0)
(-6.2859e-11 -1.92713e-09 0)
(-7.93212e-11 -3.95586e-09 0)
(1.16524e-10 -4.15298e-09 0)
(-1.18084e-11 -2.16991e-09 0)
(-1.40528e-11 -8.18249e-10 0)
(-1.51111e-10 -4.07002e-09 0)
(-1.19686e-10 -2.94854e-09 0)
(-7.92366e-11 -1.99247e-09 0)
(-3.03584e-11 -2.09303e-09 0)
(-4.9531e-11 -2.06827e-09 0)
(-2.39393e-11 -2.09529e-09 0)
(7.51269e-11 -2.11836e-09 0)
(3.03926e-11 -2.119e-09 0)
(3.69559e-11 -2.00937e-09 0)
(-5.86933e-12 -1.92374e-09 0)
(-1.9727e-10 -4.62811e-09 0)
(1.06371e-08 7.60024e-08 0)
(3.0696e-10 -1.12002e-09 0)
(2.25151e-10 -3.63037e-09 0)
(2.05873e-12 -4.94388e-09 0)
(2.7677e-10 -2.24171e-09 0)
(1.63425e-10 -2.28493e-09 0)
(2.49562e-12 -2.57922e-10 0)
(1.73718e-11 -1.72549e-09 0)
(1.02173e-10 -1.92419e-09 0)
(0 0 0)
(-8.51278e-11 -2.00051e-09 0)
(-1.23113e-10 -1.96274e-09 0)
(-4.14059e-10 -4.9129e-09 0)
(-8.02941e-11 -4.43931e-09 0)
(-1.56579e-10 -2.12938e-09 0)
(-1.14238e-10 -2.25115e-09 0)
(5.2807e-11 -3.65848e-09 0)
(5.16008e-11 -3.10603e-09 0)
(1.12215e-11 -1.938e-09 0)
(6.26872e-12 -1.97803e-09 0)
(-4.78357e-11 -1.84802e-09 0)
(-2.83295e-10 -5.12473e-09 0)
(-1.15514e-11 -2.41281e-09 0)
(3.26983e-11 -3.59717e-09 0)
(1.42652e-10 -3.98761e-09 0)
(-5.02172e-11 -1.85729e-09 0)
(-2.16495e-11 -3.2499e-09 0)
(9.44146e-12 -1.76561e-09 0)
(1.71e-11 -1.03534e-09 0)
(1.16523e-10 -2.15827e-09 0)
(1.10889e-10 -2.08562e-09 0)
(1.70794e-10 -2.128e-09 0)
(4.13341e-11 -2.42242e-09 0)
(4.19943e-11 -2.10286e-09 0)
(-1.39928e-10 -2.00096e-09 0)
(1.16978e-11 -2.53091e-09 0)
(2.12324e-11 -2.6726e-09 0)
(-1.54158e-11 -1.29269e-09 0)
(7.92363e-11 -2.15459e-09 0)
(-1.06988e-11 -2.16108e-09 0)
(9.62515e-11 -2.01538e-09 0)
(1.91702e-10 -2.18506e-09 0)
(3.47999e-11 -2.33325e-09 0)
(0 0 0)
(3.17539e-10 -2.17669e-09 0)
(3.1959e-10 -1.95462e-09 0)
(1.61181e-10 -2.34594e-09 0)
(5.2709e-11 -3.1641e-09 0)
(1.40079e-10 -5.08694e-09 0)
(0 0 0)
(-8.76845e-11 -2.10014e-09 0)
(1.21999e-11 -2.12602e-09 0)
(3.58234e-11 -2.45539e-09 0)
(1.08137e-11 -2.19342e-09 0)
(-2.37131e-11 -1.80059e-09 0)
(-1.20164e-11 -1.82741e-09 0)
(7.00205e-11 -4.68274e-09 0)
(-1.90417e-10 -4.54286e-09 0)
(-2.32099e-11 -4.27254e-09 0)
(-3.33826e-10 -1.71382e-09 0)
(2.83061e-11 -1.79366e-09 0)
(-1.98086e-10 -1.8353e-09 0)
(-1.05113e-10 -2.18047e-09 0)
(-4.81808e-11 -2.62934e-09 0)
(-6.61501e-11 -2.4801e-09 0)
(0 0 0)
(-7.8392e-11 -2.15695e-09 0)
(3.95698e-11 -3.08097e-09 0)
(5.27929e-11 -2.75945e-09 0)
(1.66915e-12 -6.88019e-11 0)
(8.39996e-12 -2.05445e-09 0)
(-1.53143e-11 -2.04984e-09 0)
(2.47187e-11 -1.92908e-09 0)
(-1.17038e-10 -4.51686e-09 0)
(-1.22938e-10 -1.98992e-09 0)
(1.29527e-09 6.78782e-08 0)
(3.51973e-10 -3.42854e-10 0)
(1.28424e-10 -2.30568e-09 0)
(0 0 0)
(2.40415e-10 -2.41231e-09 0)
(2.17997e-10 -2.16717e-09 0)
(1.70189e-10 -1.89175e-09 0)
(-5.37011e-11 -2.17857e-09 0)
(3.90585e-11 -4.82716e-09 0)
(9.59108e-11 -2.15857e-09 0)
(3.197e-11 -2.07975e-09 0)
(0 0 0)
(0 0 0)
(0 0 0)
(0 0 0)
(0 0 0)
(0 0 0)
(0 0 0)
(-1.84312e-11 -2.19991e-09 0)
(9.65834e-11 -4.7842e-09 0)
(-7.04689e-11 -2.05089e-09 0)
(-8.86571e-11 -1.96702e-09 0)
(0 0 0)
(0 0 0)
(3.1107e-11 -2.04272e-09 0)
(2.62559e-12 -2.0098e-09 0)
(-5.8606e-11 -1.99311e-09 0)
(-3.03604e-11 -2.06005e-09 0)
(-2.17818e-12 -2.10496e-09 0)
(2.93106e-11 -2.09849e-09 0)
(9.95434e-11 -2.03596e-09 0)
(2.29746e-10 -2.24154e-09 0)
(-1.06559e-11 -2.49628e-09 0)
(3.12701e-12 -9.11264e-10 0)
(1.65106e-10 -4.19897e-09 0)
(2.46556e-10 -3.6223e-09 0)
(5.68759e-11 -6.29551e-10 0)
(1.11013e-10 -1.139e-09 0)
(2.40478e-10 -2.23269e-09 0)
(9.78141e-11 -2.24363e-09 0)
(4.76357e-11 -2.10455e-09 0)
(1.40604e-10 -2.02041e-09 0)
(-1.87305e-11 -2.2284e-09 0)
(-5.32551e-11 -2.1289e-09 0)
(1.39958e-10 -2.1417e-09 0)
(3.19665e-10 -2.02763e-09 0)
(-1.04108e-10 -1.96262e-09 0)
(0 0 0)
(-1.06806e-10 -2.09181e-09 0)
(-4.10543e-11 -4.31555e-09 0)
(1.30888e-11 -2.05865e-09 0)
(6.73567e-11 -2.00148e-09 0)
(3.63998e-12 -2.44478e-09 0)
(-1.82324e-11 -1.83983e-09 0)
(7.61797e-11 -1.86601e-09 0)
(0 0 0)
(-1.26537e-11 -2.3976e-09 0)
(0 0 0)
(-5.915e-12 -1.91056e-09 0)
(-4.05944e-11 -1.85857e-09 0)
(-5.83639e-11 -1.97479e-09 0)
(-1.73513e-10 -2.05976e-09 0)
(-1.63907e-10 -2.12745e-09 0)
(-1.63957e-10 -4.92771e-09 0)
(-2.31421e-11 -2.08689e-09 0)
(8.81101e-11 -2.25092e-09 0)
(2.22182e-10 -5.01219e-09 0)
(-4.58848e-11 -2.11114e-09 0)
(-2.53095e-12 -2.1432e-09 0)
(-1.06114e-11 -2.14922e-09 0)
(0 0 0)
(5.86298e-11 -2.15748e-09 0)
(-1.01682e-10 -2.24879e-09 0)
(-1.01107e-10 -1.97622e-09 0)
(-5.74791e-11 -2.02989e-09 0)
(3.59609e-09 9.6051e-08 0)
(1.14472e-10 -2.10557e-09 0)
(7.69081e-11 -1.81096e-09 0)
(2.17529e-10 -2.34181e-09 0)
(4.473e-10 -5.36891e-09 0)
(1.59215e-10 -2.19529e-09 0)
(4.85849e-11 -2.18555e-09 0)
(-7.05074e-11 -2.16366e-09 0)
(0 0 0)
(6.7532e-11 -2.10159e-09 0)
(3.84221e-11 -3.03228e-09 0)
(-2.22034e-10 -3.55928e-09 0)
(-1.76727e-10 -2.05162e-09 0)
(-1.66429e-10 -2.74636e-09 0)
(-2.62712e-10 -4.22601e-09 0)
(7.57313e-11 -5.43872e-09 0)
(2.77802e-10 -3.57883e-09 0)
(4.55644e-11 -2.20586e-09 0)
(-9.58157e-11 -2.40106e-09 0)
(-3.66976e-11 -2.61845e-09 0)
(-4.54868e-11 -2.23796e-09 0)
(-7.375e-11 -2.08666e-09 0)
(8.61337e-11 -2.09439e-09 0)
(1.65915e-10 -1.97487e-09 0)
(1.14678e-10 -2.01321e-09 0)
(2.82452e-11 -2.03946e-09 0)
(-5.36799e-11 -2.0972e-09 0)
(-8.22285e-11 -2.11318e-09 0)
(-2.11744e-11 -2.12205e-09 0)
(-2.4299e-11 -2.0882e-09 0)
(-2.65681e-11 -2.36451e-09 0)
(1.05009e-10 -5.13829e-09 0)
(0 0 0)
(1.4272e-10 -2.17558e-09 0)
(7.23935e-11 -2.31018e-09 0)
(-3.39833e-11 -2.03537e-09 0)
(3.28647e-10 -2.31113e-09 0)
(1.88112e-10 -2.59809e-09 0)
(1.78596e-10 -5.16807e-09 0)
(3.70212e-11 -2.07723e-09 0)
(6.34126e-11 -1.94248e-09 0)
(9.16743e-11 -2.24464e-09 0)
(7.63515e-11 -1.18349e-09 0)
(1.17734e-11 -2.43145e-09 0)
(1.42599e-11 -1.79777e-09 0)
(2.95222e-11 -1.72748e-09 0)
(3.01173e-11 -1.73743e-09 0)
(5.13611e-11 -1.90939e-09 0)
(3.1866e-11 -2.19293e-09 0)
(-9.74252e-11 -3.34771e-09 0)
(2.50617e-11 -2.96234e-09 0)
(-4.2375e-11 -2.09586e-09 0)
(-6.67478e-11 -2.3336e-09 0)
(-3.43362e-11 -2.25639e-09 0)
(-1.01492e-10 -2.02295e-09 0)
(-4.23297e-11 -2.28249e-09 0)
(-1.57757e-10 -7.25764e-09 0)
(8.73398e-14 -1.97077e-09 0)
(-5.69897e-12 -1.84818e-09 0)
(-2.49685e-11 -1.95414e-09 0)
(0 0 0)
(-7.78051e-11 -2.02136e-09 0)
(-1.62897e-10 -2.25922e-09 0)
(-2.8967e-10 -4.54303e-09 0)
(-2.92066e-11 -2.04008e-09 0)
(3.72942e-11 -2.24596e-09 0)
(6.86459e-12 -2.31422e-09 0)
(8.10718e-11 -2.25808e-09 0)
(-4.42933e-11 -2.19564e-09 0)
(-9.89086e-11 -2.01047e-09 0)
(1.09453e-11 -1.99273e-09 0)
(-2.34983e-11 -2.57853e-09 0)
(-4.12558e-11 -2.12091e-09 0)
(-1.27571e-10 -3.0445e-09 0)
(-5.18362e-11 -1.88473e-09 0)
(1.04287e-08 8.3286e-08 0)
(-7.08353e-10 -2.62813e-09 0)
(3.74295e-10 -1.58392e-09 0)
(3.64896e-10 -2.33353e-09 0)
(6.5796e-11 -2.53106e-09 0)
(-2.49654e-11 -4.61712e-09 0)
(9.51711e-11 -2.74134e-09 0)
(0 0 0)
(5.15716e-11 -4.27682e-09 0)
(1.3731e-10 -1.91214e-09 0)
(1.01108e-10 -2.09804e-09 0)
(-1.0584e-10 -2.15653e-09 0)
(8.42478e-12 -2.21976e-09 0)
(1.02142e-10 -4.96949e-09 0)
(-1.75863e-11 -3.68217e-09 0)
(2.83902e-10 -1.69313e-09 0)
(-1.46652e-10 -2.01456e-09 0)
(-7.55782e-11 -2.15536e-09 0)
(-2.07676e-10 -2.71701e-09 0)
(-1.8787e-10 -5.07157e-09 0)
(3.74472e-11 -1.31139e-09 0)
(1.53551e-12 -5.47168e-11 0)
(1.91778e-11 -2.07295e-09 0)
(1.29479e-10 -2.13041e-09 0)
(1.0153e-10 -2.15866e-09 0)
(1.98616e-12 -1.98827e-10 0)
(8.48633e-12 -2.48697e-09 0)
(-7.7223e-12 -1.97998e-09 0)
(1.5242e-11 -2.04485e-09 0)
(1.48275e-11 -1.09699e-09 0)
(-3.25174e-11 -2.10131e-09 0)
(-1.66092e-10 -2.04254e-09 0)
(0 0 0)
(2.29892e-10 -4.92856e-09 0)
(-8.32127e-11 -5.20345e-09 0)
(4.99435e-11 -1.09308e-09 0)
(2.30338e-10 -4.49554e-09 0)
(4.35509e-11 -2.14882e-09 0)
(1.74507e-11 -2.0651e-09 0)
(1.10331e-10 -2.18551e-09 0)
(0 0 0)
(0 0 0)
(1.67705e-10 -2.22885e-09 0)
(8.36702e-11 -2.10574e-09 0)
(-1.7052e-11 -1.98282e-09 0)
(-6.34491e-11 -2.02067e-09 0)
(-2.00037e-10 -2.22086e-09 0)
(-1.44141e-10 -2.02374e-09 0)
(-2.42337e-10 -2.36698e-09 0)
(-2.98682e-10 -3.96639e-09 0)
(-2.25452e-10 -3.11858e-09 0)
(-4.58999e-11 -2.4077e-09 0)
(1.97451e-11 -2.4471e-09 0)
(-3.30435e-11 -2.23086e-09 0)
(-6.13118e-12 -4.04582e-10 0)
(-2.44464e-11 -1.29007e-09 0)
(-8.32481e-11 -2.29624e-09 0)
(1.85198e-11 -2.09902e-09 0)
(-3.09384e-11 -2.12409e-09 0)
(-9.01799e-11 -2.32865e-09 0)
(-1.6683e-10 -2.00526e-09 0)
(-1.1839e-10 -1.99519e-09 0)
(2.48919e-11 -2.04157e-09 0)
(0 0 0)
(-5.22819e-11 -1.92031e-09 0)
(8.0651e-11 -5.70324e-09 0)
(-3.44685e-11 -2.25747e-09 0)
(-4.63164e-11 -2.0118e-09 0)
(-5.81392e-11 -2.2845e-09 0)
(4.02909e-12 -1.89856e-09 0)
(-7.34894e-11 -1.98553e-09 0)
(-1.17399e-11 -2.46441e-09 0)
(0 0 0)
(2.63162e-11 -2.12391e-09 0)
(9.33978e-12 -2.19827e-09 0)
(5.42578e-09 7.59814e-08 0)
(-1.55204e-09 9.20114e-10 0)
(3.13363e-10 -4.39656e-09 0)
(1.56821e-10 -2.07275e-09 0)
(-4.57834e-12 -2.48897e-09 0)
(-7.26795e-11 -2.48345e-09 0)
(5.06001e-11 -2.43177e-09 0)
(0 0 0)
(1.23838e-10 -2.07469e-09 0)
(4.84128e-11 -4.31709e-09 0)
(-1.22256e-10 -2.41502e-09 0)
(0 0 0)
(-3.46731e-11 -5.11626e-09 0)
(0 0 0)
(1.44607e-10 -1.91446e-09 0)
(-2.79742e-10 -1.56977e-09 0)
(-1.06379e-10 -1.93963e-09 0)
(-1.51699e-10 -2.12081e-09 0)
(-1.06534e-10 -2.45174e-09 0)
(0 0 0)
(1.26928e-10 -2.2747e-09 0)
(0 0 0)
(6.20021e-11 -2.0898e-09 0)
(3.30721e-11 -2.12166e-09 0)
(-2.75572e-11 -2.05736e-09 0)
(1.40849e-10 -4.63705e-09 0)
(2.48739e-11 -2.03982e-09 0)
(9.89593e-13 -2.17517e-09 0)
(3.12509e-11 -2.13972e-09 0)
(1.09538e-11 -2.1074e-09 0)
(3.56929e-11 -3.46136e-09 0)
(-1.02065e-10 -3.09188e-09 0)
(-1.22178e-11 -1.9531e-09 0)
(0 0 0)
(0 0 0)
(1.94704e-10 -3.59148e-09 0)
(-5.84688e-12 -2.29451e-09 0)
(-2.9276e-11 -2.2501e-09 0)
(4.64904e-11 -2.03228e-09 0)
(0 0 0)
(1.8625e-10 -2.14623e-09 0)
(1.85616e-10 -2.23615e-09 0)
(1.67157e-10 -2.15433e-09 0)
(1.63902e-10 -2.09219e-09 0)
(6.30159e-11 -2.03481e-09 0)
(-1.47011e-10 -1.97027e-09 0)
(-1.85171e-10 -2.18191e-09 0)
(-2.83949e-10 -2.02106e-09 0)
(0 0 0)
(-2.65953e-10 -2.28214e-09 0)
(-2.52373e-10 -2.33481e-09 0)
(-1.2187e-10 -2.32218e-09 0)
(3.36609e-12 -2.347e-09 0)
(1.39953e-10 -2.34974e-09 0)
(-3.01236e-11 -2.21797e-09 0)
(6.07192e-11 -2.19485e-09 0)
(-3.23897e-11 -2.15535e-09 0)
(-1.16665e-11 -2.03636e-09 0)
(-8.3079e-11 -1.99794e-09 0)
(-1.42815e-10 -2.05923e-09 0)
(-1.48585e-10 -1.92637e-09 0)
(-1.21626e-10 -2.88544e-09 0)
(-7.84243e-11 -3.76031e-09 0)
(3.24361e-11 -4.55063e-09 0)
(-1.52006e-11 -1.0366e-09 0)
(-3.3925e-11 -3.46866e-09 0)
(1.88547e-12 -5.24498e-10 0)
(3.38847e-12 -3.93598e-09 0)
(-2.30017e-11 -2.14965e-09 0)
(6.30241e-11 -1.96943e-09 0)
(-2.19523e-11 -2.01773e-09 0)
(-8.22104e-11 -2.23261e-09 0)
(0 0 0)
(2.30938e-11 -1.98415e-09 0)
(5.45922e-11 -2.24834e-09 0)
(1.01779e-08 7.86001e-08 0)
(-8.25553e-12 8.08975e-10 0)
(7.96182e-11 -2.96415e-09 0)
(-1.00015e-11 -2.75239e-09 0)
(-8.68238e-11 -2.39927e-09 0)
(-7.67105e-11 -2.09953e-09 0)
(2.05062e-12 -2.1029e-09 0)
(1.06563e-10 -2.20188e-09 0)
(1.1447e-10 -2.09611e-09 0)
(1.04471e-10 -2.26616e-09 0)
(-3.42089e-12 -2.51457e-09 0)
(-1.13134e-11 -4.19475e-09 0)
(0 0 0)
(-9.65049e-12 -1.87955e-09 0)
(-4.46029e-11 -1.99639e-09 0)
(3.22974e-11 -2.0514e-09 0)
(-1.2726e-10 -4.34716e-09 0)
(-1.52134e-10 -1.84762e-09 0)
(-8.35678e-11 -2.3863e-09 0)
(-6.86978e-11 -2.09443e-09 0)
(2.48143e-11 -2.11578e-09 0)
(-8.98262e-12 -1.98397e-09 0)
(5.4473e-11 -2.11281e-09 0)
(0 0 0)
(0 0 0)
(0 0 0)
(-6.33926e-11 -2.29212e-09 0)
(0 0 0)
(0 0 0)
(0 0 0)
(0 0 0)
(1.15508e-11 -4.97325e-09 0)
(2.17498e-10 -2.03694e-09 0)
(2.04882e-10 -2.0588e-09 0)
(1.56314e-10 -1.97089e-09 0)
(6.41879e-11 -3.34619e-09 0)
(-7.24965e-11 -4.34239e-09 0)
(7.80694e-11 -2.06224e-09 0)
(6.7157e-11 -1.98769e-09 0)
(1.42954e-10 -2.04395e-09 0)
(1.30141e-10 -2.05936e-09 0)
(7.42763e-11 -2.23606e-09 0)
(9.17003e-11 -2.08233e-09 0)
(5.81022e-11 -1.92882e-09 0)
(4.88832e-11 -1.96067e-09 0)
(-2.93609e-12 -4.5034e-09 0)
(-3.14275e-11 -9.76965e-10 0)
(-7.67144e-12 -2.01849e-10 0)
(-5.31992e-11 -2.17346e-09 0)
(-1.38895e-10 -2.34942e-09 0)
(0 0 0)
(-1.14692e-10 -2.21973e-09 0)
(-8.04234e-11 -2.30835e-09 0)
(7.3555e-11 -2.53439e-09 0)
(-6.48557e-11 -2.06271e-09 0)
(1.20464e-11 -1.84619e-09 0)
(-1.23196e-11 -1.98825e-09 0)
(-9.11266e-12 -2.04778e-09 0)
(-9.1495e-11 -2.14683e-09 0)
(-1.54842e-10 -2.1527e-09 0)
(-2.06649e-10 -3.51768e-09 0)
(-1.92895e-10 -2.78064e-09 0)
(-1.61875e-10 -1.99312e-09 0)
(-1.04992e-10 -2.04424e-09 0)
(-5.84602e-11 -2.119e-09 0)
(9.15751e-12 -6.58374e-10 0)
(2.70027e-11 -1.17778e-09 0)
(5.70536e-11 -4.87254e-09 0)
(2.49664e-11 -1.94829e-09 0)
(7.69663e-11 -2.03257e-09 0)
(2.11674e-11 -2.13612e-09 0)
(-8.58429e-11 -2.13844e-09 0)
(1.78681e-11 -2.00881e-09 0)
(4.70058e-11 -2.09908e-09 0)
(3.5258e-11 -2.24956e-09 0)
(-1.32182e-09 9.32681e-08 0)
(-3.97978e-10 -7.14043e-10 0)
(-7.44936e-11 -2.27944e-09 0)
(5.34171e-12 -2.74099e-09 0)
(0 0 0)
(9.82804e-11 -2.34148e-09 0)
(3.59808e-11 -2.27485e-09 0)
(3.62031e-11 -2.21083e-09 0)
(9.78645e-11 -4.02645e-09 0)
(4.69425e-11 -3.31884e-09 0)
(1.01965e-10 -2.23808e-09 0)
(1.87854e-10 -1.98586e-09 0)
(-1.2479e-11 -1.98629e-09 0)
(5.7155e-11 -2.2246e-09 0)
(0 0 0)
(5.89336e-11 -2.22801e-09 0)
(-5.33123e-11 -1.95357e-09 0)
(0 0 0)
(-1.94303e-10 -2.19306e-09 0)
(0 0 0)
(3.68023e-12 -2.23241e-09 0)
(6.23553e-11 -2.19382e-09 0)
(1.21227e-10 -2.07376e-09 0)
(2.12756e-10 -2.13474e-09 0)
(2.69492e-10 -2.22285e-09 0)
(2.4385e-10 -2.17993e-09 0)
(6.37071e-11 -2.19994e-09 0)
(8.82758e-11 -5.08865e-09 0)
(0 0 0)
(1.45672e-10 -2.25319e-09 0)
(-7.52808e-13 -2.17034e-09 0)
(-4.11796e-11 -2.17498e-09 0)
(1.28996e-10 -2.04971e-09 0)
(1.67826e-10 -2.03052e-09 0)
(1.57882e-11 -2.96613e-09 0)
(9.90045e-12 -4.70703e-09 0)
(-1.71034e-11 -2.32851e-09 0)
(0 0 0)
(0 0 0)
(1.4638e-10 -2.08824e-09 0)
(1.72189e-10 -2.19388e-09 0)
(1.23327e-10 -2.01815e-09 0)
(1.86095e-10 -4.55137e-09 0)
(1.93623e-11 -4.21778e-09 0)
(7.48552e-11 -4.17375e-09 0)
(1.25888e-10 -2.00495e-09 0)
(-2.3518e-10 -2.66988e-09 0)
(-1.48445e-10 -8.93727e-10 0)
(-3.0469e-10 -5.18648e-09 0)
(5.22529e-11 -2.51424e-09 0)
(0 0 0)
(3.90554e-11 -2.35815e-09 0)
(-3.26986e-11 -2.28539e-09 0)
(4.65529e-11 -2.18917e-09 0)
(2.06673e-10 -2.19265e-09 0)
(8.75015e-11 -2.22687e-09 0)
(2.59231e-12 -2.14858e-09 0)
(-6.61928e-12 -2.15763e-09 0)
(0 0 0)
(-1.81369e-10 -2.05487e-09 0)
(-1.49042e-10 -1.98511e-09 0)
(-8.71696e-11 -1.90154e-09 0)
(-2.35823e-10 -2.30801e-09 0)
(-1.59733e-10 -2.16646e-09 0)
(-7.72586e-11 -2.44946e-09 0)
(-5.29322e-11 -2.05583e-09 0)
(2.4905e-11 -2.32285e-09 0)
(2.49833e-12 -2.29384e-09 0)
(-8.05558e-11 -2.26295e-09 0)
(-1.11965e-11 -2.16694e-09 0)
(-1.52982e-10 -5.42377e-09 0)
(-8.41021e-11 -2.01365e-09 0)
(-2.58627e-11 -1.97929e-09 0)
(-5.08227e-12 -2.17848e-09 0)
(-2.86378e-11 -2.70698e-09 0)
(1.37767e-08 6.58262e-08 0)
(-8.86966e-10 -1.52344e-09 0)
(-1.23946e-10 -2.19152e-09 0)
(-5.09354e-11 -2.72772e-09 0)
(1.10751e-10 -2.20937e-09 0)
(1.54504e-10 -2.49718e-09 0)
(0 0 0)
(1.49517e-10 -2.20279e-09 0)
(1.18518e-10 -2.27068e-09 0)
(1.19975e-10 -2.477e-09 0)
(0 0 0)
(-6.57234e-11 -2.0647e-09 0)
(6.81204e-11 -4.82521e-09 0)
(1.32886e-10 -1.82738e-09 0)
(5.97466e-11 -2.03892e-09 0)
(-7.18038e-11 -2.19368e-09 0)
(-1.33559e-11 -2.17208e-09 0)
(-1.21095e-10 -2.11824e-09 0)
(-2.2224e-11 -7.00983e-10 0)
(-2.88016e-11 -9.20667e-10 0)
(0 0 0)
(0 0 0)
(1.42992e-10 -2.08789e-09 0)
(5.75842e-10 -5.28028e-09 0)
(3.08811e-10 -1.93602e-09 0)
(2.9899e-10 -5.00887e-09 0)
(7.79783e-11 -1.98672e-09 0)
(3.91383e-11 -1.88277e-09 0)
(9.85477e-11 -1.85188e-09 0)
(7.47336e-11 -2.14585e-09 0)
(6.77273e-11 -2.0853e-09 0)
(8.23977e-11 -2.09511e-09 0)
(1.29111e-10 -2.17647e-09 0)
(5.40882e-11 -2.27039e-09 0)
(7.73817e-12 -2.1568e-09 0)
(-1.28433e-10 -5.49357e-09 0)
(0 0 0)
(1.52823e-10 -2.12564e-09 0)
(1.62707e-10 -2.06271e-09 0)
(1.44655e-10 -2.09477e-09 0)
(1.21192e-10 -2.15461e-09 0)
(-1.78846e-11 -2.13568e-09 0)
(8.38903e-11 -2.09345e-09 0)
(-2.17526e-11 -1.96187e-09 0)
(-6.74469e-12 -1.97402e-09 0)
(2.6777e-11 -2.15784e-09 0)
(0 0 0)
(-1.69212e-10 -2.00783e-09 0)
(-1.88303e-10 -2.1973e-09 0)
(3.95523e-11 -2.29005e-09 0)
(3.82594e-11 -2.44725e-09 0)
(1.08249e-10 -2.37814e-09 0)
(5.85876e-11 -1.95934e-09 0)
(1.07485e-10 -1.93327e-09 0)
(1.06971e-10 -2.0335e-09 0)
(6.32021e-11 -1.95366e-09 0)
(5.36595e-11 -2.12093e-09 0)
(-2.52765e-11 -2.09242e-09 0)
(-1.3695e-10 -4.63721e-09 0)
(-7.80395e-11 -1.98885e-09 0)
(-1.00866e-10 -2.09055e-09 0)
(-9.43196e-11 -2.36331e-09 0)
(-6.35587e-12 -9.59236e-10 0)
(-3.59835e-12 -5.29838e-10 0)
(-9.66021e-11 -2.12354e-09 0)
(-3.32233e-11 -2.18145e-09 0)
(-4.90776e-12 -3.28548e-09 0)
(-4.06489e-11 -4.0824e-09 0)
(-6.31423e-11 -2.08487e-09 0)
(-9.52694e-12 -2.15853e-09 0)
(-1.0889e-10 -2.25927e-09 0)
(-5.62705e-11 -2.15007e-09 0)
(-2.00665e-11 -1.94282e-09 0)
(-3.30758e-11 -2.10451e-09 0)
(-1.70785e-11 -2.60561e-09 0)
(-5.79273e-09 8.38122e-08 0)
(-9.76686e-10 2.76758e-09 0)
(-5.53899e-11 -2.52962e-09 0)
(8.28097e-13 -1.89052e-09 0)
(2.96348e-11 -2.47654e-09 0)
(3.82663e-11 -2.25233e-09 0)
(3.69936e-10 -2.20443e-09 0)
(1.96321e-10 -2.21963e-09 0)
(1.59725e-10 -2.29735e-09 0)
(7.33138e-11 -2.37557e-09 0)
(2.04452e-10 -5.40815e-09 0)
(9.64029e-11 -1.84148e-09 0)
(5.78141e-11 -1.87997e-09 0)
(-3.56851e-11 -1.89257e-09 0)
(-2.2477e-11 -2.07505e-09 0)
(-7.34375e-11 -2.12903e-09 0)
(-1.09114e-10 -2.1744e-09 0)
(-1.11734e-10 -2.21389e-09 0)
(-7.08465e-11 -2.1831e-09 0)
(8.04453e-12 -2.13496e-09 0)
(5.24923e-11 -2.2052e-09 0)
(1.58587e-11 -5.01004e-09 0)
(-4.63602e-11 -1.83714e-09 0)
(5.28245e-11 -2.49898e-09 0)
(5.63966e-11 -4.51159e-09 0)
(5.00547e-11 -2.01682e-09 0)
(8.81033e-11 -2.04503e-09 0)
(1.31995e-10 -2.0146e-09 0)
(1.23578e-10 -2.05781e-09 0)
(1.78786e-11 -2.17185e-09 0)
(-7.36429e-11 -2.09497e-09 0)
(-5.63841e-11 -2.0839e-09 0)
(-2.28509e-12 -5.23393e-09 0)
(3.59452e-11 -2.12327e-09 0)
(1.80587e-11 -2.1271e-09 0)
(-6.0211e-11 -2.05228e-09 0)
(1.90781e-10 -2.14953e-09 0)
(1.55958e-10 -2.04869e-09 0)
(9.99141e-11 -1.95859e-09 0)
(-7.4578e-11 -1.81257e-09 0)
(1.42709e-10 -4.38998e-09 0)
(3.65517e-11 -4.55584e-09 0)
(-4.61336e-11 -2.26747e-09 0)
(0 0 0)
(-1.28121e-11 -1.90846e-09 0)
(-5.65975e-11 -2.10837e-09 0)
(-2.29698e-12 -2.16251e-09 0)
(-8.3719e-11 -1.95998e-09 0)
(-2.29709e-10 -1.97508e-09 0)
(-1.58998e-10 -2.07642e-09 0)
(-2.49299e-11 -2.96361e-09 0)
(1.8419e-10 -4.7545e-09 0)
(2.0943e-10 -2.05203e-09 0)
(1.35021e-10 -1.85374e-09 0)
(1.39045e-10 -1.95622e-09 0)
(1.44429e-10 -2.28053e-09 0)
(-5.89465e-11 -2.26645e-09 0)
(-5.69438e-11 -2.13421e-09 0)
(-1.44084e-11 -1.98579e-09 0)
(-8.63634e-11 -2.04909e-09 0)
(-1.30784e-10 -1.99484e-09 0)
(-1.05439e-10 -2.04746e-09 0)
(1.75382e-11 -2.14214e-09 0)
(1.06053e-12 -2.11388e-09 0)
(-4.71671e-11 -2.11246e-09 0)
(-3.62725e-11 -2.11834e-09 0)
(-6.21459e-11 -2.15159e-09 0)
(-9.99763e-11 -2.16666e-09 0)
(5.15229e-11 -2.8153e-09 0)
(9.58532e-11 -4.39785e-09 0)
(-4.19513e-11 -2.14908e-09 0)
(-6.05445e-11 -2.00455e-09 0)
(-1.23161e-11 -2.80718e-10 0)
(-7.98032e-11 -1.56505e-09 0)
(-1.50666e-10 -2.14835e-09 0)
(-3.66528e-09 9.22484e-08 0)
(-1.22772e-10 1.97651e-09 0)
(4.09305e-11 -2.15342e-09 0)
(3.87343e-11 -2.41391e-09 0)
(4.29273e-11 -2.26232e-09 0)
(8.55139e-11 -2.15624e-09 0)
(1.18404e-10 -2.13761e-09 0)
(2.47432e-10 -4.0975e-09 0)
(5.24448e-11 -3.05599e-09 0)
(-1.28553e-11 -2.35693e-09 0)
(0 0 0)
(1.90161e-10 -2.12298e-09 0)
(7.10956e-11 -2.21184e-09 0)
(0 0 0)
(-7.47054e-11 -2.20033e-09 0)
(-1.81599e-11 -2.22057e-09 0)
(-1.01344e-10 -2.18995e-09 0)
(-1.65473e-10 -3.55996e-09 0)
(-5.14364e-11 -2.74571e-09 0)
(-6.43013e-11 -2.15727e-09 0)
(-1.09461e-10 -3.55391e-09 0)
(-5.57673e-11 -3.21421e-09 0)
(-4.09189e-11 -1.72824e-09 0)
(8.13332e-11 -2.03296e-09 0)
(7.13798e-11 -1.98128e-09 0)
(1.01169e-10 -2.11172e-09 0)
(9.24908e-11 -2.05053e-09 0)
(1.25185e-10 -2.59977e-09 0)
(4.83209e-11 -4.53082e-09 0)
(6.82444e-11 -2.19485e-09 0)
(-5.57005e-11 -1.9443e-09 0)
(-5.31528e-11 -2.00159e-09 0)
(-9.12499e-11 -2.08794e-09 0)
(4.59501e-11 -3.09279e-09 0)
(4.57817e-11 -4.12722e-09 0)
(2.2839e-11 -1.95704e-09 0)
(1.19625e-10 -1.90019e-09 0)
(2.04362e-10 -4.55171e-09 0)
(-2.07759e-10 -1.9886e-09 0)
(-1.8258e-10 -2.05278e-09 0)
(-1.87793e-12 -2.28701e-09 0)
(0 0 0)
(-5.17237e-12 -6.51053e-10 0)
(-5.89052e-11 -4.25703e-09 0)
(-2.09713e-11 -9.96671e-10 0)
(-8.27551e-11 -2.09033e-09 0)
(-2.00097e-11 -2.27042e-09 0)
(4.32298e-11 -2.07249e-09 0)
(-2.49989e-11 -1.85448e-09 0)
(5.0398e-11 -2.15238e-09 0)
(2.78065e-11 -2.13494e-09 0)
(6.38604e-11 -2.20558e-09 0)
(1.79383e-10 -2.14607e-09 0)
(1.22285e-10 -2.04722e-09 0)
(1.15261e-10 -2.07584e-09 0)
(7.76632e-11 -5.99509e-09 0)
(0 0 0)
(-1.015e-10 -2.19207e-09 0)
(9.18236e-11 -4.563e-09 0)
(-6.08375e-11 -2.04541e-09 0)
(-4.24926e-11 -2.05911e-09 0)
(-1.22881e-10 -2.06666e-09 0)
(-1.39268e-10 -2.12415e-09 0)
(6.84754e-12 -2.02614e-09 0)
(-8.02065e-11 -2.0765e-09 0)
(-7.00669e-11 -2.19925e-09 0)
(-6.38855e-11 -2.1765e-09 0)
(-1.32892e-10 -2.20174e-09 0)
(-9.81169e-11 -2.17442e-09 0)
(-1.00167e-10 -2.0934e-09 0)
(7.79277e-11 -5.53172e-09 0)
(1.77437e-11 -1.9628e-09 0)
(7.63475e-12 -2.00098e-09 0)
(-1.28668e-10 -2.06247e-09 0)
(-7.77262e-11 -2.09548e-09 0)
(6.2958e-09 8.12727e-08 0)
(-7.18233e-10 8.88451e-10 0)
(2.15411e-10 -2.15868e-09 0)
(1.87907e-11 -2.37327e-09 0)
(1.92347e-11 -2.25551e-09 0)
(8.53632e-11 -1.97513e-09 0)
(6.07575e-11 -1.96225e-09 0)
(1.75166e-11 -2.24515e-09 0)
(-3.32025e-11 -2.36981e-09 0)
(-4.5537e-12 -2.44901e-09 0)
(2.26381e-10 -2.1763e-09 0)
(3.43589e-11 -2.30921e-09 0)
(0 0 0)
(2.17354e-10 -5.86615e-09 0)
(0 0 0)
(-1.38489e-10 -5.32845e-09 0)
(5.64632e-11 -2.14332e-09 0)
(-4.05421e-11 -1.94396e-09 0)
(-2.30219e-11 -2.00018e-09 0)
(-2.72444e-11 -1.9846e-09 0)
(6.57591e-12 -2.31225e-09 0)
(-1.07003e-11 -2.16742e-09 0)
(-6.70897e-12 -1.91626e-09 0)
(5.81059e-11 -2.31621e-09 0)
(-1.1858e-11 -2.1693e-09 0)
(-3.40924e-11 -2.03033e-09 0)
(-3.71528e-11 -2.03022e-09 0)
(2.91421e-11 -2.05166e-09 0)
(-8.85795e-11 -2.03533e-09 0)
(-9.67274e-11 -5.66116e-09 0)
(-1.54339e-12 -2.01616e-09 0)
(2.18494e-11 -1.90482e-09 0)
(-1.14343e-11 -2.10573e-09 0)
(-3.34108e-11 -2.14231e-09 0)
(-6.21114e-11 -2.2506e-09 0)
(3.60019e-11 -2.23474e-09 0)
(9.12556e-11 -2.09626e-09 0)
(1.54065e-11 -2.29639e-09 0)
(-6.86445e-11 -2.22227e-09 0)
(-6.54086e-12 -1.61226e-10 0)
(-8.60133e-11 -1.81001e-09 0)
(1.27945e-11 -2.23911e-09 0)
(0 0 0)
(0 0 0)
(4.91888e-11 -2.06095e-09 0)
(-3.70017e-12 -2.18314e-09 0)
(0 0 0)
(8.35833e-11 -2.34344e-09 0)
(2.15856e-10 -2.09404e-09 0)
(4.11443e-11 -2.09438e-09 0)
(6.90621e-11 -2.07649e-09 0)
(7.23437e-11 -2.12909e-09 0)
(1.08255e-10 -2.19727e-09 0)
(1.04603e-10 -2.28455e-09 0)
(8.25283e-11 -2.1631e-09 0)
(-2.99188e-11 -2.55299e-09 0)
(4.97303e-12 -3.3834e-10 0)
(2.60985e-11 -1.79331e-09 0)
(-3.09021e-11 -1.93434e-09 0)
(-9.95732e-11 -2.03895e-09 0)
(-5.77543e-11 -2.0316e-09 0)
(-3.04049e-11 -4.60486e-09 0)
(-1.26485e-10 -4.51689e-09 0)
(-1.35722e-10 -1.92077e-09 0)
(-4.1682e-11 -2.17051e-09 0)
(-2.86183e-11 -2.04723e-09 0)
(-8.03459e-11 -2.04815e-09 0)
(-1.58368e-10 -2.16556e-09 0)
(-1.62533e-10 -2.17415e-09 0)
(-1.67917e-10 -2.25183e-09 0)
(-1.55658e-10 -2.28412e-09 0)
(5.08126e-12 -3.09893e-09 0)
(-6.44953e-12 -4.05199e-09 0)
(-1.19581e-10 -1.89486e-09 0)
(-1.05646e-10 -1.82556e-09 0)
(-9.88442e-10 6.19242e-08 0)
(-1.02594e-09 -1.72355e-09 0)
(1.598e-10 -2.02727e-09 0)
(5.54665e-13 -2.39848e-09 0)
(-2.38353e-11 -2.15135e-09 0)
(-5.69112e-11 -2.05573e-09 0)
(3.10508e-12 -9.49859e-10 0)
(-4.46041e-11 -3.47236e-09 0)
(3.91272e-11 -2.46494e-09 0)
(7.89688e-11 -2.11048e-09 0)
(4.43844e-11 -1.97285e-09 0)
(-4.57869e-12 -2.14482e-09 0)
(3.06424e-10 -1.96994e-09 0)
(8.08096e-11 -2.13261e-09 0)
(7.48427e-11 -2.10153e-09 0)
(-3.42125e-11 -2.13748e-09 0)
(1.099e-10 -1.92957e-09 0)
(1.02753e-10 -2.05051e-09 0)
(-1.93318e-11 -2.02872e-09 0)
(-6.58142e-11 -2.15545e-09 0)
(3.38365e-11 -2.60179e-09 0)
(-7.99605e-12 -7.71089e-10 0)
(-9.41946e-12 -8.57145e-10 0)
(-5.13748e-11 -2.15689e-09 0)
(-1.6486e-11 -1.91336e-09 0)
(6.74304e-11 -1.9577e-09 0)
(-6.94166e-12 -2.07e-09 0)
(-3.09926e-11 -2.04515e-09 0)
(-9.61018e-11 -2.26239e-09 0)