/*--------------------------------*- C++ -*----------------------------------*\
  =========                 |
  \\      /  F ield         | OpenFOAM: The Open Source CFD Toolbox
   \\    /   O peration     | Website:  https://openfoam.org
    \\  /    A nd           | Version:  12
     \\/     M anipulation  |
\*---------------------------------------------------------------------------*/
FoamFile
{
    format      ascii;
    class       volScalarField::Internal;
    location    "0.4";
    object      cloud:UCoeff;
}
// * * * * * * * * * * * * * * * * * * * * * * * * * * * * * * * * * * * * * //

dimensions      [1 0 0 0 0 0 0];

value           nonuniform List<scalar> 
3750
(
9.30151e-06
1.79991e-07
5.92759e-08
0
6.39542e-08
6.19774e-08
6.0879e-08
6.27748e-08
5.73974e-08
6.12935e-08
6.04503e-08
6.1115e-08
6.2466e-08
6.3708e-08
6.30119e-08
6.14083e-08
5.54243e-08
6.00381e-08
6.0748e-08
0
5.88915e-08
6.51444e-08
6.31285e-08
6.03484e-08
5.99644e-08
1.45853e-07
5.72152e-08
5.85395e-08
6.24436e-08
0
6.05515e-08
1.07615e-07
8.6855e-08
6.06093e-08
5.89771e-08
5.69398e-08
6.47138e-08
0
6.42941e-08
6.0576e-08
5.9632e-08
6.15635e-08
0
6.08977e-08
0
6.28322e-08
1.38471e-07
1.35909e-07
0
6.20289e-08
0
6.1679e-08
6.17832e-08
6.15155e-08
6.32541e-08
6.13481e-08
6.07953e-08
1.41912e-07
5.96726e-08
1.4133e-07
5.95451e-08
6.08291e-08
6.11435e-08
6.18907e-08
6.25561e-08
6.35153e-08
6.51932e-08
6.34479e-08
6.14482e-08
9.2319e-08
2.48951e-08
0
1.384e-07
5.84331e-08
6.01294e-08
5.08969e-06
4.53048e-07
5.91989e-08
0
5.96569e-08
0
1.43464e-07
1.48027e-07
5.9381e-08
5.9452e-08
0
0
5.97757e-08
6.1891e-08
6.4258e-08
6.34899e-08
1.37923e-08
1.74245e-07
1.97359e-07
4.08e-08
0
6.59044e-08
0
0
5.94284e-08
5.81434e-08
2.55852e-07
1.4267e-07
6.03456e-08
5.96547e-08
6.26167e-08
0
6.12086e-08
6.42719e-08
6.04397e-08
6.16478e-08
6.08601e-08
0
0
1.42597e-07
2.50693e-07
5.76335e-08
5.93563e-08
0
6.01923e-08
5.94883e-08
1.3256e-07
1.38558e-07
9.49303e-08
1.01367e-07
6.12082e-08
6.10759e-08
6.13894e-08
0
0
5.97472e-08
5.9594e-08
1.51371e-07
0
0
6.07958e-08
6.04469e-08
5.92469e-08
1.21868e-08
4.22469e-08
0
6.42886e-08
0
6.05492e-08
2.43465e-07
5.77834e-08
6.06241e-08
6.07587e-08
0
5.78291e-08
9.36138e-06
2.9925e-07
6.32909e-08
0
0
5.93058e-08
6.09684e-08
1.50503e-07
0
6.03529e-08
1.1034e-07
8.34348e-08
5.81841e-08
1.5645e-07
1.36504e-07
5.94493e-08
5.75311e-08
5.72252e-08
5.95611e-08
5.68791e-08
5.93186e-08
6.15037e-08
6.14361e-08
6.08431e-08
5.93637e-08
5.52026e-08
5.95949e-08
6.10348e-08
1.40812e-07
5.75267e-08
6.01674e-08
6.66033e-08
0
0
1.01135e-07
9.70919e-08
1.00931e-07
1.01226e-07
5.77547e-08
6.14665e-08
0
0
6.15178e-08
1.45419e-07
1.08704e-07
8.10735e-08
0
6.04429e-08
6.02441e-08
8.42087e-08
9.312e-08
3.85182e-09
6.26112e-08
6.30388e-08
6.18627e-08
6.05718e-08
0
6.13704e-08
5.67957e-08
5.86167e-08
1.37099e-07
1.39333e-07
6.12982e-08
2.21631e-08
1.07275e-07
6.91072e-08
5.93624e-08
6.04638e-08
6.01955e-08
6.04878e-08
6.07532e-08
6.07481e-08
5.95381e-08
5.85662e-08
1.44515e-07
6.92487e-06
1.01171e-07
1.31586e-07
1.4778e-07
6.2248e-08
6.25852e-08
7.18056e-09
4.83908e-08
5.86025e-08
0
5.94555e-08
5.90536e-08
1.47611e-07
1.42463e-07
6.09217e-08
6.21981e-08
1.06718e-07
9.12692e-08
5.87291e-08
5.9182e-08
5.77001e-08
1.49662e-07
7.34465e-08
1.21281e-07
1.37473e-07
5.78089e-08
9.88858e-08
5.05234e-08
2.93771e-08
6.12066e-08
6.04126e-08
6.09184e-08
6.39544e-08
6.05738e-08
5.94946e-08
7.33582e-08
7.40698e-08
3.62958e-08
6.11483e-08
6.1203e-08
5.96273e-08
6.1552e-08
6.30331e-08
0
6.162e-08
5.92122e-08
6.32202e-08
1.05908e-07
1.7268e-07
0
6.05595e-08
6.08225e-08
6.429e-08
6.15515e-08
5.71393e-08
5.74529e-08
1.45045e-07
1.43649e-07
1.40653e-07
5.64929e-08
5.70585e-08
5.76701e-08
6.1439e-08
6.60319e-08
6.45485e-08
0
6.11736e-08
9.18029e-08
8.33928e-08
2.07407e-09
6.00363e-08
5.99857e-08
5.86287e-08
1.43273e-07
5.93589e-08
9.34185e-06
1.57741e-07
6.27797e-08
0
6.39719e-08
6.13868e-08
5.82875e-08
6.13986e-08
1.46639e-07
6.11987e-08
6.03182e-08
0
0
0
0
0
0
0
6.16216e-08
1.46099e-07
6.14788e-08
5.76125e-08
0
0
5.99086e-08
5.95391e-08
5.93618e-08
6.01006e-08
6.05923e-08
6.05236e-08
5.98581e-08
6.21898e-08
6.47034e-08
2.73212e-08
1.29892e-07
1.01781e-07
1.70848e-08
3.14885e-08
6.21086e-08
6.211e-08
6.05937e-08
5.97127e-08
6.19262e-08
6.0861e-08
6.10426e-08
6.00173e-08
5.90404e-08
0
6.0478e-08
1.41108e-07
6.00831e-08
5.94587e-08
6.41804e-08
5.75973e-08
5.79196e-08
0
6.36977e-08
0
5.8415e-08
5.78208e-08
5.91556e-08
6.0176e-08
6.09065e-08
1.47608e-07
6.03955e-08
6.21829e-08
1.48544e-07
6.06653e-08
6.1009e-08
6.10747e-08
0
6.11724e-08
6.21668e-08
5.91911e-08
5.97724e-08
6.08034e-06
1.80587e-07
5.72796e-08
6.47265e-08
1.50289e-07
6.16334e-08
6.14724e-08
6.12433e-08
0
6.05673e-08
9.05015e-08
1.08072e-07
6.00894e-08
7.54131e-08
1.30318e-07
1.81043e-07
1.05236e-07
6.16896e-08
6.37514e-08
6.59231e-08
6.20322e-08
6.04058e-08
6.04961e-08
5.92255e-08
5.96138e-08
5.9872e-08
6.05147e-08
6.06996e-08
6.07801e-08
6.041e-08
6.91135e-08
1.42248e-07
0
6.14112e-08
6.56385e-08
5.7035e-08
6.30438e-08
7.10088e-08
1.43456e-07
6.02913e-08
5.87914e-08
6.2118e-08
3.30866e-08
7.39726e-08
5.71053e-08
5.62712e-08
5.63909e-08
5.841e-08
6.15484e-08
1.02026e-07
9.13204e-08
6.04972e-08
6.30437e-08
6.22255e-08
5.97145e-08
7.44849e-08
2.28794e-07
5.91001e-08
5.76945e-08
5.89141e-08
0
5.9685e-08
6.54482e-08
1.39692e-07
5.9879e-08
6.21152e-08
6.28316e-08
6.22559e-08
6.15798e-08
5.95737e-08
5.9348e-08
6.55254e-08
6.07711e-08
9.12063e-08
5.6862e-08
4.43409e-06
1.96874e-07
5.5054e-08
6.33296e-08
7.24676e-08
1.35058e-07
6.71371e-08
0
1.40678e-07
5.84901e-08
6.05431e-08
6.11823e-08
6.1833e-08
1.47946e-07
1.3371e-07
5.61407e-08
5.96522e-08
6.11553e-08
7.73221e-08
1.35942e-07
3.45658e-08
1.5041e-09
6.02415e-08
6.0913e-08
6.12024e-08
5.96067e-09
7.51928e-08
5.86095e-08
6.01886e-08
3.22483e-08
6.0555e-08
5.99794e-08
0
1.47562e-07
1.50386e-07
3.12345e-08
1.25401e-07
6.10749e-08
6.01547e-08
6.14964e-08
0
0
6.19975e-08
6.0619e-08
5.92371e-08
5.96719e-08
6.19415e-08
5.97525e-08
6.35084e-08
1.12618e-07
8.82982e-08
6.38047e-08
6.42041e-08
6.19544e-08
1.16658e-08
3.81368e-08
6.26582e-08
6.05281e-08
6.08037e-08
6.30005e-08
5.95664e-08
5.94149e-08
5.9895e-08
0
5.85352e-08
1.55277e-07
6.22369e-08
5.95674e-08
6.25276e-08
5.82772e-08
5.92822e-08
6.43795e-08
0
6.0801e-08
6.16032e-08
9.38944e-06
1.17103e-07
1.41835e-07
6.03038e-08
6.46292e-08
6.45831e-08
6.40525e-08
0
6.03004e-08
1.41137e-07
6.39069e-08
0
1.49498e-07
0
5.85227e-08
5.46419e-08
5.87807e-08
6.08245e-08
6.42737e-08
0
6.24538e-08
0
6.04361e-08
6.07775e-08
6.00703e-08
1.44581e-07
5.98755e-08
6.13548e-08
6.09737e-08
6.06192e-08
1.01401e-07
9.52159e-08
5.89008e-08
0
0
1.05283e-07
6.26251e-08
6.21582e-08
5.97959e-08
0
6.11299e-08
6.209e-08
6.12002e-08
6.05229e-08
5.98289e-08
5.9157e-08
6.15124e-08
5.98873e-08
0
6.26575e-08
6.31882e-08
6.29479e-08
6.3173e-08
6.32451e-08
6.18163e-08
6.15755e-08
6.11433e-08
5.98357e-08
5.94257e-08
6.0144e-08
5.86618e-08
8.66424e-08
1.12985e-07
1.43638e-07
2.80136e-08
9.30651e-08
1.48065e-08
1.15666e-07
6.10804e-08
5.90965e-08
5.96291e-08
6.19862e-08
0
5.92527e-08
6.21438e-08
5.26172e-06
1.8209e-07
1.08176e-07
6.72266e-08
6.37304e-08
6.05481e-08
6.05697e-08
6.16698e-08
6.05296e-08
6.23513e-08
7.28981e-08
1.29908e-07
0
5.80578e-08
5.93942e-08
6.00052e-08
1.41464e-07
5.77617e-08
6.35952e-08
6.04892e-08
6.07123e-08
5.92494e-08
6.06858e-08
0
0
0
6.26089e-08
0
0
0
0
1.4805e-07
5.99712e-08
6.01972e-08
5.9679e-08
9.16889e-08
1.18033e-07
6.01388e-08
5.93039e-08
5.99754e-08
6.01362e-08
6.202e-08
6.03662e-08
5.86341e-08
5.89928e-08
1.43184e-07
2.85662e-08
6.15619e-09
6.13432e-08
6.32407e-08
0
6.18644e-08
6.27843e-08
6.50971e-08
6.01388e-08
5.7672e-08
5.92978e-08
5.99624e-08
6.10697e-08
6.11726e-08
1.0591e-07
8.70385e-08
5.94261e-08
5.99529e-08
6.07545e-08
1.74788e-08
3.17513e-08
1.47025e-07
5.88475e-08
5.98094e-08
6.09332e-08
6.09762e-08
5.95288e-08
6.05337e-08
6.21526e-08
8.1788e-06
2.61003e-07
6.24768e-08
6.71184e-08
0
6.31383e-08
6.24209e-08
6.17409e-08
1.1361e-07
8.9573e-08
6.20534e-08
5.93706e-08
5.92758e-08
6.18923e-08
0
6.19292e-08
5.8914e-08
0
6.16395e-08
0
6.1968e-08
6.15651e-08
6.02888e-08
6.10324e-08
6.204e-08
6.15528e-08
6.16312e-08
1.49072e-07
0
6.22385e-08
6.13027e-08
6.1357e-08
6.00289e-08
5.98478e-08
8.42553e-08
1.26651e-07
6.29816e-08
0
0
6.04655e-08
6.16288e-08
5.96747e-08
1.43706e-07
1.4005e-07
1.39556e-07
5.95292e-08
8.60654e-08
2.80373e-08
1.50359e-07
6.48894e-08
0
6.32924e-08
6.25314e-08
6.15109e-08
6.16477e-08
6.19273e-08
6.10674e-08
6.11656e-08
0
6.01297e-08
5.93252e-08
5.83352e-08
6.28928e-08
6.13246e-08
7.0687e-08
5.57369e-08
6.0805e-08
6.26175e-08
6.23074e-08
6.12664e-08
1.52533e-07
5.96014e-08
5.91982e-08
6.13903e-08
6.67866e-08
9.40635e-06
1.78565e-07
6.15687e-08
6.6995e-08
6.1752e-08
6.47604e-08
0
6.17061e-08
6.24061e-08
6.45362e-08
0
6.0161e-08
1.46343e-07
5.75087e-08
5.98736e-08
6.15665e-08
6.13219e-08
6.07752e-08
1.9391e-08
2.60631e-08
0
0
6.0459e-08
1.51455e-07
5.89858e-08
1.48515e-07
5.92972e-08
5.81001e-08
5.77685e-08
6.10518e-08
6.03887e-08
6.05022e-08
6.14101e-08
6.23776e-08
6.11566e-08
1.5326e-07
0
6.08783e-08
6.01986e-08
6.05355e-08
6.11698e-08
6.09282e-08
6.04845e-08
5.9001e-08
5.91372e-08
6.11695e-08
0
5.95979e-08
6.1679e-08
6.2581e-08
6.42072e-08
6.35219e-08
5.89808e-08
5.8709e-08
5.9835e-08
5.8918e-08
6.07742e-08
6.04565e-08
1.44592e-07
5.93214e-08
6.0461e-08
6.33619e-08
2.60434e-08
1.49003e-08
6.08192e-08
6.14252e-08
9.24609e-08
1.1432e-07
6.03823e-08
6.11754e-08
6.22809e-08
6.10916e-08
5.87846e-08
6.05901e-08
6.57941e-08
6.98704e-06
1.99413e-07
7.19944e-08
5.14563e-08
6.45057e-08
6.21829e-08
6.19997e-08
6.19244e-08
6.27127e-08
6.3481e-08
1.52448e-07
5.76459e-08
5.80736e-08
5.82126e-08
6.02651e-08
6.08689e-08
6.1376e-08
6.18004e-08
6.14526e-08
6.09197e-08
6.32586e-08
1.46298e-07
5.7573e-08
7.20003e-08
1.34137e-07
5.96245e-08
5.99528e-08
5.96413e-08
6.01144e-08
6.132e-08
6.0497e-08
6.14385e-08
1.49274e-07
6.07957e-08
6.08348e-08
6.00218e-08
6.11701e-08
6.00383e-08
5.89915e-08
5.72953e-08
1.41963e-07
1.43691e-07
6.23445e-08
0
5.83917e-08
6.06376e-08
6.12179e-08
5.89987e-08
5.92998e-08
6.03459e-08
8.31152e-08
1.28641e-07
6.0128e-08
5.78167e-08
5.89921e-08
6.25259e-08
6.23374e-08
6.09197e-08
5.92703e-08
5.9997e-08
5.94199e-08
5.99889e-08
6.09984e-08
6.06898e-08
6.068e-08
6.07419e-08
6.11098e-08
6.1288e-08
8.29862e-08
1.23157e-07
6.10774e-08
5.94905e-08
8.02912e-09
4.54744e-08
6.11224e-08
8.15052e-06
1.98682e-07
6.1124e-08
6.38667e-08
6.22899e-08
6.11688e-08
6.09842e-08
1.18018e-07
8.23039e-08
6.32776e-08
0
6.08822e-08
6.17608e-08
0
6.16388e-08
6.18424e-08
6.15391e-08
1.05336e-07
8.78606e-08
6.1172e-08
1.00847e-07
9.84615e-08
5.62826e-08
5.98157e-08
5.92334e-08
6.06928e-08
6.0016e-08
7.71757e-08
1.29059e-07
6.15781e-08
5.88093e-08
5.94551e-08
6.04275e-08
8.98143e-08
1.15495e-07
5.89462e-08
5.83398e-08
1.43701e-07
5.94238e-08
6.01076e-08
6.25458e-08
0
1.96835e-08
1.33132e-07
3.03143e-08
6.04497e-08
6.23715e-08
6.02405e-08
5.777e-08
6.1115e-08
6.09213e-08
6.16914e-08
6.11218e-08
5.99966e-08
6.03077e-08
1.57997e-07
0
6.15622e-08
1.43782e-07
5.9946e-08
6.00925e-08
6.02117e-08
6.08518e-08
5.97217e-08
6.02968e-08
6.16256e-08
6.13793e-08
6.16835e-08
6.13708e-08
6.04919e-08
1.53576e-07
5.90109e-08
5.94404e-08
6.01694e-08
6.0504e-08
4.42609e-06
2.24007e-07
6.12934e-08
6.34457e-08
6.22143e-08
5.91705e-08
5.90148e-08
6.37139e-08
6.17524e-08
6.42234e-08
6.14941e-08
6.27822e-08
0
1.56922e-07
0
1.51633e-07
6.10185e-08
5.88013e-08
5.94328e-08
5.92584e-08
6.28108e-08
6.12715e-08
5.84807e-08
6.28596e-08
6.12919e-08
5.97714e-08
5.97708e-08
6.00075e-08
5.98454e-08
1.54859e-07
5.96101e-08
5.83508e-08
6.06009e-08
6.10022e-08
6.21702e-08
6.1996e-08
6.05187e-08
6.26446e-08
6.18715e-08
4.58937e-09
5.21353e-08
6.20395e-08
0
0
6.01145e-08
6.14405e-08
0
6.31516e-08
6.05946e-08
6.04807e-08
6.02923e-08
6.08692e-08
6.16212e-08
6.25452e-08
6.12414e-08
6.52733e-08
8.90845e-09
4.76781e-08
5.86898e-08
5.98913e-08
5.97915e-08
1.44215e-07
1.43254e-07
5.85871e-08
6.13089e-08
5.99583e-08
5.99839e-08
6.1314e-08
6.14095e-08
6.22408e-08
6.25715e-08
8.8477e-08
1.16613e-07
5.82787e-08
5.74668e-08
1.08645e-05
1.92486e-07
5.98045e-08
6.37047e-08
6.1099e-08
6.00591e-08
2.689e-08
9.28376e-08
6.43893e-08
6.0669e-08
5.91294e-08
6.10267e-08
5.93589e-08
6.09106e-08
6.05694e-08
6.09499e-08
5.86685e-08
6.0021e-08
5.97514e-08
6.11527e-08
6.57578e-08
2.09691e-08
2.39905e-08
6.11641e-08
5.84483e-08
5.89657e-08
6.02081e-08
5.99356e-08
6.23077e-08
6.27928e-08
6.12235e-08
6.01098e-08
5.94739e-08
6.14056e-08
6.175e-08
6.15636e-08
5.97642e-08
6.33465e-08
6.43396e-08
1.03094e-08
4.23926e-08
6.10438e-08
6.12748e-08
6.14551e-08
6.14104e-08
6.08863e-08
6.17454e-08
6.09826e-08
1.51289e-07
6.03854e-08
6.18659e-08
1.33748e-08
3.65656e-08
6.09471e-08
6.16774e-08
6.28136e-08
6.26315e-08
6.16756e-08
5.99119e-08
5.95496e-08
6.16833e-08
6.47415e-08
2.56045e-08
1.62299e-08
0
1.47207e-07
6.10264e-08
0
6.93863e-08
9.89866e-08
6.91042e-08
6.70091e-08
8.52428e-08
3.30851e-08
1.47341e-09
5.79336e-06
2.93126e-07
6.23058e-08
6.44154e-08
6.24309e-08
9.19411e-09
4.32206e-08
6.21429e-08
6.38398e-08
8.79888e-08
1.16508e-07
5.87014e-08
6.01979e-08
6.13438e-08
6.07879e-08
6.05017e-08
6.07863e-08
6.05766e-08
6.07851e-08
0
6.11811e-08
6.32493e-08
6.1669e-08
6.21461e-08
6.04021e-08
5.89595e-08
6.11374e-08
6.14285e-08
6.19198e-08
6.17903e-08
6.17368e-08
6.00321e-08
6.02572e-08
6.12386e-08
6.23783e-08
6.37155e-08
6.04488e-08
6.64237e-08
0
6.05968e-08
6.01622e-08
5.92949e-08
5.9603e-08
6.05382e-08
9.90885e-08
9.90938e-08
5.80386e-08
5.92965e-08
6.10805e-08
6.12061e-08
5.97428e-08
6.16638e-08
6.05727e-08
2.30705e-08
9.51401e-08
6.10369e-08
6.04984e-08
5.97845e-08
6.04776e-08
5.92096e-08
6.04226e-08
0
0
2.06171e-08
5.56157e-08
2.94535e-08
6.05366e-08
6.19986e-08
0
0
1.7049e-09
1.07799e-07
6.45515e-08
3.05256e-08
4.29463e-08
9.49427e-06
1.73748e-07
5.90504e-08
2.51203e-08
2.0399e-08
6.20868e-08
8.42257e-08
1.25768e-07
6.15687e-08
6.00028e-08
5.98472e-08
6.06785e-08
6.17725e-08
6.13169e-08
6.11169e-08
6.07734e-08
6.05233e-08
6.11569e-08
6.42602e-08
0
6.23295e-08
6.1999e-08
6.18432e-08
6.16717e-08
6.05357e-08
6.00916e-08
6.05535e-08
6.22357e-08
6.24677e-08
8.03659e-08
3.97663e-08
5.91371e-08
6.0716e-08
6.03521e-08
6.17185e-08
0
6.10491e-08
6.30396e-08
6.35305e-08
6.19853e-08
6.03529e-08
5.90657e-08
5.78088e-08
7.80852e-08
1.27604e-07
5.96036e-08
5.87304e-08
5.90412e-08
1.98961e-09
1.05186e-07
7.15647e-08
7.40592e-08
5.99299e-08
8.05708e-08
1.26899e-07
6.01697e-08
5.99011e-08
5.97175e-08
1.13399e-07
7.57267e-08
5.78341e-08
6.6085e-08
6.19283e-08
5.96581e-08
0
6.10523e-08
6.23071e-08
5.97928e-08
7.08474e-08
2.41761e-07
6.23439e-08
6.23401e-08
6.21237e-08
5.84585e-08
6.09448e-08
2.26622e-06
3.19979e-07
5.77469e-08
6.08477e-08
6.09491e-08
6.09497e-08
6.18442e-08
6.37537e-08
6.34952e-08
6.18235e-08
6.16604e-08
6.1269e-08
2.48158e-08
2.54565e-08
5.41488e-08
6.06492e-08
5.97435e-08
6.04413e-08
6.21024e-08
6.18693e-08
6.2291e-08
0
9.6311e-08
1.00557e-07
5.94713e-08
5.97314e-08
6.7421e-08
1.4572e-07
5.96122e-08
7.23184e-09
4.75887e-08
6.24032e-08
6.21778e-08
6.2706e-08
0
6.18219e-08
6.29273e-08
6.02424e-08
6.23898e-08
6.19794e-08
6.07833e-08
5.98798e-08
5.89984e-08
5.9826e-08
6.16422e-08
6.22434e-08
6.17028e-08
6.11838e-08
6.14425e-08
6.10194e-08
6.11723e-08
1.12325e-07
7.73556e-08
5.93753e-08
1.49297e-07
6.12974e-08
6.12748e-08
1.02913e-07
9.02564e-08
5.75035e-08
5.8343e-08
0
6.27936e-08
6.23676e-08
5.93868e-08
5.91038e-08
1.47457e-07
6.28966e-08
5.72613e-08
5.82231e-08
5.85887e-08
6.2412e-08
6.19122e-08
0
6.04232e-08
1.07676e-05
2.27767e-07
9.74498e-08
5.98789e-08
5.84755e-08
6.03875e-08
6.27639e-08
6.38953e-08
6.20115e-08
0
6.44522e-08
6.17025e-08
0
6.20562e-08
6.18035e-08
6.16244e-08
6.12317e-08
6.14575e-08
6.15869e-08
6.13553e-08
6.09889e-08
6.21115e-08
6.11053e-08
7.67078e-08
1.2418e-07
5.87434e-08
1.50595e-07
6.39041e-08
6.04509e-08
5.92194e-08
0
5.97715e-08
6.21002e-08
6.20551e-08
6.16335e-08
6.51932e-08
3.36556e-08
7.40263e-08
2.76318e-08
4.38061e-08
1.09794e-07
0
5.99559e-08
6.07401e-08
6.28607e-08
6.39189e-08
6.2065e-08
5.90738e-08
5.99776e-08
6.03346e-08
6.00639e-08
6.02586e-08
6.06597e-08
8.94706e-08
1.20061e-07
6.44411e-08
6.00753e-08
0
5.91007e-08
5.98272e-08
6.09e-08
6.14756e-08
1.46181e-07
1.46084e-07
1.09147e-07
1.15484e-07
9.86697e-08
5.82308e-08
0
6.18962e-08
6.07132e-08
6.17481e-08
6.12474e-08
6.08005e-08
6.0856e-08
5.24326e-06
2.46639e-07
9.28117e-08
1.04752e-07
5.79981e-08
5.94814e-08
6.41799e-08
6.55051e-08
0
6.31773e-08
6.29292e-08
4.23489e-09
5.38088e-08
6.24148e-08
6.19723e-08
6.17954e-08
6.12315e-08
6.11601e-08
6.1381e-08
6.16572e-08
6.06193e-08
5.9384e-08
1.50315e-07
5.89371e-08
5.87519e-08
5.9743e-08
6.07029e-08
8.2751e-08
5.13857e-08
8.72852e-08
7.21534e-08
3.93512e-08
3.49616e-08
6.18678e-08
6.13177e-08
6.21865e-08
6.18758e-08
1.01295e-07
9.62191e-08
6.05175e-08
0
6.25035e-08
6.01592e-08
2.81954e-08
9.87536e-09
1.53073e-07
6.02347e-08
0
0
6.12586e-08
6.2529e-08
6.15877e-08
0
0
0
0
6.31177e-08
5.97526e-09
5.19267e-08
6.04593e-08
0
6.27284e-08
0
6.30624e-08
0
6.11671e-08
6.08422e-08
0
0
1.44334e-07
5.98749e-08
6.04282e-08
6.30279e-08
1.47017e-07
5.83526e-08
6.93011e-06
1.9903e-07
1.45109e-07
5.9285e-08
5.95439e-08
6.01681e-08
6.15887e-08
6.07429e-08
1.53179e-07
1.51195e-07
5.97211e-08
9.34703e-08
9.43364e-08
6.07655e-08
3.08478e-08
4.23773e-08
2.25805e-08
6.14053e-08
6.18527e-08
6.16388e-08
1.48661e-07
5.92687e-08
5.95798e-08
6.04399e-08
5.95524e-08
6.11315e-08
6.18759e-08
6.00365e-08
6.00262e-08
6.05383e-08
6.07014e-08
6.11515e-08
6.2082e-08
6.18936e-08
6.10862e-08
6.09067e-08
6.08895e-08
1.4411e-07
5.94153e-08
6.03309e-08
0
6.13833e-08
6.16754e-08
6.10823e-08
6.07069e-08
6.30404e-08
6.0602e-08
1.41144e-07
1.39137e-07
6.12204e-08
0
5.9767e-08
6.12128e-08
5.98405e-08
1.43295e-07
6.45935e-08
6.07195e-08
6.21841e-08
6.15065e-08
0
6.0977e-08
6.36296e-08
0
6.09052e-08
6.06005e-08
6.12377e-08
6.1629e-08
6.19421e-08
6.2088e-08
2.64352e-08
8.10045e-08
1.50069e-07
5.93019e-08
8.1951e-08
1.22444e-07
5.91075e-06
1.17237e-07
1.02986e-07
5.89375e-08
6.05674e-08
5.97943e-08
5.89145e-08
5.97745e-08
1.53257e-07
6.28921e-08
6.61648e-08
0
1.39992e-07
1.38166e-07
1.41844e-07
5.80608e-08
2.5256e-08
1.42731e-08
5.9424e-08
1.53967e-07
6.17053e-08
5.83033e-08
5.78148e-08
5.9285e-08
6.10723e-08
6.15445e-08
1.64835e-08
2.86541e-08
6.06638e-08
6.19601e-08
6.1676e-08
6.36221e-08
6.03896e-08
6.05037e-08
6.07684e-08
1.50332e-07
5.83496e-08
5.80262e-08
5.96521e-08
6.04839e-08
6.14703e-08
6.15208e-08
5.97403e-08
6.17013e-08
6.17445e-08
6.15043e-08
5.98394e-08
5.89555e-08
5.83946e-08
1.43059e-07
9.32378e-08
9.89703e-08
1.1467e-07
7.60304e-08
5.96528e-08
6.1183e-08
6.23691e-08
6.28293e-08
0
6.04432e-08
6.08918e-08
6.1244e-08
6.02855e-08
1.43303e-07
5.81338e-08
5.85318e-08
0
1.00707e-07
1.6533e-07
8.1792e-08
5.85398e-08
6.2611e-08
6.31463e-08
6.29573e-08
6.18872e-08
8.11286e-06
3.26079e-07
1.37426e-07
5.81765e-08
1.46585e-07
5.90304e-08
6.01632e-08
0
0
0
0
6.16374e-08
1.01631e-07
1.93584e-08
1.48261e-08
3.48981e-08
8.46813e-08
3.82076e-08
7.39637e-08
1.3931e-07
6.06385e-08
5.91781e-08
5.87031e-08
5.92806e-08
6.05034e-08
6.17706e-08
5.94223e-08
6.09338e-08
6.58819e-08
0
6.16464e-08
6.15269e-08
6.17167e-08
6.15798e-08
1.52758e-07
6.03127e-08
5.79145e-08
5.89796e-08
6.20231e-08
0
1.42111e-07
2.5746e-07
5.91184e-08
6.26145e-08
0
2.47933e-08
8.79251e-08
5.99179e-08
6.07655e-08
6.24417e-08
7.78964e-09
4.44712e-08
6.35713e-08
6.52449e-08
6.01572e-08
6.03061e-08
6.20361e-08
6.20816e-08
6.03336e-08
1.41017e-07
1.42279e-07
5.68746e-08
1.44956e-07
5.92791e-08
5.90491e-08
6.13053e-08
1.04524e-07
9.28147e-08
6.35767e-08
0
5.92163e-08
5.91289e-08
6.0838e-08
6.1689e-08
7.16492e-08
6.9635e-06
1.87031e-07
2.79158e-08
7.95345e-09
6.1719e-08
6.26467e-08
8.92834e-08
1.1102e-07
5.99773e-08
6.14715e-08
1.50383e-07
0
0
6.1084e-08
0
6.27947e-08
6.21061e-08
6.29489e-08
6.29558e-08
6.29425e-08
6.08251e-08
6.03236e-08
6.02552e-08
6.08721e-08
6.08719e-08
6.00039e-08
5.96847e-08
1.9173e-08
1.09909e-07
6.38498e-08
5.92846e-08
5.99266e-08
6.35654e-08
6.15494e-08
6.17625e-08
6.06267e-08
5.90736e-08
5.8571e-08
6.03247e-08
6.16547e-08
6.19633e-08
2.24886e-08
9.72504e-08
5.91737e-08
6.13547e-08
6.22195e-08
6.02995e-08
6.68837e-08
1.43023e-07
5.98032e-08
5.85204e-08
5.94899e-08
6.56591e-08
0
6.35171e-08
6.09583e-08
1.51341e-07
6.04297e-08
5.91619e-08
6.2109e-08
1.42433e-07
5.86816e-08
6.05667e-08
6.04037e-08
6.05363e-08
6.47063e-08
2.47309e-08
1.71704e-08
6.21854e-08
6.14198e-08
6.14433e-08
6.14529e-08
6.09488e-08
1.15749e-07
7.84868e-08
4.38978e-06
4.56393e-07
1.00473e-07
6.263e-08
0
6.08505e-08
6.21372e-08
6.25707e-08
6.21516e-08
6.1728e-08
1.48485e-07
6.04171e-08
1.44367e-07
5.79005e-08
5.90969e-08
8.87975e-08
1.16997e-07
6.50869e-08
6.42385e-08
6.06969e-08
5.93301e-08
5.94078e-08
6.05957e-08
6.00497e-08
6.01491e-08
5.99552e-08
5.94632e-08
6.00924e-08
1.13942e-07
8.36592e-08
5.86055e-08
6.42243e-08
6.37785e-08
2.15393e-08
3.23451e-08
6.18019e-08
5.23619e-08
5.93515e-08
9.0119e-08
1.13484e-07
5.8682e-08
6.15383e-08
0
6.1271e-08
6.20643e-08
6.14364e-08
6.13289e-08
6.15609e-08
1.33416e-08
3.77156e-08
5.8475e-08
5.89101e-08
6.15496e-08
6.30349e-08
7.72178e-08
9.5214e-08
6.73737e-08
8.89645e-08
0
6.03431e-08
5.8378e-08
6.2106e-08
1.49367e-07
5.90336e-08
0
6.09383e-08
6.16486e-08
6.14064e-08
6.13352e-08
6.16994e-08
6.21141e-08
6.11462e-08
6.16229e-08
6.14405e-08
6.14524e-08
4.3309e-06
2.64123e-07
5.66299e-08
1.14918e-08
4.13301e-08
6.16158e-08
6.19332e-08
6.13665e-08
6.28543e-08
6.42906e-08
6.38324e-08
6.05552e-08
5.91794e-08
1.4081e-07
5.71064e-08
5.9685e-08
6.20334e-08
6.21007e-08
6.24114e-08
6.16724e-08
6.20535e-08
6.08143e-08
6.0663e-08
6.03003e-08
5.96579e-08
5.96745e-08
1.47785e-07
6.02083e-08
6.2526e-08
5.89898e-08
5.81528e-08
6.05455e-08
6.41028e-08
6.23823e-08
6.38416e-08
3.88077e-10
5.96542e-08
1.0176e-07
9.78446e-08
6.05992e-08
5.93618e-08
5.94886e-08
6.27423e-08
6.29883e-08
6.01773e-08
6.0117e-08
6.12219e-08
6.12143e-08
6.08681e-08
6.03774e-08
5.93714e-08
8.60883e-08
9.31761e-08
8.23944e-08
2.81738e-08
4.27822e-08
2.78743e-08
0
6.24542e-08
5.98194e-08
6.01215e-08
0
6.22385e-08
5.96235e-08
5.9259e-08
6.03666e-08
6.27832e-08
6.22217e-08
6.14628e-08
6.12706e-08
0
0
6.16093e-08
6.17795e-08
0
8.13996e-06
4.14296e-07
0
6.02927e-08
5.96255e-08
6.20417e-08
6.10326e-08
6.08409e-08
6.24118e-08
6.88328e-08
0
6.00901e-08
1.46392e-07
5.79128e-08
5.78305e-08
1.49087e-07
6.11838e-08
6.18091e-08
6.23506e-08
6.13709e-08
6.06627e-08
6.04236e-08
6.07077e-08
6.07046e-08
6.03079e-08
6.01351e-08
7.13252e-08
1.39079e-07
6.1382e-08
5.96742e-08
5.92463e-08
6.02228e-08
6.64239e-08
0
6.19437e-08
4.91191e-09
1.34473e-07
6.49088e-08
0
6.2505e-08
6.09704e-08
0
6.18359e-08
7.43375e-08
1.3048e-07
9.68862e-08
1.04413e-07
6.02577e-08
5.9599e-08
6.026e-08
6.22732e-08
6.28074e-08
6.1994e-08
6.05582e-08
6.0541e-08
5.99901e-08
0
6.16104e-08
6.17147e-08
6.09603e-08
6.61703e-08
0
1.45751e-07
5.95503e-08
5.89364e-08
6.13938e-08
6.26436e-08
6.16887e-08
6.14927e-08
6.77956e-09
1.28685e-07
6.11398e-08
0
0
6.18646e-08
6.04734e-06
4.47523e-07
1.4718e-07
5.88375e-08
6.17423e-08
6.13661e-08
6.43693e-08
6.18156e-08
6.45359e-08
6.83922e-08
2.75227e-08
1.4064e-08
0
6.57851e-08
9.78409e-08
9.47761e-08
6.19068e-08
6.35319e-08
6.25549e-08
6.1056e-08
5.98783e-08
6.01743e-08
6.08393e-08
0
6.01451e-08
8.2388e-08
1.25462e-07
0
6.35609e-08
6.18035e-08
6.08527e-08
6.11322e-08
6.28568e-08
6.26584e-08
0
1.53752e-07
5.13303e-08
6.17618e-08
6.48544e-08
0
6.19589e-08
6.23763e-08
1.40746e-07
7.98106e-08
1.21876e-07
5.95868e-09
8.57614e-08
6.55972e-08
5.22669e-08
1.09183e-07
6.41173e-08
6.393e-08
6.25177e-08
6.01678e-08
5.92599e-08
5.94968e-08
6.07391e-08
6.08306e-08
6.09462e-08
1.4462e-07
1.50267e-07
5.9742e-08
5.78776e-08
5.80043e-08
6.00199e-08
6.0674e-08
6.22142e-08
6.16735e-08
6.08257e-08
6.06415e-08
5.88696e-08
5.80556e-08
5.93637e-08
6.0173e-08
8.33802e-08
6.08083e-06
9.92722e-07
5.28241e-08
6.16197e-08
5.9628e-08
6.33878e-08
6.1739e-08
1.33904e-09
1.51982e-07
0
6.39723e-08
6.2048e-08
6.05534e-08
6.07118e-08
6.12386e-08
6.11188e-08
1.11816e-07
9.11731e-08
6.27005e-08
5.76933e-08
5.81091e-08
5.95056e-08
0
1.42577e-07
0
0
0
6.39647e-08
6.23293e-08
6.17316e-08
6.19653e-08
6.21024e-08
6.18624e-08
6.22743e-08
5.95913e-08
6.00543e-08
6.07475e-08
0
6.2752e-08
5.92087e-08
5.86225e-08
5.97508e-08
6.05833e-08
6.0853e-08
6.13147e-08
5.97987e-08
6.04074e-08
6.08343e-08
6.01671e-08
6.14896e-08
6.11332e-08
6.10842e-08
6.12823e-08
6.1952e-08
6.08011e-08
7.50673e-08
4.32629e-08
6.09228e-08
1.45341e-07
5.71101e-08
6.03545e-08
6.36814e-08
5.91549e-08
6.03955e-08
5.99683e-08
6.15385e-08
6.25241e-08
6.17294e-08
0
0
5.96097e-08
6.30021e-08
9.7053e-08
7.60405e-08
8.53601e-08
3.73229e-06
3.33596e-08
5.56124e-08
1.53064e-07
6.18235e-08
6.14231e-08
6.07992e-08
6.1869e-08
6.55498e-08
6.56966e-08
6.39351e-08
2.92872e-08
7.90006e-09
5.97975e-08
5.98528e-08
1.51065e-07
6.20016e-08
6.33894e-08
0
6.03756e-08
5.94712e-08
6.02881e-08
1.91288e-08
3.75109e-08
6.61099e-08
4.24788e-08
1.40073e-07
6.14225e-08
6.30423e-08
6.18048e-08
6.23486e-08
6.20162e-08
6.08116e-08
6.05888e-08
6.14848e-08
6.13686e-08
5.97893e-08
6.02182e-08
1.53189e-07
6.0549e-08
5.96591e-08
6.05379e-08
6.09734e-08
6.05761e-08
6.12987e-08
6.09738e-08
6.08503e-08
5.99252e-08
5.91271e-08
6.11157e-08
6.1802e-08
6.12796e-08
1.13263e-07
8.34897e-08
6.05908e-08
6.00945e-08
0
1.47511e-07
7.99183e-08
4.06888e-08
5.90735e-08
6.22078e-08
6.08176e-08
6.01811e-08
8.60201e-08
9.11853e-08
8.11476e-08
0
1.41488e-07
6.95815e-08
1.22347e-07
5.84701e-08
6.02569e-08
6.12482e-08
6.506e-08
1.44903e-05
1.07115e-07
8.3012e-08
1.17708e-07
6.28753e-08
6.01491e-08
3.07513e-08
1.13556e-08
5.38552e-08
6.38683e-08
6.39158e-08
6.23301e-08
6.04419e-08
1.41728e-07
1.49965e-07
5.74686e-08
5.64485e-08
0
8.92343e-08
1.12356e-07
5.84133e-08
5.91837e-08
0
6.14218e-08
1.11135e-07
1.70892e-07
5.83881e-08
6.25158e-08
6.02154e-08
6.43575e-08
6.40646e-08
6.08486e-08
5.90152e-08
5.89881e-08
0
0
6.08322e-08
9.73192e-08
1.01355e-07
6.14896e-08
6.15505e-08
6.16064e-08
6.18036e-08
0
6.06232e-08
6.11861e-08
6.02709e-08
6.17619e-08
5.82783e-08
1.49509e-07
5.99682e-08
5.99116e-08
6.03059e-08
9.86977e-08
1.0371e-07
6.23125e-08
6.26276e-08
6.33445e-08
1.27047e-08
3.78024e-08
5.9766e-08
6.072e-08
6.09556e-08
6.11663e-08
8.24007e-08
1.26289e-07
0
6.03099e-08
5.94177e-08
0
1.11365e-07
1.79825e-08
4.86219e-08
6.06496e-08
6.14088e-08
9.28589e-06
1.01613e-07
6.01557e-08
6.01717e-08
6.21682e-08
6.10697e-08
5.84564e-08
1.46338e-07
6.12304e-08
6.28261e-08
5.8737e-09
5.16295e-08
6.14362e-08
6.24558e-08
6.33805e-08
5.98493e-08
5.72705e-08
1.41117e-07
1.8858e-08
2.9519e-08
6.15453e-08
6.24225e-08
6.17923e-08
6.21769e-08
6.05012e-08
5.93866e-08
1.46143e-07
5.92683e-08
6.06992e-08
6.08911e-08
1.15418e-07
8.90262e-08
5.8182e-08
5.75045e-08
5.9519e-08
6.0834e-08
1.48236e-07
5.80073e-08
5.99569e-08
1.24439e-08
3.80223e-08
6.16983e-08
6.02254e-08
1.53743e-07
2.21457e-08
9.89072e-08
6.02362e-08
5.84154e-08
5.81511e-08
6.03666e-08
0
6.22239e-08
6.20787e-08
6.16351e-08
6.16911e-08
6.06592e-08
6.08704e-08
6.17023e-08
6.1347e-08
6.07985e-08
6.06556e-08
6.13026e-08
6.08515e-08
6.15058e-08
6.20341e-08
6.21088e-08
7.10336e-08
8.40595e-08
2.96983e-08
6.32175e-08
0
1.45529e-07
1.48319e-07
5.8433e-08
5.98849e-08
3.78239e-06
9.68499e-08
9.90756e-08
2.17486e-08
9.71729e-08
2.5313e-08
1.52097e-07
1.90009e-08
3.40202e-08
1.4065e-07
5.79887e-08
1.44728e-07
5.9995e-08
6.32125e-08
6.32713e-08
6.0647e-08
5.88016e-08
5.75919e-08
6.27657e-08
6.25512e-08
6.17679e-08
6.34204e-08
6.2566e-08
6.1296e-08
6.12032e-08
6.02293e-08
5.99519e-08
6.02876e-08
6.07848e-08
6.08621e-08
1.52895e-07
6.08045e-08
5.92661e-08
5.81363e-08
1.03347e-07
9.39621e-08
0
6.36187e-08
7.1825e-08
1.3072e-07
1.82379e-08
2.84117e-08
6.40959e-08
0
8.28687e-08
9.09024e-08
8.5291e-08
5.71797e-08
5.7378e-08
6.04297e-08
6.25439e-08
6.09462e-08
6.18563e-08
6.23275e-08
6.1379e-08
5.99163e-08
5.97228e-08
6.12362e-08
6.27749e-08
6.11983e-08
6.09385e-08
6.06932e-08
6.05647e-08
6.11482e-08
6.16879e-08
6.24677e-08
6.19064e-08
6.00022e-08
5.95639e-08
5.99237e-08
5.89084e-08
6.02362e-08
0
1.47474e-07
6.01161e-08
4.37291e-06
1.76766e-07
1.46585e-07
6.08733e-08
6.00469e-08
6.05384e-08
6.07825e-08
6.1873e-08
6.17882e-08
6.21076e-08
7.11272e-08
8.97259e-08
9.99299e-08
6.35183e-08
6.17549e-08
5.51272e-08
5.71613e-08
5.93636e-08
5.93288e-08
9.28566e-08
1.08719e-07
6.26921e-08
6.00668e-08
6.38367e-08
0
6.21119e-08
6.16468e-08
6.14741e-08
6.07966e-08
0
6.12259e-08
6.29961e-08
6.23748e-08
5.99118e-08
1.05128e-07
9.38194e-08
5.98979e-08
5.86493e-08
5.96746e-08
6.0289e-08
6.15165e-08
6.23105e-08
0
6.1199e-08
1.52606e-07
5.854e-08
5.87822e-08
5.83347e-08
0
6.42115e-08
6.35244e-08
5.76478e-08
6.31878e-08
2.09406e-08
2.3193e-08
5.93469e-08
7.79116e-08
1.3617e-07
0
6.20025e-08
6.15177e-08
5.97077e-08
6.02599e-08
6.07528e-08
6.25441e-08
6.27454e-08
6.14363e-08
5.96967e-08
5.80561e-08
6.24139e-08
5.601e-08
5.99335e-08
6.38166e-08
0
1.46028e-07
9.58218e-06
7.34585e-08
1.01047e-07
6.09886e-08
5.94484e-08
6.09868e-08
6.10797e-08
6.15207e-08
6.12355e-08
1.41603e-08
3.8207e-08
6.18441e-08
6.21687e-08
5.96529e-09
8.77961e-08
1.11384e-07
5.93909e-08
0
1.43859e-07
5.82602e-08
6.07846e-08
6.20866e-08
6.16982e-08
6.22953e-08
6.54172e-08
1.67582e-08
3.10659e-08
6.09653e-08
6.0148e-08
6.15667e-08
6.277e-08
6.11394e-08
6.19596e-08
6.09213e-08
6.17242e-08
6.09748e-08
5.81957e-08
5.87312e-08
5.84483e-08
5.95186e-08
1.53029e-07
6.06058e-08
1.40503e-07
7.27138e-08
6.40976e-08
3.74786e-08
5.87641e-08
6.11452e-08
5.94184e-08
6.15276e-08
6.10501e-08
1.05316e-07
1.6492e-08
6.15579e-08
0
6.05871e-08
6.2161e-08
0
6.2586e-08
6.15325e-08
6.10933e-08
6.10205e-08
1.4022e-07
1.52234e-07
6.42606e-08
2.16967e-08
9.53577e-08
5.85064e-08
5.83268e-08
5.854e-08
6.05631e-08
6.06817e-08
8.36784e-09
4.91939e-08
6.28262e-08
8.44831e-06
2.394e-07
5.63069e-08
6.14976e-08
6.25981e-08
6.22478e-08
8.83344e-08
4.09437e-08
5.26126e-08
6.18626e-08
6.18076e-08
6.16782e-08
0
6.29319e-08
0
0
0
1.11234e-07
7.89367e-08
5.91636e-08
5.92009e-08
6.01487e-08
6.13062e-08