/*--------------------------------*- C++ -*----------------------------------*\
  =========                 |
  \\      /  F ield         | OpenFOAM: The Open Source CFD Toolbox
   \\    /   O peration     | Website:  https://openfoam.org
    \\  /    A nd           | Version:  12
     \\/     M anipulation  |
\*---------------------------------------------------------------------------*/
FoamFile
{
    format      ascii;
    class       volScalarField;
    location    "0.4";
    object      p;
}
// * * * * * * * * * * * * * * * * * * * * * * * * * * * * * * * * * * * * * //

dimensions      [0 2 -2 0 0 0 0];

internalField   nonuniform List<scalar> 
3750
(
1.48864
1.47796
1.47251
1.46458
1.45547
1.44418
1.43421
1.42499
1.41782
1.40789
1.39712
1.38557
1.3744
1.36459
1.35786
1.35208
1.34553
1.33318
1.31989
1.30711
1.29645
1.28678
1.27969
1.26976
1.2587
1.24731
1.23268
1.2237
1.21199
1.21109
1.19999
1.18921
1.17209
1.16011
1.15942
1.14731
1.13528
1.12356
1.11278
1.10267
1.09351
1.08703
1.07735
1.06691
1.05612
1.04486
1.03478
1.02386
1.01362
1.00075
0.989642
0.979038
0.969089
0.959426
0.949753
0.940035
0.930213
0.920409
0.910829
0.901853
0.88814
0.873885
0.863466
0.855156
0.844441
0.835943
0.828167
0.822058
0.81268
0.802898
0.785414
0.776252
0.766579
0.752166
0.74215
1.48655
1.4751
1.47412
1.46572
1.45685
1.44434
1.43463
1.42429
1.41886
1.40851
1.39778
1.38537
1.37406
1.3633
1.35773
1.35284
1.34937
1.33348
1.31936
1.30514
1.29565
1.28553
1.28157
1.27091
1.25887
1.24642
1.23302
1.22551
1.21485
1.20695
1.19719
1.18513
1.17535
1.16616
1.1585
1.14663
1.13497
1.12247
1.11272
1.10171
1.09286
1.08879
1.07801
1.06726
1.05657
1.04456
1.03444
1.02438
1.01499
0.999023
0.989111
0.978309
0.968747
0.959454
0.950011
0.939973
0.930037
0.920224
0.910288
0.899751
0.887144
0.87275
0.86584
0.857656
0.84152
0.835346
0.828388
0.82455
0.812718
0.800449
0.7874
0.776297
0.765842
0.754013
0.743011
1.48518
1.478
1.46968
1.4671
1.45687
1.44607
1.43652
1.42633
1.41692
1.40854
1.40015
1.38438
1.37358
1.36874
1.35713
1.35172
1.34452
1.33054
1.31997
1.30856
1.29696
1.28604
1.2809
1.27219
1.25926
1.24778
1.23518
1.22523
1.21413
1.20455
1.19361
1.18147
1.17764
1.16968
1.16109
1.1455
1.13611
1.11804
1.11419
1.10126
1.09575
1.08695
1.07639
1.06778
1.0585
1.04262
1.03398
1.02413
1.01297
1.00243
0.988664
0.975582
0.968246
0.959954
0.950603
0.939626
0.92983
0.920326
0.91013
0.898974
0.886641
0.875323
0.862786
0.857754
0.840156
0.83756
0.833811
0.823985
0.811503
0.798876
0.787508
0.775856
0.765908
0.755351
0.744232
1.48251
1.47809
1.47135
1.4668
1.45638
1.44674
1.43927
1.42518
1.41677
1.40839
1.39954
1.38517
1.37419
1.371
1.36027
1.35215
1.34476
1.32516
1.32159
1.31
1.29882
1.28509
1.28211
1.27302
1.25959
1.24956
1.23727
1.22461
1.21108
1.20266
1.19243
1.18144
1.17289
1.1723
1.16011
1.14812
1.13602
1.11913
1.11271
1.1038
1.09361
1.08583
1.07299
1.06862
1.05692
1.04443
1.03406
1.02532
1.01087
0.998576
0.987974
0.977048
0.968332
0.961988
0.951736
0.938813
0.929326
0.921456
0.910825
0.899232
0.887324
0.875821
0.86379
0.853008
0.844739
0.841784
0.833295
0.824764
0.810357
0.795914
0.787579
0.775113
0.766684
0.756379
0.745511
1.48307
1.47311
1.47081
1.46644
1.45501
1.44667
1.43701
1.42706
1.41774
1.40865
1.39903
1.3864
1.37718
1.37032
1.36043
1.35186
1.34281
1.32699
1.31981
1.30921
1.3026
1.28636
1.27931
1.27052
1.26055
1.24889
1.23492
1.22468
1.21318
1.20275
1.19239
1.18068
1.1729
1.17415
1.15854
1.14151
1.13901
1.12145
1.11197
1.10534
1.09459
1.08562
1.07578
1.06642
1.05544
1.04391
1.03272
1.02179
1.01055
0.999366
0.987418
0.976463
0.967692
0.965061
0.952798
0.939648
0.927546
0.924627
0.912143
0.89945
0.887579
0.877103
0.866547
0.855822
0.844225
0.839185
0.830414
0.820602
0.809136
0.797746
0.786857
0.775271
0.768166
0.757429
0.74607
1.48419
1.47423
1.47103
1.46535
1.45037
1.44721
1.43507
1.4286
1.41945
1.40951
1.40073
1.38546
1.37815
1.37141
1.35933
1.3516
1.33443
1.32684
1.31889
1.30578
1.3041
1.2894
1.27853
1.2675
1.25966
1.24893
1.23646
1.22503
1.21366
1.20286
1.19404
1.17764
1.17555
1.16835
1.15828
1.14353
1.1349
1.12604
1.10937
1.10726
1.09469
1.08629
1.07897
1.06543
1.05448
1.04314
1.03133
1.0186
1.01005
1.00086
0.983906
0.974793
0.969326
0.96519
0.957113
0.942882
0.92647
0.926487
0.91255
0.898651
0.888773
0.878391
0.869558
0.85568
0.843489
0.836224
0.829324
0.818071
0.807873
0.799317
0.786247
0.772906
0.771431
0.759302
0.745851
1.48514
1.47277
1.47262
1.46264
1.45485
1.44176
1.43246
1.43128
1.4203
1.40927
1.3986
1.3886
1.37803
1.36888
1.36428
1.34924
1.33709
1.32741
1.31927
1.30427
1.30431
1.28781
1.27778
1.26737
1.25916
1.25118
1.23774
1.22567
1.21375
1.2009
1.19309
1.18172
1.17401
1.16556
1.15361
1.14976
1.13091
1.1264
1.11254
1.10576
1.09538
1.08594
1.07654
1.06532
1.05418
1.04295
1.03106
1.0189
1.00904
0.999671
0.980741
0.975759
0.970345
0.965319
0.961824
0.94243
0.931826
0.925019
0.912666
0.897196
0.892985
0.87838
0.86699
0.857907
0.845118
0.833115
0.83099
0.815551
0.80652
0.801698
0.785714
0.772381
0.769789
0.757201
0.745342
1.4879
1.47579
1.46962
1.45868
1.45381
1.44122
1.43539
1.43318
1.42057
1.40879
1.39691
1.39097
1.3766
1.37275
1.36213
1.34988
1.33841
1.32659
1.31679
1.30831
1.30025
1.28887
1.27787
1.26748
1.25847
1.24878
1.23753
1.22624
1.21458
1.20395
1.19617
1.18227
1.17154
1.16371
1.15326
1.14104
1.13088
1.12623
1.1139
1.10465
1.09507
1.08544
1.07569
1.06438
1.05391
1.04344
1.03102
1.01798
1.00762
0.997968
0.985776
0.977987
0.970947
0.964223
0.959005
0.944999
0.933972
0.924669
0.911501
0.900903
0.893297
0.881229
0.863278
0.861303
0.84829
0.832064
0.830956
0.812539
0.809159
0.798834
0.785112
0.775782
0.765532
0.755431
0.744043
1.49289
1.47594
1.4658
1.4547
1.45425
1.44839
1.43662
1.43003
1.42023
1.4085
1.40251
1.38835
1.37854
1.3713
1.36033
1.35012
1.34026
1.32512
1.31474
1.31056
1.29913
1.28835
1.27732
1.26688
1.25755
1.24776
1.23775
1.22671
1.21465
1.20455
1.19507
1.1845
1.17202
1.1642
1.156
1.14072
1.12868
1.12709
1.11366
1.10458
1.09471
1.08497
1.07632
1.06301
1.05355
1.04394
1.03207
1.01454
1.00526
0.998936
0.987678
0.979664
0.971401
0.962165
0.958959
0.944498
0.934191
0.923984
0.912378
0.90302
0.894689
0.879357
0.866359
0.860051
0.849646
0.838653
0.824697
0.815382
0.806529
0.79645
0.784634
0.777009
0.765355
0.754319
0.742006
1.48757
1.47305
1.46672
1.45834
1.45768
1.44741
1.43838
1.42935
1.42065
1.40474
1.40428
1.39113
1.37921
1.37072
1.3585
1.34994
1.34117
1.32694
1.3171
1.30849
1.29838
1.2875
1.27621
1.26553
1.25686
1.2469
1.23892
1.22745
1.21401
1.20441
1.19481
1.18442
1.17326
1.16412
1.15523
1.1375
1.13616
1.12567
1.11474
1.10429
1.0942
1.08445
1.07484
1.06352
1.05313
1.04144
1.03403
1.01331
1.00248
0.997696
0.991372
0.981529
0.973668
0.963803
0.955772
0.944413
0.934116
0.923777
0.913037
0.903169
0.892497
0.879418
0.870279
0.86022
0.852064
0.83828
0.823598
0.814175
0.806056
0.795981
0.784289
0.779544
0.766323
0.754085
0.738621
1.48782
1.47621
1.46871
1.45902
1.45699
1.44342
1.43944
1.42801
1.41754
1.40741
1.40186
1.3929
1.3816
1.36792
1.35819
1.34968
1.34055
1.33082
1.31958
1.30618
1.29813
1.28685
1.27455
1.26284
1.25714
1.24434
1.24047
1.22599
1.21425
1.20427
1.19445
1.18398
1.17229
1.16436
1.15359
1.14044
1.13846
1.12617
1.11514
1.10363
1.09334
1.08367
1.07357
1.06433
1.05299
1.03728
1.0329
1.01929
1.00725
0.997886
0.987991
0.981203
0.977793
0.964956
0.954303
0.943955
0.934159
0.924028
0.913774
0.903801
0.892292
0.877183
0.874903
0.858786
0.849885
0.838778
0.828003
0.811239
0.808372
0.796283
0.788473
0.779681
0.766844
0.753816
0.740551
1.49033
1.47971
1.47291
1.45959
1.45407
1.44359
1.43573
1.42617
1.41467
1.40725
1.40022
1.39498
1.38169
1.36713
1.35877
1.35005
1.34124
1.33207
1.31978
1.30829
1.30114
1.28627
1.27411
1.26551
1.25436
1.2437
1.23696
1.22486
1.21315
1.20569
1.19478
1.18562
1.1685
1.16618
1.15389
1.14501
1.13594
1.12642
1.11622
1.10327
1.09183
1.0836
1.07212
1.0666
1.0518
1.03854
1.02874
1.02398
1.01019
0.999897
0.991423
0.977739
0.976214
0.962737
0.952659
0.942849
0.935005
0.924788
0.914549
0.903776
0.891292
0.878094
0.871603
0.860123
0.849884
0.838896
0.827957
0.816564
0.80999
0.793817
0.792046
0.781837
0.769037
0.752666
0.742177
1.49167
1.4815
1.47278
1.46264
1.45461
1.444
1.4339
1.42552
1.40857
1.40639
1.40253
1.39156
1.38166
1.36703
1.35979
1.3501
1.34287
1.33416
1.31886
1.30782
1.30135
1.28703
1.27541
1.26477
1.2558
1.24551
1.23629
1.22536
1.20848
1.20693
1.19588
1.18478
1.17362
1.16714
1.15078
1.14919
1.1343
1.12486
1.11526
1.10645
1.08983
1.08677
1.07672
1.06438
1.04932
1.0396
1.03005
1.0233
1.00982
1.00079
0.991358
0.980228
0.972303
0.961256
0.950794
0.940095
0.937365
0.925138
0.915051
0.902412
0.89141
0.88017
0.871392
0.860016
0.849547
0.839053
0.828398
0.818231
0.808838
0.797717
0.788746
0.784085
0.767128
0.755859
0.742866
1.49201
1.48285
1.47344
1.4636
1.45567
1.44407
1.43162
1.4233
1.41031
1.40779
1.39904
1.38704
1.38117
1.36623
1.36112
1.34855
1.34481
1.33215
1.319
1.30776
1.29851
1.28973
1.27704
1.26609
1.25708
1.24631
1.236
1.22209
1.21187
1.20335
1.19925
1.18523
1.17503
1.16528
1.15447
1.1479
1.13418
1.12084
1.11676
1.11219
1.09151
1.08414
1.07444
1.06325
1.05148
1.04103
1.03123
1.02275
1.01026
1.00193
0.99257
0.981193
0.970436
0.960284
0.949786
0.939912
0.938851
0.922867
0.913555
0.901989
0.891549
0.880394
0.873477
0.859168
0.849568
0.839364
0.828249
0.819152
0.810349
0.800074
0.790481
0.782157
0.762229
0.759831
0.743069
1.48951
1.48478
1.47349
1.46381
1.45579
1.44622
1.43268
1.41683
1.41378
1.41143
1.3972
1.38806
1.37811
1.36769
1.35917
1.34952
1.3429
1.33024
1.31767
1.30685
1.29638
1.29391
1.2766
1.26692
1.25839
1.24702
1.23585
1.22278
1.2141
1.20523
1.19758
1.18594
1.17561
1.16575
1.15581
1.14578
1.13411
1.12275
1.11948
1.11065
1.09382
1.08336
1.07319
1.06287
1.05231
1.04176
1.03116
1.02224
1.01173
1.0025
0.993629
0.982076
0.968002
0.959769
0.949066
0.94083
0.934309
0.923458
0.913053
0.901924
0.89154
0.878926
0.876295
0.859277
0.849585
0.83964
0.827603
0.819748
0.813398
0.80179
0.792184
0.779062
0.761717
0.761301
0.742417
1.49219
1.48222
1.47015
1.46298
1.45515
1.45025
1.43115
1.41975
1.41648
1.41051
1.39341
1.39008
1.37795
1.36789
1.35818
1.34871
1.33951
1.32807
1.31649
1.30668
1.29787
1.29026
1.27855
1.26795
1.25831
1.24748
1.23615
1.22528
1.21644
1.2069
1.19584
1.18587
1.17597
1.16623
1.15623
1.14497
1.13463
1.12374
1.12032
1.10899
1.09741
1.08305
1.07216
1.06269
1.05313
1.04121
1.03082
1.02276
1.01349
1.00315
0.992631
0.98059
0.969846
0.961864
0.946107
0.94139
0.933318
0.923512
0.913121
0.90109
0.889339
0.878686
0.874402
0.863447
0.84994
0.836414
0.827728
0.818996
0.811245
0.800973
0.796584
0.780676
0.766862
0.757146
0.742524
1.49365
1.48283
1.4739
1.46368
1.45151
1.44514
1.43483
1.41919
1.41927
1.40785
1.39834
1.3895
1.37786
1.36767
1.3568
1.34725
1.33738
1.32644
1.31458
1.30997
1.29889
1.28926
1.27916
1.26781
1.25762
1.24742
1.23707
1.22651
1.21963
1.21009
1.19333
1.18479
1.17577
1.16636
1.15593
1.14392
1.13577
1.12625
1.11892
1.10903
1.09829
1.08405
1.07134
1.06282
1.04714
1.04358
1.03275
1.02369
1.01641
1.00387
0.991888
0.978423
0.969201
0.961435
0.944241
0.942987
0.934275
0.924789
0.914858
0.898668
0.887806
0.876374
0.874819
0.860775
0.850311
0.838254
0.827761
0.817723
0.812076
0.795083
0.790703
0.779813
0.768282
0.756697
0.74555
1.49386
1.48437
1.47477
1.46199
1.45159
1.4424
1.43281
1.42339
1.41865
1.40849
1.40139
1.3909
1.37986
1.36741
1.35419
1.34599
1.33627
1.32596
1.31588
1.3083
1.29858
1.28932
1.28114
1.26635
1.257
1.24736
1.23831
1.225
1.22468
1.21109
1.19284
1.18425
1.17517
1.16645
1.15421
1.14453
1.13828
1.12808
1.11771
1.10811
1.09512
1.08503
1.07236
1.06012
1.05
1.04164
1.03432
1.02381
1.01411
1.00328
0.992317
0.982436
0.967253
0.958854
0.947146
0.94113
0.936445
0.926512
0.911282
0.897993
0.887475
0.877123
0.873511
0.8594
0.851794
0.838585
0.824187
0.818148
0.813193
0.798905
0.789342
0.779472
0.769908
0.756453
0.746683
1.49453
1.48961
1.47441
1.46043
1.45005
1.44037
1.43064
1.42382
1.41933
1.40925
1.40316
1.39255
1.37782
1.3673
1.35656
1.34636
1.33584
1.32559
1.31591
1.307
1.29777
1.28808
1.27874
1.27106
1.25609
1.24706
1.23509
1.22943
1.226
1.20953
1.19425
1.18425
1.17434
1.16543
1.15451
1.14467
1.14363
1.12819
1.11689
1.1069
1.08966
1.08635
1.07385
1.06119
1.05126
1.03895
1.03659
1.02313
1.01288
1.00219
0.991976
0.981337
0.969496
0.960209
0.943987
0.941472
0.938432
0.92445
0.911336
0.898383
0.887302
0.875828
0.869911
0.862155
0.857045
0.839678
0.82469
0.818071
0.810562
0.799313
0.788631
0.778741
0.769503
0.758879
0.747719
1.50111
1.48448
1.47528
1.46039
1.44892
1.43894
1.4267
1.42159
1.41952
1.40988
1.4058
1.39671
1.37786
1.36638
1.35875
1.34709
1.33522
1.3247
1.31503
1.30597
1.2974
1.28704
1.27614
1.27199
1.25968
1.24918
1.23918
1.23202
1.22042
1.20752
1.1946
1.18385
1.17231
1.16522
1.15621
1.14721
1.14014
1.13023
1.11123
1.10712
1.09223
1.08484
1.07581
1.06409
1.04962
1.03954
1.03784
1.02395
1.01234
1.00039
0.992656
0.981426
0.969515
0.958163
0.947984
0.942283
0.934272
0.924988
0.909597
0.899034
0.889055
0.879838
0.868815
0.862246
0.851699
0.839899
0.828193
0.818862
0.809496
0.799293
0.787137
0.777218
0.770244
0.76219
0.749234
1.49782
1.48491
1.47184
1.46204
1.45021
1.43983
1.42885
1.41693
1.4135
1.40756
1.40659
1.40146
1.38038
1.36532
1.36366
1.34762
1.33309
1.32294
1.31354
1.30435
1.29821
1.28826
1.27789
1.27085
1.26098
1.25099
1.24135
1.22799
1.21508
1.20551
1.19451
1.18405
1.17591
1.167
1.1579
1.14888
1.13811
1.12774
1.11279
1.10453
1.0933
1.0842
1.075
1.06377
1.05316
1.0437
1.03609
1.02509
1.01206
0.998724
0.99493
0.981608
0.968986
0.956849
0.947811
0.937477
0.930645
0.921247
0.912839
0.899507
0.890198
0.881269
0.869252
0.861321
0.849703
0.839725
0.829356
0.818884
0.808638
0.800984
0.78376
0.773442
0.77125
0.764332
0.750415
1.49793
1.48708
1.47164
1.45893
1.44939
1.44171
1.43234
1.41836
1.41008
1.40944
1.3998
1.39752
1.3826
1.36787
1.35931
1.34662
1.33685
1.32056
1.31201
1.30013
1.29886
1.29276
1.27886
1.27036
1.26109
1.25211
1.24252
1.22373
1.21126
1.2043
1.1946
1.18346
1.17949
1.16817
1.15841
1.15141
1.13742
1.12607
1.11439
1.10327
1.09327
1.08338
1.07538
1.06359
1.05583
1.04655
1.03574
1.02428
1.01284
1.00249
0.99557
0.979717
0.968762
0.953525
0.947803
0.938205
0.929645
0.91868
0.914359
0.901469
0.890847
0.880868
0.87047
0.861876
0.849263
0.840019
0.83055
0.818793
0.806149
0.800448
0.785991
0.771733
0.768498
0.762037
0.753021
1.49739
1.4857
1.47443
1.45812
1.44764
1.4446
1.43376
1.42159
1.41232
1.40727
1.39903
1.39221
1.38332
1.36718
1.35904
1.34403
1.33559
1.32062
1.31445
1.29984
1.30079
1.2895
1.27916
1.27014
1.26078
1.25184
1.23953
1.22368
1.20793
1.20505
1.19623
1.18594
1.17916
1.1683
1.15782
1.1533
1.1378
1.12457
1.11564
1.10219
1.09305
1.08122
1.07646
1.06221
1.05927
1.0496
1.03486
1.02297
1.01272
1.00577
0.994326
0.977243
0.965908
0.95438
0.951277
0.939529
0.929272
0.919403
0.912139
0.902431
0.891186
0.880004
0.870635
0.861547
0.850479
0.839366
0.833383
0.812138
0.806594
0.802815
0.788445
0.776331
0.769166
0.762126
0.754359
1.49669
1.48583
1.47526
1.4584
1.45004
1.44364
1.43587
1.42201
1.4124
1.40629
1.39941
1.38925
1.38064
1.36842
1.35561
1.34482
1.33062
1.3222
1.3153
1.30735
1.29964
1.28821
1.27913
1.26944
1.25991
1.2503
1.23931
1.22467
1.2066
1.20363
1.19825
1.18551
1.17972
1.17032
1.16028
1.15106
1.13728
1.12501
1.11447
1.10193
1.09564
1.08386
1.0739
1.06388
1.05721
1.04756
1.0363
1.02617
1.01007
1.00668
0.992554
0.978469
0.964352
0.95969
0.951651
0.939914
0.92684
0.921523
0.911652
0.904036
0.889846
0.878888
0.870197
0.862594
0.851338
0.837402
0.835591
0.817826
0.805638
0.799495
0.788978
0.778519
0.769916
0.762949
0.74939
1.49634
1.48689
1.47136
1.46121
1.45131
1.44238
1.43356
1.42353
1.41395
1.40603
1.39831
1.38938
1.38032
1.36718
1.35501
1.34478
1.32631
1.32229
1.31727
1.31302
1.29948
1.28711
1.27857
1.26913
1.25899
1.24882
1.23798
1.22419
1.21459
1.20304
1.19469
1.18173
1.17901
1.17672
1.16122
1.15105
1.13485
1.1254
1.11436
1.10023
1.09755
1.08194
1.0768
1.06484
1.05707
1.04689
1.03584
1.02558
1.01502
1.00173
0.991422
0.979917
0.967319
0.959224
0.954873
0.940977
0.927446
0.915701
0.912629
0.901588
0.891168
0.880823
0.869943
0.864784
0.850462
0.839515
0.831835
0.819804
0.808745
0.799224
0.788872
0.778757
0.769217
0.759888
0.749211
1.49442
1.48359
1.47329
1.46474
1.45015
1.44112
1.43244
1.4231
1.41383
1.40542
1.39876
1.38933
1.37926
1.3677
1.35302
1.3418
1.33156
1.3242
1.31744
1.3105
1.29897
1.28839
1.27847
1.26839
1.25799
1.24742
1.2368
1.22228
1.21511
1.2053
1.19456
1.18388
1.17751
1.17331
1.15913
1.15517
1.13527
1.12587
1.1099
1.10714
1.09682
1.08343
1.07643
1.06321
1.05795
1.04697
1.03449
1.02587
1.01394
1.00144
0.991424
0.983154
0.969527
0.956001
0.95662
0.941696
0.926909
0.918343
0.912036
0.900061
0.890681
0.883078
0.873888
0.86201
0.850577
0.840244
0.83075
0.820557
0.810414
0.800526
0.788811
0.778227
0.7681
0.758042
0.747651
1.49351
1.47988
1.47511
1.46316
1.45215
1.43992
1.43187
1.42289
1.413
1.40354
1.40161
1.38947
1.37836
1.36746
1.35349
1.33956
1.3345
1.32543
1.31748
1.30926
1.29896
1.28867
1.27843
1.26798
1.25741
1.24654
1.23509
1.2191
1.21687
1.20615
1.1954
1.18525
1.17581
1.1727
1.1607
1.15313
1.13436
1.12136
1.11656
1.10755
1.09703
1.08652
1.07648
1.06785
1.05457
1.04702
1.03019
1.02645
1.01207
0.998537
0.989766
0.981343
0.971282
0.960725
0.953248
0.9422
0.930156
0.920414
0.911327
0.900344
0.888919
0.886617
0.875473
0.861946
0.849216
0.840191
0.830473
0.821206
0.811826
0.803291
0.787743
0.777165
0.766982
0.756664
0.746522
1.49624
1.48123
1.47223
1.46071
1.45053
1.43943
1.43201
1.42407
1.41211
1.40464
1.40402
1.38798
1.37809
1.36918
1.35423
1.3406
1.33161
1.3231
1.31757
1.31054
1.29916
1.28881
1.2786
1.26785
1.25693
1.24644
1.22886
1.2242
1.21555
1.20573
1.196
1.18648
1.17739
1.17066
1.16038
1.15131
1.13356
1.12278
1.11642
1.10687
1.09778
1.08941
1.07538
1.06905
1.05514
1.04637
1.03329
1.02351
1.00919
0.992389
0.988281
0.981231
0.973382
0.967156
0.95332
0.943202
0.930976
0.921289
0.911868
0.901995
0.888545
0.887859
0.874239
0.862562
0.851057
0.840857
0.830926
0.822036
0.812563
0.801964
0.790184
0.776822
0.766089
0.755071
0.744973
1.5022
1.47906
1.47024
1.45748
1.45024
1.43821
1.43308
1.42777
1.40792
1.40699
1.40008
1.39024
1.37731
1.36616
1.35447
1.34465
1.3318
1.31872
1.3184
1.31395
1.29845
1.28875
1.27932
1.26781
1.25596
1.24363
1.23156
1.22358
1.21456
1.20497
1.19623
1.18753
1.17824
1.16988
1.15792
1.148
1.1354
1.12441
1.11322
1.10924
1.09778
1.08771
1.07677
1.06715
1.05629
1.04531
1.03373
1.02247
1.00889
0.996922
0.989763
0.981848
0.973533
0.96435
0.955125
0.945406
0.92952
0.922177
0.913354
0.902371
0.891726
0.884749
0.873551
0.863097
0.852411
0.84102
0.830301
0.823449
0.814214
0.801941
0.789159
0.779168
0.765498
0.752739
0.737329
1.49248
1.48327
1.4712
1.45537
1.45258
1.44409
1.43424
1.4237
1.40797
1.40441
1.39826
1.39314
1.37446
1.364
1.35274
1.3419
1.3337
1.3247
1.3223
1.31092
1.29796
1.28852
1.28099
1.26811
1.25577
1.24084
1.23054
1.22147
1.21409
1.20334
1.19639
1.18953
1.17881
1.16911
1.15759
1.14739
1.13651
1.12581
1.11347
1.10999
1.09608
1.0869
1.0768
1.0663
1.0567
1.04557
1.03377
1.02221
1.0077
0.997784
0.991038
0.982812
0.974792
0.958567
0.954717
0.943228
0.931387
0.92445
0.918091
0.90131
0.892274
0.883291
0.873611
0.864093
0.855576
0.840236
0.827518
0.826145
0.816212
0.802726
0.785805
0.776642
0.763639
0.75267
0.736974
1.48958
1.48554
1.47422
1.45409
1.45221
1.44891
1.43669
1.42364
1.40953
1.40377
1.39538
1.38609
1.3739
1.36285
1.35119
1.34658
1.33677
1.32666
1.32166
1.30663
1.29446
1.28644
1.27782
1.26762
1.25799
1.24218
1.23033
1.21938
1.21558
1.20058
1.19628
1.1915
1.18007
1.16867
1.15781
1.14732
1.13793
1.12834
1.11414
1.10575
1.09529
1.08584
1.0771
1.06506
1.05837
1.04626
1.03383
1.02198
1.00798
0.995365
0.99301
0.983647
0.973809
0.96324
0.947775
0.941616
0.932706
0.926029
0.921955
0.902612
0.892933
0.883335
0.873712
0.86428
0.855572
0.837774
0.83472
0.824904
0.813341
0.800872
0.789502
0.776307
0.761178
0.753883
0.741827
1.49077
1.48572
1.47457
1.46002
1.45258
1.44444
1.43361
1.42557
1.41437
1.40551
1.39433
1.38071
1.37185
1.36305
1.3552
1.34497
1.33979
1.3267
1.31949
1.30338
1.29357
1.28504
1.27626
1.26617
1.25639
1.24489
1.23336
1.22052
1.21373
1.20312
1.19686
1.18576
1.18269
1.16816
1.1577
1.1461
1.13936
1.12712
1.11575
1.10549
1.09356
1.08391
1.07442
1.06524
1.06337
1.04541
1.03226
1.02273
1.0089
0.995699
0.991619
0.983371
0.97383
0.963518
0.951314
0.94238
0.93343
0.924922
0.917248
0.904572
0.893655
0.883472
0.873572
0.863878
0.85424
0.843413
0.837464
0.823727
0.809114
0.799015
0.787443
0.776143
0.761793
0.757229
0.744909
1.49732
1.48341
1.47574
1.4596
1.45352
1.43992
1.43077
1.42963
1.41536
1.40344
1.39152
1.38064
1.3695
1.36265
1.35595
1.34893
1.33764
1.3249
1.31611
1.30361
1.29143
1.28396
1.27712
1.26353
1.25652
1.24622
1.23437
1.2228
1.21339
1.20358
1.19328
1.18922
1.18068
1.16874
1.1589
1.14063
1.13987
1.12934
1.11465
1.09942
1.09763
1.08205
1.07231
1.06915
1.06114
1.04675
1.02927
1.02538
1.00988
0.995802
0.991047
0.984308
0.974171
0.965809
0.953662
0.943526
0.933727
0.922759
0.915381
0.90455
0.893694
0.883229
0.873114
0.863469
0.854418
0.845076
0.835165
0.822867
0.810205
0.79871
0.78639
0.775395
0.76371
0.757164
0.746519
1.50218
1.48343
1.47452
1.45997
1.45171
1.44145
1.43242
1.42511
1.41363
1.40161
1.39717
1.3811
1.36519
1.3627
1.35655
1.35202
1.3365
1.32567
1.31515
1.30372
1.28568
1.28224
1.27787
1.26124
1.25764
1.24769
1.23454
1.22338
1.21373
1.20431
1.19543
1.18866
1.17853
1.16815
1.15871
1.14014
1.13793
1.12673
1.11379
1.10149
1.09332
1.08454
1.07723
1.06798
1.05489
1.04717
1.03332
1.02386
1.0103
0.995728
0.99123
0.986543
0.97439
0.971217
0.953952
0.944364
0.93526
0.918662
0.9162
0.904429
0.893319
0.882658
0.87224
0.862069
0.854909
0.847182
0.835329
0.822601
0.810402
0.799715
0.784015
0.774523
0.763258
0.758232
0.747593
1.50233
1.48783
1.47298
1.46001
1.45182
1.442
1.43316
1.42325
1.41255
1.40428
1.39149
1.38127
1.37063
1.36572
1.35591
1.34636
1.3352
1.32601
1.31515
1.30079
1.289
1.28149
1.27385
1.26225
1.25403
1.25142
1.23278
1.22331
1.21382
1.20317
1.19641
1.1872
1.17561
1.16667
1.15737
1.14641
1.1353
1.12529
1.11354
1.10099
1.09025
1.08537
1.0833
1.0701
1.05548
1.04252
1.03261
1.0229
1.01168
1.00049
0.992244
0.984917
0.975617
0.967872
0.956338
0.945006
0.934154
0.922903
0.914585
0.903508
0.892791
0.881904
0.871519
0.860074
0.855898
0.852361
0.834621
0.821924
0.809352
0.796331
0.785448
0.775199
0.766364
0.753882
0.747508
1.50431
1.48415
1.47353
1.46226
1.45209
1.44266
1.43502
1.42231
1.40932
1.40171
1.39175
1.38206
1.37223
1.36373
1.35454
1.34687
1.3372
1.32793
1.31256
1.30143
1.28963
1.28072
1.2722
1.26293
1.25436
1.24849
1.23254
1.22313
1.21395
1.20119
1.2004
1.1847
1.17196
1.16581
1.15701
1.15219
1.13604
1.12435
1.11451
1.09995
1.09429
1.08375
1.08163
1.06812
1.05579
1.04378
1.03188
1.02385
1.01344
1.00295
0.992145
0.98629
0.975557
0.966744
0.957253
0.946204
0.933822
0.924635
0.913771
0.901419
0.892205
0.880159
0.87193
0.86418
0.856075
0.847987
0.835197
0.821561
0.808282
0.795876
0.785433
0.774996
0.764705
0.752662
0.745877
1.49626
1.48505
1.47462
1.46427
1.44797
1.44486
1.43146
1.42148
1.41065
1.40162
1.39223
1.38304
1.37245
1.36265
1.35179
1.34847
1.33818
1.32663
1.31515
1.30414
1.28711
1.27913
1.27149
1.26405
1.2516
1.24699
1.23431
1.22304
1.21363
1.20267
1.19604
1.18749
1.17535
1.16674
1.15508
1.15184
1.13929
1.12142
1.11827
1.10311
1.09324
1.08397
1.07666
1.06593
1.05538
1.04357
1.03117
1.02655
1.01519
1.00519
0.991152
0.987601
0.975563
0.966167
0.956348
0.944209
0.939388
0.927579
0.915025
0.898165
0.892687
0.876845
0.871952
0.868464
0.856054
0.845453
0.834031
0.820451
0.807223
0.796146
0.785387
0.774622
0.764746
0.747235
0.7438
1.49157
1.48645
1.47498
1.46228
1.45193
1.44222
1.43055
1.42035
1.41024
1.40206
1.3925
1.38538
1.37275
1.36314
1.35231
1.34709
1.33447
1.32951
1.3174
1.30183
1.28563
1.27755
1.27152
1.26505
1.25238
1.24454
1.23371
1.22351
1.21413
1.20407
1.19326
1.19049
1.17657
1.16715
1.15671
1.14871
1.13798
1.12606
1.11869
1.10612
1.09047
1.08266
1.07406
1.06252
1.05448
1.04222
1.03865
1.02505
1.01515
1.00622
0.993918
0.984915
0.97423
0.966831
0.957591
0.947508
0.940449
0.922398
0.91825
0.904697
0.890515
0.878307
0.869892
0.867426
0.854994
0.84423
0.832506
0.819247
0.806257
0.79643
0.785308
0.773774
0.762253
0.750693
0.74436
1.49396
1.48575
1.47498
1.46032
1.4546
1.43942
1.42913
1.42031
1.40887
1.40289
1.3912
1.38717
1.37449
1.36434
1.35623
1.34445
1.33379
1.3282
1.31247
1.29932
1.28648
1.27646
1.27183
1.2672
1.25093
1.24534
1.23019
1.22553
1.2146
1.20649
1.19491
1.18815
1.17758
1.16863
1.1576
1.14714
1.13716
1.1269
1.11722
1.10485
1.09115
1.08222
1.07481
1.05942
1.05302
1.04599
1.04241
1.0232
1.01286
1.00764
0.995677
0.983502
0.969815
0.967436
0.959682
0.948438
0.93993
0.923745
0.915332
0.908308
0.895763
0.880115
0.864617
0.863232
0.860138
0.843716
0.828814
0.818317
0.806776
0.796635
0.785648
0.77387
0.760033
0.750998
0.742535
1.49427
1.48872
1.47731
1.46164
1.45088
1.43861
1.4268
1.42134
1.41075
1.40194
1.39224
1.38516
1.37424
1.36372
1.35478
1.34506
1.33342
1.32434
1.31291
1.2979
1.2855
1.28182
1.27167
1.26409
1.25196
1.24229
1.23246
1.22268
1.21357
1.21074
1.19365
1.18434
1.18157
1.17005
1.15763
1.14638
1.13708
1.12735
1.11663
1.10334
1.09199
1.08122
1.07701
1.06308
1.05256
1.04646
1.03745
1.02534
1.01561
1.00485
0.996027
0.984466
0.965972
0.964564
0.961811
0.947603
0.937282
0.925426
0.914526
0.910885
0.897899
0.881081
0.869367
0.861645
0.85482
0.841702
0.829216
0.818391
0.807889
0.797411
0.786733
0.776107
0.755688
0.749719
0.743697
1.49901
1.49091
1.4763
1.45915
1.44697
1.44093
1.42715
1.41967
1.41023
1.40054
1.39117
1.38564
1.37351
1.36168
1.35514
1.34678
1.33172
1.32338
1.31172
1.29909
1.28828
1.28098
1.26932
1.26287
1.25249
1.23811
1.23551
1.2204
1.21573
1.20634
1.19461
1.18767
1.18465
1.1706
1.15689
1.14435
1.1366
1.12753
1.11483
1.10356
1.09273
1.08348
1.07547
1.06444
1.054
1.04952
1.03401
1.02499
1.01612
1.00496
0.995189
0.982726
0.969027
0.963732
0.957927
0.946788
0.936213
0.925097
0.914719
0.913256
0.899141
0.883621
0.871679
0.860868
0.854265
0.838409
0.828153
0.817577
0.809181
0.798238
0.787139
0.777369
0.759174
0.749921
0.743789
1.49991
1.48878
1.47686
1.46213
1.44936
1.43945
1.42692
1.41822
1.41
1.39992
1.38825
1.38313
1.37661
1.35952
1.3563
1.3446
1.33263
1.3253
1.31159
1.29977
1.28902
1.27777
1.26835
1.26508
1.24776
1.2434
1.23534
1.22304
1.21189
1.20406
1.1918
1.18757
1.18408
1.16921
1.15802
1.14769
1.13761
1.12727
1.11522
1.10409
1.09322
1.08213
1.07758
1.06523
1.05338
1.05137
1.03367
1.02463
1.01393
1.00775
0.993059
0.982663
0.971352
0.963579
0.955657
0.945483
0.935453
0.924934
0.915068
0.912532
0.898514
0.886034
0.87289
0.861354
0.851218
0.839509
0.828552
0.816439
0.81165
0.798607
0.786946
0.776799
0.762433
0.752539
0.744705
1.50067
1.48917
1.47862
1.46327
1.44956
1.43839
1.42619
1.4167
1.41111
1.40066
1.39027
1.38277
1.37574
1.35772
1.35494
1.34273
1.33035
1.32678
1.31396
1.29992
1.29064
1.2736
1.27111
1.26156
1.25026
1.24468
1.23531
1.22398
1.21007
1.205
1.19404
1.18644
1.17823
1.16553
1.16193
1.14969
1.13843
1.12747
1.11668
1.10457
1.09395
1.08396
1.07606
1.06591
1.05462
1.04622
1.03507
1.02619
1.01682
1.00458
0.9919
0.982657
0.970807
0.963643
0.956494
0.944821
0.934512
0.924973
0.916172
0.908915
0.896689
0.892204
0.872499
0.861972
0.850429
0.840216
0.829841
0.819522
0.810109
0.79785
0.785383
0.776942
0.763816
0.754172
0.745902
1.50162
1.49129
1.47734
1.46296
1.44798
1.43832
1.42765
1.41873
1.40984
1.39996
1.39045
1.38208
1.37336
1.36364
1.35065
1.34093
1.33054
1.32528
1.31424
1.30113
1.2896
1.27756
1.26946
1.25932
1.25009
1.24686
1.2357
1.22594
1.20994
1.20277
1.19319
1.18691
1.1762
1.16451
1.16177
1.15039
1.13878
1.12795
1.1191
1.10368
1.09443
1.08462
1.07542
1.06776
1.05364
1.04267
1.03395
1.02737
1.01528
1.00491
0.993795
0.984996
0.967982
0.963742
0.960652
0.942758
0.933629
0.924778
0.915681
0.908413
0.897821
0.890491
0.873107
0.863747
0.850631
0.840961
0.831289
0.822124
0.811092
0.797288
0.780352
0.776539
0.764694
0.75408
0.747262
1.502
1.48695
1.47947
1.46386
1.44761
1.43846
1.42829
1.42103
1.40975
1.39857
1.38944
1.3815
1.37268
1.36299
1.35225
1.34026
1.32894
1.3257
1.31407
1.30216
1.28951
1.27892
1.26863
1.25702
1.25361
1.24505
1.23458
1.22403
1.21244
1.20249
1.18935
1.18952
1.17533
1.1673
1.15767
1.15123
1.13893
1.1275
1.11586
1.10662
1.09548
1.08439
1.07329
1.06596
1.05459
1.04248
1.03138
1.02798
1.01572
1.00509
0.994573
0.984829
0.975217
0.962926
0.955713
0.942582
0.932585
0.924881
0.914274
0.911099
0.897567
0.885649
0.875683
0.863746
0.853334
0.8417
0.831634
0.821649
0.810508
0.800246
0.784021
0.769328
0.766635
0.752883
0.751067
1.50394
1.48073
1.47863
1.46538
1.45159
1.43986
1.42755
1.42687
1.41058
1.3953
1.38666
1.38106
1.37295
1.36381
1.35292
1.34035
1.33128
1.3236
1.31379
1.30414
1.28807
1.27893
1.26929
1.25957
1.25226
1.24326
1.23331
1.22315
1.21345
1.19636
1.19255
1.19013
1.17295
1.16648
1.15943
1.15461
1.13889
1.12808
1.11286
1.11055
1.09521
1.0835
1.07073
1.06715
1.05484
1.04296
1.03263
1.0256
1.01556
1.00576
0.994594
0.984887
0.975624
0.967006
0.953164
0.941058
0.930793
0.927357
0.916188
0.909022
0.896148
0.882591
0.879779
0.861942
0.857204
0.842807
0.831152
0.820485
0.809694
0.798805
0.787585
0.770784
0.764267
0.753874
0.746526
1.49946
1.48422
1.47776
1.46599
1.45368
1.44279
1.42586
1.42412
1.40985
1.39632
1.38392
1.38146
1.37414
1.36555
1.3525
1.34219
1.33285
1.32251
1.31317
1.30202
1.29074
1.27958
1.2705
1.26133
1.25124
1.24232
1.2322
1.22204
1.21168
1.1999
1.19444
1.18713
1.17552
1.16693
1.15881
1.15117
1.14076
1.12543
1.11296
1.1068
1.09675
1.0845
1.07313
1.06619
1.05463
1.04248
1.03218
1.02506
1.01438
1.00812
0.993126
0.984446
0.975452
0.965787
0.954778
0.943504
0.933836
0.926558
0.91634
0.906176
0.894808
0.883778
0.877242
0.867851
0.855131
0.844974
0.830863
0.819709
0.809155
0.797966
0.786322
0.77392
0.763974
0.754297
0.744466
1.49853
1.48385
1.48038
1.46687
1.45444
1.44202
1.42958
1.41922
1.40823
1.39626
1.38511
1.3781
1.37565
1.36537
1.35345
1.3437
1.33421
1.32192
1.31354
1.30108
1.29208
1.27978
1.27169
1.26382
1.24944
1.24182
1.23116
1.22139
1.2119
1.20093
1.19697
1.18685
1.17683
1.1671
1.15757
1.14842
1.137
1.12486
1.11221
1.10776