/*--------------------------------*- C++ -*----------------------------------*\
  =========                 |
  \\      /  F ield         | OpenFOAM: The Open Source CFD Toolbox
   \\    /   O peration     | Website:  https://openfoam.org
    \\  /    A nd           | Version:  12
     \\/     M anipulation  |
\*---------------------------------------------------------------------------*/
FoamFile
{
    format      ascii;
    class       surfaceScalarField;
    location    "0.4";
    object      phi.water_0;
}
// * * * * * * * * * * * * * * * * * * * * * * * * * * * * * * * * * * * * * //

dimensions      [0 3 -1 0 0 0 0];

internalField   nonuniform List<scalar> 
7375
(
-2.34691e-07
2.06624e-08
-9.10063e-08
-1.01955e-07
-2.32965e-08
-6.58565e-08
3.09338e-08
-5.36872e-08
3.36352e-08
-2.35393e-09
4.76785e-08
-1.38798e-08
5.53743e-08
-7.78792e-09
8.7032e-08
-3.19787e-08
6.53433e-08
2.1721e-08
7.16638e-08
-6.25748e-09
8.83701e-08
-1.64897e-08
9.75784e-08
-9.08992e-09
1.03775e-07
-6.25929e-09
1.3081e-07
-2.69954e-08
1.34624e-07
-3.85079e-09
1.23482e-07
1.11815e-08
1.02757e-07
2.04666e-08
1.02703e-07
1.50764e-11
1.205e-07
-1.95133e-08
1.23194e-07
-2.6919e-09
1.26089e-07
-1.62572e-09
1.46086e-07
-2.00035e-08
1.09281e-07
3.64571e-08
9.7898e-08
1.13e-08
9.49718e-08
3.86188e-09
6.01097e-08
-1.36584e-08
1.23632e-07
-1.6391e-08
1.02215e-07
2.15866e-08
2.12873e-07
3.14939e-08
9.80217e-08
-2.80398e-08
1.02558e-07
-3.59507e-09
1.18504e-07
-1.45691e-08
7.20888e-08
-2.02279e-09
2.24851e-07
3.89248e-08
1.11641e-07
-3.11191e-08
1.36743e-07
-2.51276e-08
1.47173e-07
-1.1941e-08
1.56814e-07
-9.54418e-09
1.54859e-07
3.53506e-09
1.54458e-07
4.43674e-10
1.76107e-07
-2.21654e-08
1.60019e-07
1.43359e-08
1.83952e-07
-2.39334e-08
2.00126e-07
-1.61333e-08
2.19377e-07
-1.92517e-08
2.13758e-07
1.00897e-08
1.84965e-07
3.11844e-08
1.39383e-07
4.287e-08
1.0094e-07
3.70348e-08
9.36802e-08
7.47739e-09
1.02897e-07
-9.21712e-09
1.13524e-07
-9.6057e-09
1.23008e-07
-9.50088e-09
1.17633e-07
5.34172e-09
1.16604e-07
1.06849e-09
1.21142e-07
-4.5191e-09
1.18595e-07
3.85133e-09
1.18274e-07
3.78697e-10
1.30156e-07
-1.16257e-08
9.8788e-08
-1.69477e-08
9.46098e-08
3.17703e-09
1.23784e-07
-2.91481e-08
1.28766e-07
4.30676e-08
1.11142e-07
1.74095e-08
1.08665e-07
2.43361e-09
9.46495e-08
1.38866e-08
1.07076e-07
-1.24481e-08
7.34283e-08
3.33464e-08
6.84948e-08
4.90328e-09
7.84854e-08
-1.01849e-08
8.80652e-08
-1.0503e-08
1.08087e-07
-1.89306e-08
6.96743e-08
-8.98499e-09
1.02137e-07
1.47719e-08
8.52567e-09
-1.6261e-07
3.76309e-10
-3.03278e-08
-5.74912e-08
-9.21173e-08
-1.46217e-07
-9.01788e-08
-5.56055e-08
-1.03994e-07
-3.61375e-08
-5.51806e-08
-1.56263e-08
-7.86827e-08
1.43353e-08
2.03453e-08
1.57838e-08
-6.0014e-08
-4.2026e-08
-3.50592e-08
-3.08536e-08
-1.75398e-08
-3.3831e-08
-4.58635e-09
-2.24462e-08
1.44192e-08
-2.53108e-08
8.75203e-08
4.46889e-08
6.6494e-08
1.73535e-08
5.93372e-08
1.77341e-08
-3.01704e-08
-3.32003e-08
-1.94655e-08
-1.14009e-08
-2.22369e-08
-1.65383e-08
-2.76955e-08
3.4766e-09
-3.79375e-08
8.61692e-09
6.62092e-08
1.91167e-08
-1.41964e-08
-2.58642e-08
-6.72992e-09
3.69102e-09
-6.01108e-09
3.07487e-09
-4.24725e-08
2.20766e-08
4.9935e-08
3.90563e-08
-5.85788e-08
-1.67443e-08
-2.89481e-08
2.48632e-09
-4.37206e-08
-1.35529e-08
-6.60842e-08
-2.86667e-08
-9.91751e-10
-3.20377e-08
-2.36759e-08
2.0463e-08
9.61613e-09
5.57602e-09
-9.97482e-09
-1.15285e-08
-1.666e-08
-1.86325e-08
-1.24998e-08
-1.59741e-08
1.46711e-08
-3.73369e-08
-1.55817e-08
3.37783e-08
1.55338e-09
-1.68202e-08
7.39905e-08
5.2172e-08
9.2501e-09
-6.60877e-08
6.04123e-08
-7.59565e-08
1.02178e-07
-5.84896e-08
1.29839e-07
-4.60672e-08
1.41822e-07
-4.51467e-10
1.17451e-07
5.58684e-08
8.53282e-08
7.33399e-08
6.194e-08
6.05618e-08
3.2683e-08
3.67342e-08
2.84151e-09
2.01965e-08
-9.59271e-09
2.82841e-09
-9.88854e-09
-9.10448e-09
3.61443e-09
-8.19783e-09
9.47222e-09
-4.75306e-09
1.78854e-08
-1.28357e-08
4.17625e-08
-1.94021e-08
5.90474e-08
-1.75187e-08
7.01245e-08
-2.40075e-08
6.24615e-08
-8.40536e-09
9.39098e-09
8.8655e-09
1.03983e-07
6.94052e-08
2.25834e-08
-2.00914e-08
4.82792e-09
3.48132e-08
2.12459e-08
-1.42981e-08
9.04491e-09
2.60873e-08
7.00823e-08
7.02197e-08
-3.55852e-08
-3.85713e-09
-4.14172e-08
9.52688e-09
-5.33683e-08
1.76616e-09
-4.87647e-08
-1.4018e-08
-3.77675e-08
-3.01215e-08
-4.06379e-08
-5.60927e-09
-1.75633e-08
-8.30345e-09
7.91788e-09
-1.18193e-07
-5.79344e-08
-1.33692e-07
-6.62641e-08
-3.84795e-08
-4.49654e-08
-1.41734e-07
-9.5314e-08
-1.08983e-07
-7.03186e-08
-9.56543e-08
-3.02256e-08
-8.31188e-08
7.98325e-10
-1.03557e-07
-1.14779e-08
-8.2293e-08
-1.46196e-08
-8.97685e-08
-2.39721e-08
-9.74358e-08
-2.7502e-08
-1.34866e-07
-3.38512e-08
-1.03137e-07
-8.69477e-09
-1.16981e-07
5.79251e-08
-1.37375e-07
3.89542e-08
-1.26637e-07
8.39911e-09
-1.54601e-07
-5.5747e-09
-1.37272e-07
-2.89077e-08
-1.76114e-07
2.26425e-08
-1.7547e-07
2.83333e-09
-1.69608e-07
2.84396e-09
-1.30959e-07
-1.97326e-08
-1.55603e-07
-1.48428e-09
-1.97896e-07
4.64972e-08
-1.89593e-07
-5.28102e-09
-2.00749e-07
3.32332e-08
-1.75451e-07
1.29613e-08
-2.01008e-07
6.9331e-09
-2.01745e-07
3.2236e-09
-2.00338e-07
-1.29014e-08
-2.13739e-07
-1.52648e-08
-8.74853e-08
-1.33978e-08
-1.38345e-07
-7.01507e-08
-1.34573e-07
4.06263e-10
-1.33641e-07
-1.51961e-08
-1.36811e-07
-1.54625e-08
-1.49108e-07
-3.80355e-09
-5.58808e-08
1.48671e-08
-1.76368e-07
-3.72575e-08
-1.88847e-08
1.84978e-08
-6.12781e-08
-4.87407e-08
-5.40587e-08
-7.39262e-08
-2.5956e-08
-1.04876e-07
-3.24751e-08
-5.20373e-08
-1.37882e-08
-6.45639e-08
2.41995e-08
-3.8689e-08
3.61699e-08
4.3089e-08
1.9481e-08
8.96493e-08
-9.00518e-09
9.09023e-08
-3.47273e-08
6.14545e-08
-5.53834e-08
4.08523e-08
-6.45945e-08
1.20393e-08
-6.87953e-08
-4.90395e-09
-7.16481e-08
-5.4288e-09
-7.97523e-08
3.3025e-09
-7.27271e-08
-1.91191e-08
-7.03916e-08
-2.19595e-08
-7.91114e-08
-9.43476e-09
-8.65492e-08
-1.69881e-08
-1.00294e-07
4.23034e-09
-1.19214e-07
2.65568e-08
-1.50752e-07
5.35663e-08
-3.76196e-08
6.11356e-08
-1.20486e-07
-2.60564e-08
-2.83221e-08
3.81116e-08
-4.12533e-08
3.91737e-08
-1.10281e-07
-5.08105e-09
-1.09964e-07
-4.21443e-09
-1.08105e-07
7.66821e-09
-1.06431e-07
5.5334e-11
-1.1236e-07
-8.08917e-09
-1.15966e-07
-2.65156e-08
-1.11565e-07
-1.00109e-08
-1.10502e-07
-1.06889e-08
2.83567e-08
-8.11311e-08
3.57582e-08
-1.39759e-07
-1.41545e-07
-1.0456e-07
-7.98012e-08
-1.44716e-07
-1.0261e-07
-1.44629e-07
-6.96456e-08
-1.23501e-07
-5.00937e-08
-9.28862e-08
-2.98152e-08
-8.29146e-08
-2.22791e-08
-7.2108e-08
-2.50949e-08
-7.19496e-08
-2.41296e-08
-1.19871e-07
-2.84235e-08
-1.28672e-07
2.18703e-08
-5.10838e-08
5.84052e-08
-1.62203e-07
2.29224e-08
-1.60115e-07
3.77396e-08
-1.66677e-07
1.48111e-08
-2.12532e-07
3.77279e-08
-1.19521e-07
2.36548e-08
-2.32845e-07
-7.14117e-09
-2.19251e-07
-1.08709e-08
-2.45189e-07
2.62816e-08
-1.71646e-07
5.2541e-08
-1.81699e-07
8.38156e-09
-2.80926e-07
-5.10656e-08
-2.5101e-07
1.63042e-08
-2.54396e-07
-8.92941e-09
-2.04456e-07
1.11319e-08
-2.02293e-07
4.77043e-09
-1.96476e-07
-2.62565e-09
-1.98983e-07
-1.03948e-08
-1.98891e-07
-1.53564e-08
-1.87087e-07
-2.52021e-08
-9.02723e-08
-2.33526e-08
-2.03859e-07
-3.00247e-08
-1.77723e-07
-4.17584e-08
-1.33406e-07
-6.02361e-08
-1.33048e-07
-4.12e-09
-1.03303e-07
-1.50301e-08
-1.14922e-07
-2.5639e-08
-1.13581e-07
-3.09521e-08
-7.94422e-08
-3.52681e-08
-1.51195e-07
-5.10374e-08
-2.63122e-08
-3.7053e-08
-1.29511e-07
-9.11845e-08
-1.29872e-07
-6.55242e-08
-1.35157e-07
-3.30099e-08
-1.22394e-07
3.0766e-08
-1.16488e-07
8.05447e-08
-1.55974e-07
8.29006e-08
-1.21255e-07
7.82998e-08
-1.17836e-07
3.61955e-08
-1.03087e-07
-2.70906e-09
-8.88737e-08
-1.91178e-08
-1.37028e-07
4.27257e-08
-1.60169e-07
-2.16665e-08
-1.47053e-07
1.42286e-08
-1.47496e-07
-2.32632e-08
-1.89901e-07
3.22015e-08
-1.97563e-07
-7.36944e-09
-1.96215e-07
4.89845e-09
-1.86173e-07
1.62428e-08
-1.59587e-07
2.6434e-08
-1.4057e-07
4.21184e-08
-7.03118e-08
4.82398e-08
-4.58761e-08
1.37548e-08
-1.25572e-07
-2.40012e-08
-1.35878e-07
3.98413e-09
-1.47211e-07
7.11773e-09
-1.45187e-07
5.64429e-09
-1.34897e-07
-1.02349e-08
-1.75214e-07
-1.57216e-08
-1.44284e-07
-9.33645e-09
-1.58541e-07
2.62754e-09
-1.78045e-07
8.81359e-09
2.20159e-08
-1.52893e-07
1.28918e-08
-7.78031e-08
-3.83712e-08
-7.35127e-08
-8.09393e-08
-1.67058e-07
-1.03274e-07
-1.34185e-07
-1.05297e-07
-1.369e-07
-4.73778e-08
-1.14023e-07
-5.29951e-08
-9.80752e-08
-3.9227e-08
-8.74862e-08
-3.53189e-08
-7.73139e-08
-3.36546e-08
-7.86359e-08
-2.62983e-08
-4.95e-08
-6.83373e-09
-2.09609e-08
2.8989e-08
-3.4707e-08
3.65768e-08
-5.00123e-08
5.37432e-08
-7.44611e-08
3.99108e-08
-1.91098e-07
-3.53072e-08
-1.40272e-07
1.82847e-08
-1.67912e-07
1.73552e-08
-1.55278e-07
-2.35038e-08
-1.91842e-07
6.4431e-08
-1.61591e-07
2.3403e-08
-1.43181e-07
-8.58173e-09
-1.51493e-07
-4.36835e-08
-1.54245e-07
-3.07642e-08
-1.70215e-07
7.04115e-09
-1.32831e-07
2.18578e-08
-1.43175e-07
1.51149e-08
-1.49395e-07
3.59467e-09
-1.56752e-07
-3.03774e-09
-1.61359e-07
-1.07495e-08
-1.66944e-07
-1.98193e-08
-8.69982e-08
4.14945e-08
-2.08742e-07
-5.326e-08
-1.99685e-07
-5.50247e-08
-8.00465e-08
-3.11758e-08
-1.43771e-07
-8.2458e-08
-1.15885e-07
-4.43836e-08
-8.76722e-08
-5.44068e-08
-1.22051e-07
3.42602e-09
-1.23651e-07
-3.36678e-08
-1.40273e-07
-3.44161e-08
-1.24413e-07
-5.23787e-08
-1.67821e-07
-4.92092e-08
-1.86936e-07
-4.64099e-08
-2.0255e-07
-1.73963e-08
-2.00786e-07
3.10505e-08
-1.84284e-07
6.40423e-08
-1.80364e-07
7.35685e-08
-1.56659e-07
5.54015e-08
-1.48829e-07
3.02724e-08
-1.42323e-07
-9.21562e-09
-4.75453e-08
3.04331e-08
-1.72612e-07
-2.46459e-08
-1.82221e-07
3.79106e-08
-1.56595e-07
-1.13976e-08
-4.43965e-08
8.12542e-09
-1.76077e-07
2.0686e-08
-1.84713e-07
-4.54528e-10
-1.77733e-07
-2.082e-09
-1.63849e-07
2.33447e-09
-1.62995e-07
2.55804e-08
-1.59317e-07
3.68143e-08
-1.92858e-07
3.35213e-08
-1.49788e-07
2.07615e-08
-1.69173e-07
-6.58784e-09
-1.71691e-07
6.50249e-09
-1.68692e-07
5.86943e-09
-1.6635e-07
3.30253e-09
-1.80174e-07
5.42687e-09
-1.81229e-07
-1.46674e-08
-1.50911e-07
-4.15041e-08
-1.84607e-07
3.63231e-08
-1.90562e-07
1.46781e-08
1.07504e-08
-1.86792e-07
1.03469e-08
-8.41252e-08
-1.11434e-07
-1.03505e-07
-5.9842e-08
-1.42912e-07
-6.63781e-08
-5.52742e-08
-4.71181e-08
-1.89458e-07
-1.0615e-07
-1.03809e-07
-9.05341e-08
-1.23338e-07
-1.82528e-08
-1.31183e-07
-2.73924e-08
-1.38501e-07
-2.76743e-08
-1.45452e-07
-2.08304e-08
-1.48028e-07
-4.32734e-09
-1.1892e-07
1.68803e-09
-1.0238e-07
1.95658e-08
-1.53352e-07
1.0477e-07
-1.62576e-07
4.94519e-08
-1.16404e-07
6.56499e-08
-1.23703e-07
2.69583e-08
-1.70505e-07
1.60481e-08
-3.41501e-08
3.31585e-08
-1.69855e-07
7.62143e-09
-1.57956e-07
1.15044e-08
-1.6181e-07
-4.81415e-09
-1.50512e-07
-7.31716e-09
-1.5962e-07
-2.16557e-08
-1.41666e-07
-1.08022e-08
-1.23554e-07
3.74634e-09
-1.10259e-07
1.82013e-09
-1.08484e-07
1.82021e-09
-1.18177e-07
6.65548e-09
-1.44029e-07
1.36329e-08
-5.26929e-08
3.5204e-08
-1.29407e-07
-2.38884e-08
-1.36741e-07
-4.8282e-08
-1.04371e-07
-8.77288e-08
-9.31025e-08
-4.17011e-08
-9.75178e-08
-7.96973e-08
-1.38804e-07
-4.51406e-09
-5.58618e-08
8.46702e-09
-2.06095e-07
-3.82089e-08
-1.70443e-07
-2.09965e-08
-1.72359e-07
-3.04313e-08
-1.83264e-07
-4.33256e-08
-2.09944e-07
-7.30233e-08
-2.15376e-07
-3.88361e-08
-2.2329e-07
-9.48317e-09
-2.24021e-07
3.17814e-08
-2.00971e-07
8.97545e-08
-1.91431e-07
6.40281e-08
-1.8021e-07
4.1777e-08
-1.82381e-07
-1.63303e-08
-1.67056e-07
2.54291e-08
-1.47656e-07
1.10331e-08
-1.80931e-07
8.62861e-09
-2.25071e-07
3.35983e-08
-2.33765e-07
4.05198e-08
-1.17258e-07
3.89526e-08
-2.31582e-07
-5.4824e-08
-2.22359e-07
-9.67843e-09
-1.79981e-07
-4.26242e-08
-1.93541e-07
6.35183e-08
-1.87503e-07
1.75683e-08
-1.73952e-07
2.14882e-08
-2.16626e-07
2.69662e-08
-1.75587e-07
3.00414e-08
-1.49566e-07
-3.29454e-08
-1.91149e-07
4.8019e-08
-1.7085e-07
-1.44297e-08
-1.56531e-07
-1.10168e-08
-2.05169e-07
5.40644e-08
-2.2466e-07
4.67313e-09
-1.00514e-07
-2.13224e-08
-2.47022e-07
-9.51055e-09
-2.06596e-07
2.23611e-08
5.68163e-09
-2.1322e-07
3.5449e-08
-6.0955e-08
-8.38283e-08
-1.43401e-07
-1.21722e-07
-1.30319e-07
-7.94589e-08
-1.25838e-07
-5.24021e-08
-1.76024e-07
-1.04569e-07
-4.75814e-08
-2.42565e-08
-1.88914e-07
-2.14807e-08
-1.97881e-07
-2.06541e-08
-1.93991e-07
-2.98498e-08
-1.63805e-07
-5.1015e-08
-1.72193e-07
4.06457e-09
-1.54653e-07
-1.76088e-08
-7.34588e-08
8.25802e-08
-1.90381e-07
2.69487e-08
-1.47011e-07
5.56305e-08
-1.31205e-07
4.91748e-08
-1.49571e-07
4.53249e-08
-1.66872e-07
3.1648e-08
-3.74203e-08
4.93997e-08
-1.48611e-07
-2.36794e-08
-1.39496e-07
8.64874e-10
-1.3688e-07
-7.42906e-09
-1.34122e-07
-1.00746e-08
-1.44462e-07
-9.84216e-09
-1.31428e-07
-2.40779e-08
-1.22859e-07
-6.163e-09
-1.16043e-07
-4.99588e-09
-1.16012e-07
1.78941e-09
-1.16569e-07
7.21322e-09
-1.11837e-07
8.90028e-09
-7.41583e-08
-2.09828e-09
-6.75778e-08
-3.13926e-08
-1.15746e-07
-5.00925e-08
1.53411e-08
-2.31215e-08
-9.20407e-08
-7.90733e-08
-1.85934e-08
-8.27749e-09
-1.72709e-07
-4.26465e-08
-1.21318e-07
5.0988e-09
-1.50115e-07
-7.80176e-09
-1.49054e-07
-2.05526e-08
-1.50402e-07
-3.05887e-08
-1.50944e-07
-4.47599e-08
-1.6606e-07
-5.7163e-08
-1.78583e-07
-2.63133e-08
-1.85693e-07
-2.37399e-09
-1.9233e-07
3.84182e-08
-1.66665e-07
6.40892e-08
-1.69673e-07
6.63592e-08
-1.92419e-07
6.25598e-08
-1.39844e-07
7.7078e-08
-1.48446e-07
3.54584e-08
-1.41618e-07
4.20444e-09
-1.20154e-07
-1.16099e-08
-2.04204e-07
-2.52226e-08
-1.64986e-07
-7.81703e-10
-1.3805e-07
1.1222e-08
-1.99378e-07
6.504e-09
-2.21528e-07
-3.56386e-08
-1.1094e-07
3.92263e-08
-2.17757e-07
-2.14549e-08
-1.86164e-07
3.40846e-08
-1.62766e-07
-2.52679e-10
-2.03252e-07
6.78656e-08
-1.87894e-07
1.05842e-08
-7.99651e-08
4.99309e-09
-2.13601e-07
-9.86671e-09
-1.70026e-07
-9.99756e-09
-1.0522e-07
6.85056e-08
-2.17599e-07
-2.5995e-08
-2.04812e-07
-8.11421e-09
-9.30272e-08
6.02785e-08
-2.04279e-07
-4.0719e-08
-1.72564e-07
-1.14393e-08
-6.33224e-09
-1.26532e-07
-1.77414e-09
-1.07531e-07
-7.90599e-08
-1.88702e-07
-8.89643e-08
-1.34434e-07
-8.36916e-08
-2.08269e-07
-2.66757e-08
-1.87145e-07
6.78133e-08
-1.85239e-07
-2.42722e-08
-3.06294e-07
-4.35126e-08
-2.97166e-07
-3.57265e-08
-3.01725e-07
-2.52901e-08
-2.01595e-07
-1.68135e-09
-2.92952e-07
-5.09204e-08
-1.47884e-07
-1.81684e-08
-1.82443e-07
-2.50707e-08
-1.73402e-07
1.57724e-08
-1.64836e-07
4.70654e-08
-1.6427e-07
4.91103e-08
-1.49178e-07
3.02343e-08
-1.24293e-07
8.03122e-09
-1.2563e-07
5.02385e-08
-1.59619e-07
1.04158e-08
-1.52833e-07
-5.92073e-09
-1.57809e-07
-4.011e-09
-1.68888e-07
9.94985e-10
-1.62741e-07
-1.74712e-08
-1.68539e-07
-1.8338e-08
-1.44195e-07
-2.87876e-08
-1.44963e-07
-4.18429e-09
-1.38036e-07
-5.08603e-09
-1.29182e-07
-1.6232e-09
-1.15224e-07
-6.17025e-09
-1.39116e-07
-2.70911e-08
-7.38173e-08
-4.67297e-08
-7.62856e-08
-4.63479e-08
-6.73374e-08
-3.32867e-08
-1.10917e-07
-3.70025e-08
-1.01841e-07
-1.63041e-08
-1.82414e-07
3.79256e-08
-1.57736e-07
-1.79696e-08
-1.50572e-07
-1.4966e-08
-1.51503e-07
-2.13679e-08
-1.58218e-07
-2.41858e-08
-1.75521e-07
-2.74573e-08
-1.81322e-07
-5.13622e-08
-1.84836e-07
-2.27997e-08
-1.9593e-07
8.80891e-09
-1.82323e-07
2.45607e-08
-1.61801e-07
4.52175e-08
-1.5388e-07
5.84379e-08
-1.67355e-07
7.4465e-08
-1.45244e-07
5.3633e-08
-1.42715e-07
3.29292e-08
-1.45414e-07
6.9027e-09
-1.33014e-07
-2.40096e-08
-1.81361e-07
2.2867e-08
-1.57427e-07
-2.47164e-08
-1.47359e-07
1.15435e-09
-1.81866e-07
-7.09903e-09
-1.91067e-07
2.16716e-08
-1.62349e-07
1.05085e-08
-1.97876e-07
1.40717e-08
-2.15876e-07
5.03961e-08
-1.14593e-07
4.30993e-08
-2.25796e-07
-1.11455e-08
-1.89936e-07
2.27095e-08
-8.45853e-08
4.38687e-08
-2.13535e-07
-2.509e-08
-1.05215e-07
2.55598e-08
-1.76586e-07
-5.14872e-08
-2.02242e-07
-3.40101e-10
-1.86512e-07
2.42653e-08
-1.76242e-07
3.6963e-09
-1.78288e-07
8.5378e-09
-1.85472e-07
-6.07455e-09
-1.50516e-08
-1.81102e-07
-1.83777e-08
-1.48297e-07
-8.70131e-08
-2.34886e-07
-4.70057e-08
-1.25243e-07
1.50055e-09
-1.67975e-07
1.58945e-08
-2.50821e-07
-4.17781e-08
-2.27927e-07
9.43898e-10
-2.57483e-07
-1.43997e-08
-2.70755e-07
-2.24537e-08
-2.59016e-07
-3.71494e-08
-2.84591e-07
2.09916e-08
-3.06771e-07
-2.61024e-08
-2.61037e-07
-6.06206e-08
-2.60485e-07
-2.85403e-08
-2.30539e-07
-1.40296e-08
-2.07751e-07
2.21592e-08
-2.42105e-07
3.48595e-08
-1.98088e-07
3.64265e-08
-9.65313e-08
5.08033e-08
-1.86101e-07
-3.96618e-09
-1.84069e-07
8.3845e-09
-1.78225e-07
-1.1824e-08
-1.60102e-07
-2.05006e-08
-1.22189e-07
-3.56827e-08
-1.01997e-07
-3.78668e-08
-8.20514e-08
-3.91281e-08
-7.89947e-08
-3.18751e-08
-7.04146e-08
-1.21759e-08
-4.53076e-08
-3.01419e-08
-4.03186e-08
-6.6624e-09
-5.01878e-08
2.78508e-09
-1.28481e-07
2.3589e-09
-1.10792e-07
-1.49986e-08
-1.41223e-07
-1.63897e-08
-1.53459e-07
-2.13899e-08
-1.65812e-07
-2.62317e-08
-1.03986e-07
6.76852e-08
-2.16395e-07
-4.06272e-08
-1.76719e-07
-9.44061e-09
-1.71609e-07
-2.02288e-08
-1.6966e-07
-2.33174e-08
-1.70542e-07
-2.33043e-08
-2.04276e-07
-4.22641e-08
-2.04081e-07
-3.48321e-09
-2.18146e-07
-1.10742e-08
-2.4674e-07
-8.6593e-09
-2.39265e-07
6.72008e-08
-2.24125e-07
2.76363e-08
-1.72717e-07
7.70483e-09
-1.8116e-07
3.66461e-08
-1.57355e-07
7.66774e-08
-1.54704e-07
2.86722e-08
-1.70827e-07
2.30262e-08
-7.04757e-08
1.99669e-08
-2.00638e-07
-3.9409e-08
-1.70584e-07
-6.66119e-09
-1.62137e-07
-7.29226e-09
-1.67409e-07
-1.82685e-09
-1.51521e-07
5.72447e-09
-1.53486e-07
1.24732e-08
-1.64858e-07
2.37618e-08
-1.87613e-07
2.4546e-08
-1.47014e-07
5.20835e-08
-1.75874e-07
1.78278e-08
-1.64181e-07
1.29229e-08
-1.33373e-07
1.26175e-08
-1.50627e-07
-1.09896e-08
-1.57317e-07
-1.66195e-08
-1.71794e-07
1.27043e-08
-1.77633e-07
5.49763e-09
-1.43118e-07
-1.03558e-08
-1.71165e-07
3.17432e-08
-1.6956e-07
7.01859e-09
-1.71723e-07
-3.91237e-09
-2.83947e-08
-1.99615e-07
1.22446e-08
-9.95909e-08
1.52456e-09
-1.3197e-07
-1.1098e-08
-8.29565e-08
-4.66662e-08
-1.84984e-07
-2.49486e-08
-1.79963e-07
-4.86848e-08
-1.91378e-07
1.22344e-08
-2.01327e-07
-4.44956e-09
-2.18629e-07
-7.38192e-09
-1.21558e-07
1.15965e-08
-2.2277e-07
-6.82962e-08
-2.15515e-07
-3.30905e-08
-2.15165e-07
-1.36175e-08
-2.27082e-07
-6.24153e-08
-1.9804e-07
4.55299e-09
-1.87629e-07
9.72841e-09
-2.15337e-07
1.63007e-08
-1.69988e-07
3.87014e-08
-1.39719e-07
2.00219e-08
-1.57074e-07
1.33904e-08
-1.62483e-07
1.20679e-08
-1.6249e-07
-1.16964e-08
-1.54078e-07
-2.8912e-08
-1.30072e-07
-6.06717e-08
-1.45247e-07
-2.30777e-08
-1.25846e-07
-5.95348e-08
-1.76056e-07
1.65397e-08
-1.8452e-07
-5.05405e-08
-1.63169e-07
-2.31052e-09
-1.62464e-07
-9.09912e-09
-1.65287e-07
5.63658e-09
-1.69614e-07
6.66156e-09
-1.70481e-07
-1.4132e-08
-1.78456e-07
-8.4144e-09
-1.84629e-07
-1.71003e-08
-6.54723e-08
4.31834e-10
-1.69851e-07
-1.84755e-08
-1.53187e-07
-8.1207e-09
-1.45279e-07
-1.88963e-08
-1.38153e-07
-2.88365e-08
-1.4068e-07
-2.07909e-08
-1.53246e-07
-1.23022e-08
-1.89137e-07
-8.32307e-09
-2.11021e-07
1.81754e-08
-2.42795e-07
2.2874e-08
-2.30462e-07
-1.84275e-08
-2.47508e-07
3.64515e-08
-2.35907e-07
6.17377e-08
-1.47027e-07
6.46407e-08
-1.34332e-07
2.6821e-08
-1.6182e-07
-3.79315e-08
-1.33835e-07
-9.64381e-10
-1.43246e-07
3.24376e-08
-1.17952e-07
-5.32709e-09
-1.47854e-07
-9.50771e-09
-1.40037e-07
-1.44781e-08
-1.32454e-07
-1.48758e-08
-1.30546e-07
-2.4034e-09
-1.21295e-07
-3.56281e-09
-1.30154e-07
2.00955e-08
-1.35461e-07
2.90678e-08
-1.17875e-07
6.70943e-09
-1.2307e-07
5.67002e-08
-1.34143e-07
2.89002e-08
-1.37988e-07
1.67677e-08
-1.31695e-07
6.45316e-09
-1.43834e-07
1.14907e-09
-1.40077e-07
-2.04158e-08
-1.6109e-07
3.3717e-08
-1.71035e-07
1.36979e-08
-8.53054e-08
4.97299e-08
-1.79973e-07
-1.70484e-08
-1.69067e-07
-3.88772e-09
-2.10482e-07
-1.06075e-08
2.26126e-08
-2.01372e-07
3.38352e-08
-1.40352e-07
-2.01158e-08
-1.35722e-07
-1.28636e-08
-4.54468e-08
7.3875e-09
-2.10102e-07
-5.29853e-08
-8.18571e-08
1.63442e-08
-1.68252e-07
-4.42403e-08
-1.46094e-07
-2.83236e-08
-1.27186e-07
-2.6289e-08
-9.00638e-08
-2.47245e-08
-1.17578e-07
-4.11968e-08
-1.54231e-07
7.89946e-10
-1.78197e-07
-3.82558e-08
-1.80158e-07
-1.05265e-08
-1.70467e-07
-5.0902e-09
-1.70911e-07
1.01727e-08
-1.73498e-07
1.88891e-08
-1.71478e-07
-9.28294e-09
-1.29143e-07
2.53116e-08
-1.20826e-07
5.12581e-09
-1.06224e-07
-1.46064e-09
-1.18807e-07
-1.87273e-10
-1.37103e-07
-1.32265e-08
-6.55599e-08
1.36017e-08
-2.15936e-07
-1.87545e-08
-1.0013e-07
-2.95251e-08
-2.14951e-07
-6.00543e-08
-2.08462e-07
-8.40429e-09
-1.93611e-07
-1.71848e-08
-2.02506e-07
-2.03702e-10
-1.94685e-07
-2.18434e-09
-1.82504e-07
-5.51935e-09
-1.6587e-07
-3.10827e-08
-1.88209e-07
1.39242e-08
-2.05505e-07
-1.90106e-09
-9.45091e-08
3.62215e-08
-2.0722e-07
-4.76813e-08
-1.91384e-07
-2.6154e-08
-1.82977e-07
-2.74956e-08
-1.75727e-07
-3.60871e-08
-1.81325e-07
-1.53496e-08
-1.98586e-07
5.00958e-09
-1.9675e-07
-1.00745e-08
-2.20541e-07
4.13586e-08
-2.60616e-07
1.46057e-08
-1.39623e-07
5.44422e-08
-2.19624e-07
-2.64193e-08
-2.03203e-07
4.30757e-08
-1.80578e-07
4.13566e-08
-1.86455e-07
3.26975e-08
-1.12004e-07
3.15591e-08
-8.95645e-08
-2.36457e-08
-2.00846e-07
-6.09101e-10
-1.69839e-07
-3.63348e-08
-1.60184e-07
-1.91626e-08
-1.54691e-07
-1.99714e-08
-1.61119e-07
-8.44822e-09
-1.65714e-07
5.01216e-10
-1.6718e-07
-2.13428e-09
-1.80882e-07
3.55028e-08
-2.27751e-07
2.78275e-08
-7.16543e-08
4.37814e-08
-1.56292e-07
-1.5335e-09
-1.44281e-07
1.52943e-08
-1.45719e-07
1.82053e-08
-1.50655e-07
1.13896e-08
-1.71041e-07
1.97893e-08
-7.79492e-08
3.23082e-08
-1.72199e-07
-1.55669e-08
-1.32444e-07
-2.63258e-08
-1.29962e-07
4.67402e-08
-1.67714e-07
2.07026e-08
-1.58214e-07
-1.32536e-08
-1.81521e-07
1.2699e-08
3.07731e-08
-1.63508e-07
7.55269e-09
-1.23375e-07
-3.1538e-08
-1.16555e-07
-1.71658e-08
-9.99009e-08
-9.2658e-09
-1.42643e-07
-1.02427e-08
-1.11771e-07
-1.45264e-08
-1.37007e-07
-1.94551e-08
-1.24972e-07
-4.03581e-08
-1.0237e-07
-4.93939e-08
-1.14031e-07
-1.42267e-08
-6.93667e-08
1.08147e-08
-1.71399e-07
-4.07981e-08
-1.98244e-07
-1.10192e-08
-1.51257e-07
-9.30855e-09
-1.46553e-07
-9.79354e-09
-1.38789e-07
2.40983e-09
-1.32641e-07
1.27424e-08
-1.5486e-07
1.29363e-08
-1.42759e-07
1.36083e-08
-1.31883e-07
-5.74875e-09
-1.3605e-07
1.30353e-09
-2.0004e-07
1.53553e-08
-1.82154e-07
1.90377e-08
-1.46841e-07
-2.33469e-08
-1.82689e-07
-3.1512e-08
-1.55298e-07
-6.6414e-09
-1.90493e-07
-2.48588e-08
-1.76653e-07
-2.22434e-08
-1.59629e-07
-3.45611e-08
-1.91219e-07
3.13866e-08
-1.87085e-07
-6.31879e-09
-2.09646e-07
1.49035e-08
-1.25563e-07
3.06498e-08
-2.24469e-07
-3.02171e-08
-1.95554e-07
-3.11335e-08
-1.87096e-07
2.73933e-08
-2.05407e-07
-2.98562e-08
-2.17846e-07
-1.38572e-08
-2.42442e-07
-5.10083e-08
-2.5818e-07
2.51261e-08
-2.39683e-07
-3.63179e-08
-2.72408e-07
3.97951e-08
-1.74947e-07
4.09382e-08
-2.56313e-07
-2.03523e-08
-2.44072e-07
-2.49652e-10
-2.14862e-07
2.5231e-08
-1.36489e-07
3.92667e-08
-2.2054e-07
-1.7202e-08
-1.90517e-07
1.13334e-08
-1.72398e-07
1.45785e-08
-1.50715e-07
8.33846e-09
-4.50614e-08
1.65159e-08
-1.78384e-07
-5.92652e-08
-1.58026e-07
-8.58276e-09
-1.41228e-07
-3.59607e-08
-1.15332e-07
-4.63404e-08
-1.4737e-07
2.3351e-08
-1.63123e-07
1.62543e-08
-1.92448e-07
2.74927e-08
-1.83535e-07
-2.15204e-08
-1.80026e-07
2.43183e-08
-1.2607e-07
3.79348e-08
-1.55018e-07
2.73989e-08
-1.58301e-07
1.85767e-08
-1.65557e-07
2.5461e-08
-1.63671e-07
9.50332e-09
-1.59536e-07
1.56543e-08
-1.45296e-07
1.77379e-08
-1.78902e-07
1.62134e-08
-8.69494e-08
2.75373e-08
-1.70665e-07
-6.17247e-08
-1.85983e-07
3.79164e-08
-1.71511e-07
1.98975e-08
-1.78385e-07
1.78225e-08
5.9211e-09
-1.36175e-07
-2.71505e-08
-1.24635e-07
-1.7252e-08
-1.10686e-07
-2.85715e-08
-1.09479e-07
-1.04719e-08
-1.29792e-07
1.00708e-08
-1.29879e-07
-1.4439e-08
-1.2336e-07
-2.59728e-08
-1.42014e-07
-2.3153e-08
-5.92805e-08
1.36897e-08
-6.64049e-08
-5.81931e-09
-1.47488e-07
-5.10815e-08
-1.34528e-07
-5.52617e-08
-1.83222e-07
-8.47873e-09
-1.07286e-07
-3.80037e-08
-1.23501e-07
5.27448e-09
-9.8321e-08
-2.30043e-08
-1.19206e-07
3.36283e-08
-1.32586e-07
2.4964e-08
-1.64132e-07
-3.45014e-09
-1.40082e-07
1.99861e-08
-1.43339e-07
3.09886e-09
-1.82807e-07
6.06064e-09
-1.61965e-07
6.16314e-11
-1.44993e-07
7.79079e-09
-1.66412e-07
-9.77139e-09
-1.61107e-07
-1.19451e-08
-1.78975e-07
-6.99088e-09
-1.95384e-07
-7.82723e-09
-1.01499e-07
1.73706e-08
-2.00047e-07
-6.21018e-08
-2.11402e-07
5.31464e-08
-1.86102e-07
-1.03965e-08
-1.63616e-07
7.85103e-09
-2.01659e-07
5.76898e-09
-1.07211e-07
2.02342e-08
-2.52569e-07
-1.85931e-08
-2.23325e-07
-1.3269e-08
-2.14791e-07
-7.09969e-08
-2.25854e-07
1.03548e-08
-2.70864e-07
2.18046e-08
-1.56934e-07
4.41611e-08
-2.45928e-07
-1.20006e-08
-2.07175e-07
-2.36648e-09
-2.21119e-07
-8.66486e-09
-2.14044e-07
-5.06884e-09
-1.92942e-07
4.12877e-09
-1.62786e-07
9.01824e-09
-2.20619e-07
-7.47869e-09
-1.56977e-07
-4.19944e-09
-1.45863e-07
3.46412e-09
-1.31695e-07
-5.82979e-09
-1.08512e-07
-6.83576e-09
-1.40019e-07
-2.77581e-08
-1.3493e-07
-1.36718e-08
-1.55811e-07
-1.66696e-08
-4.76983e-08
-8.1463e-09
-1.66833e-07
9.49762e-11
-1.61158e-07
7.23323e-09
-1.82503e-07
2.31998e-10
-1.79948e-07
2.58955e-08
-1.73667e-07
1.80376e-08
-1.56597e-07
2.10795e-08
-1.73545e-07
4.48033e-08
-1.72742e-07
1.77741e-08
-1.59655e-07
1.2374e-08
-1.58702e-07
8.54986e-09
-1.58048e-07
1.49996e-08
-1.59824e-07
1.9513e-08
-1.6377e-07
2.0159e-08
-1.63227e-07
2.50477e-08
-1.0792e-07
2.87844e-08
-2.16741e-07
-4.46002e-08
-1.63827e-07
-3.31534e-08
-1.94869e-07
4.88644e-08
9.29941e-09
-1.72298e-07
-5.60501e-08
-1.5794e-07
-6.25978e-09
-1.4388e-07
-3.94085e-08
-1.3758e-07
-1.67715e-08
-1.57274e-07
-1.83435e-08
-1.71611e-07
-1.00927e-10
-1.42784e-07
-6.62226e-09
-1.28254e-07
-3.80704e-08
-1.08947e-07
-5.75666e-09
-1.45266e-07
3.05004e-08
-1.80677e-07
-1.61902e-08
-9.36195e-08
2.96465e-09
-2.02837e-07
-4.41795e-08
-1.0472e-07
8.29274e-09
-2.05892e-07
-3.74447e-08
-9.97326e-08
1.45305e-08
-2.00258e-07
-9.1564e-09
-1.75039e-07
-2.54567e-10
-1.72278e-07
-6.17501e-09
-1.60728e-07
8.43655e-09
-1.4229e-07
-1.53379e-08
-1.6444e-07
2.7865e-08
-1.64559e-07
1.81499e-10
-1.58895e-07
2.12708e-09
-1.75775e-07
7.10893e-09
-1.7675e-07
-1.09694e-08
-2.11564e-07
-2.02856e-08
-1.66184e-07
-5.09763e-09
-1.63846e-07
1.31841e-08
-1.07508e-07
2.73758e-08
-2.12317e-07
-3.33848e-08
-1.87144e-07
1.25401e-08
-1.7535e-07
-3.94345e-09
-1.68562e-07
-1.01837e-09
-1.48235e-07
-2.99153e-10
-1.95939e-07
-1.89994e-08
-2.08788e-07
-4.19689e-10
-1.36726e-07
5.01025e-08
-1.46429e-07
2.15518e-08
-2.23277e-07
-4.37762e-08
-1.71848e-07
-9.54619e-09
-1.6402e-07
-1.82779e-08
-1.47538e-07
-1.73829e-08
-1.39973e-07
-1.76325e-08
-1.35092e-07
-1.13782e-08
-1.24535e-07
-5.15803e-09
-1.07392e-07
-8.12416e-09
-1.65615e-07
1.53827e-09
-1.23746e-07
2.06249e-09
-1.22893e-07
2.61036e-09
-1.30931e-07
2.20764e-09
-1.19279e-07
-1.83013e-08
-1.31915e-07
-1.51223e-08
-1.32658e-07
-1.29285e-08
-1.38103e-07
-1.12255e-08
-2.53368e-08
2.37576e-08
-1.46624e-07
-2.14881e-08
-1.47167e-07
6.28083e-09
-1.56543e-07
9.60538e-09
-1.48476e-07
1.7828e-08
-1.62253e-07
3.01584e-08
-1.42444e-07
-1.9709e-10
-1.85046e-07
3.98566e-08
-1.57329e-07
4.00543e-08
-1.57637e-07
1.25536e-08
-1.64146e-07
1.52132e-08
-1.49292e-07
1.45175e-10
-1.51578e-07
2.15789e-08
-1.56113e-07
2.46934e-08
-1.57724e-07
2.66587e-08
-1.55846e-07
2.66116e-08
-2.08067e-07
5.49768e-09
-1.00733e-07
5.38288e-09
-2.40375e-07
-2.87483e-09
2.88657e-08
-2.44397e-08
9.93991e-09
-1.77453e-07
-4.59049e-08
-1.27033e-07
-8.62075e-08
-1.32038e-07
-1.17657e-08
-1.4804e-07
-2.34047e-09
-1.86852e-07
4.02075e-08
-1.69995e-07
2.2428e-08
-9.33744e-08
2.93739e-08
-9.75299e-08
-6.478e-10
-1.97295e-07
-6.21716e-08
-1.67289e-07
-4.66714e-08
-1.76575e-07
1.22516e-08
-1.87979e-07
1.48835e-08
-1.7651e-07
-3.25995e-09
-1.97618e-07
-1.67175e-08
-1.72362e-07
-1.0873e-08
-1.91337e-07
-3.829e-08
-1.82638e-07
-8.95249e-09
-1.84309e-07
4.36056e-08
-1.91323e-07
1.52957e-08
-1.01861e-07
4.05677e-08
-1.93599e-07
-2.32666e-08
-1.8195e-07
-1.34421e-08
-1.6488e-07
-1.49429e-08
-1.70185e-07
-3.56941e-08
-1.6064e-07
-2.0514e-08
-1.73073e-07
-7.85278e-09
-1.40432e-07
1.03714e-08
-1.35565e-07
8.31706e-09
-1.25546e-07
1.70777e-08
-1.6906e-07
1.01301e-08
-1.59471e-07
2.95061e-09
-1.573e-07
-6.11414e-09
-1.56431e-07
-1.88695e-09
-1.53879e-07
-2.85114e-09
-1.67981e-07
-4.8977e-09
-1.6883e-07
4.29181e-10
-1.14797e-07
-3.93068e-09
-1.60657e-07
2.07299e-08
-1.55349e-07
-1.90281e-09
-1.67423e-07
9.4253e-10
-1.58962e-07
-2.67397e-08
-1.48087e-07
-2.84352e-08
-1.43155e-07
-2.27444e-08
-1.32692e-07
-2.18413e-08
-1.44975e-07
7.19786e-09
-1.36692e-07
-1.64903e-08
-1.46423e-07
9.77523e-09
-1.54507e-07
1.01465e-08
-1.45993e-07
-4.32768e-09
-1.79787e-07
-1.02743e-08
-1.42141e-07
-8.32392e-09
-1.4985e-07
-8.86345e-09
-1.50519e-07
-1.21361e-08
-1.34575e-07
-2.74498e-08
-1.11309e-07
4.91731e-10
-1.28742e-07
-4.27527e-09
-1.31794e-07
9.3332e-09
-1.32819e-07
1.06301e-08
-1.33512e-07
1.85203e-08
-1.80703e-07
2.92402e-08
-4.21927e-08
5.36152e-08
-1.34368e-07
-1.11293e-08
-9.96873e-08
4.96871e-09
-1.04595e-07
1.64046e-08
-1.55479e-07
1.64141e-08
-1.42295e-07
3.81073e-08
-1.4731e-07
2.65938e-08
-1.55361e-07
3.09255e-08
-1.54075e-07
2.51166e-08
-1.76764e-07
4.88015e-08
-2.02921e-07
2.95838e-08
-9.82325e-08
4.74666e-08
-2.20445e-07
-2.25413e-08
-7.19846e-10
-1.45338e-07
-3.60198e-08
-2.13012e-07
4.82231e-08
-1.21124e-07
-2.7247e-08
-1.40235e-07
7.27187e-09
-1.26745e-07
-1.45366e-08
-2.00985e-07
-2.8423e-08
-1.69726e-07
-1.06515e-08
-1.18533e-07
-2.23456e-08
-1.45931e-07
2.67506e-08
-1.91933e-07
-1.81269e-08
-1.04177e-07
1.13893e-08
-2.13521e-07
-2.16694e-08
-1.8791e-07
-1.07268e-08
-1.7753e-07
-1.36384e-08
-1.82552e-07
-1.16956e-08
-1.73058e-07
-2.03659e-08
-1.89677e-07
-2.16701e-08
-1.89099e-07
-9.52956e-09
-1.59054e-07
-3.29254e-08
-1.59545e-07
6.27773e-08
-1.43832e-07
2.32269e-08
-1.68259e-07
9.24331e-10
-1.72127e-07
-9.5734e-09
-1.60362e-07
-2.67075e-08
-1.71535e-07
-2.45207e-08
-1.69183e-07
-2.28652e-08
-1.51873e-07
-2.51629e-08
-1.31258e-07
-1.02436e-08
-1.33836e-07
1.08959e-08
-1.30856e-07
1.40978e-08
-1.3359e-07
1.28646e-08
-1.38266e-07
7.62611e-09
-1.46542e-07
2.16283e-09
-1.49938e-07
1.50846e-09
-1.66973e-07
1.41839e-08
-1.55176e-07
-1.65262e-08
-1.60765e-07
6.01869e-09
-5.19297e-08
3.20918e-08
-1.54821e-07
-1.92501e-08
-1.51075e-07
-7.24727e-09
-1.92477e-07
-5.76541e-09
-1.74113e-07
3.00603e-09
-1.61403e-07
-4.1146e-08
-1.54051e-07
-3.00964e-08