/*--------------------------------*- C++ -*----------------------------------*\
  =========                 |
  \\      /  F ield         | OpenFOAM: The Open Source CFD Toolbox
   \\    /   O peration     | Website:  https://openfoam.org
    \\  /    A nd           | Version:  12
     \\/     M anipulation  |
\*---------------------------------------------------------------------------*/
FoamFile
{
    format      ascii;
    class       surfaceScalarField;
    location    "0.4";
    object      phi.water;
}
// * * * * * * * * * * * * * * * * * * * * * * * * * * * * * * * * * * * * * //

dimensions      [0 3 -1 0 0 0 0];

internalField   nonuniform List<scalar> 
7375
(
-2.52423e-07
3.6198e-08
-1.41969e-07
-6.39561e-08
-4.34005e-08
-9.55575e-08
2.00729e-08
-6.28395e-08
4.26451e-08
-2.23051e-08
4.70636e-08
-4.36022e-09
4.895e-08
-1.91189e-09
5.2296e-08
-3.32637e-09
6.35091e-08
-1.11644e-08
7.82264e-08
-1.46652e-08
1.02346e-07
-2.3843e-08
1.07477e-07
-5.05096e-09
1.07636e-07
-2.02662e-10
9.16039e-08
1.60512e-08
8.41156e-08
7.44392e-09
8.31621e-08
9.93341e-10
1.35976e-07
-5.28114e-08
1.47513e-07
-1.16954e-08
1.57701e-07
-1.2134e-08
1.31186e-07
2.62488e-08
1.20604e-07
1.17885e-08
1.09353e-07
1.12087e-08
1.08698e-07
6.86662e-10
1.11012e-07
-2.25144e-09
1.11019e-07
1.10012e-09
1.02365e-07
8.6265e-09
1.133e-07
-1.22581e-08
1.3696e-07
-2.39145e-08
9.89223e-08
-1.10444e-08
1.23092e-07
2.34534e-08
1.05898e-07
1.94631e-08
2.20407e-07
3.09868e-08
1.13663e-07
-3.97908e-08
9.98977e-08
-3.42792e-08
1.55389e-07
-7.44154e-09
1.666e-07
-1.12644e-08
1.71733e-07
-6.89413e-09
1.67293e-07
4.39591e-09
1.53117e-07
1.58064e-08
1.43271e-07
9.97097e-09
1.31202e-07
1.22491e-08
1.54516e-07
-2.49706e-08
1.86573e-07
-3.20561e-08
2.07157e-07
-2.05454e-08
2.32006e-07
-2.48485e-08
2.19721e-07
1.69451e-08
1.90606e-07
3.15372e-08
1.49025e-07
3.86972e-08
1.38368e-07
9.24586e-09
1.12843e-07
2.59585e-08
1.13222e-07
-3.78419e-10
1.12512e-07
1.87765e-09
1.16202e-07
-3.70685e-09
1.11772e-07
4.39863e-09
1.12275e-07
-4.30284e-10
1.16714e-07
-4.41773e-09
1.16162e-07
1.82828e-09
1.16185e-07
3.18146e-11
1.2303e-07
-6.69304e-09
1.21372e-07
1.77832e-09
1.19173e-07
9.70278e-10
1.04883e-07
1.4243e-08
1.18994e-07
-1.41398e-08
1.31301e-07
-1.23375e-08
9.58221e-08
3.50774e-08
7.23307e-08
2.32471e-08
6.16687e-08
1.06121e-08
6.72355e-08
-5.46434e-09
6.4587e-08
3.28583e-09
1.82856e-07
2.6192e-08
7.79081e-08
-4.05559e-08
1.05414e-07
-2.56541e-08
1.05601e-07
9.011e-10
1.06582e-07
-2.04047e-09
1.16079e-09
-1.53917e-07
-2.26532e-09
-1.54742e-07
-9.02519e-08
-1.05049e-07
-8.97549e-08
-9.63401e-08
-7.14621e-08
-7.86361e-08
-3.97845e-08
-5.29719e-08
-3.056e-08
-4.93608e-08
-6.57845e-09
-7.63363e-08
-2.47028e-08
-4.12051e-08
2.56574e-09
-2.54027e-08
-3.02093e-08
1.26167e-08
-6.26229e-08
8.04109e-09
-3.48873e-10
3.06006e-08
-2.26809e-08
3.05035e-08
-3.26278e-08
8.71525e-09
2.92314e-08
-2.17297e-08
3.14374e-08
6.95907e-08
4.90152e-08
3.45884e-08
2.4019e-08
3.94404e-08
-1.77577e-08
-3.63151e-08
-4.10322e-08
-1.46542e-08
-1.02398e-08
-4.00001e-08
-1.12971e-08
1.73745e-08
-9.24032e-09
1.48842e-08
4.13519e-10
1.57279e-08
4.07874e-10
2.64199e-08
-1.61514e-09
-3.6108e-08
7.82003e-10
-1.67664e-08
6.09297e-09
-4.88499e-08
2.14286e-08
-3.95611e-08
1.44035e-08
-2.96245e-08
9.82873e-09
-2.16929e-08
2.27421e-08
-1.62823e-08
-4.49638e-08
-2.2492e-08
-2.77861e-08
2.08746e-08
-5.13315e-08
9.60109e-09
9.11704e-12
3.0625e-08
-2.85211e-08
-2.59668e-09
3.76883e-08
5.32699e-09
7.91073e-09
1.16293e-09
1.42141e-08
-1.87635e-08
-1.6773e-08
3.94108e-08
-3.43024e-08
6.45483e-08
-5.81786e-08
1.06934e-07
-6.35727e-08
1.5466e-07
-7.24763e-08
1.4662e-07
2.64812e-08
1.16831e-07
6.15705e-08
7.65777e-08
7.8137e-08
1.42815e-07
8.81305e-08
3.63664e-08
-1.35158e-08
2.06498e-08
1.53346e-08
-1.47524e-08
3.69033e-08
-1.51096e-08
-3.19531e-09
-1.34892e-09
-9.34845e-09
1.15228e-08
-1.33155e-08
1.78878e-08
-1.06653e-08
3.9459e-08
-1.91449e-08
5.91476e-08
-2.02668e-08
7.63804e-08
-2.52944e-08
8.64705e-08
-7.55853e-09
9.14313e-08
-3.14032e-09
3.25917e-08
2.52306e-08
4.55189e-09
6.20096e-08
1.04916e-07
3.05561e-08
-2.28814e-08
2.02357e-08
-1.85316e-09
1.98792e-09
-1.93272e-08
-1.98447e-08
9.07579e-09
1.37563e-08
-1.38113e-08
2.59838e-08
-1.21422e-08
2.425e-08
-3.60422e-08
-1.68218e-08
-3.13025e-08
-3.06552e-08
-1.89229e-08
-1.12938e-08
-7.61491e-09
-1.33478e-08
-5.18706e-09
-1.65014e-07
-1.04852e-09
-1.41406e-07
-7.78854e-08
-1.86973e-07
-8.69504e-08
-1.24919e-07
-8.62236e-08
-1.04955e-07
-6.10103e-08
-9.84438e-08
-3.84547e-08
-7.21385e-08
-3.35533e-08
-1.15971e-07
2.03686e-08
-9.5224e-08
-1.70105e-08
-1.09533e-07
-1.78085e-08
-1.81142e-08
-8.87189e-09
-1.34064e-07
-2.85469e-08
-1.61232e-07
1.20839e-09
-8.21688e-08
3.60181e-08
-1.89822e-07
-5.76769e-09
-1.60296e-07
1.91029e-09
-1.00373e-07
-1.10211e-08
-1.25933e-07
4.93328e-08
-1.36243e-07
-7.08556e-09
-1.53701e-07
-2.39936e-08
-1.54886e-07
-9.16032e-09
-1.87754e-07
2.17922e-08
-1.69597e-07
-2.77759e-08
-1.70302e-07
1.12215e-09
-1.73419e-07
3.56136e-09
-1.78163e-07
3.12752e-09
-1.71132e-07
-6.32952e-09
-1.78769e-07
1.18438e-08
-2.01102e-07
4.33145e-08
-1.87545e-07
2.89844e-09
-1.77962e-07
2.45764e-10
-1.69572e-07
-3.17961e-08
-1.57537e-07
-7.78413e-09
-1.50044e-07
-3.83853e-08
-5.56673e-08
-1.4385e-09
-1.43346e-07
-5.81282e-08
-2.95808e-08
3.53008e-09
-1.67997e-07
-1.54891e-08
-1.09823e-07
-2.07259e-09
-1.16678e-07
-2.5995e-08
-7.29244e-08
-1.1827e-08
-5.13878e-08
-5.65752e-08
-4.57487e-08
-6.48084e-08
-4.7345e-08
-6.24754e-08
6.32065e-08
-3.67235e-08
3.81291e-09
-5.91371e-08
2.67188e-08
3.80431e-08
3.43308e-08
7.07221e-08
-1.45116e-09
1.24267e-07
2.27314e-08
1.07015e-07
-6.05743e-09
4.39535e-08
-9.7268e-08
-1.47568e-08
-8.78414e-08
-1.36141e-08
-8.1019e-08
-1.62662e-08
-7.49448e-08
-1.95254e-08
-7.27681e-08
-1.20996e-08
-7.27916e-08
-1.93164e-08
-7.80205e-08
-1.57343e-08
-7.68246e-08
-2.70239e-08
-8.02058e-08
-5.0727e-09
-9.81551e-08
1.37973e-08
-1.15799e-07
4.38867e-08
-1.42366e-07
4.1648e-08
2.84501e-09
7.77832e-08
-1.33813e-07
-3.53375e-08
-1.10291e-07
-2.12964e-08
-1.03727e-07
2.17009e-08
-7.56214e-08
-1.43551e-08
-7.13198e-08
2.16822e-08
-8.95226e-08
4.15343e-08
-9.90971e-08
-7.2471e-09
-1.08831e-07
-2.09208e-08
-1.03474e-07
-1.66495e-08
-9.99277e-08
-1.82355e-08
1.45256e-08
-2.46349e-07
1.03509e-08
-1.59504e-07
-7.3716e-08
-1.72356e-07
-7.42319e-08
-1.40741e-07
-1.15759e-07
-1.46742e-07
-5.41963e-08
-1.44625e-07
-4.0572e-08
-3.10198e-08
-2.51458e-09
-1.08779e-07
-4.49495e-08
-8.79673e-08
-3.86026e-08
-7.88319e-08
-2.69446e-08
-7.23171e-08
-1.61012e-08
-1.02801e-07
8.78349e-10
-1.74851e-07
2.26168e-08
-1.4154e-07
5.18372e-08
-1.81386e-07
3.51629e-08
-2.01521e-07
1.97866e-08
-8.39976e-08
1.70944e-08
-2.07052e-07
-1.90006e-08
-1.91173e-07
2.51444e-08
-2.06538e-07
-8.71892e-09
-1.97113e-07
-2.08094e-08
-2.59338e-07
3.24049e-08
-1.79677e-07
4.06323e-08
-2.62901e-07
-1.2594e-08
-2.46474e-07
-1.2866e-08
-2.54528e-07
1.10989e-08
-1.52897e-07
3.78552e-08
-1.44603e-07
6.58444e-09
-2.13902e-07
-3.06949e-08
-1.989e-07
-1.42865e-08
-1.84815e-07
-1.38394e-08
-2.01704e-07
-1.49072e-08
-2.36215e-07
-2.14619e-08
-1.70145e-07
-5.67374e-08
-1.49973e-07
-2.33643e-08
-9.72137e-08
3.49287e-08
-3.1623e-08
-6.07821e-08
-1.45201e-07
-4.43336e-08
-1.26008e-07
-2.27471e-08
-1.23649e-07
-2.8354e-08
-9.11899e-08
-4.4406e-08
-9.94861e-08
-4.88559e-08
-1.44628e-07
-6.63001e-08
-1.03452e-07
-5.53968e-08
-9.86966e-08
-4.21593e-08
-1.31977e-07
-2.58567e-08
-1.38947e-07
4.39844e-08
-4.29553e-08
1.18878e-07
-1.36363e-07
7.37066e-08
-9.82227e-08
6.98767e-08
-9.74497e-08
4.21785e-08
-1.12978e-07
6.20594e-10
-1.27029e-07
4.37194e-10
-1.28482e-07
-1.48125e-08
-1.40669e-07
-7.33854e-09
-1.44441e-07
-9.70231e-09
-1.68975e-07
3.27685e-09
-1.82168e-07
-2.6497e-09
-1.85223e-07
-2.20916e-08
-1.78697e-07
-9.70935e-09
-1.74026e-07
8.98523e-09
-1.4195e-07
1.13632e-08
-1.15759e-07
1.5457e-08
-8.38009e-08
-2.30743e-09
-1.3403e-07
1.62597e-08
-1.39926e-07
3.22233e-08
-1.55612e-07
3.47261e-08
-8.41796e-08
6.00284e-08
-8.03127e-08
1.94935e-08
-1.53504e-07
-2.81446e-08
-1.53457e-07
-8.77044e-09
-1.49174e-07
-2.5204e-08
-1.53663e-07
-1.37267e-08
-1.63474e-07
-8.4237e-09
1.30785e-08
-1.64508e-07
-2.54651e-09
-1.63144e-07
-9.28066e-08
-1.50159e-07
-8.1599e-08
-1.33637e-07
-8.4341e-08
-1.51891e-07
-3.73065e-08
-1.44661e-07
-4.78019e-08
-1.08562e-07
-3.86149e-08
-1.06419e-07
-4.8637e-08
-9.86744e-08
-4.58751e-08
-8.07424e-08
-4.41457e-08
-4.62597e-08
-5.06292e-08
-5.52651e-08
1.0441e-08
-5.85596e-08
2.57154e-08
-2.88784e-08
2.15495e-08
-6.42715e-08
7.09127e-08
-7.86866e-08
3.50545e-08
-1.24733e-07
1.11056e-07
-1.67011e-07
2.20175e-08
-1.57537e-07
1.23585e-08
-1.93279e-07
2.50299e-08
-1.06615e-07
4.1433e-08
-2.0042e-07
-1.38881e-08
-1.56297e-07
-4.34804e-09
-1.48866e-07
-2.16035e-08
-1.48147e-07
-1.4973e-08
-1.39263e-07
2.21393e-09
-1.114e-07
9.6065e-09
-1.14039e-07
9.22236e-09
-1.40622e-07
-4.42507e-09
-1.5301e-07
-1.8984e-09
-1.37851e-07
-2.92976e-08
-1.88566e-07
3.58082e-08
-2.48868e-07
-9.17575e-09
-1.32534e-07
1.80145e-08
-9.82946e-08
-5.82041e-08
-1.95808e-07
-5.87496e-08
-3.55811e-08
-2.8208e-08
-1.21089e-07
-1.03186e-07
-1.29935e-07
-1.51363e-08
-1.24092e-07
-3.41964e-08
-1.35066e-07
-3.34314e-08
-1.42557e-07
-4.1365e-08
-1.28424e-07
-8.04333e-08
-1.61111e-07
-2.32747e-08
-1.73526e-07
-2.97436e-08
-1.91436e-07
-7.94609e-09
-1.90051e-07
4.45378e-08
-1.59832e-07
8.74597e-08
-1.63884e-07
7.37043e-08
-1.23204e-07
3.02284e-08
-1.36166e-07
5.6397e-08
-1.48859e-07
1.33141e-08
-1.91126e-07
-5.40553e-09
-1.55173e-07
-2.65528e-09
-1.45023e-07
-1.6009e-08
-1.21535e-07
-3.35292e-08
-1.94448e-07
2.90873e-08
-1.45208e-07
-4.23865e-09
-1.59442e-07
-9.11404e-09
-1.63793e-07
-5.35827e-09
-1.59555e-07
4.699e-09
-1.54979e-07
6.78735e-09
-1.3974e-07
-1.21927e-09
-1.8747e-07
4.54219e-08
-1.92872e-07
2.35746e-08
-1.79193e-07
1.70451e-08
-1.73285e-07
2.88185e-08
-1.43659e-07
3.15578e-08
-1.43589e-07
1.94238e-08
-1.66187e-07
-4.13852e-09
-1.67011e-07
-7.94642e-09
-1.8689e-07
-7.02801e-09
-1.80903e-07
-1.97121e-08
-1.68122e-07
-2.13362e-08
1.06229e-08
-1.87417e-07
6.94645e-09
-1.60917e-07
-8.79774e-08
-1.56609e-07
-8.42217e-08
-5.83516e-08
-3.76529e-08
-1.76132e-07
-1.12517e-07
-1.3645e-07
-3.9375e-08
-1.2584e-07
-4.92262e-08
-1.23735e-07
-4.89801e-08
-1.32701e-07
-3.6819e-08
-1.5683e-07
-2.29708e-08
-7.14205e-08
9.77621e-09
-1.73153e-07
-3.13204e-08
-1.58975e-07
1.0177e-08
-6.6163e-08
7.55536e-08
-1.77482e-07
3.60472e-08
-6.245e-08
6.77215e-08
-1.4954e-07
8.11425e-09
-1.3832e-07
1.10215e-08
-1.22488e-07
-3.50967e-09
-2.00943e-07
5.51192e-08
-1.10447e-07
-1.377e-09
-1.55808e-07
3.10139e-08
-1.61103e-07
9.01614e-10
-1.60581e-07
-2.23458e-08
-1.57011e-07
-1.85436e-08
-1.15205e-07
-3.95924e-08
-9.82968e-08
-7.3025e-09
-9.05591e-08
1.48429e-09
-9.72132e-08
2.22875e-09
-1.36201e-07
3.53391e-08
-5.04441e-08
3.07614e-08
-1.86331e-07
-1.83269e-08
-1.63576e-07
1.55353e-08
-1.39657e-07
-9.09071e-09
-2.73287e-08
-2.40826e-08
-1.01852e-07
-1.28115e-07
-1.07047e-07
-2.51438e-08
-4.30964e-08
-2.23845e-08
-1.97677e-07
-5.2554e-08
-1.7235e-07
-1.14135e-08
-1.84945e-07
-2.06254e-08
-2.0104e-07
-2.50145e-08
-1.24459e-07
-1.26858e-08
-2.1373e-07
-7.83321e-08
-2.07859e-07
-3.56139e-08
-2.08284e-07
-7.52095e-09
-2.00422e-07
3.66756e-08
-1.99281e-07
8.7212e-08
-1.99731e-07
7.21167e-08
-7.4275e-08
5.08002e-08
-2.11058e-07
4.96095e-08
-2.07756e-07
1.00122e-08
-2.11357e-07
-1.80431e-09
-2.05949e-07
-8.06286e-09
-1.93833e-07
-3.01032e-08
-1.3149e-07
4.77514e-08
-2.64274e-07
-3.11952e-08
-1.97636e-07
-2.01143e-08
-1.94179e-07
-1.25711e-08
-1.95769e-07
-1.77034e-09
-1.8668e-07
-4.38999e-09
-1.97561e-07
1.37476e-08
-1.08609e-07
5.56448e-08
-2.06258e-07
-6.0574e-10
-1.88699e-07
6.01542e-09
-1.80028e-07
8.4603e-09
-1.70269e-07
1.87661e-08
-1.59281e-07
2.05696e-08
-1.70866e-07
3.10092e-08
-1.74403e-07
-6.01513e-10
-1.81047e-07
-1.38307e-09
-2.44384e-07
8.20076e-09
-2.32787e-07
1.42799e-08
-1.52298e-07
4.39919e-08
1.32548e-08
-1.84542e-07
2.1034e-09
-1.76619e-07
-1.17498e-07
-1.36975e-07
-7.28972e-08
-1.46381e-07
-2.93559e-08
-8.07833e-08
-3.22996e-08
-1.76556e-07
-8.71074e-08
-2.10929e-07
-6.08109e-08
-1.69533e-07
-4.40208e-08
-1.85622e-07
-2.28581e-08
-1.84262e-07
-2.26682e-08
-1.60374e-07
-1.42132e-08
-1.61288e-07
-3.00995e-08
-1.6284e-07
1.01702e-08
-1.60283e-07
2.17356e-08
-1.32619e-07
5.86401e-08
-1.12573e-07
4.76465e-08
-1.36668e-07
3.22081e-08
-1.70402e-07
4.3016e-08
-8.73464e-08
5.92501e-08
-2.24342e-07
5.61754e-10
-5.66028e-08
2.38981e-08
-1.48054e-07
-2.02026e-08
-1.39978e-07
-8.6853e-09
-1.50588e-07
-1.17359e-08
-1.72108e-07
2.97574e-09
-8.41879e-08
1.69884e-08
-9.36053e-08
2.11455e-09
-8.84335e-08
-3.68784e-09
-7.40189e-08
-1.1431e-08
-1.45877e-07
-3.56744e-08
-8.80677e-08
-2.91469e-08
-1.05542e-07
2.24112e-10
-8.15698e-08
-9.10375e-09
-6.00756e-08
-3.17179e-08
-1.10027e-07
-2.27681e-08
5.92546e-08
4.26543e-08
-1.36414e-07
-2.25168e-08
-1.00719e-07
-9.74148e-09
-1.47372e-07
-5.90113e-09
-1.47627e-07
-9.55467e-09
-1.50387e-07
-1.63468e-08
-1.52155e-07
-2.47644e-08
-1.33177e-07
-3.32158e-08
-1.593e-07
-5.22089e-08
-1.70371e-07
-2.45428e-08
-1.69713e-07
-8.17847e-09
-1.70631e-07
3.75933e-08
-1.62821e-07
7.94028e-08
-1.77944e-07
8.45617e-08
-6.85439e-08
8.66923e-08
-2.03881e-07
-6.79214e-09
-1.97826e-07
3.95764e-09
-1.95357e-07
-4.27273e-09
-2.02955e-07
-4.65058e-10
-8.43581e-08
4.45981e-08
-1.5534e-07
-2.46194e-08
-1.74621e-07
-1.31807e-08
-1.78451e-07
-1.62842e-08
-1.71663e-07
-1.93596e-08
-2.03046e-07
-1.84961e-08
-1.71768e-07
1.23964e-08
-1.58992e-07
9.82073e-10
-1.66422e-07
6.42049e-08
-1.76103e-07
9.16779e-09
-1.50917e-07
-2.25064e-08
-2.09931e-07
1.88694e-08
-1.43164e-07
2.2498e-09
-1.66985e-07
4.4391e-08
-1.76071e-07
-8.01403e-09
-1.59077e-07
3.05139e-08
-1.69791e-07
9.33153e-09
-2.14626e-07
7.11665e-09
-1.69743e-07
1.68509e-08
-1.4571e-07
1.77793e-08
1.01937e-08
-1.13453e-07
-5.20491e-08
-1.357e-07
-7.35257e-08
-1.77559e-07
-2.96399e-08
-1.8091e-07
-2.41945e-08
-1.90347e-07
-2.25336e-08
-2.40034e-07
-8.55298e-08
-2.74382e-07
-2.36652e-08
-2.68429e-07
-2.79535e-09
-2.73643e-07
-2.29413e-08
-2.7553e-07
-2.07819e-08
-2.51483e-07
-8.18289e-08
-2.26877e-07
-9.37373e-09
-2.30798e-07
-3.41223e-08
-1.74758e-07
1.54297e-08
-1.5152e-07
3.30203e-08
-1.48225e-07
4.43501e-08
-1.46995e-07
3.12967e-08
-1.43594e-07
3.96143e-08
-1.33027e-07
4.94348e-08
-1.42116e-07
9.65031e-09
-1.25494e-07
7.10537e-09
-1.43853e-07
-2.04747e-09
-1.55916e-07
1.90939e-09
-1.74836e-07
7.11044e-09
-1.6721e-07
-6.2924e-09
-1.49661e-07
-5.54974e-10
-1.25779e-07
-2.0241e-08
-1.227e-07
-6.69926e-09
-1.25587e-07
-8.45766e-09
-1.55027e-07
-8.09751e-09
-4.86197e-08
1.01569e-08
-1.34576e-07
-5.82461e-08
-8.92265e-08
-5.3636e-08
-6.95042e-08
-5.0418e-08
-2.83436e-08
-6.50576e-08
-9.82794e-08
-3.24623e-08
-1.70915e-07
5.01194e-08
-1.64662e-07
-1.59946e-08
-1.59722e-07
-9.21192e-09
-1.53869e-07
-1.54074e-08
-1.52823e-07
-1.91292e-08
-1.57239e-07
-2.06e-08
-1.64365e-07
-2.60901e-08
-1.75939e-07
-4.0634e-08
-1.80707e-07
-1.97751e-08
-1.75637e-07
-1.33849e-08
-1.43869e-07
5.82528e-09
-1.52708e-07
8.88938e-08
-1.53285e-07
8.51386e-08
-1.36727e-07
6.76864e-08
-1.68812e-07
2.50375e-08
-1.73701e-07
8.84694e-09
-1.80738e-07
2.7642e-09
-1.89023e-07
7.81998e-09
-1.3213e-07
-1.2295e-08
-1.40976e-07
-1.60239e-08
-1.48404e-07
-5.75301e-09
-1.62082e-07
-2.60629e-09
-1.7678e-07
-4.66145e-09
-1.93669e-07
-1.60735e-09
-1.80738e-07
-2.40282e-09
-1.09626e-07
7.56866e-08
-2.32607e-07
-6.50716e-09
-2.02625e-07
2.78862e-08
-9.22093e-08
1.34735e-08
-2.2053e-07
-4.54405e-08
-8.37598e-08
5.73331e-08
-2.01406e-07
-3.0714e-08
-1.85746e-07
2.4436e-08
-1.74463e-07
1.92306e-08
-1.78949e-07
1.38181e-08
-1.89108e-07
1.92057e-08
-1.67463e-07
-4.62255e-09
-1.64009e-07
1.26173e-08
1.08223e-08
-1.01439e-07
6.31961e-08
-1.2126e-07
-3.71992e-08
-2.33117e-07
-5.93352e-08
-2.3289e-07
-7.25313e-08
-2.13736e-07
-4.12678e-08
-2.49016e-07
-2.14055e-09
-2.59027e-07
-1.36551e-08
-2.54002e-07
-7.84967e-09
-2.47028e-07
-3.02237e-08
-3.03318e-07
3.26249e-08
-2.27765e-07
-1.15671e-08
-3.14756e-07
-6.12725e-08
-2.91212e-07
-5.73224e-08
-2.50479e-07
-2.81171e-08
-2.24112e-07
6.58548e-09
-2.03653e-07
2.18123e-08
-1.97304e-07
2.49465e-08
-1.71905e-07
1.60638e-08
-1.81009e-07
1.04286e-08
-1.60516e-07
3.69873e-08
-1.69244e-07
1.58324e-08
-1.66905e-07
-4.40742e-09
-1.54001e-07
-9.42409e-09
-1.25255e-07
-2.03716e-08
-1.02749e-07
-2.90266e-08
-7.92204e-08
-2.51156e-08
-6.36194e-08
-3.60016e-08
-4.59989e-08
-2.40988e-08
-3.84305e-08
-1.59418e-08
-3.90205e-08
-7.50184e-09
-3.40721e-08
4.36761e-09
-9.06922e-08
-1.97723e-09
-1.21691e-07
-2.17117e-08
-1.60767e-07
-1.3497e-08
-7.34011e-08
-7.35348e-09
-1.24947e-07
1.98325e-08
-2.20253e-07
-4.70123e-08
-1.86102e-07
-2.01511e-09
-1.77598e-07
-1.75365e-08
-1.72436e-07
-2.07264e-08
-1.7113e-07
-2.0435e-08
-1.74381e-07
-1.7349e-08
-1.78868e-07
-2.18251e-08
-2.01893e-07
-1.7791e-08
-2.19722e-07
-4.23021e-09
-2.49474e-07
1.63675e-08
-1.33993e-07
3.89822e-08
-2.24709e-07
3.63716e-08
-2.06592e-07
6.62743e-08
-1.78404e-07
4.13184e-08
-1.69888e-07
1.63564e-08
-1.68891e-07
6.1172e-09
-1.63006e-07
-3.12038e-09
-1.8281e-07
-2.04862e-08
-1.52354e-07
5.35908e-09
-1.581e-07
-1.02776e-08
-1.57705e-07
-6.14866e-09
-1.5553e-07
-4.78128e-09
-1.60402e-07
2.08603e-10
-1.79136e-07
1.52997e-08
-8.90598e-08
5.33367e-08
-1.69826e-07
1.22604e-08
-1.86326e-07
9.99366e-09
-1.71402e-07
1.26774e-08
-1.4135e-07
-1.67495e-08
-6.41073e-08
2.22997e-08
-1.48991e-07
-2.13663e-09
-1.91156e-07
9.91523e-09
-1.67124e-07
2.35477e-09
-1.59279e-07
1.13851e-08
-1.70664e-07
2.54637e-08
-1.52003e-07
5.45241e-10
-1.53754e-07
-2.91712e-09
-1.45443e-07
4.30603e-09
2.37709e-08
-1.32861e-07
1.03182e-08
-1.26873e-07
-6.8303e-08
-1.47102e-07
-3.52239e-08
-2.00672e-07
-1.69142e-08
-1.86002e-07
-8.31453e-09
-1.98024e-07
7.9833e-09
-1.97433e-07
-1.41033e-08
-2.12727e-07
5.27389e-09
-1.28028e-07
3.08922e-08
-2.47223e-07
-3.93119e-08
-1.94401e-07
-1.59991e-08
-2.07155e-07
-4.85199e-08
-2.23112e-07
-4.23829e-08
-2.17263e-07
-3.17506e-08
-2.02679e-07
-7.9994e-09
-1.92834e-07
9.89879e-09
-1.80482e-07
1.41811e-08
-1.6556e-07
1.14128e-09
-1.46171e-07
-9.15897e-09
-1.46608e-07
3.70495e-08
-1.45445e-07
1.30392e-08
-1.47252e-07
-2.57394e-09
-1.45027e-07
-1.165e-08
-1.42012e-07
-2.38379e-08
-1.43374e-07
-2.79616e-08
-1.4943e-07
-1.95154e-08
-1.54598e-07
-3.24105e-08
-1.56238e-07
-2.10976e-08
-1.57458e-07
-1.33051e-08
-1.59412e-07
-7.23118e-09
-1.56697e-07
1.69687e-09
-1.57717e-07
-9.36866e-10
-1.78008e-07
-1.4205e-09
-1.90363e-07
-3.08395e-09
-6.70621e-08
1.52372e-08
-2.0608e-07
-3.32426e-08
-1.72289e-07
-3.06234e-08
-1.42013e-07
-3.08563e-08
-1.39207e-07
-2.17768e-08
-1.37532e-07
-2.38219e-08
-1.4294e-07
-1.50263e-08
-1.54196e-07
-7.66559e-09
-1.80871e-07
2.98549e-09
-2.08181e-07
9.23818e-09
-2.28328e-07
1.80628e-08
-2.65079e-07
5.25761e-08
-1.24511e-07
4.50493e-08
-2.195e-07
-1.21011e-08
-2.01589e-07
-2.50453e-09
-1.72479e-07
1.60241e-08
-1.57551e-07
4.92182e-08
-1.55355e-07
2.3136e-09
-1.38156e-07
-2.03196e-08
-1.41753e-07
-1.6889e-08
-1.35531e-07
-8.62414e-10
-1.34987e-07
-1.08213e-08
-1.27683e-07
-1.3453e-08
-1.22565e-07
-8.649e-09
-1.20854e-07
-1.51743e-09
-1.24333e-07
1.75456e-08
-1.04925e-07
3.33853e-08
-1.34602e-07
4.19366e-08
-1.1914e-07
-5.4681e-09
-1.5873e-07
5.01373e-08
-8.1116e-08
5.14523e-08
-6.06878e-08
3.31839e-09
-1.48599e-07
-5.76999e-08
-1.68525e-07
2.82239e-08
-1.55972e-07
-1.01985e-08
-1.47877e-07
1.78203e-09
-1.73476e-07
2.4577e-09
-1.36451e-07
1.34006e-08
-1.35759e-07
-3.60837e-09
-1.41355e-07
9.90267e-09
-5.06406e-09
-1.92128e-07
9.96683e-09
-1.61311e-07
-6.02236e-08
-1.30286e-07
-6.36078e-08
-1.95613e-07
3.00228e-10
-1.46581e-07
-9.32257e-09
-1.72404e-07
-1.25444e-08
-1.41917e-07
3.03181e-09
-1.33475e-07
-4.61653e-09
-1.11569e-07
8.67051e-09
-1.32814e-07
-1.67124e-08
-1.35602e-07
-1.33471e-08
-1.43882e-07
-4.30916e-08
-1.53472e-07
-3.27937e-08
-1.78572e-07
-5.08562e-09
-1.81402e-07
-5.25162e-09
-1.75949e-07
4.44492e-09
-1.70848e-07
9.07953e-09
-1.73172e-07
3.47631e-09
-6.63521e-08
2.90257e-08
-1.37555e-07
-3.28556e-08
-8.34499e-08
-4.20376e-08
-9.66509e-08
9.78362e-09
-1.11126e-07
7.04551e-10
-1.40306e-07
-4.37135e-08
-1.46938e-07
2.67108e-08
-1.9096e-07
-2.40987e-08
-1.7328e-07
-3.31785e-11
-1.82119e-07
-1.20439e-08
-1.92578e-07
-2.982e-09
-1.95241e-07
-4.56863e-09
-1.85973e-07
-7.57052e-09
-1.57506e-07
-2.97079e-08
-1.88602e-07
2.96759e-08
-1.72369e-07
-1.9317e-08
-1.55452e-07
-3.42142e-09
-2.18124e-07
-1.69274e-08
-1.76944e-07
-2.19766e-08
-1.80979e-07
-2.89411e-08
-1.74168e-07
-2.88096e-08
-1.73606e-07
-2.43843e-08
-1.83958e-07
-4.7223e-09
-1.92098e-07
4.79917e-10
-2.04735e-07
1.55924e-08
-2.0079e-07
5.14683e-09
-2.03111e-07
2.01998e-08
-2.14891e-07
1.8439e-08
-1.77461e-07
5.47883e-08
-1.78769e-07
-1.27271e-08
-1.86145e-07
4.89749e-09
-1.749e-07
4.77871e-09
-1.39786e-07
-3.38483e-08
-1.68638e-07
3.11657e-08
-1.52642e-07
1.17942e-08
-1.59855e-07
-9.67553e-09
-1.55414e-07
-5.30357e-09
-1.54299e-07
-1.19366e-08
-1.5802e-07
-9.73151e-09
-1.63534e-07
-4.80353e-09
-1.65449e-07
3.82167e-10
-1.67664e-07
2.14484e-08
-1.63336e-07
2.90577e-08
-1.88707e-07
1.91985e-08
-6.75905e-08
6.65427e-08
-1.58599e-07
-1.72505e-09
-1.30239e-07
2.09499e-08
-1.39917e-07
1.15687e-08
-7.29472e-08
2.0552e-08
-1.86402e-07
-5.00146e-08
-1.28826e-07
-1.98673e-08
-1.58902e-07
3.18577e-08
-1.51897e-07
-4.5713e-09
-1.36512e-07
-1.9837e-09
-1.1752e-07
-2.25998e-08
-1.37984e-07
3.00609e-08
1.19038e-08
-1.66717e-07
-8.0267e-09
-1.54996e-07
-4.36989e-08
-6.05287e-08
-8.44108e-09
-1.54482e-07
-4.80071e-08
-1.44354e-07
-2.10268e-08
-1.38936e-07
-1.79628e-08
-1.27357e-07
-8.51658e-09
-9.25576e-08
-3.98231e-08
-1.23204e-07
3.93161e-08
-1.38158e-07
-3.16837e-09
-1.51988e-07
-4.77684e-08
-1.42571e-07
-2.84905e-09
-1.64948e-07
-1.00825e-08
-1.58675e-07
-1.12445e-08
-1.54249e-07
-9.67884e-09
-1.48271e-07
-1.53359e-09
-1.37732e-07
-1.46044e-09
-1.18956e-07
-1.54581e-08
-1.21216e-07
3.12855e-08
-1.62528e-07
6.462e-09
-5.5829e-08
-3.38951e-09
-1.95454e-07
5.74881e-09
-1.98776e-07
1.99879e-09
-1.1295e-07
1.67264e-08
-1.85864e-07
-4.35517e-08
-1.88628e-07
-2.10899e-08
-1.704e-07
-1.82613e-08
-1.51567e-07
-3.11952e-08
-1.87707e-07
3.31578e-08
-1.82035e-07
-1.02415e-08
-1.96996e-07
5.38141e-09
-1.08148e-07
2.72594e-08
-2.28558e-07
-4.1249e-08
-1.78324e-07
-2.16619e-08
-2.06573e-07
2.48271e-08
-2.03627e-07
-1.97007e-08
-2.0749e-07
-1.83372e-08
-2.17869e-07
-1.87533e-08
-2.32159e-07
-1.45193e-08
-2.41202e-07
-1.78019e-08
-2.60348e-07
1.174e-08
-2.44491e-07
-1.25638e-08
-2.30801e-07
-4.13582e-08
-1.96031e-07
1.81847e-08
-2.12339e-07
3.41597e-08
-2.12881e-07
1.89808e-08
-2.02791e-07
-2.85156e-09
-1.75888e-07
8.47946e-09
-1.84735e-07
1.37448e-08
-1.85174e-07
3.32852e-09
-8.97598e-08
1.65535e-08
-2.12051e-07
-3.80645e-08
-1.37944e-07
-1.4204e-08
-1.47522e-07
-9.68158e-11
-1.38917e-07
-1.39088e-08
-1.39474e-07
-1.14968e-08
-1.41552e-07
-7.57546e-09
-1.58971e-07
1.26154e-08
-1.71522e-07
1.30627e-08
-1.68241e-07
1.81672e-08
-1.61822e-07
2.2639e-08
-1.60867e-07
1.82436e-08
-1.29244e-07
3.49198e-08
-1.50309e-07
1.93225e-08
-1.53637e-07
2.42781e-08
-1.48696e-07
6.62769e-09
-1.37766e-07
9.41286e-09
-1.85916e-07
-3.76116e-09
-7.91267e-08
1.91594e-08
-2.04196e-07
-3.47034e-08
-1.80713e-07
2.02619e-08
-1.7262e-07
-1.00755e-08
-7.89056e-08
2.88202e-08
-1.7663e-07
-1.5085e-08
1.20006e-08
-1.42614e-07
-3.10714e-08
-1.32597e-07
-2.66264e-08
-1.06765e-07
-3.14826e-08
-1.32664e-07
-2.25979e-08
-1.33419e-07
-2.02727e-08
-1.36615e-07
-1.47672e-08
-1.39971e-07
-6.58915e-09
-3.22563e-08
-1.74064e-09
-1.55979e-07
-2.8777e-08
-1.3858e-07
-1.91537e-08
-1.36836e-07
-1.40756e-09
-1.42613e-07
1.53097e-09
-1.34877e-07
-1.62767e-08
-1.31901e-07
-1.43667e-08
-1.18573e-07
-2.41074e-08
-1.28203e-07
8.17913e-09
-1.35973e-07
4.9217e-09
-5.51945e-08
4.95791e-08
-1.68715e-07
1.04018e-09
-1.75185e-07
1.11444e-08
-6.64911e-08
3.37664e-08
-1.81136e-07
-2.32566e-08
-1.67095e-07
-1.20428e-08
-1.40827e-07
-9.71274e-09
-1.63286e-07
-2.10934e-08
-1.70781e-07
-1.3595e-08
-1.76607e-07
-1.42382e-08
-9.22866e-08
3.03005e-08
-2.14943e-07
-3.56821e-08
-1.98776e-07
2.19246e-08
-1.8864e-07
-4.755e-09
-1.64973e-07
3.31412e-09
-2.03326e-07
-4.97018e-09
-1.01464e-07
2.22916e-08
-2.27336e-07
-4.07029e-08
-2.0388e-07
4.95212e-09
-2.17491e-07
-6.94485e-09
-2.36935e-07
6.91171e-10
-2.36004e-07
-1.30335e-08
-1.99665e-07
-5.41405e-08
-2.44209e-07
1.04398e-08
-2.3929e-07
3.02685e-08
-1.73859e-07
3.29872e-08
-1.52559e-07
-1.34158e-09
-2.21445e-07
-3.82842e-08
-1.94963e-07
-9.76011e-09
-1.95665e-07
-2.12675e-09
-1.80149e-07
-7.03649e-09
-1.56176e-07
-1.02288e-08
-1.45556e-07
-7.29097e-09
-1.11979e-07
-1.7192e-08
-1.2924e-07
-2.08035e-08
-1.32462e-07
-1.09814e-08
-1.28717e-07
-3.84199e-09
-1.39502e-07
-4.54665e-09
-1.91685e-07
-5.94337e-09
-1.29903e-07
-1.9798e-08
-1.54719e-07
3.41789e-08
-1.70385e-07
2.87286e-08
-1.7001e-07
1.95306e-08
-1.66775e-07
1.94042e-08
-1.67824e-07
1.94918e-08
-1.58091e-07
2.54468e-08
-1.61142e-07
2.23729e-08
-1.50724e-07
1.38603e-08
-1.49406e-07
5.31025e-09
-1.53799e-07
1.38063e-08
-1.62917e-07
5.35726e-09
-1.39817e-07
-4.13652e-09
-1.66693e-07
-9.52764e-09
-1.80103e-07
-1.49327e-08
-1.39002e-07
-1.24153e-09
-1.5522e-07
4.50391e-08
-1.71679e-07
1.22046e-09
1.25205e-08
-2.08442e-07
-3.12463e-09
-1.5658e-07
-4.85549e-08
-1.47132e-07
-3.7737e-08
-1.52473e-07
-1.72574e-08
-1.60197e-07
-1.25485e-08
-1.57291e-07
-1.76746e-08
-1.46404e-07
-1.89698e-08
-6.73898e-08
6.57729e-08
-1.98429e-07
-3.99291e-08
-1.64753e-07
-5.48545e-08
-1.49299e-07
-1.68759e-08
-1.67508e-07
-2.66621e-08
-1.36347e-07
-1.19169e-09
-1.82041e-07
-1.6955e-08
-1.57323e-07
-9.52966e-10
-1.927e-07
-6.67131e-09
-1.64084e-07
2.63801e-08
-1.40865e-07
2.58534e-08
-1.56955e-07
1.71298e-08
-1.61335e-07
1.55233e-08
-1.50049e-07
2.21358e-08
-1.31967e-07
-4.13394e-08
-1.55345e-07
1.12196e-08
-1.61539e-07
-3.51911e-09
-1.65133e-07
-1.74999e-08
-1.70123e-07
-8.60501e-09
-1.76849e-07
-7.51261e-09
-1.4584e-07
-1.01783e-09
-1.71047e-07
-1.22207e-08
-1.8519e-07
-1.25377e-08
-1.68043e-07
2.80967e-08
-1.7404e-07
9.31119e-09
-1.71202e-07
-7.80818e-09
-1.48001e-07
-1.13731e-09
-1.79739e-07
-8.96494e-09
-1.70743e-07
-4.04386e-09
-1.76125e-07
-1.56236e-09
-2.02373e-07
-2.11768e-08
-2.17689e-07
2.28264e-09
-8.79243e-08
9.42927e-09
-2.06517e-07
-1.37001e-08
-1.66962e-07
-9.38075e-09
-1.28878e-07
-3.7956e-09
-1.15012e-07
-1.64954e-08
-1.28558e-07
-2.63016e-08
-1.25814e-07
-1.12202e-08
-1.17997e-07
-9.94321e-09
-1.33015e-07
6.77749e-09
-1.20724e-07
-2.27515e-08
-1.19395e-07
-8.61964e-09
-1.16993e-07
-1.95938e-08
-1.05569e-07
-3.22279e-08
-1.29634e-07
1.29522e-08
-1.24833e-07
-8.64326e-09
-1.29288e-07
-9.17517e-11
-1.92674e-07
9.39407e-09
-5.89675e-08
3.93333e-08
-1.56941e-07
-1.07178e-08
-1.43708e-07
1.36014e-08
-1.45374e-07
2.11964e-08
-1.54805e-07
2.72559e-08
-1.74907e-07
3.77912e-08
-1.41934e-07
-5.72336e-09
-1.49819e-07
3.13862e-08
-1.51274e-07
1.51612e-08
-1.53654e-07
7.76938e-09
-1.57565e-07
1.77177e-08
-1.62727e-07
1.04135e-08
-1.46366e-07
-2.07088e-08
-1.56922e-07
1.02818e-09
-1.75613e-07
2.12029e-09
-7.0556e-08
3.95177e-08
-2.3061e-07
1.33763e-08
-1.71442e-07
-9.83785e-09
4.19263e-08
-1.74982e-07
-3.93446e-08
-1.45663e-07
8.97486e-09
-1.41513e-07
-3.89153e-08
-1.56579e-07
-2.19226e-09
-1.67657e-07
-1.47054e-09
-1.60055e-07
-2.52772e-08
-7.34759e-08
3.83868e-08
-1.65914e-07
-3.48979e-08
-1.81697e-07
-2.45547e-08
-1.53774e-07
-3.50263e-08
-1.87577e-07
1.69265e-08
-1.90338e-07
-2.39013e-08
-1.74768e-07
-1.67741e-08
-1.90525e-07
-1.02621e-09
-1.91664e-07
1.75986e-10
-1.99679e-07
1.41086e-09
-1.72676e-07
-6.23769e-10
-1.67323e-07
2.04996e-08
-1.67933e-07
1.7739e-08
-1.76333e-07
2.36818e-08
-2.09571e-07
7.26314e-09
-9.24191e-08
3.48892e-08
-1.85733e-07
-3.83374e-08
-1.70087e-07
-2.10607e-08
-1.64176e-07
-2.34119e-08
-1.53582e-07
-1.91991e-08
-1.50574e-07
-1.05215e-08
-1.39286e-07
-1.23058e-08
-1.38155e-07
-1.33522e-08
-1.4747e-07
-3.09468e-09
-1.45417e-07
2.60434e-08
-1.49994e-07
1.38887e-08
-1.55943e-07
-1.85921e-09
-1.5435e-07
-2.73099e-09
-1.53172e-07
-1.01429e-08
-1.54307e-07
-2.90843e-09
-1.54231e-07
-1.63829e-09
-1.85012e-07
9.60447e-09
-1.91234e-07
8.41894e-09
-5.72189e-08
2.03259e-08
-1.70477e-07
-4.34508e-08
-1.59642e-07
-2.19552e-08
-1.43124e-07
-2.03516e-08
-1.33283e-07
-2.65045e-08
-1.22578e-07
-3.73881e-08
-1.43299e-07
9.50123e-09
-1.50394e-07
-2.94942e-09
-1.45305e-07
2.05589e-10
-1.55433e-07
-1.26231e-08
-1.47976e-07
-1.44905e-08
-1.75229e-07
7.65914e-09
-7.51328e-08
1.27709e-08
-1.71197e-07
-3.38545e-08
-1.38262e-07
-4.3324e-08
-1.4946e-07
1.11064e-08
-1.4835e-07
8.28411e-09
-1.13853e-07
4.83659e-09
-1.2478e-07
9.97476e-11
-1.20076e-07
8.89746e-09
-1.28769e-07
2.98894e-08
-1.42953e-07
4.14406e-08
-1.86677e-07
3.2687e-08
-3.74899e-08
3.75845e-08
-9.96791e-08
-4.82885e-08
-9.58536e-08
9.36134e-09
-1.44245e-07
5.46103e-08
-1.63578e-07
4.0191e-08
-1.90215e-07
3.51296e-08
-1.2596e-07
5.82917e-08
-1.53756e-07
2.98047e-08
-1.34393e-07
-1.7242e-08
-1.01337e-07
6.05999e-09
-2.55654e-07
-2.47433e-08
-1.08205e-07
3.62548e-08
5.91537e-09
-1.85038e-07
-4.74198e-08
-1.70274e-07
2.57198e-08
-1.71746e-07
-8.03421e-08
-1.63391e-07
-1.05481e-08
-1.97098e-07
3.19103e-08
-8.37962e-08
5.47135e-08
-1.44e-07
-4.4733e-08
-1.96051e-07
1.56834e-08
-2.00738e-07
-2.1916e-08
-9.5547e-08
5.5982e-09
-2.13041e-07
-5.70431e-08
-1.83713e-07
-5.12109e-09
-1.82844e-07
-1.76438e-08
-1.75366e-07
-8.50448e-09
-1.80776e-07
5.58562e-09
-1.7643e-07
-2.93587e-09
-1.76622e-07
-4.3231e-10
-1.66701e-07
1.05775e-08
-1.76255e-07
2.90908e-08
-1.60887e-07
8.2298e-09
-1.6849e-07
1.3224e-08
-1.40011e-07
6.40983e-09
-1.578e-07
-2.09402e-08
-1.58215e-07
-2.06457e-08
-1.64107e-07
-1.75202e-08
-1.58909e-07
-2.4398e-08
-1.41307e-07
-2.81237e-08
-1.37636e-07
-1.59771e-08
-1.33839e-07
-1.71496e-08
-1.08914e-07
-2.83085e-08
-1.27679e-07
4.43559e-08
-1.34113e-07
2.03224e-08
-1.46528e-07
1.05552e-08
-1.49514e-07
2.5498e-10
-1.56032e-07
-3.62522e-09
-1.52033e-07
-6.83722e-09
-1.45527e-07
-8.14394e-09
-1.84238e-07
2.08516e-09
-1.38162e-07
9.96644e-09
-1.21495e-07
2.2501e-09
-1.59467e-07
-5.9224e-09
-1.67268e-07
-1.41533e-08
-1.63116e-07
-2.45034e-08
-1.55324e-07