/*--------------------------------*- C++ -*----------------------------------*\
  =========                 |
  \\      /  F ield         | OpenFOAM: The Open Source CFD Toolbox
   \\    /   O peration     | Website:  https://openfoam.org
    \\  /    A nd           | Version:  12
     \\/     M anipulation  |
\*---------------------------------------------------------------------------*/
FoamFile
{
    format      ascii;
    class       volVectorField;
    location    "0.4";
    object      U.water;
}
// * * * * * * * * * * * * * * * * * * * * * * * * * * * * * * * * * * * * * //

dimensions      [0 1 -1 0 0 0 0];

internalField   nonuniform List<vector> 
3750
(
(0.00215649 -0.0412083 0)
(-0.00675812 -0.0116168 0)
(-0.00793581 -0.0131636 0)
(-0.00569796 0.00400291 0)
(-0.00101343 0.000471722 0)
(0.000830557 0.00687666 0)
(-0.000153407 0.00397141 0)
(-9.78396e-05 0.00533073 0)
(-3.00026e-05 0.00578755 0)
(-8.07361e-06 0.00709114 0)
(-9.22986e-05 0.00753949 0)
(0.000914387 0.00991812 0)
(-9.52582e-05 0.0113752 0)
(-0.000716225 0.00991123 0)
(-0.000384469 0.00831092 0)
(0.000177942 0.00781802 0)
(-0.00195385 0.0102649 0)
(-0.000742369 0.013856 0)
(-0.00195677 0.015622 0)
(0.000766563 0.0143673 0)
(5.57262e-05 0.0123577 0)
(-0.000348852 0.0108563 0)
(0.000863726 0.0108742 0)
(0.000507242 0.0110676 0)
(0.000431676 0.00998651 0)
(0.000158982 0.00979383 0)
(-0.00144282 0.0105315 0)
(-0.000727756 0.0114681 0)
(-0.000347938 0.0119338 0)
(0.000461319 0.0114837 0)
(0.000262574 0.0112192 0)
(0.00196579 0.0154131 0)
(-0.00240658 0.0139391 0)
(-0.000904923 0.00972942 0)
(-0.000426363 0.0131217 0)
(-0.000103876 0.0158777 0)
(-0.000315163 0.0173582 0)
(0.000381432 0.0163037 0)
(0.000400072 0.0150213 0)
(-0.000279899 0.0151837 0)
(-0.00168084 0.0136383 0)
(-0.000217143 0.0135121 0)
(-0.000181302 0.0164123 0)
(0.000832278 0.0196952 0)
(-0.000315334 0.0220893 0)
(0.00138667 0.0234001 0)
(0.000772266 0.0197566 0)
(0.00195544 0.0155472 0)
(-0.000735632 0.0141794 0)
(0.000422943 0.0112682 0)
(-0.000206194 0.01091 0)
(-0.000569135 0.0109083 0)
(-0.000684192 0.0108995 0)
(0.000185149 0.0106377 0)
(0.000460376 0.0115362 0)
(-9.41081e-05 0.0107178 0)
(0.000884803 0.0103602 0)
(0.000761829 0.0116372 0)
(0.00109247 0.0115663 0)
(0.000892215 0.01133 0)
(0.000996031 0.0121374 0)
(0.000181045 0.0110409 0)
(-0.000314527 0.0107233 0)
(-0.00125218 0.0116345 0)
(0.00158171 0.0103646 0)
(0.00106297 0.00782927 0)
(-0.000784448 0.00644624 0)
(0.000174038 0.0062009 0)
(-0.000204872 0.00648402 0)
(0.000225098 0.0115683 0)
(-0.00256107 0.013141 0)
(-0.00154973 0.0084857 0)
(2.50665e-05 0.0103726 0)
(2.80854e-05 0.0107607 0)
(0.000312675 0.00966999 0)
(0.0027932 -0.03837 0)
(-0.00845416 -0.00330742 0)
(-0.00983438 -0.0175803 0)
(-0.00646006 -0.00797567 0)
(-0.0015175 -0.0083079 0)
(-0.00217895 -0.00327987 0)
(-0.000998144 -0.00652439 0)
(-0.00161384 -0.00351703 0)
(0.000101626 -0.00471528 0)
(-0.00247792 -0.0033828 0)
(-0.00508101 -0.00172416 0)
(-0.00109468 0.00164018 0)
(-0.00117597 0.000992813 0)
(-0.00186937 0.00237945 0)
(0.00210214 0.00228951 0)
(0.00171033 0.000276184 0)
(6.43436e-05 0.00152983 0)
(0.000972441 0.00381439 0)
(-0.00215082 0.00408145 0)
(-0.00037919 0.0002371 0)
(0.000270643 -0.00412384 0)
(0.000908602 -0.00176729 0)
(0.000266888 -0.000552341 0)
(0.000227216 0.000311333 0)
(-2.56774e-05 0.00191812 0)
(-0.000687767 0.00093881 0)
(-0.00148138 0.000670393 0)
(-0.001289 -0.001141 0)
(0.00063704 -0.00358464 0)
(0.00146122 -0.00506745 0)
(0.00218781 -0.00248704 0)
(0.00290972 -0.00144308 0)
(-0.00252788 -0.00176023 0)
(-0.00320807 -0.00129746 0)
(-0.00331428 0.000157962 0)
(-0.00116115 0.00120091 0)
(-0.00237647 0.00223638 0)
(0.00152731 0.00191537 0)
(0.0016404 0.000249341 0)
(0.00121379 -0.00113422 0)
(0.000981545 -0.000488808 0)
(-0.00103745 0.000135021 0)
(-0.0048173 0.00299524 0)
(-0.00457494 0.00753251 0)
(-0.00522589 0.0127977 0)
(0.00209133 0.0160446 0)
(0.00499716 0.0139539 0)
(0.00646942 0.0094643 0)
(0.00478978 0.00972819 0)
(7.56853e-05 0.00903299 0)
(-0.00068005 0.00335337 0)
(0.0016381 -0.000768513 0)
(-0.000132456 -0.00146117 0)
(0.00016669 -0.00104671 0)
(-0.000598754 0.000716865 0)
(-0.00108726 0.00167675 0)
(-0.000749973 0.00207166 0)
(-0.00109799 0.00525652 0)
(-0.00222912 0.00679297 0)
(-0.00124527 0.00744358 0)
(-0.00185624 0.00718721 0)
(-0.000753262 0.00442564 0)
(0.00136314 0.00193996 0)
(0.00115693 0.00462971 0)
(0.00225409 0.00368171 0)
(0.0016137 -0.00199529 0)
(-0.000697025 -0.00117339 0)
(0.000394422 0.000491375 0)
(0.00148271 -0.00199873 0)
(0.00278477 -0.00148938 0)
(-0.00212892 -0.00200607 0)
(-0.00237456 -0.00392737 0)
(-0.00058875 -0.00194573 0)
(-0.000318017 -0.000870311 0)
(-0.000589627 1.92799e-05 0)
(-0.00154137 -0.0289789 0)
(-0.00678941 -0.00559632 0)
(-0.0079335 -0.0183317 0)
(-0.00864059 -0.00976642 0)
(-0.00457516 -0.0131232 0)
(-0.00376431 -0.00881288 0)
(-0.00119437 -0.00886522 0)
(0.00099012 -0.00686472 0)
(-0.000767426 -0.00838665 0)
(-0.00269333 -0.0106385 0)
(-0.0047243 -0.00667721 0)
(-0.00254308 -0.00467393 0)
(-0.0019773 -0.0130135 0)
(-0.000342223 -0.0124561 0)
(0.00101688 -0.01219 0)
(0.00200248 -0.0165001 0)
(0.00168335 -0.0134825 0)
(0.00311097 -0.0110332 0)
(-0.000380538 -0.0104569 0)
(-0.00290788 -0.0116277 0)
(-0.00179697 -0.0154676 0)
(-0.000853562 -0.0161518 0)
(-0.00356114 -0.0175047 0)
(0.000261278 -0.0166284 0)
(0.000303055 -0.0170126 0)
(0.000275321 -0.0178283 0)
(0.000624688 -0.016855 0)
(0.00126878 -0.0162212 0)
(0.00278637 -0.0189279 0)
(0.00124698 -0.0201725 0)
(0.000467918 -0.0176415 0)
(-0.00107864 -0.0155473 0)
(-0.00238558 -0.0151513 0)
(-0.00304782 -0.0152239 0)
(-0.00193461 -0.0100134 0)
(-0.00234016 -0.00918546 0)
(-0.000574183 -0.00862181 0)
(0.00181012 -0.00789177 0)
(0.00093153 -0.0119363 0)
(-0.000152421 -0.00877546 0)
(-0.000354377 -0.00690593 0)
(-0.0051334 -0.00619805 0)
(-0.00686162 -0.00422868 0)
(-0.00646554 -0.00483796 0)
(-0.00527463 0.000795136 0)
(-0.000686392 0.00344399 0)
(0.00517961 0.00135202 0)
(0.00742451 0.00267745 0)
(0.0103552 0.00208637 0)
(0.00572645 0.00122618 0)
(0.00302281 0.00098524 0)
(0.00131285 -0.0061795 0)
(-0.000956417 -0.00923921 0)
(-0.00230871 -0.00785105 0)
(-0.00237507 -0.00772295 0)
(-0.00177934 -0.00703614 0)
(-0.00235614 -0.0073041 0)
(-0.00267833 -0.00713043 0)
(-0.00231451 -0.0078915 0)
(-0.000136216 -0.0089207 0)
(0.00336658 -0.00935079 0)
(0.00486733 -0.00916165 0)
(0.00432166 -0.0088184 0)
(0.00457184 -0.00571474 0)
(-0.00147782 -0.00586801 0)
(-0.000890159 -0.010468 0)
(0.000238683 -0.0103252 0)
(-0.000674507 -0.00790197 0)
(0.00309907 -0.00754866 0)
(0.00371003 -0.00830241 0)
(-0.00191313 -0.00956939 0)
(-0.00213195 -0.0092487 0)
(-0.00207514 -0.00862566 0)
(-0.00237749 -0.0107872 0)
(0.000513428 -0.00956627 0)
(0.000722242 -0.0377438 0)
(-0.00828833 -0.00525068 0)
(-0.00635653 -0.0217601 0)
(-0.00794606 -0.013117 0)
(-0.00548607 -0.0150695 0)
(-0.00297776 -0.01183 0)
(-0.0017538 -0.00819779 0)
(-0.00136994 -0.00694427 0)
(-0.00318605 -0.00910788 0)
(-0.00221008 -0.00784841 0)
(-0.000274764 -0.00659754 0)
(-0.000207669 -0.00590787 0)
(0.00122063 -0.0118351 0)
(0.00419253 -0.0136393 0)
(0.000882001 -0.0153032 0)
(-0.000494367 -0.0188696 0)
(0.00132798 -0.0150367 0)
(0.00152158 -0.014144 0)
(0.000716585 -0.0170584 0)
(-0.00173137 -0.0174971 0)
(-0.0010057 -0.0204305 0)
(0.00256135 -0.0229029 0)
(0.00215504 -0.0219337 0)
(0.000918634 -0.0220261 0)
(-7.46345e-05 -0.0253459 0)
(-0.000237829 -0.0236601 0)
(0.00118306 -0.0175755 0)
(0.000472904 -0.0139248 0)
(0.000682277 -0.0176305 0)
(-0.000501621 -0.0202331 0)
(-0.00120996 -0.0194413 0)
(-0.00215522 -0.0191596 0)
(-0.00282877 -0.0204797 0)
(-0.00471515 -0.0185639 0)
(-0.000849006 -0.0162003 0)
(-0.00102733 -0.0121254 0)
(-0.00161285 -0.00632526 0)
(-0.00174376 -0.00908279 0)
(-0.00160317 -0.0128984 0)
(-0.00220429 -0.0100884 0)
(-0.00434976 -0.00963051 0)
(-0.00519952 -0.00949197 0)
(-0.00587449 -0.00875966 0)
(-0.00657976 -0.00904433 0)
(-0.00488997 -0.0101454 0)
(-0.00477599 -0.0116311 0)
(0.00225187 -0.0135973 0)
(0.00970878 -0.00945405 0)
(0.0102556 -0.00658137 0)
(0.0101376 -0.0101661 0)
(0.005346 -0.0103846 0)
(-0.000437702 -0.0100068 0)
(-0.000891207 -0.0114657 0)
(-0.00059602 -0.0117972 0)
(-0.001096 -0.0115029 0)
(-0.000407226 -0.0127418 0)
(-0.000979849 -0.0155818 0)
(-0.000813103 -0.0151142 0)
(-0.00241527 -0.0181809 0)
(-0.000525355 -0.0196205 0)
(0.00108706 -0.0168127 0)
(0.0025811 -0.0163807 0)
(0.00183098 -0.0111025 0)
(0.00225713 -0.00818612 0)
(-0.000325058 -0.00991616 0)
(0.000208903 -0.0126714 0)
(0.00163435 -0.0153111 0)
(0.00223913 -0.0115543 0)
(0.00154755 -0.00834442 0)
(0.000166208 -0.0120565 0)
(-1.07635e-05 -0.0130881 0)
(-0.000682976 -0.0115859 0)
(-0.000985894 -0.0136851 0)
(-0.000906315 -0.0147358 0)
(0.00231598 -0.0144357 0)
(0.00171964 -0.0301783 0)
(-0.00666057 -0.00794852 0)
(-0.00711088 -0.0185297 0)
(-0.00781846 -0.011867 0)
(-0.00396854 -0.0156186 0)
(-0.00393903 -0.0141118 0)
(-0.00173585 -0.0131859 0)
(-0.00416418 -0.0106703 0)
(-0.00250626 -0.0101222 0)
(-0.00309981 -0.00846778 0)
(-0.0022137 -0.0061587 0)
(0.000475399 -0.00494468 0)
(0.00307269 -0.00522262 0)
(0.00355573 -0.00403982 0)
(0.0054153 -0.00400815 0)
(0.00272535 -0.00639574 0)
(0.00488417 -0.00969149 0)
(0.000369945 -0.0136901 0)
(0.00133597 -0.0162929 0)
(-4.04039e-05 -0.0168252 0)
(0.000605019 -0.0147881 0)
(0.00102405 -0.0149221 0)
(0.00146174 -0.0174371 0)
(-0.00219545 -0.0155026 0)
(-0.000755929 -0.0149843 0)
(0.000233675 -0.0129948 0)
(0.00208411 -0.0112738 0)
(0.00088855 -0.010096 0)
(-0.00203261 -0.0115446 0)
(-0.000703737 -0.0147743 0)
(-0.00219865 -0.0148467 0)
(0.00019446 -0.0160483 0)
(0.000829161 -0.0196641 0)
(-0.00122299 -0.018061 0)
(-0.0043022 -0.0120193 0)
(-0.00138778 -0.0128509 0)
(-0.003552 -0.0105783 0)
(-0.00748325 -0.00757488 0)
(-0.0026053 -0.0117235 0)
(-0.00259927 -0.0119666 0)
(-0.00283526 -0.0123696 0)
(-0.00499274 -0.0139018 0)
(-0.00654715 -0.0138871 0)
(-0.00410928 -0.0140757 0)
(-0.00317362 -0.0166045 0)
(-0.00129029 -0.0189461 0)
(0.00501125 -0.0191827 0)
(0.0102605 -0.017134 0)
(0.0069316 -0.0160622 0)
(0.00402502 -0.0129115 0)
(0.00412778 -0.0122491 0)
(-0.000123557 -0.014405 0)
(-0.000683475 -0.013518 0)
(-0.00189085 -0.0136464 0)
(-0.00270269 -0.0134482 0)
(-0.00247244 -0.012854 0)
(0.00163431 -0.0124086 0)
(0.000743472 -0.013419 0)
(-0.00147513 -0.0139667 0)
(-0.000720574 -0.0145191 0)
(-0.000694883 -0.0164045 0)
(0.000926925 -0.0156393 0)
(0.00119912 -0.0148243 0)
(0.00232559 -0.0147706 0)
(0.00177479 -0.0173324 0)
(0.00193977 -0.0194233 0)
(0.00302798 -0.0171634 0)
(0.00484101 -0.0149822 0)
(0.00212863 -0.0145035 0)
(-0.00184015 -0.0141991 0)
(-0.000835897 -0.0155371 0)
(-0.00195083 -0.0178219 0)
(-0.00203922 -0.0186437 0)
(-0.00126947 -0.0163013 0)
(-0.00010537 -0.0148004 0)
(-0.00149564 -0.0385798 0)
(-0.00606632 -0.00423799 0)
(-0.00791716 -0.0213522 0)
(-0.00630522 -0.00800973 0)
(-0.00744645 -0.0115575 0)
(-0.00446698 -0.0116821 0)
(-0.00339051 -0.0120071 0)
(-0.00487114 -0.0104815 0)
(-0.00512579 -0.0121554 0)
(-0.00400644 -0.0147333 0)
(-0.00309922 -0.0115482 0)
(-0.00227402 -0.0103382 0)
(0.00109039 -0.014466 0)
(0.00316157 -0.0112276 0)
(0.00522676 -0.00982744 0)
(0.00550643 -0.0100137 0)
(0.00489338 -0.0105191 0)
(0.000269593 -0.0145507 0)
(1.09832e-05 -0.0127512 0)
(0.00316145 -0.0116409 0)
(0.00248138 -0.0113419 0)
(0.000958779 -0.0136151 0)
(-0.000286849 -0.0156726 0)
(-0.00107516 -0.0155755 0)
(-0.00114677 -0.0153168 0)
(-0.00123345 -0.0137184 0)
(0.000598533 -0.0102653 0)
(0.00148048 -0.00911295 0)
(0.00024313 -0.00895037 0)
(0.00193966 -0.0114741 0)
(-9.34222e-05 -0.00966573 0)
(0.00124217 -0.00996906 0)
(-9.49316e-05 -0.0154941 0)
(-0.000894426 -0.0156635 0)
(-0.00369876 -0.00768537 0)
(-0.00897863 -0.00588312 0)
(-0.00349426 -0.00991072 0)
(-0.00606177 -0.00742235 0)
(-0.00285031 -0.0102344 0)
(-0.00160391 -0.0140059 0)
(-0.00180595 -0.0161525 0)
(-0.00291719 -0.0192636 0)
(-0.00346452 -0.0165018 0)
(-0.00370195 -0.0168177 0)
(-0.00312589 -0.0207021 0)
(-0.000949812 -0.0211465 0)
(0.00410697 -0.0206323 0)
(0.00735756 -0.019521 0)
(0.00714166 -0.0193695 0)
(0.00365902 -0.0137138 0)
(0.0035701 -0.0132033 0)
(0.000789721 -0.0192054 0)
(0.000130059 -0.0201657 0)
(-0.000671608 -0.0209135 0)
(-0.00212769 -0.018905 0)
(-3.99194e-05 -0.0153868 0)
(-0.000357085 -0.0184793 0)
(-0.00178927 -0.0211941 0)
(-0.000788237 -0.019611 0)
(-0.000620926 -0.019495 0)
(0.000243472 -0.0191473 0)
(0.00162246 -0.0189898 0)
(0.00334676 -0.0151902 0)
(0.00275079 -0.0142062 0)
(0.000648381 -0.0175813 0)
(0.00131893 -0.0180193 0)
(0.00212802 -0.0167737 0)
(0.00255904 -0.0148095 0)
(0.00165049 -0.0162966 0)
(0.00026293 -0.0170371 0)
(-0.000990998 -0.0178607 0)
(-0.00022518 -0.0189495 0)
(0.000584361 -0.0210128 0)
(0.00200996 -0.0194332 0)
(0.00185393 -0.0151836 0)
(0.00153354 -0.0453583 0)
(-0.0120184 -0.00596139 0)
(-0.00818058 -0.0194772 0)
(-0.00374226 -0.0102745 0)
(-0.00752113 -0.0124202 0)
(-0.00626849 -0.0103802 0)
(-0.00585516 -0.0145272 0)
(-0.00478836 -0.0152521 0)
(-0.00368282 -0.0178673 0)
(-0.00132897 -0.0180931 0)
(0.000976163 -0.0175725 0)
(-0.00050665 -0.0158991 0)
(0.00109495 -0.0160672 0)
(0.00523 -0.0144065 0)
(0.00418609 -0.0127357 0)
(0.00489522 -0.0114436 0)
(0.00188939 -0.0120594 0)
(0.00220971 -0.01548 0)
(0.00315057 -0.0133766 0)
(0.00245071 -0.0119567 0)
(0.000270581 -0.0106808 0)
(0.000611472 -0.0102099 0)
(-0.000390055 -0.0144099 0)
(-0.00153365 -0.0144757 0)
(-0.00204022 -0.0153271 0)
(-0.00183008 -0.012194 0)
(-0.000994505 -0.00875246 0)
(-0.000925017 -0.00877924 0)
(-0.000650599 -0.00780045 0)
(-0.000207155 -0.0114075 0)
(0.000744292 -0.0116211 0)
(0.00068082 -0.00880253 0)
(0.00141455 -0.0104531 0)
(0.000220588 -0.0072817 0)
(-0.0012229 -0.00483417 0)
(-0.00542887 -0.001052 0)
(-0.00183175 -0.00183455 0)
(-0.00104574 -0.0083802 0)
(-0.00212236 -0.0106655 0)
(-0.000842835 -0.0138137 0)
(-0.00223161 -0.0151812 0)
(-0.00257381 -0.0154495 0)
(-0.00191733 -0.0141842 0)
(-0.00534716 -0.0136259 0)
(-0.00251232 -0.0156042 0)
(-0.000160199 -0.0167834 0)
(0.00337161 -0.0175496 0)
(0.00699596 -0.0165958 0)
(0.00767824 -0.0166607 0)
(0.00636183 -0.0122857 0)
(0.000572893 -0.0131739 0)
(0.000152111 -0.0199731 0)
(-0.000690576 -0.0197396 0)
(-7.68652e-05 -0.0201734 0)
(0.000846515 -0.0141633 0)
(0.00204354 -0.0116402 0)
(-0.00141311 -0.0157047 0)
(-0.00178269 -0.0168922 0)
(-0.00246085 -0.01664 0)
(-0.00171807 -0.0169677 0)
(-0.000626999 -0.0173506 0)
(0.000301292 -0.0155744 0)
(0.00486474 -0.0155252 0)
(0.000163639 -0.016759 0)
(-0.00159817 -0.0163953 0)
(0.000801998 -0.0158033 0)
(0.00120312 -0.0147316 0)
(0.00283316 -0.0147297 0)
(0.00163981 -0.0161355 0)
(0.000817333 -0.01562 0)
(0.000817261 -0.0162681 0)
(0.0003744 -0.0177165 0)
(0.000814277 -0.0169854 0)
(0.00227034 -0.0157199 0)
(0.000682779 -0.01359 0)
(-0.00250007 -0.0254093 0)
(-0.0086956 -0.0062057 0)
(-0.00463156 -0.0164612 0)
(-0.00238588 -0.0129115 0)
(-0.00229026 -0.0200857 0)
(-0.00517827 -0.0199483 0)
(-0.00351227 -0.0258943 0)
(-0.00205574 -0.0271583 0)
(-0.00173248 -0.0271844 0)
(-0.00300096 -0.0271528 0)
(-0.00555467 -0.0255292 0)
(-0.00265987 -0.0242225 0)
(-0.00138698 -0.0226197 0)
(0.00228452 -0.0189912 0)
(0.00443473 -0.0163881 0)
(0.00447595 -0.0137955 0)
(0.00274745 -0.0141571 0)
(0.0041269 -0.0139998 0)
(0.00517985 -0.0132164 0)
(0.000657346 -0.0143837 0)
(0.00120149 -0.0119282 0)
(-0.00169276 -0.0113159 0)
(-0.000282613 -0.0149702 0)
(0.00105804 -0.0148733 0)
(0.00127523 -0.0155932 0)
(0.00203966 -0.0149341 0)
(-7.50947e-05 -0.0128481 0)
(0.000206754 -0.0124873 0)
(-0.00055915 -0.0118502 0)
(-0.0021331 -0.013451 0)
(-0.00123224 -0.0101485 0)
(-0.00487924 -0.00708445 0)
(-0.00388629 -0.00891957 0)
(-0.00399488 -0.00787851 0)
(-0.00398088 -0.00493058 0)
(9.61565e-05 -0.00584681 0)
(0.00178304 -0.0124166 0)
(-0.000511008 -0.0174381 0)
(-0.00149217 -0.0158732 0)
(-0.00153045 -0.0159511 0)
(-0.00207265 -0.0153402 0)
(-0.00302775 -0.0150191 0)
(-0.00341863 -0.0160987 0)
(-0.00431859 -0.015703 0)
(-0.00210328 -0.0164686 0)
(-0.000540497 -0.0185252 0)
(0.00237412 -0.0161498 0)
(0.00886781 -0.0145145 0)
(0.00856635 -0.0147096 0)
(0.00764979 -0.0142252 0)
(0.0016008 -0.0141757 0)
(0.000549215 -0.0168977 0)
(-0.000528536 -0.0177097 0)
(-0.000268679 -0.0183525 0)
(0.00101905 -0.0159835 0)
(-0.0027276 -0.0132424 0)
(-0.00145683 -0.01462 0)
(-0.000455522 -0.0141702 0)
(-0.000385308 -0.0138729 0)
(0.000181221 -0.0168987 0)
(-0.000306142 -0.0191911 0)
(0.00294017 -0.014709 0)
(0.00225148 -0.0160038 0)
(0.000820334 -0.0198455 0)
(-0.000203027 -0.0142801 0)
(-0.000576127 -0.0132977 0)
(0.00228063 -0.0135227 0)
(0.000375512 -0.0141689 0)
(0.000563339 -0.0179028 0)
(0.00155258 -0.0173365 0)
(0.000913817 -0.0180007 0)
(0.000393062 -0.016923 0)
(0.000830825 -0.016808 0)
(0.00204152 -0.0166973 0)
(0.000869046 -0.014805 0)
(-0.000541836 -0.0372975 0)
(-0.00403529 0.000410329 0)
(-0.00266957 -0.0216468 0)
(-0.00300423 -0.0185243 0)
(-0.00112574 -0.0233986 0)
(-0.00135433 -0.0219672 0)
(-0.00142138 -0.0250625 0)
(-0.000903171 -0.0254301 0)
(-0.00242322 -0.0252465 0)
(-0.000168668 -0.027436 0)
(-0.0030911 -0.0265887 0)
(-0.00365156 -0.0272025 0)
(-0.00407691 -0.0306089 0)
(-0.00291746 -0.02739 0)
(0.00214027 -0.0233157 0)
(0.00372746 -0.0211122 0)
(0.00320179 -0.0182258 0)
(0.00259943 -0.0153699 0)
(0.00184409 -0.0163906 0)
(0.00130646 -0.0163539 0)
(0.00202751 -0.0160294 0)
(-0.000188405 -0.0168693 0)
(0.000604369 -0.0163036 0)
(0.000377384 -0.0136536 0)
(-0.001586 -0.011256 0)
(-0.00100261 -0.00929277 0)
(-0.00285555 -0.00615487 0)
(-0.00212102 -0.00462208 0)
(-0.00125886 -0.00442919 0)
(-0.000716806 -0.00332247 0)
(0.000201465 -0.00420766 0)
(-0.0025537 -0.00412551 0)
(-0.00385943 -0.00818317 0)
(-0.00353857 -0.0134566 0)
(-0.00289799 -0.011421 0)
(0.000549469 -0.00987189 0)
(-0.000327635 -0.0160641 0)
(-0.000386793 -0.0191381 0)
(-0.00102723 -0.0165795 0)
(-0.00173833 -0.0168815 0)
(-0.00192326 -0.0170388 0)
(-0.00197591 -0.0170655 0)
(-0.00218704 -0.0163054 0)
(-0.00218878 -0.0169451 0)
(-0.00130136 -0.019712 0)
(8.92535e-06 -0.0234141 0)
(0.00130283 -0.0186222 0)
(0.00637842 -0.0178156 0)
(0.00582463 -0.0211842 0)
(0.00614029 -0.0177734 0)
(0.00304561 -0.016478 0)
(0.00124027 -0.0171316 0)
(5.82511e-05 -0.0156725 0)
(0.000139983 -0.0142833 0)
(0.000637549 -0.0147499 0)
(-0.00088632 -0.0145429 0)
(-0.000532884 -0.0148845 0)
(2.79003e-06 -0.015156 0)
(0.000131186 -0.015601 0)
(1.59604e-05 -0.016753 0)
(0.00206797 -0.0133999 0)
(0.00430614 -0.0122268 0)
(-0.000400669 -0.0163836 0)
(0.000540367 -0.0175428 0)
(-0.000866451 -0.0149237 0)
(-0.000963371 -0.00917587 0)
(0.00217885 -0.0109313 0)
(7.25978e-05 -0.0161478 0)
(-0.000234441 -0.0164347 0)
(0.00127708 -0.0162839 0)
(0.00127989 -0.0167742 0)
(0.00101888 -0.0156369 0)
(0.000225003 -0.0154039 0)
(-8.25778e-05 -0.015196 0)
(0.000984232 -0.0137948 0)
(0.00378159 -0.0297153 0)
(-0.00474419 -0.000868328 0)
(-0.002955 -0.0200555 0)
(-0.00398569 -0.0142616 0)
(-0.00218187 -0.0194604 0)
(-0.00100754 -0.0187782 0)
(-0.000454736 -0.0201045 0)
(0.000541174 -0.0203093 0)
(0.000767666 -0.0172924 0)
(0.00123149 -0.0175716 0)
(0.0010349 -0.0208311 0)
(-0.00566844 -0.0202545 0)
(-0.0046502 -0.0214762 0)
(-0.00329534 -0.0212187 0)
(-0.000685846 -0.020094 0)
(0.00054642 -0.0199668 0)
(0.00264706 -0.0176128 0)
(0.000324814 -0.0160389 0)
(0.000269588 -0.0152311 0)
(0.00322051 -0.0143048 0)
(0.00167232 -0.0144027 0)
(0.000160831 -0.013867 0)
(-0.00234582 -0.0143282 0)
(-0.00425035 -0.0138418 0)
(-0.00435136 -0.0140821 0)
(-0.00328056 -0.014514 0)
(-0.00254653 -0.014468 0)
(-0.00213645 -0.0143614 0)
(-0.000768541 -0.0156204 0)
(-0.0011196 -0.0160307 0)
(0.00129111 -0.0151375 0)
(0.00126613 -0.014121 0)
(-0.000204317 -0.0159551 0)
(-0.000317102 -0.0182452 0)
(-0.000306807 -0.0136226 0)
(-0.00169612 -0.011358 0)
(-0.00304242 -0.0153368 0)
(-0.00108765 -0.0152526 0)
(-0.001766 -0.0141031 0)
(-0.00263088 -0.0133672 0)
(-0.00203055 -0.0131961 0)
(-0.00143706 -0.0151641 0)
(-0.000333079 -0.016439 0)
(-0.000248282 -0.0193222 0)
(0.000816308 -0.0219173 0)
(0.00304038 -0.0245046 0)
(0.00397591 -0.0185976 0)
(0.000420027 -0.0172219 0)
(0.00165587 -0.0203196 0)
(0.00179594 -0.0175542 0)
(0.000795259 -0.0165858 0)
(0.000306148 -0.0152709 0)
(-0.000206818 -0.0142077 0)
(-0.00146247 -0.0136347 0)
(-6.3251e-05 -0.0138605 0)
(-0.00111277 -0.0130704 0)
(-0.00135038 -0.0127375 0)
(-0.000950621 -0.0123863 0)
(-0.000183372 -0.0119277 0)
(0.00250057 -0.0122409 0)
(0.00385199 -0.0113159 0)
(0.00247822 -0.0119669 0)
(-3.2809e-05 -0.0124902 0)
(0.00300891 -0.0136801 0)
(0.00212797 -0.0112583 0)
(0.000653292 -0.00663706 0)
(-0.00331868 -0.0105849 0)
(0.00045577 -0.0151788 0)
(0.000259794 -0.0154518 0)
(0.00153121 -0.0144801 0)
(0.000599651 -0.0150983 0)
(8.0488e-05 -0.014058 0)
(-0.000101597 -0.0136126 0)
(0.000680599 -0.0128123 0)
(0.00111716 -0.0124248 0)
(0.00140342 -0.0331625 0)
(-0.00462621 -0.00851849 0)
(-0.00473473 -0.0180126 0)
(0.000103559 -0.0106261 0)
(-0.000421585 -0.0151266 0)
(0.00111874 -0.0138674 0)
(0.000388456 -0.0148224 0)
(0.000406287 -0.0140006 0)
(0.00245854 -0.0121537 0)
(-0.00243487 -0.0105547 0)
(-0.00300982 -0.0132591 0)
(-0.00352533 -0.0132787 0)
(-0.00301281 -0.0135474 0)
(-0.000932188 -0.0157032 0)
(-0.000473269 -0.018237 0)
(0.00068832 -0.0182612 0)
(0.000200644 -0.0161473 0)
(-0.000630611 -0.0150975 0)
(0.00125502 -0.0103764 0)
(0.000221379 -0.010131 0)
(-0.00157908 -0.0102878 0)
(0.000380138 -0.00916276 0)
(-0.000415186 -0.00987735 0)
(-0.00198565 -0.0104097 0)
(9.42783e-05 -0.0127105 0)
(-0.000445708 -0.015708 0)
(-0.000165016 -0.0163546 0)
(6.11848e-06 -0.0160326 0)
(-0.000341991 -0.018522 0)
(-0.000925593 -0.0183754 0)
(-0.00151719 -0.0168892 0)
(-0.00317815 -0.0161456 0)
(-0.000242369 -0.01627 0)
(-0.000720481 -0.0181903 0)
(0.00211728 -0.0167813 0)
(-0.00163605 -0.0169602 0)
(-0.00336709 -0.0177742 0)
(-0.00357464 -0.0176677 0)
(-0.00438406 -0.0168025 0)
(-0.00232407 -0.017127 0)
(-0.00109473 -0.0173466 0)
(-0.000708671 -0.0185266 0)
(0.000585645 -0.020352 0)
(0.00220513 -0.0197448 0)
(0.00196562 -0.0192339 0)
(0.00241959 -0.0198358 0)
(0.00379283 -0.018591 0)
(-0.0010901 -0.0179059 0)
(0.000720844 -0.0176903 0)
(0.000197806 -0.0166814 0)
(-0.00064154 -0.0149319 0)
(0.000814329 -0.0148659 0)
(0.000128225 -0.0150841 0)
(-0.00142418 -0.0140234 0)
(0.000433745 -0.0149115 0)
(-0.000875775 -0.0159394 0)
(-0.00181762 -0.0153821 0)
(-0.000810912 -0.0166744 0)
(-9.27901e-05 -0.0161384 0)
(0.00152036 -0.0157017 0)
(0.00196721 -0.0145397 0)
(0.00203289 -0.0132603 0)
(0.00205737 -0.0113696 0)
(0.00272202 -0.0113825 0)
(0.00419576 -0.0141027 0)
(0.00122573 -0.0132229 0)
(-0.00123495 -0.0108719 0)
(-0.00129297 -0.011888 0)
(-0.00124053 -0.0139442 0)
(0.00129497 -0.0136862 0)
(0.000923105 -0.0157842 0)
(-0.000492815 -0.0137707 0)
(-0.0021106 -0.0125723 0)
(0.00189776 -0.0131421 0)
(-1.63071e-05 -0.0137967 0)
(0.00145393 -0.035229 0)
(-0.00569795 -0.00527004 0)
(-0.00393702 -0.015818 0)
(-0.00204284 -0.00739717 0)
(-0.00131218 -0.0168272 0)
(-0.000818996 -0.013037 0)
(-0.00118318 -0.0125496 0)
(-0.00205893 -0.00869612 0)
(0.00202663 -0.010216 0)
(-0.00111435 -0.0131768 0)
(-0.00182069 -0.0135995 0)
(-0.0010584 -0.0135688 0)
(-0.00192011 -0.01489 0)
(-0.000256741 -0.0148738 0)
(-0.000257499 -0.0153953 0)
(0.00119349 -0.01555 0)
(0.000374301 -0.0144462 0)
(-0.00111135 -0.0112553 0)
(0.00185191 -0.0096326 0)
(-0.00184653 -0.0138156 0)
(-0.00284374 -0.0112575 0)
(0.000646718 -0.0112825 0)
(0.000602227 -0.0169639 0)
(-0.000480537 -0.015601 0)
(-0.000671821 -0.0146099 0)
(-0.001767 -0.0178758 0)
(-0.00144185 -0.017516 0)
(-0.00331891 -0.0162357 0)
(0.000309604 -0.0171078 0)
(0.0012282 -0.0183183 0)
(3.82195e-05 -0.0188545 0)
(0.000314652 -0.0153508 0)
(-4.81501e-05 -0.0162841 0)
(-0.00143121 -0.0189906 0)
(0.000907764 -0.017992 0)
(-0.00197906 -0.0197782 0)
(-0.00210697 -0.020374 0)
(-0.00203447 -0.0204136 0)
(-0.0023935 -0.0221135 0)
(-0.00217066 -0.0227481 0)
(-0.000690908 -0.0251603 0)
(-8.46909e-05 -0.024546 0)
(-0.0018947 -0.0232069 0)
(0.000515146 -0.0207487 0)
(0.00339422 -0.0198807 0)
(0.00202618 -0.0202007 0)
(0.00121055 -0.0195095 0)
(-0.000646711 -0.0184567 0)
(0.00147294 -0.0179145 0)
(0.000664742 -0.0186473 0)
(-9.33474e-05 -0.0135142 0)
(0.000224767 -0.0111547 0)
(-8.83582e-05 -0.0141587 0)
(-0.000279343 -0.0133992 0)
(-0.00156659 -0.0129548 0)
(-0.00143839 -0.0142899 0)
(-0.000413173 -0.0139189 0)
(0.000497478 -0.0151143 0)
(0.000386911 -0.0153985 0)
(0.00111672 -0.0149276 0)
(0.00326143 -0.0152835 0)
(0.0014637 -0.0148377 0)
(0.00368836 -0.0146097 0)
(0.000588127 -0.0137121 0)
(0.00156564 -0.0148818 0)
(0.000349324 -0.0146425 0)
(0.00104014 -0.0138349 0)
(-0.00227401 -0.015761 0)
(-0.0012839 -0.0129749 0)
(-0.000951898 -0.0130433 0)
(-0.000780262 -0.0178652 0)
(0.000625405 -0.0171946 0)
(0.00161144 -0.0124143 0)
(0.00113873 -0.0130314 0)
(0.00143654 -0.0172243 0)
(-0.00317306 -0.0294844 0)
(-0.00253617 -0.00402267 0)
(-0.00114169 -0.0176079 0)
(-0.00381056 -0.00917851 0)
(-0.00149467 -0.0146584 0)
(-0.00143528 -0.012613 0)
(-0.000466714 -0.0137355 0)
(-0.0013879 -0.00833473 0)
(0.0012602 -0.00911833 0)
(-0.00083658 -0.0137467 0)
(-0.000904 -0.0138054 0)
(-0.000823616 -0.0140184 0)
(-0.00144671 -0.0116691 0)
(-0.00170681 -0.0109041 0)
(-0.00159754 -0.0126599 0)
(-0.000604813 -0.012518 0)
(0.000697767 -0.0128979 0)
(0.00185833 -0.00915279 0)
(0.00143376 -0.0090358 0)
(0.00100582 -0.0152711 0)
(0.00232035 -0.0123837 0)
(-0.00110706 -0.0123212 0)
(-0.00088629 -0.0165014 0)
(1.92409e-06 -0.0154959 0)
(-0.00272119 -0.0151722 0)
(-0.00213189 -0.016072 0)
(-0.00190181 -0.0166014 0)
(-4.04719e-05 -0.013484 0)
(0.000146268 -0.0142997 0)
(-9.86342e-05 -0.0187167 0)
(1.27045e-05 -0.0181457 0)
(0.00141073 -0.0165462 0)
(-0.00118569 -0.0174915 0)
(-0.000572551 -0.0154989 0)
(-0.00116206 -0.0152272 0)
(-0.000858032 -0.0185363 0)
(-0.00129789 -0.0202792 0)
(-0.00125848 -0.0222308 0)
(-0.000733725 -0.0232733 0)
(-0.00289833 -0.0217562 0)
(0.00148225 -0.0209517 0)
(0.00103147 -0.02311 0)
(0.000485491 -0.0210168 0)
(-5.75334e-05 -0.0166482 0)
(-0.000783823 -0.0183585 0)
(0.000283822 -0.0201919 0)
(0.000798576 -0.0188048 0)
(-0.00116777 -0.0149017 0)
(-0.000234534 -0.0128574 0)
(-0.000356195 -0.0144898 0)
(2.80647e-05 -0.0127883 0)
(-0.00242848 -0.0117119 0)
(-0.00124522 -0.012546 0)
(6.9112e-05 -0.0130591 0)
(-0.00124183 -0.0136013 0)
(-0.00113678 -0.0135143 0)
(-0.00107596 -0.0125352 0)
(0.00230257 -0.0147556 0)
(0.00167308 -0.0158763 0)
(0.000934269 -0.0159036 0)
(0.00146621 -0.0167823 0)
(0.00107543 -0.0167643 0)
(0.00249614 -0.0162135 0)
(0.00302602 -0.0161091 0)
(0.00270248 -0.0156618 0)
(0.00171199 -0.0145938 0)
(0.000821929 -0.0146264 0)
(-6.0276e-05 -0.0156278 0)
(0.00088571 -0.0145389 0)
(-0.00190475 -0.0145721 0)
(-0.00116833 -0.0165633 0)
(-0.0012769 -0.0151741 0)
(0.00338424 -0.0146497 0)
(-0.0008282 -0.0165412 0)
(0.000649178 -0.0171785 0)
(-0.00296052 -0.0462068 0)
(-0.00399465 -0.00367305 0)
(-0.0040474 -0.0218377 0)
(-0.0023022 -0.0118832 0)
(-0.00154031 -0.0163634 0)
(-0.00234017 -0.0140475 0)
(-0.0011574 -0.0152033 0)
(0.00245007 -0.0109602 0)
(-0.00244244 -0.0131389 0)
(-0.00254114 -0.0180631 0)
(-0.00117091 -0.0149896 0)
(-0.000845002 -0.014016 0)
(-0.000489834 -0.0149471 0)
(-0.00127639 -0.0149576 0)
(-0.000760508 -0.0162666 0)
(0.000687604 -0.017103 0)
(0.00133943 -0.0157664 0)
(0.00394322 -0.014184 0)
(0.000585229 -0.0144621 0)
(0.000819196 -0.0162646 0)
(0.00177973 -0.0157074 0)
(-0.00322141 -0.0137437 0)
(0.000192756 -0.0133532 0)
(-0.000318365 -0.0153366 0)
(-0.00174725 -0.016152 0)
(-0.00044152 -0.0153968 0)
(-0.000772543 -0.0141849 0)
(0.00178918 -0.012904 0)
(-0.00147515 -0.0153595 0)
(-9.85991e-05 -0.0172152 0)
(0.000659562 -0.0167129 0)
(-3.52447e-05 -0.0166478 0)
(-0.00106237 -0.0169793 0)
(0.00143036 -0.0164703 0)
(-0.00134771 -0.0152702 0)
(-0.000295645 -0.0162382 0)
(-0.000568345 -0.0171753 0)
(0.000141469 -0.0187349 0)
(-0.00147651 -0.0210787 0)
(-0.00192939 -0.0155818 0)
(0.000185359 -0.0146628 0)
(0.00034088 -0.0176836 0)
(0.000710801 -0.0146918 0)
(-0.000554366 -0.0126198 0)
(-0.00297723 -0.0121508 0)
(-0.00130987 -0.0118569 0)
(-0.00134592 -0.0120345 0)
(-0.000208327 -0.0101507 0)
(-0.00239766 -0.00907987 0)
(-0.00124563 -0.0109204 0)
(-0.00198199 -0.0115304 0)
(-0.00250396 -0.0109531 0)
(-0.000101833 -0.0119659 0)
(-0.000770343 -0.0129608 0)
(0.000106351 -0.0123704 0)
(0.00084652 -0.0127614 0)
(0.000650149 -0.00924609 0)
(0.00118668 -0.0109903 0)
(0.00196132 -0.0147335 0)
(0.00170838 -0.0141443 0)
(0.00118693 -0.0151206 0)
(0.00149352 -0.0162491 0)
(0.000382326 -0.0147567 0)
(0.00236383 -0.0144343 0)
(0.00135661 -0.0148365 0)
(0.000290206 -0.0151955 0)
(0.000963185 -0.0142996 0)
(0.000688036 -0.0152786 0)
(-0.00138074 -0.0155511 0)
(-0.000528339 -0.0154187 0)
(0.000287016 -0.0167311 0)
(0.00109012 -0.0126321 0)
(0.00257536 -0.0132902 0)
(-0.000446395 -0.0177033 0)
(0.00297092 -0.0176757 0)
(-0.000913146 -0.0241905 0)
(-0.00211527 -0.00315054 0)
(-0.00330087 -0.0208756 0)
(-0.00109697 -0.0120336 0)
(-0.000128145 -0.017577 0)
(-0.0010423 -0.015374 0)
(0.00201307 -0.0123253 0)
(0.00314214 -0.0115945 0)
(-0.00377617 -0.0165867 0)
(-0.00369329 -0.0164692 0)
(0.000297882 -0.0172588 0)
(-0.00124331 -0.0187403 0)
(-0.000234048 -0.0180972 0)
(0.00040742 -0.0180102 0)
(0.000314389 -0.0191548 0)
(0.000675547 -0.0195701 0)
(0.00132718 -0.0185004 0)
(0.00147866 -0.0164034 0)
(0.00167985 -0.0161326 0)
(0.00178208 -0.0169916 0)
(0.000817069 -0.0184625 0)
(-0.000567545 -0.0140769 0)
(-0.00110619 -0.013788 0)
(-0.000924825 -0.0177013 0)
(-0.000752044 -0.0167179 0)
(-0.00101837 -0.015482 0)
(-2.90103e-05 -0.0141625 0)
(-0.000471769 -0.0138868 0)
(-0.00108592 -0.0135725 0)
(0.000111271 -0.0141252 0)
(0.00156398 -0.0144472 0)
(0.00110017 -0.0141972 0)
(-0.00103074 -0.014516 0)
(-1.6995e-05 -0.0154882 0)
(-0.00144529 -0.0152776 0)
(-0.000240223 -0.0151585 0)
(-0.000119811 -0.0157469 0)
(-0.000115228 -0.0166861 0)
(0.00151755 -0.0166639 0)
(0.0005159 -0.0111827 0)
(-0.00338701 -0.0111295 0)
(-0.00148336 -0.0158546 0)