/*--------------------------------*- C++ -*----------------------------------*\
  =========                 |
  \\      /  F ield         | OpenFOAM: The Open Source CFD Toolbox
   \\    /   O peration     | Website:  https://openfoam.org
    \\  /    A nd           | Version:  12
     \\/     M anipulation  |
\*---------------------------------------------------------------------------*/
FoamFile
{
    format      ascii;
    class       volVectorField;
    location    "0.4";
    object      U.water_0;
}
// * * * * * * * * * * * * * * * * * * * * * * * * * * * * * * * * * * * * * //

dimensions      [0 1 -1 0 0 0 0];

internalField   nonuniform List<vector> 
3750
(
(0.00183195 -0.0401242 0)
(-0.00849983 -0.00845694 0)
(-0.00694776 -0.0095065 0)
(-0.00524829 0.00582267 0)
(-0.000336448 0.000394643 0)
(0.000962553 0.00653083 0)
(3.12267e-05 0.00434651 0)
(-0.000489797 0.00728661 0)
(0.000490538 0.007483 0)
(0.000368534 0.00681216 0)
(0.00031434 0.0061757 0)
(0.000746735 0.00849136 0)
(-0.000180389 0.010679 0)
(-0.000900822 0.0116791 0)
(-0.00032805 0.0127456 0)
(0.000666613 0.0122065 0)
(0.00029733 0.0105092 0)
(-0.000592538 0.00995589 0)
(-0.00238229 0.0115621 0)
(-0.000641826 0.0121139 0)
(-0.000486868 0.0121941 0)
(-0.000838464 0.0128081 0)
(0.00185379 0.012609 0)
(0.00113169 0.0104632 0)
(0.000697507 0.00840528 0)
(0.00016792 0.00756607 0)
(-0.00128669 0.0095968 0)
(-0.000130788 0.0107807 0)
(0.00108354 0.0155041 0)
(-0.00206147 0.0152158 0)
(-0.00148933 0.0103241 0)
(-0.000389665 0.0100095 0)
(0.00036281 0.00914227 0)
(0.00222686 0.0151557 0)
(-0.00110486 0.0164014 0)
(-0.000521077 0.0127523 0)
(-0.000588889 0.0147015 0)
(-0.000366919 0.0144584 0)
(0.000197407 0.0144723 0)
(-0.000796592 0.0158741 0)
(-0.00176214 0.0163792 0)
(0.000664182 0.0158925 0)
(0.000247882 0.0165495 0)
(0.001094 0.0192105 0)
(-4.41572e-05 0.0211293 0)
(0.00109029 0.0224581 0)
(0.000604869 0.0189899 0)
(0.0021506 0.0147492 0)
(0.000355655 0.0117035 0)
(-0.000728135 0.00829419 0)
(-0.000516873 0.00939177 0)
(-0.00111329 0.0103866 0)
(-0.000938984 0.0111603 0)
(0.000242661 0.0111565 0)
(0.000650011 0.012067 0)
(-8.18997e-05 0.0109959 0)
(0.000882553 0.0104911 0)
(0.000732225 0.0118303 0)
(0.00103337 0.0119776 0)
(0.000269761 0.0103426 0)
(0.000394383 0.00976448 0)
(-4.91231e-05 0.0107295 0)
(0.000535153 0.012095 0)
(0.000118999 0.0112232 0)
(-0.00057312 0.00980224 0)
(0.000594681 0.00940362 0)
(-0.000540395 0.00966476 0)
(0.00151091 0.00860822 0)
(-0.000314837 0.00700391 0)
(-0.00156319 0.00650253 0)
(-0.00111041 0.0084311 0)
(-0.00123339 0.00899067 0)
(0.000149396 0.00891627 0)
(0.000802402 0.00925913 0)
(0.000621987 0.00897576 0)
(0.000964329 -0.0379353 0)
(-0.00857433 0.00227127 0)
(-0.0107615 -0.0119319 0)
(-0.00540712 -0.00668756 0)
(-0.000887743 -0.00883296 0)
(-0.00128003 -0.00421491 0)
(0.000157565 -0.0066534 0)
(-0.00115831 -0.00105876 0)
(-0.00011943 -0.00223827 0)
(-0.00202509 -0.0038289 0)
(-0.00328207 -0.00378129 0)
(-0.00217128 -0.000456954 0)
(-0.00143085 0.000111269 0)
(0.00119694 0.00421601 0)
(0.00142792 0.00731273 0)
(0.00136244 0.00684481 0)
(-0.000537258 0.00155932 0)
(-0.000623804 -0.00267037 0)
(-0.00195753 -0.00167972 0)
(0.000350973 -0.00218819 0)
(0.000572007 -0.00353518 0)
(0.000430294 0.00149951 0)
(0.00095886 0.00205757 0)
(0.00153459 -0.00101558 0)
(0.000665306 -0.000406147 0)
(0.000168023 -0.00147359 0)
(-0.000109209 0.000455903 0)
(-0.000575869 -0.000494785 0)
(0.0016171 -0.00323082 0)
(-0.00236214 -0.00412638 0)
(-0.001388 -0.00312842 0)
(-0.0015535 -0.00251677 0)
(0.00158071 -0.00129649 0)
(0.00175656 0.000642551 0)
(-0.00228554 -0.000139217 0)
(-0.00248384 -0.00168256 0)
(-0.00180738 -0.000938057 0)
(-0.00212353 -4.50166e-06 0)
(0.00166565 -0.000159007 0)
(0.0005846 -0.000260043 0)
(0.00218789 0.00391159 0)
(-0.00114996 0.00309106 0)
(-0.00514279 0.00255316 0)
(-0.00399124 0.00681863 0)
(-0.0035825 0.0112443 0)
(0.000213455 0.0145753 0)
(0.00450973 0.0137319 0)
(0.00643515 0.00991183 0)
(0.00455624 0.00601447 0)
(0.00155537 0.00465175 0)
(-0.00105637 0.00243395 0)
(-0.00064053 -0.00128709 0)
(-0.000712864 -0.000810279 0)
(0.000406949 -0.000377036 0)
(-0.000144819 0.00097468 0)
(-0.00109157 0.00166042 0)
(-0.000717744 0.00211171 0)
(-0.000894711 0.00532639 0)
(-0.00210987 0.00641227 0)
(-0.00189359 0.00572149 0)
(-0.00216459 0.00506393 0)
(-6.60888e-06 0.00527817 0)
(0.000751055 0.00492803 0)
(0.00236853 0.000998638 0)
(-0.00051638 0.00100853 0)
(0.00239941 0.00179295 0)
(0.00236931 0.00377866 0)
(0.00141024 0.00236051 0)
(0.000609159 -0.0044761 0)
(-0.000213097 -0.00501597 0)
(-0.000543092 -0.00454687 0)
(-0.00197814 -0.00484706 0)
(-0.000353245 -0.00309746 0)
(0.00100113 -0.00224086 0)
(0.00044359 -0.00134951 0)
(-0.00339367 -0.0266814 0)
(-0.00489288 -0.00179894 0)
(-0.00944256 -0.0132014 0)
(-0.00824743 -0.00663587 0)
(-0.00482112 -0.013584 0)
(-0.0025143 -0.00890656 0)
(0.00148658 -0.00898416 0)
(0.000997026 -0.00624551 0)
(-0.0018874 -0.00676884 0)
(-0.00296582 -0.00889263 0)
(-0.00413508 -0.00950863 0)
(-0.0026733 -0.00824266 0)
(-0.00201398 -0.00976221 0)
(0.00366109 -0.0111117 0)
(0.0023196 -0.0109939 0)
(0.00149804 -0.0119447 0)
(-0.000947436 -0.0144031 0)
(-0.00181712 -0.014248 0)
(0.00107098 -0.0122713 0)
(0.000266467 -0.013672 0)
(0.000309775 -0.0169822 0)
(-0.0011015 -0.0140086 0)
(-0.0029682 -0.0139544 0)
(0.000622197 -0.0171522 0)
(0.000858927 -0.019065 0)
(0.00209375 -0.0197305 0)
(0.00371908 -0.0181305 0)
(0.00122763 -0.0173191 0)
(0.000239045 -0.0199649 0)
(-0.00110796 -0.0207055 0)
(-0.00203306 -0.0193776 0)
(-0.00349997 -0.0134684 0)
(-0.00360115 -0.0109351 0)
(0.000143217 -0.0133424 0)
(-0.00114369 -0.0130399 0)
(-0.0013598 -0.0126477 0)
(-3.38889e-05 -0.0138042 0)
(-0.000986119 -0.0103881 0)
(0.000353488 -0.00952797 0)
(0.000555778 -0.00724932 0)
(-0.000212554 -0.00399467 0)
(-0.00661377 -0.00542709 0)
(-0.00941358 -0.00340957 0)
(-0.00598856 -0.00326164 0)
(-0.00531181 -0.0025932 0)
(-0.00101137 0.00013921 0)
(0.00499147 0.00228521 0)
(0.00810383 0.00196741 0)
(0.00722271 0.00110705 0)
(0.00615647 -0.00181416 0)
(0.00279731 -0.00429446 0)
(0.000857555 -0.00703038 0)
(-0.00114657 -0.00663258 0)
(-0.00103598 -0.00633637 0)
(-0.00148584 -0.00751284 0)
(-0.00190055 -0.00727685 0)
(-0.00246691 -0.00715713 0)
(-0.00177264 -0.00706114 0)
(-0.00155132 -0.00842987 0)
(0.000236495 -0.010334 0)
(0.00407884 -0.0104009 0)
(0.00618688 -0.00986295 0)
(0.00300519 -0.00703495 0)
(0.00159373 -0.00844449 0)
(0.000891294 -0.00695465 0)
(0.00283518 -0.00300673 0)
(0.00298023 -0.00678494 0)
(-0.000108744 -0.00926999 0)
(0.0015845 -0.0110594 0)
(0.000556433 -0.0109947 0)
(-0.00199975 -0.0110682 0)
(-0.00239613 -0.0100699 0)
(-0.00136019 -0.00911482 0)
(-0.001146 -0.0115649 0)
(0.00194658 -0.0102074 0)
(-0.000617494 -0.0335389 0)
(-0.0105225 -0.000836822 0)
(-0.00593919 -0.0171899 0)
(-0.0078108 -0.0102484 0)
(-0.0064741 -0.0146794 0)
(-0.0027941 -0.00989358 0)
(-0.00128506 -0.00983249 0)
(-0.000756527 -0.00875129 0)
(-0.00308312 -0.00696817 0)
(-0.00240607 -0.00653832 0)
(-0.00125817 -0.0083882 0)
(0.00123967 -0.00845218 0)
(0.0029595 -0.00832038 0)
(0.0046117 -0.0106749 0)
(0.00299093 -0.0147157 0)
(-0.000559605 -0.0160028 0)
(-0.000362053 -0.0193299 0)
(-0.000475698 -0.0167553 0)
(0.000715101 -0.0146276 0)
(-0.00105159 -0.0189159 0)
(0.00240534 -0.0231565 0)
(0.00255285 -0.0211422 0)
(0.00133874 -0.0181808 0)
(0.000161981 -0.0228318 0)
(0.000345983 -0.026051 0)
(0.000623278 -0.02373 0)
(0.00145598 -0.0201966 0)
(0.000129553 -0.0191072 0)
(0.000213967 -0.0196163 0)
(-0.00137634 -0.0192854 0)
(-0.00186905 -0.0200785 0)
(-0.00275331 -0.0191085 0)
(-0.00550136 -0.0144054 0)
(-0.00204846 -0.0146231 0)
(-0.00239593 -0.0188066 0)
(-0.00346354 -0.0153948 0)
(-0.000308375 -0.0132279 0)
(9.65489e-06 -0.0120678 0)
(-0.00274557 -0.00992556 0)
(-0.000546091 -0.00879286 0)
(-0.00483014 -0.00792756 0)
(-0.00602622 -0.00915017 0)
(-0.00657562 -0.00714812 0)
(-0.00804901 -0.00733441 0)
(-0.0074516 -0.012518 0)
(-0.00388339 -0.0133215 0)
(0.00158147 -0.012937 0)
(0.00865521 -0.0119851 0)
(0.00879042 -0.010648 0)
(0.00826518 -0.0117693 0)
(0.00475646 -0.0123883 0)
(0.000854775 -0.0104832 0)
(-0.000773705 -0.00898381 0)
(0.00193654 -0.00982151 0)
(0.000643654 -0.0124335 0)
(0.000116429 -0.0137532 0)
(-0.00218144 -0.0144416 0)
(0.00137263 -0.0139122 0)
(-0.00112989 -0.0186941 0)
(0.000217478 -0.0211364 0)
(0.00208386 -0.0182399 0)
(0.00356088 -0.0177677 0)
(0.00312627 -0.0126423 0)
(0.000203886 -0.00813476 0)
(0.00243997 -0.00566238 0)
(0.00125887 -0.00837892 0)
(-8.83324e-05 -0.0134206 0)
(0.000321511 -0.0136404 0)
(7.01864e-05 -0.0146978 0)
(-0.000664634 -0.0143207 0)
(-0.000498038 -0.0128145 0)
(-0.00114239 -0.0115834 0)
(0.000301818 -0.0130303 0)
(0.000623851 -0.0152386 0)
(0.00350892 -0.0151893 0)
(0.00278122 -0.0292802 0)
(-0.00862875 -0.00302825 0)
(-0.00708526 -0.0114112 0)
(-0.00786047 -0.00992813 0)
(-0.00748724 -0.0160177 0)
(-0.0043903 -0.0128001 0)
(-0.00397307 -0.0130516 0)
(-0.00178331 -0.0104993 0)
(-0.000920568 -0.00910619 0)
(-0.00242139 -0.00770486 0)
(-0.00113253 -0.00748329 0)
(0.000198717 -0.00615488 0)
(0.00460533 -0.00329121 0)
(0.00388465 -0.00265989 0)
(0.00467031 -0.00352695 0)
(0.0026621 -0.00561823 0)
(-0.00115103 -0.0122828 0)
(0.00167106 -0.0152695 0)
(0.000107421 -0.0154372 0)
(-0.00182016 -0.0153547 0)
(0.00292951 -0.0168991 0)
(0.00313944 -0.0170634 0)
(-0.00027368 -0.014884 0)
(-0.00386924 -0.0149557 0)
(-0.000857531 -0.0153454 0)
(8.5215e-06 -0.0149631 0)
(0.000718371 -0.0138089 0)
(0.000748421 -0.0120436 0)
(-0.000260913 -0.0131254 0)
(-0.000487935 -0.0153643 0)
(-0.00104736 -0.0161568 0)
(-0.00250749 -0.0159111 0)
(0.00184046 -0.011561 0)
(-0.00323509 -0.0149196 0)
(-0.00499687 -0.0204108 0)
(-0.00467453 -0.0135512 0)
(-0.00429041 -0.0118083 0)
(-0.00278178 -0.0125874 0)
(-0.00429896 -0.00932074 0)
(-0.000852387 -0.00968834 0)
(-0.00205049 -0.0115265 0)
(-0.00490427 -0.0131608 0)
(-0.00392485 -0.0137311 0)
(-0.00703002 -0.0142991 0)
(-0.0051428 -0.0175319 0)
(-0.00212289 -0.0201705 0)
(0.0036659 -0.020308 0)
(0.00705456 -0.0188187 0)
(0.00715062 -0.0180136 0)
(0.00545004 -0.0152172 0)
(0.00124283 -0.0142987 0)
(-0.00089877 -0.0145794 0)
(0.000348259 -0.0094859 0)
(0.000242502 -0.0105314 0)
(0.000746526 -0.0153094 0)
(0.000197864 -0.0159163 0)
(-0.000370389 -0.0105728 0)
(0.00283202 -0.0109523 0)
(-0.000721903 -0.0158741 0)
(-0.000701895 -0.0161773 0)
(0.000807603 -0.0172748 0)
(0.00260358 -0.0162596 0)
(0.00426965 -0.0160403 0)
(0.00286414 -0.0159625 0)
(0.00125423 -0.0154007 0)
(-0.00134683 -0.0165768 0)
(0.00039133 -0.0164766 0)
(0.000675354 -0.016094 0)
(0.00055233 -0.01687 0)
(0.000367645 -0.0158787 0)
(-0.00111194 -0.0166957 0)
(-0.00335924 -0.0168683 0)
(0.000270299 -0.0170987 0)
(0.00127542 -0.0173168 0)
(0.000206416 -0.0163198 0)
(-0.000394325 -0.0390545 0)
(-0.00632056 6.11496e-05 0)
(-0.00712379 -0.0151747 0)
(-0.00834203 -0.00884249 0)
(-0.0074303 -0.0114059 0)
(-0.00739871 -0.00834147 0)
(-0.00553118 -0.0107971 0)
(-0.00232716 -0.00842369 0)
(-0.00366948 -0.0116069 0)
(-0.00368249 -0.013694 0)
(-0.0034474 -0.0141701 0)
(-0.00141733 -0.0123937 0)
(0.00112518 -0.0108032 0)
(0.00197789 -0.0108657 0)
(0.00701075 -0.00973749 0)
(0.00466739 -0.012602 0)
(0.00231892 -0.0134449 0)
(0.000861757 -0.0120057 0)
(0.000427485 -0.0134814 0)
(0.000632797 -0.00945102 0)
(0.00342802 -0.0101027 0)
(0.00182213 -0.0161548 0)
(-0.000921818 -0.0159249 0)
(-0.00251629 -0.0148887 0)
(-0.00155685 -0.0146143 0)
(0.000299304 -0.0150588 0)
(0.00147012 -0.0128387 0)
(0.00172561 -0.0112981 0)
(0.000290734 -0.0105001 0)
(0.000320066 -0.0110613 0)
(-8.3552e-05 -0.0129877 0)
(0.00146375 -0.0096597 0)
(0.000274508 -0.00935799 0)
(-0.00640376 -0.013574 0)
(-0.00616146 -0.0113569 0)
(-0.00364244 -0.00920712 0)
(-0.00855575 -0.00896596 0)
(-0.00333171 -0.0110787 0)
(-0.00206855 -0.010069 0)
(-0.00115597 -0.0101525 0)
(-0.00132586 -0.0159346 0)
(-0.00283632 -0.0170654 0)
(-0.00337896 -0.0179317 0)
(-0.00449425 -0.0196165 0)
(-0.00395444 -0.0209277 0)
(-0.00153642 -0.0222377 0)
(0.00324551 -0.0226336 0)
(0.00590566 -0.0207719 0)
(0.00672712 -0.0187643 0)
(0.00449061 -0.0183707 0)
(-0.000252647 -0.0170794 0)
(0.000502142 -0.0156706 0)
(0.00186637 -0.0148009 0)
(0.000209683 -0.0164757 0)
(0.00287106 -0.0191237 0)
(0.000783378 -0.0218637 0)
(0.00173042 -0.0179267 0)
(-0.0015516 -0.017358 0)
(-0.000338851 -0.0223989 0)
(-0.00157795 -0.0202038 0)
(0.00296579 -0.0188009 0)
(0.00262319 -0.0188056 0)
(0.00353071 -0.0177587 0)
(0.00412353 -0.0177942 0)
(0.00128346 -0.0171539 0)
(-0.00226077 -0.0155392 0)
(0.00179335 -0.0158499 0)
(-0.000566047 -0.0159486 0)
(-0.000293826 -0.0161899 0)
(0.00215188 -0.0177306 0)
(-0.00126126 -0.0212571 0)
(-0.00152966 -0.0163214 0)
(0.00159231 -0.0163677 0)
(0.00204305 -0.0220695 0)
(0.00143862 -0.0203528 0)
(0.00314637 -0.0468645 0)
(-0.0112311 -0.00151268 0)
(-0.009553 -0.014218 0)
(-0.00799875 -0.00888509 0)
(-0.0055163 -0.0134994 0)
(-0.00890685 -0.0109045 0)
(-0.00554767 -0.00843157 0)
(-0.0021893 -0.0113078 0)
(-0.00314623 -0.0189531 0)
(-0.00196114 -0.0190844 0)
(-0.00174667 -0.0183001 0)
(0.00246037 -0.0165523 0)
(-0.000155059 -0.0160784 0)
(0.00542188 -0.0110664 0)
(0.00591614 -0.0117678 0)
(0.00381363 -0.0148126 0)
(0.0046419 -0.0131903 0)
(0.00274674 -0.0140683 0)
(0.00244931 -0.0157243 0)
(0.00380976 -0.00984769 0)
(-0.000972907 -0.00962629 0)
(0.0005273 -0.0140665 0)
(-0.000737948 -0.0138382 0)
(-0.00181395 -0.0133982 0)
(-0.0026672 -0.0128045 0)
(-0.00216299 -0.0129908 0)
(-0.000830789 -0.0125965 0)
(-0.000413914 -0.0116191 0)
(-0.000253855 -0.0112487 0)
(0.000208498 -0.0120451 0)
(0.00154953 -0.0111977 0)
(0.00272632 -0.00833481 0)
(-0.000678978 -0.00821025 0)
(-0.00256634 -0.00682729 0)
(-0.00477676 -0.00195128 0)
(-0.00724337 -0.00404627 0)
(-0.0047797 -0.00544828 0)
(-0.00129027 -0.00727688 0)
(0.00119762 -0.0105197 0)
(-0.00158261 -0.01186 0)
(-0.00208947 -0.0149826 0)
(-0.00313798 -0.0153387 0)
(-0.00393139 -0.0149653 0)
(-0.0050573 -0.0147801 0)
(-0.00264095 -0.0162466 0)
(-7.71637e-05 -0.0179185 0)
(0.00310207 -0.0194267 0)
(0.00618303 -0.0179109 0)
(0.00640528 -0.0163765 0)
(0.0046532 -0.0177204 0)
(0.00272647 -0.0161694 0)
(0.00206454 -0.0143807 0)
(0.000464483 -0.0146324 0)
(-0.000413 -0.0137909 0)
(0.00179266 -0.0158652 0)
(0.00259363 -0.0177598 0)
(0.00313402 -0.0144657 0)
(-0.00206445 -0.0157796 0)
(-0.00243094 -0.019593 0)
(-0.000463902 -0.016346 0)
(0.00124167 -0.0160951 0)
(0.00179135 -0.0187393 0)
(0.000779467 -0.016532 0)
(0.003558 -0.0177033 0)
(0.00172283 -0.0194706 0)
(-0.0016526 -0.0136812 0)
(0.00183224 -0.0135326 0)
(-0.00130195 -0.0174227 0)
(0.00145626 -0.0135783 0)
(0.000628327 -0.0152852 0)
(0.000532515 -0.0204647 0)
(0.00197037 -0.0153278 0)
(-0.00166837 -0.0142526 0)
(-0.000686252 -0.0181983 0)
(-0.000606948 -0.0157599 0)
(0.0019357 -0.0261279 0)
(-0.00700127 -0.00522897 0)
(-0.0093347 -0.0148612 0)
(-0.00725283 -0.0102379 0)
(-0.00306932 -0.0182782 0)
(-0.00137484 -0.0183215 0)
(-0.00123419 -0.0191564 0)
(-0.0026007 -0.024708 0)
(-0.00178059 -0.03 0)
(-0.0036542 -0.0296173 0)
(-0.00356259 -0.0247167 0)
(-0.00342983 -0.0248713 0)
(-0.00126979 -0.0218054 0)
(0.00356623 -0.0160359 0)
(0.00276219 -0.0177538 0)
(0.00465054 -0.0155682 0)
(0.00431787 -0.0157156 0)
(0.00352752 -0.0151022 0)
(0.00280215 -0.0129833 0)
(0.00432082 -0.0131755 0)
(-0.00153784 -0.0124188 0)
(-0.00099154 -0.0129053 0)
(-0.000521692 -0.0153758 0)
(0.000542864 -0.0143978 0)
(0.000132654 -0.0147871 0)
(-0.000593517 -0.0154097 0)
(-0.000516142 -0.014502 0)
(0.000673081 -0.0144514 0)
(0.000252934 -0.0135735 0)
(0.000475868 -0.0127088 0)
(-0.000100589 -0.0119267 0)
(-0.00334382 -0.009983 0)
(-0.00492227 -0.00746447 0)
(-0.00475194 -0.00702399 0)
(-0.0031017 -0.00731144 0)
(-0.00627171 -0.0082986 0)
(-1.98399e-05 -0.00960253 0)
(0.0001197 -0.0150209 0)
(-0.000259695 -0.0164669 0)
(-0.00181713 -0.0156709 0)
(-0.00236542 -0.0151057 0)
(-0.00342155 -0.0149544 0)
(-0.00352982 -0.0166149 0)
(-0.00495347 -0.0163784 0)
(-0.00239148 -0.0167812 0)
(-0.000309745 -0.0197154 0)
(0.00335582 -0.0191323 0)
(0.00587309 -0.0169239 0)
(0.00611221 -0.0151128 0)
(0.0066898 -0.015607 0)
(0.00646183 -0.014374 0)
(0.00309512 -0.0141519 0)
(0.000322049 -0.0144019 0)
(-0.00188222 -0.0139176 0)
(-0.00106816 -0.0154645 0)
(-0.00104155 -0.016294 0)
(0.000399291 -0.0152384 0)
(-0.000426666 -0.0149827 0)
(-0.000299452 -0.0151432 0)
(0.00309461 -0.0154593 0)
(0.000786708 -0.0183689 0)
(0.00232736 -0.0205039 0)
(0.00188265 -0.0166009 0)
(0.00219222 -0.0159039 0)
(0.00228626 -0.0196733 0)
(0.00294693 -0.0133598 0)
(-0.00138282 -0.0143196 0)
(-0.000856344 -0.016208 0)
(0.000746814 -0.0140126 0)
(-0.000759069 -0.01811 0)
(0.000194481 -0.0194964 0)
(0.00263491 -0.0166524 0)
(-0.00183765 -0.0169879 0)
(-0.000182043 -0.0181431 0)
(-0.00123566 -0.0161374 0)
(-0.00172953 -0.0422284 0)
(-0.0055415 -0.00421593 0)
(-0.00448432 -0.022742 0)
(-0.00378722 -0.0131261 0)
(0.000744669 -0.0159922 0)
(0.00180276 -0.0195069 0)
(0.000278389 -0.0235626 0)
(-0.00309016 -0.0239713 0)
(-0.00223855 -0.0265968 0)
(-0.00332053 -0.0264358 0)
(-5.46569e-05 -0.0271527 0)
(-0.00399107 -0.0296166 0)
(-0.00227293 -0.0287705 0)
(-0.00393207 -0.0264014 0)
(0.000650068 -0.0241411 0)
(0.00374246 -0.0214838 0)
(0.00443353 -0.0202364 0)
(0.00298596 -0.0183317 0)
(0.00231352 -0.0141738 0)
(0.00163318 -0.0147139 0)
(0.00106879 -0.017835 0)
(-0.000683804 -0.0181713 0)
(-0.000276142 -0.0171335 0)
(-0.000772567 -0.013827 0)
(-0.00262861 -0.0110532 0)
(-0.00237679 -0.00939785 0)
(-0.00240312 -0.00685707 0)
(-0.00164799 -0.0063348 0)
(-0.00115563 -0.00592008 0)
(-0.000229176 -0.00375604 0)
(-0.000776391 -0.00490608 0)
(-0.000663961 -0.00551725 0)
(-0.00275952 -0.00783481 0)
(-0.00334754 -0.0110767 0)
(-0.00176948 -0.0141593 0)
(-0.00180007 -0.0157071 0)
(0.00228677 -0.0128151 0)
(-0.000210287 -0.0151253 0)
(-0.000531452 -0.0174017 0)
(-0.00167856 -0.0165442 0)
(-0.00212671 -0.0168945 0)
(-0.00220653 -0.0166509 0)
(-0.0024301 -0.0171531 0)
(-0.00259841 -0.0181291 0)
(-0.00175652 -0.0193657 0)
(-0.00118112 -0.0230606 0)
(0.00304191 -0.0237924 0)
(0.00376386 -0.0231472 0)
(0.00293829 -0.0193701 0)
(0.00601279 -0.0161949 0)
(0.00634595 -0.016041 0)
(0.00344262 -0.0156638 0)
(0.00177529 -0.0146979 0)
(-0.000163519 -0.0106107 0)
(-0.00112461 -0.0130608 0)
(-0.00104148 -0.0167571 0)
(-2.19878e-05 -0.0153815 0)
(5.97779e-05 -0.0158733 0)
(0.000872471 -0.0157354 0)
(0.000971909 -0.0150686 0)
(0.00118657 -0.0157728 0)
(0.002673 -0.0167327 0)
(0.00397368 -0.0152327 0)
(0.000217949 -0.0155252 0)
(0.000682563 -0.0159938 0)
(0.00253332 -0.0136311 0)
(-0.00245031 -0.0144396 0)
(0.00124111 -0.0146246 0)
(-0.00112915 -0.0149553 0)
(-0.000251788 -0.0172089 0)
(0.000173668 -0.0164616 0)
(0.00290184 -0.0152744 0)
(-0.000108883 -0.0170513 0)
(-0.00150588 -0.0171579 0)
(-0.0020937 -0.0145195 0)
(0.000546648 -0.0332784 0)
(-0.00468542 -0.00134443 0)
(-0.000769189 -0.0182302 0)
(-0.00208209 -0.00833363 0)
(-0.00105798 -0.0139441 0)
(-0.00324427 -0.0175526 0)
(0.000670169 -0.0188868 0)
(-0.000871606 -0.0193039 0)
(-0.00116831 -0.0210121 0)
(-9.73406e-05 -0.0167789 0)
(-9.94351e-05 -0.0170634 0)
(-0.00318017 -0.022038 0)
(-0.00288181 -0.0212874 0)
(-0.00447867 -0.0211446 0)
(-0.00167794 -0.0205616 0)
(0.000360399 -0.019332 0)
(0.00297382 -0.0188642 0)
(0.00280925 -0.0179511 0)
(0.00345189 -0.0150863 0)
(0.000738229 -0.0145056 0)
(0.00122689 -0.0157246 0)
(-0.00059833 -0.0153774 0)
(-0.00362766 -0.0154689 0)
(-0.00634286 -0.0136931 0)
(-0.00477407 -0.0135557 0)
(-0.00553721 -0.0134791 0)
(-0.00154922 -0.0140551 0)
(-0.00237817 -0.0163573 0)
(-0.0010994 -0.0172571 0)
(-0.00111719 -0.0164986 0)
(0.0010278 -0.0155943 0)
(0.00143726 -0.0149288 0)
(-0.00033808 -0.0160369 0)
(-0.000401196 -0.0171616 0)
(-0.00237313 -0.0185057 0)
(-0.00192875 -0.0125909 0)
(0.002752 -0.0102823 0)
(-0.00112834 -0.0151091 0)
(-0.00117726 -0.0149625 0)
(-0.00281686 -0.0136651 0)
(-0.00246276 -0.0130778 0)
(-0.0019126 -0.0150342 0)
(-0.00149632 -0.0168363 0)
(0.000220494 -0.019807 0)
(0.000563026 -0.0226953 0)
(0.000119485 -0.0233775 0)
(0.00382054 -0.0226955 0)
(0.00340969 -0.0241478 0)
(0.00341859 -0.0183446 0)
(0.00190869 -0.0128502 0)
(0.000887357 -0.0148256 0)
(0.000990954 -0.0143052 0)
(0.00332802 -0.0132953 0)
(0.000331147 -0.0126662 0)
(-0.00194356 -0.0132057 0)
(-0.0013706 -0.0137624 0)
(-0.00128146 -0.013196 0)
(-0.000905179 -0.0130201 0)
(0.000207106 -0.0123688 0)
(0.00240901 -0.0125255 0)
(0.00209457 -0.0131157 0)
(0.00242271 -0.0127094 0)
(0.00513891 -0.0118235 0)
(0.0018537 -0.0126063 0)
(0.00177299 -0.0127682 0)
(0.000472833 -0.0129768 0)
(-0.00052352 -0.0138407 0)
(-0.00136956 -0.0134739 0)
(0.000951777 -0.0140943 0)
(0.000669419 -0.0154539 0)
(0.00217567 -0.0129274 0)
(0.00134828 -0.0129266 0)
(0.000614512 -0.0169589 0)
(0.000177338 -0.0169045 0)
(0.000119195 -0.0113829 0)
(0.00194409 -0.0333953 0)
(-0.00108993 -0.00743071 0)
(-0.00101622 -0.0171678 0)
(0.000515318 -0.00647584 0)
(-0.00256227 -0.0118699 0)
(-0.00122797 -0.0116386 0)
(-0.00127033 -0.0128766 0)
(-0.00167364 -0.0156928 0)
(-0.00147324 -0.0134537 0)
(-0.00101967 -0.00891824 0)
(-0.00524335 -0.0102556 0)
(-0.00149406 -0.0126718 0)
(-0.00161269 -0.0148873 0)
(-0.00207824 -0.016895 0)
(-0.00042158 -0.0177089 0)
(0.000991946 -0.0174274 0)
(0.000581398 -0.0157055 0)
(0.00147257 -0.014927 0)
(0.00243823 -0.0134032 0)
(0.000115565 -0.0123394 0)
(0.000226135 -0.010568 0)
(-0.000973925 -0.0113689 0)
(-0.0013181 -0.0117686 0)
(-0.00146075 -0.0090043 0)
(-0.00174502 -0.0121241 0)
(-0.00222793 -0.0139956 0)
(-0.00103661 -0.0148474 0)
(-0.00108557 -0.0189273 0)
(-0.00127754 -0.0196382 0)
(-0.000261172 -0.0186589 0)
(-0.00118932 -0.0174969 0)
(-0.00200475 -0.0176159 0)
(-0.00349497 -0.0163152 0)
(-0.000217985 -0.0177534 0)
(0.000186349 -0.0197753 0)
(0.00289731 -0.0147512 0)
(-0.00248292 -0.0145416 0)
(-0.00332073 -0.0191901 0)
(-0.00382622 -0.0176495 0)
(-0.00240474 -0.017644 0)
(-0.00197802 -0.0173291 0)
(-0.000666715 -0.0186779 0)
(-0.00051264 -0.0203528 0)
(0.00415989 -0.0200958 0)
(0.00132066 -0.0224342 0)
(0.00107166 -0.0198301 0)
(0.000681021 -0.0178458 0)
(0.0048211 -0.0210121 0)
(0.00546314 -0.0186138 0)
(0.00198594 -0.0166051 0)
(-0.000175411 -0.0138675 0)
(-0.00148657 -0.00998022 0)
(0.00109054 -0.0129559 0)
(-0.00156177 -0.015705 0)
(-0.000797735 -0.0153816 0)
(-0.00169569 -0.0162052 0)
(-0.00147527 -0.0155324 0)
(-0.000502645 -0.0169263 0)
(0.000340362 -0.0163288 0)
(0.00128516 -0.0161155 0)
(0.00151555 -0.0169703 0)
(0.00198839 -0.0110598 0)
(0.00278004 -0.0114284 0)
(0.00248849 -0.0149318 0)
(0.00234324 -0.0141403 0)
(0.00155129 -0.014449 0)
(0.00200583 -0.0159264 0)
(0.000664285 -0.0124894 0)
(0.00131751 -0.0115064 0)
(-0.00069209 -0.0138829 0)
(0.0040888 -0.0133745 0)
(0.000500096 -0.0141538 0)
(-1.08812e-05 -0.0159546 0)
(0.00091547 -0.0167992 0)
(0.00158761 -0.0116766 0)
(0.00356649 -0.0354484 0)
(-0.00286928 -0.00346128 0)
(-0.00186065 -0.0169488 0)
(-0.000159825 -0.00732657 0)
(-0.00252394 -0.0139676 0)
(-0.000827554 -0.0113621 0)
(-0.00399817 -0.0111928 0)
(-0.00291736 -0.00988262 0)
(-0.00330717 -0.0103192 0)
(-0.00171723 -0.0108217 0)
(-0.00130825 -0.0091167 0)
(-0.00169974 -0.0114539 0)
(-0.0017329 -0.0177252 0)
(-0.000646296 -0.0161084 0)
(0.000720132 -0.014398 0)
(0.00144145 -0.014694 0)
(0.00173563 -0.0136829 0)
(0.000884437 -0.012122 0)
(0.000159167 -0.0116659 0)
(-0.000466374 -0.0131771 0)
(-0.000690108 -0.0137235 0)
(-4.6331e-05 -0.0152221 0)
(0.0010388 -0.0161272 0)
(0.00103314 -0.0162758 0)
(-0.00124233 -0.016162 0)
(-0.000892362 -0.0158918 0)
(-0.00302479 -0.0166021 0)
(-0.00320823 -0.018445 0)
(-0.00344769 -0.0170707 0)
(0.0017883 -0.0173937 0)
(0.00113848 -0.0186962 0)
(0.000743021 -0.0196393 0)
(0.000657276 -0.0168126 0)
(0.000159076 -0.0165069 0)
(-0.00155853 -0.0191761 0)
(0.00246562 -0.0183376 0)
(-0.00400007 -0.0193914 0)
(-0.0029052 -0.0202994 0)
(-0.00195877 -0.0226469 0)
(-0.000269092 -0.0243208 0)
(-0.00212337 -0.0248786 0)
(0.00216335 -0.024632 0)
(0.000751913 -0.0221297 0)
(0.00100228 -0.0212551 0)
(0.00130278 -0.0241738 0)
(0.00288288 -0.0218638 0)
(-0.00045465 -0.0167294 0)
(0.00133451 -0.0175162 0)
(0.00331457 -0.0201071 0)
(0.00238756 -0.0182611 0)
(0.00184268 -0.01568 0)
(-0.000281226 -0.00946562 0)
(-0.00290463 -0.0109242 0)
(-0.00202823 -0.0146746 0)
(-0.00331094 -0.0130029 0)
(-0.00350064 -0.0133457 0)
(0.00121578 -0.0131298 0)
(0.000823903 -0.0155619 0)
(0.00054954 -0.0162326 0)
(0.000482601 -0.0160557 0)
(0.00271852 -0.0168349 0)
(0.00271418 -0.0141812 0)
(0.00120578 -0.0142112 0)
(0.00155511 -0.0153715 0)
(0.00124357 -0.0158157 0)
(0.000364734 -0.0158912 0)
(0.00110697 -0.0156136 0)
(0.00222911 -0.0147368 0)
(-0.000566135 -0.0154578 0)
(0.000300925 -0.0133731 0)
(-0.000897353 -0.0131158 0)
(0.00217964 -0.0172151 0)
(0.00119301 -0.0176354 0)
(0.00203014 -0.017717 0)
(0.00294826 -0.0160215 0)
(-0.00238809 -0.0297243 0)
(-0.0013672 -0.0032619 0)
(-0.00136563 -0.0175588 0)
(-0.00131488 -0.00828471 0)
(-0.000673675 -0.013351 0)
(-0.000947126 -0.0120682 0)
(-0.0019047 -0.0124861 0)
(-0.00251641 -0.0123759 0)
(-0.00192392 -0.00990275 0)
(-0.000589547 -0.00617426 0)
(-0.000687283 -0.0107632 0)
(-0.00464712 -0.0137887 0)
(-0.00145242 -0.0128845 0)
(-0.00253857 -0.0113786 0)
(-0.00062065 -0.0115156 0)
(-0.00180667 -0.0113326 0)
(0.00210865 -0.0106265 0)
(0.00192128 -0.011914 0)
(0.00101317 -0.0126205 0)
(0.000771435 -0.0133068 0)
(0.000654719 -0.0142999 0)
(0.00166622 -0.0161254 0)
(0.00052236 -0.016281 0)
(-1.12535e-05 -0.015466 0)
(-0.000838077 -0.0154076 0)
(-0.000724521 -0.0156222 0)
(-0.00236744 -0.0160197 0)
(-0.00128396 -0.0184293 0)
(-0.000501748 -0.014806 0)
(-0.00185024 -0.0143064 0)
(0.00175639 -0.0188872 0)
(0.000727487 -0.0183352 0)
(0.0025908 -0.0163571 0)
(-0.00123996 -0.018148 0)
(-0.0010003 -0.0153374 0)
(0.000393272 -0.0156567 0)
(-0.00199568 -0.0219889 0)
(-0.0035603 -0.0212462 0)
(-0.000221198 -0.0215462 0)
(0.0021674 -0.0241055 0)
(0.000940681 -0.0207383 0)
(0.00122972 -0.0196929 0)
(0.00217139 -0.0227554 0)
(-0.00152631 -0.0218887 0)
(-0.000724108 -0.0213654 0)
(0.00143307 -0.0196448 0)
(0.00226869 -0.0168634 0)
(-0.00169922 -0.0145393 0)
(0.000104296 -0.014133 0)
(0.000868623 -0.0142411 0)
(0.000499691 -0.0137827 0)
(0.000168916 -0.0117017 0)
(-0.00372719 -0.0117807 0)
(-0.00123106 -0.0135614 0)
(-0.00287388 -0.0143379 0)
(-0.00266971 -0.010088 0)
(0.00111153 -0.0103673 0)
(0.000919224 -0.0164349 0)
(0.00102443 -0.0168526 0)
(0.000283785 -0.0169789 0)
(0.00133955 -0.0175213 0)
(0.00142039 -0.0166648 0)
(0.00290347 -0.0164238 0)
(0.00262764 -0.0174546 0)
(0.00246996 -0.0166828 0)
(0.00172911 -0.015454 0)
(0.0010462 -0.0152734 0)
(0.00169372 -0.0156619 0)
(0.00108193 -0.0154772 0)
(0.00245724 -0.0154811 0)
(-0.00108673 -0.0135011 0)
(-0.000901016 -0.0156383 0)
(-0.00192028 -0.0186747 0)
(0.00265915 -0.0181441 0)
(0.0012737 -0.0194199 0)
(-0.00483608 -0.0453353 0)
(-0.00326302 -0.00245032 0)
(-0.00406383 -0.0216784 0)
(-0.00152345 -0.0107422 0)
(-0.000648561 -0.0153379 0)
(-0.000633786 -0.0146078 0)
(-0.00109826 -0.0154661 0)
(-0.00305879 -0.013771 0)
(0.000434467 -0.0118626 0)
(0.000179088 -0.0125408 0)
(-0.00377151 -0.01489 0)
(-0.00224039 -0.0123763 0)
(-0.00176047 -0.0147178 0)
(-0.00141166 -0.014883 0)
(-0.00154932 -0.0154886 0)
(-0.00021242 -0.0155853 0)
(0.000499144 -0.0137011 0)
(0.00137521 -0.0169339 0)
(0.000914576 -0.0168991 0)
(0.00037388 -0.017043 0)
(-0.0010024 -0.0153262 0)
(0.00198927 -0.014917 0)
(0.000562907 -0.0152918 0)
(6.3957e-05 -0.0154749 0)
(-0.000905514 -0.0163241 0)
(0.00021479 -0.0158552 0)
(-0.000894167 -0.0158688 0)
(0.000369802 -0.0153601 0)
(0.00223414 -0.0156821 0)
(-0.000548457 -0.0136191 0)
(0.000946179 -0.0153353 0)
(0.000114245 -0.0189609 0)
(-0.000389599 -0.0176649 0)
(3.37232e-06 -0.0177555 0)
(0.00185432 -0.0145468 0)
(-0.00164826 -0.0154568 0)
(-0.000709731 -0.0198181 0)
(-0.000718365 -0.0172848 0)
(0.000616875 -0.014567 0)
(0.000730496 -0.018411 0)
(0.00148292 -0.0195052 0)
(-0.00172482 -0.0156837 0)
(-0.00137345 -0.0154455 0)
(-0.0010822 -0.0148004 0)
(-0.000609093 -0.0137246 0)
(6.10787e-05 -0.0120116 0)
(-0.00032403 -0.0111849 0)
(-0.000319651 -0.0103194 0)
(-0.00119101 -0.00932089 0)
(-0.000266575 -0.0103131 0)
(-0.000734559 -0.0121476 0)
(-0.000526393 -0.012311 0)
(-0.00238329 -0.0127757 0)
(-0.00167393 -0.0134154 0)
(-0.00116808 -0.0126722 0)
(0.000810834 -0.00774787 0)
(-0.000916867 -0.00844692 0)
(0.000461903 -0.0143857 0)
(0.00121922 -0.01484 0)
(0.00113067 -0.0148684 0)
(0.000944152 -0.0156244 0)
(0.000855322 -0.0147936 0)
(0.00319958 -0.0149515 0)
(0.00163269 -0.0167812 0)
(0.00116542 -0.015379 0)
(0.00012877 -0.0159771 0)
(0.000755931 -0.0142873 0)
(0.00192308 -0.0142074 0)
(0.00194593 -0.0154486 0)
(0.00239418 -0.0159799 0)
(0.00303713 -0.0158254 0)
(-0.000912824 -0.0179492 0)
(-0.000816202 -0.0153858 0)
(0.00230714 -0.0159602 0)
(0.00173341 -0.0209286 0)
(-0.00089599 -0.0197476 0)
(-0.00237721 -0.00100386 0)
(-0.00504157 -0.0206666 0)
(-0.00113653 -0.0103305 0)
(5.9884e-05 -0.0153364 0)
(0.00249855 -0.0156131 0)
(0.000610773 -0.0181799 0)
(0.000151115 -0.0131111 0)
(5.24219e-05 -0.00928076 0)
(-0.0013744 -0.0141254 0)
(-0.00303692 -0.0181351 0)
(0.00065169 -0.0170852 0)
(-0.00205067 -0.0180758 0)
(0.00101424 -0.0179042 0)
(-0.00164174 -0.0187701 0)
(0.000490281 -0.018449 0)
(-0.00176345 -0.0181084 0)
(-0.00123679 -0.0181738 0)
(-0.000150276 -0.0177762 0)
(0.00156894 -0.0183643 0)
(0.000735571 -0.0148974 0)
(0.000182938 -0.0148031 0)
(-0.00013265 -0.0185127 0)
(-3.66235e-05 -0.0171435 0)
(-0.000215899 -0.0166422 0)
(-0.000491472 -0.0161443 0)
(0.000314898 -0.015737 0)
(0.00104703 -0.015088 0)
(0.00145364 -0.0133984 0)
(0.0023305 -0.0129691 0)
(-0.000284291 -0.0144961 0)
(0.000838703 -0.015715 0)
(-0.00108551 -0.0149407 0)
(0.000357083 -0.0156483 0)
(4.16657e-06 -0.0154215 0)
(-0.00108286 -0.0158014 0)
(0.000261504 -0.0170433 0)
(0.0011815 -0.0137142 0)
(0.00291791 -0.0113752 0)
(-0.00207983 -0.0143465 0)
(-0.000426993 -0.0157688 0)
(-0.00190889 -0.0155762 0)
(-0.00250758 -0.0155407 0)
(-0.00257113 -0.0144434 0)