/*--------------------------------*- C++ -*----------------------------------*\
  =========                 |
  \\      /  F ield         | OpenFOAM: The Open Source CFD Toolbox
   \\    /   O peration     | Website:  https://openfoam.org
    \\  /    A nd           | Version:  12
     \\/     M anipulation  |
\*---------------------------------------------------------------------------*/
FoamFile
{
    format      ascii;
    class       IOPosition;
    location    "0.7/lagrangian/cloud";
    object      positions;
}
// * * * * * * * * * * * * * * * * * * * * * * * * * * * * * * * * * * * * * //

2124
(
(0.252469 0.373765 0.358474 0.0152916) 0 1 2
(0.245483 0.322666 0.0545926 0.377259) 1 3 1
(0.0488249 0.475588 0.199659 0.275928) 3 7 2
(0.272121 0.36394 0.266508 0.097432) 2 4 1
(0.392151 0.303925 0.240134 0.0637907) 3 6 1
(0.481683 0.141583 0.259158 0.117576) 4 7379 2
(0.21033 0.214543 0.180292 0.394835) 5 11 1
(0.250115 0.106591 0.268351 0.374943) 6 13 1
(0.408009 0.127857 0.168139 0.295996) 7 15 1
(0.427341 0.177871 0.108459 0.28633) 8 17 1
(0.366265 0.316868 0.241649 0.0752189) 9 19 2
(0.218018 0.390991 0.262077 0.128915) 10 21 2
(0.349225 0.325388 0.0805269 0.244861) 10 7385 1
(0.235604 0.382198 0.170139 0.212059) 11 20 1
(0.315827 0.342087 0.240964 0.101123) 11 22 1
(0.41247 0.0667094 0.293765 0.227056) 12 7387 2
(0.232739 0.293732 0.0898984 0.383631) 13 27 1
(0.307768 0.346116 0.341625 0.00449107) 14 29 2
(0.263721 0.36814 0.270041 0.0980988) 15 31 2
(0.241338 0.379331 0.25746 0.121871) 16 33 2
(0.254568 0.372716 0.328227 0.044489) 17 35 2
(0.361092 0.319454 0.123057 0.196397) 18 37 2
(0.466129 0.266936 0.0504064 0.216529) 19 39 2
(0.267905 0.129997 0.23605 0.366048) 20 38 2
(0.404919 0.29754 0.258725 0.0388149) 20 40 1
(0.50928 0.145474 0.24536 0.0998862) 21 7396 2
(0.434523 0.282738 0.00772297 0.275015) 22 7397 1
(0.402017 0.298992 0.02606 0.272932) 23 7398 1
(0.434773 0.209097 0.282614 0.0735162) 25 7400 2
(0.15421 0.237821 0.185074 0.422895) 27 52 2
(0.248051 0.127083 0.248891 0.375975) 27 55 1
(0.446189 0.182594 0.0943114 0.276905) 28 57 1
(0.607426 0.141714 0.0545732 0.196287) 29 59 1
(0.408846 0.295577 0.0216545 0.273922) 30 7405 1
(0.354952 0.322524 0.306101 0.0164231) 31 62 1
(0.389522 0.0637445 0.305239 0.241494) 32 7407 2
(0.451818 0.274091 0.196351 0.0777402) 34 66 1
(0.0749411 0.0602285 0.462529 0.402301) 34 68 2
(0.380035 0.0378871 0.272095 0.309982) 35 71 1
(0.519683 0.150539 0.240158 0.0896194) 37 7412 2
(0.137412 0.279247 0.431294 0.152048) 112 75 1
(0.423113 0.0087477 0.279696 0.288443) 38 77 1
(0.416684 0.147613 0.144045 0.291658) 39 79 1
(0.437488 0.281256 0.0120783 0.269178) 40 7415 1
(0.295625 0.352187 0.0079382 0.344249) 41 83 2
(0.245791 0.0788219 0.377105 0.298283) 41 82 2
(0.395784 0.200825 0.101283 0.302108) 42 85 1
(0.395526 0.302237 0.116026 0.186211) 43 87 2
(0.0315837 0.109293 0.374915 0.484208) 44 86 2
(0.455292 0.272354 0.195719 0.0766354) 45 7420 1
(0.392437 0.303782 0.141369 0.162412) 46 7421 1
(0.380987 0.309506 0.0595116 0.249995) 47 7422 1
(0.553291 0.0486705 0.223354 0.174684) 48 7423 2
(0.151226 0.424387 0.160221 0.264166) 49 99 2
(0.0463283 0.111714 0.365122 0.476836) 50 98 2
(0.267122 0.343183 0.0232564 0.366439) 75 150 1
(0.307293 0.346354 0.225771 0.120583) 76 152 2
(0.385222 0.307389 0.119276 0.188112) 77 154 2
(0.607538 0.196231 0.0733103 0.122921) 78 156 2
(0.188368 0.405816 0.136362 0.269454) 83 163 1
(0.404332 0.278926 0.0189075 0.297834) 84 165 2
(0.312531 0.343735 0.19007 0.153665) 85 167 1
(0.369461 0.315269 0.0344112 0.280858) 86 169 1
(0.0728928 0.463554 0.101613 0.361941) 87 25 2
(0.0174971 0.491251 0.0938212 0.39743) 161 172 2
(0.010705 0.494648 0.0957102 0.398937) 160 318 1
(0.165391 0.417305 0.244691 0.172614) 87 174 2
(0.249416 0.130328 0.244964 0.375292) 87 174 1
(0.316496 0.341752 0.0314075 0.310345) 88 176 2
(0.245493 0.288814 0.0884399 0.377254) 88 176 1
(0.0915569 0.125864 0.454222 0.328358) 88 175 2
(0.444816 0.147707 0.129885 0.277592) 89 178 1
(0.408469 0.090116 0.295765 0.205649) 93 37 1
(0.00447071 0.497765 0.235623 0.262142) 95 187 1
(0.199384 0.400308 0.0548368 0.345471) 96 189 1
(0.148785 0.425607 0.0266866 0.398921) 97 191 1
(0.0724461 0.463777 0.0358985 0.427878) 98 47 2
(0.0235191 0.48824 0.35929 0.12895) 100 51 2
(0.20736 0.39632 0.240853 0.155467) 98 196 2
(0.0169668 0.121754 0.369762 0.491517) 99 195 2
(0.198936 0.157658 0.242874 0.400532) 99 198 1
(0.42261 0.288695 0.0176295 0.271066) 103 203 1
(0.0780847 0.460958 0.359941 0.101016) 104 207 1
(0.0508767 0.471298 0.00326381 0.474562) 31 63 1
(0.181453 0.236089 0.409273 0.173184) 178 206 1
(0.25506 0.252595 0.37247 0.119875) 179 208 1
(0.21247 0.393765 0.185663 0.208102) 105 210 2
(0.223494 0.183082 0.205171 0.388253) 105 210 1
(0.216893 0.391554 0.0549351 0.336619) 106 212 2
(0.223918 0.343235 0.0448061 0.388041) 106 212 1
(0.0888495 0.120507 0.335068 0.455575) 107 211 2
(0.258752 0.0707127 0.299911 0.370624) 107 214 1
(0.317861 0.341069 0.250179 0.0908907) 111 73 2
(0.441129 0.279435 0.198341 0.0810948) 113 77 2
(0.441913 0.279043 0.000896954 0.278146) 114 79 2
(0.400101 0.29995 0.0787091 0.221241) 115 81 2
(0.689228 0.155386 0.010319 0.145067) 116 83 2
(0.680026 0.159987 0.113626 0.0463612) 117 85 2
(0.597231 0.201384 0.14886 0.0525245) 118 87 2
(0.456357 0.271821 0.0117129 0.260108) 119 89 2
(0.294029 0.352985 0.141535 0.21145) 120 237 1
(0.427722 0.166085 0.286139 0.120054) 191 232 1
(0.36083 0.219776 0.319585 0.0998092) 192 234 1
(0.165034 0.417483 0.144341 0.273142) 152 300 1
(0.162466 0.22859 0.418767 0.190177) 153 156 1
(0.219792 0.390104 0.224338 0.165766) 80 160 2
(0.161793 0.22565 0.193454 0.419104) 153 305 1
(0.259807 0.370097 0.219846 0.150251) 154 307 2
(0.343043 0.0334746 0.295004 0.328478) 154 307 1
(0.464813 0.203328 0.0642654 0.267594) 155 309 1
(0.51866 0.24067 0.193419 0.0472507) 156 311 2
(0.441899 0.279051 0.104745 0.174305) 158 315 2
(0.228829 0.350315 0.385586 0.0352702) 235 319 1
(0.0209804 0.48951 0.0972661 0.392244) 236 321 2
(0.147398 0.0148532 0.411448 0.426301) 162 320 2
(0.179585 0.410208 0.241288 0.16892) 164 324 1
(0.142418 0.428791 0.102441 0.32635) 165 326 1
(0.0990992 0.45045 0.382986 0.0674645) 165 328 1
(0.0659231 0.467038 0.397906 0.0691325) 166 330 1
(0.215141 0.39243 0.35591 0.0365193) 168 186 2
(0.219429 0.390286 0.201142 0.189144) 169 188 2
(0.0065138 0.453126 0.0436176 0.496743) 96 192 1
(0.118915 0.185111 0.440543 0.255431) 244 337 1
(0.137463 0.294256 0.137012 0.431268) 170 339 1
(0.233075 0.383463 0.2574 0.126063) 171 341 2
(0.230568 0.033842 0.350874 0.384716) 171 341 1
(0.266472 0.366764 0.199975 0.166789) 172 343 2
(0.218565 0.0188264 0.371891 0.390717) 172 343 1
(0.201593 0.399203 0.32302 0.0761832) 173 345 2
(0.137078 0.0496593 0.381802 0.431461) 174 344 2
(0.265468 0.0145307 0.352735 0.367266) 174 347 1
(0.235435 0.055993 0.32629 0.382282) 175 349 1
(0.227002 0.386499 0.0271989 0.3593) 177 353 2
(0.18223 0.136167 0.272718 0.408885) 178 355 1
(0.141463 0.14633 0.282939 0.429269) 179 357 1
(0.131568 0.030555 0.403661 0.434216) 181 358 2
(0.0474938 0.0998917 0.376361 0.476253) 182 360 2
(0.11044 0.0760672 0.44478 0.368713) 182 362 2
(0.192402 0.403799 0.0743153 0.329484) 184 218 2
(0.220481 0.359008 0.38976 0.0307516) 185 220 1
(0.239463 0.234685 0.380269 0.145583) 186 222 1
(0.0495474 0.475226 0.174392 0.300835) 188 226 2
(0.0676341 0.466183 0.175149 0.291034) 187 373 2
(0.0815117 0.111476 0.459244 0.347768) 187 372 2
(0.0463084 0.476846 0.158507 0.318339) 189 374 1
(0.359186 0.0131154 0.320407 0.307292) 189 228 1
(0.36433 0.165276 0.317835 0.152559) 190 230 1
(0.17434 0.0352207 0.41283 0.377609) 225 299 1
(0.490023 0.00338449 0.254989 0.251604) 226 449 2
(0.484839 0.132268 0.125312 0.25758) 227 452 1
(0.273446 0.363277 0.110058 0.253219) 230 455 1
(0.35426 0.32287 0.232074 0.0907966) 231 311 2
(0.214478 0.308088 0.392761 0.0846732) 232 313 1
(0.765616 0.0738192 0.117192 0.043373) 234 317 1
(0.126762 0.436619 0.34295 0.093669) 235 468 2
(0.217195 0.391402 0.268239 0.123163) 236 470 2
(0.363169 0.133359 0.318415 0.185057) 237 323 1
(0.347631 0.173881 0.326184 0.152303) 238 325 1
(0.300874 0.262274 0.349563 0.0872889) 239 327 1
(0.287368 0.351561 0.356316 0.00475442) 240 329 1
(0.269962 0.365019 0.0774567 0.287562) 241 331 2
(0.189362 0.280422 0.405319 0.124897) 242 333 1
(0.00330049 0.492073 0.00627725 0.49835) 242 482 1
(0.231597 0.384202 0.114593 0.269608) 243 484 2
(0.160459 0.233071 0.186699 0.41977) 243 484 1
(0.192562 0.403719 0.273451 0.130268) 244 486 2
(0.205337 0.397331 0.177008 0.220324) 245 488 2
(0.152724 0.0174957 0.406142 0.423638) 246 487 2
(0.0753007 0.0639833 0.46235 0.398366) 246 489 2
(0.192877 0.0178838 0.385677 0.403561) 247 492 1
(0.248814 0.057542 0.318051 0.375593) 248 494 1
(0.251813 0.141672 0.232422 0.374093) 249 496 1
(0.217264 0.119435 0.271933 0.391368) 250 498 1
(0.220466 0.0571546 0.332613 0.389767) 251 500 1
(0.0854679 0.457266 0.273933 0.183333) 253 501 1
(0.379982 0.310009 0.120992 0.189017) 254 503 1
(0.389625 0.305187 0.197535 0.107652) 255 359 2
(0.302421 0.348789 0.133376 0.215413) 256 510 2
(0.275417 0.362291 0.062142 0.300149) 257 512 2
(0.20508 0.0332588 0.364201 0.39746) 258 511 2
(0.0399412 0.113478 0.480029 0.366552) 258 513 2
(0.135533 0.0412922 0.432234 0.390941) 259 515 2
(0.0867735 0.0456992 0.410914 0.456613) 261 517 2
(0.128475 0.435762 0.239051 0.196711) 262 522 2
(0.400771 0.299615 0.0281661 0.271449) 263 521 1
(0.195811 0.402095 0.384068 0.0180269) 263 523 1
(0.364314 0.317843 0.131343 0.1865) 264 377 2
(0.286366 0.356817 0.0164058 0.340411) 265 525 1
(0.097093 0.197017 0.254437 0.451453) 300 15079 1
(0.22854 0.38573 0.354098 0.0316323) 300 596 1
(0.233585 0.383207 0.221242 0.161965) 301 598 1
(0.0650547 0.467473 0.335611 0.131862) 302 600 1
(0.0514022 0.474299 0.405097 0.0692016) 303 602 1
(0.134575 0.409212 0.432713 0.0235001) 305 458 1
(0.103248 0.0177937 0.448376 0.430582) 306 460 1
(0.162308 0.418846 0.243532 0.175314) 308 464 2
(0.478939 0.260531 0.0995634 0.160967) 310 614 1
(0.165572 0.01155 0.405664 0.417214) 310 617 1
(0.22542 0.191197 0.196092 0.38729) 311 619 1
(0.223464 0.388268 0.385892 0.00237593) 312 621 2
(0.217537 0.391231 0.201209 0.190022) 313 623 2
(0.216996 0.391502 0.00679267 0.384709) 314 625 2
(0.179613 0.00726089 0.402933 0.410194) 314 625 1
(0.170045 0.248666 0.166311 0.414978) 315 627 1
(0.143186 0.428407 0.313582 0.114825) 316 629 2
(0.154444 0.0115332 0.411245 0.422778) 317 628 2
(0.233063 0.0188041 0.364664 0.383468) 317 631 1
(0.608777 0.195612 0.130036 0.0655754) 319 486 2
(0.316056 0.341972 0.27385 0.0681219) 320 637 2
(0.251966 0.198104 0.175913 0.374017) 321 639 1
(0.0775472 0.0691462 0.39208 0.461226) 323 640 2
(0.215333 0.392333 0.0822214 0.310112) 324 645 2
(0.34296 0.32852 0.0434365 0.285084) 325 647 2
(0.152752 0.0473146 0.376309 0.423624) 326 646 2
(0.141622 0.0600033 0.429189 0.369186) 326 648 2
(0.0959016 0.041401 0.452049 0.410648) 327 650 2
(0.303551 0.127233 0.348225 0.220992) 328 504 1
(0.330074 0.212243 0.334963 0.12272) 329 506 1
(0.283032 0.358484 0.0254034 0.333081) 330 508 2
(0.275295 0.0433088 0.319044 0.362352) 331 656 2
(0.0476695 0.218752 0.476165 0.257413) 331 658 2
(0.281779 0.0119055 0.347205 0.359111) 332 661 1
(0.249673 0.0714928 0.303671 0.375163) 333 663 1
(0.213097 0.256342 0.393451 0.13711) 410 667 1
(0.0170196 0.49149 0.0294031 0.462087) 412 817 1
(0.0300465 0.0835228 0.484977 0.401454) 337 670 2
(0.351019 0.0953449 0.32449 0.229145) 338 524 1
(0.423016 0.248273 0.288492 0.0402186) 339 526 1
(0.417192 0.291404 0.203461 0.0879433) 340 528 2
(0.285964 0.357018 0.347405 0.00961342) 341 530 2
(0.305562 0.347219 0.152682 0.194536) 375 597 2
(0.254899 0.372551 0.0295936 0.342957) 376 599 2
(0.200598 0.238937 0.399701 0.160764) 377 601 1
(0.196488 0.0361464 0.401756 0.365609) 378 603 1
(0.0736252 0.463187 0.406307 0.0568805) 379 753 1
(0.185537 0.407232 0.391893 0.0153384) 381 609 2
(0.187392 0.406304 0.286929 0.119374) 382 611 2
(0.175556 0.412222 0.180635 0.231587) 383 613 2
(0.322519 0.0251398 0.33874 0.313601) 384 615 1
(0.153335 0.423333 0.387901 0.0354314) 460 766 2
(0.118844 0.114796 0.325782 0.440578) 385 766 1
(0.136016 0.381816 0.0501756 0.431992) 386 768 1
(0.161064 0.419468 0.229754 0.189714) 387 770 2
(0.190134 0.404933 0.0193592 0.385574) 388 772 2
(0.133014 0.0333514 0.433493 0.400142) 388 771 2
(0.181461 0.117914 0.291356 0.409269) 389 774 1
(0.179671 0.239908 0.170256 0.410164) 390 776 1
(0.175099 0.3042 0.108251 0.41245) 391 778 1
(0.682767 0.158616 0.095481 0.0631353) 392 779 1
(0.353119 0.0927439 0.32344 0.230696) 393 633 1
(0.38877 0.159543 0.305615 0.146072) 394 635 1
(0.630823 0.142526 0.184588 0.0420623) 395 637 1
(0.446858 0.128188 0.148383 0.276571) 396 788 1
(0.331023 0.00166568 0.332823 0.334488) 398 789 2
(0.240148 0.379926 0.0237839 0.356142) 399 794 2
(0.243017 0.378492 0.016476 0.362016) 400 796 2
(0.243628 0.378186 0.0107494 0.367436) 401 798 2
(0.145895 0.0471836 0.379869 0.427053) 402 797 2
(0.0889235 0.0410758 0.414462 0.455538) 403 799 2
(0.0268658 0.110777 0.37579 0.486567) 404 801 2
(0.170981 0.41451 0.345102 0.0694076) 404 803 1
(0.440812 0.279594 0.264198 0.0153955) 405 805 1
(0.486911 0.00153005 0.256545 0.255015) 406 659 1
(0.254078 0.257066 0.115895 0.372961) 407 810 1
(0.249707 0.33015 0.0449968 0.375147) 408 812 1
(0.245574 0.304564 0.0726495 0.377213) 409 814 1
(0.213575 0.0685762 0.393212 0.324636) 485 816 1
(0.239392 0.020958 0.380304 0.359346) 411 817 2
(0.260462 0.369769 0.0577726 0.311997) 487 966 1
(0.207544 0.396228 0.369956 0.0262725) 488 822 2
(0.1798 0.4101 0.367869 0.0422306) 414 824 2
(0.0879579 0.456021 0.193962 0.262059) 416 825 1
(0.24426 0.37787 0.210114 0.167756) 450 746 2
(0.222253 0.388873 0.260752 0.128122) 451 748 2
(0.229896 0.385052 0.256352 0.1287) 452 750 2
(0.220009 0.389995 0.274453 0.115543) 453 752 2
(0.237683 0.381159 0.312127 0.0690312) 454 754 2
(0.217251 0.391375 0.385011 0.00636404) 455 756 2
(0.070272 0.464864 0.384615 0.0802487) 455 904 1
(0.203801 0.0837452 0.3981 0.314355) 456 758 1
(0.222226 0.281807 0.388887 0.107079) 457 760 1
(0.286805 0.356598 0.0655085 0.291089) 458 762 2
(0.220769 0.389616 0.378695 0.0109207) 533 911 2
(0.193366 0.139054 0.264263 0.403317) 458 911 1
(0.159549 0.420225 0.281 0.139226) 459 913 2
(0.124278 0.437861 0.118009 0.319852) 460 915 2
(0.145799 0.00959259 0.417508 0.4271) 461 914 2
(0.158217 0.420891 0.0896817 0.33121) 462 919 2
(0.165913 0.417044 0.342614 0.07443) 463 921 2
(0.16971 0.333494 0.0816513 0.415145) 464 923 1
(0.161976 0.220291 0.198721 0.419012) 465 925 1
(0.279382 0.127773 0.232536 0.360309) 466 927 1
(0.358581 0.100029 0.320709 0.22068) 467 780 1
(0.286242 0.0875083 0.356879 0.269371) 468 782 1
(0.176598 0.411701 0.370221 0.04148) 469 932 1
(0.310167 0.344916 0.289365 0.0555509) 471 788 2
(0.334052 0.332974 0.0379945 0.29498) 472 790 2
(0.255261 0.37237 0.0568324 0.315537) 473 941 2
(0.198643 0.0488316 0.351847 0.400678) 474 940 2
(0.00811393 0.127191 0.495943 0.368752) 474 942 2
(0.118714 0.0511675 0.389475 0.440643) 476 944 2
(0.204058 0.397971 0.142551 0.25542) 477 949 2
(0.13838 0.43081 0.41127 0.0195399) 478 951 2
(0.462983 0.268509 0.242028 0.0264807) 479 952 1
(0.33457 0.137402 0.332715 0.195313) 480 806 1
(0.329202 0.133769 0.335399 0.20163) 481 808 1
(0.0838956 0.458052 0.337201 0.120851) 482 959 2
(0.231336 0.384332 0.0134186 0.370913) 483 961 2
(0.277573 0.0193784 0.341835 0.361214) 483 961 1
(0.241096 0.199238 0.180214 0.379452) 484 963 1
(0.0150551 0.0318156 0.460657 0.492472) 486 964 2
(0.251966 0.374017 0.359343 0.0146738) 561 1115 1
(0.204917 0.397542 0.289512 0.108029) 563 971 2
(0.0777479 0.142046 0.461126 0.31908) 488 970 2
(0.279513 0.30327 0.360244 0.0569735) 490 826 1
(0.225788 0.31259 0.387106 0.0745161) 526 897 1
(0.242927 0.260115 0.378537 0.118422) 527 899 1
(0.254635 0.322778 0.372682 0.049905) 528 901 1
(0.175628 0.412186 0.0316354 0.380551) 529 903 2
(0.251275 0.374362 0.350439 0.0239237) 530 905 2
(0.219279 0.0858232 0.39036 0.304537) 530 905 1
(0.198172 0.400914 0.0153352 0.385579) 531 907 2
(0.21849 0.390755 0.268375 0.12238) 532 909 2
(0.116551 0.155867 0.285858 0.441725) 531 1056 1
(0.160172 0.265085 0.154829 0.419914) 532 1058 1
(0.100038 0.449981 0.244583 0.205398) 533 1060 2
(0.041823 0.0903792 0.479089 0.388709) 533 1059 2
(0.0866841 0.0714179 0.38524 0.456658) 535 1061 2
(0.190617 0.399333 0.00535833 0.404692) 536 1066 1
(0.0452255 0.070302 0.407085 0.477387) 538 1067 2
(0.193212 0.403394 0.331648 0.0717464) 539 1072 2
(0.194071 0.290069 0.112896 0.402965) 540 1074 1
(0.400997 0.299501 0.194626 0.104875) 542 929 2
(0.294478 0.352761 0.226269 0.126492) 543 931 2
(0.276154 0.361923 0.281054 0.0808695) 544 933 2
(0.238765 0.380617 0.289611 0.0910065) 545 935 2
(0.176242 0.411879 0.187264 0.224616) 546 937 2
(0.138423 0.140806 0.430789 0.289983) 546 1085 2
(0.377195 0.0442212 0.311402 0.267181) 547 1087 2
(0.453762 0.00230831 0.270811 0.273119) 548 1090 1
(0.0420303 0.232184 0.478985 0.246801) 549 1091 2
(0.219059 0.168124 0.222347 0.39047) 551 1096 1
(0.0831465 0.0569954 0.401431 0.458427) 553 1097 2
(0.208555 0.395723 0.0898107 0.305912) 554 1102 2
(0.171007 0.414496 0.239259 0.175237) 555 1104 2
(0.173698 0.413151 0.322021 0.09113) 556 1106 2
(0.144982 0.427509 0.38781 0.0396989) 557 1108 2
(0.2006 0.3997 0.299163 0.100537) 558 1110 2
(0.23063 0.384685 0.143043 0.241642) 559 1112 2
(0.186017 0.0412201 0.365771 0.406992) 560 1111 2
(0.0309187 0.0913655 0.484541 0.393175) 560 1113 2
(0.0735835 0.463208 0.0122192 0.450989) 563 1120 2
(0.0838811 0.458059 0.0517173 0.406342) 564 1122 2
(0.285974 0.308076 0.357013 0.0489369) 564 973 1
(0.248068 0.375966 0.0303913 0.345575) 565 975 2
(0.319753 0.340124 0.124478 0.215646) 600 1193 2
(0.275008 0.197617 0.362496 0.164879) 601 1046 1
(0.307511 0.127732 0.346244 0.218513) 602 1048 1
(0.306773 0.171195 0.346614 0.175419) 603 1050 1
(0.374499 0.278636 0.312751 0.0341144) 604 1052 1
(0.184996 0.407502 0.128737 0.278765) 605 1054 2
(0.390506 0.304747 0.27711 0.0276373) 605 1202 1
(0.627237 0.0635233 0.186382 0.122858) 606 1056 1
(0.0909824 0.454509 0.0382191 0.41629) 607 1207 2
(0.0721262 0.133152 0.463937 0.330785) 607 1206 2
(0.489427 0.255286 0.13479 0.120496) 609 1211 2
(0.38518 0.00312662 0.30741 0.304284) 610 1212 2
(0.247019 0.37649 0.375072 0.00141789) 612 1217 2
(0.176262 0.0157391 0.39613 0.411869) 614 1218 2
(0.176064 0.411968 0.368725 0.0432432) 615 1223 2
(0.335868 0.257567 0.332066 0.0744987) 616 1076 1
(0.2992 0.220483 0.3504 0.129917) 617 1078 1
(0.296481 0.213098 0.35176 0.138662) 618 1080 1
(0.274614 0.279222 0.362693 0.0834707) 619 1082 1
(0.289104 0.355448 0.0210041 0.334444) 620 1084 2
(0.327854 0.336073 0.189033 0.14704) 621 1086 2
(0.417708 0.291146 0.215889 0.0752566) 622 1088 2
(0.378177 0.310911 0.1915 0.119411) 623 1090 2
(0.334391 0.332804 0.00688581 0.325919) 624 1092 2
(0.325208 0.337396 0.0228814 0.314514) 625 1094 2
(0.234854 0.382573 0.286648 0.0959254) 626 1245 2
(0.226505 0.122641 0.264106 0.386748) 627 1247 1
(0.184421 0.407789 0.0149353 0.392854) 629 1251 2
(0.19112 0.40444 0.236677 0.167763) 630 1253 2
(0.0882054 0.0704654 0.455897 0.385432) 706 1255 1
(0.0923598 0.45382 0.235824 0.217996) 633 1259 2
(0.156794 0.3616 0.0600035 0.421603) 634 1261 1
(0.163459 0.25517 0.163101 0.41827) 635 1263 1
(0.144618 0.131395 0.296296 0.427691) 636 1265 1
(0.162718 0.418641 0.013801 0.40484) 638 1269 2
(0.410643 0.294679 0.260828 0.0338501) 639 1271 2
(0.238129 0.380935 0.35398 0.0269549) 640 1124 2
(0.0537569 0.473122 0.0932074 0.379914) 641 1272 1
(0.283703 0.0121288 0.346019 0.358148) 675 15084 1
(0.364568 0.0744379 0.243278 0.317716) 675 1342 1
(0.344867 0.32384 0.00372603 0.327566) 676 1344 1
(0.292594 0.353703 0.216658 0.137045) 677 1346 2
(0.34938 0.0765774 0.32531 0.248732) 678 1199 1
(0.190183 0.404909 0.338882 0.0660262) 679 1349 1
(0.186174 0.406913 0.298474 0.108439) 680 1351 1
(0.158434 0.420783 0.272116 0.148667) 682 1353 1
(0.360879 0.31956 0.259766 0.0597947) 683 1209 2
(0.362584 0.318708 0.197306 0.121402) 684 1211 2
(0.623471 0.188264 0.147878 0.0403862) 685 1361 1
(0.287939 0.0326855 0.356031 0.323345) 687 1365 2
(0.305809 0.347095 0.200625 0.146471) 689 1370 2
(0.246035 0.0169414 0.376983 0.360041) 690 1371 2
(0.159417 0.420291 0.190144 0.230147) 692 1376 2
(0.0815552 0.313536 0.145687 0.459222) 693 1378 1
(0.287795 0.356103 0.214313 0.141789) 694 1231 2
(0.246562 0.376719 0.0467684 0.32995) 695 1379 1
(0.12406 0.43797 0.3329 0.10507) 695 1381 1
(0.321381 0.132567 0.33931 0.206742) 696 1235 1
(0.294151 0.340011 0.352925 0.0129142) 697 1237 1
(0.238128 0.380936 0.166828 0.214108) 698 1239 2
(0.212333 0.393834 0.309734 0.0840993) 699 1241 2
(0.213203 0.393398 0.342407 0.0509918) 700 1243 2
(0.305054 0.10576 0.347473 0.241713) 701 1393 2
(0.291185 0.354408 0.00644177 0.347966) 703 1398 2
(0.234868 0.382566 0.354995 0.0275716) 704 1400 2
(0.233174 0.176758 0.206655 0.383413) 705 1402 1
(0.219109 0.390446 0.345125 0.0453204) 707 1406 2
(0.058491 0.105025 0.470755 0.365729) 708 1407 2
(0.284922 0.131994 0.225545 0.357539) 710 1412 1
(0.0811241 0.459438 0.0176915 0.441746) 712 1416 2
(0.208336 0.204132 0.1917 0.395832) 713 1418 1
(0.375216 0.172756 0.139636 0.312392) 714 1420 1
(0.293536 0.353232 0.0642666 0.288966) 715 1273 2
(0.246932 0.376534 0.249501 0.127033) 716 1275 2
(0.244748 0.377626 0.362751 0.0148753) 717 1277 2
(0.253457 0.373272 0.184659 0.188612) 750 1491 2
(0.277386 0.0562974 0.30501 0.361307) 750 1491 1
(0.272895 0.363553 0.0884756 0.275077) 751 1493 2
(0.2783 0.169177 0.191673 0.36085) 751 1493 1
(0.320114 0.339943 0.079359 0.260584) 752 1495 2
(0.0592751 0.11461 0.355753 0.470362) 753 1494 2
(0.337014 0.296176 0.331493 0.0353175) 753 1348 1
(0.265974 0.367013 0.1433 0.223713) 754 1350 2
(0.129777 0.435111 0.0708884 0.364223) 756 1500 1
(0.228153 0.385923 0.336205 0.0497182) 758 1358 2
(0.00599118 0.497004 0.357688 0.139316) 758 1506 1
(0.289431 0.0576908 0.355284 0.297594) 759 1360 1
(0.539673 0.121603 0.230164 0.108561) 761 1512 2
(0.574254 0.00582463 0.207049 0.212873) 762 1515 1
(0.348034 0.149982 0.325983 0.176001) 763 1516 2
(0.211372 0.222534 0.17178 0.394314) 765 1518 2
(0.289783 0.0773481 0.27776 0.355109) 766 1520 2
(0.213392 0.129264 0.26404 0.393304) 767 1525 1
(0.192994 0.1317 0.271803 0.403503) 769 1529 1
(0.0505185 0.0724146 0.402326 0.474741) 771 1530 2
(0.13501 0.282236 0.150259 0.432495) 772 1535 1
(0.136684 0.0146402 0.431658 0.417018) 772 1386 1
(0.197754 0.259086 0.401123 0.142037) 773 1388 1
(0.166669 0.416666 0.179393 0.237272) 774 1390 2
(0.0043662 0.497817 0.0915783 0.406239) 775 1538 1
(0.207697 0.159885 0.396151 0.236266) 775 1392 1
(0.278379 0.36081 0.09246 0.26835) 776 1394 2
(0.330561 0.334719 0.222146 0.112574) 777 1396 2
(0.440295 0.142789 0.279852 0.137064) 778 1546 2
(0.36749 0.0655747 0.25068 0.316255) 780 1548 2
(0.410015 0.075847 0.219145 0.294993) 781 1550 2
(0.771612 0.114194 0.000300737 0.113893) 782 1406 2
(0.375118 0.312441 0.138333 0.174108) 784 1556 1
(0.487636 0.109039 0.256182 0.147143) 785 1412 1
(0.762967 0.0321112 0.086405 0.118516) 787 1565 1
(0.457114 0.0535735 0.217869 0.271443) 789 1569 1
(0.260143 0.226572 0.143357 0.369928) 790 1571 1
(0.731399 0.11402 0.134301 0.0202807) 791 1424 1
(0.143499 0.428251 0.0112225 0.417028) 792 1575 2
(0.132742 0.0524226 0.433629 0.381206) 792 1574 2
(0.140617 0.379943 0.0497488 0.429691) 825 1640 1
(0.166711 0.298019 0.118626 0.416644) 826 1642 1
(0.177281 0.119021 0.292339 0.41136) 827 1644 1
(0.296529 0.312967 0.0387687 0.351735) 828 1646 1
(0.226254 0.386873 0.208884 0.177989) 829 1648 2
(0.343912 0.0797952 0.248249 0.328044) 829 1648 1
(0.351798 0.324101 0.264316 0.0597847) 830 1650 2
(0.202547 0.398727 0.25334 0.145387) 831 1652 2
(0.230504 0.384748 0.367822 0.0169267) 832 1654 2
(0.188668 0.405666 0.0895536 0.316112) 831 1503 2
(0.145806 0.427097 0.159366 0.267731) 832 1505 2
(0.0921225 0.453939 0.221827 0.232112) 758 1507 2
(0.164018 0.417991 0.0594853 0.358506) 834 1655 1
(0.108825 0.445588 0.0515893 0.393998) 835 1657 1
(0.0691395 0.46543 0.0852623 0.380168) 836 1659 1
(0.253963 0.373019 0.0384676 0.334551) 837 1661 1
(0.25154 0.37423 0.0366292 0.337601) 838 1663 1
(0.121272 0.439364 0.0497878 0.389576) 839 1665 1
(0.0948945 0.452553 0.0729023 0.37965) 840 1667 1
(0.333414 0.221234 0.333293 0.112059) 841 1523 1
(0.0834898 0.0790106 0.458255 0.379245) 842 1673 2
(0.217099 0.39145 0.318643 0.0728074) 844 1678 2
(0.211828 0.16713 0.226956 0.394086) 845 1680 1
(0.161179 0.0440309 0.41941 0.375379) 846 1681 2
(0.0981984 0.100981 0.450901 0.34992) 847 1683 2
(0.228521 0.0755897 0.38574 0.31015) 848 1537 1
(0.259603 0.180528 0.370199 0.189671) 849 1539 1
(0.267718 0.323811 0.366141 0.0423302) 850 1541 1
(0.265507 0.367246 0.113115 0.254132) 851 1543 2
(0.259936 0.370032 0.262571 0.10746) 852 1545 2
(0.141502 0.429249 0.0751845 0.354065) 853 1693 1
(0.0800192 0.45999 0.339247 0.120744) 853 1695 1
(0.210349 0.394826 0.317792 0.0770337) 854 1697 1
(0.372228 0.313886 0.254396 0.0594896) 856 1553 2
(0.248649 0.375675 0.132875 0.2428) 858 1557 2
(0.17358 0.136834 0.41321 0.276376) 859 1559 1
(0.275496 0.160894 0.362252 0.201358) 860 1561 1
(0.222864 0.111093 0.388568 0.277475) 863 1567 1
(0.503537 0.132722 0.248232 0.11551) 864 1569 1
(0.0264282 0.486786 0.0872686 0.399517) 940 1866 1
(0.158415 0.420792 0.394592 0.0262007) 865 1720 2
(0.23029 0.384855 0.00572764 0.379127) 866 1722 2
(0.113163 0.0457914 0.443419 0.397627) 866 1721 2
(0.0652709 0.467365 0.0204748 0.44689) 901 1791 2
(0.224046 0.276222 0.387977 0.111755) 977 1793 1
(0.0740871 0.14272 0.320237 0.462956) 904 1794 2
(0.275405 0.18375 0.178548 0.362298) 905 1796 2
(0.07667 0.413289 0.461665 0.048376) 981 1801 1
(0.07976 0.0239745 0.46012 0.436145) 982 1803 1
(0.190781 0.0271932 0.40461 0.377417) 908 1804 2
(0.10517 0.447415 0.266409 0.181006) 909 1658 2
(0.080409 0.459796 0.372357 0.0874388) 909 1806 1
(0.264445 0.145042 0.367778 0.222736) 910 1660 1
(0.295172 0.350636 0.352414 0.0017776) 911 1662 1
(0.306801 0.346599 0.211992 0.134607) 912 1664 2
(0.227156 0.386422 0.361397 0.0250252) 913 1666 2
(0.0348406 0.173157 0.48258 0.309423) 913 1814 2
(0.0573702 0.471315 0.0136479 0.457667) 914 1668 2
(0.0317984 0.484101 0.114158 0.369943) 915 1816 1
(0.197632 0.306469 0.401184 0.0947152) 915 1670 1
(0.261829 0.369085 0.312312 0.0567739) 916 1672 2
(0.00745539 0.496272 0.128944 0.367328) 917 1820 1
(0.0655327 0.0847857 0.467234 0.382448) 917 1822 2
(0.229557 0.385221 0.12596 0.259262) 919 1827 2
(0.299539 0.350231 0.30402 0.0462102) 920 1829 2
(0.300809 0.333106 0.0164892 0.349595) 921 1831 1
(0.47409 0.210327 0.0526278 0.262955) 922 1833 1
(0.319334 0.132299 0.340333 0.208035) 923 1686 1
(0.276496 0.193052 0.361752 0.1687) 924 1688 1
(0.282654 0.273727 0.358673 0.0849467) 925 1690 1
(0.28572 0.35714 0.00965013 0.34749) 926 1692 2
(0.273798 0.363101 0.116936 0.246165) 927 1694 2
(0.259228 0.370386 0.240786 0.1296) 928 1696 2
(0.250744 0.374628 0.333718 0.04091) 929 1698 2
(0.226414 0.386793 0.299653 0.08714) 930 1700 2
(0.217466 0.391267 0.143663 0.247604) 931 1702 2
(0.14961 0.425195 0.170364 0.254831) 859 1708 2
(0.256658 0.371671 0.341487 0.0301845) 935 1710 2
(0.258614 0.370693 0.298389 0.072304) 937 1714 2
(0.215993 0.0036159 0.388388 0.392004) 863 1713 2
(0.169887 0.415057 0.116354 0.298703) 939 1864 1
(0.240416 0.199289 0.379792 0.180503) 1014 1867 1
(0.00810831 0.495946 0.186457 0.309489) 1015 1869 2
(0.0931319 0.0948903 0.358544 0.453434) 940 1869 1
(0.186409 0.31136 0.0954353 0.406795) 941 1871 1
(0.246099 0.376951 0.224251 0.152699) 975 1938 2
(0.397236 0.301382 0.0427116 0.25867) 976 1940 2
(0.545302 0.227349 0.220204 0.00714463) 978 1943 1
(0.407408 0.013242 0.296296 0.283054) 979 1797 1
(0.157261 0.42137 0.227259 0.19411) 981 1950 2
(0.129448 0.435276 0.265358 0.169918) 982 1952 2
(0.242844 0.378578 0.121441 0.257137) 983 1954 2
(0.0933577 0.0894053 0.363916 0.453321) 984 1953 2
(0.00976846 0.118926 0.37619 0.495116) 985 1955 2
(0.143801 0.0394682 0.388632 0.4281) 986 1957 2
(0.14235 0.0149709 0.413854 0.428825) 987 1959 2
(0.248229 0.375886 0.16604 0.209845) 1063 1964 2
(0.229217 0.385392 0.13219 0.253202) 988 1961 1
(0.135256 0.432372 0.171552 0.26082) 989 1963 1
(0.397066 0.301467 0.267585 0.0338821) 989 1965 1
(0.334051 0.332975 0.139899 0.193075) 990 1819 2
(0.0431225 0.478439 0.311993 0.166446) 990 1967 1
(0.264018 0.0789031 0.367991 0.289088) 991 1821 1
(0.273218 0.0542346 0.309156 0.363391) 993 1971 2
(0.0801166 0.12208 0.337861 0.459942) 994 1973 2
(0.180318 0.0992968 0.409841 0.310544) 994 1975 2
(0.510675 0.0398241 0.244663 0.204839) 995 1977 2
(0.516375 0.0241185 0.241813 0.217694) 996 1979 2
(0.602613 0.0951017 0.198694 0.103592) 997 1833 1
(0.291758 0.219636 0.354121 0.134485) 998 1835 1
(0.266402 0.183457 0.366799 0.183342) 999 1837 1
(0.24621 0.124457 0.376895 0.252438) 1000 1839 1
(0.225899 0.0353613 0.351689 0.38705) 1001 1990 1
(0.0737656 0.172345 0.463117 0.290772) 1002 1991 2
(0.14936 0.154216 0.271104 0.42532) 1004 1993 2
(0.237705 0.026863 0.381147 0.354284) 1004 1847 1
(0.242415 0.142411 0.378793 0.236381) 1005 1849 1
(0.190555 0.221056 0.404722 0.183666) 1006 1851 1
(0.119684 0.124009 0.440158 0.316149) 1007 1853 1
(0.0813117 0.459344 0.357338 0.102006) 1009 1857 2
(0.197494 0.401253 0.275936 0.125317) 936 1861 2
(0.1448 0.4276 0.368543 0.0590571) 1012 2011 1
(0.384119 0.00747956 0.307941 0.300461) 1013 1865 1
(0.0621519 0.357167 0.111757 0.468924) 1012 2012 1
(0.126753 0.303275 0.436624 0.133349) 1088 2014 1
(0.413132 0.261903 0.293434 0.0315314) 1089 2016 1
(0.462606 0.189116 0.268697 0.0795811) 1090 2018 1
(0.390411 0.304794 0.0847486 0.220046) 1050 2087 2
(0.409317 0.295341 0.151927 0.143415) 1051 1940 2
(0.321838 0.339081 0.237664 0.101417) 1052 1942 2
(0.278685 0.360657 0.106001 0.254656) 1053 1944 2
(0.128567 0.155283 0.435717 0.280433) 1054 1946 1
(0.227715 0.386142 0.357023 0.029119) 1055 2097 2
(0.249246 0.375377 0.30107 0.0743077) 1056 2099 2