/*--------------------------------*- C++ -*----------------------------------*\
  =========                 |
  \\      /  F ield         | OpenFOAM: The Open Source CFD Toolbox
   \\    /   O peration     | Website:  https://openfoam.org
    \\  /    A nd           | Version:  12
     \\/     M anipulation  |
\*---------------------------------------------------------------------------*/
FoamFile
{
    format      ascii;
    class       vectorField;
    location    "0.7/lagrangian/cloud";
    object      U;
}
// * * * * * * * * * * * * * * * * * * * * * * * * * * * * * * * * * * * * * //


2124
(
(4.72541e-05 -0.0263718 0)
(-4.71437e-05 -0.0260603 0)
(0.000748298 -0.0208479 0)
(0.00083515 -0.0296731 0)
(0.000262596 -0.0252424 0)
(0.000391217 -0.0264333 0)
(0.000642605 -0.0276512 0)
(0.000659115 -0.0271804 0)
(0.000849748 -0.027614 0)
(0.00062641 -0.0278567 0)
(0.000343494 -0.027663 0)
(0.00213904 -0.0246132 0)
(0.000184509 -0.0284782 0)
(-0.0001898 -0.0285463 0)
(0.00087444 -0.0270319 0)
(0.00039766 -0.0297058 0)
(-0.000183631 -0.0296396 0)
(-0.000410783 -0.0288689 0)
(-7.44119e-05 -0.029176 0)
(-4.82404e-05 -0.0291192 0)
(0.000213682 -0.0292219 0)
(0.000378618 -0.0292588 0)
(0.000759983 -0.0287079 0)
(-0.000714745 -0.0291322 0)
(0.00080448 -0.0260395 0)
(-0.000633498 -0.0295701 0)
(-1.39936e-05 -0.0309989 0)
(0.000139289 -0.0309634 0)
(1.83628e-05 -0.0298038 0)
(0.000932599 -0.0263139 0)
(0.00184618 -0.02641 0)
(0.000535344 -0.0268452 0)
(0.00055832 -0.0285299 0)
(-0.000851425 -0.032312 0)
(0.000221692 -0.0298435 0)
(0.000705304 -0.0313464 0)
(0.000233064 -0.0315609 0)
(-0.000198023 -0.0295542 0)
(-0.000197362 -0.02803 0)
(0.000101421 -0.0319125 0)
(0.000222595 -0.0318342 0)
(0.000902941 -0.0321842 0)
(0.000619361 -0.0304003 0)
(5.30195e-05 -0.0328358 0)
(0.000648348 -0.0308337 0)
(9.26425e-05 -0.0307879 0)
(0.000893165 -0.0318274 0)
(0.000109456 -0.0346674 0)
(0.000133473 -0.0354125 0)
(-0.000481232 -0.0351405 0)
(-9.60462e-05 -0.0362476 0)
(0.000505326 -0.0367946 0)
(0.000893309 -0.0363569 0)
(6.07163e-05 -0.0391403 0)
(0.00038048 -0.0390436 0)
(-0.000382443 -0.0322279 0)
(-0.000932632 -0.0329479 0)
(0.00011981 -0.0319649 0)
(0.00111075 -0.0304594 0)
(0.000488848 -0.0264492 0)
(0.00153996 -0.0283245 0)
(0.000890091 -0.0275284 0)
(0.00126299 -0.0275874 0)
(-0.00100647 -0.0222319 0)
(0.00113862 -0.0273714 0)
(-2.82812e-05 -0.0300908 0)
(3.61908e-05 -0.0264296 0)
(-0.000191756 -0.0259504 0)
(8.90976e-05 -0.0272044 0)
(-0.000377705 -0.0275708 0)
(-0.000408318 -0.0280172 0)
(-0.000326246 -0.0286433 0)
(0.000491229 -0.0290645 0)
(0.000714342 -0.0283749 0)
(0.000199203 -0.0249389 0)
(-0.000781601 -0.026853 0)
(-0.000713466 -0.0243598 0)
(0.0017601 -0.0268443 0)
(-0.00127919 -0.0308364 0)
(0.00015425 -0.0309354 0)
(0.000784414 -0.0302673 0)
(-0.000397518 -0.0289306 0)
(-0.000167717 -0.0296101 0)
(-0.000169553 -0.0280085 0)
(-0.00101479 -0.0340622 0)
(0.0007766 -0.0325564 0)
(0.00112235 -0.0294241 0)
(0.00130708 -0.0296167 0)
(0.000817505 -0.0312345 0)
(0.000689905 -0.0311505 0)
(0.000538955 -0.032218 0)
(0.00138307 -0.0332218 0)
(-0.000169666 -0.0304108 0)
(-0.000229567 -0.0318978 0)
(0.000588183 -0.0334074 0)
(-0.000489278 -0.0328474 0)
(-0.000504479 -0.0339486 0)
(-0.000182363 -0.0351745 0)
(-0.000943621 -0.0359953 0)
(-0.000448251 -0.0364008 0)
(0.00104776 -0.0374573 0)
(-0.000500146 -0.0422749 0)
(0.00100987 -0.042197 0)
(0.000584919 -0.0344797 0)
(8.96251e-05 -0.0304778 0)
(-0.000216288 -0.0335602 0)
(0.000981336 -0.0349698 0)
(0.000504669 -0.0357318 0)
(5.09536e-05 -0.0356329 0)
(0.000222625 -0.0376671 0)
(0.00099289 -0.0387383 0)
(0.00015989 -0.0385977 0)
(1.99845e-05 -0.0336164 0)
(0.00109402 -0.0326788 0)
(-0.000145573 -0.0330158 0)
(0.00326127 -0.0297608 0)
(0.000189206 -0.031852 0)
(-0.000632329 -0.0336644 0)
(-0.000638588 -0.0339168 0)
(-0.000105945 -0.0329004 0)
(-0.000149855 -0.0330974 0)
(-0.0010309 -0.027275 0)
(-0.000640555 -0.039529 0)
(-0.00135006 -0.0402304 0)
(-0.000509793 -0.0383962 0)
(-0.000617493 -0.0380476 0)
(-0.000853693 -0.0379825 0)
(-0.000353081 -0.0381338 0)
(-0.00117542 -0.0399723 0)
(0.000654612 -0.0401662 0)
(0.000406766 -0.0396819 0)
(-0.000522216 -0.0434982 0)
(2.81394e-06 -0.0446165 0)
(0.000229848 -0.039196 0)
(0.000650069 -0.0384771 0)
(0.00173975 -0.0390578 0)
(0.000844283 -0.0397628 0)
(0.000440757 -0.0398968 0)
(-0.000202566 -0.0390959 0)
(-0.000626832 -0.0383084 0)
(-0.000557699 -0.0386443 0)
(0.00218753 -0.0361763 0)
(0.000277232 -0.0420639 0)
(0.000495666 -0.0414468 0)
(0.000862538 -0.0380402 0)
(0.000258125 -0.0383773 0)
(0.00104236 -0.0402339 0)
(-0.000706183 -0.0412032 0)
(-0.000483994 -0.0383737 0)
(-0.000191857 -0.0397459 0)
(0.000449431 -0.0368867 0)
(0.000291821 -0.0391776 0)
(-4.38762e-05 -0.0395839 0)
(-0.00101432 -0.0350107 0)
(-0.000795474 -0.035572 0)
(-0.000246861 -0.0352445 0)
(-8.46334e-06 -0.0366052 0)
(0.000196817 -0.0361872 0)
(-0.000117267 -0.0371636 0)
(0.000264415 -0.0374263 0)
(0.000229966 -0.0374251 0)
(0.000321423 -0.0357277 0)
(0.000406872 -0.0404552 0)
(0.000362608 -0.0400085 0)
(0.000583543 -0.0411273 0)
(9.57024e-05 -0.0410623 0)
(-8.12357e-05 -0.0432306 0)
(0.000132942 -0.0443049 0)
(0.00102907 -0.0430292 0)
(0.000638462 -0.0420152 0)
(0.000186012 -0.0420551 0)
(0.000158152 -0.0428104 0)
(-0.000485594 -0.0449306 0)
(-0.000309481 -0.0440522 0)
(0.000299978 -0.0446225 0)
(2.71195e-05 -0.0430035 0)
(-5.6805e-05 -0.0416608 0)
(-0.000135232 -0.0424624 0)
(-0.000131798 -0.0432726 0)
(7.51722e-06 -0.0432084 0)
(-0.000120121 -0.0430672 0)
(0.000700074 -0.0439782 0)
(0.000563504 -0.0432236 0)
(-0.000429905 -0.0432028 0)
(2.58084e-05 -0.042279 0)
(-3.76578e-05 -0.040297 0)
(0.000701152 -0.040783 0)
(0.000124707 -0.0422231 0)
(-0.000413531 -0.0394615 0)
(-2.07296e-05 -0.0393712 0)
(0.000141616 -0.0397717 0)
(-0.000139116 -0.0413458 0)
(-0.000119667 -0.0421571 0)
(-0.000285029 -0.0396561 0)
(-0.000276218 -0.0420146 0)
(-0.000155047 -0.0396111 0)
(-0.000678611 -0.0379052 0)
(0.00361033 -0.0351918 0)
(9.55708e-06 -0.0383357 0)
(-0.000150586 -0.0410068 0)
(-6.82054e-05 -0.0428034 0)
(0.000964175 -0.0421527 0)
(0.00137366 -0.0416036 0)
(2.01082e-06 -0.042165 0)
(-0.000402985 -0.0434211 0)
(-6.08925e-05 -0.0431996 0)
(0.00108945 -0.0434614 0)
(0.000424271 -0.0437885 0)
(0.000276395 -0.0437965 0)
(0.000184974 -0.0436693 0)
(0.000444933 -0.0411842 0)
(0.000360156 -0.0424946 0)
(0.0004185 -0.0422254 0)
(-3.08272e-05 -0.042323 0)
(7.57175e-06 -0.0428795 0)
(8.88612e-05 -0.0419216 0)
(-0.000835568 -0.0402891 0)
(-0.000439512 -0.0417379 0)
(-6.66009e-05 -0.0421011 0)
(-0.000499036 -0.0439496 0)
(0.000155438 -0.0429947 0)
(0.00032838 -0.0426863 0)
(0.00021928 -0.0440437 0)
(-0.000225168 -0.0450154 0)
(0.00174592 -0.0408697 0)
(0.00175568 -0.0397661 0)
(-0.000734397 -0.0386612 0)
(0.000377328 -0.0394306 0)
(2.37372e-05 -0.0414967 0)
(-0.000771901 -0.041661 0)
(0.000475751 -0.0405104 0)
(0.000497714 -0.0405932 0)
(0.000107699 -0.0412978 0)
(-0.000196801 -0.0421975 0)
(-0.000431414 -0.0427552 0)
(8.63139e-05 -0.0402589 0)
(8.49268e-05 -0.0401739 0)
(-0.000136565 -0.0401233 0)
(-0.000492152 -0.0414967 0)
(0.0027301 -0.0414289 0)
(0.00113163 -0.0428356 0)
(0.000177983 -0.0432393 0)
(-0.000646221 -0.0450261 0)
(-0.000317333 -0.0453728 0)
(5.27749e-05 -0.0444552 0)
(7.23965e-05 -0.0430633 0)
(-0.000643787 -0.0445069 0)
(-0.000379853 -0.0449853 0)
(0.00166219 -0.0431746 0)
(0.000479349 -0.0435905 0)
(-0.000418759 -0.044277 0)
(-0.000486649 -0.0435719 0)
(0.000821587 -0.0437006 0)
(-0.000365401 -0.0429043 0)
(-0.000271555 -0.0435682 0)
(-0.000128207 -0.0439533 0)
(-0.000572902 -0.0432458 0)
(-0.000217891 -0.0428776 0)
(0.000175007 -0.0427572 0)
(2.98276e-05 -0.0417615 0)
(0.000377378 -0.0417702 0)
(0.000676323 -0.0426411 0)
(0.000682399 -0.0436392 0)
(0.000205417 -0.0438044 0)
(-6.92833e-05 -0.0447161 0)
(-0.000790678 -0.0455083 0)
(-0.000113053 -0.0461728 0)
(-0.000365305 -0.0460694 0)
(0.00013701 -0.0458575 0)
(-0.000479704 -0.0467216 0)
(0.000102072 -0.044895 0)
(0.000970559 -0.0425964 0)
(-2.86978e-05 -0.0408672 0)
(0.000219468 -0.0422541 0)
(6.70081e-05 -0.0423889 0)
(0.000165335 -0.0419935 0)
(0.000397897 -0.0422818 0)
(0.00010766 -0.0423229 0)
(-0.000490972 -0.0417018 0)
(0.000231221 -0.040121 0)
(0.00105648 -0.0409417 0)
(0.000280714 -0.0400687 0)
(0.00114064 -0.0463833 0)
(0.00107466 -0.0459451 0)
(0.000384968 -0.0489512 0)
(0.000868912 -0.0465231 0)
(0.000734352 -0.0472458 0)
(-0.000410474 -0.0489032 0)
(-5.88761e-05 -0.0481165 0)
(7.59971e-05 -0.0474175 0)
(0.000223183 -0.0470289 0)
(-0.000100687 -0.0457704 0)
(-3.08617e-06 -0.045846 0)
(0.000789632 -0.0442553 0)
(4.02513e-05 -0.0451523 0)
(0.000531281 -0.044679 0)
(-0.000277382 -0.0437246 0)
(-0.00168511 -0.0446153 0)
(-0.00040163 -0.0443479 0)
(-0.000178165 -0.0456834 0)
(2.31283e-05 -0.0436758 0)
(5.77126e-05 -0.0440973 0)
(-0.000155031 -0.044272 0)
(0.00153108 -0.042114 0)
(0.000643142 -0.0423886 0)
(0.0002371 -0.0437715 0)
(-0.00109352 -0.0432498 0)
(0.000375943 -0.0415172 0)
(0.000493344 -0.0424802 0)
(-0.000368737 -0.0435356 0)
(-0.000895497 -0.0451476 0)
(0.000574024 -0.0452362 0)
(0.000660898 -0.0456843 0)
(0.000511529 -0.0463775 0)
(0.000225772 -0.0447602 0)
(-0.000237338 -0.0456815 0)
(-0.000236765 -0.0450565 0)
(8.26345e-05 -0.0445297 0)
(-5.90114e-05 -0.0452379 0)
(-0.00141355 -0.0436978 0)
(-0.00101318 -0.0441564 0)
(0.0010296 -0.0437026 0)
(0.000613631 -0.044006 0)
(0.000824267 -0.0474983 0)
(0.000203299 -0.0478839 0)
(-6.72777e-05 -0.0491085 0)
(0.000459029 -0.0501765 0)
(0.000672403 -0.0517176 0)
(-0.0012912 -0.0499269 0)
(0.00051522 -0.0482248 0)
(1.53576e-05 -0.0476227 0)
(0.000179582 -0.0471441 0)
(-0.000615541 -0.0450755 0)
(-5.40275e-06 -0.0449888 0)
(0.000117688 -0.0446797 0)
(-9.72016e-05 -0.0442762 0)
(-0.000371751 -0.0445884 0)
(-0.000291 -0.0450266 0)
(-0.000419705 -0.0449862 0)
(0.000266242 -0.0464086 0)
(-0.00054773 -0.0470636 0)
(0.000525316 -0.0450992 0)
(0.000125073 -0.0437664 0)
(-2.45835e-05 -0.0444839 0)
(-0.000225226 -0.0436604 0)
(-0.000343198 -0.0430471 0)
(3.46569e-05 -0.0427055 0)
(0.000318707 -0.0428548 0)
(9.15183e-05 -0.0437886 0)
(-6.16863e-05 -0.043689 0)
(0.00114216 -0.0438245 0)
(0.000245549 -0.0428766 0)
(0.000598149 -0.042866 0)
(-3.60225e-05 -0.0447338 0)
(0.00084737 -0.0461211 0)
(0.000832352 -0.0507944 0)
(0.000502277 -0.0502693 0)
(-0.000274572 -0.0495692 0)
(6.41076e-05 -0.0491813 0)
(0.000312273 -0.0489375 0)
(0.00104096 -0.047966 0)
(0.00184105 -0.0479749 0)
(0.000321006 -0.049178 0)
(0.000563313 -0.0506095 0)
(0.000994497 -0.0501366 0)
(0.00154622 -0.0511715 0)
(-0.000979036 -0.0497141 0)
(-0.000451765 -0.0491885 0)
(-0.000168319 -0.0472125 0)
(-0.000225356 -0.0468407 0)
(-0.000556647 -0.0466356 0)
(-0.000344664 -0.0456507 0)
(-0.000547978 -0.0455594 0)
(-0.000317573 -0.0452454 0)
(0.00018772 -0.0459086 0)
(0.00032552 -0.0464703 0)
(-0.00014264 -0.0461802 0)
(-0.000298591 -0.0461249 0)
(-0.000531263 -0.0467915 0)
(-0.000702423 -0.046316 0)
(-1.33946e-05 -0.046324 0)
(-0.000324377 -0.0462157 0)
(-0.000231904 -0.0446154 0)
(-0.000589249 -0.0442345 0)
(0.00170538 -0.0413357 0)
(0.00120242 -0.0425188 0)
(0.000197365 -0.0423792 0)
(0.000434064 -0.0416699 0)
(2.19745e-05 -0.0425595 0)
(0.000211927 -0.0423777 0)
(8.99781e-05 -0.0421854 0)
(0.000488161 -0.0450526 0)
(-0.000836419 -0.042994 0)
(-0.00100438 -0.0502862 0)
(0.00188428 -0.0512204 0)
(-0.000673104 -0.0523429 0)
(-1.14606e-05 -0.0538776 0)
(0.000668427 -0.0537032 0)
(0.000554688 -0.0516052 0)
(0.000854139 -0.0513217 0)
(0.00142832 -0.0506322 0)
(-0.000182524 -0.0499958 0)
(-6.00259e-05 -0.0501468 0)
(-0.000242534 -0.0496791 0)
(-0.000548629 -0.0486738 0)
(0.000132646 -0.046748 0)
(-0.00106166 -0.047059 0)
(4.34773e-05 -0.0455279 0)
(0.000161427 -0.0443986 0)
(0.000314766 -0.0459746 0)
(-9.47926e-05 -0.0457546 0)
(0.000322949 -0.0439155 0)
(-0.000409751 -0.0431322 0)
(8.31191e-05 -0.0451576 0)
(-5.68775e-05 -0.0460259 0)
(0.000166407 -0.0461587 0)
(-0.000497466 -0.0463964 0)
(-0.00112753 -0.0460413 0)
(-9.66118e-05 -0.0456321 0)
(-0.000999457 -0.0458775 0)
(0.000334726 -0.0450714 0)
(0.000787434 -0.0409743 0)
(-0.000368423 -0.0441084 0)
(0.000413383 -0.0413368 0)
(0.000746466 -0.0403033 0)
(0.000454762 -0.0403185 0)
(0.000479986 -0.039292 0)
(-0.000348195 -0.0411882 0)
(0.000108931 -0.041816 0)
(-0.000678057 -0.0420275 0)
(0.000169581 -0.0433077 0)
(-0.000107607 -0.0442943 0)
(-3.55927e-06 -0.0450642 0)
(-9.04381e-05 -0.0459676 0)
(-0.0010447 -0.0490493 0)
(0.00091974 -0.0499453 0)
(-0.000611656 -0.0504067 0)
(0.000424074 -0.0517794 0)
(0.000388408 -0.0506778 0)
(0.000307691 -0.0471043 0)
(-0.000148229 -0.0462057 0)
(0.000292115 -0.0458042 0)
(-0.00187452 -0.0461456 0)
(0.000667609 -0.0471415 0)
(-0.000772079 -0.0473138 0)
(-0.000186212 -0.0470047 0)
(-0.00042108 -0.0458117 0)
(-2.93609e-05 -0.0451793 0)
(0.000108032 -0.0428931 0)
(0.000248265 -0.0419251 0)
(-0.00023759 -0.0410031 0)
(-0.000399566 -0.0420314 0)
(0.0001994 -0.0421628 0)
(0.000507884 -0.0446546 0)
(-0.0002859 -0.0428629 0)
(0.000414705 -0.0428149 0)
(0.000302797 -0.0447642 0)
(-0.000457578 -0.0454923 0)
(-0.00022092 -0.0461719 0)
(-0.000461786 -0.0456471 0)
(0.000871853 -0.0451367 0)
(-0.000654659 -0.0414663 0)
(-0.000299476 -0.0439765 0)
(-0.000106185 -0.0412207 0)
(0.00113415 -0.0389135 0)
(0.000767043 -0.0391879 0)
(-0.000525421 -0.0390494 0)
(-0.000128471 -0.0390104 0)
(0.000137755 -0.0429969 0)
(0.000198931 -0.0428325 0)
(-0.000201092 -0.0386359 0)
(-0.000438736 -0.0382772 0)
(-0.000324418 -0.0383803 0)
(-0.000382394 -0.0375179 0)
(0.000942835 -0.0361032 0)
(0.000598312 -0.0366598 0)
(9.76469e-05 -0.0375214 0)
(0.000443869 -0.0361255 0)
(0.000561215 -0.0351457 0)
(-0.000475141 -0.0446094 0)
(-0.000708774 -0.0438543 0)
(-0.000943096 -0.0455688 0)
(0.00107356 -0.0458807 0)
(0.000469885 -0.0455655 0)
(-0.000648201 -0.0462594 0)
(-0.00076194 -0.0462912 0)
(-0.000336226 -0.0459596 0)
(-0.000851409 -0.0459355 0)
(-0.000407999 -0.045865 0)
(-0.000390594 -0.0448333 0)
(-4.86753e-05 -0.0468088 0)
(-0.000241148 -0.0444236 0)
(0.000488566 -0.0437433 0)
(2.49868e-05 -0.0430643 0)
(0.000181012 -0.0434173 0)
(-0.000525826 -0.0402195 0)
(5.43198e-05 -0.0417046 0)
(0.000782795 -0.0429085 0)
(0.000400386 -0.0438879 0)
(0.000417239 -0.0447789 0)
(-0.000163818 -0.0451999 0)
(-0.000543548 -0.0454595 0)
(-5.79392e-05 -0.0451048 0)
(-0.000251572 -0.0446274 0)
(-0.000241908 -0.0438884 0)
(-0.00082657 -0.0390975 0)
(0.000380074 -0.0403038 0)
(-0.00131221 -0.0372957 0)
(-0.000352022 -0.0398426 0)
(0.00227102 -0.0366672 0)
(-0.000311409 -0.0427722 0)
(0.000156382 -0.0430725 0)
(0.00121784 -0.0439537 0)
(0.000122332 -0.0362401 0)
(-0.000252034 -0.0382346 0)
(-0.000962161 -0.0341116 0)
(0.00028526 -0.033633 0)
(-0.00056629 -0.0320669 0)
(-0.000429905 -0.0332138 0)
(0.000663184 -0.0349938 0)
(0.00189843 -0.0355899 0)
(0.000728608 -0.0357126 0)
(-0.000680808 -0.0343062 0)
(-0.000415785 -0.0372903 0)
(2.02279e-05 -0.0383985 0)
(-0.000550618 -0.0389419 0)
(-0.000386742 -0.0385325 0)
(-0.000212163 -0.038891 0)
(-0.000712919 -0.0382846 0)
(0.00063458 -0.0382466 0)
(0.000729385 -0.0421322 0)
(-1.11501e-05 -0.0425574 0)
(0.000941163 -0.0468133 0)
(0.000173157 -0.0467944 0)
(-1.61136e-05 -0.0451266 0)
(0.000391735 -0.0447662 0)
(3.57384e-06 -0.0445525 0)
(-0.000453547 -0.0431779 0)
(-0.000438108 -0.0418344 0)
(-0.000302928 -0.0421173 0)
(-9.27053e-05 -0.0429163 0)
(0.000423503 -0.0437775 0)
(0.000422258 -0.0440511 0)
(-9.75617e-06 -0.044192 0)
(-0.000244965 -0.043938 0)
(-0.000106403 -0.0438619 0)
(-9.87502e-05 -0.0395298 0)
(-0.0009345 -0.038846 0)
(-0.000162819 -0.0401907 0)
(0.000851533 -0.0390453 0)
(0.000317119 -0.040828 0)
(0.00485237 -0.0402061 0)
(0.00440224 -0.0392539 0)
(0.00160632 -0.0377721 0)
(-8.42619e-05 -0.0402212 0)
(0.000353958 -0.0434332 0)
(0.000634323 -0.0426845 0)
(0.000212342 -0.0365562 0)
(-0.000898471 -0.03702 0)
(-0.000379092 -0.0398916 0)
(7.33515e-06 -0.0422198 0)
(-0.000495524 -0.0408291 0)
(0.000651752 -0.0417313 0)
(-6.49008e-05 -0.0437716 0)
(-6.99452e-05 -0.0446387 0)
(0.000122443 -0.0440611 0)
(0.000949408 -0.0431185 0)
(0.00065617 -0.0428493 0)
(-0.000345656 -0.0394854 0)
(0.0010366 -0.0388704 0)
(0.000268692 -0.04121 0)
(2.56236e-05 -0.041819 0)
(0.000628522 -0.0421411 0)
(0.000250675 -0.0453025 0)
(0.000441024 -0.0439916 0)
(0.000508509 -0.0426903 0)
(-0.000425022 -0.0427599 0)
(-0.000970149 -0.0438745 0)
(-0.000205469 -0.0441182 0)
(-0.000241459 -0.0436171 0)
(-0.000363364 -0.0430452 0)
(-0.000148559 -0.0426174 0)
(-0.000214527 -0.0423587 0)
(-0.000371935 -0.0439254 0)
(-0.000497771 -0.0420498 0)
(-0.00143634 -0.0411835 0)
(6.35303e-05 -0.0429001 0)
(0.000406727 -0.0430942 0)
(-0.000252536 -0.0414761 0)
(-0.0012919 -0.0418017 0)
(-0.000425382 -0.0395066 0)
(0.000805604 -0.0386803 0)
(0.00264721 -0.0402625 0)
(0.000884795 -0.0435998 0)
(0.00138967 -0.0419951 0)
(0.000519813 -0.0444779 0)
(0.000350234 -0.0458805 0)
(0.00012681 -0.0436574 0)
(-0.000294415 -0.0433044 0)
(-0.000152676 -0.0432962 0)
(-0.000116626 -0.0446775 0)
(-0.000993249 -0.0425437 0)
(0.000452629 -0.0457184 0)
(-0.000287056 -0.0458245 0)
(-5.93823e-05 -0.0459713 0)
(0.000241744 -0.0453 0)
(0.000326664 -0.0450702 0)
(-0.000154545 -0.0451122 0)
(-0.000812832 -0.0443705 0)
(0.000850988 -0.0418405 0)
(-0.000346789 -0.0407936 0)
(0.00042359 -0.042678 0)
(-0.00034656 -0.0431501 0)
(0.000709283 -0.0448819 0)
(0.000982023 -0.0441886 0)
(0.000867207 -0.0405802 0)
(0.00059613 -0.0414332 0)
(-0.000435811 -0.041963 0)
(0.00109412 -0.044336 0)
(0.000111031 -0.0443357 0)
(-0.00058523 -0.0454101 0)
(-0.000511446 -0.0441776 0)
(1.00572e-05 -0.0436404 0)
(2.81241e-05 -0.0430568 0)
(-0.0001812 -0.042868 0)
(-0.000381229 -0.0421269 0)
(6.11802e-05 -0.0420914 0)
(0.000218817 -0.04321 0)
(-0.000543401 -0.0431068 0)
(-0.00166216 -0.0419693 0)
(-0.00195522 -0.0427288 0)
(-0.00116729 -0.0440302 0)
(-0.000527289 -0.0444597 0)
(-0.00017473 -0.0432299 0)
(-0.000891904 -0.0448169 0)
(-0.00093222 -0.0451347 0)
(-0.00111298 -0.045883 0)
(0.000395521 -0.0473327 0)
(0.00162643 -0.0447634 0)
(-0.000317064 -0.0444749 0)
(5.08458e-05 -0.0447471 0)
(-0.000319272 -0.0429968 0)
(0.000385599 -0.0453948 0)
(-0.000202216 -0.0462034 0)
(6.27612e-05 -0.0448772 0)
(5.33963e-05 -0.0436946 0)
(0.000248882 -0.0438505 0)
(8.43385e-05 -0.0452519 0)
(0.000240656 -0.0455786 0)
(0.000588675 -0.0450331 0)
(0.000599129 -0.0437884 0)
(0.000787515 -0.0420394 0)
(0.00100953 -0.0416503 0)
(-3.04354e-05 -0.0394718 0)
(-1.75477e-05 -0.03829 0)
(-0.000192399 -0.0391144 0)
(0.000227557 -0.0387537 0)
(-6.64691e-05 -0.038796 0)
(-0.000833003 -0.0396764 0)
(4.87653e-05 -0.0401952 0)
(0.000558721 -0.0425126 0)
(0.000215533 -0.0441307 0)
(-0.000970846 -0.0449188 0)
(0.000950029 -0.044659 0)
(-0.000112319 -0.0442143 0)
(-0.000298052 -0.0436425 0)
(-0.000142447 -0.0432097 0)
(0.000273663 -0.0431166 0)
(0.000701594 -0.0396926 0)
(0.00101258 -0.0402507 0)
(-1.75992e-05 -0.0418416 0)
(-0.000324925 -0.0421863 0)
(0.000361374 -0.0437539 0)
(-0.000690954 -0.0427518 0)
(-0.000838433 -0.0435911 0)
(-0.000467733 -0.0445608 0)
(-0.00167679 -0.0447934 0)
(0.000697693 -0.0433833 0)
(-0.000677758 -0.0462502 0)
(0.00124171 -0.0475993 0)
(0.001469 -0.0465672 0)
(0.000208277 -0.0453135 0)
(0.000674354 -0.0456558 0)
(0.000528332 -0.0457583 0)
(0.000292541 -0.0460666 0)
(0.000583212 -0.0428197 0)
(0.000198327 -0.0430174 0)
(0.000491088 -0.0444979 0)
(0.000360024 -0.0447477 0)
(-0.000392281 -0.0443887 0)
(-0.000431558 -0.0435686 0)
(0.00146557 -0.042297 0)
(0.000935251 -0.0412551 0)
(0.00109041 -0.0366854 0)
(0.00176997 -0.0382139 0)
(0.00107147 -0.0397617 0)
(0.000785129 -0.0380278 0)
(0.00127503 -0.0385744 0)
(-0.000590767 -0.0390866 0)
(-0.000342408 -0.0404522 0)
(0.000282134 -0.0411323 0)
(-0.000243008 -0.0393119 0)
(0.0004812 -0.0428006 0)
(-0.00122336 -0.0413817 0)
(-0.000297335 -0.0421205 0)
(-0.000780675 -0.0430435 0)
(-0.00086754 -0.0427782 0)
(-0.000388835 -0.0434374 0)
(3.02098e-05 -0.0434602 0)
(6.00436e-05 -0.0433062 0)
(3.45842e-05 -0.0429604 0)
(0.000359603 -0.0422954 0)
(0.00135641 -0.0399177 0)
(-2.70334e-05 -0.0439213 0)
(-0.000632463 -0.0419496 0)
(-0.000637737 -0.0424602 0)
(-6.20833e-05 -0.0416182 0)
(-0.000742072 -0.0415926 0)
(-0.000269181 -0.0452344 0)
(-6.47506e-05 -0.0445707 0)
(0.00110427 -0.0456991 0)
(0.000322796 -0.0470336 0)
(0.000224828 -0.0467125 0)
(0.000486683 -0.044845 0)
(-5.85552e-05 -0.0438514 0)
(2.99791e-06 -0.0421886 0)
(0.000389961 -0.0434116 0)
(0.000194083 -0.043563 0)
(-0.000866213 -0.0428216 0)
(-0.0012665 -0.0427939 0)
(-0.000377762 -0.0453477 0)
(-0.00021835 -0.04514 0)
(-0.000586112 -0.0456147 0)
(0.000492313 -0.0456474 0)
(0.000180871 -0.044139 0)
(-0.000484843 -0.0430186 0)
(0.000122302 -0.0420254 0)
(-0.000270673 -0.0417113 0)
(-0.00047404 -0.0399732 0)
(0.000569751 -0.0400989 0)
(-0.00149454 -0.0409874 0)
(-0.00175395 -0.0415544 0)
(-0.000217217 -0.0385823 0)
(0.000782458 -0.0384115 0)
(-0.00173383 -0.0405166 0)
(8.41383e-05 -0.0409253 0)
(0.00136723 -0.0411502 0)
(0.000107762 -0.0433003 0)
(-0.000126808 -0.044452 0)
(-0.000268721 -0.0443584 0)
(0.000374401 -0.0454367 0)
(0.000549877 -0.0448312 0)
(0.000724456 -0.0425842 0)
(0.00124148 -0.041386 0)
(0.00101755 -0.0416573 0)
(0.000662082 -0.0435505 0)
(0.000174381 -0.0448884 0)
(0.000447499 -0.0444907 0)
(0.000165166 -0.0433662 0)
(0.000414412 -0.0439668 0)
(0.000386904 -0.0444256 0)
(-0.000199944 -0.0474434 0)
(0.000159029 -0.0470032 0)
(0.000230795 -0.0450616 0)
(-0.000715473 -0.0406865 0)
(-0.00071133 -0.0441714 0)
(-0.000182639 -0.0439783 0)
(-5.09877e-05 -0.0443776 0)
(-3.21253e-05 -0.0443941 0)
(0.000117349 -0.0445567 0)
(0.000129301 -0.0450159 0)
(-0.0004399 -0.0462731 0)
(0.000127272 -0.0456346 0)
(0.000417973 -0.0459999 0)
(-3.31534e-05 -0.0457888 0)
(-4.71598e-05 -0.0437054 0)
(-4.38104e-05 -0.0412733 0)
(-0.000352686 -0.0406063 0)
(0.000391021 -0.0410043 0)
(-8.38666e-06 -0.0403486 0)
(-0.000310373 -0.0379424 0)
(0.000264416 -0.0388377 0)
(-6.16579e-05 -0.0388971 0)
(0.000338006 -0.0398707 0)
(-0.00111599 -0.0412792 0)
(0.000216624 -0.0408284 0)
(3.14748e-05 -0.042504 0)
(-0.000460793 -0.0439658 0)
(-0.000422356 -0.0450774 0)
(-0.000601962 -0.048664 0)
(0.000877103 -0.0474674 0)
(0.000820323 -0.045463 0)
(2.26583e-05 -0.0470791 0)
(0.000886757 -0.0465674 0)
(0.000538166 -0.0448583 0)
(0.000378489 -0.0462963 0)
(7.73736e-05 -0.0470187 0)
(0.000446845 -0.0454157 0)
(0.000203282 -0.0456653 0)
(0.000227926 -0.0456166 0)
(7.52213e-05 -0.0479301 0)
(-0.000208424 -0.0473127 0)
(-0.00100426 -0.0417785 0)
(-0.00134266 -0.0450282 0)
(-0.00101579 -0.0452803 0)
(-0.000206074 -0.0443385 0)
(-0.00015125 -0.0449799 0)
(0.000108804 -0.0457775 0)
(9.01443e-05 -0.0463479 0)
(8.65217e-06 -0.0475191 0)
(-0.000307299 -0.0457498 0)
(0.00119099 -0.0455517 0)
(-0.000820228 -0.04412 0)
(-0.000323283 -0.0431561 0)
(-0.000844055 -0.042069 0)
(-0.000386554 -0.0418052 0)
(0.000265025 -0.0409497 0)
(-0.000421419 -0.0409454 0)
(-0.00123606 -0.03638 0)
(5.43404e-06 -0.0396877 0)
(-0.000273567 -0.0404178 0)
(-0.000339513 -0.0421252 0)
(2.44787e-05 -0.0416542 0)
(-0.000590855 -0.0444899 0)
(-0.000684599 -0.0457207 0)
(-5.74804e-05 -0.0463797 0)
(0.000884214 -0.0458939 0)
(0.0005884 -0.0456179 0)
(0.000845104 -0.0454457 0)
(0.00145904 -0.0461646 0)
(0.000452631 -0.0447335 0)
(-0.000200593 -0.04625 0)
(0.00120553 -0.04207 0)
(0.00104679 -0.0479914 0)
(-0.000506222 -0.0458048 0)
(0.000385298 -0.0458772 0)
(-0.000298382 -0.0464848 0)
(0.000258329 -0.0462006 0)
(-0.000183809 -0.0490372 0)
(-9.13484e-05 -0.0482299 0)
(-6.91353e-05 -0.0464371 0)
(-0.000326145 -0.0462795 0)
(-0.000111013 -0.0455282 0)
(5.76144e-05 -0.046596 0)
(-0.000446155 -0.0454834 0)
(-0.000260752 -0.0456619 0)
(0.00018712 -0.0467225 0)
(-0.000308748 -0.0465176 0)
(0.000539083 -0.0444418 0)
(-0.000266901 -0.0448647 0)
(-0.000559181 -0.0402303 0)
(-0.000645816 -0.044224 0)
(-0.00031926 -0.0451483 0)
(-4.89091e-05 -0.0462259 0)
(0.000577509 -0.0438414 0)
(1.62004e-05 -0.0408498 0)
(0.00118574 -0.0433377 0)
(0.000231072 -0.0434822 0)
(0.000107612 -0.0431687 0)
(0.000257748 -0.044498 0)
(3.61831e-05 -0.0452761 0)
(-0.000440981 -0.0467325 0)
(0.000465263 -0.0444917 0)
(0.00036502 -0.0443241 0)
(-0.00021072 -0.0459695 0)
(-0.000191758 -0.0478337 0)
(0.00134104 -0.0426792 0)
(0.000610079 -0.0428179 0)
(4.9097e-05 -0.0431205 0)
(0.000724074 -0.0382039 0)
(-0.000503144 -0.0415496 0)
(-0.00345266 -0.0392852 0)
(-0.00189467 -0.0366734 0)
(-0.00270648 -0.0400758 0)
(-0.00100934 -0.041238 0)
(-0.000802489 -0.0414389 0)
(-0.000194151 -0.0485283 0)
(-9.30449e-05 -0.0470466 0)
(-0.000557189 -0.0475071 0)
(-0.000890905 -0.0427645 0)
(-0.000215138 -0.0460486 0)
(8.28132e-05 -0.0456883 0)
(-0.000161103 -0.0452799 0)
(0.000566831 -0.0448897 0)
(0.000683765 -0.0460373 0)
(0.000315873 -0.0459146 0)
(-0.000115888 -0.0454769 0)
(-0.000310979 -0.0427442 0)
(-0.000238295 -0.0440815 0)
(-0.00125095 -0.0418962 0)
(-0.000783302 -0.0489244 0)
(0.000986704 -0.047492 0)
(0.00203437 -0.0466468 0)
(-0.000416347 -0.0479592 0)
(-1.66525e-05 -0.0502198 0)
(-0.000199832 -0.0498684 0)
(0.00014296 -0.0491897 0)
(-3.17964e-05 -0.0476857 0)
(-8.15165e-05 -0.0462064 0)
(0.000621501 -0.0454583 0)
(0.000415273 -0.045717 0)
(0.000153408 -0.0440129 0)
(-0.000112856 -0.0432291 0)
(7.12993e-05 -0.0438634 0)
(0.000423622 -0.0433177 0)
(-5.16548e-06 -0.0413928 0)
(-0.000101823 -0.0415906 0)
(-4.8872e-06 -0.040304 0)
(-0.000253993 -0.0397276 0)
(-0.000565348 -0.0387187 0)
(-0.00105882 -0.0393843 0)
(-0.000443554 -0.0382976 0)
(-0.00169148 -0.0393462 0)
(-0.000826805 -0.0403425 0)
(-0.0012005 -0.0421819 0)
(-0.000257883 -0.037584 0)
(-0.00211884 -0.0367775 0)
(-0.000534956 -0.0402825 0)
(-0.0023395 -0.0396933 0)
(-0.000929845 -0.0398032 0)
(0.000545619 -0.0410058 0)
(0.000639741 -0.0427578 0)
(6.73786e-05 -0.0436472 0)
(-0.000220019 -0.0454281 0)
(-0.000302358 -0.0454847 0)
(0.000127455 -0.0447788 0)
(0.000434281 -0.0454668 0)
(0.000636911 -0.0456083 0)
(-0.00124137 -0.0430904 0)
(0.000568989 -0.0475756 0)
(-0.000129445 -0.042493 0)
(4.29011e-05 -0.0471598 0)
(-0.00114587 -0.0468767 0)
(-0.000443487 -0.048537 0)
(0.000596442 -0.0491523 0)
(0.000605025 -0.0511136 0)
(0.000508318 -0.0514582 0)
(-0.000622393 -0.0502267 0)
(-0.000400513 -0.0477575 0)
(-0.000575789 -0.0457371 0)
(-0.000183337 -0.046301 0)
(0.000444226 -0.0425974 0)
(2.01385e-06 -0.0418726 0)
(0.00065503 -0.0413749 0)
(0.000289332 -0.0428648 0)
(-0.000198725 -0.0428691 0)
(-0.000408389 -0.0400124 0)
(-0.000315153 -0.0401661 0)
(-0.000376513 -0.0401521 0)
(0.000310611 -0.0391789 0)
(0.000322257 -0.0401235 0)
(0.000134938 -0.0405103 0)
(0.000497914 -0.0393832 0)
(0.000745421 -0.0417028 0)
(-0.000171783 -0.0432415 0)
(0.000106412 -0.0443529 0)
(-0.000203747 -0.0368812 0)
(-0.000289861 -0.0360737 0)
(-0.000559548 -0.0355685 0)
(-0.000340774 -0.0391982 0)
(-0.00109018 -0.0388901 0)
(-0.000244206 -0.040231 0)
(0.000753479 -0.0410622 0)
(-0.000183711 -0.0422808 0)
(-0.00111509 -0.0417076 0)
(5.99244e-05 -0.0444787 0)
(0.000350465 -0.0468242 0)
(-0.000742839 -0.0459577 0)
(-0.00111598 -0.0445573 0)
(-0.000928416 -0.0466095 0)
(-3.36378e-05 -0.0479443 0)
(6.64909e-05 -0.0451413 0)
(-5.46099e-05 -0.0478924 0)
(-0.000127025 -0.0495335 0)
(0.000789806 -0.0503243 0)
(0.000374578 -0.0491156 0)
(-0.000405089 -0.0502545 0)
(-0.000270984 -0.0518845 0)
(-0.000128202 -0.0511992 0)
(-0.000584627 -0.0516226 0)
(-0.000331422 -0.0493628 0)
(-0.000392483 -0.0478311 0)
(-0.00112385 -0.0455794 0)
(0.000637949 -0.0455403 0)
(0.000564559 -0.0435722 0)
(0.000718524 -0.0424505 0)
(0.00152303 -0.0432254 0)
(0.000170414 -0.0416357 0)
(0.000135426 -0.0418554 0)
(-0.000944847 -0.0401649 0)
(-0.000379059 -0.039977 0)
(-0.000344229 -0.0397708 0)
(-0.000321213 -0.0396826 0)
(-0.000545346 -0.0396342 0)
(-0.000290593 -0.0406109 0)
(-0.000255497 -0.0438366 0)
(-0.000185167 -0.0442693 0)
(-9.16397e-06 -0.0446408 0)
(0.000360156 -0.0445696 0)
(-0.000136401 -0.043702 0)
(0.00156479 -0.0407258 0)
(0.000223421 -0.0416965 0)
(8.54949e-05 -0.0407183 0)
(-0.000123444 -0.0425255 0)
(-0.00120342 -0.0461237 0)
(-0.00054626 -0.0449384 0)
(-0.00125228 -0.0441896 0)
(0.000168684 -0.0462372 0)
(0.00160844 -0.0424225 0)
(-0.000426733 -0.0447902 0)
(-0.000561938 -0.0456114 0)
(-1.99189e-05 -0.0462949 0)
(0.00105665 -0.0475754 0)
(-0.00148619 -0.049307 0)
(0.000372742 -0.0485302 0)
(0.000932502 -0.0514194 0)
(4.47283e-05 -0.0520945 0)
(0.000208211 -0.0508665 0)
(0.00108324 -0.0460967 0)
(0.000494134 -0.0457455 0)
(-0.000493931 -0.0438493 0)
(-2.90295e-05 -0.0461278 0)
(-0.000201388 -0.046226 0)
(-0.00179562 -0.0465193 0)
(-0.000126231 -0.0481464 0)
(0.000521071 -0.0454597 0)
(0.000550077 -0.0447687 0)
(0.00227548 -0.0432439 0)
(-0.000417898 -0.0424164 0)
(-0.000777198 -0.0406353 0)
(-0.00172461 -0.0406474 0)
(-0.000751199 -0.0422225 0)
(-0.000110334 -0.041039 0)
(-3.86933e-05 -0.0419301 0)
(-7.43517e-05 -0.043685 0)
(-3.23413e-05 -0.0443015 0)
(-1.71436e-05 -0.0449838 0)
(0.000131261 -0.0449597 0)
(0.00025607 -0.0445716 0)
(0.000533845 -0.0444335 0)
(-0.000666088 -0.0419748 0)
(0.000670793 -0.0385384 0)
(-0.000592215 -0.0439403 0)
(-0.00111292 -0.0423939 0)
(-0.00170631 -0.0437011 0)
(0.000721947 -0.0447272 0)
(-8.4907e-05 -0.0450067 0)
(0.00102302 -0.0447094 0)
(0.001685 -0.0424554 0)
(-0.000315277 -0.0438526 0)
(-0.000707639 -0.0405525 0)
(0.00139303 -0.046378 0)
(0.00107469 -0.0472554 0)
(0.0014292 -0.0460903 0)
(0.000531313 -0.0457064 0)
(0.000912559 -0.0459821 0)
(0.000488451 -0.0485055 0)
(0.000256529 -0.0500667 0)
(0.000551881 -0.0502821 0)
(-0.00115483 -0.0469253 0)
(-0.000829259 -0.0439922 0)
(-0.00161149 -0.0454862 0)
(-0.000546167 -0.0468364 0)
(-0.000654116 -0.0485816 0)
(0.000417888 -0.0486592 0)
(-0.000315656 -0.0492448 0)
(-0.000493982 -0.0460541 0)
(-0.000613595 -0.0453633 0)
(2.03892e-05 -0.04835 0)
(-0.00016611 -0.0450262 0)
(-0.000735314 -0.0431242 0)
(0.000802231 -0.0410704 0)
(-0.000347685 -0.0430282 0)
(0.00157175 -0.0430592 0)
(-0.000138145 -0.0428064 0)
(0.000164531 -0.0436289 0)
(-0.00016045 -0.0453073 0)
(-0.000165474 -0.045695 0)
(-4.24096e-05 -0.0460868 0)
(-4.25827e-05 -0.0466673 0)
(-0.000137164 -0.0465776 0)
(0.000718561 -0.0448842 0)