/*--------------------------------*- C++ -*----------------------------------*\
  =========                 |
  \\      /  F ield         | OpenFOAM: The Open Source CFD Toolbox
   \\    /   O peration     | Website:  https://openfoam.org
    \\  /    A nd           | Version:  12
     \\/     M anipulation  |
\*---------------------------------------------------------------------------*/
FoamFile
{
    format      ascii;
    class       IOPosition;
    location    "0.75/lagrangian/cloud";
    object      positions;
}
// * * * * * * * * * * * * * * * * * * * * * * * * * * * * * * * * * * * * * //

2022
(
(0.258578 0.370711 0.167248 0.203463) 0 1 2
(9.91563e-05 0.49995 0.158969 0.340981) 2 5 2
(0.473986 0.263007 0.0179551 0.245052) 1 7376 1
(0.456088 0.267587 0.271956 0.00436879) 2 7377 2
(0.466976 0.266512 0.195977 0.0705349) 3 7378 1
(0.188178 0.405911 0.307469 0.0984417) 4 9 2
(0.227932 0.386034 0.369359 0.0166753) 5 11 2
(0.36943 0.315285 0.193813 0.121473) 6 13 2
(0.38006 0.30997 0.129466 0.180504) 7 15 2
(0.238554 0.0365013 0.344222 0.380723) 8 14 2
(0.0818714 0.459064 0.187085 0.271979) 9 19 2
(0.12366 0.43817 0.11786 0.32031) 9 16 1
(0.44488 0.27756 0.222849 0.0547112) 9 18 1
(0.556958 0.221521 0.0589548 0.162566) 10 7385 1
(0.430596 0.284702 0.20302 0.0816823) 11 7386 1
(0.28846 0.35577 0.0785924 0.277178) 12 25 2
(0.235093 0.0420183 0.340435 0.382454) 13 24 2
(0.0487236 0.117154 0.358484 0.475638) 14 26 2
(0.0152231 0.113798 0.492388 0.378591) 14 28 2
(0.138778 0.0612077 0.369403 0.430611) 16 30 2
(0.13237 0.118553 0.433815 0.315262) 16 32 2
(0.122009 0.156549 0.438996 0.282446) 17 34 2
(0.461201 0.0252844 0.2694 0.244115) 18 36 2
(0.47278 0.26361 0.104511 0.159099) 19 7394 1
(0.306633 0.346684 0.105283 0.2414) 20 38 1
(0.0370702 0.481465 0.207767 0.273698) 21 40 1
(0.0531502 0.473425 0.293453 0.179972) 21 42 1
(0.147235 0.426383 0.161615 0.264768) 24 46 1
(0.43332 0.0586604 0.28334 0.22468) 25 50 2
(0.219982 0.390009 0.354272 0.0357373) 26 53 2
(0.406458 0.296771 0.0839319 0.212839) 27 55 2
(0.394439 0.0943894 0.208391 0.30278) 28 54 2
(0.125841 0.43708 0.299058 0.138021) 28 56 1
(0.396745 0.301627 0.143726 0.157902) 30 7405 1
(0.4222 0.2889 0.249207 0.0396926) 31 7406 1
(0.542873 0.228563 0.0760765 0.152487) 32 64 1
(0.194767 0.366842 0.0357744 0.402616) 33 67 1
(0.410329 0.294835 0.125738 0.169097) 34 69 2
(0.0963984 0.451801 0.210555 0.241246) 36 70 1
(0.185161 0.40742 0.343442 0.0639778) 111 73 2
(0.386305 0.306847 0.106591 0.200257) 37 75 2
(0.38445 0.0133615 0.294414 0.307775) 38 74 2
(0.118058 0.440971 0.296035 0.144936) 38 76 1
(0.219843 0.281015 0.109064 0.390079) 39 79 1
(0.359172 0.320414 0.135958 0.184456) 40 81 2
(0.0154825 0.16804 0.324219 0.492259) 41 80 2
(0.356609 0.100529 0.221167 0.321695) 41 83 1
(0.205268 0.397366 0.25805 0.139316) 42 85 2
(0.486719 0.191517 0.256641 0.0651233) 43 7418 2
(0.395986 0.240825 0.302007 0.0611827) 44 7419 2
(0.379757 0.193691 0.310122 0.116431) 45 7420 2
(0.25858 0.37071 0.212425 0.158284) 46 92 1
(0.0851369 0.457432 0.400504 0.0569277) 47 95 2
(0.281558 0.359221 0.0615194 0.297702) 48 97 2
(0.397427 0.0121982 0.301286 0.289088) 75 149 2
(0.0876137 0.225401 0.456193 0.230792) 76 151 2
(0.398853 0.300574 0.253147 0.0474267) 81 161 1
(0.217254 0.282942 0.391373 0.108431) 82 163 2
(0.111042 0.444479 0.0938005 0.350678) 83 165 1
(0.23495 0.382525 0.274745 0.10778) 84 167 1
(0.001693 0.499153 0.158993 0.340161) 86 23 2
(0.0782904 0.460855 0.350438 0.110417) 160 170 2
(0.796231 0.0309365 0.101885 0.0709483) 159 168 1
(0.164198 0.417901 0.00229071 0.41561) 86 172 2
(0.258291 0.334618 0.0362367 0.370854) 86 172 1
(0.0230912 0.151271 0.488454 0.337183) 86 171 2
(0.233853 0.383074 0.243007 0.140066) 87 174 2
(0.326919 0.137091 0.199449 0.33654) 87 174 1
(0.491714 0.254143 0.00464509 0.249498) 88 176 2
(0.429204 0.285398 0.151839 0.133559) 92 35 2
(0.528304 0.0859205 0.235848 0.149928) 93 37 1
(0.200876 0.399562 0.363407 0.0361546) 94 187 1
(0.182533 0.0434115 0.408734 0.365322) 95 41 1
(0.0216779 0.489161 0.10531 0.383851) 97 45 2
(0.113004 0.0458664 0.443498 0.397632) 98 47 1
(0.161777 0.010608 0.419111 0.408503) 96 191 2
(0.248582 0.247698 0.128011 0.375709) 97 194 1
(0.287101 0.356449 0.201365 0.155084) 98 196 2
(0.262063 0.368969 0.25464 0.114329) 101 201 1
(0.280184 0.187072 0.359908 0.172837) 103 57 1
(0.000147667 0.499926 0.298904 0.201022) 105 61 2
(0.0960762 0.451962 0.39997 0.0519923) 177 204 2
(0.0277886 0.486106 0.134072 0.352034) 178 352 1
(0.194668 0.0284203 0.374246 0.402666) 103 206 1
(0.218838 0.390581 0.195302 0.195279) 104 208 2
(0.215968 0.122448 0.269568 0.392016) 104 208 1
(0.184955 0.407522 0.0653405 0.342182) 105 210 2
(0.281978 0.244783 0.114228 0.359011) 105 210 1
(0.28133 0.359335 0.141334 0.218001) 106 212 2
(0.302533 0.0813718 0.348734 0.267362) 109 69 1
(0.381781 0.30911 0.281642 0.027468) 111 221 1
(0.152044 0.423978 0.243256 0.180722) 112 223 1
(0.343247 0.328376 0.278002 0.0503744) 113 225 1
(0.335996 0.332002 0.130443 0.201559) 114 227 1
(0.619001 0.1905 0.116265 0.0742347) 115 229 1
(0.724559 0.137721 0.11801 0.0197102) 116 231 1
(0.466549 0.266725 0.252165 0.0145606) 117 233 1
(0.680712 0.159644 0.0682158 0.0914284) 118 87 2
(0.527419 0.113915 0.236291 0.122376) 189 228 1
(0.377386 0.238223 0.311307 0.073084) 190 230 1
(0.465182 0.267409 0.0548687 0.21254) 150 150 2
(0.182157 0.408922 0.179893 0.229028) 152 154 2
(0.232576 0.153723 0.229989 0.383712) 78 156 1
(0.0765805 0.46171 0.0149804 0.446729) 152 303 2
(0.207778 0.183969 0.212142 0.396111) 152 303 1
(0.178535 0.0628727 0.34786 0.410732) 153 302 2
(0.401739 0.036501 0.299131 0.26263) 153 304 2
(0.520362 0.116199 0.12362 0.239819) 154 307 1
(0.40171 0.299145 0.284612 0.0145333) 156 311 2
(0.0619871 0.469006 0.398291 0.070715) 233 463 1
(0.0913024 0.069508 0.454349 0.384841) 234 317 1
(0.21433 0.372478 0.0203564 0.392835) 160 319 1
(0.715417 0.142292 0.0817084 0.0605833) 162 322 1
(0.362166 0.201045 0.318917 0.117872) 163 176 1
(0.237121 0.38144 0.0553375 0.326102) 164 178 2
(0.205845 0.397078 0.0814262 0.315651) 165 180 2
(0.190014 0.34657 0.404993 0.0584224) 166 182 1
(0.212456 0.173568 0.393772 0.220204) 167 184 1
(0.033766 0.483117 0.209797 0.27332) 95 190 2
(0.148542 0.0512157 0.425729 0.374513) 242 333 1
(0.130515 0.242556 0.192186 0.434743) 168 335 1
(0.207104 0.372943 0.0235051 0.396448) 169 337 1
(0.076947 0.0696188 0.391908 0.461527) 170 336 2
(0.259203 0.335909 0.0344889 0.370398) 170 339 1
(0.0744162 0.070889 0.391903 0.462792) 171 338 2
(0.188461 0.339681 0.0660885 0.40577) 171 341 1
(0.212169 0.393915 0.0393524 0.354563) 172 343 2
(0.193857 0.042152 0.403071 0.360919) 172 342 2
(0.27944 0.0718969 0.288383 0.36028) 173 345 1
(0.00741985 0.124025 0.372265 0.49629) 175 346 2
(0.217466 0.057834 0.333433 0.391267) 176 351 1
(0.100797 0.0251172 0.424484 0.449601) 177 353 1
(0.141746 0.429127 0.01934 0.409787) 179 357 2
(0.16174 0.0304722 0.388658 0.41913) 180 356 2
(0.0399772 0.103537 0.376474 0.480011) 181 358 2
(0.195209 0.326809 0.402395 0.0755864) 182 214 1
(0.212471 0.20309 0.393764 0.190675) 183 216 1
(0.208326 0.00351023 0.395837 0.392327) 184 218 1
(0.0798309 0.380459 0.460085 0.0796253) 186 222 1
(0.0481722 0.475914 0.220473 0.255441) 185 369 2
(0.00541975 0.133261 0.49729 0.364029) 185 368 2
(0.357789 0.321105 0.00912237 0.311983) 187 370 1
(0.151249 0.424376 0.306783 0.117593) 187 372 1
(0.409344 0.0492275 0.295328 0.2461) 188 226 1
(0.494142 0.0718994 0.181029 0.252929) 225 448 1
(0.566484 0.216758 0.143091 0.0736671) 228 305 2
(0.391293 0.304353 0.0954659 0.208888) 229 307 2
(0.239634 0.175549 0.380183 0.204634) 230 309 1
(0.412639 0.293681 0.193469 0.100212) 232 461 1
(0.174866 0.195063 0.217504 0.412567) 233 464 1
(0.130359 0.153355 0.281466 0.43482) 234 466 1
(0.0358253 0.482087 0.314114 0.167974) 235 467 1
(0.190455 0.404773 0.316322 0.088451) 236 469 1
(0.233823 0.383089 0.334898 0.0481911) 237 471 1
(0.291811 0.0749647 0.354094 0.27913) 238 325 1
(0.257996 0.208109 0.371002 0.162893) 239 327 1
(0.168813 0.0257521 0.415593 0.389841) 240 329 1
(0.108052 0.355253 0.445974 0.0907211) 315 478 1
(0.214419 0.392791 0.22314 0.169651) 241 480 2
(0.158844 0.183762 0.236816 0.420578) 241 480 1
(0.168172 0.415914 0.31868 0.0972342) 242 482 2
(0.169971 0.415014 0.19869 0.216324) 243 484 2
(0.0376254 0.0784643 0.481187 0.402723) 243 483 2
(0.171807 0.0620543 0.352042 0.414097) 244 486 1
(0.166312 0.126822 0.290022 0.416844) 245 488 1
(0.219851 0.144798 0.245276 0.390074) 246 490 1
(0.265734 0.211819 0.155314 0.367133) 247 492 1
(0.260518 0.210031 0.15971 0.369741) 248 494 1
(0.256919 0.158362 0.213179 0.37154) 249 496 1
(0.162971 0.418514 0.205074 0.21344) 250 497 1
(0.318403 0.340798 0.141428 0.19937) 252 499 1
(0.434982 0.282509 0.206395 0.0761138) 253 355 2
(0.272577 0.363711 0.122592 0.24112) 254 506 2
(0.255475 0.372262 0.0333194 0.338943) 255 508 2
(0.128245 0.068731 0.367147 0.435878) 256 507 2
(0.112166 0.0753644 0.443917 0.368552) 256 509 2
(0.236613 0.0101588 0.371535 0.381694) 257 512 1
(0.0876638 0.0515896 0.456168 0.404579) 258 513 2
(0.107868 0.446066 0.20181 0.244256) 260 518 2
(0.387107 0.306447 0.0499245 0.256522) 261 517 1
(0.0982957 0.450852 0.35372 0.0971322) 261 519 1
(0.421827 0.289086 0.096935 0.192151) 262 373 2
(0.322552 0.338724 0.00900045 0.329723) 263 521 1
(0.045946 0.477027 0.140037 0.33699) 301 596 1
(0.0299983 0.485001 0.0817973 0.403204) 302 598 1
(0.187977 0.278224 0.406011 0.127787) 303 454 1
(0.0802881 0.459856 0.015355 0.444501) 305 604 1
(0.148661 0.42567 0.122594 0.303075) 306 460 2
(0.671186 0.164407 0.0345694 0.129838) 308 464 2
(0.0617978 0.469101 0.0753149 0.393786) 309 615 2
(0.204075 0.0580499 0.339913 0.397963) 309 615 1
(0.199953 0.31894 0.0810831 0.400024) 310 617 1
(0.185562 0.407219 0.240234 0.166985) 311 619 2
(0.19026 0.40487 0.0218634 0.383007) 312 621 2
(0.160266 0.035305 0.384562 0.419867) 312 621 1
(0.161507 0.292574 0.126672 0.419246) 313 623 1
(0.147859 0.42607 0.248367 0.177703) 314 625 2
(0.0216193 0.0810397 0.408151 0.48919) 315 624 2
(0.198737 0.0708718 0.32976 0.400632) 315 627 1
(0.602953 0.198523 0.0524462 0.146077) 317 628 1
(0.264363 0.367818 0.169181 0.198638) 318 633 2
(0.214204 0.343228 0.0496697 0.392898) 319 635 1
(0.0552695 0.0809542 0.472365 0.391411) 320 636 2
(0.226223 0.386889 0.0282151 0.358674) 322 641 2
(0.32168 0.33916 0.0321341 0.307026) 323 643 2
(0.149982 0.0673092 0.3577 0.425009) 324 642 2
(0.16711 0.0605005 0.416445 0.355945) 324 644 2
(0.151071 0.0337692 0.424465 0.390695) 325 646 2
(0.290363 0.179057 0.354819 0.175762) 326 500 1
(0.326555 0.265461 0.336723 0.0712617) 327 502 1
(0.285401 0.357299 0.0659041 0.291395) 328 504 2
(0.165917 0.0682199 0.348822 0.417042) 329 652 2
(0.171934 0.127498 0.414033 0.286535) 329 654 2
(0.261757 0.112039 0.257082 0.369122) 330 657 1
(0.256738 0.168647 0.202984 0.371631) 331 659 1
(0.179835 0.410083 0.0427215 0.367361) 408 663 2
(0.0717742 0.464113 0.4568 0.00731274) 410 667 2
(0.0619083 0.0632639 0.405782 0.469046) 336 666 2
(0.363714 0.0373796 0.318143 0.280763) 336 520 1
(0.463237 0.173973 0.268382 0.0944085) 337 522 1
(0.456548 0.271726 0.152912 0.118815) 338 524 2
(0.320239 0.33988 0.322644 0.0172361) 339 526 2
(0.199266 0.226205 0.400367 0.174162) 375 597 1
(0.201972 0.0201619 0.399014 0.378852) 376 599 1
(0.0143986 0.492801 0.0926716 0.400129) 378 749 1
(0.195506 0.402247 0.320576 0.0816706) 379 605 2
(0.183238 0.408381 0.207205 0.201176) 380 607 2
(0.169817 0.415092 0.0812586 0.333833) 381 609 2
(0.270305 0.364847 0.334444 0.0304035) 382 759 1
(0.136776 0.431612 0.0842085 0.347403) 458 908 1
(0.0827821 0.200371 0.258238 0.458609) 383 762 1
(0.116074 0.441963 0.416049 0.0259137) 384 764 2
(0.124813 0.437593 0.149612 0.287981) 385 766 2
(0.0113083 0.0694585 0.494346 0.424887) 385 765 2
(0.168212 0.103243 0.312651 0.415894) 386 768 1
(0.191061 0.242493 0.161977 0.40447) 387 770 1
(0.177996 0.386942 0.0240596 0.411002) 388 772 1
(0.189569 0.405215 0.336024 0.069191) 389 774 2
(0.799366 0.0793949 0.100317 0.0209223) 390 627 1
(0.363142 0.226452 0.318429 0.0919771) 391 629 1
(0.430855 0.282631 0.284572 0.0019418) 392 631 1
(0.659867 0.170067 0.0999803 0.0700863) 393 633 2
(0.399941 0.281609 0.0184202 0.300029) 394 784 1
(0.178081 0.0770334 0.333926 0.410959) 396 785 2
(0.147415 0.0555947 0.370698 0.426292) 397 787 2
(0.145735 0.0539376 0.373195 0.427133) 398 789 2
(0.136011 0.0484567 0.383538 0.431994) 399 791 2
(0.0372039 0.101432 0.379966 0.481398) 400 793 2
(0.0563047 0.0646971 0.471848 0.407151) 400 795 2
(0.106614 0.0757485 0.446693 0.370944) 401 797 2
(0.294062 0.352969 0.347195 0.00577389) 402 799 1
(0.516164 0.0477414 0.241918 0.194177) 403 653 1
(0.523168 0.0814137 0.238416 0.157002) 404 655 1
(0.25278 0.371212 0.00239843 0.37361) 405 806 1
(0.270529 0.364736 0.26543 0.0993058) 406 808 2
(0.264903 0.367549 0.255089 0.11246) 407 810 2
(0.193884 0.233412 0.403058 0.169646) 483 812 1
(0.291748 0.146868 0.207258 0.354126) 409 814 1
(0.217065 0.391468 0.297368 0.0940997) 484 962 1
(0.205805 0.397097 0.389224 0.00787305) 485 964 1
(0.15907 0.420465 0.196438 0.224027) 412 820 2
(0.0538905 0.473055 0.21358 0.259475) 413 821 1
(0.243791 0.378105 0.298753 0.0793514) 450 746 2
(0.224486 0.387757 0.330633 0.0571243) 451 748 2
(0.233263 0.383368 0.36851 0.0148588) 452 750 2
(0.16181 0.419095 0.0202203 0.398875) 453 898 1
(0.0558518 0.472074 0.38744 0.0846343) 453 900 1
(0.211276 0.0750514 0.394362 0.319311) 454 754 1
(0.241411 0.270971 0.379294 0.108323) 455 756 1
(0.195301 0.394691 0.402349 0.00765877) 456 758 1
(0.1348 0.4326 0.376532 0.056068) 530 1053 1
(0.170589 0.339315 0.075391 0.414706) 456 907 1
(0.157307 0.421347 0.0220238 0.399323) 457 909 2
(0.0384327 0.0286452 0.452138 0.480784) 457 909 1
(0.140571 0.152198 0.277517 0.429714) 458 911 1
(0.152264 0.121309 0.302559 0.423868) 459 913 1
(0.163252 0.418374 0.0187272 0.399647) 461 917 2
(0.177505 0.411247 0.208927 0.202321) 462 919 2
(0.171198 0.414401 0.364872 0.0495287) 463 921 2
(0.257482 0.371259 0.366754 0.00450504) 464 923 2
(0.348216 0.307114 0.325892 0.018778) 465 776 1
(0.281274 0.263338 0.359363 0.0960252) 466 778 1
(0.281016 0.106682 0.359492 0.25281) 467 780 1
(0.152293 0.423853 0.101207 0.322647) 469 930 1
(0.337541 0.33123 0.149162 0.182067) 470 786 2
(0.158987 0.0504121 0.370095 0.420507) 471 934 2
(0.0181589 0.146007 0.490921 0.344913) 471 936 2
(0.236973 0.026928 0.381514 0.354586) 472 938 2
(0.132425 0.0418596 0.433788 0.391928) 473 940 2
(0.195009 0.402495 0.0305988 0.371897) 475 945 2
(0.158448 0.420776 0.287392 0.133384) 476 947 2
(0.504405 0.0365435 0.247798 0.211254) 477 800 1
(0.346597 0.195932 0.326702 0.13077) 478 802 1
(0.3575 0.209325 0.32125 0.111925) 479 804 1
(0.0340133 0.482993 0.3134 0.169594) 480 955 2
(0.176714 0.0145823 0.39706 0.411643) 481 954 2
(0.265047 0.0777877 0.289689 0.367477) 481 957 1
(0.238678 0.291727 0.0889338 0.380661) 482 959 1
(0.0842691 0.124459 0.333406 0.457865) 483 961 1
(0.289309 0.148677 0.355345 0.206669) 559 963 1
(0.00797665 0.496012 0.104803 0.391209) 561 1113 1
(0.365238 0.0794413 0.23794 0.317381) 486 967 1
(0.313125 0.343437 0.110004 0.233433) 488 822 2
(0.249231 0.375385 0.0777776 0.297607) 525 895 2
(0.269539 0.365231 0.14276 0.222471) 526 897 2
(0.180747 0.409626 0.21336 0.196266) 527 899 2
(0.0387811 0.480609 0.0936307 0.386979) 528 1047 1
(0.195166 0.221147 0.402417 0.181269) 528 901 1
(0.216543 0.391729 0.104539 0.287189) 529 903 2
(0.220706 0.389647 0.00656973 0.383077) 530 1051 1
(0.0673095 0.447683 0.018662 0.466345) 529 1052 1
(0.0926363 0.453682 0.316677 0.137005) 530 1054 2
(0.00694152 0.00630049 0.496529 0.490229) 530 1053 2
(0.204594 0.287109 0.110594 0.397703) 531 1056 1
(0.22865 0.358074 0.0276014 0.385675) 532 1058 1
(0.0555684 0.0762573 0.395958 0.472216) 534 1059 2
(0.210344 0.262961 0.131867 0.394828) 535 1064 1
(0.198511 0.400744 0.0241342 0.37661) 537 1068 2
(0.206319 0.39684 0.234581 0.162259) 538 1070 2
(0.161439 0.419281 0.131872 0.287409) 540 1071 1
(0.144225 0.427888 0.0756813 0.352206) 541 1073 1
(0.0766399 0.46168 0.101579 0.360101) 542 1075 1
(0.0858891 0.457055 0.075821 0.381235) 543 1077 1
(0.193026 0.403487 0.29601 0.107477) 544 933 2
(0.382865 0.00759261 0.308568 0.300975) 544 1081 2
(0.470412 0.120472 0.144322 0.264794) 545 1084 1
(0.436951 0.22906 0.0524644 0.281524) 546 1086 1
(0.464924 0.0311062 0.267538 0.236432) 547 1087 2
(0.220534 0.348576 0.0411573 0.389733) 549 1092 1
(0.189917 0.00773921 0.397302 0.405041) 550 1094 1
(0.106211 0.0495471 0.397348 0.446895) 552 1095 2
(0.179369 0.410315 0.130594 0.279721) 553 1100 2
(0.171019 0.41449 0.238417 0.176074) 554 1102 2
(0.155147 0.422427 0.326267 0.09616) 555 1104 2
(0.190947 0.404527 0.25731 0.147216) 556 1106 2
(0.21751 0.391245 0.103785 0.28746) 557 1108 2
(0.0627691 0.0985156 0.3701 0.468615) 558 1107 2
(0.146317 0.0328846 0.426841 0.393957) 558 1109 2
(0.0662562 0.00980355 0.457068 0.466872) 560 1114 1
(0.00317087 0.0395386 0.458876 0.498415) 562 1115 2
(0.282594 0.358703 0.129385 0.229318) 562 969 2
(0.257204 0.371398 0.235439 0.135959) 563 971 2
(0.300308 0.349846 0.204833 0.145013) 600 1044 2
(0.312377 0.343811 0.240348 0.103464) 601 1046 2
(0.22725 0.386375 0.0845804 0.301795) 602 1194 1
(0.0739807 0.46301 0.064436 0.398574) 603 1196 1
(0.452453 0.273773 0.0290403 0.244733) 603 1050 2
(0.489634 0.255183 0.113901 0.141282) 604 1198 1
(0.0195518 0.311599 0.490224 0.178625) 679 1201 1
(0.298751 0.29373 0.0568947 0.350624) 605 1203 1
(0.16505 0.131279 0.417475 0.286196) 606 1204 2
(0.382035 0.308982 0.186818 0.122164) 608 1209 2
(0.226646 0.0328066 0.35387 0.386677) 610 1210 2
(0.221192 0.113124 0.27628 0.389404) 611 1215 1
(0.209505 0.395247 0.0841828 0.311065) 613 1219 2
(0.330723 0.334639 0.168581 0.166058) 614 1072 2
(0.290909 0.354546 0.109276 0.245269) 615 1074 2
(0.28467 0.357665 0.0661652 0.2915) 616 1076 2
(0.268595 0.365703 0.0976175 0.268085) 617 1078 2
(0.282481 0.358759 0.200421 0.158338) 618 1080 2
(0.253791 0.373104 0.0482095 0.324895) 619 1228 1
(0.191809 0.404095 0.125924 0.278171) 620 1230 1
(0.181445 0.409278 0.102866 0.306412) 621 1232 1
(0.324409 0.337796 0.234536 0.103259) 622 1088 2
(0.294587 0.352706 0.218001 0.134706) 623 1090 2
(0.234548 0.382726 0.0726876 0.310039) 624 1241 2
(0.227095 0.305717 0.0807354 0.386452) 625 1243 1
(0.0892929 0.0598871 0.455354 0.395466) 626 1244 2
(0.195323 0.402338 0.111808 0.29053) 628 1249 2
(0.195884 0.00120878 0.402058 0.400849) 704 1251 1
(0.0339438 0.483028 0.22306 0.259968) 631 1255 2
(0.115288 0.420742 0.0216135 0.442356) 632 1257 1
(0.134703 0.280337 0.152311 0.432648) 633 1259 1
(0.110929 0.164779 0.279756 0.444535) 634 1261 1
(0.102377 0.448812 0.00197127 0.44684) 636 1265 2
(0.315728 0.342136 0.285759 0.0563772) 637 1267 2
(0.162087 0.418956 0.0328098 0.386146) 638 1266 1
(0.116981 0.441509 0.383267 0.0582429) 638 1268 1
(0.230916 0.384542 0.0655606 0.318981) 676 1341 1
(0.31256 0.34372 0.168385 0.175334) 677 1197 2
(0.424814 0.287593 0.102378 0.185215) 678 1199 2
(0.638991 0.180504 0.0951815 0.0853228) 679 1349 1
(0.293798 0.353101 0.292536 0.0605649) 680 1351 1
(0.247769 0.376116 0.310002 0.0661133) 681 1353 1
(0.555706 0.222147 0.0255018 0.196645) 683 1355 1
(0.428798 0.248596 0.0370051 0.285601) 685 1362 1
(0.172253 0.0657612 0.348112 0.413874) 687 1363 2
(0.332363 0.201854 0.131964 0.333819) 688 1368 1
(0.133643 0.0286683 0.40451 0.433179) 690 1369 2
(0.0693999 0.432997 0.0323033 0.4653) 691 1374 1
(0.257899 0.37105 0.00674318 0.364307) 692 1373 1
(0.0686833 0.465658 0.331499 0.13416) 692 1375 1
(0.354295 0.0259335 0.322852 0.296919) 693 1229 1
(0.338271 0.278556 0.330865 0.0523085) 694 1231 1
(0.308565 0.345717 0.154616 0.191102) 695 1233 2
(0.271229 0.364385 0.345198 0.0191872) 696 1235 2
(0.0554889 0.472256 0.0805401 0.391715) 697 1383 1
(0.0486761 0.475662 0.399116 0.0765455) 697 1385 1
(0.525221 0.0700383 0.167351 0.237389) 699 1390 1
(0.0109623 0.137794 0.494519 0.356725) 700 1391 2
(0.258638 0.370681 0.168539 0.202141) 702 1396 2
(0.259606 0.318171 0.0520255 0.370197) 703 1398 1
(0.157354 0.421323 0.357226 0.0640965) 705 1402 2
(0.219621 0.0146437 0.390189 0.375546) 706 1403 2
(0.257488 0.116282 0.254973 0.371256) 708 1408 1
(0.000455804 0.499772 0.102568 0.397204) 710 1412 2
(0.147409 0.155166 0.27113 0.426296) 711 1414 1
(0.287514 0.0990616 0.257181 0.356243) 712 1416 1
(0.272635 0.359766 0.363682 0.00391607) 713 1269 1
(0.252221 0.37389 0.199834 0.174055) 714 1271 2
(0.256889 0.371556 0.332824 0.0387317) 715 1273 2
(0.22983 0.204345 0.18074 0.385085) 750 1491 1
(0.000118368 0.499941 0.363353 0.136588) 750 1490 1
(0.261656 0.059887 0.369172 0.309285) 751 1344 1
(0.319066 0.298024 0.340467 0.0424429) 753 1348 1
(0.191872 0.404064 0.394241 0.00982289) 755 1500 1
(0.252802 0.086734 0.373599 0.286865) 756 1354 1
(0.290426 0.287755 0.354787 0.0670316) 757 1356 1
(0.838034 0.0809829 0.0190454 0.0619375) 759 1509 2
(0.577153 0.211423 0.138943 0.0724802) 760 1511 2
(0.657544 0.0640763 0.107152 0.171228) 761 1513 1
(0.177143 0.240064 0.411429 0.171364) 762 1514 2
(0.100789 0.211312 0.449606 0.238294) 763 1516 2
(0.239744 0.265443 0.114685 0.380128) 765 1521 1
(0.189125 0.226121 0.179316 0.405437) 767 1525 1
(0.0593603 0.0558816 0.47032 0.414438) 768 1526 2
(0.121123 0.199396 0.240043 0.439438) 770 1531 1
(0.134541 0.43273 0.432511 0.000218797) 770 1530 1
(0.192507 0.271013 0.403747 0.132734) 771 1384 1
(0.190773 0.404613 0.233915 0.170699) 772 1386 2
(0.156833 0.421584 0.400901 0.020683) 772 1534 1
(0.198272 0.250112 0.400864 0.150752) 773 1388 1
(0.254669 0.372666 0.214073 0.158593) 774 1390 2
(0.276066 0.361967 0.0220765 0.33989) 775 1538 1
(0.705275 0.0198634 0.127499 0.147363) 776 1543 1
(0.0286179 0.235133 0.250558 0.485691) 778 1544 2
(0.0947536 0.228609 0.224014 0.452623) 779 1546 2
(0.852992 0.0735038 0.0299702 0.0435335) 780 1402 2
(0.252156 0.373922 0.200271 0.173651) 782 1552 1
(0.510038 0.0767851 0.244981 0.168196) 783 1408 1
(0.655286 0.0109568 0.1614 0.172357) 785 1561 1
(0.331662 0.0329881 0.334169 0.301181) 787 1564 2
(0.247386 0.119276 0.257031 0.376307) 788 1567 1
(0.589493 0.0597505 0.205254 0.145503) 789 1420 1
(0.11838 0.44081 0.143735 0.297075) 790 1571 2
(0.0599019 0.0956857 0.470049 0.374363) 790 1570 2
(0.12225 0.0482178 0.438875 0.390657) 825 1639 2
(0.335012 0.0987297 0.233764 0.332494) 826 1642 1
(0.265463 0.299871 0.0673978 0.367268) 827 1644 1
(0.0419098 0.152409 0.479045 0.326636) 827 1643 2
(0.352521 0.166446 0.157293 0.323739) 828 1646 1
(0.158928 0.232316 0.188221 0.420536) 829 1648 1
(0.201797 0.174112 0.22499 0.399102) 830 1650 1
(0.149163 0.425419 0.202576 0.222842) 829 1499 2
(0.139387 0.430306 0.293387 0.136919) 830 1501 2
(0.120797 0.439602 0.0652244 0.374377) 756 1503 2
(0.294308 0.352846 0.348846 0.0039997) 831 1651 1
(0.190151 0.0780651 0.404924 0.326859) 832 1505 1
(0.192705 0.116084 0.403648 0.287563) 833 1507 1
(0.236092 0.381954 0.36793 0.0140242) 834 1657 1
(0.134737 0.432631 0.349152 0.0834792) 835 1659 1
(0.200087 0.399957 0.392413 0.00754353) 836 1661 1
(0.22884 0.0133408 0.38558 0.372239) 837 1515 1
(0.245091 0.377454 0.0370949 0.34036) 839 1519 2
(0.256286 0.032282 0.339575 0.371857) 840 1670 1
(0.204053 0.397973 0.167566 0.230407) 842 1674 2
(0.206205 0.276724 0.120174 0.396897) 843 1676 1
(0.225496 0.0680304 0.319222 0.387252) 844 1678 1
(0.229215 0.0249081 0.385393 0.360485) 845 1679 2
(0.25084 0.0794608 0.37458 0.295119) 846 1533 1
(0.285328 0.193284 0.357336 0.164052) 847 1535 1
(0.281106 0.359447 0.0107821 0.348665) 848 1537 2
(0.266795 0.366603 0.194802 0.171801) 849 1539 2
(0.252798 0.373601 0.36718 0.00642125) 850 1541 2
(0.125249 0.437376 0.355301 0.0820744) 850 1689 1
(0.289644 0.0273577 0.355178 0.32782) 851 1543 1
(0.330029 0.108645 0.334985 0.22634) 852 1545 1
(0.163894 0.418053 0.106122 0.311931) 854 1695 1
(0.25811 0.370945 0.233151 0.137794) 856 1553 2
(0.196931 0.0426631 0.401534 0.358871) 857 1555 1
(0.28385 0.0902657 0.358075 0.26781) 858 1557 1
(0.208255 0.395872 0.358351 0.037521) 861 1711 1
(0.558906 0.00607352 0.220547 0.214474) 862 1565 1
(0.050149 0.474926 0.194639 0.280287) 938 1862 1
(0.0643788 0.464872 0.00293883 0.467811) 863 1716 1
(0.183422 0.408289 0.040118 0.368171) 864 1718 2
(0.153036 0.0200185 0.423482 0.403463) 864 1717 2
(0.223508 0.0782198 0.388246 0.310026) 975 1789 1
(0.371636 0.314182 0.137199 0.176983) 902 1793 2
(0.579094 0.210453 0.190367 0.0200858) 903 1795 2
(0.0357948 0.482103 0.0236244 0.458478) 980 1945 1
(0.0451894 0.477405 0.139311 0.338094) 981 1801 2
(0.248703 0.375649 0.245353 0.130296) 907 1803 2
(0.0590532 0.364129 0.470473 0.106345) 907 1654 1
(0.21931 0.390345 0.196293 0.194052) 908 1656 2
(0.0315464 0.484227 0.0950682 0.389159) 909 1804 1
(0.23294 0.136415 0.38353 0.247115) 909 1658 1
(0.285291 0.345753 0.357355 0.0116015) 910 1660 1
(0.245993 0.377004 0.155613 0.22139) 911 1662 2
(0.27155 0.0582077 0.306017 0.364225) 912 1810 2
(0.0126025 0.368816 0.493699 0.124882) 912 1664 1
(0.229397 0.385302 0.3461 0.0392013) 913 1666 2
(0.182127 0.183264 0.408937 0.225673) 913 1666 1
(0.263551 0.368225 0.256866 0.111359) 914 1668 2
(0.0685288 0.465736 0.355531 0.110205) 914 1816 1
(0.198649 0.122885 0.277791 0.400676) 915 1819 1
(0.0228128 0.10447 0.488594 0.384123) 916 1820 2
(0.260987 0.369506 0.109948 0.259559) 918 1825 2
(0.276729 0.361636 0.200161 0.161475) 919 1827 2
(0.463551 0.268225 0.178586 0.0896388) 920 1829 2
(0.331762 0.179052 0.334119 0.155067) 921 1682 1
(0.279324 0.238403 0.360338 0.121935) 922 1684 1
(0.285553 0.330361 0.357223 0.0268629) 923 1686 1
(0.278763 0.360619 0.06098 0.299639) 924 1688 2
(0.266788 0.366606 0.159823 0.206783) 925 1690 2
(0.260642 0.369679 0.29872 0.0709588) 926 1692 2
(0.17049 0.414755 0.0441105 0.370644) 927 1840 1
(0.200404 0.399798 0.00126785 0.39853) 928 1842 1
(0.195019 0.40249 0.249335 0.153156) 929 1698 2
(0.144709 0.427646 0.262284 0.165361) 857 1704 2
(0.293858 0.353071 0.249159 0.103911) 933 1706 2
(0.242464 0.378768 0.200471 0.178297) 935 1710 2
(0.204809 0.397596 0.128343 0.269252) 861 1712 2
(0.27371 0.363145 0.0991028 0.264042) 937 1860 1
(0.570685 0.214657 0.209609 0.00504872) 1012 2011 1
(0.417527 0.291237 0.101041 0.190196) 1013 1865 2
(0.15346 0.42327 0.37296 0.0503101) 1013 2013 1
(0.0192394 0.363208 0.127172 0.49038) 939 1867 1
(0.212683 0.393659 0.252709 0.140949) 976 1939 1
(0.0485455 0.475727 0.15 0.325727) 978 1941 1
(0.177108 0.411446 0.217995 0.193451) 979 1946 2
(0.139215 0.430393 0.298296 0.132096) 980 1948 2
(0.233489 0.383256 0.191885 0.19137) 981 1950 2
(0.109375 0.0777056 0.367607 0.445312) 982 1949 2
(0.17577 0.0523537 0.412115 0.359761) 982 1951 2
(0.157771 0.039736 0.421115 0.381379) 983 1953 2
(0.120543 0.0384079 0.439728 0.40132) 984 1955 2
(0.225607 0.387197 0.280222 0.106975) 1061 1960 2
(0.27584 0.36208 0.0995378 0.262542) 986 1957 1
(0.25467 0.372665 0.102862 0.269803) 987 1959 1
(0.201765 0.399118 0.251723 0.147395) 987 1961 1
(0.322269 0.338865 0.0576638 0.281202) 988 1815 2
(0.00644242 0.496779 0.30452 0.192259) 988 1963 1
(0.289801 0.114786 0.355099 0.240313) 989 1817 1
(0.0644235 0.161534 0.467788 0.306255) 990 1967 2
(0.258422 0.0192336 0.370789 0.351555) 991 1969 2
(0.328384 0.070528 0.26528 0.335808) 992 1972 1
(0.573596 0.10465 0.108552 0.213202) 993 1974 1
(0.604527 0.0934983 0.104238 0.197737) 994 1976 1
(0.599386 0.200307 0.0348053 0.165502) 995 1829 2
(0.281097 0.33939 0.359452 0.0200612) 996 1831 1
(0.247596 0.296631 0.376202 0.0795706) 997 1833 1
(0.248833 0.195436 0.375583 0.180148) 998 1835 1
(0.256247 0.0956655 0.276211 0.371877) 999 1986 1
(0.187069 0.120352 0.406465 0.286113) 1000 1987 2
(0.0710107 0.193434 0.271061 0.464495) 1002 1989 2
(0.205453 0.0864743 0.397273 0.310799) 1002 1843 1
(0.234462 0.196378 0.382769 0.186391) 1003 1845 1
(0.166429 0.23738 0.416785 0.179405) 1004 1847 1
(0.0125035 0.0969988 0.396749 0.493748) 930 1849 1
(0.0443402 0.47783 0.083896 0.393934) 932 1853 2
(0.261293 0.369353 0.360439 0.00891411) 934 1857 2
(0.126358 0.436821 0.0639982 0.372823) 1011 2007 1
(0.246862 0.376569 0.283161 0.0934074) 1011 2009 1
(0.0639331 0.454698 0.0133351 0.468033) 1010 2008 1
(0.277202 0.32987 0.361399 0.0315288) 1086 2010 1
(0.519935 0.240032 0.13493 0.105103) 1087 2012 2
(0.53662 0.23169 0.157348 0.0743422) 1088 2014 2
(0.322023 0.338988 0.281299 0.0576889) 1050 1938 2
(0.273188 0.363406 0.244853 0.118553) 1051 1940 2
(0.104712 0.218153 0.447644 0.229491) 1052 1942 1
(0.232327 0.383836 0.17478 0.209057) 1053 2093 2
(0.247374 0.376313 0.100128 0.276185) 1054 2095 2
(0.236381 0.381809 0.112643 0.269167) 1055 2097 2
(0.219087 0.390457 0.267226 0.12323) 1056 2099 2
(0.262195 0.36199 0.00691302 0.368903) 1057 2101 1
(0.251564 0.229757 0.144461 0.374218) 1058 2103 1
(0.122734 0.438633 0.205805 0.232827) 1060 2107 2
(0.304375 0.347813 0.111078 0.236735) 1061 2108 1
(0.546328 0.0742555 0.226836 0.15258) 1062 1962 1
(0.418492 0.290754 0.0764578 0.214296) 1063 1964 2
(0.37433 0.312835 0.301815 0.0110201) 1064 1966 2
(0.00300596 0.498497 0.313459 0.185038) 1064 2114 1
(0.364887 0.317557 0.280656 0.0369001) 1065 2116 1
(0.243743 0.106328 0.2718 0.378129) 1066 2119 1
(0.340525 0.178385 0.151352 0.329738) 1067 2121 1
(0.33384 0.33308 0.301048 0.0320316) 1068 2123 2
(0.160758 0.419621 0.0572047 0.362416) 1069 2122 1
(0.133541 0.433229 0.348704 0.0845253) 1069 2124 1
(0.21057 0.0314828 0.394715 0.363232) 1070 1978 1
(0.0511319 0.474434 0.395331 0.0791026) 1071 2128 1
(0.259607 0.370197 0.271044 0.0991523) 1073 2133 2
(0.249791 0.30329 0.071815 0.375105) 1074 2135 1
(0.236075 0.180058 0.201904 0.381963) 1075 2137 1
(0.431734 0.242576 0.284133 0.0415573) 1076 1990 1
(0.380074 0.306748 0.309963 0.00321469) 1077 1992 1
(0.280463 0.359768 0.161908 0.19786) 1078 1994 2
(0.287685 0.356157 0.00426487 0.351892) 1079 2142 1
(0.176472 0.411764 0.0360968 0.375667) 1005 1998 2
(0.201705 0.0790282 0.320119 0.399147) 1006 1997 2
(0.0191567 0.335211 0.490422 0.155211) 1081 2000 1
(0.129931 0.435035 0.176171 0.258864) 1082 2002 2
(0.0969313 0.451534 0.344189 0.107345) 1083 2004 2