/*--------------------------------*- C++ -*----------------------------------*\
  =========                 |
  \\      /  F ield         | OpenFOAM: The Open Source CFD Toolbox
   \\    /   O peration     | Website:  https://openfoam.org
    \\  /    A nd           | Version:  12
     \\/     M anipulation  |
\*---------------------------------------------------------------------------*/
FoamFile
{
    format      ascii;
    class       vectorField;
    location    "0.75/lagrangian/cloud";
    object      U;
}
// * * * * * * * * * * * * * * * * * * * * * * * * * * * * * * * * * * * * * //


2022
(
(-4.23448e-05 -0.0221164 0)
(0.000704483 -0.0180171 0)
(-0.000631193 -0.0282527 0)
(1.30204e-05 -0.0246995 0)
(-0.00147888 -0.0257043 0)
(0.00037519 -0.0226675 0)
(0.000380416 -0.0228888 0)
(0.000902626 -0.0233534 0)
(0.000493909 -0.0236242 0)
(5.80023e-05 -0.0242328 0)
(0.0013881 -0.0178581 0)
(-0.000587728 -0.0244513 0)
(-0.000521762 -0.0233299 0)
(2.73551e-05 -0.0274671 0)
(-0.00116712 -0.0281322 0)
(-0.00124594 -0.0238936 0)
(-0.000185633 -0.0255934 0)
(-0.000202473 -0.0260511 0)
(-4.1991e-05 -0.0264191 0)
(-0.000385783 -0.0242116 0)
(-0.000976362 -0.0234709 0)
(0.000120756 -0.0246887 0)
(0.000610119 -0.0244055 0)
(0.000161233 -0.0290823 0)
(0.000583018 -0.0296934 0)
(0.000651106 -0.0267697 0)
(0.00140634 -0.0285847 0)
(0.000340808 -0.0279549 0)
(-0.000734218 -0.0234516 0)
(-0.000258077 -0.0236556 0)
(0.000955934 -0.0244502 0)
(-8.37049e-05 -0.0253655 0)
(0.00100652 -0.02809 0)
(-7.90587e-05 -0.0297091 0)
(-0.000514655 -0.0290826 0)
(-0.000164802 -0.0279415 0)
(0.000167826 -0.0270914 0)
(0.000238426 -0.0270189 0)
(0.000242749 -0.0285824 0)
(-0.000794201 -0.0251843 0)
(-0.000491136 -0.0269412 0)
(0.000596464 -0.0258227 0)
(0.00123557 -0.0280025 0)
(0.000774372 -0.0282564 0)
(0.00097909 -0.0298562 0)
(0.000248375 -0.0291208 0)
(0.00149714 -0.0290751 0)
(0.000704164 -0.0318818 0)
(-0.000478866 -0.0342396 0)
(0.000313307 -0.0349615 0)
(0.000416199 -0.0352892 0)
(0.00108912 -0.0344309 0)
(-0.000271286 -0.0344249 0)
(0.000454686 -0.0348945 0)
(-0.00062826 -0.0272103 0)
(0.000353007 -0.0248458 0)
(0.00126052 -0.0238718 0)
(0.00145282 -0.0254812 0)
(0.000796295 -0.0211393 0)
(0.00108237 -0.0223949 0)
(-0.00244896 -0.0191014 0)
(0.00132318 -0.0215757 0)
(8.9073e-05 -0.024466 0)
(0.000441463 -0.0196705 0)
(0.000172755 -0.0193504 0)
(4.86501e-05 -0.0196431 0)
(0.00100957 -0.0192526 0)
(0.00081506 -0.0192532 0)
(0.000338965 -0.024735 0)
(-0.000460101 -0.0241207 0)
(0.000239668 -0.0240484 0)
(0.000606602 -0.023759 0)
(0.000606828 -0.02044 0)
(-0.000467869 -0.0177372 0)
(-0.000795403 -0.022118 0)
(0.000224458 -0.0254361 0)
(-0.00113075 -0.0241877 0)
(-0.0012099 -0.0255782 0)
(0.000943496 -0.025019 0)
(0.000150526 -0.0226835 0)
(0.000535107 -0.0212747 0)
(0.000887024 -0.0278066 0)
(0.00108362 -0.0297552 0)
(-0.000127808 -0.0256358 0)
(5.63391e-05 -0.0253509 0)
(0.000361065 -0.0254781 0)
(0.00130985 -0.0247365 0)
(0.00139528 -0.0249712 0)
(-0.00130376 -0.0280439 0)
(0.000287173 -0.0272345 0)
(-0.000462547 -0.0262681 0)
(0.000754601 -0.0286318 0)
(0.00167348 -0.029098 0)
(0.00169567 -0.0312678 0)
(0.00217496 -0.0312803 0)
(0.00306882 -0.030738 0)
(0.00195061 -0.0325989 0)
(0.00101123 -0.0331593 0)
(0.000970032 -0.0363248 0)
(0.000439238 -0.0377731 0)
(-0.0010624 -0.0298258 0)
(-0.000115265 -0.0224606 0)
(-0.000121588 -0.0299579 0)
(0.000695627 -0.0282793 0)
(1.76668e-07 -0.0286554 0)
(0.000124035 -0.0306221 0)
(7.01483e-05 -0.0305543 0)
(-0.000142644 -0.0337032 0)
(0.000289801 -0.0341788 0)
(-0.000477487 -0.0280766 0)
(0.000913756 -0.0269693 0)
(0.000459212 -0.0267927 0)
(0.0035327 -0.0253882 0)
(0.00195005 -0.0254938 0)
(0.00119567 -0.0275947 0)
(0.000379532 -0.0275189 0)
(-0.000498903 -0.0280294 0)
(-0.000498142 -0.0290151 0)
(0.000127517 -0.0234317 0)
(-2.95984e-05 -0.0349739 0)
(7.78957e-05 -0.0364958 0)
(0.000715001 -0.0362946 0)
(0.000706378 -0.0330444 0)
(0.000413719 -0.0327118 0)
(0.000456042 -0.0333282 0)
(0.000310493 -0.0340123 0)
(0.000573828 -0.0357365 0)
(0.001144 -0.0336543 0)
(-0.000475852 -0.0368969 0)
(-0.000875039 -0.0400086 0)
(-0.000690401 -0.0385725 0)
(0.000578744 -0.0350316 0)
(7.17424e-05 -0.03828 0)
(0.000645626 -0.0362331 0)
(0.00109359 -0.0353388 0)
(0.000255031 -0.0337315 0)
(0.000154673 -0.0337207 0)
(0.00052762 -0.032247 0)
(0.000791513 -0.0315422 0)
(-0.000113656 -0.0371707 0)
(0.000340274 -0.0359877 0)
(0.000186749 -0.0336995 0)
(0.000648919 -0.0328066 0)
(0.000913382 -0.0330615 0)
(-2.67259e-05 -0.0353107 0)
(-0.000980953 -0.032066 0)
(-0.00024396 -0.0344732 0)
(-0.000142355 -0.0347036 0)
(-0.000961038 -0.0330972 0)
(0.000108321 -0.0321237 0)
(0.0012489 -0.0284197 0)
(0.00188166 -0.0304104 0)
(0.00109427 -0.0305938 0)
(0.00191766 -0.0300941 0)
(0.000139972 -0.0309822 0)
(0.000754835 -0.0318895 0)
(-0.00135943 -0.0333817 0)
(-1.03381e-05 -0.0346963 0)
(-0.00103274 -0.0353387 0)
(-0.00125381 -0.03533 0)
(-0.000731105 -0.0367488 0)
(-0.000275347 -0.0393591 0)
(0.000409335 -0.0383081 0)
(0.000971918 -0.0376408 0)
(0.00068495 -0.0387812 0)
(0.000506099 -0.0387982 0)
(0.000239985 -0.0391647 0)
(-0.000256767 -0.0395494 0)
(-0.000892126 -0.0400628 0)
(-0.000386716 -0.0398152 0)
(-0.000311159 -0.0388499 0)
(9.6759e-05 -0.0378636 0)
(-0.000182805 -0.0394028 0)
(0.00023753 -0.0394063 0)
(0.000418615 -0.03808 0)
(0.000315185 -0.0369568 0)
(0.000226633 -0.0375536 0)
(0.000417536 -0.0385897 0)
(-6.33611e-05 -0.0390918 0)
(-0.000246897 -0.0376977 0)
(0.00111777 -0.0357901 0)
(0.00095038 -0.0364816 0)
(-0.000913609 -0.0378065 0)
(-7.69023e-05 -0.0355051 0)
(0.000106273 -0.0364262 0)
(0.000137745 -0.0351497 0)
(-0.000194191 -0.0342872 0)
(3.17944e-05 -0.0346207 0)
(0.000141803 -0.0335664 0)
(0.00087539 -0.0328908 0)
(0.000530857 -0.0330616 0)
(0.0005885 -0.035343 0)
(0.000875946 -0.0377627 0)
(0.00059842 -0.0362566 0)
(0.000819526 -0.035855 0)
(0.000535856 -0.0386579 0)
(0.000580606 -0.0406345 0)
(0.000949306 -0.0361155 0)
(0.00165054 -0.0356951 0)
(-0.00147998 -0.0395131 0)
(-0.00015013 -0.0400817 0)
(0.000889535 -0.0399963 0)
(0.000262549 -0.0385764 0)
(-0.000304209 -0.0381676 0)
(-1.56985e-05 -0.0379133 0)
(-0.000179125 -0.0373251 0)
(6.27966e-05 -0.0372563 0)
(-0.000256984 -0.0375383 0)
(-0.00132956 -0.0370339 0)
(-0.000221325 -0.0392594 0)
(0.000334541 -0.0397802 0)
(0.000450479 -0.0388646 0)
(0.0010074 -0.0377167 0)
(0.000679341 -0.0382854 0)
(7.84003e-05 -0.0392869 0)
(-0.000595982 -0.0407031 0)
(0.00126741 -0.0380489 0)
(0.0012988 -0.0351072 0)
(0.000421281 -0.0343035 0)
(0.000459209 -0.0360946 0)
(0.000469052 -0.0377707 0)
(0.000347633 -0.0377409 0)
(-3.00754e-05 -0.0370658 0)
(-0.000264395 -0.037918 0)
(-0.000300296 -0.0360876 0)
(0.000210926 -0.0355343 0)
(0.000125596 -0.0351367 0)
(0.000261233 -0.0351333 0)
(0.000221659 -0.0359941 0)
(0.000895272 -0.035989 0)
(0.000609449 -0.0384183 0)
(0.000716716 -0.0390967 0)
(0.000834857 -0.0406049 0)
(0.00158737 -0.039037 0)
(0.0013628 -0.0380244 0)
(0.00097278 -0.0395996 0)
(0.000240425 -0.0409365 0)
(-0.000248944 -0.0415712 0)
(0.00126864 -0.0390342 0)
(-0.000271302 -0.0393643 0)
(0.000154434 -0.040719 0)
(-0.000174324 -0.0399919 0)
(0.000545247 -0.0394099 0)
(0.000108372 -0.0389001 0)
(-0.000584999 -0.0387893 0)
(-0.000395571 -0.0382158 0)
(0.000200851 -0.0386044 0)
(0.000679509 -0.0377514 0)
(0.000507445 -0.0375498 0)
(-0.00018819 -0.0372631 0)
(0.000393074 -0.0377811 0)
(0.000399713 -0.0396335 0)
(0.00141179 -0.0396348 0)
(0.000325751 -0.0397954 0)
(-0.000195153 -0.0406469 0)
(-0.000335247 -0.0406597 0)
(-0.000734235 -0.0400837 0)
(-0.000235534 -0.0419008 0)
(0.000599275 -0.0420189 0)
(-0.000233168 -0.0418118 0)
(0.000518958 -0.0413731 0)
(0.000661824 -0.0395619 0)
(0.000304682 -0.0377606 0)
(0.000318575 -0.0383257 0)
(0.000263178 -0.0388682 0)
(-0.000259096 -0.0379941 0)
(-0.000991388 -0.0364722 0)
(-0.00109006 -0.0362333 0)
(-0.000575117 -0.0376587 0)
(-0.000848945 -0.0361154 0)
(-0.00126293 -0.0411839 0)
(-0.00128427 -0.0417721 0)
(-0.00107421 -0.0442336 0)
(0.00133093 -0.0419242 0)
(0.00179481 -0.0410146 0)
(0.000875593 -0.0450154 0)
(4.06544e-05 -0.0444423 0)
(0.000106584 -0.0434812 0)
(-0.000137749 -0.0425283 0)
(0.000548057 -0.0423994 0)
(-0.000303943 -0.0413941 0)
(-3.82668e-07 -0.0407815 0)
(-0.000165172 -0.0406713 0)
(0.000286962 -0.0393524 0)
(0.000323516 -0.0393952 0)
(-0.00028782 -0.0404228 0)
(8.17907e-07 -0.0390452 0)
(-5.40493e-05 -0.0385316 0)
(0.000357575 -0.038891 0)
(0.000161557 -0.0396218 0)
(-0.00014829 -0.0393257 0)
(0.000429383 -0.0383025 0)
(0.000433539 -0.0389793 0)
(0.000433401 -0.0401445 0)
(0.000702669 -0.0397077 0)
(0.000611483 -0.0373465 0)
(0.000700947 -0.0373419 0)
(-0.000948591 -0.0390128 0)
(-1.05478e-05 -0.0394073 0)
(0.000581538 -0.0395639 0)
(0.000407014 -0.0395722 0)
(-0.000309486 -0.0412094 0)
(0.00080799 -0.0409673 0)
(0.000194549 -0.0412615 0)
(0.000371091 -0.0417327 0)
(0.000450425 -0.042627 0)
(-4.62308e-05 -0.0398276 0)
(0.000373182 -0.0389051 0)
(0.000564185 -0.0393754 0)
(-2.5557e-05 -0.0402292 0)
(0.000486088 -0.0435347 0)
(0.000854474 -0.0439889 0)
(0.000801048 -0.0427396 0)
(0.000618065 -0.0424176 0)
(-0.00105779 -0.0462231 0)
(0.000732494 -0.0472611 0)
(-0.000121103 -0.0457116 0)
(-8.28969e-05 -0.0430905 0)
(-9.88635e-05 -0.0426831 0)
(0.000760637 -0.0423916 0)
(3.44324e-05 -0.0413796 0)
(-3.80308e-05 -0.0407126 0)
(-0.000272078 -0.0402646 0)
(6.28716e-05 -0.0375008 0)
(0.000165586 -0.0375671 0)
(0.000142348 -0.0399494 0)
(0.000684082 -0.0409584 0)
(-0.000336018 -0.0406389 0)
(0.00016704 -0.0410783 0)
(0.000320122 -0.0398625 0)
(-0.000174279 -0.0391877 0)
(4.24211e-05 -0.0395167 0)
(-1.05545e-05 -0.0390248 0)
(-0.000301231 -0.038888 0)
(-8.94523e-05 -0.0387286 0)
(0.000121791 -0.0392018 0)
(0.00076244 -0.0379487 0)
(0.00167298 -0.0376894 0)
(5.64995e-05 -0.0389184 0)
(-0.000223077 -0.03778 0)
(-0.000174515 -0.0405865 0)
(-0.000100813 -0.0424966 0)
(-0.000277089 -0.0459513 0)
(-9.2716e-05 -0.0463833 0)
(0.000110115 -0.0475375 0)
(-0.000882075 -0.0438162 0)
(-0.000761315 -0.0433704 0)
(9.04736e-05 -0.0470783 0)
(0.000682 -0.0458595 0)
(0.000199003 -0.0465335 0)
(0.000134733 -0.0445908 0)
(0.000770203 -0.0460954 0)
(-0.000326582 -0.0456695 0)
(-0.000389755 -0.0435246 0)
(-0.000654526 -0.0425485 0)
(1.7213e-05 -0.0418973 0)
(-0.000245221 -0.0420946 0)
(-0.000226765 -0.0414552 0)
(-8.21394e-05 -0.0412157 0)
(0.00014616 -0.0413427 0)
(0.00068757 -0.0415744 0)
(0.000437276 -0.0399338 0)
(-0.000236127 -0.0406903 0)
(2.31797e-05 -0.0416296 0)
(-0.000204183 -0.0406315 0)
(-7.7206e-05 -0.0419348 0)
(0.000294885 -0.0411069 0)
(-0.000231136 -0.0393913 0)
(-0.000376419 -0.0399045 0)
(0.00119219 -0.03647 0)
(0.00126309 -0.0378645 0)
(0.000497572 -0.037267 0)
(0.000365161 -0.0370381 0)
(0.000336395 -0.0369093 0)
(0.000561545 -0.0372205 0)
(0.000994841 -0.0380815 0)
(-0.000213848 -0.0406055 0)
(-0.000743327 -0.0389522 0)
(-0.00066603 -0.0510638 0)
(-0.000203208 -0.0505465 0)
(-0.000749396 -0.0490421 0)
(0.00181864 -0.0447475 0)
(0.000875223 -0.0450238 0)
(0.000594648 -0.0440567 0)
(-0.00070262 -0.0457639 0)
(-0.00104459 -0.0435721 0)
(-0.000853341 -0.0426463 0)
(-0.000645775 -0.041447 0)
(-0.000245599 -0.0416184 0)
(0.000271516 -0.040267 0)
(3.50717e-05 -0.0408751 0)
(0.000158897 -0.0391807 0)
(0.000201985 -0.0377693 0)
(0.000622576 -0.0400084 0)
(0.000257681 -0.0416344 0)
(0.000360558 -0.0416297 0)
(-0.000449031 -0.0398285 0)
(-0.00127272 -0.039258 0)
(-0.000410763 -0.0415599 0)
(-7.64842e-05 -0.0410954 0)
(-0.000424176 -0.0406462 0)
(-9.83251e-05 -0.0402168 0)
(0.000208982 -0.0374259 0)
(0.000218604 -0.0388347 0)
(0.000910688 -0.0370418 0)
(0.000188986 -0.0354775 0)
(0.000682682 -0.0357752 0)
(0.000455628 -0.0349112 0)
(0.000143946 -0.0369214 0)
(-3.49165e-05 -0.0374958 0)
(-0.000557442 -0.0375962 0)
(-0.000496389 -0.0427528 0)
(-0.000917444 -0.0484925 0)
(-6.36934e-05 -0.0486379 0)
(0.000700211 -0.0490975 0)
(-0.000188548 -0.0421662 0)
(-0.00122299 -0.0391284 0)
(-0.000140171 -0.0415988 0)
(-0.000798139 -0.0429462 0)
(0.000448745 -0.0433363 0)
(0.000334482 -0.0415878 0)
(-0.00139955 -0.0408076 0)
(-0.00108429 -0.0407003 0)
(-0.000287257 -0.0400754 0)
(0.000725202 -0.0393117 0)
(0.000413186 -0.0383935 0)
(-2.30661e-05 -0.0362392 0)
(-0.000203174 -0.0367824 0)
(0.000400321 -0.0368363 0)
(0.000811453 -0.0381464 0)
(0.000530084 -0.037448 0)
(-1.8739e-05 -0.0385715 0)
(-0.000141135 -0.0407493 0)
(-0.000274858 -0.0412103 0)
(7.56128e-05 -0.0390729 0)
(-0.000496301 -0.0404601 0)
(-0.000182627 -0.04094 0)
(-0.000591822 -0.0376674 0)
(0.000357997 -0.0387067 0)
(0.000663883 -0.0369727 0)
(0.0010896 -0.035233 0)
(0.000510093 -0.034582 0)
(-0.00013934 -0.034896 0)
(-0.000424673 -0.0356949 0)
(0.000371365 -0.03704 0)
(0.000348789 -0.0371132 0)
(-0.000559328 -0.0339294 0)
(0.000125469 -0.032426 0)
(-0.000964545 -0.0339282 0)
(-0.000955336 -0.0328914 0)
(0.000542398 -0.0327334 0)
(9.40199e-07 -0.0314286 0)
(0.000642757 -0.0321879 0)
(-0.000510092 -0.0407805 0)
(0.000227709 -0.040609 0)
(-0.000337674 -0.0387044 0)
(0.000420721 -0.0412605 0)
(-0.00067049 -0.0415571 0)
(-0.000846474 -0.0412226 0)
(-0.00114153 -0.0417126 0)
(-0.00016291 -0.0405668 0)
(-5.85368e-05 -0.040541 0)
(-0.000671653 -0.0405461 0)
(-0.00127099 -0.0401556 0)
(-0.000374589 -0.0394139 0)
(-0.00025386 -0.0406764 0)
(0.000549738 -0.0395643 0)
(0.000121434 -0.0396852 0)
(0.000469942 -0.0381318 0)
(0.000265717 -0.0369765 0)
(0.000534753 -0.0377285 0)
(0.000329558 -0.0387107 0)
(6.24999e-05 -0.0401567 0)
(-0.000309284 -0.0393236 0)
(-0.000717091 -0.0384172 0)
(-0.000403577 -0.0393216 0)
(2.0231e-05 -0.0407638 0)
(0.00011125 -0.0408924 0)
(2.67725e-05 -0.0391987 0)
(-0.000152891 -0.0350368 0)
(0.00040948 -0.0359231 0)
(0.000223993 -0.0328749 0)
(0.00118375 -0.0339229 0)
(0.00221762 -0.0361424 0)
(0.00118506 -0.0369212 0)
(0.00087459 -0.036566 0)
(0.00164981 -0.0366977 0)
(0.00032021 -0.0326384 0)
(-0.00141672 -0.0299946 0)
(0.000411627 -0.0283629 0)
(-8.43392e-05 -0.027622 0)
(0.000337441 -0.0291865 0)
(-0.000684374 -0.0265392 0)
(-0.00187701 -0.0299315 0)
(-0.000845891 -0.0319305 0)
(-0.000581721 -0.0303671 0)
(-0.00128861 -0.0303505 0)
(-0.000385707 -0.0329914 0)
(0.000328706 -0.0343362 0)
(-0.000559173 -0.0328597 0)
(-0.00142086 -0.0344779 0)
(-0.00107267 -0.0337835 0)
(-0.000593 -0.0345861 0)
(0.000512823 -0.0363048 0)
(-0.000384989 -0.0364257 0)
(-8.76192e-05 -0.0377304 0)
(-0.000101653 -0.0411956 0)
(0.000434085 -0.0421709 0)
(0.000282841 -0.0415473 0)
(0.000275308 -0.0405362 0)
(-0.000103553 -0.0383235 0)
(-0.000290155 -0.0384249 0)
(-0.00027397 -0.0386327 0)
(-0.000253609 -0.0387851 0)
(0.000118983 -0.0391487 0)
(-2.83099e-05 -0.0390221 0)
(-0.000148007 -0.0393865 0)
(-0.000499361 -0.0397637 0)
(-0.000358858 -0.04001 0)
(0.000204094 -0.0352337 0)
(-0.000194347 -0.0352161 0)
(0.000166074 -0.0357293 0)
(0.000460849 -0.0340309 0)
(0.000743666 -0.0351874 0)
(0.00315952 -0.0357867 0)
(0.00387972 -0.0356734 0)
(0.00511309 -0.0362987 0)
(0.00388833 -0.0381478 0)
(-0.00073291 -0.032646 0)
(-0.000970816 -0.0318206 0)
(-0.000265499 -0.0396625 0)
(-0.000637159 -0.0358793 0)
(-0.000458112 -0.0365319 0)
(-0.000141312 -0.0377607 0)
(-0.00025768 -0.037828 0)
(0.000118806 -0.0402765 0)
(-0.000262288 -0.0404234 0)
(0.0001737 -0.0381897 0)
(0.000357724 -0.0387028 0)
(-0.000623965 -0.0358723 0)
(0.000444386 -0.0346178 0)
(0.000813141 -0.0363216 0)
(1.78431e-05 -0.0369391 0)
(0.000146115 -0.0367676 0)
(-0.000505538 -0.0383688 0)
(0.000630324 -0.0393197 0)
(0.000632037 -0.0405688 0)
(0.000428576 -0.0409919 0)
(-0.000477078 -0.0406562 0)
(-0.000221535 -0.0400698 0)
(-0.000236319 -0.0394509 0)
(-0.000317175 -0.0396584 0)
(-0.000240363 -0.03929 0)
(-0.000657663 -0.038861 0)
(-0.0011184 -0.0379067 0)
(-0.000903827 -0.0366819 0)
(-0.00168776 -0.0362926 0)
(-0.000309534 -0.0382426 0)
(-9.57285e-05 -0.0391654 0)
(-0.00195136 -0.0378501 0)
(-0.00169807 -0.0384087 0)
(-0.000381519 -0.0350884 0)
(0.000443729 -0.034532 0)
(0.0011318 -0.034124 0)
(-0.000983483 -0.0404792 0)
(0.00156579 -0.0391114 0)
(0.000196262 -0.0425335 0)
(0.00214154 -0.0430898 0)
(8.00965e-05 -0.0378815 0)
(-0.000119245 -0.0384436 0)
(-8.43426e-05 -0.0385552 0)
(-0.000735148 -0.0419109 0)
(-0.000216973 -0.0421358 0)
(5.24108e-05 -0.042148 0)
(-0.000258929 -0.0418062 0)
(0.000157419 -0.0404567 0)
(0.000233147 -0.040161 0)
(-0.000362174 -0.0394847 0)
(0.000529838 -0.0367747 0)
(1.50049e-05 -0.037806 0)
(0.000175702 -0.0395094 0)
(-0.000825981 -0.0407584 0)
(0.000971466 -0.0392474 0)
(0.000788717 -0.0373909 0)
(0.000380653 -0.0386789 0)
(0.000176833 -0.0386709 0)
(-0.000344649 -0.0395608 0)
(0.000119846 -0.0401222 0)
(-0.00130646 -0.0394665 0)
(-0.000280269 -0.0388393 0)
(-0.000156756 -0.0401675 0)
(-0.000523047 -0.0402123 0)
(-0.000251171 -0.0392759 0)
(-0.000159057 -0.0385635 0)
(-0.000871622 -0.0375969 0)
(-0.000242024 -0.0376885 0)
(-8.60775e-05 -0.0389161 0)
(-0.000390288 -0.0394463 0)
(-0.00227354 -0.0399963 0)
(-0.00260385 -0.0395129 0)
(-0.001517 -0.0406654 0)
(-0.000903228 -0.040636 0)
(-0.00101472 -0.0381831 0)
(7.93558e-05 -0.039225 0)
(-0.000753649 -0.0411007 0)
(-0.00089009 -0.042148 0)
(-0.000742554 -0.040383 0)
(0.00114146 -0.0404721 0)
(0.000507712 -0.0394435 0)
(0.000430512 -0.0415827 0)
(0.000744477 -0.0409402 0)
(0.00062718 -0.0406651 0)
(-9.50064e-05 -0.0415548 0)
(6.04715e-05 -0.0402924 0)
(-0.000548211 -0.0403971 0)
(4.5987e-06 -0.0390311 0)
(0.000457534 -0.0394343 0)
(8.63988e-05 -0.038151 0)
(4.3776e-05 -0.0382314 0)
(0.000445123 -0.0350565 0)
(0.000986275 -0.0331364 0)
(0.00043779 -0.0353635 0)
(0.000859869 -0.0357565 0)
(0.000866156 -0.0344478 0)
(-0.000460736 -0.0339168 0)
(0.000309352 -0.0355488 0)
(0.00110646 -0.0379446 0)
(0.000660672 -0.038081 0)
(-0.00046424 -0.0378417 0)
(-0.000909275 -0.0403854 0)
(-0.00122408 -0.0408161 0)
(-0.000529773 -0.0393215 0)
(-0.000556329 -0.0389028 0)
(-0.000190316 -0.0382521 0)
(0.00028486 -0.036988 0)
(0.000930412 -0.036639 0)
(-7.11015e-05 -0.0383536 0)
(-0.000614774 -0.0395491 0)
(-0.000276426 -0.0414836 0)
(0.000176464 -0.038076 0)
(-0.000372262 -0.0387205 0)
(-0.000248661 -0.039212 0)
(-0.00023465 -0.0397868 0)
(-0.000627627 -0.0391895 0)
(-0.000662056 -0.0416732 0)
(0.000562956 -0.0406775 0)
(0.00150783 -0.0404001 0)
(-0.000122762 -0.0412313 0)
(0.000819541 -0.041351 0)
(0.000260224 -0.0398641 0)
(-8.46186e-05 -0.038795 0)
(-0.000329592 -0.0406589 0)
(-0.000500132 -0.0401776 0)
(-0.000105753 -0.0398417 0)
(-0.000784251 -0.0377785 0)
(0.000510846 -0.0370517 0)
(0.00096672 -0.0351255 0)
(0.000282414 -0.0363016 0)
(0.00210759 -0.0352885 0)
(0.00102441 -0.0356423 0)
(0.000825489 -0.0358085 0)
(0.00134185 -0.0334441 0)
(0.000474511 -0.0332568 0)
(0.000330032 -0.0361427 0)
(-0.000498011 -0.0358585 0)
(0.000339109 -0.03589 0)
(0.0005703 -0.0377447 0)
(-0.00149974 -0.0383169 0)
(-0.00119038 -0.0386931 0)
(-0.00157892 -0.0374685 0)
(-0.000928572 -0.0383896 0)
(-0.000652578 -0.0390702 0)
(-0.000486055 -0.0399247 0)
(-0.000186731 -0.0401363 0)
(6.46014e-05 -0.0391897 0)
(0.000165084 -0.0390297 0)
(0.000300876 -0.0372533 0)
(0.00042413 -0.0400154 0)
(-0.000840173 -0.0373645 0)
(-0.000893292 -0.0375991 0)
(-0.000478373 -0.0375024 0)
(-0.000532279 -0.0378475 0)
(0.000324243 -0.0396176 0)
(-3.35597e-05 -0.0397445 0)
(0.00137186 -0.0421043 0)
(0.000786051 -0.043244 0)
(0.000711071 -0.0413645 0)
(0.000308474 -0.040412 0)
(-6.81732e-05 -0.0386585 0)
(-0.000182575 -0.0388286 0)
(-0.000206689 -0.0388733 0)
(-0.00103762 -0.0388347 0)
(-0.0014148 -0.0375144 0)
(-0.000908121 -0.0388032 0)
(-6.00595e-05 -0.0375225 0)
(-9.2278e-06 -0.0378152 0)
(-0.000166302 -0.0407457 0)
(0.00024517 -0.0404083 0)
(0.000190304 -0.0362159 0)
(-7.13657e-05 -0.0376436 0)
(0.00021775 -0.036555 0)
(0.000218245 -0.0355652 0)
(0.000640854 -0.0357831 0)
(-0.000377579 -0.0354309 0)
(-0.00204006 -0.03819 0)
(0.000103995 -0.0331168 0)
(-0.00135012 -0.0328636 0)
(-0.00118159 -0.0337094 0)
(-0.000735523 -0.0356235 0)
(0.000189887 -0.0357702 0)
(-0.000502029 -0.0386848 0)
(-0.00082567 -0.0408753 0)
(-0.00027011 -0.0406041 0)
(-0.000128448 -0.0419575 0)
(-0.000147399 -0.0410447 0)
(-7.81295e-05 -0.0398573 0)
(0.000154352 -0.0383964 0)
(0.00130428 -0.037152 0)
(0.00139635 -0.0409095 0)
(0.000767591 -0.0407041 0)
(0.000849658 -0.0390765 0)
(0.000130024 -0.0401904 0)
(0.000589086 -0.0422615 0)
(-0.000301962 -0.0425826 0)
(-0.000361219 -0.0427466 0)
(-0.000802052 -0.0369474 0)
(-0.000244025 -0.0400663 0)
(-3.48414e-05 -0.0401731 0)
(0.000196331 -0.0399532 0)
(0.000197021 -0.039649 0)
(0.000310425 -0.0393579 0)
(-0.000165755 -0.0408488 0)
(-3.82661e-05 -0.0389025 0)
(0.000988866 -0.03822 0)
(-0.000267141 -0.0402873 0)
(-0.000771304 -0.0417664 0)
(5.36025e-05 -0.039571 0)
(9.32616e-06 -0.0367636 0)
(0.000368441 -0.0361366 0)
(0.000540369 -0.0364286 0)
(6.5121e-05 -0.0346956 0)
(0.000195065 -0.0322026 0)
(0.000401436 -0.0339358 0)
(-3.64029e-05 -0.0346931 0)
(0.000148493 -0.0347768 0)
(-0.000558358 -0.0350414 0)
(-0.000291002 -0.0359392 0)
(-0.000480983 -0.0374389 0)
(-0.000613027 -0.0406401 0)
(-0.000579 -0.0405193 0)
(-0.000189808 -0.0429048 0)
(0.000375637 -0.0427315 0)
(0.0015713 -0.0425881 0)
(0.00105826 -0.040787 0)
(0.00115651 -0.0404787 0)
(0.000449234 -0.042239 0)
(0.000159848 -0.0407777 0)
(0.000675894 -0.0428015 0)
(0.000725257 -0.0423082 0)
(0.000367695 -0.0416657 0)
(0.000302141 -0.0415755 0)
(5.19025e-05 -0.0428733 0)
(-0.000847547 -0.0368832 0)
(-0.000598238 -0.0411942 0)
(-0.00147514 -0.0410569 0)
(-0.000668256 -0.0408392 0)
(-0.00045061 -0.0411675 0)
(-0.000149016 -0.0415647 0)
(-0.000283533 -0.0420618 0)
(-0.000303867 -0.0402682 0)
(0.000881089 -0.0397657 0)
(-0.000300622 -0.040581 0)
(-0.00181824 -0.0393237 0)
(0.000763051 -0.0396338 0)
(-0.00111178 -0.0374397 0)
(-0.000564617 -0.0367031 0)
(0.000305911 -0.0364284 0)
(0.000155266 -0.0365411 0)
(0.00125829 -0.0315546 0)
(0.000712728 -0.03585 0)
(3.09013e-05 -0.035339 0)
(4.68536e-05 -0.0366573 0)
(0.000339021 -0.0373357 0)
(-0.000220007 -0.0386911 0)
(-0.000105347 -0.0410721 0)
(0.000736826 -0.0407022 0)
(0.000205075 -0.0414145 0)
(-0.000503055 -0.0428999 0)
(0.000729641 -0.0432205 0)
(0.000907339 -0.040975 0)
(0.00112334 -0.0420033 0)
(0.00212233 -0.0414913 0)
(0.000802264 -0.0378249 0)
(-0.000363939 -0.0442027 0)
(-5.49601e-05 -0.0437916 0)
(6.94572e-05 -0.0433204 0)
(0.000640566 -0.0427122 0)
(0.00019518 -0.0428888 0)
(-0.000585479 -0.0447025 0)
(-0.000532016 -0.042102 0)
(-0.000713014 -0.0416408 0)
(-0.00036087 -0.0412965 0)
(-0.000264479 -0.0412153 0)
(-1.72223e-05 -0.0413234 0)
(-0.00012573 -0.0411457 0)
(7.04702e-05 -0.0405809 0)
(3.52869e-05 -0.0406926 0)
(0.000183493 -0.0371787 0)
(-0.00126847 -0.0353266 0)
(-0.000329667 -0.0403302 0)
(0.000420044 -0.0413058 0)
(-7.33461e-05 -0.0422098 0)
(0.000490934 -0.0386132 0)
(0.000958782 -0.0394848 0)
(0.00141003 -0.0414434 0)
(0.00108895 -0.0419854 0)
(0.00118944 -0.0388975 0)
(0.000472374 -0.0385331 0)
(0.000460877 -0.0408083 0)
(0.000886631 -0.0394559 0)
(0.00149787 -0.0403063 0)
(0.000439203 -0.04083 0)
(-1.60442e-05 -0.041969 0)
(-0.000690589 -0.0426074 0)
(0.000479225 -0.0406065 0)
(0.00115837 -0.0386936 0)
(0.000625168 -0.0405376 0)
(-3.61417e-05 -0.0349276 0)
(-0.000287064 -0.0366067 0)
(-0.00114833 -0.0331815 0)
(-0.00203321 -0.0324131 0)
(-0.00337724 -0.0357433 0)
(-0.000277815 -0.0378575 0)
(0.000574601 -0.0388448 0)
(-0.00195463 -0.0420165 0)
(-0.000659542 -0.0422447 0)
(-0.000785491 -0.0413865 0)
(-0.000586545 -0.0399279 0)
(-0.00110617 -0.0411432 0)
(-0.000691694 -0.0403123 0)
(0.000310688 -0.0401872 0)
(8.05157e-05 -0.0399646 0)
(-0.000282989 -0.0371004 0)
(-0.000877254 -0.0371055 0)
(-0.000541101 -0.0381056 0)
(-0.000798398 -0.0424179 0)
(0.000493186 -0.0412113 0)
(-0.000320065 -0.0430735 0)
(-0.000441569 -0.0462452 0)
(-7.5249e-05 -0.044744 0)
(-1.17491e-05 -0.0440471 0)
(0.000155067 -0.0446746 0)
(0.000749853 -0.0406115 0)
(-7.45855e-05 -0.0423502 0)
(-1.20457e-05 -0.041207 0)
(0.000188065 -0.0405457 0)
(0.000603472 -0.0405174 0)
(0.000295445 -0.0389984 0)
(0.000199063 -0.0388083 0)
(0.000194659 -0.038313 0)
(0.000283098 -0.0376133 0)
(-4.4582e-05 -0.0380221 0)
(-0.000236527 -0.0361149 0)
(-0.000167731 -0.0347167 0)
(-0.00087136 -0.0347987 0)
(-0.000586225 -0.0331377 0)
(-0.00201141 -0.0322951 0)
(-0.00256182 -0.0343944 0)
(-0.00200763 -0.0364768 0)
(-0.00173208 -0.0365512 0)
(0.000885701 -0.0341232 0)
(-0.000712806 -0.0334512 0)
(-0.00248008 -0.0378486 0)
(-0.0011063 -0.0364885 0)
(-0.000572876 -0.0369341 0)
(-0.000191591 -0.0388728 0)
(-0.000814345 -0.0379763 0)
(-0.000655185 -0.0387842 0)
(-0.00170131 -0.0405103 0)
(-0.000325233 -0.0406115 0)
(7.72791e-06 -0.0406295 0)
(0.000269926 -0.0411456 0)
(0.000315277 -0.0384475 0)
(0.00117258 -0.042303 0)
(-0.00155015 -0.0445301 0)
(0.000332477 -0.0456152 0)
(0.000754388 -0.0454062 0)
(0.000181806 -0.0449026 0)
(-1.28669e-05 -0.0462159 0)
(0.000183884 -0.0462945 0)
(-0.000249893 -0.0475428 0)
(-0.00127217 -0.0451412 0)
(-0.000559936 -0.043428 0)
(6.81605e-05 -0.0420947 0)
(0.000311059 -0.0403545 0)
(-0.000407375 -0.0385231 0)
(0.000354387 -0.03834 0)
(0.000629546 -0.0364028 0)
(0.000333971 -0.0376299 0)
(0.000138811 -0.0377273 0)
(-6.05842e-05 -0.0357648 0)
(-0.00112707 -0.0361031 0)
(-0.000413136 -0.0346375 0)
(-0.000107015 -0.0347727 0)
(2.53937e-05 -0.0358789 0)
(-0.000345447 -0.0357114 0)
(9.52603e-05 -0.0345791 0)
(-0.000284045 -0.0349979 0)
(0.000117261 -0.0373494 0)
(0.000139921 -0.0385415 0)
(-0.00059266 -0.0293389 0)
(-0.00123161 -0.0330234 0)
(-0.000122984 -0.0326319 0)
(-0.000176692 -0.0358192 0)
(8.32762e-05 -0.0366129 0)
(0.000311991 -0.0381743 0)
(0.000527217 -0.0371533 0)
(0.000141471 -0.0394062 0)
(0.000576327 -0.0400927 0)
(-0.00106134 -0.0398153 0)
(-0.000352436 -0.0415746 0)
(0.00033298 -0.0432346 0)
(0.000144106 -0.0428268 0)
(0.000917308 -0.0402645 0)
(0.000665273 -0.0415224 0)
(0.000263404 -0.0440077 0)
(0.00127841 -0.0437632 0)
(0.000315112 -0.0467537 0)
(0.000490112 -0.0482489 0)
(0.000959898 -0.0469004 0)
(0.000660596 -0.0473391 0)
(0.000389045 -0.0485654 0)
(-0.001284 -0.0413202 0)
(-0.000979245 -0.0427934 0)
(0.000154248 -0.0424609 0)
(-0.000634803 -0.0416409 0)
(8.8463e-05 -0.038572 0)
(0.000554624 -0.0371972 0)
(0.000640181 -0.0386695 0)
(0.000612154 -0.0369929 0)
(1.79328e-05 -0.03624 0)
(-0.000964822 -0.0362225 0)
(-0.000710418 -0.0362094 0)
(-0.00029209 -0.0358738 0)
(-0.000157013 -0.035861 0)
(-0.00090899 -0.0360067 0)
(-0.000589179 -0.0358647 0)
(-0.000453286 -0.03952 0)
(-0.000165007 -0.0396014 0)
(1.48272e-06 -0.0403135 0)
(0.000582588 -0.0403563 0)
(0.000608633 -0.035447 0)
(-0.000270909 -0.0370928 0)
(-0.000257499 -0.0391684 0)
(-0.00103145 -0.0388868 0)
(-0.000824897 -0.0396132 0)
(-0.000906763 -0.0413133 0)
(6.19346e-05 -0.0409977 0)
(0.00190368 -0.0425689 0)
(-0.000207952 -0.0418472 0)
(0.000396819 -0.0423364 0)
(0.000534835 -0.0422063 0)
(0.000408389 -0.0436786 0)
(0.000378428 -0.0449663 0)
(0.000883089 -0.0479283 0)
(-0.000305861 -0.049323 0)
(6.92785e-05 -0.0473922 0)
(0.000414705 -0.0473155 0)
(-1.69686e-05 -0.0427717 0)
(-0.000489223 -0.0416723 0)
(-0.00165159 -0.0411646 0)
(-0.0027998 -0.045089 0)
(-0.000981677 -0.0410877 0)
(3.08771e-05 -0.043097 0)
(-0.000985693 -0.0424826 0)
(-0.000270476 -0.0411949 0)
(0.000429406 -0.0409545 0)
(0.00112247 -0.0402511 0)
(0.000292405 -0.0383111 0)
(-0.00111093 -0.036725 0)
(-0.00116465 -0.0370669 0)
(-0.000263799 -0.0379776 0)
(-0.000493685 -0.0366582 0)
(-1.61741e-05 -0.03779 0)
(-0.000594704 -0.0394338 0)
(-3.04e-05 -0.0400989 0)
(0.000116198 -0.040746 0)
(0.000191098 -0.0410484 0)
(0.000135094 -0.0409017 0)
(0.000991494 -0.0407097 0)
(0.000806227 -0.0333459 0)
(0.00019151 -0.0385645 0)
(-0.000552883 -0.0386908 0)
(-0.00105302 -0.039671 0)
(0.00103867 -0.040118 0)
(0.00234758 -0.0378453 0)
(0.00346978 -0.0360549 0)
(0.00231917 -0.0390995 0)
(0.000561999 -0.040291 0)
(0.000285891 -0.0387116 0)
(0.00178165 -0.0419631 0)
(0.00138072 -0.0424979 0)
(0.000862796 -0.0427402 0)
(0.000626972 -0.0434906 0)
(0.000554805 -0.0440816 0)
(0.000372138 -0.046289 0)
(-0.0004216 -0.045751 0)
(6.23537e-05 -0.0473306 0)
(-0.000173037 -0.0436656 0)
(-0.000167724 -0.0402249 0)
(0.000559912 -0.0406185 0)
(-0.000342296 -0.0451868 0)
(-0.000591844 -0.0436975 0)
(-0.000355125 -0.0419912 0)
(-0.000675191 -0.046798 0)
(-0.00207126 -0.043875 0)
(-0.00146551 -0.0423672 0)
(-0.000719079 -0.0427151 0)
(0.000898567 -0.039647 0)
(-0.00038397 -0.0374108 0)
(0.000374447 -0.0380746 0)
(-0.000367947 -0.0402768 0)
(-0.00023557 -0.0394181 0)
(0.000815615 -0.0379901 0)
(-0.000494652 -0.0403867 0)
(-0.000687085 -0.0421232 0)
(-0.000601541 -0.0418428 0)
(-0.000242336 -0.0413376 0)
(-0.000257664 -0.0418247 0)
(-0.00034849 -0.0418089 0)
(0.000246076 -0.0402352 0)
(0.00195739 -0.034222 0)
(0.000916493 -0.0374699 0)
(0.000481327 -0.0389583 0)
(0.000471857 -0.0393941 0)
(0.00124089 -0.036261 0)
(0.00226414 -0.0342812 0)
(0.00087406 -0.0377369 0)
(0.00109367 -0.0367849 0)
(0.000578631 -0.0331837 0)
(-0.000132529 -0.0350432 0)
(0.00213598 -0.0415881 0)
(0.0011252 -0.035091 0)
(-0.000234208 -0.0385044 0)
(-0.000117581 -0.0382715 0)
(-0.000148997 -0.0375328 0)
(-0.00015293 -0.0373587 0)
(-0.000145305 -0.0365708 0)
(-0.000449989 -0.0375677 0)
(-0.000854933 -0.0395862 0)
(0.000658576 -0.0398834 0)
(6.08019e-05 -0.0418654 0)
(0.000161052 -0.0427363 0)
(7.96493e-05 -0.0427967 0)
(-0.000178521 -0.0426309 0)
(-0.000134933 -0.0430703 0)
(-0.00178254 -0.042343 0)
(-0.00201401 -0.040669 0)
(-0.00127 -0.03448 0)
(-0.0017439 -0.0349958 0)
(-0.00274908 -0.0375306 0)
(-0.00147798 -0.036489 0)
(-0.000549975 -0.0356103 0)
(-0.000645825 -0.0385702 0)
(-3.79187e-05 -0.039538 0)
(-0.000119878 -0.0401813 0)
(0.000173117 -0.0397326 0)
(-0.00064791 -0.0411018 0)
(-0.000283254 -0.0404271 0)
(-0.000570782 -0.0399168 0)
(-0.000181017 -0.0391875 0)
(-0.000207137 -0.0415785 0)
(0.000397025 -0.0403058 0)
(0.000284068 -0.0343423 0)
(0.000740991 -0.0352584 0)
(0.00125678 -0.033554 0)
(0.00107037 -0.0347786 0)
(0.000665642 -0.0370665 0)
(5.27353e-05 -0.0376439 0)
(-0.0002911 -0.0378416 0)
(0.00100695 -0.0373359 0)
(0.000694911 -0.031813 0)
(9.06589e-05 -0.0327522 0)
(0.000512597 -0.0327985 0)
(-6.24196e-05 -0.035373 0)
(-0.000191061 -0.034636 0)