/*--------------------------------*- C++ -*----------------------------------*\
  =========                 |
  \\      /  F ield         | OpenFOAM: The Open Source CFD Toolbox
   \\    /   O peration     | Website:  https://openfoam.org
    \\  /    A nd           | Version:  12
     \\/     M anipulation  |
\*---------------------------------------------------------------------------*/
FoamFile
{
    format      ascii;
    class       IOPosition;
    location    "0.55/lagrangian/cloud";
    object      positions;
}
// * * * * * * * * * * * * * * * * * * * * * * * * * * * * * * * * * * * * * //

5067
(
(2.17313e-07 0.5 4.88187e-09 0.5) 0 7376 1
(2.175e-07 0.5 4.47739e-09 0.5) 0 7376 1
(2.17677e-07 0.5 0.000214502 0.499785) 0 7376 2
(2.17845e-07 0.5 0.020661 0.479339) 0 7376 2
(2.18004e-07 0.5 0.0397248 0.460275) 0 7376 2
(2.18154e-07 0.5 0.0878532 0.412147) 0 7376 2
(2.18296e-07 0.5 0.0620001 0.438) 0 7376 2
(0.0874461 0.456277 0.0698002 0.386477) 0 7376 2
(0.1755 0.41225 0.4048 0.00745025) 0 7375 1
(0.176955 0.411523 0.365104 0.0464187) 0 7375 1
(0.188891 0.405555 0.153677 0.251878) 0 7375 1
(0.206316 0.396842 0.0568222 0.34002) 0 7375 1
(0.19536 0.40232 0.179244 0.223076) 0 7375 1
(0.0424841 0.189793 0.478758 0.288965) 0 7375 2
(0.046107 0.476947 0.170253 0.306694) 1 7377 1
(0.167157 0.416422 0.0917868 0.324635) 1 7377 1
(0.395114 0.298396 0.302443 0.00404708) 1 7377 2
(0.292003 0.353998 0.0990106 0.254988) 1 2 1
(0.538936 0.230532 0.080504 0.150028) 2 7378 1
(0.349328 0.325336 0.19004 0.135296) 3 7379 1
(0.160871 0.289255 0.13031 0.419565) 4 6 2
(0.25539 0.284368 0.0879364 0.372305) 5 11 1
(0.250543 0.116335 0.374729 0.258393) 6 12 2
(0.408206 0.295897 0.273608 0.0222892) 8 17 2
(0.403376 0.298312 0.116534 0.181778) 9 19 2
(0.00882735 0.495586 0.291282 0.204304) 9 18 1
(0.410783 0.294608 0.217986 0.076622) 10 20 1
(0.408483 0.0971602 0.295759 0.198598) 11 7387 2
(0.146196 0.303014 0.123888 0.426902) 13 24 2
(0.0937641 0.453118 0.152422 0.300696) 14 26 1
(0.613807 0.193097 0.0842106 0.108886) 15 30 1
(0.0105492 0.179162 0.494725 0.315563) 16 32 2
(0.234313 0.293735 0.089108 0.382843) 18 37 1
(0.466505 0.266748 0.175831 0.090917) 19 7395 1
(0.346869 0.326565 0.0645136 0.262052) 20 41 2
(0.150803 0.142139 0.424598 0.28246) 20 40 2
(0.628306 0.0120262 0.173821 0.185847) 21 43 1
(0.451448 0.274276 0.150962 0.123314) 22 7398 1
(0.399318 0.300341 0.296866 0.00347506) 23 7399 1
(0.258579 0.370711 0.0724049 0.298306) 24 46 1
(0.41774 0.100418 0.29113 0.190712) 25 7401 2
(0.506316 0.246842 0.235983 0.0108591) 26 52 1
(0.538771 0.139875 0.230615 0.0907395) 27 7403 2
(0.430642 0.284679 0.00512903 0.27955) 28 7404 1
(0.451799 0.265591 0.2741 0.0085088) 29 7405 2
(0.0348608 0.48257 0.273349 0.209221) 30 60 1
(0.367343 0.257204 0.0591242 0.316328) 32 62 2
(0.398553 0.300119 0.000604967 0.300724) 34 69 1
(0.16316 0.189788 0.41842 0.228632) 35 70 2
(0.481852 0.117011 0.259074 0.142063) 36 7412 2
(0.444203 0.277898 0.0155484 0.26235) 37 7413 1
(0.355694 0.322153 0.119271 0.202882) 40 81 2
(0.00808246 0.470894 0.495959 0.0250649) 116 83 1
(0.228422 0.385789 0.0294965 0.356292) 117 85 2
(0.004707 0.129882 0.497646 0.367764) 118 87 1
(0.447148 0.171844 0.104582 0.276426) 118 233 2
(0.618046 0.190977 0.00673793 0.184239) 43 7419 1
(0.656619 0.17169 0.0313872 0.140303) 44 86 1
(0.390709 0.304646 0.0366977 0.267948) 44 88 1
(0.702952 0.148524 0.105383 0.0431413) 45 7421 1
(0.0809849 0.459508 0.05611 0.403398) 46 93 2
(0.0919485 0.454026 0.224364 0.229661) 47 95 2
(0.170007 0.414996 0.18263 0.232367) 48 97 2
(0.209536 0.395232 0.172906 0.222326) 49 99 2
(0.238281 0.38086 0.250425 0.130435) 50 101 2
(0.265841 0.367079 0.294174 0.0729057) 51 103 2
(0.428255 0.285873 0.182586 0.103286) 52 105 2
(0.0786573 0.460671 0.189014 0.271657) 53 104 1
(0.414308 0.292846 0.170071 0.122775) 53 106 1
(0.684547 0.157726 0.0219894 0.135737) 54 7430 1
(0.35454 0.32273 0.0631163 0.259614) 55 108 1
(0.168076 0.0761001 0.339862 0.415962) 56 110 2
(0.386559 0.30672 0.252881 0.0538395) 56 112 1
(0.189644 0.0408496 0.364328 0.405178) 58 114 2
(0.0259512 0.133289 0.353736 0.487024) 59 116 2
(2.18075e-07 0.499999 1.3131e-06 0.5) 75 7451 1
(2.18175e-07 0.499999 1.31605e-06 0.5) 75 7451 1
(1.17699e-07 0.5 0.0429375 0.457062) 0 7376 2
(1.23334e-07 0.236285 0.263715 0.5) 0 7376 1
(0.195403 0.402298 0.206114 0.196184) 0 7375 1
(0.495654 0.252173 0.237412 0.0147614) 0 7376 2
(0.8498 0.0432158 0.0751001 0.0318843) 0 7375 2
(0.604835 0.129862 0.197583 0.0677205) 0 7375 2
(0.130077 0.434961 0.359096 0.0758649) 75 1 2
(0.341765 0.329117 0.183839 0.145278) 0 0 1
(0.0652135 0.467393 0.0894573 0.377936) 0 1 2
(0.163431 0.131377 0.418285 0.286907) 75 1 1
(0.137884 0.431058 0.408964 0.0220943) 75 149 1
(0.127217 0.436391 0.396625 0.0397663) 75 149 1
(0.266657 0.291993 0.366672 0.0746783) 0 7375 2
(0.135077 0.432461 0.396703 0.0357589) 75 149 1
(0.126688 0.436656 0.395472 0.041184) 75 149 1
(0.096138 0.451931 0.196469 0.255462) 76 149 1
(0.503726 0.248137 0.0420971 0.20604) 1 7377 1
(0.634942 0.143582 0.182529 0.0389464) 1 2 2
(0.0189167 0.490542 0.0592366 0.431305) 77 151 1
(0.132814 0.301844 0.131749 0.433593) 2 5 1
(0.683523 0.119673 0.0385655 0.158239) 77 151 2
(0.24431 0.268348 0.377845 0.109497) 77 153 2
(0.705021 0.131268 0.147489 0.0162212) 78 155 2
(0.159496 0.236965 0.420252 0.183287) 82 15 1
(0.381888 0.222211 0.309056 0.0868448) 84 19 1
(0.25087 0.332032 0.374565 0.0425335) 85 21 1
(0.229222 0.230938 0.385389 0.154451) 86 23 1
(0.0482158 0.475892 0.0278722 0.44802) 88 173 1
(0.0384301 0.480785 0.462817 0.017968) 14 29 2
(0.124762 0.437619 0.378783 0.0588365) 86 172 2
(0.366133 0.316933 0.24402 0.072913) 159 316 1
(0.319172 0.340414 0.2947 0.0457145) 87 174 2
(0.318661 0.34067 0.0633944 0.277275) 88 176 2
(0.353826 0.14436 0.178727 0.323087) 88 176 1
(0.306797 0.346602 0.0738921 0.27271) 92 35 2
(0.421403 0.223088 0.289298 0.0662106) 94 39 1
(0.43162 0.28419 0.0207718 0.263418) 96 189 1
(0.125926 0.437037 0.228487 0.20855) 96 191 1
(0.0542391 0.0852369 0.387644 0.47288) 22 45 1
(0.399746 0.10598 0.300127 0.194146) 97 45 1
(0.013317 0.493341 0.0972103 0.396131) 172 340 1
(0.0579685 0.234379 0.471016 0.236637) 97 193 2
(0.681132 0.156396 0.159434 0.00303804) 98 47 1
(0.00313127 0.498434 0.198506 0.299929) 103 57 2
(0.109954 0.445023 0.266012 0.179011) 30 61 2
(0.274576 0.362712 0.31027 0.0524419) 106 63 2
(0.264041 0.36798 0.292613 0.0753664) 107 65 2
(0.238604 0.380698 0.284152 0.096546) 109 217 1
(0.00180092 0.0123051 0.4991 0.486794) 111 73 1
(0.0275867 0.486207 0.221659 0.264547) 184 218 2
(0.177322 0.411339 0.19927 0.212069) 110 220 2
(0.136458 0.0531699 0.378601 0.431771) 111 219 2
(0.266094 0.07004 0.366953 0.296913) 111 221 2
(0.615352 0.171078 0.0212455 0.192324) 112 224 1
(0.179808 0.141549 0.268547 0.410096) 113 223 2
(0.261854 0.369073 0.271626 0.0974473) 116 232 2
(0.0887052 0.455647 0.115269 0.340378) 193 236 2
(0.0423215 0.164895 0.313944 0.478839) 119 235 2
(0.777521 0.00328829 0.107951 0.111239) 119 238 1
(0.505752 0.247124 0.179412 0.0677119) 120 237 1
(0.556852 0.221574 0.112815 0.108759) 192 383 2
(0.489311 0.123064 0.255345 0.13228) 193 384 2
(0.484409 0.257795 0.210519 0.0472759) 194 386 1
(0.613431 0.193285 0.0933956 0.0998891) 195 240 2
(0.0789744 0.460513 0.248842 0.211671) 196 388 1
(0.233226 0.383387 0.289488 0.0938994) 196 390 1
(0.181767 0.0981175 0.409116 0.310999) 197 244 1
(0.167731 0.0980938 0.318041 0.416135) 124 248 1
(0.00146992 0.112491 0.499265 0.386774) 125 249 2
(0.342936 0.328532 0.303033 0.0254995) 128 107 2
(0.0699047 0.0481066 0.465048 0.416941) 127 253 2
(0.141024 0.429488 0.304262 0.125226) 202 254 2
(0.114036 0.33641 0.442982 0.106572) 203 256 1
(2.17312e-07 0.5 0.5 5.41187e-09) 150 7452 2
(2.175e-07 0.5 0.5 5.16817e-09) 150 7452 2
(6.63054e-08 0.5 0.0450976 0.454902) 75 7451 2
(2.17677e-07 0.5 0.14379 0.35621) 150 7452 2
(0.119059 0.44047 0.384952 0.0555184) 75 149 1
(0.213946 0.393027 0.356335 0.0366924) 75 149 1
(0.0410172 0.479491 0.164184 0.315308) 75 7451 2
(0.286555 0.356722 0.0948186 0.261904) 75 1 2
(0.139495 0.430253 0.375652 0.0546001) 75 149 1
(0.365584 0.317208 0.0336303 0.283578) 75 1 2
(0.487385 0.256308 0.179293 0.0770146) 75 149 1
(0.291876 0.0114572 0.354062 0.342605) 75 1 1
(0.393081 0.30346 0.150231 0.153228) 75 149 1
(0.095255 0.452373 0.157465 0.294907) 150 150 2
(0.129656 0.343209 0.435172 0.0919625) 150 150 1
(0.131213 0.260855 0.434394 0.173539) 150 150 1
(0.145461 0.150492 0.427269 0.276778) 150 150 1
(0.395485 0.302257 0.153932 0.148325) 75 149 1
(0.291849 0.354076 0.228633 0.125443) 75 149 1
(0.162915 0.418543 0.0209915 0.397551) 76 149 1
(0.642678 0.178661 0.0486403 0.130021) 76 149 1
(0.926078 0.036961 0.0334717 0.00348929) 76 3 2
(0.738181 0.130909 0.056922 0.0739873) 76 151 1
(0.06126 0.46937 0.468188 0.00118178) 151 300 1
(0.016315 0.491842 0.313026 0.178817) 151 300 1
(0.097995 0.451002 0.420247 0.0307551) 152 302 1
(0.015714 0.492143 0.475682 0.0164614) 154 158 2
(0.00422886 0.497886 0.446689 0.0511968) 154 306 1
(0.0222486 0.0603846 0.488876 0.428491) 155 160 1
(0.100579 0.0479741 0.44971 0.401736) 81 161 2
(0.183185 0.00315518 0.408408 0.405252) 82 163 2
(0.263414 0.368293 0.302032 0.0662609) 232 313 2
(0.319718 0.340141 0.325904 0.0142366) 157 313 2
(0.157887 0.10441 0.316646 0.421056) 158 312 2
(0.362549 0.318725 0.249889 0.0688366) 158 315 2
(0.0528945 0.149183 0.473553 0.32437) 158 314 2
(0.284921 0.35754 0.22866 0.128879) 161 318 1
(0.403392 0.298304 0.139048 0.159256) 162 320 1
(0.561483 0.219259 0.0660892 0.153169) 163 176 2
(0.309849 0.345075 0.168697 0.176378) 164 178 2
(0.0902209 0.45489 0.0829577 0.371932) 165 326 1
(0.22482 0.0431567 0.38759 0.344433) 165 180 1
(0.219315 0.167755 0.390342 0.222588) 166 182 1
(0.115428 0.0658341 0.442286 0.376452) 167 184 1
(0.391622 0.304189 0.266991 0.0371984) 169 336 1
(0.48358 0.25821 0.232707 0.0255025) 172 342 1
(0.272893 0.0130238 0.35053 0.363553) 98 196 1
(0.272286 0.363857 0.357501 0.00635647) 99 198 2
(0.362871 0.318564 0.308394 0.0101702) 102 204 2
(0.5818 0.11859 0.0905099 0.2091) 103 206 1
(0.403218 0.216934 0.298391 0.0814569) 177 204 1
(0.125084 0.0985721 0.437458 0.338886) 178 206 1
(0.579542 0.210229 0.06595 0.144279) 179 208 2
(0.10469 0.360828 0.447655 0.0868271) 254 357 1
(0.382873 0.308563 0.017123 0.29144) 180 359 2
(0.0582112 0.125267 0.470894 0.345628) 180 358 2
(0.143248 0.1302 0.428376 0.298176) 181 360 2
(0.293465 0.353268 0.0323922 0.320875) 183 365 2
(0.75178 0.12411 0.0272876 0.0968225) 186 371 2
(0.409227 0.295387 0.0711032 0.224283) 187 372 1
(0.279517 0.200891 0.360241 0.15935) 188 226 1
(0.449393 0.275304 0.113601 0.161703) 189 228 2
(0.0745632 0.462718 0.369087 0.0936313) 262 521 1
(0.234475 0.0719437 0.382763 0.310819) 263 375 1
(0.0634555 0.171609 0.296663 0.468272) 189 377 1
(0.60847 0.195765 0.105759 0.0900056) 265 527 1
(0.45225 0.273875 0.0042651 0.26961) 267 383 2
(0.480159 0.25566 0.259921 0.00426048) 268 385 1
(0.142619 0.428691 0.343394 0.0852969) 269 533 1
(0.234033 0.382984 0.156231 0.226752) 269 535 1
(0.0696735 0.465163 0.197549 0.267614) 271 537 1
(0.293021 0.35349 0.010789 0.342701) 272 539 1
(0.113049 0.443475 0.335604 0.107871) 273 395 2
(0.085973 0.457013 0.146125 0.310888) 199 397 2
(0.203545 0.398227 0.172626 0.225601) 275 399 2
(2.17847e-07 0.5 0.5 3.49091e-09) 225 7453 2
(2.17969e-07 0.5 0.5 3.34442e-09) 225 7453 2
(9.87917e-08 0.5 0.0522609 0.447739) 150 7452 2
(2.18087e-07 0.5 0.153335 0.346665) 225 7453 2
(1.05478e-07 0.5 0.00364412 0.496356) 150 7452 2
(0.00232478 0.498838 0.449052 0.0497859) 150 150 2
(0.0259915 0.487004 0.369131 0.117873) 150 150 2
(0.150031 0.0368994 0.424985 0.388085) 150 150 1
(0.142573 0.428714 0.422287 0.00642692) 150 298 1
(0.140507 0.118598 0.429747 0.311149) 150 150 1
(0.122052 0.438974 0.398098 0.0408759) 150 298 1
(0.10632 0.44684 0.402212 0.0446278) 150 298 1
(0.1216 0.4392 0.404414 0.0347857) 150 298 1
(0.370256 0.314872 0.281769 0.0331031) 150 298 1
(0.215783 0.095023 0.392109 0.297086) 225 299 1
(0.342682 0.328659 0.289205 0.0394541) 150 298 1
(0.51226 0.24387 0.031048 0.212822) 150 298 1
(0.646588 0.035049 0.176706 0.141657) 150 298 2
(0.293156 0.353422 0.341979 0.0114427) 151 152 2
(0.483242 0.258379 0.032452 0.225927) 151 152 2
(0.399548 0.300226 0.0209017 0.279325) 151 152 2
(0.323486 0.236751 0.338257 0.101506) 151 152 1
(0.786901 0.0910346 0.106549 0.0155148) 151 300 2
(0.835009 0.0824956 0.0764483 0.0060473) 226 449 1
(0.0299468 0.0442368 0.485027 0.44079) 226 301 1
(0.320711 0.339645 0.079897 0.259748) 152 303 2
(0.315242 0.226587 0.115791 0.342379) 227 449 2
(0.0507583 0.288686 0.185935 0.474621) 228 451 2
(0.110324 0.107183 0.337655 0.444838) 229 453 2
(0.689774 0.012247 0.142866 0.155113) 229 456 1
(0.456249 0.267472 0.00440388 0.271875) 230 458 1
(0.395286 0.302357 0.124029 0.178328) 231 460 2
(0.190016 0.404992 0.0353421 0.36965) 232 462 2
(0.337223 0.259743 0.331389 0.0716454) 307 462 1
(0.227444 0.386278 0.0109106 0.375367) 233 464 2
(0.249339 0.0113396 0.363991 0.37533) 233 464 1
(0.15421 0.178904 0.243991 0.422895) 234 466 1
(0.131761 0.434119 0.383184 0.050935) 234 465 1
(0.399518 0.160058 0.300241 0.140183) 235 319 1
(0.368298 0.315851 0.101411 0.21444) 236 321 2
(0.302323 0.348838 0.254154 0.0946846) 237 323 2
(0.0745396 0.46273 0.10685 0.35588) 238 471 1
(0.0288361 0.485582 0.385699 0.0998832) 238 473 1
(0.0679528 0.369875 0.466024 0.0961484) 240 329 1
(0.054174 0.275282 0.472913 0.197631) 241 331 1
(0.152693 0.206877 0.216776 0.423653) 167 333 1
(0.210541 0.0798291 0.39473 0.314901) 243 335 1
(0.0661736 0.466913 0.379436 0.0874776) 245 339 2
(0.188808 0.405596 0.18095 0.224646) 246 341 2
(0.187096 0.406452 0.0418496 0.364603) 247 343 2
(0.172 0.414 0.232769 0.181231) 173 345 2
(0.252893 0.373553 0.0406521 0.332901) 174 347 2
(0.346185 0.326908 0.217737 0.10917) 175 349 2
(0.013688 0.493156 0.452581 0.0405752) 252 353 2
(0.549154 0.171672 0.225423 0.0537505) 252 501 2
(0.507853 0.134371 0.111703 0.246073) 253 504 1
(0.265641 0.0716522 0.295528 0.36718) 254 506 1
(0.768945 0.0854902 0.0300374 0.115528) 256 507 2
(0.117366 0.119972 0.441317 0.321345) 257 511 2
(0.193259 0.313448 0.403371 0.0899227) 258 513 2
(0.229887 0.201006 0.18405 0.385057) 260 515 2
(0.44975 0.230649 0.275125 0.0444762) 261 371 1
(0.115178 0.204519 0.237892 0.442411) 262 519 2
(0.096843 0.451578 0.0625358 0.389043) 337 522 2
(0.0637614 0.468119 0.433316 0.0348032) 263 524 2
(0.29458 0.32151 0.0311999 0.35271) 264 526 1
(0.0298934 0.113482 0.485053 0.371571) 265 527 2
(0.145205 0.427397 0.161544 0.265853) 267 532 2
(0.45365 0.252788 0.273175 0.0203873) 342 532 1
(0.434961 0.28252 0.210583 0.071937) 343 534 2
(0.225333 0.387333 0.109828 0.277505) 344 682 1
(0.39453 0.302735 0.27403 0.0287047) 345 538 2
(0.114994 0.340503 0.442503 0.102) 346 540 1
(0.034429 0.0387593 0.482786 0.444026) 347 542 1
(0.317909 0.105525 0.341046 0.235521) 348 544 1
(2.17846e-07 0.5 0.5 8.41731e-09) 300 7454 2
(2.17969e-07 0.5 0.5 8.14507e-09) 300 7454 2
(1.78557e-07 0.5 0.0280095 0.47199) 225 7453 2
(2.18087e-07 0.5 0.161481 0.338519) 300 7454 2
(1.80406e-07 0.5 0.0139262 0.486074) 225 7453 2
(0.0227738 0.488613 0.397291 0.0913222) 225 299 2
(0.073463 0.463268 0.116338 0.346931) 225 299 2
(0.0937244 0.453138 0.11493 0.338208) 225 299 2
(0.178402 0.410799 0.377907 0.0328921) 225 447 1
(0.488861 0.255569 0.251049 0.00452036) 150 299 2
(0.179876 0.410062 0.381966 0.0280962) 225 447 1
(0.165756 0.417122 0.374688 0.0424339) 225 447 1
(0.183765 0.408117 0.381572 0.0265455) 225 447 1
(0.157351 0.421325 0.375623 0.0457014) 225 447 1
(0.185867 0.407066 0.381703 0.025363) 225 447 1
(0.222036 0.388982 0.353613 0.0353689) 225 447 1
(0.181596 0.409202 0.364223 0.0449791) 225 447 1
(0.208338 0.395831 0.352169 0.0436622) 225 447 1
(0.825182 0.0874092 0.0604583 0.0269509) 225 447 1
(0.0970065 0.313247 0.13825 0.451497) 150 299 1
(0.445547 0.277227 0.215478 0.061749) 226 301 2
(0.808658 0.0956708 0.0821931 0.0134777) 226 301 2
(0.314312 0.342844 0.0967047 0.246139) 301 450 2
(0.323927 0.209631 0.338036 0.128406) 301 450 1
(0.520997 0.0381157 0.239501 0.201386) 301 450 1
(0.298562 0.350719 0.330363 0.020356) 301 598 1
(0.0655081 0.467246 0.416569 0.0506768) 302 598 1
(0.342917 0.277031 0.328542 0.0515106) 302 600 2
(0.648735 0.027424 0.175632 0.148208) 303 602 2
(0.697686 0.151157 0.1088 0.0423572) 304 605 2
(0.0229734 0.136459 0.352055 0.488513) 305 604 2
(0.00661209 0.194861 0.496694 0.301833) 380 607 1
(0.0907776 0.247441 0.454611 0.20717) 381 609 1
(0.205995 0.331563 0.397003 0.0654401) 382 611 1
(0.181497 0.409251 0.054141 0.35511) 383 613 2
(0.23035 0.384825 0.12751 0.257315) 384 615 2
(0.323362 0.338319 0.135384 0.202935) 385 617 2
(0.380369 0.309816 0.171996 0.13782) 386 619 2
(0.328457 0.335771 0.187836 0.147935) 387 621 2
(0.248767 0.303865 0.375617 0.0717516) 312 472 1
(0.377109 0.311446 0.178261 0.133184) 313 474 2
(0.176812 0.411594 0.303712 0.107882) 313 622 1
(0.220794 0.389603 0.382728 0.0068747) 239 476 2
(0.194461 0.40277 0.260593 0.142176) 240 478 2
(0.214966 0.392517 0.160983 0.231534) 241 480 2
(0.237626 0.381187 0.00180999 0.379377) 242 482 2
(0.0970387 0.0904655 0.451481 0.361015) 242 481 2
(0.18767 0.406165 0.250881 0.155284) 244 486 2
(0.232024 0.383988 0.302562 0.081426) 245 488 2
(0.120108 0.251662 0.188284 0.439946) 246 490 1
(0.16798 0.121075 0.294936 0.41601) 247 492 1
(0.238916 0.107108 0.273434 0.380542) 248 494 1
(0.277905 0.361047 0.0249135 0.336134) 250 498 2
(0.264138 0.193736 0.174195 0.367931) 251 500 1
(0.469632 0.0962906 0.265184 0.168894) 327 502 1
(0.107053 0.392442 0.446474 0.0540316) 328 652 2
(0.121559 0.313959 0.125261 0.43922) 330 654 2
(0.603098 0.198451 0.0636263 0.134825) 331 659 2
(0.44613 0.276935 0.168863 0.108072) 332 661 2
(0.443474 0.278263 0.158428 0.119835) 333 663 2
(0.397983 0.301008 0.0661416 0.234867) 334 665 2
(0.234013 0.121279 0.261715 0.382993) 335 664 2
(0.0670113 0.240796 0.466494 0.225698) 335 666 2
(0.188652 0.111186 0.294488 0.405674) 336 669 1
(0.319635 0.0626361 0.277546 0.340182) 337 671 1
(0.29015 0.243419 0.111506 0.354925) 338 673 1
(0.281703 0.359149 0.225723 0.133425) 339 675 2
(0.24383 0.378085 0.0576614 0.320424) 340 677 2
(0.269802 0.365099 0.0213253 0.343774) 341 679 2
(0.0847111 0.457644 0.345479 0.112165) 417 681 2
(0.270254 0.0371031 0.364873 0.32777) 417 681 1
(0.257458 0.210129 0.371271 0.161142) 418 683 1
(0.3049 0.34755 0.0296299 0.31792) 420 687 2
(0.484679 0.0209109 0.23675 0.257661) 346 689 1
(0.0679229 0.466039 0.392198 0.0738404) 347 691 2
(2.17846e-07 0.5 0.5 3.66866e-08) 375 7455 2
(2.17969e-07 0.5 0.5 3.63034e-08) 375 7455 2
(2.18199e-07 0.5 0.0415228 0.458477) 300 7454 2
(2.18087e-07 0.5 0.167269 0.332731) 375 7455 2
(0.506929 0.246535 0.12262 0.123916) 225 448 2
(2.18307e-07 0.5 0.000605752 0.499394) 300 7454 2
(0.220771 0.389614 0.0806168 0.308997) 225 448 2
(0.0468719 0.476564 0.188892 0.287672) 300 448 2
(0.152247 0.0814866 0.423876 0.34239) 300 448 1
(0.128555 0.165493 0.435723 0.27023) 300 448 1
(0.167068 0.416466 0.409483 0.00698312) 300 596 1
(0.148117 0.11508 0.425941 0.310861) 300 448 1
(0.140771 0.429615 0.411769 0.0178455) 300 596 1
(0.165542 0.417229 0.407363 0.00986605) 300 596 1
(0.134321 0.432839 0.407655 0.0251844) 300 596 1
(0.136584 0.431708 0.406584 0.025124) 300 596 1
(0.141464 0.429268 0.409229 0.0200387) 300 596 1
(0.164894 0.417553 0.403882 0.0136705) 300 596 1
(0.183476 0.408262 0.383921 0.0243413) 300 596 1
(0.167634 0.416183 0.396354 0.0198288) 300 596 1
(0.184902 0.407549 0.291105 0.116444) 300 596 1
(0.544068 0.227966 0.149268 0.0786982) 301 450 2
(0.756935 0.121533 0.0270649 0.0944679) 301 596 1
(0.74348 0.12826 0.00133459 0.126925) 376 745 1
(0.611231 0.18257 0.194385 0.0118143) 376 599 1
(0.343384 0.160827 0.328308 0.16748) 376 599 1
(0.113658 0.443171 0.344036 0.0991344) 376 747 1
(0.0273217 0.486339 0.330195 0.156144) 377 747 1
(0.597968 0.132126 0.0688901 0.201016) 377 747 2
(0.0944881 0.292004 0.452756 0.160752) 377 749 2
(0.458484 0.0361021 0.270758 0.234656) 378 751 2
(0.255562 0.208291 0.163928 0.372219) 379 754 1
(0.124702 0.125451 0.312198 0.437649) 380 756 1
(0.0766929 0.00465415 0.461654 0.456999) 456 758 1
(0.0138223 0.493089 0.334466 0.158623) 458 762 2
(0.0135745 0.493213 0.0779337 0.415279) 459 764 2
(0.145145 0.37681 0.427427 0.0506173) 460 766 1
(0.357285 0.276756 0.321358 0.0446011) 461 768 1
(0.450085 0.118093 0.274958 0.156865) 462 770 1
(0.0100111 0.366877 0.494994 0.128117) 463 772 1
(0.357738 0.296656 0.321131 0.0244749) 389 625 1
(0.3366 0.3317 0.039659 0.292041) 390 627 2
(0.346623 0.326688 0.145992 0.180696) 391 629 2
(0.355488 0.322256 0.0306275 0.291629) 392 777 1
(0.31986 0.23264 0.10743 0.34007) 317 631 1
(0.293599 0.30237 0.0508302 0.3532) 318 633 1
(0.282708 0.358646 0.342508 0.0161377) 319 635 2
(0.273809 0.363096 0.302687 0.0604088) 320 637 2
(0.259126 0.370437 0.275108 0.0953291) 321 639 2
(0.254267 0.372867 0.267225 0.105641) 322 641 2
(0.267584 0.366208 0.226603 0.139605) 323 643 2
(0.280624 0.359688 0.228006 0.131682) 324 645 2
(0.248029 0.256412 0.119573 0.375986) 325 647 1
(0.281883 0.0215693 0.337489 0.359058) 326 649 1
(0.105542 0.447229 0.0454526 0.401776) 403 653 2
(0.649691 0.0985986 0.175154 0.0765557) 404 803 2
(0.78243 0.0689646 0.0398202 0.108785) 405 806 1
(0.587731 0.206134 0.0809178 0.125217) 406 808 2
(0.472874 0.000613314 0.26295 0.263563) 407 807 2
(0.187715 0.122146 0.283997 0.406143) 408 809 2
(0.162524 0.104511 0.418738 0.314227) 408 811 2
(0.385185 0.090248 0.21716 0.307408) 409 814 1
(0.184879 0.407561 0.047788 0.359773) 485 816 2
(0.124795 0.437602 0.0516138 0.385989) 486 818 2
(0.169174 0.415413 0.110589 0.304824) 487 820 2
(0.210974 0.394513 0.242646 0.151867) 488 822 2
(0.119767 0.440116 0.0159439 0.424172) 489 970 1
(0.225962 0.00324125 0.387019 0.383778) 489 824 1
(0.340148 0.00540846 0.324517 0.329926) 415 826 1
(0.342028 0.100992 0.227994 0.328986) 416 828 1
(0.341918 0.329041 0.0903352 0.238706) 492 830 2
(0.251023 0.374489 0.0534521 0.321037) 493 978 1
(0.276701 0.361649 0.319995 0.0416548) 493 980 1
(0.166858 0.319738 0.416571 0.0968329) 494 834 1
(0.14693 0.313131 0.426535 0.113404) 495 836 1
(2.18282e-07 0.5 0.5 9.45668e-09) 450 7456 2
(2.18363e-07 0.5 0.5 9.15619e-09) 450 7456 2
(0.210194 0.10591 0.288993 0.394903) 300 7454 1
(2.18441e-07 0.5 0.137766 0.362234) 450 7456 2
(1.78694e-07 0.5 0.0226104 0.47739) 375 7455 2
(0.127732 0.436134 0.142484 0.29365) 375 597 2
(0.140454 0.429773 0.0251683 0.404605) 375 597 2
(0.146676 0.426662 0.0623453 0.364317) 375 597 2
(1.55125e-07 0.5 0.102183 0.397817) 375 7455 2
(0.16779 0.114543 0.301562 0.416105) 300 7454 1
(0.209018 0.395491 0.357972 0.0375188) 375 745 1
(0.207206 0.396397 0.359371 0.0370265) 375 745 1
(0.597995 0.150256 0.201003 0.0507465) 375 597 1
(0.123822 0.438089 0.390051 0.0480375) 375 745 1
(0.124038 0.437981 0.377697 0.0602835) 375 745 1
(0.0932871 0.453356 0.401922 0.0514342) 375 745 1
(0.108515 0.445743 0.387875 0.0578672) 375 745 1
(0.129713 0.435143 0.371067 0.0640763) 375 745 1
(0.404837 0.297582 0.20293 0.0946513) 375 745 1
(0.17362 0.41319 0.293583 0.119607) 375 745 1
(0.157951 0.421024 0.367145 0.0538797) 375 745 1
(0.0500964 0.474952 0.203292 0.271659) 376 745 1
(0.559361 0.22032 0.0327198 0.1876) 376 745 1
(0.187209 0.406396 0.256715 0.149681) 451 748 2
(0.395506 0.302247 0.270909 0.0313384) 451 748 2
(0.529493 0.235254 0.109134 0.12612) 451 748 2
(0.710684 0.101747 0.144658 0.0429109) 451 748 1
(0.0240653 0.487967 0.27989 0.208077) 451 896 1
(0.0534248 0.390088 0.473288 0.0831992) 451 896 2
(0.0541114 0.395789 0.077155 0.472944) 452 896 2
(0.356787 0.114807 0.321607 0.206799) 452 898 2
(0.34909 0.0401017 0.285353 0.325455) 454 900 2
(0.0149994 0.146544 0.4925 0.345956) 455 904 2
(0.189731 0.405135 0.351522 0.0536124) 457 909 2
(0.298216 0.350892 0.319948 0.0309439) 458 911 2
(0.284333 0.357834 0.300985 0.0568489) 459 913 2
(0.237418 0.381291 0.167242 0.214049) 460 915 2
(0.139337 0.430332 0.267941 0.162391) 535 1063 1
(0.229619 0.385191 0.338689 0.0465021) 536 1065 1
(0.262332 0.00362631 0.368834 0.365208) 537 919 1
(0.0686426 0.159018 0.465679 0.306661) 538 921 1
(0.0306565 0.484672 0.14132 0.343352) 465 922 1
(0.272075 0.363962 0.312628 0.0513339) 466 778 2
(0.269644 0.365178 0.183902 0.181276) 467 780 2
(0.261879 0.36906 0.117204 0.251856) 393 782 2
(0.26013 0.369935 0.170979 0.198956) 394 784 2
(0.260097 0.369952 0.208893 0.161059) 395 786 2
(0.270109 0.364945 0.201479 0.163466) 396 788 2
(0.25982 0.37009 0.218441 0.151649) 397 790 2
(0.28526 0.35737 0.249718 0.107652) 398 792 2
(0.296597 0.351702 0.214096 0.137606) 399 794 2
(0.39124 0.30438 0.0111475 0.293232) 400 796 2
(0.26683 0.366585 0.0735071 0.293078) 401 798 2
(0.688205 0.0638125 0.155898 0.092085) 402 799 2
(0.269836 0.0218392 0.343243 0.365082) 403 802 1
(0.102225 0.331939 0.448888 0.116949) 479 952 2
(0.683975 0.0558689 0.158012 0.102144) 480 954 2
(0.684263 0.157868 0.00451163 0.153357) 481 957 2
(0.19191 0.162186 0.241859 0.404045) 482 956 2
(0.322474 0.0636898 0.338763 0.275073) 482 958 2
(0.167049 0.416475 0.0269143 0.389561) 558 961 2
(0.188302 0.405849 0.0820479 0.323801) 559 963 2
(0.0139534 0.330593 0.493023 0.162431) 560 965 1
(0.131775 0.355315 0.434112 0.0787978) 561 967 1
(0.288545 0.355728 0.230496 0.125232) 562 969 2
(0.164159 0.41792 0.38425 0.0336708) 563 971 2
(0.00570193 0.497149 0.0601354 0.437014) 564 1119 1
(0.227482 0.386259 0.385475 0.000784051) 564 1121 1
(0.360039 0.00940734 0.310573 0.31998) 490 975 1
(0.445592 0.0942306 0.182973 0.277204) 491 977 1
(0.444208 0.277896 0.103213 0.174683) 567 979 2
(0.393752 0.303124 0.109038 0.194087) 568 981 2
(0.389013 0.305494 0.220244 0.0852496) 569 983 2
(0.123587 0.438207 0.39854 0.0396661) 570 985 2
(0.146045 0.426978 0.00830654 0.418671) 496 987 2
(2.16967e-07 0.5 0.5 1.11026e-08) 525 7457 2
(2.17203e-07 0.5 0.5 1.07535e-08) 525 7457 2
(2.18516e-07 0.5 0.0415194 0.45848) 450 7456 2
(2.17425e-07 0.5 0.0999984 0.400001) 525 7457 2
(0.0873333 0.456333 0.446493 0.00984083) 450 746 2
(0.121869 0.439066 0.277132 0.161934) 450 746 2
(0.163285 0.418358 0.251684 0.166673) 375 597 2
(0.0807368 0.459632 0.310447 0.149184) 450 746 2
(0.139558 0.430221 0.218561 0.21166) 450 746 2
(0.76092 0.0864366 0.0331033 0.11954) 375 746 1
(0.20325 0.398375 0.359276 0.0390992) 450 894 1
(0.206613 0.396693 0.360013 0.0366808) 450 894 1
(0.222234 0.388883 0.346698 0.0421855) 450 894 1
(0.186419 0.406791 0.374899 0.0318913) 450 894 1
(0.255466 0.372267 0.310183 0.0620844) 450 894 1
(0.286555 0.356723 0.314158 0.0425644) 450 894 1
(0.0440696 0.477965 0.221029 0.256936) 525 895 2
(0.166792 0.229623 0.416604 0.186981) 525 895 1
(0.194688 0.0967631 0.402656 0.305893) 525 895 1
(0.247926 0.376037 0.330358 0.0456791) 450 894 1
(0.263435 0.368283 0.330975 0.0373077) 450 894 1
(0.300926 0.349537 0.299085 0.0504518) 450 894 1
(0.17518 0.0259259 0.41241 0.386484) 450 746 1
(0.216928 0.148168 0.391536 0.243367) 525 895 1
(0.380005 0.309998 0.26142 0.0485775) 525 1043 1
(0.140779 0.42961 0.105342 0.324269) 525 1043 1
(0.543905 0.228047 0.0647103 0.163337) 526 1043 1
(0.959644 0.0201782 0.014179 0.00599919) 526 1043 1
(0.837733 0.0787002 0.0811333 0.00243314) 526 1045 2
(0.0287698 0.425167 0.0604476 0.485615) 527 1045 2
(0.0130134 0.371642 0.121852 0.493493) 527 1045 2
(0.2964 0.121402 0.230398 0.3518) 527 1045 2
(0.0497066 0.130414 0.475147 0.344732) 527 1047 2
(0.893909 0.028668 0.0243773 0.0530453) 529 1049 2
(0.818144 0.090928 0.0778163 0.0131117) 531 1056 2
(0.161552 0.271601 0.419224 0.147623) 532 1057 2
(0.134722 0.432639 0.25849 0.174149) 608 1060 2
(0.0894158 0.455292 0.235706 0.219587) 609 1062 2
(0.0388512 0.151126 0.480574 0.329448) 534 1061 2
(0.0134025 0.493299 0.240695 0.252603) 536 1066 2
(0.139005 0.430497 0.32663 0.103868) 538 1070 2
(0.0271214 0.486439 0.205876 0.280563) 540 1071 1
(0.28033 0.315066 0.359835 0.0447693) 541 927 1
(0.123293 0.438354 0.126604 0.31175) 543 931 2
(0.246931 0.0377126 0.338822 0.376535) 469 930 2
(0.0334242 0.130674 0.352614 0.483288) 470 932 2
(0.0264745 0.119971 0.486763 0.366792) 470 934 2
(0.123847 0.0636532 0.374423 0.438077) 472 936 2
(0.37516 0.31242 0.117492 0.194928) 473 941 2
(0.343409 0.328296 0.223878 0.104418) 474 943 2
(0.210912 0.394544 0.0320866 0.362457) 550 945 2
(0.24091 0.379545 0.134794 0.244752) 551 947 2
(0.294332 0.0920445 0.352834 0.260789) 476 946 2
(0.428128 0.0633106 0.222625 0.285936) 477 949 1
(0.278605 0.360697 0.346783 0.013914) 478 951 2
(0.358721 0.320639 0.0490146 0.271625) 479 953 2
(0.226096 0.074824 0.312128 0.386952) 554 1099 2
(0.160411 0.181316 0.419795 0.238479) 554 1101 2
(0.50287 0.124041 0.124524 0.248565) 555 1104 1
(0.399954 0.300023 0.169363 0.13066) 556 1106 2
(0.140167 0.429916 0.273088 0.156829) 632 1108 2
(0.209547 0.395226 0.39261 0.00261682) 633 1110 2
(0.183228 0.408386 0.358236 0.0501501) 634 1112 2
(0.27174 0.21971 0.14442 0.36413) 560 1114 1
(0.322969 0.338516 0.256573 0.0819425) 636 1116 2
(0.180234 0.409883 0.320677 0.0892063) 637 1118 2
(0.138101 0.430949 0.352804 0.0781458) 563 1120 2
(0.0307777 0.484611 0.0630895 0.421522) 639 1122 2
(0.218167 0.390916 0.165294 0.225623) 640 1124 2
(0.474953 0.262524 0.0128802 0.249643) 641 1126 2
(0.375043 0.312478 0.258683 0.0537954) 642 1276 1
(0.243341 0.378329 0.275216 0.103113) 643 1278 1
(0.0263049 0.486848 0.120519 0.366329) 645 1280 1
(0.121481 0.439259 0.390386 0.0488736) 646 1136 2
(0.403597 0.298201 0.203518 0.0946831) 571 1135 1
(2.1627e-07 0.5 0.5 5.89603e-09) 600 7458 2
(2.16625e-07 0.5 0.5 5.8146e-09) 600 7458 2
(1.02388e-07 0.5 0.172398 0.327602) 525 7457 2
(2.16954e-07 0.5 0.0291418 0.470858) 600 7458 2
(1.09706e-07 0.5 0.0202051 0.479795) 525 7457 2
(1.16555e-07 0.5 0.0156803 0.48432) 525 7457 2
(0.81359 0.0432062 0.0932051 0.0499989) 450 894 2
(0.208002 0.00843386 0.395999 0.387565) 525 895 1
(7.2208e-08 0.5 0.0150516 0.484948) 525 7457 2
(0.19358 0.40321 0.394428 0.00878165) 525 1043 1
(0.194297 0.402851 0.399083 0.00376824) 525 1043 1