/*--------------------------------*- C++ -*----------------------------------*\
  =========                 |
  \\      /  F ield         | OpenFOAM: The Open Source CFD Toolbox
   \\    /   O peration     | Website:  https://openfoam.org
    \\  /    A nd           | Version:  12
     \\/     M anipulation  |
\*---------------------------------------------------------------------------*/
FoamFile
{
    format      ascii;
    class       vectorField;
    location    "0.55/lagrangian/cloud";
    object      U;
}
// * * * * * * * * * * * * * * * * * * * * * * * * * * * * * * * * * * * * * //


5067
(
(7.08681e-11 -4.95526e-05 0)
(6.72888e-11 -4.95952e-05 0)
(6.38898e-11 -4.96356e-05 0)
(6.06622e-11 -4.96738e-05 0)
(5.75974e-11 -4.971e-05 0)
(5.4687e-11 -4.97442e-05 0)
(5.19235e-11 -4.97766e-05 0)
(0.000823397 -0.00446539 0)
(0.000746967 -0.00607825 0)
(0.000700539 -0.00570362 0)
(0.000548414 -0.00565569 0)
(0.00239533 -0.00612693 0)
(0.00083386 -0.0051124 0)
(0.000219239 -0.00312497 0)
(-0.00100994 -0.00447974 0)
(-0.00408593 0.00561005 0)
(-0.00488147 -0.0142859 0)
(0.00290896 -0.012198 0)
(0.00195689 -0.0145855 0)
(-5.28249e-05 -0.0321041 0)
(-0.00149741 -0.0370047 0)
(-0.00073068 -0.0348052 0)
(-0.00175386 -0.0331824 0)
(0.000447703 -0.0294484 0)
(0.000895571 -0.0301681 0)
(4.81623e-05 -0.0303348 0)
(4.05563e-05 -0.0287635 0)
(0.00105865 -0.0289581 0)
(-0.000399929 -0.026338 0)
(0.00177441 -0.0259532 0)
(-3.86889e-05 -0.0300401 0)
(-0.00150608 -0.0280702 0)
(0.000797923 -0.026124 0)
(-0.000137646 -0.0293795 0)
(-0.000105575 -0.0254951 0)
(-0.000341155 -0.0253094 0)
(0.00219887 -0.0249728 0)
(0.000842318 -0.0278843 0)
(-0.000187593 -0.0279417 0)
(0.000325412 -0.0291378 0)
(-0.000157421 -0.0322766 0)
(0.00115846 -0.0288454 0)
(0.000100791 -0.028735 0)
(0.000402229 -0.0274049 0)
(-0.00119489 -0.0291198 0)
(-0.00107423 -0.0303717 0)
(-0.000101035 -0.0292866 0)
(0.00075779 -0.0262217 0)
(0.000150955 -0.0277205 0)
(-0.000574462 -0.0248176 0)
(5.09319e-05 -0.0235237 0)
(-0.00055005 -0.0234523 0)
(-0.00189519 -0.0192596 0)
(-0.00217665 -0.0215485 0)
(-0.00455382 -0.0155008 0)
(-0.00140151 -0.0239518 0)
(-0.000127428 -0.0225378 0)
(-0.000186773 -0.0190962 0)
(0.000210992 -0.0154366 0)
(-0.00126725 -0.0185803 0)
(0.00025844 -0.0176179 0)
(0.000269098 -0.0201633 0)
(-0.000130135 -0.0219045 0)
(0.000331292 -0.0241807 0)
(0.000468744 -0.0261543 0)
(0.000229495 -0.0260131 0)
(0.000517751 -0.0255576 0)
(-0.000695932 -0.0273892 0)
(0.000102639 -0.0257382 0)
(-0.00154331 -0.0272505 0)
(-0.000962487 -0.0295221 0)
(-2.32602e-05 -0.028098 0)
(0.000355155 -0.0237832 0)
(-0.000275837 -0.0241922 0)
(-0.000437781 -0.0220917 0)
(7.0058e-11 -4.96859e-05 0)
(6.74388e-11 -4.97086e-05 0)
(2.10039e-06 -2.68637e-05 0)
(1.98907e-06 -2.81473e-05 0)
(0.000822636 -0.00507406 0)
(0.00189017 -0.0127311 0)
(0.00294219 -0.0202085 0)
(0.00158856 -0.0123771 0)
(0.000929462 -0.00392681 0)
(0.0013476 -0.00848836 0)
(0.00148772 -0.000345949 0)
(0.000577063 -0.00979593 0)
(0.00101086 -0.0140546 0)
(0.00137592 -0.00966858 0)
(-1.81875e-05 -0.00320153 0)
(-0.000159389 -0.0126114 0)
(-0.000124362 -0.0120256 0)
(-0.00243867 -0.0136365 0)
(-0.00408077 -0.0142423 0)
(-0.00733663 -0.00685398 0)
(0.00549019 -0.0091484 0)
(0.00250848 -0.0329847 0)
(-0.00463199 -0.0348264 0)
(-0.00402973 -0.0369065 0)
(-0.00406724 -0.0364216 0)
(-0.00192387 -0.0268161 0)
(-0.000138127 -0.0310973 0)
(0.000563211 -0.0296578 0)
(-0.00103643 -0.0255796 0)
(0.000325285 -0.0255188 0)
(-0.00042631 -0.0258794 0)
(-0.000852005 -0.0346589 0)
(-0.00257657 -0.0385408 0)
(-0.000342122 -0.0374357 0)
(0.00176413 -0.0317248 0)
(0.00150335 -0.0318085 0)
(-0.000486147 -0.0272601 0)
(-0.00114456 -0.0280444 0)
(-0.00015861 -0.0259959 0)
(0.00132506 -0.0272423 0)
(-0.00051807 -0.0253444 0)
(0.000271695 -0.027572 0)
(0.00215573 -0.0360151 0)
(0.00168948 -0.0330632 0)
(-0.000151986 -0.0262422 0)
(0.00147251 -0.0256923 0)
(-0.000857624 -0.0282805 0)
(0.00027618 -0.0289787 0)
(-0.000423432 -0.0290984 0)
(-3.49854e-05 -0.0296138 0)
(0.00119902 -0.0228528 0)
(0.000372755 -0.0368873 0)
(-0.000299541 -0.0330245 0)
(0.00075428 -0.0326804 0)
(0.000680404 -0.0299688 0)
(0.00112753 -0.0318076 0)
(-0.000875809 -0.033991 0)
(-0.00171207 -0.0258249 0)
(-0.00186858 -0.0248402 0)
(-0.00196055 -0.022923 0)
(-0.000647193 -0.0166143 0)
(-0.00180397 -0.0223742 0)
(-0.00431169 -0.0347078 0)
(-0.00224276 -0.0287944 0)
(-0.000725657 -0.0252424 0)
(-0.00355998 -0.0265156 0)
(-0.000195126 -0.0275186 0)
(0.00310464 -0.0257317 0)
(0.00465739 -0.0262854 0)
(0.00157432 -0.0297332 0)
(0.000512344 -0.0299689 0)
(-0.000129443 -0.0216499 0)
(-0.000746097 -0.0297802 0)
(0.000490937 -0.0318295 0)
(0.000236864 -0.0298231 0)
(7.0602e-12 -4.95525e-05 0)
(6.70327e-12 -4.95951e-05 0)
(-5.76017e-06 -1.5217e-05 0)
(6.36434e-12 -4.96355e-05 0)
(-2.4739e-06 -0.0114035 0)
(-3.36897e-05 -0.0114165 0)
(0.000179011 -0.000934235 0)
(0.00391829 -0.00484661 0)
(-0.000422222 -0.0102243 0)
(0.00460739 -0.00570308 0)
(0.001863 -0.0110893 0)
(-0.000987042 -0.00699357 0)
(0.000771676 -0.00922602 0)
(-0.000416997 -0.00600803 0)
(-0.000555488 -0.00814896 0)
(-0.000696337 -0.00838094 0)
(-0.000877124 -0.00889288 0)
(0.000666156 -0.00915711 0)
(0.00103269 -0.0124585 0)
(-0.00298845 -0.0162177 0)
(-0.00856759 -0.00844842 0)
(0.00177601 -0.0171702 0)
(-0.00602408 -0.0151542 0)
(0.000747731 0.00617968 0)
(-0.00276859 -0.0140809 0)
(-0.000739484 -0.0396055 0)
(-0.00263216 -0.0405023 0)
(-0.00134956 -0.0404881 0)
(-0.00122393 -0.039606 0)
(-0.00104611 -0.0365283 0)
(-0.00211466 -0.0322735 0)
(0.00080659 -0.0411221 0)
(-0.0004943 -0.0411746 0)
(-0.000827204 -0.0381581 0)
(-0.00101845 -0.0377014 0)
(-0.00183149 -0.0375039 0)
(-0.00128171 -0.0415136 0)
(-0.0012961 -0.0434953 0)
(0.000759095 -0.0428683 0)
(0.00114469 -0.0396882 0)
(0.000370733 -0.0389386 0)
(-0.0012441 -0.037884 0)
(0.000249009 -0.038318 0)
(-0.00111145 -0.0358051 0)
(-0.00026743 -0.0432766 0)
(0.00259423 -0.0355877 0)
(-0.000841201 -0.0285974 0)
(-0.000130816 -0.0356053 0)
(-0.000866714 -0.0394693 0)
(0.000499375 -0.0348033 0)
(-0.00118367 -0.0415887 0)
(-0.000838263 -0.0388421 0)
(-0.00285741 -0.038931 0)
(0.000125657 -0.0450708 0)
(0.00123497 -0.0453369 0)
(-0.000445562 -0.045856 0)
(-0.000227444 -0.0463623 0)
(-0.000357524 -0.0446051 0)
(7.91792e-05 -0.0394111 0)
(-0.00160914 -0.036475 0)
(-0.00143395 -0.0329215 0)
(-0.00296925 -0.0314913 0)
(-0.00152173 -0.0365694 0)
(-0.00303932 -0.0346813 0)
(-0.000642018 -0.0341087 0)
(-0.00572313 -0.0400213 0)
(-0.00536307 -0.0345115 0)
(-0.002946 -0.0366721 0)
(-0.0032846 -0.0367195 0)
(-0.00174282 -0.0364746 0)
(0.00242666 -0.0397136 0)
(0.00407319 -0.0395209 0)
(0.0049854 -0.0367567 0)
(0.00226851 -0.0384922 0)
(0.00179176 -0.0357283 0)
(2.75105e-13 -4.96459e-05 0)
(2.63608e-13 -4.96739e-05 0)
(-1.00706e-05 -2.25573e-05 0)
(2.5259e-13 -4.97006e-05 0)
(-9.54145e-06 -2.40803e-05 0)
(-0.000542508 -0.00101844 0)
(-0.000584222 -0.00182468 0)
(-0.00113297 -0.00936882 0)
(-0.00128569 -0.00883898 0)
(-0.00110267 -0.00721185 0)
(-0.000430449 -0.00845713 0)
(-0.000364255 -0.00779201 0)
(-0.000290046 -0.0073962 0)
(6.7155e-05 -0.0090424 0)
(-0.000508252 -0.0109647 0)
(9.44714e-05 -0.00834558 0)
(0.000139292 -0.0097191 0)
(-0.000841889 -0.00836085 0)
(-0.000471231 -0.00732036 0)
(-0.0031712 -0.00919901 0)
(-0.00215283 -0.00302559 0)
(-0.00384057 -0.0101527 0)
(-0.00519421 0.000283922 0)
(0.00554045 -0.0125354 0)
(-0.00543773 -0.00446309 0)
(-0.00705295 -0.0329123 0)
(-0.00755058 -0.0343638 0)
(-0.00666877 -0.0444301 0)
(-0.00468794 -0.0404992 0)
(-0.000898695 -0.0399754 0)
(-0.00239366 -0.0419757 0)
(-0.00149088 -0.0422356 0)
(-0.000559493 -0.0392505 0)
(0.000765759 -0.0396887 0)
(0.000833265 -0.0379251 0)
(0.000273195 -0.0374496 0)
(0.000443439 -0.0369818 0)
(-0.000573056 -0.0420213 0)
(-0.000422446 -0.0414598 0)
(-0.000551645 -0.0465584 0)
(-0.000137109 -0.0476256 0)
(-0.000353783 -0.0466867 0)
(-0.000175485 -0.0454349 0)
(-0.000213576 -0.0457412 0)
(-0.000275291 -0.0469398 0)
(-0.00113174 -0.0490283 0)
(-0.000265107 -0.0495003 0)
(-0.000382946 -0.0475503 0)
(0.00125822 -0.0475167 0)
(0.0019442 -0.0450875 0)
(0.00112632 -0.0448551 0)
(0.000802932 -0.0454894 0)
(0.000320471 -0.048635 0)
(-0.000667693 -0.0432118 0)
(-0.000641679 -0.043998 0)
(0.000560463 -0.0469385 0)
(0.000347942 -0.0449066 0)
(-0.000748474 -0.0469188 0)
(-0.000336299 -0.0454003 0)
(-0.00119015 -0.0430197 0)
(-0.00218732 -0.0445919 0)
(-0.000804958 -0.0409413 0)
(-0.00168244 -0.0418153 0)
(-0.000680747 -0.0393294 0)
(-0.00200786 -0.0372023 0)
(-0.0025985 -0.0401392 0)
(-0.00561219 -0.0370463 0)
(-0.00306246 -0.0391083 0)
(-0.00528218 -0.0427993 0)
(-0.00402388 -0.0440862 0)
(-0.00273631 -0.0447414 0)
(-0.00371651 -0.0472659 0)
(0.00030046 -0.044077 0)
(0.0038131 -0.0438794 0)
(0.0035686 -0.0426468 0)
(1.47617e-11 -4.96458e-05 0)
(1.41514e-11 -4.96738e-05 0)
(4.44873e-06 -4.07044e-05 0)
(1.35662e-11 -4.97006e-05 0)
(4.26071e-06 -4.11252e-05 0)
(-0.000683691 -0.00254905 0)
(-0.00158784 -0.00520459 0)
(0.00108276 -0.00545349 0)
(9.56972e-05 -0.010255 0)
(-0.000798301 -0.00428709 0)
(-0.00180478 -0.0116959 0)
(0.000512466 -0.00901166 0)
(-0.00195215 -0.0109338 0)
(0.00127923 -0.00810648 0)
(-0.00186835 -0.00986588 0)
(-0.00161371 -0.00927912 0)
(-0.00111546 -0.00843079 0)
(-0.000592086 -0.00882579 0)
(-0.000595338 -0.0143198 0)
(-0.00120357 -0.005829 0)
(-0.00172026 -0.0105635 0)
(-0.000486844 -0.00775934 0)
(-0.000165544 -0.00153685 0)
(0.00155857 0.000631768 0)
(0.00291559 -0.00685439 0)
(0.00605553 -0.0160535 0)
(-0.00544198 0.00707281 0)
(-0.0056148 -0.0436692 0)
(-0.00538008 -0.0419396 0)
(-0.00292235 -0.0433527 0)
(-0.00530512 -0.0424162 0)
(-0.00348726 -0.0414147 0)
(-0.00228215 -0.0418938 0)
(-0.00131446 -0.0423362 0)
(-0.000514093 -0.041859 0)
(-0.00112702 -0.0410336 0)
(-0.0012139 -0.0405527 0)
(-0.00126356 -0.0399857 0)
(-0.00145234 -0.0400133 0)
(0.000827569 -0.0417154 0)
(0.000423658 -0.0394311 0)
(0.0014998 -0.0412241 0)
(0.000641784 -0.043214 0)
(7.15176e-05 -0.0453283 0)
(-0.000361786 -0.0468657 0)
(0.000120219 -0.049995 0)
(0.000432209 -0.0495438 0)
(-0.00132309 -0.0499685 0)
(0.000194199 -0.0487322 0)
(0.00148675 -0.0472615 0)
(0.00221735 -0.0453561 0)
(6.9626e-05 -0.0470339 0)
(0.00015739 -0.0478394 0)
(-0.000215301 -0.0469039 0)
(-0.000908499 -0.0441655 0)
(0.000303826 -0.0444958 0)
(0.00131474 -0.0435963 0)
(0.00276267 -0.0441015 0)
(0.00119847 -0.0444835 0)
(0.000102808 -0.0437529 0)
(-9.57496e-05 -0.0437942 0)
(-0.000248595 -0.0447515 0)
(0.00034263 -0.0434048 0)
(-6.78325e-05 -0.0398638 0)
(-0.00113988 -0.0390533 0)
(-0.00332763 -0.0414956 0)
(-0.00532178 -0.0431518 0)
(-0.00647114 -0.0439421 0)
(-0.00539108 -0.0456402 0)
(-0.00299941 -0.0455442 0)
(-0.00303459 -0.0463398 0)
(-0.000980933 -0.0469862 0)
(0.00315607 -0.0526612 0)
(0.00352072 -0.0452 0)
(0.00159008 -0.0486888 0)
(6.89209e-12 -4.96458e-05 0)
(6.60704e-12 -4.96738e-05 0)
(1.30052e-11 -4.97262e-05 0)
(6.33375e-12 -4.97006e-05 0)
(-0.0012651 -0.00535118 0)
(1.24674e-11 -4.97507e-05 0)
(0.000478438 0.000333685 0)
(-0.000915949 -0.00536775 0)
(-0.00169083 -0.0113054 0)
(-0.00197036 -0.00951534 0)
(-0.00200135 -0.0104908 0)
(-5.53947e-05 -0.00875752 0)
(-0.00157039 -0.00875864 0)
(-0.00156778 -0.00894158 0)
(-0.00184224 -0.00714962 0)
(-0.00226672 -0.00642354 0)
(-0.00208652 -0.00582392 0)
(-0.00183122 -0.00604628 0)
(-0.00231651 -0.00549588 0)
(-0.0023825 -0.00481421 0)
(-0.00190294 -0.0128495 0)
(0.00380456 -0.00674703 0)
(-0.00310014 -0.00907875 0)
(-0.00242278 -0.0117649 0)
(0.00346034 -0.0061613 0)
(0.000123215 -0.0116188 0)
(-0.0070074 -0.0103334 0)
(-0.00622867 -0.0158975 0)
(-0.00475996 -0.0390524 0)
(-0.00564983 -0.0389193 0)
(-0.00471529 -0.0432687 0)
(-0.0056592 -0.0466345 0)
(-0.00582703 -0.0455652 0)
(-0.00310923 -0.0475071 0)
(-0.00302337 -0.0462475 0)
(-0.00179477 -0.0449667 0)
(-0.00178433 -0.044759 0)
(-0.00209681 -0.0488888 0)
(0.000572462 -0.0475221 0)
(0.00341503 -0.0470866 0)
(0.000386509 -0.0430634 0)
(0.000869442 -0.0454211 0)
(0.000590062 -0.0465139 0)
(0.000325835 -0.0466062 0)
(0.00067985 -0.0457541 0)
(0.000255659 -0.045637 0)
(-0.000353903 -0.0467436 0)
(-0.000179655 -0.047177 0)
(-0.000137056 -0.0472896 0)
(-3.85931e-05 -0.0462693 0)
(-0.00020401 -0.0450041 0)
(-0.000104289 -0.0445898 0)
(-9.79186e-05 -0.0450468 0)
(7.3891e-05 -0.045951 0)
(-1.21526e-05 -0.0423646 0)
(-0.000600764 -0.0409643 0)
(0.0011058 -0.0422433 0)
(-0.000664196 -0.0432187 0)
(-0.000676287 -0.0438199 0)
(-0.000668538 -0.0422419 0)
(-0.00123559 -0.040326 0)
(-0.000129293 -0.0417252 0)
(-0.000680238 -0.0418755 0)
(0.000742106 -0.0423916 0)
(0.000257124 -0.0424053 0)
(0.000368819 -0.0430278 0)
(-1.77297e-05 -0.0421461 0)
(-0.000813741 -0.0426353 0)
(-0.00180518 -0.0467946 0)
(-0.00160651 -0.046078 0)
(-0.00208246 -0.0472264 0)
(-0.00112468 -0.0478271 0)
(-0.000742642 -0.0486887 0)
(0.000770347 -0.0506635 0)
(0.002815 -0.0531659 0)
(-1.11648e-11 -4.97223e-05 0)
(-1.07874e-11 -4.97408e-05 0)
(-0.00192336 0.00191396 0)
(-1.04228e-11 -4.97585e-05 0)
(2.04111e-07 -3.96226e-05 0)
(-0.000564973 -0.00620695 0)
(-0.00208849 -0.00717317 0)
(0.000742708 -0.00669135 0)
(5.63926e-06 -3.53549e-05 0)
(-0.00256038 0.00195298 0)
(-0.000882283 -0.0106846 0)
(-0.000798539 -0.00990712 0)
(-0.00136334 -0.0100473 0)
(-0.00150161 -0.00902846 0)
(-0.00140157 -0.00840996 0)
(-0.00139705 -0.00965013 0)
(-0.00124319 -0.00958599 0)
(-0.00107365 -0.00754693 0)
(-3.20295e-05 -0.00927439 0)
(-0.00146104 -0.0124366 0)
(-0.00145088 -0.0121603 0)
(0.00137858 0.000662633 0)
(0.000622713 0.00201691 0)
(-0.00183507 -0.0123609 0)
(-0.00503049 -0.0132451 0)
(-0.0042137 -0.0089954 0)
(0.00226344 -0.00195134 0)
(-0.00583725 -0.00582486 0)
(-0.00494979 -0.00356728 0)
(-0.00361814 -0.00923209 0)
(-0.00461611 -0.04493 0)
(-0.0035903 -0.0512594 0)
(-0.00318753 -0.0531573 0)
(-0.00362338 -0.0507835 0)
(-0.00259425 -0.0498443 0)
(-0.00127759 -0.0486388 0)
(-0.000814242 -0.048295 0)
(-0.000296913 -0.0485662 0)
(0.000277286 -0.0471903 0)
(0.00272777 -0.0454287 0)
(0.00337229 -0.0435444 0)
(0.00100584 -0.0460097 0)
(-0.000266781 -0.0465346 0)
(5.37887e-05 -0.0462624 0)
(0.000102952 -0.045943 0)
(-9.57e-06 -0.045677 0)
(-0.000194815 -0.0454812 0)
(-0.000203146 -0.0456931 0)
(-0.000214095 -0.0451033 0)
(-9.18264e-05 -0.0444504 0)
(0.000230316 -0.043363 0)
(0.000293711 -0.0426711 0)
(0.000652635 -0.042514 0)
(0.000422898 -0.038798 0)
(-7.19352e-05 -0.040326 0)
(-0.000678684 -0.0396519 0)
(-0.00122748 -0.0371491 0)
(-0.000668028 -0.0403589 0)
(-0.000720243 -0.0440379 0)
(-0.0017763 -0.0407109 0)
(-0.000340426 -0.0424983 0)
(-0.000155876 -0.0428717 0)
(-0.00148506 -0.0411068 0)
(0.00160345 -0.0434458 0)
(0.00123384 -0.0448191 0)
(3.3503e-05 -0.0430115 0)
(0.000363769 -0.0445383 0)
(-0.000556179 -0.0452718 0)
(-8.7723e-05 -0.0448353 0)
(-0.000262847 -0.0456017 0)
(-0.00126031 -0.0465119 0)
(-0.00103573 -0.0475592 0)
(0.000239991 -0.0484238 0)
(0.00252166 -0.0501546 0)
(0.00201759 -0.0503622 0)
(2.9493e-11 -4.94897e-05 0)
(2.78407e-11 -4.95436e-05 0)
(-1.00704e-11 -4.97756e-05 0)
(2.62809e-11 -4.95943e-05 0)
(-0.00117977 -0.00314967 0)
(0.00218477 -0.00562446 0)
(0.000513725 -0.00364343 0)
(-0.00242517 -0.00398595 0)
(0.00220938 -0.00636598 0)
(-0.00163366 -0.00831191 0)
(0.00202524 -0.010752 0)
(-0.00184156 -0.0110609 0)
(-0.00102324 -0.0112335 0)
(-0.00233182 -0.00926737 0)
(0.00501422 -0.00943514 0)
(-0.00127426 -0.0108514 0)
(1.5801e-05 -0.00527228 0)
(0.00030207 -0.0101543 0)
(0.000432113 -0.0110178 0)
(0.00325234 -0.00722445 0)
(0.00357772 -0.0102002 0)
(0.000850691 -0.00964375 0)
(-0.000773268 -0.00528152 0)
(3.19671e-05 -0.00983933 0)
(0.00040371 -0.016244 0)
(0.00169595 -0.014263 0)
(2.14282e-05 -0.00866128 0)
(0.00888084 -0.0081245 0)
(-0.000580142 -0.00674753 0)
(-0.00461849 0.0081594 0)
(-0.00480848 -0.0115999 0)
(-0.00656848 -0.0341421 0)
(0.000324207 -0.0489195 0)
(-0.00312897 -0.0533022 0)
(-0.00288349 -0.0521295 0)
(-0.00265256 -0.0555949 0)
(-0.00127964 -0.0540948 0)
(-0.000212072 -0.0516895 0)
(-0.000863819 -0.0517753 0)
(-0.00106883 -0.0472876 0)
(0.000570077 -0.0439773 0)
(0.00182714 -0.0447977 0)
(0.000860738 -0.0450495 0)
(0.00021036 -0.0433132 0)
(-0.000329553 -0.0432993 0)
(-0.000388336 -0.0434722 0)
(6.76455e-05 -0.0458174 0)
(9.33813e-05 -0.0445364 0)
(9.29065e-07 -0.0435995 0)
(0.000205729 -0.0422015 0)
(-0.000106918 -0.0402392 0)
(-0.000120044 -0.0387847 0)
(0.000173241 -0.0410891 0)
(0.00203674 -0.0390051 0)
(-0.000856144 -0.0402314 0)
(0.00064724 -0.0402845 0)
(0.000336179 -0.0381736 0)
(-0.00109111 -0.037705 0)
(9.22252e-05 -0.0375193 0)
(-2.44638e-05 -0.0410432 0)
(-0.000560169 -0.043671 0)
(-3.55045e-05 -0.0441018 0)
(0.000176359 -0.0457524 0)
(-0.000150472 -0.0439157 0)
(-0.000536764 -0.0457466 0)
(-0.000432213 -0.0465594 0)
(-6.50355e-05 -0.0451189 0)
(0.000132658 -0.0449517 0)
(0.000679335 -0.0466321 0)
(-0.00146399 -0.049833 0)
(-0.000885132 -0.0478117 0)
(0.000101871 -0.0506558 0)
(0.00319968 -0.0482888 0)
(0.00417528 -0.0446468 0)
(0.00190405 -0.0497091 0)
(2.97159e-10 -4.93721e-05 0)
(2.76872e-10 -4.94531e-05 0)
(2.64761e-05 -2.32858e-05 0)
(2.57966e-10 -4.9528e-05 0)
(2.49837e-05 -2.49621e-05 0)
(2.35706e-05 -2.65306e-05 0)
(-0.000419308 -0.0141998 0)
(0.00062781 -0.0113274 0)
(3.76141e-05 -1.64013e-05 0)
(-0.000144216 -0.0146131 0)
(-0.000191419 -0.0145645 0)
(0.000648461 -0.0108816 0)
(0.000820064 -0.00970017 0)
(0.0012478 -0.00904516 0)
(0.00118654 -0.00841906 0)
(0.00193501 -0.00817853 0)
(0.00455596 -0.0117951 0)
(0.00441555 -0.0126179 0)
(0.00362964 -0.0124794 0)
(0.00632589 -0.0133272 0)
(0.00340166 -0.011561 0)
(0.0094694 -0.0176792 0)
(0.00439608 -0.0121903 0)
(0.00153285 -0.00746523 0)
(0.00261089 -0.00993116 0)
(0.00246326 -0.00931405 0)
(0.000271646 -0.0124314 0)
(0.00346337 -0.00567993 0)
(0.00514507 0.00456522 0)
(0.000674123 -0.00737673 0)
(-0.00107013 -0.0130219 0)
(-0.000628672 0.00665691 0)
(-0.000781693 -0.00810147 0)
(-0.00849875 -0.0334434 0)
(-0.00146258 -0.0496005 0)
(-0.00382652 -0.0528694 0)
(-0.00483113 -0.0502728 0)
(-0.00357795 -0.0501216 0)
(-0.00237989 -0.0513267 0)
(-0.00198666 -0.0490323 0)
(0.00157093 -0.0479543 0)
(0.00136389 -0.0463923 0)
(0.000434283 -0.0435184 0)
(-0.000538547 -0.04215 0)
(-0.000992417 -0.0404957 0)
(-0.000471433 -0.0419947 0)
(-0.000149526 -0.0434344 0)
(-0.000565242 -0.0436202 0)
(-0.000501184 -0.0408644 0)
(0.000153707 -0.0387982 0)
(-0.00048856 -0.0395234 0)
(0.00120449 -0.0379974 0)
(0.0012971 -0.0372427 0)
(0.00150094 -0.0374528 0)
(0.000721241 -0.0372612 0)
(-0.000162897 -0.0392644 0)
(0.00126228 -0.0401758 0)
(0.000167092 -0.0392386 0)
(7.59492e-05 -0.0409712 0)
(-0.000470706 -0.0439301 0)
(0.000282553 -0.0448687 0)
(-0.000476772 -0.0456195 0)
(-0.000681788 -0.0480648 0)
(0.0010743 -0.0450195 0)
(-0.000112668 -0.0437646 0)
(-0.000556145 -0.0440911 0)
(-5.13122e-05 -0.0472609 0)
(-0.000624687 -0.0469545 0)
(4.97658e-05 -0.0508776 0)
(-0.00149397 -0.0485134 0)
(-0.000798438 -0.0519889 0)
(0.00199706 -0.0488303 0)
(0.00195876 -0.0457271 0)
(0.00134203 -0.0474128 0)
(0.00116439 -0.0479733 0)
(6.97846e-11 -4.97604e-05 0)
(6.76544e-11 -4.97749e-05 0)
(-0.00314767 -0.0010212 0)
(6.55892e-11 -4.9789e-05 0)
(0.00112355 -0.00406529 0)
(0.0010265 0.000136117 0)
(0.00280936 -0.00803999 0)
(0.00220462 0.000516322 0)
(0.00262004 -0.00736013 0)
(0.00257639 -0.00422967 0)
(0.00286125 -0.00719335 0)
(-0.00144284 -0.000846885 0)
(0.00162025 -0.00210331 0)
(0.00326515 -0.00682093 0)
(0.00129254 -0.00713894 0)
(0.000918342 -0.00792717 0)
(0.00091211 -0.00836723 0)
(0.000986887 -0.00924313 0)
(0.00121428 -0.00958842 0)
(0.00276728 -0.0127926 0)
(0.0036384 -0.0194098 0)
(0.00288114 -0.0175671 0)
(0.00136427 -0.00965636 0)
(0.00185766 -0.00801318 0)
(0.00376957 -0.0131243 0)
(0.00561848 -0.0147029 0)
(-0.00139931 -0.0140096 0)
(-0.00458492 -0.00129691 0)
(0.0004179 0.00391985 0)
(-0.000427724 -0.00104375 0)
(-0.00157389 -0.0066468 0)
(-0.00609266 -0.03147 0)
(-0.000411228 -0.0443073 0)
(0.00198932 -0.0456949 0)
(0.000638553 -0.0513236 0)
(0.0012301 -0.0516986 0)
(-0.00306374 -0.0472368 0)
(-0.00421602 -0.0497453 0)
(-0.0026673 -0.0497341 0)
(-0.00106827 -0.0492042 0)
(0.000354245 -0.0435098 0)
(-0.000383314 -0.0444989 0)
(-0.000399593 -0.0451436 0)
(0.00014764 -0.0454559 0)
(0.000549017 -0.0443141 0)
(-0.00119336 -0.0434662 0)
(0.00198855 -0.04394 0)
(-0.00240759 -0.0407619 0)
(-0.00291432 -0.0415293 0)
(-0.00244043 -0.0414004 0)
(-0.00155236 -0.0419471 0)
(-0.000647812 -0.0416496 0)
(-0.000265549 -0.0424415 0)
(-0.000443772 -0.0372896 0)
(0.000145175 -0.0436101 0)
(0.000794058 -0.0423344 0)
(0.00026901 -0.0467282 0)
(0.00070368 -0.0475279 0)
(0.000339161 -0.0480481 0)
(-0.000141608 -0.0449288 0)
(-0.000523892 -0.0459707 0)
(-0.00064469 -0.0451796 0)
(0.00113324 -0.0469203 0)
(0.000612039 -0.0454291 0)
(0.00057563 -0.0456291 0)
(0.000188696 -0.0456805 0)
(0.000571012 -0.0456317 0)
(-0.000858338 -0.0508888 0)
(-0.00051363 -0.0516801 0)
(-0.00139202 -0.0479304 0)
(0.000663886 -0.0467965 0)
(-0.000313686 -0.0506408 0)
(0.000795297 -0.0493691 0)
(0.000451461 -0.049051 0)
(8.09178e-05 -0.0475542 0)
(-1.09593e-11 -4.9761e-05 0)
(-1.06243e-11 -4.97755e-05 0)
(0.00062022 -0.00450504 0)
(-1.02995e-11 -4.97896e-05 0)
(-0.00343309 0.00124919 0)
(0.00331459 -0.00802346 0)
(0.00617668 -0.00864233 0)
(-0.00369854 0.00170367 0)
(0.00976103 -0.00820728 0)
(0.00620396 -0.0126351 0)
(-0.00215311 -0.0016191 0)
(0.00635636 -0.00861543 0)
(0.00238362 -0.00988991 0)
(-0.000182001 -0.00865055 0)
(0.000794455 -0.0118654 0)
(0.000870114 -0.0130425 0)
(0.000887532 -0.0153826 0)
(0.00118426 -0.0177241 0)
(-1.57875e-05 -0.0128865 0)
(-0.002265 -0.00395127 0)
(-0.000407742 -0.0105525 0)
(-0.00142943 -0.0126789 0)
(-0.000326679 -0.0171993 0)
(-0.00097153 -0.00641138 0)
(0.00185364 0.00242257 0)
(-0.00248454 0.00248692 0)
(-0.000857818 0.00845089 0)
(-0.000615673 -0.0130608 0)
(-0.000721866 -0.0264705 0)
(-0.000325249 -0.0454146 0)
(-0.00112991 -0.0417846 0)
(0.00165551 -0.0406787 0)
(-9.43684e-05 -0.0440841 0)
(-0.000627459 -0.0462812 0)
(-0.00188986 -0.044537 0)
(-0.00351556 -0.0448632 0)
(-0.00239476 -0.0466882 0)
(-0.00228409 -0.0471291 0)
(-0.00115025 -0.0464961 0)
(-0.0001889 -0.0465188 0)
(0.000803518 -0.0422619 0)
(-1.19889e-05 -0.0430971 0)
(0.000346373 -0.0450285 0)
(-0.000487034 -0.0446993 0)
(-0.000790794 -0.0432944 0)
(-0.000525406 -0.0417286 0)
(-0.000389502 -0.0427763 0)
(-0.000923218 -0.0429005 0)
(-0.000155993 -0.0435998 0)
(0.00023638 -0.0442808 0)
(-0.000937957 -0.0449328 0)
(-0.00159653 -0.0448277 0)
(-6.18927e-05 -0.0475808 0)
(-0.000104705 -0.0485688 0)
(-0.000199627 -0.0499548 0)
(-0.000563263 -0.0502104 0)
(-0.000327289 -0.0504727 0)
(0.000605652 -0.0496741 0)
(0.000130933 -0.0507053 0)
(-1.63073e-05 -0.0481419 0)
(-0.000399793 -0.0484947 0)
(-0.00057404 -0.0483679 0)
(-0.000334218 -0.0494587 0)
(-0.000401375 -0.0520476 0)
(-0.000321725 -0.0529053 0)
(0.00081343 -0.0491084 0)
(7.59096e-05 -0.0491867 0)
(-0.000746817 -0.051636 0)
(-0.000141094 -0.051543 0)
(-0.000810777 -0.0503206 0)
(0.000448951 -0.0468141 0)
(-1.37776e-05 -0.0494271 0)
(-0.000316492 -0.0496853 0)
(-0.000179639 -0.049469 0)
(-4.79647e-05 -0.0486824 0)
(-2.98645e-11 -4.97898e-05 0)
(-2.90408e-11 -4.98016e-05 0)
(-2.74914e-05 -0.0022169 0)
(-2.82398e-11 -4.9813e-05 0)
(-0.00143667 -0.00165489 0)
(0.000167947 -0.0023178 0)
(-0.000343024 -0.00871007 0)
(0.00116491 -0.00860505 0)
(0.00220316 -0.00889574 0)
(0.00344428 -0.00892914 0)
(0.000586923 -0.00838892 0)
(0.000551304 -0.00758828 0)
(-0.00275469 -0.00176231 0)
(-0.00172265 -0.0154456 0)
(-0.000272161 -0.00751448 0)
(-0.0013679 -0.0179716 0)
(-0.00146492 -0.0187645 0)
(-0.00131431 -0.0188901 0)
(-0.00238931 -0.0102278 0)
(-0.00287764 -0.00895959 0)
(-0.0026811 -0.00831378 0)
(-0.00228316 -0.00654983 0)
(-0.00319608 -0.010835 0)
(-0.00384275 -0.0107119 0)
(-0.000929228 -0.011656 0)
(-0.00900855 -0.0114618 0)
(-0.00147733 -0.00987958 0)
(0.000373363 0.00268474 0)
(-0.00133829 -0.0316216 0)
(4.45827e-05 -0.0430516 0)
(-0.000542419 -0.0424822 0)
(-0.00130117 -0.0395324 0)
(-0.000551464 -0.0399448 0)
(-0.000392091 -0.0434075 0)
(-0.00146338 -0.0448442 0)
(-0.000531764 -0.0457751 0)
(-0.00116256 -0.0463933 0)
(-0.000557612 -0.0465378 0)
(-0.000519261 -0.0462886 0)
(-0.000183841 -0.0458663 0)
(-0.00103401 -0.0455823 0)
(0.00029112 -0.0433893 0)
(0.000199024 -0.0465931 0)
(-0.000168826 -0.0469329 0)
(0.000667304 -0.0457714 0)
(0.000247774 -0.0444246 0)
(0.000763993 -0.0461601 0)
(0.000437311 -0.0468555 0)
(0.000283755 -0.0463859 0)
(-0.00125549 -0.0479488 0)
(-0.000800185 -0.0465789 0)
(0.000269119 -0.0465462 0)
(-0.000399319 -0.0480407 0)
(-0.00097707 -0.0492146 0)
(-0.000502492 -0.0501993 0)
(-0.000189002 -0.0494803 0)
(-4.46014e-05 -0.0487582 0)
(-4.75793e-05 -0.0491944 0)
(-0.000459897 -0.0495381 0)
(0.0002177 -0.0517726 0)
(0.0006872 -0.0520418 0)
(0.00035175 -0.0511349 0)
(-0.000106313 -0.0494436 0)
(-0.00151411 -0.0536934 0)
(-0.0010852 -0.0524826 0)
(-0.000816292 -0.0510153 0)
(-0.00123229 -0.0474484 0)
(-0.000130068 -0.050217 0)
(-0.000305268 -0.0508858 0)
(-0.000953637 -0.0498714 0)
(-0.000264115 -0.0499854 0)
(-0.00044507 -0.0495862 0)
(-8.21327e-05 -0.0492199 0)
(0.00022176 -0.0483498 0)
(-0.000406163 -0.0470949 0)
(-8.02465e-11 -4.95558e-05 0)
(-7.69263e-11 -4.95838e-05 0)
(0.00283558 -0.0101765 0)
(-7.37431e-11 -4.96106e-05 0)
(-0.000284759 -0.00277002 0)
(0.000479305 0.000233965 0)
(-0.00235882 -0.0156004 0)
(0.00711703 -0.00847282 0)
(-0.00195157 -0.00818075 0)
(0.000629488 -0.00279375 0)
(-0.00278521 -0.0158446 0)
(-0.00282807 -0.0154313 0)
(0.000412115 -0.00256579 0)
(-0.0002751 -0.00467887 0)
(-0.00427474 -0.016497 0)
(-0.00487631 -0.0164892 0)
(-0.00414438 -0.0137904 0)
(-0.00405322 -0.0133183 0)
(-0.00393073 -0.0121948 0)
(-0.0038523 -0.011476 0)
(-0.00377288 -0.0108093 0)
(-0.00365526 -0.0181728 0)
(-0.00378635 -0.015694 0)
(-0.00400281 -0.0159402 0)
(-0.00662609 -0.00880728 0)
(-0.00281995 -0.00797824 0)
(-0.00632365 -0.0197605 0)
(-0.00295918 -0.0235178 0)
(-0.00401857 -0.0368972 0)
(-0.00131758 -0.0426329 0)
(-0.000984068 -0.0451268 0)
(-0.00134159 -0.0427392 0)
(-0.00138575 -0.0436237 0)
(0.000491177 -0.0409967 0)
(-2.06944e-05 -0.0435911 0)
(-0.00131251 -0.0451237 0)
(-0.000430715 -0.0445604 0)
(-0.000981095 -0.0449847 0)
(0.000254972 -0.0454755 0)
(-0.001015 -0.0449615 0)
(0.00018439 -0.0450072 0)
(0.000219943 -0.046907 0)
(-0.000128353 -0.0460772 0)
(0.000323436 -0.0487256 0)
(0.000140883 -0.0487346 0)
(0.000348903 -0.0492912 0)
(0.000246917 -0.0482328 0)
(0.000149035 -0.0459915 0)
(0.000376592 -0.0471671 0)
(0.00098695 -0.0472175 0)
(-0.000256917 -0.0478057 0)
(-0.000179518 -0.048786 0)
(-3.12941e-05 -0.0476935 0)
(0.000613851 -0.0472448 0)
(-0.000429888 -0.0480469 0)
(-0.000121968 -0.0488168 0)
(-0.000650346 -0.0491964 0)
(0.00130525 -0.0493667 0)
(-0.000194434 -0.0473456 0)
(-3.04063e-05 -0.0515074 0)
(0.000548426 -0.0518893 0)
(-0.000474267 -0.0510014 0)
(-0.000136048 -0.0531432 0)
(0.00046971 -0.0505078 0)
(-0.00065056 -0.0509224 0)
(0.000364814 -0.0477949 0)
(-3.97499e-05 -0.0491837 0)
(-0.00121868 -0.0491858 0)
(-0.000783166 -0.0452776 0)
(-0.000152948 -0.0458438 0)
(-0.000224116 -0.0465225 0)
(0.000132326 -0.0468367 0)
(0.000112297 -0.0464623 0)
(0.000152335 -0.0455728 0)
(0.00171883 -0.043183 0)
(-1.36685e-11 -4.96459e-05 0)
(-1.31045e-11 -4.96739e-05 0)
(-0.00095036 -0.00522058 0)
(-1.25638e-11 -4.97007e-05 0)
(0.00077868 0.000906866 0)
(-0.00360054 -0.0107566 0)
(-0.00256681 -0.00787137 0)
(-0.00264997 -0.0079275 0)
(-0.00322241 -0.00901753 0)
(-0.00223225 -0.00558945 0)
(-0.00333438 -0.00643645 0)
(-0.00248475 -0.00861752 0)
(-0.00199728 -0.0120968 0)
(-0.00208096 -0.0130293 0)
(-0.00223733 -0.0117751 0)
(-0.0023716 -0.0147537 0)
(-0.00241497 -0.0112626 0)
(-0.00252726 -0.0102881 0)
(-0.00197876 -0.0102541 0)
(-0.00222206 -0.0117458 0)
(-0.00126685 -0.00633341 0)
(-0.00202822 -0.00812 0)
(-0.00143637 -0.00562214 0)
(-0.000539719 -0.0077695 0)
(0.000226222 -0.00958307 0)
(-0.00195517 -0.00527135 0)
(-0.00316481 -0.0150031 0)
(-0.00222262 0.00326996 0)
(-0.00280301 -0.0117571 0)
(-0.00469992 -0.0348005 0)
(-0.00109249 -0.0455222 0)
(0.0019146 -0.0459156 0)
(-0.00121519 -0.0444333 0)
(0.000632309 -0.0430855 0)
(-0.00254249 -0.0421721 0)
(-0.000723753 -0.0445721 0)
(-0.00124255 -0.0446505 0)
(-0.000450238 -0.0475637 0)
(-0.000223538 -0.0476392 0)
(-0.000680087 -0.0468888 0)
(-0.000388558 -0.0497054 0)
(-0.000364436 -0.0467765 0)
(0.000322853 -0.0485551 0)
(0.000558397 -0.0484353 0)
(0.0003592 -0.0473601 0)
(0.000417155 -0.0468521 0)
(-7.76715e-05 -0.0466106 0)
(0.000130027 -0.0475421 0)
(0.000163568 -0.0467645 0)
(1.03056e-05 -0.0448967 0)
(-0.000555757 -0.0467611 0)
(-0.000638155 -0.0469317 0)
(-0.000335977 -0.047865 0)
(0.000181647 -0.0469022 0)
(-2.18074e-05 -0.0473791 0)
(0.000139868 -0.0488706 0)
(-0.000121534 -0.048286 0)
(-9.91449e-05 -0.0481587 0)
(0.000163278 -0.0486614 0)
(0.000256117 -0.0491619 0)
(6.00738e-05 -0.0493395 0)
(-0.000287697 -0.0477688 0)
(-0.000417165 -0.047968 0)
(-0.000506107 -0.0473226 0)
(-0.000961839 -0.0484162 0)
(-0.000468522 -0.0474261 0)
(-0.00108534 -0.045109 0)
(-0.000542484 -0.0435259 0)
(0.000657356 -0.0421798 0)
(-0.00033121 -0.0436989 0)
(-0.000362857 -0.0447388 0)
(-0.000137534 -0.0453865 0)
(0.000118004 -0.0456983 0)
(8.44331e-05 -0.0450376 0)
(0.000168002 -0.043785 0)
(4.82606e-11 -4.96016e-05 0)
(4.605e-11 -4.96361e-05 0)
(0.000218519 0.000580491 0)
(4.39405e-11 -4.9669e-05 0)
(-0.00232151 -0.00810307 0)
(-8.52323e-05 0.000931001 0)
(-0.00170047 -0.00640807 0)
(-0.000866304 -0.00782144 0)
(-0.00347899 -0.00636767 0)
(-0.00110918 -0.00358378 0)
(-0.00264573 -0.00670671 0)
(0.000291188 0.000189687 0)
(-0.00260793 -0.0104829 0)
(-0.00241063 -0.0111023 0)
(-0.000384833 -0.0161205 0)
(0.00131441 -0.0155947 0)
(0.00069274 -0.0105788 0)
(0.000442321 -0.00901153 0)
(0.000723005 -0.00890543 0)
(0.000531072 -0.00789997 0)
(0.000584735 -0.00726663 0)
(-0.000496401 -0.00627611 0)
(-0.00072882 -0.0126483 0)
(-0.000905395 -0.0102468 0)
(0.00155732 -0.00838584 0)
(0.00154972 -0.00323028 0)
(0.00365487 0.00340715 0)
(-0.00247529 -0.00576013 0)