/*--------------------------------*- C++ -*----------------------------------*\
  =========                 |
  \\      /  F ield         | OpenFOAM: The Open Source CFD Toolbox
   \\    /   O peration     | Website:  https://openfoam.org
    \\  /    A nd           | Version:  12
     \\/     M anipulation  |
\*---------------------------------------------------------------------------*/
FoamFile
{
    format      ascii;
    class       IOPosition;
    location    "0.25/lagrangian/cloud";
    object      positions;
}
// * * * * * * * * * * * * * * * * * * * * * * * * * * * * * * * * * * * * * //

3157
(
(0.881211 0.0343133 0.0593947 0.0250814) 1 7376 2
(0.405501 0.271334 0.0259155 0.29725) 2 5 1
(0.471433 0.264283 0.116921 0.147362) 3 7 2
(0.281151 0.359425 0.133664 0.225761) 4 6 1
(0.0855198 0.45724 0.250864 0.206376) 4 8 1
(0.3792 0.3104 0.276217 0.0341826) 5 10 1
(0.462249 0.268876 0.267792 0.00108341) 6 12 1
(0.185993 0.407004 0.187405 0.219599) 7 14 1
(0.698745 0.0184368 0.132191 0.150628) 9 19 1
(0.0503998 0.142527 0.4748 0.332273) 10 20 2
(0.0557174 0.138006 0.472141 0.334136) 11 22 2
(0.235891 0.045658 0.382054 0.336396) 12 24 2
(0.3317 0.0734006 0.260749 0.33415) 13 27 1
(0.286746 0.204071 0.152556 0.356627) 14 29 1
(0.2772 0.3614 0.337217 0.0241832) 15 31 2
(0.0616148 0.469193 0.231692 0.2375) 16 30 1
(0.485783 0.257109 0.221975 0.035134) 16 32 1
(0.415172 0.167076 0.292414 0.125338) 17 7392 2
(0.196444 0.134802 0.401778 0.266976) 18 36 2
(0.140678 0.0516779 0.429661 0.377983) 19 38 2
(0.294294 0.0906414 0.262212 0.352853) 20 41 1
(0.341547 0.313328 0.0158981 0.329226) 21 43 1
(0.533076 0.233462 0.0411098 0.192352) 22 45 2
(0.0895237 0.42029 0.0349477 0.455238) 23 44 2
(0.254147 0.372926 0.292076 0.0808499) 23 46 1
(0.271609 0.364195 0.291517 0.0726784) 24 48 1
(0.202967 0.398517 0.312341 0.0861756) 25 50 1
(0.0615149 0.469243 0.268769 0.200473) 27 52 1
(0.201202 0.169855 0.229544 0.399399) 28 54 2
(0.524615 0.0369304 0.200762 0.237693) 29 56 2
(0.409114 0.283769 0.0116741 0.295443) 30 61 1
(0.36205 0.318975 0.296684 0.0222916) 31 63 2
(0.319973 0.340014 0.144222 0.195792) 32 65 2
(0.174305 0.0695434 0.343304 0.412847) 33 64 2
(0.304585 0.01492 0.332788 0.347708) 33 67 1
(0.397555 0.175377 0.125846 0.301222) 34 69 1
(0.769596 0.115202 0.0655097 0.0496925) 35 7410 1
(0.519417 0.240292 0.0497203 0.190571) 36 70 1
(0.530257 0.234872 0.0137119 0.22116) 37 72 1
(0.673505 0.163247 0.0557185 0.107529) 38 7413 1
(0.0475782 0.476211 0.220583 0.255628) 39 78 1
(0.738522 0.130739 0.0583195 0.0724196) 41 7416 1
(0.428014 0.15958 0.126413 0.285993) 42 85 1
(0.467122 0.117126 0.149313 0.266439) 43 87 1
(0.966033 0.0115411 0.00544249 0.0169836) 44 89 1
(0.578221 0.21089 0.17393 0.0369596) 45 7420 1
(0.382814 0.308593 0.154472 0.154121) 46 7421 1
(0.433716 0.145989 0.283142 0.137153) 47 7422 2
(0.00922483 0.495388 0.304299 0.191089) 49 96 1
(0.167908 0.161865 0.254182 0.416046) 50 98 2
(0.143317 0.264757 0.428341 0.163584) 50 100 2
(0.593536 0.203232 0.0431545 0.160078) 52 102 1
(0.137223 0.113665 0.431389 0.317723) 52 104 2
(0.510501 0.00771552 0.237034 0.244749) 53 107 1
(0.725446 0.052235 0.0850419 0.137277) 54 109 1
(0.750557 0.124722 0.0689113 0.0558105) 55 7430 1
(0.314303 0.0609764 0.281872 0.342848) 56 110 2
(0.119783 0.129971 0.440108 0.310138) 56 112 2
(0.0655081 0.134396 0.467246 0.33285) 57 114 2
(0.195192 0.117073 0.285331 0.402404) 59 116 2
(0.40748 0.29626 0.118398 0.177862) 60 121 2
(0.887841 0.0560793 0.0560324 4.68675e-05) 61 7436 1
(0.424417 0.219102 0.287792 0.0686891) 62 7437 2
(0.381172 0.109881 0.309414 0.199533) 63 7438 2
(0.305688 0.347156 0.123139 0.224017) 65 128 1
(0.374928 0.216861 0.312536 0.0956747) 66 132 2
(0.620156 0.0509449 0.138977 0.189922) 67 135 1
(0.192535 0.403732 0.308908 0.0948248) 75 150 2
(0.29775 0.351125 0.341226 0.00989895) 76 152 2
(0.311839 0.344081 0.20826 0.13582) 77 154 2
(0.537163 0.0850005 0.146418 0.231418) 78 153 2
(0.338768 0.330616 0.00117485 0.329441) 79 9 2
(0.261886 0.0685571 0.369057 0.3005) 80 11 1
(0.116952 0.441524 0.378935 0.0625893) 81 161 1
(0.609259 0.19537 0.0120362 0.183334) 82 163 1
(0.757479 0.0143158 0.106945 0.12126) 83 163 2
(0.483901 0.187336 0.070713 0.258049) 84 168 1
(0.443456 0.153625 0.124647 0.278272) 85 170 1
(0.379275 0.310362 0.295045 0.0153178) 86 172 2
(0.341171 0.329415 0.275877 0.0535376) 87 174 2
(0.201916 0.0516942 0.399042 0.347348) 88 175 2
(0.638124 0.180938 0.105979 0.074959) 90 180 2
(0.388514 0.262012 0.0437312 0.305743) 91 179 2
(0.0696614 0.316067 0.465169 0.149102) 166 182 1
(0.167009 0.416495 0.104471 0.312025) 92 184 2
(0.101685 0.0603648 0.449157 0.388793) 92 183 2
(0.208933 0.0867937 0.30874 0.395533) 93 186 1
(0.227333 0.109913 0.276421 0.386333) 94 188 1
(0.467383 0.266308 0.149783 0.116526) 96 191 1
(0.41974 0.0599315 0.29013 0.230198) 97 45 1
(0.256976 0.162468 0.371512 0.209044) 98 47 1
(0.346 0.327 0.293956 0.0330433) 99 197 1
(0.315662 0.342169 0.332042 0.0101275) 100 199 1
(0.920749 0.0396255 0.0267835 0.012842) 101 53 2
(0.0819987 0.165179 0.459001 0.293821) 101 201 2
(0.324661 0.11424 0.223429 0.337669) 102 204 1
(0.314796 0.342602 0.265905 0.0766968) 103 206 2
(0.275198 0.362401 0.143503 0.218898) 104 208 2
(0.284941 0.357529 0.14033 0.2172) 105 210 2
(0.268554 0.365723 0.186413 0.179311) 106 212 2
(0.382198 0.308901 0.216794 0.0921073) 107 214 2
(0.713522 0.143239 0.0375738 0.105665) 109 215 1
(0.468964 0.265518 0.21568 0.049838) 110 71 2
(0.273624 0.363188 0.262761 0.100427) 111 73 2
(0.276152 0.361924 0.126 0.235924) 112 75 2
(0.241075 0.280434 0.379463 0.0990286) 113 77 1
(0.2153 0.189006 0.39235 0.203344) 114 79 1
(0.566073 0.216964 0.0429974 0.173966) 115 230 2
(0.184058 0.100542 0.307429 0.407971) 116 229 2
(0.431453 0.284274 0.0958691 0.188404) 117 234 2
(0.0802904 0.459855 0.272649 0.187206) 119 235 1
(0.0698418 0.465079 0.352402 0.112677) 119 237 1
(0.311645 0.344177 0.32829 0.0158875) 120 239 1
(0.217718 0.0808701 0.310271 0.391141) 120 240 1
(0.098706 0.450647 0.206954 0.243693) 121 242 2
(0.241755 0.0239793 0.355143 0.379122) 121 242 1
(0.411552 0.0134385 0.294224 0.280785) 122 243 2
(0.307526 0.206116 0.140122 0.346237) 123 246 1
(0.305221 0.347389 0.304926 0.0424636) 124 248 2
(0.245767 0.377117 0.218786 0.158331) 125 250 2
(0.0923545 0.309304 0.144518 0.453823) 127 251 2
(0.778429 0.110786 0.0602231 0.0505625) 128 107 2
(0.653824 0.173088 0.137585 0.0355026) 129 109 2
(0.396693 0.225926 0.301653 0.0757274) 130 111 1
(0.12559 0.437205 0.273646 0.163559) 131 261 1
(0.440595 0.279702 0.0119315 0.267771) 133 263 1
(0.355445 0.322277 0.133325 0.188952) 134 119 2
(0.306778 0.265503 0.346611 0.0811079) 135 121 1
(0.192773 0.403613 0.173251 0.230363) 136 123 2
(0.355501 0.153093 0.32225 0.169156) 136 123 1
(0.180165 0.225877 0.409918 0.184041) 136 271 2
(0.502873 0.136706 0.111857 0.248564) 137 274 1
(0.183805 0.408097 0.345817 0.0622809) 150 299 2
(0.202512 0.398744 0.291678 0.107066) 151 301 2
(0.376118 0.311941 0.135952 0.175989) 152 303 2
(0.504967 0.247517 0.194509 0.0530076) 153 156 2
(0.311081 0.344459 0.292842 0.0516178) 154 158 2
(0.177661 0.41117 0.0512221 0.359948) 155 306 1
(0.0508078 0.474596 0.349097 0.125499) 155 308 1
(0.296358 0.0873004 0.264521 0.351821) 156 311 1
(0.296432 0.245096 0.351784 0.106688) 157 312 2
(0.561763 0.101607 0.219119 0.117511) 158 314 2
(0.822743 0.0832034 0.0886284 0.00542499) 159 316 2
(0.422466 0.0845074 0.288767 0.20426) 160 318 2
(0.0669631 0.277712 0.188806 0.466518) 162 320 2
(0.0493912 0.257178 0.475304 0.218126) 162 322 2
(0.288639 0.0154664 0.35568 0.340214) 163 324 2
(0.228704 0.0578057 0.327843 0.385648) 164 327 1
(0.156106 0.0188219 0.403125 0.421947) 165 329 1
(0.129935 0.0302755 0.435033 0.404757) 166 330 2
(0.0959023 0.120689 0.331359 0.452049) 167 333 1
(0.14448 0.0689471 0.358813 0.42776) 168 335 1
(0.573248 0.213376 0.0514454 0.161931) 170 336 1
(0.38876 0.30562 0.257987 0.0476331) 171 192 2
(0.272424 0.363788 0.325048 0.03874) 172 194 2
(0.499917 0.071692 0.250042 0.17835) 172 342 2
(0.299968 0.336914 0.0131014 0.350016) 173 345 1
(0.243201 0.344291 0.0341087 0.378399) 174 347 1
(0.26093 0.178269 0.369535 0.191266) 175 348 2
(0.130948 0.209641 0.434526 0.224885) 176 350 2
(0.167441 0.214505 0.201775 0.41628) 178 352 2
(0.0152453 0.250597 0.24178 0.492377) 179 354 2
(0.156103 0.056318 0.36563 0.421948) 180 356 2
(0.296179 0.35191 0.0929185 0.258992) 181 361 2
(0.785932 0.107034 0.0816968 0.0253373) 182 214 2
(0.287336 0.356332 0.0967232 0.259609) 183 216 2
(0.317237 0.341381 0.0150727 0.326309) 184 218 2
(0.264351 0.353905 0.367825 0.0139194) 185 220 1
(0.284918 0.277387 0.357541 0.080154) 186 222 1
(0.227875 0.225043 0.386062 0.16102) 187 224 1
(0.42007 0.221366 0.289965 0.0685992) 188 226 1
(0.207948 0.396026 0.0953728 0.300653) 189 377 2
(0.104105 0.116116 0.331832 0.447948) 190 376 2
(0.343849 0.00226482 0.328075 0.32581) 190 378 2
(0.364428 0.294641 0.0231445 0.317786) 191 381 1
(0.325045 0.337477 0.112102 0.225375) 192 383 2
(0.144831 0.0795168 0.348068 0.427585) 193 382 2
(0.0750534 0.0911632 0.462473 0.37131) 193 384 2
(0.120793 0.0526654 0.439603 0.386938) 194 386 2
(0.103844 0.0516415 0.396436 0.448078) 196 388 2
(0.677404 0.161298 0.114666 0.0466319) 197 393 2
(0.579417 0.000378778 0.209913 0.210291) 198 392 2
(0.526948 0.055485 0.181041 0.236526) 199 394 2
(0.734233 0.0223522 0.110531 0.132884) 200 399 1
(0.176651 0.255724 0.411674 0.15595) 201 400 2
(0.131193 0.0797051 0.434403 0.354698) 202 402 2
(0.145282 0.273134 0.427359 0.154225) 203 404 2
(0.293747 0.353126 0.292019 0.0611072) 204 406 1
(0.346821 0.0926302 0.32659 0.233959) 205 260 1
(0.368682 0.271364 0.315659 0.0442954) 206 262 1
(0.454411 0.272794 0.209474 0.0633203) 207 264 2
(0.102695 0.087864 0.360788 0.448652) 207 413 1
(0.280616 0.359692 0.316406 0.0432859) 208 415 2
(0.286902 0.356549 0.337111 0.0194378) 209 268 2
(0.200425 0.399788 0.0215625 0.378225) 210 416 1
(0.485474 0.257263 0.209479 0.0477839) 211 272 2
(0.205021 0.33886 0.05863 0.39749) 225 448 1
(0.198971 0.238387 0.162127 0.400514) 226 450 1
(0.072111 0.463944 0.3478 0.116145) 228 451 1
(0.305338 0.347331 0.227753 0.119578) 228 453 1
(0.327559 0.157071 0.33622 0.179149) 229 307 1
(0.334166 0.257668 0.332917 0.0752491) 230 309 1
(0.16313 0.418435 0.0297344 0.388701) 231 460 2
(0.339222 0.0053069 0.325082 0.330389) 231 460 1
(0.6452 0.1774 0.0350269 0.142373) 232 461 1
(0.0705705 0.464715 0.321541 0.143174) 233 463 1
(0.260714 0.00263512 0.369643 0.367008) 234 317 1
(0.398734 0.300633 0.106496 0.194137) 236 467 1
(0.737442 0.131279 0.0819343 0.0493448) 237 323 2
(0.104864 0.0657185 0.447568 0.381849) 237 471 2
(0.32465 0.20912 0.128555 0.337675) 238 474 1
(0.301838 0.283221 0.0658599 0.349081) 239 476 1
(0.179853 0.106398 0.303676 0.410073) 240 478 1
(0.0876259 0.167641 0.288546 0.456187) 241 480 1
(0.15761 0.0578869 0.363308 0.421195) 242 482 1
(0.0688058 0.135985 0.329612 0.465597) 244 483 2
(0.199762 0.400119 0.136116 0.264003) 245 485 1
(0.121439 0.43928 0.0985889 0.340692) 246 487 1
(0.152529 0.423736 0.202704 0.221032) 247 489 1
(0.243035 0.115852 0.26263 0.378482) 248 491 2
(0.414333 0.0370559 0.255778 0.292833) 249 493 2
(0.67261 0.163695 0.117771 0.0459234) 250 497 1
(0.244398 0.377801 0.0839089 0.293892) 251 499 1
(0.202848 0.398576 0.0889046 0.309672) 252 501 1
(0.0637605 0.46812 0.0885563 0.379563) 253 503 1
(0.163942 0.308419 0.10961 0.418029) 255 505 2
(0.57642 0.0430236 0.168767 0.21179) 256 507 2
(0.440837 0.279581 0.130378 0.149203) 257 363 2
(0.33651 0.331745 0.0630367 0.268708) 258 365 2
(0.321319 0.339341 0.100709 0.238632) 259 367 2
(0.312442 0.343779 0.146648 0.197131) 260 369 2
(0.339555 0.330223 0.243211 0.0870115) 261 371 2
(0.0217002 0.48915 0.24684 0.24231) 261 519 1
(0.267797 0.185353 0.180748 0.366102) 262 522 1
(0.236984 0.381508 0.304137 0.077371) 263 524 2
(0.258609 0.370696 0.104498 0.266197) 264 526 2
(0.269916 0.0117907 0.353252 0.365042) 265 525 2
(0.335548 0.332226 0.0202032 0.312023) 266 530 2
(0.088723 0.13614 0.319499 0.455638) 267 529 2
(0.0521024 0.131735 0.342214 0.473949) 268 531 2
(0.157309 0.421346 0.212448 0.208898) 269 536 2
(0.275983 0.202632 0.159377 0.362009) 270 535 2
(0.210466 0.319321 0.0754457 0.394767) 271 537 2
(0.575225 0.190203 0.0221844 0.212387) 272 542 1
(0.577223 0.211389 0.181887 0.0295017) 273 541 1
(0.390176 0.304912 0.0116788 0.293233) 274 543 1
(0.265409 0.367295 0.0365822 0.330713) 275 399 2
(0.367276 0.313064 0.316362 0.00329823) 276 401 1
(0.463293 0.239251 0.0291021 0.268353) 277 552 1
(0.319053 0.185478 0.154995 0.340474) 278 554 1
(0.43668 0.00701631 0.28166 0.274643) 279 555 2
(0.259676 0.159255 0.210907 0.370162) 280 558 1
(0.118513 0.312935 0.127808 0.440743) 281 560 1
(0.0578488 0.454151 0.0169251 0.471076) 282 562 1
(0.149701 0.425149 0.104579 0.32057) 283 564 2
(0.287508 0.356246 0.179417 0.176829) 283 563 1
(0.366434 0.221302 0.316783 0.0954806) 284 417 1
(0.329949 0.335025 0.0826277 0.252398) 285 419 2
(0.272174 0.363913 0.141356 0.222557) 286 421 2
(0.257218 0.246705 0.124686 0.371391) 300 597 1
(0.199244 0.150711 0.249667 0.400378) 301 599 1
(0.172144 0.0470525 0.413928 0.366875) 302 600 2
(0.428303 0.285849 0.141833 0.144016) 304 602 1
(0.0161099 0.491945 0.363932 0.128013) 305 604 1
(0.107239 0.293921 0.152459 0.44638) 305 607 1
(0.190755 0.404622 0.400101 0.00452112) 306 609 2
(0.561716 0.219142 0.215697 0.00344536) 307 462 2
(0.260416 0.369792 0.0022246 0.367567) 308 610 1
(0.0549713 0.472514 0.0913216 0.381193) 309 612 1
(0.0577964 0.471102 0.395775 0.0753265) 309 614 1
(0.248734 0.1479 0.375633 0.227733) 310 616 2
(0.377912 0.121047 0.189997 0.311044) 311 619 1
(0.379867 0.0876391 0.222428 0.310067) 312 621 1
(0.486904 0.256548 0.0589582 0.19759) 314 625 2
(0.326413 0.336793 0.255756 0.0810369) 315 627 2
(0.332892 0.106232 0.227322 0.333554) 316 629 1
(0.154689 0.162895 0.422655 0.259761) 317 630 2
(0.722667 0.138666 0.0615757 0.0770908) 319 632 1
(0.434483 0.238973 0.282758 0.0437858) 320 636 2
(0.371181 0.263382 0.31441 0.0510279) 321 638 2
(0.758568 0.0616413 0.120716 0.0590745) 322 492 1
(0.565206 0.217397 0.161129 0.0562675) 323 640 1
(0.612891 0.193555 0.0177196 0.175835) 324 496 2
(0.267393 0.33311 0.366303 0.0331929) 325 498 1
(0.348194 0.0285568 0.325903 0.297346) 326 500 1
(0.242705 0.378648 0.353403 0.0252443) 327 650 1
(0.0506167 0.474692 0.360848 0.113844) 328 652 1
(0.467716 0.266142 0.0393747 0.226767) 330 654 1
(0.289902 0.355049 0.156833 0.198216) 331 659 2
(0.299055 0.350472 0.109172 0.241301) 332 661 2
(0.291888 0.354056 0.0119341 0.342122) 333 663 2
(0.17963 0.0657928 0.344392 0.410185) 334 662 2
(0.22684 0.0159121 0.38658 0.370668) 334 664 2
(0.132524 0.275693 0.158045 0.433738) 335 667 1
(0.285271 0.357365 0.339766 0.0175983) 336 669 2
(0.31248 0.34376 0.17303 0.17073) 337 671 2
(0.299484 0.350258 0.0722444 0.278013) 338 673 2
(0.472728 0.263636 0.0361376 0.227498) 339 675 2
(0.7608 0.0730349 0.1196 0.0465649) 340 528 1
(0.199898 0.246304 0.400051 0.153747) 341 678 2
(0.327827 0.336086 0.0929218 0.243165) 343 683 2
(0.272575 0.363713 0.226426 0.137286) 344 685 2
(0.332853 0.333574 0.233484 0.10009) 345 687 2
(0.472218 0.263891 0.243802 0.0200893) 346 686 1
(0.126483 0.27065 0.166108 0.436759) 347 688 2
(0.104412 0.0360265 0.411767 0.447794) 348 690 2
(0.101359 0.0681364 0.381184 0.449321) 349 692 2
(0.251925 0.0636101 0.374038 0.310428) 349 546 1
(0.251087 0.206894 0.374456 0.167562) 350 548 1
(0.234309 0.315327 0.382846 0.0675188) 351 550 1
(0.739978 0.130011 0.0708463 0.0591647) 352 701 2
(0.437448 0.281276 0.0825512 0.198725) 353 703 2
(0.276486 0.361757 0.184142 0.177615) 354 705 2
(0.237677 0.381161 0.265848 0.115314) 355 707 2
(0.150852 0.238585 0.424574 0.185988) 431 709 1
(0.331706 0.263277 0.334147 0.0708702) 432 711 1
(0.131025 0.434488 0.261909 0.172578) 358 713 2
(0.197787 0.401106 0.158667 0.24244) 359 712 1
(0.221846 0.389077 0.253712 0.135365) 359 714 1
(0.559825 0.0584709 0.220088 0.161617) 360 568 1
(0.316816 0.296747 0.341592 0.0448449) 361 570 1
(0.310702 0.16705 0.344649 0.1776) 375 745 2
(0.211486 0.0556381 0.394257 0.338619) 376 747 2
(0.0428553 0.098034 0.478572 0.380538) 377 749 2
(0.140736 0.0407682 0.388864 0.429632) 379 751 2
(0.183663 0.408168 0.00843238 0.399736) 380 756 2
(0.0844081 0.0629649 0.394831 0.457796) 381 755 2
(0.024725 0.0811004 0.487638 0.406537) 381 757 2
(0.0111068 0.196266 0.494447 0.298181) 382 759 2
(0.26044 0.140956 0.36978 0.228824) 383 613 1
(0.298137 0.332606 0.350931 0.0183259) 384 615 1
(0.678111 0.0271423 0.133802 0.160944) 385 766 1
(0.653221 0.17339 0.0771461 0.0962435) 386 768 2
(0.19563 0.402185 0.312632 0.0895531) 387 767 1
(0.580411 0.209795 0.149069 0.0607257) 388 623 2
(0.630777 0.184611 0.0374181 0.147193) 389 625 2
(0.00950554 0.495247 0.210926 0.284321) 390 775 1
(0.568612 0.215694 0.0190617 0.196632) 392 777 1
(0.40217 0.102948 0.298915 0.195967) 393 633 1
(0.349694 0.0826686 0.325153 0.242484) 394 635 1
(0.528011 0.235995 0.224324 0.0116704) 395 785 1
(0.0877931 0.456103 0.271839 0.184265) 396 787 1
(0.0461754 0.476912 0.190837 0.286076) 398 789 1
(0.144557 0.427722 0.0627746 0.364947) 399 791 1
(0.173721 0.41314 0.0339646 0.379175) 400 793 1
(0.024214 0.487893 0.12556 0.362333) 401 795 1
(0.25061 0.00687704 0.374695 0.367818) 401 649 1
(0.166804 0.416598 0.415972 0.000626082) 402 799 1
(0.168949 0.415525 0.404966 0.0105594) 404 655 2
(0.234262 0.382869 0.322908 0.0599612) 405 657 2
(0.0229852 0.113952 0.374556 0.488507) 406 805 2
(0.122149 0.0808382 0.438926 0.358087) 406 807 2
(0.270312 0.0760858 0.288758 0.364844) 407 810 1
(0.220704 0.277883 0.111765 0.389648) 408 812 1
(0.205499 0.39725 0.397205 4.54494e-05) 409 814 2
(0.112509 0.443746 0.402815 0.0409307) 410 816 2
(0.358622 0.320689 0.198156 0.122533) 411 818 2
(0.557184 0.0655051 0.155903 0.221408) 412 817 2
(0.403381 0.258815 0.0394948 0.29831) 413 819 2
(0.657929 0.171035 0.105728 0.0653074) 414 675 2
(0.338551 0.330725 0.133752 0.196973) 415 677 2
(0.334475 0.332762 0.163329 0.169433) 416 825 1
(0.357454 0.321273 0.284008 0.0372647) 417 827 1
(0.769856 0.0643092 0.0507627 0.115072) 418 832 1
(0.470985 0.00738371 0.257124 0.264508) 419 834 1
(0.301253 0.181604 0.167769 0.349373) 420 836 1
(0.28817 0.230365 0.12555 0.355915) 421 838 1
(0.204251 0.261468 0.136406 0.397874) 422 840 1
(0.201453 0.236329 0.162945 0.399273) 423 842 1
(0.243789 0.189087 0.189019 0.378105) 424 844 1
(0.760722 0.0701829 0.119639 0.0494559) 425 845 2
(0.302343 0.348829 0.0362944 0.312534) 426 699 2
(0.402544 0.298728 0.19185 0.106878) 427 701 2
(0.736138 0.131931 0.0337272 0.0982037) 428 849 1
(0.274103 0.362948 0.20001 0.162939) 429 854 2
(0.222253 0.388873 0.251588 0.137285) 430 856 2
(0.111512 0.363826 0.080418 0.444244) 431 858 1
(0.1297 0.275836 0.43515 0.159314) 507 860 1
(0.118006 0.426222 0.014775 0.440997) 433 862 1
(0.0105911 0.494704 0.442623 0.0520811) 434 864 2
(0.0390467 0.480477 0.315339 0.165138) 435 866 2
(0.161951 0.419024 0.0366503 0.382374) 436 868 2
(0.289564 0.355218 0.299236 0.0559816) 436 867 1
(0.386424 0.306788 0.0864364 0.220351) 450 894 1
(0.045641 0.310806 0.477179 0.166374) 451 896 2
(0.0475912 0.0956847 0.476204 0.38052) 452 898 2
(0.0418254 0.0750148 0.404073 0.479087) 454 900 2
(0.165556 0.417222 0.0114915 0.40573) 455 905 2
(0.184515 0.407743 0.157838 0.249905) 456 907 2
(0.201559 0.399221 0.287558 0.111662) 457 909 2
(0.825101 0.0225602 0.0874493 0.0648891) 458 910 2
(0.405644 0.120295 0.297178 0.176883) 459 764 1
(0.76263 0.0312227 0.118685 0.0874625) 460 766 1
(0.783379 0.072529 0.0357813 0.10831) 461 914 2
(0.354582 0.164773 0.322709 0.157936) 462 770 1
(0.241222 0.34266 0.379389 0.0367296) 463 772 1
(0.247573 0.376214 0.0253892 0.350824) 464 774 2
(0.222331 0.388347 0.388834 0.000486847) 465 776 1
(0.230053 0.31782 0.384973 0.067153) 466 778 1
(0.184804 0.224975 0.407598 0.182623) 467 780 1
(0.160811 0.419594 0.411021 0.00857391) 468 930 1
(0.317892 0.341054 0.211666 0.129388) 470 932 1
(0.463225 0.268387 0.145215 0.123172) 471 788 2
(0.329579 0.33521 0.0706914 0.264519) 472 790 2
(0.331586 0.334207 0.197685 0.136522) 473 792 2
(0.238551 0.380725 0.0463891 0.334336) 474 940 1
(0.176084 0.411958 0.302804 0.109154) 474 942 1
(0.319114 0.156562 0.340443 0.183881) 475 796 1
(0.25285 0.34859 0.373575 0.0249847) 476 798 1
(0.0962158 0.436303 0.451892 0.0155891) 477 800 1
(0.223312 0.388344 0.0594213 0.328923) 478 802 2
(0.446464 0.276768 0.115043 0.161726) 479 950 1
(0.154038 0.0857774 0.337204 0.422981) 480 952 2
(0.256118 0.371941 0.00850506 0.363436) 481 957 2
(0.191708 0.404146 0.0654707 0.338675) 482 959 2
(0.18222 0.40889 0.125217 0.283673) 483 961 2
(0.136623 0.431689 0.211634 0.220054) 484 963 2
(0.116754 0.441623 0.289894 0.151729) 485 965 2
(0.201947 0.399026 0.239193 0.159834) 486 967 2
(0.56415 0.0820223 0.135902 0.217925) 487 966 2
(0.42059 0.289705 0.271924 0.0177814) 488 968 1
(0.134098 0.361074 0.0718767 0.432951) 489 970 2
(0.145766 0.427117 0.0793979 0.347719) 489 972 1
(0.233215 0.383392 0.37021 0.0131826) 490 974 1
(0.0803225 0.459839 0.374304 0.0855346) 491 976 1
(0.401298 0.299351 0.240862 0.0584897) 493 832 2
(0.581964 0.209018 0.131771 0.0772469) 494 834 2
(0.294908 0.0110865 0.34146 0.352546) 495 982 2
(0.269527 0.0274517 0.337785 0.365236) 496 984 2
(0.240611 0.0227967 0.356898 0.379695) 497 986 2
(0.230117 0.384942 0.142077 0.242865) 498 991 2
(0.181676 0.384156 0.0250059 0.409162) 499 993 1
(0.391584 0.21271 0.091498 0.304208) 500 995 1
(0.281009 0.359495 0.0100339 0.349462) 501 848 2
(0.326807 0.336597 0.135888 0.200708) 502 850 2
(0.344254 0.327873 0.0839493 0.243924) 503 998 1
(0.163436 0.0133714 0.40491 0.418282) 503 1001 1
(0.220683 0.132244 0.257414 0.389658) 504 1003 1
(0.201548 0.205965 0.193261 0.399226) 505 1005 1
(0.14888 0.122901 0.302659 0.42556) 506 1007 1
(0.03521 0.0142526 0.468142 0.482395) 508 1008 2
(0.139053 0.430473 0.320238 0.110235) 584 1013 2
(0.160307 0.419847 0.127298 0.292548) 585 1015 2
(0.540228 0.0682582 0.161628 0.229886) 511 1014 2
(0.357499 0.321251 0.308035 0.0132156) 512 870 2
(0.108293 0.445853 0.227316 0.218537) 525 1043 1
(0.216301 0.391849 0.08621 0.305639) 526 1045 1
(0.321333 0.00262021 0.336713 0.339334) 527 1048 1
(0.211395 0.0412709 0.353031 0.394302) 528 1050 1
(0.140441 0.0375972 0.42978 0.392183) 529 1051 2
(0.355075 0.0109832 0.311479 0.322462) 531 1053 2
(0.508818 0.184424 0.0611676 0.245591) 532 1058 1
(0.626838 0.166887 0.186581 0.0196935) 533 911 1
(0.392909 0.115764 0.303545 0.187781) 534 913 1
(0.664058 0.167971 0.165297 0.00267458) 535 1063 1
(0.105591 0.447204 0.371098 0.0761058) 536 1065 1
(0.227076 0.386462 0.345777 0.0406851) 537 1067 1
(0.404298 0.0793574 0.297851 0.218493) 538 921 1
(0.193083 0.329106 0.403458 0.0743524) 539 923 1
(0.196787 0.401607 0.00753213 0.394075) 540 925 2
(0.194659 0.359165 0.402671 0.0435058) 541 927 1
(0.161719 0.26398 0.419141 0.15516) 542 929 1
(0.111113 0.17383 0.444444 0.270613) 543 931 1
(0.448824 0.0823428 0.275588 0.193245) 544 933 1
(0.413048 0.293476 0.279439 0.0140365) 545 1084 2
(0.335088 0.332456 0.143567 0.188889) 546 1086 2
(0.295371 0.352315 0.0696182 0.282696) 547 1088 2
(0.616926 0.0291117 0.191537 0.162425) 548 941 1
(0.669938 0.165031 0.00282491 0.162206) 549 943 2
(0.420225 0.289888 0.00630893 0.283579) 550 1091 1
(0.201765 0.399118 0.318318 0.0807997) 550 1093 1
(0.336451 0.186846 0.331775 0.144929) 551 947 1
(0.259689 0.370156 0.0804451 0.289711) 552 949 2
(0.468805 0.265597 0.249524 0.016073) 553 951 2
(0.142472 0.428764 0.0547579 0.374006) 553 1099 1
(0.393865 0.131356 0.303068 0.171712) 554 1101 2
(0.143344 0.111941 0.316387 0.428328) 556 1103 2
(0.237121 0.381439 0.00601582 0.375423) 557 1108 2
(0.229374 0.385313 0.239123 0.14619) 558 1110 2
(0.238103 0.218021 0.162928 0.380949) 559 1112 1
(0.217318 0.0536702 0.337671 0.391341) 560 1114 1
(0.0995038 0.0543654 0.395883 0.450248) 561 1116 1
(0.0958207 0.0275123 0.424577 0.45209) 563 1117 2
(0.109355 0.167961 0.277362 0.445323) 564 1119 2
(0.1836 0.4082 0.262816 0.145384) 564 1121 1
(0.289281 0.100491 0.35536 0.254869) 565 975 1
(0.231604 0.243233 0.384198 0.140965) 566 977 1
(0.281429 0.32858 0.359286 0.0307055) 567 979 1
(0.345629 0.327186 0.0956208 0.231565) 568 981 2
(0.644011 0.0753504 0.177994 0.102644) 569 1131 2
(0.774178 0.0479688 0.0649422 0.112911) 570 1134 1
(0.661193 0.117302 0.0521017 0.169404) 571 1136 1
(0.274981 0.1865 0.36251 0.176009) 572 1137 2
(0.237703 0.294641 0.0865075 0.381149) 574 1142 1
(0.288042 0.1019 0.254079 0.355979) 575 1144 1
(0.248658 0.0103344 0.365337 0.375671) 576 1146 1
(0.245378 0.00904576 0.377311 0.368265) 577 1147 2
(0.199421 0.240606 0.159683 0.40029) 578 1150 1
(0.207103 0.396449 0.290404 0.106045) 579 1152 2
(0.195064 0.402468 0.00821706 0.394251) 580 1154 2
(0.0920018 0.0526394 0.453999 0.40136) 580 1153 2
(0.125444 0.000281567 0.437278 0.436996) 581 1155 2
(0.14275 0.428625 0.0225545 0.40607) 583 1160 2
(0.149806 0.313255 0.111842 0.425097) 584 1162 1
(0.363479 0.0452662 0.318261 0.272994) 585 1163 2
(0.0553681 0.472316 0.157011 0.315304) 587 1165 1
(0.050763 0.474619 0.160568 0.314051) 588 1167 1
(0.64762 0.17619 0.040622 0.135568) 600 15083 2
(0.201271 0.399365 0.0543381 0.345027) 601 1192 1
(0.106619 0.446691 0.204878 0.241813) 602 1194 1
(0.382652 0.0638913 0.244783 0.308674) 603 1196 2
(0.328317 0.0662435 0.269598 0.335842) 604 1198 2
(0.25056 0.120377 0.254342 0.37472) 605 1200 2
(0.161888 0.419056 0.30964 0.109416) 606 1202 1
(0.580092 0.166772 0.209954 0.0431817) 607 1058 1
(0.254823 0.372589 0.00924164 0.363347) 608 1208 1
(0.206162 0.0515883 0.345331 0.396919) 610 1210 2
(0.0364947 0.218066 0.481753 0.263686) 610 1212 2
(0.297979 0.0592384 0.351011 0.291772) 611 1066 1
(0.748296 0.044095 0.0817571 0.125852) 612 1217 1
(0.673535 0.163233 0.0836438 0.0795888) 613 1219 2
(0.318594 0.340703 0.167628 0.173075) 614 1072 2
(0.231966 0.384017 0.214269 0.169748) 615 1074 2
(0.220288 0.389856 0.16667 0.223186) 616 1076 2
(0.124237 0.437882 0.0843657 0.353516) 617 1078 2
(0.391153 0.304423 0.20596 0.0984635) 618 1080 2
(0.121737 0.276041 0.16309 0.439132) 619 1228 2
(0.354374 0.0882245 0.322813 0.234588) 619 1230 2
(0.37134 0.227594 0.0867361 0.31433) 620 1233 1
(0.329718 0.335141 0.218409 0.116733) 621 1235 2
(0.30627 0.346865 0.0588276 0.288037) 622 1237 2
(0.15818 0.0509116 0.369998 0.42091) 623 1236 2
(0.116145 0.0445983 0.397329 0.441927) 624 1238 2
(0.805915 0.0970424 0.0543098 0.0427326) 625 1094 2
(0.418827 0.290586 0.215568 0.0750186) 626 1096 2
(0.161718 0.419141 0.134678 0.284463) 627 1244 1
(0.349648 0.325176 0.233019 0.0921572) 627 1246 1
(0.472019 0.257666 0.263991 0.00632414) 628 1100 1
(0.41123 0.294385 0.266498 0.0278871) 629 1102 2
(0.383917 0.308042 0.0225945 0.285447) 630 1250 1
(0.668179 0.16591 0.164409 0.00150172) 631 1255 2
(0.0264572 0.306131 0.486771 0.180641) 632 1256 2
(0.691671 0.154165 0.0901344 0.0640301) 634 1261 2
(0.558486 0.00177368 0.218983 0.220757) 635 1263 1
(0.226171 0.0674965 0.319418 0.386914) 636 1265 1
(0.0789134 0.0192159 0.460543 0.441327) 637 1266 2
(0.156965 0.00151362 0.420004 0.421518) 639 1268 2
(0.118869 0.440565 0.257895 0.18267) 639 1270 1
(0.333055 0.0822468 0.333473 0.251226) 640 1124 1
(0.30315 0.294676 0.348425 0.0537486) 641 1126 1
(0.286834 0.356583 0.124127 0.232456) 642 1128 2
(0.294768 0.352616 0.296536 0.0560801) 643 1130 2
(0.0428424 0.478579 0.219089 0.25949) 644 1278 1
(0.315307 0.342347 0.102094 0.240253) 645 1280 1
(0.582258 0.208871 0.153077 0.0557937) 646 1136 2
(0.582627 0.107497 0.208686 0.10119) 647 1138 1
(0.764407 0.0808828 0.117797 0.0369139) 648 1288 2
(0.440487 0.0604201 0.219337 0.279757) 649 1291 1
(0.266985 0.0356429 0.366508 0.330865) 650 1292 2
(0.0850386 0.0943952 0.363085 0.457481) 652 1294 2
(0.207583 0.396209 0.0277379 0.368471) 653 1299 2
(0.122548 0.438726 0.160319 0.278407) 654 1301 2
(0.0675824 0.466209 0.316493 0.149716) 655 1303 2
(0.114654 0.442673 0.261299 0.181374) 656 1305 2
(0.0929426 0.453529 0.346031 0.107498) 657 1307 2
(0.20257 0.398715 0.267097 0.131618) 658 1309 2
(0.581632 0.129549 0.0796348 0.209184) 659 1311 1
(0.421722 0.289139 0.0601178 0.229021) 660 1312 1
(0.254731 0.372634 0.335364 0.0372706) 661 1314 1
(0.105721 0.44714 0.358604 0.0885358) 662 1316 1
(0.113356 0.106471 0.336851 0.443322) 676 1341 2
(0.134111 0.432945 0.268024 0.16492) 676 1343 1
(0.570906 0.214547 0.155084 0.0594629) 677 1345 1
(0.834893 0.0825535 0.0409821 0.0415713) 678 1345 1
(0.531041 0.234479 0.166648 0.0678315) 679 1347 1
(0.733619 0.133191 0.0987174 0.0344731) 680 1203 2
(0.625544 0.138947 0.187228 0.048281) 681 1205 1
(0.263347 0.249738 0.368326 0.118588) 682 1207 1
(0.750899 0.036103 0.124551 0.0884477) 683 1357 2
(0.38573 0.247484 0.0596513 0.307135) 684 1360 1
(0.297102 0.232112 0.119338 0.351449) 685 1362 1
(0.482376 0.258812 0.0879924 0.17082) 686 1363 1
(0.737174 0.131413 0.0307821 0.100631) 687 1365 1
(0.538119 0.230941 0.129098 0.101842) 688 1368 2
(0.305892 0.347054 0.329011 0.0180429) 689 1221 2
(0.125722 0.437139 0.0716395 0.365499) 690 1369 1
(0.0683769 0.465812 0.0971235 0.368688) 691 1371 1
(0.0495315 0.475234 0.309585 0.165649) 692 1373 1
(0.27566 0.0749974 0.287173 0.36217) 692 1376 1
(0.30214 0.229378 0.119552 0.34893) 693 1378 1
(0.519455 0.240272 0.146035 0.0942371) 694 1380 2
(0.292721 0.0848964 0.268743 0.353639) 695 1379 2
(0.161853 0.0715755 0.347498 0.419073) 695 1382 1
(0.241703 0.194244 0.184904 0.379148) 696 1384 1
(0.222108 0.294207 0.0947386 0.388946) 697 1386 1
(0.146227 0.202764 0.224122 0.426886) 698 1388 1
(0.155552 0.120132 0.302092 0.422224) 699 1390 1
(0.142804 0.0777312 0.350867 0.428598) 700 1392 1
(0.166363 0.0325319 0.384287 0.416818) 701 1394 1
(0.257952 0.0233807 0.371024 0.347643) 702 1395 2
(0.316652 0.103179 0.341674 0.238495) 703 1249 1
(0.306977 0.220156 0.346512 0.126356) 704 1251 1
(0.266056 0.287639 0.366972 0.079333) 705 1253 1
(0.518563 0.0664673 0.240719 0.174251) 706 1255 1
(0.202427 0.398786 0.104547 0.294239) 708 1405 1
(0.580014 0.209993 0.128638 0.081355) 709 1261 2