/*--------------------------------*- C++ -*----------------------------------*\
  =========                 |
  \\      /  F ield         | OpenFOAM: The Open Source CFD Toolbox
   \\    /   O peration     | Website:  https://openfoam.org
    \\  /    A nd           | Version:  12
     \\/     M anipulation  |
\*---------------------------------------------------------------------------*/
FoamFile
{
    format      ascii;
    class       vectorField;
    location    "0.25/lagrangian/cloud";
    object      U;
}
// * * * * * * * * * * * * * * * * * * * * * * * * * * * * * * * * * * * * * //


3157
(
(0.0011584 -0.0275624 0)
(0.00423033 -0.0304911 0)
(0.00406585 -0.0307924 0)
(0.000591822 -0.0331079 0)
(0.000589962 -0.0321222 0)
(0.000490999 -0.0307776 0)
(-0.00032098 -0.0332382 0)
(-0.000377368 -0.0355502 0)
(8.81741e-06 -0.031364 0)
(0.000426855 -0.0332487 0)
(0.00018561 -0.028735 0)
(-0.000796706 -0.025798 0)
(0.000740863 -0.0255501 0)
(6.49779e-05 -0.0256843 0)
(-0.00047655 -0.0269527 0)
(-0.000145684 -0.0271867 0)
(0.000914333 -0.0256957 0)
(0.00266382 -0.0281326 0)
(0.00146419 -0.0328595 0)
(3.83477e-05 -0.031014 0)
(0.000478024 -0.0308794 0)
(-4.281e-05 -0.0329033 0)
(0.000988827 -0.0328755 0)
(-0.000271941 -0.0318124 0)
(0.000478071 -0.032804 0)
(0.00107719 -0.0346205 0)
(0.000513094 -0.0355191 0)
(3.99851e-05 -0.0349168 0)
(0.00213319 -0.0363394 0)
(0.00220552 -0.0363502 0)
(-0.00063871 -0.0367021 0)
(-0.000593355 -0.0357079 0)
(-0.000602235 -0.035347 0)
(-0.00025258 -0.0340664 0)
(0.00125417 -0.0325652 0)
(-0.000473429 -0.031941 0)
(-0.00681555 -0.030855 0)
(-0.00356811 -0.033621 0)
(-0.00190232 -0.0352553 0)
(0.000456252 -0.0344623 0)
(-0.000240341 -0.0388602 0)
(0.000425065 -0.0351482 0)
(0.00199306 -0.0370786 0)
(0.00236263 -0.0365088 0)
(-0.000537697 -0.0322047 0)
(-0.00133046 -0.0320084 0)
(-0.00104745 -0.0318457 0)
(-0.000414546 -0.0318397 0)
(5.95189e-05 -0.0307964 0)
(0.0024222 -0.0345139 0)
(0.00195894 -0.0359107 0)
(-0.000224488 -0.0359577 0)
(-0.000110497 -0.0357478 0)
(-0.000857139 -0.0315495 0)
(-0.00110971 -0.0314718 0)
(0.00028839 -0.0296072 0)
(-0.000393498 -0.0350654 0)
(-0.000499218 -0.0351728 0)
(-4.99739e-05 -0.0376907 0)
(0.00182919 -0.03614 0)
(0.00203396 -0.0387779 0)
(0.000246086 -0.0319517 0)
(-0.000631595 -0.0334798 0)
(-9.80561e-05 -0.03362 0)
(0.000668876 -0.03368 0)
(0.00181936 -0.0343013 0)
(0.00420539 -0.0331794 0)
(0.000588554 -0.0413474 0)
(0.00143055 -0.0425802 0)
(0.000819476 -0.0426826 0)
(0.00104329 -0.0418653 0)
(-0.00147041 -0.0368952 0)
(-0.00032632 -0.0359584 0)
(-0.00100683 -0.0370773 0)
(0.000455302 -0.0360513 0)
(0.000278474 -0.0451684 0)
(0.00073489 -0.0448828 0)
(0.00130848 -0.0436421 0)
(-0.000632778 -0.042393 0)
(-0.000977952 -0.0425597 0)
(-0.000371429 -0.0409678 0)
(0.00378518 -0.0376675 0)
(0.000807988 -0.0385716 0)
(0.0048316 -0.0397664 0)
(-0.000156687 -0.0407641 0)
(0.000579567 -0.0395075 0)
(0.0010184 -0.0392817 0)
(-9.54312e-08 -0.0430532 0)
(-0.000492568 -0.0378833 0)
(0.00166729 -0.0352515 0)
(0.00108903 -0.0351508 0)
(0.00107534 -0.0360214 0)
(0.000266051 -0.035565 0)
(0.000443743 -0.0368771 0)
(0.00074264 -0.0427605 0)
(0.00143198 -0.0414161 0)
(0.000435037 -0.0431289 0)
(-8.67239e-05 -0.0451611 0)
(0.000569807 -0.0469486 0)
(6.0743e-05 -0.0472822 0)
(-0.000234852 -0.0464086 0)
(-0.00234166 -0.0404136 0)
(-0.00366176 -0.0391751 0)
(-0.00127127 -0.0395636 0)
(-0.000124841 -0.0410088 0)
(0.000673029 -0.0405465 0)
(0.00110888 -0.0393734 0)
(0.003606 -0.0418043 0)
(0.00102502 -0.0441516 0)
(8.40107e-05 -0.0446444 0)
(-0.000917699 -0.0393098 0)
(-0.00153024 -0.0354694 0)
(-0.00114647 -0.0318514 0)
(0.00122254 -0.0406098 0)
(-0.00104358 -0.0430821 0)
(-0.00187445 -0.0428579 0)
(0.000404366 -0.0480855 0)
(0.00112132 -0.0482686 0)
(0.000338436 -0.0492414 0)
(-8.15052e-05 -0.0496616 0)
(-0.000491724 -0.0501457 0)
(-0.00225437 -0.0414359 0)
(-0.0057082 -0.0425379 0)
(-0.00175423 -0.0409687 0)
(0.00167024 -0.0419728 0)
(-0.000540537 -0.043723 0)
(-0.000218558 -0.04288 0)
(-0.000420567 -0.0430005 0)
(-0.00112861 -0.036588 0)
(-0.000568945 -0.0384187 0)
(0.000860763 -0.0407452 0)
(0.00191826 -0.0482651 0)
(0.000223873 -0.0464799 0)
(0.000565291 -0.0465142 0)
(0.00146564 -0.0464353 0)
(-0.00130608 -0.0448984 0)
(-0.00110375 -0.0452979 0)
(0.000248557 -0.0456225 0)
(-0.00127381 -0.0453848 0)
(0.00191776 -0.045863 0)
(0.000860439 -0.0497641 0)
(-0.000500946 -0.0479381 0)
(-0.00182395 -0.0441217 0)
(-0.000631314 -0.0503273 0)
(0.000417822 -0.0498674 0)
(-0.000716645 -0.0511607 0)
(-0.00066456 -0.0500065 0)
(-0.00137218 -0.0525044 0)
(-0.00122206 -0.0532099 0)
(0.0011248 -0.0475462 0)
(0.00111096 -0.047461 0)
(0.000738981 -0.049794 0)
(-0.00132147 -0.0464628 0)
(0.00075991 -0.0467348 0)
(-0.000642892 -0.0432614 0)
(0.000855455 -0.0451393 0)
(0.00151614 -0.0490258 0)
(0.000439917 -0.0513151 0)
(8.19334e-05 -0.0504878 0)
(-0.000219526 -0.0505847 0)
(0.00173807 -0.0470585 0)
(0.00026396 -0.0470614 0)
(0.000155125 -0.0485577 0)
(0.000960329 -0.0492371 0)
(-0.00132742 -0.0462436 0)
(-0.00180927 -0.0470739 0)
(-0.00175454 -0.0470338 0)
(-7.62138e-05 -0.0470061 0)
(0.000804261 -0.0480049 0)
(0.00157439 -0.0467782 0)
(0.00122536 -0.045999 0)
(3.66151e-05 -0.0487124 0)
(0.000424521 -0.047188 0)
(0.000170055 -0.0449753 0)
(-4.48026e-05 -0.0467219 0)
(-0.000320124 -0.0500223 0)
(-0.000746868 -0.0510819 0)
(-0.00139927 -0.052692 0)
(0.000315263 -0.0533449 0)
(0.00169423 -0.0510409 0)
(0.00428906 -0.0501728 0)
(0.00237245 -0.0523504 0)
(0.000683462 -0.0534821 0)
(0.00244958 -0.051469 0)
(-2.07448e-05 -0.0527878 0)
(-0.000257323 -0.0523598 0)
(0.000210622 -0.0523733 0)
(-0.000766332 -0.0475244 0)
(-0.000810142 -0.0470659 0)
(0.00061704 -0.0481263 0)
(-0.000801568 -0.0481057 0)
(-0.000279507 -0.0472858 0)
(-0.000513215 -0.048013 0)
(0.000113344 -0.051891 0)
(0.000856793 -0.0518136 0)
(0.000215266 -0.0552295 0)
(-0.000465476 -0.0514727 0)
(0.000983926 -0.0527388 0)
(-0.000626313 -0.0471333 0)
(0.000350188 -0.0468956 0)
(0.000424685 -0.0471237 0)
(-8.85098e-05 -0.0485123 0)
(0.00282644 -0.0514427 0)
(0.00117832 -0.050589 0)
(-0.000395098 -0.0503198 0)
(-0.000634602 -0.050618 0)
(-0.00116752 -0.0481972 0)
(-0.0018003 -0.0541941 0)
(-0.00126753 -0.0530878 0)
(-0.000213306 -0.0493488 0)
(0.000937333 -0.0543105 0)
(-5.86349e-05 -0.0569318 0)
(-0.00119841 -0.0579206 0)
(-0.000757643 -0.055464 0)
(0.000639372 -0.0552533 0)
(0.00225433 -0.0540532 0)
(-0.000429124 -0.0537729 0)
(0.000764095 -0.0517306 0)
(0.0010626 -0.0532617 0)
(0.00142539 -0.0530367 0)
(0.000197557 -0.0540121 0)
(0.000197558 -0.0481561 0)
(-0.00125065 -0.0511691 0)
(-0.000929567 -0.0525522 0)
(-0.00149653 -0.05039 0)
(0.00110055 -0.0477093 0)
(-0.000269727 -0.0514413 0)
(-0.00234818 -0.0478108 0)
(-0.002118 -0.0485224 0)
(-0.00140786 -0.0478798 0)
(-0.000254471 -0.0478761 0)
(-0.00104952 -0.0480655 0)
(9.22026e-06 -0.0472309 0)
(0.00249108 -0.0465434 0)
(0.00141597 -0.0484879 0)
(0.000268731 -0.0503924 0)
(0.000635484 -0.052004 0)
(5.68194e-05 -0.0522373 0)
(-7.89424e-05 -0.0527936 0)
(0.000840005 -0.0520164 0)
(8.66528e-05 -0.0526579 0)
(0.0013853 -0.0534765 0)
(0.00208189 -0.0519377 0)
(0.00200618 -0.0503609 0)
(0.000887319 -0.0516569 0)
(0.000312027 -0.0531923 0)
(-0.000415981 -0.0528584 0)
(-0.00043391 -0.0519925 0)
(0.00134495 -0.0517429 0)
(0.00244032 -0.0533883 0)
(-0.000461818 -0.0519278 0)
(-0.000762446 -0.0511233 0)
(-0.00164459 -0.0511173 0)
(-0.00255446 -0.0499465 0)
(3.06001e-05 -0.0476766 0)
(0.00110864 -0.0477508 0)
(0.00126205 -0.0489735 0)
(0.00112902 -0.0522879 0)
(0.00061558 -0.0544609 0)
(0.000447054 -0.0575349 0)
(0.000356206 -0.0564519 0)
(-0.000401156 -0.0586552 0)
(-0.000645916 -0.0536974 0)
(0.000366251 -0.0507366 0)
(0.0030335 -0.0510327 0)
(0.000960476 -0.0532527 0)
(8.48383e-05 -0.053533 0)
(0.000605891 -0.0539359 0)
(0.000878322 -0.0541405 0)
(-0.000123549 -0.0545623 0)
(0.000786591 -0.0552161 0)
(0.00111594 -0.0580463 0)
(0.000310065 -0.0588417 0)
(0.000153806 -0.0596306 0)
(-0.00114372 -0.05917 0)
(0.000154163 -0.0572869 0)
(0.00264555 -0.0574972 0)
(0.00122642 -0.055639 0)
(0.000466574 -0.0524623 0)
(1.79583e-05 -0.0505622 0)
(-0.00303133 -0.0504531 0)
(0.000326374 -0.054663 0)
(-5.5848e-05 -0.0528318 0)
(-0.000210331 -0.0516188 0)
(-0.00144249 -0.0512529 0)
(0.000134658 -0.0500423 0)
(-0.000430013 -0.0500736 0)
(-0.000338901 -0.0501014 0)
(-0.000156108 -0.0485097 0)
(-0.000227083 -0.0480592 0)
(0.000345975 -0.049104 0)
(0.000696978 -0.0484137 0)
(0.000245215 -0.0471166 0)
(-0.000949098 -0.0479164 0)
(0.00102127 -0.0495113 0)
(0.00269201 -0.0495777 0)
(0.00316508 -0.0503202 0)
(0.00282061 -0.0524929 0)
(-5.63813e-05 -0.0507774 0)
(0.000330348 -0.0552037 0)
(0.000689871 -0.051762 0)
(-0.000343276 -0.0507797 0)
(0.000531445 -0.0501396 0)
(0.000197658 -0.0511528 0)
(0.000859724 -0.0488437 0)
(0.000297393 -0.0483716 0)
(0.000577326 -0.0478079 0)
(-0.00105188 -0.0470692 0)
(0.000567597 -0.0469508 0)
(0.000546625 -0.0484894 0)
(0.00243823 -0.049866 0)
(0.00203344 -0.0507521 0)
(0.000523671 -0.0521209 0)
(-7.07859e-06 -0.0523304 0)
(-0.00175413 -0.0502149 0)
(-0.000721499 -0.0516613 0)
(-0.000920857 -0.0500489 0)
(0.00143277 -0.0488338 0)
(0.0021969 -0.046813 0)
(0.000146345 -0.0487452 0)
(0.000905129 -0.051548 0)
(0.000996409 -0.0563914 0)
(0.000476323 -0.0577904 0)
(0.000221411 -0.0567554 0)
(-0.000357817 -0.054814 0)
(0.000544576 -0.0546211 0)
(0.00151135 -0.0523827 0)
(0.000174839 -0.0541996 0)
(0.00161883 -0.0524048 0)
(-0.00125649 -0.0520533 0)
(0.000693451 -0.0527608 0)
(0.00126752 -0.0531847 0)
(0.00115974 -0.054433 0)
(0.000543615 -0.0574283 0)
(-0.00115542 -0.057293 0)
(-0.00205495 -0.0577125 0)
(-0.000973366 -0.0582006 0)
(4.70737e-05 -0.0586147 0)
(0.000340746 -0.055341 0)
(0.000195018 -0.0523514 0)
(0.00109983 -0.0517733 0)
(0.000501458 -0.0510687 0)
(-0.000687708 -0.0497547 0)
(-0.000687221 -0.048756 0)
(0.000382005 -0.0494044 0)
(4.03061e-05 -0.0472837 0)
(-0.00086574 -0.0468885 0)
(-0.000260391 -0.0514316 0)
(-0.000726439 -0.048604 0)
(-0.000534384 -0.0477277 0)
(0.000200214 -0.0493666 0)
(-0.000310088 -0.0496341 0)
(-0.0004712 -0.0478169 0)
(-0.000848248 -0.0478437 0)
(5.02561e-05 -0.0502253 0)
(0.000713782 -0.0518603 0)
(0.00231153 -0.0514863 0)
(0.00362019 -0.050792 0)
(0.00310818 -0.0524224 0)
(0.00041916 -0.0525677 0)
(-0.000527042 -0.05299 0)
(-0.000175091 -0.0537411 0)
(-0.00117169 -0.0539755 0)
(-0.000790048 -0.0509955 0)
(0.00147563 -0.0523535 0)
(0.000274169 -0.0516921 0)
(0.0003927 -0.0514527 0)
(0.000268973 -0.0518879 0)
(-0.000129006 -0.0520345 0)
(0.000527021 -0.0500107 0)
(0.000495328 -0.0474983 0)
(0.000116949 -0.0485303 0)
(-0.0002886 -0.0502719 0)
(-7.35654e-09 -0.0510072 0)
(0.00126709 -0.0526332 0)
(0.000422874 -0.052306 0)
(-0.000385657 -0.0509382 0)
(0.00125212 -0.0524625 0)
(-0.000175825 -0.0532508 0)
(-0.000541091 -0.0532015 0)
(0.000477348 -0.0511968 0)
(0.00204953 -0.0485 0)
(0.000881859 -0.0478556 0)
(0.000145714 -0.055757 0)
(0.000316459 -0.0572281 0)
(0.000171127 -0.055442 0)
(7.21059e-05 -0.0544564 0)
(0.000241112 -0.0547013 0)
(0.000117337 -0.0540034 0)
(-2.41582e-05 -0.0528436 0)
(0.000782278 -0.0504377 0)
(7.77952e-06 -0.0530143 0)
(0.00387241 -0.0506166 0)
(0.000994994 -0.0535243 0)
(-0.00304468 -0.0525115 0)
(-0.00140982 -0.0520359 0)
(-0.00142148 -0.0528443 0)
(-0.00139666 -0.053278 0)
(-0.000437747 -0.0530057 0)
(-4.11734e-05 -0.0527332 0)
(0.000252204 -0.0533814 0)
(-0.00167354 -0.0515127 0)
(-0.00148789 -0.0486603 0)
(-0.00142094 -0.0489438 0)
(-0.00126449 -0.0477661 0)
(-8.33522e-05 -0.0494492 0)
(-0.000153212 -0.0471344 0)
(0.000549687 -0.0442853 0)
(0.00111215 -0.0475176 0)
(0.000266892 -0.0500359 0)
(-0.000769505 -0.0512181 0)
(-0.00174121 -0.0543973 0)
(-0.00138918 -0.0555921 0)
(-0.00097892 -0.0557431 0)
(-0.000691762 -0.0553748 0)
(-0.000961677 -0.0542976 0)
(-0.000572809 -0.0544294 0)
(-0.000417794 -0.0542657 0)
(0.00124193 -0.052532 0)
(0.00320211 -0.0530595 0)
(0.00243161 -0.0540571 0)
(0.00139731 -0.0538616 0)
(-0.00067759 -0.051725 0)
(-0.000115852 -0.0508057 0)
(-0.00149272 -0.0540709 0)
(-0.00200416 -0.0539387 0)
(-0.00196737 -0.0529164 0)
(0.000336489 -0.0555829 0)
(0.000489687 -0.055638 0)
(0.000313251 -0.0549059 0)
(-0.000445166 -0.0540707 0)
(-0.000217229 -0.0528619 0)
(0.000551004 -0.0520712 0)
(-0.000552422 -0.0500428 0)
(-0.000846552 -0.0511199 0)
(-0.000791465 -0.0516662 0)
(0.000727705 -0.0504076 0)
(0.000413197 -0.0491525 0)
(0.00031133 -0.0516428 0)
(-0.000848333 -0.0539659 0)
(2.24646e-05 -0.0515017 0)
(0.000780938 -0.0523257 0)
(0.000779408 -0.0510407 0)
(0.00457894 -0.0507498 0)
(-0.000368404 -0.0496232 0)
(-0.00116238 -0.0565331 0)
(-0.00123326 -0.0550832 0)
(0.00101663 -0.0534916 0)
(-1.30324e-05 -0.0548102 0)
(0.000545473 -0.0560923 0)
(0.000564925 -0.0557966 0)
(0.00217515 -0.0543806 0)
(-0.00178035 -0.0518991 0)
(-0.0015954 -0.0517333 0)
(0.000315135 -0.0497331 0)
(-0.00040787 -0.0507087 0)
(-0.000614051 -0.04814 0)
(-0.00094599 -0.0481434 0)
(0.000265816 -0.0491505 0)
(-0.000500704 -0.0503178 0)
(-0.000539736 -0.0522189 0)
(-1.86613e-05 -0.0526223 0)
(0.000170352 -0.0515257 0)
(-0.00105409 -0.0495998 0)
(0.00147834 -0.0514276 0)
(0.000285672 -0.0521893 0)
(0.000106818 -0.0523212 0)
(-0.00112111 -0.0485421 0)
(-0.000643468 -0.0497743 0)
(-0.000329421 -0.0504682 0)
(0.00115984 -0.0473226 0)
(0.00122946 -0.0483607 0)
(0.000488936 -0.0519504 0)
(-0.00160671 -0.0553176 0)
(-0.00275576 -0.0558222 0)
(-0.000971654 -0.0573951 0)
(0.000405454 -0.0600638 0)
(3.18795e-06 -0.0617794 0)
(-0.000333196 -0.0616363 0)
(0.000395442 -0.0593926 0)
(0.000256773 -0.0576911 0)
(-0.000792879 -0.0579979 0)
(0.000899122 -0.0542086 0)
(0.0018426 -0.0546216 0)
(0.00109238 -0.0517922 0)
(0.000423263 -0.0496922 0)
(0.000157962 -0.0525641 0)
(-0.000200054 -0.0536372 0)
(-0.00200648 -0.0542466 0)
(0.000476999 -0.0564155 0)
(0.000272867 -0.0561315 0)
(-3.08549e-05 -0.0575536 0)
(-0.000296885 -0.0565721 0)
(0.000385801 -0.0556717 0)
(0.00112351 -0.0542659 0)
(-0.000533374 -0.0535581 0)
(-0.00100604 -0.0502472 0)
(-0.00057933 -0.0496789 0)
(-0.00174973 -0.0500945 0)
(-1.68096e-05 -0.0494716 0)
(0.000325422 -0.0492339 0)
(0.000501405 -0.0525821 0)
(0.000308051 -0.0547711 0)
(0.00195295 -0.0515149 0)
(0.00110439 -0.0499916 0)
(0.00175556 -0.0501519 0)
(0.000704368 -0.0504051 0)
(-0.000410207 -0.0542844 0)
(-0.000325389 -0.0547997 0)
(-0.000531911 -0.053392 0)
(-7.35615e-05 -0.0518005 0)
(0.000497543 -0.0524749 0)
(0.000637813 -0.053384 0)
(-0.000559573 -0.0539098 0)
(-0.00200576 -0.0541522 0)
(-0.000535693 -0.0528746 0)
(8.36846e-05 -0.0504833 0)
(-0.00044241 -0.0481958 0)
(-0.000925484 -0.0462797 0)
(0.00343974 -0.0469557 0)
(0.00147374 -0.0486224 0)
(-0.00194069 -0.0502497 0)
(-0.00020159 -0.0514813 0)
(0.000236944 -0.0528041 0)
(-0.000374618 -0.0533897 0)
(-0.00069715 -0.0528515 0)
(0.00114716 -0.0530132 0)
(-0.000218424 -0.0511104 0)
(-0.00021229 -0.0530402 0)
(-0.00134011 -0.0546432 0)
(-0.00105506 -0.056145 0)
(-0.00132982 -0.0567894 0)
(-0.000229469 -0.0581315 0)
(-0.00183959 -0.054172 0)
(0.000453085 -0.0551476 0)
(0.000790741 -0.0555869 0)
(0.00150853 -0.0521023 0)
(-0.000552693 -0.054179 0)
(-0.00118147 -0.0567512 0)
(-0.00221848 -0.0599444 0)
(0.00266727 -0.0631038 0)
(0.00164322 -0.0631297 0)
(-0.000463606 -0.0606019 0)
(-0.000581731 -0.0586279 0)
(0.000479871 -0.0564994 0)
(-0.000415313 -0.0568025 0)
(0.000732848 -0.0553833 0)
(0.0016441 -0.052534 0)
(0.00108802 -0.0508476 0)
(0.00103797 -0.0526049 0)
(0.000558284 -0.0541611 0)
(-0.00033621 -0.0547699 0)
(-0.00150884 -0.054465 0)
(-0.000295444 -0.0579423 0)
(-0.00013949 -0.0582915 0)
(-0.00055306 -0.0572474 0)
(-0.000916272 -0.0544796 0)
(-0.000289974 -0.056938 0)
(-0.000730949 -0.0559984 0)
(-0.00102251 -0.0539257 0)
(-0.00216633 -0.0542608 0)
(-0.00156751 -0.053346 0)
(-0.000418676 -0.0519386 0)
(0.000979893 -0.0506948 0)
(0.000903308 -0.0524514 0)
(0.00233971 -0.0521956 0)
(0.00268888 -0.0531111 0)
(0.000903589 -0.0510555 0)
(0.000650397 -0.0505086 0)
(0.000710518 -0.0517227 0)
(0.000123955 -0.049957 0)
(-0.000238426 -0.0514353 0)
(-0.000915638 -0.0476365 0)
(0.000589789 -0.0514624 0)
(0.000354044 -0.0526447 0)
(-0.0017953 -0.0511828 0)
(-0.00305726 -0.0516636 0)
(0.000303619 -0.0519255 0)
(-0.00140982 -0.0519593 0)
(-0.00110682 -0.0516378 0)
(-0.00124057 -0.0493755 0)
(-0.000523951 -0.0452008 0)
(-5.63361e-07 -0.0470666 0)
(0.000606451 -0.0488853 0)
(-0.00111091 -0.05175 0)
(-0.000420664 -0.0528055 0)
(-0.000951589 -0.0523346 0)
(-0.000577144 -0.0520246 0)
(0.000620807 -0.0503252 0)
(0.000789038 -0.0512591 0)
(0.00210009 -0.0541541 0)
(0.00224474 -0.0541653 0)
(0.00133393 -0.0532248 0)
(-0.000703904 -0.0560629 0)
(-0.00158587 -0.0580972 0)
(-7.71305e-05 -0.061691 0)
(0.00022396 -0.0629106 0)
(0.000165613 -0.061677 0)
(0.000459385 -0.0628512 0)
(0.00129277 -0.0570355 0)
(-0.000686241 -0.0578679 0)
(-0.000363666 -0.0589415 0)
(0.000150891 -0.0595885 0)
(0.000901923 -0.0622235 0)
(3.69033e-05 -0.0621173 0)
(-0.00113593 -0.060091 0)
(-0.00102327 -0.0580676 0)
(-0.00147905 -0.0550071 0)
(-0.000655896 -0.0574839 0)
(0.000111751 -0.0546856 0)
(-0.000262004 -0.0543446 0)
(0.000416989 -0.0550963 0)
(-0.00120493 -0.049723 0)
(-0.00194364 -0.0507648 0)
(-0.0024902 -0.0539881 0)
(0.00114141 -0.0564351 0)
(0.00144792 -0.0567513 0)
(2.76889e-05 -0.0573904 0)
(-0.000584464 -0.0585961 0)
(-0.00150559 -0.0581174 0)
(-0.000420199 -0.053145 0)
(-0.000716696 -0.0577803 0)
(-0.00104983 -0.0547753 0)
(-0.00127044 -0.0548515 0)
(0.00106857 -0.0539013 0)
(0.00107391 -0.0515943 0)
(0.00235549 -0.0512593 0)
(0.00199618 -0.049355 0)
(0.00121369 -0.0483858 0)
(7.43321e-05 -0.0513981 0)
(-0.00161914 -0.0485169 0)
(-0.000697274 -0.0483231 0)
(0.000756967 -0.0468645 0)
(-0.000450684 -0.0505138 0)
(-0.00037095 -0.0520206 0)
(-0.000374555 -0.0529617 0)
(-0.0019 -0.0513951 0)
(-0.000592719 -0.0514404 0)
(-0.000747305 -0.0514242 0)
(0.00185267 -0.0530021 0)
(0.00157383 -0.0528052 0)
(5.25552e-05 -0.0496576 0)
(-0.00270382 -0.0529116 0)
(-0.00205274 -0.0504178 0)
(0.00072945 -0.0486509 0)
(0.00144745 -0.0476557 0)
(0.000426999 -0.0496109 0)
(-0.000102152 -0.051676 0)
(0.000356191 -0.0523076 0)
(0.000483465 -0.0488468 0)
(0.00182948 -0.0461324 0)
(8.61905e-05 -0.0475316 0)
(0.000543058 -0.0486611 0)
(0.000353597 -0.0496393 0)
(-0.000819392 -0.0502896 0)
(-0.000461248 -0.0532615 0)
(-0.000371162 -0.0544016 0)
(0.00163717 -0.0566415 0)
(0.00131458 -0.0585891 0)
(0.000788458 -0.0589523 0)
(0.000713849 -0.0590301 0)
(0.00145032 -0.0583737 0)
(0.00127164 -0.0600193 0)
(-0.000155252 -0.0586828 0)
(0.000663701 -0.0577797 0)
(0.000661856 -0.056282 0)
(0.000859748 -0.0596192 0)
(-0.000150717 -0.0592671 0)
(-0.00330491 -0.05191 0)
(-0.00438604 -0.0518712 0)
(-0.00216636 -0.0522132 0)
(-0.000111957 -0.0568865 0)
(0.00222868 -0.0541954 0)
(0.000571314 -0.0547014 0)
(6.35159e-06 -0.0533774 0)
(-9.41894e-05 -0.0523366 0)
(0.000728541 -0.0502793 0)
(-0.000460609 -0.0487264 0)
(0.00108644 -0.0509975 0)
(0.000966273 -0.052551 0)
(0.000531553 -0.0528757 0)
(6.48001e-05 -0.0532906 0)
(-0.000132991 -0.0527664 0)
(-0.00117207 -0.0545604 0)
(-0.0017525 -0.0545213 0)
(0.000317548 -0.0533683 0)
(0.00183479 -0.0528702 0)
(-0.000373015 -0.0532783 0)
(-0.000690149 -0.053323 0)
(0.00103655 -0.0512718 0)
(0.000594053 -0.0467928 0)
(0.000365979 -0.0475193 0)
(-0.00120784 -0.0469303 0)
(-0.00101905 -0.0471616 0)
(-0.0010502 -0.0455169 0)
(9.69297e-05 -0.0435949 0)
(-0.000573187 -0.0511856 0)
(-4.2239e-05 -0.053551 0)
(-0.000650429 -0.054132 0)
(-0.000483269 -0.0545768 0)
(-7.53006e-05 -0.0560419 0)
(0.000769685 -0.0541717 0)
(0.000146558 -0.0547747 0)
(-0.00109487 -0.0535767 0)
(-0.00366675 -0.0533259 0)
(-0.00403628 -0.0501383 0)
(-6.34598e-05 -0.0536732 0)
(0.000851657 -0.0511856 0)
(-0.000440263 -0.0530339 0)
(0.000523483 -0.0507814 0)
(0.0001323 -0.0505531 0)
(0.000340369 -0.0474354 0)
(0.000845148 -0.0463092 0)
(0.000647758 -0.045761 0)
(0.000206884 -0.046798 0)
(-0.00102947 -0.0476574 0)
(-0.00012445 -0.0475639 0)
(0.000285079 -0.0493921 0)
(0.00220944 -0.0518487 0)
(0.00290762 -0.056061 0)
(0.001167 -0.05526 0)
(0.00104035 -0.0549267 0)
(0.000174117 -0.0550649 0)
(-0.000243302 -0.0551842 0)
(-0.000683837 -0.0543157 0)
(0.000131116 -0.0526121 0)
(-0.00013495 -0.051521 0)
(-0.000331358 -0.0529996 0)
(-0.00195734 -0.0511541 0)
(-0.00167721 -0.0496471 0)
(-0.00218012 -0.0509307 0)
(-0.00404724 -0.0522221 0)
(-0.00505052 -0.0533731 0)
(-0.000226177 -0.0558394 0)
(0.00150528 -0.0577209 0)
(0.00163979 -0.0546273 0)
(0.000391168 -0.0535148 0)
(0.000237119 -0.0521438 0)
(0.000891789 -0.0501311 0)
(0.000497848 -0.0492012 0)
(-0.000255115 -0.0493755 0)
(0.00134182 -0.0502349 0)
(0.000729043 -0.0507332 0)
(0.000651836 -0.0519099 0)
(0.000194401 -0.0526123 0)
(-0.00221446 -0.0536973 0)
(-0.00258305 -0.0538371 0)
(-0.00139801 -0.0527706 0)
(-0.000915 -0.0554962 0)
(-0.00101644 -0.053368 0)
(7.23351e-05 -0.0523707 0)
(0.00147069 -0.0516483 0)
(-0.000203731 -0.0448321 0)
(-0.000210169 -0.0476027 0)
(-0.00206099 -0.0458011 0)
(5.71173e-06 -0.0454993 0)
(-0.000327088 -0.0460112 0)
(-4.78635e-05 -0.0451431 0)
(0.000502776 -0.0523711 0)
(0.000896698 -0.0522881 0)
(0.00127792 -0.0525389 0)
(0.00045883 -0.0509352 0)
(5.06957e-05 -0.0544407 0)
(0.000488272 -0.0546128 0)
(0.00112178 -0.0538426 0)
(0.000326145 -0.0557512 0)
(-0.00118141 -0.0548032 0)
(-0.00252962 -0.0534627 0)
(-0.00205692 -0.0521863 0)
(-0.00425267 -0.0532329 0)
(-0.00148732 -0.0554536 0)
(0.000546294 -0.050776 0)
(0.000538999 -0.0531374 0)
(-0.000158382 -0.0538651 0)
(-0.000793459 -0.0536132 0)
(-0.000567081 -0.0528384 0)
(-0.000700843 -0.0526686 0)
(-0.000252928 -0.0531567 0)
(-1.54735e-05 -0.0519773 0)
(0.0042697 -0.0514697 0)
(0.00208519 -0.0528457 0)
(0.00172939 -0.053171 0)
(0.000112423 -0.0556398 0)
(0.00206991 -0.0529689 0)
(0.000617918 -0.0511767 0)
(-0.000389646 -0.052657 0)
(-0.000111267 -0.0521721 0)
(-0.000284211 -0.0491028 0)
(0.00100425 -0.049782 0)
(0.000904788 -0.0481161 0)
(0.0011444 -0.0478371 0)
(-0.000988535 -0.0436963 0)
(-0.000110787 -0.0470868 0)
(-0.002849 -0.0482893 0)
(-0.00235353 -0.0494658 0)
(-0.000783712 -0.0537764 0)
(0.000233708 -0.0566578 0)
(-0.000200441 -0.0562267 0)
(-0.000176805 -0.0517879 0)
(-0.000210318 -0.0505902 0)
(-0.000639999 -0.0506933 0)
(-0.000226276 -0.0508505 0)
(0.000792228 -0.0540414 0)
(-0.000580454 -0.0505681 0)
(-3.52227e-05 -0.0511692 0)
(0.00075673 -0.0521311 0)
(0.00108428 -0.0527672 0)
(-0.000188096 -0.0535669 0)
(-0.00112458 -0.0533562 0)
(-0.00172894 -0.052872 0)
(-0.00206037 -0.0519043 0)
(-0.00125049 -0.0531454 0)
(-0.000351516 -0.0536188 0)
(-0.000556367 -0.0505966 0)
(1.06893e-05 -0.0489323 0)
(0.00063308 -0.0476399 0)
(0.000254016 -0.0481677 0)
(-0.00198548 -0.0500794 0)
(-0.0017744 -0.0486946 0)
(-0.00103645 -0.0489071 0)
(6.58094e-06 -0.0491476 0)
(0.000580447 -0.0529007 0)
(0.000451758 -0.0545652 0)
(0.000894444 -0.0547145 0)
(0.00091837 -0.0540852 0)
(0.00128916 -0.0527461 0)
(0.000338464 -0.0512473 0)
(0.000790051 -0.0497074 0)
(0.00118275 -0.0514352 0)
(0.0002321 -0.0546115 0)
(-0.0011411 -0.0553468 0)
(-0.000848063 -0.0557502 0)
(-0.000311815 -0.0563551 0)
(-0.00120855 -0.0566831 0)
(-0.00328711 -0.0564173 0)
(0.000155073 -0.0556156 0)
(0.000327689 -0.0554926 0)
(0.000603365 -0.0558363 0)
(-0.000371764 -0.0551089 0)
(-0.000814832 -0.0525102 0)
(-0.000342291 -0.0564487 0)
(0.00329998 -0.0523434 0)
(0.00550981 -0.0503286 0)
(0.00555725 -0.0478128 0)
(0.00228949 -0.0493612 0)
(0.00169453 -0.0529253 0)
(0.000190586 -0.0465795 0)
(-0.000752651 -0.0472161 0)
(-0.00107105 -0.0500206 0)
(-0.00132263 -0.0456693 0)
(-0.00122874 -0.0426312 0)
(-0.00122899 -0.0435611 0)
(-1.90929e-05 -0.0439563 0)
(0.00107974 -0.0437953 0)
(-0.00159423 -0.0428886 0)
(-0.00200787 -0.0457118 0)
(-0.000738928 -0.048996 0)
(-0.000930678 -0.0522852 0)
(0.00074414 -0.0546593 0)
(0.000579081 -0.0559021 0)
(0.00189833 -0.0486822 0)
(-0.000122685 -0.0491164 0)
(-0.00156206 -0.0500955 0)
(-0.000934924 -0.0510189 0)
(-0.000987167 -0.0516519 0)
(-0.00293374 -0.0522907 0)
(-0.00229875 -0.0538225 0)
(0.000218009 -0.0546576 0)
(-0.000763427 -0.0531213 0)
(0.000901957 -0.0506877 0)
(-0.000454344 -0.0472523 0)
(-0.000107783 -0.0474109 0)
(-0.000914847 -0.0502987 0)
(-0.000913351 -0.0515233 0)
(6.82806e-05 -0.0535017 0)
(5.14623e-05 -0.0534653 0)
(0.00040332 -0.0530017 0)
(-0.000185476 -0.0482863 0)
(-0.000856289 -0.0485325 0)
(-0.00189255 -0.0482987 0)
(0.0014541 -0.0529067 0)
(-0.000398465 -0.0509549 0)
(-0.000500388 -0.0540653 0)
(-0.00107474 -0.0551632 0)
(0.000233052 -0.052664 0)
(0.00106113 -0.0563651 0)
(0.000334804 -0.0558985 0)
(0.000215247 -0.0547097 0)
(0.000750739 -0.0529964 0)
(0.000281516 -0.0526271 0)
(-0.000425921 -0.0528 0)
(-8.82883e-06 -0.0535722 0)
(-0.00120161 -0.0537178 0)
(-0.000841202 -0.0509588 0)
(-0.000289668 -0.0519262 0)
(-0.000970266 -0.0530343 0)
(-0.00232119 -0.0547948 0)
(0.000490238 -0.0548561 0)
(0.000917434 -0.0535603 0)
(0.000499396 -0.0522135 0)
(-0.000647772 -0.0533929 0)
(0.00198131 -0.0524757 0)
(0.00158206 -0.0515649 0)
(0.00454573 -0.0530982 0)
(0.0036927 -0.0541281 0)
(0.00301578 -0.0504681 0)
(0.00319509 -0.0464331 0)
(0.00258398 -0.0475466 0)
(-0.00168929 -0.0464015 0)
(-0.000832249 -0.0468123 0)
(-0.00167686 -0.0466062 0)
(-0.0010017 -0.048177 0)
(-0.00177325 -0.0495691 0)
(-0.00239067 -0.0514698 0)
(0.000691777 -0.0487491 0)
(0.0027032 -0.0471028 0)
(0.000506357 -0.0457743 0)
(-0.000440821 -0.0463102 0)
(0.000789626 -0.0504225 0)
(0.0011075 -0.0530636 0)
(0.000880754 -0.0504607 0)
(-0.000324015 -0.0479101 0)
(0.000492414 -0.045762 0)
(-0.00173849 -0.0471469 0)
(-0.00106523 -0.0491346 0)
(-0.0011798 -0.0507653 0)
(-0.00157035 -0.0525141 0)
(0.000627112 -0.0534811 0)
(0.000702208 -0.0543734 0)
(0.000901695 -0.0523236 0)
(0.000352383 -0.0506345 0)
(-0.00118753 -0.0489235 0)
(-0.00302454 -0.04548 0)
(-0.00174446 -0.0467042 0)
(0.000174365 -0.0483032 0)
(1.27088e-05 -0.0503418 0)
(3.73788e-05 -0.0522774 0)
(-0.000183771 -0.0539363 0)
(0.000900643 -0.052649 0)
(0.000101187 -0.0506901 0)
(-0.000547543 -0.0512471 0)
(-0.00332653 -0.0524799 0)
(-0.000475902 -0.0513208 0)
(-0.00103215 -0.0527888 0)
(-0.000747515 -0.0578072 0)
(-0.000549745 -0.057677 0)
(0.00353315 -0.0542969 0)
(0.00329978 -0.0536481 0)
(0.00130694 -0.0575345 0)
(0.0003602 -0.0545668 0)
(7.94463e-05 -0.0554053 0)
(0.000111028 -0.054158 0)
(0.000309892 -0.053096 0)
(-0.000558187 -0.0515406 0)
(-0.00266047 -0.0507709 0)
(-0.00390108 -0.0499108 0)
(-0.00146828 -0.0520741 0)
(-0.000964429 -0.0539698 0)
(-0.00215112 -0.0538423 0)
(-0.000511665 -0.0544483 0)
(0.000207927 -0.0525972 0)
(0.000430409 -0.0520761 0)
(-0.000172397 -0.0528674 0)
(0.00074273 -0.0532693 0)
(0.00156349 -0.0519991 0)
(0.0032843 -0.0543547 0)
(-0.000113758 -0.0506268 0)
(-1.08326e-05 -0.0477548 0)
(0.000396384 -0.0466759 0)
(0.000805149 -0.0458779 0)
(0.000813604 -0.0423032 0)
(0.00117942 -0.045882 0)
(0.000423234 -0.0495314 0)
(-0.000112887 -0.0511384 0)
(-0.00126905 -0.0530333 0)
(-0.00153308 -0.0525358 0)
(7.88819e-05 -0.0480176 0)
(-0.00220951 -0.0466612 0)
(0.000809634 -0.0484817 0)
(0.000707755 -0.0495013 0)
(-0.000192433 -0.0437744 0)
(0.000126676 -0.0417884 0)
(0.00076891 -0.0411176 0)
(0.000761176 -0.0412319 0)
(3.61003e-05 -0.043619 0)
(-0.00142248 -0.0478592 0)
(-0.000428611 -0.0506451 0)
(-0.000894779 -0.0514886 0)
(-0.000655823 -0.0530668 0)
(0.000986206 -0.0535774 0)
(0.00061077 -0.0507951 0)
(-0.000711278 -0.0505387 0)
(-0.000187683 -0.0483405 0)
(0.00137798 -0.0483998 0)
(-0.00210116 -0.0455705 0)
(-0.00209035 -0.0452777 0)
(-0.000353715 -0.0496281 0)
(0.000973067 -0.0502429 0)
(0.00194413 -0.0523679 0)
(0.00118998 -0.0502114 0)
(0.00134669 -0.0514616 0)
(-0.000172116 -0.0526388 0)
(-0.00242043 -0.0550461 0)
(-0.00313115 -0.0556524 0)
(0.000860983 -0.0562347 0)
(-0.000338782 -0.0572611 0)
(-0.000856865 -0.0583666 0)
(-0.00152546 -0.0596897 0)
(0.00472339 -0.0532727 0)
(0.00255714 -0.0535395 0)
(0.000206467 -0.0560602 0)
(-0.00114446 -0.0555374 0)
(-0.00121013 -0.0527464 0)
(-0.00029775 -0.0510136 0)
(0.000118439 -0.0514299 0)
(0.000256173 -0.0507799 0)
(-0.000570543 -0.05069 0)
(-0.000476939 -0.0515536 0)
(-0.000660943 -0.0513258 0)
(-0.000232856 -0.0526716 0)
(-0.00101023 -0.0544769 0)
(0.000390509 -0.0535149 0)
(0.000107957 -0.052423 0)
(-0.000642644 -0.0530036 0)
(0.000343209 -0.0551369 0)
(0.0011389 -0.0549062 0)
(0.00159375 -0.0556231 0)
(0.00112998 -0.0539286 0)
(0.000138314 -0.0535973 0)
(-0.000464065 -0.0498121 0)
(-0.000550947 -0.0479756 0)
(-0.000613567 -0.0464796 0)
(-0.000124132 -0.0464791 0)
(0.00203947 -0.0502296 0)
(0.00116844 -0.0522465 0)
(-0.00136351 -0.0516935 0)
(-0.00166959 -0.0538026 0)
(-0.00216485 -0.0544824 0)
(-0.000425229 -0.0513114 0)
(0.0010725 -0.049294 0)
(0.000555701 -0.0509102 0)
(-0.000371375 -0.0442721 0)
(-0.000360872 -0.0445869 0)
(-0.00124838 -0.0442299 0)
(9.55588e-05 -0.0428937 0)
(0.000840378 -0.0431772 0)
(0.00134291 -0.0446436 0)
(0.00160064 -0.049856 0)
(-0.00030703 -0.0516429 0)
(0.00157909 -0.0516471 0)
(0.000503644 -0.0497627 0)
(0.00102916 -0.0515441 0)
(0.000963744 -0.0518083 0)
(0.000156343 -0.0479762 0)
(-0.000322153 -0.0467164 0)
(-0.000324954 -0.0468234 0)
(-0.000808252 -0.047984 0)
(0.000413123 -0.0483278 0)
(-0.000880266 -0.0481128 0)
(6.87762e-05 -0.0479987 0)
(0.00238105 -0.0481512 0)
(0.000262167 -0.0506635 0)
(0.000892221 -0.0479082 0)
(-2.26515e-05 -0.0494191 0)
(-0.000537483 -0.0526133 0)
(-0.000241118 -0.0549847 0)
(-0.000556058 -0.0555094 0)
(-0.00022046 -0.0573773 0)
(-0.00153346 -0.0576618 0)
(-0.00202979 -0.056621 0)
(0.00461277 -0.0557922 0)
(0.00246268 -0.0548347 0)
(0.00130118 -0.0542031 0)
(0.000719583 -0.0545321 0)
(-0.000844534 -0.0538091 0)
(-0.00258799 -0.0529512 0)
(-0.00125798 -0.049097 0)
(-0.0008065 -0.0489782 0)
(-0.00075904 -0.0469052 0)
(-0.00201035 -0.0485361 0)
(-0.000424285 -0.0502391 0)
(-0.000661072 -0.0500635 0)
(-0.00162007 -0.0504069 0)
(0.00052208 -0.0495381 0)
(0.00248847 -0.051802 0)
(-0.00313931 -0.053199 0)
(-0.00152487 -0.0546321 0)
(-0.00109731 -0.0558191 0)
(-0.000570156 -0.0557802 0)
(0.0012623 -0.0575084 0)
(0.00137886 -0.0590498 0)
(0.000390594 -0.0571238 0)
(6.92112e-05 -0.0557659 0)