/*--------------------------------*- C++ -*----------------------------------*\
  =========                 |
  \\      /  F ield         | OpenFOAM: The Open Source CFD Toolbox
   \\    /   O peration     | Website:  https://openfoam.org
    \\  /    A nd           | Version:  12
     \\/     M anipulation  |
\*---------------------------------------------------------------------------*/
FoamFile
{
    format      ascii;
    class       IOPosition;
    location    "0.15/lagrangian/cloud";
    object      positions;
}
// * * * * * * * * * * * * * * * * * * * * * * * * * * * * * * * * * * * * * //

4097
(
(2.36709e-07 0.5 0.5 1.27586e-09) 0 7376 2
(2.36711e-07 0.5 0.5 1.11281e-09) 0 7376 2
(0.0200523 0.398251 0.489974 0.0917233) 1 7377 2
(0.0764713 0.261766 0.461764 0.199998) 1 7377 2
(0.0768412 0.292092 0.461579 0.169487) 1 7377 2
(0.135526 0.303028 0.432237 0.129209) 1 2 2
(0.914392 0.0428042 0.0389561 0.00384804) 2 7378 1
(0.388102 0.305949 0.22947 0.0764784) 3 4 1
(0.406034 0.296983 0.122014 0.174969) 3 6 1
(0.568911 0.215544 0.177381 0.0381635) 4 8 1
(0.643975 0.0125703 0.178012 0.165442) 5 7381 2
(0.411126 0.294437 0.112755 0.181682) 6 12 1
(0.0395109 0.480245 0.153968 0.326277) 7 14 1
(0.394447 0.302776 0.183921 0.118855) 9 16 1
(0.776572 0.111714 0.0773351 0.0343787) 10 7386 1
(0.255623 0.260753 0.372188 0.111435) 11 22 2
(0.67449 0.0398351 0.162755 0.12292) 12 24 2
(0.695006 0.152497 0.0414121 0.111085) 13 24 1
(0.206407 0.396797 0.0861838 0.310613) 14 26 1
(0.328433 0.335783 0.0683724 0.267411) 15 28 1
(0.913523 0.0240455 0.019193 0.0432384) 16 33 1
(0.576747 0.0330219 0.178604 0.211626) 17 35 1
(0.506816 0.0955314 0.151061 0.246592) 18 37 1
(0.585518 0.144998 0.0622435 0.207241) 19 39 1
(0.644535 0.0485067 0.129226 0.177732) 20 38 2
(0.110174 0.444913 0.0848756 0.360037) 20 40 1
(0.168485 0.415758 0.189006 0.226752) 22 42 1
(0.27307 0.363465 0.226323 0.137142) 23 44 1
(0.876959 0.0615206 0.0562487 0.00527197) 24 49 2
(0.847711 0.0761446 0.0270678 0.0490768) 25 7401 1
(0.306381 0.346809 0.0148907 0.331919) 26 52 1
(0.185425 0.322109 0.0851779 0.407287) 28 54 2
(0.209521 0.311575 0.395239 0.083664) 28 56 2
(0.386716 0.306642 0.115905 0.190736) 29 58 1
(0.632853 0.0818739 0.183573 0.101699) 30 60 2
(0.700964 0.121057 0.028461 0.149518) 31 63 1
(0.498753 0.16354 0.0870839 0.250623) 32 62 2
(0.179709 0.410146 0.323476 0.0866695) 33 64 1
(0.643851 0.178075 0.0777277 0.100347) 34 66 1
(0.00932394 0.495338 0.0785281 0.41681) 35 70 1
(0.145831 0.427085 0.0374316 0.389653) 36 72 1
(0.366544 0.316728 0.27303 0.0436982) 37 74 1
(0.405283 0.0604345 0.297358 0.236924) 38 7414 2
(0.496948 0.0976612 0.251526 0.153865) 39 7415 2
(0.888775 0.018589 0.0556126 0.0370236) 40 7416 2
(0.733808 0.0842221 0.133096 0.0488739) 41 82 2
(0.194155 0.29704 0.105883 0.402922) 43 84 2
(0.265797 0.157158 0.209944 0.367102) 44 86 2
(0.31221 0.195802 0.343895 0.148093) 44 88 2
(0.740016 0.129992 0.105733 0.0242591) 45 90 1
(0.80905 0.0954749 0.0437967 0.0516782) 46 92 1
(0.00533458 0.242868 0.254465 0.497333) 48 94 2
(0.339501 0.0466826 0.330249 0.283567) 48 96 2
(0.616776 0.114424 0.0771877 0.191612) 49 99 1
(0.622939 0.18853 0.135531 0.0529997) 50 98 1
(0.0129904 0.405842 0.493505 0.0876627) 50 100 2
(0.0593369 0.470332 0.242562 0.22777) 51 102 1
(0.199071 0.400465 0.258028 0.142437) 52 104 1
(0.108441 0.445779 0.310197 0.135582) 53 106 1
(0.45208 0.27396 0.117301 0.156659) 55 108 1
(0.319237 0.260663 0.340381 0.0797187) 56 112 2
(0.318915 0.340542 0.0186354 0.321907) 58 117 2
(0.0267376 0.0681778 0.418453 0.486631) 59 116 2
(0.182027 0.137017 0.271969 0.408986) 59 119 1
(0.336991 0.278059 0.0534454 0.331504) 60 121 1
(0.457098 0.271451 0.138525 0.132926) 61 123 2
(0.369638 0.315181 0.289049 0.0261321) 62 122 1
(0.119029 0.440486 0.165061 0.275425) 62 124 1
(0.443152 0.0173848 0.278424 0.261039) 63 7439 2
(0.344764 0.0148554 0.327618 0.312762) 64 7440 2
(0.0384203 0.48079 0.195489 0.285301) 66 130 1
(0.191148 0.367563 0.0368633 0.404426) 67 132 2
(0.765568 0.117216 0.0519383 0.0652778) 68 134 1
(0.712355 0.0575973 0.0862254 0.143823) 69 136 2
(0.59205 0.125831 0.0781437 0.203975) 70 138 2
(2.36572e-07 0.5 0.5 2.44437e-09) 75 7451 2
(2.36577e-07 0.5 0.5 2.08699e-09) 75 7451 2
(0.926928 0.0241399 0.0123963 0.0365362) 0 7376 1
(0.0456985 0.196348 0.280802 0.477151) 0 7376 1
(0.311892 0.157359 0.186695 0.344054) 1 0 2
(0.284459 0.357771 0.0192195 0.338551) 1 3 2
(0.452542 0.125037 0.273729 0.148692) 76 3 1
(0.620877 0.189562 0.0877441 0.101817) 78 153 1
(0.910741 0.0446296 0.0102619 0.0343678) 78 155 1
(0.000827784 0.499586 0.210816 0.28877) 78 155 1
(0.169696 0.415152 0.135813 0.279339) 80 157 1
(0.0143346 0.492833 0.311029 0.181804) 80 159 1
(0.259691 0.370154 0.0334884 0.336666) 82 161 1
(0.346467 0.326767 0.181177 0.145589) 83 17 2
(0.472338 0.263831 0.0186207 0.24521) 84 165 1
(0.38029 0.164136 0.309855 0.145719) 84 167 2
(0.5402 0.0928257 0.137074 0.2299) 85 170 1
(0.19467 0.0842509 0.402665 0.318414) 86 171 2
(0.470959 0.26452 0.138227 0.126293) 88 173 1
(0.19508 0.40246 0.151478 0.250982) 89 175 1
(0.23239 0.383805 0.102111 0.281694) 89 177 1
(0.423313 0.288343 0.0437935 0.24455) 90 179 1
(0.0750614 0.386115 0.462469 0.0763539) 91 181 2
(0.309455 0.182 0.345273 0.163273) 92 183 2
(0.511659 0.0350339 0.244171 0.209137) 93 185 2
(0.724336 0.137832 0.030322 0.10751) 95 187 1
(0.378231 0.310884 0.0903314 0.220553) 96 43 2
(0.309077 0.345462 0.0442444 0.301217) 97 45 2
(0.375632 0.282324 0.312184 0.0298605) 98 47 1
(0.50698 0.0165064 0.24651 0.230004) 99 49 1
(0.547896 0.158408 0.226052 0.0676443) 100 51 1
(0.10367 0.254037 0.194128 0.448165) 101 199 2
(0.295735 0.174243 0.17789 0.352133) 101 202 1
(0.253628 0.373186 0.361111 0.012075) 102 204 2
(0.227209 0.386395 0.1508 0.235595) 103 206 2
(0.302793 0.348604 0.0211809 0.327423) 104 208 2
(0.825537 0.0872314 0.0149193 0.0723121) 105 209 1
(0.193871 0.403064 0.148913 0.254152) 107 211 1
(0.287048 0.356476 0.274049 0.0824271) 108 67 2
(0.188984 0.405508 0.187223 0.218285) 108 215 1
(0.759881 0.12006 0.0805213 0.0395382) 109 217 1
(0.208965 0.34479 0.050727 0.395517) 111 219 2
(0.274871 0.2169 0.362565 0.145665) 111 221 2
(0.651589 0.0265968 0.174206 0.147609) 112 223 2
(0.786568 0.0440351 0.0626808 0.106716) 113 226 1
(0.477985 0.261008 0.243842 0.0171656) 115 81 2
(0.455561 0.227248 0.27222 0.044972) 116 83 1
(0.630469 0.184765 0.0953564 0.0894089) 117 233 1
(0.103062 0.395304 0.448469 0.0531651) 118 235 2
(0.692546 0.153727 0.110283 0.0434446) 120 237 1
(0.321835 0.339083 0.314241 0.0248412) 121 239 1
(0.164336 0.128406 0.417832 0.289426) 121 241 2
(0.158832 0.126827 0.293756 0.420584) 122 244 1
(0.0669704 0.313929 0.152586 0.466515) 123 246 1
(0.229451 0.385274 0.35217 0.0331042) 124 248 2
(0.230438 0.384781 0.0321954 0.352586) 125 250 2
(0.235252 0.0897959 0.292578 0.382374) 125 250 1
(0.589256 0.0252433 0.205372 0.180129) 126 103 1
(0.319991 0.1716 0.340004 0.168404) 127 105 1
(0.245467 0.206791 0.377267 0.170475) 128 107 1
(0.160527 0.419737 0.406799 0.0129377) 129 257 1
(0.15664 0.42168 0.158832 0.262848) 130 259 1
(0.480181 0.0245858 0.235324 0.259909) 131 262 1
(0.439533 0.0836943 0.196539 0.280233) 132 264 1
(0.427536 0.0347776 0.251454 0.286232) 133 266 1
(0.347762 0.0709564 0.255163 0.326119) 134 268 1
(0.275963 0.167023 0.194995 0.362018) 135 270 1
(0.301463 0.271144 0.0781249 0.349269) 136 272 1
(0.403965 0.298017 0.296193 0.00182466) 137 274 2
(0.759003 0.120499 0.08131 0.0391886) 138 275 1
(0.770649 0.114675 0.0302583 0.0844171) 139 275 1
(0.579464 0.210268 0.0240324 0.186235) 140 277 1
(0.787044 0.106478 0.0314298 0.0750482) 141 279 1
(0.193761 0.364835 0.0382849 0.40312) 142 281 2
(0.710543 0.0725061 0.0722224 0.144728) 143 283 2
(2.36498e-07 0.5 0.5 2.55517e-09) 150 7452 2
(2.36504e-07 0.5 0.5 2.2379e-09) 150 7452 2
(0.150856 0.424572 0.0682943 0.356278) 75 7451 2
(2.36509e-07 0.5 0.14379 0.35621) 150 7452 2
(0.612944 0.193528 0.0330294 0.160498) 75 7451 2
(0.430788 0.284606 0.209235 0.0753712) 75 1 2
(0.463081 0.0594477 0.268459 0.209012) 75 149 2
(0.0566689 0.462963 0.00870218 0.471666) 76 152 1
(0.617732 0.115733 0.191134 0.0754011) 152 154 1
(0.593518 0.203241 0.0194445 0.183797) 153 156 2
(0.344793 0.327603 0.0100715 0.317532) 154 304 1
(0.348629 0.325685 0.290045 0.0356402) 155 160 2
(0.264294 0.367853 0.0206124 0.347241) 156 308 1
(0.256848 0.371576 0.360319 0.0112568) 157 164 2
(0.0184891 0.490755 0.18312 0.307635) 158 312 1
(0.156389 0.421806 0.0926647 0.329141) 158 314 1
(0.0621499 0.427794 0.468925 0.0411313) 159 316 2
(0.0974586 0.421859 0.0294118 0.451271) 161 318 2
(0.585048 0.122419 0.0850575 0.207476) 162 320 2
(0.770711 0.114644 0.0290428 0.0856015) 163 325 2
(0.729671 0.0973177 0.037847 0.135165) 164 327 1
(0.721467 0.139267 0.0169924 0.122274) 165 180 2
(0.641535 0.179232 0.14486 0.0343722) 166 182 2
(0.408897 0.295552 0.233532 0.0620192) 167 330 1
(0.292447 0.288092 0.0656841 0.353776) 168 332 2
(0.577196 0.211402 0.133762 0.07764) 169 188 2
(0.771744 0.10745 0.114128 0.00667827) 170 190 1
(0.508968 0.245516 0.201993 0.0435227) 171 338 1
(0.0369414 0.481529 0.204691 0.276838) 171 340 1
(0.570026 0.214987 0.209805 0.00518188) 172 342 1
(0.827297 0.0863516 0.0172044 0.0691472) 173 342 1
(0.158596 0.261857 0.158845 0.420702) 174 344 2
(0.00438781 0.168183 0.329623 0.497806) 175 346 2
(0.17444 0.41278 0.11498 0.2978) 176 351 2
(0.154378 0.422811 0.172395 0.250415) 177 353 2
(0.412668 0.293666 0.171269 0.122397) 178 355 2
(0.780383 0.109808 0.0601081 0.0497002) 179 208 2
(0.400272 0.299864 0.194887 0.104977) 180 210 2
(0.279363 0.360318 0.259052 0.101266) 181 212 2
(0.208161 0.395919 0.0712664 0.324653) 182 360 1
(0.40265 0.298675 0.100327 0.198348) 183 362 1
(0.472647 0.263676 0.165117 0.0985595) 184 218 2
(0.924178 0.034743 0.0379111 0.00316812) 185 368 2
(0.586137 0.0947237 0.206931 0.112208) 186 370 2
(0.217425 0.391287 0.355528 0.035759) 188 372 1
(0.284915 0.357543 0.19501 0.162533) 189 228 2
(0.0603404 0.46983 0.0763732 0.393457) 190 230 2
(0.0825845 0.406934 0.458708 0.0517737) 191 232 1
(0.259657 0.0494206 0.370171 0.320751) 192 234 1
(0.627752 0.00354461 0.186124 0.182579) 193 236 1
(0.830806 0.0276728 0.0569243 0.0845972) 194 384 2
(0.715942 0.142029 0.135598 0.00643069) 195 389 2
(0.245642 0.295346 0.0818335 0.377179) 196 391 1
(0.291802 0.354099 0.0538131 0.300286) 272 393 2
(0.462457 0.268772 0.169945 0.0988266) 273 395 2
(0.278502 0.360749 0.165773 0.194975) 274 543 1
(0.222954 0.388523 0.135668 0.252855) 275 545 1
(0.0446214 0.0211725 0.477689 0.456517) 200 398 2
(0.246046 0.376977 0.212297 0.16468) 201 400 1
(0.336402 0.0922828 0.331799 0.239516) 202 254 1
(0.192089 0.181338 0.403955 0.222617) 203 256 1
(0.197404 0.116686 0.401298 0.284612) 204 258 1
(0.682094 0.0470181 0.158953 0.111935) 205 408 2
(0.449991 0.145979 0.129025 0.275005) 206 411 1
(0.589431 0.0753014 0.129983 0.205285) 207 413 1
(0.810288 0.00594053 0.094856 0.0889154) 208 414 2
(0.688497 0.0050766 0.150675 0.155752) 209 417 1
(0.515484 0.0154971 0.226761 0.242258) 210 419 1
(0.356932 0.0658303 0.255704 0.321534) 211 421 1
(0.156413 0.122435 0.421794 0.299359) 212 422 2
(0.360252 0.282347 0.0375274 0.319874) 214 424 2
(0.038858 0.480571 0.371276 0.109295) 215 426 1
(0.280619 0.35969 0.0924411 0.267249) 215 428 1
(0.566973 0.189915 0.216513 0.0265986) 216 430 2
(0.503302 0.101845 0.248349 0.146504) 217 432 2
(2.36498e-07 0.5 0.5 2.77966e-09) 225 7453 2
(2.36504e-07 0.5 0.5 2.50817e-09) 225 7453 2
(0.201526 0.399237 0.19996 0.199277) 150 7452 2
(2.36509e-07 0.5 0.153335 0.346665) 225 7453 2
(0.472766 0.263617 0.219177 0.0444398) 150 150 2
(0.367441 0.31628 0.245474 0.0708055) 150 150 2
(0.907475 0.0384302 0.0462624 0.00783225) 150 150 1
(0.1585 0.177401 0.243349 0.42075) 151 298 2
(0.186031 0.0292296 0.406985 0.377755) 226 301 1
(0.0305996 0.4847 0.306741 0.177959) 227 451 1
(0.2086 0.3957 0.293231 0.102468) 228 453 1
(0.0286127 0.485694 0.176633 0.309061) 230 455 1
(0.203866 0.398067 0.26715 0.130917) 230 457 1
(0.155915 0.38495 0.422042 0.0370922) 231 459 2
(0.0630347 0.399473 0.468483 0.0690101) 232 461 2
(0.290852 0.354574 0.185989 0.168585) 233 463 1
(0.417033 0.291483 0.279127 0.0123559) 234 465 1
(0.139152 0.430424 0.328084 0.10234) 235 467 1
(0.00641556 0.496792 0.283068 0.213724) 236 469 1
(0.0877761 0.456112 0.440576 0.015536) 238 471 1
(0.446628 0.00648868 0.270197 0.276686) 239 473 2
(0.254919 0.37254 0.210945 0.161595) 240 478 2
(0.249251 0.375374 0.184682 0.190693) 241 480 2
(0.334488 0.0569293 0.275827 0.332756) 242 479 2
(0.187127 0.406436 0.194809 0.211627) 242 481 1
(0.293395 0.353303 0.141788 0.211515) 243 483 1
(0.260555 0.17618 0.193542 0.369723) 244 486 1
(0.293048 0.318719 0.0347577 0.353476) 245 488 1
(0.395323 0.302339 0.192406 0.109932) 246 490 2
(0.791158 0.104421 0.0734084 0.0310127) 247 489 1
(0.458563 0.250352 0.0203665 0.270718) 248 491 2
(0.164102 0.29721 0.120739 0.417949) 249 493 2
(0.0114215 0.326253 0.168036 0.494289) 250 495 2
(0.367974 0.316013 0.0214932 0.29452) 251 500 2
(0.265091 0.367454 0.23896 0.128494) 252 502 2
(0.289406 0.355297 0.350891 0.00440616) 253 504 2
(0.682939 0.112017 0.0465133 0.15853) 254 503 2
(0.383248 0.308376 0.0672192 0.241157) 255 505 1
(0.0648463 0.467577 0.235884 0.231692) 255 507 1
(0.290175 0.135278 0.354912 0.219634) 256 361 1
(0.242332 0.274056 0.378834 0.104779) 257 363 1
(0.135081 0.262451 0.432459 0.170008) 258 365 1
(0.0644181 0.467791 0.339247 0.128544) 259 515 1
(0.644612 0.177694 0.127539 0.0501552) 261 371 2
(0.487807 0.256097 0.0520925 0.204004) 262 373 2
(0.229333 0.355879 0.385334 0.0294549) 263 375 1
(0.115987 0.403218 0.442006 0.0387886) 264 377 1
(0.0550515 0.472474 0.0796908 0.392783) 265 379 2
(0.0832546 0.458373 0.223262 0.235111) 266 381 2
(0.26841 0.365795 0.0425954 0.323199) 267 529 1
(0.33386 0.33307 0.0381186 0.294951) 268 531 1
(0.70941 0.0887906 0.145295 0.0565042) 269 387 1
(0.683707 0.158146 0.0875698 0.0705764) 270 538 2
(0.309127 0.345437 0.0803377 0.265099) 271 540 2
(0.178855 0.410573 0.193269 0.217303) 347 542 2
(0.394663 0.302668 0.176173 0.126496) 348 544 2
(0.488815 0.229855 0.255593 0.0257374) 349 546 1
(0.0584469 0.323754 0.470777 0.147022) 350 548 1
(0.644266 0.177867 0.0718009 0.106066) 276 549 1
(0.371234 0.21096 0.314383 0.103423) 277 403 1
(0.14231 0.308665 0.428845 0.12018) 278 405 1
(0.160077 0.240524 0.419961 0.179437) 279 407 1
(0.680277 0.101518 0.0583431 0.159862) 280 558 1
(0.31872 0.290461 0.0501791 0.34064) 281 560 1
(0.275405 0.299691 0.0626066 0.362298) 282 562 1
(0.765792 0.117104 0.0786051 0.038499) 283 564 2
(0.735244 0.12693 0.132378 0.00544747) 284 417 1
(0.765731 0.117135 0.113826 0.00330904) 285 567 1
(0.66188 0.0610906 0.10797 0.16906) 286 570 1
(0.431054 0.169163 0.11531 0.284473) 287 572 1
(0.399457 0.135269 0.165002 0.300271) 288 574 1
(0.125471 0.437264 0.0749229 0.362341) 289 575 1
(0.559361 0.22032 0.14203 0.07829) 290 577 1
(0.55368 0.12867 0.22316 0.0944896) 291 431 1
(0.778155 0.0422898 0.0686327 0.110922) 292 582 1
(2.36498e-07 0.5 0.5 2.78122e-09) 300 7454 2
(2.36504e-07 0.5 0.5 2.53611e-09) 300 7454 2
(0.222393 0.388803 0.187006 0.201797) 225 7453 2
(2.36509e-07 0.5 0.161481 0.338519) 300 7454 2
(0.503723 0.248139 0.213559 0.03458) 225 299 2
(0.431579 0.28421 0.171146 0.113064) 225 299 2
(0.855279 0.0723603 0.044782 0.0275783) 225 447 1
(0.0520288 0.236716 0.237269 0.473986) 226 447 2
(0.00260249 0.103984 0.498699 0.394715) 301 450 1
(0.151813 0.424093 0.404726 0.0193669) 302 600 1
(0.185122 0.0914193 0.407439 0.31602) 303 454 1
(0.228164 0.0735234 0.385918 0.312395) 304 456 1
(0.193783 0.20095 0.403109 0.202158) 305 458 1
(0.552393 0.223804 0.201163 0.0226401) 306 608 1
(0.614623 0.192689 0.00350997 0.189179) 307 610 1
(0.900505 0.0141239 0.0497477 0.0356237) 308 612 2
(0.74068 0.12966 0.0472975 0.0823624) 309 614 1
(0.191057 0.404471 0.361093 0.0433786) 310 616 1
(0.224187 0.387907 0.370656 0.0172509) 311 618 1
(0.165235 0.417383 0.331173 0.08621) 312 620 1
(0.343179 0.261978 0.328411 0.0664326) 313 622 2
(0.0193446 0.185897 0.490328 0.30443) 314 624 2
(0.19602 0.40199 0.0828989 0.319091) 316 629 2
(0.419915 0.00480677 0.285236 0.290042) 317 628 2
(0.0813687 0.425671 0.0336447 0.459316) 318 630 2
(0.299553 0.106287 0.350223 0.243937) 318 632 2
(0.151253 0.166424 0.257949 0.424373) 319 635 1
(0.15116 0.388412 0.0360078 0.42442) 320 637 1
(0.267438 0.366281 0.199775 0.166506) 321 639 2
(0.830605 0.0671863 0.0175114 0.0846977) 322 638 2
(0.672181 0.0825855 0.081324 0.16391) 323 640 2
(0.230452 0.384774 0.349949 0.0348247) 324 642 1
(0.215205 0.392397 0.362327 0.0300701) 325 644 1
(0.554401 0.0878643 0.134935 0.222799) 326 646 2
(0.624252 0.187874 0.081298 0.106576) 327 651 2
(0.40043 0.216337 0.0834477 0.299785) 328 653 1
(0.0935069 0.0630146 0.453247 0.390232) 329 654 2
(0.115332 0.0747927 0.442334 0.367541) 330 656 2
(0.6814 0.026553 0.132747 0.1593) 331 659 1
(0.449799 0.2751 0.208219 0.0668812) 332 512 2
(0.122297 0.438852 0.0626271 0.376224) 333 660 1
(0.139222 0.0108178 0.430389 0.419571) 333 514 1
(0.0148713 0.492564 0.020512 0.472052) 335 664 1
(0.0359945 0.482003 0.0940115 0.387991) 336 666 1
(0.110366 0.444817 0.0288758 0.415941) 337 668 1
(0.151182 0.424409 0.340297 0.0841122) 338 524 2
(0.130537 0.434732 0.15228 0.282451) 339 526 2
(0.075494 0.462253 0.0452391 0.417014) 340 528 2
(0.208199 0.3959 0.102023 0.293877) 341 530 2
(0.184593 0.407704 0.0519411 0.355762) 342 532 2
(0.253329 0.373335 0.0592788 0.314057) 343 534 2
(0.822518 0.088741 0.0792239 0.00951713) 344 536 2
(0.415494 0.292253 0.124879 0.167374) 345 687 2
(0.250622 0.374689 0.0731531 0.301536) 346 689 2
(0.025434 0.487283 0.287458 0.199825) 347 691 2
(0.273674 0.363163 0.0195783 0.343585) 423 693 2
(0.0975376 0.227298 0.451231 0.223933) 424 695 1
(0.203071 0.158308 0.398465 0.240157) 350 696 2
(0.146852 0.426574 0.164804 0.26177) 351 698 1
(0.0934632 0.453268 0.314286 0.138983) 352 700 1
(0.210852 0.394574 0.291529 0.103045) 353 702 1
(0.511604 0.244198 0.199001 0.0451965) 354 704 1
(0.970621 0.00710657 0.0146894 0.00758284) 355 706 2
(0.315903 0.274222 0.0678271 0.342049) 356 709 1
(0.259123 0.27091 0.0995286 0.370438) 357 711 1
(0.47507 0.184688 0.0777774 0.262465) 358 713 1
(0.567684 0.216158 0.128876 0.0872826) 359 715 2
(0.437452 0.142361 0.138913 0.281274) 360 714 2
(0.235146 0.382427 0.379457 0.00297041) 361 716 1
(0.461331 0.141756 0.127579 0.269334) 362 718 2
(0.372737 0.313632 0.160877 0.152755) 363 723 2
(0.699661 0.15017 0.0164494 0.13372) 364 725 2
(0.85922 0.0703899 0.060798 0.00959184) 365 726 1
(0.609921 0.19504 0.167848 0.0271919) 366 580 2
(0.282443 0.358779 0.259969 0.09881) 367 728 1
(2.36499e-07 0.5 0.5 2.78019e-09) 375 7455 2
(2.36505e-07 0.5 0.5 2.52486e-09) 375 7455 2
(0.23873 0.380635 0.160783 0.219852) 300 7454 2
(2.3651e-07 0.5 0.167269 0.332731) 375 7455 2
(0.520063 0.239969 0.195359 0.0446097) 300 448 2
(0.506347 0.246826 0.18214 0.0646865) 300 448 2
(0.567724 0.137355 0.216138 0.0787824) 300 596 2
(0.463736 0.268132 0.069075 0.199057) 301 599 2
(0.22508 0.38746 0.0721987 0.315261) 377 601 2
(0.330193 0.334903 0.278156 0.0567475) 378 603 2
(0.379508 0.310246 0.0231796 0.287066) 378 751 1
(0.44321 0.233243 0.278395 0.0451515) 379 753 2
(0.482145 0.258927 0.022885 0.236042) 380 607 2
(0.280495 0.359752 0.049679 0.310073) 381 755 1
(0.274166 0.362917 0.0583342 0.304583) 382 757 1
(0.555381 0.222309 0.0358437 0.186466) 383 613 2
(0.396926 0.196408 0.301537 0.105129) 384 615 1
(0.20454 0.028533 0.39773 0.369197) 385 617 1
(0.457618 0.271191 0.212248 0.0589431) 386 767 1
(0.39882 0.104615 0.30059 0.195974) 387 621 1
(0.43378 0.128854 0.28311 0.154256) 388 623 1
(0.512852 0.225793 0.243574 0.0177815) 389 773 2
(0.104562 0.17341 0.274309 0.447719) 391 775 2
(0.172485 0.413758 0.0545689 0.359189) 392 780 2
(0.0799189 0.460041 0.05828 0.401761) 393 782 2
(0.0940456 0.0641615 0.452977 0.388816) 468 782 1
(0.178635 0.303889 0.410682 0.106794) 469 784 1
(0.162089 0.418956 0.0396899 0.379266) 470 786 2
(0.264971 0.367514 0.228426 0.139088) 396 788 2
(0.469021 0.147852 0.117637 0.265489) 397 790 1
(0.353529 0.220767 0.102468 0.323235) 398 792 1
(0.558111 0.220944 0.198922 0.0220227) 399 794 2
(0.640753 0.179623 0.0532822 0.126341) 400 793 1
(0.743889 0.128055 0.109387 0.0186684) 401 649 2
(0.785432 0.107284 0.0332134 0.0740706) 402 651 2
(0.752379 0.0848144 0.12381 0.0389959) 403 801 2
(0.0553357 0.30356 0.472332 0.168772) 404 803 2
(0.369643 0.315178 0.108883 0.206295) 406 808 2
(0.5476 0.2262 0.039798 0.186402) 407 810 2
(0.19872 0.40064 0.35362 0.0470202) 408 809 1
(0.28643 0.356785 0.332399 0.024386) 408 811 1
(0.193003 0.37745 0.403499 0.0260482) 409 665 1
(0.117804 0.441098 0.273325 0.167772) 410 667 2
(0.129245 0.435377 0.0538378 0.38154) 411 815 1
(0.0487104 0.475645 0.455061 0.0205833) 412 671 2
(0.0336526 0.483174 0.203731 0.279442) 338 673 2
(0.0126473 0.493676 0.150981 0.342696) 414 675 2
(0.0128897 0.493555 0.434473 0.0590823) 340 677 2
(0.126683 0.436658 0.0716321 0.365026) 416 679 2
(0.108946 0.445527 0.183154 0.262373) 417 681 2
(0.183532 0.408234 0.299407 0.108827) 418 683 2
(0.186036 0.406982 0.310578 0.0964039) 419 831 1
(0.0129356 0.292537 0.493532 0.200995) 419 833 2
(0.306156 0.346922 0.116989 0.229933) 421 838 2
(0.165247 0.369967 0.0474099 0.417377) 422 840 1
(0.0049601 0.265469 0.232051 0.49752) 423 842 1
(0.348491 0.00390828 0.325754 0.321846) 424 843 2
(0.136553 0.431724 0.0719458 0.359778) 425 845 1
(0.0454528 0.477274 0.258361 0.218913) 426 847 1
(0.239628 0.380186 0.158938 0.221248) 427 849 1
(0.65669 0.171655 0.105505 0.0661501) 428 851 1
(0.789561 0.105219 0.0874509 0.0177686) 429 851 1
(0.313672 0.198157 0.145006 0.343164) 430 853 2
(0.273081 0.100832 0.262627 0.363459) 431 855 2
(0.220159 0.389921 0.217569 0.172351) 432 860 2
(0.137896 0.431052 0.367595 0.0634577) 433 862 2
(0.165753 0.417124 0.303671 0.113453) 434 864 2
(0.384666 0.307667 0.03623 0.271437) 435 866 2
(0.131625 0.434187 0.292793 0.141394) 436 865 1
(0.219916 0.390042 0.254116 0.135926) 437 867 1
(0.270013 0.09148 0.273513 0.364993) 438 869 2
(0.134919 0.127221 0.305319 0.43254) 439 871 2
(0.181074 0.409463 0.0270439 0.382419) 440 876 2
(0.182731 0.0176904 0.390944 0.408634) 441 875 2
(0.130968 0.256254 0.178263 0.434516) 442 877 2
(2.36572e-07 0.5 0.5 3.10083e-09) 450 7456 2
(2.36577e-07 0.5 0.5 2.8445e-09) 450 7456 2
(0.23344 0.38328 0.0214293 0.361851) 375 7455 2
(2.36581e-07 0.5 0.137766 0.362234) 450 7456 2
(0.476461 0.26177 0.115577 0.146192) 375 597 2
(0.593057 0.203471 0.150568 0.0529034) 375 597 2
(0.214067 0.333394 0.392966 0.0595725) 375 745 2
(0.361642 0.319179 0.0903578 0.228821) 376 748 2
(0.187309 0.406346 0.0108643 0.395481) 452 896 1
(0.248851 0.375575 0.259804 0.11577) 453 898 1
(0.352015 0.307483 0.323993 0.0165093) 453 900 2
(0.277149 0.306149 0.361426 0.0552771) 454 902 2
(0.430825 0.259925 0.284588 0.0246628) 455 904 2
(0.197228 0.401386 0.373452 0.0279343) 456 906 1
(0.144753 0.427624 0.373601 0.0540227) 457 908 1
(0.0112358 0.494382 0.0718939 0.422488) 459 910 1
(0.153074 0.423463 0.0262462 0.397217) 460 912 1
(0.0858237 0.457088 0.381382 0.0757059) 460 914 1
(0.653026 0.117924 0.173487 0.0555628) 461 916 2
(0.722831 0.138585 0.115133 0.0234518) 462 770 2
(0.245813 0.377094 0.167487 0.209607) 463 772 2
(0.495041 0.186569 0.25248 0.0659112) 464 774 1
(0.774058 0.112971 0.0758631 0.0371076) 465 922 1
(0.290412 0.354794 0.237581 0.117213) 466 927 2
(0.108859 0.44557 0.0384064 0.407164) 542 929 2
(0.376046 0.311977 0.0652315 0.246746) 543 931 2
(0.300307 0.349847 0.0238195 0.326027) 544 933 2
(0.0491493 0.399109 0.0763165 0.475425) 470 935 1
(0.536396 0.0639833 0.167819 0.231802) 471 937 1
(0.502483 0.190059 0.248759 0.0586997) 472 938 2
(0.166428 0.132136 0.28465 0.416786) 474 940 2
(0.0713915 0.202654 0.26165 0.464304) 475 942 2
(0.212651 0.393675 0.120149 0.273526) 475 944 1
(0.554191 0.222904 0.164519 0.0583856) 476 946 1
(0.554952 0.17268 0.222524 0.0498441) 477 800 1
(0.515321 0.180067 0.24234 0.0622728) 478 802 1
(0.248538 0.375731 0.161714 0.214017) 479 952 1
(0.484977 0.076739 0.180772 0.257511) 480 955 1
(0.330304 0.297287 0.0375613 0.334848) 481 957 1
(0.134869 0.397909 0.0346566 0.432565) 482 959 1
(0.117202 0.324726 0.116673 0.441399) 483 961 1
(0.577534 0.157794 0.211233 0.0534394) 484 814 1
(0.346493 0.326753 0.112365 0.214389) 485 816 2
(0.167025 0.416488 0.104763 0.311725) 486 818 2
(0.224459 0.266064 0.121706 0.38777) 412 820 1
(0.324191 0.116619 0.221285 0.337905) 413 822 1
(0.0126299 0.339512 0.493685 0.154173) 489 824 1
(0.0588534 0.343626 0.470573 0.126947) 490 826 1
(0.894037 0.0529814 0.0276784 0.0253029) 491 974 1
(0.564807 0.217596 0.192049 0.0255473) 492 976 1
(0.235633 0.382183 0.0166093 0.365574) 493 978 1
(0.0202098 0.489895 0.156231 0.333664) 494 980 1
(0.114792 0.442604 0.231403 0.2112) 494 982 1
(0.291038 0.354481 0.264022 0.0904592) 496 984 1
(0.693388 0.153306 0.0951291 0.058177) 497 989 2
(0.301897 0.0995847 0.349051 0.249467) 498 990 2
(0.176329 0.0246055 0.38723 0.411836) 500 992 2
(0.0827917 0.458604 0.00057132 0.458033) 501 997 2
(0.0976193 0.0839663 0.367224 0.45119) 501 997 1
(0.260017 0.232105 0.137887 0.369992) 502 999 1
(0.278243 0.360879 0.258172 0.102707) 503 1001 2
(0.458011 0.270995 0.00632734 0.264667) 504 1003 2
(0.12089 0.369696 0.0698587 0.439555) 505 1002 2
(0.0689979 0.392416 0.0730852 0.465501) 506 1004 2
(0.291454 0.0299532 0.32432 0.354273) 507 1006 2
(0.231237 0.384382 0.328655 0.0557264) 508 1011 2
(0.199045 0.26976 0.130718 0.400477) 509 1013 1
(0.465276 0.20898 0.0583815 0.267362) 510 1015 1
(0.698321 0.150839 0.0291448 0.121695) 511 1014 1
(0.333105 0.333448 0.198367 0.135081) 512 1016 1
(0.266183 0.366909 0.070142 0.296767) 513 1021 2
(0.244695 0.0474789 0.330174 0.377653) 514 1020 2
(0.202747 0.0473348 0.351292 0.398627) 515 1022 2
(0.557264 0.0261392 0.195229 0.221368) 516 1024 2
(0.347438 0.326281 0.286618 0.039663) 517 1026 1
(2.36408e-07 0.5 0.5 3.85168e-09) 525 7457 2
(2.36416e-07 0.5 0.5 3.58372e-09) 525 7457 2
(0.237401 0.3813 0.00124699 0.380053) 450 7456 2
(2.36424e-07 0.5 0.0999984 0.400001) 525 7457 2
(0.531965 0.234017 0.156163 0.077854) 450 746 2
(0.524412 0.237794 0.174937 0.0628568) 450 746 2
(0.251388 0.374306 0.305544 0.0687621) 451 894 1
(0.325549 0.0534131 0.283812 0.337225) 451 894 2
(0.207748 0.396126 0.387629 0.00849671) 526 1045 1
(0.180015 0.409992 0.210831 0.199161) 527 1047 1
(0.552514 0.223743 0.203356 0.0203874) 528 1049 1
(0.540348 0.229826 0.118602 0.111224) 529 1051 1
(0.786848 0.00631453 0.106576 0.100261) 530 905 1
(0.0221091 0.488945 0.391897 0.0970482) 531 1055 1
(0.0382577 0.480871 0.42438 0.0564909) 532 1057 1
(0.248543 0.375729 0.332156 0.0435724) 533 1059 1
(0.377028 0.249259 0.0622268 0.311486) 534 1062 1
(0.345323 0.327339 0.176935 0.150404) 535 1064 2
(0.386983 0.00814946 0.298359 0.306508) 536 1063 2
(0.457569 0.271215 0.254722 0.0164934) 537 919 2
(0.0865747 0.456713 0.144673 0.31204) 538 1067 1
(0.381886 0.309057 0.28151 0.0275466) 538 1069 1
(0.524769 0.063777 0.237616 0.173839) 539 923 1
(0.698552 0.0265133 0.124211 0.150724) 540 1071 2
(0.335827 0.332087 0.0558904 0.276196) 541 1076 2
(0.169019 0.318475 0.0970152 0.41549) 542 1078 1
(0.11409 0.442955 0.175972 0.266983) 544 1082 2
(0.631767 0.0977733 0.0863433 0.184117) 545 1084 1
(0.686086 0.156957 0.00455505 0.152402) 546 1085 1
(0.823223 0.0414972 0.0883884 0.0468912) 547 1087 2
(0.523674 0.0897319 0.148431 0.238163) 548 1090 1
(0.287232 0.344018 0.012366 0.356384) 549 1092 1
(0.282368 0.358816 0.166531 0.192285) 550 1094 2
(0.25336 0.152063 0.221257 0.37332) 551 1093 2
(0.335952 0.332024 0.19245 0.139574) 552 1095 1
(0.480649 0.259675 0.197563 0.0621126) 553 951 2
(0.0120552 0.480915 0.0130578 0.493972) 554 1099 2
(0.196765 0.209524 0.401617 0.192093) 554 1101 2
(0.0952546 0.218022 0.452373 0.234351) 555 1103 2
(0.465393 0.267303 0.0412434 0.22606) 557 1108 2
(0.302146 0.130156 0.348927 0.218771) 558 1109 2
(0.173333 0.413333 0.233319 0.180014) 559 1111 1
(0.208388 0.395806 0.361366 0.0344398) 560 1113 1
(0.139055 0.0344098 0.430473 0.396063) 486 966 2
(0.0107088 0.155592 0.494646 0.339054) 487 968 2
(0.161141 0.0338722 0.41943 0.385557) 563 971 1
(0.0632051 0.21506 0.468397 0.253337) 564 973 1
(0.220807 0.316394 0.389597 0.0732023) 565 975 1
(0.694563 0.152718 0.100486 0.0522323) 566 977 2
(0.524743 0.090102 0.147526 0.237628) 567 1125 2
(0.494281 0.252859 0.00719928 0.24566) 568 1130 2
(0.206656 0.230037 0.166635 0.396672) 569 1129 2
(0.225391 0.387305 0.15834 0.228965) 569 1131 1
(0.585958 0.207021 0.122407 0.0846144) 570 1133 1
(0.580794 0.0406517 0.209603 0.168951) 571 987 1
(0.346404 0.326798 0.174549 0.152249) 572 1137 1
(0.344234 0.0219563 0.327883 0.305926) 573 1139 2
(0.227549 0.0085341 0.377691 0.386225) 574 1142 1
(0.0978174 0.0392446 0.411847 0.451091) 575 1144 1
(0.0971327 0.0746708 0.376763 0.451434) 576 1146 1
(0.0188658 0.139494 0.351073 0.490567) 577 1148 1
(0.142566 0.00175764 0.426959 0.428717) 578 1150 1
(0.0417918 0.479104 0.0498216 0.429283) 579 1151 1
(0.254942 0.372529 0.16913 0.203399) 580 1153 1
(0.0629126 0.384596 0.468544 0.0839476) 581 1155 2
(0.289252 0.0965312 0.258843 0.355374) 583 1157 2
(0.390022 0.304989 0.162594 0.142394) 584 1162 2
(0.23418 0.296119 0.0867909 0.38291) 585 1164 1
(0.189278 0.130382 0.274979 0.405361) 586 1166 1
(0.287932 0.176942 0.179093 0.356034) 587 1168 1
(0.280145 0.359928 0.311856 0.0480718) 588 1170 2
(0.550449 0.224775 0.0589899 0.165785) 589 1172 2
(0.514986 0.242507 0.180491 0.0620155) 590 1174 2
(0.660243 0.14791 0.0219685 0.169879) 591 1173 2
(0.401023 0.299489 0.0961986 0.20329) 592 1029 2
(2.36408e-07 0.5 0.5 3.65741e-09) 600 7458 2
(2.36416e-07 0.5 0.5 3.41774e-09) 600 7458 2
(2.36432e-07 0.5 0.171397 0.328603) 525 7457 2
(2.36424e-07 0.5 0.0291418 0.470858) 600 7458 2
(0.433949 0.283025 0.192418 0.0906075) 525 895 2
(0.483173 0.258414 0.194064 0.0643501) 525 895 2
(0.703272 0.148364 0.0824692 0.065895) 525 895 2
(0.185536 0.290356 0.407232 0.116876) 525 1043 2