/*--------------------------------*- C++ -*----------------------------------*\
  =========                 |
  \\      /  F ield         | OpenFOAM: The Open Source CFD Toolbox
   \\    /   O peration     | Website:  https://openfoam.org
    \\  /    A nd           | Version:  12
     \\/     M anipulation  |
\*---------------------------------------------------------------------------*/
FoamFile
{
    format      ascii;
    class       vectorField;
    location    "0.15/lagrangian/cloud";
    object      U;
}
// * * * * * * * * * * * * * * * * * * * * * * * * * * * * * * * * * * * * * //


4097
(
(-1.23879e-11 -5.18844e-05 0)
(-1.23207e-11 -5.18848e-05 0)
(-0.00121078 -0.0164645 0)
(-0.00312141 -0.011442 0)
(-0.00307424 -0.0116604 0)
(-0.0111199 -0.00125639 0)
(-0.00333472 -0.0148897 0)
(0.00401089 -0.0203899 0)
(0.000902082 -0.0162365 0)
(-0.000452295 -0.0276455 0)
(-0.00106311 -0.0287389 0)
(-0.00154064 -0.0314804 0)
(-0.001542 -0.0326155 0)
(-0.00181524 -0.0261225 0)
(-0.000770105 -0.0181232 0)
(0.000178947 -0.0249272 0)
(0.000801681 -0.014782 0)
(-0.00273395 -0.0190649 0)
(-0.00103102 -0.02716 0)
(0.000412071 -0.027232 0)
(-4.67159e-05 -0.0197409 0)
(0.00110148 -0.0206793 0)
(0.000672119 -0.0174733 0)
(0.00276092 -0.0137943 0)
(0.00417143 -0.0176084 0)
(0.000204679 -0.0195132 0)
(-0.000912198 -0.0268081 0)
(-0.00155259 -0.0278937 0)
(-0.00130829 -0.0194018 0)
(-0.000956788 -0.0165179 0)
(8.76902e-06 -0.0242757 0)
(0.00285038 -0.0193485 0)
(0.00296643 -0.0203101 0)
(-0.000262051 -0.0239517 0)
(-0.000232342 -0.0204819 0)
(0.000799021 -0.0162077 0)
(-0.00101802 -0.021821 0)
(-0.000281292 -0.0260098 0)
(0.00012578 -0.0229686 0)
(-0.000235199 -0.022302 0)
(-0.000393338 -0.0229599 0)
(5.09786e-05 -0.0244097 0)
(0.000511585 -0.0250209 0)
(-0.000480025 -0.0232889 0)
(-0.00142029 -0.0161358 0)
(-0.000853015 -0.0198932 0)
(-0.00216552 -0.0190057 0)
(0.000315764 -0.0165808 0)
(0.00213206 -0.0116521 0)
(0.00089816 -0.0147944 0)
(0.000185728 -0.0146885 0)
(0.000580496 -0.0145967 0)
(0.000900797 -0.0127528 0)
(0.000870163 -0.0137814 0)
(-0.000201972 -0.0172054 0)
(0.00355576 -0.0238372 0)
(-5.04208e-05 -0.0309054 0)
(-0.000269197 -0.0310076 0)
(-0.00106353 -0.0326162 0)
(-0.00211818 -0.0270391 0)
(-0.000538207 -0.0278477 0)
(0.00175581 -0.0152943 0)
(-0.000158944 -0.0134164 0)
(0.000984006 -0.0125598 0)
(0.00291332 -0.0151831 0)
(0.00288882 -0.0179297 0)
(0.00222432 -0.0212294 0)
(0.00107188 -0.0244333 0)
(0.00135183 -0.0271576 0)
(0.000604815 -0.0331379 0)
(-0.00155824 -0.0304866 0)
(-0.00103435 -0.0290813 0)
(-0.00173845 -0.0198749 0)
(-7.82299e-05 -0.0191115 0)
(-0.000135541 -0.0247691 0)
(-2.96337e-11 -5.1861e-05 0)
(-2.94058e-11 -5.18619e-05 0)
(-0.00198338 -0.0487517 0)
(-0.00668031 -0.0134945 0)
(-0.00944249 -0.00402294 0)
(-0.00997358 -0.01479 0)
(-0.0142154 -0.0109363 0)
(0.00452986 -0.0168976 0)
(0.00597126 -0.00712693 0)
(-0.00103566 -0.0132989 0)
(-0.00090321 -0.0293882 0)
(-0.00215062 -0.0356433 0)
(-0.00163867 -0.0301269 0)
(-0.00394057 -0.0326072 0)
(-0.00417551 -0.032478 0)
(-0.00310262 -0.0277985 0)
(-0.00217291 -0.0375925 0)
(-0.000596306 -0.0383138 0)
(0.00054619 -0.0286742 0)
(-0.000511094 -0.0282742 0)
(0.000449092 -0.0278788 0)
(-0.00196587 -0.0323718 0)
(-0.00110259 -0.0363472 0)
(-0.0010842 -0.0333908 0)
(-0.000408848 -0.0349846 0)
(0.00117168 -0.0295613 0)
(-0.00132526 -0.0277185 0)
(-0.00114561 -0.0282742 0)
(-0.00379533 -0.0290781 0)
(-0.00252768 -0.027797 0)
(-0.00266724 -0.0278234 0)
(-0.00170266 -0.0346533 0)
(0.00098769 -0.0356871 0)
(-0.000510629 -0.0401838 0)
(0.000819237 -0.040766 0)
(0.00323223 -0.0423741 0)
(0.000236451 -0.0314148 0)
(0.00128642 -0.0317029 0)
(-0.000790497 -0.0292002 0)
(-0.00111954 -0.0332649 0)
(-0.00307385 -0.0333006 0)
(0.000250574 -0.0388487 0)
(-1.10723e-05 -0.0344926 0)
(0.000679591 -0.0317808 0)
(0.000680902 -0.0357436 0)
(-0.00431876 -0.0310354 0)
(0.000489988 -0.0294932 0)
(-0.00538661 -0.0245945 0)
(-0.00121618 -0.028283 0)
(0.000653509 -0.0203724 0)
(0.000959149 -0.0207912 0)
(0.00164071 -0.0201727 0)
(0.00137833 -0.022945 0)
(0.00219667 -0.025223 0)
(0.00466865 -0.0276889 0)
(0.00770783 -0.026634 0)
(0.00841499 -0.0274063 0)
(-0.00181694 -0.0305515 0)
(-0.000399444 -0.0319233 0)
(4.34564e-05 -0.0315643 0)
(-0.00287902 -0.033275 0)
(-0.00461025 -0.0339521 0)
(-0.0029856 -0.0352047 0)
(-0.00187426 -0.0378831 0)
(0.00261132 -0.0383246 0)
(0.00332552 -0.0387071 0)
(0.00293252 -0.0395602 0)
(0.00224992 -0.0377151 0)
(0.00312884 -0.0367291 0)
(0.0026493 -0.0314356 0)
(-4.91864e-05 -0.0361889 0)
(-0.00171795 -0.0418338 0)
(-0.000808448 -0.0402518 0)
(-0.00014898 -0.0420984 0)
(-0.000725969 -0.0442834 0)
(-4.55419e-11 -5.18482e-05 0)
(-4.51353e-11 -5.18494e-05 0)
(-0.00561117 -0.00690598 0)
(-4.47322e-11 -5.18507e-05 0)
(-0.00872621 -0.0139302 0)
(-0.00590464 -0.00832254 0)
(-0.0165453 -0.0262323 0)
(-0.0135317 -0.0388984 0)
(-0.00825004 -0.0552673 0)
(-0.00609062 -0.0283164 0)
(-0.00346962 -0.0456632 0)
(-0.00360311 -0.0387111 0)
(-0.00300369 -0.042434 0)
(-0.00310019 -0.0414488 0)
(-0.00278435 -0.0415054 0)
(-0.00270832 -0.0433883 0)
(-0.0012603 -0.0433685 0)
(-0.00160621 -0.0442527 0)
(-0.0018273 -0.0464267 0)
(0.00173261 -0.0421727 0)
(0.00265356 -0.0358799 0)
(-0.00161488 -0.0350121 0)
(-0.00181535 -0.0365762 0)
(-0.00192365 -0.0421774 0)
(-0.000447071 -0.045411 0)
(-0.00382039 -0.0444643 0)
(-0.00227337 -0.0422302 0)
(-0.000598662 -0.0422171 0)
(0.00047332 -0.0392746 0)
(0.000192095 -0.0379721 0)
(-0.00148598 -0.0423677 0)
(0.00108418 -0.0517838 0)
(2.23346e-05 -0.0539943 0)
(-0.0007262 -0.0547605 0)
(-5.32177e-05 -0.0543097 0)
(0.00442575 -0.0538037 0)
(0.000932814 -0.048077 0)
(0.00186933 -0.0501919 0)
(0.000652935 -0.0508593 0)
(-0.00102012 -0.0508331 0)
(-0.00192974 -0.0536249 0)
(-0.00638271 -0.0498023 0)
(-0.00266704 -0.046378 0)
(-0.00175002 -0.048409 0)
(7.83536e-05 -0.0447002 0)
(0.000655397 -0.0430408 0)
(0.00165069 -0.0415742 0)
(-0.00105918 -0.03887 0)
(-0.00709842 -0.0380852 0)
(-0.00426205 -0.0360301 0)
(-0.00639756 -0.0450016 0)
(-0.0016528 -0.0414281 0)
(-6.88944e-05 -0.0425977 0)
(0.000189775 -0.0435804 0)
(-0.000658911 -0.0435787 0)
(0.0034677 -0.0455955 0)
(0.0104003 -0.0426007 0)
(0.0105603 -0.0405455 0)
(0.00377529 -0.0374775 0)
(0.00238486 -0.0411093 0)
(0.00231428 -0.0457107 0)
(-0.00187481 -0.0431317 0)
(-0.00341276 -0.0427845 0)
(-0.00264772 -0.0448459 0)
(-0.0042663 -0.0455169 0)
(0.001777 -0.0460296 0)
(0.00278521 -0.0497244 0)
(0.00126385 -0.0506749 0)
(0.00123617 -0.04856 0)
(0.00439359 -0.0489519 0)
(0.00696566 -0.044805 0)
(0.00120255 -0.042033 0)
(0.000441163 -0.0413174 0)
(-0.000832007 -0.0432925 0)
(-0.001427 -0.0446855 0)
(-5.64395e-11 -5.18482e-05 0)
(-5.59355e-11 -5.18494e-05 0)
(-0.0090637 -0.0134601 0)
(-5.5436e-11 -5.18507e-05 0)
(-0.0107412 -0.0144498 0)
(-0.00291187 -0.0106125 0)
(-0.0206944 -0.0377238 0)
(-0.0150223 -0.00275269 0)
(-0.0115387 -0.0455966 0)
(-0.00765897 -0.0471217 0)
(-0.00272789 -0.0452236 0)
(-0.00368133 -0.0433601 0)
(-0.00383429 -0.042473 0)
(-0.0022202 -0.0499496 0)
(-0.00191919 -0.0460801 0)
(-0.00130771 -0.042018 0)
(-0.000360054 -0.0422357 0)
(-0.00158719 -0.0472263 0)
(-0.00383008 -0.0462115 0)
(-0.00424793 -0.0468128 0)
(-0.00125168 -0.0453829 0)
(-0.00101396 -0.0431469 0)
(0.00228913 -0.0416323 0)
(0.00481093 -0.0411743 0)
(9.54534e-05 -0.0423718 0)
(-0.000128195 -0.0450532 0)
(0.000626987 -0.0445303 0)
(0.000246781 -0.0458596 0)
(0.00231059 -0.0473048 0)
(-0.000198662 -0.0480184 0)
(0.0042807 -0.0499178 0)
(0.00224332 -0.0518005 0)
(0.000562292 -0.0528811 0)
(0.00245503 -0.0542992 0)
(0.00115854 -0.0543109 0)
(0.00274971 -0.0521808 0)
(0.00359568 -0.0544453 0)
(0.000220994 -0.0534091 0)
(0.000582362 -0.0502111 0)
(-3.63141e-05 -0.051398 0)
(0.00118785 -0.0557999 0)
(0.000471207 -0.0583804 0)
(-0.00534738 -0.0583413 0)
(-0.00460167 -0.0556272 0)
(-0.00422619 -0.0536211 0)
(-0.00112857 -0.0518619 0)
(-8.02005e-05 -0.049166 0)
(-0.00103395 -0.0468041 0)
(-0.00288544 -0.0461718 0)
(-0.00570574 -0.0485763 0)
(-0.00861304 -0.0515178 0)
(-0.00411428 -0.048775 0)
(-0.000783465 -0.0512794 0)
(-0.00100126 -0.0512911 0)
(0.000119048 -0.0473303 0)
(-0.00107843 -0.0534683 0)
(0.00671834 -0.0530344 0)
(0.0106281 -0.0473358 0)
(0.00941257 -0.0444071 0)
(0.00466703 -0.0464051 0)
(0.00234251 -0.0476094 0)
(-0.000269935 -0.0442058 0)
(-0.000332177 -0.0435851 0)
(-0.00208551 -0.0466552 0)
(-0.000682631 -0.0490458 0)
(0.00216311 -0.047602 0)
(0.000641729 -0.0496832 0)
(0.00112648 -0.0502058 0)
(0.0028811 -0.049764 0)
(0.00190156 -0.051026 0)
(0.00255556 -0.0489551 0)
(0.00159098 -0.0455379 0)
(0.00153932 -0.0407473 0)
(-0.00115897 -0.0442676 0)
(-0.000220317 -0.0495102 0)
(-5.87784e-11 -5.18482e-05 0)
(-5.82536e-11 -5.18494e-05 0)
(-0.00773418 -0.00418172 0)
(-5.77335e-11 -5.18507e-05 0)
(-0.012792 -0.0176853 0)
(-0.00765768 -0.012916 0)
(-0.0176459 -0.042797 0)
(-0.0154554 -0.002307 0)
(-0.0097906 -0.0440615 0)
(-0.00501025 -0.0489548 0)
(-0.00269857 -0.0431104 0)
(-0.00206832 -0.0494661 0)
(-0.00246377 -0.0428784 0)
(-0.00198759 -0.0472568 0)
(-0.00161013 -0.0479784 0)
(-0.00256747 -0.0509071 0)
(-0.00256695 -0.0487408 0)
(-0.00187464 -0.0450134 0)
(-0.00187304 -0.0453851 0)
(-0.00385666 -0.0483303 0)
(-0.00104593 -0.0449738 0)
(-0.00171712 -0.0462721 0)
(5.61478e-05 -0.046121 0)
(0.00471984 -0.0427061 0)
(0.00488264 -0.0401041 0)
(0.00406211 -0.0400597 0)
(0.00176312 -0.042951 0)
(0.00195931 -0.0444535 0)
(0.00350632 -0.046141 0)
(0.00379571 -0.0497343 0)
(0.00394475 -0.0529063 0)
(0.00107942 -0.0518955 0)
(-0.00054184 -0.0532882 0)
(0.00266355 -0.0540619 0)
(-0.00033596 -0.0531118 0)
(-0.000245931 -0.0528328 0)
(-0.000882004 -0.0502475 0)
(0.00392683 -0.0461867 0)
(0.00474355 -0.0427759 0)
(-0.00015466 -0.048242 0)
(0.0015743 -0.0514085 0)
(0.000806242 -0.0528194 0)
(-0.00289586 -0.0550448 0)
(-0.0066665 -0.0532745 0)
(-0.004797 -0.0553621 0)
(-0.00280197 -0.0530512 0)
(-0.00178623 -0.0533343 0)
(-0.00238062 -0.0510815 0)
(-0.0038029 -0.0494484 0)
(-0.00491509 -0.0504472 0)
(-0.00500174 -0.0503718 0)
(-0.0080398 -0.0502016 0)
(-0.00152319 -0.0512971 0)
(-0.00277934 -0.050406 0)
(-0.00133091 -0.0484064 0)
(0.00432663 -0.050275 0)
(0.00393646 -0.049913 0)
(0.00741638 -0.0474596 0)
(0.00575841 -0.0483631 0)
(0.00226174 -0.0447246 0)
(-0.00114373 -0.0419111 0)
(-0.00304427 -0.0421689 0)
(-0.00228899 -0.0429328 0)
(0.000628566 -0.0489902 0)
(0.000554568 -0.0499846 0)
(0.00257543 -0.0479272 0)
(0.00505507 -0.0480086 0)
(0.00263999 -0.048138 0)
(0.000462193 -0.052302 0)
(0.00110729 -0.0549989 0)
(0.00246595 -0.0553916 0)
(0.00219396 -0.0530931 0)
(0.00252123 -0.0451703 0)
(0.000204856 -0.0480748 0)
(6.12299e-05 -0.0496242 0)
(-5.9573e-11 -5.18484e-05 0)
(-5.90411e-11 -5.18497e-05 0)
(-0.0063321 -0.00243377 0)
(-5.85139e-11 -5.18509e-05 0)
(-0.00586684 -0.0170807 0)
(-0.00646822 -0.0152975 0)
(-0.0202938 -0.0314125 0)
(-0.0148829 -0.0319153 0)
(-0.0068952 -0.0533312 0)
(-0.00567336 -0.0333058 0)
(-0.00301711 -0.0315173 0)
(0.000106619 -0.0456418 0)
(-0.00154633 -0.0412394 0)
(-0.00297173 -0.049404 0)
(-0.00270871 -0.0506926 0)
(-0.0040848 -0.0532076 0)
(-0.00345613 -0.0511901 0)
(-0.00278623 -0.0466578 0)
(-0.00387052 -0.0440044 0)
(-0.00423152 -0.0454401 0)
(-0.00253257 -0.0468534 0)
(-0.00105305 -0.0477857 0)
(0.000716959 -0.0474792 0)
(0.000511725 -0.0468376 0)
(0.00196266 -0.0442434 0)
(0.00566748 -0.0427535 0)
(0.00573607 -0.0418953 0)
(0.00639557 -0.0427509 0)
(0.00630394 -0.0489844 0)
(0.00552531 -0.0508165 0)
(0.00387126 -0.0484386 0)
(0.00368642 -0.0491227 0)
(0.000676529 -0.0539921 0)
(0.00103853 -0.0515011 0)
(-0.000910596 -0.0504103 0)
(-0.00171374 -0.0471914 0)
(4.38836e-05 -0.0500932 0)
(0.00209446 -0.0451895 0)
(0.00247366 -0.0409821 0)
(0.000493439 -0.0424412 0)
(-0.000277408 -0.0398745 0)
(-0.00183887 -0.0412969 0)
(-0.00215519 -0.0460822 0)
(-0.00319123 -0.0505228 0)
(-0.00300498 -0.0527791 0)
(-0.00302819 -0.0525573 0)
(-0.00276584 -0.0516307 0)
(-0.00387757 -0.0503174 0)
(-0.00329101 -0.0488325 0)
(-0.00262231 -0.0480766 0)
(-0.00412766 -0.0485663 0)
(-0.00518956 -0.0514739 0)
(-0.00346899 -0.0538472 0)
(-0.0013743 -0.0555926 0)
(0.00139262 -0.0534058 0)
(0.00425564 -0.047974 0)
(0.0053705 -0.0461648 0)
(0.00597211 -0.0499505 0)
(0.00431046 -0.0451767 0)
(0.00114675 -0.0407102 0)
(-0.00135014 -0.0399773 0)
(-0.00182677 -0.0431692 0)
(0.000596649 -0.0516834 0)
(-1.55141e-05 -0.0528915 0)
(0.000209321 -0.0536139 0)
(0.000719129 -0.0520522 0)
(0.00158607 -0.0498649 0)
(0.00328309 -0.0500508 0)
(0.00205871 -0.0519035 0)
(0.000634535 -0.0542491 0)
(0.00166268 -0.0537788 0)
(0.000988899 -0.0528575 0)
(0.00121851 -0.0538367 0)
(0.0023123 -0.0529438 0)
(0.00331383 -0.0531724 0)
(-6.66225e-11 -5.1861e-05 0)
(-6.61102e-11 -5.18619e-05 0)
(-0.0062011 -0.0118871 0)
(-6.56018e-11 -5.18628e-05 0)
(-0.0068818 -0.0110047 0)
(-0.00688443 -0.0172973 0)
(-0.0164103 -0.0235612 0)
(-0.0160133 -0.0325153 0)
(-0.0104982 -0.0516668 0)
(-0.00647869 -0.0400924 0)
(-0.00167517 -0.0375681 0)
(-0.000136538 -0.0482547 0)
(0.000213564 -0.0412282 0)
(-0.00112635 -0.0470029 0)
(-0.00217622 -0.0475367 0)
(-0.0019211 -0.0461646 0)
(-0.00279556 -0.0457505 0)
(-0.00280209 -0.043887 0)
(-0.00112973 -0.0401181 0)
(-0.00471431 -0.0423129 0)
(-0.00417511 -0.0482868 0)
(-0.00169578 -0.04936 0)
(-0.00148545 -0.0520591 0)
(-0.000237394 -0.0554233 0)
(0.000775145 -0.054052 0)
(0.00108711 -0.0537585 0)
(0.0031824 -0.0480239 0)
(0.00564188 -0.0455998 0)
(0.00821579 -0.049682 0)
(0.00416946 -0.0493995 0)
(0.00214971 -0.0446131 0)
(0.000477131 -0.0433698 0)
(-0.000303001 -0.0436637 0)
(0.000847871 -0.0443015 0)
(-0.0001614 -0.044962 0)
(-0.00228862 -0.0482319 0)
(0.000312125 -0.0492408 0)
(0.00135843 -0.0481796 0)
(-0.000707715 -0.0486459 0)
(-0.000748548 -0.0493075 0)
(0.00124729 -0.0483743 0)
(0.000643753 -0.0423685 0)
(0.000690058 -0.0465198 0)
(0.00106899 -0.0506682 0)
(-0.0015824 -0.0505832 0)
(-0.00476008 -0.0506178 0)
(-0.00404957 -0.0475483 0)
(-0.00477628 -0.0440598 0)
(-0.00378534 -0.0456918 0)
(-0.002048 -0.0497461 0)
(-0.00234246 -0.0512526 0)
(-0.00377094 -0.0513671 0)
(-0.00266694 -0.0539363 0)
(-0.00355623 -0.0553607 0)
(0.000265306 -0.0558996 0)
(0.00164647 -0.051393 0)
(-4.29247e-05 -0.0487402 0)
(0.00217838 -0.0454469 0)
(0.00328176 -0.0420371 0)
(0.0046297 -0.0407404 0)
(0.00465421 -0.0441108 0)
(0.00610806 -0.0480248 0)
(0.00282758 -0.0517538 0)
(0.00106366 -0.0530384 0)
(4.56659e-05 -0.0560674 0)
(-0.00063865 -0.0545307 0)
(0.000756294 -0.0515089 0)
(0.00346297 -0.0482092 0)
(0.000594766 -0.0517622 0)
(0.00170909 -0.0536307 0)
(0.00286437 -0.0506829 0)
(0.00432755 -0.0522471 0)
(0.00420137 -0.0550886 0)
(0.00282651 -0.0533918 0)
(0.0026678 -0.0542964 0)
(-9.63333e-11 -5.18321e-05 0)
(-9.53452e-11 -5.18338e-05 0)
(-0.00333433 -0.015768 0)
(-9.43672e-11 -5.18355e-05 0)
(-0.00396824 -0.0128891 0)
(-0.00338824 -0.0134201 0)
(-0.016725 -0.0251472 0)
(-0.0185823 -0.0301574 0)
(-0.00921957 -0.0461343 0)
(-0.0071656 -0.0488414 0)
(-0.00212588 -0.03754 0)
(-0.000327625 -0.0485423 0)
(-0.00175642 -0.0417975 0)
(-0.0017017 -0.0470956 0)
(-0.00264584 -0.0442835 0)
(-0.00293623 -0.0427834 0)
(-1.41403e-05 -0.0446125 0)
(-0.0012788 -0.048029 0)
(-0.000246961 -0.0502585 0)
(-0.0021135 -0.0477721 0)
(-0.00105052 -0.0511887 0)
(-0.000909234 -0.0514459 0)
(-0.00182056 -0.0547308 0)
(0.000246679 -0.0621055 0)
(0.00189805 -0.063477 0)
(0.000183208 -0.0601363 0)
(0.00479351 -0.0556101 0)
(0.00793267 -0.0523599 0)
(0.00540367 -0.0494496 0)
(0.00111934 -0.0484164 0)
(0.00292332 -0.0493058 0)
(0.0011653 -0.0496112 0)
(0.00178448 -0.0502608 0)
(0.00218821 -0.0520634 0)
(-0.000673961 -0.0512653 0)
(-0.0026296 -0.0499624 0)
(0.000224466 -0.0549833 0)
(-0.00124626 -0.0550134 0)
(0.000357524 -0.0533752 0)
(0.00205431 -0.0546191 0)
(0.00207833 -0.0509807 0)
(-0.000381077 -0.0491868 0)
(0.00107152 -0.0449295 0)
(-0.00193363 -0.0464315 0)
(-0.00554445 -0.0466888 0)
(-0.00721529 -0.0424942 0)
(-0.00584186 -0.0407183 0)
(-0.00444224 -0.0431839 0)
(-0.00695077 -0.0460759 0)
(0.000741859 -0.0553485 0)
(0.00399773 -0.0539571 0)
(0.00153617 -0.0531676 0)
(-0.000975335 -0.0518175 0)
(-0.000645267 -0.0522994 0)
(-0.00151388 -0.0553848 0)
(-0.000710818 -0.0567822 0)
(-0.000675687 -0.0533744 0)
(-0.00124891 -0.0543615 0)
(0.000298729 -0.0566553 0)
(0.00152873 -0.0524989 0)
(0.0016741 -0.0540011 0)
(0.00458855 -0.0568747 0)
(0.00303109 -0.0521671 0)
(0.00163226 -0.053402 0)
(0.0007185 -0.0564445 0)
(-0.000740423 -0.056458 0)
(0.000577889 -0.0556683 0)
(0.00137293 -0.0511391 0)
(0.00168785 -0.0485687 0)
(0.00228613 -0.0472501 0)
(0.00302521 -0.046215 0)
(0.00548404 -0.0493956 0)
(0.00488369 -0.0503564 0)
(0.00151862 -0.0517312 0)
(-0.000223765 -0.0513327 0)
(-6.97533e-11 -5.18321e-05 0)
(-6.90379e-11 -5.18338e-05 0)
(-9.33992e-11 -5.18372e-05 0)
(-6.83298e-11 -5.18355e-05 0)
(-0.00406511 -0.00819858 0)
(-0.00600815 -0.0109667 0)
(-0.0194453 -0.0192736 0)
(-0.0201785 -0.0303236 0)
(-0.00840559 -0.04021 0)
(-0.0055444 -0.0528612 0)
(-0.00384407 -0.0431263 0)
(-0.00293427 -0.0531372 0)
(-0.00363893 -0.0488583 0)
(-0.00235035 -0.0506711 0)
(-0.00229006 -0.0497692 0)
(-0.0027128 -0.047566 0)
(-0.00187603 -0.0479081 0)
(-0.000470865 -0.0525302 0)
(0.0015559 -0.0593401 0)
(0.00296736 -0.0591699 0)
(0.00361133 -0.0581982 0)
(0.00428209 -0.057384 0)
(0.00368625 -0.0570656 0)
(3.46776e-05 -0.0618159 0)
(0.00142641 -0.0629996 0)
(-0.000192911 -0.0634113 0)
(0.0035885 -0.0597944 0)
(0.00283548 -0.057045 0)
(0.00584 -0.0543132 0)
(0.00362107 -0.0555856 0)
(0.00277843 -0.0574611 0)
(0.00223082 -0.0594171 0)
(0.00130284 -0.0610412 0)
(0.00227524 -0.058721 0)
(-0.000151088 -0.0578142 0)
(-0.000910945 -0.0586146 0)
(-0.00179675 -0.0558937 0)
(-0.00188093 -0.054644 0)
(7.23963e-05 -0.0530594 0)
(-0.000107766 -0.0549791 0)
(0.00136299 -0.0494039 0)
(-0.00118656 -0.0473395 0)
(-0.00192707 -0.0435713 0)
(-0.00210525 -0.0413737 0)
(-0.00295251 -0.0396945 0)
(-0.00411526 -0.0405996 0)
(-0.0015156 -0.0436554 0)
(-0.00109257 -0.0457175 0)
(-4.58298e-05 -0.0483027 0)
(-0.000550927 -0.0541754 0)
(0.00222661 -0.0529567 0)
(0.0017269 -0.0537794 0)
(-0.00281272 -0.0524463 0)
(-0.00316208 -0.051382 0)
(-0.00150049 -0.051473 0)
(0.00281109 -0.0519221 0)
(0.0017677 -0.051018 0)
(0.000691014 -0.0508538 0)
(0.00187 -0.0521622 0)
(0.0028808 -0.0544598 0)
(0.0041049 -0.0561171 0)
(0.00621676 -0.0579404 0)
(0.00493754 -0.0569755 0)
(0.00146813 -0.053318 0)
(0.000284438 -0.0556284 0)
(-0.00063095 -0.0553465 0)
(-0.00252749 -0.0558846 0)
(8.64614e-06 -0.0518588 0)
(0.000476799 -0.0486 0)
(0.00162458 -0.0480508 0)
(0.00336566 -0.0438689 0)
(0.0051186 -0.0442659 0)
(0.00365671 -0.0431426 0)
(0.000462969 -0.0450058 0)
(-0.000471915 -0.0444827 0)
(-5.59063e-11 -5.18347e-05 0)
(-5.53329e-11 -5.18363e-05 0)
(-0.000863484 -0.00906494 0)
(-5.47654e-11 -5.1838e-05 0)
(-0.00446737 -0.00937265 0)
(-0.00587728 -0.00605702 0)
(-0.0109385 -0.0235413 0)
(-0.0180872 -0.0320807 0)
(-0.00855559 -0.0424471 0)
(-0.00581405 -0.0552978 0)
(-0.00453755 -0.0411931 0)
(-0.00408267 -0.0522014 0)
(-0.00457738 -0.0461169 0)
(-0.000944005 -0.0488778 0)
(0.00249842 -0.0473731 0)
(0.00129217 -0.0489608 0)
(0.000499909 -0.0495536 0)
(0.00120163 -0.0518065 0)
(0.0032809 -0.0594211 0)
(0.0029545 -0.0572661 0)
(0.00538875 -0.0583142 0)
(0.00346102 -0.0575567 0)
(0.0015661 -0.0548856 0)
(0.000263925 -0.0554959 0)
(-0.000552814 -0.0551922 0)
(-0.000518458 -0.0545157 0)
(0.00187648 -0.0552948 0)
(0.00263758 -0.0524239 0)
(0.00394109 -0.051363 0)
(0.00327041 -0.054394 0)
(0.00488912 -0.0543346 0)
(0.00241182 -0.0562592 0)
(0.00121793 -0.057327 0)
(0.000462885 -0.0595249 0)
(-0.000646629 -0.0581785 0)
(-0.00193546 -0.0555907 0)
(-0.00237048 -0.0525228 0)
(-0.0033619 -0.0499034 0)
(0.000551648 -0.0466494 0)
(-0.00150243 -0.049732 0)
(-6.34495e-07 -0.0490385 0)
(-0.000484653 -0.0468199 0)
(-0.00185785 -0.044919 0)
(-0.00385201 -0.0456181 0)
(-0.00621016 -0.0489936 0)
(-0.00749661 -0.0490969 0)
(-0.00102462 -0.0542469 0)
(-0.00109462 -0.055395 0)
(0.00107018 -0.0550336 0)
(-0.00100657 -0.0548328 0)
(-0.00188187 -0.0522374 0)
(-0.000209388 -0.04971 0)
(-0.00296887 -0.0501639 0)
(-0.00428263 -0.0494365 0)
(0.00174791 -0.0512547 0)
(0.000359429 -0.051291 0)
(0.00117231 -0.0527386 0)
(0.00198352 -0.0529592 0)
(0.00241023 -0.0537471 0)
(0.00616021 -0.0543488 0)
(0.00617891 -0.0549339 0)
(0.00626402 -0.0582187 0)
(0.0032424 -0.0565362 0)
(-2.095e-05 -0.0546597 0)
(-0.000352563 -0.0542602 0)
(-0.000982953 -0.0549971 0)
(-0.00352121 -0.054137 0)
(-0.00366412 -0.0520636 0)
(0.00098101 -0.0502141 0)
(-0.000109197 -0.0470333 0)
(0.00200031 -0.046242 0)
(0.00349495 -0.0480644 0)
(0.00427297 -0.0438241 0)
(0.00351845 -0.0471945 0)
(0.00166952 -0.0439255 0)
(-6.63434e-11 -5.18344e-05 0)
(-6.56629e-11 -5.18361e-05 0)
(-0.00261156 -0.00772485 0)
(-6.49893e-11 -5.18377e-05 0)
(-0.00344759 -0.0081874 0)
(-0.00427535 -0.00814907 0)
(-0.0124812 -0.0345645 0)
(-0.0150079 -0.0329983 0)
(-0.0134673 -0.0403799 0)
(-0.0120998 -0.0592023 0)
(-0.00916749 -0.0424279 0)
(-0.00284418 -0.0498997 0)
(-0.000677587 -0.0457829 0)
(0.000672725 -0.0479098 0)
(0.000325298 -0.047218 0)
(0.00135224 -0.0493215 0)
(0.00230647 -0.0501536 0)
(0.00378461 -0.0513028 0)
(0.0048681 -0.0544132 0)
(0.00476165 -0.0512017 0)
(0.00493845 -0.0499149 0)
(0.000946442 -0.0515336 0)
(-0.00120337 -0.050258 0)
(-0.000524113 -0.046177 0)
(-0.00161433 -0.0482654 0)
(0.0004514 -0.0481068 0)
(0.00230875 -0.0473339 0)
(0.00277353 -0.0469568 0)
(0.00408079 -0.0455837 0)
(0.00413434 -0.0454329 0)
(0.00369495 -0.0416683 0)
(0.00160213 -0.0477305 0)
(-0.000117527 -0.0489492 0)
(-0.0040283 -0.0516686 0)
(-0.00411143 -0.0490948 0)
(-0.00405013 -0.0470319 0)
(-0.00448873 -0.0461558 0)
(-0.00497841 -0.0452536 0)
(-0.00516551 -0.0478651 0)
(-0.000520118 -0.0486893 0)
(-0.00144102 -0.048364 0)
(-0.00357428 -0.0458681 0)
(-0.00173651 -0.0469402 0)
(-0.00294259 -0.0474854 0)
(-0.00434542 -0.0511831 0)
(-0.0033231 -0.0527145 0)
(-0.00144854 -0.0568584 0)
(-0.00143401 -0.0552972 0)
(-0.00155337 -0.0568408 0)
(2.33083e-05 -0.0566699 0)
(-0.00101268 -0.0547115 0)
(0.000308754 -0.0534203 0)
(-0.00124845 -0.053259 0)
(-0.000368575 -0.0538435 0)
(0.00303296 -0.0528602 0)
(0.00223502 -0.0538387 0)
(0.00186487 -0.0558135 0)
(0.00247016 -0.0576327 0)
(0.0022184 -0.0565115 0)
(0.00274556 -0.0562334 0)
(0.00468021 -0.0578204 0)
(0.0030025 -0.055018 0)
(0.00091971 -0.0517378 0)
(-0.00126897 -0.0536155 0)
(-0.000801534 -0.0515884 0)
(-0.00106157 -0.0498573 0)
(-0.00328663 -0.0488774 0)
(-0.0048348 -0.0493017 0)
(-0.00336965 -0.0508865 0)
(-0.00171104 -0.0474 0)
(0.00345829 -0.0518675 0)
(0.00306965 -0.0527143 0)
(0.00373084 -0.0507868 0)
(0.00332629 -0.051251 0)
(0.00320951 -0.0529757 0)
(-3.64032e-11 -5.18482e-05 0)
(-3.60781e-11 -5.18494e-05 0)
(-0.00125956 -0.00654899 0)
(-3.57559e-11 -5.18506e-05 0)
(-0.0112598 -0.004159 0)
(-0.00578832 -0.0108802 0)
(-0.00714299 -0.0212473 0)
(-0.0128159 -0.0337972 0)
(-0.0105838 -0.0397329 0)
(-0.00848247 -0.0489769 0)
(-0.00719366 -0.0449663 0)
(-0.00406497 -0.0503147 0)
(0.0028103 -0.0448906 0)
(0.000223538 -0.0484452 0)
(0.00069396 -0.0480855 0)
(0.00280506 -0.0493151 0)
(0.00390007 -0.0502986 0)
(0.00412717 -0.0497227 0)
(0.00198865 -0.0496139 0)
(0.0027555 -0.0475705 0)
(0.00470264 -0.0450239 0)
(0.000533961 -0.0473551 0)
(-8.96498e-05 -0.0471358 0)
(-0.00109299 -0.044735 0)
(-0.00231285 -0.046826 0)
(0.000811822 -0.0490971 0)
(0.00294457 -0.0473018 0)
(0.00123437 -0.0450436 0)
(0.000786119 -0.0446276 0)
(0.00152095 -0.045358 0)
(0.00216817 -0.0458629 0)
(0.00316799 -0.0451308 0)
(-0.000346216 -0.0456563 0)
(-0.000854789 -0.0475784 0)
(-0.00302009 -0.0479383 0)
(-0.00472722 -0.0456913 0)
(-0.00544035 -0.0463673 0)
(-0.00597859 -0.0475167 0)
(-0.00641228 -0.0471493 0)
(-0.00314664 -0.047285 0)
(0.00224101 -0.0486673 0)
(0.00262101 -0.0541094 0)
(0.00109968 -0.0527524 0)
(-0.00212588 -0.0530344 0)
(-0.000819157 -0.0526206 0)
(-0.000947407 -0.0541022 0)
(-0.00303507 -0.0571625 0)
(-0.00334359 -0.0555226 0)
(-0.00263371 -0.0555891 0)
(-0.00232304 -0.0556208 0)
(0.000106875 -0.0556645 0)
(0.000734188 -0.054883 0)
(0.000318441 -0.0536019 0)
(0.000673773 -0.0545184 0)
(0.0015303 -0.0568051 0)
(0.00142806 -0.0565132 0)
(0.00239598 -0.0571355 0)
(0.00414936 -0.0589333 0)
(0.00336533 -0.0588626 0)
(0.0038283 -0.0573234 0)
(0.00362437 -0.0566493 0)
(0.00202795 -0.0563492 0)
(-0.00285462 -0.050527 0)
(-0.00300402 -0.0490658 0)
(-0.00237784 -0.0460313 0)
(-0.00230503 -0.0439097 0)
(-0.00284321 -0.0427152 0)
(-0.0056499 -0.0458788 0)
(-0.00392175 -0.0490272 0)
(-0.00519501 -0.0499917 0)
(0.00184641 -0.049447 0)
(0.00109068 -0.0499666 0)
(0.00275803 -0.0523317 0)
(0.00419994 -0.0531198 0)
(0.00525636 -0.0519523 0)
(-5.02422e-11 -5.18482e-05 0)
(-4.97936e-11 -5.18495e-05 0)
(-0.0125243 -0.0415339 0)
(-4.93489e-11 -5.18507e-05 0)
(-0.0223614 -0.0512864 0)
(-0.0174536 -0.0201391 0)
(-0.0120177 -0.0306911 0)
(-0.0114069 -0.0369271 0)
(-0.00702263 -0.0334195 0)
(-0.00803812 -0.0466083 0)
(-0.00537465 -0.0425334 0)
(-0.00642976 -0.0511473 0)
(0.0019514 -0.0479421 0)
(0.00221658 -0.0511174 0)
(0.00361514 -0.0510742 0)
(0.00521174 -0.0530162 0)
(0.00293957 -0.0502089 0)
(0.00331857 -0.0496809 0)
(0.00163366 -0.0483213 0)
(0.00157806 -0.0458046 0)
(0.00167338 -0.0454148 0)
(0.00386239 -0.0456046 0)
(0.000340916 -0.0457686 0)
(-0.00338534 -0.0473644 0)
(-0.00327144 -0.0489044 0)
(-0.00156023 -0.0525112 0)
(0.000335989 -0.049439 0)
(0.00117584 -0.0498091 0)
(0.00116733 -0.0482419 0)
(0.00105354 -0.0466887 0)
(0.00236562 -0.0475534 0)
(0.00339912 -0.0461198 0)
(-0.000755091 -0.0458978 0)
(-0.0012061 -0.0440919 0)
(-0.00213925 -0.0415504 0)
(-0.000910867 -0.0426066 0)
(-0.00116675 -0.0449737 0)
(-0.00189638 -0.0461008 0)
(-0.00458794 -0.0469698 0)
(-0.00121783 -0.0475281 0)
(0.00112167 -0.0485312 0)
(-0.000552997 -0.0519149 0)
(-0.0013768 -0.051883 0)
(0.00235737 -0.0499227 0)
(0.00030125 -0.0473158 0)
(-0.00330868 -0.0481598 0)
(-0.00123388 -0.049062 0)
(-0.00155477 -0.0519548 0)
(-0.00250564 -0.0533422 0)
(-0.00220075 -0.0556276 0)
(0.00104615 -0.0562874 0)
(0.000733994 -0.0552637 0)
(0.000301241 -0.0546224 0)
(0.00128875 -0.0561419 0)
(0.0017268 -0.0557476 0)
(0.004334 -0.0559495 0)
(0.00429679 -0.0550398 0)
(0.00405619 -0.0584475 0)
(0.00125878 -0.0568884 0)
(-0.00108395 -0.050608 0)
(0.000201028 -0.0501461 0)
(-0.00209909 -0.0470168 0)
(-0.00337043 -0.0441123 0)
(-0.00452774 -0.0441114 0)
(-0.00499781 -0.0448672 0)
(-0.0033025 -0.0425451 0)
(-0.00161921 -0.0428567 0)
(0.000242659 -0.0433278 0)
(-0.000542401 -0.0471342 0)
(0.00036101 -0.0454003 0)
(0.00122879 -0.0447135 0)
(0.00252687 -0.0474585 0)
(0.0045766 -0.0500625 0)
(0.00288383 -0.0486601 0)
(0.00130381 -0.04944 0)
(-6.98877e-11 -5.18344e-05 0)
(-6.91709e-11 -5.18361e-05 0)
(-0.00368869 -0.0120949 0)
(-6.84614e-11 -5.18378e-05 0)
(-0.00308886 -0.0111846 0)
(-0.00474344 -0.0193365 0)
(-0.00385794 -0.0140742 0)
(-0.0132276 -0.0384598 0)
(-0.00582558 -0.0395794 0)
(-0.00397477 -0.0466455 0)
(-0.00491728 -0.0427214 0)
(9.11378e-06 -0.0564218 0)
(0.00156255 -0.052788 0)
(0.00197362 -0.0549202 0)
(0.00608947 -0.0526184 0)
(0.00644524 -0.0522434 0)
(0.00122696 -0.0517693 0)
(0.00090614 -0.0532782 0)
(0.00375524 -0.0503133 0)
(0.00268664 -0.0512782 0)
(0.00119022 -0.052029 0)
(0.00177557 -0.0517098 0)
(0.0022232 -0.0525149 0)
(-0.00269905 -0.0502851 0)
(-0.00285991 -0.0498482 0)
(-0.00264458 -0.0525311 0)
(-0.00401564 -0.0543313 0)
(0.000676326 -0.0555256 0)
(0.00315954 -0.0521036 0)
(0.00439354 -0.0504546 0)
(0.00217564 -0.048697 0)
(0.0011737 -0.0478652 0)
(-0.00024238 -0.0450101 0)
(-0.00042348 -0.0457581 0)
(-0.00632247 -0.0475952 0)
(-0.00436684 -0.0503902 0)
(9.74332e-05 -0.0520128 0)
(0.00237975 -0.0509773 0)
(0.00304462 -0.0524463 0)
(0.00218835 -0.0471849 0)
(-0.00286563 -0.0494658 0)
(-0.00193136 -0.0510535 0)
(-0.000741086 -0.0525659 0)
(-0.00164489 -0.0509686 0)
(0.000764178 -0.0490851 0)
(0.000608053 -0.0488744 0)
(0.00119906 -0.048723 0)
(-0.00176219 -0.0511539 0)
(-0.000827822 -0.0521948 0)
(0.000685069 -0.0544666 0)
(0.00237103 -0.0558066 0)
(0.00190504 -0.0541785 0)
(0.000651609 -0.0559636 0)
(0.0025129 -0.0558219 0)
(0.00453502 -0.0559249 0)
(0.00323402 -0.0519201 0)
(0.00333773 -0.049129 0)
(0.000226774 -0.0489225 0)
(-0.00189255 -0.0478301 0)
(-0.00213777 -0.0502181 0)
(-0.00357016 -0.0475491 0)
(-0.00136488 -0.0465026 0)
(-0.00205137 -0.0458717 0)
(-0.00383068 -0.0432918 0)
(-0.00351241 -0.0459452 0)
(-0.00272834 -0.0447659 0)
(-0.000979095 -0.0446107 0)
(0.000356291 -0.0453985 0)
(-0.000667229 -0.0469457 0)
(0.000208648 -0.0476864 0)
(0.00142231 -0.0473213 0)
(0.00286243 -0.048263 0)
(0.00452087 -0.0483733 0)
(0.00256743 -0.0474317 0)
(-0.000825643 -0.0432532 0)
(-3.20154e-11 -5.1861e-05 0)
(-3.17693e-11 -5.18619e-05 0)
(5.40818e-09 -1.92465e-05 0)
(-3.1525e-11 -5.18628e-05 0)
(-0.00760718 -0.00207272 0)
(-0.00875502 -0.010825 0)
(-0.0125144 -0.0221718 0)
(-0.0210283 -0.0358446 0)
(-0.0120344 -0.0553876 0)
(-0.00616631 -0.0614362 0)
(-0.00429582 -0.0505508 0)
(-0.00062431 -0.0563504 0)
(0.000836598 -0.0532532 0)
(0.00345411 -0.0554181 0)
(0.00521299 -0.051341 0)
(0.00408338 -0.0514131 0)
(0.00299018 -0.0517459 0)
(0.00154489 -0.0508141 0)
(0.00132688 -0.0566388 0)
(0.000936641 -0.0553289 0)
(0.000526716 -0.0552976 0)
(0.0022013 -0.05467 0)
(0.00293722 -0.0528715 0)
(0.00288866 -0.0518857 0)
(-0.00265714 -0.052443 0)
(-0.00227924 -0.0522546 0)
(-0.0026351 -0.0552289 0)
(0.00208545 -0.055378 0)
(0.00240891 -0.0535194 0)
(0.00273139 -0.0523086 0)
(0.00295084 -0.051518 0)
(0.0037462 -0.0520913 0)
(-0.000653646 -0.0535226 0)
(0.000807226 -0.0529367 0)
(-0.000273105 -0.0539153 0)
(-0.00408583 -0.0550081 0)
(-0.00128258 -0.0550125 0)
(-0.0012961 -0.0552458 0)
(-0.000292641 -0.0541995 0)
(0.00124563 -0.0526457 0)
(0.00142481 -0.0490123 0)
(-0.00291683 -0.0507672 0)
(-0.00140854 -0.0520872 0)
(-0.00184861 -0.0521216 0)
(0.00154765 -0.0501774 0)
(0.00182698 -0.0510125 0)
(0.00406279 -0.0500301 0)
(0.00434279 -0.0472366 0)
(0.00353508 -0.0482834 0)
(0.00303677 -0.0480404 0)
(0.00300073 -0.0502424 0)
(0.00271 -0.051975 0)
(0.00178831 -0.0556542 0)