/*--------------------------------*- C++ -*----------------------------------*\
  =========                 |
  \\      /  F ield         | OpenFOAM: The Open Source CFD Toolbox
   \\    /   O peration     | Website:  https://openfoam.org
    \\  /    A nd           | Version:  12
     \\/     M anipulation  |
\*---------------------------------------------------------------------------*/
FoamFile
{
    format      ascii;
    class       IOPosition;
    location    "0.95/lagrangian/cloud";
    object      positions;
}
// * * * * * * * * * * * * * * * * * * * * * * * * * * * * * * * * * * * * * //

5871
(
(4.12423e-08 0.5 0.499992 8.06859e-06) 0 7376 2
(4.15888e-08 0.5 0.499992 8.02988e-06) 0 7376 2
(4.18761e-08 0.5 0.000208114 0.499792) 0 7376 2
(4.21142e-08 0.5 0.0206545 0.479345) 0 7376 2
(4.23116e-08 0.5 0.039718 0.460282) 0 7376 2
(4.24753e-08 0.5 0.0878444 0.412156) 0 7376 2
(4.2611e-08 0.5 0.061993 0.438007) 0 7376 2
(4.27234e-08 0.5 0.133782 0.366218) 0 7376 2
(4.28167e-08 0.5 0.139745 0.360255) 0 7376 2
(4.28939e-08 0.5 0.109949 0.390051) 0 7376 2
(0.0233493 0.488325 0.308338 0.179987) 0 7375 1
(0.0342022 0.482899 0.205728 0.277171) 0 7375 1
(0.0416803 0.47916 0.181639 0.297521) 0 7375 1
(0.0424718 0.478764 0.138427 0.340337) 0 7375 1
(0.0119741 0.494013 0.00495922 0.489054) 0 7375 1
(0.0115525 0.131475 0.494224 0.362749) 0 7375 2
(0.0235669 0.0376463 0.488217 0.45057) 0 7375 2
(0.000703093 0.499648 0.428331 0.0713175) 1 7377 1
(0.10303 0.448485 0.186133 0.262352) 1 0 1
(0.371517 0.314241 0.12041 0.193832) 1 0 1
(0.279592 0.360204 0.155967 0.204237) 1 0 1
(0.332671 0.333664 0.240742 0.092922) 1 0 1
(0.358072 0.320964 0.26122 0.0597441) 1 0 1
(0.381139 0.309431 0.250846 0.0585851) 1 3 2
(0.76798 0.0496325 0.11601 0.0663776) 1 2 2
(0.532134 0.233933 0.0496152 0.184318) 1 2 1
(0.000972251 0.170288 0.499514 0.329226) 1 7377 2
(0.0083331 0.495833 0.0919704 0.403863) 2 2 1
(0.662131 0.13299 0.0359441 0.168934) 2 2 2
(0.32035 0.0451679 0.339825 0.294657) 2 7378 2
(0.484563 0.184664 0.257718 0.0730541) 3 7379 2
(0.42112 0.128824 0.160616 0.28944) 5 11 1
(0.233981 0.283802 0.0992081 0.38301) 7 15 1
(0.439591 0.280205 0.164928 0.115276) 8 7384 1
(0.27591 0.132969 0.229076 0.362045) 9 19 1
(0.39158 0.043709 0.30421 0.260501) 10 20 2
(0.00138124 0.499309 0.165684 0.333625) 87 25 2
(0.119664 0.440168 0.233803 0.206365) 11 22 1
(0.538754 0.0609087 0.230623 0.169714) 12 7388 2
(0.569459 0.215271 0.0102037 0.205067) 13 24 1
(0.189499 0.40525 0.233139 0.172111) 13 26 1
(0.582095 0.151188 0.208952 0.0577641) 14 7390 2
(0.514048 0.242976 0.224442 0.0185337) 15 7391 1
(0.386025 0.306987 0.00620283 0.300784) 16 30 1
(0.491007 0.254496 0.0704355 0.184061) 17 7393 1
(0.218297 0.390851 0.314523 0.0763285) 19 38 1
(0.673296 0.0395042 0.163352 0.123848) 21 42 2
(0.575742 0.151995 0.0601334 0.212129) 24 49 1
(0.228396 0.385802 0.360325 0.0254769) 26 53 2
(0.416731 0.291635 0.0549981 0.236637) 26 7402 1
(0.465727 0.267136 0.261904 0.00523191) 27 7403 1
(0.198082 0.0615939 0.400959 0.339365) 30 60 2
(0.231769 0.384115 0.368035 0.0160807) 32 65 2
(0.13656 0.43172 0.368939 0.0627813) 109 69 2
(0.0133533 0.393536 0.493323 0.0997872) 111 73 1
(0.303529 0.348236 0.288812 0.0594234) 109 217 1
(0.221328 0.389336 0.16521 0.224126) 33 64 1
(0.489113 0.107611 0.255444 0.147833) 34 7410 2
(0.367697 0.316152 0.0467085 0.269443) 36 70 1
(0.0319387 0.484031 0.262653 0.221378) 37 72 1
(0.279316 0.360342 0.17321 0.187131) 38 77 2
(0.284443 0.25684 0.100939 0.357779) 39 79 1
(0.0339653 0.136171 0.346846 0.483017) 41 80 2
(0.287689 0.356156 0.246373 0.109783) 42 85 2
(0.167892 0.139701 0.416054 0.276353) 118 87 1
(0.292736 0.353632 0.350218 0.00341406) 119 237 1
(0.615859 0.19207 0.0522814 0.139789) 120 239 1
(0.176144 0.411928 0.264352 0.147576) 42 84 1
(0.490515 0.254742 0.21308 0.0416621) 43 86 1
(0.577344 0.196364 0.211328 0.0149645) 44 7420 2
(0.381142 0.309429 0.126146 0.183283) 45 88 1
(0.275288 0.362356 0.281372 0.0809837) 122 243 1
(0.1847 0.40765 0.254858 0.152792) 45 90 1
(0.175942 0.412029 0.0345 0.377529) 49 99 2
(0.244598 0.0218568 0.355844 0.377701) 49 99 1
(3.66249e-08 0.5 0.499985 1.4658e-05) 75 7451 2
(3.72748e-08 0.5 0.499984 1.58619e-05) 75 7451 2
(9.12548e-08 0.5 0.0589985 0.441001) 0 7376 2
(7.0126e-08 0.223212 0.276788 0.5) 0 7376 1
(0.0505833 0.474708 0.138014 0.336694) 0 7375 1
(0.188602 0.405699 0.299612 0.106087) 0 7376 2
(0.305129 0.347436 0.0985396 0.248896) 0 7376 2
(0.130545 0.301597 0.434728 0.133131) 0 7375 2
(1.65007e-08 0.5 0.0721818 0.427818) 75 7451 2
(0.145173 0.229001 0.427413 0.198412) 0 7375 2
(0.177983 0.411009 0.150149 0.26086) 0 1 2
(4.29366e-08 0.5 0.179573 0.320427) 75 7451 2
(3.60404e-08 0.5 0.143308 0.356692) 75 7451 2
(4.11315e-08 0.5 0.136798 0.363202) 75 7451 2
(0.124249 0.314916 0.437875 0.12296) 0 7375 2
(4.63944e-08 0.5 0.127084 0.372916) 75 7451 2
(4.27511e-08 0.5 0.0888721 0.411128) 75 7451 2
(1.62857e-08 0.5 0.0834303 0.41657) 75 7451 2
(0.0612229 0.469389 0.454169 0.0152191) 0 0 1
(0.000745493 0.499627 0.334572 0.165055) 1 7377 1
(0.43337 0.1373 0.283315 0.146015) 0 0 2
(0.56875 0.215625 0.0825066 0.133118) 1 0 1
(0.202622 0.300042 0.398689 0.098647) 0 0 2
(0.122051 0.307741 0.438974 0.131234) 0 0 2
(0.0339551 0.272072 0.483022 0.21095) 0 0 2
(0.572631 0.213685 0.184287 0.0293979) 1 3 2
(0.303829 0.301155 0.0469302 0.348085) 1 3 1
(0.223388 0.223027 0.165279 0.388306) 1 3 1
(0.0201578 0.166945 0.322976 0.489921) 2 2 2
(0.149797 0.425101 0.360826 0.0642749) 2 5 2
(0.0632627 0.0606569 0.468369 0.407712) 2 4 2
(0.562233 0.0421775 0.218883 0.176706) 76 151 2
(0.381525 0.28431 0.309238 0.0249275) 76 3 1
(0.00927389 0.360378 0.495363 0.134985) 76 151 2
(0.017817 0.306168 0.491091 0.184923) 76 151 2
(0.0211613 0.489419 0.138399 0.35102) 76 151 1
(0.193836 0.403082 0.0913479 0.311734) 81 13 2
(0.220162 0.323973 0.389919 0.0659462) 83 17 1
(0.3889 0.159289 0.30555 0.146261) 85 21 1
(0.592306 0.0821582 0.203847 0.121689) 86 23 1
(0.0844624 0.0684413 0.457769 0.389328) 88 27 1
(0.567496 0.0514279 0.216252 0.164824) 87 25 1
(0.00180107 0.13004 0.369059 0.499099) 82 161 2
(0.0332404 0.48338 0.182405 0.300975) 85 170 2
(0.896577 0.0517116 0.0131832 0.0385284) 88 27 2
(0.192728 0.403636 0.398628 0.00500836) 92 183 1
(0.0646736 0.467663 0.34118 0.126483) 95 41 2
(0.321006 0.339497 0.313243 0.0262541) 95 189 1
(0.305605 0.0645832 0.347198 0.282614) 96 43 1
(0.096346 0.175051 0.451827 0.276776) 100 51 1
(0.0991118 0.450444 0.107488 0.342956) 28 57 2
(0.157242 0.102097 0.421379 0.319282) 170 190 1
(0.271016 0.035194 0.329298 0.364492) 98 193 2
(0.123052 0.0575974 0.438474 0.380876) 99 197 2
(0.022349 0.0784833 0.488826 0.410342) 100 199 2
(0.43866 0.252666 0.0280041 0.28067) 101 202 1
(0.338512 0.0657528 0.264991 0.330744) 102 201 2
(0.556665 0.0807265 0.140941 0.221668) 105 207 2
(0.243155 0.378422 0.332046 0.046376) 108 216 2
(0.133602 0.158763 0.433199 0.274436) 109 217 2
(0.304631 0.347685 0.24876 0.0989243) 110 219 1
(0.162962 0.418519 0.0370626 0.381457) 112 75 2
(0.0718501 0.271222 0.464075 0.192853) 180 210 1
(0.0762976 0.461851 0.457474 0.00437709) 182 214 2
(0.160544 0.419728 0.303969 0.115759) 183 364 1
(0.135257 0.432371 0.120542 0.31183) 185 366 1
(0.0577748 0.471113 0.446125 0.0249879) 186 222 2
(0.301218 0.349391 0.0141801 0.335211) 112 224 2
(0.221649 0.15483 0.389175 0.234345) 112 223 2
(0.68455 0.157725 0.0238589 0.133866) 115 230 2
(0.0295295 0.248252 0.236983 0.485235) 117 231 2
(0.704443 0.145867 0.00191086 0.147778) 121 242 1
(0.0447441 0.0223758 0.455252 0.477628) 118 236 1
(0.0332299 0.0783827 0.405002 0.483385) 118 233 2
(0.558869 0.220566 0.00544571 0.21512) 194 384 1
(4.26697e-08 0.5 0.5 1.39662e-09) 150 7452 2
(4.26737e-08 0.5 0.5 1.2977e-09) 150 7452 2
(3.67691e-08 0.5 0.034952 0.465048) 75 7451 2
(4.26776e-08 0.5 0.14379 0.35621) 150 7452 2
(1.75186e-10 0.5 0.101752 0.398248) 75 7451 2
(4.75452e-08 0.5 0.0950241 0.404976) 75 7451 2
(4.42026e-08 0.5 0.211708 0.288292) 75 7451 2
(2.8834e-08 0.5 0.273541 0.226459) 75 7451 2
(0.0203688 0.489816 0.450981 0.0388349) 75 1 2
(3.35869e-09 0.5 0.362119 0.137881) 75 7451 2
(2.29163e-08 0.5 0.320729 0.179271) 75 7451 2
(0.0420202 0.47899 0.440017 0.0389729) 75 1 2
(5.65698e-08 0.5 0.354676 0.145324) 75 7451 2
(0.259765 0.0334738 0.370118 0.336644) 150 150 1
(0.302674 0.0037981 0.348663 0.344865) 150 150 1
(0.343923 0.00876296 0.328039 0.319276) 150 150 1
(0.211893 0.0477495 0.394053 0.346304) 150 150 1
(1.38646e-08 0.5 0.314827 0.185173) 75 7451 2
(0.00841355 0.495793 0.398262 0.097531) 75 1 2
(0.484391 0.257804 0.0556959 0.202109) 0 0 1
(0.00516981 0.497415 0.280805 0.21661) 0 1 2
(0.0288478 0.485576 0.324989 0.160587) 0 1 2
(0.374421 0.281574 0.312789 0.0312153) 0 0 2
(0.306589 0.225753 0.346706 0.120953) 0 0 2
(0.378479 0.245228 0.31076 0.0655329) 0 0 2
(0.182052 0.204066 0.408974 0.204908) 150 150 1
(0.758256 0.00990543 0.110967 0.120872) 75 150 1
(0.00112172 0.234819 0.26462 0.499439) 75 150 1
(0.201622 0.172558 0.399189 0.226631) 0 0 2
(0.0486081 0.475696 0.206594 0.269102) 76 3 2
(0.389599 0.305201 0.00571713 0.299484) 76 3 2
(0.325123 0.337439 0.334421 0.00301755) 150 298 1
(0.245429 0.377285 0.331246 0.046039) 75 149 1
(0.0405566 0.175929 0.479722 0.303792) 150 150 1
(0.0731339 0.463433 0.453902 0.00953089) 150 298 1
(0.189256 0.0459051 0.405372 0.359467) 75 149 2
(0.790782 0.0247333 0.104609 0.0798757) 76 151 2
(0.786959 0.10652 0.0475394 0.0589811) 151 298 1
(0.580271 0.156792 0.209864 0.0530724) 151 300 2
(0.176881 0.411559 0.257669 0.153891) 151 300 1
(0.0277671 0.0965072 0.389609 0.486116) 77 151 2
(0.553362 0.223319 0.039384 0.183935) 77 154 2
(0.362938 0.179664 0.138867 0.318531) 77 154 1
(0.310816 0.344592 0.032227 0.312365) 78 156 2
(0.171797 0.0844215 0.32968 0.414102) 80 157 2
(0.0542834 0.472858 0.0212575 0.451601) 158 312 1
(0.335796 0.174417 0.332102 0.157685) 160 170 1
(0.292393 0.330163 0.353804 0.0236406) 161 172 1
(0.19277 0.403615 0.192042 0.211573) 89 178 2
(0.905512 0.0376201 0.047244 0.0096239) 91 181 2
(0.0183723 0.490814 0.317508 0.173306) 162 322 1
(0.0264593 0.04729 0.48677 0.43948) 90 179 2
(0.17915 0.410425 0.406423 0.00400168) 166 330 1
(0.212351 0.393825 0.199619 0.194205) 163 325 2
(0.260445 0.369778 0.0106943 0.359083) 165 329 2
(0.0147251 0.161944 0.492637 0.330694) 165 328 2
(0.289914 0.0343599 0.320683 0.355043) 166 331 1
(0.524205 0.237897 0.0552096 0.182688) 167 333 2
(0.820217 0.0369125 0.0529788 0.0898913) 171 341 1
(0.324195 0.337902 0.202918 0.134984) 175 346 1
(0.125263 0.437369 0.33874 0.0986284) 176 350 1
(0.0346273 0.10099 0.482686 0.381696) 102 203 2
(0.0204101 0.198306 0.489795 0.291489) 248 345 1
(0.143807 0.428097 0.372686 0.0554105) 250 349 2
(0.14813 0.158414 0.267521 0.425935) 176 351 1
(0.169637 0.415181 0.0689325 0.346249) 177 353 2
(0.255891 0.372055 0.0953303 0.276724) 178 355 2
(0.389745 0.275291 0.0298362 0.305127) 179 357 1
(0.304402 0.132331 0.347799 0.215468) 254 357 1
(0.0979082 0.0686808 0.382365 0.451046) 181 358 2
(0.180277 0.409861 0.0158553 0.394006) 182 363 2
(0.230475 0.384763 0.205855 0.178907) 258 365 2
(0.252268 0.373866 0.0991433 0.274723) 259 367 2
(0.118531 0.440735 0.290318 0.150417) 185 369 2
(0.00481315 0.103845 0.393748 0.497593) 186 368 2
(4.2461e-08 0.499997 3.14547e-06 0.5) 225 7453 1
(4.24789e-08 0.499997 3.15857e-06 0.5) 225 7453 1
(3.09194e-08 0.5 0.0436509 0.456349) 150 7452 2
(4.24963e-08 0.5 0.153338 0.346662) 225 7453 2
(1.47935e-07 0.00129276 0.498707 0.5) 75 7451 1
(1.2525e-07 0.168584 0.331416 0.5) 75 7451 1
(3.11338e-08 0.5 0.0662533 0.433747) 150 7452 2
(1.16452e-07 0.208307 0.291693 0.5) 75 7451 1
(3.31774e-09 0.0876003 0.4124 0.5) 75 7451 1
(2.12506e-08 0.123778 0.376222 0.5) 75 7451 1
(0.0356613 0.172671 0.309499 0.482169) 75 7451 1
(0.145909 0.265313 0.161732 0.427046) 75 7451 1
(0.215055 0.282893 0.10958 0.392472) 75 7451 1
(0.302282 0.249311 0.0995484 0.348859) 75 7451 1
(0.178554 0.410723 0.148392 0.262331) 225 299 2
(0.378451 0.238531 0.0722435 0.310774) 75 7451 1
(0.092621 0.163706 0.45369 0.289984) 150 150 1
(0.615067 0.192466 0.186224 0.00624221) 150 298 1
(0.345599 0.00102402 0.3272 0.326176) 150 150 1
(0.0286867 0.427161 0.0584954 0.485657) 75 150 1
(0.42425 0.147084 0.14079 0.287875) 75 7451 1
(0.271352 0.364324 0.267302 0.0970221) 75 150 2
(0.455091 0.238621 0.0338337 0.272455) 75 7451 1
(0.00678713 0.496606 0.480161 0.0164451) 150 299 2
(0.504518 0.247741 0.245562 0.00217891) 75 7451 2
(0.412609 0.293695 0.0715745 0.222121) 75 150 2
(0.0290267 0.485487 0.168825 0.316662) 225 447 1
(0.377468 0.311266 0.148833 0.162433) 225 447 1
(0.0298756 0.485062 0.113938 0.371124) 225 447 1
(0.537542 0.0571837 0.174045 0.231229) 225 448 1
(0.061887 0.469056 0.364151 0.104905) 226 447 1
(0.196689 0.401656 0.218257 0.183399) 226 447 1
(0.206272 0.396864 0.206755 0.190109) 226 447 1
(0.132655 0.370492 0.433672 0.0631802) 225 447 2
(0.349608 0.325196 0.0951419 0.230054) 226 447 1
(0.239904 0.380048 0.267511 0.112537) 226 447 1
(0.0140572 0.492971 0.273245 0.219727) 301 450 2
(0.141932 0.429034 0.0485831 0.380451) 151 298 1
(0.075586 0.462207 0.255069 0.207138) 151 298 1
(0.360789 0.319605 0.190113 0.129492) 151 298 1
(0.235097 0.237885 0.144566 0.382452) 151 298 2
(0.366752 0.072098 0.244526 0.316624) 151 298 2
(0.0868214 0.456589 0.31772 0.13887) 151 301 2
(0.134613 0.283132 0.149561 0.432693) 151 301 1
(0.0974305 0.0639268 0.451285 0.387358) 151 300 2
(0.0947334 0.265476 0.452633 0.187157) 151 300 2
(0.1657 0.0558259 0.361324 0.41715) 152 300 2
(0.576418 0.211791 0.110372 0.101419) 152 303 2
(0.19016 0.0861218 0.40492 0.318798) 152 302 2
(0.323709 0.00694333 0.338146 0.331202) 153 304 2
(0.424998 0.287501 0.255668 0.0318327) 155 309 2
(0.327193 0.0237181 0.312686 0.336404) 156 311 1
(0.155588 0.166598 0.422206 0.255608) 232 313 1
(0.0405535 0.479723 0.288047 0.191676) 160 319 2
(0.678824 0.0556062 0.104982 0.160588) 235 465 2
(0.336756 0.331622 0.16392 0.167702) 236 470 2
(0.45729 0.271355 0.245615 0.0257397) 238 474 2
(0.0765526 0.12958 0.461724 0.332144) 239 475 2
(0.32212 0.33894 0.0193793 0.319561) 241 480 2
(0.372958 0.290739 0.313521 0.0227825) 242 333 1
(0.161081 0.36938 0.41946 0.0500795) 243 335 1
(0.0371575 0.0726278 0.481421 0.408793) 245 339 1
(0.805056 0.0974722 0.0101864 0.0872858) 246 490 2
(0.0789575 0.216488 0.460521 0.244033) 321 490 1
(0.262581 0.136757 0.231953 0.36871) 247 492 1
(0.181506 0.0201122 0.409247 0.389135) 248 493 2
(0.0597456 0.0245105 0.445617 0.470127) 250 495 2
(0.482709 0.258646 0.183024 0.0756213) 251 499 1
(0.10764 0.164207 0.44618 0.281973) 326 500 1
(0.380938 0.309531 0.189559 0.119972) 252 502 2
(0.269535 0.365233 0.0394072 0.325825) 253 504 2
(0.0370159 0.378615 0.481492 0.102877) 329 506 1
(0.373091 0.279183 0.0342713 0.313455) 255 508 1
(0.280895 0.359553 0.256733 0.102819) 256 510 2
(0.199734 0.400133 0.341401 0.0587319) 257 512 2
(4.23512e-08 0.499989 1.10707e-05 0.5) 300 7454 1
(4.23808e-08 0.499989 1.12275e-05 0.5) 300 7454 1
(0.00566366 0.497168 0.0243602 0.472808) 225 7453 2
(3.68071e-08 0.5 0.161487 0.338513) 300 7454 2
(0.00492211 0.497539 0.0106622 0.486877) 225 7453 2
(0.207941 0.39603 0.0358063 0.360223) 150 299 2
(0.00418627 0.497907 0.146641 0.351266) 225 7453 2
(0.228145 0.385928 0.367734 0.018194) 225 299 2
(0.395197 0.0648048 0.302402 0.237597) 225 299 1
(0.803197 0.0984016 0.0820299 0.0163717) 150 298 1
(0.406868 0.296566 0.291462 0.00510436) 225 447 1
(0.315535 0.342233 0.285076 0.057157) 225 447 1
(0.255503 0.372248 0.266406 0.105843) 225 447 1
(0.154401 0.422799 0.281523 0.141276) 225 447 1
(0.131743 0.434128 0.273692 0.160436) 225 447 1
(0.0977023 0.451149 0.269496 0.181653) 225 447 1
(0.0906191 0.45469 0.255129 0.199562) 225 447 1
(0.0531005 0.47345 0.279896 0.193554) 225 447 1
(0.992867 0.00356629 0.000968995 0.00259729) 225 448 2
(0.607424 0.196288 0.177782 0.0185058) 150 298 1
(0.168215 0.415892 0.210049 0.205843) 225 447 1
(0.238875 0.380563 0.210412 0.170151) 225 447 1
(3.68457e-08 0.5 0.0732445 0.426755) 300 7454 2
(4.21761e-08 0.5 0.27584 0.22416) 300 7454 2
(0.00152152 0.499239 0.404345 0.0948939) 300 7454 2
(0.697795 0.151102 0.0771932 0.0739091) 300 448 2
(0.702383 0.148808 0.0642392 0.0845693) 300 597 2
(0.702071 0.148965 0.0458921 0.103073) 300 596 1
(0.476034 0.184657 0.261983 0.0773265) 300 596 2
(0.0473768 0.476312 0.465137 0.011175) 376 599 2
(0.182469 0.369134 0.0396322 0.408766) 301 596 2
(0.132389 0.130359 0.303446 0.433805) 301 596 2
(0.229233 0.140304 0.24508 0.385383) 301 596 2
(0.302475 0.101021 0.247741 0.348762) 301 596 2
(0.186493 0.406753 0.108775 0.297978) 301 599 2
(0.392178 0.228955 0.0749565 0.303911) 301 596 2
(0.193426 0.403287 0.157855 0.245432) 376 599 2
(0.0521716 0.473914 0.0730206 0.400894) 376 599 2
(0.64731 0.000268299 0.176345 0.176077) 301 598 2
(0.687427 0.156287 0.0274079 0.128879) 226 450 2
(0.819713 0.0901436 0.000698253 0.0894454) 301 450 2
(0.0258094 0.439796 0.0472992 0.487095) 226 450 1
(0.770935 0.0510566 0.0634759 0.114533) 226 450 1
(0.611936 0.152902 0.194032 0.0411304) 226 449 2
(0.115921 0.174071 0.442039 0.267969) 226 449 2
(0.0448299 0.181717 0.477585 0.295868) 226 449 2
(0.339471 0.330265 0.0290329 0.301232) 227 452 2
(0.573646 0.213177 0.163285 0.0498916) 227 452 2
(0.299802 0.112579 0.350099 0.23752) 227 451 2
(0.361902 0.29106 0.0279895 0.319049) 228 454 1
(0.46033 0.187473 0.0823617 0.269835) 229 456 1
(0.315722 0.0792161 0.262923 0.342139) 230 458 1
(0.154281 0.0524525 0.422859 0.370407) 231 459 2
(0.416201 0.165428 0.126472 0.291899) 233 464 1
(0.251839 0.332932 0.374081 0.0411483) 310 468 1
(0.266 0.267006 0.367 0.0999938) 312 620 2
(0.396659 0.0353558 0.266315 0.301671) 313 623 1
(0.42659 0.0389172 0.247788 0.286705) 314 625 1
(0.353945 0.0535537 0.269474 0.323028) 315 627 1
(0.287254 0.0617064 0.356373 0.294666) 316 628 2
(0.383654 0.0153858 0.308173 0.292787) 317 630 2
(0.41647 0.156753 0.135012 0.291765) 318 633 1
(0.363 0.3185 0.227481 0.0910189) 319 635 2
(0.302302 0.348849 0.0898558 0.258993) 320 637 2
(0.151824 0.00915175 0.414936 0.424088) 321 639 1
(0.225765 0.267659 0.119459 0.387118) 322 641 1
(0.275508 0.362246 0.186429 0.175817) 323 643 2
(0.266892 0.003237 0.363317 0.366554) 324 642 2
(0.0793263 0.0824698 0.377867 0.460337) 325 644 2
(0.208389 0.395805 0.0172467 0.378559) 326 649 2
(0.276498 0.361751 0.290618 0.0711324) 327 651 2
(0.281819 0.359091 0.0860258 0.273065) 328 653 2
(0.255389 0.372305 0.328123 0.044182) 329 655 2
(0.60037 0.186673 0.0131413 0.199815) 330 654 2
(0.446975 0.216888 0.0596246 0.276512) 331 659 1
(4.22141e-08 0.499959 4.1286e-05 0.5) 375 7455 1
(4.22626e-08 0.499958 4.16129e-05 0.5) 375 7455 1
(0.000615727 0.499692 0.0536123 0.44608) 300 7454 2
(4.23082e-08 0.5 0.167307 0.332693) 375 7455 2
(0.314103 0.342949 0.149179 0.193769) 225 299 2
(0.000244022 0.499878 0.0125845 0.487293) 300 7454 2
(0.326839 0.33658 0.117549 0.219031) 225 299 2
(0.000702282 0.499649 0.088396 0.411253) 300 7454 2
(0.0663978 0.466801 0.0900585 0.376743) 300 7454 2
(0.468325 0.265837 0.213614 0.0522232) 300 448 2
(0.459434 0.270283 0.108508 0.161775) 300 448 2
(0.472274 0.263863 0.0596033 0.20426) 300 448 2
(0.474101 0.220226 0.26295 0.0427234) 300 448 1
(0.476647 0.261676 0.184899 0.0767777) 300 596 1
(0.344562 0.327719 0.136944 0.190775) 300 596 1
(0.310517 0.344742 0.12745 0.217291) 300 596 1
(0.295442 0.352279 0.127459 0.22482) 300 596 1
(0.299744 0.350128 0.144646 0.205483) 300 596 1
(0.293939 0.35303 0.149683 0.203348) 300 596 1
(0.315339 0.34233 0.172497 0.169833) 300 596 1
(0.307224 0.346388 0.152917 0.193471) 300 596 1
(0.302431 0.348784 0.149882 0.198902) 300 596 1
(0.0347693 0.482615 0.0938997 0.388716) 375 597 2
(3.4909e-08 0.263204 0.236796 0.5) 375 7455 1
(3.54143e-08 0.253843 0.246157 0.5) 375 7455 1
(3.58878e-08 0.286327 0.213673 0.5) 375 7455 1
(0.544214 0.0265841 0.201309 0.227893) 375 7455 1
(0.682103 0.0382048 0.120744 0.158949) 375 7455 1
(0.16168 0.41916 0.397432 0.0217277) 450 746 2
(0.0271821 0.157833 0.328576 0.486409) 376 745 2
(0.21315 0.393425 0.0439586 0.349466) 450 746 2
(0.0347434 0.482628 0.00632627 0.476302) 450 746 2
(0.0885257 0.00485447 0.450883 0.455737) 376 745 2
(0.00158567 0.291071 0.208137 0.499207) 375 746 1
(0.20349 0.382971 0.0152843 0.398255) 376 745 2
(0.294492 0.352754 0.352151 0.000602783) 376 599 2
(0.500857 0.249572 0.24331 0.00626141) 376 745 1
(0.468598 0.265701 0.00503004 0.260671) 376 745 1
(0.247688 0.376156 0.0329719 0.343184) 376 599 2
(0.325823 0.219253 0.337089 0.117836) 376 599 1
(0.31588 0.072928 0.34206 0.269132) 301 598 2
(0.0128922 0.484677 0.00887707 0.493554) 302 598 2
(0.428008 0.0817005 0.204295 0.285996) 302 598 2
(0.244402 0.356815 0.0209839 0.377799) 302 601 1
(0.57572 0.0305165 0.21214 0.181624) 302 600 2
(0.502378 0.248811 0.152952 0.0958595) 303 603 2
(0.484168 0.257916 0.0562316 0.201685) 304 605 2
(0.333307 0.0618697 0.271477 0.333347) 305 604 2
(0.0870569 0.136282 0.456472 0.32019) 305 606 2
(0.360754 0.149861 0.169762 0.319623) 306 609 1
(0.315734 0.342133 0.19343 0.148703) 307 611 2
(0.138643 0.0953159 0.335363 0.430679) 308 610 2
(0.175952 0.051037 0.412024 0.360987) 308 612 2
(0.00376098 0.119914 0.49812 0.378205) 309 614 2
(0.0757798 0.337284 0.46211 0.124826) 387 621 1
(0.129294 0.167532 0.267821 0.435353) 389 771 2
(0.534747 0.00416544 0.232626 0.228461) 389 773 2
(0.46041 0.269795 0.229927 0.0398685) 390 776 2
(0.433473 0.0223797 0.260884 0.283264) 391 775 2
(0.0332945 0.203311 0.483353 0.280042) 391 777 2
(0.394992 0.0326314 0.269872 0.302504) 392 780 1
(0.368545 0.265078 0.0506499 0.315727) 393 782 1
(0.302793 0.348603 0.264622 0.0839816) 394 784 2
(0.277983 0.361008 0.329907 0.0311011) 395 786 2
(0.232585 0.272074 0.111634 0.383708) 396 788 1
(0.213562 0.17097 0.222249 0.393219) 397 790 1
(0.231851 0.0173302 0.366744 0.384074) 398 792 1
(0.317139 0.34143 0.0126104 0.32882) 400 796 2
(0.0400352 0.217241 0.262741 0.479982) 401 795 2
(0.391928 0.124855 0.304036 0.179181) 401 797 2
(0.112006 0.443997 0.0331861 0.410811) 477 946 1
(0.019773 0.490114 0.488044 0.00206987) 477 948 1
(0.0289269 0.0702505 0.485537 0.415286) 478 802 1
(0.0146408 0.486782 0.00589794 0.49268) 404 804 1
(0.263756 0.0721429 0.295979 0.368122) 405 803 2
(3.76755e-08 0.5 0.499089 0.000911018) 450 7456 2
(3.78355e-08 0.5 0.499156 0.000843575) 450 7456 2
(0.295773 0.352114 0.192669 0.159445) 300 7454 2
(3.79905e-08 0.5 0.13699 0.36301) 450 7456 2
(7.25561e-09 0.5 0.0280459 0.471954) 375 7455 2
(9.77319e-09 0.5 0.115378 0.384622) 375 7455 2
(1.20217e-08 0.5 0.168711 0.331289) 375 7455 2
(1.40467e-08 0.5 0.148449 0.351551) 375 7455 2
(1.59141e-08 0.5 0.0963882 0.403612) 375 7455 2
(0.27225 0.363875 0.230001 0.133874) 300 7454 2
(0.40629 0.296855 0.0815904 0.215265) 375 7455 2
(0.545171 0.227415 0.0212807 0.206134) 375 7455 2
(0.534982 0.232509 0.0561638 0.176345) 375 7455 2
(0.658375 0.170812 0.0474942 0.123318) 375 597 2
(0.758963 0.0653462 0.0551723 0.120518) 375 746 1
(0.638388 0.127497 0.180806 0.0533086) 375 745 2
(0.497186 0.149503 0.251407 0.101903) 375 745 2
(0.384689 0.200429 0.307655 0.107226) 375 745 2
(0.309264 0.108301 0.237067 0.345368) 375 746 1
(0.371611 0.0246068 0.314194 0.289588) 375 745 2
(0.241571 0.269161 0.379215 0.110054) 375 745 2
(0.278497 0.130886 0.360751 0.229865) 375 745 2
(0.30602 0.036073 0.34699 0.310917) 375 745 2
(0.666133 0.111962 0.166934 0.0549719) 450 746 1
(0.169137 0.415431 0.373497 0.0419348) 450 7456 2
(0.300248 0.190306 0.159571 0.349876) 450 895 1
(0.30061 0.0745729 0.349695 0.275122) 450 894 2
(0.031345 0.0124689 0.471859 0.484328) 375 746 1
(0.156414 0.0152302 0.406563 0.421793) 451 894 2
(0.139352 0.0328055 0.397518 0.430324) 451 894 2
(0.594006 0.202997 0.0145363 0.188461) 376 748 2
(0.479841 0.251601 0.26008 0.00847873) 451 748 1
(0.584869 0.207566 0.167997 0.0395682) 451 748 2
(0.675057 0.145083 0.162472 0.017389) 451 748 1
(0.52547 0.237265 0.203414 0.0338505) 451 748 2
(0.112289 0.443855 0.300246 0.143609) 451 896 1
(0.267486 0.0144827 0.366257 0.351775) 451 748 1
(0.126006 0.436997 0.42856 0.00843635) 451 896 1
(0.0430398 0.47848 0.469786 0.008694) 451 896 1
(0.0838397 0.062768 0.45808 0.395312) 376 747 2
(0.0235062 0.0817036 0.488247 0.406543) 376 747 2
(0.0241418 0.229191 0.487929 0.258738) 376 599 1
(0.0815788 0.459211 0.39953 0.0596803) 376 747 1
(0.64093 0.179535 0.111226 0.0683091) 377 747 1
(0.470298 0.00235887 0.262492 0.264851) 377 750 1
(0.611955 0.194023 0.0762641 0.117759) 378 752 2
(0.54321 0.228395 0.0411622 0.187233) 379 754 2
(0.425904 0.287048 0.203525 0.0835228) 380 756 2
(0.368766 0.315617 0.243316 0.072301) 381 758 2
(0.281933 0.359033 0.261556 0.0974776) 382 760 2
(0.266537 0.366731 0.233546 0.133186) 383 762 2
(0.281671 0.359164 0.167063 0.192101) 384 764 2
(0.221377 0.389312 0.175696 0.213616) 385 766 2
(0.553645 0.206976 0.223177 0.016201) 386 767 2
(0.340434 0.329783 0.228725 0.101058) 388 772 2
(0.431555 0.284223 0.120786 0.163436) 465 925 2
(0.155844 0.138869 0.283209 0.422078) 466 924 2
(0.381633 0.0254275 0.283756 0.309184) 466 927 1
(0.406137 0.296931 0.269045 0.0278866) 467 929 2
(0.0339753 0.232335 0.250677 0.483012) 468 928 2
(0.271961 0.364019 0.0203262 0.343693) 543 931 2
(0.0759742 0.462013 0.02039 0.441623) 544 933 2
(0.402728 0.298636 0.110782 0.187854) 470 935 2
(0.475884 0.262058 0.0736758 0.188382) 471 937 2
(0.190427 0.404787 0.160047 0.244739) 472 939 2
(0.0419555 0.479022 0.0679329 0.411089) 548 941 2
(0.111883 0.444059 0.23468 0.209378) 549 943 2
(0.374631 0.164554 0.312685 0.14813) 549 943 1
(0.428137 0.285931 0.0017701 0.284161) 475 945 2
(0.219754 0.0978882 0.390123 0.292235) 475 944 2
(0.00573215 0.497134 0.292112 0.205022) 550 1093 1
(0.271357 0.0488161 0.364322 0.315505) 551 947 1
(0.290695 0.304058 0.354653 0.0505944) 552 949 1
(0.303146 0.348427 0.198791 0.149637) 553 951 2
(0.348626 0.325687 0.227906 0.0977812) 479 953 2
(4.25357e-08 0.5 0.5 1.27151e-07) 525 7457 2
(4.25475e-08 0.5 0.5 1.27429e-07) 525 7457 2
(1.71912e-08 0.5 0.0438192 0.456181) 450 7456 2
(4.25589e-08 0.5 0.0999981 0.400002) 525 7457 2
(1.79839e-08 0.5 0.0112346 0.488765) 450 7456 2
(0.596844 0.201578 0.029145 0.172433) 450 746 2
(0.0653118 0.467344 0.153422 0.313922) 375 597 2
(0.613081 0.146841 0.19346 0.0466186) 450 746 1
(0.621709 0.0861389 0.189145 0.103007) 450 746 1
(0.283082 0.1121 0.246358 0.358459) 375 7455 1
(0.197369 0.204444 0.401316 0.196872) 450 894 2
(0.166367 0.210073 0.416817 0.206744) 450 894 2
(0.156714 0.201444 0.421643 0.220199) 450 894 2
(0.152307 0.203371 0.423846 0.220475) 450 894 2
(0.14965 0.161221 0.425175 0.263954) 450 894 2
(0.15314 0.17434 0.42343 0.24909) 450 894 2
(4.25699e-08 0.5 0.0480332 0.451967) 525 7457 2
(0.290126 0.354937 0.216839 0.138098) 525 895 2
(0.388566 0.129513 0.305717 0.176204) 525 895 1
(0.150863 0.181582 0.424568 0.242986) 450 894 2
(0.157075 0.170845 0.421463 0.250618) 450 894 2
(0.177535 0.197695 0.411232 0.213537) 450 894 2
(0.196427 0.201543 0.401787 0.200243) 450 894 2
(0.373785 0.0457803 0.313107 0.267327) 525 895 1
(0.286844 0.0981514 0.356578 0.258427) 525 1043 2
(0.310384 0.0917329 0.344808 0.253075) 525 1043 2
(0.402186 0.0589472 0.298907 0.23996) 525 1043 2
(4.19179e-08 0.5 0.186616 0.313384) 600 7458 2
(4.20248e-08 0.5 0.0998353 0.400165) 600 7458 2
(0.321663 0.339168 0.116338 0.22283) 526 897 2
(0.450414 0.274793 0.0522871 0.222506) 526 897 2
(0.236472 0.381764 0.356268 0.0254961) 600 1044 2
(0.66308 0.16846 0.0600964 0.108363) 526 897 2
(0.328766 0.327123 0.335617 0.00849373) 526 897 1
(0.0186723 0.1597 0.330963 0.490664) 452 896 2
(0.249385 0.138773 0.375307 0.236534) 451 896 2
(0.00273335 0.498633 0.0335191 0.465114) 527 1045 1
(0.0280081 0.0131633 0.472833 0.485996) 452 896 2
(0.146791 0.320948 0.426604 0.105657) 526 1045 2
(0.0168848 0.117731 0.373826 0.491558) 452 896 2
(0.329216 0.335392 0.042053 0.293339) 527 1045 1
(0.306469 0.346766 0.341854 0.00491124) 452 750 2
(0.824257 0.0878715 0.036148 0.0517234) 452 896 1
(0.443254 0.0729161 0.205457 0.278373) 452 899 1
(0.357239 0.254574 0.0668062 0.32138) 453 898 2
(0.19634 0.28766 0.11417 0.40183) 454 900 2
(0.444467 0.118701 0.159066 0.277766) 455 902 2
(0.505895 0.247052 0.0632815 0.183771) 456 907 2
(0.314967 0.342517 0.337719 0.00479731) 457 909 2
(0.273166 0.12887 0.234547 0.363417) 458 911 1
(0.222845 0.388578 0.147382 0.241196) 460 915 2
(0.371593 0.157123 0.314204 0.15708) 536 917 1
(0.189121 0.101602 0.405439 0.303838) 461 916 2
(0.264264 0.00994643 0.367868 0.357921) 462 918 2
(0.26475 0.116669 0.250956 0.367625) 463 921 1
(0.303557 0.280916 0.0673057 0.348222) 464 923 1
(0.446116 0.086205 0.190737 0.276942) 540 1071 2
(0.156188 0.151838 0.270068 0.421906) 541 1073 2
(0.283853 0.170272 0.187802 0.358073) 541 1076 1
(0.41623 0.291885 0.00598362 0.285901) 542 1078 2
(0.320658 0.255596 0.339671 0.0840749) 617 1078 1
(0.259503 0.370249 0.266493 0.103756) 618 1080 2
(0.0282269 0.485887 0.121077 0.364809) 619 1228 1
(0.0655918 0.16283 0.304374 0.467204) 545 1081 2
(0.232319 0.383841 0.13754 0.2463) 620 1084 2
(0.283658 0.358171 0.256437 0.101735) 546 1086 2
(0.418957 0.282121 0.00840035 0.290521) 547 1088 1
(0.230783 0.384608 0.362767 0.0218414) 622 1236 1
(0.292149 0.274816 0.353926 0.0791092) 623 1090 1
(0.290082 0.354959 0.181484 0.173475) 624 1092 2
(0.114815 0.442593 0.0991497 0.343443) 625 1240 1
(0.152145 0.423928 0.365281 0.0586461) 625 1242 1
(0.195746 0.402127 0.0755809 0.326546) 627 1098 2
(0.265727 0.367136 0.124704 0.242433) 628 1100 2
(0.568723 0.215639 0.00209857 0.21354) 554 1099 1
(3.83083e-08 0.499268 0.000732259 0.5) 600 7458 1
(3.87514e-08 0.499335 0.000665116 0.5) 600 7458 1
(4.8999e-11 0.5 0.134552 0.365448) 525 7457 2
(3.91532e-08 0.5 0.0297466 0.470253) 600 7458 2
(0.150443 0.424779 0.157652 0.267127) 525 895 2
(0.00464878 0.497676 0.447422 0.0502536) 525 895 2
(0.0146493 0.427833 0.492675 0.0648421) 525 895 1
(0.249432 0.191515 0.375284 0.183769) 525 1043 2
(0.195254 0.402373 0.0106901 0.391683) 525 895 2
(0.227342 0.197217 0.386329 0.189113) 525 1043 2
(0.234858 0.179342 0.382571 0.203229) 525 1043 2