/*--------------------------------*- C++ -*----------------------------------*\
  =========                 |
  \\      /  F ield         | OpenFOAM: The Open Source CFD Toolbox
   \\    /   O peration     | Website:  https://openfoam.org
    \\  /    A nd           | Version:  12
     \\/     M anipulation  |
\*---------------------------------------------------------------------------*/
FoamFile
{
    format      ascii;
    class       vectorField;
    location    "0.95/lagrangian/cloud";
    object      U;
}
// * * * * * * * * * * * * * * * * * * * * * * * * * * * * * * * * * * * * * //


5871
(
(-2.72562e-10 -2.14609e-05 0)
(-2.34681e-10 -2.16407e-05 0)
(-2.02003e-10 -2.17898e-05 0)
(-1.73827e-10 -2.19135e-05 0)
(-1.49545e-10 -2.20159e-05 0)
(-1.28629e-10 -2.21009e-05 0)
(-1.10619e-10 -2.21713e-05 0)
(-9.5118e-11 -2.22297e-05 0)
(-8.1782e-11 -2.22781e-05 0)
(-7.03128e-11 -2.23182e-05 0)
(-0.000976537 -0.00053764 0)
(-0.00142694 -0.000632263 0)
(-0.00173475 -0.000725262 0)
(-0.00176205 -0.000813955 0)
(-0.000480947 -0.000880172 0)
(-0.000462598 -0.000965267 0)
(-0.000964492 -0.00105919 0)
(0.000382651 -0.00135323 0)
(-0.000210901 -0.00568965 0)
(0.00264728 0.0010384 0)
(-0.00701964 0.0049121 0)
(-0.00125209 0.00339169 0)
(-0.000280914 0.000857548 0)
(-0.0056635 0.00788445 0)
(-0.00613847 0.00509569 0)
(-0.00564182 0.00515207 0)
(0.000601597 -0.00217269 0)
(-0.0068176 -0.00353049 0)
(-0.000999554 -0.00476453 0)
(0.00141528 -0.00689222 0)
(0.000571558 -0.02498 0)
(0.00127935 -0.0305212 0)
(0.000226238 -0.0290672 0)
(-0.000199945 -0.0300427 0)
(0.000365732 -0.0284658 0)
(-0.00116376 -0.0275069 0)
(7.77166e-05 -0.0217742 0)
(0.000153226 -0.0281378 0)
(-0.000685731 -0.025555 0)
(-0.00123436 -0.0266468 0)
(-0.0005157 -0.025532 0)
(0.000159087 -0.0277013 0)
(-0.000855568 -0.029061 0)
(-0.000528603 -0.0299007 0)
(-0.000696497 -0.029998 0)
(0.000820527 -0.0309913 0)
(-0.000976381 -0.0231614 0)
(0.000967166 -0.0223252 0)
(9.57716e-05 -0.018491 0)
(-0.000334831 -0.025029 0)
(-0.00185859 -0.0258068 0)
(-0.000180298 -0.0229587 0)
(-0.000535352 -0.0210639 0)
(-0.000289117 -0.0166882 0)
(0.000621015 -0.0210493 0)
(-0.000385849 -0.018082 0)
(-0.000826619 -0.0257251 0)
(-0.00124443 -0.0270824 0)
(0.000199948 -0.028094 0)
(-0.000482192 -0.0240293 0)
(-5.26194e-05 -0.0212573 0)
(-0.000266035 -0.0229053 0)
(0.000243015 -0.0222352 0)
(-4.70467e-05 -0.0191313 0)
(-0.00191805 -0.0121698 0)
(-0.00033156 -0.0135032 0)
(-0.000422423 -0.0135759 0)
(0.000394512 -0.0247184 0)
(-0.000163556 -0.0241916 0)
(2.51382e-05 -0.0227845 0)
(3.52155e-05 -0.0212499 0)
(0.00213272 -0.0164059 0)
(0.00215002 -0.0219624 0)
(0.00154122 -0.0138988 0)
(0.00198404 -0.0154828 0)
(-7.0481e-08 -1.91551e-05 0)
(-1.26581e-07 -1.949e-05 0)
(3.92327e-06 -4.74256e-05 0)
(3.1532e-06 -3.59574e-05 0)
(-0.00209887 -0.000975807 0)
(-0.00734234 -0.00100124 0)
(-0.0114153 -0.00100648 0)
(-0.00409895 -0.000700724 0)
(-1.65708e-07 -7.62355e-06 0)
(-0.00460009 -0.000479151 0)
(-0.00835879 0.00159851 0)
(-2.37e-07 -2.49392e-05 0)
(-2.52121e-07 -1.87897e-05 0)
(-2.81305e-07 -2.1536e-05 0)
(-0.00365629 -0.000371178 0)
(-3.04314e-07 -2.43117e-05 0)
(-3.38774e-07 -2.23951e-05 0)
(-3.85294e-07 -2.72812e-05 0)
(-0.00126915 -0.000204235 0)
(0.000452741 -0.0014407 0)
(-0.0222745 0.0053432 0)
(-0.0028762 -0.00382198 0)
(-0.0130153 0.00587277 0)
(-0.0104168 0.0061704 0)
(-0.0087551 0.00708767 0)
(-0.00549694 0.00500112 0)
(-0.00351953 0.00183183 0)
(-0.00330094 0.00122606 0)
(0.000178464 -0.00108337 0)
(-0.0011692 -0.00140379 0)
(0.00314529 -0.00750111 0)
(-0.00318841 -0.00115619 0)
(-0.00767302 0.00364629 0)
(0.00198869 -0.00198458 0)
(0.00267537 -0.00514413 0)
(0.00336106 -0.0041369 0)
(0.000833599 -0.0302683 0)
(0.000717676 -0.0287874 0)
(-0.00153044 -0.0256358 0)
(-0.000119917 -0.027971 0)
(-0.00220813 -0.0224727 0)
(-9.64439e-05 -0.0239303 0)
(-0.000869216 -0.0346441 0)
(-7.91536e-05 -0.0331747 0)
(-0.00278306 -0.022158 0)
(-6.83848e-05 -0.025 0)
(0.000603819 -0.0210523 0)
(-0.000306486 -0.0213186 0)
(0.000388005 -0.0229393 0)
(0.000179354 -0.0216821 0)
(-0.000281449 -0.0233847 0)
(-0.000593431 -0.0280706 0)
(-0.000323191 -0.0269273 0)
(-0.000853547 -0.0257165 0)
(0.00166059 -0.0220499 0)
(0.000501793 -0.0219214 0)
(9.09484e-05 -0.0246826 0)
(0.00192284 -0.0289259 0)
(-0.00179882 -0.0281867 0)
(0.000912223 -0.0212335 0)
(-0.000465463 -0.023109 0)
(-0.00057723 -0.0177596 0)
(0.00184634 -0.0281839 0)
(-0.00115029 -0.0246274 0)
(0.000897803 -0.0301716 0)
(0.0022483 -0.0252637 0)
(0.00174033 -0.0266219 0)
(0.00102125 -0.0245809 0)
(0.000553764 -0.023882 0)
(-0.00120145 -0.0268012 0)
(-0.000300738 -0.0228967 0)
(0.00277131 -0.0130935 0)
(-0.00386222 -0.016775 0)
(-0.00296051 -0.0191357 0)
(-0.00494823 -0.0203264 0)
(1.71053e-11 -2.20111e-05 0)
(1.68104e-11 -2.20131e-05 0)
(-3.60572e-07 -1.91725e-05 0)
(1.65205e-11 -2.20151e-05 0)
(-2.77315e-07 2.72411e-06 0)
(-4.04875e-07 -2.49111e-05 0)
(-3.85597e-07 -2.31613e-05 0)
(-3.49439e-07 -1.47508e-05 0)
(-0.00114 0.000912531 0)
(-1.94225e-06 1.45786e-06 0)
(-1.78889e-06 -1.08988e-05 0)
(-0.00165794 0.00157967 0)
(-4.97837e-06 -2.95242e-05 0)
(-0.00303741 -0.0014231 0)
(0.0070579 -0.0146855 0)
(0.000642722 -0.000479092 0)
(0.00359495 -0.00691109 0)
(-3.2725e-06 -5.08038e-06 0)
(-0.00186541 0.00129613 0)
(-0.0177439 -0.000246873 0)
(0.000514974 0.00111836 0)
(-0.00121618 0.00165391 0)
(-0.0147085 0.0016646 0)
(-0.0128727 0.00322215 0)
(-0.013108 0.00177196 0)
(0.00517535 -0.00626102 0)
(-0.0169748 0.0240732 0)
(0.00243478 -0.00202694 0)
(-0.00912108 0.00489078 0)
(-0.0137712 0.00772415 0)
(-0.00811769 0.00510695 0)
(0.000698924 -0.00872842 0)
(-0.0180124 0.0173451 0)
(0.00429269 -0.00515272 0)
(0.0040113 -0.000213419 0)
(-0.00306087 0.0045421 0)
(0.00126054 0.00172253 0)
(0.00852233 -0.00771831 0)
(0.00592986 -0.00373765 0)
(0.00345495 -0.00577203 0)
(0.00518492 -0.00563505 0)
(0.00055232 -0.0100117 0)
(0.000331396 -0.0181479 0)
(0.00146751 -0.0325329 0)
(-0.00152483 -0.03609 0)
(0.00053931 -0.0363274 0)
(0.000283501 -0.0338406 0)
(0.000912994 -0.0348271 0)
(0.00158501 -0.0298797 0)
(-0.00101615 -0.022623 0)
(-0.00124843 -0.0363944 0)
(0.000637454 -0.0348252 0)
(-0.00144829 -0.0253119 0)
(-0.000200335 -0.0367653 0)
(-0.00226262 -0.0395281 0)
(-0.00169765 -0.0342693 0)
(-0.000426977 -0.0322518 0)
(-0.000653147 -0.0328478 0)
(-0.000868874 -0.0318752 0)
(0.000778534 -0.0294258 0)
(-0.000532585 -0.0256724 0)
(0.00203007 -0.0244997 0)
(0.00114372 -0.0332214 0)
(-9.6517e-06 -0.0325237 0)
(-0.000452261 -0.0306825 0)
(0.00038553 -0.0293111 0)
(0.00215311 -0.0348932 0)
(-1.63324e-06 -0.0355907 0)
(-0.000365642 -0.0368422 0)
(-0.00179622 -0.0349162 0)
(-5.70998e-05 -0.0321659 0)
(7.82533e-05 -0.0353018 0)
(0.00182965 -0.0340322 0)
(0.00299185 -0.0339108 0)
(0.00228199 -0.0331576 0)
(-6.20375e-13 -2.19285e-05 0)
(-5.98149e-13 -2.19377e-05 0)
(-1.65604e-05 -1.59559e-05 0)
(-5.76716e-13 -2.19467e-05 0)
(-0.000165838 -7.66603e-05 0)
(-0.000130631 -6.52029e-05 0)
(-1.62682e-05 -1.60664e-05 0)
(-0.000104646 -6.08703e-05 0)
(-8.53239e-05 -6.13884e-05 0)
(-5.09394e-05 -8.30624e-06 0)
(-0.00107818 0.000692041 0)
(-0.00366032 0.00420385 0)
(-0.00530105 0.00631176 0)
(-0.00737655 0.00897982 0)
(-0.00106285 -0.00524713 0)
(-0.00920834 0.0112441 0)
(-0.00180452 -0.00331681 0)
(0.0042092 -0.0146573 0)
(0.00067936 -0.000103536 0)
(0.000752879 -0.00133157 0)
(-0.0105292 0.012343 0)
(-0.0060804 0.00666197 0)
(-0.01141 0.0128677 0)
(-0.000683847 -0.00763646 0)
(-0.0126329 0.0141968 0)
(-0.0103054 0.0107701 0)
(0.00309091 -0.0103588 0)
(0.000683014 -0.00915559 0)
(0.00251656 -0.00857496 0)
(0.00372529 -0.00918445 0)
(0.000145683 -0.0114917 0)
(0.00208549 -0.0115017 0)
(0.00216291 -0.0121995 0)
(-0.000281795 -0.00662497 0)
(0.00236728 -0.0109279 0)
(-0.00128252 -0.0114966 0)
(-0.00287946 -0.0106953 0)
(-0.00172284 -0.00351703 0)
(-0.00016274 -0.00261025 0)
(0.00249225 -0.00700805 0)
(-0.0102054 -0.0145988 0)
(-0.00319752 -0.0164725 0)
(0.0107551 -0.0101521 0)
(0.0108361 -0.00951827 0)
(0.00135222 -0.00941081 0)
(0.00250645 -0.00828588 0)
(0.00581305 -0.0111367 0)
(-0.0048483 -0.0171428 0)
(0.000494686 -0.0291054 0)
(-0.000761514 -0.0421727 0)
(-0.00150418 -0.0422564 0)
(-0.000609381 -0.0413578 0)
(-0.000343599 -0.0391264 0)
(0.00010839 -0.038988 0)
(0.000323473 -0.0418772 0)
(0.000993422 -0.03782 0)
(0.000780086 -0.039447 0)
(-0.000761474 -0.0398352 0)
(-0.000688332 -0.0395632 0)
(0.00083663 -0.0355777 0)
(0.00112154 -0.0369618 0)
(-0.00219009 -0.035379 0)
(0.000962282 -0.0344121 0)
(-0.000607042 -0.0367692 0)
(-0.000459322 -0.0398352 0)
(0.00047222 -0.0373695 0)
(0.000545685 -0.0380608 0)
(0.000319549 -0.0354762 0)
(0.000478676 -0.0390343 0)
(-0.000160353 -0.0391018 0)
(0.000764611 -0.039929 0)
(-0.000938242 -0.0378223 0)
(-0.000143548 -0.0393162 0)
(-0.00124472 -0.0401151 0)
(-0.00158223 -0.0402124 0)
(-3.30944e-11 -2.18839e-05 0)
(-3.15778e-11 -2.18992e-05 0)
(8.2791e-05 0.00154332 0)
(-1.13586e-09 -1.86895e-05 0)
(8.14625e-05 0.00142872 0)
(-0.00161692 -0.00663018 0)
(8.01807e-05 0.00131536 0)
(-0.000273543 -0.00275061 0)
(0.000410982 -0.00697403 0)
(0.00689543 -0.0188329 0)
(0.000412928 -0.00692955 0)
(0.00288662 -0.00649341 0)
(0.00322698 -0.0059394 0)
(0.00360548 -0.00555995 0)
(0.00359462 -0.00496639 0)
(0.00365288 -0.00444999 0)
(0.00349289 -0.00380608 0)
(0.003927 -0.00362949 0)
(-0.00224874 -0.00814901 0)
(0.00626535 -0.0252899 0)
(0.00287926 -0.00244102 0)
(0.00220116 -0.00178072 0)
(-2.20042e-09 -1.87101e-05 0)
(-3.92136e-09 -2.17769e-05 0)
(-0.000895294 -0.00217812 0)
(-0.00907838 -0.0142415 0)
(-0.00489678 -0.00960906 0)
(-0.0095371 -0.0110634 0)
(-0.00777367 -0.00905746 0)
(-0.00860438 -0.00415053 0)
(-0.00205268 -0.00542459 0)
(-0.00185081 -0.00390226 0)
(-0.00173468 -0.00442591 0)
(-0.00130999 -0.00823914 0)
(-0.00538175 -0.000903229 0)
(-0.00166546 -0.00827616 0)
(-0.000628458 -0.00215088 0)
(1.38643e-05 -0.00139735 0)
(0.000176093 -0.006402 0)
(-0.00350707 -0.00917544 0)
(0.00015778 -0.00904261 0)
(-0.000392357 -0.0107518 0)
(-0.00148948 -0.0158209 0)
(-0.00282468 -0.00985183 0)
(-0.000507012 -0.00870307 0)
(-0.000229326 -0.00415233 0)
(0.00197436 -0.0169646 0)
(0.00185339 -0.0203221 0)
(-0.00117174 -0.0243373 0)
(0.000849773 -0.0363018 0)
(-8.99755e-05 -0.0419004 0)
(-0.00185421 -0.0407469 0)
(0.000285595 -0.0406816 0)
(0.000151224 -0.0396661 0)
(-0.000352261 -0.0362477 0)
(-0.000539244 -0.0379526 0)
(0.000421176 -0.037522 0)
(-0.000255496 -0.0381389 0)
(-0.000430611 -0.0403175 0)
(-0.00205785 -0.0397859 0)
(-0.00115254 -0.0385239 0)
(7.79986e-05 -0.0388952 0)
(-0.000139022 -0.0406934 0)
(0.000756698 -0.0411063 0)
(-0.000317598 -0.0366398 0)
(-3.77952e-05 -0.037117 0)
(-0.000425554 -0.0412764 0)
(-0.000678752 -0.042229 0)
(0.000609816 -0.0414309 0)
(0.00171021 -0.0395415 0)
(-0.000190989 -0.0389458 0)
(0.00102787 -0.0388915 0)
(-0.000407068 -0.0362723 0)
(-0.000582569 -0.0396637 0)
(0.00092114 -0.0392902 0)
(-1.34523e-11 -2.18297e-05 0)
(-1.26737e-11 -2.18548e-05 0)
(0.000607238 0.000135641 0)
(-1.194e-11 -2.18783e-05 0)
(-5.95971e-05 -0.000495683 0)
(0.000829291 0.000207736 0)
(1.29965e-05 -0.00135081 0)
(0.000774536 6.30259e-05 0)
(-0.000836556 -0.00152145 0)
(-0.00526924 -0.00828115 0)
(-0.00544625 -0.00945599 0)
(-0.00563256 -0.0100848 0)
(-0.00587846 -0.011294 0)
(-0.00698381 -0.00962439 0)
(-0.00584238 -0.0081573 0)
(-0.00548489 -0.0074737 0)
(-0.00527933 -0.00697426 0)
(-0.00522308 -0.006535 0)
(-0.00509725 -0.00609412 0)
(-0.00517882 -0.00604344 0)
(-0.00506362 -0.00549803 0)
(-0.00496014 -0.00513337 0)
(-0.00157638 -0.00433948 0)
(1.26442e-05 -1.80215e-05 0)
(1.18987e-05 -1.82848e-05 0)
(1.11968e-05 -1.85315e-05 0)
(-0.00165481 -0.00529749 0)
(-0.00196471 -0.0061245 0)
(-0.00239177 -0.00231723 0)
(-0.00274091 -0.00733596 0)
(-0.000232755 -0.00237996 0)
(-0.00208163 -0.00493196 0)
(-0.00275956 -0.00638173 0)
(-0.000637035 -0.00470279 0)
(-0.00379799 -0.000543034 0)
(-0.00744749 -0.00755914 0)
(-0.00348854 -0.00771695 0)
(-0.00635641 -0.00859815 0)
(-0.000796066 -0.000645034 0)
(-0.00161955 -0.00708191 0)
(9.93666e-05 -0.000332243 0)
(-0.0020576 -0.00209878 0)
(-0.00276593 -0.00975038 0)
(0.00183036 -0.014541 0)
(-0.000701001 -0.0194907 0)
(0.00362796 -0.0368742 0)
(0.0021945 -0.0406034 0)
(0.000500701 -0.0390303 0)
(-0.00138386 -0.0359005 0)
(-0.000405832 -0.0338388 0)
(-0.00148761 -0.0355336 0)
(-0.000676699 -0.0350064 0)
(-0.000296829 -0.0348063 0)
(0.000526151 -0.0353011 0)
(-0.000180914 -0.0361283 0)
(0.00053255 -0.0363734 0)
(-0.000847923 -0.0347187 0)
(-2.42637e-06 -0.0381635 0)
(0.000341502 -0.0404607 0)
(-0.000654039 -0.0382624 0)
(-0.000538734 -0.0362886 0)
(-0.000828648 -0.0372956 0)
(-0.000425119 -0.0392588 0)
(0.000745468 -0.0404064 0)
(0.000315244 -0.038882 0)
(-0.000370727 -0.0382587 0)
(-0.000343807 -0.0383717 0)
(-0.000268024 -0.0371319 0)
(0.00091501 -0.0354629 0)
(-0.000389776 -0.0330079 0)
(0.000821128 -0.0335436 0)
(0.000137535 -0.0335875 0)
(0.000346534 -0.0301404 0)
(-0.00137897 -0.0320068 0)
(-0.000556616 -0.03223 0)
(-2.74819e-07 -1.94632e-05 0)
(-2.66865e-07 -1.95453e-05 0)
(-0.00245398 -0.00125072 0)
(-2.59142e-07 -1.96249e-05 0)
(5.34841e-05 -3.62361e-06 0)
(5.13995e-05 -4.95241e-06 0)
(4.89195e-05 -6.13244e-06 0)
(4.6332e-05 -7.19049e-06 0)
(4.37833e-05 -8.16432e-06 0)
(-0.0021906 -0.00084643 0)
(-0.00110563 -0.00354732 0)
(-0.00142918 -0.00445801 0)
(-0.00135128 -0.00404223 0)
(-0.00203818 -0.0057139 0)
(-0.00211041 -0.00611151 0)
(-0.00323942 -0.00590872 0)
(-0.00316924 -0.00506215 0)
(-0.00317281 -0.00443448 0)
(-0.00145791 -0.00269963 0)
(-0.00267526 -0.0031661 0)
(-0.00303828 -0.00320667 0)
(-0.00279575 -0.00256236 0)
(-0.00263221 -0.00199558 0)
(-0.00288512 -0.00358938 0)
(-0.000611029 -0.00328931 0)
(-0.00062084 -0.00284904 0)
(-0.00299743 -0.00239328 0)
(-0.00217036 -0.0026349 0)
(-0.00237836 -0.000546784 0)
(-0.00237481 -0.000636471 0)
(-0.00373635 -0.00694357 0)
(0.000913958 -0.00603936 0)
(4.37195e-05 -0.000443049 0)
(0.00157379 0.00151847 0)
(-0.000994339 -0.00340831 0)
(-0.00381744 -0.00311833 0)
(0.0020322 -0.00345618 0)
(-0.000692788 -0.00292725 0)
(-0.00346683 -0.00570835 0)
(-0.00436605 0.00126882 0)
(-0.00355678 -0.00400097 0)
(0.00111599 -0.00617003 0)
(-0.000981248 -0.00333407 0)
(0.00163602 -0.0106692 0)
(-0.00134604 -0.0239508 0)
(-0.000227782 -0.0365687 0)
(-0.00106159 -0.0388244 0)
(-0.0014475 -0.0374216 0)
(-0.00126205 -0.0372792 0)
(-0.00130224 -0.0360356 0)
(-0.000562833 -0.0352444 0)
(-0.000501699 -0.034664 0)
(-0.000185443 -0.0346062 0)
(0.00011641 -0.035285 0)
(3.9606e-05 -0.0363815 0)
(-8.05985e-05 -0.0343226 0)
(-0.000514309 -0.034218 0)
(5.45021e-05 -0.0316614 0)
(-0.000367485 -0.0340756 0)
(-0.000954619 -0.0346382 0)
(-0.000746235 -0.0343123 0)
(0.00101912 -0.0354865 0)
(0.000555323 -0.0355718 0)
(0.000280451 -0.0353319 0)
(-0.00128439 -0.0349203 0)
(0.000126749 -0.0345441 0)
(-0.000574564 -0.0323232 0)
(-0.000299631 -0.0320349 0)
(-0.000263528 -0.0325426 0)
(-0.00040124 -0.0328434 0)
(-1.34753e-05 -0.0336994 0)
(0.000213753 -0.0326604 0)
(0.000330112 -0.0341454 0)
(0.000151064 -0.0359139 0)
(-0.00162335 -0.0350475 0)
(-2.30592e-12 -2.19573e-05 0)
(-2.23825e-12 -2.19634e-05 0)
(4.32964e-06 -8.89128e-06 0)
(-2.17256e-12 -2.19693e-05 0)
(4.19817e-06 -9.29987e-06 0)
(-0.00258446 -0.00231654 0)
(-0.000563799 0.000653303 0)
(-0.00250719 -0.00220643 0)
(-0.00220672 -0.002052 0)
(0.000202847 0.00132268 0)
(-0.00325045 -0.00163202 0)
(-0.00329736 -0.00136697 0)
(-0.003312 -0.00167506 0)
(-0.00332097 -0.00163636 0)
(-0.00336053 -0.00139018 0)
(-0.00332036 -0.00143369 0)
(-2.10879e-12 -2.1975e-05 0)
(-0.0023992 -0.00274566 0)
(-0.00283235 -0.00320452 0)
(-0.00330312 -0.00141248 0)
(-0.00328332 -0.00139654 0)
(-0.00318072 -0.00244295 0)
(-0.00310872 -0.00388286 0)
(-0.00265003 -0.0030368 0)
(-0.00280944 -0.00232214 0)
(-0.00269755 -0.00258603 0)
(-0.00277938 -0.00192134 0)
(7.06771e-12 -2.17142e-05 0)
(6.47919e-12 -2.17695e-05 0)
(0.00208462 -0.0023371 0)
(-0.00224829 0.000417707 0)
(0.000123204 -0.00281632 0)
(-0.00321214 -0.00515076 0)
(-0.00174667 -0.00288959 0)
(-0.00394904 -0.00569479 0)
(-0.00279366 0.000924148 0)
(-0.004492 -0.00666177 0)
(-0.00348132 -0.00221911 0)
(-0.00237851 -0.000847629 0)
(-0.00415377 -0.00223838 0)
(-0.00337776 -0.0077812 0)
(-0.00222367 -0.00587183 0)
(-0.00701352 -0.00596798 0)
(-0.0020965 -0.0175596 0)
(-0.00102646 -0.036102 0)
(-0.00176229 -0.0374974 0)
(-0.00295461 -0.0375043 0)
(-0.00271998 -0.0360914 0)
(-0.00110155 -0.035171 0)
(-0.000936205 -0.0349421 0)
(-0.000165259 -0.0343857 0)
(0.000731765 -0.0339233 0)
(0.000129747 -0.0333539 0)
(0.000190907 -0.0321555 0)
(0.00025139 -0.0317374 0)
(8.9051e-05 -0.0328716 0)
(-0.000367988 -0.0318405 0)
(-0.000315182 -0.0302385 0)
(0.00112288 -0.0300834 0)
(-0.000614317 -0.0326841 0)
(2.35437e-05 -0.0328617 0)
(0.000340174 -0.0351142 0)
(-0.00023246 -0.0350147 0)
(-0.00137101 -0.0349114 0)
(-0.000508622 -0.034334 0)
(-0.000574698 -0.0366931 0)
(-0.00049901 -0.0372021 0)
(-0.000395883 -0.0370855 0)
(-0.00104657 -0.03644 0)
(0.000590812 -0.0396544 0)
(0.000309944 -0.039052 0)
(0.00120187 -0.0389418 0)
(8.69082e-05 -0.0399378 0)
(-0.000773624 -0.0402945 0)
(0.000785972 -0.0390882 0)
(-7.53694e-06 -1.98464e-05 0)
(-6.88881e-06 -2.00757e-05 0)
(2.47269e-06 6.65221e-08 0)
(-6.29643e-06 -2.02836e-05 0)
(7.817e-05 -0.000679807 0)
(-7.8353e-05 -0.000666905 0)
(-0.00207334 -0.000573855 0)
(-0.00349271 -0.00698258 0)
(-0.00063344 -0.000981882 0)
(-0.00348601 -0.00649987 0)
(-0.00286811 -0.00136421 0)
(-0.0030668 -0.00109666 0)
(-0.00337207 -0.000875901 0)
(-0.00317634 -0.000737265 0)
(-0.00370337 -0.000549362 0)
(-0.0036038 -0.000276187 0)
(-5.75502e-06 -2.04721e-05 0)
(-5.26017e-06 -2.06431e-05 0)
(-4.80789e-06 -2.07981e-05 0)
(-4.3945e-06 -2.09388e-05 0)
(-4.01667e-06 -2.10663e-05 0)
(-3.67134e-06 -2.11819e-05 0)
(-3.3557e-06 -2.12868e-05 0)
(-0.0037511 -0.000176956 0)
(-3.06719e-06 -2.13818e-05 0)
(-4.31464e-05 -0.00182743 0)
(-0.000127814 -0.000937313 0)
(8.11711e-05 -0.00263871 0)
(-0.000452159 -0.00402032 0)
(-0.0037404 -9.89563e-05 0)
(-0.00504737 -0.00452656 0)
(-0.00513119 -0.0052444 0)
(-0.00565801 -0.00602489 0)
(0.000357277 -0.00827448 0)
(-0.00872424 -0.00220095 0)
(-0.00256945 -0.00494635 0)
(-0.00233446 -0.00445768 0)
(-0.00541441 -0.00664603 0)
(-0.00531704 -0.00625615 0)
(-0.00246978 -0.00081458 0)
(-0.00508454 -0.00347513 0)
(-0.00464911 -0.00398332 0)
(-9.52821e-05 -0.0101287 0)
(-0.00377161 -0.0354213 0)
(-0.00398194 -0.0359647 0)
(-0.00328477 -0.0340869 0)
(-0.00195445 -0.0345172 0)
(-0.00190729 -0.0347247 0)
(-0.000410844 -0.0343651 0)
(-0.000162173 -0.0335612 0)
(-0.000846258 -0.0315489 0)
(0.000853255 -0.0282669 0)
(0.000789121 -0.0316506 0)
(0.00053334 -0.0287044 0)
(0.000429052 -0.0297179 0)
(0.000707216 -0.0306564 0)
(0.00068544 -0.0305878 0)
(-0.000279273 -0.0299422 0)
(0.000351287 -0.0294304 0)
(-0.000109766 -0.0293017 0)
(0.00193456 -0.03571 0)
(0.00166502 -0.0347826 0)
(0.000172683 -0.0357334 0)
(-0.00113382 -0.035592 0)
(-3.84971e-05 -0.0386238 0)
(-0.000143703 -0.0380398 0)
(-0.00101275 -0.0370282 0)
(-0.000335393 -0.0391651 0)
(0.000694773 -0.0409844 0)
(0.000221649 -0.042847 0)
(0.000942964 -0.0425311 0)
(0.000145769 -0.043463 0)
(7.10045e-05 -0.042464 0)
(-0.000275587 -0.0435544 0)
(-0.000423503 -0.0440184 0)
(3.30252e-12 -2.19573e-05 0)
(3.20565e-12 -2.19634e-05 0)
(-2.14032e-05 -1.10312e-05 0)
(3.11163e-12 -2.19693e-05 0)
(-1.95964e-05 -1.21758e-05 0)
(-1.79066e-05 -1.31208e-05 0)
(0.000258798 -0.00306563 0)
(-7.92293e-05 -0.00105836 0)
(0.000370155 -0.00386425 0)
(0.000285322 -0.00362663 0)
(0.000588607 -0.00556647 0)
(-0.000479865 -0.00235007 0)
(0.000311845 -0.00428226 0)
(-0.000791679 -0.0056001 0)
(3.02036e-12 -2.1975e-05 0)
(2.93176e-12 -2.19805e-05 0)
(2.84576e-12 -2.19859e-05 0)
(2.76227e-12 -2.19911e-05 0)
(-0.00156085 -0.001602 0)
(-2.60977e-06 -2.14389e-05 0)
(-0.00130946 -0.00231091 0)
(-0.000748184 -0.00456051 0)
(-0.000676529 -0.00575569 0)
(2.28011e-05 -0.00512677 0)
(-0.000789217 -0.00113873 0)
(-0.000856495 -0.00103124 0)
(-0.00454254 -0.00328636 0)
(-0.00286133 -0.00453474 0)
(-0.00243997 -0.0044216 0)
(-0.00958226 -0.00342489 0)
(-0.00758769 -0.00484438 0)
(-0.00509331 -0.00402224 0)
(-0.00359099 -0.00511528 0)
(-0.00422306 -0.00172895 0)
(-0.00734317 -0.00818837 0)
(-0.00407814 -0.00574423 0)
(-0.00607803 -0.00189907 0)
(-0.00473819 -0.00197734 0)
(-0.00597233 -0.00560684 0)
(-0.00563411 -0.00652139 0)
(-0.00231361 -0.00547191 0)
(-0.00147243 -0.00602952 0)
(0.000144342 -0.00805211 0)
(0.000556947 -0.00272816 0)
(-0.00273383 -0.00867192 0)
(-0.00373465 -0.0352188 0)
(-0.00447045 -0.037279 0)
(-0.00433231 -0.0345249 0)
(-0.00377634 -0.0379129 0)
(-0.00199298 -0.0349493 0)
(-0.000441719 -0.0339728 0)
(-0.00118516 -0.0311541 0)
(-0.000540913 -0.0302701 0)
(0.00135246 -0.0317623 0)
(-0.000120554 -0.0364723 0)
(0.000114915 -0.0378709 0)
(0.000581692 -0.0368731 0)
(0.000820464 -0.0373746 0)
(0.000678434 -0.0401511 0)
(0.000154691 -0.0403564 0)
(0.000213873 -0.0393907 0)
(0.000506147 -0.0423334 0)
(0.000413493 -0.0447779 0)
(0.0012426 -0.0444193 0)
(0.00125358 -0.0435844 0)
(0.00185497 -0.0428408 0)
(-0.00118272 -0.0438254 0)
(0.00105027 -0.0386146 0)
(-0.000299223 -0.0451964 0)
(-1.4248e-05 -0.0453391 0)
(-0.000392141 -0.0453539 0)
(0.000250513 -0.0465795 0)
(-0.000306972 -0.0472175 0)
(0.000216631 -0.044604 0)
(0.000128653 -0.0435736 0)
(-3.31449e-12 -2.19422e-05 0)
(-3.206e-12 -2.19499e-05 0)
(0.00116163 -0.00231164 0)
(-3.10105e-12 -2.19572e-05 0)
(-0.0011373 -6.94802e-05 0)
(-0.000774742 -0.00355706 0)
(-0.00238494 -0.00433867 0)
(-0.000989028 -0.00229261 0)
(-0.00284093 -0.0046845 0)
(-0.00317379 -0.0046717 0)
(-0.00181095 -0.000199632 0)
(-0.00445977 -0.00564989 0)
(-0.00437177 -0.00144896 0)
(-2.99953e-12 -2.19643e-05 0)
(-2.90133e-12 -2.19711e-05 0)
(-0.00143142 -0.00280137 0)
(-9.3396e-07 -1.9178e-05 0)
(-0.00223126 -0.00476394 0)
(-0.0023431 -0.00446407 0)
(-0.00235832 -0.00838252 0)
(-0.000242191 -0.00427316 0)
(-0.00235629 -0.00587626 0)
(-0.00238003 -0.00503638 0)
(-0.00087497 -0.0035102 0)
(-0.00092634 -0.00348748 0)
(-0.00419358 -0.00307723 0)
(-0.00253054 -0.00552923 0)
(-0.00259082 -0.00397394 0)
(-0.00306087 -0.000847177 0)
(9.20376e-05 -0.00317681 0)
(-0.00311544 -0.00651544 0)
(4.41905e-05 -0.00535563 0)
(-0.00660798 -0.00706257 0)
(-0.0044342 -0.00203612 0)
(-0.0041078 -0.00154534 0)
(-0.00371245 -0.00137374 0)
(-0.00404624 -0.00131521 0)
(-0.00292485 -0.00212272 0)
(-0.00219326 -0.00480699 0)
(-0.00325322 -0.00492481 0)
(-0.00361193 -0.00662702 0)
(-0.000893045 -0.00998409 0)
(-0.000358553 -0.0120207 0)
(-0.00261685 -0.0169761 0)
(-7.39773e-05 -0.017352 0)
(-0.0052651 -0.0346124 0)
(-0.0032351 -0.0346999 0)
(-0.00312463 -0.0366429 0)
(-0.00511477 -0.0354016 0)
(-0.00461336 -0.0382116 0)
(-0.0061307 -0.0377941 0)
(-0.00470576 -0.041784 0)
(-0.00579667 -0.0387981 0)
(-0.00385321 -0.0399482 0)
(-0.00425751 -0.0404047 0)
(-0.00226719 -0.044753 0)
(-0.00157623 -0.0463918 0)
(-0.00273379 -0.0465875 0)
(-0.00137022 -0.0471198 0)
(4.50125e-05 -0.0462799 0)
(0.000456275 -0.0448316 0)
(0.00118764 -0.0432644 0)
(0.00196506 -0.0477792 0)
(0.00206058 -0.0456152 0)
(0.00167544 -0.0461896 0)
(0.00177333 -0.045703 0)
(0.00276154 -0.0459259 0)
(-0.000120178 -0.0472463 0)
(0.00124772 -0.0450666 0)
(0.000698004 -0.0475675 0)
(0.000339256 -0.044542 0)
(-0.000149019 -0.0451193 0)
(-0.000260215 -0.044845 0)
(-0.000138206 -0.0437708 0)
(-0.000156128 -0.0415922 0)
(-4.2864e-12 -2.19707e-05 0)
(-4.17345e-12 -2.19755e-05 0)
(-5.71353e-05 -0.000514487 0)
(-4.06346e-12 -2.19803e-05 0)
(-0.00374899 -0.00351995 0)
(0.00230113 -0.001292 0)
(-0.000931144 -0.00266688 0)
(-0.00225784 -0.00416793 0)
(-0.00241356 -0.00316816 0)
(-0.00246382 -0.00377954 0)
(0.00178967 -0.00202612 0)
(-0.000928011 -0.00351793 0)
(-0.00229679 -0.00305415 0)
(-0.00150731 -0.00177698 0)
(-1.75539e-06 -2.18714e-05 0)
(-0.00111952 -0.00160431 0)
(-0.00101312 -0.00402294 0)
(-0.00109928 -0.00335353 0)
(-0.00220785 -0.00401224 0)
(-0.00205506 -0.00316609 0)
(-0.00194237 -0.00398513 0)
(-0.0019456 -0.00171917 0)
(-0.00191222 -0.00142879 0)
(-0.00187831 -0.00115691 0)
(-0.00196041 -0.00100903 0)
(-0.00204495 -0.000893558 0)
(-0.000884902 -0.00756266 0)
(-0.000543769 -0.00778137 0)
(0.00481127 -0.00650462 0)
(0.00389155 -0.0041562 0)
(0.00154158 -0.006437 0)
(0.00196006 -0.00596252 0)
(-0.00282917 -0.00649027 0)
(-0.00196684 0.000543493 0)
(-0.00241204 -0.00321452 0)
(-0.00549432 -0.0042752 0)
(-0.00270903 -0.00497028 0)
(-0.0036234 -0.00495434 0)
(-0.00397093 -0.004739 0)
(-0.00207125 -0.00448686 0)
(-0.00510793 -0.00284379 0)
(-0.00489738 -0.00694973 0)
(-0.00292483 -0.00651797 0)
(-0.00500033 -0.0113255 0)
(0.00504441 -0.0124837 0)
(0.00618567 -0.0099973 0)
(0.00295994 -0.0123566 0)
(-0.00328004 -0.0111377 0)
(-0.001434 -0.011044 0)
(0.00133587 -0.0356166 0)
(-0.00262134 -0.0390185 0)
(-0.000134008 -0.042052 0)
(-0.00253782 -0.042044 0)
(-0.00230027 -0.0408803 0)
(-0.000338253 -0.0444885 0)
(-0.000569286 -0.0461143 0)
(-0.00115986 -0.0457692 0)
(-0.000616457 -0.0456952 0)
(-0.000667829 -0.0470864 0)
(-0.000275544 -0.0485985 0)
(-0.000295501 -0.0490724 0)
(-0.000307498 -0.0476834 0)
(0.000393807 -0.0491522 0)
(0.00158853 -0.046247 0)
(0.000905769 -0.0453092 0)
(0.000733918 -0.0478974 0)
(-4.09491e-05 -0.042921 0)
(0.000205576 -0.0439616 0)
(0.000254505 -0.044479 0)
(-2.31155e-05 -0.0433744 0)
(0.000185545 -0.0418627 0)
(-0.000369874 -0.0434557 0)
(0.00038486 -0.0423282 0)
(0.000495983 -0.0414446 0)
(-0.000499918 -0.0391988 0)
(-3.41377e-12 -2.19573e-05 0)
(-3.31351e-12 -2.19634e-05 0)
(-0.00139079 -0.0030885 0)
(-3.21619e-12 -2.19693e-05 0)
(-0.000492915 -0.000743074 0)
(-0.000476082 -0.000726801 0)
(-0.00172755 -0.00639738 0)
(0.00374553 -0.00581147 0)
(-0.00125591 -0.00636745 0)
(-0.000481029 -0.000794837 0)
(-0.0017294 -0.00073452 0)
(-0.00180941 -0.000671719 0)
(-3.12173e-12 -2.1975e-05 0)
(-3.03003e-12 -2.19805e-05 0)
(-0.00224015 -0.00282178 0)
(-0.00328149 -0.00370304 0)
(9.15684e-05 -0.00422479 0)
(0.00316429 -0.00517403 0)
(-0.000813172 -0.0080139 0)
(-0.000661208 -0.00635926 0)
(-0.000566086 -0.00503209 0)
(-0.000449133 -0.00468902 0)
(-0.000419992 -0.00403397 0)
(-0.0002553 -0.00413477 0)
(0.00079346 0.00207597 0)
(-0.000351935 -0.00281253 0)
(0.00234346 0.00328477 0)
(0.000547632 -0.0056566 0)
(0.000164596 -0.00109644 0)
(0.0038275 -0.000230132 0)
(-0.000145739 0.00370734 0)
(-0.000535469 -0.00536055 0)
(-0.00175332 -0.0052669 0)
(-0.000231518 0.000187059 0)
(-0.00160611 -0.0031484 0)
(0.000156264 -0.00287705 0)
(-0.00031103 -0.00682988 0)
(9.4406e-05 -0.00553487 0)
(-0.000318367 0.00272888 0)
(4.20648e-05 -0.00289193 0)
(-0.000933922 -0.00108379 0)
(0.00106023 -0.00353184 0)
(-0.000700453 8.56975e-05 0)
(0.000730249 -0.00378214 0)
(-0.000567335 -0.00797217 0)
(-0.00483189 -0.00557805 0)
(-0.00107868 -0.00610236 0)
(-0.000329923 -0.0119905 0)
(-0.00187087 -0.0163542 0)
(0.00239194 -0.0336983 0)
(0.00075856 -0.0446237 0)
(0.000365492 -0.0422145 0)
(-0.000678886 -0.0409156 0)
(-0.000585815 -0.0425644 0)
(-0.00131061 -0.0446909 0)
(-0.00089847 -0.0449758 0)
(-0.000305232 -0.0439519 0)
(-0.000250803 -0.044791 0)
(-0.0010482 -0.0452768 0)
(-0.000676583 -0.0473414 0)
(0.000102109 -0.0469008 0)
(0.000689064 -0.0475555 0)
(0.00120991 -0.0460828 0)
(0.0009622 -0.0467877 0)
(-0.000446959 -0.0398682 0)
(0.000149877 -0.0386057 0)
(-0.0008031 -0.0370105 0)
(3.34882e-05 -0.0384546 0)
(-0.000399933 -0.0368053 0)
(0.000305112 -0.0366843 0)
(-0.000200443 -0.0367618 0)
(-0.000151567 -0.0354208 0)
(-5.54856e-05 -0.0345042 0)
(-0.000447605 -0.0356699 0)
(-0.000295345 -0.0330599 0)
(-3.37319e-12 -2.19422e-05 0)
(-3.26275e-12 -2.19498e-05 0)
(-0.000115467 -0.00103757 0)
(-3.15591e-12 -2.19572e-05 0)
(-0.000160391 -0.00104417 0)
(-0.00030853 -0.00403384 0)
(-0.00024726 -0.003893 0)
(0.000347885 -0.00206574 0)
(-0.0002139 -0.00365812 0)
(-0.0016195 -0.000296789 0)
(-0.000453248 -0.00380989 0)
(-0.000286455 -0.00728358 0)
(-3.05257e-12 -2.19643e-05 0)
(-0.00164295 -0.00253619 0)
(0.00109669 -0.00289966 0)
(0.0015214 -0.00333702 0)
(-7.69166e-05 -0.00441839 0)
(0.00013017 -0.00406704 0)
(-0.000691319 -0.00540229 0)
(-0.00062303 -0.00492507 0)
(-0.00107455 -0.00429093 0)
(-0.000575285 -0.00409519 0)
(-0.000976767 -0.00356719 0)
(-0.000535142 -0.0038549 0)
(-0.00103377 -0.00304772 0)
(-0.00102659 -0.0080296 0)
(-0.000908525 -0.00438925 0)
(0.000783022 -0.00589744 0)
(0.0022058 -0.000290004 0)
(0.000944487 -0.00315472 0)
(0.00294948 -0.00829632 0)
(0.000118233 -0.00679593 0)
(-0.000819681 -0.00710354 0)
(-0.000279807 0.00154986 0)
(-0.000427167 -0.00192257 0)
(0.000143238 -0.00568718 0)
(-0.000409233 -0.00613277 0)
(-0.00201185 -0.00697364 0)
(-0.00122519 -0.000747295 0)
(-0.000878375 -0.00122844 0)
(-0.000136116 -0.00142179 0)
(0.000126712 0.00201234 0)
(0.00293791 -0.0022654 0)
(0.00184763 -0.00146028 0)
(-0.00148473 -0.00212983 0)
(-0.00339158 -0.0086885 0)
(0.00169663 -0.0142475 0)
(0.000758001 -0.0343557 0)
(0.00126859 -0.0394694 0)
(0.000660015 -0.0415565 0)
(-0.000455811 -0.0385237 0)
(-0.000617996 -0.0384855 0)
(0.000503984 -0.0373114 0)
(0.00110069 -0.0370531 0)
(-0.0003796 -0.0395446 0)
(-0.000478206 -0.0416168 0)
(-0.00043849 -0.0419607 0)
(5.82882e-05 -0.0418867 0)
(-0.000973568 -0.042976 0)
(-0.000137813 -0.0447761 0)
(-0.000302625 -0.0453236 0)
(0.000224466 -0.0454922 0)
(0.000132029 -0.0386265 0)
(0.000406421 -0.0393614 0)
(-0.000290748 -0.0378316 0)
(-0.000540023 -0.035192 0)
(-2.57388e-05 -0.0378861 0)
(0.000383573 -0.0335237 0)
(0.00118631 -0.0305991 0)
(-0.000830137 -0.0332041 0)
(-0.000380198 -0.0327641 0)
(0.00024184 -0.0312514 0)
(-0.000880231 -0.0319628 0)
(-0.00143689 -0.0331729 0)
(0.000174168 -0.0351131 0)
(-2.68121e-12 -2.19252e-05 0)
(-2.58317e-12 -2.19348e-05 0)
(-0.000360441 -4.19349e-06 0)
(-2.48872e-12 -2.19439e-05 0)
(-0.000414523 -0.00354724 0)
(-0.000244642 -0.000838502 0)
(-0.000568637 -0.00401143 0)
(-0.000536599 -0.00365982 0)
(-0.00359201 -0.00295592 0)
(0.000143384 -0.00107237 0)
(-0.000489335 -0.00385624 0)
(-0.000975152 -0.00296057 0)
(-2.39772e-12 -2.19528e-05 0)
(-2.31003e-12 -2.19613e-05 0)