/*--------------------------------*- C++ -*----------------------------------*\
  =========                 |
  \\      /  F ield         | OpenFOAM: The Open Source CFD Toolbox
   \\    /   O peration     | Website:  https://openfoam.org
    \\  /    A nd           | Version:  12
     \\/     M anipulation  |
\*---------------------------------------------------------------------------*/
FoamFile
{
    format      ascii;
    class       volScalarField::Internal;
    location    "0.25";
    object      cloud:UCoeff;
}
// * * * * * * * * * * * * * * * * * * * * * * * * * * * * * * * * * * * * * //

dimensions      [1 0 0 0 0 0 0];

value           nonuniform List<scalar> 
3750
(
0
6.45886e-08
6.31313e-08
6.27894e-08
9.9664e-08
1.04778e-07
6.34047e-08
6.6043e-08
0
6.57134e-08
1.18311e-08
6.5801e-08
1.126e-07
6.33493e-08
6.33609e-08
6.30564e-08
1.46229e-07
5.97646e-08
6.68003e-08
6.28679e-08
6.02694e-08
5.97659e-08
6.02872e-08
1.53953e-07
6.58786e-08
6.55942e-08
0
6.27019e-08
6.34971e-08
6.45843e-08
6.34656e-08
6.22029e-08
6.20836e-08
1.50722e-07
5.9493e-08
6.39971e-08
6.51205e-08
6.62385e-08
6.4046e-08
1.02195e-08
4.69658e-08
6.41955e-08
6.32861e-08
6.38171e-08
6.20113e-08
6.15634e-08
6.22503e-08
6.45735e-08
0
5.69447e-08
1.16397e-07
4.86447e-09
1.19881e-07
8.29963e-08
6.29832e-08
6.27631e-08
1.12432e-07
3.81397e-08
3.82769e-08
6.28612e-08
6.61549e-08
6.64463e-08
6.40931e-08
6.40282e-08
0
6.2777e-08
6.00885e-08
6.00021e-08
0
0
0
0
0
0
0
6.0935e-08
6.26379e-08
6.30311e-08
6.27784e-08
6.27166e-08
6.19261e-08
2.48635e-08
9.14937e-08
6.51097e-08
6.22602e-08
6.38447e-08
6.0731e-08
5.97155e-08
6.47243e-08
0
6.05728e-08
6.43669e-08
9.7924e-08
1.09125e-07
6.33498e-08
0
5.90663e-08
5.86718e-08
6.22761e-08
6.40869e-08
6.28637e-08
8.40436e-08
1.18667e-07
6.04773e-08
6.19248e-08
6.26202e-08
6.2412e-08
6.28377e-08
0
5.91338e-08
6.13483e-08
6.24251e-08
6.3286e-08
6.27879e-08
6.205e-08
6.12698e-08
6.31946e-08
6.18487e-08
0
8.54741e-08
2.10283e-07
1.45074e-07
6.50335e-08
6.07537e-08
6.03668e-08
6.04246e-08
0
6.55127e-08
5.71725e-08
6.05844e-08
6.26501e-08
2.37556e-08
1.82779e-08
6.29716e-08
6.22011e-08
6.21555e-08
2.58681e-07
5.87265e-08
0
0
0
0
0
0
0
0
0
0
0
0
6.1495e-08
6.17294e-08
6.16512e-08
6.27237e-08
6.29005e-08
7.75011e-08
1.28671e-07
6.44165e-08
6.04264e-08
5.55512e-08
6.59283e-08
0
7.20316e-08
1.3597e-07
6.46691e-08
2.87444e-08
1.31745e-07
1.08455e-07
6.46051e-08
0
6.05761e-08
6.18376e-08
1.42314e-07
5.83055e-08
6.18892e-08
6.75155e-08
2.24658e-08
2.6488e-08
6.21904e-08
6.04991e-08
6.14984e-08
6.24629e-08
5.88314e-08
6.17577e-08
6.21299e-08
6.301e-08
6.37837e-08
6.18502e-08
6.03821e-08
6.11867e-08
1.51717e-07
6.0072e-08
6.10508e-08
8.11051e-08
7.3465e-08
2.94914e-08
5.86417e-08
6.03307e-08
6.19826e-08
6.14708e-08
6.03499e-08
2.56715e-08
4.81753e-08
6.64779e-08
1.06819e-07
6.00723e-08
5.7969e-08
1.50179e-07
6.12549e-08
6.38472e-08
6.07996e-08
6.36696e-08
0
0
0
0
0
0
0
0
0
0
0
0
0
6.16706e-08
6.29808e-08
0
1.53298e-07
6.08256e-08
5.87484e-08
1.52477e-07
6.15001e-08
1.01268e-08
1.2683e-07
0
6.34376e-08
8.0952e-08
1.04169e-07
6.16464e-08
6.50607e-08
6.41499e-08
6.47821e-08
0
6.02647e-08
6.34794e-08
6.22111e-08
6.26321e-08
6.01667e-08
6.14965e-08
5.83078e-08
6.82909e-08
3.31275e-08
2.45579e-08
4.47367e-08
5.93893e-08
6.55781e-08
6.16987e-08
6.26574e-08
6.26006e-08
6.24051e-08
6.77167e-08
1.41058e-07
6.05902e-08
6.16253e-08
6.29718e-08
6.31347e-08
6.2735e-08
6.0572e-08
6.16401e-08
6.1813e-08
6.07276e-08
6.09368e-08
6.17979e-08
6.36974e-08
6.30185e-08
6.142e-08
6.1957e-08
6.34752e-08
6.36811e-08
6.14375e-08
5.97731e-08
6.01517e-08
1.52536e-07
6.08233e-08
6.18643e-08
6.24851e-08
0
0
0
0
0
0
0
0
0
0
0
0
0
6.52927e-08
6.19691e-08
2.36418e-08
1.98878e-08
6.24395e-08
1.46963e-07
6.06359e-08
6.13827e-08
6.04301e-08
7.51224e-08
1.38678e-07
6.23223e-08
5.89975e-08
0
6.31213e-08
6.42181e-08
6.29271e-08
2.13258e-08
2.31886e-08
5.81299e-08
6.20084e-08
6.2479e-08
6.00753e-08
6.28245e-08
6.09759e-08
6.21722e-08
6.84629e-08
6.62877e-08
7.67484e-09
4.68483e-08
6.28182e-08
6.26136e-08
6.29715e-08
6.2716e-08
1.52699e-07
5.9721e-08
6.03363e-08
6.05162e-08
6.13826e-08
6.29783e-08
6.18661e-08
2.99799e-08
9.71803e-09
6.25022e-08
6.20273e-08
6.14283e-08
6.40814e-08
6.23858e-08
6.22159e-08
1.54563e-07
6.08223e-08
6.06671e-08
6.27682e-08
6.20493e-08
6.24958e-08
6.21155e-08
0
0
6.08825e-08
1.55705e-07
6.11667e-08
6.13206e-08
0
0
0
0
0
0
0
0
0
0
0
0
0
6.60252e-08
2.93128e-08
1.97892e-08
5.26869e-08
6.29669e-08
6.24654e-08
6.66691e-08
5.97739e-08
1.4511e-07
5.80753e-08
6.15961e-08
6.21476e-08
6.23256e-08
6.06258e-08
6.35311e-08
1.33334e-09
6.25378e-08
6.56503e-08
6.16507e-08
5.98825e-08
6.36568e-08
1.38132e-08
3.81146e-08
6.19599e-08
5.98746e-08
6.10773e-08
1.6018e-07
2.85035e-08
1.63e-08
6.22125e-08
6.13469e-08
9.52885e-08
1.10964e-07
6.04994e-08
6.13506e-08
6.24011e-08
6.13609e-08
6.05655e-08
6.26972e-08
6.154e-08
6.34608e-08
6.53302e-08
6.44093e-08
6.03245e-08
6.16097e-08
6.0056e-08
6.0787e-08
6.26987e-08
6.3482e-08
6.15201e-08
6.19765e-08
6.32573e-08
6.26544e-08
6.24471e-08
6.25121e-08
6.0847e-08
1.48102e-07
6.02086e-08
6.14244e-08
6.32332e-08
6.30625e-08
1.53797e-07
0
0
0
0
0
0
0
0
0
0
0
0
0
6.59549e-08
6.39822e-09
6.47933e-08
5.19838e-08
6.39625e-08
6.24328e-08
6.245e-08
6.26998e-08
6.02594e-08
6.25743e-08
6.237e-08
6.63928e-08
6.28002e-08
6.18541e-08
6.26094e-08
6.33971e-08
6.42694e-08
6.38868e-08
2.35933e-08
1.80514e-08
6.38902e-08
6.29129e-08
6.4245e-08
6.22951e-08
1.15279e-07
8.5411e-08
6.43624e-08
6.54014e-08
6.29233e-08
6.401e-08
6.31955e-08
6.26653e-08
6.24349e-08
6.26035e-08
6.24458e-08
6.36274e-08
6.3181e-08
6.39009e-08
6.41416e-08
1.02558e-07
1.05502e-07
1.18641e-08
4.13267e-08
6.28782e-08
5.98012e-08
6.07719e-08
6.09981e-08
6.24656e-08
6.36912e-08
6.13188e-08
6.26035e-08
6.30292e-08
6.33438e-08
1.15292e-07
8.37468e-08
6.11307e-08
6.44485e-08
5.9867e-08
5.74681e-08
0
0
6.53336e-08
6.37852e-08
0
0
0
0
0
0
0
0
0
0
0
0
5.62207e-08
9.07821e-08
8.55343e-08
6.54155e-08
1.96676e-08
2.57078e-08
6.2583e-08
6.31505e-08
6.2702e-08
6.34156e-08
6.08681e-08
1.60748e-08
1.17507e-07
6.1825e-08
6.07516e-08
6.17214e-08
6.47065e-08
6.4274e-08
6.18477e-08
5.99301e-08
6.13236e-08
6.15354e-08
6.10359e-08
6.03175e-08
6.13564e-08
1.19335e-07
7.61733e-08
6.31358e-08
9.94578e-08
1.10529e-07
0
6.13008e-08
6.17626e-08
6.35966e-08
6.29257e-08
6.54856e-08
3.08512e-08
1.0703e-08
6.22126e-08
1.12093e-07
8.85594e-08
6.14367e-08
6.13621e-08
6.08514e-08
6.1401e-08
6.03025e-08
6.19151e-08
6.41708e-08
0
6.10478e-08
6.26541e-08
6.58189e-08
6.21008e-08
6.02855e-08
6.01687e-08
8.6134e-08
6.94409e-08
2.90368e-08
6.22889e-08
1.46545e-07
1.56784e-07
0
6.29742e-08
6.09717e-08
0
0
0
0
0
0
0
0
0
0
0
6.34724e-08
6.13632e-08
6.04058e-08
6.25478e-08
6.38641e-08
6.32102e-08
6.10839e-08
6.17427e-08
6.51719e-08
0
7.17104e-08
1.37149e-07
6.18912e-08
6.26155e-08
6.24757e-08
6.22657e-08
6.32072e-08
6.29163e-08
6.02631e-08
1.49142e-07
6.09167e-08
6.07641e-08
6.06261e-08
5.99894e-08
6.15869e-08
6.20424e-08
6.28287e-08
1.56533e-07
6.15087e-08
6.06253e-08
6.23344e-08
6.18587e-08
3.24998e-09
5.65094e-08
6.10179e-08
6.21934e-08
6.59568e-08
1.12925e-08
4.33459e-08
9.26837e-08
1.08415e-07
5.93567e-08
6.12029e-08
6.12596e-08
5.921e-08
6.12813e-08
6.08112e-08
6.07432e-08
5.71035e-08
6.09978e-08
6.40385e-08
0
6.212e-08
6.2198e-08
6.22073e-08
6.37232e-08
6.29752e-08
6.30685e-08
6.12131e-08
6.11312e-08
6.47008e-08
6.51474e-08
1.58337e-08
3.21141e-08
0
0
0
0
0
0
0
0
0
0
0
4.8342e-08
9.86517e-08
1.05651e-07
6.52566e-08
6.64864e-08
6.45051e-08
6.42674e-08
6.19294e-08
6.20269e-08
6.30262e-08
6.19686e-08
5.91074e-08
6.137e-08
6.03609e-08
6.14259e-08
6.09287e-08
5.93108e-08
1.54206e-07
6.04513e-08
5.97346e-08
1.51808e-07
5.96256e-08
5.8587e-08
6.23323e-08
6.67186e-08
6.59876e-08
3.03997e-08
8.87639e-08
6.31803e-08
6.04491e-08
6.00888e-08
6.12569e-08
0
6.24332e-08
6.43587e-08
6.39769e-08
6.44764e-08
2.532e-08
1.97126e-08
6.26642e-08
6.30948e-08
1.12807e-07
8.55804e-08
6.0457e-08
8.42208e-08
5.98848e-08
3.91602e-08
6.13514e-08
6.22532e-08
5.98265e-08
3.32893e-08
3.9833e-09
6.29575e-08
6.24409e-08
6.17369e-08
6.49581e-08
0
6.26492e-08
6.1488e-08
6.31471e-08
6.70629e-08
6.50103e-08
6.37247e-08
6.13401e-08
0
0
0
0
0
0
0
0
0
0
0
6.18157e-08
6.06434e-08
6.04855e-08
6.2176e-08
6.41187e-08
6.43582e-08
6.40589e-08
6.30036e-08
5.72808e-08
6.44964e-08
0
6.18257e-08
6.29642e-08
6.26479e-08
6.25361e-08
6.20585e-08
9.81239e-08
1.08353e-07
6.26089e-08
1.18806e-07
7.68162e-08
6.02267e-08
5.89243e-08
6.01541e-08
6.4114e-08
6.46031e-08
6.4131e-08
6.33145e-08
6.53442e-08
6.2746e-08
6.01728e-08
1.4409e-07
6.17334e-08
6.67593e-08
6.42647e-08
6.05008e-08
5.86711e-08
1.69651e-08
3.22246e-08
6.12258e-08
6.28056e-08
6.35896e-08
1.45454e-09
1.06612e-07
8.34814e-08
5.95665e-08
6.08457e-08
7.65885e-08
1.34105e-07
6.61174e-08
0
6.31816e-08
6.26944e-08
6.20354e-08
6.2213e-08
6.75931e-08
0
6.31815e-08
6.1504e-08
1.09819e-08
4.46005e-08
6.58953e-08
6.37506e-08
6.15016e-08
6.07435e-08
0
0
0
0
0
0
0
0
0
0
6.02787e-08
6.00113e-08
6.07082e-08
6.24613e-08
6.73386e-08
0
6.34825e-08
6.23848e-08
6.16213e-08
6.40453e-08
5.90313e-08
6.26253e-08
6.3594e-08
2.96265e-08
7.94227e-09
6.12629e-08
6.10741e-08
1.53701e-07
6.12693e-08
6.13416e-08
6.15558e-08
1.13393e-07
8.24779e-08
6.47317e-08
0
6.38005e-08
6.38201e-08
1.06378e-07
6.34476e-08
9.81765e-08
0
9.36412e-09
3.83977e-08
1.56501e-07
6.67734e-08
6.28248e-08
6.13e-08
6.23374e-08
0
6.48265e-08
6.33511e-08
6.34681e-08
6.20194e-08
5.97395e-08
6.06474e-08
6.1596e-08
6.14662e-08
6.13996e-08
6.27207e-08
6.4124e-08
7.22938e-08
5.44149e-08
6.1617e-08
6.62334e-08
6.39275e-08
6.45572e-08
0
6.28982e-08
1.46565e-07
6.54577e-08
6.5493e-08
6.27001e-08
6.04177e-08
5.99899e-08
0
0
0
0
0
0
0
0
0
0
0
6.16431e-08
6.04987e-08
1.52186e-07
6.50241e-08
6.66296e-08
6.54415e-08
1.54253e-08
9.12978e-08
2.60361e-09
7.15188e-08
1.33593e-07
6.42708e-08
0
5.76007e-08
5.97766e-08
6.16187e-08
6.17715e-08
0
0
0
0
0
6.44527e-08
6.44661e-08
6.50631e-08
6.45806e-08
0
6.23067e-08
6.37381e-08
6.36806e-08
6.22307e-08
6.11652e-08
1.51476e-07
6.01377e-08
6.64395e-08
1.53685e-07
6.48799e-08
1.41801e-08
3.45733e-08
6.28629e-08
6.3153e-08
6.20483e-08
6.10704e-08
6.01783e-08
6.54212e-08
6.1913e-08
6.20385e-08
6.24617e-08
6.22263e-08
6.75006e-08
8.1488e-08
4.01699e-08
6.12327e-08
6.32995e-08
6.38274e-08
0
1.47616e-07
1.49942e-07
5.85047e-08
6.16602e-08
9.82484e-08
7.80614e-08
3.0891e-08
4.46993e-08
0
0
0
0
0
0
0
0
0
0
0
5.99016e-08
6.23121e-08
6.39612e-08
6.37302e-08
7.21666e-08
1.47814e-07
6.18905e-08
6.10348e-08
6.08774e-08
6.09887e-08
6.14821e-08
6.24744e-08
6.29372e-08
6.09131e-08
6.12605e-08
6.25399e-08
6.16738e-08
6.12647e-08
6.16754e-08
6.35586e-08
6.30783e-08
1.50395e-07
5.45232e-08
0
1.47675e-07
6.45389e-08
5.97977e-08
6.28255e-08
1.8388e-08
7.1533e-08
9.58937e-08
6.08909e-08
1.08371e-07
9.06769e-08
6.3282e-08
6.42787e-08
6.54047e-08
6.38612e-08
6.29104e-08
5.91902e-08
6.19247e-08
6.82556e-08
5.536e-08
6.1192e-08
6.08697e-08
6.2596e-08
6.34719e-08
6.18675e-08
6.16416e-08
6.05415e-08
6.21342e-08
6.27258e-08
6.27207e-08
6.35384e-08
6.22523e-08
6.24054e-08
0
0
0
1.14829e-07
8.1855e-08
6.48547e-08
0
0
0
0
0
0
0
0
0
0
0
0
0
6.08968e-08
6.55576e-08
0
6.36792e-08
6.25523e-08
6.4058e-08
6.48421e-08
6.25717e-08
6.42313e-08
8.52069e-08
1.2401e-07
6.08669e-08
6.05446e-08
9.96858e-09
6.12834e-08
4.6807e-08
6.32826e-08
6.24678e-08
5.75417e-08
6.17381e-08
1.46017e-07
5.97841e-08
6.19636e-08
6.20224e-08
0
6.25292e-08
6.24365e-08
1.55321e-07
6.08721e-08
6.07789e-08
6.54593e-08
0
0
1.21042e-07
8.18391e-08
6.55576e-08
1.9286e-08
3.45221e-08
1.46078e-07
6.32778e-08
6.09818e-08
6.10379e-08
6.16726e-08
6.25384e-08
6.17142e-08
0
6.21458e-08
6.12358e-08
9.9104e-08
1.02913e-07
6.20881e-08
6.29216e-08
6.27056e-08
6.26991e-08
8.45476e-08
1.24389e-07
6.14975e-08
9.56771e-08
9.7377e-08
6.1279e-08
0
6.28929e-08
0
0
0
0
0
0
0
0
0
0
0
0
0
6.54433e-08
6.2871e-08
2.78762e-08
1.3817e-08
6.18483e-08
6.38517e-08
6.35963e-08
6.29975e-08
6.21079e-08
6.30954e-08
6.32719e-08
6.27619e-08
6.15587e-08
6.08836e-08
6.36136e-08
6.26953e-08
6.34353e-08
6.34315e-08
8.81571e-08
3.29204e-08
6.10004e-08
6.50061e-08
6.25149e-08
6.16801e-08
6.13788e-08
1.52921e-07
6.07475e-08
9.32912e-08
3.06422e-08
5.95719e-08
6.57201e-08
0
1.49232e-07
5.88211e-08
6.40068e-08
6.07533e-09
8.94478e-08
1.03125e-07
1.54214e-07
6.09969e-08
6.07691e-08
6.17008e-08
6.27888e-08
6.31413e-08
6.13734e-08
0
5.92572e-08
6.15871e-08
6.87066e-08
1.44176e-07
5.91433e-08
6.30339e-08
6.22084e-08
1.56819e-07
6.02034e-08
6.0196e-08
6.22725e-08
6.84551e-08
9.63184e-08
6.95001e-08
3.13339e-08
4.60718e-08
0
0
0
0
0
0
0
0
0
0
0
0
0
6.13425e-08
5.97888e-08
6.53631e-08
0
6.15106e-08
6.00591e-08
5.93264e-08
6.17158e-08
6.28307e-08
6.2866e-08
6.36771e-08
6.22344e-08
6.10989e-08
7.40832e-08
1.35577e-07
6.04754e-08
6.38941e-08
0
6.12446e-08
6.3111e-08
6.11143e-08
6.17803e-08
0
6.26471e-08
1.50753e-07
5.88996e-08
6.27399e-08
6.40492e-08
6.09793e-08
6.3354e-08
6.79988e-08
0
6.06314e-08
6.30534e-08
3.38636e-08
2.77374e-09
1.50417e-07
6.19026e-08
1.56746e-07
5.99527e-08
6.09034e-08
6.36876e-08
6.39171e-08
0
1.43888e-07
5.97898e-08
6.39729e-08
6.1335e-08
6.19074e-08
6.20348e-08
7.30219e-08
1.39563e-07
6.14582e-08
6.07593e-08
1.16959e-07
7.69886e-08
6.14962e-08
6.41373e-08
6.26448e-08
6.31779e-08
6.31897e-08
6.24472e-08
0
0
0
0
0
0
0
0
0
0
0
0
0
6.04894e-08
5.98682e-08
6.15792e-08
6.46079e-08
6.39759e-08
6.4662e-08
0
6.66051e-08
1.50356e-07
6.00018e-08
6.00005e-08
8.37705e-08
1.1826e-07
6.12461e-08
6.10312e-08
6.09636e-08
6.21339e-08
6.12334e-08
6.35218e-08
2.71967e-08
1.98513e-08
5.30071e-08
6.28241e-08
6.44972e-08
6.22555e-08
6.12336e-08
6.22142e-08
6.29851e-08
6.23137e-08
6.38576e-08
2.98184e-08
1.11122e-08
6.12262e-08
6.18048e-08
6.1598e-08
7.10484e-08
8.29314e-08
1.18049e-07
6.29396e-08
6.29198e-08
0
6.06869e-08
6.51496e-08
1.50249e-07
0
6.11948e-08
1.17774e-07
7.67003e-08
5.97772e-08
6.18562e-08
6.05028e-08
0
6.29506e-08
6.47395e-08
6.53919e-08
6.25493e-08
1.52876e-07
6.14226e-08
6.20541e-08
6.27649e-08
6.23769e-08
6.22681e-08
0
0
0
0
0
0
0
0
0
0
0
0
0
6.00695e-08
0
6.17369e-08
6.38836e-08
1.08737e-07
1.00069e-07
6.48139e-08
6.45939e-08
6.09989e-08
6.05405e-08
5.99257e-08
9.24043e-08
1.12052e-07
6.01145e-08
5.98997e-08
6.12805e-08
6.15613e-08
6.1698e-08
6.35637e-08
6.32626e-08
6.51159e-08
6.19572e-08
6.73185e-08
0
6.30414e-08
6.07266e-08
6.21749e-08
6.28224e-08
6.28657e-08
6.28197e-08
6.28311e-08
1.55136e-07
6.23434e-08
6.08166e-08
6.37656e-08
1.71017e-08
3.16663e-08
6.29086e-08
6.53407e-08
6.05266e-08
6.15228e-08
6.76979e-08
0
0
1.49255e-07
5.95694e-08
5.96661e-08
5.99693e-08
6.07392e-08
6.10474e-08
9.18096e-08
1.44466e-07
1.13884e-07
6.67326e-08
6.35588e-08
6.08925e-08
6.1269e-08
6.18195e-08
6.22985e-08
1.16611e-07
7.73756e-08
0
0
0
0
0
0
0
0
0
0
0
0
0
0
6.00988e-08
1.04339e-07
9.52609e-08
6.50967e-08
6.35449e-08
6.08844e-08
6.11187e-08
1.56369e-07
6.13364e-08
6.06065e-08
5.99984e-08
6.072e-08
1.53759e-07
6.20753e-08
5.9476e-08
6.08925e-08
6.07659e-08
8.20645e-08
6.27412e-08
3.9318e-08
6.22947e-08
5.6473e-08
6.47539e-08
3.0039e-08
8.36754e-09
6.22845e-08
6.20995e-08
6.26436e-08
6.40923e-08
1.21618e-07
8.09595e-08
6.23643e-08
6.36704e-08
5.7232e-08
6.39721e-08
0
6.28345e-08
6.22362e-08
6.74001e-08
2.31828e-08
8.21262e-08
5.0838e-08
9.48224e-08
6.12144e-08
6.23921e-08
6.29521e-08
1.39917e-07
5.96944e-08
6.03415e-08
6.03622e-08
6.03426e-08
6.43189e-08
6.74553e-08
2.44205e-08
2.87174e-08
5.86442e-08
1.47042e-07
5.97486e-08
1.05896e-07
8.87985e-08
5.92976e-08
0
0
0
0
0
0
0
0
0
0
0
0
0
0
5.94328e-08
6.31444e-08
1.57274e-07
6.12463e-08
1.01308e-07
1.08803e-07
6.37159e-08
6.22131e-08
6.19628e-08
6.13153e-08
6.03747e-08
6.07159e-08
6.1773e-08
1.11271e-07
7.2786e-08
7.62167e-08
6.00127e-08
6.12426e-08
6.16057e-08
6.16452e-08
6.24701e-08
6.21451e-08
6.3828e-08
6.37827e-08
6.19738e-08
6.07736e-08
6.24851e-08
0
6.10153e-08
6.19841e-08
6.29414e-08
7.73415e-08
1.37423e-07
6.27067e-08
3.89337e-09
5.80538e-08
6.47463e-08
6.26839e-08
6.68774e-08
0
6.2295e-08
6.40053e-08
9.25051e-08
1.1941e-07
6.14826e-08
1.42638e-07
5.75658e-08
5.96247e-08
6.03717e-08
6.13246e-08
6.15686e-08
6.70121e-08
0
6.39891e-08
6.35989e-08
6.3771e-08
6.26793e-08
0
0
6.4004e-08
8.6888e-08
1.10484e-07
0
0
0
0
0
0
0
0
0
0
0
0
0
6.21843e-08
6.21632e-08
6.13428e-08
6.28965e-08
6.34415e-08
6.51424e-08
6.59043e-08
6.53336e-08
6.30088e-08
6.10324e-08
6.08345e-08
6.13853e-08
8.2671e-08
1.29135e-07
6.47768e-08
0
6.08983e-08
6.66282e-08
1.50419e-07
6.23865e-08
6.03229e-08
6.26586e-08
6.19272e-08
6.07861e-08
6.25508e-08
6.1581e-08
6.2169e-08
0
6.13677e-08
6.26909e-08
6.34109e-08
6.52388e-08
1.05254e-07
7.76988e-08
7.92182e-09
6.29328e-08
6.40785e-08
6.34517e-08
6.37089e-08
6.31281e-08
6.24947e-08
1.02243e-07
1.03141e-07
6.33154e-08
6.04139e-08
6.00501e-08
5.94364e-08
6.14422e-08
6.32878e-08
6.11479e-08
5.77674e-08
0
6.3836e-08
6.34063e-08
6.33515e-08
6.47728e-08
6.40207e-08
6.17956e-08
6.28305e-08
1.50024e-07
5.85154e-08
6.29318e-08
6.47109e-08
6.19114e-08
0
0
0
0
0
0
0
0
0
0
0
6.27229e-08
6.16316e-08
6.15978e-08
6.41891e-08
9.64167e-08
1.158e-07
6.67845e-08
6.33263e-08
3.08905e-08
3.62783e-09
0
0
0
0
3.3473e-08
8.2871e-08
1.98521e-08
7.46731e-08
9.44837e-08
6.36059e-08
5.96827e-08
6.26503e-08
0
5.84986e-08
1.54531e-07
5.98176e-08
5.97393e-08
6.43484e-08
1.3883e-08
4.61588e-08
1.47934e-07
0
6.21133e-08
6.33999e-08
6.28427e-08
1.54383e-07
6.22632e-08
6.35112e-08
6.41951e-08
6.25967e-08
6.24524e-08
6.28184e-08
6.23582e-08
6.34543e-08
6.18947e-08
6.35155e-08
5.96045e-08
2.07476e-08
2.30961e-08
6.41326e-08
5.93174e-08
6.14403e-08
6.33239e-08
6.26949e-08
6.74304e-08
3.52596e-08
3.55659e-08
3.05033e-08
6.34609e-08
6.14006e-08
6.10576e-08
6.18595e-08
6.2083e-08
6.23471e-08
0
0
0
0
0
0
0
0
0
0
0
6.29677e-08
6.31561e-08
6.2054e-08
6.16466e-08
7.57572e-08
1.41585e-07
6.33247e-08
6.16204e-08
6.11296e-08
2.31433e-08
8.81765e-08
6.02617e-08
8.82893e-08
1.22138e-07
6.21609e-08
6.3138e-08
6.05046e-08
6.09404e-08
6.4652e-08
6.39303e-08
6.11128e-08
6.07763e-08
6.08139e-08
6.49873e-08
6.51177e-08
6.3024e-08
6.10035e-08
6.22863e-08
6.32797e-08
1.5465e-07
6.4039e-08
6.12332e-08
6.15742e-08
1.56211e-07
6.03433e-08
6.69087e-08
6.04457e-08
6.52193e-08
0
6.23953e-08
6.20278e-08
6.55613e-08
6.50508e-08
6.23832e-08
0
6.31599e-08
6.22938e-08
6.05653e-08
2.3174e-08
3.40636e-08
5.42234e-08
5.77801e-08
6.38534e-08
6.24028e-08
6.26223e-08
6.37745e-08
6.31611e-08
8.00708e-08
4.94763e-08
6.45288e-08
6.32794e-08
7.19836e-08
1.37578e-07
0
0
0
0
0
0
0
0
0
0
0
0
6.31095e-08
6.32449e-08
6.25425e-08
6.19695e-08
7.93186e-08
1.37444e-07
6.26829e-08
6.19548e-08
6.31599e-08
6.13481e-08
6.00122e-08
1.41629e-07
5.90221e-08
1.54667e-07
0
5.69263e-08
6.01979e-08
6.13313e-08
6.19914e-08
6.38055e-08
6.11891e-08
5.9697e-08
6.02826e-08
6.06122e-08
6.14553e-08
6.15187e-08
6.02131e-08
1.52266e-07
6.23468e-08
6.96165e-08
1.44081e-07
6.00893e-08
6.04225e-08
6.19039e-08
6.3222e-08
6.34392e-08
6.3587e-08
3.45264e-08
3.40497e-09
6.20271e-08
6.16062e-08
6.3447e-08
6.12127e-08
6.00858e-08
6.19984e-08
0
5.97687e-08
6.12389e-08
3.05132e-08
7.12732e-08
5.42104e-10
6.24492e-08
6.40671e-08
6.13973e-08
6.47558e-08
6.29776e-08
6.32529e-08
6.47866e-08
1.61572e-07
6.16092e-08
8.52623e-08
3.68957e-08
5.97804e-08
0
0
0
0
0
0
0
0
0
0
0
0
6.36504e-08
6.44857e-08
0
0
6.28608e-08
6.35264e-08
0
0
0
6.40646e-08
6.07494e-08
8.24955e-09
1.07638e-07
2.12821e-08
5.27695e-08
6.14656e-08
5.98261e-08
3.03703e-08
8.32322e-08
6.35772e-08
1.28268e-08
3.77602e-08
6.2942e-08
1.53859e-07
5.84337e-08
5.95551e-08
6.35357e-08
6.18763e-08
1.53942e-07
6.06201e-08
1.59597e-07
6.02535e-08
5.97547e-08
6.22468e-08
6.1904e-08
6.46317e-08
0
6.48238e-08
9.15811e-08
1.6521e-07
7.65864e-08
5.77933e-09
6.28232e-08
6.16922e-08
6.22375e-08
6.18502e-08
6.1125e-08
6.03945e-08
6.21759e-08
6.67215e-08
6.4552e-08
6.21979e-08
6.04184e-08
8.10631e-08
8.0372e-08
6.95358e-08
9.97853e-08
6.71839e-08
6.43321e-08
6.35711e-08
2.41625e-08
4.12197e-08
3.44859e-08
0
0
0
0
0
0
0
0
0
0
0
0
1.20042e-07
0
6.20324e-08
6.32165e-08
0
6.44432e-08
6.29196e-08
9.0758e-08
1.22611e-07
0
6.14708e-08
1.119e-07
6.21753e-08
6.03785e-08
6.18089e-08
6.3969e-08
0
1.47669e-07
1.47978e-07
2.24112e-09
5.92365e-08
1.5551e-07
6.18422e-08
6.07698e-08
6.18769e-08
6.15212e-08
6.06228e-08
5.922e-08
0
0
6.26049e-08
6.20307e-08
6.29399e-08
6.39887e-08
6.56674e-08
9.66641e-08
1.09408e-07
6.43411e-08
0
0
2.78806e-08
1.23525e-08
6.20637e-08
6.2398e-08
6.18817e-08
6.15719e-08
6.17155e-08
6.09485e-08
9.57068e-08
1.09362e-07
6.41066e-08
6.45243e-08
6.10596e-08
6.22762e-08
6.19847e-08
2.83503e-08
9.63248e-08
6.73414e-08
3.30754e-08
2.33624e-09
6.11217e-08
6.08217e-08
6.11877e-08
0
0
0
0
0
0
0
0
0
0
0
0
6.34173e-08
0
1.46851e-07
1.49858e-07
6.26574e-08
0
6.19997e-08
6.26828e-08
6.39664e-08
6.24247e-08
6.15628e-08
6.19844e-08
6.16837e-08
0
6.09153e-08
6.25972e-08
6.3354e-08
0
0
6.24667e-08
6.56267e-08
6.43296e-08
6.55254e-08
8.46442e-08
1.22903e-07
6.02601e-08
5.8471e-08
0
1.46518e-07
6.21248e-08
6.11779e-08
6.60375e-08
6.47656e-08
6.3591e-08
5.97076e-08
6.12119e-08
6.1373e-08
6.24478e-08
1.5816e-07
1.53742e-07
5.99249e-08
6.06238e-08
5.97992e-08
5.94162e-08
1.15343e-07
7.99844e-08
5.83421e-08
5.90769e-08
5.57989e-08
5.9564e-08
6.58072e-08
0
6.27757e-08
6.20275e-08
6.1466e-08
6.66224e-08
6.80286e-08
6.64779e-08
6.19157e-08
5.90983e-08
6.41191e-08
6.14353e-08
6.17903e-08
0
0
0
0
0
0
0
0
0
0
0
0
6.16631e-08
0
6.35435e-08
6.27267e-08
6.20125e-08
6.24694e-08
6.26534e-08
6.31305e-08
6.0867e-08
1.45376e-07
5.73175e-08
6.12082e-08
1.66971e-08
2.98682e-08
6.13563e-08
6.30044e-08
6.32543e-08
6.03976e-08
6.17399e-08
6.12777e-08
9.7416e-08
1.11769e-07
6.21462e-08
6.18874e-08
6.22031e-08
6.20827e-08
6.00757e-08
6.19697e-08
0
1.46761e-07
1.53247e-07
6.27285e-08
6.19176e-08
6.49068e-08
0
1.11986e-07
6.64501e-08
6.79962e-08
1.89848e-07
0
5.82738e-08
5.85981e-08
6.09475e-08
1.19783e-07
7.33103e-08
7.78175e-08
1.28792e-07
5.88047e-08
6.11973e-08
6.3834e-08
6.09732e-08
1.49686e-07
6.23981e-08
5.78943e-08
6.19905e-08
9.01811e-09
5.05589e-08
6.59927e-08
6.35284e-08
6.32458e-08
6.25558e-08
6.01066e-08
6.08983e-08
6.00109e-08
0
0
0
0
0
0
0
0
0
0
0
0
1.46928e-07
6.10167e-08
6.24957e-08
5.88875e-08
5.75512e-08
6.04179e-08
6.14372e-08
5.98133e-08
1.17381e-08
1.20339e-07
5.98439e-08
6.05516e-08
6.29883e-08
6.39182e-08
6.23004e-08
6.12691e-08
5.75904e-08
6.11373e-08
6.22635e-08
6.37666e-08
6.57849e-08
6.38692e-08
6.2491e-08
6.2055e-08
6.15802e-08
6.14637e-08
5.95379e-08
6.06487e-08
6.13407e-08
6.35058e-08
6.57556e-09
5.03413e-08
6.18644e-08
6.72414e-08
0
6.31151e-08
2.52102e-07
6.14312e-08
0
1.51966e-07
5.94858e-08
6.14626e-08
6.13283e-08
0
6.03412e-08
1.08959e-07
9.5079e-08
2.01381e-08
2.64061e-08
0
0
6.28532e-08
6.21208e-08
6.25637e-08
6.34787e-08
0
6.27433e-08
6.43469e-08
6.32593e-08
6.15857e-08
6.10903e-08
6.1325e-08
6.10379e-08
0
0
0
0
0
0
0
0
0
0
0
2.9154e-08
6.27868e-08
2.9658e-08
9.37905e-08
5.09373e-08
6.06725e-08
6.05043e-08
6.19053e-08
6.29929e-08
6.24372e-08
6.21336e-08
1.45663e-07
5.95887e-08
6.22187e-08
6.28651e-08
6.17615e-08
6.14624e-08
6.17221e-08
5.94932e-08
6.38139e-08
6.83214e-08
6.64937e-08
2.98005e-08
4.30919e-08
7.99583e-08
8.36512e-08
5.83908e-08
6.04126e-08
5.98586e-08
6.05379e-08
6.30049e-08
6.36692e-08
6.2561e-08
0
6.36292e-08
6.52689e-08
1.48812e-07
0
0
1.53951e-07
6.13946e-08
5.97826e-08
1.48853e-07
5.72942e-08
1.88869e-07
3.82369e-08
8.30903e-08
5.47911e-08
3.35452e-08
6.33166e-08
6.35645e-08
6.39433e-08
7.72715e-08
4.66294e-08
6.00559e-08
1.57422e-07
6.30411e-08
2.68167e-08
1.54908e-08
6.33201e-08
6.34507e-08
1.25894e-08
3.75639e-08
6.09793e-08
0
0
0
0
0
0
0
0
0
0
0
1.93976e-09
6.09089e-08
6.56051e-08
0
1.47342e-07
1.46233e-07
5.90598e-08
6.0514e-08
6.03483e-08
6.22298e-08
6.13044e-08
6.14895e-08
6.33135e-08
6.28895e-08
6.2018e-08
6.09582e-08
1.5201e-07
6.0099e-08
6.07295e-08
1.53538e-07
6.48316e-08
2.09398e-08
3.10637e-08
5.82055e-08
6.19329e-08
6.19704e-08
6.24682e-08
6.4921e-09
6.68906e-08
1.34089e-07
6.1616e-08
6.46543e-08
1.94612e-08
2.72172e-08
6.22188e-08
1.56326e-07
0
6.08981e-08
1.51854e-07
6.03062e-08
6.09732e-08
6.08571e-08
6.16455e-08
6.35771e-08
6.23991e-08
6.02851e-08
6.05652e-08
3.18519e-08
5.4139e-09
6.11498e-08
7.2745e-08
1.42422e-07
6.16447e-08
6.04723e-08
6.15561e-08
6.34219e-08
6.1793e-08
6.48829e-08
0
5.83564e-08
0
6.16163e-08
6.05263e-08
5.95075e-08
0
0
0
0
0
0
0
0
0
0
0
6.40525e-08
6.2384e-08
6.28561e-08
6.0893e-08
6.05725e-08
2.76941e-08
7.86586e-08
6.0723e-08
6.06973e-08
6.27189e-08
6.04121e-08
6.13365e-08
6.24783e-08
6.58063e-08
1.44326e-07
5.92703e-08
6.12745e-08
1.57833e-07
6.1518e-08
6.23161e-08
6.42429e-08
6.19954e-08
6.35102e-08
0
6.02444e-08
6.08671e-08
0
6.16978e-08
6.27665e-08
6.28039e-08
6.34173e-08
6.53614e-08
0
8.84859e-08
1.17667e-07
9.62958e-08
1.35979e-07
1.22553e-07
6.14352e-08
6.07643e-08
6.07556e-08
6.23258e-08
6.28668e-08
4.28257e-09
9.12911e-08
4.01005e-08
4.9904e-08
6.13525e-08
6.19286e-08
6.27164e-08
6.36288e-08
7.7439e-08
7.10265e-08
8.33155e-08
1.03768e-07
6.349e-08
6.24731e-08
1.65971e-08
1.11175e-07
1.46813e-07
6.07747e-08
5.63754e-08
6.02847e-08
0
0
0
0
0
0
0
0
0
0
0
0
6.2499e-08
6.10695e-08
6.07913e-08
6.12613e-08
5.97287e-08
6.26222e-08
1.52881e-08
1.08274e-07
6.20319e-08
6.22475e-08
6.32174e-08
6.43079e-08
1.09446e-07
8.98499e-08
6.01856e-08
6.00056e-08
6.16215e-08
6.35205e-08
6.76695e-08
6.32144e-08
8.55771e-08
4.59764e-08
6.33621e-08
6.27365e-08
6.17684e-08
2.37822e-08
1.86098e-08
6.1669e-08
6.30486e-08
6.36521e-08
2.68472e-08
9.10664e-08
6.27854e-08
6.26881e-08
6.12573e-08
1.53783e-07
6.04715e-08
0
0
6.1939e-08
6.01809e-08
6.74742e-08
5.81118e-08
6.22997e-08
6.18755e-08
6.38291e-08
5.43263e-09
5.16752e-08
6.10839e-08
6.15984e-08
6.26697e-08
1.58961e-07
2.83073e-08
9.01094e-08
6.37705e-08
6.38482e-08
0
1.48342e-07
6.24346e-08
6.04364e-08
1.42093e-07
5.87965e-08
6.42481e-08
0
0
0
0
0
0
0
0
0
0
0
0
6.1369e-08
6.08526e-08
6.24643e-08
6.23636e-08
6.37193e-08
6.02274e-08
0
6.36795e-08
1.46572e-07
6.06436e-08
0
5.979e-08
5.82178e-08
2.18781e-08
9.52036e-08
6.03677e-08
6.35883e-08
6.33028e-08
6.48052e-08
4.00221e-09
5.86225e-08
1.54144e-07
6.1222e-08
6.188e-08
6.11715e-08
6.20168e-08
6.2883e-08
6.34225e-08
6.15343e-08
5.97093e-08
6.04466e-08
6.08798e-08
1.54784e-07
6.16066e-08
0
0
0
1.53292e-07
6.08921e-08
0
6.2557e-08
6.23715e-08
6.3999e-08
6.05374e-08
6.45579e-08
2.79787e-08
1.279e-08
6.19113e-08
6.13326e-08
7.38322e-08
1.39924e-07
6.51005e-08
6.09837e-08
6.04689e-08
6.43033e-08
6.40976e-08
6.28929e-08
6.28634e-08
6.22434e-08
6.23927e-08
0
5.994e-08
6.38093e-08
0
0
0
0
0
0
0
0
0
0
0
0
4.65906e-08
6.11236e-08
1.54025e-07
5.96601e-08
5.92708e-08
6.471e-08
6.54258e-08
0
6.28775e-08
1.46652e-07
6.6451e-08
0
0
6.17902e-08
6.23692e-08
6.22028e-08
6.46935e-08
6.5257e-08
6.74555e-08
6.48061e-08
6.08514e-08
6.10446e-08
6.30469e-08
6.25861e-08
6.52899e-08
5.73965e-08
6.32483e-08
6.31143e-08
5.96547e-08
5.88051e-08
1.16731e-07
7.74375e-08
6.24579e-08
6.18269e-08
6.2155e-08
6.4848e-08
6.30121e-08
6.32993e-08
6.11718e-08
6.13126e-08
6.16925e-08
6.21868e-08
6.5177e-08
6.25713e-08
6.34825e-08
6.41661e-08
6.21655e-08
6.17528e-08
5.96937e-08
6.17676e-08
8.29371e-08
1.29443e-07
6.04584e-08
6.04348e-08
6.44256e-08
6.46849e-08
6.34708e-08
6.2903e-08
6.21319e-08
6.09673e-08
6.16318e-08
5.91023e-08
6.04583e-08
0
0
0
0
0
0
0
0
0
0
0
0
6.17436e-08
1.06559e-07
9.07307e-08
6.09959e-08
6.01996e-08
6.11666e-08
6.40839e-08
6.44129e-08
6.40155e-08
6.14034e-08
6.19147e-08
6.30628e-08
6.07557e-08
6.04047e-08
6.32898e-08
6.10482e-08
1.52171e-07
6.39379e-08
6.32788e-08
1.06447e-07
9.85411e-08
6.04323e-08
2.33271e-08
1.79183e-08
6.12092e-08
5.95233e-08
6.06577e-08
6.28355e-08
6.17899e-08
6.12555e-08
1.49013e-07
6.09912e-08
6.24151e-08
6.51752e-08
6.13217e-08
1.4933e-08
3.43585e-08
9.87731e-08
1.04384e-07
1.48335e-07
0
6.33443e-08
6.41974e-08
6.26006e-08
6.25596e-08
6.16083e-08
6.32651e-08
1.47693e-07
6.15026e-08
6.19478e-08
6.29497e-08
6.41455e-08
6.29324e-08
6.07429e-08
1.57058e-07
6.59869e-08
2.84522e-08
9.30683e-08
6.16936e-08
6.14168e-08
1.45127e-07
5.91833e-08
5.74845e-08
0
0
0
0
0
0
0
0
0
0
0
0
6.04414e-08
6.08084e-08
6.10985e-08
6.12986e-08
6.31579e-08
6.22323e-08
6.21053e-08
1.59603e-07
6.39807e-08
0
1.48449e-07
6.39727e-08
7.77029e-08
3.99523e-08
6.17583e-08
6.05519e-08
6.57647e-08
6.35341e-08
6.13582e-08
6.2673e-08
7.36629e-08
1.38533e-07
3.18873e-08
3.3419e-09
6.15716e-08
6.23085e-08
6.26298e-08
6.22032e-08
6.15106e-08
6.09009e-08
1.52736e-07
6.00336e-08
6.51877e-08
6.48734e-08
4.78078e-09
1.33228e-07
1.44522e-07
1.0075e-07
9.15808e-08
6.21344e-08
1.27388e-08
4.08713e-08
6.35623e-08
1.06018e-07
7.13352e-08
8.34642e-08
5.86341e-08
6.14646e-08
6.04983e-08
6.43312e-08
7.19022e-08
6.42152e-08
5.5624e-08
1.46502e-07
6.23118e-08
0
6.28387e-08
6.3119e-08
0
0
0
6.1415e-08
6.13681e-08
0
0
0
0
0
0
0
0
0
0
0
0
8.6365e-08
2.80951e-08
6.38532e-08
8.02862e-08
1.21356e-07
6.15334e-08
6.21372e-08
6.23731e-08
6.52435e-08
0
6.17466e-08
5.92736e-08
0
1.43984e-07
1.46273e-07
6.19609e-08
6.32279e-08
6.2594e-08
0
6.49544e-08
6.20116e-08
6.28711e-08
6.26347e-08
6.04229e-08
6.38589e-08
6.16991e-08
6.09861e-08
6.11447e-08
6.13163e-08
6.0408e-08
6.05755e-08
6.25847e-08
6.37258e-08
6.30282e-08
6.13386e-08
6.08503e-08
6.39131e-08
6.52595e-08
0
5.9312e-08
6.28092e-08
6.4773e-08
6.43245e-08
6.00917e-08
5.8612e-08
1.48898e-07
6.06814e-08
6.06996e-08
6.089e-08
9.49652e-08
1.13837e-07
6.51899e-08
0
6.14337e-08
6.07938e-08
1.50706e-07
2.19728e-08
5.94344e-08
1.4698e-07
6.03397e-08
6.13294e-08
9.04834e-08
2.93669e-08
0
0
0
0
0
0
0
0
0
0
0
0
6.1701e-08
6.30845e-08
6.18832e-08
6.06643e-08
1.50183e-07
6.36173e-08
2.53833e-08
3.51292e-08
4.44144e-08
6.36606e-08
6.19842e-08
2.45833e-08
1.31148e-08
6.22161e-08
6.3051e-08
6.30949e-08
0
6.39552e-08
6.37477e-08
6.34795e-08
6.12061e-08
6.25963e-08
6.09566e-08
8.60702e-08
1.19723e-07
6.24608e-08
6.1692e-08
6.04963e-08
6.10959e-08
6.19257e-08
6.24646e-08
6.30334e-08
6.08506e-08
0
7.46684e-08
5.25247e-08
6.41796e-08
6.55165e-08
6.31162e-08
6.21948e-08
6.40454e-08
6.40872e-08
6.37661e-08
6.11001e-08
6.18808e-08
6.24096e-08
6.45623e-08
9.3247e-08
2.93859e-08
1.54164e-07
6.3035e-08
6.37209e-08
6.29692e-08
0
6.16959e-08