/*--------------------------------*- C++ -*----------------------------------*\
  =========                 |
  \\      /  F ield         | OpenFOAM: The Open Source CFD Toolbox
   \\    /   O peration     | Website:  https://openfoam.org
    \\  /    A nd           | Version:  12
     \\/     M anipulation  |
\*---------------------------------------------------------------------------*/
FoamFile
{
    format      ascii;
    class       volVectorField::Internal;
    location    "0.25";
    object      cloud:UTrans;
}
// * * * * * * * * * * * * * * * * * * * * * * * * * * * * * * * * * * * * * //

dimensions      [1 1 -1 0 0 0 0];

value           nonuniform List<vector> 
3750
(
(0 0 0)
(-1.86017e-11 -2.36666e-09 0)
(1.84652e-10 -2.22231e-09 0)
(2.03023e-10 -2.18904e-09 0)
(7.7513e-11 -3.39986e-09 0)
(9.86005e-11 -3.45349e-09 0)
(6.02588e-12 -2.25536e-09 0)
(-4.13724e-11 -2.50665e-09 0)
(0 0 0)
(6.91978e-11 -2.4739e-09 0)
(5.19708e-12 -4.12022e-10 0)
(2.71446e-11 -2.14614e-09 0)
(5.23453e-11 -3.42649e-09 0)
(1.258e-10 -2.24671e-09 0)
(-4.13883e-11 -2.25091e-09 0)
(-1.06394e-10 -2.22051e-09 0)
(-2.88943e-11 -4.51805e-09 0)
(1.60598e-10 -1.92214e-09 0)
(-9.2006e-11 -2.57989e-09 0)
(-4.93304e-11 -2.20535e-09 0)
(7.30978e-11 -1.97136e-09 0)
(4.52962e-12 -1.92899e-09 0)
(-1.31469e-11 -1.97419e-09 0)
(-1.23576e-10 -5.2535e-09 0)
(1.06307e-10 -2.48867e-09 0)
(5.91417e-11 -2.4626e-09 0)
(0 0 0)
(1.10588e-11 -2.19047e-09 0)
(1.23107e-10 -2.26072e-09 0)
(1.40143e-10 -2.36226e-09 0)
(-2.30865e-11 -2.26092e-09 0)
(3.24232e-11 -2.14465e-09 0)
(2.01284e-11 -2.13398e-09 0)
(1.23618e-10 -4.93857e-09 0)
(-6.94584e-13 -1.90547e-09 0)
(-4.77133e-10 -2.26079e-09 0)
(-2.8071e-10 -2.40147e-09 0)
(-1.69326e-10 -2.52063e-09 0)
(-4.79392e-12 -2.3154e-09 0)
(-2.08315e-12 -3.83532e-10 0)
(-1.23653e-11 -1.75921e-09 0)
(-3.91803e-11 -2.32917e-09 0)
(1.79337e-10 -2.23714e-09 0)
(2.08436e-10 -2.28435e-09 0)
(6.67352e-11 -2.12651e-09 0)
(1.87985e-11 -2.0871e-09 0)
(-8.81066e-12 -2.14918e-09 0)
(5.99996e-12 -2.36534e-09 0)
(0 0 0)
(-1.32232e-11 -1.69231e-09 0)
(2.13887e-10 -3.84543e-09 0)
(9.21104e-12 -1.57319e-10 0)
(1.49586e-11 -4.30306e-09 0)
(1.38787e-11 -2.66839e-09 0)
(3.16584e-11 -2.2161e-09 0)
(7.20081e-11 -2.19488e-09 0)
(-1.72401e-11 -3.97123e-09 0)
(-1.28247e-11 -1.31401e-09 0)
(-1.89114e-11 -1.36377e-09 0)
(-6.1251e-13 -2.2053e-09 0)
(7.01767e-11 -2.51716e-09 0)
(4.09267e-11 -2.54641e-09 0)
(-6.51485e-11 -2.31892e-09 0)
(-4.3244e-11 -2.31332e-09 0)
(0 0 0)
(1.05726e-11 -2.19748e-09 0)
(8.63193e-11 -1.95517e-09 0)
(2.96533e-10 -1.92659e-09 0)
(0 0 0)
(0 0 0)
(0 0 0)
(0 0 0)
(0 0 0)
(0 0 0)
(0 0 0)
(-7.57735e-11 -2.02978e-09 0)
(-5.19808e-11 -2.18396e-09 0)
(-1.58961e-11 -2.22069e-09 0)
(1.4623e-10 -2.19253e-09 0)
(-6.51605e-11 -2.19082e-09 0)
(5.21055e-12 -2.11982e-09 0)
(-4.99685e-11 -8.58851e-10 0)
(-1.98426e-10 -2.81292e-09 0)
(3.06987e-12 -2.41658e-09 0)
(1.76619e-10 -2.1428e-09 0)
(2.03502e-10 -2.28742e-09 0)
(1.12072e-11 -2.01318e-09 0)
(5.56726e-11 -1.9238e-09 0)
(8.26798e-11 -2.37831e-09 0)
(0 0 0)
(1.49762e-10 -1.99364e-09 0)
(-6.26277e-11 -2.34488e-09 0)
(-2.74268e-10 -3.31249e-09 0)
(-4.38377e-10 -3.73417e-09 0)
(-1.39152e-10 -2.24593e-09 0)
(0 0 0)
(-3.5952e-11 -1.86862e-09 0)
(1.97804e-11 -1.83543e-09 0)
(-2.849e-11 -2.15137e-09 0)
(1.06588e-10 -2.31685e-09 0)
(1.15889e-10 -2.20228e-09 0)
(1.30906e-10 -2.61775e-09 0)
(1.30744e-10 -3.95468e-09 0)
(6.43669e-12 -1.99089e-09 0)
(-8.00565e-12 -2.11969e-09 0)
(6.09653e-11 -2.1821e-09 0)
(6.59229e-11 -2.16292e-09 0)
(6.77216e-11 -2.20187e-09 0)
(0 0 0)
(-1.48828e-10 -1.86882e-09 0)
(-2.87109e-10 -2.04778e-09 0)
(-1.94987e-10 -2.15627e-09 0)
(-1.10099e-10 -2.24163e-09 0)
(-3.53012e-11 -2.19805e-09 0)
(7.77418e-11 -2.1296e-09 0)
(3.2947e-10 -2.03426e-09 0)
(1.234e-10 -2.23243e-09 0)
(7.68649e-11 -2.11144e-09 0)
(0 0 0)
(8.77185e-12 -2.68155e-09 0)
(-5.61924e-11 -5.75382e-09 0)
(-4.28964e-10 -4.39012e-09 0)
(-4.54549e-12 -2.40935e-09 0)
(4.68462e-11 -2.01466e-09 0)
(3.53405e-12 -1.98122e-09 0)
(-9.12415e-12 -1.98624e-09 0)
(0 0 0)
(-4.171e-11 -2.45505e-09 0)
(-1.18461e-10 -1.70696e-09 0)
(-2.17439e-10 -1.98838e-09 0)
(-1.14544e-10 -2.18267e-09 0)
(4.59161e-11 -8.32092e-10 0)
(3.86138e-11 -6.20158e-10 0)
(-9.70342e-11 -2.2131e-09 0)
(-1.28422e-10 -2.14087e-09 0)
(-1.85594e-11 -2.14052e-09 0)
(1.50035e-10 -7.82591e-09 0)
(2.22685e-10 -1.82657e-09 0)
(0 0 0)
(0 0 0)
(0 0 0)
(0 0 0)
(0 0 0)
(0 0 0)
(0 0 0)
(0 0 0)
(0 0 0)
(0 0 0)
(0 0 0)
(0 0 0)
(-3.37806e-11 -2.08078e-09 0)
(-5.48972e-11 -2.10137e-09 0)
(1.87726e-11 -2.09498e-09 0)
(-3.43623e-11 -2.19218e-09 0)
(-1.10824e-10 -2.20589e-09 0)
(-9.2142e-11 -2.63431e-09 0)
(-1.88302e-10 -4.04688e-09 0)
(-9.75937e-11 -2.34837e-09 0)
(5.02156e-11 -1.98579e-09 0)
(8.40066e-11 -1.5787e-09 0)
(7.38289e-11 -2.49476e-09 0)
(0 0 0)
(9.5502e-11 -2.2725e-09 0)
(-4.41302e-11 -4.57823e-09 0)
(5.34018e-11 -2.37383e-09 0)
(-2.78032e-11 -1.00364e-09 0)
(1.22765e-10 -4.2238e-09 0)
(-3.01894e-10 -3.8414e-09 0)
(-1.48855e-10 -2.36361e-09 0)
(0 0 0)
(-9.03143e-11 -1.99754e-09 0)
(1.1289e-11 -2.11181e-09 0)
(-1.64074e-10 -4.16161e-09 0)
(2.65593e-11 -1.80457e-09 0)
(-2.71966e-12 -2.1165e-09 0)
(1.20347e-10 -2.65051e-09 0)
(2.24158e-11 -8.72763e-10 0)
(2.3977e-11 -1.01111e-09 0)
(5.14795e-11 -2.14315e-09 0)
(-1.80099e-11 -1.99272e-09 0)
(-1.20356e-11 -2.08133e-09 0)
(7.83793e-11 -2.16715e-09 0)
(2.61078e-11 -1.84886e-09 0)
(7.43475e-12 -2.10463e-09 0)
(-9.78822e-11 -2.13601e-09 0)
(-5.90036e-11 -2.218e-09 0)
(-3.69748e-11 -2.29044e-09 0)
(1.79723e-11 -2.1129e-09 0)
(-2.48703e-12 -1.98255e-09 0)
(-6.37328e-11 -2.05255e-09 0)
(4.69073e-11 -5.03774e-09 0)
(4.43943e-11 -1.95501e-09 0)
(2.13065e-11 -2.04138e-09 0)
(-1.89504e-11 -2.72058e-09 0)
(-9.88129e-11 -2.49045e-09 0)
(-3.79125e-11 -9.91438e-10 0)
(-3.92303e-11 -1.83261e-09 0)
(2.41206e-10 -1.96317e-09 0)
(2.04997e-10 -2.11495e-09 0)
(8.18661e-11 -2.07729e-09 0)
(1.59991e-10 -1.9732e-09 0)
(5.6385e-12 -8.71877e-10 0)
(2.09188e-11 -1.61394e-09 0)
(7.54625e-11 -2.32568e-09 0)
(8.24793e-11 -3.7513e-09 0)
(-1.22693e-10 -1.95165e-09 0)
(-1.56169e-11 -1.77666e-09 0)
(-2.30411e-10 -4.88218e-09 0)
(-8.07566e-11 -2.05802e-09 0)
(-1.44044e-10 -2.29214e-09 0)
(-1.05746e-10 -2.01646e-09 0)
(-1.32169e-10 -2.27623e-09 0)
(0 0 0)
(0 0 0)
(0 0 0)
(0 0 0)
(0 0 0)
(0 0 0)
(0 0 0)
(0 0 0)
(0 0 0)
(0 0 0)
(0 0 0)
(0 0 0)
(0 0 0)
(-8.36991e-11 -2.09512e-09 0)
(-8.64404e-11 -2.2144e-09 0)
(0 0 0)
(-2.39034e-10 -5.18347e-09 0)
(-9.18859e-11 -2.01944e-09 0)
(-1.39377e-10 -1.83674e-09 0)
(-1.82563e-10 -5.10415e-09 0)
(-2.07299e-10 -2.07117e-09 0)
(3.07936e-12 -3.3011e-10 0)
(5.1377e-11 -4.18425e-09 0)
(0 0 0)
(-4.38791e-11 -2.25799e-09 0)
(-1.11521e-10 -2.2123e-09 0)
(-1.12623e-11 -2.89877e-09 0)
(6.57916e-11 -2.09359e-09 0)
(3.12796e-12 -2.41195e-09 0)
(-1.34018e-10 -2.32133e-09 0)
(-1.10732e-10 -2.38263e-09 0)
(0 0 0)
(1.15702e-10 -1.96893e-09 0)
(-9.60725e-12 -2.2623e-09 0)
(3.65934e-11 -2.14533e-09 0)
(-2.76409e-11 -2.18388e-09 0)
(2.57439e-11 -1.96363e-09 0)
(-2.01249e-11 -2.0811e-09 0)
(4.47014e-11 -1.80429e-09 0)
(4.98276e-11 -2.73133e-09 0)
(-3.56726e-11 -1.26324e-09 0)
(-3.9295e-11 -8.73659e-10 0)
(-8.23814e-11 -1.5704e-09 0)
(7.98477e-11 -1.89489e-09 0)
(8.96463e-11 -2.46023e-09 0)
(-4.30299e-11 -2.09889e-09 0)
(-1.19479e-11 -2.18633e-09 0)
(-2.40141e-11 -2.18103e-09 0)
(-1.04821e-10 -2.16074e-09 0)
(-2.0888e-10 -2.2684e-09 0)
(-1.19504e-10 -4.51104e-09 0)
(-2.80999e-11 -2.00061e-09 0)
(-5.17031e-11 -2.09211e-09 0)
(-4.01763e-11 -2.21491e-09 0)
(-2.57753e-11 -2.23016e-09 0)
(2.90382e-12 -2.19349e-09 0)
(6.21477e-11 -1.99829e-09 0)
(-1.63005e-11 -2.09401e-09 0)
(2.1039e-11 -2.10953e-09 0)
(1.68987e-11 -2.01283e-09 0)
(2.95637e-11 -2.03115e-09 0)
(5.12554e-11 -2.10764e-09 0)
(1.36635e-10 -2.27856e-09 0)
(1.06808e-11 -2.21956e-09 0)
(-9.93467e-12 -2.07432e-09 0)
(1.04589e-10 -2.12003e-09 0)
(1.04368e-10 -2.25951e-09 0)
(-8.15602e-11 -2.27969e-09 0)
(2.11237e-12 -2.07592e-09 0)
(-1.16177e-10 -1.92607e-09 0)
(-2.43329e-10 -1.94717e-09 0)
(-2.87163e-11 -5.1141e-09 0)
(-1.87952e-12 -2.02136e-09 0)
(-1.34651e-10 -2.10993e-09 0)
(-1.50457e-10 -2.16537e-09 0)
(0 0 0)
(0 0 0)
(0 0 0)
(0 0 0)
(0 0 0)
(0 0 0)
(0 0 0)
(0 0 0)
(0 0 0)
(0 0 0)
(0 0 0)
(0 0 0)
(0 0 0)
(-7.27331e-11 -2.43315e-09 0)
(-2.21207e-10 -2.11209e-09 0)
(-6.96694e-11 -8.46794e-10 0)
(-6.38043e-11 -6.93977e-10 0)
(-1.88326e-10 -2.15819e-09 0)
(-1.37072e-10 -4.57963e-09 0)
(-1.36185e-10 -2.00016e-09 0)
(-1.17335e-10 -2.06769e-09 0)
(-3.45708e-11 -1.98646e-09 0)
(1.02977e-11 -2.47482e-09 0)
(1.40387e-10 -4.95405e-09 0)
(7.63829e-11 -2.1544e-09 0)
(-9.08892e-12 -1.86311e-09 0)
(0 0 0)
(8.6569e-11 -2.2274e-09 0)
(-4.86538e-11 -2.33113e-09 0)
(-7.06212e-12 -2.21114e-09 0)
(3.6264e-11 -7.5375e-10 0)
(4.48679e-11 -7.94654e-10 0)
(4.06703e-11 -1.78972e-09 0)
(5.73279e-12 -2.1273e-09 0)
(1.93866e-11 -2.16996e-09 0)
(-2.02051e-10 -1.94527e-09 0)
(-9.76408e-12 -2.20169e-09 0)
(-4.0417e-11 -2.03442e-09 0)
(5.83363e-12 -2.14212e-09 0)
(6.84644e-12 -2.74943e-09 0)
(7.4789e-11 -2.52987e-09 0)
(4.23567e-12 -2.62519e-10 0)
(2.658e-11 -1.56785e-09 0)
(7.22575e-11 -2.19994e-09 0)
(8.91914e-11 -2.18053e-09 0)
(1.27381e-10 -2.21156e-09 0)
(4.58898e-11 -2.19126e-09 0)
(-5.16723e-11 -5.1334e-09 0)
(-7.77909e-11 -1.92353e-09 0)
(-3.74057e-12 -1.97854e-09 0)
(1.4934e-11 -1.99424e-09 0)
(3.8687e-11 -2.07064e-09 0)
(6.54103e-11 -2.21489e-09 0)
(-8.17315e-11 -2.11283e-09 0)
(6.61784e-12 -1.10332e-09 0)
(2.57541e-12 -3.44599e-10 0)
(7.40244e-11 -2.1709e-09 0)
(-1.38389e-11 -2.12893e-09 0)
(4.67489e-11 -2.07456e-09 0)
(-5.63144e-12 -2.31884e-09 0)
(2.89389e-11 -2.16141e-09 0)
(-2.91331e-11 -2.14588e-09 0)
(-6.47633e-11 -5.31502e-09 0)
(9.1553e-11 -2.01917e-09 0)
(5.05235e-11 -2.00693e-09 0)
(1.96661e-10 -2.18766e-09 0)
(9.0675e-11 -2.12903e-09 0)
(-8.5298e-11 -2.1699e-09 0)
(3.99211e-11 -2.13659e-09 0)
(0 0 0)
(0 0 0)
(-2.23777e-10 -2.01407e-09 0)
(-2.37417e-11 -5.43713e-09 0)
(-1.71506e-10 -2.04456e-09 0)
(-7.84751e-11 -2.06399e-09 0)
(0 0 0)
(0 0 0)
(0 0 0)
(0 0 0)
(0 0 0)
(0 0 0)
(0 0 0)
(0 0 0)
(0 0 0)
(0 0 0)
(0 0 0)
(0 0 0)
(0 0 0)
(-6.83238e-11 -2.50441e-09 0)
(-3.34538e-11 -1.04195e-09 0)
(-1.83941e-11 -6.90093e-10 0)
(-5.02517e-11 -1.8864e-09 0)
(-1.43325e-10 -2.21015e-09 0)
(-1.19626e-10 -2.16548e-09 0)
(-7.52882e-11 -2.18793e-09 0)
(-1.32108e-10 -2.11695e-09 0)
(-3.28437e-10 -4.61912e-09 0)
(-7.87376e-11 -1.78378e-09 0)
(-4.73863e-11 -2.08958e-09 0)
(6.04348e-11 -2.13901e-09 0)
(3.92881e-11 -2.15572e-09 0)
(-1.31402e-10 -1.99958e-09 0)
(-1.15372e-10 -2.26422e-09 0)
(-1.58422e-13 -4.93888e-11 0)
(-1.35499e-12 -2.31299e-09 0)
(-3.42859e-11 -2.46862e-09 0)
(3.34526e-11 -2.09475e-09 0)
(2.09559e-11 -1.93893e-09 0)
(9.99082e-11 -2.27669e-09 0)
(2.13795e-11 -4.9768e-10 0)
(6.65483e-11 -1.35061e-09 0)
(9.08103e-12 -2.12287e-09 0)
(-2.09395e-11 -1.93825e-09 0)
(4.11576e-11 -2.0434e-09 0)
(-9.17921e-11 -5.89059e-09 0)
(7.76793e-11 -1.11642e-09 0)
(4.963e-11 -6.20242e-10 0)
(1.48342e-10 -2.14062e-09 0)
(5.87755e-11 -2.06699e-09 0)
(-1.85122e-11 -3.1768e-09 0)
(-9.26911e-11 -3.81187e-09 0)
(-1.12349e-10 -1.98965e-09 0)
(-4.39807e-11 -2.06769e-09 0)
(4.48365e-11 -2.16247e-09 0)
(7.53451e-11 -2.0677e-09 0)
(2.34678e-11 -1.9985e-09 0)
(-5.91334e-12 -2.19001e-09 0)
(-1.31516e-10 -2.08093e-09 0)
(-8.73207e-11 -2.25891e-09 0)
(-6.50278e-11 -2.43698e-09 0)
(-6.87193e-11 -2.34872e-09 0)
(-3.85655e-12 -1.97751e-09 0)
(1.5834e-10 -2.08532e-09 0)
(6.73214e-11 -1.95295e-09 0)
(5.91513e-11 -2.01725e-09 0)
(-1.24216e-14 -2.19016e-09 0)
(-1.26701e-10 -2.25899e-09 0)
(-7.97328e-11 -2.08177e-09 0)
(7.12695e-11 -2.12317e-09 0)
(6.94783e-11 -2.24059e-09 0)
(5.63793e-12 -2.18608e-09 0)
(-6.42395e-11 -2.16616e-09 0)
(-4.90063e-11 -2.17251e-09 0)
(-1.4683e-11 -2.02338e-09 0)
(-6.72453e-11 -4.68956e-09 0)
(-1.22122e-10 -1.96354e-09 0)
(-1.2907e-10 -2.07069e-09 0)
(-2.11585e-10 -2.22939e-09 0)
(-1.85758e-10 -2.21584e-09 0)
(-2.69881e-10 -5.23389e-09 0)
(0 0 0)
(0 0 0)
(0 0 0)
(0 0 0)
(0 0 0)
(0 0 0)
(0 0 0)
(0 0 0)
(0 0 0)
(0 0 0)
(0 0 0)
(0 0 0)
(0 0 0)
(-7.9639e-11 -2.49712e-09 0)
(4.88346e-12 -2.31957e-10 0)
(4.69105e-11 -2.33749e-09 0)
(-1.18622e-11 -1.90847e-09 0)
(-1.01227e-10 -2.30529e-09 0)
(-1.07921e-10 -2.16312e-09 0)
(-1.19863e-10 -2.16408e-09 0)
(-9.25065e-11 -2.1883e-09 0)
(-1.61298e-11 -1.97178e-09 0)
(-1.65778e-10 -2.17241e-09 0)
(1.36514e-10 -2.15574e-09 0)
(4.03714e-11 -2.54122e-09 0)
(-1.50481e-10 -2.1943e-09 0)
(-1.1156e-10 -2.11037e-09 0)
(-5.57934e-11 -2.18126e-09 0)
(2.33366e-12 -2.25467e-09 0)
(4.34649e-11 -2.33609e-09 0)
(-9.53475e-12 -2.30041e-09 0)
(1.96256e-11 -8.21268e-10 0)
(1.70594e-11 -6.03036e-10 0)
(-5.62687e-11 -2.30011e-09 0)
(-2.51188e-11 -2.20971e-09 0)
(3.25127e-12 -2.33418e-09 0)
(1.04427e-11 -2.15326e-09 0)
(-8.11294e-13 -3.95713e-09 0)
(-1.11933e-10 -2.76366e-09 0)
(-1.97127e-11 -2.34522e-09 0)
(1.83271e-10 -2.43773e-09 0)
(2.21183e-10 -2.19963e-09 0)
(1.75296e-10 -2.30526e-09 0)
(2.34496e-11 -2.23581e-09 0)
(-7.91115e-12 -2.18708e-09 0)
(-4.88034e-11 -2.16547e-09 0)
(-5.78852e-11 -2.18065e-09 0)
(-5.2046e-11 -2.16638e-09 0)
(-7.50766e-11 -2.27492e-09 0)
(-5.52791e-11 -2.23391e-09 0)
(-9.67317e-12 -2.30174e-09 0)
(-3.79623e-11 -2.3241e-09 0)
(-1.56994e-10 -3.54253e-09 0)
(-1.02228e-10 -3.68275e-09 0)
(-1.49769e-11 -4.25925e-10 0)
(-5.65437e-11 -1.45044e-09 0)
(-1.01852e-10 -2.20429e-09 0)
(-8.03047e-11 -1.93036e-09 0)
(6.54159e-11 -2.01574e-09 0)
(7.07944e-11 -2.03555e-09 0)
(9.46486e-11 -2.16676e-09 0)
(-6.40476e-11 -2.28118e-09 0)
(-6.18036e-11 -2.06438e-09 0)
(4.11297e-11 -2.18105e-09 0)
(7.4924e-11 -2.21929e-09 0)
(-4.14552e-11 -2.2493e-09 0)
(-2.10576e-10 -3.92327e-09 0)
(-1.19241e-10 -2.64129e-09 0)
(-1.16075e-10 -2.04525e-09 0)
(-1.78966e-10 -2.34661e-09 0)
(3.35941e-11 -1.93744e-09 0)
(-1.5245e-11 -1.73528e-09 0)
(0 0 0)
(0 0 0)
(-1.00369e-10 -2.43612e-09 0)
(-2.46088e-10 -2.27757e-09 0)
(0 0 0)
(0 0 0)
(0 0 0)
(0 0 0)
(0 0 0)
(0 0 0)
(0 0 0)
(0 0 0)
(0 0 0)
(0 0 0)
(0 0 0)
(0 0 0)
(-8.91796e-11 -2.02218e-09 0)
(-4.01754e-11 -3.11593e-09 0)
(6.61565e-11 -2.98354e-09 0)
(5.12605e-12 -2.44606e-09 0)
(7.4105e-12 -6.90034e-10 0)
(9.45641e-12 -8.71569e-10 0)
(-6.37327e-11 -2.17862e-09 0)
(9.50088e-11 -2.22977e-09 0)
(-1.80632e-10 -2.18295e-09 0)
(-3.01014e-10 -2.23611e-09 0)
(-4.98994e-11 -2.02468e-09 0)
(2.84072e-12 -5.54586e-10 0)
(8.76257e-12 -4.0639e-09 0)
(-2.03783e-11 -2.11061e-09 0)
(7.28945e-11 -2.01369e-09 0)
(4.02145e-11 -2.10099e-09 0)
(5.329e-11 -2.37741e-09 0)
(1.14574e-10 -2.33408e-09 0)
(1.26772e-10 -2.10892e-09 0)
(6.39689e-11 -1.94211e-09 0)
(1.12146e-10 -2.06268e-09 0)
(2.03007e-11 -2.08458e-09 0)
(3.46784e-11 -2.03985e-09 0)
(-2.58168e-11 -1.97675e-09 0)
(7.11926e-12 -2.06866e-09 0)
(-1.03319e-10 -3.88548e-09 0)
(7.81899e-12 -2.48914e-09 0)
(4.50688e-11 -2.22995e-09 0)
(-2.27343e-10 -3.4747e-09 0)
(-2.79601e-11 -3.86949e-09 0)
(0 0 0)
(1.69285e-10 -2.05676e-09 0)
(9.66654e-11 -2.10286e-09 0)
(4.3378e-11 -2.27286e-09 0)
(-6.14132e-12 -2.21103e-09 0)
(-2.88836e-12 -2.45294e-09 0)
(-5.02843e-11 -1.1816e-09 0)
(-2.14482e-11 -3.98012e-10 0)
(-1.55408e-10 -2.14012e-09 0)
(-1.37718e-10 -3.82208e-09 0)
(-8.66934e-11 -2.85095e-09 0)
(2.58352e-11 -2.07568e-09 0)
(-3.49345e-13 -2.06919e-09 0)
(-9.39581e-11 -2.02163e-09 0)
(7.75764e-11 -2.0712e-09 0)
(8.891e-11 -1.97359e-09 0)
(4.29604e-11 -2.1184e-09 0)
(1.66212e-11 -2.32708e-09 0)
(0 0 0)
(2.1102e-11 -2.04109e-09 0)
(2.81954e-11 -2.18591e-09 0)
(-7.64015e-11 -2.48408e-09 0)
(-1.54028e-11 -2.13562e-09 0)
(1.50139e-11 -1.97406e-09 0)
(-9.77604e-11 -1.96145e-09 0)
(-9.08321e-11 -2.82007e-09 0)
(-1.86163e-10 -2.38912e-09 0)
(-8.1311e-11 -1.03921e-09 0)
(-9.15255e-11 -2.15076e-09 0)
(4.12988e-11 -4.545e-09 0)
(-1.23178e-10 -5.53679e-09 0)
(0 0 0)
(-1.47174e-10 -2.21055e-09 0)
(-1.11423e-10 -2.0314e-09 0)
(0 0 0)
(0 0 0)
(0 0 0)
(0 0 0)
(0 0 0)
(0 0 0)
(0 0 0)
(0 0 0)
(0 0 0)
(0 0 0)
(0 0 0)
(-4.64796e-11 -2.26117e-09 0)
(3.74453e-11 -2.06894e-09 0)
(-2.06163e-12 -1.98463e-09 0)
(2.10498e-11 -2.17624e-09 0)
(1.23167e-10 -2.29495e-09 0)
(3.41529e-11 -2.23703e-09 0)
(-1.41156e-10 -2.03952e-09 0)
(-2.14721e-10 -2.09226e-09 0)
(-4.21279e-12 -2.42256e-09 0)
(0 0 0)
(3.14922e-11 -2.40188e-09 0)
(-7.36072e-11 -4.46278e-09 0)
(1.75357e-10 -2.10933e-09 0)
(2.59495e-10 -2.16693e-09 0)
(-3.48585e-11 -2.16946e-09 0)
(4.12089e-11 -2.15021e-09 0)
(4.52552e-11 -2.23657e-09 0)
(8.61218e-11 -2.20846e-09 0)
(-2.33601e-13 -1.97216e-09 0)
(1.13058e-10 -4.78976e-09 0)
(7.47372e-11 -2.0282e-09 0)
(-4.35428e-11 -2.01567e-09 0)
(-1.28094e-11 -2.00394e-09 0)
(-3.92083e-11 -1.94792e-09 0)
(9.56988e-12 -2.08927e-09 0)
(-2.74633e-10 -2.11242e-09 0)
(-2.07562e-10 -2.19224e-09 0)
(-1.53899e-10 -5.52455e-09 0)
(-2.00246e-10 -2.0726e-09 0)
(-1.65877e-10 -1.99701e-09 0)
(-3.97172e-11 -2.15649e-09 0)
(2.6953e-10 -2.09638e-09 0)
(1.11564e-11 -1.13641e-10 0)
(2.15957e-10 -1.95265e-09 0)
(3.52492e-11 -2.03824e-09 0)
(-1.04288e-10 -2.14167e-09 0)
(8.39562e-11 -2.49742e-09 0)
(-1.48957e-11 -4.132e-10 0)
(-6.39521e-11 -1.55518e-09 0)
(-9.98757e-11 -3.09384e-09 0)
(-1.34345e-10 -3.35798e-09 0)
(3.95807e-11 -1.89336e-09 0)
(4.36138e-11 -2.05453e-09 0)
(-1.64619e-11 -2.05998e-09 0)
(-8.61485e-11 -1.87932e-09 0)
(-1.40101e-11 -2.06195e-09 0)
(7.06308e-12 -2.02025e-09 0)
(-4.92247e-11 -2.01365e-09 0)
(1.00159e-10 -1.70244e-09 0)
(-1.79081e-11 -2.03668e-09 0)
(-1.05725e-10 -2.31233e-09 0)
(0 0 0)
(1.02995e-11 -2.13735e-09 0)
(3.04475e-11 -2.14424e-09 0)
(2.57432e-11 -2.14516e-09 0)
(-6.92516e-11 -2.28405e-09 0)
(-1.51374e-10 -2.21036e-09 0)
(-1.94311e-10 -2.21565e-09 0)
(-6.92254e-11 -2.05472e-09 0)
(-4.01418e-11 -2.04821e-09 0)
(-8.2559e-11 -2.37617e-09 0)
(-3.98164e-11 -2.41984e-09 0)
(-1.57789e-11 -5.48421e-10 0)
(-3.49523e-11 -1.07605e-09 0)
(0 0 0)
(0 0 0)
(0 0 0)
(0 0 0)
(0 0 0)
(0 0 0)
(0 0 0)
(0 0 0)
(0 0 0)
(0 0 0)
(0 0 0)
(4.21473e-11 -1.7276e-09 0)
(5.60644e-11 -3.36362e-09 0)
(-5.77724e-11 -3.45759e-09 0)
(7.74068e-11 -2.42957e-09 0)
(8.26603e-11 -2.54946e-09 0)
(-2.51582e-10 -2.34528e-09 0)
(-3.68376e-10 -2.30692e-09 0)
(-7.85633e-11 -2.11867e-09 0)
(-7.82883e-11 -2.1275e-09 0)
(1.25297e-10 -2.21675e-09 0)
(-8.69391e-12 -2.12365e-09 0)
(-2.90715e-11 -1.87228e-09 0)
(-1.6703e-12 -2.06989e-09 0)
(1.7337e-11 -1.98064e-09 0)
(3.02603e-11 -2.07467e-09 0)
(1.70311e-11 -2.03063e-09 0)
(-8.57638e-11 -1.88801e-09 0)
(-6.51967e-11 -5.27853e-09 0)
(-1.76925e-11 -1.98856e-09 0)
(4.45038e-11 -1.9258e-09 0)
(4.28818e-10 -5.02865e-09 0)
(1.47033e-11 -1.91688e-09 0)
(-6.88122e-11 -1.82717e-09 0)
(-7.51872e-11 -2.15534e-09 0)
(-1.767e-10 -2.56766e-09 0)
(-1.44863e-10 -2.49748e-09 0)
(-6.30526e-11 -1.11607e-09 0)
(-4.18848e-11 -3.08927e-09 0)
(-1.02553e-10 -2.23217e-09 0)
(-2.63781e-11 -1.98828e-09 0)
(3.49379e-11 -1.95667e-09 0)
(9.12032e-11 -2.05776e-09 0)
(0 0 0)
(1.70541e-10 -2.15909e-09 0)
(1.586e-11 -2.34491e-09 0)
(-1.19619e-10 -2.30586e-09 0)
(-7.18448e-11 -2.35501e-09 0)
(-1.27063e-12 -9.58455e-10 0)
(-4.70324e-12 -7.22663e-10 0)
(-6.35099e-11 -2.18606e-09 0)
(-1.11757e-10 -2.22382e-09 0)
(-1.54557e-10 -3.80544e-09 0)
(-3.45789e-10 -2.68366e-09 0)
(-2.29454e-10 -1.97576e-09 0)
(6.79692e-11 -2.85761e-09 0)
(-3.33678e-12 -1.98568e-09 0)
(-4.63048e-11 -1.28978e-09 0)
(-4.12959e-11 -2.06781e-09 0)
(7.31262e-11 -2.14822e-09 0)
(1.43262e-11 -1.93413e-09 0)
(-1.31115e-11 -1.22839e-09 0)
(-3.52835e-13 -1.41986e-10 0)
(9.07216e-11 -2.21209e-09 0)
(7.50348e-11 -2.16526e-09 0)
(1.57245e-10 -2.09687e-09 0)
(1.49097e-11 -2.40205e-09 0)
(0 0 0)
(-3.90741e-12 -2.18561e-09 0)
(-5.63922e-11 -2.07966e-09 0)
(-4.89741e-11 -2.23095e-09 0)
(-1.53284e-10 -2.60349e-09 0)
(-1.16626e-10 -2.40426e-09 0)
(8.40851e-12 -2.2852e-09 0)
(2.10493e-11 -2.06711e-09 0)
(0 0 0)
(0 0 0)
(0 0 0)
(0 0 0)
(0 0 0)
(0 0 0)
(0 0 0)
(0 0 0)
(0 0 0)
(0 0 0)
(0 0 0)
(8.51224e-11 -2.10817e-09 0)
(8.38287e-11 -2.00373e-09 0)
(1.12523e-10 -1.9884e-09 0)
(-4.51757e-11 -2.14198e-09 0)
(2.63193e-11 -2.3221e-09 0)
(-2.03359e-10 -2.33599e-09 0)
(-1.40661e-10 -2.3123e-09 0)
(-4.85196e-11 -2.21767e-09 0)
(-7.50358e-12 -1.71985e-09 0)
(-3.62377e-11 -2.35774e-09 0)
(0 0 0)
(6.77275e-11 -2.10968e-09 0)
(5.36145e-11 -2.21394e-09 0)
(-7.62471e-11 -2.18415e-09 0)
(-7.90084e-11 -2.17382e-09 0)
(-1.07086e-11 -2.13178e-09 0)
(1.66587e-11 -3.35035e-09 0)
(4.19354e-11 -3.67542e-09 0)
(-1.06099e-10 -2.17932e-09 0)
(-1.91634e-10 -3.89814e-09 0)
(-1.87761e-10 -2.44748e-09 0)
(-6.51853e-11 -1.96792e-09 0)
(-3.23552e-11 -1.85674e-09 0)
(5.83565e-11 -1.96179e-09 0)
(-1.34836e-10 -2.31787e-09 0)
(-1.21676e-10 -2.36502e-09 0)
(-3.93882e-11 -2.32308e-09 0)
(1.06993e-11 -2.24696e-09 0)
(1.3721e-10 -2.43525e-09 0)
(8.25218e-11 -2.19293e-09 0)
(8.03176e-12 -1.96426e-09 0)
(5.78876e-12 -4.31817e-09 0)
(1.83827e-10 -2.09433e-09 0)
(2.09545e-10 -2.56932e-09 0)
(4.64022e-12 -2.33599e-09 0)
(-1.15875e-10 -1.98956e-09 0)
(-8.22177e-11 -1.83361e-09 0)
(-7.53006e-13 -6.11769e-10 0)
(-6.93633e-12 -1.13535e-09 0)
(3.05257e-11 -2.05679e-09 0)
(-7.75382e-11 -2.19861e-09 0)
(-8.76112e-11 -2.2709e-09 0)
(-9.08332e-13 -4.92825e-11 0)
(-3.69566e-11 -3.42465e-09 0)
(-1.14557e-10 -2.47016e-09 0)
(-3.08783e-11 -1.91154e-09 0)
(-2.72083e-11 -2.02313e-09 0)
(1.50626e-11 -2.49277e-09 0)
(1.91439e-10 -4.66061e-09 0)
(-5.92112e-12 -2.51426e-09 0)
(0 0 0)
(2.45394e-11 -2.23452e-09 0)
(1.90221e-10 -2.18145e-09 0)
(2.32062e-10 -2.11697e-09 0)
(-3.95964e-11 -2.14545e-09 0)
(-8.04881e-11 -2.6597e-09 0)
(0 0 0)
(4.8869e-11 -2.23411e-09 0)
(-5.19101e-11 -2.08122e-09 0)
(-6.74485e-13 -4.04851e-10 0)
(-2.27284e-12 -1.63415e-09 0)
(-8.60515e-11 -2.4912e-09 0)
(2.12063e-13 -2.28764e-09 0)
(-2.80736e-11 -2.08146e-09 0)
(-1.96037e-11 -2.01418e-09 0)
(0 0 0)
(0 0 0)
(0 0 0)
(0 0 0)
(0 0 0)
(0 0 0)
(0 0 0)
(0 0 0)
(0 0 0)
(0 0 0)
(6.17606e-11 -1.97257e-09 0)
(9.89421e-11 -1.94772e-09 0)
(1.15373e-10 -2.00785e-09 0)
(7.4376e-12 -2.16842e-09 0)
(-8.74385e-11 -2.63416e-09 0)
(0 0 0)
(-2.2497e-10 -2.25121e-09 0)
(-1.80075e-10 -2.15391e-09 0)
(-1.2831e-10 -2.08843e-09 0)
(-1.20955e-10 -2.31219e-09 0)
(3.20319e-11 -1.86574e-09 0)
(2.43099e-10 -2.16983e-09 0)
(2.40673e-11 -2.27287e-09 0)
(-3.29608e-11 -1.04768e-09 0)
(-8.97337e-12 -2.67186e-10 0)
(8.89739e-12 -2.06031e-09 0)
(-1.18909e-11 -2.0435e-09 0)
(-1.9831e-10 -5.22686e-09 0)
(-9.93294e-11 -2.05849e-09 0)
(-1.49461e-10 -2.0619e-09 0)
(-2.4143e-10 -2.07242e-09 0)
(-2.35478e-10 -3.67732e-09 0)
(2.60282e-11 -2.6267e-09 0)
(-2.07526e-11 -2.3803e-09 0)
(0 0 0)
(-3.13037e-11 -2.2921e-09 0)
(-1.97221e-11 -2.29408e-09 0)
(1.09432e-11 -3.73428e-09 0)
(3.74622e-11 -2.14262e-09 0)
(8.6424e-11 -3.35073e-09 0)
(0 0 0)
(-4.76425e-12 -2.85574e-10 0)
(-1.90834e-11 -1.12189e-09 0)
(-3.60322e-10 -5.50035e-09 0)
(1.25237e-10 -2.57585e-09 0)
(1.14536e-10 -2.19872e-09 0)
(-1.55066e-10 -2.05774e-09 0)
(-2.9519e-11 -2.15693e-09 0)
(0 0 0)
(-1.09321e-11 -2.38946e-09 0)
(3.5385e-11 -2.25013e-09 0)
(-1.37397e-11 -2.26123e-09 0)
(6.80455e-11 -2.12716e-09 0)
(3.81578e-11 -1.92631e-09 0)
(-3.62891e-11 -2.00549e-09 0)
(-7.86537e-11 -2.08862e-09 0)
(2.37534e-11 -2.07835e-09 0)
(-1.11881e-11 -2.0725e-09 0)
(-3.01479e-11 -2.19197e-09 0)
(6.20695e-11 -2.3219e-09 0)
(4.24459e-11 -2.60042e-09 0)
(2.65829e-11 -1.90115e-09 0)
(9.04533e-11 -2.09003e-09 0)
(2.0874e-11 -2.52574e-09 0)
(-1.27003e-10 -2.30074e-09 0)
(7.64936e-12 -2.3638e-09 0)
(0 0 0)
(2.19285e-10 -2.19747e-09 0)
(-8.74355e-11 -4.54487e-09 0)
(3.60942e-11 -2.45003e-09 0)
(1.99331e-11 -2.45347e-09 0)
(1.12194e-10 -2.18739e-09 0)
(2.58161e-11 -1.98551e-09 0)
(2.28838e-11 -1.94823e-09 0)
(0 0 0)
(0 0 0)
(0 0 0)
(0 0 0)
(0 0 0)
(0 0 0)
(0 0 0)
(0 0 0)
(0 0 0)
(0 0 0)
(0 0 0)
(8.68102e-11 -2.09252e-09 0)
(1.27876e-10 -1.98864e-09 0)
(7.75888e-11 -5.08372e-09 0)
(-1.11441e-10 -2.40575e-09 0)
(-6.67358e-11 -2.564e-09 0)
(4.08731e-11 -2.44819e-09 0)
(-2.12727e-11 -5.37071e-10 0)
(-1.336e-10 -3.04415e-09 0)
(-4.42003e-12 -8.62826e-11 0)
(-8.66548e-11 -2.33545e-09 0)
(-4.40036e-11 -4.19048e-09 0)
(1.99581e-11 -2.33655e-09 0)
(0 0 0)
(1.3593e-10 -1.74088e-09 0)
(5.94395e-11 -1.92898e-09 0)
(-1.61796e-11 -2.09209e-09 0)
(-6.19127e-11 -2.10497e-09 0)
(0 0 0)
(0 0 0)
(0 0 0)
(0 0 0)
(0 0 0)
(-2.40383e-10 -2.34146e-09 0)
(-2.68294e-10 -2.33975e-09 0)
(-1.78103e-10 -2.40553e-09 0)
(7.92631e-11 -2.36465e-09 0)
(0 0 0)
(1.36897e-10 -2.14996e-09 0)
(3.23746e-11 -2.28627e-09 0)
(4.00379e-11 -2.28077e-09 0)
(1.24149e-10 -2.14381e-09 0)
(7.91129e-11 -2.05011e-09 0)
(-1.15645e-10 -5.01246e-09 0)
(-1.82867e-10 -1.95267e-09 0)
(1.30843e-10 -2.30805e-09 0)
(3.71205e-10 -5.53392e-09 0)
(4.08061e-11 -2.39415e-09 0)
(-6.57523e-12 -4.85854e-10 0)
(-1.90199e-11 -1.14352e-09 0)
(-1.06955e-10 -2.20265e-09 0)
(-1.59172e-11 -2.23197e-09 0)
(5.29877e-11 -2.13022e-09 0)
(2.76053e-11 -2.04303e-09 0)
(6.36796e-12 -1.96475e-09 0)
(-6.36821e-11 -2.44584e-09 0)
(-8.51718e-11 -2.11693e-09 0)
(-9.48124e-11 -2.12787e-09 0)
(-9.09028e-11 -2.16654e-09 0)
(-5.80863e-11 -2.14624e-09 0)
(-1.65593e-11 -2.374e-09 0)
(1.0764e-10 -2.87768e-09 0)
(6.54196e-11 -1.41291e-09 0)
(5.36218e-11 -2.05694e-09 0)
(3.41728e-11 -2.24534e-09 0)
(-1.30074e-11 -2.29481e-09 0)
(0 0 0)
(-8.94638e-11 -4.64642e-09 0)
(-5.94521e-12 -4.86413e-09 0)
(-2.71943e-11 -1.8213e-09 0)
(9.00929e-11 -2.09393e-09 0)
(1.94751e-10 -3.53638e-09 0)
(1.63806e-10 -2.79014e-09 0)
(3.37803e-11 -1.05768e-09 0)
(2.00638e-11 -1.47419e-09 0)
(0 0 0)
(0 0 0)
(0 0 0)
(0 0 0)
(0 0 0)
(0 0 0)
(0 0 0)
(0 0 0)
(0 0 0)
(0 0 0)
(0 0 0)
(2.28644e-11 -1.94059e-09 0)
(4.41237e-12 -2.15482e-09 0)
(-1.19496e-10 -2.30431e-09 0)
(-9.9836e-11 -2.28356e-09 0)
(-7.53044e-11 -2.53472e-09 0)
(-1.29096e-11 -5.3906e-09 0)
(7.78768e-11 -2.11519e-09 0)
(5.02233e-12 -2.04007e-09 0)
(-3.59455e-11 -2.02579e-09 0)
(6.75237e-11 -2.03483e-09 0)
(1.67714e-10 -2.0731e-09 0)
(2.04085e-11 -2.16954e-09 0)
(-5.45863e-11 -2.2114e-09 0)
(1.38891e-10 -2.02449e-09 0)
(2.97936e-11 -2.0599e-09 0)
(1.97954e-11 -2.17552e-09 0)
(3.1369e-11 -2.09686e-09 0)
(-3.47852e-11 -2.06019e-09 0)
(-2.30747e-11 -2.09711e-09 0)
(-4.35929e-11 -2.26927e-09 0)
(-1.26671e-10 -2.22146e-09 0)
(7.15054e-11 -4.9308e-09 0)
(-7.30573e-11 -1.49924e-09 0)
(0 0 0)
(-2.18754e-10 -4.63879e-09 0)
(-3.55937e-11 -2.3618e-09 0)
(1.8178e-10 -1.92308e-09 0)
(1.62197e-10 -2.19579e-09 0)
(2.26171e-11 -6.6432e-10 0)
(9.77532e-11 -2.38823e-09 0)
(-1.32338e-11 -3.01979e-09 0)
(-2.48295e-10 -2.0119e-09 0)
(-3.55331e-10 -3.54389e-09 0)
(-1.93757e-10 -2.9493e-09 0)
(8.17015e-11 -2.24245e-09 0)
(1.4032e-10 -2.33312e-09 0)
(1.64955e-11 -2.44493e-09 0)
(9.89641e-11 -2.29585e-09 0)
(6.73192e-11 -2.20859e-09 0)
(1.8495e-10 -1.87033e-09 0)
(1.23202e-10 -2.11609e-09 0)
(8.14798e-11 -2.3265e-09 0)
(2.04702e-11 -1.89021e-09 0)
(-7.59875e-11 -2.05261e-09 0)
(-2.73579e-10 -2.00674e-09 0)
(-2.53225e-10 -2.16591e-09 0)
(-1.31011e-10 -2.2578e-09 0)
(-2.05412e-10 -2.10448e-09 0)
(7.26449e-11 -2.09291e-09 0)
(9.71175e-11 -1.99412e-09 0)
(1.72602e-10 -2.13166e-09 0)
(1.10766e-10 -2.18982e-09 0)
(9.20062e-11 -2.19022e-09 0)
(1.04753e-10 -2.26538e-09 0)
(5.47709e-11 -2.14869e-09 0)
(8.81661e-11 -2.16152e-09 0)
(0 0 0)
(0 0 0)
(0 0 0)
(2.21558e-10 -3.56842e-09 0)
(1.72306e-10 -2.92667e-09 0)
(1.53717e-10 -2.38715e-09 0)
(0 0 0)
(0 0 0)
(0 0 0)
(0 0 0)
(0 0 0)
(0 0 0)
(0 0 0)
(0 0 0)
(0 0 0)
(0 0 0)
(0 0 0)
(0 0 0)
(0 0 0)
(-1.50259e-10 -2.02222e-09 0)
(-3.56103e-11 -2.45959e-09 0)
(0 0 0)
(7.60861e-13 -2.28095e-09 0)
(-5.12163e-11 -2.17614e-09 0)
(-8.8667e-11 -2.31484e-09 0)
(5.24795e-12 -2.39094e-09 0)
(-3.00281e-11 -2.1783e-09 0)
(6.75925e-12 -2.33293e-09 0)
(9.3297e-12 -2.96235e-09 0)
(1.79726e-10 -4.11107e-09 0)
(4.91508e-11 -2.0246e-09 0)
(6.13935e-12 -1.9968e-09 0)
(1.77175e-11 -3.48954e-10 0)
(8.74104e-11 -2.14246e-09 0)
(2.68798e-11 -1.70228e-09 0)
(2.0776e-11 -2.24393e-09 0)
(-5.73453e-11 -2.16825e-09 0)
(-6.46525e-12 -1.74136e-09 0)
(-4.90955e-11 -2.1023e-09 0)
(3.07539e-11 -4.49591e-09 0)
(5.95014e-11 -1.92965e-09 0)
(-2.27456e-11 -2.12309e-09 0)
(-8.99442e-11 -2.12663e-09 0)
(0 0 0)
(1.42717e-10 -2.1699e-09 0)
(-2.80305e-11 -2.16599e-09 0)
(9.61458e-11 -5.39326e-09 0)
(1.81248e-10 -2.01754e-09 0)
(7.82989e-11 -2.01589e-09 0)
(-5.17537e-11 -2.44985e-09 0)
(0 0 0)
(0 0 0)
(-7.70077e-12 -4.08915e-09 0)
(-3.52854e-11 -2.96793e-09 0)
(-3.99627e-12 -2.45976e-09 0)
(1.83526e-11 -6.89465e-10 0)
(4.29834e-11 -1.18764e-09 0)
(1.6554e-10 -5.04993e-09 0)
(1.33675e-10 -2.23954e-09 0)
(1.00134e-10 -2.0329e-09 0)
(1.50747e-10 -2.03474e-09 0)
(-9.94303e-12 -2.09695e-09 0)
(-2.03922e-10 -2.16581e-09 0)
(-1.21095e-10 -2.09723e-09 0)
(0 0 0)
(-8.65021e-11 -2.13796e-09 0)
(3.96763e-11 -2.05752e-09 0)
(1.76106e-10 -3.30016e-09 0)
(1.06597e-10 -3.33141e-09 0)
(6.55106e-11 -2.13347e-09 0)
(9.78486e-11 -2.20847e-09 0)
(2.66407e-11 -2.19062e-09 0)
(2.9934e-11 -2.18998e-09 0)
(2.19347e-11 -2.86219e-09 0)
(2.03125e-10 -4.19245e-09 0)
(1.65759e-11 -2.08122e-09 0)
(-2.50829e-10 -2.967e-09 0)
(-1.87282e-10 -2.86144e-09 0)
(-1.15526e-10 -2.05851e-09 0)
(0 0 0)
(5.20363e-11 -2.20737e-09 0)
(0 0 0)
(0 0 0)
(0 0 0)
(0 0 0)
(0 0 0)
(0 0 0)
(0 0 0)
(0 0 0)
(0 0 0)
(0 0 0)
(0 0 0)
(0 0 0)
(0 0 0)
(-1.10897e-10 -2.44619e-09 0)
(3.96673e-11 -2.20559e-09 0)
(4.92526e-11 -1.02952e-09 0)
(2.27352e-11 -4.95331e-10 0)
(1.15165e-11 -2.11278e-09 0)
(-8.30005e-11 -2.29563e-09 0)
(-1.35163e-11 -2.27319e-09 0)
(4.4292e-11 -2.2172e-09 0)
(-2.77449e-11 -2.1361e-09 0)
(-1.97345e-10 -2.21789e-09 0)
(-2.81396e-10 -2.22523e-09 0)
(5.71054e-11 -2.1952e-09 0)
(1.4379e-10 -2.08179e-09 0)
(5.20191e-11 -2.02598e-09 0)
(8.35169e-11 -2.27333e-09 0)
(3.16105e-11 -2.18963e-09 0)
(6.25249e-11 -2.25739e-09 0)
(-3.04113e-11 -2.25764e-09 0)
(4.16231e-11 -2.95971e-09 0)
(4.69871e-11 -1.03468e-09 0)
(-3.07778e-11 -2.03676e-09 0)
(7.45239e-11 -2.40555e-09 0)
(-1.6064e-10 -2.16737e-09 0)
(-1.22868e-10 -2.09405e-09 0)
(-2.42988e-11 -2.07053e-09 0)
(6.38601e-11 -5.15984e-09 0)
(4.05646e-12 -2.01465e-09 0)
(-2.47283e-11 -3.20307e-09 0)
(2.7439e-11 -1.04306e-09 0)
(8.18399e-11 -1.91053e-09 0)
(4.47361e-11 -2.47529e-09 0)
(0 0 0)
(-7.97837e-11 -4.81074e-09 0)
(-3.05457e-10 -1.82252e-09 0)
(-1.36676e-10 -2.30767e-09 0)
(3.69927e-12 -2.22775e-10 0)
(1.20403e-10 -3.07913e-09 0)
(1.27744e-10 -3.29208e-09 0)
(-1.18215e-12 -5.27985e-09 0)
(3.25791e-11 -2.03647e-09 0)