/*--------------------------------*- C++ -*----------------------------------*\
  =========                 |
  \\      /  F ield         | OpenFOAM: The Open Source CFD Toolbox
   \\    /   O peration     | Website:  https://openfoam.org
    \\  /    A nd           | Version:  12
     \\/     M anipulation  |
\*---------------------------------------------------------------------------*/
FoamFile
{
    format      ascii;
    class       volScalarField;
    location    "0.25";
    object      p;
}
// * * * * * * * * * * * * * * * * * * * * * * * * * * * * * * * * * * * * * //

dimensions      [0 2 -2 0 0 0 0];

internalField   nonuniform List<scalar> 
3750
(
0.727197
0.718281
0.709222
0.700506
0.692575
0.676823
0.661943
0.650336
0.650198
0.640419
0.632209
0.617972
0.603579
0.5916
0.586254
0.578016
0.567468
0.557884
0.545464
0.54279
0.5393
0.526976
0.51275
0.499994
0.497317
0.492136
0.488023
0.474425
0.463197
0.452462
0.44212
0.432122
0.42241
0.412733
0.400634
0.391256
0.381884
0.372434
0.363188
0.354722
0.339353
0.331239
0.321759
0.311282
0.299635
0.286044
0.272966
0.266543
0.26095
0.252962
0.244639
0.228991
0.220708
0.204033
0.195924
0.187701
0.179812
0.163966
0.150757
0.144122
0.136087
0.12788
0.122328
0.113659
0.104154
0.0946621
0.0850005
0.0730588
0.0629194
0.0532031
0.0435264
0.0338119
0.0241239
0.0144257
0.00478195
0.727412
0.71843
0.708878
0.699535
0.690389
0.679755
0.665903
0.651045
0.6482
0.637991
0.628548
0.61903
0.605506
0.591162
0.588081
0.580369
0.568668
0.559882
0.548998
0.543776
0.535548
0.526727
0.513954
0.503451
0.497625
0.490597
0.486101
0.47144
0.462518
0.452097
0.441774
0.431721
0.42187
0.41206
0.401288
0.391706
0.382132
0.372167
0.362333
0.35193
0.340762
0.332903
0.322662
0.312433
0.301451
0.28423
0.269905
0.266492
0.262639
0.252366
0.242429
0.23108
0.219397
0.206108
0.194933
0.187606
0.177841
0.161231
0.153739
0.145506
0.136653
0.126581
0.124284
0.114058
0.104099
0.094231
0.0842102
0.0733634
0.0632822
0.053419
0.0435832
0.0337962
0.0240901
0.0143773
0.004742
0.728182
0.719185
0.708158
0.69776
0.690508
0.681333
0.664982
0.653652
0.649462
0.634824
0.626293
0.622105
0.609192
0.589083
0.587103
0.584389
0.570679
0.555464
0.552077
0.547253
0.534997
0.525711
0.516124
0.504395
0.496455
0.486695
0.485259
0.472058
0.462818
0.451376
0.441195
0.431208
0.421252
0.411433
0.401568
0.392342
0.38276
0.371866
0.36209
0.351179
0.339469
0.334969
0.323549
0.314246
0.299813
0.28374
0.27313
0.266543
0.259995
0.250831
0.241808
0.233582
0.219736
0.206076
0.190361
0.189004
0.174169
0.16036
0.156094
0.147604
0.13853
0.129559
0.122808
0.113679
0.103881
0.0939487
0.0838439
0.0736107
0.0635328
0.053592
0.0437197
0.0339108
0.0241433
0.0143424
0.00466784
0.729861
0.721082
0.707028
0.694825
0.691263
0.680073
0.666598
0.661468
0.649684
0.631679
0.628189
0.621879
0.610656
0.59237
0.586612
0.578474
0.571765
0.561297
0.556061
0.544936
0.532982
0.524932
0.516915
0.505619
0.495813
0.485773
0.478146
0.477498
0.465006
0.44926
0.440317
0.43059
0.420421
0.410794
0.401145
0.394029
0.385587
0.370385
0.361877
0.351684
0.34142
0.33368
0.322115
0.311434
0.299339
0.286402
0.275317
0.266532
0.257891
0.24838
0.240793
0.231374
0.219501
0.207524
0.192258
0.189478
0.173858
0.162569
0.152489
0.148679
0.140424
0.131075
0.12268
0.113542
0.103803
0.0938434
0.0837858
0.0736922
0.0636536
0.0536951
0.0438064
0.0339879
0.024185
0.0143252
0.00463002
0.730949
0.72285
0.709885
0.694696
0.688936
0.679781
0.670556
0.661505
0.648924
0.637156
0.623684
0.622823
0.609809
0.596256
0.588491
0.580386
0.573133
0.564259
0.55296
0.542256
0.529632
0.524005
0.518294
0.506174
0.495711
0.485136
0.474756
0.474376
0.468557
0.449842
0.440363
0.430387
0.419085
0.410679
0.399627
0.395908
0.384884
0.372894
0.362611
0.352304
0.342076
0.334534
0.319398
0.309978
0.299556
0.287152
0.275617
0.266521
0.257345
0.245199
0.240471
0.230524
0.219697
0.208874
0.196621
0.187604
0.175411
0.163371
0.15346
0.144694
0.141595
0.131297
0.123681
0.113979
0.103948
0.0938454
0.0837499
0.0736946
0.0636872
0.0537403
0.0438512
0.0340222
0.0241903
0.014303
0.0046096
0.730589
0.729838
0.711249
0.695449
0.688906
0.68067
0.673504
0.661306
0.64854
0.637571
0.626962
0.621121
0.60996
0.599389
0.590741
0.583946
0.571454
0.563846
0.553661
0.541463
0.531078
0.524123
0.513381
0.505366
0.495944
0.484906
0.475151
0.475297
0.461663
0.450601
0.44112
0.431971
0.415404
0.412384
0.401889
0.393755
0.384386
0.373756
0.363396
0.352875
0.340788
0.333041
0.320202
0.30976
0.300148
0.287085
0.274951
0.266538
0.258395
0.246754
0.237308
0.229115
0.219682
0.210182
0.198501
0.18692
0.175216
0.164843
0.154529
0.145769
0.138757
0.128905
0.125979
0.114672
0.104093
0.09383
0.0836835
0.073637
0.0636516
0.053727
0.0438517
0.0340179
0.0241745
0.0142785
0.00459806
0.733551
0.730303
0.710416
0.696624
0.690824
0.680663
0.67147
0.661227
0.651294
0.641902
0.628725
0.62047
0.609199
0.601984
0.591424
0.582833
0.573294
0.566307
0.555123
0.539694
0.530754
0.522736
0.513936
0.505514
0.497922
0.484075
0.476378
0.470697
0.461013
0.449829
0.441788
0.431172
0.419489
0.411565
0.402306
0.391514
0.384797
0.374374
0.364343
0.355118
0.337389
0.334511
0.318448
0.309412
0.299876
0.286365
0.274725
0.26554
0.258793
0.247597
0.236532
0.226316
0.219548
0.213582
0.199365
0.187439
0.173139
0.168045
0.154875
0.145783
0.137396
0.131416
0.124951
0.114525
0.103992
0.0936923
0.0835533
0.0735198
0.0635713
0.0536682
0.0438098
0.0339798
0.0241354
0.0142467
0.00458873
0.735203
0.723709
0.705428
0.6994
0.696212
0.679677
0.670648
0.660662
0.651313
0.644277
0.631202
0.622539
0.605678
0.603924
0.591293
0.582733
0.57335
0.565687
0.553011
0.540897
0.532072
0.523737
0.514198
0.504951
0.496454
0.487938
0.474969
0.468306
0.462773
0.446314
0.443322
0.431698
0.42083
0.410219
0.401816
0.389536
0.387779
0.374546
0.364613
0.356249
0.339663
0.329065
0.319393
0.309606
0.299696
0.285418
0.274549
0.263364
0.260117
0.24794
0.235489
0.223381
0.219194
0.214257
0.201291
0.190875
0.176717
0.165538
0.155462
0.145223
0.135101
0.134641
0.126217
0.114274
0.103622
0.0934047
0.0833393
0.0733538
0.0634429
0.0535696
0.0437338
0.0339277
0.0241025
0.014223
0.00458279
0.735201
0.722968
0.708935
0.699422
0.692208
0.681283
0.671245
0.660804
0.649965
0.646489
0.63545
0.621027
0.608239
0.602404
0.592281
0.582591
0.572604
0.562335
0.552798
0.539644
0.534618
0.526443
0.514481
0.504542
0.493544
0.486502
0.47789
0.466222
0.464714
0.450598
0.44128
0.431629
0.421655
0.407345
0.400724
0.392395
0.381332
0.380855
0.363526
0.355742
0.340433
0.328493
0.319534
0.309849
0.299233
0.286151
0.274712
0.264844
0.257499
0.248919
0.233896
0.227951
0.218678
0.210249
0.199249
0.188342
0.178962
0.167883
0.157084
0.146111
0.135055
0.133491
0.130173
0.112751
0.10292
0.0929682
0.0830225
0.0731248
0.0632679
0.0534391
0.0436358
0.0338512
0.0240442
0.0141837
0.00456902
0.733812
0.724469
0.708933
0.697694
0.689844
0.681434
0.672228
0.662945
0.65183
0.642824
0.634757
0.623906
0.610856
0.602727
0.592611
0.582473
0.57193
0.55907
0.555333
0.543294
0.532023
0.528815
0.513844
0.504152
0.49023
0.486858
0.483517
0.465853
0.465278
0.451534
0.44022
0.430786
0.416921
0.406134
0.400854
0.395707
0.381568
0.380826
0.362117
0.352845
0.341892
0.332121
0.320221
0.310597
0.300558
0.286881
0.273508
0.265379
0.255585
0.24974
0.239321
0.22627
0.217606
0.208085
0.197219
0.185516
0.182543
0.170064
0.158926
0.14853
0.138562
0.132642
0.125101
0.11293
0.102529
0.0925369
0.0826554
0.0728493
0.0630624
0.0532865
0.0435248
0.0337713
0.0239938
0.014155
0.00456374
0.734941
0.722174
0.708918
0.697275
0.688157
0.682505
0.674299
0.665718
0.652988
0.639873
0.635106
0.623182
0.612041
0.604486
0.592853
0.582518
0.573243
0.558205
0.554711
0.54696
0.53236
0.526383
0.513796
0.502334
0.493884
0.487429
0.481203
0.470548
0.461936
0.449758
0.441465
0.429461
0.414455
0.400968
0.400557
0.399773
0.385311
0.377853
0.360841
0.351824
0.341814
0.33113
0.327092
0.310958
0.295837
0.287138
0.276635
0.267959
0.251849
0.248686
0.242495
0.227746
0.21734
0.207432
0.196896
0.185621
0.18256
0.170543
0.160103
0.150266
0.138668
0.133505
0.12326
0.111577
0.101699
0.0919897
0.0822797
0.0725652
0.0628449
0.0531229
0.0434035
0.0336834
0.0239313
0.0141139
0.00454537
0.734327
0.719997
0.706792
0.696526
0.685798
0.685639
0.677547
0.666358
0.653924
0.643315
0.631366
0.621277
0.612835
0.610012
0.59167
0.581859
0.571435
0.559036
0.555933
0.546026
0.534999
0.527017
0.512544
0.499559
0.497074
0.487427
0.481516
0.473609
0.460232
0.44479
0.441958
0.429881
0.411939
0.401671
0.400483
0.398184
0.385156
0.377526
0.361525
0.351983
0.342542
0.333943
0.323944
0.310952
0.297231
0.288256
0.27808
0.26819
0.257176
0.249759
0.241702
0.225193
0.216614
0.207577
0.198193
0.188284
0.179135
0.169033
0.16138
0.147012
0.141046
0.136224
0.122734
0.109552
0.100961
0.0914434
0.0818816
0.0722749
0.0626284
0.0529599
0.043284
0.0335985
0.0238763
0.0140852
0.00453772
0.72845
0.71645
0.703161
0.696626
0.688823
0.684049
0.683112
0.667579
0.653306
0.645804
0.631067
0.618833
0.616666
0.607598
0.592493
0.582037
0.571946
0.562082
0.5545
0.544752
0.534646
0.524881
0.51374
0.5032
0.495863
0.485645
0.483153
0.471559
0.460745
0.447949
0.438837
0.427199
0.413557
0.408312
0.40136
0.388321
0.384467
0.380089
0.360826
0.351942
0.343608
0.334987
0.322797
0.311253
0.299541
0.289243
0.279274
0.269635
0.260189
0.251135
0.23855
0.224253
0.216517
0.208037
0.199637
0.188344
0.179284
0.16685
0.163527
0.149153
0.141291
0.132848
0.122293
0.107716
0.0999518
0.0909101
0.0815293
0.0720149
0.0624312
0.0528065
0.0431681
0.0335153
0.0238159
0.0140482
0.00452208
0.724883
0.714163
0.706347
0.698246
0.691379
0.678567
0.678886
0.667103
0.65559
0.645189
0.632572
0.62389
0.615881
0.60543
0.592674
0.581871
0.572674
0.564244
0.553831
0.543807
0.533948
0.524009
0.514274
0.504812
0.495712
0.486949
0.481152
0.469566
0.463868
0.449006
0.436851
0.426348
0.418999
0.407022
0.39807
0.389801
0.384248
0.374278
0.360412
0.352655
0.344536
0.336196
0.321077
0.311799
0.301413
0.290087
0.280088
0.270806
0.261758
0.247949
0.237075
0.226408
0.21727
0.208356
0.199588
0.187536
0.18069
0.170335
0.161287
0.150211
0.133106
0.129157
0.123498
0.110213
0.1002
0.090747
0.0813093
0.0718176
0.0622693
0.0526814
0.0430719
0.0334464
0.0237723
0.0140258
0.00451614
0.722774
0.712884
0.70996
0.698888
0.690298
0.681012
0.674997
0.665752
0.655841
0.646828
0.630632
0.628784
0.616607
0.60581
0.592682
0.580118
0.573211
0.566036
0.554367
0.542888
0.533245
0.524121
0.514461
0.505007
0.49559
0.486213
0.479314
0.468381
0.462639
0.447537
0.438209
0.427901
0.419627
0.410449
0.394783
0.390744
0.386903
0.370037
0.354815
0.353488
0.344446
0.334025
0.322995
0.313474
0.303872
0.290548
0.281131
0.271592
0.262899
0.245609
0.23568
0.227102
0.217734
0.20847
0.202225
0.184552
0.18283
0.174306
0.158763
0.149107
0.135045
0.1274
0.119725
0.109756
0.100081
0.0906006
0.0811506
0.0716738
0.0621496
0.0525856
0.0429956
0.0333883
0.0237299
0.0140003
0.00450329
0.721012
0.718921
0.708824
0.697903
0.690311
0.681424
0.673274
0.664684
0.65536
0.646104
0.635158
0.627692
0.615981
0.603884
0.591356
0.582678
0.573824
0.567416
0.558342
0.541119
0.533144
0.52374
0.514418
0.505299
0.495954
0.484554
0.480139
0.47067
0.457186
0.446304
0.435013
0.43206
0.420969
0.410789
0.401386
0.391545
0.380559
0.364985
0.355274
0.353809
0.34319
0.332185
0.323484
0.31518
0.304644
0.292726
0.282204
0.271644
0.26165
0.243001
0.238139
0.22619
0.217864
0.206613
0.203585
0.188133
0.181023
0.17489
0.161508
0.150239
0.137234
0.125581
0.117485
0.108892
0.0997525
0.0904293
0.0810307
0.0715743
0.0620652
0.0525169
0.042943
0.03335
0.0237055
0.0139895
0.00450119
0.726069
0.718695
0.704243
0.701056
0.690829
0.681552
0.672374
0.664635
0.654857
0.647897
0.637971
0.627998
0.615896
0.604603
0.587781
0.584533
0.572511
0.568485
0.556568
0.545299
0.534268
0.523205
0.514059
0.505787
0.496992
0.485001
0.478239
0.468748
0.457484
0.446264
0.435477
0.432195
0.421435
0.41172
0.403936
0.388466
0.377495
0.365309
0.357022
0.353431
0.341069
0.328578
0.323441
0.318451
0.305648
0.294172
0.283145
0.271104
0.259414
0.247681
0.238836
0.221455
0.218848
0.207635
0.203434
0.18879
0.178208
0.172474
0.162097
0.150941
0.139048
0.128809
0.116702
0.108516
0.0995686
0.0903264
0.0809643
0.0715264
0.0620248
0.0524814
0.0429129
0.0333255
0.0236892
0.0139762
0.00449343
0.729263
0.717386
0.705828
0.699081
0.690598
0.680962
0.671322
0.66628
0.652868
0.650804
0.640004
0.630276
0.613843
0.603831
0.592789
0.584084
0.57401
0.565833
0.553882
0.550364
0.534644
0.520462
0.512742
0.506673
0.497437
0.486679
0.477519
0.467833
0.457446
0.447386
0.438938
0.426624
0.42087
0.412047
0.403025
0.391947
0.377048
0.363032
0.361279
0.352326
0.340237
0.328626
0.323356
0.31653
0.306265
0.29489
0.285317
0.270189
0.257777
0.249279
0.237267
0.222554
0.214514
0.20758
0.201025
0.19169
0.177473
0.173598
0.163435
0.15211
0.139863
0.128598
0.1182
0.108863
0.0996479
0.0903453
0.0809642
0.0715232
0.062023
0.0524806
0.0429096
0.0333212
0.0236885
0.0139816
0.00449777
0.729919
0.716027
0.705035
0.698129
0.691591
0.677023
0.671582
0.664985
0.660103
0.650892
0.639962
0.629622
0.611266
0.609011
0.596217
0.584262
0.574728
0.565304
0.554254
0.545372
0.533726
0.521541
0.510726
0.510032
0.497715
0.487239
0.477498
0.467592
0.457684
0.447966
0.437236
0.424351
0.421957
0.412295
0.401536
0.392146
0.37615
0.366445
0.360472
0.353305
0.342274
0.327293
0.323753
0.316283
0.307523
0.294495
0.283446
0.270315
0.259162
0.249435
0.239126
0.223515
0.208203
0.207515
0.201346
0.194712
0.179012
0.172045
0.16404
0.154188
0.138557
0.127509
0.118523
0.109105
0.099814
0.0904658
0.0810526
0.071582
0.0620665
0.0525105
0.0429289
0.0333323
0.0236928
0.013981
0.00449517
0.729105
0.718332
0.701424
0.697052
0.690574
0.681905
0.67348
0.664021
0.660992
0.650549
0.639077
0.627304
0.61357
0.611594
0.597303
0.584398
0.574774
0.567191
0.554102
0.541697
0.532784
0.522375
0.511586
0.511784
0.495956
0.487223
0.477908
0.466955
0.457793
0.449815
0.435954
0.425096
0.41853
0.412218
0.397154
0.391412
0.378365
0.367803
0.358094
0.358781
0.343949
0.330074
0.318466
0.316661
0.30816
0.297993
0.281664
0.268964
0.259493
0.248343
0.236457
0.223702
0.210854
0.212904
0.201481
0.191214
0.175288
0.172807
0.164419
0.150272
0.140202
0.129124
0.118532
0.109384
0.100016
0.0906234
0.0811821
0.071685
0.0621444
0.0525661
0.0429691
0.0333603
0.0237095
0.0139947
0.00450316
0.728736
0.718004
0.706392
0.699095
0.692095
0.678038
0.675377
0.665218
0.659317
0.649389
0.638453
0.627354
0.616609
0.609046
0.596902
0.584915
0.574029
0.56476
0.55231
0.544161
0.533688
0.524247
0.513951
0.506145
0.496363
0.48781
0.478908
0.464997
0.456932
0.447725
0.437319
0.428811
0.414815
0.412901
0.398816
0.386557
0.378173
0.368583
0.358169
0.357104
0.344408
0.332253
0.321502
0.312851
0.308133
0.296983
0.281552
0.270172
0.26012
0.247731
0.234826
0.221607
0.21723
0.209726
0.199721
0.189733
0.178517
0.169578
0.162584
0.149587
0.145757
0.129783
0.11726
0.110654
0.100269
0.0908708
0.0813793
0.0718307
0.0622497
0.0526399
0.0430188
0.0333914
0.0237294
0.0140009
0.00450619
0.728564
0.718794
0.708909
0.700024
0.690723
0.678681
0.674324
0.667055
0.660372
0.649042
0.638
0.627302
0.617463
0.600659
0.595909
0.588549
0.577215
0.565546
0.547178
0.546772
0.535712
0.525202
0.515625
0.503856
0.495365
0.488619
0.478268
0.463596
0.457251
0.446662
0.436022
0.428945
0.420229
0.409551
0.395678
0.386672
0.379712
0.370501
0.361543
0.354287
0.34404
0.33415
0.317256
0.313349
0.309969
0.294706
0.282441
0.271479
0.260723
0.247507
0.235008
0.221752
0.21597
0.207724
0.197429
0.190124
0.179995
0.166273
0.164573
0.148784
0.141655
0.131343
0.11736
0.112865
0.100556
0.0912252
0.0816414
0.0720111
0.0623683
0.052724
0.0430804
0.0334348
0.0237583
0.0140199
0.00451749
0.728742
0.719691
0.710424
0.701348
0.692516
0.674843
0.673952
0.668056
0.665087
0.648254
0.63716
0.62655
0.615228
0.601999
0.597541
0.584236
0.58108
0.563592
0.545953
0.544845
0.538997
0.522802
0.517093
0.503961
0.492761
0.489782
0.475765
0.461211
0.460155
0.445626
0.432601
0.429982
0.419148
0.407822
0.39792
0.385918
0.382269
0.371789
0.363821
0.35395
0.343397
0.332805
0.321472
0.313705
0.306622
0.291642
0.28711
0.27465
0.258714
0.247098
0.235518
0.221395
0.214774
0.206731
0.194717
0.19348
0.179729
0.165751
0.16007
0.150801
0.141718
0.131242
0.118586
0.112683
0.101952
0.0918233
0.0819625
0.0722074
0.0624933
0.0528072
0.0431362
0.0334729
0.0237811
0.0140338
0.00451855
0.729846
0.720843
0.711766
0.702571
0.693767
0.67597
0.677563
0.667392
0.661495
0.652
0.636025
0.626548
0.615334
0.598036
0.597738
0.587346
0.576689
0.56238
0.551921
0.544756
0.537039
0.523977
0.514328
0.504042
0.493752
0.485852
0.474004
0.461861
0.456009
0.44344
0.437672
0.428546
0.418566
0.405771
0.401075
0.389009
0.381179
0.371156
0.366537
0.354272
0.342802
0.332008
0.324041
0.313148
0.304274
0.292808
0.285043
0.274123
0.26141
0.246758
0.233951
0.220958
0.214037
0.205953
0.195886
0.188768
0.178395
0.169849
0.157491
0.152577
0.144267
0.133357
0.116598
0.113481
0.102488
0.0921547
0.0821857
0.0723602
0.0626075
0.0528876
0.0431933
0.0335144
0.0238098
0.0140531
0.00452859
0.730381
0.722128
0.713225
0.703731
0.694829
0.678187
0.678907
0.666971
0.659253
0.650455
0.637745
0.626903
0.612556
0.598714
0.596512
0.585386
0.574977
0.563278
0.553205
0.544952
0.53704
0.524314
0.512936
0.504519
0.493487
0.483916
0.472703
0.460118
0.456295
0.447488
0.432384
0.430729
0.418624
0.40822
0.400002
0.389118
0.382223
0.375269
0.363691
0.353715
0.34205
0.329527
0.326321
0.311952
0.302826
0.292827
0.283051
0.272689
0.261182
0.244265
0.231629
0.224432
0.214799
0.206575
0.196592
0.186465
0.175134
0.167878
0.159046
0.157163
0.149411
0.131949
0.119869
0.111875
0.102099
0.0921417
0.0822605
0.072442
0.0626744
0.0529398
0.0432345
0.0335425
0.0238285
0.0140644
0.00453118
0.730247
0.724043
0.715397
0.704584
0.694369
0.684054
0.67762
0.667657
0.657478
0.651185
0.638464
0.624979
0.615933
0.600591
0.5912
0.58214
0.574919
0.566041
0.550135
0.544714
0.539736
0.522731
0.515122
0.505387
0.493133
0.483999
0.47318
0.46179
0.452064
0.44793
0.434258
0.431702
0.418496
0.409352
0.4
0.387047
0.382336
0.374343
0.368021
0.355219
0.343031
0.328944
0.322877
0.312049
0.301756
0.291691
0.281755
0.27088
0.25831
0.238555
0.233321
0.227066
0.215265
0.209134
0.197675
0.185827
0.168592
0.167348
0.163743
0.15742
0.152803
0.134798
0.119615
0.111179
0.101833
0.0920895
0.0822743
0.0724786
0.0627136
0.0529762
0.0432632
0.033564
0.0238474
0.014078
0.00453839
0.729813
0.727747
0.71737
0.704739
0.694525
0.686053
0.677708
0.669532
0.654406
0.651845
0.63972
0.628352
0.616742
0.602791
0.592298
0.579099
0.575967
0.564774
0.554007
0.545168
0.533055
0.522224
0.518052
0.505583
0.493549
0.485416
0.474123
0.46262
0.453031
0.445439
0.435838
0.426092
0.418206
0.410791
0.403992
0.389541
0.375367
0.371311
0.366547
0.355964
0.346112
0.330811
0.322912
0.312277
0.301861
0.289981
0.28119
0.270385
0.257697
0.23699
0.233823
0.222972
0.215541
0.207328
0.197658
0.18839
0.169371
0.169873
0.171204
0.155209
0.147425
0.134607
0.122174
0.111881
0.101965
0.0921025
0.0822736
0.0724815
0.0627188
0.0529843
0.0432749
0.0335758
0.0238553
0.0140829
0.00454244
0.734526
0.729624
0.71635
0.704421
0.698124
0.687844
0.678076
0.668937
0.659155
0.650102
0.640038
0.624269
0.618913
0.602365
0.592118
0.580948
0.573533
0.563347
0.553952
0.544177
0.533964
0.523298
0.517721
0.508145
0.491582
0.488256
0.475228
0.462317
0.453462
0.444082
0.434195
0.423517
0.417922
0.411506
0.405231
0.392372
0.378789
0.36908
0.358424
0.356206
0.346793
0.334626
0.325687
0.313266
0.303641
0.285862
0.281434
0.268536
0.254814
0.240017
0.230826
0.226588
0.216363
0.207036
0.196395
0.183009
0.174892
0.171782
0.1703
0.155309
0.145178
0.134043
0.122752
0.112176
0.102011
0.0920696
0.0822318
0.0724513
0.0627045
0.0529817
0.0432773
0.0335832
0.0238637
0.0140939
0.00454738
0.735134
0.726361
0.714348
0.708856
0.696205
0.68717
0.677697
0.669096
0.662498
0.651889
0.639917
0.626261
0.617467
0.601298
0.592672
0.582213
0.573561
0.56108
0.553063
0.543942
0.535614
0.521391
0.518702
0.507679
0.495413
0.487048
0.475955
0.464088
0.454067
0.443465
0.432396
0.428725
0.418633
0.411119
0.401458
0.395035
0.381178
0.368231
0.353344
0.357769
0.350373
0.335266
0.326146
0.316941
0.302564
0.29024
0.278189
0.264152
0.254285
0.239705
0.234864
0.226277
0.216947
0.207604
0.195276
0.186801
0.175761
0.171144
0.165057
0.154331
0.143988
0.133632
0.122604
0.111984
0.101835
0.0919393
0.0821416
0.072393
0.0626699
0.0529652
0.0432695
0.0335809
0.0238645
0.0140944
0.00454834
0.734325
0.725775
0.716513
0.706773
0.694764
0.685707
0.676293
0.667162
0.657796
0.649856
0.634962
0.6253
0.613598
0.60271
0.593842
0.58251
0.572275
0.560607
0.553243
0.543061
0.533784
0.526217
0.520812
0.508914
0.496541
0.484921
0.476463
0.465388
0.454451
0.443918
0.435232
0.430332
0.417321
0.407987
0.397886
0.393895
0.382134
0.369677
0.357191
0.353572
0.346353
0.335492
0.324804
0.316785
0.304296
0.292044
0.279994
0.260843
0.257227
0.240713
0.234354
0.225883
0.217363
0.20642
0.195296
0.186167
0.180209
0.171588
0.162859
0.153692
0.14369
0.132661
0.121549
0.11139
0.101459
0.0917037
0.0819965
0.0723101
0.0626234
0.0529385
0.0432574
0.0335791
0.0238689
0.0141004
0.004557
0.734372
0.726189
0.720553
0.703596
0.692084
0.684729
0.674354
0.664313
0.651511
0.644759
0.635086
0.626023
0.613175
0.60331
0.593254
0.58167
0.571158
0.563201
0.554898
0.542599
0.531915
0.530477
0.526406
0.510088
0.496505
0.481484
0.478813
0.466561
0.454543
0.443128
0.436219
0.427932
0.420453
0.407074
0.397639
0.39043
0.382953
0.369787
0.35849
0.352707
0.344735
0.334089
0.32245
0.318983
0.305726
0.293835
0.279505
0.264633
0.252606
0.242473
0.234372
0.225395
0.220061
0.204359
0.194114
0.184589
0.183347
0.172396
0.161472
0.153783
0.143907
0.133469
0.119276
0.110136
0.100907
0.0914243
0.0818466
0.0722238
0.0625752
0.0529144
0.0432464
0.0335727
0.0238661
0.0141014
0.00455153
0.73915
0.723998
0.715985
0.704814
0.694804
0.686406
0.672393
0.663658
0.650851
0.643528
0.634452
0.624942
0.614308
0.603877
0.592349
0.579908
0.568154
0.564593
0.555821
0.542236
0.536352
0.535527
0.521654
0.508497
0.498082
0.486638
0.478518
0.467745
0.454489
0.439807
0.437418
0.426098
0.423304
0.406674
0.396813
0.387383
0.383046
0.369589
0.355868
0.353638
0.344169
0.333842
0.323433
0.315588
0.301639
0.29568
0.279907
0.267153
0.254124
0.241552
0.235438
0.221742
0.220102
0.205634
0.194255
0.186976
0.180958
0.169305
0.164607
0.154846
0.142984
0.132719
0.120675
0.109807
0.100572
0.0912378
0.0817395
0.0721664
0.0625489
0.0529041
0.0432454
0.0335747
0.0238713
0.0141088
0.00456204
0.735851
0.724557
0.714847
0.704949
0.6958
0.688099
0.670986
0.661953
0.651898
0.643153
0.634153
0.62497
0.615423
0.605384
0.590318
0.578385
0.569135
0.560679
0.557649
0.546961
0.538668
0.531535
0.517568
0.513084
0.500807
0.489153
0.476081
0.466172
0.455475
0.444704
0.436668
0.423978
0.420711
0.410559
0.395697
0.389272
0.380561
0.366808
0.357676
0.351493
0.342959
0.333716
0.323413
0.31563
0.302168
0.29079
0.277722
0.265989
0.254736
0.243775
0.234593
0.22664
0.219154
0.204319
0.193299
0.187938
0.182079
0.172773
0.161585
0.153693
0.142859
0.133576
0.12113
0.109131
0.100472
0.091195
0.0817174
0.0721588
0.0625517
0.0529094
0.0432501
0.033583
0.0238774
0.0141112
0.00455781
0.734827
0.723642
0.714339
0.705035
0.695329
0.686462
0.673694
0.660543
0.652295
0.643266
0.63385
0.62532
0.617147
0.601956
0.590677
0.579499
0.570384
0.561981
0.556001
0.548623
0.54075
0.527852
0.520156
0.512239
0.502049
0.489768
0.474136
0.465965
0.456639
0.447205
0.437348
0.423551
0.415524
0.409797
0.397392
0.386719
0.380163
0.367597
0.359347
0.350578
0.342233
0.334582
0.320475
0.312129
0.300476
0.288021
0.283187
0.265426
0.254912
0.244343
0.232728
0.223798
0.221715
0.199792
0.193823
0.188387
0.185938
0.174001
0.163311
0.15401
0.142705
0.132764
0.121336
0.110397
0.100847
0.0913457
0.0817955
0.072205
0.06258
0.052933
0.0432739
0.0336021
0.0238933
0.014127
0.00456514
0.734997
0.72275
0.713472
0.705498
0.69412
0.683905
0.672513
0.663691
0.653848
0.643836
0.632795
0.625465
0.616095
0.605164
0.589415
0.579794
0.571044
0.563369
0.554551
0.55058
0.53849
0.527983
0.524342
0.511552
0.499801
0.486991
0.474944
0.467072
0.459122
0.446989
0.437085
0.425182
0.414431
0.411863
0.397817
0.388278
0.377856
0.365081
0.360724
0.349951
0.340853
0.331756
0.321307
0.311964
0.297476
0.293686
0.278886
0.26736
0.255752
0.246259
0.229241
0.224212
0.220213
0.202044
0.192776
0.187077
0.186338
0.174368
0.163961
0.154885
0.141799
0.132507
0.121231
0.11096
0.10119
0.0915366
0.0819203
0.0722874
0.0626396
0.0529747
0.0433034
0.0336249
0.0239098
0.0141338
0.00456515
0.734871
0.723884
0.711444
0.706487
0.692389
0.682309
0.670569
0.666073
0.655265
0.645024
0.631141
0.62693
0.615319
0.603502
0.592067
0.579696
0.570788
0.565016
0.552865
0.550036
0.543634
0.531147
0.522431
0.509681
0.498062
0.485964
0.473538
0.46817
0.463124
0.448249
0.439734
0.423981
0.41635
0.410623
0.399374
0.389114
0.376748
0.365804
0.357908
0.347492
0.339516
0.330399
0.320985
0.311209
0.299641
0.29094
0.279104
0.268836
0.254963
0.246101
0.236188
0.224455
0.215806
0.202456
0.189546
0.189913
0.18439
0.172755
0.164607
0.154915
0.143417
0.134157
0.12031
0.111021
0.101386
0.0916873
0.0820223
0.0723708
0.0627059
0.0530298
0.0433473
0.0336603
0.0239359
0.0141543
0.00457391
0.738522
0.727657
0.712474
0.702655
0.691621
0.681362
0.671462
0.663944
0.656943
0.646122
0.63513
0.626008
0.613623
0.601502
0.591006
0.58011
0.569077
0.566288
0.558272
0.553009
0.541984
0.530907
0.523059
0.50657
0.496386
0.486262
0.476502
0.46843
0.460331
0.448453
0.438378
0.426576
0.416742
0.410804
0.401733
0.389846
0.374345
0.364002
0.355364
0.346643
0.338447
0.329328
0.320993
0.312343
0.301029
0.290027
0.278348
0.268466
0.254787
0.246163
0.236355
0.22582
0.214878
0.203178
0.190706
0.189553
0.186454
0.16777
0.165074
0.155042
0.143864
0.133348
0.121601
0.111397
0.101579
0.0918434
0.0821507
0.0724754
0.0627894
0.0530942
0.0433991
0.0337013
0.0239649
0.0141712
0.00457914
0.739127
0.726572
0.714976
0.702289
0.691171
0.680725
0.671857
0.661022
0.658165
0.647379
0.638747
0.628273
0.61105
0.598554
0.590389
0.581016
0.571657
0.563889
0.560938
0.551565
0.544319
0.527798
0.525394
0.506024
0.494897
0.487427
0.478357
0.468871
0.459169
0.448222
0.436258
0.430621
0.415178
0.41048
0.405434
0.386188
0.375394
0.370086
0.36285
0.346945
0.34287
0.327007
0.32132
0.316132
0.302091
0.288804
0.276413
0.267121
0.255928
0.246203
0.236991
0.22619
0.214785
0.205684
0.195831
0.189579
0.18211
0.168983
0.163299
0.154004
0.143805
0.133436
0.121571
0.111407
0.101652
0.0919511
0.0822619
0.0725726
0.0628737
0.0531692
0.0434628
0.0337499
0.0240013
0.0141939
0.00458863
0.738008
0.724366
0.716547
0.701985
0.688228
0.679743
0.67374
0.662862
0.652972
0.649331
0.639145
0.626336
0.609833
0.600002
0.591188
0.582241
0.573313
0.566062
0.559378
0.549565
0.543771
0.53158
0.523351
0.507718
0.49258
0.490035
0.479866
0.469404
0.459244
0.448782
0.438403
0.430189
0.418405
0.409459
0.400862
0.385599
0.372767
0.368377
0.363371
0.348986
0.339285
0.326123
0.321385
0.317401
0.301992
0.291365
0.277297
0.266381
0.255224
0.246051
0.231716
0.226867
0.221409
0.209133
0.198989
0.190837
0.184279
0.173761
0.164305
0.153623
0.143623
0.134828
0.119846
0.111079
0.101658
0.0920416
0.082373
0.0726822
0.0629776
0.0532581
0.0435363
0.0338062
0.0240416
0.014219
0.00459873
0.737101
0.725875
0.715002
0.7016
0.686905
0.681661
0.67931
0.664284
0.650077
0.645264
0.639825
0.626401
0.608331
0.599858
0.592001
0.58372
0.574857
0.566733
0.559161
0.552693
0.542385
0.531374
0.521341
0.509176
0.492072
0.490532
0.479851
0.469862
0.459666
0.449523
0.439519
0.429843
0.420244
0.40806
0.400754
0.383964
0.373428
0.366908
0.35954
0.349198
0.337344
0.328871
0.321065
0.313187
0.300583
0.291946
0.280265
0.266287
0.252587
0.242191
0.237245
0.227693
0.221713
0.210241
0.199639
0.192017
0.180232
0.167957
0.167521
0.151476
0.142376
0.132615
0.121397
0.111506
0.101864
0.0921954
0.0825089
0.0728048
0.0630765
0.0533522
0.0436198
0.0338706
0.0240868
0.0142477
0.00460834
0.736812
0.726822
0.716052
0.700619
0.688569
0.682572
0.675472
0.664705
0.649834
0.641876
0.642123
0.624926
0.607698
0.599664
0.593687
0.585884
0.576764
0.567404
0.55871
0.558283
0.54147
0.528789
0.521357
0.506481
0.49676
0.490807
0.47885
0.470416
0.460197
0.450026
0.439842
0.430005
0.417643
0.408082
0.399034
0.385777
0.374206
0.366458
0.357899
0.350721
0.334531
0.331602
0.320902
0.310635
0.297102
0.294635
0.276457
0.266035
0.256026
0.246094
0.238656
0.224772
0.222988
0.210304
0.199748
0.19272
0.180793
0.169445
0.162501
0.151744
0.141929
0.131809
0.121612
0.111747
0.102035
0.0923648
0.0826662
0.0729472
0.0632077
0.0534584
0.0437044
0.0339383
0.0241374
0.0142786
0.00462407
0.736571
0.728272
0.711935
0.701057
0.691048
0.684478
0.672971
0.659523
0.651141
0.641591
0.639697
0.623426
0.609237
0.598895
0.5962
0.588353
0.579024
0.569095
0.56036
0.55358
0.541731
0.530493
0.519312
0.509911
0.49852
0.487572
0.481977
0.471934
0.460608
0.449846
0.439097
0.424839
0.421349
0.408381
0.397371
0.386146
0.375589
0.36607
0.355178
0.350216
0.337035
0.332471
0.319343
0.306629
0.297753
0.291129
0.274452
0.265548
0.259156
0.248475
0.235367
0.226887
0.223992
0.207895
0.199891
0.195729
0.181918
0.169292
0.161224
0.151026
0.141792
0.131119
0.121498
0.111909
0.10225
0.0925746
0.0828507
0.0731058
0.0633464
0.0535797
0.0438031
0.0340163
0.0241944
0.0143146
0.00463438
0.73576
0.726652
0.711986
0.700682
0.690794
0.681519
0.670221
0.659612
0.65177
0.640352
0.638108
0.625883
0.613287
0.602088
0.593742
0.591229
0.582141
0.570684
0.56039
0.551387
0.541765
0.531826
0.517977
0.514856
0.498192
0.488951
0.481841
0.473749
0.45992
0.449054
0.437707
0.425063
0.423535
0.406333
0.394688
0.385793
0.377311
0.366965
0.356914
0.348325
0.341129
0.329886
0.315255
0.301878
0.297297
0.286003
0.273915
0.264755
0.260246
0.249356
0.237286
0.226424
0.224261
0.205827
0.200041
0.196596
0.18187
0.166866
0.161974
0.157118
0.143363
0.129642
0.121508
0.112177
0.102539
0.0928113
0.0830539
0.0732796
0.0634977
0.0537094
0.0439123
0.0341009
0.0242571
0.0143553
0.00464822
0.735789
0.722502
0.716126
0.699736
0.690939
0.680973
0.663137
0.660972
0.65316
0.638868
0.636034
0.629819
0.616401
0.603901
0.595695