/*--------------------------------*- C++ -*----------------------------------*\
  =========                 |
  \\      /  F ield         | OpenFOAM: The Open Source CFD Toolbox
   \\    /   O peration     | Website:  https://openfoam.org
    \\  /    A nd           | Version:  12
     \\/     M anipulation  |
\*---------------------------------------------------------------------------*/
FoamFile
{
    format      ascii;
    class       surfaceScalarField;
    location    "0.25";
    object      phi.water_0;
}
// * * * * * * * * * * * * * * * * * * * * * * * * * * * * * * * * * * * * * //

dimensions      [0 3 -1 0 0 0 0];

internalField   nonuniform List<scalar> 
7375
(
1.16496e-07
1.61407e-08
9.69158e-08
2.08269e-08
8.21407e-08
1.50043e-08
8.13834e-08
9.85864e-10
8.81076e-08
-5.81502e-09
5.00424e-08
-9.0072e-09
9.83507e-08
-2.23166e-09
2.0311e-07
3.34508e-08
8.7477e-08
-2.29642e-08
1.02098e-07
-1.47682e-08
1.11547e-07
-9.44902e-09
1.15897e-07
-1.97533e-09
1.00437e-07
-3.14852e-08
1.72074e-07
-2.59863e-08
1.46565e-07
2.52608e-08
1.34193e-07
1.37566e-08
1.31446e-07
2.81427e-09
1.15428e-07
1.47655e-08
1.73363e-07
8.28627e-08
1.49603e-07
2.37827e-08
3.80851e-08
-2.80223e-08
3.69731e-08
1.10132e-09
3.73864e-08
-8.58197e-12
1.35009e-07
4.37464e-08
1.12205e-07
2.13587e-08
1.20572e-07
-9.5933e-09
3.04943e-08
-4.84378e-08
3.61017e-08
-5.32223e-09
2.89323e-08
7.29161e-09
3.07854e-08
-1.71836e-09
3.38517e-08
-3.08314e-09
4.82296e-08
-1.44108e-08
6.13223e-08
-1.24921e-08
2.50272e-08
-1.06212e-08
7.12726e-08
1.0655e-10
6.58693e-08
5.22058e-09
5.19869e-08
1.36609e-08
3.56142e-08
1.62405e-08
1.55366e-08
1.99438e-08
1.32635e-08
2.2733e-09
9.8133e-09
3.62002e-09
8.72578e-09
1.1091e-09
1.89585e-08
-1.02358e-08
3.03306e-08
-1.11805e-08
4.42211e-08
-1.39053e-08
4.81654e-08
-4.14654e-09
9.93206e-08
-5.16927e-08
1.06018e-07
-7.81936e-09
8.46418e-08
2.13766e-08
6.39025e-08
2.16143e-08
6.05181e-08
3.51091e-09
4.9458e-08
1.10298e-08
5.1043e-08
-1.09537e-09
5.7421e-08
-6.43973e-09
7.73996e-08
-2.06054e-08
8.38007e-08
-6.38656e-09
8.40037e-08
-1.90584e-10
8.48145e-08
-8.47221e-10
7.48269e-08
1.00327e-08
5.14579e-08
2.34727e-08
5.11089e-08
4.80245e-10
8.4507e-08
-3.40737e-08
7.69582e-08
7.49719e-09
6.81763e-08
8.04235e-09
6.95259e-08
-1.33615e-09
6.01515e-08
1.00506e-08
6.45231e-09
7.11936e-09
4.70107e-08
5.59185e-09
5.55951e-08
-9.05442e-09
7.19444e-08
-1.63492e-08
8.41853e-08
-1.22409e-08
6.45861e-08
1.95992e-08
1.3964e-08
5.0622e-08
-5.67966e-08
7.07604e-08
3.04762e-08
-6.22814e-08
1.40701e-08
-6.52011e-08
2.3746e-08
-6.1528e-08
1.13312e-08
-5.16868e-08
-8.85534e-09
-5.68529e-08
-6.48578e-10
-1.23484e-07
1.23256e-08
-1.03651e-07
2.33032e-08
-7.32802e-08
2.01178e-09
-1.1818e-07
2.24487e-08
-9.28567e-08
-4.00909e-08
-5.69616e-08
-4.54403e-08
-6.38328e-08
4.84666e-09
-8.11224e-08
-1.38741e-08
5.22418e-08
-2.01372e-08
-2.97866e-08
-3.12486e-08
-4.05122e-08
2.39344e-08
-4.15034e-08
5.09473e-08
-3.42678e-08
7.25457e-09
-4.40678e-08
4.55317e-08
-6.7789e-08
4.8154e-08
-6.42192e-08
1.45875e-08
-1.15143e-07
4.7195e-09
-9.89396e-08
3.07527e-08
-5.28099e-08
-2.82937e-09
-7.71748e-08
-9.26647e-10
-5.99394e-08
-2.68285e-08
-9.07676e-08
2.73421e-08
-1.1266e-07
1.65702e-08
-1.07923e-07
3.70438e-09
-1.09018e-07
-6.23707e-10
-1.10381e-07
-1.71963e-09
-1.14255e-07
-1.05361e-08
-1.09296e-07
-1.63365e-08
-1.02277e-07
-1.75321e-08
-1.00138e-07
-3.07563e-09
-9.96415e-08
4.72391e-09
-1.1116e-07
2.51794e-08
-1.0566e-07
1.07411e-08
-1.0892e-07
2.32039e-08
-1.15181e-07
8.55731e-09
-7.89096e-08
-3.29875e-08
-8.92494e-08
1.14491e-08
-9.01745e-08
-8.39051e-09
-8.22703e-08
-1.90846e-08
-9.16989e-08
-7.18683e-09
-2.0094e-07
7.75792e-09
-6.58955e-08
5.30616e-08
-8.17574e-08
8.71495e-09
-1.75843e-07
-2.42708e-08
-1.55074e-07
8.44743e-10
-1.51029e-07
1.00744e-09
-1.43209e-07
3.17778e-09
-1.41285e-07
-4.48043e-09
-1.34636e-07
-1.30229e-08
-1.13828e-07
-4.18402e-08
-1.4562e-07
2.68918e-08
-1.42445e-07
-3.36596e-09
-1.34317e-07
-1.05359e-08
-1.57148e-07
3.28644e-08
-1.59912e-07
2.62364e-08
-1.81445e-07
1.83113e-08
-9.21346e-08
1.94824e-08
-1.88075e-07
-3.2385e-08
-1.63651e-07
-1.4582e-08
-1.57198e-07
-7.78881e-09
-1.47331e-07
8.37628e-11
-1.39824e-07
-4.59577e-10
-1.24041e-07
-1.02472e-08
-1.12341e-07
-2.07539e-08
-1.03349e-07
-2.53407e-08
-9.78906e-08
-1.76998e-08
-1.05267e-07
2.69758e-08
-1.1926e-07
6.46148e-08
-1.30155e-07
8.16553e-08
3.21776e-08
-1.11884e-07
7.16155e-09
-1.1769e-07
2.95511e-08
-1.17711e-07
1.12377e-08
-1.06894e-07
-1.98753e-08
-1.47416e-07
3.98738e-08
-1.62598e-07
2.58492e-08
-1.76489e-07
-9.79757e-09
-8.18929e-08
9.57976e-08
-1.96527e-07
-4.90188e-08
-1.61105e-07
-2.91592e-08
-8.55076e-08
1.95861e-08
-1.95583e-07
-2.36157e-08
-2.12875e-07
-7.49032e-10
-1.11226e-07
1.98123e-08
-1.23784e-07
-1.66113e-08
-1.66939e-07
-7.31349e-08
-1.58116e-07
-8.35709e-09
-6.94346e-08
6.15973e-08
-8.28942e-08
5.94742e-08
-1.62937e-07
-1.03415e-08
-1.50527e-07
6.64979e-10
-1.56133e-07
8.73225e-09
-1.75329e-07
2.81847e-09
-1.55321e-07
2.56015e-08
-1.65105e-07
8.85767e-09
-6.66621e-08
1.53605e-08
-1.22144e-07
-5.57138e-08
-1.22745e-07
1.55972e-08
-1.32318e-07
1.32777e-08
-1.34321e-07
1.37924e-09
-1.44087e-07
8.046e-09
-1.48345e-07
-6.27733e-09
-1.49366e-07
-1.53155e-08
-1.46566e-07
-2.05107e-08
-1.42256e-07
-7.3855e-09
-1.44688e-07
7.15647e-09
-1.39792e-07
2.02832e-08
-1.46848e-07
1.79809e-08
-1.50227e-07
2.65833e-08
-1.5201e-07
8.78928e-09
-6.74842e-08
2.3881e-08
-1.74766e-07
-2.05321e-08
-1.70405e-07
-1.27508e-08
-1.80127e-07
-9.55704e-09
-1.9147e-07
4.15552e-09
-2.01794e-07
1.79237e-08
-1.74061e-07
2.47875e-08
-1.83862e-07
1.85166e-08
-2.03455e-07
-4.67739e-09
-1.94847e-07
-7.76308e-09
-1.91047e-07
-8.44055e-10
-1.84348e-07
-3.48848e-09
-1.87301e-07
-3.40809e-09
-2.02088e-07
-2.97272e-10
-8.02762e-08
-2.22579e-08
-2.38278e-07
-8.88837e-10
-2.07166e-07
1.00248e-08
-1.08529e-07
3.22208e-08
-1.79702e-07
-3.51659e-08
-1.96457e-07
4.2992e-08
-2.14247e-07
3.61013e-08
-2.24045e-07
3.1169e-08
-2.55421e-07
1.55391e-09
-2.61638e-07
-8.36462e-09
-2.5622e-07
-1.32069e-08
-2.41832e-07
-1.43043e-08
-2.27244e-07
-1.5047e-08
-2.1821e-07
-1.92813e-08
-2.15358e-07
-2.36061e-08
-2.14717e-07
-2.59814e-08
-2.1581e-07
-1.66066e-08
-2.09141e-07
2.03061e-08
-1.90964e-07
4.64376e-08
-1.6351e-07
5.42016e-08
1.80213e-08
-1.58975e-07
2.57076e-08
-2.01617e-07
2.75993e-08
-1.65678e-07
1.96063e-08
-8.98343e-08
4.39677e-08
-1.93193e-07
4.19771e-09
-2.09705e-07
4.06369e-08
-1.26353e-07
4.83449e-08
-2.00392e-07
-1.34312e-08
-2.19202e-07
1.37571e-08
-1.25923e-07
1.79938e-08
-1.88474e-07
-5.56912e-08
-2.41621e-07
2.73678e-08
-2.49748e-07
4.83081e-09
-2.18915e-07
-1.111e-08
-2.25654e-07
-7.63929e-09
-1.68161e-07
8.57846e-09
-1.89929e-07
1.34957e-08
-1.33628e-07
5.97079e-09
-2.08327e-07
-4.36482e-09
-2.20596e-07
-3.03407e-10
-1.9836e-07
-2.15699e-08
-1.89634e-07
5.67343e-12
-2.17279e-07
3.0435e-08
-2.04453e-07
1.27756e-08
-2.02355e-07
6.76028e-09
-1.91685e-07
4.69056e-09
-7.91978e-08
-2.80095e-08
-1.74532e-07
-2.76069e-08
-1.74219e-07
1.10717e-08
-1.67682e-07
-5.15696e-09
-1.53045e-07
-6.5914e-09
-1.42346e-07
-1.6976e-08
-1.33132e-07
-2.4529e-08
-1.37576e-07
-1.60671e-08
-1.23855e-07
-2.13235e-08
-1.49091e-07
3.23931e-08
-1.59776e-07
2.93376e-08
-1.72485e-07
3.06905e-08
-1.68615e-07
2.44728e-08
-1.69894e-07
1.00692e-08
-1.58768e-07
1.25107e-08
-1.87853e-07
8.46714e-09
-1.99372e-07
-1.2321e-09
-2.09626e-07
6.98056e-10
-2.11809e-07
6.33824e-09
-2.03688e-07
9.80268e-09
-1.85911e-07
7.01097e-09
-1.83075e-07
1.56805e-08
-1.86979e-07
-7.72632e-10
-1.63922e-07
-3.11378e-08
-1.74838e-07
1.00722e-08
-1.82888e-07
4.52604e-09
-1.79987e-07
-6.30961e-09
-2.21449e-07
-5.48548e-09
-9.30018e-08
3.61244e-08
-2.50909e-07
-2.95838e-08
-1.89263e-07
-4.92029e-09
-1.81339e-07
2.18955e-08
-1.04942e-07
2.98309e-08
-1.75228e-07
-2.58667e-08
-1.90081e-07
5.09546e-08
-1.93123e-07
3.61807e-08
-2.0562e-07
1.5982e-08
-2.16388e-07
2.40349e-09
-2.12933e-07
-1.66618e-08
-2.10372e-07
-1.68651e-08
-2.15155e-07
-1.02647e-08
-2.25414e-07
-9.02159e-09
-2.30356e-07
-1.8664e-08
-2.30629e-07
-2.57092e-08
-2.30626e-07
-1.66093e-08
-2.20968e-07
1.06483e-08
-1.98001e-07
2.34708e-08
-1.72322e-07
2.85217e-08
7.70034e-09
-2.10275e-07
-1.85008e-08
-2.35988e-07
5.51567e-08
-2.14172e-07
4.41679e-08
-2.00844e-07
2.80062e-08
-2.20074e-07
2.11818e-08
-2.0897e-07
2.95331e-08
-1.97269e-07
3.8283e-08
-2.278e-07
1.71e-08
-2.45025e-07
3.14442e-08
-2.29422e-07
-1.33137e-10
-1.63173e-07
1.88792e-08
-2.90035e-07
-3.07072e-08
-2.81878e-07
-4.49769e-10
-2.5602e-07
9.32342e-09
-2.55925e-07
-1.03463e-08
-2.32451e-07
-1.47443e-08
-2.40942e-07
-2.22053e-08
-2.10723e-07
2.19311e-08
-2.48508e-07
3.12264e-08
-2.55388e-07
6.57671e-09
-1.58882e-07
2.18754e-08
-1.37327e-07
-2.13315e-08
-2.15739e-07
-3.11037e-08
-1.93037e-07
-9.926e-09
-1.84505e-07
-1.77187e-09
-1.80292e-07
4.7774e-10
-6.80283e-08
-3.24847e-10
-9.88771e-08
3.92911e-09
-1.69783e-07
-5.65607e-08
-1.51417e-07
-2.52544e-08
-1.41346e-07
-1.6662e-08
-1.46046e-07
-1.22763e-08
-1.33265e-07
-3.76941e-08
-1.77564e-07
2.64202e-08
-9.0347e-08
3.2854e-08
-1.8028e-07
-1.67037e-08
-1.5653e-07
5.58803e-09
-1.62054e-07
3.59016e-08
-1.64557e-07
2.69758e-08
-1.74814e-07
2.03267e-08
-1.72723e-07
1.21812e-08
-1.72692e-07
8.43654e-09
-1.75503e-07
-1.82087e-10
-1.66323e-07
-8.48194e-09
-1.6636e-07
6.37502e-09
-1.53272e-07
-3.28488e-09
-1.30242e-07
-1.60191e-08
-1.20259e-07
5.69794e-09
-1.51927e-07
2.93458e-08
-7.72277e-08
3.55567e-08
-1.67125e-07
-3.91942e-08
-1.59114e-07
-3.4848e-09
-1.5888e-07
-6.54362e-09
-1.74929e-07
1.05644e-08
-1.59542e-07
2.07368e-08
-1.87971e-07
7.63565e-10
-1.8981e-07
-1.17673e-09
-1.56025e-07
-1.38063e-08
-1.5588e-07
2.62001e-08
-9.8432e-08
5.8079e-08
-1.98226e-07
1.18013e-08
-1.70002e-07
9.79155e-09
-1.98681e-07
4.63606e-08
-2.11767e-07
1.54896e-08
-2.27066e-07
-1.36356e-09
-2.43402e-07
-5.28523e-10
-2.54587e-07
9.20248e-10
-2.52633e-07
-1.09753e-08
-2.39289e-07
-3.2008e-08
-2.26036e-07
-3.89622e-08
-2.18094e-07
-2.45513e-08
-2.07872e-07
4.25917e-10
-1.92493e-07
8.09185e-09
-1.75711e-07
1.17397e-08
3.64303e-09
-1.56078e-07
3.70413e-08
-2.59884e-07
2.02194e-08
-2.24515e-07
6.59767e-09
-2.11572e-07
1.50637e-08
-2.10832e-07
2.04419e-08
-2.07993e-07
2.63926e-08
-1.9374e-07
2.40308e-08
-1.9869e-07
2.00223e-08
-2.22317e-07
7.94043e-09
-2.14231e-07
4.06995e-08
-2.0325e-07
7.70667e-09
-2.44582e-07
1.06243e-08
-2.3719e-07
-7.84148e-09
-2.23987e-07
-3.78427e-09
-2.1937e-07
-1.27253e-08
-2.17556e-07
-1.6558e-08
-2.23349e-07
-1.86313e-08
-2.11066e-07
9.87252e-09
-2.00118e-07
-2.61059e-08
-1.84504e-07
-9.03659e-09
-1.50775e-07
-1.03152e-08
-1.25846e-07
-8.08072e-11
-1.45137e-07
-1.30971e-08
-1.38985e-07
-1.60778e-08
-1.37802e-07
-2.95447e-09
-1.46055e-07
7.31534e-09
-4.88345e-08
4.43526e-08
-1.40964e-07
-4.1986e-08
-1.43553e-07
-5.59864e-08
-1.33055e-07
-3.57527e-08
-1.42651e-07
-7.06593e-09
-1.66562e-07
9.93608e-09
-8.60442e-08
2.31819e-08
-1.91526e-07
-7.17138e-09
-1.57362e-07
-1.64491e-09
-1.74623e-07
5.57521e-10
-1.9079e-07
2.17551e-08
-1.88017e-07
3.31288e-08
-1.89239e-07
2.81982e-08
-1.90945e-07
2.20329e-08
-1.61935e-07
-1.70026e-08
-1.77854e-07
2.41952e-08
-1.77747e-07
-2.88781e-10
-1.78374e-07
-7.8548e-09
-1.83221e-07
-3.54285e-08
-1.77257e-07
-9.24878e-09
-1.5893e-07
1.23046e-08
-1.51845e-07
-1.38685e-09
-1.67357e-07
-1.79207e-09
-1.4688e-07
1.47168e-08
-1.58671e-07
1.92477e-08
-1.53281e-07
-8.8747e-09
-1.58983e-07
-8.41403e-10
-1.68208e-07
1.97891e-08
-1.86974e-07
3.99099e-08
-1.95376e-07
7.17271e-09
-1.9225e-07
-5.14464e-08
-2.00792e-07
4.32067e-08
-1.72652e-07
-1.93987e-09
-1.47842e-07
3.23466e-08
-1.7884e-07
4.05618e-08
-9.81746e-08
7.15318e-08
-1.91031e-07
4.06732e-09
-1.87027e-07
1.14858e-08
-2.03753e-07
1.5363e-08
-2.22748e-07
1.84664e-08
-2.32862e-07
1.10339e-08
-2.25744e-07
-1.80934e-08
-2.13636e-07
-4.4116e-08
-2.06436e-07
-4.61622e-08
-2.02672e-07
-2.83149e-08
-1.95372e-07
-6.87462e-09
-1.87051e-07
-2.29162e-10
-1.78062e-07
2.75115e-09
2.44866e-09
-1.43547e-07
1.68639e-08
-2.21763e-07
-3.98995e-08
-1.84158e-07
-3.3613e-08
-1.77194e-07
8.1e-09
-1.94821e-07
3.76842e-08
-1.91212e-07
2.27835e-08
-1.83177e-07
1.59966e-08
-1.74425e-07
1.12704e-08
-1.88156e-07
2.15901e-08
-2.16324e-07
2.2218e-08
-1.7745e-07
1.54832e-08
-1.63403e-07
-3.38828e-09
-1.44192e-07
-2.73309e-08
-1.68796e-07
2.08202e-08
-1.5584e-07
-2.56813e-08
-1.53805e-07
-1.87613e-08
-1.56477e-07
-1.59596e-08
-1.79124e-07
-1.23037e-08
-1.62858e-07
3.80823e-09
-1.5653e-07
-1.7026e-08
-1.38464e-07
-2.83811e-08
-1.32885e-07
-5.66009e-09
-1.38933e-07
-7.04907e-09
-1.39023e-07
-1.59869e-08
-1.39322e-07
-4.07714e-09
-1.4806e-07
1.60539e-08
-1.25561e-07
2.31474e-08
-1.66955e-07
-1.02005e-09
-1.96746e-07
-2.6195e-08
-1.87137e-07
-4.58288e-08
-1.96245e-07
2.02163e-09
-1.74258e-07
-1.20506e-08
-1.57202e-07
5.88889e-09
-1.70592e-07
6.21872e-09
-1.87493e-07
1.52566e-08
-1.59254e-07
-2.76816e-08
-1.73823e-07
3.59577e-08
-1.84612e-07
4.3918e-08
-1.90714e-07
3.43003e-08
-2.00024e-07
2.93028e-08
-1.15695e-07
4.16841e-08
-2.0063e-07
-2.82396e-08
-1.98491e-07
-4.47419e-09
-1.97814e-07
-8.53148e-09
-2.39505e-07
6.26248e-09
-2.2235e-07
-2.64031e-08
-2.002e-07
-9.84601e-09
-1.688e-07
-3.27867e-08
-1.96378e-07
2.55261e-08
-1.8964e-07
7.97907e-09
-1.99479e-07
2.90864e-08
-1.62429e-07
-4.59243e-08
-1.62058e-07
-1.21189e-09
-1.77837e-07
3.37534e-08
-1.96323e-07
1.12646e-08
-2.10357e-07
2.32104e-08
-1.3688e-07
6.22028e-08
-2.47566e-07
-3.27084e-08
-2.06962e-07
6.21742e-09
-1.7983e-07
7.10225e-09
-1.42308e-07
1.23702e-09
-1.40525e-07
6.68844e-08
-1.6984e-07
3.51571e-08
-1.78065e-07
2.16244e-08
-1.86543e-07
2.3841e-08
-1.85821e-07
1.77444e-08
-1.77036e-07
2.24897e-09
-1.68287e-07
-2.68416e-08
-1.69969e-07
-4.24343e-08
-1.79064e-07
-3.70674e-08
-1.88271e-07
-1.91081e-08
-1.87314e-07
-7.83155e-09
-1.85003e-07
-2.54018e-09
-1.8137e-07
-8.81407e-10
1.55484e-09
-2.24535e-07
-8.21591e-10
-2.56441e-07
-1.10174e-08
-1.73579e-07
2.4918e-08
-1.6286e-07
8.1335e-10
-2.3427e-07
-2.94438e-08
-2.14412e-07
5.35538e-10
-2.11059e-07
1.26435e-08
-2.07535e-07
7.74726e-09
-1.72945e-07
-1.30004e-08
-2.1474e-07
1.71877e-08
-1.74721e-07
2.38975e-08
-1.8498e-07
5.05349e-09
-8.7339e-08
1.45161e-08
-1.99383e-07
-5.28463e-08
-1.66439e-07
-1.19743e-08
-1.71658e-07
-1.35424e-08
-1.82322e-07
-5.29579e-09
-2.07227e-07
-3.40482e-08
-1.85831e-07
-1.7549e-08
-1.71457e-07
-3.17236e-08
-1.80133e-07
2.69456e-08
-1.76838e-07
-8.95474e-09
-1.70787e-07
-1.30995e-08
-1.77646e-07
-9.1278e-09
-1.78803e-07
-2.92016e-09
-1.82084e-07
1.73135e-08
-1.8465e-07
2.57134e-08
-1.88301e-07
4.56138e-09
-2.62415e-07
4.5243e-08
-1.87986e-07
2.30733e-08
-2.75531e-07
-4.70732e-08
-2.62362e-07
-2.80297e-08
-2.46566e-07
-9.80661e-09
-2.32779e-07
-7.56873e-09
-2.53764e-07
-1.04082e-08
-1.45515e-07
5.21561e-08
-1.94177e-07
-5.39185e-08
-1.90236e-07
3.76125e-08
-1.87804e-07
3.18684e-08
-1.90622e-07
3.01763e-08
-2.24313e-07
2.81034e-08
-2.07345e-07
3.44376e-09
-2.08619e-07
-3.19975e-09
-2.15076e-07
-2.07449e-09
-2.45764e-07
-9.69952e-09
-2.30158e-07
4.64119e-09
-2.36195e-07
-3.80871e-09
-1.40208e-07
1.26079e-08
-2.28272e-07
-2.49473e-08
-2.18455e-07
-4.16685e-09
-2.06217e-07
-2.98018e-08
-1.24567e-07
5.84313e-08
-1.24174e-07
-1.60416e-09
-1.94186e-07
-3.61869e-08
-1.80473e-07
-2.56272e-09
-1.73134e-07
1.58714e-08
-1.50534e-07
3.96028e-08
-2.06461e-07
2.32194e-08
-2.19941e-07
1.7453e-08
-2.3643e-07
2.12284e-08
-1.07859e-07
1.76206e-08
-1.72498e-07
-5.92475e-09
-1.79126e-07
3.96207e-08
-1.74269e-07
1.87658e-08
-1.6605e-07
1.73643e-08
-1.5859e-07
1.02849e-08
-1.45285e-07
-1.10562e-08
-1.44302e-07
-2.78248e-08
-1.55822e-07
-3.09139e-08
-1.70837e-07
-2.20529e-08
-1.78559e-07
-1.13857e-08
-1.80452e-07
-5.9391e-09
-1.81102e-07
-1.88969e-09
-1.81048e-07
-9.36106e-10
1.80624e-09
-1.96384e-07
-1.15435e-08
-1.99744e-07
-7.65758e-09
-1.80989e-07
5.96867e-09
-1.67037e-07
-1.31382e-08
-1.91743e-07
-5.03861e-09
-2.04545e-07
1.33379e-08
-2.18056e-07
2.61544e-08
-2.35244e-07
2.49356e-08
-1.12074e-07
4.92506e-09
-1.9195e-07
-4.1474e-08
-1.64332e-07
-7.35524e-09
-1.92802e-07
-1.35556e-08
-1.25727e-07
-4.08876e-09
-1.68017e-07
-1.05565e-08
-1.64883e-07
-1.5108e-08
-1.75671e-07
-2.75431e-09
-1.87178e-07
6.21163e-09
-1.92611e-07
-2.891e-08
-2.40179e-07
2.75686e-08
-1.52064e-07
2.15555e-08
-1.99322e-07
-6.4858e-08
-2.28099e-07
1.98226e-08
-2.14397e-07
-2.68016e-08
-2.24218e-07
6.93848e-10
-1.9976e-07
-2.73776e-08
-2.0485e-07
2.24036e-08
-2.45944e-07
6.33893e-08
-1.35392e-07
3.5772e-08
-2.70561e-07
4.18422e-08
-2.56879e-07
9.15602e-09
-2.79169e-07
-2.52636e-08
-3.09768e-07
5.72976e-09
-2.95909e-07
-2.34281e-08
-2.82355e-07
-2.41415e-08
-2.81888e-07
-1.08757e-08
-2.80549e-07
4.16667e-09
-1.44515e-07
-2.42557e-09
-2.45019e-07
-4.17308e-10
-2.26491e-07
1.08404e-08
-2.14245e-07
1.57457e-08
-2.46662e-07
1.30988e-08
-2.10069e-07
1.60181e-08
-2.16945e-07
3.71413e-09
-2.28401e-07
9.38158e-09
-2.43311e-07
5.21102e-09
-2.5271e-07
1.40398e-08
-2.63613e-07
7.0953e-09
-2.43051e-07
-7.9547e-09
-2.39651e-07
-2.86014e-08
-2.81609e-07
-8.859e-09
-1.55382e-07
3.18336e-08
-2.10657e-07
-2.48319e-08
-1.86773e-07
-2.76369e-08
-1.95164e-07
-2.77954e-08
-1.74082e-07
-2.36454e-08
-1.53867e-07
-4.34313e-09
-1.73168e-07
5.8309e-08
-1.87876e-07
3.79278e-08
-2.09723e-07
3.93002e-08
-2.25881e-07
3.71695e-08
-1.1603e-07
4.7541e-08
-1.16068e-07
-4.76241e-09
-1.90167e-07
-2.48186e-08
-1.7817e-07
6.6466e-09
-1.72181e-07
1.31566e-08
-1.71823e-07
9.92694e-09
-1.71234e-07
-1.16454e-08
-1.74283e-07
-2.47752e-08
-1.78859e-07
-2.63381e-08
-1.85025e-07
-1.5887e-08
-1.85927e-07
-1.04837e-08
-1.84e-07
-7.86586e-09
-1.84125e-07
-1.76518e-09
-1.83744e-07
-1.31728e-09
5.63685e-10
-1.52364e-07
-2.0236e-08
-1.53053e-07
-8.53094e-09
-1.74731e-07
-1.94844e-08
-1.44155e-07
4.71866e-09
-1.42205e-07
-6.98911e-09
-1.51624e-07
2.2758e-08
-1.56803e-07
3.13327e-08
-1.86124e-07
5.42577e-08
-1.77232e-07
-3.96694e-09
-1.52653e-07
-6.64766e-08
-1.51867e-07
-8.05814e-09
-1.94636e-07
-1.72991e-08
-1.57977e-07
5.90363e-09
-1.93408e-07
2.4874e-08
-2.08516e-07
4.27851e-13
-2.16329e-07
5.05865e-09
-2.26136e-07
1.3712e-08
-1.47014e-07
3.37104e-08
-2.54347e-07
-3.55045e-09
-2.41953e-07
6.47335e-09
-1.74127e-07
8.80141e-09
-2.94844e-07
-4.42863e-08
-2.71047e-07
-3.94773e-09
-3.17375e-07
3.71382e-10
-2.26768e-07
6.86182e-08
-2.27949e-07
2.591e-08
-3.03728e-07
-2.43677e-09
-1.67227e-07
3.71656e-08
-2.76311e-07
-3.39698e-08
-2.54955e-07
-1.21998e-08
-2.66702e-07
3.3134e-08
-2.98962e-07
-5.66795e-09
-2.76424e-07
-2.34718e-11
-2.34954e-07
-6.84309e-08
-2.21837e-07
-2.39928e-08
-2.81857e-07
1.75365e-08
-1.21449e-07
2.5007e-08
-2.10091e-07
-4.98141e-08
-2.03759e-07
2.36508e-09
-2.05196e-07
1.71835e-08
-2.01568e-07
9.33711e-09
-1.75912e-07
-1.14329e-08
-2.14675e-07
4.20446e-08
-2.23027e-07
1.99236e-08
-2.29681e-07
1.19869e-08
-2.36651e-07
2.10105e-08
-2.4176e-07
1.22039e-08
-2.45155e-07
-4.55907e-09
-2.25224e-07
-4.90328e-08
-2.4824e-07
-2.99612e-08
-1.96499e-07
2.60099e-08
-2.09324e-07
-1.42645e-08
-2.11455e-07
-2.55061e-08
-2.1532e-07
-2.393e-08
-2.29655e-07
-9.31069e-09
-1.02793e-07
9.79533e-09
-1.91698e-07
8.58936e-09
-1.77518e-07
2.1792e-08
-1.63676e-07
2.5458e-08
-1.54831e-07
2.80387e-08
-1.13277e-07
5.98738e-09
-1.14916e-07
-3.12358e-09
-1.27596e-07
-1.23919e-08
-1.18156e-07
-1.58715e-09
-1.17851e-07
1.41739e-08
-1.23783e-07
1.58594e-08
-1.37846e-07
2.41795e-09
-1.45406e-07
-1.72152e-08
-1.48915e-07
-2.28298e-08
-1.58323e-07
-6.47907e-09
-1.69337e-07
5.3045e-10
-1.76206e-07
-9.96824e-10
-1.79016e-07
1.04479e-09
-1.82052e-07
1.71886e-09
4.0964e-10
-1.94083e-07
1.11623e-08
-1.89832e-07
-1.27831e-08
-1.83367e-07
-2.57504e-08
-1.63916e-07
-1.47327e-08
-1.41336e-07
-2.95684e-08
-1.65178e-07
4.61295e-08
-1.76994e-07
4.31484e-08
-1.88086e-07
1.86997e-08
-2.0993e-07
1.78773e-08
-1.12161e-07
2.35008e-08
-1.71593e-07
-8.71643e-08
-1.48882e-07
-4.17604e-08
-1.24462e-07
-1.85164e-08
-1.46976e-07
4.691e-08
-1.71196e-07
2.42204e-08
-1.64565e-07
-1.57182e-09
-1.49012e-07
-3.36072e-09
-1.15992e-07
3.46666e-10
-1.64624e-07
4.6265e-08
-1.89994e-07
2.99057e-08
-2.00365e-07
1.90815e-08
-2.5056e-07
7.95258e-09
-2.61101e-07
6.66208e-09
-2.51703e-07
-9.02634e-09
-2.39455e-07
5.58005e-08
-2.39113e-07
2.5568e-08
-2.57438e-07
1.58638e-08
-2.25423e-07
4.77185e-09
-2.44914e-07
-1.44786e-08
-2.21231e-07
-3.62527e-08
-2.43515e-07
6.22007e-09
-2.62645e-07
1.33248e-08
-2.61359e-07
1.3701e-09
-1.47214e-07
4.06701e-09
-1.42343e-07
-2.88637e-08
-2.5557e-07
-5.5838e-08
-1.80865e-07
-4.78531e-08
-1.91495e-07
6.49327e-09
-1.96429e-07
5.29144e-09
-2.03337e-07
2.40915e-08
-2.13314e-07
1.93144e-08
-1.3008e-07
4.66119e-08
-2.17961e-07
-9.03761e-09
-1.97904e-07
-4.37586e-09
-1.82536e-07
-3.38071e-09
-1.73488e-07
1.38249e-08
-1.7307e-07
1.17857e-08
-1.9031e-07
1.07397e-08
-1.25997e-07
2.80487e-08
-1.41177e-07
-1.20558e-08
-2.01804e-07
-5.16381e-08
-1.89275e-07
-2.88528e-08
-1.86697e-07
-2.80837e-08
-1.97137e-07
-1.34904e-08
-2.15375e-07
8.92773e-09
-1.0311e-07
3.85339e-08
-1.79289e-07
-5.31458e-08
-1.50235e-07
-9.09146e-09
-1.4479e-07
2.17113e-08
-8.92013e-08
-2.75494e-08
-8.36336e-08
-4.90303e-10
-1.13887e-07
2.71302e-08
-1.1887e-07
-7.40913e-09
-9.72228e-08
-2.32343e-08
-8.63712e-08
4.3042e-09
-8.40009e-08
1.43526e-08
-1.01404e-07
1.98215e-08
-1.28025e-07
9.40564e-09
-1.50894e-07
3.85003e-11
-1.6586e-07
8.48702e-09
-1.76652e-07
1.13226e-08
-1.84581e-07
6.93273e-09
-1.84593e-07
1.05613e-09
-1.84639e-07
1.76516e-09
-2.19009e-10
-2.33165e-07
-4.75614e-08
-2.24761e-07
-2.11878e-08
-2.14394e-07
-3.64904e-08
-2.35192e-07
6.06576e-09
-1.36166e-07
5.93967e-08
-2.17218e-07
-1.13569e-08
-2.19886e-07
4.31604e-08
-2.12398e-07
1.12126e-08
-1.94887e-07
3.66028e-10
-1.88847e-07
-2.91891e-08
-2.02382e-07
-2.81553e-08
-1.8394e-07
-6.0202e-08
-9.19496e-08
3.0076e-08
-1.85707e-07
2.12954e-09
-1.59418e-07
-3.96337e-09
-1.62815e-07
1.82566e-09
-1.7391e-07
5.96077e-09
-7.19182e-08
3.93395e-08
-1.65833e-07
9.52767e-10
-1.66645e-07
3.04071e-08
-1.75522e-07
2.74837e-08
-1.92623e-07
2.28553e-08
-2.51318e-07
1.82261e-08
-1.47933e-07
7.82642e-08
-2.337e-07
3.02946e-09
-1.97646e-07
-1.28698e-08
-2.10649e-07
2.85757e-08
-2.02918e-07
-2.95947e-09
-2.15247e-07
-4.345e-09
-1.18094e-07
9.20579e-09
-2.10271e-07
-3.68252e-08
-1.95942e-07
-3.26221e-09
-1.99524e-07
9.27152e-10
-1.09061e-07
5.49981e-08
-1.10448e-07
-2.63632e-08
-2.34919e-07
-1.19185e-07
-1.96466e-07
-3.96551e-08
-2.3759e-07
3.42157e-09
-2.18712e-07
3.25936e-08
-2.16479e-07
1.96266e-08
-2.02503e-07
5.33876e-09
-1.81012e-07
-2.1529e-08
-1.83162e-07
-6.97951e-09
-1.84394e-07
-3.14359e-09
-1.69958e-07
2.88677e-08
-1.66442e-07
1.03092e-08
-1.66129e-07
1.14732e-08
-1.79747e-07
2.43576e-08
-1.72113e-07
2.01282e-08
-1.78496e-07
-5.67178e-09
-1.95514e-07
-3.5147e-08
-1.90886e-07
-3.34807e-08
-1.896e-07
-2.93702e-08
-1.87761e-07
-1.53289e-08
-1.89949e-07
1.11155e-08
-1.6786e-07
-2.82053e-08
-1.89195e-07
1.39734e-08
-1.61327e-07
-4.09532e-08
-2.19757e-07
3.30108e-08
-8.13557e-08
2.26118e-08
-5.20202e-08
-2.98258e-08
-1.39419e-07
-7.20724e-08
-1.31823e-07
-1.50057e-08
-1.22318e-07
1.51589e-08
-1.17844e-07
1.01059e-09
-1.15742e-07
1.22506e-08
-1.25871e-07
2.99501e-08
-1.50928e-07
3.4463e-08
-1.69625e-07
1.87357e-08
-1.74444e-07
1.33062e-08
-1.75623e-07
1.25016e-08
-1.79036e-07
1.03447e-08
-1.81216e-07
3.23642e-09
-1.82547e-07
3.09597e-09
-3.17661e-10
-1.9672e-07
-1.18654e-08
-2.14234e-07
-5.85964e-09
-1.53983e-07
4.46519e-08
-1.76221e-07
2.98748e-08
-1.42202e-07
2.53777e-08
-1.3126e-07
-2.1293e-08
-2.30759e-07
4.12132e-09
-2.23063e-07
1.16336e-09
-2.12092e-07
-1.06051e-08
-2.17589e-07
-2.59122e-08
-2.54197e-07
-3.86785e-08
-1.37602e-07
1.38024e-08
-2.01605e-07
-4.44587e-08
-2.13243e-07
-3.49179e-08
-1.82032e-07
1.14764e-08
-1.8186e-07
1.65403e-09
-1.66581e-07
-7.61881e-09
-1.19737e-07
-6.69185e-09
-1.1641e-07
-2.40782e-09
-1.0124e-07
1.50845e-08
-1.00121e-07
2.63532e-08
-1.33357e-07
5.56426e-08
-1.78219e-07
6.15416e-08
-1.64217e-07
6.36133e-08
-2.10217e-07
4.95664e-08
-1.21719e-07
3.98253e-08
-2.11959e-07
-1.97224e-08
-1.78616e-07
-3.84645e-08
-1.6019e-07
-2.25411e-08
-1.32728e-07
-1.83498e-08
-1.47958e-07
-2.21972e-08
-1.67528e-07
1.45659e-08
-8.26226e-08
5.74158e-08
-1.53629e-07
-1.38058e-08
-1.47566e-07
-3.39318e-08
-1.15869e-07
-9.48804e-09
-1.42757e-07
-1.0128e-08
-2.49393e-07
-2.84805e-08
-2.17647e-07
-1.36473e-09
-1.91968e-07
-6.05162e-09
-1.80665e-07
-5.96476e-09
-1.78524e-07
-2.36695e-08
-1.79877e-07
-5.62634e-09
-1.78196e-07
-4.82488e-09
-1.66903e-07
1.7575e-08
-1.68624e-07
1.20307e-08
-1.82924e-07
2.57727e-08
-1.82869e-07
2.43027e-08
-1.98935e-07
3.61943e-08
-1.76137e-07
-2.84687e-08
-1.78455e-07
-3.28295e-08
-1.78615e-07
-3.33202e-08
-1.83992e-07
-2.39937e-08
-1.8354e-07
-1.57803e-08
-1.93705e-07
-2.33936e-08
-1.85106e-07
7.50531e-09
-2.21343e-07
-9.56597e-10
-1.05679e-07
3.38416e-08
-2.11801e-07
-4.62563e-08
-1.27874e-07
-6.13153e-08
-8.8962e-08
-6.94459e-08
-1.19967e-07
-4.10673e-08
-1.45301e-07
1.02237e-08
-1.3652e-07
7.69229e-09
-1.37412e-07
3.26765e-09
-1.50509e-07
2.53475e-08
-1.63935e-07
4.33763e-08
-1.76181e-07
4.67095e-08
-1.86004e-07
2.85583e-08
-1.8686e-07
1.41623e-08
-1.85014e-07
1.0656e-08
-1.84132e-07
9.46238e-09
-1.84858e-07
3.96173e-09
-1.84724e-07
2.9625e-09
-1.08009e-09
-2.03479e-07
3.20099e-09
-1.85662e-07
-2.36778e-08
-1.87852e-07
4.59182e-08
-1.83181e-07
2.52031e-08
-1.80891e-07
2.1243e-08
-9.60911e-08
3.53011e-08
-2.14003e-07
-1.68962e-08
-2.18699e-07
5.85967e-09
-2.2673e-07
-2.57399e-09
-2.31806e-07
-2.08351e-08
-2.23979e-07
-4.65868e-08
-2.20299e-07
1.01227e-08
-2.31155e-07
-3.40558e-08
-2.36529e-07
-2.92455e-08
-2.28624e-07
3.57221e-09
-2.39877e-07
1.29068e-08
-2.33725e-07
-1.37705e-08
-2.34878e-07
-5.60656e-09
-2.09479e-07
-2.7832e-08
-1.97025e-07
2.78542e-09
-2.03506e-07
3.1347e-08
-2.0202e-07
5.47299e-08
-1.97153e-07
6.07473e-08
-1.91293e-07
5.58214e-08
-1.83589e-07
3.94839e-08
-1.46164e-07
4.27344e-09
-1.75995e-07
-3.67428e-08
-1.19281e-07
-4.77984e-08
-1.31017e-07
-1.08049e-08
-1.11679e-07
-4.01635e-08
-1.519e-07
-2.91083e-08
-1.10402e-07
2.10538e-08
-9.09431e-08
3.60755e-08
-1.26694e-07
2.19451e-08
-1.27627e-07
-3.20331e-08
-1.40623e-07
3.60528e-09
-1.86138e-07
3.50297e-08
-2.14946e-07
3.71849e-11
-1.90637e-07
-2.59381e-08
-1.94192e-07
-2.4965e-09
-1.73466e-07
-2.66909e-08
-1.71647e-07
-2.54887e-08
-1.7786e-07
5.8731e-10
-1.9013e-07
7.44568e-09
-2.05091e-07
3.2536e-08
-2.05379e-07
1.21945e-08
-1.99141e-07
1.95346e-08
-1.8669e-07
1.18517e-08
-1.81874e-07
-1.52722e-08
-1.50158e-07
-1.36734e-08
-1.40983e-07
-4.20046e-08
-1.53999e-07
-2.03044e-08
-1.7651e-07
-1.48193e-09
-1.86526e-07
-5.76443e-09
-2.0551e-07
-4.40941e-09
-1.58995e-07
-3.76954e-08
-1.69149e-07
1.09147e-08
-1.4e-07
4.05675e-09
-1.8335e-07
-4.3645e-09
-2.19488e-07
1.73642e-08
-1.40579e-07
-6.89031e-09
-1.48765e-07
-2.99289e-08
-2.20301e-07
-5.40078e-08
-1.9043e-07
-2.22564e-08
-1.85035e-07
-2.12672e-09
-1.82805e-07
2.31171e-08
-1.79636e-07
4.02073e-08
-1.76245e-07
4.3319e-08
-1.77006e-07
2.93195e-08
-1.77532e-07
1.46876e-08
-1.78077e-07
1.12008e-08
-1.79577e-07
1.09622e-08
-1.81528e-07
5.91273e-09
-1.82713e-07
4.14736e-09
-8.35549e-10
-2.29243e-07
1.57624e-08
-1.59027e-07
9.43291e-08
-2.27061e-07
-2.43399e-08
-2.02991e-07
-1.18289e-09
-1.85876e-07
4.12794e-09
-1.62309e-07
1.1374e-08
-1.78709e-07
-4.96022e-10
-1.7414e-07
1.29115e-09
-1.74285e-07
-2.42917e-09
-1.92313e-07
-4.7685e-09
-1.10942e-07
1.34363e-08
-2.16255e-07
-7.00343e-08
-2.11483e-07
-3.66703e-08
-1.85167e-07
-9.38194e-09
-1.8138e-07
-2.1029e-09
-1.74141e-07
5.66738e-09
-1.85767e-07
-2.1435e-09
-2.24273e-07
-1.3751e-08
-2.30728e-07
2.52739e-08
-2.32592e-07
2.27677e-09
-2.27735e-07
2.64893e-08
-2.0853e-07
3.72904e-08
-1.80487e-07
3.27048e-08
-1.49801e-07
2.72336e-08
-1.1336e-07
2.64383e-09
-8.779e-08
-2.26842e-08
-1.44579e-07
1.85713e-08
-6.14276e-08
1.04444e-08
-1.90176e-07
-6.81421e-08
-1.49251e-07
-3.44375e-08
-1.72875e-07
-5.00742e-08
-1.26752e-07
2.21661e-08
-1.15538e-07
2.3823e-08
-1.36563e-07
4.01741e-08
-9.43569e-08
6.71549e-08
-1.00134e-07
1.12516e-08
-1.7403e-07
-2.96121e-08
-1.66146e-07
-1.14332e-08
-5.55304e-08
4.89039e-09
-1.77182e-07
-2.02301e-08
-1.62191e-07
-4.16814e-08
-1.63775e-07
-2.39048e-08
-1.67562e-07
4.37495e-09
-1.8955e-07
2.94337e-08
-2.15615e-07
1.41502e-08
-1.96424e-07
3.87913e-08
-1.93312e-07
1.44188e-08
-1.75915e-07
-5.54495e-09
-1.63089e-07
-2.97626e-08
-1.54711e-07
-6.99028e-08
-1.42073e-07
-6.41374e-09
-1.56963e-07
-5.41416e-09
-1.76328e-07
1.7883e-08
-1.75409e-07
-6.75203e-09
-2.35032e-07
5.28158e-08
-1.30939e-07
-3.94325e-10
-2.25139e-07
-3.3389e-08
-2.19096e-07
-4.18032e-09
-2.3987e-07
1.63643e-08
-2.52268e-07
-1.18669e-08
-2.20937e-07
8.02732e-09
-2.35291e-07
-1.54278e-08
-2.56566e-07
-3.03807e-08
-2.58162e-07
-2.06606e-08
-2.54823e-07
-5.46571e-09
-2.39626e-07
7.92049e-09
-2.19675e-07
2.02566e-08
-2.02264e-07
2.59071e-08
-1.93952e-07
2.10083e-08
-1.91829e-07
1.25643e-08
-1.90248e-07
9.61969e-09
-1.87548e-07
8.26195e-09
-1.85802e-07
4.16739e-09
-1.84387e-07
2.73148e-09
-1.18262e-09
-1.20897e-07
8.44355e-08
-2.28744e-07
1.79063e-08
-1.8752e-07
-1.96303e-08
-2.09095e-07
1.82924e-08
-2.08736e-07
3.7691e-09
-1.93901e-07
-3.46081e-09
-1.84617e-07
-9.77902e-09
-1.72883e-07
-1.04426e-08
-1.6179e-07
-1.35226e-08
-1.68807e-07
2.24876e-09
-1.52311e-07
-3.19614e-09
-2.01746e-07
-2.05997e-08
-2.10758e-07
-2.76574e-08
-1.9463e-07
-2.56056e-08
-1.63541e-07
-3.35342e-08
-1.65768e-07
7.89476e-09
-1.49384e-07
-1.85269e-08
-1.86797e-07
2.34227e-08
-1.98606e-07
-9.56722e-09
-1.78799e-07
2.91205e-08
-1.84379e-07
3.17994e-08
-1.60713e-07
1.36248e-08
-1.50367e-07
2.21324e-08
-1.36906e-07
1.37731e-08
-1.50965e-07
1.53471e-08
-5.48856e-08
2.263e-08
-1.68971e-07
-6.73511e-09
-1.64261e-07
5.62896e-09
-2.0885e-07
-2.35529e-08
-2.1549e-07
-2.7798e-08
-1.04139e-07
-2.04113e-08
-2.01897e-07
-2.02248e-08
-1.82128e-07
2.21955e-09
-1.6356e-07
2.34637e-08
-1.64505e-07
2.22164e-08
-1.25218e-07
1.81442e-08
-1.33766e-07
-2.42558e-08
-1.3777e-07
-8.84923e-09
-2.64101e-09
1.26555e-08
-1.6849e-07
5.69469e-09
-1.79968e-07
-3.02034e-08
-1.63899e-07
-3.99738e-08
-1.67491e-07
7.9674e-09
-2.01714e-07
6.30142e-08
-2.2101e-07
3.60683e-08
-1.89485e-07
7.65876e-09
-1.72986e-07
-4.01363e-09
-1.60717e-07