/*--------------------------------*- C++ -*----------------------------------*\
  =========                 |
  \\      /  F ield         | OpenFOAM: The Open Source CFD Toolbox
   \\    /   O peration     | Website:  https://openfoam.org
    \\  /    A nd           | Version:  12
     \\/     M anipulation  |
\*---------------------------------------------------------------------------*/
FoamFile
{
    format      ascii;
    class       surfaceScalarField;
    location    "0.25";
    object      phi.water;
}
// * * * * * * * * * * * * * * * * * * * * * * * * * * * * * * * * * * * * * //

dimensions      [0 3 -1 0 0 0 0];

internalField   nonuniform List<scalar> 
7375
(
1.0506e-07
1.27473e-08
8.69582e-08
1.92329e-08
6.88798e-08
1.82887e-08
5.70528e-08
1.26225e-08
1.73116e-07
2.53644e-08
8.29002e-08
-5.15094e-08
1.32622e-07
-4.97649e-08
6.10694e-08
2.42637e-08
9.00014e-08
1.72469e-08
7.62428e-08
1.46819e-08
1.76665e-07
3.95351e-08
1.85173e-07
-8.43729e-09
1.01454e-07
-5.61949e-08
1.15666e-07
-1.41871e-08
1.25539e-07
-9.75909e-09
1.41592e-07
-1.46543e-08
1.34061e-07
7.64804e-09
1.50576e-07
-1.79377e-08
7.21643e-08
3.18151e-08
5.83464e-08
1.38222e-08
7.60966e-08
2.86249e-08
7.67126e-08
-6.21562e-10
7.74748e-08
8.6362e-11
3.88915e-08
-8.40987e-09
4.94481e-08
-1.09458e-08
4.45251e-08
4.46509e-09
1.03157e-07
-1.25802e-08
5.91119e-08
4.51147e-08
4.18932e-08
1.73333e-08
3.69743e-08
5.0276e-09
3.59626e-08
9.98305e-10
4.56321e-08
-9.69657e-09
5.39769e-08
-7.81142e-09
5.51825e-08
-1.0797e-09
6.31794e-08
-8.60178e-09
5.90717e-08
3.7837e-09
4.85028e-08
1.04015e-08
2.83889e-08
2.00316e-08
-4.12361e-09
3.25423e-08
9.69754e-08
3.7865e-08
-1.29432e-08
-2.86041e-08
2.64567e-09
-1.56898e-08
2.39971e-08
-2.12461e-08
5.12273e-08
-2.68117e-08
8.70769e-08
-3.62398e-08
7.18476e-08
1.52838e-08
4.87751e-08
2.32029e-08
5.11011e-08
-2.89243e-09
6.28188e-08
-1.1718e-08
3.89314e-08
2.49552e-08
1.43324e-07
3.57363e-08
2.23522e-08
-1.85898e-08
1.43811e-07
2.01383e-08
3.60316e-08
-3.36654e-08
4.77978e-08
-1.18161e-08
4.63482e-08
1.9292e-09
1.66233e-07
2.14645e-08
1.34232e-07
2.86366e-08
2.75487e-08
-3.1831e-08
2.44984e-08
3.43975e-09
2.80001e-08
-3.39042e-09
2.94391e-08
-1.45655e-09
6.21394e-08
-3.27157e-08
6.23764e-08
-8.36166e-10
6.3185e-08
-8.01105e-10
5.35196e-08
1.0265e-08
4.30965e-08
1.04128e-08
4.09705e-08
1.88416e-09
5.15725e-08
-1.1012e-08
6.95089e-08
-1.79359e-08
8.19651e-08
-1.24564e-08
6.22143e-08
1.97508e-08
1.15439e-08
5.06696e-08
-5.88995e-08
7.04423e-08
3.00789e-08
-6.93063e-08
5.77502e-09
-6.6546e-08
1.64738e-08
-6.53219e-08
1.70651e-08
-5.91133e-08
6.41446e-09
-3.65909e-08
2.58335e-09
-7.45709e-08
-1.36686e-08
-2.78908e-08
4.35065e-08
-1.56785e-07
1.32063e-08
-1.12658e-07
-2.67035e-08
-9.46609e-08
-3.31543e-09
-5.63773e-08
1.25148e-09
-1.7237e-08
-4.7097e-08
-5.83109e-09
-6.82977e-08
-7.80394e-08
1.21671e-08
-3.44389e-08
-7.1804e-09
-1.11972e-08
-3.82471e-08
-3.75803e-08
3.39156e-08
-3.13251e-09
8.90086e-08
-1.16534e-07
5.29652e-09
-9.828e-08
-3.39415e-09
-6.55171e-08
-4.13815e-09
-8.14865e-08
1.46796e-08
-7.89128e-08
-2.51321e-09
-9.35931e-08
6.35633e-09
-1.20751e-07
1.62116e-08
-1.42985e-07
2.52405e-08
-5.49881e-09
-8.80212e-09
-1.10062e-07
9.68345e-09
-9.583e-08
3.1013e-09
-1.01305e-07
1.05021e-08
-1.07326e-07
7.02003e-09
-1.13013e-07
-4.00965e-09
-1.0848e-07
-1.12385e-08
-9.84891e-08
-1.10596e-08
-1.04985e-07
-3.11052e-09
-1.02893e-07
1.69115e-09
-1.0383e-07
1.13381e-08
-9.97954e-08
1.59973e-08
-9.79155e-08
3.06621e-08
-7.83877e-08
1.83372e-08
-1.01845e-07
-5.49452e-09
-8.34346e-08
-3.41006e-08
-8.51039e-08
-1.87088e-08
-6.8582e-08
-4.44753e-08
1.5443e-08
2.05814e-08
-1.29018e-07
1.66902e-08
-1.43982e-07
-7.6353e-09
-1.58891e-07
1.34857e-08
-1.59116e-07
3.50376e-08
-1.55574e-07
2.14135e-08
-1.27244e-07
8.33987e-09
-1.18121e-07
-2.79006e-08
-9.2529e-08
-6.86401e-09
-1.14443e-07
-1.17507e-08
-1.48332e-07
2.20723e-08
-1.54198e-07
7.7956e-09
-4.59272e-08
5.33946e-08
-1.62464e-07
6.70301e-09
-1.76596e-07
-1.96808e-08
-1.71305e-07
-1.85171e-09
-1.74173e-07
-4.07627e-09
-2.00671e-07
-2.25808e-08
-1.74961e-07
-5.83612e-09
-1.61906e-07
-1.21339e-08
-1.55657e-07
-7.0507e-09
-1.46306e-07
8.11611e-10
-1.35433e-07
-5.64833e-10
-1.21812e-07
-1.17557e-08
-1.11135e-07
-2.16891e-08
-1.03039e-07
-2.60318e-08
-9.78507e-08
-1.7645e-08
-1.05584e-07
2.74838e-08
-1.19793e-07
6.48776e-08
-1.30931e-07
8.15793e-08
3.16733e-08
-1.18225e-07
-1.23896e-08
-1.07418e-07
5.66772e-09
-1.08512e-07
1.79761e-08
-1.38093e-07
3.63668e-08
-1.54448e-07
1.73636e-08
-7.31669e-08
4.64443e-08
-1.7373e-07
4.91439e-09
-1.85082e-07
-2.20921e-08
-1.40989e-07
-2.41457e-08
-1.66775e-07
2.24704e-08
-1.67118e-07
-4.29127e-08
-1.62012e-07
-7.6597e-09
-6.95522e-08
-2.12526e-08
-2.1327e-07
-3.00077e-08
-2.10198e-07
-1.03255e-08
-1.07452e-07
4.45125e-08
-8.61145e-08
1.2578e-08
-1.55592e-07
-2.81456e-08
-1.51493e-07
2.71497e-09
-1.39915e-07
3.12077e-08
-1.61413e-07
1.58899e-08
-1.62254e-07
1.38658e-08
-1.71966e-07
7.19839e-09
-1.70108e-07
6.2528e-09
-1.67832e-07
1.39352e-08
-1.94717e-07
5.4746e-09
-6.29289e-08
4.67439e-08
-1.24411e-07
-6.73727e-08
-1.08452e-07
-1.41268e-08
-1.30977e-07
3.26934e-08
-1.43895e-07
1.99377e-08
-1.48521e-07
6.16552e-10
-1.52677e-07
-7.08327e-09
-1.50095e-07
-1.37545e-08
-1.512e-07
-2.00558e-09
-1.45631e-07
-3.87786e-09
-1.20728e-07
-1.37055e-08
-1.42281e-07
3.75508e-08
-1.37296e-07
2.56766e-08
-1.23603e-07
3.38331e-09
-1.58541e-07
-1.76877e-08
-1.49105e-07
4.73057e-09
-1.81857e-07
1.21883e-08
-1.17942e-07
3.2545e-08
-1.08145e-07
1.28811e-08
-2.09157e-07
-2.10043e-08
-2.17893e-07
-9.55839e-10
-2.23905e-07
1.94977e-08
-2.10307e-07
2.14397e-08
-2.06548e-07
1.76547e-08
-2.09793e-07
1.15845e-08
-1.27786e-07
2.97595e-08
-1.34433e-07
-2.16387e-10
-1.22373e-07
-2.38106e-08
-2.44933e-07
-4.19697e-08
-1.86456e-07
-4.03138e-09
-1.46115e-07
1.15636e-08
-1.82752e-07
-3.72211e-09
-1.94713e-07
4.12149e-08
-2.05484e-07
8.92003e-09
-2.24159e-07
1.45987e-08
-2.56992e-07
1.33343e-08
-2.59709e-07
-4.91498e-10
-2.62133e-07
-9.71004e-09
-2.54695e-07
-1.4489e-08
-2.3925e-07
-1.46338e-08
-2.24602e-07
-1.52134e-08
-2.16709e-07
-1.96485e-08
-2.143e-07
-2.40984e-08
-2.14081e-07
-2.62505e-08
-2.15339e-07
-1.6388e-08
-2.08877e-07
2.10222e-08
-1.90762e-07
4.67608e-08
-1.63565e-07
5.43812e-08
1.77368e-08
-1.72879e-07
-5.35183e-09
-1.61972e-07
-3.5858e-09
-1.24419e-07
-2.08322e-08
-1.80287e-07
4.33747e-08
-1.65672e-07
5.12379e-08
-1.55895e-07
3.49599e-08
-1.94257e-07
-3.85421e-09
-1.97019e-07
2.93016e-08
-1.04608e-07
2.33955e-08
-2.07974e-07
-5.92482e-08
-2.33389e-07
2.86811e-08
-2.34922e-07
-1.09826e-08
-1.3959e-07
2.50294e-08
-2.66889e-07
-4.08198e-08
-2.40807e-07
-3.6408e-08
-2.00587e-07
-4.23579e-08
-1.80642e-07
-7.49523e-09
-1.9403e-07
-1.27776e-08
-2.00155e-07
5.44689e-08
-2.00403e-07
2.97316e-08
-2.25441e-07
4.09285e-08
-2.15955e-07
4.37913e-09
-2.05304e-07
-3.52559e-09
-2.03985e-07
4.93389e-09
-1.98326e-07
8.2757e-09
-2.10037e-07
1.71853e-08
-2.19336e-07
9.39219e-09
-1.29354e-07
2.85605e-08
-9.10277e-08
-5.15247e-08
-1.8259e-07
-1.41401e-08
-1.5731e-07
-7.20455e-09
-1.40748e-07
-1.59456e-08
-1.38477e-07
-9.35446e-09
-1.41869e-07
-1.0363e-08
-1.62207e-07
1.85213e-08
-1.69721e-07
1.90424e-09
-8.31497e-08
4.11174e-08
-1.82112e-07
-2.58998e-09
-1.65578e-07
9.14264e-09
-1.63771e-07
1.57578e-09
-1.81741e-07
4.62305e-10
-1.65102e-07
-1.19079e-08
-1.90733e-07
3.74367e-08
-1.80415e-07
2.18954e-08
-1.73627e-07
6.093e-09
-1.93807e-07
-1.039e-09
-2.0073e-07
5.96767e-09
-1.97814e-07
1.65814e-08
-1.90757e-07
1.43831e-08
-1.94604e-07
2.17234e-08
-1.74245e-07
-8.77431e-09
-1.55209e-07
1.07234e-08
-1.47157e-07
-8.2684e-09
-1.61349e-07
-9.61903e-09
-2.30914e-07
-1.90549e-08
-1.84604e-07
-3.69043e-09
-1.61206e-07
-1.17149e-08
-1.75269e-07
8.50404e-09
-1.83864e-07
2.67831e-09
-1.88402e-07
6.26231e-08
-1.96399e-07
2.25962e-08
-2.09487e-07
2.85587e-08
-2.12753e-07
4.86942e-09
-2.1782e-07
-4.64383e-09
-2.12339e-07
-1.99701e-08
-2.09297e-07
-1.76765e-08
-2.14263e-07
-1.02471e-08
-2.24714e-07
-9.19755e-09
-2.29619e-07
-1.91935e-08
-2.30092e-07
-2.57778e-08
-2.30418e-07
-1.60625e-08
-2.2068e-07
1.12835e-08
-1.97842e-07
2.39215e-08
-1.72304e-07
2.88422e-08
7.57803e-09
-2.4706e-07
1.19439e-08
-2.15656e-07
-3.4988e-08
-1.26487e-07
3.10284e-08
-2.48938e-07
2.65813e-08
-2.26007e-07
2.34623e-08
-2.1374e-07
2.26935e-08
-2.08766e-07
-6.67674e-09
-2.00342e-07
2.08772e-08
-2.28124e-07
4.8851e-08
-1.72597e-07
2.66186e-08
-2.84986e-07
-4.34787e-08
-2.68482e-07
1.9164e-08
-2.44586e-07
3.37328e-09
-2.65405e-07
-2.00005e-08
-2.6774e-07
-3.67805e-08
-2.54924e-07
-5.51749e-08
-2.72075e-07
9.55911e-09
-1.80692e-07
3.76339e-08
-2.48395e-07
-1.5816e-08
-2.27457e-07
6.25923e-09
-2.15946e-07
-1.72334e-08
-1.87969e-07
-2.35973e-08
-1.87804e-07
4.25256e-08
-1.89467e-07
6.59661e-09
-1.75911e-07
-5.2801e-09
-1.63788e-07
5.06204e-09
-2.01875e-07
8.37054e-10
-1.40902e-07
-3.24126e-08
-4.67763e-08
4.10108e-08
-1.61581e-07
-3.80168e-08
-1.43464e-07
-2.69697e-08
-1.25521e-07
-3.42378e-08
-1.5544e-07
2.0564e-08
-1.61141e-07
-6.30579e-09
-1.887e-07
-1.0511e-09
-1.57698e-07
1.94779e-08
-1.28856e-07
1.18558e-08
-1.54473e-07
2.30263e-08
-1.60164e-07
1.48343e-08
-1.68895e-07
1.03064e-08
-1.97884e-07
2.94514e-08
-9.54883e-08
2.66216e-08
-1.81514e-07
-1.50757e-08
-1.56862e-07
-4.60877e-09
-1.43401e-07
-7.36813e-09
-1.39624e-07
-4.81553e-09
-1.35802e-07
2.14602e-09
-1.25447e-07
6.22638e-09
-1.28364e-07
1.59902e-08
-1.6091e-07
7.13765e-09
-1.43474e-07
2.20821e-08
-1.42388e-07
9.63744e-09
-1.44013e-07
-6.64321e-09
-1.5068e-07
-2.95238e-09
-1.71291e-07
1.55667e-09
-1.67876e-07
-5.39269e-09
-1.63929e-07
-1.41493e-08
-1.52477e-07
-4.60398e-09
-1.672e-07
1.41134e-08
-1.86494e-07
3.47851e-08
-1.77485e-07
6.2141e-08
-1.97785e-07
5.14008e-08
-1.99995e-07
9.05632e-09
-2.09957e-07
5.31843e-09
-2.25209e-07
-4.71908e-09
-2.41895e-07
-9.90441e-10
-2.52987e-07
8.44495e-10
-2.50703e-07
-1.14816e-08
-2.37732e-07
-3.21644e-08
-2.25077e-07
-3.84331e-08
-2.17729e-07
-2.34105e-08
-2.07671e-07
1.22395e-09
-1.92409e-07
8.65834e-09
-1.7575e-07
1.21816e-08
3.62693e-09
-2.85033e-07
-1.51467e-08
-1.47686e-07
1.42676e-08
-1.38032e-07
2.27836e-08
-2.5363e-07
3.87095e-09
-2.31497e-07
-1.25698e-09
-2.41287e-07
2.97898e-08
-1.58711e-07
5.2142e-08
-1.55593e-07
1.93779e-08
-2.31591e-07
-1.51023e-08
-2.03069e-07
-2.17523e-09
-2.45492e-07
-1.05577e-09
-2.32781e-07
6.45382e-09
-2.28932e-07
-4.75835e-10
-2.35327e-07
-1.38096e-08
-2.539e-07
-1.82077e-08
-1.68607e-07
1.20373e-09
-2.55262e-07
-4.23243e-08
-2.05429e-07
-1.48034e-08
-1.85376e-07
-3.60298e-08
-1.90171e-07
1.09421e-08
-2.03739e-07
-3.66497e-09
-9.80904e-08
1.17061e-08
-1.6957e-07
-2.45332e-08
-1.46315e-07
-1.83884e-08
-1.21527e-07
-3.03777e-08
-1.38166e-07
2.02911e-08
-2.1543e-07
3.09697e-08
-8.00954e-08
2.18696e-08
-1.29065e-07
-4.85584e-08
-1.42375e-07
-2.6411e-08
-1.58765e-07
-1.21998e-08
-7.33747e-08
2.17662e-08
-1.95152e-07
-4.35125e-08
-1.73197e-07
1.83897e-08
-1.84425e-07
1.0188e-08
-1.80003e-07
1.50554e-08
-1.79295e-07
1.11477e-08
-1.80579e-07
2.43096e-08
-1.80749e-07
1.5005e-08
-1.60196e-07
-1.03524e-08
-1.85225e-07
5.44803e-08
-1.35082e-07
-2.35215e-08
-1.68977e-07
1.84768e-08
-1.72195e-07
-1.391e-09
-1.6182e-07
-1.7743e-08
-1.63333e-07
-3.30319e-09
-1.62095e-07
9.08865e-10
-1.62198e-07
6.32906e-09
-1.62064e-07
1.58557e-08
-1.65018e-07
1.00188e-08
-1.53614e-07
1.06782e-08
-1.547e-07
1.07241e-08
-1.60702e-07
-6.41219e-10
-1.40168e-07
-2.37289e-08
-1.72964e-07
3.43529e-08
-1.77283e-07
-2.88179e-09
-2.02921e-07
1.13427e-08
-1.8989e-07
-1.56124e-08
-1.82871e-07
7.09492e-09
-1.79015e-07
3.02659e-08
-1.68554e-07
4.94557e-08
-1.94517e-07
3.22374e-08
-1.70506e-07
3.50016e-08
-1.79192e-07
1.40044e-08
-1.99828e-07
1.59167e-08
-2.20241e-07
1.9422e-08
-2.30708e-07
1.13121e-08
-2.2366e-07
-1.85306e-08
-2.12401e-07
-4.3423e-08
-2.05836e-07
-4.49989e-08
-2.02484e-07
-2.6763e-08
-1.9535e-07
-5.90999e-09
-1.87088e-07
3.94226e-10
-1.78226e-07
3.31867e-09
2.50419e-09
-2.29225e-07
-1.11975e-09
-8.79344e-08
5.95804e-08
-1.28989e-07
6.51551e-08
-2.32454e-07
-3.11623e-08
-1.91166e-07
-4.49162e-08
-1.9898e-07
3.72236e-08
-1.74331e-07
2.69615e-08
-1.68385e-07
1.34314e-08
-1.94836e-07
1.13496e-08
-1.9187e-07
-5.14181e-09
-1.76835e-07
-1.60903e-08
-1.41179e-07
-2.92019e-08
-1.73173e-07
3.15178e-08
-1.64383e-07
-2.25999e-08
-1.65405e-07
-1.71854e-08
-1.50717e-07
-1.34842e-08
-1.7393e-07
-1.95429e-08
-1.83946e-07
-4.78807e-09
-9.15856e-08
1.24958e-08
-1.81995e-07
-3.71869e-08
-1.65473e-07
-2.20431e-08
-1.41947e-07
-1.18207e-08
-1.57467e-07
-9.26316e-09
-1.68217e-07
-9.35435e-09
-7.97661e-08
2.25651e-08
-1.66342e-07
-3.26039e-08
-1.72257e-07
3.65695e-08
-1.66984e-07
1.65964e-08
-1.78954e-07
-3.7466e-08
-2.11578e-07
6.21312e-09
-1.87897e-07
-3.55194e-08
-1.50288e-07
-1.60644e-08
-1.81289e-07
-1.25117e-08
-1.76409e-07
1.3509e-08
-1.84355e-07
1.81348e-08
-2.01106e-07
3.18063e-08
-1.6483e-07
-2.51289e-08
-1.82216e-07
4.12748e-08
-2.01074e-07
3.18116e-08
-8.65244e-08
1.66633e-08
-2.20917e-07
3.1532e-09
-1.1022e-07
5.35081e-08
-2.10791e-07
-1.94901e-08
-2.00469e-07
-1.38636e-08
-2.07656e-07
-1.05556e-08
-2.03349e-07
-7.61036e-09
-1.97815e-07
-4.62526e-09
-2.02835e-07
1.13484e-08
-1.85268e-07
-1.69347e-09
-1.77306e-07
2.05662e-09
-1.84861e-07
1.8233e-08
-1.99578e-07
2.54419e-08
-2.09744e-07
7.3842e-09
-1.05721e-07
1.36428e-08
-1.90207e-07
-2.00343e-08
-1.66042e-07
-2.73259e-08
-2.05481e-07
4.01596e-09
-2.17631e-07
4.2752e-08
-2.08159e-07
-2.5408e-10
-1.88476e-07
1.26141e-08
-1.84091e-07
4.36081e-08
-1.80605e-07
2.62763e-08
-1.61156e-07
1.75532e-08
-1.70079e-07
2.47862e-08
-1.81454e-07
2.7292e-08
-1.82509e-07
2.04761e-08
-1.74718e-07
3.52131e-09
-1.67189e-07
-2.60595e-08
-1.69729e-07
-4.08841e-08
-1.79407e-07
-3.53206e-08
-1.88523e-07
-1.76474e-08
-1.87514e-07
-6.9202e-09
-1.85317e-07
-1.80361e-09
-1.81679e-07
-3.20648e-10
1.64232e-09
-2.03743e-07
8.42827e-09
-1.41331e-07
-2.82955e-09
-2.22173e-07
-4.06042e-08
-2.50136e-07
-3.51648e-09
-1.44796e-07
3.78226e-08
-2.28384e-07
-1.77265e-08
-2.07967e-07
4.21479e-09
-2.01189e-07
6.65407e-09
-2.01707e-07
1.18668e-08
-1.90921e-07
-1.5766e-08
-1.76188e-07
-3.11414e-08
-8.64074e-08
2.09688e-08
-2.11539e-07
-2.99522e-08
-1.68497e-07
-1.89914e-08
-1.71881e-07
-1.38017e-08
-1.72775e-07
-1.25897e-08
-1.93604e-07
1.28608e-09
-1.90536e-07
-7.8564e-09
-1.67542e-07
-1.04982e-08
-2.00075e-07
-5.0859e-09
-1.89164e-07
-3.29536e-08
-1.79961e-07
-2.10239e-08
-1.79521e-07
-9.70284e-09
-1.91381e-07
2.50546e-09
-1.97043e-07
2.59868e-08
-1.29038e-07
4.07847e-08
-2.21008e-07
-1.00958e-08
-2.45374e-07
3.88557e-08
-1.65123e-07
2.36766e-08
-2.81567e-07
-5.93874e-08
-2.55861e-07
-1.50461e-08
-2.47673e-07
-2.68626e-08
-2.34081e-07
-2.61044e-08
-2.46232e-07
2.54008e-08
-2.40086e-07
1.19885e-08
-2.53806e-07
-1.12392e-09
-1.40291e-07
4.93886e-08
-1.87599e-07
-4.99548e-08
-2.08357e-07
4.80395e-08
-8.82265e-08
3.81484e-08
-2.40969e-07
1.6844e-08
-1.90825e-07
3.36404e-09
-2.07087e-07
-3.42634e-09
-2.11435e-07
-9.51636e-09
-2.14732e-07
-7.25809e-09
-2.10077e-07
-1.22655e-08
-2.12907e-07
-1.79563e-09
-2.27541e-07
-1.83463e-08
-1.96081e-07
1.30255e-08
-1.89224e-07
-6.80032e-09
-1.96314e-07
2.53229e-08
-1.85341e-07
-3.18568e-08
-1.80004e-07
2.04708e-09
-1.47752e-07
2.79024e-08
-1.86961e-07
1.72677e-08
-1.21037e-07
4.81433e-08
-1.30905e-07
1.64545e-08
-2.1484e-07
-1.18511e-08
-2.18343e-07
-1.17054e-09
-2.178e-07
9.95656e-09
-2.34141e-07
1.7925e-08
-1.87392e-07
2.80716e-08
-1.51923e-07
-1.98276e-08
-1.65305e-07
3.97027e-08
-1.62166e-07
2.58048e-08
-1.56065e-07
1.43755e-08
-1.44002e-07
-8.54216e-09
-1.44431e-07
-2.56313e-08
-1.56437e-07
-2.88782e-08
-1.71547e-07
-2.02108e-08
-1.79137e-07
-1.00573e-08
-1.81034e-07
-5.02427e-09
-1.81682e-07
-1.15745e-09
-1.81558e-07
-4.46034e-10
1.91254e-09
-1.6692e-07
1.92495e-08
-1.45843e-07
-2.41514e-08
-1.9266e-07
6.21407e-09
-2.02472e-07
6.29512e-09
-1.7693e-07
1.22817e-08
-2.0307e-07
8.23299e-09
-2.07792e-07
8.936e-09
-2.02822e-07
1.68437e-09
-2.04194e-07
-3.13286e-08
-1.80475e-07
4.87215e-09
-9.07468e-08
1.86643e-08
-1.63338e-07
-4.54657e-08
-1.65072e-07
-2.82186e-08
-1.67873e-07
-1.61905e-08
-1.6386e-07
-1.78147e-08
-1.7226e-07
-4.18913e-09
-1.7913e-07
8.15585e-09
-2.04969e-07
1.81674e-08
-1.98649e-07
-1.88448e-08
-2.22338e-07
-2.85283e-08
-2.16459e-07
1.01901e-08
-2.08939e-07
-2.85434e-08
-2.11697e-07
-6.94493e-09
-2.12446e-07
3.25441e-09
-2.33271e-07
4.68114e-08
-2.12634e-07
1.97311e-08
-2.07678e-07
-1.71705e-08
-2.59784e-07
4.38309e-08
-2.14487e-07
2.74386e-08
-2.72777e-07
-1.09761e-09
-2.82309e-07
-5.66757e-09
-3.1453e-07
5.35855e-09
-2.28618e-07
2.99615e-08
-3.21665e-07
-2.00904e-08
-3.01427e-07
-1.15309e-08
-2.85339e-07
-1.72126e-08
-2.71222e-07
-1.13787e-08
-1.32253e-07
-1.48284e-09
-2.53655e-07
2.80581e-08
-1.30529e-07
5.34093e-08
-2.45653e-07
-6.65209e-09
-2.05369e-07
-3.73001e-08
-2.14726e-07
5.92975e-09
-2.23266e-07
-9.76404e-10
-2.09781e-07
-2.09566e-08
-2.30239e-07
8.19278e-09
-2.57887e-07
2.55914e-08
-2.68787e-07
-7.44648e-09
-2.45872e-07
-9.75664e-09
-2.32833e-07
-1.98392e-08
-2.07523e-07
-4.45202e-08
-2.13789e-07
2.03825e-08
-2.0453e-07
-9.39255e-09
-1.77502e-07
8.7392e-10
-1.63735e-07
3.50034e-09
-1.60919e-07
4.48361e-08
-1.59028e-07
1.44169e-08
-1.82393e-07
1.13926e-08
-2.0005e-07
1.64865e-08
-1.96923e-07
6.72861e-09
-2.19518e-07
-6.31373e-09
-1.969e-07
5.73973e-09
-8.64303e-08
5.71866e-08
-1.81619e-07
-1.8125e-09
-1.71817e-07
1.60026e-08
-1.70832e-07
1.33901e-08
-1.70733e-07
-8.64131e-09
-1.74292e-07
-2.20727e-08
-1.79189e-07
-2.39817e-08
-1.85406e-07
-1.39941e-08
-1.86414e-07
-9.04939e-09
-1.84665e-07
-6.77402e-09
-1.84856e-07
-9.67668e-10
-1.8448e-07
-8.23555e-10
6.96573e-10
-1.65703e-07
-2.21743e-08
-7.2803e-08
2.26362e-08
-1.80588e-07
-2.52091e-08
-1.65087e-07
-9.20526e-09
-1.57569e-07
4.76388e-09
-1.58213e-07
8.87692e-09
-1.56475e-07
7.19881e-09
-1.71248e-07
1.64569e-08
-1.93673e-07
-8.9036e-09
-1.72095e-07
-1.66562e-08
-1.29229e-07
-2.41457e-08
-1.59761e-07
-1.49338e-08
-1.73713e-07
-1.42668e-08
-1.90683e-07
7.79329e-10
-2.05907e-07
-2.59069e-09
-2.08987e-07
-1.10888e-09
-1.8587e-07
-1.70306e-08
-2.35094e-07
2.02598e-08
-2.246e-07
1.97093e-08
-2.25999e-07
-2.94434e-08
-2.59417e-07
-3.52392e-09
-2.49007e-07
1.03441e-08
-2.63466e-07
7.51322e-09
-2.82085e-07
2.18734e-08
-2.96865e-07
1.49415e-08
-2.99277e-07
2.21426e-08
-1.81527e-07
5.16817e-08
-2.95127e-07
-2.96184e-08
-2.36409e-07
1.53709e-08
-2.49349e-07
1.18424e-08
-2.62278e-07
7.26131e-09
-2.68859e-07
1.48335e-08
-2.57044e-07
1.81472e-08
-2.82401e-07
2.43844e-09
-2.73521e-07
-2.04104e-08
-2.38637e-07
-5.20971e-08
-2.57956e-07
-3.87098e-08
-8.02453e-08
8.22673e-09
-2.1039e-07
1.97485e-08
-1.88567e-07
2.88945e-08
-2.08931e-07
1.15807e-08
-1.42006e-07
3.71687e-08
-2.197e-07
-5.48789e-08
-2.2936e-07
6.34354e-09
-1.78327e-07
6.94041e-08
-1.87478e-07
2.10762e-08
-2.66819e-07
-3.36063e-08
-2.38738e-07
-3.86432e-08
-2.63632e-07
1.51374e-08
-2.66598e-07
-1.68729e-08
-1.41413e-07
-2.80251e-08
-2.23888e-07
-3.54754e-08
-2.16155e-07
-1.94092e-08
-2.02914e-07
-1.23678e-08
-1.98236e-07
-1.17679e-09
-2.08548e-07
1.06244e-08
-1.57184e-07
9.14048e-09
-1.63986e-07
1.6591e-08
-1.57896e-07
1.03966e-08
-1.42824e-07
-8.344e-09
-1.60611e-07
1.13572e-08
-1.44336e-07
-1.05352e-08
-9.65266e-08
9.37735e-09
-1.11055e-07
1.38298e-08
-1.15996e-07
2.2277e-08
-1.238e-07
2.11938e-08
-1.38595e-07
6.15288e-09
-1.46245e-07
-1.44228e-08
-1.501e-07
-2.01266e-08
-1.59716e-07
-4.37837e-09
-1.70669e-07
1.90364e-09
-1.77419e-07
-2.53394e-11
-1.80155e-07
1.76743e-09
-1.83079e-07
2.09848e-09
5.22369e-10
-1.61974e-07
-5.86429e-09
-1.51975e-07
1.24076e-08
-1.73511e-07
-3.67148e-09
-1.76038e-07
-6.67772e-09
-1.88752e-07
1.74777e-08
-1.79286e-07
-5.82852e-10
-1.74879e-07
2.79135e-09
-1.63476e-07
5.05484e-09
-1.76521e-07
4.14088e-09
-1.83881e-07
-5.40712e-08
-1.38784e-07
-2.30627e-08
-1.34275e-07
-2.0859e-08
-1.51264e-07
2.72273e-09
-1.23122e-07
-2.7363e-08
-1.64026e-07
3.79264e-08
-1.74776e-07
7.85753e-09
-7.66992e-08
2.62869e-08
-1.99764e-07
3.98957e-09
-1.90377e-07
8.37998e-09
-1.24803e-07
4.63768e-08
-2.50005e-07
-1.69647e-08
-2.22948e-07
-1.68854e-08
-2.45771e-07
3.03362e-08
-2.75627e-07
5.17301e-08
-2.79443e-07
1.85671e-08
-2.79096e-07
2.17956e-08
-2.39303e-07
1.18896e-08
-2.33275e-07
-3.60143e-08
-2.15332e-07
-2.57253e-09
-2.39275e-07
3.57853e-08
-2.29344e-07
-4.95898e-09
-2.10608e-07
-3.90192e-09
-2.19452e-07
2.90284e-08
-2.53585e-07
-1.0183e-08
-2.44026e-07
-2.99693e-08
-2.11134e-07
-3.83392e-08
-2.23968e-07
-2.58755e-08
-8.34354e-08
8.49663e-09
-2.03421e-07
1.3817e-09
-1.98693e-07
2.20912e-08
-1.97372e-07
1.02589e-08
-2.17249e-07
1.00164e-08
-1.36041e-07
5.05148e-08
-1.34308e-07
4.61077e-09
-1.91686e-07
-1.38778e-08
-1.65387e-07
-5.22214e-09
-1.93476e-07
-7.83437e-09
-1.00721e-07
9.9954e-09
-2.11066e-07
-6.00914e-08
-1.92354e-07
-3.36232e-08
-1.39613e-07
-3.49396e-08
-1.8402e-07
7.07314e-09
-1.87761e-07
-1.56678e-08
-1.89089e-07
-1.10393e-08
-1.82258e-07
-8.00809e-09
-2.02018e-07
-1.42059e-08
-1.49035e-07
2.40489e-09
-1.42132e-07
8.16777e-09
-1.45114e-07
1.35168e-08
-5.43064e-08
4.13538e-08
-1.41374e-07
-4.01133e-08
-1.12639e-07
-4.07124e-08
-1.00094e-07
-3.16832e-09
-9.49807e-08
8.71676e-09
-8.7541e-08
1.57963e-08
-8.56406e-08
2.01685e-08
-1.03614e-07
2.41258e-08
-1.30256e-07
1.22193e-08
-1.52901e-07
2.51778e-09
-1.67614e-07
1.03343e-08
-1.78248e-07
1.25374e-08
-1.85944e-07
7.66988e-09
-1.85825e-07
1.64745e-09
-1.85833e-07
2.10493e-09
-1.21817e-10
-1.89727e-07
3.40165e-08
-1.95107e-07
1.77889e-08
-2.18915e-07
2.03445e-08
-2.3134e-07
5.74751e-09
-2.57249e-07
-6.38936e-10
-2.27138e-07
1.54858e-08
-1.92655e-07
-3.40091e-08
-1.79121e-07
-8.47844e-09
-1.84641e-07
9.56245e-09
-1.82653e-07
-5.66365e-08
-1.9725e-07
-8.70055e-09
-1.97761e-07
-2.03487e-08
-2.01698e-07
-3.95863e-08
-7.24701e-08
3.075e-08
-1.65652e-07
-7.4302e-09
-1.57948e-07
-1.53602e-09
-1.35957e-07
2.64075e-09
-1.7835e-07
-7.41387e-10
-1.56938e-07
3.50802e-08
-1.53763e-07
4.22972e-08
-2.02469e-07
2.93762e-08
-1.25621e-07
4.71741e-08
-2.29681e-07
-4.27347e-09
-2.49564e-07
2.75079e-08
-2.2946e-07
4.4643e-08
-2.46512e-07
3.65069e-08
-2.38039e-07
9.78089e-10
-1.50447e-07
1.77874e-08
-1.35656e-07
-1.58285e-08
-2.25608e-07
-5.85629e-08
-1.93176e-07
8.78817e-09
-9.46269e-08
3.65345e-08
-1.96564e-07
-9.65531e-09
-2.13535e-07
-4.23692e-08
-1.95902e-07
-4.58927e-08
-2.05202e-07
1.76122e-08
-2.1451e-07
-1.6568e-08
-1.71338e-07
-3.29277e-08
-2.099e-07
3.95582e-08
-2.14279e-07
2.43293e-08
-2.05069e-07
1.04884e-09
-1.91989e-07
-3.06452e-09
-1.50247e-07
8.77269e-09
-1.44805e-07
-8.3074e-10
-1.61383e-07
2.69986e-09
-1.61694e-07
-4.91054e-09
-1.65098e-07
-4.4311e-09
-1.62388e-07
7.18339e-09
-2.0472e-07
-1.77589e-08
-2.03877e-07
-3.6923e-08
-1.02068e-07
5.33695e-09
-2.09951e-07
-2.23256e-08
-1.99887e-07
-2.78737e-08
-1.91579e-07
-1.93471e-08
-1.86624e-07
-1.29627e-08
-1.96953e-07
-1.8494e-09
-1.81228e-07
-1.34307e-08
-1.80703e-07
3.99035e-09
-1.57806e-07
-9.37998e-09
-1.19642e-07
-4.18506e-08
-1.21399e-07
-3.91654e-08
-1.01665e-07
-1.37962e-08
-1.02461e-07
-2.37204e-09
-1.22259e-07
2.94609e-08
-1.19707e-07
1.43092e-08
-1.19122e-07
1.95828e-08
-1.29223e-07
3.42268e-08
-1.53816e-07
3.6812e-08
-1.71766e-07
2.04679e-08
-1.76314e-07
1.48817e-08
-1.77414e-07
1.3637e-08
-1.80755e-07
1.10104e-08
-1.82809e-07
3.69949e-09
-1.84062e-07
3.35675e-09
-1.97232e-10
-1.79804e-07
2.79784e-08
-1.78261e-07
1.44277e-08
-2.01404e-07
-3.64321e-09
-2.02442e-07
8.8414e-09
-1.9671e-07
-6.43636e-09
-2.4248e-07
6.14136e-08
-1.45774e-07
5.58873e-08
-1.59098e-07
6.46841e-09
-2.49807e-07
-4.07898e-08
-1.5242e-07
-1.52038e-08
-2.40902e-07
-5.86155e-08
-2.39553e-07
-6.5904e-08
-2.08673e-07
-2.4287e-08
-1.64694e-07
-1.53579e-08
-1.68368e-07
-3.83225e-09
-1.77416e-07
7.51194e-09
-1.60597e-07
-1.25397e-08
-1.45695e-07
-1.41648e-08
-1.15211e-07
4.28812e-09
-9.71694e-08
2.40735e-08
-1.00533e-07
3.27738e-08
-1.14812e-07
6.05732e-08
-1.74795e-07
5.45377e-08
-1.97124e-07
4.93335e-08
-2.01172e-07
4.96534e-08
-2.24423e-07
1.53972e-08
-1.88678e-07
1.1412e-08
-1.59301e-07
-1.36956e-08
-1.17378e-07
-5.77516e-08
-1.41794e-07
-3.41473e-08
-1.36336e-07
3.41961e-09
-1.20399e-07
1.9369e-08
-1.54604e-07
-2.29168e-08
-1.83883e-07
3.36934e-08
-9.61901e-08
7.80841e-09
-1.99597e-07
-6.46013e-08
-2.11428e-07
-4.73793e-09
-1.25788e-07
6.93182e-08
-2.26767e-07
2.39775e-09
-2.02664e-07
-2.08684e-09
-1.88563e-07
-1.30523e-08
-1.52098e-07
-3.99372e-08
-1.64598e-07
2.1058e-08
-1.61786e-07
-3.64238e-09
-1.60434e-07
1.3473e-09
-1.67263e-07
1.91865e-09
-1.81856e-07
1.01621e-08
-1.86226e-07
1.15531e-08
-2.19847e-07
1.36196e-08
-1.3681e-07
2.14335e-08
-1.13033e-07
-1.59457e-08
-2.08325e-07
-6.5797e-08
-2.01269e-07
-3.70548e-08
-1.96568e-07
-2.40486e-08
-1.9211e-07
-1.54608e-08
-1.89817e-07
-6.05941e-09
-1.97205e-07
-1.00665e-08
-2.05104e-07
-3.28701e-08
-1.56957e-07
-8.60023e-09
-1.52268e-07
-4.85893e-08
-9.71304e-08
4.70909e-08
-1.12976e-07
3.04069e-09
-8.60804e-08
-2.81032e-08
-1.63161e-07
-3.00452e-08
-1.48e-07
-8.51891e-10
-1.56272e-07
2.78538e-08
-1.68005e-07
4.596e-08
-1.79497e-07
4.83034e-08
-1.88509e-07
2.94802e-08
-1.88942e-07
1.53141e-08
-1.8688e-07
1.15754e-08
-1.8595e-07
1.00789e-08
-1.8659e-07
4.33797e-09
-1.86397e-07
3.16256e-09
-9.85248e-10
-2.04238e-07
2.37985e-08
-2.16134e-07
2.63249e-08
-2.1108e-07
-8.57209e-09
-2.2169e-07
1.7191e-08
-1.27687e-07
4.09544e-08
-2.44115e-07
-7.45803e-09
-1.80421e-07
3.88446e-08
-1.93817e-07
1.98638e-08
-2.21592e-07
-1.34306e-08
-1.93445e-07
-4.36411e-08
-2.42621e-07
-9.43928e-09
-2.49036e-07
-5.94892e-08
-2.31516e-07
-4.20547e-08
-2.03779e-07
-4.30947e-08
-2.11356e-07
3.744e-09
-2.44191e-07
3.99395e-08
-2.45649e-07
-1.1082e-08
-2.34267e-07
-2.56905e-08
-2.06054e-07
-2.38814e-08
-1.96157e-07
1.44217e-08
-2.01345e-07
3.66161e-08
-2.0075e-07
6.06026e-08
-2.0008e-07
5.79565e-08
-2.03982e-07
5.11754e-08
-1.96882e-07
4.00376e-08
-1.90804e-07
1.13277e-08
-1.65291e-07
-1.39845e-08
-1.58115e-07
-2.10864e-08
-6.36062e-08
-1.23089e-08
-7.10362e-08
-2.67175e-08
-1.54549e-07
-5.30194e-08
-1.39598e-07
2.96426e-09
-5.54508e-08
3.4213e-08
-1.30583e-07
-3.08756e-08
-1.45015e-07
2.21607e-08
-1.98e-07
-1.16164e-08
-1.81527e-07
-2.12108e-08
-1.58024e-07
4.58152e-08
-2.13188e-07
5.75865e-08
-2.03121e-07
-1.21541e-08
-1.95302e-07
-2.28636e-08
-9.98203e-08
7.0036e-09
-1.9166e-07
-2.46329e-08
-1.88108e-07
-9.14896e-09
-1.94141e-07
7.37982e-09
-2.03534e-07
1.11974e-08
-2.01624e-07
8.25203e-09
-1.89665e-07
-4.06205e-10
-1.48504e-07
-2.78246e-08
-1.32685e-07
5.39536e-09
-1.24979e-07
-2.36515e-08
-1.63478e-07
-2.7969e-08
-1.90017e-07
-1.0516e-08
-2.01669e-07
-1.23961e-08
-1.81458e-07
-3.60404e-08
-1.96179e-07
1.06013e-08
-1.64501e-07
-3.99812e-08
-1.51224e-07
-4.64182e-08
-1.82932e-07
1.97332e-08
-1.12754e-07
2.07411e-08
-2.10673e-07
-4.05093e-08
-1.96729e-07
-8.89634e-09
-1.74906e-07
-1.96032e-09
-1.88913e-07
-1.60386e-08
-1.90011e-07
2.45785e-10
-1.87432e-07
2.52745e-08
-1.8352e-07
4.20483e-08
-1.79693e-07
4.44761e-08
-1.80027e-07
2.98137e-08
-1.80164e-07
1.54515e-08
-1.8045e-07
1.18605e-08
-1.81771e-07
1.13993e-08
-1.83558e-07
6.12381e-09
-1.84633e-07
4.23565e-09
-7.6649e-10
-2.47918e-07
4.38205e-08
-2.5062e-07
-1.50656e-08
-2.06763e-07
-6.24956e-09
-2.18105e-07
2.61568e-08
-1.87528e-07
9.95981e-09
-2.05149e-07
1.01631e-08
-1.80429e-07
1.41254e-08
-1.70721e-07
1.01558e-08
-1.88249e-07
2.17631e-09
-9.89948e-08
8.49891e-09
-2.27598e-07
-6.6428e-08
-2.04778e-07
-3.56593e-08
-2.1935e-07
-2.74822e-08
-1.28835e-07
6.34124e-09
-1.36459e-07
1.27604e-08
-2.11653e-07
-2.34045e-08
-2.12052e-07
-1.28423e-08
-2.23453e-07
-1.42898e-08
-2.09244e-07
-3.84834e-08
-2.32963e-07
3.54037e-08
-2.3023e-07
3.38823e-08
-2.0846e-07
4.05629e-08
-1.8246e-07
3.19572e-08
-1.53016e-07
2.38143e-08
-1.20496e-07
7.11346e-09
-1.26793e-07
1.65643e-08
-1.25847e-07
-1.62148e-08
-1.53175e-07
-4.13152e-08
-1.25406e-07
8.05323e-09
-1.38128e-07
-1.39959e-08
-1.79834e-07
-9.47855e-09
-1.42756e-07
-3.23453e-08
-1.2378e-07
1.2324e-08
-5.00614e-08
3.55236e-08
-1.74944e-07
-3.90478e-08
-1.77926e-07
-8.63427e-09
-7.78394e-08
6.53042e-08
-8.65647e-08
5.45404e-08
-2.08418e-07
-7.23658e-09
-1.63195e-07
-1.07264e-08
-1.57686e-07
-2.83725e-08
-1.48451e-07
-2.30327e-09
-1.73021e-07
-3.13684e-10
-1.90217e-07
8.04647e-09
-1.91958e-07
1.10796e-08
-1.96006e-07
1.50927e-08
-1.94906e-07
5.15267e-09
-1.9174e-07
-5.52804e-09
-6.18218e-08
-1.65196e-08
-1.75869e-07
-1.98785e-08
-1.37633e-07
-6.18879e-08
-1.57315e-07
-8.28638e-09
-1.8411e-07
1.62786e-08
-2.268e-07
2.82687e-08
-1.29708e-07
8.26123e-09
-2.5316e-07
-5.12256e-08
-2.42285e-07
-7.08517e-09
-1.42377e-07
-5.46683e-09
-2.38882e-07
-2.20596e-08
-2.14264e-07
-1.90288e-09
-2.35857e-07
-1.89165e-08
-2.59253e-07
1.45893e-08
-2.54418e-07
-4.20265e-09
-2.60022e-07
-1.04349e-08
-2.58194e-07
-1.58219e-09
-2.42991e-07
1.0071e-08
-2.22747e-07
2.18046e-08
-2.05145e-07
2.68736e-08
-1.96782e-07
2.14499e-08
-1.94365e-07
1.30346e-08
-1.92517e-07
1.00123e-08
-1.89663e-07
8.54445e-09
-1.87836e-07
4.29547e-09
-1.86393e-07
2.79055e-09
-1.13591e-09
-2.32026e-07
1.14015e-08
-2.45178e-07
4.47377e-08
-1.5757e-07
4.76388e-08
-2.34829e-07
-3.47706e-08
-2.19011e-07
-8.25416e-09
-2.10244e-07
1.39639e-09
-1.94226e-07
-1.89309e-09
-1.77161e-07
-6.90862e-09
-1.67089e-07
-7.89619e-09
-1.47933e-07
-1.07438e-08
-1.83907e-07
-3.04539e-08
-1.89963e-07
-2.96029e-08
-1.9261e-07
-2.48356e-08
-1.55555e-07
-3.10308e-08
-1.72882e-07
3.00876e-08
-1.72693e-07
-2.38324e-08
-1.91781e-07
6.24636e-09
-2.01394e-07
-6.6639e-09
-1.19012e-07
2.17552e-08
-1.959e-07
-2.50446e-08
-1.83921e-07
1.9559e-08
-1.65943e-07
2.25844e-08
-1.57997e-07
2.37688e-08
-1.45649e-07
1.14669e-08
-1.33668e-07
-6.22286e-09
-1.7446e-07
1.02256e-08
-1.73237e-07
2.92252e-08
-1.10606e-07
3.90131e-08
-2.04864e-07
-3.51102e-08
-1.88629e-07
-3.23209e-08
-2.17219e-07
-2.53225e-08
-1.85891e-07
-1.95014e-08
-1.79169e-07
3.81312e-09
-1.54849e-07
1.26686e-08
-1.81142e-07
-1.27545e-08
-9.91609e-08
4.8838e-08
-4.79184e-08
1.42065e-08
-1.18448e-07
-1.609e-08
-1.75169e-07
2.37764e-09
-1.3995e-07
2.49222e-09
-1.63127e-07
-5.1951e-09
-1.78768e-07
1.33377e-08
-1.8807e-07
8.98735e-09
-1.96176e-07
1.59899e-08
-1.99608e-07
1.67184e-08
-1.8114e-07
-3.22352e-09
-1.63874e-07