/*--------------------------------*- C++ -*----------------------------------*\
  =========                 |
  \\      /  F ield         | OpenFOAM: The Open Source CFD Toolbox
   \\    /   O peration     | Website:  https://openfoam.org
    \\  /    A nd           | Version:  12
     \\/     M anipulation  |
\*---------------------------------------------------------------------------*/
FoamFile
{
    format      ascii;
    class       volVectorField;
    location    "0.25";
    object      U.water_0;
}
// * * * * * * * * * * * * * * * * * * * * * * * * * * * * * * * * * * * * * //

dimensions      [0 1 -1 0 0 0 0];

internalField   nonuniform List<vector> 
3750
(
(0.000117826 0.0110589 0)
(0.00161995 0.0102368 0)
(0.00202386 0.00924229 0)
(0.00179778 0.00759361 0)
(-0.000265587 0.00644204 0)
(-0.00105604 0.00717784 0)
(-0.00110858 0.00589864 0)
(0.000277019 0.0120867 0)
(-0.00130216 0.013821 0)
(-0.000946692 0.00853658 0)
(0.000397987 0.0108116 0)
(0.00117861 0.0104614 0)
(4.50793e-05 0.0103183 0)
(-0.00142604 0.014472 0)
(0.00101219 0.016146 0)
(0.00057194 0.0133068 0)
(0.00141078 0.0138548 0)
(0.000545263 0.0110746 0)
(0.00258959 0.0122082 0)
(0.00087903 0.0150689 0)
(-0.000777191 0.00838076 0)
(-0.000224998 0.00269906 0)
(0.0016676 0.00233818 0)
(0.00211018 0.00833506 0)
(-0.00142897 0.0122813 0)
(-0.000995026 0.0115934 0)
(-0.00195604 0.00795636 0)
(0.00021954 0.00292307 0)
(0.000760513 0.00309214 0)
(0.000331963 0.00238845 0)
(6.2339e-05 0.00318026 0)
(-0.00117627 0.00361107 0)
(-0.000726468 0.00426172 0)
(0.000309156 0.00434732 0)
(-0.00102331 0.00488909 0)
(-0.000115226 0.00570047 0)
(0.000498125 0.00528047 0)
(0.000703065 0.00431834 0)
(0.00077876 0.00238726 0)
(0.000425147 0.000618767 0)
(0.000764278 0.00108292 0)
(0.00132221 0.00139543 0)
(-0.000344612 0.000685828 0)
(0.00010719 0.00204853 0)
(-0.00155526 0.002703 0)
(-0.00276611 0.00370217 0)
(-0.00238798 0.0073865 0)
(-0.00114661 0.0106585 0)
(0.000157227 0.00912956 0)
(0.00099622 0.00703651 0)
(0.000913236 0.00622738 0)
(0.00108776 0.00539475 0)
(-0.000469461 0.00404926 0)
(-0.000629493 0.00493953 0)
(-0.00167165 0.0062597 0)
(-0.000998384 0.00728148 0)
(-0.000444669 0.0079236 0)
(7.7497e-05 0.00844712 0)
(0.00141763 0.00780442 0)
(0.00256651 0.0060234 0)
(0.00145717 0.00455272 0)
(-0.000346349 0.00669709 0)
(0.000669541 0.00613208 0)
(0.0013399 0.00636685 0)
(0.000743931 0.00692155 0)
(0.00125181 0.00492858 0)
(0.00095622 0.00349712 0)
(-0.000111605 0.00206103 0)
(-0.00112144 0.00288466 0)
(-0.00187568 0.00533283 0)
(-0.00225414 0.0080571 0)
(-0.00051608 0.00827547 0)
(0.00160346 0.00536161 0)
(0.00458534 -0.00273876 0)
(0.00304254 -0.00867058 0)
(0.00224558 -0.00543482 0)
(0.00301777 -0.00609694 0)
(0.00114207 -0.00517665 0)
(-0.00164455 -0.00649893 0)
(-0.00075268 -0.00628025 0)
(-0.000227281 -0.00521253 0)
(0.000549414 -0.00880843 0)
(0.00345473 -0.00779567 0)
(-2.08686e-05 -0.00765449 0)
(-0.00162182 -0.00979367 0)
(-0.00171952 -0.00599334 0)
(7.09063e-05 -0.0061074 0)
(-0.00233895 -0.00707989 0)
(-0.00283917 -0.000538156 0)
(2.02773e-05 0.00158143 0)
(0.00218396 -0.00253003 0)
(0.00185332 -0.00173315 0)
(7.21414e-05 -0.00336897 0)
(0.00580357 -0.00321038 0)
(0.00424215 -0.00288952 0)
(-0.00110313 -0.00637116 0)
(-0.000617876 -0.00733584 0)
(0.000813947 -0.00691116 0)
(0.00265059 -0.0066121 0)
(0.000535428 -0.00537681 0)
(-0.00144292 -0.00534388 0)
(-0.00115132 -0.00723611 0)
(0.000321514 -0.008245 0)
(-0.000132685 -0.00856603 0)
(-0.000378861 -0.00982195 0)
(-0.000661749 -0.0114126 0)
(-0.00164366 -0.0117138 0)
(-0.000997877 -0.00951768 0)
(-0.000709242 -0.0095905 0)
(3.56204e-05 -0.00977313 0)
(0.00103824 -0.00915549 0)
(0.00272172 -0.0110954 0)
(0.00168202 -0.0112686 0)
(0.00197182 -0.0101635 0)
(-9.30938e-05 -0.00919577 0)
(-0.00184878 -0.00687031 0)
(-0.000298558 -0.00868207 0)
(-0.00109569 -0.00877683 0)
(-0.00227209 -0.0076424 0)
(-0.00129969 -0.0100228 0)
(-2.05214e-05 -0.0107798 0)
(0.000757895 -0.00807909 0)
(0.000847305 -0.00818167 0)
(0.00106284 -0.0124066 0)
(0.00070582 -0.0144254 0)
(-0.000149442 -0.0148368 0)
(0.000458217 -0.015066 0)
(0.000150808 -0.0141817 0)
(-0.00025605 -0.0126119 0)
(-0.00299748 -0.0123525 0)
(0.000531422 -0.0114582 0)
(0.000130733 -0.012932 0)
(-0.00122486 -0.0139869 0)
(0.0012856 -0.0146724 0)
(0.00178421 -0.015181 0)
(-0.000839219 -0.0165526 0)
(-0.00167553 -0.012715 0)
(-0.00204229 -0.0133981 0)
(-0.000856999 -0.0177309 0)
(-0.000676544 -0.0162365 0)
(0.000778124 -0.015168 0)
(0.00100461 -0.0143192 0)
(0.000184824 -0.0128018 0)
(-0.00141911 -0.0117285 0)
(-0.00155176 -0.0108788 0)
(-0.00059664 -0.0107528 0)
(0.00376445 -0.00961309 0)
(0.00758387 -0.010489 0)
(0.00880192 -0.0136112 0)
(0.00317623 -0.0130785 0)
(0.000896681 -0.0104598 0)
(0.00166869 -0.0105997 0)
(0.00100862 -0.011448 0)
(-0.00135271 -0.0110238 0)
(0.00209737 -0.0123593 0)
(0.00190536 -0.015096 0)
(0.00104463 -0.0161802 0)
(0.00448776 -0.0124473 0)
(-0.00113669 -0.0140047 0)
(-0.00362359 -0.0154656 0)
(-0.00178939 -0.0103362 0)
(-0.00163275 -0.0139996 0)
(-0.00162204 -0.0198957 0)
(-0.00020564 -0.0153504 0)
(-0.00263361 -0.0114417 0)
(-0.00124127 -0.0153377 0)
(0.00343936 -0.0158144 0)
(0.0039183 -0.0105681 0)
(0.00591948 -0.0068883 0)
(0.00149031 -0.0125376 0)
(-0.000468692 -0.0149978 0)
(0.0015608 -0.0146651 0)
(0.00118647 -0.0161684 0)
(0.00113243 -0.0155722 0)
(0.000758878 -0.016105 0)
(-0.000986922 -0.0115839 0)
(-0.00195816 -0.00949161 0)
(0.00144154 -0.0119284 0)
(0.00149929 -0.0116172 0)
(0.000143126 -0.0129355 0)
(0.000549295 -0.0138001 0)
(0.000161567 -0.0144607 0)
(-0.00185046 -0.0146811 0)
(-0.00316229 -0.0145169 0)
(-0.00036486 -0.0141279 0)
(0.000456802 -0.0126439 0)
(0.000985105 -0.0127691 0)
(0.000764197 -0.0133423 0)
(0.0013796 -0.0137297 0)
(0.000993406 -0.014984 0)
(-0.000490664 -0.0103254 0)
(-0.00128565 -0.0112994 0)
(-0.000750007 -0.01597 0)
(-0.00157938 -0.0163392 0)
(0.000988416 -0.0188059 0)
(0.00287771 -0.0199484 0)
(0.00240579 -0.0184267 0)
(0.000479353 -0.0168921 0)
(-0.00117767 -0.0182298 0)
(-0.000248917 -0.0202738 0)
(0.000147346 -0.0186862 0)
(9.3566e-05 -0.0177206 0)
(-0.000901988 -0.0182151 0)
(-0.00204795 -0.0190907 0)
(-0.00265286 -0.0145217 0)
(0.0015423 -0.0137356 0)
(0.00138682 -0.0195285 0)
(0.00120203 -0.0157288 0)
(0.00047201 -0.0127861 0)
(0.00321025 -0.0177594 0)
(0.00390061 -0.0206542 0)
(0.00337086 -0.0213227 0)
(-0.000925551 -0.0233862 0)
(-0.000767369 -0.0260641 0)
(-0.000797516 -0.0261496 0)
(-0.000732911 -0.024746 0)
(-0.00134104 -0.0230929 0)
(-0.00249558 -0.0218627 0)
(-0.00312325 -0.021694 0)
(-0.00343782 -0.0216785 0)
(-0.00241946 -0.0219794 0)
(0.00233948 -0.0209762 0)
(0.00616957 -0.0199062 0)
(0.00731253 -0.0199681 0)
(0.00269216 -0.0146942 0)
(0.000455817 -0.014684 0)
(0.00143179 -0.0145582 0)
(0.00204148 -0.0144438 0)
(0.00123392 -0.012913 0)
(0.00176794 -0.0124133 0)
(0.00212697 -0.018138 0)
(0.00320822 -0.0164404 0)
(0.00362162 -0.0155222 0)
(-0.000238548 -0.0202359 0)
(-4.605e-05 -0.0167056 0)
(-0.00238584 -0.015219 0)
(-0.000765846 -0.0213678 0)
(0.000422987 -0.0241271 0)
(0.00198767 -0.0226768 0)
(-0.00084164 -0.0217301 0)
(-0.00345569 -0.0205265 0)
(0.000246772 -0.0176156 0)
(0.00331732 -0.0152035 0)
(0.00247352 -0.0169632 0)
(-0.000745245 -0.0214969 0)
(-0.000734604 -0.0193404 0)
(0.000387843 -0.0179636 0)
(0.00223853 -0.0207047 0)
(0.00117185 -0.0207961 0)
(0.0003376 -0.0199384 0)
(0.000299563 -0.0186549 0)
(-0.00415343 -0.0128818 0)
(-0.000936754 -0.0127746 0)
(0.00124097 -0.0176388 0)
(-0.000192963 -0.0167569 0)
(0.000611662 -0.0153512 0)
(-0.00159844 -0.0142097 0)
(-0.00185297 -0.0129933 0)
(-0.00190694 -0.0132043 0)
(-0.00144731 -0.0121662 0)
(0.00242488 -0.0130145 0)
(0.00241506 -0.015283 0)
(0.00237695 -0.0153834 0)
(0.00176984 -0.0140221 0)
(0.000160881 -0.0166691 0)
(0.00149665 -0.0168425 0)
(-4.82249e-05 -0.017072 0)
(-0.0002477 -0.0192298 0)
(0.000261785 -0.0203979 0)
(0.000323313 -0.0202483 0)
(0.00148966 -0.0202295 0)
(0.00242873 -0.0190861 0)
(0.00205093 -0.0177736 0)
(-2.6404e-05 -0.0176747 0)
(-0.00253785 -0.0164544 0)
(-0.000748362 -0.0166976 0)
(-0.000270012 -0.0180154 0)
(-0.000397307 -0.0179924 0)
(0.000541701 -0.0191078 0)
(0.00145976 -0.0158264 0)
(-0.000960683 -0.0157301 0)
(-3.48804e-05 -0.0194736 0)
(0.0024871 -0.0182059 0)
(-0.00081938 -0.0131676 0)
(-9.43817e-05 -0.0134759 0)
(0.00336566 -0.017268 0)
(0.00300733 -0.0187329 0)
(0.000920958 -0.0199706 0)
(-0.000715756 -0.0212457 0)
(-0.00200999 -0.0212587 0)
(-0.00209591 -0.021119 0)
(-0.00162982 -0.0210431 0)
(-0.00109026 -0.0219004 0)
(-0.00138684 -0.0231163 0)
(-0.00177414 -0.0232316 0)
(-0.00112801 -0.0233486 0)
(0.00155069 -0.0222539 0)
(0.00316842 -0.0208432 0)
(0.00383411 -0.020898 0)
(0.00112077 -0.0158915 0)
(-9.48278e-05 -0.0204669 0)
(0.00471358 -0.0220973 0)
(0.00244742 -0.022277 0)
(0.00361201 -0.0206136 0)
(0.00201524 -0.0203902 0)
(0.00286259 -0.0206765 0)
(0.00405201 -0.0193581 0)
(0.0010781 -0.0206061 0)
(0.000770793 -0.0228388 0)
(0.00169905 -0.0234975 0)
(-0.00180469 -0.0199024 0)
(-0.000182517 -0.0227099 0)
(0.000491774 -0.0286317 0)
(-3.00811e-05 -0.0267273 0)
(-0.0018395 -0.0248981 0)
(-2.36337e-05 -0.0238229 0)
(0.000332142 -0.0224369 0)
(0.00200217 -0.0220143 0)
(0.000156547 -0.0229663 0)
(0.000605125 -0.024765 0)
(0.00119686 -0.0199357 0)
(-0.000221756 -0.0148104 0)
(-0.000254417 -0.0170018 0)
(0.000497736 -0.0200384 0)
(0.000573441 -0.0190316 0)
(0.000395822 -0.0177148 0)
(-0.00107243 -0.0124086 0)
(-0.000908732 -0.00850051 0)
(-0.00211822 -0.0132393 0)
(-0.00148719 -0.0153109 0)
(-0.00190357 -0.0146044 0)
(-0.00225861 -0.0131147 0)
(-0.00397476 -0.0118852 0)
(0.000189529 -0.0157048 0)
(0.000976637 -0.0140303 0)
(0.000624552 -0.0124789 0)
(0.000935452 -0.0161334 0)
(0.00283144 -0.0152742 0)
(0.00207679 -0.0155341 0)
(0.00155087 -0.0171287 0)
(0.00125693 -0.0163151 0)
(0.000308778 -0.0164625 0)
(-0.000147888 -0.0173665 0)
(-0.00032356 -0.0163648 0)
(0.000493416 -0.0155954 0)
(0.000187469 -0.0158971 0)
(0.00015174 -0.0138836 0)
(0.000417232 -0.0116481 0)
(0.000460276 -0.012888 0)
(4.29859e-05 -0.0119736 0)
(-0.00125179 -0.010284 0)
(0.000199468 -0.013344 0)
(-0.00047098 -0.0148674 0)
(0.000847903 -0.0163666 0)
(0.00271827 -0.0174143 0)
(-0.00174779 -0.0168637 0)
(-0.000940531 -0.01875 0)
(0.000835087 -0.017524 0)
(0.0030265 -0.014966 0)
(0.00216698 -0.0118507 0)
(0.00275003 -0.0136902 0)
(0.00143924 -0.0170289 0)
(0.00340321 -0.0183294 0)
(0.00117146 -0.0204318 0)
(-0.00121458 -0.0216643 0)
(-0.00133347 -0.0237834 0)
(-0.000517535 -0.0252659 0)
(-0.000631397 -0.0255496 0)
(-0.00217611 -0.0246463 0)
(-0.00323221 -0.0234126 0)
(-0.00212539 -0.0220427 0)
(0.000508676 -0.0207845 0)
(0.00134481 -0.0200129 0)
(0.00177855 -0.0207191 0)
(0.000498215 -0.0168298 0)
(0.00185472 -0.0185374 0)
(0.00421775 -0.0206292 0)
(0.00217274 -0.0245494 0)
(0.00155504 -0.0212497 0)
(0.00149708 -0.0200499 0)
(0.00233339 -0.0207363 0)
(0.00265609 -0.0198018 0)
(0.00248475 -0.0198056 0)
(0.00313271 -0.0207925 0)
(0.00272726 -0.0210918 0)
(0.00245125 -0.019617 0)
(9.93364e-05 -0.0207172 0)
(7.94419e-05 -0.0240106 0)
(0.00121651 -0.0230419 0)
(-0.000350336 -0.0213668 0)
(-0.000768842 -0.0210463 0)
(-0.00188039 -0.0220281 0)
(0.000652481 -0.0210006 0)
(-0.000358081 -0.0203038 0)
(-0.000661707 -0.0186576 0)
(-0.000445125 -0.0160629 0)
(-0.00107778 -0.0140395 0)
(-0.00202053 -0.0134134 0)
(-0.000899488 -0.0137692 0)
(-0.000923234 -0.0137237 0)
(-0.000584589 -0.0141718 0)
(0.00179919 -0.0090352 0)
(-0.00273143 -0.00940079 0)
(-0.00558307 -0.0146137 0)
(-0.00279262 -0.0134256 0)
(-0.000702786 -0.0128312 0)
(0.000893587 -0.0152109 0)
(-0.00025616 -0.0129511 0)
(0.00130457 -0.0125548 0)
(0.00199346 -0.0158451 0)
(-0.00191989 -0.0168962 0)
(0.000718222 -0.0180899 0)
(0.0035101 -0.017523 0)
(0.0032651 -0.017662 0)
(0.00253879 -0.0190474 0)
(2.35272e-05 -0.0176662 0)
(0.000935949 -0.0167113 0)
(-0.000445351 -0.017996 0)
(-0.000739879 -0.0175402 0)
(-0.000997076 -0.0168303 0)
(-0.00111112 -0.0172636 0)
(-0.000415586 -0.016594 0)
(0.000329432 -0.0155402 0)
(0.00181708 -0.0153589 0)
(0.00326901 -0.0156672 0)
(-0.000316691 -0.0127734 0)
(-0.00146239 -0.0126119 0)
(-0.00042945 -0.0161464 0)
(0.00105758 -0.0162182 0)
(0.00227057 -0.0178267 0)
(-0.000407047 -0.0188166 0)
(-0.0029739 -0.0193215 0)
(0.00113042 -0.0197437 0)
(0.00238322 -0.0184483 0)
(0.0050716 -0.0162117 0)
(0.00289774 -0.0159189 0)
(0.00261605 -0.0129995 0)
(0.00184904 -0.0139086 0)
(0.00125533 -0.0185777 0)
(0.000767224 -0.0192906 0)
(0.00118917 -0.0217236 0)
(0.000645968 -0.023495 0)
(-0.00167397 -0.0235331 0)
(-0.00447428 -0.021632 0)
(-0.00470176 -0.0209143 0)
(-0.00286423 -0.0202645 0)
(-0.000444461 -0.0194987 0)
(0.00023688 -0.0190529 0)
(0.000641594 -0.0206391 0)
(0.000285172 -0.0173445 0)
(0.00193844 -0.0160098 0)
(-0.00137674 -0.0180128 0)
(-0.00122888 -0.0197401 0)
(0.00106487 -0.0180558 0)
(0.00280555 -0.0187266 0)
(0.00237518 -0.0190145 0)
(0.0021796 -0.0176152 0)
(0.00144522 -0.0167167 0)
(0.000699151 -0.0171609 0)
(0.00239314 -0.0177005 0)
(0.00215183 -0.0151831 0)
(0.000395452 -0.0155763 0)
(-0.00222948 -0.0147881 0)
(0.000711873 -0.0143009 0)
(-0.00102625 -0.0158595 0)
(-0.00187144 -0.0157393 0)
(-0.0015732 -0.0136296 0)
(0.000550919 -0.0133823 0)
(-0.000305614 -0.0156052 0)
(-0.000726159 -0.0158355 0)
(-0.000969483 -0.014638 0)
(-0.00117599 -0.0128686 0)
(-0.00146463 -0.0120598 0)
(-0.00163292 -0.0127885 0)
(0.000274737 -0.0140963 0)
(0.00236862 -0.0125215 0)
(0.00352926 -0.0110465 0)
(-0.00285825 -0.0144123 0)
(-0.00387221 -0.0187719 0)
(-0.0044694 -0.0195048 0)
(-4.37668e-06 -0.0189472 0)
(0.000118026 -0.0180572 0)
(0.00143313 -0.0163198 0)
(-0.000374013 -0.0154058 0)
(0.000193797 -0.0179908 0)
(-7.96436e-05 -0.0173601 0)
(0.00358636 -0.0162106 0)
(0.00365771 -0.017021 0)
(0.00262334 -0.0180116 0)
(0.00155061 -0.0190376 0)
(0.000534481 -0.0150351 0)
(-0.000714363 -0.0158934 0)
(-0.000639462 -0.0197867 0)
(-0.000452494 -0.0190836 0)
(-0.000743492 -0.02106 0)
(-0.00034366 -0.0221868 0)
(-0.000275666 -0.0213346 0)
(-0.00169521 -0.0190778 0)
(0.00164401 -0.0174484 0)
(0.00113035 -0.0182611 0)
(6.53837e-06 -0.0166099 0)
(-0.0028267 -0.0151042 0)
(8.26849e-05 -0.0158746 0)
(0.00247717 -0.0170905 0)
(0.00235536 -0.0179981 0)
(0.00192389 -0.0195069 0)
(0.00157034 -0.0178221 0)
(0.000658902 -0.0192164 0)
(-0.000251857 -0.0222001 0)
(0.00127389 -0.0190322 0)
(0.00191979 -0.0163052 0)
(0.00745641 -0.0131511 0)
(0.00252927 -0.0141909 0)
(0.00192527 -0.0173825 0)
(0.00242341 -0.0186329 0)
(0.0026309 -0.0189652 0)
(0.00154222 -0.0186471 0)
(-0.00204927 -0.0172631 0)
(-0.00443424 -0.01649 0)
(-0.00454728 -0.0171871 0)
(-0.0028686 -0.0185493 0)
(-0.00106454 -0.0183295 0)
(-0.000326185 -0.0186093 0)
(-0.000142354 -0.0208306 0)
(0.00019121 -0.0177085 0)
(0.00106024 -0.0232511 0)
(-0.00219811 -0.0242199 0)
(0.000460133 -0.0211778 0)
(0.0007175 -0.0165704 0)
(0.000485051 -0.0202325 0)
(0.00104066 -0.0224388 0)
(0.00180469 -0.0206171 0)
(0.000890604 -0.0193328 0)
(0.00044573 -0.0168468 0)
(0.00336847 -0.016432 0)
(0.00128997 -0.0161729 0)
(-0.000445726 -0.0171693 0)
(-0.0003037 -0.0140255 0)
(-0.000888573 -0.0125483 0)
(-0.000679346 -0.015881 0)
(-0.00065953 -0.0168072 0)
(-0.00112316 -0.0165305 0)
(-0.00316872 -0.017646 0)
(-0.00239152 -0.0192859 0)
(-0.00313418 -0.0173401 0)
(0.000425738 -0.0168254 0)
(0.000387279 -0.0173735 0)
(-0.000580916 -0.0172862 0)
(-0.000680084 -0.0156745 0)
(-0.00113304 -0.0161865 0)
(0.000429184 -0.0174619 0)
(0.00162923 -0.017845 0)
(3.79262e-05 -0.0170336 0)
(0.00207539 -0.0217531 0)
(-0.00171883 -0.0220583 0)
(-0.00320715 -0.0227006 0)
(-0.00204074 -0.0268319 0)
(-0.000943662 -0.0258809 0)
(-0.000492047 -0.0234789 0)
(0.000706839 -0.0231651 0)
(0.00140149 -0.0194579 0)
(-0.000784059 -0.0167245 0)
(0.00420312 -0.0191051 0)
(0.00338634 -0.0183797 0)
(0.00308499 -0.0182281 0)
(0.00272521 -0.0190365 0)
(-0.000446456 -0.019083 0)
(0.000292052 -0.0199574 0)
(-0.000766005 -0.0212222 0)
(-0.000779298 -0.0219581 0)
(-0.00126608 -0.0226591 0)
(-0.00087273 -0.0230576 0)
(-0.000529999 -0.0188907 0)
(3.8124e-05 -0.018248 0)
(0.000469389 -0.0215837 0)
(0.00019916 -0.0201667 0)
(0.00158245 -0.0154589 0)
(0.000221047 -0.012246 0)
(0.000229022 -0.0147168 0)
(0.000803466 -0.0177023 0)
(0.00118645 -0.0164732 0)
(0.00402056 -0.0155524 0)
(0.000253059 -0.018171 0)
(0.000501643 -0.0218728 0)
(0.000289763 -0.0229553 0)
(0.000591353 -0.0160291 0)
(0.00322403 -0.0134792 0)
(0.00362972 -0.0174173 0)
(0.00195212 -0.0174351 0)
(0.00151993 -0.0171705 0)
(0.000774251 -0.0166057 0)
(-0.00101023 -0.0152454 0)
(-0.00312157 -0.0142213 0)
(-0.00379161 -0.0146903 0)
(-0.00281225 -0.0166288 0)
(-0.00104978 -0.0176922 0)
(-0.000387901 -0.0173604 0)
(-6.62469e-05 -0.018135 0)
(3.20243e-05 -0.0205791 0)
(0.00016818 -0.0177945 0)
(-0.000265114 -0.0186102 0)
(-0.00135965 -0.0195148 0)
(8.86798e-05 -0.0194241 0)
(-0.00056273 -0.0172422 0)
(-0.00179569 -0.0175488 0)
(0.000384549 -0.0199217 0)
(0.00187062 -0.0212378 0)
(0.00142844 -0.0209399 0)
(-0.000868832 -0.0151379 0)
(-0.000671752 -0.0154854 0)
(0.000858902 -0.0174371 0)
(-0.00107003 -0.0141241 0)
(0.00138781 -0.0122257 0)
(-0.00292115 -0.0133754 0)
(-0.00163962 -0.0159784 0)
(-0.000810447 -0.017223 0)
(0.000867953 -0.0178308 0)
(-0.00208873 -0.018211 0)
(0.000721551 -0.0207233 0)
(-0.000157935 -0.0195782 0)
(-0.0017367 -0.0176564 0)
(0.000134471 -0.0204423 0)
(-0.000974203 -0.021532 0)
(-0.000555359 -0.0210893 0)
(-0.00114905 -0.0214036 0)
(0.00237535 -0.0201099 0)
(0.0050114 -0.021557 0)
(0.00182734 -0.0188159 0)
(0.00334777 -0.0193585 0)
(0.0017574 -0.0249671 0)
(-0.00202432 -0.0264984 0)
(-0.00144767 -0.0292355 0)
(-0.00189994 -0.0303782 0)
(-0.00199913 -0.029036 0)
(-0.00101963 -0.0274682 0)
(0.00171055 -0.0265882 0)
(-0.00224044 -0.0203507 0)
(0.00234456 -0.0189075 0)
(0.00257233 -0.0229519 0)
(0.00264258 -0.0212542 0)
(0.0034048 -0.0209926 0)
(0.00026147 -0.0205879 0)
(-0.000153436 -0.0203776 0)
(9.26828e-05 -0.0209062 0)
(-2.82303e-06 -0.0235218 0)
(0.000257259 -0.024942 0)
(-0.000123404 -0.0253918 0)
(0.00077055 -0.025108 0)
(-0.00304889 -0.0242758 0)
(-0.00067502 -0.024922 0)
(0.00115275 -0.020941 0)
(0.000952432 -0.0182271 0)
(-0.00137955 -0.0195562 0)
(-0.00336663 -0.0188363 0)
(-0.00189422 -0.0173079 0)
(0.000368139 -0.0146861 0)
(0.00474496 -0.0153585 0)
(0.00322402 -0.0184084 0)
(0.00329387 -0.0199593 0)
(0.00356604 -0.0214113 0)
(0.00349987 -0.016439 0)
(-0.000720045 -0.0112953 0)
(0.00100389 -0.014742 0)
(0.00116251 -0.0173376 0)
(0.00226531 -0.0168857 0)
(0.00110867 -0.0171979 0)
(-0.0011435 -0.0172473 0)
(-0.0023676 -0.0172588 0)
(-0.00240143 -0.0175621 0)
(-0.00161956 -0.0184804 0)
(-0.00124326 -0.0185469 0)
(-0.000902292 -0.0179926 0)
(-0.000403438 -0.0183366 0)
(-0.000279089 -0.0209991 0)
(0.000131818 -0.0179131 0)
(-0.000250048 -0.0150904 0)
(-1.2865e-05 -0.0144581 0)
(9.73173e-05 -0.0150451 0)
(-0.000484346 -0.0142763 0)
(-0.000662312 -0.0142027 0)
(0.00213432 -0.0142912 0)
(0.00222885 -0.0144937 0)
(0.00238927 -0.0167013 0)
(0.000273697 -0.0175782 0)
(-0.00446288 -0.0165992 0)
(0.000107873 -0.0153643 0)
(7.93784e-05 -0.012772 0)
(-3.63213e-05 -0.0127635 0)
(-0.000189376 -0.0169252 0)
(-0.00162095 -0.0198562 0)
(0.00020404 -0.0212182 0)
(0.000818132 -0.0220349 0)
(0.000301601 -0.0183944 0)
(0.000862594 -0.0193671 0)
(0.00179678 -0.0237066 0)
(-0.00210139 -0.0209976 0)
(-0.00142564 -0.0225317 0)
(-0.000999432 -0.0271233 0)
(-0.000708195 -0.0294104 0)
(0.0014937 -0.0267578 0)
(0.00239587 -0.0224436 0)
(0.00261533 -0.0266296 0)
(0.00364867 -0.0236271 0)
(-0.000165872 -0.0215285 0)
(-0.000318922 -0.0265008 0)
(0.000190797 -0.025702 0)
(9.23015e-05 -0.0278577 0)
(-0.000653885 -0.0281433 0)
(-0.00334569 -0.0258242 0)
(-0.00144505 -0.0223895 0)
(0.00129413 -0.0229595 0)
(0.000691435 -0.018573 0)
(-0.00198878 -0.0163598 0)
(-3.6921e-05 -0.0208743 0)
(0.000669672 -0.0194276 0)
(0.00115735 -0.0188271 0)
(0.000443618 -0.0187361 0)
(0.00250192 -0.0185748 0)
(0.00113642 -0.0210616 0)
(0.000275602 -0.0222754 0)
(0.00266763 -0.0232564 0)
(0.00118597 -0.0238939 0)
(-0.000593314 -0.0243937 0)
(-0.00324717 -0.0231912 0)
(-0.000947284 -0.0214767 0)
(0.00248028 -0.020584 0)
(-0.00197021 -0.0199631 0)
(-0.002382 -0.0200051 0)
(-0.00255399 -0.0210139 0)
(-0.00170414 -0.0207656 0)
(0.000694593 -0.0153671 0)
(0.00381909 -0.0146866 0)
(0.00387461 -0.0175268 0)
(0.00363289 -0.0158957 0)
(0.00230574 -0.014004 0)
(0.00189415 -0.0119277 0)
(-0.000599865 -0.010742 0)
(-0.00197141 -0.0117875 0)
(0.000391313 -0.011219 0)
(0.00103583 -0.0108356 0)
(0.000837362 -0.0122527 0)
(-0.00132189 -0.0133734 0)
(-0.00279247 -0.014474 0)
(-0.00300406 -0.0147122 0)
(-0.00157908 -0.0154227 0)
(-0.000766064 -0.0162827 0)
(-0.000557916 -0.0169015 0)
(0.000131951 -0.0177182 0)
(8.74144e-05 -0.0206047 0)
(2.44257e-05 -0.017859 0)
(-0.0012651 -0.016291 0)
(-0.00167193 -0.0182284 0)
(-0.00203537 -0.0185701 0)
(-0.00152241 -0.0174633 0)
(-0.00170165 -0.0154783 0)
(0.00340198 -0.0156917 0)
(0.00396669 -0.016117 0)
(0.0030222 -0.015986 0)
(0.0008901 -0.0194894 0)
(-0.00140963 -0.0167256 0)
(-0.00335419 -0.013976 0)
(-0.00241494 -0.01539 0)
(-0.000250833 -0.0119279 0)
(0.00422416 -0.0113095 0)
(0.00170131 -0.0145275 0)
(-5.83812e-05 -0.015241 0)
(-0.000156164 -0.0150398 0)
(0.00101649 -0.0120253 0)
(0.000925587 -0.0121919 0)
(0.00145535 -0.0166283 0)
(0.00153127 -0.0194058 0)
(-0.00114692 -0.0219083 0)
(0.000503204 -0.0253397 0)
(0.000342083 -0.0253491 0)
(0.00528463 -0.0244264 0)
(0.00238121 -0.024014 0)
(0.000882288 -0.0247066 0)
(0.00239725 -0.0240009 0)
(-0.00177937 -0.0232459 0)
(-0.00226853 -0.0232067 0)
(0.00132024 -0.023087 0)
(1.4042e-05 -0.0247778 0)
(-0.00144301 -0.0254164 0)
(-0.0035994 -0.0213199 0)
(-0.00322588 -0.0145018 0)
(-0.00245209 -0.0183525 0)
(-0.000455717 -0.0208304 0)
(-0.00140081 -0.0188171 0)
(0.00121286 -0.0194708 0)
(0.00238305 -0.0194629 0)
(0.00152534 -0.0196578 0)
(0.00180338 -0.0171058 0)
(0.00182565 -0.0170881 0)
(0.00096619 -0.0203449 0)
(0.000554214 -0.0175543 0)
(0.00174642 -0.0158916 0)
(0.000959708 -0.0160658 0)
(0.000589991 -0.017845 0)
(-0.000943703 -0.0158317 0)
(-0.00203667 -0.0133662 0)
(-0.00200536 -0.0173327 0)
(-0.00243768 -0.0193085 0)
(-0.00257046 -0.0181806 0)
(-0.00181191 -0.0188562 0)
(0.00039973 -0.0186256 0)
(0.000652584 -0.0138683 0)
(-0.00193818 -0.0142175 0)
(0.000136571 -0.0160618 0)
(0.00125954 -0.012577 0)
(0.000299838 -0.00977104 0)
(0.000163526 -0.00837754 0)
(0.000190718 -0.00988452 0)
(-0.00121341 -0.0118095 0)
(5.12197e-05 -0.0109467 0)
(0.00204508 -0.00860033 0)
(0.00239309 -0.00806061 0)
(0.00199697 -0.00913913 0)
(-0.000471156 -0.0116939 0)
(-0.00143749 -0.0142688 0)
(0.00030602 -0.0162675 0)
(0.000852383 -0.0168275 0)
(0.000348196 -0.0177597 0)
(3.64295e-05 -0.0184955 0)
(0.000183482 -0.0209991 0)
(1.73913e-05 -0.0180595 0)
(-0.00142799 -0.0165867 0)
(-0.00147909 -0.0224454 0)
(-0.00351766 -0.0219732 0)
(-6.46072e-05 -0.0221297 0)
(0.000887148 -0.0192355 0)
(0.00208514 -0.0176177 0)
(0.00514994 -0.0210619 0)
(0.00223035 -0.0216864 0)
(0.000613194 -0.0195913 0)
(-0.00113076 -0.0177633 0)
(-0.00517113 -0.018876 0)
(-0.00476392 -0.0193749 0)
(0.00182348 -0.0141228 0)
(0.00190762 -0.0131876 0)
(0.00173079 -0.0163608 0)
(6.20894e-05 -0.0159133 0)
(0.000239548 -0.0166504 0)
(0.00202176 -0.0117858 0)
(0.00238119 -0.010634 0)
(0.00277572 -0.0150457 0)
(0.00277604 -0.0167993 0)
(0.000824767 -0.0180035 0)
(0.000195736 -0.021315 0)
(0.00260396 -0.0200233 0)
(0.00323616 -0.0190689 0)
(0.000430133 -0.0210109 0)
(0.00197222 -0.0203548 0)
(-0.000288735 -0.0203188 0)
(-0.000983926 -0.0210064 0)
(-0.00128778 -0.0166388 0)
(0.000464844 -0.0161266 0)
(0.00127612 -0.0205659 0)
(0.000206551 -0.0195073 0)
(0.00279114 -0.0143108 0)
(-0.00254281 -0.0108139 0)
(-0.00845458 -0.0156129 0)
(-0.00361255 -0.0192071 0)
(-1.92348e-05 -0.0214767 0)
(0.0010464 -0.0225757 0)
(0.00168619 -0.0212065 0)
(0.00137381 -0.0202989 0)
(0.00213764 -0.0190382 0)
(-0.0011503 -0.0177835 0)
(-0.000114952 -0.0179308 0)
(0.00108408 -0.0156996 0)
(0.000620327 -0.0142156 0)
(0.00098262 -0.0163536 0)
(0.000998759 -0.0165653 0)
(0.00250327 -0.0171918 0)
(-0.00119502 -0.0179561 0)
(-0.00394715 -0.0192786 0)
(-0.0028864 -0.0197912 0)
(-0.0025576 -0.0184708 0)
(-0.000892664 -0.0176941 0)
(0.00126029 -0.0176947 0)
(0.00106866 -0.0168723 0)
(-0.00234436 -0.0165062 0)
(-0.00233758 -0.0179921 0)
(0.0023466 -0.0172561 0)
(-0.0003492 -0.0125541 0)
(-0.000903151 -0.0074597 0)
(-0.00141062 -0.00896048 0)
(-0.00122138 -0.0129363 0)
(-0.00144405 -0.0112727 0)
(-0.00049099 -0.010624 0)
(-2.0135e-05 -0.0116964 0)
(0.00174397 -0.0121574 0)
(0.00231387 -0.0136069 0)
(0.00144886 -0.0168893 0)
(0.00141886 -0.0174052 0)
(0.00150671 -0.0173835 0)
(0.00113706 -0.0171353 0)
(0.000226767 -0.0180839 0)
(0.000247276 -0.0206923 0)
(-4.26708e-05 -0.0179109 0)
(-0.00228516 -0.0169259 0)
(-0.00166176 -0.0195649 0)
(0.000587027 -0.0177295 0)
(0.00181914 -0.0158124 0)
(0.00319001 -0.0163304 0)
(-0.0024572 -0.0138062 0)
(0.000701831 -0.0176745 0)
(-0.000370172 -0.0216437 0)
(-0.00109813 -0.0211637 0)
(-0.00214649 -0.021545 0)
(-0.0027227 -0.0233644 0)
(-0.00232011 -0.019443 0)
(-0.000967812 -0.0174119 0)
(-0.00243835 -0.0195269 0)
(-4.78577e-05 -0.0185875 0)
(0.000263757 -0.017833 0)
(0.000691908 -0.0170781 0)
(0.00270803 -0.0141414 0)
(0.00102898 -0.0117122 0)
(0.00225677 -0.0103908 0)
(0.00250555 -0.00981663 0)
(0.00270186 -0.0112826 0)
(0.00448712 -0.0143009 0)
(0.00648962 -0.016213 0)
(0.00192557 -0.0190733 0)
(0.00168609 -0.0166441 0)
(0.000630743 -0.0164251 0)
(-0.000966501 -0.0183609 0)
(-0.000249896 -0.0162815 0)
(-0.000480389 -0.0148876 0)
(-0.00377201 -0.0128953 0)
(-0.000313506 -0.0149004 0)
(0.0025908 -0.0131083 0)
(0.00227372 -0.010694 0)
(-0.00236488 -0.0128921 0)
(-0.00535584 -0.0124226 0)
(-0.00184474 -0.0126834 0)
(0.000772208 -0.0199371 0)
(0.00137036 -0.0233789 0)
(0.00134156 -0.0206291 0)
(0.000660286 -0.0162682 0)
(-0.000683244 -0.0157197 0)
(-0.00103617 -0.0169484 0)
(-0.000257166 -0.0177958 0)
(0.00175998 -0.01686 0)
(0.00034135 -0.0164692 0)
(0.00178382 -0.0173325 0)
(0.00291627 -0.0177853 0)
(0.00178915 -0.0191935 0)
(-0.000957911 -0.0187425 0)
(-0.00285741 -0.0171267 0)
(-0.00342532 -0.0176211 0)
(-0.00289325 -0.0177418 0)
(-0.0018528 -0.0175371 0)
(-0.000916884 -0.017645 0)
(-0.000674541 -0.018836 0)
(0.000381235 -0.0200531 0)
(0.000107592 -0.0158098 0)
(4.59545e-05 -0.0157257 0)
(-0.00180566 -0.0155779 0)
(-0.00563749 -0.00971666 0)
(-0.00441181 -0.010296 0)
(3.76967e-06 -0.0131672 0)
(0.00143056 -0.0139577 0)
(0.00053614 -0.0134867 0)
(0.00200763 -0.0144227 0)
(0.0042055 -0.0159431 0)
(0.00442981 -0.0166356 0)
(0.00224236 -0.0186905 0)
(0.00116969 -0.0189021 0)
(0.000900247 -0.0184408 0)
(0.0008279 -0.0179157 0)
(0.00032606 -0.0184238 0)
(0.000273818 -0.0210777 0)
(-4.33213e-05 -0.0180494 0)
(-0.00067405 -0.0199227 0)
(-0.00042303 -0.0188267 0)
(0.00478896 -0.0180801 0)
(0.0027616 -0.0168801 0)
(0.00283527 -0.0166493 0)
(0.00101762 -0.0133427 0)
(-0.000217597 -0.014677 0)
(0.000912203 -0.021442 0)
(-0.000293678 -0.0218351 0)
(-0.00179814 -0.0224206 0)
(-0.00418059 -0.0225145 0)
(0.000605561 -0.0225181 0)
(-0.00356951 -0.0224773 0)
(-0.00233673 -0.023002 0)
(-0.000117502 -0.0236206 0)
(0.00016303 -0.0230786 0)
(-0.00139354 -0.0224253 0)
(-0.00142404 -0.0223113 0)
(-0.0016901 -0.0212987 0)
(0.000327757 -0.0202166 0)
(0.00220392 -0.0198702 0)
(0.00543581 -0.0203275 0)
(0.00748894 -0.0197368 0)
(0.00659579 -0.019727 0)
(0.00516021 -0.0181908 0)
(0.00231847 -0.0154672 0)
(-0.00287765 -0.0150907 0)
(-0.00313404 -0.0124862 0)
(-0.00173377 -0.0114437 0)
(-0.00233718 -0.0128696 0)
(-0.00257927 -0.0110127 0)
(0.00289311 -0.00842518 0)
(0.00561702 -0.0102016 0)
(0.000369598 -0.0100052 0)
(-0.0044761 -0.00940262 0)
(-0.00145464 -0.0137569 0)
(0.000600681 -0.0170678 0)
(-0.00140636 -0.0201684 0)
(-0.00169651 -0.0205922 0)
(-0.000747959 -0.0172237 0)
(-0.00171841 -0.0153045 0)
(-0.00261234 -0.0166023 0)
(-0.00046374 -0.0174327 0)
(-0.000588543 -0.0184332 0)
(0.00129325 -0.0193604 0)
(0.00140555 -0.020149 0)
(0.00224884 -0.0200638 0)
(0.00231096 -0.0193759 0)
(0.00154736 -0.0174608 0)
(-0.00132284 -0.014052 0)
(-0.0025853 -0.0128862 0)
(-0.00191996 -0.0143191 0)
(-0.00139548 -0.0165929 0)
(-0.000636374 -0.0185453 0)
(-0.000199372 -0.02 0)
(-0.00172459 -0.0175205 0)
(0.00146079 -0.0155349 0)
(0.00124151 -0.0152651 0)
(-0.00348036 -0.0160381 0)
(-0.00181524 -0.0196595 0)
(-0.00309811 -0.0177149 0)
(-0.00358772 -0.0149933 0)
(-0.00237044 -0.0180822 0)
(-0.00126849 -0.0193711 0)
(-0.000263873 -0.0182602 0)
(0.0025179 -0.0182692 0)
(0.00443173 -0.0181897 0)
(0.00479194 -0.0177635 0)
(0.00329316 -0.0177052 0)
(0.00165077 -0.0179112 0)
(0.00127393 -0.0176817 0)
(0.00115664 -0.0173111 0)
(0.000570082 -0.0180679 0)
(0.000410957 -0.0207423 0)
(-0.000120274 -0.0179529 0)
(0.000736705 -0.0222932 0)
(0.00224747 -0.019686 0)
(0.000818698 -0.0193316 0)
(0.00104126 -0.0209428 0)
(0.00121024 -0.0193276 0)
(0.00237972 -0.0171854 0)
(-0.000826154 -0.0168582 0)
(6.79268e-05 -0.0180291 0)
(-0.000132693 -0.0169434 0)
(-0.00135018 -0.0181465 0)
(-0.00145188 -0.0150094 0)
(-0.00150893 -0.0155869 0)
(-0.0025711 -0.0211727 0)
(-0.00125901 -0.0200549 0)
(0.000962716 -0.0177455 0)
(0.00158594 -0.0168562 0)
(-0.000158355 -0.0175412 0)
(-0.000491183 -0.0195952 0)
(5.90742e-05 -0.0221453 0)
(0.000700576 -0.0233771 0)
(0.00216256 -0.0227028 0)
(0.00458919 -0.0209304 0)
(0.0035155 -0.0195752 0)
(0.0035211 -0.014158 0)
(0.00232001 -0.0116841 0)
(-0.00111385 -0.00979784 0)
(-0.0014684 -0.0101224 0)
(-0.00324292 -0.0105108 0)
(-0.00454474 -0.0115593 0)
(-0.00304849 -0.0153582 0)
(-0.00278723 -0.0133747 0)
(0.00191455 -0.0114189 0)
(0.00304438 -0.0119607 0)
(0.00327564 -0.0115964 0)
(0.00141381 -0.0106385 0)
(0.00207117 -0.0103353 0)
(0.00150194 -0.0141054 0)
(0.000190536 -0.0165558 0)
(-0.000463241 -0.0113601 0)
(-0.000427406 -0.00923986 0)
(-0.00404662 -0.0138522 0)
(-0.00298967 -0.0155779 0)
(0.000569966 -0.0166148 0)
(0.00191076 -0.0179396 0)
(0.00294344 -0.0186717 0)
(0.00268095 -0.0201608 0)
(0.00177805 -0.019398 0)
(5.06308e-05 -0.0187814 0)
(-0.00215301 -0.016742 0)