/*--------------------------------*- C++ -*----------------------------------*\
  =========                 |
  \\      /  F ield         | OpenFOAM: The Open Source CFD Toolbox
   \\    /   O peration     | Website:  https://openfoam.org
    \\  /    A nd           | Version:  12
     \\/     M anipulation  |
\*---------------------------------------------------------------------------*/
FoamFile
{
    format      ascii;
    class       volVectorField;
    location    "0.25";
    object      U.water;
}
// * * * * * * * * * * * * * * * * * * * * * * * * * * * * * * * * * * * * * //

dimensions      [0 1 -1 0 0 0 0];

internalField   nonuniform List<vector> 
3750
(
(-4.19724e-07 0.0100091 0)
(0.00152428 0.00925024 0)
(0.00220664 0.00807696 0)
(0.00238478 0.00582562 0)
(0.00120716 0.00977863 0)
(-0.00343916 0.0131477 0)
(-0.00348638 0.00820512 0)
(0.000556317 0.00713066 0)
(7.21418e-05 0.00830028 0)
(0.000416255 0.00691589 0)
(0.00271657 0.0126839 0)
(0.000270612 0.0171694 0)
(-0.00204541 0.0135123 0)
(-0.00108089 0.0113942 0)
(0.000347368 0.0123144 0)
(-0.000568168 0.0126965 0)
(0.000939961 0.0143883 0)
(-0.000399255 0.0130935 0)
(0.00106853 0.00947326 0)
(0.000529217 0.00647945 0)
(0.00125019 0.00559403 0)
(2.32809e-05 0.00607328 0)
(0.00103386 0.00609322 0)
(9.31914e-05 0.00546215 0)
(-0.00142948 0.0049403 0)
(-0.000232278 0.00493681 0)
(-0.00161176 0.00687731 0)
(0.00209742 0.00658639 0)
(0.00134088 0.00491526 0)
(0.000582205 0.00341821 0)
(0.000296035 0.00363923 0)
(-0.000917483 0.00374741 0)
(-0.000591919 0.00414217 0)
(0.000263456 0.00416511 0)
(-0.00100139 0.00459984 0)
(-0.000211056 0.00513266 0)
(0.000328081 0.0049824 0)
(0.000957587 0.00384572 0)
(0.0015575 0.00116427 0)
(0.0022829 0.00392168 0)
(-0.000334142 0.00410907 0)
(0.000222113 -5.23241e-05 0)
(-0.000934657 0.000798504 0)
(-0.000695501 0.00345829 0)
(-0.0027052 0.00618047 0)
(-0.00106138 0.00736571 0)
(-0.000920783 0.00610231 0)
(-0.00119722 0.00545693 0)
(-0.000642842 0.0054313 0)
(0.0016129 0.00472183 0)
(0.00258663 0.00911833 0)
(-0.00033239 0.00819033 0)
(0.000651138 0.00739837 0)
(-0.00198154 0.00854856 0)
(-0.00104911 0.00365909 0)
(-0.000759636 0.00405115 0)
(0.000734805 0.0102702 0)
(0.00180772 0.0150533 0)
(-0.000811258 0.00796617 0)
(0.00157123 0.00235402 0)
(0.00110664 0.00202274 0)
(0.000347042 0.00308639 0)
(-0.000403962 0.0033231 0)
(0.000964651 0.00560825 0)
(0.000641769 0.00640931 0)
(0.00129992 0.00456557 0)
(0.00107598 0.00330325 0)
(0.00012258 0.00235366 0)
(-0.00108006 0.00315252 0)
(-0.00192851 0.00536349 0)
(-0.00223034 0.00786436 0)
(-0.000494469 0.00803767 0)
(0.00162342 0.00510513 0)
(0.00454905 -0.00300926 0)
(0.00299574 -0.0088408 0)
(0.00177273 -0.00671616 0)
(0.00257223 -0.00668951 0)
(0.00159216 -0.00557974 0)
(-3.14559e-05 -0.00690859 0)
(0.000407537 -0.00583826 0)
(-0.00371174 -0.00312162 0)
(-0.000196615 -0.0037598 0)
(0.00173901 -0.00845674 0)
(0.000682229 -0.0122735 0)
(0.00149463 -0.0104158 0)
(0.00190279 -0.00624905 0)
(-0.00266529 -0.0038506 0)
(-0.00698681 -0.00233279 0)
(-0.000861751 -0.00179685 0)
(-8.29109e-05 -0.00343049 0)
(-0.00117237 -0.00287546 0)
(0.000876206 -0.000795893 0)
(0.00216573 -0.00231461 0)
(0.00209166 -0.00524437 0)
(0.00159109 -0.00789641 0)
(0.00137671 -0.00849603 0)
(0.000232032 -0.00658021 0)
(-0.000840279 -0.00516397 0)
(-0.000291425 -0.00836154 0)
(0.000540388 -0.00972045 0)
(0.00126513 -0.0116167 0)
(0.000205836 -0.00731046 0)
(0.00205034 -0.00445979 0)
(0.000250279 -0.00840031 0)
(0.000438358 -0.00913967 0)
(-6.64347e-05 -0.0108658 0)
(-0.00116707 -0.0115398 0)
(-0.000624183 -0.00975362 0)
(-0.000427162 -0.00958824 0)
(3.43032e-05 -0.0099133 0)
(0.000759216 -0.00967405 0)
(0.0022343 -0.0108846 0)
(0.00224772 -0.0106508 0)
(0.00305635 -0.00968232 0)
(0.00229845 -0.0076821 0)
(-0.00238573 -0.00685401 0)
(-0.00243226 -0.00960057 0)
(-0.00227045 -0.00829072 0)
(-0.00432106 -0.00674279 0)
(-0.00130584 -0.00424778 0)
(0.00180229 -0.0047478 0)
(0.000708738 -0.0110445 0)
(0.000914781 -0.0157213 0)
(0.00175926 -0.0156015 0)
(0.00209707 -0.0142338 0)
(0.00184845 -0.0138135 0)
(-0.00260138 -0.0126449 0)
(0.00110687 -0.0105074 0)
(-0.00160689 -0.00928974 0)
(0.00042022 -0.0131436 0)
(0.000480628 -0.0139256 0)
(0.00333074 -0.00887439 0)
(0.000554758 -0.0105396 0)
(-0.00232515 -0.0170387 0)
(-0.00062198 -0.0168381 0)
(-0.00231355 -0.0171736 0)
(-0.00260239 -0.0173943 0)
(-0.00226729 -0.0173335 0)
(-0.00106209 -0.017301 0)
(-0.000723702 -0.0160924 0)
(0.00088621 -0.0150326 0)
(0.00125642 -0.0140245 0)
(0.000372915 -0.0124776 0)
(-0.00145602 -0.0115649 0)
(-0.00167539 -0.0108056 0)
(-0.000627884 -0.0107294 0)
(0.00378241 -0.0096043 0)
(0.00758767 -0.0105434 0)
(0.0087808 -0.0137385 0)
(0.00312951 -0.0131441 0)
(-0.000279118 -0.0118374 0)
(0.000136944 -0.010535 0)
(0.00148326 -0.0105293 0)
(0.00113923 -0.0120704 0)
(0.00133471 -0.0142863 0)
(0.00153064 -0.0112352 0)
(0.00154029 -0.0117057 0)
(-0.00155012 -0.0154057 0)
(-0.00290636 -0.0150697 0)
(0.000424219 -0.0141321 0)
(-0.000998863 -0.0143286 0)
(-0.00296652 -0.0157365 0)
(-0.00488887 -0.0118365 0)
(-0.000607109 -0.0131884 0)
(-0.00180914 -0.0205805 0)
(0.000525325 -0.0167662 0)
(0.00245588 -0.00949608 0)
(0.00317138 -0.0112221 0)
(0.0012222 -0.0141507 0)
(0.000579982 -0.0149864 0)
(0.00115587 -0.0146418 0)
(0.00232448 -0.0156743 0)
(-0.000667653 -0.016182 0)
(-0.000467891 -0.0162029 0)
(0.00124217 -0.0174434 0)
(0.00181985 -0.0170763 0)
(0.00320522 -0.0115031 0)
(-0.00227035 -0.00914678 0)
(-6.65947e-05 -0.0106404 0)
(0.00240723 -0.0116419 0)
(0.00159904 -0.0136385 0)
(0.000746718 -0.0144922 0)
(-0.00121002 -0.0148778 0)
(-0.00240816 -0.0148972 0)
(-5.63773e-06 -0.0148146 0)
(-0.000759936 -0.0134493 0)
(-0.00112854 -0.012174 0)
(0.00213988 -0.0121721 0)
(0.00195565 -0.0130932 0)
(0.00126489 -0.0133084 0)
(-0.00110327 -0.0121855 0)
(-0.00169307 -0.0134811 0)
(-0.000360292 -0.0158486 0)
(-0.000804342 -0.0139023 0)
(0.00246002 -0.0116316 0)
(0.000887374 -0.016116 0)
(-0.000253614 -0.0209108 0)
(0.000817571 -0.0211693 0)
(0.00189002 -0.0207674 0)
(0.00217174 -0.0212482 0)
(0.00124736 -0.0201547 0)
(6.88384e-05 -0.015838 0)
(-0.000706864 -0.0128774 0)
(-0.00262038 -0.0128667 0)
(-0.00137628 -0.0158492 0)
(0.000790979 -0.0172104 0)
(0.00368297 -0.0152203 0)
(-0.000156456 -0.0159555 0)
(0.000625894 -0.0167545 0)
(0.0012156 -0.0193542 0)
(0.00176892 -0.0215913 0)
(0.00076645 -0.0235098 0)
(-0.000207318 -0.0253379 0)
(-0.000690233 -0.0263305 0)
(-0.000850241 -0.0260896 0)
(-0.000744055 -0.0245395 0)
(-0.00128269 -0.0228277 0)
(-0.00251399 -0.0216688 0)
(-0.00317209 -0.0215626 0)
(-0.00346547 -0.0216013 0)
(-0.00238693 -0.0219262 0)
(0.00243862 -0.0209299 0)
(0.00621064 -0.0198826 0)
(0.00732039 -0.0199558 0)
(0.00264924 -0.0147202 0)
(-0.000557746 -0.0169045 0)
(-0.000977341 -0.0135553 0)
(0.000225285 -0.0108465 0)
(0.00335775 -0.0148071 0)
(0.00274897 -0.0150462 0)
(0.00315661 -0.0149242 0)
(-0.000468296 -0.016942 0)
(-0.000542299 -0.0183132 0)
(-0.000162782 -0.0148595 0)
(-0.00138561 -0.0147062 0)
(-1.65586e-05 -0.0207941 0)
(-7.70633e-05 -0.0236287 0)
(0.000666779 -0.0184887 0)
(-0.00285255 -0.0196937 0)
(-0.00180717 -0.0248974 0)
(-0.000490443 -0.0228416 0)
(-0.000835286 -0.0187596 0)
(-0.00280303 -0.0176492 0)
(0.00166122 -0.0193406 0)
(0.00185143 -0.020232 0)
(0.0019377 -0.0198319 0)
(0.000831477 -0.0208193 0)
(0.000679326 -0.0214584 0)
(0.000397223 -0.0202203 0)
(0.000659001 -0.019926 0)
(0.00128883 -0.0196281 0)
(0.00262042 -0.0193837 0)
(-0.00227211 -0.0157088 0)
(-0.00221094 -0.0113919 0)
(0.0011714 -0.0133762 0)
(0.00117636 -0.0163895 0)
(-0.00114438 -0.0143993 0)
(-0.000617074 -0.0132357 0)
(-0.00150602 -0.0137603 0)
(-0.000214158 -0.0143692 0)
(0.000603826 -0.0160551 0)
(0.00154239 -0.0126327 0)
(0.0018753 -0.0122166 0)
(0.00129362 -0.0148039 0)
(-0.000429024 -0.0163887 0)
(-8.24123e-05 -0.0175869 0)
(-0.000171274 -0.0170549 0)
(0.00268725 -0.0177484 0)
(0.0034024 -0.0185144 0)
(0.000774637 -0.0169435 0)
(-0.00114041 -0.0179054 0)
(0.000896089 -0.0193549 0)
(0.00234482 -0.0192958 0)
(0.00194473 -0.0187552 0)
(0.000947945 -0.0183134 0)
(0.000281192 -0.0182267 0)
(0.00201759 -0.0165877 0)
(-0.000154419 -0.0150925 0)
(-0.00101235 -0.0149389 0)
(-0.00261312 -0.016812 0)
(-0.00059459 -0.0173442 0)
(-0.00042363 -0.0160834 0)
(0.000498974 -0.01686 0)
(0.000378217 -0.0167097 0)
(0.0013932 -0.0176369 0)
(0.00155447 -0.0184216 0)
(0.00212365 -0.0199212 0)
(0.000243658 -0.021148 0)
(-0.00118792 -0.0216869 0)
(-0.00221757 -0.0213087 0)
(-0.00215219 -0.0210328 0)
(-0.00161129 -0.0209362 0)
(-0.00110912 -0.0218473 0)
(-0.0014343 -0.0230353 0)
(-0.00180388 -0.0231636 0)
(-0.00110885 -0.0233137 0)
(0.00160541 -0.0222214 0)
(0.00321067 -0.020822 0)
(0.00386163 -0.0208794 0)
(0.00110279 -0.0159034 0)
(-0.000478663 -0.0235805 0)
(-0.000874855 -0.0229115 0)
(0.000379429 -0.0169185 0)
(0.00397115 -0.0186171 0)
(0.00365131 -0.0232211 0)
(0.00250926 -0.0212987 0)
(-0.000445217 -0.0201628 0)
(0.00108788 -0.0199615 0)
(0.00305872 -0.0208656 0)
(-0.00172719 -0.0198576 0)
(-0.00120084 -0.0221474 0)
(0.000596974 -0.0271075 0)
(0.00131708 -0.0258346 0)
(-0.00433738 -0.0252413 0)
(-0.00424398 -0.0261432 0)
(-0.0034408 -0.0256669 0)
(0.00087767 -0.0252455 0)
(0.00054736 -0.0219726 0)
(0.00154359 -0.021602 0)
(0.00247066 -0.0236885 0)
(0.00174088 -0.021386 0)
(-0.000824362 -0.0199017 0)
(0.00184768 -0.0182791 0)
(0.00075844 -0.0187297 0)
(0.000508706 -0.0184646 0)
(0.00111195 -0.0167502 0)
(0.0010839 -0.0173299 0)
(0.000688686 -0.0159328 0)
(0.000193218 -0.00959586 0)
(-0.00251691 -0.00982919 0)
(-0.00252439 -0.0152391 0)
(-0.00348057 -0.0124614 0)
(-0.000695193 -0.0123423 0)
(-0.000399498 -0.0162966 0)
(0.000806347 -0.0172269 0)
(0.00108226 -0.0154393 0)
(0.00227683 -0.014088 0)
(0.000713058 -0.0136614 0)
(0.000799817 -0.0150925 0)
(0.000701935 -0.0166615 0)
(0.00160912 -0.0173535 0)
(0.000575462 -0.0139472 0)
(0.00116409 -0.0138027 0)
(0.00105772 -0.01629 0)
(0.000563075 -0.014185 0)
(-0.00039778 -0.0141272 0)
(-0.000157529 -0.0134512 0)
(0.000639144 -0.0123486 0)
(0.00090212 -0.0123929 0)
(0.00115809 -0.0143917 0)
(0.000504297 -0.0131556 0)
(0.00151309 -0.0124104 0)
(-0.000727723 -0.0135598 0)
(-0.000950001 -0.0144804 0)
(-0.000504834 -0.0166808 0)
(-0.000464352 -0.0164902 0)
(-0.00100215 -0.0165143 0)
(-0.000687606 -0.0160573 0)
(0.00171728 -0.0154376 0)
(0.00373209 -0.0166191 0)
(0.00332702 -0.0169719 0)
(0.00253608 -0.0179487 0)
(0.00143801 -0.0197838 0)
(0.000263475 -0.0204402 0)
(-0.00153123 -0.0214686 0)
(-0.00137087 -0.0236418 0)
(-0.000506151 -0.0251007 0)
(-0.000651949 -0.0253816 0)
(-0.00224228 -0.0244457 0)
(-0.00321656 -0.0232975 0)
(-0.00203722 -0.0219732 0)
(0.00057921 -0.0207665 0)
(0.00139265 -0.019996 0)
(0.00181598 -0.0207097 0)
(0.000492243 -0.0168409 0)
(-0.000614085 -0.0260184 0)
(-0.000207754 -0.0212916 0)
(0.00300109 -0.0147761 0)
(0.000877859 -0.0190108 0)
(0.000596048 -0.0232927 0)
(0.0019174 -0.0234716 0)
(0.00195822 -0.0196948 0)
(0.00272428 -0.0159577 0)
(0.00237243 -0.0191537 0)
(0.000651534 -0.0209002 0)
(-0.00119 -0.0213226 0)
(0.000718834 -0.0226086 0)
(0.000726454 -0.0231558 0)
(-0.00140282 -0.0231877 0)
(-0.00229371 -0.0237346 0)
(-0.00251283 -0.0203861 0)
(-0.00207782 -0.0211603 0)
(0.000530096 -0.0224379 0)
(-0.00253741 -0.019393 0)
(0.000864683 -0.0182266 0)
(-0.00117503 -0.0189903 0)
(-0.000408601 -0.0151365 0)
(0.000375537 -0.0132641 0)
(-0.000714721 -0.0154125 0)
(-0.00226698 -0.0133504 0)
(0.000634361 -0.0132541 0)
(0.00127004 -0.0150167 0)
(-0.000333956 -0.0121829 0)
(-0.000765863 -0.0109891 0)
(-0.00301643 -0.0131663 0)
(-0.00160724 -0.0142099 0)
(0.000364635 -0.0116884 0)
(-0.000298964 -0.0127252 0)
(0.0011842 -0.0164937 0)
(0.000868053 -0.0170351 0)
(0.000799831 -0.018529 0)
(0.000775724 -0.0178852 0)
(0.00246489 -0.0167584 0)
(0.00199209 -0.0170541 0)
(0.000422358 -0.017127 0)
(0.00312898 -0.0172291 0)
(0.000927471 -0.0157421 0)
(0.000248475 -0.0154351 0)
(-0.000330149 -0.0169222 0)
(-0.00115131 -0.0157267 0)
(-0.000903266 -0.0154635 0)
(6.01019e-05 -0.0161073 0)
(0.0011611 -0.016337 0)
(0.0013924 -0.0156996 0)
(0.00212989 -0.0161602 0)
(0.00209708 -0.0141026 0)
(0.00096805 -0.0133218 0)
(-0.000522887 -0.0164402 0)
(-0.00201816 -0.0149389 0)
(0.00135436 -0.0156955 0)
(-0.000634733 -0.017297 0)
(-0.00168438 -0.0188988 0)
(-0.00101863 -0.0197012 0)
(0.00134198 -0.0185244 0)
(0.0043047 -0.0182379 0)
(0.00516596 -0.0172548 0)
(0.00219433 -0.0169637 0)
(0.000944375 -0.0170426 0)
(0.000833819 -0.0174112 0)
(0.000668073 -0.0186873 0)
(0.00120843 -0.0214247 0)
(0.000651887 -0.023264 0)
(-0.00174745 -0.0232806 0)
(-0.00443426 -0.0214657 0)
(-0.00460866 -0.0208299 0)
(-0.00271904 -0.0202336 0)
(-0.000351553 -0.0194879 0)
(0.000306804 -0.0190515 0)
(0.000691987 -0.0206452 0)
(0.000287262 -0.0173643 0)
(-0.00100555 -0.0224652 0)
(0.00247334 -0.0157901 0)
(0.00285322 -0.0105117 0)
(-0.001352 -0.0180276 0)
(-0.00166018 -0.0213052 0)
(0.0033619 -0.0192838 0)
(0.00411298 -0.0176861 0)
(0.00156491 -0.0161033 0)
(-0.00117338 -0.0174365 0)
(-0.000856263 -0.0169731 0)
(-0.000631054 -0.014609 0)
(-0.0010036 -0.0152618 0)
(0.000667057 -0.0153077 0)
(-0.00127172 -0.0156985 0)
(-0.00155738 -0.0163369 0)
(-0.000934246 -0.0161082 0)
(-0.00314562 -0.0149312 0)
(-0.000243685 -0.0152253 0)
(-0.000528285 -0.0125566 0)
(-0.00074776 -0.0136115 0)
(-0.00191638 -0.0172676 0)
(-7.28802e-05 -0.0147656 0)
(-0.00196077 -0.0136749 0)
(-0.00127593 -0.0153639 0)
(0.000264427 -0.0127777 0)
(0.000565544 -0.0107789 0)
(0.0042441 -0.0145027 0)
(0.00169014 -0.0168704 0)
(-0.00489886 -0.0179001 0)
(-0.00169826 -0.019818 0)
(-0.00109989 -0.0198131 0)
(0.000679977 -0.0164869 0)
(-0.00176832 -0.0163007 0)
(0.00108139 -0.0170127 0)
(0.000493802 -0.0181916 0)
(0.00195744 -0.019263 0)
(0.00088292 -0.0178584 0)
(0.00314379 -0.0165492 0)
(0.00189103 -0.0185962 0)
(-0.000521779 -0.0142614 0)
(0.00200646 -0.0141252 0)
(0.00103863 -0.0159401 0)
(-0.000346845 -0.0159605 0)
(-0.000543627 -0.0199248 0)
(-0.000914588 -0.0199571 0)
(0.000220678 -0.0198815 0)
(0.00040882 -0.0201623 0)
(0.000199368 -0.0205596 0)
(0.000641764 -0.0187199 0)
(0.00103025 -0.0174062 0)
(0.00196407 -0.0157124 0)
(0.000272748 -0.0167637 0)
(0.000468774 -0.0202083 0)
(6.64387e-05 -0.0159484 0)
(0.000590885 -0.0143504 0)
(-0.000925988 -0.0170982 0)
(0.000208295 -0.0179741 0)
(0.00093055 -0.0204502 0)
(-0.000622929 -0.0211729 0)
(0.00157537 -0.0195602 0)
(0.00427968 -0.0187764 0)
(0.00398682 -0.0172507 0)
(0.00204097 -0.0159151 0)
(0.00212887 -0.0166275 0)
(0.00268487 -0.0179676 0)
(0.00280974 -0.0185391 0)
(0.00160217 -0.0183575 0)
(-0.00206782 -0.0170594 0)
(-0.00432015 -0.0164308 0)
(-0.00440818 -0.0172134 0)
(-0.00270684 -0.0185831 0)
(-0.000960958 -0.0183402 0)
(-0.000250763 -0.0186325 0)
(-8.71982e-05 -0.0208612 0)
(0.000200013 -0.0177385 0)
(0.000229144 -0.0201287 0)
(0.00280472 -0.0177117 0)
(0.00172585 -0.0177419 0)
(-0.00151382 -0.0231876 0)
(-0.000637152 -0.020139 0)
(0.00051197 -0.0186803 0)
(0.00179388 -0.0213201 0)
(0.000868479 -0.0190356 0)
(0.00103489 -0.0183104 0)
(0.000613978 -0.0170642 0)
(-0.00257013 -0.0156581 0)
(-0.000251758 -0.0131643 0)
(0.000237282 -0.0138908 0)
(-0.00126462 -0.0162352 0)
(-0.00128696 -0.0155052 0)
(-0.000675926 -0.0174636 0)
(-0.00114838 -0.0176083 0)
(-0.0014359 -0.0178125 0)
(-0.000862198 -0.0176752 0)
(-0.00323506 -0.0178301 0)
(-0.00143985 -0.0188314 0)
(-0.00105046 -0.0181852 0)
(-0.000601613 -0.0179218 0)
(0.000377232 -0.0169005 0)
(0.00202143 -0.0179639 0)
(-0.000881824 -0.0158768 0)
(0.000821619 -0.0169767 0)
(0.00301579 -0.0218182 0)
(0.000276784 -0.0203138 0)
(-0.00214584 -0.0219141 0)
(-0.00289796 -0.0261279 0)
(-0.00215804 -0.0252944 0)
(-0.00258809 -0.0244451 0)
(0.00235368 -0.0236762 0)
(0.00185296 -0.0236773 0)
(0.00100262 -0.0238193 0)
(0.000298265 -0.018865 0)
(-0.000294507 -0.016278 0)
(0.00414526 -0.0193104 0)
(0.00296104 -0.0143625 0)
(0.00110913 -0.0147372 0)
(0.00268923 -0.0192407 0)
(-0.000981009 -0.0193397 0)
(-0.00130933 -0.0210827 0)
(-0.000924145 -0.02023 0)
(-0.00107951 -0.0200666 0)
(-0.000478013 -0.0211238 0)
(-2.29995e-06 -0.0213024 0)
(0.000871976 -0.0203327 0)
(0.000360405 -0.0188361 0)
(0.00157104 -0.0183295 0)
(0.000733147 -0.0178181 0)
(0.000964644 -0.0180175 0)
(0.00234603 -0.0155807 0)
(0.000163893 -0.0160106 0)
(0.000776067 -0.0143557 0)
(0.000905886 -0.011905 0)
(5.21678e-05 -0.0175132 0)
(-0.000438566 -0.0223059 0)
(7.2305e-05 -0.0223098 0)
(0.00208929 -0.0210798 0)
(0.00201108 -0.0195567 0)
(0.000261912 -0.016969 0)
(0.00320614 -0.0156447 0)
(0.00215674 -0.0165301 0)
(0.00113243 -0.0162745 0)
(-0.000820185 -0.015031 0)
(-0.00294435 -0.0141694 0)
(-0.00361085 -0.0147323 0)
(-0.00260877 -0.0167121 0)
(-0.000922695 -0.0177407 0)
(-0.000309461 -0.0174197 0)
(7.65466e-07 -0.0181894 0)
(7.92269e-05 -0.0206344 0)
(0.000176879 -0.0178438 0)
(0.00125705 -0.0153541 0)
(-0.00144803 -0.0154328 0)
(-0.00157357 -0.0172595 0)
(-0.000187255 -0.019539 0)
(0.00173129 -0.0185789 0)
(-0.00112966 -0.0191679 0)
(0.000605798 -0.0207585 0)
(0.00013972 -0.0193822 0)
(-0.00142118 -0.0179761 0)
(-0.000378649 -0.018891 0)
(-0.000973044 -0.0138245 0)
(-0.00130439 -0.00966612 0)
(-0.00217635 -0.0134018 0)
(-0.00288997 -0.0159823 0)
(-0.002335 -0.0162126 0)
(-0.000973133 -0.0170021 0)
(0.000983389 -0.0173164 0)
(0.000831896 -0.0186023 0)
(-0.000647915 -0.0197613 0)
(-0.00132723 -0.0208913 0)
(-0.000651846 -0.0215369 0)
(-0.00168395 -0.0205705 0)
(-0.000373868 -0.0206614 0)
(0.000588779 -0.0205002 0)
(0.00241639 -0.0225002 0)
(0.00359449 -0.022217 0)
(-0.00038798 -0.020483 0)
(0.00369868 -0.0222037 0)
(0.00305406 -0.0218308 0)
(-0.00145448 -0.0235711 0)
(-0.000362329 -0.027492 0)
(-0.000627634 -0.0297118 0)
(-0.000218646 -0.027318 0)
(6.66587e-05 -0.0275504 0)
(-0.000321738 -0.030686 0)
(-0.00122834 -0.0281719 0)
(0.00112144 -0.0260561 0)
(-0.00209291 -0.0186445 0)
(0.00420967 -0.0188902 0)
(0.00494141 -0.0186833 0)
(0.00132207 -0.0169387 0)
(-0.00150706 -0.0203969 0)
(-0.000684819 -0.0202325 0)
(-0.000743769 -0.0207136 0)
(-0.00124771 -0.0216042 0)
(-0.000169723 -0.0221362 0)
(0.00106932 -0.0240621 0)
(-0.000449369 -0.0260994 0)
(-0.000366412 -0.0260336 0)
(-0.00148321 -0.0233829 0)
(-0.00212758 -0.0205692 0)
(5.61049e-05 -0.0203784 0)
(-0.000269186 -0.0207691 0)
(0.000397678 -0.0189501 0)
(0.000401911 -0.0161072 0)
(0.00399412 -0.0146502 0)
(0.00164073 -0.0150905 0)
(0.000233584 -0.0174314 0)
(0.00139368 -0.019299 0)
(0.00172217 -0.0198634 0)
(0.00130205 -0.020113 0)
(0.000353473 -0.0202028 0)
(0.00151268 -0.0138954 0)
(0.00182166 -0.0126004 0)
(0.00273021 -0.0170938 0)
(0.0014791 -0.0171295 0)
(-0.000871766 -0.0171685 0)
(-0.00211722 -0.0172286 0)
(-0.00218547 -0.0175861 0)
(-0.00145699 -0.0185137 0)
(-0.00110762 -0.0185843 0)
(-0.000801111 -0.018047 0)
(-0.00032156 -0.018408 0)
(-0.000224936 -0.0210721 0)
(0.000144282 -0.017986 0)
(0.000456322 -0.011536 0)
(0.000689272 -0.0113783 0)
(-8.23592e-05 -0.0114799 0)
(0.000428203 -0.0156625 0)
(0.00143177 -0.0161635 0)
(0.00108116 -0.015458 0)
(0.000299308 -0.0149682 0)
(2.13637e-05 -0.0160715 0)
(-0.00196983 -0.0177937 0)
(-0.00117525 -0.018376 0)
(0.000395892 -0.0153279 0)
(-0.0015834 -0.0106025 0)
(-0.00238113 -0.012453 0)
(-0.00178044 -0.0179199 0)
(-0.00185767 -0.019666 0)
(3.74748e-05 -0.0208325 0)
(-0.00027462 -0.019785 0)
(0.0024865 -0.0201997 0)
(-0.000152064 -0.021955 0)
(-0.00242225 -0.021765 0)
(-2.29826e-05 -0.0239568 0)
(-0.000794783 -0.0240371 0)
(6.9961e-05 -0.0250618 0)
(0.0011031 -0.0276499 0)
(0.00153895 -0.0282454 0)
(0.00203426 -0.0295199 0)
(0.000822987 -0.0246151 0)
(0.000890669 -0.0229996 0)
(0.00132293 -0.0249204 0)
(0.000419148 -0.0244086 0)
(0.000668287 -0.0254454 0)
(0.00149387 -0.0263074 0)
(0.00333771 -0.025567 0)
(-0.00064467 -0.0271117 0)
(-0.00138048 -0.0275532 0)
(-0.00244089 -0.0246408 0)
(-0.00115078 -0.0225157 0)
(-0.000536454 -0.015301 0)
(0.00144706 -0.0147311 0)
(0.00320331 -0.0190675 0)
(-0.000262859 -0.0186292 0)
(-0.000495267 -0.0174397 0)
(-0.00231859 -0.0171472 0)
(7.19555e-05 -0.0218083 0)
(0.00226297 -0.0200939 0)
(0.00225199 -0.018258 0)
(-0.000128268 -0.0227065 0)
(-0.00319085 -0.0253079 0)
(5.95905e-05 -0.0250077 0)
(-0.000827969 -0.0245452 0)
(-0.0021407 -0.0187519 0)
(-0.00152815 -0.0179546 0)
(-0.0013375 -0.0210874 0)
(-0.000630679 -0.0207585 0)
(-0.000146562 -0.0192106 0)
(0.00259622 -0.0183168 0)
(0.00195368 -0.0171334 0)
(0.00233498 -0.0154959 0)
(0.00193625 -0.0150935 0)
(-0.000420462 -0.0135431 0)
(-0.000114558 -0.0140032 0)
(-0.0004965 -0.014641 0)
(0.00227731 -0.0117995 0)
(0.000545686 -0.00946488 0)
(0.00151966 -0.0104744 0)
(0.0012842 -0.0121577 0)
(-0.000999687 -0.0134007 0)
(-0.00250926 -0.0145339 0)
(-0.00274925 -0.0148096 0)
(-0.00136704 -0.0155542 0)
(-0.000620066 -0.0164244 0)
(-0.000444068 -0.0170173 0)
(0.000202489 -0.0178364 0)
(0.000126646 -0.0207136 0)
(3.72034e-05 -0.0179593 0)
(-0.000920217 -0.0143613 0)
(0.00113598 -0.0150394 0)
(-0.00153518 -0.0162197 0)
(-0.00107968 -0.0174839 0)
(-7.22777e-05 -0.0183545 0)
(0.000763256 -0.0186745 0)
(0.000770482 -0.0169131 0)
(0.00106162 -0.0150626 0)
(-0.000161639 -0.0169287 0)
(-0.0013031 -0.0177396 0)
(-0.00162576 -0.0151572 0)
(-0.00139501 -0.0132948 0)
(-0.00122938 -0.0127968 0)
(-0.000246946 -0.0118767 0)
(0.00231182 -0.0134142 0)
(0.000211625 -0.0157312 0)
(3.67801e-05 -0.0121948 0)
(0.000821224 -0.0126443 0)
(0.000493532 -0.0177518 0)
(-7.08419e-05 -0.0150054 0)
(-0.000210168 -0.0186695 0)
(-0.000491064 -0.0231369 0)
(0.00217282 -0.0233223 0)
(0.00292388 -0.0257809 0)
(0.00191847 -0.0276724 0)
(0.00213871 -0.0280107 0)
(0.00215833 -0.0258325 0)
(-0.00322588 -0.0234755 0)
(0.00013192 -0.0222053 0)
(0.00176472 -0.0226222 0)
(0.000742453 -0.0232624 0)
(-0.000165561 -0.0216287 0)
(0.00195839 -0.0210686 0)
(-0.00101383 -0.0240249 0)
(-0.00314304 -0.0242035 0)
(-0.00343815 -0.0221514 0)
(-0.0015516 -0.0213691 0)
(0.00149951 -0.0155476 0)
(0.00117406 -0.0143632 0)
(0.00292667 -0.0196904 0)
(0.00150642 -0.0189052 0)
(0.00186478 -0.0201534 0)
(-0.000301656 -0.0169342 0)
(0.000564241 -0.0134353 0)
(0.00233787 -0.0148804 0)
(0.000840775 -0.0161864 0)
(-0.00227239 -0.0169464 0)
(-0.001347 -0.0146727 0)
(-0.00234446 -0.0154615 0)
(-0.00277395 -0.0198656 0)
(-0.00290447 -0.0169212 0)
(-0.00140587 -0.0159804 0)
(-0.0016709 -0.0180199 0)
(-0.00114537 -0.0186375 0)
(0.000206064 -0.0174138 0)
(-0.00052346 -0.0172677 0)
(-0.000285009 -0.0170443 0)
(0.000639878 -0.014516 0)
(0.000140368 -0.0128096 0)
(0.000451586 -0.00855131 0)
(-0.00161135 -0.00949413 0)
(-0.00134531 -0.0127324 0)
(0.000379158 -0.0108417 0)
(0.00159852 -0.00988555 0)
(0.00291102 -0.00857566 0)
(0.00297453 -0.00821826 0)
(0.00236706 -0.00931972 0)
(-0.000201827 -0.0119082 0)
(-0.00116395 -0.0144888 0)
(0.000505639 -0.0164396 0)
(0.000976124 -0.0170019 0)
(0.000428645 -0.0179027 0)
(0.000102706 -0.0186176 0)
(0.000218877 -0.0211224 0)
(2.96717e-05 -0.0181777 0)
(0.00220839 -0.0182481 0)
(0.00144698 -0.0191562 0)
(-0.000628039 -0.0207678 0)
(0.000131854 -0.0223667 0)
(0.000226071 -0.0241569 0)
(0.00117564 -0.0229735 0)
(-0.000485891 -0.0204317 0)
(0.000535126 -0.0187244 0)
(0.000843976 -0.0174716 0)
(-0.00407432 -0.0168965 0)
(-0.00204602 -0.0183218 0)
(-0.00244833 -0.0198546 0)
(-0.000745261 -0.0190454 0)
(0.000397025 -0.012223 0)
(0.00149156 -0.0114694 0)
(0.000245381 -0.0160786 0)
(0.00127745 -0.014878 0)
(-0.00043355 -0.0141179 0)
(0.00252037 -0.0144109 0)
(0.0042205 -0.0145323 0)
(0.00102968 -0.017541 0)
(0.00133216 -0.0162133 0)
(0.000409895 -0.0173112 0)
(0.00199426 -0.0233123 0)
(0.00224716 -0.023104 0)
(0.00163035 -0.0234832 0)
(0.000979319 -0.0241831 0)
(-0.00145672 -0.019167 0)
(-0.000902423 -0.0146108 0)
(-0.000450948 -0.0170912 0)
(0.00156387 -0.019721 0)
(0.00213688 -0.0149856 0)
(0.000801648 -0.0143824 0)
(-0.00114922 -0.0196296 0)
(-0.00369938 -0.0198429 0)
(-0.00220484 -0.0187189 0)
(-0.00232584 -0.0194916 0)
(9.83613e-06 -0.019209 0)
(0.00151169 -0.0187306 0)
(0.0019168 -0.0207414 0)
(0.00089086 -0.0205089 0)
(0.000501179 -0.0196758 0)
(0.00200122 -0.0166593 0)
(-0.000134171 -0.0144076 0)
(-0.00125476 -0.0137457 0)
(-0.000841791 -0.0141436 0)
(-0.000736868 -0.0162206 0)
(0.00043018 -0.0157409 0)
(-0.00265074 -0.0179814 0)
(-0.00371694 -0.0208545 0)
(-0.00181246 -0.0158533 0)
(-0.000557942 -0.0160164 0)
(-0.00190995 -0.0199904 0)
(-0.000999165 -0.0185721 0)
(-5.94519e-05 -0.0180077 0)
(-0.000937703 -0.0180248 0)
(-0.000508236 -0.0173451 0)
(-0.000644917 -0.0187962 0)
(0.000511079 -0.0167675 0)
(0.000281743 -0.0124745 0)
(-0.00318546 -0.0113036 0)
(-0.00110304 -0.00976934 0)
(-0.000561307 -0.00994746 0)
(0.00128145 -0.0101211 0)
(0.000670781 -0.0110966 0)
(0.000685905 -0.0120169 0)
(0.00220303 -0.012451 0)
(0.00258322 -0.0139521 0)
(0.00165742 -0.0171184 0)
(0.00158437 -0.017594 0)
(0.00162059 -0.0175677 0)
(0.00119911 -0.0173053 0)
(0.000275531 -0.0182477 0)
(0.000276499 -0.020849 0)
(-3.15924e-05 -0.0180616 0)
(0.00274852 -0.0175173 0)
(0.00149442 -0.017297 0)
(0.000719504 -0.0184119 0)
(0.000861663 -0.0195538 0)
(-3.08811e-05 -0.0202896 0)
(0.00183954 -0.0218297 0)
(-8.26779e-05 -0.0190583 0)
(-0.00111941 -0.0144965 0)
(-0.00221927 -0.0198519 0)
(-0.00338737 -0.0203181 0)
(-0.00263901 -0.0197306 0)
(-0.00338611 -0.0230205 0)
(-0.00258401 -0.021771 0)
(6.08242e-05 -0.0176182 0)
(-0.00106387 -0.0154754 0)
(0.000374482 -0.0170478 0)
(0.000292668 -0.0166674 0)
(0.00014523 -0.0151328 0)
(0.00203344 -0.0129204 0)
(0.00329095 -0.0101614 0)
(0.00294089 -0.00960548 0)
(0.00452945 -0.0104131 0)
(0.00318118 -0.0135411 0)
(0.00391525 -0.0179527 0)
(0.00287515 -0.0204356 0)
(0.00211726 -0.0206803 0)
(0.000999682 -0.0197812 0)
(0.00129172 -0.0167747 0)
(-0.00296537 -0.0132441 0)
(-0.00366777 -0.0131848 0)
(-0.000676665 -0.012876 0)
(0.00162037 -0.0123582 0)
(-0.00260329 -0.0135447 0)
(-0.000731514 -0.0152524 0)
(-0.00135998 -0.0126992 0)
(-0.000697222 -0.0141849 0)
(-0.000915282 -0.0200555 0)
(0.00290733 -0.0174787 0)
(0.00281603 -0.0178615 0)
(0.0012063 -0.021596 0)
(-0.000231901 -0.0175045 0)
(-0.00249264 -0.0151794 0)
(0.00128822 -0.0150369 0)
(-7.32823e-05 -0.0162449 0)
(8.30887e-05 -0.0157517 0)
(-0.000807985 -0.0161163 0)
(0.000584231 -0.0172894 0)
(0.00146426 -0.0179634 0)
(-0.000839493 -0.0204809 0)
(-0.00031982 -0.017803 0)
(-0.000211198 -0.011951 0)
(-0.00462251 -0.0158223 0)
(-0.00352241 -0.0201415 0)
(-0.00251936 -0.0192382 0)
(-0.00204096 -0.0183011 0)
(-0.000693088 -0.019036 0)
(-0.000572082 -0.0195245 0)
(-0.000970442 -0.0183003 0)
(-0.000546158 -0.0169996 0)
(-0.00382434 -0.0149033 0)
(-0.000984945 -0.0113415 0)
(-0.000690387 -0.0102686 0)
(-0.00013119 -0.00992312 0)
(0.00162094 -0.0123809 0)
(0.00112265 -0.0153585 0)
(0.00250861 -0.0152527 0)
(0.00453761 -0.0164084 0)
(0.00461247 -0.0170277 0)
(0.00237327 -0.0189764 0)
(0.00130948 -0.0191241 0)
(0.00100849 -0.0186312 0)
(0.000897887 -0.0180985 0)
(0.000370745 -0.0186028 0)
(0.000298642 -0.0212476 0)
(-3.36857e-05 -0.0182167 0)
(0.00267197 -0.020866 0)
(0.00126296 -0.020427 0)
(0.000545344 -0.0208811 0)
(0.00153583 -0.0202767 0)
(0.00220064 -0.0163319 0)
(0.00305778 -0.0172352 0)
(0.00477455 -0.0194431 0)
(0.00182404 -0.0187833 0)
(-0.00234716 -0.0203653 0)
(-0.00274616 -0.020335 0)
(-0.00357588 -0.0215468 0)
(-0.00409871 -0.0248801 0)
(-0.00369153 -0.0239363 0)
(-0.00236394 -0.0214058 0)
(-5.07102e-05 -0.0211316 0)
(0.00180761 -0.0224979 0)
(-0.00172755 -0.0233813 0)
(-0.00332601 -0.0230339 0)
(-0.00189833 -0.021229 0)
(0.00131529 -0.0200035 0)
(0.00305743 -0.0197422 0)
(0.00615873 -0.0201341 0)
(0.00699533 -0.0198164 0)
(0.0059326 -0.0205145 0)
(0.00543936 -0.0195808 0)
(0.0020068 -0.0185862 0)
(-0.000734838 -0.0169907 0)
(-0.00130331 -0.0143056 0)
(-0.00244849 -0.0104314 0)
(-0.00251323 -0.00760134 0)
(-0.00229137 -0.00977479 0)
(0.00230307 -0.011004 0)
(0.00172218 -0.0103092 0)
(-0.00171849 -0.00884732 0)
(-0.000142242 -0.0110714 0)
(-0.00329278 -0.0175317 0)
(-0.00106182 -0.0196376 0)
(0.00468716 -0.017186 0)
(0.00215155 -0.0189482 0)
(-0.00116094 -0.0190274 0)
(-0.00193419 -0.017277 0)
(-0.00199862 -0.0143111 0)
(-0.000391736 -0.0145017 0)
(-0.00137387 -0.0190396 0)
(-0.000533213 -0.0188124 0)
(0.000520028 -0.0195879 0)
(0.0011566 -0.0201759 0)
(0.00104257 -0.0197365 0)
(-0.000388574 -0.0159387 0)
(0.00274548 -0.0115206 0)
(-0.0011765 -0.011514 0)
(-0.00415827 -0.0140328 0)
(-0.00251689 -0.0177583 0)
(-0.00139566 -0.0200099 0)
(-0.00269567 -0.0196197 0)
(0.000422307 -0.0183171 0)
(-0.00105457 -0.0172703 0)
(-0.0032301 -0.015514 0)
(-0.000997912 -0.0165174 0)
(-0.00129001 -0.0146647 0)
(0.000841399 -0.0158414 0)
(-0.000330269 -0.0205125 0)
(-0.000820125 -0.0185012 0)
(-0.00257665 -0.0173397 0)
(-0.000326054 -0.0184389 0)
(0.00278439 -0.0187606 0)
(0.00465069 -0.0186018 0)
(0.0049336 -0.0181289 0)
(0.00335048 -0.0180355 0)
(0.00174174 -0.0181929 0)
(0.00134834 -0.0179266 0)
(0.00120632 -0.0175381 0)
(0.000596247 -0.0182794 0)
(0.000422535 -0.0209405 0)
(-0.000112628 -0.0181443 0)
(0.00276997 -0.0235538 0)
(-0.00059255 -0.0248087 0)
(-0.00132032 -0.022454 0)
(0.00149189 -0.0208872 0)
(0.0024348 -0.0201419 0)
(0.000539854 -0.0193687 0)
(0.00249701 -0.0190962 0)
(0.00144633 -0.0179025 0)
(-0.00023551 -0.0175679 0)
(-0.00191615 -0.0144407 0)
(-0.00312703 -0.0152794 0)
(-0.00368146 -0.0201935 0)
(-0.00265476 -0.0212872 0)
(-0.000364694 -0.0175612 0)
(0.00202367 -0.0127379 0)
(0.00116896 -0.0165548 0)
(-0.000613958 -0.0209234 0)
(-0.00234319 -0.0209854 0)
(-0.00256313 -0.0208998 0)
(0.00227695 -0.0224168 0)
(0.0029351 -0.0228367 0)
(0.00497429 -0.0211508 0)
(0.00358506 -0.01977 0)
(0.00334493 -0.0147941 0)
(0.00209886 -0.0124951 0)
(-0.000163626 -0.0120406 0)
(-0.00101824 -0.011879 0)
(-0.00377593 -0.0121717 0)
(-0.000102184 -0.0109151 0)
(-0.00164976 -0.012874 0)
(-0.00232977 -0.0137094 0)
(-0.00109774 -0.0126736 0)
(0.00233843 -0.0133236 0)
(0.000707024 -0.00811354 0)
(-0.000511527 -0.0105449 0)
(0.000322917 -0.0178332 0)
(0.0034663 -0.0131323 0)
(0.00619174 -0.00817362 0)
(0.0027775 -0.0127069 0)
(-0.000818249 -0.0147088 0)
(-0.00325622 -0.0142931 0)
(-0.000180494 -0.0147522 0)
(-0.00103716 -0.0161184 0)
(-5.38898e-05 -0.0183536 0)
(0.00120467 -0.0177934 0)