/*--------------------------------*- C++ -*----------------------------------*\
  =========                 |
  \\      /  F ield         | OpenFOAM: The Open Source CFD Toolbox
   \\    /   O peration     | Website:  https://openfoam.org
    \\  /    A nd           | Version:  12
     \\/     M anipulation  |
\*---------------------------------------------------------------------------*/
FoamFile
{
    format      ascii;
    class       IOPosition;
    location    "0.45/lagrangian/cloud";
    object      positions;
}
// * * * * * * * * * * * * * * * * * * * * * * * * * * * * * * * * * * * * * //

2670
(
(0.426982 0.286509 0.0929038 0.193605) 0 7375 1
(0.393754 0.303123 0.11799 0.185133) 1 7376 1
(0.0419255 0.300224 0.178813 0.479037) 3 4 2
(0.244091 0.377955 0.216006 0.161948) 4 9 2
(0.235179 0.382411 0.378973 0.00343723) 5 11 2
(0.232543 0.283727 0.100001 0.383728) 6 13 1
(0.237835 0.184244 0.196839 0.381082) 7 15 1
(0.287088 0.141539 0.214918 0.356456) 8 17 1
(0.116546 0.109952 0.331775 0.441727) 9 19 1
(0.455047 0.272477 0.200685 0.0717916) 10 7385 1
(0.169953 0.415023 0.19059 0.224433) 11 20 1
(0.17662 0.41169 0.269037 0.142653) 11 22 1
(0.223814 0.119266 0.268827 0.388093) 12 25 1
(0.261991 0.062818 0.306187 0.369005) 13 27 1
(0.357723 0.187559 0.133579 0.321138) 14 29 1
(0.442872 0.278564 0.24208 0.036484) 15 31 2
(0.33945 0.0369303 0.293345 0.330275) 16 30 2
(0.296932 0.146893 0.351534 0.204641) 16 32 2
(0.469352 0.241195 0.265324 0.0241287) 17 7392 2
(0.453687 0.273157 0.154344 0.118813) 18 7393 1
(0.414287 0.292857 0.212791 0.0800658) 19 7394 1
(0.360042 0.319979 0.136276 0.183703) 20 7395 1
(0.239294 0.380353 0.0102537 0.370099) 21 43 2
(0.254593 0.00466995 0.368033 0.372703) 22 42 2
(0.238528 0.380736 0.0980927 0.282643) 23 47 2
(0.24991 0.375045 0.139673 0.235372) 24 49 2
(0.259478 0.370261 0.0976814 0.27258) 25 51 2
(0.0327634 0.144258 0.33936 0.483618) 26 50 2
(0.310065 0.0316458 0.344967 0.313322) 26 52 2
(0.54689 0.0716747 0.15488 0.226555) 27 55 1
(0.429703 0.211786 0.285148 0.0733625) 28 7403 2
(0.479725 0.260137 0.0118606 0.248277) 29 7404 1
(0.415062 0.292469 0.0550109 0.237458) 30 7405 1
(0.385885 0.307058 0.0444364 0.262621) 31 7406 1
(0.253729 0.373136 0.123068 0.250068) 33 64 1
(0.888369 0.0535923 0.0558154 0.00222314) 34 68 2
(0.196844 0.401578 0.203241 0.198337) 35 71 2
(0.327408 0.336296 0.0421361 0.29416) 36 73 2
(0.535587 0.0407166 0.19149 0.232206) 37 72 2
(0.466524 0.266738 0.144332 0.122406) 38 7413 1
(0.364193 0.125782 0.317904 0.192121) 39 7414 2
(0.356799 0.0633403 0.321601 0.25826) 40 7415 2
(0.619882 0.190059 0.00685001 0.183209) 42 82 1
(0.0120298 0.116011 0.377974 0.493985) 43 84 2
(0.110512 0.0924513 0.444744 0.352293) 43 86 2
(0.471532 0.0533939 0.264234 0.21084) 45 7420 2
(0.0261059 0.0894276 0.397519 0.486947) 45 91 1
(0.505314 0.0150306 0.247343 0.232312) 46 92 2
(0.618797 0.190601 0.182189 0.0084128) 47 95 2
(0.444405 0.255474 0.277798 0.0223232) 48 7423 2
(0.0616555 0.100644 0.469172 0.368528) 48 96 2
(0.259968 0.0956786 0.370016 0.274337) 49 98 2
(0.424105 0.0543859 0.287947 0.233562) 50 100 2
(0.477045 0.00732341 0.254154 0.261477) 51 103 1
(0.530773 0.0238852 0.210728 0.234614) 52 105 1
(0.347997 0.326001 0.0345765 0.291425) 54 106 1
(0.383251 0.308375 0.027634 0.280741) 55 7430 1
(0.377959 0.229631 0.311021 0.0813894) 56 7431 2
(0.316846 0.341577 0.133429 0.208148) 57 114 1
(0.222539 0.0859621 0.302769 0.388731) 58 117 1
(0.202512 0.121897 0.276847 0.398744) 59 119 1
(0.153631 0.423184 0.388694 0.0344901) 75 1 2
(0.137542 0.00306419 0.428165 0.431229) 75 15076 1
(0.228293 0.320404 0.0654495 0.385854) 75 150 1
(0.317492 0.0993259 0.241928 0.341254) 76 149 2
(0.193125 0.0372001 0.403437 0.366237) 76 151 2
(0.261706 0.0495759 0.319571 0.369147) 77 154 1
(0.262757 0.0465104 0.322111 0.368622) 78 156 1
(0.255777 0.372111 0.258778 0.113334) 80 160 2
(0.17953 0.0323542 0.377881 0.410235) 82 161 2
(0.518087 0.240956 0.207966 0.0329901) 83 166 2
(0.194807 0.402597 0.0492678 0.353329) 158 166 2
(0.359152 0.320424 0.175058 0.145366) 84 168 2
(0.259622 0.0412553 0.328934 0.370189) 85 167 2
(0.258154 0.0825332 0.370923 0.28839) 85 169 2
(0.524204 0.0142668 0.223631 0.237898) 86 172 1
(0.0889675 0.455516 0.251512 0.204004) 90 177 1
(0.0220652 0.488967 0.104941 0.384026) 90 179 1
(0.0458613 0.477069 0.200566 0.276503) 92 181 1
(0.374245 0.312878 0.311418 0.00145959) 92 183 1
(0.22072 0.279029 0.38964 0.110611) 93 37 1
(0.0870655 0.217992 0.238476 0.456467) 94 185 2
(0.0832477 0.458376 0.0948941 0.363482) 169 188 2
(0.192732 0.099309 0.304325 0.403634) 94 188 1
(0.211017 0.394491 0.225974 0.168517) 95 190 2
(0.218124 0.0277052 0.390938 0.363233) 95 189 2
(0.280832 0.209849 0.149735 0.359584) 96 192 1
(0.302998 0.342895 0.00560597 0.348501) 97 194 1
(0.444687 0.265034 0.0126223 0.277656) 98 196 1
(0.595541 0.059097 0.202229 0.143132) 101 53 1
(0.341297 0.329351 0.315451 0.0139005) 102 203 1
(0.268041 0.110903 0.36598 0.255077) 103 57 1
(0.219402 0.117218 0.390299 0.273081) 104 59 1
(0.162082 0.418959 0.396512 0.0224469) 105 209 1
(0.0244735 0.443996 0.487763 0.0437671) 107 65 1
(0.0646697 0.072916 0.394749 0.467665) 107 211 2
(0.258665 0.142752 0.227915 0.370668) 107 214 1
(0.289018 0.328052 0.0274384 0.355491) 108 216 1
(0.480851 0.259575 0.0193503 0.240224) 111 219 1
(0.336153 0.326148 0.331923 0.00577538) 112 75 1
(0.0215476 0.489226 0.103973 0.385253) 39 79 2
(0.19228 0.183224 0.220637 0.40386) 112 224 1
(0.183304 0.408348 0.110469 0.297879) 113 226 2
(0.256906 0.13548 0.236067 0.371547) 113 226 1
(0.248484 0.375758 0.0655651 0.310193) 114 228 2
(0.260391 0.198426 0.171378 0.369804) 114 228 1
(0.321616 0.339192 0.129287 0.209905) 115 230 2
(0.146931 0.0700448 0.35649 0.426535) 116 229 2
(0.375203 0.0719905 0.240408 0.312398) 117 234 1
(0.531761 0.23412 0.199039 0.035081) 120 237 1
(0.50563 0.247185 0.0604556 0.186729) 121 93 2
(0.326981 0.0987546 0.336509 0.237755) 122 95 1
(0.15076 0.42462 0.169373 0.255247) 124 245 1
(0.394013 0.302993 0.00759171 0.295402) 125 247 1
(0.40156 0.29922 0.232945 0.0662752) 126 103 2
(0.41817 0.290915 0.181936 0.108979) 127 105 2
(0.145468 0.34109 0.427266 0.0861761) 128 107 1
(0.142277 0.428861 0.0695732 0.359288) 129 255 1
(0.340991 0.0321682 0.329505 0.297336) 202 254 1
(0.444668 0.277666 0.0327588 0.244907) 203 256 2
(0.656651 0.0857015 0.171674 0.0859729) 150 150 1
(0.148396 0.0256445 0.400158 0.425802) 151 298 2
(0.284672 0.0313394 0.326325 0.357664) 152 300 2
(0.332971 0.333515 0.00175156 0.331763) 153 305 2
(0.152132 0.0642511 0.423934 0.359683) 153 304 2
(0.301144 0.120929 0.228499 0.349428) 154 307 1
(0.266629 0.274142 0.0925436 0.366685) 155 309 1
(0.235256 0.0125743 0.382372 0.369798) 156 310 2
(0.18442 0.40779 0.179695 0.228095) 158 315 2
(0.181909 0.0731269 0.335919 0.409045) 159 314 2
(0.359612 0.275938 0.320194 0.0442555) 161 172 1
(0.236552 0.282898 0.381724 0.0988255) 162 174 1
(0.0338802 0.48306 0.456863 0.0261969) 164 178 2
(0.220676 0.275726 0.113936 0.389662) 163 325 1
(0.194351 0.402825 0.128804 0.274021) 164 327 2
(0.224886 0.044091 0.387557 0.343466) 164 326 2
(0.172491 0.0865209 0.413754 0.327234) 165 328 2
(0.251314 0.0224351 0.351908 0.374343) 167 330 2
(0.273606 0.242819 0.120378 0.363197) 168 335 1
(0.184266 0.281198 0.126669 0.407867) 169 337 1
(0.172272 0.277976 0.135888 0.413864) 170 339 1
(0.220555 0.158203 0.231519 0.389722) 171 341 1
(0.446465 0.276767 0.203514 0.0732538) 173 196 2
(0.267854 0.366073 0.128431 0.237642) 174 198 2
(0.230379 0.384811 0.115269 0.269542) 175 200 2
(0.286783 0.356609 0.0229946 0.333614) 176 202 2
(0.257409 0.326319 0.371295 0.0449762) 177 204 1
(0.255912 0.277283 0.372044 0.0947607) 178 206 1
(0.193736 0.110242 0.403132 0.29289) 179 208 1
(0.121108 0.0650905 0.374356 0.439446) 179 357 1
(0.303892 0.245868 0.102186 0.348054) 180 359 1
(0.253834 0.373083 0.213578 0.159505) 181 361 2
(0.00794137 0.0879621 0.496029 0.408067) 181 360 2
(0.167911 0.234192 0.181853 0.416044) 182 363 1
(0.237912 0.381044 0.241265 0.139779) 183 365 2
(0.152467 0.0772167 0.34655 0.423766) 184 364 2
(0.195194 0.0483719 0.402403 0.354031) 184 366 2
(0.234702 0.0067966 0.375852 0.382649) 185 369 1
(0.10938 0.44531 0.33443 0.11088) 187 373 2
(0.19882 0.40059 0.311222 0.0893677) 188 375 2
(0.37228 0.31386 0.187439 0.126422) 189 377 2
(0.410766 0.294617 0.247713 0.0469042) 190 379 2
(0.476909 0.0384039 0.223142 0.261545) 191 381 1
(0.298648 0.153021 0.197655 0.350676) 192 383 1
(0.303448 0.219699 0.128577 0.348276) 193 385 1
(0.0318469 0.484077 0.336303 0.147774) 194 386 1
(0.085049 0.457476 0.106814 0.350661) 196 388 1
(0.0895042 0.455248 0.35238 0.102868) 196 390 1
(0.0509675 0.474516 0.112338 0.362179) 198 392 1
(0.113861 0.443069 0.0788814 0.364188) 198 395 2
(0.366731 0.103676 0.212958 0.316634) 198 395 1
(0.234817 0.333212 0.382591 0.0493794) 199 248 1
(0.290073 0.354964 0.0873689 0.267595) 200 250 2
(0.260922 0.369539 0.136811 0.232728) 201 252 2
(0.339418 0.330291 0.0820172 0.248274) 226 447 1
(0.544039 0.227981 0.083503 0.144478) 227 449 1
(0.0747446 0.154441 0.308187 0.462628) 227 452 1
(0.260421 0.36979 0.112628 0.257162) 228 454 2
(0.123215 0.0694036 0.438393 0.368989) 228 453 2
(0.246343 0.137854 0.238975 0.376829) 229 456 1
(0.250538 0.210232 0.164499 0.374731) 230 458 1
(0.248256 0.0714634 0.304408 0.375872) 231 460 1
(0.137121 0.160191 0.271249 0.431439) 233 461 2
(0.233971 0.0797024 0.383014 0.303312) 234 317 1
(0.149275 0.0506394 0.425363 0.374723) 235 319 1
(0.164454 0.417773 0.401961 0.0158119) 236 469 1
(0.391809 0.086775 0.21732 0.304095) 237 472 1
(0.312512 0.0979158 0.245828 0.343744) 238 474 1
(0.495404 0.18323 0.252298 0.069068) 240 329 1
(0.010158 0.494921 0.185087 0.309834) 241 479 1
(0.34447 0.327765 0.19287 0.134895) 243 481 1
(0.816173 0.0919136 0.0819919 0.00992168) 244 337 2
(0.279563 0.360218 0.205831 0.154387) 245 488 2
(0.191227 0.318705 0.0856812 0.404387) 246 490 1
(0.236019 0.111783 0.38199 0.270208) 247 343 1
(0.225985 0.0742537 0.387008 0.312754) 248 345 1
(0.244564 0.0493809 0.377718 0.328337) 249 347 1
(0.268808 0.0662242 0.365596 0.299372) 250 349 1
(0.296095 0.0791882 0.351952 0.272764) 251 351 1
(0.329561 0.0465854 0.335219 0.288634) 252 353 1
(0.11875 0.440625 0.155296 0.285329) 253 504 2
(0.191353 0.00438221 0.404324 0.399942) 253 503 2
(0.188202 0.346941 0.0589574 0.405899) 254 506 1
(0.312849 0.343575 0.0941127 0.249463) 255 508 2
(0.26624 0.36688 0.152385 0.214495) 256 510 2
(0.189335 0.405333 0.0737932 0.33154) 257 512 2
(0.0781869 0.0783453 0.382561 0.460907) 258 511 2
(0.0102521 0.0824937 0.494874 0.41238) 258 513 2
(0.0530502 0.103241 0.473475 0.370234) 259 515 2
(0.158144 0.0774862 0.420928 0.343442) 260 517 2
(0.135171 0.432414 0.213263 0.219151) 262 522 2
(0.441038 0.279481 0.0445833 0.234898) 263 524 2
(0.412531 0.293735 0.0934953 0.200239) 264 523 1
(0.415009 0.292496 0.00256826 0.289927) 265 525 1
(0.314932 0.342534 0.241368 0.101165) 266 381 2
(0.336626 0.331687 0.268197 0.0634901) 267 532 2
(0.289738 0.355131 0.278626 0.0765046) 268 534 2
(0.252782 0.373609 0.29561 0.077999) 269 536 2
(0.20544 0.39728 0.351591 0.0456889) 270 538 2
(0.19093 0.404535 0.362371 0.0421644) 271 540 2
(0.179586 0.410207 0.39361 0.0165973) 272 542 2
(0.176223 0.411889 0.310247 0.101642) 273 544 2
(0.254379 0.37281 0.0474283 0.325382) 274 543 1
(0.209496 0.115762 0.395252 0.27949) 274 397 1
(0.305279 0.347361 0.0238965 0.323464) 275 399 2
(0.274586 0.362707 0.162769 0.199938) 276 401 2
(0.000703868 0.0808834 0.418765 0.499648) 300 15079 1
(0.349588 0.0814234 0.243783 0.325206) 300 597 1
(0.391126 0.176678 0.127759 0.304437) 301 599 1
(0.0607653 0.10356 0.366057 0.469617) 303 600 2
(0.281815 0.359092 0.00830725 0.350785) 304 605 2
(0.360265 0.240567 0.0793008 0.319868) 305 607 1
(0.0995232 0.188398 0.450238 0.261841) 306 608 2
(0.308929 0.33606 0.345535 0.00947554) 308 464 1
(0.196173 0.401913 0.204456 0.197457) 310 614 1
(0.478326 0.0695167 0.19132 0.260837) 311 616 2
(0.241058 0.379471 0.0500848 0.329386) 312 618 1
(0.132309 0.433845 0.0578792 0.375966) 312 620 1
(0.204218 0.397891 0.117753 0.280138) 314 622 1
(0.279527 0.360236 0.304515 0.0557211) 315 478 2
(0.287005 0.22387 0.356498 0.132628) 316 480 1
(0.237287 0.381356 0.362868 0.0184888) 317 630 1
(0.220338 0.389831 0.0550135 0.334818) 319 632 1
(0.687287 0.156356 0.00138954 0.154967) 320 488 2
(0.212435 0.387902 0.00588086 0.393782) 321 639 1
(0.241033 0.379484 0.371117 0.0083665) 322 641 2
(0.27494 0.36253 0.312082 0.0504479) 323 643 2
(0.298331 0.350835 0.239931 0.110903) 324 645 2
(0.312169 0.343916 0.0800482 0.263867) 325 647 2
(0.0259644 0.117514 0.369504 0.487018) 326 646 2
(0.245341 0.100729 0.276601 0.37733) 326 649 1
(0.238795 0.316474 0.0641282 0.380602) 327 651 1
(0.231569 0.384216 0.248821 0.135394) 328 653 2
(0.281096 0.359452 0.0422697 0.317182) 329 655 2
(0.496512 0.158306 0.251744 0.0934384) 330 508 1
(0.380065 0.0380311 0.271937 0.309968) 331 659 1
(0.0736873 0.063061 0.463156 0.400095) 332 660 2
(0.207925 0.396038 0.051406 0.344632) 334 665 2
(0.246139 0.37693 0.119473 0.257457) 335 667 2
(0.26606 0.284803 0.0821672 0.36697) 336 666 2
(0.135686 0.036348 0.395809 0.432157) 337 668 2
(0.16302 0.0135665 0.404924 0.41849) 338 670 2
(0.118942 0.440529 0.204501 0.236028) 339 675 2
(0.0305809 0.48471 0.371192 0.113518) 339 674 1
(0.271016 0.364492 0.338738 0.025754) 340 676 1
(0.28432 0.142546 0.35784 0.215294) 341 530 1
(0.58364 0.171295 0.0368852 0.20818) 342 681 1
(0.432052 0.283974 0.171136 0.112838) 343 683 2
(0.32711 0.336445 0.126619 0.209826) 344 685 2
(0.252374 0.373813 0.119883 0.25393) 345 687 2
(0.141354 0.429323 0.42332 0.00600325) 421 837 1
(0.299577 0.0840663 0.350211 0.266145) 422 691 1
(0.230745 0.270173 0.114454 0.384628) 348 693 1
(0.314359 0.34282 0.0721991 0.270621) 349 546 2
(0.351483 0.324258 0.271859 0.0523991) 350 548 2
(0.0119261 0.494037 0.194354 0.299683) 351 696 1
(0.254951 0.0572005 0.372525 0.315324) 351 550 1
(0.2103 0.228216 0.166634 0.39485) 375 746 1
(0.58941 0.205295 0.17748 0.0278146) 376 599 2
(0.395384 0.302308 0.0212535 0.281054) 377 747 1
(0.569913 0.215044 0.194968 0.0200759) 378 603 2
(0.280808 0.359596 0.306796 0.0528) 379 753 1
(0.342924 0.328538 0.223165 0.105373) 381 609 2
(0.155913 0.113367 0.422044 0.308676) 382 611 1
(0.0497305 0.475135 0.45922 0.0159146) 383 761 1
(0.129117 0.435442 0.404848 0.0305938) 385 617 2
(0.284217 0.357891 0.0147257 0.343166) 386 619 2
(0.264006 0.249231 0.367997 0.118766) 387 621 1
(0.231196 0.0196814 0.384402 0.364721) 388 623 1
(0.127134 0.436433 0.0435061 0.392927) 390 773 1
(0.231651 0.384175 0.350367 0.033808) 391 629 2
(0.254702 0.372649 0.342213 0.0304364) 392 631 2
(0.227475 0.386263 0.326088 0.0601749) 393 633 2
(0.232595 0.383703 0.211305 0.172397) 394 635 2
(0.33106 0.33447 0.00283538 0.331635) 395 637 2
(0.176358 0.411821 0.0662406 0.34558) 396 788 2
(0.013209 0.110043 0.383353 0.493396) 397 787 2
(0.250277 0.0249125 0.349949 0.374861) 397 790 1
(0.24696 0.161064 0.215456 0.37652) 398 792 1
(0.249206 0.276245 0.0991522 0.375397) 399 794 1
(0.200884 0.399558 0.358019 0.041539) 400 796 2
(0.232456 0.383772 0.222551 0.161221) 401 798 2
(0.211674 0.394163 0.125059 0.269104) 402 800 2
(0.202684 0.398658 0.0677506 0.330907) 403 802 2
(0.495428 0.252286 0.114994 0.137293) 404 801 1
(0.351612 0.324194 0.286718 0.0374762) 405 657 2
(0.103977 0.448012 0.261566 0.186446) 406 805 1
(0.169598 0.415201 0.0427234 0.372478) 406 807 1
(0.285477 0.165973 0.191289 0.357262) 408 809 2
(0.332094 0.333953 0.250751 0.0832025) 409 814 2
(0.215828 0.392086 0.311297 0.0807892) 410 816 2
(0.231487 0.384257 0.286805 0.0974513) 411 818 2
(0.216027 0.391986 0.288817 0.10317) 412 820 2
(0.226796 0.386602 0.314612 0.0719896) 413 822 2
(0.246064 0.376968 0.372062 0.00490598) 414 824 2
(0.601161 0.19942 0.128247 0.0711731) 415 826 2
(0.26685 0.366575 0.0679592 0.298616) 416 679 2
(0.401345 0.299327 0.114926 0.184401) 417 681 2
(0.551743 0.224129 0.11665 0.107479) 418 683 2
(0.263223 0.368389 0.0329068 0.335482) 419 834 2
(0.256941 0.371529 0.015494 0.356035) 420 836 2
(0.120128 0.439936 0.4192 0.0207357) 421 838 2
(0.291676 0.354162 0.0309091 0.323253) 497 840 2
(0.197419 0.40129 0.191759 0.209532) 423 842 2
(0.00808611 0.495957 0.350973 0.144983) 498 990 1
(0.0406428 0.479679 0.384485 0.0951931) 499 992 1
(0.0720674 0.0680474 0.395919 0.463966) 426 845 2
(0.0268243 0.486588 0.0964608 0.390127) 427 847 1
(0.0536921 0.185379 0.287775 0.473154) 451 894 2
(0.10155 0.449225 0.370677 0.0785476) 451 896 1
(0.0244367 0.487782 0.116784 0.370997) 453 898 1
(0.184645 0.407677 0.0320966 0.375581) 454 900 1
(0.207604 0.396198 0.389845 0.00635253) 455 756 2
(0.190528 0.404736 0.321696 0.0830397) 456 758 2
(0.144862 0.427569 0.179839 0.24773) 457 760 2
(0.0848626 0.399508 0.457569 0.0580603) 458 762 1
(0.0918611 0.454069 0.00881581 0.445254) 460 912 1
(0.164281 0.417859 0.258649 0.15921) 461 768 2
(0.223319 0.38834 0.140009 0.248331) 462 770 2
(0.233243 0.383379 0.124526 0.258853) 463 772 2
(0.233127 0.383436 0.130453 0.252984) 464 774 2
(0.257785 0.371107 0.180434 0.190673) 465 776 2
(0.267449 0.366276 0.32101 0.045266) 466 778 2
(0.0102183 0.494891 0.361237 0.133654) 466 926 1
(0.230151 0.0557081 0.384924 0.329216) 467 780 1
(0.282723 0.177344 0.358639 0.181295) 468 782 1
(0.560228 0.219886 0.0421401 0.177746) 469 784 2
(0.103247 0.0554102 0.392966 0.448377) 469 933 1
(0.217572 0.310109 0.0811051 0.391214) 470 935 1
(0.188974 0.405513 0.321065 0.0844478) 471 937 2
(0.19442 0.40279 0.26819 0.1346) 472 939 2
(0.204184 0.397908 0.301709 0.0961987) 473 941 2
(0.215556 0.351459 0.0407629 0.392222) 474 943 1
(0.212056 0.250086 0.143886 0.393972) 475 945 1
(0.198427 0.174484 0.226303 0.400786) 476 947 1
(0.22801 0.119709 0.266286 0.385995) 477 949 1
(0.278386 0.160406 0.200401 0.360807) 478 951 1
(0.545769 0.127501 0.227115 0.0996142) 479 804 1
(0.286821 0.310705 0.35659 0.0458842) 480 806 1
(0.34545 0.262541 0.327275 0.0647342) 481 808 1
(0.380798 0.309601 0.29138 0.0182215) 482 958 1
(0.106223 0.446889 0.288125 0.158764) 483 960 1
(0.19496 0.191022 0.211498 0.40252) 484 963 1
(0.25001 0.252753 0.122242 0.374995) 485 965 1
(0.216178 0.333264 0.0586474 0.391911) 486 967 1
(0.224011 0.272875 0.11512 0.387995) 487 969 1
(0.212727 0.00974822 0.383888 0.393636) 488 971 1
(0.153171 0.0318618 0.391553 0.423414) 490 972 2
(0.295529 0.352236 0.250999 0.101236) 491 828 2
(0.283204 0.358398 0.304112 0.0542858) 492 830 2
(0.259987 0.370007 0.0231526 0.346854) 493 978 1
(0.220668 0.163827 0.225839 0.389666) 493 981 1
(0.279173 0.313716 0.0466974 0.360413) 494 983 1
(0.290887 0.354557 0.259022 0.0955348) 495 985 2
(0.235424 0.382288 0.279814 0.102474) 496 987 2
(0.081759 0.127173 0.331947 0.459121) 497 989 1
(0.225032 0.0523695 0.387484 0.335115) 573 991 1
(0.168605 0.415698 0.000151653 0.415546) 575 1141 1
(0.302031 0.0249839 0.348984 0.324) 500 994 2
(0.136353 0.431823 0.0486943 0.383129) 502 996 1
(0.592053 0.203973 0.161639 0.0423341) 525 895 2
(0.336069 0.132416 0.331966 0.19955) 526 897 1
(0.279689 0.101658 0.360156 0.258497) 527 899 1
(0.260435 0.119854 0.369782 0.249928) 528 901 1
(0.220299 0.196859 0.38985 0.192992) 529 903 1
(0.227359 0.261287 0.38632 0.125033) 530 905 1
(0.205967 0.355453 0.397016 0.0415631) 531 907 1
(0.16542 0.41729 0.00543152 0.411859) 532 909 2
(0.0329923 0.452435 0.483504 0.0310686) 533 911 1
(0.0484901 0.309836 0.475755 0.165919) 534 913 1
(0.323077 0.338462 0.00309716 0.335364) 535 1064 2
(0.0753889 0.145303 0.462306 0.317003) 535 1063 2
(0.332776 0.0232814 0.310331 0.333612) 536 1066 1
(0.283917 0.358041 0.103537 0.254504) 538 921 2
(0.289738 0.355131 0.107136 0.247996) 539 923 2
(0.297296 0.351352 0.258326 0.0930258) 540 925 2
(0.0400051 0.479997 0.0846947 0.395303) 541 1073 1
(0.263869 0.234266 0.368065 0.1338) 541 927 1
(0.274203 0.362898 0.165076 0.197822) 542 929 2
(0.138436 0.430782 0.423851 0.00693105) 542 1077 1
(0.434829 0.164654 0.282585 0.117931) 543 931 1
(0.07994 0.0715956 0.46003 0.388434) 543 1079 2
(0.253872 0.0157069 0.357357 0.373064) 544 1082 1
(0.186731 0.159505 0.24713 0.406634) 545 1084 1
(0.17109 0.146427 0.268028 0.414455) 546 1086 1
(0.135685 0.0496363 0.382521 0.432158) 548 1087 2
(0.215669 0.392165 0.193879 0.198286) 549 1092 2
(0.206053 0.366617 0.0303569 0.396974) 550 1094 1
(0.199283 0.10101 0.299348 0.400359) 551 1096 1
(0.0168318 0.101879 0.389705 0.491584) 553 1097 2
(0.49593 0.252035 0.150542 0.101493) 554 953 2
(0.284661 0.357669 0.198701 0.158968) 555 955 2
(0.289881 0.35506 0.266055 0.089005) 556 957 2
(0.271078 0.364461 0.0117109 0.35275) 557 1105 1
(0.157637 0.421182 0.04653 0.374652) 558 1107 1
(0.0123874 0.265728 0.493806 0.228078) 558 1109 2
(0.224121 0.0727731 0.387939 0.315166) 559 1111 2
(0.403403 0.045127 0.253172 0.298299) 560 1114 1
(0.174979 0.257987 0.412511 0.154524) 561 1115 2
(0.223371 0.295537 0.092777 0.388314) 563 1120 1
(0.20903 0.0441529 0.351332 0.395485) 564 1122 1
(0.0337505 0.0986132 0.483125 0.384512) 565 1123 2
(0.212252 0.00343356 0.390441 0.393874) 567 1125 2
(0.232003 0.383999 0.0373816 0.346617) 568 1130 2
(0.195564 0.0333626 0.368856 0.402218) 569 1129 2
(0.0993412 0.0827005 0.450329 0.367629) 569 1131 2
(0.280544 0.0552621 0.304466 0.359728) 570 1134 1
(0.271622 0.16812 0.196069 0.364189) 571 1136 1
(0.246157 0.175405 0.201517 0.376922) 572 1138 1
(0.120737 0.338485 0.101146 0.439631) 574 1142 1
(0.169775 0.338346 0.0767668 0.415112) 575 1144 1
(0.337868 0.331066 0.113543 0.217522) 576 997 2
(0.238659 0.380671 0.129107 0.251564) 577 999 2
(0.0940951 0.0687963 0.452952 0.384156) 600 1192 2
(0.246862 0.00285639 0.376569 0.373713) 601 1046 1
(0.503722 0.08873 0.159409 0.248139) 602 1197 1
(0.429516 0.185664 0.0995775 0.285242) 603 1199 1
(0.206631 0.396684 0.0946117 0.302073) 604 1052 2
(0.225979 0.38701 0.169947 0.217063) 605 1054 2
(0.22777 0.386115 0.275769 0.110347) 606 1056 2
(0.162431 0.418785 0.372264 0.0465202) 607 1058 2
(0.174802 0.412599 0.00813936 0.40446) 608 1206 1
(0.260164 0.239728 0.13019 0.369918) 608 1209 1
(0.29224 0.35388 0.190386 0.163493) 609 1211 2
(0.0921133 0.088619 0.453943 0.365324) 609 1210 2
(0.352154 0.198633 0.12529 0.323923) 610 1213 1
(0.365468 0.317266 0.176149 0.141117) 611 1215 2
(0.218033 0.0643432 0.32664 0.390984) 612 1214 2
(0.104225 0.0908472 0.447887 0.35704) 612 1216 2
(0.374155 0.280041 0.312922 0.0328811) 614 1072 1
(0.307159 0.34642 0.00230936 0.344111) 615 1074 2
(0.397058 0.301471 0.168741 0.132731) 616 1076 2
(0.0902466 0.454877 0.211245 0.243632) 617 1224 1
(0.319021 0.12342 0.34049 0.21707) 617 1078 1
(0.507751 0.246125 0.149819 0.0963059) 618 1080 2
(0.222316 0.388842 0.165838 0.223004) 619 1228 1
(0.245491 0.0596699 0.317584 0.377254) 619 1231 1
(0.0831038 0.115769 0.342679 0.458448) 621 1232 2
(0.650747 0.102607 0.0720198 0.174627) 622 1237 1
(0.29121 0.0124504 0.354395 0.341945) 623 1238 2
(0.181617 0.409192 0.117961 0.291231) 625 1243 2
(0.182402 0.355843 0.0529555 0.408799) 626 1245 1
(0.180543 0.00888006 0.400848 0.409728) 627 1247 1
(0.0735375 0.463231 0.299969 0.163262) 628 1248 1
(0.0134329 0.493284 0.360292 0.132991) 629 1250 1
(0.15113 0.424435 0.348701 0.0757337) 630 1252 1
(0.276126 0.0557767 0.361937 0.30616) 631 1106 1
(0.254471 0.197223 0.372764 0.175541) 632 1108 1
(0.394993 0.302504 0.0517566 0.250747) 633 1110 2
(0.44397 0.278015 0.113355 0.16466) 634 1112 2
(0.583196 0.208402 0.0642283 0.144174) 635 1114 2
(0.392929 0.231814 0.303536 0.0717214) 636 1116 1
(0.578707 0.210647 0.0421969 0.16845) 637 1118 2
(0.200815 0.386516 0.0130762 0.399592) 638 1269 1
(0.223864 0.133627 0.254441 0.388068) 639 1271 1
(0.0255638 0.0807025 0.487218 0.406516) 640 1272 2
(0.206592 0.396704 0.108644 0.28806) 642 1277 2
(0.2048 0.378024 0.0195758 0.3976) 643 1279 1
(0.231586 0.044633 0.339574 0.384207) 644 1281 1
(0.0817131 0.0792241 0.379919 0.459143) 646 1282 2
(0.131481 0.0673485 0.366911 0.434259) 647 1284 2
(0.250258 0.374871 0.106433 0.268438) 648 1289 2
(0.223097 0.388452 0.355034 0.033418) 649 1291 2
(0.482412 0.0546152 0.204179 0.258794) 650 1293 1
(0.295722 0.352139 0.0129939 0.339145) 651 1146 2
(0.251591 0.374205 0.0930469 0.281158) 652 1148 2
(0.202789 0.398605 0.389568 0.00903739) 675 1342 2
(0.397267 0.301367 0.113817 0.18755) 676 1343 1
(0.586134 0.206933 0.0352167 0.171716) 677 1345 1
(0.310948 0.23805 0.106476 0.344526) 678 1348 1
(0.305867 0.347066 0.105759 0.241307) 679 1201 2
(0.277685 0.361157 0.328177 0.0329801) 680 1203 2
(0.0880804 0.45596 0.382669 0.0732904) 680 1351 1
(0.190255 0.0633233 0.404872 0.341549) 681 1205 1
(0.346043 0.216506 0.110473 0.326978) 682 1356 1
(0.232952 0.383524 0.208124 0.1754) 683 1358 2
(0.0371305 0.0920854 0.481435 0.389349) 683 1357 2
(0.278368 0.200958 0.159858 0.360816) 684 1360 1
(0.169104 0.415448 0.170268 0.24518) 685 1362 2
(0.247152 0.00577126 0.376424 0.370653) 685 1361 2
(0.272736 0.311143 0.0524891 0.363632) 686 1364 1
(0.32047 0.339765 0.155916 0.183849) 687 1366 2
(0.273364 0.0181415 0.345176 0.363318) 688 1365 2
(0.00269522 0.141991 0.498652 0.356662) 688 1367 2
(0.100597 0.0780282 0.449701 0.371673) 689 1369 2
(0.0870583 0.104152 0.456471 0.352319) 690 1371 2
(0.281501 0.35925 0.0351738 0.324076) 692 1373 1
(0.166804 0.416598 0.0847029 0.331895) 693 1375 1
(0.112638 0.443681 0.295366 0.148315) 693 1377 1
(0.0738411 0.463079 0.301618 0.161462) 695 1379 1
(0.475284 0.262358 0.00318501 0.259173) 696 1381 1
(0.36696 0.31652 0.0131342 0.303386) 697 1237 2
(0.518795 0.240602 0.0349616 0.205641) 698 1387 1
(0.276191 0.296448 0.0654559 0.361904) 700 1392 1
(0.254526 0.130732 0.242005 0.372737) 701 1394 1
(0.21633 0.0158893 0.375946 0.391835) 703 1395 2
(0.234077 0.382961 0.329375 0.053586) 704 1400 2
(0.27478 0.295117 0.0674925 0.36261) 705 1402 1
(0.248716 0.375642 0.0963537 0.279288) 706 1255 2
(0.276772 0.361614 0.291819 0.0697953) 707 1257 2
(0.102284 0.448858 0.363843 0.0850149) 707 1405 1
(0.319268 0.162623 0.340366 0.177743) 708 1259 1
(0.320077 0.339961 0.0825657 0.257396) 709 1261 2
(0.31351 0.343245 0.298798 0.0444474) 710 1263 2
(0.249639 0.375181 0.0179732 0.357208) 711 1411 1
(0.23532 0.38234 0.174007 0.208333) 712 1267 2
(0.0672689 0.228662 0.466366 0.237703) 713 1417 2
(0.231016 0.0243242 0.360168 0.384492) 715 1419 2
(0.262566 0.368717 0.232101 0.136616) 716 1424 2
(0.271338 0.364331 0.304766 0.0595649) 717 1426 2
(0.225344 0.292841 0.387328 0.0944871) 718 1427 2
(0.498044 0.250978 0.141878 0.1091) 720 1432 2
(0.329606 0.101577 0.335197 0.23362) 721 1433 2
(0.253629 0.373186 0.119092 0.254094) 723 1438 2
(0.260426 0.25071 0.119077 0.369787) 724 1440 1
(0.813942 0.0700249 0.023004 0.0930289) 725 1439 2
(0.473662 0.263169 0.161061 0.102108) 726 1295 2
(0.292427 0.353786 0.234551 0.119236) 727 1297 2
(0.243849 0.378075 0.233989 0.144087) 728 1299 2
(0.279513 0.070605 0.289639 0.360243) 751 1490 2
(0.193441 0.40328 0.0482244 0.355055) 752 1495 2
(0.197208 0.401396 0.227627 0.173769) 753 1497 2
(0.203761 0.293035 0.105085 0.39812) 754 1499 1
(0.199413 0.400293 0.135009 0.265284) 755 1352 2
(0.286148 0.356926 0.257541 0.0993853) 756 1354 2
(0.105106 0.447447 0.122589 0.324857) 757 1502 1
(0.211176 0.145681 0.248731 0.394412) 757 1505 1
(0.183961 0.299774 0.108246 0.40802) 758 1507 1
(0.212206 0.393897 0.286538 0.107359) 759 1509 2
(0.116695 0.441652 0.0290032 0.412649) 760 1511 2
(0.239182 0.206119 0.17429 0.380409) 760 1511 1
(0.200798 0.399601 0.234352 0.165248) 761 1513 2
(0.232066 0.0453965 0.33857 0.383967) 761 1513 1
(0.248116 0.375942 0.31137 0.0645727) 762 1515 2
(0.253651 0.0289166 0.344258 0.373175) 763 1514 2
(0.165195 0.0720803 0.417403 0.345322) 763 1516 2
(0.270029 0.104456 0.260529 0.364986) 764 1519 1
(0.23278 0.183564 0.200046 0.38361) 765 1521 1
(0.607464 0.196268 0.0180262 0.178242) 766 1374 2
(0.327766 0.251386 0.336117 0.0847314) 767 1376 1
(0.315765 0.342118 0.00163759 0.34048) 769 1526 1
(0.2716 0.338167 0.3642 0.0260331) 770 1382 1
(0.318501 0.340749 0.152601 0.188149) 771 1384 2
(0.253737 0.373131 0.188188 0.184943) 772 1386 2
(0.195331 0.220385 0.18195 0.402335) 774 1536 2
(0.149419 0.247214 0.178077 0.425291) 775 1538 2
(0.143926 0.227518 0.200519 0.428037) 776 1540 2
(0.359777 0.0796329 0.240479 0.320112) 777 1542 2
(0.384468 0.0235517 0.284214 0.307766) 778 1544 2
(0.296935 0.217113 0.13442 0.351533) 779 1549 1
(0.251033 0.374484 0.12872 0.245764) 781 1553 2
(0.213164 0.393418 0.374498 0.01892) 782 1555 2
(0.122338 0.275152 0.163679 0.438831) 783 1557 1
(0.267979 0.36601 0.188649 0.177361) 784 1410 2
(0.221815 0.389093 0.0514649 0.337628) 785 1558 1
(0.220189 0.389906 0.341258 0.0486479) 785 1560 1
(0.309559 0.186682 0.345221 0.158539) 786 1414 1
(0.262724 0.351626 0.368638 0.0170125) 787 1416 1
(0.365717 0.317141 0.173096 0.144046) 788 1418 2
(0.376243 0.311878 0.277749 0.0341292) 789 1420 2
(0.825846 0.016607 0.0870772 0.0704702) 790 1570 2
(0.130894 0.244149 0.434553 0.190404) 791 1572 2
(0.14288 0.232232 0.42856 0.196328) 792 1574 2
(0.195991 0.402005 0.350816 0.0511891) 793 1576 1
(0.550798 0.215479 0.224601 0.00912183) 795 1432 1
(0.352385 0.0461281 0.323807 0.277679) 796 1434 1
(0.763059 0.11847 0.0498562 0.0686143) 798 1586 1
(0.545811 0.104466 0.122628 0.227095) 800 1588 2
(0.210409 0.394796 0.243432 0.151363) 801 1593 2
(0.831286 0.084357 0.0835836 0.000773395) 802 1446 2
(0.177951 0.411025 0.391066 0.0199589) 803 1597 2
(0.192407 0.398805 0.00499199 0.403797) 804 1599 1
(0.259269 0.274124 0.370365 0.0962413) 825 1491 1
(0.328207 0.335897 0.00529086 0.330606) 826 1642 2
(0.225089 0.387455 0.185712 0.201743) 827 1644 2
(0.241921 0.363678 0.0153611 0.379039) 828 1646 1
(0.249016 0.0590706 0.316421 0.375492) 829 1648 1
(0.154343 0.0531666 0.422828 0.369662) 830 1649 2
(0.202145 0.0247256 0.374202 0.398927) 832 1651 2
(0.213767 0.393117 0.0293903 0.363726) 833 1656 2
(0.209523 0.395239 0.0367139 0.358525) 834 1658 2
(0.171815 0.00862226 0.40547 0.414092) 835 1657 2
(0.0217794 0.0835267 0.405584 0.48911) 836 1659 2
(0.177058 0.0555692 0.355902 0.411471) 836 1662 1
(0.0999617 0.116112 0.333908 0.450019) 837 1664 1