/*--------------------------------*- C++ -*----------------------------------*\
  =========                 |
  \\      /  F ield         | OpenFOAM: The Open Source CFD Toolbox
   \\    /   O peration     | Website:  https://openfoam.org
    \\  /    A nd           | Version:  12
     \\/     M anipulation  |
\*---------------------------------------------------------------------------*/
FoamFile
{
    format      ascii;
    class       vectorField;
    location    "0.45/lagrangian/cloud";
    object      U;
}
// * * * * * * * * * * * * * * * * * * * * * * * * * * * * * * * * * * * * * //


2670
(
(0.000353404 -0.0304632 0)
(0.000661965 -0.0298475 0)
(0.000132723 -0.0316202 0)
(0.000138922 -0.0308577 0)
(8.76227e-05 -0.0307304 0)
(0.000178027 -0.0312667 0)
(0.000346957 -0.0309631 0)
(0.000480197 -0.0294023 0)
(-0.00026166 -0.0297358 0)
(0.000448834 -0.0312588 0)
(0.00107189 -0.029542 0)
(0.000126808 -0.0290381 0)
(0.000776985 -0.0276467 0)
(-0.000343267 -0.0282245 0)
(0.000466603 -0.0288409 0)
(-0.000159883 -0.0276377 0)
(-0.000356056 -0.0280503 0)
(0.000461646 -0.027237 0)
(0.000734053 -0.0294768 0)
(-4.54074e-05 -0.0307844 0)
(-0.00102311 -0.0320024 0)
(0.000165146 -0.0322957 0)
(-0.000800356 -0.0325039 0)
(-0.000562838 -0.0329504 0)
(-0.000285081 -0.0331647 0)
(0.000232557 -0.0330698 0)
(0.000116916 -0.0328144 0)
(1.16131e-05 -0.0314323 0)
(-0.000114558 -0.0296103 0)
(0.00154717 -0.0311905 0)
(-0.000190709 -0.0344909 0)
(-8.2173e-05 -0.0335495 0)
(5.54978e-05 -0.0332622 0)
(0.000202036 -0.0333549 0)
(-0.000675256 -0.0308679 0)
(6.39808e-05 -0.0309949 0)
(-0.000936709 -0.0337116 0)
(-4.74532e-05 -0.0330168 0)
(0.000546409 -0.0340727 0)
(7.84388e-05 -0.0335899 0)
(-0.000181633 -0.0319122 0)
(0.000152763 -0.0348088 0)
(2.93748e-05 -0.0344533 0)
(-0.00189558 -0.0349165 0)
(-0.000308384 -0.0351767 0)
(0.000694975 -0.0307534 0)
(0.00269313 -0.0323687 0)
(-0.000301804 -0.0311767 0)
(0.00169154 -0.0318908 0)
(-0.00125231 -0.033924 0)
(-0.000472279 -0.0339094 0)
(-5.02158e-05 -0.0334543 0)
(-0.000244886 -0.0339037 0)
(0.00033404 -0.0354466 0)
(0.00134622 -0.0360782 0)
(-0.000347806 -0.0342829 0)
(-0.000276062 -0.0362711 0)
(5.53254e-06 -0.0356897 0)
(-0.000182716 -0.0399004 0)
(0.00117997 -0.0404473 0)
(-4.93307e-05 -0.0412886 0)
(-6.23806e-05 -0.0238519 0)
(0.00136766 -0.0335151 0)
(0.00203491 -0.0325138 0)
(0.00128281 -0.0365683 0)
(-9.34519e-05 -0.0353932 0)
(-0.000236193 -0.0388041 0)
(-2.55681e-05 -0.0408013 0)
(0.000537684 -0.0405728 0)
(-4.83939e-05 -0.0403317 0)
(0.000731942 -0.0383475 0)
(0.000224933 -0.0395164 0)
(-7.18825e-05 -0.0386554 0)
(-0.000205113 -0.037269 0)
(-0.000637726 -0.0355695 0)
(0.000108172 -0.0342793 0)
(1.14429e-05 -0.0271705 0)
(0.00178502 -0.0303965 0)
(0.000745024 -0.0278991 0)
(0.00040481 -0.0282336 0)
(0.0014587 -0.0304742 0)
(0.00112356 -0.0355452 0)
(0.00274654 -0.0356418 0)
(0.000749744 -0.0354957 0)
(-0.00030668 -0.0351292 0)
(0.000318352 -0.0360315 0)
(0.000171455 -0.0374607 0)
(-0.000395716 -0.040575 0)
(-0.000545153 -0.0412954 0)
(-8.54557e-05 -0.0343572 0)
(0.000744234 -0.0342105 0)
(0.000329605 -0.033761 0)
(-0.000103289 -0.0349732 0)
(-0.000274412 -0.0346584 0)
(-0.000866763 -0.0269141 0)
(-0.00046769 -0.0354565 0)
(0.000706151 -0.0356398 0)
(-0.000979052 -0.0387604 0)
(-0.0021813 -0.036313 0)
(0.000656881 -0.033013 0)
(0.00094426 -0.0329692 0)
(0.00172484 -0.0379057 0)
(0.000307132 -0.037969 0)
(0.000515953 -0.037936 0)
(0.00107221 -0.0380142 0)
(0.000752969 -0.0384954 0)
(-0.000427121 -0.0418378 0)
(0.000648793 -0.0415815 0)
(-0.000412912 -0.0422451 0)
(0.000408331 -0.0427196 0)
(-0.000894529 -0.0358063 0)
(0.00072722 -0.0352941 0)
(0.00125161 -0.0358929 0)
(0.000450185 -0.0365782 0)
(-0.000533737 -0.0372826 0)
(-0.00139797 -0.0375007 0)
(0.00071976 -0.0380274 0)
(0.000203363 -0.0379486 0)
(0.00144675 -0.0451972 0)
(0.000890299 -0.0445337 0)
(0.00091963 -0.040794 0)
(-0.000277299 -0.0453416 0)
(0.000748714 -0.0458106 0)
(0.000522462 -0.047152 0)
(-2.75784e-05 -0.0453453 0)
(0.000165614 -0.044184 0)
(-0.00069293 -0.0455693 0)
(-0.000329125 -0.0488964 0)
(-5.47105e-05 -0.0460957 0)
(0.000252403 -0.0464002 0)
(-0.000364049 -0.0412166 0)
(0.00123155 -0.0377471 0)
(-0.000636978 -0.0318401 0)
(-0.000381639 -0.0453031 0)
(-0.000900142 -0.040194 0)
(-0.000796177 -0.0422113 0)
(0.000201942 -0.0485459 0)
(-0.000330299 -0.0461308 0)
(0.0014092 -0.0442859 0)
(0.00223552 -0.0407017 0)
(0.000236174 -0.0426853 0)
(-9.6889e-05 -0.0428847 0)
(-0.00107119 -0.0428916 0)
(-0.00025322 -0.0410757 0)
(-7.61916e-05 -0.0412391 0)
(0.000285636 -0.0415419 0)
(0.000356496 -0.0408943 0)
(9.4777e-05 -0.0407254 0)
(-0.00126137 -0.0383122 0)
(0.000779318 -0.0413368 0)
(0.0004698 -0.0417142 0)
(-0.0006305 -0.046109 0)
(0.000207084 -0.044276 0)
(-0.000875705 -0.0449082 0)
(-0.00121099 -0.0475813 0)
(-0.000948465 -0.046779 0)
(-0.000839975 -0.0464335 0)
(0.000135803 -0.04813 0)
(9.63722e-05 -0.0489246 0)
(0.000198272 -0.0471775 0)
(0.00113483 -0.0462622 0)
(0.000448925 -0.0459111 0)
(0.00114423 -0.0465486 0)
(4.44822e-05 -0.0455795 0)
(-7.82194e-05 -0.0466678 0)
(-0.000435471 -0.0464722 0)
(0.000292102 -0.0462879 0)
(0.000296561 -0.0462303 0)
(2.80855e-05 -0.0444824 0)
(0.00179196 -0.0443883 0)
(0.00235703 -0.0442381 0)
(0.000169769 -0.0456064 0)
(8.40037e-05 -0.0455246 0)
(0.000167348 -0.0456406 0)
(8.88761e-05 -0.0473638 0)
(0.000215539 -0.0470571 0)
(0.00328243 -0.0473828 0)
(-0.000283356 -0.0485014 0)
(0.000509157 -0.0482771 0)
(0.000844317 -0.0472581 0)
(-7.55142e-05 -0.0489519 0)
(0.000439776 -0.0520741 0)
(5.09131e-05 -0.0501714 0)
(-1.66494e-05 -0.0479326 0)
(-0.000188336 -0.0482675 0)
(-0.00112744 -0.0494625 0)
(-0.000327176 -0.0476209 0)
(-0.00130091 -0.0485826 0)
(-0.00118486 -0.0472776 0)
(-0.000561659 -0.048013 0)
(0.000312424 -0.0454927 0)
(0.00108422 -0.0442014 0)
(0.0014073 -0.0459658 0)
(0.00092312 -0.0449402 0)
(-0.000378623 -0.0446394 0)
(-0.00039927 -0.0467655 0)
(-0.000334924 -0.0448984 0)
(-0.000100655 -0.0444765 0)
(-3.97595e-05 -0.0456706 0)
(0.000394913 -0.0444443 0)
(0.00128742 -0.0442197 0)
(0.00059564 -0.0438459 0)
(0.000365783 -0.0443754 0)
(-0.000286501 -0.0465658 0)
(-0.000862641 -0.0469015 0)
(-0.000997064 -0.0469819 0)
(-0.000564844 -0.0470659 0)
(-0.00027673 -0.0480082 0)
(-0.000182241 -0.0476202 0)
(0.000263092 -0.0484044 0)
(0.000655518 -0.0487689 0)
(0.000966818 -0.0477223 0)
(0.000236102 -0.0475555 0)
(0.000417473 -0.0467728 0)
(-6.49412e-06 -0.0464683 0)
(0.000460488 -0.0469961 0)
(3.06715e-05 -0.0481548 0)
(-0.000189943 -0.0488846 0)
(-7.64643e-05 -0.0492492 0)
(-0.00028756 -0.0487182 0)
(-0.000399497 -0.0483606 0)
(-8.4979e-05 -0.0468167 0)
(0.000283716 -0.0464343 0)
(5.48392e-05 -0.0460883 0)
(7.46979e-05 -0.0480126 0)
(-0.000667443 -0.0479329 0)
(-0.000644002 -0.0509184 0)
(6.6977e-05 -0.0506718 0)
(0.000474244 -0.0517235 0)
(0.00170286 -0.0501637 0)
(0.000750498 -0.051746 0)
(0.000695554 -0.050467 0)
(2.70026e-05 -0.051307 0)
(-0.000890505 -0.0501849 0)
(-0.00294048 -0.049708 0)
(-0.0012163 -0.0491903 0)
(-0.00142935 -0.0496924 0)
(-0.00178616 -0.047792 0)
(-0.000514304 -0.0488789 0)
(-0.000184299 -0.0495602 0)
(0.000119703 -0.0484122 0)
(0.000451045 -0.0467069 0)
(0.00101416 -0.0463194 0)
(-0.000872823 -0.0453079 0)
(0.000309379 -0.0461416 0)
(0.000659089 -0.0464247 0)
(0.000356463 -0.0464635 0)
(0.000261145 -0.0468798 0)
(0.000187152 -0.0473244 0)
(0.000292902 -0.0464074 0)
(0.00180089 -0.0451252 0)
(0.000449688 -0.0458311 0)
(-0.000647469 -0.0475105 0)
(0.000289655 -0.0467129 0)
(-0.000647051 -0.0467559 0)
(-0.000190567 -0.047874 0)
(-0.000274709 -0.0481 0)
(1.05522e-05 -0.0470123 0)
(-0.000236844 -0.0474764 0)
(0.00112641 -0.0483878 0)
(0.000764183 -0.0478389 0)
(0.000275809 -0.0479154 0)
(0.000456443 -0.0482639 0)
(0.000654382 -0.0474897 0)
(0.000525278 -0.0451888 0)
(9.91744e-05 -0.0459441 0)
(0.00115392 -0.0476534 0)
(-0.000217115 -0.0475185 0)
(5.59391e-05 -0.0477515 0)
(-0.000225354 -0.048153 0)
(-0.000169961 -0.0461827 0)
(0.000270845 -0.0437777 0)
(-0.000585447 -0.0436362 0)
(0.000259118 -0.0453963 0)
(-0.000339106 -0.0458025 0)
(0.000152399 -0.0454645 0)
(-0.000167346 -0.0445172 0)
(-0.00206257 -0.0488167 0)
(-0.000404365 -0.0521042 0)
(-0.000136618 -0.0527791 0)
(-0.000317644 -0.0522598 0)
(0.00111494 -0.0510955 0)
(0.000623973 -0.0507869 0)
(0.000165477 -0.049923 0)
(-0.000733449 -0.0496171 0)
(-0.00108353 -0.0491584 0)
(-0.0012715 -0.0487686 0)
(-0.000698233 -0.0491386 0)
(-0.000321086 -0.0494541 0)
(-0.000135214 -0.0483346 0)
(-2.10413e-05 -0.0487765 0)
(-0.000366389 -0.0474778 0)
(-0.000517196 -0.0461072 0)
(3.05463e-06 -0.0458491 0)
(-0.00059101 -0.0458718 0)
(-0.000101874 -0.0477346 0)
(0.00100822 -0.0466047 0)
(0.00134081 -0.046095 0)
(0.000731714 -0.0464782 0)
(0.000205334 -0.047915 0)
(-0.000975669 -0.0483758 0)
(-0.000392754 -0.0482954 0)
(-0.000467032 -0.0480497 0)
(0.000516946 -0.0477309 0)
(-0.000208739 -0.0490051 0)
(-0.000335949 -0.0473296 0)
(-0.000614321 -0.0482456 0)
(-0.00119501 -0.0489804 0)
(0.000106955 -0.0483809 0)
(-0.00026993 -0.0477022 0)
(-0.000238241 -0.0483888 0)
(4.6879e-05 -0.0486308 0)
(0.000205032 -0.0487196 0)
(0.000332009 -0.0482998 0)
(0.0006898 -0.0479461 0)
(0.00257366 -0.0479755 0)
(5.90797e-05 -0.047962 0)
(-0.00038848 -0.0479373 0)
(-0.00139621 -0.0482718 0)
(-0.000521431 -0.0490749 0)
(-3.66936e-05 -0.0489011 0)
(-0.000201054 -0.0499025 0)
(-0.000137288 -0.0483855 0)
(-0.000427468 -0.0473702 0)
(0.000229429 -0.0487166 0)
(-0.000350683 -0.0493351 0)
(-0.000223596 -0.0476309 0)
(0.000191744 -0.0456034 0)
(0.000667091 -0.0494854 0)
(-0.000321728 -0.0504899 0)
(-0.000531544 -0.0498575 0)
(0.000708998 -0.050181 0)
(-8.17333e-05 -0.0492066 0)
(7.86185e-05 -0.0487962 0)
(9.03278e-05 -0.047926 0)
(-0.000728704 -0.0473278 0)
(-0.000473597 -0.0460771 0)
(-0.00012974 -0.0469019 0)
(9.72661e-05 -0.0469416 0)
(0.000153003 -0.0472466 0)
(9.16288e-05 -0.0480229 0)
(4.29397e-05 -0.0483854 0)
(-0.000210787 -0.0482585 0)
(-0.000226917 -0.0476701 0)
(-5.96324e-05 -0.0450218 0)
(-0.000420713 -0.0446081 0)
(-0.00108872 -0.044077 0)
(0.000569044 -0.0466973 0)
(-0.000128402 -0.0476427 0)
(0.000457556 -0.0501288 0)
(0.000337422 -0.0507189 0)
(0.000384229 -0.0515982 0)
(0.000260307 -0.0511543 0)
(-7.65577e-05 -0.0508759 0)
(0.000163479 -0.0509555 0)
(0.000174557 -0.0498176 0)
(0.000194733 -0.0489854 0)
(-0.00277634 -0.0490583 0)
(-0.000331209 -0.0490902 0)
(0.000489825 -0.0493172 0)
(0.000428262 -0.0495736 0)
(-2.57447e-05 -0.0490556 0)
(0.000127622 -0.0475419 0)
(0.000192185 -0.0483197 0)
(-0.000179089 -0.0497177 0)
(-0.00111834 -0.0491308 0)
(8.80951e-06 -0.0490288 0)
(0.000575626 -0.0489725 0)
(0.000408784 -0.0488319 0)
(-0.000485669 -0.0490249 0)
(-0.00149764 -0.0487331 0)
(0.00217382 -0.0467532 0)
(-0.000702378 -0.0484731 0)
(-0.000276029 -0.0497349 0)
(-0.000237328 -0.0504856 0)
(0.00074327 -0.0486591 0)
(0.000385758 -0.0501161 0)
(0.000252639 -0.0481848 0)
(-0.000438043 -0.0485325 0)
(0.000107014 -0.0467625 0)
(-0.00155176 -0.0495169 0)
(-0.000355342 -0.0486043 0)
(-0.000224438 -0.0493306 0)
(0.000346509 -0.0483818 0)
(0.000295603 -0.0475353 0)
(-2.35614e-05 -0.0482214 0)
(0.000313115 -0.047307 0)
(0.000113925 -0.0477058 0)
(-0.000139056 -0.0474473 0)
(0.00034324 -0.0464886 0)
(-0.000236429 -0.0502738 0)
(-0.000930924 -0.049239 0)
(0.000288466 -0.0484803 0)
(-0.000318236 -0.0498086 0)
(-0.000228369 -0.0497026 0)
(-8.35364e-05 -0.0495638 0)
(-0.000811413 -0.0470629 0)
(0.000456357 -0.0470192 0)
(0.000964015 -0.0492143 0)
(-0.00024068 -0.0484408 0)
(-0.00161822 -0.0478456 0)
(-0.000625906 -0.0504013 0)
(0.000125252 -0.0506522 0)
(7.64091e-05 -0.0520493 0)
(-0.000372196 -0.0526667 0)
(0.000893316 -0.052283 0)
(0.000480833 -0.0528119 0)
(6.19011e-05 -0.0529081 0)
(-8.65406e-05 -0.053699 0)
(-4.04903e-05 -0.0522547 0)
(-0.000375231 -0.0506135 0)
(-0.000200814 -0.0509778 0)
(-0.00037576 -0.0508316 0)
(-7.81804e-05 -0.0505483 0)
(-0.000218064 -0.049513 0)
(0.000216996 -0.0502894 0)
(0.000982351 -0.0497929 0)
(0.000633813 -0.0494496 0)
(0.000695964 -0.0524768 0)
(0.000296804 -0.0497178 0)
(-7.83703e-05 -0.050526 0)
(-0.000826596 -0.0518625 0)
(0.000376772 -0.0513378 0)
(-6.27342e-05 -0.0511854 0)
(0.000418231 -0.0504462 0)
(0.00056532 -0.0492106 0)
(0.000562142 -0.0482173 0)
(0.000271884 -0.0487811 0)
(-1.2936e-05 -0.050867 0)
(-0.000264892 -0.047675 0)
(0.000358392 -0.0468782 0)
(-1.02384e-05 -0.0505358 0)
(0.000218001 -0.0508485 0)
(0.000590964 -0.0483913 0)
(0.000221789 -0.0465751 0)
(0.00185805 -0.045695 0)
(0.000758417 -0.0471599 0)
(0.00043338 -0.0484123 0)
(0.000387798 -0.0483586 0)
(-0.000151045 -0.048317 0)
(-0.00059896 -0.0487909 0)
(-0.000858628 -0.0476575 0)
(0.000532463 -0.047409 0)
(-0.00169617 -0.0500266 0)
(0.000224135 -0.0495946 0)
(-0.000330844 -0.0497097 0)
(-0.000570321 -0.0520963 0)
(-0.000106682 -0.0532611 0)
(-0.000380588 -0.0530421 0)
(0.000286447 -0.0531643 0)
(0.000267099 -0.0529254 0)
(-0.00118028 -0.0518728 0)
(-0.000266762 -0.0516259 0)
(-0.00169184 -0.0498989 0)
(0.00053216 -0.0522165 0)
(0.000550482 -0.0529232 0)
(0.00125882 -0.0533202 0)
(-0.000280168 -0.0543172 0)
(0.000706629 -0.054949 0)
(0.00125523 -0.0542062 0)
(0.000192426 -0.0541604 0)
(3.32896e-05 -0.0533792 0)
(2.08824e-06 -0.0555848 0)
(0.000180954 -0.0550246 0)
(-0.000241738 -0.053587 0)
(3.63128e-05 -0.0530038 0)
(-0.000433935 -0.0496935 0)
(-0.000290954 -0.0493825 0)
(-8.78537e-05 -0.0505933 0)
(0.000127741 -0.0507034 0)
(0.00011392 -0.0508048 0)
(0.000720073 -0.0510228 0)
(-6.71709e-05 -0.0508175 0)
(2.81686e-05 -0.051459 0)
(-0.000218209 -0.0506573 0)
(-0.000334756 -0.051422 0)
(0.000381939 -0.051564 0)
(-7.54972e-05 -0.0502587 0)
(0.000295424 -0.0501118 0)
(0.000578747 -0.0478018 0)
(-3.4154e-05 -0.0485449 0)
(0.000227414 -0.048129 0)
(-0.000486009 -0.0476786 0)
(0.000470591 -0.046963 0)
(5.68288e-05 -0.0484276 0)
(0.000553825 -0.0490485 0)
(-4.59816e-05 -0.0475749 0)
(0.000538169 -0.0457126 0)
(0.00107624 -0.0456674 0)
(0.000743868 -0.0465307 0)
(9.4952e-05 -0.0485024 0)
(-0.000910962 -0.0488493 0)
(-0.000423937 -0.0481771 0)
(-0.000485608 -0.0465164 0)
(0.000290759 -0.0468557 0)
(-0.000611277 -0.04934 0)
(1.99905e-05 -0.0488149 0)
(-0.000262462 -0.0488879 0)
(-5.39213e-05 -0.0497035 0)
(-8.75104e-05 -0.0499119 0)
(-0.000273101 -0.0516998 0)
(-0.000762967 -0.0539151 0)
(6.44934e-05 -0.055213 0)
(-0.000306815 -0.0554928 0)
(-9.5352e-05 -0.0555712 0)
(0.00040797 -0.0553466 0)
(-5.23217e-05 -0.0545115 0)
(0.000465156 -0.0545614 0)
(0.000829986 -0.054419 0)
(0.000360547 -0.0538668 0)
(-8.3529e-05 -0.0562361 0)
(0.000493295 -0.0553884 0)
(0.00144088 -0.0530964 0)
(-0.000216936 -0.0533187 0)
(-0.000399929 -0.0527932 0)
(0.00015495 -0.0521907 0)
(-1.57027e-05 -0.0520531 0)
(0.000488113 -0.0509885 0)
(4.0139e-05 -0.0517696 0)
(-0.00114339 -0.0508697 0)
(-0.000381144 -0.0498663 0)
(-0.00147315 -0.0483186 0)
(-0.000269947 -0.0501542 0)
(-0.000402221 -0.0508911 0)
(0.000137265 -0.0516859 0)
(0.000368514 -0.051723 0)
(-0.000536912 -0.0505626 0)
(-0.000215486 -0.049745 0)
(0.000229954 -0.0495827 0)
(-4.17408e-05 -0.0488097 0)
(-2.59496e-05 -0.0484904 0)
(0.00033428 -0.0488608 0)
(-0.000357476 -0.0484789 0)
(0.000180366 -0.0469161 0)
(-0.000527332 -0.0457568 0)
(0.000652095 -0.0492079 0)
(-0.000611702 -0.047151 0)
(-0.000199365 -0.0480776 0)
(-0.000182062 -0.0487222 0)
(0.0014259 -0.0484982 0)
(0.000512296 -0.0486984 0)
(-0.000220872 -0.0477554 0)
(-8.73858e-05 -0.0471427 0)
(0.0004323 -0.0487625 0)
(-8.3627e-05 -0.0478318 0)
(0.000795665 -0.0459489 0)
(0.00218308 -0.0451951 0)
(-0.000570745 -0.0469563 0)
(-0.000213307 -0.0481758 0)
(0.000665933 -0.0461468 0)
(0.000328464 -0.0469824 0)
(-0.000126434 -0.0476377 0)
(-0.000739007 -0.0472668 0)
(-0.000636279 -0.0484605 0)
(-0.000371419 -0.0520177 0)
(-0.000404352 -0.0509168 0)
(0.000108537 -0.0508064 0)
(-0.000248157 -0.0524985 0)
(-0.00199477 -0.0544847 0)
(-0.000591271 -0.0555313 0)
(0.000228279 -0.0551567 0)
(-0.000101083 -0.0521538 0)
(-0.000225487 -0.054192 0)
(2.08232e-05 -0.0542762 0)
(-0.000200499 -0.0512524 0)
(7.88643e-05 -0.0516181 0)
(-0.00102689 -0.0495722 0)
(-0.000753748 -0.0507226 0)
(0.000398987 -0.0501906 0)
(9.47079e-05 -0.0494809 0)
(-0.000567624 -0.0493867 0)
(-0.000728442 -0.0497924 0)
(-5.70104e-05 -0.0489586 0)
(0.000196597 -0.0500838 0)
(-2.36251e-05 -0.0506376 0)
(-3.98821e-05 -0.0483797 0)
(0.000316116 -0.0494845 0)
(0.000193787 -0.050446 0)
(-0.000299358 -0.0508922 0)
(-0.000338083 -0.0500605 0)
(0.000104957 -0.0466151 0)
(0.000211638 -0.0488744 0)
(-0.00115066 -0.0485549 0)
(0.000845188 -0.0463348 0)
(-4.63284e-05 -0.0489301 0)
(-2.25159e-06 -0.0483289 0)
(-0.000614436 -0.0455845 0)
(0.0010547 -0.0469801 0)
(0.00127706 -0.0467094 0)
(0.000615592 -0.0465169 0)
(0.00043961 -0.0493884 0)
(0.00100849 -0.0487961 0)
(0.0013476 -0.0471004 0)
(0.00112144 -0.0502096 0)
(0.000399236 -0.0500543 0)
(0.000490876 -0.0489789 0)
(0.000145423 -0.0489826 0)
(-0.000760905 -0.0501827 0)
(-0.000405848 -0.0473578 0)
(-0.000350546 -0.0463974 0)
(-0.000436082 -0.0457255 0)
(0.000182703 -0.045029 0)
(0.00116555 -0.0423019 0)
(0.000720789 -0.0425716 0)
(0.000100917 -0.0420519 0)
(-1.82862e-05 -0.0415691 0)
(0.000378105 -0.0426515 0)
(6.34988e-05 -0.0431882 0)
(0.000424162 -0.0432578 0)
(0.00101035 -0.0450777 0)
(0.00183703 -0.0469425 0)
(-0.000718839 -0.0466087 0)
(-0.000137829 -0.0511826 0)
(0.00091115 -0.0511675 0)
(0.000135572 -0.051881 0)
(0.000650069 -0.0528276 0)
(-0.000245959 -0.0513596 0)
(-0.000100135 -0.0515136 0)
(-0.000473611 -0.0509874 0)
(-0.0006401 -0.0499813 0)
(0.00028962 -0.0485365 0)
(-0.000744006 -0.0489912 0)
(-0.00016438 -0.049958 0)
(-0.000699322 -0.048053 0)
(-0.000444191 -0.0492614 0)
(-7.1672e-05 -0.049554 0)
(0.00137571 -0.0490873 0)
(0.000405759 -0.0500847 0)
(0.000143447 -0.0502126 0)
(-5.93426e-05 -0.0503746 0)
(-0.000523152 -0.0502406 0)
(-0.000860596 -0.0486418 0)
(-0.000574442 -0.0467933 0)
(-0.00134988 -0.0466371 0)
(0.000440752 -0.0476867 0)
(3.35683e-05 -0.0500433 0)
(5.65354e-05 -0.045076 0)
(0.000150099 -0.0468597 0)
(-1.09921e-05 -0.0481317 0)
(5.63411e-05 -0.0456424 0)
(-0.000527789 -0.0443586 0)
(0.000877364 -0.0471872 0)
(-0.000215901 -0.0492983 0)
(0.000210682 -0.0503759 0)
(0.000691819 -0.0507913 0)
(-0.00094301 -0.0484882 0)
(-0.00047208 -0.050608 0)
(0.000996319 -0.0493104 0)
(6.23682e-06 -0.0493983 0)
(9.07767e-05 -0.0487553 0)
(-0.000532877 -0.0474435 0)
(-0.00104373 -0.047567 0)
(-0.00126615 -0.0471909 0)
(-0.000957202 -0.0466261 0)
(0.000121106 -0.0477257 0)
(0.000286228 -0.0461593 0)
(-0.00309931 -0.0423258 0)
(-8.30856e-05 -0.0440558 0)
(0.00130262 -0.0405729 0)
(0.0030079 -0.0422039 0)
(0.00381194 -0.0411199 0)
(0.00341082 -0.0423186 0)
(0.00120695 -0.0415065 0)
(0.00057883 -0.0482934 0)
(0.000314774 -0.0493649 0)
(-4.30956e-05 -0.0491674 0)
(-0.000577313 -0.0485148 0)
(-0.0023336 -0.050128 0)
(-0.00135547 -0.046457 0)
(0.00066371 -0.0461467 0)
(-0.00107303 -0.0454152 0)
(-0.000425071 -0.046161 0)
(4.40281e-05 -0.047653 0)
(0.000427625 -0.0478842 0)
(-0.000422036 -0.0503918 0)
(-0.000379511 -0.0492401 0)
(-0.000237963 -0.0479617 0)
(1.86084e-05 -0.0492993 0)
(0.00163764 -0.0510407 0)
(0.000784066 -0.0497592 0)
(-0.000112879 -0.0493526 0)
(-2.65151e-05 -0.049162 0)
(-0.000240281 -0.0490711 0)
(-5.17284e-05 -0.0484988 0)
(-0.000269889 -0.0459823 0)
(-0.000285379 -0.0454123 0)
(0.000138895 -0.0464786 0)
(-6.57238e-05 -0.0507476 0)
(0.000229378 -0.0440459 0)
(0.00153393 -0.0468505 0)
(-0.000163527 -0.044125 0)
(-0.00146707 -0.0467966 0)
(-0.000192682 -0.0450674 0)
(-8.5744e-05 -0.0464728 0)
(0.00102901 -0.0476087 0)
(0.00115046 -0.0474865 0)
(0.000465342 -0.0504519 0)
(-0.000248373 -0.0511115 0)
(0.00013592 -0.0511387 0)
(0.000635899 -0.051343 0)
(-8.8481e-06 -0.0482147 0)
(-8.6208e-05 -0.0491134 0)
(-0.000109828 -0.0490953 0)
(-0.00188208 -0.0463932 0)
(-0.000443787 -0.046406 0)
(-0.00095636 -0.0470402 0)
(-9.40491e-05 -0.0465529 0)
(-0.00134475 -0.0486917 0)
(-0.000783828 -0.0460292 0)
(0.000268606 -0.0504672 0)
(0.00185927 -0.0446857 0)
(0.00137965 -0.0458837 0)
(0.000695027 -0.0468402 0)
(0.000735043 -0.0460873 0)
(8.20125e-05 -0.0460389 0)
(0.000681575 -0.0467666 0)
(0.000389168 -0.046613 0)
(9.14072e-05 -0.0429926 0)
(-0.000533427 -0.0468897 0)
(-0.000283559 -0.0463538 0)
(-0.000947345 -0.0452169 0)
(0.000198383 -0.0448964 0)
(-0.000322325 -0.0471139 0)
(-0.000302533 -0.047063 0)
(-0.000463906 -0.0459205 0)
(-0.000984712 -0.0458871 0)
(-0.000426292 -0.0464888 0)
(-0.000160216 -0.0469453 0)
(0.000580143 -0.0498015 0)
(0.00200247 -0.0497867 0)
(0.00017191 -0.0501794 0)
(6.77531e-05 -0.0490216 0)
(-0.000109332 -0.0486909 0)
(-0.000457719 -0.0479873 0)
(0.000229636 -0.0480862 0)
(0.000451931 -0.0479812 0)
(-0.0001916 -0.0485117 0)
(-0.000199697 -0.0484479 0)
(-0.000283958 -0.0483868 0)
(0.000255867 -0.0478604 0)
(0.000387114 -0.0458784 0)
(-0.000310253 -0.0457627 0)
(-0.00090767 -0.04406 0)
(0.0007078 -0.0435634 0)
(8.6803e-05 -0.0484028 0)
(0.000576917 -0.046613 0)
(0.000114314 -0.0454647 0)
(0.000358718 -0.0461496 0)
(-2.04084e-05 -0.0520761 0)
(0.000151898 -0.0515041 0)
(0.000198678 -0.0510589 0)
(-0.00012596 -0.0487109 0)
(-0.000211722 -0.0478353 0)
(2.08262e-05 -0.0480441 0)
(-0.000843893 -0.0462395 0)
(-0.00021527 -0.0466813 0)
(7.53018e-06 -0.0481952 0)
(0.000224356 -0.0476632 0)
(0.000934343 -0.0483998 0)
(3.6038e-06 -0.052282 0)
(-0.00197193 -0.0518483 0)
(-0.00236591 -0.0506938 0)
(0.000442928 -0.0488593 0)
(0.000586899 -0.0494133 0)
(0.000378214 -0.0481282 0)
(-0.00011789 -0.0470474 0)
(0.000364565 -0.0465708 0)
(0.000817907 -0.0458691 0)
(0.000760986 -0.0455947 0)
(-2.58592e-05 -0.0451879 0)
(0.000393795 -0.0459193 0)
(-3.39817e-05 -0.0449687 0)
(0.000224798 -0.0450633 0)
(-0.000324681 -0.045815 0)
(-0.00111242 -0.0458832 0)
(-0.000178998 -0.0452759 0)
(-0.000543896 -0.0452279 0)
(-0.000239526 -0.0457063 0)
(0.000647411 -0.0454042 0)
(0.000161793 -0.0480369 0)
(0.00121328 -0.0482998 0)
(0.00063601 -0.0492741 0)
(0.000279889 -0.0483732 0)
(-0.00117726 -0.0464743 0)
(-0.000621192 -0.0473119 0)
(-0.000557694 -0.0474308 0)
(-1.69606e-05 -0.0460598 0)
(-6.47228e-05 -0.048046 0)
(2.43232e-05 -0.0485094 0)
(4.24965e-05 -0.0486525 0)
(7.66532e-05 -0.0488141 0)
(0.00109254 -0.0453374 0)
(-3.16373e-05 -0.0453491 0)
(-0.000486162 -0.0457303 0)
(-0.000519939 -0.0463764 0)
(-0.0011261 -0.0443432 0)
(0.000545534 -0.0480238 0)
(-0.000891587 -0.0491303 0)
(-0.000584209 -0.0488154 0)
(0.00103697 -0.0487519 0)
(-0.000440525 -0.049478 0)
(0.000136722 -0.049753 0)
(0.000121474 -0.0499617 0)
(-0.000702475 -0.0471344 0)
(-0.000206603 -0.0480483 0)
(0.000454474 -0.0454736 0)
(-0.000453001 -0.0470302 0)
(-0.000208314 -0.0475178 0)
(-0.00025842 -0.048678 0)
(-7.76662e-05 -0.0466776 0)
(0.00219671 -0.0472924 0)
(0.0011077 -0.0495554 0)
(7.97797e-05 -0.0508397 0)
(-0.000430958 -0.0530583 0)
(-0.000657506 -0.0511462 0)
(-0.000642106 -0.0488466 0)
(0.000836454 -0.0471765 0)
(0.000306904 -0.0471859 0)
(0.000410993 -0.0482573 0)
(0.00136404 -0.0476626 0)
(0.00113906 -0.0459883 0)
(0.000681434 -0.0443328 0)
(0.000525882 -0.044449 0)
(3.04544e-06 -0.0447112 0)
(-0.000199201 -0.0456796 0)
(-0.000722862 -0.0463626 0)
(-0.000707415 -0.0470025 0)
(0.000645364 -0.0452182 0)
(0.000396997 -0.043697 0)
(0.000363298 -0.0444394 0)
(0.000654847 -0.0449685 0)
(0.000608028 -0.0459421 0)
(4.55808e-05 -0.047226 0)
(-0.000233917 -0.0483319 0)
(0.00055714 -0.0480207 0)
(-0.000479352 -0.0463797 0)
(-0.000545618 -0.0470155 0)
(-0.00014236 -0.0472421 0)
(-1.78752e-05 -0.0468625 0)
(0.000424421 -0.0471751 0)
(0.000362815 -0.0458198 0)
(0.000301274 -0.0462038 0)
(0.000251076 -0.0462088 0)
(-0.000626286 -0.0470773 0)
(-0.00213756 -0.0473841 0)
(0.00095196 -0.0492324 0)
(-0.000462917 -0.0494516 0)
(-0.00116405 -0.046838 0)
(-0.00161275 -0.0477986 0)
(-0.000301855 -0.0496289 0)
(0.000360379 -0.0509448 0)
(0.000297889 -0.0489384 0)
(0.00130254 -0.0506328 0)
(-7.7354e-06 -0.0490446 0)
(-0.000534797 -0.0486525 0)
(-0.00193247 -0.0462583 0)
(0.000853198 -0.0469663 0)
(0.000602635 -0.0487373 0)
(0.000496248 -0.0501044 0)
(-0.00168482 -0.0487046 0)
(-0.000139212 -0.0493469 0)
(2.58722e-05 -0.0504959 0)
(0.000151904 -0.0499594 0)
(-0.00026475 -0.0498531 0)
(3.16819e-05 -0.0501622 0)
(-0.000622805 -0.0510661 0)
(-0.000583107 -0.0509266 0)
(-0.00057888 -0.0494026 0)
(-0.00153619 -0.0501512 0)
(0.000447263 -0.0494933 0)
(-8.87391e-05 -0.0480298 0)
(0.000705702 -0.0476438 0)
(0.000711136 -0.046525 0)
(0.000318669 -0.0450289 0)
(0.00010861 -0.0438286 0)
(-0.000218344 -0.0449094 0)
(-0.000780349 -0.0465794 0)
(-0.00136909 -0.0474333 0)
(0.000101241 -0.0460866 0)
(0.000767766 -0.0443017 0)
(5.10124e-05 -0.0454736 0)
(-0.000178571 -0.0457527 0)
(-8.0026e-05 -0.0461383 0)
(0.00067025 -0.0474269 0)
(-0.000173956 -0.0472716 0)
(0.000279824 -0.047031 0)
(0.000172678 -0.0467221 0)
(-0.000821014 -0.0468904 0)
(-0.000313406 -0.0474379 0)
(-0.00071255 -0.0480713 0)
(-0.000382343 -0.0475318 0)
(0.000684985 -0.0470742 0)
(0.000734671 -0.0463475 0)
(0.000614467 -0.046197 0)
(0.000792586 -0.0456672 0)
(-0.000602174 -0.0426098 0)
(-0.00118988 -0.0452624 0)
(-0.00112253 -0.0454757 0)
(-0.00081904 -0.045917 0)
(0.000393472 -0.0485515 0)
(9.39321e-05 -0.0487454 0)
(0.000337703 -0.0477919 0)
(0.000545275 -0.0499631 0)
(0.00114742 -0.0510403 0)
(-0.000702557 -0.050013 0)
(-0.000466861 -0.047552 0)
(0.000591345 -0.0489061 0)
(-2.29533e-05 -0.0484604 0)
(0.000696292 -0.0465739 0)
(0.000186915 -0.0493226 0)
(-0.000475681 -0.050033 0)
(0.000427971 -0.0498782 0)
(-0.000633254 -0.0495463 0)
(-0.000357384 -0.0485365 0)
(0.000675648 -0.0501801 0)
(0.000120713 -0.0523179 0)
(0.000214558 -0.0516308 0)
(-0.000335767 -0.0527104 0)
(-3.83716e-05 -0.0534682 0)
(-8.91976e-05 -0.0528094 0)
(0.000125308 -0.0512047 0)
(0.000125399 -0.0502701 0)
(9.50499e-05 -0.0508836 0)
(-9.04844e-05 -0.0495487 0)
(0.000227223 -0.0484007 0)
(0.000104542 -0.0466103 0)
(-0.000358754 -0.0475249 0)
(0.000563513 -0.0477067 0)
(-0.000197512 -0.0491773 0)
(-0.00020354 -0.0493711 0)
(0.000151201 -0.0494191 0)
(0.000163266 -0.0490688 0)
(0.000274099 -0.0488985 0)
(7.15934e-05 -0.0468109 0)
(-0.000421443 -0.0479722 0)
(-0.000215062 -0.0458982 0)
(0.000270816 -0.0457428 0)
(-0.000309616 -0.0445676 0)
(-0.000368913 -0.042478 0)
(0.000987805 -0.0437581 0)
(-0.000245174 -0.0465597 0)
(-0.00056139 -0.0472975 0)
(0.000314877 -0.0479619 0)
(0.000373862 -0.0483772 0)
(0.000383808 -0.045747 0)
(0.000720889 -0.0460963 0)
(-0.000243414 -0.0455792 0)
(0.000856424 -0.0424055 0)
(-0.000134114 -0.0455327 0)
(-0.000217539 -0.0476779 0)
(-3.16727e-05 -0.048248 0)
(0.000707168 -0.0468091 0)
(0.000226953 -0.0452243 0)
(0.00042599 -0.0465506 0)
(0.000707459 -0.0482456 0)
(0.000174058 -0.0494194 0)
(0.000492426 -0.048314 0)
(-0.000138442 -0.0482939 0)
(5.3548e-05 -0.0448253 0)
(-0.00141702 -0.046415 0)
(0.00101697 -0.0470031 0)
(0.00176676 -0.0479983 0)
(-0.000864725 -0.0493652 0)
(-0.000521945 -0.0490966 0)
(-0.00130711 -0.0482569 0)
(-0.000224953 -0.0493686 0)
(2.73804e-05 -0.050463 0)
(-0.00013487 -0.0512005 0)
(-0.000847243 -0.0523906 0)
(9.16701e-05 -0.0511015 0)
(0.000253975 -0.0518858 0)
(-0.000160242 -0.0529253 0)
(0.000316294 -0.0528903 0)
(-0.000289807 -0.0523659 0)
(-9.14609e-05 -0.0520331 0)
(0.000416626 -0.0513839 0)
(-6.77559e-05 -0.0515014 0)
(-0.00036751 -0.051532 0)
(-0.000283083 -0.0501179 0)
(-3.2886e-06 -0.0486207 0)
(0.000448865 -0.0479134 0)
(-0.00054859 -0.0513378 0)
(-0.000182454 -0.0496436 0)
(0.000424236 -0.0493801 0)
(0.000511075 -0.0501038 0)
(0.000905876 -0.0498799 0)
(0.000868247 -0.0498887 0)
(-0.00259551 -0.0473827 0)
(-0.000656009 -0.0474805 0)
(-0.000225333 -0.0480911 0)
(-0.000236707 -0.0452202 0)
(-0.000298559 -0.0448383 0)
(-0.000244237 -0.0480048 0)
(0.000227307 -0.0464826 0)
(-0.000441177 -0.0450103 0)
(0.000254714 -0.0477451 0)
(0.000323418 -0.0485058 0)
(0.000860937 -0.0475489 0)
(0.00264058 -0.0465556 0)
(0.000545764 -0.0461265 0)
(0.000477892 -0.0460131 0)
(-0.000460393 -0.0452192 0)
(-0.00081581 -0.0492373 0)
(-0.000768425 -0.0504649 0)
(-0.000660483 -0.0505267 0)
(2.09854e-05 -0.0521717 0)
(8.17558e-05 -0.049974 0)
(0.000240222 -0.0490808 0)
(-0.000297194 -0.0485413 0)
(0.000533688 -0.0497031 0)
(0.000115041 -0.0490399 0)
(0.000803183 -0.0437053 0)
(0.000724946 -0.0435186 0)
(-0.00101485 -0.0447962 0)
(-0.000707935 -0.0477382 0)
(-0.000290197 -0.0466953 0)
(0.000856334 -0.0456454 0)
(-0.000302996 -0.0467804 0)
(-0.00086092 -0.0478062 0)
(0.000882778 -0.0490105 0)
(0.00056829 -0.0504365 0)
(-0.000156638 -0.0501443 0)
(-0.000515465 -0.0511964 0)
(8.38632e-05 -0.0529366 0)
(5.23856e-05 -0.0531578 0)
(0.000306019 -0.0530566 0)
(0.00058087 -0.0531499 0)
(-0.000250946 -0.0532238 0)
(0.000519811 -0.0527935 0)
(0.00106726 -0.0525528 0)
(0.000563968 -0.0534471 0)
(-0.000574267 -0.053407 0)
(0.000186054 -0.0526591 0)
(-0.000441134 -0.0521429 0)
(-0.000607334 -0.0516611 0)
(-0.000464788 -0.0499084 0)
(-0.000370063 -0.0522166 0)
(-0.000514468 -0.0513081 0)
(0.00068295 -0.0497023 0)
(0.00103857 -0.0475882 0)
(0.00108801 -0.049554 0)
(-0.000643906 -0.0483856 0)
(-0.000418579 -0.0481352 0)
(0.000126973 -0.0482638 0)
(-0.000218015 -0.0475966 0)
(-0.000329551 -0.0471245 0)
(-0.00136687 -0.0508166 0)
(0.000324972 -0.0518103 0)
(0.000614473 -0.0496508 0)
(0.00118647 -0.0490562 0)
(-0.000154918 -0.0492209 0)
(5.67167e-06 -0.0501022 0)
(0.000713902 -0.049784 0)
(0.00144743 -0.04841 0)
(0.000928292 -0.0471854 0)
(0.000768531 -0.0514509 0)
(0.0023037 -0.0473414 0)
(-0.000276446 -0.0509143 0)
(-0.00035746 -0.0506832 0)
(0.000642186 -0.0483731 0)
(0.00033274 -0.0488544 0)
(0.000164774 -0.0487625 0)
(-0.000149523 -0.049921 0)
(-0.000882975 -0.0507309 0)
(-0.000252077 -0.0507801 0)
(0.000614565 -0.0435859 0)
(0.000177809 -0.0453856 0)
(-0.000149101 -0.0470053 0)
(0.000426152 -0.045181 0)
(0.000380835 -0.0458393 0)
(-0.00073758 -0.0467125 0)
(-0.00103855 -0.049735 0)
(-0.00118272 -0.0470892 0)
(-0.0004348 -0.0483346 0)
(0.000297619 -0.0515402 0)
(0.000475852 -0.0520954 0)
(-0.000295598 -0.0506276 0)
(-0.000121906 -0.0520486 0)
(0.000318793 -0.0531389 0)
(0.000587816 -0.0532454 0)
(0.000315281 -0.0529562 0)
(2.69963e-05 -0.0531334 0)
(0.000737954 -0.0527626 0)