/*--------------------------------*- C++ -*----------------------------------*\
  =========                 |
  \\      /  F ield         | OpenFOAM: The Open Source CFD Toolbox
   \\    /   O peration     | Website:  https://openfoam.org
    \\  /    A nd           | Version:  12
     \\/     M anipulation  |
\*---------------------------------------------------------------------------*/
FoamFile
{
    format      ascii;
    class       volScalarField::Internal;
    location    "0.8";
    object      cloud:UCoeff;
}
// * * * * * * * * * * * * * * * * * * * * * * * * * * * * * * * * * * * * * //

dimensions      [1 0 0 0 0 0 0];

value           nonuniform List<scalar> 
3750
(
1.3054e-05
1.19169e-06
1.3105e-07
7.33225e-08
7.88645e-08
0
8.01826e-08
0
3.35847e-08
0
3.2956e-08
3.65741e-08
3.32239e-08
3.36291e-08
3.39218e-08
7.93002e-08
3.39387e-08
3.35383e-08
8.0285e-08
3.38774e-08
1.07175e-09
3.23666e-08
3.35587e-08
3.44675e-08
3.0606e-08
3.40405e-08
0
0
3.25979e-08
3.29902e-08
3.37389e-08
5.5266e-08
0
0
3.3888e-08
3.40513e-08
0
3.19684e-08
3.48865e-08
7.95093e-08
3.16621e-08
3.44298e-08
3.48117e-08
0
3.35848e-08
7.98941e-08
3.26447e-08
7.96762e-08
3.13928e-08
0
3.20307e-08
3.43986e-08
3.38475e-08
3.40597e-08
3.41014e-08
3.34777e-08
7.9862e-08
7.63996e-08
7.79192e-08
3.3046e-08
0
3.50467e-08
3.44616e-08
8.15953e-08
7.94027e-08
3.2498e-08
8.0659e-08
0
3.32586e-08
3.40089e-08
3.38328e-08
3.4823e-08
3.71481e-08
0
3.37212e-08
5.83892e-05
7.38804e-07
2.28924e-07
3.35154e-08
3.38058e-08
3.37686e-08
7.85705e-08
7.73647e-08
3.34969e-08
0
8.00792e-08
0
3.69592e-08
0
3.34025e-08
3.30906e-08
3.36092e-08
8.28517e-08
3.56376e-08
0
3.49078e-08
3.47791e-08
0
0
3.42075e-08
3.40665e-08
0
3.36062e-08
7.78332e-08
3.06794e-08
4.54045e-08
1.01698e-07
0
0
3.34927e-08
0
0
1.50007e-07
3.4182e-08
3.31353e-08
7.68729e-08
6.00358e-08
5.53924e-09
0
0
0
3.26961e-08
3.44416e-08
3.48681e-08
3.60524e-08
8.22028e-08
3.45787e-08
8.21831e-08
3.47591e-08
0
0
0
8.23526e-08
8.11817e-08
3.29097e-08
7.7275e-08
3.2891e-08
0
3.47396e-08
3.5006e-08
1.42475e-07
7.819e-08
3.24451e-08
3.22732e-08
3.41095e-08
0
3.46079e-08
3.54687e-08
3.58284e-08
3.41812e-08
2.94669e-06
1.60952e-06
9.31933e-08
3.33105e-08
3.34344e-08
3.26935e-08
3.18336e-08
3.27539e-08
3.27118e-08
3.47175e-08
3.50599e-08
0
8.10965e-08
7.9181e-08
0
7.62683e-08
3.40503e-08
0
3.44946e-08
0
4.55758e-08
1.37547e-07
3.25843e-08
0
0
3.40992e-08
3.46221e-08
0
0
3.11494e-08
3.42482e-08
8.0968e-08
0
3.44806e-08
8.13225e-08
0
7.88064e-08
3.42778e-08
8.00806e-08
7.86088e-08
3.25564e-08
3.30827e-08
8.55228e-08
0
4.59765e-08
3.41821e-08
3.3894e-08
8.072e-08
0
0
3.46732e-08
3.37933e-08
3.34552e-08
7.80761e-08
7.92703e-08
0
0
8.03124e-08
0
1.37003e-07
3.17154e-08
0
3.57343e-08
3.20769e-08
8.46505e-08
3.33649e-08
3.32522e-08
3.34509e-08
3.37243e-08
3.40486e-08
1.55317e-08
5.27033e-09
0
3.43437e-08
0
8.47569e-06
9.00919e-07
6.4846e-08
3.0267e-08
3.3699e-08
7.92173e-08
1.39595e-07
5.10523e-08
5.61306e-08
3.44473e-08
0
3.52313e-08
3.49204e-08
3.40518e-08
3.26507e-08
3.36172e-08
7.78618e-08
3.22954e-08
0
7.97068e-08
6.05809e-08
0
3.50622e-08
3.41157e-08
3.4169e-08
0
3.42918e-08
3.45865e-08
7.88081e-08
3.17318e-08
4.18468e-08
2.45489e-08
3.38517e-08
3.3888e-08
3.43562e-08
7.93598e-08
2.9931e-08
3.27285e-08
3.48434e-08
3.45079e-08
3.34436e-08
3.35958e-08
3.53849e-08
3.34732e-08
1.90801e-08
7.82618e-08
3.21644e-08
3.32828e-08
8.74074e-08
0
8.12472e-08
3.14579e-08
3.31859e-08
0
3.28039e-08
3.26932e-08
3.44287e-08
3.44467e-08
7.94175e-08
3.1032e-08
3.21904e-08
3.51793e-08
3.40538e-08
7.82918e-08
3.27136e-08
3.41608e-08
5.38361e-08
1.28437e-08
0
8.13179e-08
3.3494e-08
0
8.66221e-08
3.42319e-08
0
1.53773e-05
1.66447e-06
5.37148e-08
3.49761e-08
3.43658e-08
0
0
0
3.3629e-08
8.20976e-08
3.39535e-08
8.52388e-08
3.34009e-08
3.24497e-08
3.4166e-08
1.60135e-08
4.39136e-08
0
3.39551e-08
3.29629e-08
3.39879e-08
3.58227e-08
3.3309e-08
3.15733e-08
3.22338e-08
3.31082e-08
3.34822e-08
8.41604e-08
3.23392e-08
3.17777e-08
3.27543e-08
3.33064e-08
7.99346e-08
8.60942e-08
3.74803e-08
0
3.29793e-08
7.8268e-08
8.72061e-08
0
3.33368e-08
3.44079e-08
3.39522e-08
3.41247e-08
3.19684e-08
3.31083e-08
7.9943e-08
3.27005e-08
0
8.87256e-08
1.31653e-07
0
3.3663e-08
0
8.25591e-08
0
8.27633e-08
3.3182e-08
3.27194e-08
7.97759e-08
3.30657e-08
3.35034e-08
3.42936e-08
3.40458e-08
3.50688e-08
0
3.43005e-08
3.34877e-08
3.37112e-08
0
0
3.47588e-08
3.43679e-08
3.44159e-08
3.41845e-08
1.54539e-05
8.59334e-07
4.86946e-08
3.42415e-08
3.24569e-08
7.94522e-08
3.3887e-08
3.25157e-08
3.27258e-08
3.35579e-08
3.96388e-08
8.09608e-08
3.35737e-08
3.30135e-08
3.33827e-08
3.42399e-08
0
3.40629e-08
3.45251e-08
8.13434e-08
3.31959e-08
3.42337e-08
8.21184e-08
3.15265e-08
3.22241e-08
3.36325e-08
3.4534e-08
3.45107e-08
3.45035e-08
3.40088e-08
3.39433e-08
3.3328e-08
3.48299e-08
0
0
0
0
0
0
3.57196e-08
6.40215e-08
3.97946e-09
3.46635e-08
3.4278e-08
3.38721e-08
5.1791e-08
5.8265e-08
3.27553e-08
7.86867e-08
3.44785e-08
3.60317e-08
3.52492e-08
3.36341e-08
3.38539e-08
1.44869e-08
5.54424e-09
3.43486e-08
3.30399e-08
3.31765e-08
3.38205e-08
3.23729e-08
3.23091e-08
3.46979e-08
3.53402e-08
0
3.48159e-08
0
3.42103e-08
3.37123e-08
3.4338e-08
0
3.38423e-08
3.44516e-08
3.51617e-08
3.7252e-08
7.33828e-06
1.12052e-06
1.51622e-07
3.33364e-08
0
3.43065e-08
3.35312e-08
0
2.16984e-09
5.15584e-08
5.82566e-08
3.46178e-08
0
3.26354e-08
3.35831e-08
3.43929e-08
0
3.47124e-08
3.46359e-08
8.28564e-08
3.4571e-08
3.48901e-08
8.04376e-08
3.21453e-08
0
3.67322e-08
3.3373e-08
0
0
0
3.43164e-08
3.40014e-08
3.38874e-08
5.44269e-08
5.68973e-08
8.04304e-08
7.96338e-08
7.95822e-08
8.00307e-08
3.33936e-08
3.3275e-08
3.44887e-08
3.43155e-08
3.30852e-08
0
3.26606e-08
3.30343e-08
8.2774e-08
3.22163e-08
3.52357e-08
3.66314e-08
3.50843e-08
3.30469e-08
0
3.3274e-08
3.20331e-08
3.42833e-08
3.41725e-08
7.85047e-08
3.31039e-08
7.87356e-08
3.219e-08
3.42613e-08
3.67206e-08
0
3.45686e-08
3.37222e-08
3.32849e-08
3.29702e-08
3.28425e-08
3.31928e-08
3.35391e-08
3.3771e-08
3.41637e-08
3.50147e-08
8.41765e-06
7.25942e-07
2.36348e-07
3.23317e-08
0
0
0
3.39295e-08
3.39575e-08
3.44524e-08
3.46552e-08
3.44639e-08
3.37867e-08
3.35791e-08
3.37355e-08
3.29193e-08
3.4893e-08
3.30255e-08
0
0
8.71246e-08
3.34376e-08
3.29596e-08
3.25205e-08
3.2861e-08
3.396e-08
0
7.89538e-08
8.16201e-08
8.03524e-08
0
3.37068e-08
3.40963e-08
3.47033e-08
3.4183e-08
3.38862e-08
3.36239e-08
3.27087e-08
0
3.47901e-08
5.96806e-08
7.92717e-09
8.07929e-08
3.27087e-08
8.0026e-08
8.09108e-08
3.17286e-08
3.45113e-08
3.35477e-08
3.43764e-08
0
8.51232e-08
3.32929e-08
0
7.96172e-08
3.24631e-08
7.99915e-08
3.4338e-08
0
3.35141e-08
3.25465e-08
3.32855e-08
3.68671e-08
0
3.62601e-08
4.7507e-08
2.00125e-08
3.4587e-08
3.42753e-08
3.36111e-08
3.36285e-08
0
3.4613e-08
3.44326e-08
3.43498e-08
1.79985e-05
9.2432e-07
1.53273e-07
2.98748e-08
3.23492e-08
3.33966e-08
3.36309e-08
0
3.38107e-08
0
3.53562e-08
3.42211e-08
0
3.44838e-08
0
3.43663e-08
8.17837e-08
0
7.87817e-08
8.58151e-08
8.26128e-08
8.05329e-08
3.24993e-08
3.23938e-08
3.20251e-08
3.37099e-08
3.36796e-08
3.27259e-08
3.39477e-08
3.27453e-08
7.92184e-08
3.3722e-08
3.33913e-08
8.08187e-08
3.3635e-08
3.3909e-08
3.43708e-08
3.45721e-08
8.26587e-08
3.38388e-08
3.3872e-08
3.36061e-08
3.37461e-08
3.41061e-08
3.43719e-08
3.46269e-08
3.17597e-08
3.37397e-08
1.47289e-08
4.63902e-08
8.22541e-08
3.48231e-08
3.31326e-08
3.2551e-08
3.11119e-08
3.18171e-08
0
3.40756e-08
0
3.40343e-08
3.4285e-08
3.36792e-08
3.49365e-08
3.48427e-08
8.45822e-08
3.32481e-08
3.32722e-08
8.29039e-08
7.80835e-08
7.54993e-08
3.07885e-08
3.54026e-08
3.447e-08
3.35781e-08
3.29003e-08
1.54659e-05
1.10534e-06
2.24424e-07
0
3.45081e-08
3.49427e-08
8.79068e-08
3.40949e-08
3.30767e-08
3.40776e-08
3.45631e-08
3.46005e-08
0
0
3.43022e-08
3.38285e-08
3.35733e-08
8.03326e-08
3.27354e-08
0
0
0
8.01154e-08
3.30351e-08
7.80495e-08
7.77595e-08
7.77302e-08
3.12844e-08
3.33518e-08
3.52414e-08
3.36102e-08
3.27201e-08
3.36003e-08
3.37533e-08
3.42223e-08
3.44642e-08
3.43298e-08
3.42764e-08
3.44613e-08
0
3.44756e-08
3.34363e-08
3.3786e-08
0
3.41446e-08
3.4793e-08
4.78525e-08
6.77506e-08
0
3.34286e-08
4.20032e-08
7.31191e-08
3.36167e-08
3.30549e-08
3.26393e-08
3.34655e-08
3.38006e-08
3.41135e-08
3.43243e-08
1.82816e-08
7.06997e-10
3.41356e-08
3.45375e-08
3.39252e-08
8.36931e-08
3.29443e-08
8.31909e-08
3.26584e-08
1.38452e-07
7.44319e-08
1.34722e-07
3.26239e-08
3.38714e-08
3.27302e-08
3.40478e-08
8.8408e-06
1.357e-06
1.50365e-07
3.1022e-08
0
3.43424e-08
8.5152e-08
0
0
7.95909e-08
8.20009e-08
3.40739e-08
8.33105e-08
3.2184e-08
3.27939e-08
3.3545e-08
3.40723e-08
0
8.07818e-08
3.29218e-08
8.08068e-08
8.14084e-08
7.99791e-08
7.85167e-08
0
3.15738e-08
3.16322e-08
3.25272e-08
3.41887e-08
3.48815e-08
0
3.43829e-08
3.42322e-08
3.36511e-08
3.35613e-08
3.38509e-08
3.44891e-08
3.32623e-08
3.46155e-08
0
8.31044e-08
3.2685e-08
3.23012e-08
3.30946e-08
3.41453e-08
0
3.52584e-08
3.47744e-08
8.1383e-08
3.20883e-08
3.27964e-08
3.37402e-08
3.44472e-08
3.36066e-08
3.27412e-08
3.41014e-08
3.44173e-08
3.37785e-08
0
3.28474e-08
3.4761e-08
3.43928e-08
3.46667e-08
0
3.5357e-08
3.41222e-08
3.39814e-08
0
0
3.35785e-08
7.88935e-08
1.44206e-07
7.85971e-08
7.61548e-08
3.06714e-08
1.29834e-05
7.34018e-07
2.32385e-07
7.35721e-08
1.3469e-07
0
0
3.39564e-08
8.05532e-08
3.17702e-08
3.26931e-08
8.68426e-08
3.30131e-08
3.21921e-08
4.43102e-08
6.76472e-08
3.38397e-08
3.37645e-08
3.39643e-08
3.36043e-08
5.9951e-09
2.19993e-08
3.38627e-08
3.35126e-08
0
3.30247e-08
0
3.4324e-08
8.46841e-08
3.36787e-08
3.19348e-08
3.3302e-08
3.44464e-08
1.3089e-08
9.37415e-09
3.43322e-08
8.43934e-08
0
3.40406e-08
3.37925e-08
3.44775e-08
3.34542e-08
3.32161e-08
3.32093e-08
3.3749e-08
3.49276e-08
3.58626e-08
8.33136e-08
3.27397e-08
3.24031e-08
3.28367e-08
3.37564e-08
3.38685e-08
3.40071e-08
3.39528e-08
3.46039e-08
0
3.39784e-08
0
8.02075e-08
5.14111e-08
6.28091e-08
3.38075e-08
0
8.3063e-08
3.24402e-08
0
3.40372e-08
8.26303e-08
0
3.48922e-08
3.64892e-08
1.27026e-08
1.23578e-08
8.07406e-08
7.16374e-06
8.12733e-07
1.77564e-07
3.49127e-08
0
5.10202e-08
6.18473e-08
3.36157e-08
6.0627e-08
4.86432e-08
3.52685e-08
3.40379e-08
3.3202e-08
3.30096e-08
8.11016e-08
3.19592e-08
3.16422e-08
8.12183e-08
3.33919e-08
3.37089e-08
3.38921e-08
3.43567e-08
3.41281e-08
0
3.16635e-08
7.85045e-08
0
0
3.51636e-08
3.51888e-08
8.09113e-08
3.44519e-08
3.43765e-08
3.50093e-08
3.40964e-08
3.39147e-08
3.34874e-08
3.47536e-08
3.41957e-08
3.43546e-08
3.3786e-08
3.36049e-08
8.17867e-08
3.23303e-08
3.25695e-08
8.57343e-08
3.41067e-08
3.24245e-08
3.29589e-08
3.37399e-08
3.36006e-08
3.3054e-08
3.3342e-08
3.38221e-08
3.38561e-08
5.44006e-08
1.28793e-08
3.35685e-08
0
3.30252e-08
3.31794e-08
3.59479e-08
0
3.42824e-08
3.4178e-08
3.42106e-08
3.50079e-08
0
3.39238e-08
3.46215e-08
0
0
3.46396e-08
0
0
1.12302e-05
8.84424e-07
1.61494e-07
0
8.22912e-08
3.5212e-08
0
3.36944e-08
3.42026e-08
5.20505e-08
5.93659e-08
3.43841e-08
3.39311e-08
6.15402e-08
4.66215e-08
3.29041e-08
3.28605e-08
3.39068e-08
3.37355e-08
3.42387e-08
3.38932e-08
5.758e-09
2.35356e-08
3.46055e-08
0
0
3.23006e-08
3.41672e-08
0
0
0
0
8.25061e-08
3.29871e-08
3.37194e-08
8.24583e-08
3.53131e-08
0
3.50533e-08
3.47823e-08
3.51079e-08
3.49775e-08
3.41535e-08
3.356e-08
3.43663e-08
1.69663e-08
4.31974e-08
3.35655e-08
3.4359e-08
3.3573e-08
3.30184e-08
3.35141e-08
3.3923e-08
3.46433e-08
8.1766e-08
3.2287e-08
3.33616e-08
3.35086e-08
3.39446e-08
3.36688e-08
3.3423e-08
3.36926e-08
3.44131e-08
3.49418e-08
0
3.43086e-08
3.41813e-08
3.37375e-08
3.54473e-08
0
3.50794e-08
3.56835e-08
3.44966e-08
0
3.45126e-08
9.71353e-06
1.1069e-06
5.16599e-08
3.3451e-08
3.44081e-08
0
3.32775e-08
3.38662e-08
3.48967e-08
3.46953e-08
3.40421e-08
3.36705e-08
3.35243e-08
3.37077e-08
3.39152e-08
3.35211e-08
8.07326e-08
3.32746e-08
3.57867e-08
0
3.45009e-08
3.46799e-08
0
0
3.32982e-08
3.37228e-08
0
3.4001e-08
3.4665e-08
3.51769e-08
3.45407e-08
8.36776e-08
8.12386e-08
3.38612e-08
0
3.37481e-08
3.36248e-08
3.49883e-08
3.54946e-08
3.38967e-08
3.43984e-08
0
3.34792e-08
3.43665e-08
3.43494e-08
3.41422e-08
0
3.45837e-08
3.47377e-08
0
3.39182e-08
0
0
3.46173e-08
3.44908e-08
3.35587e-08
3.23769e-08
3.45568e-08
8.11923e-08
3.33675e-08
8.29827e-08
0
3.40809e-08
3.51057e-08
0
3.43454e-08
0
0
3.32302e-08
8.6829e-08
3.4548e-08
3.2833e-08
3.35797e-08
3.36709e-08
3.35062e-08
2.0984e-05
5.5302e-07
5.53776e-08
3.6903e-08
0
3.48599e-08
3.45642e-08
3.43556e-08
3.44243e-08
3.49739e-08
3.4649e-08
3.40908e-08
3.4005e-08
3.40195e-08
3.40603e-08
3.372e-08
3.36459e-08
3.29679e-08
3.4261e-08
1.05163e-08
1.50761e-08
0
3.43461e-08
3.40894e-08
3.23853e-08
3.30976e-08
8.11685e-08
3.2471e-08
4.2924e-08
6.89055e-08
8.4036e-08
3.57527e-08
3.41141e-08
0
3.23619e-08
3.32285e-08
3.30869e-08
8.55877e-08
3.37894e-08
3.26911e-08
3.32151e-08
3.45063e-08
0
0
0
3.41494e-08
3.43042e-08
3.40608e-08
3.44852e-08
3.49377e-08
0
3.38987e-08
3.41367e-08
3.39278e-08
3.43763e-08
3.49652e-08
8.41092e-08
3.27592e-08
6.57943e-08
4.17377e-08
3.34947e-08
3.41335e-08
3.4395e-08
3.3284e-08
3.41259e-08
3.46334e-08
3.41821e-08
0
3.33243e-08
8.88484e-08
0
5.58925e-08
5.23899e-08
3.25248e-08
3.38233e-08
4.05628e-05
4.05565e-07
8.40223e-08
5.06811e-09
3.65782e-08
3.52006e-08
3.44659e-08
3.39719e-08
3.38395e-08
3.48209e-08
3.49235e-08
5.85254e-08
5.07758e-08
0
3.37631e-08
3.38177e-08
1.64871e-09
3.14599e-08
3.42452e-08
8.27883e-08
0
3.43605e-08
3.44761e-08
3.52414e-08
3.52579e-08
5.58921e-08
5.24267e-08
5.71194e-08
4.82336e-08
3.13343e-08
3.6098e-08
3.7489e-08
0
8.03462e-08
3.17994e-08
7.94915e-08
3.27054e-08
8.16226e-08
8.40847e-08
3.24928e-08
7.96923e-08
0
3.39509e-08
3.43352e-08
0
3.4478e-08
0
8.00197e-08
0
3.37277e-08
3.37254e-08
3.36001e-08
3.29796e-08
3.27217e-08
8.72169e-08
0
4.20664e-09
2.4985e-08
8.56611e-08
3.35133e-08
3.28628e-08
3.3626e-08
8.31108e-08
3.33216e-08
3.39064e-08
3.38632e-08
3.36788e-08
3.2768e-08
3.47936e-08
3.53832e-08
3.45823e-08
3.39365e-08
3.32595e-08
3.36597e-08
3.37165e-08
8.40231e-06
6.85307e-07
9.27031e-08
0
3.57826e-08
3.60636e-08
8.4011e-08
3.31298e-08
3.27412e-08
8.27723e-08
3.3881e-08
3.30649e-08
0
3.26831e-08
3.37426e-08
1.33585e-08
9.76524e-09
3.4066e-08
0
3.37989e-08
3.4915e-08
3.50348e-08
3.37009e-08
8.59108e-08
3.28486e-09
2.86747e-08
3.40078e-08
7.95147e-08
3.21204e-08
3.29406e-08
3.52338e-08
3.56086e-08
3.57531e-08
3.53768e-08
3.40168e-08
4.92652e-08
6.04717e-08
8.60095e-08
4.3945e-08
6.66466e-08
7.70225e-08
8.33924e-08
3.27054e-08
3.21145e-08
7.71971e-08
3.26778e-08
7.08752e-09
1.84626e-08
7.95936e-08
3.21458e-08
3.30376e-08
7.89551e-08
7.99969e-08
3.35659e-08
0
3.3258e-08
3.43543e-08
0
3.46865e-08
3.4365e-08
3.28063e-08
1.46273e-07
3.24319e-08
4.71558e-08
6.3476e-08
4.12711e-08
6.98802e-08
3.10982e-08
7.92657e-08
3.38926e-08
3.31952e-08
3.39701e-08
0
3.50658e-08
3.39698e-08
2.88539e-05
6.79374e-07
1.03094e-07
3.41457e-08
8.7397e-08
3.5133e-08
3.32579e-08
3.22959e-08
8.11098e-08
3.49706e-08
3.48724e-08
3.29865e-08
3.32563e-08
3.45372e-08
0
3.35581e-08
3.43653e-08
0
7.86784e-08
3.43427e-08
3.57506e-08
3.47643e-08
3.27402e-08
3.47578e-08
0
1.63733e-09
3.14722e-08
3.38453e-08
3.38629e-08
3.49815e-08
3.42923e-08
3.3496e-08
8.68221e-08
3.5046e-08
0
3.32906e-08
3.48084e-08
3.54485e-08
3.49534e-08
3.41353e-08
3.3744e-08
3.43322e-08
3.37832e-08
3.48682e-08
0
8.01395e-08
7.87209e-08
7.96641e-08
1.352e-07
3.17361e-08
3.18778e-08
3.27819e-08
3.29036e-08
8.11124e-08
0
3.41821e-08
0
3.51908e-08
3.54929e-08
5.876e-08
5.45172e-08
3.31932e-08
7.82969e-08
7.80731e-08
8.29162e-08
3.26158e-08
7.70941e-08
3.11427e-08
3.28148e-08
0
3.55617e-08
0
3.40165e-08
3.41994e-08
0
1.53706e-05
7.11121e-07
1.59524e-07
8.14181e-08
3.55068e-08
3.61268e-08
3.51517e-08
4.9018e-08
6.49353e-08
3.58278e-08
3.25127e-08
3.20903e-08
3.27638e-08
3.34375e-08
3.32309e-08
3.31792e-08
3.46497e-08
0
3.36016e-08
3.47942e-08
3.48222e-08
3.4086e-08
3.41038e-08
0
3.43562e-08
3.57541e-08
0
1.2986e-08
1.07082e-07
3.36332e-08
0
3.42327e-08
3.47544e-08
0
3.44622e-08
0
3.59156e-08
3.51564e-08
3.42031e-08
3.47515e-08
0
3.51322e-08
0
3.48065e-08
0
0
3.3492e-08
0
0
3.44009e-08
0
0
3.42295e-08
0
8.17971e-08
0
3.32583e-08
8.84029e-08
0
0
0
0
3.34628e-08
3.47031e-08
8.64742e-08
8.11987e-08
3.14395e-08
3.19569e-08
3.32333e-08
3.68853e-08
0
3.41334e-08
0
3.42462e-08
0
1.32656e-05
1.30279e-06
1.57221e-07
3.63533e-08
3.75504e-08
3.59778e-08
1.05636e-08
1.2779e-08
3.45925e-08
3.56357e-08
3.38099e-08
8.05291e-08
3.26198e-08
3.30479e-08
3.3126e-08
8.08047e-08
3.22662e-08
8.12346e-08
3.30595e-08
3.32808e-08
3.41152e-08
3.41117e-08
3.33058e-08
8.24122e-08
3.45819e-08
0
8.16976e-08
3.3121e-08
3.40998e-08
3.43243e-08
3.3361e-08
3.35038e-08
0
8.15896e-08
0
1.47661e-07
0
3.37964e-08
0
0
3.37597e-08
3.39879e-08
8.11759e-08
3.27997e-08
3.29566e-08
3.34075e-08
7.83591e-08
0
3.45297e-08
3.44312e-08
3.48007e-08
3.52229e-08
3.47074e-08
0
3.51692e-08
3.36706e-08
7.91346e-08
7.79682e-08
8.29723e-08
8.72099e-08
3.34816e-08
7.90568e-08
7.81763e-08
3.22177e-08
8.29116e-08
8.2088e-08
7.8504e-08
3.24083e-08
3.22474e-08
3.50074e-08
3.47834e-08
0
3.27351e-08
3.3667e-08
3.33316e-08
5.42697e-06
1.59773e-06
1.55485e-07
3.3748e-08
3.57885e-08
3.57742e-08
8.494e-08
3.39196e-08
0
3.37763e-08
3.46492e-08
3.4032e-08
0
3.34734e-08
3.38296e-08
3.26803e-08
3.20817e-08
8.07966e-08
3.29018e-08
6.41594e-08
4.20156e-08
3.23494e-08
3.35227e-08
3.39219e-08
3.37182e-08
3.33884e-08
3.36563e-08
3.41109e-08
3.44868e-08
3.41998e-08
8.40869e-08
3.41081e-08
3.28693e-08
3.39937e-08
3.38862e-08
3.46837e-08
3.42815e-08
3.44105e-08
0
3.46991e-08
0
3.37911e-08
0
0
3.37384e-08
3.36885e-08
7.8804e-08
3.4541e-08
3.48647e-08
2.25469e-09
7.29646e-08
3.6279e-08
0
8.26498e-08
3.0549e-08
7.67277e-08
0
3.17447e-08
8.09498e-08
8.80979e-08
3.34672e-08
3.13796e-08
7.74685e-08
3.55422e-08
2.55155e-09
7.50225e-08
3.10656e-08
7.95257e-08
3.27034e-08
8.14621e-08
3.30311e-08
3.33577e-08
3.31024e-08
1.24442e-08
5.54207e-08
2.08833e-05
4.15251e-07
1.00363e-07
3.39863e-08
3.49827e-08
8.53526e-08
8.6166e-08
3.28541e-08
3.39732e-08
3.3496e-08
3.35825e-08
0
3.43323e-08
3.28281e-08
3.30638e-08
3.40203e-08
6.13292e-08
4.62477e-08
3.32793e-08
3.39029e-08
3.28297e-08
0
8.01717e-08
8.19807e-08
3.41873e-08
3.32951e-08
0
3.24578e-08
5.15208e-08
1.8465e-08
3.26961e-08
3.42616e-08
3.44451e-08
0
1.26511e-08
1.01544e-08
2.00913e-09
7.53755e-08
3.28286e-08
8.35359e-08
3.30266e-08
3.35903e-08
8.14018e-08
7.7155e-08
3.19463e-08
3.20814e-08
3.20794e-08
3.25439e-08
3.45214e-08
8.18161e-08
3.15111e-08
7.79375e-08
7.86959e-08
8.23165e-08
3.33901e-08
3.37303e-08
3.2778e-08
3.54177e-08
3.78842e-08
1.48722e-08
8.52941e-09
3.3461e-08
3.32158e-08
1.82027e-08
2.52835e-09
3.34085e-08
0
3.39466e-08
8.51721e-08
3.29628e-08
7.95242e-08
3.24688e-08
3.1359e-08
3.37521e-08
3.28389e-08
1.11905e-05
5.31039e-07
1.58564e-07
7.93016e-08
3.63071e-08
3.20471e-08
3.55304e-08
8.46018e-08
3.29531e-08
3.30455e-08
3.22993e-08
3.39435e-08
3.38257e-08
5.81971e-08
4.78531e-08
3.26672e-08
3.21223e-08
3.20923e-08
8.52065e-08
3.34929e-08
0
3.33721e-08
3.33122e-08
3.4794e-08
3.4683e-08
3.34877e-08
7.94792e-08
3.36856e-08
0
8.62957e-08
3.41324e-08
3.33878e-08
3.5195e-08
0
8.2594e-08
3.3744e-08
0
3.35429e-08
3.45962e-08
8.83274e-08
3.44344e-08
3.343e-08
3.24076e-08
3.09823e-08
7.92632e-08
0
3.28779e-08
3.32774e-08
8.23513e-08
3.46467e-08
3.44745e-08
3.41499e-08
8.17756e-08
3.23651e-08
3.23341e-08
3.31458e-08
3.35213e-08
8.11344e-08
3.64474e-08
3.58077e-08
6.41816e-09
2.10047e-08
3.32524e-08
3.48754e-08
0
3.36323e-08
0
0
3.50437e-08
0
3.47124e-08
3.43688e-08
3.37077e-08
8.09985e-08
8.25939e-08
9.61276e-06
3.02979e-07
6.8812e-07
3.21902e-08
3.36663e-08
3.54239e-08
3.5853e-08
3.49634e-08
6.3351e-08
4.51152e-08
3.26258e-08
5.02164e-08
5.76655e-08
3.25525e-08
3.29413e-08
3.39356e-08
3.37093e-08
3.36734e-08
3.44946e-08
3.46017e-08
0
3.34726e-08
8.193e-08
3.39573e-08
0
3.50544e-08
3.25945e-08
3.52306e-08
0
3.43483e-08
3.60287e-08
3.45972e-08
3.55069e-08
0
3.55592e-08
3.30324e-08
3.33634e-08
3.34129e-08
8.5634e-08
3.55387e-08
3.62753e-08
0
3.97362e-08
2.51868e-08
9.19574e-08
6.39182e-08
7.9167e-08
0
3.47058e-08
3.51518e-08
3.43256e-08
3.37617e-08
8.18415e-08
3.20013e-08
3.2954e-08
3.39684e-08
3.4669e-08
3.5025e-08
3.50587e-08
3.49377e-08
3.35148e-08
3.28948e-08
3.26927e-08
0
0
1.16945e-07
4.07917e-08
3.17137e-08
0
3.35561e-08
8.1564e-08
3.21731e-08
3.34009e-09
7.62097e-08
3.3194e-08
9.51348e-06
1.06877e-06
9.51878e-08
3.24348e-08
4.97709e-08
6.74597e-08
1.78317e-08
3.24364e-09
8.20587e-08
5.01382e-08
5.80889e-08
3.95562e-08
7.32399e-08
0
3.37382e-08
3.37989e-08
3.39285e-08
3.41068e-08
0
0
3.44528e-08
7.99093e-08
3.19073e-08
3.31632e-08
8.73668e-08
0
3.3711e-08
3.52431e-08
3.34873e-08
3.3139e-08
3.47092e-08
3.45128e-08
3.43469e-08
3.55494e-08
1.03401e-08
5.79892e-08
3.21303e-08
3.30804e-08
3.43992e-08
0
0
0
3.41773e-08
3.37588e-08
3.3388e-08
0
3.48533e-08
3.537e-08
3.53048e-08
3.67693e-08
3.51782e-08
3.43563e-08
3.36501e-08
0
0
0
3.51521e-08
3.52978e-08
0
3.52402e-08
0
3.33529e-08
0
7.81629e-08
1.39808e-07
0
7.99315e-08
3.27525e-08
7.99213e-08
3.25155e-08
0
3.30668e-08
0
3.52899e-08
3.48822e-08
2.4479e-05
8.80763e-07
9.75743e-08
4.63039e-08
6.48381e-08
3.56971e-08
3.52623e-08
3.53725e-08
3.46412e-08
3.39188e-08
0
8.0755e-08
3.22716e-08
3.27568e-08
3.39813e-08
0
3.38653e-08
0
0
4.22488e-08
6.98014e-08
3.29766e-08
3.33758e-08
3.46249e-08
0
0
3.39449e-08
8.53793e-08
3.3021e-08
8.0073e-08
3.30339e-08
8.23026e-08
3.30268e-08
3.29381e-08
3.37889e-08
5.19615e-08
5.76571e-08
3.34695e-08
0
3.51957e-08
0
8.1477e-08
3.40785e-08
0
3.38582e-08
3.33265e-08
3.45012e-08
3.50458e-08
0
3.70922e-08
0
3.31837e-08
3.41286e-08
3.44445e-08
0
3.35385e-08
0
0
3.60932e-08
3.59899e-08
1.02466e-08
5.80936e-08
0
0
3.46291e-08
3.4172e-08
8.21557e-08
3.20733e-08
7.8442e-08
5.39594e-08
5.54589e-08
0
3.439e-08
3.46547e-08
3.41732e-08
2.45903e-05
1.03125e-06
1.04399e-07
3.19053e-08
3.34484e-08
3.54619e-08
0
3.36915e-08
3.4307e-08
3.46992e-08
3.4162e-08
7.84662e-08
3.30947e-08
3.36176e-08
3.37214e-08
3.42273e-08
3.42109e-08
0
3.40392e-08
3.43706e-08
0
3.3632e-08
3.3757e-08
3.62729e-08
3.56679e-08
3.42987e-08
3.36257e-08
7.9966e-08
3.28389e-08
3.22721e-08
8.55308e-08
3.37507e-08
3.27571e-08
5.32494e-08
5.67269e-08
3.34183e-08
3.24118e-08
3.31262e-08
3.42493e-08
3.50319e-08
3.54982e-08
3.40926e-08
3.34386e-08
8.00263e-08
7.77767e-08
3.15439e-08
3.25333e-08
8.18729e-08
3.67556e-08
8.63379e-08
3.40835e-08
3.32679e-08
0
3.32749e-08
3.35144e-08
3.40824e-08
3.4512e-08
3.44507e-08
3.39311e-08
8.61391e-08
3.21806e-08
3.24449e-08
0
3.40292e-08
3.488e-08
3.46548e-08
3.36138e-08
8.15577e-08
0
3.43585e-08
3.42231e-08
3.45268e-08
3.42406e-08
8.16064e-08
3.29502e-08
2.10034e-05
5.68666e-07
1.06477e-07
3.31384e-08
3.38331e-08
3.59787e-08
3.48581e-08
0
3.22504e-08
3.44305e-08
3.40947e-08
3.44827e-08
0
3.38493e-08
3.43015e-08
3.44882e-08
3.38354e-08
8.13035e-08
3.32471e-08
0
3.36649e-08
0
3.29565e-08
8.58491e-08
3.48545e-08
8.23165e-08
0
3.25025e-08
3.22016e-08
3.27402e-08
8.79225e-08
3.40924e-08
3.23004e-08
3.23389e-08
3.31866e-08
8.1114e-08
3.28431e-08
3.31462e-08
0
8.45746e-08
6.71288e-08
4.1484e-08
3.36422e-08
3.32668e-08
3.23571e-08
3.30134e-08
3.36811e-08
2.49657e-08
8.07914e-08
0
0
0
3.32296e-08
3.39364e-08
3.38064e-08
3.3996e-08
3.41944e-08
4.78953e-08
6.63864e-08
6.83295e-09
2.23223e-08
3.29637e-08
0
1.00425e-07
5.76205e-08
3.3671e-08
3.25688e-08
3.33118e-08
0
3.41484e-08
3.43181e-08
0
0
0
0
8.26492e-06
4.47736e-07
6.10037e-08
3.42601e-08
3.56367e-08
0
0
8.292e-08
3.28354e-08
8.55242e-08
0
3.3652e-08
3.37174e-08
3.41946e-08
3.45878e-08
3.44823e-08
3.36898e-08
3.38406e-08
3.38782e-08
3.28656e-08
3.35126e-08
3.66094e-08
7.47755e-08
3.34241e-08
8.69993e-08
3.33446e-08
3.16416e-08
3.31581e-08
3.3417e-08
3.51246e-08
3.54606e-08
3.3723e-08
3.31175e-08
3.34578e-08
7.96813e-08
3.33412e-08
6.2654e-08
4.63392e-08
0
8.12735e-08
3.28822e-08
8.59711e-08
3.37426e-08
3.17678e-08
3.23285e-08
3.44957e-08
1.71627e-08
4.02845e-09
3.54304e-08
0
3.52845e-08
3.41779e-08
3.38697e-08
3.39892e-08
3.38373e-08
3.37589e-08
3.39702e-08
3.41431e-08
3.38883e-08
0
3.217e-08
7.87207e-08
3.19461e-08
7.97269e-08
3.28075e-08
3.31435e-08
3.43556e-08
3.37594e-08
3.4392e-08
0
0
3.41228e-08
8.41178e-08
3.34078e-08
6.43034e-08
0.00022005
3.16152e-07
7.33755e-08
3.49456e-08
0
3.56607e-08
0
3.38512e-08
3.42238e-08
3.47681e-08
3.33359e-08
3.37264e-08
8.44356e-08
3.48164e-08
3.66593e-08
6.81692e-09
2.23857e-08
0
5.075e-09
3.44632e-08
8.0927e-08
3.28734e-08
3.30829e-08
3.36898e-08
3.44018e-08
3.4601e-08
3.37303e-08
3.37218e-08
3.41764e-08
3.4577e-08
3.43047e-08
3.38281e-08
8.21486e-08
3.32777e-08
3.40745e-08
8.38534e-08
3.27456e-08
3.3152e-08
3.66237e-08
7.85621e-08
3.72285e-08
0
3.46773e-08
3.32077e-08
3.21742e-08
3.34098e-08
8.83505e-08
0
3.38909e-08
3.47751e-08
3.41405e-08
3.39063e-08
3.35006e-08
3.37227e-08
3.39528e-08
3.39985e-08
3.36752e-08
3.3796e-08
3.53665e-08
0
3.38107e-08
3.31296e-08
0
3.25687e-08
8.27412e-08
3.27995e-08
3.28509e-08
0
3.49487e-08
3.44329e-08
8.02955e-08
3.2961e-08
3.36028e-08
3.44436e-08
3.43765e-08
5.83343e-05
2.92541e-07
2.84267e-08
3.6054e-08
0
3.56953e-08
3.52672e-08
8.11788e-08
3.31153e-08
3.37416e-08
8.11851e-08
3.32006e-08
8.30495e-08
3.32662e-08
3.38797e-08
3.4452e-08
3.4186e-08
3.37371e-08
3.17007e-08
6.45874e-08
3.20853e-08
3.3888e-08
0
3.35927e-08
0
3.4805e-08
8.18862e-08
3.42355e-08
3.44863e-08
8.26008e-08
3.25282e-08
3.26548e-08
0
5.20717e-08
6.08006e-08
3.49373e-08
3.33124e-08
3.27503e-08
3.29217e-08
3.35855e-08
3.47597e-08
3.47016e-08
3.43841e-08
3.36013e-08
3.34867e-08
3.51117e-08
3.61237e-08
3.5734e-08
3.50024e-08
3.45359e-08
3.44625e-08
3.43303e-08
0
3.44752e-08
0
8.00829e-08
7.85063e-08
3.27673e-08
3.35691e-08
3.43594e-08
0
3.2817e-08
8.20779e-08
5.10286e-08
6.01237e-08
3.30685e-08
3.31294e-08
3.44329e-08
3.51856e-08
6.74795e-09
6.55977e-08
7.92616e-08
9.58452e-08
1.11562e-07
3.04957e-08
1.47946e-05
5.30447e-07
7.09857e-08
3.80044e-08
0
3.56162e-08
3.44161e-08
3.45347e-08
3.42752e-08
3.42344e-08
3.41632e-08
3.41806e-08
3.40073e-08
8.18338e-08
3.2802e-08
3.37084e-08
8.22088e-08
3.29773e-08
3.25014e-08
3.33347e-08
3.39617e-08
3.3664e-08
3.44953e-08
0
0
3.40444e-08
0
8.60059e-08
3.47629e-08
3.53232e-08
8.03874e-08
3.20667e-08
3.28487e-08
3.41175e-08
3.521e-08
3.54152e-08
8.32156e-08
3.24748e-08
3.31661e-08
3.35184e-08
3.45059e-08
3.41992e-08
3.30481e-08
3.26616e-08
3.32182e-08
3.4826e-08
3.59867e-08
3.52676e-08
3.46371e-08
3.47394e-08
3.45668e-08
3.09785e-09
2.79107e-08
3.35317e-08
3.33261e-08
3.36449e-08
3.28692e-08
3.29829e-08
3.31118e-08
0
8.11946e-08
3.41844e-08
8.11618e-08
0
0
0
0
0
0
1.00914e-07
2.12894e-08
3.30113e-08
8.09925e-08
0
3.21647e-08
7.4022e-06
5.30873e-07
6.6762e-08
3.45403e-08
3.54778e-08
3.43422e-08
3.3859e-08
0
3.37051e-08
3.42465e-08
3.51646e-08
0
3.45696e-08
3.46501e-08
3.5022e-08
3.37897e-08
8.64039e-08
3.31082e-08
3.34127e-08
3.34842e-08
3.38322e-08
3.37871e-08
3.3729e-08
3.36162e-08
3.19714e-08
0
3.40446e-08
1.38627e-07
8.59647e-08
0
3.36583e-08
0
3.43689e-08
0
3.61045e-08
3.50654e-08
3.3875e-08
3.37927e-08
3.35273e-08
3.40728e-08
3.59098e-08
0
8.1882e-08
3.35589e-08
0
8.6757e-08
3.52524e-08
3.33924e-08
3.36345e-08
3.4651e-08
3.50502e-08
3.44012e-08
3.35875e-08
0
0
3.41143e-08
3.33651e-08
3.33953e-08
4.26052e-08
2.281e-08
5.25869e-08
6.07372e-08
0
3.2703e-08
3.31992e-08
3.45603e-08
3.43339e-08
3.47784e-08
8.91211e-08
0
8.11127e-08
3.24455e-08
0
3.39406e-08
3.36498e-08
8.63724e-05
5.44193e-07
1.11581e-07
8.10119e-08
8.49645e-08
3.50861e-08
0
3.3293e-08
3.35705e-08
0
3.46697e-08
3.51688e-08
3.51211e-08
3.45982e-08
3.43899e-08
3.44286e-08
3.54832e-08
3.50645e-08
3.41814e-08
3.37609e-08
3.35802e-08
3.38615e-08
8.19574e-08
3.1589e-08
7.77646e-08
7.93735e-08
3.27313e-08
3.312e-08
0
3.37492e-08
3.85213e-08
2.87722e-08
0
8.05297e-08
8.73046e-08
0
3.35161e-08
0
3.42212e-08
0
3.45373e-08
3.44252e-08
3.4252e-08
3.42303e-08
3.4064e-08
3.49549e-08
3.50022e-08
3.38236e-08
7.98089e-08
8.63032e-08
3.4014e-08
3.26064e-08
3.38801e-08
0
0
7.99063e-08
0
3.42961e-08
3.32569e-08
3.36749e-08
0
0
3.33797e-08
8.02237e-08
3.15155e-08
8.35487e-08
3.27203e-08
3.59984e-08
0
3.59001e-08
0
3.28932e-08
3.33355e-08
1.08997e-08
2.31007e-08
6.17701e-06
6.96537e-07
5.95645e-08
8.49339e-08
8.26001e-08
3.38342e-08
3.34828e-08
3.36223e-08
0
3.44081e-08
3.38805e-08
3.57403e-08
3.55833e-08
3.41688e-08
3.42457e-08
3.42422e-08
3.46077e-08
3.45644e-08
3.41776e-08
3.35142e-08
3.36025e-08
7.98313e-08
3.2011e-08
8.04735e-08
3.16242e-08
3.19133e-08
0
3.359e-08
3.48813e-08
4.05607e-09
2.68581e-08
3.37446e-08
3.45029e-08
0
3.49768e-08
0
3.43744e-08
3.4579e-08
0
3.46553e-08
3.45175e-08
3.42336e-08
3.42247e-08
3.46499e-08
3.46509e-08
3.49789e-08
3.44407e-08
3.31824e-08
3.32816e-08
8.83845e-08
3.46652e-08
3.24398e-08
3.40465e-08
4.29446e-09
2.56624e-08
3.45406e-08
3.4827e-08
0
3.32848e-08
3.45898e-08
3.373e-08
8.29433e-08
0
0
6.02292e-08
4.9488e-08
3.36417e-08
3.5226e-08
9.08894e-08
3.4751e-08
0
7.72761e-08
7.73585e-08
7.76918e-08
7.82482e-08
4.05959e-05
4.15102e-07
7.26718e-08
3.27574e-08
3.41826e-08
5.06957e-08
1.14816e-07
3.16624e-08
3.42419e-08
3.41193e-08
3.34698e-08
3.63532e-08
0
3.42676e-08
0
0
0
3.49513e-08
3.46378e-08
0
8.15047e-08
3.24664e-08
3.29386e-08
7.88449e-08
7.82863e-08
3.21524e-08
3.38863e-08
3.31983e-08
8.39003e-08
0
3.35874e-08
3.4736e-08
0
3.46839e-08
3.64726e-08
0
3.44813e-08
3.4106e-08
0
8.22504e-08
3.34572e-08
3.29766e-08
3.33023e-08
3.41662e-08
0
3.47426e-08
3.54213e-08
3.53674e-08
3.45574e-08
3.45503e-08
3.47803e-08
3.51753e-08
3.48818e-08
3.39445e-08
5.78554e-08
5.68816e-08
0
5.56668e-08
5.06795e-08
0
3.3421e-08
3.91295e-08
3.81506e-08
2.35428e-08
3.3932e-08
3.43956e-08
3.46918e-08
8.22328e-08
3.78417e-08
3.48964e-08
3.34211e-08
0
3.28555e-08
3.30682e-08
3.27906e-08
1.1337e-05
7.56735e-07
2.07461e-07
3.13386e-08
3.48619e-08
3.44267e-08
3.29214e-08
7.98016e-08
8.37241e-08
3.31536e-08
3.28298e-08
8.0642e-08
3.39045e-08
3.41184e-08
0
7.9934e-08
1.59432e-08
5.35347e-09
3.32545e-08
8.12563e-08
3.33497e-08
3.42011e-08
1.54679e-08
6.24697e-08
4.66246e-08
4.44952e-08
0
1.1082e-07
4.9849e-08
7.86935e-08
7.909e-08
8.02794e-08
3.24916e-08
3.44861e-08
3.46895e-08
3.45896e-08
3.32505e-08
3.26379e-08
3.23975e-08
3.2848e-08
3.36563e-08
3.35699e-08