/*--------------------------------*- C++ -*----------------------------------*\
  =========                 |
  \\      /  F ield         | OpenFOAM: The Open Source CFD Toolbox
   \\    /   O peration     | Website:  https://openfoam.org
    \\  /    A nd           | Version:  12
     \\/     M anipulation  |
\*---------------------------------------------------------------------------*/
FoamFile
{
    format      ascii;
    class       volVectorField::Internal;
    location    "0.8";
    object      cloud:UTrans;
}
// * * * * * * * * * * * * * * * * * * * * * * * * * * * * * * * * * * * * * //

dimensions      [1 1 -1 0 0 0 0];

value           nonuniform List<vector> 
3750
(
(5.0824e-09 3.85686e-08 0)
(3.35575e-09 6.83954e-09 0)
(8.75436e-10 4.07571e-10 0)
(1.85963e-10 -1.85561e-09 0)
(-3.31069e-11 -2.33708e-09 0)
(0 0 0)
(8.22502e-11 -2.45636e-09 0)
(0 0 0)
(1.12091e-12 -1.12211e-09 0)
(0 0 0)
(-5.24771e-11 -1.06566e-09 0)
(9.94521e-12 -1.40214e-09 0)
(2.58992e-11 -1.08999e-09 0)
(2.7755e-12 -1.12605e-09 0)
(3.66698e-11 -1.15163e-09 0)
(-7.01402e-12 -2.37921e-09 0)
(5.27455e-11 -1.15253e-09 0)
(1.21002e-10 -1.11141e-09 0)
(2.12205e-10 -2.46081e-09 0)
(3.55538e-12 -1.14822e-09 0)
(-9.06235e-13 -3.71599e-11 0)
(-2.92061e-11 -1.12295e-09 0)
(-4.09467e-12 -1.1198e-09 0)
(-8.10963e-12 -1.20173e-09 0)
(2.21488e-11 -8.72053e-10 0)
(7.4128e-11 -1.16054e-09 0)
(0 0 0)
(0 0 0)
(3.21342e-11 -1.03562e-09 0)
(9.32744e-12 -1.06989e-09 0)
(3.99395e-12 -1.13585e-09 0)
(6.32828e-11 -1.78794e-09 0)
(0 0 0)
(0 0 0)
(6.20191e-12 -1.14916e-09 0)
(1.09066e-11 -1.16384e-09 0)
(0 0 0)
(2.93976e-11 -9.82495e-10 0)
(1.17714e-11 -1.2404e-09 0)
(-5.44618e-11 -2.39788e-09 0)
(-1.88978e-11 -9.57369e-10 0)
(1.60117e-11 -1.19819e-09 0)
(-9.94155e-12 -1.23347e-09 0)
(0 0 0)
(-1.01963e-11 -1.12207e-09 0)
(-3.24442e-11 -2.43131e-09 0)
(-1.6418e-12 -1.04013e-09 0)
(-4.14242e-11 -2.41872e-09 0)
(9.6423e-12 -9.35439e-10 0)
(0 0 0)
(3.851e-11 -9.8741e-10 0)
(-1.55999e-11 -1.19534e-09 0)
(3.77424e-11 -1.14493e-09 0)
(2.14112e-11 -1.16445e-09 0)
(-5.91829e-14 -1.16842e-09 0)
(1.02289e-11 -1.11259e-09 0)
(-8.59188e-11 -2.42768e-09 0)
(-4.91205e-11 -2.12073e-09 0)
(9.04614e-11 -2.2563e-09 0)
(2.60553e-11 -1.07446e-09 0)
(0 0 0)
(1.94625e-11 -1.25527e-09 0)
(-3.74289e-11 -1.20063e-09 0)
(4.21296e-11 -2.58968e-09 0)
(5.1681e-11 -2.38599e-09 0)
(5.8288e-11 -1.02595e-09 0)
(6.38519e-11 -2.50117e-09 0)
(0 0 0)
(-6.74839e-12 -1.09331e-09 0)
(5.58786e-12 -1.16005e-09 0)
(2.78026e-13 -1.14423e-09 0)
(-4.73906e-11 -1.23364e-09 0)
(-1.71539e-11 -1.45923e-09 0)
(0 0 0)
(4.16257e-11 -1.13349e-09 0)
(6.65791e-09 4.32159e-08 0)
(1.70559e-10 7.31051e-09 0)
(5.68856e-10 -1.12264e-09 0)
(3.29257e-11 -1.11548e-09 0)
(2.81662e-11 -1.14147e-09 0)
(-1.10637e-12 -1.13848e-09 0)
(5.20261e-11 -2.31227e-09 0)
(-3.31442e-11 -2.20418e-09 0)
(4.43115e-11 -1.11345e-09 0)
(0 0 0)
(-9.52308e-11 -2.44681e-09 0)
(0 0 0)
(5.04908e-11 -1.43952e-09 0)
(0 0 0)
(4.81191e-11 -1.10495e-09 0)
(-5.04167e-12 -1.07864e-09 0)
(8.63512e-11 -1.12095e-09 0)
(2.88565e-10 -2.69988e-09 0)
(4.34899e-11 -1.31055e-09 0)
(0 0 0)
(-1.65721e-11 -1.24233e-09 0)
(3.01434e-11 -1.23011e-09 0)
(0 0 0)
(0 0 0)
(-7.55571e-12 -1.17801e-09 0)
(5.48564e-12 -1.16524e-09 0)
(0 0 0)
(-2.14821e-11 -1.12381e-09 0)
(-1.62539e-11 -2.25291e-09 0)
(3.28833e-11 -8.77541e-10 0)
(7.10585e-11 -1.53803e-09 0)
(-1.14485e-10 -3.62619e-09 0)
(0 0 0)
(0 0 0)
(8.44174e-11 -1.11074e-09 0)
(0 0 0)
(0 0 0)
(-3.30433e-11 -5.08677e-09 0)
(7.95816e-11 -1.17301e-09 0)
(-2.7399e-11 -1.08221e-09 0)
(-3.00685e-12 -2.16214e-09 0)
(-1.67638e-11 -1.92214e-09 0)
(1.76372e-12 -1.83704e-10 0)
(0 0 0)
(0 0 0)
(0 0 0)
(1.30592e-11 -1.04446e-09 0)
(6.47296e-12 -1.19937e-09 0)
(-1.12974e-11 -1.23869e-09 0)
(-1.55909e-10 -1.34215e-09 0)
(-9.85508e-11 -2.64249e-09 0)
(-5.37102e-11 -1.21078e-09 0)
(2.37966e-11 -2.64887e-09 0)
(1.58021e-12 -1.22863e-09 0)
(0 0 0)
(0 0 0)
(0 0 0)
(-1.80641e-10 -2.65295e-09 0)
(1.95163e-10 -2.54347e-09 0)
(3.31764e-11 -1.06243e-09 0)
(6.07601e-11 -2.1965e-09 0)
(-5.13531e-11 -1.06009e-09 0)
(0 0 0)
(-2.06033e-11 -1.22664e-09 0)
(-2.04959e-11 -1.25144e-09 0)
(1.07793e-10 -4.30701e-09 0)
(-2.30378e-11 -2.27809e-09 0)
(-2.33461e-11 -1.02284e-09 0)
(-2.15132e-12 -1.00854e-09 0)
(4.94419e-12 -1.16914e-09 0)
(0 0 0)
(-1.62784e-11 -1.21455e-09 0)
(-2.99726e-11 -1.29485e-09 0)
(3.85618e-11 -1.32901e-09 0)
(-1.89822e-12 -1.17564e-09 0)
(-3.53185e-09 4.7268e-08 0)
(1.50171e-09 7.78027e-09 0)
(3.22165e-10 -5.11652e-10 0)
(8.00795e-11 -1.09496e-09 0)
(3.83986e-11 -1.10814e-09 0)
(7.68314e-11 -1.04148e-09 0)
(1.59692e-11 -9.71619e-10 0)
(-1.80423e-11 -1.04935e-09 0)
(3.27034e-11 -1.04538e-09 0)
(3.19744e-12 -1.22478e-09 0)
(-5.69081e-11 -1.25535e-09 0)
(0 0 0)
(2.9832e-11 -2.54254e-09 0)
(1.02463e-10 -2.36456e-09 0)
(0 0 0)
(-4.63897e-11 -2.11058e-09 0)
(-4.84322e-12 -1.16378e-09 0)
(0 0 0)
(-3.63995e-11 -1.20369e-09 0)
(0 0 0)
(5.94138e-11 -1.43039e-09 0)
(9.29168e-11 -3.84149e-09 0)
(-2.24476e-11 -1.03472e-09 0)
(0 0 0)
(0 0 0)
(8.62886e-12 -1.16819e-09 0)
(4.88177e-11 -1.21499e-09 0)
(0 0 0)
(0 0 0)
(1.6855e-11 -9.15577e-10 0)
(-3.75421e-11 -1.18114e-09 0)
(1.0791e-10 -2.5299e-09 0)
(0 0 0)
(7.63163e-11 -1.20053e-09 0)
(-1.5101e-11 -2.56375e-09 0)
(0 0 0)
(-6.96878e-11 -2.33192e-09 0)
(-2.62248e-11 -1.18413e-09 0)
(1.61547e-10 -2.44207e-09 0)
(1.27408e-10 -2.31166e-09 0)
(6.46193e-11 -1.03055e-09 0)
(8.32435e-11 -1.07473e-09 0)
(2.311e-10 -2.9623e-09 0)
(0 0 0)
(3.69279e-11 -1.49091e-09 0)
(1.72955e-11 -1.1756e-09 0)
(-4.70606e-11 -1.14876e-09 0)
(-1.11749e-11 -2.50659e-09 0)
(0 0 0)
(0 0 0)
(-1.22018e-10 -1.21456e-09 0)
(-8.37458e-11 -1.13762e-09 0)
(-9.57646e-12 -1.11061e-09 0)
(-1.50442e-10 -2.26279e-09 0)
(-1.49002e-11 -2.37451e-09 0)
(0 0 0)
(0 0 0)
(-1.69902e-11 -2.46942e-09 0)
(0 0 0)
(2.06255e-11 -3.78534e-09 0)
(3.42586e-11 -9.61341e-10 0)
(0 0 0)
(-5.90598e-11 -1.31921e-09 0)
(-4.52664e-11 -9.90981e-10 0)
(-1.79205e-10 -2.87857e-09 0)
(-2.83319e-11 -1.10232e-09 0)
(-1.6775e-11 -1.09265e-09 0)
(-1.00719e-11 -1.11022e-09 0)
(-1.89016e-12 -1.13454e-09 0)
(4.23747e-11 -1.16287e-09 0)
(9.30137e-13 -5.39005e-10 0)
(2.12621e-13 -1.78839e-10 0)
(0 0 0)
(1.83065e-11 -1.19029e-09 0)
(0 0 0)
(-7.17802e-09 7.79098e-08 0)
(2.63561e-09 6.21366e-09 0)
(3.68416e-10 -1.10346e-09 0)
(2.13478e-10 -8.18315e-10 0)
(3.56465e-11 -1.13172e-09 0)
(3.39141e-11 -2.36921e-09 0)
(-1.63273e-10 -4.02447e-09 0)
(-2.75805e-11 -1.57995e-09 0)
(2.64194e-11 -1.7003e-09 0)
(7.80114e-11 -1.19736e-09 0)
(0 0 0)
(7.31753e-11 -1.27063e-09 0)
(2.80958e-11 -1.24329e-09 0)
(5.08427e-11 -1.16282e-09 0)
(9.09909e-11 -1.03666e-09 0)
(7.22222e-11 -1.12267e-09 0)
(-8.14534e-12 -2.25092e-09 0)
(6.26273e-11 -1.00846e-09 0)
(0 0 0)
(-2.44843e-11 -2.41524e-09 0)
(1.64871e-10 -1.88679e-09 0)
(0 0 0)
(-9.65979e-12 -1.25682e-09 0)
(-5.81762e-11 -1.16826e-09 0)
(3.01241e-12 -1.17453e-09 0)
(0 0 0)
(6.17483e-11 -1.18408e-09 0)
(5.73737e-11 -1.21131e-09 0)
(-1.31739e-10 -2.32952e-09 0)
(-7.42943e-11 -9.60436e-10 0)
(-6.36358e-11 -1.34305e-09 0)
(-2.07966e-11 -8.32823e-10 0)
(1.27837e-10 -1.13874e-09 0)
(8.21473e-11 -1.14624e-09 0)
(3.7261e-11 -1.19099e-09 0)
(-6.03578e-11 -2.38423e-09 0)
(-3.27615e-11 -8.19184e-10 0)
(6.65625e-11 -1.04519e-09 0)
(1.4542e-10 -1.22785e-09 0)
(1.01566e-11 -1.20542e-09 0)
(7.07688e-11 -1.10736e-09 0)
(1.1736e-10 -1.11693e-09 0)
(9.19579e-11 -1.28395e-09 0)
(2.07203e-11 -1.11205e-09 0)
(-3.67049e-12 -5.71706e-10 0)
(-2.00164e-11 -2.28394e-09 0)
(-2.33473e-12 -9.99397e-10 0)
(4.66565e-11 -1.09447e-09 0)
(-1.13642e-10 -3.16247e-09 0)
(0 0 0)
(-1.17216e-10 -2.55634e-09 0)
(-7.85101e-11 -9.37505e-10 0)
(-2.5641e-11 -1.08668e-09 0)
(0 0 0)
(-6.17321e-11 -1.052e-09 0)
(-1.23046e-11 -1.04422e-09 0)
(-4.39842e-11 -1.19739e-09 0)
(-5.52866e-11 -1.19857e-09 0)
(1.5177e-11 -2.38986e-09 0)
(-1.51251e-11 -9.06168e-10 0)
(1.25633e-10 -9.93623e-10 0)
(-2.07363e-11 -1.26767e-09 0)
(-3.67833e-11 -1.16353e-09 0)
(-1.3066e-10 -2.28199e-09 0)
(-1.44182e-10 -1.03603e-09 0)
(-9.02683e-11 -1.17031e-09 0)
(8.21528e-12 -1.77354e-09 0)
(3.34547e-12 -4.27498e-10 0)
(0 0 0)
(1.78058e-11 -2.56393e-09 0)
(5.8357e-11 -1.11254e-09 0)
(0 0 0)
(8.26617e-11 -3.08063e-09 0)
(4.34071e-11 -1.17944e-09 0)
(0 0 0)
(-6.877e-09 7.05254e-08 0)
(7.13347e-10 1.03162e-09 0)
(2.70378e-10 -5.3035e-10 0)
(1.01807e-10 -1.24465e-09 0)
(-3.18391e-11 -1.19202e-09 0)
(0 0 0)
(0 0 0)
(0 0 0)
(4.02214e-12 -1.12604e-09 0)
(9.77032e-11 -2.63389e-09 0)
(4.34521e-11 -1.15425e-09 0)
(1.29352e-10 -2.93992e-09 0)
(-4.00522e-11 -1.10513e-09 0)
(-5.1033e-12 -1.02349e-09 0)
(8.42172e-11 -1.17123e-09 0)
(2.14785e-11 -5.26671e-10 0)
(6.63396e-11 -1.37839e-09 0)
(0 0 0)
(3.50021e-11 -1.15469e-09 0)
(1.80452e-11 -1.06741e-09 0)
(-2.00399e-12 -1.15817e-09 0)
(5.7125e-12 -1.32901e-09 0)
(5.45205e-12 -1.09776e-09 0)
(8.47415e-12 -9.50224e-10 0)
(4.66141e-11 -1.00413e-09 0)
(5.03042e-11 -1.07902e-09 0)
(-1.6197e-11 -1.11291e-09 0)
(1.71638e-11 -2.83483e-09 0)
(-2.24901e-11 -1.01388e-09 0)
(-2.35535e-11 -9.66821e-10 0)
(1.55653e-11 -1.04942e-09 0)
(3.43227e-11 -1.097e-09 0)
(4.79865e-11 -2.43483e-09 0)
(2.4703e-12 -3.03159e-09 0)
(4.90523e-11 -1.49212e-09 0)
(0 0 0)
(-2.90503e-11 -1.06861e-09 0)
(2.23294e-12 -2.28488e-09 0)
(-1.53479e-11 -3.14211e-09 0)
(0 0 0)
(2.90934e-11 -1.09982e-09 0)
(6.60906e-11 -1.19447e-09 0)
(4.27248e-11 -1.15416e-09 0)
(4.03307e-11 -1.16983e-09 0)
(-2.02778e-11 -9.8276e-10 0)
(3.32345e-11 -1.07969e-09 0)
(-2.1941e-11 -2.43516e-09 0)
(-2.48368e-11 -1.04462e-09 0)
(0 0 0)
(6.70597e-11 -2.73427e-09 0)
(1.51254e-10 -3.91027e-09 0)
(0 0 0)
(-1.03512e-10 -1.1243e-09 0)
(0 0 0)
(-6.72942e-11 -2.67953e-09 0)
(0 0 0)
(1.29621e-10 -2.7008e-09 0)
(-7.74294e-11 -1.08386e-09 0)
(-2.01296e-11 -1.04635e-09 0)
(-3.68387e-11 -2.42259e-09 0)
(-6.93262e-11 -1.07425e-09 0)
(-7.63746e-11 -1.11228e-09 0)
(8.27818e-11 -1.18296e-09 0)
(8.63539e-11 -1.16017e-09 0)
(-6.77192e-11 -1.25565e-09 0)
(0 0 0)
(-3.15706e-12 -1.18649e-09 0)
(3.57479e-11 -1.11294e-09 0)
(-2.48639e-11 -1.13309e-09 0)
(0 0 0)
(0 0 0)
(-1.47831e-11 -1.22851e-09 0)
(7.4543e-12 -1.19262e-09 0)
(6.55563e-11 -1.19522e-09 0)
(1.14324e-10 -1.17035e-09 0)
(-1.33424e-08 8.55562e-08 0)
(-1.90193e-09 8.11095e-09 0)
(-2.46672e-10 -7.98485e-11 0)
(7.23961e-11 -1.17889e-09 0)
(5.94101e-11 -1.02239e-09 0)
(1.05992e-10 -2.38899e-09 0)
(1.93022e-11 -1.14893e-09 0)
(5.26798e-11 -1.02776e-09 0)
(-5.05297e-12 -1.04708e-09 0)
(-9.29444e-12 -1.11969e-09 0)
(8.54036e-12 -1.35541e-09 0)
(-5.67207e-11 -2.9766e-09 0)
(1.93366e-11 -1.12097e-09 0)
(1.46722e-11 -1.07184e-09 0)
(2.2524e-11 -1.10402e-09 0)
(7.77177e-11 -1.17841e-09 0)
(0 0 0)
(1.35949e-10 -1.15695e-09 0)
(6.36999e-11 -1.20536e-09 0)
(1.52405e-10 -2.56138e-09 0)
(-7.66371e-12 -1.08782e-09 0)
(-4.8153e-11 -1.17943e-09 0)
(1.14815e-11 -2.64196e-09 0)
(2.62745e-11 -9.46055e-10 0)
(2.79824e-11 -1.004e-09 0)
(3.22124e-11 -1.1259e-09 0)
(-2.26096e-11 -1.20765e-09 0)
(-3.48004e-11 -1.20521e-09 0)
(5.3332e-11 -1.20388e-09 0)
(2.9491e-11 -1.15967e-09 0)
(1.85486e-12 -1.15415e-09 0)
(7.8384e-11 -1.09664e-09 0)
(2.68071e-11 -1.23491e-09 0)
(0 0 0)
(0 0 0)
(0 0 0)
(0 0 0)
(0 0 0)
(0 0 0)
(3.81923e-11 -1.31857e-09 0)
(5.17028e-11 -2.18748e-09 0)
(1.0067e-12 -1.31337e-10 0)
(-1.67163e-11 -1.21967e-09 0)
(2.67152e-11 -1.18414e-09 0)
(4.88186e-11 -1.14672e-09 0)
(3.50821e-11 -1.67321e-09 0)
(1.4877e-11 -1.85288e-09 0)
(1.15733e-11 -1.04956e-09 0)
(-2.22374e-11 -2.32192e-09 0)
(-4.15652e-12 -1.20276e-09 0)
(-3.85146e-11 -1.34865e-09 0)
(-4.42864e-11 -1.27365e-09 0)
(-8.70754e-11 -1.12312e-09 0)
(-7.01412e-11 -1.14397e-09 0)
(-5.26279e-12 -4.76867e-10 0)
(-1.45629e-12 -1.77346e-10 0)
(2.43446e-11 -1.19063e-09 0)
(-4.52587e-12 -1.07424e-09 0)
(-1.53662e-11 -1.08604e-09 0)
(-2.85481e-11 -1.14278e-09 0)
(-3.18108e-11 -1.01648e-09 0)
(-4.03125e-11 -1.01077e-09 0)
(4.76732e-11 -1.22203e-09 0)
(5.79011e-11 -1.28171e-09 0)
(0 0 0)
(-7.31035e-11 -1.23172e-09 0)
(0 0 0)
(9.16624e-12 -1.17825e-09 0)
(1.00405e-11 -1.13342e-09 0)
(1.95295e-11 -1.18975e-09 0)
(0 0 0)
(5.15835e-13 -1.14509e-09 0)
(3.27417e-11 -1.19985e-09 0)
(6.25547e-11 -1.26464e-09 0)
(3.29229e-11 -1.46943e-09 0)
(-7.97073e-09 8.45824e-08 0)
(-2.46315e-09 1.01389e-08 0)
(-3.88815e-10 4.61414e-10 0)
(1.34461e-10 -1.0919e-09 0)
(0 0 0)
(5.11623e-11 -1.18593e-09 0)
(2.78867e-11 -1.11701e-09 0)
(0 0 0)
(1.20822e-12 -7.18809e-11 0)
(2.04591e-11 -1.72521e-09 0)
(-1.98522e-12 -2.08065e-09 0)
(3.67903e-11 -1.21501e-09 0)
(0 0 0)
(5.51643e-11 -1.03788e-09 0)
(2.97876e-11 -1.12157e-09 0)
(3.99966e-11 -1.19426e-09 0)
(0 0 0)
(6.61609e-11 -1.22251e-09 0)
(4.62261e-11 -1.21636e-09 0)
(1.69412e-10 -2.7041e-09 0)
(7.44392e-11 -1.20897e-09 0)
(-5.49087e-11 -1.23957e-09 0)
(-5.83714e-11 -2.48326e-09 0)
(-1.67694e-11 -9.97629e-10 0)
(0 0 0)
(2.96786e-11 -1.41752e-09 0)
(-2.91469e-11 -1.10302e-09 0)
(0 0 0)
(0 0 0)
(0 0 0)
(1.09658e-11 -1.18789e-09 0)
(2.63502e-11 -1.15909e-09 0)
(5.61335e-11 -1.14775e-09 0)
(-1.93131e-11 -1.86477e-09 0)
(-7.32438e-12 -1.7843e-09 0)
(4.20981e-11 -2.48029e-09 0)
(2.18587e-11 -2.40768e-09 0)
(-3.45151e-11 -2.40312e-09 0)
(-1.89873e-11 -2.44414e-09 0)
(-3.67024e-11 -1.1046e-09 0)
(-2.83523e-11 -1.09441e-09 0)
(-1.73797e-12 -1.20369e-09 0)
(2.50474e-12 -1.18786e-09 0)
(7.29103e-11 -1.07571e-09 0)
(0 0 0)
(4.68166e-11 -1.04044e-09 0)
(-2.23763e-11 -1.07352e-09 0)
(4.95727e-11 -2.70126e-09 0)
(-6.255e-11 -1.00178e-09 0)
(-5.53909e-11 -1.27196e-09 0)
(4.84709e-11 -1.407e-09 0)
(4.59143e-11 -1.25809e-09 0)
(-4.68657e-11 -1.07383e-09 0)
(0 0 0)
(-4.7215e-11 -1.09367e-09 0)
(-6.00538e-11 -9.86529e-10 0)
(1.49319e-11 -1.18483e-09 0)
(-6.58523e-12 -1.17483e-09 0)
(-7.08068e-11 -2.30491e-09 0)
(-9.14825e-11 -1.07593e-09 0)
(-1.04695e-10 -2.3237e-09 0)
(-5.47029e-11 -1.00003e-09 0)
(-1.67257e-11 -1.18281e-09 0)
(-5.13501e-11 -1.41574e-09 0)
(0 0 0)
(-3.38396e-11 -1.21057e-09 0)
(-1.40316e-11 -1.13426e-09 0)
(-5.5081e-12 -1.09563e-09 0)
(5.88328e-11 -1.06657e-09 0)
(6.08051e-12 -1.05713e-09 0)
(6.61533e-11 -1.08556e-09 0)
(7.45914e-12 -1.11805e-09 0)
(-4.05297e-12 -1.13869e-09 0)
(-8.55384e-12 -1.17402e-09 0)
(-4.11011e-12 -1.25241e-09 0)
(-1.4169e-08 6.31487e-08 0)
(-1.23524e-09 6.64078e-09 0)
(-5.30015e-10 2.17249e-09 0)
(1.06517e-10 -1.00785e-09 0)
(0 0 0)
(0 0 0)
(0 0 0)
(6.8143e-11 -1.15089e-09 0)
(6.52456e-11 -1.15358e-09 0)
(1.83742e-11 -1.20023e-09 0)
(-4.60261e-11 -1.21814e-09 0)
(2.35305e-11 -1.20119e-09 0)
(7.13369e-11 -1.13787e-09 0)
(4.50931e-11 -1.1207e-09 0)
(1.85579e-11 -1.13538e-09 0)
(6.84584e-11 -1.06157e-09 0)
(9.86392e-11 -1.23712e-09 0)
(7.88793e-11 -1.07009e-09 0)
(0 0 0)
(0 0 0)
(-1.72718e-11 -3.13457e-09 0)
(-1.06369e-11 -1.10904e-09 0)
(-8.1143e-12 -1.06724e-09 0)
(1.06733e-11 -1.02947e-09 0)
(-1.21207e-11 -1.05866e-09 0)
(2.21804e-11 -1.15544e-09 0)
(0 0 0)
(1.00477e-10 -2.34363e-09 0)
(6.50968e-11 -2.59136e-09 0)
(9.32563e-11 -2.47197e-09 0)
(0 0 0)
(6.27291e-12 -1.13296e-09 0)
(5.31474e-12 -1.16794e-09 0)
(-4.34413e-12 -1.22346e-09 0)
(-2.79802e-11 -1.17547e-09 0)
(-5.57224e-11 -1.14767e-09 0)
(-4.14168e-11 -1.12483e-09 0)
(-3.87279e-11 -1.0449e-09 0)
(0 0 0)
(-3.93838e-11 -1.23087e-09 0)
(-6.65891e-11 -2.02211e-09 0)
(-9.81375e-12 -2.60624e-10 0)
(4.60897e-11 -2.51562e-09 0)
(1.46656e-11 -1.04552e-09 0)
(5.70472e-11 -2.4425e-09 0)
(-4.49975e-11 -2.52551e-09 0)
(-4.31664e-11 -9.6207e-10 0)
(-1.48048e-11 -1.20568e-09 0)
(-5.5981e-11 -1.11743e-09 0)
(-7.51313e-11 -1.19105e-09 0)
(0 0 0)
(1.18298e-10 -2.92942e-09 0)
(4.92582e-11 -1.09525e-09 0)
(0 0 0)
(-5.67613e-11 -2.40354e-09 0)
(-2.62157e-11 -1.02429e-09 0)
(6.44232e-12 -2.4406e-09 0)
(-6.48742e-12 -1.18989e-09 0)
(0 0 0)
(-3.76169e-11 -1.11522e-09 0)
(-1.40958e-11 -1.03164e-09 0)
(-6.77537e-12 -1.09568e-09 0)
(-5.23285e-11 -1.43028e-09 0)
(0 0 0)
(1.22396e-11 -1.37132e-09 0)
(5.31122e-11 -1.61186e-09 0)
(1.24322e-11 -6.62837e-10 0)
(9.61664e-11 -1.20891e-09 0)
(8.7442e-11 -1.18095e-09 0)
(1.11684e-10 -1.11888e-09 0)
(9.29158e-11 -1.12215e-09 0)
(0 0 0)
(-1.97852e-11 -1.21496e-09 0)
(-3.91097e-11 -1.19792e-09 0)
(-4.77881e-11 -1.19002e-09 0)
(-1.09819e-08 7.88449e-08 0)
(-4.9182e-10 9.97457e-09 0)
(1.10506e-10 8.41504e-10 0)
(1.12244e-10 -8.07725e-10 0)
(4.91287e-11 -1.01377e-09 0)
(1.24771e-10 -1.09839e-09 0)
(9.28901e-11 -1.12238e-09 0)
(0 0 0)
(-4.67191e-11 -1.1413e-09 0)
(0 0 0)
(-7.74882e-12 -1.28451e-09 0)
(1.10284e-11 -1.17922e-09 0)
(0 0 0)
(3.93148e-11 -1.2026e-09 0)
(0 0 0)
(3.49114e-11 -1.19198e-09 0)
(-1.02503e-10 -2.60585e-09 0)
(0 0 0)
(1.02149e-10 -2.32839e-09 0)
(-2.80319e-11 -2.99907e-09 0)
(-5.85673e-11 -2.68601e-09 0)
(1.1942e-10 -2.48783e-09 0)
(3.79166e-11 -1.02702e-09 0)
(1.53832e-11 -1.01863e-09 0)
(2.38508e-11 -9.87404e-10 0)
(4.29654e-11 -1.13244e-09 0)
(5.30482e-12 -1.13055e-09 0)
(8.25206e-12 -1.04707e-09 0)
(1.32957e-11 -1.15447e-09 0)
(-3.6368e-11 -1.04814e-09 0)
(-3.46106e-11 -2.36985e-09 0)
(-1.29781e-11 -1.13426e-09 0)
(-1.54836e-11 -1.1049e-09 0)
(-1.5921e-11 -2.51733e-09 0)
(4.17543e-11 -1.1258e-09 0)
(1.02194e-11 -1.15102e-09 0)
(-1.81382e-12 -1.1929e-09 0)
(-9.55148e-12 -1.21132e-09 0)
(-2.34014e-11 -2.69067e-09 0)
(-5.22232e-11 -1.14358e-09 0)
(-3.30513e-11 -1.14727e-09 0)
(-5.56101e-11 -1.12262e-09 0)
(-4.8329e-11 -1.13545e-09 0)
(-4.24581e-11 -1.16807e-09 0)
(-5.29137e-11 -1.19183e-09 0)
(-7.11494e-11 -1.21432e-09 0)
(-6.13256e-11 -9.63674e-10 0)
(-7.35534e-11 -1.13352e-09 0)
(1.13938e-12 -4.80575e-10 0)
(4.38811e-11 -1.44407e-09 0)
(8.72896e-11 -2.64998e-09 0)
(3.5868e-11 -1.23404e-09 0)
(6.52394e-11 -1.08035e-09 0)
(2.3066e-11 -1.03187e-09 0)
(1.10807e-12 -9.12712e-10 0)
(2.1871e-11 -9.70129e-10 0)
(0 0 0)
(-2.10204e-11 -1.16589e-09 0)
(0 0 0)
(-1.69299e-11 -1.16223e-09 0)
(-4.63698e-11 -1.18417e-09 0)
(-6.87621e-11 -1.12841e-09 0)
(-8.58379e-11 -1.24214e-09 0)
(1.84724e-11 -1.23625e-09 0)
(1.80557e-10 -2.87343e-09 0)
(5.94974e-11 -1.0908e-09 0)
(1.10539e-10 -1.08893e-09 0)
(-1.25407e-11 -2.7164e-09 0)
(1.7878e-11 -2.27024e-09 0)
(6.74949e-11 -2.04338e-09 0)
(4.66592e-11 -8.85586e-10 0)
(-1.39807e-11 -1.28885e-09 0)
(-6.19589e-11 -1.20038e-09 0)
(-4.38249e-11 -1.12066e-09 0)
(-3.27154e-11 -1.06163e-09 0)
(-2.85235e-08 7.54816e-08 0)
(7.61243e-11 8.77506e-09 0)
(2.97359e-11 -4.24995e-10 0)
(0 0 0)
(3.49482e-12 -1.20548e-09 0)
(1.167e-10 -1.2402e-09 0)
(1.23549e-10 -3.2127e-09 0)
(4.6732e-11 -1.16689e-09 0)
(5.44023e-11 -1.07608e-09 0)
(1.21167e-11 -1.16619e-09 0)
(8.05294e-11 -1.20785e-09 0)
(-1.08774e-11 -1.21392e-09 0)
(0 0 0)
(0 0 0)
(4.11445e-11 -1.18593e-09 0)
(1.38892e-11 -1.14377e-09 0)
(-2.40436e-11 -1.12084e-09 0)
(-1.37273e-11 -2.47183e-09 0)
(-2.78617e-11 -1.04754e-09 0)
(0 0 0)
(0 0 0)
(0 0 0)
(9.29848e-11 -2.44979e-09 0)
(-3.1126e-11 -1.07338e-09 0)
(-4.94135e-11 -2.26411e-09 0)
(1.47139e-11 -2.23959e-09 0)
(1.59951e-11 -2.23288e-09 0)
(6.25978e-11 -9.24595e-10 0)
(-1.52497e-11 -1.10142e-09 0)
(5.76146e-12 -1.27368e-09 0)
(-5.62752e-11 -1.12297e-09 0)
(1.38768e-11 -1.04651e-09 0)
(-3.6792e-11 -1.12289e-09 0)
(-2.94827e-11 -1.13674e-09 0)
(2.98184e-11 -1.17899e-09 0)
(1.48452e-11 -1.20136e-09 0)
(1.63456e-11 -1.18905e-09 0)
(1.25476e-11 -1.18423e-09 0)
(-1.36357e-12 -1.20118e-09 0)
(0 0 0)
(1.48824e-11 -1.2024e-09 0)
(-3.05618e-11 -1.10855e-09 0)
(-1.41246e-11 -1.13996e-09 0)
(0 0 0)
(-1.6365e-11 -1.17221e-09 0)
(-3.6389e-11 -1.23124e-09 0)
(-7.35262e-11 -1.63171e-09 0)
(-1.608e-10 -2.3231e-09 0)
(0 0 0)
(-6.33949e-12 -1.10828e-09 0)
(-3.17988e-11 -1.40003e-09 0)
(9.26656e-11 -2.43469e-09 0)
(4.03354e-11 -1.12422e-09 0)
(2.23947e-11 -1.07532e-09 0)
(-1.2253e-11 -1.0396e-09 0)
(-6.1215e-12 -1.11153e-09 0)
(-1.64101e-11 -1.14124e-09 0)
(-2.81166e-11 -1.16917e-09 0)
(-1.99644e-11 -1.18849e-09 0)
(3.23299e-13 -6.44003e-10 0)
(2.31601e-14 -2.42981e-11 0)
(-7.57542e-11 -1.16905e-09 0)
(-5.80788e-11 -1.20678e-09 0)
(-7.74818e-11 -1.14991e-09 0)
(2.79938e-11 -2.79097e-09 0)
(2.81442e-11 -1.06558e-09 0)
(-6.37918e-11 -2.74028e-09 0)
(-5.65879e-11 -1.03977e-09 0)
(-3.43462e-11 -3.92415e-09 0)
(5.48638e-11 -1.95399e-09 0)
(1.44455e-10 -3.57033e-09 0)
(4.0307e-11 -1.03757e-09 0)
(3.2275e-11 -1.14725e-09 0)
(-8.92049e-11 -1.04365e-09 0)
(-1.15168e-10 -1.15784e-09 0)
(4.6349e-08 8.77689e-08 0)
(6.1204e-09 9.40887e-09 0)
(6.60172e-10 5.41398e-10 0)
(-1.76238e-10 -8.88079e-10 0)
(0 0 0)
(-1.50686e-11 -1.19022e-09 0)
(-6.07557e-11 -2.93277e-09 0)
(0 0 0)
(0 0 0)
(1.76331e-10 -2.39787e-09 0)
(2.39277e-10 -2.61681e-09 0)
(5.50935e-11 -1.16463e-09 0)
(-3.57272e-11 -2.75296e-09 0)
(1.72624e-11 -1.00088e-09 0)
(1.62188e-11 -1.05282e-09 0)
(6.48475e-12 -1.11857e-09 0)
(-3.49617e-12 -1.16578e-09 0)
(0 0 0)
(-3.70356e-11 -2.51356e-09 0)
(-4.63719e-11 -1.06299e-09 0)
(-7.20834e-12 -2.51323e-09 0)
(5.75799e-11 -2.57166e-09 0)
(1.25566e-11 -2.4396e-09 0)
(3.389e-12 -2.30706e-09 0)
(0 0 0)
(1.01984e-10 -9.44814e-10 0)
(1.07993e-11 -9.55038e-10 0)
(4.33086e-11 -1.02917e-09 0)
(2.8137e-11 -1.17599e-09 0)
(-5.13048e-11 -1.23892e-09 0)
(0 0 0)
(1.81834e-11 -1.19387e-09 0)
(1.62128e-11 -1.18017e-09 0)
(1.41538e-11 -1.12792e-09 0)
(1.94258e-11 -1.11987e-09 0)
(2.32148e-11 -1.14562e-09 0)
(6.51316e-11 -1.20197e-09 0)
(-1.34919e-11 -1.09358e-09 0)
(1.67993e-11 -1.21525e-09 0)
(0 0 0)
(6.49504e-11 -2.73249e-09 0)
(5.84178e-12 -1.04357e-09 0)
(-2.81045e-11 -1.01052e-09 0)
(-3.18652e-11 -1.07854e-09 0)
(1.5748e-11 -1.17228e-09 0)
(0 0 0)
(-5.96659e-11 -1.27389e-09 0)
(-6.3391e-11 -1.22841e-09 0)
(-6.25448e-11 -2.56827e-09 0)
(-5.44726e-12 -9.92969e-10 0)
(-1.71241e-11 -1.05303e-09 0)
(1.3093e-11 -1.13587e-09 0)
(5.10024e-11 -1.19881e-09 0)
(3.76318e-11 -1.12342e-09 0)
(-1.88365e-11 -1.04825e-09 0)
(1.4178e-12 -1.16842e-09 0)
(-3.40746e-12 -1.19715e-09 0)
(1.45152e-11 -1.13928e-09 0)
(0 0 0)
(-5.37991e-11 -1.05619e-09 0)
(-1.29857e-11 -1.22873e-09 0)
(-1.84941e-11 -1.19477e-09 0)
(-9.41587e-11 -1.21643e-09 0)
(0 0 0)
(-3.33438e-11 -1.28417e-09 0)
(-4.59335e-11 -1.16941e-09 0)
(-1.08122e-10 -1.15251e-09 0)
(0 0 0)
(0 0 0)
(-5.14628e-11 -1.12037e-09 0)
(-1.86329e-10 -2.33342e-09 0)
(-2.37198e-10 -4.4732e-09 0)
(1.77429e-11 -2.31458e-09 0)
(-2.7277e-11 -2.10029e-09 0)
(-5.54886e-11 -8.75766e-10 0)
(5.90837e-08 3.51541e-08 0)
(7.29338e-09 1.86028e-09 0)
(1.05766e-09 -1.55403e-10 0)
(-1.14516e-11 -1.87104e-09 0)
(-9.81656e-11 -3.56945e-09 0)
(0 0 0)
(0 0 0)
(9.36594e-11 -1.15152e-09 0)
(1.76789e-10 -2.48584e-09 0)
(8.15403e-11 -9.63038e-10 0)
(5.71578e-11 -1.04271e-09 0)
(-4.41881e-11 -3.10539e-09 0)
(2.34815e-11 -1.07167e-09 0)
(3.94893e-11 -1.00093e-09 0)
(4.63105e-11 -1.42323e-09 0)
(-1.33439e-11 -2.16831e-09 0)
(1.64954e-11 -1.14473e-09 0)
(3.64232e-11 -1.13754e-09 0)
(-3.71802e-11 -1.15544e-09 0)
(-1.94778e-11 -1.12368e-09 0)
(-2.90525e-12 -2.00317e-10 0)
(-1.08274e-11 -7.23087e-10 0)
(-6.56684e-12 -1.1469e-09 0)
(2.18921e-11 -1.11551e-09 0)
(0 0 0)
(1.17023e-11 -1.07286e-09 0)
(0 0 0)
(1.1428e-12 -1.18864e-09 0)
(9.24814e-11 -2.88757e-09 0)
(-4.12629e-12 -1.13046e-09 0)
(3.05255e-11 -9.7969e-10 0)
(6.22546e-12 -1.09713e-09 0)
(1.34792e-11 -1.19975e-09 0)
(8.52083e-12 -4.48024e-10 0)
(6.31144e-12 -3.1419e-10 0)
(1.60263e-11 -1.18928e-09 0)
(4.28295e-11 -2.85855e-09 0)
(0 0 0)
(3.36845e-11 -1.16243e-09 0)
(5.12834e-11 -1.13947e-09 0)
(2.47054e-11 -1.20242e-09 0)
(2.17174e-11 -1.11034e-09 0)
(-2.79386e-11 -1.08926e-09 0)
(-4.73554e-11 -1.08799e-09 0)
(-1.77852e-11 -1.1366e-09 0)
(4.16936e-11 -1.24359e-09 0)
(-1.99305e-11 -1.33271e-09 0)
(-9.70215e-11 -2.75412e-09 0)
(-4.40623e-12 -1.04827e-09 0)
(2.04609e-13 -1.01954e-09 0)
(-9.42897e-12 -1.0566e-09 0)
(1.83142e-12 -1.1374e-09 0)
(6.83709e-12 -1.14742e-09 0)
(2.51733e-11 -1.15963e-09 0)
(1.44665e-11 -1.15492e-09 0)
(-3.54121e-12 -1.21429e-09 0)
(0 0 0)
(2.14426e-12 -1.15731e-09 0)
(0 0 0)
(-4.32123e-12 -2.46039e-09 0)
(1.14005e-11 -1.74839e-09 0)
(4.32644e-11 -2.13499e-09 0)
(-7.32136e-11 -1.13962e-09 0)
(0 0 0)
(-1.73209e-10 -2.7241e-09 0)
(1.03597e-11 -1.02263e-09 0)
(0 0 0)
(3.61146e-12 -1.1626e-09 0)
(1.10537e-10 -2.68511e-09 0)
(0 0 0)
(-1.44914e-10 -1.23248e-09 0)
(-1.36503e-10 -1.38714e-09 0)
(1.66034e-12 -4.68258e-10 0)
(1.49051e-12 -4.48241e-10 0)
(-1.6953e-11 -2.51207e-09 0)
(1.05016e-09 4.06618e-08 0)
(-1.51688e-09 1.52085e-09 0)
(5.03488e-10 6.96492e-10 0)
(4.15911e-11 -1.2422e-09 0)
(0 0 0)
(-2.44166e-11 -1.72407e-09 0)
(8.68775e-11 -2.02353e-09 0)
(4.83293e-11 -1.12382e-09 0)
(8.75228e-11 -1.99614e-09 0)
(2.34773e-11 -1.57702e-09 0)
(-8.45186e-12 -1.27621e-09 0)
(-1.01733e-11 -1.16263e-09 0)
(4.95165e-11 -1.08726e-09 0)
(4.89124e-11 -1.07049e-09 0)
(7.90573e-11 -2.54241e-09 0)
(-1.54321e-12 -9.82193e-10 0)
(3.48065e-12 -9.55918e-10 0)
(1.64305e-10 -2.54889e-09 0)
(2.55559e-11 -1.10476e-09 0)
(-1.64611e-11 -1.13305e-09 0)
(-3.40279e-11 -1.14904e-09 0)
(-3.67978e-11 -1.19105e-09 0)
(-9.33242e-11 -1.1671e-09 0)
(0 0 0)
(2.18628e-11 -9.57414e-10 0)
(-9.5904e-11 -2.30415e-09 0)
(0 0 0)
(0 0 0)
(1.2514e-11 -1.26631e-09 0)
(5.27826e-11 -1.26763e-09 0)
(1.73395e-10 -2.51897e-09 0)
(1.48866e-11 -1.20023e-09 0)
(2.28274e-11 -1.19321e-09 0)
(4.55339e-12 -1.2519e-09 0)
(2.05096e-11 -1.16778e-09 0)
(1.49752e-11 -1.15148e-09 0)
(-1.29875e-11 -1.11342e-09 0)
(3.22084e-11 -1.22769e-09 0)
(4.61492e-11 -1.17605e-09 0)
(-1.3027e-11 -1.19135e-09 0)
(-2.55431e-11 -1.13976e-09 0)
(-5.2149e-12 -1.12389e-09 0)
(-6.69376e-11 -2.60727e-09 0)
(-4.84838e-11 -1.01221e-09 0)
(-3.67233e-11 -1.03307e-09 0)
(-1.01214e-10 -2.99076e-09 0)
(3.14265e-11 -1.16847e-09 0)
(1.15512e-11 -1.02129e-09 0)
(2.76809e-11 -1.06685e-09 0)
(-1.57733e-11 -1.13581e-09 0)
(-2.56405e-11 -1.12323e-09 0)
(-1.96752e-11 -1.07529e-09 0)
(1.85384e-11 -1.10051e-09 0)
(4.55394e-11 -1.14237e-09 0)
(1.36668e-11 -1.13669e-09 0)
(-9.92265e-12 -1.82627e-09 0)
(-5.5483e-12 -4.37265e-10 0)
(-9.23098e-12 -1.12063e-09 0)
(0 0 0)
(4.19544e-13 -1.07297e-09 0)
(-9.18798e-12 -1.08637e-09 0)
(-3.1959e-11 -1.3407e-09 0)
(0 0 0)
(3.51418e-11 -1.18432e-09 0)
(-6.87132e-11 -1.17334e-09 0)
(-1.87822e-11 -1.17816e-09 0)
(3.05426e-11 -1.25141e-09 0)
(0 0 0)
(4.0796e-11 -1.15167e-09 0)
(5.63574e-11 -1.2146e-09 0)
(0 0 0)
(0 0 0)
(-2.69769e-11 -1.21728e-09 0)
(0 0 0)
(0 0 0)
(-6.31361e-09 3.69921e-08 0)
(2.03465e-10 6.04684e-09 0)
(1.10055e-09 -8.91778e-10 0)
(0 0 0)
(8.45048e-12 -2.65491e-09 0)
(-1.40717e-11 -1.27085e-09 0)
(0 0 0)
(2.95316e-11 -1.13148e-09 0)
(2.07605e-11 -1.1774e-09 0)
(4.73945e-11 -1.69269e-09 0)
(-1.94372e-11 -1.96151e-09 0)
(4.96729e-12 -1.19411e-09 0)
(4.74695e-11 -1.15207e-09 0)
(4.89675e-11 -2.02529e-09 0)
(6.14409e-11 -1.45822e-09 0)
(5.0724e-11 -1.06125e-09 0)
(2.3803e-12 -1.05869e-09 0)
(1.29658e-11 -1.1508e-09 0)
(4.914e-11 -1.13447e-09 0)
(-3.93949e-11 -1.18021e-09 0)
(-3.81529e-11 -1.14901e-09 0)
(-2.64874e-12 -2.00386e-10 0)
(-1.16611e-11 -8.10763e-10 0)
(2.26411e-11 -1.21422e-09 0)
(0 0 0)
(0 0 0)
(2.40215e-11 -1.01056e-09 0)
(4.51682e-11 -1.17351e-09 0)
(0 0 0)
(0 0 0)
(0 0 0)
(0 0 0)
(-2.43217e-12 -2.67606e-09 0)
(-3.4494e-11 -1.0691e-09 0)
(-2.75031e-11 -1.13376e-09 0)
(1.17562e-11 -2.67135e-09 0)
(4.75322e-11 -1.27957e-09 0)
(0 0 0)
(-1.09883e-11 -1.25597e-09 0)
(-2.43937e-11 -1.23054e-09 0)
(-3.4662e-11 -1.26067e-09 0)
(-3.70223e-11 -1.24839e-09 0)
(-4.67746e-11 -1.17219e-09 0)
(-3.62257e-11 -1.11933e-09 0)
(-3.41322e-11 -1.19201e-09 0)
(-8.99224e-12 -5.73003e-10 0)
(3.83467e-11 -1.38776e-09 0)
(4.07678e-11 -1.11967e-09 0)
(-1.2786e-11 -1.19176e-09 0)
(-4.49589e-11 -1.12017e-09 0)
(-5.39942e-11 -1.07101e-09 0)
(-4.74456e-11 -1.11484e-09 0)
(-4.81209e-11 -1.15132e-09 0)
(2.47229e-12 -1.21792e-09 0)
(1.91308e-11 -2.60673e-09 0)
(-4.84414e-12 -1.0097e-09 0)
(1.67546e-11 -1.10226e-09 0)
(3.20919e-11 -1.1149e-09 0)
(3.58489e-11 -1.15371e-09 0)
(-2.61655e-11 -1.12928e-09 0)
(-1.69268e-11 -1.10767e-09 0)
(-8.58254e-11 -1.12844e-09 0)
(3.06951e-11 -1.19638e-09 0)
(2.40582e-11 -1.24538e-09 0)
(0 0 0)
(-6.90398e-12 -1.18721e-09 0)
(-2.65024e-11 -1.17535e-09 0)
(8.75697e-13 -1.13571e-09 0)
(4.24416e-11 -1.29247e-09 0)
(0 0 0)
(-5.77213e-11 -1.25714e-09 0)
(-9.43327e-11 -1.31227e-09 0)
(-5.13647e-11 -1.20332e-09 0)
(0 0 0)
(-2.18747e-11 -1.2057e-09 0)
(8.44896e-09 5.93603e-08 0)
(2.50429e-09 6.60824e-09 0)
(4.38094e-10 -4.86182e-11 0)
(1.76898e-10 -1.09606e-09 0)
(-7.05511e-12 -1.1963e-09 0)
(0 0 0)
(2.443e-11 -1.09473e-09 0)
(3.72883e-11 -1.14662e-09 0)
(2.19322e-11 -1.24122e-09 0)
(1.2406e-12 -1.22272e-09 0)
(-3.45299e-11 -1.16254e-09 0)
(-2.06043e-12 -1.12974e-09 0)
(-1.45998e-11 -1.11666e-09 0)
(-1.44936e-11 -1.13296e-09 0)
(-2.97365e-11 -1.15124e-09 0)
(2.10624e-11 -1.11627e-09 0)
(3.57838e-11 -2.50861e-09 0)
(-1.72505e-11 -1.09461e-09 0)
(1.31715e-11 -1.3255e-09 0)
(0 0 0)
(-1.1148e-11 -1.20477e-09 0)
(3.39822e-11 -1.22083e-09 0)
(0 0 0)
(0 0 0)
(5.16853e-11 -1.0956e-09 0)
(2.87157e-11 -1.13404e-09 0)
(0 0 0)
(5.39163e-11 -1.15809e-09 0)
(5.87995e-11 -1.21851e-09 0)
(1.00632e-10 -1.26361e-09 0)
(1.22055e-10 -1.20228e-09 0)
(1.25806e-10 -2.78506e-09 0)
(-9.62319e-11 -2.5543e-09 0)
(-5.41569e-11 -1.1455e-09 0)
(0 0 0)
(-9.34902e-12 -1.13662e-09 0)
(3.20372e-11 -1.12522e-09 0)
(1.15524e-10 -1.24459e-09 0)
(-1.24502e-11 -1.2976e-09 0)
(-1.64396e-11 -1.14984e-09 0)
(1.42622e-12 -1.19543e-09 0)
(0 0 0)
(-3.7372e-11 -1.11213e-09 0)
(-5.78339e-11 -1.19111e-09 0)
(-5.84351e-11 -1.18951e-09 0)
(-1.73606e-11 -1.17198e-09 0)
(0 0 0)
(7.19099e-12 -1.21241e-09 0)
(-7.2005e-11 -1.22453e-09 0)
(0 0 0)
(-3.90708e-12 -1.15189e-09 0)
(0 0 0)
(0 0 0)
(4.77752e-11 -1.21458e-09 0)
(1.94545e-11 -1.20374e-09 0)
(-1.84491e-11 -1.11965e-09 0)
(2.97757e-11 -1.01688e-09 0)
(5.75394e-12 -1.20994e-09 0)
(-1.29269e-11 -2.5515e-09 0)
(1.0073e-11 -1.10286e-09 0)
(-7.24245e-11 -2.72058e-09 0)
(0 0 0)
(1.09911e-11 -1.16651e-09 0)
(5.78482e-12 -1.26092e-09 0)
(0 0 0)
(9.66937e-12 -1.19055e-09 0)
(0 0 0)
(0 0 0)
(4.81286e-12 -1.09084e-09 0)
(6.79578e-11 -3.10162e-09 0)
(-5.1523e-11 -1.20804e-09 0)
(-1.7412e-11 -1.05619e-09 0)
(-3.05329e-11 -1.12125e-09 0)
(-5.36861e-11 -1.12849e-09 0)
(-4.33181e-11 -1.11431e-09 0)
(2.77602e-08 6.02274e-08 0)
(1.70764e-09 2.42084e-09 0)
(4.32389e-10 -3.93828e-10 0)
(1.06025e-10 -1.43087e-09 0)
(0 0 0)
(2.95582e-11 -1.23762e-09 0)
(3.90721e-11 -1.21e-09 0)
(8.55748e-11 -1.18843e-09 0)
(5.70659e-11 -1.19643e-09 0)
(3.72615e-11 -1.24804e-09 0)
(7.85775e-13 -1.21845e-09 0)