/*--------------------------------*- C++ -*----------------------------------*\
  =========                 |
  \\      /  F ield         | OpenFOAM: The Open Source CFD Toolbox
   \\    /   O peration     | Website:  https://openfoam.org
    \\  /    A nd           | Version:  12
     \\/     M anipulation  |
\*---------------------------------------------------------------------------*/
FoamFile
{
    format      ascii;
    class       volScalarField;
    location    "0.8";
    object      p;
}
// * * * * * * * * * * * * * * * * * * * * * * * * * * * * * * * * * * * * * //

dimensions      [0 2 -2 0 0 0 0];

internalField   nonuniform List<scalar> 
3750
(
1.57899
1.56842
1.50659
1.49796
1.4915
1.48239
1.47183
1.45939
1.44626
1.43309
1.4187
1.40458
1.42146
1.40754
1.3943
1.38278
1.37467
1.3722
1.35566
1.34272
1.33383
1.30369
1.29894
1.29163
1.28293
1.27351
1.26319
1.25221
1.24043
1.22473
1.21697
1.21095
1.20554
1.19618
1.18452
1.17221
1.16105
1.15294
1.15441
1.14859
1.12646
1.11635
1.10055
1.09255
1.0828
1.07142
1.06019
1.04892
1.03838
1.02837
1.01788
1.00655
0.995055
0.98335
0.971309
0.958601
0.942826
0.928719
0.942855
0.928287
0.912953
0.90058
0.889704
0.8798
0.871275
0.864623
0.858413
0.842946
0.829875
0.8171
0.803599
0.787423
0.772349
0.787613
0.771717
1.56271
1.54654
1.51859
1.5044
1.49384
1.48406
1.47318
1.45991
1.44637
1.43409
1.42242
1.41322
1.41143
1.4039
1.3924
1.38077
1.36802
1.35146
1.3471
1.33721
1.32531
1.31105
1.30152
1.29263
1.28363
1.27452
1.26384
1.25102
1.23972
1.22338
1.21527
1.18509
1.20607
1.19696
1.18474
1.17117
1.15911
1.1466
1.15831
1.14648
1.1306
1.12277
1.09649
1.09243
1.08356
1.07106
1.05882
1.04747
1.03755
1.02888
1.0186
1.00691
0.995261
0.983691
0.971869
0.959678
0.947149
0.937381
0.934992
0.924607
0.909975
0.898841
0.889251
0.87855
0.869072
0.866838
0.855554
0.842897
0.829776
0.817778
0.805706
0.789917
0.781197
0.781066
0.769684
1.55141
1.5387
1.52447
1.50744
1.49558
1.48708
1.47642
1.46145
1.44597
1.43483
1.42492
1.41695
1.40944
1.40049
1.38952
1.37809
1.36445
1.35122
1.34365
1.33414
1.31833
1.31252
1.30386
1.29404
1.28426
1.27517
1.26429
1.25151
1.23846
1.22341
1.2081
1.20515
1.20231
1.19435
1.18473
1.17224
1.16052
1.15269
1.15014
1.14194
1.12974
1.11655
1.10108
1.09679
1.08888
1.07089
1.05743
1.04539
1.03515
1.03124
1.02065
1.00711
0.995451
0.984516
0.972978
0.960292
0.949311
0.940114
0.932601
0.92129
0.905863
0.895926
0.890679
0.877722
0.865077
0.870505
0.857999
0.840866
0.829389
0.818777
0.811774
0.785751
0.7818
0.780748
0.770553
1.54994
1.53893
1.52641
1.50615
1.4982
1.48862
1.48006
1.4668
1.44128
1.43469
1.42586
1.41702
1.40895
1.39932
1.38839
1.37775
1.36295
1.35279
1.34415
1.33663
1.33203
1.31577
1.30856
1.29549
1.28411
1.27354
1.26234
1.24976
1.2411
1.23426
1.22118
1.2003
1.19597
1.18748
1.18333
1.17681
1.1644
1.15363
1.14546
1.14149
1.12931
1.11278
1.09664
1.09834
1.07305
1.06644
1.0548
1.04305
1.03111
1.0375
1.02245
1.00545
0.99503
0.98552
0.974957
0.96056
0.949636
0.94013
0.930662
0.919627
0.904021
0.891222
0.894899
0.879789
0.872204
0.867212
0.861767
0.834855
0.827863
0.817247
0.806318
0.790622
0.778437
0.783885
0.773302
1.54955
1.54198
1.52198
1.50591
1.49991
1.48891
1.47803
1.46445
1.44903
1.43685
1.42609
1.41426
1.41104
1.39953
1.38688
1.3817
1.35707
1.35149
1.34334
1.33737
1.32899
1.31301
1.31368
1.29514
1.28346
1.27201
1.26053
1.24615
1.24969
1.23557
1.22124
1.20602
1.19419
1.17933
1.18144
1.18424
1.16708
1.1525
1.13975
1.14578
1.13194
1.11242
1.09961
1.09274
1.07838
1.06752
1.05216
1.0428
1.03507
1.03711
1.01325
1.00736
0.998023
0.988516
0.979655
0.958395
0.949122
0.939628
0.929595
0.918358
0.906248
0.89522
0.890717
0.880279
0.87307
0.865254
0.855441
0.840606
0.830059
0.819356
0.805917
0.793523
0.783148
0.777844
0.770396
1.54472
1.52668
1.51422
1.49766
1.50265
1.48818
1.47662
1.46519
1.45327
1.43851
1.42723
1.40576
1.41517
1.39936
1.38164
1.37371
1.36137
1.3527
1.34388
1.33589
1.32895
1.31818
1.31256
1.29433
1.28268
1.27075
1.26416
1.25325
1.24697
1.23489
1.22188
1.20894
1.19717
1.18641
1.17931
1.17593
1.1655
1.15407
1.14442
1.14187
1.13607
1.1071
1.09969
1.09062
1.08033
1.07318
1.04485
1.03966
1.03223
1.02327
1.01671
1.01367
1.00157
0.990919
0.983421
0.953569
0.94779
0.939429
0.929366
0.918979
0.907996
0.89579
0.884964
0.876786
0.875257
0.865967
0.854179
0.842387
0.832199
0.82295
0.807217
0.795929
0.786005
0.775105
0.764822
1.54942
1.53627
1.5108
1.49839
1.49452
1.4851
1.47537
1.46658
1.46088
1.43674
1.41184
1.41888
1.41159
1.39699
1.38094
1.37016
1.35989
1.35424
1.34438
1.33327
1.32803
1.32347
1.31298
1.29718
1.28246
1.26739
1.27049
1.25779
1.24434
1.23353
1.2223
1.21103
1.20158
1.19668
1.17395
1.1712
1.16349
1.15431
1.14615
1.13938
1.13022
1.11078
1.09963
1.0895
1.07923
1.06811
1.048
1.03723
1.03183
1.01555
1.01647
1.01923
1.00389
0.990542
0.977516
0.960919
0.949787
0.93979
0.930311
0.919983
0.909071
0.893644
0.878921
0.873624
0.882328
0.86882
0.852946
0.842423
0.832392
0.822268
0.810387
0.799535
0.789422
0.778308
0.768592
1.55761
1.54578
1.50822
1.49683
1.49037
1.48187
1.47325
1.46493
1.45502
1.43928
1.42434
1.41885
1.40715
1.39478
1.38126
1.36711
1.35311
1.35747
1.3446
1.33015
1.32345
1.32989
1.3159
1.30014
1.2864
1.27458
1.26649
1.25388
1.24292
1.2326
1.2222
1.21162
1.20136
1.19191
1.17926
1.17091
1.16281
1.15465
1.14673
1.14024
1.13487
1.10654
1.09855
1.08847
1.07893
1.06966
1.0487
1.0347
1.03764
1.02127
1.01497
1.00687
1.007
0.986572
0.975166
0.962331
0.950579
0.940066
0.932035
0.921504
0.91099
0.891942
0.87489
0.881296
0.877868
0.872419
0.846728
0.841381
0.833042
0.822148
0.811546
0.802212
0.793812
0.781315
0.769354
1.56167
1.54699
1.51596
1.49832
1.48839
1.47867
1.47018
1.46552
1.45503
1.44153
1.42925
1.41766
1.40652
1.3947
1.38242
1.36961
1.35722
1.35238
1.33993
1.32629
1.33326
1.32727
1.31404
1.30114
1.28938
1.27968
1.26462
1.24918
1.24186
1.23278
1.22235
1.21184
1.20055
1.19044
1.18023
1.17116
1.1624
1.15375
1.14547
1.13936
1.1307
1.11283
1.0992
1.0871
1.0791
1.07064
1.05702
1.04323
1.04132
1.01717
1.0128
1.00501
0.995701
0.984388
0.9737
0.962252
0.951333
0.941035
0.932012
0.922326
0.908094
0.893855
0.882817
0.87785
0.87093
0.864403
0.850414
0.84471
0.8354
0.821607
0.811983
0.802998
0.798933
0.783469
0.767777
1.577
1.54753
1.51757
1.49771
1.48673
1.47477
1.463
1.46891
1.45727
1.4425
1.43026
1.4176
1.40814
1.39569
1.38474
1.37236
1.3606
1.35062
1.34177
1.33427
1.33143
1.32213
1.31173
1.30077
1.29001
1.27907
1.26411
1.25013
1.24101
1.23318
1.22257
1.21325
1.20037
1.19049
1.17993
1.17076
1.16212
1.15276
1.14446
1.13762
1.13065
1.115
1.10056
1.0858
1.07929
1.07221
1.06711
1.04387
1.034
1.02229
1.01926
0.996711
0.991725
0.983468
0.973215
0.962277
0.951526
0.941566
0.933102
0.927609
0.901628
0.894441
0.885628
0.874783
0.866041
0.86317
0.847424
0.849875
0.838015
0.818797
0.81066
0.802904
0.800862
0.785166
0.770756
1.58482
1.53921
1.51357
1.49729
1.48765
1.47703
1.46691
1.46364
1.45389
1.44143
1.43109
1.41435
1.41374
1.39826
1.3882
1.37363
1.36051
1.35288
1.34563
1.33727
1.33031
1.31734
1.3095
1.29982
1.28888
1.27628
1.2625
1.25022
1.23784
1.23629
1.22179
1.21587
1.20085
1.1909
1.17845
1.17024
1.16219
1.15092
1.14322
1.13565
1.12744
1.116
1.1019
1.08845
1.07944
1.07132
1.06379
1.05199
1.03731
1.02152
1.01515
1.00149
0.992442
0.984034
0.974063
0.962231
0.950635
0.94054
0.9313
0.921683
0.907525
0.896413
0.889934
0.87422
0.863931
0.867167
0.853418
0.84484
0.835153
0.821074
0.810185
0.798174
0.80455
0.785316
0.773159
1.48802
1.50287
1.50848
1.50002
1.4907
1.48137
1.46907
1.46173
1.45241
1.43863
1.42341
1.41298
1.41939
1.40449
1.39568
1.37053
1.3585
1.35449
1.34958
1.337
1.33542
1.31143
1.30613
1.29819
1.28934
1.27473
1.25948
1.2484
1.23081
1.23722
1.22365
1.2143
1.20543
1.19508
1.17239
1.16822
1.16263
1.14929
1.14244
1.13418
1.1249
1.11477
1.1032
1.09106
1.07976
1.06948
1.06443
1.05585
1.03783
1.02593
1.01598
1.00172
0.993893
0.98591
0.976882
0.961938
0.948111
0.938801
0.92989
0.920504
0.91362
0.888323
0.890391
0.88025
0.873079
0.864348
0.85402
0.842272
0.832135
0.821733
0.812354
0.806841
0.802281
0.777796
0.771811
1.48845
1.47919
1.51504
1.50295
1.49383
1.4889
1.46533
1.46206
1.45885
1.43407
1.41483
1.42198
1.41647
1.40425
1.38823
1.3749
1.36174
1.35398
1.34683
1.33761
1.33053
1.31814
1.30566
1.29801
1.29086
1.27371
1.25597
1.24594
1.23309
1.22976
1.22074
1.2118
1.20228
1.19099
1.17867
1.16993
1.16211
1.15104
1.14261
1.13343
1.12382
1.11483
1.10472
1.09338
1.08114
1.06583
1.06607
1.0542
1.03832
1.02668
1.0178
1.00183
0.995185
0.988321
0.985406
0.961475
0.94079
0.936866
0.928914
0.918934
0.908246
0.890499
0.896213
0.884061
0.873836
0.862374
0.853999
0.839555
0.830225
0.820506
0.81228
0.804675
0.793964
0.78052
0.769795
1.51004
1.50778
1.50657
1.50045
1.49218
1.48336
1.47209
1.46308
1.45494
1.44572
1.4177
1.42032
1.4141
1.40816
1.3812
1.37344
1.36236
1.35263
1.34351
1.34013
1.33134
1.32545
1.30112
1.29695
1.28933
1.27443
1.25618
1.24353
1.23377
1.22489
1.217
1.20961
1.20087
1.19172
1.18084
1.17018
1.16055
1.15249
1.14356
1.13399
1.12372
1.11549
1.1065
1.09604
1.08547
1.07647
1.05441
1.04875
1.03811
1.02791
1.01779
1.00413
0.994946
0.986888
0.979692
0.960151
0.948204
0.939271
0.93009
0.919717
0.909738
0.89762
0.891439
0.883252
0.874541
0.863101
0.852432
0.838437
0.827677
0.816729
0.813114
0.805359
0.793083
0.78078
0.769281
1.51987
1.51338
1.50497
1.49626
1.49371
1.48412
1.47341
1.46302
1.45284
1.44267
1.42978
1.4214
1.41152
1.40115
1.38592
1.37461
1.36275
1.35153
1.33863
1.34462
1.32922
1.31919
1.30692
1.29881
1.28882
1.27544
1.25624
1.24317
1.23306
1.22009
1.21264
1.20801
1.20219
1.19117
1.18125
1.17058
1.16
1.15108
1.14569
1.13573
1.12486
1.11627
1.1069
1.09729
1.08718
1.07289
1.05762
1.04765
1.03783
1.02776
1.01657
1.00464
0.994579
0.984623
0.974354
0.963223
0.952233
0.941509
0.932346
0.92006
0.912308
0.900396
0.892008
0.883288
0.873993
0.863053
0.851342
0.838241
0.824032
0.811552
0.822021
0.810208
0.792599
0.780216
0.76857
1.52258
1.51301
1.50292
1.48784
1.49562
1.48469
1.47367
1.46266
1.45229
1.44314
1.43431
1.42417
1.40986
1.39914
1.38754
1.37643
1.36454
1.35007
1.3415
1.34268
1.32013
1.31569
1.30843
1.30099
1.28931
1.27749
1.2605
1.24376
1.2355
1.2101
1.20519
1.20634
1.20814
1.19345
1.18316
1.17087
1.15915
1.14605
1.1506
1.13849
1.12674
1.11422
1.10612
1.09726
1.08602
1.0729
1.06033
1.04831
1.03766
1.02647
1.01584
1.00531
0.994193
0.981451
0.970624
0.966155
0.956343
0.942456
0.937118
0.916814
0.912585
0.902266
0.894381
0.88561
0.874845
0.863038
0.850791
0.837501
0.823326
0.811823
0.824304
0.815797
0.786573
0.7788
0.768361
1.52586
1.51434
1.50897
1.48498
1.48701
1.48243
1.47393
1.46173
1.45183
1.44336
1.43678
1.43135
1.40519
1.39859
1.3886
1.37923
1.36901
1.34373
1.33972
1.33249
1.32301
1.3147
1.30645
1.29888
1.29498
1.28539
1.2585
1.24869
1.22302
1.2122
1.19877
1.20628
1.21387
1.19717
1.18602
1.17408
1.15853
1.14787
1.15068
1.13787
1.12615
1.10873
1.10773
1.09814
1.08617
1.07445
1.06297
1.04789
1.03777
1.025
1.0151
1.00517
0.994471
0.978326
0.965469
0.972148
0.963633
0.935298
0.926496
0.927784
0.914593
0.902579
0.898764
0.89019
0.876631
0.863527
0.85112
0.837246
0.826896
0.819532
0.815906
0.806904
0.791235
0.779951
0.769178
1.52233
1.51191
1.5025
1.48996
1.48578
1.48357
1.47623
1.46117
1.45087
1.44274
1.43734
1.42737
1.41241
1.40173
1.38918
1.38341
1.35741
1.34726
1.33875
1.32941
1.32012
1.31424
1.30453
1.29363
1.30464
1.27777
1.26598
1.23865
1.22801
1.21751
1.20815
1.20581
1.20407
1.19944
1.18973
1.18168
1.1539
1.14728
1.15956
1.13096
1.12067
1.10472
1.11162
1.10024
1.08563
1.0757
1.06908
1.04277
1.03853
1.02311
1.01499
1.00561
0.997107
0.978851
0.968024
0.96521
0.955796
0.941685
0.933246
0.929211
0.912831
0.899362
0.906541
0.896933
0.872525
0.868725
0.84811
0.834691
0.828363
0.823821
0.809546
0.802933
0.791597
0.780516
0.770374
1.52098
1.50915
1.49852
1.48813
1.48087
1.48865
1.47964
1.46326
1.44659
1.44287
1.44023
1.42824
1.41516
1.4048
1.38758
1.3769
1.36101
1.34949
1.33852
1.32646
1.3127
1.31629
1.3055
1.29344
1.29203
1.28267
1.25836
1.2454
1.22946
1.22277
1.21402
1.20547
1.19558
1.20131
1.18983
1.17702
1.16217
1.15449
1.15009
1.13549
1.12128
1.10957
1.10664
1.09988
1.08342
1.07391
1.06328
1.04854
1.03943
1.02583
1.01521
1.00536
0.995998
0.984324
0.968768
0.961927
0.952079
0.942019
0.939994
0.936302
0.910149
0.906075
0.900935
0.886821
0.869252
0.874366
0.852711
0.838065
0.828088
0.819372
0.813362
0.803127
0.79169
0.780184
0.768879
1.52122
1.5068
1.49365
1.48825
1.48507
1.48705
1.48481
1.46974
1.43502
1.44186
1.44545
1.42917
1.41565
1.40334
1.38788
1.37502
1.36103
1.35064
1.33936
1.32736
1.31583
1.31091
1.30205
1.29219
1.28273
1.27019
1.26884
1.25554
1.22291
1.22967
1.21883
1.20837
1.20026
1.196
1.18424
1.17267
1.16521
1.15701
1.14743
1.13452
1.12214
1.1121
1.1052
1.0968
1.08395
1.07276
1.06167
1.04975
1.03906
1.02697
1.01468
1.00407
0.994614
0.984739
0.971622
0.962211
0.948982
0.936483
0.942789
0.933396
0.921529
0.912102
0.899828
0.882646
0.869593
0.874016
0.853338
0.839385
0.827002
0.815057
0.820149
0.803059
0.791717
0.780025
0.767139
1.52606
1.50592
1.48553
1.48422
1.4851
1.48688
1.49434
1.46196
1.44809
1.44365
1.4383
1.42612
1.41448
1.40192
1.38828
1.37473
1.36014
1.34844
1.34029
1.33008
1.31643
1.30753
1.29895
1.28934
1.2809
1.27154
1.26468
1.25228
1.23573
1.22879
1.21835
1.20998
1.20232
1.1961
1.17959
1.16639
1.17032
1.15631
1.14489
1.13454
1.12283
1.11368
1.10447
1.09506
1.0837
1.07226
1.06093
1.04983
1.03932
1.02931
1.01253
0.999946
0.993739
0.983458
0.976648
0.965321
0.952467
0.941171
0.936406
0.926871
0.933243
0.917389
0.904207
0.881237
0.876824
0.867428
0.849841
0.83794
0.827928
0.819383
0.818829
0.801825
0.792127
0.781187
0.765298
1.53163
1.50572
1.49261
1.48623
1.48316
1.47899
1.476
1.46789
1.45611
1.44551
1.43592
1.425
1.41409
1.40146
1.38852
1.37818
1.36048
1.34633
1.34022
1.33582
1.31089
1.30538
1.29694
1.28878
1.28129
1.27319
1.26318
1.25272
1.24112
1.22764
1.2154
1.20998
1.20351
1.1959
1.18366
1.16999
1.16563
1.15145
1.14118
1.13214
1.12452
1.11599
1.10807
1.09433
1.08294
1.0716
1.06007
1.04905
1.03996
1.03948
1.00801
0.996364
0.999042
0.981666
0.98513
0.969071
0.954755
0.941143
0.93599
0.931331
0.935781
0.918631
0.904631
0.882355
0.888629
0.860769
0.842877
0.834145
0.825246
0.822945
0.815717
0.803154
0.793647
0.78729
0.761618
1.4984
1.49932
1.49443
1.48789
1.48284
1.47012
1.46286
1.47062
1.45977
1.44626
1.43505
1.4242
1.41184
1.40142
1.38592
1.37694
1.36662
1.33965
1.33485
1.33178
1.31733
1.3061
1.29532
1.2848
1.28272
1.27369
1.26365
1.25427
1.24772
1.22588
1.21015
1.20787
1.20159
1.19955
1.19347
1.16828
1.16704
1.14207
1.13617
1.12941
1.12852
1.12025
1.1111
1.09266
1.08239
1.07076
1.05916
1.04738
1.03456
1.03958
1.01594
1.00636
1.00178
0.98944
0.981519
0.968269
0.953158
0.937467
0.942195
0.953251
0.928298
0.914481
0.902567
0.893696
0.873069
0.860555
0.845388
0.831201
0.819639
0.827134
0.816422
0.803417
0.792373
0.780911
0.764992
1.50418
1.50014
1.49712
1.49122
1.48816
1.46496
1.46439
1.46335
1.45901
1.44475
1.43458
1.42487
1.41078
1.4032
1.37671
1.37225
1.36117
1.34419
1.32984
1.33429
1.31966
1.30617
1.29353
1.27825
1.28507
1.2737
1.26328
1.25315
1.23869
1.22084
1.22108
1.20947
1.19816
1.20421
1.19077
1.17329
1.161
1.14465
1.13226
1.12431
1.13222
1.12525
1.11357
1.09421
1.08264
1.06944
1.05845
1.04836
1.03937
1.03569
1.02269
1.01342
1.00703
0.989882
0.980528
0.969259
0.957339
0.947264
0.94521
0.945293
0.936862
0.907876
0.898802
0.888056
0.874414
0.862708
0.845945
0.832708
0.824061
0.82167
0.812694
0.802165
0.791517
0.776838
0.767958
1.50783
1.5056
1.50051
1.49306
1.48392
1.46873
1.4701
1.46302
1.46167
1.43915
1.4335
1.42982
1.40135
1.39311
1.38013
1.37058
1.35988
1.34739
1.33625
1.32996
1.3176
1.30551
1.29468
1.27925
1.27691
1.27284
1.26268
1.25332
1.23722
1.22688
1.22004
1.21096
1.20158
1.19821
1.19256
1.17426
1.15926
1.14355
1.12816
1.13061
1.12559
1.12959
1.1198
1.0913
1.08778
1.06303
1.05687
1.04847
1.0404
1.03345
1.02543
1.0172
1.00935
0.990865
0.981486
0.970938
0.960916
0.952369
0.946282
0.940033
0.930029
0.91216
0.89687
0.885195
0.875095
0.868943
0.844612
0.833183
0.827009
0.819347
0.80953
0.80204
0.794672
0.763934
0.770856
1.50087
1.51412
1.50633
1.49648
1.4858
1.4607
1.47858
1.45556
1.45367
1.44927
1.42694
1.42671
1.40016
1.38862
1.38026
1.37063
1.36041
1.34972
1.33973
1.32955
1.31415
1.30396
1.29436
1.28025
1.2688
1.27499
1.26092
1.24911
1.24153
1.23018
1.22057
1.21248
1.20362
1.19379
1.20117
1.17039
1.15839
1.14359
1.13417
1.1299
1.1242
1.12001
1.11028
1.09479
1.08368
1.06867
1.05791
1.0481
1.03981
1.03335
1.02771
1.0197
1.00913
0.995782
0.982746
0.972107
0.963162
0.954827
0.947301
0.940611
0.92875
0.910337
0.893768
0.882076
0.872084
0.863581
0.849825
0.838632
0.829177
0.820421
0.8074
0.798488
0.788315
0.77402
0.768143
1.51299
1.50747
1.50769
1.50067
1.47367
1.46857
1.46771
1.45744
1.45038
1.44338
1.43025
1.4196
1.40471
1.3904
1.3808
1.37143
1.36144
1.35142
1.34214
1.33558
1.30868
1.30138
1.29104
1.28076
1.27265
1.26855
1.25677
1.24358
1.24504
1.23019
1.22145
1.21644
1.2087
1.19907
1.18984
1.17966
1.15381
1.14182
1.13698
1.1295
1.12382
1.11584
1.10607
1.09427
1.08264
1.07018
1.05835
1.0458
1.03507
1.03233
1.03241
1.0233
1.01284
0.999831
0.984501
0.973533
0.964758
0.956499
0.946996
0.940252
0.932989
0.904055
0.891448
0.880167
0.869781
0.860498
0.850754
0.841566
0.831594
0.825874
0.80112
0.796202
0.787424
0.776868
0.767379
1.51965
1.49507
1.50551
1.49297
1.47679
1.46879
1.46683
1.45779
1.44867
1.44013
1.43042
1.4193
1.40463
1.39195
1.38228
1.37271
1.36256
1.35231
1.34189
1.33055
1.31459
1.30193
1.28856
1.279
1.27676
1.26885
1.25807
1.24713
1.23886
1.22579
1.21479
1.22433
1.21441
1.20574
1.17883
1.17289
1.15887
1.14441
1.13547
1.12776
1.12558
1.11366
1.10489
1.0936
1.08233
1.0711
1.05981
1.04489
1.02358
1.03261
1.0412
1.02538
1.0129
1.00098
0.987226
0.976451
0.967493
0.958907
0.945723
0.932242
0.928958
0.907901
0.893703
0.881991
0.867093
0.85746
0.850378
0.841626
0.8296
0.82003
0.806956
0.797672
0.788535
0.778538
0.769406
1.53051
1.50849
1.49612
1.4863
1.47344
1.46308
1.47012
1.45808
1.44623
1.43697
1.4313
1.41991
1.4047
1.39268
1.38385
1.37459
1.3638
1.35323
1.34267
1.33044
1.31707
1.30395
1.28507
1.27194
1.279
1.27231
1.2608
1.24903
1.23769
1.22487
1.21366
1.22294
1.21284
1.19935
1.18264
1.17102
1.1601
1.14429
1.13661
1.12372
1.13273
1.10604
1.10545
1.09286
1.08214
1.07226
1.0649
1.05799
1.01478
1.03689
1.03506
1.02384
1.01194
1.00035
0.988632
0.978309
0.969916
0.965371
0.942603
0.937572
0.916577
0.905636
0.893724
0.888058
0.859658
0.855479
0.848743
0.840942
0.830236
0.820288
0.809229
0.799183
0.789503
0.77952
0.76974
1.48444
1.4924
1.48918
1.48187
1.4735
1.46739
1.46401
1.45418
1.44218
1.42907
1.4332
1.41841
1.4032
1.39487
1.3843
1.37874
1.3648
1.35457
1.34497
1.33152
1.31952
1.3114
1.28279
1.27497
1.26818
1.27393
1.2623
1.24983
1.23759
1.22717
1.2225
1.21455
1.20655
1.19552
1.18196
1.17174
1.16503
1.135
1.14266
1.12475
1.11675
1.10595
1.11155
1.09224
1.08111
1.07085
1.06756
1.04797
1.03587
1.03618
1.03092
1.02176
1.01077
0.999679
0.988734
0.978302
0.968545
0.958774
0.944829
0.9339
0.920604
0.905882
0.891168
0.884301
0.862914
0.856232
0.848843
0.840634
0.831234
0.821781
0.810668
0.8003
0.789512
0.781343
0.775289
1.47405
1.49197
1.48614
1.48034
1.47503
1.46868
1.46121
1.45211
1.44177
1.43154
1.42614
1.41422
1.39867
1.39705
1.38258
1.38945
1.36084
1.35504
1.35127
1.33118
1.31814
1.30783
1.29189
1.28006
1.27132
1.2674
1.25842
1.24917
1.23829
1.22964
1.22236
1.21125
1.20195
1.19255
1.177
1.17111
1.16349
1.14815
1.14592
1.11966
1.10614
1.11289
1.10551
1.09073
1.0792
1.06797
1.05672
1.05957
1.04574
1.03786
1.03059
1.02137
1.00993
0.998871
0.98824
0.977735
0.967133
0.955658
0.943116
0.932251
0.919115
0.906006
0.892089
0.881926
0.863727
0.856692
0.848501
0.840644
0.833194
0.824948
0.811305
0.802129
0.790916
0.779733
0.77014
1.49162
1.49174
1.48367
1.47756
1.4768
1.46969
1.46089
1.45147
1.44185
1.43219
1.42338
1.41362
1.40414
1.39226
1.38312
1.37798
1.36394
1.3544
1.3429
1.32381
1.31752
1.30748
1.29668
1.28223
1.27268
1.26369
1.25338
1.24766
1.24
1.23239
1.22389
1.21145
1.20124
1.19387
1.16586
1.17405
1.16568
1.15022
1.13972
1.12499
1.11219
1.10969
1.10052
1.08878
1.07712
1.06644
1.05934
1.05709
1.04842
1.03975
1.03195
1.02297
1.00852
0.997822
0.987595
0.977117
0.966633
0.955396
0.942174
0.929427
0.916707
0.903759
0.893021
0.887594
0.858751
0.854841
0.847664
0.840628
0.835803
0.834018
0.806794
0.806037
0.797051
0.775226
0.769626
1.4784
1.48884
1.48084
1.47352
1.4825
1.4717
1.46117
1.45122
1.44153
1.43206
1.42277
1.4136
1.40448
1.39187
1.38409
1.37407
1.36241
1.35763
1.34514
1.33079
1.32011
1.3098
1.30055
1.28275
1.27309
1.26226
1.25021
1.23776
1.24357
1.23671
1.2252
1.20949
1.1981
1.18767
1.17482
1.17222
1.16521
1.14898
1.13893
1.12706
1.11605
1.1077
1.09792
1.08669
1.07459
1.06317
1.06041
1.05853
1.04956
1.04069
1.03451
1.03021
1.00414
0.996464
0.986479
0.976275
0.966727
0.956745
0.942026
0.926526
0.914267
0.898704
0.892413
0.881188
0.863984
0.853757
0.845934
0.83917
0.83492
0.837965
0.810982
0.806719
0.795074
0.782596
0.770297
1.51749
1.49514
1.48439
1.47662
1.47608
1.47318
1.46093
1.45083
1.44108
1.43155
1.42211
1.4133
1.40415
1.39381
1.3844
1.37217
1.35782
1.36212
1.3482
1.33419
1.32274
1.31183
1.30106
1.28713
1.2742
1.26203
1.2513
1.24074
1.23481
1.24093
1.22709
1.20424
1.1945
1.18478
1.17521
1.17224
1.16396
1.15044
1.13939
1.12781
1.11713
1.10826
1.09722
1.08527
1.07161
1.05541
1.05903
1.06314
1.04865
1.03832
1.03596
1.02752
1.01239
0.99772
0.985688
0.975143
0.965529
0.95805
0.94609
0.921266
0.916733
0.888299
0.895925
0.880085
0.862001
0.849736
0.843872
0.835353
0.831096
0.839281
0.822382
0.810347
0.798809
0.786464
0.769792
1.50936
1.4949
1.48597
1.47809
1.47111
1.4775
1.46116
1.44965
1.43967
1.43065
1.4216
1.41299
1.40495
1.39568
1.38564
1.37454
1.36416
1.35778
1.34732
1.33585
1.32483
1.31336
1.30206
1.29118
1.27484
1.25953
1.25228
1.24354
1.23643
1.23575
1.22663
1.19697
1.1914
1.18249
1.17118
1.17724
1.16514
1.15188
1.13992
1.12866
1.11806
1.1078
1.09668
1.08527
1.07343
1.06197
1.05674
1.05344
1.04183
1.02952
1.04012
1.02952
1.01785
0.996784
0.983359
0.972923
0.964475
0.954846
0.940358
0.92532
0.914165
0.89974
0.89255
0.878886
0.858334
0.840063
0.843084
0.83084
0.836742
0.837274
0.826091
0.813403
0.802352
0.794868
0.768892
1.50541
1.49386
1.48512
1.4806
1.47578
1.47671
1.46169
1.44776
1.43817
1.4301
1.42037
1.41152
1.40725
1.39827
1.38785
1.37735
1.36687
1.35624
1.34658
1.33694
1.32719
1.31359
1.30392
1.29452
1.27514
1.25708
1.2516
1.24434
1.23734
1.23605
1.21117
1.19995
1.19155
1.18451
1.17712
1.17439
1.16483
1.15207
1.14039
1.12915
1.11888
1.1079
1.0968
1.08571
1.07516
1.06579
1.05496
1.04885
1.03886
1.02792
1.03843
1.02828
1.01932
1.00354
0.977976
0.968191
0.964587
0.95506
0.938524
0.92641
0.915686
0.903818
0.889848
0.87511
0.864539
0.838146
0.839505
0.830527
0.826141
0.839182
0.829736
0.815217
0.802447
0.789673
0.770927
1.50805
1.49598
1.47989
1.48425
1.47492
1.48374
1.45754
1.4439
1.4351
1.43246
1.41939
1.40791
1.41418
1.40158
1.3902
1.3801
1.36908
1.35505
1.34601
1.33755
1.32886
1.31337
1.3061
1.29201
1.2739
1.25775
1.25185
1.24491
1.23351
1.22724
1.21256
1.20122
1.19104
1.1845
1.17862
1.17476
1.16614
1.15184
1.13996
1.12869
1.11967
1.10878
1.09721
1.08574
1.074
1.06345
1.05455
1.04899
1.04136
1.03385
1.02854
1.02088
1.01648
1.00203
0.988356
0.958539
0.968229
0.960045
0.932239
0.925975
0.918212
0.909946
0.88788
0.865323
0.858679
0.846612
0.840419
0.833081
0.824816
0.837331
0.827911
0.815121
0.80255
0.790436
0.772315
1.5118
1.50524
1.48072
1.48133
1.47418
1.47167
1.45894
1.44638
1.43023
1.438
1.42158
1.41334
1.41084
1.40148
1.39187
1.38384
1.3742
1.34905
1.34466
1.33783
1.32671
1.31665
1.31387
1.29383
1.27166
1.25139
1.25138
1.25025
1.22764
1.22379
1.21114
1.20176
1.18583
1.18597
1.17934
1.17802
1.17091
1.15313
1.14019
1.12952
1.11911
1.10892
1.09808
1.08627
1.07023
1.05554
1.05344
1.05262
1.04458
1.03769
1.02119
1.01165
1.01612
1.00005
0.984732
0.96819
0.961753
0.951796
0.937198
0.926868
0.91841
0.900918
0.886941
0.870999
0.859236
0.848589
0.845391
0.839199
0.831528
0.831519
0.824329
0.814894
0.802418
0.797266
0.774571
1.50873
1.49972
1.48889
1.48236
1.46946
1.46552
1.45732
1.44762
1.43706
1.4354
1.42582
1.41871
1.41096
1.40092
1.39195
1.38865
1.36294
1.35343
1.34587
1.33919
1.32379
1.31517
1.30671
1.29736
1.26732
1.25755
1.25104
1.24472
1.23411
1.22605
1.21017
1.19896
1.18296
1.18808
1.17735
1.18309
1.17457
1.16043
1.13463
1.1293
1.11846
1.11023
1.10117
1.09113
1.06622
1.03988
1.05145
1.06016
1.04647
1.03467
1.02193
1.01365
1.01028
0.995377
0.983636
0.973168
0.95665
0.947852
0.937113
0.926097
0.915456
0.900546
0.887563
0.873231
0.858761
0.847276
0.853454
0.842234
0.834423
0.827318
0.821429
0.81478
0.798656
0.789947
0.775854
1.50689
1.49624
1.49085
1.47931
1.46993
1.46334
1.45615
1.44788
1.44006
1.43409
1.4268
1.4246
1.41415
1.39943
1.39058
1.38165
1.36641
1.35549
1.34598
1.33707
1.32687
1.31355
1.30088
1.28963
1.27385
1.25748
1.25018
1.24524
1.23767
1.22676
1.21263
1.20136
1.18735
1.1843
1.17989
1.17855
1.17618
1.15032
1.14054
1.13159
1.11757
1.11279
1.10506
1.07872
1.06395
1.05246
1.05301
1.05258
1.04486
1.03247
1.02331
1.01525
1.01196
0.987228
0.981258
0.971921
0.956525
0.945532
0.936267
0.925264
0.913878
0.90114
0.888759
0.876013
0.862461
0.85229
0.848474
0.839565
0.833141
0.827721
0.821019
0.811449
0.797785
0.787583
0.776214
1.50802
1.49893
1.49131
1.47416
1.46846
1.46233
1.45632
1.448
1.43942
1.43658
1.42645
1.43344
1.41751
1.39576
1.38896
1.37962
1.36557
1.3557
1.34604
1.33818
1.33305
1.30877
1.29648
1.28702
1.27408
1.25808
1.24583
1.25176
1.23982
1.22703
1.21549
1.20933
1.18416
1.18232
1.17907
1.17329
1.16768
1.15521
1.14484
1.12979
1.12142
1.11833
1.0951
1.08624
1.0606
1.05783
1.05392
1.04933
1.04445
1.03112
1.0239
1.01167
1.00345
0.990723
0.981951
0.97315
0.956941
0.945111
0.934818
0.924158
0.912801
0.901738
0.890771
0.879514
0.864159
0.85221
0.8453
0.837113
0.827669
0.833023
0.821407
0.808699
0.797221
0.786298
0.775758
1.50805
1.49749
1.48509
1.47296
1.4678
1.46144
1.45868
1.44828
1.43722
1.44452
1.43708
1.43568
1.41461
1.39047
1.38684
1.38138
1.36608
1.35356
1.34371
1.33602
1.32769
1.31324
1.29903
1.28724
1.27412
1.26159
1.25169
1.24719
1.23712
1.22652
1.21714
1.2031
1.18986
1.18297
1.17767
1.17156
1.1644
1.15457
1.14404
1.13151
1.12147
1.11243
1.09926
1.08224
1.06923
1.06141
1.05425
1.0481
1.04686
1.03387
1.02892
1.00466
0.999523
0.990252
0.982133
0.981557
0.952033
0.943536
0.934009
0.924709
0.911915
0.902089
0.89286
0.886418
0.860679
0.848635
0.842717
0.840402
0.833651
0.829079
0.81951
0.805366
0.796294
0.785458
0.775041
1.50746
1.49654
1.48229
1.46753
1.47103
1.45541
1.46792
1.45669
1.44513
1.44226
1.43484
1.42599
1.41178
1.3965
1.38932
1.38194
1.37361
1.34774
1.34203
1.33381
1.32546
1.31436
1.30203
1.28956
1.27396
1.26369
1.25505
1.2473
1.23484
1.2252
1.22254
1.19654
1.18826
1.18192
1.17661
1.17118
1.16389
1.15434
1.14359
1.1323
1.12128
1.10994
1.09734
1.08352
1.07245
1.06323
1.05396
1.044
1.05079
1.03293
1.02256
1.00876
0.999958
0.990068
0.976538
0.986895
0.95889
0.936123
0.934226
0.92774
0.910207
0.901872
0.892381
0.882119
0.865675
0.850415
0.838582
0.845421
0.835715
0.826956
0.818241
0.802816
0.795294
0.784376
0.773953
1.5083
1.49748
1.48448
1.47567
1.47256
1.44838
1.46669
1.45851
1.44742
1.43971
1.43158
1.42187
1.40975
1.39714
1.38711
1.38163
1.37011
1.35453
1.34391
1.33405
1.32405
1.31545
1.30599
1.29518
1.26869
1.26423
1.25692
1.24962
1.23267
1.2206
1.21585
1.20651
1.182
1.17901
1.17465
1.17369
1.16529
1.15496
1.14394
1.13281
1.12133
1.10851
1.09645
1.08431
1.074
1.06478
1.05641
1.04986
1.05153
1.02599
1.01992
1.00825
1.00103
0.997466
0.97589
0.970805
0.957455
0.938862
0.941827
0.930824
0.909676
0.902197
0.893033
0.883009
0.866237
0.853011
0.84168
0.838459
0.836366
0.826559
0.815698
0.802227
0.794164
0.783011
0.772371
1.51369
1.50127
1.48565
1.4794
1.47153
1.46091
1.46045
1.45485
1.4463
1.43796
1.42964
1.41971
1.40829
1.39587
1.38342
1.38753
1.36972
1.35635
1.34499
1.33469
1.32445
1.31519
1.31028
1.28537
1.27421
1.26645
1.25909
1.25065
1.2377
1.21222
1.20932
1.19983
1.18654
1.17783
1.17061
1.18271
1.16855
1.15427
1.14446
1.13407
1.12281
1.10685
1.09494
1.0838
1.07372
1.06554
1.05815
1.0507
1.04332
1.03016
1.02181
1.0056
0.998543
0.993989
0.981569
0.969408
0.958376
0.947177
0.941015
0.928364
0.912875
0.900892
0.891846
0.891079
0.863162
0.854458
0.843088
0.831403
0.838041
0.8249
0.811514
0.803562
0.794471
0.78094
0.770437
1.51065
1.50057
1.48875
1.47995
1.47335
1.46417
1.45775
1.4503
1.44351
1.43771
1.42935
1.41934
1.40829
1.39666
1.3879
1.38491
1.36756
1.35611
1.34502
1.33481
1.3242
1.31048
1.30224
1.29452
1.27853
1.26495
1.26194
1.25323
1.22626
1.21611
1.2059
1.19652
1.18604
1.17681
1.17464
1.18697
1.17059
1.15265
1.14556
1.13597
1.12897
1.1012
1.09292
1.08215
1.07162
1.0676
1.06005
1.05056
1.04072
1.03042
1.02045
1.00637
0.994935
0.995906
0.98388
0.971722
0.961576
0.952047
0.93934
0.926405
0.913391
0.898606
0.887
0.892762
0.871247
0.857992
0.845864
0.834916
0.831394
0.820885
0.803144
0.807848
0.795355
0.776697
0.762755
1.50983
1.49909
1.49044
1.48247
1.47445
1.46458
1.45541
1.44161
1.43942
1.43967
1.43067
1.42003
1.40922
1.39916
1.39037
1.37991
1.36664
1.35533
1.3447
1.33484
1.32761
1.30046
1.29808
1.3085
1.28042
1.25484
1.26895
1.2416
1.22897
1.21851
1.20334
1.19426
1.18467
1.17676
1.18905
1.18288
1.1701
1.1551
1.14593
1.13553
1.12449
1.10718
1.09152
1.07869
1.06412
1.07464
1.06326
1.05026
1.03946
1.02919
1.01931
1.01009
1.00592
0.986535
0.981719
0.973013
0.964905
0.959655
0.935297
0.924234
0.91436
0.899263
0.892723
0.8948
0.868142
0.86057
0.848068
0.836037
0.829803
0.82562
0.801212
0.802859
0.798517
0.771424
0.764524
1.50653
1.49577
1.49143
1.4853
1.47704
1.46428
1.45232
1.44046
1.43285
1.44488
1.43212
1.42049
1.40991
1.40004
1.39045
1.37999
1.36545
1.35401
1.34352
1.33254
1.31967
1.30109
1.30472
1.29737
1.2802
1.26425
1.25812
1.24326
1.23
1.21759
1.20289
1.19172
1.18533
1.18703
1.18876
1.18019
1.16924
1.15696
1.14746
1.13613
1.12462
1.11011
1.09127
1.07563
1.06398
1.07511
1.06322
1.04862
1.03792
1.02752
1.01757
1.00912
1.00222
0.990968
0.980807
0.972999
0.965113
0.955284
0.940326
0.927266