/*--------------------------------*- C++ -*----------------------------------*\
  =========                 |
  \\      /  F ield         | OpenFOAM: The Open Source CFD Toolbox
   \\    /   O peration     | Website:  https://openfoam.org
    \\  /    A nd           | Version:  12
     \\/     M anipulation  |
\*---------------------------------------------------------------------------*/
FoamFile
{
    format      ascii;
    class       surfaceScalarField;
    location    "0.8";
    object      phi.water;
}
// * * * * * * * * * * * * * * * * * * * * * * * * * * * * * * * * * * * * * //

dimensions      [0 3 -1 0 0 0 0];

internalField   nonuniform List<scalar> 
7375
(
-1.60733e-07
3.58989e-08
1.77997e-07
9.53569e-08
-8.23408e-08
-1.11249e-07
-1.00938e-08
-7.05967e-08
2.84469e-08
-3.88889e-08
6.15779e-08
-3.2797e-08
8.43429e-08
-2.3352e-08
9.68913e-08
-1.35374e-08
1.05369e-07
-8.59063e-09
1.12776e-07
-7.33445e-09
1.39368e-07
-2.57107e-08
6.30068e-08
-8.20437e-09
1.44763e-07
2.95774e-09
1.27865e-07
1.67579e-08
1.23386e-07
5.74254e-09
1.10197e-07
1.32348e-08
9.66575e-08
1.24133e-08
1.09144e-07
7.40848e-08
8.41621e-08
2.49965e-08
5.14479e-08
3.15108e-08
2.40268e-07
6.30177e-08
5.10383e-08
-6.25067e-08
7.20136e-08
-2.02466e-08
8.42364e-08
-1.21288e-08
9.46276e-08
-1.04045e-08
9.90105e-08
-5.34827e-09
1.16292e-07
-1.82716e-08
1.14069e-07
3.39743e-09
1.22473e-07
-7.35281e-09
1.10879e-07
1.16196e-08
1.28353e-07
-1.63395e-08
1.80054e-07
2.03314e-07
1.54436e-07
2.2018e-08
1.59633e-07
-3.60114e-09
1.64582e-07
-3.30564e-09
1.58876e-07
4.05291e-09
1.53548e-07
5.2747e-09
1.36831e-07
1.86235e-08
1.63208e-07
-2.46582e-08
1.63925e-07
-7.52542e-10
1.82787e-07
-2.07607e-08
2.31201e-07
-4.89054e-08
1.90992e-07
3.78909e-08
1.83231e-07
7.68332e-09
1.91197e-07
-4.10075e-09
1.751e-07
1.59559e-08
1.72664e-07
2.38598e-09
1.41112e-07
3.15546e-08
1.1735e-07
2.11069e-08
9.0989e-08
2.63608e-08
8.76737e-08
4.27411e-09
8.03224e-08
7.34825e-09
9.32805e-08
-1.30801e-08
9.47436e-08
-1.43966e-09
1.02195e-07
-7.3576e-09
1.12262e-07
-8.81363e-09
1.18087e-07
-4.51246e-09
4.61374e-08
-1.44252e-08
1.25109e-07
6.18339e-09
1.3019e-07
-7.71264e-09
1.22181e-07
8.09076e-09
1.16616e-07
6.814e-09
1.05516e-07
1.20185e-08
9.53366e-08
1.11353e-08
1.01007e-07
-6.71428e-09
1.14657e-07
-1.37813e-08
1.08513e-07
5.08638e-09
1.20923e-07
-1.35061e-08
1.18597e-07
3.55574e-09
1.27168e-07
-8.58483e-09
1.40945e-07
-1.36235e-08
1.41921e-07
-9.90422e-10
6.57798e-08
-9.24244e-09
1.37791e-07
1.18964e-08
1.07834e-08
-4.17576e-08
2.89566e-08
2.25042e-08
4.17837e-08
-8.16963e-09
-8.18651e-08
-7.30646e-09
-7.04067e-08
-9.95659e-09
-3.58424e-08
4.25878e-09
-4.7304e-08
2.24073e-08
-4.10294e-08
3.74842e-08
-2.89852e-08
4.2086e-08
-1.40046e-08
5.11317e-08
-1.59384e-08
3.99882e-08
-1.44529e-08
4.62116e-08
-1.46839e-08
7.00579e-08
-2.13502e-08
1.11838e-07
-2.52782e-08
1.02341e-07
1.6215e-08
1.0716e-07
8.36504e-09
1.09033e-07
1.16523e-08
1.07403e-07
-9.82117e-09
1.11057e-07
1.8858e-08
1.29443e-07
1.2993e-08
1.51083e-07
4.26981e-08
9.6775e-08
-1.00289e-08
9.73398e-08
-2.17948e-08
9.06828e-08
-4.44436e-09
8.98859e-08
-8.59513e-09
9.09112e-08
-7.30141e-09
9.37796e-08
-2.13247e-08
1.07056e-07
-7.71748e-09
8.46427e-08
1.49072e-08
7.6232e-08
1.99442e-08
2.66557e-07
5.0246e-08
-1.77578e-08
-1.11463e-07
1.00165e-07
-1.26587e-08
9.61971e-08
1.34163e-09
9.87573e-08
-5.95249e-09
1.0532e-07
-3.53746e-09
1.18609e-07
-4.54759e-09
5.60429e-08
-4.10406e-09
1.0161e-07
1.35324e-08
8.48327e-08
1.70725e-08
6.56808e-08
-9.31689e-10
2.53096e-07
1.73047e-08
1.15361e-07
-8.06315e-08
1.81608e-07
-5.85629e-08
2.44157e-07
-6.79682e-08
2.79777e-07
-1.73591e-08
2.68752e-07
1.62648e-08
2.72689e-07
2.75769e-08
2.47263e-07
4.60634e-08
2.34953e-07
4.09192e-08
2.07435e-07
3.17916e-08
1.86871e-07
2.77024e-08
1.71881e-07
1.91003e-09
1.69667e-07
-2.73759e-09
1.66858e-07
-6.29791e-09
1.6305e-07
-4.91697e-09
1.60085e-07
1.7431e-09
1.47636e-07
1.35811e-09
1.599e-07
-7.58757e-09
1.50898e-07
1.22187e-09
1.50967e-07
8.10508e-09
1.5044e-07
4.22307e-09
1.49463e-07
1.29954e-08
1.36816e-07
2.5194e-08
1.01179e-07
3.13755e-08
9.04984e-08
-2.15788e-09
1.05382e-07
-1.17149e-08
7.30155e-08
1.76472e-08
6.85919e-08
7.97929e-09
7.9515e-08
-2.03194e-08
1.2256e-07
-5.66688e-08
8.21453e-08
4.02643e-08
6.28355e-08
9.9663e-09
7.39671e-08
8.86583e-10
-5.04949e-09
-1.46903e-07
2.55992e-08
-4.13167e-08
-4.80618e-08
-6.97448e-08
-4.5336e-08
-6.08163e-08
-7.79126e-08
-5.58114e-08
-4.08478e-08
-5.13382e-08
-5.23113e-08
-6.74215e-08
-2.50388e-08
-3.27054e-08
-6.40596e-08
-7.88028e-08
3.20923e-08
-8.7733e-08
-7.1713e-09
-9.98194e-08
-1.18911e-09
-9.85476e-08
-1.70997e-08
-1.19379e-07
-2.76568e-09
-1.07551e-07
-3.50282e-08
-8.16403e-08
-9.43452e-09
-5.21078e-08
-2.20096e-08
-3.61661e-08
-3.42432e-09
-4.42794e-08
-1.60924e-09
-1.65966e-08
-9.01579e-09
8.11125e-09
-1.17024e-08
-7.70607e-08
-1.29228e-07
-6.07526e-08
-2.6066e-08
-5.014e-08
-3.08791e-08
-4.06206e-08
-1.35988e-08
-3.40475e-08
-1.55788e-08
-2.32226e-08
-1.82874e-08
-1.13562e-08
-3.3293e-08
-1.74064e-09
-1.73157e-08
-1.00784e-09
1.4149e-08
5.51273e-08
-3.62014e-08
7.68208e-08
-5.65162e-08
8.60745e-09
4.1867e-08
2.91711e-09
-7.18316e-09
1.49024e-08
-1.04482e-08
1.37359e-08
-4.92743e-09
-8.19524e-09
1.83215e-08
-3.00187e-08
1.71446e-08
-5.64602e-08
2.21515e-08
-3.61127e-08
-7.18716e-09
-1.20178e-08
-6.65009e-09
1.16915e-08
-2.45087e-08
6.38838e-08
-3.44122e-08
3.94608e-08
-5.74462e-08
3.23059e-08
-5.20716e-08
1.50428e-07
6.9734e-08
1.27083e-07
4.31833e-09
1.48633e-07
-3.76841e-09
1.4793e-07
2.67548e-08
1.57487e-07
3.37629e-08
1.60509e-07
3.90928e-08
1.54367e-07
3.96511e-08
1.36861e-07
4.52092e-08
9.86572e-08
4.11003e-08
6.86431e-08
2.76985e-08
6.00694e-08
8.8409e-10
4.05388e-08
1.35479e-08
4.2093e-08
1.04089e-09
3.25702e-08
1.0965e-08
4.21076e-08
-1.66955e-08
4.49133e-08
-1.14545e-09
4.70014e-08
4.53837e-09
2.49568e-08
2.62676e-08
3.02429e-08
8.09647e-09
4.12114e-08
1.47969e-08
-2.61453e-08
1.30954e-08
3.15542e-08
2.52166e-08
3.59846e-08
-1.6191e-08
-3.24238e-09
5.62997e-08
-1.7872e-08
2.23804e-08
-2.97068e-08
-8.57216e-09
1.34692e-07
3.12702e-08
-2.60199e-08
-4.9978e-08
4.99716e-09
-2.15302e-08
2.37675e-08
-1.80751e-08
-1.46388e-08
-7.34368e-08
1.5873e-08
-2.60306e-08
-8.32979e-08
-4.97919e-08
-1.84157e-08
-7.63477e-08
-5.08493e-08
-1.08952e-07
-9.35517e-09
-1.34702e-07
-2.90399e-08
-1.9323e-07
3.25408e-08
-1.73017e-08
2.0692e-08
-1.87048e-07
-5.22752e-08
-1.68553e-07
-2.41941e-08
-1.45024e-07
-2.47187e-08
-1.55122e-07
-8.74489e-09
-1.53309e-07
-4.55077e-09
-1.63057e-07
-2.49236e-08
-1.49211e-07
-2.33773e-08
-1.07e-07
-6.50885e-08
-1.41981e-07
3.1556e-08
-1.30818e-07
-9.90474e-09
-1.17948e-07
-2.30774e-08
-1.3367e-07
1.30507e-09
-3.05806e-08
2.62856e-08
-5.99829e-08
4.17112e-09
-5.75234e-08
-3.3951e-08
-5.76492e-08
-1.36121e-08
-5.19731e-08
-2.0884e-08
-4.6556e-08
-2.37049e-08
-7.9244e-08
-1.0802e-09
-8.1593e-08
-1.61407e-08
-5.39508e-08
-1.33476e-08
-1.00166e-07
9.54202e-09
4.77752e-08
5.19608e-08
-1.0311e-07
-5.98747e-08
-7.85859e-08
-3.3171e-08
-9.25328e-08
3.53481e-09
-1.17788e-07
1.91764e-08
-9.21127e-08
-7.0917e-09
-9.25708e-08
1.83675e-08
-7.44562e-08
4.07868e-09
-7.35554e-08
-8.09708e-09
-2.47176e-08
-5.48602e-08
4.48024e-09
-5.37064e-08
-6.73229e-10
-2.92586e-08
-1.01143e-07
-4.11529e-08
-1.95768e-08
-4.92064e-08
-1.20854e-07
-8.26346e-08
-8.28646e-08
-3.49171e-08
-6.74824e-08
-1.84938e-08
-6.00737e-08
1.84603e-08
-1.19611e-07
9.1502e-09
4.72855e-09
3.17067e-10
-4.29297e-08
8.82679e-08
-4.41778e-08
4.64217e-08
-2.53507e-08
2.25318e-08
-9.83286e-09
1.17819e-08
-3.64094e-09
-5.47306e-09
-1.67733e-08
2.65475e-08
-1.98627e-08
4.18352e-09
-3.06305e-08
2.13084e-08
-4.14272e-08
-6.0709e-09
-4.98074e-08
7.7598e-09
-3.76016e-08
-7.6675e-09
-1.01241e-07
5.41168e-09
-2.34145e-08
1.47943e-08
-4.83977e-08
3.97802e-08
-8.51248e-08
5.01827e-08
-1.0332e-07
4.19301e-08
6.74572e-08
6.92471e-08
-9.28477e-08
-3.48606e-08
-6.04205e-08
-1.15946e-08
-4.52101e-08
-2.41565e-08
-1.03119e-08
-3.03056e-09
-2.37223e-08
-3.73115e-08
-8.65887e-08
-4.47663e-08
-1.77016e-08
-1.13474e-09
-1.57301e-08
-1.03127e-07
3.66101e-08
3.0908e-09
1.59006e-07
-3.79714e-08
2.26552e-08
-5.14279e-08
-3.70058e-08
-2.31281e-08
-3.74194e-08
-2.34876e-08
-2.84375e-08
2.01815e-08
-1.2227e-08
5.5068e-08
-1.42e-08
3.02701e-08
-2.66072e-08
2.60116e-08
-1.99361e-08
3.26437e-08
-3.18609e-08
-5.3955e-08
7.78533e-08
-6.19885e-08
4.03259e-09
-7.47969e-08
-1.21157e-08
-1.12438e-07
1.42629e-08
5.04622e-08
2.63007e-08
-1.17997e-07
-5.28538e-08
-8.41021e-08
-4.38002e-08
-8.85565e-08
-1.97169e-08
-5.74827e-08
-3.00894e-08
-3.25402e-08
1.07436e-09
-8.50205e-08
-2.80696e-08
-1.69208e-08
-1.74661e-08
-3.66312e-08
6.09788e-09
-5.44469e-08
-3.06868e-09
-6.80618e-08
-1.03321e-08
-7.10931e-08
1.2255e-09
-1.61752e-07
-1.1119e-08
-1.12442e-07
2.38917e-08
-1.1276e-07
9.86016e-09
-5.17856e-08
-9.54382e-09
-7.5347e-08
-3.76928e-08
-7.47803e-08
-3.45084e-08
-1.04049e-07
-5.15316e-08
-9.95455e-08
1.6581e-08
-4.26034e-08
1.97456e-08
-4.00984e-08
1.48673e-08
-1.31425e-08
-2.27778e-08
-6.84305e-08
-3.72215e-08
-3.57541e-09
-3.51169e-08
1.16318e-08
-6.96606e-08
-4.88456e-08
3.09036e-08
-8.75869e-08
-2.41152e-09
-1.07822e-07
-2.8971e-08
-1.32682e-07
-5.86175e-08
-1.00661e-07
-6.83061e-08
-1.45608e-07
2.64539e-08
-1.39575e-07
1.53362e-08
-1.84086e-07
5.03596e-08
-8.30167e-10
7.47248e-08
-1.65467e-07
-3.19296e-09
-9.57293e-08
-2.16452e-08
-8.26804e-08
9.34971e-09
-7.04722e-08
-1.01898e-09
-5.30536e-08
-2.30713e-08
-6.67968e-08
3.97504e-08
-8.6112e-08
2.28102e-08
-7.85368e-08
1.46116e-08
-8.82397e-08
2.79365e-09
-9.15069e-08
1.10269e-08
-1.01948e-07
3.70752e-09
-1.17077e-07
2.054e-08
-1.11461e-07
9.1781e-09
-1.11192e-07
3.91057e-08
-8.73502e-08
2.6957e-08
-7.1582e-08
2.61618e-08
-2.14725e-08
1.75222e-08
-5.04923e-08
-6.19654e-09
-3.38868e-08
-2.79728e-08
-2.75917e-08
-2.9929e-08
-6.88761e-09
-2.37731e-08
-1.95557e-08
-2.50938e-08
-4.9692e-08
-1.41724e-08
-4.71467e-08
-3.68005e-09
-1.16578e-08
-5.2388e-08
-1.01289e-08
-1.64291e-07
-1.75893e-08
-9.10387e-08
-3.84736e-08
-1.72648e-07
-3.92312e-08
-1.04755e-07
-2.14e-08
-9.21294e-08
-4.13569e-08
-6.16137e-08
-4.1928e-08
-3.54869e-08
-4.00634e-08
1.4669e-08
-7.67635e-08
-5.61425e-09
4.92727e-10
1.14787e-07
1.04648e-07
-1.12827e-07
-3.55513e-08
-4.09914e-08
1.6788e-08
-6.00437e-08
6.93609e-09
-4.7053e-08
1.27171e-09
-3.14707e-08
1.10389e-08
-5.05259e-08
-3.34613e-08
-6.86275e-08
-2.66615e-08
-7.56499e-08
-1.34668e-08
-8.33479e-08
-2.26251e-08
-7.62136e-08
-5.21013e-09
-9.22245e-08
-1.3e-08
-9.15282e-08
-1.83521e-08
-6.65217e-08
-1.79752e-08
-7.02294e-08
6.32222e-10
-8.51883e-08
4.62641e-09
-7.44767e-08
-9.48635e-09
-7.18463e-08
-1.34985e-08
-3.94209e-08
-8.44762e-09
-1.27289e-08
-1.66621e-08
1.33675e-08
-3.56403e-08
1.53566e-08
-3.9682e-08
3.01437e-08
-4.92511e-08
6.22834e-08
-8.46346e-08
5.00449e-08
2.89432e-08
7.03669e-08
-5.88026e-10
8.52853e-08
-2.03797e-10
6.36674e-08
-7.18719e-10
2.06982e-08
6.8358e-09
-2.61078e-08
1.12757e-08
1.07278e-07
5.27583e-08
-9.42358e-08
-2.03871e-08
-9.16007e-08
-6.00788e-09
-1.08889e-07
-1.16825e-08
-1.5577e-07
-1.31913e-08
1.21147e-08
2.072e-08
-1.7824e-07
-3.78748e-08
-1.49482e-07
-1.51008e-08
-1.16295e-07
1.76925e-08
-9.6991e-08
5.50822e-08
-1.24879e-07
2.47275e-08
-1.10802e-07
-3.5943e-08
-1.07968e-07
6.51582e-09
-1.28938e-07
1.97396e-08
4.33784e-08
5.86943e-08
-1.17488e-07
-5.07029e-08
-8.7465e-08
-8.64463e-09
-6.81262e-08
-4.72723e-09
-9.17827e-08
2.67227e-08
-1.03356e-07
2.24877e-08
-1.0476e-07
5.1643e-09
-1.12249e-07
2.80288e-08
-1.23901e-07
2.08297e-08
-1.19435e-07
3.5858e-08
-8.44179e-08
-7.97899e-09
-5.62804e-08
-1.9958e-09
-4.20408e-08
3.28268e-09
-3.92169e-08
-9.44932e-09
-3.45489e-08
-3.26408e-08
-2.69689e-08
-3.75392e-08
-2.4157e-08
-2.68249e-08
-2.7034e-08
-2.24627e-08
-2.34562e-08
-1.77495e-08
-1.0326e-08
-1.681e-08
-2.29158e-08
-1.05072e-07
-2.45001e-08
-6.9987e-08
-3.12323e-08
-6.39086e-08
-3.83986e-08
-1.01378e-07
1.22795e-09
-9.62178e-08
-2.6295e-08
-1.08208e-07
-2.96246e-08
-1.0574e-07
-4.28803e-08
-1.18019e-07
-2.77851e-08
4.27677e-08
1.55353e-08
7.42552e-08
-3.09952e-08
-7.54623e-08
-8.5755e-08
-2.43301e-08
-1.6726e-09
-1.10077e-08
3.46509e-09
-1.97096e-08
1.55251e-08
-1.81686e-08
-2.69749e-10
-1.89772e-08
1.20406e-08
-3.9947e-08
-1.28299e-08
-3.50623e-08
-3.19542e-08
-2.91293e-08
-1.94986e-08
-4.64485e-08
-5.02145e-09
-4.61599e-08
-5.07716e-09
-3.77716e-08
-2.1774e-08
-3.4933e-08
-2.10019e-08
-3.14463e-08
-2.07852e-08
-1.31948e-08
-1.76196e-08
-6.65942e-08
-2.68723e-08
4.51074e-09
4.08398e-09
-1.07777e-09
-7.97996e-09
8.39403e-09
-1.8199e-08
3.11071e-09
-1.14094e-08
-2.22165e-08
-1.01776e-08
-5.9015e-08
-2.88353e-09
-1.06109e-07
-3.23957e-09
3.74702e-08
2.78244e-08
-1.46814e-07
-4.26468e-08
-1.43093e-07
-5.79017e-09
-1.44995e-07
1.67692e-09
-1.53732e-07
7.92128e-09
-1.44188e-07
-1.04323e-09
-1.39445e-07
8.00467e-09
-5.95618e-08
-2.79486e-08
-1.18084e-07
3.75441e-08
-1.21493e-07
-2.6257e-09
-1.26939e-07
-4.94075e-09
-1.20195e-07
-2.01388e-08
-8.11049e-08
-2.00119e-08
-1.14908e-07
-5.24368e-09
-1.34625e-07
4.61582e-09
-9.35917e-08
-2.21477e-08
-1.28445e-07
5.17204e-09
-1.20002e-07
1.61202e-08
-1.05344e-07
3.45143e-08
-8.28692e-08
-1.51136e-08
-8.53751e-08
2.20232e-08
-4.54687e-08
1.81014e-08
-9.22372e-08
-4.45174e-09
-1.12849e-07
1.20903e-08
-1.22168e-07
3.34519e-09
-1.32731e-07
3.69052e-08
-1.22979e-07
1.28357e-08
-1.37143e-07
1.93276e-08
-1.21736e-07
1.40214e-08
-1.37682e-07
3.67752e-08
-1.63224e-07
-2.14783e-08
-7.27712e-08
-1.46055e-08
-3.1186e-08
-4.47802e-08
-6.56392e-08
3.7388e-08
-5.26146e-08
-2.24739e-08
-4.79356e-08
-3.73199e-08
-5.62434e-08
-2.92313e-08
-4.58204e-08
-3.75214e-08
-4.86756e-08
-1.9409e-08
-5.90108e-08
-7.41336e-09
-7.09698e-08
-4.85101e-09
1.42467e-08
-1.35901e-07
2.06898e-08
-4.5173e-08
5.56632e-09
-1.08093e-07
-6.07166e-08
-8.18389e-08
-1.97809e-08
-7.58938e-08
-3.17396e-08
-8.02882e-08
-2.51863e-08
-8.04268e-08
-4.3553e-08
-6.39794e-08
-4.4879e-08
-1.96972e-08
-2.87473e-08
-7.36221e-09
-4.28931e-08
-6.29574e-08
-3.01603e-08
-4.26354e-08
-2.19951e-08
-2.58043e-08
-1.31966e-08
-1.17458e-08
1.46615e-09
-4.96016e-09
-6.98466e-09
2.65669e-08
-1.94871e-08
-3.53344e-08
-3.61924e-08
3.15548e-08
-1.42571e-08
1.46582e-08
-2.77858e-09
1.24268e-08
-2.49144e-09
-3.04588e-08
-4.81976e-08
3.13432e-08
1.51291e-09
1.1717e-08
-1.16186e-09
-2.61679e-09
-6.45178e-09
-3.93995e-09
-1.64766e-08
-2.93067e-08
-1.20694e-09
-1.96039e-08
-5.81704e-09
-1.60344e-08
-1.19993e-08
-2.73009e-08
-7.23639e-09
-4.28394e-08
4.73429e-09
-4.76737e-08
-4.96096e-09
-6.34816e-08
1.2438e-08
-7.84664e-08
1.17453e-08
-5.2538e-08
1.62866e-09
-8.65502e-08
-8.63459e-09
-7.91187e-08
-1.31626e-08
-8.16757e-08
4.21694e-09
-8.25243e-08
9.53103e-09
-8.20929e-08
-1.47895e-09
-1.12979e-07
3.69005e-08
6.71282e-08
4.81633e-08
-1.21054e-07
-2.78958e-08
-1.20813e-07
-4.11406e-09
-1.32595e-07
6.72085e-09
-1.51143e-07
-3.35523e-09
-1.6424e-07
-5.35774e-09
-1.40366e-07
-2.74421e-08
-1.87395e-07
-3.31652e-08
-9.9783e-08
-2.49964e-08
-1.34838e-07
4.16024e-08
-1.22446e-07
2.51762e-09
-1.58082e-07
-1.67488e-08
-1.1156e-07
2.5878e-08
-9.87377e-08
8.42651e-09
-9.31221e-08
1.1468e-08
-9.95989e-08
1.95896e-09
-1.08231e-07
2.05109e-08
-1.15984e-07
1.33854e-08
-8.98972e-08
1.03415e-08
-7.8221e-08
2.42276e-10
-9.22925e-08
3.32019e-08
-7.79789e-08
-2.92197e-10
-1.32766e-07
8.15383e-09
-8.80689e-08
1.77315e-08
-1.08892e-07
4.10107e-09
5.44084e-08
4.82693e-08
-1.03531e-07
-5.69437e-08
-8.22161e-08
-4.53071e-08
-8.39147e-08
-3.59884e-08
-8.60246e-08
-2.74008e-08
-8.34259e-08
-3.92688e-08
-8.74866e-08
-1.53477e-08
-9.94857e-08
3.69401e-09
-1.02974e-07
-1.36211e-09
2.48706e-08
-7.30491e-08
-1.46628e-08
-4.76019e-08
1.91301e-10
-8.97874e-08
-1.19709e-08
-7.73062e-08
-2.92165e-08
-7.21959e-08
-3.71741e-08
-6.02215e-08
-3.74181e-08
-5.49502e-08
-4.92104e-08
-3.4951e-08
-6.48787e-08
3.86348e-10
-6.44456e-08
1.05584e-08
-5.30656e-08
1.57081e-08
-3.52028e-08
2.59644e-08
-3.25167e-08
5.03613e-08
-3.72182e-08
6.30139e-08
-1.12017e-08
7.80009e-08
-2.19722e-08
8.05355e-08
-2.04048e-08
4.3956e-08
-6.64162e-11
4.91703e-08
-1.96173e-08
6.38707e-08
-1.63431e-08
-2.12772e-08
-3.8445e-09
-9.35382e-09
2.58684e-08
-1.84286e-08
1.05747e-08
-1.80307e-08
-1.3863e-09
-3.04124e-08
5.92956e-09
-4.13227e-08
-5.62402e-09
-5.00708e-08
7.61865e-09
-6.3605e-08
7.73644e-09
-6.76111e-08
-7.87095e-09
-9.60694e-08
2.12955e-08
-1.04267e-07
1.18197e-08
-1.30386e-07
2.1107e-08
-1.12396e-07
-4.22224e-09
-1.08065e-07
6.31159e-09
-1.06481e-07
4.54641e-11
-1.025e-07
-1.15301e-08
-1.02758e-07
-1.29046e-08
-9.54361e-08
-3.10438e-09
-9.10751e-08
4.24098e-09
-1.02593e-07
1.00236e-08
-8.92296e-08
2.43358e-08
-4.12003e-08
-3.57383e-10
-8.62243e-08
1.68438e-08
-9.00305e-08
-2.65826e-10
-9.8943e-08
1.54756e-08
-1.10312e-07
8.04764e-09
-1.09914e-07
-5.70085e-09
-8.89416e-08
-4.89131e-08
-1.64558e-07
4.24509e-08
1.75983e-08
4.66613e-08
-1.44718e-07
-5.18473e-08
-8.75071e-08
-5.52366e-08
-1.4544e-07
4.22482e-08
-1.16973e-07
-2.58903e-09
-1.0466e-07
-3.80116e-09
-9.10405e-08
-2.2684e-09
-9.28743e-08
4.74019e-09
-9.29977e-08
2.04271e-08
-8.41376e-08
4.43479e-09
-6.56199e-08
-8.07177e-09
-2.57423e-08
-4.03049e-08
-4.45317e-08
5.14662e-08
-6.91259e-08
2.43019e-08
-8.00091e-08
1.9037e-08
-8.06495e-08
1.773e-08
-9.2711e-08
1.6331e-08
-7.01617e-08
2.61735e-08
-1.20287e-07
-8.71546e-09
-1.59737e-07
-7.50379e-09
-1.63249e-07
-3.31968e-08
-1.7277e-07
-1.63657e-08
-1.68961e-07
-4.21751e-08
-1.71798e-07
-1.26665e-08
-1.67593e-07
-5.10132e-10
-1.68739e-07
-2.15979e-10
3.22672e-08
-2.67808e-08
-1.00389e-07
-2.25789e-08
3.26152e-09
-1.98569e-08
-1.20843e-08
-3.65878e-08
-1.16839e-08
-1.8497e-08
-5.50766e-08
-7.01264e-10
-5.52215e-08
-6.29707e-08
-7.3334e-08
2.15441e-08
-6.39973e-08
4.58746e-09
-4.70098e-08
-4.39763e-09
-4.50822e-08
-1.11215e-08
-2.87729e-08
-2.11836e-08
-2.2239e-08
-2.16163e-08
-3.73204e-08
-1.64453e-08
-1.65915e-08
-8.88106e-09
-2.99289e-08
-2.42449e-08
-5.04151e-09
-3.5781e-08
1.11048e-08
-6.2957e-08
7.28103e-09
-5.16008e-08
-2.66361e-08
-7.09717e-08
1.62815e-08
-3.58385e-08
-9.98206e-09
-4.49308e-08
1.89352e-08
-6.68403e-08
2.02686e-08
-7.74606e-08
1.66107e-08
-1.19211e-07
3.45408e-08
-1.43898e-07
3.20513e-08
-1.58555e-07
2.3876e-08
-1.66994e-07
2.18531e-09
-1.54508e-07
8.81018e-09
-1.4178e-07
-9.09253e-10
-1.46651e-07
2.55032e-08
-1.28449e-07
-2.24245e-08
-1.23209e-07
1.07144e-09
-1.26504e-07
3.33948e-09
-1.32158e-07
-5.87553e-09
-1.38557e-07
-6.50615e-09
-1.25268e-07
-1.63931e-08
-1.29963e-07
8.9362e-09
-1.27583e-07
8.84312e-09
-9.68796e-08
-6.30401e-09
-9.92631e-08
1.04859e-09
-8.40171e-08
1.59788e-09
-9.63446e-08
1.30447e-08
-7.75083e-08
-3.3606e-09
-8.28408e-08
1.25894e-08
-1.06279e-07
1.6485e-08
5.65114e-08
4.52072e-08
-1.2577e-07
-2.88506e-08
-5.87672e-08
-2.05491e-08
-1.22119e-07
9.65943e-09
2.96661e-08
5.04579e-08
-1.31576e-07
-5.11022e-08
-1.04216e-07
-2.99485e-08
-9.45052e-08
-1.35123e-08
-9.14133e-08
-5.3603e-09
-8.97841e-08
3.11091e-09
-9.07628e-08
2.16142e-08
-9.06193e-08
4.29129e-09
-1.20782e-07
2.17864e-08
5.48024e-08
3.78411e-08
-9.71309e-08
-4.83221e-08
-7.86233e-08
4.80332e-09
-7.56049e-08
1.60186e-08
-8.69267e-08
2.78806e-08
-9.98346e-08
2.90706e-08
-1.01773e-07
2.80923e-08
-1.8951e-07
-6.61547e-09
-1.55104e-07
4.12776e-08
-2.08459e-07
1.81443e-08
-2.24507e-07
-4.79922e-10
-2.46437e-07
-1.80955e-08
-2.46202e-07
-8.0362e-09
-2.1034e-07
-3.67466e-08
-2.29254e-07
1.88917e-08
5.15872e-10
2.42581e-08
3.6996e-07
-7.16571e-08
9.9023e-08
-5.04005e-08
-2.56156e-08
-3.90852e-08
-2.13958e-08
-2.97249e-08
-6.57656e-08
-1.33979e-08
-7.12618e-08
-2.82963e-08
-5.68031e-08
-4.40471e-08
-4.75163e-08
-5.70169e-08
-3.54188e-08
-9.91705e-08
-4.53889e-09
-1.26894e-07
-2.80517e-11
-1.43567e-07
-5.79543e-09
-1.62675e-07
-1.85975e-08
-1.41005e-07
-3.67713e-08
-1.00006e-07
-7.166e-08
-1.3898e-07
3.39322e-08
-1.36106e-07
9.61919e-09
-1.22563e-07
-7.57345e-09
-1.55257e-07
4.79374e-09
-1.38507e-07
-1.31562e-10
-1.1141e-07
-3.8331e-08
-1.57382e-07
6.39692e-08
-1.69456e-07
3.20087e-08
-1.65297e-07
1.59008e-08
-1.45762e-07
1.61632e-08
-1.33864e-07
1.83387e-08
-1.37899e-07
2.73876e-08
-1.40717e-07
5.00307e-09
-1.36769e-07
4.91276e-09
-1.29237e-07
-7.12298e-09
-9.21771e-08
-1.1557e-08
-1.18447e-07
2.90483e-09
-7.93191e-08
-3.80564e-08
-4.26463e-08
-3.33334e-08
-9.04716e-08
4.15261e-08
-1.089e-07
1.19225e-08
-1.1517e-07
-1.02272e-08
-1.02275e-07
-3.91929e-09
-9.60501e-08
3.59826e-09
-8.74236e-08
-1.5877e-08
-1.02177e-07
1.49012e-08
-9.41436e-08
-5.39319e-09
-8.41528e-08
3.05393e-09
-8.7114e-08
-4.33623e-10
-8.03893e-08
6.68486e-09
-6.46707e-08
7.66533e-10
-3.97985e-08
1.92141e-08
-7.79384e-08
8.58173e-09
-1.10213e-07
1.15137e-08
-8.58559e-08
-1.35732e-08
-4.08924e-08
4.97972e-09
-8.53652e-08
-6.62938e-09
-1.04801e-07
-1.05123e-08
-8.98406e-08
-2.8473e-08
-7.68846e-08
-1.83163e-08
-7.07201e-08
-3.05367e-09
-7.34504e-08
2.40986e-08
-7.69816e-08
8.60791e-09
-6.77555e-08
1.24346e-08
-1.84257e-08
-1.23055e-08
-2.74088e-08
-4.02425e-08
-4.8434e-08
2.58285e-08
-6.2093e-08
3.03111e-08
-4.11859e-08
6.90374e-09
-1.0106e-07
3.50103e-09
-2.24205e-08
3.42157e-08
-5.81943e-08
2.95184e-08
-4.73839e-08
3.09459e-08
-6.31588e-08
3.34118e-08
-1.07075e-07
4.12836e-08
-1.55563e-07
2.75587e-08
-2.42454e-07
-8.57792e-09
-1.84303e-07
-6.16103e-09
-2.3193e-07
6.77198e-08
9.70923e-09
-2.34865e-07
-8.61899e-08
-1.99464e-07
1.1415e-07
-8.84649e-08
-1.26493e-07
-6.73358e-08
-4.02661e-08
-7.78267e-08
-5.38871e-08
-5.68913e-08
-9.09698e-08
-1.31455e-07
1.77598e-08
-1.48435e-07
-3.3877e-08
-1.19423e-07
-6.54717e-08
-1.48983e-07
2.6286e-08
-1.48309e-07
-2.21555e-09
-2.10603e-07
-2.91387e-08
-1.47031e-07
4.93175e-09
-1.71477e-07
-1.4076e-08
-1.29175e-08
2.69689e-08
-2.07544e-07
-2.55995e-08
-1.67859e-07
-3.0066e-08
-1.48382e-07
-2.74083e-08
-1.64139e-07
2.05018e-08
-1.80966e-07
1.66948e-08
-2.06458e-08
5.62395e-08
-1.69915e-07
-3.91301e-08
-1.46857e-07
6.89112e-09
-1.46407e-07
1.66117e-08
-1.16674e-07
-1.34062e-08
-1.07844e-07
9.51466e-09
-9.83632e-08
1.77279e-08
-1.07984e-07
1.23916e-08
-1.80165e-07
-8.54245e-09
-1.17097e-07
1.64096e-08
-1.22223e-07
-6.61617e-09
-1.33765e-07
1.44464e-08
-1.70207e-07
-1.61405e-09
1.70901e-08
3.34846e-08
-1.38397e-07
-5.4708e-08
-1.0236e-07
-2.65708e-08
-1.10529e-07
-9.18729e-10
-8.8727e-08
-2.46054e-08
-9.01411e-08
4.10722e-09
-9.4255e-08
-1.1925e-08
-8.02091e-08
7.0336e-10
-8.14159e-08
-4.18639e-09
-8.22692e-08
3.94759e-09
-8.42474e-08
1.5447e-09
-8.39988e-08
6.43629e-09
-9.00765e-08
6.92276e-09
-7.8762e-08
7.09617e-09
-9.74053e-08
2.72251e-08
-8.00245e-08
-4.99083e-09
-9.90439e-08
5.44614e-09
-8.48525e-08
-9.21165e-09
-9.46714e-08
3.18958e-09
-9.58551e-08
-9.32863e-09
-9.13415e-08
-3.29866e-08
-3.84551e-08
-7.19366e-08
-4.11534e-08
6.44889e-11
-7.14375e-08
5.3839e-08
-8.07012e-08
1.79662e-08
-7.80601e-08
9.03944e-09
-1.08077e-07
1.57926e-08
5.54944e-08
5.42108e-08
-1.3897e-07
-3.45627e-08
-9.239e-08
-1.51718e-08
-6.7098e-08
-1.8996e-08
-9.39832e-08
2.96947e-08
-6.46653e-08
6.51644e-09
-6.10677e-08
2.59208e-08
-6.10734e-08
2.97181e-08
-4.70668e-08
2.02348e-08
-4.28899e-08
3.75821e-08
-5.83655e-08
4.18885e-08
-1.19196e-07
5.18985e-08
5.81543e-08
7.02491e-08
-1.13968e-07
-1.35766e-08
1.31572e-08
-9.44678e-08
-1.04356e-07
-4.08359e-07
-2.45918e-07
-1.09439e-08
4.97813e-08
-5.30933e-08
3.35933e-09
-1.15085e-07
8.11194e-09
1.15461e-08
3.71858e-08
-1.74747e-07
-4.96668e-08
-1.88123e-07
-2.24208e-08
-4.61549e-09
8.60563e-09
-1.28821e-07
-1.04821e-07
-1.94749e-07
-2.10511e-08
-1.58154e-07
1.93263e-08
-1.37701e-07
-1.55216e-08
-9.80613e-08
-5.52809e-08
-1.25956e-07
5.45856e-08
-1.54765e-07
4.49385e-09
-1.64405e-07
-2.21034e-08
-1.94765e-07
2.95065e-09
-1.70003e-07
-2.27356e-09
-1.55591e-07
2.2824e-09
-9.72842e-08
-2.0677e-09
-8.50521e-08
-5.17618e-08
-1.21277e-07
4.39051e-08
-1.1249e-07
7.82454e-09
-1.31891e-07
3.33016e-09
-1.13716e-07
-7.41225e-09
-7.79586e-08
-1.59149e-08
-7.16862e-08
5.33173e-09
-8.23338e-08
1.44601e-09
-7.00106e-08
3.33789e-09
-7.25375e-08
-4.0477e-09
-6.27614e-08
5.35553e-09
-6.54308e-08
1.06624e-09
-2.55368e-08
-6.40953e-09
-5.4022e-08
-2.67808e-08
-6.80662e-08
-1.26558e-08
-7.04192e-08
1.44367e-09
-6.93403e-08
-2.56734e-08
-6.1364e-08
-3.86907e-09
-6.86687e-08
-4.62022e-09
-7.07621e-08
2.79682e-09
-9.2504e-08
1.66119e-08
-1.05166e-07
1.661e-08
-1.02806e-07
2.56954e-10
-9.21826e-08
-5.12711e-09
-1.26149e-07
-4.47477e-08
-9.59601e-08
6.29576e-08
-9.34772e-08
2.44645e-08
-9.08617e-08
-7.6062e-09
-8.65469e-08
1.13131e-09
-1.05993e-07
1.02341e-08
-1.08147e-07
5.34437e-09
-1.19673e-07
2.19668e-09
-1.59899e-07
5.60848e-09
-1.35534e-08
3.90308e-08
-2.54421e-08
1.2351e-08
-1.51299e-07
-7.14821e-08
-1.09364e-07
-2.43968e-08
-8.07149e-08
-1.95182e-08
-7.6489e-08
1.05822e-08
-7.97381e-09
-1.48574e-08
-1.25813e-07
-2.02771e-10
-5.60982e-08
-9.79714e-10
-6.80833e-08
-7.77699e-09
-6.36041e-08
2.4661e-08
-4.98865e-08
-7.20103e-09
-5.0728e-08
2.75443e-08
-4.07262e-08
1.97164e-08
-3.47705e-08
1.36573e-08
1.23987e-08
-9.23585e-09
3.24748e-08
2.14848e-08
6.17831e-08
2.29188e-08
1.13012e-07
1.84989e-08
8.40232e-08
1.42822e-08
4.27157e-09
-1.23526e-07
-5.03693e-08
-1.96364e-07
-3.79935e-08
-1.16269e-07
-1.3251e-08
-8.89349e-08
-2.13508e-08
-7.95134e-08
-2.14293e-09
-5.38818e-08
1.24088e-08
-7.74619e-08
-2.6087e-08
-8.84994e-08
-1.2174e-08
-7.6106e-08
-4.6525e-09
5.59147e-08
2.00688e-08
-1.5205e-07
-6.79464e-08
-1.12451e-07
-2.02739e-08
-1.31367e-07
2.05414e-09
2.60992e-08
4.4163e-08
-1.42051e-07
-3.23778e-08
-1.08895e-07
-2.86619e-08
-1.06186e-07
-2.50687e-08
-1.15345e-07
1.20782e-08
-1.15596e-07
-2.02204e-09
-9.3326e-08
-1.97866e-08
-1.19329e-07
2.39345e-08
3.31503e-08
4.97103e-08
-1.23591e-07
-5.05652e-08
-6.93405e-08
-4.6426e-08
-4.52786e-08
-2.02748e-08
-2.99816e-08
-2.3092e-08
-1.15656e-08
-3.4448e-08
1.34658e-08
-1.97828e-08
3.24476e-08
-1.78637e-08
3.60722e-08
-3.23498e-10
3.71077e-08
-5.05289e-09
4.24559e-08
8.18962e-10
3.6894e-08
7.13923e-09
9.51766e-09
2.05904e-08
-2.08164e-08
3.30711e-09
-2.26716e-08
-1.08006e-08
-1.86097e-08
-2.19708e-09
-2.57793e-08
-1.85037e-08
-2.94082e-08
-5.03093e-10
-3.24607e-08
-1.56769e-09
-3.47829e-08
5.11908e-09
-3.64877e-08
1.81318e-08
-4.57908e-08
2.57437e-08
-5.6718e-08
1.11842e-08
-9.11747e-08
2.93297e-08
6.45867e-08
5.4237e-08
-9.31771e-08
-3.32292e-08
-5.24269e-08
-1.62857e-08
-6.69634e-08
6.93031e-09
-7.33153e-08
7.40777e-09
-8.69569e-08
2.38757e-08
-9.10583e-08
9.35038e-09
-1.00182e-07
1.12061e-08
-1.1296e-07
1.7234e-08
-9.6298e-08
2.19667e-08
-8.40896e-08
1.12505e-09
-1.11965e-07
-4.43363e-08
-1.14311e-07
-2.205e-08
-9.82076e-08
-3.61903e-08
-9.68159e-08
9.1905e-09
-9.60329e-08
-1.58016e-08
-1.01839e-07
5.54698e-09
-7.75762e-08
-2.52527e-08
-7.86514e-08
-5.89934e-09
-5.40714e-08
8.02651e-11
-6.37966e-08
1.97264e-09
-5.23508e-08
1.59361e-08
-3.41175e-08
1.66737e-09
-4.20276e-08
2.19963e-08
-5.74443e-08
6.24406e-09
-4.04508e-08
4.12483e-09
-1.40672e-08
-3.23031e-09
-1.56875e-09
6.01723e-09
-9.76072e-09
2.26189e-08
1.19362e-10
-1.0623e-07
-4.31092e-08
-9.17357e-08
-2.37794e-08
-8.86185e-08
-6.57143e-09
-9.28036e-08
-1.64798e-08
-7.18802e-08
-2.20863e-08
-4.9883e-08
-9.58874e-09
-4.59258e-08
-3.08197e-08
-4.37016e-08
-1.43986e-08
-4.25997e-08
-5.75482e-09
-7.3956e-09
-1.53404e-08
-4.89996e-08
-2.63428e-08
-4.9568e-08
-1.9706e-08
-5.81589e-08
1.06446e-08
-3.88457e-08
2.43988e-08
-6.60474e-08
-5.17651e-09
-7.02726e-08
-2.5154e-08
-9.11412e-08
-4.20059e-09
-7.94156e-08
1.28206e-09
-1.5403e-07
-1.06004e-08
-4.25638e-08
-4.73456e-08
-7.76625e-08
5.80068e-08
-3.44137e-08
6.74338e-09
-5.6852e-08
-2.80638e-08
-6.07816e-08
-4.30708e-08
-3.40116e-08
-4.78721e-08
-1.99143e-08
-3.7222e-08
-1.27606e-08
-4.20263e-08
-2.7447e-08
-5.2269e-09
-2.56017e-09
-4.33754e-08
-6.2033e-08
5.91458e-08
-6.96761e-08
1.84656e-09
-8.35964e-08
1.3886e-08
-8.29727e-08
7.30353e-09
-6.33194e-08
2.40489e-09
-5.64486e-08
-3.56373e-09
-5.19609e-08
-1.5754e-08
-6.13875e-08
7.22956e-09
-6.49447e-08
-1.52913e-08
-4.00634e-08
-2.53844e-08
-4.27135e-08
1.0825e-09
-3.39782e-08
-3.26956e-09
-2.64908e-08
1.06444e-08
-3.01866e-08
2.88747e-08
-2.7931e-08
8.83846e-09
-2.01488e-08
2.13299e-08
1.80476e-08
1.58565e-08
-1.77067e-08
2.52514e-09
-2.17043e-08
-1.24686e-08
-1.83399e-08
3.75308e-09
-1.41258e-08
3.19369e-09
-1.26626e-09
1.07751e-08
5.13889e-09
2.89338e-09
9.29464e-09
7.10232e-09
1.4308e-08
1.23155e-08
2.36043e-08
1.24463e-08
1.96613e-08
5.06804e-09
1.28201e-09
-2.62244e-08
-1.58136e-08
-5.11576e-09
4.04972e-09
-5.66373e-08
-3.8418e-08
5.1225e-08
-6.75875e-08
1.40646e-08
-4.66019e-08
-1.4756e-08
-5.63492e-08
-1.59807e-08
-4.5983e-08
-1.57964e-08
-3.26369e-08
-1.32649e-08
-2.69857e-08
-3.7361e-09
-1.6346e-08
5.46167e-09
-2.95824e-08
1.45914e-08
-3.43421e-08
2.6104e-08
-1.30823e-07
1.73309e-08
-4.81766e-08
7.50046e-09
-2.5936e-08
-2.57328e-08
-6.71387e-08
4.72211e-08
-6.41372e-08
1.98483e-08
2.53294e-09
-1.09718e-07
-1.8846e-08
-4.32986e-08
-5.81439e-08
-5.1969e-09
-4.23549e-08
-1.11647e-07
6.33455e-09
-4.41473e-08
-5.67965e-09
-4.11454e-08
-1.31392e-08
-4.08418e-08
-3.11237e-08
-4.34923e-08
-1.17485e-08
-4.18478e-08
-7.39975e-09
-3.41451e-08
-2.30435e-08
-4.10839e-08
-1.94045e-08
-1.61304e-08
-4.51203e-08
-4.85424e-08
4.30561e-08
-4.50544e-08
2.06992e-08
-4.72746e-08
-2.95678e-09
-5.4377e-08
-1.80522e-08
-3.33619e-08
-2.51733e-08
-7.75084e-08
4.49694e-08
-1.1099e-07
2.28807e-08
6.43811e-08
3.07464e-08
-7.76691e-08
-5.0372e-08
-4.11424e-08
-3.05681e-08
-4.43558e-08
-2.55569e-08
-3.45149e-08
-5.33515e-08
-3.53527e-08
-4.70346e-08
-1.17258e-08
-6.15972e-08
-7.65239e-08
2.23383e-08
-6.34174e-08
-1.83875e-08
4.56032e-08
1.04514e-07
-1.39334e-07
-1.20939e-08
-1.555e-07
1.80131e-08
-1.42907e-07
2.73724e-09
-1.14555e-07
-1.97527e-08
-8.98809e-08
-2.24966e-08
-8.03547e-08
-1.40433e-08
-8.17917e-08
-1.44646e-08
-6.80713e-08
-7.18525e-09
-1.45506e-07
-2.37379e-08
-8.672e-08
2.09858e-09
-8.27014e-08
-2.93616e-09
-9.10571e-08
5.13865e-09
-7.40136e-08
-5.47951e-09
-5.21896e-08
7.57785e-09
-4.26776e-08
-7.69635e-10
-3.91562e-08
1.72039e-08
-1.95194e-08
-4.17964e-09
-1.21194e-08
-4.80008e-09
-2.90665e-08
4.52472e-09
-2.05171e-08
-4.74785e-09
-2.28679e-08
5.81036e-09
-1.28081e-08
7.15423e-10
-1.27899e-08