/*--------------------------------*- C++ -*----------------------------------*\
  =========                 |
  \\      /  F ield         | OpenFOAM: The Open Source CFD Toolbox
   \\    /   O peration     | Website:  https://openfoam.org
    \\  /    A nd           | Version:  12
     \\/     M anipulation  |
\*---------------------------------------------------------------------------*/
FoamFile
{
    format      ascii;
    class       surfaceScalarField;
    location    "0.8";
    object      phi.water_0;
}
// * * * * * * * * * * * * * * * * * * * * * * * * * * * * * * * * * * * * * //

dimensions      [0 3 -1 0 0 0 0];

internalField   nonuniform List<scalar> 
7375
(
-1.22735e-07
-2.21016e-08
-2.94873e-07
-9.99375e-08
-9.44522e-09
8.35215e-09
1.47342e-08
-2.36495e-08
3.45762e-08
-2.048e-08
6.05768e-08
-2.57377e-08
7.14024e-08
-1.11356e-08
7.86201e-08
-8.01932e-09
8.59956e-08
-7.47682e-09
8.43409e-08
1.63856e-09
7.60672e-08
9.22041e-09
2.7207e-07
5.77189e-08
9.45131e-08
-7.6747e-08
1.06546e-07
-1.18771e-08
1.1726e-07
-9.51855e-09
1.25593e-07
-8.28273e-09
1.67979e-07
-4.36521e-08
1.97491e-08
-1.06925e-07
7.23664e-08
-5.25473e-08
8.21888e-08
-1.12963e-08
8.97309e-08
-7.54188e-09
9.74554e-08
-6.8227e-09
9.55097e-08
1.91822e-09
9.72249e-08
-1.73158e-09
1.02187e-07
-4.97518e-09
9.97911e-08
1.43188e-09
1.13449e-07
-1.46558e-08
1.07848e-07
6.74738e-09
1.04069e-07
4.87285e-09
1.31284e-07
-2.71758e-08
1.51323e-07
-2.00337e-08
2.042e-07
-5.60932e-08
1.54166e-07
4.79921e-08
1.48717e-07
6.93618e-09
1.53198e-07
-2.94845e-09
1.53907e-07
-2.25405e-09
1.6548e-07
-1.14572e-08
2.16011e-07
-4.98525e-08
1.84845e-07
3.30924e-08
1.08706e-07
-9.43415e-09
1.78124e-07
1.43377e-08
1.84702e-07
-6.55835e-09
1.87578e-07
-4.77976e-09
1.87684e-07
-1.05053e-10
1.84146e-07
7.258e-09
1.64231e-07
1.97075e-08
1.69038e-07
-4.77616e-09
1.37835e-07
3.11858e-08
1.17482e-07
1.77321e-08
8.82311e-08
2.9251e-08
8.24458e-08
6.72539e-09
7.2152e-08
1.02924e-08
8.37831e-08
-1.17428e-08
8.27932e-08
1.00903e-09
8.76448e-08
-4.78359e-09
9.24579e-08
-3.80919e-09
6.5095e-08
2.78257e-08
2.7194e-07
5.27489e-08
6.89805e-08
-5.73344e-08
1.01571e-07
-3.43751e-08
1.1143e-07
-9.96033e-09
1.13181e-07
-6.07859e-10
1.09623e-07
4.59316e-09
1.07668e-07
3.02596e-09
1.18475e-07
-1.19361e-08
1.28843e-07
-1.04475e-08
9.39641e-08
-5.21368e-08
1.10357e-07
-1.73414e-08
1.03146e-07
8.31623e-09
1.04976e-07
-1.84604e-09
1.02094e-07
2.87468e-09
8.4719e-08
1.73761e-08
2.77779e-07
5.83964e-08
7.33652e-08
-4.73049e-08
-5.90439e-09
-5.72296e-08
1.03373e-09
-1.25027e-07
-5.74456e-09
-3.99663e-08
-6.77784e-08
-9.39675e-09
-5.23466e-08
-1.10697e-08
-1.85978e-08
-1.31742e-09
-3.57656e-08
3.8595e-09
-1.61576e-08
1.10397e-08
-1.53215e-08
2.41867e-08
-2.09829e-08
3.88902e-08
-1.26553e-08
4.53509e-08
2.69352e-09
1.16558e-07
-1.38065e-08
7.9336e-08
-3.95482e-08
1.09607e-07
-4.25774e-08
9.15794e-08
9.53024e-09
9.35044e-08
-1.02271e-08
5.18555e-08
-1.47379e-09
1.61084e-07
4.03414e-08
1.00727e-07
5.67556e-09
1.10158e-07
-2.05192e-08
1.16855e-07
-1.33278e-08
9.99647e-08
9.23661e-09
1.09139e-07
-8.35795e-09
1.01191e-07
7.24534e-09
9.75684e-08
-3.16321e-10
8.77753e-08
1.03299e-08
8.56874e-08
-1.27157e-08
1.06997e-07
-1.24011e-08
5.30765e-08
-2.65693e-08
9.32451e-08
1.68775e-08
9.71757e-08
-2.19814e-08
2.1202e-07
8.735e-08
5.3959e-08
-4.95107e-08
8.00022e-08
-1.84919e-08
8.68022e-08
-9.91904e-09
9.24912e-08
-8.78825e-09
7.40339e-08
9.40865e-09
2.26104e-07
5.84344e-08
5.46632e-08
-5.49301e-08
5.92351e-08
-1.34426e-08
8.92086e-08
-1.5636e-08
1.2021e-07
-3.84693e-08
1.5598e-07
-4.25757e-08
1.93173e-07
-3.88578e-08
2.25713e-07
-2.56102e-08
2.61774e-07
-1.42737e-08
2.58861e-07
8.07404e-10
2.73033e-07
1.68677e-08
2.54518e-07
3.58812e-08
2.34985e-07
5.09599e-08
1.98441e-07
4.32695e-08
1.79077e-07
2.94598e-08
1.64105e-07
3.22867e-09
1.57834e-07
4.0376e-09
1.52916e-07
-1.42402e-09
1.45037e-07
4.10761e-09
1.57787e-07
1.76743e-08
2.02881e-07
1.09417e-08
1.61862e-07
-1.76332e-08
1.34831e-07
-7.77903e-09
1.47608e-07
-2.28394e-08
1.5312e-07
-9.09515e-09
1.45824e-07
1.18896e-08
1.41184e-07
9.12207e-09
1.5919e-07
-2.68457e-08
9.90319e-08
5.07418e-08
7.87749e-08
5.22529e-08
5.11104e-08
9.34273e-09
5.57053e-08
3.72156e-09
6.41974e-08
-1.09928e-08
7.6146e-08
-8.98304e-09
8.84724e-08
5.82618e-09
1.35533e-07
1.12204e-08
7.58895e-08
1.1856e-08
-6.18885e-09
-1.55501e-07
1.32217e-08
-9.08772e-08
-5.00695e-08
-1.10737e-07
-3.40926e-08
-7.73687e-08
-8.34552e-08
-6.39511e-08
-3.20151e-08
-5.45481e-08
-4.56338e-08
-8.88002e-08
1.864e-08
-7.34609e-08
-3.05042e-08
-8.95607e-08
-4.93294e-09
-8.79884e-08
-1.43563e-08
-8.90508e-08
4.59046e-09
-8.26406e-08
-2.11903e-08
-1.14474e-07
-9.74574e-09
-1.15335e-07
-3.9786e-08
-9.17525e-08
-1.38141e-08
-8.1334e-08
-2.15908e-08
-6.81692e-08
-1.32481e-08
-2.5036e-08
-3.19875e-09
-1.57574e-08
-3.65991e-09
-4.6078e-08
9.2224e-09
-4.52409e-08
-1.55721e-08
-4.801e-08
1.23487e-08
-4.36443e-08
-1.13838e-08
-3.71347e-08
1.18432e-09
-3.03017e-08
-7.52402e-09
4.62547e-09
-2.46546e-08
-4.3826e-08
-4.87098e-08
3.1881e-08
-4.52258e-09
-2.51269e-08
3.13456e-08
-3.38516e-08
2.53461e-08
1.49845e-07
5.01406e-08
1.84443e-08
-4.01508e-08
1.60301e-08
-4.77827e-08
4.74043e-08
-4.94076e-08
-2.74692e-08
-2.03993e-08
1.18708e-08
3.64557e-08
-1.98773e-08
4.13761e-08
1.14171e-08
2.6267e-08
-2.49842e-08
-1.87864e-08
-2.57105e-08
-1.24588e-08
-9.12585e-09
-3.17989e-08
2.21274e-08
-6.94969e-08
8.42285e-08
-1.05545e-07
6.57585e-08
-2.16308e-08
8.97875e-08
-4.92296e-08
1.04084e-07
-2.90114e-08
1.31933e-07
-2.56962e-08
1.4389e-07
3.42791e-09
1.97776e-07
-2.16738e-08
1.54171e-07
9.55966e-08
1.4208e-07
5.70747e-08
1.29997e-07
4.15426e-08
9.22972e-08
4.18374e-08
6.13449e-08
3.5259e-08
4.27308e-08
1.61029e-08
3.03375e-08
1.58047e-08
4.45341e-08
4.41254e-09
4.56218e-08
9.73025e-09
5.68349e-08
-2.82664e-08
-1.50925e-08
-2.17882e-08
5.56233e-08
-8.81846e-09
6.70386e-08
-2.05103e-08
1.06334e-08
6.91001e-08
-2.30723e-08
4.30315e-08
1.33041e-07
7.39519e-08
-5.14706e-08
-2.14292e-08
-1.40748e-08
1.43241e-08
-1.40426e-08
9.31065e-09
-2.07372e-08
1.03111e-08
-8.1887e-09
-2.36992e-08
-4.88909e-09
-1.23733e-08
1.58915e-08
-1.50136e-08
9.75976e-08
-7.12056e-08
8.11366e-10
2.48663e-08
3.19368e-08
-8.86996e-08
6.88648e-09
-6.44685e-08
-5.35769e-08
-1.34898e-07
-4.30602e-08
-7.76576e-08
-5.45561e-08
-1.13469e-07
2.63923e-09
-1.36365e-07
-2.52877e-08
-2.03486e-07
6.45444e-10
-1.55749e-07
8.99419e-09
-1.67188e-07
6.5063e-09
-1.75001e-07
-3.08385e-09
-1.41957e-07
-2.84528e-08
-1.44813e-07
-2.02043e-08
-1.48005e-07
-6.45426e-09
-1.67382e-07
-2.00021e-08
-1.5677e-07
-2.45665e-08
-1.52673e-07
-2.67525e-08
-1.51575e-07
-1.44946e-08
-1.28028e-07
-2.36836e-08
-1.0504e-07
-2.7709e-08
-9.15621e-08
-5.24228e-09
-1.00362e-07
-4.65457e-09
-3.47764e-08
-5.34863e-08
-7.28557e-08
2.63411e-08
-6.8887e-08
-2.77196e-09
-5.84425e-08
-1.74488e-08
-5.36801e-08
-2.94166e-08
-8.9964e-08
-1.29733e-08
-3.11637e-08
-6.43431e-08
-5.70121e-08
5.75172e-08
-1.4087e-07
2.50225e-08
-3.46716e-08
2.87056e-08
-6.47668e-08
-9.64581e-09
-7.2305e-08
-4.11517e-08
-5.58249e-08
-6.65668e-08
-8.39785e-08
7.10567e-09
-1.09003e-07
6.12246e-08
-1.00023e-07
3.3086e-08
-6.38028e-08
-1.00556e-08
-2.16109e-08
-6.14133e-08
-4.04825e-08
6.47379e-09
-4.3056e-08
-2.92254e-08
-7.77624e-08
-3.47906e-08
7.60992e-08
-4.04019e-09
-1.81922e-07
-1.02883e-07
-9.4535e-08
-5.28177e-08
-9.44114e-08
-2.91351e-08
-7.95806e-08
-3.99716e-08
-1.03471e-07
2.6228e-08
7.81807e-08
5.20196e-08
-5.05863e-08
-2.79754e-08
-9.56454e-08
1.63119e-08
-1.97824e-08
5.08994e-08
-1.91979e-08
4.14489e-08
-1.55196e-08
3.09126e-08
-3.81593e-08
3.88161e-08
-2.60294e-08
3.79745e-09
-2.09531e-08
-6.24886e-10
-3.12622e-08
1.96213e-08
-4.92489e-08
-1.05708e-08
-7.57398e-08
5.70809e-09
-8.78485e-08
3.29037e-09
9.91559e-08
4.65658e-08
-1.33263e-07
-3.88928e-08
-4.00703e-08
3.54752e-08
-1.46599e-08
4.81958e-08
-6.80575e-08
3.16456e-08
-7.00901e-08
1.63567e-08
-6.89843e-08
8.90867e-09
-5.78543e-08
-1.40294e-09
-5.55175e-08
-2.63605e-08
-6.06251e-08
-6.14434e-09
-6.92049e-08
-7.1332e-09
9.31242e-08
2.19279e-08
-8.24905e-08
-5.39173e-08
-3.41276e-08
-8.35229e-08
4.87497e-09
-8.51857e-08
-2.46309e-08
-7.48735e-08
-4.28338e-08
-2.1812e-08
-1.06853e-07
-3.19913e-08
1.31452e-08
-3.21214e-08
-2.48282e-08
-8.56301e-09
-2.31635e-08
1.212e-08
-1.17749e-08
1.15046e-08
7.29668e-09
1.66851e-08
-8.26389e-09
9.28689e-09
-2.14199e-08
1.89714e-08
-3.01997e-08
-6.48533e-08
7.71774e-08
-8.07265e-08
-4.12852e-09
-8.00996e-08
-2.43758e-08
-7.88404e-08
-2.88075e-08
-8.57805e-08
-7.2584e-09
-7.27679e-08
-3.58295e-08
-8.23298e-08
-1.91717e-08
-5.14337e-08
-3.64564e-08
-1.29424e-07
-1.14275e-08
1.24506e-07
3.10917e-08
-1.41933e-07
-4.67495e-08
-4.95733e-08
-1.0368e-08
-5.67153e-08
-1.03065e-08
-7.39824e-08
-1.24493e-08
-1.1057e-07
2.24866e-08
2.10709e-08
6.09267e-08
-1.58075e-07
-1.84278e-08
-1.29328e-07
-3.72413e-09
-9.06152e-08
-1.00075e-08
-8.41884e-08
-1.69314e-08
-1.26835e-07
1.8798e-10
2.27436e-08
4.16429e-08
2.45822e-08
4.73596e-09
-1.04815e-07
-6.11006e-08
-6.79989e-08
-5.43809e-09
-6.7144e-08
-1.14841e-08
1.00407e-07
2.73214e-08
-6.9237e-08
-7.66174e-08
-6.01383e-08
-3.90305e-08
-7.79203e-08
-1.70085e-08
-6.3972e-08
-1.79886e-08
-1.27012e-07
-3.98437e-08
-1.34599e-07
-4.52299e-08
-1.41457e-07
-2.34235e-08
-1.53332e-07
-2.83889e-08
-1.25791e-07
1.53409e-09
-9.48808e-08
1.98266e-08
-1.20138e-07
-6.46048e-09
-1.29989e-07
2.8598e-08
-8.89855e-08
1.25212e-08
-8.17066e-08
3.40958e-08
-7.27825e-08
2.15658e-08
-1.42323e-07
2.3198e-08
-7.24536e-08
1.85405e-08
-8.56423e-08
1.18172e-08
-8.04383e-08
1.52911e-08
-9.42643e-08
2.40156e-09
-1.05972e-07
1.74161e-08
-1.08796e-07
7.19563e-09
-7.51698e-08
1.29396e-08
-1.05025e-07
-9.03801e-09
-9.44065e-08
2.44953e-08
-7.64926e-08
3.07487e-08
-7.31077e-08
2.82607e-08
-6.16472e-08
4.10847e-09
-5.73425e-08
4.6041e-09
-3.92097e-08
-1.915e-08
-5.04862e-08
-1.43079e-08
-3.1098e-08
-2.57821e-08
-2.2984e-08
-1.56377e-08
2.52017e-09
-3.80099e-09
-3.65191e-08
-1.4878e-08
-6.53824e-08
-1.16434e-07
2.937e-08
-1.59267e-07
6.05394e-08
-1.36771e-07
-5.17122e-08
1.45732e-08
-2.51272e-09
-1.37566e-07
-8.94953e-08
-9.93704e-08
-6.32794e-08
-7.04974e-08
-5.12587e-08
-5.30963e-08
-2.9e-08
-2.61206e-08
-1.948e-08
-2.02191e-08
-1.40806e-08
-1.01079e-08
-3.19599e-08
1.04483e-07
1.12432e-07
-1.02508e-07
-5.53852e-08
-9.3362e-08
-1.32742e-08
-5.64901e-08
2.35158e-08
-6.72317e-08
-1.76735e-08
-4.26569e-08
-3.14419e-08
-6.17049e-08
-1.75818e-08
-7.26961e-08
-8.92164e-09
-7.61742e-08
-3.33214e-08
-7.67508e-08
-1.00734e-08
-4.04873e-08
-5.58449e-09
-1.63376e-07
-9.59627e-09
-8.5908e-08
-1.40573e-09
-8.41975e-08
-1.18953e-08
-5.03504e-08
-4.62961e-08
-8.33535e-08
5.54899e-08
-4.42918e-08
2.10291e-08
-5.30618e-08
-9.56007e-09
-3.06914e-08
-2.58308e-08
-2.49537e-09
-3.82034e-08
2.52622e-09
-2.19528e-08
1.86832e-08
-1.61614e-08
7.57574e-08
-1.66169e-08
9.44881e-08
-1.43285e-08
6.58913e-08
-3.3167e-08
7.61316e-08
-1.59428e-08
6.45473e-08
3.36508e-10
7.75214e-08
1.48734e-08
1.19744e-10
7.93401e-10
-4.52443e-08
6.3335e-09
-7.22067e-08
9.95384e-09
-8.34783e-08
-6.71695e-09
-1.06045e-07
-1.72771e-08
-1.2864e-07
-2.2406e-08
-1.30434e-07
-2.29599e-08
-1.56203e-07
-2.32787e-09
-1.32836e-07
-2.18166e-08
-1.12214e-07
-5.90776e-10
-7.75318e-08
-3.99323e-08
-7.29309e-08
2.34138e-08
-1.13039e-07
5.2757e-08
-1.0884e-07
2.98976e-08
-1.08057e-07
2.18816e-08
-1.00679e-07
1.55859e-08
-8.66849e-08
3.70862e-09
-8.1736e-08
6.74793e-09
-6.88325e-08
2.38775e-09
-1.00071e-07
3.39873e-08
-1.12148e-07
2.93152e-08
-1.13014e-07
8.14511e-09
-1.13952e-07
1.3877e-08
-1.22268e-07
-7.21223e-10
-6.03998e-08
-3.67569e-08
-8.26086e-08
5.24281e-08
-7.37547e-08
1.96047e-08
-6.03315e-08
-9.31471e-09
-4.6097e-08
-1.02458e-08
-3.4995e-08
-3.02519e-08
-8.84094e-08
-4.49006e-08
-1.04329e-08
-2.01119e-08
-2.58473e-08
-3.30351e-10
-2.7999e-08
-1.65006e-09
-5.4725e-08
1.18478e-08
4.27334e-08
-1.35268e-07
2.99491e-08
-1.98599e-07
5.36677e-08
-7.71651e-08
-6.70856e-08
-5.45932e-08
-2.21656e-08
-9.28987e-08
-5.06777e-08
-1.06352e-07
-4.96215e-08
-9.87307e-08
-5.72882e-08
-8.47122e-08
-4.21626e-08
-7.01486e-08
-3.48987e-08
-7.42866e-08
-1.14158e-08
1.21836e-07
2.88287e-08
-5.94431e-08
-4.7125e-08
-3.60247e-08
5.10401e-09
-5.4718e-08
5.05194e-09
-3.10114e-08
-1.90326e-10
-3.47409e-08
-1.35892e-08
4.16301e-09
-7.06629e-08
-3.9101e-08
2.57251e-08
-3.12733e-08
-1.68956e-08
-3.96094e-08
-2.43901e-08
5.98363e-09
-5.58315e-08
-3.81009e-08
3.81117e-08
-6.40782e-08
1.64803e-08
-6.08936e-08
-3.31508e-09
-8.02435e-08
7.4549e-09
8.7608e-08
3.93237e-08
-6.38241e-08
-4.62445e-08
-9.62299e-09
-3.3412e-08
4.47988e-09
-2.4048e-08
-4.68628e-09
-1.67888e-08
-3.21882e-08
-1.06406e-08
-5.42077e-08
6.6785e-11
-6.60485e-08
-4.32058e-09
-7.14393e-08
-1.21243e-08
-9.09259e-08
4.0732e-09
-1.25745e-07
9.50969e-10
-1.39455e-07
-2.53842e-09
-1.43944e-07
4.78345e-09
-1.23177e-07
-4.21386e-09
-1.33169e-07
1.20418e-08
-1.34176e-07
7.34099e-09
-1.23722e-07
-4.99966e-10
-1.19877e-07
-1.06711e-08
-1.27517e-07
-8.33624e-09
-1.25718e-07
-2.44523e-08
-1.44483e-07
-5.5338e-09
-1.22739e-07
-2.52995e-08
-1.05049e-07
-3.95074e-08
-1.54741e-07
5.01796e-08
-2.21739e-08
8.17902e-08
2.16618e-09
-9.16866e-10
-1.71655e-07
-1.13633e-07
-1.17518e-07
6.17224e-08
-1.06653e-07
1.09063e-08
-9.65424e-08
4.59335e-09
-1.01956e-07
9.12241e-09
-1.16872e-07
2.18878e-08
-1.25558e-07
9.79291e-09
-1.36804e-07
4.47714e-08
-1.28866e-07
2.14585e-08
-1.63178e-07
4.24573e-08
-1.40686e-07
-6.95036e-09
-1.1106e-07
-3.03465e-08
3.54632e-08
6.99339e-08
-1.08541e-07
-5.47593e-08
-7.481e-08
-1.52341e-08
-7.30181e-08
-1.12017e-08
-5.37728e-08
-2.94911e-08
-5.04168e-08
-3.36078e-08
-6.48024e-08
-3.0515e-08
-5.07513e-08
-3.43684e-08
-4.7068e-08
-3.97369e-09
-6.52888e-08
1.65697e-08
-6.77118e-08
1.42709e-08
1.49381e-08
-6.50937e-08
-3.83187e-08
-3.16296e-07
-7.60206e-08
-3.34058e-08
3.36272e-08
-6.22373e-08
8.6643e-09
-6.81305e-08
-4.4608e-08
-7.34429e-08
-4.42551e-08
-7.36e-08
-5.78723e-08
-6.44244e-08
-5.19885e-08
-6.71386e-08
-3.25402e-08
-5.00142e-08
-2.82516e-08
-1.57619e-08
-5.7174e-09
-5.33942e-08
-9.49232e-09
-3.61402e-08
-1.19754e-08
-3.35032e-08
2.41533e-09
-3.4104e-08
4.06799e-10
-4.82701e-08
5.77307e-10
1.08347e-07
2.65599e-08
-4.71728e-08
-7.18301e-08
-1.67531e-08
-4.76267e-08
-2.3816e-09
-3.9103e-08
1.2786e-07
7.15507e-08
-5.79475e-08
-3.20008e-08
-2.5046e-08
-1.65891e-08
-2.64772e-08
-1.88347e-09
-1.58478e-08
-3.09815e-09
-4.03532e-10
2.38838e-08
-3.96228e-08
-7.42512e-09
-2.13347e-08
-5.26725e-08
-2.86988e-08
-1.70075e-08
-4.7132e-08
2.25307e-09
-5.10371e-08
-6.32322e-09
-6.43771e-08
1.28862e-08
-7.55223e-08
6.82474e-09
-7.95876e-08
-8.14203e-09
-7.80319e-08
2.476e-09
-6.61138e-08
-1.09769e-08
-6.90428e-08
4.16482e-10
-6.87404e-08
5.1335e-09
-6.26106e-08
-1.04062e-08
-7.82866e-08
2.70791e-08
-7.58891e-08
4.94343e-09
-9.67792e-08
1.94028e-08
-1.15687e-07
8.23695e-09
-1.27056e-07
2.91672e-09
-1.52454e-07
-8.77914e-10
-2.22792e-07
-1.92611e-08
-1.9164e-07
3.05844e-08
-1.6771e-08
4.03165e-08
-2.00563e-07
-2.0113e-08
-1.13393e-07
-4.26619e-09
-1.16759e-07
1.28269e-09
-1.92241e-08
4.45393e-08
-2.0597e-07
-8.82867e-08
-1.15498e-07
3.28527e-09
-1.15155e-07
3.05999e-09
-1.07147e-07
1.19642e-09
-1.14176e-07
2.86221e-08
-1.24344e-07
2.23935e-08
-9.93178e-08
1.91007e-08
-9.11185e-08
1.22462e-08
-1.33695e-07
-1.6214e-10
-1.54576e-07
1.39307e-08
7.1797e-08
8.16008e-08
-6.54498e-08
-4.45409e-08
-7.68193e-08
-4.5076e-08
-7.28408e-08
-1.92126e-08
-6.72325e-08
-1.68101e-08
-7.24252e-08
-2.45489e-08
-9.11086e-08
-1.50782e-08
-9.38066e-08
-2.81037e-08
-8.08101e-08
-4.65408e-08
-8.06035e-08
-4.18098e-09
-1.07787e-07
4.293e-08
-1.06215e-07
1.26983e-08
-6.19614e-09
-1.11446e-07
1.44364e-07
-2.16617e-07
7.03904e-08
-1.25963e-07
-3.95915e-08
-7.29605e-08
-4.00742e-08
-7.08917e-08
-4.71315e-08
-5.16316e-08
-6.39663e-08
-2.48481e-09
-1.08693e-07
-4.86309e-08
-5.84202e-09
-2.82637e-08
-5.31149e-08
-7.70367e-09
-4.88112e-08
1.18203e-08
-2.53196e-08
1.11693e-08
-8.95492e-09
4.11735e-08
-4.15594e-08
4.96655e-08
-6.10066e-09
5.981e-08
-9.73736e-09
7.25817e-08
-1.08433e-08
8.22288e-08
1.60657e-08
2.87712e-08
-1.91049e-08
-2.26998e-08
3.41635e-09
1.30606e-07
6.50094e-08
-3.23088e-08
-2.46079e-08
-4.18189e-08
-2.19312e-08
-3.69673e-08
-2.12303e-08
-4.41648e-08
5.31443e-09
-3.50069e-08
-1.23821e-08
-6.63459e-08
-2.98446e-08
-8.10401e-08
7.26776e-09
-5.83221e-08
9.91026e-09
-9.77149e-08
2.2559e-08
-1.0714e-07
1.05624e-08
-1.34262e-07
2.07341e-08
-1.19439e-07
-5.67342e-10
-1.08672e-07
-5.05042e-09
-1.14817e-07
-1.99697e-09
-9.81479e-08
-1.30221e-08
-9.4047e-08
-1.50778e-08
-8.81129e-08
-5.51757e-09
-8.22328e-08
-1.58553e-09
-9.78736e-08
5.12736e-09
-8.46185e-08
1.46727e-08
-9.25008e-08
1.28258e-08
-1.00858e-07
2.77595e-08
-9.60942e-08
3.38952e-09
-8.60774e-08
-7.02837e-09
-1.03101e-07
1.61551e-08
-1.28382e-07
6.2165e-09
-1.18123e-07
2.03246e-08
-9.55618e-08
1.89237e-08
-1.01215e-07
-1.53266e-08
-1.04602e-07
-3.00109e-09
-1.03629e-07
1.40162e-09
-1.26491e-07
-1.69325e-08
-1.34025e-07
4.01143e-09
-1.13018e-07
-1.76883e-08
-1.00964e-07
-9.0255e-09
-1.03458e-07
4.74585e-09
-9.891e-08
2.37855e-08
-8.47543e-08
8.09354e-09
-6.64364e-08
9.75765e-10
-6.22269e-08
7.2847e-09
-6.57715e-08
3.3826e-09
-7.06397e-08
1.87989e-08
-1.19944e-08
2.29556e-08
-5.91546e-08
1.56139e-09
-9.04346e-08
-1.39396e-08
-1.0431e-07
-4.41484e-09
-7.77056e-08
-4.46626e-08
-1.62266e-07
5.83393e-08
-1.84548e-07
7.12089e-09
-1.75889e-07
-3.52238e-08
-1.70669e-07
-5.1007e-08
-1.56416e-07
-1.84777e-08
-1.83824e-07
-1.44262e-08
-1.82113e-07
1.09869e-08
6.24922e-08
-1.39497e-07
5.04415e-08
-1.18753e-07
-1.84397e-08
-1.16839e-08
-4.57324e-08
-3.40511e-08
-1.72347e-08
-3.24408e-08
-4.8593e-08
-6.06736e-08
-3.63522e-08
9.14406e-08
-3.93656e-09
-5.00375e-08
-1.18437e-07
-3.038e-08
-7.20372e-08
-2.08098e-08
-5.94859e-08
-2.32233e-08
-2.31418e-08
8.02436e-09
-4.0284e-08
-3.52166e-08
1.63439e-09
-2.22315e-08
-1.9441e-08
-2.70784e-08
-5.21616e-09
-3.65217e-08
-1.39962e-09
-2.82295e-08
7.32202e-09
-6.54581e-08
1.77443e-08
-3.92716e-08
-2.19602e-08
-1.01031e-08
3.52868e-08
-3.99823e-08
5.88128e-09
-5.42267e-08
-8.50222e-09
-8.17855e-08
5.83004e-09
-7.89148e-08
2.49888e-09
-1.22172e-07
2.93143e-08
-1.68961e-07
1.64624e-08
-1.71658e-07
1.17058e-08
-1.62798e-07
2.80239e-09
-1.44216e-07
3.97728e-09
-1.37903e-07
4.24867e-09
-1.43783e-07
2.61368e-08
-1.40478e-07
-3.87301e-09
-1.26476e-07
-1.90516e-08
-1.39052e-07
1.05988e-08
-1.32713e-07
-1.93604e-08
-1.32749e-07
-1.50419e-08
-1.20095e-07
-1.81719e-08
-1.19631e-07
-2.04942e-09
-1.17781e-07
4.42636e-09
-8.94546e-08
-1.35168e-08
-1.25129e-07
-3.75592e-08
-1.00184e-07
2.81483e-09
-1.17896e-07
2.23041e-08
-6.84112e-08
2.73943e-08
-6.74767e-08
1.45226e-08
-7.18912e-08
1.05237e-08
-6.08744e-08
8.68672e-09
-1.27587e-07
1.3141e-09
-7.4151e-08
1.64449e-08
-7.11388e-08
-6.73907e-09
-8.0517e-08
9.94417e-09
-1.04044e-07
6.59478e-09
-8.59674e-08
-1.30039e-08
-9.4518e-08
-9.13755e-09
-1.00579e-07
-2.96443e-09
-9.81734e-08
2.34034e-09
-9.04485e-08
1.63034e-08
-7.94959e-08
-2.859e-09
-8.68893e-08
9.17209e-09
-7.27158e-08
-6.8887e-09
-7.6861e-08
6.78606e-09
-7.01466e-08
1.20846e-08
-7.0147e-08
2.2956e-08
-7.71403e-08
7.68931e-09
-7.03081e-08
-2.06281e-08
-1.61887e-07
8.62293e-08
-6.02625e-09
5.63875e-08
-1.84977e-07
-2.10927e-08
-2.52186e-07
-1.4745e-08
-2.24522e-07
2.36817e-08
-2.44347e-07
-2.9147e-08
-1.91548e-07
-6.76725e-08
-2.37742e-07
3.20935e-08
-2.51621e-07
2.51225e-08
1.64447e-08
-2.41676e-07
-4.28792e-07
-1.35582e-07
-1.77815e-07
-1.3436e-08
-6.5579e-08
-3.04066e-08
2.84728e-10
-3.57336e-08
-4.41576e-08
-2.90914e-08
-4.32145e-08
2.05919e-08
-5.32424e-08
-4.26927e-08
-5.49291e-08
-7.49252e-08
-4.14104e-08
-1.09308e-07
-2.70013e-08
-1.74036e-07
-4.29241e-08
-8.93029e-08
-3.9795e-08
-2.038e-07
3.05123e-08
-1.54605e-07
1.80081e-08
-1.38619e-07
-2.12022e-08
-1.51965e-07
1.20703e-08
-1.26537e-07
-1.6815e-08
-1.07022e-07
-3.03008e-09
-1.82908e-07
5.28233e-08
-1.25427e-07
-2.12472e-08
-1.41381e-07
2.02297e-08
-1.66025e-07
1.58007e-08
-1.72751e-07
1.2427e-08
-1.70593e-07
3.8801e-09
-1.59018e-07
1.89743e-08
-1.53425e-07
9.07958e-09
-1.50035e-07
8.11389e-09
-1.49236e-07
2.00414e-09
-8.0277e-08
-6.56514e-08
-1.71639e-07
1.25985e-08
-8.26656e-08
2.10709e-08
-1.57243e-07
-1.49024e-08
-9.92634e-08
7.73254e-09
-6.94466e-08
-1.90238e-08
-8.17414e-08
-7.06561e-09
-9.72464e-08
4.63217e-10
-1.16959e-07
1.55674e-09
-9.11427e-08
-2.75844e-08
-9.02983e-08
4.50314e-09
-8.09456e-08
-2.38235e-08
-1.2532e-07
5.98122e-09
-1.12361e-07
-8.86594e-09
-9.83452e-08
8.28827e-09
-8.155e-08
1.08786e-08
-7.33334e-08
7.0542e-09
-5.5406e-08
-7.40371e-09
-6.09542e-08
1.36697e-08
-9.75433e-08
3.7275e-08
-1.35263e-07
-3.13031e-08
-7.31153e-08
1.72569e-08
-7.42613e-08
1.10902e-08
-8.17386e-08
1.40049e-08
-9.26986e-08
-2.0438e-09
-8.78982e-08
-1.39379e-08
-9.18507e-08
9.88188e-10
-8.56363e-08
-3.87399e-09
-7.56299e-08
6.23348e-09
-7.23258e-08
-5.42509e-09
-6.58711e-08
2.69033e-09
-5.34405e-08
-2.02683e-08
-6.07627e-08
1.41084e-08
-2.57298e-08
-2.31848e-08
-1.07766e-07
2.13287e-08
-6.60802e-08
4.94115e-08
8.52836e-08
8.26774e-08
-1.32708e-07
-3.48318e-08
-9.82472e-09
1.76126e-08
-5.02569e-08
1.98469e-08
-8.58393e-08
2.08381e-08
-1.154e-07
5.04329e-08
-1.92458e-07
4.45446e-08
-8.52419e-08
8.58134e-08
-2.75385e-07
-3.53918e-08
-2.45205e-07
-2.21916e-09
2.83632e-10
-9.67776e-09
8.95292e-08
-9.27948e-08
-8.26705e-08
-8.66596e-08
-6.47123e-08
-5.91268e-08
-2.48939e-08
-7.10815e-08
-3.09838e-08
-8.05488e-08
-3.14977e-08
-1.18097e-07
-1.61321e-08
-1.46493e-07
-2.97933e-08
-1.67275e-07
-2.10548e-08
-1.80884e-07
-1.15275e-08
-1.44235e-07
-8.06056e-08
-4.75143e-09
7.7632e-08
-1.95281e-07
-3.35104e-08
-1.60404e-07
-1.68685e-08
-1.49756e-07
-3.37216e-08
-2.2401e-07
6.88569e-10
-1.53657e-07
-1.19821e-10
-1.27832e-07
-2.91833e-08
-1.75697e-07
1.53869e-08
-1.44834e-07
3.41311e-08
-1.41756e-07
1.69478e-08
-1.42565e-07
1.50031e-08
-1.36064e-07
5.79941e-09
-1.46636e-07
1.57479e-08
-1.36423e-07
8.95356e-09
-1.32482e-07
5.15094e-09
-1.1269e-07
-1.15616e-08
-2.00886e-07
2.21633e-09
2.56367e-08
5.03732e-08
-1.67584e-07
-4.87319e-08
-1.18046e-07
-2.85431e-08
-1.28305e-07
-4.64309e-09
-1.61885e-07
-4.17991e-08
-1.0451e-07
7.50825e-09
-1.03889e-07
-8.75295e-09
-8.33401e-08
-2.09354e-08
-1.45127e-07
-2.07976e-08
-8.17955e-08
-5.54294e-09
-8.49388e-08
6.812e-09
-9.18405e-08
-1.71647e-08
-8.40792e-08
-1.84116e-09
-8.97509e-08
-3.1942e-09
-9.22246e-08
1.08729e-08
-9.25614e-08
1.12154e-08
-8.88374e-08
3.33024e-09
-5.79493e-08
-3.87628e-08
-8.44483e-08
3.93072e-08
-1.55397e-07
2.25867e-08
-1.0797e-07
7.9381e-09
-9.89882e-08
8.27506e-09
-1.0253e-07
1.46325e-08
-8.06422e-08
-7.88326e-09
-8.21296e-08
-5.56367e-10
-8.132e-08
-1.47475e-08
-7.46614e-08
-5.67029e-09
-7.39909e-08
-3.78961e-09
-6.46283e-08
-3.12904e-09
-7.28238e-08
2.85406e-09
-7.19463e-08
1.10241e-09
-8.58646e-08
-7.09144e-09
-7.61545e-08
4.49739e-09
-6.62577e-08
-3.30816e-08
-8.89405e-08
4.51345e-08
-4.79684e-08
8.45396e-09
-8.59333e-08
3.4511e-08
-6.70355e-08
3.25941e-08
-6.75983e-08
1.81754e-08
-6.33605e-08
1.43293e-08
-5.21435e-08
1.03734e-08
-3.83685e-08
3.71843e-08
-4.21511e-08
4.70016e-08
-8.92226e-08
4.68028e-08
-7.17824e-08
3.14318e-08
-9.07345e-08
1.49446e-08
-9.92666e-09
-1.03998e-07
8.23372e-08
7.07733e-09
1.31775e-07
-4.97139e-08
-6.05834e-09
-4.94396e-08
-2.26568e-08
-7.63848e-08
-3.44728e-09
-1.03367e-07
-6.67055e-09
-1.21854e-07
2.16709e-09
-1.36098e-07
-1.43064e-08
-1.39346e-07
-1.90133e-08
-2.34425e-07
-2.08436e-09
1.40432e-09
2.52673e-08
-1.44402e-07
-3.16425e-08
-1.5034e-07
-2.75724e-08
-1.44306e-07
-2.43748e-08
-1.68912e-07
-9.20921e-09
-1.68248e-07
1.74043e-09
-1.54755e-07
-1.51914e-08
-1.84824e-07
8.86705e-10
-1.58753e-07
-8.79847e-09
-1.39518e-07
1.4897e-08
-1.24256e-07
1.85819e-09
-1.1433e-07
5.02674e-09
-1.11636e-07
4.24431e-09
-1.00647e-07
4.75921e-09
-1.58896e-07
-1.99135e-08
-1.46224e-07
-5.95226e-09
-8.67971e-08
1.51553e-08
-8.82799e-08
2.82282e-09
-3.71065e-08
-2.19204e-09
-6.49031e-08
-2.13791e-08
-6.25072e-08
-3.06232e-08
-5.71585e-08
-9.2595e-09
-8.22754e-08
-1.6854e-08
-5.10705e-08
-2.362e-08
-4.0003e-08
-1.98203e-08
-5.79936e-08
-2.97515e-09
-8.00702e-08
1.4912e-09
-6.3557e-08
-2.18893e-08
-5.31737e-08
-3.57128e-09
-6.82395e-08
-2.09897e-09
-7.47499e-08
4.66934e-09
-1.03758e-07
2.47551e-08
-1.18511e-07
2.56264e-08
-1.13814e-07
7.7274e-09
-1.35353e-07
2.34887e-08
2.65185e-08
5.57017e-08
-1.5087e-07
-3.82547e-08
-1.2077e-07
-7.74374e-09
-1.03892e-07
-8.93991e-09
-9.12986e-08
-4.31809e-09
-1.45195e-07
-1.6234e-08
-9.55868e-08
2.72716e-08
-9.84527e-08
2.30958e-09
-1.02663e-07
-1.05372e-08
-1.16299e-07
8.0475e-09
-1.14926e-07
-5.16214e-09
-1.06127e-07
-1.19597e-08
-9.58766e-08
-6.41826e-09
-8.0453e-08
-1.43101e-08
-9.69717e-08
8.67894e-09
-8.88063e-08
-3.66799e-09
5.69951e-08
7.51627e-08
-1.03269e-07
-4.63228e-08
-7.08781e-08
-2.49044e-08
-6.65861e-08
2.95652e-08
-3.01929e-08
-3.79922e-09
-9.45063e-08
-1.12489e-09
-2.04292e-08
2.41594e-08
-3.41839e-08
2.38138e-08
2.4566e-08
-2.12206e-08
4.62152e-08
2.48854e-08
6.41357e-08
2.93483e-08
8.31493e-08
1.25437e-08
7.74687e-08
1.96445e-08
3.65734e-09
-1.82101e-08
1.16565e-09
-1.41645e-07
-4.27794e-08
-1.02827e-07
-3.05076e-08
-7.86011e-08
-4.45607e-08
-7.20559e-08
-1.08378e-08
-8.87482e-08
1.15448e-08
-7.24389e-08
-1.41638e-08
-7.72681e-08
-1.02159e-08
-8.02331e-08
-1.60479e-08
-8.55683e-08
2.39955e-09
-6.03026e-08
2.03152e-12
-8.51018e-08
-6.22777e-09
-9.5454e-08
-1.72198e-08
-1.09289e-07
-1.16547e-08
-1.34298e-07
1.58958e-08
-1.15299e-07
-1.58883e-08
-1.09883e-07
-2.082e-08
-1.13012e-07
4.007e-09
-7.08332e-08
-5.09765e-08
-8.70389e-08
3.0789e-08
-9.19448e-08
7.70248e-09
-8.89785e-08
2.06077e-09
-8.33448e-08
-2.27366e-09
-4.95337e-08
-2.82098e-08
-6.67447e-08
-2.02811e-09
-6.86204e-08
-4.69026e-09
-6.93017e-09
-4.66046e-08
1.46751e-08
-1.89031e-08
3.4951e-08
-2.28207e-08
4.77594e-08
-3.43166e-08
5.19515e-08
-3.45482e-08
6.04633e-08
-1.68057e-08
3.94655e-08
4.81679e-09
-6.92874e-10
1.61358e-08
-2.77552e-08
6.88872e-09
-1.74911e-08
-1.32392e-08
-1.65105e-08
8.57518e-10
-1.68405e-08
-2.15593e-08
-2.40355e-08
3.4519e-09
-3.22628e-08
6.12838e-09
-3.38803e-08
6.28685e-09
-3.36975e-08
2.43242e-08
-4.42409e-08
3.59084e-08
-5.76563e-08
2.11428e-08
-7.46156e-08
4.12093e-08
-2.16562e-08
1.96123e-09
-6.6604e-08
6.40385e-09
-5.1296e-08
-2.23722e-08
-7.04057e-08
1.01698e-08
-7.15932e-08
-3.09897e-09
-1.00079e-07
1.22515e-08
-8.28523e-08
9.94388e-09
-8.8887e-08
8.26009e-09
-1.04124e-07
3.63714e-09
-1.63162e-07
-1.85504e-08
-1.13805e-07
3.19085e-08
-1.06106e-07
-1.96591e-08
-1.12419e-07
-1.0508e-10
-1.07133e-07
-1.9945e-08
-1.01099e-07
2.64469e-09
-1.10721e-07
6.01489e-09
-3.41859e-08
-1.35818e-09
-6.7762e-08
-1.32192e-08
-8.88508e-08
-2.90919e-09
-6.28538e-08
3.53252e-09
-6.66425e-08
-6.51867e-10
-7.21849e-08
4.37289e-09
-3.68473e-08
-1.08215e-08
-7.68756e-08
-2.01369e-08
2.20961e-08
-3.66554e-08
-2.87937e-08
7.62542e-08
-3.19744e-08
3.28275e-08
-1.95508e-08
3.18663e-10
-2.07116e-08
2.10031e-08
1.65111e-09
-7.1469e-08
-4.3548e-08
-8.31145e-08
-9.80902e-09
-8.50921e-08
-1.92179e-08
-4.49871e-08
-8.42519e-08
-7.45536e-08
1.94022e-08
-6.24086e-08
-5.99921e-10
-4.76201e-08
-2.97331e-08
-4.15963e-08
-1.62394e-08
-5.53155e-08
-2.3284e-09
-4.03714e-08
-1.25442e-08
-3.21358e-08
-8.23326e-09
-4.12156e-08
2.85242e-09
-5.70797e-08
-1.35536e-09
-7.98983e-08
1.11642e-08
-7.51908e-08
1.10266e-08
-8.26392e-08
-9.28258e-09
-1.15036e-07
1.15768e-08
-1.09525e-07
-3.295e-10
5.11702e-08
4.2096e-08
-9.83675e-08
-7.06807e-08
-8.05377e-08
-1.11304e-08
-5.88413e-08
-1.8822e-08
-4.61855e-08
-1.44627e-08
-5.29259e-08
-2.19355e-08
-1.5391e-08
-4.01233e-08
-7.05523e-08
-3.36199e-08
-2.55021e-08
-7.82643e-09
-3.09992e-08
-1.36659e-08
-3.17374e-08
-2.23151e-08
-4.72953e-08
-1.93056e-08
-3.77287e-08
-4.53143e-08
-5.71753e-08
1.87854e-09
-8.17517e-08
2.9933e-08
-6.1486e-08
-2.64161e-09
-6.03088e-08
5.71169e-09
-6.53364e-08
-8.6917e-09
-6.20087e-08
-2.47016e-09
-1.39601e-08
-7.05474e-08
-4.19102e-08
3.14021e-08
-4.39369e-08
8.15513e-09
-3.89045e-08
1.65143e-09
-2.20246e-08
7.44425e-09
-1.47824e-08
2.81543e-08
4.93986e-09
1.40629e-09
-5.50334e-08
1.62535e-08
1.05378e-08
2.10658e-08
-8.65452e-09
2.55315e-08
-2.17142e-08
-9.4008e-09
-1.6505e-08
5.12907e-09
-1.84144e-08
-1.18948e-09
-1.21005e-08
5.81386e-09
1.57401e-12
-2.15818e-09
1.3595e-08
-5.33328e-09
2.87067e-08
-1.13358e-08
-4.56456e-09
1.49101e-08
1.74483e-08
9.89565e-09
-8.33851e-09
6.19093e-09
-1.34546e-08
4.87375e-09
-2.22071e-08
-1.11924e-08
-2.76788e-08
8.14369e-09
-1.12012e-07
5.86621e-09
-3.06611e-08
2.32894e-09
-4.39359e-08
-2.57272e-10
-5.00771e-08
3.74279e-09
-3.58593e-08
-1.06497e-08
-3.59216e-08
-5.89048e-10
-3.30829e-08
1.86816e-09
-5.36632e-08
9.33047e-09
-9.53161e-08
1.9996e-08
1.08393e-07
1.63363e-08
-9.44833e-08
2.34951e-08
-8.26866e-08
2.10301e-08
-8.5294e-08
2.95493e-09
-7.47895e-08
1.07128e-08
2.26407e-09
-1.1049e-07
-1.80539e-08
-4.18649e-08
-4.69203e-08
-7.36845e-08
1.59853e-08
8.03391e-08
1.59466e-08
-8.07133e-08
-7.12666e-08
-4.72298e-08
-3.49127e-08
-4.70716e-08
-2.9891e-08
-4.50202e-08
-1.82904e-08
-4.33063e-08
-4.04198e-09
-3.43281e-08
-2.1522e-08
-4.19656e-08
-5.95367e-10
-5.02248e-08
1.1112e-08
-5.17756e-08
1.97835e-10
-5.63817e-08
1.56114e-08
-5.31629e-08
7.80819e-09
-6.94188e-08
6.97372e-09
-7.28664e-08
1.47562e-08
-7.17534e-08
-1.4422e-09
-2.1976e-08
-7.45674e-09
-5.36041e-08
-4.01717e-08
-3.93931e-08
-2.52287e-08
-2.36055e-08
-3.46093e-08
-5.2941e-09
-3.3162e-08
-6.32609e-08
-4.89554e-08
-2.08469e-08
2.2261e-09
-6.22369e-08
7.13549e-09
-1.29115e-07
-2.69432e-08
-5.88171e-08
2.11674e-09
-8.32117e-08
1.24358e-09
-1.01133e-07
-2.42654e-09
-8.88053e-08
-5.65994e-08
-8.027e-08
-5.76975e-09
-1.6975e-07
3.57123e-08
-1.01466e-07
1.31142e-08
-9.81312e-08
1.39976e-09
-1.09471e-07
2.67588e-09
-1.05396e-07
-7.62091e-09
5.04153e-08
3.08704e-08
-1.26854e-07
-4.66082e-08
-9.42478e-08
-2.44507e-08
-1.0708e-07
1.46325e-08
-6.54728e-08
-3.30811e-08
-4.71224e-08
1.02799e-08
-5.0427e-08
4.74424e-09
-5.49245e-08
2.00395e-08
-4.02373e-08
5.81828e-09
-2.77971e-08
1.3217e-08
-3.48892e-08
-2.33241e-09
-2.36428e-08
-6.05557e-09
-2.28309e-08
-1.78051e-09