/*--------------------------------*- C++ -*----------------------------------*\
  =========                 |
  \\      /  F ield         | OpenFOAM: The Open Source CFD Toolbox
   \\    /   O peration     | Website:  https://openfoam.org
    \\  /    A nd           | Version:  12
     \\/     M anipulation  |
\*---------------------------------------------------------------------------*/
FoamFile
{
    format      ascii;
    class       volVectorField;
    location    "0.8";
    object      U.water_0;
}
// * * * * * * * * * * * * * * * * * * * * * * * * * * * * * * * * * * * * * //

dimensions      [0 1 -1 0 0 0 0];

internalField   nonuniform List<vector> 
3750
(
(-0.00192773 -0.0201014 0)
(-0.0115519 -0.017233 0)
(-0.00226865 -0.0162098 0)
(-0.00138679 0.004303 0)
(-0.00253691 -0.000134433 0)
(-0.00388381 0.00664185 0)
(-0.0030725 0.00395795 0)
(-0.00198006 0.00685131 0)
(-0.00120711 0.00566341 0)
(0.00101415 0.00924687 0)
(0.00128088 0.00768773 0)
(0.00434886 0.0172837 0)
(-0.00302016 0.0176534 0)
(0.00131612 0.00884228 0)
(-0.000871362 0.0104381 0)
(0.000970361 0.0110642 0)
(-0.00164492 0.0126644 0)
(-0.00633648 0.00941793 0)
(-0.00236386 0.00284094 0)
(-0.00109077 0.00438054 0)
(0.000811696 0.00450405 0)
(0.000252227 0.00838286 0)
(0.000192996 0.00996701 0)
(-0.00101914 0.00864922 0)
(-0.00136828 0.00939873 0)
(-0.000194659 0.00967954 0)
(-0.00108198 0.0110572 0)
(-0.000996848 0.01064 0)
(-0.0026872 0.0104982 0)
(0.000906696 0.0121448 0)
(-0.000509624 0.0144159 0)
(-0.00221209 0.0166387 0)
(0.00232757 0.0177334 0)
(0.00108443 0.0146715 0)
(0.000476947 0.0142242 0)
(6.4865e-05 0.0135355 0)
(-0.000361335 0.0146801 0)
(-0.00276976 0.0172824 0)
(0.00193316 0.0180056 0)
(3.09278e-05 0.0146432 0)
(-0.000136036 0.0146437 0)
(-0.000110161 0.015937 0)
(0.000997457 0.0182393 0)
(0.000505437 0.0193454 0)
(0.000440533 0.0163993 0)
(0.000833081 0.017041 0)
(-0.00111725 0.0161105 0)
(0.000579886 0.0145706 0)
(-0.0011869 0.0128014 0)
(0.00013633 0.00869177 0)
(-0.00182032 0.00759701 0)
(0.000338371 0.00655892 0)
(-0.000625965 0.00768562 0)
(0.000405307 0.0083118 0)
(0.00082646 0.00842995 0)
(0.000486717 0.00637303 0)
(0.00197922 0.00380612 0)
(0.00355835 0.0148721 0)
(-0.00252422 0.0134381 0)
(-0.00201016 0.0084335 0)
(-0.00184401 0.00976087 0)
(-0.000430226 0.0115816 0)
(-0.000428688 0.010495 0)
(-0.000998447 0.00915579 0)
(-0.00179656 0.0102706 0)
(-0.00131454 0.0109737 0)
(-0.000628292 0.00944608 0)
(-0.00148226 0.00919459 0)
(7.80579e-06 0.00958461 0)
(-0.00074763 0.0107636 0)
(0.000645018 0.00858084 0)
(0.000720262 0.00784677 0)
(0.00246172 0.0175215 0)
(-0.00204175 0.0157457 0)
(0.000243689 0.00774886 0)
(-0.000936854 -0.00704867 0)
(-0.00173503 -0.00874907 0)
(-0.00202798 -0.0105317 0)
(-0.00232562 0.00184099 0)
(-0.000875832 -0.00405277 0)
(0.000193847 0.00174139 0)
(0.000147127 -0.0018216 0)
(-0.000323262 0.00145011 0)
(-0.000694666 0.000624908 0)
(-0.00118698 0.005252 0)
(-0.00134547 0.0032637 0)
(0.0021605 0.00555275 0)
(-0.00534243 0.00964042 0)
(-0.0032087 0.00801593 0)
(-0.000530334 0.00887877 0)
(-0.000909809 0.0094678 0)
(-0.00270487 0.00622454 0)
(-0.00332847 0.00969703 0)
(-0.00288762 0.0119199 0)
(-0.00133575 0.0119208 0)
(-0.00120143 0.00970783 0)
(-0.00046143 0.0106697 0)
(-1.95361e-06 0.0105422 0)
(0.000207536 0.00866249 0)
(0.000274798 0.0103898 0)
(0.00047404 0.00972192 0)
(-0.00210969 0.00865352 0)
(0.000712233 0.00631293 0)
(8.55233e-05 0.00815763 0)
(-0.000294314 0.00859338 0)
(-0.00311141 0.0059332 0)
(0.00110769 0.0151752 0)
(-9.00232e-05 0.0143258 0)
(-0.00128985 0.00629581 0)
(-0.00184636 0.00851847 0)
(-0.000122241 0.00930342 0)
(-0.000298439 0.00807218 0)
(-4.50086e-05 0.0150085 0)
(-0.000977181 0.0141385 0)
(-0.000550992 0.00521486 0)
(0.000260351 0.00788808 0)
(-0.00146354 0.00965945 0)
(-0.00210759 0.0134862 0)
(0.000679224 0.0177363 0)
(-1.90903e-05 0.0211593 0)
(0.00146814 0.0242107 0)
(0.000965846 0.0265275 0)
(0.00268514 0.0272255 0)
(0.00353097 0.0268202 0)
(0.00518314 0.0242532 0)
(0.00327938 0.0216881 0)
(0.00178368 0.0180849 0)
(-0.00159854 0.0156381 0)
(-0.00022342 0.0169088 0)
(-0.00135596 0.0149568 0)
(-0.000960479 0.0140619 0)
(0.00134243 0.0153032 0)
(0.0025937 0.0176831 0)
(-0.00396436 0.0160963 0)
(-0.00436558 0.0138316 0)
(1.96595e-05 0.0129054 0)
(-5.06024e-05 0.0153941 0)
(0.00214381 0.0142932 0)
(0.00196162 0.0147817 0)
(-0.00177039 0.015688 0)
(0.00304951 0.0123586 0)
(0.000627665 0.00697567 0)
(0.000998182 0.00403632 0)
(0.00135859 0.00418913 0)
(0.000274928 0.00621981 0)
(-0.000412992 0.00716811 0)
(0.00123333 0.0081553 0)
(0.00356547 0.0114503 0)
(-0.00235263 0.0100423 0)
(-0.000142669 0.00804251 0)
(-0.000109752 -0.0436972 0)
(-0.00341761 0.0020676 0)
(-0.00479253 -0.015331 0)
(-0.00658758 -0.00570147 0)
(-0.00215678 -0.00669847 0)
(-0.00497023 -0.00354558 0)
(-0.00311912 -0.00903499 0)
(-0.00234282 -0.00739118 0)
(-0.00176143 -0.0105396 0)
(-0.000848205 -0.00879995 0)
(0.00151778 -0.00794902 0)
(-0.00096327 -0.00773623 0)
(-0.00166241 -0.0111927 0)
(-0.00443256 -0.0112748 0)
(0.000224782 -0.00919642 0)
(-0.00157615 -0.0104743 0)
(-0.000373664 -0.0064257 0)
(0.00145024 -0.00466041 0)
(0.00103293 -0.00255192 0)
(-0.000538333 -0.00197621 0)
(-0.00103415 -0.00406222 0)
(0.000758879 -0.004148 0)
(-0.000424443 -0.00476788 0)
(0.000919454 -0.00500725 0)
(-0.000460563 -0.00271509 0)
(-0.000599061 -0.00395706 0)
(-0.00242622 -0.000943192 0)
(-0.000310524 -0.000553372 0)
(0.00132345 -0.00273257 0)
(0.00124334 -0.00229135 0)
(0.0026687 0.00570337 0)
(0.00374113 0.0078225 0)
(-0.00421988 0.0020986 0)
(-0.00321499 0.000110004 0)
(-0.001423 0.0017704 0)
(0.00134645 -0.00041624 0)
(0.00248623 -0.00310382 0)
(0.00529047 -0.000450456 0)
(-0.00372119 -0.000510484 0)
(-0.0017113 -0.00281789 0)
(-0.00250922 -0.000906597 0)
(-0.00585658 -0.000837233 0)
(-0.0091757 0.00530863 0)
(-0.00477032 0.00762033 0)
(-0.00339316 0.00571413 0)
(-0.00364819 0.0103879 0)
(-0.000841558 0.0102478 0)
(0.00103246 0.0132635 0)
(0.00114137 0.0175078 0)
(0.00720412 0.0157386 0)
(0.00363523 0.0153139 0)
(0.00437068 0.0116395 0)
(0.00265859 0.0113605 0)
(0.00126237 0.00748572 0)
(0.00142303 0.00329201 0)
(0.000680954 0.0036628 0)
(0.00106711 0.00397026 0)
(0.0013042 0.0046371 0)
(-0.00171505 0.00222369 0)
(-0.00027071 0.00120513 0)
(-0.00157257 0.00236502 0)
(-0.00215263 0.0028633 0)
(0.00202041 0.0042834 0)
(0.00242283 -0.000634255 0)
(0.0035758 0.0048165 0)
(2.82412e-05 0.00475426 0)
(0.000732111 -0.00289841 0)
(-0.000464968 -0.00176847 0)
(0.000249867 -0.00179522 0)
(-0.00184645 -0.00126056 0)
(-0.00130841 -0.000414284 0)
(-0.000683079 0.000782649 0)
(-0.00256923 0.00331152 0)
(0.00139377 0.00447665 0)
(0.00125944 0.0025094 0)
(0.00255463 -0.0159144 0)
(-0.0057752 -0.00422737 0)
(-0.00431749 -0.00956271 0)
(-0.0071137 -0.00256399 0)
(-0.000463317 -0.0119886 0)
(-0.00250727 -0.0110872 0)
(0.00298175 -0.0118573 0)
(0.000708819 -0.0143015 0)
(0.000588381 -0.0167472 0)
(-0.000771831 -0.013286 0)
(-0.000325413 -0.0141418 0)
(-0.00386363 -0.0144759 0)
(-0.000571281 -0.0144041 0)
(-0.00263666 -0.0154915 0)
(-0.0031658 -0.0155787 0)
(-0.00239024 -0.0162849 0)
(-0.0020076 -0.0143097 0)
(-0.00023395 -0.0115157 0)
(-0.00165937 -0.0108336 0)
(0.000714842 -0.0102392 0)
(-0.00131588 -0.00649102 0)
(-0.000417778 -0.00488627 0)
(0.000266872 -0.0053876 0)
(-0.000508505 -0.00615172 0)
(-0.00175538 -0.00517015 0)
(-0.00261957 -0.00560125 0)
(-0.00185192 -0.00594886 0)
(-0.00518229 -0.00700396 0)
(0.00190701 -0.0066934 0)
(0.00311136 -0.00526567 0)
(0.00374133 -0.00614244 0)
(-0.00333079 -0.00546677 0)
(-0.00598236 -0.00583637 0)
(-0.00548236 -0.00637519 0)
(0.000545955 -0.00568651 0)
(0.00422416 -0.00996403 0)
(0.00367993 -0.0112995 0)
(0.000688459 -0.00830552 0)
(-0.00330263 -0.00434197 0)
(-0.000171061 -0.00294262 0)
(-0.00353356 -0.00388999 0)
(-0.00595172 -0.00533545 0)
(-0.00393358 -0.000742371 0)
(-0.00475707 -0.00187964 0)
(-0.00365008 -0.0112051 0)
(-0.00254043 -0.00971807 0)
(-0.00417257 -0.00859027 0)
(0.00113995 -0.00992301 0)
(0.000122071 -0.000226598 0)
(0.00332883 -0.00125585 0)
(0.00161627 -0.00409266 0)
(0.00534468 -0.00387594 0)
(0.00466448 -0.00449462 0)
(0.00422237 -0.00164068 0)
(0.00142835 -0.0014183 0)
(0.00264206 -0.00237148 0)
(-1.86241e-05 -0.0021815 0)
(0.00167424 -0.00195786 0)
(-0.0018627 -0.00324822 0)
(-0.000279804 -0.0052366 0)
(-0.00160705 -0.00746785 0)
(0.00118297 0.000173625 0)
(0.00127714 -0.000410226 0)
(0.00310953 -0.00448369 0)
(0.00616818 -0.00429826 0)
(0.000701789 -0.00585954 0)
(0.00122786 -0.00617086 0)
(0.00111432 -0.0066984 0)
(0.0012619 -0.00603894 0)
(-0.000428959 -0.00562111 0)
(-0.00105356 -0.00316883 0)
(-0.000896318 -0.00587914 0)
(-0.00205872 0.000872007 0)
(-0.000272316 0.00183737 0)
(-0.000880074 -0.0033968 0)
(0.000367411 -0.0132917 0)
(-0.00160787 -0.00432814 0)
(-0.00214348 -0.00898466 0)
(-0.00759784 -0.000990022 0)
(-7.46943e-05 -0.00469218 0)
(-0.00238519 -0.00345641 0)
(0.000234436 -0.00230158 0)
(-0.0011301 0.00205851 0)
(0.000828446 -5.93946e-05 0)
(-0.000818273 0.0017425 0)
(-0.0034301 0.00152624 0)
(-0.00377048 0.00124636 0)
(0.000695916 -0.00121512 0)
(-0.00123879 -0.00735281 0)
(-0.00156135 -0.00675208 0)
(-0.00212339 -0.00828326 0)
(-0.00147244 -0.00822865 0)
(-0.00233755 -0.00776328 0)
(-0.00266326 -0.00634366 0)
(-0.00184201 -0.00545109 0)
(-0.000324048 -0.00755762 0)
(-0.00106356 -0.00013813 0)
(-0.00147641 -0.000505196 0)
(2.9902e-05 -0.00572355 0)
(-0.000701253 -0.00731737 0)
(-0.00216954 -0.00868954 0)
(0.000587642 -0.00902567 0)
(0.000337128 -0.00511593 0)
(0.00385737 -0.00683886 0)
(0.00293549 -0.0131698 0)
(0.00139812 -0.0116548 0)
(0.0004753 -0.0100033 0)
(-0.00116678 -0.0100233 0)
(-0.000337209 -0.00515518 0)
(0.00155649 0.00099183 0)
(0.0003957 -0.00370585 0)
(0.00181527 -0.00873801 0)
(-0.00143526 -0.0066798 0)
(-0.00259934 0.00273695 0)
(-0.00483383 0.00189661 0)
(-0.00529374 -0.00572667 0)
(-0.0033377 -0.00491883 0)
(-0.000342347 -0.00619611 0)
(-0.0051439 -0.010305 0)
(-0.00568465 -0.0133154 0)
(-0.00242886 -0.0146199 0)
(-0.00384281 -0.0129167 0)
(0.000727873 -0.0111775 0)
(0.00459704 -0.0114883 0)
(-0.00208176 -0.0120538 0)
(0.00364028 -0.00977465 0)
(0.00128276 -0.00925167 0)
(0.00286093 -0.00919817 0)
(0.000777252 -0.00741397 0)
(0.00168356 -0.00752017 0)
(-4.61015e-05 -0.00684439 0)
(0.000212721 -0.00858518 0)
(0.00223561 -0.00790999 0)
(-0.000190807 -0.00958915 0)
(0.000417519 -0.00961024 0)
(0.00285273 -0.00902808 0)
(0.00252369 -0.00984296 0)
(-0.002138 -0.00850909 0)
(0.00194873 -0.00899975 0)
(0.00339567 -0.00871439 0)
(0.00322184 -0.00721253 0)
(0.00146684 -0.00796237 0)
(-1.29803e-05 -0.0055873 0)
(-0.00124724 -0.00470971 0)
(-0.00137879 -0.00422291 0)
(0.000137862 -0.00302232 0)
(-0.000266515 -0.00328242 0)
(0.00089642 -0.00114041 0)
(-0.00389551 -0.00160853 0)
(-0.00568086 -0.00144424 0)
(0.001457 -0.0153992 0)
(0.00229093 -0.00832787 0)
(-0.00467862 -0.0158215 0)
(-0.0053177 -0.00370789 0)
(-0.00377842 -0.00862592 0)
(-0.00546753 -0.0134666 0)
(-0.00473737 -0.00801878 0)
(-0.00166797 -0.00546121 0)
(-7.62218e-06 -0.00338925 0)
(-0.000166542 -0.000775375 0)
(-0.00143098 -0.00211616 0)
(0.00359261 0.00361031 0)
(0.0019637 -0.000183897 0)
(-0.000392842 -0.00658015 0)
(0.00019561 -0.00600295 0)
(-0.00225165 -0.00556461 0)
(-0.00129922 -0.0050173 0)
(-0.00276683 -0.00604202 0)
(-0.000224415 -0.00597108 0)
(-0.00474089 -0.00639911 0)
(0.000466745 -0.00583939 0)
(0.00126247 -0.0070597 0)
(-0.00169374 -0.00654294 0)
(-0.000191583 -0.0077706 0)
(-0.000858076 -0.00983612 0)
(-0.00173891 -0.00791291 0)
(0.00349716 -0.00691688 0)
(0.00437783 -0.00552231 0)
(-0.00228156 -0.004453 0)
(-0.00177483 -0.00395122 0)
(-0.00329631 -0.00146346 0)
(-0.00354376 0.000179614 0)
(-0.000847181 0.000530137 0)
(0.000643406 0.00511081 0)
(-0.00134574 0.00825691 0)
(-0.00492791 0.00805847 0)
(-0.00151807 0.00758849 0)
(-0.00183437 0.00729279 0)
(0.00179459 0.00752633 0)
(-0.00298178 0.00349886 0)
(-0.000160896 -0.00211138 0)
(0.00142443 -0.00561102 0)
(-0.000226563 -0.00707544 0)
(-0.00283362 -0.00951997 0)
(-0.00207106 -0.0103739 0)
(-0.00209367 -0.0125976 0)
(0.000107986 -0.0126249 0)
(-0.00237171 -0.0105954 0)
(0.00211106 -0.013551 0)
(-0.00222209 -0.0113046 0)
(0.00205245 -0.00671648 0)
(0.00210632 -0.00843187 0)
(0.00540037 -0.0112408 0)
(0.00284853 -0.00987054 0)
(0.00349196 -0.00938655 0)
(-7.30941e-05 -0.0104818 0)
(0.00107132 -0.00592692 0)
(-9.41726e-05 -0.00782581 0)
(0.000277112 -0.00907061 0)
(0.0017737 -0.00769063 0)
(-0.000162409 -0.0120748 0)
(0.00231174 -0.0128766 0)
(-0.00233018 -0.011019 0)
(-9.26908e-05 -0.00636681 0)
(0.00512476 -0.00849417 0)
(0.00252335 -0.00804792 0)
(-0.000697166 -0.00570271 0)
(0.00101923 -0.00509924 0)
(-0.0028201 -0.00527073 0)
(-0.00266058 -0.00395317 0)
(-0.00139044 -0.00177637 0)
(-0.000511222 -0.00433563 0)
(-0.000192379 -0.00280126 0)
(-0.000179936 -0.00342458 0)
(-0.00061372 0.00228692 0)
(0.00118138 -0.0256774 0)
(0.00547532 -0.00591176 0)
(-0.00550468 -0.0122962 0)
(-0.000751801 -0.00693363 0)
(-0.00621569 -0.00789147 0)
(-0.00429062 -0.0116522 0)
(-0.00407029 -0.00993941 0)
(-0.00456755 -0.00784428 0)
(-0.0027183 -0.00871301 0)
(-0.00229453 -0.00629345 0)
(-0.00100091 -0.000281703 0)
(0.00248401 0.00470227 0)
(-0.00190469 -0.00362658 0)
(-0.000361956 -0.00581027 0)
(-0.00117563 -0.00294849 0)
(-0.00160803 -0.00332709 0)
(-0.00502054 -0.0013047 0)
(-6.90746e-06 -0.00161555 0)
(-0.000630511 -0.00408624 0)
(-0.00172564 -0.00224303 0)
(-0.00343457 0.000203879 0)
(0.00220127 -0.00241906 0)
(0.000978757 -0.00422671 0)
(-0.000786956 -0.00545606 0)
(-0.000525917 -0.00654012 0)
(-0.000704977 0.000753562 0)
(3.43394e-05 0.00236145 0)
(-0.00175307 -0.00358017 0)
(-0.00200007 -0.000475505 0)
(-0.00300409 0.00126898 0)
(-0.00189948 -0.00187272 0)
(-0.00216928 -0.00377027 0)
(-0.00199831 -0.00658651 0)
(-0.00159475 -0.0062174 0)
(-0.000942867 -0.00803187 0)
(-0.00184621 -0.0108668 0)
(-0.000847376 -0.0129471 0)
(0.00161466 -0.0142724 0)
(0.0020316 -0.0112434 0)
(0.00172625 -0.0132526 0)
(0.00104993 -0.0138847 0)
(-0.000108041 -0.0128641 0)
(-0.00103893 -0.0127852 0)
(-0.0015783 -0.0123495 0)
(-0.00308983 -0.0117436 0)
(-0.00178519 -0.0130237 0)
(-0.00121278 -0.0137953 0)
(-0.0022728 -0.0105605 0)
(0.000701818 -0.0115005 0)
(0.00216911 -0.0103338 0)
(0.00147446 -0.00209925 0)
(-0.00255132 -0.00463941 0)
(0.00206008 -0.00930471 0)
(0.00223704 -0.0108074 0)
(-0.000618967 -0.0115363 0)
(0.00146888 -0.00961604 0)
(-5.43133e-05 -0.0089652 0)
(-2.67711e-05 -0.0114785 0)
(0.00473647 -0.0134367 0)
(0.00238035 -0.0128202 0)
(0.000719487 -0.0145845 0)
(0.000663866 -0.0147517 0)
(0.000179457 -0.0138554 0)
(0.00211155 -0.00216609 0)
(-0.000567223 -0.00443433 0)
(-9.00761e-05 -0.0102806 0)
(-0.0012836 -0.00677122 0)
(-0.00245907 -0.0058311 0)
(-0.00267541 -0.00723774 0)
(-0.00188421 -0.00450492 0)
(-0.00310951 -0.00453982 0)
(0.000374305 -0.00648861 0)
(0.000436825 -0.00557795 0)
(0.000862548 -0.00544896 0)
(0.000971468 -0.00535025 0)
(0.00731378 -0.0185294 0)
(0.000138691 -0.0109643 0)
(-0.00274573 -0.0140396 0)
(-0.000465248 -0.00516922 0)
(-0.00478269 -0.00775791 0)
(-0.00508948 -0.00685786 0)
(-0.00645388 -0.00735183 0)
(-0.0044031 -0.00646676 0)
(-0.00375752 -0.00715025 0)
(-0.00111653 -0.00583052 0)
(0.00241849 -0.00372048 0)
(-0.00141584 -0.00236309 0)
(-0.0021089 -0.00363276 0)
(-0.000184549 -0.00337849 0)
(0.000479426 -0.00339142 0)
(5.2626e-05 -0.00458309 0)
(-0.00242599 0.00338936 0)
(-0.0013623 0.00301159 0)
(-0.00376174 -0.00244388 0)
(-0.003911 -0.000690826 0)
(-0.00126473 0.00624564 0)
(0.000498086 0.00303569 0)
(-0.000575318 -0.0032968 0)
(-0.000110177 -0.00241626 0)
(0.000682586 -0.00253668 0)
(0.00223 -0.000600038 0)
(-0.00256276 -0.000642534 0)
(-0.00327526 -0.00295848 0)
(-0.00230515 -0.00256691 0)
(-0.000273393 -0.00374995 0)
(-0.000515617 -0.00414295 0)
(0.00240119 -0.00634195 0)
(0.00063209 -0.00793664 0)
(-0.000855103 -0.00638142 0)
(0.00118489 -0.00748392 0)
(0.00084839 -0.00852291 0)
(0.000122189 -0.00592734 0)
(0.000318036 -0.00813387 0)
(-0.0016578 -0.00519487 0)
(0.000261674 -0.00581415 0)
(0.000639641 -0.0071063 0)
(0.000174226 -0.009209 0)
(-0.00110043 -0.00936682 0)
(-0.000844984 -0.0135988 0)
(-0.00225057 -0.015318 0)
(-0.000685115 -0.0142415 0)
(0.00128724 -0.0165457 0)
(0.00128213 -0.0103729 0)
(0.00151738 -0.00928993 0)
(0.00261488 -0.0121587 0)
(0.000398582 -0.012112 0)
(-0.00287339 -0.00766199 0)
(-0.00161429 -0.00685001 0)
(-0.000175864 -0.0129254 0)
(0.00106456 -0.0122779 0)
(0.000348433 -0.0138445 0)
(0.0028615 -0.0127351 0)
(0.00141906 -0.00773666 0)
(0.00260699 -0.00981305 0)
(0.00128602 -0.0110582 0)
(0.00191106 -0.00987346 0)
(-0.000717273 -0.00951804 0)
(0.00224707 -0.00350009 0)
(0.00103308 -0.000125585 0)
(-0.00527371 -0.00594471 0)
(-0.00237972 -0.00582957 0)
(-0.00109176 -0.00686548 0)
(-0.00360213 -0.0068299 0)
(-0.00222764 -0.00773271 0)
(-0.00295979 -0.00851529 0)
(-0.00385257 -0.00858877 0)
(-0.00180493 -0.00857131 0)
(0.00139031 -0.00901328 0)
(0.00187403 -0.00954878 0)
(0.00207536 -0.0105267 0)
(0.00251051 -0.0171123 0)
(0.00132157 -0.0071888 0)
(0.00144999 -0.015763 0)
(-0.00107562 -0.00808432 0)
(-0.00463155 -0.00881905 0)
(-0.00499933 -0.00672868 0)
(-0.008224 -0.00303591 0)
(-0.00251554 -0.00103227 0)
(-0.00220431 -0.00528733 0)
(-0.00378214 -0.000261635 0)
(-0.00121539 -0.000860531 0)
(-0.00267532 0.00125866 0)
(-0.00172894 0.00298783 0)
(2.10337e-05 0.00442419 0)
(-0.000814334 0.00599199 0)
(-0.000386781 0.00435603 0)
(0.00134213 0.00553592 0)
(-0.00446631 0.0046523 0)
(-0.00116308 -0.000422237 0)
(0.000664223 0.00570739 0)
(0.00350964 0.00559895 0)
(-0.00187632 -0.00283682 0)
(-0.00220251 -0.00391167 0)
(4.25345e-05 -0.00396072 0)
(-0.00144012 -0.00612256 0)
(-2.65465e-05 -0.00451145 0)
(-0.000558984 -0.00391808 0)
(-0.00121668 -0.00686648 0)
(0.000506091 -0.00666251 0)
(0.0012548 -0.00952307 0)
(-0.000240001 -0.0122601 0)
(0.000962228 -0.0114178 0)
(0.000534374 -0.0147478 0)
(-0.00128672 -0.0101311 0)
(-0.00109503 -0.00933702 0)
(-0.00239116 -0.0119696 0)
(0.000196941 -0.0100285 0)
(-7.95457e-05 -0.00959692 0)
(0.000112095 -0.00680429 0)
(0.00286637 -0.00632766 0)
(0.000819756 -0.0103253 0)
(0.00293809 -0.0101871 0)
(0.00162291 -0.00879917 0)
(0.00192146 -0.00901231 0)
(0.00258899 -0.0105923 0)
(0.000962795 -0.0107718 0)
(0.00164079 -0.0132716 0)
(0.000878476 -0.0100029 0)
(8.21491e-05 -0.00840444 0)
(-0.000755808 -0.0125275 0)
(-0.00199263 -0.00985128 0)
(-0.000816323 -0.00725178 0)
(-0.00317125 -0.00853663 0)
(-0.00130852 -0.0102366 0)
(-0.00104092 -0.0136326 0)
(-0.000189046 -0.0105887 0)
(0.00310202 -0.00837884 0)
(0.000852888 -0.00907334 0)
(-0.000426385 -0.00660026 0)
(0.000794346 -0.00667472 0)
(0.0010021 -0.00575388 0)
(0.00169474 -0.00636689 0)
(0.00344671 -0.00361893 0)
(-0.00250784 -0.00476995 0)
(-0.00406591 -0.00606264 0)
(-2.58875e-05 -0.00636693 0)
(-0.00406113 -0.0100817 0)
(0.00107546 -0.01162 0)
(-0.00254741 -0.0148781 0)
(-0.0023954 -0.0181597 0)
(-0.00179318 -0.0177405 0)
(-0.000763493 -0.0142746 0)
(0.00166677 -0.0135228 0)
(0.000761953 -0.0159461 0)
(0.0011197 -0.0167929 0)
(0.00622081 -0.0159932 0)
(-0.00213567 -0.00778256 0)
(-0.00137399 -0.00744067 0)
(-0.00231195 -0.00539712 0)
(-0.0034305 -0.00493151 0)
(-0.00589852 -0.00287248 0)
(-0.00584251 0.000690794 0)
(-0.00625946 0.00423622 0)
(-0.00668841 -0.00369224 0)
(-0.00717615 -0.00167449 0)
(-0.00448505 -0.00153329 0)
(-0.00276708 -0.00105256 0)
(-0.00140861 -0.00133698 0)
(-0.000782192 -0.00220088 0)
(0.000175097 -0.00279263 0)
(7.9264e-05 -0.00304759 0)
(0.00162985 -0.00449901 0)
(0.00130809 -0.00490538 0)
(0.00080922 -0.00421756 0)
(0.00618644 -0.00394716 0)
(-0.00116057 -0.00116241 0)
(-0.00279009 -0.00419733 0)
(-0.00104289 -0.00474783 0)
(0.0011139 -0.0067149 0)
(0.0014128 -0.0118748 0)
(0.000851696 -0.011919 0)
(0.00104756 -0.0170935 0)
(0.000333003 -0.0183994 0)
(0.000873625 -0.0142581 0)
(0.000227553 -0.0148666 0)
(0.00375629 -0.0143247 0)
(-0.000362095 -0.011987 0)
(0.00110943 -0.0141837 0)
(0.00211133 -0.0119538 0)
(-0.00113457 -0.0125232 0)
(-0.00113665 -0.0129359 0)
(-0.000836586 -0.0120565 0)
(-0.000400339 -0.0142896 0)
(-7.28258e-06 -0.0113372 0)
(-0.00111687 -0.0101192 0)
(-0.00230949 -0.010508 0)
(0.00165294 -0.00841435 0)
(0.00102613 -0.0083781 0)
(0.000306536 -0.00799568 0)
(0.000578844 -0.00755736 0)
(0.000511424 -0.00646469 0)
(0.00117852 -0.00854934 0)
(0.00356488 -0.00541873 0)
(-0.000973394 -0.0062222 0)
(0.000705579 -0.00781997 0)
(0.00316248 -0.00769353 0)
(-2.2407e-05 -0.00654894 0)
(-0.0016391 -0.00595518 0)
(-0.000849986 -0.0100595 0)
(-0.00059402 -0.011256 0)
(0.00128974 -0.00811717 0)
(0.00114436 -0.00903374 0)
(0.000287896 -0.00972411 0)
(0.00107275 -0.00850868 0)
(0.000475954 -0.00732122 0)
(0.000234502 -0.00818765 0)
(0.00193528 -0.00540897 0)
(0.0020026 -0.00559692 0)
(0.000944936 -0.00795685 0)
(-0.000901432 -0.00573785 0)
(0.00201164 -0.00877996 0)
(0.00129297 -0.00959219 0)
(0.00196971 -0.0103546 0)
(0.000177592 -0.0173813 0)
(-0.00109507 -0.0194816 0)
(-0.00326974 -0.0211351 0)
(-0.00339131 -0.0203339 0)
(0.00153359 -0.0227437 0)
(0.00177886 -0.0243668 0)
(0.00413976 -0.0206509 0)
(-0.0188204 -0.0265176 0)
(-0.00740321 -0.00938317 0)
(-0.00549244 -0.0100737 0)
(0.000116764 -0.00440243 0)
(-0.00550276 -0.00442111 0)
(-0.00276015 -0.00263018 0)
(-0.00302977 0.000576947 0)
(-0.0080613 0.00064996 0)
(-0.00597502 -0.00921247 0)
(-0.00226378 -0.00930102 0)
(-0.00241124 -0.00920668 0)
(-0.00291597 -0.0112995 0)
(0.00111873 -0.0115123 0)
(0.00138157 -0.0130164 0)
(-0.000733803 -0.014591 0)
(-0.000505564 -0.0160787 0)
(0.000310603 -0.0130052 0)
(0.00137278 -0.0144789 0)
(-0.000570846 -0.011414 0)
(-0.000172556 -0.00910351 0)
(-0.000704964 -0.0156084 0)
(0.000255402 -0.0118943 0)
(0.00133974 -0.0125819 0)
(0.000612847 -0.0159162 0)
(0.00513448 -0.0173913 0)
(0.00280571 -0.0166338 0)
(0.000728843 -0.0150466 0)
(-0.000917019 -0.0150971 0)
(-0.00282938 -0.0122864 0)
(0.000557851 -0.00881448 0)
(0.00187292 -0.00993402 0)
(-0.00115224 -0.00986342 0)
(-0.000681425 -0.00747114 0)
(0.000792085 -0.00755713 0)
(-0.0011384 -0.00859454 0)
(-0.000570524 -0.0106272 0)
(-0.00253325 -0.0108856 0)
(0.000199802 -0.0113906 0)
(0.000167568 -0.00852267 0)
(-0.000991405 -0.00879918 0)
(0.000794167 -0.00883089 0)
(0.000200176 -0.00844547 0)
(0.00153162 -0.0116477 0)
(0.000542883 -0.00972508 0)
(0.000625995 -0.00909188 0)
(0.000468564 -0.00613994 0)
(0.0014857 -0.00552564 0)
(0.00155536 -0.0076923 0)
(0.00037709 -0.00946809 0)
(0.000519797 -0.00730664 0)
(0.00141452 -0.00846401 0)
(-0.000481149 -0.00860121 0)
(-0.000694818 -0.00730499 0)
(-0.00114652 -0.00793506 0)
(0.000594008 -0.0102203 0)
(-0.00088257 -0.00746172 0)
(0.00133889 -0.00732221 0)
(-0.000954772 -0.00796321 0)
(0.00110065 -0.0057539 0)
(-0.00189514 -0.00735983 0)
(0.000193187 -0.00340353 0)
(-0.000338168 -0.00325704 0)
(0.00254678 -0.00429493 0)
(0.00302669 -0.00532438 0)
(0.0019434 -0.00136633 0)
(0.00356472 0.00134389 0)
(0.00429608 -0.00504684 0)
(-0.000167608 -0.00364707 0)
(0.000392645 -0.00575356 0)
(0.00293077 -0.00946511 0)
(-0.000454583 -0.0141738 0)
(-0.00078693 -0.0127636 0)
(-0.00124384 -0.0154402 0)
(0.000894955 -0.0225324 0)
(0.000427076 -0.0233705 0)
(-0.0133007 -0.0112561 0)
(-0.0133892 0.00294838 0)
(-0.00652051 -0.00976138 0)
(-0.000832462 -0.00278076 0)
(-0.00429749 -0.0102031 0)
(-0.00491308 -0.00614166 0)
(-0.0036433 -0.0102558 0)
(-0.00484492 -0.0125591 0)
(-0.00242573 -0.014527 0)
(-0.00166794 -0.0134439 0)
(-0.003639 -0.0159614 0)
(0.00107563 -0.00935479 0)
(0.00202429 -0.0085734 0)
(-0.000783015 -0.0168663 0)
(-0.00312713 -0.0170362 0)
(0.000518206 -0.0140976 0)
(-0.000786507 -0.0118569 0)
(-0.00206966 -0.0126528 0)
(0.00351312 -0.0133499 0)
(0.000815827 -0.0118596 0)
(0.00308563 -0.0133781 0)
(0.00178155 -0.0149674 0)
(-4.34487e-05 -0.0143676 0)
(-0.000584252 -0.0118817 0)
(-0.00170328 -0.0123715 0)
(-0.000499294 -0.0137734 0)
(0.000987223 -0.0126428 0)
(-0.000272678 -0.012308 0)
(-0.00115017 -0.00524377 0)
(-0.000258459 -0.00621024 0)
(-0.00171206 -0.0135375 0)
(0.000110765 -0.0132589 0)
(-0.00101637 -0.0100036 0)
(-0.000357826 -0.0103134 0)
(6.51915e-06 -0.0110881 0)
(-0.000591862 -0.0100049 0)
(0.000481063 -0.00660551 0)
(-0.00143868 -0.00755649 0)
(0.000768063 -0.00847728 0)
(-0.00227251 -0.00892384 0)
(-0.00051807 -0.00962982 0)
(-0.00126794 -0.00784221 0)
(-0.000104245 -0.00816812 0)
(0.000895776 -0.0103284 0)
(8.11467e-05 -0.00928705 0)
(-0.00313831 -0.00723394 0)
(0.00266859 -0.0079995 0)
(0.00228565 -0.00830374 0)
(0.00179768 -0.00811496 0)
(0.000456988 -0.00967371 0)
(-0.000445728 -0.0110574 0)
(0.000447024 -0.00844202 0)
(0.00179356 -0.00615334 0)
(-0.000923858 -0.00828823 0)
(1.10198e-05 -0.0102567 0)
(-0.000256134 -0.00592539 0)
(-0.000486358 -0.00694081 0)
(0.000230361 -0.00841535 0)
(-0.000425126 -0.00641393 0)
(-0.00131831 -0.00812888 0)
(0.000708157 -0.00832437 0)
(-0.00344236 -0.00597862 0)
(0.00395741 -0.00561694 0)
(0.00168999 -0.00909975 0)
(0.0049917 -0.00417669 0)
(-0.000390368 -0.00352489 0)
(0.000556224 -0.00811088 0)
(0.00225503 -0.00729737 0)
(0.00189869 -0.00487176 0)
(0.00474213 -0.00483858 0)
(0.00685172 -0.00590338 0)
(0.00737864 -0.00239122 0)
(0.00047424 -0.0044979 0)
(0.00137068 -0.00888845 0)
(-0.00136031 -0.00999687 0)
(0.00159774 -0.0187576 0)
(0.00176739 0.00202013 0)
(-0.00218101 -0.00574875 0)
(-0.00111185 -0.00045589 0)
(-0.00121944 -0.00746012 0)
(-0.00275971 -0.00863432 0)
(0.000174436 -0.0113261 0)
(-0.000995146 -0.0123798 0)
(-0.00151016 -0.0154873 0)
(-0.00121364 -0.0139051 0)
(-0.00304384 -0.00749369 0)
(0.00246663 -0.00587418 0)
(-0.00326685 -0.0126582 0)
(-0.00246053 -0.0165872 0)
(-0.00140943 -0.0133226 0)
(0.00155777 -0.0133139 0)
(-0.0004929 -0.0172017 0)
(-0.00227638 -0.0150707 0)
(-0.000842388 -0.0149663 0)
(0.000968043 -0.0157593 0)
(-0.000990376 -0.0144115 0)
(0.000331125 -0.0131194 0)
(0.000856277 -0.00989803 0)
(0.00260138 -0.0100139 0)
(0.000420905 -0.0123416 0)
(0.00118543 -0.010943 0)
(-0.000755863 -0.0101347 0)
(0.00112704 -0.00983368 0)
(0.00198863 -0.00526274 0)
(-0.00331869 -0.00439798 0)
(-0.00269832 -0.00792349 0)
(-0.000361064 -0.0076276 0)
(-0.00190407 -0.00629141 0)
(-0.000759327 -0.0043015 0)
(-0.00190058 -0.00562002 0)
(-0.000934171 -0.00602231 0)
(-0.000705576 -0.00622158 0)
(-0.00160101 -0.00521486 0)
(-0.00022879 -0.00556075 0)
(-0.000767411 -0.00832661 0)
(-0.000304594 -0.00536978 0)
(0.00111014 -0.0064222 0)
(0.00140739 -0.00898744 0)
(0.00224268 -0.0102131 0)
(0.00236574 -0.0133298 0)
(0.00110526 -0.0067828 0)
(-0.000622178 -0.00436891 0)
(0.00168696 -0.0107761 0)
(-0.00231937 -0.0118744 0)
(-0.000458212 -0.00930251 0)
(-0.000322548 -0.00769033 0)
(0.000774376 -0.00837662 0)
(-0.000998736 -0.0101252 0)
(-0.00223467 -0.0111912 0)
(-0.00103517 -0.0115692 0)
(0.000299641 -0.0102592 0)
(-0.000260799 -0.0109412 0)
(0.000258188 -0.0101945 0)
(0.000468029 -0.00918214 0)
(0.00153171 -0.00738046 0)
(0.00101993 -0.00713728 0)
(0.0026356 -0.00181518 0)
(-0.000727468 -0.00143592 0)
(-0.000174245 -0.00785705 0)
(0.00461316 -0.00638867 0)
(-0.00111256 -0.0059382 0)
(0.000833086 -0.00355824 0)
(0.00154102 -0.00365466 0)
(0.000675443 -0.00381103 0)
(0.000584241 -1.31882e-05 0)
(0.00366283 0.00296113 0)
(0.00333647 0.00627148 0)
(0.000365277 0.00646196 0)
(0.0012292 0.00802009 0)
(0.00165955 0.00691036 0)
(0.00441659 -0.00971849 0)
(-0.000379028 -0.00590129 0)
(-0.00148273 -0.0115267 0)
(-0.00299561 -0.00423885 0)
(-0.000211365 -0.01097 0)
(0.000924837 -0.00455039 0)
(0.000537681 -0.00702694 0)
(-0.000688176 -0.00893961 0)
(-0.00194085 -0.00680292 0)
(0.00107894 -0.0069429 0)
(0.00157378 -0.00720033 0)
(-0.00165696 -0.00608606 0)
(-0.00319024 -0.00967715 0)
(-0.000992797 -0.0113419 0)
(3.38746e-05 -0.01015 0)
(-0.00170273 -0.0108907 0)
(-0.00198611 -0.0125759 0)
(0.00132257 -0.0101153 0)
(-0.00288781 -0.00793387 0)
(0.00266647 -0.00837156 0)
(0.0010596 -0.0103701 0)
(0.000805633 -0.00836865 0)
(0.000879041 -0.00828588 0)
(-0.00179853 -0.00660889 0)
(-0.000706132 -0.00549267 0)
(-0.00138435 -0.00569913 0)
(-0.00154884 -0.00409588 0)
(-0.00222245 -0.000431319 0)
(-0.00119108 0.00221591 0)
(-0.00333202 0.00412707 0)
(-0.00312335 0.00510117 0)
(-0.00102934 0.00405941 0)
(0.000786484 0.00373288 0)
(-0.000193216 0.00257461 0)
(-7.84716e-05 -0.00216035 0)
(-0.000987867 -0.00179699 0)
(-0.000766098 -0.000391444 0)
(-0.000635866 -0.00154829 0)
(0.000163979 -0.00147398 0)
(0.000606868 -0.00247565 0)
(0.00155116 -0.0022774 0)
(0.00163141 -0.00166379 0)
(0.00180042 -0.00278511 0)
(0.000428287 -0.00330257 0)
(0.00119853 -0.00570787 0)
(0.00329396 -0.00427777 0)
(-0.00174912 -0.00343847 0)
(-0.00309889 -0.00591554 0)
(6.68166e-05 -0.00626928 0)
(0.0019717 -0.00525213 0)
(0.00180178 -0.00880574 0)
(0.000984213 -0.00909673 0)
(0.000857238 -0.00890111 0)
(0.00090312 -0.00964195 0)
(-0.000674427 -0.0104875 0)
(0.000456205 -0.00930808 0)
(-0.00106915 -0.0116179 0)
(-0.00109493 -0.0125393 0)
(-0.00262589 -0.0106628 0)
(9.55519e-05 -0.0105996 0)
(-0.00180404 -0.00861611 0)
(0.00408524 -0.00793602 0)
(-0.00255667 -0.00739255 0)
(-0.00114004 -0.00537497 0)
(0.00191531 -0.00657043 0)
(0.000853356 -0.00736588 0)
(0.00180527 -0.00605779 0)
(-0.00100316 -0.00754678 0)
(-0.00183364 -0.00308546 0)
(-0.0036632 -0.000485677 0)
(0.00352502 -0.00179721 0)
(0.00342733 -0.00330581 0)
(0.00106982 -0.00261314 0)
(0.00207288 -0.001216 0)
(-0.000531445 -0.00262876 0)
(-0.00298306 -0.0160452 0)
(0.00288663 -0.00171262 0)
(-0.0025157 -0.0119614 0)
(-0.00654204 -0.00268276 0)
(0.00149805 -0.00662428 0)
(0.000605398 -0.0043919 0)
(-0.00223704 -0.00566605 0)
(-0.000953601 -0.00451136 0)
(2.20683e-05 -0.00497854 0)
(-0.0011987 -0.00209371 0)
(0.00223013 -0.00399036 0)
(-0.000495284 -0.00491804 0)
(-5.60821e-05 -0.00666395 0)
(-0.00101292 -0.00670619 0)
(0.00097195 -0.00747118 0)
(-0.00207161 -0.00851195 0)
(-3.83872e-05 -0.00830772 0)
(-0.000275531 -0.009676 0)
(-0.000841613 -0.00490243 0)
(-0.00155853 -0.00347449 0)
(-0.000526586 -0.00919233 0)
(-0.000852975 -0.00655427 0)
(-0.00160689 -0.00489842 0)
(-0.00369496 -0.00352501 0)
(-0.00190193 -0.00568705 0)
(-0.00192546 -0.00398735 0)