/*--------------------------------*- C++ -*----------------------------------*\
  =========                 |
  \\      /  F ield         | OpenFOAM: The Open Source CFD Toolbox
   \\    /   O peration     | Website:  https://openfoam.org
    \\  /    A nd           | Version:  12
     \\/     M anipulation  |
\*---------------------------------------------------------------------------*/
FoamFile
{
    format      ascii;
    class       volVectorField;
    location    "0.8";
    object      U.water;
}
// * * * * * * * * * * * * * * * * * * * * * * * * * * * * * * * * * * * * * //

dimensions      [0 1 -1 0 0 0 0];

internalField   nonuniform List<vector> 
3750
(
(0.000451131 -0.0208545 0)
(-0.00215455 0.00388975 0)
(-0.00630589 0.00259072 0)
(-0.0038486 0.00273629 0)
(-0.00348605 -0.00175875 0)
(-0.00436783 0.00653558 0)
(-0.0036318 0.00514332 0)
(-0.00221313 0.00889413 0)
(-0.00123624 0.00802309 0)
(0.000688273 0.0117109 0)
(0.000159106 0.0101738 0)
(0.00190246 0.00996935 0)
(0.000223999 0.0112507 0)
(0.00227283 0.0114264 0)
(-0.000340746 0.011824 0)
(0.00148379 0.0108653 0)
(0.000406802 0.00975663 0)
(-0.000301523 0.00894301 0)
(0.000555999 0.00583267 0)
(0.00092442 0.0052653 0)
(0.00403627 0.0123346 0)
(-0.00280892 0.0143499 0)
(-0.000833006 0.00653825 0)
(-0.00136681 0.00690588 0)
(-0.00163679 0.00847924 0)
(-0.000550624 0.00930383 0)
(-0.0012432 0.0111534 0)
(-0.000667514 0.0111056 0)
(-0.00204695 0.0117499 0)
(0.000798189 0.0120325 0)
(-0.000226353 0.012153 0)
(0.00766131 0.0146659 0)
(0.00283011 0.0168817 0)
(0.00113195 0.0152537 0)
(0.000766019 0.0154937 0)
(0.000255949 0.0146316 0)
(9.11731e-05 0.0145 0)
(-0.00109258 0.0133433 0)
(0.000483459 0.013493 0)
(9.44186e-05 0.0156556 0)
(-0.000815575 0.0170737 0)
(-0.00223399 0.0184822 0)
(0.0030429 0.020639 0)
(0.000523369 0.0191881 0)
(8.55903e-05 0.0167509 0)
(0.000854435 0.0181288 0)
(-0.000800673 0.0170678 0)
(0.00100436 0.0150422 0)
(-0.000840737 0.0129931 0)
(7.74195e-05 0.00890683 0)
(-0.00195771 0.00822605 0)
(0.000178723 0.00740201 0)
(-0.000687436 0.0085921 0)
(0.000259944 0.00939709 0)
(0.000661377 0.00989596 0)
(0.000139377 0.00930666 0)
(0.00043115 0.00695461 0)
(0.00102018 0.00845637 0)
(0.000102271 0.00758889 0)
(-0.00067785 0.0111191 0)
(-0.00109405 0.0118051 0)
(1.81056e-05 0.0123208 0)
(-0.000287688 0.0106102 0)
(-0.000640462 0.00864265 0)
(-0.00132701 0.00904815 0)
(-0.00276359 0.00951666 0)
(-0.00140466 0.0100589 0)
(-0.00212409 0.0111993 0)
(-0.00019183 0.0111563 0)
(-0.00104594 0.0127008 0)
(-0.000144694 0.012029 0)
(4.67937e-05 0.0114871 0)
(-3.28384e-05 0.0109921 0)
(0.000134575 0.00972559 0)
(0.000674469 0.011555 0)
(0.00343268 -0.00623901 0)
(0.0104597 -0.000596406 0)
(-0.00807433 -0.00260199 0)
(-0.00577311 0.00329281 0)
(-0.00248352 -0.00369504 0)
(-0.00110336 0.00202899 0)
(-0.00171216 -0.000424993 0)
(-0.00140612 0.0040769 0)
(-0.000656781 0.00286184 0)
(-0.00166204 0.00664951 0)
(-0.00329491 0.00364082 0)
(-0.0014233 0.00279529 0)
(-0.0013821 0.00630069 0)
(-0.00110181 0.00794412 0)
(0.000944659 0.00985182 0)
(0.000608127 0.0108186 0)
(0.000836858 0.00892761 0)
(0.00403293 0.00994991 0)
(0.00165077 0.0106759 0)
(0.00211785 0.0131727 0)
(0.00497305 0.012579 0)
(-0.00405449 0.0123535 0)
(-0.00199014 0.00990942 0)
(-0.000813212 0.00777306 0)
(-0.000359739 0.00948045 0)
(-5.34418e-05 0.00946303 0)
(-0.00215495 0.00943445 0)
(0.000196889 0.00751014 0)
(0.000520047 0.00890578 0)
(0.000423764 0.0083146 0)
(-0.000516027 0.0136738 0)
(0.00431126 0.01328 0)
(0.00126238 0.00413721 0)
(-0.000194174 0.00651036 0)
(-0.00124441 0.00998373 0)
(-0.000680489 0.0106028 0)
(-0.000509003 0.00938915 0)
(-0.000301914 0.0088232 0)
(-9.42706e-05 0.00820071 0)
(0.000813542 0.00679935 0)
(0.0001717 0.00793592 0)
(-0.000820364 0.0151452 0)
(-0.00171857 0.0180725 0)
(-0.00082084 0.0151183 0)
(-0.00274444 0.021502 0)
(0.00132814 0.0260214 0)
(0.00140116 0.0279139 0)
(0.003671 0.0276854 0)
(0.00462371 0.0264332 0)
(0.00447159 0.0238949 0)
(0.00274816 0.0221784 0)
(0.00154573 0.0189846 0)
(-0.00182749 0.0165193 0)
(-0.000705434 0.017847 0)
(-0.00185969 0.016305 0)
(-0.00138523 0.0157074 0)
(-0.000841044 0.0162604 0)
(-0.000858537 0.0154256 0)
(-0.000430193 0.0138472 0)
(-0.00150008 0.0147417 0)
(0.00174015 0.0140497 0)
(0.00111398 0.0154234 0)
(0.00194235 0.0143899 0)
(0.00234564 0.0146772 0)
(-0.000754895 0.0127021 0)
(0.000276495 0.00964276 0)
(-0.000945094 0.00833065 0)
(0.000924038 0.00663901 0)
(0.00110491 0.0061845 0)
(-0.000576676 0.0076501 0)
(-0.0035124 0.0102214 0)
(0.00232354 0.0100873 0)
(0.00124644 0.0078586 0)
(0.000399312 0.00655303 0)
(-0.000513827 0.00842592 0)
(0.00156671 -0.0432876 0)
(0.000375249 0.00486157 0)
(-0.00704215 -0.0114432 0)
(-0.00746381 -0.00310535 0)
(-0.00390606 -0.00611228 0)
(-0.00625852 -0.00386313 0)
(-0.00515771 -0.00762171 0)
(-0.00552847 -0.00349002 0)
(0.000322109 -0.00765017 0)
(-0.000828985 -0.0082102 0)
(0.000463179 -0.0086358 0)
(-0.00200096 -0.00911258 0)
(-0.000604444 -0.0120482 0)
(-0.00298721 -0.0111946 0)
(0.00120901 -0.00841343 0)
(-0.0006773 -0.00847955 0)
(0.00190041 -0.00370891 0)
(0.00191356 -0.00400584 0)
(0.00258583 -0.00307407 0)
(0.000369033 0.000500214 0)
(-0.00348898 -0.00330127 0)
(-0.00132528 -0.00657609 0)
(-0.00305554 -0.00563383 0)
(-0.00056873 -0.00522643 0)
(-0.00108214 -0.00301137 0)
(-0.000627403 -0.00370818 0)
(-0.00219161 -0.000848825 0)
(-0.00016331 0.000524294 0)
(0.000668455 -0.00022683 0)
(-0.00144393 -0.000127139 0)
(0.000408989 0.00592664 0)
(-0.00172484 0.00464472 0)
(-0.00153694 -0.00084895 0)
(-0.000238106 -0.000233955 0)
(-0.00107392 0.00128925 0)
(-0.000593632 -5.47276e-05 0)
(0.000722305 -0.00290458 0)
(0.00313871 -0.00322103 0)
(0.000106129 -0.00360624 0)
(-0.000100725 -0.00295627 0)
(-0.00149857 0.000754038 0)
(-0.00139637 0.00237994 0)
(-0.00940064 0.00551929 0)
(-0.00574487 0.00425441 0)
(0.000497341 0.00731558 0)
(-0.00210863 0.014638 0)
(0.000245406 0.0123814 0)
(0.00240364 0.0144031 0)
(0.00278724 0.0159643 0)
(0.00495077 0.0144693 0)
(0.00322689 0.0163555 0)
(0.00441361 0.0128783 0)
(0.00250418 0.0120859 0)
(0.000686486 0.00833711 0)
(0.000452121 0.00479466 0)
(0.000357314 0.00500368 0)
(0.000163386 0.00424823 0)
(0.000266476 0.00405531 0)
(-0.000471194 0.00239245 0)
(0.00118507 0.00227333 0)
(0.000546084 0.0028373 0)
(7.91476e-06 0.0017813 0)
(0.00101534 0.00367094 0)
(0.00168475 0.000158374 0)
(0.00163967 0.000648958 0)
(-0.000396034 0.000823029 0)
(-0.00168026 0.000231295 0)
(0.00271743 0.00170798 0)
(0.000838338 -0.000970807 0)
(-0.00169018 -0.00215761 0)
(-0.00153746 0.00498063 0)
(-0.00117735 0.00536438 0)
(-0.00200422 -0.0013857 0)
(0.000898497 5.49966e-05 0)
(-7.36779e-05 0.001188 0)
(0.0031783 -0.0147933 0)
(-0.0064917 -0.00232876 0)
(-0.00321804 -0.00605721 0)
(-0.00643166 -0.00050574 0)
(-0.00187384 -0.0120333 0)
(-0.0032667 -0.0111879 0)
(0.00265662 -0.0125221 0)
(-0.000358952 -0.00755601 0)
(-0.000578057 -0.0111847 0)
(-0.00135881 -0.0148985 0)
(-0.000532333 -0.0146249 0)
(-0.00208237 -0.015162 0)
(-0.000609131 -0.0151955 0)
(-0.00274557 -0.0156159 0)
(-0.00306595 -0.0150533 0)
(-0.00453948 -0.013666 0)
(0.0010295 -0.0118558 0)
(-0.000354184 -0.0117492 0)
(-0.001669 -0.0114968 0)
(3.1042e-05 -0.0130219 0)
(-0.00505781 -0.00656652 0)
(-0.00128424 -0.00335122 0)
(-0.0021295 -0.00556371 0)
(-0.00146079 -0.00514915 0)
(-0.00237759 -0.00457017 0)
(-0.00232951 -0.00498352 0)
(-0.00145946 -0.00503749 0)
(-0.00343984 -0.00671759 0)
(-0.00138107 -0.00873643 0)
(-0.000353509 -0.00723216 0)
(4.96857e-05 -0.000916818 0)
(-0.00431074 -0.00216444 0)
(-0.0035878 -0.00828865 0)
(-0.00149311 -0.00864934 0)
(0.00111819 -0.00925956 0)
(0.00119135 -0.0108368 0)
(0.00192129 -0.0100876 0)
(0.000882622 -0.00845634 0)
(-0.000256327 -0.00677075 0)
(-0.000939682 -0.00414633 0)
(-0.00394478 -0.000846536 0)
(-0.0038193 -0.000983696 0)
(-0.00313337 -0.00156784 0)
(-0.00297602 -0.000698894 0)
(0.000755959 -0.0083407 0)
(-0.00118226 -0.0106608 0)
(-0.00199308 -0.00738925 0)
(0.00199345 -0.0086983 0)
(-3.38928e-05 -0.00429516 0)
(0.000908853 -0.00359886 0)
(0.00476442 -0.00141153 0)
(0.00529255 -0.00247892 0)
(0.00379164 -0.00406056 0)
(0.00291536 -0.00130459 0)
(-0.000772096 0.000128974 0)
(0.00278287 -0.000738067 0)
(-0.000120652 -0.00182226 0)
(0.00163686 -0.00193797 0)
(-0.0012341 -0.00310643 0)
(6.0025e-06 -0.00349802 0)
(-0.00119024 -0.00539639 0)
(0.0018032 -0.00274425 0)
(0.00122021 -0.0033169 0)
(0.00209463 -0.00551547 0)
(0.00391721 -0.0069069 0)
(0.0021468 -0.00891259 0)
(0.00251221 -0.00117218 0)
(0.00159555 -0.00109905 0)
(0.00138975 -0.00703224 0)
(-0.000266838 -0.00504188 0)
(0.00110915 -0.000766997 0)
(-0.00420386 -0.00307707 0)
(-0.00316409 -0.0029409 0)
(-0.000121665 -0.00360886 0)
(-0.000427114 -0.0042431 0)
(0.00202921 -0.0138403 0)
(0.00542652 -0.00115652 0)
(0.00202853 -0.00401921 0)
(-0.00467141 -0.000891804 0)
(-0.000786508 -0.00554331 0)
(-0.00225699 -0.00254571 0)
(0.00121549 -0.00101668 0)
(0.000137664 0.00514053 0)
(-0.00392617 0.00318266 0)
(-0.00234563 0.00323599 0)
(-0.00390845 0.00302629 0)
(0.00116111 -8.10262e-05 0)
(-8.60616e-05 -0.00381608 0)
(-0.00169539 -0.00708675 0)
(-0.000217689 -0.0080819 0)
(-0.00132452 -0.00357454 0)
(-0.00131163 -0.00333049 0)
(-0.00255469 -0.0101425 0)
(-0.0027835 -0.00743613 0)
(-0.00171233 -0.0066168 0)
(0.00131275 -0.0068923 0)
(-0.00134308 -0.00104931 0)
(-0.00201935 -0.00153399 0)
(0.000134843 -0.00428753 0)
(-0.000658459 -0.00648173 0)
(-0.0016036 -0.00750107 0)
(-0.000280152 -0.00749909 0)
(-0.000981739 -0.00800687 0)
(0.00143761 -0.00979322 0)
(0.00278404 -0.011446 0)
(0.0023138 -0.00857053 0)
(-0.00297451 -0.00719915 0)
(-0.00191893 -0.00813416 0)
(-0.000323189 -0.0075315 0)
(0.00274941 -0.00638775 0)
(0.00110751 -0.00551382 0)
(0.00171777 -0.00530543 0)
(-0.0014186 -0.00462012 0)
(-0.00216274 -0.00143201 0)
(-0.00491603 -0.00142819 0)
(-0.00783859 -0.00116308 0)
(-0.000688886 -0.000467935 0)
(-0.000885087 -0.00613939 0)
(-0.00335646 -0.0100599 0)
(-0.0082198 -0.0121301 0)
(-0.00511909 -0.0125323 0)
(5.98173e-05 -0.0111671 0)
(0.00224596 -0.0122503 0)
(0.00440819 -0.0162693 0)
(0.00209959 -0.0104557 0)
(0.00523935 -0.0064243 0)
(-0.000636993 -0.0119562 0)
(0.000670248 -0.00962572 0)
(-0.00134293 -0.00786523 0)
(-0.00206968 -0.00458173 0)
(0.00259346 -0.00353817 0)
(0.000954204 -0.0085764 0)
(0.00232848 -0.00782367 0)
(4.80314e-05 -0.00913057 0)
(0.000685927 -0.00874033 0)
(0.00166375 -0.00825246 0)
(0.00143235 -0.011357 0)
(0.000248119 -0.0108146 0)
(0.00306852 -0.0103994 0)
(0.0030489 -0.0101801 0)
(0.00392161 -0.00766811 0)
(0.00484787 -0.00579298 0)
(-0.00262678 -0.00324466 0)
(-0.00219988 -0.00415349 0)
(-0.00260715 -0.00304009 0)
(-0.000445738 -0.00111145 0)
(-0.00230897 -0.00201094 0)
(-0.00163495 -0.00247421 0)
(-0.00185517 -0.00453255 0)
(-0.00318436 -0.00432896 0)
(0.00148898 -0.0116915 0)
(0.00636469 -0.00716833 0)
(-0.00119328 -0.0150393 0)
(-0.0028918 -0.0065124 0)
(-0.00196184 -0.0114681 0)
(-0.0042293 -0.0117333 0)
(-0.00389974 -0.00727017 0)
(-0.00229238 -0.00438664 0)
(-0.00458787 -0.000701283 0)
(-0.000148646 0.00181109 0)
(0.00389692 0.00351962 0)
(0.00323802 0.00242429 0)
(0.00134818 -0.00626803 0)
(-1.46361e-05 -0.00459979 0)
(0.00208475 -0.00430639 0)
(0.00200325 -0.00412059 0)
(-0.00309042 -0.00361644 0)
(-0.00383188 -0.00658031 0)
(-0.000657023 -0.00642788 0)
(-0.00373968 -0.00744344 0)
(0.000459778 -0.00627803 0)
(-0.00140327 -0.00778739 0)
(-0.00213484 -0.0065534 0)
(-0.000364411 -0.00604001 0)
(3.40158e-05 -0.00881114 0)
(-0.000355663 -0.0081785 0)
(0.000874809 -0.00783635 0)
(0.000614765 -0.00675947 0)
(-0.00117998 -0.00526975 0)
(-0.00133303 -0.00246954 0)
(-0.0033738 0.000405702 0)
(-0.00536134 0.00181296 0)
(-0.00359755 0.00147028 0)
(-0.00523131 0.00473738 0)
(0.00153386 0.00555985 0)
(-0.000899137 0.00602527 0)
(-0.000297243 0.00811987 0)
(-0.00221589 0.00761798 0)
(0.00024518 0.0049954 0)
(-0.00108681 -0.000685479 0)
(0.000406414 0.00361403 0)
(0.00210749 0.000765896 0)
(-0.000170372 -0.00867687 0)
(-0.00197822 -0.0100973 0)
(-0.00235587 -0.0120708 0)
(-0.00223721 -0.00713899 0)
(0.00108707 -0.00722334 0)
(-0.000641754 -0.0134596 0)
(0.00293356 -0.0147954 0)
(0.00486509 -0.0121956 0)
(0.000552237 -0.0100988 0)
(-0.000376315 -0.0109339 0)
(0.00360717 -0.0111049 0)
(0.00168278 -0.0111098 0)
(0.00359508 -0.00313637 0)
(-0.000628043 -0.00438323 0)
(0.000855893 -0.00811802 0)
(-0.000219635 -0.00824938 0)
(0.00022868 -0.00875072 0)
(0.00152382 -0.0074157 0)
(-0.000537959 -0.0113582 0)
(0.00274899 -0.0122156 0)
(0.0010677 -0.0117402 0)
(0.0018773 -0.0100166 0)
(0.00264037 -0.011306 0)
(0.00156665 -0.00726366 0)
(0.000604013 -0.00401883 0)
(0.00042806 -0.00384694 0)
(-0.00336886 -0.0049507 0)
(-0.00321079 -0.00300747 0)
(-0.00258979 -0.000137365 0)
(-0.00247305 -0.00349432 0)
(-0.00217785 -0.00232683 0)
(-0.000417592 -0.00385128 0)
(0.000163201 -0.00298537 0)
(-0.00325792 -0.0230438 0)
(-0.00161946 -0.00166553 0)
(-0.00379204 -0.00833242 0)
(-0.000338656 -0.00837093 0)
(-0.00271725 -0.0098368 0)
(-0.00246899 -0.011804 0)
(-0.00305227 -0.0104721 0)
(-0.00433048 -0.00997084 0)
(-0.00313658 -0.00476649 0)
(-0.00235068 0.00521912 0)
(0.000463871 0.000960088 0)
(-0.00238907 -0.00233766 0)
(-0.000703217 -0.00532903 0)
(0.00123851 -0.0029478 0)
(-0.000396389 -0.000436091 0)
(0.000867526 -0.00222491 0)
(-0.00295611 -0.0017849 0)
(-0.00122619 -0.00267254 0)
(-0.000904987 -0.00324906 0)
(-0.000245885 -0.00315291 0)
(-0.00226304 -0.00279561 0)
(-0.00160377 -0.00378899 0)
(-0.000727792 -0.00268499 0)
(-0.00179243 -0.00268153 0)
(-0.000827863 -0.00411581 0)
(-0.00153484 -0.00162848 0)
(-0.00064019 -0.00123888 0)
(-0.00230528 -0.00249607 0)
(-0.000957838 0.00090922 0)
(-0.00231902 0.00183203 0)
(-0.00204107 -0.00113983 0)
(-0.00311223 -0.00364506 0)
(-0.00349433 -0.00884071 0)
(-0.00354129 -0.00285415 0)
(-0.00104262 -0.00530885 0)
(-0.000157831 -0.0145538 0)
(0.000204724 -0.0141519 0)
(0.00149374 -0.0151969 0)
(0.00131279 -0.0130178 0)
(0.00255718 -0.0146358 0)
(0.00175708 -0.010456 0)
(0.000284853 -0.00883047 0)
(-0.000656055 -0.0125368 0)
(-0.00100357 -0.01241 0)
(-0.00238459 -0.0115253 0)
(0.000211126 -0.00957637 0)
(-0.00339225 -0.0102282 0)
(-0.00165565 -0.0119201 0)
(-0.000921581 -0.0111026 0)
(0.00313907 -0.0110344 0)
(0.00184952 -0.00831507 0)
(-4.62105e-05 -0.00779356 0)
(0.00125682 -0.00843888 0)
(0.00307734 -0.00937619 0)
(0.00231999 -0.00795564 0)
(-0.00201497 -0.00658651 0)
(-0.00103696 -0.00850071 0)
(-0.000464552 -0.0112897 0)
(0.00385933 -0.0130659 0)
(0.00179721 -0.0123378 0)
(0.000649174 -0.0131105 0)
(0.00200287 -0.0125736 0)
(0.0021667 -0.0144784 0)
(0.000968943 -0.00964614 0)
(-0.00120641 -0.00860908 0)
(-0.00245139 -0.00692508 0)
(0.00177871 -0.00428405 0)
(-0.00207437 -0.0053662 0)
(-0.00314305 -0.00672516 0)
(-0.00199451 -0.00405849 0)
(-0.00387213 -0.00405995 0)
(-0.00115559 -0.00602176 0)
(-0.00153986 -0.00519108 0)
(-0.00114354 -0.00561145 0)
(-0.000144562 -0.00845466 0)
(0.00206041 -0.0176296 0)
(-0.0038968 -0.00272075 0)
(-0.00375379 -0.00601242 0)
(-0.000334885 -0.00593526 0)
(-0.0029041 -0.00908915 0)
(-0.00311608 -0.00757225 0)
(-0.00479935 -0.00807823 0)
(-0.00370118 -0.00682328 0)
(-0.00103495 -0.00474696 0)
(-0.00268445 -0.00133115 0)
(-0.00406729 -0.00292043 0)
(-0.00268174 -0.00365575 0)
(-0.00049367 -0.00308971 0)
(0.0010627 -0.00179905 0)
(0.000408869 -0.000761132 0)
(0.000374359 -0.00176001 0)
(-0.00155757 0.000963627 0)
(-0.00117567 0.000229505 0)
(-0.00233426 -0.000131808 0)
(-0.00230054 -0.000187084 0)
(-0.00252456 0.00027976 0)
(-0.000957241 -0.000438241 0)
(-0.00100211 -0.000390663 0)
(-0.00117386 0.000609164 0)
(-0.00084569 -0.00131589 0)
(-0.000311166 -0.0012544 0)
(-0.00114157 -0.00132499 0)
(-0.000750951 -0.00252761 0)
(-0.0017309 -0.00226962 0)
(-7.92072e-05 -0.00357279 0)
(-0.000445019 -0.00391008 0)
(0.00208097 -0.00604684 0)
(0.0010391 -0.0079774 0)
(0.00178919 -0.00533243 0)
(-0.00147029 -0.00668004 0)
(0.000626632 -0.0095399 0)
(0.000504043 -0.007228 0)
(0.000634202 -0.00947868 0)
(-0.00126879 -0.00678732 0)
(0.000781083 -0.00863876 0)
(0.00104589 -0.00183453 0)
(-0.000272556 -0.00321858 0)
(-0.00110541 -0.0108794 0)
(-0.000541599 -0.013943 0)
(-0.00235363 -0.0156083 0)
(-0.00130354 -0.0118744 0)
(-0.00170424 -0.0125008 0)
(-0.00073349 -0.0126677 0)
(-0.00223455 -0.0101893 0)
(0.00267787 -0.0109722 0)
(0.00112648 -0.0138314 0)
(0.00131869 -0.011407 0)
(0.000991327 -0.00862239 0)
(0.00168236 -0.0104623 0)
(0.00236569 -0.0103505 0)
(-0.000189261 -0.0118019 0)
(0.00223762 -0.0119106 0)
(0.000912316 -0.00803006 0)
(0.00182015 -0.0095023 0)
(0.000314984 -0.00990975 0)
(0.00230017 -0.00747734 0)
(-0.000412634 -0.00682126 0)
(0.00104866 -0.00674106 0)
(0.000468764 -0.00625151 0)
(-0.00162629 -0.0101333 0)
(-0.000601099 -0.00138205 0)
(-0.000392368 -0.0024614 0)
(-0.00425988 -0.00916677 0)
(-0.00327679 -0.00796492 0)
(-0.00326311 -0.00793018 0)
(-0.00414528 -0.00838359 0)
(-0.00252134 -0.00889544 0)
(-0.000727272 -0.0089898 0)
(0.000237335 -0.00913651 0)
(0.00166748 -0.0117997 0)
(-0.00180146 -0.0142583 0)
(0.0016624 0.000144697 0)
(-0.00124008 -0.00795741 0)
(-0.00154146 -0.00667317 0)
(-0.00354852 -0.00890711 0)
(-0.00275495 -0.00715631 0)
(-0.005179 -0.00490569 0)
(-0.00310821 -0.00221388 0)
(-0.0027988 -0.00353448 0)
(-0.00471638 0.00201666 0)
(-0.00345792 0.000737934 0)
(-0.00263689 0.00218205 0)
(-0.00219918 0.00368624 0)
(-0.000338517 0.00558355 0)
(-0.00192451 0.00761525 0)
(-0.00211918 0.00629038 0)
(-0.000913917 0.00480234 0)
(-0.00277071 0.00422309 0)
(-0.000231251 0.00181247 0)
(-0.00100985 0.00187701 0)
(0.00112244 -0.000638258 0)
(6.79264e-05 -0.00348384 0)
(-0.000665071 -0.00191118 0)
(-0.000312617 -0.00226123 0)
(-0.00252311 -0.00523468 0)
(-0.00114738 -0.00401224 0)
(0.000279174 -0.00252872 0)
(0.000212709 -0.00671035 0)
(0.00140146 -0.00766987 0)
(0.00138884 -0.00957962 0)
(-0.000146212 -0.012071 0)
(0.000488325 -0.0109711 0)
(0.000495499 -0.0140391 0)
(-0.000956517 -0.00982831 0)
(-0.00156525 -0.00948394 0)
(-0.00241674 -0.012384 0)
(0.000401977 -0.0105534 0)
(0.000647171 -0.010508 0)
(0.00117655 -0.00844389 0)
(0.00412768 -0.00771731 0)
(0.00373295 -0.00792191 0)
(1.77522e-05 -0.00665796 0)
(0.000365108 -0.00782813 0)
(0.00176823 -0.0092576 0)
(0.0018717 -0.0114598 0)
(-0.000234328 -0.0102411 0)
(-0.00415794 -0.0109259 0)
(-0.000366105 -0.0120099 0)
(0.000739042 -0.00601262 0)
(-0.00212215 -0.00844542 0)
(-0.00444694 -0.0121741 0)
(0.00228885 -0.00845815 0)
(0.00126379 -0.00989048 0)
(0.000198048 -0.0102973 0)
(-0.000145416 -0.0124823 0)
(-9.84575e-05 -0.00937449 0)
(0.00258775 -0.00784223 0)
(0.000398159 -0.00893533 0)
(-0.00108013 -0.00664294 0)
(-0.0021559 -0.00487306 0)
(0.00385485 -0.00295686 0)
(0.00156179 -0.00565602 0)
(0.00188145 -0.00535885 0)
(0.000113809 -0.00741528 0)
(0.000439668 -0.00827963 0)
(0.00380165 -0.00605696 0)
(-0.00547146 -0.0101056 0)
(-0.00163377 -0.0131337 0)
(-0.00401154 -0.0141694 0)
(-0.00150364 -0.0170539 0)
(-0.0017558 -0.0176204 0)
(-0.000946382 -0.0156279 0)
(-0.000774809 -0.0140777 0)
(-0.000513666 -0.0144145 0)
(0.00051286 -0.016741 0)
(-0.000433696 -0.0101196 0)
(0.00217788 0.000747645 0)
(-0.00127856 -0.000500586 0)
(-0.00234254 -0.0025909 0)
(-0.00339172 -0.00365239 0)
(-0.00549643 -0.00180391 0)
(-0.00467924 -0.00332577 0)
(-0.00528831 0.000213226 0)
(-0.00619579 -0.0016745 0)
(-0.00679491 0.00105705 0)
(-0.00498293 0.000187069 0)
(-0.0021193 -0.000614913 0)
(-0.00370436 -0.00112835 0)
(-0.00239638 -0.00125711 0)
(-0.00193378 -0.00154202 0)
(-0.000964518 -0.00140054 0)
(0.000390835 -0.00349608 0)
(0.00126215 -0.00481868 0)
(-0.00115536 -0.005166 0)
(0.00260638 -0.00654404 0)
(-0.000983456 -0.00324181 0)
(4.82857e-05 -0.00388844 0)
(0.00068647 -0.00414405 0)
(0.00150106 -0.00643812 0)
(0.00121726 -0.0115496 0)
(0.00125953 -0.0108797 0)
(0.0019649 -0.0153182 0)
(0.000850866 -0.0177677 0)
(0.00256234 -0.015041 0)
(-0.000271355 -0.0153934 0)
(0.00385084 -0.0146622 0)
(-0.00133207 -0.0118204 0)
(0.000752101 -0.0134042 0)
(0.00145658 -0.0113268 0)
(-0.000645297 -0.0120761 0)
(-0.000706098 -0.0132712 0)
(-0.000681862 -0.0125584 0)
(0.000237725 -0.0148457 0)
(0.000736728 -0.0123799 0)
(0.000141248 -0.0109573 0)
(-0.000873014 -0.00937694 0)
(0.000668952 -0.00655398 0)
(-0.000115126 -0.00695438 0)
(-0.000225697 -0.00764663 0)
(0.00040491 -0.00884292 0)
(0.000303433 -0.00893365 0)
(-0.000416687 -0.00460229 0)
(0.00156942 -0.00135078 0)
(0.00150995 -0.00713046 0)
(-0.00199454 -0.00979309 0)
(0.00125587 -0.00499419 0)
(1.57602e-05 -0.00339958 0)
(-0.000713352 -0.00924312 0)
(-0.000377664 -0.0111218 0)
(-0.000548906 -0.0106651 0)
(0.0012822 -0.00741239 0)
(0.00137019 -0.00874183 0)
(0.000497013 -0.0101315 0)
(0.00108088 -0.010707 0)
(0.00034928 -0.00272489 0)
(-1.85991e-06 -0.00269606 0)
(0.00165033 -0.00712399 0)
(0.000856615 -0.00603258 0)
(0.00257739 -0.00839695 0)
(0.00196755 -0.00884089 0)
(0.0020651 -0.0102098 0)
(-0.000462548 -0.0118634 0)
(0.00147697 -0.0127335 0)
(-0.000230899 -0.014316 0)
(-0.00126829 -0.0175583 0)
(-0.00319515 -0.0220499 0)
(-0.00230697 -0.0231464 0)
(-0.00131062 -0.0239168 0)
(0.0012656 -0.0220195 0)
(0.00306221 -0.0200044 0)
(0.00648298 -0.013449 0)
(0.00760916 0.00404415 0)
(-0.00224388 -0.00560558 0)
(-0.000419282 -0.00300037 0)
(-0.00682567 -0.00413803 0)
(-0.00516012 -0.00210614 0)
(-0.00460139 -0.000950393 0)
(-0.00624621 -0.00131479 0)
(-0.00446527 -0.00821969 0)
(-0.000511266 -0.0080893 0)
(-0.00064418 -0.00751077 0)
(-0.00223163 -0.012259 0)
(-0.00219363 -0.0132889 0)
(-0.00177385 -0.0116794 0)
(-0.00458293 -0.0123833 0)
(0.00136525 -0.0132034 0)
(0.00112125 -0.0126365 0)
(0.000227619 -0.0156025 0)
(-0.00338982 -0.0128159 0)
(-0.00195412 -0.0104862 0)
(-0.00327381 -0.0152554 0)
(0.00412975 -0.0110755 0)
(0.00329387 -0.0132569 0)
(0.00187183 -0.0161529 0)
(0.00546713 -0.0164826 0)
(0.00395883 -0.014884 0)
(0.00210628 -0.0134553 0)
(2.47744e-05 -0.0140725 0)
(-0.000164736 -0.0141952 0)
(-0.000354725 -0.0103412 0)
(0.00155832 -0.010099 0)
(-0.00110629 -0.00989318 0)
(-0.00192377 -0.00642436 0)
(-0.00164565 -0.00638096 0)
(0.00186588 -0.00768398 0)
(0.000673743 -0.0114157 0)
(-0.00213486 -0.0111896 0)
(0.000972614 -0.0116466 0)
(0.000609802 -0.00934398 0)
(-0.000173233 -0.00945202 0)
(0.00179949 -0.00877149 0)
(8.17799e-05 -0.00752308 0)
(0.00115877 -0.0102169 0)
(-0.000211599 -0.00897815 0)
(0.000868805 -0.00953741 0)
(0.00165628 -0.00692428 0)
(0.00315536 -0.00492071 0)
(-0.00255843 -0.0058006 0)
(-0.000246891 -0.00787168 0)
(-0.000554982 -0.00773644 0)
(0.00255522 -0.00790249 0)
(-0.00300617 -0.00694197 0)
(-0.00195301 -0.00823986 0)
(-0.00199733 -0.00889303 0)
(-0.000780698 -0.00955002 0)
(-0.000758066 -0.00612689 0)
(0.00259716 -0.00661303 0)
(0.000153617 -0.0080849 0)
(0.00213614 -0.0061271 0)
(0.000733525 -0.00579788 0)
(-0.0047385 -0.000754347 0)
(0.00219787 -0.00339804 0)
(0.00187667 -0.00415633 0)
(0.00138683 -0.00391779 0)
(0.000355233 -0.00500226 0)
(0.00306497 -0.00289387 0)
(0.00259734 -0.0055231 0)
(0.00172983 -0.00357143 0)
(0.00162558 -0.00449131 0)
(0.0016707 -0.00796425 0)
(-0.00108624 -0.0130658 0)
(-0.00263535 -0.0176312 0)
(-0.00331709 -0.0179431 0)
(0.0036254 -0.0191522 0)
(0.000856777 -0.0235981 0)
(0.0161575 -0.0216357 0)
(0.00701502 -0.0102465 0)
(-0.00835944 -0.0174079 0)
(-0.00266529 -0.00406467 0)
(-0.00656088 -0.0109308 0)
(-0.00924578 -0.00523935 0)
(-0.00260977 -0.00974582 0)
(-0.00474598 -0.0135361 0)
(-0.00468951 -0.0126371 0)
(0.000991002 -0.0104766 0)
(0.00091486 -0.0152072 0)
(-0.00107695 -0.0143072 0)
(0.000818728 -0.0122696 0)
(-0.00256611 -0.0165939 0)
(-0.00266981 -0.0108976 0)
(0.000587863 -0.00776326 0)
(-0.0010898 -0.0139047 0)
(-0.00221875 -0.0159946 0)
(0.00286308 -0.0149374 0)
(0.000262543 -0.014503 0)
(0.00242959 -0.0100514 0)
(0.00148193 -0.0101968 0)
(0.00124711 -0.0162705 0)
(0.000405796 -0.0129892 0)
(-0.00153106 -0.0119649 0)
(0.000187288 -0.0115093 0)
(0.00208423 -0.0109513 0)
(0.000452114 -0.0103951 0)
(0.000212781 -0.00822983 0)
(0.00131033 -0.00980521 0)
(-0.00115556 -0.0129456 0)
(0.00147935 -0.0139495 0)
(-0.000910803 -0.0116715 0)
(-0.000195277 -0.00544421 0)
(0.000122187 -0.00688577 0)
(-0.00041179 -0.0129929 0)
(0.000620293 -0.0076995 0)
(-0.00122883 -0.00801309 0)
(0.000828222 -0.00949683 0)
(-0.00188405 -0.00930867 0)
(9.80728e-05 -0.00946693 0)
(-0.00126035 -0.00730748 0)
(-0.000386506 -0.00741811 0)
(-6.91988e-06 -0.00935588 0)
(-0.000271087 -0.00861339 0)
(-0.00146875 -0.00826995 0)
(0.00256966 -0.00937368 0)
(0.00150462 -0.00656922 0)
(0.00141749 -0.00600684 0)
(-7.63489e-05 -0.00982683 0)
(-0.000383558 -0.00972569 0)
(-0.000106308 -0.0076297 0)
(0.000213297 -0.0077539 0)
(-0.0026412 -0.00946705 0)
(-0.0043938 -0.00870311 0)
(-0.000234662 -0.00255826 0)
(0.00325823 -0.00564176 0)
(0.00163123 -0.00895385 0)
(0.000524723 -0.00710478 0)
(-0.000278754 -0.0095693 0)
(0.000440836 -0.00304744 0)
(-0.00224172 -0.00349653 0)
(0.00219362 -0.0102104 0)
(-0.00106452 -0.0102849 0)
(0.00220405 -0.00613952 0)
(0.000739192 -0.00501495 0)
(0.00155363 -0.00762691 0)
(0.00396641 -0.00658948 0)
(0.00333641 -0.00479961 0)
(0.00474548 -0.00465166 0)
(0.00596993 -0.00731007 0)
(0.00487458 -0.00682763 0)
(0.00320554 -0.00110323 0)
(0.00261943 -0.0040944 0)
(-0.000158987 -0.00956836 0)
(-0.00585609 -0.0193476 0)
(-0.00128885 -0.0183463 0)
(-0.00196819 -0.0217736 0)
(-0.00124909 0.000574529 0)
(-0.00159311 -0.00980239 0)
(-0.00354756 -0.00489044 0)
(-0.00099864 -0.00816244 0)
(-0.00174893 -0.0176427 0)
(-0.00257383 -0.0117316 0)
(-0.00475068 -0.0057218 0)
(-0.000533084 -0.0105993 0)
(0.000543466 -0.0124904 0)
(-0.00221162 -0.0140532 0)
(-0.00387687 -0.013637 0)
(0.00452382 -0.00931027 0)
(-0.000318743 -0.0112386 0)
(-0.00175152 -0.01712 0)
(-0.00168592 -0.0166724 0)
(0.00089559 -0.0166854 0)
(0.00037726 -0.0170675 0)
(0.000954098 -0.0136636 0)
(-0.00520149 -0.0101574 0)
(0.0027674 -0.00907078 0)
(0.00295342 -0.0112661 0)
(0.000480918 -0.0119318 0)
(0.00110604 -0.0083704 0)
(-0.000224167 -0.00844102 0)
(0.00198763 -0.00860006 0)
(0.00144006 -0.00639165 0)
(0.000200116 -0.00670087 0)
(-0.000404448 -0.00838965 0)
(0.00121755 -0.00811567 0)
(-6.70927e-06 -0.00636461 0)
(0.00164955 -0.00306058 0)
(-0.00499398 -0.00468637 0)
(-0.00178642 -0.00676983 0)
(-0.00037255 -0.00648504 0)
(-0.00222565 -0.00558717 0)
(-0.00039763 -0.00624995 0)
(-0.000685253 -0.00843654 0)
(0.000225235 -0.00560552 0)
(0.000865414 -0.00639797 0)
(0.000695382 -0.00854623 0)
(0.00113991 -0.00953585 0)
(0.000791692 -0.0113016 0)
(-0.00182033 -0.00752691 0)
(0.00298339 -0.0063094 0)
(0.00361868 -0.00900414 0)
(-0.00214016 -0.00987396 0)
(-0.000512267 -0.00929693 0)
(-0.000320443 -0.00723285 0)
(-0.000190622 -0.0083303 0)
(-0.00152309 -0.0122389 0)
(-0.00246711 -0.0149675 0)
(-0.00166049 -0.00918677 0)
(0.000525703 -0.000776574 0)
(-0.000476029 -0.00880364 0)
(7.04591e-05 -0.0131511 0)
(0.000603339 -0.00991653 0)
(0.00232912 -0.00706287 0)
(0.00305262 -0.00429189 0)
(-0.00164226 -0.00353347 0)
(-0.00168308 -0.00507144 0)
(-0.00119393 -0.00747462 0)
(0.00379617 -0.00607185 0)
(-0.000188999 -0.00624839 0)
(0.00213191 -0.0034677 0)
(0.00329401 -0.00317375 0)
(0.00250246 -0.00426361 0)
(0.0015698 -0.000648284 0)
(0.00284939 0.00179428 0)
(0.00342968 0.00551728 0)
(0.00416928 0.00810226 0)
(-0.000371693 0.0099233 0)
(0.00192609 0.00882547 0)
(-0.00612647 -0.0136646 0)
(-0.0145738 -0.0111855 0)
(0.00258684 -0.0166279 0)
(-0.000849301 -0.00577721 0)
(3.02062e-06 -0.0123083 0)
(0.00280201 -0.00444921 0)
(-0.00274367 -0.00644253 0)
(-0.00125166 -0.00979545 0)
(0.00018491 -0.00759944 0)
(-0.00295603 -0.000305236 0)
(-0.00278771 -0.00500469 0)
(-0.00202959 -0.0122124 0)
(-0.00163217 -0.0128094 0)
(8.95896e-05 -0.0063668 0)
(0.000759062 -0.00433896 0)
(-0.00219095 -0.0116118 0)
(-0.00240063 -0.0121157 0)
(0.00183468 -0.0105565 0)
(-0.000948129 -0.010656 0)
(0.000920595 -0.0107587 0)
(0.00202206 -0.0119275 0)
(0.000436238 -0.00372282 0)
(0.000196083 -0.00423563 0)
(-0.00244884 -0.00950789 0)
(-0.00091543 -0.00540936 0)
(-0.00169386 -0.00301701 0)
(-0.00141522 -0.00156805 0)
(-0.00174261 0.000392241 0)
(-0.00124465 0.00220479 0)
(7.50815e-05 0.0034587 0)
(-0.000353825 0.00384138 0)
(0.000496582 0.002995 0)
(0.00135795 0.00277725 0)
(0.000315699 0.00240343 0)
(-0.000915628 -0.0013414 0)
(-0.00139186 -0.00145474 0)
(-0.000177036 -0.00118967 0)
(-0.000599994 -0.00247211 0)
(-0.000495812 -0.00180373 0)
(4.14704e-05 -0.00216422 0)
(0.00150648 -0.00248875 0)
(0.00141515 -0.00238836 0)
(0.00117115 -0.00289455 0)
(-0.000266961 -0.00325145 0)
(-0.000100996 -0.00676698 0)
(0.00085886 -0.000136635 0)
(0.000111944 2.17122e-05 0)
(-0.00132466 -0.00760756 0)
(0.000337021 -0.0062326 0)
(0.00149741 -0.0056224 0)
(0.00212031 -0.0083972 0)
(0.000600438 -0.00879076 0)
(0.00139443 -0.00980118 0)
(0.0024842 -0.0109794 0)
(0.00354884 -0.00853651 0)
(-0.000180611 -0.00556905 0)
(-0.00557053 -0.0107192 0)
(-0.00286239 -0.0127475 0)
(-0.00367721 -0.0103165 0)
(0.000488145 -0.0100403 0)
(-0.00233396 -0.00829866 0)
(0.000525119 -0.00839084 0)
(-0.00207727 -0.00876875 0)
(-0.00118826 -0.00640921 0)
(0.00149239 -0.0064654 0)
(0.000568583 -0.00677937 0)
(0.00256059 -0.0047692 0)
(2.09868e-05 -0.00627864 0)
(0.000413415 -0.00378414 0)
(-0.00138354 -0.00283525 0)
(0.000429474 -0.00407202 0)
(0.0013374 -0.00301812 0)
(0.00182303 -0.000824214 0)
(0.00197135 0.0002126 0)
(-0.00036701 -0.00136129 0)
(-0.00601851 -0.0174172 0)
(-0.000692999 -0.00370094 0)
(-0.00156222 -0.0124563 0)
(-0.00292587 -0.00513617 0)
(0.000720643 -0.00930963 0)
(0.000470057 -0.00405738 0)
(-0.00284599 -0.0048965 0)
(-0.000967123 -0.00429653 0)
(0.000644088 -0.00476777 0)
(-0.000410756 -0.000383395 0)
(-0.00393974 -0.00326602 0)
(-0.00197996 -0.00579541 0)
(0.00154077 -0.00651491 0)
(0.00247922 -0.0045727 0)
(-0.00185438 -0.00502487 0)
(-0.00358266 -0.00753871 0)
(-0.00128805 -0.00729166 0)
(0.00020247 -0.0088163 0)
(-0.000370879 -0.00900242 0)
(-0.00281309 -0.00564588 0)
(0.00391263 -0.00706071 0)
(0.00300168 -0.00520253 0)
(-0.00453374 -0.00428831 0)
(-0.00531446 -0.00429996 0)
(-0.00314059 -0.00470802 0)
(-0.00323176 -0.00107743 0)