/*--------------------------------*- C++ -*----------------------------------*\
  =========                 |
  \\      /  F ield         | OpenFOAM: The Open Source CFD Toolbox
   \\    /   O peration     | Website:  https://openfoam.org
    \\  /    A nd           | Version:  12
     \\/     M anipulation  |
\*---------------------------------------------------------------------------*/
FoamFile
{
    format      ascii;
    class       volScalarField::Internal;
    location    "0.4";
    object      cloud:UCoeff;
}
// * * * * * * * * * * * * * * * * * * * * * * * * * * * * * * * * * * * * * //

dimensions      [1 0 0 0 0 0 0];

value           nonuniform List<scalar> 
3750
(
6.19091e-08
1.50418e-07
8.53722e-09
4.58087e-08
6.6379e-08
2.01254e-08
2.72188e-08
6.14736e-08
6.09594e-08
6.0955e-08
6.07086e-08
1.42556e-07
5.93255e-08
5.72946e-08
6.14219e-08
6.16308e-08
1.47041e-07
5.79912e-08
6.23467e-08
1.47938e-07
6.26288e-08
4.77678e-09
1.34238e-07
5.99955e-08
2.45434e-08
4.31754e-08
1.18314e-07
6.20616e-08
5.98359e-08
6.06052e-08
6.11017e-08
6.21553e-08
6.08351e-08
6.06106e-08
6.15534e-08
0
7.61103e-08
9.96005e-08
2.3089e-08
4.38129e-08
1.43007e-07
5.81999e-08
6.11248e-08
0
1.45848e-07
6.06575e-08
0
1.42392e-07
6.058e-08
6.29544e-08
1.47469e-07
6.1547e-08
6.10059e-08
6.10266e-08
6.13665e-08
1.79033e-08
3.14697e-08
6.14202e-08
6.06314e-08
6.07946e-08
6.51388e-08
6.51306e-08
0
0
0
0
0
0
0
0
0
0
0
0
0
6.11219e-08
1.50454e-07
6.04675e-08
1.54319e-07
6.41634e-08
6.33372e-08
0
6.11888e-08
0
6.08046e-08
6.21337e-08
5.87979e-08
1.46621e-07
5.97336e-08
0
0
5.69058e-08
5.81343e-08
5.95955e-08
6.231e-08
1.50083e-07
1.47329e-07
1.45666e-07
5.87892e-08
5.97724e-08
6.17986e-08
0
0
6.05267e-08
6.02441e-08
6.06144e-08
6.13192e-08
6.33789e-08
2.72959e-10
2.45102e-07
5.66345e-08
0
0
5.98909e-08
1.42437e-07
1.41159e-07
1.38709e-07
5.95111e-08
6.05102e-08
1.6886e-08
3.05763e-08
0
5.8977e-08
5.99183e-08
5.94517e-08
1.95866e-08
2.2743e-08
5.94053e-08
6.02365e-08
5.87656e-08
1.51731e-07
0
0
0
0
0
0
0
0
0
0
0
0
0
0
0
0
0
0
0
6.00523e-08
6.11251e-08
6.19293e-08
6.26099e-08
6.33286e-08
6.15121e-08
6.18484e-08
6.41319e-08
5.74501e-08
6.12719e-08
1.42599e-07
5.93135e-08
0
5.9845e-08
5.914e-08
1.41223e-07
5.68889e-08
5.85187e-08
6.09884e-08
6.14957e-08
6.3502e-08
6.55047e-08
6.34947e-08
8.45761e-09
4.59437e-08
6.16446e-08
6.13361e-08
6.15303e-08
6.18792e-08
6.19407e-08
6.05422e-08
6.09622e-08
1.52816e-07
5.93308e-08
7.11224e-08
1.27007e-07
5.87459e-08
5.94231e-08
5.98351e-08
6.25857e-08
5.86157e-08
5.86587e-08
6.37597e-08
0
6.26797e-08
6.2986e-08
6.26662e-08
6.11936e-08
6.04669e-08
5.93219e-08
1.40382e-07
1.48479e-07
6.02528e-08
5.82954e-08
0
1.45586e-07
0
0
0
0
0
0
0
0
0
0
0
0
0
0
0
0
0
0
0
5.9821e-08
6.16363e-08
6.22121e-08
6.18718e-08
5.74042e-08
1.46219e-07
6.05917e-08
6.18209e-08
6.15429e-08
6.22571e-08
6.11301e-08
0
6.00432e-08
6.2041e-08
6.17366e-08
5.99252e-08
6.12129e-08
7.40885e-09
4.86792e-08
5.98223e-08
6.0388e-08
6.04333e-08
6.67372e-08
3.04493e-08
9.14888e-09
6.19055e-08
6.17563e-08
6.08403e-08
6.07874e-08
7.29512e-08
1.28467e-07
1.47921e-07
6.16842e-08
5.94083e-08
5.94968e-08
5.98603e-08
6.08934e-08
6.05018e-08
6.141e-08
6.14326e-08
5.74848e-08
5.81714e-08
6.18601e-08
6.19003e-08
6.38354e-08
6.43885e-08
1.60546e-08
5.18755e-08
7.79248e-08
5.85984e-08
9.78706e-08
5.64985e-08
1.4743e-07
5.71639e-08
0
0
0
0
0
0
0
0
0
0
0
0
0
0
0
0
0
0
0
0
0
5.9417e-08
6.08361e-08
1.45667e-07
6.09482e-08
6.1125e-08
6.18433e-08
6.31822e-08
0
6.22731e-08
6.16646e-08
0
5.92166e-08
5.95299e-08
6.36308e-08
6.07511e-08
5.85471e-08
5.90907e-08
6.14798e-08
0
5.98006e-08
6.1435e-08
6.1789e-08
6.59542e-08
6.51458e-08
6.2955e-08
6.15157e-08
5.89502e-08
5.84009e-08
5.93468e-08
1.49257e-07
5.85985e-08
5.95776e-08
7.10945e-09
4.74428e-08
6.1347e-08
6.21349e-08
6.21263e-08
6.24723e-08
6.1891e-08
6.19686e-08
6.14351e-08
5.97871e-08
6.10472e-08
6.04174e-08
8.89888e-08
1.20363e-07
5.96975e-08
5.9084e-08
0
0
2.57114e-08
8.512e-08
5.96383e-08
6.03833e-08
5.84168e-08
0
0
0
0
0
0
0
0
0
0
0
0
0
0
0
0
0
0
0
0
1.0969e-07
5.96032e-08
6.14433e-08
1.01745e-07
9.83463e-08
9.78783e-09
4.43556e-08
6.29951e-08
6.36472e-08
0
6.12047e-08
6.02143e-08
6.17122e-08
0
6.24509e-08
6.25338e-08
6.26734e-08
6.12842e-08
6.06089e-08
6.04405e-08
6.02444e-08
6.2187e-08
6.654e-08
6.23588e-08
6.21202e-08
6.18333e-08
6.07729e-08
1.47817e-07
5.90163e-08
5.87888e-08
5.88933e-08
5.9531e-08
6.14004e-08
6.1451e-08
6.48785e-08
6.18165e-08
2.77492e-08
6.86525e-08
7.94059e-08
6.30762e-08
2.70275e-08
3.6792e-08
9.14262e-08
6.1281e-08
8.31464e-08
6.2475e-08
5.90765e-08
5.8282e-08
1.21348e-08
1.15747e-07
1.44729e-07
0
0
6.14905e-08
6.06098e-08
0
0
0
0
0
0
0
0
0
0
0
0
0
0
0
0
0
0
0
0
6.02805e-08
6.22231e-08
6.24471e-08
6.10072e-08
6.27007e-08
6.26726e-08
6.12058e-08
6.10225e-08
6.27181e-08
6.51507e-08
0
5.88126e-08
6.08853e-08
6.17907e-08
6.53188e-08
6.56366e-08
6.37698e-08
5.94406e-08
5.71679e-08
5.8765e-08
5.94303e-08
1.48231e-07
6.20918e-08
9.8084e-08
5.7222e-08
2.76023e-08
6.18087e-08
6.16866e-08
6.1136e-08
6.08069e-08
6.1077e-08
6.03039e-08
6.19493e-08
6.30809e-08
6.11551e-08
6.0974e-08
6.20079e-08
6.09064e-08
6.10159e-08
6.05798e-08
6.20158e-08
6.17047e-08
6.20398e-08
6.19431e-08
6.17678e-08
6.04314e-08
6.19714e-08
1.00723e-07
4.89676e-08
7.12499e-08
8.89719e-08
5.97857e-08
6.05921e-08
6.04432e-08
6.05657e-08
0
0
0
0
0
0
0
0
0
0
0
0
0
0
0
0
0
0
0
0
6.21716e-08
6.25298e-08
6.38141e-08
0
6.14261e-08
6.15017e-08
6.19773e-08
6.16306e-08
8.77823e-08
8.37795e-08
1.24454e-08
6.14965e-08
1.46753e-07
6.02971e-08
5.9826e-08
2.19283e-08
1.10783e-07
6.0803e-08
5.77274e-08
1.41585e-07
5.73461e-08
1.48044e-07
6.03517e-08
6.149e-08
6.19585e-08
6.45186e-08
0
5.96259e-08
6.13955e-08
6.15701e-08
6.09732e-08
1.82823e-08
1.09307e-07
6.30004e-08
5.95366e-08
5.85627e-08
6.05827e-08
6.0514e-08
6.04661e-08
6.10241e-08
0
6.24147e-08
6.15978e-08
6.1984e-08
6.3009e-08
6.04559e-08
5.99398e-08
6.00321e-08
5.98086e-08
5.97167e-08
5.99699e-08
5.93554e-08
1.45183e-07
9.59638e-08
4.84147e-08
3.42529e-08
0
0
0
0
0
0
0
0
0
0
0
0
0
0
0
0
0
0
0
6.50468e-08
0
6.10087e-08
6.10025e-08
6.06751e-08
6.19142e-08
1.52897e-07
6.02877e-08
5.96478e-08
6.02438e-08
5.91152e-08
1.47596e-07
6.00579e-08
7.20009e-08
1.29197e-07
5.90357e-08
0
6.42397e-08
9.76235e-08
1.02535e-07
8.54374e-08
1.13664e-07
6.12875e-08
2.76069e-08
1.13875e-08
6.30574e-08
6.30258e-08
2.3206e-09
5.63484e-08
6.15013e-08
6.23467e-08
6.0197e-08
6.16886e-08
6.11359e-08
6.1227e-08
6.4876e-08
7.43909e-08
4.11651e-08
5.82497e-08
6.1117e-08
6.13689e-08
6.14964e-08
6.13147e-08
6.17645e-08
6.30174e-08
0
6.05925e-08
6.1302e-08
6.07824e-08
6.15137e-08
6.25119e-08
6.29556e-08
0
1.04099e-07
5.34149e-08
1.91523e-08
0
0
0
0
0
0
0
0
0
0
0
0
0
0
0
0
0
0
0
6.56243e-08
6.02943e-08
1.87505e-08
2.56338e-08
6.30175e-08
6.24511e-08
1.53626e-07
5.96752e-08
5.98176e-08
5.72486e-08
1.43078e-07
5.89144e-08
1.50161e-07
5.93951e-08
5.92348e-08
1.46453e-07
6.33478e-08
6.35397e-08
6.33629e-08
1.87192e-08
1.05583e-07
6.14569e-08
6.26602e-08
0
6.16735e-08
6.21816e-08
6.11452e-08
0
6.05907e-08
6.12641e-08
6.50988e-08
0
6.12203e-08
6.19431e-08
1.45442e-07
5.99163e-08
9.43628e-08
1.03094e-07
5.85327e-08
1.20341e-08
3.94612e-08
6.13089e-08
6.08277e-08
2.61695e-08
2.21492e-08
5.75937e-08
6.07971e-08
3.42083e-08
6.58752e-10
6.14711e-08
6.33437e-08
0
1.49284e-07
5.9225e-08
6.01232e-08
6.13061e-08
0
0
0
0
0
0
0
0
0
0
0
0
0
0
0
0
0
0
0
6.3697e-08
0
5.75332e-08
6.0088e-08
6.23653e-08
6.55396e-08
0
1.52653e-07
5.86981e-08
5.81723e-08
6.02543e-08
1.48347e-07
5.91965e-08
1.48497e-07
1.0077e-07
9.21684e-08
5.99842e-08
6.2769e-08
6.23969e-08
6.33187e-08
6.1378e-08
4.56724e-09
6.09102e-08
1.40291e-07
5.9583e-08
5.92048e-08
5.6785e-08
5.42288e-08
5.75464e-08
5.92793e-08
6.47025e-08
0
6.135e-08
6.37069e-08
6.98158e-10
5.92093e-08
1.54155e-07
5.96454e-08
5.78552e-08
5.72843e-08
1.49753e-07
6.21602e-08
0
6.12448e-08
6.2691e-08
6.21192e-08
6.13941e-08
8.40839e-09
4.6878e-08
6.19015e-08
0
6.21232e-08
6.02844e-08
6.02901e-08
6.47223e-08
9.71806e-09
6.39484e-08
4.14387e-08
0
0
0
0
0
0
0
0
0
0
0
0
0
0
0
0
0
6.24434e-08
0
1.43566e-07
1.4306e-07
6.39391e-08
0
6.34046e-08
6.22323e-08
6.18528e-08
6.12635e-08
6.05346e-08
6.16311e-08
6.20603e-08
6.23863e-08
6.14389e-08
1.43541e-07
6.11659e-08
6.29097e-08
1.21151e-07
7.74643e-08
6.06391e-08
6.29759e-08
0
1.41361e-08
3.39215e-08
6.09749e-08
1.52415e-07
6.01733e-08
5.77766e-08
6.0357e-08
0
6.32427e-08
6.21166e-08
6.13941e-08
6.13904e-08
6.37552e-08
6.39047e-08
6.29109e-08
5.76727e-08
5.78883e-08
5.95411e-08
6.06585e-08
6.20507e-08
6.18201e-08
6.20797e-08
6.15031e-08
7.20607e-08
1.03171e-07
3.54821e-09
6.12454e-08
0
1.44901e-07
5.87535e-08
6.04327e-08
6.01505e-08
6.10545e-08
6.08947e-08
0
0
0
0
0
0
0
0
0
0
0
0
0
0
0
0
0
0
6.47981e-08
0
5.93457e-08
5.84221e-08
0
6.17985e-08
6.12332e-08
6.10307e-08
6.12762e-08
0
0
0
0
0
0
0
1.55122e-07
0
0
6.23404e-08
6.43569e-08
6.25446e-08
6.30991e-08
6.27139e-08
6.20952e-08
5.92664e-08
5.74923e-08
1.43052e-07
5.77602e-08
5.80064e-08
5.87781e-08
6.21004e-08
6.2502e-08
6.06004e-08
5.9791e-08
6.02782e-08
6.28079e-08
6.35041e-08
5.98453e-08
5.79874e-08
5.97027e-08
6.23103e-08
6.24112e-08
6.2083e-08
6.06179e-08
6.24444e-08
0
0
6.11351e-08
6.11346e-08
1.44674e-07
5.82999e-08
1.43276e-07
5.95891e-08
5.96993e-08
6.02833e-08
0
0
0
0
0
0
0
0
0
0
0
0
0
0
0
0
0
0
0
6.08675e-08
6.20845e-08
6.11679e-08
5.90968e-08
6.06966e-08
6.10846e-08
6.1495e-08
6.07011e-08
6.12862e-08
6.09472e-08
6.03282e-08
6.02142e-08
6.15651e-08
6.29318e-08
5.4869e-09
7.79242e-08
6.2985e-08
5.66309e-08
6.14105e-08
6.24434e-08
6.33687e-08
6.37726e-08
6.19141e-08
6.07339e-08
5.94499e-08
5.9526e-08
1.43206e-07
5.91356e-08
1.07162e-07
8.03383e-08
5.80269e-08
6.40625e-08
6.01263e-08
5.87914e-08
5.98051e-08
5.92256e-08
6.25863e-08
6.23893e-08
6.06844e-08
5.82673e-08
6.50726e-08
6.49227e-08
6.32985e-08
6.01134e-08
5.94937e-08
6.13079e-08
6.12142e-08
6.1517e-08
0
0
0
6.1628e-08
6.16709e-08
7.15074e-08
5.04075e-08
0
0
0
0
0
0
0
0
0
0
0
0
0
0
0
0
0
0
0
0
5.92806e-08
6.38882e-08
8.9033e-08
1.14384e-07
6.12063e-08
0
6.07083e-08
6.1181e-08
6.15023e-08
0
1.44363e-07
5.83896e-08
6.01262e-08
1.49207e-07
5.93086e-08
1.11319e-07
6.05236e-08
6.27478e-08
3.24477e-08
8.01089e-08
6.35465e-08
6.18608e-08
6.11313e-08
5.9828e-08
6.20521e-08
6.24722e-08
4.45549e-09
1.39578e-07
5.87592e-08
5.71369e-08
5.9744e-08
6.22046e-08
6.18346e-08
7.72536e-08
1.25369e-07
6.01607e-08
2.74688e-08
1.09392e-08
6.13646e-08
6.16021e-08
6.19838e-08
6.30373e-08
6.27288e-08
6.15246e-08
6.00709e-08
1.50007e-07
5.95735e-08
5.97379e-08
8.96912e-08
1.06873e-07
1.42897e-07
5.78787e-08
6.11423e-08
0
0
0
0
0
0
0
0
0
0
0
0
0
0
0
0
0
0
0
0
0
0
6.05169e-08
6.10722e-08
6.18941e-08
6.26075e-08
6.23934e-08
6.31098e-08
6.16407e-08
6.06314e-08
6.00059e-08
6.05208e-08
0
1.42391e-07
1.43021e-07
6.01798e-08
6.09449e-08
6.15936e-08
6.13725e-08
6.14557e-08
6.13525e-08
7.64081e-08
1.31507e-07
6.58143e-08
0
6.11995e-08
6.18232e-08
0
6.13495e-08
6.21104e-08
6.13271e-08
5.98382e-08
6.03784e-08
5.99011e-08
1.44499e-07
5.83168e-08
1.45512e-07
5.86138e-08
6.23649e-08
0
6.13875e-08
6.11856e-08
6.20358e-08
6.24562e-08
6.16295e-08
6.1006e-08
6.06953e-08
1.49406e-07
6.10508e-08
1.42762e-07
5.77786e-08
8.35347e-08
1.12677e-07
5.83649e-08
6.0612e-08
0
0
0
0
0
0
0
0
0
0
0
0
0
0
0
0
0
0
0
0
0
0
6.02796e-08
6.07241e-08
6.17468e-08
6.19652e-08
6.25017e-08
6.21737e-08
8.92617e-08
1.16459e-07
6.09697e-08
0
6.08097e-08
6.10519e-08
6.08349e-08
6.04906e-08
0
6.14357e-08
6.25051e-08
6.15077e-08
1.47388e-07
6.1228e-08
5.34539e-09
5.60389e-08
6.31734e-08
6.19338e-08
6.1416e-08
6.35187e-08
0
6.06416e-08
6.01555e-08
5.85826e-08
6.00843e-08
1.01836e-07
9.09245e-08
6.07818e-08
6.03049e-08
5.99589e-08
6.19148e-08
6.22482e-08
6.16959e-08
6.08942e-08
6.47164e-08
2.9069e-08
5.20261e-08
9.89754e-08
5.99133e-08
5.88959e-08
1.49702e-07
5.83177e-08
1.40157e-07
5.78056e-08
5.90803e-08
5.99177e-08
6.05646e-08
6.13255e-08
0
0
0
0
0
0
0
0
0
0
0
0
0
0
0
0
0
0
0
0
0
6.11236e-08
6.04892e-08
9.27095e-08
6.49272e-08
9.93555e-08
1.54311e-07
6.14302e-08
5.86218e-08
5.98883e-08
6.05123e-08
6.1075e-08
6.04132e-08
6.01452e-08
5.98746e-08
6.17447e-08
6.41653e-08
0
6.26173e-08
6.12413e-08
6.07341e-08
6.17827e-08
6.80522e-08
0
6.24119e-08
6.01013e-08
6.07799e-08
6.13257e-08
6.06471e-08
6.02534e-08
6.08463e-08
6.09886e-08
6.15496e-08
6.08529e-08
6.32946e-08
6.08555e-08
3.01084e-08
7.43788e-08
1.51146e-07
5.8885e-08
5.93311e-08
5.97975e-08
6.01215e-08
6.09554e-08
6.15289e-08
0
6.07659e-08
6.19221e-08
6.09714e-08
6.13183e-08
6.61515e-08
1.38462e-07
5.94855e-08
5.99641e-08
6.0625e-08
0
0
0
0
0
0
0
0
0
0
0
0
0
0
0
0
0
0
0
0
0
6.01249e-08
6.02968e-08
6.05606e-08
1.46609e-07
5.99991e-08
1.53302e-07
5.95523e-08
6.00095e-08
8.96195e-08
1.09849e-07
3.26317e-08
7.31647e-08
5.9688e-08
0
6.05021e-08
6.1511e-08
6.52506e-08
1.06338e-08
4.38106e-08
6.07235e-08
6.26404e-08
6.49306e-08
6.52174e-08
6.27143e-08
1.50443e-07
5.89742e-08
5.95369e-08
6.16389e-08
1.96307e-08
2.45135e-08
6.12032e-08
0
6.0034e-08
6.19521e-08
6.18726e-08
0
6.32783e-08
6.08263e-08
6.00426e-08
8.36008e-08
1.13225e-07
5.8209e-08
6.00143e-08
5.89555e-08
1.42841e-07
2.5334e-07
5.84772e-08
5.97386e-08
6.0917e-08
6.14034e-08
6.06424e-08
6.00154e-08
1.48975e-07
0
0
0
0
0
0
0
0
0
0
0
0
0
0
0
0
0
0
0
0
0
0
1.10246e-07
7.98529e-08
5.83103e-08
1.51888e-07
6.08199e-08
7.5776e-08
1.30741e-07
5.96634e-08
1.50066e-07
5.86966e-08
5.86646e-08
6.04852e-08
3.45595e-09
5.38337e-08
6.00668e-08
6.16464e-08
6.30917e-08
2.06147e-08
2.35469e-08
1.01818e-07
1.0549e-07
6.76006e-08
6.45498e-08
5.97701e-08
5.89334e-08
5.94982e-08
6.07198e-08
3.14827e-08
3.4057e-09
6.13992e-08
6.25055e-08
0
6.32019e-08
6.17516e-08
6.15769e-08
6.05736e-08
1.51282e-07
5.88605e-08
5.82789e-08
6.39379e-08
1.39702e-07
5.86601e-08
6.03678e-08
6.08166e-08
6.20531e-08
6.24199e-08
6.12255e-08
6.14979e-08
6.46098e-08
5.98383e-08
6.84073e-08
1.33755e-07
5.90378e-08
0
0
0
0
0
0
0
0
0
0
0
0
0
0
0
0
0
0
0
0
0
0
5.80833e-08
5.8113e-08
6.09618e-08
1.48701e-07
6.32771e-08
6.21567e-08
6.34776e-08
1.41757e-07
5.95039e-08
8.25544e-08
1.14984e-07
5.81757e-08
6.07405e-08
6.06514e-08
9.66478e-09
4.25357e-08
6.05951e-08
6.19066e-08
6.07313e-08
5.88946e-08
6.79187e-08
3.65995e-08
3.80051e-08
5.10939e-08
9.48967e-08
8.09785e-08
8.69023e-09
4.37338e-08
6.00357e-08
6.04534e-08
6.24914e-08
6.67657e-08
6.49628e-08
0
6.10471e-08
1.15137e-07
7.84335e-08
5.84232e-08
7.63722e-08
1.24067e-07
5.82631e-08
5.98789e-08
6.06229e-08
6.15868e-08
6.23624e-08
1.46379e-08
3.49951e-08
6.08644e-08
6.3273e-08
0
0
0
8.05039e-08
1.1601e-07
5.80172e-08
0
0
0
0
0
0
0
0
0
0
0
0
0
0
0
0
0
0
0
0
5.77439e-08
5.80457e-08
6.03003e-08
6.53257e-08
6.40812e-08
6.06376e-08
5.92886e-08
5.86388e-08
5.93118e-08
1.51072e-07
5.91681e-08
5.77296e-08
5.8701e-08
5.9218e-08
6.01519e-08
6.0922e-08
6.17055e-08
6.19318e-08
6.06465e-08
6.21814e-08
6.85049e-08
0
6.47422e-08
9.42745e-08
7.74388e-08
6.2432e-08
1.4846e-08
5.90305e-08
6.01101e-08
5.90704e-08
1.0821e-07
9.14504e-08
6.11623e-08
6.06794e-08
6.09051e-08
6.07671e-08
6.03896e-08
6.03224e-08
6.00654e-08
6.17822e-08
6.23958e-08
6.03079e-08
6.07941e-08
0
5.99482e-08
5.93414e-08
6.10069e-08
6.26498e-08
6.51014e-08
0
6.09296e-08
1.44412e-07
5.93483e-08
5.99103e-08
6.07072e-08
6.10889e-08
6.09218e-08
0
0
0
0
0
0
0
0
0
0
0
0
0
0
0
0
0
0
5.87354e-08
4.95724e-08
0
0
0
0
0
0
6.74436e-08
6.27151e-08
1.51312e-07
5.8595e-08
5.86384e-08
5.90372e-08
0
5.91542e-08
1.50922e-07
5.89791e-08
5.85803e-08
6.04283e-08
6.66479e-08
6.61499e-08
6.45504e-08
2.82238e-09
5.56443e-08
6.14226e-08
6.03401e-08
1.48255e-07
9.50655e-08
9.49825e-08
5.84502e-08
6.1421e-08
6.21966e-08
6.24225e-08
6.48113e-08
0
6.11176e-08
5.99857e-08
6.03945e-08
6.40209e-08
0
6.19228e-08
6.18073e-08
6.10251e-08
6.01686e-08
1.84611e-08
2.72729e-08
6.08927e-08
6.22629e-08
6.27571e-08
6.13569e-08
0
6.25054e-08
6.31531e-08
6.25524e-08
6.17639e-08
6.04892e-08
0
0
0
0
0
0
0
0
0
0
0
0
0
0
0
0
0
0
5.85969e-08
6.09791e-08
6.02438e-08
6.12975e-08
6.23156e-08
6.26821e-08
6.16181e-08
6.16303e-08
0
0
6.15552e-08
6.22152e-08
6.08603e-08
6.15615e-08
6.06889e-08
5.93897e-08
6.1063e-08
6.0972e-08
6.01875e-08
5.95091e-08
8.27965e-08
1.28352e-07
6.35367e-08
6.05792e-08
5.9754e-08
1.49715e-07
1.4667e-07
5.75672e-08
5.91082e-08
2.60873e-08
1.27947e-08
6.20358e-08
6.31131e-08
6.14066e-08
6.36991e-08
0
2.95767e-08
5.9327e-09
6.037e-08
6.21373e-08
6.46863e-08
0
6.01991e-08
6.26728e-08
6.10459e-08
6.26944e-08
1.90323e-08
4.45223e-08
6.41976e-08
1.01106e-07
7.70023e-08
2.27952e-08
2.43251e-08
8.59156e-08
1.19277e-07
5.8816e-08
0
0
0
0
0
0
0
0
0
0
0
0
0
0
0
0
0
0
0
1.19471e-07
7.74781e-08
6.01021e-08
5.93927e-08
6.0664e-08
6.09594e-08
6.11505e-08
1.45888e-07
6.07507e-08
6.18907e-08
6.07821e-08
6.42382e-08
6.41596e-08
6.90655e-09
4.92897e-08
1.46789e-07
5.97822e-08
5.93777e-08
5.88321e-08
6.1668e-08
1.47883e-07
8.92407e-08
1.10307e-07
6.0029e-08
1.49879e-07
5.99893e-08
5.97425e-08
5.83145e-08
5.98119e-08
0
6.22001e-08
6.12831e-08
0
5.91627e-08
6.04223e-08
6.18391e-08
6.16944e-08
2.41297e-08
1.51276e-08
6.16457e-08
2.87878e-08
1.30693e-08
6.1899e-08
6.22691e-08
6.25564e-08
1.36413e-08
8.16141e-08
9.09702e-08
6.11902e-08
6.3214e-08
6.33299e-08
5.95846e-08
5.92311e-08
1.48612e-07
5.85051e-08
0
0
0
0
0
0
0
0
0
0
0
0
0
0
0
0
0
0
0
0
0
0
6.26474e-08
1.53532e-07
6.06934e-08
6.0357e-08
0
5.85468e-08
1.44244e-07
6.02022e-08
1.1544e-07
1.02166e-08
5.71537e-08
6.34336e-08
6.16403e-08
5.82288e-08
5.93564e-08
5.91522e-08
5.94944e-08
6.2463e-08
7.88301e-08
1.27294e-07
6.06046e-08
2.44102e-07
1.15656e-07
7.5229e-08
1.1162e-08
3.95089e-08
6.01115e-08
6.08407e-08
6.16681e-08
1.4222e-07
5.88698e-08
1.4744e-07
5.93036e-08
1.42031e-07
6.04305e-08
6.13226e-08
6.06015e-08
6.2427e-08
6.54543e-08
0
6.01282e-08
1.53509e-07
5.97447e-08
5.69357e-08
5.79207e-08
7.84528e-08
9.15638e-08
8.87809e-08
6.33614e-08
2.24878e-08
1.93838e-08
5.97217e-08
6.13473e-08
0
0
0
0
0
0
0
0
0
0
0
0
0
0
0
0
0
0
0
0
1.10275e-07
9.45451e-08
0
0
6.19084e-08
6.28805e-08
1.46224e-07
5.82886e-08
0
6.23658e-08
6.1484e-08
1.46465e-07
5.87619e-08
6.19597e-08
6.27193e-08
5.95316e-08
5.90781e-08
5.95539e-08
6.12315e-08
6.18567e-08
6.25917e-08
0
0
2.60605e-08
8.46421e-08
1.0423e-07
8.82013e-08
1.1127e-07
8.13945e-08
6.01994e-08
0
0
6.10988e-08
6.21403e-08
6.03067e-08
0
6.1536e-08
6.15876e-08
6.08002e-08
6.05696e-08
9.08845e-08
1.06412e-07
5.83709e-08
6.23225e-08
6.22062e-08
5.95164e-08
5.88598e-08
6.08526e-08
6.50159e-08
6.41115e-08
3.17281e-08
5.13385e-09
6.07745e-08
6.02843e-08
6.08904e-08
0
0
0
0
0
0
0
0
0
0
0
0
0
0
0
0
0
0
0
0
1.307e-07
6.30737e-08
6.13614e-08
6.03271e-08
1.12955e-09
8.21e-08
1.15592e-07
6.00214e-08
6.30911e-08
0
0
0
6.06638e-08
6.22183e-08
6.13047e-08
6.01925e-08
8.57137e-08
1.10224e-07
5.97155e-08
6.24112e-08
0
6.24375e-08
6.2447e-08
6.20749e-08
6.09944e-08
6.07657e-08
6.10094e-08
8.58444e-08
1.19781e-07
6.0427e-08
5.99272e-08
5.98698e-08
0
1.04986e-07
1.61146e-08
5.61575e-08
1.4999e-07
5.79428e-08
5.92196e-08
1.50841e-07
5.73581e-08
5.70826e-08
5.89885e-08
6.37643e-08
0
6.07776e-08
5.93821e-08
6.38389e-08
3.33591e-09
5.83139e-08
6.19999e-08
1.01893e-07
1.03656e-07
5.92933e-08
6.1946e-08
0
0
0
0
0
0
0
0
0
0
0
0
0
0
0
0
0
0
0
0
2.95823e-08
5.46417e-08
2.26917e-08
6.10765e-08
5.86395e-08
1.4179e-07
6.00777e-08
0
6.03908e-08
6.3308e-08
6.15519e-08
6.101e-08
6.04604e-08
1.48578e-07
5.91452e-08
5.97589e-08
5.9862e-08
5.81579e-08
1.47248e-07
6.31953e-08
6.53321e-08
0
6.19462e-08
6.35031e-08
1.00116e-07
1.61644e-08
5.97074e-08
6.31532e-08
6.27753e-08
1.66901e-08
3.02179e-08
5.81703e-08
1.44315e-07
5.79171e-08
6.107e-08
6.15769e-08
9.04039e-08
3.22548e-08
2.58343e-07
8.79532e-08
1.10196e-07
5.53598e-08
5.87026e-08
1.44024e-07
5.9913e-08
5.85838e-08
5.81937e-08
0
6.28593e-08
6.1835e-08
6.22453e-08
6.53046e-08
0
0
7.05528e-08
1.33896e-07
0
0
0
0
0
0
0
0
0
0
0
0
0
0
0
0
0
0
0
6.616e-08
6.48225e-08
0
1.39998e-07
1.44183e-07
6.55307e-08
5.53008e-08
5.97781e-08
6.09047e-08
6.22106e-08
6.71008e-08
6.21943e-08
5.46991e-08
5.99835e-08
7.98782e-08
1.25992e-07
5.91522e-08
5.80661e-08
5.90766e-08
6.0868e-08
6.07494e-08
1.51208e-07
5.91527e-08
5.80377e-08
5.98298e-08
2.60428e-08
1.41397e-08
6.30136e-08
2.44687e-08
1.84279e-08
1.43045e-07
1.40877e-07
0
6.10345e-08
6.11892e-08
1.10355e-07
1.03186e-08
2.32833e-08
7.12919e-08
8.53079e-08
5.95207e-08
5.77954e-08
0
0
6.06695e-08
6.13389e-08
6.27135e-08
6.37442e-08
0
6.10533e-08
6.06323e-08
6.25863e-08
0
1.47665e-07
6.15585e-08
9.23232e-08
2.98745e-08
0
0
0
0
0
0
0
0
0
0
0
0
0
0
0
0
0
0
6.37713e-08
6.52651e-08
5.67032e-08
0
1.48688e-07
5.9174e-08
5.8684e-08
5.99105e-08
6.12368e-08
6.10266e-08
6.06158e-08
6.06204e-08
6.02957e-08
6.10403e-08
6.0731e-08
6.14945e-08
6.15311e-08
6.06263e-08
0
1.45174e-07
5.95591e-08
6.17873e-08
6.27675e-08
6.0692e-08
0
6.05648e-08
6.14377e-08
6.26554e-08
6.14847e-08
5.93005e-08
0
0
1.41797e-07
7.01477e-08
1.29853e-07
6.03848e-08
6.09842e-08
1.45421e-07
5.85555e-08
6.14883e-08
6.20547e-08
6.10599e-08
6.08153e-08
6.13874e-08
6.12986e-08
6.13933e-08
6.14146e-08
1.54971e-07
5.97069e-08
5.8402e-08
0
6.01435e-08
6.27392e-08
6.50873e-08
0
6.20841e-08
0
0
0
0
0
0
0
0
0
0
0
0
0
0
0
0
0
0
0
6.59786e-08
5.17777e-09
5.67472e-08
6.06989e-08
6.06869e-08
6.33551e-08
6.07778e-08
6.67296e-08
1.45805e-07
5.95833e-08
5.8841e-08
1.44961e-07
6.00311e-08
5.96985e-08
7.10911e-08
4.70169e-08
6.07167e-08
6.16934e-08
8.93364e-08
3.07576e-08
6.14415e-08
6.24868e-08
6.23338e-08
6.14436e-08
6.13774e-08
6.11964e-08
6.15652e-08
6.26272e-08
6.10671e-08
0
1.47787e-07
5.77395e-08
1.41542e-07
5.80213e-08
6.05375e-08
5.98886e-08
1.44333e-07
5.89872e-08
6.01642e-08
6.0577e-08
6.25467e-08
6.33599e-08
6.14416e-08
6.18317e-08
6.182e-08
6.13608e-08
6.09715e-08
6.10871e-08
6.05799e-08
7.455e-08
4.36667e-08
6.03429e-08
6.19465e-08
3.20094e-08
5.59731e-09
6.11102e-08
0
0
0
0
0
0
0
0
0
0
0
0
0
0
0
0
0
0
0
6.16872e-08
3.62364e-08
3.49005e-10
1.45743e-07
6.08741e-08
6.34093e-08
0
0
0
1.46923e-07
5.89843e-08
1.50116e-07
5.98937e-08
5.83327e-08
5.97798e-08
0
6.29461e-08
6.30929e-08
0
6.12227e-08
6.09047e-08
5.95499e-08
0
6.16157e-08
6.25578e-08
2.69178e-08
6.17096e-08
9.07522e-08
5.93474e-08
1.4116e-07
1.42205e-07
8.85877e-08
1.07554e-07
6.02498e-08
5.96982e-08
6.1248e-08
5.99966e-08
5.98881e-08
6.09886e-08
6.10667e-08
1.72958e-09
1.04726e-07
7.13181e-08
6.22307e-08
8.56243e-08
6.24702e-08
5.97498e-08
5.91555e-08
5.88247e-08
6.0154e-08
5.82888e-08
1.40349e-07
1.40703e-07
6.03935e-08
6.00101e-08
0
0
0
0
0
0
0
0
0
0
0
0
0
0
0
0
0
0
0
0
6.01291e-08
6.29582e-08
6.14235e-08
6.20028e-08
6.17924e-08
0
8.8177e-08
1.14883e-07
6.00897e-08
0
1.43789e-07
6.09299e-08
6.1874e-08
6.04889e-08
6.11767e-08
6.03448e-08
6.42173e-08
0
6.09776e-08
6.16597e-08
6.24554e-08
0
6.13449e-08
6.23152e-08
6.082e-08
6.00236e-08
6.05823e-08
6.1865e-08
1.47175e-07
0
0
0
0
6.21996e-08
6.09417e-08
6.04657e-08
6.22599e-08
6.133e-08
6.15915e-08
6.0004e-08
6.07103e-08
6.4474e-08
2.78691e-08
9.12804e-08
6.55014e-08
6.12185e-08
5.85814e-08
5.90806e-08
0
9.82046e-08
1.01708e-07
5.77955e-08
8.41732e-08
1.13045e-07
0
0
0
0
0
0
0
0
0
0
0
0
0
0
0
0
0
0
0
0
0
5.92051e-08
1.47223e-07
0
0
6.08995e-08
1.47583e-07
5.91506e-08
6.03272e-08
6.09184e-08
1.42422e-07
6.03382e-08
5.94167e-08
6.23733e-08
6.18767e-08
6.2376e-08
6.12979e-08
6.22374e-08
6.27543e-08
6.18661e-08
6.13553e-08
6.16191e-08
6.09932e-08
6.12754e-08
6.19695e-08
1.45734e-07
5.82321e-08
6.13426e-08
0
0
5.98019e-08
1.46389e-07
5.90235e-08
1.49994e-07
6.00143e-08
6.0209e-08
6.13163e-08
6.14216e-08
6.13234e-08
6.08784e-08
5.91418e-08
6.2966e-08
6.41511e-08
3.47124e-08
8.16511e-08
6.40399e-08
5.79879e-08
5.54498e-08
6.26208e-08
1.15681e-07
3.52993e-09
5.95773e-08
6.04502e-08
5.95957e-08
5.92822e-08
1.4995e-07
0
0
0
0
0
0
0
0
0
0
0
0
0
0
0
0
0
0
0
0
6.07483e-08
0
1.46964e-07
6.23087e-08
0
6.83708e-10
1.00229e-07
1.04334e-07
5.87702e-08
1.08132e-07
7.93419e-08
5.93678e-08
6.17662e-08
8.96418e-08
1.1867e-07
6.05044e-08
5.84957e-08
6.14246e-08
0
6.16964e-08
6.15265e-08
6.69147e-08
1.40776e-07
6.081e-08
1.11233e-07
7.94623e-08
6.39331e-08
6.08823e-08
5.96873e-08
6.00762e-08
6.20289e-08
6.12212e-08
6.16213e-08
6.265e-08
6.11052e-08
6.04217e-08
6.20979e-08
6.16375e-08
6.04175e-08
5.91893e-08
6.44348e-08
0
1.52918e-07
6.20912e-08
7.50868e-08
1.31412e-07
5.69372e-08
5.98417e-08
6.22516e-08
6.27928e-08
6.14851e-08
6.032e-08
6.03503e-08
6.0742e-08
3.14271e-08
6.95771e-09
0
0
0
0
0
0
0
0
0
0
0
0
0
0
0
0
0
0
0
6.01904e-08
6.14753e-08
6.5258e-08
6.3537e-08
6.31506e-08
6.26764e-08
6.17507e-08
0
5.89999e-08
1.48117e-07
0
0
0
6.33069e-08
6.2746e-08
6.19129e-08
5.9668e-08
6.12773e-08
6.17961e-08
6.0981e-08
6.16267e-08
6.12127e-08
6.08272e-08
1.50598e-07
5.97697e-08
5.77592e-08
6.05731e-08
6.15026e-08
6.04536e-08
6.12339e-08
0
6.0791e-08
8.28213e-08
4.24449e-08
6.02008e-08
6.05716e-08
6.1214e-08
6.44318e-08
6.00464e-08
5.82763e-08
5.82905e-08
6.29905e-08
1.54084e-07
6.25111e-08
5.96654e-08
5.83615e-08
6.56511e-08
1.44013e-07
6.36253e-08
6.37462e-08
2.61477e-08
1.30027e-08
9.11539e-08
1.12824e-07
6.46452e-08
0
0
0
0
0
0
0
0
0
0
0
0
0
0
0
0
0
0
0
0
1.50865e-07
6.55173e-08
6.36994e-08
5.88877e-08
8.17055e-08
4.26073e-08
5.7194e-08
6.07244e-08
1.42109e-07
0
5.95916e-08
6.10038e-08
1.49681e-07
6.28133e-08
5.96208e-08
5.93104e-08
5.87688e-08
6.09257e-08
6.23354e-08
6.27051e-08
6.17179e-08
6.04999e-08
6.01924e-08
6.09888e-08
8.2062e-08
9.30195e-08
5.62559e-08
3.6495e-08
3.41724e-08
1.46759e-07
1.4345e-07
1.03595e-07
9.6137e-08
0
6.05951e-08
6.04546e-08
6.14399e-08
6.19696e-08
6.06336e-08
5.99127e-08
5.93541e-08
1.48048e-07
6.13844e-08
6.11691e-08
5.9742e-08
5.93007e-08
5.90898e-08
0
6.20566e-08
6.14992e-08
6.14719e-08
6.03024e-08
6.01108e-08
6.04773e-08
6.16323e-08
0
0
0
0
0
0
0
0
0
0
0
0
0
0
0
0
0
0
0
0
6.53178e-08
6.54901e-08
0
6.12064e-08
0
1.44501e-07
1.10877e-07
8.87487e-08
0
1.44407e-07
5.91945e-08
5.92e-08
5.92757e-08
2.62238e-07
5.98609e-08
5.90064e-08
5.9389e-08
5.89753e-08
6.9666e-08
1.38716e-07
5.86986e-08
5.87367e-08
5.93983e-08
6.07031e-08
6.17402e-08
6.16987e-08
6.04259e-08
6.0081e-08
1.53126e-07
6.21874e-08
0
5.94046e-08
6.30578e-08
0
6.10205e-08
6.34632e-08
5.93137e-08
5.8798e-08
1.49904e-07
5.84957e-08
5.78695e-08
1.50432e-07
5.81926e-08
5.85788e-08
5.73618e-08
1.44665e-07
5.89921e-08
1.52552e-07
5.92697e-08
5.82034e-08
6.00783e-08
6.11936e-08
6.09085e-08
6.05916e-08
6.23052e-08
0
0
0
0
0
0
0
0
0
0
0
0
0
0
0
0
0
0
0
0
1.73781e-08
3.42089e-08
6.28271e-08
0
1.4231e-07
6.07917e-08
6.23396e-08
6.39437e-08
0
0
6.00196e-08
6.02773e-08
6.11182e-08
6.25842e-08
6.34183e-08
6.06154e-08
1.11605e-07
8.0278e-08
6.18401e-08
1.17609e-07
7.47884e-08
5.90795e-08
6.13841e-08
6.25915e-08
6.28641e-08
0
6.1474e-08
1.51012e-07
6.23988e-08
6.19613e-08
6.13667e-08
1.9226e-08
2.46697e-08
6.14549e-08
6.07991e-08
6.19733e-08
6.27825e-08
6.15969e-08
6.16914e-08
6.138e-08
6.0277e-08
6.03184e-08
1.51673e-07
5.72874e-08
1.45425e-07
0
0
6.15953e-08
6.18459e-08
6.1346e-08
6.07034e-08
6.01138e-08
6.34649e-08
6.27863e-08
6.14618e-08
5.70329e-08
0
0
0
0
0
0
0
0
0
0
0
0
0
0
0
0
0
0
0
1.5634e-07
6.32471e-08
2.83576e-08
1.01347e-08
1.79626e-08
1.07772e-07
6.38117e-08
0
5.96507e-08
5.79907e-08
1.41514e-07
5.82768e-08
5.97112e-08
0
6.36832e-08
6.37772e-08
6.38413e-08
5.96569e-08
5.91692e-08
5.91311e-08
1.41828e-07
5.96603e-08
1.51661e-07
0
6.03952e-08
6.12811e-08
0
6.33936e-08
6.31192e-08
6.08916e-08
6.133e-08
6.05749e-08
1.53162e-07
5.85125e-08
5.67197e-08
6.0338e-08
6.14689e-08
6.16147e-08
6.20546e-08
6.13633e-08
6.12388e-08
0
0
1.47009e-07
5.95517e-08
6.01999e-08
9.92661e-08
1.02202e-07
5.98345e-08
5.99519e-08
6.04459e-08
5.97244e-08
6.0137e-08
6.58213e-08
6.23497e-08
5.67355e-08
0
0
0
0
0
0
0
0
0
0
0
0
0
0
0
0
0
0
0
0
6.31663e-08
7.8164e-08
1.2981e-07
6.08238e-08
9.2217e-08
5.5018e-08
3.83754e-08
6.20039e-08
5.91335e-08
0
1.39164e-07
1.42789e-07
1.17705e-07
8.19489e-08
0
6.16215e-08
0
0
6.00226e-08
1.5214e-07
5.99265e-08
5.97626e-08
6.05336e-08
5.96313e-08
6.13996e-08
6.56819e-08
9.76384e-09
4.6576e-08
6.02639e-08
5.99204e-08
1.51536e-07
6.04473e-08
7.0088e-08
1.27555e-07
1.47656e-07
2.88595e-08
8.4438e-08
0
6.17341e-08
6.25791e-08
0
6.0316e-08
5.97899e-08
6.01882e-08
6.07865e-08
6.16812e-08
6.20335e-08
6.18253e-08
6.13271e-08
6.08127e-08
6.02463e-08
6.24835e-08
6.64337e-08
6.18497e-08
6.06535e-08
0
0
0
0
0
0
0
0
0
0
0
0
0
0
0
0
0
0
0
6.19754e-08
6.55169e-08
1.40583e-07
5.96952e-08
8.75153e-08
1.17525e-07
6.12583e-08
6.31074e-08
0
5.85927e-08
5.87445e-08
6.08291e-08
6.07832e-08
6.45605e-08
3.78261e-09
5.70403e-08
6.36095e-08
6.09764e-08
6.04607e-08
0
6.40406e-08
6.37772e-08
6.13419e-08
6.05668e-08
5.97486e-08
6.0362e-08
6.63063e-08
2.58858e-08
5.24851e-08
2.44401e-08
0
0
6.20899e-08
6.30002e-08
0
1.52701e-07
6.03948e-08
6.26724e-08
6.14359e-08
6.19438e-08
0
5.91065e-08
1.42824e-07
0
6.09283e-08
6.22305e-08
0
6.03304e-08
6.26055e-08
6.12928e-08
6.11712e-08
6.14236e-08
6.02821e-08
6.09023e-08
6.20623e-08
6.17088e-08
0
0
0
0
0
0
0
0
0
0
0
0
0
0
0
0
0
0
0
1.48782e-07
5.92235e-08
5.76042e-08
5.94987e-08
1.53885e-07
6.5512e-09
5.17443e-08
1.49469e-07
5.90728e-08
5.88302e-08
0
5.91639e-08
6.10845e-08
6.26732e-08
6.43012e-08
6.6044e-08
0
6.12335e-08
6.08933e-08
6.10987e-08
6.28495e-08
0
1.4993e-07
5.85003e-08
5.93723e-08
6.2831e-08
6.45867e-08
6.14407e-08
5.91435e-08
0
1.4328e-07
9.09906e-08
2.99179e-08
6.18165e-08
5.98803e-08
0
1.47541e-07
1.58527e-07
0
1.07707e-08
1.196e-07
0
5.76152e-08
5.98619e-08
6.43724e-08
3.61379e-09
2.01448e-07
8.40551e-08
1.01337e-09
5.97475e-08
6.06669e-08
5.98841e-08
6.05603e-08
1.00706e-07
1.06609e-07
0
0
0
0
0
0
0
0
0
0
0
0
0
0
0
0
0
0
0
0
4.85451e-08
6.13086e-08
6.0912e-08
6.06413e-08
6.62446e-08
6.41037e-08
5.99531e-08
5.92832e-08
5.98002e-08
5.87331e-08
5.97739e-08
6.09165e-08
6.20893e-08
6.515e-08
1.69366e-08
3.33289e-08
6.08503e-08
1.51386e-07
1.00276e-08
1.18384e-07
2.55491e-07
6.20905e-08
5.47697e-08
5.72986e-08
6.26188e-08
6.47691e-08
6.34399e-08
6.00112e-08
5.7843e-08
6.00497e-08
1.38958e-08
1.0859e-07
5.92513e-08
6.27477e-08
6.19478e-08
6.41891e-08
6.00966e-08
0
5.92707e-08
1.38371e-07
1.11793e-07
7.3882e-08
5.85001e-08
6.068e-08
6.42969e-08
5.92144e-08
5.90785e-08
6.0224e-08
6.16035e-08
6.20833e-08
5.95622e-08
6.09378e-08
0
0
6.19265e-08
6.15026e-08
0
0
0
0