/*--------------------------------*- C++ -*----------------------------------*\
  =========                 |
  \\      /  F ield         | OpenFOAM: The Open Source CFD Toolbox
   \\    /   O peration     | Website:  https://openfoam.org
    \\  /    A nd           | Version:  12
     \\/     M anipulation  |
\*---------------------------------------------------------------------------*/
FoamFile
{
    format      ascii;
    class       volVectorField::Internal;
    location    "0.4";
    object      cloud:UTrans;
}
// * * * * * * * * * * * * * * * * * * * * * * * * * * * * * * * * * * * * * //

dimensions      [1 1 -1 0 0 0 0];

value           nonuniform List<vector> 
3750
(
(-1.58726e-10 -2.22124e-09 0)
(-1.45368e-11 -5.20885e-09 0)
(-3.95305e-12 -3.06362e-10 0)
(-1.90412e-11 -1.6291e-09 0)
(1.30551e-10 -2.66177e-09 0)
(-1.92053e-11 -7.62513e-10 0)
(-2.98978e-11 -1.00976e-09 0)
(1.47021e-11 -2.18616e-09 0)
(1.72698e-11 -2.13856e-09 0)
(1.48007e-11 -2.13817e-09 0)
(6.99499e-11 -2.11445e-09 0)
(2.28882e-10 -4.44409e-09 0)
(-3.49586e-11 -1.99044e-09 0)
(-1.45587e-10 -1.80805e-09 0)
(-1.64361e-11 -2.18134e-09 0)
(-5.60553e-11 -2.20013e-09 0)
(-1.41455e-10 -4.87725e-09 0)
(5.90988e-11 -1.87279e-09 0)
(6.32339e-12 -2.26813e-09 0)
(-4.79495e-11 -4.96451e-09 0)
(4.48097e-11 -2.29446e-09 0)
(3.54476e-12 -1.54158e-10 0)
(1.87489e-10 -4.37416e-09 0)
(-6.76702e-11 -2.04967e-09 0)
(-4.08077e-11 -8.71649e-10 0)
(-1.08552e-10 -1.48899e-09 0)
(-2.35048e-10 -4.22541e-09 0)
(6.70883e-11 -2.2402e-09 0)
(4.45877e-11 -2.03592e-09 0)
(4.78378e-11 -2.1056e-09 0)
(1.61781e-11 -2.15168e-09 0)
(9.63153e-11 -2.24799e-09 0)
(-3.29504e-12 -2.12726e-09 0)
(-4.375e-11 -2.10623e-09 0)
(4.27999e-11 -2.1932e-09 0)
(0 0 0)
(-2.93879e-11 -2.64272e-09 0)
(-6.57243e-11 -3.49101e-09 0)
(7.1708e-12 -8.05576e-10 0)
(1.26583e-11 -1.50222e-09 0)
(4.4615e-11 -4.49406e-09 0)
(7.00097e-12 -1.8918e-09 0)
(1.49368e-11 -2.15383e-09 0)
(0 0 0)
(1.39135e-10 -4.75994e-09 0)
(1.5326e-11 -2.11087e-09 0)
(0 0 0)
(6.97393e-11 -4.43071e-09 0)
(-1.35585e-11 -2.1038e-09 0)
(-1.06052e-11 -2.32607e-09 0)
(1.23787e-10 -4.90987e-09 0)
(3.35969e-11 -2.19277e-09 0)
(2.42473e-11 -2.14278e-09 0)
(1.02898e-11 -2.14479e-09 0)
(5.84885e-11 -2.17546e-09 0)
(-3.05021e-11 -6.79734e-10 0)
(-6.25566e-11 -1.17779e-09 0)
(-7.6033e-11 -2.17991e-09 0)
(-1.24802e-10 -2.10483e-09 0)
(-5.70513e-11 -2.12271e-09 0)
(-1.1851e-10 -2.53685e-09 0)
(5.42446e-11 -2.53827e-09 0)
(0 0 0)
(0 0 0)
(0 0 0)
(0 0 0)
(0 0 0)
(0 0 0)
(0 0 0)
(0 0 0)
(0 0 0)
(0 0 0)
(0 0 0)
(0 0 0)
(0 0 0)
(-9.83896e-11 -2.15136e-09 0)
(-1.4413e-10 -5.22465e-09 0)
(6.46921e-13 -2.09358e-09 0)
(1.2938e-11 -5.60344e-09 0)
(1.40669e-11 -2.44316e-09 0)
(1.24484e-10 -2.35948e-09 0)
(0 0 0)
(1.42943e-10 -2.15504e-09 0)
(0 0 0)
(1.04166e-10 -2.12184e-09 0)
(1.52729e-10 -2.2428e-09 0)
(6.98263e-11 -1.94282e-09 0)
(9.84304e-11 -4.83386e-09 0)
(2.57112e-11 -2.02706e-09 0)
(0 0 0)
(0 0 0)
(-7.56272e-11 -1.77938e-09 0)
(-1.14067e-10 -1.88265e-09 0)
(-1.01365e-10 -2.01228e-09 0)
(-9.09173e-11 -2.26286e-09 0)
(1.18092e-10 -5.18179e-09 0)
(1.05081e-10 -4.90406e-09 0)
(3.35985e-10 -4.72649e-09 0)
(-5.96052e-11 -1.94241e-09 0)
(-8.86134e-11 -2.02875e-09 0)
(-1.27261e-10 -2.21287e-09 0)
(0 0 0)
(0 0 0)
(-1.16518e-11 -2.09894e-09 0)
(1.38548e-11 -2.07323e-09 0)
(7.27651e-11 -2.10572e-09 0)
(1.11704e-10 -2.16899e-09 0)
(3.73301e-11 -2.36654e-09 0)
(-2.25255e-13 -8.03146e-12 0)
(-2.77369e-10 -7.06662e-09 0)
(-7.78507e-11 -1.75642e-09 0)
(0 0 0)
(0 0 0)
(-2.30244e-11 -2.04123e-09 0)
(1.04906e-10 -4.43725e-09 0)
(-1.69569e-10 -4.3183e-09 0)
(7.66922e-11 -4.09492e-09 0)
(5.15047e-11 -2.00663e-09 0)
(6.77345e-11 -2.09637e-09 0)
(1.41309e-11 -6.09362e-10 0)
(2.70057e-11 -1.08188e-09 0)
(0 0 0)
(-3.63329e-11 -1.95953e-09 0)
(-1.00394e-10 -2.04135e-09 0)
(-5.05109e-11 -2.00136e-09 0)
(2.54284e-11 -6.70012e-10 0)
(3.28747e-11 -7.51145e-10 0)
(-9.27813e-12 -1.99784e-09 0)
(-5.11253e-11 -2.07195e-09 0)
(-1.07827e-10 -1.93823e-09 0)
(9.16493e-11 -5.33859e-09 0)
(0 0 0)
(0 0 0)
(0 0 0)
(0 0 0)
(0 0 0)
(0 0 0)
(0 0 0)
(0 0 0)
(0 0 0)
(0 0 0)
(0 0 0)
(0 0 0)
(0 0 0)
(0 0 0)
(0 0 0)
(0 0 0)
(0 0 0)
(0 0 0)
(0 0 0)
(-6.94493e-11 -2.05473e-09 0)
(-1.2196e-10 -2.15045e-09 0)
(7.47974e-11 -2.22751e-09 0)
(2.49072e-11 -2.29296e-09 0)
(8.53079e-11 -2.36041e-09 0)
(1.52525e-10 -2.18442e-09 0)
(2.21062e-10 -2.2101e-09 0)
(1.67912e-10 -2.21838e-09 0)
(8.10618e-11 -2.01992e-09 0)
(-1.3105e-11 -2.16744e-09 0)
(1.5381e-10 -4.45218e-09 0)
(4.22499e-11 -1.98923e-09 0)
(0 0 0)
(7.12084e-11 -2.03598e-09 0)
(9.26351e-11 -1.9721e-09 0)
(-1.88224e-10 -4.32496e-09 0)
(-1.437e-10 -1.77371e-09 0)
(-1.66953e-10 -1.91226e-09 0)
(-1.12308e-10 -2.13835e-09 0)
(-9.80385e-11 -2.18607e-09 0)
(-2.6251e-11 -2.37866e-09 0)
(1.35377e-10 -2.57284e-09 0)
(1.30731e-10 -2.37438e-09 0)
(3.10565e-12 -3.0473e-10 0)
(2.00074e-11 -1.62959e-09 0)
(-1.63239e-10 -2.19606e-09 0)
(-5.18308e-11 -2.17281e-09 0)
(-8.16097e-12 -2.19147e-09 0)
(-2.05273e-11 -2.22399e-09 0)
(2.58585e-11 -2.2297e-09 0)
(6.13464e-11 -2.09949e-09 0)
(3.57684e-11 -2.1386e-09 0)
(-1.00683e-10 -5.45007e-09 0)
(-5.92414e-11 -1.99036e-09 0)
(-6.65204e-11 -2.36487e-09 0)
(4.46821e-11 -3.90864e-09 0)
(-3.07729e-11 -1.93926e-09 0)
(1.52303e-12 -1.99945e-09 0)
(-3.04941e-11 -2.0361e-09 0)
(-5.40662e-11 -2.2902e-09 0)
(3.44442e-11 -1.92778e-09 0)
(-2.66959e-11 -1.93166e-09 0)
(-2.91808e-11 -2.40353e-09 0)
(0 0 0)
(9.93577e-11 -2.29751e-09 0)
(3.66186e-11 -2.32872e-09 0)
(-3.02799e-11 -2.2982e-09 0)
(-1.03342e-10 -2.15774e-09 0)
(-5.29578e-11 -2.09285e-09 0)
(-8.29948e-11 -1.9887e-09 0)
(-7.56024e-11 -4.24865e-09 0)
(-1.11717e-10 -5.01633e-09 0)
(-2.50547e-11 -2.0739e-09 0)
(-1.30712e-10 -1.89559e-09 0)
(0 0 0)
(-3.4266e-10 -4.72208e-09 0)
(0 0 0)
(0 0 0)
(0 0 0)
(0 0 0)
(0 0 0)
(0 0 0)
(0 0 0)
(0 0 0)
(0 0 0)
(0 0 0)
(0 0 0)
(0 0 0)
(0 0 0)
(0 0 0)
(0 0 0)
(0 0 0)
(0 0 0)
(0 0 0)
(0 0 0)
(-1.40268e-10 -2.03022e-09 0)
(-1.7428e-10 -2.19444e-09 0)
(-1.30991e-10 -2.25159e-09 0)
(-9.78741e-11 -2.22122e-09 0)
(8.71903e-11 -1.82123e-09 0)
(7.29276e-11 -4.79568e-09 0)
(2.47332e-11 -2.10477e-09 0)
(3.04994e-11 -2.21839e-09 0)
(1.47363e-10 -2.18767e-09 0)
(5.91417e-11 -2.25889e-09 0)
(1.01765e-11 -2.15434e-09 0)
(0 0 0)
(1.47916e-10 -2.04973e-09 0)
(8.05835e-11 -2.23784e-09 0)
(-4.85577e-11 -2.21019e-09 0)
(-7.84089e-11 -2.04293e-09 0)
(-8.4723e-11 -2.16036e-09 0)
(-2.4972e-11 -2.69278e-10 0)
(-1.80194e-10 -1.7551e-09 0)
(-9.29979e-11 -2.03305e-09 0)
(-1.10572e-10 -2.08341e-09 0)
(8.62532e-11 -2.08868e-09 0)
(2.56822e-10 -2.68966e-09 0)
(3.77068e-11 -1.16136e-09 0)
(1.06645e-11 -3.38328e-10 0)
(-4.7393e-11 -2.22604e-09 0)
(-9.42242e-11 -2.21055e-09 0)
(-5.80018e-11 -2.12688e-09 0)
(-6.5778e-11 -2.1218e-09 0)
(2.40375e-12 -2.50524e-09 0)
(-2.12704e-10 -4.07233e-09 0)
(-4.20664e-11 -4.96072e-09 0)
(-8.12588e-11 -2.20433e-09 0)
(-6.36014e-11 -1.99712e-09 0)
(3.26538e-12 -2.00602e-09 0)
(-1.03915e-11 -2.03858e-09 0)
(2.89647e-11 -2.13235e-09 0)
(8.65208e-11 -2.09491e-09 0)
(2.30994e-10 -2.16798e-09 0)
(-2.8652e-11 -2.18221e-09 0)
(7.22297e-11 -1.82876e-09 0)
(-7.61057e-11 -1.88779e-09 0)
(-2.28329e-11 -2.22218e-09 0)
(6.59253e-11 -2.22507e-09 0)
(-4.32572e-12 -2.41117e-09 0)
(-1.37987e-11 -2.46516e-09 0)
(-3.34571e-12 -5.68072e-10 0)
(-1.32878e-11 -1.77427e-09 0)
(-3.02398e-11 -2.67654e-09 0)
(-3.44269e-11 -1.98035e-09 0)
(-8.77196e-11 -3.06538e-09 0)
(-1.24014e-11 -1.74668e-09 0)
(1.48951e-10 -4.91086e-09 0)
(-1.1077e-12 -1.80286e-09 0)
(0 0 0)
(0 0 0)
(0 0 0)
(0 0 0)
(0 0 0)
(0 0 0)
(0 0 0)
(0 0 0)
(0 0 0)
(0 0 0)
(0 0 0)
(0 0 0)
(0 0 0)
(0 0 0)
(0 0 0)
(0 0 0)
(0 0 0)
(0 0 0)
(0 0 0)
(0 0 0)
(0 0 0)
(-1.15162e-10 -1.99556e-09 0)
(-1.38758e-10 -2.02559e-09 0)
(-1.73114e-10 -4.87701e-09 0)
(-3.12466e-11 -2.13737e-09 0)
(1.70486e-11 -2.15383e-09 0)
(-1.84789e-11 -2.22064e-09 0)
(8.22311e-11 -2.34642e-09 0)
(0 0 0)
(1.87148e-10 -2.25338e-09 0)
(1.18656e-10 -2.20079e-09 0)
(0 0 0)
(3.55856e-11 -1.98077e-09 0)
(-4.7634e-11 -2.00841e-09 0)
(9.03784e-12 -2.3912e-09 0)
(-1.17533e-10 -2.1162e-09 0)
(-1.84929e-11 -1.92201e-09 0)
(-2.34628e-10 -1.9558e-09 0)
(-1.12573e-10 -2.18387e-09 0)
(0 0 0)
(-1.39305e-10 -2.02843e-09 0)
(-1.41269e-10 -2.17804e-09 0)
(-4.26802e-11 -2.21525e-09 0)
(1.02697e-10 -2.61989e-09 0)
(1.8459e-11 -2.54028e-09 0)
(-1.9052e-11 -2.32594e-09 0)
(1.4013e-11 -2.19005e-09 0)
(3.82889e-11 -1.95713e-09 0)
(-1.5823e-11 -1.90924e-09 0)
(-1.11101e-10 -1.98952e-09 0)
(-2.14863e-10 -5.08952e-09 0)
(-8.48459e-11 -1.9247e-09 0)
(-3.73898e-11 -2.01289e-09 0)
(2.97095e-12 -2.50048e-10 0)
(2.31038e-11 -1.64633e-09 0)
(5.44608e-11 -2.17376e-09 0)
(-1.07444e-11 -2.2481e-09 0)
(-1.75587e-11 -2.24723e-09 0)
(2.01802e-11 -2.27994e-09 0)
(8.76687e-11 -2.22345e-09 0)
(2.24696e-11 -2.23236e-09 0)
(-9.43084e-11 -2.18057e-09 0)
(-6.35935e-11 -2.03103e-09 0)
(-2.47023e-11 -2.14657e-09 0)
(-2.19502e-11 -2.08891e-09 0)
(4.15504e-11 -3.20425e-09 0)
(7.67113e-11 -4.35195e-09 0)
(1.71961e-12 -2.02399e-09 0)
(-2.79104e-12 -1.96933e-09 0)
(0 0 0)
(0 0 0)
(-1.06185e-11 -8.62643e-10 0)
(-6.43836e-11 -2.72662e-09 0)
(-7.76224e-12 -2.01866e-09 0)
(4.66902e-12 -2.08591e-09 0)
(6.21205e-12 -1.91069e-09 0)
(0 0 0)
(0 0 0)
(0 0 0)
(0 0 0)
(0 0 0)
(0 0 0)
(0 0 0)
(0 0 0)
(0 0 0)
(0 0 0)
(0 0 0)
(0 0 0)
(0 0 0)
(0 0 0)
(0 0 0)
(0 0 0)
(0 0 0)
(0 0 0)
(0 0 0)
(0 0 0)
(-1.30233e-10 -3.62887e-09 0)
(-5.91035e-11 -2.01466e-09 0)
(-4.29292e-12 -2.18338e-09 0)
(5.64079e-11 -3.44119e-09 0)
(-2.28348e-11 -3.47465e-09 0)
(2.51104e-12 -3.58886e-10 0)
(6.32625e-12 -1.60405e-09 0)
(1.49309e-10 -2.32508e-09 0)
(1.60054e-10 -2.38741e-09 0)
(0 0 0)
(1.16666e-10 -2.15808e-09 0)
(6.08527e-11 -2.06968e-09 0)
(-3.7397e-11 -2.20816e-09 0)
(0 0 0)
(7.29987e-11 -2.27679e-09 0)
(-2.47754e-11 -2.28574e-09 0)
(-6.21538e-11 -2.29831e-09 0)
(-1.49041e-10 -2.16347e-09 0)
(-1.09033e-10 -2.10365e-09 0)
(-8.0026e-11 -2.08959e-09 0)
(-5.32739e-11 -2.07262e-09 0)
(-6.69341e-11 -2.25208e-09 0)
(-7.46602e-12 -2.68151e-09 0)
(3.89129e-12 -2.26924e-09 0)
(2.37286e-11 -2.24659e-09 0)
(5.84343e-11 -2.219e-09 0)
(4.87098e-11 -2.12093e-09 0)
(2.92207e-11 -4.95081e-09 0)
(-5.69712e-11 -1.96251e-09 0)
(-8.21198e-11 -1.94153e-09 0)
(2.07564e-11 -1.95237e-09 0)
(5.98526e-11 -2.00818e-09 0)
(8.67596e-11 -2.17767e-09 0)
(5.27889e-11 -2.18346e-09 0)
(-2.30104e-11 -2.51369e-09 0)
(-1.92203e-11 -2.21812e-09 0)
(7.70899e-12 -1.00032e-09 0)
(-5.62201e-11 -2.37151e-09 0)
(-4.17836e-11 -2.83575e-09 0)
(1.4312e-11 -2.33755e-09 0)
(7.12406e-12 -9.68421e-10 0)
(-5.88019e-12 -1.263e-09 0)
(-2.33074e-11 -3.2074e-09 0)
(-3.31409e-11 -2.1783e-09 0)
(6.74076e-12 -2.99193e-09 0)
(2.56969e-11 -2.28008e-09 0)
(1.10616e-10 -1.96555e-09 0)
(-6.08895e-12 -1.89894e-09 0)
(-3.9839e-12 -4.00945e-10 0)
(1.13028e-11 -3.69017e-09 0)
(1.70343e-11 -4.6533e-09 0)
(0 0 0)
(0 0 0)
(-3.27542e-11 -2.18753e-09 0)
(-5.72995e-11 -2.10578e-09 0)
(0 0 0)
(0 0 0)
(0 0 0)
(0 0 0)
(0 0 0)
(0 0 0)
(0 0 0)
(0 0 0)
(0 0 0)
(0 0 0)
(0 0 0)
(0 0 0)
(0 0 0)
(0 0 0)
(0 0 0)
(0 0 0)
(0 0 0)
(0 0 0)
(0 0 0)
(0 0 0)
(-3.24469e-11 -2.07632e-09 0)
(-9.29638e-11 -2.25452e-09 0)
(1.87708e-11 -2.27756e-09 0)
(-2.53537e-11 -2.14287e-09 0)
(-8.79727e-11 -2.30009e-09 0)
(7.36635e-11 -2.29789e-09 0)
(3.44142e-11 -2.16109e-09 0)
(8.41327e-11 -2.14279e-09 0)
(1.15215e-10 -2.30054e-09 0)
(2.37128e-10 -2.52979e-09 0)
(0 0 0)
(1.05672e-10 -1.94248e-09 0)
(-4.49673e-11 -2.13134e-09 0)
(5.80618e-11 -2.21503e-09 0)
(8.1364e-11 -2.55648e-09 0)
(6.33355e-11 -2.58887e-09 0)
(2.16242e-11 -2.40458e-09 0)
(-7.53183e-11 -1.99959e-09 0)
(-2.38911e-11 -1.80303e-09 0)
(-4.44349e-11 -1.94067e-09 0)
(-1.58824e-11 -2.00002e-09 0)
(-1.48865e-10 -4.99008e-09 0)
(-2.23013e-10 -2.23289e-09 0)
(-1.39391e-10 -3.40719e-09 0)
(1.8375e-11 -2.01729e-09 0)
(2.0761e-11 -9.9029e-10 0)
(1.51043e-11 -2.21742e-09 0)
(-5.88385e-11 -2.20527e-09 0)
(-2.03237e-11 -2.15482e-09 0)
(-5.60696e-11 -2.12387e-09 0)
(-1.25101e-11 -2.14943e-09 0)
(-4.39804e-11 -2.07823e-09 0)
(3.07322e-11 -2.23045e-09 0)
(-7.40038e-13 -2.33815e-09 0)
(-8.6101e-11 -2.15492e-09 0)
(-2.18623e-11 -2.13986e-09 0)
(-3.69076e-11 -2.23585e-09 0)
(-8.76371e-11 -2.13194e-09 0)
(-8.89778e-11 -2.14198e-09 0)
(-1.96003e-11 -2.10373e-09 0)
(7.73848e-11 -2.23557e-09 0)
(5.28082e-11 -2.20711e-09 0)
(5.33053e-11 -2.23853e-09 0)
(-4.12672e-11 -2.2297e-09 0)
(-6.51019e-11 -2.2127e-09 0)
(3.76896e-11 -2.08994e-09 0)
(-2.86544e-11 -2.23255e-09 0)
(5.1695e-11 -3.41399e-09 0)
(3.65376e-12 -1.64591e-09 0)
(2.38632e-11 -2.28718e-09 0)
(-3.32686e-11 -2.74967e-09 0)
(6.31165e-11 -2.03091e-09 0)
(6.91099e-12 -2.10494e-09 0)
(-5.14314e-11 -2.09073e-09 0)
(-2.89796e-11 -2.10234e-09 0)
(0 0 0)
(0 0 0)
(0 0 0)
(0 0 0)
(0 0 0)
(0 0 0)
(0 0 0)
(0 0 0)
(0 0 0)
(0 0 0)
(0 0 0)
(0 0 0)
(0 0 0)
(0 0 0)
(0 0 0)
(0 0 0)
(0 0 0)
(0 0 0)
(0 0 0)
(0 0 0)
(-8.06682e-11 -2.25013e-09 0)
(-2.27145e-10 -2.27413e-09 0)
(-6.22273e-11 -2.4082e-09 0)
(0 0 0)
(-6.19769e-11 -2.1809e-09 0)
(2.95028e-11 -2.18862e-09 0)
(1.00719e-10 -2.23102e-09 0)
(2.6262e-11 -2.20067e-09 0)
(7.77638e-12 -3.03717e-09 0)
(1.72019e-10 -3.02113e-09 0)
(4.5865e-11 -4.55587e-10 0)
(1.76288e-10 -2.18119e-09 0)
(2.49355e-10 -4.8409e-09 0)
(-4.98e-11 -2.07748e-09 0)
(-7.84319e-11 -2.034e-09 0)
(3.53248e-11 -8.50685e-10 0)
(1.44664e-10 -4.23621e-09 0)
(6.92235e-11 -2.12312e-09 0)
(4.54856e-11 -1.85046e-09 0)
(6.01028e-11 -4.36014e-09 0)
(-2.67362e-12 -1.81832e-09 0)
(5.46272e-11 -4.97179e-09 0)
(-1.75169e-10 -2.07562e-09 0)
(-1.35266e-10 -2.18351e-09 0)
(-1.15185e-10 -2.22855e-09 0)
(2.91364e-12 -2.4781e-09 0)
(0 0 0)
(7.09959e-11 -2.01633e-09 0)
(3.64307e-11 -2.17864e-09 0)
(2.46194e-12 -2.19519e-09 0)
(-1.42706e-11 -2.13985e-09 0)
(-7.32234e-13 -6.27122e-10 0)
(-7.76407e-12 -3.90969e-09 0)
(-4.28904e-11 -2.32996e-09 0)
(-3.94388e-11 -2.00919e-09 0)
(-1.85157e-11 -1.92335e-09 0)
(-1.17208e-11 -2.10406e-09 0)
(-6.94403e-11 -2.09666e-09 0)
(-3.34481e-11 -2.09319e-09 0)
(3.76244e-11 -2.14426e-09 0)
(0 0 0)
(5.34138e-11 -2.27393e-09 0)
(3.61058e-11 -2.19747e-09 0)
(2.90971e-11 -2.23375e-09 0)
(2.70478e-11 -2.33109e-09 0)
(-6.09855e-11 -2.09163e-09 0)
(-1.49577e-12 -2.04576e-09 0)
(-3.09872e-12 -2.05408e-09 0)
(2.9547e-12 -2.03395e-09 0)
(-4.91543e-12 -2.0257e-09 0)
(-8.2825e-12 -2.04846e-09 0)
(4.0222e-12 -1.99341e-09 0)
(-1.98201e-10 -4.69203e-09 0)
(-1.09206e-10 -3.19573e-09 0)
(-2.01986e-11 -1.65259e-09 0)
(-3.31833e-11 -1.17911e-09 0)
(0 0 0)
(0 0 0)
(0 0 0)
(0 0 0)
(0 0 0)
(0 0 0)
(0 0 0)
(0 0 0)
(0 0 0)
(0 0 0)
(0 0 0)
(0 0 0)
(0 0 0)
(0 0 0)
(0 0 0)
(0 0 0)
(0 0 0)
(0 0 0)
(0 0 0)
(-6.19834e-11 -2.52968e-09 0)
(0 0 0)
(-7.08143e-11 -2.14199e-09 0)
(1.25621e-10 -2.13889e-09 0)
(5.5961e-11 -2.11178e-09 0)
(8.26626e-11 -2.22578e-09 0)
(1.41496e-10 -5.45579e-09 0)
(-2.765e-11 -2.07704e-09 0)
(1.67516e-11 -2.01946e-09 0)
(1.04396e-10 -2.07058e-09 0)
(1.36744e-10 -1.9673e-09 0)
(1.97953e-10 -4.92527e-09 0)
(6.03573e-11 -2.05553e-09 0)
(4.90295e-12 -2.46756e-09 0)
(-3.22772e-11 -4.08233e-09 0)
(-1.79815e-11 -1.96496e-09 0)
(0 0 0)
(4.00372e-11 -2.4503e-09 0)
(1.08902e-11 -3.55607e-09 0)
(-2.84444e-10 -3.21516e-09 0)
(-1.81158e-10 -2.72866e-09 0)
(-1.37533e-10 -3.89868e-09 0)
(-7.48844e-11 -2.16763e-09 0)
(-5.82991e-11 -1.00221e-09 0)
(-2.38438e-11 -3.99694e-10 0)
(-1.01182e-10 -2.33369e-09 0)
(1.51726e-10 -2.32785e-09 0)
(1.50092e-12 -8.14041e-11 0)
(4.00889e-11 -1.95993e-09 0)
(5.54682e-11 -2.18809e-09 0)
(8.23416e-11 -2.26666e-09 0)
(-1.5041e-10 -2.06351e-09 0)
(-8.22828e-11 -2.20474e-09 0)
(1.14742e-11 -2.15488e-09 0)
(5.57136e-11 -2.16259e-09 0)
(-8.1597e-12 -2.18921e-09 0)
(-5.42508e-11 -2.55211e-09 0)
(-6.77277e-11 -1.45026e-09 0)
(-3.14071e-11 -1.8959e-09 0)
(-2.48852e-11 -2.15302e-09 0)
(-4.06822e-11 -2.17609e-09 0)
(3.52123e-11 -2.18803e-09 0)
(-1.72514e-11 -2.17139e-09 0)
(-2.60324e-12 -2.21335e-09 0)
(1.40876e-11 -2.33198e-09 0)
(0 0 0)
(2.30673e-12 -2.10498e-09 0)
(2.23644e-11 -2.17016e-09 0)
(1.6924e-11 -2.1223e-09 0)
(2.63027e-11 -2.18978e-09 0)
(-5.10458e-11 -2.28324e-09 0)
(-6.99566e-11 -2.32502e-09 0)
(0 0 0)
(-9.51292e-13 -3.44979e-09 0)
(-1.44859e-11 -1.76879e-09 0)
(-9.16696e-12 -6.41885e-10 0)
(0 0 0)
(0 0 0)
(0 0 0)
(0 0 0)
(0 0 0)
(0 0 0)
(0 0 0)
(0 0 0)
(0 0 0)
(0 0 0)
(0 0 0)
(0 0 0)
(0 0 0)
(0 0 0)
(0 0 0)
(0 0 0)
(0 0 0)
(0 0 0)
(0 0 0)
(2.42766e-11 -2.58819e-09 0)
(3.5777e-11 -2.07753e-09 0)
(5.06653e-12 -6.58018e-10 0)
(9.27627e-12 -8.75277e-10 0)
(9.18808e-11 -2.33022e-09 0)
(9.04727e-11 -2.27619e-09 0)
(1.12142e-11 -5.53338e-09 0)
(1.32359e-10 -2.01763e-09 0)
(3.49492e-11 -2.03447e-09 0)
(-2.4927e-11 -1.80989e-09 0)
(1.13013e-10 -4.49613e-09 0)
(-9.17895e-11 -1.95217e-09 0)
(2.41911e-10 -5.17535e-09 0)
(5.98579e-11 -1.99606e-09 0)
(-5.22239e-11 -1.98201e-09 0)
(-1.00303e-10 -4.81997e-09 0)
(2.2205e-11 -2.36375e-09 0)
(1.2286e-11 -2.38234e-09 0)
(-6.44935e-11 -2.36436e-09 0)
(-3.26663e-11 -6.43401e-10 0)
(-2.02587e-10 -3.58514e-09 0)
(-1.38071e-10 -2.18028e-09 0)
(-1.63307e-11 -2.29784e-09 0)
(0 0 0)
(-5.96164e-11 -2.204e-09 0)
(-6.72724e-11 -2.25153e-09 0)
(3.1075e-11 -2.15555e-09 0)
(0 0 0)
(8.98107e-11 -2.1029e-09 0)
(7.59342e-11 -2.16544e-09 0)
(7.10959e-11 -2.53481e-09 0)
(0 0 0)
(5.15946e-12 -2.1627e-09 0)
(7.54635e-11 -2.15051e-09 0)
(4.18068e-11 -4.82724e-09 0)
(1.41744e-10 -2.03869e-09 0)
(1.30807e-10 -3.18759e-09 0)
(-1.10845e-10 -3.34869e-09 0)
(-5.79171e-11 -1.91994e-09 0)
(3.25481e-12 -4.32992e-10 0)
(1.71549e-11 -1.40397e-09 0)
(2.40913e-11 -2.17077e-09 0)
(-4.40398e-11 -2.12607e-09 0)
(-8.26119e-12 -9.87314e-10 0)
(-5.56902e-13 -8.17871e-10 0)
(6.21157e-11 -2.16374e-09 0)
(-5.02927e-12 -2.12371e-09 0)
(1.3129e-11 -1.2675e-09 0)
(2.58211e-13 -2.34353e-11 0)
(-4.55519e-11 -2.18551e-09 0)
(-3.95229e-11 -2.36312e-09 0)
(0 0 0)
(1.06925e-10 -5.09569e-09 0)
(-9.12605e-11 -1.97971e-09 0)
(1.40518e-11 -2.06227e-09 0)
(-1.12702e-10 -2.1677e-09 0)
(0 0 0)
(0 0 0)
(0 0 0)
(0 0 0)
(0 0 0)
(0 0 0)
(0 0 0)
(0 0 0)
(0 0 0)
(0 0 0)
(0 0 0)
(0 0 0)
(0 0 0)
(0 0 0)
(0 0 0)
(0 0 0)
(0 0 0)
(0 0 0)
(0 0 0)
(1.11582e-10 -2.39496e-09 0)
(0 0 0)
(1.32027e-10 -1.82953e-09 0)
(2.07969e-10 -2.04855e-09 0)
(5.0696e-11 -2.26936e-09 0)
(-7.55174e-11 -2.57885e-09 0)
(0 0 0)
(2.50026e-10 -5.42864e-09 0)
(2.88854e-11 -1.93512e-09 0)
(-3.82331e-11 -1.88905e-09 0)
(-1.13138e-10 -2.07108e-09 0)
(-3.01949e-10 -4.99342e-09 0)
(-1.09017e-10 -1.97628e-09 0)
(6.45049e-11 -5.01653e-09 0)
(-9.8186e-11 -3.29722e-09 0)
(-5.91168e-11 -2.95331e-09 0)
(-5.76574e-11 -2.04895e-09 0)
(-5.96801e-11 -2.30747e-09 0)
(9.10578e-12 -2.27285e-09 0)
(-8.81299e-11 -2.35933e-09 0)
(-2.22272e-10 -2.16589e-09 0)
(-9.67793e-12 -1.67366e-10 0)
(-1.34515e-10 -2.20385e-09 0)
(7.66128e-11 -4.74846e-09 0)
(1.70052e-11 -2.01366e-09 0)
(2.1997e-12 -1.98003e-09 0)
(-1.76911e-11 -1.77066e-09 0)
(-1.00917e-10 -1.55845e-09 0)
(1.56256e-10 -1.82876e-09 0)
(-2.18072e-11 -1.98653e-09 0)
(-6.0835e-11 -2.49556e-09 0)
(0 0 0)
(9.32924e-11 -2.17272e-09 0)
(4.91897e-11 -2.39814e-09 0)
(4.10309e-13 -2.44336e-11 0)
(3.81664e-11 -2.05157e-09 0)
(4.99975e-11 -5.5794e-09 0)
(-6.62843e-11 -2.01823e-09 0)
(-9.00403e-11 -1.85983e-09 0)
(-2.35118e-11 -1.8129e-09 0)
(7.50963e-11 -5.14105e-09 0)
(3.80588e-11 -2.25017e-09 0)
(0 0 0)
(3.28531e-11 -2.16475e-09 0)
(-1.31501e-11 -2.30079e-09 0)
(1.47975e-10 -2.24174e-09 0)
(-5.31511e-11 -2.17817e-09 0)
(3.94823e-12 -3.06856e-10 0)
(2.19112e-11 -1.70042e-09 0)
(-1.04267e-10 -2.22373e-09 0)
(0 0 0)
(-1.98867e-11 -2.24696e-09 0)
(-1.18637e-11 -2.0769e-09 0)
(3.84231e-11 -2.07709e-09 0)
(5.78844e-12 -2.49817e-09 0)
(-5.44048e-12 -3.56395e-10 0)
(-3.16873e-11 -2.28846e-09 0)
(-1.77847e-11 -1.45325e-09 0)
(0 0 0)
(0 0 0)
(0 0 0)
(0 0 0)
(0 0 0)
(0 0 0)
(0 0 0)
(0 0 0)
(0 0 0)
(0 0 0)
(0 0 0)
(0 0 0)
(0 0 0)
(0 0 0)
(0 0 0)
(0 0 0)
(0 0 0)
(-4.07216e-11 -2.27691e-09 0)
(0 0 0)
(-2.02161e-12 -4.5429e-09 0)
(4.33068e-11 -4.49254e-09 0)
(-9.19745e-12 -2.4213e-09 0)
(0 0 0)
(5.33178e-11 -2.36863e-09 0)
(3.91981e-11 -2.25697e-09 0)
(1.37442e-10 -2.21734e-09 0)
(3.04952e-11 -2.1665e-09 0)
(-1.34916e-10 -2.09533e-09 0)
(-2.27313e-10 -2.18907e-09 0)
(-1.20715e-10 -2.23784e-09 0)
(-1.60356e-10 -2.26619e-09 0)
(-8.84401e-11 -2.18118e-09 0)
(2.99904e-11 -4.54144e-09 0)
(-1.90163e-11 -2.1576e-09 0)
(-1.64643e-10 -2.3158e-09 0)
(-3.19801e-11 -4.42676e-09 0)
(4.43779e-10 -2.48641e-09 0)
(-9.27675e-11 -2.10719e-09 0)
(-7.519e-11 -2.32686e-09 0)
(0 0 0)
(6.10919e-12 -4.9354e-10 0)
(1.65299e-11 -1.15661e-09 0)
(4.46766e-11 -2.13959e-09 0)
(9.23235e-11 -5.40726e-09 0)
(2.79258e-11 -2.06668e-09 0)
(3.76385e-11 -1.85485e-09 0)
(6.81214e-12 -2.08352e-09 0)
(0 0 0)
(7.50092e-11 -2.35246e-09 0)
(1.03804e-10 -2.24398e-09 0)
(3.09031e-13 -2.17881e-09 0)
(-3.88467e-11 -2.17812e-09 0)
(-1.02744e-10 -2.40115e-09 0)
(-6.02027e-11 -2.41708e-09 0)
(-5.71278e-11 -2.32107e-09 0)
(-2.79165e-11 -1.84614e-09 0)
(5.3292e-12 -1.86481e-09 0)
(8.4704e-11 -2.00818e-09 0)
(1.55054e-10 -2.10529e-09 0)
(1.02574e-10 -2.23783e-09 0)
(2.59782e-11 -2.21839e-09 0)
(-7.01309e-11 -2.24182e-09 0)
(-1.6025e-10 -2.18305e-09 0)
(2.11462e-11 -2.39891e-09 0)
(9.25345e-11 -3.51961e-09 0)
(7.24919e-12 -1.23745e-10 0)
(1.7451e-11 -2.16496e-09 0)
(0 0 0)
(-1.66088e-10 -4.66215e-09 0)
(-1.25538e-10 -1.93608e-09 0)
(-7.63365e-11 -2.08901e-09 0)
(-9.49976e-11 -2.0626e-09 0)
(-4.78046e-11 -2.14687e-09 0)
(-1.50509e-11 -2.13264e-09 0)
(0 0 0)
(0 0 0)
(0 0 0)
(0 0 0)
(0 0 0)
(0 0 0)
(0 0 0)
(0 0 0)
(0 0 0)
(0 0 0)
(0 0 0)
(0 0 0)
(0 0 0)
(0 0 0)
(0 0 0)
(0 0 0)
(0 0 0)
(0 0 0)
(-3.71101e-12 -2.50579e-09 0)
(0 0 0)
(-2.89098e-11 -1.99235e-09 0)
(-1.86778e-11 -1.91106e-09 0)
(0 0 0)
(6.72161e-11 -2.21549e-09 0)
(1.19333e-10 -2.16057e-09 0)
(1.22773e-10 -2.14166e-09 0)
(1.4781e-10 -2.16282e-09 0)
(0 0 0)
(0 0 0)
(0 0 0)
(0 0 0)
(0 0 0)
(0 0 0)
(0 0 0)
(-1.48943e-10 -5.68473e-09 0)
(0 0 0)
(0 0 0)
(-6.90046e-12 -2.26752e-09 0)
(2.1042e-10 -2.45327e-09 0)
(1.93864e-12 -2.28689e-09 0)
(-1.21019e-11 -2.33985e-09 0)
(4.96753e-11 -2.30247e-09 0)
(5.50059e-11 -2.24371e-09 0)
(2.31022e-11 -1.98537e-09 0)
(-5.16069e-11 -1.83008e-09 0)
(1.9966e-10 -4.49148e-09 0)
(6.35841e-11 -1.85273e-09 0)
(-5.67344e-12 -1.87503e-09 0)
(2.64486e-12 -1.94233e-09 0)
(1.00453e-10 -2.24261e-09 0)
(-2.48215e-11 -2.28268e-09 0)
(-3.87159e-11 -2.10535e-09 0)
(-8.80262e-11 -2.03045e-09 0)
(-1.50041e-10 -2.07091e-09 0)
(2.47154e-11 -2.31189e-09 0)
(7.47744e-11 -2.37773e-09 0)
(1.1808e-10 -2.03382e-09 0)
(9.55443e-11 -1.87093e-09 0)
(1.07986e-10 -2.02155e-09 0)
(8.94284e-11 -2.26292e-09 0)
(-9.38206e-12 -2.2742e-09 0)
(-4.94258e-11 -2.24267e-09 0)
(-4.34048e-11 -2.10686e-09 0)
(4.1985e-11 -2.27701e-09 0)
(0 0 0)
(0 0 0)
(5.27072e-11 -2.15418e-09 0)
(4.83592e-11 -2.15423e-09 0)
(9.96472e-11 -4.64637e-09 0)
(-7.6878e-11 -1.89894e-09 0)
(5.145e-11 -4.51622e-09 0)
(-6.95274e-11 -2.01307e-09 0)
(-8.90356e-11 -2.02218e-09 0)
(-2.28262e-11 -2.07671e-09 0)
(0 0 0)
(0 0 0)
(0 0 0)
(0 0 0)
(0 0 0)
(0 0 0)
(0 0 0)
(0 0 0)
(0 0 0)
(0 0 0)
(0 0 0)
(0 0 0)
(0 0 0)
(0 0 0)
(0 0 0)
(0 0 0)
(0 0 0)
(0 0 0)
(0 0 0)
(-1.28322e-10 -2.12632e-09 0)
(-1.19987e-11 -2.24333e-09 0)
(2.38924e-11 -2.15773e-09 0)
(2.58498e-11 -1.97028e-09 0)
(-4.81241e-11 -2.11396e-09 0)
(-7.0381e-12 -2.15015e-09 0)
(6.15434e-11 -2.18732e-09 0)
(1.31112e-10 -2.11082e-09 0)
(9.45418e-11 -2.16674e-09 0)
(1.07597e-10 -2.13479e-09 0)
(4.89109e-11 -2.08033e-09 0)
(-2.85577e-12 -2.07056e-09 0)
(3.66715e-11 -2.19444e-09 0)
(3.93424e-11 -2.32353e-09 0)
(-1.45479e-11 -1.79099e-10 0)
(-1.13823e-10 -2.82532e-09 0)
(-3.86541e-10 -2.29657e-09 0)
(1.19244e-10 -1.75377e-09 0)
(6.91619e-11 -2.17923e-09 0)
(-9.11658e-11 -2.27549e-09 0)
(-8.29728e-11 -2.36442e-09 0)
(-9.04227e-11 -2.40329e-09 0)
(-5.06256e-11 -2.22677e-09 0)
(-2.32546e-11 -2.11779e-09 0)
(9.25025e-11 -1.99968e-09 0)
(1.04119e-10 -2.00592e-09 0)
(8.48854e-11 -4.50747e-09 0)
(5.08353e-11 -1.97323e-09 0)
(-1.2374e-10 -3.42839e-09 0)
(8.08484e-12 -2.44989e-09 0)
(5.86868e-11 -1.87586e-09 0)
(3.93082e-12 -2.43321e-09 0)
(1.3748e-11 -2.06257e-09 0)
(-5.97148e-12 -1.9435e-09 0)
(3.66188e-13 -2.03364e-09 0)
(-9.43829e-11 -1.97962e-09 0)
(-5.73507e-11 -2.29018e-09 0)
(1.27483e-10 -2.26855e-09 0)
(1.73657e-10 -2.1062e-09 0)
(9.51166e-11 -1.89527e-09 0)
(-4.58485e-11 -2.53281e-09 0)
(-5.28705e-11 -2.51758e-09 0)
(2.69131e-11 -2.35886e-09 0)
(1.05957e-11 -2.06141e-09 0)
(6.05443e-11 -2.00482e-09 0)
(1.29105e-10 -2.16697e-09 0)
(8.29956e-11 -2.16054e-09 0)
(6.202e-11 -2.18937e-09 0)
(0 0 0)
(0 0 0)
(0 0 0)
(-8.25894e-11 -2.19903e-09 0)
(-1.26649e-10 -2.20093e-09 0)
(-9.98036e-11 -2.48898e-09 0)
(-5.13013e-11 -1.78535e-09 0)
(0 0 0)
(0 0 0)
(0 0 0)
(0 0 0)
(0 0 0)
(0 0 0)
(0 0 0)
(0 0 0)
(0 0 0)
(0 0 0)
(0 0 0)
(0 0 0)
(0 0 0)
(0 0 0)
(0 0 0)
(0 0 0)
(0 0 0)
(0 0 0)
(0 0 0)
(0 0 0)
(-4.118e-11 -1.98633e-09 0)
(7.85393e-11 -2.415e-09 0)
(4.2198e-11 -3.06134e-09 0)
(-1.70088e-11 -3.95741e-09 0)
(9.65151e-12 -2.16139e-09 0)
(0 0 0)
(6.18749e-11 -2.11467e-09 0)
(6.54725e-11 -2.15809e-09 0)
(7.64253e-11 -2.18754e-09 0)
(0 0 0)
(9.52973e-11 -4.61853e-09 0)
(1.71076e-11 -1.90824e-09 0)
(1.2302e-11 -2.06255e-09 0)
(1.72757e-11 -5.08676e-09 0)
(6.41388e-11 -1.98822e-09 0)
(-5.937e-10 -3.39411e-09 0)
(1.82463e-11 -2.09873e-09 0)
(-3.91542e-11 -2.30598e-09 0)
(-7.79672e-12 -1.18624e-09 0)
(-4.05364e-11 -2.85373e-09 0)
(6.46021e-14 -2.38309e-09 0)
(3.05273e-11 -2.22215e-09 0)
(-1.51115e-11 -2.15442e-09 0)
(1.00137e-11 -2.03568e-09 0)
(4.24962e-11 -2.23993e-09 0)
(1.68186e-11 -2.27994e-09 0)
(1.98862e-12 -1.50653e-10 0)
(2.93639e-11 -4.81752e-09 0)
(-2.4314e-11 -1.94054e-09 0)
(-2.1691e-11 -1.80042e-09 0)
(-1.08377e-11 -2.02812e-09 0)
(-4.71933e-11 -2.2542e-09 0)
(-2.29738e-11 -2.21976e-09 0)
(-3.37842e-11 -2.63635e-09 0)
(-9.50653e-11 -4.12849e-09 0)
(-8.07577e-11 -2.06413e-09 0)
(1.01313e-11 -9.86845e-10 0)
(4.62683e-12 -3.79323e-10 0)
(9.09312e-11 -2.17416e-09 0)
(-1.23085e-11 -2.19814e-09 0)
(-1.17514e-10 -2.23079e-09 0)
(-6.50645e-11 -2.33303e-09 0)
(1.17824e-11 -2.30437e-09 0)
(8.22096e-11 -2.18938e-09 0)
(1.30175e-10 -2.05343e-09 0)
(3.71217e-10 -5.15326e-09 0)
(9.27262e-11 -2.01073e-09 0)
(1.0561e-10 -2.02483e-09 0)
(1.1747e-10 -3.01477e-09 0)
(-5.82555e-11 -3.37661e-09 0)
(1.79263e-10 -4.47908e-09 0)
(-5.01303e-11 -1.86331e-09 0)
(-6.18878e-12 -2.15549e-09 0)
(0 0 0)
(0 0 0)
(0 0 0)
(0 0 0)
(0 0 0)
(0 0 0)
(0 0 0)
(0 0 0)
(0 0 0)
(0 0 0)
(0 0 0)
(0 0 0)
(0 0 0)
(0 0 0)
(0 0 0)
(0 0 0)
(0 0 0)
(0 0 0)
(0 0 0)
(0 0 0)
(0 0 0)
(0 0 0)
(4.32992e-12 -2.09809e-09 0)
(-8.23009e-12 -2.14901e-09 0)
(1.38316e-11 -2.22545e-09 0)
(3.07583e-12 -2.29292e-09 0)
(9.96035e-11 -2.27036e-09 0)
(1.83828e-10 -2.33364e-09 0)
(6.24118e-11 -2.20088e-09 0)
(3.01329e-11 -2.10833e-09 0)
(1.66312e-11 -2.05165e-09 0)
(-2.85518e-11 -2.09824e-09 0)
(0 0 0)
(-3.85898e-11 -4.43471e-09 0)
(-5.32108e-11 -4.49094e-09 0)
(-1.97831e-11 -2.06735e-09 0)
(-1.15369e-10 -2.13416e-09 0)
(3.76235e-11 -2.19705e-09 0)
(2.64433e-11 -2.17667e-09 0)
(-5.15426e-11 -2.18395e-09 0)
(2.26118e-11 -2.17484e-09 0)
(-7.81513e-11 -2.58203e-09 0)
(5.15517e-11 -4.70531e-09 0)
(1.22478e-10 -2.60472e-09 0)
(0 0 0)
(5.43348e-11 -2.16008e-09 0)
(5.68409e-11 -2.2181e-09 0)
(0 0 0)
(-1.06204e-10 -2.17207e-09 0)
(-4.39478e-11 -2.24539e-09 0)
(3.11602e-11 -2.17237e-09 0)
(2.87039e-11 -2.03642e-09 0)
(-5.00788e-11 -2.08487e-09 0)
(-5.4156e-11 -2.04156e-09 0)
(9.14216e-11 -4.6308e-09 0)
(-1.56042e-11 -1.9019e-09 0)
(-1.97326e-10 -4.72517e-09 0)
(3.71029e-11 -1.92755e-09 0)
(1.09869e-10 -2.26719e-09 0)
(0 0 0)
(3.80387e-11 -2.17786e-09 0)
(-3.99271e-11 -2.15913e-09 0)
(-1.01841e-10 -2.23647e-09 0)
(-8.61446e-11 -2.27686e-09 0)
(7.07528e-12 -2.2007e-09 0)
(1.36136e-10 -2.13855e-09 0)
(1.6e-11 -2.11433e-09 0)
(1.76072e-10 -5.10332e-09 0)
(2.0651e-10 -2.13704e-09 0)
(-1.44271e-10 -4.4668e-09 0)
(-1.55345e-11 -1.85533e-09 0)
(-4.02795e-11 -2.74445e-09 0)
(1.11138e-10 -3.54431e-09 0)
(-8.17872e-11 -1.90439e-09 0)
(-1.90323e-11 -2.10668e-09 0)
(0 0 0)
(0 0 0)
(0 0 0)
(0 0 0)
(0 0 0)
(0 0 0)
(0 0 0)
(0 0 0)
(0 0 0)
(0 0 0)
(0 0 0)
(0 0 0)
(0 0 0)
(0 0 0)
(0 0 0)
(0 0 0)
(0 0 0)
(0 0 0)
(0 0 0)
(0 0 0)
(0 0 0)
(0 0 0)
(1.42424e-11 -2.07645e-09 0)
(2.46342e-11 -2.11688e-09 0)
(5.21747e-11 -2.21108e-09 0)
(8.90501e-11 -2.23038e-09 0)
(1.92184e-10 -2.27469e-09 0)
(1.66358e-10 -2.24561e-09 0)
(-6.50844e-11 -3.31904e-09 0)
(-8.8605e-11 -3.85176e-09 0)
(-1.31393e-10 -2.13552e-09 0)
(0 0 0)
(3.34387e-11 -2.12461e-09 0)
(-5.8037e-11 -2.14636e-09 0)
(-6.64223e-11 -2.12614e-09 0)
(-3.09681e-11 -2.09546e-09 0)
(0 0 0)
(6.50928e-11 -2.18174e-09 0)
(-2.15248e-12 -2.28314e-09 0)
(-1.54982e-10 -2.18385e-09 0)
(6.11213e-11 -4.90613e-09 0)
(5.58165e-11 -2.16271e-09 0)
(9.16099e-12 -1.94211e-10 0)
(1.03434e-10 -2.04746e-09 0)
(8.43781e-11 -2.55549e-09 0)
(4.18936e-11 -2.22879e-09 0)
(2.63287e-11 -2.1807e-09 0)
(1.2801e-11 -2.38024e-09 0)
(0 0 0)
(-2.78558e-11 -2.10929e-09 0)
(3.36671e-11 -2.06497e-09 0)
(-3.13799e-11 -1.92492e-09 0)
(-4.21526e-11 -2.05837e-09 0)
(7.9847e-11 -3.35095e-09 0)
(6.09536e-11 -2.89777e-09 0)
(1.21473e-11 -2.12229e-09 0)
(-7.42037e-11 -2.07746e-09 0)
(-1.06402e-11 -2.04746e-09 0)
(6.68824e-11 -2.22642e-09 0)
(2.86531e-11 -2.25863e-09 0)
(-1.26175e-10 -2.20327e-09 0)
(-1.54726e-10 -2.12698e-09 0)
(-6.08965e-11 -2.49702e-09 0)
(-3.36968e-12 -1.07377e-09 0)
(-9.36871e-14 -1.81562e-09 0)
(5.27555e-11 -3.50291e-09 0)
(7.81753e-11 -2.04186e-09 0)
(-3.17457e-12 -1.9527e-09 0)
(1.37964e-10 -5.13449e-09 0)
(9.41607e-11 -1.89977e-09 0)
(-7.35898e-11 -4.23194e-09 0)
(1.9096e-11 -1.85761e-09 0)
(2.64501e-11 -1.96882e-09 0)
(-3.83325e-11 -2.04341e-09 0)
(-9.11411e-11 -2.10046e-09 0)
(-9.66274e-11 -2.17029e-09 0)
(0 0 0)
(0 0 0)
(0 0 0)
(0 0 0)
(0 0 0)
(0 0 0)
(0 0 0)
(0 0 0)
(0 0 0)
(0 0 0)
(0 0 0)
(0 0 0)
(0 0 0)
(0 0 0)
(0 0 0)
(0 0 0)
(0 0 0)
(0 0 0)
(0 0 0)
(0 0 0)
(0 0 0)
(7.8468e-11 -2.15232e-09 0)
(1.3727e-10 -2.09103e-09 0)
(1.58881e-10 -3.2076e-09 0)
(1.05596e-10 -2.14187e-09 0)
(3.67775e-11 -3.24491e-09 0)
(4.20667e-11 -5.60284e-09 0)
(-5.82288e-11 -2.18137e-09 0)
(-4.20287e-11 -1.92817e-09 0)
(-4.36186e-11 -2.04066e-09 0)
(3.48396e-12 -2.09767e-09 0)
(-3.61905e-11 -2.14897e-09 0)
(-8.45984e-11 -2.08691e-09 0)
(-5.33543e-11 -2.06362e-09 0)
(-1.42245e-11 -2.03984e-09 0)
(-3.72121e-12 -2.2115e-09 0)
(5.19404e-11 -2.44287e-09 0)
(0 0 0)