/*--------------------------------*- C++ -*----------------------------------*\
  =========                 |
  \\      /  F ield         | OpenFOAM: The Open Source CFD Toolbox
   \\    /   O peration     | Website:  https://openfoam.org
    \\  /    A nd           | Version:  12
     \\/     M anipulation  |
\*---------------------------------------------------------------------------*/
FoamFile
{
    format      ascii;
    class       volScalarField;
    location    "0.4";
    object      p;
}
// * * * * * * * * * * * * * * * * * * * * * * * * * * * * * * * * * * * * * //

dimensions      [0 2 -2 0 0 0 0];

internalField   nonuniform List<scalar> 
3750
(
0.731249
0.721084
0.723597
0.707371
0.701413
0.696881
0.683844
0.675119
0.66465
0.654493
0.644625
0.635022
0.625308
0.61416
0.604423
0.594794
0.584932
0.570587
0.559561
0.548429
0.548345
0.551106
0.53559
0.52311
0.511281
0.496024
0.480717
0.481372
0.472313
0.461821
0.451933
0.442481
0.433439
0.424899
0.413954
0.404909
0.397144
0.382518
0.368966
0.355075
0.347241
0.336731
0.327829
0.319512
0.310516
0.300011
0.289613
0.278756
0.267455
0.255885
0.244141
0.231465
0.221041
0.21044
0.200251
0.191283
0.176333
0.167192
0.156495
0.144739
0.133922
0.131298
0.128682
0.116989
0.105458
0.094749
0.0843927
0.0742182
0.0641488
0.054152
0.0442258
0.0343535
0.0245028
0.0145937
0.00480419
0.732024
0.721873
0.719173
0.706677
0.700208
0.695024
0.687856
0.676019
0.664211
0.654208
0.64449
0.634642
0.624584
0.614116
0.604821
0.595434
0.584055
0.57265
0.561372
0.551759
0.54561
0.543128
0.535702
0.524005
0.510561
0.498224
0.487344
0.480354
0.47144
0.461596
0.451536
0.442043
0.432835
0.427767
0.41322
0.403356
0.393597
0.381638
0.36927
0.357249
0.348948
0.337197
0.327714
0.321054
0.313044
0.298603
0.290119
0.279407
0.26773
0.255987
0.245137
0.228611
0.221727
0.21032
0.199493
0.187546
0.180241
0.168326
0.157503
0.147041
0.137611
0.131209
0.124627
0.115026
0.104693
0.0943962
0.0842086
0.0741092
0.064072
0.0540833
0.0441716
0.0343294
0.0244749
0.0145584
0.00477845
0.734183
0.72445
0.716508
0.707689
0.700015
0.692864
0.685088
0.67698
0.662026
0.653664
0.644451
0.633555
0.623871
0.6142
0.605344
0.597355
0.583311
0.574126
0.562396
0.552297
0.542249
0.538729
0.533827
0.528037
0.509123
0.49962
0.490268
0.480652
0.471214
0.461639
0.450561
0.440866
0.430563
0.428101
0.417401
0.401365
0.392146
0.381059
0.369216
0.357104
0.35155
0.337529
0.326436
0.322094
0.310608
0.301302
0.293369
0.280983
0.268088
0.255384
0.242284
0.226987
0.222904
0.211144
0.199893
0.189855
0.178222
0.16838
0.158261
0.148437
0.139338
0.131068
0.122811
0.113625
0.103863
0.0939149
0.0839221
0.0739347
0.0639677
0.0540305
0.0441402
0.0342996
0.0244533
0.0145376
0.00473751
0.735184
0.725732
0.715608
0.707289
0.698841
0.691108
0.681234
0.67431
0.663367
0.654112
0.645034
0.63204
0.622765
0.613438
0.606519
0.597377
0.586057
0.577863
0.561907
0.553244
0.544118
0.536582
0.530517
0.523553
0.508657
0.50095
0.49293
0.481534
0.471703
0.462563
0.44921
0.438382
0.434264
0.424772
0.414682
0.402707
0.39225
0.381215
0.369133
0.360221
0.349981
0.339233
0.328646
0.319751
0.307788
0.302721
0.29947
0.282782
0.268231
0.255131
0.241049
0.226933
0.217133
0.213337
0.199517
0.189415
0.178432
0.168543
0.158708
0.149102
0.139893
0.130954
0.122047
0.112794
0.103221
0.0934663
0.0836206
0.0737403
0.0638497
0.0539658
0.044106
0.0342736
0.0244291
0.0145086
0.00471915
0.73536
0.727766
0.713699
0.706711
0.696855
0.691019
0.676464
0.673697
0.66252
0.654731
0.644594
0.632699
0.621702
0.611105
0.608022
0.597591
0.587534
0.578851
0.564296
0.554883
0.54511
0.535302
0.524431
0.520214
0.510711
0.502341
0.496251
0.481003
0.472413
0.459571
0.454143
0.440783
0.434921
0.421068
0.412502
0.402545
0.392521
0.38101
0.366472
0.360392
0.35227
0.340973
0.330212
0.319533
0.309294
0.30034
0.295468
0.282581
0.268349
0.255672
0.245113
0.227383
0.216739
0.210926
0.199543
0.189119
0.178661
0.168664
0.15891
0.149363
0.140032
0.130836
0.121642
0.112292
0.102767
0.0931046
0.0833546
0.073552
0.0637239
0.0538857
0.0440528
0.0342322
0.0243935
0.0144808
0.00470555
0.732492
0.72551
0.715854
0.708478
0.693393
0.693514
0.676357
0.669845
0.658976
0.655182
0.644883
0.633138
0.62207
0.612205
0.604268
0.596577
0.588809
0.581333
0.567833
0.556854
0.546134
0.535343
0.524498
0.52194
0.511126
0.500956
0.492873
0.479772
0.475015
0.460643
0.452989
0.441015
0.431434
0.421484
0.412413
0.402884
0.394605
0.379705
0.362281
0.360113
0.357998
0.343044
0.331002
0.319465
0.303757
0.299415
0.295426
0.282873
0.270474
0.25335
0.243163
0.229389
0.219323
0.210379
0.199702
0.188836
0.178472
0.168556
0.158898
0.149403
0.140026
0.130711
0.12138
0.111968
0.102446
0.092827
0.0831384
0.0733912
0.0636071
0.0538036
0.0439939
0.0341865
0.0243554
0.0144559
0.00469464
0.734236
0.72516
0.715516
0.707852
0.696844
0.689459
0.67897
0.670353
0.660536
0.65052
0.64487
0.633095
0.622835
0.612582
0.600817
0.595523
0.588517
0.585755
0.570006
0.558855
0.546863
0.537438
0.526972
0.523227
0.510315
0.497138
0.491775
0.481584
0.47326
0.461755
0.45226
0.440119
0.428383
0.42051
0.413395
0.403104
0.392216
0.379573
0.367233
0.359864
0.353069
0.341995
0.330924
0.320933
0.308659
0.298501
0.291853
0.283749
0.269312
0.254666
0.240657
0.230287
0.221269
0.212018
0.200171
0.187964
0.177829
0.168193
0.158722
0.149324
0.139963
0.130609
0.12122
0.111766
0.102236
0.0926359
0.0829766
0.0732608
0.0635061
0.0537266
0.0439369
0.0341435
0.0243212
0.0144321
0.00468559
0.733697
0.725798
0.714504
0.710038
0.697833
0.687705
0.678815
0.672571
0.663988
0.651268
0.639463
0.630922
0.623641
0.614944
0.603902
0.596184
0.583973
0.584562
0.571607
0.561438
0.546658
0.536648
0.52947
0.521475
0.509105
0.496806
0.494382
0.482242
0.471178
0.461516
0.453633
0.440911
0.423435
0.419444
0.415594
0.403516
0.391562
0.379494
0.368643
0.35938
0.350257
0.340676
0.330762
0.320671
0.310194
0.299426
0.28871
0.280235
0.267955
0.25526
0.243199
0.23151
0.224724
0.216632
0.200903
0.185194
0.176669
0.167664
0.158473
0.149208
0.139896
0.130538
0.121125
0.11165
0.102111
0.0925151
0.0828648
0.0731642
0.0634273
0.0536646
0.0438897
0.0341079
0.0242937
0.0144116
0.0046785
0.733105
0.730457
0.717443
0.707453
0.696834
0.686395
0.676295
0.675558
0.663049
0.652086
0.640793
0.627992
0.625534
0.618884
0.604285
0.592296
0.585653
0.581461
0.574549
0.561823
0.547758
0.533861
0.531285
0.524207
0.508279
0.499502
0.493409
0.482324
0.468125
0.459998
0.4516
0.440988
0.428404
0.419602
0.413389
0.404294
0.391149
0.377234
0.368421
0.358409
0.348587
0.339754
0.330101
0.320295
0.30802
0.301961
0.289348
0.279083
0.266242
0.254858
0.244511
0.230899
0.228193
0.218121
0.201421
0.185627
0.176224
0.167357
0.158299
0.149133
0.13987
0.13052
0.121094
0.111601
0.102048
0.092447
0.0827979
0.0731032
0.0633741
0.0536209
0.0438546
0.0340806
0.0242721
0.0143961
0.00467302
0.736008
0.732918
0.719274
0.703899
0.694744
0.685105
0.676232
0.674474
0.66426
0.653099
0.641867
0.62808
0.621808
0.618892
0.607359
0.591507
0.585311
0.579725
0.573274
0.56674
0.545693
0.541681
0.528179
0.523867
0.510461
0.500425
0.491674
0.479373
0.468572
0.458629
0.446226
0.443523
0.430968
0.421656
0.410518
0.39854
0.390703
0.379191
0.369727
0.35935
0.345235
0.33991
0.330043
0.322769
0.309622
0.298317
0.289953
0.280706
0.263318
0.254018
0.245078
0.232702
0.226955
0.215203
0.200931
0.190071
0.177211
0.167201
0.158213
0.149155
0.139929
0.130576
0.12113
0.111612
0.10204
0.0924277
0.0827718
0.0730736
0.063345
0.0535956
0.0438337
0.0340629
0.0242592
0.0143855
0.0046699
0.738271
0.728324
0.717038
0.704276
0.69357
0.684459
0.680387
0.669893
0.665502
0.653635
0.641583
0.62796
0.624421
0.614641
0.611626
0.594115
0.58465
0.578853
0.571846
0.562329
0.550606
0.544455
0.530464
0.519566
0.509613
0.499681
0.490593
0.480071
0.468203
0.458032
0.444055
0.4421
0.42998
0.417974
0.41338
0.39323
0.385001
0.382598
0.372432
0.358341
0.344262
0.341701
0.328985
0.320593
0.310442
0.300504
0.291579
0.280393
0.262452
0.253669
0.244435
0.234016
0.225225
0.214519
0.199669
0.195694
0.179526
0.165908
0.158171
0.149345
0.140119
0.130724
0.121236
0.111686
0.102089
0.092455
0.0827812
0.0730726
0.0633377
0.0535862
0.0438249
0.0340548
0.0242522
0.0143796
0.00466737
0.734235
0.726777
0.716748
0.703926
0.691643
0.688698
0.680367
0.670464
0.662789
0.652707
0.641858
0.631251
0.623833
0.614966
0.607715
0.596171
0.585124
0.579352
0.572451
0.558197
0.550257
0.541745
0.531528
0.522722
0.50831
0.498349
0.487684
0.483102
0.46777
0.457535
0.445804
0.438466
0.428758
0.417639
0.40882
0.391432
0.385747
0.380862
0.375334
0.35849
0.344523
0.33829
0.328807
0.320275
0.31084
0.301651
0.294444
0.277755
0.262539
0.253862
0.244252
0.234186
0.224495
0.213568
0.201381
0.192549
0.180459
0.168997
0.15935
0.149929
0.140477
0.130966
0.121405
0.111806
0.102175
0.0925127
0.0828182
0.0730959
0.0633532
0.0535948
0.0438285
0.0340568
0.0242525
0.0143783
0.00466715
0.73029
0.727868
0.717585
0.70473
0.693657
0.688452
0.680362
0.670924
0.661698
0.652
0.642001
0.632148
0.623343
0.614728
0.606619
0.595417
0.584257
0.580121
0.570139
0.558484
0.549567
0.540849
0.531399
0.521509
0.511489
0.498522
0.488731
0.481399
0.467984
0.457185
0.445451
0.436714
0.429435
0.417585
0.406685
0.394465
0.386221
0.378354
0.371062
0.356632
0.342695
0.335962
0.328567
0.320979
0.311029
0.300932
0.291486
0.278521
0.2662
0.255105
0.244487
0.234186
0.224142
0.213677
0.201619
0.191435
0.180813
0.17029
0.160283
0.150544
0.140892
0.131257
0.121612
0.111958
0.102287
0.0925935
0.0828768
0.0731377
0.0633831
0.0536157
0.0438425
0.0340663
0.0242575
0.0143803
0.00466704
0.732468
0.72603
0.716903
0.704524
0.696893
0.689081
0.680263
0.670875
0.66131
0.651719
0.641979
0.632238
0.622675
0.61381
0.608707
0.595658
0.585418
0.576724
0.569049
0.556715
0.548501
0.540702
0.531615
0.521886
0.51184
0.500264
0.489164
0.479088
0.471479
0.455489
0.444108
0.434977
0.431711
0.417623
0.406102
0.395777
0.386567
0.376106
0.36778
0.354294
0.339337
0.334603
0.328254
0.322622
0.310289
0.299546
0.291153
0.279758
0.268604
0.255802
0.24463
0.233927
0.224199
0.215484
0.200051
0.191062
0.181134
0.170976
0.160952
0.151079
0.141296
0.131556
0.121841
0.112132
0.102421
0.0926952
0.0829534
0.073197
0.0634278
0.0536489
0.0438668
0.0340838
0.0242686
0.0143867
0.00466941
0.733656
0.725463
0.717444
0.700942
0.699303
0.690138
0.680709
0.670922
0.661016
0.651528
0.641873
0.631856
0.621608
0.610301
0.606998
0.592649
0.585319
0.573562
0.571745
0.552576
0.547089
0.541587
0.532342
0.522088
0.512118
0.501535
0.49025
0.475104
0.471625
0.456679
0.445438
0.436757
0.429964
0.418946
0.404253
0.395859
0.388337
0.372923
0.364912
0.353993
0.342671
0.335301
0.327255
0.318541
0.307898
0.295978
0.292443
0.28231
0.271393
0.254889
0.244068
0.232713
0.223184
0.213776
0.202076
0.191767
0.181625
0.1715
0.161463
0.151527
0.141668
0.131859
0.122082
0.112321
0.102567
0.0928094
0.0830436
0.0732689
0.0634828
0.0536909
0.0438985
0.0341067
0.0242831
0.014395
0.00467135
0.734208
0.725276
0.715976
0.704946
0.69805
0.690155
0.68191
0.671304
0.660389
0.651438
0.641791
0.631831
0.621544
0.611598
0.60389
0.593222
0.584835
0.575029
0.569136
0.557117
0.546145
0.536562
0.532034
0.521501
0.511536
0.498994
0.490193
0.478355
0.470167
0.456557
0.446288
0.437442
0.427717
0.415902
0.406482
0.394327
0.386278
0.373098
0.364625
0.354448
0.344181
0.336938
0.326294
0.315229
0.306768
0.294568
0.29191
0.28386
0.270192
0.25824
0.242719
0.231272
0.22303
0.213292
0.202737
0.192345
0.182095
0.171937
0.161871
0.151893
0.141987
0.13213
0.122309
0.112509
0.102718
0.0929307
0.0831411
0.0733469
0.0635454
0.0537402
0.0439364
0.0341348
0.0243021
0.0144066
0.00467567
0.735791
0.726372
0.717131
0.706353
0.696572
0.689328
0.685186
0.670493
0.660397
0.652138
0.642275
0.632094
0.621668
0.611436
0.602133
0.591372
0.584867
0.576432
0.567156
0.557041
0.549064
0.536241
0.528445
0.520775
0.510216
0.497862
0.49255
0.480287
0.469338
0.455331
0.446172
0.437881
0.423031
0.413963
0.407097
0.395265
0.384359
0.373619
0.366154
0.355748
0.344153
0.341557
0.325797
0.310413
0.307494
0.29463
0.286919
0.283619
0.270426
0.255766
0.24242
0.232856
0.223525
0.213566
0.203201
0.192772
0.182467
0.172284
0.162199
0.152194
0.142255
0.132365
0.122513
0.112681
0.102864
0.0930529
0.0832425
0.0734291
0.0636121
0.0537938
0.0439782
0.0341657
0.0243227
0.0144189
0.00467906
0.73686
0.727242
0.719575
0.706665
0.692793
0.685696
0.685841
0.672962
0.663214
0.653348
0.642887
0.632622
0.621607
0.610274
0.600921
0.587517
0.585565
0.577602
0.565975
0.555735
0.545717
0.535385
0.531765
0.522194
0.511291
0.499124
0.490835
0.480088
0.467517
0.454646
0.444803
0.434913
0.423498
0.413048
0.409173
0.397315
0.381668
0.373191
0.369839
0.358368
0.345909
0.336548
0.324952
0.313529
0.305591
0.294898
0.287882
0.280476
0.269292
0.257522
0.239029
0.234837
0.222974
0.214354
0.203711
0.193086
0.182721
0.172528
0.162445
0.152432
0.142476
0.132567
0.122689
0.112836
0.103002
0.0931717
0.0833436
0.073514
0.0636822
0.0538507
0.0440231
0.0341997
0.0243465
0.0144331
0.00468432
0.737694
0.726219
0.716659
0.706105
0.694912
0.686262
0.684238
0.674222
0.665993
0.654783
0.645082
0.631741
0.621738
0.609105
0.599851
0.588673
0.581331
0.580804
0.563042
0.554054
0.543376
0.536675
0.532015
0.524653
0.512787
0.500184
0.490499
0.479762
0.466793
0.452054
0.443308
0.432729
0.423397
0.414771
0.407304
0.395752
0.382519
0.379224
0.369925
0.360956
0.344784
0.332641
0.324224
0.31471
0.304775
0.29269
0.289257
0.278264
0.266058
0.256944
0.244535
0.234021
0.220275
0.21614
0.20398
0.193143
0.182809
0.17266
0.162608
0.15261
0.142655
0.132741
0.122857
0.112992
0.103136
0.093289
0.0834453
0.0736007
0.0637537
0.0539087
0.0440693
0.0342343
0.0243706
0.0144473
0.00468918
0.740256
0.724531
0.71481
0.701718
0.699544
0.692385
0.678173
0.674059
0.662354
0.658138
0.645311
0.633173
0.624487
0.608911
0.599559
0.589402
0.5816
0.577251
0.561908
0.554484
0.537929
0.538168
0.533288
0.52845
0.512071
0.499937
0.491333
0.47947
0.463266
0.453104
0.443529
0.429741
0.423415
0.416681
0.407276
0.396512
0.38354
0.381149
0.368666
0.360087
0.343546
0.33186
0.324188
0.315428
0.305983
0.294876
0.286477
0.276988
0.262266
0.259296
0.248686
0.233195
0.220854
0.213027
0.202881
0.192768
0.182721
0.172699
0.162706
0.152738
0.142798
0.132884
0.122994
0.113121
0.103256
0.0933968
0.0835414
0.073684
0.0638253
0.0539686
0.0441172
0.0342708
0.0243971
0.0144629
0.00469498
0.739739
0.726917
0.715872
0.698396
0.699321
0.693476
0.682894
0.670378
0.662502
0.656599
0.644543
0.631523
0.622818
0.612794
0.601424
0.587961
0.581028
0.573696
0.563039
0.553381
0.540142
0.543234
0.534553
0.526373
0.511279
0.495533
0.493235
0.475842
0.464629
0.453634
0.442488
0.425847
0.423954
0.419503
0.408508
0.399596
0.385511
0.377784
0.36817
0.355108
0.343182
0.333587
0.325062
0.316983
0.308833
0.297839
0.283638
0.27466
0.262059
0.257246
0.246966
0.235121
0.224741
0.210184
0.201682
0.192364
0.182606
0.172703
0.162774
0.152842
0.142921
0.133016
0.123126
0.113245
0.103371
0.0935017
0.083635
0.0737656
0.063895
0.0540266
0.044164
0.0343066
0.0244231
0.0144777
0.00470024
0.744122
0.727112
0.714113
0.699354
0.698049
0.695525
0.681218
0.67107
0.661293
0.650541
0.646363
0.633337
0.622303
0.61218
0.600826
0.589679
0.580614
0.573794
0.563446
0.55243
0.540968
0.541386
0.534468
0.5286
0.511717
0.497678
0.487014
0.477771
0.46623
0.454209
0.442497
0.424948
0.425743
0.416129
0.407899
0.39758
0.387346
0.376496
0.363423
0.353249
0.344464
0.334776
0.325288
0.31875
0.309813
0.298423
0.285366
0.274858
0.260828
0.257674
0.246248
0.234008
0.223334
0.211499
0.201506
0.192398
0.182611
0.172725
0.162842
0.152945
0.143046
0.133148
0.123255
0.113367
0.103484
0.0936038
0.0837253
0.0738459
0.0639647
0.0540858
0.0442124
0.0343437
0.0244503
0.0144938
0.00470624
0.740514
0.723644
0.715274
0.704386
0.698282
0.692262
0.681328
0.671156
0.661344
0.65134
0.641746
0.63549
0.620851
0.611822
0.601087
0.589928
0.578878
0.57582
0.564255
0.553151
0.540931
0.536524
0.532905
0.529226
0.509231
0.497611
0.488834
0.481663
0.469563
0.452638
0.438851
0.429172
0.423772
0.414236
0.406465
0.39719
0.387668
0.375531
0.362477
0.350193
0.3462
0.336017
0.324547
0.321123
0.310729
0.301428
0.28521
0.274555
0.26277
0.254982
0.245402
0.233051
0.222614
0.210956
0.200319
0.193192
0.182758
0.17279
0.16292
0.153046
0.143163
0.133273
0.123379
0.113484
0.103594
0.0937039
0.0838133
0.0739252
0.0640339
0.0541441
0.0442596
0.0343806
0.0244754
0.0145098
0.00471127
0.736699
0.72342
0.71867
0.706451
0.698597
0.690683
0.681097
0.671124
0.661619
0.652356
0.643521
0.631198
0.619835
0.613044
0.601235
0.589727
0.581699
0.574477
0.564535
0.554699
0.546455
0.531704
0.530976
0.522154
0.508798
0.496608
0.48914
0.483592
0.470246
0.454719
0.437857
0.429287
0.422882
0.413282
0.403266
0.400011
0.389847
0.373897
0.362473
0.35174
0.342962
0.337795
0.326739
0.31949
0.310664
0.301069
0.289856
0.274838
0.262956
0.252837
0.24264
0.23532
0.222433
0.209435
0.197291
0.19546
0.182363
0.172798
0.163004
0.153154
0.143283
0.133399
0.123503
0.113603
0.103703
0.0938065
0.0839079
0.0740058
0.0641037
0.0542028
0.0443076
0.0344179
0.0245024
0.0145262
0.00471719
0.738684
0.724493
0.716811
0.706078
0.69994
0.691136
0.681456
0.671346
0.661726
0.652804
0.643915
0.62704
0.620545
0.618156
0.600746
0.58845
0.583678
0.573404
0.564557
0.555721
0.547994
0.535877
0.525962
0.518719
0.506901
0.501623
0.487607
0.478935
0.468681
0.452649
0.4407
0.428206
0.423995
0.41284
0.405564
0.397849
0.387971
0.377751
0.362383
0.353965
0.345279
0.334811
0.32608
0.317493
0.311489
0.30245
0.287806
0.27189
0.261184
0.250883
0.2451
0.235626
0.222748
0.208146
0.203411
0.194662
0.182982
0.172978
0.16314
0.153291
0.143423
0.133533
0.123629
0.113725
0.103818
0.0939073
0.083997
0.0740847
0.0641716
0.054261
0.0443549
0.0344541
0.0245283
0.0145421
0.00472264
0.737406
0.726248
0.716733
0.706046
0.702283
0.692094
0.682326
0.671119
0.661044
0.653017
0.645498
0.630757
0.618439
0.614104
0.604977
0.592091
0.581918
0.571947
0.563455
0.555518
0.549023
0.534344
0.526899
0.519317
0.510901
0.499634
0.487573
0.474747
0.465005
0.452613
0.444095
0.430279
0.420862
0.410643
0.407809
0.396811
0.386587
0.376542
0.365298
0.356184
0.343072
0.336838
0.324588
0.314168
0.312145
0.299585
0.286909
0.2751
0.259274
0.24627
0.246445
0.241841
0.224637
0.209603
0.203475
0.192791
0.182825
0.173079
0.163286
0.153445
0.143571
0.133673
0.123763
0.113847
0.10393
0.0940115
0.0840891
0.0741648
0.0642406
0.0543189
0.0444021
0.0344909
0.024555
0.0145585
0.00472854
0.73687
0.724424
0.718947
0.709564
0.702367
0.692304
0.682422
0.670231
0.658727
0.65278
0.644007
0.633408
0.620493
0.61336
0.606027
0.593855
0.58215
0.569937
0.561508
0.553911
0.546459
0.53712
0.528991
0.521916
0.507889
0.499982
0.484912
0.477419
0.463111
0.451679
0.443145
0.432338
0.421859
0.412854
0.4045
0.394855
0.385095
0.376741
0.366102
0.356562
0.348863
0.334318
0.322023
0.313263
0.309188
0.298577
0.285311
0.272142
0.258363
0.251815
0.251367
0.236521
0.224485
0.213607
0.204813
0.191153
0.182676
0.173236
0.16348
0.153628
0.143738
0.133825
0.123903
0.113975
0.104045
0.0941126
0.0841791
0.0742442
0.064309
0.0543753
0.0444484
0.0345264
0.0245806
0.0145741
0.00473441
0.731148
0.726925
0.723337
0.710928
0.704515
0.692007
0.678426
0.668879
0.657803
0.654912
0.644285
0.633395
0.621248
0.612623
0.605902
0.594918
0.58514
0.568712
0.557768
0.552104
0.545713
0.538951
0.530286
0.521147
0.508742
0.496972
0.485175
0.476223
0.463186
0.453216
0.443196
0.433583
0.424021
0.416073
0.401846
0.393083
0.382571
0.377871
0.365754
0.356138
0.351221
0.334383
0.321223
0.310939
0.308339
0.296954
0.283958
0.270625
0.266718
0.252373
0.246359
0.237411
0.223993
0.215175
0.205798
0.190684
0.183361
0.17369
0.163778
0.153854
0.143926
0.13399
0.124048
0.114106
0.104162
0.0942169
0.0842704
0.074324
0.0643775
0.0544324
0.0444943
0.0345624
0.024606
0.0145901
0.00474035
0.737477
0.728789
0.720416
0.711382
0.701851
0.692419
0.680243
0.670244
0.660796
0.65398
0.644599
0.633093
0.62102
0.610237
0.606433
0.593842
0.584818
0.570881
0.555911
0.551257
0.545385
0.54071
0.531978
0.523592
0.508852
0.494217
0.483297
0.471443
0.465304
0.459285
0.442238
0.433906
0.424566
0.41501
0.404087
0.395009
0.385907
0.373561
0.363018
0.360146
0.347409
0.334192
0.321441
0.312304
0.304902
0.294835
0.283632
0.273374
0.265822
0.254683
0.243833
0.232733
0.227361
0.216468
0.207257
0.18941
0.185095
0.174264
0.164086
0.154089
0.144124
0.134162
0.124201
0.114243
0.104283
0.0943222
0.0843617
0.0744025
0.0644437
0.0544878
0.0445386
0.0345964
0.0246307
0.0146052
0.00474612
0.735065
0.729534
0.724146
0.712335
0.702824
0.695638
0.680146
0.671121
0.661695
0.65382
0.646578
0.63319
0.619605
0.611845
0.605729
0.589456
0.586624
0.572416
0.558949
0.552477
0.543782
0.53542
0.532543
0.521966
0.508642
0.497919
0.482244
0.473502
0.467493
0.453481
0.443266
0.434469
0.425184
0.415401
0.404727
0.397249
0.383682
0.37654
0.364319
0.354556
0.346437
0.335071
0.323152
0.312842
0.303277
0.293399
0.283545
0.273937
0.267064
0.256242
0.243639
0.233146
0.225083
0.215331
0.207162
0.196335
0.182935
0.173974
0.164209
0.154285
0.144319
0.134339
0.124359
0.11438
0.104402
0.0944255
0.0844516
0.0744793
0.0645083
0.0545413
0.0445817
0.0346294
0.024655
0.0146201
0.00475218
0.734163
0.730153
0.721329
0.71139
0.70036
0.696111
0.683596
0.672491
0.661064
0.653624
0.644306
0.633256
0.623055
0.6136
0.603882
0.591469
0.58438
0.573718
0.563286
0.554184
0.543133
0.535433
0.528874
0.520571
0.507063
0.496476
0.484323
0.474207
0.466498
0.453418
0.443658
0.435474
0.426119
0.416706
0.402397
0.395211
0.385419
0.374967
0.365309
0.355693
0.346299
0.336307
0.324039
0.312694
0.302216
0.292339
0.28408
0.272863
0.269875
0.25846
0.243081
0.232869
0.222812
0.213739
0.208535
0.196196
0.18455
0.174472
0.164503
0.154522
0.144524
0.134521
0.124516
0.114517
0.104519
0.094524
0.0845364
0.0745527
0.06457
0.0545922
0.0446226
0.0346604
0.0246769
0.0146344
0.00475717
0.733602
0.733691
0.717782
0.710213
0.701729
0.694062
0.683851
0.674204
0.657981
0.654716
0.643328
0.632673
0.62571
0.615239
0.605756
0.589935
0.583058
0.575195
0.566569
0.552973
0.544379
0.536017
0.526636
0.517801
0.506743
0.496482
0.484289
0.473043
0.4664
0.454963
0.442687
0.436042
0.42594
0.413825
0.404001
0.395222
0.386366
0.374185
0.365822
0.356599
0.346031
0.3364
0.323995
0.311718
0.300548
0.292959
0.287378
0.276125
0.268804
0.260292
0.242678
0.232392
0.220645
0.218269
0.204254
0.195218
0.184975
0.17486
0.164804
0.154768
0.144732
0.134698
0.12467
0.114648
0.10463
0.0946208
0.0846208
0.0746238
0.064629
0.05464
0.0446606
0.0346898
0.0246985
0.0146477
0.00476278
0.736777
0.732494
0.717227
0.710226
0.702566
0.692989
0.683595
0.672646
0.661305
0.654352
0.642063
0.630676
0.627825
0.615415
0.603881
0.589938
0.582423
0.576931
0.565505
0.555383
0.546116
0.536563
0.525232
0.516826
0.507495
0.498641
0.484109
0.469192
0.466699
0.455557
0.443921
0.435877
0.422652
0.413471
0.404406
0.39501
0.385697
0.374863
0.365898
0.357448
0.346995
0.333896
0.324167
0.309798
0.297127
0.29709
0.293215
0.277935
0.267998
0.258873
0.245896
0.233872
0.222304
0.212533
0.204673
0.195197
0.18527
0.175185
0.165091
0.155008
0.144935
0.13487
0.124816
0.114771
0.104736
0.0947117
0.0846977
0.0746883
0.0646821
0.0546834
0.044695
0.0347161
0.0247167
0.0146601
0.00476675
0.737502
0.729748
0.718436
0.710889
0.704069
0.693378
0.684887
0.671338
0.660578
0.652932
0.643346
0.630978
0.625119
0.614781
0.604428
0.590323
0.581108
0.578035
0.566317
0.556494
0.547895
0.535996
0.525618
0.516606
0.507627
0.495979
0.484163
0.47328
0.465773
0.452813
0.442505
0.433956
0.423206
0.414967
0.405255
0.395255
0.385353
0.375201
0.365478
0.355713
0.342557
0.330167
0.328533
0.307287
0.304438
0.304736
0.292795
0.27913
0.268575
0.260121
0.245805
0.235025
0.224825
0.206416
0.204106
0.195691
0.185696
0.175516
0.165362
0.155234
0.145126
0.135033
0.124955
0.114888
0.104834
0.0947942
0.0847652
0.0747438
0.0647293
0.0547219
0.0447256
0.0347398
0.0247332
0.0146714
0.00477115
0.737294
0.728942
0.717806
0.711111
0.704013
0.694811
0.681993
0.671103
0.663214
0.653355
0.642619
0.631836
0.623159
0.613844
0.602721
0.593632
0.583131
0.576048
0.566385
0.556776
0.547558
0.536854
0.525948
0.517314
0.509213
0.494587
0.482994
0.475071
0.464279
0.451563
0.439914
0.434907
0.422488
0.417463
0.405989
0.395283
0.385172
0.375152
0.365137
0.354214
0.337383
0.332567
0.32982
0.310434
0.30885
0.306005
0.291704
0.278043
0.270293
0.256584
0.247495
0.236033
0.224349
0.210603
0.199262
0.197118
0.186197
0.17582
0.165608
0.155442
0.145304
0.135185
0.125083
0.114996
0.104925
0.094869
0.0848254
0.0747919
0.0647684
0.054754
0.044751
0.0347586
0.0247466
0.0146809
0.00477438
0.738392
0.727084
0.71753
0.711504
0.70452
0.697245
0.682512
0.668819
0.666346
0.654517
0.642085
0.630659
0.622417
0.614873
0.599841
0.597486
0.584483
0.575585
0.566146
0.556581
0.547411
0.539039
0.524328
0.517266
0.512552
0.494435
0.480509
0.476639
0.463731
0.451493
0.441238
0.434056
0.423907
0.415213
0.405152
0.394927
0.384793
0.374886
0.366384
0.353196
0.338532
0.334591
0.323499
0.319842
0.313427
0.301148
0.289063
0.274434
0.267926
0.258659
0.249944
0.237137
0.226048
0.212001
0.202801
0.194276
0.185876
0.175962
0.165807
0.155628
0.145463
0.135316
0.125187
0.115082
0.104996
0.0949269
0.084873
0.0748307
0.0647986
0.0547781
0.0447702
0.0347733
0.0247571
0.0146885
0.00477761
0.737749
0.726529
0.717176
0.713754
0.704773
0.69467
0.683055
0.675253
0.66464
0.651407
0.644768
0.63172
0.620853
0.613526
0.605187
0.597604
0.586051
0.575778
0.565848
0.555853
0.546603
0.537207
0.525951
0.51581
0.513698
0.497292
0.482178
0.474284
0.463092
0.454209
0.443334
0.434059
0.424871
0.412897
0.404363
0.394505
0.384267
0.373531
0.369892
0.355591
0.341554
0.334358
0.322779
0.320667
0.311003
0.29906
0.28992
0.270892
0.266734
0.259645
0.254779
0.236221
0.226747
0.207918
0.203222
0.198337
0.186905
0.176346
0.166036
0.155802
0.145601
0.135428
0.125282
0.115159
0.105057
0.0949734
0.0849093
0.0748575
0.0648184
0.0547934
0.0447821
0.0347825
0.0247639
0.014694
0.00477998
0.729098
0.726675
0.722525
0.719283
0.706719
0.693563
0.680479
0.671928
0.663757
0.652572
0.643197
0.630918
0.617864
0.613183
0.60967
0.598168
0.586715
0.575798
0.565425
0.554187
0.546479
0.536918
0.526791
0.517857
0.51239
0.498021
0.484267
0.472681
0.45996
0.455274
0.448067
0.436151
0.419595
0.416693
0.404923
0.394413
0.385959
0.376077
0.367852
0.357948
0.344811
0.335313
0.325134
0.318604
0.308127
0.294808
0.289326
0.275029
0.268283
0.258437
0.249618
0.236733
0.225081
0.212321
0.204364
0.196792
0.186787
0.176484
0.166195
0.155939
0.145711
0.135517
0.125352
0.115213
0.105094
0.094999
0.0849252
0.0748705
0.0648276
0.0547995
0.0447866
0.0347858
0.0247673
0.0146974
0.00478194
0.731522
0.728398
0.726799
0.716986
0.704367
0.692352
0.682892
0.667163
0.664343
0.653019
0.642216
0.631005
0.619581
0.609965
0.607938
0.597761
0.586983
0.575818
0.566461
0.550295
0.547126
0.535946
0.526396
0.517616
0.507526
0.497806
0.485082
0.472506
0.461199
0.456639
0.451533
0.437469
0.423777
0.416127
0.404885
0.393558
0.388777
0.37764
0.366229
0.361605
0.346427
0.334613
0.329913
0.317835
0.307457
0.295126
0.287153
0.274686
0.270472
0.256626
0.246873
0.235704
0.224546
0.21384
0.205128
0.196868
0.186899
0.176629
0.166327
0.156045
0.145792
0.135576
0.125393
0.115239
0.10511
0.0950072
0.0849274
0.0748688
0.0648251
0.0547958
0.0447832
0.0347828
0.0247664
0.0146984
0.00478326
0.73968
0.728648
0.725741
0.714148
0.702517
0.68932
0.680672
0.671774
0.660899
0.653175
0.642359
0.631356
0.620712
0.611061
0.604567
0.596374
0.587017
0.573837
0.56486
0.555704
0.543837
0.533323
0.525142
0.517978
0.504121
0.499097
0.485945
0.472927
0.467947
0.457896
0.449403
0.439611
0.423817
0.417164
0.405476
0.395636
0.388345
0.378257
0.368582
0.36073
0.349002
0.337468
0.33001
0.317658
0.307375
0.295254
0.286776
0.275931
0.267189
0.25593
0.245455
0.234657
0.223603
0.213098
0.205636
0.198714
0.187426
0.176813
0.166434
0.156118
0.145842
0.135608
0.125408
0.115238
0.105101
0.0949909
0.0849093
0.07485
0.0648082
0.0547819
0.0447714
0.0347733
0.0247613
0.0146972
0.0047838
0.735313
0.731007
0.728954
0.711074
0.702626
0.684746
0.679409
0.673144
0.658907
0.654016
0.642315
0.631411
0.621341
0.610553
0.601103
0.595117
0.583027
0.576976
0.563558
0.553922
0.542971
0.533855
0.52369
0.519359
0.506006
0.497232
0.486752
0.478291
0.46841
0.457543
0.447069
0.43643
0.425829
0.420823
0.405618
0.396161
0.389162
0.378127
0.370136
0.360848
0.351236
0.337595
0.328878
0.318704
0.305922
0.296909
0.289201
0.275174
0.263951
0.255105
0.24464
0.233697
0.222225
0.21014
0.207068
0.201955
0.186994
0.176812
0.166474
0.156141
0.145848
0.135599
0.125385
0.115205
0.105062
0.0949512
0.0848691
0.0748132
0.0647757
0.0547538
0.044749
0.0347569
0.0247517
0.014694
0.0047838
0.736717
0.730869
0.724374
0.708844
0.701082
0.691109
0.678894
0.668548
0.658879
0.651275
0.641258
0.630672
0.620979
0.609341
0.596907
0.594706
0.583541
0.575025
0.563454
0.552394
0.540844
0.535864
0.526496
0.51818
0.507059
0.496564
0.486569
0.48522
0.467903
0.456855
0.446082
0.434033
0.429844
0.421866
0.405
0.394983
0.393162
0.375704
0.372671
0.361904
0.351751
0.337622
0.328128
0.318579
0.305597
0.297082
0.287457
0.27552
0.264691
0.254762
0.244353
0.233524
0.222133
0.211832
0.209332
0.19827
0.187716
0.176983
0.166504
0.156129
0.145817
0.135551
0.125325
0.115139
0.104991
0.0948804
0.0848053
0.0747568
0.0647267
0.054714
0.044718
0.0347344
0.0247379
0.0146893
0.00478287
0.737614
0.731257
0.717641
0.708603
0.70164
0.690598
0.678108
0.669776
0.660514
0.650292
0.639106
0.628982
0.618535
0.606506
0.603188
0.589948
0.583357
0.573676
0.563253
0.551691
0.541149
0.53554
0.526926
0.518602
0.506696
0.496582
0.487211
0.48674
0.470851
0.456054
0.446817
0.436548
0.427641
0.418214
0.408374
0.397927
0.390561
0.378446
0.372841
0.36249
0.350923
0.337644
0.327371
0.316964
0.30581
0.298349
0.28689
0.274449
0.266164
0.254862
0.244519
0.234101
0.223671
0.214
0.205634
0.197701
0.187412
0.176889
0.166442
0.156066
0.145741
0.13546
0.125223
0.115029
0.104882
0.0947801
0.0847141
0.0746764
0.0646605
0.0546614
0.0446776
0.0347059
0.0247213
0.014683
0.00478162
0.73703
0.728261
0.717292
0.70695
0.696231
0.695007
0.679142
0.667333
0.663573
0.650118
0.637453
0.627642
0.617361
0.606424
0.601177