/*--------------------------------*- C++ -*----------------------------------*\
  =========                 |
  \\      /  F ield         | OpenFOAM: The Open Source CFD Toolbox
   \\    /   O peration     | Website:  https://openfoam.org
    \\  /    A nd           | Version:  12
     \\/     M anipulation  |
\*---------------------------------------------------------------------------*/
FoamFile
{
    format      ascii;
    class       surfaceScalarField;
    location    "0.4";
    object      phi.water_0;
}
// * * * * * * * * * * * * * * * * * * * * * * * * * * * * * * * * * * * * * //

dimensions      [0 3 -1 0 0 0 0];

internalField   nonuniform List<scalar> 
7375
(
7.36149e-08
2.07149e-08
2.01275e-07
1.6253e-08
6.91064e-08
-1.2718e-08
1.04308e-07
-3.48959e-08
1.11623e-07
-8.45041e-09
1.15913e-07
-4.28965e-09
8.83975e-08
2.83822e-08
8.81985e-08
1.81177e-10
8.37747e-08
4.42367e-09
8.95009e-08
-5.68841e-09
1.01522e-07
-1.09183e-08
8.90519e-08
1.26326e-08
8.32391e-08
4.91072e-09
9.56439e-08
-1.2411e-08
9.68256e-08
-1.15807e-09
9.81596e-08
-3.44817e-10
4.82417e-08
1.36669e-09
7.18523e-08
2.40967e-08
4.60435e-08
2.63606e-08
1.45375e-07
4.64512e-08
1.57635e-07
-1.55651e-08
6.85921e-08
-5.3685e-08
4.9241e-08
-2.87221e-08
4.93774e-08
-1.1209e-09
7.79825e-08
1.90183e-08
4.48523e-08
3.44081e-08
1.42575e-07
4.75848e-08
1.74523e-08
-2.0307e-08
2.09583e-08
-3.44354e-09
2.26334e-08
-1.63233e-09
2.91873e-08
-6.56406e-09
4.64627e-08
-1.73184e-08
6.04221e-08
-1.40149e-08
6.66708e-08
-6.23946e-09
6.48526e-08
1.16353e-09
7.65956e-08
-1.17431e-08
5.85076e-08
1.87287e-08
4.7056e-08
1.1304e-08
3.70541e-08
1.00378e-08
4.58285e-08
-8.42737e-09
-6.07914e-09
3.50059e-09
5.08507e-08
-8.92393e-09
5.31098e-08
-2.8256e-09
6.17804e-08
-8.04689e-09
6.49896e-08
-2.38553e-09
7.22428e-08
-8.6533e-09
6.04565e-08
1.22728e-08
4.0964e-08
2.02891e-08
3.26465e-08
7.88833e-09
2.56525e-08
7.27284e-09
2.48572e-08
9.29538e-10
2.92761e-08
-4.67474e-09
2.38855e-08
5.43222e-09
2.54717e-08
-1.59876e-09
2.62486e-08
-1.03557e-09
5.05838e-08
-2.45836e-08
1.60727e-08
3.46341e-08
4.11078e-10
1.54928e-08
-1.99619e-08
2.01769e-08
-4.95174e-08
2.9354e-08
4.82367e-08
4.61088e-08
4.86973e-08
-8.91132e-10
-4.59155e-08
-4.73137e-08
-2.27772e-08
-2.31383e-08
-1.07199e-08
-1.20573e-08
-8.44452e-10
-9.87549e-09
1.23574e-08
-1.32018e-08
2.78961e-08
-1.55387e-08
4.01241e-08
-1.22279e-08
4.08525e-08
-7.28568e-10
1.97358e-08
2.11167e-08
-1.60829e-08
3.58188e-08
-6.30318e-08
4.6949e-08
-1.02938e-07
3.9906e-08
8.04541e-09
-3.38042e-08
3.71204e-08
6.87248e-08
5.93725e-08
-8.10821e-08
-8.89752e-09
-3.54381e-09
3.33816e-08
-1.05219e-08
-1.43641e-09
3.82015e-09
-1.87146e-08
-6.9573e-08
-4.10956e-08
-4.52369e-08
-2.44034e-08
-2.57208e-08
-1.50926e-08
-1.80411e-08
-1.36307e-08
-1.18206e-08
-1.73157e-08
1.01409e-08
-9.35447e-09
-1.76919e-08
-1.57001e-08
3.18604e-08
-1.39985e-08
2.92045e-08
1.20269e-09
1.0251e-08
1.90962e-08
6.47078e-09
5.23738e-09
9.76606e-09
2.08012e-08
-2.52178e-09
3.86483e-08
1.49551e-08
2.86529e-08
1.16523e-08
-1.21425e-08
-2.28594e-08
-2.00825e-08
-9.64556e-08
-3.1997e-09
-9.01449e-08
4.1241e-08
-7.38454e-08
2.91257e-09
-5.7027e-08
1.81713e-08
-1.37033e-08
3.91882e-09
-3.77777e-08
3.62889e-09
-4.00405e-08
-1.56632e-09
-4.27523e-08
1.07929e-09
-3.8576e-08
-1.07405e-08
-4.51177e-08
-1.07768e-08
-2.77957e-08
-3.13736e-08
-4.30762e-08
8.17086e-09
-7.60253e-08
3.3664e-08
-7.05591e-08
-1.52135e-08
-6.07725e-08
9.55579e-09
-5.8757e-08
8.67457e-09
-5.58818e-08
5.99305e-09
-5.3653e-08
-1.12093e-08
-1.1734e-07
6.64946e-08
-1.08674e-07
-1.63805e-08
-7.77001e-08
-3.26906e-08
-9.2062e-08
7.09955e-09
-8.13065e-08
-1.3117e-08
-7.98479e-08
-1.01268e-08
-7.31914e-08
5.74004e-09
-7.0565e-08
1.67089e-08
-7.3977e-08
1.13003e-08
-7.41913e-08
8.24392e-09
-6.77877e-08
-5.53946e-09
-4.65125e-08
-2.69162e-08
-7.95572e-08
3.84767e-08
-8.50214e-08
3.86539e-09
-1.16256e-07
2.87197e-08
-5.9324e-08
6.53318e-08
-1.64471e-07
-8.20942e-10
-1.60633e-07
1.14998e-08
-1.51543e-07
1.08845e-08
-1.34968e-07
1.24854e-08
-9.57681e-08
6.44818e-09
-8.75031e-08
-9.14726e-09
-1.09511e-07
-2.53061e-08
-1.1142e-07
-2.12292e-08
-1.07661e-07
-1.58164e-08
-9.89932e-08
-1.85429e-08
-8.75921e-08
-2.46029e-08
-7.64583e-08
-2.66725e-08
-6.67551e-08
-2.19312e-08
-6.91062e-08
1.62246e-09
-8.4571e-08
3.65815e-08
-1.07028e-07
5.8276e-08
-1.2388e-07
6.38015e-08
-1.29529e-07
4.55551e-08
4.328e-09
-1.16544e-07
2.40601e-08
-9.01383e-08
3.23609e-08
-1.16447e-07
1.74109e-08
-9.69678e-08
1.35619e-08
-1.0559e-07
7.18541e-09
-1.13424e-07
-1.09925e-08
-1.32481e-07
-2.24578e-08
-1.41221e-07
-1.56644e-08
-1.39527e-07
-1.69406e-08
-1.47585e-07
-7.07821e-09
-1.695e-07
4.59921e-09
-1.38258e-07
-3.7079e-08
-1.26602e-07
-2.71977e-08
-1.21457e-07
-2.04349e-08
-1.10864e-07
-1.051e-08
-1.98423e-07
9.64213e-09
-1.24489e-07
2.95455e-08
-1.28132e-07
2.41977e-08
-1.18662e-07
2.91779e-08
-1.21211e-07
3.12017e-08
-3.57761e-08
4.68748e-08
-5.47625e-08
-8.91393e-10
-6.05343e-08
3.22214e-09
-1.17684e-07
-4.40352e-08
-1.06971e-07
-9.00178e-09
-9.58487e-08
7.04916e-09
-9.90283e-08
7.13827e-09
-9.92374e-08
3.87486e-09
-1.07611e-07
6.80687e-09
-1.10463e-07
3.93163e-09
-1.18913e-07
-2.31497e-09
-1.63331e-07
-1.63003e-08
-6.42174e-08
6.39338e-08
-1.89419e-07
-1.02171e-08
-1.56721e-07
-1.32055e-09
-1.73447e-07
1.51263e-09
-1.55581e-07
-6.44331e-09
-1.4398e-07
-2.83857e-09
-1.45228e-07
7.24115e-09
-6.00241e-08
4.80295e-08
-1.68584e-07
-1.80613e-08
-1.62114e-07
2.54256e-08
-6.72353e-08
1.74447e-08
-1.66236e-07
-3.67705e-08
-1.29789e-07
-5.13943e-08
-1.33433e-07
-6.48287e-09
-1.62706e-07
3.47177e-08
-1.70167e-07
2.417e-08
-1.73074e-07
1.42067e-08
-1.82245e-07
1.55563e-08
-2.22966e-07
3.31678e-08
-1.01418e-07
-3.50406e-10
-1.90802e-07
-6.41974e-08
-1.84298e-07
4.73506e-08
-1.63369e-07
6.07937e-09
-1.70216e-07
2.2736e-08
-1.63907e-07
4.34218e-08
-1.74335e-07
2.19277e-08
-1.82135e-07
1.86842e-08
-1.83563e-07
1.39128e-08
-1.77301e-07
1.86581e-10
-1.7411e-07
-1.23387e-08
-1.79196e-07
-2.02197e-08
-1.80654e-07
-1.97711e-08
-1.78668e-07
-1.78021e-08
-1.74343e-07
-2.28681e-08
-1.70695e-07
-2.82507e-08
-1.6838e-07
-2.89882e-08
-1.67599e-07
-2.27118e-08
-1.68508e-07
2.53181e-09
-1.68375e-07
3.64486e-08
-1.60412e-07
5.03128e-08
-1.48152e-07
5.1541e-08
-1.37275e-07
3.46789e-08
-4.15332e-10
-1.55416e-07
9.29989e-09
-1.39931e-07
1.68756e-08
-1.37125e-07
1.47557e-08
-1.33375e-07
9.81194e-09
-1.35661e-07
8.08723e-09
-1.68042e-07
2.1388e-08
-1.55037e-07
-3.37482e-08
-1.85518e-07
1.46667e-08
-1.91036e-07
-1.14231e-08
-1.90772e-07
-7.34246e-09
-1.99931e-07
-3.20313e-08
-1.6905e-07
-2.03365e-08
-1.581e-07
-4.01503e-08
-1.35866e-07
-4.2669e-08
-1.51721e-07
5.34485e-09
-1.67253e-07
2.50751e-08
-1.49467e-07
1.32848e-08
-1.53256e-07
2.79866e-08
-1.44978e-07
1.91409e-08
-1.37478e-07
2.37009e-08
-1.12633e-07
2.20299e-08
-1.06511e-07
-7.01369e-09
-1.23007e-07
-2.71363e-08
-1.09268e-07
-1.05957e-08
-1.17077e-07
-2.30757e-09
-1.13793e-07
3.76498e-09
-1.41427e-07
3.47721e-08
-1.29116e-07
-8.43633e-09
-1.31141e-07
8.83225e-09
-1.14015e-07
-1.45062e-08
-1.72786e-07
5.46756e-08
-6.9115e-08
2.7625e-08
-1.4276e-07
-6.62926e-09
-1.50658e-07
-2.31897e-09
-1.54084e-07
2.10539e-09
-1.56432e-07
3.84519e-09
-1.64915e-07
2.0395e-09
-1.70332e-07
2.57784e-09
-1.50952e-07
-1.21384e-08
-1.60039e-07
9.00624e-09
-1.67679e-07
3.76884e-08
-1.50933e-07
8.67913e-09
-1.37077e-07
3.5887e-09
-1.70451e-07
-3.77153e-09
-9.10765e-08
1.35595e-08
-1.08632e-07
1.23059e-08
-1.9672e-07
-2.00647e-08
-1.80614e-07
6.05699e-09
-1.68724e-07
2.29283e-09
-1.68364e-07
1.3343e-08
-1.92985e-07
8.75101e-09
-1.84555e-07
3.98246e-08
-1.0788e-07
4.94381e-09
-1.99167e-07
-5.06677e-08
-1.5416e-07
1.03141e-08
-1.51993e-07
2.01144e-08
-1.39718e-07
3.11462e-08
-1.48244e-07
3.04535e-08
-1.59022e-07
2.94627e-08
-1.67567e-07
2.24575e-08
-1.73055e-07
5.67418e-09
-1.76968e-07
-8.42526e-09
-1.8304e-07
-1.41482e-08
-1.89929e-07
-1.28822e-08
-1.95141e-07
-1.25893e-08
-1.95915e-07
-2.20945e-08
-1.93754e-07
-3.04118e-08
-1.92623e-07
-3.01196e-08
-1.946e-07
-2.07344e-08
-1.93928e-07
1.85974e-09
-1.84376e-07
2.68963e-08
-1.689e-07
3.48375e-08
-1.51932e-07
3.45728e-08
-1.40801e-07
2.3548e-08
-3.05482e-09
-1.85357e-07
1.55183e-08
-1.93745e-07
2.3288e-08
-1.94399e-07
1.54093e-08
-1.89976e-07
7.37171e-09
-1.68384e-07
-1.36435e-08
-2.25589e-07
2.99593e-08
-1.14816e-07
4.90875e-08
-2.07265e-07
-3.57553e-08
-1.74921e-07
-4.58817e-08
-1.85435e-07
5.01235e-09
-1.91478e-07
-2.59887e-08
-1.90616e-07
-2.3359e-08
-2.09934e-07
-2.08325e-08
-1.09539e-07
1.25116e-09
-2.07829e-07
-4.06936e-08
-1.76186e-07
-6.56792e-09
-1.70369e-07
7.46682e-09
-1.89018e-07
7.40711e-10
-1.48655e-07
2.6401e-08
-1.42337e-07
1.58659e-08
-1.32707e-07
1.24002e-08
-1.47879e-07
8.15759e-09
-5.28405e-08
2.21536e-08
-9.46794e-08
3.11349e-08
-1.04524e-07
7.53726e-09
-8.81061e-08
-1.26534e-08
-1.9364e-07
-5.2132e-08
-1.37563e-07
-1.65727e-08
-1.7846e-07
4.79081e-08
-7.75952e-08
3.04449e-08
-1.95766e-07
-1.93579e-08
-1.35226e-07
1.62923e-08
-1.3234e-07
-9.51551e-09
-1.36198e-07
1.88752e-10
-1.3513e-07
1.03783e-09
-1.35792e-07
4.50644e-09
-1.44798e-07
1.09342e-08
-1.88391e-07
-1.93927e-09
-1.38427e-07
-1.41365e-08
-1.44445e-07
1.50235e-08
-1.47549e-07
4.03806e-08
-1.51756e-07
1.28861e-08
-1.50635e-07
2.46699e-09
-1.52547e-07
-1.8593e-09
-1.06448e-07
-3.39724e-08
-1.21563e-07
-2.11845e-08
-1.57541e-07
1.69493e-08
-1.53467e-07
3.54847e-09
-1.22828e-07
2.03127e-08
-1.15074e-07
5.56646e-09
-1.30359e-07
2.16878e-08
-1.35378e-07
-5.05252e-09
-1.09411e-07
2.81294e-08
-1.58182e-07
-1.89679e-09
-1.47965e-07
1.71186e-09
-1.42514e-07
1.61421e-08
-1.40283e-07
2.89153e-08
-1.43122e-07
3.32928e-08
-1.47859e-07
3.41997e-08
-1.55384e-07
2.99817e-08
-1.67854e-07
1.81441e-08
-1.82427e-07
6.1485e-09
-1.96141e-07
-4.34425e-10
-2.05036e-07
-3.98736e-09
-2.05776e-07
-1.18493e-08
-1.99685e-07
-2.81854e-08
-1.93712e-07
-3.63851e-08
-1.88696e-07
-3.51357e-08
-1.87036e-07
-2.23941e-08
-1.85909e-07
7.32295e-10
-1.76726e-07
1.77137e-08
-1.6315e-07
2.12615e-08
-1.50344e-07
2.17671e-08
-1.42596e-07
1.58003e-08
-2.66143e-09
-2.0429e-07
1.62047e-08
-1.98544e-07
1.96257e-08
-2.01961e-07
1.86696e-08
-2.15327e-07
1.85411e-08
-1.22257e-07
4.03622e-08
-2.1704e-07
-1.6894e-08
-1.67727e-07
-2.43998e-09
-1.94715e-07
-9.13221e-09
-9.27508e-08
-2.57137e-09
-1.64863e-07
-6.57464e-08
-1.80344e-07
-1.23292e-08
-1.76179e-07
-2.75246e-08
-1.71531e-07
-2.37301e-08
-1.3854e-07
-3.17399e-08
-1.37045e-07
-4.36028e-08
-1.28835e-07
-1.47778e-08
-1.20977e-07
-3.91233e-10
-1.57825e-07
3.75885e-08
-1.35086e-07
3.93085e-09
-1.27615e-07
8.39511e-09
-1.30257e-07
1.50417e-08
-1.66313e-07
4.46696e-08
-3.80036e-08
3.81721e-08
-1.47431e-07
-3.7658e-09
-1.33023e-07
-6.8716e-09
-1.31605e-07
-1.40716e-08
-1.87111e-07
1.4653e-09
-8.2854e-08
2.4986e-08
-2.00198e-07
-2.63402e-08
-1.4178e-07
1.98251e-08
-1.55541e-07
-5.59737e-09
-1.42466e-07
3.21743e-09
-1.38556e-07
-1.35228e-08
-1.48116e-07
9.74858e-09
-1.51144e-07
4.06603e-09
-1.63284e-07
1.83116e-08
-1.58688e-07
6.33881e-09
-1.84858e-07
2.07254e-08
-9.76005e-08
4.44219e-08
-8.6362e-08
5.66162e-09
-1.63524e-07
-2.53285e-08
-1.4978e-07
-2.52555e-09
-1.49029e-07
1.71596e-09
-1.744e-07
2.17318e-08
-9.5161e-08
3.26045e-08
-1.04183e-07
-1.09755e-08
-1.91511e-07
-4.00516e-08
-1.74115e-07
-1.20709e-08
-1.55649e-07
4.80099e-10
-1.62656e-07
9.34955e-09
-1.76426e-07
-9.52722e-09
-1.48085e-07
1.75582e-08
-1.27601e-07
6.14937e-09
-1.36357e-07
5.55784e-09
-1.36134e-07
2.87768e-09
-1.33161e-07
1.45295e-08
-1.3374e-07
2.94945e-08
-1.35717e-07
3.52696e-08
-1.37023e-07
3.55054e-08
-1.40027e-07
3.29858e-08
-1.48122e-07
2.62395e-08
-1.61346e-07
1.93727e-08
-1.75507e-07
1.37262e-08
-1.84978e-07
5.48314e-09
-1.82655e-07
-1.41719e-08
-1.7643e-07
-3.44104e-08
-1.73779e-07
-3.9036e-08
-1.73197e-07
-3.57176e-08
-1.75307e-07
-2.02846e-08
-1.73316e-07
-1.25822e-09
-1.65717e-07
1.01142e-08
-1.57037e-07
1.25822e-08
-1.49509e-07
1.42393e-08
-1.44667e-07
1.09588e-08
-1.58764e-09
-1.6367e-07
1.91598e-08
-1.62895e-07
1.88513e-08
-1.42711e-07
-1.51422e-09
-1.6101e-07
3.64681e-08
-1.41997e-07
2.09367e-08
-1.57039e-07
-2.02449e-09
-1.4074e-07
-1.87385e-08
-1.46586e-07
-3.28678e-09
-1.45286e-07
-3.8712e-09
-6.28409e-08
-3.89343e-09
-1.62014e-07
-5.60273e-08
-1.44737e-07
-4.64547e-08
-1.48953e-07
-1.97147e-08
-1.67604e-07
-1.34128e-08
-8.45394e-08
1.76604e-08
-9.97314e-08
4.09799e-10
-6.92238e-08
-3.12175e-08
-2.22785e-07
-1.28826e-09
-1.65044e-07
-5.70047e-09
-1.60193e-07
3.58009e-09
-1.41756e-07
-4.84137e-09
-1.52491e-07
6.86999e-09
-1.18557e-07
5.39027e-08
-1.49959e-07
2.76364e-08
-1.6131e-07
4.47943e-09
-1.51312e-07
-2.40702e-08
-1.72843e-07
2.2764e-08
-1.47248e-07
-8.64514e-10
-1.71743e-07
-1.84457e-09
-1.53664e-07
1.74529e-09
-1.73661e-07
1.44002e-08
-1.59661e-07
-1.06739e-08
-1.44882e-07
-2.85943e-08
-1.33725e-07
-1.40813e-09
-1.65097e-07
3.54375e-08
-1.65983e-07
1.91979e-08
-1.7107e-07
1.149e-08
-1.68373e-07
1.8029e-08
-1.45277e-07
2.08719e-08
-1.41001e-07
1.38616e-09
-1.64294e-07
-2.27125e-09
-1.60064e-07
-6.75582e-09
-1.52522e-07
-5.82552e-09
-1.58415e-07
-2.04845e-08
-1.60884e-07
3.47409e-08
-1.58838e-07
3.50878e-08
-1.77772e-07
-2.11186e-08
-1.84247e-07
-5.59533e-09
-1.77543e-07
-6.219e-09
-1.77909e-07
7.80519e-09
-1.92223e-07
4.88471e-09
-1.73109e-07
5.84547e-10
-1.64905e-07
-2.01252e-09
-1.6216e-07
2.81259e-09
-1.7007e-07
1.25221e-08
-1.55994e-07
2.17547e-09
-1.45334e-07
1.88344e-08
-1.40109e-07
3.00443e-08
-1.37043e-07
3.24395e-08
-1.35741e-07
3.1684e-08
-1.37978e-07
2.84764e-08
-1.43071e-07
2.44656e-08
-1.4724e-07
1.78948e-08
-1.48232e-07
6.47517e-09
-1.45567e-07
-1.68365e-08
-1.4717e-07
-3.28071e-08
-1.51361e-07
-3.48455e-08
-1.58699e-07
-2.83793e-08
-1.65543e-07
-1.34405e-08
-1.64758e-07
-2.04379e-09
-1.59965e-07
5.32196e-09
-1.54569e-07
7.18589e-09
-1.50435e-07
1.01054e-08
-1.46919e-07
7.44341e-09
-9.52638e-10
-1.44264e-07
-1.33285e-08
-1.84348e-07
5.83407e-08
-9.13427e-08
5.07406e-08
-1.76856e-07
-2.08897e-08
-1.54877e-07
-2.84631e-09
-1.39524e-07
-1.73777e-08
-1.14801e-07
-4.39093e-08
-1.47097e-07
2.90089e-08
-1.41715e-07
-9.25325e-09
-1.39108e-07
-6.50098e-09
-1.52541e-07
-4.31662e-08
-1.44528e-07
-5.65185e-08
-1.54184e-07
-1.00586e-08
-1.73468e-07
7.44388e-09
-1.67915e-07
1.39628e-08
-1.55597e-07
-1.34797e-08
-6.21319e-08
1.93297e-08
-2.20183e-07
-3.50411e-08
-1.81167e-07
1.5443e-09
-2.36538e-07
1.04532e-08
-1.95012e-07
2.16607e-09
-1.88366e-07
1.5453e-10
-1.83177e-07
5.06356e-08
-1.94663e-07
3.87265e-08
-2.19173e-07
2.89897e-08
-1.25573e-07
2.79386e-08
-2.24499e-07
-2.11805e-08
-1.96841e-07
-3.05022e-08
-1.92589e-07
-6.09651e-09
-1.82562e-07
-8.28179e-09
-2.27069e-07
1.31139e-08
-2.14509e-07
2.2224e-08
-1.3685e-07
3.73509e-08
-1.16427e-07
-2.0435e-08
-1.93851e-07
-3.14666e-08
-1.69922e-07
-4.73107e-09
-1.67166e-07
8.73331e-09
-1.69603e-07
2.0466e-08
-1.61825e-07
1.30934e-08
-1.65724e-07
6.97638e-09
-1.55791e-07
-1.2205e-08
-1.57531e-07
-6.60512e-09
-1.6863e-07
5.27356e-09
-1.88575e-07
-5.39891e-10
-1.71781e-07
-3.01628e-08
-1.6929e-07
3.22679e-08
-1.7168e-07
2.93805e-08
-1.79586e-07
2.31051e-09
-1.82896e-07
-2.90883e-09
-1.79904e-07
4.81309e-09
-1.78618e-07
3.54863e-09
-1.64737e-07
-1.4977e-08
-2.02918e-07
3.57993e-08
-2.05208e-07
7.17267e-09
-2.00361e-07
7.67561e-09
-1.98024e-07
1.88098e-09
-1.82088e-07
4.87786e-09
-1.66516e-07
1.44719e-08
-1.53733e-07
1.96564e-08
-1.44868e-07
2.28196e-08
-1.40241e-07
2.38493e-08
-1.37566e-07
2.17901e-08
-1.35582e-07
1.59108e-08
-1.33234e-07
4.1272e-09
-1.33559e-07
-1.65117e-08
-1.39391e-07
-2.69753e-08
-1.46336e-07
-2.79001e-08
-1.5405e-07
-2.06656e-08
-1.58652e-07
-8.83818e-09
-1.58317e-07
-2.37906e-09
-1.55946e-07
2.95097e-09
-1.53003e-07
4.2432e-09
-1.50473e-07
7.57528e-09
-1.48467e-07
5.43831e-09
-5.23154e-10
-6.00773e-08
3.33106e-08
-1.85317e-07
4.07101e-08
-1.46645e-07
1.00748e-08
-1.67486e-07
-2.61693e-10
-1.67005e-07
-3.32752e-09
-1.7314e-07
-1.30088e-08
-6.34836e-08
-7.83082e-09
-1.98684e-07
-2.75811e-08
-1.60664e-07
8.3643e-10
-1.66005e-07
-1.16053e-09
-2.12689e-07
1.36148e-09
-1.08146e-07
-1.52452e-08
-2.06288e-07
-5.56065e-08
-2.06742e-07
5.78789e-09
-2.35601e-07
-5.78321e-09
-1.82246e-07
-1.47504e-08
-1.56027e-07
-7.08459e-09
-1.83486e-07
-9.17453e-09
-1.81955e-07
-1.84309e-09
-2.52061e-07
3.15209e-08
-2.19888e-07
1.86204e-08
-1.68038e-07
9.41194e-08
-2.11376e-07
-4.64841e-08
-2.06854e-07
3.38616e-08
-2.04764e-07
2.47896e-08
-1.87123e-07
1.02977e-08
-2.2546e-07
-2.88695e-08
-2.14948e-07
6.54365e-09
-2.20718e-07
-2.51955e-09
-2.20032e-07
-8.96762e-09
-2.11977e-07
-4.3051e-08
-2.10195e-07
2.04594e-08
-1.8819e-07
1.49655e-08
-1.63472e-07
2.9562e-09
-2.02481e-07
7.62032e-09
-1.8638e-07
-2.08331e-08
-1.72765e-07
-4.88102e-09
-1.8801e-07
3.60783e-08
-1.87499e-07
1.25826e-08
-1.72775e-07
-7.66958e-09
-1.78706e-07
-6.39879e-09
-1.89967e-07
4.65612e-09
-2.0071e-07
1.6017e-08
-2.2131e-07
1.98565e-08
-1.24653e-07
1.87806e-08
-2.068e-07
-2.8456e-08
-1.79648e-07
1.1811e-10
-1.79142e-07
1.78656e-09
-1.7682e-07
-5.23054e-09
-1.73102e-07
1.09482e-09
-2.17972e-07
3.08917e-10
-6.92751e-08
2.9173e-08
-1.73569e-07
-3.1714e-09
-1.76525e-07
8.35854e-09
-1.69589e-07
7.39255e-10
-1.78852e-07
1.29688e-08
-1.66296e-07
-5.89013e-09
-1.5987e-07
8.04565e-09
-1.49313e-07
9.09855e-09
-1.38821e-07
1.23283e-08
-1.32062e-07
1.709e-08
-1.29105e-07
1.88332e-08
-1.30844e-07
1.765e-08
-1.35739e-07
9.02211e-09
-1.42053e-07
-1.01977e-08
-1.46233e-07
-2.27956e-08
-1.49838e-07
-2.42948e-08
-1.53879e-07
-1.66247e-08
-1.56802e-07
-5.91492e-09
-1.57106e-07
-2.07557e-09
-1.55566e-07
1.41091e-09
-1.5403e-07
2.70782e-09
-1.51551e-07
5.096e-09
-1.49786e-07
3.67381e-09
-4.25864e-10
-8.28082e-08
4.70673e-08
-1.92265e-07
-3.9491e-08
-1.46749e-07
1.21823e-08
-1.51931e-07
3.42348e-09
-1.49169e-07
-6.08979e-09
-1.55776e-07
-7.99109e-09
-6.17388e-08
4.35794e-08
-1.72686e-07
-6.09541e-08
-1.72783e-07
9.32668e-10
-1.84837e-07
9.00826e-09
-2.23444e-07
-8.63754e-09
-1.90391e-07
3.07211e-10
-1.39423e-07
3.92409e-08
-2.32061e-07
-4.49379e-08
-2.69681e-07
2.91441e-08
-1.90183e-07
5.21042e-08
-1.86936e-07
-8.46397e-09
-1.9489e-07
-1.22091e-09
-1.86667e-07
-8.16121e-09
-2.83335e-07
-1.78614e-08
-1.66172e-07
4.43523e-08
-2.66537e-07
2.754e-09
-1.58135e-07
3.91647e-08
-2.43025e-07
-2.40204e-08
-2.18553e-07
-2.16157e-09
-2.07217e-07
-1.03825e-09
-2.38195e-07
4.53776e-09
-2.02465e-07
-2.91196e-08
-2.10183e-07
3.13244e-09
-2.33185e-07
1.40341e-08
-1.15512e-07
-1.52174e-08
-2.18723e-07
-1.90086e-08
-1.91277e-07
-1.47115e-08
-1.55532e-07
-3.43755e-08
-2.02934e-07
6.351e-09
-1.85569e-07
1.19816e-08
-1.60137e-07
-3.22755e-08
-1.98074e-07
2.54097e-08
-2.00255e-07
1.88274e-08
-1.7703e-07
1.67286e-08
-1.5948e-07
-2.6021e-08
-1.9149e-07
3.6667e-08
-1.80773e-07
7.07131e-09
-1.70558e-07
9.64209e-09
-1.56127e-07
2.60863e-09
-1.71525e-07
-1.33475e-08
-1.63429e-07
-6.31117e-09
-1.51364e-07
-1.01757e-08
-1.48419e-07
-9.72022e-09
-1.41153e-07
-6.17114e-09
-1.86014e-07
-1.03095e-09
-1.0492e-07
-5.35697e-09
-1.48685e-07
-9.12651e-09
-1.52193e-07
1.33838e-08
-1.32659e-07
-1.87947e-08
-1.59021e-07
4.05396e-08
-1.40776e-07
2.48505e-08
-1.41224e-07
8.57919e-09
-1.30809e-07
-1.31609e-09
-1.18383e-07
-9.79033e-11
-1.07319e-07
6.02594e-09
-1.01526e-07
1.30399e-08
-1.0096e-07
1.70843e-08
-1.05062e-07
1.31234e-08
-1.15996e-07
7.37041e-10
-1.26167e-07
-1.26248e-08
-1.33783e-07
-1.66786e-08
-1.41158e-07
-9.25002e-09
-1.47576e-07
5.03132e-10
-1.51359e-07
1.70775e-09
-1.52389e-07
2.44096e-09
-1.52715e-07
3.03393e-09
-1.51418e-07
3.79868e-09
-1.50471e-07
2.72745e-09
-2.76928e-10
-1.52672e-07
-3.64932e-08
-1.54409e-07
9.77085e-09
-1.50323e-07
6.71379e-09
-1.49107e-07
2.23015e-09
-1.45765e-07
-9.4323e-09
-6.4454e-08
5.51218e-08
-1.56699e-07
-9.06928e-09
-8.37696e-08
1.03172e-08
-1.92117e-07
-3.41934e-08
-1.73623e-07
-9.48589e-09
-2.01197e-07
1.6971e-08
-1.09347e-07
5.42732e-08
-2.13623e-07
-2.27541e-09
-1.37556e-07
2.48108e-08
-2.33568e-07
-2.01517e-08
-2.16992e-07
-1.37565e-08
-1.93713e-07
1.85801e-08
-2.06177e-07
1.12432e-08
-2.142e-07
-1.39058e-10
-2.28317e-07
-3.9665e-09
-2.04355e-07
2.20218e-08
-2.14965e-07
1.33638e-08
-2.00355e-07
2.01125e-08
-2.25776e-07
1.14144e-09
-2.19809e-07
-5.82542e-09
-2.03417e-07
-1.74299e-08
-1.94401e-07
-5.31301e-08
-1.97885e-07
2.21764e-08
-1.89419e-07
-5.33334e-09
-2.22332e-07
-1.16281e-09
-8.85873e-08
4.39311e-08
-1.99799e-07
-5.08595e-08
-1.9112e-07
-2.54295e-08
-8.4426e-08
4.12037e-09
-2.03705e-07
-1.7305e-08
-1.66461e-07
-2.90388e-08
-7.86267e-08
2.57058e-08
-1.9907e-07
2.0679e-09
-2.2053e-07
4.02872e-08
-2.13436e-07
7.62723e-09
-9.1978e-08
-1.66302e-09
-2.00095e-07
-4.46745e-08
-1.43687e-07
-1.71299e-09
-1.38341e-07
2.92896e-09
-1.38315e-07
2.58194e-09
-1.44351e-07
-7.31142e-09
-1.63685e-07
1.46929e-08
-1.44505e-07
-2.94584e-08
-1.41874e-07
-1.38261e-08
-1.30283e-07
-1.64329e-08
-1.22631e-07
-8.59583e-09
-1.15161e-07
-1.42788e-08
-1.32002e-07
7.80752e-09
-1.79557e-07
1.28299e-08
-5.78833e-08
5.25594e-08
-1.54041e-07
-6.17386e-09
-1.36797e-07
6.28879e-09
-1.35019e-07
8.18235e-09
-1.28853e-07
-6.13232e-09
-1.20062e-07
-8.88853e-09
-1.0716e-07
-6.87659e-09
-9.43157e-08
1.95932e-10
-8.47202e-08
7.48873e-09
-8.29841e-08
1.13873e-08
-9.21715e-08
9.92439e-09
-1.10928e-07
6.13162e-09
-1.30372e-07
2.76525e-09
-1.43848e-07
4.22639e-09
-1.50236e-07
6.89123e-09
-1.53746e-07
5.21722e-09
-1.54474e-07
3.16903e-09
-1.54115e-07
2.6758e-09
-1.5215e-07
1.83366e-09
-1.51215e-07
1.79252e-09
-2.95794e-10
-1.52372e-07
-3.60999e-08
-1.71095e-07
2.65963e-08
-2.07108e-07
3.88292e-08
-2.28797e-07
2.60532e-08
-9.99367e-08
9.29493e-09
-1.57486e-07
-3.02001e-08
-1.52219e-07
-1.60354e-08
-1.29678e-07
-1.23289e-08
-1.47367e-07
-1.65045e-08
-1.45622e-07
-1.1118e-08
-1.45615e-07
1.67929e-08
-1.19657e-07
2.74803e-08
-1.3751e-07
1.54201e-08
-1.27541e-07
1.44411e-08
-1.5399e-07
4.67868e-09
-1.77143e-07
9.44076e-09
-1.43523e-07
-1.33692e-08
-1.75317e-07
4.26023e-08
-1.91566e-07
1.40127e-08
-2.04725e-07
9.19191e-09
-1.91777e-07
1.11628e-08
-1.85649e-07
9.26519e-09
-1.71698e-07
7.89578e-09
-1.65281e-07
-7.02146e-09
-1.68208e-07
-4.58404e-09
-1.69289e-07
-1.80769e-08
-7.9947e-08
3.34412e-09
-2.13051e-07
-3.67162e-08
-1.63806e-07
-6.46896e-09
-1.70004e-07
6.76899e-09
-1.30258e-07
4.18481e-09
-1.65769e-07
-1.71963e-08
-1.68277e-07
-2.29211e-08
-1.51018e-07
-1.31392e-08
-2.16094e-07
-5.14868e-10
-1.09959e-07
5.72636e-08
-1.07249e-07
2.27337e-08
-1.12755e-07
7.5735e-09
-2.10447e-07
-5.44586e-08
-1.74437e-07
-2.83825e-08
-1.23325e-07
-4.64838e-09
-1.54232e-07
-1.37681e-08
-1.46243e-07
-9.71917e-09
-1.48887e-07
5.57242e-09
-1.50767e-07
4.46162e-09
-1.56615e-07
-1.46336e-09
-1.77215e-07
-1.26866e-08
-1.53628e-07
-5.18422e-09
-1.54189e-07
-1.32649e-08
-1.51139e-07
-1.79414e-08
-1.45804e-07
-1.56484e-08
-1.64075e-07
2.48962e-09
-1.59555e-07
5.01229e-09
-1.67251e-07
2.05264e-08
-1.36484e-07
2.17916e-08
-1.53019e-07
1.02985e-08
-1.51881e-07
6.63231e-09
-1.29906e-07
-1.23556e-08
-1.21128e-07
-1.49107e-08
-1.12274e-07
-1.77423e-08
-1.04575e-07
-1.45754e-08
-9.83448e-08
-6.03456e-09
-9.54725e-08
4.61643e-09
-9.80616e-08
1.39763e-08
-1.09164e-07
2.10272e-08
-1.2611e-07
2.30774e-08
-1.40227e-07
1.68817e-08
-1.47641e-07
1.16405e-08
-1.50206e-07
9.45652e-09
-1.51895e-07
6.90676e-09
-1.52648e-07
3.92174e-09
-1.53016e-07
3.0439e-09
-1.51973e-07
7.91134e-10
-1.51436e-07
1.25515e-09
-1.87388e-10
-8.86002e-08
4.75948e-08
-1.77587e-07
-2.70191e-08
-1.76048e-07
-1.30269e-08
-1.54906e-07
6.22545e-09
-1.21781e-07
2.37943e-08
-1.57257e-07
3.72522e-09
-1.61017e-07
-1.22754e-08
-1.55577e-07
-1.77694e-08
-1.47441e-07
-2.31363e-08
-1.33393e-07
-2.38199e-08
-1.12586e-07
-4.22378e-09
-8.57242e-08
3.46998e-10
-6.65482e-08
-3.94967e-09
-4.34146e-08
-8.92624e-09
-4.67984e-08
8.01548e-09
-5.18041e-08
1.33552e-08
2.97928e-08
5.00087e-08
-6.81216e-08
-1.96717e-09
-8.03307e-08
2.55337e-08
-9.94952e-08
2.7443e-08
-1.16875e-07
2.85424e-08
-1.35859e-07
2.82486e-08
-1.51057e-07
2.3175e-08
-1.54533e-07
-3.61766e-09
-1.82435e-07
-2.47919e-08
-1.5389e-07
1.48823e-09
-1.34514e-07
-1.76186e-08
-1.98092e-07
-2.1744e-08
-1.56689e-07
2.25841e-09
-1.67764e-07
1.80277e-08
-1.44075e-07
-1.94619e-08
-1.306e-07
-3.06709e-08
-1.68997e-07
1.54756e-08
-1.70305e-07
-1.18315e-08
-1.76467e-07
5.64772e-09
-1.51298e-07
3.20942e-08
-1.49047e-07
2.0483e-08
-1.32301e-07
-9.17274e-09
-1.81599e-07
-5.16124e-09
-1.79709e-07
-3.02718e-08
-1.23053e-07
-6.13046e-08
-1.28463e-07
-8.35883e-09
-1.38457e-07
2.75061e-10
-1.50743e-07
1.78585e-08
-1.52636e-07
6.35426e-09
-1.41446e-07
-1.12103e-08
-1.31662e-07
-2.11408e-08
-1.23465e-07
-1.47107e-08
-1.33595e-07
-4.35101e-09
-1.4914e-07
-3.87776e-09
-1.64389e-07
-5.55045e-10
-1.78635e-07
1.65645e-08
-1.89689e-07
1.60664e-08
-1.87217e-07
1.99893e-08
-1.78487e-07
1.30618e-08
-1.69902e-07
3.41212e-09
-1.51874e-07
-9.76364e-09
-1.39447e-07
-2.47825e-08
-1.27031e-07
-2.73266e-08
-1.17584e-07
-2.71901e-08
-1.11834e-07
-2.03254e-08
-1.1101e-07
-6.85888e-09
-1.15984e-07
9.59056e-09
-1.27621e-07
2.5613e-08
-1.40057e-07
3.34638e-08
-1.5001e-07
3.30303e-08
-1.54886e-07
2.17575e-08
-1.55238e-07
1.19925e-08
-1.54145e-07
8.36374e-09
-1.53645e-07
6.4069e-09
-1.53782e-07
4.05856e-09
-1.5362e-07
2.88168e-09
-1.52739e-07
-8.8907e-11
-1.51979e-07
4.953e-10
-2.96638e-10
-1.71729e-07
7.49227e-09
-1.89936e-07
-9.08773e-09
-1.93697e-07
-9.26562e-09
-1.62289e-07
-2.54428e-08
-1.62816e-07
2.45641e-08
-1.67645e-07
8.46833e-09
-1.73051e-07
-6.87025e-09
-1.79177e-07
-1.16431e-08
-1.81875e-07
-2.04384e-08
-1.89439e-07
-1.63331e-08
-1.86789e-07
-6.98837e-09
-1.80112e-07
-6.32651e-09
-1.71032e-07
-1.30702e-08
-1.41006e-07
-3.79925e-08
-1.4499e-07
1.20802e-08
-1.37441e-07
4.50944e-09
-1.22666e-07
3.47233e-08
-1.06274e-07
-1.83796e-08
-1.27925e-07
4.69662e-08
-1.00306e-07
-1.77468e-10
-9.47364e-08
2.29723e-08
-1.1478e-07
4.82919e-08
-1.19017e-07
2.74118e-08
-1.36529e-07
1.38939e-08
-1.52796e-07
-8.52468e-09
-1.48349e-07
-4.47261e-09
-1.46406e-07
-1.93614e-08
-1.29466e-07
-3.73503e-08
-1.4949e-07
2.07576e-08
-1.64805e-07
-1.52625e-08
-1.60552e-07
2.60756e-08
-6.85247e-08
2.163e-08
-2.00541e-07
-4.49462e-08
-1.79473e-07
1.52098e-08
-1.77529e-07
3.74233e-09
-1.66276e-07
2.08414e-08
-1.56235e-07
1.03363e-08
-1.53309e-07
-1.20996e-08
-1.68797e-07
-3.7782e-08
-1.90728e-07
-8.34079e-09
-1.00651e-07
4.10553e-08
-1.16741e-07
7.731e-09
-1.13646e-07
-2.81968e-09
-2.07114e-07
-3.30021e-08
-1.6584e-07
-3.49195e-08
-1.22149e-07
-5.5467e-08
-1.45555e-07
2.04936e-09
-1.36978e-07
-2.20403e-08
-1.16423e-07
-2.37302e-08
-1.10326e-07
-1.01394e-08
-1.17335e-07
5.40023e-09
-1.20677e-07
1.87098e-08
-1.3107e-07
2.62948e-08
-1.32755e-07
2.14554e-08
-1.35498e-07
1.70134e-08
-1.40813e-07
1.00479e-08
-1.46943e-07
-3.63366e-09
-1.55098e-07
-1.66279e-08
-1.5818e-07
-2.42443e-08
-1.59955e-07
-2.54154e-08
-1.57436e-07
-2.28444e-08
-1.52764e-07
-1.15314e-08
-1.51764e-07
8.59048e-09
-1.53304e-07
2.71539e-08
-1.54515e-07
3.46749e-08
-1.54767e-07
3.32817e-08
-1.54305e-07
2.12959e-08
-1.53301e-07
1.09883e-08
-1.52745e-07
7.808e-09
-1.52602e-07
6.26344e-09
-1.52643e-07
4.09937e-09
-1.52613e-07
2.85206e-09
-1.52173e-07
-5.28156e-10
-1.51824e-07
1.46229e-10
-1.83272e-10
-1.8858e-07
2.96336e-09
-1.92472e-07
-5.19513e-09
-2.02704e-07
-1.10184e-09
-1.03177e-07
2.08459e-08
-1.83971e-07
-3.60407e-08
-1.50127e-07
-2.53754e-08
-1.46094e-07
-1.24356e-08
-1.4202e-07
-1.57164e-08
-1.48547e-07
-1.23966e-08
-1.55201e-07
-1.12467e-08
-1.65692e-07
1.88301e-09
-1.69612e-07
-7.23436e-10
-2.04093e-07
1.95275e-08
-1.26112e-07
2.98427e-08
-2.33012e-07
-2.63152e-08
-2.20896e-07
-7.60695e-09
-2.26662e-07
-5.36707e-09
-1.01512e-07
4.99441e-08
-2.05903e-07
6.407e-09
-9.3168e-08
3.07807e-08
-8.62942e-08
1.72245e-08
-1.38204e-07
-4.41263e-08
-1.28734e-07
1.77603e-08
-1.18207e-07
3.36675e-09
-1.33944e-07
7.21177e-09
-1.43962e-07
-4.06806e-08
-1.28413e-07
1.16122e-08
-4.6036e-08
2.47648e-08
-1.65353e-07
-5.18938e-08
-1.39079e-07
6.72836e-09
-1.17289e-07
4.28584e-09
-1.00509e-07
4.84975e-09
-1.57335e-07
1.20025e-08
-1.37859e-07
-5.67273e-09
-1.59186e-07
2.53302e-08
-1.41319e-07
6.0397e-09
-1.33438e-07
2.45533e-09
-1.25147e-07
-2.1532e-08
-1.46122e-07
-1.68072e-08
-1.49015e-07
-5.44788e-09
-1.23713e-07
1.57527e-08
-1.3525e-07
1.92683e-08
-1.47104e-07
9.03405e-09
-1.65219e-07
-1.4887e-08
-1.83337e-07
-1.86724e-08
-5.80341e-08
-3.53176e-08
-1.69031e-07
-3.06897e-08
-1.83217e-07
-7.93569e-09
-1.80747e-07
-2.82862e-08
-1.89971e-07
-2.97821e-09
-1.99589e-07
1.72091e-08
-1.80278e-07
1.43501e-09
-1.71259e-07
1.90228e-08
-1.69226e-07
2.092e-08
-1.66919e-07
1.45364e-08
-1.6669e-07
9.81836e-09
-1.73903e-07
3.58002e-09
-1.80509e-07
-1.00227e-08
-1.86563e-07
-1.81897e-08
-1.9289e-07
-1.90889e-08
-1.99034e-07
-1.67002e-08
-2.00614e-07
-9.95185e-09
-1.94559e-07
2.5362e-09
-1.83376e-07
1.59709e-08
-1.73272e-07
2.45705e-08
-1.64537e-07
2.45471e-08
-1.59894e-07
1.66527e-08
-1.58439e-07
9.53265e-09
-1.56936e-07
6.30569e-09
-1.55197e-07
4.52422e-09
-1.54043e-07
2.94521e-09
-1.5307e-07
1.87979e-09
-1.52619e-07
-9.79744e-10
-1.52145e-07
-3.272e-10
-2.02661e-10
-1.74557e-07
-5.97632e-09
-1.65833e-07
-1.39184e-08
-1.50463e-07
-1.64716e-08
-1.26746e-07
-3.08431e-09
-1.4236e-07
-2.04262e-08
-1.38724e-07
-2.92708e-08
-1.43679e-07
-7.48105e-09
-1.61388e-07
2.01297e-09
-1.52048e-07
-2.17361e-08
-1.61037e-07
-7.2315e-10
-1.60118e-07
-6.714e-10
-1.72947e-07
8.67182e-09
-1.68135e-07
1.64977e-08
-1.51019e-07
1.41377e-08
-1.76358e-07
-9.66602e-10
-1.75376e-07
-8.51154e-09
-1.82262e-07
1.51924e-09
-1.41127e-07
8.80864e-09
-1.7829e-07
-4.51988e-09
-1.26675e-07
2.5668e-08
-1.60223e-07
2.14549e-09
-3.77273e-08
2.78348e-08
-1.36956e-07
-2.58815e-08
-1.2019e-07
-1.47972e-08
-1.41015e-07
-1.86339e-08
-1.20068e-07
-1.40036e-08
-1.2973e-07
1.99633e-08
-1.04742e-07
-4.7587e-10
-1.58712e-07
2.07627e-09
-1.29521e-07
-2.24626e-08
-1.2715e-07
1.91495e-09
-1.34437e-07
1.07644e-08
-1.67238e-07
-3.84131e-09
-1.46479e-07
2.18899e-08
-1.64634e-07
-5.38203e-09
-1.32243e-07
2.3438e-08
-1.55813e-07
-2.04695e-08
-1.17094e-07
-1.26281e-08
-1.32747e-07
-2.34887e-09
-1.40093e-07
1.8985e-09
-1.25231e-07
8.90287e-10
-1.5072e-07
4.43054e-08
-1.47037e-07
5.35055e-09
-1.3464e-07
-2.7565e-08
-1.75302e-07
2.02016e-08
-5.5015e-08
-9.42499e-09
-1.61617e-07
-7.02202e-08
-1.98899e-07