/*--------------------------------*- C++ -*----------------------------------*\
  =========                 |
  \\      /  F ield         | OpenFOAM: The Open Source CFD Toolbox
   \\    /   O peration     | Website:  https://openfoam.org
    \\  /    A nd           | Version:  12
     \\/     M anipulation  |
\*---------------------------------------------------------------------------*/
FoamFile
{
    format      ascii;
    class       surfaceScalarField;
    location    "0.4";
    object      phi.water;
}
// * * * * * * * * * * * * * * * * * * * * * * * * * * * * * * * * * * * * * //

dimensions      [0 3 -1 0 0 0 0];

internalField   nonuniform List<scalar> 
7375
(
9.21191e-08
1.41782e-08
3.49368e-08
8.71212e-09
1.81138e-07
4.40272e-08
5.50942e-08
-1.70801e-08
4.61456e-08
9.56148e-09
1.68381e-07
2.03535e-08
7.43795e-08
-4.83762e-08
9.54478e-08
-2.03268e-08
8.7429e-08
7.9835e-09
8.88288e-08
-1.36435e-09
9.52739e-08
-5.40565e-09
9.31866e-08
2.28062e-09
8.88998e-08
3.33206e-09
9.10982e-08
-2.25425e-09
9.37056e-08
-2.57066e-09
9.69177e-08
-2.20339e-09
8.55448e-08
1.1318e-08
8.23047e-08
2.44535e-09
7.64495e-08
6.68287e-09
2.75653e-08
3.85031e-10
1.38049e-08
1.35472e-08
1.58775e-07
4.7947e-08
4.58491e-08
-3.16997e-08
4.62432e-08
-4.29683e-10
1.49616e-07
4.09445e-08
1.37687e-07
1.19011e-08
-1.34596e-08
-4.07833e-08
3.17876e-08
2.89659e-09
2.33257e-08
8.5283e-09
2.1015e-08
2.34783e-09
2.24986e-08
-1.49821e-09
3.62787e-08
-1.3772e-08
4.52851e-08
-9.07918e-09
8.20473e-08
-3.68038e-08
6.07196e-08
2.09117e-08
4.45542e-08
1.66152e-08
1.24032e-07
6.61536e-08
9.96773e-08
2.28912e-08
9.56994e-08
3.01881e-09
-1.5296e-09
-4.61551e-08
1.21232e-08
-1.37728e-08
2.52049e-08
-1.34013e-08
3.21693e-08
-7.29707e-09
4.92643e-08
-1.65977e-08
8.34278e-08
-3.3467e-08
7.03572e-08
1.13702e-08
6.54303e-08
5.53198e-09
5.52725e-08
1.09812e-08
5.05775e-08
4.119e-09
4.42978e-08
6.75032e-09
5.73492e-08
-1.29133e-08
2.94131e-08
2.70855e-08
2.63706e-08
3.0828e-09
2.36719e-08
2.67803e-09
1.18286e-08
1.1838e-08
1.16242e-07
3.90778e-08
3.92682e-09
-3.02789e-08
5.75353e-09
-1.80451e-09
-3.62469e-09
9.27681e-09
-4.19475e-09
6.6073e-10
-4.85109e-08
-3.6861e-09
-4.65049e-08
-1.44591e-09
-2.61301e-09
3.72073e-09
-3.56847e-09
9.55413e-10
-4.83204e-10
-3.08503e-09
5.36267e-09
-5.84588e-09
1.6557e-08
-1.11941e-08
3.08574e-08
-1.43005e-08
4.21882e-08
-1.13306e-08
4.2018e-08
1.70005e-10
2.03373e-08
2.16807e-08
-1.55916e-08
3.59289e-08
-6.23449e-08
4.67537e-08
-1.0191e-07
3.95653e-08
8.00018e-09
-3.8688e-11
1.28179e-08
-6.61484e-08
2.61262e-08
6.30706e-09
2.04202e-08
-6.46091e-08
5.05453e-09
-5.67826e-08
2.39421e-09
-4.52403e-08
9.27263e-09
-3.65537e-08
-9.92767e-09
-1.77537e-08
-3.97239e-08
-2.41745e-08
1.42604e-08
-2.1084e-08
-4.70147e-09
-1.37433e-08
-1.28777e-08
-7.47436e-09
-4.08787e-09
8.13276e-09
-1.21497e-08
1.40965e-08
-8.44481e-09
1.75859e-08
-6.2375e-09
2.89991e-08
-1.35761e-08
2.44943e-08
1.60033e-08
2.14844e-08
5.45522e-09
-1.82317e-09
2.99906e-08
-2.82757e-08
2.65452e-08
-6.91678e-08
5.37266e-08
-4.60559e-08
2.50732e-08
-8.14565e-08
4.17573e-09
-4.31379e-08
-3.79173e-08
-3.81654e-08
3.56089e-08
-3.52965e-08
9.39228e-09
-6.32135e-08
-1.22278e-08
-4.99218e-08
-1.10334e-08
-4.34661e-08
1.56343e-09
-3.76978e-08
-3.42043e-09
-4.287e-08
3.67412e-09
-4.81368e-08
-8.50518e-09
-8.02815e-08
2.33034e-08
2.81778e-08
-6.47257e-10
-6.93379e-08
-2.76736e-08
-6.53655e-08
1.41866e-08
-3.09747e-08
3.14077e-08
-2.3041e-08
1.46448e-08
-2.58528e-08
5.33189e-09
-7.7557e-08
4.27402e-09
-9.49586e-08
3.59156e-09
-1.05492e-07
-1.88917e-09
-1.1359e-07
1.87679e-09
-1.11791e-07
-1.83781e-08
-9.97868e-09
9.4924e-09
-9.54449e-08
-4.50705e-08
-6.26577e-08
-2.81631e-08
-4.87928e-08
-3.63505e-09
-5.08443e-08
6.17056e-09
-6.12982e-08
1.72042e-08
2.62296e-08
4.42023e-08
-8.95326e-08
-2.33763e-11
-7.00984e-08
-1.72648e-08
-7.45062e-08
7.08585e-09
-8.71532e-08
2.33576e-08
-1.14852e-07
1.95571e-08
-1.37898e-07
4.22111e-08
-1.48252e-07
8.56696e-09
-1.40692e-07
1.62427e-09
-1.36284e-07
-3.75349e-09
-1.32317e-07
-7.6166e-09
-1.2394e-07
-9.80848e-09
-1.12232e-07
-7.98685e-09
-1.05456e-07
-5.82041e-09
-1.01767e-07
-6.77385e-09
-9.42585e-08
-1.33547e-08
-8.39074e-08
-2.1545e-08
-7.34929e-08
-2.4715e-08
-6.44434e-08
-2.038e-08
-6.73628e-08
3.08928e-09
-8.32081e-08
3.75261e-08
-1.05909e-07
5.86302e-08
-1.22856e-07
6.37006e-08
-1.28406e-07
4.5116e-08
4.30719e-09
-1.15496e-07
9.89284e-09
-1.06162e-07
1.65259e-08
-1.07823e-07
2.20807e-08
-1.19487e-07
1.66667e-08
-1.32595e-07
1.55022e-08
-1.33308e-07
1.0088e-08
-1.55147e-07
1.02277e-08
-6.80951e-08
1.9742e-08
-1.5845e-07
-3.74241e-08
-1.54142e-07
-1.21976e-08
-1.54729e-07
-1.22907e-08
-1.36331e-07
-1.93202e-08
-1.29315e-07
-1.90424e-08
-1.25649e-07
-1.34306e-08
-1.20373e-07
-1.2805e-08
-1.48907e-07
1.48179e-08
-1.23103e-07
-8.28158e-09
-1.02415e-07
-1.5232e-08
-1.1458e-07
4.17293e-08
-1.09389e-07
2.13549e-08
-1.22693e-07
1.83728e-08
-1.11915e-07
1.4039e-08
-1.23403e-07
1.56213e-08
-1.93999e-10
3.13137e-08
-1.12828e-07
5.31848e-09
-1.01684e-07
-2.90226e-09
-1.02602e-07
-1.14352e-08
-1.07111e-07
-6.63671e-09
-1.09712e-07
4.16437e-09
-9.04349e-08
-2.29312e-08
-1.16162e-07
2.9401e-08
-1.4843e-07
2.24781e-08
-1.58279e-07
-1.5453e-08
-1.52221e-07
4.14666e-08
-7.21101e-08
3.83165e-08
-1.78858e-07
-2.26579e-08
-1.37813e-07
-9.31669e-09
-1.17782e-07
-5.23718e-09
-1.14331e-07
1.8809e-09
-1.49904e-07
-8.30603e-09
-1.23465e-07
2.5226e-08
-1.29216e-07
3.88057e-09
-1.5752e-07
-1.6321e-08
-1.35369e-07
7.09465e-09
-1.32336e-07
5.07848e-09
-1.58307e-07
-1.956e-08
-1.32501e-07
-5.42557e-08
-1.32579e-07
-3.55708e-09
-1.36224e-07
9.81575e-09
-1.40848e-07
2.03906e-08
-1.46872e-07
4.87126e-08
-1.88503e-07
-5.48429e-09
-1.83322e-07
2.78719e-08
-1.61932e-07
-1.2653e-08
-1.56334e-07
1.60195e-08
-1.66882e-07
2.97058e-08
-1.56006e-07
3.46722e-08
-1.68058e-07
2.06193e-08
-1.80029e-07
1.35947e-08
-1.8975e-07
5.96779e-09
-1.92673e-07
-4.69379e-09
-1.90126e-07
-1.23547e-08
-1.85531e-07
-1.2582e-08
-1.80569e-07
-1.07831e-08
-1.76484e-07
-1.08582e-08
-1.71676e-07
-1.81623e-08
-1.68162e-07
-2.50596e-08
-1.66089e-07
-2.67876e-08
-1.6561e-07
-2.08589e-08
-1.66742e-07
4.22107e-09
-1.66781e-07
3.75649e-08
-1.58965e-07
5.08151e-08
-1.46924e-07
5.16594e-08
-1.36209e-07
3.44012e-08
-4.22371e-10
-1.57691e-07
7.0752e-09
-1.31839e-07
-9.42248e-09
-1.4734e-07
3.75812e-08
-1.47629e-07
1.69556e-08
-1.55546e-07
2.18325e-08
-1.6649e-07
2.10318e-08
-1.87709e-07
3.31453e-08
-1.66222e-07
-1.92644e-09
-1.93377e-07
-1.06511e-08
-1.92761e-07
-1.28141e-08
-1.78752e-07
-2.41048e-08
-1.68507e-07
-2.95651e-08
-1.60667e-07
-2.87951e-08
-1.71788e-07
-2.3097e-09
-1.57365e-07
-2.72284e-08
-1.62741e-07
2.00431e-08
-1.70191e-07
-8.31421e-10
-7.51957e-08
3.48681e-08
-1.61599e-07
-1.45907e-08
-1.44667e-07
2.77469e-09
-1.37042e-07
1.07473e-08
-1.36503e-07
1.34998e-08
-1.64636e-07
4.37544e-08
-3.02667e-08
4.1582e-08
-1.42753e-07
-2.5012e-08
-1.35688e-07
-1.14242e-08
-1.26512e-07
-2.0611e-08
-1.31628e-07
-1.52046e-09
-1.44894e-07
1.59521e-08
-6.2871e-08
4.12875e-08
-1.5757e-07
-2.11941e-08
-1.7153e-07
-1.21673e-08
-1.37133e-07
1.6701e-10
-1.39204e-07
4.30977e-08
-1.23925e-07
2.26467e-08
-1.43995e-07
-2.58719e-09
-1.46521e-07
-6.79105e-09
-1.46946e-07
-4.81191e-09
-1.54838e-07
9.77274e-09
-1.76212e-07
1.30687e-08
-1.51314e-07
3.27153e-10
-1.3309e-07
-1.43434e-08
-1.45387e-07
-4.02382e-09
-1.36479e-07
-1.74067e-09
-1.50082e-07
-2.97308e-08
-1.96188e-07
2.65461e-08
-1.13143e-07
5.51363e-08
-1.24329e-07
7.62906e-09
-1.21477e-07
6.8933e-09
-1.04283e-07
3.16473e-09
-1.62036e-07
-3.83597e-08
-1.84953e-07
1.56018e-08
-1.95826e-07
-9.86071e-09
-1.62127e-07
5.4091e-09
-1.45012e-07
5.31111e-10
-1.40592e-07
2.4692e-08
-1.36515e-07
3.05953e-08
-1.4613e-07
3.02344e-08
-1.60101e-07
2.75654e-08
-1.73409e-07
1.92756e-08
-1.8176e-07
3.65803e-09
-1.86411e-07
-7.70461e-09
-1.89022e-07
-9.97066e-09
-1.92362e-07
-7.44293e-09
-1.95371e-07
-7.84865e-09
-1.94901e-07
-1.86325e-08
-1.9232e-07
-2.76409e-08
-1.91169e-07
-2.79381e-08
-1.9322e-07
-1.88077e-08
-1.92513e-07
3.51364e-09
-1.82925e-07
2.79778e-08
-1.67534e-07
3.54236e-08
-1.50743e-07
3.48693e-08
-1.39815e-07
2.34735e-08
-3.04875e-09
-2.13024e-07
5.22588e-08
-1.33908e-07
5.72764e-08
-2.25835e-07
-1.34548e-08
-1.8487e-07
-2.42567e-08
-2.09908e-07
4.68702e-08
-1.70843e-07
-1.82476e-08
-2.08059e-07
2.41281e-08
-1.80824e-07
1.84621e-08
-1.95092e-07
1.77246e-09
-1.78403e-07
-2.74035e-08
-1.74094e-07
-2.84135e-08
-1.78391e-07
-2.73461e-08
-1.84042e-07
-2.31439e-08
-2.0556e-07
-2.86091e-08
-1.93523e-07
8.84413e-09
-1.76221e-07
2.74093e-09
-1.76728e-07
-3.23656e-10
-1.46572e-07
6.20695e-09
-1.49106e-07
-1.22035e-08
-1.42364e-07
-5.48917e-09
-1.32994e-07
1.37776e-09
-1.25438e-07
5.94387e-09
-1.38482e-07
8.68864e-09
-9.13925e-08
-5.50722e-09
-1.16203e-07
-4.56529e-10
-1.35616e-07
7.98914e-09
-1.34183e-07
2.60655e-08
-1.48932e-07
1.33642e-08
-1.40813e-07
6.39659e-09
-1.58011e-07
9.45473e-09
-1.51864e-07
2.2381e-08
-1.75923e-07
1.20156e-08
-6.60396e-08
3.52859e-08
-1.49426e-07
-1.63866e-08
-1.3216e-07
3.85607e-09
-1.27216e-07
-7.53103e-09
-1.11708e-07
-2.22984e-08
-1.35353e-07
1.88326e-08
-1.75396e-07
4.98163e-08
-1.72553e-07
1.02253e-08
-1.26422e-07
-4.58036e-08
-1.33697e-07
-7.06873e-09
-1.33233e-07
-4.48746e-09
-1.43517e-07
7.07961e-09
-1.05449e-07
7.80163e-08
-2.02012e-07
-2.01433e-08
-1.25346e-07
-2.15295e-08
-1.06127e-07
-1.05074e-08
-7.22034e-08
-2.63008e-08
-1.02613e-07
3.2845e-08
-3.40048e-08
3.66881e-08
-1.47441e-07
-1.51355e-08
-1.50078e-07
-7.05145e-09
-1.40371e-07
-4.29772e-09
-1.39455e-07
1.04328e-09
-1.34359e-07
2.09895e-08
-1.37002e-07
3.32388e-08
-1.42523e-07
3.57554e-08
-1.49819e-07
3.48615e-08
-1.60049e-07
2.95054e-08
-1.74226e-07
1.78349e-08
-1.89008e-07
7.07728e-09
-2.00912e-07
1.9335e-09
-2.07626e-07
-7.28393e-10
-2.06539e-07
-8.93573e-09
-1.99422e-07
-2.57496e-08
-1.92979e-07
-3.40841e-08
-1.87806e-07
-3.31107e-08
-1.86153e-07
-2.04605e-08
-1.84921e-07
2.2811e-09
-1.7562e-07
1.86773e-08
-1.62045e-07
2.18493e-08
-1.49285e-07
2.21094e-08
-1.41687e-07
1.58759e-08
-2.63371e-09
-2.36879e-07
-8.5682e-09
-1.98889e-07
1.87017e-08
-2.30424e-07
1.5729e-08
-1.382e-07
2.93347e-08
-2.61529e-07
-2.08282e-08
-1.16792e-07
3.06446e-08
-2.07013e-07
-2.85215e-08
-1.69804e-07
-2.06703e-08
-1.74324e-07
-4.0039e-08
-1.60046e-07
5.94251e-09
-1.61086e-07
-2.90004e-08
-1.62451e-07
-2.59808e-08
-1.58235e-07
-2.57454e-08
-1.58338e-07
-2.85068e-08
-1.60254e-07
9.14522e-09
-1.53621e-07
-3.89221e-09
-1.47337e-07
-6.60772e-09
-1.25627e-07
-1.55024e-08
-1.24505e-07
-1.34501e-08
-1.18085e-07
-1.19097e-08
-1.17464e-07
7.56869e-10
-1.20685e-07
9.25981e-09
-1.61237e-07
1.1308e-09
-1.14737e-07
-3.93812e-09
-1.24609e-07
9.41593e-09
-1.52943e-07
3.59561e-08
-1.43089e-07
1.47523e-08
-1.73908e-07
-4.422e-09
-1.4694e-07
2.93123e-08
-1.54875e-07
1.72932e-08
-1.37201e-07
4.70662e-09
-1.41908e-07
1.6723e-08
-1.29771e-07
2.31491e-08
-1.5383e-07
7.505e-09
-1.52239e-07
2.26521e-09
-1.74882e-07
1.51119e-08
-8.87212e-08
3.58696e-08
-8.79383e-08
1.80497e-08
-1.96283e-07
-3.42772e-08
-1.87825e-07
1.76743e-09
-9.5931e-08
5.47407e-08
-1.17604e-07
1.46047e-08
-1.22559e-07
4.67048e-10
-9.8567e-08
-1.69122e-08
-1.7149e-07
-4.2294e-08
-1.8098e-07
-1.06533e-08
-1.60322e-07
5.92181e-09
-1.45378e-07
-2.57142e-08
-5.11734e-08
2.35549e-08
-1.52016e-07
-1.18569e-08
-1.4723e-07
3.34198e-08
-1.46207e-07
-1.31945e-08
-1.39633e-07
-1.51023e-08
-1.26478e-07
-1.88768e-08
-1.23045e-07
-1.13525e-09
-1.26604e-07
2.57789e-08
-1.32144e-07
3.87789e-08
-1.36704e-07
4.03155e-08
-1.3977e-07
3.79275e-08
-1.44232e-07
3.39677e-08
-1.53214e-07
2.68167e-08
-1.66441e-07
2.03046e-08
-1.79715e-07
1.52073e-08
-1.87605e-07
7.16117e-09
-1.83777e-07
-1.27633e-08
-1.76867e-07
-3.26597e-08
-1.73748e-07
-3.7203e-08
-1.72944e-07
-3.39144e-08
-1.74859e-07
-1.85457e-08
-1.72604e-07
2.62141e-11
-1.64888e-07
1.09617e-08
-1.56189e-07
1.31507e-08
-1.48646e-07
1.45669e-08
-1.43865e-07
1.10951e-08
-1.55972e-09
-1.6767e-07
1.64518e-08
-1.60707e-07
1.17381e-08
-1.68554e-07
2.35754e-08
-1.44558e-07
4.98886e-09
-1.71812e-07
6.42575e-09
-1.42899e-07
1.73142e-09
-1.53034e-07
-1.86782e-08
-1.45822e-07
-2.78818e-08
-1.34525e-07
-5.18651e-08
-1.43521e-07
-3.16464e-08
-1.37139e-07
1.21192e-08
-1.43617e-07
-2.09019e-08
-1.3908e-07
-3.05948e-08
-1.348e-07
-3.30773e-08
-1.42818e-07
-3.09465e-08
-1.24827e-07
-2.18831e-08
-1.68103e-07
3.6669e-08
-1.48105e-07
1.26089e-08
-1.45251e-07
-1.63037e-08
-1.37154e-07
-2.02132e-08
-1.41719e-07
3.87593e-09
-1.56968e-07
2.47644e-08
-1.89766e-07
3.35942e-08
-1.01213e-07
5.3325e-08
-1.11076e-07
2.14445e-08
-2.07865e-07
-1.01254e-08
-1.70805e-07
-2.41817e-08
-1.67846e-07
-7.3354e-09
-1.58105e-07
1.9571e-08
-1.55144e-07
1.43321e-08
-1.52467e-07
2.0299e-09
-1.34548e-07
-1.19557e-09
-1.65131e-07
5.37315e-08
-1.66134e-07
8.50832e-09
-1.55377e-07
-8.49225e-09
-1.46999e-07
6.73429e-09
-1.30108e-07
1.8979e-08
-1.38217e-07
2.61589e-08
-1.7627e-07
3.77615e-09
-1.79798e-07
5.2954e-09
-1.45924e-07
2.06559e-08
-1.38608e-07
7.2884e-09
-1.34035e-07
-4.10538e-09
-1.38303e-07
-1.26448e-08
-1.78748e-07
-1.84906e-09
-1.9651e-07
7.10949e-09
-1.95059e-07
2.48099e-09
-1.18303e-07
4.33452e-08
-1.12647e-07
1.9106e-08
-1.2211e-07
-2.3943e-09
-1.99548e-07
-3.38109e-08
-1.88321e-07
-2.4556e-08
-1.75459e-07
-2.84086e-08
-1.37582e-07
-5.73389e-08
-1.3858e-07
1.27648e-09
-1.52528e-07
4.11131e-08
-1.47296e-07
3.35467e-08
-1.43445e-07
3.64645e-08
-1.40974e-07
3.54562e-08
-1.40072e-07
3.3066e-08
-1.42455e-07
2.92e-08
-1.47255e-07
2.5104e-08
-1.507e-07
1.86521e-08
-1.50716e-07
7.17742e-09
-1.47276e-07
-1.62028e-08
-1.48332e-07
-3.16036e-08
-1.52045e-07
-3.34902e-08
-1.59048e-07
-2.69111e-08
-1.65445e-07
-1.21485e-08
-1.64331e-07
-1.08779e-09
-1.59373e-07
6.00321e-09
-1.53917e-07
7.69579e-09
-1.49708e-07
1.0358e-08
-1.46217e-07
7.60462e-09
-9.28083e-10
-1.64835e-07
1.66482e-08
-1.53209e-07
1.10332e-10
-1.69333e-07
-6.68338e-09
-1.43707e-07
2.69868e-08
-1.50561e-07
1.18131e-08
-1.46192e-07
-2.63721e-09
-1.56577e-07
-8.37876e-09
-1.68983e-07
-1.71998e-08
-9.49042e-08
1.98718e-08
-1.05485e-07
-1.90211e-08
-1.75605e-07
-6.05094e-08
-1.79729e-07
-2.06134e-08
-1.65123e-07
-4.52001e-08
-1.52604e-07
-4.43649e-08
-2.00354e-07
1.68032e-08
-1.11265e-07
3.33563e-08
-2.4829e-07
-1.85538e-08
-1.879e-07
3.28346e-10
-1.67232e-07
-3.90761e-08
-2.00355e-07
1.29092e-08
-1.83723e-07
-1.27158e-08
-2.21339e-07
6.21252e-08
-1.99511e-07
1.40247e-08
-1.56566e-07
9.83576e-09
-1.78769e-07
4.32066e-08
-2.24424e-07
-1.03936e-08
-2.00941e-07
-4.0478e-11
-1.79868e-07
-3.04586e-08
-1.94888e-07
3.42415e-08
-1.99124e-07
1.85679e-08
-2.21226e-07
2.41324e-08
-1.09914e-07
3.18209e-08
-2.09892e-07
-3.87279e-08
-1.84018e-07
-1.73655e-08
-1.61283e-07
1.68814e-08
-1.38396e-07
-1.63184e-08
-1.33611e-07
1.41938e-08
-1.59047e-07
5.10742e-08
-1.7148e-07
1.62088e-08
-1.71773e-07
7.34135e-09
-1.56905e-07
5.78787e-09
-1.53961e-07
2.74359e-09
-1.56561e-07
-1.506e-09
-1.66421e-07
-2.78421e-09
-1.8317e-07
1.49003e-08
-1.69049e-07
-6.94109e-09
-1.74023e-07
7.45505e-09
-1.42387e-07
1.12671e-08
-1.42799e-07
1.95176e-08
-1.49754e-07
4.56082e-09
-1.66322e-07
-1.72426e-08
-2.07329e-07
1.43352e-08
-2.29417e-07
-8.59668e-09
-1.29442e-07
-9.22816e-09
-1.22521e-07
-3.07384e-09
-2.18646e-07
-2.9791e-09
-1.91879e-07
6.77904e-09
-1.72577e-07
1.71632e-08
-1.58651e-07
2.15299e-08
-1.49404e-07
2.38185e-08
-1.44429e-07
2.42254e-08
-1.41277e-07
2.19519e-08
-1.38666e-07
1.6041e-08
-1.35703e-07
4.21462e-09
-1.35577e-07
-1.63287e-08
-1.40884e-07
-2.62959e-08
-1.47318e-07
-2.70565e-08
-1.54578e-07
-1.96504e-08
-1.58728e-07
-7.99882e-09
-1.58103e-07
-1.71235e-09
-1.55543e-07
3.44282e-09
-1.52483e-07
4.63652e-09
-1.4992e-07
7.79495e-09
-1.4787e-07
5.55519e-09
-5.0867e-10
-1.88698e-07
7.68867e-10
-1.41517e-07
5.52964e-10
-1.41262e-07
-8.38299e-09
-1.52263e-07
3.78768e-08
-1.55886e-07
1.54359e-08
-1.60778e-07
6.15219e-10
-2.13764e-07
-4.04043e-09
-1.66612e-07
-1.40617e-08
-1.34984e-07
-1.19586e-08
-1.43654e-07
-1.03505e-08
-1.78919e-07
-2.79728e-08
-2.23536e-07
-2.46011e-08
-2.40147e-07
2.00154e-08
-1.34872e-07
-3.82357e-09
-2.29115e-07
-3.19065e-08
-2.05393e-07
1.18509e-08
-2.22229e-07
-1.71781e-09
-2.2689e-07
4.07508e-10
-1.36968e-07
1.68185e-08
-2.27126e-07
-4.23129e-08
-1.56636e-07
6.26106e-08
-2.56628e-07
-2.9357e-08
-2.39475e-07
4.49811e-08
-1.19847e-07
3.53977e-08
-2.16924e-07
-2.58665e-09
-2.30311e-07
7.80161e-10
-2.29835e-07
-5.16322e-10
-1.46491e-07
3.16965e-08
-2.40761e-07
-1.43596e-08
-2.28721e-07
4.07233e-09
-2.24976e-07
2.03876e-08
-1.84756e-07
-8.31491e-09
-2.12076e-07
-1.14073e-08
-1.89857e-07
-3.99928e-08
-2.10105e-07
3.49867e-08
-1.32619e-07
5.20109e-08
-1.075e-07
-8.56284e-09
-2.10844e-07
1.15476e-08
-1.94227e-07
-2.55962e-09
-1.71239e-07
-1.56461e-08
-1.90422e-07
2.47773e-08
-1.92075e-07
4.39673e-09
-1.95507e-07
1.92621e-09
-1.74324e-07
-2.39672e-08
-1.82578e-07
-2.30933e-08
-1.77284e-07
3.50355e-08
-1.71286e-07
-3.51828e-10
-1.33901e-07
-2.61184e-08
-1.51543e-07
3.67848e-08
-1.54822e-07
7.83965e-09
-1.64414e-07
-7.65025e-09
-1.92464e-07
-3.72317e-09
-1.768e-07
2.18855e-08
-9.29268e-08
5.09875e-08
-9.42454e-08
1.54318e-10
-1.91161e-07
-4.70334e-08
-1.75574e-07
-8.80871e-09
-1.66491e-07
8.08009e-09
-1.55166e-07
1.02057e-08
-1.43883e-07
1.25354e-08
-1.36381e-07
1.67236e-08
-1.32745e-07
1.83155e-08
-1.33848e-07
1.71437e-08
-1.38126e-07
8.49341e-09
-1.43867e-07
-1.05881e-08
-1.47503e-07
-2.26592e-08
-1.50663e-07
-2.38967e-08
-1.54343e-07
-1.59705e-08
-1.56938e-07
-5.40338e-09
-1.56967e-07
-1.68325e-09
-1.55267e-07
1.74249e-09
-1.53595e-07
2.96482e-09
-1.51046e-07
5.2464e-09
-1.49254e-07
3.76372e-09
-4.17879e-10
-1.6523e-07
5.36794e-09
-1.55987e-07
3.90268e-08
-6.29861e-08
4.35865e-08
-1.56815e-07
-1.11651e-08
-1.46559e-07
3.58008e-09
-1.63081e-07
1.54735e-08
-1.96595e-07
-1.88954e-08
-1.64961e-07
4.46499e-09
-1.51236e-07
-2.56837e-08
-1.61904e-07
-1.33381e-09
-1.93723e-07
3.84625e-09
-2.27224e-07
8.89915e-09
-2.27814e-07
-2.79996e-08
-2.09717e-07
2.88469e-08
-1.97894e-07
-4.62197e-08
-2.36023e-07
1.37381e-09
-2.35043e-07
-3.06838e-10
-2.36393e-07
1.75743e-09
-2.29203e-07
9.45688e-09
-1.36619e-07
5.75409e-08
-2.49367e-07
-1.77183e-08
-2.26648e-07
-3.96648e-09
-2.23879e-07
-3.61261e-09
-1.9292e-07
5.20618e-08
-2.15671e-07
1.81704e-08
-2.21746e-07
6.85436e-09
-2.16687e-07
-3.36414e-09
-1.86602e-07
1.61153e-09
-2.02813e-07
-1.99029e-10
-2.01251e-07
2.5111e-09
-2.27673e-07
1.02278e-09
-1.87401e-07
-9.54149e-10
-2.0438e-07
1.57479e-09
-1.22065e-07
2.35082e-08
-1.92669e-07
-3.74925e-08
-1.97544e-07
5.37913e-08
-1.17142e-07
5.74435e-08
-2.18988e-07
-2.9622e-08
-2.14146e-07
-7.40078e-09
-1.07749e-07
2.33839e-08
-2.12583e-07
-1.33947e-08
-1.9525e-07
-1.51052e-08
-2.07612e-07
1.41442e-08
-1.18694e-07
3.14432e-08
-1.32619e-07
-7.81509e-09
-1.95352e-07
-4.47482e-08
-1.71681e-07
-2.60166e-08
-4.54656e-08
-7.54126e-09
-1.52555e-07
9.93369e-10
-1.42801e-07
-3.4704e-09
-1.55618e-07
6.68587e-09
-1.46095e-07
-1.47211e-08
-1.37974e-07
1.24836e-08
-1.09214e-07
2.31149e-08
-1.26505e-07
1.74458e-08
-1.3094e-07
-4.17424e-08
-1.25775e-07
-1.27921e-08
-1.4732e-07
2.96245e-08
-1.38186e-07
1.07175e-09
-1.241e-07
-1.54995e-09
-1.11682e-07
4.30477e-09
-1.0502e-07
1.16537e-08
-1.03792e-07
1.59158e-08
-1.07413e-07
1.21148e-08
-1.17908e-07
-9.35997e-11
-1.27526e-07
-1.30411e-08
-1.34764e-07
-1.66579e-08
-1.41811e-07
-8.92364e-09
-1.47883e-07
6.68356e-10
-1.51379e-07
1.81314e-09
-1.52206e-07
2.56968e-09
-1.52376e-07
3.13516e-09
-1.50989e-07
3.85997e-09
-1.49991e-07
2.7656e-09
-2.74528e-10
-1.6164e-07
1.37038e-08
-1.37542e-07
1.47787e-08
-1.12413e-07
1.72304e-08
-1.30675e-07
7.0546e-09
-1.46354e-07
1.92593e-08
-1.56828e-07
-2.03544e-08
-1.37349e-07
8.0528e-09
-1.60585e-07
-2.23205e-08
-1.42793e-07
6.27265e-09
-1.48988e-07
4.86087e-09
-1.59095e-07
1.22915e-08
-2.04733e-07
5.9311e-09
-2.05751e-07
2.14035e-08
-2.32397e-07
4.4926e-09
-1.24931e-07
4.31312e-08
-2.47026e-07
-1.9801e-08
-2.37161e-07
-1.01724e-08
-2.40725e-07
5.32208e-09
-2.16057e-07
-1.53686e-08
-2.01418e-07
4.29028e-08
-2.51439e-07
3.23018e-08
-1.6254e-07
5.14631e-08
-1.7664e-07
1.0382e-08
-2.20334e-07
-4.80418e-08
-2.17963e-07
1.56399e-08
-2.09475e-07
-1.63346e-09
-2.07518e-07
-5.37613e-09
-1.7029e-07
-3.55999e-08
-1.74274e-07
3.78556e-09
-1.7964e-07
7.8773e-09
-2.19029e-07
-5.40797e-09
-1.68696e-07
-3.67364e-09
-1.62811e-07
-6.0314e-09
-1.80747e-07
-6.90423e-09
-7.29608e-08
4.79032e-08
-1.86375e-07
2.24522e-08
-1.89023e-07
8.97352e-09
-1.92114e-07
2.35067e-08
-1.83996e-07
-1.55185e-08
-1.61053e-07
-1.20231e-09
-2.03081e-07
-2.01099e-08
-1.68646e-07
2.36152e-09
-1.5156e-07
-2.94146e-09
-1.29695e-07
8.03241e-09
-1.33617e-07
-3.89356e-09
-1.57789e-07
-2.10322e-08
-1.53688e-07
-3.04284e-08
-2.89599e-08
1.23545e-08
-1.52913e-07
-1.77348e-08
-1.35431e-07
-2.1131e-08
-1.19169e-07
-9.48027e-09
-1.22821e-07
-1.25636e-08
-1.23051e-07
1.25861e-08
-1.16857e-07
1.69215e-08
-1.67619e-07
2.00978e-08
-7.04394e-08
5.35162e-08
-8.30619e-08
5.4725e-10
-1.61337e-07
-3.27123e-08
-1.40059e-07
-2.02063e-08
-1.26023e-07
-1.55861e-08
-1.1103e-07
-1.0688e-08
-9.71657e-08
-2.21063e-09
-8.70721e-08
5.82226e-09
-8.50685e-08
1.01113e-08
-9.40618e-08
8.89974e-09
-1.12477e-07
5.37417e-09
-1.31464e-07
2.32909e-09
-1.44432e-07
4.04478e-09
-1.50456e-07
6.69171e-09
-1.537e-07
5.05731e-09
-1.54235e-07
3.10497e-09
-1.53752e-07
2.65295e-09
-1.51728e-07
1.83634e-09
-1.50755e-07
1.79279e-09
-2.99336e-10
-1.82101e-07
1.91326e-08
-1.6757e-07
-1.28283e-09
-1.76329e-07
2.24443e-08
-1.83715e-07
1.62585e-08
-1.86008e-07
-2.25557e-08
-1.65654e-07
6.91557e-09
-1.47202e-07
-1.20074e-08
-1.53837e-07
-1.54578e-08
-1.41356e-07
-6.20779e-09
-1.3418e-07
-2.29175e-09
-1.3682e-07
1.47808e-08
-1.47701e-07
1.65822e-08
-1.46472e-07
1.99705e-08
-1.5851e-07
1.63186e-08
-1.31828e-07
1.45161e-08
-1.65211e-07
1.34434e-08
-1.93317e-07
1.98219e-08
-2.13981e-07
2.35621e-08
-1.2844e-07
4.44484e-08
-2.24865e-07
-3.6897e-09
-2.07638e-07
1.50747e-08
-1.75723e-07
2.13401e-08
-1.79524e-07
1.41833e-08
-9.55037e-08
1.14094e-08
-1.73388e-07
-4.93467e-08
-1.57182e-07
-2.12115e-08
-1.75404e-07
-3.57593e-08
-1.53188e-07
-7.99874e-09
-1.48806e-07
-5.96419e-10
-1.50065e-07
1.06669e-08
-1.62935e-07
7.4628e-09
-1.66524e-07
-1.78501e-09
-1.53333e-07
-1.92216e-08
-1.5361e-07
-6.62791e-09
-1.22887e-07
1.71806e-08
-1.51535e-07
3.21993e-09
-1.58481e-07
1.58281e-08
-1.56086e-07
2.11118e-08
-1.40697e-07
1.72019e-08
-1.39126e-07
-2.77355e-09
-1.57028e-07
-2.00217e-09
-1.58876e-07
4.20873e-09
-1.57098e-07
-4.74883e-09
-1.4833e-07
-7.35942e-10
-1.54436e-07
2.21256e-09
-1.83236e-07
5.89909e-09
-1.03757e-07
3.55414e-08
-6.83613e-08
-2.107e-08
-1.68363e-07
-6.07826e-08
-1.53819e-07
-3.58237e-08
-1.44475e-07
-2.05866e-08
-1.61991e-07
3.46315e-09
-1.4986e-07
2.12925e-09
-1.47176e-07
1.42374e-08
-1.51454e-07
2.43761e-08
-1.23217e-07
2.52793e-08
-1.25088e-07
3.65658e-09
-1.30561e-07
-2.59885e-08
-1.2486e-07
-2.5907e-08
-1.15659e-07
-2.47866e-08
-1.07289e-07
-1.90586e-08
-1.00526e-07
-8.97379e-09
-9.73311e-08
2.62779e-09
-9.97149e-08
1.24951e-08
-1.10645e-07
1.98304e-08
-1.27284e-07
2.20132e-08
-1.40958e-07
1.6003e-08
-1.47987e-07
1.10734e-08
-1.50324e-07
9.02911e-09
-1.51839e-07
6.57226e-09
-1.5243e-07
3.69601e-09
-1.52671e-07
2.89464e-09
-1.51558e-07
7.23787e-10
-1.50978e-07
1.21322e-09
-1.99351e-10
-1.96716e-07
-2.4538e-09
-1.60598e-07
1.02089e-08
-1.52092e-07
1.20711e-08
-1.45852e-07
1.13404e-08
-1.65869e-07
-2.53855e-09
-1.62702e-07
2.12682e-09
-1.63146e-07
-1.15632e-08
-1.61487e-07
-1.71168e-08
-1.47057e-07
-1.91378e-08
-1.29935e-07
-1.81014e-08
-1.1042e-07
-4.93142e-09
-9.70061e-08
3.0329e-09
-8.04182e-08
3.21517e-09
-6.37815e-08
-4.85987e-10
-2.8707e-08
-2.09126e-08
-2.47197e-08
8.78082e-09
-8.45818e-08
3.16957e-08
-5.87257e-08
4.6777e-08
-5.49136e-08
3.95945e-08
-1.06139e-07
4.6976e-08
-1.29731e-07
3.86667e-08
-1.34429e-07
2.60382e-08
-1.41866e-07
2.17643e-08
-1.30733e-07
2.76313e-10
-1.57374e-07
-2.32087e-08
-1.4985e-07
-2.87354e-08
-1.6206e-07
-2.50939e-08
-1.67723e-07
-2.33574e-09
-1.33947e-07
-3.29977e-08
-1.47081e-07
2.38012e-08
-1.55688e-07
1.61457e-08
-1.61255e-07
3.7821e-09
-1.49217e-07
-3.12597e-08
-1.52405e-07
-3.44026e-09
-1.49655e-07
1.44306e-08
-1.64819e-07
1.83843e-08
-1.62308e-07
1.33173e-08
-1.53618e-07
1.24214e-08
-1.38301e-07
1.88534e-09
-1.39084e-07
-1.99048e-09
-1.51475e-07
1.03893e-08
-1.53965e-07
6.69796e-09
-1.63126e-07
4.41301e-09
-1.43784e-07
-2.00784e-08
-1.4712e-07
5.54877e-09
-1.4134e-07
1.56093e-09
-9.3181e-08
-1.20355e-08
-8.85952e-08
-2.65968e-08
-1.18322e-07
-3.22508e-08
-1.42683e-07
-1.27876e-08
-1.62714e-07
-7.59797e-10
-1.76523e-07
1.70959e-08
-1.85222e-07
1.08284e-08
-1.60889e-07
-8.29059e-09
-1.75189e-07
3.82855e-08
-1.59048e-07
1.06524e-08
-1.41918e-07
-1.19205e-08
-1.35731e-07
-3.21748e-08
-1.26966e-07
-3.46728e-08
-1.18754e-07
-3.2998e-08
-1.13288e-07
-2.45246e-08
-1.12444e-07
-9.81783e-09
-1.17417e-07
7.60094e-09
-1.28893e-07
2.39712e-08
-1.41045e-07
3.19822e-08
-1.50681e-07
3.16491e-08
-1.55182e-07
2.05038e-08
-1.55294e-07
1.11857e-08
-1.54052e-07
7.78707e-09
-1.53452e-07
5.97229e-09
-1.53479e-07
3.72297e-09
-1.53227e-07
2.64278e-09
-1.5228e-07
-2.2257e-10
-1.5149e-07
4.23944e-10
-3.11498e-10
-2.07747e-07
4.01649e-09
-1.94271e-07
-3.16301e-09
-1.62391e-07
-2.0013e-08
-1.90615e-07
3.95636e-08
-1.81421e-07
-1.17588e-08
-1.75446e-07
-3.80914e-09
-1.7716e-07
-9.8488e-09
-1.81413e-07
-1.28641e-08
-1.84584e-07
-1.5966e-08
-1.89145e-07
-1.35871e-08
-1.88021e-07
-6.16823e-09
-1.83628e-07
-1.32955e-09
-1.81746e-07
1.36602e-09
-1.99725e-07
1.76691e-08
-9.82256e-08
2.17026e-08
-1.30865e-07
4.15099e-08
-1.39227e-07
3.97341e-08
-1.30606e-07
3.86337e-08
-9.05758e-08
-3.18822e-11
-1.16614e-07
7.30145e-08
-1.19299e-07
4.13512e-08
-1.14066e-07
2.08053e-08
-1.14623e-07
2.2322e-08
-1.27413e-07
1.30656e-08
-1.37074e-07
-1.35474e-08
-1.39541e-07
-2.76921e-08
-1.3726e-07
-2.73741e-08
-1.63114e-07
2.3278e-08
-6.6557e-08
1.62612e-08
-1.65489e-07
-2.09164e-08
-1.43658e-07
-5.68531e-09
-1.71695e-07
-1.62901e-08
-1.5606e-07
1.21552e-09
-1.49205e-07
-1.04015e-08
-1.67056e-07
3.22816e-08
-1.70287e-07
2.16154e-08
-1.40937e-07
-1.60327e-08
-1.55883e-07
2.70905e-08
-1.42413e-07
-1.15841e-08
-1.38528e-07
-5.8755e-09
-1.60329e-07
-1.59196e-08
-1.53686e-07
5.51102e-11
-1.63453e-07
1.41803e-08
-1.63823e-07
2.84009e-08
-1.55601e-07
-2.67331e-09
-1.40751e-07
-1.34256e-08
-1.22053e-07
-3.08565e-08
-1.08472e-07
-3.93422e-08
-7.87912e-08
-6.17597e-08
-9.41744e-08
2.75092e-09
-1.08573e-07
1.28246e-08
-1.23049e-07
3.0465e-08
-1.47056e-07
3.32248e-08
-5.7243e-08
4.78092e-08
-1.49498e-07
-1.01398e-08
-1.40114e-07
1.16215e-09
-1.42761e-07
-9.27344e-09
-1.52208e-07
-2.27285e-08
-1.57031e-07
-2.9849e-08
-1.59781e-07
-3.02484e-08
-1.57661e-07
-2.66442e-08
-1.53233e-07
-1.42458e-08
-1.52276e-07
6.64386e-09
-1.53798e-07
2.54925e-08
-1.54891e-07
3.30754e-08
-1.55005e-07
3.17634e-08
-1.54384e-07
1.98826e-08
-1.53246e-07
1.00483e-08
-1.52576e-07
7.11708e-09
-1.5233e-07
5.72649e-09
-1.52277e-07
3.67007e-09
-1.52167e-07
2.53301e-09
-1.51677e-07
-7.12302e-10
-1.51298e-07
4.5808e-11
-2.0948e-10
-2.128e-07
-5.03549e-10
-2.15764e-07
-2.40097e-09
-1.05438e-07
1.54763e-08
-2.11811e-07
-4.54249e-08
-1.72308e-07
-1.39487e-09
-1.54405e-07
-2.1712e-08
-1.46163e-07
-1.96657e-08
-1.43023e-07
-1.60044e-08
-1.51292e-07
-6.15381e-09
-1.57981e-07
-8.49271e-09
-1.66213e-07
4.31067e-10
-1.66942e-07
1.10588e-09
-1.82826e-07
1.55433e-08
-2.19439e-07
5.67697e-09
-1.71421e-07
2.40335e-08
-2.50829e-07
-2.34112e-08
-2.1575e-07
4.6558e-09
-2.28767e-07
3.54144e-09
-7.03151e-08
3.39537e-08
-1.47837e-07
-4.23331e-08
-1.35784e-07
2.92977e-08
-1.22033e-07
5.51638e-08
-1.16814e-07
1.69308e-08
-1.12235e-07
8.4863e-09
-1.24376e-07
-1.40593e-09
-1.47264e-07
-4.75611e-09
-4.85652e-08
1.85353e-08
-1.7478e-07
-4.29452e-08
-1.04549e-07
-6.0263e-09
-1.17818e-07
-7.64679e-09
-1.19992e-07
-3.51172e-09
-1.39345e-07
3.06355e-09
-1.56193e-07
1.66391e-08
-7.11964e-08
5.04183e-08
-1.7636e-07
-6.22063e-09
-1.67633e-07
1.28888e-08
-5.80479e-08
1.93028e-08
-1.44582e-07
-2.89537e-08
-1.39744e-07
-1.78966e-08
-1.3511e-07
-1.05103e-08
-1.52178e-07
1.14881e-09
-1.54536e-07
2.41332e-09
-1.59028e-07
1.86727e-08
-1.51869e-07
2.12419e-08
-1.51752e-07
-4.33918e-09
-1.95205e-07
-1.87707e-08
-1.57772e-07
-1.8189e-08
-1.79754e-07
-1.93918e-08
-9.05043e-08
-5.82978e-09
-1.79266e-07
-5.42467e-08
-1.88202e-07
2.18928e-08
-1.8242e-07
2.66031e-08
-1.71033e-07
2.35825e-08
-1.44876e-07
2.24062e-08
-1.60935e-07
5.91963e-09
-1.62685e-07
2.9121e-09
-1.69988e-07
-1.97049e-09
-1.77525e-07
-1.51916e-08
-1.84667e-07
-2.27071e-08
-1.91846e-07
-2.30689e-08
-1.98464e-07
-2.00264e-08
-2.0014e-07
-1.25696e-08
-1.94064e-07
5.67691e-10
-1.82939e-07
1.43673e-08
-1.72941e-07
2.30776e-08
-1.64255e-07
2.30773e-08
-1.59665e-07
1.52929e-08
-1.58133e-07
8.51619e-09
-1.56546e-07
5.53015e-09
-1.5474e-07
3.92098e-09
-1.53537e-07
2.46723e-09
-1.52527e-07
1.52271e-09
-1.5204e-07
-1.19876e-09
-1.51545e-07
-4.47862e-10
-2.3234e-10
-1.90387e-07
-2.41891e-08
-1.7103e-07
-2.17587e-08
-1.31292e-07
-2.44201e-08
-1.59042e-07
-1.76754e-08
-1.56516e-07
-3.92049e-09
-1.54914e-07
-2.35356e-08
-1.32382e-07
-4.26322e-08
-1.54046e-07
5.65942e-09
-1.59622e-07
-5.77874e-10
-1.62248e-07
-4.25435e-09
-1.60375e-07
-3.06637e-09
-1.70215e-07
7.53869e-09
-1.68629e-07
1.57124e-08
-1.78635e-07
1.73454e-08
-1.64913e-07
1.02071e-08
-1.91147e-07
2.82272e-09
-1.82307e-07
-4.18418e-09
-1.81714e-07
2.94858e-09
-1.61269e-07
1.19857e-08
-8.83779e-08
3.05918e-08
-1.59034e-07
-4.3473e-08
-1.43133e-07
-7.38586e-09
-1.16961e-07
3.79985e-08
-1.13047e-07
3.37919e-09
-1.21417e-07
8.20308e-09
-1.35131e-07
8.95726e-09
-1.01278e-07
-1.65274e-08
-1.274e-07
-1.68237e-08
-1.19495e-07
-1.39311e-08
-1.23688e-07
-3.45306e-09
-1.3458e-07
7.38018e-09
-1.29027e-07
-3.84482e-09
-1.61178e-07
4.87893e-08
-1.3731e-07
2.62796e-08
-1.51329e-07
7.79903e-09
-1.36955e-07
5.84283e-11
-1.18649e-07
2.20747e-09
-1.28118e-07
-1.9777e-08
-1.29118e-07
-1.82039e-08
-1.34458e-07
-5.17017e-09
-1.57717e-07
2.44074e-08
-1.35743e-07
-1.95606e-08
-1.28065e-07
1.09951e-08
-1.51261e-07
4.44377e-08
-1.42799e-07
-1.42577e-08
-1.96651e-07
-1.3331e-08
-1.74073e-07
7.65146e-09
-1.73749e-07
-1.9716e-08