/*--------------------------------*- C++ -*----------------------------------*\
  =========                 |
  \\      /  F ield         | OpenFOAM: The Open Source CFD Toolbox
   \\    /   O peration     | Website:  https://openfoam.org
    \\  /    A nd           | Version:  12
     \\/     M anipulation  |
\*---------------------------------------------------------------------------*/
FoamFile
{
    format      ascii;
    class       volVectorField;
    location    "0.4";
    object      U.water;
}
// * * * * * * * * * * * * * * * * * * * * * * * * * * * * * * * * * * * * * //

dimensions      [0 1 -1 0 0 0 0];

internalField   nonuniform List<vector> 
3750
(
(0.000720285 0.0083518 0)
(0.000175445 0.0063972 0)
(0.0022105 0.0110476 0)
(-0.00226849 0.00983259 0)
(-0.000287365 0.00482442 0)
(0.000673209 0.0104813 0)
(-0.00101365 0.0114819 0)
(-0.00113054 0.00827996 0)
(0.00111895 0.00900849 0)
(0.000820159 0.00876492 0)
(0.000544529 0.00857372 0)
(0.000832624 0.00887564 0)
(0.000145732 0.00874578 0)
(0.000957927 0.0083752 0)
(0.000322708 0.00859101 0)
(0.000563909 0.00884873 0)
(0.000360565 0.00938303 0)
(-2.63637e-05 0.00780514 0)
(0.000127541 0.00638011 0)
(-0.000327063 0.00400144 0)
(-0.000786737 0.00246232 0)
(0.00057022 0.00745694 0)
(-0.00191474 0.00836738 0)
(-0.00048731 0.00543629 0)
(0.00224089 0.0093085 0)
(0.000693086 0.0123099 0)
(-0.000871212 0.00685278 0)
(0.000862437 8.14284e-05 0)
(0.00141941 0.000525285 0)
(0.000186958 0.0018822 0)
(-0.000371249 0.00200294 0)
(-0.000996576 0.00316263 0)
(-0.00154294 0.00413558 0)
(-0.00226135 0.00555444 0)
(-0.00024347 0.00718081 0)
(0.000198091 0.00545802 0)
(0.00365769 0.00721239 0)
(0.00174624 0.0114261 0)
(0.000457408 0.00942595 0)
(-0.00313287 0.00366949 0)
(-0.00151774 -0.000984111 0)
(-0.00172168 0.000389656 0)
(2.16409e-06 0.00106354 0)
(-0.000926574 0.00390383 0)
(-0.0006581 0.00696454 0)
(0.000368498 0.00698321 0)
(0.000941616 0.00510166 0)
(0.000639289 0.00601429 0)
(-0.000214145 0.00555727 0)
(0.000574826 0.00412432 0)
(-0.000210689 0.00519795 0)
(0.00170731 0.00395415 0)
(0.00034956 0.00238459 0)
(-0.000714535 0.00262824 0)
(-0.000582587 0.00236213 0)
(-0.000158168 0.00633074 0)
(-0.00190307 0.00611621 0)
(-0.000359033 0.000891402 0)
(0.00132947 -7.90139e-05 0)
(0.00194488 -0.00139697 0)
(0.00142344 -0.00293366 0)
(0.000772499 -0.00349855 0)
(0.000130504 -0.00263772 0)
(-0.000154691 -0.00165004 0)
(-0.000268664 -0.000171535 0)
(-0.000227148 0.00024185 0)
(-0.000390961 0.000894859 0)
(-0.000713172 0.00230938 0)
(-0.000749114 0.00372965 0)
(-0.000256057 0.00450922 0)
(0.000623598 0.00367389 0)
(0.00115316 0.000622079 0)
(0.00215306 -0.00333128 0)
(0.00221814 -0.0103924 0)
(0.00102618 -0.0108659 0)
(0.00139558 -0.00189484 0)
(0.00163681 -0.00199686 0)
(0.00221958 -0.0016039 0)
(-0.000753775 -0.00469493 0)
(0.000947442 -0.00465116 0)
(0.00199515 -0.00382378 0)
(-0.00181378 -0.00348736 0)
(-0.0023443 -0.00288688 0)
(0.00119954 -0.00185906 0)
(-0.000923812 -0.00288998 0)
(-0.00119854 -0.000804701 0)
(-0.000152493 -0.00127614 0)
(1.20805e-06 -2.75727e-05 0)
(-0.00126776 0.000606791 0)
(-0.000643374 0.000682249 0)
(-0.00145225 0.0022003 0)
(0.00118004 0.00270205 0)
(0.000311782 0.00211829 0)
(0.00188398 0.000532334 0)
(0.00198567 -0.00195731 0)
(0.00256994 -0.00443605 0)
(0.0032414 -0.00548752 0)
(-0.00114512 -0.00548501 0)
(-0.00118762 -0.00438873 0)
(0.00424214 -0.00424208 0)
(0.00163946 -0.00355829 0)
(-0.00261372 -0.0034495 0)
(-0.00113918 -0.00520728 0)
(-0.000521231 -0.00508619 0)
(-6.79254e-05 -0.00371549 0)
(8.05726e-05 -0.00410409 0)
(-0.000899354 -0.00422244 0)
(-0.000327674 -0.00448623 0)
(-0.00129557 -0.00256887 0)
(0.000289095 -0.002419 0)
(0.00173876 -0.00551671 0)
(0.00478621 -0.00488297 0)
(0.00232926 -0.00305758 0)
(0.000454177 -0.00316578 0)
(-0.002747 -0.00554424 0)
(-0.000653875 -0.00758058 0)
(-0.00166478 -0.0089674 0)
(-0.000723985 -0.0104281 0)
(-0.000963534 -0.0113339 0)
(-0.00122202 -0.00623309 0)
(-0.00188051 -0.00476632 0)
(-0.00114572 -0.00762302 0)
(0.00115823 -0.00585186 0)
(0.000894829 -0.00498569 0)
(0.00140196 -0.00533483 0)
(0.00112171 -0.000799156 0)
(0.000803422 -0.00235694 0)
(0.000777299 -0.00778687 0)
(0.000495483 -0.00680441 0)
(0.00159706 -0.0079409 0)
(0.00239524 -0.00841863 0)
(0.000400936 -0.0114746 0)
(0.000636954 -0.0147001 0)
(0.00050987 -0.0146967 0)
(-0.0004969 -0.0139272 0)
(-0.000888922 -0.0132445 0)
(-0.000971023 -0.0127196 0)
(-0.000784944 -0.0117487 0)
(-0.000310344 -0.0108699 0)
(-0.000406058 -0.0102735 0)
(-0.000860457 -0.0096976 0)
(-0.00179179 -0.00887479 0)
(-0.0022434 -0.00793541 0)
(-0.00176417 -0.00693115 0)
(0.000200252 -0.00664383 0)
(0.00325326 -0.00716018 0)
(0.00569332 -0.00853627 0)
(0.00673905 -0.0118655 0)
(0.00519061 -0.0145665 0)
(0.000479481 -0.0123161 0)
(0.000681427 -0.0105694 0)
(0.00252869 -0.0109758 0)
(0.00283578 -0.00854615 0)
(0.00219179 -0.00977623 0)
(0.000952374 -0.0128245 0)
(0.000312492 -0.0126768 0)
(-0.00194556 -0.0141073 0)
(-0.00187308 -0.0111763 0)
(-0.00175846 -0.01157 0)
(-0.000999348 -0.0151127 0)
(-0.000711835 -0.0141033 0)
(-0.000442758 -0.0133639 0)
(-0.000750254 -0.0131553 0)
(-0.00114835 -0.0113427 0)
(-0.000978804 -0.0122721 0)
(-0.000210827 -0.0113032 0)
(-0.000238541 -0.010026 0)
(0.000741037 -0.0124943 0)
(0.0039605 -0.0109032 0)
(0.00268917 -0.0103918 0)
(0.00395223 -0.0105263 0)
(0.00249389 -0.0107053 0)
(0.0015798 -0.0108449 0)
(-0.000198289 -0.0058808 0)
(0.00150236 -0.0059077 0)
(-0.000137591 -0.010054 0)
(-0.00221401 -0.00990913 0)
(-0.000559999 -0.010716 0)
(0.000422245 -0.0102756 0)
(-0.00104528 -0.0086519 0)
(0.000765727 -0.0105425 0)
(-0.00041695 -0.0107531 0)
(0.000133479 -0.012417 0)
(0.00186992 -0.0134386 0)
(0.000266387 -0.0104287 0)
(-0.000216688 -0.0129682 0)
(0.000704476 -0.0143353 0)
(0.000635028 -0.0120659 0)
(0.00069788 -0.0120203 0)
(-0.00040568 -0.0114417 0)
(0.0004571 -0.0111889 0)
(0.000238434 -0.0114892 0)
(-0.000534028 -0.012224 0)
(-0.000767385 -0.0134966 0)
(-9.6843e-05 -0.013092 0)
(-0.00319653 -0.0140596 0)
(-0.00459491 -0.014665 0)
(-0.00103736 -0.0128519 0)
(0.00012109 -0.0133102 0)
(0.00144395 -0.0137215 0)
(0.0038816 -0.0136135 0)
(0.000468055 -0.0152142 0)
(0.000893924 -0.0167995 0)
(0.000619676 -0.0150675 0)
(0.00249074 -0.0155641 0)
(0.00327823 -0.0151387 0)
(0.0024508 -0.0145081 0)
(0.00115747 -0.0160951 0)
(8.54985e-05 -0.0174125 0)
(-0.000453263 -0.0187077 0)
(-0.000997233 -0.0192952 0)
(-0.00119007 -0.0191376 0)
(-0.00109622 -0.0188341 0)
(-0.000976901 -0.0183598 0)
(-0.0011466 -0.0177928 0)
(-0.00200441 -0.017201 0)
(-0.00264871 -0.016941 0)
(-0.00278067 -0.0167115 0)
(-0.00216912 -0.0166813 0)
(0.00051166 -0.0171133 0)
(0.00464785 -0.0166824 0)
(0.00620506 -0.0157992 0)
(0.00629408 -0.0150618 0)
(0.00418334 -0.0163253 0)
(0.000233153 -0.0129218 0)
(0.000779662 -0.0162773 0)
(-0.00010717 -0.0144833 0)
(0.0023353 -0.0134634 0)
(0.00108998 -0.0144073 0)
(0.00196478 -0.0148116 0)
(0.00105065 -0.0159859 0)
(0.00217907 -0.0168939 0)
(0.00259397 -0.017522 0)
(-0.00116174 -0.0187072 0)
(-0.000535153 -0.0188344 0)
(-0.000580529 -0.0171191 0)
(-0.0021562 -0.0165049 0)
(-0.00321 -0.0162361 0)
(-0.000733116 -0.0164238 0)
(-0.00135322 -0.0163267 0)
(0.00236615 -0.0160968 0)
(-0.000598585 -0.0160224 0)
(6.5841e-05 -0.0119301 0)
(0.00151676 -0.0118182 0)
(0.000707272 -0.0149564 0)
(0.00116193 -0.0136451 0)
(0.00129617 -0.012451 0)
(0.00247945 -0.0116714 0)
(0.00252545 -0.00722302 0)
(-0.000867054 -0.00884776 0)
(-0.000636215 -0.0137913 0)
(-0.000621868 -0.0120591 0)
(0.000412504 -0.0123661 0)
(0.00103537 -0.013899 0)
(-0.000178137 -0.0103841 0)
(0.00038682 -0.0106592 0)
(0.00119677 -0.0150685 0)
(-6.49951e-05 -0.0144171 0)
(0.00435973 -0.0132264 0)
(0.00219205 -0.0123209 0)
(-0.000861409 -0.0128844 0)
(-0.000795846 -0.0144994 0)
(-0.000859023 -0.0146329 0)
(0.000996853 -0.0154899 0)
(-9.12714e-05 -0.0144809 0)
(-0.000975074 -0.0130165 0)
(-0.00113471 -0.0137309 0)
(-0.000365578 -0.0139382 0)
(0.000564937 -0.0138759 0)
(0.000496879 -0.0142617 0)
(0.00144396 -0.0168728 0)
(0.000348371 -0.0154036 0)
(0.000622196 -0.0119861 0)
(0.00151141 -0.0123126 0)
(0.00242342 -0.0115928 0)
(0.000692429 -0.0122846 0)
(0.000300067 -0.0155245 0)
(6.08585e-05 -0.0181603 0)
(-0.000586075 -0.0169943 0)
(-0.000107516 -0.0152269 0)
(0.00265299 -0.0143487 0)
(0.00265813 -0.0135936 0)
(0.00259531 -0.0140572 0)
(0.00261436 -0.0153818 0)
(0.00145252 -0.0166251 0)
(-0.000471843 -0.0179639 0)
(-0.00124232 -0.0185043 0)
(-0.0012816 -0.0187074 0)
(-0.00103139 -0.0190875 0)
(-0.000944773 -0.0193746 0)
(-0.00159199 -0.0196122 0)
(-0.00232753 -0.019315 0)
(-0.00244627 -0.019117 0)
(-0.001798 -0.0193094 0)
(0.000387711 -0.0198747 0)
(0.00319689 -0.0188797 0)
(0.00429675 -0.0168793 0)
(0.00426088 -0.0157056 0)
(0.00272807 -0.0165664 0)
(-0.000285898 -0.0134747 0)
(0.00260867 -0.0189363 0)
(0.00224607 -0.0178745 0)
(0.00150025 -0.0171424 0)
(-0.000562318 -0.0194039 0)
(0.0028546 -0.0198096 0)
(0.000518487 -0.0190689 0)
(0.00304639 -0.0175998 0)
(0.000636886 -0.0180466 0)
(-0.00111937 -0.0191479 0)
(-0.0012966 -0.0173648 0)
(-0.00282681 -0.0168334 0)
(-0.00382431 -0.018004 0)
(-0.00256903 -0.016506 0)
(-0.000813497 -0.0177983 0)
(-0.000231069 -0.0192963 0)
(0.000410772 -0.0182351 0)
(0.000945001 -0.0174917 0)
(0.00159487 -0.0140238 0)
(-0.0013563 -0.0129115 0)
(-6.82499e-06 -0.014336 0)
(0.00102166 -0.013328 0)
(0.00108136 -0.0127085 0)
(0.00267119 -0.01167 0)
(0.00191563 -0.0106848 0)
(-0.00118006 -0.0102249 0)
(6.64702e-05 -0.0123965 0)
(-0.00019026 -0.0126623 0)
(-9.23997e-05 -0.0127628 0)
(0.000975954 -0.0144491 0)
(0.00269983 -0.0137604 0)
(8.21764e-05 -0.0128022 0)
(0.000419978 -0.0151442 0)
(0.000839562 -0.0116596 0)
(0.00110117 -0.010365 0)
(0.00124842 -0.0140395 0)
(-0.00106932 -0.0120824 0)
(-0.00171488 -0.0106296 0)
(0.000406905 -0.00998845 0)
(0.00248484 -0.0124481 0)
(0.00127438 -0.0168575 0)
(-0.00180758 -0.0150888 0)
(-0.000196017 -0.0119865 0)
(-0.000345562 -0.0115946 0)
(0.000316735 -0.0134023 0)
(0.00164698 -0.012509 0)
(0.000134666 -0.0147961 0)
(0.00101818 -0.0158247 0)
(-0.000289771 -0.0113223 0)
(-0.00155762 -0.0089592 0)
(0.00124929 -0.00884493 0)
(-0.000383496 -0.00666615 0)
(-0.000332878 -0.00809864 0)
(-0.00021598 -0.0128283 0)
(-0.000155056 -0.0138057 0)
(0.00039643 -0.013851 0)
(0.00186048 -0.0131539 0)
(0.00308737 -0.0136195 0)
(0.00322807 -0.0139265 0)
(0.00307561 -0.0146235 0)
(0.00254634 -0.0154626 0)
(0.0011694 -0.0166758 0)
(-0.000192939 -0.0182644 0)
(-0.00059439 -0.0195823 0)
(-0.000441813 -0.0207104 0)
(-0.000635824 -0.0208766 0)
(-0.00205221 -0.0203391 0)
(-0.00313953 -0.0194801 0)
(-0.00313291 -0.0190216 0)
(-0.00201469 -0.0187377 0)
(0.000294243 -0.0189065 0)
(0.00225715 -0.0181515 0)
(0.00265377 -0.016239 0)
(0.00261672 -0.0154061 0)
(0.00192265 -0.0164296 0)
(-0.000299852 -0.0139571 0)
(0.00213247 -0.0190166 0)
(0.00303693 -0.0206194 0)
(8.52003e-05 -0.0208444 0)
(7.21941e-05 -0.0182286 0)
(0.000451285 -0.0190917 0)
(0.000823607 -0.0181555 0)
(0.000793998 -0.0163401 0)
(-0.000131288 -0.0180124 0)
(-0.00107052 -0.0160174 0)
(-0.000848599 -0.0155196 0)
(-0.00133343 -0.016318 0)
(-0.00150024 -0.0160637 0)
(-0.00164423 -0.0139295 0)
(-0.00194982 -0.0144035 0)
(-2.40383e-05 -0.0162174 0)
(-0.000459201 -0.0152942 0)
(0.000337215 -0.0149398 0)
(-0.000657435 -0.013174 0)
(-0.00188735 -0.0120413 0)
(-0.00094532 -0.0120542 0)
(-0.000910673 -0.0118586 0)
(-8.61603e-05 -0.0106186 0)
(0.000167059 -0.0103073 0)
(-0.000584392 -0.0110885 0)
(0.000573227 -0.0109197 0)
(0.00222612 -0.0137378 0)
(0.00128114 -0.0150163 0)
(0.000679593 -0.0140918 0)
(0.00149273 -0.0142394 0)
(0.0018694 -0.013711 0)
(-6.24802e-05 -0.0140922 0)
(0.000315413 -0.0140852 0)
(0.00242889 -0.012993 0)
(-0.000496536 -0.0130258 0)
(0.000236118 -0.0144468 0)
(0.000897287 -0.014746 0)
(0.000585207 -0.0113726 0)
(0.00176769 -0.00932104 0)
(-5.21991e-05 -0.0139999 0)
(-0.000217765 -0.0186193 0)
(-7.10725e-05 -0.0141631 0)
(8.14976e-05 -0.0106521 0)
(-0.000222681 -0.0119752 0)
(0.000119975 -0.0112202 0)
(0.00135063 -0.0131772 0)
(-0.00103769 -0.017295 0)
(-8.98829e-05 -0.0169348 0)
(-0.00187087 -0.0149207 0)
(-0.000144314 -0.0101717 0)
(0.000631001 -0.0106625 0)
(0.00281208 -0.0136614 0)
(-0.000815555 -0.0132139 0)
(-0.000665917 -0.0143979 0)
(-0.000946037 -0.012731 0)
(-4.21547e-05 -0.0115525 0)
(0.00213396 -0.0121024 0)
(0.003776 -0.0128619 0)
(0.00390334 -0.0135846 0)
(0.00367709 -0.0139167 0)
(0.00314569 -0.0141563 0)
(0.00223832 -0.0147909 0)
(0.00147173 -0.0159419 0)
(0.000989372 -0.0172706 0)
(0.000283638 -0.0187431 0)
(-0.00123903 -0.0190149 0)
(-0.00327866 -0.0179026 0)
(-0.00380918 -0.0174192 0)
(-0.00356106 -0.0172298 0)
(-0.00208545 -0.0174968 0)
(0.000163536 -0.0177154 0)
(0.00142083 -0.0167658 0)
(0.00164587 -0.0155249 0)
(0.00174579 -0.0150676 0)
(0.00129725 -0.016621 0)
(-0.00020586 -0.0142354 0)
(-0.000291111 -0.0154222 0)
(0.000768128 -0.0160677 0)
(0.000990324 -0.0161728 0)
(0.00274084 -0.0156667 0)
(-0.000253851 -0.0161039 0)
(0.00073464 -0.0154763 0)
(-0.00263499 -0.014288 0)
(-0.00282464 -0.0147126 0)
(-0.00462176 -0.0134022 0)
(-0.00158878 -0.0120718 0)
(-0.0010027 -0.0124758 0)
(-0.00271837 -0.0137305 0)
(-0.00259303 -0.0130487 0)
(-0.0033227 -0.0126255 0)
(-0.000135002 -0.0131796 0)
(-0.00141686 -0.0131152 0)
(0.000243919 -0.0137716 0)
(-0.000391441 -0.0134259 0)
(-0.0013546 -0.0126989 0)
(-0.0010492 -0.013545 0)
(0.000390079 -0.0140188 0)
(0.00189424 -0.0141599 0)
(0.00132499 -0.016355 0)
(0.00165409 -0.0143841 0)
(0.000895335 -0.0106766 0)
(0.000537497 -0.0160955 0)
(0.000660279 -0.0184711 0)
(0.00017534 -0.0171791 0)
(0.00159876 -0.0159452 0)
(0.00081855 -0.015419 0)
(8.24141e-05 -0.0148897 0)
(0.000725548 -0.0132207 0)
(0.00323404 -0.0150349 0)
(0.00107393 -0.0162748 0)
(0.00011491 -0.0163896 0)
(0.000611438 -0.01476 0)
(0.00215951 -0.0126757 0)
(0.00122612 -0.012749 0)
(-0.000399849 -0.0157539 0)
(0.000685476 -0.0179838 0)
(0.00339058 -0.0159287 0)
(0.000850086 -0.013996 0)
(-0.000231204 -0.0134142 0)
(-0.00121397 -0.0127306 0)
(-0.00168963 -0.0152487 0)
(-0.00110328 -0.0175091 0)
(-0.000131467 -0.0187773 0)
(0.000952575 -0.0151257 0)
(0.00270146 -0.011295 0)
(-2.43625e-05 -0.0119572 0)
(-0.000142255 -0.0157788 0)
(-0.00281748 -0.0193312 0)
(-0.00370872 -0.0174103 0)
(-0.00355102 -0.0148509 0)
(4.30071e-05 -0.0132102 0)
(0.00321306 -0.0136974 0)
(0.00382174 -0.01484 0)
(0.00410667 -0.0144477 0)
(0.00390918 -0.0141449 0)
(0.00359264 -0.0140422 0)
(0.00313541 -0.0140893 0)
(0.00269244 -0.014464 0)
(0.00213892 -0.0150356 0)
(0.0011757 -0.0153401 0)
(-0.00128458 -0.0149693 0)
(-0.00321464 -0.0146793 0)
(-0.0035549 -0.0148416 0)
(-0.00317152 -0.0154618 0)
(-0.00165828 -0.0164698 0)
(-0.000195072 -0.0168235 0)
(0.000709639 -0.0159852 0)
(0.000947439 -0.0152165 0)
(0.00113813 -0.0150148 0)
(0.000882467 -0.0169043 0)
(-0.000104337 -0.0144241 0)
(0.001272 -0.0150351 0)
(0.000933626 -0.015438 0)
(0.00042281 -0.0148203 0)
(0.00101692 -0.0147499 0)
(0.000924308 -0.0147772 0)
(0.000908703 -0.0146148 0)
(-0.00179357 -0.0149057 0)
(-0.00183813 -0.0161814 0)
(-0.00116083 -0.0128605 0)
(-0.000923632 -0.00940801 0)
(-0.00218629 -0.0143788 0)
(-0.0024809 -0.0173535 0)
(-0.00288324 -0.0162058 0)
(-0.00332369 -0.0153213 0)
(-7.08543e-05 -0.0169216 0)
(0.00141027 -0.0152475 0)
(0.00158969 -0.0151646 0)
(0.000333634 -0.017267 0)
(-0.00325666 -0.0168794 0)
(-0.00102673 -0.0177809 0)
(-0.00120003 -0.0182402 0)
(0.00243411 -0.0191755 0)
(0.00126809 -0.0189844 0)
(0.00241843 -0.0180538 0)
(0.00323863 -0.0165295 0)
(-0.000916347 -0.0184263 0)
(-0.00123869 -0.0205806 0)
(-0.0020455 -0.0193784 0)
(0.00278007 -0.0183094 0)
(0.00200812 -0.0191901 0)
(0.00273752 -0.0188788 0)
(0.000704634 -0.0148906 0)
(0.000221356 -0.0157494 0)
(-0.000300064 -0.018807 0)
(0.000498927 -0.0170986 0)
(-0.000514821 -0.0147842 0)
(0.00206449 -0.0135998 0)
(0.00400634 -0.0141536 0)
(0.00074592 -0.016519 0)
(0.000200892 -0.0168964 0)
(0.00142734 -0.0152056 0)
(0.000282261 -0.0153298 0)
(-0.000863384 -0.0153049 0)
(-0.00114898 -0.0148847 0)
(-0.000351322 -0.0155955 0)
(0.00045003 -0.016783 0)
(0.00159322 -0.0161551 0)
(0.00206245 -0.0146938 0)
(0.00123352 -0.0141231 0)
(-6.75901e-05 -0.0145206 0)
(-0.00242359 -0.0156728 0)
(-0.000584963 -0.0178952 0)
(-0.000933939 -0.0202645 0)
(-0.00336434 -0.0167982 0)
(-5.82746e-05 -0.0130018 0)
(0.00140318 -0.0172097 0)
(0.00152743 -0.0197914 0)
(0.00264066 -0.018491 0)
(0.00299491 -0.016356 0)
(0.00297585 -0.0152668 0)
(0.00273606 -0.0145455 0)
(0.00233276 -0.0142663 0)
(0.0015471 -0.0141227 0)
(0.000307771 -0.0137753 0)
(-0.00186251 -0.0134936 0)
(-0.00294935 -0.0137465 0)
(-0.00305152 -0.0143002 0)
(-0.00218222 -0.015088 0)
(-0.000806847 -0.0159592 0)
(-4.78934e-05 -0.0160605 0)
(0.000491749 -0.0154604 0)
(0.000615464 -0.0149733 0)
(0.000938632 -0.0149592 0)
(0.000658647 -0.0170745 0)
(-7.3211e-05 -0.0145677 0)
(-0.000490409 -0.0140517 0)
(-0.000649144 -0.0145061 0)
(-0.00119054 -0.0146203 0)
(0.00211915 -0.0132256 0)
(0.000808272 -0.0143251 0)
(-0.000675051 -0.0160437 0)
(-0.000997129 -0.0161003 0)
(-7.93654e-05 -0.0150494 0)
(0.000523591 -0.0142007 0)
(-0.00216573 -0.0134422 0)
(-0.00393078 -0.0157549 0)
(-0.00163156 -0.0193467 0)
(-0.00162786 -0.0217661 0)
(-0.00158037 -0.0184598 0)
(-0.0018425 -0.0175064 0)
(0.00154663 -0.0204339 0)
(-0.00052915 -0.0211499 0)
(2.01497e-05 -0.0223789 0)
(-0.00063466 -0.0177716 0)
(-0.000915872 -0.0170866 0)
(0.00166977 -0.0181523 0)
(0.000938285 -0.0207875 0)
(0.00207035 -0.0239071 0)
(0.00300136 -0.0177986 0)
(0.00216284 -0.0164301 0)
(0.000383125 -0.0217351 0)
(-7.15289e-06 -0.0224068 0)
(-3.5744e-05 -0.0182344 0)
(0.000649754 -0.019195 0)
(0.00109658 -0.0235127 0)
(0.00205872 -0.0219282 0)
(0.00136764 -0.0198247 0)
(-0.0014215 -0.0198357 0)
(-0.0022816 -0.019936 0)
(0.00149717 -0.0189488 0)
(0.00212478 -0.0166542 0)
(0.000663415 -0.0120445 0)
(0.00276817 -0.0158289 0)
(0.000630251 -0.0204572 0)
(-0.000542072 -0.0178503 0)
(0.00182582 -0.0177734 0)
(0.000359002 -0.0194709 0)
(-0.000208166 -0.0191934 0)
(-0.00146433 -0.0171903 0)
(-0.000814234 -0.0161847 0)
(0.00166002 -0.0178977 0)
(0.00107646 -0.0170458 0)
(-8.0159e-05 -0.014546 0)
(0.00278469 -0.0138119 0)
(0.000590361 -0.0142141 0)
(-0.00136949 -0.0134859 0)
(0.00044292 -0.0136317 0)
(0.000707551 -0.0165707 0)
(0.00228346 -0.0124743 0)
(-0.000386654 -0.00880666 0)
(-0.00255569 -0.0146999 0)
(-0.000479048 -0.0185449 0)
(0.00125621 -0.0172663 0)
(0.00151063 -0.0159093 0)
(0.00176918 -0.0148792 0)
(0.00211499 -0.0138297 0)
(0.00201167 -0.0133941 0)
(0.00163924 -0.0132735 0)
(0.000557625 -0.0134791 0)
(-0.00143079 -0.0142525 0)
(-0.00236701 -0.014521 0)
(-0.00242164 -0.0148208 0)
(-0.00175433 -0.0152215 0)
(-0.000769095 -0.0157933 0)
(-0.000277451 -0.0158803 0)
(0.000174327 -0.0153905 0)
(0.000283253 -0.0149985 0)
(0.000622844 -0.0150917 0)
(0.000441918 -0.0172352 0)
(-3.43622e-05 -0.0146725 0)
(0.00153721 -0.0154458 0)
(0.0010316 -0.0151718 0)
(0.00156541 -0.0106631 0)
(0.00198923 -0.010694 0)
(0.000865971 -0.014448 0)
(-0.000291811 -0.0156893 0)
(-0.000506113 -0.0161038 0)
(-0.00104012 -0.0151778 0)
(-0.0014264 -0.0153592 0)
(-8.47293e-05 -0.0156601 0)
(-0.000885686 -0.0169808 0)
(-0.000833436 -0.018985 0)
(0.000210402 -0.0226339 0)
(0.00101133 -0.0214316 0)
(-0.0034692 -0.0196553 0)
(0.000650783 -0.0213089 0)
(-0.000969952 -0.0234084 0)
(-0.000159445 -0.0236512 0)
(0.0012411 -0.0230865 0)
(0.000396855 -0.0187249 0)
(0.00218411 -0.0191527 0)
(-0.00221671 -0.0224474 0)
(-0.000255716 -0.0218492 0)
(0.00332569 -0.0204341 0)
(0.000550956 -0.0205868 0)
(0.000727496 -0.0215264 0)
(0.00140635 -0.0210323 0)
(0.00178833 -0.0194727 0)
(-0.000505876 -0.0196447 0)
(0.000603151 -0.0198651 0)
(0.000852135 -0.0200335 0)
(0.000420866 -0.0194334 0)
(-0.000815841 -0.0194113 0)
(-0.00039235 -0.0165 0)
(0.000970459 -0.0147521 0)
(0.00529183 -0.0176601 0)
(0.00125927 -0.0153461 0)
(-0.00153386 -0.0165548 0)
(-0.000245643 -0.0211473 0)
(0.000119711 -0.0160633 0)
(0.000298751 -0.0157284 0)
(0.00070384 -0.0202739 0)
(0.00114815 -0.0186726 0)
(0.000118512 -0.0149515 0)
(-0.00106375 -0.0126373 0)
(-0.00135691 -0.0163593 0)
(-0.00188702 -0.0175202 0)
(-0.0018774 -0.00994224 0)
(0.00152756 -0.0098213 0)
(0.000313629 -0.0146293 0)
(0.000167825 -0.0120078 0)
(-0.000812782 -0.0127603 0)
(0.000818171 -0.0145845 0)
(0.00335706 -0.0116815 0)
(0.000255508 -0.0119001 0)
(-0.00391508 -0.0127246 0)
(-0.00120346 -0.0127842 0)
(0.0016873 -0.0137718 0)
(0.00046783 -0.0139776 0)
(0.000617921 -0.0133019 0)
(0.00122436 -0.011821 0)
(0.00164484 -0.0107689 0)
(0.00179928 -0.010476 0)
(0.00105427 -0.0104021 0)
(-0.000786854 -0.0113097 0)
(-0.00227418 -0.0122594 0)
(-0.00240561 -0.0130136 0)
(-0.00147104 -0.0138844 0)
(-0.000311588 -0.0146778 0)
(-4.31221e-05 -0.0151074 0)
(0.000188874 -0.015089 0)
(0.000326381 -0.0147248 0)
(0.000459225 -0.0150808 0)
(0.00032217 -0.0172717 0)
(-3.96187e-05 -0.0147524 0)
(0.00024903 -0.0135673 0)
(0.0015427 -0.0142488 0)
(0.001782 -0.0127386 0)
(-0.000939942 -0.0113737 0)
(0.00057727 -0.0131315 0)
(0.000336099 -0.013733 0)
(-0.000221601 -0.013422 0)
(-0.000452046 -0.015019 0)
(-0.0009244 -0.0126691 0)
(-0.000129302 -0.0125253 0)
(0.00029578 -0.0153816 0)
(-2.12004e-05 -0.0173134 0)
(1.16606e-05 -0.0192515 0)
(0.000796057 -0.021666 0)
(-0.000784565 -0.0171907 0)
(-0.000611342 -0.0174209 0)
(0.000417247 -0.0231986 0)
(0.000138369 -0.0240061 0)
(-0.000312402 -0.0230946 0)
(0.00456825 -0.0208928 0)
(0.00122884 -0.0223128 0)
(0.00172841 -0.020196 0)
(0.00176259 -0.0167777 0)
(-9.84165e-05 -0.0193816 0)
(0.00131275 -0.0213895 0)
(-9.8269e-05 -0.021594 0)
(-0.00036924 -0.0199192 0)
(-0.000615202 -0.0173975 0)
(-5.46674e-05 -0.0170479 0)
(0.000363497 -0.017236 0)
(0.000268799 -0.0171301 0)
(-0.000788386 -0.0172012 0)
(-0.000649339 -0.0163795 0)
(0.0013066 -0.0150155 0)
(0.000658562 -0.0107337 0)
(0.0033387 -0.012979 0)
(0.00348968 -0.0169506 0)
(-9.89669e-05 -0.0165599 0)
(-0.000303114 -0.0181538 0)
(0.00152034 -0.0173391 0)
(-0.000874774 -0.0164791 0)
(-1.64096e-05 -0.0159515 0)
(0.000837178 -0.0154802 0)
(0.00158737 -0.0140944 0)
(-0.000746035 -0.012602 0)
(-0.00335176 -0.0144567 0)
(-0.0027445 -0.0153926 0)
(0.000257865 -0.00926497 0)
(-0.000172427 -0.00905232 0)
(-0.000796568 -0.0133484 0)
(8.19252e-07 -0.0125244 0)
(-0.00155936 -0.0121541 0)
(0.00161428 -0.0114092 0)
(0.00160737 -0.0103189 0)
(0.000562884 -0.0108919 0)
(-0.000164173 -0.0100084 0)
(-0.0010207 -0.00776924 0)
(-0.000346878 -0.0122047 0)
(-0.00115293 -0.0150693 0)
(-0.0010864 -0.0135596 0)
(-0.000402828 -0.0119421 0)
(0.000655605 -0.0107595 0)
(0.00142173 -0.00902 0)
(0.00147722 -0.00851133 0)
(0.000807284 -0.00869713 0)
(-0.000215799 -0.0100574 0)
(-0.000829529 -0.0122409 0)
(-0.000269844 -0.0141913 0)
(0.000433468 -0.014908 0)
(0.000379702 -0.0153281 0)
(0.000301899 -0.0153347 0)
(0.000274845 -0.0149285 0)
(0.000283326 -0.0151437 0)
(0.000223897 -0.0173714 0)
(-2.32033e-05 -0.0148108 0)
(0.000830111 -0.0168287 0)
(0.00167753 -0.0169336 0)
(0.00211063 -0.017601 0)
(0.000949825 -0.017026 0)
(0.000118592 -0.0167042 0)
(-0.000893683 -0.0166079 0)
(-0.00101586 -0.015111 0)
(-0.000186728 -0.0148399 0)
(0.000462112 -0.0140919 0)
(0.000536951 -0.0127831 0)
(0.00191541 -0.0132043 0)
(0.00236307 -0.0133531 0)
(0.00199104 -0.0139232 0)
(0.00249857 -0.0145813 0)
(0.00240714 -0.0147057 0)
(-0.00173406 -0.0139825 0)
(-0.000719451 -0.0168578 0)
(0.0015801 -0.0205119 0)
(0.000716844 -0.0174394 0)
(0.0010677 -0.0169938 0)
(0.00116799 -0.0207263 0)
(0.00319388 -0.0179287 0)
(0.00151453 -0.01646 0)
(-0.00121214 -0.0136163 0)
(-0.00128802 -0.0131136 0)
(-0.000685406 -0.0160896 0)
(-0.00106589 -0.0149664 0)
(-0.00161196 -0.0137984 0)
(0.000309915 -0.0144142 0)
(0.00117708 -0.0152171 0)
(0.000927 -0.0157648 0)
(-0.000178573 -0.0163754 0)
(-0.00108545 -0.0154822 0)
(-0.000500643 -0.0152641 0)
(0.00109511 -0.0125305 0)
(0.000116715 -0.0124091 0)
(0.00164861 -0.0152178 0)
(0.0017734 -0.0155362 0)
(0.00037167 -0.0149431 0)
(0.000462404 -0.0136793 0)
(-0.000767948 -0.0145642 0)
(-0.000695746 -0.0152043 0)
(-0.000769561 -0.0150565 0)
(0.000414112 -0.0149702 0)
(-0.000384128 -0.0153004 0)
(-0.000951306 -0.0159543 0)
(0.000623521 -0.0125163 0)
(0.000412272 -0.00809445 0)
(-0.00426901 -0.0115518 0)
(-0.00371431 -0.015494 0)
(-0.00229876 -0.0146318 0)
(-0.00061437 -0.0146558 0)
(0.000504126 -0.014062 0)
(0.0021311 -0.0145075 0)
(0.00280094 -0.015107 0)
(0.00344633 -0.0140425 0)
(0.00107218 -0.0113482 0)
(-0.00204983 -0.0115549 0)
(-0.00174093 -0.0129443 0)
(-0.00180977 -0.0121756 0)
(-0.00166351 -0.0112735 0)
(-0.00106374 -0.010444 0)
(-0.000247768 -0.00989243 0)
(0.00052448 -0.00972401 0)
(0.000985738 -0.0103648 0)
(0.00132416 -0.0116174 0)
(0.00128174 -0.0137483 0)
(0.00106599 -0.0146805 0)
(0.000961682 -0.0150496 0)
(0.000678336 -0.0152105 0)
(0.000345278 -0.0150878 0)
(0.000283978 -0.0147412 0)
(0.000107322 -0.0151261 0)
(0.000150622 -0.017366 0)
(-2.75205e-05 -0.0148461 0)
(0.00121099 -0.016893 0)
(0.000896789 -0.0160585 0)
(0.00148338 -0.0152618 0)
(0.00191589 -0.0143223 0)
(-0.000840326 -0.0157601 0)
(-0.00136115 -0.0149444 0)
(-0.00109099 -0.0140852 0)
(-0.00201325 -0.0162267 0)
(-0.00202605 -0.0154112 0)
(-0.00127796 -0.0130456 0)
(0.000628273 -0.0119443 0)
(0.0011654 -0.0103347 0)
(0.00153163 -0.00870551 0)
(0.00151943 -0.00705336 0)
(0.000164111 -0.00447047 0)
(0.00123015 -0.00317952 0)
(0.00226297 -0.00326137 0)
(0.00340103 -0.00443339 0)
(0.00467338 -0.00635632 0)
(0.00241471 -0.00710652 0)
(0.00223705 -0.0110058 0)
(0.00162332 -0.0139037 0)
(0.000955364 -0.0137171 0)
(-0.000631979 -0.0121524 0)
(-0.00340986 -0.0106818 0)
(-0.00192085 -0.0136547 0)
(-0.00277597 -0.0154369 0)
(-0.0003092 -0.0137925 0)
(-0.00227346 -0.0130217 0)
(0.00159105 -0.0142941 0)
(0.000545688 -0.0153064 0)
(0.000173486 -0.0154014 0)
(-0.00122793 -0.0149956 0)
(-0.000310043 -0.0143266 0)
(0.00296081 -0.0144073 0)
(0.00131435 -0.0161873 0)
(0.000402976 -0.0156873 0)
(0.00171581 -0.0141055 0)
(0.000994617 -0.014288 0)
(-0.000373297 -0.0140474 0)
(-3.1707e-05 -0.013707 0)
(0.000980571 -0.0139577 0)
(0.00064471 -0.015223 0)
(-0.00022921 -0.0150266 0)
(0.00101752 -0.0149324 0)
(0.00142622 -0.0133356 0)
(0.000999533 -0.010323 0)
(-0.00255036 -0.0089778 0)
(-0.00421591 -0.0100898 0)
(-0.00207974 -0.0130958 0)
(-0.00133755 -0.014874 0)
(0.000412403 -0.0167576 0)
(0.000369779 -0.0177557 0)
(-0.000754569 -0.0162899 0)
(0.00301144 -0.0169165 0)
(0.0018447 -0.0170603 0)
(-0.000295231 -0.0149169 0)
(-0.00346809 -0.0136739 0)
(-0.0034519 -0.0127453 0)
(-0.00318785 -0.0124076 0)
(-0.00212085 -0.0114715 0)
(-0.000675551 -0.0111752 0)
(0.000747703 -0.0113937 0)
(0.00189488 -0.0122399 0)
(0.00289025 -0.0135345 0)
(0.00294428 -0.014538 0)
(0.00184251 -0.015456 0)
(0.00109834 -0.015658 0)
(0.000775976 -0.0155742 0)
(0.000585709 -0.0154614 0)
(0.000364262 -0.0151677 0)
(0.000269688 -0.0148388 0)
(2.21756e-05 -0.0151852 0)
(7.5648e-05 -0.0174526 0)
(-2.03207e-05 -0.0148744 0)
(0.000900301 -0.019464 0)
(-0.000419755 -0.0193578 0)
(-0.000983617 -0.0177162 0)
(0.00167371 -0.0176331 0)
(-0.000481145 -0.0186912 0)
(0.00120159 -0.0176392 0)
(-0.00125656 -0.0172378 0)
(-0.00227627 -0.0180914 0)
(-0.00202294 -0.0177807 0)
(-0.00149475 -0.017451 0)
(-0.00137502 -0.0185914 0)
(-0.000787521 -0.0186983 0)
(-0.000888639 -0.0180825 0)
(-0.000817799 -0.0178407 0)
(9.33718e-05 -0.014416 0)
(0.00252657 -0.0112318 0)
(0.00377898 -0.0125895 0)
(0.00293482 -0.0132845 0)
(0.00286621 -0.0109732 0)
(0.00621789 -0.0101591 0)
(0.0046712 -0.0118788 0)
(0.00326221 -0.0106426 0)
(0.00300159 -0.0103681 0)
(0.00192633 -0.0117152 0)
(-0.00138754 -0.0110848 0)
(-0.00238413 -0.0136473 0)
(-0.00267546 -0.0136964 0)
(0.00121553 -0.0131836 0)
(-0.000166609 -0.0119346 0)
(0.000146773 -0.0105006 0)
(9.00401e-05 -0.013325 0)
(-0.000111151 -0.0128311 0)
(-0.0010976 -0.0147081 0)
(-0.000886683 -0.0136575 0)
(0.00217401 -0.0151733 0)
(0.00199953 -0.0164891 0)
(0.000722896 -0.014938 0)
(0.00101572 -0.0129166 0)
(-0.000212626 -0.0138445 0)
(-0.000427299 -0.0140765 0)
(5.2859e-06 -0.0145531 0)
(9.05426e-05 -0.0152517 0)
(0.000675283 -0.0159011 0)
(0.000689638 -0.0154958 0)
(0.000582613 -0.0150411 0)
(-0.000602745 -0.0147391 0)
(-0.00177733 -0.0132868 0)
(-0.00286892 -0.00912629 0)
(-0.0041086 -0.00697992 0)
(0.000235747 -0.00882882 0)
(0.00161805 -0.0100812 0)
(0.00258043 -0.0108117 0)
(0.00229716 -0.012914 0)
(0.00203212 -0.0101024 0)
(0.00129148 -0.00991007 0)
(0.000141488 -0.0143715 0)
(-0.0018074 -0.0142397 0)
(-0.00297663 -0.0148646 0)
(-0.0034312 -0.015543 0)
(-0.00325947 -0.0160016 0)
(-0.00276166 -0.0160467 0)
(-0.00143207 -0.0156812 0)
(0.000693943 -0.0150548 0)
(0.0027931 -0.015219 0)
(0.00341649 -0.0153792 0)
(0.00334445 -0.0154421 0)
(0.00220261 -0.0154932 0)
(0.00111842 -0.0154229 0)
(0.000802622 -0.0153867 0)
(0.000640407 -0.015369 0)
(0.00040395 -0.0150443 0)
(0.000280409 -0.0147169 0)
(-6.14873e-05 -0.0151048 0)
(2.10002e-05 -0.0174063 0)
(-3.11777e-05 -0.0148772 0)
(2.92655e-05 -0.021254 0)
(2.09018e-05 -0.0202162 0)
(-0.000380533 -0.0157439 0)
(-0.000294285 -0.0152217 0)
(-0.000926299 -0.0171728 0)
(-0.00133621 -0.0153495 0)
(-0.00102304 -0.0152839 0)
(-0.00096301 -0.01432 0)
(-0.0010695 -0.0140806 0)
(-0.00129162 -0.0145811 0)
(-6.87807e-05 -0.0160575 0)
(-0.000116608 -0.0163187 0)
(0.000901797 -0.0170646 0)
(0.00131948 -0.0185619 0)
(0.0025731 -0.0194698 0)
(0.000927285 -0.0212096 0)
(0.00123637 -0.0221688 0)
(0.00161513 -0.0203954 0)
(0.000962873 -0.0137087 0)
(0.000332583 -0.0109985 0)
(0.00246682 -0.013836 0)
(0.00258733 -0.0117108 0)
(0.00230025 -0.00986152 0)
(0.00106544 -0.0115316 0)
(-0.000223232 -0.0109232 0)
(-0.000831072 -0.0108296 0)
(-0.000497378 -0.00896205 0)
(-0.000785454 -0.00840063 0)
(0.00111569 -0.0106242 0)
(-0.00118813 -0.0098197 0)
(-0.000228822 -0.0106724 0)
(-0.000390508 -0.012393 0)
(0.00128057 -0.0148851 0)
(0.00195256 -0.0117813 0)
(0.000822615 -0.0112866 0)
(0.00125815 -0.0152455 0)
(-0.00022928 -0.0107799 0)
(0.0003711 -0.0099512 0)
(-0.000471321 -0.0138663 0)
(-0.000256795 -0.0132237 0)
(0.000536635 -0.0140047 0)
(-2.95491e-06 -0.0152692 0)
(0.00164409 -0.0156854 0)
(0.00224801 -0.0151442 0)