/*--------------------------------*- C++ -*----------------------------------*\
  =========                 |
  \\      /  F ield         | OpenFOAM: The Open Source CFD Toolbox
   \\    /   O peration     | Website:  https://openfoam.org
    \\  /    A nd           | Version:  12
     \\/     M anipulation  |
\*---------------------------------------------------------------------------*/
FoamFile
{
    format      ascii;
    class       volVectorField;
    location    "0.4";
    object      U.water_0;
}
// * * * * * * * * * * * * * * * * * * * * * * * * * * * * * * * * * * * * * //

dimensions      [0 1 -1 0 0 0 0];

internalField   nonuniform List<vector> 
3750
(
(0.00102856 0.00772461 0)
(0.000550477 0.013557 0)
(-0.000539845 0.0131719 0)
(-0.00217425 0.00769443 0)
(-0.000827381 0.0105454 0)
(-0.000640521 0.0109725 0)
(0.00131539 0.00937246 0)
(-0.000656116 0.00860173 0)
(0.000849067 0.0084453 0)
(0.000630002 0.0086156 0)
(0.000490118 0.00887728 0)
(0.00041363 0.00904712 0)
(-0.000379102 0.0083188 0)
(0.00107951 0.00819355 0)
(0.000520821 0.0088349 0)
(0.000849829 0.00900042 0)
(0.000401522 0.0081044 0)
(0.000978648 0.00558555 0)
(0.00103541 0.00496552 0)
(0.00137462 0.00914385 0)
(-0.00240378 0.0147368 0)
(-0.00386963 0.00984835 0)
(-0.00111373 0.0043592 0)
(0.000248651 0.00561876 0)
(0.000943526 0.00554508 0)
(0.00157527 0.00462149 0)
(0.00311366 0.00899735 0)
(0.000489259 0.00651635 0)
(0.000899528 0.00111644 0)
(0.000122912 0.00159787 0)
(-0.000625205 0.00236907 0)
(-0.00135425 0.00404514 0)
(-0.00173553 0.00533896 0)
(-0.000303729 0.00538052 0)
(-0.000940158 0.00656906 0)
(-0.00102023 0.007041 0)
(0.00114615 0.00520295 0)
(0.00119002 0.00548085 0)
(0.000780469 0.0037094 0)
(-0.00135197 0.00204503 0)
(7.86096e-05 0.00142001 0)
(-0.00162738 0.00199277 0)
(-0.000359887 0.00245608 0)
(-9.88958e-05 0.00503449 0)
(0.0009641 0.00652185 0)
(-0.000631262 0.00573048 0)
(0.00120834 0.00414538 0)
(0.00107062 0.00467111 0)
(-7.78939e-05 0.00389745 0)
(0.000614176 0.00212854 0)
(0.000547594 0.00248074 0)
(-0.000282209 0.00219749 0)
(0.000583642 0.00192792 0)
(-0.000669932 0.00243082 0)
(-0.0010847 0.00337324 0)
(-0.00254039 0.00358384 0)
(0.000634549 0.00320516 0)
(0.000362812 0.00142428 0)
(0.00188837 -0.0015446 0)
(0.0033228 -0.00291484 0)
(0.0033794 0.0007463 0)
(0.000791733 0.00445196 0)
(-0.00189698 0.000412987 0)
(-0.00125054 -0.00347128 0)
(-0.000695535 -0.00167119 0)
(-0.000420287 -0.000587388 0)
(-0.000491766 0.000363662 0)
(-0.000776673 0.00194794 0)
(-0.000799651 0.00347825 0)
(-0.000312243 0.00434357 0)
(0.000588153 0.00358584 0)
(0.00113678 0.000581942 0)
(0.00216206 -0.00338494 0)
(0.00223642 -0.0105109 0)
(0.0010333 -0.0109733 0)
(0.0028448 -0.00260084 0)
(0.00333666 0.00180645 0)
(-0.00200175 0.000584025 0)
(-0.000346755 -0.00435894 0)
(0.000223139 -0.000402285 0)
(-0.00069146 -0.000400234 0)
(-0.00075263 -0.00372887 0)
(-0.000840749 -0.00527381 0)
(-0.000529766 -0.00330426 0)
(-0.0015331 -0.00291507 0)
(-0.00144375 -0.000810132 0)
(-0.00092855 -0.00170051 0)
(-0.000511868 0.000105784 0)
(-0.00122373 0.00113445 0)
(-0.000322535 0.000911693 0)
(-0.000191904 0.00187057 0)
(0.00116288 0.00190629 0)
(0.00205651 0.000795313 0)
(0.00322951 -0.000355082 0)
(0.00394189 0.000116244 0)
(-0.000893136 0.00183763 0)
(-0.00385317 0.000133586 0)
(-0.00124785 -0.00389359 0)
(0.0018378 -0.006356 0)
(0.00125377 -0.00775697 0)
(0.00297137 -0.00630848 0)
(0.00271898 -0.00301423 0)
(-0.00125815 -0.00313846 0)
(-0.00113005 -0.00433653 0)
(1.88789e-05 -0.00373621 0)
(-0.000838531 -0.00403193 0)
(-0.00204721 -0.00335715 0)
(-0.00157738 -0.00102643 0)
(0.000469007 -0.00317623 0)
(0.002343 -0.00621366 0)
(-0.000797466 -0.00568785 0)
(0.00128713 -0.00643945 0)
(0.00142269 -0.00638146 0)
(0.000942407 -0.0065253 0)
(-0.000594394 -0.00577344 0)
(0.00243105 -0.00676406 0)
(-0.00102013 -0.00924265 0)
(-0.001663 -0.00840718 0)
(0.000106884 -0.00839545 0)
(-0.00153798 -0.0087344 0)
(-0.00110277 -0.00753619 0)
(0.001087 -0.00732077 0)
(0.00265937 -0.00750739 0)
(0.00130757 -0.00719647 0)
(0.000930111 -0.00694085 0)
(-0.000243178 -0.00566811 0)
(-0.00185723 -0.00476707 0)
(0.00127043 -0.0062358 0)
(0.00117123 -0.00771968 0)
(0.00132112 -0.00940716 0)
(0.000902632 -0.00811665 0)
(0.002296 -0.0112343 0)
(0.00158362 -0.0163908 0)
(0.00150245 -0.0158646 0)
(0.00165586 -0.0143902 0)
(0.00202314 -0.0114332 0)
(-0.000848954 -0.00913319 0)
(-0.00384066 -0.00978169 0)
(-0.0022036 -0.0110005 0)
(-0.00128046 -0.0108619 0)
(-0.00131176 -0.0102293 0)
(-0.00204068 -0.00929341 0)
(-0.00240155 -0.00826735 0)
(-0.0018868 -0.00720191 0)
(8.80925e-05 -0.00685763 0)
(0.00317564 -0.00731608 0)
(0.0056756 -0.00864389 0)
(0.0067624 -0.0119771 0)
(0.00523196 -0.0147013 0)
(0.00048079 -0.0124256 0)
(0.00238397 -0.0107274 0)
(0.00446663 -0.0100404 0)
(0.000754092 -0.00740736 0)
(0.00219782 -0.00839117 0)
(0.00013812 -0.0102415 0)
(-0.00202624 -0.0103168 0)
(-0.00531107 -0.0119477 0)
(-0.00260229 -0.0136505 0)
(-0.00219011 -0.0142884 0)
(-0.00116303 -0.0137224 0)
(-0.000665718 -0.0140148 0)
(-0.00123605 -0.0137076 0)
(-0.00114962 -0.0130569 0)
(-0.00168043 -0.0107698 0)
(-2.35949e-05 -0.0108176 0)
(0.000945275 -0.0113466 0)
(0.000900711 -0.0109457 0)
(0.00357807 -0.0134128 0)
(0.00382667 -0.0123608 0)
(0.00338849 -0.0106029 0)
(0.00309956 -0.00716134 0)
(-0.000878433 -0.00443338 0)
(-0.00113563 -0.00491656 0)
(-0.000264965 -0.00852885 0)
(-0.000624387 -0.0114061 0)
(0.0008041 -0.00941212 0)
(0.00073939 -0.00942099 0)
(0.000218947 -0.0101282 0)
(0.000733738 -0.00949621 0)
(-0.00019973 -0.009214 0)
(-0.00089687 -0.011461 0)
(-0.00228786 -0.0102861 0)
(0.00102882 -0.00783722 0)
(-0.000265592 -0.0103105 0)
(0.00111757 -0.015183 0)
(-0.000464684 -0.0168475 0)
(-0.000213485 -0.0148115 0)
(0.000223512 -0.0140543 0)
(0.000857387 -0.0147507 0)
(0.0017378 -0.0106105 0)
(0.00174281 -0.0102984 0)
(0.00166 -0.0139742 0)
(-3.4303e-06 -0.0104433 0)
(-0.00175693 -0.0119122 0)
(-0.0036763 -0.0140328 0)
(-0.000812109 -0.0126906 0)
(0.00119901 -0.014897 0)
(0.00125034 -0.0161993 0)
(0.00061713 -0.0170568 0)
(0.000620225 -0.0174847 0)
(0.000359598 -0.0185899 0)
(-0.000310891 -0.0151109 0)
(-0.00158096 -0.0139021 0)
(0.0019451 -0.0161483 0)
(0.00286652 -0.0167735 0)
(0.0045046 -0.0156662 0)
(0.00185183 -0.0150927 0)
(0.00143386 -0.0166951 0)
(0.000786111 -0.0178085 0)
(0.000755111 -0.0185178 0)
(0.00040063 -0.0182157 0)
(-0.00115197 -0.0175805 0)
(-0.00242547 -0.0177232 0)
(-0.0021736 -0.0180434 0)
(-0.00193694 -0.017903 0)
(-0.00250324 -0.0174392 0)
(-0.0029652 -0.0171983 0)
(-0.00299068 -0.0169517 0)
(-0.0023456 -0.0168937 0)
(0.000332939 -0.017305 0)
(0.00454386 -0.0168566 0)
(0.00616798 -0.015943 0)
(0.00629682 -0.0152055 0)
(0.00422934 -0.0164774 0)
(0.000231916 -0.0130241 0)
(0.00155287 -0.0165458 0)
(0.00193305 -0.0148026 0)
(0.000455162 -0.0133422 0)
(0.000497134 -0.013135 0)
(7.31859e-06 -0.0130332 0)
(-5.88129e-05 -0.0149359 0)
(-0.00222892 -0.015191 0)
(0.000503368 -0.0167829 0)
(-0.000575324 -0.0195906 0)
(0.000223198 -0.0184819 0)
(-0.000360995 -0.0179224 0)
(-0.00236237 -0.0176203 0)
(-0.00408764 -0.0160117 0)
(-0.00257327 -0.0145479 0)
(0.000208905 -0.0141902 0)
(0.00262163 -0.0160338 0)
(0.00114088 -0.0150965 0)
(0.00192 -0.0146535 0)
(0.0025437 -0.0149105 0)
(0.00208285 -0.0137019 0)
(0.00261734 -0.0119489 0)
(-0.000451869 -0.00905455 0)
(-0.00258892 -0.00711571 0)
(-0.00226315 -0.00862853 0)
(3.5412e-05 -0.0114531 0)
(0.000417701 -0.0113649 0)
(0.00204134 -0.0114041 0)
(0.000596789 -0.0127087 0)
(0.00172796 -0.0130871 0)
(-0.00134264 -0.0122923 0)
(0.00227243 -0.0131671 0)
(0.0018285 -0.0114047 0)
(0.00251325 -0.0112558 0)
(-3.76876e-05 -0.0139157 0)
(-0.000819865 -0.0141792 0)
(0.000194049 -0.0148097 0)
(-0.00036036 -0.0159772 0)
(-0.00115865 -0.0167368 0)
(-0.000464858 -0.0163556 0)
(0.00201214 -0.0137752 0)
(0.000203648 -0.0131531 0)
(0.000493229 -0.0150188 0)
(0.00144658 -0.0143471 0)
(-0.00106524 -0.0148824 0)
(-0.000504794 -0.0131592 0)
(0.000109147 -0.010143 0)
(0.00161828 -0.01496 0)
(0.00187794 -0.0188048 0)
(0.00231163 -0.0175767 0)
(0.00265043 -0.0170158 0)
(0.0024214 -0.0171125 0)
(0.000255397 -0.0170632 0)
(-0.00284352 -0.0141946 0)
(-0.000844334 -0.0148768 0)
(-0.000190297 -0.0170988 0)
(0.00251267 -0.0153734 0)
(0.00262015 -0.014318 0)
(0.00266799 -0.0143391 0)
(0.00298616 -0.0154283 0)
(0.00204484 -0.0162758 0)
(1.988e-06 -0.0172392 0)
(-0.00129175 -0.0176053 0)
(-0.00189311 -0.0179368 0)
(-0.0017697 -0.0186584 0)
(-0.00154125 -0.0192394 0)
(-0.00200251 -0.0196509 0)
(-0.00261845 -0.0194431 0)
(-0.00265661 -0.0192614 0)
(-0.00197873 -0.019447 0)
(0.000225406 -0.020012 0)
(0.00308508 -0.0190284 0)
(0.00423873 -0.0170165 0)
(0.00423675 -0.0158469 0)
(0.00274752 -0.0167137 0)
(-0.000286012 -0.0135678 0)
(0.000783574 -0.0181631 0)
(0.00199106 -0.0194251 0)
(0.00175468 -0.0185571 0)
(0.000681584 -0.0180488 0)
(-0.000327727 -0.0179125 0)
(0.00228547 -0.0193332 0)
(7.78242e-05 -0.0164766 0)
(-0.00167732 -0.0156921 0)
(-0.00334306 -0.0192079 0)
(-0.000592756 -0.01659 0)
(-0.00253868 -0.0178395 0)
(-0.00345204 -0.0193964 0)
(-0.0028428 -0.0179118 0)
(-0.00152523 -0.0146155 0)
(-0.00154407 -0.0158544 0)
(-0.000105442 -0.0185577 0)
(0.00187674 -0.016891 0)
(0.0026682 -0.0155901 0)
(0.00222305 -0.0149878 0)
(0.00212108 -0.0142031 0)
(0.00221627 -0.0131897 0)
(0.000496223 -0.0131212 0)
(-0.000499899 -0.00871349 0)
(0.000197729 -0.00745196 0)
(0.000248797 -0.00973449 0)
(-0.000196947 -0.00992524 0)
(-0.000574666 -0.0127905 0)
(-0.00153242 -0.0141604 0)
(0.00200909 -0.0149297 0)
(0.00141853 -0.013146 0)
(0.00249211 -0.0117979 0)
(0.00205808 -0.0140279 0)
(-0.000830351 -0.0127549 0)
(-0.000926609 -0.0130416 0)
(0.000236017 -0.0134747 0)
(-0.000607509 -0.0124807 0)
(0.00017331 -0.0122546 0)
(-0.000156547 -0.0137194 0)
(-0.00153908 -0.0126899 0)
(0.00141899 -0.0132718 0)
(0.00291707 -0.0146802 0)
(0.00180779 -0.0139027 0)
(0.000742319 -0.0131324 0)
(-0.000283673 -0.0144476 0)
(-0.000998187 -0.0130112 0)
(-0.00160963 -0.0110295 0)
(-0.00145927 -0.0133134 0)
(9.14617e-06 -0.0151853 0)
(0.000101834 -0.0139171 0)
(8.34994e-05 -0.0120007 0)
(0.00110174 -0.0119706 0)
(0.00147888 -0.0123578 0)
(0.00138609 -0.00982003 0)
(-0.00138649 -0.0118945 0)
(0.000155975 -0.0148941 0)
(0.00133964 -0.0139548 0)
(0.00284923 -0.0141886 0)
(0.00310419 -0.0141238 0)
(0.00313537 -0.0145559 0)
(0.00273248 -0.0151335 0)
(0.00129806 -0.0161229 0)
(-0.000273308 -0.0176187 0)
(-0.000935053 -0.019001 0)
(-0.000881476 -0.0203516 0)
(-0.00102519 -0.0207041 0)
(-0.00233452 -0.0203285 0)
(-0.00339265 -0.0195236 0)
(-0.00334494 -0.0191065 0)
(-0.0022103 -0.0188236 0)
(0.000133642 -0.0189944 0)
(0.00215554 -0.0182574 0)
(0.00259585 -0.0163479 0)
(0.00258415 -0.0155244 0)
(0.00191778 -0.016569 0)
(-0.000301618 -0.0140408 0)
(0.00148276 -0.0198588 0)
(0.00124508 -0.018866 0)
(0.00118351 -0.0191442 0)
(0.000951718 -0.0203483 0)
(0.000648132 -0.0167451 0)
(0.000398362 -0.0170355 0)
(0.00207686 -0.0190793 0)
(-0.00163684 -0.0167498 0)
(-0.00172468 -0.0136855 0)
(-0.00279102 -0.0127967 0)
(-0.00116869 -0.0173378 0)
(-0.00132365 -0.0174878 0)
(-0.000978334 -0.0149272 0)
(-0.000949052 -0.0137925 0)
(-0.00401858 -0.014055 0)
(-0.00147272 -0.0128535 0)
(0.000458253 -0.0123025 0)
(0.00278141 -0.0132463 0)
(0.00113275 -0.0139999 0)
(0.00125888 -0.013032 0)
(0.000155858 -0.0128496 0)
(0.000977593 -0.0116144 0)
(0.00195372 -0.00669776 0)
(0.00131955 -0.00786925 0)
(0.000211639 -0.0118686 0)
(-0.00120188 -0.0130007 0)
(-0.00119565 -0.0154795 0)
(0.000464928 -0.0129008 0)
(0.00130343 -0.0132261 0)
(0.00270559 -0.0142804 0)
(-0.00114741 -0.0137649 0)
(-0.000399314 -0.0149412 0)
(-0.00189118 -0.013475 0)
(-0.000510038 -0.0130529 0)
(0.00113726 -0.0138042 0)
(0.0015234 -0.013799 0)
(0.000572727 -0.0139336 0)
(0.00124242 -0.0172909 0)
(0.00034578 -0.0140054 0)
(-0.00040637 -0.00918793 0)
(0.000174858 -0.0125705 0)
(0.000549389 -0.0154973 0)
(2.20464e-05 -0.0148659 0)
(0.000330335 -0.0159388 0)
(0.000958731 -0.0132686 0)
(-0.000474059 -0.010222 0)
(-0.00134424 -0.0145055 0)
(-0.000800654 -0.0176438 0)
(-3.03177e-05 -0.0167491 0)
(-4.93975e-05 -0.0164225 0)
(-0.000174956 -0.0154465 0)
(0.00142619 -0.0147942 0)
(0.00196587 -0.0138316 0)
(-0.000190349 -0.0125655 0)
(0.000153516 -0.012626 0)
(0.00115575 -0.013023 0)
(0.00310139 -0.0132597 0)
(0.00352991 -0.0136217 0)
(0.00352226 -0.0137347 0)
(0.00311804 -0.0138113 0)
(0.00222036 -0.0143264 0)
(0.00137395 -0.0154317 0)
(0.00078741 -0.0167974 0)
(4.03858e-05 -0.0183902 0)
(-0.00144714 -0.0188427 0)
(-0.00349137 -0.0178376 0)
(-0.00401943 -0.0173959 0)
(-0.00375537 -0.0172435 0)
(-0.00227345 -0.0175242 0)
(1.87458e-05 -0.0177725 0)
(0.00133281 -0.0168439 0)
(0.00158782 -0.0156053 0)
(0.00171172 -0.0151628 0)
(0.001286 -0.0167462 0)
(-0.000208901 -0.0143101 0)
(0.000544384 -0.0160883 0)
(0.00114447 -0.0159303 0)
(0.000174713 -0.0149768 0)
(0.00332847 -0.0151679 0)
(0.00270388 -0.0154242 0)
(-0.00244393 -0.0146923 0)
(-0.000768769 -0.0143598 0)
(-0.0010093 -0.0140358 0)
(-0.000966182 -0.0137806 0)
(-0.00340661 -0.0104292 0)
(-0.00421383 -0.0112846 0)
(-0.00396506 -0.0145812 0)
(-0.00162638 -0.0133552 0)
(-0.00157323 -0.0141115 0)
(-0.000393088 -0.0116855 0)
(-0.000955676 -0.00919624 0)
(-0.00260586 -0.00865544 0)
(0.000908223 -0.0117009 0)
(0.000747506 -0.0158075 0)
(0.00125541 -0.0153476 0)
(0.00118032 -0.0149823 0)
(0.00265081 -0.0137242 0)
(0.00421814 -0.012521 0)
(0.0016007 -0.0132354 0)
(-0.000344653 -0.0155669 0)
(-0.00200705 -0.0158033 0)
(0.00120052 -0.0156426 0)
(0.0013948 -0.0162649 0)
(-0.000583369 -0.0155612 0)
(0.000521575 -0.0158243 0)
(-0.00032882 -0.0155099 0)
(0.000823746 -0.0151954 0)
(-0.00151873 -0.0152538 0)
(0.000301054 -0.0136824 0)
(0.00206847 -0.0152716 0)
(0.000984756 -0.016128 0)
(0.000114936 -0.0155687 0)
(0.000856126 -0.0161229 0)
(0.00335915 -0.0157026 0)
(0.000469521 -0.0145461 0)
(-0.00121265 -0.0148629 0)
(-0.000483652 -0.0158704 0)
(-9.4919e-05 -0.0152601 0)
(-0.000367459 -0.014445 0)
(0.0019542 -0.01544 0)
(-0.000251848 -0.0148923 0)
(-0.00304719 -0.0158766 0)
(-0.000629077 -0.0174026 0)
(0.000869327 -0.0177742 0)
(0.00144525 -0.0179905 0)
(0.000320544 -0.0181436 0)
(-0.00162489 -0.018144 0)
(-0.00055937 -0.0161208 0)
(0.000436988 -0.0154538 0)
(0.000764358 -0.0158839 0)
(0.000631549 -0.0153316 0)
(0.00258413 -0.014909 0)
(0.00353873 -0.0141812 0)
(0.00364199 -0.0137777 0)
(0.00347532 -0.0136308 0)
(0.00307024 -0.0136502 0)
(0.00261531 -0.0140296 0)
(0.00202834 -0.0146502 0)
(0.00106431 -0.0150423 0)
(-0.00137284 -0.0147707 0)
(-0.00336234 -0.0145376 0)
(-0.00371161 -0.0147497 0)
(-0.00333472 -0.015403 0)
(-0.00181361 -0.0164519 0)
(-0.000309306 -0.0168534 0)
(0.000631375 -0.0160361 0)
(0.000893539 -0.0152751 0)
(0.00110691 -0.015094 0)
(0.000866387 -0.0170182 0)
(-0.000106896 -0.0144887 0)
(0.000594088 -0.0142806 0)
(0.00392086 -0.0154053 0)
(0.00190484 -0.0129736 0)
(0.000971816 -0.0132953 0)
(0.00111884 -0.016373 0)
(-0.000758888 -0.0145223 0)
(-0.00322445 -0.0125879 0)
(0.000818432 -0.0130109 0)
(0.000654172 -0.0139817 0)
(9.56321e-05 -0.0133859 0)
(-0.00432348 -0.0148495 0)
(-0.00503757 -0.0143853 0)
(-0.00138905 -0.0137503 0)
(0.000438252 -0.0156628 0)
(0.00133151 -0.0160806 0)
(6.06168e-05 -0.015668 0)
(0.000139955 -0.0113883 0)
(-0.00141156 -0.0122251 0)
(-0.000480104 -0.0178081 0)
(0.00024929 -0.0198941 0)
(-0.00017683 -0.0205622 0)
(0.000140117 -0.0180116 0)
(0.00325504 -0.0164121 0)
(0.00257694 -0.0189545 0)
(0.00149276 -0.0200689 0)
(0.000540022 -0.0158957 0)
(-0.0004856 -0.0173667 0)
(-0.00108566 -0.0211241 0)
(-0.000623879 -0.0190318 0)
(0.000226712 -0.0179483 0)
(0.00146303 -0.0180886 0)
(0.000830719 -0.0201322 0)
(0.000389311 -0.0173637 0)
(-0.000101943 -0.0119862 0)
(0.000495152 -0.015273 0)
(0.000578471 -0.017749 0)
(0.00134303 -0.0168616 0)
(0.00201658 -0.0163117 0)
(0.00139124 -0.0164683 0)
(-0.000279637 -0.0160768 0)
(-0.00107662 -0.0147592 0)
(-0.000838831 -0.015404 0)
(-0.000806345 -0.0160172 0)
(-0.000444808 -0.0160902 0)
(-0.000472557 -0.0157748 0)
(0.00191819 -0.0163412 0)
(-8.22176e-05 -0.0158729 0)
(-0.000889001 -0.0162368 0)
(-0.000655711 -0.0178828 0)
(0.000177288 -0.0180128 0)
(0.000105166 -0.0177763 0)
(0.000163538 -0.0163494 0)
(0.00294804 -0.0163759 0)
(0.000414974 -0.0188752 0)
(0.000778513 -0.0206058 0)
(-0.000131953 -0.0200938 0)
(0.000687322 -0.0182517 0)
(0.00218128 -0.0177022 0)
(0.00274615 -0.0158116 0)
(0.00285754 -0.0147905 0)
(0.00268178 -0.0141077 0)
(0.00229388 -0.0138685 0)
(0.00150346 -0.0137833 0)
(0.000266092 -0.0135019 0)
(-0.00191292 -0.0132697 0)
(-0.00304568 -0.013572 0)
(-0.00316523 -0.0141734 0)
(-0.00231007 -0.0150076 0)
(-0.000908246 -0.0159298 0)
(-0.000125983 -0.0160701 0)
(0.000435203 -0.0154891 0)
(0.000568661 -0.0150128 0)
(0.000918234 -0.0150262 0)
(0.000645063 -0.0171777 0)
(-7.52586e-05 -0.0146222 0)
(0.000631755 -0.00958819 0)
(0.00298831 -0.012342 0)
(0.00245037 -0.0165778 0)
(-0.00123284 -0.014014 0)
(-0.000866935 -0.0152657 0)
(-0.00223054 -0.0169078 0)
(-0.00246621 -0.0114442 0)
(0.00074615 -0.0111429 0)
(0.00039556 -0.0161697 0)
(-0.00109533 -0.0156855 0)
(-0.00232862 -0.0179198 0)
(-0.00268984 -0.0162043 0)
(-0.00256978 -0.0157447 0)
(0.000680244 -0.0198602 0)
(0.000409882 -0.0212529 0)
(-0.00124715 -0.0194272 0)
(0.00100309 -0.0166716 0)
(-0.00172965 -0.016869 0)
(0.000253937 -0.0176266 0)
(0.00246673 -0.0201558 0)
(0.000294672 -0.0223484 0)
(0.00334239 -0.0194989 0)
(0.00135 -0.0181995 0)
(0.00383128 -0.0206094 0)
(0.00252104 -0.0201885 0)
(0.00218938 -0.0188891 0)
(-0.0015099 -0.0199207 0)
(-0.00161409 -0.0213648 0)
(-0.000908729 -0.021589 0)
(-0.000731097 -0.0219302 0)
(-0.00202583 -0.0208128 0)
(0.00172589 -0.0204612 0)
(0.0027953 -0.0199739 0)
(-0.000782367 -0.0174609 0)
(-0.00198906 -0.0169087 0)
(-0.000598738 -0.0186479 0)
(0.000190243 -0.0180499 0)
(0.00189037 -0.0179123 0)
(0.00124333 -0.0189814 0)
(0.000378843 -0.0176227 0)
(-0.00111784 -0.017217 0)
(-2.79027e-05 -0.0187834 0)
(1.28802e-05 -0.0192259 0)
(0.000847299 -0.0191944 0)
(-0.000367641 -0.0158173 0)
(0.000406331 -0.0168158 0)
(0.00118668 -0.0186735 0)
(0.000421816 -0.017099 0)
(-0.000239229 -0.0171994 0)
(-0.000198546 -0.015923 0)
(-0.000368963 -0.0152997 0)
(0.00122701 -0.0111836 0)
(0.00128041 -0.0123634 0)
(0.000929846 -0.015894 0)
(-0.000232953 -0.0165468 0)
(0.00110298 -0.0178812 0)
(0.000625918 -0.0175086 0)
(0.00107399 -0.0164774 0)
(0.00134232 -0.0152772 0)
(0.00170059 -0.0143378 0)
(0.00211464 -0.0133589 0)
(0.00202943 -0.0129948 0)
(0.00165947 -0.0129418 0)
(0.000581191 -0.013206 0)
(-0.00142161 -0.0140419 0)
(-0.00240841 -0.0143717 0)
(-0.00248001 -0.0147139 0)
(-0.00183261 -0.0151542 0)
(-0.000835852 -0.0157634 0)
(-0.000331585 -0.0158816 0)
(0.000132477 -0.0154112 0)
(0.000250371 -0.0150294 0)
(0.000601968 -0.0151508 0)
(0.000430929 -0.0173306 0)
(-3.51796e-05 -0.0147199 0)
(0.00369376 -0.00779276 0)
(0.000392902 -0.0123171 0)
(0.00166134 -0.0159569 0)
(0.000551136 -0.0146798 0)
(-0.000868359 -0.0141945 0)
(-0.00142507 -0.0152921 0)
(0.00177578 -0.011013 0)
(-0.00382844 -0.0107244 0)
(-0.000476621 -0.016187 0)
(0.000879209 -0.0177119 0)
(3.0459e-05 -0.0193813 0)
(-0.000658619 -0.0186086 0)
(-0.000389816 -0.0167254 0)
(-0.00126492 -0.0185458 0)
(0.00162902 -0.0237736 0)
(0.00100926 -0.0224553 0)
(-0.00079987 -0.0188316 0)
(-0.00119256 -0.0192373 0)
(-0.000304553 -0.0189877 0)
(0.00117977 -0.0232833 0)
(0.00290272 -0.0229559 0)
(0.00400931 -0.0206757 0)
(-0.000850382 -0.0207829 0)
(-2.90489e-05 -0.0205182 0)
(0.00116364 -0.0231571 0)
(0.000677429 -0.0208367 0)
(-0.000444644 -0.0211652 0)
(0.000204125 -0.0211784 0)
(-0.000124685 -0.0206681 0)
(-0.000297469 -0.0213276 0)
(-0.00256369 -0.0169746 0)
(0.000736874 -0.0164475 0)
(-0.000318776 -0.0199739 0)
(-0.00217693 -0.0175471 0)
(0.000408802 -0.0170269 0)
(-0.0018433 -0.0174736 0)
(-0.00227987 -0.0167743 0)
(0.0018537 -0.0175297 0)
(0.00199061 -0.0193459 0)
(0.000381011 -0.0189589 0)
(-0.00186376 -0.0164689 0)
(0.0015375 -0.017152 0)
(0.00109918 -0.0168291 0)
(0.000626177 -0.0161083 0)
(0.000820956 -0.0164254 0)
(-0.00204998 -0.0163042 0)
(-0.000752753 -0.0157742 0)
(-0.000755924 -0.0146338 0)
(-0.000910539 -0.0149488 0)
(-0.000391169 -0.0140682 0)
(0.00033466 -0.0126138 0)
(0.000523937 -0.0117303 0)
(-0.00113568 -0.0129544 0)
(0.000851737 -0.0142481 0)
(-0.000183525 -0.0143887 0)
(0.00278355 -0.014466 0)
(0.000954395 -0.0148632 0)
(0.000584447 -0.0141878 0)
(0.000280387 -0.0132816 0)
(0.0006789 -0.0126496 0)
(0.00132679 -0.0113285 0)
(0.00174062 -0.0103794 0)
(0.00188348 -0.0101634 0)
(0.00113361 -0.0101416 0)
(-0.000718129 -0.0110926 0)
(-0.00226507 -0.0121032 0)
(-0.00243127 -0.0128938 0)
(-0.00152607 -0.0137979 0)
(-0.000348638 -0.0146319 0)
(-6.82695e-05 -0.0150923 0)
(0.000163972 -0.0150967 0)
(0.000309053 -0.0147455 0)
(0.000449321 -0.0151316 0)
(0.000315878 -0.0173607 0)
(-4.04045e-05 -0.0147946 0)
(-0.000536566 -0.00904046 0)
(-0.00163938 -0.0141825 0)
(-0.000397759 -0.0153638 0)
(-0.000507797 -0.0140367 0)
(-0.000905287 -0.0138233 0)
(0.00251403 -0.010511 0)
(0.00205693 -0.0108611 0)
(-0.00267905 -0.0121305 0)
(-0.00200123 -0.010918 0)
(-0.000268117 -0.0147919 0)
(0.000721689 -0.0182859 0)
(0.00166293 -0.0155756 0)
(0.00125321 -0.0156502 0)
(-0.00123964 -0.0172894 0)
(-0.000344458 -0.0181 0)
(0.00201331 -0.0210521 0)
(0.000456589 -0.0196249 0)
(0.000181327 -0.0200484 0)
(-0.000390289 -0.0212245 0)
(-0.000787518 -0.0221603 0)
(0.00369179 -0.0212257 0)
(0.00189554 -0.0204231 0)
(0.00307205 -0.0205643 0)
(-0.00069195 -0.0207681 0)
(-0.000320907 -0.021667 0)
(-0.0011909 -0.0212983 0)
(-0.00282956 -0.019152 0)
(0.00082345 -0.0183337 0)
(-8.70375e-05 -0.0187973 0)
(6.99632e-05 -0.0194621 0)
(0.000118523 -0.0145327 0)
(-0.00359067 -0.0141627 0)
(-0.00229328 -0.0187488 0)
(-0.00174926 -0.0136246 0)
(-0.000148477 -0.0139697 0)
(-0.000650209 -0.0180263 0)
(0.0004635 -0.0118147 0)
(0.00163423 -0.0126824 0)
(0.00229337 -0.0196227 0)
(0.00022345 -0.0214217 0)
(-0.000576652 -0.0152648 0)
(-0.000765934 -0.0133011 0)
(0.000122967 -0.0158951 0)
(-1.89199e-05 -0.0140855 0)
(0.000201809 -0.0132324 0)
(-0.00113004 -0.0139891 0)
(3.56176e-05 -0.0151522 0)
(-0.00127303 -0.0154039 0)
(-0.000546341 -0.0143468 0)
(-0.000622551 -0.0124061 0)
(2.19031e-05 -0.012443 0)
(-0.000699337 -0.011883 0)
(0.00051041 -0.010999 0)
(0.00072226 -0.0123547 0)
(0.000907001 -0.00955224 0)
(0.001157 -0.0104629 0)
(0.00025715 -0.0142715 0)
(0.000540437 -0.0135694 0)
(-0.000557141 -0.0131946 0)
(-0.000682236 -0.0127035 0)
(-0.000130411 -0.0114534 0)
(0.000840307 -0.010443 0)
(0.00156608 -0.00876305 0)
(0.00159379 -0.00829111 0)
(0.000906774 -0.00850071 0)
(-0.000146304 -0.00988103 0)
(-0.000808798 -0.0121003 0)
(-0.000280583 -0.0141099 0)
(0.000436915 -0.0148719 0)
(0.000382793 -0.0153211 0)
(0.000299637 -0.0153481 0)
(0.000270559 -0.0149534 0)
(0.000280257 -0.0151947 0)
(0.000222042 -0.0174592 0)
(-2.29545e-05 -0.0148509 0)
(-0.00260504 -0.0140394 0)
(0.000708195 -0.0155483 0)
(0.00141614 -0.0191452 0)
(0.000924022 -0.0200101 0)
(0.000624169 -0.0148846 0)
(0.00145863 -0.0129148 0)
(-0.00116585 -0.0146664 0)
(0.000297186 -0.0138345 0)
(-0.00175005 -0.0130074 0)
(-0.000310217 -0.0134409 0)
(0.00216324 -0.0140889 0)
(0.0045901 -0.0122685 0)
(0.00151454 -0.0119043 0)
(0.00266058 -0.0124474 0)
(-0.000184541 -0.0141879 0)
(-4.33128e-05 -0.0153948 0)
(-0.000978168 -0.014782 0)
(0.00222122 -0.0161049 0)
(-0.000234192 -0.0185716 0)
(-0.0014418 -0.0191019 0)
(0.000454679 -0.018819 0)
(0.000584906 -0.0174894 0)
(0.00153482 -0.0164097 0)
(-0.000193403 -0.0166223 0)
(-0.00059058 -0.0163083 0)
(-0.00102413 -0.0161793 0)
(-0.00195429 -0.0123177 0)
(-0.0015427 -0.012832 0)
(0.000362357 -0.0170385 0)
(0.000864197 -0.0168072 0)
(0.00135396 -0.0153237 0)
(-0.00340541 -0.0148007 0)
(-0.00177819 -0.016043 0)
(-0.000888334 -0.0155909 0)
(-0.00270676 -0.015965 0)
(0.000972273 -0.0144232 0)
(0.00231559 -0.0107022 0)
(-0.00022993 -0.0110513 0)
(-0.000423222 -0.0158544 0)
(-0.000723424 -0.0186622 0)
(-0.00150625 -0.0148862 0)
(-0.00338178 -0.0130311 0)
(-0.00137564 -0.0139134 0)
(0.000700363 -0.014387 0)
(-3.10388e-05 -0.015159 0)
(-0.000612062 -0.0140284 0)
(0.000660884 -0.014356 0)
(-0.0010058 -0.0159144 0)
(-0.00164876 -0.0149854 0)
(-0.00256431 -0.0145803 0)
(-0.00193873 -0.014504 0)
(-0.000185855 -0.0146449 0)
(0.000273991 -0.0143476 0)
(0.00176842 -0.0157614 0)
(0.00330635 -0.0154373 0)
(0.000442808 -0.0148537 0)
(0.00148344 -0.0139285 0)
(0.00069685 -0.0126165 0)
(-0.000447393 -0.0127154 0)
(-0.00111237 -0.0118265 0)
(-0.00124037 -0.010974 0)
(-0.000791448 -0.0102018 0)
(-7.10239e-05 -0.00969516 0)
(0.000654997 -0.00955024 0)
(0.00108725 -0.0102114 0)
(0.00140402 -0.0114762 0)
(0.00134421 -0.0136496 0)
(0.00110898 -0.0146325 0)
(0.000995855 -0.0150275 0)
(0.000706593 -0.0152063 0)
(0.000361154 -0.0151006 0)
(0.000293374 -0.0147634 0)
(0.000110061 -0.0151768 0)
(0.000152674 -0.0174529 0)
(-2.69568e-05 -0.0148863 0)
(0.000204153 -0.0144876 0)
(0.000241293 -0.0132949 0)
(0.00133319 -0.017053 0)
(0.00181396 -0.0159929 0)
(0.00201713 -0.0141214 0)
(-0.00110274 -0.012214 0)
(-0.00115035 -0.0131486 0)
(-0.00169656 -0.0156414 0)
(-0.00282495 -0.0150937 0)
(-0.00179937 -0.0131839 0)
(0.000715011 -0.0121976 0)
(0.0017071 -0.00987943 0)
(0.000911533 -0.00743649 0)
(0.000998495 -0.00537769 0)
(0.00114691 -0.00437866 0)
(0.00107879 -0.00454231 0)
(0.00226015 -0.000573823 0)
(0.00192944 -0.0014087 0)
(0.00252368 -0.00757824 0)
(0.00170761 -0.00791778 0)
(0.0012958 -0.00981473 0)
(0.00101661 -0.0133191 0)
(0.00069866 -0.0141438 0)
(-0.00166622 -0.0130134 0)
(-0.00152029 -0.0121621 0)
(-0.000766867 -0.014851 0)
(-0.00160477 -0.0140556 0)
(-0.00235816 -0.0134346 0)
(-0.00040856 -0.0151252 0)
(-5.37587e-05 -0.0161531 0)
(-9.67767e-05 -0.0157734 0)
(-0.00188672 -0.013341 0)
(-0.000256375 -0.0142495 0)
(-0.000212171 -0.0159733 0)
(0.00146613 -0.0164919 0)
(0.00337425 -0.0167557 0)
(0.000848302 -0.0141793 0)
(-0.000980008 -0.0119993 0)
(-0.00300425 -0.0149915 0)
(-0.00257333 -0.0180071 0)
(-0.00275024 -0.0141435 0)
(-0.00085286 -0.0109371 0)
(6.38066e-05 -0.0125295 0)
(0.00089932 -0.014071 0)
(0.000581169 -0.0155326 0)
(0.000443698 -0.0133769 0)
(-0.000904747 -0.011952 0)
(-0.00178642 -0.0125937 0)
(-0.000247989 -0.0126413 0)
(-0.000636394 -0.0141654 0)
(-0.000894483 -0.015268 0)
(0.000547673 -0.016878 0)
(0.000657818 -0.0180276 0)
(0.000569169 -0.0176871 0)
(0.00161717 -0.0183584 0)
(0.00057442 -0.0177897 0)
(-4.78573e-05 -0.0159632 0)
(-0.00233045 -0.0143495 0)
(-0.00253772 -0.0129186 0)
(-0.00254815 -0.0123531 0)
(-0.00168984 -0.0113409 0)
(-0.000382955 -0.0110298 0)
(0.000957837 -0.0112512 0)
(0.00205195 -0.0121045 0)
(0.0030226 -0.0134215 0)
(0.00307127 -0.0144525 0)
(0.00195113 -0.0154048 0)
(0.00116769 -0.0156447 0)
(0.000824732 -0.0155782 0)
(0.000622154 -0.0154748 0)
(0.000391667 -0.0151899 0)
(0.000288728 -0.0148683 0)
(3.20187e-05 -0.0152403 0)
(8.12304e-05 -0.017544 0)
(-1.87876e-05 -0.0149174 0)
(0.0019709 -0.0180623 0)
(-0.00165267 -0.0171734 0)
(-0.000333318 -0.0189446 0)
(-0.00104453 -0.0178264 0)
(0.00194265 -0.0163722 0)
(0.00164254 -0.0162948 0)
(-0.00098094 -0.0165781 0)
(-0.00241851 -0.0177664 0)
(-0.00245399 -0.0175078 0)
(-0.00173998 -0.0171983 0)
(-0.00148272 -0.018446 0)
(-0.000896846 -0.0184203 0)
(-0.00170731 -0.0173312 0)
(-0.00325401 -0.0142594 0)
(6.42228e-05 -0.0137604 0)
(0.00029779 -0.0137711 0)
(0.00403443 -0.0120583 0)
(-6.65179e-05 -0.0112448 0)
(0.00393818 -0.0115352 0)
(0.00288981 -0.0110779 0)
(0.00306662 -0.00986988 0)
(0.00356228 -0.00939671 0)
(0.0032413 -0.0105195 0)
(0.00216208 -0.0122295 0)
(-0.000953391 -0.0118212 0)
(-0.000847296 -0.014504 0)
(-0.000817768 -0.0143741 0)
(-0.0023082 -0.0116807 0)
(0.00100406 -0.0142065 0)
(-6.08543e-05 -0.0145796 0)
(0.000176751 -0.0134178 0)
(-0.000262187 -0.00943594 0)
(-0.00111616 -0.0127499 0)
(1.9257e-05 -0.0163681 0)
(0.000489337 -0.0168796 0)
(0.00269173 -0.0166404 0)
(0.00237328 -0.0152925 0)
(-0.0021565 -0.012925 0)
(-0.00350362 -0.0144688 0)
(-0.00189274 -0.0177216 0)
(-0.00026324 -0.0145233 0)
(-0.000402972 -0.0109394 0)
(-0.000220416 -0.0116512 0)
(-0.000769035 -0.0146487 0)
(-0.00100129 -0.0170439 0)
(-0.00305826 -0.0143982 0)
(-0.00151868 -0.0134382 0)
(-0.000947279 -0.0110669 0)
(-0.000603904 -0.00972002 0)
(9.19609e-05 -0.0114643 0)
(0.00128211 -0.0113243 0)
(0.00191109 -0.0110406 0)
(0.00194744 -0.0118711 0)
(0.00195849 -0.0130116 0)
(0.0013974 -0.0129688 0)
(0.000213853 -0.0137104 0)
(-0.00139588 -0.0144893 0)
(-0.00231317 -0.0152196 0)
(-0.00279648 -0.0157442 0)
(-0.00273004 -0.0160697 0)
(-0.00235931 -0.0160429 0)
(-0.0011538 -0.0156504 0)
(0.000873723 -0.0150067 0)
(0.00295686 -0.0151658 0)
(0.00357353 -0.0153368 0)
(0.00348813 -0.0154084 0)
(0.00234086 -0.0154764 0)
(0.00120663 -0.0154229 0)
(0.000866803 -0.0153983 0)
(0.000689828 -0.0153908 0)
(0.000443115 -0.0150743 0)
(0.000309059 -0.0147519 0)
(-4.57586e-05 -0.0151642 0)
(2.98961e-05 -0.0175007 0)
(-2.94016e-05 -0.0149248 0)
(0.000546578 -0.0190133 0)
(-0.000539369 -0.0176132 0)
(-0.000983572 -0.0188877 0)
(-0.000344253 -0.015068 0)
(-0.000843309 -0.0124793 0)
(-0.0013466 -0.0150645 0)
(-0.000271003 -0.015034 0)
(-0.000913091 -0.0142615 0)
(-0.00155008 -0.0138267 0)
(-0.00157413 -0.0142072 0)
(-0.000215882 -0.0158761 0)
(-0.000382413 -0.016322 0)
(0.000250368 -0.0178914 0)
(-0.000108791 -0.0155021 0)
(-0.000474271 -0.0186776 0)
(-0.000524512 -0.0224812 0)
(0.00100959 -0.0207423 0)
(0.000713271 -0.0164459 0)
(0.000843877 -0.0153609 0)
(0.00122724 -0.0146983 0)
(0.000893965 -0.0091367 0)
(0.000576443 -0.00946295 0)
(0.0021455 -0.0103448 0)
(0.000617565 -0.0121381 0)
(-0.000421802 -0.0111799 0)
(-0.0015734 -0.0106215 0)
(8.43849e-05 -0.0126292 0)
(-0.00136267 -0.00874189 0)
(-3.10442e-05 -0.00927715 0)
(-1.34655e-05 -0.0127411 0)
(0.000688188 -0.0110411 0)
(0.000811508 -0.0102899 0)
(-0.00102765 -0.0129697 0)
(0.000633055 -0.0149937 0)
(0.00073425 -0.0135986 0)
(0.000698648 -0.0126794 0)
(-0.000301324 -0.0130536 0)
(-0.000861953 -0.012749 0)
(-0.00163735 -0.0130851 0)
(-0.000370916 -0.014099 0)
(0.0025704 -0.0132408 0)
(0.0011929 -0.012908 0)
(0.000497783 -0.014113 0)