/*--------------------------------*- C++ -*----------------------------------*\
  =========                 |
  \\      /  F ield         | OpenFOAM: The Open Source CFD Toolbox
   \\    /   O peration     | Website:  https://openfoam.org
    \\  /    A nd           | Version:  12
     \\/     M anipulation  |
\*---------------------------------------------------------------------------*/
FoamFile
{
    format      ascii;
    class       volVectorField::Internal;
    location    "1";
    object      cloud:UTrans;
}
// * * * * * * * * * * * * * * * * * * * * * * * * * * * * * * * * * * * * * //

dimensions      [1 1 -1 0 0 0 0];

value           nonuniform List<vector> 
3750
(
(5.43104e-07 -1.60347e-07 0)
(7.56501e-08 5.20696e-08 0)
(9.2117e-10 8.32048e-09 0)
(0 0 0)
(-3.82453e-12 -1.56377e-10 0)
(0 0 0)
(2.2756e-11 -3.32576e-10 0)
(0 0 0)
(-2.3063e-12 -1.62774e-10 0)
(4.58549e-12 -1.66095e-10 0)
(-5.55081e-12 -1.58015e-10 0)
(9.29978e-12 -5.27681e-10 0)
(-6.81087e-12 -1.265e-10 0)
(5.88739e-13 -2.97541e-10 0)
(1.55747e-12 -1.40371e-10 0)
(1.49521e-12 -1.46067e-10 0)
(0 0 0)
(0 0 0)
(1.86247e-12 -1.49542e-10 0)
(0 0 0)
(7.40983e-13 -1.49087e-10 0)
(0 0 0)
(0 0 0)
(1.92406e-12 -1.44035e-10 0)
(0 0 0)
(-8.7806e-12 -2.58563e-10 0)
(-2.74183e-12 -1.14099e-10 0)
(-4.19945e-12 -9.94321e-11 0)
(0 0 0)
(-4.29526e-11 -2.63885e-10 0)
(0 0 0)
(-5.5804e-12 -2.15055e-10 0)
(0 0 0)
(3.64084e-11 -2.06735e-10 0)
(-2.73041e-11 -2.0899e-10 0)
(-4.43977e-12 -1.42773e-10 0)
(0 0 0)
(4.8842e-12 -1.15812e-10 0)
(5.65014e-12 -1.43811e-10 0)
(2.50729e-12 -1.62385e-10 0)
(0 0 0)
(1.11427e-11 -3.19917e-10 0)
(5.46655e-12 -1.38605e-10 0)
(9.67331e-12 -3.27775e-10 0)
(1.99604e-11 -3.02566e-10 0)
(0 0 0)
(0 0 0)
(-1.43727e-11 -1.78397e-10 0)
(-1.10328e-11 -1.64915e-10 0)
(-1.88824e-11 -3.30548e-10 0)
(-9.06632e-12 -1.54426e-10 0)
(2.82378e-13 -3.04771e-10 0)
(6.07735e-12 -3.13218e-10 0)
(8.82321e-12 -1.3289e-10 0)
(-8.99822e-12 -1.39817e-10 0)
(9.04062e-12 -2.61357e-10 0)
(0 0 0)
(-4.74705e-12 -1.48796e-10 0)
(-2.06553e-12 -1.59934e-10 0)
(4.20881e-12 -1.4611e-10 0)
(2.10685e-11 -4.64188e-10 0)
(-9.23911e-12 -1.04191e-10 0)
(-1.18291e-11 -1.34459e-10 0)
(0 0 0)
(-1.0006e-12 -1.65034e-10 0)
(-1.09235e-12 -1.51944e-10 0)
(-5.2705e-13 -1.4807e-10 0)
(-3.88313e-12 -1.48491e-10 0)
(0 0 0)
(1.22547e-12 -2.78543e-10 0)
(-1.77918e-12 -1.20303e-10 0)
(8.91766e-13 -1.42939e-10 0)
(0 0 0)
(-1.12752e-12 -1.48384e-10 0)
(-2.07066e-12 -1.4634e-10 0)
(2.63899e-07 -4.09205e-09 0)
(1.62687e-08 6.51835e-09 0)
(1.43455e-09 1.6566e-09 0)
(-1.68768e-12 -7.22839e-11 0)
(0 0 0)
(5.36485e-12 -3.48502e-10 0)
(0 0 0)
(6.31205e-13 -1.63221e-10 0)
(-7.58375e-12 -1.55901e-10 0)
(-3.57369e-13 -1.5987e-10 0)
(-4.69382e-12 -1.61691e-10 0)
(-8.20426e-12 -1.40993e-10 0)
(-3.86008e-12 -4.73969e-10 0)
(0 0 0)
(3.05295e-13 -1.54048e-10 0)
(-3.09417e-12 -3.38294e-10 0)
(-7.25009e-13 -1.4798e-10 0)
(0 0 0)
(0 0 0)
(-3.02516e-12 -3.15733e-10 0)
(-3.84581e-12 -1.39016e-10 0)
(1.80611e-13 -1.48615e-10 0)
(0 0 0)
(-5.10972e-12 -1.63599e-10 0)
(-1.2365e-11 -2.83267e-10 0)
(-7.10743e-12 -1.14374e-10 0)
(-2.90724e-11 -2.21404e-10 0)
(0 0 0)
(-1.07344e-11 -3.85122e-10 0)
(0 0 0)
(0 0 0)
(0 0 0)
(-7.16913e-12 -8.24652e-11 0)
(-1.23355e-11 -1.35776e-09 0)
(-1.99679e-12 -3.1866e-10 0)
(2.08447e-11 -2.37434e-10 0)
(2.03933e-11 -2.27114e-10 0)
(0 0 0)
(8.57441e-12 -1.59681e-10 0)
(0 0 0)
(4.88195e-12 -1.43061e-10 0)
(-6.68689e-13 -1.6312e-10 0)
(-2.48856e-12 -1.33868e-10 0)
(0 0 0)
(5.60644e-11 -4.00614e-10 0)
(1.50025e-11 -2.22133e-10 0)
(0 0 0)
(-2.05943e-11 -2.0387e-10 0)
(0 0 0)
(0 0 0)
(0 0 0)
(0 0 0)
(0 0 0)
(-1.03315e-11 -3.41788e-10 0)
(-3.94751e-12 -3.46622e-10 0)
(2.17233e-12 -1.47085e-10 0)
(-2.42334e-13 -3.15231e-10 0)
(4.64146e-12 -3.1597e-10 0)
(0 0 0)
(1.23236e-11 -1.54157e-10 0)
(0 0 0)
(-3.44473e-11 -4.27769e-10 0)
(-3.31268e-11 -2.70685e-10 0)
(-1.77073e-11 -3.04664e-10 0)
(0 0 0)
(-4.49349e-13 -1.47383e-10 0)
(0 0 0)
(-1.90253e-12 -3.39461e-10 0)
(3.15486e-12 -1.24549e-10 0)
(0 0 0)
(-3.65537e-12 -1.36253e-10 0)
(1.81933e-12 -3.0746e-10 0)
(-2.62035e-12 -1.37974e-10 0)
(0 0 0)
(0 0 0)
(8.9857e-09 9.33008e-09 0)
(6.64826e-09 1.92195e-10 0)
(2.62847e-10 -7.41426e-11 0)
(4.67126e-11 -1.52926e-10 0)
(4.28811e-12 -1.44034e-10 0)
(0 0 0)
(4.47008e-12 -1.44342e-10 0)
(0 0 0)
(-1.35515e-11 -3.4328e-10 0)
(-7.71718e-13 -1.35533e-10 0)
(0 0 0)
(-2.92585e-12 -3.09612e-10 0)
(0 0 0)
(1.23232e-12 -1.55213e-10 0)
(3.27506e-12 -1.53591e-10 0)
(-3.79786e-12 -3.20797e-10 0)
(0 0 0)
(0 0 0)
(0 0 0)
(6.20674e-12 -3.29695e-10 0)
(-1.82136e-12 -1.50319e-10 0)
(0 0 0)
(-2.26708e-12 -1.50778e-10 0)
(-8.67266e-12 -1.46788e-10 0)
(0 0 0)
(-6.02645e-11 -4.4385e-10 0)
(-2.75795e-11 -1.21299e-10 0)
(-5.18508e-11 -1.85648e-10 0)
(0 0 0)
(8.78617e-11 -5.60436e-10 0)
(5.09592e-11 -2.84048e-10 0)
(0 0 0)
(-2.71592e-11 -1.27046e-10 0)
(-5.76967e-11 -3.05011e-10 0)
(1.15018e-10 -4.83211e-10 0)
(4.76067e-11 -1.33709e-10 0)
(1.92394e-12 -1.10111e-10 0)
(0 0 0)
(1.72209e-11 -1.52701e-10 0)
(3.99045e-11 -3.41534e-10 0)
(-4.83637e-12 -1.6022e-10 0)
(-3.8617e-13 -1.55332e-10 0)
(1.03811e-11 -1.24333e-10 0)
(1.60103e-11 -2.70129e-10 0)
(0 0 0)
(5.74688e-11 -6.63619e-10 0)
(0 0 0)
(-8.82343e-11 -4.36068e-10 0)
(-3.04313e-11 -3.14415e-10 0)
(-4.48198e-12 -2.6723e-10 0)
(5.87224e-12 -1.30108e-10 0)
(-7.77348e-12 -1.66111e-10 0)
(0 0 0)
(-5.99501e-12 -1.59615e-10 0)
(-8.21669e-12 -1.45004e-10 0)
(-1.1371e-11 -3.03686e-10 0)
(0 0 0)
(-3.64637e-12 -1.63675e-10 0)
(0 0 0)
(6.56596e-12 -3.03735e-10 0)
(6.45439e-12 -4.7553e-10 0)
(-1.67379e-12 -1.11938e-10 0)
(0 0 0)
(-2.96123e-12 -1.31037e-10 0)
(4.56595e-12 -1.61453e-10 0)
(0 0 0)
(0 0 0)
(0 0 0)
(-1.72044e-12 -1.38865e-10 0)
(0 0 0)
(-1.33022e-11 -3.29786e-10 0)
(-1.51285e-12 -1.25056e-10 0)
(-6.05295e-12 -1.30304e-10 0)
(1.05514e-12 -1.42714e-10 0)
(0 0 0)
(1.39413e-09 1.39175e-08 0)
(7.60182e-10 9.35012e-10 0)
(1.02348e-10 -2.48971e-10 0)
(2.53473e-11 -2.16512e-10 0)
(1.82672e-12 -1.60386e-10 0)
(6.46423e-12 -1.50423e-10 0)
(-3.10009e-12 -1.67675e-10 0)
(0 0 0)
(-6.27052e-12 -1.5224e-10 0)
(-1.0801e-11 -1.39514e-10 0)
(0 0 0)
(7.11767e-12 -1.43105e-10 0)
(4.59534e-12 -1.54601e-10 0)
(0 0 0)
(7.18185e-12 -1.53446e-10 0)
(4.06272e-12 -1.51737e-10 0)
(8.32802e-12 -1.41149e-10 0)
(0 0 0)
(0 0 0)
(-9.03042e-12 -1.28973e-10 0)
(-5.53677e-12 -1.34217e-10 0)
(0 0 0)
(-9.64806e-13 -1.34714e-10 0)
(-4.03538e-12 -3.05365e-10 0)
(-9.7691e-12 -1.13604e-10 0)
(-1.13019e-11 -1.22284e-10 0)
(-2.01258e-11 -1.38477e-10 0)
(-4.85078e-11 -1.86009e-10 0)
(-1.72853e-11 -1.6271e-10 0)
(2.90856e-12 -1.76529e-10 0)
(8.963e-12 -1.598e-10 0)
(-9.01387e-13 -3.25258e-10 0)
(-2.63907e-11 -1.51486e-10 0)
(-2.58131e-13 -4.34776e-10 0)
(1.81516e-11 -1.52612e-10 0)
(1.94393e-11 -1.54105e-10 0)
(9.75007e-11 -4.89008e-10 0)
(5.91127e-11 -2.73612e-10 0)
(0 0 0)
(5.65613e-11 -1.87961e-10 0)
(-2.42362e-11 -1.69754e-10 0)
(0 0 0)
(-6.10777e-12 -1.46322e-10 0)
(-7.81392e-12 -2.71214e-10 0)
(0 0 0)
(4.00948e-12 -3.97569e-10 0)
(0 0 0)
(1.75716e-11 -1.50705e-10 0)
(-3.94755e-12 -2.38459e-10 0)
(-5.84927e-13 -3.87766e-10 0)
(-1.75286e-11 -1.26785e-10 0)
(9.44778e-13 -1.48004e-10 0)
(-8.51628e-12 -1.38645e-10 0)
(-2.37016e-11 -3.49858e-10 0)
(-3.60508e-11 -5.22557e-10 0)
(-1.72179e-12 -1.28195e-10 0)
(-1.41072e-12 -1.43871e-10 0)
(2.26841e-13 -1.4889e-10 0)
(5.5159e-13 -1.36594e-10 0)
(2.55576e-13 -1.4072e-10 0)
(0 0 0)
(0 0 0)
(0 0 0)
(-2.52702e-12 -1.4644e-10 0)
(-2.05291e-12 -1.48294e-10 0)
(3.11745e-12 -3.3825e-10 0)
(-1.08946e-12 -1.36214e-10 0)
(0 0 0)
(-1.01111e-12 -1.48549e-10 0)
(0 0 0)
(-1.95109e-12 -1.48428e-10 0)
(1.3332e-12 -1.38381e-10 0)
(-7.77386e-12 -1.29461e-10 0)
(0 0 0)
(-2.39531e-12 -1.45481e-10 0)
(-3.90762e-09 -8.11459e-09 0)
(-2.32574e-09 -9.50846e-10 0)
(-1.78245e-10 -1.22015e-10 0)
(1.4774e-11 -1.57727e-10 0)
(-3.44229e-12 -3.75723e-10 0)
(-1.14373e-12 -1.55387e-10 0)
(-7.17402e-12 -1.64872e-10 0)
(-5.99478e-12 -1.65789e-10 0)
(-2.26318e-11 -3.23234e-10 0)
(0 0 0)
(0 0 0)
(1.32226e-11 -3.33065e-10 0)
(5.27637e-12 -1.44171e-10 0)
(6.14638e-12 -1.53792e-10 0)
(1.99882e-12 -1.49726e-10 0)
(5.20144e-13 -1.35656e-10 0)
(4.39852e-12 -1.37262e-10 0)
(5.41719e-12 -1.46777e-10 0)
(2.57331e-12 -1.44575e-10 0)
(-2.53255e-12 -1.20426e-10 0)
(-5.10786e-12 -2.94746e-10 0)
(-6.47253e-12 -1.32749e-10 0)
(-1.81133e-11 -3.51127e-10 0)
(0 0 0)
(-8.2191e-12 -3.02497e-10 0)
(-1.38503e-11 -1.48607e-10 0)
(-1.52119e-11 -1.46035e-10 0)
(-3.88029e-11 -3.44349e-10 0)
(-9.39104e-12 -1.56047e-10 0)
(6.127e-12 -1.77498e-10 0)
(3.0251e-13 -1.49162e-10 0)
(-5.58154e-13 -1.48261e-10 0)
(-1.81654e-11 -3.51926e-10 0)
(0 0 0)
(7.43098e-12 -1.55484e-10 0)
(0 0 0)
(0 0 0)
(2.56881e-11 -1.23553e-10 0)
(4.58705e-11 -1.39468e-10 0)
(1.7076e-10 -6.15082e-10 0)
(-5.31953e-11 -2.27696e-10 0)
(-8.0526e-12 -1.32449e-10 0)
(5.08145e-12 -1.18527e-10 0)
(0 0 0)
(-6.55006e-11 -3.52157e-10 0)
(0 0 0)
(1.40108e-11 -3.36467e-10 0)
(0 0 0)
(-2.91821e-12 -1.0842e-10 0)
(1.55656e-11 -2.67898e-10 0)
(2.24429e-12 -1.20555e-10 0)
(0 0 0)
(5.00943e-12 -3.42263e-10 0)
(5.16872e-12 -1.64535e-10 0)
(-4.45867e-12 -1.81872e-10 0)
(-2.05267e-11 -3.40317e-10 0)
(-8.07335e-12 -1.26787e-10 0)
(-7.52859e-12 -2.99383e-10 0)
(-5.30151e-13 -1.26133e-10 0)
(3.73545e-12 -1.31472e-10 0)
(2.50592e-12 -1.42612e-10 0)
(0 0 0)
(-2.61793e-12 -3.21248e-10 0)
(-2.29864e-12 -1.38673e-10 0)
(-2.7976e-13 -1.37939e-10 0)
(1.83309e-12 -1.41792e-10 0)
(0 0 0)
(7.15764e-12 -1.37066e-10 0)
(5.12073e-12 -1.42655e-10 0)
(-8.44048e-13 -1.46773e-10 0)
(0 0 0)
(-1.6291e-12 -1.43906e-10 0)
(-3.73472e-12 -1.54335e-10 0)
(0 0 0)
(0 0 0)
(-1.22009e-08 8.66384e-09 0)
(-2.88614e-09 -1.48672e-09 0)
(-6.27741e-11 -2.26377e-10 0)
(5.58868e-11 -1.77454e-10 0)
(-6.60102e-12 -1.80327e-10 0)
(3.60786e-12 -1.8249e-10 0)
(-9.01705e-12 -1.74457e-10 0)
(-1.91195e-11 -1.71959e-10 0)
(-1.74581e-11 -1.54316e-10 0)
(-3.17687e-12 -1.49955e-10 0)
(6.71433e-12 -1.39012e-10 0)
(9.28893e-12 -1.48439e-10 0)
(1.45325e-11 -3.5076e-10 0)
(5.30247e-12 -1.38999e-10 0)
(2.55938e-12 -1.53761e-10 0)
(1.29764e-12 -3.33495e-10 0)
(1.74311e-12 -1.37307e-10 0)
(-3.54801e-12 -1.44249e-10 0)
(3.15785e-12 -1.48193e-10 0)
(-3.53683e-12 -1.58204e-10 0)
(7.71021e-13 -1.53704e-10 0)
(-5.70866e-12 -1.59559e-10 0)
(0 0 0)
(1.72066e-12 -1.53336e-10 0)
(-6.84153e-12 -1.58445e-10 0)
(-7.39881e-12 -1.55606e-10 0)
(0 0 0)
(-2.26884e-11 -3.5616e-10 0)
(-4.61004e-12 -1.52786e-10 0)
(3.06944e-12 -1.70619e-10 0)
(3.04119e-12 -1.69846e-10 0)
(9.61405e-14 -1.64359e-10 0)
(3.28713e-13 -1.61966e-10 0)
(7.17239e-12 -1.65298e-10 0)
(5.65821e-12 -1.59062e-10 0)
(1.99782e-11 -3.22244e-10 0)
(1.86179e-12 -1.27884e-10 0)
(8.4159e-13 -2.33381e-10 0)
(4.29074e-11 -1.61033e-10 0)
(-6.45783e-12 -7.57953e-10 0)
(3.95747e-11 -2.51066e-10 0)
(1.9908e-11 -8.24617e-11 0)
(2.88227e-11 -1.21215e-10 0)
(3.05669e-11 -1.7234e-10 0)
(-6.14741e-11 -2.18331e-10 0)
(0 0 0)
(3.62677e-11 -3.918e-10 0)
(0 0 0)
(4.46464e-11 -2.87463e-10 0)
(4.02945e-12 -1.35463e-10 0)
(-3.18351e-12 -1.42806e-10 0)
(1.23926e-11 -3.0604e-10 0)
(1.68048e-11 -1.51349e-10 0)
(1.51705e-11 -1.81924e-10 0)
(-3.32583e-11 -4.14042e-10 0)
(-1.59678e-11 -1.49844e-10 0)
(-1.12393e-11 -1.38949e-10 0)
(0 0 0)
(-9.60398e-13 -1.34098e-10 0)
(7.40711e-13 -1.30232e-10 0)
(3.39284e-12 -1.49604e-10 0)
(0 0 0)
(0 0 0)
(0 0 0)
(4.68739e-12 -1.43656e-10 0)
(6.9974e-12 -1.50953e-10 0)
(7.48882e-12 -1.50079e-10 0)
(4.66526e-12 -1.52922e-10 0)
(4.72169e-12 -1.51174e-10 0)
(0 0 0)
(7.11107e-13 -1.41915e-10 0)
(-1.08274e-12 -1.47181e-10 0)
(1.32385e-12 -1.49248e-10 0)
(-4.67919e-12 -1.53009e-10 0)
(0 0 0)
(-4.694e-09 1.74725e-09 0)
(-1.06853e-09 3.6469e-11 0)
(-1.49554e-10 -4.87001e-10 0)
(1.99909e-12 -1.33431e-10 0)
(-2.19246e-11 -2.14754e-10 0)
(-7.62548e-12 -1.71375e-10 0)
(-1.18316e-11 -1.96952e-10 0)
(0 0 0)
(-1.81039e-11 -1.36066e-10 0)
(0 0 0)
(-1.67952e-11 -1.27657e-10 0)
(-4.19246e-12 -1.33966e-10 0)
(-1.13514e-11 -3.72744e-10 0)
(-2.79605e-12 -1.45746e-10 0)
(-1.55768e-12 -1.47095e-10 0)
(-3.28106e-12 -3.52944e-10 0)
(9.45056e-13 -1.3744e-10 0)
(0 0 0)
(5.7464e-12 -1.45866e-10 0)
(1.27908e-12 -1.60312e-10 0)
(3.54433e-12 -1.56139e-10 0)
(0 0 0)
(0 0 0)
(-4.28396e-12 -1.59064e-10 0)
(-8.61e-12 -1.54974e-10 0)
(-4.03628e-12 -1.58892e-10 0)
(-4.06348e-12 -1.59177e-10 0)
(-1.17296e-12 -1.67063e-10 0)
(-3.78242e-12 -1.68033e-10 0)
(-4.6573e-12 -1.73062e-10 0)
(-3.82512e-12 -1.72401e-10 0)
(-8.08058e-12 -3.78213e-10 0)
(0 0 0)
(-8.08256e-13 -1.62648e-10 0)
(-1.31691e-12 -3.51105e-10 0)
(0 0 0)
(-6.3063e-12 -1.46026e-10 0)
(-3.04675e-12 -9.54299e-11 0)
(-2.76642e-11 -1.72908e-10 0)
(-6.35968e-11 -5.41044e-10 0)
(6.15768e-11 -1.74358e-10 0)
(3.12244e-11 -1.03651e-10 0)
(4.80763e-11 -1.84225e-10 0)
(3.79364e-11 -3.3559e-10 0)
(0 0 0)
(0 0 0)
(1.08542e-11 -2.85673e-10 0)
(1.97714e-11 -1.4146e-10 0)
(1.05642e-11 -1.29232e-10 0)
(1.07892e-11 -1.48351e-10 0)
(2.58519e-12 -1.27751e-10 0)
(6.89703e-12 -1.2032e-10 0)
(2.41402e-11 -1.52826e-10 0)
(4.36148e-11 -2.20893e-10 0)
(0 0 0)
(-5.00235e-11 -1.74003e-10 0)
(-1.2824e-11 -1.30995e-10 0)
(0 0 0)
(4.81766e-12 -1.35617e-10 0)
(5.02694e-12 -1.49194e-10 0)
(0 0 0)
(5.89942e-12 -1.46226e-10 0)
(7.57884e-12 -1.49941e-10 0)
(1.42717e-12 -1.47767e-10 0)
(-3.377e-12 -1.4418e-10 0)
(2.72112e-12 -1.40679e-10 0)
(6.43913e-12 -1.41463e-10 0)
(6.00677e-12 -1.45982e-10 0)
(5.50185e-12 -1.48619e-10 0)
(-1.47278e-12 -3.21288e-10 0)
(-4.4098e-12 -1.19342e-10 0)
(1.8861e-12 -2.86896e-10 0)
(-5.34102e-12 -3.04333e-10 0)
(-4.67927e-12 -2.89298e-10 0)
(-9.3743e-12 -1.31314e-10 0)
(-4.63221e-09 2.71938e-09 0)
(-4.23118e-10 -1.18241e-10 0)
(2.4418e-11 -7.3786e-11 0)
(-3.4147e-11 -2.80287e-10 0)
(1.11592e-12 -1.90256e-10 0)
(-6.47648e-13 -2.00555e-10 0)
(0 0 0)
(6.25109e-12 -1.9152e-10 0)
(-1.00291e-11 -1.23972e-10 0)
(-5.50377e-12 -1.40163e-10 0)
(0 0 0)
(-1.01587e-11 -1.09741e-10 0)
(0 0 0)
(-8.51535e-12 -1.59883e-10 0)
(-9.87461e-12 -1.44341e-10 0)
(-6.52305e-12 -3.3365e-10 0)
(-5.91717e-13 -1.47488e-10 0)
(5.07627e-13 -1.46861e-10 0)
(7.75374e-12 -1.502e-10 0)
(-9.25702e-12 -1.51895e-10 0)
(2.57876e-13 -1.56005e-10 0)
(-1.24515e-12 -1.5356e-10 0)
(-3.20482e-12 -1.50381e-10 0)
(-4.07139e-12 -1.47343e-10 0)
(-1.09281e-11 -1.49111e-10 0)
(-1.12186e-11 -3.43322e-10 0)
(-6.20707e-12 -1.48384e-10 0)
(-7.71993e-12 -1.57632e-10 0)
(-2.18491e-12 -1.61042e-10 0)
(-6.94179e-12 -1.64586e-10 0)
(-5.65718e-12 -1.68042e-10 0)
(-5.78961e-12 -1.59851e-10 0)
(-1.90515e-13 -1.58546e-10 0)
(-3.06706e-12 -1.58338e-10 0)
(4.16421e-12 -1.56644e-10 0)
(-5.00466e-12 -1.5635e-10 0)
(-7.43318e-12 -1.33698e-10 0)
(-3.53528e-11 -3.04074e-10 0)
(-2.54867e-11 -1.52245e-10 0)
(-4.19459e-12 -1.81124e-10 0)
(3.56047e-11 -1.63274e-10 0)
(0 0 0)
(8.70854e-12 -7.64368e-11 0)
(-9.48988e-12 -7.41758e-10 0)
(0 0 0)
(9.48352e-12 -8.07565e-11 0)
(1.10009e-11 -1.07654e-10 0)
(2.2282e-11 -1.41695e-10 0)
(4.21717e-11 -1.62834e-10 0)
(1.26901e-11 -1.52768e-10 0)
(-1.72879e-11 -1.62636e-10 0)
(-1.45184e-11 -1.18371e-10 0)
(-4.4754e-12 -2.54912e-10 0)
(-9.95649e-12 -4.73716e-10 0)
(0 0 0)
(-2.78498e-11 -1.39831e-10 0)
(-1.33706e-15 -1.04635e-10 0)
(6.99121e-12 -1.28565e-10 0)
(7.91947e-12 -1.27826e-10 0)
(2.41584e-11 -3.03527e-10 0)
(7.9964e-12 -1.29371e-10 0)
(1.09792e-11 -1.41196e-10 0)
(0 0 0)
(4.36293e-12 -1.593e-10 0)
(-4.25785e-12 -1.57182e-10 0)
(4.98113e-13 -1.42752e-10 0)
(2.92745e-12 -1.39461e-10 0)
(1.24144e-12 -1.46041e-10 0)
(-1.46281e-11 -5.03867e-10 0)
(-1.05014e-11 -2.86604e-10 0)
(-1.12539e-11 -1.11196e-10 0)
(3.88979e-12 -1.34361e-10 0)
(-1.53648e-11 -2.96592e-10 0)
(-6.13757e-12 -1.36242e-10 0)
(0 0 0)
(-9.49145e-09 -4.16668e-10 0)
(-8.93473e-10 -7.51481e-10 0)
(1.87925e-11 -1.79788e-10 0)
(-3.13338e-12 -1.73365e-10 0)
(-5.12181e-12 -1.99482e-10 0)
(0 0 0)
(5.51115e-12 -1.90327e-10 0)
(0 0 0)
(-1.25611e-12 -1.38227e-10 0)
(0 0 0)
(-1.683e-11 -2.73986e-10 0)
(-2.51239e-11 -1.30121e-10 0)
(-1.59343e-11 -1.67399e-10 0)
(-6.40402e-12 -1.44898e-10 0)
(-6.73541e-11 -5.4461e-10 0)
(-1.37951e-11 -1.34255e-10 0)
(-8.584e-12 -3.12566e-10 0)
(1.21278e-12 -1.38867e-10 0)
(-5.31304e-13 -3.48634e-10 0)
(-4.18247e-12 -1.30255e-10 0)
(-1.23775e-12 -1.37723e-10 0)
(-8.87298e-12 -1.35763e-10 0)
(-5.53438e-12 -1.43567e-10 0)
(-1.05839e-11 -3.54135e-10 0)
(0 0 0)
(-6.64515e-12 -3.20594e-10 0)
(-5.85465e-12 -1.52416e-10 0)
(-1.01338e-11 -1.60578e-10 0)
(-1.02308e-11 -1.55472e-10 0)
(-7.76143e-12 -1.74995e-10 0)
(-7.60265e-12 -3.6485e-10 0)
(2.59314e-13 -1.51321e-10 0)
(-1.432e-12 -1.58294e-10 0)
(0 0 0)
(-7.90846e-12 -3.40344e-10 0)
(-1.70203e-11 -5.67063e-10 0)
(-4.27862e-12 -1.37632e-10 0)
(-1.00617e-11 -1.28758e-10 0)
(-1.77596e-11 -1.53761e-10 0)
(0 0 0)
(1.89711e-12 -3.44939e-10 0)
(2.45713e-12 -1.14834e-10 0)
(-2.89734e-12 -1.226e-10 0)
(-7.58657e-11 -2.36682e-10 0)
(1.00616e-10 -5.52293e-10 0)
(2.72317e-11 -1.1264e-10 0)
(1.95421e-11 -1.13887e-10 0)
(2.57614e-11 -1.30708e-10 0)
(0 0 0)
(0 0 0)
(-2.54961e-11 -2.97977e-10 0)
(0 0 0)
(-2.91432e-11 -9.60626e-11 0)
(-4.97411e-11 -1.92447e-10 0)
(3.33465e-11 -2.18062e-10 0)
(6.57081e-11 -2.81967e-10 0)
(1.07231e-11 -9.78716e-11 0)
(1.0026e-11 -1.1743e-10 0)
(2.19993e-11 -2.55661e-10 0)
(2.73881e-11 -2.91083e-10 0)
(3.08886e-11 -2.62333e-10 0)
(9.19801e-12 -1.15131e-10 0)
(1.83119e-11 -2.93786e-10 0)
(1.57991e-11 -1.49969e-10 0)
(-6.76692e-12 -1.65876e-10 0)
(-8.3559e-12 -1.47449e-10 0)
(-3.08314e-11 -3.06646e-10 0)
(-1.29087e-11 -1.35216e-10 0)
(1.93932e-12 -1.46541e-10 0)
(-9.28995e-12 -2.67854e-10 0)
(0 0 0)
(-3.40051e-11 -3.01732e-10 0)
(0 0 0)
(-1.88453e-11 -2.8353e-10 0)
(0 0 0)
(-9.0053e-10 3.15878e-09 0)
(-2.64292e-10 -3.34857e-10 0)
(2.70766e-11 -1.97863e-10 0)
(-4.06467e-11 -2.65687e-10 0)
(-5.44582e-12 -1.65567e-10 0)
(0 0 0)
(0 0 0)
(1.17835e-11 -1.74831e-10 0)
(1.93331e-11 -3.0935e-10 0)
(-1.63937e-11 -3.11557e-10 0)
(-1.7496e-11 -1.2667e-10 0)
(0 0 0)
(-1.16569e-11 -1.65467e-10 0)
(0 0 0)
(-9.64975e-12 -1.33235e-10 0)
(-9.43555e-12 -1.41895e-10 0)
(-9.93505e-12 -3.213e-10 0)
(-4.76849e-12 -1.28228e-10 0)
(-6.99458e-12 -3.12013e-10 0)
(-5.52776e-12 -3.13088e-10 0)
(0 0 0)
(-3.43834e-11 -3.45286e-10 0)
(-1.01366e-11 -1.36114e-10 0)
(-1.67055e-11 -3.16925e-10 0)
(-6.23017e-12 -1.53155e-10 0)
(0 0 0)
(-1.02409e-11 -3.36477e-10 0)
(-3.22826e-12 -1.52134e-10 0)
(-9.66879e-12 -1.51983e-10 0)
(2.10813e-12 -1.61949e-10 0)
(0 0 0)
(0 0 0)
(-9.19317e-14 -1.64929e-10 0)
(-3.54305e-12 -1.6973e-10 0)
(-4.00759e-12 -1.60968e-10 0)
(-3.45368e-12 -1.60109e-10 0)
(-4.18522e-12 -1.55027e-10 0)
(-8.89701e-12 -1.55351e-10 0)
(-1.23769e-11 -1.66147e-10 0)
(-9.48351e-12 -1.59238e-10 0)
(-1.0363e-11 -1.64781e-10 0)
(0 0 0)
(-5.41429e-11 -4.13106e-10 0)
(-2.0992e-11 -1.98567e-10 0)
(6.25272e-11 -4.62045e-10 0)
(3.43005e-11 -1.43259e-10 0)
(2.10235e-11 -1.20604e-10 0)
(1.58916e-11 -1.09592e-10 0)
(1.15793e-11 -3.26778e-10 0)
(-3.67358e-13 -3.90604e-10 0)
(0 0 0)
(2.07813e-12 -1.0931e-10 0)
(0 0 0)
(-4.23365e-11 -1.73202e-10 0)
(1.11868e-11 -1.6555e-10 0)
(1.3744e-11 -1.47224e-10 0)
(4.03741e-11 -2.72103e-10 0)
(3.31262e-11 -2.68142e-10 0)
(6.76038e-12 -1.35812e-10 0)
(1.71247e-12 -2.94653e-10 0)
(-2.33514e-12 -4.5795e-10 0)
(2.76546e-11 -4.58722e-10 0)
(1.73503e-11 -4.39757e-10 0)
(-7.05445e-15 -3.78228e-10 0)
(-5.63327e-12 -1.38009e-10 0)
(-6.14512e-12 -1.30766e-10 0)
(0 0 0)
(-1.05103e-11 -3.03621e-10 0)
(-2.19554e-11 -2.85669e-10 0)
(-9.16035e-12 -2.95975e-10 0)
(0 0 0)
(-1.12104e-11 -1.30445e-10 0)
(0 0 0)
(0 0 0)
(-8.39633e-12 -1.4399e-10 0)
(-5.37964e-09 8.17665e-09 0)
(6.72611e-11 1.04754e-10 0)
(1.93754e-11 -7.86288e-11 0)
(6.52752e-11 -3.1271e-10 0)
(1.51612e-10 -5.24024e-10 0)
(-1.42924e-10 -5.3971e-10 0)
(-1.72562e-11 -1.20959e-10 0)
(3.65233e-12 -1.08444e-10 0)
(0 0 0)
(-1.58581e-11 -1.66355e-10 0)
(-1.55865e-11 -1.23183e-10 0)
(-5.30129e-11 -2.94148e-10 0)
(-1.34388e-11 -1.25128e-10 0)
(-1.20239e-11 -1.39499e-10 0)
(-2.39701e-11 -3.14728e-10 0)
(-1.34629e-11 -1.25072e-10 0)
(-2.82609e-11 -3.18769e-10 0)
(-9.85222e-12 -2.90835e-10 0)
(-4.86131e-12 -1.09821e-10 0)
(0 0 0)
(-9.45236e-12 -1.40794e-10 0)
(0 0 0)
(-1.18102e-12 -1.40014e-10 0)
(-2.76858e-12 -1.60027e-10 0)
(-6.50084e-12 -1.69166e-10 0)
(-2.0483e-12 -1.48296e-10 0)
(3.78706e-13 -1.57869e-10 0)
(-3.82286e-12 -1.57989e-10 0)
(0 0 0)
(-3.25585e-12 -3.81789e-10 0)
(0 0 0)
(-8.74713e-14 -1.57717e-10 0)
(-4.6694e-12 -1.7252e-10 0)
(-4.00719e-12 -1.69571e-10 0)
(-2.11822e-12 -1.61734e-10 0)
(-3.63576e-12 -1.58314e-10 0)
(-5.77677e-12 -1.50546e-10 0)
(-1.19354e-11 -1.66358e-10 0)
(-5.64882e-12 -1.60152e-10 0)
(-4.34638e-12 -1.54486e-10 0)
(-7.86972e-12 -1.54708e-10 0)
(-1.10951e-11 -1.67535e-10 0)
(-1.18294e-11 -1.77887e-10 0)
(-2.10272e-11 -4.03867e-10 0)
(1.29815e-11 -1.7094e-10 0)
(2.09983e-11 -1.50195e-10 0)
(4.07174e-12 -1.40103e-10 0)
(-1.46573e-11 -1.36174e-10 0)
(0 0 0)
(-6.01292e-11 -1.96849e-10 0)
(7.27609e-11 -2.32749e-10 0)
(0 0 0)
(3.38619e-12 -1.41054e-10 0)
(8.38137e-12 -1.43719e-10 0)
(1.1963e-11 -1.59388e-10 0)
(0 0 0)
(1.2001e-11 -1.31012e-10 0)
(8.80247e-12 -1.38914e-10 0)
(8.39561e-12 -1.44399e-10 0)
(0 0 0)
(0 0 0)
(0 0 0)
(0 0 0)
(-6.0551e-11 -6.03268e-10 0)
(-4.30333e-11 -5.19158e-10 0)
(-1.59461e-11 -2.31322e-10 0)
(0 0 0)
(-2.00452e-12 -1.5127e-10 0)
(1.83006e-12 -1.42082e-10 0)
(0 0 0)
(-3.41027e-12 -2.98621e-10 0)
(-1.56057e-11 -2.99209e-10 0)
(0 0 0)
(-2.12711e-11 -1.37899e-10 0)
(9.57808e-12 -1.17557e-10 0)
(-8.4057e-09 6.44594e-09 0)
(-1.00008e-09 1.13821e-10 0)
(-1.81582e-10 1.66052e-10 0)
(1.08092e-11 -1.36746e-10 0)
(4.90346e-13 -8.81459e-10 0)
(3.94804e-11 -3.34498e-10 0)
(3.43739e-11 -9.40052e-11 0)
(3.76271e-11 -1.22344e-10 0)
(3.79043e-11 -1.55828e-10 0)
(-1.79175e-12 -1.90361e-10 0)
(-7.31226e-11 -3.36564e-10 0)
(-2.66524e-11 -1.25537e-10 0)
(-2.68226e-11 -2.79592e-10 0)
(-1.53898e-11 -1.30095e-10 0)
(-1.21159e-11 -1.30065e-10 0)
(-2.58792e-11 -3.30655e-10 0)
(0 0 0)
(0 0 0)
(0 0 0)
(-1.27935e-11 -3.19114e-10 0)
(-7.11908e-12 -3.42504e-10 0)
(-4.92014e-13 -1.33334e-10 0)
(1.97415e-12 -1.46609e-10 0)
(0 0 0)
(1.76283e-12 -1.60423e-10 0)
(4.67218e-13 -1.60146e-10 0)
(-9.38827e-13 -1.59686e-10 0)
(3.3505e-12 -1.63602e-10 0)
(2.97052e-13 -1.4775e-10 0)
(0 0 0)
(4.601e-12 -1.65996e-10 0)
(-5.74303e-12 -1.91214e-10 0)
(-4.76317e-12 -1.37282e-10 0)
(-4.86768e-12 -1.59667e-10 0)
(-8.45212e-13 -1.68324e-10 0)
(-1.37751e-11 -3.65832e-10 0)
(-7.70671e-14 -1.3867e-10 0)
(-6.72231e-12 -1.43983e-10 0)
(-1.37119e-12 -1.54593e-10 0)
(-5.10679e-12 -1.64848e-10 0)
(-7.14435e-12 -1.73022e-10 0)
(-8.34442e-12 -1.69843e-10 0)
(-8.91088e-12 -1.75328e-10 0)
(-1.04795e-11 -1.69674e-10 0)
(-3.45955e-12 -1.76068e-10 0)
(4.52745e-12 -3.60628e-10 0)
(0 0 0)
(-2.23144e-12 -1.43441e-10 0)
(-2.97444e-11 -1.71251e-10 0)
(0 0 0)
(0 0 0)
(9.02529e-11 -3.94217e-10 0)
(3.07591e-11 -3.54035e-10 0)
(1.24404e-11 -1.30821e-10 0)
(8.97732e-12 -1.43182e-10 0)
(0 0 0)
(0 0 0)
(7.88034e-12 -1.38891e-10 0)
(5.29223e-12 -1.3699e-10 0)
(7.74521e-12 -1.46117e-10 0)
(2.2785e-12 -1.35136e-10 0)
(2.41511e-11 -1.37342e-10 0)
(3.6969e-11 -3.54665e-10 0)
(0 0 0)
(-3.05319e-11 -1.66776e-10 0)
(-1.59821e-11 -1.36635e-10 0)
(-1.35336e-11 -1.39702e-10 0)
(-8.14482e-12 -1.34966e-10 0)
(-4.06564e-12 -1.41607e-10 0)
(-3.98023e-12 -2.97349e-10 0)
(2.58596e-12 -3.26812e-10 0)
(8.6413e-12 -1.65542e-10 0)
(-1.60764e-12 -2.98786e-10 0)
(-5.01839e-13 -1.05658e-10 0)
(-1.44037e-12 -2.77606e-10 0)
(-1.01289e-08 4.68546e-09 0)
(-1.12479e-09 5.67466e-10 0)
(-5.28659e-10 -1.17818e-10 0)
(-8.06972e-11 -2.62573e-10 0)
(-7.4606e-11 -2.30006e-10 0)
(1.47828e-10 -4.50453e-10 0)
(4.67763e-11 -1.13733e-10 0)
(4.74703e-11 -1.22735e-10 0)
(1.02628e-10 -5.45073e-10 0)
(-5.43287e-11 -2.03753e-10 0)
(-3.58611e-11 -1.3287e-10 0)
(-2.1661e-11 -1.23912e-10 0)
(0 0 0)
(-9.62658e-12 -1.3475e-10 0)
(0 0 0)
(-5.24089e-12 -1.47496e-10 0)
(0 0 0)
(-1.47947e-11 -3.09584e-10 0)
(0 0 0)
(0 0 0)
(0 0 0)
(6.63123e-12 -5.36326e-10 0)
(0 0 0)
(1.18446e-12 -1.54678e-10 0)
(3.54149e-12 -1.59742e-10 0)
(3.13627e-12 -1.54862e-10 0)
(2.11713e-12 -1.58649e-10 0)
(1.66005e-12 -1.60088e-10 0)
(6.29287e-12 -1.5666e-10 0)
(3.48768e-12 -1.51712e-10 0)
(4.96823e-12 -1.75463e-10 0)
(-4.74513e-12 -1.60352e-10 0)
(-1.14757e-12 -1.73063e-10 0)
(0 0 0)
(-9.6428e-12 -1.67666e-10 0)
(-1.0736e-11 -1.64359e-10 0)
(-1.00857e-11 -3.49857e-10 0)
(-5.29746e-12 -1.36773e-10 0)
(-6.67446e-12 -1.48211e-10 0)
(-5.48225e-12 -1.63258e-10 0)
(1.94966e-13 -1.70238e-10 0)
(-2.82149e-12 -1.74982e-10 0)
(-1.02689e-11 -1.80605e-10 0)
(-8.38278e-12 -1.81177e-10 0)
(-1.3631e-11 -3.71999e-10 0)
(8.96962e-14 -1.42164e-10 0)
(1.36548e-12 -1.42742e-10 0)
(-1.34386e-12 -1.53137e-10 0)
(-8.43856e-12 -1.5651e-10 0)
(0 0 0)
(2.82744e-12 -1.71892e-10 0)
(2.00684e-11 -1.44854e-10 0)
(1.19512e-11 -1.49298e-10 0)
(1.40351e-11 -1.53111e-10 0)
(0 0 0)
(8.35357e-12 -1.44396e-10 0)
(5.1051e-12 -1.44657e-10 0)
(2.60997e-11 -2.96771e-10 0)
(0 0 0)
(6.38643e-12 -1.43647e-10 0)
(1.62585e-11 -1.14113e-10 0)
(4.08508e-11 -1.74135e-10 0)
(0 0 0)
(-6.11537e-11 -2.29329e-10 0)
(0 0 0)
(0 0 0)
(0 0 0)
(0 0 0)
(0 0 0)
(-2.55733e-12 -1.51552e-10 0)
(4.60671e-12 -1.61044e-10 0)
(0 0 0)
(1.20141e-11 -1.60506e-10 0)
(1.65124e-11 -1.40932e-10 0)
(-5.17932e-13 -1.21162e-10 0)
(-1.54191e-08 5.31383e-09 0)
(-1.81348e-09 6.98005e-10 0)
(-3.67653e-10 -2.34892e-10 0)
(-3.56833e-11 -1.33779e-10 0)
(-2.1718e-11 -1.77095e-10 0)
(3.02121e-11 -3.3021e-10 0)
(1.56912e-11 -1.14408e-10 0)
(2.1556e-14 -8.9227e-11 0)
(-1.89835e-11 -7.0563e-10 0)
(-1.17737e-11 -2.82808e-10 0)
(-1.70548e-11 -1.30763e-10 0)
(-7.12486e-12 -9.28349e-11 0)
(-1.08364e-11 -1.27066e-10 0)
(0 0 0)
(-4.39348e-12 -1.43941e-10 0)
(0 0 0)
(-3.55957e-12 -1.46065e-10 0)
(0 0 0)
(2.25832e-12 -1.45979e-10 0)
(-9.08468e-13 -1.5113e-10 0)
(0 0 0)
(0 0 0)
(0 0 0)
(0 0 0)
(6.12184e-14 -1.61699e-10 0)
(-1.62808e-12 -1.5502e-10 0)
(-9.73101e-12 -3.41234e-10 0)
(-4.33407e-12 -1.48203e-10 0)
(-9.11984e-13 -3.38222e-10 0)
(1.52652e-12 -1.4537e-10 0)
(7.50528e-12 -1.62742e-10 0)
(4.60043e-12 -1.58076e-10 0)
(-4.33626e-12 -1.7116e-10 0)
(-2.28716e-11 -3.93513e-10 0)
(-1.53184e-11 -1.58063e-10 0)
(-1.52663e-11 -1.59462e-10 0)
(-1.00625e-11 -3.52703e-10 0)
(0 0 0)
(-8.8043e-12 -1.53228e-10 0)
(5.47266e-13 -1.60331e-10 0)
(9.52403e-12 -1.63373e-10 0)
(8.45748e-12 -1.84391e-10 0)
(-8.76826e-12 -1.90099e-10 0)
(-2.22949e-11 -1.84192e-10 0)
(-1.36477e-11 -1.63522e-10 0)
(-3.31402e-11 -5.48432e-10 0)
(-4.8307e-13 -1.34837e-10 0)
(-1.10667e-11 -3.38991e-10 0)
(4.66505e-13 -1.47536e-10 0)
(2.60089e-12 -1.59324e-10 0)
(9.81621e-12 -1.5499e-10 0)
(1.27211e-11 -3.3307e-10 0)
(0 0 0)
(1.26566e-11 -1.45846e-10 0)
(7.38412e-12 -1.53779e-10 0)
(1.17452e-11 -1.48449e-10 0)
(0 0 0)
(3.67924e-12 -1.45613e-10 0)
(3.06314e-12 -1.41709e-10 0)
(7.56801e-12 -1.29364e-10 0)
(0 0 0)
(4.82296e-12 -8.54271e-11 0)
(-2.19444e-12 -3.44426e-10 0)
(2.37827e-11 -2.40257e-10 0)
(5.76072e-12 -8.10121e-11 0)
(0 0 0)
(2.14921e-13 -1.26319e-10 0)
(-2.25133e-12 -1.35859e-10 0)
(-1.00593e-12 -1.4709e-10 0)
(0 0 0)
(1.5251e-11 -3.15592e-10 0)
(8.13149e-12 -2.61909e-10 0)
(1.24128e-11 -1.66143e-10 0)
(1.06246e-11 -1.29765e-10 0)
(1.57902e-11 -3.00115e-10 0)
(-2.59311e-09 3.38777e-09 0)
(-1.61588e-09 -6.72142e-10 0)
(-2.42837e-10 -1.15838e-10 0)
(-1.62529e-11 -8.85492e-11 0)
(-2.73751e-11 -1.52177e-10 0)
(-1.75242e-11 -3.18874e-10 0)
(-1.34965e-11 -1.60177e-10 0)
(-3.7261e-11 -1.686e-10 0)
(-9.96299e-11 -5.35489e-10 0)
(7.2487e-11 -1.93611e-10 0)
(3.05838e-11 -1.42738e-10 0)
(9.7267e-12 -1.10623e-10 0)
(4.00462e-12 -2.8444e-10 0)
(0 0 0)
(0 0 0)
(0 0 0)
(0 0 0)
(2.37736e-12 -1.51767e-10 0)
(3.12884e-12 -1.52134e-10 0)
(4.85443e-12 -1.56031e-10 0)
(8.52931e-12 -1.48235e-10 0)
(8.61631e-12 -1.52749e-10 0)
(0 0 0)
(3.61404e-12 -3.28966e-10 0)
(-3.01233e-12 -3.3409e-10 0)
(-3.10917e-12 -1.45347e-10 0)
(0 0 0)
(0 0 0)
(6.67307e-12 -3.1426e-10 0)
(7.46844e-12 -1.31628e-10 0)
(7.76231e-12 -1.51525e-10 0)
(1.1755e-11 -1.71115e-10 0)
(-5.63666e-12 -1.88521e-10 0)
(0 0 0)
(-2.68664e-11 -1.77883e-10 0)
(-1.80586e-11 -1.58132e-10 0)
(-6.25303e-12 -1.53288e-10 0)
(-8.07223e-12 -1.55698e-10 0)
(-8.68428e-12 -1.56648e-10 0)
(0 0 0)
(1.26559e-11 -1.73487e-10 0)
(1.39033e-11 -2.00356e-10 0)
(0 0 0)
(-4.93747e-11 -1.98816e-10 0)
(0 0 0)
(0 0 0)
(-1.12379e-11 -1.54979e-10 0)
(-7.09949e-12 -1.64283e-10 0)
(-2.15246e-12 -1.61963e-10 0)
(-1.45593e-12 -1.6149e-10 0)
(4.84957e-12 -1.6004e-10 0)
(9.66652e-12 -1.52479e-10 0)
(8.30846e-12 -1.55327e-10 0)
(8.77938e-12 -1.56878e-10 0)
(0 0 0)
(1.44353e-11 -1.44393e-10 0)
(8.39714e-12 -1.49573e-10 0)
(3.66071e-12 -1.49276e-10 0)
(0 0 0)
(0 0 0)
(-1.40343e-11 -1.18937e-10 0)
(-4.24675e-11 -2.07201e-10 0)
(0 0 0)
(3.05488e-11 -6.02384e-10 0)
(7.7109e-11 -3.26426e-10 0)
(5.94801e-12 -1.22606e-10 0)
(8.45495e-12 -1.30972e-10 0)
(0 0 0)
(1.10651e-11 -3.04895e-10 0)
(6.39458e-12 -2.36952e-10 0)
(7.37111e-12 -2.02882e-10 0)
(0 0 0)
(-3.01568e-12 -1.43307e-10 0)
(1.92375e-12 -1.41863e-10 0)
(0 0 0)
(-9.88878e-10 3.3679e-09 0)
(-1.98599e-10 -6.21394e-10 0)
(4.65268e-11 -7.72119e-11 0)
(-1.30842e-11 -3.2032e-10 0)
(-2.16179e-11 -1.36722e-10 0)
(-2.62341e-11 -1.37638e-10 0)
(-2.54799e-11 -1.75562e-10 0)
(-3.22649e-11 -1.83407e-10 0)
(-1.91433e-11 -1.9018e-10 0)
(1.71969e-11 -1.68755e-10 0)
(1.9325e-11 -1.42293e-10 0)
(0 0 0)
(4.62043e-12 -1.46731e-10 0)
(4.59321e-13 -1.47862e-10 0)
(6.55705e-13 -1.42385e-10 0)
(0 0 0)
(2.85765e-12 -1.50461e-10 0)
(0 0 0)
(4.75281e-12 -1.52416e-10 0)
(1.33047e-11 -3.27343e-10 0)
(1.54074e-11 -3.22557e-10 0)
(7.05111e-12 -1.26588e-10 0)
(1.29827e-12 -4.98353e-10 0)
(-6.56721e-12 -1.26033e-10 0)
(-4.32527e-12 -1.41635e-10 0)
(0 0 0)
(1.2598e-12 -1.46789e-10 0)
(-3.28189e-12 -1.39304e-10 0)
(6.23518e-12 -2.82703e-10 0)
(1.13774e-12 -1.30271e-10 0)
(2.25398e-11 -3.06369e-10 0)
(2.73307e-11 -1.54773e-10 0)
(3.19218e-11 -2.01397e-10 0)
(0 0 0)
(0 0 0)
(0 0 0)
(0 0 0)
(-6.30626e-12 -1.50523e-10 0)
(2.42431e-14 -1.46348e-10 0)
(0 0 0)
(3.61916e-11 -2.80907e-10 0)
(1.32257e-10 -5.93548e-10 0)
(0 0 0)
(0 0 0)
(-1.92608e-11 -1.53732e-10 0)
(-1.27487e-11 -1.54528e-10 0)
(-1.1437e-11 -1.55009e-10 0)
(-1.07815e-11 -1.58551e-10 0)
(-7.44064e-12 -1.56547e-10 0)
(-6.16227e-12 -3.59183e-10 0)
(3.99643e-12 -3.18332e-10 0)