/*--------------------------------*- C++ -*----------------------------------*\
  =========                 |
  \\      /  F ield         | OpenFOAM: The Open Source CFD Toolbox
   \\    /   O peration     | Website:  https://openfoam.org
    \\  /    A nd           | Version:  12
     \\/     M anipulation  |
\*---------------------------------------------------------------------------*/
FoamFile
{
    format      ascii;
    class       volScalarField::Internal;
    location    "1";
    object      cloud:UCoeff;
}
// * * * * * * * * * * * * * * * * * * * * * * * * * * * * * * * * * * * * * //

dimensions      [1 0 0 0 0 0 0];

value           nonuniform List<scalar> 
3750
(
2.67616e-05
1.48221e-06
1.37279e-07
0
4.24216e-09
0
9.95414e-09
0
4.308e-09
4.34234e-09
4.25975e-09
1.70903e-08
3.91625e-09
9.59049e-09
4.07037e-09
4.13236e-09
0
0
4.16967e-09
0
4.16471e-09
0
0
4.11044e-09
0
9.15782e-09
3.76801e-09
3.58555e-09
0
5.25245e-09
0
8.63891e-09
0
4.76157e-09
4.76926e-09
4.09732e-09
0
3.78952e-09
4.10907e-09
4.30405e-09
0
9.82638e-09
4.05201e-09
9.91095e-09
9.65163e-09
0
0
4.47009e-09
4.33345e-09
9.94267e-09
4.22404e-09
9.6641e-09
9.75662e-09
3.99031e-09
4.06737e-09
9.17264e-09
0
4.16239e-09
4.27875e-09
4.13339e-09
1.64451e-08
3.6503e-09
4.01047e-09
0
4.33095e-09
4.19511e-09
4.15382e-09
4.15886e-09
0
9.38205e-09
3.84195e-09
4.0984e-09
0
4.15721e-09
4.13538e-09
8.84538e-06
1.75432e-07
4.6674e-08
3.20921e-09
0
1.01199e-08
0
4.31242e-09
4.23863e-09
4.27796e-09
4.29742e-09
4.07971e-09
1.65429e-08
0
4.21727e-09
1.0011e-08
4.15287e-09
0
0
9.78309e-09
4.05594e-09
4.15964e-09
0
4.3171e-09
9.43637e-09
3.77361e-09
8.73514e-09
0
6.12023e-09
0
0
0
3.36055e-09
2.35779e-08
5.64915e-09
8.92083e-09
8.80108e-09
0
4.27839e-09
0
4.10061e-09
4.3114e-09
3.99829e-09
0
1.06599e-08
4.87538e-09
0
4.71584e-09
0
0
0
0
0
1.00523e-08
1.00966e-08
4.14342e-09
9.77796e-09
9.78494e-09
0
4.22359e-09
0
1.60595e-08
9.31694e-09
9.67294e-09
0
4.14644e-09
0
1.00284e-08
3.89201e-09
0
4.02525e-09
9.70038e-09
4.04411e-09
0
0
2.52811e-07
1.4851e-07
9.27136e-09
4.27829e-09
4.11097e-09
0
4.11437e-09
0
1.00705e-08
4.0167e-09
0
9.72027e-09
0
4.22955e-09
4.21283e-09
9.8355e-09
0
0
0
9.92844e-09
4.17794e-09
0
4.18289e-09
4.1428e-09
0
1.62631e-08
3.88975e-09
4.60264e-09
0
1.2055e-08
9.47155e-09
0
3.95332e-09
5.5876e-09
1.14863e-08
4.08739e-09
3.71914e-09
0
4.21328e-09
1.0073e-08
4.28232e-09
4.23075e-09
3.89406e-09
9.28618e-09
0
1.28033e-08
0
1.10261e-08
9.78032e-09
9.25228e-09
3.957e-09
4.34371e-09
0
4.27648e-09
4.12331e-09
9.65785e-09
0
4.31747e-09
0
9.65663e-09
1.65595e-08
3.74149e-09
0
3.96643e-09
4.29494e-09
0
0
0
4.0538e-09
0
9.93126e-09
3.89754e-09
3.95932e-09
4.09597e-09
0
1.90069e-06
2.4833e-07
1.4178e-08
4.83417e-09
4.28339e-09
4.18041e-09
4.35799e-09
0
4.19956e-09
4.06544e-09
0
4.10211e-09
4.22379e-09
0
4.2127e-09
4.19345e-09
4.0815e-09
0
0
3.94615e-09
4.00322e-09
0
4.00755e-09
9.67486e-09
3.7667e-09
3.87121e-09
4.06545e-09
4.59769e-09
4.31655e-09
4.44628e-09
4.27982e-09
9.88295e-09
4.21432e-09
1.09369e-08
4.21347e-09
4.23068e-09
1.67983e-08
9.39652e-09
0
4.6359e-09
4.39589e-09
0
4.1364e-09
9.299e-09
0
6.20286e-09
0
4.19276e-09
8.91949e-09
1.56053e-08
3.9313e-09
4.15313e-09
4.05415e-09
1.01413e-08
1.70576e-08
3.93376e-09
4.10858e-09
4.16259e-09
4.02852e-09
4.07412e-09
0
0
0
4.13654e-09
4.15636e-09
1.00166e-08
4.02432e-09
0
4.15897e-09
0
4.15778e-09
4.04841e-09
3.95077e-09
0
4.12617e-09
4.87511e-06
1.44381e-07
1.96754e-08
4.26291e-09
1.03913e-08
4.23136e-09
4.33086e-09
4.3397e-09
9.86961e-09
0
0
9.96619e-09
4.11281e-09
4.21587e-09
4.17165e-09
4.01806e-09
4.03672e-09
4.14101e-09
4.1164e-09
3.84356e-09
9.56018e-09
3.98721e-09
1.01517e-08
0
9.64342e-09
4.16644e-09
4.14044e-09
1.01013e-08
4.24118e-09
4.45663e-09
4.1655e-09
4.15587e-09
1.01627e-08
0
4.2342e-09
0
0
3.91063e-09
4.14038e-09
1.26401e-08
4.97291e-09
3.9848e-09
3.82204e-09
0
1.02118e-08
0
5.78151e-09
0
3.69853e-09
9.26775e-09
3.84502e-09
0
1.00565e-08
4.32667e-09
4.49888e-09
1.00403e-08
3.92041e-09
9.6069e-09
3.90991e-09
3.97159e-09
4.09505e-09
0
9.84099e-09
4.05178e-09
4.04345e-09
4.08598e-09
0
4.03583e-09
4.09628e-09
4.13991e-09
0
4.10899e-09
4.22076e-09
0
0
3.47667e-06
3.35261e-07
1.37797e-08
4.53871e-09
4.48448e-09
4.50469e-09
4.42788e-09
4.41128e-09
4.23041e-09
4.17431e-09
4.05709e-09
4.16087e-09
1.01461e-08
4.05628e-09
4.21447e-09
9.96373e-09
4.03655e-09
4.11309e-09
4.15549e-09
4.26111e-09
4.21367e-09
4.2758e-09
0
4.20987e-09
4.26473e-09
4.23545e-09
0
1.02032e-08
4.20471e-09
4.38759e-09
4.37983e-09
4.32404e-09
4.29955e-09
4.33519e-09
4.27064e-09
9.8574e-09
3.93022e-09
8.8541e-09
4.34734e-09
1.34946e-08
5.14461e-09
3.38922e-09
3.89208e-09
4.43124e-09
4.91211e-09
0
1.05576e-08
0
9.51865e-09
4.01656e-09
4.09731e-09
9.68317e-09
4.19861e-09
4.50498e-09
1.07669e-08
4.18179e-09
4.05962e-09
0
4.00065e-09
3.95692e-09
4.17062e-09
0
0
0
4.10701e-09
4.18628e-09
4.17725e-09
4.20615e-09
4.18769e-09
0
4.08721e-09
4.14431e-09
4.16647e-09
4.20708e-09
0
1.34409e-06
2.30678e-07
2.33528e-08
3.99328e-09
4.81523e-09
4.39657e-09
4.64544e-09
0
4.03597e-09
0
3.94008e-09
3.99986e-09
1.03593e-08
4.1291e-09
4.14343e-09
1.01616e-08
4.03794e-09
0
4.13134e-09
4.28258e-09
4.23961e-09
0
0
4.27021e-09
4.22949e-09
4.26837e-09
4.27133e-09
4.35155e-09
4.36174e-09
4.41233e-09
4.40555e-09
1.04121e-08
0
4.30656e-09
1.01455e-08
0
4.1333e-09
3.53293e-09
4.43201e-09
1.18642e-08
4.52779e-09
3.69597e-09
4.58028e-09
5.78849e-09
0
0
9.46424e-09
4.09725e-09
3.95042e-09
4.16101e-09
3.92884e-09
3.84433e-09
4.22434e-09
4.89753e-09
0
4.49036e-09
3.97268e-09
0
4.01856e-09
4.16674e-09
0
4.13527e-09
4.17584e-09
4.15063e-09
4.11229e-09
4.07395e-09
4.08386e-09
4.13269e-09
4.16078e-09
9.84134e-09
3.83139e-09
9.47696e-09
9.66288e-09
9.5008e-09
3.97299e-09
1.3355e-06
1.53495e-07
2.61141e-08
9.40362e-09
4.57898e-09
4.67569e-09
0
4.59192e-09
3.88955e-09
4.06917e-09
0
3.72015e-09
0
4.28044e-09
4.11727e-09
9.97008e-09
4.14758e-09
4.14084e-09
4.17868e-09
4.19753e-09
4.23779e-09
4.21219e-09
4.17885e-09
4.14662e-09
4.16922e-09
1.0069e-08
4.15856e-09
4.25672e-09
4.2902e-09
4.32785e-09
4.36236e-09
4.27884e-09
4.26425e-09
4.2624e-09
4.24504e-09
4.24223e-09
3.99844e-09
9.6818e-09
4.22058e-09
4.49154e-09
4.352e-09
0
3.27722e-09
1.33326e-08
0
3.33993e-09
3.6955e-09
4.10379e-09
4.36307e-09
4.20933e-09
4.3158e-09
3.82944e-09
7.37491e-09
8.03462e-09
0
4.09443e-09
3.65075e-09
3.94005e-09
3.93222e-09
9.66424e-09
3.9499e-09
4.084e-09
0
4.27268e-09
4.25067e-09
4.09635e-09
4.0606e-09
4.13205e-09
1.6853e-08
9.47297e-09
3.73921e-09
4.00419e-09
9.58216e-09
4.02613e-09
0
5.77289e-06
3.19529e-07
2.67331e-08
4.41501e-09
4.66632e-09
0
4.58039e-09
0
4.0467e-09
0
9.33714e-09
3.98289e-09
4.36256e-09
4.12118e-09
1.7303e-08
4.01029e-09
9.75108e-09
4.05376e-09
1.01203e-08
3.95793e-09
4.04111e-09
4.02247e-09
4.10637e-09
1.01776e-08
0
9.83479e-09
4.20125e-09
4.28856e-09
4.23573e-09
4.4326e-09
1.02812e-08
4.18847e-09
4.2617e-09
0
1.00382e-08
1.7484e-08
4.04078e-09
3.94457e-09
4.225e-09
0
1.00834e-08
3.77682e-09
3.86921e-09
5.09784e-09
1.20301e-08
3.78916e-09
3.78515e-09
3.99077e-09
0
0
5.50155e-09
0
3.5967e-09
4.65911e-09
4.85733e-09
9.44994e-09
3.57181e-09
3.81277e-09
7.8526e-09
1.07955e-08
9.22037e-09
3.7845e-09
9.55535e-09
4.18293e-09
4.34088e-09
4.14969e-09
9.70375e-09
4.02e-09
4.13753e-09
9.26415e-09
0
9.65566e-09
0
9.44413e-09
0
1.13782e-06
1.53278e-07
4.83952e-08
9.27447e-09
4.33725e-09
0
0
4.4332e-09
9.72318e-09
9.74572e-09
3.92994e-09
0
4.33949e-09
0
3.99483e-09
4.0904e-09
9.84247e-09
3.93502e-09
9.74508e-09
9.75451e-09
0
1.01043e-08
4.02736e-09
9.8003e-09
4.2092e-09
0
9.99882e-09
4.19744e-09
4.19873e-09
4.29952e-09
0
0
4.32985e-09
4.37877e-09
4.2898e-09
4.28081e-09
4.22814e-09
4.2336e-09
4.3469e-09
4.27435e-09
4.33165e-09
0
1.07789e-08
4.6675e-09
1.12365e-08
4.14564e-09
3.86673e-09
3.72664e-09
9.95997e-09
6.15616e-09
0
3.7093e-09
0
4.46348e-09
4.34e-09
4.1516e-09
9.34355e-09
9.28812e-09
4.02167e-09
9.55873e-09
1.63732e-08
1.63903e-08
1.61758e-08
1.04117e-08
4.04549e-09
3.96461e-09
0
9.65785e-09
9.46893e-09
9.56897e-09
0
3.96479e-09
0
0
4.11246e-09
2.13087e-06
2.22301e-07
2.54845e-08
9.8035e-09
1.19237e-08
1.1964e-08
3.86393e-09
3.69911e-09
0
4.35198e-09
3.88708e-09
9.60179e-09
3.9066e-09
4.06637e-09
9.77428e-09
3.90599e-09
9.8229e-09
9.51851e-09
3.71669e-09
0
4.0784e-09
0
4.0664e-09
4.27982e-09
4.37399e-09
4.15639e-09
4.25722e-09
4.25894e-09
0
1.04446e-08
0
4.25564e-09
4.40694e-09
4.37728e-09
4.29731e-09
4.26227e-09
4.18141e-09
4.3487e-09
4.2819e-09
4.22251e-09
4.2263e-09
4.35999e-09
4.46327e-09
1.06624e-08
4.39546e-09
4.19202e-09
4.06798e-09
4.03258e-09
0
4.72429e-09
5.05846e-09
0
4.07822e-09
4.10951e-09
4.27761e-09
0
3.97199e-09
4.0573e-09
4.11689e-09
0
0
0
0
1.78608e-08
1.70179e-08
8.8436e-09
0
4.18807e-09
4.08915e-09
0
9.60243e-09
9.61184e-09
0
4.06103e-09
3.81383e-09
1.35571e-06
1.31257e-07
4.93026e-08
7.54172e-09
1.43221e-08
5.78196e-09
3.59293e-09
3.93141e-09
4.28314e-09
4.58004e-09
1.00697e-08
3.93524e-09
9.40774e-09
3.96566e-09
3.96141e-09
9.94837e-09
0
0
0
9.82153e-09
1.00599e-08
3.99202e-09
4.13826e-09
0
4.28376e-09
4.28081e-09
4.27608e-09
4.31666e-09
4.15038e-09
0
4.34135e-09
5.05435e-09
3.59312e-09
4.27663e-09
4.36427e-09
1.02918e-08
4.05153e-09
4.11143e-09
4.22305e-09
4.32983e-09
4.41278e-09
4.38159e-09
4.43642e-09
4.38108e-09
4.44183e-09
1.02387e-08
0
4.10403e-09
4.4192e-09
0
0
1.06548e-08
1.01883e-08
3.9703e-09
4.10408e-09
0
0
4.05643e-09
4.03405e-09
4.13503e-09
4.01246e-09
4.06014e-09
1.02061e-08
0
4.37657e-09
4.03931e-09
4.07011e-09
4.01309e-09
4.08447e-09
9.58858e-09
9.89869e-09
4.33837e-09
9.60238e-09
3.66362e-09
9.36772e-09
1.35623e-06
1.33437e-07
6.70187e-08
9.32974e-09
5.04108e-09
1.12996e-08
3.87323e-09
3.9724e-09
1.19493e-08
4.77023e-09
4.03997e-09
3.90595e-09
0
4.01177e-09
0
4.14865e-09
0
9.72248e-09
0
0
0
1.71806e-08
0
4.22393e-09
4.27704e-09
4.22615e-09
4.26547e-09
4.2803e-09
4.24594e-09
4.19304e-09
4.43622e-09
4.28366e-09
4.41176e-09
0
4.36041e-09
4.32761e-09
1.01346e-08
4.03164e-09
4.15693e-09
4.31373e-09
4.38349e-09
4.43099e-09
4.48886e-09
4.49347e-09
1.03512e-08
4.08992e-09
4.0963e-09
4.20774e-09
4.24543e-09
0
4.40028e-09
4.13412e-09
4.17204e-09
4.21416e-09
0
4.11682e-09
4.11801e-09
9.59382e-09
0
4.10763e-09
3.78171e-09
4.46898e-09
0
5.00309e-09
0
0
0
0
0
4.19115e-09
4.29074e-09
0
4.28915e-09
4.08699e-09
3.85194e-09
2.15283e-06
1.97479e-07
3.99503e-08
4.04918e-09
4.46467e-09
9.95135e-09
3.78428e-09
3.44949e-09
1.30899e-08
5.37744e-09
3.9755e-09
3.50159e-09
3.92597e-09
0
4.11e-09
0
4.13272e-09
0
4.13151e-09
4.18647e-09
0
0
0
0
4.29681e-09
4.22756e-09
1.00474e-08
4.15591e-09
1.00148e-08
4.12484e-09
4.30928e-09
4.26007e-09
4.39328e-09
1.05649e-08
4.26692e-09
4.28128e-09
1.01602e-08
0
4.2113e-09
4.28273e-09
4.31681e-09
4.52462e-09
4.57938e-09
4.5338e-09
4.3213e-09
1.7311e-08
4.0089e-09
1.00253e-08
4.14809e-09
4.27253e-09
4.23042e-09
9.96589e-09
0
4.13581e-09
4.2163e-09
4.16283e-09
0
4.12788e-09
4.08531e-09
3.94953e-09
0
3.39935e-09
5.83661e-09
5.03792e-09
3.33859e-09
0
3.91205e-09
4.02052e-09
4.14333e-09
0
9.78676e-09
7.7446e-09
5.22292e-09
3.95653e-09
9.62272e-09
1.33076e-06
3.24441e-07
3.79442e-08
3.46034e-09
4.22328e-09
9.82424e-09
4.28698e-09
4.40779e-09
1.1933e-08
4.7326e-09
4.13132e-09
3.73046e-09
9.44859e-09
0
0
0
0
4.19339e-09
4.19742e-09
4.23884e-09
4.15821e-09
4.20614e-09
0
9.92096e-09
9.97332e-09
4.12487e-09
0
0
9.76436e-09
3.97515e-09
4.19274e-09
4.39632e-09
4.56322e-09
0
4.47914e-09
4.27061e-09
4.21061e-09
4.23676e-09
4.24701e-09
0
4.42051e-09
4.6783e-09
0
4.71537e-09
0
0
4.23131e-09
4.32483e-09
4.29967e-09
4.29472e-09
4.28047e-09
4.20396e-09
4.23302e-09
4.24946e-09
0
4.12197e-09
4.17239e-09
4.16719e-09
0
0
3.83541e-09
4.77598e-09
0
1.23038e-08
9.9519e-09
3.87057e-09
3.96841e-09
0
9.67101e-09
7.10764e-09
6.06889e-09
0
4.10273e-09
4.08677e-09
0
1.32644e-06
1.54826e-07
3.56747e-08
9.80929e-09
4.04877e-09
4.06748e-09
4.45464e-09
4.5404e-09
4.58736e-09
4.37738e-09
4.10556e-09
0
4.14021e-09
4.15159e-09
4.09235e-09
0
4.17962e-09
0
4.20085e-09
9.90684e-09
9.85793e-09
3.91742e-09
1.67973e-08
3.91072e-09
4.08486e-09
0
4.14011e-09
4.05895e-09
9.42896e-09
3.95741e-09
9.69487e-09
4.24992e-09
4.70669e-09
0
0
0
0
4.1814e-09
4.13531e-09
0
9.39653e-09
1.23483e-08
0
0
4.22657e-09
4.22783e-09
4.23178e-09
4.2681e-09
4.24529e-09
1.02263e-08
9.8108e-09
4.12581e-09
4.22708e-09
1.74313e-08
3.97922e-09
9.7361e-09
4.01702e-09
4.08218e-09
4.04488e-09
0
4.16441e-09
4.60851e-09
4.64686e-09
4.62027e-09
4.2424e-09
9.59449e-09
4.0066e-09
4.13967e-09
1.01038e-08
0
4.1619e-09
4.01057e-09
0
0
4.17516e-09
8.39285e-06
9.96647e-08
2.02017e-08
4.25632e-09
1.05507e-08
0
4.32504e-09
4.41619e-09
0
4.50425e-09
4.13428e-09
0
4.24028e-09
0
4.13275e-09
4.17495e-09
4.13094e-09
4.15603e-09
4.16885e-09
9.84045e-09
9.58782e-09
3.84507e-09
4.06303e-09
4.18241e-09
0
9.9181e-09
4.14055e-09
1.7117e-08
9.25636e-09
9.15074e-09
8.78557e-09
3.77398e-09
0
4.98244e-09
9.79646e-09
0
9.52748e-09
0
0
3.88241e-09
3.47886e-09
1.38869e-08
1.21929e-08
3.65058e-09
3.78641e-09
4.00584e-09
4.11044e-09
4.22131e-09
4.21815e-09
0
1.00521e-08
4.09865e-09
4.14649e-09
4.11607e-09
4.14208e-09
9.83833e-09
0
9.82612e-09
9.76364e-09
0
4.18807e-09
4.30239e-09
4.41489e-09
4.39353e-09
1.04082e-08
3.99012e-09
4.1454e-09
4.11392e-09
0
4.12528e-09
4.19328e-09
0
9.69042e-09
0
9.70861e-09
1.82372e-06
2.27014e-07
2.89549e-08
4.63704e-09
0
4.30337e-09
4.17717e-09
0
1.00045e-08
0
1.00197e-08
4.20758e-09
4.22785e-09
4.10809e-09
4.0564e-09
4.06034e-09
4.15454e-09
4.08413e-09
4.14804e-09
4.14948e-09
9.86775e-09
3.9565e-09
4.04807e-09
4.29585e-09
4.39374e-09
4.31948e-09
1.04904e-08
4.02632e-09
3.97295e-09
9.50319e-09
8.64259e-09
8.58194e-09
2.22517e-08
5.34159e-09
4.29318e-09
3.70822e-09
3.98527e-09
3.9559e-09
3.86136e-09
9.81984e-09
4.17061e-09
4.88366e-09
5.01616e-09
1.01549e-08
3.75333e-09
0
3.99113e-09
4.11031e-09
0
4.07771e-09
3.99925e-09
4.08087e-09
4.11365e-09
4.06889e-09
9.83207e-09
4.03241e-09
9.66799e-09
3.88925e-09
3.93132e-09
4.09393e-09
4.29985e-09
4.19866e-09
0
0
4.35176e-09
4.11562e-09
0
4.10748e-09
4.20002e-09
0
4.16497e-09
0
4.01357e-09
0
4.1272e-09
5.77866e-06
2.80846e-07
4.08163e-08
5.77398e-09
0
4.05129e-09
0
9.48585e-09
4.03081e-09
0
4.13403e-09
4.16555e-09
0
4.21695e-09
4.1559e-09
9.96616e-09
0
0
4.15779e-09
4.19461e-09
0
9.79895e-09
3.94837e-09
4.19073e-09
4.38288e-09
4.4935e-09
4.49636e-09
4.32355e-09
4.15842e-09
4.09145e-09
4.10735e-09
4.49212e-09
5.00551e-09
5.09832e-09
4.25441e-09
0
3.9773e-09
4.32839e-09
0
4.31905e-09
1.06294e-08
4.48677e-09
2.87179e-08
0
4.08033e-09
0
4.0649e-09
4.1905e-09
4.12223e-09
0
4.2451e-09
4.027e-09
4.16273e-09
4.21843e-09
9.83369e-09
1.65465e-08
9.49239e-09
3.70179e-09
9.54513e-09
9.32714e-09
4.08454e-09
4.06314e-09
4.23335e-09
0
4.20153e-09
0
0
9.73151e-09
4.02915e-09
4.07918e-09
4.14469e-09
4.21315e-09
3.92218e-09
3.93426e-09
4.02098e-09
3.51312e-06
1.66634e-07
2.94665e-08
1.19347e-08
4.74286e-09
0
3.57045e-09
9.70029e-09
4.00978e-09
0
4.0691e-09
9.95083e-09
4.17214e-09
4.23122e-09
4.0505e-09
0
4.1211e-09
0
9.60972e-09
0
4.09451e-09
1.69292e-08
0
4.0777e-09
4.50243e-09
0
4.68399e-09
0
4.02807e-09
3.97738e-09
4.09627e-09
0
4.59521e-09
0
4.57703e-09
0
1.016e-08
0
0
4.5547e-09
0
0
4.59053e-09
0
0
4.25983e-09
4.1147e-09
0
4.23585e-09
4.15264e-09
1.00183e-08
0
0
0
0
9.82152e-09
9.89565e-09
9.86311e-09
1.696e-08
4.04809e-09
4.18322e-09
0
4.11389e-09
0
9.81849e-09
0
4.34231e-09
0
1.00406e-08
4.04177e-09
4.09339e-09
4.2777e-09
0
3.79728e-09
4.08218e-09
2.99603e-06
1.12365e-07
3.83622e-08
4.13875e-09
1.04339e-08
4.15881e-09
3.98547e-09
4.19458e-09
0
9.55271e-09
9.62528e-09
0
9.91851e-09
4.02481e-09
4.09412e-09
4.15474e-09
4.17125e-09
0
9.94375e-09
3.86356e-09
3.87011e-09
3.9826e-09
3.87443e-09
3.76052e-09
0
4.99341e-09
0
1.09245e-08
3.68934e-09
3.78877e-09
0
0
0
4.53012e-09
4.49719e-09
1.0271e-08
4.16538e-09
4.33749e-09
0
1.04058e-08
0
4.50518e-09
4.34466e-09
4.292e-09
1.00912e-08
4.28784e-09
4.25716e-09
0
4.34115e-09
4.20018e-09
0
9.81643e-09
1.6923e-08
9.50541e-09
9.61859e-09
4.15059e-09
4.15e-09
9.85268e-09
9.85677e-09
9.54466e-09
0
4.15136e-09
4.2082e-09
0
3.99419e-09
0
1.03029e-08
0
9.60009e-09
9.98628e-09
3.96528e-09
0
6.61787e-09
6.39546e-09
4.03019e-09
7.47692e-07
3.12697e-07
5.40847e-08
3.80736e-09
4.6048e-09
0
4.14274e-09
4.16115e-09
9.87956e-09
0
4.10937e-09
9.82952e-09
3.88607e-09
1.02765e-08
0
9.98144e-09
4.10619e-09
3.83083e-09
4.07666e-09
4.11451e-09
4.01878e-09
0
4.07638e-09
3.68695e-09
1.01163e-08
1.4086e-08
0
4.716e-09
3.62583e-09
3.59872e-09
0
4.04792e-09
0
0
4.36103e-09
0
4.33739e-09
4.37901e-09
1.01362e-08
4.45248e-09
4.40498e-09
4.43888e-09
0
0
0
0
4.20794e-09
4.19353e-09
4.04076e-09
9.81648e-09
1.66468e-08
1.64703e-08
9.15301e-09
3.73298e-09
0
1.7395e-08
4.05855e-09
4.10937e-09
9.75431e-09
9.63416e-09
4.04639e-09
4.14733e-09
4.13455e-09
4.17322e-09
0
3.99697e-09
0
9.92954e-09
4.07843e-09
4.23733e-09
4.08306e-09
9.26302e-09
9.39095e-09
4.01317e-09
4.09083e-09
5.24585e-06
4.06489e-07
2.82265e-08
3.86419e-09
0
3.96957e-09
3.84065e-09
4.05251e-09
4.19011e-09
9.84793e-09
9.70804e-09
4.00484e-09
3.94806e-09
4.24165e-09
4.23699e-09
9.99788e-09
1.00011e-08
0
4.07203e-09
4.09156e-09
4.06381e-09
4.11795e-09
3.99502e-09
3.63115e-09
0
0
0
4.74491e-09
0
8.71806e-09
3.50899e-09
3.73528e-09
4.30456e-09
1.03024e-08
1.05264e-08
1.01011e-08
3.81477e-09
1.02641e-08
0
4.12691e-09
1.05294e-08
1.03047e-08
1.04073e-08
1.03736e-08
1.01294e-08
1.65023e-08
9.22159e-09
3.92929e-09
4.07227e-09
3.94936e-09
3.95837e-09
4.01605e-09
3.92017e-09
4.17207e-09
4.24975e-09
4.27985e-09
4.41644e-09
0
4.15968e-09
0
0
4.15075e-09
9.60665e-09
9.5761e-09
4.01857e-09
4.29478e-09
9.96565e-09
9.98843e-09
4.17164e-09
1.0166e-08
9.49651e-09
9.16781e-09
3.71433e-09
3.94345e-09
9.49729e-09
1.69046e-06
1.60192e-07
7.09852e-08
3.30182e-09
4.24212e-09
9.65221e-09
3.88396e-09
4.02954e-09
9.7863e-09
4.01791e-09
9.6008e-09
3.92447e-09
4.12617e-09
0
4.22817e-09
4.17068e-09
4.22665e-09
4.10056e-09
9.71215e-09
3.97077e-09
0
9.78218e-09
3.98431e-09
9.7708e-09
4.68784e-09
0
4.92595e-09
1.06138e-08
0
3.6779e-09
3.83627e-09
4.10539e-09
4.3164e-09
1.03141e-08
4.10736e-09
4.26527e-09
1.00183e-08
0
9.98694e-09
8.1063e-09
5.44134e-09
1.05318e-08
4.72436e-09
1.16542e-08
4.00351e-09
3.64862e-09
3.71562e-09
9.76858e-09
0
4.10839e-09
3.87167e-09
0
4.03976e-09
4.34083e-09
0
4.43271e-09
0
4.35799e-09
4.48587e-09
0
3.87271e-09
0
3.98211e-09
9.70954e-09
4.13564e-09
4.31833e-09
4.34266e-09
0
0
1.01287e-08
0
0
3.70591e-09
9.0509e-09
3.70688e-09
1.19395e-06
1.36684e-07
4.12802e-08
3.66827e-09
9.52548e-09
4.68549e-09
8.84475e-09
3.89721e-09
3.99005e-09
4.09331e-09
0
4.03312e-09
0
4.14922e-09
4.19151e-09
4.14848e-09
4.09223e-09
4.26943e-09
4.11352e-09
4.1417e-09
0
4.208e-09
4.15734e-09
4.22813e-09
4.56103e-09
0
4.55294e-09
4.20436e-09
3.7698e-09
3.92463e-09
4.1573e-09
4.13295e-09
4.28439e-09
4.29971e-09
0
1.02474e-08
4.25681e-09
4.31505e-09
4.32278e-09
4.23928e-09
0
4.26761e-09
0
0
4.68911e-09
4.27275e-09
1.01243e-08
4.23099e-09
9.92616e-09
3.89179e-09
9.92201e-09
3.94016e-09
3.81317e-09
4.58296e-09
0
0
0
4.42371e-09
4.43209e-09
4.25226e-09
3.8161e-09
3.87698e-09
0
3.88256e-09
4.27493e-09
4.45311e-09
4.28449e-09
1.01556e-08
4.02769e-09
9.76712e-09
1.65536e-08
1.49541e-08
1.56238e-08
0
3.49426e-09
1.55324e-06
1.31264e-07
3.71092e-08
3.57192e-09
8.97355e-09
3.85858e-09
3.87277e-09
3.96868e-09
0
4.065e-09
0
0
0
4.15317e-09
9.82642e-09
4.01424e-09
4.02397e-09
9.81126e-09
4.15288e-09
0
4.23692e-09
4.22929e-09
4.2204e-09
1.00524e-08
4.22648e-09
1.01467e-08
4.29028e-09
1.03286e-08
3.98354e-09
4.10747e-09
4.21561e-09
0
0
0
4.3017e-09
0
4.28085e-09
0
1.0068e-08
4.28033e-09
4.34298e-09
4.14049e-09
4.28897e-09
4.44627e-09
1.17979e-08
5.10211e-09
0
0
0
4.18337e-09
0
4.0921e-09
4.12945e-09
0
4.32905e-09
0
4.40029e-09
1.05389e-08
1.05061e-08
4.42693e-09
4.12576e-09
9.22006e-09
3.73e-09
0
4.02335e-09
4.39868e-09
4.25908e-09
4.24783e-09
0
0
3.93974e-09
8.51676e-09
8.38216e-09
1.54423e-08
3.5548e-09
1.59257e-05
2.35012e-07
3.92767e-08
8.76938e-09
9.12932e-09
3.85879e-09
3.96172e-09
0
4.04245e-09
0
0
0
4.13104e-09
1.00086e-08
4.09495e-09
4.14465e-09
4.11805e-09
0
4.24745e-09
4.23672e-09
4.169e-09
4.16933e-09
9.97082e-09
0
4.24703e-09
4.31968e-09
1.00631e-08
4.1671e-09
4.171e-09
4.18439e-09
0
4.19524e-09
0
0
9.95752e-09
4.24983e-09
0
1.0013e-08
0
4.31815e-09
4.21555e-09
0
3.7932e-09
9.04203e-09
4.30129e-09
0
0
4.52824e-09
4.47029e-09
0
0
0
4.22782e-09
4.43056e-09
4.50881e-09
4.41689e-09
0
0
4.40727e-09
1.00781e-08
3.87252e-09
3.98014e-09
9.42641e-09
9.41155e-09
0
0
4.23433e-09
4.23233e-09
1.04326e-08
4.05411e-09
3.8453e-09
3.57969e-09
3.74039e-09
3.99753e-09
4.02872e-09
7.00993e-06
2.39421e-07
1.30481e-08
0
3.66493e-09
9.34078e-09
3.80653e-09
3.98211e-09
0
4.01871e-09
0
4.07772e-09
4.11174e-09
0
4.19612e-09
4.23024e-09
4.20704e-09
4.18778e-09
4.1455e-09
4.21002e-09
1.02993e-08
4.09329e-09
9.91095e-09
3.97134e-09
9.91424e-09
1.02742e-08
3.95937e-09
4.16225e-09
4.28079e-09
1.00778e-08
4.12333e-09
4.19588e-09
0
1.00184e-08
4.22126e-09
4.11568e-09
9.93401e-09
4.20262e-09
4.18679e-09
4.2327e-09
4.27193e-09
0
9.76805e-09
3.93545e-09
0
4.4754e-09
4.5485e-09
4.48397e-09
4.46728e-09
4.43167e-09
4.29343e-09
4.24678e-09
4.14962e-09
4.35259e-09
4.34959e-09
0
1.0481e-08
4.36638e-09
4.27334e-09
4.36962e-09
9.64778e-09
4.09728e-09
4.02064e-09
3.95927e-09
4.01595e-09
9.86187e-09
4.15359e-09
0
0
4.00666e-09
9.43437e-09
3.68975e-09
3.84869e-09
0
4.38943e-09
4.8422e-06
1.45675e-07
5.84845e-09
3.28951e-09
3.70853e-09
3.87205e-09
4.02713e-09
4.13534e-09
4.08777e-09
0
9.96128e-09
4.09859e-09
4.11388e-09
0
0
1.00265e-08
4.01986e-09
9.98722e-09
3.91318e-09
0
4.08932e-09
4.11212e-09
4.11093e-09
4.22357e-09
1.00388e-08
4.20131e-09
4.19941e-09
9.92606e-09
4.11474e-09
4.09236e-09
4.2126e-09
4.11677e-09
1.75124e-08
3.97893e-09
4.20436e-09
4.16078e-09
4.23284e-09
9.81864e-09
0
9.802e-09
9.61766e-09
3.97903e-09
0
4.1695e-09
0
4.35115e-09
4.44526e-09
4.36061e-09
4.38951e-09
4.28602e-09
1.02474e-08
4.06824e-09
0
4.3734e-09
4.42285e-09
0
4.41745e-09
1.03924e-08
4.27373e-09
0
9.88839e-09
4.14225e-09
0
4.07887e-09
0
0
4.26935e-09
4.5048e-09
4.34881e-09
4.09286e-09
9.10919e-09
3.71062e-09
4.21817e-09
0
0
1.37675e-06
1.71289e-07
3.0502e-08
3.26174e-09
3.76724e-09
3.98429e-09
4.0681e-09
4.12503e-09
3.98222e-09
3.9855e-09
4.06837e-09
0
4.00233e-09
3.99803e-09
9.96225e-09
9.82952e-09
4.07374e-09
3.96894e-09
4.01e-09
9.76152e-09
4.24693e-09
4.15155e-09
1.02112e-08
4.12303e-09
4.12248e-09
4.19184e-09
1.00358e-08
1.00467e-08
3.97759e-09
4.09927e-09
1.01491e-08
4.10889e-09
4.27594e-09
9.97e-09
3.99237e-09
4.16201e-09
4.25829e-09
0
4.25142e-09
4.25084e-09
0
4.16965e-09
0
4.14929e-09
4.25732e-09
4.30622e-09
4.33041e-09
4.27781e-09
1.06069e-08
0
4.16923e-09
0
0
1.00966e-08
1.09644e-08
1.10531e-08
4.35377e-09
4.17195e-09
1.01867e-08
4.06289e-09
0
4.49235e-09
0
9.31136e-09
1.66608e-08
3.83123e-09
3.90989e-09
4.26183e-09
1.06024e-08
3.82668e-09
3.84712e-09
0
4.07639e-09
4.40183e-09
0
6.76124e-05
8.35738e-08
9.73599e-09
3.2591e-09
3.72345e-09
3.89434e-09
4.0168e-09
4.04767e-09
4.00623e-09
0
0
4.15937e-09
9.93411e-09
9.81509e-09
4.13489e-09
4.17552e-09
4.11462e-09
4.03024e-09
4.12906e-09
4.1223e-09
4.17694e-09
4.15807e-09
4.18708e-09
4.21451e-09
1.0077e-08
3.97119e-09
4.17243e-09
1.01191e-08
4.10748e-09
9.93858e-09
4.17884e-09
4.18443e-09
4.20943e-09
4.18076e-09
4.1308e-09
4.22549e-09
4.27017e-09
4.30694e-09
4.26253e-09
4.13612e-09
0
4.20712e-09
4.26969e-09
4.22293e-09
4.22375e-09
4.25804e-09
4.26404e-09
4.21021e-09
4.25264e-09
4.19569e-09
4.14964e-09
0
0
4.43383e-09
0
5.06085e-09
1.04036e-08
3.99215e-09
3.99976e-09
4.14576e-09
4.17938e-09
4.38605e-09
0
4.08966e-09
3.91986e-09
1.60435e-08
3.87982e-09
4.19162e-09
4.00367e-09
3.68448e-09
3.93213e-09
4.03409e-09
0
9.7406e-09
9.78302e-09
1.59746e-05
1.43295e-07
1.16554e-08
4.71612e-09
1.01444e-08
3.99584e-09
4.07481e-09
4.12944e-09
4.04853e-09
4.129e-09
4.15987e-09
1.00478e-08
0
4.14188e-09
0
4.17735e-09
0
4.16048e-09
4.20803e-09
4.20395e-09
9.95623e-09
3.9842e-09
9.92478e-09
4.02789e-09
4.16738e-09
4.15453e-09
4.19012e-09
4.24763e-09
4.2005e-09
4.24697e-09
4.29154e-09
4.28883e-09
1.02461e-08
4.22535e-09
0
4.25959e-09
4.28444e-09
4.31849e-09
1.02234e-08
4.13708e-09
4.19464e-09
0
4.21076e-09
4.2364e-09
0
4.25591e-09
0
1.00038e-08
9.8593e-09
9.60793e-09
3.92494e-09
0
3.95484e-09
3.30488e-09
1.33263e-08
5.07464e-09
2.77989e-09
9.11834e-09
3.85184e-09
4.0642e-09
0
0
4.34901e-09
1.01049e-08
4.03764e-09
4.12256e-09
9.58659e-09
3.84673e-09
4.24634e-09
0
4.07945e-09
0
1.65353e-08
4.04014e-09
0
5.31729e-06
1.16905e-07
1.10277e-08
0
0
1.02005e-08
1.0099e-08
3.9326e-09
4.1429e-09
4.18073e-09
1.01181e-08
4.12433e-09
4.0613e-09
0
4.21406e-09
0
0
4.20026e-09
0
4.19071e-09
4.06221e-09
9.77856e-09
4.10661e-09
4.08994e-09
4.21147e-09
4.22965e-09
4.25714e-09
4.27139e-09
4.26503e-09
1.01955e-08
4.22042e-09
4.22702e-09
4.26774e-09
4.21388e-09
4.18269e-09
4.14425e-09
4.22589e-09
4.2213e-09
4.22284e-09
4.22863e-09
4.22123e-09
4.27118e-09
4.25773e-09
4.22636e-09
0
4.31402e-09
0
4.20046e-09
4.16506e-09
4.10875e-09
4.05491e-09
0
9.503e-09
4.2642e-09
5.47243e-09
5.67364e-09
0
0
0
0
4.1905e-09
4.39654e-09
4.38072e-09
4.36887e-09
4.33874e-09
4.29163e-09
4.19587e-09
3.97256e-09
4.20855e-09
4.16058e-09
9.76827e-09
9.76126e-09
3.96328e-09
4.23457e-09
0
2.99562e-06
1.56562e-07
1.09668e-08
4.88662e-09
4.56514e-09
0
4.26266e-09
4.27483e-09
9.9975e-09
4.1143e-09
4.18778e-09
4.20976e-09
1.00411e-08
4.00486e-09
3.9725e-09
4.03619e-09
4.18908e-09
4.19031e-09
0
9.908e-09
9.59166e-09
0
4.10506e-09
4.06785e-09
3.99444e-09
0
4.12386e-09
4.18452e-09
4.29118e-09
4.27421e-09
4.27255e-09
4.40509e-09
0
4.26123e-09
1.01676e-08
4.34675e-09
0
4.24846e-09
4.2213e-09
9.89357e-09
4.13182e-09
4.20543e-09
4.24089e-09
1.01437e-08
0
4.26705e-09
0
4.23169e-09
4.16082e-09
0
9.88349e-09
3.95858e-09
4.2036e-09
4.28712e-09
1.06987e-08
4.80373e-09
4.5626e-09
4.10967e-09
4.08386e-09
0
4.08858e-09
4.08885e-09
1.03096e-08
1.0844e-08
0
0
4.20833e-09
4.13626e-09
4.23499e-09
0
4.20711e-09
4.22898e-09
0
0
9.69167e-09
6.76575e-05
1.21333e-07
9.35566e-09
1.12374e-08
4.4334e-09
4.43001e-09
1.03165e-08
6.19904e-09
7.79525e-09
4.18065e-09
4.21759e-09
4.19746e-09
4.09734e-09
9.86197e-09
4.05302e-09
4.06478e-09
9.84771e-09
9.62917e-09
1.00521e-08
0
0
9.49033e-09
4.01352e-09
0
0
9.60979e-09
4.0764e-09
4.29443e-09
4.32812e-09
0
4.40594e-09
0
0
4.29053e-09
4.17945e-09
4.24213e-09
1.03815e-08
0
1.00972e-08
4.09266e-09
9.95017e-09
9.9594e-09
4.03152e-09
4.22005e-09
4.11138e-09
0
0
9.88933e-09
0
4.23005e-09
4.03667e-09
4.00343e-09
0
0
4.41421e-09
0
1.03004e-08
4.16649e-09
9.69804e-09
4.0502e-09
4.01023e-09
3.92594e-09
0
0
1.27197e-08
1.07058e-08
4.10272e-09
4.06377e-09
4.12236e-09
4.15484e-09
4.16706e-09
4.11e-09
4.10751e-09
4.21284e-09
9.76391e-09
1.01084e-06
1.7034e-07
1.3578e-08
4.33553e-09
4.47294e-09
4.40369e-09
0
4.38488e-09
4.36002e-09
1.0305e-08
0
4.29371e-09
9.99532e-09
4.00384e-09
1.71016e-08
4.03897e-09
9.82301e-09
0
4.04897e-09
4.1472e-09
0
4.1044e-09
4.05313e-09
0
4.23381e-09
0
4.13391e-09
0
4.34805e-09
4.37018e-09
0
4.55529e-09
4.37394e-09
4.08433e-09
0
4.18525e-09
4.41947e-09
4.35017e-09
4.28263e-09
4.29158e-09
4.24919e-09
9.81218e-09
9.82224e-09
4.0942e-09
4.13226e-09
4.22231e-09
4.14343e-09
0
4.26588e-09
0
4.23249e-09
4.24556e-09
4.30983e-09
4.36061e-09
4.31126e-09
0
4.2492e-09
4.16538e-09
4.14696e-09
4.07778e-09
9.3836e-09
3.79365e-09
9.38046e-09
6.09872e-09
5.16499e-09
8.67763e-09
3.36381e-09
8.8518e-09
3.99437e-09
4.12816e-09
1.50818e-10
1.62682e-08
3.87926e-09
9.6062e-09
0
6.95265e-06
1.07216e-07
2.91403e-08
4.09825e-09
4.42087e-09
0
0
4.36067e-09
0
0
4.24763e-09
4.30836e-09
0
0
0
4.28809e-09
1.01644e-08
4.02216e-09
4.04989e-09
9.98118e-09
3.77677e-09
9.53185e-09
0
3.92956e-09
4.20869e-09
0
4.30242e-09
0
4.40585e-09
4.35629e-09
0
4.51246e-09
1.02499e-08
4.20785e-09
4.1524e-09
4.24991e-09
0
4.31565e-09
4.26902e-09
4.27003e-09
0
1.00716e-08
4.15764e-09
4.24535e-09
9.98502e-09
4.09905e-09
4.14461e-09
4.18773e-09
0
9.93859e-09
4.10175e-09
4.17398e-09
4.34669e-09
4.3386e-09
4.22737e-09
0
4.30166e-09
4.19554e-09
4.16269e-09
9.73626e-09
3.76686e-09
3.63815e-09
4.06481e-09
0
5.82341e-09
1.04259e-08
3.72123e-09
3.85679e-09
6.91994e-09
6.47708e-09
4.17431e-09
9.8591e-09
3.76012e-09
3.8116e-09
4.02574e-09
1.57354e-06
2.36083e-07
1.9437e-08
3.92235e-09
4.38339e-09
0
4.2571e-09
0
4.28296e-09
4.19306e-09
0
4.24027e-09
5.85747e-09
8.15302e-09
1.01668e-08
3.92813e-09
4.18561e-09
4.20624e-09
4.06729e-09
3.94351e-09
3.77777e-09
3.69253e-09
9.28668e-09
1.66272e-08
3.90994e-09
4.08682e-09
4.23177e-09
4.09184e-09
4.29953e-09
4.78375e-09
4.74861e-09
4.37381e-09
4.16426e-09
4.25926e-09
0
4.20702e-09
0
4.27127e-09
4.18157e-09
4.21459e-09
4.24279e-09
4.25227e-09
4.23846e-09
1.02526e-08
4.04742e-09
9.98186e-09
3.98406e-09
4.19812e-09
4.05043e-09
4.04288e-09
1.00062e-08
3.93776e-09
1.03158e-08
4.01555e-09
4.01749e-09
0
4.26074e-09
4.22122e-09
4.04075e-09
3.98802e-09
3.98481e-09
3.9612e-09
4.2785e-09
4.9252e-09
5.06931e-09
4.61761e-09
4.17348e-09
3.96208e-09
4.0326e-09
4.14448e-09
4.22587e-09
4.35273e-09
9.36453e-09
3.78027e-09
3.67931e-09
1.00576e-06
5.35179e-07
1.77726e-08
0
4.36098e-09
4.35329e-09
4.31734e-09
0
1.02786e-08
4.19497e-09
4.22221e-09
0
4.19736e-09
4.09431e-09
0
9.6961e-09
4.05988e-09
4.26577e-09
1.75527e-08
4.13379e-09
3.76496e-09
4.05065e-09
0
0
1.73042e-08
9.3233e-09
3.96858e-09
9.96416e-09
4.42133e-09
5.54736e-09
5.48449e-09
9.9727e-09
4.0667e-09
9.94623e-09
4.13874e-09
9.85703e-09
4.00593e-09
4.13505e-09
4.286e-09
0
4.28999e-09
4.13641e-09
0
4.24114e-09
4.10139e-09
4.09229e-09
4.14736e-09
4.13005e-09
4.27277e-09
4.14201e-09
4.14702e-09
0
0
1.0015e-08
4.06721e-09
4.20293e-09
9.82505e-09
4.11732e-09
9.60878e-09
3.86791e-09
0
0
9.39141e-09
1.10039e-08
1.20181e-08
4.73628e-09
1.01224e-08
3.51701e-09
9.58486e-09
4.0092e-09
4.08916e-09
4.13731e-09
3.92684e-09
3.77051e-09
3.66211e-09
1.81063e-06
3.18554e-07
1.89242e-08
4.13607e-09
4.30878e-09
4.25134e-09
4.25568e-09
4.33669e-09
1.02117e-08
0
4.22207e-09
9.92328e-09
3.95472e-09
3.89784e-09
3.96592e-09
0
9.79589e-09
9.98016e-09
4.28143e-09
4.27687e-09
4.11497e-09
3.96002e-09
0
3.93229e-09
0