/*--------------------------------*- C++ -*----------------------------------*\
  =========                 |
  \\      /  F ield         | OpenFOAM: The Open Source CFD Toolbox
   \\    /   O peration     | Website:  https://openfoam.org
    \\  /    A nd           | Version:  12
     \\/     M anipulation  |
\*---------------------------------------------------------------------------*/
FoamFile
{
    format      ascii;
    class       volScalarField;
    location    "1";
    object      p;
}
// * * * * * * * * * * * * * * * * * * * * * * * * * * * * * * * * * * * * * //

dimensions      [0 2 -2 0 0 0 0];

internalField   nonuniform List<scalar> 
3750
(
1.09546
1.3451
-0.794844
-1.19783
-1.09527
-1.04057
-1.00511
-0.978151
-0.957259
-0.942375
-0.929699
-0.922818
-0.919686
-0.916572
-0.913824
-0.914422
-0.918426
-0.924018
-0.933096
-0.945592
-0.960674
-0.978873
-1.0022
-1.03318
-1.07765
-1.14343
-1.23412
-1.3285
-1.20676
-0.601715
-0.510965
-0.666903
-0.817113
-0.752642
-0.145063
-0.0165198
-0.104441
-0.179976
-0.220057
-0.230306
-0.218495
-0.194067
-0.163494
-0.122565
-0.0554322
0.055577
0.187435
0.28927
0.340348
0.359742
0.364246
0.362861
0.359742
0.35635
0.352032
0.345983
0.336545
0.322849
0.30848
0.287515
0.258909
0.3133
0.27676
0.250378
0.235531
0.214094
0.19204
0.169131
0.146379
0.117928
0.0892243
0.0583772
0.0262798
-0.00739962
-0.0425154
-0.127389
0.434362
-0.595654
-1.02636
-1.05103
-1.02639
-0.996786
-0.971538
-0.951444
-0.937601
-0.926175
-0.920841
-0.917601
-0.913031
-0.912175
-0.912168
-0.915022
-0.921294
-0.930084
-0.941768
-0.957146
-0.974793
-0.995378
-1.01749
-1.05636
-1.11655
-1.21024
-1.42149
-1.51664
-0.267922
-0.388344
-0.671976
-0.960122
-1.07392
0.162176
0.0755837
-0.13717
-0.216713
-0.252232
-0.251995
-0.231408
-0.199828
-0.174331
-0.148374
-0.10015
0.026191
0.224727
0.340416
0.371661
0.374608
0.370129
0.364595
0.3601
0.3571
0.353825
0.349252
0.341014
0.328048
0.310667
0.294129
0.277502
0.289882
0.269192
0.249391
0.233099
0.213606
0.19428
0.173739
0.1459
0.11914
0.0885843
0.0594858
0.027827
-0.00607145
-0.0417502
-0.944072
-1.33672
-0.972458
-0.99648
-1.02421
-1.00901
-0.983985
-0.959846
-0.9399
-0.92889
-0.92039
-0.915453
-0.913961
-0.912564
-0.910805
-0.90673
-0.908067
-0.915507
-0.924038
-0.93671
-0.951059
-0.97061
-0.985434
-0.988079
-1.01583
-1.05981
-1.11697
-1.18508
-1.0951
-0.649206
-0.57502
-0.674506
-0.782269
-0.705627
-0.265584
-0.1746
-0.241463
-0.297449
-0.319187
-0.293911
-0.244919
-0.200501
-0.185619
-0.195437
-0.220239
-0.104086
0.392618
0.476035
0.430873
0.396833
0.376491
0.365042
0.358842
0.357629
0.357809
0.357821
0.351268
0.337509
0.320289
0.300851
0.280823
0.277405
0.261859
0.245792
0.230901
0.214886
0.196484
0.176654
0.153329
0.125649
0.0953868
0.0641462
0.0309577
-0.00301248
-0.0397288
-1.28434
-1.42953
-1.20198
-1.08731
-1.0404
-1.00625
-0.971368
-0.936033
-0.917997
-0.91336
-0.911332
-0.906467
-0.912327
-0.906855
-0.902652
-0.896934
-0.898617
-0.907491
-0.91464
-0.926665
-0.933857
-0.952072
-0.971972
-0.94897
-0.971852
-0.989393
-1.00946
-1.00243
-0.907444
-0.773037
-0.683151
-0.677903
-0.675054
-0.594755
-0.457811
-0.36951
-0.377557
-0.412735
-0.43401
-0.362415
-0.245391
-0.166515
-0.173216
-0.223911
-0.396187
-0.470077
0.746979
0.657905
0.473184
0.405227
0.374127
0.359969
0.352707
0.353828
0.362007
0.369909
0.367576
0.352756
0.331642
0.305908
0.283955
0.26878
0.254971
0.24248
0.229696
0.215713
0.200971
0.181517
0.159423
0.13376
0.104434
0.0721985
0.0379328
0.00181647
-0.0363331
-1.233
-1.26683
-1.19989
-1.11237
-1.05159
-1.00201
-0.954747
-0.906259
-0.885322
-0.891505
-0.897286
-0.905227
-0.910937
-0.903313
-0.896874
-0.891366
-0.890365
-0.896299
-0.90035
-0.911802
-0.908205
-0.914691
-0.963062
-0.880484
-0.918193
-0.923739
-0.921683
-0.900859
-0.840949
-0.774136
-0.715737
-0.675205
-0.640278
-0.585854
-0.529531
-0.488582
-0.493852
-0.54498
-0.62671
-0.541355
-0.121983
-0.0534926
-0.13245
-0.180094
-0.21914
-0.0743782
0.354532
0.472019
0.420839
0.379853
0.36162
0.348149
0.338766
0.343674
0.365631
0.393093
0.397018
0.377441
0.345669
0.306242
0.277105
0.256738
0.247535
0.238261
0.231033
0.222391
0.208776
0.19115
0.169709
0.143613
0.114724
0.0821184
0.0466371
0.00871166
-0.0309087
-1.19987
-1.20398
-1.16556
-1.1091
-1.04495
-0.980431
-0.919677
-0.849489
-0.822008
-0.837704
-0.896374
-0.920692
-0.923128
-0.904592
-0.889374
-0.881376
-0.878154
-0.879728
-0.882692
-0.889232
-0.884443
-0.891886
-0.893393
-0.876977
-0.878252
-0.86692
-0.856476
-0.836268
-0.795988
-0.749781
-0.705082
-0.667626
-0.63512
-0.600053
-0.567449
-0.550325
-0.563885
-0.641045
-0.861812
-0.981086
0.178977
0.0562158
-0.144817
-0.143924
-0.0470295
0.134636
0.251223
0.333995
0.340701
0.339506
0.341249
0.332898
0.30637
0.299346
0.368756
0.445036
0.445089
0.413952
0.366054
0.301305
0.26118
0.24201
0.237829
0.236977
0.232505
0.229451
0.220292
0.20521
0.184361
0.159209
0.129157
0.0950378
0.0574327
0.017327
-0.0239482
-1.1864
-1.18693
-1.14829
-1.1024
-1.03377
-0.950783
-0.911103
-0.75555
-0.727305
-0.77836
-0.890514
-0.969164
-0.933093
-0.89635
-0.877389
-0.866136
-0.862178
-0.861646
-0.862411
-0.864639
-0.862246
-0.864083
-0.862118
-0.847757
-0.840107
-0.827878
-0.812855
-0.790378
-0.759213
-0.722124
-0.686693
-0.657177
-0.629869
-0.607615
-0.589796
-0.581992
-0.590439
-0.639709
-0.706981
-0.635735
-0.250506
-0.191686
-0.32233
-0.26504
0.138716
0.285552
0.262089
0.262428
0.267671
0.293966
0.329999
0.345265
0.273187
0.0619091
0.448667
0.56952
0.519894
0.468348
0.403166
0.272987
0.225748
0.217138
0.221529
0.233212
0.239932
0.245142
0.238113
0.22338
0.203611
0.177264
0.146392
0.109553
0.0706249
0.0272022
-0.0167602
-1.15302
-1.16107
-1.1328
-1.09673
-1.0206
-0.934452
-0.848231
-0.722378
-0.63269
-0.734926
-0.873086
-0.976445
-0.925489
-0.878035
-0.857622
-0.848497
-0.843263
-0.841032
-0.840687
-0.839726
-0.840106
-0.838775
-0.831901
-0.818814
-0.807348
-0.797092
-0.777117
-0.754283
-0.729089
-0.693768
-0.660071
-0.639284
-0.627437
-0.614438
-0.601706
-0.590878
-0.584681
-0.592011
-0.58677
-0.507359
-0.405191
-0.386693
-0.563332
-0.661206
0.502771
0.425693
0.24475
0.183655
0.166538
0.232467
0.360259
0.448105
0.553452
-0.664709
0.75135
0.737905
0.584389
0.538167
0.495895
0.167195
0.151841
0.176838
0.20137
0.22957
0.252222
0.267206
0.26095
0.248677
0.227622
0.200946
0.168314
0.129592
0.0866056
0.0387083
-0.00986866
-1.15246
-1.18223
-1.14562
-1.1009
-1.01425
-0.913735
-0.818771
-0.723837
-0.657088
-0.702247
-0.818925
-0.883767
-0.864282
-0.839762
-0.827195
-0.821582
-0.819916
-0.818372
-0.82244
-0.811872
-0.819922
-0.810077
-0.801324
-0.796965
-0.781472
-0.770657
-0.748424
-0.723955
-0.699517
-0.667118
-0.624048
-0.613121
-0.626715
-0.622615
-0.608737
-0.589126
-0.572031
-0.55562
-0.527662
-0.475748
-0.435696
-0.413011
-0.444023
-0.322533
0.10077
0.213616
0.142174
0.0652492
-0.0147896
0.0533099
0.458081
0.518865
0.380674
0.117819
0.490507
0.599328
0.568396
0.612739
0.877762
-0.24886
0.0353196
0.137027
0.183396
0.221491
0.283699
0.29731
0.293089
0.279578
0.257777
0.231449
0.19678
0.154437
0.107463
0.0534261
-0.00686655
-1.13394
-1.11811
-1.15233
-1.13983
-1.02992
-0.886434
-0.760065
-0.712167
-0.687637
-0.700357
-0.750086
-0.775361
-0.792457
-0.789789
-0.789885
-0.790297
-0.792163
-0.794942
-0.798219
-0.797564
-0.796297
-0.789631
-0.779556
-0.77528
-0.768938
-0.748619
-0.722052
-0.698425
-0.664383
-0.627958
-0.571471
-0.565426
-0.642882
-0.641609
-0.618878
-0.588531
-0.558812
-0.53112
-0.491287
-0.450947
-0.409586
-0.367885
-0.312735
-0.18345
-0.040898
0.052404
0.0397464
-0.0354315
-0.238989
-0.345693
0.802529
0.687211
0.450409
0.349978
0.397512
0.467588
0.47195
0.468621
0.436288
0.115397
0.104568
0.145347
0.195343
0.201776
0.357431
0.33558
0.334159
0.319218
0.295243
0.264752
0.229005
0.185249
0.135319
0.0788763
0.0101411
-1.13613
-1.16777
-1.2063
-1.25896
-1.14917
-0.739902
-0.625004
-0.681213
-0.691005
-0.682431
-0.674258
-0.697072
-0.720277
-0.737036
-0.749491
-0.759673
-0.767725
-0.771617
-0.776685
-0.779278
-0.776836
-0.770688
-0.763625
-0.756865
-0.74361
-0.724985
-0.70397
-0.673338
-0.632138
-0.600314
-0.454292
-0.460649
-0.729028
-0.691049
-0.635693
-0.5885
-0.546322
-0.507482
-0.465458
-0.427613
-0.376199
-0.322279
-0.249517
-0.156833
-0.0736339
-0.0110838
-0.00207642
-0.0386327
-0.100815
-0.00816038
0.41004
0.509975
0.425351
0.374146
0.365142
0.385921
0.381452
0.353281
0.29078
0.170844
0.12678
0.145798
0.208887
0.276762
0.366147
0.402808
0.386856
0.369526
0.345964
0.310758
0.266895
0.217531
0.166182
0.124397
0.04644
-1.11948
-1.15412
-1.23122
-1.43898
-1.5421
-0.413685
-0.515332
-0.7024
-0.710141
-0.63749
-0.593295
-0.6178
-0.656535
-0.688205
-0.712872
-0.730807
-0.743412
-0.752099
-0.756568
-0.761266
-0.762403
-0.754123
-0.748771
-0.742743
-0.726102
-0.708146
-0.686979
-0.653805
-0.605803
-0.529578
-0.380323
-0.0460615
-1.11047
-0.777821
-0.647832
-0.576608
-0.527643
-0.486345
-0.44876
-0.405173
-0.349422
-0.287563
-0.215653
-0.137358
-0.0704408
-0.0222572
0.0014139
0.0065163
0.0210631
0.117543
0.249321
0.350045
0.348338
0.33801
0.324806
0.326267
0.30855
0.273762
0.213919
0.139901
0.0975942
0.0964186
0.191155
0.340787
0.447296
0.470097
0.446124
0.423328
0.397795
0.363015
0.305727
0.253622
0.170861
0.15548
0.0368708
-1.07396
-1.09853
-1.15745
-1.27445
-1.17265
-0.809976
-0.777989
-0.88872
-0.839708
-0.484826
-0.442149
-0.529178
-0.59988
-0.647122
-0.682665
-0.706843
-0.722382
-0.733475
-0.74011
-0.746414
-0.745881
-0.745487
-0.739193
-0.732015
-0.71674
-0.698206
-0.677405
-0.646654
-0.60885
-0.551177
-0.482775
-0.442894
-0.707578
-0.666836
-0.602431
-0.54515
-0.504366
-0.46536
-0.433264
-0.391716
-0.334355
-0.262875
-0.186991
-0.10703
-0.0466812
-0.00400239
0.0238107
0.0434815
0.0744857
0.133735
0.203426
0.261483
0.283615
0.288182
0.281206
0.273193
0.253554
0.218691
0.160856
0.0935287
0.0302008
-0.0566887
0.0539647
0.478857
0.607696
0.556578
0.504957
0.478918
0.464415
0.437359
0.351144
0.314972
0.0191063
0.023997
-0.0159919
-1.02975
-1.04488
-1.01905
-1.08701
-1.03071
-0.973612
-0.973117
-1.15016
-1.2548
-0.119063
-0.244686
-0.463526
-0.564891
-0.623017
-0.662268
-0.689172
-0.707133
-0.720366
-0.728134
-0.735729
-0.737325
-0.734799
-0.731722
-0.723011
-0.709616
-0.692702
-0.670922
-0.645256
-0.614229
-0.580787
-0.552236
-0.546948
-0.602158
-0.585328
-0.541679
-0.501776
-0.472219
-0.445502
-0.42428
-0.390249
-0.339592
-0.250149
-0.149829
-0.0610318
-0.002956
0.0261202
0.0499624
0.0713717
0.100376
0.13971
0.181886
0.211069
0.236562
0.242931
0.244232
0.232005
0.21548
0.18449
0.138985
0.0766611
-0.00717552
-0.226911
-0.329866
0.866342
0.787968
0.591177
0.536436
0.523333
0.548148
0.569673
0.351739
0.640829
-0.443007
-0.152887
-0.0928561
-0.95677
-0.935962
-0.896962
-0.946508
-0.993294
-1.03285
-1.0001
-1.01056
-0.910956
-0.492262
-0.415673
-0.498996
-0.567626
-0.617871
-0.653237
-0.678839
-0.69741
-0.711772
-0.721585
-0.727967
-0.731742
-0.732617
-0.728881
-0.719704
-0.705514
-0.689434
-0.668027
-0.643712
-0.621977
-0.608152
-0.59929
-0.591437
-0.572565
-0.527525
-0.477398
-0.44802
-0.432888
-0.424733
-0.421017
-0.413795
-0.382678
-0.269755
-0.0957166
0.0219264
0.0585236
0.0702362
0.0797357
0.0927665
0.111905
0.137063
0.163349
0.184373
0.201302
0.209376
0.210307
0.202151
0.189062
0.165976
0.132904
0.0898825
0.0320172
-0.0331462
0.0473554
0.505962
0.599325
0.546463
0.524933
0.54171
0.631298
0.935498
-0.153
0.128269
-0.10143
-0.0991041
-0.0977832
-0.923584
-0.875578
-0.792053
-0.850435
-0.935264
-0.995669
-0.927394
-0.856026
-0.756708
-0.626437
-0.552579
-0.562276
-0.593948
-0.626178
-0.65288
-0.675935
-0.692899
-0.706547
-0.717687
-0.725199
-0.733051
-0.730181
-0.729311
-0.721571
-0.70618
-0.688766
-0.665794
-0.632131
-0.625323
-0.630851
-0.643039
-0.646614
-0.583244
-0.471667
-0.393706
-0.379544
-0.386366
-0.399494
-0.420315
-0.458308
-0.504993
-0.393003
0.0682073
0.185067
0.143635
0.115553
0.106118
0.108379
0.11791
0.132943
0.14909
0.161872
0.175959
0.182385
0.184309
0.178316
0.171926
0.15737
0.139683
0.117251
0.099141
0.106224
0.195287
0.345957
0.440073
0.460665
0.469602
0.485779
0.500741
0.488971
0.17482
0.123191
0.0187837
-0.0318937
-0.056022
-0.956132
-0.936204
-0.869954
-0.823375
-0.812966
-0.803886
-0.779199
-0.747797
-0.700383
-0.643659
-0.609102
-0.606418
-0.621214
-0.64021
-0.659015
-0.677496
-0.690947
-0.703625
-0.717275
-0.724114
-0.732912
-0.736645
-0.736171
-0.727371
-0.710202
-0.683022
-0.653891
-0.614999
-0.617351
-0.642529
-0.694777
-0.762842
-0.700184
-0.317213
-0.243229
-0.296264
-0.336437
-0.365655
-0.402153
-0.474713
-0.656031
-0.747305
0.438009
0.378783
0.200229
0.141679
0.120512
0.115772
0.118987
0.127366
0.136004
0.145069
0.153838
0.15981
0.164311
0.161643
0.159391
0.153594
0.147635
0.141502
0.142595
0.164757
0.221071
0.295462
0.356036
0.388585
0.403899
0.414186
0.406927
0.362768
0.239605
0.160196
0.0822827
0.0230891
-0.0103503
-1.04114
-1.03785
-1.01697
-0.946168
-0.585373
-0.537021
-0.616318
-0.655306
-0.656918
-0.646607
-0.63349
-0.633773
-0.642719
-0.654845
-0.668568
-0.681507
-0.691143
-0.702661
-0.715943
-0.725446
-0.740851
-0.741552
-0.748558
-0.746187
-0.718743
-0.680111
-0.66139
-0.555468
-0.589393
-0.630657
-0.719015
-0.92101
-1.05245
0.0700951
-0.0545471
-0.229453
-0.299084
-0.324806
-0.362836
-0.404726
-0.457039
-0.355082
0.0702297
0.209859
0.165716
0.135556
0.120242
0.114865
0.115559
0.118316
0.123524
0.128649
0.134988
0.140717
0.145903
0.147882
0.149574
0.155418
0.155134
0.157719
0.166342
0.18906
0.224338
0.266884
0.306264
0.331552
0.34865
0.353011
0.344761
0.324088
0.256746
0.193949
0.126063
0.0526376
0.0223385
-1.14671
-1.1965
-1.10284
-1.24106
-0.126022
-0.271577
-0.503368
-0.592204
-0.627447
-0.642719
-0.646976
-0.652342
-0.66131
-0.66793
-0.677241
-0.68638
-0.691877
-0.703023
-0.716288
-0.728197
-0.742178
-0.75811
-0.769934
-0.772702
-0.735552
-0.676092
-0.605702
-0.543022
-0.540913
-0.580561
-0.653031
-0.743946
-0.680793
-0.27796
-0.196999
-0.242823
-0.292444
-0.301047
-0.316438
-0.31446
-0.296887
-0.182581
-0.0442725
0.0877285
0.110491
0.112551
0.111303
0.109198
0.108816
0.108427
0.110506
0.11227
0.116236
0.122105
0.129318
0.135506
0.144366
0.152954
0.160749
0.167691
0.178242
0.197824
0.220333
0.246463
0.270217
0.287421
0.301342
0.304026
0.30322
0.305253
0.270224
0.230832
0.16672
0.0448352
0.0254467
-1.21694
-1.50554
-0.499632
-0.716704
-0.421368
-0.386612
-0.498172
-0.575869
-0.618923
-0.643775
-0.657798
-0.66766
-0.6812
-0.680798
-0.686759
-0.687246
-0.69553
-0.697952
-0.716407
-0.735854
-0.749964
-0.773588
-0.794943
-0.821977
-0.795104
-0.696085
-0.541124
-0.438779
-0.452065
-0.504974
-0.568864
-0.598063
-0.541012
-0.410418
-0.32288
-0.301563
-0.316895
-0.237291
-0.263187
-0.249193
-0.21999
-0.151451
-0.0608087
0.0256245
0.0725322
0.0936434
0.101026
0.102431
0.101357
0.0985621
0.0956436
0.0938508
0.0945964
0.100277
0.110798
0.122644
0.137346
0.151684
0.165068
0.176167
0.186013
0.199148
0.212865
0.227786
0.241961
0.25365
0.263247
0.267406
0.240502
0.326759
0.290608
0.290864
0.261805
-0.0652315
-0.0737421
-0.820802
-0.93518
-0.723665
-0.656373
-0.572909
-0.517764
-0.548184
-0.594767
-0.629034
-0.653705
-0.671018
-0.680971
-0.702012
-0.709026
-0.687078
-0.699801
-0.684038
-0.698497
-0.717611
-0.7357
-0.75977
-0.786835
-0.823802
-0.87826
-0.938194
-0.834966
-0.39263
-0.257168
-0.321684
-0.408169
-0.511217
-0.5483
-0.519114
-0.443598
-0.373478
-0.330988
-0.302676
-0.253397
-0.212658
-0.19859
-0.188742
-0.143575
-0.0733596
0.00511016
0.0602875
0.0886848
0.0979299
0.0976761
0.0942024
0.0889009
0.0796625
0.0727301
0.0704996
0.0768893
0.0907383
0.108738
0.129784
0.15065
0.169661
0.184057
0.192199
0.198054
0.205094
0.209424
0.216866
0.225301
0.235343
0.247961
0.250751
0.290672
0.313598
0.380489
0.647811
-0.490666
-0.223019
-0.327674
-0.835621
-0.803618
-0.664808
-0.588223
-0.554965
-0.590611
-0.625373
-0.649929
-0.666479
-0.68717
-0.688302
-0.709139
-0.755525
-0.659463
-0.740576
-0.647031
-0.691509
-0.722002
-0.736527
-0.75927
-0.788445
-0.82653
-0.910392
-1.10993
-1.17724
0.0162165
-0.012601
-0.176635
-0.307909
-0.500824
-0.578114
-0.53568
-0.458168
-0.394331
-0.346082
-0.312811
-0.241988
-0.170244
-0.164472
-0.195712
-0.162311
-0.0837685
0.00651351
0.0754209
0.10109
0.100752
0.0975957
0.0932185
0.0835807
0.0614755
0.0457164
0.0375626
0.0445852
0.0655633
0.0927887
0.121965
0.151795
0.178654
0.199078
0.203686
0.197442
0.197714
0.184583
0.185621
0.197893
0.214977
0.228918
0.244958
0.268916
0.283108
0.273562
0.224207
-0.132975
-0.180709
0.404123
-1.01201
-0.866179
-0.638796
-0.543704
-0.534103
-0.624496
-0.664161
-0.674982
-0.684264
-0.694081
-0.697596
-0.709727
-0.719384
-0.698468
-0.707427
-0.684226
-0.691033
-0.714269
-0.732059
-0.751528
-0.776346
-0.803931
-0.854711
-0.917735
-0.800722
-0.318976
-0.142289
-0.115992
-0.308533
-0.475265
-0.608173
-0.554915
-0.459111
-0.403593
-0.331279
-0.274932
-0.253774
-0.0750627
-0.065611
-0.304384
-0.230387
-0.106794
0.0298767
0.136019
0.133383
0.105277
0.0935951
0.0962034
0.0945708
0.0697277
0.00937796
-0.0140646
-0.00200962
0.0346971
0.0748974
0.113822
0.154427
0.192687
0.231596
0.239696
0.222065
0.167572
0.142991
0.149846
0.170887
0.194399
0.214593
0.239135
0.248636
0.25658
0.215752
0.116831
-0.092694
-0.188056
-0.0321544
-0.52277
-0.572005
-0.498829
-0.426375
-0.411491
-0.707275
-0.721104
-0.707012
-0.698275
-0.698355
-0.701203
-0.70735
-0.706098
-0.709539
-0.702429
-0.707455
-0.703319
-0.717565
-0.730672
-0.743241
-0.755914
-0.768114
-0.77832
-0.764849
-0.630079
-0.466246
-0.357344
-0.22894
-0.32484
-0.46998
-0.541151
-0.513932
-0.451282
-0.39584
-0.331618
-0.272341
-0.192618
-0.0227627
0.319044
-0.725853
-0.3588
-0.145421
0.0816408
0.318444
0.181353
0.0942871
0.0747231
0.0946949
0.129132
0.0898247
-0.0628083
-0.0903222
-0.0657212
0.00280518
0.0544287
0.10719
0.158039
0.211381
0.274087
0.304883
0.248028
0.134903
0.0701381
0.104666
0.147019
0.183798
0.207493
0.22962
0.237957
0.257848
0.219158
0.10836
-0.160695
-0.256343
-0.180687
-0.300288
-0.364996
-0.348891
-0.258812
0.0325308
-1.08394
-0.806959
-0.727296
-0.704291
-0.699767
-0.701845
-0.705185
-0.705911
-0.709464
-0.707635
-0.718046
-0.714267
-0.717806
-0.731035
-0.729832
-0.734097
-0.73563
-0.722473
-0.686621
-0.605974
-0.511771
-0.426864
-0.382178
-0.400724
-0.460228
-0.477543
-0.470452
-0.433984
-0.389512
-0.33791
-0.289648
-0.227436
-0.150412
-0.108321
-0.372746
-0.324882
-0.227223
-0.0222718
0.416786
0.0830465
-0.00677924
0.0144436
0.0796795
0.133289
0.057013
-0.108842
-0.168802
-0.124798
-0.0202052
0.0403278
0.10009
0.158432
0.224443
0.315212
0.377987
0.265169
0.139437
0.0293332
0.0649522
0.131081
0.184489
0.204472
0.226487
0.23689
0.248819
0.219173
0.0698542
-0.232186
-0.346803
-0.151282
-0.184507
-0.232351
-0.26657
-0.28285
-0.328094
-0.664882
-0.696581
-0.69346
-0.69253
-0.695824
-0.700479
-0.705669
-0.708815
-0.712446
-0.713136
-0.720872
-0.719772
-0.72101
-0.721472
-0.722102
-0.71852
-0.711995
-0.690937
-0.659077
-0.60569
-0.546676
-0.500115
-0.462243
-0.455592
-0.461454
-0.460214
-0.45098
-0.423649
-0.389219
-0.349833
-0.310782
-0.270181
-0.237085
-0.239619
-0.318084
-0.332542
-0.335665
-0.460556
-0.752334
-0.330399
-0.166178
-0.08724
-0.0200111
0.0269826
-0.00691278
-0.124428
-0.158927
-0.109034
-0.0363038
0.0300544
0.0925725
0.153466
0.216856
0.287578
0.348526
0.29059
0.164975
0.0892077
0.104822
0.142111
0.173569
0.205285
0.233241
0.245556
0.233776
0.131532
-0.012237
-0.247154
-0.341073
-0.00720456
-0.0406953
-0.11775
-0.200687
-0.289981
-0.389884
-0.54627
-0.622241
-0.656496
-0.676171
-0.688757
-0.699478
-0.706888
-0.71185
-0.716027
-0.7187
-0.722087
-0.7235
-0.723556
-0.72374
-0.718661
-0.70946
-0.69687
-0.678551
-0.651975
-0.61124
-0.567322
-0.533615
-0.502125
-0.485244
-0.472311
-0.45978
-0.44382
-0.420841
-0.39152
-0.362111
-0.331679
-0.305776
-0.290966
-0.29555
-0.329029
-0.361313
-0.413208
-0.541342
-0.662859
-0.44792
-0.276123
-0.175796
-0.113767
-0.0804968
-0.0852507
-0.127425
-0.131747
-0.0988498
-0.0404188
0.0229819
0.0854374
0.145715
0.204355
0.261073
0.289195
0.266092
0.213008
0.175748
0.154743
0.159044
0.166244
0.193701
0.248188
0.289867
0.209367
0.0224135
-0.13348
-0.243723
-0.277253
0.220458
0.148156
0.0124601
-0.140281
-0.278694
-0.399909
-0.510397
-0.59023
-0.635787
-0.666549
-0.686058
-0.698776
-0.708251
-0.717816
-0.72133
-0.723518
-0.72593
-0.727424
-0.729865
-0.726192
-0.71896
-0.703324
-0.694007
-0.676709
-0.656578
-0.621349
-0.583859
-0.558113
-0.527392
-0.505912
-0.487233
-0.467893
-0.447834
-0.424617
-0.40038
-0.372968
-0.349834
-0.330597
-0.320717
-0.323759
-0.342064
-0.367832
-0.406138
-0.457658
-0.476185
-0.398845
-0.300571
-0.229236
-0.180359
-0.148928
-0.14353
-0.143758
-0.134134
-0.104119
-0.0493531
0.0162287
0.0832964
0.141312
0.187674
0.236389
0.262512
0.265058
0.260731
0.236244
0.199468
0.142341
0.140779
0.172179
0.241741
0.295596
0.140696
-0.0459505
-0.216014
-0.240627
-0.232733
0.484428
0.385
0.148601
-0.101147
-0.283941
-0.415444
-0.512286
-0.58387
-0.63149
-0.668899
-0.690363
-0.703147
-0.715305
-0.723955
-0.728681
-0.72928
-0.72545
-0.731321
-0.729762
-0.730255
-0.720289
-0.708662
-0.696153
-0.679611
-0.661442
-0.631616
-0.600055
-0.578664
-0.549133
-0.525009
-0.501224
-0.476479
-0.454588
-0.427769
-0.405717
-0.382754
-0.362798
-0.346923
-0.338489
-0.338578
-0.347643
-0.362471
-0.382581
-0.400205
-0.395451
-0.357988
-0.305805
-0.258949
-0.224452
-0.195692
-0.192867
-0.183687
-0.173852
-0.136478
-0.0690324
0.0108113
0.0899946
0.153741
0.180209
0.233079
0.249078
0.28167
0.319518
0.320452
0.237782
0.117913
0.0743387
0.121418
0.181359
0.208406
0.0971887
-0.0786714
-0.180971
-0.198545
-0.200298
0.77249
0.754678
0.209273
-0.155785
-0.348844
-0.46122
-0.538646
-0.59936
-0.643773
-0.677554
-0.70088
-0.714889
-0.724101
-0.732503
-0.735502
-0.737899
-0.735872
-0.740493
-0.734415
-0.731077
-0.724964
-0.715773
-0.705833
-0.683546
-0.670107
-0.64641
-0.61937
-0.594827
-0.567872
-0.542064
-0.513603
-0.488421
-0.462484
-0.436331
-0.412214
-0.390483
-0.370546
-0.356182
-0.347018
-0.344212
-0.34652
-0.353288
-0.360188
-0.363022
-0.354465
-0.331524
-0.302116
-0.271418
-0.251627
-0.228996
-0.234067
-0.229525
-0.234547
-0.219494
-0.114429
0.029176
0.144238
0.176129
0.14801
0.255375
0.222847
0.260609
0.353238
0.368168
0.264108
0.108697
0.0304755
0.07438
0.132022
0.134444
0.0727794
-0.0291821
-0.0994779
-0.142432
-0.159792
0.355658
0.669382
-0.072148
-0.362224
-0.489244
-0.540057
-0.584932
-0.625508
-0.668835
-0.70043
-0.719178
-0.729629
-0.737878
-0.743168
-0.746193
-0.748372
-0.747324
-0.74757
-0.741351
-0.736468
-0.731667
-0.72301
-0.714033
-0.694197
-0.685841
-0.661893
-0.641926
-0.614967
-0.585087
-0.558766
-0.527422
-0.498216
-0.469482
-0.441922
-0.416663
-0.394818
-0.376201
-0.361222
-0.350146
-0.346704
-0.341097
-0.342864
-0.341423
-0.338325
-0.329783
-0.314158
-0.294069
-0.275384
-0.261812
-0.254103
-0.262136
-0.279061
-0.317429
-0.377908
-0.275426
0.161522
0.279895
0.228128
0.190189
0.202289
0.203
0.227422
0.294624
0.298016
0.274223
0.129416
0.0961
0.113759
0.130317
0.113995
0.0639568
0.0124185
-0.0542802
-0.0986694
-0.12459
-0.842016
-1.26469
-0.887438
-0.673836
-0.627459
-0.620525
-0.633185
-0.658595
-0.704814
-0.73254
-0.745841
-0.754937
-0.753937
-0.758366
-0.760295
-0.760603
-0.759205
-0.757372
-0.752893
-0.743871
-0.740958
-0.732147
-0.72603
-0.711095
-0.701341
-0.681472
-0.662248
-0.635467
-0.605759
-0.575802
-0.540472
-0.506379
-0.475221
-0.445138
-0.418202
-0.394964
-0.376097
-0.358924
-0.349812
-0.340533
-0.335482
-0.330698
-0.32597
-0.320953
-0.311054
-0.299007
-0.284311
-0.276588
-0.269289
-0.265847
-0.274771
-0.305998
-0.375335
-0.568249
-0.65462
0.519213
0.44478
0.244478
0.179844
0.161596
0.158396
0.17096
0.210478
0.222593
0.233244
0.19358
0.184917
0.177931
0.1661
0.135823
0.0807499
0.0272383
-0.0334048
-0.0739437
-0.091514
-0.802477
-1.5178
-1.28539
-0.943431
-0.777698
-0.692948
-0.658052
-0.666518
-0.757776
-0.781113
-0.779472
-0.773191
-0.771193
-0.772953
-0.775423
-0.774637
-0.772595
-0.768847
-0.763864
-0.753704
-0.747635
-0.743571
-0.737923
-0.72969
-0.720534
-0.705698
-0.685336
-0.658883
-0.630516
-0.596112
-0.553228
-0.512914
-0.479634
-0.446056
-0.413789
-0.389495
-0.371444
-0.354544
-0.345109
-0.335293
-0.327037
-0.320217
-0.311998
-0.306528
-0.296093
-0.285894
-0.275099
-0.268338
-0.262312
-0.262756
-0.27258
-0.29614
-0.339774
-0.399419
-0.298203
0.137701
0.242254
0.174465
0.12974
0.10442
0.0929734
0.0952078
0.120056
0.168068
0.221215
0.262654
0.267946
0.253283
0.223799
0.180655
0.114506
0.0351061
-0.0255113
-0.0570993
-0.0693213
-2.90105
-1.8063
-1.298
-1.02893
-0.852291
-0.729512
-0.636815
-0.596211
-0.875226
-0.856363
-0.815528
-0.789731
-0.783193
-0.78675
-0.794329
-0.792552
-0.787191
-0.77929
-0.771278
-0.759333
-0.756839
-0.755813
-0.753742
-0.753196
-0.742958
-0.736837
-0.715809
-0.690414
-0.655935
-0.618709
-0.565985
-0.5163
-0.482532
-0.444961
-0.405011
-0.377738
-0.363795
-0.34699
-0.337624
-0.327573
-0.317782
-0.310097
-0.30001
-0.292266
-0.28236
-0.272541
-0.262841
-0.256096
-0.250608
-0.251635
-0.254051
-0.262998
-0.27229
-0.256352
-0.163872
-0.0221428
0.0696985
0.0763784
0.0580877
0.0353051
0.0131676
-0.00259136
0.00552714
0.102074
0.243553
0.342433
0.359563
0.343839
0.303497
0.237948
0.161178
0.0310517
-0.0262577
-0.03871
-0.0306672
-1.91972
-1.49737
-1.24967
-1.04042
-0.87603
-0.735776
-0.565545
-0.211679
-1.27705
-0.953974
-0.835213
-0.788305
-0.781355
-0.805323
-0.817198
-0.812916
-0.80394
-0.786736
-0.780354
-0.762504
-0.761558
-0.767477
-0.774157
-0.778485
-0.772444
-0.774175
-0.755467
-0.729116
-0.678385
-0.636797
-0.57999
-0.529931
-0.473829
-0.435786
-0.396408
-0.368037
-0.353237
-0.33834
-0.329257
-0.319845
-0.309155
-0.299572
-0.288106
-0.278197
-0.268528
-0.259138
-0.248191
-0.244003
-0.236193
-0.23448
-0.230625
-0.229383
-0.221923
-0.193573
-0.137612
-0.0681031
-0.016085
-0.000989515
-0.010712
-0.0344292
-0.0710016
-0.121094
-0.185326
-0.0686911
0.38209
0.503967
0.482125
0.452264
0.406696
0.312416
0.261374
-0.0606727
-0.0707175
-0.0371456
-0.00546275
-1.21206
-1.22738
-1.12963
-1.00292
-0.879304
-0.772176
-0.673963
-0.62119
-0.877483
-0.843267
-0.783874
-0.745048
-0.751766
-0.836263
-0.853778
-0.838242
-0.815482
-0.797632
-0.775879
-0.760935
-0.761878
-0.777493
-0.794462
-0.811796
-0.813499
-0.808185
-0.799622
-0.772039
-0.705348
-0.675514
-0.559235
-0.539111
-0.447171
-0.445254
-0.347427
-0.359376
-0.344671
-0.327888
-0.32146
-0.311973
-0.300666
-0.289378
-0.274972
-0.264702
-0.254367
-0.243576
-0.234362
-0.226586
-0.219477
-0.215101
-0.208512
-0.201658
-0.188261
-0.163578
-0.12867
-0.0920136
-0.0632291
-0.0545371
-0.0655442
-0.0917449
-0.140017
-0.219553
-0.425192
-0.489265
0.740796
0.687023
0.586054
0.563688
0.565718
0.341723
0.630518
-0.450473
-0.142642
-0.0497313
-0.0292413
-1.08981
-1.08354
-1.02689
-0.955096
-0.868259
-0.795227
-0.736218
-0.71572
-0.771171
-0.756885
-0.711832
-0.658607
-0.642038
-0.932207
-0.921651
-0.873095
-0.838777
-0.803471
-0.771906
-0.74497
-0.740107
-0.766685
-0.8296
-0.862127
-0.863165
-0.850119
-0.836711
-0.816465
-0.753699
-0.683049
-0.595855
-0.518041
-0.432304
-0.398409
-0.367808
-0.348324
-0.337056
-0.323278
-0.316565
-0.306641
-0.292847
-0.278252
-0.262293
-0.249896
-0.237665
-0.228512
-0.219387
-0.212718
-0.202997
-0.194175
-0.18588
-0.177122
-0.166678
-0.144791
-0.125127
-0.106217
-0.0908732
-0.0896358
-0.102177
-0.129998
-0.174639
-0.241537
-0.321307
-0.186389
0.316166
0.498009
0.602515
0.65586
0.953869
-0.134642
0.151616
-0.0423296
0.00600804
0.00728944
-0.116251
-0.988973
-0.989797
-0.957094
-0.912513
-0.856256
-0.801827
-0.757956
-0.734372
-0.731195
-0.705641
-0.647378
-0.533008
-0.21851
-1.31537
-1.02208
-0.911349
-0.862827
-0.812658
-0.768437
-0.710862
-0.699431
-0.740356
-0.898064
-0.944838
-0.919665
-0.890818
-0.878402
-0.866468
-0.836255
-0.734979
-0.579937
-0.456086
-0.405545
-0.379524
-0.339731
-0.32704
-0.325016
-0.321733
-0.314887
-0.304941
-0.288433
-0.267637
-0.246631
-0.236074
-0.219878
-0.209987
-0.199404
-0.191342
-0.183515
-0.174676
-0.169645
-0.155153
-0.15087
-0.129583
-0.122373
-0.112859
-0.105759
-0.110682
-0.125329
-0.153453
-0.190502
-0.231478
-0.252945
-0.132845
0.102717
0.35745
0.506228
0.537666
0.51494
0.193392
0.155716
0.114276
0.123007
0.0285004
-0.16622
-0.925471
-0.923898
-0.905711
-0.874882
-0.833388
-0.796488
-0.766751
-0.734909
-0.713849
-0.68276
-0.641209
-0.597159
-0.596035
-0.912419
-0.927466
-0.903309
-0.871225
-0.82685
-0.774976
-0.692601
-0.651296
-0.76532
-0.901893
-1.00797
-0.982136
-0.917865
-0.915396
-0.93455
-0.981101
-0.8971
-0.447167
-0.339322
-0.369236
-0.351548
-0.31014
-0.302874
-0.312067
-0.323731
-0.32774
-0.31127
-0.285369
-0.255247
-0.232303
-0.216035
-0.201098
-0.190825
-0.180328
-0.172297
-0.163005
-0.15494
-0.148303
-0.138361
-0.134047
-0.120771
-0.11384
-0.111684
-0.112296
-0.120757
-0.137285
-0.163682
-0.19794
-0.237579
-0.276778
-0.283309
-0.109449
0.390455
0.522936
0.46981
0.379844
0.238561
0.167377
0.123762
0.0975596
0.0238166
-0.18174
-0.874085
-0.879221
-0.862015
-0.841616
-0.812556
-0.785384
-0.758338
-0.730679
-0.70597
-0.672469
-0.640722
-0.621218
-0.649135
-0.778927
-0.875943
-0.902861
-0.887931
-0.846498
-0.792114
-0.734342
-0.700411
-0.771912
-0.904138
-0.977014
-0.95266
-0.924926
-0.925402
-0.968932
-1.16525
-1.28125
-0.121788
-0.26796
-0.397864
-0.340879
-0.253489
-0.247184
-0.279007
-0.34655
-0.353955
-0.330733
-0.283136
-0.238284
-0.213171
-0.192739
-0.180203
-0.170833
-0.158043
-0.151875
-0.143741
-0.136715
-0.127927
-0.123355
-0.114946
-0.108311
-0.105161
-0.106563
-0.111353
-0.12175
-0.139245
-0.16648
-0.200978
-0.247029
-0.311705
-0.487054
-0.556622
0.680531
0.602954
0.414296
0.304769
0.213029
0.149551
0.0944518
0.0430697
-0.0244638
-0.134852
-0.829133
-0.8353
-0.826702
-0.813675
-0.793515
-0.774955
-0.749586
-0.723031
-0.693511
-0.668267
-0.632525
-0.597868
-0.604135
-0.705471
-0.882029
-0.948923
-0.92741
-0.869924
-0.822649
-0.786798
-0.780104
-0.803127
-0.872229
-0.909336
-0.914266
-0.899395
-0.899242
-0.916013
-0.949191
-0.882848
-0.542409
-0.623849
-0.657077
-0.241487
-0.113958
-0.154372
-0.243017
-0.41055
-0.413192
-0.365112
-0.267968
-0.21016
-0.183644