/*--------------------------------*- C++ -*----------------------------------*\
  =========                 |
  \\      /  F ield         | OpenFOAM: The Open Source CFD Toolbox
   \\    /   O peration     | Website:  https://openfoam.org
    \\  /    A nd           | Version:  12
     \\/     M anipulation  |
\*---------------------------------------------------------------------------*/
FoamFile
{
    format      ascii;
    class       surfaceScalarField;
    location    "1";
    object      phi.water;
}
// * * * * * * * * * * * * * * * * * * * * * * * * * * * * * * * * * * * * * //

dimensions      [0 3 -1 0 0 0 0];

internalField   nonuniform List<scalar> 
7375
(
3.48653e-07
-9.10186e-07
1.48406e-06
-2.48205e-07
1.48215e-08
3.32191e-07
2.09984e-08
-7.37399e-09
7.52702e-08
-5.43058e-08
9.43938e-08
-1.83554e-08
1.21784e-07
-2.74164e-08
1.28483e-07
-7.9283e-09
1.1537e-07
1.44272e-08
1.25961e-07
-1.05905e-08
1.19833e-07
8.57623e-09
1.25733e-07
-5.93515e-09
1.07286e-07
1.73324e-08
1.11336e-07
-4.00528e-09
1.19327e-07
-9.1249e-09
1.42103e-07
-2.44794e-08
1.41184e-07
-5.0731e-10
1.43592e-07
-9.72141e-10
1.52912e-07
-9.32131e-09
1.57913e-07
-5.0517e-09
1.54731e-07
3.21582e-09
1.61903e-07
-8.80651e-09
1.71022e-07
-7.40902e-09
1.74604e-07
-3.6161e-09
1.83899e-07
-7.51354e-09
1.93489e-07
-7.69186e-09
1.98472e-07
-7.03259e-09
1.07812e-07
8.86494e-08
2.84893e-09
1.04963e-07
1.34397e-07
-1.3151e-07
2.60849e-07
-1.2258e-07
2.55836e-07
5.00874e-09
1.61403e-07
9.18493e-08
1.88227e-08
1.47197e-07
1.38182e-07
-1.19321e-07
2.3083e-07
-9.59813e-08
2.21053e-07
9.8763e-09
1.95144e-07
2.78852e-08
1.81609e-07
1.35366e-08
1.67039e-07
1.27386e-08
1.6717e-07
1.5567e-09
1.60014e-07
8.89579e-09
1.6906e-07
-8.95688e-09
1.69921e-07
8.85088e-10
1.80494e-07
-1.43453e-08
1.93514e-07
-1.67977e-08
1.88023e-07
7.37056e-09
1.86704e-07
3.23947e-09
1.60812e-07
2.72584e-08
1.27481e-07
3.30041e-08
1.01295e-07
2.56538e-08
7.97638e-08
2.21269e-08
7.79573e-08
9.67454e-10
8.28815e-08
-5.77748e-09
8.7636e-08
-3.91087e-09
1.03698e-07
-1.71374e-08
1.15852e-07
-1.33358e-08
1.28192e-07
-1.12733e-08
1.24939e-07
3.21761e-09
1.36311e-07
-8.593e-09
1.66551e-07
-2.99092e-08
1.50741e-07
1.2656e-08
1.35454e-07
1.40451e-08
1.34624e-07
8.38084e-10
1.29515e-07
6.41924e-09
1.33959e-07
-4.44668e-09
1.40713e-07
-6.68634e-09
1.42488e-07
-3.26264e-09
1.44072e-07
-1.2967e-10
1.40123e-07
5.38787e-09
1.44527e-07
-5.83764e-09
1.46722e-07
-3.72881e-09
1.45893e-07
8.29071e-10
1.38275e-07
9.01581e-09
1.0894e-08
-3.83228e-07
1.29743e-07
3.99323e-07
-2.6936e-08
1.7201e-07
5.02607e-07
1.58596e-07
-2.67165e-09
9.91239e-08
6.16713e-09
1.01768e-07
-2.09995e-08
7.71901e-08
-3.58882e-09
7.03971e-08
-4.24081e-10
7.24371e-08
1.25151e-08
5.98984e-08
1.94848e-09
7.32657e-08
-4.74246e-09
5.4743e-08
1.39685e-08
8.02139e-08
-8.88115e-09
7.91823e-08
-4.55309e-09
9.34405e-08
-2.16217e-08
9.66189e-08
-2.79455e-08
1.15018e-07
-2.08573e-08
1.31317e-07
-1.84207e-08
1.32495e-07
-7.75689e-09
1.53431e-07
-2.49303e-08
1.53859e-07
1.22266e-09
1.55552e-07
-1.20537e-08
1.61795e-07
-1.37264e-08
1.68253e-07
-6.70669e-09
1.72177e-07
-1.1397e-08
1.66363e-07
-1.89762e-09
1.74885e-07
-1.73568e-08
3.73273e-07
-1.11505e-07
-1.26212e-07
-1.01348e-07
3.8301e-07
6.18201e-08
1.89714e-07
7.21585e-08
2.01374e-07
-4.7385e-09
3.89171e-07
-8.5016e-08
-1.16598e-07
-7.4881e-08
3.64511e-07
1.19887e-07
1.54058e-07
1.1606e-07
1.1908e-07
4.2141e-08
1.13665e-07
3.17764e-08
1.02414e-07
2.49017e-08
1.24348e-07
-9.28897e-09
1.0942e-07
1.7769e-08
1.2991e-07
-1.16849e-08
1.48652e-07
-2.9216e-08
1.65978e-07
-1.49238e-08
1.54954e-07
-1.44781e-09
1.96133e-07
-6.23659e-08
2.09266e-07
-5.63172e-09
2.59494e-07
-4.79908e-08
2.7888e-07
5.1083e-09
2.85029e-07
2.67294e-08
2.66459e-07
4.44108e-08
2.45174e-07
4.34035e-08
2.24692e-07
2.59229e-08
2.18458e-07
5.02447e-09
1.89681e-07
2.26141e-08
1.77595e-07
-5.05066e-09
1.65717e-07
1.11598e-10
1.67554e-07
-1.65456e-08
1.79079e-07
-9.89926e-09
1.93969e-07
-2.38787e-08
1.80262e-07
-1.22041e-08
1.59213e-07
3.72406e-08
1.42133e-07
2.90091e-08
1.14409e-07
2.59273e-08
1.27177e-07
-7.50437e-09
1.30061e-07
-7.2863e-09
1.32585e-07
-7.79212e-09
1.42597e-07
-1.17874e-08
1.43627e-07
-4.08064e-09
1.55569e-07
-6.54273e-09
1.50737e-07
2.14151e-09
1.51901e-07
-4.89281e-09
1.54936e-07
-5.32819e-09
1.61872e-07
4.45003e-10
7.8917e-09
-2.67834e-07
4.22385e-07
-5.82601e-07
-5.44831e-07
-1.37533e-07
9.27746e-08
-9.76791e-08
-4.11223e-08
-8.60005e-08
-4.57097e-09
-6.09963e-08
-4.57915e-08
-5.39391e-08
-1.07544e-08
-4.88378e-08
-5.95807e-09
-4.60443e-08
9.21835e-09
-5.06176e-08
7.50826e-09
-5.42624e-08
-1.62899e-09
-3.64912e-08
-3.9856e-09
-2.66939e-08
-1.81303e-08
-1.60049e-08
-1.54034e-08
-5.45139e-09
-3.22305e-08
7.39173e-10
-3.38554e-08
1.51899e-08
-3.54687e-08
3.59609e-08
-3.91913e-08
4.71784e-08
-1.80308e-08
5.60477e-08
-3.3056e-08
7.57697e-08
-1.98438e-08
8.04845e-08
-1.66006e-08
1.11622e-07
-4.41822e-08
9.64965e-08
7.51084e-09
1.05938e-07
-1.85834e-08
9.49969e-08
1.01467e-08
9.97356e-08
-2.38566e-08
5.2852e-08
-6.6298e-08
-5.93799e-08
1.02842e-08
4.99918e-08
-4.70111e-08
9.23257e-08
2.91016e-08
1.01757e-07
-1.53041e-08
5.44352e-08
-3.66566e-08
-7.1713e-08
5.26001e-08
3.98077e-08
8.36663e-09
5.34193e-08
1.00858e-07
1.5905e-08
8.07097e-08
2.61341e-09
4.58519e-08
-4.30789e-09
3.14844e-08
1.86295e-08
-3.23222e-08
2.35146e-08
1.26937e-08
4.10302e-08
-2.89057e-08
6.341e-08
-5.0949e-08
7.67243e-08
-2.94868e-08
5.49116e-08
1.99577e-08
-2.71453e-08
2.05366e-08
1.02201e-07
-1.32392e-07
1.55299e-07
-9.84349e-08
1.63807e-07
-3.29296e-09
1.78685e-07
1.06584e-08
1.74581e-07
4.71452e-08
1.9634e-07
2.00838e-08
1.87934e-07
3.45912e-08
1.84257e-07
1.06755e-08
1.69967e-07
3.92083e-08
1.56589e-07
6.713e-09
1.3734e-07
1.7778e-08
1.32097e-07
-1.10805e-08
1.26333e-07
-2.9596e-09
1.15331e-07
-9.19622e-09
9.96948e-08
2.08179e-09
1.06085e-07
2.67014e-08
1.12124e-07
2.24503e-08
1.19814e-07
1.9117e-08
1.23613e-07
-1.26407e-08
1.21274e-07
-6.23555e-09
1.21803e-07
-8.40452e-09
1.26431e-07
-1.49159e-08
1.29832e-07
-7.51639e-09
1.32799e-07
-8.15272e-09
1.25168e-07
1.11419e-08
1.24813e-07
-5.76503e-09
1.07637e-07
1.18475e-08
1.14422e-07
-7.42782e-09
6.73334e-09
3.63876e-07
1.10202e-07
-6.43843e-08
-1.94571e-07
3.5475e-08
6.87467e-10
5.04305e-08
-5.68014e-08
1.14044e-08
3.48105e-08
-1.29247e-09
-3.35616e-08
-2.57721e-08
1.39884e-08
-2.32521e-08
-8.53804e-09
-2.87765e-08
1.45603e-08
-3.19804e-08
1.09272e-08
-3.75441e-08
3.87938e-09
-2.51221e-08
-1.69223e-08
-1.4977e-08
-2.83073e-08
-5.91383e-09
-2.44663e-08
2.53823e-09
-4.07426e-08
-7.17024e-10
-3.02544e-08
-8.36342e-09
-2.80985e-08
-3.37852e-09
-4.45376e-08
2.0356e-09
-2.36609e-08
-1.1728e-08
-1.89341e-08
-9.32684e-09
-2.23779e-08
1.08547e-09
-2.71803e-08
-4.39515e-08
4.21949e-10
-2.41559e-08
-1.21592e-08
-4.11346e-08
-1.56362e-09
-2.48501e-08
-6.3446e-09
-2.55502e-08
-2.31563e-08
-5.56813e-08
-3.65395e-08
-4.67823e-08
1.49015e-09
-6.1557e-08
-3.17568e-08
-4.18324e-08
8.65346e-09
-5.33262e-08
-3.96802e-09
-7.78664e-08
-1.24943e-08
-7.42402e-08
4.84743e-08
-7.9153e-08
1.39515e-08
-5.49173e-08
7.47394e-08
-3.02148e-08
5.51184e-08
-2.41863e-08
4.1168e-08
-4.01566e-08
4.76989e-08
-1.71551e-08
-5.59747e-08
-2.84863e-08
2.43154e-08
1.9283e-08
-7.66751e-08
1.11854e-08
-4.25407e-08
4.22042e-08
-6.00182e-08
2.18903e-07
-1.58567e-07
-3.1011e-07
-1.5666e-07
2.24276e-07
3.76807e-08
4.58718e-08
8.28835e-08
1.59672e-08
2.69746e-08
1.75817e-08
8.85881e-09
3.21222e-08
3.2246e-08
4.67276e-08
5.42306e-09
5.83929e-08
2.41205e-08
4.44821e-08
2.55033e-08
4.54097e-08
3.78175e-08
4.39134e-08
7.2887e-09
4.69683e-08
1.49045e-08
5.50355e-08
-1.9345e-08
4.82817e-08
3.76399e-09
5.01507e-08
-1.1483e-08
4.08281e-08
1.095e-08
6.24665e-08
4.79618e-09
5.95383e-08
2.65037e-08
5.2693e-08
2.65697e-08
4.044e-08
2.47713e-11
3.4676e-08
-5.35811e-10
4.45614e-08
-1.89903e-08
4.45232e-08
-1.50283e-08
6.13972e-08
-2.45625e-08
6.88499e-08
-1.56877e-08
8.24734e-08
-1.87383e-09
9.0519e-08
-1.38109e-08
8.70225e-08
1.44559e-08
8.23838e-08
-2.76139e-09
8.12396e-09
1.53103e-07
-1.11723e-07
-7.93471e-08
9.94584e-09
-1.41328e-07
7.25312e-08
-7.21858e-08
-1.22354e-07
-6.938e-08
3.2005e-08
-4.32423e-08
-5.89912e-08
-2.75934e-08
-1.66035e-09
-2.50244e-08
-1.14492e-08
-1.73213e-08
7.03602e-09
2.81286e-09
-9.06019e-09
2.25834e-09
4.52454e-09
2.718e-09
-1.73584e-08
-4.8465e-09
-2.09844e-08
-1.6312e-09
-2.79309e-08
-1.45993e-08
-2.77743e-08
-2.04004e-08
-2.47051e-08
-1.83277e-08
-3.01709e-08
-4.66308e-08
-1.66886e-08
-4.92973e-08
-2.12354e-08
-5.70765e-08
-1.1737e-08
-8.26392e-08
3.1851e-09
-1.10935e-07
5.49248e-10
-1.21389e-07
1.20044e-08
-1.03529e-07
-2.97165e-08
-1.07188e-07
1.02881e-09
-8.02743e-08
-3.21646e-08
-8.10906e-08
-2.29332e-08
-8.92956e-08
-2.86295e-08
-6.48354e-08
-2.2059e-08
-6.01721e-08
-3.642e-08
-3.14597e-08
-2.00589e-08
-1.8322e-08
-1.72521e-08
-3.30115e-08
2.53547e-09
-2.86855e-09
1.81751e-08
5.89285e-09
5.10065e-09
4.88101e-08
3.16488e-08
7.96563e-08
2.36519e-08
1.05445e-07
1.59345e-08
3.93337e-08
1.14698e-07
-9.02539e-08
7.43794e-08
1.38971e-08
-7.89149e-08
1.14692e-08
-7.50296e-08
-1.15222e-08
-1.94318e-08
-1.09928e-08
-6.00525e-08
-8.53622e-08
-8.5066e-08
-2.24388e-07
-1.66053e-08
-9.7218e-08
-9.13338e-08
-4.96948e-08
3.50068e-08
-4.611e-08
2.23654e-08
-5.89017e-08
2.14679e-08
-4.04249e-08
1.47826e-08
-5.59559e-08
2.05969e-08
-4.40129e-08
1.16008e-08
-4.63414e-08
2.80206e-08
-6.07231e-08
5.13318e-08
-7.01446e-08
1.67101e-08
-5.34037e-08
-1.66561e-09
-6.06627e-08
-1.19626e-08
-4.83226e-08
-7.95721e-09
-4.42066e-08
-1.5599e-08
-2.95479e-08
-3.29548e-09
-2.57878e-08
8.15886e-10
-1.91228e-09
2.6086e-09
2.01097e-08
4.52106e-09
2.62863e-08
-6.15188e-09
3.23758e-08
-6.95017e-09
4.47011e-08
-3.13156e-08
4.95042e-08
-1.95287e-08
5.29199e-08
-2.79781e-08
6.28333e-08
-2.61356e-08
8.33074e-08
-2.2348e-08
8.03937e-08
-1.00474e-08
9.73778e-08
-3.52201e-09
9.54087e-08
-1.78372e-09
1.54665e-08
-2.07546e-08
-8.69688e-08
-2.1441e-08
1.94656e-08
1.66914e-08
3.66266e-08
-1.33849e-08
-9.26185e-08
-9.72431e-09
2.80181e-08
7.57868e-09
-7.6294e-08
3.52187e-09
2.39669e-09
3.9768e-08
-4.72134e-08
2.65783e-08
2.01542e-08
3.85515e-08
-2.09122e-08
1.49995e-08
2.8123e-08
1.54674e-08
-1.74912e-08
-5.55385e-09
3.758e-11
-2.1528e-08
-1.18999e-08
-3.65289e-08
-1.31457e-08
-3.75278e-08
-2.39527e-08
-3.54556e-08
-3.186e-08
-5.75571e-08
5.35843e-09
-3.99927e-08
-3.87995e-08
-5.25033e-08
7.73868e-10
-3.14964e-08
-1.78541e-08
-1.07219e-08
-1.99124e-08
-1.51803e-08
1.61784e-08
-1.25678e-09
-4.40978e-08
4.65441e-09
-4.89269e-09
6.90218e-09
-3.44826e-08
1.05074e-08
-2.64321e-08
1.31339e-08
-3.08525e-08
2.79618e-08
-3.70207e-08
2.4113e-08
-3.25711e-08
3.40805e-08
-3.00263e-08
2.83133e-08
-1.16033e-08
3.91838e-08
-8.27651e-09
6.12658e-08
-3.72141e-09
5.28664e-08
1.4184e-08
6.73474e-08
1.73155e-08
6.38394e-08
2.73653e-08
8.25102e-08
-2.73646e-09
2.69137e-07
-7.00252e-08
-3.06004e-07
-7.23367e-08
2.04527e-07
1.26672e-07
-4.87645e-09
1.34374e-07
-8.19216e-08
5.76133e-08
-1.0109e-07
-4.14966e-08
-1.74599e-07
-8.81866e-09
-1.24946e-07
-6.70112e-08
-1.47267e-07
-6.94991e-08
-1.05984e-07
-5.50498e-09
-9.60254e-08
1.13139e-08
-7.91229e-08
5.3259e-09
-6.34921e-08
-1.49594e-09
-3.69405e-08
-5.74237e-09
-4.19369e-09
-2.08875e-08
-4.83086e-08
7.16427e-08
-9.99036e-08
1.01877e-07
-7.16335e-08
-1.07112e-08
-4.27494e-08
-3.01136e-08
-2.05185e-08
-3.37321e-08
1.48971e-08
-4.35821e-08
-8.02141e-09
7.31953e-09
-9.52744e-09
-1.67515e-09
4.8947e-10
-9.19771e-09
1.81699e-08
-1.52768e-08
3.79118e-08
-1.50373e-08
3.78541e-08
-5.7075e-09
5.0698e-08
-1.9794e-08
5.52564e-08
-3.61936e-08
5.93641e-08
-2.36365e-08
6.16377e-08
-3.08805e-08
6.02588e-08
-2.50094e-08
5.31747e-08
-1.48772e-08
5.30706e-08
-1.00461e-08
5.16319e-08
-2.1051e-09
5.68004e-08
-7.6279e-09
2.02694e-08
-5.36467e-08
-2.71563e-08
4.80967e-08
-7.91059e-08
7.47933e-08
2.69257e-09
-1.70569e-08
-3.08866e-09
1.45867e-08
-3.62536e-09
-1.78677e-08
-4.38393e-08
9.37431e-09
-2.46889e-08
3.11575e-08
-6.89964e-08
3.03765e-08
2.09434e-08
4.18527e-08
-3.23881e-08
5.74086e-08
1.2863e-08
4.70519e-08
-6.65426e-09
3.66724e-08
1.03107e-08
2.92593e-08
-4.86062e-09
1.9723e-08
-3.40793e-09
1.55316e-08
-1.97173e-08
1.68866e-08
-3.35455e-08
1.99597e-08
2.28564e-09
2.97075e-08
-4.83434e-08
2.54899e-08
4.99165e-09
4.08016e-08
-3.35817e-08
3.54717e-08
-1.49406e-08
6.93747e-08
-1.72028e-08
5.11524e-08
-2.51676e-08
4.59337e-08
3.26153e-10
4.18835e-08
-3.07459e-08
3.63302e-08
-2.11482e-08
2.28237e-08
-1.70312e-08
9.58113e-09
-2.37781e-08
-1.32654e-08
-9.72454e-09
-2.959e-08
-1.40035e-08
-4.39452e-08
3.20484e-09
-4.48238e-08
-6.95406e-09
-7.58889e-08
2.61121e-08
-5.25642e-08
-8.59885e-09
-4.39771e-08
9.0843e-09
-2.82985e-08
1.12379e-08
-2.97213e-08
-1.29902e-09
-6.09598e-08
-3.94088e-08
-1.92063e-07
5.95125e-08
-4.64575e-08
-1.69743e-08
9.53485e-10
8.60843e-08
-5.01411e-08
1.08708e-07
-1.80363e-07
9.1499e-08
-7.79944e-08
-1.09296e-07
-3.22253e-08
-1.1457e-07
-8.47482e-08
-1.65921e-08
-7.97402e-08
-9.70462e-09
-1.1206e-07
4.35186e-08
-9.7144e-08
-9.59051e-09
-1.0789e-07
9.24981e-09
-4.50744e-08
-6.84992e-08
2.13675e-07
-2.82519e-07
-2.04517e-07
4.91921e-07
-1.17995e-07
1.41832e-08
-7.10435e-08
-5.88665e-08
-5.44271e-08
-4.61747e-08
-2.01924e-08
-6.83075e-08
7.22369e-08
-1.36217e-07
1.31937e-08
6.69108e-08
-1.11725e-08
2.26911e-08
-1.91006e-08
-1.47742e-09
-1.64751e-08
-1.78757e-08
1.13333e-09
-3.27991e-08
-3.04409e-09
-1.53011e-09
-1.23662e-08
-1.0472e-08
-2.11226e-08
-2.74372e-08
-2.87059e-08
-1.60532e-08
-2.76153e-08
-3.29246e-08
-5.8684e-08
5.86202e-09
-7.64691e-08
2.72633e-09
-9.63822e-08
8.87335e-09
-1.11046e-07
1.2536e-08
-1.27069e-07
9.53966e-09
1.92536e-08
-8.60117e-08
6.49948e-08
-9.30351e-08
-4.93215e-08
-6.739e-08
-1.34423e-08
-3.06099e-08
-3.70902e-08
-1.15355e-09
-3.27692e-08
1.65306e-08
-6.10688e-08
1.38115e-08
-2.19696e-08
1.74867e-08
-7.24948e-08
7.50454e-08
-3.66151e-08
6.355e-08
-2.16502e-08
1.01678e-07
-2.55229e-08
5.88915e-08
3.65693e-08
7.16042e-08
-2.50581e-09
7.16133e-08
-4.139e-09
6.85211e-08
3.91624e-10
5.1304e-08
-2.29682e-09
4.88293e-08
-3.19196e-08
4.51113e-08
6.02721e-09
2.82563e-08
-3.18126e-08
2.82496e-08
4.99854e-09
2.72097e-08
-3.25415e-08
1.91315e-08
-7.01465e-09
1.46583e-08
-1.29048e-08
3.33764e-09
-1.39895e-08
8.07757e-09
-4.28745e-09
-9.04659e-09
-1.37635e-08
-1.49329e-08
-1.51696e-08
-2.30295e-08
-8.93448e-09
-3.04212e-08
-1.63862e-08
-3.62358e-08
-3.90987e-09
-3.78649e-08
-1.25019e-08
-3.67847e-08
2.09198e-09
-4.53283e-08
1.51865e-09
-5.29902e-08
3.34329e-08
-6.12836e-08
-2.19967e-10
-7.05729e-08
1.88509e-08
-6.73861e-08
7.36362e-09
-8.46872e-08
1.6002e-08
-1.23614e-07
3.81954e-10
-1.07004e-07
4.18685e-08
-1.15294e-07
-7.58597e-09
-4.03056e-08
1.10959e-08
1.55834e-07
-8.62532e-08
-3.70295e-07
-9.89008e-08
1.45225e-07
8.44688e-08
-3.22763e-08
6.32435e-08
-7.25596e-08
2.38604e-08
-1.10019e-07
2.77543e-08
-1.34572e-07
6.73847e-08
-1.51163e-07
6.92999e-09
-2.0779e-07
6.5876e-08
-3.49208e-07
6.86563e-08
1.22208e-06
3.07223e-07
-6.85402e-07
-4.58052e-07
4.41451e-08
-9.42493e-09
-7.05372e-08
5.68461e-08
-7.71129e-08
-3.95989e-08
-4.24939e-08
-1.03623e-07
2.591e-07
-4.39653e-07
-4.38261e-08
3.73689e-07
-6.87304e-08
4.87716e-08
-6.68109e-08
-2.71534e-09
-5.92674e-08
-2.56785e-08
-3.65522e-08
-5.6119e-08
-7.49925e-08
3.69101e-08
-7.64596e-08
-9.00487e-09
-8.9076e-08
-1.49736e-08
-1.04866e-07
-2.40269e-09
-1.16831e-07
-2.2177e-08
-1.05266e-07
-3.3898e-09
-1.07331e-07
5.80639e-09
-1.36086e-07
3.65217e-08
-1.41056e-07
1.71993e-08
-1.59824e-07
3.16019e-08
1.27123e-08
-5.62725e-09
5.62043e-08
-2.30611e-08
-2.7927e-08
-4.75058e-09
-2.93763e-08
-1.44521e-08
-2.70926e-08
2.64744e-09
-4.98956e-08
-3.25164e-09
-5.4618e-08
3.86252e-08
-6.38462e-08
5.25434e-08
-8.64128e-08
8.0135e-08
-6.51527e-08
5.61575e-08
2.9241e-09
5.48829e-08
-2.39323e-08
6.7113e-08
2.35394e-08
5.09921e-08
1.35898e-08
3.96296e-08
7.95123e-09
3.24795e-08
7.54199e-09
1.22468e-08
1.74218e-08
-4.28015e-09
-1.55526e-08
-3.80737e-09
5.55951e-09
-2.24509e-08
-1.3306e-08
-1.57416e-08
-1.49667e-09
-4.18231e-08
-6.39458e-09
-5.38351e-08
5.04907e-09
-7.35692e-08
6.07899e-09
-8.63818e-08
-2.89283e-10
-7.72828e-08
-1.32944e-08
-9.18328e-08
1.30564e-10
-9.18531e-08
-1.43587e-08
-9.40134e-08
-6.77408e-09
-1.06975e-07
-3.42425e-09
-8.08612e-08
-3.08487e-08
-8.25221e-08
-1.07304e-08
-3.8411e-08
-4.07614e-08
-6.68592e-08
3.06489e-08
-7.16529e-08
3.7503e-08
-1.00276e-07
2.55975e-08
-1.02291e-07
2.19102e-08
-9.52823e-08
2.44191e-09
-8.62333e-08
6.78963e-09
-9.39996e-08
9.10721e-09
-6.32159e-08
1.04463e-08
-7.23316e-08
8.7811e-10
-4.1402e-08
-1.87909e-08
-7.61393e-08
-5.2047e-08
-2.05058e-07
2.89348e-08
-8.35362e-08
-3.65593e-08
-5.25324e-08
3.30919e-08
-5.62336e-08
2.75616e-08
-4.89117e-08
2.09314e-08
-8.39455e-08
1.0432e-07
-2.22439e-07
1.44575e-07
-9.87822e-08
-5.84457e-08
-2.07011e-08
-9.42485e-09
2.36202e-07
4.65e-08
-1.71175e-07
-5.06751e-08
-9.91428e-08
-8.25648e-08
-8.18477e-08
3.95511e-08
-1.54679e-07
3.44184e-08
-3.68071e-07
1.07106e-07
9.79683e-07
3.83725e-07
-4.3379e-07
-3.9638e-07
-2.75721e-07
-1.07032e-07
-2.31301e-07
-4.76549e-08
-2.00479e-07
-5.79599e-08
-1.91537e-07
-6.36651e-08
-1.54422e-07
-2.0553e-10
-1.50805e-07
-1.41602e-08
-1.54345e-07
-1.13171e-08
-1.4681e-07
-8.44879e-09
-1.65108e-07
-5.16337e-09
-1.57388e-07
-9.55181e-09
-1.47229e-07
-4.20721e-09
-1.50767e-07
4.00955e-08
-1.37807e-07
4.15462e-09
-1.42493e-07
3.5965e-08
-1.94254e-08
-5.42476e-08
9.2448e-08
-6.25371e-08
-5.64023e-09
-1.0843e-07
2.51852e-08
-8.3578e-08
-4.57098e-08
-4.26601e-08
-9.04482e-08
-6.19532e-08
-3.56102e-08
-1.12405e-08
-1.15184e-07
-1.17852e-08
-8.69843e-08
-2.23056e-08
-5.43022e-08
-1.38693e-08
-5.25193e-09
-2.15724e-08
-1.56232e-08
3.01038e-09
-1.05379e-09
2.76872e-08
-1.13385e-08
3.04274e-08
5.2113e-09
2.79407e-08
1.02904e-08
1.48686e-08
3.06458e-08
-2.28556e-08
2.25647e-08
-3.58941e-08
1.86556e-08
-7.72424e-08
2.73835e-08
-7.07011e-08
-6.44643e-09
-9.99517e-08
2.25609e-08
-1.10277e-07
1.41983e-08
-1.08546e-07
4.36515e-09
-1.22913e-07
1.40813e-08
-1.22939e-07
-1.08954e-08
-1.27426e-07
3.32915e-09
-1.21624e-07
-2.14744e-08
-1.08021e-07
-1.9136e-08
-8.01276e-08
-3.10011e-08
-8.41098e-08
-2.62765e-08
-3.095e-08
-6.28346e-08
3.29784e-08
-1.05002e-07
-3.6418e-08
1.00382e-07
-6.27315e-08
6.41992e-08
-6.68687e-08
2.94735e-08
-6.08692e-08
1.54637e-08
-5.5748e-08
-2.67929e-09
-5.55122e-08
6.55377e-09
-4.10568e-08
-5.3483e-09
-4.11013e-08
1.05973e-08
-4.05023e-08
6.83296e-10
-4.78845e-08
-1.18924e-08
-9.38764e-08
-6.54869e-09
-7.95127e-08
1.48692e-08
-1.09424e-07
-6.27136e-09
-7.66496e-08
1.43385e-09
-6.43574e-08
1.52694e-08
-3.45934e-08
-9.18561e-09
1.38721e-07
-6.7227e-08
-3.59022e-07
-6.69555e-08
1.68729e-07
1.19599e-07
4.23497e-08
1.16955e-07
4.57787e-08
4.30709e-08
-7.13097e-09
2.70162e-09
-6.76003e-08
-2.20955e-08
-6.00476e-08
3.06694e-08
-8.35092e-08
5.70193e-08
-6.3851e-08
8.83089e-08
1.88962e-07
1.29577e-07
-1.44704e-07
-6.09823e-08
-2.31461e-07
-2.22428e-08
-2.59434e-07
-2.00553e-08
-2.93851e-07
-2.0384e-08
-3.35263e-07
-1.65363e-08
-2.7817e-07
-5.50009e-08
-2.28271e-07
-6.23669e-08
-1.96403e-07
-4.46035e-08
-1.69182e-07
-3.94379e-08
-1.38766e-07
-3.52662e-08
-1.30799e-07
-1.44923e-08
-9.70216e-08
-3.70809e-08
-7.49429e-08
1.75614e-08
-6.73103e-08
-2.72911e-09
-8.17134e-08
4.9325e-08
-5.48106e-08
-1.51762e-08
7.75627e-08
-3.32638e-08
1.8622e-08
-8.36528e-09
3.40742e-09
-6.55021e-08
1.16886e-08
-2.10509e-07
5.36165e-08
-7.71929e-08
-1.67123e-07
-7.27455e-08
-1.20019e-07
-1.07074e-07
-5.15629e-08
-1.06697e-07
-5.41308e-08
-1.19669e-07
6.68512e-09
-1.08216e-07
-2.84699e-08
-1.11089e-07
1.80831e-09
-1.14658e-07
-6.70411e-09
-1.34974e-07
2.42031e-08
-1.3913e-07
1.4447e-08
-1.25095e-07
1.69269e-08
-1.48825e-07
4.40745e-08
-1.37177e-07
8.45443e-09
-1.40295e-07
3.27192e-08
-1.41646e-07
-5.08141e-09
-1.2163e-07
2.59766e-09
-1.01172e-07
-6.4024e-09
-8.80869e-08
-9.75235e-09
-7.34991e-08
-6.4331e-10
-8.30639e-08
-1.33041e-09
-8.35709e-08
3.87025e-09
-8.59507e-08
-1.88754e-08
-1.0777e-07
3.78337e-09
-1.18302e-07
-2.16639e-08
-1.34729e-07
-9.58127e-09
-6.47409e-08
-1.32097e-07
2.21432e-07
-3.96956e-07
-5.1531e-08
3.69574e-07
-9.61996e-08
1.08868e-07
-7.59585e-08
9.23242e-09
-7.30256e-08
1.26599e-08
-5.63065e-08
-1.93985e-08
-6.73105e-08
1.75577e-08
-5.82234e-08
-1.44354e-08
-5.52912e-08
7.66498e-09
-5.00807e-08
-4.52729e-09
-6.62825e-08
4.18805e-09
-7.60209e-08
2.48089e-09
-7.22416e-08
1.10898e-08
-7.26441e-08
-5.06794e-09
-6.62111e-08
-5.05067e-09
-4.72176e-08
-3.68655e-09
-2.74252e-08
-2.86983e-08
-5.04727e-08
-4.35007e-08
-1.67704e-07
4.92585e-08
-3.59875e-08
-1.04242e-08
2.83491e-08
5.3155e-08
2.7303e-08
4.53078e-08
3.02128e-08
-2.0823e-10
8.59553e-10
7.24901e-09
7.14427e-09
2.41408e-08
1.03559e-08
5.27605e-08
4.73725e-08
5.03914e-08
1.07437e-07
6.84166e-08
3.82873e-08
8.3963e-09
-8.74905e-09
2.57177e-08
-3.14382e-08
3.26805e-09
-4.98361e-08
-2.9281e-09
-1.05249e-07
3.5963e-08
-1.22364e-07
-3.6968e-08
-1.53037e-07
-2.75945e-08
-1.53413e-07
-4.31326e-08
-1.46151e-07
-4.7862e-08
-1.30483e-07
-4.92435e-08
-1.06956e-07
-3.93509e-08
-1.03145e-07
-4.38919e-08
-5.9344e-08
-2.4565e-08
-5.77456e-08
-3.79453e-09
-6.30557e-08
5.45491e-08
1.65254e-10
7.48766e-09
3.94815e-08
6.38851e-09
1.73343e-08
7.89038e-10
8.84623e-09
1.67081e-07
-1.54645e-07
-3.93959e-07
-1.07963e-07
1.09976e-07
4.8154e-08
-8.75786e-08
7.75353e-08
-1.44766e-07
5.62482e-09
-1.30602e-07
-6.95565e-08
-1.53732e-07
2.8247e-08
-1.2686e-07
-5.53411e-08
-1.17228e-07
-7.74439e-09
-1.32014e-07
8.00034e-09
-1.22885e-07
1.64208e-08
-1.3408e-07
2.3883e-08
-1.21664e-07
5.76531e-09
-1.15035e-07
3.89973e-08
-1.01705e-07
-5.14755e-09
-8.06706e-08
9.74506e-09
-8.83162e-08
7.62452e-10
-8.11918e-08
-3.57936e-09
-7.69992e-08
-1.00365e-08
-7.54442e-08
-1.04311e-08
-7.1101e-08
-4.98637e-09
-6.30413e-08
-1.01153e-08
-5.64854e-08
-2.68552e-09
-7.05979e-08
-4.76278e-09
-7.54742e-08
8.65975e-09
-8.33584e-08
-1.31502e-08
-1.4762e-07
5.47774e-08
-3.34276e-07
4.82952e-08
1.01274e-06
4.06622e-07
-3.46852e-07
-3.98447e-07
-1.50644e-07
-8.99602e-08
-1.02586e-07
-3.98726e-08
-8.16268e-08
-8.29939e-09
-8.09054e-08
-1.94859e-08
-6.93229e-08
5.97518e-09
-6.86627e-08
-1.50956e-08
-7.48433e-08
1.38455e-08
-7.4804e-08
-4.56669e-09
-8.02828e-08
9.66678e-09
-7.86102e-08
8.08251e-10
-6.85972e-08
9.63642e-10
-6.59282e-08
-8.49622e-09
-5.78909e-08
-1.24914e-08
-4.08779e-08
-2.01151e-08
-4.89816e-08
-2.10116e-08
-7.82665e-08
-1.38612e-08
-4.91377e-08
2.04197e-08
-6.6207e-08
5.48027e-09
-2.46123e-08
1.1172e-08
-2.53314e-08
4.62806e-08
-2.57468e-08
4.65521e-10
-4.18913e-08
2.35804e-08
-1.5532e-08
-1.81785e-09
-5.95198e-09
4.30237e-08
2.20701e-08
2.25385e-08
3.65979e-08
5.33446e-08
3.19617e-08
1.31181e-08
1.02162e-08
4.77256e-08
-4.09417e-08
5.40416e-08
-1.83225e-08
-2.51297e-08
-3.29188e-08
5.0018e-08
-1.87253e-08
-5.02307e-08
-5.90088e-09
-3.97321e-08
-2.67119e-08
-2.25318e-08
-3.76419e-08
-3.6559e-08
-4.15606e-08
-4.52868e-08
-1.5788e-08
-6.5692e-08
-2.26496e-08
-3.64153e-08
3.01145e-08
-7.57675e-08
-7.60838e-08
1.02364e-07
-7.09597e-08
4.94771e-08
3.32971e-08
-2.71632e-08
5.74516e-08
2.11302e-08
-2.76049e-08
1.46762e-08
1.3287e-08
-9.2845e-08
-4.65882e-08
-2.20842e-07
1.98302e-08
-1.35314e-07
-3.77633e-08
-7.95682e-08
2.31705e-08
-1.62755e-07
8.71516e-08
-3.11776e-07
8.02926e-08
-1.68945e-07
-1.11404e-07
-1.14998e-07
-1.08723e-07
-8.74628e-08
-3.43874e-08
-9.65294e-08
1.69864e-08
-7.77555e-08
-2.51869e-09
-7.45342e-08
2.06619e-08
-7.50723e-08
6.18726e-09
-5.1831e-08
1.56267e-08
-5.83987e-08
1.42041e-09
-3.38033e-08
-1.38206e-08
-3.77141e-08
4.70522e-09
-3.89697e-08
-3.42084e-09
-4.46821e-08
-4.22042e-09
-2.90126e-08
-2.4946e-08
-3.08929e-08
-3.41786e-09
-2.42692e-08
-1.67388e-08
-2.21514e-08
-4.80315e-09
-2.21793e-08
-4.78359e-09
-1.75089e-08
3.98953e-09
-2.75092e-08
-3.18232e-09
-3.25921e-09
3.10864e-08
7.75711e-10
4.42604e-08
2.94229e-07
1.0902e-07
-1.07264e-08
-9.74467e-08
-3.4547e-08
-6.68144e-08
-3.87287e-08
-3.60434e-08
-3.72979e-08
-1.00261e-08
-5.28322e-08
-3.99281e-09
-6.19862e-08
1.55099e-08
-8.93367e-08
1.22549e-08
-8.77319e-08
1.22407e-08
-8.88448e-08
-3.45389e-09
-8.26914e-08
3.51334e-09
-7.62903e-08
-5.5929e-09
-7.5462e-08
-6.34547e-10
-7.0226e-08
-1.37323e-08
-7.48544e-08
-7.16537e-09
-7.71671e-08
-1.80076e-08
-8.89408e-08
-9.33318e-09
-9.03506e-08
-1.15297e-08
-7.23464e-08
2.62175e-09
-7.26628e-08
5.11449e-09
-6.23607e-08
7.63644e-10
-4.08876e-08
2.40896e-08
-1.82344e-08
-2.20016e-08
-1.82414e-08
2.35873e-08
-1.0139e-08
-1.01249e-08
2.2797e-09
3.07533e-08
1.7125e-08
7.51676e-09
3.81379e-08
3.21587e-08
4.04503e-08
1.11947e-08
6.09973e-08
2.69042e-08
-6.35983e-09
1.21464e-07
-1.06354e-07
7.51182e-08
2.82322e-08
-8.54309e-08
9.3532e-08
-1.16475e-07
8.26026e-08
-2.84055e-08
8.33808e-08
-2.3318e-08
8.65679e-08
-3.97784e-08
1.16088e-07
-7.39332e-08
1.88379e-07
-1.34754e-07
1.63506e-07
-1.29708e-08
4.28788e-07
-3.44529e-07
1.29656e-07
4.04825e-07
1.01325e-07
7.78085e-08
5.36246e-08
-7.94027e-09
5.34985e-08
-4.38218e-08
1.38453e-08
-2.14139e-08
-4.72127e-09
-5.76305e-08
-8.80373e-09
-4.65542e-08
8.27912e-09
-5.92411e-08
-2.49441e-08
-1.78785e-09
-3.36782e-08
1.73688e-07
-8.65517e-08
-3.63752e-07
-1.04517e-07
1.61968e-07
7.9583e-08
-2.30395e-08
7.62854e-08
-5.12668e-08
-6.15984e-09
-5.21241e-08
1.87402e-08
-4.36706e-08
-1.08623e-08
-3.70965e-08
1.4088e-08
-3.09665e-08
5.69544e-11
-1.74919e-08
2.15231e-09
-8.74834e-09
-7.33725e-09
-3.62446e-09
-1.91745e-08
1.94183e-08
-1.84875e-08
5.17006e-08
-3.62595e-08
6.32203e-08
-1.57711e-08
6.81045e-08
-2.983e-08
7.38699e-08
-8.58192e-09
6.94079e-08
-1.16418e-08
6.16505e-08
3.58333e-09
5.40064e-08
2.83138e-09
4.15328e-08
1.61711e-08
3.01501e-08
8.2858e-09
4.60423e-08
1.48866e-08
5.66907e-08
3.36121e-08
1.40425e-07
2.52858e-08
6.32253e-08
-1.96015e-08
1.85153e-08
-2.25604e-08
-2.27172e-09
-1.54452e-08
-1.28613e-08
4.32259e-10
-2.51435e-08
8.58972e-09
-1.24706e-08
3.09089e-09
-1.96441e-08
1.93011e-08
-2.68913e-08
1.9291e-08
-4.25589e-08
1.22136e-08
-3.31527e-08
-5.89288e-09
-4.26357e-08
3.85074e-09
-3.90587e-08
-4.21157e-09
-4.11808e-08
-1.21861e-08
-5.28731e-08
4.48022e-09
-6.38817e-08
-6.57198e-09
-8.25728e-08
9.35783e-09
-7.7702e-08
-1.5558e-08
-8.34749e-08
8.42132e-09
-6.84018e-08
-1.06565e-08
-5.68373e-08
-1.0215e-08
-2.75224e-08
-4.65137e-09
-4.12819e-08
-8.52298e-09
-1.85948e-08
1.12928e-09
-1.59457e-08
-1.26113e-08
1.18231e-08
2.98451e-09
1.94358e-08
-5.20115e-11
3.62262e-08
1.55379e-08
4.06859e-08
6.25613e-09
7.86078e-08
-1.10177e-08
2.59801e-07
-5.89277e-08
-2.61972e-07
-1.14174e-07
2.49066e-07
1.17729e-07
6.1453e-08
7.00367e-08
1.78709e-08
1.48896e-08
1.99441e-08
-2.54468e-08
1.04387e-08
-3.0369e-08
3.54158e-08
-1.01057e-07
2.75271e-07
-3.75622e-07
-2.18467e-07
4.81352e-07
1.11457e-06
4.77253e-07
-2.68167e-07
-3.62799e-07
-9.18673e-08
-9.9429e-08
-3.06146e-08
-2.33615e-08
4.97732e-08
-4.55356e-09
-5.5855e-10
-1.10523e-09
-7.5893e-09
-8.02499e-09
-1.84624e-09
1.11364e-08
-1.07685e-08
1.97557e-08
-3.33061e-08
3.27269e-08
-4.68507e-08
-6.8986e-09
-4.69964e-08
-1.41819e-07
3.14805e-08
-2.3732e-08
-3.70568e-08
-4.36512e-09
5.69187e-08
-2.35729e-08
1.26783e-08
-1.40894e-08
9.40219e-09
-5.96562e-09
-1.88931e-08
9.81731e-09
-1.85404e-09
2.72741e-08
-1.73996e-08
3.86757e-08
-8.97353e-09
4.32389e-08
-1.14636e-08
4.96287e-08
-2.5564e-08
4.10598e-08
-1.00206e-08
2.21085e-08
-1.78601e-08
3.0175e-08
-2.4306e-08
7.59292e-09
-7.62639e-09
-7.67529e-09
6.59716e-09
-1.82302e-08
-1.00764e-09
-2.23911e-08
8.07643e-09
-7.73969e-09
-1.17703e-08
7.56101e-11
8.27852e-09
4.47244e-09
3.84406e-09
1.19494e-08
7.36415e-09
2.16894e-08
2.41182e-08
4.0875e-08
6.10029e-09
4.89919e-08
-2.82182e-08
1.71913e-08
9.37331e-09
8.31155e-09
-6.32554e-09
1.18651e-08
-3.08981e-09
1.67151e-08
3.61526e-09
2.56326e-08
-5.79518e-09
3.22619e-08
1.23427e-08
3.60551e-08
1.53428e-08
1.5613e-09
4.75604e-08
4.2515e-08
-4.77677e-08
3.10462e-08
1.51664e-08
7.12077e-08
-4.43306e-08
9.48262e-08
-3.67623e-08
8.73199e-08
1.28536e-08
7.91849e-08
2.45379e-09
6.89915e-08
1.94558e-08
4.85353e-08
4.89814e-09
4.04836e-08
1.66428e-08
3.22079e-08
-2.40544e-09
1.13226e-08
1.07745e-08
1.99036e-08
-1.32799e-08
2.1231e-08
-1.02767e-08
3.20963e-08
-9.73602e-09
2.99592e-08
-1.02514e-08
3.87817e-08
-5.80755e-09
4.76004e-08
-9.35639e-09
6.71089e-08
-4.64837e-09
7.23191e-08
1.70637e-09
8.5437e-08
-2.35102e-08
4.22603e-08
-1.61822e-08
-1.0192e-07
2.89767e-08
1.71973e-08
-2.26141e-09
4.29391e-08
4.41176e-08
8.08051e-09
4.99718e-08
-3.45021e-08
1.74877e-08
-1.06017e-07
4.00755e-08
-3.25783e-07
1.15449e-07
1.04092e-06
4.13933e-07
-3.04491e-07
-3.24653e-07
1.80203e-07
-1.22612e-08
-5.54004e-08
-1.24092e-07
-6.18238e-08
-9.14422e-08
-4.44062e-08
-5.21864e-08
1.13732e-07
-7.46117e-08
3.57681e-08
-1.07836e-08
-6.43785e-08
2.94467e-08
-4.15207e-08
3.96982e-08
-2.154e-08
-2.869e-09
9.50414e-09
1.23604e-09
-5.09555e-08
-2.51201e-08
-2.064e-08
-8.48411e-09
1.43769e-08
-3.02461e-08
-1.52945e-08
1.36372e-08
1.28964e-08
1.33478e-08
1.28383e-08
2.84441e-08
-5.65367e-09
1.98202e-08
-1.0356e-08
2.8049e-08
-1.03877e-08
3.47602e-08
-2.42863e-08
3.47765e-08
-9.08138e-09
3.37904e-08
-1.04773e-08
1.56038e-08
-6.87327e-09
6.30404e-09
-6.62474e-10
-9.54994e-09
-2.09246e-09
-4.49376e-08
1.02623e-08
-7.63172e-08
2.3674e-08
-7.73226e-08
9.09258e-09
-7.49806e-08
-2.54825e-09
-7.52171e-08
8.39795e-09
-5.78614e-08
-3.00134e-08
-6.80202e-08
1.81993e-08
-6.01052e-08
-4.15324e-09
-5.57011e-08
3.03602e-09
-5.82634e-08
2.69584e-08
-7.20841e-08
2.05155e-08
-4.47943e-08
-5.44951e-08
-5.2108e-08
1.73079e-08
-1.36702e-08
-4.56121e-08
2.97232e-09
-1.97014e-08
1.47199e-08
-8.18501e-09
1.98689e-08
-1.0685e-08
3.22413e-08
-3.55031e-10
4.98188e-08
-1.57671e-09
8.78424e-09
8.9199e-08
-1.02737e-07
6.53962e-08
2.62334e-08
-1.1403e-07
6.07266e-08
-7.85589e-08
5.54754e-08
-3.12666e-08
5.00537e-08
1.84064e-08
4.30903e-08
9.41719e-09
3.29832e-08
2.95627e-08
1.43633e-08
2.36646e-08
-5.07646e-09
3.56625e-08
-1.4696e-08
7.34209e-09
-2.0733e-08
1.69613e-08
-3.44715e-08
-2.44759e-10
-4.22826e-08
-2.46572e-09
-3.2996e-08
-1.85959e-08
-3.04952e-08
-1.28851e-08
-1.45881e-08
-2.11874e-08
-2.15033e-08
-2.46636e-09
2.01517e-09
-2.85259e-08
4.42316e-09
-6.7758e-10
1.28924e-08