/*--------------------------------*- C++ -*----------------------------------*\
  =========                 |
  \\      /  F ield         | OpenFOAM: The Open Source CFD Toolbox
   \\    /   O peration     | Website:  https://openfoam.org
    \\  /    A nd           | Version:  12
     \\/     M anipulation  |
\*---------------------------------------------------------------------------*/
FoamFile
{
    format      ascii;
    class       surfaceScalarField;
    location    "1";
    object      phi.water_0;
}
// * * * * * * * * * * * * * * * * * * * * * * * * * * * * * * * * * * * * * //

dimensions      [0 3 -1 0 0 0 0];

internalField   nonuniform List<scalar> 
7375
(
5.47393e-07
-2.92607e-06
-1.77713e-06
-1.01394e-06
3.46477e-07
6.86639e-07
1.25365e-07
1.93119e-07
1.25129e-07
2.01525e-10
1.27113e-07
-7.07363e-10
1.46843e-07
-1.97571e-08
1.48279e-07
-2.91909e-09
1.31359e-07
1.84361e-08
1.3946e-07
-8.10026e-09
1.31277e-07
1.08637e-08
1.36258e-07
-5.01675e-09
1.16454e-07
1.85938e-08
1.18146e-07
-1.67315e-09
1.24208e-07
-7.26517e-09
1.45608e-07
-2.31272e-08
1.41314e-07
2.86609e-09
1.41192e-07
1.53292e-09
1.47304e-07
-6.11287e-09
1.48739e-07
-1.45061e-09
1.40711e-07
8.11026e-09
1.43084e-07
-3.81821e-09
1.45846e-07
-1.30386e-09
1.38743e-07
7.1773e-09
1.31664e-07
8.49491e-09
1.21382e-07
1.16425e-08
1.22445e-07
-2.32939e-09
1.80441e-07
-5.92312e-08
5.42701e-07
-3.62259e-07
1.87629e-07
3.55074e-07
1.43605e-07
4.50195e-08
1.41877e-07
1.72628e-09
2.23022e-07
-8.25775e-08
5.74239e-07
-3.5621e-07
2.1837e-07
3.55872e-07
1.63322e-07
5.39289e-08
1.66953e-07
-3.66714e-09
1.70182e-07
-1.50748e-09
1.82742e-07
-1.25601e-08
1.83868e-07
-2.96827e-09
1.9537e-07
-9.52908e-09
1.93565e-07
3.83488e-09
2.11538e-07
-1.77922e-08
2.34202e-07
-2.00395e-08
2.78529e-07
-5.01373e-08
3.02739e-07
-3.00801e-08
2.77184e-07
2.83264e-08
2.3575e-07
4.42657e-08
1.84324e-07
5.27747e-08
1.38683e-07
4.51905e-08
1.07527e-07
3.05237e-08
8.44491e-08
2.37055e-08
8.22513e-08
1.30747e-09
8.6677e-08
-5.31853e-09
9.04403e-08
-2.88007e-09
1.05126e-07
-1.57755e-08
1.16159e-07
-1.22181e-08
1.29358e-07
-1.21403e-08
1.31741e-07
-2.36434e-09
1.73355e-07
-3.80829e-08
1.60338e-07
1.29323e-08
1.83823e-07
-2.73332e-08
1.4499e-07
3.77335e-08
1.33483e-07
1.16249e-08
1.26016e-07
8.73879e-09
1.28929e-07
-2.91684e-09
1.33347e-07
-4.37378e-09
1.34046e-07
-2.08843e-09
1.34764e-07
6.43685e-10
1.25896e-07
1.01625e-08
1.28043e-07
-3.43607e-09
1.30556e-07
-3.88387e-09
1.29074e-07
1.48197e-09
1.20318e-07
9.97406e-09
1.13775e-08
9.15492e-07
-1.0992e-06
-9.04527e-07
-1.84447e-06
-5.12837e-08
-1.49657e-07
1.67275e-07
-2.30836e-08
1.24136e-07
4.45945e-08
1.27592e-07
-4.1646e-09
9.85056e-08
8.24043e-09
8.95166e-08
6.9736e-09
8.84783e-08
1.96748e-08
7.39373e-08
6.44023e-09
8.5211e-08
-4.06216e-10
6.28372e-08
1.89342e-08
9.50702e-08
-1.44789e-08
8.32689e-08
8.22438e-09
9.96405e-08
-2.17712e-08
1.00553e-07
-2.42904e-08
1.15782e-07
-1.43948e-08
1.29176e-07
-1.30187e-08
1.27415e-07
-1.7437e-09
1.44242e-07
-1.71561e-08
1.39916e-07
1.09646e-08
1.37778e-07
-3.09421e-09
1.42464e-07
-6.00273e-09
1.33427e-07
1.90285e-08
1.26482e-07
1.5369e-08
9.62702e-08
4.22894e-08
3.51754e-08
5.84027e-08
-1.29279e-07
1.04868e-07
1.22661e-06
3.9924e-07
-1.32029e-07
-4.06446e-07
1.84921e-08
-1.07654e-07
2.60286e-08
-5.58464e-09
-1.51754e-07
9.15324e-08
1.27786e-06
3.97718e-07
-1.48344e-07
-3.88465e-07
2.37606e-08
-1.1793e-07
6.33418e-08
-4.41837e-08
9.37667e-08
-3.22464e-08
1.10332e-07
-2.92945e-08
1.49049e-07
-4.21102e-08
1.41583e-07
-6.39253e-10
1.58991e-07
-1.36128e-08
1.7798e-07
-3.85963e-08
2.13742e-07
-5.39861e-08
2.67693e-07
-1.00334e-07
3.56382e-07
-1.26735e-07
3.11237e-07
7.30207e-08
2.92237e-07
6.41133e-08
2.88423e-07
5.42235e-08
2.88783e-07
4.48239e-08
2.6894e-07
5.05666e-08
2.48111e-07
4.4506e-08
2.2895e-07
2.50198e-08
2.23058e-07
5.23249e-09
1.92653e-07
2.52254e-08
1.79132e-07
-2.25441e-09
1.64803e-07
3.64631e-09
1.64336e-07
-1.50662e-08
1.7328e-07
-1.28381e-08
1.65055e-07
-3.00807e-08
1.72045e-07
9.34494e-09
1.32409e-07
1.54729e-08
1.35671e-07
3.28027e-08
1.11607e-07
3.32596e-08
1.23009e-07
-3.78956e-09
1.25158e-07
-5.03682e-09
1.27563e-07
-5.43514e-09
1.37633e-07
-1.07335e-08
1.34986e-07
5.16289e-10
1.49877e-07
-4.7832e-09
1.39473e-07
1.00218e-08
1.36669e-07
-1.07887e-09
1.37913e-07
-2.54833e-09
1.43748e-07
2.68808e-09
9.16404e-09
-8.51942e-07
1.28309e-07
-1.03096e-07
4.84299e-08
-2.32925e-07
-4.18211e-09
-1.41684e-07
-1.11948e-07
-8.25095e-08
-1.3284e-08
-4.56024e-08
-4.103e-08
-3.73676e-08
5.27767e-12
-3.1773e-08
1.04723e-09
-3.28185e-08
2.03924e-08
-3.88603e-08
1.32129e-08
-3.92283e-08
-4.30429e-10
-2.46615e-08
4.21683e-09
-2.12335e-08
-1.73658e-08
-4.1746e-09
-8.87713e-09
2.20752e-09
-2.81312e-08
2.65579e-09
-2.45161e-08
1.47516e-08
-2.66668e-08
3.48262e-08
-3.30936e-08
4.3264e-08
-9.31687e-09
4.99349e-08
-2.32047e-08
6.07781e-08
-1.00841e-09
6.30007e-08
-5.26407e-09
1.05723e-07
-4.81434e-08
7.00403e-08
5.45525e-08
7.16773e-08
1.50242e-08
5.60802e-08
5.86326e-08
5.13846e-08
6.1358e-08
7.51544e-08
8.14007e-08
3.62019e-07
1.16031e-07
4.59122e-08
-9.03239e-08
-7.58025e-10
-6.25588e-08
1.69431e-08
-2.35726e-08
5.8333e-08
5.03153e-08
3.56239e-07
9.63147e-08
4.85287e-08
-8.07547e-08
-1.19656e-08
-5.67281e-08
-2.31696e-08
-3.2965e-08
-7.89371e-09
-4.83359e-08
2.43162e-08
-6.07174e-08
6.45022e-08
-8.27301e-08
6.80464e-08
-4.84137e-09
6.11859e-08
-6.68393e-09
6.37005e-08
-4.04609e-08
6.21467e-08
-5.41876e-08
1.14969e-07
-1.50094e-07
4.22433e-07
-4.37368e-07
1.50588e-07
3.39431e-07
1.24612e-07
9.29254e-08
1.44185e-07
3.57803e-08
1.70215e-07
1.81441e-08
1.72316e-07
4.72445e-08
1.97917e-07
1.73401e-08
1.92455e-07
3.07349e-08
1.91057e-07
8.62841e-09
1.78399e-07
4.02671e-08
1.61002e-07
1.34832e-08
1.34644e-07
2.8342e-08
1.2259e-07
-2.73559e-09
1.12037e-07
-1.28359e-09
9.59293e-08
-1.08408e-08
9.83817e-08
5.92908e-09
9.1285e-08
1.91202e-08
1.02389e-07
2.11538e-08
1.15213e-07
2.1141e-08
1.20605e-07
-1.04504e-08
1.16878e-07
-2.51573e-09
1.16167e-07
-4.77126e-09
1.16289e-07
-9.47842e-09
1.16941e-07
-1.42353e-10
1.18197e-07
-4.84571e-09
1.1046e-07
1.89772e-08
1.08237e-07
2.87887e-11
8.89316e-08
1.67577e-08
9.5243e-08
-4.52128e-09
8.82487e-09
8.53395e-08
6.94896e-08
1.52761e-07
-5.28365e-08
1.08257e-07
2.03178e-08
7.26851e-08
-7.85848e-08
2.72683e-08
3.24635e-08
1.65858e-08
-3.07664e-08
-2.78756e-09
1.94068e-08
-1.09069e-08
9.17681e-09
-1.95728e-08
2.90348e-08
-2.49529e-08
1.86568e-08
-3.93603e-08
1.38325e-08
-3.10025e-08
-4.6332e-09
-2.4174e-08
-2.41253e-08
-1.20918e-08
-2.09597e-08
-2.00429e-09
-3.83425e-08
-1.04271e-09
-2.5228e-08
-6.14727e-09
-2.1772e-08
-3.12912e-09
-3.64148e-08
1.16653e-09
-1.37386e-08
-1.53383e-08
-6.45171e-09
-2.183e-08
5.7645e-09
-1.60759e-08
-1.10717e-08
-6.40294e-08
-1.01789e-09
-3.55925e-08
2.58488e-08
-5.25152e-08
3.27976e-08
-3.84939e-08
4.34148e-08
-2.63732e-08
4.9237e-08
1.17872e-08
4.36858e-08
8.24575e-08
4.65443e-08
5.43081e-09
-1.23759e-08
-4.10578e-08
-1.58509e-08
-6.35425e-08
-1.331e-09
-2.61813e-08
1.34727e-08
3.53797e-08
3.43992e-08
-1.919e-08
-2.5722e-08
-6.68437e-08
-1.03328e-08
-5.73698e-08
-4.25927e-08
-3.43231e-08
-7.03443e-08
1.40052e-08
-1.08699e-07
9.21606e-08
-1.61547e-07
4.48629e-08
4.19988e-08
2.25867e-08
1.55924e-08
-1.57682e-08
-2.03633e-09
-6.63141e-08
-2.37511e-09
-2.66942e-07
5.01949e-08
1.07033e-06
3.51586e-07
-2.74117e-07
-4.30087e-07
-8.17657e-08
-1.02954e-07
-2.52077e-08
-2.1666e-08
3.50925e-09
-1.06098e-08
2.7901e-08
2.27812e-08
4.71195e-08
-1.85949e-09
6.40881e-08
1.48856e-08
5.54289e-08
1.84303e-08
5.8762e-08
3.63567e-08
4.91194e-08
2.20139e-08
4.0123e-08
3.76276e-08
4.13258e-08
-3.97906e-09
2.81034e-08
1.19257e-08
3.23423e-08
-1.52991e-08
3.14262e-08
6.40798e-09
4.97121e-08
6.431e-10
5.34246e-08
1.83422e-08
4.88172e-08
2.62934e-08
3.56473e-08
3.08329e-09
2.99948e-08
3.11088e-09
3.70284e-08
-1.24106e-08
3.40292e-08
-6.57491e-09
4.91442e-08
-1.54115e-08
5.34484e-08
-9.19889e-09
6.65024e-08
6.2115e-09
7.28518e-08
-6.32024e-09
6.78906e-08
2.10268e-08
6.19096e-08
1.44535e-09
1.14071e-08
1.06984e-07
-9.8958e-08
-9.66412e-09
3.90458e-08
-8.12033e-08
9.44337e-08
-3.29462e-08
-1.24693e-07
-4.08589e-08
4.03759e-08
-3.00125e-08
-4.11962e-08
1.85784e-10
-1.07919e-08
-2.4075e-08
3.32853e-08
-1.24518e-08
1.75395e-08
8.64934e-09
-2.40632e-09
-3.317e-09
2.5992e-08
7.96412e-09
-1.59489e-08
2.21047e-09
-1.86435e-08
1.21654e-08
-3.11289e-08
-4.2722e-09
-2.19053e-08
-1.39031e-08
-1.57583e-08
-1.42585e-08
-2.1417e-08
-4.54077e-08
-5.63761e-09
-5.10901e-08
-8.1967e-09
-6.02591e-08
2.10208e-09
-7.00635e-08
1.55686e-08
-8.4338e-08
2.9438e-09
-1.26035e-07
4.15494e-08
-7.66903e-08
-2.32587e-08
-1.00397e-07
5.57133e-08
-7.09782e-08
1.50203e-08
-5.45205e-08
3.18975e-08
-3.69532e-08
2.63903e-08
-1.48449e-09
1.14524e-08
-3.70778e-10
-1.34897e-08
-6.51545e-09
-9.70627e-09
6.38125e-09
-1.41491e-08
1.65332e-08
3.15032e-09
4.37079e-08
6.71021e-09
4.58923e-08
-2.79286e-08
5.37405e-08
-1.89147e-08
4.46728e-08
-3.21219e-08
4.41067e-08
-6.93118e-08
4.23869e-08
-1.07656e-07
3.21331e-07
-4.45078e-07
3.51165e-09
3.5654e-07
-4.87837e-08
6.8047e-08
-4.32874e-08
-7.09089e-09
-4.12016e-08
-4.85288e-09
-3.44309e-08
4.38718e-08
2.28567e-07
8.80468e-08
-6.08431e-08
-1.43577e-07
-8.78887e-08
-7.51495e-08
-6.84968e-08
-4.28695e-08
-6.77117e-08
-1.11761e-08
-4.39838e-08
1.92751e-10
-5.92064e-08
1.28955e-08
-3.88043e-08
-6.12675e-09
-2.7575e-08
7.40878e-09
-2.926e-08
3.73827e-08
-6.29127e-08
5.56666e-08
-6.13577e-08
3.60884e-08
-8.50847e-08
1.95465e-08
-8.16237e-08
9.33274e-09
-6.89505e-08
-2.79724e-08
-4.53287e-08
-1.6686e-08
-3.11444e-08
-1.37108e-08
-3.31247e-09
-9.52351e-09
2.02402e-08
2.7466e-09
2.55724e-08
-2.24893e-09
2.76223e-08
7.47556e-10
3.76789e-08
-2.24672e-08
3.97481e-08
-8.32677e-09
4.02236e-08
-1.5887e-08
4.71019e-08
-1.64833e-08
6.57608e-08
-1.24474e-08
6.07746e-08
-6.62826e-10
7.70036e-08
4.01283e-09
7.38771e-08
3.84051e-09
2.03094e-08
-2.05298e-08
-8.3233e-08
4.08063e-09
2.04511e-08
5.25776e-08
4.37144e-08
2.47765e-08
-9.79651e-08
3.09202e-08
3.38199e-08
4.89143e-08
-5.91906e-08
1.81163e-08
2.00058e-08
6.4647e-08
-1.31121e-08
3.53227e-08
4.66846e-08
2.64296e-08
6.39658e-09
3.80657e-09
4.88798e-08
2.68269e-08
-3.85332e-08
1.69964e-08
-8.90524e-09
-6.70658e-09
-7.5997e-09
-2.67505e-08
-2.13467e-09
-3.06122e-08
-1.2021e-08
-3.12326e-08
-2.04847e-08
-5.4893e-08
1.78404e-08
-3.75309e-08
-2.55593e-08
-5.22488e-08
1.68197e-08
-2.43553e-08
-1.24841e-08
-1.27678e-08
-8.4278e-09
-2.76385e-08
5.54402e-08
-1.26173e-08
-3.87994e-08
3.76664e-09
3.87607e-08
1.38952e-08
4.74969e-09
3.34062e-08
1.27238e-08
5.09068e-08
8.96183e-09
6.80479e-08
-6.20818e-09
6.36299e-08
-9.07182e-09
6.86551e-08
-1.47316e-08
5.83402e-08
-3.87367e-09
7.17299e-08
-1.01678e-08
9.44377e-08
-1.59291e-08
7.41311e-08
-6.93643e-09
6.62727e-08
-1.11364e-08
2.78598e-08
5.57141e-09
-5.00717e-08
8.61986e-09
-2.54827e-07
9.50111e-08
1.06844e-06
4.0141e-07
-3.3084e-07
-3.94064e-07
-1.54158e-07
-1.08634e-07
-7.00529e-08
-9.11963e-08
1.28331e-08
-8.77882e-08
-3.13659e-08
8.70552e-08
1.57146e-08
4.15942e-08
-7.61746e-08
-5.12686e-08
-9.005e-08
-6.2173e-08
-8.72807e-08
-4.65669e-08
-6.8697e-08
-2.87553e-08
-6.12534e-08
-7.87569e-09
-5.50901e-08
6.86509e-09
-2.56846e-08
-3.49077e-08
4.55192e-08
-6.33306e-08
-3.22388e-08
1.13966e-07
-6.53706e-08
8.85593e-08
-6.04354e-08
3.17698e-08
-5.57045e-08
1.4472e-08
-3.58821e-08
-1.10579e-08
-4.55184e-08
-1.83362e-08
-2.17431e-08
-3.98331e-08
-2.28178e-09
-3.32875e-08
2.00554e-08
-3.199e-08
3.75649e-08
-1.45604e-08
4.18374e-08
-6.13812e-09
4.97544e-08
-7.16935e-09
4.91687e-08
-2.21107e-08
5.0245e-08
-9.40312e-09
4.96325e-08
-1.57808e-08
4.35173e-08
-1.04738e-08
3.3121e-08
-1.734e-09
3.11032e-08
1.36935e-09
2.91233e-08
6.05501e-09
3.44054e-08
-1.77128e-09
2.50703e-08
-4.36033e-08
-3.53033e-08
7.31105e-08
-9.7612e-08
1.04262e-07
1.71185e-09
2.18152e-09
9.3404e-10
3.93948e-08
-3.39364e-09
5.31086e-08
-7.29048e-08
6.2819e-08
9.55665e-09
8.93491e-08
-3.96424e-08
1.46095e-08
1.22186e-07
-6.76332e-08
8.86389e-08
6.0831e-08
-7.9464e-08
9.35006e-08
-7.02494e-08
6.38292e-08
2.06448e-08
4.45099e-08
1.1068e-08
3.07815e-08
1.19074e-08
2.18563e-08
-3.00323e-09
2.15968e-08
-2.06689e-08
2.43868e-08
1.505e-08
3.62999e-08
-3.72239e-08
3.30242e-08
2.00949e-08
4.55877e-08
-2.55131e-08
3.15884e-08
5.25215e-09
7.98801e-08
8.02714e-09
5.16921e-08
-9.79683e-09
5.91172e-08
3.13354e-08
5.9955e-08
3.95189e-09
6.01325e-08
1.26759e-08
5.17359e-08
1.72669e-08
4.19012e-08
3.62635e-09
1.6836e-08
1.59933e-08
-4.99338e-09
7.04677e-09
-2.48136e-08
1.62022e-08
-2.5981e-08
-8.74983e-09
-5.9128e-08
1.63497e-08
-4.23111e-08
-2.33172e-08
-5.3616e-08
7.08406e-10
-6.37366e-08
1.51451e-08
-9.3758e-08
3.89508e-08
-5.24154e-08
5.31339e-08
2.29981e-07
1.14876e-07
-7.17072e-08
-9.4721e-08
-1.05604e-07
-7.39825e-08
-7.37022e-08
-1.23098e-07
2.39876e-07
-4.07975e-07
-3.10578e-08
3.5472e-07
-4.68455e-08
5.70153e-08
-7.73064e-08
-2.0762e-08
-6.24124e-08
-7.69126e-08
-7.97033e-08
-2.88008e-08
-5.99194e-08
-4.85392e-08
-8.09343e-08
1.31393e-08
-9.60189e-08
2.18797e-08
-7.38693e-08
-5.70573e-08
2.19683e-07
-3.62826e-07
-7.44788e-08
4.02909e-07
-9.96193e-08
1.1294e-07
-8.73408e-08
2.03824e-08
-7.59996e-08
3.2769e-09
-3.9699e-08
-4.81339e-08
-2.07545e-08
-3.7451e-08
-1.47781e-08
-4.58096e-08
-1.39309e-08
-3.46251e-08
-1.07231e-08
-3.51654e-08
1.08606e-08
-3.62927e-08
-8.18729e-09
1.29099e-08
-1.7883e-08
2.52647e-09
-2.76409e-08
-1.23528e-08
-3.80465e-08
1.00253e-09
-3.87866e-08
-1.57578e-08
-7.79227e-08
2.88517e-08
-9.98412e-08
1.99611e-08
-1.20944e-07
2.12259e-08
-1.36417e-07
2.1592e-08
-1.51941e-07
1.51589e-08
2.40261e-08
-8.32377e-08
4.9127e-08
-1.07517e-07
-4.92214e-08
-4.67729e-08
-4.90941e-08
2.58844e-08
-6.97952e-08
7.54695e-08
-5.32431e-08
7.1762e-08
-6.92235e-08
5.59922e-08
2.53261e-08
9.19108e-08
-7.46332e-08
3.00506e-07
-8.64091e-08
-2.13514e-07
-1.06172e-07
3.00407e-07
1.13557e-07
1.11756e-07
1.20327e-07
9.65435e-08
3.5648e-08
8.71826e-08
2.14134e-08
7.83531e-08
2.19844e-08
5.81971e-08
1.71834e-08
5.59916e-08
-1.9254e-08
5.00919e-08
2.11029e-08
3.46494e-08
-2.20064e-08
3.3165e-08
2.1579e-08
3.06747e-08
-2.30231e-08
2.46888e-08
1.12912e-08
2.64591e-08
6.33843e-09
1.66237e-08
3.87018e-11
1.99074e-08
2.79692e-08
1.01202e-08
1.38819e-08
9.2472e-09
1.34454e-08
3.78974e-09
2.27242e-08
-6.19262e-09
1.36086e-08
-7.54731e-09
1.73479e-08
-2.14036e-08
2.11185e-08
-2.94048e-08
2.40381e-08
-3.15938e-08
-6.65018e-09
-3.5479e-08
2.00306e-08
-4.75947e-08
-1.10766e-08
-6.31247e-08
1.65841e-08
-6.18421e-08
1.32317e-08
-6.79955e-08
4.51043e-08
-6.05936e-08
4.64258e-08
-8.81361e-09
6.12987e-08
-9.21982e-08
-1.05028e-08
-1.70219e-07
4.03817e-09
-3.62297e-07
6.3548e-08
1.01611e-06
3.64182e-07
-3.49034e-07
-4.08329e-07
-1.54287e-07
-1.4071e-07
-1.11667e-07
-6.31704e-08
-1.18385e-07
-7.01941e-08
-6.45091e-08
-8.18418e-08
-2.77626e-08
-8.44244e-08
-1.08077e-07
9.34541e-08
-1.96482e-07
1.0917e-07
-3.96097e-07
1.38518e-07
9.73139e-07
4.18943e-07
-3.67117e-07
-3.79982e-07
-1.65113e-07
-9.37654e-08
-9.46819e-08
-5.0049e-08
-6.30731e-08
-2.82985e-08
-4.56462e-08
-6.60265e-08
-5.35345e-08
-3.0185e-08
-3.66752e-08
-6.32351e-08
-3.50828e-08
-3.58596e-08
-4.07498e-08
-2.97993e-08
-4.37817e-09
-7.308e-08
-6.58761e-08
7.44079e-08
-7.43752e-08
1.10256e-08
-9.33281e-08
6.66817e-09
-1.15004e-07
2.03322e-08
-1.31598e-07
-5.34302e-10
-1.26697e-07
2.66412e-08
-1.30133e-07
2.44396e-08
-1.63105e-07
5.28575e-08
-1.69654e-07
2.76338e-08
-1.86639e-07
3.59918e-08
1.2763e-08
1.45502e-08
-6.36253e-10
1.22471e-08
-5.25535e-08
4.84173e-08
-9.09327e-08
5.95315e-08
-8.30204e-08
7.88134e-08
-7.33294e-08
5.84419e-08
-4.83638e-08
1.00999e-07
-1.72312e-08
9.71408e-08
-7.07755e-08
7.65617e-08
-6.62967e-08
-5.45536e-08
2.46405e-08
5.36202e-08
5.99114e-09
9.09038e-08
8.16624e-08
6.83639e-08
5.85512e-08
4.98032e-08
4.05759e-08
3.92955e-08
3.24917e-08
1.85138e-08
3.71765e-08
2.34551e-09
-3.11822e-09
1.57689e-09
2.18633e-08
-2.27197e-08
2.31371e-09
-7.01299e-09
6.16656e-09
-3.93388e-08
9.20841e-09
-4.9803e-08
2.19793e-08
-7.00874e-08
2.59075e-08
-9.23199e-08
2.34643e-08
-5.24734e-08
-1.14752e-08
-6.60328e-08
2.64843e-08
-6.49723e-08
1.31929e-08
-6.71248e-08
2.48765e-08
-9.17702e-08
3.82539e-08
-5.2889e-08
-2.2073e-08
-8.57268e-08
5.34058e-08
-5.11857e-08
-9.53129e-09
-6.20568e-08
4.854e-09
-5.47876e-08
1.22082e-08
-7.92776e-08
1.12145e-08
-7.95986e-08
1.77307e-08
-7.38664e-08
9.12367e-09
-5.38448e-08
2.46226e-08
-4.58404e-08
3.88892e-08
-9.72298e-09
2.50832e-08
-4.4169e-08
2.38431e-08
-5.98622e-08
2.00191e-08
-5.33612e-08
5.76351e-08
2.38588e-07
7.09512e-08
-6.58463e-08
-1.09228e-07
-1.03788e-07
-1.02097e-07
-1.08817e-07
-5.81409e-08
-1.078e-07
-7.01117e-08
-7.80648e-08
-1.11919e-07
1.99687e-07
-3.62964e-07
-9.31828e-08
3.8538e-07
-1.25162e-07
1.41149e-07
-7.22014e-08
8.3429e-08
2.23343e-07
1.19124e-07
-6.04072e-08
-1.00724e-07
-8.8319e-08
-6.58535e-08
-9.15417e-08
-4.63986e-08
-9.4901e-08
-2.51963e-08
-1.2785e-07
-3.5686e-08
-1.38222e-07
-2.11587e-08
-1.7011e-07
-2.90971e-08
-1.76776e-07
-2.98715e-08
-1.69271e-07
-3.84035e-08
-1.82634e-07
-5.85869e-08
-1.41184e-07
3.29573e-08
-1.44047e-07
1.24194e-08
-1.55979e-07
1.84104e-08
-1.55888e-07
2.20578e-08
-1.85986e-07
2.79624e-08
-1.8001e-07
2.24779e-08
-1.76762e-07
2.10121e-08
-1.83954e-07
6.01244e-08
-1.71375e-07
1.47544e-08
-1.74039e-07
3.82887e-08
-2.19639e-08
-6.21312e-08
5.98416e-08
-6.55288e-08
-3.3146e-08
-1.01307e-07
-4.64903e-08
-8.57614e-09
-1.71252e-07
8.59391e-08
-1.70372e-07
2.96713e-08
7.1882e-09
2.51988e-08
-1.24594e-08
8.7288e-09
-5.46817e-08
-1.50119e-08
-4.22754e-08
-1.88535e-08
2.88904e-08
-2.78851e-08
1.54381e-08
7.44739e-09
4.68022e-08
3.20192e-08
3.37283e-08
3.48819e-08
3.77129e-08
3.07858e-08
3.66542e-08
1.83033e-08
4.98454e-08
-2.15762e-08
3.71761e-08
-3.50408e-08
3.55529e-08
-7.61154e-08
4.25796e-08
-6.78273e-08
-6.31784e-10
-9.53249e-08
3.6428e-08
-1.0131e-07
2.6706e-08
-8.96151e-08
1.4332e-08
-9.82372e-08
3.18443e-08
-1.12246e-07
4.56371e-09
-1.10553e-07
2.34068e-08
-9.20936e-08
-6.40602e-09
-6.88232e-08
2.54546e-09
-5.03744e-08
1.96049e-08
-6.97071e-08
-2.05017e-09
-2.63841e-08
9.71176e-09
-3.26494e-08
-3.53255e-09
-3.66169e-08
8.48845e-09
-3.54526e-08
1.11684e-08
-3.4162e-08
9.80942e-09
-2.75813e-08
1.07884e-08
-2.19003e-08
3.44273e-09
-2.05632e-08
2.32856e-08
4.44854e-09
1.38775e-08
2.19683e-09
2.75909e-08
-1.71876e-09
2.75331e-08
-5.72687e-09
2.39694e-08
8.50322e-09
4.33461e-08
6.12454e-08
1.89405e-08
-2.73866e-08
-1.94705e-08
-7.63753e-08
-5.2829e-08
-1.13708e-07
-2.08081e-08
-1.87972e-07
2.23496e-09
-3.84797e-07
8.2898e-08
9.98795e-07
3.82466e-07
-3.57543e-07
-3.7567e-07
-1.32786e-07
-8.36068e-08
-3.52561e-08
-1.41012e-08
5.67694e-08
2.67393e-08
-9.89881e-09
-3.40561e-08
-4.19109e-08
-3.32579e-08
-6.98377e-08
-1.91917e-08
-8.07421e-08
-1.3572e-08
-1.14403e-07
-2.36847e-09
-1.45356e-07
7.16062e-09
-1.87811e-07
1.11468e-08
-1.9867e-07
-1.90403e-08
-2.46838e-07
1.16108e-08
-3.18059e-07
1.80949e-08
-2.57254e-07
-2.51152e-08
-2.12701e-07
-3.0272e-08
-1.96603e-07
1.39054e-10
-1.80818e-07
2.38361e-09
-1.55773e-07
3.17521e-09
-1.62023e-07
3.14477e-08
-1.31214e-07
-8.02947e-09
-1.11221e-07
3.97198e-08
-1.04869e-07
9.51464e-09
-1.15809e-07
4.77832e-08
-3.72061e-08
-7.07795e-08
1.13642e-07
-5.73949e-08
-2.54603e-08
-5.02581e-08
-4.62083e-08
-5.21283e-08
-1.67812e-07
2.28281e-07
-4.52556e-07
-7.10542e-08
3.04245e-07
-1.18495e-07
3.55789e-08
-1.06767e-07
-6.53207e-08
-9.14132e-08
-5.72027e-08
-1.0083e-07
3.708e-08
-1.13086e-07
2.68133e-08
-1.23287e-07
5.74855e-08
-1.2423e-07
3.62988e-08
-1.44035e-07
5.64322e-08
-1.44061e-07
3.66801e-08
-1.28445e-07
3.47427e-08
-1.53692e-07
5.98391e-08
-1.34587e-07
1.78479e-08
-1.36976e-07
4.68261e-08
-1.39075e-07
1.48872e-09
-1.14219e-07
1.181e-08
-9.07202e-08
2.93702e-09
-7.62297e-08
-1.08426e-09
-5.68026e-08
1.19698e-08
-6.45581e-08
1.2319e-08
-5.48944e-08
1.39817e-08
-5.37186e-08
-7.5167e-09
-7.06601e-08
2.02077e-08
-3.4301e-08
-1.71007e-08
-5.66636e-08
2.03333e-08
-1.61378e-08
-3.01438e-08
-4.50488e-08
2.51777e-08
-2.49194e-08
-1.16409e-08
-3.89369e-08
2.5186e-08
-2.12618e-08
-7.86563e-09
-3.09846e-08
2.07226e-08
-1.42715e-08
-1.32704e-08
-2.77065e-08
3.67207e-08
-1.35907e-08
-2.3823e-10
-1.11087e-08
2.5109e-08
-5.47433e-10
1.69719e-08
-6.98564e-09
3.06523e-08
8.99911e-09
2.70111e-08
6.36943e-09
2.15703e-08
-1.25107e-08
-4.56647e-10
-5.0572e-08
-1.49198e-08
-6.83017e-08
-3.04724e-09
-7.13223e-08
5.98325e-09
-4.224e-08
5.29786e-08
2.52126e-07
8.67838e-08
-3.62241e-08
-8.9866e-08
-3.52804e-08
-8.5413e-08
-2.15321e-08
-2.86455e-08
3.81768e-08
-3.29695e-08
2.37921e-08
-1.9914e-08
1.38774e-08
-2.31098e-08
-2.34336e-10
-4.6947e-09
3.13711e-09
-1.68049e-08
-7.64506e-10
1.54096e-09
9.3113e-09
-3.08152e-09
8.98078e-10
1.94198e-08
2.54561e-08
-4.34618e-08
7.90651e-09
2.9642e-08
-5.31048e-08
7.70912e-08
-7.72399e-08
-6.78279e-10
-1.35026e-07
3.04986e-08
-1.509e-07
1.7378e-08
-1.54686e-07
4.60526e-09
-1.55294e-07
5.33515e-09
-1.41154e-07
1.57242e-08
-1.49803e-07
-2.4874e-09
-1.0887e-07
1.45256e-09
-8.33664e-08
-1.49433e-08
-1.24913e-07
8.8967e-08
6.27975e-08
-3.12672e-08
1.21511e-07
-5.52463e-08
7.9402e-09
-1.63012e-07
7.33803e-08
-3.42328e-07
1.99914e-08
1.00489e-06
3.69453e-07
-4.20364e-07
-4.27203e-07
-2.19856e-07
-1.6493e-07
-1.39007e-07
-1.4617e-07
-6.61236e-08
-1.32017e-07
-1.00883e-07
7.08098e-08
-1.38864e-07
6.47944e-08
-1.41116e-07
5.91273e-08
-1.52401e-07
4.70976e-08
-1.37201e-07
4.27873e-08
-1.44683e-07
4.18843e-08
-1.28248e-07
1.96286e-08
-1.20596e-07
5.3555e-08
-1.03277e-07
1.75299e-10
-7.73623e-08
1.88957e-08
-8.54189e-08
7.80207e-09
-7.38612e-08
1.12082e-09
-6.80842e-08
-2.09969e-09
-6.69138e-08
-1.55639e-09
-5.43701e-08
-5.74147e-10
-4.03086e-08
-2.29734e-09
-3.08436e-08
4.5164e-09
-3.78694e-08
-4.9111e-10
-2.40873e-08
6.4255e-09
-1.23041e-08
-2.8933e-08
-4.02562e-08
4.80799e-08
-1.30568e-08
-5.80615e-08
-1.71941e-08
2.93149e-08
-2.7824e-08
-1.01107e-09
-1.98027e-08
1.69913e-08
-2.91095e-08
1.1442e-09
-2.90239e-08
2.06371e-08
-4.19497e-08
-4.88827e-11
-2.89407e-08
2.37117e-08
-2.56063e-08
-3.57252e-09
-2.53873e-08
2.48901e-08
-1.4902e-08
6.48672e-09
-1.30926e-08
2.8843e-08
-6.7928e-09
2.07114e-08
-7.52432e-09
2.20818e-08
-1.70772e-08
9.01405e-09
-3.05639e-08
-1.11796e-09
-2.78457e-08
-5.4567e-09
-2.82766e-08
6.13013e-09
-3.245e-10
2.55703e-08
6.66033e-08
1.89916e-08
-7.6029e-09
-1.50639e-08
-2.37563e-08
-7.04631e-08
-4.48967e-08
-7.26015e-09
-3.35068e-08
-4.39013e-08
-4.50287e-08
-7.85259e-09
-2.20769e-08
-4.60721e-08
-2.49785e-08
-2.01601e-09
-1.76825e-08
-2.46068e-08
-2.34924e-08
7.27658e-09
-8.26884e-09
-1.83365e-08
-5.64806e-09
1.69972e-08
-4.13079e-10
-4.91443e-08
1.03267e-07
-7.40337e-08
7.24294e-08
1.05329e-07
-1.09102e-08
8.25717e-08
-1.42795e-08
3.32179e-08
-3.39592e-08
3.6859e-08
-4.92611e-08
1.97063e-08
-6.65566e-08
2.173e-08
-6.21674e-08
1.08565e-08
-7.61324e-08
1.21442e-08
-6.23593e-08
-1.20712e-08
-3.48152e-08
-4.2641e-08
1.46111e-07
-9.01133e-08
-1.32172e-07
-3.71432e-08
1.55408e-07
-6.29419e-08
4.39502e-08
-7.46411e-08
9.13554e-08
-8.03738e-08
3.0903e-08
1.90608e-07
9.7466e-08
-1.28092e-07
-1.09634e-07
-1.58902e-07
-1.32812e-07
-1.50105e-07
-1.56499e-07
1.54342e-07
-4.41009e-07
-1.4861e-07
3.72187e-07
-1.78947e-07
9.44695e-08
-1.3504e-07
1.6598e-08
-1.28668e-07
4.02491e-08
-9.84925e-08
1.21798e-08
-8.80917e-08
3.14832e-08
-8.4352e-08
1.5492e-08
-5.47772e-08
2.39675e-08
-6.1334e-08
6.73184e-09
-3.17052e-08
-9.60317e-09
-3.39992e-08
1.00401e-08
-3.38451e-08
-7.10955e-11
-3.3451e-08
-2.47245e-09
-1.17903e-08
-2.23164e-08
-1.35346e-08
1.03326e-09
-1.60255e-09
-1.42297e-08
4.37123e-09
-1.45759e-09
8.76526e-09
-4.93568e-09
1.98512e-08
-4.66056e-09
6.12511e-09
-1.53639e-08
5.64393e-08
-1.74384e-09
2.17318e-08
-2.33541e-08
3.68328e-08
1.42138e-08
2.4479e-08
1.1093e-08
2.80537e-08
1.35534e-08
1.12286e-08
1.82555e-08
2.67075e-09
2.90117e-08
-2.08023e-08
2.36682e-08
-2.86726e-08
3.14731e-08
-5.08891e-08
1.86441e-08
-3.8627e-08
1.2628e-08
-2.39304e-08
-8.20975e-09
-7.80084e-09
1.27135e-08
-7.10998e-09
2.00206e-08
-1.82464e-08
3.30322e-08
-2.86487e-08
1.94165e-08
-4.3896e-08
1.47337e-08
-5.25935e-08
3.18517e-09
-5.65913e-08
1.02324e-08
-3.26701e-08
1.98253e-09
-1.01339e-08
-3.35281e-09
-1.34808e-08
-1.19739e-08
-3.86013e-08
-4.50837e-08
-3.56386e-08
-1.00463e-08
-1.19591e-08
-6.74587e-08
-1.49756e-08
-4.83598e-09
-1.72179e-08
-4.44525e-08
-1.71715e-08
-2.23535e-09
-1.82128e-08
-2.33777e-08
-2.35366e-08
1.27843e-08
-4.0664e-08
-1.44915e-09
-3.56273e-09
-1.9901e-08
2.15427e-08
-7.44695e-08
3.44528e-07
-3.96272e-07
3.85231e-08
4.15531e-07
3.16691e-08
8.91059e-08
4.87698e-08
1.57852e-08
7.31845e-08
1.21978e-08
8.51174e-08
7.65299e-09
1.00638e-07
7.06936e-09
1.11852e-07
5.52353e-10
1.32122e-07
-9.69648e-09
1.43759e-07
-2.3707e-08
1.32698e-07
-2.99842e-08
9.48711e-08
-5.22859e-08
2.71797e-09
1.41763e-08
1.05597e-07
-1.00592e-08
7.03005e-08
-1.07843e-08
9.1417e-08
-2.44501e-08
4.48034e-08
2.42171e-08
4.90455e-08
-3.8563e-08
-4.62003e-08
-1.23749e-07
-4.72333e-08
-3.5225e-07
6.84081e-08
1.00291e-06
3.73259e-07
-3.76105e-07
-3.9802e-07
-1.81866e-07
-9.977e-08
-1.23478e-07
-4.17899e-08
-9.16993e-08
9.91706e-09
-6.80422e-08
-1.13629e-08
-5.34586e-08
1.68993e-08
-4.07753e-08
2.78026e-09
-2.16162e-08
4.80795e-09
-1.09809e-08
-3.97182e-09
-1.37734e-09
-1.9417e-08
2.45642e-08
-1.605e-08
6.20893e-08
-3.82242e-08
7.42961e-08
-1.47529e-08
8.29785e-08
-3.0999e-08
9.16457e-08
-6.86557e-09
8.88363e-08
-1.05937e-08
8.60521e-08
2.20435e-09
7.97507e-08
1.3516e-09
6.94081e-08
5.52002e-09
5.92498e-08
-5.25994e-09
7.13656e-08
-1.44642e-08
5.80491e-08
-1.00377e-08
8.46765e-08
-1.24136e-08
7.8224e-08
1.83435e-08
6.1391e-08
3.02146e-08
3.66716e-08
4.23486e-08
1.85041e-08
4.73681e-08
-2.58893e-09
4.45439e-08
1.07408e-08
1.81696e-08
8.54143e-09
2.09531e-08
2.11325e-08
3.66813e-11
3.81391e-08
-2.52163e-08
5.39813e-08
-3.12853e-09
3.72212e-08
3.64094e-08
1.14526e-08
5.88009e-08
-3.83921e-09
3.40842e-08
-2.68689e-08
3.73743e-08
-3.78414e-08
1.43198e-08
-5.10388e-08
2.34299e-08
-3.83368e-08
-1.01987e-08
-4.44185e-08
2.69474e-09
-2.67626e-08
-2.99028e-08
-3.72927e-08
-3.41691e-08
-1.15678e-08
-3.53945e-08
-4.00391e-08
-3.91054e-08
-1.5478e-08
-2.91489e-08
-2.08247e-08
-3.88933e-08
-2.70634e-09
-2.03537e-08
-7.09009e-09
-1.8783e-08
-1.51482e-09
7.26538e-09
-1.06146e-08
7.68064e-09
-5.18543e-08
2.13387e-08
-2.7269e-07
1.45838e-07
1.11187e-06
3.5054e-07
-2.47693e-07
-3.67649e-07
-5.0772e-08
-1.07484e-07
-1.05457e-08
-2.42816e-08
2.8105e-08
-2.64359e-08
4.63997e-08
-1.04568e-08
6.91742e-08
-1.65071e-08
7.36934e-08
-3.22254e-09
7.42831e-08
-9.62552e-09
6.37583e-08
-1.33944e-08
3.12339e-08
2.54085e-09
-1.17978e-09
-2.02026e-08
1.01526e-08
1.3641e-08
4.96139e-08
5.02205e-09
7.50625e-08
3.59069e-08
5.79217e-08
-7.00352e-08
1.50448e-07
6.37883e-08
-8.41276e-08
6.94267e-08
-5.13628e-08
9.60722e-09
1.18776e-08
-2.73769e-09
8.07248e-08
2.69131e-07
9.75428e-08
-3.63269e-08
-9.53078e-08
-7.76942e-08
-5.8403e-08
-7.54403e-08
-4.43611e-08
-4.80923e-08
-1.69357e-08
-2.84798e-08
-3.03172e-08
-4.93155e-09
-6.88707e-09
1.78132e-08
-1.99648e-08
3.28822e-08
-1.00815e-08
4.20222e-08
-1.26877e-08
5.11314e-08
-2.85266e-08
4.57313e-08
-1.076e-08
2.82098e-08
-2.13104e-08
4.16862e-08
-2.88054e-08
2.2948e-08
-1.25968e-08
1.19879e-08
4.38354e-09
1.25197e-09
1.84255e-11
-3.41022e-09
6.81878e-09
1.52437e-08
-1.74701e-08
1.77178e-08
3.37867e-09
1.74872e-08
-4.84263e-09
2.21018e-08
-1.92573e-08
2.85586e-08
-1.66646e-08
5.46472e-08
-3.85024e-08
8.40037e-08
-1.187e-08
6.14868e-08
5.19022e-08
3.90076e-08
6.47941e-08
3.00176e-08
5.57889e-08
3.00441e-08
4.3618e-08
3.37052e-08
1.4694e-08
4.36348e-08
1.05783e-08
6.78923e-08
-2.39786e-08
1.00825e-07
-5.80481e-08
1.89721e-07
-9.49286e-08
1.35577e-07
8.96481e-08
1.08525e-07
8.5259e-08
1.12642e-07
2.88295e-08
1.03896e-07
4.65028e-08
9.90575e-08
2.02187e-08
9.34917e-08
2.87567e-08
7.7423e-08
5.87009e-09
7.08881e-08
9.3248e-09
5.83266e-08
-1.752e-08
3.35073e-08
-9.00115e-09
3.53109e-08
-3.75592e-08
2.98697e-08
-3.46764e-08
3.38656e-08
-3.31448e-08
2.77793e-08
-3.2796e-08
2.95221e-08
-2.23041e-08
3.02231e-08
-1.97923e-08
4.14667e-08
-4.39689e-09
3.02424e-08
1.91305e-08
2.40588e-08
2.80486e-08
6.98021e-08
9.93824e-08
3.2749e-07
9.61601e-08
3.17457e-08
-6.82019e-08
5.02957e-09
-8.10952e-08
-4.3318e-09
-1.5376e-08
-7.45406e-09
-2.32375e-08
-4.83824e-09
-1.31214e-08
-2.0505e-08
-8.99336e-10
-1.72315e-08
-6.42972e-09
-2.59503e-08
-5.39882e-10
-3.25335e-08
-6.54865e-09
-3.19205e-08
1.55489e-09
-3.25818e-08
-1.90147e-08
9.73138e-09
-2.05261e-08
5.91539e-08
8.21515e-08
-3.36533e-08
2.78396e-07
-1.53096e-07
-2.15398e-07
-9.04498e-08
2.95901e-07
1.21001e-07
8.66599e-08
1.56803e-07
3.79481e-08
6.05891e-08
5.68779e-08
6.17947e-08
1.03155e-07
4.97626e-08
3.30461e-08
-2.51992e-08
9.82487e-09
-3.52823e-08
-7.77265e-09
-2.64964e-08
8.05176e-09
-3.26669e-08
3.2819e-09
-2.55958e-08
1.57426e-08
-1.9579e-08
2.64629e-08
-3.08871e-08
2.94286e-08
-1.31806e-08
3.05468e-08
-1.38062e-08
1.51955e-08
-1.2709e-08
9.09381e-09
-4.61248e-09
-2.67618e-09
-9.73476e-09
-3.6469e-08
4.27034e-09
-6.43127e-08
1.51155e-08
-5.73671e-08
-1.29478e-09
-5.48205e-08
-1.94947e-09
-6.3892e-08
1.60521e-08
-3.33556e-08
-4.88367e-08
-6.67109e-08
3.68394e-08
-6.06118e-08
-1.10054e-08
-5.97684e-08
-2.02993e-08
-5.5927e-08
-2.07196e-08
-2.07779e-08
-7.30811e-08
5.66818e-08
-8.9e-08
1.1594e-08
9.7397e-08
-5.01864e-09
8.24067e-08
-1.01537e-09
5.12279e-08
8.73202e-09
3.42058e-08
6.94892e-09
1.63989e-08
6.27418e-09
1.10761e-08
6.18285e-09
-2.40669e-08
3.28812e-08
-8.43437e-08
3.3483e-07
-4.0484e-07
5.41425e-08
3.7106e-07
3.25104e-08
1.07438e-07
3.97554e-08
2.22104e-08
5.09225e-08
3.58101e-08
5.38024e-08
1.7339e-08
5.06053e-08
3.19539e-08
3.56514e-08
2.11878e-08
1.685e-08
2.80112e-08
5.83639e-09
-6.74952e-09
-3.91869e-09
6.94463e-10
-2.09044e-08
-2.1e-08
-3.20961e-08
-2.34845e-08
-2.77755e-08
-3.7432e-08
-3.09593e-08
-2.99205e-08
-1.62268e-08
-3.63499e-08
-3.09203e-08
-5.15128e-09
-9.03329e-09
-2.6507e-08
-5.13842e-09
1.52746e-08
2.1898e-08
9.59881e-10
6.14215e-08
5.98588e-08
1.17943e-07
4.06192e-08
5.28423e-08
-2.40488e-09
8.13167e-10
-2.85213e-08
-7.53288e-09
-7.0298e-09
-2.80975e-08