/*--------------------------------*- C++ -*----------------------------------*\
  =========                 |
  \\      /  F ield         | OpenFOAM: The Open Source CFD Toolbox
   \\    /   O peration     | Website:  https://openfoam.org
    \\  /    A nd           | Version:  12
     \\/     M anipulation  |
\*---------------------------------------------------------------------------*/
FoamFile
{
    format      ascii;
    class       volVectorField;
    location    "1";
    object      U.water;
}
// * * * * * * * * * * * * * * * * * * * * * * * * * * * * * * * * * * * * * //

dimensions      [0 1 -1 0 0 0 0];

internalField   nonuniform List<vector> 
3750
(
(-0.108792 0.0677197 0)
(0.00547527 0.0764687 0)
(0.0253382 0.0496923 0)
(-0.00602019 0.0262427 0)
(-0.0132187 0.00242 0)
(-0.0052885 0.0145603 0)
(-0.00653049 0.00431478 0)
(-0.00233534 0.0188986 0)
(0.0013022 0.0077118 0)
(-0.00105805 0.0149041 0)
(0.00232031 0.0133444 0)
(-0.00360244 0.0101959 0)
(0.00263195 0.0123287 0)
(0.00011253 0.00978537 0)
(0.000450767 0.0148847 0)
(-0.00222901 0.00964689 0)
(0.000232974 0.0165035 0)
(0.0011071 0.0136472 0)
(-0.00117039 0.0148745 0)
(-0.000252174 0.0141888 0)
(-5.57146e-05 0.0162405 0)
(-0.000478278 0.0156826 0)
(-0.000900059 0.0173456 0)
(-0.000361781 0.0168449 0)
(-0.000397844 0.0173477 0)
(0.000395317 0.0180658 0)
(-0.00203353 0.019222 0)
(0.00195202 0.0135069 0)
(-0.00876056 0.00717107 0)
(0.00826687 0.00962431 0)
(-0.00230177 0.0163907 0)
(1.05451e-05 0.022 0)
(0.00114917 0.0184413 0)
(-0.00869655 0.00877274 0)
(0.00811443 0.0116436 0)
(-0.00192874 0.0167143 0)
(0.000978968 0.0222294 0)
(0.00229678 0.0207427 0)
(0.000373005 0.0177704 0)
(0.0013361 0.0155852 0)
(-0.00176922 0.0171906 0)
(0.00158535 0.0153054 0)
(-0.00203148 0.0159987 0)
(0.00060508 0.0151091 0)
(-0.00216181 0.0171801 0)
(0.000182829 0.0195454 0)
(0.0010908 0.0185419 0)
(0.00177576 0.0193943 0)
(0.00262166 0.0180494 0)
(0.00321119 0.0138282 0)
(0.000681485 0.0117283 0)
(0.000182152 0.00824263 0)
(-0.00166034 0.00783128 0)
(-0.00194015 0.00799865 0)
(-0.00156497 0.00774567 0)
(-0.00204459 0.0101732 0)
(-0.00202691 0.0101463 0)
(0.000796469 0.0126635 0)
(0.000396936 0.0172951 0)
(-0.00121425 0.0170401 0)
(-0.00162627 0.0076992 0)
(-0.00114485 0.0107655 0)
(0.0011637 0.0144951 0)
(-0.00050726 0.0198172 0)
(0.000870305 0.013519 0)
(-0.000801381 0.0124705 0)
(-0.000271596 0.0122403 0)
(0.000444158 0.0143305 0)
(-8.90793e-05 0.012864 0)
(0.00118319 0.0119523 0)
(-0.00122087 0.0143691 0)
(0.000247493 0.0143122 0)
(0.00119645 0.0150404 0)
(0.00094347 0.013784 0)
(0.000749633 0.0132262 0)
(-0.0466665 0.000203046 0)
(-0.0325437 0.0191905 0)
(0.0412579 0.0105867 0)
(0.008449 0.0355493 0)
(0.00533956 0.0049186 0)
(0.00212891 0.0145484 0)
(0.00154509 0.00608999 0)
(0.000933316 0.00984107 0)
(0.0017372 0.00414358 0)
(-0.000704612 0.0088985 0)
(-0.000581865 0.00505748 0)
(0.00209745 0.00773996 0)
(0.00123446 0.00378805 0)
(-0.000548169 0.0105451 0)
(-0.00237469 0.00668766 0)
(-0.00271795 0.0110068 0)
(-0.000356336 0.00856953 0)
(-0.00132171 0.0134806 0)
(-0.000577479 0.0139754 0)
(-0.000598881 0.0137285 0)
(0.000617072 0.0155139 0)
(-0.00140534 0.0144437 0)
(-0.000532737 0.0168144 0)
(0.000282523 0.0177503 0)
(-0.000519597 0.0150679 0)
(-0.00135844 0.0180802 0)
(-0.00165572 0.0169542 0)
(-0.00416291 0.00483945 0)
(-0.0036268 0.00912619 0)
(-0.00100989 0.0153512 0)
(-0.00165172 0.00496101 0)
(0.000785051 0.0254239 0)
(-0.000968368 0.00615559 0)
(0.00209055 0.0108117 0)
(0.00228761 0.0149869 0)
(0.00416794 0.00106776 0)
(0.0029897 0.016891 0)
(0.00343999 0.0118257 0)
(0.00206038 0.00937354 0)
(0.000991316 0.0103908 0)
(0.00127305 0.0118218 0)
(-0.000129137 0.0134527 0)
(-0.000270581 0.0118594 0)
(-0.000552228 0.0155742 0)
(-0.000424438 0.0145238 0)
(-0.00195755 0.0202129 0)
(-0.00223081 0.0198372 0)
(-0.00210938 0.0231777 0)
(0.00234292 0.0273761 0)
(0.00342733 0.028557 0)
(0.00491485 0.0278185 0)
(0.00452385 0.0252065 0)
(0.00194756 0.024145 0)
(0.000880683 0.0213869 0)
(0.000650454 0.0205457 0)
(-0.001742 0.0187702 0)
(-0.000531657 0.0161283 0)
(-0.00277432 0.0157363 0)
(-0.000136559 0.0161938 0)
(-0.00409433 0.0181598 0)
(-0.00268695 0.0153495 0)
(0.00409994 0.012594 0)
(0.00436908 0.0129616 0)
(0.00190325 0.0132213 0)
(0.000642297 0.0127465 0)
(-8.1392e-05 0.0110234 0)
(-0.000715093 0.014705 0)
(-0.00078889 0.0110858 0)
(-0.000343831 0.0134678 0)
(-0.000690477 0.0129354 0)
(-0.000339298 0.0138296 0)
(-0.00132891 0.0150904 0)
(-0.00105798 0.0155837 0)
(0.000806317 0.0154361 0)
(0.00136349 0.0161435 0)
(-0.0357302 -0.0684172 0)
(-0.00748196 -0.0275735 0)
(0.021747 -0.0243003 0)
(-0.0100051 -0.00865205 0)
(-0.0010298 -0.010779 0)
(-0.00534399 -0.00348304 0)
(-0.00187479 -0.00780956 0)
(-0.00116532 -0.00175996 0)
(0.000579594 -0.00758888 0)
(0.000917479 -0.00152288 0)
(-0.000412591 -0.00697233 0)
(0.000302157 -0.005118 0)
(-0.0023913 -0.00317814 0)
(-0.000763778 -0.00153208 0)
(-0.00201805 -0.00176447 0)
(-0.00309001 0.00106002 0)
(-0.00345178 -0.000887752 0)
(-0.00241699 0.00313111 0)
(-0.000855833 0.00429092 0)
(-0.00504595 0.00432304 0)
(-0.00102356 0.00775729 0)
(-0.00188482 0.00586038 0)
(-0.00209202 0.0109119 0)
(-0.000509722 0.00995827 0)
(-0.00156968 0.00977394 0)
(0.000517811 0.0094132 0)
(-0.00187532 0.00927522 0)
(-0.00704307 0.0034039 0)
(0.00631758 0.00100873 0)
(-0.00825221 -0.000900701 0)
(0.00463828 0.00114963 0)
(-0.00161009 0.00909256 0)
(-0.00326214 0.00333806 0)
(0.00700967 -0.000654244 0)
(-0.00186446 -0.00192698 0)
(0.00732861 0.000298501 0)
(0.00565836 0.00218674 0)
(0.00309353 0.000525103 0)
(0.00361588 -0.00031976 0)
(-0.00265928 0.000390602 0)
(0.00161778 0.00283407 0)
(-0.00306451 0.00309832 0)
(-0.00600898 0.00606562 0)
(-0.00300373 0.00596879 0)
(0.000225666 0.00410697 0)
(-0.0121211 0.00209386 0)
(0.00236225 0.00568424 0)
(-0.00569795 0.0112805 0)
(-0.00031256 0.0146686 0)
(0.00291828 0.0164164 0)
(0.00345478 0.0180295 0)
(0.00373977 0.0180723 0)
(0.00326685 0.0202151 0)
(0.000446258 0.0192698 0)
(0.00415383 0.0157156 0)
(0.000814633 0.0164925 0)
(0.000699246 0.0118152 0)
(-0.000370583 0.0133489 0)
(-0.00109587 0.0153512 0)
(-0.000932627 0.00970391 0)
(-0.000471425 0.0100657 0)
(0.00377489 0.0103285 0)
(0.00214857 0.00873591 0)
(0.00243821 0.0125157 0)
(-0.00225074 0.012005 0)
(-0.000986331 0.0116304 0)
(-0.000909656 0.0105619 0)
(-0.00179739 0.0125133 0)
(-2.3347e-05 0.0110718 0)
(-0.000290747 0.0121827 0)
(0.00161075 0.0116284 0)
(0.000453461 0.0118143 0)
(-0.000232449 0.0118944 0)
(-0.000664283 0.0115385 0)
(0.000269877 0.011685 0)
(0.0748227 0.0212243 0)
(-0.0181538 0.0116338 0)
(-0.00760615 -0.00493721 0)
(-0.008932 0.0123231 0)
(-0.00162446 -0.00366445 0)
(-0.004325 0.00476282 0)
(-0.000479862 -0.00440674 0)
(0.000267217 0.000146755 0)
(0.00223501 -0.00475783 0)
(0.00130017 -0.0021417 0)
(4.83446e-06 -0.00313 0)
(-0.000780957 -0.00152981 0)
(-0.00107719 -0.00256339 0)
(-0.00145617 0.000177278 0)
(-0.00356676 -0.00149663 0)
(-0.00305041 0.00244062 0)
(-0.00369357 -0.00259185 0)
(-0.00477874 0.000273605 0)
(-0.00267044 -0.000532062 0)
(-0.000470501 0.000377687 0)
(-0.00281568 -0.00104096 0)
(-0.00164944 0.0014198 0)
(-0.00330752 -0.000903259 0)
(-0.00224735 -0.00179226 0)
(-0.00327897 -0.00252553 0)
(-0.000310062 -0.00101888 0)
(-0.00289945 -0.00315592 0)
(-0.00525263 -0.00378501 0)
(-0.00179787 -0.00498986 0)
(0.000336731 -0.00554825 0)
(0.0015264 -0.00481472 0)
(-0.000789822 -0.00537467 0)
(-0.00322791 -0.005761 0)
(0.00303243 -0.00815116 0)
(0.00556621 -0.00528818 0)
(0.0105536 -0.00823361 0)
(0.00805212 -0.00266111 0)
(0.00589115 -0.00316496 0)
(0.00336599 -0.00455056 0)
(-0.00189371 -0.00102939 0)
(-0.00446614 -0.00408463 0)
(-0.00450008 0.00257655 0)
(-0.00385431 0.00018985 0)
(-0.00325003 0.00489683 0)
(-0.00630714 -0.0115377 0)
(-0.00540472 -0.00336407 0)
(-0.00150067 -0.000657218 0)
(0.000239277 -0.0104924 0)
(0.00134493 0.00405012 0)
(-0.000230225 0.00151436 0)
(0.00485027 0.00295722 0)
(-1.63737e-05 0.00416956 0)
(0.00309752 0.00442572 0)
(0.00135243 0.00694944 0)
(0.00447727 0.00181723 0)
(0.000138955 0.00669933 0)
(0.00187526 0.00204813 0)
(-0.00203073 0.00675145 0)
(0.000456119 0.00419934 0)
(-0.000859416 0.00524906 0)
(0.00223852 0.00424122 0)
(-0.000118161 0.00448286 0)
(0.00241731 0.00671943 0)
(0.00194214 0.0058883 0)
(-0.000314908 0.0039195 0)
(-0.000633443 0.00380267 0)
(-0.000691455 0.00418237 0)
(-0.00170977 0.00378544 0)
(-0.00174859 0.00551797 0)
(-0.00114212 0.00695618 0)
(0.0011647 0.00683382 0)
(-0.00153235 0.00820414 0)
(0.00322385 0.00901055 0)
(-0.00069121 0.0087461 0)
(0.000835368 0.00736093 0)
(-0.0102657 0.00813552 0)
(0.00450059 0.0103588 0)
(0.0177894 -0.0225007 0)
(-0.00263007 -0.00485371 0)
(0.00635245 -0.0111711 0)
(-0.00262504 -0.00295223 0)
(0.00179472 -0.00446728 0)
(-0.00272291 0.000344606 0)
(0.000558536 -0.00449429 0)
(-0.00101556 0.000935735 0)
(0.000677857 0.000124546 0)
(-0.00215059 0.000116572 0)
(-0.00291434 -0.00039779 0)
(-0.00213871 0.00013126 0)
(-0.00289771 -0.000954038 0)
(-0.00300766 -0.00148693 0)
(-0.00278092 -0.00214171 0)
(-0.00423267 -0.00270561 0)
(-0.00135013 -0.00480294 0)
(-0.00361755 -0.00672604 0)
(-0.000423702 -6.16455e-05 0)
(-0.00218004 -0.00700081 0)
(0.000157477 -0.006454 0)
(-0.00280326 -0.00563829 0)
(-0.000141689 -0.00869117 0)
(-0.00228181 -0.00428769 0)
(-0.000640951 -0.00944255 0)
(-0.0029364 -0.00831287 0)
(-0.000423352 -0.00651705 0)
(-0.00196242 -0.00570796 0)
(0.000857011 -0.00586676 0)
(6.15137e-05 -0.00102482 0)
(-0.000450158 -0.00387373 0)
(0.00469793 -0.00161828 0)
(0.00040002 -0.000145526 0)
(0.00534809 0.00351117 0)
(0.00212042 0.00665797 0)
(0.00121312 0.00943841 0)
(0.00479253 0.00415698 0)
(-0.0117578 -0.00468086 0)
(0.00674443 -0.000994295 0)
(-0.00658292 -0.00606706 0)
(-0.000691785 0.00188863 0)
(-0.00480159 -0.00287139 0)
(-0.00837987 -0.00855168 0)
(0.00228751 -0.0129027 0)
(-0.0129345 -0.0166297 0)
(0.00306688 -0.00987429 0)
(0.00216432 -0.00485781 0)
(0.00126081 -0.00695054 0)
(0.0024386 -0.00191451 0)
(0.00102058 -0.00694117 0)
(0.00197076 -0.00364485 0)
(0.00438688 -0.00414396 0)
(0.00324474 -0.00581886 0)
(0.000830378 -0.0059126 0)
(0.00145671 -0.00590962 0)
(-0.00188548 -0.00665209 0)
(0.000192255 -0.00363371 0)
(-0.00197715 -0.00599101 0)
(-0.000201633 -0.00219763 0)
(0.00104254 -0.00324957 0)
(0.00194684 -0.00117327 0)
(0.00292194 0.00060961 0)
(0.000635306 0.003853 0)
(0.000798136 0.0016535 0)
(-0.00282153 0.00455185 0)
(-0.00124218 0.00389891 0)
(-0.00339779 0.00627702 0)
(-0.00196897 0.00355142 0)
(-0.00180175 0.00979923 0)
(-0.00118627 0.00613611 0)
(-0.000196482 0.0100301 0)
(0.000227906 0.00852429 0)
(0.000959706 0.0106633 0)
(-0.00950676 -0.00403516 0)
(-0.0036562 -0.00341068 0)
(-0.000245362 0.00117913 0)
(-0.0193244 0.000854861 0)
(0.00173524 -0.00164856 0)
(-0.00681013 0.0030434 0)
(5.8382e-05 -0.000437152 0)
(-0.00200078 0.00367619 0)
(0.0012202 0.0029459 0)
(0.00045596 0.00424484 0)
(-0.00179815 0.00264433 0)
(-0.00178955 0.000958264 0)
(-0.00259854 3.45008e-05 0)
(-0.00276831 -0.00055355 0)
(-0.0017805 -0.00340456 0)
(-0.00168436 -0.00403512 0)
(-0.0027258 -0.0030077 0)
(0.00137534 -0.00508638 0)
(-0.00294807 -0.00498572 0)
(0.00154636 -0.00362707 0)
(-0.000106363 -0.0027901 0)
(-0.000824563 -0.00200427 0)
(-0.000317889 6.07663e-05 0)
(-0.00243212 -0.00122333 0)
(0.000476827 0.000900383 0)
(-0.00286815 0.000689244 0)
(-0.0030603 0.00072104 0)
(-0.00324501 0.000526908 0)
(-0.00397561 0.00345209 0)
(-0.00490501 0.00219006 0)
(-0.00312722 0.00318794 0)
(-0.00286597 0.00317429 0)
(-0.000250254 0.00195604 0)
(-0.00174618 0.00476331 0)
(0.00199848 0.00699464 0)
(0.00207658 0.0049504 0)
(0.00321709 0.00968629 0)
(0.00190627 0.00611102 0)
(0.00480543 -0.00350753 0)
(0.00285952 -0.00207475 0)
(0.00326737 0.000722017 0)
(0.00612611 -0.017056 0)
(0.00224938 -0.00295506 0)
(7.34709e-05 -0.00652931 0)
(-0.0069613 -0.0131398 0)
(-0.00666694 -0.0130834 0)
(-0.00589393 -0.013325 0)
(0.00325299 -0.0103143 0)
(0.000751004 -0.0123487 0)
(0.00314858 -0.00685461 0)
(-0.000307659 -0.00707309 0)
(0.00158043 -0.00623212 0)
(-0.000747613 -0.00154026 0)
(0.0089404 -0.000785858 0)
(0.0054339 -0.00642778 0)
(0.00116305 -0.00759037 0)
(-0.002596 -0.00633906 0)
(-0.00114501 -0.00255735 0)
(-0.00220652 -0.000258022 0)
(0.00107025 8.28543e-05 0)
(-0.000726114 -0.000330428 0)
(-0.000507134 -0.000676597 0)
(-0.00185014 0.00132758 0)
(-0.00175726 0.00279792 0)
(-0.00215925 0.00347597 0)
(-0.00258906 0.00525102 0)
(-0.00332315 0.00549929 0)
(-0.00232396 0.00650297 0)
(-0.00237272 0.0047113 0)
(-0.00234309 0.00736576 0)
(-0.00211481 0.00438064 0)
(-0.000737795 0.00607987 0)
(-0.000594887 0.00503417 0)
(-0.000525735 0.00490543 0)
(0.00188075 0.00609309 0)
(-0.00767211 -0.00226888 0)
(0.0056931 -0.0129496 0)
(0.00884598 0.0223945 0)
(0.000618781 -0.010824 0)
(0.00428133 0.00781557 0)
(-0.0021064 -0.000166408 0)
(0.00180792 0.00135841 0)
(-0.00274062 0.00497209 0)
(0.00394426 0.00104265 0)
(-0.00361172 0.00327205 0)
(0.00269599 0.000558389 0)
(-0.00290383 0.00382492 0)
(0.00197651 0.00470273 0)
(0.00060839 0.00452423 0)
(-0.000939575 0.000721152 0)
(-0.0025906 0.00358961 0)
(-0.00319333 -0.000472403 0)
(-0.000822854 0.00331876 0)
(-0.00435903 0.00137728 0)
(-0.00208953 0.00332871 0)
(-0.00342043 0.0037097 0)
(-0.00264194 0.00305079 0)
(-0.00160811 0.00484246 0)
(-0.00299293 0.00618218 0)
(-0.001703 0.00398598 0)
(-0.00377965 0.00434208 0)
(-0.0027022 0.00449314 0)
(-0.00291802 0.00205214 0)
(-0.00335986 0.00206097 0)
(-0.00114823 -0.000299423 0)
(-0.00246247 -0.00190992 0)
(0.000117191 -0.0040773 0)
(-0.000744486 -0.00357008 0)
(0.0022225 -0.00477236 0)
(0.000924982 -0.00873367 0)
(0.00139808 -0.000459769 0)
(0.00255874 -0.00475218 0)
(0.000124994 -0.00128991 0)
(-0.00427469 -0.00833434 0)
(0.0104078 -0.0121176 0)
(-0.00311597 -0.00851327 0)
(0.00801785 -0.0073968 0)
(0.00747827 -0.00620149 0)
(-0.00826845 -0.0111147 0)
(0.00306065 -0.0109416 0)
(-0.00651074 -0.00876111 0)
(-0.00370372 -0.00858129 0)
(-0.00161833 -0.00524159 0)
(0.00330433 -0.0112636 0)
(-0.00187142 -0.00973805 0)
(-0.0008603 -0.0091406 0)
(-0.00561954 -0.00938563 0)
(-0.0186039 0.0042152 0)
(0.0180125 0.00314437 0)
(0.0157305 -0.0146826 0)
(-0.00231299 -0.0120165 0)
(-0.00241122 -0.00748423 0)
(-0.00517187 -0.000678342 0)
(-0.00791023 0.00281293 0)
(0.00401645 0.00578771 0)
(0.00203338 0.000837787 0)
(-0.000559608 -0.000589574 0)
(-0.000868036 -0.00208496 0)
(-0.00213802 -0.000614036 0)
(0.00115047 -0.00038698 0)
(-0.000642472 0.000299902 0)
(-0.00366476 -0.00245891 0)
(-0.00280518 -0.00135648 0)
(-0.00362458 -0.00331307 0)
(-0.0028399 -0.00299891 0)
(-0.000976531 -0.00708726 0)
(-0.00146766 -0.00855195 0)
(0.000368579 -0.00838212 0)
(-0.00100169 -0.0150472 0)
(0.00181789 -0.00868758 0)
(0.00627392 -0.00965556 0)
(-0.00941547 -0.00208816 0)
(-0.00638621 -0.011396 0)
(-0.000796512 -0.0026863 0)
(-0.0045775 -0.000264452 0)
(-0.00537513 0.00477449 0)
(-0.00251502 0.00252734 0)
(-0.00629758 0.00616365 0)
(-0.00176423 0.000963602 0)
(-0.00310385 0.00335254 0)
(-0.00131339 0.00596061 0)
(-0.00127375 0.00124759 0)
(-0.000458444 0.0119585 0)
(-0.00169246 0.00810243 0)
(0.000357031 0.00520124 0)
(-0.00169382 0.00719889 0)
(-0.00358646 0.00405326 0)
(0.00123175 0.00511927 0)
(-0.00382074 0.00346007 0)
(0.00257632 0.00264354 0)
(-0.0034582 0.00241292 0)
(-0.000155102 0.00248857 0)
(-0.00113424 0.00221144 0)
(-0.00168908 0.000163266 0)
(0.000549098 0.00141992 0)
(-0.00257218 -0.000233078 0)
(-0.00163374 -0.000544123 0)
(-0.000874031 -0.00249669 0)
(-0.00205892 -0.00248692 0)
(-0.00126946 -0.0030258 0)
(0.000254574 -0.00321178 0)
(0.00120892 -0.00408076 0)
(-0.00100795 -0.0033099 0)
(0.00337556 -0.00634573 0)
(-0.00208421 -0.00540076 0)
(0.000986576 -0.00562639 0)
(0.000496862 -0.00559272 0)
(0.00127693 -0.0107631 0)
(-0.00235584 -0.0102629 0)
(0.00319088 -0.00906346 0)
(0.000899244 -0.00752588 0)
(0.00585543 -0.00741536 0)
(0.00192058 -0.0185675 0)
(0.00073325 -0.0098745 0)
(0.000425578 -0.00286165 0)
(-0.000629056 -0.0209455 0)
(0.00185246 -0.00435784 0)
(0.00116832 -0.00748471 0)
(0.00650802 -0.0130725 0)
(0.00241119 -0.0137386 0)
(0.00144312 -0.014413 0)
(-0.000547791 -0.0293972 0)
(-0.000324445 0.0174091 0)
(-0.000117276 0.0311166 0)
(-0.000139696 -0.0246524 0)
(0.00012084 -0.0260863 0)
(-0.00451691 -0.00728602 0)
(-0.00798563 -0.00561131 0)
(-0.0292894 0.0110808 0)
(0.0217326 0.0110445 0)
(0.00460058 -0.00498294 0)
(0.000302819 -0.00740586 0)
(-0.00255219 -0.00571742 0)
(-0.00316151 -0.00394454 0)
(-0.000127619 -0.00326037 0)
(-0.00144544 -0.00769894 0)
(-0.0026792 -0.00853192 0)
(-0.000331263 -0.00702086 0)
(-0.00336521 -0.0128894 0)
(0.00347574 -0.0088524 0)
(0.00098433 -0.0115409 0)
(0.00324515 -0.0116023 0)
(0.0023031 -0.015472 0)
(0.00329456 -0.0140299 0)
(0.0021592 -0.0142887 0)
(0.00821279 0.000561037 0)
(0.00118048 0.00241668 0)
(-8.62135e-05 -0.00535274 0)
(-0.00227671 0.000302017 0)
(-0.00188189 0.00204471 0)
(-0.00530499 -0.00055337 0)
(-0.00489185 0.00175879 0)
(-0.0064053 0.00498756 0)
(-0.00666718 0.00327143 0)
(-0.000280246 0.00434794 0)
(-0.00276763 0.000909898 0)
(0.00364364 0.00474598 0)
(0.000312463 0.00687191 0)
(0.00131255 0.00446403 0)
(-0.000111485 0.00313926 0)
(0.00126823 0.00320405 0)
(-0.00202599 -0.000261782 0)
(-4.16042e-06 0.000260293 0)
(-0.00383244 -0.0020202 0)
(-4.55858e-05 -0.000124763 0)
(-0.00390193 -0.00480229 0)
(0.000199212 -0.00109675 0)
(-0.000904656 -0.00682942 0)
(-0.00144569 -0.00512987 0)
(-0.00283578 -0.00750227 0)
(-0.00122252 -0.0102672 0)
(-0.00140706 -0.00730974 0)
(-0.000492465 -0.0104623 0)
(-0.00113475 -0.0110141 0)
(-0.00150231 -0.00633633 0)
(-0.00201764 -0.00822108 0)
(-0.00127049 -0.00501816 0)
(0.00171852 -0.00594738 0)
(0.00355288 -0.00560008 0)
(0.00221732 -0.00807022 0)
(0.00382024 -0.00927695 0)
(0.00159655 -0.0111085 0)
(0.00072655 -0.00876457 0)
(0.00106477 -0.0103846 0)
(0.00253869 -0.00615543 0)
(0.000810189 -0.00619007 0)
(0.000920815 -0.0058793 0)
(-0.00449188 -0.0108489 0)
(0.00663033 -0.0115987 0)
(-0.00787883 -0.0144177 0)
(0.00281261 -0.00869309 0)
(0.00177293 -0.00798565 0)
(0.00232934 -0.00220051 0)
(0.00589785 -0.0107799 0)
(-0.00152398 -0.0121532 0)
(0.00935223 -0.0121415 0)
(0.00517163 -0.0104821 0)
(0.0191529 0.00656272 0)
(-0.0146458 0.00612283 0)
(-0.0152035 -0.0111825 0)
(0.00185006 -0.0144958 0)
(-0.000721932 -0.0112763 0)
(-0.000698371 -0.0255112 0)
(-0.00388444 0.0316428 0)
(-0.00232386 0.0264698 0)
(-0.00424551 -0.0321903 0)
(-0.00298155 -0.0267263 0)
(-0.00218804 -0.0248558 0)
(-0.00306224 -0.0151767 0)
(0.00207693 -0.0152632 0)
(-0.00104676 -0.0166574 0)
(-7.33219e-05 -0.0154164 0)
(-0.000769813 -0.0154258 0)
(-0.00110679 -0.0130344 0)
(-0.00285618 -0.0153558 0)
(0.000829519 -0.0174996 0)
(0.00373362 -0.0154079 0)
(0.00148352 -0.0144238 0)
(0.00360309 -0.0132889 0)
(-0.000241096 -0.0118848 0)
(0.0051292 -0.0156524 0)
(0.00609709 0.00270643 0)
(-0.00124895 -0.0126661 0)
(-0.00115557 -0.00547704 0)
(-0.00714145 -0.00804336 0)
(-0.0102917 -0.00347158 0)
(-0.0104978 -0.00434957 0)
(-0.00863592 -0.000918211 0)
(-0.00698581 -0.00162416 0)
(-0.0043289 -0.00320518 0)
(0.00108872 0.000109822 0)
(0.000346619 -0.00209879 0)
(0.00108257 0.00212937 0)
(0.000506865 0.00283743 0)
(0.00148583 0.00198009 0)
(0.00240704 0.00478982 0)
(-0.000701612 -0.00201769 0)
(0.000948475 -0.00209151 0)
(0.00170086 -0.00588813 0)
(-0.00153371 -0.0071385 0)
(0.00350705 -0.00687199 0)
(0.000279419 -0.0104363 0)
(0.00123797 -0.00756619 0)
(0.000294263 -0.0177639 0)
(-0.00177023 -0.011757 0)
(0.00135654 -0.0085183 0)
(-0.0013154 -0.0111938 0)
(-0.0018499 -0.011723 0)
(0.000389277 -0.0112451 0)
(-0.00349955 -0.00788745 0)
(-0.00570021 -0.0047579 0)
(-0.00831199 -0.000841471 0)
(0.00654328 0.00201103 0)
(0.004631 -0.00432005 0)
(0.00289973 -0.00697308 0)
(4.81244e-05 -0.00501394 0)
(-0.00106628 -0.00723336 0)
(-0.000240351 -0.00567532 0)
(-0.000295718 -0.00396507 0)
(-7.74712e-05 -0.00427134 0)
(0.000873234 -0.00391323 0)
(-0.00236529 -0.00481779 0)
(-0.00205229 -0.00779637 0)
(-0.00212086 -0.00794216 0)
(0.000781169 -0.0088033 0)
(0.00237837 -0.00870949 0)
(0.00187304 -0.00892362 0)
(0.00145667 -0.00202531 0)
(0.00268567 -0.0228915 0)
(0.003547 -0.00600192 0)
(0.00349337 -0.00408505 0)
(0.00498047 -0.0149401 0)
(0.00351892 0.00449214 0)
(-0.00392527 0.00442511 0)
(-0.00260872 -0.00322253 0)
(0.0035924 -0.00600925 0)
(0.00444435 -0.00743005 0)
(0.0104176 -0.00741273 0)
(0.026701 0.0075873 0)
(-0.0211193 0.00287746 0)
(-0.00607064 -0.0201215 0)
(-0.00545302 -0.0210165 0)
(-0.00356526 -0.0299433 0)
(-0.00558763 -0.0236191 0)
(-0.00483127 -0.0214514 0)
(-0.00476328 -0.0274753 0)
(-0.00293126 -0.0194664 0)
(-0.00155689 -0.0184372 0)
(-0.000889723 -0.0179379 0)
(0.000298793 -0.0131656 0)
(-0.00243725 -0.00875755 0)
(0.00341066 -0.00900946 0)
(-0.000429306 -0.00900073 0)
(0.00507909 -0.00711772 0)
(-0.00228218 -0.00253586 0)
(0.00911332 -0.0109005 0)
(-0.00202156 0.00392511 0)
(0.000962375 -0.0049262 0)
(-0.00370112 -0.00295646 0)
(-0.0122569 -0.0169045 0)
(-5.34833e-05 -0.00967437 0)
(-0.00738325 -0.0120228 0)
(-0.00544789 -0.0109563 0)
(-0.00503037 -0.0105727 0)
(0.000681255 -0.00896673 0)
(-0.00412302 -0.0113202 0)
(-9.41963e-05 -0.0104476 0)
(-0.00178987 -0.0096647 0)
(0.000390189 -0.0111063 0)
(0.00070454 -0.0131755 0)
(0.00281088 -0.0133724 0)
(0.00458542 -0.0121038 0)
(0.00265654 -0.0139511 0)
(0.0036819 -0.0163385 0)
(0.000455462 -0.0130693 0)
(0.00117087 -0.0119429 0)
(0.00247425 -0.00974475 0)
(-0.000678677 -0.0107899 0)
(0.00142748 -0.00911458 0)
(0.000592998 -0.00596254 0)
(0.000981181 -0.00978025 0)
(-0.00321083 -0.00856718 0)
(-0.00172883 -0.00575549 0)
(-0.00272525 -0.00753784 0)
(-0.00445352 -0.0107094 0)
(-0.0101638 -0.00387609 0)
(-0.025029 0.00961057 0)
(0.0236442 0.0122309 0)
(0.00844151 -0.00764912 0)
(0.00250598 -0.00930032 0)
(0.0020974 -0.00697707 0)
(0.00029564 -0.0065246 0)
(0.00252041 -0.00541532 0)
(-0.000338022 -0.00654282 0)
(0.0016592 -0.0064696 0)
(-0.000719759 -0.00362348 0)
(0.000388818 -0.00718703 0)
(1.37044e-05 -0.00612504 0)
(0.00116249 -0.00779126 0)
(0.000541152 -0.00647379 0)
(-0.000665524 -0.00634455 0)
(0.00114521 -0.00635118 0)
(-0.00091011 -0.00470765 0)
(-0.00253542 -0.0064768 0)
(0.00800723 -0.0120205 0)
(-0.00427423 -0.00720539 0)
(0.00520012 -0.00663528 0)
(0.00310537 0.00294416 0)
(-0.000762439 0.0027025 0)
(-0.000380296 0.00207542 0)
(0.00322159 0.00178723 0)
(0.00631185 -7.49669e-05 0)
(0.00686073 0.0026653 0)
(0.0104297 0.00782769 0)
(-0.00199098 0.00724933 0)
(0.00222385 0.00083326 0)
(0.00107669 -0.00167684 0)
(0.00106165 -0.00264824 0)
(0.000380289 -0.00817755 0)
(-0.00503411 -0.0086595 0)
(-0.00626221 -0.0165829 0)
(-0.00574812 -0.0151777 0)
(-0.00597241 -0.0150144 0)
(-0.00556117 -0.0136092 0)
(-0.00283134 -0.0111922 0)
(-0.00495971 -0.00993986 0)
(-0.00142124 -0.00792382 0)
(0.000485216 -0.00686981 0)
(0.00688684 -0.00836454 0)
(-0.00129881 -0.00837874 0)
(0.00877797 -0.00766097 0)
(0.00738769 0.00734569 0)
(0.000512047 -0.00271055 0)
(-0.00498235 -0.0156153 0)
(-0.000511616 -0.00740472 0)
(-0.00143445 -0.00775886 0)
(0.000207849 -0.0236706 0)
(-0.00258573 -0.0148907 0)
(-0.00465532 -0.0110734 0)
(-0.00159992 -0.014196 0)
(-0.00338163 -0.0149269 0)
(0.00135343 -0.00886556 0)
(0.000772105 -0.0138089 0)
(0.0041083 -0.0105677 0)
(0.00187527 -0.0148605 0)
(0.000737622 -0.0111442 0)
(0.00529058 -0.0115439 0)
(-0.00128356 -0.00881467 0)
(0.00231745 -0.00911036 0)
(-0.00132725 -0.00930978 0)
(-0.00125914 -0.00726991 0)
(-0.00341946 -0.00576594 0)
(-0.00103972 -0.01128 0)
(-0.00187911 -0.00515108 0)
(-0.00107893 -0.00658767 0)
(-0.000107706 -0.0065148 0)
(-9.89284e-06 -0.00588261 0)
(0.00120511 -0.00610565 0)
(-0.00277508 -0.00675042 0)
(0.00114683 -0.0106212 0)
(-0.00223212 -0.0237416 0)
(0.00294792 0.0340962 0)
(-0.00212126 0.0350862 0)
(0.00141545 -0.0251022 0)
(-0.00288563 -0.0114645 0)
(0.000692324 -0.00944921 0)
(-0.0036872 -0.00742773 0)
(-0.000114913 -0.00768299 0)
(-0.00293461 -0.00786156 0)
(0.000480878 -0.00637477 0)
(-7.62517e-05 -0.00717145 0)
(0.000769638 -0.00862252 0)
(-0.000269083 -0.00781779 0)
(0.000944198 -0.0070284 0)
(-0.000807515 -0.00625659 0)
(-2.24859e-05 -0.00726948 0)
(-0.000820874 -0.00376251 0)
(-0.00223989 -0.00545448 0)
(-0.00357623 -0.0066395 0)
(0.00193214 -0.00671026 0)
(0.00238571 -0.00448279 0)
(0.003755 -0.0051553 0)
(0.00417767 -0.00259838 0)
(-0.000505967 -0.00100751 0)
(0.00144816 -0.00298984 0)
(0.0015456 -0.00115519 0)
(0.00414637 -0.00148546 0)
(0.00389008 0.000689416 0)
(0.00543533 0.00259196 0)
(0.000292089 0.0038514 0)
(0.00367092 0.00208285 0)
(0.00412212 -0.00270692 0)
(0.00278953 -0.00353668 0)
(0.000461186 0.000718018 0)
(-0.00254082 -0.00110481 0)
(-0.00135984 -0.00443273 0)
(-0.0010631 0.000489575 0)
(-0.00314183 -0.00451727 0)
(-0.00495268 -0.00338337 0)
(-0.00624275 -0.00273807 0)
(-0.00409921 -0.00300899 0)
(-0.00453181 0.0032779 0)
(0.00527925 0.00119188 0)
(0.00498755 -0.00805485 0)
(0.00124038 -0.00619889 0)
(0.00670882 -0.00425612 0)
(-0.00128174 -0.00206369 0)
(0.00266726 0.00701478 0)
(-0.0100384 -0.0115516 0)
(0.00817227 -0.00882255 0)
(-0.00821838 -0.0170875 0)
(0.00385074 -0.0110243 0)
(0.00258175 -0.0161039 0)
(-0.00912873 -0.0143074 0)
(0.00392522 -0.01793 0)
(-0.0055032 -0.0149822 0)
(-0.00189999 -0.0111013 0)
(0.00115581 -0.0081343 0)
(-0.000384076 -0.00810642 0)
(0.00288 -0.00981015 0)
(0.000196916 -0.00624488 0)
(0.0015202 -0.00664177 0)
(0.000484874 -0.00468535 0)
(-0.000296947 -0.00495264 0)
(0.00196823 -0.00344856 0)
(0.00102736 -0.00266034 0)
(0.000920631 -0.00487589 0)
(-0.00120253 -0.00292123 0)
(0.000803513 -0.00372797 0)
(-0.00123149 -0.00164123 0)
(-0.000825413 -0.00312214 0)
(-0.00115307 -0.00180237 0)
(-0.000374899 -0.00177909 0)
(-0.00132546 -0.00248208 0)
(0.00284595 -0.00257534 0)
(0.00554307 0.000789999 0)
(0.0259466 0.0137974 0)
(-0.0249393 0.0148599 0)
(-0.00853427 -0.0020725 0)
(-0.00315569 -0.00482298 0)
(-0.00111373 -0.002397 0)
(-0.000427516 -0.00577259 0)
(0.0012611 -0.00383847 0)
(-5.77959e-05 -0.00893675 0)
(0.00189982 -0.00749074 0)
(-0.000690969 -0.00825058 0)
(0.000638881 -0.00934884 0)
(0.000143019 -0.00729392 0)
(-0.000538049 -0.00658358 0)
(-0.00122109 -0.00851767 0)
(-0.00159255 -0.00468304 0)
(-0.00230107 -0.00988999 0)
(-0.00208358 -0.00666998 0)
(-0.000387572 -0.0101406 0)
(-0.00117298 -0.00779681 0)
(0.00270174 -0.00579361 0)
(-0.000333101 -0.0078664 0)
(0.0048192 -0.00417034 0)
(-0.00214319 -0.00278434 0)
(0.00322138 -0.00188752 0)
(-0.000989398 -0.00150759 0)
(0.00443563 0.000184963 0)
(0.00111376 0.000256885 0)
(0.00529868 0.00152408 0)
(0.00109493 0.00597965 0)
(0.00255673 0.00523949 0)
(0.00588941 -0.00378616 0)
(-0.00697623 -0.00280366 0)
(0.00612954 -0.00357639 0)
(-0.00804775 0.0034553 0)
(-0.00489865 0.00695944 0)
(-0.00158694 0.00873683 0)
(-0.00363848 0.00773172 0)
(-0.00418406 0.0109507 0)
(-0.00839483 0.0157304 0)
(-0.00101036 0.0160048 0)
(-0.0214292 0.0308204 0)
(0.0253511 0.0267947 0)
(0.0050373 0.0102853 0)
(0.0044508 0.00450878 0)
(0.00688737 0.00171704 0)
(0.00220632 -0.00819844 0)
(0.00211133 0.00414923 0)
(0.00414142 -0.0063819 0)
(-0.00479562 0.00085328 0)
(-0.000243198 -0.00892974 0)
(-0.00039147 7.09293e-05 0)
(0.00159979 -0.0193166 0)
(-0.000320796 -0.00443854 0)
(-0.000308027 -0.00531591 0)
(-0.00191165 -0.0174866 0)
(-0.00247373 -0.00477473 0)
(0.00227714 -0.0048391 0)
(-0.000616359 -0.00350423 0)
(0.00150738 -0.00640744 0)
(0.00107669 -0.00120382 0)
(0.00160031 -0.00396366 0)
(-0.000251543 -2.03635e-05 0)
(-0.00199531 -0.000919763 0)
(-0.00131709 -8.31336e-05 0)
(-0.00194953 0.00444035 0)
(-0.00125732 0.00576647 0)
(-0.00336522 0.0049067 0)
(-0.00130001 0.0077157 0)
(-0.00187811 0.00728728 0)
(-0.000242329 0.00731713 0)
(0.000264157 0.00398945 0)
(0.00109942 0.00735015 0)
(0.000542983 0.000934253 0)
(0.00300243 0.00478596 0)
(0.00429856 0.00459164 0)
(0.00626554 0.00982698 0)
(-0.005129 0.00975622 0)
(-0.00503782 0.0032996 0)
(-0.00249565 0.00114496 0)
(-0.00175063 -0.000534244 0)
(0.000142135 -0.00280391 0)
(0.00094215 -0.00210292 0)
(0.00247017 -0.00156856 0)
(0.00161335 -0.00234396 0)
(0.000412071 -0.00377405 0)
(0.000549318 -0.00296824 0)
(-0.000802254 -0.00468276 0)
(-0.000194413 -0.00320123 0)
(-0.000991661 -0.00416699 0)
(-0.000538814 -0.00520655 0)
(-0.00129443 -0.00432254 0)
(5.40882e-05 -0.00836754 0)
(-0.00255856 -0.00692932 0)
(0.00162912 -0.00718134 0)
(-0.00138872 -0.00721729 0)
(5.80242e-05 -0.00807233 0)
(-7.21056e-07 -0.0009347 0)
(-0.00108107 -0.00551657 0)
(0.00145363 -0.000648921 0)
(-0.000546438 -0.00429959 0)
(0.00209874 0.00233323 0)
(0.000352567 -0.000116984 0)
(0.00167946 0.00401927 0)
(0.00111505 0.00346124 0)
(-0.00124488 0.010318 0)
(0.00182986 -0.00751259 0)
(-0.000685773 0.00117717 0)
(0.00178606 0.0026203 0)
(-0.0013109 -0.00771957 0)
(-8.68111e-05 0.00483226 0)
(-0.00296239 0.00248507 0)
(-0.00371874 0.000257209 0)
(-0.00952744 0.00403688 0)
(-0.0268595 0.0142195 0)
(0.0218101 0.00278686 0)
(0.00665628 0.0441091 0)
(0.00199359 0.0418857 0)
(-0.00146504 -0.0183306 0)
(-0.00141342 -0.00571064 0)
(-0.000113821 -0.0110515 0)
(-0.000504294 0.00809713 0)
(0.00032272 -0.00597963 0)
(-0.00281398 0.000877104 0)
(-0.00121977 -0.00270902 0)
(-0.00552859 7.19492e-05 0)
(-0.00384456 0.0043887 0)
(-0.00436432 -0.00530184 0)
(0.00727792 -0.00650804 0)
(-0.00770628 -0.00777638 0)
(0.00428394 -0.0057781 0)
(3.46158e-05 0.000244167 0)
(0.00138382 -0.00356922 0)
(-0.00198664 -0.000186985 0)
(0.00129216 -0.000757621 0)
(-0.000906127 0.00263332 0)
(-0.00100071 0.00326862 0)
(-0.00143505 0.00419162 0)
(-0.00239061 0.0039188 0)
(-0.00175329 0.00581418 0)
(-0.00387497 0.00142307 0)
(-0.00303925 0.002906 0)
(-0.00261655 0.00228076 0)
(-0.000625765 -0.000368682 0)
(-4.84289e-05 -0.000789423 0)
(0.000982628 -0.0030199 0)
(8.81179e-05 -0.00123866 0)
(0.00184289 -4.39735e-05 0)
(0.00100556 -4.13592e-05 0)
(0.000345469 0.00113498 0)
(0.00280758 0.00147172 0)
(0.00149462 0.00321717 0)
(-0.00161858 0.00361506 0)
(0.000645909 0.00508448 0)
(6.96669e-05 -0.000229959 0)
(0.00112523 0.00194918 0)
(0.000590624 0.000594331 0)
(-0.000306724 0.00240276 0)