/*--------------------------------*- C++ -*----------------------------------*\
  =========                 |
  \\      /  F ield         | OpenFOAM: The Open Source CFD Toolbox
   \\    /   O peration     | Website:  https://openfoam.org
    \\  /    A nd           | Version:  12
     \\/     M anipulation  |
\*---------------------------------------------------------------------------*/
FoamFile
{
    format      ascii;
    class       volVectorField;
    location    "1";
    object      U.water_0;
}
// * * * * * * * * * * * * * * * * * * * * * * * * * * * * * * * * * * * * * //

dimensions      [0 1 -1 0 0 0 0];

internalField   nonuniform List<vector> 
3750
(
(-0.159154 0.0918201 0)
(-0.0418887 -0.0405859 0)
(0.0315464 -0.0571018 0)
(0.00102108 0.012373 0)
(-0.0110501 0.00958195 0)
(-0.00455266 0.0187573 0)
(-0.00614278 0.00722048 0)
(-0.00207874 0.0211346 0)
(0.0015072 0.0094978 0)
(-0.000910688 0.0165922 0)
(0.00243835 0.014772 0)
(-0.00356565 0.0111516 0)
(0.00278474 0.0131643 0)
(0.000313095 0.0107801 0)
(0.000503844 0.0156804 0)
(-0.00216665 0.0099836 0)
(0.000403406 0.0166652 0)
(0.00123381 0.0135816 0)
(-0.00101069 0.0144347 0)
(-4.07339e-06 0.0133942 0)
(0.000186632 0.0150651 0)
(-0.000256862 0.0140667 0)
(-0.000624208 0.0151665 0)
(0.000258773 0.013744 0)
(0.000297433 0.0129621 0)
(0.00143768 0.0117074 0)
(-0.000992287 0.0119822 0)
(-0.00167404 0.0158007 0)
(-0.0177955 0.0357236 0)
(0.0186313 0.0378072 0)
(0.00221948 0.0145136 0)
(-8.08274e-05 0.00955987 0)
(-0.00468813 0.016035 0)
(-0.0181237 0.0352751 0)
(0.0175428 0.0416518 0)
(0.00154096 0.0197013 0)
(-0.000527981 0.0163428 0)
(0.000773985 0.0167531 0)
(-0.000974048 0.0164052 0)
(0.0004607 0.0163128 0)
(-0.0023748 0.0193805 0)
(0.00134367 0.0184092 0)
(-0.00249049 0.0197033 0)
(-0.000451219 0.0203867 0)
(-0.00401718 0.0253843 0)
(-0.000850871 0.0297769 0)
(0.00247391 0.0283749 0)
(0.00384404 0.0263535 0)
(0.00389623 0.0216689 0)
(0.003833 0.0155851 0)
(0.000931057 0.0125951 0)
(0.00026505 0.00879076 0)
(-0.00164324 0.00828479 0)
(-0.00191752 0.0083831 0)
(-0.00152573 0.00805799 0)
(-0.00198005 0.0103881 0)
(-0.00196328 0.0102237 0)
(0.000777006 0.012982 0)
(-0.000154215 0.0173065 0)
(-0.0019695 0.0125247 0)
(0.00042081 0.00747215 0)
(-0.00302577 0.0107133 0)
(0.00154685 0.0100525 0)
(9.15214e-05 0.0194009 0)
(0.00103466 0.0137623 0)
(-0.000724311 0.0119598 0)
(-9.85129e-05 0.0114702 0)
(0.000673532 0.0134476 0)
(-0.000294071 0.0117051 0)
(0.00131591 0.0104466 0)
(-0.00135534 0.0127936 0)
(0.000247779 0.0126686 0)
(0.00124902 0.0134068 0)
(0.000988268 0.0120266 0)
(0.000772879 0.0114087 0)
(-0.165998 0.0362405 0)
(-0.132201 -0.0181666 0)
(0.0353962 -0.0485026 0)
(0.0193312 0.0175398 0)
(0.00943275 0.00544304 0)
(0.00396118 0.0170943 0)
(0.00247917 0.00840815 0)
(0.00158052 0.0118945 0)
(0.00223101 0.00584737 0)
(-0.000354787 0.0104879 0)
(-0.000324283 0.00636632 0)
(0.00237663 0.0086883 0)
(0.001613 0.00479553 0)
(-0.000352223 0.011426 0)
(-0.00230686 0.0073311 0)
(-0.00245996 0.0115054 0)
(0.00015984 0.00877971 0)
(-0.00093447 0.0134261 0)
(-0.000120504 0.0136627 0)
(-4.08038e-05 0.0129917 0)
(0.0013493 0.0143214 0)
(-0.000798393 0.0128385 0)
(0.000232106 0.0150208 0)
(0.00183777 0.0150857 0)
(0.0015918 0.0109088 0)
(0.00159208 0.0122022 0)
(0.00302224 0.00480522 0)
(0.00147743 -0.00307794 0)
(0.00083216 0.0532446 0)
(-0.0030317 0.0557147 0)
(-0.0045835 -0.00683849 0)
(0.000515948 0.00307549 0)
(0.00024911 -0.00581763 0)
(0.00432935 0.0554904 0)
(-0.00237489 0.0570522 0)
(-0.00249289 -0.00670178 0)
(-0.00276583 0.00558844 0)
(-0.00124636 0.00808956 0)
(-0.00195959 0.00864172 0)
(-0.00146261 0.0118281 0)
(0.000128829 0.0146856 0)
(-0.000437547 0.0166606 0)
(-0.00116693 0.0147459 0)
(-0.0034423 0.019322 0)
(-0.00727425 0.0227118 0)
(-0.00777702 0.0338291 0)
(0.00560603 0.0326892 0)
(0.00550964 0.0299878 0)
(0.00596378 0.0294929 0)
(0.00491364 0.0292289 0)
(0.00543095 0.0281269 0)
(0.00464105 0.0254778 0)
(0.00191742 0.0245041 0)
(0.000918804 0.0218029 0)
(0.000817486 0.0209197 0)
(-0.00138479 0.0190092 0)
(-0.000196735 0.0161257 0)
(-0.00273166 0.0154275 0)
(-0.000750364 0.0154809 0)
(-0.005179 0.0162003 0)
(-0.000813112 0.0139139 0)
(0.00185248 0.0111666 0)
(0.0050315 0.0108714 0)
(0.00288125 0.0125536 0)
(0.000940044 0.0124636 0)
(0.000202937 0.010507 0)
(-0.000412812 0.0140982 0)
(-0.000394334 0.00978727 0)
(-5.13458e-05 0.0121966 0)
(-0.000381863 0.0115526 0)
(-0.00015423 0.0121155 0)
(-0.00115183 0.0136069 0)
(-0.000931712 0.0139696 0)
(0.000951413 0.0136792 0)
(0.0014507 0.0142929 0)
(-0.0758116 -0.0973167 0)
(-0.0930187 -0.0419858 0)
(0.000204342 -0.0179687 0)
(-0.0100836 -0.0139863 0)
(0.000699124 -0.0127345 0)
(-0.0040755 -0.00249583 0)
(-0.000882876 -0.00610192 0)
(1.55162e-05 -5.3588e-06 0)
(0.00151422 -0.0060379 0)
(0.00147595 -8.01623e-05 0)
(-1.26233e-05 -0.00567005 0)
(0.00100423 -0.00409279 0)
(-0.00248618 -0.0024556 0)
(5.85883e-06 -0.00085626 0)
(-0.0015965 -0.00093136 0)
(-0.00242573 0.00187307 0)
(-0.00269282 -0.000602275 0)
(-0.00181202 0.00302177 0)
(-0.000118062 0.00400072 0)
(-0.00411945 0.00377537 0)
(0.000698753 0.00665001 0)
(-0.000312137 0.00428795 0)
(-0.00094824 0.00964017 0)
(0.00192956 0.00814827 0)
(0.000747088 0.0067623 0)
(0.00532097 0.00552991 0)
(0.00582145 0.00484062 0)
(0.00968402 0.00554033 0)
(0.0266975 0.0217184 0)
(-0.0258572 0.0202464 0)
(-0.00780331 0.00121898 0)
(-0.0019856 0.00129177 0)
(0.00825186 0.00328582 0)
(0.022245 0.0197179 0)
(-0.0237317 0.0197509 0)
(-0.0107249 0.00257025 0)
(-0.00401663 -0.00205164 0)
(-0.00470187 -0.00181922 0)
(-0.00374135 0.00057796 0)
(-0.00693706 0.00407072 0)
(0.000856336 0.00727007 0)
(-0.00175434 0.00638371 0)
(-0.00593189 0.00714057 0)
(-0.0060334 0.0053235 0)
(-0.0115605 0.00914807 0)
(-0.0287268 0.0274531 0)
(0.0195626 0.0286201 0)
(0.00730761 0.0140008 0)
(0.00388504 0.0121426 0)
(0.00421982 0.0149371 0)
(0.00366685 0.0174771 0)
(0.00363335 0.018041 0)
(0.00300268 0.0205505 0)
(0.000237028 0.0198356 0)
(0.00436136 0.0163406 0)
(0.00139838 0.0168715 0)
(0.00141133 0.0115727 0)
(7.55259e-05 0.0126991 0)
(-0.00101782 0.0142564 0)
(-0.00132825 0.00776155 0)
(-0.000302239 0.00863374 0)
(0.00320609 0.00921692 0)
(0.00231308 0.00731467 0)
(0.00293784 0.0117479 0)
(-0.00196857 0.0115845 0)
(-0.000692104 0.0111181 0)
(-0.000549885 0.00988598 0)
(-0.00148846 0.0116207 0)
(0.000692546 0.00981251 0)
(0.000180046 0.010631 0)
(0.00235303 0.00986849 0)
(0.000976545 0.0101165 0)
(0.000133128 0.0101937 0)
(-0.000402672 0.00974133 0)
(0.000423072 0.00975684 0)
(0.0408038 0.00543227 0)
(-0.0221609 0.0114878 0)
(-0.0188422 0.00670343 0)
(-0.0136604 0.0171324 0)
(-0.00234041 -0.00177975 0)
(-0.00385232 0.00650835 0)
(0.000528317 -0.00211689 0)
(0.00143282 0.0020821 0)
(0.00343778 -0.00369646 0)
(0.00192745 -0.00106867 0)
(0.000617362 -0.00172189 0)
(-0.000198428 -0.0011008 0)
(-0.000777443 -0.00151154 0)
(-0.000777531 0.00153686 0)
(-0.00289876 -0.00097134 0)
(-0.0023249 0.00326762 0)
(-0.00297908 -0.00241955 0)
(-0.00403623 0.000187071 0)
(-0.00161213 -0.000556126 0)
(0.000781521 0.000615046 0)
(-0.000213113 -0.00156099 0)
(0.00102782 -0.000713744 0)
(-0.00328732 -0.00191416 0)
(0.00317517 -0.00325377 0)
(6.00173e-05 -0.0044336 0)
(0.00476493 -0.00159348 0)
(0.00481905 -0.00291978 0)
(0.00620129 0.00135579 0)
(0.00781146 0.00444263 0)
(-0.00425876 0.00354978 0)
(-0.00442729 -0.000210331 0)
(-0.000944423 -0.0044307 0)
(0.00242754 -0.00197979 0)
(0.00715979 0.00120608 0)
(-0.00472394 0.0043992 0)
(-0.0023523 -0.00428077 0)
(-0.00271391 -0.00364266 0)
(-0.00447895 -0.00468444 0)
(-0.00897742 -0.00158977 0)
(-0.0111961 0.00697525 0)
(1.16599e-06 0.0042683 0)
(0.00144549 0.00655327 0)
(-0.00171569 -0.00119528 0)
(-0.00270037 -0.00353346 0)
(-0.00665656 -0.0169966 0)
(-0.00436961 0.039991 0)
(-0.00345897 0.0393682 0)
(2.93272e-05 -0.0168332 0)
(0.00104699 -0.00550364 0)
(-0.000883676 -0.00182137 0)
(0.00445978 0.00190244 0)
(-0.000514843 0.00397682 0)
(0.00241266 0.00470019 0)
(0.000722157 0.00785135 0)
(0.00444326 0.00300854 0)
(0.00115961 0.00748047 0)
(0.0034636 0.00189721 0)
(-0.000737316 0.00580214 0)
(0.00105699 0.00263765 0)
(-0.00114324 0.00336124 0)
(0.00192682 0.00264879 0)
(-0.000982296 0.00312015 0)
(0.00218558 0.00573707 0)
(0.00204281 0.00534389 0)
(2.52419e-05 0.00344126 0)
(-0.000126753 0.0033728 0)
(-0.000111344 0.00357438 0)
(-0.00115756 0.00287026 0)
(-0.00111412 0.004395 0)
(-0.000495999 0.00558862 0)
(0.00196427 0.00515319 0)
(-0.000801635 0.00638514 0)
(0.00385089 0.00712763 0)
(-0.000304991 0.00678558 0)
(0.00110635 0.00524427 0)
(-0.00957096 0.00539351 0)
(0.0138708 0.0112423 0)
(0.0186539 -0.0176852 0)
(-0.00384977 -0.000110546 0)
(0.0063607 -0.00781401 0)
(-0.0013462 -0.000195184 0)
(0.00340494 -0.00202587 0)
(-0.000535221 0.0023432 0)
(0.0024366 -0.00351328 0)
(0.000705909 0.0017745 0)
(0.00104235 0.00138627 0)
(-0.00225876 0.000820347 0)
(-0.00244267 0.000458848 0)
(-0.00217909 0.00118502 0)
(-0.00217874 -8.90648e-05 0)
(-0.00230092 -0.000648088 0)
(-0.00203443 -0.00181011 0)
(-0.00318833 -0.00243603 0)
(-0.000122253 -0.0046023 0)
(-0.00219191 -0.00575224 0)
(0.0016685 0.000337518 0)
(6.68659e-05 -0.0112253 0)
(0.00374073 -0.00502337 0)
(-3.35593e-05 -0.00424743 0)
(0.00418677 -0.0120486 0)
(0.00270337 -0.00363101 0)
(0.00575527 -0.00750548 0)
(0.00397502 -0.00417989 0)
(0.00383092 -0.00101598 0)
(-0.000726232 -0.000491295 0)
(9.35743e-06 -0.00136815 0)
(0.000364907 0.00263817 0)
(0.000934715 0.000343001 0)
(0.00422843 0.00309642 0)
(-0.00425959 0.00419954 0)
(-0.00197638 0.00569368 0)
(-0.00534213 0.0051918 0)
(-0.00825552 0.00478669 0)
(-0.0127911 0.00588258 0)
(-0.0337248 0.0160756 0)
(0.0201913 0.0188012 0)
(0.00216323 -0.00510763 0)
(0.000176947 -0.00257253 0)
(-0.00167522 -0.00594069 0)
(0.00553292 -0.00283837 0)
(0.0225121 0.00967223 0)
(-0.0296018 0.00554072 0)
(-0.00974862 -0.00542821 0)
(-0.00305011 -0.00773753 0)
(-0.00122396 -0.00854595 0)
(0.00145775 -0.0023291 0)
(0.000300954 -0.00726418 0)
(0.00035333 -0.00341508 0)
(0.00220231 -0.0029193 0)
(0.00271174 -0.00353484 0)
(0.00353665 -0.0038714 0)
(0.00447299 -0.00585863 0)
(0.000643464 -0.00831842 0)
(0.00152108 -0.00632857 0)
(-0.0025855 -0.00882783 0)
(-0.00140999 -0.0041921 0)
(-0.000151833 -0.0042632 0)
(0.00137508 -0.00163358 0)
(0.00299596 0.000425324 0)
(0.000908799 0.00383181 0)
(0.00146025 0.00137283 0)
(-0.00203548 0.00395132 0)
(-0.000251399 0.00304048 0)
(-0.00238197 0.00512514 0)
(-0.000948225 0.00211991 0)
(-0.000872912 0.00818099 0)
(-0.000340441 0.00424792 0)
(0.000490345 0.00800013 0)
(0.000729908 0.00641252 0)
(0.00135996 0.00852739 0)
(-0.00763312 -0.00474045 0)
(-0.0009375 -0.00214764 0)
(0.00101341 0.00410626 0)
(-0.0197168 0.00491526 0)
(0.00244181 0.00278281 0)
(-0.00489946 0.00638982 0)
(-0.000487784 0.00274026 0)
(0.00322743 0.00591735 0)
(0.00415774 0.00357791 0)
(0.00214638 0.00383963 0)
(-0.000117818 0.00222266 0)
(-0.0026329 0.00149546 0)
(-0.00266524 0.00117831 0)
(-0.0021387 0.00109777 0)
(-0.00080077 -0.00212355 0)
(-0.000606598 -0.00316196 0)
(-0.0016796 -0.00248285 0)
(0.00262768 -0.00468885 0)
(-0.00168066 -0.00462165 0)
(0.003067 -0.00256369 0)
(0.00092733 -0.00248378 0)
(0.000758704 -0.00272721 0)
(0.00468721 -0.000362057 0)
(-0.00212615 -0.00193229 0)
(0.00437986 0.00115461 0)
(0.00169815 0.00227353 0)
(0.00163803 0.00270377 0)
(0.00154712 0.00359815 0)
(-0.000636834 0.00740157 0)
(-0.00257717 0.00618847 0)
(-0.00174504 0.00685175 0)
(-0.00228501 0.0063002 0)
(-4.31099e-05 0.00495052 0)
(-0.00302631 0.00792961 0)
(-0.000680487 0.00969278 0)
(-0.00199285 0.00596543 0)
(-0.000811743 0.00675696 0)
(-0.00253923 -0.00556929 0)
(0.00147676 -0.0126956 0)
(-0.00153588 0.038371 0)
(-0.00238074 0.0385701 0)
(0.000235526 -0.0253523 0)
(-0.00574637 -0.00991994 0)
(-0.00276556 -0.00207456 0)
(0.00690764 -0.00102292 0)
(0.00712645 -0.000560894 0)
(-0.00894112 -0.00457603 0)
(-0.00502126 -0.00545261 0)
(-0.00544149 -0.0110508 0)
(8.34447e-05 -0.00582513 0)
(-0.00123519 -0.00642456 0)
(0.00221814 -0.00703707 0)
(-0.00257592 -0.00270946 0)
(-0.00288477 0.00112404 0)
(0.00726304 -0.000317749 0)
(0.00802546 -0.00326886 0)
(0.00237158 -0.0066545 0)
(0.00282477 -0.00515363 0)
(0.000465558 -0.00490817 0)
(-0.000821916 -0.00434381 0)
(-0.00273852 -0.00255779 0)
(-0.00210015 -0.00140153 0)
(-0.00306235 0.00160758 0)
(-0.00175388 0.00308219 0)
(-0.00167658 0.00358087 0)
(-0.00164419 0.0053553 0)
(-0.00216819 0.00522282 0)
(-0.00105789 0.00579677 0)
(-0.00101387 0.00362281 0)
(-0.00108138 0.0059344 0)
(-0.000947754 0.00252632 0)
(0.000168628 0.00400195 0)
(0.000189226 0.00282066 0)
(4.312e-05 0.00263195 0)
(0.00233622 0.00383642 0)
(-0.00573171 -0.00144165 0)
(0.00615303 -0.0118139 0)
(0.00859501 0.0252317 0)
(-0.000278742 -0.00665556 0)
(0.00419821 0.0133815 0)
(-0.00168369 0.00127324 0)
(0.00362763 0.00725745 0)
(0.000645561 0.0102435 0)
(0.00779788 -0.00153631 0)
(-0.00542295 0.00276062 0)
(0.0089779 -0.000692687 0)
(-0.00181725 0.00278729 0)
(0.00257413 0.00709972 0)
(0.00191773 0.00662238 0)
(0.000329918 0.00201086 0)
(-0.0013832 0.00452729 0)
(-0.00196214 4.65327e-05 0)
(0.00051884 0.00379528 0)
(-0.00298515 0.00184177 0)
(-0.000565996 0.00407502 0)
(-0.00267316 0.00414246 0)
(-0.00109335 0.00294228 0)
(0.000362554 0.00487128 0)
(-0.000343272 0.00650102 0)
(0.00195168 0.00492931 0)
(-0.000313121 0.00588458 0)
(0.000944001 0.00656422 0)
(0.000827878 0.00464614 0)
(-0.000392674 0.00519971 0)
(0.00131502 0.00295817 0)
(-0.000573388 0.000850749 0)
(0.00116906 -0.00153879 0)
(-0.000732264 -0.00134666 0)
(0.00133717 -0.00284233 0)
(-0.000875522 -0.00706371 0)
(-0.000586032 0.000415527 0)
(0.00140647 -0.00661495 0)
(0.00174124 -0.00526138 0)
(0.00652402 -0.00652941 0)
(0.0259996 0.00614097 0)
(-0.0232899 0.00960819 0)
(-0.0100796 -0.00862266 0)
(-0.00951524 -0.00758495 0)
(-0.0254621 0.00729535 0)
(0.0210925 0.0110988 0)
(0.00454194 -0.002388 0)
(-0.00384057 -0.00886626 0)
(-0.007782 -0.00379821 0)
(-0.00368515 -0.00876853 0)
(-0.00589237 -0.00616072 0)
(0.000265013 -0.00586009 0)
(0.000415804 -0.0106129 0)
(-0.0043735 -0.00803512 0)
(-0.021008 0.00773539 0)
(0.0261326 0.00579027 0)
(0.0092132 -0.00682454 0)
(0.00333158 -0.010256 0)
(0.000397878 -0.00453839 0)
(-0.0014653 -0.00583616 0)
(-0.00208287 -0.00171567 0)
(-0.00277934 -0.000859595 0)
(-0.00318427 -0.000840607 0)
(-0.00205592 -0.000900912 0)
(-0.00225433 0.000920311 0)
(0.00160158 0.000529604 0)
(0.000702016 0.000701021 0)
(-0.00222529 -0.00274491 0)
(-0.00119239 -0.0020034 0)
(-0.0020101 -0.00443628 0)
(-0.00126882 -0.0046351 0)
(0.000354301 -0.00911137 0)
(-0.000327275 -0.0108492 0)
(0.00124435 -0.0107674 0)
(-0.000441096 -0.0175634 0)
(0.00228064 -0.0110695 0)
(0.00550845 -0.0100025 0)
(-0.0142998 -0.00210161 0)
(-0.00848488 -0.00965779 0)
(-0.00248504 0.00162247 0)
(-0.00587404 0.00547108 0)
(-0.00587889 0.0100071 0)
(0.00141275 0.00861545 0)
(-0.00617079 0.0104273 0)
(0.00170865 -0.00382044 0)
(0.000287126 0.00569426 0)
(0.00130792 0.00810013 0)
(0.00184757 -0.00370707 0)
(0.00203574 0.0132517 0)
(0.000343297 0.0104347 0)
(0.00217344 0.00635425 0)
(-0.000115787 0.00803763 0)
(-0.00213656 0.00476066 0)
(0.00274947 0.00566554 0)
(-0.00270137 0.00398461 0)
(0.00451945 0.00307857 0)
(-0.00272479 0.00278297 0)
(0.00184444 0.00303125 0)
(0.0012614 0.00287428 0)
(0.000319479 0.00109758 0)
(0.00387059 0.00248351 0)
(0.000336042 0.00138448 0)
(0.00149434 0.0017591 0)
(0.00244094 -0.000174578 0)
(0.000938137 0.000171041 0)
(0.00148878 -0.000101064 0)
(0.00264559 -0.000978919 0)
(0.00271257 -0.00283005 0)
(-0.00151124 -0.00222634 0)
(0.0022289 -0.0049646 0)
(-0.00331291 -0.00384316 0)
(0.000340195 -0.00402095 0)
(0.000776057 -0.00487892 0)
(0.00474054 -0.0102354 0)
(0.00449327 -0.00564314 0)
(0.00879864 -0.00113213 0)
(-0.00617639 -0.00225021 0)
(-0.00331076 -0.0125125 0)
(-0.00338386 -0.0248904 0)
(-0.00197562 0.0315176 0)
(-0.00129192 0.0361573 0)
(-0.0039028 -0.0265841 0)
(-0.00309613 -0.0132405 0)
(-0.00716134 -0.00938801 0)
(-0.00494625 -0.00964792 0)
(-0.00681311 -0.00461646 0)
(0.00591196 -0.00369794 0)
(0.00645432 -0.0170412 0)
(0.00406886 -0.0290803 0)
(0.00232791 0.0292621 0)
(0.001788 0.0292102 0)
(0.00165258 -0.0265244 0)
(-0.00204144 -0.0134626 0)
(-0.00081692 -0.00755752 0)
(-0.00590137 -0.00532492 0)
(-0.00340368 -0.0050408 0)
(-0.00436705 -0.00372206 0)
(-0.00294952 -0.00440576 0)
(-0.00344006 -0.00296184 0)
(-0.00339454 -0.00200141 0)
(0.000995097 -0.00169042 0)
(9.20339e-05 -0.0066019 0)
(-0.000852861 -0.00854128 0)
(0.0016786 -0.00753309 0)
(-0.00133053 -0.0140824 0)
(0.00569434 -0.0106077 0)
(0.00289538 -0.0138032 0)
(0.0047186 -0.0141403 0)
(0.00323221 -0.0182982 0)
(0.0037999 -0.016688 0)
(0.00237492 -0.0169864 0)
(0.00468667 -0.000850949 0)
(-0.000157301 0.004392 0)
(-0.00433619 -0.000333348 0)
(-0.00633698 0.00516812 0)
(-0.00421139 0.00875616 0)
(-0.00513771 0.00609454 0)
(-0.00207824 0.00812559 0)
(-0.00533438 0.00984401 0)
(-0.00508154 0.00393064 0)
(0.00671157 0.00305535 0)
(-0.00347667 -0.000604782 0)
(0.00790774 0.00356627 0)
(0.00444634 0.00810433 0)
(0.00424255 0.00582708 0)
(0.00227334 0.00398934 0)
(0.00335669 0.00376381 0)
(-0.000349882 0.00024109 0)
(0.00150592 0.000428917 0)
(-0.0025177 -0.00109453 0)
(0.001258 0.000232416 0)
(-0.00255837 -0.00430814 0)
(0.00189647 0.000463405 0)
(0.0012102 -0.00678929 0)
(0.00037157 -0.00384377 0)
(-0.000936393 -0.00576976 0)
(0.00171499 -0.00889167 0)
(0.00145311 -0.00477074 0)
(0.00261257 -0.00799972 0)
(0.00248136 -0.00844535 0)
(0.00209042 -0.00368048 0)
(0.00154286 -0.00669344 0)
(0.00146169 -0.00542451 0)
(-1.98097e-06 -0.0063355 0)
(0.00168976 -0.00442499 0)
(0.000954496 -0.005863 0)
(0.00348945 -0.00675701 0)
(0.00215411 -0.00892154 0)
(0.00285805 -0.00615931 0)
(0.0047775 -0.00633926 0)
(0.00420778 -0.00195081 0)
(0.000530703 -0.00294569 0)
(0.00140871 -0.00536479 0)
(0.00532907 -0.00551937 0)
(0.0219124 0.0103277 0)
(-0.0267891 0.00784189 0)
(-0.0124984 -0.00529126 0)
(-0.00656646 -0.0133157 0)
(-0.00658853 -0.00727093 0)
(-0.0103761 -0.00921015 0)
(-0.0208191 0.00665281 0)
(0.0227621 0.00733638 0)
(0.0131662 -0.0117144 0)
(0.0106105 -0.010265 0)
(0.0263161 0.0083221 0)
(-0.0245609 0.00889704 0)
(-0.00867285 -0.00875773 0)
(-0.00487403 -0.00840236 0)
(-0.00321951 -0.0085238 0)
(-0.00625165 -0.0087231 0)
(-0.00425516 -0.015046 0)
(-0.00586564 -0.0121062 0)
(-0.0039461 -0.0189119 0)
(-0.00204597 -0.0205987 0)
(-0.00508521 -0.0116322 0)
(0.00706826 -0.0125635 0)
(0.00122309 -0.0155467 0)
(0.00251537 -0.0152216 0)
(0.00182379 -0.0159403 0)
(0.00131983 -0.0139905 0)
(-0.000680687 -0.0170487 0)
(0.00293068 -0.0201783 0)
(0.0055133 -0.0187356 0)
(0.00252512 -0.017687 0)
(0.00412761 -0.0165106 0)
(0.000246866 -0.0150997 0)
(0.00138259 -0.0115205 0)
(0.00392236 0.00300079 0)
(-0.00762584 -0.0141348 0)
(-0.0100659 0.000412156 0)
(-0.013476 0.00188934 0)
(-0.00508337 0.00670492 0)
(-0.00271529 0.00266536 0)
(-0.00597388 0.00213565 0)
(-0.006318 -0.000203401 0)
(-0.00150025 -0.00344406 0)
(0.00499973 -0.000239746 0)
(0.00546088 -0.00244192 0)
(0.00556186 0.00211777 0)
(0.00369301 0.00330629 0)
(0.00397851 0.00228319 0)
(0.00435914 0.00496771 0)
(0.00072529 -0.00188163 0)
(0.00251569 -0.00188677 0)
(0.00333908 -0.00555337 0)
(-0.000854417 -0.00662804 0)
(0.0051977 -0.00612107 0)
(0.00146415 -0.00910526 0)
(0.00250326 -0.00679651 0)
(0.00247749 -0.0170022 0)
(-0.00036746 -0.00960153 0)
(0.00360906 -0.00608378 0)
(0.0011871 -0.00861405 0)
(0.00126918 -0.00864297 0)
(0.00429905 -0.0081099 0)
(-0.00121035 -0.00511481 0)
(0.00296958 -0.00341143 0)
(-0.00179517 -0.00473696 0)
(0.000554841 -0.00154495 0)
(0.00074036 -0.00244998 0)
(0.00120218 -0.00383727 0)
(-0.000447884 -0.00161167 0)
(-0.000383099 -0.00407141 0)
(0.00144966 -0.00200055 0)
(0.00203802 0.000228767 0)
(0.00152895 -0.000294641 0)
(0.00325577 0.000130934 0)
(0.00109998 -6.15889e-05 0)
(0.00602064 0.00115567 0)
(0.0037346 0.00360465 0)
(-0.0059167 0.00142654 0)
(-0.00707099 -0.00426221 0)
(-0.00422701 -0.0114267 0)
(-0.00291161 -0.0121255 0)
(-0.00149784 -0.0307566 0)
(0.000565327 0.03339 0)
(0.0010296 0.0325726 0)
(0.0039206 -0.0244936 0)
(0.00402705 -0.00869238 0)
(0.00684859 0.00190748 0)
(-0.00666198 0.00200321 0)
(-0.00495523 -0.00136661 0)
(-0.00345177 -0.00575687 0)
(-0.00140346 -0.00756898 0)
(-0.000917711 -0.0081629 0)
(0.000926034 -0.0123873 0)
(-0.000308206 -0.0178706 0)
(-0.00398131 -0.0160591 0)
(-0.00202357 -0.0281923 0)
(-0.00333387 -0.0165922 0)
(-0.0021243 -0.0156698 0)
(-5.26525e-05 -0.0288551 0)
(0.000644007 -0.0191674 0)
(0.00223901 -0.0190853 0)
(0.00291337 -0.0195753 0)
(0.00341938 -0.015227 0)
(-3.09169e-05 -0.0113648 0)
(0.00532948 -0.0126421 0)
(0.000510262 -0.0129379 0)
(0.00539015 -0.0102875 0)
(-0.00180013 -0.00726502 0)
(0.00791245 -0.0128279 0)
(-0.00845422 0.00179708 0)
(-0.00487541 -0.00775033 0)
(-0.0179973 0.00126751 0)
(-0.0310458 0.00396498 0)
(0.0148254 0.0118903 0)
(0.00236039 -0.00826139 0)
(-0.00461636 -0.0132679 0)
(-0.00514661 -0.00980888 0)
(0.00333438 -0.00691655 0)
(0.00145403 -0.0103676 0)
(0.00525306 -0.0110823 0)
(0.00272974 -0.0104132 0)
(0.00358987 -0.0117298 0)
(0.00312785 -0.0136846 0)
(0.00446165 -0.0139285 0)
(0.00607332 -0.0119891 0)
(0.00393381 -0.013576 0)
(0.00503031 -0.0163516 0)
(0.00144442 -0.0126191 0)
(0.00216698 -0.010976 0)
(0.00378987 -0.00867068 0)
(0.000288273 -0.00978073 0)
(0.00281158 -0.00772641 0)
(0.00238245 -0.0040132 0)
(0.00251998 -0.00739269 0)
(-0.00151189 -0.00520305 0)
(0.000565503 -0.00183418 0)
(-3.30837e-05 -0.00586633 0)
(0.000119436 -0.00282921 0)
(-0.00104104 0.00179846 0)
(4.54048e-05 -0.00559404 0)
(0.000651476 0.00131074 0)
(0.00148499 -0.00215636 0)
(0.000757683 -0.00375737 0)
(0.00232269 -0.00219917 0)
(0.00146337 -0.00215435 0)
(0.0043601 -0.001157 0)
(0.00117708 -0.00256686 0)
(0.00327386 -0.00213497 0)
(0.001634 0.00147861 0)
(0.00355022 -0.00115175 0)
(0.00369992 0.00155969 0)
(0.00248006 0.000158644 0)
(-0.000665047 0.000115185 0)
(-0.00397153 -0.00252017 0)
(-0.000733344 -0.00660866 0)
(0.00036256 -0.00781134 0)
(0.0073354 -0.00351637 0)
(0.0223705 0.00870335 0)
(-0.0235277 0.0141664 0)
(-0.00870405 -0.00486907 0)
(-0.0018399 -0.00206557 0)
(-0.000954132 0.000585633 0)
(-0.0030079 0.00284462 0)
(-0.00247198 0.00367515 0)
(-0.000561603 -0.000243295 0)
(-0.00158991 -0.000215071 0)
(0.000782468 0.00056119 0)
(0.000762738 0.000623115 0)
(0.00363386 0.000320446 0)
(0.000102279 0.00201723 0)
(0.00112556 0.00226175 0)
(0.00662566 -0.00313735 0)
(-0.00231416 -0.0031771 0)
(2.63074e-05 -0.0145243 0)
(-0.000771844 -0.0159831 0)
(-0.00127255 -0.0154598 0)
(-0.000840944 -0.0152567 0)
(0.00164066 -0.0140556 0)
(-0.00169071 -0.0138826 0)
(0.00111469 -0.0127772 0)
(0.00040707 -0.0117155 0)
(0.00559568 -0.0120035 0)
(-0.00552507 -0.0145517 0)
(0.0142358 -0.00998325 0)
(0.00960811 0.00254747 0)
(0.00086665 -0.0145125 0)
(-0.00810148 -0.0232639 0)
(-0.00324351 0.0321663 0)
(-0.00489016 0.0296172 0)
(-0.00645387 -0.0301402 0)
(-0.010892 -0.0217474 0)
(-0.00965169 -0.00791537 0)
(0.00568027 -0.00872092 0)
(0.00570786 -0.0126339 0)
(0.00744225 -0.0102455 0)
(0.00489516 -0.0159014 0)
(0.00704351 -0.0122149 0)
(0.00387817 -0.0161059 0)
(0.0022641 -0.0119109 0)
(0.00679721 -0.011828 0)
(-0.000391903 -0.00874484 0)
(0.00333632 -0.00904111 0)
(-0.000373744 -0.00915174 0)
(-0.000345894 -0.0061468 0)
(-0.00279996 -0.00448016 0)
(-0.000345688 -0.0104991 0)
(-0.00116389 -0.00360702 0)
(-0.000201788 -0.00428245 0)
(0.000872336 -0.00410155 0)
(0.000784937 -0.00259814 0)
(0.0016289 -0.00198082 0)
(-0.00264321 -0.00142515 0)
(0.00405577 -0.00148043 0)
(-0.00439122 -0.00178423 0)
(0.00442689 -0.00216332 0)
(-0.000735782 -0.000500277 0)
(0.00261441 -0.00199122 0)
(-0.00163065 -0.00113954 0)
(0.00262316 -0.00299724 0)
(-0.0021165 -0.00265158 0)
(0.0017375 -0.00366489 0)
(-0.00180902 -0.00389676 0)
(0.00183055 -0.001561 0)
(0.00151739 -0.00157846 0)
(0.00304839 -0.00243789 0)
(0.00189589 -0.000929373 0)
(0.00257782 -0.000367186 0)
(7.96657e-05 -0.000826013 0)
(1.56957e-05 -0.0034225 0)
(-4.65049e-05 -0.00172919 0)
(0.000849633 -0.00369394 0)
(0.00328571 -0.000897385 0)
(0.0065231 0.00295844 0)
(-0.00564013 0.00533964 0)
(-0.00735108 -0.000424273 0)
(-0.00183861 -0.00198353 0)
(-0.00444392 -0.00118259 0)
(-0.00180217 -0.00339088 0)
(-0.00308284 -0.000780817 0)
(-0.00120323 -0.00248618 0)
(-0.00180645 -0.00224514 0)
(0.000117945 -0.00191061 0)
(-0.00190647 -5.74136e-05 0)
(0.00077988 0.000424622 0)
(-0.00544239 0.000616967 0)
(-0.00216677 0.00537798 0)
(0.00716149 0.00986759 0)
(0.00833412 0.00491329 0)
(0.00537069 -0.00331577 0)
(0.00479284 -0.000654856 0)
(0.00218674 -0.00551337 0)
(0.000732447 -0.00512979 0)
(2.21447e-05 -0.00632606 0)
(-1.25011e-05 -0.00783505 0)
(4.01392e-05 -0.00362269 0)
(-0.00213023 -0.0067581 0)
(5.32506e-05 -0.0156444 0)
(-0.00277091 -0.007479 0)
(0.0144301 -0.00633064 0)
(0.00172377 -0.00698946 0)
(0.0121225 -0.00134828 0)
(0.00227324 -0.0104561 0)
(0.0236229 0.0112083 0)
(-0.0275368 0.000330434 0)
(-0.0144623 -0.0120752 0)
(-0.0152968 -0.0167543 0)
(-0.0274961 0.0020715 0)
(0.0210985 -0.00196805 0)
(0.00825252 -0.0152051 0)
(0.00372962 -0.0165989 0)
(0.00415273 -0.0119757 0)
(0.0016438 -0.0107819 0)
(0.00431275 -0.0117055 0)
(0.00134052 -0.00727435 0)
(0.00247245 -0.00712099 0)
(0.00127871 -0.00481369 0)
(0.000370168 -0.00494457 0)
(0.00255881 -0.00314223 0)
(0.00175611 -0.00199782 0)
(0.0012764 -0.00392499 0)
(-0.000843831 -0.00182206 0)
(0.00144928 -0.00216126 0)
(-0.000855276 0.000549107 0)
(-0.000602072 -0.000813557 0)
(-0.00103726 0.0010083 0)
(-0.000999315 0.00147869 0)
(-0.00268451 0.00180513 0)
(-0.000310946 0.00272004 0)
(-0.00252173 0.00515666 0)
(0.00218485 0.00209617 0)
(0.000352355 0.0036582 0)
(0.000677011 0.00317387 0)
(0.00168893 0.00141309 0)
(0.00219743 0.00270746 0)
(0.00187818 -0.00133724 0)
(0.00287389 -2.26627e-05 0)
(0.000808943 -0.00546822 0)
(0.0024417 -0.00269238 0)
(-0.000450461 -0.00222273 0)
(0.00204545 -0.00274139 0)
(0.00248424 -0.000262256 0)
(0.00219013 -7.89209e-05 0)
(0.00133876 -0.00342228 0)
(6.25457e-05 -0.000948136 0)
(-0.00063492 -0.00710199 0)
(0.000226113 -0.00369298 0)
(0.00248524 -0.00551979 0)
(-0.000878118 -0.00188242 0)
(-0.000134389 5.74549e-05 0)
(-0.00660043 -0.00378271 0)
(0.000366119 -0.00223476 0)
(-0.00686614 -0.00225663 0)
(6.91736e-05 -0.00191304 0)
(-0.00491179 -0.00178463 0)
(0.000453514 -0.000945686 0)
(-0.00283011 -0.00253705 0)
(0.00221284 -0.00216662 0)
(-0.00148838 0.00165896 0)
(-0.00150366 -0.00267933 0)
(-0.00764 -0.0018808 0)
(-0.0241035 0.0176463 0)
(0.023633 0.0168914 0)
(0.00626442 0.00844291 0)
(0.000397105 0.00399414 0)
(0.00306997 0.00655471 0)
(0.00149756 0.00712582 0)
(0.00335327 0.0101398 0)
(0.00211781 0.0111387 0)
(0.00172124 0.0105726 0)
(-0.00237478 0.0151328 0)
(-0.00291123 0.0123247 0)
(-0.00503296 0.00993972 0)
(0.00333651 0.00344435 0)
(0.0149618 -0.00200277 0)
(0.00853792 -0.00715347 0)
(0.0106207 0.00336276 0)
(0.0146717 -0.00617963 0)
(0.0030004 0.00835419 0)
(-0.0073799 -0.00416928 0)
(-0.00878086 -0.00549558 0)
(-0.00312916 -0.026081 0)
(-0.00368408 0.0349204 0)
(-0.000590427 0.0307431 0)
(-0.00107438 -0.0266824 0)
(-0.00161755 -0.0169224 0)
(0.00318382 -0.0104989 0)
(-1.4437e-05 -0.00670246 0)
(0.00218562 -0.00855169 0)
(0.00170256 -0.00242559 0)
(0.00208505 -0.00462169 0)
(0.000117967 -0.000230711 0)
(-0.00176565 -0.00102872 0)
(-0.00097452 0.000119964 0)
(-0.00180449 0.00524547 0)
(-0.00107775 0.00663708 0)
(-0.00327395 0.00597142 0)
(-0.000928534 0.00927046 0)
(-0.00164085 0.009174 0)
(-0.000253599 0.00947621 0)
(0.000139118 0.00647954 0)
(0.000502523 0.0100169 0)
(-0.000784772 0.00378721 0)
(-0.000318937 0.00744249 0)
(-0.00122597 0.00594036 0)
(-0.000585939 0.00692032 0)
(0.0020961 0.00733977 0)
(0.00178238 0.00602536 0)
(0.00331624 0.00537825 0)
(0.00246141 0.00319927 0)
(0.00338375 0.000340708 0)
(0.00236368 0.000476118 0)
(0.00288517 0.00132472 0)
(0.000578451 0.00184746 0)
(-0.00179465 0.00268303 0)
(0.000183201 0.00531498 0)
(0.00240334 0.00352562 0)
(0.00468951 0.00362982 0)
(0.00298938 0.000193244 0)
(0.00228406 -0.00214132 0)
(0.000635198 -0.00157516 0)
(0.00175735 -0.00533662 0)
(-0.00142327 -0.00319885 0)
(0.00136928 -0.00299678 0)
(-0.00331496 -0.00375934 0)
(-0.00344155 -0.00501403 0)
(-0.00362837 0.00114506 0)
(-0.0046261 -0.00446405 0)
(-0.00158536 -0.000244223 0)
(-0.00355009 -0.00468418 0)
(-0.000643217 0.00139716 0)
(-0.0020805 -0.00222485 0)
(0.000219571 0.000796211 0)
(0.000225819 -0.00136215 0)
(-0.00176598 -0.00200618 0)
(0.00408625 -0.0179047 0)
(-0.00208898 0.0415443 0)
(0.00393157 0.0430436 0)
(-0.000819156 -0.0135916 0)
(9.05182e-05 -0.00377678 0)
(-0.00117635 0.00116183 0)
(2.13065e-05 0.00219639 0)
(-0.000836032 0.00755918 0)
(-0.00234362 0.00590151 0)
(-0.0024309 0.00709602 0)
(-0.00117752 0.00622158 0)
(-0.0020459 0.00376495 0)
(-0.00446202 0.00135692 0)
(-0.00260656 -0.00105069 0)
(0.00362502 -0.0106445 0)
(0.00811651 0.00917707 0)
(0.0048468 -0.00763639 0)
(0.0016688 0.00206047 0)
(0.00818165 8.40265e-05 0)
(-0.00295771 0.00100495 0)
(-0.00134559 0.00557396 0)
(0.00766867 -0.000813302 0)
(0.0237074 0.0144431 0)
(-0.0248209 0.0122331 0)
(-0.00841915 -0.00481399 0)
(-0.00431009 -0.00518283 0)
(-0.000183552 -0.00781697 0)
(-0.00257591 -0.00303437 0)
(0.00124013 -0.00263751 0)
(-0.000854943 0.00142331 0)
(-0.000941614 0.00252398 0)
(-0.00142079 0.00380965 0)
(-0.00254688 0.0039038 0)
(-0.00168284 0.00606389 0)
(-0.00427754 0.00193666 0)
(-0.00318516 0.00376113 0)
(-0.00278373 0.00357238 0)
(-0.000753452 0.00139113 0)
(-1.36898e-06 0.00106534 0)
(0.000972983 -0.00107283 0)
(2.60684e-05 0.000932434 0)
(0.00156847 0.00198933 0)
(-0.000360241 0.0015572 0)
(-0.00243175 0.00221634 0)
(-0.00141149 0.00230977 0)
(-0.00272961 0.00426808 0)
(5.00625e-05 0.00594836 0)
(0.00567131 0.00894942 0)
(0.00666155 0.00352483 0)
(0.00642542 0.00440693 0)
(0.00428891 0.00216626 0)
(0.00154647 0.00345302 0)
(0.0020231 0.00351547 0)
(-0.000960355 0.00514487 0)
(-0.00373261 0.00895895 0)
(-0.00378159 0.0138694 0)
(0.00704658 0.0164243 0)
(0.0082335 0.0128239 0)
(0.00345567 0.0104622 0)
(0.00557686 0.0110085 0)
(0.00226124 0.0083427 0)