/*--------------------------------*- C++ -*----------------------------------*\
  =========                 |
  \\      /  F ield         | OpenFOAM: The Open Source CFD Toolbox
   \\    /   O peration     | Website:  https://openfoam.org
    \\  /    A nd           | Version:  12
     \\/     M anipulation  |
\*---------------------------------------------------------------------------*/
FoamFile
{
    format      ascii;
    class       volVectorField::Internal;
    location    "0.1";
    object      cloud:UTrans;
}
// * * * * * * * * * * * * * * * * * * * * * * * * * * * * * * * * * * * * * //

dimensions      [1 1 -1 0 0 0 0];

value           nonuniform List<vector> 
3750
(
(2.45349e-16 -4.49054e-12 0)
(-3.56013e-10 -7.58167e-09 0)
(1.09818e-09 -8.5443e-10 0)
(-3.00314e-10 -2.31515e-09 0)
(-6.29886e-11 -1.2934e-09 0)
(-8.62365e-11 -2.16657e-09 0)
(-1.00846e-10 -1.72236e-09 0)
(-1.73107e-11 -2.16027e-09 0)
(-3.21386e-11 -2.47643e-09 0)
(-1.28596e-10 -2.8813e-09 0)
(-8.6121e-11 -2.61625e-09 0)
(-3.20929e-11 -2.2836e-09 0)
(5.3946e-11 -1.9158e-09 0)
(1.32883e-10 -2.23456e-09 0)
(-2.15173e-11 -1.92523e-09 0)
(-5.35559e-10 -2.13831e-09 0)
(-4.00761e-10 -2.01604e-09 0)
(3.87543e-10 -2.40688e-09 0)
(1.93662e-10 -2.17905e-09 0)
(3.50189e-11 -2.07306e-09 0)
(-7.92224e-11 -2.69981e-09 0)
(-2.21128e-11 -2.09971e-09 0)
(-4.23468e-11 -2.08587e-09 0)
(-2.58558e-10 -2.42353e-09 0)
(-8.67362e-11 -3.11852e-09 0)
(1.64422e-11 -2.21332e-09 0)
(1.74039e-11 -2.45932e-09 0)
(-4.942e-11 -2.62141e-09 0)
(-1.896e-11 -1.96217e-09 0)
(1.5183e-10 -2.3699e-09 0)
(6.72985e-11 -2.749e-09 0)
(8.19232e-11 -2.30363e-09 0)
(1.74812e-11 -2.32837e-09 0)
(1.83377e-11 -2.41799e-09 0)
(-3.36371e-11 -2.67294e-09 0)
(-4.62873e-11 -2.21345e-09 0)
(1.68819e-12 -2.65052e-09 0)
(1.02877e-10 -2.68421e-09 0)
(-4.2511e-11 -2.77989e-09 0)
(-1.71772e-11 -2.01301e-09 0)
(1.03541e-11 -2.35547e-09 0)
(-7.53817e-11 -2.4228e-09 0)
(-1.33543e-11 -2.29854e-09 0)
(2.13002e-11 -2.30025e-09 0)
(8.23896e-12 -2.27819e-09 0)
(-4.64322e-11 -2.38284e-09 0)
(-4.18792e-11 -2.3073e-09 0)
(1.64385e-11 -2.44048e-09 0)
(3.01078e-10 -2.30671e-09 0)
(2.88397e-10 -2.31509e-09 0)
(1.14932e-11 -2.50987e-09 0)
(-4.105e-11 -2.01457e-09 0)
(8.27155e-11 -2.64333e-09 0)
(-3.58317e-10 -2.21487e-09 0)
(-2.30463e-10 -2.2727e-09 0)
(-3.4994e-10 -1.97573e-09 0)
(4.54478e-11 -2.40523e-09 0)
(9.82503e-11 -2.39997e-09 0)
(1.06468e-11 -2.49205e-09 0)
(1.43185e-10 -2.27411e-09 0)
(4.09503e-10 -2.22832e-09 0)
(2.30086e-10 -2.22919e-09 0)
(-1.6819e-11 -2.61253e-09 0)
(-1.21949e-10 -2.01488e-09 0)
(-1.43832e-10 -2.01562e-09 0)
(-2.3098e-10 -2.28245e-09 0)
(-2.87517e-10 -2.20282e-09 0)
(-3.952e-10 -2.24322e-09 0)
(4.30115e-11 -2.9363e-09 0)
(-7.08213e-12 -2.40055e-09 0)
(2.5564e-10 -2.59034e-09 0)
(-4.28759e-11 -2.34514e-09 0)
(1.73761e-11 -2.23036e-09 0)
(1.70475e-10 -2.11185e-09 0)
(8.58081e-11 -1.94942e-09 0)
(5.16073e-10 9.33239e-10 0)
(3.18092e-10 -5.36562e-09 0)
(0 0 0)
(-2.66688e-10 -4.4434e-09 0)
(4.65008e-11 -8.3176e-10 0)
(-1.02137e-10 -2.39391e-09 0)
(7.54508e-11 -1.26691e-09 0)
(-6.44506e-11 -1.94257e-09 0)
(-2.13892e-11 -1.65912e-09 0)
(-2.83165e-11 -2.78823e-09 0)
(-5.23683e-11 -1.99133e-09 0)
(2.66747e-10 -1.80718e-09 0)
(4.76825e-11 -1.92473e-09 0)
(-7.62211e-11 -1.95029e-09 0)
(-1.48984e-10 -2.02641e-09 0)
(-7.72771e-11 -1.97068e-09 0)
(9.0451e-11 -1.88807e-09 0)
(1.18226e-10 -1.43286e-09 0)
(8.93628e-11 -1.71319e-09 0)
(2.07776e-11 -1.55468e-09 0)
(3.79876e-11 -2.05627e-09 0)
(-9.82277e-11 -2.17571e-09 0)
(-1.22167e-10 -2.76283e-09 0)
(-1.14568e-10 -2.85155e-09 0)
(0 0 0)
(-1.01949e-10 -2.13708e-09 0)
(-1.34746e-10 -5.06151e-09 0)
(2.26504e-10 -2.09394e-09 0)
(2.15238e-10 -1.92849e-09 0)
(1.77239e-10 -1.89069e-09 0)
(1.53928e-10 -2.12702e-09 0)
(3.20342e-10 -2.16618e-09 0)
(-2.05746e-10 -1.88243e-09 0)
(-3.21062e-10 -2.0951e-09 0)
(-1.11789e-10 -2.26596e-09 0)
(1.86832e-10 -1.90994e-09 0)
(9.62689e-11 -2.05527e-09 0)
(1.44822e-11 -2.53893e-09 0)
(2.87815e-11 -1.98705e-09 0)
(6.91721e-11 -2.14329e-09 0)
(-7.20053e-11 -1.57149e-09 0)
(-2.7496e-10 -2.17835e-09 0)
(-5.71172e-11 -9.50526e-10 0)
(-2.51291e-11 -3.84647e-10 0)
(1.52081e-10 -2.04022e-09 0)
(7.70763e-12 -3.01591e-09 0)
(-1.68536e-10 -2.18113e-09 0)
(-5.46223e-11 -2.40789e-09 0)
(8.77025e-11 -2.49089e-09 0)
(2.43331e-10 -5.46672e-09 0)
(-6.33349e-11 -2.06623e-09 0)
(7.15052e-12 -1.70439e-09 0)
(2.68207e-10 -1.96168e-09 0)
(-5.3622e-10 -2.08086e-09 0)
(-4.45437e-10 -2.14998e-09 0)
(-6.89166e-11 -2.19606e-09 0)
(5.22785e-11 -1.72528e-09 0)
(1.86542e-10 -1.38385e-09 0)
(3.42065e-10 -1.94932e-09 0)
(1.72327e-10 -1.98536e-09 0)
(-3.09079e-11 -2.01998e-09 0)
(-1.15037e-11 -1.91013e-09 0)
(2.6644e-10 -2.01156e-09 0)
(2.43463e-10 -2.1682e-09 0)
(1.99893e-10 -2.68726e-09 0)
(-3.26303e-10 -2.04409e-09 0)
(-3.35616e-11 -2.25627e-09 0)
(-1.50344e-10 -2.70842e-09 0)
(-7.19398e-12 -1.88309e-09 0)
(-1.32702e-11 -2.92401e-09 0)
(2.59858e-10 -1.57128e-09 0)
(-1.6894e-12 -1.47315e-09 0)
(1.89603e-10 -2.09096e-09 0)
(3.27044e-11 -2.39967e-09 0)
(-3.49205e-11 -2.05568e-09 0)
(1.67174e-10 3.82393e-10 0)
(-7.92511e-11 -4.21618e-09 0)
(-1.78528e-11 -7.93238e-10 0)
(1.68803e-10 -2.34845e-09 0)
(-1.14879e-10 -7.85946e-10 0)
(-1.23503e-10 -2.41255e-09 0)
(-1.51033e-10 -2.05907e-09 0)
(-1.1299e-10 -2.33036e-09 0)
(-1.61385e-10 -2.04411e-09 0)
(-1.66776e-10 -2.10267e-09 0)
(-8.95795e-11 -2.29526e-09 0)
(4.54037e-11 -2.26208e-09 0)
(7.52147e-11 -1.78827e-09 0)
(3.0962e-11 -2.17643e-09 0)
(-1.94437e-10 -2.28083e-09 0)
(-3.83395e-11 -1.91233e-09 0)
(3.05734e-13 -2.10981e-09 0)
(-1.87806e-10 -1.8544e-09 0)
(3.76948e-11 -1.77162e-09 0)
(4.9635e-11 -1.96384e-09 0)
(5.01142e-11 -1.51388e-09 0)
(-3.10345e-10 -1.56475e-09 0)
(6.72029e-11 -2.06107e-09 0)
(-6.68888e-11 -4.85581e-09 0)
(-7.27929e-11 -2.41516e-09 0)
(-3.25397e-11 -2.76714e-09 0)
(9.12865e-12 -1.66421e-09 0)
(1.3754e-10 -2.28591e-09 0)
(4.10542e-11 -4.23038e-10 0)
(2.09961e-10 -2.59401e-09 0)
(8.91907e-11 -2.93147e-09 0)
(-9.68014e-11 -3.27962e-09 0)
(-1.56189e-10 -2.46881e-09 0)
(-2.29626e-10 -1.96404e-09 0)
(-1.23588e-10 -1.36562e-09 0)
(-5.18707e-11 -2.49553e-09 0)
(1.45668e-11 -8.48632e-10 0)
(1.03339e-11 -5.60815e-10 0)
(8.86374e-11 -2.61826e-09 0)
(9.24228e-11 -2.47316e-09 0)
(-1.87981e-10 -2.1559e-09 0)
(-1.39307e-10 -2.2826e-09 0)
(-1.37731e-10 -2.12883e-09 0)
(9.31537e-11 -1.85798e-09 0)
(4.26969e-11 -1.666e-09 0)
(9.66669e-11 -2.13076e-09 0)
(-2.93399e-11 -2.3094e-09 0)
(8.85907e-11 -2.3195e-09 0)
(7.56279e-11 -2.18198e-09 0)
(2.3403e-12 -2.24321e-09 0)
(-8.24206e-11 -2.16348e-09 0)
(-6.71047e-11 -1.96924e-09 0)
(1.38679e-10 -1.98225e-09 0)
(-7.24656e-11 -2.04146e-09 0)
(-2.51886e-10 -2.18749e-09 0)
(-2.2093e-10 -2.1884e-09 0)
(-1.46484e-10 -2.02318e-09 0)
(9.25304e-11 -2.29821e-09 0)
(3.45149e-10 -1.92519e-09 0)
(2.02853e-10 -2.19337e-09 0)
(-6.2716e-11 -3.24042e-09 0)
(-9.6258e-11 -1.24201e-09 0)
(3.43757e-12 -2.23363e-09 0)
(7.64425e-11 -2.16559e-09 0)
(-8.28443e-12 -2.49501e-09 0)
(-9.25431e-11 -2.78178e-09 0)
(-1.98052e-10 -2.84788e-09 0)
(-7.7406e-11 -2.46124e-09 0)
(-1.30302e-10 -2.35812e-09 0)
(-5.76157e-11 -2.55929e-09 0)
(9.61126e-11 -2.7164e-09 0)
(1.73368e-10 -2.23419e-09 0)
(9.74813e-11 -2.22141e-09 0)
(-2.21881e-11 -2.11858e-09 0)
(-1.02726e-10 -2.06945e-09 0)
(-1.26289e-10 3.01659e-10 0)
(-7.43299e-11 -2.02708e-09 0)
(-6.36685e-11 -1.52569e-09 0)
(-1.83336e-12 -1.98227e-09 0)
(-1.79561e-10 -2.10617e-09 0)
(-1.68721e-11 -2.29528e-09 0)
(-5.46178e-11 -2.50968e-09 0)
(-1.73912e-12 -2.53089e-09 0)
(-2.83144e-11 -2.57204e-09 0)
(1.96998e-10 -2.62923e-09 0)
(5.12876e-11 -2.70245e-09 0)
(-6.2769e-11 -2.47234e-09 0)
(-2.89393e-11 -2.27109e-09 0)
(8.87205e-11 -1.91043e-09 0)
(8.68712e-12 -2.28194e-09 0)
(1.91656e-10 -2.35826e-09 0)
(1.93443e-10 -2.06028e-09 0)
(-3.7168e-11 -2.05711e-09 0)
(9.09685e-11 -2.07603e-09 0)
(-3.22326e-11 -1.98988e-09 0)
(-2.99755e-10 -1.99994e-09 0)
(-6.12792e-11 -2.39551e-09 0)
(3.28958e-10 -5.19875e-09 0)
(-2.13479e-11 -2.72364e-09 0)
(-5.93441e-11 -2.31098e-09 0)
(9.39061e-11 -1.59532e-09 0)
(9.80703e-11 -1.57853e-09 0)
(7.40891e-11 -2.34825e-09 0)
(2.21448e-11 -5.07365e-10 0)
(5.77096e-11 -1.33027e-09 0)
(3.85492e-11 -2.23094e-09 0)
(-2.23825e-10 -5.88222e-09 0)
(-1.99349e-10 -2.38146e-09 0)
(-2.07308e-10 -1.90688e-09 0)
(-2.3114e-10 -1.7949e-09 0)
(-2.27867e-10 -1.78166e-09 0)
(1.04411e-10 -1.89721e-09 0)
(1.63101e-10 -2.46783e-09 0)
(0 0 0)
(1.50239e-10 -2.13018e-09 0)
(-9.17431e-11 -2.28845e-09 0)
(-6.73584e-10 -5.91417e-09 0)
(-1.31876e-10 -2.20408e-09 0)
(-4.36281e-11 -1.41236e-09 0)
(-1.23679e-10 -1.2322e-09 0)
(-6.5767e-11 -2.15082e-09 0)
(0 0 0)
(2.54897e-10 -5.3343e-09 0)
(2.04657e-10 -2.08368e-09 0)
(1.18767e-10 -2.35212e-09 0)
(-2.71044e-11 -6.8748e-10 0)
(-4.18905e-11 -9.14345e-10 0)
(6.70974e-11 -1.92779e-09 0)
(-4.53602e-11 -1.97619e-09 0)
(-3.50267e-10 -2.00045e-09 0)
(-1.99332e-10 -2.56537e-09 0)
(-6.1126e-11 -2.63178e-09 0)
(1.98776e-10 -2.86355e-09 0)
(8.40422e-11 -6.86865e-10 0)
(2.94969e-10 -2.08588e-09 0)
(1.26135e-10 -5.59485e-09 0)
(0 0 0)
(-6.3257e-11 -2.31573e-09 0)
(1.58942e-11 -1.86957e-09 0)
(1.18222e-10 -2.25626e-09 0)
(7.69756e-11 -2.50033e-09 0)
(5.558e-11 -2.53801e-09 0)
(-1.66324e-10 -2.82962e-09 0)
(-6.84512e-11 -2.5211e-09 0)
(-8.13032e-11 -2.44721e-09 0)
(1.16444e-10 -2.45022e-09 0)
(3.57862e-10 -2.25297e-09 0)
(5.3925e-11 -3.11074e-09 0)
(-1.88662e-11 -1.90533e-09 0)
(-2.18817e-10 -1.99421e-09 0)
(-6.33973e-11 2.63445e-10 0)
(6.59539e-10 -3.53556e-09 0)
(-4.97175e-11 -1.53326e-09 0)
(-3.69e-11 -1.98807e-09 0)
(-5.29388e-11 -1.98467e-09 0)
(-2.51051e-10 -2.22287e-09 0)
(-2.25268e-10 -2.34117e-09 0)
(-1.01157e-10 -2.1805e-09 0)
(-1.24392e-10 -2.24729e-09 0)
(4.07853e-11 -2.31491e-09 0)
(-1.12594e-11 -2.48153e-09 0)
(5.68916e-12 -2.37148e-09 0)
(-3.57973e-11 -2.34424e-09 0)
(-1.61183e-10 -2.32314e-09 0)
(-2.47798e-10 -2.2668e-09 0)
(-2.11593e-11 -2.24056e-09 0)
(1.027e-10 -2.35976e-09 0)
(1.58683e-10 -2.03961e-09 0)
(-2.19384e-11 -2.06046e-09 0)
(-8.47129e-11 -2.2082e-09 0)
(-1.07923e-10 -2.51718e-09 0)
(6.8831e-11 -2.07272e-09 0)
(6.61221e-11 -4.38141e-09 0)
(-1.08994e-10 -3.13409e-09 0)
(-1.24025e-12 -3.55768e-10 0)
(2.52857e-10 -4.69919e-09 0)
(1.89776e-10 -2.14928e-09 0)
(-8.32932e-11 -2.363e-09 0)
(4.30009e-12 -3.94987e-10 0)
(1.86772e-11 -1.40917e-09 0)
(2.51072e-11 -1.9834e-09 0)
(-8.51001e-11 -2.23321e-09 0)
(1.02774e-10 -2.25085e-09 0)
(3.66029e-10 -5.90387e-09 0)
(-1.83725e-10 -2.01419e-09 0)
(-1.46798e-10 -1.76899e-09 0)
(-4.21124e-11 -1.9127e-09 0)
(6.18865e-11 -2.39403e-09 0)
(2.70287e-10 -2.33508e-09 0)
(-1.88702e-11 -2.42956e-09 0)
(-2.28225e-10 -2.55121e-09 0)
(-3.74038e-11 -7.17277e-10 0)
(-1.03284e-10 -1.82669e-09 0)
(-2.04157e-10 -4.29257e-09 0)
(-1.46434e-11 -1.79748e-10 0)
(-1.75567e-10 -2.07613e-09 0)
(-4.5144e-11 -2.71947e-09 0)
(2.42241e-10 -4.44505e-09 0)
(1.32794e-10 -2.29774e-09 0)
(1.1422e-10 -2.27811e-09 0)
(0 0 0)
(1.9796e-10 -1.89918e-09 0)
(-4.51109e-11 -1.98676e-09 0)
(-2.40115e-10 -2.09354e-09 0)
(-2.15785e-10 -2.37714e-09 0)
(1.11151e-11 -2.57669e-09 0)
(5.42818e-11 -3.51691e-09 0)
(2.8231e-10 -3.97741e-09 0)
(0 0 0)
(2.12568e-10 -2.27611e-09 0)
(3.07747e-11 -2.84115e-09 0)
(1.78528e-10 -5.09001e-09 0)
(-8.44801e-11 -1.63513e-09 0)
(4.288e-11 -2.09747e-09 0)
(5.47108e-11 -7.80347e-10 0)
(1.70142e-10 -2.12912e-09 0)
(8.03134e-11 -1.62815e-09 0)
(-2.3568e-10 -3.44353e-09 0)
(-1.37733e-10 -3.70553e-09 0)
(3.97133e-11 -1.67058e-09 0)
(3.20428e-10 -1.72305e-09 0)
(5.14078e-11 -2.32886e-09 0)
(-1.9385e-11 -8.7578e-10 0)
(-6.60663e-11 -1.04982e-09 0)
(-3.2758e-10 -3.01577e-09 0)
(1.86031e-10 3.2829e-10 0)
(5.42268e-10 -8.34035e-09 0)
(1.44796e-10 -1.25107e-09 0)
(-1.39446e-10 -1.90531e-09 0)
(-1.25525e-10 -1.88006e-09 0)
(-8.16837e-11 -2.04937e-09 0)
(1.67696e-11 -2.46477e-09 0)
(2.76002e-11 -5.44924e-09 0)
(-2.67827e-10 -1.85011e-09 0)
(-4.191e-11 -2.34631e-09 0)
(0 0 0)
(1.06687e-11 -2.01506e-09 0)
(-9.97673e-13 -2.10528e-09 0)
(-4.43536e-11 -2.03735e-09 0)
(1.59972e-10 -2.63629e-09 0)
(-4.90505e-11 -2.12635e-09 0)
(-1.19053e-10 -2.34296e-09 0)
(-1.13214e-13 -2.03389e-09 0)
(-2.03788e-12 -1.90744e-09 0)
(8.55722e-11 -2.01347e-09 0)
(1.42147e-10 -2.01395e-09 0)
(8.29269e-11 -5.65512e-09 0)
(-1.29451e-11 -1.15959e-09 0)
(-5.37961e-11 -2.29688e-09 0)
(-5.30583e-12 -2.76288e-10 0)
(1.08922e-10 -2.013e-09 0)
(4.99178e-10 -5.51579e-09 0)
(-1.02338e-10 -2.56162e-09 0)
(-1.92311e-12 -2.25952e-10 0)
(1.40733e-11 -1.99184e-09 0)
(1.32471e-10 -2.04641e-09 0)
(5.21451e-12 -2.33296e-09 0)
(-4.75821e-11 -2.48954e-09 0)
(-1.91087e-12 -2.35158e-09 0)
(1.04743e-10 -2.90013e-09 0)
(-1.06609e-10 -3.23228e-09 0)
(-2.38226e-10 -4.14966e-09 0)
(-4.76101e-10 -2.29633e-09 0)
(-1.23874e-10 -2.41659e-09 0)
(-4.64623e-11 -2.3997e-09 0)
(-1.14026e-10 -2.49811e-09 0)
(7.45362e-11 -2.36008e-09 0)
(-5.36552e-12 -8.56365e-10 0)
(2.64217e-13 -3.93204e-09 0)
(-9.62584e-11 -2.29171e-09 0)
(-1.58418e-10 -1.5721e-09 0)
(-1.06544e-10 -1.57096e-09 0)
(-6.9444e-12 -2.29248e-09 0)
(2.07566e-12 -1.67939e-10 0)
(-1.16709e-11 -2.06466e-09 0)
(1.36476e-10 -2.31542e-09 0)
(2.70152e-10 -2.32208e-09 0)
(-4.47608e-11 -2.48701e-09 0)
(-1.31977e-10 -2.27992e-09 0)
(-1.06805e-10 -2.47336e-09 0)
(8.45922e-11 -4.31015e-09 0)
(-6.178e-11 -2.66208e-09 0)
(1.04803e-11 -2.11874e-09 0)
(2.01678e-10 -2.50783e-09 0)
(7.67835e-12 -8.34771e-11 0)
(2.08165e-10 -2.19179e-09 0)
(1.21195e-10 -5.51023e-09 0)
(2.48903e-11 -1.6331e-09 0)
(2.27538e-11 -1.68003e-09 0)
(5.4559e-11 -2.29421e-09 0)
(3.64991e-10 -2.53486e-09 0)
(8.12107e-11 -2.70219e-09 0)
(-5.16381e-11 -2.67249e-09 0)
(-7.81079e-12 -2.24262e-09 0)
(-1.07518e-11 -1.79307e-09 0)
(-6.32978e-11 -2.38932e-09 0)
(-1.55193e-12 -9.55711e-10 0)
(1.35509e-10 -2.70381e-09 0)
(-1.435e-10 -1.56157e-09 0)
(-3.77833e-10 -3.68964e-09 0)
(1.45603e-10 3.19909e-10 0)
(-2.0793e-10 -5.0696e-09 0)
(8.93769e-11 -1.99902e-09 0)
(5.11743e-11 -1.80093e-09 0)
(6.87316e-11 -2.56126e-09 0)
(4.87919e-11 -2.04416e-09 0)
(-1.58649e-11 -2.52877e-09 0)
(-8.86312e-11 -2.44732e-09 0)
(1.88689e-11 -2.75035e-09 0)
(-3.25476e-10 -2.3814e-09 0)
(7.53884e-12 -2.49448e-09 0)
(-7.24737e-11 -1.96911e-09 0)
(-3.99895e-11 -2.35214e-09 0)
(-6.62539e-11 -3.97836e-09 0)
(1.06512e-10 -3.82742e-09 0)
(-1.80873e-10 -2.42204e-09 0)
(0 0 0)
(-1.40859e-11 -2.78985e-09 0)
(6.31911e-11 -1.30297e-09 0)
(3.64576e-10 -1.99489e-09 0)
(-8.78542e-13 -3.36714e-09 0)
(-1.55724e-10 -2.81404e-09 0)
(-9.5795e-12 -1.6641e-10 0)
(-5.95424e-11 -2.17956e-09 0)
(7.30432e-12 -2.54599e-09 0)
(9.89032e-12 -2.52444e-09 0)
(3.88706e-10 -2.63549e-09 0)
(2.09176e-10 -2.87436e-09 0)
(-1.29659e-11 -3.23203e-09 0)
(1.05995e-10 -2.6927e-09 0)
(9.45667e-11 -1.44932e-09 0)
(1.88579e-11 -2.4117e-09 0)
(-2.54581e-11 -2.07875e-09 0)
(1.65975e-10 -3.92268e-09 0)
(2.17722e-12 -3.79009e-10 0)
(-6.57127e-11 -2.32289e-09 0)
(-2.74003e-10 -5.39054e-09 0)
(-1.39826e-10 -9.41471e-10 0)
(-1.0201e-10 -6.30967e-10 0)
(-1.97324e-10 -2.18107e-09 0)
(8.451e-12 -2.49192e-09 0)
(1.48693e-10 -4.02288e-09 0)
(5.66369e-11 -2.25205e-09 0)
(1.4209e-11 -4.23336e-09 0)
(9.79204e-11 -2.57662e-09 0)
(-1.14721e-10 -2.02013e-09 0)
(-2.83789e-10 -1.7947e-09 0)
(8.32266e-12 -1.88919e-09 0)
(-2.24478e-12 -4.89187e-10 0)
(-2.34951e-11 -1.30273e-09 0)
(-4.11289e-11 -2.2813e-09 0)
(7.86004e-11 -2.02204e-09 0)
(1.95094e-10 -1.93594e-09 0)
(2.85597e-10 -2.8506e-09 0)
(2.21808e-10 -4.07728e-09 0)
(6.27813e-11 -2.32096e-09 0)
(4.37464e-11 -1.71722e-09 0)
(-4.81366e-11 -1.40013e-09 0)
(-8.10542e-13 -2.33464e-09 0)
(7.91429e-11 -1.03565e-09 0)
(4.18296e-11 -5.81437e-10 0)
(8.20397e-11 -2.37752e-09 0)
(1.57757e-10 -2.55319e-09 0)
(-1.16947e-12 -5.14154e-09 0)
(-1.17954e-10 -2.32864e-09 0)
(2.01285e-10 -2.48012e-09 0)
(-1.52669e-11 -2.31938e-09 0)
(7.76625e-11 -2.17961e-09 0)
(1.15425e-10 -2.35046e-09 0)
(-7.97474e-11 -2.44501e-09 0)
(-7.38116e-11 -2.63796e-09 0)
(0 0 0)
(3.46399e-11 -2.54088e-09 0)
(2.32036e-10 -2.5854e-09 0)
(-1.58724e-12 -3.42344e-09 0)
(6.82794e-10 8.5202e-10 0)
(1.34957e-10 -3.50188e-09 0)
(1.58059e-10 -2.00726e-09 0)
(2.18293e-11 -1.72687e-09 0)
(8.74707e-11 -2.40896e-09 0)
(2.41905e-11 -1.87328e-09 0)
(-9.23229e-11 -2.47037e-09 0)
(-7.16303e-11 -2.11977e-09 0)
(5.69401e-11 -2.61244e-09 0)
(-2.99258e-10 -2.61001e-09 0)
(-2.25274e-10 -2.47152e-09 0)
(-4.15615e-11 -2.98071e-09 0)
(1.88671e-10 -4.62622e-09 0)
(-9.10205e-11 -2.39274e-09 0)
(-2.35298e-10 -2.28286e-09 0)
(-2.77994e-11 -1.67253e-09 0)
(7.65558e-11 -1.51143e-09 0)
(-1.93401e-10 -1.59988e-09 0)
(8.63794e-11 -1.82688e-09 0)
(9.47916e-11 -2.05041e-09 0)
(1.05133e-10 -2.15601e-09 0)
(-5.76914e-12 -5.81465e-10 0)
(-1.09142e-11 -1.06459e-09 0)
(-1.03446e-10 -2.26611e-09 0)
(-1.08171e-10 -2.46154e-09 0)
(8.58915e-11 -2.25994e-09 0)
(1.58327e-10 -2.33123e-09 0)
(3.34573e-10 -5.0509e-09 0)
(2.00078e-10 -2.33387e-09 0)
(9.69189e-12 -2.37206e-09 0)
(2.35209e-11 -2.292e-09 0)
(-4.50376e-11 -2.15912e-09 0)
(1.14481e-10 -1.76186e-09 0)
(4.94746e-11 -1.94367e-09 0)
(0 0 0)
(-2.60287e-11 -1.91466e-09 0)
(-1.60367e-10 -2.42726e-09 0)
(-2.39888e-10 -2.64946e-09 0)
(-2.11928e-10 -2.26563e-09 0)
(-1.1363e-10 -2.25066e-09 0)
(5.16445e-11 -2.29839e-09 0)
(2.39897e-10 -3.56968e-09 0)
(2.4069e-11 -3.59905e-09 0)
(-1.10144e-10 -2.96678e-09 0)
(3.32358e-11 -5.71725e-10 0)
(1.09548e-10 -3.2014e-09 0)
(-5.98485e-12 -2.67786e-09 0)
(-4.40638e-10 -1.89496e-09 0)
(-3.27028e-11 -1.64743e-09 0)
(-8.80109e-11 -1.55342e-09 0)
(-3.56208e-11 -1.39482e-09 0)
(3.3745e-10 -1.67152e-09 0)
(1.5272e-10 -1.65109e-09 0)
(9.35624e-11 -1.7326e-09 0)
(-3.30325e-11 -1.74336e-09 0)
(2.32726e-10 -2.17396e-09 0)
(1.67688e-10 -2.20643e-09 0)
(-1.87246e-10 -1.69309e-09 0)
(-1.23786e-10 -2.07726e-09 0)
(2.10267e-10 -2.45054e-09 0)
(5.73347e-11 -5.2864e-10 0)
(1.27913e-10 -1.44491e-09 0)
(6.06288e-12 -2.19197e-09 0)
(9.94691e-11 -2.33287e-09 0)
(1.62343e-10 -2.12091e-09 0)
(-6.393e-11 -6.06582e-09 0)
(1.2048e-11 -1.12018e-09 0)
(9.26008e-11 -2.28903e-09 0)
(1.30955e-10 -4.08451e-09 0)
(-4.40611e-12 -4.21247e-10 0)
(7.28524e-11 -5.17211e-09 0)
(0 0 0)
(1.03743e-10 -2.23306e-09 0)
(4.17861e-10 -4.23906e-09 0)
(-5.45733e-11 -2.898e-09 0)
(-4.67695e-10 -7.64992e-10 0)
(1.47126e-10 -9.65053e-10 0)
(-2.96647e-10 -2.10308e-09 0)
(-1.42413e-10 -1.41257e-09 0)
(9.12741e-11 -2.40691e-09 0)
(-5.95077e-12 -2.64291e-09 0)
(-1.54577e-10 -2.98534e-09 0)
(-2.74607e-11 -4.89458e-10 0)
(-5.40352e-11 -2.92469e-09 0)
(-2.40074e-12 -5.16436e-09 0)
(-1.72308e-10 -1.81794e-09 0)
(2.20663e-10 -1.88696e-09 0)
(1.84217e-10 -1.98855e-09 0)
(-1.06674e-10 -2.28492e-09 0)
(-7.74335e-11 -1.8758e-09 0)
(2.79869e-10 -1.8823e-09 0)
(2.35093e-10 -1.66765e-09 0)
(4.50302e-12 -1.69127e-09 0)
(4.05428e-11 -1.80587e-09 0)
(1.26576e-10 -1.43082e-09 0)
(2.06655e-10 -1.55393e-09 0)
(-7.3012e-11 -1.09604e-09 0)
(-2.19958e-10 -2.18097e-09 0)
(2.54235e-10 -1.71942e-09 0)
(2.30417e-10 -1.68105e-09 0)
(1.82765e-10 -1.54648e-09 0)
(-6.15677e-11 -1.95592e-09 0)
(-5.40877e-11 -1.76962e-09 0)
(4.49869e-11 -1.18791e-09 0)
(-5.23164e-11 -1.85641e-09 0)
(1.32316e-10 -2.35383e-09 0)
(1.11843e-10 -2.09616e-09 0)
(5.16488e-11 -2.30926e-09 0)
(3.0883e-11 -2.52337e-09 0)
(-1.32964e-11 -1.90967e-10 0)
(-1.14497e-10 -1.75728e-09 0)
(-9.56153e-11 -2.30375e-09 0)
(-6.3256e-11 -2.53958e-09 0)
(-3.11181e-10 -2.23318e-09 0)
(-2.92635e-10 -2.22907e-09 0)
(-5.70119e-12 -2.36884e-09 0)
(1.37109e-10 -2.85571e-09 0)
(2.02603e-10 -5.61457e-09 0)
(1.4014e-11 -2.6216e-09 0)
(8.53654e-13 -7.4057e-10 0)
(-8.67112e-12 -1.77572e-09 0)
(-8.14142e-12 -1.234e-09 0)
(-3.08502e-11 -3.17972e-09 0)
(-9.78011e-11 -1.52468e-09 0)
(-1.92325e-10 -3.14849e-09 0)
(5.67503e-11 -3.03294e-09 0)
(1.55575e-10 -2.11562e-09 0)
(3.14312e-10 -1.74965e-09 0)
(1.12972e-10 -1.82744e-09 0)
(4.68501e-11 -1.39995e-09 0)
(1.08225e-10 -1.78822e-09 0)
(1.38182e-10 -2.19783e-09 0)
(-3.78746e-11 -1.95012e-09 0)
(-1.0132e-10 -2.03485e-09 0)
(-1.42775e-10 -1.7727e-09 0)
(5.94318e-11 -6.45108e-10 0)
(9.86497e-11 -1.10015e-09 0)
(1.47435e-10 -2.08285e-09 0)
(-2.71143e-11 -2.47057e-09 0)
(2.9692e-10 -2.58792e-09 0)
(-1.23831e-10 -2.69088e-09 0)
(-1.17941e-10 -2.87414e-09 0)
(7.16553e-11 -2.63461e-09 0)
(-9.21463e-11 -2.66073e-09 0)
(-7.66182e-11 -2.82437e-09 0)
(-7.59841e-11 -3.11357e-09 0)
(1.75501e-10 -5.52835e-09 0)
(1.02979e-10 -1.00584e-09 0)
(1.31205e-10 -3.39543e-09 0)
(4.34463e-12 -3.65539e-10 0)
(-9.2385e-11 -8.2063e-10 0)
(3.09571e-10 -3.77207e-09 0)
(5.29825e-11 -2.09865e-09 0)
(-4.37573e-13 -1.64106e-09 0)
(6.87564e-11 -2.50699e-09 0)
(6.39665e-11 -2.27639e-09 0)
(-1.32905e-11 -3.63467e-09 0)
(-4.49275e-11 -2.55385e-09 0)
(-3.40914e-12 -2.80197e-10 0)
(1.43699e-10 -6.00591e-09 0)
(9.24524e-11 -2.35195e-09 0)
(2.77124e-10 -2.06582e-09 0)
(1.87476e-10 -2.06126e-09 0)
(-6.35407e-11 -1.71055e-09 0)
(2.68432e-11 -1.55633e-09 0)
(-1.51071e-11 -1.53466e-09 0)
(2.5489e-11 -1.7526e-09 0)
(3.9153e-11 -1.34851e-09 0)
(-8.0864e-11 -2.28005e-09 0)
(3.11728e-10 -1.52812e-09 0)
(1.02429e-10 -2.31609e-09 0)
(3.04798e-11 -2.19303e-09 0)
(5.45445e-12 -1.36194e-09 0)
(1.68365e-10 -1.28022e-09 0)
(2.94517e-10 -1.77816e-09 0)
(2.86504e-10 -1.62117e-09 0)
(-2.67449e-11 -1.39908e-09 0)
(-2.44452e-11 -1.65331e-09 0)
(-4.86115e-12 -1.46897e-09 0)
(-5.69153e-11 -2.40771e-09 0)
(1.05956e-10 -2.52157e-09 0)
(1.40491e-10 -2.32367e-09 0)
(2.12367e-11 -1.03145e-09 0)
(3.04355e-11 -9.87857e-10 0)
(9.84473e-11 -2.02778e-09 0)
(-2.1438e-10 -2.35165e-09 0)
(-3.14582e-10 -2.29674e-09 0)
(-3.33538e-10 -4.70454e-09 0)
(-4.96978e-11 -1.37379e-09 0)
(-3.78668e-11 -1.74724e-09 0)
(6.9482e-11 -4.70652e-09 0)
(9.15316e-11 -2.27239e-09 0)
(1.85515e-12 -2.9452e-09 0)
(2.687e-11 -2.77073e-09 0)
(-1.25724e-10 -2.57497e-09 0)
(0 0 0)
(-2.40858e-11 -2.04558e-09 0)
(1.07059e-10 -2.11987e-09 0)
(-2.67455e-10 -5.4841e-09 0)
(1.62475e-10 -2.25112e-09 0)
(2.22029e-10 -2.00352e-09 0)
(1.11132e-10 -1.79509e-09 0)
(-2.13654e-11 -1.95855e-09 0)
(2.74512e-10 -1.99551e-09 0)
(-2.14352e-11 -1.8385e-09 0)
(-6.62977e-11 -2.288e-09 0)
(3.46105e-11 -2.53374e-09 0)
(1.38091e-11 -6.73759e-10 0)
(-2.38743e-10 -3.49932e-09 0)
(-1.89295e-10 -2.17635e-09 0)
(1.69027e-11 -8.49407e-10 0)
(1.96533e-11 -7.82044e-10 0)
(1.13446e-10 -2.23422e-09 0)
(-1.87863e-11 -2.43339e-09 0)
(1.27177e-10 -2.61383e-09 0)
(-4.42103e-12 -2.63395e-09 0)
(-1.18247e-10 -2.89726e-09 0)
(8.77851e-11 -2.6911e-09 0)
(-7.86481e-11 -2.47572e-09 0)
(-1.76761e-11 -2.93471e-09 0)
(1.29892e-10 -2.6605e-09 0)
(-1.14304e-11 -5.60731e-09 0)
(3.80914e-11 -1.15381e-09 0)
(3.21334e-11 -3.26396e-09 0)
(1.83913e-11 -3.05712e-10 0)
(-2.46221e-10 2.82723e-10 0)
(8.78643e-11 -2.20561e-09 0)
(2.85249e-10 -1.65872e-09 0)
(4.49956e-11 -1.48192e-09 0)
(4.94283e-11 -2.47206e-09 0)
(1.17487e-10 -1.60309e-09 0)
(9.63883e-11 -2.23548e-09 0)
(3.57065e-11 -2.38275e-09 0)
(2.19903e-10 -3.79229e-09 0)
(4.96777e-11 -4.35865e-09 0)
(4.18464e-11 -1.28436e-09 0)
(1.01082e-11 -3.08471e-09 0)
(2.38719e-11 -1.8728e-09 0)
(-3.03392e-11 -5.99251e-10 0)
(-5.43002e-11 -1.22411e-09 0)
(2.00193e-10 -3.91793e-09 0)
(3.32903e-11 -5.93248e-10 0)
(-8.9908e-11 -2.84299e-09 0)
(1.65089e-10 -2.55982e-09 0)
(-2.40805e-11 -2.51846e-09 0)
(-1.2979e-10 -2.64741e-09 0)
(-4.37096e-11 -2.63417e-09 0)
(8.23338e-11 -2.68727e-09 0)
(1.96283e-10 -2.62465e-09 0)
(1.1897e-10 -2.58047e-09 0)
(1.0144e-10 -3.17978e-09 0)
(-6.28181e-11 -3.45331e-09 0)
(-7.80454e-11 -1.40454e-09 0)
(-6.65075e-11 -1.08854e-09 0)
(-1.25048e-10 -2.28238e-09 0)
(-9.35916e-11 -2.96853e-09 0)
(6.46149e-11 -4.2502e-09 0)
(1.03083e-10 -1.96428e-09 0)
(7.38546e-11 -1.13014e-09 0)
(1.55153e-10 -2.29505e-09 0)
(-8.2122e-11 -2.49991e-09 0)
(-3.79354e-10 -5.8182e-09 0)
(-8.76097e-11 -1.96631e-09 0)
(-7.38238e-11 -1.4569e-09 0)
(-4.67287e-11 -1.42642e-09 0)
(-4.78669e-11 -2.18722e-09 0)
(-1.92875e-11 -1.79956e-09 0)
(-1.65624e-10 -2.72314e-09 0)
(-7.8971e-11 -2.6828e-09 0)
(5.92296e-11 -2.581e-09 0)
(3.13842e-12 -8.09569e-10 0)
(1.72456e-10 -2.9636e-09 0)
(3.52553e-10 -2.66168e-09 0)
(1.28987e-10 -2.30187e-09 0)
(9.96611e-11 -1.9504e-09 0)
(3.18609e-10 -2.02964e-09 0)
(4.88378e-10 -1.71015e-09 0)
(1.93804e-10 -2.10917e-09 0)
(3.13167e-11 -1.96231e-09 0)
(-4.41481e-11 -1.79078e-09 0)
(-6.44339e-11 -1.62816e-09 0)
(-1.89403e-11 -2.45353e-09 0)
(0 0 0)
(2.80376e-11 -2.72639e-09 0)
(-3.12858e-10 -3.38095e-09 0)
(-2.87204e-11 -7.20823e-10 0)
(-2.919e-11 -5.05201e-09 0)
(9.07087e-11 -1.86144e-09 0)
(5.18586e-12 -2.53633e-09 0)
(0 0 0)
(-8.93137e-11 -3.59274e-09 0)
(3.79556e-11 -1.23269e-09 0)
(4.78132e-11 -2.77425e-09 0)
(-2.79668e-10 -4.31177e-09 0)
(-7.8662e-11 -2.23178e-09 0)
(7.28047e-12 -1.16782e-09 0)
(-2.0185e-12 -9.70164e-10 0)
(-1.2314e-10 -5.28461e-09 0)
(-1.92766e-14 -9.43082e-11 0)
(2.75274e-11 -2.42777e-09 0)
(-2.3084e-10 -5.41845e-11 0)
(1.49822e-10 -2.50822e-09 0)
(4.18296e-10 -4.2646e-09 0)
(-1.37388e-12 -2.9632e-10 0)
(-1.69381e-12 -2.0882e-09 0)
(7.761e-11 -1.48498e-09 0)
(5.9925e-11 -2.16813e-09 0)
(1.04768e-10 -2.51566e-09 0)
(1.11077e-10 -5.78359e-09 0)
(1.20952e-11 -1.64695e-09 0)
(1.65754e-11 -3.23833e-09 0)
(-1.47305e-12 -4.84883e-10 0)
(1.13642e-11 -1.39669e-09 0)
(7.43624e-11 -2.32437e-09 0)
(5.23924e-11 -2.40078e-09 0)
(1.54812e-10 -2.33186e-09 0)
(7.45616e-11 -2.40331e-09 0)
(-1.55443e-10 -2.21254e-09 0)
(-1.38489e-10 -2.27899e-09 0)
(-4.86874e-11 -2.13852e-09 0)
(-1.23456e-10 -2.47536e-09 0)
(-3.41071e-11 -2.65659e-09 0)
(1.9079e-10 -2.57843e-09 0)
(1.76458e-10 -2.38329e-09 0)
(1.27102e-10 -2.29898e-09 0)
(3.98548e-11 -2.25806e-09 0)
(3.11322e-11 -2.34052e-09 0)
(-8.71918e-11 -2.84657e-09 0)
(-1.11085e-10 -2.56019e-09 0)
(-5.9745e-11 -1.2548e-09 0)
(-3.68093e-11 -2.2289e-09 0)
(1.50203e-10 -2.31018e-09 0)
(1.53176e-10 -4.24341e-09 0)
(5.62591e-11 -2.65989e-09 0)
(1.36613e-12 -8.65395e-10 0)
(4.05925e-11 -5.6494e-09 0)
(6.25796e-11 -1.28498e-09 0)
(1.33154e-10 -2.45441e-09 0)
(-1.07366e-10 -1.61115e-09 0)
(-7.38707e-11 -1.66107e-09 0)
(-3.71494e-11 -1.86133e-09 0)
(-1.50406e-10 -1.70222e-09 0)
(-1.94332e-10 -2.50973e-09 0)
(4.17617e-11 -2.66072e-09 0)
(1.67225e-10 -2.32768e-09 0)
(1.42687e-10 -1.95521e-09 0)
(1.66417e-10 -1.78594e-09 0)
(4.54022e-10 -2.01656e-09 0)
(1.87378e-10 -1.88292e-09 0)
(1.86103e-10 -1.73773e-09 0)
(4.46274e-10 -1.86785e-09 0)
(2.88005e-10 -1.85022e-09 0)
(1.00507e-10 -1.89674e-09 0)
(-1.61463e-10 -1.76554e-09 0)
(-4.69197e-12 -7.27526e-10 0)
(-3.9641e-11 -1.42398e-09 0)
(-1.78902e-10 -2.70157e-09 0)
(-7.69389e-11 -1.22832e-09 0)
(5.01188e-11 -2.46485e-09 0)
(-1.06775e-10 -2.38794e-09 0)
(-3.19098e-10 -2.89329e-09 0)
(-1.7037e-10 -1.91699e-09 0)
(-1.49187e-11 -2.1964e-09 0)
(-1.85286e-10 -5.89811e-09 0)
(-8.84369e-13 -2.68806e-09 0)
(1.42092e-10 -2.49047e-09 0)
(3.27978e-13 -2.36281e-09 0)
(-6.5989e-11 -2.15165e-09 0)
(-8.11041e-11 -1.70488e-09 0)
(-1.43132e-10 -1.99107e-09 0)
(0 0 0)
(-5.43367e-11 -2.27055e-09 0)
(-4.76967e-11 -2.60796e-09 0)
(-9.2968e-13 -3.22514e-09 0)
(3.83976e-11 -1.80371e-09 0)
(-2.84218e-10 -7.74176e-10 0)
(-1.90494e-11 -8.17089e-09 0)
(9.35889e-11 -1.43536e-09 0)
(2.53289e-11 -2.00121e-09 0)
(1.5731e-12 -2.47051e-09 0)
(3.30857e-14 -1.52835e-09 0)
(4.81103e-11 -5.39655e-09 0)
(3.57972e-12 -8.95191e-11 0)
(-2.5679e-11 -4.54475e-09 0)
(-1.48531e-10 -3.60894e-09 0)
(-2.47163e-11 -4.84817e-10 0)
(-6.43657e-11 -1.40227e-09 0)
(3.96088e-11 -2.05989e-09 0)
(1.19546e-10 -2.48871e-09 0)
(-1.10006e-10 -2.53246e-09 0)
(3.20379e-10 -2.76234e-09 0)
(1.93795e-10 -4.05031e-09 0)
(6.26056e-12 -3.53698e-10 0)
(-3.56367e-10 -2.38541e-09 0)
(-4.06231e-10 -5.25598e-09 0)
(6.07703e-12 -1.15456e-09 0)
(7.06428e-12 -4.93675e-10 0)
(9.3432e-11 -2.38781e-09 0)
(8.92413e-11 -2.40353e-09 0)
(7.59869e-11 -2.10325e-09 0)
(1.22549e-10 -2.31395e-09 0)
(-9.41194e-11 -2.37472e-09 0)
(-1.1001e-10 -2.60216e-09 0)
(2.30888e-10 -2.4801e-09 0)
(-2.5099e-10 -2.32242e-09 0)
(1.17808e-10 -2.60693e-09 0)
(4.16635e-10 -2.797e-09 0)
(1.44914e-10 -2.45946e-09 0)
(8.25681e-13 -6.10814e-09 0)
(-3.44474e-11 -1.1758e-09 0)
(4.01781e-11 -3.43225e-09 0)
(5.99843e-11 -5.45343e-10 0)
(1.63951e-10 -1.36963e-09 0)
(4.44457e-11 -2.25104e-09 0)
(2.58055e-10 -3.52195e-09 0)
(-4.59084e-11 -4.02296e-09 0)
(-1.81336e-10 -2.46453e-09 0)
(-2.05707e-10 -2.52591e-09 0)
(1.16199e-10 -2.14479e-09 0)
(8.121e-11 -1.76143e-09 0)
(6.92847e-11 -1.71771e-09 0)
(4.50222e-10 -2.20117e-09 0)
(1.87531e-10 -2.32801e-09 0)
(4.08383e-11 -2.14052e-09 0)
(7.10759e-11 -1.78979e-09 0)
(6.06336e-11 -1.42432e-09 0)
(-7.0764e-12 -1.98418e-09 0)
(-1.18581e-12 -2.44941e-09 0)
(-1.47351e-11 -3.27368e-10 0)
(-7.12639e-11 -1.54495e-09 0)
(-1.81885e-11 -2.44766e-09 0)
(-2.57073e-10 -2.13616e-09 0)
(-1.34238e-11 -2.37008e-09 0)
(-8.95446e-11 -2.6113e-09 0)
(-1.76773e-10 -2.62009e-09 0)
(-1.18171e-10 -2.44256e-09 0)
(-1.66169e-10 -2.421e-09 0)
(-3.25149e-11 -2.32155e-09 0)
(-3.71745e-11 -2.45315e-09 0)
(1.74632e-10 -2.78165e-09 0)
(1.36449e-10 -3.10118e-09 0)
(-1.96226e-11 -2.85824e-09 0)
(-2.10942e-11 -1.49654e-09 0)
(8.8392e-11 -2.21388e-09 0)
(-4.6915e-11 -2.26942e-09 0)
(6.22654e-11 -2.24936e-09 0)
(-2.37206e-11 -3.61335e-09 0)
(5.66681e-11 -4.36042e-09 0)
(3.39871e-11 -1.6326e-09 0)
(-9.4192e-12 -1.5289e-09 0)
(2.66457e-10 2.7274e-10 0)
(-4.54303e-11 -2.27998e-09 0)
(-4.04168e-10 -1.39292e-09 0)
(1.11987e-11 -1.88843e-09 0)
(-1.51414e-11 -2.67052e-09 0)
(-4.1567e-11 -4.295e-09 0)
(3.72485e-11 -2.11818e-09 0)
(1.50279e-11 -2.61241e-09 0)
(-1.59803e-10 -2.4848e-09 0)
(-1.73365e-10 -2.82801e-09 0)
(-2.33472e-11 -1.24619e-09 0)
(-2.14973e-12 -2.81599e-10 0)
(9.23466e-13 -2.63054e-09 0)
(1.0182e-10 -4.09649e-09 0)
(1.16188e-10 -9.70928e-10 0)
(1.59297e-10 -2.00323e-09 0)
(8.15664e-11 -3.98275e-09 0)
(-1.74984e-10 -2.62026e-09 0)
(-5.63267e-11 -4.38526e-10 0)
(-4.45241e-10 -3.73212e-09 0)
(5.03402e-11 -1.82127e-09 0)
(6.29058e-11 -2.16909e-09 0)
(6.16989e-11 -8.89589e-10 0)
(5.70125e-11 -1.11067e-09 0)
(4.3723e-11 -1.6904e-09 0)
(7.65888e-11 -2.20264e-09 0)
(-2.69546e-10 -2.47575e-09 0)
(-1.31913e-10 -2.29112e-09 0)
(-1.26239e-10 -2.28651e-09 0)
(3.91105e-11 -2.26576e-09 0)
(-4.45395e-11 -5.58898e-09 0)
(8.62044e-11 -1.11083e-09 0)
(4.36512e-11 -5.25632e-10 0)
(2.68713e-11 -2.84077e-09 0)
(-8.81022e-11 -4.59351e-09 0)
(7.35623e-11 -2.99999e-09 0)
(1.68937e-10 -1.88535e-09 0)
(9.52138e-11 -2.43891e-09 0)
(0 0 0)