/*--------------------------------*- C++ -*----------------------------------*\
  =========                 |
  \\      /  F ield         | OpenFOAM: The Open Source CFD Toolbox
   \\    /   O peration     | Website:  https://openfoam.org
    \\  /    A nd           | Version:  12
     \\/     M anipulation  |
\*---------------------------------------------------------------------------*/
FoamFile
{
    format      ascii;
    class       volScalarField;
    location    "0.1";
    object      p;
}
// * * * * * * * * * * * * * * * * * * * * * * * * * * * * * * * * * * * * * //

dimensions      [0 2 -2 0 0 0 0];

internalField   nonuniform List<scalar> 
3750
(
1.47248
1.4525
1.44865
1.43588
1.42001
1.41011
1.40087
1.39099
1.38147
1.37243
1.36545
1.35478
1.34418
1.33431
1.32458
1.31464
1.30444
1.29403
1.28353
1.27354
1.26309
1.252
1.24084
1.23424
1.22729
1.21646
1.20559
1.19759
1.1868
1.17466
1.16248
1.15141
1.14258
1.13431
1.12422
1.11237
1.10154
1.092
1.08641
1.07828
1.06932
1.06007
1.04847
1.03561
1.02475
1.01431
1.00398
0.993506
0.982936
0.972856
0.966114
0.956736
0.946059
0.935195
0.924394
0.913459
0.9021
0.890493
0.878888
0.867972
0.857262
0.846947
0.837378
0.828417
0.819799
0.811153
0.802447
0.793644
0.784663
0.775651
0.766681
0.757552
0.747881
0.737456
0.726504
1.4724
1.45379
1.44706
1.43308
1.42181
1.41053
1.40102
1.39088
1.38105
1.37083
1.36667
1.35524
1.34412
1.33424
1.32468
1.31462
1.30451
1.2942
1.28382
1.27397
1.26364
1.25177
1.23903
1.23453
1.22989
1.21658
1.20385
1.19815
1.18809
1.17472
1.16127
1.1487
1.14209
1.13602
1.12556
1.11147
1.10133
1.09001
1.08722
1.0787
1.06938
1.06108
1.0504
1.03415
1.02449
1.01424
1.00406
0.993526
0.982881
0.971369
0.968179
0.957545
0.946102
0.935133
0.92445
0.91361
0.902251
0.890578
0.878091
0.867884
0.856707
0.846022
0.836942
0.828138
0.819719
0.811129
0.802521
0.79381
0.784718
0.775677
0.766879
0.758047
0.748643
0.738087
0.727254
1.4715
1.45739
1.44744
1.43106
1.42149
1.41043
1.4008
1.39098
1.38158
1.37248
1.36503
1.35485
1.34446
1.33457
1.32476
1.31472
1.30474
1.29465
1.2844
1.27418
1.2635
1.25215
1.24025
1.23612
1.22801
1.2176
1.20543
1.19379
1.19192
1.17464
1.15922
1.14132
1.14118
1.14093
1.12562
1.10882
1.10517
1.08784
1.08474
1.07724
1.06904
1.06063
1.05127
1.03718
1.02491
1.01413
1.0045
0.993048
0.984001
0.973395
0.967045
0.956173
0.945456
0.934889
0.924567
0.914291
0.902601
0.89171
0.875661
0.868679
0.855437
0.843967
0.836265
0.827563
0.819512
0.811025
0.802715
0.79441
0.784741
0.775559
0.767117
0.759072
0.750638
0.739133
0.727119
1.467
1.44705
1.44293
1.43014
1.42106
1.41016
1.40044
1.39064
1.38182
1.37282
1.36452
1.35498
1.34485
1.33487
1.32491
1.31484
1.30503
1.2951
1.2849
1.27465
1.26422
1.25418
1.23652
1.23196
1.22726
1.22065
1.20758
1.19471
1.19046
1.17263
1.15999
1.14101
1.14045
1.13928
1.1273
1.11189
1.10112
1.08414
1.08405
1.07639
1.06954
1.06148
1.05592
1.03859
1.02608
1.01312
1.00615
0.990295
0.987279
0.971777
0.970659
0.954384
0.944583
0.934365
0.924556
0.916312
0.902153
0.887515
0.874535
0.865788
0.852937
0.845879
0.836817
0.826257
0.81977
0.810915
0.802819
0.796354
0.784275
0.774806
0.767037
0.76027
0.755665
0.74073
0.725227
1.46368
1.4449
1.44062
1.42887
1.42037
1.40971
1.39968
1.38957
1.38212
1.37259
1.36541
1.35544
1.34516
1.33515
1.32512
1.3147
1.30563
1.29581
1.28539
1.27511
1.26461
1.25365
1.24446
1.22888
1.22759
1.21163
1.20786
1.19433
1.19418
1.17492
1.1574
1.1472
1.14082
1.13352
1.12863
1.11355
1.09787
1.08337
1.07866
1.07442
1.07014
1.06831
1.05458
1.03517
1.03357
1.0177
1.0041
0.987514
0.986401
0.970097
0.968323
0.955427
0.94416
0.933439
0.923132
0.913987
0.902485
0.882204
0.876851
0.867981
0.85666
0.840178
0.83745
0.821997
0.820572
0.809514
0.801481
0.793573
0.781874
0.779854
0.766778
0.761187
0.760484
0.742762
0.726956
1.46128
1.4409
1.43892
1.42802
1.42012
1.40947
1.39893
1.38676
1.38317
1.37054
1.36751
1.35594
1.34519
1.33549
1.32562
1.3133
1.30711
1.29715
1.28571
1.27575
1.2656
1.25303
1.24898
1.23292
1.22117
1.21149
1.20203
1.19652
1.19512
1.17528
1.15787
1.15021
1.14263
1.13492
1.12614
1.11562
1.09701
1.08717
1.07424
1.07246
1.06872
1.06454
1.05694
1.03451
1.03404
1.02153
1.0057
0.989648
0.988458
0.970874
0.964213
0.954309
0.943252
0.932034
0.920451
0.913986
0.900716
0.885092
0.872342
0.872523
0.855754
0.838294
0.836785
0.820642
0.811431
0.805238
0.800103
0.794509
0.789732
0.779792
0.767643
0.769658
0.757642
0.742177
0.724736
1.45922
1.44183
1.43917
1.42822
1.42045
1.41011
1.39961
1.38882
1.3811
1.3717
1.36507
1.35531
1.3442
1.33656
1.3185
1.31586
1.31074
1.30001
1.28454
1.27662
1.2694
1.25562
1.24239
1.2326
1.22238
1.21269
1.20316
1.19483
1.19005
1.17279
1.15862
1.15365
1.14466
1.13816
1.12333
1.11469
1.09645
1.09431
1.07708
1.07242
1.06759
1.06324
1.04965
1.03193
1.0309
1.0247
1.00728
0.99302
0.985653
0.970799
0.963248
0.95409
0.942657
0.931492
0.913174
0.910067
0.904616
0.886985
0.871692
0.871458
0.855456
0.842781
0.834215
0.816511
0.812557
0.800256
0.800021
0.793786
0.786842
0.780107
0.770455
0.768991
0.756549
0.743513
0.731732
1.4581
1.44001
1.4397
1.42932
1.42168
1.4118
1.4006
1.38916
1.37989
1.37053
1.36515
1.35626
1.34087
1.33746
1.32088
1.31948
1.30721
1.29701
1.28598
1.27704
1.2695
1.25789
1.24236
1.23259
1.22318
1.21421
1.20584
1.19006
1.18509
1.16765
1.16037
1.15886
1.14407
1.13728
1.12455
1.11337
1.10178
1.09377
1.08222
1.07334
1.06608
1.06082
1.04652
1.0362
1.03148
1.02224
1.00638
0.993656
0.983328
0.973258
0.96396
0.954649
0.941703
0.9289
0.913982
0.90811
0.900647
0.887154
0.875318
0.864302
0.860556
0.843197
0.828404
0.819422
0.812866
0.803057
0.805225
0.793491
0.781018
0.782122
0.7669
0.765548
0.755726
0.744029
0.728761
1.46107
1.44793
1.44322
1.43164
1.42342
1.41566
1.40147
1.38717
1.37936
1.36522
1.36676
1.35408
1.34526
1.33856
1.32412
1.31743
1.30574
1.29489
1.28542
1.27615
1.26699
1.26026
1.24652
1.23307
1.224
1.21504
1.20528
1.19294
1.18129
1.16711
1.15741
1.15854
1.14423
1.13708
1.12996
1.1124
1.10357
1.09507
1.0837
1.07265
1.06267
1.0571
1.04005
1.03908
1.03259
1.0222
1.00623
0.997408
0.983418
0.974788
0.964342
0.953772
0.940823
0.928851
0.914423
0.906971
0.89485
0.891012
0.877032
0.866067
0.856262
0.841264
0.827472
0.820652
0.814372
0.807782
0.802702
0.793841
0.784691
0.779062
0.77085
0.756932
0.756532
0.738257
0.737223
1.46926
1.45118
1.4456
1.4337
1.42372
1.41587
1.4022
1.38931
1.37521
1.36569
1.36721
1.35416
1.34819
1.34025
1.32633
1.31629
1.30428
1.29311
1.28497
1.27543
1.26335
1.25877
1.25233
1.23537
1.22556
1.21657
1.2059
1.19475
1.17969
1.16503
1.16
1.15613
1.1508
1.13529
1.12274
1.11279
1.10488
1.09945
1.08488
1.07103
1.05565
1.0534
1.03716
1.03603
1.03159
1.02595
1.00876
0.996498
0.980531
0.976737
0.967257
0.95315
0.939117
0.929903
0.915616
0.90292
0.893812
0.890063
0.876931
0.865943
0.853612
0.837264
0.830015
0.821402
0.816901
0.810752
0.803238
0.79468
0.785708
0.777187
0.772074
0.755378
0.75466
0.738867
0.738314
1.47519
1.4547
1.44777
1.4369
1.42092
1.412
1.40186
1.39291
1.3771
1.36603
1.36715
1.35325
1.35143
1.33954
1.32494
1.31764
1.3024
1.29335
1.28518
1.27607
1.26671
1.25868
1.25003
1.23765
1.22739
1.21966
1.20683
1.1947
1.17835
1.1678
1.16355
1.15489
1.14597
1.13132
1.12175
1.11127
1.10447
1.09996
1.08504
1.07116
1.05876
1.05193
1.03612
1.03613
1.0314
1.02702
1.00637
0.990564
0.9851
0.973709
0.966247
0.952562
0.940399
0.929206
0.916363
0.903275
0.890449
0.88834
0.879442
0.865627
0.852079
0.834511
0.833067
0.81911
0.819883
0.814834
0.804774
0.795884
0.786473
0.775183
0.774653
0.759765
0.748006
0.746922
0.732214
1.46947
1.44812
1.44444
1.43875
1.42016
1.40983
1.40022
1.39344
1.37617
1.37388
1.36389
1.36185
1.34738
1.33711
1.32679
1.31698
1.30468
1.29481
1.28663
1.27731
1.26989
1.25908
1.24833
1.23753
1.22703
1.21736
1.20692
1.19732
1.18163
1.16776
1.16116
1.15374
1.14626
1.1324
1.12194
1.10657
1.10882
1.09552
1.08383
1.07144
1.06144
1.05316
1.03957
1.03899
1.02933
1.01916
1.00438
0.989911
0.982758
0.972258
0.962532
0.950262
0.94024
0.930169
0.917743
0.904635
0.892041
0.881981
0.875092
0.865148
0.855167
0.838153
0.831344
0.819653
0.818125
0.813186
0.804966
0.797238
0.792834
0.778993
0.770668
0.761033
0.750793
0.747825
0.731633
1.46625
1.44758
1.44649
1.43699
1.41972
1.40744
1.3957
1.39331
1.38079
1.37106
1.37399
1.35867
1.34673
1.3353
1.32778
1.31879
1.30432
1.29472
1.28968
1.27868
1.27585
1.25913
1.24712
1.23714
1.22582
1.21591
1.2063
1.19548
1.18299
1.1707
1.15972
1.15267
1.1427
1.13179
1.12601
1.10722
1.10787
1.09095
1.08394
1.07498
1.05982
1.05479
1.04509
1.03788
1.02709
1.01525
1.00171
0.988094
0.980986
0.969928
0.959341
0.947283
0.93758
0.933536
0.915695
0.905492
0.89328
0.882318
0.87379
0.864777
0.855149
0.843672
0.833928
0.82442
0.81849
0.81458
0.804569
0.794315
0.78955
0.779829
0.770779
0.763277
0.74797
0.747261
0.732936
1.46773
1.45151
1.44869
1.43774
1.42243
1.4065
1.39371
1.38515
1.38308
1.37693
1.37852
1.36108
1.34587
1.33088
1.3288
1.31553
1.30101
1.30029
1.29728
1.28325
1.27169
1.25685
1.25367
1.238
1.22331
1.21421
1.20688
1.1952
1.18426
1.17294
1.15492
1.15347
1.14045
1.13649
1.12338
1.1072
1.10173
1.08679
1.08562
1.07621
1.06584
1.05042
1.04728
1.03782
1.02578
1.01322
0.999532
0.985386
0.982228
0.967287
0.958037
0.946625
0.939176
0.927131
0.917148
0.908668
0.893321
0.880307
0.872978
0.865109
0.856727
0.846999
0.836253
0.826377
0.818045
0.811585
0.804233
0.795819
0.787988
0.779232
0.770939
0.763056
0.752506
0.745883
0.735161
1.46568
1.44431
1.44993
1.43583
1.4243
1.40685
1.39194
1.38743
1.38941
1.37529
1.37472
1.361
1.34536
1.33628
1.32199
1.31356
1.30741
1.30771
1.29412
1.28952
1.27106
1.25794
1.25028
1.2379
1.22546
1.21261
1.20987
1.19395
1.18541
1.17187
1.15719
1.14456
1.13967
1.14033
1.12265
1.1054
1.10195
1.08654
1.08476
1.07813
1.06709
1.05324
1.04093
1.03977
1.02463
1.01027
0.997864
0.989783
0.97885
0.965003
0.958874
0.943882
0.936625
0.927272
0.917465
0.90832
0.890768
0.883247
0.872857
0.865967
0.859697
0.85142
0.838255
0.826915
0.815842
0.80954
0.804911
0.796843
0.787875
0.778081
0.771112
0.765774
0.753527
0.745675
0.734812
1.4608
1.44228
1.44193
1.43173
1.42851
1.41005
1.39619
1.38837
1.39002
1.37648
1.37127
1.36112
1.34618
1.34095
1.32658
1.31273
1.30899
1.30452
1.30108
1.2902
1.27203
1.25338
1.24686
1.237
1.22706
1.22244
1.20846
1.19248
1.18334
1.1725
1.15855
1.14488
1.13399
1.1365
1.12163
1.10957
1.1001
1.0896
1.07725
1.07328
1.06873
1.05549
1.04231
1.03201
1.02262
1.01199
0.995009
0.992829
0.974971
0.965728
0.958629
0.94353
0.936299
0.927853
0.917115
0.906476
0.888846
0.888493
0.869344
0.86605
0.861074
0.849897
0.840224
0.827808
0.819062
0.807396
0.808906
0.798427
0.78956
0.775609
0.769732
0.764833
0.759661
0.748466
0.737221
1.46121
1.4436
1.43966
1.42225
1.42565
1.41054
1.39703
1.39477
1.38709
1.3763
1.37027
1.3588
1.3459
1.34569
1.33342
1.32011
1.31035
1.30034
1.30168
1.28475
1.27318
1.25646
1.2473
1.23667
1.2249
1.22222
1.20684
1.19204
1.17676
1.1731
1.16004
1.14764
1.13131
1.13025
1.1266
1.11177
1.09914
1.08759
1.08153
1.06895
1.05698
1.0569
1.04169
1.02313
1.02133
1.01881
1.00027
0.988433
0.973054
0.964705
0.956004
0.945491
0.937375
0.930741
0.91676
0.901916
0.891777
0.890734
0.873401
0.867856
0.853634
0.847708
0.838336
0.833262
0.81579
0.812836
0.812173
0.798637
0.794997
0.779276
0.768702
0.763707
0.758037
0.750189
0.735166
1.46183
1.44348
1.43705
1.41753
1.41932
1.41291
1.3994
1.39483
1.38541
1.37893
1.37422
1.35333
1.34713
1.34621
1.34007
1.32749
1.31152
1.29902
1.29865
1.28391
1.27004
1.2594
1.2496
1.23806
1.22807
1.21812
1.20446
1.18929
1.18027
1.16566
1.16068
1.15418
1.13168
1.12911
1.12754
1.11131
1.09677
1.08855
1.0807
1.06657
1.05267
1.04952
1.04262
1.02296
1.02123
1.01597
0.99867
0.986346
0.974213
0.964117
0.955215
0.945106
0.937136
0.930717
0.917259
0.903581
0.896301
0.889319
0.877806
0.867999
0.857026
0.84885
0.833238
0.831112
0.821914
0.815582
0.813948
0.798698
0.798142
0.784487
0.773384
0.763001
0.756972
0.746211
0.733062
1.46283
1.44457
1.43691
1.41453
1.41539
1.41309
1.40382
1.39779
1.3824
1.38018
1.37001
1.35584
1.34701
1.3473
1.33615
1.33216
1.31486
1.30102
1.29566
1.28218
1.26595
1.25989
1.2525
1.23503
1.23144
1.21425
1.2033
1.19136
1.18084
1.16995
1.16273
1.1544
1.13729
1.12755
1.11743
1.10921
1.0897
1.08887
1.0879
1.0674
1.05232
1.04579
1.03987
1.02346
1.0251
1.00946
0.991685
0.98437
0.973354
0.962323
0.955657
0.942655
0.935214
0.927163
0.91785
0.908931
0.901462
0.891156
0.879775
0.869155
0.860195
0.847661
0.835534
0.836073
0.825476
0.816209
0.807162
0.801864
0.802966
0.787154
0.775721
0.759977
0.759747
0.743015
0.732822
1.46404
1.44622
1.43784
1.41525
1.41543
1.41585
1.40433
1.39527
1.38277
1.37772
1.36874
1.35554
1.34782
1.34102
1.34097
1.33212
1.31529
1.29994
1.29525
1.2836
1.27041
1.26182
1.2494
1.23161
1.22839
1.21497
1.20323
1.19204
1.18202
1.17291
1.16589
1.15173
1.13667
1.12628
1.11529
1.10854
1.08916
1.08781
1.08898
1.06914
1.05124
1.04237
1.03937
1.02449
1.02324
1.00408
0.984572
0.985712
0.972487
0.958136
0.952137
0.944928
0.934612
0.924998
0.918104
0.912568
0.908708
0.894139
0.880864
0.869967
0.865101
0.846981
0.834913
0.837642
0.82666
0.817302
0.80875
0.801999
0.803138
0.785243
0.774235
0.762999
0.755273
0.743645
0.733143
1.46569
1.44969
1.43856
1.41913
1.41353
1.40895
1.40079
1.39429
1.38656
1.37677
1.36658
1.35613
1.34822
1.33883
1.33904
1.3324
1.3146
1.30164
1.28888
1.28652
1.27059
1.26506
1.25093
1.23403
1.22559
1.21357
1.20275
1.19137
1.18234
1.17385
1.16585
1.14998
1.14123
1.12582
1.10959
1.10733
1.09571
1.08569
1.08652
1.06819
1.05177
1.0439
1.03699
1.02789
1.01587
0.999286
0.979958
0.978663
0.972551
0.967524
0.95095
0.947395
0.935402
0.922055
0.916904
0.913874
0.91121
0.895739
0.880188
0.87515
0.860634
0.843455
0.839692
0.838168
0.831075
0.816394
0.810735
0.806365
0.797878
0.785993
0.775018
0.764268
0.75364
0.743128
0.733093
1.46615
1.44906
1.44255
1.423
1.40872
1.40694
1.39498
1.39447
1.38281
1.38063
1.36565
1.3621
1.35049
1.33994
1.33797
1.32638
1.3142
1.30106
1.28743
1.28746
1.27432
1.26153
1.25104
1.23928
1.22581
1.21092
1.20284
1.18836
1.18209
1.17441
1.16329
1.15131
1.1423
1.12528
1.11297
1.10018
1.10033
1.09037
1.08016
1.06456
1.05444
1.04563
1.03663
1.02533
1.01292
0.998346
0.982683
0.976967
0.971187
0.970911
0.953773
0.944462
0.941641
0.923781
0.914334
0.913207
0.911227
0.897593
0.878112
0.876315
0.858786
0.845668
0.842631
0.843151
0.828225
0.818857
0.811594
0.804725
0.795884
0.785783
0.775565
0.765223
0.752054
0.742097
0.732646
1.46645
1.44908
1.44381
1.42502
1.40834
1.40442
1.38992
1.38883
1.38551
1.38428
1.37044
1.36209
1.35203
1.34233
1.33441
1.32448
1.31535
1.29986
1.28673
1.2835
1.27638
1.25664
1.2491
1.24148
1.22722
1.21183
1.19978
1.1874
1.1833
1.17847
1.16169
1.14957
1.14097
1.12125
1.11638
1.10223
1.09829
1.09076
1.07717
1.06548
1.05583
1.04736
1.03871
1.02323
1.01173
0.999613
0.989641
0.976041
0.96523
0.96407
0.957985
0.944395
0.940962
0.92816
0.91743
0.912379
0.908367
0.895186
0.880388
0.875801
0.859901
0.852608
0.843846
0.839037
0.829252
0.820318
0.812088
0.803983
0.795128
0.78566
0.776451
0.758802
0.755553
0.741046
0.732113
1.46631
1.44821
1.44233
1.42854
1.4136
1.40016
1.38959
1.38691
1.3847
1.38127
1.37525
1.3632
1.35315
1.34261
1.33273
1.32308
1.31301
1.30198
1.29338
1.28293
1.2729
1.25843
1.24692
1.2315
1.22787
1.21023
1.19523
1.18803
1.18504
1.18338
1.16565
1.14582
1.13995
1.12091
1.11787
1.11234
1.09741
1.08338
1.07341
1.0644
1.05601
1.04935
1.03715
1.02704
1.01179
1.00007
0.990828
0.973078
0.971825
0.962053
0.94626
0.945818
0.947157
0.930045
0.916508
0.910612
0.903674
0.893962
0.88279
0.87446
0.863846
0.854632
0.845881
0.838183
0.82942
0.820663
0.812334
0.804035
0.794949
0.785399
0.776299
0.758268
0.755582
0.740123
0.730131
1.46673
1.45006
1.4379
1.42887
1.41363
1.40389
1.39643
1.38733
1.38424
1.37903
1.37206
1.36253
1.35483
1.34189
1.33134
1.3216
1.31191
1.30217
1.29256
1.28188
1.27107
1.25942
1.24893
1.2299
1.22682
1.20623
1.20152
1.18494
1.18507
1.18027
1.17167
1.15007
1.13605
1.12587
1.12051
1.10972
1.09607
1.08069
1.06947
1.06271
1.05453
1.04636
1.04057
1.0258
1.01045
1.00753
0.990298
0.973279
0.973668
0.961587
0.944661
0.945218
0.946279
0.928053
0.918088
0.90993
0.902035
0.894157
0.882754
0.875552
0.866423
0.8565
0.847132
0.838395
0.829605
0.820634
0.812222
0.80482
0.795232
0.78483
0.775177
0.764165
0.753041
0.739864
0.725937
1.46622
1.44815
1.4414
1.427
1.41373
1.40019
1.39968
1.39199
1.38596
1.37913
1.36846
1.36018
1.35186
1.34755
1.32932
1.32021
1.31076
1.30289
1.29234
1.28128
1.27014
1.25921
1.24954
1.23315
1.22055
1.20966
1.2009
1.18979
1.18969
1.17895
1.16647
1.14838
1.13627
1.1265
1.11838
1.10778
1.0959
1.084
1.07489
1.06201
1.05303
1.04176
1.03414
1.02512
1.01147
1.00958
0.989271
0.978174
0.971444
0.960875
0.94999
0.944375
0.938471
0.927564
0.917946
0.908987
0.900548
0.888197
0.887584
0.87873
0.869817
0.857759
0.847735
0.838718
0.82996
0.820093
0.811113
0.808137
0.79639
0.783594
0.775459
0.760031
0.750419
0.74062
0.731373
1.46682
1.4494
1.44427
1.42702
1.41133
1.39657
1.39819
1.39506
1.38799
1.38208
1.36356
1.35739
1.35574
1.34365
1.32919
1.31968
1.30843
1.30459
1.29242
1.28077
1.26919
1.25782
1.2466
1.23384
1.22203
1.21172
1.2021
1.19233
1.18655
1.17904
1.16486
1.14996
1.13421
1.12547
1.11893
1.10729
1.09588
1.08525
1.07613
1.05834
1.0573
1.03912
1.02842
1.02445
1.01979
1.0053
0.988554
0.979349
0.97059
0.961496
0.952262
0.943838
0.935321
0.925818
0.917138
0.907788
0.8939
0.892419
0.890269
0.881369
0.875123
0.856742
0.847258
0.838736
0.831476
0.818863
0.804325
0.808782
0.798432
0.788088
0.772764
0.760311
0.748039
0.740998
0.734869
1.4674
1.44933
1.44323
1.42839
1.40803
1.4023
1.3996
1.39855
1.38872
1.37973
1.36408
1.35265
1.35256
1.34066
1.32881
1.32129
1.31073
1.30264
1.29195
1.28033
1.26815
1.2564
1.24517
1.23366
1.22267
1.21302
1.20361
1.19226
1.18442
1.17517
1.16399
1.15242
1.13541
1.12295
1.12371
1.10652
1.09508
1.085
1.07597
1.0584
1.05734
1.03978
1.03066
1.02313
1.01509
1.00305
0.990356
0.979883
0.970764
0.962219
0.95362
0.943389
0.933188
0.92331
0.917251
0.903535
0.898845
0.898395
0.896791
0.881
0.867967
0.857194
0.845995
0.837492
0.828021
0.82023
0.802139
0.803055
0.799962
0.797214
0.777538
0.760645
0.741852
0.740409
0.739508
1.46809
1.44982
1.4442
1.42973
1.41101
1.40799
1.40047
1.39686
1.3905
1.37523
1.36412
1.35115
1.34986
1.33701
1.32635
1.32605
1.31194
1.30175
1.29202
1.28034
1.26647
1.25452
1.24405
1.2334
1.22179
1.21447
1.19694
1.19711
1.18399
1.17282
1.16362
1.14995
1.13404
1.12691
1.12315
1.11058
1.09339
1.08387
1.07429
1.06449
1.05187
1.04177
1.03234
1.02213
1.01303
1.00138
0.990021
0.979018
0.970563
0.962998
0.956341
0.94293
0.930838
0.919917
0.914915
0.912092
0.901542
0.905604
0.892744
0.87797
0.867666
0.858084
0.842083
0.837245
0.824237
0.82055
0.803474
0.802509
0.800573
0.796732
0.7794
0.763769
0.742592
0.739721
0.733457
1.46906
1.45094
1.44568
1.4313
1.41378
1.40962
1.40852
1.39609
1.38444
1.36694
1.36575
1.35248
1.35075
1.33143
1.32577
1.32226
1.31762
1.30037
1.28498
1.28139
1.26463
1.25936
1.24309
1.2338
1.21756
1.21686
1.19564
1.19271
1.19018
1.16936
1.16481
1.15013
1.13743
1.12788
1.11655
1.11328
1.09359
1.08274
1.0731
1.06348
1.05294
1.04313
1.03468
1.01995
1.01356
0.999371
0.989358
0.975414
0.969497
0.963061
0.955025
0.945796
0.928706
0.927676
0.913241
0.911913
0.906668
0.906237
0.889135
0.880088
0.866842
0.854993
0.83792
0.834812
0.829811
0.820983
0.80716
0.804439
0.802436
0.784057
0.780142
0.772403
0.750362
0.742925
0.726693
1.47003
1.45296
1.44841
1.43143
1.42277
1.40989
1.40728
1.39509
1.38167
1.36518
1.36594
1.35325
1.34977
1.33553
1.32534
1.31919
1.31085
1.29751
1.28637
1.27701
1.27191
1.25807
1.24215
1.23485
1.21782
1.21688
1.19979
1.18802
1.18975
1.17238
1.15824
1.14852
1.13862
1.13087
1.11781
1.10836
1.09505
1.08061
1.07188
1.0634
1.05342
1.04323
1.03265
1.01951
1.01195
0.993529
0.991293
0.973856
0.969071
0.964608
0.954897
0.945065
0.932758
0.930494
0.920935
0.913555
0.906567
0.899565
0.887541
0.876144
0.864261
0.856552
0.843117
0.834347
0.826899
0.825865
0.820463
0.806157
0.796147
0.78103
0.783861
0.771058
0.754286
0.744992
0.732146
1.47055
1.45341
1.44779
1.43667
1.42432
1.41102
1.40286
1.39545
1.3814
1.36821
1.36247
1.35238
1.35182
1.33794
1.32764
1.31827
1.30857
1.29324
1.28357
1.2821
1.26984
1.25658
1.24171
1.23805
1.22034
1.20891
1.19932
1.1923
1.1848
1.17322
1.1553
1.14695
1.13785
1.12889
1.1179
1.10732
1.09767
1.08286
1.07056
1.0651
1.05404
1.04372
1.03366
1.01497
1.00992
0.991439
0.988419
0.969588
0.968498
0.968612
0.956749
0.945322
0.929636
0.929504
0.926703
0.924942
0.906213
0.896633
0.885183
0.87278
0.858046
0.853874
0.848982
0.833735
0.833178
0.835056
0.819341
0.803709
0.794874
0.780975
0.782679
0.771502
0.751828
0.749229
0.737395
1.47083
1.45305
1.4475
1.43519
1.42581
1.40768
1.4042
1.3926
1.38086
1.36968
1.36329
1.35362
1.35414
1.34052
1.32906
1.31755
1.30548
1.29104
1.28337
1.27687
1.26667
1.26265
1.2452
1.2331
1.21838
1.20958
1.197
1.19766
1.18344
1.1696
1.15305
1.14631
1.13666
1.12934
1.11763
1.10518
1.09495
1.08239
1.07363
1.07089
1.05378
1.04405
1.03304
1.01955
1.00179
0.99604
0.982566
0.967674
0.967302
0.9661
0.957879
0.944645
0.931637
0.932202
0.930889
0.926982
0.906643
0.895545
0.883772
0.872485
0.856744
0.852637
0.845214
0.838946
0.837929
0.836115
0.816094
0.805168
0.789892
0.783195
0.782394
0.770133
0.754171
0.742439
0.743533
1.47104
1.45289
1.44751
1.43409
1.42463
1.41375
1.39939
1.39359
1.37952
1.36877
1.36716
1.35663
1.35332
1.33997
1.32934
1.3175
1.30455
1.29076
1.28264
1.27396
1.27045
1.25874
1.24489
1.23021
1.22067
1.20415
1.20119
1.19567
1.18128
1.16883
1.15295
1.14766
1.13351
1.13266
1.11811
1.10079
1.0947
1.08009
1.07922
1.07077
1.05615
1.04578
1.03524
1.01883
1.00186
0.993017
0.979422
0.971041
0.968121
0.967462
0.94864
0.944708
0.939922
0.938741
0.936718
0.919037
0.907782
0.895387
0.882166
0.876465
0.857511
0.854435
0.840024
0.839567
0.842245
0.83089
0.815547
0.811597
0.790743
0.780163
0.777734
0.770401
0.750913
0.744601
0.740754
1.4715
1.45309
1.44654
1.43364
1.42351
1.41395
1.40287
1.38975
1.37833
1.37309
1.37077
1.35222
1.34983
1.33542
1.33523
1.31843
1.30465
1.29053
1.28164
1.27109
1.27133
1.25494
1.24442
1.23252
1.22035
1.20872
1.1958
1.19446
1.17711
1.17396
1.15812
1.14648
1.13102
1.12762
1.12052
1.09661
1.09302
1.08629
1.07902
1.06889
1.06199
1.0478
1.03303
1.0187
1.00478
0.991759
0.984616
0.971622
0.965088
0.963797
0.947072
0.94624
0.946009
0.94547
0.934109
0.914506
0.909283
0.896663
0.884682
0.875699
0.862909
0.852812
0.838553
0.837776
0.836391
0.827354
0.822327
0.812344
0.792575
0.782441
0.774334
0.765729
0.754144
0.746047
0.740613
1.47249
1.45576
1.44223
1.43565
1.41993
1.40755
1.408
1.38837
1.38404
1.37583
1.36616
1.35212
1.3456
1.33423
1.33391
1.31567
1.30496
1.29373
1.28301
1.27336
1.2655
1.25513
1.24544
1.23525
1.21959
1.20486
1.19507
1.19207
1.17824
1.17585
1.1614
1.14863
1.13501
1.12583
1.11598
1.09851
1.095
1.09282
1.07832
1.06591
1.05238
1.04955
1.03035
1.01812
1.00673
0.995915
0.986562
0.976244
0.96678
0.962414
0.947063
0.948484
0.951884
0.94031
0.936633
0.917541
0.906836
0.896693
0.885388
0.877151
0.865722
0.855258
0.838764
0.837314
0.834417
0.821375
0.818476
0.814462
0.794806
0.783458
0.772474
0.763563
0.753832
0.745205
0.73697
1.4726
1.45665
1.44573
1.43066
1.41272
1.4099
1.4102
1.39523
1.38044
1.37788
1.36521
1.35277
1.34087
1.33959
1.32564
1.31466
1.30572
1.29374
1.28379
1.27589
1.2623
1.25458
1.24706
1.23315
1.21806
1.20687
1.18994
1.18937
1.1842
1.17478
1.16255
1.15137
1.13784
1.12575
1.11885
1.10661
1.09626
1.08711
1.07552
1.06417
1.05273
1.04393
1.03068
1.01679
1.00816
0.998644
0.989471
0.980473
0.973081
0.960401
0.948208
0.950285
0.94875
0.945965
0.93111
0.919946
0.90839
0.897082
0.884607
0.880116
0.868402
0.857311
0.843208
0.838823
0.83148
0.817176
0.812681
0.809284
0.798812
0.783755
0.76854
0.762386
0.751955
0.744053
0.735332
1.47077
1.45373
1.4473
1.4314
1.41307
1.41099
1.41123
1.39204
1.3822
1.37497
1.36429
1.35325
1.34248
1.33534
1.32452
1.31185
1.30792
1.2912
1.28254
1.27361
1.2634
1.25418
1.24455
1.23204
1.22313
1.20448
1.1927
1.18932
1.18004
1.17596
1.16113
1.15123
1.14024
1.12896
1.12016
1.11068
1.09629
1.08187
1.07216
1.06251
1.0525
1.04247
1.03132
1.02024
1.01058
1.00102
0.992199
0.983278
0.974577
0.963673
0.954011
0.956107
0.945389
0.940556
0.930766
0.921025
0.910293
0.898969
0.887803
0.879598
0.871049
0.857417
0.841893
0.841814
0.83091
0.814934
0.806144
0.808314
0.796526
0.784176
0.76637
0.762547
0.747385
0.736332
0.735042
1.4681
1.4552
1.44933
1.43084
1.41515
1.41379
1.40606
1.39027
1.38163
1.37299
1.36336
1.35378
1.34383
1.33462
1.32629
1.3125
1.30059
1.2909
1.28161
1.27257
1.26369
1.25426
1.24506
1.22803
1.2263
1.20623
1.19812
1.18475
1.18273
1.17191
1.15745
1.15033
1.14202
1.13406
1.11737
1.11393
1.0961
1.08207
1.06898
1.06135
1.05221
1.0421
1.03182
1.02234
1.01282
1.00259
0.995585
0.985462
0.978284
0.967319
0.958726
0.953989
0.946441
0.938386
0.929971
0.923266
0.912847
0.900747
0.888593
0.877801
0.868243
0.857302
0.846585
0.840339
0.83171
0.81611
0.801155
0.800884
0.794302
0.786281
0.771674
0.758783
0.740667
0.737591
0.736512
1.46934
1.45341
1.44618
1.43121
1.42067
1.41204
1.4025
1.39074
1.38086
1.37205
1.36207
1.35479
1.34439
1.33315
1.32318
1.31187
1.3007
1.29033
1.28045
1.27129
1.26438
1.25409
1.24351
1.2324
1.22495
1.20672
1.19861
1.18982
1.18216
1.1708
1.15873
1.15066
1.14302
1.13356
1.11704
1.11009
1.09179
1.08128
1.07051
1.06177
1.05282
1.04196
1.03117
1.02471
1.01588
1.00272
1.00128
0.984835
0.985724
0.968816
0.95969
0.95412
0.94783
0.936903
0.927095
0.927899
0.916994
0.902511
0.888022
0.874791
0.866809
0.857075
0.847077
0.838729
0.829149
0.817116
0.805556
0.799129
0.793479
0.778132
0.77594
0.758467
0.74064
0.7388
0.736928
1.46514
1.44692
1.44346
1.4302
1.42111
1.41173
1.40127
1.38952
1.37907
1.37273
1.35807
1.35751
1.34561
1.33053
1.32151
1.31112
1.3001
1.28922
1.27872
1.26784
1.26871
1.25423
1.24242
1.23356
1.22281
1.20703
1.19998
1.19451
1.18428
1.17072
1.15699
1.15081
1.13594
1.13486
1.1189
1.10629
1.08969
1.08082
1.07007
1.06241
1.05541
1.04259
1.02818
1.02756
1.01317
1.01202
0.999764
0.987477
0.98941
0.972305
0.959224
0.954907
0.950689
0.937136
0.92439
0.925114
0.923985
0.904257
0.886196
0.87683
0.867297
0.856976
0.845673
0.838487
0.829045
0.817779
0.8066
0.797528
0.791894
0.776692
0.776515
0.759768
0.74642
0.740383
0.736225
1.46442
1.44755
1.44477
1.42916
1.41612
1.41367
1.40002
1.38793
1.37406
1.37201
1.3595
1.35322
1.34883
1.33204
1.32131
1.311
1.29936
1.28776
1.27798
1.26437
1.26637
1.26093
1.23983
1.23432
1.21904
1.20906
1.19996
1.1935
1.18807
1.17075
1.15829
1.14991
1.13696
1.12897
1.11722
1.1067
1.09009
1.0825
1.06713
1.06242
1.05328
1.04484
1.03244
1.02353
1.01762
1.01573
1.00094
0.993226
0.990018
0.981104
0.963392
0.955248
0.946204
0.940035
0.924664
0.924055
0.923064
0.903404
0.885726
0.879386
0.868702
0.857971
0.840966
0.839832
0.829851
0.818269
0.805414
0.79273
0.790546
0.780474
0.772977
0.759622
0.756056
0.739418
0.735962
1.46353
1.44598
1.44192
1.42931
1.42046
1.41378
1.39776
1.38521
1.37917
1.36968
1.35802
1.35736
1.3414
1.33702
1.32075
1.31216
1.29853
1.28482
1.2715
1.26898
1.26813
1.25925
1.24421
1.23052
1.22475
1.21024
1.19764
1.19176
1.18028
1.17447
1.158
1.15358
1.13459
1.12505
1.11428
1.10274
1.09187
1.08237
1.07622
1.06725
1.05328
1.05037
1.0339
1.01792
1.01696
1.01548
1.01103
0.996528
0.995469
0.977757
0.965895
0.956385
0.948504
0.936046
0.92799
0.92445
0.914735
0.900339
0.884358
0.884587
0.870059
0.85631
0.842177
0.840974
0.822363
0.818397
0.804141
0.790683
0.787846
0.781661
0.773709
0.769473
0.754633
0.737895
0.737923
1.4628
1.4432
1.44075
1.42941
1.42093
1.41112
1.4017
1.39008
1.37809
1.36904
1.35704
1.35484
1.34203
1.33148
1.32268
1.31681
1.2976
1.28166
1.26973
1.27188
1.26103
1.25986
1.24781
1.23278
1.22541
1.2101
1.1972
1.19307
1.17882
1.1705
1.15906
1.14936
1.13285
1.12296
1.11231
1.09849
1.09224
1.09041
1.08054
1.07256
1.05867
1.05117
1.03574
1.01827
1.01566
1.01555
1.015
0.999215
0.997135
0.977288
0.966405
0.956214
0.94637
0.935988
0.928837
0.920493
0.910766
0.899318
0.887573
0.886991
0.871299
0.855694
0.847091
0.836109
0.822905
0.81143
0.799944
0.798688
0.789418
0.784279
0.772453
0.769712
0.754806
0.740793
0.743316
1.46398
1.44581
1.44166
1.43014
1.42133
1.41028
1.40707
1.39074
1.37802
1.37096
1.35962
1.35049
1.34192
1.33267
1.32131
1.30986
1.29396
1.27677
1.2746
1.27307
1.25743
1.2572
1.2533
1.23426
1.22949
1.20835
1.20454
1.1895
1.17846
1.16808
1.15735
1.1463
1.13417
1.12175
1.11418
1.10131
1.08939
1.09113
1.08649
1.07975
1.05887
1.05126
1.03961
1.02591
1.01364
1.01555
1.0147
1.00438
0.995246
0.977264
0.966392
0.955656
0.945248
0.933196
0.930379
0.917909
0.908847
0.899868
0.887961
0.887962
0.870628
0.856337
0.848745
0.833885
0.822545
0.805265
0.800626
0.800538
0.791703
0.786757
0.77746
0.764476
0.754695
0.745166
0.741661
1.46574
1.44654
1.44305
1.43133
1.42309
1.41454
1.40187
1.39124
1.38036
1.37072
1.36058
1.35096
1.34227
1.33471
1.31979
1.30719
1.29259
1.27719
1.27731
1.2693
1.25734
1.2582
1.25417
1.23763
1.22703
1.21248
1.20203
1.19023
1.17808
1.16599
1.15375
1.14527
1.13623
1.11584
1.11235
1.10422
1.09618
1.09513
1.09297
1.0768
1.05672
1.05283
1.03932
1.03349
1.02028
1.02021
1.0062
1.00282
0.998177
0.979832
0.964823
0.953682
0.945897
0.933917
0.923506
0.908808
0.907014
0.903836
0.898213
0.882302
0.870765
0.857948
0.848906
0.833552
0.822078
0.807915
0.7996
0.798126
0.791053
0.785655
0.781631
0.763862
0.75475
0.745788
0.737659
1.4685
1.45476
1.44559
1.43266
1.4242
1.41389
1.40297
1.39205
1.38144
1.3712
1.36105
1.35112
1.34144
1.33151
1.31954
1.30676
1.29315
1.27941
1.27503
1.26903
1.26259
1.26315
1.25046
1.23581
1.22836
1.21392
1.19878
1.19123
1.17633
1.16412
1.1479
1.1449
1.13723
1.11667
1.11537
1.10723
1.09788
1.09999
1.08959
1.07607
1.06017
1.04657
1.04558
1.03411
1.03134
1.01742
1.00815
1.00201
0.991099
0.978948
0.965097
0.951832
0.948803
0.933857
0.920115
0.90813
0.907492
0.909776
0.89384
0.882208
0.871848
0.856065
0.844469
0.834548
0.823669
0.81259
0.804149
0.799721
0.788319
0.783068
0.776342
0.76484
0.754784
0.745199
0.735748
1.46726
1.45014
1.44403
1.43359
1.42554
1.41448
1.40381
1.3927
1.38198
1.37146
1.36118
1.35118
1.34086
1.33025
1.31891
1.30706
1.29513
1.28402
1.27598
1.26911
1.26448
1.25835
1.24806