/*--------------------------------*- C++ -*----------------------------------*\
  =========                 |
  \\      /  F ield         | OpenFOAM: The Open Source CFD Toolbox
   \\    /   O peration     | Website:  https://openfoam.org
    \\  /    A nd           | Version:  12
     \\/     M anipulation  |
\*---------------------------------------------------------------------------*/
FoamFile
{
    format      ascii;
    class       surfaceScalarField;
    location    "0.1";
    object      phi.water;
}
// * * * * * * * * * * * * * * * * * * * * * * * * * * * * * * * * * * * * * //

dimensions      [0 3 -1 0 0 0 0];

internalField   nonuniform List<scalar> 
7375
(
-1.05638e-08
-1.39465e-07
1.8906e-07
-2.06905e-07
1.34517e-07
5.23172e-08
2.18503e-07
6.02469e-08
1.43572e-07
-7.04337e-08
1.3697e-07
8.06198e-09
1.89544e-07
-5.27817e-08
1.89399e-07
1.65458e-10
2.24907e-07
-3.55897e-08
2.4904e-07
-2.42515e-08
2.69273e-07
-2.02546e-08
2.99736e-07
-3.05091e-08
2.96996e-07
2.71263e-09
2.57203e-07
3.97776e-08
2.33637e-07
2.35169e-08
2.37441e-07
-4.16839e-09
2.74751e-07
-3.76496e-08
3.09234e-07
-3.43718e-08
3.16008e-07
-6.69818e-09
2.89665e-07
2.65228e-08
2.51422e-07
3.84226e-08
2.16135e-07
3.52361e-08
1.92077e-07
2.39851e-08
2.26632e-07
-3.47188e-08
2.94299e-07
-6.71025e-08
3.02283e-07
-7.93269e-09
3.00812e-07
1.5468e-09
3.40545e-07
-3.97117e-08
3.53395e-07
-1.28402e-08
3.44393e-07
9.01122e-09
3.26651e-07
1.76706e-08
3.06513e-07
2.0099e-08
2.75361e-07
3.11491e-08
2.45466e-07
3.00261e-08
2.64393e-07
-1.88642e-08
3.14733e-07
-5.03453e-08
3.28493e-07
-1.37634e-08
3.05664e-07
2.27714e-08
3.1456e-07
-8.93496e-09
3.20952e-07
-6.40832e-09
3.11415e-07
9.42033e-09
3.2341e-07
-1.21495e-08
3.7883e-07
-5.54176e-08
3.62945e-07
1.5829e-08
3.34566e-07
2.85272e-08
2.99351e-07
3.53201e-08
2.87606e-07
1.1722e-08
3.07001e-07
-1.94572e-08
3.08712e-07
-1.55697e-09
2.71579e-07
3.76962e-08
2.24467e-07
4.72803e-08
2.13375e-07
1.10793e-08
2.26149e-07
-1.27895e-08
2.25066e-07
7.92882e-10
2.21279e-07
3.62664e-09
2.57085e-07
-3.61109e-08
3.19809e-07
-6.28425e-08
3.75797e-07
-5.60438e-08
3.69254e-07
6.64652e-09
3.43657e-07
2.58681e-08
2.9198e-07
5.20139e-08
2.46409e-07
4.58511e-08
2.26862e-07
1.96898e-08
1.98022e-07
2.87996e-08
1.83481e-07
1.43811e-08
1.98905e-07
-1.57587e-08
2.28841e-07
-3.03289e-08
2.5212e-07
-2.37105e-08
2.63012e-07
-1.09187e-08
2.72296e-07
-9.27875e-09
2.76434e-07
-3.98691e-09
2.87489e-07
-1.10539e-08
2.99451e-07
-1.18499e-08
2.79434e-07
2.02252e-08
4.07691e-08
-1.40112e-07
-1.52514e-07
-1.50144e-07
-1.96256e-07
-4.31812e-08
-5.20491e-08
4.83931e-08
-3.23929e-08
-3.06132e-08
7.3607e-09
-1.70918e-08
-5.45897e-09
-4.1016e-08
-2.88571e-08
-1.67361e-08
-2.4114e-08
-1.12335e-08
-4.10918e-08
-2.90382e-08
-5.45895e-08
3.45568e-08
-3.57059e-08
1.11092e-08
-7.06105e-09
1.58347e-08
-2.01239e-09
-1.62098e-09
5.72338e-08
-3.97131e-08
6.16095e-08
-4.43227e-08
4.41805e-10
-5.7155e-08
-2.48169e-08
-6.17811e-08
-2.97452e-08
-4.79856e-08
-2.04932e-08
-8.91538e-09
-1.25469e-08
1.89993e-08
1.05083e-08
2.42714e-08
2.99646e-08
2.90171e-08
-2.89035e-08
3.3561e-08
-4.00128e-08
5.02749e-08
-3.6159e-08
5.71492e-08
-1.37107e-08
3.74349e-08
-2.73781e-08
5.33408e-08
-7.85595e-09
6.829e-08
-2.77891e-08
2.01762e-08
5.71253e-08
-2.4955e-08
6.28019e-08
-8.86538e-08
8.37981e-08
-7.78769e-08
2.03722e-08
-2.60111e-08
-2.18395e-08
-1.86601e-09
-4.30094e-08
4.75695e-09
-5.69682e-08
6.35172e-08
-7.25236e-08
-2.79544e-09
4.05274e-08
2.11999e-08
1.52128e-08
-1.64408e-08
3.12325e-08
-6.13644e-08
5.43438e-08
-6.25313e-08
-1.09825e-08
9.84838e-08
-7.30078e-08
6.64305e-08
-9.50889e-08
1.24623e-07
-2.89875e-08
1.56968e-07
2.97521e-09
1.58797e-07
9.89312e-09
1.39219e-07
1.20656e-10
1.06408e-07
3.23399e-08
5.92438e-08
3.62209e-08
7.10123e-08
8.30508e-08
-9.21795e-09
9.13098e-08
-6.55219e-08
4.35145e-08
-9.44882e-08
2.97595e-08
-9.76341e-08
6.77261e-09
-8.29038e-08
-5.08409e-08
-5.13824e-08
-9.43638e-08
1.15865e-08
-1.20239e-07
2.14757e-08
-3.2098e-09
3.2127e-08
1.5374e-08
1.62682e-08
6.78728e-08
1.86563e-08
4.30243e-08
3.12998e-08
7.04625e-09
-4.89716e-09
6.49967e-08
-5.913e-08
6.86138e-08
-1.13242e-07
3.8353e-08
-1.29747e-07
-1.38234e-08
-1.2744e-07
-2.60171e-08
-1.2227e-07
-1.60887e-08
-1.25775e-07
-5.77386e-09
-1.46644e-07
1.6883e-08
-1.50498e-07
-7.20076e-09
-1.24363e-07
-3.79857e-08
-1.0283e-07
-1.30793e-09
3.81007e-08
-2.06915e-07
-1.02328e-07
-1.07116e-07
1.38162e-08
-9.04672e-08
-6.48572e-08
-5.17845e-08
-7.07447e-08
-7.99771e-08
3.55537e-08
-7.24946e-08
-1.29411e-08
-9.14277e-08
-9.92356e-09
-9.60004e-08
-1.95409e-08
-1.09689e-07
-2.7403e-08
-1.42713e-07
-2.1565e-08
-1.79574e-07
1.15551e-09
-1.91705e-07
5.07052e-09
-1.41819e-07
-5.18977e-08
-5.45551e-08
-3.00295e-08
-1.25952e-09
8.31442e-09
1.71218e-08
-1.7939e-08
-3.66023e-08
2.89078e-08
-1.06484e-07
4.0137e-08
-1.20532e-07
-6.44456e-09
-1.29169e-07
-3.90955e-09
-1.17118e-07
-1.54243e-09
-4.89263e-08
-3.86205e-08
-8.81903e-08
9.46124e-09
-7.43806e-08
9.20963e-08
-1.42137e-07
3.1988e-08
-2.35142e-07
-6.51351e-08
-2.38969e-07
-2.32717e-08
-2.69442e-07
-2.55259e-08
-1.41818e-07
3.71599e-08
-1.54842e-07
6.94411e-08
-1.28932e-07
3.72728e-08
-2.667e-07
2.89925e-08
-2.64049e-07
1.77213e-08
-2.09376e-07
-2.83688e-08
-2.22973e-07
-2.94123e-08
-2.68157e-07
-5.99275e-08
-1.28296e-07
-1.85031e-08
-1.85996e-07
-4.47433e-08
-1.31555e-07
-4.07105e-08
-1.18054e-07
1.77308e-08
-7.40176e-08
1.03077e-08
-3.08024e-08
-5.47564e-08
-1.24073e-08
-9.14029e-08
-2.69575e-08
-8.15087e-08
4.56897e-09
-6.0514e-08
2.46356e-08
-1.70914e-08
4.55585e-08
-1.09184e-08
2.80654e-08
1.77955e-08
4.5919e-08
1.44863e-08
3.11624e-08
5.06082e-08
3.44452e-08
7.97681e-08
-3.86573e-08
1.62752e-07
-9.8312e-08
1.03169e-07
-1.31418e-07
6.28653e-08
-1.16695e-07
-7.94983e-09
-1.07579e-07
-6.05741e-08
-1.40301e-07
-6.30729e-08
-7.02299e-08
-4.3668e-08
-2.13784e-07
-4.03555e-09
-1.4276e-07
8.80646e-08
-1.4629e-07
7.51187e-08
-2.13102e-07
-3.28037e-08
-1.70235e-07
-3.79948e-08
-1.1915e-07
1.39122e-08
-8.79122e-08
3.7376e-08
-7.04768e-08
2.09176e-08
-9.14921e-08
7.19187e-09
-9.15606e-08
-2.62158e-08
-9.48936e-08
-1.27554e-08
-1.11072e-07
1.02998e-08
-9.69569e-08
2.76805e-09
-1.20253e-07
1.6095e-08
-1.41316e-07
-1.70983e-08
-1.5757e-07
1.49459e-08
3.06265e-08
-1.21763e-07
-1.33403e-07
-1.5307e-07
-1.00935e-07
-1.40501e-07
-7.58647e-08
-1.58186e-07
-5.30594e-08
-1.07435e-07
-1.51963e-08
-1.0407e-07
-1.63055e-08
-8.70096e-08
-2.69839e-08
-7.62602e-08
-3.02898e-08
-5.7677e-08
-4.59858e-08
-4.62412e-08
-3.30003e-08
-6.41073e-08
1.90221e-08
-9.05635e-08
3.15272e-08
-1.23707e-07
-1.87535e-08
-1.15031e-07
-3.87055e-08
-8.00078e-08
-2.6708e-08
-6.23358e-08
-3.56105e-08
-2.89305e-08
-4.49697e-09
-4.97958e-08
6.10029e-08
-1.10279e-07
5.40391e-08
-1.4317e-07
2.8982e-08
-1.51662e-07
5.40286e-09
-3.15646e-08
-1.27992e-08
-1.58162e-07
-5.67709e-08
-1.5973e-07
9.2725e-08
-1.64307e-07
3.65658e-08
-2.14325e-07
3.30264e-08
-2.02303e-07
-3.52938e-08
-2.34663e-07
6.83401e-09
-3.75119e-08
-1.51781e-08
-1.12924e-07
7.41529e-10
-9.37645e-09
7.76795e-08
-1.85591e-07
1.27297e-08
-2.17969e-07
5.00996e-08
-2.36373e-07
3.8572e-08
-2.51474e-07
-1.43111e-08
-2.83047e-07
-2.83547e-08
-2.30583e-07
-7.09673e-08
-2.71423e-07
-4.97341e-08
-2.10906e-07
-5.357e-08
-1.81972e-07
-1.33552e-08
-1.57795e-07
-1.54787e-08
-1.53204e-07
-1.07987e-07
-1.56179e-07
-3.87216e-08
-2.38483e-07
7.958e-10
-2.42934e-07
-5.6063e-08
-2.50053e-07
-5.5565e-08
-2.01907e-07
-1.34467e-08
-2.2998e-07
-4.85204e-09
-1.81595e-07
1.65918e-08
-2.41355e-07
6.22249e-08
-9.06234e-08
1.21297e-07
-1.66262e-07
9.54196e-08
-1.59493e-07
9.47041e-08
-1.7245e-07
7.58229e-08
-1.7786e-07
-4.35462e-09
-6.40568e-08
-2.84583e-08
-6.64486e-08
-6.0646e-08
-1.0239e-07
-6.23658e-09
-1.78922e-07
-6.98098e-08
-1.15893e-07
2.11297e-08
-1.04226e-07
1.60521e-08
-1.37489e-07
4.88378e-08
-1.62684e-07
-1.4202e-08
-1.4056e-07
-8.2123e-09
-8.36258e-08
-1.95581e-08
-6.73752e-08
4.66711e-09
-1.09403e-07
4.81036e-08
-6.69143e-08
7.72139e-08
-9.69609e-08
1.89632e-08
-1.44056e-07
-8.55762e-08
-9.49637e-08
-4.77939e-08
-8.99699e-08
1.01827e-08
3.68655e-09
3.51627e-08
-3.60913e-08
5.5054e-08
-2.77555e-08
-1.4062e-07
-1.45511e-07
-1.63269e-07
-7.75349e-08
-1.43189e-07
-9.26132e-08
-1.44817e-07
-5.14314e-08
-1.15333e-07
-4.46795e-08
-1.17977e-07
-1.36616e-08
-1.22115e-07
-2.28455e-08
-1.45622e-07
-6.85149e-09
-1.49333e-07
-4.22742e-08
-1.5078e-07
-3.15528e-08
-9.1664e-08
-3.9689e-08
-6.95617e-08
9.42538e-09
-9.70982e-08
8.78342e-09
-9.68968e-08
-3.89064e-08
-8.45686e-08
-3.94381e-08
-1.34294e-07
1.39727e-08
-1.00045e-07
-3.87453e-08
-3.86516e-08
-3.90123e-10
-5.70667e-08
7.24547e-08
-7.78617e-08
4.97775e-08
-7.29147e-08
4.56348e-10
-1.10896e-07
2.44313e-08
-6.95654e-08
4.7817e-08
-2.13582e-07
4.48786e-08
-8.28812e-08
9.74443e-08
-2.06332e-07
-3.60953e-08
-2.09601e-07
1.6285e-08
-2.82791e-07
3.18813e-08
-9.52765e-08
-1.01198e-08
-6.66761e-08
-2.71709e-08
-1.28463e-07
-4.24605e-09
-1.33682e-07
1.66379e-08
-1.19226e-07
3.4428e-08
-1.45917e-07
1.66234e-08
-1.48239e-07
3.76431e-08
-1.25692e-07
-5.14265e-08
-1.72879e-07
-2.37809e-08
-2.1923e-07
-5.15259e-08
-2.31175e-07
-4.21714e-08
-2.27345e-07
-1.71859e-08
-2.27704e-07
-1.51197e-08
-1.06071e-07
-3.5945e-08
-4.85767e-08
-9.62161e-08
-2.12437e-07
-2.79167e-08
-8.13447e-08
5.41764e-09
-9.86127e-08
-3.8297e-08
-6.191e-08
-5.02865e-08
-2.13197e-07
-4.60888e-08
-1.62751e-07
1.42894e-08
-2.64237e-07
1.17069e-07
-1.89648e-07
9.43648e-08
-1.66135e-07
7.09455e-08
-1.34332e-07
6.2901e-08
-8.14954e-08
2.29867e-08
-6.86106e-08
-1.72393e-08
-5.82342e-08
-3.95416e-08
-8.86361e-10
2.79248e-08
-1.68301e-07
-2.96691e-08
-1.70118e-07
-2.10399e-08
-1.21112e-07
-3.08473e-08
-1.30494e-08
5.37426e-08
-2.12047e-07
5.58943e-08
-2.24605e-07
4.64985e-08
-3.03487e-07
2.2527e-08
-1.89453e-07
5.89807e-08
-1.67583e-07
-1.72027e-08
-1.51087e-07
3.1608e-08
-1.22826e-07
4.81649e-08
-2.3165e-07
-6.47854e-08
-2.58676e-07
-1.12797e-08
-2.94281e-07
-1.21893e-08
-2.70611e-07
-6.16314e-08
-1.12994e-07
6.97592e-08
-1.09963e-07
5.20226e-08
2.36466e-08
-1.152e-07
-1.86277e-07
-1.372e-07
-1.03835e-07
-1.05952e-07
-1.18262e-07
-7.81803e-08
-7.92031e-08
-1.01966e-07
-2.08939e-08
-1.10656e-07
-4.97103e-09
-1.34835e-07
-4.15605e-11
-1.89656e-07
-6.68822e-10
-2.1229e-07
3.0438e-08
-2.64544e-07
-2.47433e-08
-2.17e-07
-3.95749e-08
-1.75519e-07
-3.42693e-08
-1.53907e-07
-1.28276e-08
-1.25508e-07
-6.92925e-08
-3.82264e-08
1.95931e-08
-1.62536e-07
-4.30274e-09
-1.68998e-07
-3.35981e-08
-9.20297e-08
-7.81549e-08
-5.37336e-08
3.3814e-08
-5.58795e-08
5.19239e-08
-9.04571e-08
3.44631e-08
-1.89291e-07
7.46267e-08
-1.03525e-07
1.54491e-07
-1.34004e-07
7.67247e-08
-1.89785e-07
1.02546e-08
-2.1078e-07
-1.91866e-08
-1.96218e-07
-4.69164e-08
-2.24723e-07
6.23885e-08
-8.23997e-08
4.0544e-08
-5.79674e-08
-5.10117e-08
-1.60185e-07
-4.45925e-08
-1.214e-07
-2.37804e-08
-4.38435e-08
-4.31287e-08
9.36636e-09
-3.71348e-08
-2.3703e-08
6.9759e-08
2.91141e-08
4.21088e-08
-1.76604e-07
3.72101e-08
-1.79932e-07
-4.81977e-08
-2.46242e-07
-2.37625e-08
-2.38983e-07
-2.44443e-08
-1.96292e-07
-5.78107e-08
-1.40157e-07
-9.30298e-08
-1.90871e-08
-2.47126e-08
-2.37882e-07
-1.69478e-09
-1.74557e-07
-9.76396e-09
-1.78484e-07
-3.43703e-08
-2.02778e-07
-2.59926e-08
-2.41674e-07
-5.53356e-08
-7.77465e-08
4.3728e-08
-1.8168e-07
7.72513e-08
-1.20553e-07
3.23477e-08
-8.49601e-08
3.53525e-08
-9.53285e-08
7.32695e-08
-6.71088e-08
-5.28682e-09
-1.2811e-07
4.24548e-08
-7.72315e-08
5.54989e-08
-1.54116e-07
-3.9117e-08
-1.77223e-07
-6.5625e-09
-2.51379e-07
4.75882e-09
-8.59497e-08
-3.70352e-09
-7.57339e-08
4.25448e-08
-2.35264e-07
2.28519e-08
-1.80719e-07
4.05101e-08
-2.27858e-07
6.96656e-08
-1.87002e-07
-3.00179e-08
-1.6711e-07
-3.70955e-08
-1.50415e-07
1.49134e-08
-1.458e-07
4.35497e-08
-2.08134e-07
4.56923e-08
-2.26823e-07
7.40943e-09
-2.85227e-07
-1.92905e-09
-1.7395e-07
1.94655e-08
-1.00914e-07
-3.27702e-09
-5.65752e-08
7.68302e-09
-4.76598e-08
-1.22364e-07
-2.16669e-07
-1.18056e-07
-1.02334e-07
-1.32491e-07
-1.01418e-07
-1.16071e-07
-9.56227e-08
-1.06716e-07
-3.02485e-08
-9.00624e-08
-2.16244e-08
-8.07589e-08
-9.34469e-09
-6.59059e-08
-1.55146e-08
-3.76982e-08
2.23069e-09
-6.76666e-08
5.22568e-09
-5.73396e-08
-5.03051e-08
-1.16508e-08
-8.07818e-08
-7.17605e-08
4.65505e-08
-4.52791e-08
5.01449e-08
-2.01449e-07
-1.65479e-08
-1.791e-07
-2.48671e-08
-1.61084e-07
-5.58399e-09
-8.8179e-08
-5.89216e-09
-1.50051e-07
-4.63945e-08
-1.26334e-07
2.53883e-08
-4.91994e-08
1.03247e-07
-5.621e-08
8.19517e-08
-1.52395e-07
1.06629e-07
-1.0723e-07
3.00057e-08
-6.46913e-08
-3.21793e-08
-6.06511e-08
-2.32264e-08
-7.41676e-08
-3.32603e-08
-9.00807e-08
7.73828e-08
2.4285e-08
7.20969e-08
-2.33855e-08
-3.35015e-09
-1.48293e-07
-6.31066e-08
-1.19921e-07
-5.36649e-08
-1.07279e-07
-5.68649e-08
-9.58693e-09
1.11904e-08
-1.21079e-07
3.67826e-08
-4.1649e-08
1.06915e-07
-2.26636e-07
3.0049e-08
-1.16741e-07
3.56713e-08
-2.15639e-07
-6.78354e-08
-1.48758e-07
-9.35256e-08
-1.12061e-07
-9.56513e-08
-3.98898e-09
-5.5758e-08
-2.37633e-08
-4.89752e-09
-1.79313e-07
-3.87186e-08
-1.28921e-07
-6.01551e-08
-1.47455e-07
3.23065e-08
-2.13854e-07
4.04068e-08
-2.48783e-07
-2.04063e-08
-6.79934e-08
8.0614e-09
-1.21926e-07
-1.10071e-08
-7.0762e-08
-2.00599e-08
-3.17254e-08
-3.68397e-09
-2.54174e-08
6.67024e-08
3.63968e-08
7.88176e-08
-1.48199e-07
3.41064e-08
-1.54456e-07
6.11901e-08
-1.83922e-07
3.84924e-08
-2.20585e-07
3.01006e-08
-2.70594e-07
6.62475e-09
-8.18288e-08
9.39184e-10
-1.01819e-07
-8.04357e-08
-1.38167e-07
5.67518e-08
-6.26395e-08
1.09769e-07
-1.73992e-07
-1.09158e-08
-1.95554e-07
3.96872e-08
-2.66116e-07
-1.48274e-08
-2.19231e-07
-3.19718e-08
-1.97957e-07
2.22759e-08
-2.00013e-07
4.77486e-08
-1.62065e-07
-3.05385e-08
-1.83939e-07
2.18212e-08
-8.78048e-08
-2.87227e-08
-3.76964e-08
-5.42825e-08
-3.89439e-09
-2.64282e-08
1.02357e-07
-9.30627e-08
-2.76116e-07
-1.26104e-07
-2.11183e-07
-1.44195e-07
-8.20406e-08
-1.30761e-07
-1.09056e-07
-1.25348e-07
-3.56611e-08
-9.02666e-08
-5.72899e-08
-8.76077e-08
-1.20032e-08
-9.99184e-08
-3.17101e-09
-7.41312e-08
-2.3799e-08
-8.95414e-08
2.06364e-08
-1.15443e-07
-2.55809e-08
-3.72446e-08
-1.30613e-08
-1.78031e-07
-4.85544e-09
-1.51791e-07
7.15365e-08
-2.70505e-07
5.40233e-08
-2.51693e-07
4.46481e-09
-2.5551e-07
-1.82325e-09
-2.77466e-07
1.61242e-08
-3.15162e-07
-9.17049e-09
-2.87707e-07
-2.06635e-09
-2.21977e-07
3.64642e-08
-7.20343e-08
7.71738e-08
-1.48656e-07
4.13565e-08
-9.05097e-08
-2.96568e-08
-7.07625e-08
-5.19262e-08
-1.05029e-07
9.96939e-09
-5.01748e-08
5.78037e-08
-1.63533e-07
-1.31958e-09
-1.02616e-07
5.85878e-08
-1.72384e-07
1.82746e-08
-2.1419e-07
-2.19438e-08
-2.0046e-07
-1.92516e-08
-2.48002e-07
-9.32287e-09
-2.42318e-07
7.86404e-09
-1.96811e-07
-8.35268e-09
-1.24349e-07
3.10382e-08
-8.83669e-08
-5.93321e-09
-2.05554e-08
-3.21403e-08
-4.44331e-08
-4.46498e-08
-8.24745e-08
-5.54841e-08
-1.3147e-07
-4.79971e-08
-5.53981e-08
1.48159e-08
-1.14695e-07
5.49647e-08
-2.52804e-07
-4.50396e-08
-1.27764e-07
-4.07652e-08
-9.7986e-08
2.5286e-09
-2.15418e-07
1.32733e-08
-2.45649e-07
9.92681e-09
-2.78516e-07
4.09285e-08
-2.74212e-07
-1.54233e-08
-2.84931e-07
-9.34113e-09
-2.7559e-07
-1.30247e-08
-2.29287e-07
2.03998e-08
-1.95004e-07
4.37305e-08
-2.16649e-07
5.57514e-08
-2.03214e-07
4.7755e-08
-2.20141e-07
5.54196e-08
-2.22531e-07
3.24912e-08
-2.19687e-07
3.78019e-09
-2.15395e-07
-5.14956e-08
-7.13182e-08
-3.27596e-08
-5.17577e-08
3.77194e-08
-1.4681e-07
6.01348e-08
-1.5245e-07
-6.77381e-09
-1.3809e-07
2.39189e-08
-2.50072e-07
4.85148e-08
-1.45792e-07
5.88721e-08
-1.3343e-07
9.91478e-09
-2.45684e-07
-3.25706e-08
-1.01004e-07
1.73537e-08
-2.00123e-07
-7.03082e-08
-1.68919e-07
-1.25605e-08
-1.73549e-07
-5.31472e-08
-9.85694e-08
4.45101e-08
-2.0498e-08
-2.21498e-07
-2.61183e-07
-2.01043e-07
-1.78197e-07
-1.84401e-07
-9.86816e-08
-2.0094e-07
-9.25167e-08
-2.13192e-07
-2.55838e-08
-1.20124e-07
-4.48515e-09
-1.23108e-07
-6.53727e-09
-2.24055e-07
-4.74582e-08
-1.26684e-07
2.22107e-08
-2.5262e-07
-4.51679e-08
-2.39131e-07
9.07372e-09
-2.58835e-07
6.77617e-09
-2.69308e-07
5.61807e-09
-2.49141e-07
5.13694e-08
-2.45236e-07
5.01191e-08
-2.743e-07
3.35294e-08
-3.12944e-07
3.68213e-08
-3.27826e-07
3.10068e-08
-3.41197e-07
4.20097e-09
-3.28007e-07
-1.52566e-08
-3.17524e-07
2.5982e-08
-1.4438e-07
4.84599e-08
-2.22337e-07
-2.46939e-08
-2.49493e-07
-2.50019e-09
-2.96912e-07
-4.50758e-09
-2.85348e-07
-1.59349e-09
-2.56786e-07
2.86514e-08
-2.91871e-07
3.37661e-08
-2.66304e-07
3.30216e-08
-2.71743e-07
2.37133e-08
-2.69873e-07
-7.1957e-08
-1.8822e-07
-5.27612e-08
-1.45942e-07
-9.97435e-08
-1.38998e-07
9.20178e-10
-4.48482e-08
8.95291e-08
-1.43482e-07
-1.32996e-08
-1.00907e-07
-4.99716e-08
-2.33144e-08
-1.10864e-07
-1.90046e-08
-4.89596e-08
-7.48159e-08
3.272e-10
-1.58146e-07
3.37195e-08
-4.32635e-08
4.56991e-08
-1.84445e-07
4.01502e-09
-2.22261e-07
4.09192e-08
-1.67473e-07
4.88765e-08
-1.21982e-07
-4.12969e-08
-1.98244e-07
-5.54371e-08
-6.45438e-08
2.03109e-08
-8.98012e-08
6.68444e-08
-5.40031e-08
-5.12213e-08
-1.5628e-07
-5.14939e-08
-2.07361e-07
3.8057e-08
-2.42079e-07
5.51172e-08
-2.38712e-07
4.03644e-08
-2.419e-07
5.89389e-08
-2.43564e-07
4.94198e-08
-2.27833e-07
-8.4549e-09
-1.62578e-07
1.53792e-08
-2.10971e-07
5.21734e-08
-2.88007e-07
2.55412e-08
-1.44098e-07
-3.22391e-08
-1.08641e-07
3.33721e-09
-1.686e-07
-2.22705e-08
-1.36184e-07
-4.09095e-08
-8.95811e-08
-2.2684e-08
-8.47424e-08
4.31812e-08
-6.50936e-08
3.92233e-08
-5.49081e-08
-2.70728e-10
-1.14213e-07
2.67345e-08
-1.15728e-07
1.76878e-08
-1.99191e-08
-2.04093e-08
-2.19375e-07
-5.60346e-09
-8.09013e-08
9.50864e-10
-2.19744e-07
-9.67431e-09
1.37831e-08
-1.87463e-07
-2.25453e-07
-2.22802e-07
-1.40416e-07
-1.57671e-07
-1.59266e-07
-1.32458e-07
-1.18943e-07
-1.56091e-07
-3.5066e-09
-6.56567e-08
5.10454e-08
-8.50263e-08
1.35025e-08
-6.93169e-08
-6.35929e-08
-1.48195e-07
-4.36033e-08
-2.58726e-07
1.51968e-08
-2.02784e-07
3.91565e-09
-2.62999e-07
6.69908e-08
-2.99617e-07
4.22373e-08
-2.76331e-07
2.80837e-08
-2.61979e-07
3.54058e-08
-2.22661e-07
-5.84731e-09
-2.53223e-07
6.67035e-08
-2.29401e-07
7.18527e-09
-2.23746e-07
-1.4543e-09
-2.503e-07
1.12985e-08
-2.5848e-07
-1.39805e-08
-2.33424e-07
2.34037e-08
-2.51694e-07
4.17199e-08
-2.90283e-07
3.60893e-08
-3.12309e-07
1.75186e-08
-2.762e-07
-3.80902e-08
-2.46916e-07
-6.32496e-10
-2.1466e-07
1.51066e-09
-1.85465e-07
3.78764e-09
-1.61308e-07
-4.85866e-08
-1.75841e-07
-5.80155e-08
-1.91294e-07
-3.73081e-08
-8.19892e-08
-1.64751e-08
-8.60624e-08
5.81214e-09
-1.28095e-07
-1.14089e-08
-1.45125e-07
2.28771e-09
-1.57478e-07
-3.96298e-08
-1.01361e-07
-2.10621e-08
-1.37271e-07
-1.20151e-08
-1.21001e-07
-1.59437e-08
-2.15312e-07
-6.45417e-08
-1.42905e-07
2.09693e-08
-2.08765e-07
2.17312e-08
-1.92872e-07
2.50259e-08
-1.62168e-07
1.98273e-08
-1.18829e-07
-3.69789e-08
-1.67013e-07
-1.07342e-08
-5.02295e-08
4.92361e-08
-1.50316e-07
-2.51298e-08
-1.67413e-07
1.40195e-08
-2.17349e-07
-1.5586e-09
-2.03173e-07
2.38819e-08
-2.04515e-07
5.64592e-08
-2.06064e-07
4.19135e-08
-1.78955e-07
3.18294e-08
-1.76474e-07
4.69391e-08
-2.38245e-07
5.33161e-08
-1.1055e-07
3.17899e-08
-1.82416e-07
-2.05997e-08
-1.933e-07
3.64246e-08
-7.55942e-08
-4.74348e-09
-1.5715e-07
-5.80776e-08
-1.17359e-07
-6.38926e-08
-1.34199e-07
-2.40692e-08
-1.27459e-07
-2.91269e-08
-5.54886e-08
-2.90859e-08
-4.47536e-08
2.84882e-08
-6.52891e-08
2.02648e-08
-9.64542e-08
5.78996e-08
-1.22001e-07
4.19903e-08
1.67316e-08
-1.3014e-08
-2.11426e-07
2.98099e-08
-1.40795e-07
1.22891e-07
-2.5735e-07
-8.56924e-08
3.07738e-08
-1.23966e-07
-9.86097e-08
-1.37269e-07
-7.24924e-08
-1.92271e-07
-1.05905e-07
-9.12083e-08
-7.3147e-08
-1.97657e-07
-3.87166e-08
-1.58222e-07
9.07382e-09
-1.46596e-07
3.80954e-10
-4.18503e-08
-2.26533e-08
-1.03366e-07
1.78952e-08
-2.37168e-07
-4.37295e-08
-1.11489e-07
7.08104e-08
-2.20568e-07
-1.65026e-08
-2.12611e-07
8.15919e-08
-1.05765e-07
6.67464e-08
-1.90255e-07
-2.49966e-08
-4.29187e-08
-8.78294e-09
-1.09528e-07
-9.22396e-09
-1.01379e-07
-2.08076e-09
-6.01466e-08
-4.26866e-08
-5.76778e-08
8.83008e-09
-7.14121e-08
-2.45778e-10
-5.078e-08
2.77209e-09
-3.54498e-08
2.63901e-08
-3.95633e-08
4.02032e-08
-6.78512e-08
4.51146e-08
-3.30433e-08
7.30207e-08
-7.18895e-08
3.85511e-08
-4.42141e-08
-2.59784e-08
-1.21193e-07
-6.2204e-08
-1.41396e-07
-3.07489e-08
-5.59533e-08
2.46035e-09
-7.75605e-08
-1.513e-08
-4.89409e-08
-4.50549e-08
-1.2752e-07
-5.85798e-08
-1.04236e-07
-3.611e-08
-1.14956e-07
1.18351e-08
-1.37323e-07
-6.5902e-08
-1.71992e-07
6.33655e-08
-2.16927e-07
3.29197e-08
-2.09529e-07
-2.33409e-08
-2.29215e-07
-4.4856e-08
-2.1725e-07
9.00391e-09
-2.34431e-07
-9.23108e-09
-1.78883e-07
-3.05218e-08
-1.57362e-07
-1.69391e-09
-5.09411e-08
4.87962e-08
-1.7381e-07
-3.22951e-08
-1.65196e-07
-8.02333e-09
-1.85016e-07
4.2834e-08
-2.07502e-07
3.65054e-08
-2.30381e-07
2.13199e-08
-2.16252e-07
9.75387e-09
-1.97201e-07
3.74083e-08
-2.16457e-07
6.11688e-08
-2.06385e-07
2.17584e-08
-1.9324e-07
3.37934e-08
-2.3956e-07
5.39372e-08
-2.138e-07
5.10127e-08
-1.10919e-07
2.0234e-08
-8.16029e-08
8.24065e-09
-3.94941e-08
-4.73351e-08
-2.16367e-07
-7.36189e-08
-1.9203e-07
-4.00865e-08
-2.79702e-07
1.85021e-08
-2.6965e-07
5.75461e-09
-1.52854e-07
-2.74238e-09
-1.41397e-07
1.859e-08
-1.46216e-07
2.50844e-08
-2.33868e-07
1.12116e-09
-2.54592e-07
1.45712e-08
-1.33287e-07
5.77974e-08
-1.29404e-07
2.59261e-08
-1.84492e-07
-1.45954e-08
-5.38776e-08
-2.34232e-08
-3.53299e-08
-1.47113e-07
-9.94819e-08
-2.77508e-07
-8.98756e-08
-2.86408e-07
-1.42783e-07
-1.02286e-07
-6.06021e-08
-1.94012e-07
-8.9449e-08
-1.75124e-07
-1.17929e-08
-1.59342e-07
-1.72016e-08
-2.07366e-09
-3.37696e-08
-1.59918e-07
-1.68119e-08
-9.41013e-08
8.30273e-08
-1.81728e-07
-3.41358e-08
-8.69282e-08
8.13285e-08
-1.55734e-07
7.42731e-09
-1.024e-07
1.18234e-08
-1.14035e-07
-1.3616e-08
-8.46862e-08
-3.84335e-08
-1.0255e-07
8.54635e-09
-1.52772e-07
4.76553e-08
-1.57185e-07
-3.82729e-08
-1.47344e-07
-1.0213e-09
-1.04689e-07
-4.29007e-08
-8.21792e-08
-1.97368e-08
-9.33454e-08
3.71774e-08
-8.19168e-08
2.87751e-08
-9.49122e-08
5.81103e-08
-1.07404e-07
8.47682e-08
-1.48323e-07
7.79567e-08
-7.96665e-08
5.12839e-08
-1.11235e-07
-2.93227e-08
-2.2022e-07
-6.47345e-08
-1.61621e-07
-5.84097e-08
-1.2547e-07
-5.25614e-08
-7.28797e-08
4.82735e-08
-1.33074e-07
1.77858e-09
-1.06775e-07
-6.2409e-08
-2.63176e-07
-2.43363e-08
-1.16321e-07
-1.95123e-08
-2.27248e-07
2.95611e-08
-2.11123e-07
1.6795e-08
-1.99988e-07
-3.48311e-08
-2.57703e-07
1.28587e-08
-2.28617e-07
-2.00818e-08
-2.42311e-07
-4.36809e-08
-1.94495e-07
-3.01939e-08
-1.97531e-07
1.34145e-09
-1.7987e-07
3.11362e-08
-2.24357e-07
1.21915e-08
-2.4153e-07
9.14955e-09
-2.33745e-07
3.5049e-08
-2.36536e-07
3.92964e-08
-2.6285e-07
4.7634e-08
-2.98224e-07
4.51278e-08
-2.94176e-07
3.33604e-08
-2.47507e-07
1.45005e-08
-1.66428e-07
8.42495e-08
-1.55447e-07
2.2813e-08
-1.0062e-07
1.36616e-10
-1.28069e-07
-6.39946e-08
-9.11428e-08
-1.82049e-08
-8.5031e-08
1.26151e-09
1.70392e-09
1.18309e-08
-1.47264e-07
-6.76396e-08
-1.48955e-07
-4.14173e-08
-1.81442e-07
2.35018e-09
-1.629e-07
-1.08776e-08
-1.56149e-07
-9.56305e-09
-1.79897e-07
4.23372e-08
-2.18372e-07
6.29178e-08
-2.46635e-07
7.75278e-08
-2.43039e-07
1.34538e-08
-1.76608e-07
-8.6335e-09
-1.18481e-07
-3.43543e-08
-1.22824e-07
-1.15058e-08
4.81708e-09
-5.19649e-09
-2.98978e-08
-6.11224e-08
-1.93696e-07
-5.21752e-08
-1.47809e-07
-1.31978e-07
-6.12733e-08
3.46159e-08
-8.24839e-08
-1.31781e-07
-6.72754e-08
-1.35513e-07
-1.07878e-08
-1.9662e-07
-4.7333e-09
-9.67078e-08
6.12415e-08
-1.51995e-07
3.84759e-08
-2.62315e-07
7.74417e-10
-9.80683e-08
-4.80836e-09
-1.32264e-07
-2.74468e-08
-1.24825e-07
-1.28417e-09
-1.36484e-07
2.34821e-08
-1.08891e-07
-4.23188e-08
-4.93764e-08
4.79706e-08
-1.05875e-07
6.66297e-08
-1.76959e-07
-2.42314e-08
-1.65542e-07
-5.31838e-08
-2.05345e-07
-9.85722e-09
-6.80635e-08
1.44859e-08
-6.89763e-08
-1.81199e-08
-1.12632e-07
-6.21374e-08
-1.12473e-07
2.74669e-08
-1.33367e-07
7.82067e-08
-1.03004e-07
5.44062e-08
-7.9657e-08
5.46097e-08
-1.86133e-08
-1.02826e-08
8.91022e-09
-5.6846e-08
-2.97158e-08
-2.70445e-08
-1.01775e-07
1.36493e-08
-8.66755e-08
-6.76603e-08
-7.15448e-08
3.15982e-08
-1.29699e-07
1.14114e-08
-4.25009e-08
4.42888e-08
-2.50263e-07
-9.14683e-09
-8.64904e-08
1.01703e-08
-1.51952e-07
-4.79488e-08
-1.01594e-07
-3.57844e-08
6.21683e-09
3.27672e-09
-1.336e-07
-4.0373e-08
-1.47035e-07
4.14967e-08
-1.66591e-07
-2.41251e-08
-1.86167e-07
-1.06177e-08
-1.88307e-07
3.48193e-09
-1.64249e-07
7.07763e-09
-1.57496e-07
5.43883e-09
-1.96052e-07
4.77051e-08
-2.22649e-07
6.16464e-08
-2.51734e-07
6.76904e-08
-2.30911e-07
2.68118e-08
-2.26278e-07
4.04947e-08
-2.27874e-07
-1.33222e-08
-1.05902e-07
8.5311e-08
-1.23234e-07
-4.13898e-08
-2.69402e-08
-7.55079e-08
1.86723e-09
-2.86707e-08
-6.65873e-08
3.76869e-09
-8.51742e-08
3.82078e-10
-7.3973e-08
-9.93959e-09
-6.78965e-08
5.63373e-09
-1.12778e-07
-2.34483e-08
-1.16496e-07
-3.7699e-08
-1.14948e-07
7.78343e-10
-1.52992e-07
2.56054e-08
-9.76273e-08
8.09906e-08
-1.23303e-07
7.02662e-08
-2.24925e-07
2.15688e-08
-1.48747e-07
-9.45128e-10
-9.81288e-08
-3.71641e-08
-1.08706e-07
7.46057e-10
-6.64424e-08
6.92998e-08
-2.57128e-07
-1.27169e-08
-2.367e-07
2.25715e-08
-2.16295e-08
-1.53321e-07
-1.93738e-07
-1.1581e-07
-1.31664e-07
-1.41472e-07
-3.58728e-08
-3.3286e-08
-4.39007e-08
-8.71069e-08
-1.38008e-08
-1.98349e-07
-4.39755e-08
-2.32959e-07
2.9926e-08
-2.25929e-07
6.06826e-09
-1.96762e-07
9.3094e-09
-2.43135e-07
4.71484e-08
-9.23638e-08
3.69935e-08
-1.16164e-07
-3.92611e-09
-1.17805e-07
3.57515e-10
-2.20052e-07
-6.68442e-08
-1.40529e-07
7.07319e-08
-1.33643e-07
4.05963e-08
-2.22969e-07
-3.66169e-08
-1.91046e-07
-5.64013e-08
-1.25008e-07
7.33511e-08
-2.33493e-07
-4.57007e-08
-1.96918e-07
-2.20884e-08
-2.25784e-07
-3.73968e-08
-8.55229e-08
-1.04591e-08
-6.57744e-08
8.38982e-09
-1.30339e-07
-1.99355e-10
-1.23997e-07
4.6735e-08
-7.76812e-08
8.29386e-09
-8.94215e-08
1.458e-09
-1.26142e-07
-2.14122e-08
-2.79426e-08
2.06749e-08
-2.04589e-07
-1.99159e-09
-1.20309e-07
4.18594e-08
-1.8597e-07
-4.75897e-08
-2.24618e-08
-8.21264e-09
-1.01223e-08
3.21786e-08
-2.11486e-07
4.77872e-08
-1.82205e-07
-1.91105e-08
-2.33716e-07
-4.26857e-08
-1.75939e-07
-4.54459e-08
-1.3456e-07
-4.17291e-08
-4.13121e-08
1.2298e-08
-1.65941e-07
-2.60263e-08
-2.25282e-07
8.33593e-08
-2.16412e-07
-1.94869e-08
-2.03536e-07
-9.39433e-09
-2.26133e-07
2.96742e-08
-2.45672e-07
2.49777e-08
-2.24835e-07
-2.12751e-08
-1.7171e-07
5.84167e-08
-1.84623e-07
7.97976e-08
-1.50961e-07
-8.82372e-09
-1.41406e-07
2.92e-08
-6.70587e-08
5.89399e-08
-1.45267e-07
2.12252e-08
-1.74987e-07
-1.53591e-08
-6.18513e-08
-4.317e-08
-8.2994e-08
-5.9892e-09
-1.95556e-07
-2.66401e-08
-1.66706e-07
-3.04632e-08
-1.35548e-07
-4.10972e-08
-1.28362e-07
-1.55291e-09
-1.15297e-07
-3.68892e-08
-9.32743e-08
-5.97215e-08
-9.47794e-08
2.28341e-09
-1.3552e-07
6.56755e-08
-1.23427e-07
6.80712e-08
-1.00591e-07
4.74307e-08
-1.10068e-07
3.12656e-08
-7.27766e-08
-3.82365e-08
-7.14253e-08
-3.85155e-08
-7.27968e-08
2.11708e-09
-2.15087e-08
1.74821e-08
-9.88116e-08
6.39327e-08
-1.18385e-07
4.09364e-08
3.73504e-08
-1.081e-07
-8.504e-08
-3.34154e-07
-1.00587e-07
-1.53811e-07
-1.68253e-08
-1.64563e-07
-3.27005e-08
-9.0469e-08
-8.78941e-08
-1.95155e-07
-8.37187e-08
-1.92109e-07
-2.12633e-08
-2.2053e-07
3.44897e-08
-5.17099e-08
3.3063e-08
-1.94565e-07
-2.56886e-09
-1.41421e-07
3.19926e-08
-1.77468e-07
3.21215e-08
-2.01215e-07
2.41053e-08
-2.52976e-07
-1.50832e-08
-2.04353e-07
-2.60339e-08
-1.92143e-07
2.83867e-08
-2.3399e-07
5.23117e-09
-1.21973e-07
2.41549e-08
-2.04951e-07
-3.58778e-08
-2.08223e-07
5.77433e-09
-2.42671e-07
1.23599e-08
-3.0207e-07
2.20029e-08
-1.69208e-07
1.1089e-09
-1.5065e-07
-1.01684e-08
-1.48053e-07
-2.79764e-09
-2.53472e-07
-4.0419e-08
-2.11674e-07
1.46402e-08
-2.33445e-07
2.32292e-08
-2.74533e-07
1.96762e-08
-2.38211e-07
-1.58581e-08
-2.37645e-07
-2.55785e-09
-2.20038e-07
-2.38902e-08
-2.31122e-07
-3.69911e-08
-4.91809e-08
2.50322e-09
-6.46735e-08
4.71899e-08
-1.99739e-07
-9.72051e-09
-2.05189e-07
3.44833e-08
-2.46436e-07
-4.75534e-08
-2.42606e-07
-4.52681e-09
-1.37848e-07
-3.06945e-09
-7.84245e-08
-4.58449e-08
-9.31147e-08
-1.1336e-08
-1.95131e-07
-7.19777e-09
-6.73015e-08
4.52571e-08
-8.39304e-08
7.23463e-09
-2.03009e-07
4.32304e-09
-2.46387e-07
6.83555e-08
-1.35735e-07
1.2503e-08
-1.05491e-07
2.89537e-08
-1.52442e-07
-1.69562e-08
-5.30453e-08
3.70554e-08
-1.92938e-07
2.63905e-08
-1.33011e-07
-3.55652e-09
-6.14871e-08
-5.00821e-08
-6.34797e-08
-1.4014e-08
9.071e-09
3.08673e-08
-1.33762e-07
-6.21929e-09
-9.28013e-08
-6.92368e-08
-1.12756e-07
-1.05081e-08
-1.34744e-07
-1.91095e-08
-1.2587e-07
-1.17105e-08
-5.27426e-08
3.59013e-08
-7.37786e-08
-3.81476e-08
-7.71843e-08
6.41114e-09
-1.14132e-07
-4.07592e-08
-1.01863e-07
5.46369e-08
-6.14273e-08
6.92459e-09
-4.44162e-08
1.42543e-08
-6.7925e-08
-1.47278e-08
-1.23314e-07
1.7047e-08
-1.55186e-07
3.24057e-08
-4.57551e-08
5.44402e-08
-1.51175e-07
2.65738e-08
-1.2768e-07
1.58989e-08
-2.73509e-08
-1.60886e-07
-7.76074e-08
-2.61829e-07
-4.47459e-08
-1.70803e-07
-1.00867e-07
-2.06906e-07
3.40377e-09
-1.70269e-07
-7.63878e-08
-2.09471e-07
-4.45164e-08
-2.46037e-07
1.53032e-08
-2.81744e-07
2.2054e-08
-2.26191e-07
2.5653e-08
-2.50506e-07
2.17469e-08
-2.54874e-07
3.63613e-08
-2.54641e-07
3.18884e-08
-2.38107e-07
7.57188e-09
-2.37922e-07
-1.52672e-08
-2.28617e-07
-3.53384e-08
-2.05401e-07
-4.29729e-08
-1.89888e-07
-1.02806e-08
-1.75025e-07
1.10779e-08
-1.81657e-07
1.65767e-08
-9.46871e-08
6.22099e-08
-5.10066e-08
-3.06669e-08
-1.44162e-07
-7.7414e-08
-9.85541e-08
-4.44989e-08
-9.19724e-08
-1.67498e-08
-1.42033e-07
4.72637e-08
-1.74167e-07
3.98582e-08
-1.89317e-07
2.97909e-08
-1.95718e-07
2.96306e-08
-2.51425e-07
7.53836e-08
-2.22338e-07
-4.49452e-08
-1.95758e-07
-2.91374e-08
-1.9668e-07
-2.29684e-08
-2.80267e-07
-1.54703e-09
-9.63508e-08
1.21432e-08
-1.28683e-07
-6.28144e-08
-9.21688e-08
-4.75476e-08
-8.63564e-08
2.77901e-08
-2.53924e-08
3.77906e-08
-1.38683e-07
-8.35967e-08
-1.52909e-07
1.11885e-08
-6.72296e-08
6.10487e-08
-6.1361e-08
-1.72046e-08
-8.2219e-08
1.36603e-08
-9.6843e-08
5.98812e-08
-1.11005e-07
2.13964e-08
-8.23991e-08
-2.42825e-08
-2.18152e-07
1.15356e-08