/*--------------------------------*- C++ -*----------------------------------*\
  =========                 |
  \\      /  F ield         | OpenFOAM: The Open Source CFD Toolbox
   \\    /   O peration     | Website:  https://openfoam.org
    \\  /    A nd           | Version:  12
     \\/     M anipulation  |
\*---------------------------------------------------------------------------*/
FoamFile
{
    format      ascii;
    class       surfaceScalarField;
    location    "0.1";
    object      phi.water_0;
}
// * * * * * * * * * * * * * * * * * * * * * * * * * * * * * * * * * * * * * //

dimensions      [0 3 -1 0 0 0 0];

internalField   nonuniform List<scalar> 
7375
(
-1.20114e-08
-1.37977e-07
1.76216e-07
-1.95168e-07
1.3642e-07
3.67409e-08
1.12927e-07
2.36478e-08
1.5996e-07
-4.72619e-08
1.41292e-07
1.86547e-08
1.95139e-07
-5.40412e-08
1.93924e-07
1.22569e-09
2.36988e-07
-4.31253e-08
2.87711e-07
-5.08564e-08
2.69858e-07
1.78157e-08
2.9422e-07
-2.44149e-08
2.99392e-07
-5.19077e-09
2.57894e-07
4.15028e-08
2.3202e-07
2.58306e-08
2.35764e-07
-4.01045e-09
2.74533e-07
-3.91738e-08
3.07799e-07
-3.33481e-08
3.13723e-07
-5.89957e-09
2.80116e-07
3.37873e-08
2.35245e-07
4.50265e-08
2.07765e-07
2.74311e-08
2.3107e-07
-2.33276e-08
2.59373e-07
-2.85019e-08
2.84548e-07
-2.50393e-08
2.96942e-07
-1.23327e-08
3.29807e-07
-3.31382e-08
3.31218e-07
-1.40598e-09
3.24173e-07
7.05003e-09
3.12937e-07
1.11575e-08
3.08129e-07
4.73396e-09
3.15363e-07
-7.26619e-09
2.92202e-07
2.3193e-08
2.4658e-07
4.57486e-08
2.5775e-07
-1.11048e-08
3.09692e-07
-5.19508e-08
3.34292e-07
-2.45986e-08
3.54623e-07
-2.03718e-08
3.33518e-07
2.10501e-08
3.29713e-07
3.7854e-09
3.19672e-07
9.92524e-09
3.12072e-07
7.46362e-09
3.44487e-07
-3.20821e-08
3.53043e-07
-8.44336e-09
3.27138e-07
2.60542e-08
2.9304e-07
3.4197e-08
2.8234e-07
1.06696e-08
3.03043e-07
-2.07662e-08
3.10681e-07
-7.45135e-09
3.0965e-07
1.20529e-09
2.27563e-07
8.22518e-08
2.06183e-07
2.13654e-08
2.20317e-07
-1.4153e-08
2.19242e-07
7.33017e-10
2.13058e-07
5.9742e-09
2.46494e-07
-3.37911e-08
3.06463e-07
-6.00844e-08
3.58517e-07
-5.20993e-08
3.57313e-07
1.31023e-09
3.31248e-07
2.6357e-08
2.82273e-07
4.92035e-08
2.47749e-07
3.48369e-08
2.3617e-07
1.17089e-08
2.1192e-07
2.41922e-08
1.97361e-07
1.43851e-08
2.12754e-07
-1.57604e-08
2.41771e-07
-2.94381e-08
2.62046e-07
-2.07607e-08
2.71623e-07
-9.59284e-09
2.80998e-07
-9.37166e-09
2.8336e-07
-2.16982e-09
2.86956e-07
-3.6015e-09
2.88992e-07
-1.92558e-09
2.62439e-07
2.6779e-08
4.99515e-08
-1.28894e-07
-1.62368e-07
-1.70649e-07
-1.47968e-07
-7.82459e-08
-5.30047e-08
8.49605e-10
-5.62536e-08
-5.2943e-08
6.52266e-09
-2.90784e-08
-5.20915e-09
-4.91114e-08
-3.40076e-08
-2.35293e-08
-2.43557e-08
-3.43785e-08
-3.22754e-08
8.82068e-08
-2.90111e-08
-2.37325e-08
-6.28173e-08
2.14156e-08
-2.14189e-08
1.28204e-08
3.4052e-09
-8.67251e-09
6.29967e-08
-4.61101e-08
6.3269e-08
-5.0357e-08
2.37463e-10
-6.51897e-08
-2.43404e-08
-7.18846e-08
-2.66522e-08
-6.16246e-08
-1.61588e-08
-1.61942e-08
-1.16423e-08
1.56696e-08
1.31634e-08
-5.30118e-08
4.79701e-08
9.78325e-08
1.84016e-08
9.06222e-08
-2.22153e-08
-8.29962e-09
-6.90882e-08
2.427e-09
-2.33568e-08
1.14794e-07
4.13059e-10
5.02134e-08
-8.24253e-08
1.69259e-08
3.99303e-08
-3.22945e-08
6.03783e-08
-6.77341e-08
4.01736e-08
-5.47622e-08
-2.04465e-08
-3.91819e-08
7.61258e-09
-3.58178e-08
4.23846e-08
-5.30182e-08
-4.2048e-08
4.15788e-08
-9.84046e-08
1.33903e-08
3.55332e-09
9.65259e-08
4.09222e-08
1.89744e-09
-2.87516e-08
-7.94608e-09
1.36288e-08
-5.26017e-08
5.45805e-08
-7.54523e-08
-1.70595e-08
1.85647e-08
-7.84424e-08
7.05092e-08
-6.01986e-08
1.19799e-07
-2.3236e-08
1.517e-07
2.29579e-09
1.51731e-07
1.06379e-08
1.31955e-07
-9.89527e-10
8.24142e-08
4.29297e-08
1.58145e-07
7.13927e-08
2.95283e-08
6.48252e-08
-2.45083e-08
7.5402e-08
-7.72132e-08
3.85518e-08
-1.0482e-07
2.83399e-08
-1.09245e-07
1.03991e-08
-1.02719e-07
-4.03175e-08
-7.48185e-08
-8.79846e-08
-2.43863e-08
-1.02531e-07
1.42199e-08
-3.72961e-08
8.08543e-09
3.24916e-08
5.87976e-10
5.67009e-08
2.71806e-08
8.24435e-09
4.4461e-08
-5.57165e-09
8.24148e-09
6.04117e-08
-4.65115e-08
6.91378e-08
-1.03657e-07
4.13854e-08
-1.23053e-07
-1.00426e-08
-1.26063e-07
-1.77512e-08
-1.1895e-07
-1.67053e-08
-1.17851e-07
-1.04706e-08
-1.41753e-07
2.17323e-08
-1.52724e-07
7.36894e-09
-1.42063e-07
-1.25871e-08
-1.25368e-07
1.00834e-08
3.40398e-08
-1.49228e-07
-1.64314e-07
-1.68568e-07
-1.25042e-07
-1.47909e-07
-1.18908e-07
-6.43085e-08
-9.11361e-08
-8.52195e-08
2.74343e-08
-7.45155e-08
-1.59125e-08
-9.43129e-08
-1.42095e-08
-9.58238e-08
-2.28441e-08
-1.03273e-07
-2.48252e-08
-1.15521e-07
-1.67628e-08
-1.76204e-07
-2.13283e-09
-2.00934e-07
3.31139e-09
-1.46298e-07
-5.12302e-08
-5.37047e-08
-2.95954e-08
-3.54618e-10
9.91976e-09
1.8271e-08
-1.83873e-08
-3.79899e-08
3.19214e-08
-1.1139e-07
4.67491e-08
-1.26424e-07
-1.1245e-09
-1.40263e-07
2.19789e-09
-1.39115e-07
1.2016e-08
-8.2714e-08
-8.43017e-09
-6.9378e-09
-5.79653e-08
-6.66144e-08
3.74619e-08
-1.62911e-07
2.48416e-08
-2.3809e-07
3.18406e-09
-2.37069e-07
1.81675e-09
-1.60571e-07
3.52877e-08
-2.48987e-07
-1.44777e-08
-2.34015e-07
4.28656e-08
-2.46843e-07
5.04843e-08
-1.48631e-07
2.75438e-08
-1.53255e-07
1.37527e-08
-2.58853e-07
-4.45902e-08
-2.83369e-07
-1.75327e-08
-1.85709e-07
-1.59732e-09
-2.36681e-07
-8.84454e-08
-1.01069e-07
-9.71052e-08
-1.06688e-07
-2.28989e-08
-1.04028e-07
1.09683e-08
-6.26707e-08
1.32231e-08
-2.28952e-08
-5.74211e-08
-5.98956e-08
-4.22426e-08
-4.86345e-08
-7.14599e-08
-1.04671e-08
-6.14036e-08
3.80474e-08
-4.62189e-08
2.57004e-08
2.27526e-08
4.1457e-08
-1.69189e-08
3.08371e-08
5.35493e-08
7.7967e-08
2.35344e-08
1.2592e-08
1.28885e-07
-4.86122e-08
1.36606e-07
-1.03401e-07
9.33401e-08
-1.3391e-07
5.88494e-08
-1.18312e-07
-5.19862e-09
-1.29075e-07
-2.9555e-08
-1.51329e-07
-6.57299e-08
-1.56024e-07
-9.78371e-08
-1.74061e-07
-1.92583e-08
-1.94624e-07
5.30538e-08
-1.78157e-07
4.06491e-08
-1.88396e-07
1.8297e-08
-1.58e-07
-3.59677e-08
-9.91948e-08
1.60606e-09
-7.51388e-08
4.50816e-08
-5.68447e-08
2.30911e-08
-7.81292e-08
1.12418e-08
-9.73499e-08
1.46942e-09
-9.22669e-08
-2.17882e-08
-9.5764e-08
-6.97345e-09
-7.86285e-08
4.59679e-09
-1.06804e-07
3.55441e-08
-1.69488e-07
5.00957e-08
-1.93617e-07
3.42123e-08
-2.1324e-10
-1.413e-07
-1.75906e-07
-1.3682e-07
-1.26611e-07
-1.45877e-07
-1.07058e-07
-1.66061e-07
-7.09521e-08
-1.13436e-07
-2.51904e-08
-1.07589e-07
-2.17584e-08
-8.58224e-08
-3.59753e-08
-6.71184e-08
-4.15473e-08
-4.89115e-08
-4.30314e-08
-2.75413e-08
-3.81322e-08
-5.78613e-08
2.8188e-08
-9.11036e-08
3.65545e-08
-1.25876e-07
-1.64574e-08
-1.18204e-07
-3.72664e-08
-8.34729e-08
-2.48102e-08
-6.26825e-08
-3.91768e-08
-2.92618e-08
-1.49851e-09
-5.19872e-08
6.94754e-08
-1.14016e-07
6.0905e-08
-1.48298e-07
3.64809e-08
-1.49658e-07
1.33761e-08
-1.39703e-07
-1.98089e-08
-1.00408e-07
4.86586e-08
-1.10108e-07
4.86831e-08
-1.35339e-07
4.95678e-08
-2.31834e-07
-9.38836e-08
-2.14947e-07
-1.50699e-08
-1.48413e-07
-2.9732e-08
-1.64005e-07
4.81393e-08
-1.54324e-07
3.15114e-08
-1.41493e-07
3.62106e-08
-6.29752e-08
9.46604e-08
-1.1051e-07
6.19295e-08
-2.55389e-07
-4.45955e-08
-3.02936e-07
3.00144e-08
-2.93885e-07
-1.06483e-08
-3.1374e-07
-1.17637e-07
-1.4752e-07
-6.92475e-08
-1.96442e-07
-1.16948e-07
-1.49667e-07
-3.78109e-08
-1.39269e-07
1.40357e-09
-7.74304e-08
2.63868e-08
-2.35498e-07
-7.59586e-08
-2.54973e-07
-5.25207e-08
-2.96099e-07
2.75838e-08
-2.13493e-07
1.77828e-08
-2.89958e-07
-4.66821e-08
-1.25898e-07
-3.84456e-08
-2.64223e-07
5.86162e-10
-8.38307e-08
3.65698e-08
-1.87715e-07
8.89008e-08
-1.62457e-07
1.09433e-07
-1.59629e-07
9.0512e-08
-1.68315e-07
6.7535e-08
-1.53097e-07
-2.04166e-08
-1.19902e-07
-6.27503e-08
-1.25174e-07
-6.0457e-08
-1.45123e-07
-7.86914e-08
-1.62614e-07
-1.7492e-09
-1.64918e-07
5.36752e-08
-4.80551e-08
7.01998e-08
-1.30228e-07
-4.24445e-08
-1.66973e-07
-5.5185e-10
-9.91464e-08
-6.62203e-08
-7.63682e-08
2.20781e-08
-5.12738e-08
-2.00339e-09
-7.22134e-08
3.21813e-08
-1.08999e-07
3.82552e-08
-1.01057e-07
-3.00372e-08
-1.10166e-07
2.13615e-09
-6.25709e-08
-4.29988e-08
-2.45739e-08
-2.45352e-09
-7.04203e-08
9.49722e-08
-1.18254e-07
8.20458e-08
-2.24193e-09
-1.55346e-07
-1.73315e-07
-1.46408e-07
-1.35311e-07
-1.33418e-07
-1.17061e-07
-1.43088e-07
-6.12815e-08
-1.19284e-07
-4.89934e-08
-1.24536e-07
-1.6506e-08
-1.27249e-07
-3.32621e-08
-1.19538e-07
-4.97651e-08
-1.48462e-07
-1.41067e-08
-1.20189e-07
-6.64043e-08
-9.52797e-08
3.24645e-09
-7.27539e-08
1.40295e-08
-9.74529e-08
8.24244e-09
-9.90956e-08
-3.56228e-08
-9.25145e-08
-3.13904e-08
-1.22612e-07
-9.07814e-09
-9.91413e-08
-2.49687e-08
-4.48242e-08
1.51591e-08
-5.99198e-08
7.60014e-08
-8.24573e-08
5.90192e-08
-8.31373e-08
1.40568e-08
-1.00975e-07
-1.99062e-09
-1.57978e-07
1.02509e-07
-6.64317e-08
1.0374e-07
-1.78037e-07
1.70757e-08
-1.19583e-07
-8.25388e-09
-2.4506e-07
-8.17796e-08
-1.40787e-07
6.0004e-08
-2.31019e-07
-4.07247e-09
-1.77094e-07
-2.477e-08
-1.37739e-07
-3.14435e-09
-9.57486e-08
5.17043e-08
-9.63059e-08
6.15043e-08
-4.87906e-08
5.38076e-08
-1.97157e-07
-1.36945e-08
-1.84343e-07
-2.34622e-08
-2.34855e-07
-1.91779e-08
-1.54497e-07
-5.17564e-09
-1.72521e-07
-1.00117e-07
-1.68317e-07
-4.2016e-08
-1.35148e-07
-3.03861e-08
-1.63382e-07
-8.86176e-08
-1.80933e-07
-6.12953e-08
-4.40611e-08
-4.34681e-08
-1.60253e-07
1.2492e-09
-1.34819e-07
-9.2862e-09
-1.51456e-07
-3.20664e-08
-8.0994e-09
-3.5488e-08
-2.5818e-07
5.75884e-08
-1.42158e-07
1.14572e-07
-2.33963e-07
3.86321e-08
-1.81104e-07
5.41869e-08
-1.4169e-07
5.10977e-08
-8.36268e-08
9.47221e-09
-5.65068e-08
-4.75366e-08
-7.63447e-08
-4.29124e-08
-1.39032e-07
8.19934e-10
-9.51139e-08
2.42896e-08
-1.60224e-07
-7.86503e-08
-1.44743e-07
3.61909e-08
-1.18503e-07
4.20349e-08
-5.23429e-08
3.72602e-08
-2.87206e-07
4.22727e-08
-1.94705e-07
3.58377e-08
-2.18686e-07
-9.69127e-08
-1.57898e-07
-6.50227e-08
-1.39358e-07
1.3642e-08
-1.6117e-07
5.84222e-08
-1.24714e-07
7.94258e-08
-2.79237e-07
-3.46423e-08
-2.56001e-07
-1.80917e-08
-1.66174e-07
5.33e-08
-2.32798e-07
1.86243e-08
-1.96386e-07
4.32583e-08
-2.01093e-08
-1.31483e-07
-1.97872e-07
-8.42997e-08
-7.80974e-08
-8.51714e-08
-1.12748e-07
-6.94609e-08
-7.69914e-08
-1.01718e-07
-1.67356e-08
-1.21457e-07
3.23348e-09
-1.66113e-07
9.70002e-09
-1.05739e-07
3.57796e-08
-2.61283e-07
-1.91246e-09
-1.79911e-07
-1.51054e-09
-2.42565e-07
-7.70705e-08
-1.88331e-07
-4.26779e-08
-1.52279e-07
-2.78088e-08
-1.25362e-07
-6.25388e-08
-7.53874e-08
-8.2203e-08
-1.11356e-07
2.68915e-08
-1.69118e-07
3.24623e-08
-1.13174e-07
-4.07833e-08
-5.25901e-08
1.54179e-08
-5.45953e-08
6.10252e-08
-1.26404e-07
8.45769e-08
-9.08591e-08
1.0932e-07
-1.92339e-07
6.19359e-08
-1.67139e-07
7.55199e-08
-1.86694e-07
3.68049e-08
-2.01713e-07
4.79205e-09
-1.33358e-07
-4.21542e-09
-1.07659e-07
3.67641e-08
-2.17964e-07
-3.67795e-08
-1.65646e-07
-7.93112e-08
-1.34371e-07
-3.44193e-08
-9.53123e-08
1.26456e-08
-2.06647e-08
-1.31432e-08
2.48176e-08
7.77623e-09
-2.87516e-08
3.98745e-08
-8.81176e-08
3.50046e-08
-1.55753e-07
-1.83745e-10
-2.04776e-07
4.49768e-08
-1.55276e-07
4.29558e-08
-1.74963e-07
-2.23291e-08
-1.35174e-07
-7.01753e-08
-1.19689e-07
-1.03786e-07
-2.08153e-07
-1.17905e-07
-6.30905e-08
-4.4771e-08
-1.94589e-07
-5.91693e-08
-2.32255e-07
2.83794e-08
-2.63552e-07
-7.69665e-10
-1.08735e-07
3.73978e-09
-1.85422e-07
-8.60887e-09
-1.45759e-07
7.30167e-08
-1.21056e-07
1.43229e-08
-9.12617e-08
2.43925e-08
-1.05335e-07
6.51708e-08
-8.69096e-08
-8.95311e-09
-8.37372e-08
-5.12317e-08
-1.31096e-07
3.10848e-09
-2.01886e-07
2.29714e-08
-1.93413e-07
1.76282e-08
-8.58773e-08
6.4606e-09
-1.88924e-07
-3.69652e-09
-1.90229e-07
3.94721e-08
-9.83654e-08
9.09309e-08
-2.45045e-07
-2.6176e-09
-2.05211e-07
-4.03744e-09
-1.55564e-07
4.50249e-08
-1.24152e-07
-9.64352e-08
-1.14005e-07
3.49529e-09
-9.59108e-08
4.03278e-08
-1.9401e-07
-1.58585e-08
-2.43666e-07
1.50136e-08
-1.25602e-07
5.76985e-08
-2.1767e-07
2.37173e-09
-1.84225e-07
-1.68518e-08
-1.69971e-07
2.72698e-08
5.51669e-08
-1.36011e-07
-2.16901e-07
-9.11686e-08
-1.19339e-07
-1.1044e-07
-9.16162e-08
-1.03842e-07
-8.35888e-08
-1.05474e-07
-1.51032e-08
-1.03243e-07
1.00328e-09
-9.54023e-08
1.86001e-09
-4.24857e-08
-1.75013e-08
-3.78947e-08
-6.50284e-09
-2.88581e-08
-1.05464e-08
-5.39946e-08
-5.27195e-08
-2.81689e-08
-6.85027e-08
-3.59006e-08
-2.02833e-08
-1.52598e-07
5.26022e-08
-1.0626e-07
1.73789e-08
-1.16787e-07
3.96942e-08
-1.64676e-07
-6.26186e-08
-1.64786e-07
-4.23522e-08
-1.23286e-07
-2.60822e-08
-8.94764e-08
2.72167e-08
-9.69993e-08
9.21006e-08
-1.06995e-07
1.17007e-07
-1.52665e-07
1.08239e-07
-1.1399e-07
3.68453e-08
-6.28922e-08
-1.42925e-08
-5.56969e-08
-2.40283e-09
-5.41456e-08
-5.72328e-09
-1.63726e-09
-1.59063e-08
-7.93722e-08
4.05805e-08
-8.77087e-08
-7.09746e-08
-8.95232e-08
-3.26046e-08
-1.07364e-07
3.0486e-08
-6.77905e-08
-5.27163e-08
-7.62234e-08
1.62091e-08
-1.01265e-07
6.42602e-08
-1.5915e-07
9.12665e-08
-1.1463e-07
1.02397e-07
-2.11765e-07
2.98601e-10
-1.54156e-07
-1.6814e-08
-9.13009e-08
-8.51844e-08
-4.51773e-08
-1.16299e-07
-6.09521e-08
-8.80114e-08
-1.40863e-07
-4.06344e-08
-6.47372e-08
2.5748e-08
-8.7605e-08
-3.52813e-08
-2.18139e-07
-3.36598e-08
-2.4159e-07
2.29145e-08
-2.0835e-07
-2.73746e-08
-1.58589e-07
-1.07997e-08
-9.92642e-08
1.2074e-08
-6.08688e-08
-2.40727e-08
-3.62461e-08
-2.30297e-10
-2.2398e-08
5.13227e-08
-8.04926e-08
4.83203e-08
-5.57153e-08
6.99093e-08
-9.91065e-08
4.7068e-08
-2.49911e-07
-1.90318e-08
-2.72534e-07
4.0252e-08
-1.35298e-07
6.31779e-08
-1.77531e-07
-1.04472e-07
-1.47784e-07
7.83346e-09
-1.27096e-07
6.93156e-08
-1.74185e-07
4.26941e-08
-6.66366e-08
3.43325e-08
-2.2651e-07
1.30054e-08
-1.52908e-07
2.27676e-08
-1.93587e-07
4.37282e-08
-1.75474e-07
2.22141e-08
-1.61868e-07
-2.97674e-08
-1.62175e-07
1.51651e-08
-6.35793e-08
-4.06637e-08
-1.34515e-07
-6.89445e-08
-8.55148e-08
-6.72252e-08
-3.93314e-08
-1.89139e-08
3.18151e-08
-1.31367e-07
-2.41319e-07
-6.81975e-08
-1.2814e-07
-1.19109e-07
-3.93122e-08
-1.18687e-07
-8.40111e-08
-1.18809e-07
-1.49806e-08
-1.12957e-07
-4.84801e-09
-1.11571e-07
4.74591e-10
-9.68553e-08
-3.22159e-08
-7.42237e-08
-2.91338e-08
-3.43262e-08
-5.09631e-08
-9.23377e-08
5.29271e-09
-1.18784e-07
-4.32674e-08
-4.17789e-08
4.86306e-08
-2.59199e-07
7.78761e-08
-1.45963e-07
9.65396e-08
-2.61128e-07
-3.77129e-08
-2.59031e-07
-1.72102e-08
-2.95125e-07
-6.25761e-09
-3.08512e-07
-1.26943e-08
-2.68838e-07
-1.24569e-08
-2.3195e-07
9.43675e-09
-1.65934e-07
9.76624e-08
-1.42256e-07
8.37225e-08
-8.41224e-08
-2.12876e-08
-6.14342e-08
-3.69802e-08
-8.54081e-08
2.15715e-08
-1.37093e-07
4.4563e-08
-4.55137e-08
3.84335e-08
-2.02787e-07
5.74509e-09
-1.48083e-07
6.68945e-08
-1.16452e-07
-6.42353e-08
-2.5578e-07
-2.27586e-08
-2.28854e-07
-3.14992e-08
-2.66385e-07
8.31412e-09
-2.28675e-07
7.34659e-08
-1.54882e-07
1.51396e-08
-6.50952e-08
1.15658e-08
-4.48851e-08
-1.99086e-08
-3.21505e-08
-2.95488e-08
-5.0516e-08
-6.68192e-08
-7.32174e-08
-9.3598e-08
-1.23526e-07
-3.77029e-08
-1.40242e-07
-2.56111e-08
-1.67723e-07
6.05334e-09
-1.31784e-07
-2.16511e-08
-1.76526e-07
7.93629e-09
-2.17815e-07
1.55638e-08
-2.51194e-07
5.63692e-08
-2.9961e-07
3.75067e-08
-2.81056e-07
-6.48003e-09
-2.81891e-07
-2.34776e-08
-2.91679e-07
-3.85862e-08
-2.51415e-07
1.10592e-08
-2.43056e-07
3.99607e-08
-1.8918e-07
6.34635e-08
-1.85603e-07
4.34908e-08
-2.35943e-07
-1.68346e-08
-2.49966e-07
1.02419e-07
-2.16854e-07
-1.80775e-08
-1.35259e-07
6.82015e-09
-1.85282e-07
-8.42638e-08
-1.26727e-07
8.86995e-09
-1.36736e-07
5.27036e-08
-1.12666e-07
9.9116e-09
-1.4366e-07
4.25338e-08
-7.81525e-08
1.03984e-07
-1.84925e-07
8.31868e-09
-1.79326e-07
1.28987e-08
-8.93668e-08
2.71129e-08
-1.91651e-07
-2.65549e-08
-8.42824e-08
-3.22102e-09
-1.76673e-07
-1.20589e-07
-2.02519e-07
-4.27465e-08
-1.87068e-07
-3.66475e-08
9.8483e-08
-8.25295e-08
-1.53917e-07
-2.07505e-07
-1.45421e-07
-1.7704e-07
-6.97762e-08
-1.91158e-07
-6.98931e-08
-1.80848e-07
-2.52896e-08
-1.83281e-07
-2.41491e-09
-1.86527e-07
3.7209e-09
-2.01855e-07
-1.68869e-08
-1.99281e-07
-3.37403e-08
-6.71582e-08
-3.75536e-08
-2.62937e-07
9.18455e-09
-2.62511e-07
4.45078e-09
-2.45544e-07
3.11677e-08
-2.85364e-07
6.95539e-08
-2.08205e-07
6.7524e-08
-2.81307e-07
3.53904e-08
-3.18966e-07
2.04493e-08
-3.28984e-07
3.76138e-09
-3.40208e-07
-1.4697e-09
-3.20915e-07
-3.1749e-08
-2.81159e-07
-2.74501e-08
-2.11974e-07
2.73235e-08
-2.42544e-07
6.34691e-08
-2.44365e-07
3.11511e-08
-2.97774e-07
1.64296e-08
-2.94896e-07
1.86934e-08
-2.92274e-07
4.19418e-08
-3.09873e-07
5.56405e-08
-3.24206e-07
2.00783e-08
-2.57944e-07
-4.75108e-08
-1.11411e-07
-1.81952e-08
-2.53775e-07
-7.29671e-08
-1.26458e-07
3.34163e-08
-1.07108e-07
-9.94349e-09
-1.53192e-07
-2.26797e-08
-1.31968e-07
-7.64689e-09
-8.50593e-08
-3.53433e-08
-4.2098e-08
-6.287e-08
-3.21757e-08
-3.94714e-08
-7.6487e-08
-2.25082e-08
-1.03235e-07
-6.75393e-08
-1.51469e-07
8.98546e-09
-1.23427e-08
-1.88191e-08
-1.78027e-07
-1.89548e-08
-1.84642e-07
3.24018e-08
-2.03041e-07
2.42043e-08
-1.68091e-07
-1.95452e-08
-1.23308e-07
1.15856e-08
-8.74095e-08
1.62505e-09
-8.33429e-08
-1.1397e-08
-1.3979e-07
-1.56696e-08
-2.16398e-07
3.94477e-08
-2.54236e-07
4.88966e-08
-2.71882e-07
5.76071e-08
-2.31362e-07
7.10863e-08
-2.68648e-07
3.26338e-08
-1.49535e-07
5.66251e-08
-2.05931e-07
-3.34171e-08
-2.25917e-07
5.05671e-08
-2.67377e-07
2.86503e-09
-2.38922e-07
-6.52539e-08
-1.79155e-07
-5.33344e-08
-1.33605e-07
7.15312e-09
-9.57572e-08
-2.79359e-08
-5.41972e-08
9.73736e-10
-2.75675e-08
7.62931e-08
-6.2149e-08
4.29849e-08
-5.28997e-08
3.64928e-09
-6.01176e-08
3.40541e-08
-9.57983e-08
8.85473e-09
-9.20311e-08
-7.89462e-09
-4.71849e-08
-2.04851e-08
-2.16446e-07
-1.79859e-08
-1.01318e-07
-7.11727e-09
2.9494e-08
-1.58382e-07
-1.44893e-07
-2.25334e-07
-7.59606e-08
-1.55613e-07
-1.34899e-07
-1.43521e-07
-8.19849e-08
-1.21183e-07
-4.76265e-08
-1.19236e-07
-4.36151e-09
-1.26495e-07
1.09803e-08
-1.31934e-07
-1.14469e-08
-1.52573e-07
-1.46572e-08
-4.83881e-08
4.61526e-09
-2.43904e-07
1.24945e-08
-2.26472e-07
3.55254e-08
-2.80845e-07
8.55408e-08
-3.04977e-07
4.50833e-08
-2.57224e-07
1.9772e-08
-2.38832e-07
1.69996e-08
-2.5667e-07
3.82875e-08
-2.21599e-07
1.68348e-08
-2.22882e-07
-1.85752e-10
-2.81247e-07
2.66159e-08
-2.02327e-07
3.80612e-08
-2.00578e-07
2.58528e-08
-3.15979e-07
-1.43495e-08
-2.93198e-07
5.65142e-08
-3.14346e-07
3.75784e-08
-2.9937e-07
3.71715e-09
-2.74869e-07
1.7441e-08
-2.6591e-07
-1.46095e-09
-2.34118e-07
-1.17137e-08
-1.07385e-07
1.83291e-08
-1.1465e-07
-1.09293e-08
-1.39295e-07
-4.69014e-08
-1.6504e-07
-8.38097e-08
-1.31215e-07
-4.54521e-08
-1.33653e-07
-2.04732e-08
-1.25961e-07
-1.53387e-08
-1.03016e-07
-5.889e-08
-1.57369e-07
-8.51626e-09
-1.82789e-07
-1.40522e-08
-1.94995e-07
-1.22917e-08
-9.17229e-08
-2.48932e-08
-2.47348e-07
-2.70273e-08
-8.21114e-08
8.70944e-09
-1.27021e-07
2.5955e-08
-1.08374e-07
1.51906e-08
-2.07707e-07
-1.92397e-08
-1.83595e-07
-4.62488e-08
-1.40109e-07
-3.33292e-08
-5.90792e-08
6.6513e-08
-1.86749e-07
-2.75546e-08
-2.41729e-07
-8.67286e-09
-2.24399e-07
2.21172e-08
-1.98989e-07
7.163e-08
-2.34022e-07
4.44962e-08
-2.06945e-07
4.40097e-08
-1.83619e-07
5.74511e-08
-1.50741e-07
-2.28581e-08
-1.74184e-07
3.55646e-08
-1.85028e-07
1.09758e-08
-2.09567e-07
3.14303e-08
-1.88645e-07
-3.91782e-08
-1.39594e-07
-1.05385e-07
-1.0182e-07
-3.06208e-08
-7.22022e-08
-5.75538e-08
-9.16643e-08
2.02293e-08
-3.58865e-08
2.05152e-08
-3.72793e-08
4.43775e-08
-6.04027e-08
2.67725e-08
-7.4161e-08
4.8305e-08
-5.77317e-08
-7.57476e-09
-9.71468e-08
3.02208e-08
-6.23608e-08
9.15003e-08
-2.3901e-07
1.38659e-08
-1.39823e-07
3.82696e-08
-4.58218e-08
-1.15404e-07
-1.79438e-07
-1.73551e-07
-1.6315e-07
-1.61111e-07
-1.47068e-07
-1.85921e-07
-5.65969e-08
-1.79935e-07
-5.36125e-08
-1.62108e-07
-2.21872e-08
-1.32804e-07
-1.83235e-08
-1.28049e-07
-1.62008e-08
-1.33027e-07
-1.11497e-08
-5.16055e-08
6.88871e-08
-1.79008e-07
-4.40473e-09
-1.01876e-07
1.01422e-07
-2.18922e-07
1.3287e-08
-1.65047e-07
3.88661e-08
-1.45529e-07
-1.42914e-09
-1.08945e-07
-1.95834e-08
-8.95524e-08
1.88958e-08
-8.29925e-08
1.02756e-08
-5.11689e-08
-3.20087e-08
-4.82216e-08
2.36693e-08
-4.80596e-08
3.78999e-08
-3.46816e-08
1.24754e-08
-6.18232e-08
1.27926e-08
-4.12539e-08
3.59454e-08
-4.02158e-08
3.65408e-08
-7.78521e-08
4.13539e-08
-1.04065e-07
4.36546e-08
-1.22693e-07
1.71674e-08
-1.20194e-07
-1.42134e-08
-6.50663e-08
-3.67978e-08
-4.58786e-08
-3.01169e-08
-6.85717e-08
-2.42082e-08
-1.21547e-07
-3.16896e-08
-1.31136e-07
-3.58634e-08
-1.20262e-07
-3.1347e-08
-8.6877e-08
-5.01213e-08
-2.26481e-08
2.25668e-08
-2.20019e-07
-3.52312e-09
-2.5473e-07
2.06587e-08
-2.41166e-07
-2.58559e-08
-2.08329e-07
-9.33387e-09
-2.88348e-07
4.84882e-09
-1.15076e-07
2.801e-08
-1.20529e-07
3.14079e-08
-7.13612e-08
-3.32494e-08
-1.85771e-07
-4.98721e-08
-2.36363e-07
-4.62107e-08
-7.97707e-08
5.06258e-09
-1.99406e-07
-7.10349e-09
-2.05924e-07
2.71069e-08
-2.57469e-07
-5.2715e-09
-2.27898e-07
-7.45365e-09
-1.99312e-07
4.30441e-08
-2.33101e-07
7.82844e-08
-2.40247e-07
5.06395e-08
-2.29917e-07
4.71209e-08
-1.44598e-07
8.58706e-08
-2.13045e-07
-3.86e-08
-1.6209e-07
-4.22649e-08
-1.26612e-07
-4.04793e-09
-1.53721e-07
-1.40371e-08
-1.02496e-07
-1.06922e-08
-2.50635e-07
-7.40093e-08
-1.33939e-07
1.98933e-08
-2.21656e-07
-3.50253e-08
-1.71283e-07
-3.21197e-08
-1.43056e-07
1.61513e-08
-1.54082e-07
3.62259e-08
-2.3794e-07
8.35238e-08
-1.25236e-07
7.59987e-08
-2.11615e-07
-2.61083e-08
-1.69065e-07
4.41324e-08
-5.34946e-08
4.49072e-08
-1.26059e-07
-3.19835e-08
-3.63795e-08
-1.91106e-07
-1.39305e-07
-2.64636e-07
-8.94921e-08
-1.32836e-07
-1.26125e-07
-2.40735e-07
-9.03267e-08
-1.93945e-07
-1.02858e-07
-1.68584e-07
-4.75472e-08
-1.11017e-07
-7.66727e-08
-1.18758e-07
-9.57249e-09
-3.21718e-08
4.85146e-08
-1.131e-07
5.38648e-09
-7.88753e-08
1.05801e-07
-1.52001e-07
3.13501e-08
-1.49052e-07
8.78764e-09
-1.02053e-07
-7.73552e-09
-1.06241e-07
2.75931e-09
-1.14101e-07
-1.17229e-08
-1.00276e-07
5.07215e-09
-1.30618e-07
4.06179e-08
-1.52702e-07
-9.92377e-09
-1.143e-07
-1.48835e-08
-1.15759e-07
3.89615e-08
-9.39694e-08
-9.31327e-09
-1.04087e-07
2.29108e-08
-9.08414e-08
2.27004e-08
-9.45879e-08
4.02877e-08
-1.17571e-07
6.43375e-08
-1.44397e-07
7.04809e-08
-1.55678e-07
2.84487e-08
-1.61334e-07
-8.55698e-09
-1.75988e-07
-2.21436e-08
-1.33501e-07
-7.26042e-08
-9.5532e-08
-6.21768e-08
-1.34695e-07
7.47314e-09
-1.52619e-07
-1.81242e-08
-1.97025e-07
1.09373e-08
-8.46645e-08
-1.58539e-08
-1.76935e-07
-2.9001e-08
-2.26252e-07
-4.66906e-09
-2.27708e-07
2.44221e-08
-2.26805e-07
2.13842e-08
-2.39447e-07
-4.52974e-08
-2.7214e-07
3.75423e-08
-7.83508e-08
2.67933e-08
-1.83205e-07
-5.63115e-08
-1.90282e-07
-2.61718e-08
-2.29194e-07
-1.14691e-08
-2.59198e-07
-1.57362e-08
-2.2196e-07
1.59684e-08
-2.46298e-07
1.72339e-08
-2.41406e-07
2.22148e-08
-2.81278e-07
3.46009e-08
-3.0193e-07
1.31975e-08
-2.77917e-07
-2.91117e-08
-2.5956e-07
6.19429e-08
-2.17068e-07
5.58049e-08
-1.97067e-07
2.49054e-08
-1.18857e-07
7.65988e-09
-9.33724e-08
-6.44781e-08
-9.42022e-08
-4.14352e-08
-8.75063e-08
-1.07439e-08
-1.01502e-07
-4.10866e-11
-1.07208e-07
-4.87732e-09
-1.77167e-07
-5.85784e-09
-7.24662e-08
6.11105e-08
-1.10259e-07
3.14905e-09
-1.48902e-07
6.52317e-09
-1.68893e-07
3.61423e-08
-1.55566e-07
2.28988e-08
-2.77549e-07
1.20817e-08
-2.12103e-07
1.27158e-08
-1.92961e-07
2.14294e-09
-1.40079e-07
-1.07188e-08
-3.15878e-08
-6.47037e-08
-8.09214e-08
1.70232e-08
-5.51155e-09
-1.26478e-07
-1.68737e-07
1.13368e-08
-7.45559e-08
-7.50753e-08
-3.87727e-08
-8.74751e-08
-7.88479e-08
-1.50731e-07
-3.96019e-08
-1.58889e-07
-4.14318e-08
-6.94535e-08
-1.94735e-08
-1.42757e-07
-7.85379e-08
-1.61408e-07
6.3568e-08
-9.2884e-08
8.37944e-08
-1.76939e-07
4.62875e-08
-1.54276e-07
7.20215e-09
-1.38701e-07
-6.78693e-09
-9.98018e-08
-4.71142e-08
-9.01744e-08
-6.79798e-09
-1.09895e-07
7.99797e-09
-1.06434e-07
1.62925e-09
-1.12396e-07
4.65799e-08
-1.80783e-07
5.6048e-08
-9.88329e-08
5.0626e-08
-1.53377e-07
-4.84667e-08
-9.62302e-08
-6.80244e-08
-1.13456e-07
3.97313e-08
-1.3362e-07
4.28652e-08
-1.37527e-07
4.41958e-08
-1.01266e-07
2.80763e-08
-9.0467e-08
5.96825e-08
-5.03028e-08
-1.17152e-08
-1.59165e-08
-4.2943e-08
-3.92887e-08
1.22872e-09
-6.32757e-08
-4.91181e-08
-9.16802e-08
-3.3431e-08
-9.86782e-08
1.34646e-08
-5.16941e-08
8.13428e-08
-1.85373e-07
2.95088e-10
-7.71956e-08
2.11534e-08
-1.82808e-07
-6.58735e-08
-1.0959e-07
-7.97038e-08
-8.46827e-08
-4.80918e-10
-8.3722e-08
1.95693e-08
-3.59064e-08
5.28052e-08
-1.40895e-07
-5.0188e-08
-1.29414e-07
1.53118e-08
-1.86944e-07
1.21835e-09
-2.01963e-07
-1.11529e-08
-1.94364e-07
-1.90677e-08
-1.90669e-07
-1.9432e-08
-1.67707e-07
-6.99332e-09
-2.34059e-07
8.35857e-08
-2.60895e-07
4.85549e-08
-2.47262e-07
2.0968e-08
-2.32256e-07
4.63348e-08
-1.43658e-07
2.81852e-08
-2.08374e-07
-1.6312e-08
-1.26183e-07
-2.79433e-08
-6.21855e-08
-3.90917e-08
-1.7835e-08
-3.66907e-08
-5.11571e-08
-3.1156e-08
-7.62549e-08
-1.63374e-08
-7.31782e-08
-1.38207e-08
-9.23857e-08
1.91664e-08
-1.14628e-07
1.73649e-08
-1.15447e-07
-5.03928e-09
-7.21017e-08
1.7142e-08
-8.31349e-08
1.41821e-08
-1.1249e-07
3.58779e-08
-1.41033e-07
6.46853e-08
-1.65414e-07
4.72792e-08
-1.41961e-07
-1.13713e-08
-8.24541e-08
-4.67912e-08
-7.95036e-08
-7.86128e-10
-1.54475e-07
6.26754e-08
-1.24844e-07
5.15831e-08
-2.79278e-07
-1.98429e-08
7.06139e-09
-1.07761e-07
-2.12493e-07
-9.89238e-08
-2.31957e-07
-1.22497e-07
-1.4046e-08
-1.22012e-07
-7.93332e-08
-1.61575e-07
-1.68682e-09
-2.09004e-07
-4.30849e-08
-1.98246e-07
-2.79001e-08
-1.46086e-07
6.10737e-08
-1.69924e-07
8.65245e-08
-9.67751e-08
1.08896e-08
-1.88531e-07
-4.45997e-09
-1.76613e-07
-6.63821e-09
-1.86306e-07
1.00646e-09
-9.3416e-08
6.87733e-09
-1.79714e-07
-6.25268e-08
-1.97903e-07
2.23354e-08
-1.10144e-07
5.97893e-08
-1.11876e-07
5.00666e-08
-1.84274e-07
-1.65528e-08
-2.2255e-07
3.7842e-08
-2.4699e-07
-2.225e-08
-1.31591e-07
1.04921e-08
-1.71751e-07
-6.24483e-08
-1.37348e-07
6.71048e-09
-1.24197e-07
3.10451e-08
-9.1889e-08
-4.27472e-09
-9.38905e-08
6.16845e-08
-1.03091e-07
-2.51494e-09
-1.32194e-07
-1.38397e-08
-1.35029e-07
2.68654e-09
-7.8435e-08
4.10151e-08
-1.723e-07
-8.17446e-08
-1.20877e-07
-3.97163e-08
-8.47153e-08
4.39032e-08
-1.15335e-07
2.9741e-08
-1.41686e-07
-1.36704e-09
-2.41457e-07
3.46708e-08
-8.81587e-08
-3.95298e-08
-1.79311e-07
-5.17769e-08
-1.48286e-07
-1.3285e-08
-1.31028e-07
3.36716e-08
-6.83573e-08
3.30592e-08
-2.07093e-07
-3.82182e-08
-2.36162e-07
2.99815e-08
-2.27019e-07
-2.02958e-08
-2.52259e-07
6.23507e-09
-2.82853e-07
1.11617e-08
-1.33524e-07
3.58845e-08
-2.29424e-07
-1.07465e-08
-1.81494e-07
4.82822e-08
-1.68897e-07
6.51904e-09
-1.0795e-07
-1.46125e-08
-9.91155e-08
1.93505e-08
-1.4168e-07
2.60857e-08
-1.5525e-07
-1.43733e-08
-1.41703e-07
-5.26385e-08
-1.31683e-07
-4.67106e-08
-1.6633e-07
3.49047e-09
-1.45842e-07
-3.68253e-08
-1.19389e-07
-4.0274e-08
-1.27972e-07
2.77498e-08
-1.30003e-07
1.93958e-08
-9.98776e-08
-3.51652e-08
-8.26219e-08
-1.13904e-10
-1.00511e-07
3.20713e-08
-1.02497e-07
3.78637e-08
-8.89922e-08
5.11801e-08
-8.72485e-08
4.55352e-08
-5.82443e-08
-4.03757e-08
-5.06807e-08
-5.43551e-08
-5.13381e-08
-1.29177e-10
-3.87224e-08
5.00588e-08
-5.98242e-08
7.21576e-08
-1.21011e-07
4.13433e-08
2.99649e-08
-2.17551e-07
-1.49343e-07
-1.72464e-07
-1.23105e-07
-2.07332e-07
-1.16924e-07
-2.00975e-07
-8.78041e-08
-1.86087e-07
-1.84734e-08
-2.39921e-07
-3.74451e-08
-1.21219e-07
4.84187e-08
-5.13359e-08
-8.28504e-09
-1.42098e-07
3.28814e-08
-1.52139e-08
2.84596e-08
-1.84239e-07
-2.78971e-08
-2.26918e-07
3.60413e-08
-2.1138e-07
3.36117e-08
-2.81499e-07
2.87842e-08
-1.89538e-07
3.74481e-08
-1.52577e-07
-1.4625e-08
-1.04093e-07
1.17578e-08
-1.82805e-07
-1.60376e-08
-1.29455e-07
7.32063e-08
-2.89631e-07
6.38104e-09
-2.9046e-07
2.67221e-08
-2.53384e-07
-7.28844e-08
-2.1824e-07
-5.05658e-08
-1.96283e-07
-1.74724e-08
-1.97297e-07
3.00471e-08
-1.61443e-07
1.0579e-07
-2.73305e-07
-1.73789e-08
-2.3894e-07
1.1263e-08
-2.99843e-07
-1.07964e-09
-2.83483e-07
-1.36727e-08
-2.56157e-07
1.32709e-08
-1.7388e-07
2.77168e-08
-1.1374e-07
-9.86958e-08
-1.69391e-07
-4.29822e-08
-1.794e-07
3.61914e-08
-9.59058e-08
6.10712e-08
-2.74803e-07
2.19737e-08
-1.31083e-07
1.06602e-08
-2.10307e-07
-1.17231e-07
-1.59428e-07
-6.631e-08
-1.39448e-07
1.3553e-08
-1.36193e-07
2.80778e-08
-6.4883e-08
3.70589e-08
-1.33437e-07
-4.37811e-08
-1.43154e-07
-1.34007e-08
-2.04739e-07
1.91813e-08
-1.98786e-07
9.42133e-09
-1.66307e-07
5.05516e-08
-1.58879e-07
-1.98713e-08
-9.84734e-08
-1.16312e-08
-1.23731e-07
3.1776e-08
-1.57494e-07
1.91511e-08
-1.29058e-07
-9.08569e-09
-5.91079e-08
-4.38648e-08
-4.98861e-08
-2.35953e-08
-1.0004e-07
-2.4845e-09
-1.09575e-07
-3.75594e-08
-1.06283e-07
1.96528e-10
-7.71132e-08
-6.66752e-08
-9.1371e-08
-2.60164e-08
-9.84235e-08
3.48022e-08
-9.16517e-08
1.26238e-08
-1.01086e-07
-2.54714e-08
-1.04981e-07
3.78101e-09
-7.54964e-08
2.5866e-09
-4.15948e-08
4.00263e-09
-4.44113e-08
5.34511e-08
-3.32331e-08
3.43568e-08
-6.63791e-08
-7.23e-09
-8.85546e-08
-3.25115e-08
-1.02225e-07
1.35408e-08
-8.77976e-08
3.56305e-08
-1.25884e-07
1.09129e-07
-1.399e-07
5.53589e-08
8.70141e-09
-2.30322e-07
-7.42624e-08
-1.8603e-07
-9.8812e-09
-1.75656e-07
-1.22797e-07
-1.49674e-07
-1.14958e-07
-2.56189e-07
-1.04531e-07
-2.44157e-07
-4.90942e-08
-2.12407e-07
1.6669e-08
-1.39607e-07
1.11489e-07
-2.71506e-07
-2.74564e-08
-2.14284e-07
1.9091e-08
-2.72837e-07
3.06566e-08
-2.98384e-07
1.34458e-08
-2.01778e-07
-1.48508e-08
-2.6476e-07
4.36238e-08
-2.59868e-07
3.25568e-08
-1.33679e-07
5.176e-08
-1.25719e-07
3.7977e-09
-9.89859e-08
-4.19236e-08
-1.90517e-07
2.08173e-08
-1.89591e-07
3.51245e-09
-1.6571e-07
1.1512e-09
-8.64279e-08
-6.31304e-09
-9.71197e-08
-3.95076e-08
-1.04415e-07
-1.01762e-08
-7.18562e-08
-2.5118e-09
-2.07457e-07
4.77389e-08
-2.43629e-07
1.87939e-08
-2.18498e-07
3.39287e-08
-2.49384e-07
-1.85255e-08
-2.57462e-07
-5.59381e-09
-2.29245e-07
-1.49459e-08
-2.03348e-07
1.81923e-09
-7.21655e-08
-3.65687e-08
-1.89251e-07
-6.93015e-08
-1.68771e-07
1.36407e-08
-9.14383e-08
-1.68841e-08
-9.03122e-08
2.08475e-08
-6.7005e-08
-1.34681e-08
-5.65383e-08
1.70122e-08
-8.23444e-08
-3.90871e-08
-1.18047e-07
-9.37159e-08
-1.10237e-07
1.88714e-08
-8.74541e-08
1.38974e-08
-8.93294e-08
-4.27892e-08
-1.16842e-07
1.41118e-08
-1.72427e-07
7.20765e-08