/*--------------------------------*- C++ -*----------------------------------*\
  =========                 |
  \\      /  F ield         | OpenFOAM: The Open Source CFD Toolbox
   \\    /   O peration     | Website:  https://openfoam.org
    \\  /    A nd           | Version:  12
     \\/     M anipulation  |
\*---------------------------------------------------------------------------*/
FoamFile
{
    format      ascii;
    class       volVectorField;
    location    "0.1";
    object      U.water_0;
}
// * * * * * * * * * * * * * * * * * * * * * * * * * * * * * * * * * * * * * //

dimensions      [0 1 -1 0 0 0 0];

internalField   nonuniform List<vector> 
3750
(
(-0.0129772 -0.110796 0)
(-0.017098 0.0810099 0)
(0.00196691 -0.0207522 0)
(0.00319167 0.0317355 0)
(-0.00472185 0.00185972 0)
(0.00128302 0.0208893 0)
(-0.0038488 0.0131939 0)
(0.000775949 0.0206332 0)
(-0.00144798 0.0208795 0)
(-0.000756617 0.0259419 0)
(0.000813743 0.0287354 0)
(-0.000650327 0.0274946 0)
(-0.00163227 0.0299223 0)
(-0.00254949 0.0296292 0)
(-0.000895337 0.0239 0)
(-0.000263027 0.0225447 0)
(-0.00190857 0.024143 0)
(-0.00348679 0.0290266 0)
(-0.00128857 0.0326118 0)
(0.00389826 0.0313739 0)
(0.0052779 0.0247384 0)
(-0.000928183 0.0221849 0)
(-0.00113514 0.0218224 0)
(0.000124694 0.0230727 0)
(-0.00131278 0.0264523 0)
(0.000942281 0.030359 0)
(0.00111426 0.0316214 0)
(0.00122172 0.0322864 0)
(0.000561405 0.0335634 0)
(-0.00217994 0.0327469 0)
(-0.00260247 0.0308191 0)
(-0.00227244 0.0307839 0)
(-0.000340248 0.0314057 0)
(0.00279802 0.0269689 0)
(0.00193187 0.024013 0)
(0.00062301 0.0266303 0)
(-0.000101859 0.0338216 0)
(-0.00286195 0.0357298 0)
(-0.000232759 0.033709 0)
(-0.000155512 0.0334441 0)
(-0.00301826 0.0330232 0)
(-0.00253298 0.031305 0)
(0.000257762 0.0315637 0)
(0.00221469 0.0357004 0)
(0.00352558 0.0351638 0)
(0.00323098 0.0307836 0)
(0.000142971 0.0278028 0)
(-0.00173579 0.0287712 0)
(-0.00109609 0.0303793 0)
(-0.000280846 0.0320775 0)
(0.00381276 0.0279511 0)
(0.000360472 0.0200696 0)
(-0.00160347 0.0202899 0)
(-0.00138065 0.0228855 0)
(-0.000233864 0.0217474 0)
(-0.00195634 0.0218285 0)
(-0.00351153 0.0258414 0)
(-0.00287211 0.0343453 0)
(0.00221275 0.0372402 0)
(0.0042924 0.0355198 0)
(0.00164698 0.0313662 0)
(0.00299356 0.0249429 0)
(0.00351982 0.0242497 0)
(0.0010143 0.0228134 0)
(-0.00155937 0.0188349 0)
(-0.00428403 0.0197215 0)
(-0.0047947 0.0224821 0)
(-0.00395953 0.0253125 0)
(-0.00119182 0.0268316 0)
(0.000201678 0.0276981 0)
(-0.000327279 0.0280054 0)
(0.000690383 0.028885 0)
(0.00246592 0.0284441 0)
(0.0023926 0.0279335 0)
(0.00158214 0.0249258 0)
(-0.0164092 -0.0943457 0)
(-0.0173091 0.0429363 0)
(0.00310477 -0.0552637 0)
(-0.000161873 0.0308175 0)
(-0.00338232 -0.0250355 0)
(0.00162539 0.0117571 0)
(-0.00510693 -0.0135377 0)
(-0.00075679 0.00273209 0)
(-0.0051973 -0.0052747 0)
(-0.00559363 0.00278122 0)
(-0.00191939 0.00150629 0)
(-0.0021227 0.0023506 0)
(0.00175422 -0.00245937 0)
(0.00891084 0.00437702 0)
(0.00538444 -0.00441769 0)
(-0.000901835 -0.00360049 0)
(-0.00524303 -0.00507994 0)
(-0.00370678 -0.00752008 0)
(0.00113143 -0.00480463 0)
(0.00186994 -0.00387593 0)
(0.00262857 0.00132015 0)
(0.00478134 -0.00187796 0)
(0.00172766 0.00109381 0)
(-0.00519386 0.0104986 0)
(-0.00744346 0.00209144 0)
(-0.00352168 -0.00140782 0)
(-0.00353137 0.00700105 0)
(-0.00627309 0.00704009 0)
(0.000366416 0.00583547 0)
(0.00404065 -0.00145712 0)
(0.00313469 -0.00535522 0)
(-0.000437885 -0.00729523 0)
(0.00440316 -0.00617161 0)
(0.00512229 -0.00329333 0)
(-0.00407162 -0.00302597 0)
(-0.00913914 -0.000883192 0)
(-0.00186495 0.00173392 0)
(0.00273439 0.00546994 0)
(0.000495246 0.00437577 0)
(9.24799e-05 0.00159979 0)
(0.00399247 -0.00462037 0)
(0.00245397 -0.00525392 0)
(-0.00384879 -0.00238792 0)
(-0.00281206 0.0034459 0)
(0.00153249 0.0098231 0)
(0.00400962 0.0146874 0)
(0.00169425 0.0156458 0)
(-0.00234263 0.0145834 0)
(0.000732242 0.0102342 0)
(0.00416296 0.0113474 0)
(0.00753313 0.00917121 0)
(0.00243574 0.00230661 0)
(-0.000935938 -0.00654091 0)
(0.00146691 -0.00812562 0)
(0.00146115 -0.0101978 0)
(-0.00523864 -0.0108264 0)
(-0.00859783 -0.00812454 0)
(-0.0082569 -0.006254 0)
(-0.00262478 0.00139765 0)
(0.00145064 0.0022581 0)
(0.00569292 -0.00039586 0)
(0.00245477 9.0305e-05 0)
(-0.000252556 0.00371196 0)
(0.00439678 0.0038952 0)
(0.00399772 -0.0013911 0)
(0.00150043 -0.00875594 0)
(-0.000721916 -0.011419 0)
(-5.60563e-05 -0.0117968 0)
(-0.000823425 -0.0119603 0)
(-0.00221846 -0.011349 0)
(3.18901e-05 -0.0114865 0)
(-0.00128201 -0.0143198 0)
(-0.00299052 -0.0148034 0)
(0.00296503 -0.0139877 0)
(0.00688735 -0.0104557 0)
(-0.0156862 -0.0943813 0)
(-0.0137516 0.038284 0)
(-0.0121696 -0.0523084 0)
(-0.00920761 0.0205021 0)
(0.00455706 -0.0274245 0)
(-0.00255676 0.00326915 0)
(-0.000433008 -0.0148722 0)
(-0.00264101 -0.00490752 0)
(-0.00285571 -0.0114481 0)
(-0.00271514 -0.0104495 0)
(-0.00453069 -0.014259 0)
(-0.00154741 -0.0200612 0)
(-0.00174976 -0.0195855 0)
(0.00218311 -0.00905439 0)
(0.00630943 -0.00142447 0)
(0.00109931 0.000804636 0)
(0.00105682 0.00239929 0)
(-0.000328996 -0.0102877 0)
(-0.00340614 -0.0124866 0)
(-0.0028401 -0.0124106 0)
(-0.000293171 -0.0163284 0)
(0.00210088 -0.00889759 0)
(-0.00419108 -0.00209388 0)
(0.000446749 -0.000947094 0)
(-0.00230457 -0.0144896 0)
(-0.00147287 -0.0203026 0)
(0.00166719 -0.0219863 0)
(0.000192814 -0.0208676 0)
(0.00347614 -0.0214504 0)
(0.00729854 -0.0226754 0)
(0.00581652 -0.0217283 0)
(-0.000839511 -0.0210864 0)
(-0.00336208 -0.0151607 0)
(-0.00110061 -0.020074 0)
(-0.00227646 -0.0256174 0)
(-0.00446996 -0.0246436 0)
(-0.00265624 -0.0227966 0)
(-0.00094366 -0.0150927 0)
(-0.00209315 -0.00966598 0)
(0.00241786 -0.0106643 0)
(0.00516152 -0.00895684 0)
(-0.00417004 -0.00165264 0)
(-0.00954266 -0.00386333 0)
(-0.00965705 -0.00701347 0)
(-0.00522644 -0.00297986 0)
(-0.00341973 -0.000208233 0)
(0.000922028 0.00404469 0)
(0.00112306 0.00215849 0)
(0.00684075 0.00373827 0)
(0.00501832 0.00608482 0)
(0.00912404 0.00519413 0)
(0.0127813 -0.000950017 0)
(0.00743642 -0.00798578 0)
(0.00408012 -0.013223 0)
(0.000703496 -0.0123653 0)
(-0.00169827 -0.0112118 0)
(-0.00789131 -0.0145879 0)
(-0.01098 -0.0162497 0)
(-0.00372936 -0.0161283 0)
(0.00341774 -0.0177276 0)
(0.00427121 -0.0173379 0)
(0.000361636 -0.0188614 0)
(-0.000636038 -0.0187604 0)
(0.00619729 -0.0106463 0)
(0.00853613 -0.00868845 0)
(0.00541351 -0.00631478 0)
(-0.00117635 -0.00341584 0)
(-0.00304706 -0.0110384 0)
(-0.00220618 -0.0086718 0)
(0.000698858 -0.00966666 0)
(0.00349713 -0.00876929 0)
(0.00290709 -0.00514857 0)
(0.000890689 -0.0150237 0)
(-0.000879673 -0.0189237 0)
(-1.23629e-05 -0.0188838 0)
(-0.0171552 -0.0956564 0)
(-0.0122459 0.0412196 0)
(-0.0115816 -0.0493589 0)
(-0.00769462 0.00679359 0)
(0.000789714 -0.0284016 0)
(-0.000697083 -0.00101123 0)
(-0.00193793 -0.0161645 0)
(-0.00245173 -0.00397833 0)
(-0.0016403 -0.00745893 0)
(-0.00107034 -0.00340147 0)
(0.00381498 -0.0015889 0)
(0.00268945 -0.00913088 0)
(-0.00724226 -0.0105572 0)
(-0.00736679 -0.0129955 0)
(-0.00495644 -0.00845264 0)
(-0.00510692 -0.00789154 0)
(0.0046712 -0.00484464 0)
(0.00896917 8.71268e-05 0)
(0.00334933 -0.00978014 0)
(0.00370463 -0.0117713 0)
(0.00345006 -0.0167582 0)
(-0.00289326 -0.012143 0)
(-0.00174971 -0.0105619 0)
(0.00569501 -0.0106566 0)
(0.00582698 -0.0127112 0)
(-0.00368233 -0.0195288 0)
(-0.00195164 -0.0203988 0)
(-0.00198002 -0.0193228 0)
(0.000367477 -0.0162947 0)
(0.00320738 -0.0145029 0)
(0.00396863 -0.0144502 0)
(0.00617777 -0.00755641 0)
(0.00510865 -0.0100286 0)
(-0.00394656 -0.0175867 0)
(-0.0016895 -0.0278276 0)
(-0.00115886 -0.0314299 0)
(-0.00891082 -0.029846 0)
(-0.00981049 -0.0228342 0)
(-0.00674153 -0.0173818 0)
(-0.00103618 -0.0158656 0)
(-0.000698936 -0.0138766 0)
(-0.0015198 -0.0108426 0)
(-0.00221123 -0.0138584 0)
(-0.00427307 -0.0257533 0)
(-0.000574222 -0.0272159 0)
(-0.0010428 -0.0258194 0)
(5.1357e-05 -0.0266667 0)
(-0.00349537 -0.0191324 0)
(-0.000738034 -0.0168483 0)
(0.00308162 -0.0158922 0)
(0.0126618 -0.0137297 0)
(0.0140693 -0.0159507 0)
(0.0101976 -0.0159067 0)
(0.00702705 -0.0167684 0)
(-0.00200931 -0.0168244 0)
(-0.00500416 -0.0142785 0)
(-0.00626812 -0.00936952 0)
(-0.0106256 -0.0148011 0)
(-0.000221299 -0.0170428 0)
(0.00742582 -0.0148122 0)
(0.00773747 -0.0102197 0)
(-0.00117915 -0.00692538 0)
(-0.00595868 -0.0161023 0)
(-0.00602078 -0.0123442 0)
(0.00128854 -0.00854683 0)
(-0.000253085 -0.00659771 0)
(0.00287375 -0.00359184 0)
(0.00330983 -0.00947005 0)
(-0.00243289 -0.0103521 0)
(-0.00151184 -0.0107671 0)
(-0.0025146 -0.0090226 0)
(0.00263567 -0.00243605 0)
(0.00928108 -0.00370138 0)
(0.00839956 -0.0102144 0)
(0.000250008 -0.0132813 0)
(-0.017184 -0.0967031 0)
(-0.0129991 0.0395388 0)
(-0.0103348 -0.0496817 0)
(-0.00563824 0.00890382 0)
(-0.00557949 -0.0275188 0)
(-0.00309709 -0.00254845 0)
(-0.00545768 -0.0180398 0)
(-0.00682198 -0.00812878 0)
(-0.00592674 -0.0149358 0)
(-0.00599836 -0.0147782 0)
(0.0018791 -0.0102569 0)
(0.00408187 -0.00617373 0)
(0.00382424 -0.00811473 0)
(0.000267923 -0.0103921 0)
(-9.99461e-05 -0.00746142 0)
(-0.00368503 -0.0113439 0)
(-0.00464256 -0.0146824 0)
(0.00499737 -0.00486362 0)
(0.00871976 -0.00321397 0)
(0.00416943 -0.00813442 0)
(-0.000512494 -0.0075495 0)
(-0.00217847 -0.00797372 0)
(0.00900827 -0.0138434 0)
(0.00744952 -0.0121149 0)
(0.0025451 -0.0118285 0)
(-0.00495281 -0.0146084 0)
(-0.00439168 -0.0147141 0)
(0.00171936 -0.0189734 0)
(0.00225667 -0.0202234 0)
(0.000812699 -0.019148 0)
(0.00165362 -0.0147688 0)
(0.00840095 -0.0106266 0)
(0.00841346 -0.00902153 0)
(0.000406469 -0.00478776 0)
(0.00156074 -0.0132474 0)
(-0.000761171 -0.0196323 0)
(-0.00424206 -0.01905 0)
(-0.00473183 -0.0197041 0)
(-0.0127773 -0.0162254 0)
(-0.00527852 -0.0162242 0)
(-0.000488482 -0.0149451 0)
(-0.00169028 -0.0156448 0)
(-0.00418538 -0.0171912 0)
(-0.00356543 -0.0096023 0)
(0.00267629 -0.00933889 0)
(3.80745e-05 -0.0153079 0)
(-0.00524425 -0.0148778 0)
(-0.00378604 -0.00672143 0)
(0.00110161 -0.0103792 0)
(0.0056405 -0.02089 0)
(0.00495345 -0.0207824 0)
(0.00783494 -0.0193522 0)
(0.00708668 -0.0154448 0)
(0.00640829 -0.0112243 0)
(-0.00204421 -0.00451054 0)
(-0.00606563 -0.00707459 0)
(-0.00343673 -0.00871487 0)
(-0.000452144 -0.0117493 0)
(-0.00538132 -0.0146105 0)
(0.00265618 -0.0143191 0)
(0.00381174 -0.0115939 0)
(-0.0011374 -0.0070998 0)
(0.00342493 -0.0158195 0)
(-0.00128673 -0.0247909 0)
(-0.00113588 -0.021941 0)
(-0.00131553 -0.0176512 0)
(0.00312032 -0.0136584 0)
(0.00470267 -0.0146402 0)
(-0.000264372 -0.0141803 0)
(-0.00255214 -0.0185395 0)
(-0.00279739 -0.0259636 0)
(0.00108815 -0.02248 0)
(0.00592977 -0.0185353 0)
(0.00617473 -0.0201033 0)
(-0.00147439 -0.0178132 0)
(-0.0181584 -0.100779 0)
(-0.0101659 0.0456944 0)
(-0.0118304 -0.0486136 0)
(-0.00573549 0.0201506 0)
(-0.00297239 -0.0268753 0)
(-0.000148925 -5.5414e-05 0)
(0.00022257 -0.0203573 0)
(0.00115025 -0.00821096 0)
(0.000300068 -0.0194953 0)
(-0.00285474 -0.0219632 0)
(-0.00510872 -0.0224262 0)
(-0.00208744 -0.020387 0)
(-0.00230282 -0.0166672 0)
(-0.00743034 -0.0127385 0)
(-0.00669476 -0.00892443 0)
(0.00246846 -0.00663557 0)
(0.000896206 -0.0168624 0)
(-0.00234425 -0.0149982 0)
(0.00651742 -0.00618079 0)
(0.0067792 -0.00408733 0)
(0.00399453 -0.00631232 0)
(0.00505668 -0.0129646 0)
(0.00712106 -0.0152956 0)
(0.00795808 -0.0169 0)
(0.00298132 -0.0177614 0)
(0.000637061 -0.0194844 0)
(-0.00158476 -0.0157985 0)
(0.00500901 -0.01189 0)
(-0.00351938 -0.0172173 0)
(-0.0059901 -0.0199644 0)
(-0.00208558 -0.0137427 0)
(0.00356784 -0.0120381 0)
(0.00333087 -0.00590145 0)
(0.00488802 0.00279765 0)
(0.00109905 -1.55369e-05 0)
(-0.00265695 -0.00345979 0)
(-0.00396708 -0.0128432 0)
(0.00263783 -0.0174897 0)
(-0.000768044 -0.0189455 0)
(-0.0019828 -0.0177106 0)
(-0.00486494 -0.0151104 0)
(-0.0105807 -0.0115368 0)
(-0.0109622 -0.0167616 0)
(-0.0067033 -0.0122482 0)
(-0.00378788 -0.0117438 0)
(-0.000437769 -0.021047 0)
(-0.00147155 -0.0253382 0)
(0.00267176 -0.0206679 0)
(0.00827896 -0.0125906 0)
(0.0131478 -0.0173226 0)
(0.00480094 -0.0129118 0)
(0.00378292 -0.00860252 0)
(0.00316357 -0.0111386 0)
(-0.00481033 -0.00829155 0)
(-0.00845934 -0.00674389 0)
(-0.00332077 -0.0118241 0)
(0.00155746 -0.0178023 0)
(0.00194911 -0.0176706 0)
(-0.00199099 -0.0139103 0)
(0.00250716 -0.0152653 0)
(0.00443039 -0.0169185 0)
(0.00658075 -0.0154552 0)
(0.00357856 -0.016443 0)
(0.00187408 -0.02219 0)
(-0.0048926 -0.0190794 0)
(-0.010266 -0.0127383 0)
(0.000287244 -0.0122655 0)
(0.0060253 -0.00925365 0)
(0.00421451 -0.0144249 0)
(0.00182682 -0.0219368 0)
(0.00284683 -0.0178136 0)
(0.00461207 -0.0190645 0)
(0.000506867 -0.0194387 0)
(0.00304023 -0.0154768 0)
(0.000262285 -0.0141502 0)
(-0.0205653 -0.0987177 0)
(-0.00881459 0.0483215 0)
(-0.0105142 -0.0505673 0)
(-0.00770918 0.0147165 0)
(-0.000237591 -0.0274109 0)
(0.000701365 0.000177968 0)
(0.000730682 -0.0167766 0)
(0.00175909 -0.00227375 0)
(0.000259683 -0.00605128 0)
(0.00105824 -0.000519727 0)
(-0.00551081 -0.00560989 0)
(-0.00598454 -0.00480309 0)
(-0.00293924 -6.36202e-05 0)
(-0.00221625 -0.00888278 0)
(-0.00576272 -0.0150716 0)
(0.00352953 -0.0118509 0)
(0.000966627 -0.0125006 0)
(-0.00590337 -0.0161699 0)
(-0.00395622 -0.0161446 0)
(0.00395621 -0.00883914 0)
(0.0107246 -0.00760744 0)
(0.0122161 -0.00975492 0)
(0.00876315 -0.0140683 0)
(0.00814657 -0.0135572 0)
(0.00405383 -0.00915684 0)
(-0.000111672 -0.00277649 0)
(-0.00392958 -0.00650843 0)
(0.00138481 -0.00379971 0)
(0.000201136 0.000201061 0)
(-0.00945467 -0.0104496 0)
(-0.00569533 -0.0091737 0)
(0.000649849 -0.00963157 0)
(-0.00622376 -0.00824703 0)
(-0.00294634 -0.00651005 0)
(0.00579664 -0.00862332 0)
(0.0104865 -0.0132154 0)
(0.00931093 -0.0125499 0)
(0.00161038 -0.0173662 0)
(0.00113758 -0.0202601 0)
(-0.00475705 -0.0117615 0)
(-0.00945785 -0.00564248 0)
(-0.0105053 -0.00240859 0)
(-0.00899803 -0.011013 0)
(0.000636988 -0.0108057 0)
(-0.00138957 -0.0062724 0)
(0.00032461 -0.0143141 0)
(-0.00115487 -0.0230052 0)
(-0.00575484 -0.0233884 0)
(-0.00553149 -0.0206215 0)
(0.00288756 -0.0118362 0)
(-0.0024753 -0.00733024 0)
(0.00119299 -0.00421531 0)
(0.00915934 -0.00165231 0)
(0.00419209 -0.00284091 0)
(0.00197559 -0.00676281 0)
(0.00423485 -0.00963763 0)
(-0.000390179 -0.0165579 0)
(0.00104339 -0.0252095 0)
(0.00207238 -0.0215234 0)
(-0.0042045 -0.0169492 0)
(0.00332402 -0.0143374 0)
(0.00878535 -0.0122975 0)
(0.000831455 -0.0159698 0)
(0.000633692 -0.0107457 0)
(0.00162972 -0.0111883 0)
(-0.0053879 -0.0204289 0)
(0.00211598 -0.0185979 0)
(0.00313678 -0.0176757 0)
(-0.00105269 -0.0159611 0)
(0.00133755 -0.0160112 0)
(4.50755e-05 -0.0125032 0)
(-0.00373153 -0.00825615 0)
(-0.00544625 -0.0120649 0)
(0.000580496 -0.0041715 0)
(0.00643644 -0.00285039 0)
(-0.0238335 -0.098194 0)
(-0.0121768 0.051516 0)
(-0.00629874 -0.0511463 0)
(-0.00957763 0.0137292 0)
(-0.00313582 -0.0282394 0)
(-0.000596349 -0.00171309 0)
(-0.000107697 -0.0168464 0)
(-0.00381714 -0.00649768 0)
(-0.00298841 -0.011015 0)
(-0.00255684 -0.00272286 0)
(-0.00389272 -0.00548734 0)
(-0.00572175 -0.0117447 0)
(0.00232161 -0.00826103 0)
(0.00846399 -0.00892094 0)
(0.00868491 -0.0198719 0)
(-0.00139028 -0.0213755 0)
(-0.0060435 -0.0226 0)
(-0.00183206 -0.0282413 0)
(-0.000485694 -0.0317102 0)
(0.000881371 -0.0293342 0)
(0.00529228 -0.0243284 0)
(0.011733 -0.0186283 0)
(0.0108728 -0.0159132 0)
(-0.00114831 -0.00977461 0)
(-0.00654265 -0.00667272 0)
(0.000129328 -0.00534334 0)
(0.00410696 -0.0116829 0)
(-8.03024e-05 -0.0106194 0)
(0.000325889 -0.00789897 0)
(0.00131508 -0.0183305 0)
(-0.00176796 -0.0150263 0)
(0.000658363 -0.0149409 0)
(-0.00252297 -0.022379 0)
(0.00235286 -0.0263576 0)
(0.00686464 -0.0253008 0)
(0.00529257 -0.0184246 0)
(0.0075285 -0.00890415 0)
(0.00263264 -0.00510955 0)
(-0.00201567 -0.00191997 0)
(-0.0107712 -0.00482598 0)
(-0.0129619 -0.00506 0)
(-0.00668955 -0.00827248 0)
(-0.00173093 -0.0150453 0)
(0.000758554 -0.0141998 0)
(-0.00371926 -0.0126402 0)
(0.000608456 -0.0161811 0)
(0.00407088 -0.0165726 0)
(0.00386939 -0.0200743 0)
(-0.000367932 -0.0304268 0)
(-0.000809493 -0.0293069 0)
(-0.00290732 -0.0274601 0)
(-0.00251455 -0.0300598 0)
(0.000545098 -0.0258389 0)
(0.00480506 -0.0226288 0)
(0.00765321 -0.0220731 0)
(0.00450449 -0.0186807 0)
(0.000427608 -0.0185589 0)
(0.00755762 -0.0226694 0)
(0.00277878 -0.022227 0)
(-0.00672233 -0.017793 0)
(-0.00426725 -0.018377 0)
(0.00477067 -0.0130122 0)
(0.00540083 -0.0126422 0)
(0.00303803 -0.0133898 0)
(0.0066423 -0.0101365 0)
(0.0071051 -0.0100838 0)
(0.00197612 -0.0145901 0)
(0.00158479 -0.017449 0)
(-0.00171728 -0.0122992 0)
(-0.00135031 -0.0138959 0)
(-0.00354106 -0.0128181 0)
(-0.0106559 -0.0119572 0)
(-0.00596025 -0.0191427 0)
(-0.00376243 -0.0202361 0)
(0.00573179 -0.0126323 0)
(-0.0206752 -0.0888878 0)
(-0.0137098 0.0365956 0)
(-0.00347708 -0.0520778 0)
(-0.00595148 0.00136048 0)
(-0.000159807 -0.0301158 0)
(-0.000324999 -0.0116788 0)
(7.36169e-05 -0.0209512 0)
(-0.0020855 -0.0161944 0)
(-0.00271288 -0.0220911 0)
(-0.00580474 -0.011272 0)
(0.000787493 -0.0126753 0)
(-0.000360422 -0.0261304 0)
(0.00383993 -0.0267151 0)
(0.00833006 -0.0232136 0)
(0.00679692 -0.0203059 0)
(-0.000230938 -0.0223399 0)
(0.000784821 -0.0313815 0)
(0.00118079 -0.0328607 0)
(-0.00163626 -0.0339805 0)
(-0.00272335 -0.032979 0)
(-0.00277645 -0.0297612 0)
(0.00213091 -0.0239101 0)
(0.00306589 -0.0198227 0)
(-0.000505877 -0.0210553 0)
(0.00150076 -0.028215 0)
(0.0028994 -0.029528 0)
(0.00390257 -0.0282988 0)
(0.00422137 -0.0313613 0)
(0.00274454 -0.0309959 0)
(0.00033526 -0.0285942 0)
(-0.00415779 -0.0192763 0)
(-0.00272542 -0.0156053 0)
(0.002123 -0.01782 0)
(0.000433228 -0.0126865 0)
(0.000199671 -0.0122083 0)
(-0.00373192 -0.0133062 0)
(-0.00454453 -0.0116881 0)
(-0.0067458 -0.00655473 0)
(-0.00366181 -0.000976104 0)
(-0.00213243 -0.00465949 0)
(-0.00725988 -0.00875805 0)
(0.000452023 -0.0139932 0)
(-0.00130425 -0.00903828 0)
(-0.00140353 -0.00405242 0)
(-0.00164321 -0.0182467 0)
(0.00115504 -0.0216182 0)
(0.00038691 -0.0173727 0)
(0.00395079 -0.0131194 0)
(0.0047463 -0.0119643 0)
(0.000222338 -0.0083439 0)
(-0.00246388 -0.00899421 0)
(7.52786e-05 -0.0168716 0)
(0.00148135 -0.0253948 0)
(0.00207913 -0.0260434 0)
(0.00473909 -0.0243824 0)
(0.00138834 -0.0247916 0)
(-0.000733321 -0.0222183 0)
(0.0019388 -0.016822 0)
(0.00100526 -0.018266 0)
(0.000909122 -0.025194 0)
(-0.0067685 -0.0272819 0)
(-0.00151297 -0.0202417 0)
(0.00605019 -0.0145926 0)
(-0.000781348 -0.0110299 0)
(0.000351724 -0.0066998 0)
(0.00972648 -0.00152541 0)
(0.00214173 -0.0060476 0)
(0.000660906 -0.00480655 0)
(0.00372963 -0.00350509 0)
(-0.000981621 -0.00948617 0)
(0.00149131 -0.00760765 0)
(-0.00697107 -0.00485527 0)
(-0.00334125 -0.0148198 0)
(-0.00137209 -0.0157874 0)
(0.00773003 -0.0123558 0)
(-0.0139768 -0.0912462 0)
(-0.0106189 0.0293343 0)
(-0.0112777 -0.0504588 0)
(-0.0084178 0.00522806 0)
(-0.00495516 -0.0259624 0)
(-0.000455246 -0.00297901 0)
(0.000844625 -0.0176793 0)
(-0.000866977 -0.0087314 0)
(-0.00375694 -0.0160704 0)
(-0.00259559 -0.00931609 0)
(0.00184793 -0.0128462 0)
(0.000513211 -0.0197092 0)
(0.00408924 -0.0267748 0)
(0.00392048 -0.0306417 0)
(0.00400208 -0.0266503 0)
(0.00338933 -0.0237036 0)
(0.00255519 -0.0260457 0)
(0.00115951 -0.0238809 0)
(0.00185403 -0.0202033 0)
(-0.000766296 -0.0257329 0)
(-0.000336731 -0.0236648 0)
(0.00239855 -0.0204471 0)
(0.00316958 -0.0245134 0)
(0.0044556 -0.0284909 0)
(0.00197622 -0.0312641 0)
(0.000144788 -0.0306988 0)
(0.00181071 -0.0279299 0)
(0.00220785 -0.0280211 0)
(0.00147781 -0.0256064 0)
(1.82448e-05 -0.0153944 0)
(-0.00290783 -0.00912633 0)
(-0.00860195 -0.0131396 0)
(-0.00500972 -0.0151972 0)
(-0.00447849 -0.0143576 0)
(-0.00120286 -0.0122778 0)
(0.00208111 -0.0124413 0)
(-0.00391649 -0.0114195 0)
(-0.00510698 -0.0108224 0)
(-0.00368826 -0.0187676 0)
(-0.00118194 -0.0186237 0)
(-0.00134715 -0.0144985 0)
(-0.0022068 -0.0145063 0)
(-0.00161853 -0.0133864 0)
(0.00313673 -0.0117863 0)
(0.00563203 -0.0107406 0)
(-0.000375784 -0.0163399 0)
(-0.00494104 -0.0188859 0)
(-0.00251075 -0.0157685 0)
(-0.00035871 -0.0102451 0)
(-0.00513437 -0.00885927 0)
(0.000185148 -0.0224203 0)
(0.00697348 -0.0227782 0)
(0.00862468 -0.0200216 0)
(0.0034536 -0.0215143 0)
(0.00484926 -0.0220513 0)
(0.00485432 -0.0178209 0)
(-0.000987384 -0.0161459 0)
(-0.000703334 -0.0162504 0)
(0.00378559 -0.0164906 0)
(0.00354803 -0.0184866 0)
(-0.00708819 -0.0205572 0)
(-0.0106781 -0.0177502 0)
(-0.00357351 -0.00976909 0)
(-0.00501171 -0.00745168 0)
(0.000769483 -0.00868637 0)
(0.00622537 -0.00627492 0)
(0.0057737 -0.000775123 0)
(0.000243521 -0.00640405 0)
(0.00378071 -0.00635437 0)
(0.000821782 -0.00578855 0)
(-0.00184604 -0.00709386 0)
(0.00204354 -0.00453906 0)
(-0.00110125 -0.0175856 0)
(0.00108689 -0.0192322 0)
(-0.00144393 -0.016696 0)
(-0.0168009 -0.0955304 0)
(-0.0126795 0.0421732 0)
(-0.0142693 -0.0526587 0)
(-0.00756058 0.00328676 0)
(-0.00402879 -0.0306706 0)
(-0.000306907 -0.00999046 0)
(0.000934627 -0.0187453 0)
(-0.00162322 -0.010173 0)
(9.88432e-05 -0.0124276 0)
(0.00581583 -0.00830833 0)
(0.000886628 -0.0119139 0)
(0.00646094 -0.0134673 0)
(0.00657748 -0.0164881 0)
(0.00632536 -0.0192496 0)
(-0.000303331 -0.0149551 0)
(-0.00159573 -0.0132787 0)
(0.00387794 -0.00887752 0)
(-0.000866797 -0.00801498 0)
(-0.00211614 -0.00774321 0)
(0.00348534 -0.00169358 0)
(0.00360942 -0.00700518 0)
(0.00323585 -0.00409851 0)
(0.000237255 -0.00352631 0)
(0.00445744 -0.00533928 0)
(0.00441972 -0.00360168 0)
(0.000875689 -0.00375435 0)
(0.00161618 -0.0107122 0)
(-0.000830925 -0.0110354 0)
(-0.00478198 -0.0127316 0)
(-0.00250452 -0.00908005 0)
(0.000868256 -0.00390761 0)
(-0.00103119 -0.0050274 0)
(-0.00681798 -0.0101564 0)
(-0.00342605 -0.0127294 0)
(-0.00259189 -0.0122476 0)
(-0.00515702 -0.00966001 0)
(-0.0030523 -0.00372191 0)
(-0.000858114 -0.0102153 0)
(-0.000263975 -0.025437 0)
(-0.0021617 -0.0253461 0)
(-0.00115106 -0.0218754 0)
(0.00205291 -0.0230017 0)
(0.00399498 -0.018197 0)
(0.00168419 -0.0122639 0)
(-0.00286209 -0.00943655 0)
(-0.00413921 -0.0111267 0)
(-0.00446347 -0.0201131 0)
(6.74776e-05 -0.0133452 0)
(0.00444126 -0.0139329 0)
(0.00370906 -0.0180429 0)
(-0.000397923 -0.0227909 0)
(-0.00233809 -0.0246781 0)
(0.00128661 -0.019257 0)
(0.00565519 -0.0214966 0)
(0.00438102 -0.0243513 0)
(0.00242696 -0.0223247 0)
(0.00385972 -0.0195963 0)
(0.00164737 -0.0191022 0)
(-8.95376e-06 -0.0169786 0)
(0.00266777 -0.0140774 0)
(-0.00247105 -0.0127647 0)
(-0.00619419 -0.0139696 0)
(-0.00508075 -0.0148655 0)
(-0.000878341 -0.0198403 0)
(-3.04164e-05 -0.0193227 0)
(-0.00283193 -0.0191049 0)
(0.00188884 -0.0145623 0)
(0.00421514 -0.0145235 0)
(0.00499332 -0.0186902 0)
(0.00237534 -0.0159378 0)
(0.00424814 -0.0177064 0)
(0.0126031 -0.0193537 0)
(0.00878382 -0.0102356 0)
(0.0012546 -0.0079558 0)
(-0.00569329 -0.0130848 0)
(-0.0149248 -0.0925849 0)
(-0.0122371 0.0249114 0)
(-0.0133586 -0.0488914 0)
(-0.00498848 -0.00131339 0)
(-0.00805117 -0.0320575 0)
(-0.00370228 -0.0114053 0)
(-0.00517073 -0.017909 0)
(-0.000424166 -0.00889041 0)
(0.000878223 -0.00733428 0)
(0.00177449 -0.00574614 0)
(0.00452516 -0.0105483 0)
(0.00737695 -0.0104834 0)
(-9.69398e-05 -0.0151024 0)
(-0.0012122 -0.0121855 0)
(0.000848782 -0.00780635 0)
(-0.00185947 -0.0125165 0)
(-0.000118564 -0.00982992 0)
(0.00239837 -0.0106532 0)
(-0.00365804 -0.0157603 0)
(0.00013115 -0.0115678 0)
(0.00510402 -0.0118296 0)
(-0.00151401 -0.0103219 0)
(0.00096772 -0.00849183 0)
(0.00213236 -0.0111388 0)
(0.00326136 -0.00713128 0)
(0.00663491 -0.0117147 0)
(0.00653333 -0.0114264 0)
(0.00538963 -0.0148736 0)
(0.00211285 -0.0147484 0)
(-0.00371045 -0.0179163 0)
(-0.00682045 -0.0174359 0)
(-0.00434836 -0.00923896 0)
(-0.000134725 -0.0093727 0)
(-0.00390785 -0.0149393 0)
(-0.00237351 -0.017109 0)
(-0.00281182 -0.0144262 0)
(0.00071562 -0.0132125 0)
(0.00185572 -0.0191766 0)
(0.00452227 -0.023345 0)
(0.000365264 -0.021308 0)
(-0.00303278 -0.0240171 0)
(0.00130823 -0.0269403 0)
(0.00225223 -0.0169682 0)
(-0.00186133 -0.0117307 0)
(-0.00339837 -0.0187903 0)
(-0.00209136 -0.0206609 0)
(-0.00141454 -0.0241601 0)
(-0.0020697 -0.0238252 0)
(-0.00028524 -0.0236799 0)
(0.000819565 -0.0243143 0)
(0.000125819 -0.0239567 0)
(0.000539058 -0.0306161 0)
(0.00251917 -0.0299888 0)
(0.0101388 -0.0262815 0)
(0.00666414 -0.0228281 0)
(0.00528877 -0.0208301 0)
(0.00451415 -0.0174533 0)
(-0.00674431 -0.00806872 0)
(-0.00723355 -0.0091521 0)
(-0.00332599 -0.00818667 0)
(-0.000228532 -0.00745519 0)
(0.000146412 -0.011821 0)
(-0.00269579 -0.0137167 0)
(0.00330727 -0.0123696 0)
(-0.00194597 -0.00770137 0)
(-0.00187776 -0.0119034 0)
(0.00153064 -0.0176585 0)
(0.00234408 -0.0162434 0)
(0.00581828 -0.0218093 0)
(0.00446218 -0.0244686 0)
(-0.00348446 -0.0198623 0)
(-0.00370142 -0.0184295 0)
(-0.00577182 -0.00652346 0)
(-0.00285736 -0.00303933 0)
(-0.00137421 -0.0107166 0)
(-0.013672 -0.10722 0)
(-0.00455931 0.0627789 0)
(-0.00992105 -0.0507138 0)
(-0.00730685 0.022158 0)
(-0.00936463 -0.031853 0)
(-0.00566046 -0.00598767 0)
(-0.00663176 -0.0156396 0)
(-0.00582119 -0.00673841 0)
(0.00525725 -0.0165625 0)
(0.0060623 -0.013305 0)
(0.00953472 -0.013472 0)
(0.0020678 -0.0164915 0)
(0.00123983 -0.0146733 0)
(-0.00109571 -0.0109161 0)
(-0.000491477 -0.0090153 0)
(-0.000744376 -0.00685586 0)
(0.000497254 -0.0136882 0)
(0.00617908 -0.00968635 0)
(0.00276792 -0.0147667 0)
(0.00147799 -0.0149672 0)
(-0.00031091 -0.0110979 0)
(-0.00150308 -0.0131241 0)
(0.00417497 -0.010385 0)
(0.00274715 -0.0107759 0)
(0.00406879 -0.0166641 0)
(0.00536795 -0.0111224 0)
(0.00724049 -0.00860595 0)
(-0.000446762 -0.00806237 0)
(-0.00376504 -0.00144618 0)
(0.000179326 -0.00131397 0)
(-0.00753467 -0.0048875 0)
(-0.00745338 -0.00892148 0)
(0.00184276 -0.00814329 0)
(0.00393403 -0.00535522 0)
(0.00113167 -0.013566 0)
(-0.00117088 -0.0129518 0)
(-0.00434317 -0.0133377 0)
(-0.00308916 -0.0165148 0)
(0.00148876 -0.00801374 0)
(0.000674856 -0.00628708 0)
(0.00191031 -0.00595987 0)
(-0.00239403 -0.00988426 0)
(-0.00148797 -0.0115932 0)
(-0.00368139 -0.0153173 0)
(-0.000898304 -0.0214378 0)
(-0.000823949 -0.0187173 0)
(-0.00218743 -0.0184344 0)
(-7.26907e-05 -0.0169907 0)
(0.0047995 -0.0191493 0)
(0.00345279 -0.0262488 0)
(0.00363965 -0.0257963 0)
(0.00441834 -0.0222376 0)
(-0.00155895 -0.0185408 0)
(-0.00126934 -0.018558 0)
(-0.00124689 -0.015586 0)
(-0.000986613 -0.00953956 0)
(-0.00283785 -0.0014155 0)
(-0.00687188 -0.00244358 0)
(-0.00113425 -0.00801566 0)
(0.00120067 -0.00640478 0)
(0.000719251 -0.00644884 0)
(0.000163573 -0.0114204 0)
(0.000686663 -0.0118941 0)
(0.0049752 -0.00957378 0)
(0.000264495 -0.00518559 0)
(0.00314148 -0.00919951 0)
(0.00571053 -0.012488 0)
(0.00362924 -0.0156826 0)
(0.00205102 -0.0175612 0)
(7.22184e-07 -0.00822658 0)
(0.00117878 -0.00666329 0)
(0.00285605 -0.00958231 0)
(-0.00162174 -0.0154576 0)
(-0.000270354 -0.0210109 0)
(-4.87218e-05 -0.0283845 0)
(-0.021591 -0.098612 0)
(-0.0189072 0.0500007 0)
(0.000598082 -0.0519755 0)
(-0.00794775 0.0137058 0)
(0.000461396 -0.0308383 0)
(-0.00385948 -0.00902444 0)
(-0.000113494 -0.0243464 0)
(0.00119608 -0.0161849 0)
(0.0103074 -0.017735 0)
(0.00537555 -0.0120171 0)
(-4.09678e-05 -0.0148727 0)
(-0.00101969 -0.0177422 0)
(-0.00211321 -0.0172095 0)
(-0.00342921 -0.0143052 0)
(-0.00421733 -0.012002 0)
(0.001733 -0.0189109 0)
(0.00358027 -0.015939 0)
(0.004019 -0.00982845 0)
(0.00206069 -0.0150957 0)
(0.00273526 -0.0189518 0)
(-0.00492576 -0.0225794 0)
(-0.00319864 -0.0208841 0)
(-5.21763e-05 -0.0147612 0)
(0.00434847 -0.0139334 0)
(0.00426565 -0.0121269 0)
(-0.000114916 -0.011616 0)
(0.00450822 -0.00863017 0)
(-0.00269341 -0.00722212 0)
(-0.00382901 -0.0144078 0)
(0.00102272 -0.0130161 0)
(0.00181519 -0.00658807 0)
(-0.00322262 -0.0153359 0)
(-0.000843683 -0.0155668 0)
(0.00820546 -0.00805463 0)
(0.00124663 -0.00914834 0)
(-0.000734033 -0.0109221 0)
(-0.00392899 -0.0209737 0)
(-0.00742255 -0.0160775 0)
(-0.00340329 -0.0139476 0)
(0.00191986 -0.0146164 0)
(0.00546087 -0.0133167 0)
(0.00140787 -0.009722 0)
(0.000899671 -0.0113697 0)
(0.00225592 -0.023923 0)
(-0.00160872 -0.0235074 0)
(-0.00327691 -0.0218983 0)
(-0.00137587 -0.0279375 0)
(0.00304597 -0.0222756 0)
(0.0064948 -0.0164198 0)
(0.00587337 -0.0192214 0)
(-0.00111316 -0.0179072 0)
(-0.000540129 -0.0139632 0)
(0.00294275 -0.00740568 0)
(0.00113494 -0.0124435 0)
(-0.00376715 -0.0151237 0)
(-0.00585766 -0.0140892 0)
(-0.00342595 -0.0122508 0)
(0.000997506 -0.0159531 0)
(-0.00219638 -0.016667 0)
(-0.00370383 -0.0119058 0)
(0.00348538 -0.01055 0)
(0.00310072 -0.013888 0)
(-0.00263189 -0.0108487 0)
(-0.00022155 -0.00740099 0)
(0.00239206 -0.00846102 0)
(0.00305919 -0.0103701 0)
(0.00688491 -0.00845847 0)
(0.00521857 -0.00975065 0)
(-0.0055984 -0.00648121 0)
(-0.00893899 -0.00346743 0)
(-0.00225092 -0.00607164 0)
(0.00755586 -0.00310259 0)
(0.00835099 -0.00372135 0)
(0.00221821 -0.0101106 0)
(0.00269228 -0.0126629 0)
(-0.0184297 -0.0927244 0)
(-0.016683 0.0263627 0)
(-0.00513884 -0.0464692 0)
(-0.00824692 -0.00513635 0)
(-0.000341226 -0.0287795 0)
(-0.00374682 -0.0126023 0)
(0.00108765 -0.0204877 0)
(0.00220291 -0.00828513 0)
(0.00273151 -0.00976735 0)
(-0.000172421 -0.00680567 0)
(-0.00351633 -0.0083418 0)
(-7.78637e-05 -0.021245 0)
(0.00240531 -0.0211356 0)
(0.0030151 -0.023987 0)
(0.00240413 -0.022578 0)
(0.00270852 -0.015819 0)
(0.00328357 -0.0131339 0)
(0.00159239 -0.0138102 0)
(0.00297782 -0.015896 0)
(0.00309804 -0.0181229 0)
(0.0016708 -0.028387 0)
(-0.0018143 -0.0278873 0)
(-0.00567068 -0.022665 0)
(-0.00190773 -0.0203664 0)
(0.00271188 -0.0175048 0)
(0.00341987 -0.018918 0)
(0.000554125 -0.0201019 0)
(0.00119547 -0.0221428 0)
(-0.000334594 -0.0286979 0)
(-0.000781139 -0.0298077 0)
(0.00318234 -0.0243933 0)
(-0.0031638 -0.0220778 0)
(-0.00709045 -0.0153288 0)
(-0.00116551 -0.0131847 0)
(0.00516002 -0.0171263 0)
(0.00687889 -0.0118741 0)
(0.00270242 -0.0166898 0)
(-0.00191619 -0.0208223 0)
(-0.00778199 -0.0178116 0)
(-0.00398701 -0.0174745 0)
(0.00219151 -0.014567 0)
(0.00191931 -0.013248 0)
(0.00116329 -0.00884208 0)
(-0.00022664 -0.0108738 0)
(-0.00363859 -0.011921 0)
(0.000838226 -0.0178981 0)
(0.00162263 -0.0202943 0)
(0.00226053 -0.0178164 0)
(-0.00313017 -0.0179309 0)
(0.000551336 -0.0108401 0)
(0.00153237 -0.00812335 0)