/*--------------------------------*- C++ -*----------------------------------*\
  =========                 |
  \\      /  F ield         | OpenFOAM: The Open Source CFD Toolbox
   \\    /   O peration     | Website:  https://openfoam.org
    \\  /    A nd           | Version:  12
     \\/     M anipulation  |
\*---------------------------------------------------------------------------*/
FoamFile
{
    format      ascii;
    class       volVectorField;
    location    "0.1";
    object      U.water;
}
// * * * * * * * * * * * * * * * * * * * * * * * * * * * * * * * * * * * * * //

dimensions      [0 1 -1 0 0 0 0];

internalField   nonuniform List<vector> 
3750
(
(-0.0130595 -0.111399 0)
(-0.0180753 0.0819812 0)
(0.00263008 -0.0200499 0)
(0.00518529 0.0365974 0)
(-0.00581888 0.0062494 0)
(0.000752408 0.0198939 0)
(-0.0038672 0.0127195 0)
(0.000686776 0.0202474 0)
(-0.00121076 0.0200567 0)
(-7.85802e-05 0.0233419 0)
(0.000482303 0.0268433 0)
(-0.000874876 0.0277969 0)
(-0.00152178 0.0300088 0)
(-0.00232285 0.0293954 0)
(-0.00101111 0.0240594 0)
(-0.000261663 0.0227484 0)
(-0.00185498 0.0242111 0)
(-0.00353528 0.0290127 0)
(-0.00165102 0.0327738 0)
(0.00342245 0.0319914 0)
(0.00496577 0.0260977 0)
(-0.000492276 0.0233498 0)
(-0.000652019 0.0202147 0)
(-0.000374626 0.0196316 0)
(-0.00254036 0.0252818 0)
(0.00117444 0.0310706 0)
(0.00196256 0.0304162 0)
(0.000823039 0.0313724 0)
(-0.000366675 0.0354317 0)
(-0.00208132 0.0357749 0)
(-0.00185106 0.0333201 0)
(-0.00062174 0.0312532 0)
(-1.05947e-05 0.0300436 0)
(0.0019818 0.0262261 0)
(0.00124853 0.0243586 0)
(0.000921062 0.0271714 0)
(-8.63058e-05 0.0336215 0)
(-0.00185943 0.0329885 0)
(-0.000686068 0.0304473 0)
(-0.000393958 0.0320014 0)
(-0.00273686 0.0321481 0)
(-0.00292707 0.0315621 0)
(-0.00116719 0.0337718 0)
(0.00311331 0.0378585 0)
(0.00358731 0.036015 0)
(0.00333526 0.0316091 0)
(0.000297417 0.0283702 0)
(-0.00163767 0.0292475 0)
(-0.0010581 0.0304422 0)
(0.000315422 0.0300185 0)
(0.00237882 0.0259829 0)
(-2.73623e-05 0.0203433 0)
(-0.0015446 0.0208546 0)
(-0.00137736 0.0234221 0)
(-0.00037036 0.0225226 0)
(-0.00202075 0.0228454 0)
(-0.00361832 0.026969 0)
(-0.0032066 0.0357207 0)
(0.00244591 0.0388102 0)
(0.00422277 0.0366656 0)
(0.00215763 0.0325845 0)
(0.00362058 0.0253767 0)
(0.00378226 0.0236393 0)
(0.00133946 0.0217322 0)
(-0.00145201 0.0175203 0)
(-0.0041939 0.0183309 0)
(-0.00484075 0.0210926 0)
(-0.00415791 0.0241655 0)
(-0.00131571 0.0258976 0)
(0.000151404 0.0268429 0)
(-0.000412744 0.0272697 0)
(0.000243752 0.0285332 0)
(0.0018836 0.0290225 0)
(0.00203353 0.0293073 0)
(0.00124804 0.0268658 0)
(-0.0159795 -0.093838 0)
(-0.0201284 0.0433803 0)
(0.00398755 -0.053301 0)
(0.00299587 0.0342138 0)
(-0.00447229 -0.0227789 0)
(0.00118504 0.0124767 0)
(-0.00497795 -0.0131146 0)
(-0.000879985 0.00305413 0)
(-0.00529093 -0.00495889 0)
(-0.00564356 8.24956e-05 0)
(-0.00171388 -0.00128652 0)
(-0.00194734 0.00295938 0)
(0.00173857 -0.00140108 0)
(0.00875303 0.00455645 0)
(0.00524916 -0.0042689 0)
(-0.000909608 -0.00318107 0)
(-0.00528391 -0.0044821 0)
(-0.00399973 -0.00687782 0)
(0.00057945 -0.00420667 0)
(0.0014406 -0.00283055 0)
(0.00229314 0.00307232 0)
(0.00436525 0.000249194 0)
(0.00197554 -0.000790496 0)
(-0.00636965 0.00536858 0)
(-0.00726951 0.00205043 0)
(-0.00293245 0.00158739 0)
(-0.00328333 0.0051792 0)
(-0.00497933 0.0041001 0)
(-0.00351623 0.00839893 0)
(0.00376646 0.00380026 0)
(0.00495244 -0.000616018 0)
(0.00586306 -0.00676795 0)
(0.00551865 -0.00945604 0)
(0.00182047 -0.00513344 0)
(-0.00477821 -0.00197496 0)
(-0.00736971 0.000596141 0)
(-0.00409744 0.00279191 0)
(0.00532732 0.00293464 0)
(0.00144237 0.000239266 0)
(0.000753888 0.000587423 0)
(0.00417492 -0.0053571 0)
(0.00222186 -0.006019 0)
(-0.00503798 0.00195988 0)
(-0.00359994 0.0076314 0)
(0.00121761 0.00990877 0)
(0.00403426 0.015181 0)
(0.0015889 0.0162803 0)
(-0.00181923 0.0152861 0)
(0.000250582 0.0113103 0)
(0.00358221 0.0081037 0)
(0.0068583 0.00617569 0)
(0.00271228 0.00371955 0)
(-0.000539504 -0.00503431 0)
(0.00156126 -0.00725174 0)
(0.00113554 -0.00928558 0)
(-0.00595245 -0.00932139 0)
(-0.00905221 -0.0061077 0)
(-0.00935657 -0.00334497 0)
(-0.000522401 0.00341237 0)
(0.000763928 0.00373611 0)
(0.00669335 0.00179808 0)
(0.00466207 0.000662319 0)
(0.000672712 0.00273163 0)
(0.00480982 0.00263718 0)
(0.00401523 -0.00280271 0)
(0.00139998 -0.00988847 0)
(-0.000969706 -0.0122443 0)
(-0.000662584 -0.0123206 0)
(-0.000875499 -0.0122084 0)
(-0.00198427 -0.0119571 0)
(-0.000288711 -0.0122582 0)
(-0.00238356 -0.0145858 0)
(-0.00464376 -0.013909 0)
(0.00212337 -0.011945 0)
(0.00670518 -0.00900244 0)
(-0.0121247 -0.0968779 0)
(-0.00929239 0.0387518 0)
(-0.0095037 -0.0468306 0)
(-0.00715681 0.0234278 0)
(0.00492974 -0.0261723 0)
(-0.00237355 0.00386524 0)
(-0.000138909 -0.0146627 0)
(-0.00262276 -0.00511134 0)
(-0.00328729 -0.0118366 0)
(-0.00385687 -0.0119996 0)
(-0.00366521 -0.0158726 0)
(-0.000995365 -0.0197821 0)
(-0.00190199 -0.018823 0)
(0.00199078 -0.00881584 0)
(0.00622825 -0.00145231 0)
(0.0010548 0.00099376 0)
(0.000823413 0.00243656 0)
(-0.0009531 -0.00993315 0)
(-0.00398013 -0.0118867 0)
(-0.0034536 -0.0116798 0)
(-0.00105926 -0.014727 0)
(-0.000141882 -0.00679263 0)
(-0.0020327 -0.00453088 0)
(0.00231137 -0.00474801 0)
(-0.000458253 -0.0136413 0)
(-0.00253855 -0.0195594 0)
(-0.000135354 -0.0221816 0)
(0.00165585 -0.0254876 0)
(0.00111183 -0.0205267 0)
(0.00826363 -0.0136505 0)
(0.00612123 -0.0123657 0)
(0.00372188 -0.0207601 0)
(-0.00227548 -0.0258451 0)
(-0.00279336 -0.0234247 0)
(-0.00284009 -0.0205182 0)
(-0.00386826 -0.0249067 0)
(-0.00212941 -0.0210541 0)
(0.00191317 -0.014072 0)
(-0.00051609 -0.0149383 0)
(0.00380862 -0.0126454 0)
(0.00467612 -0.0103314 0)
(-0.0047265 -0.00270743 0)
(-0.0112838 -0.00187177 0)
(-0.0119519 -0.00377804 0)
(-0.00648565 -0.00139386 0)
(-0.00268937 0.000281082 0)
(-2.24829e-05 0.00497543 0)
(0.00310257 0.00267236 0)
(0.00477321 0.00325761 0)
(0.00428695 0.00409642 0)
(0.00741159 0.00387662 0)
(0.0148392 0.000127846 0)
(0.00825527 -0.00732769 0)
(0.00441686 -0.0128281 0)
(0.000462042 -0.0121722 0)
(-0.00385083 -0.0100815 0)
(-0.008135 -0.012966 0)
(-0.00912311 -0.0113447 0)
(-0.00125132 -0.0138852 0)
(0.00445042 -0.0172784 0)
(0.00595888 -0.0133417 0)
(0.000765207 -0.0185711 0)
(-0.000127726 -0.020606 0)
(0.0071175 -0.0123208 0)
(0.0080987 -0.0103596 0)
(0.00513616 -0.00771134 0)
(-0.00153624 -0.00505132 0)
(-0.00476947 -0.0113672 0)
(-0.00171645 -0.00854467 0)
(0.0016817 -0.0105971 0)
(0.00313166 -0.0104837 0)
(0.0012937 -0.00694804 0)
(-0.00379296 -0.0143953 0)
(-0.00237424 -0.0157065 0)
(0.00169542 -0.0166076 0)
(-0.0118947 -0.0942613 0)
(-0.00404758 0.0420225 0)
(-0.00719057 -0.0502176 0)
(-0.00585847 0.00732735 0)
(0.00159898 -0.0277454 0)
(-0.000297919 -0.000685118 0)
(-0.00131622 -0.0159517 0)
(-0.00169969 -0.0045317 0)
(-0.00201365 -0.00842705 0)
(-0.00106299 -0.0047623 0)
(0.00349139 -0.00294625 0)
(0.0023488 -0.00938025 0)
(-0.00737906 -0.0104787 0)
(-0.00742431 -0.0127957 0)
(-0.00496112 -0.0082542 0)
(-0.00478285 -0.0077507 0)
(0.00428301 -0.00481059 0)
(0.00812303 -6.06847e-05 0)
(0.0026857 -0.00947911 0)
(0.00288147 -0.011526 0)
(0.00213182 -0.0165617 0)
(-0.00416956 -0.00735587 0)
(-0.00430938 -0.00834288 0)
(0.0103134 -0.0159006 0)
(0.00566508 -0.0163328 0)
(-0.000857024 -0.0200972 0)
(-0.00282234 -0.0193261 0)
(-0.00208797 -0.0226419 0)
(-0.000871671 -0.0139566 0)
(0.00322799 -0.00639478 0)
(0.00559089 -0.00630194 0)
(0.00245486 -0.00697302 0)
(0.00468268 -0.0203161 0)
(-0.000488631 -0.0217765 0)
(-0.00230359 -0.0246749 0)
(-0.00305451 -0.0282865 0)
(-0.00458888 -0.0256819 0)
(-0.00719548 -0.0239863 0)
(-0.00357407 -0.0229772 0)
(0.000421264 -0.0186457 0)
(-0.0015078 -0.0164505 0)
(-0.00645126 -0.0136715 0)
(-0.00380806 -0.0125031 0)
(-0.00226507 -0.0211805 0)
(-0.00477105 -0.0238769 0)
(-0.00254952 -0.0247294 0)
(0.000196978 -0.0241517 0)
(-0.000290812 -0.0191777 0)
(-0.00149735 -0.0184773 0)
(0.00486346 -0.0182699 0)
(0.0121246 -0.0136411 0)
(0.0146558 -0.0117329 0)
(0.0108934 -0.0161457 0)
(0.00757572 -0.0169964 0)
(-0.00132088 -0.0182748 0)
(-0.0048912 -0.0125729 0)
(-0.00631451 -0.00382614 0)
(-0.00453756 -0.00961498 0)
(-0.00114182 -0.0156406 0)
(0.00753095 -0.013875 0)
(0.0062543 -0.0091433 0)
(0.000629597 -0.00829659 0)
(-0.00578296 -0.0165485 0)
(-0.0030332 -0.0144972 0)
(0.000159591 -0.010957 0)
(0.000401335 -0.00773135 0)
(0.00352301 -0.00638729 0)
(0.00384141 -0.00934247 0)
(-0.000161741 -0.00812312 0)
(-0.00348868 -0.0122748 0)
(-0.00304349 -0.0125306 0)
(0.000891865 -0.00729235 0)
(0.0030706 -0.00317977 0)
(0.00602052 -0.00247627 0)
(0.000611677 -0.00930686 0)
(-0.0137279 -0.0962321 0)
(-0.0091023 0.039584 0)
(-0.00763418 -0.0508999 0)
(-0.00439022 0.00862467 0)
(-0.00488847 -0.0274151 0)
(-0.00273601 -0.0022746 0)
(-0.00460756 -0.0174698 0)
(-0.00468428 -0.00936969 0)
(-0.00664925 -0.0162667 0)
(-0.00438106 -0.0163682 0)
(0.000592545 -0.011631 0)
(0.00373246 -0.00603296 0)
(0.00368965 -0.00800638 0)
(-9.57201e-05 -0.0103272 0)
(-0.000725375 -0.00705879 0)
(-0.00241531 -0.0115521 0)
(-0.00557505 -0.0151962 0)
(0.0038846 -0.00460794 0)
(0.00814342 -0.00291854 0)
(0.00331135 -0.00779126 0)
(-0.00159599 -0.00685345 0)
(-0.00136975 -0.00800372 0)
(0.00153176 -0.0102604 0)
(0.00670364 -0.0126633 0)
(0.00539513 -0.012375 0)
(-0.000662556 -0.0145071 0)
(-0.00134346 -0.0184507 0)
(0.00107844 -0.0241337 0)
(0.00060947 -0.0192862 0)
(-0.000635166 -0.00709933 0)
(0.00381559 -0.00885859 0)
(0.00288512 -0.012163 0)
(0.00637049 -0.0124997 0)
(0.0022951 -0.00883488 0)
(0.00184001 -0.0135488 0)
(-0.00309437 -0.0145034 0)
(-0.000997407 -0.0134324 0)
(-0.00608196 -0.0199691 0)
(-0.00737705 -0.0222263 0)
(-0.0027436 -0.0221997 0)
(-7.06342e-05 -0.022525 0)
(-0.00354608 -0.0172453 0)
(-0.00535785 -0.00850922 0)
(-0.000326523 -0.0088499 0)
(0.00019332 -0.0109678 0)
(-0.00413066 -0.00998371 0)
(-0.00502905 -0.00929776 0)
(-0.00415916 -0.00792173 0)
(-9.54146e-05 -0.0130587 0)
(0.00718945 -0.0224319 0)
(0.00922467 -0.0226702 0)
(0.00801639 -0.0167392 0)
(0.00798982 -0.0144042 0)
(0.00753127 -0.010804 0)
(0.000208286 -0.00508173 0)
(-0.00424035 -0.00677926 0)
(-0.00139886 -0.00172986 0)
(0.00072374 -0.00829155 0)
(-0.00572691 -0.017833 0)
(-0.00210071 -0.0139652 0)
(0.00188888 -0.00560992 0)
(0.00325426 -0.00568234 0)
(0.00389216 -0.0179567 0)
(0.00224222 -0.0278983 0)
(0.00292839 -0.0252865 0)
(0.00164406 -0.0167861 0)
(0.00471335 -0.0147879 0)
(0.00612862 -0.0134121 0)
(-0.00291472 -0.0169734 0)
(-0.00601492 -0.0227128 0)
(-0.00402547 -0.0273952 0)
(-0.00445996 -0.0292339 0)
(0.00522736 -0.0175913 0)
(0.00531597 -0.0102366 0)
(-0.000849759 -0.0128083 0)
(-0.0161595 -0.0993084 0)
(-0.00839944 0.0456778 0)
(-0.0109118 -0.0519732 0)
(-0.00552852 0.0189441 0)
(-0.00302362 -0.0271182 0)
(-0.000404325 0.000370418 0)
(0.000340982 -0.0183849 0)
(0.00167464 -0.0107355 0)
(0.000888054 -0.0210932 0)
(-0.00222785 -0.0238478 0)
(-0.00461116 -0.0247683 0)
(-0.00181274 -0.0187308 0)
(-0.00158851 -0.016085 0)
(-0.0080931 -0.0130813 0)
(-0.00233247 -0.00720739 0)
(0.00197794 -0.00749629 0)
(-0.00216782 -0.0193776 0)
(-0.0049523 -0.0139809 0)
(0.00727391 -0.00523707 0)
(0.00590343 -0.00429097 0)
(0.000910194 -0.00514487 0)
(0.00382481 -0.0148405 0)
(0.00908693 -0.0142677 0)
(0.00558074 -0.0110417 0)
(0.00530783 -0.0163477 0)
(-0.00103918 -0.0202845 0)
(0.000731861 -0.0195498 0)
(0.00538365 -0.0201098 0)
(-0.000713491 -0.0157905 0)
(-0.00473741 -0.00800119 0)
(-0.0026544 -0.00963132 0)
(-0.000337412 -0.014711 0)
(0.000473668 -0.00847209 0)
(0.00163028 0.00102855 0)
(0.00328357 -0.000403337 0)
(-0.00377949 0.00223931 0)
(-0.00227676 -0.0083169 0)
(-0.0032587 -0.0174144 0)
(0.000872774 -0.0220457 0)
(-0.00057626 -0.0251099 0)
(-0.00362608 -0.0213482 0)
(-0.00796249 -0.0154067 0)
(-0.00806276 -0.00961844 0)
(-0.00386136 -0.00887007 0)
(-0.00138582 -0.0159176 0)
(-0.003254 -0.0179947 0)
(-0.00268437 -0.0198987 0)
(-0.000836806 -0.0220701 0)
(0.00716408 -0.0122674 0)
(0.0135313 -0.0141738 0)
(0.00832574 -0.0147627 0)
(0.00521952 -0.00845258 0)
(0.00415504 -0.0102595 0)
(-0.00416195 -0.00692487 0)
(-0.0027331 -0.00801063 0)
(-0.000405099 -0.0111812 0)
(0.00149472 -0.0128748 0)
(-0.00139393 -0.0149329 0)
(-0.00017487 -0.01897 0)
(-0.000277921 -0.0155953 0)
(0.00517967 -0.0066918 0)
(0.00438746 -0.0139914 0)
(0.00423209 -0.0183209 0)
(0.00544979 -0.0207698 0)
(0.000529867 -0.0215196 0)
(-0.00518443 -0.0166626 0)
(0.00124733 -0.016154 0)
(0.00569361 -0.0132188 0)
(0.000725261 -0.0175399 0)
(0.000922557 -0.0221521 0)
(0.000990629 -0.023813 0)
(0.000650281 -0.022853 0)
(0.00333457 -0.0132838 0)
(0.00272685 -0.00607106 0)
(-0.00287545 -0.0106791 0)
(-0.0200088 -0.098843 0)
(-0.0089189 0.0475073 0)
(-0.0112978 -0.0533474 0)
(-0.00851283 0.0134917 0)
(-0.00123566 -0.0278161 0)
(-0.00082594 0.000674586 0)
(-0.000155103 -0.0153923 0)
(0.000694977 -0.00289108 0)
(0.00240792 -0.00717986 0)
(0.00122068 -0.0025118 0)
(-0.00404959 -0.00769831 0)
(-0.00635667 -0.00417409 0)
(0.000128247 -0.000953317 0)
(-0.00241568 -0.00582092 0)
(-0.00233005 -0.0143384 0)
(0.000158302 -0.0190776 0)
(4.13393e-05 -0.015761 0)
(-0.00605407 -0.0123829 0)
(-0.00397949 -0.0136272 0)
(0.00361141 -0.0120479 0)
(0.00884153 -0.00726647 0)
(0.00903105 -0.00489977 0)
(0.0131525 -0.0114724 0)
(0.00789438 -0.0133246 0)
(0.00174126 -0.00887939 0)
(-0.00244266 -0.00333381 0)
(-0.00625439 -0.00782789 0)
(0.0059308 -0.00803021 0)
(0.00715608 0.00134549 0)
(-0.00513036 -0.00265755 0)
(-0.00766231 -0.00880026 0)
(-0.00452926 -0.0133879 0)
(-0.00776841 -0.0111509 0)
(-0.00425119 -0.00510954 0)
(0.00613154 -0.00619143 0)
(0.0115994 -0.00872628 0)
(0.00561976 -0.0120439 0)
(-0.00163287 -0.0177381 0)
(-0.00253582 -0.0185578 0)
(-0.00510309 -0.0176689 0)
(-0.00785498 -0.0119207 0)
(-0.00838092 -0.00303124 0)
(-0.00227886 -0.00286566 0)
(0.000153493 -0.01058 0)
(-0.00139771 -0.0133591 0)
(-0.000187031 -0.0133312 0)
(-0.00080252 -0.0184401 0)
(-0.00741685 -0.0240077 0)
(-0.00202571 -0.0178333 0)
(0.00208268 -0.00857157 0)
(-0.00120757 -0.00907048 0)
(0.00232973 -0.0044834 0)
(0.0102504 -0.00159601 0)
(0.00566509 0.00194575 0)
(0.00501607 -0.00546798 0)
(0.00754556 -0.015174 0)
(-0.000939736 -0.0160919 0)
(-0.000400919 -0.0199259 0)
(0.000717285 -0.0242003 0)
(-0.000162851 -0.0174036 0)
(-5.82629e-05 -0.00741334 0)
(0.0048217 -0.0106567 0)
(0.00481877 -0.0114712 0)
(0.001452 -0.00919271 0)
(0.00135283 -0.0145698 0)
(-0.00380052 -0.0249613 0)
(-0.00103435 -0.0246718 0)
(0.00316375 -0.0200943 0)
(0.00304542 -0.0190982 0)
(-0.000408162 -0.0181309 0)
(0.00138564 -0.0169226 0)
(-0.000980419 -0.0107119 0)
(-0.00400991 -0.00786441 0)
(-0.000677815 -7.42627e-05 0)
(0.00366789 0.00160079 0)
(-0.0255322 -0.0975257 0)
(-0.0158935 0.0497529 0)
(-0.00876449 -0.0553905 0)
(-0.0114474 0.0119938 0)
(-0.00484554 -0.029006 0)
(-0.00434004 -0.00104511 0)
(-0.00134296 -0.0144857 0)
(-0.00243175 -0.00570308 0)
(-0.00182551 -0.0111745 0)
(0.00153493 -0.00546186 0)
(-0.00386618 -0.00931037 0)
(-0.00471468 -0.009096 0)
(0.00252448 -0.00776703 0)
(0.00863236 -0.00997979 0)
(0.00502377 -0.0214709 0)
(-0.00279241 -0.0255529 0)
(-0.00334845 -0.0223252 0)
(0.00112509 -0.0273425 0)
(-0.0014095 -0.0310818 0)
(0.00137005 -0.0307403 0)
(0.00747293 -0.0247031 0)
(0.00908484 -0.0136409 0)
(0.00832817 -0.0116778 0)
(-0.00248774 -0.0105497 0)
(-0.00812229 -0.00758211 0)
(-0.00147245 -0.00687242 0)
(0.00299043 -0.00867766 0)
(0.00179883 -0.00897367 0)
(0.00584972 -0.00727947 0)
(0.00470368 -0.0156759 0)
(-0.00248045 -0.0202094 0)
(-0.00265411 -0.017355 0)
(-0.00321246 -0.0216326 0)
(0.00310071 -0.0259828 0)
(0.0025927 -0.0223192 0)
(0.0072932 -0.0154429 0)
(0.00329604 -0.00880544 0)
(0.00228186 -0.00518788 0)
(-0.00596946 -0.00147781 0)
(-0.0105171 -0.00700549 0)
(-0.00958433 -0.00960374 0)
(-0.00241729 -0.00803155 0)
(0.00394689 -0.0104351 0)
(-0.00355667 -0.0173952 0)
(-0.00587992 -0.0168081 0)
(0.0010574 -0.0121612 0)
(0.00469458 -0.012731 0)
(0.00125268 -0.0199283 0)
(0.00227541 -0.0290786 0)
(-0.00250996 -0.0277417 0)
(-0.00198038 -0.0273985 0)
(-0.00151264 -0.0294737 0)
(0.00197333 -0.0238987 0)
(0.00660004 -0.0191538 0)
(0.00591115 -0.021118 0)
(0.00547173 -0.0208614 0)
(0.00449641 -0.0185507 0)
(0.00500198 -0.0205852 0)
(9.94235e-06 -0.0212324 0)
(-0.00290643 -0.0208813 0)
(-0.005837 -0.0158173 0)
(0.00517451 -0.00382669 0)
(0.00929752 -0.00949508 0)
(0.000520172 -0.0158677 0)
(0.00519093 -0.0126493 0)
(0.00303439 -0.0178434 0)
(0.000654995 -0.0193736 0)
(0.00143241 -0.0136689 0)
(-0.000583124 -0.0171355 0)
(-0.00102632 -0.0169397 0)
(-0.00424032 -0.0140113 0)
(-0.00395869 -0.0160657 0)
(-0.00591047 -0.0176248 0)
(-0.000322196 -0.0144405 0)
(0.00213678 -0.00994231 0)
(-0.0278892 -0.0919753 0)
(-0.0195103 0.032989 0)
(-0.0069139 -0.0530108 0)
(-0.00836193 0.000670674 0)
(-0.00127013 -0.0320266 0)
(-0.00298632 -0.0104297 0)
(-0.00104248 -0.0146123 0)
(-0.00221706 -0.0145366 0)
(0.000223095 -0.019778 0)
(-0.00257175 -0.014342 0)
(0.000643355 -0.0186504 0)
(0.00168545 -0.0255867 0)
(0.000473081 -0.0278376 0)
(0.00713145 -0.0228418 0)
(0.00362997 -0.0206719 0)
(0.000927448 -0.0244453 0)
(0.00262098 -0.0307227 0)
(0.00269776 -0.0324179 0)
(-0.00138904 -0.0340011 0)
(-0.00199039 -0.0335021 0)
(0.000617392 -0.0319321 0)
(0.00270471 -0.0223039 0)
(-0.00259352 -0.0158172 0)
(-0.00270321 -0.0206208 0)
(-0.000217256 -0.0285201 0)
(0.00148339 -0.02892 0)
(0.00442176 -0.0262237 0)
(0.00193758 -0.0286327 0)
(0.00509722 -0.0274247 0)
(0.00106987 -0.02628 0)
(-0.00463873 -0.0252756 0)
(-0.0020397 -0.0194652 0)
(-0.00222072 -0.0168273 0)
(0.00126635 -0.0147204 0)
(0.00185218 -0.008659 0)
(-0.00299155 -0.00865749 0)
(-0.00611778 -0.0130347 0)
(-0.00974582 -0.00637377 0)
(-0.00492591 0.000471517 0)
(-0.000634515 -0.00402089 0)
(-0.000433879 -0.0115118 0)
(0.00598553 -0.0118998 0)
(0.00366362 -0.0088218 0)
(-0.00232599 -0.0123328 0)
(-0.00144753 -0.0208469 0)
(-0.0012756 -0.0165968 0)
(-0.00161953 -0.0149194 0)
(0.00231692 -0.0118335 0)
(0.00696269 -0.00896286 0)
(-0.00145598 -0.00702569 0)
(-0.00365233 -0.00851682 0)
(0.000388079 -0.0174335 0)
(0.00244747 -0.0242685 0)
(0.00219773 -0.0236206 0)
(0.00392479 -0.0235123 0)
(0.00309807 -0.0244186 0)
(0.00253985 -0.024017 0)
(-0.000407637 -0.0179361 0)
(0.000691674 -0.0158798 0)
(0.000272146 -0.0255616 0)
(-0.00309856 -0.0234432 0)
(0.00251534 -0.0118614 0)
(0.00464144 -0.0129445 0)
(-0.00239645 -0.0149105 0)
(-0.00188534 -0.0107396 0)
(0.00559531 -0.00616981 0)
(0.0037139 -0.00883073 0)
(0.000362973 -0.00527857 0)
(0.00114022 -0.00652948 0)
(0.00183236 -0.013228 0)
(-0.00240447 -0.00572457 0)
(-0.00109924 -0.00733995 0)
(-0.00284495 -0.0144454 0)
(0.00217447 -0.0150319 0)
(0.00172273 -0.0116314 0)
(-0.0230493 -0.0907824 0)
(-0.014634 0.0298139 0)
(-0.0140172 -0.0506869 0)
(-0.0114325 0.00603583 0)
(-0.00271423 -0.0269618 0)
(0.00227757 -0.00230368 0)
(0.000488926 -0.0127918 0)
(-0.00506887 -0.00384986 0)
(-0.00232915 -0.012826 0)
(-0.00312581 -0.0155976 0)
(0.00129052 -0.0178674 0)
(0.00178945 -0.021063 0)
(0.00102987 -0.0296956 0)
(0.00238905 -0.0300088 0)
(0.00395276 -0.0253758 0)
(0.00287918 -0.0233976 0)
(0.0049207 -0.0250568 0)
(0.00232854 -0.0238778 0)
(0.00185881 -0.020997 0)
(-0.000758011 -0.0245237 0)
(-6.50154e-05 -0.0249927 0)
(0.00355721 -0.0245605 0)
(0.000481076 -0.023368 0)
(0.00181635 -0.0255365 0)
(-0.000164103 -0.0310077 0)
(-0.00294007 -0.0293368 0)
(0.000560333 -0.0254721 0)
(0.000775924 -0.0241641 0)
(0.00316517 -0.0207463 0)
(-0.000917903 -0.0155559 0)
(-0.00678483 -0.0149336 0)
(-0.00713644 -0.0188578 0)
(-0.00547061 -0.0138369 0)
(-0.000652507 -0.00798821 0)
(0.00415268 -0.0098331 0)
(0.00255637 -0.0132366 0)
(-0.00425948 -0.0149288 0)
(-0.00644003 -0.0109151 0)
(-0.00379817 -0.0137884 0)
(-0.000271956 -0.012914 0)
(0.00115002 -0.0151316 0)
(0.00161889 -0.0158368 0)
(0.000220394 -0.0153528 0)
(0.00418856 -0.0195839 0)
(0.00679637 -0.0164297 0)
(-0.00338379 -0.0146192 0)
(-0.00507753 -0.0139501 0)
(0.00122249 -0.0104618 0)
(-0.00107898 -0.00892505 0)
(-0.00505353 -0.0118004 0)
(-0.001459 -0.0208251 0)
(0.006943 -0.0202674 0)
(0.00820263 -0.0195133 0)
(0.00326239 -0.0207962 0)
(0.00374618 -0.0191306 0)
(0.00570599 -0.016327 0)
(0.000805901 -0.0200882 0)
(0.000718411 -0.0174012 0)
(0.00236954 -0.0134904 0)
(0.00365758 -0.0177368 0)
(-0.0036779 -0.0141193 0)
(-0.00570437 -0.0129707 0)
(-0.00656563 -0.0116746 0)
(-0.00470564 -0.0115232 0)
(-0.0022536 -0.0137422 0)
(0.00216811 -0.00915329 0)
(0.0047919 -0.00226445 0)
(-0.000241086 -0.00698812 0)
(0.00379075 -0.00783552 0)
(0.00263757 -0.0103365 0)
(-0.00419099 -0.00555013 0)
(-2.18439e-05 -0.00508603 0)
(0.00364087 -0.0183514 0)
(-0.00450357 -0.0202462 0)
(0.00144925 -0.0158921 0)
(-0.0169248 -0.0932986 0)
(-0.0107142 0.0445078 0)
(-0.0135067 -0.0527512 0)
(-0.0100991 0.00721183 0)
(-0.00105789 -0.0267537 0)
(0.00401625 -0.01107 0)
(0.00199707 -0.0191212 0)
(-0.00466241 -0.00676553 0)
(-0.000834836 -0.00712202 0)
(0.000613786 -0.0135299 0)
(0.00227808 -0.0154178 0)
(0.0020294 -0.0155382 0)
(0.00693534 -0.0208628 0)
(0.0070825 -0.0163572 0)
(-0.000728528 -0.0141874 0)
(-0.0018453 -0.0121866 0)
(0.0038841 -0.00665487 0)
(-0.000903284 -0.0100516 0)
(-0.00257302 -0.00919843 0)
(0.00244388 -0.00279526 0)
(-0.00019152 -0.00853925 0)
(0.00264897 -0.00598091 0)
(0.00178319 -0.0032486 0)
(0.00352631 -0.00426922 0)
(0.00380799 -0.00491672 0)
(0.000364731 -0.00299401 0)
(0.000507642 -0.00683941 0)
(-0.00365827 -0.00554948 0)
(-0.00619746 -0.00889123 0)
(-0.00329702 -0.0130035 0)
(0.000126194 -0.00833759 0)
(-0.000241317 -0.00596088 0)
(-0.00447264 -0.00693571 0)
(-0.00212692 -0.00898291 0)
(-0.00253925 -0.0114238 0)
(-0.00131592 -0.0105165 0)
(-0.00500729 -0.00770084 0)
(0.00293639 -0.0109159 0)
(0.000601633 -0.0216254 0)
(-0.00240508 -0.0217453 0)
(-0.00365921 -0.0216866 0)
(0.00240374 -0.0215818 0)
(0.00269522 -0.0206466 0)
(0.00073037 -0.0202287 0)
(-0.00093576 -0.0158112 0)
(-0.000555887 -0.00866014 0)
(-0.00228793 -0.0113381 0)
(0.00360284 -0.0124017 0)
(0.0023361 -0.014629 0)
(0.00505043 -0.0182876 0)
(0.000509322 -0.0223505 0)
(-0.00127238 -0.0226225 0)
(0.00125524 -0.0187048 0)
(0.00478591 -0.0206317 0)
(0.00239991 -0.0219048 0)
(0.00157808 -0.0188126 0)
(0.00470933 -0.02168 0)
(0.00713103 -0.0229203 0)
(0.00108095 -0.0148551 0)
(0.00351936 -0.00929096 0)
(-0.00224663 -0.0049604 0)
(-0.00602295 -0.0129502 0)
(-0.00552652 -0.0180619 0)
(2.21103e-06 -0.0238253 0)
(-0.000791204 -0.0269965 0)
(-0.00389822 -0.0209586 0)
(0.00136015 -0.0134963 0)
(0.00336574 -0.0142479 0)
(0.00178442 -0.0190262 0)
(0.00150382 -0.0221976 0)
(0.00513704 -0.0194305 0)
(0.00880746 -0.0136653 0)
(0.010729 -0.0134166 0)
(-0.00448683 -0.00930676 0)
(-0.00188154 -0.00934704 0)
(-0.00911375 -0.089954 0)
(-0.00822191 0.0260882 0)
(-0.0122394 -0.0543886 0)
(-0.00503733 0.00163818 0)
(-0.00676999 -0.0257489 0)
(-0.000386665 -0.0121308 0)
(-0.00151628 -0.0203978 0)
(-0.000744109 -0.00605865 0)
(-0.00164557 -0.0064225 0)
(-0.00111696 -0.00930243 0)
(-9.48768e-05 -0.0148488 0)
(0.00412144 -0.0120009 0)
(0.00197684 -0.0124319 0)
(0.00159736 -0.0125865 0)
(-0.0013913 -0.00839218 0)
(-0.0027087 -0.0113758 0)
(-0.00121753 -0.00847126 0)
(0.00211264 -0.0119601 0)
(-0.00581886 -0.0171684 0)
(-0.00116089 -0.0135972 0)
(-0.000695762 -0.0129403 0)
(-0.00221212 -0.00918744 0)
(0.00260798 -0.00747651 0)
(0.00269565 -0.0100945 0)
(0.00465719 -0.00679289 0)
(0.00923278 -0.0111433 0)
(0.0067005 -0.0113376 0)
(0.00431525 -0.0114242 0)
(-0.00141964 -0.00850174 0)
(-0.0057365 -0.0176786 0)
(-0.00450087 -0.0208589 0)
(-0.00340872 -0.0122171 0)
(0.00113973 -0.00797992 0)
(-0.00521874 -0.0109929 0)
(-0.00523687 -0.0121251 0)
(-0.000118874 -0.0173061 0)
(-0.00107534 -0.0167952 0)
(0.00641043 -0.0166057 0)
(0.0046191 -0.0223637 0)
(-0.00240003 -0.0192556 0)
(-0.00266241 -0.0238397 0)
(0.00102516 -0.0261493 0)
(-0.00174541 -0.0194643 0)
(-0.0021305 -0.0168017 0)
(-0.000505479 -0.0199547 0)
(0.00465816 -0.0186548 0)
(0.000299845 -0.0199584 0)
(-0.000609004 -0.0230177 0)
(0.00105219 -0.0239568 0)
(0.00199265 -0.0233543 0)
(0.00205284 -0.0231096 0)
(0.00207415 -0.0294348 0)
(0.00395471 -0.0306055 0)
(0.00713825 -0.026593 0)
(0.00738529 -0.0197784 0)
(0.00463554 -0.0163261 0)
(0.00362666 -0.0142736 0)
(-0.00247116 -0.00894946 0)
(-0.00295092 -0.0108688 0)
(-0.00200246 -0.00803726 0)
(-0.00145081 -0.00231447 0)
(-0.00534332 -0.0084649 0)
(-0.00328197 -0.0148693 0)
(0.000675563 -0.0165323 0)
(-0.0010033 -0.0150243 0)
(-0.00137235 -0.0151415 0)
(0.00194852 -0.0183571 0)
(0.00373512 -0.0193706 0)
(0.00375942 -0.0236451 0)
(0.00220784 -0.0247864 0)
(-0.000875244 -0.0207347 0)
(-0.00581089 -0.0165654 0)
(-0.00538806 -0.00949447 0)
(-0.00240059 -0.00297001 0)
(-0.00250586 -0.00827209 0)
(-0.0128466 -0.106795 0)
(-0.00683075 0.0623698 0)
(-0.0117732 -0.0548904 0)
(-0.00668568 0.0266416 0)
(-0.0100601 -0.0245914 0)
(-0.00234413 -0.00471866 0)
(-0.00237398 -0.0201462 0)
(-0.00105864 -0.00959148 0)
(0.00103442 -0.0139921 0)
(0.004142 -0.0203782 0)
(0.000922158 -0.0168663 0)
(0.00248401 -0.0116395 0)
(0.00144486 -0.0129284 0)
(0.00266979 -0.0121689 0)
(-0.00198427 -0.0118723 0)
(-1.30158e-06 -0.00507019 0)
(0.00276156 -0.0104451 0)
(0.00296364 -0.0128308 0)
(-0.00321724 -0.0175962 0)
(-0.00130736 -0.0192499 0)
(-0.00157056 -0.0120327 0)
(-0.00102835 -0.00754959 0)
(0.000211457 -0.00865734 0)
(0.00237713 -0.00984869 0)
(0.00673138 -0.0152589 0)
(0.00777804 -0.0109941 0)
(0.00739699 -0.00828575 0)
(0.000774896 -0.00597228 0)
(-0.00541373 0.00127783 0)
(-0.00379394 0.000279335 0)
(-0.00427729 -0.00645572 0)
(-0.00781884 -0.0106114 0)
(0.00513661 -0.00716309 0)
(0.000510348 -0.00629516 0)
(7.32118e-05 -0.00897055 0)
(-0.000988192 -0.0129785 0)
(-0.000963346 -0.015073 0)
(-0.000515134 -0.013897 0)
(-0.000142778 -0.0111553 0)
(-0.00217466 -0.00328323 0)
(-0.00176961 -0.0036862 0)
(-0.000617723 -0.0124288 0)
(-0.00411536 -0.0142748 0)
(-0.00327788 -0.0173289 0)
(0.00114139 -0.0206011 0)
(0.00261958 -0.0166496 0)
(0.000332903 -0.0153791 0)
(0.00225431 -0.0166472 0)
(0.00505605 -0.0202201 0)
(0.00544968 -0.025205 0)
(0.00518484 -0.0244909 0)
(0.00547562 -0.021307 0)
(-0.00203094 -0.0220562 0)
(0.000876538 -0.0173846 0)
(0.000345749 -0.0107155 0)
(-0.0029799 -0.00765409 0)
(-0.00280542 0.00119321 0)
(-0.0049746 -0.00228133 0)
(0.000853626 -0.00920633 0)
(0.00184185 -0.00701094 0)
(0.000489713 -0.00542288 0)
(-0.005302 -0.0101073 0)
(-0.00224263 -0.0118801 0)
(0.00157214 -0.0117723 0)
(0.000909109 -0.0110015 0)
(0.00462404 -0.0120952 0)
(0.00627515 -0.0108972 0)
(0.00415294 -0.0178907 0)
(0.00396537 -0.0208408 0)
(0.000101413 -0.00957622 0)
(0.00195064 -0.00897553 0)
(0.00179316 -0.00713927 0)
(-0.00254999 -0.0161713 0)
(0.000887453 -0.0241262 0)
(-0.00310926 -0.0243108 0)
(-0.0219865 -0.0994484 0)
(-0.0167325 0.0478078 0)
(-0.00122586 -0.0544129 0)
(-0.00635258 0.0173987 0)
(-0.00181084 -0.0219387 0)
(-0.00240653 -0.00555273 0)
(0.00201937 -0.0256148 0)
(0.00506029 -0.0216671 0)
(0.00519075 -0.022786 0)
(0.00262045 -0.0199287 0)
(0.000512252 -0.0166693 0)
(-0.00238265 -0.0101275 0)
(-0.00185214 -0.0110929 0)
(-0.00361677 -0.0165868 0)
(-0.00116099 -0.0157407 0)
(0.00473358 -0.0141464 0)
(0.00140567 -0.0182107 0)
(-0.00430691 -0.0191156 0)
(-0.000414075 -0.0160881 0)
(-0.00329026 -0.0169323 0)
(-0.00191977 -0.0209864 0)
(-0.00201816 -0.0220574 0)
(-0.0029418 -0.0143275 0)
(0.00335013 -0.00633521 0)
(0.00426655 -0.00896239 0)
(0.00244378 -0.0134496 0)
(0.00278956 -0.00947462 0)
(-0.00219704 -0.0060021 0)
(-0.00469242 -0.0134746 0)
(0.00023184 -0.00793239 0)
(0.00263461 -0.00765133 0)
(-8.10443e-05 -0.0182777 0)
(0.000180002 -0.0161544 0)
(0.00245662 -0.0082883 0)
(0.00283978 -0.000971271 0)
(-5.22476e-05 -0.009543 0)
(-0.00094034 -0.0220199 0)
(-0.00638795 -0.0183372 0)
(-0.00418134 -0.0182986 0)
(-0.000102515 -0.0144247 0)
(2.17844e-05 -0.00831565 0)
(0.000812796 -0.00875315 0)
(0.00276606 -0.0162445 0)
(0.000488343 -0.0240421 0)
(-0.000301004 -0.0211853 0)
(0.000508318 -0.0198338 0)
(0.00120121 -0.0249142 0)
(0.00154122 -0.0229379 0)
(0.00743425 -0.017001 0)
(0.00837571 -0.0173019 0)
(-0.00118087 -0.0173209 0)
(0.00232981 -0.0146796 0)
(0.00383331 -0.00759798 0)
(0.00505293 -0.0110997 0)
(-0.00457735 -0.0163323 0)
(-0.00720836 -0.0111665 0)
(-0.00102528 -0.0059087 0)
(0.000897982 -0.0149892 0)
(-0.00110602 -0.0190607 0)
(-0.00349634 -0.013846 0)
(0.00142871 -0.0115601 0)
(-0.00182377 -0.0131693 0)
(-0.00534446 -0.00987876 0)
(-0.00134097 -0.00780762 0)
(0.00466853 -0.0109188 0)
(0.00694065 -0.013199 0)
(0.00695825 -0.0102223 0)
(0.00319847 -0.0115382 0)
(-0.00486204 -0.00842007 0)
(-0.00764586 -0.0054061 0)
(-0.00178084 -0.00822451 0)
(0.00637169 -0.003408 0)
(0.00509146 -0.00476735 0)
(0.00224601 -0.0119631 0)
(0.00138445 -0.00782592 0)
(-0.0144628 -0.0893567 0)
(-0.011056 0.022195 0)
(-0.0014345 -0.0506487 0)
(-0.00355519 -0.0010088 0)
(-0.00316915 -0.0218934 0)
(-0.00618729 -0.00735179 0)
(-0.000146503 -0.0223316 0)
(0.000930787 -0.0180917 0)
(-0.000516168 -0.0131957 0)
(-0.000556044 -0.00850032 0)
(0.000992162 -0.0113511 0)
(0.000515144 -0.0167857 0)
(0.0022545 -0.0184577 0)
(-0.00204114 -0.0226856 0)
(0.00391475 -0.0217899 0)
(0.00361099 -0.0185836 0)
(-0.0020248 -0.0211509 0)
(-0.00152623 -0.0170639 0)
(0.000210406 -0.0160587 0)
(-0.00222884 -0.0177676 0)
(0.00120898 -0.0224747 0)
(0.00090924 -0.0277575 0)
(-0.00161091 -0.0225383 0)
(-0.00151425 -0.0156398 0)
(-1.60449e-05 -0.0129812 0)
(-0.00120475 -0.0207248 0)
(-0.000685783 -0.0216216 0)
(0.00196574 -0.0196296 0)
(0.000666277 -0.0275031 0)
(7.93094e-05 -0.0262209 0)
(0.000511804 -0.0215517 0)
(0.000883107 -0.0232824 0)
(-0.00504183 -0.0230508 0)
(-0.00119348 -0.0127174 0)
(0.00583274 -0.00585584 0)
(0.00397653 -0.0101963 0)
(0.00294301 -0.0186124 0)
(-0.00370469 -0.0225713 0)
(-0.00309561 -0.0231911 0)
(-0.00233192 -0.0184725 0)
(-0.000212649 -0.0105264 0)
(-0.00247714 -0.00829618 0)
(0.00242449 -0.0125696 0)
(0.00206074 -0.0130354 0)
(-0.00212594 -0.0059004 0)
(0.00147188 -0.0151163 0)
(0.00466917 -0.0225299 0)
(-0.0014085 -0.0187388 0)
(0.00143198 -0.0137761 0)
(0.00211327 -0.0109954 0)