/*--------------------------------*- C++ -*----------------------------------*\
  =========                 |
  \\      /  F ield         | OpenFOAM: The Open Source CFD Toolbox
   \\    /   O peration     | Website:  https://openfoam.org
    \\  /    A nd           | Version:  12
     \\/     M anipulation  |
\*---------------------------------------------------------------------------*/
FoamFile
{
    format      ascii;
    class       IOPosition;
    location    "0.25/lagrangian/cloud";
    object      positions;
}
// * * * * * * * * * * * * * * * * * * * * * * * * * * * * * * * * * * * * * //

4343
(
(2.8264e-07 0.5 0.5 4.07148e-09) 0 7376 2
(2.82663e-07 0.5 0.5 3.87111e-09) 0 7376 2
(0.00564993 0.497175 0.136068 0.361107) 0 7375 1
(0.000980034 0.49951 0.0113936 0.488116) 0 7375 1
(0.0110269 0.494487 0.104211 0.390276) 0 7375 1
(0.181024 0.409488 0.16884 0.240648) 1 7377 1
(0.165011 0.417494 0.166876 0.250619) 1 7377 1
(0.365201 0.200575 0.3174 0.116825) 1 7377 2
(0.437176 0.281412 0.155531 0.125881) 1 2 1
(0.570721 0.214639 0.0688973 0.145742) 2 7378 1
(0.0267973 0.486601 0.201778 0.284824) 2 4 1
(0.404604 0.0237966 0.297698 0.273901) 3 7379 2
(0.25508 0.37246 0.219232 0.153228) 4 8 1
(0.316502 0.341749 0.112174 0.229575) 6 10 1
(0.647155 0.176422 0.163173 0.0132497) 7 14 1
(0.523857 0.104482 0.133589 0.238072) 9 19 1
(0.628445 0.185778 0.0904057 0.0953719) 10 21 2
(0.114792 0.442604 0.222834 0.21977) 11 20 1
(0.509359 0.0492009 0.245321 0.19612) 11 7387 2
(0.427249 0.286375 0.0101369 0.276238) 12 7388 1
(0.427026 0.0912079 0.286487 0.195279) 13 26 2
(0.291504 0.0137656 0.340482 0.354248) 15 28 2
(0.259268 0.370366 0.0881178 0.282248) 16 33 2
(0.350566 0.324717 0.0252127 0.299504) 17 35 2
(0.113621 0.218771 0.224418 0.44319) 18 34 2
(0.508919 0.24554 0.1872 0.0583402) 18 36 1
(0.46943 0.265285 0.0408341 0.224451) 19 7395 1
(0.449105 0.275448 0.131569 0.143878) 20 7396 1
(0.777946 0.0326098 0.111027 0.0784171) 21 42 2
(0.545943 0.227028 0.215782 0.0112468) 22 44 1
(0.863746 0.0157513 0.0681269 0.0523756) 24 7400 2
(0.141263 0.104891 0.324477 0.429368) 26 50 2
(0.12078 0.15975 0.43961 0.27986) 26 52 2
(0.6497 0.17515 0.0995315 0.0756185) 27 54 1
(0.330613 0.334693 0.306617 0.0280762) 28 57 2
(0.459047 0.270476 0.0408286 0.229648) 29 59 2
(0.124043 0.33244 0.437978 0.105539) 29 58 2
(0.593836 0.100947 0.203082 0.102135) 30 7406 2
(0.557365 0.158276 0.221318 0.0630414) 31 7407 2
(0.646345 0.094677 0.176828 0.0821507) 33 7409 2
(0.770672 0.114664 0.0757322 0.0389319) 34 68 1
(0.560056 0.219972 0.118458 0.101514) 35 7411 1
(0.378675 0.310662 0.0715779 0.239084) 36 70 1
(0.209389 0.395305 0.101185 0.29412) 37 72 1
(0.196709 0.401645 0.2607 0.140945) 38 74 1
(0.402277 0.298861 0.253285 0.0455764) 39 76 1
(0.388864 0.269702 0.305568 0.0358661) 40 80 2
(0.694941 0.11969 0.0328396 0.15253) 42 85 1
(0.794875 0.102563 0.0721937 0.030369) 43 87 2
(0.478369 0.260816 0.0746541 0.186161) 44 86 1
(0.160912 0.419544 0.086547 0.332997) 44 88 1
(0.13047 0.434765 0.369138 0.0656267) 46 93 2
(0.121066 0.439467 0.239887 0.19958) 47 95 2
(0.0312099 0.0892631 0.395132 0.484395) 48 94 2
(0.971905 0.00738556 0.0140476 0.00666208) 48 7424 2
(0.0268279 0.150761 0.486586 0.335825) 48 96 2
(0.499459 0.25027 0.07747 0.1728) 49 7425 1
(0.20836 0.39582 0.154995 0.240825) 50 98 1
(0.00285342 0.498573 0.292292 0.206281) 50 100 1
(0.429323 0.285338 0.0257557 0.259583) 52 102 1
(0.0748122 0.377116 0.0854784 0.462594) 54 106 2
(0.294825 0.0557714 0.352587 0.296816) 55 110 2
(0.0698658 0.153212 0.465067 0.311855) 56 112 2
(0.262185 0.0535683 0.368907 0.315339) 57 114 2
(0.306688 0.120838 0.225818 0.346656) 58 117 1
(0.253209 0.345857 0.0275386 0.373396) 59 119 1
(0.398327 0.126548 0.174288 0.300836) 60 118 2
(0.464687 0.267657 0.126057 0.1416) 60 120 1
(0.674222 0.162889 0.00276119 0.160128) 61 120 1
(0.0188883 0.490556 0.221813 0.268743) 61 122 1
(0.193786 0.403107 0.307781 0.0953258) 62 124 1
(0.0297682 0.224056 0.26106 0.485116) 64 126 2
(0.696036 0.129898 0.151982 0.022084) 65 7441 2
(0.790745 0.104628 0.0824119 0.0222158) 66 133 2
(0.751743 0.124128 0.025227 0.0989014) 67 135 2
(2.82641e-07 0.5 0.5 5.39442e-09) 75 7451 2
(2.82664e-07 0.5 0.5 5.00428e-09) 75 7451 2
(0.140572 0.429714 0.0277584 0.401955) 0 7376 2
(2.9867e-07 0.23279 0.26721 0.5) 0 7376 1
(0.511723 0.134469 0.244138 0.109669) 0 7375 2
(0.709831 0.145084 0.0649215 0.0801629) 0 0 1
(0.843739 0.0781304 0.029476 0.0486544) 0 0 1
(0.413786 0.123042 0.293107 0.170065) 0 0 2
(0.115239 0.0573996 0.44238 0.384981) 75 1 1
(0.145673 0.427164 0.16769 0.259474) 76 3 2
(0.287849 0.00612159 0.356075 0.349954) 76 3 1
(0.320865 0.0800528 0.339568 0.259515) 77 5 1
(0.247292 0.160128 0.376354 0.216226) 78 7 1
(0.0139548 0.493023 0.379631 0.113392) 79 157 1
(0.0832624 0.458369 0.399676 0.0586927) 80 159 1
(0.518903 0.223688 0.0168602 0.240548) 81 159 2
(0.33751 0.263594 0.331245 0.0676511) 81 161 2
(0.498224 0.0844827 0.250888 0.166405) 82 163 2
(0.63565 0.182175 0.0436027 0.138572) 85 167 1
(0.414579 0.292711 0.198657 0.0940541) 86 23 2
(0.398163 0.300919 0.114929 0.185989) 86 171 1
(0.831483 0.0236587 0.0842586 0.0606) 87 25 1
(0.617241 0.147401 0.0439788 0.191379) 88 176 1
(0.458748 0.270626 0.0911522 0.179474) 89 178 2
(0.163108 0.167443 0.251003 0.418446) 90 177 2
(0.726907 0.136547 0.129817 0.00672956) 92 35 2
(0.326735 0.299546 0.336632 0.0370869) 93 37 1
(0.28256 0.297734 0.35872 0.0609865) 94 39 1
(0.316019 0.245884 0.34199 0.0961068) 95 41 1
(0.393623 0.148878 0.303189 0.154311) 96 43 1
(0.272329 0.196841 0.363835 0.166994) 97 45 1
(0.278527 0.204288 0.360737 0.156449) 97 193 2
(0.0651465 0.467427 0.173312 0.294115) 98 196 2
(0.456383 0.132439 0.139369 0.271809) 98 196 1
(0.442188 0.0110901 0.267816 0.278906) 99 195 2
(0.005714 0.26658 0.497143 0.230563) 99 197 2
(0.0690205 0.46549 0.362263 0.103227) 102 201 1
(0.0425765 0.478712 0.202338 0.276373) 103 205 1
(0.244152 0.377924 0.326097 0.0518268) 105 61 2
(0.510884 0.159018 0.244558 0.0855398) 105 61 1
(0.436917 0.281542 0.0979843 0.183557) 106 209 1
(0.0607119 0.469644 0.0473752 0.422269) 106 211 1
(0.163779 0.298391 0.418111 0.11972) 107 213 2
(0.414454 0.195337 0.292773 0.0974361) 108 215 2
(0.579626 0.144722 0.210187 0.0654654) 109 217 2
(0.283625 0.358187 0.151878 0.206309) 112 75 2
(0.334433 0.228862 0.332784 0.103922) 113 77 1
(0.0456781 0.477161 0.396094 0.0810668) 114 227 1
(0.138435 0.430783 0.0415789 0.389204) 116 229 1
(0.587652 0.206174 0.0368184 0.169356) 118 233 1
(0.0221505 0.488925 0.425106 0.0638191) 119 235 1
(0.0129539 0.493523 0.127486 0.366038) 194 238 2
(0.0517873 0.474106 0.0538555 0.420251) 195 386 1
(0.32071 0.339645 0.31204 0.0276044) 195 388 1
(0.49441 0.013969 0.252795 0.238826) 196 242 1
(0.645099 0.171237 0.177451 0.00621331) 197 244 1
(0.202663 0.398669 0.230834 0.167834) 198 392 1
(0.00787358 0.496063 0.352542 0.143522) 124 245 1
(0.425699 0.000849263 0.28715 0.286301) 124 99 1
(0.292739 0.236021 0.35363 0.117609) 125 101 1
(0.245418 0.237894 0.377291 0.139397) 126 103 1
(0.367024 0.316488 0.0277807 0.288707) 127 105 2
(0.157793 0.0643543 0.421104 0.356749) 127 253 2
(0.395047 0.0812976 0.221179 0.302477) 128 256 1
(0.568344 0.00651613 0.209312 0.215828) 129 258 1
(0.372722 0.0754986 0.313639 0.23814) 130 259 2
(0.420774 0.0592059 0.230407 0.289613) 131 262 1
(0.32749 0.202094 0.134161 0.336255) 132 264 1
(0.249682 0.246975 0.128184 0.375159) 133 266 1
(0.84978 0.07511 0.042755 0.0323551) 135 270 2
(0.3674 0.205782 0.110518 0.3163) 136 269 2
(0.0124795 0.49376 0.118394 0.375366) 136 271 1
(0.608167 0.126878 0.195916 0.0690382) 137 273 2
(0.1932 0.4034 0.21319 0.19021) 138 276 2
(0.249676 0.375162 0.0491024 0.326059) 139 278 2
(2.82639e-07 0.5 0.5 6.36114e-09) 150 7452 2
(2.82663e-07 0.5 0.5 5.99441e-09) 150 7452 2
(0.108419 0.445791 0.0243626 0.421428) 75 7451 2
(2.82686e-07 0.5 0.14379 0.35621) 150 7452 2
(0.403733 0.298134 0.0337271 0.264406) 75 1 2
(0.419727 0.290137 0.261922 0.0282148) 75 1 2
(0.178032 0.410984 0.0849888 0.325995) 75 1 2
(0.486953 0.256523 0.176201 0.0803223) 75 1 2
(0.429888 0.112561 0.285056 0.172494) 75 1 1
(0.688122 0.0813128 0.155939 0.0746264) 75 1 1
(0.315214 0.156469 0.342393 0.185924) 75 149 2
(0.162769 0.190026 0.22859 0.418615) 76 149 2
(0.0785994 0.126425 0.334275 0.4607) 76 152 1
(0.180779 0.110611 0.40961 0.298999) 152 154 1
(0.232514 0.0949542 0.383743 0.288789) 153 156 1
(0.335069 0.125539 0.332466 0.206926) 154 158 1
(0.512035 0.243982 0.147906 0.0960759) 155 308 1
(0.47646 0.26177 0.227088 0.0346817) 156 310 1
(0.315193 0.342404 0.161539 0.180865) 157 312 1
(0.430673 0.284664 0.154042 0.130622) 158 314 1
(0.120825 0.292417 0.14717 0.439588) 160 316 2
(0.59365 0.203175 0.146674 0.0565015) 161 320 1
(0.598534 0.200733 0.179251 0.0214815) 162 322 1
(0.936559 0.0137728 0.0179478 0.0317206) 163 322 2
(0.330294 0.198268 0.136585 0.334853) 164 324 2
(0.343496 0.328252 0.202392 0.12586) 165 180 2
(0.337357 0.331322 0.282627 0.0486945) 166 182 2
(0.205122 0.397439 0.149246 0.248193) 167 330 1
(0.160028 0.419986 0.34983 0.070156) 167 332 1
(0.354631 0.141142 0.322684 0.181542) 168 186 1
(0.536787 0.231606 0.104492 0.127114) 169 334 1
(0.233009 0.150456 0.233039 0.383496) 169 337 1
(0.11175 0.444125 0.0862422 0.357883) 170 339 2
(0.017829 0.0876 0.491085 0.403485) 170 338 2
(0.0659993 0.056636 0.467 0.410364) 171 340 2
(0.150463 0.0167415 0.408027 0.424769) 173 342 2
(0.578152 0.145985 0.210924 0.0649388) 174 198 1
(0.278124 0.331133 0.360938 0.0298051) 175 200 1
(0.273837 0.363081 0.0776887 0.285393) 176 202 2
(0.288279 0.35586 0.222165 0.133696) 177 204 2
(0.296784 0.351608 0.0154533 0.336155) 178 352 1
(0.27886 0.36057 0.219383 0.141187) 179 208 2
(0.588751 0.205625 0.163409 0.0422153) 180 210 2
(0.717492 0.0783555 0.141254 0.0628988) 181 212 1
(0.430025 0.243967 0.284987 0.0410205) 183 216 1
(0.101268 0.449366 0.0330529 0.416313) 185 366 1
(0.146406 0.426797 0.261786 0.165011) 186 222 2
(0.206854 0.388762 0.396573 0.0078112) 187 224 1
(0.238693 0.380653 0.0503232 0.33033) 114 228 2
(0.15816 0.00682896 0.42092 0.414091) 114 227 2
(0.156413 0.421794 0.0155283 0.406265) 190 230 2
(0.366264 0.316868 0.30133 0.0155385) 191 232 2
(0.138618 0.311802 0.118889 0.430691) 192 380 2
(0.231424 0.0483883 0.384288 0.3359) 192 382 2
(0.189695 0.0600315 0.345121 0.405152) 193 385 1
(0.161298 0.319601 0.419351 0.0997499) 269 387 1
(0.572951 0.213524 0.0761727 0.137352) 270 389 2
(0.878179 0.00327728 0.0609105 0.0576333) 271 391 1
(0.281104 0.359448 0.318647 0.0408004) 198 395 2
(0.0336952 0.296013 0.187139 0.483152) 199 394 2
(0.519785 0.240107 0.0607805 0.179327) 199 396 1
(0.558909 0.170515 0.220546 0.0500311) 200 250 1
(0.190888 0.404556 0.0990549 0.305501) 201 401 2
(0.133564 0.433218 0.0543419 0.378876) 202 403 2
(0.348777 0.325611 0.0113769 0.314234) 203 405 2
(0.183679 0.277149 0.131012 0.40816) 204 404 2
(0.0875762 0.344608 0.456212 0.111604) 204 406 2
(0.411374 0.0862418 0.294313 0.208071) 205 408 2
(0.324946 0.110431 0.227096 0.337527) 206 411 1
(0.203237 0.0378595 0.398381 0.360522) 207 412 2
(0.219103 0.390448 0.274049 0.1164) 209 417 2
(0.602158 0.0387794 0.160141 0.198921) 210 419 1
(0.572411 0.190046 0.0237486 0.213794) 211 421 1
(0.406002 0.296999 0.0905756 0.206423) 212 423 2
(0.0976095 0.451195 0.184261 0.266934) 213 425 2
(2.82479e-07 0.5 0.5 6.64884e-09) 225 7453 2
(2.82509e-07 0.5 0.5 6.32879e-09) 225 7453 2
(0.10859 0.445705 0.413702 0.0320034) 150 150 2
(2.82539e-07 0.5 0.153335 0.346665) 225 7453 2
(0.395343 0.302329 0.205815 0.0965136) 150 150 2
(0.505588 0.247206 0.211758 0.035448) 150 150 2
(0.450298 0.274851 0.236186 0.0386657) 150 150 2
(0.437545 0.171874 0.281228 0.109354) 150 150 1
(0.420493 0.174193 0.289753 0.11556) 150 150 1
(0.366186 0.316907 0.297796 0.0191114) 150 298 1
(0.347301 0.32635 0.244921 0.0814287) 150 298 1
(0.0189921 0.490504 0.467559 0.0229452) 151 298 1
(0.612979 0.19351 0.103903 0.0896078) 151 301 2
(0.0469812 0.476509 0.0507771 0.425732) 227 449 1
(0.302852 0.348574 0.0688407 0.279733) 228 451 1
(0.189933 0.405033 0.222863 0.18217) 229 307 2
(0.165536 0.417232 0.214275 0.202957) 230 309 2
(0.121361 0.43932 0.170443 0.268877) 231 311 2
(0.110582 0.444709 0.12591 0.318799) 232 313 2
(0.225425 0.387287 0.0843177 0.30297) 233 315 2
(0.712738 0.0160473 0.127584 0.143631) 234 466 1
(0.497915 0.0587873 0.192255 0.251043) 235 468 1
(0.331735 0.0146164 0.334132 0.319516) 236 469 2
(0.242509 0.0248572 0.378745 0.353888) 237 471 2
(0.321257 0.339372 0.230794 0.108578) 238 473 1
(0.597163 0.201419 0.17956 0.0218588) 239 475 1
(0.0135614 0.493219 0.227776 0.265443) 240 478 2
(0.0426587 0.0354246 0.478671 0.443246) 240 477 2
(0.140204 0.213109 0.216789 0.429898) 241 480 1
(0.646293 0.176854 0.176083 0.000770305) 242 482 2
(0.235142 0.382429 0.135841 0.246588) 243 484 2
(0.120289 0.0240232 0.415832 0.439856) 244 483 2
(0.137985 0.0354239 0.395584 0.431008) 244 486 1
(0.126634 0.0677505 0.368932 0.436683) 245 488 1
(0.0867414 0.0423312 0.456629 0.414298) 246 489 2
(0.0971598 0.0679122 0.383508 0.45142) 248 491 2
(0.0256599 0.268625 0.48717 0.218545) 248 493 2
(0.152328 0.423836 0.356716 0.0671201) 249 495 1
(0.389795 0.0742085 0.305102 0.230894) 250 349 1
(0.343387 0.325703 0.328307 0.00260352) 251 351 1
(0.357348 0.321326 0.225738 0.0955877) 252 353 2
(0.284934 0.357533 0.33164 0.0258928) 253 355 2
(0.254902 0.372549 0.0194693 0.35308) 254 357 2
(0.132356 0.0408525 0.433822 0.392969) 255 359 1
(0.151958 0.424021 0.0716249 0.352396) 182 363 2
(0.0497953 0.475102 0.368881 0.106221) 183 365 2
(0.118212 0.440894 0.396223 0.0446708) 184 367 2
(0.0452893 0.421085 0.0562705 0.477355) 185 369 1
(0.169591 0.338715 0.0764896 0.415205) 186 371 1
(0.107611 0.446195 0.0499564 0.396238) 262 373 2
(0.207188 0.396406 0.358346 0.0380603) 188 375 2
(0.169566 0.176778 0.238439 0.415217) 189 377 1
(0.424984 0.137875 0.287508 0.149633) 265 379 1
(0.748503 0.103462 0.022286 0.125748) 266 527 2
(0.512741 0.243629 0.129903 0.113726) 267 532 2
(0.30405 0.347975 0.129248 0.218727) 268 534 2
(0.0875803 0.45621 0.31359 0.14262) 344 536 2
(0.230402 0.384799 0.0940808 0.290718) 345 538 2
(0.0450436 0.477478 0.359575 0.117903) 346 688 1
(0.0491177 0.0805528 0.394888 0.475441) 273 541 2
(0.0825201 0.361914 0.0968261 0.45874) 274 543 2
(0.014652 0.492674 0.0997811 0.392893) 274 545 1
(0.148167 0.0484885 0.425916 0.377428) 275 547 2
(0.143347 0.0513055 0.377021 0.428327) 276 550 1
(0.246946 0.0139905 0.362536 0.376527) 277 552 1
(0.363901 0.095681 0.318049 0.222368) 278 553 2
(0.452414 0.0258455 0.273793 0.247947) 279 407 1
(0.557759 0.07575 0.221121 0.145371) 280 409 1
(0.341322 0.312972 0.0163673 0.329339) 281 560 1
(0.291348 0.354326 0.306763 0.0475628) 282 562 2
(0.272502 0.363749 0.317611 0.0461379) 283 564 2
(0.27302 0.193553 0.169937 0.36349) 285 565 2
(0.275453 0.348094 0.0141797 0.362273) 286 567 2
(0.268559 0.36572 0.351497 0.0142238) 287 569 1
(0.194008 0.0515204 0.351475 0.402996) 287 572 1
(2.82496e-07 0.5 0.5 7.81298e-09) 300 7454 2
(2.82525e-07 0.5 0.5 7.49901e-09) 300 7454 2
(0.079102 0.460449 0.441003 0.0194455) 225 299 2
(2.82554e-07 0.5 0.161481 0.338519) 300 7454 2
(0.399913 0.300044 0.127709 0.172334) 225 299 2
(0.299574 0.350213 0.040115 0.310098) 225 299 2
(0.411113 0.294443 0.1024 0.192043) 225 299 2
(0.498643 0.250678 0.192188 0.0584902) 225 299 2
(0.335388 0.332306 0.29218 0.0401257) 225 447 1
(0.311263 0.344369 0.298865 0.045504) 225 447 1
(0.272359 0.363821 0.202796 0.161024) 225 447 1
(0.0209935 0.407086 0.489503 0.082417) 225 447 2
(0.491923 0.0642073 0.189831 0.254038) 226 447 2
(0.161357 0.0205412 0.39878 0.419322) 226 450 1
(0.188277 0.0708812 0.405861 0.33498) 302 452 1
(0.144068 0.303011 0.427966 0.124955) 303 454 1
(0.135708 0.291436 0.432146 0.14071) 304 456 1
(0.0559122 0.472044 0.249099 0.222945) 306 460 2
(0.134635 0.432682 0.275827 0.156856) 307 462 2
(0.110565 0.444717 0.177373 0.267344) 308 464 2
(0.352729 0.323635 0.167596 0.156039) 309 612 1
(0.560222 0.109285 0.110604 0.219889) 310 614 2
(0.341294 0.329353 0.305745 0.0236087) 311 619 2
(0.282349 0.202896 0.15593 0.358825) 312 621 1
(0.29928 0.194906 0.155454 0.35036) 313 623 1
(0.184835 0.381804 0.407582 0.0257782) 389 625 1
(0.481841 0.259079 0.056661 0.202418) 390 627 2
(0.415071 0.292464 0.272378 0.0200865) 391 629 2
(0.168512 0.0328417 0.415744 0.382902) 391 629 1
(0.188874 0.26435 0.141212 0.405563) 317 631 1
(0.0786216 0.460689 0.410601 0.0500883) 318 633 2
(0.276616 0.361692 0.00507763 0.356614) 319 635 2
(0.0991983 0.192856 0.450401 0.257545) 319 634 2
(0.0257848 0.12325 0.487108 0.363858) 320 636 2
(0.179632 0.0901991 0.319985 0.410184) 322 638 2
(0.383978 0.308011 0.0404359 0.267575) 323 643 2
(0.410079 0.141637 0.153324 0.294961) 324 645 1
(0.101626 0.0136017 0.435585 0.449187) 325 647 1
(0.301233 0.0619626 0.287421 0.349383) 326 649 1
(0.43934 0.28033 0.0327756 0.247554) 327 502 2
(0.361995 0.319002 0.0311063 0.287896) 328 650 1
(0.188904 0.405548 0.285323 0.120225) 328 652 1
(0.0416389 0.20883 0.27035 0.479181) 254 506 1
(0.0922463 0.259985 0.193891 0.453877) 255 508 1
(0.249378 0.197394 0.177917 0.375311) 256 510 1
(0.309832 0.101869 0.243215 0.345084) 257 512 1
(0.0402999 0.171687 0.308163 0.47985) 259 513 2
(0.299767 0.350117 0.0948569 0.25526) 260 518 2
(0.202598 0.398701 0.159339 0.239362) 261 520 2
(0.248835 0.351992 0.0235905 0.375583) 262 522 1
(0.450318 0.23323 0.0416107 0.274841) 263 524 1
(0.0306221 0.46647 0.0182192 0.484689) 264 526 1
(0.886275 0.0568625 0.0153368 0.0415258) 340 677 2
(0.55191 0.0817526 0.142293 0.224045) 341 676 2
(0.494046 0.252977 0.0321025 0.220874) 342 681 2
(0.0495952 0.475202 0.249824 0.225379) 343 683 2
(0.0866766 0.456662 0.0768361 0.379826) 419 685 2
(0.0377223 0.283173 0.481139 0.197965) 420 687 1
(0.0423256 0.152552 0.478837 0.326285) 421 689 1
(0.0543967 0.191843 0.280959 0.472802) 348 690 2
(0.294116 0.281627 0.0713153 0.352942) 349 692 2
(0.279619 0.318034 0.0421563 0.36019) 350 694 2
(0.258845 0.225716 0.370578 0.144862) 350 696 2
(0.157817 0.163 0.258092 0.421091) 351 699 1
(0.259559 0.15028 0.219941 0.370221) 352 701 1
(0.314164 0.205576 0.137342 0.342918) 353 703 1
(0.333726 0.333137 0.320337 0.0127998) 354 705 2
(0.478729 0.260636 0.0536566 0.206979) 355 707 2
(0.151485 0.348719 0.075539 0.424258) 356 706 2
(0.0415358 0.25752 0.479232 0.221712) 356 708 2
(0.156966 0.0366815 0.421517 0.384836) 357 710 2
(0.208318 0.057633 0.395841 0.338208) 358 712 2
(0.815782 0.0130435 0.0921088 0.0790654) 360 716 2
(0.838006 0.0809969 0.0118859 0.069111) 361 570 2
(0.531064 0.135635 0.0988332 0.234468) 362 718 2
(2.8264e-07 0.5 0.5 7.35232e-09) 375 7455 2
(2.82663e-07 0.5 0.5 7.04173e-09) 375 7455 2
(2.82607e-07 0.5 0.0415227 0.458477) 300 7454 2
(2.82686e-07 0.5 0.167269 0.332731) 375 7455 2
(0.393544 0.303228 0.21385 0.0893784) 300 448 2
(0.402649 0.298675 0.0374078 0.261268) 300 448 2
(0.449279 0.275361 0.207025 0.0683353) 300 448 2
(0.38339 0.308305 0.0811699 0.227135) 300 448 2
(0.522699 0.140048 0.238651 0.0986023) 300 448 1
(0.335039 0.33248 0.260446 0.0720341) 300 596 1
(0.34524 0.241705 0.32738 0.085675) 300 596 2
(0.106214 0.446893 0.410897 0.0359963) 376 599 2
(0.418459 0.0993824 0.191388 0.290771) 301 596 2
(0.253982 0.208729 0.164279 0.373009) 301 599 1
(0.0106031 0.494698 0.154729 0.339969) 377 601 2
(0.00164221 0.499179 0.119062 0.380117) 378 603 2
(0.118763 0.42609 0.0145281 0.440618) 304 605 1
(0.0620976 0.0960679 0.468951 0.372883) 305 606 2
(0.0529461 0.473527 0.468724 0.00480266) 381 757 1
(0.0166831 0.00375512 0.491658 0.487903) 382 611 1
(0.0626583 0.468671 0.430111 0.0385597) 384 615 2
(0.109787 0.445107 0.326736 0.118371) 384 763 1
(0.373715 0.0973567 0.215786 0.313143) 386 765 2
(0.310306 0.344847 0.0876166 0.257231) 387 770 2
(0.0738856 0.463057 0.257747 0.20531) 463 772 2
(0.294032 0.352984 0.293744 0.0592404) 464 774 2
(0.012785 0.493607 0.26095 0.232657) 465 922 1
(0.343592 0.328204 0.101147 0.227058) 465 924 1
(0.47017 0.264915 0.221956 0.042959) 466 926 1
(0.488705 0.0284588 0.255647 0.227188) 467 780 1
(0.510488 0.0745728 0.244756 0.170183) 468 782 1
(0.246857 0.365993 0.376571 0.0105787) 469 784 1
(0.46321 0.260387 0.0080086 0.268395) 395 783 2
(0.451287 0.260944 0.0134126 0.274357) 396 785 2
(0.624025 0.187987 0.105115 0.0828726) 397 787 1
(0.835462 0.036806 0.0822691 0.0454631) 398 643 1
(0.063694 0.370117 0.468153 0.0980364) 399 793 2
(0.255261 0.372369 0.255469 0.1169) 401 798 2
(0.304216 0.286053 0.0618392 0.347892) 402 800 1
(0.897017 0.0102514 0.0412399 0.0514913) 403 802 1
(0.521108 0.217821 0.239446 0.0216251) 404 655 1
(0.403733 0.298133 0.230648 0.0674858) 405 657 2
(0.197551 0.401224 0.342127 0.059097) 405 805 1
(0.280665 0.354412 0.359667 0.00525575) 406 659 1
(0.214363 0.059071 0.333748 0.392819) 332 658 2
(0.057044 0.139996 0.471478 0.331482) 332 660 2
(0.0716603 0.126438 0.46417 0.337732) 333 662 2
(0.216016 0.0698871 0.322105 0.391992) 335 664 2
(0.41003 0.294985 0.150297 0.144688) 336 669 2
(0.524458 0.237771 0.087686 0.150085) 337 671 2
(0.627792 0.186104 0.0270799 0.159024) 338 673 2
(0.257844 0.371078 0.240151 0.130927) 339 675 2
(0.189125 0.405438 0.367415 0.0380226) 415 823 1
(0.145287 0.34651 0.0808466 0.427356) 416 825 2
(0.260998 0.0976878 0.271813 0.369501) 417 827 2
(0.200742 0.332183 0.0674459 0.399629) 418 832 1
(0.0379644 0.254704 0.481018 0.226314) 494 834 1
(0.312355 0.0753603 0.268462 0.343823) 420 836 1
(0.39199 0.0273285 0.276677 0.304005) 421 838 1
(0.0358575 0.356827 0.482071 0.125244) 422 839 2
(0.121226 0.231746 0.439387 0.207641) 423 841 2
(0.403801 0.0933678 0.2981 0.204732) 424 843 2
(0.0726349 0.451203 0.0124798 0.463683) 425 846 1
(0.0739891 0.463005 0.240588 0.222418) 426 848 2
(0.199654 0.400173 0.0604604 0.339712) 427 850 2
(0.187366 0.406317 0.0290927 0.377224) 428 852 2
(0.200612 0.399694 0.0253275 0.374367) 429 854 2
(0.145149 0.0495784 0.377847 0.427425) 430 853 2
(0.061552 0.469224 0.272337 0.196887) 431 855 1
(0.27893 0.360535 0.176702 0.183833) 431 857 1
(0.269203 0.106634 0.258765 0.365399) 432 860 1
(0.247828 0.206308 0.169778 0.376086) 433 862 1
(0.216211 0.255757 0.136138 0.391895) 434 864 1
(0.113823 0.295655 0.147433 0.443088) 435 866 1
(0.229654 0.203973 0.181199 0.385173) 436 868 1
(2.8264e-07 0.5 0.5 8.9396e-09) 450 7456 2
(2.82663e-07 0.5 0.5 8.6098e-09) 450 7456 2
(1.42319e-07 0.0707282 0.429272 0.5) 300 7454 1
(2.82686e-07 0.5 0.137766 0.362234) 450 7456 2
(0.424128 0.287936 0.00906406 0.278872) 375 597 2
(0.335774 0.332113 0.205776 0.126337) 375 597 2
(0.446435 0.276782 0.0294889 0.247294) 375 597 2
(0.2592 0.3704 0.173689 0.196711) 375 597 2
(0.417903 0.291049 0.0162211 0.274828) 375 597 2
(0.414649 0.292676 0.232786 0.0598895) 375 745 1
(0.292076 0.340537 0.353962 0.0134254) 375 745 2
(0.0766357 0.0532353 0.408447 0.461682) 376 745 2
(0.35222 0.32389 0.162523 0.161367) 451 748 2
(0.0134835 0.493258 0.402172 0.0910859) 452 750 2
(0.0973363 0.451332 0.3106 0.140732) 453 752 2
(0.0319498 0.484025 0.278333 0.205692) 454 754 2
(0.201059 0.39947 0.202663 0.196807) 380 756 2
(0.324715 0.337643 0.164679 0.172963) 381 758 2
(0.147291 0.426354 0.173364 0.25299) 457 906 1
(0.024477 0.0859372 0.487761 0.401824) 457 760 1
(0.317085 0.0523398 0.289118 0.341457) 383 762 1
(0.0169641 0.31419 0.177328 0.491518) 384 764 1
(0.415477 0.292262 0.0481772 0.244084) 460 766 2
(0.0982358 0.0817166 0.369165 0.450882) 461 914 2
(0.0156907 0.492155 0.470951 0.0212032) 536 1065 1
(0.238625 0.0294229 0.380687 0.351265) 537 919 1
(0.108576 0.445712 0.389561 0.0561515) 538 1069 1
(0.481122 0.259439 0.186161 0.0732785) 540 925 2
(0.522254 0.149575 0.238873 0.0892982) 541 927 1
(0.386929 0.0593956 0.306535 0.24714) 542 929 1
(0.26798 0.36601 0.254258 0.111752) 544 933 2
(0.0395503 0.480225 0.311372 0.168853) 470 935 2
(0.32003 0.339985 0.141561 0.198424) 471 934 1
(0.0212103 0.489395 0.25392 0.235475) 472 936 1
(0.336344 0.331828 0.29397 0.0378582) 472 938 1
(0.27906 0.112754 0.36047 0.247716) 473 792 1
(0.232118 0.383941 0.291426 0.0925144) 474 942 1
(0.2742 0.192709 0.170191 0.3629) 475 945 1
(0.291289 0.320503 0.0338527 0.354356) 476 947 1
(0.268106 0.365947 0.350747 0.0152003) 477 949 2
(0.296194 0.292173 0.0597297 0.351903) 478 951 1
(0.0795991 0.4602 0.268515 0.191686) 479 952 1
(0.120647 0.439677 0.318322 0.121354) 480 954 1
(0.246852 0.376574 0.35745 0.0191245) 481 956 1
(0.248211 0.242109 0.133786 0.375895) 407 810 1
(0.249941 0.373928 0.0011014 0.375029) 408 812 1
(0.289867 0.355067 0.314938 0.0401287) 409 814 2
(0.698999 0.0218874 0.1505 0.128613) 410 815 2
(0.403844 0.0334621 0.264616 0.298078) 411 818 1
(0.172317 0.268895 0.144946 0.413841) 412 820 1
(0.552301 0.22385 0.134605 0.0892445) 413 822 2
(0.415862 0.292069 0.0143647 0.277704) 414 824 2
(0.0150479 0.492476 0.440191 0.0522848) 489 972 1
(0.17557 0.412215 0.398581 0.0136339) 490 974 1
(0.0942018 0.309059 0.452899 0.14384) 491 976 2
(0.294196 0.336005 0.0168969 0.352902) 493 981 1
(0.218289 0.147719 0.243137 0.390856) 494 983 1
(0.193067 0.179368 0.224098 0.403466) 495 985 1
(0.104697 0.140287 0.307364 0.447651) 496 987 1
(0.0327679 0.140764 0.342852 0.483616) 497 989 1
(0.241855 0.215747 0.379073 0.163326) 573 991 1
(0.301743 0.255498 0.349129 0.0936305) 574 993 1
(0.0237712 0.488114 0.314645 0.17347) 500 995 2
(0.136595 0.431702 0.0445095 0.387193) 501 997 2
(0.069683 0.0679186 0.39724 0.465159) 501 997 1
(0.0522882 0.047888 0.473856 0.425968) 502 998 2
(0.21074 0.39463 0.0926935 0.301937) 504 1003 2
(0.262758 0.368621 0.147836 0.220785) 505 1005 2
(0.40722 0.29639 0.112513 0.183877) 506 1004 1
(0.0899346 0.455033 0.161726 0.293307) 506 1006 1
(0.0618716 0.0595591 0.469064 0.409505) 507 1008 2
(0.0981783 0.0635624 0.450911 0.387348) 508 1010 2
(0.222465 0.014728 0.374039 0.388767) 509 1013 1
(0.213712 0.0178019 0.375342 0.393144) 510 1015 1
(0.324508 0.0716195 0.337746 0.266126) 511 1016 2
(2.82496e-07 0.5 0.5 9.56351e-09) 525 7457 2
(2.82525e-07 0.5 0.5 9.21866e-09) 525 7457 2
(2.82708e-07 0.5 0.0415145 0.458485) 450 7456 2
(2.82554e-07 0.5 0.0999984 0.400001) 525 7457 2
(0.479664 0.260168 0.0830242 0.177144) 450 746 2
(0.336908 0.331546 0.0338463 0.297699) 450 746 2
(0.722462 0.0193092 0.11946 0.138769) 375 7455 1
(0.321766 0.326882 0.339117 0.012235) 450 746 1
(0.482594 0.258703 0.197742 0.0609611) 450 746 2
(0.457515 0.271242 0.254278 0.0169648) 450 894 1
(0.580816 0.209592 0.157712 0.0518802) 450 894 1
(0.315317 0.19424 0.342341 0.148101) 450 894 2
(0.0181194 0.49094 0.456575 0.0343655) 526 897 2
(0.215252 0.392374 0.00107416 0.3913) 452 899 2
(0.190985 0.404508 0.234119 0.170389) 453 901 2
(0.10869 0.445655 0.311876 0.133779) 454 903 2
(0.44903 0.0568959 0.218589 0.275485) 529 1052 1
(0.502905 0.248548 0.229692 0.0188551) 530 1054 2
(0.453658 0.273171 0.0538868 0.219284) 531 1056 2
(0.0174011 0.491299 0.0513748 0.439925) 532 909 2
(0.136084 0.431958 0.215202 0.216756) 533 911 2
(0.158155 0.420923 0.394281 0.026642) 533 1059 1
(0.267302 0.351532 0.366349 0.0148173) 534 913 1
(0.20747 0.189845 0.396265 0.20642) 534 1061 2
(0.152015 0.423992 0.423564 0.000427991) 535 1064 2
(0.172714 0.301979 0.111664 0.413643) 536 1066 1
(0.0714494 0.464275 0.21135 0.252925) 538 1070 2
(0.00589862 0.0590531 0.497051 0.437998) 614 1072 1
(0.0998431 0.450078 0.268562 0.181516) 616 1076 2
(0.158675 0.420663 0.195913 0.22475) 617 1078 2
(0.0537386 0.473131 0.0978629 0.375268) 618 1080 2
(0.0479449 0.476028 0.408165 0.0678625) 544 1082 2
(0.157071 0.421465 0.183866 0.237599) 545 1084 2
(0.173838 0.0720309 0.34105 0.413081) 546 1083 2
(0.389815 0.305093 0.0483149 0.256778) 547 1085 1
(0.301064 0.349468 0.27678 0.0726882) 548 941 2
(0.355882 0.230125 0.322059 0.0919341) 548 1089 2
(0.387245 0.270637 0.0357411 0.306378) 549 1092 1
(0.379183 0.291941 0.0184675 0.310408) 550 1094 1
(0.350673 0.0510266 0.324664 0.273637) 551 1095 2
(0.666904 0.0750556 0.0914925 0.166548) 553 1100 1
(0.180976 0.409512 0.315507 0.0940047) 554 1101 1
(0.362181 0.31891 0.0127459 0.306164) 556 1103 1
(0.0513817 0.474309 0.29631 0.177999) 482 959 2
(0.209763 0.395119 0.119125 0.275993) 483 961 2
(0.257309 0.371345 0.164627 0.206718) 484 963 2
(0.481525 0.0674279 0.19181 0.259238) 485 962 2
(0.26552 0.189826 0.177414 0.36724) 486 964 2
(0.0470414 0.142792 0.476479 0.333688) 486 966 2
(0.963967 0.0155701 0.0180164 0.00244633) 562 1117 2
(0.428717 0.285642 0.0659989 0.219643) 563 1120 2
(0.0364886 0.222571 0.259185 0.481756) 564 1119 2
(0.184487 0.159244 0.407756 0.248512) 564 973 1
(0.274238 0.336451 0.362881 0.0264295) 565 975 1
(0.242723 0.378638 0.186037 0.192601) 566 977 2
(0.297359 0.35132 0.197431 0.15389) 567 979 2
(0.305826 0.347087 0.0486348 0.298452) 568 1130 2
(0.309117 0.345441 0.0919365 0.253505) 569 1132 2
(0.268568 0.365716 0.155382 0.210334) 570 1134 2
(0.227476 0.386262 0.228585 0.157677) 571 1136 2
(0.186646 0.406677 0.184017 0.222659) 647 1138 2
(0.244877 0.377561 0.131349 0.246213) 648 1140 2
(0.0388753 0.126499 0.480562 0.354063) 649 1142 1
(0.487513 0.0356073 0.256243 0.220636) 575 1143 2
(0.0790946 0.447206 0.0132466 0.460453) 576 1146 1
(0.0909393 0.395144 0.0593866 0.45453) 577 1148 1
(0.316721 0.0668584 0.274781 0.341639) 578 1150 1
(0.0857616 0.0713606 0.385759 0.457119) 580 1151 2
(0.253468 0.373266 0.310111 0.0631548) 581 1156 2
(0.237174 0.310496 0.0709169 0.381413) 582 1158 1
(0.184874 0.315321 0.0922422 0.407563) 583 1160 1
(0.215272 0.392364 0.366574 0.0257899) 584 1162 2
(0.120064 0.439968 0.400633 0.0393347) 585 1164 2
(0.42863 0.285685 0.146497 0.139189) 586 1166 2
(0.3096 0.3452 0.195219 0.149981) 587 1165 1
(2.82481e-07 0.5 0.5 8.11782e-09) 600 7458 2
(2.82511e-07 0.5 0.5 7.82175e-09) 600 7458 2
(2.82582e-07 0.5 0.171396 0.328603) 525 7457 2
(2.8254e-07 0.5 0.0291417 0.470858) 600 7458 2
(0.348963 0.325519 0.183815 0.141704) 525 895 2
(0.506621 0.24669 0.151043 0.0956469) 525 895 2
(0.216298 0.391851 0.124895 0.266956) 525 895 2
(0.409651 0.261856 0.295175 0.0333188) 525 895 1
(0.457734 0.271133 0.196944 0.0741888) 525 895 2
(0.540866 0.229567 0.202585 0.0269818) 525 1043 1
(0.443478 0.278261 0.135708 0.142553) 525 1043 1