/*--------------------------------*- C++ -*----------------------------------*\
  =========                 |
  \\      /  F ield         | OpenFOAM: The Open Source CFD Toolbox
   \\    /   O peration     | Website:  https://openfoam.org
    \\  /    A nd           | Version:  12
     \\/     M anipulation  |
\*---------------------------------------------------------------------------*/
FoamFile
{
    format      ascii;
    class       vectorField;
    location    "0.25/lagrangian/cloud";
    object      U;
}
// * * * * * * * * * * * * * * * * * * * * * * * * * * * * * * * * * * * * * //


4343
(
(-7.19715e-11 -5.6651e-05 0)
(-7.08016e-11 -5.66556e-05 0)
(-7.40112e-05 -0.0120375 0)
(-7.74457e-06 -0.01171 0)
(-0.000144538 -0.0128523 0)
(-0.00149825 -0.0130488 0)
(-0.00167332 -0.0159209 0)
(-0.0035589 -0.00897827 0)
(0.000437924 -0.0166762 0)
(0.00106404 -0.0161229 0)
(0.00125897 -0.0284766 0)
(0.000709587 -0.0273003 0)
(-0.000158764 -0.0360465 0)
(-0.000667265 -0.0322581 0)
(-0.000259591 -0.03005 0)
(0.000612049 -0.0289976 0)
(-4.08691e-05 -0.0257196 0)
(-0.000454293 -0.028422 0)
(-0.000362729 -0.0254367 0)
(0.00153158 -0.0267961 0)
(0.00118761 -0.0278483 0)
(0.00188203 -0.0285364 0)
(0.000274436 -0.0293117 0)
(0.000831388 -0.027898 0)
(-0.000450602 -0.0312935 0)
(-0.000555545 -0.0251276 0)
(-0.000307442 -0.0269509 0)
(-0.00163259 -0.0278296 0)
(0.000740869 -0.0276043 0)
(-5.49709e-05 -0.0292109 0)
(-0.000305315 -0.0272785 0)
(6.67048e-05 -0.0250602 0)
(-0.00017937 -0.0261955 0)
(0.000302454 -0.0205555 0)
(0.00124164 -0.02743 0)
(0.000508703 -0.0224525 0)
(0.000521254 -0.0266719 0)
(-0.000875006 -0.0245257 0)
(-0.00299476 -0.0282986 0)
(-0.000689191 -0.0275588 0)
(4.74846e-05 -0.0243648 0)
(0.00102206 -0.0259161 0)
(0.0014179 -0.0273306 0)
(0.000150922 -0.0279202 0)
(-0.000528229 -0.028202 0)
(-0.00139179 -0.0274954 0)
(-0.000269232 -0.0289608 0)
(-0.000409641 -0.0196822 0)
(-0.000307425 -0.0160425 0)
(-7.20165e-05 -0.019521 0)
(-0.000399185 -0.0186808 0)
(0.00129007 -0.0158636 0)
(0.000754513 -0.0175596 0)
(0.0032073 -0.0209463 0)
(0.00392815 -0.0158076 0)
(0.00196086 -0.0215999 0)
(0.000518279 -0.0249303 0)
(0.00316471 -0.0281005 0)
(0.000582929 -0.0298393 0)
(-0.000145803 -0.0302441 0)
(0.000546882 -0.0319674 0)
(-0.00113952 -0.0304328 0)
(-0.000677973 -0.0284299 0)
(-0.00128171 -0.0229786 0)
(3.98676e-05 -0.0217041 0)
(-0.00137043 -0.0220562 0)
(0.00116443 -0.022363 0)
(0.000620944 -0.0195333 0)
(0.00075917 -0.0241018 0)
(0.00213414 -0.0284696 0)
(0.000200587 -0.0308367 0)
(0.00212953 -0.0286353 0)
(-0.000267854 -0.0307699 0)
(0.00209864 -0.0278827 0)
(0.00364425 -0.0290843 0)
(-3.609e-11 -5.66513e-05 0)
(-3.55034e-11 -5.6656e-05 0)
(0.00792117 -0.016867 0)
(5.09464e-06 -5.98844e-05 0)
(-0.013955 -0.00919573 0)
(-0.00109179 -0.0260461 0)
(-0.00200632 -0.0317693 0)
(-0.00987006 -0.0229039 0)
(-0.0110893 -0.0293201 0)
(-0.0128821 -0.0283421 0)
(-0.00737694 -0.0304453 0)
(0.000931141 -0.0421753 0)
(0.000858183 -0.0338097 0)
(0.0016072 -0.0371682 0)
(-0.000190767 -0.0376024 0)
(-0.000413588 -0.0409457 0)
(-0.00158554 -0.037295 0)
(-0.00193071 -0.0395368 0)
(-0.00181008 -0.0364026 0)
(-0.00129813 -0.0288699 0)
(-0.00088932 -0.0308412 0)
(-0.004732 -0.0318406 0)
(0.00375671 -0.0359977 0)
(0.00337707 -0.0387804 0)
(0.00146416 -0.0371998 0)
(-0.00128803 -0.0333413 0)
(-0.00114198 -0.0299353 0)
(-0.000493694 -0.0295342 0)
(-0.000332079 -0.0306439 0)
(0.000270041 -0.0330021 0)
(0.000446614 -0.0308677 0)
(0.0001231 -0.0331014 0)
(0.00109316 -0.0368603 0)
(-0.000975356 -0.0356366 0)
(-0.000619831 -0.0420618 0)
(-0.00311078 -0.042498 0)
(-0.00126029 -0.0342453 0)
(0.00121992 -0.0320832 0)
(-0.00263564 -0.0260172 0)
(-0.00431554 -0.0292707 0)
(-0.000662427 -0.0362912 0)
(-0.000505302 -0.0417377 0)
(-0.000405445 -0.042685 0)
(-0.00108314 -0.0393739 0)
(-0.00202577 -0.0391596 0)
(-0.000410615 -0.0294748 0)
(-0.00113782 -0.0298834 0)
(0.000302085 -0.0261258 0)
(-0.0022239 -0.0288231 0)
(-0.00324959 -0.0261739 0)
(-0.00336885 -0.0245596 0)
(-0.00105715 -0.0303979 0)
(-0.00058692 -0.0293794 0)
(-0.00100029 -0.0295031 0)
(0.0021174 -0.0301103 0)
(0.0022361 -0.0293476 0)
(0.00764455 -0.0340796 0)
(0.00300612 -0.0221171 0)
(0.00182648 -0.0234314 0)
(0.00140793 -0.0278845 0)
(0.000257379 -0.0317932 0)
(-0.000366178 -0.0314557 0)
(0.00087919 -0.0351985 0)
(0.00238255 -0.0404194 0)
(-0.0013803 -0.0436984 0)
(-0.00195777 -0.0377968 0)
(-0.000877458 -0.037888 0)
(-0.00180675 -0.0403124 0)
(-0.00194765 -0.0407581 0)
(0.00523429 -0.0345647 0)
(0.00391842 -0.0373673 0)
(0.0021452 -0.030995 0)
(0.00323015 -0.0311507 0)
(0.00481057 -0.0394237 0)
(0.00705149 -0.0399025 0)
(-3.99493e-11 -5.66509e-05 0)
(-3.92998e-11 -5.66556e-05 0)
(-0.0010696 -0.00361515 0)
(-3.86607e-11 -5.66602e-05 0)
(-0.000231637 -0.0142243 0)
(0.00361988 -0.0110701 0)
(-0.00448085 -0.0174721 0)
(0.00376658 -0.0150342 0)
(-0.0115228 -0.0125806 0)
(-0.00283767 -0.0251647 0)
(-0.0109982 -0.025989 0)
(-0.0183492 -0.0320885 0)
(-0.011055 -0.0374287 0)
(-0.00223105 -0.0516443 0)
(-0.00126468 -0.0444241 0)
(-0.00311762 -0.0474846 0)
(-0.00196065 -0.0431113 0)
(-0.000879077 -0.0434808 0)
(-0.00272968 -0.043991 0)
(-0.00390243 -0.0448627 0)
(-0.00125528 -0.0479561 0)
(-0.000478602 -0.0380198 0)
(-0.00034784 -0.0354209 0)
(0.00156459 -0.0437451 0)
(0.00145609 -0.0416932 0)
(0.000829725 -0.0393095 0)
(-0.00118723 -0.04258 0)
(-0.00219754 -0.0445529 0)
(-0.00189597 -0.0418807 0)
(-0.00137406 -0.0403298 0)
(-0.00369055 -0.042881 0)
(-0.000165348 -0.0447461 0)
(-0.00268733 -0.0486594 0)
(0.000165138 -0.050973 0)
(0.000400172 -0.0528438 0)
(0.00229359 -0.0506023 0)
(-0.00177683 -0.0488405 0)
(-0.000446417 -0.0465941 0)
(-0.000520578 -0.0477226 0)
(-0.000696388 -0.0460203 0)
(-0.000972233 -0.0491725 0)
(-0.000585249 -0.0490461 0)
(-0.00131717 -0.0519425 0)
(-0.00307911 -0.049432 0)
(-0.00261274 -0.046172 0)
(-0.00131676 -0.0408459 0)
(-0.00233988 -0.0415204 0)
(0.000144817 -0.0434057 0)
(0.000294553 -0.0386385 0)
(-0.000609282 -0.0359693 0)
(-0.00194359 -0.0394892 0)
(-0.00581869 -0.0407467 0)
(-0.00354421 -0.0457107 0)
(-0.00663807 -0.0449749 0)
(-0.00775681 -0.0451846 0)
(-0.0040819 -0.0458651 0)
(-0.00581301 -0.0459454 0)
(-0.00157542 -0.0443514 0)
(0.00949892 -0.0343945 0)
(0.0088128 -0.0377958 0)
(0.00743375 -0.0335451 0)
(0.00578168 -0.0374616 0)
(0.00538643 -0.0461096 0)
(0.00399734 -0.0470759 0)
(0.00369875 -0.0466912 0)
(0.00208977 -0.0458986 0)
(-0.0011855 -0.0450012 0)
(-0.00237707 -0.0432 0)
(-0.000862798 -0.0470313 0)
(-0.00117447 -0.0524527 0)
(-0.00104876 -0.0520473 0)
(-0.00151215 -0.0471909 0)
(0.00248497 -0.0456012 0)
(0.00411978 -0.0463019 0)
(0.00281294 -0.04752 0)
(-3.96849e-11 -5.66248e-05 0)
(-3.89614e-11 -5.66308e-05 0)
(-0.00134908 -0.00880307 0)
(-3.82511e-11 -5.66367e-05 0)
(-0.00011653 -0.0105597 0)
(-0.00258007 -0.0131753 0)
(0.000231479 -0.0115183 0)
(-0.00186432 -0.0136532 0)
(-0.0039168 -0.0126677 0)
(-0.00844218 -0.026697 0)
(-0.0093063 -0.0148341 0)
(-0.0111517 -0.0276536 0)
(-0.0145995 -0.033761 0)
(-0.0120896 -0.0491073 0)
(-0.00892099 -0.0488369 0)
(-0.00268569 -0.0510255 0)
(-0.00166897 -0.0483582 0)
(-0.00125882 -0.0477731 0)
(-0.00165228 -0.0464668 0)
(-0.00127521 -0.0459329 0)
(-0.00143699 -0.0461159 0)
(0.000361009 -0.0473791 0)
(-0.00207207 -0.0482168 0)
(-0.00251334 -0.0464315 0)
(0.00101247 -0.0423821 0)
(0.00130507 -0.0410921 0)
(0.000596119 -0.0446483 0)
(0.00143446 -0.0439436 0)
(0.00264998 -0.0435619 0)
(0.00480652 -0.0485077 0)
(0.00109933 -0.0512808 0)
(0.000309404 -0.0524667 0)
(0.00104638 -0.0519347 0)
(0.00110417 -0.0520688 0)
(0.00136554 -0.0551178 0)
(0.00112741 -0.0534733 0)
(0.000870457 -0.0551766 0)
(-0.00197917 -0.0543918 0)
(-0.00208889 -0.0523007 0)
(-0.000813264 -0.0534243 0)
(-0.0015721 -0.0545281 0)
(-0.00162101 -0.0548766 0)
(0.00131821 -0.0539735 0)
(0.00111231 -0.0540285 0)
(-0.000393285 -0.0558703 0)
(-0.000774277 -0.0528063 0)
(-0.00347731 -0.0546436 0)
(-0.00256567 -0.0515658 0)
(-0.00125956 -0.0502619 0)
(-0.000528674 -0.0497499 0)
(-0.00195145 -0.0508534 0)
(-0.00162214 -0.0478435 0)
(-0.00340198 -0.04806 0)
(-0.00376403 -0.048433 0)
(-0.00470937 -0.0504986 0)
(-0.0057369 -0.0506909 0)
(-0.0048324 -0.0510287 0)
(-0.00562093 -0.0519673 0)
(-0.000746974 -0.0532597 0)
(0.00645663 -0.0499548 0)
(0.0110227 -0.045896 0)
(0.00756749 -0.0461411 0)
(0.00753266 -0.0487904 0)
(0.00489805 -0.0473123 0)
(0.00146759 -0.0476396 0)
(0.000368953 -0.045817 0)
(-0.00111002 -0.045851 0)
(-0.00288691 -0.0445813 0)
(0.000505066 -0.0501514 0)
(-0.00102653 -0.0516176 0)
(-0.000727091 -0.0523981 0)
(0.00101146 -0.0550885 0)
(0.00165419 -0.0516899 0)
(0.00297962 -0.0477725 0)
(0.00504858 -0.0469069 0)
(-4.12765e-11 -5.66285e-05 0)
(-4.05243e-11 -5.66344e-05 0)
(-0.00105253 -0.000962073 0)
(-3.97857e-11 -5.66402e-05 0)
(-0.000572973 -0.0129158 0)
(0.000767476 -0.00853756 0)
(-0.00208035 -0.0126156 0)
(-0.00103607 -0.0103377 0)
(-0.00437111 -0.0248298 0)
(-0.00531129 -0.0106504 0)
(-0.00803775 -0.0129545 0)
(-0.00802796 -0.00718197 0)
(-0.00586826 -0.0273627 0)
(-0.0058302 -0.0389935 0)
(-0.00714775 -0.0521427 0)
(-0.00548139 -0.0470172 0)
(-0.00333501 -0.0477543 0)
(-0.000361494 -0.0476626 0)
(-0.000430662 -0.0489256 0)
(-0.00125169 -0.0478168 0)
(-0.00212051 -0.04906 0)
(-0.00205196 -0.048028 0)
(-0.000339246 -0.0482435 0)
(-0.000626154 -0.047841 0)
(0.000712794 -0.0472492 0)
(0.00155664 -0.046222 0)
(0.00164269 -0.0445247 0)
(0.00302152 -0.0421199 0)
(0.0026465 -0.0428267 0)
(0.00362542 -0.0457204 0)
(0.000141508 -0.0472093 0)
(0.00222204 -0.048088 0)
(0.00303643 -0.051727 0)
(0.00318531 -0.0534613 0)
(0.00281021 -0.052607 0)
(0.00150725 -0.0528429 0)
(-0.00110105 -0.0545623 0)
(-0.00203357 -0.0540383 0)
(-0.000952347 -0.050427 0)
(-0.00301616 -0.0517768 0)
(-0.00194277 -0.0522127 0)
(0.000799121 -0.0495649 0)
(0.0013599 -0.0511212 0)
(0.000572211 -0.0528947 0)
(0.00156775 -0.0523838 0)
(0.000234949 -0.0566272 0)
(-0.00243483 -0.0553904 0)
(-0.00239596 -0.0579265 0)
(-0.0033181 -0.0576974 0)
(0.000455009 -0.053198 0)
(-0.00131502 -0.0544774 0)
(-0.00236251 -0.0509733 0)
(-0.00333638 -0.0487533 0)
(-0.00256557 -0.0515644 0)
(6.2149e-05 -0.0510053 0)
(-0.00464706 -0.0521911 0)
(-0.0023573 -0.0520655 0)
(-0.00213483 -0.0530022 0)
(0.000951816 -0.0530834 0)
(0.00595009 -0.0553324 0)
(0.00875603 -0.0537986 0)
(0.00915436 -0.0496219 0)
(0.00891738 -0.0482289 0)
(0.00363516 -0.0489603 0)
(0.00136024 -0.0490974 0)
(0.000617627 -0.0487739 0)
(-0.000129687 -0.0497342 0)
(0.000148194 -0.0504936 0)
(-0.000747131 -0.04957 0)
(-0.000817851 -0.052185 0)
(-0.000606388 -0.0528748 0)
(-0.000204929 -0.0543569 0)
(0.00146914 -0.0482037 0)
(0.00117453 -0.0511012 0)
(0.00273574 -0.0532839 0)
(-5.08549e-11 -5.6651e-05 0)
(-5.00283e-11 -5.66556e-05 0)
(-3.90624e-11 -5.66514e-05 0)
(-4.92151e-11 -5.66602e-05 0)
(0.000423471 -0.0109228 0)
(0.00444108 -0.011134 0)
(-0.00128153 -0.0126363 0)
(-0.00834415 -0.0108856 0)
(-0.00290182 -0.0128108 0)
(-0.00778657 -0.0114737 0)
(-0.00982141 -0.012483 0)
(-0.00718815 0.00205761 0)
(-0.0147537 -0.0318305 0)
(-0.0119737 -0.0356765 0)
(-0.00590413 -0.0501061 0)
(-0.00374087 -0.0495815 0)
(-0.00370591 -0.0478978 0)
(-0.00175392 -0.0489063 0)
(-0.00191755 -0.0513219 0)
(-0.0011235 -0.0485293 0)
(-0.00253735 -0.0473421 0)
(-0.00425425 -0.047304 0)
(-0.00157378 -0.049096 0)
(-0.00131151 -0.0502598 0)
(-0.0002096 -0.0511952 0)
(-0.00136743 -0.0507939 0)
(-0.00088073 -0.0518573 0)
(0.00085297 -0.049216 0)
(0.00249762 -0.0467505 0)
(0.00395941 -0.0473176 0)
(0.00295536 -0.04808 0)
(0.0052938 -0.0490679 0)
(0.00313781 -0.0519717 0)
(0.00351792 -0.0538608 0)
(0.00186065 -0.052856 0)
(-1.71191e-05 -0.0509458 0)
(-0.000510755 -0.0513416 0)
(-0.000357925 -0.0509868 0)
(-9.04336e-05 -0.0514813 0)
(0.000424614 -0.0484741 0)
(0.00174549 -0.0486979 0)
(0.00191221 -0.0456556 0)
(0.00210068 -0.0435843 0)
(0.000667841 -0.0436907 0)
(0.000528733 -0.0458881 0)
(0.00085085 -0.0494415 0)
(0.000133253 -0.0542272 0)
(0.000416332 -0.0559331 0)
(-0.00102423 -0.057224 0)
(0.00116809 -0.0554723 0)
(-0.00110013 -0.0529905 0)
(-0.00426215 -0.0488197 0)
(-0.00516173 -0.0481285 0)
(-0.00210779 -0.0482552 0)
(-0.00102106 -0.0525133 0)
(-0.00383253 -0.0531729 0)
(-0.00196749 -0.0522642 0)
(-5.48315e-05 -0.0531247 0)
(0.00288971 -0.0532202 0)
(0.00591662 -0.0567356 0)
(0.0066949 -0.0541346 0)
(0.00514442 -0.0468731 0)
(0.00446012 -0.0483758 0)
(0.00291869 -0.0488767 0)
(0.00184699 -0.0499675 0)
(0.000346636 -0.0519143 0)
(0.000246632 -0.0533206 0)
(-5.76748e-05 -0.0531898 0)
(-0.00102846 -0.0514486 0)
(-0.00125713 -0.0512634 0)
(-0.000379879 -0.0532663 0)
(-0.00057364 -0.0548848 0)
(-0.000540192 -0.0548747 0)
(-0.000695599 -0.0565413 0)
(9.64224e-05 -0.0554262 0)
(-7.06505e-11 -5.6651e-05 0)
(-6.9502e-11 -5.66556e-05 0)
(1.15994e-05 -2.85437e-05 0)
(-6.83722e-11 -5.66602e-05 0)
(-0.00651982 -0.0158226 0)
(-0.00034309 -0.00735654 0)
(-0.00631035 -0.0151037 0)
(0.00138174 -0.00464461 0)
(-0.00572659 -0.0124799 0)
(-0.00504035 -0.0117172 0)
(-0.010313 -0.0247171 0)
(-0.0118018 -0.0259526 0)
(-0.00478211 -0.0287055 0)
(-0.00448721 -0.0447412 0)
(-0.00363942 -0.0463186 0)
(-0.00241702 -0.0453846 0)
(-0.00323318 -0.0494125 0)
(-0.00162761 -0.050149 0)
(-0.00300562 -0.0479032 0)
(-0.00235256 -0.0479265 0)
(-0.00317881 -0.045856 0)
(-0.00455099 -0.0472877 0)
(-0.00266194 -0.0473272 0)
(-0.00064663 -0.0525097 0)
(-0.00069739 -0.0549021 0)
(6.03416e-05 -0.0556518 0)
(-0.00204075 -0.0603782 0)
(-0.00396274 -0.0601449 0)
(0.0021231 -0.0564305 0)
(0.0026605 -0.0528749 0)
(0.00365248 -0.0496769 0)
(0.00219637 -0.0520265 0)
(0.000562879 -0.0533095 0)
(0.000735182 -0.0507806 0)
(0.00105697 -0.0480785 0)
(0.000426508 -0.0480609 0)
(0.000508497 -0.0491668 0)
(0.00116192 -0.0500889 0)
(-0.00029058 -0.0513227 0)
(-0.000594759 -0.052289 0)
(-0.000424044 -0.0527646 0)
(-0.00114652 -0.0517886 0)
(-0.000250049 -0.0468028 0)
(0.000372273 -0.0429131 0)
(1.94081e-05 -0.0457655 0)
(0.000683834 -0.047576 0)
(0.00295039 -0.0510333 0)
(0.000251739 -0.0491588 0)
(-0.00475964 -0.0512941 0)
(-0.00554402 -0.0476044 0)
(-0.00495383 -0.0469212 0)
(-0.00599463 -0.0486732 0)
(-0.00350536 -0.0489362 0)
(-0.00130917 -0.0508663 0)
(-0.000632131 -0.0530332 0)
(-0.00024873 -0.0563657 0)
(-0.000514599 -0.0540704 0)
(-0.00158105 -0.0569279 0)
(-0.000636284 -0.0569179 0)
(0.000396334 -0.0536216 0)
(0.003382 -0.0530153 0)
(0.00433007 -0.0507469 0)
(0.00440158 -0.0496783 0)
(0.00384027 -0.0485578 0)
(0.00342419 -0.0493897 0)
(0.00142455 -0.0525252 0)
(0.000561655 -0.0549134 0)
(0.00078744 -0.0550679 0)
(-0.00211929 -0.0539889 0)
(-0.000805381 -0.0526051 0)
(-0.00101875 -0.054175 0)
(7.41785e-05 -0.0536545 0)
(0.000598919 -0.0518786 0)
(0.00047071 -0.0540948 0)
(0.000728614 -0.0543897 0)
(-8.31051e-11 -5.66285e-05 0)
(-8.15901e-11 -5.66344e-05 0)
(-6.72606e-11 -5.66647e-05 0)
(-8.01027e-11 -5.66402e-05 0)
(-3.33684e-05 -0.0152589 0)
(-0.00585823 -0.00932013 0)
(-0.00334675 -0.0214175 0)
(-0.0069338 -0.0087299 0)
(-0.00307053 -0.013332 0)
(-6.89974e-05 -0.0282933 0)
(-0.0109385 -0.0222259 0)
(-0.0112407 -0.027216 0)
(-0.00368459 -0.0391659 0)
(-0.00668904 -0.0486993 0)
(-0.0045359 -0.047111 0)
(-0.00423383 -0.0468983 0)
(-0.00056817 -0.0530737 0)
(7.95562e-05 -0.0510649 0)
(-0.00058349 -0.0528719 0)
(-0.00235406 -0.049017 0)
(-0.00170498 -0.0488037 0)
(-0.00122754 -0.0474865 0)
(-0.002242 -0.0478263 0)
(-0.00069032 -0.0513662 0)
(0.00107912 -0.0536 0)
(0.000824138 -0.0610083 0)
(-0.00161417 -0.0613025 0)
(-0.000468142 -0.0608022 0)
(0.000176156 -0.0583145 0)
(0.00165883 -0.0565245 0)
(0.00392354 -0.0535628 0)
(0.00336686 -0.0528367 0)
(0.00142647 -0.0543247 0)
(0.00120543 -0.0535563 0)
(-0.000340136 -0.0517703 0)
(0.000154858 -0.0478433 0)
(0.00125535 -0.0499468 0)
(0.00312985 -0.0521502 0)
(0.00116742 -0.0545982 0)
(-0.000359509 -0.055841 0)
(-0.0017288 -0.0524826 0)
(-0.00160586 -0.0528649 0)
(-0.000149057 -0.0474362 0)
(-0.000153187 -0.0467971 0)
(0.00091332 -0.0472059 0)
(0.0020313 -0.048784 0)
(0.00203511 -0.0496676 0)
(0.000872042 -0.0481524 0)
(-0.0038874 -0.0441035 0)
(-0.0047418 -0.0436631 0)
(0.000209166 -0.0465193 0)
(-0.000180637 -0.0478428 0)
(-0.00265628 -0.0482557 0)
(-0.000515548 -0.0512666 0)
(-0.000520833 -0.0528926 0)
(-0.00242895 -0.0532085 0)
(0.000223342 -0.0561928 0)
(0.000219873 -0.0563253 0)
(-0.000378125 -0.056837 0)
(-0.00143016 -0.0564346 0)
(-0.00115166 -0.0558964 0)
(-0.0011832 -0.0560341 0)
(0.004241 -0.0537239 0)
(0.0061179 -0.0511421 0)
(0.004894 -0.0534624 0)
(0.00251706 -0.0547575 0)
(0.00258042 -0.0564149 0)
(0.00133036 -0.0561338 0)
(-0.000697144 -0.05624 0)
(-0.000900879 -0.0545535 0)
(-0.00114559 -0.0524258 0)
(-0.000480054 -0.0508079 0)
(0.00060529 -0.0506678 0)
(0.00129488 -0.050906 0)
(-0.000306538 -0.0539001 0)
(-6.05485e-11 -5.66251e-05 0)
(-5.94447e-11 -5.66311e-05 0)
(-7.86424e-11 -5.66458e-05 0)
(-5.8361e-11 -5.6637e-05 0)
(-0.00272421 -0.00797541 0)
(-0.00405978 -0.0156453 0)
(-0.00170504 -0.00476281 0)
(-0.00366368 -0.0115064 0)
(-0.00335399 -0.01046 0)
(-0.00622564 -0.0134104 0)
(-0.00998959 -0.0128846 0)
(-0.00974084 -0.00912502 0)
(-0.00705599 -0.000876269 0)
(-0.00897888 -0.0322776 0)
(-0.00474756 -0.056264 0)
(-0.00589853 -0.0506266 0)
(-0.00122437 -0.0507919 0)
(-0.00167947 -0.051993 0)
(-0.00131133 -0.0532016 0)
(-0.00187405 -0.0538233 0)
(-0.000967749 -0.0538803 0)
(-0.00230045 -0.0563132 0)
(-0.00122852 -0.0577596 0)
(0.000572876 -0.0561697 0)
(0.00176874 -0.0605485 0)
(0.00115173 -0.0606713 0)
(0.000433995 -0.0615341 0)
(0.000213328 -0.0649667 0)
(-0.000529782 -0.0607269 0)
(-0.000492873 -0.058951 0)
(-0.000175443 -0.058601 0)
(0.000515586 -0.0582158 0)
(0.00127591 -0.056259 0)
(0.00181661 -0.058525 0)
(-0.00167012 -0.0547239 0)
(-0.00230987 -0.0566381 0)
(0.00135065 -0.053895 0)
(0.00115909 -0.0540369 0)
(0.00107099 -0.0536326 0)
(-0.000418262 -0.0573039 0)
(-0.00194687 -0.0535955 0)
(-0.00117287 -0.0530794 0)
(0.00206099 -0.0464564 0)
(0.00165729 -0.0495913 0)
(-0.000279222 -0.046178 0)
(-0.00239657 -0.0433408 0)
(-0.00263406 -0.0435201 0)
(-0.00360447 -0.0417678 0)
(-0.00485387 -0.0438115 0)
(-0.00587975 -0.0458618 0)
(3.76212e-05 -0.0522379 0)
(0.000142142 -0.0533903 0)
(-0.00023277 -0.0534297 0)
(-0.000625784 -0.0540734 0)
(-0.0014145 -0.0547848 0)
(-0.000184431 -0.0540694 0)
(1.29216e-06 -0.0536047 0)
(0.000443904 -0.0507778 0)
(-0.000809528 -0.0507695 0)
(-0.000798973 -0.0529435 0)
(-0.000726605 -0.0551445 0)
(-0.000173811 -0.0573096 0)
(0.00384091 -0.0580782 0)
(0.00452622 -0.0579374 0)
(0.00586637 -0.0566051 0)
(0.00418171 -0.0568112 0)
(0.00143618 -0.0556743 0)
(0.00284558 -0.0561021 0)
(0.000602279 -0.0563366 0)
(-0.00183413 -0.0563548 0)
(8.61557e-05 -0.0506005 0)
(-0.00280031 -0.0501035 0)
(-0.00261292 -0.0490243 0)
(-0.00157577 -0.051202 0)
(0.00116886 -0.0491236 0)
(-5.19745e-11 -5.66004e-05 0)
(-5.09155e-11 -5.66079e-05 0)
(0.000172066 -0.00877283 0)
(-4.98781e-11 -5.66153e-05 0)
(-0.002162 -0.0189331 0)
(-0.00120004 -0.0142243 0)
(0.00208431 -0.00807005 0)
(-0.00556521 -0.00440669 0)
(-0.00293432 -0.0212994 0)
(-0.0031494 -0.0219842 0)
(-0.0081927 -0.0120292 0)
(-0.00848809 -0.0151997 0)
(-0.00757242 -0.0235893 0)
(-0.0149427 -0.0265268 0)
(-0.00310082 -0.0577842 0)
(-0.00271477 -0.0502533 0)
(-0.000986287 -0.0490852 0)
(0.000239974 -0.0495962 0)
(-0.000931718 -0.0510459 0)
(-0.00135452 -0.0539709 0)
(-0.00163338 -0.0553902 0)
(-0.000741518 -0.0578243 0)
(0.0044045 -0.0567971 0)
(0.00232843 -0.0569829 0)
(0.001769 -0.0583133 0)
(0.00331869 -0.0561961 0)
(0.00163063 -0.0562225 0)
(0.000290981 -0.0559238 0)
(-0.000361032 -0.0557316 0)
(-0.00137225 -0.0564391 0)
(-0.00111962 -0.0567953 0)
(-0.000564408 -0.0569828 0)
(0.00108218 -0.0570432 0)
(0.00254517 -0.0567226 0)
(0.000355679 -0.0595636 0)
(0.000212874 -0.059471 0)
(0.000341309 -0.0569737 0)
(0.000246022 -0.0549474 0)
(-0.00303378 -0.0536566 0)
(-0.00101616 -0.0499785 0)
(-0.000597714 -0.0503097 0)
(-0.000499598 -0.0509711 0)
(4.26524e-05 -0.0497197 0)
(0.000112779 -0.0494741 0)
(0.0012306 -0.0472798 0)
(0.000763007 -0.0468167 0)
(0.000456568 -0.0504473 0)
(-0.00207804 -0.0505088 0)
(0.00142538 -0.0537088 0)
(-0.00262091 -0.0566934 0)
(-0.000989232 -0.0534614 0)
(5.44047e-05 -0.0542012 0)
(-7.86127e-05 -0.0537412 0)
(-0.000612644 -0.0534982 0)
(-0.000139207 -0.0537919 0)
(-0.000398454 -0.0519368 0)
(-0.000554184 -0.0504893 0)
(-0.000737262 -0.0518251 0)
(-0.000202957 -0.0546329 0)
(0.000487449 -0.0549654 0)
(7.67242e-06 -0.0575085 0)
(0.000364366 -0.0588868 0)
(0.00340651 -0.0575882 0)
(0.00399632 -0.0556034 0)
(0.00484103 -0.0557976 0)
(0.00213324 -0.0562971 0)
(0.00161753 -0.0557413 0)
(0.000588383 -0.0550457 0)
(-0.000659774 -0.0520466 0)
(-0.00191046 -0.0528719 0)
(-0.000913627 -0.0515438 0)
(-0.000866776 -0.0524517 0)
(-0.000626573 -0.0515279 0)
(0.00141209 -0.0502884 0)
(0.00143283 -0.0495936 0)
(-3.57233e-12 -5.66471e-05 0)
(-3.51432e-12 -5.66518e-05 0)
(-0.00244042 -0.0120644 0)
(-3.45724e-12 -5.66566e-05 0)
(-0.00110686 -0.012777 0)
(-0.00273341 -0.00852096 0)
(-0.00233935 -0.0104092 0)
(-0.00011007 -0.0045598 0)
(-0.00228348 -0.01276 0)
(-0.00405536 -0.0168794 0)
(-0.00615681 -0.0161141 0)
(-0.00636597 -0.0032362 0)
(-0.00705955 -0.033699 0)
(-0.00778148 -0.0306205 0)
(-0.00115785 -0.055726 0)
(-0.00235595 -0.0488766 0)
(-0.00265654 -0.0511854 0)
(-0.00198103 -0.050067 0)
(-0.000595023 -0.0499656 0)
(0.000711001 -0.049968 0)
(-0.000347386 -0.0515491 0)
(0.00230601 -0.0537422 0)
(0.000528683 -0.0557078 0)
(-0.000211724 -0.0512409 0)
(0.000399705 -0.0509349 0)
(9.56615e-05 -0.0494747 0)
(-0.00103076 -0.05269 0)
(-0.00163259 -0.0509947 0)
(-0.00102253 -0.051155 0)
(0.000729019 -0.0508604 0)
(0.00153547 -0.0481014 0)
(0.00245585 -0.0466033 0)
(0.00242237 -0.0542019 0)
(0.000497444 -0.0547779 0)
(0.000554797 -0.0534439 0)
(0.00077283 -0.0532965 0)
(0.00114663 -0.0522908 0)
(-0.00031424 -0.0516953 0)
(-0.000801475 -0.0513345 0)
(-0.00262611 -0.0477973 0)
(-0.0014019 -0.0508934 0)
(-0.00094069 -0.0486801 0)
(0.00052875 -0.0495139 0)
(0.000418646 -0.0508439 0)
(0.000354832 -0.050878 0)
(-0.00109005 -0.0501381 0)
(-0.001564 -0.0522976 0)
(-0.00333616 -0.0542937 0)
(-0.0055715 -0.0545805 0)
(-0.00337456 -0.0569977 0)
(-0.00162958 -0.0584489 0)
(-0.00047283 -0.0537375 0)
(5.59705e-06 -0.05609 0)
(0.000400318 -0.0556219 0)
(-0.000320893 -0.0554387 0)
(-0.00136629 -0.0549885 0)
(-0.000944448 -0.0551955 0)
(-0.000887135 -0.0559378 0)
(-8.78177e-05 -0.0587975 0)
(0.00083143 -0.0574116 0)
(-8.38513e-05 -0.0584868 0)
(0.00213447 -0.0568295 0)
(0.00319422 -0.0575878 0)
(0.00322361 -0.0566735 0)
(0.00249744 -0.057392 0)
(0.00161494 -0.0550971 0)
(0.000795294 -0.0538407 0)
(0.00129545 -0.0528306 0)
(0.000117443 -0.0524101 0)
(-0.00169538 -0.0514987 0)
(-0.000487209 -0.0493377 0)
(-0.000293469 -0.0508578 0)
(-0.000692915 -0.0530736 0)
(-0.000664802 -0.0534729 0)
(-0.000941421 -0.0525395 0)
(-1.94859e-11 -5.6651e-05 0)
(-1.91694e-11 -5.66556e-05 0)
(-3.40109e-12 -5.66612e-05 0)
(-1.88579e-11 -5.66602e-05 0)
(1.9075e-05 -2.58095e-05 0)
(0.00290803 -0.0112256 0)
(8.14286e-05 -0.0109255 0)
(0.003837 -0.0149765 0)
(0.000849412 -0.014613 0)
(-0.00076791 -0.0196903 0)
(-0.00520094 -0.0176638 0)
(-0.00591122 -0.0211089 0)
(-0.00645494 -0.0179708 0)
(-0.00552657 -0.0235367 0)
(-0.00329754 -0.0530348 0)
(-0.00206526 -0.0441271 0)
(-0.00196679 -0.0503495 0)
(-0.000813353 -0.0495749 0)
(0.00167216 -0.0518157 0)
(0.000419122 -0.0490259 0)
(0.00117321 -0.0508977 0)
(0.00132116 -0.0498711 0)
(0.000184214 -0.0530308 0)
(-0.00146197 -0.0501631 0)
(-0.000640285 -0.0482424 0)
(-0.000907929 -0.0491069 0)
(0.000208525 -0.0510328 0)
(-0.000525887 -0.0518305 0)
(-0.000900021 -0.051204 0)
(-0.000772324 -0.0500107 0)
(3.68065e-05 -0.0487983 0)
(0.000195751 -0.0474781 0)
(0.000672918 -0.0479697 0)
(0.000827043 -0.0468264 0)
(0.000927078 -0.0475667 0)
(0.000670005 -0.0488207 0)
(0.000129671 -0.0469238 0)
(-0.000638564 -0.047702 0)
(-0.000190241 -0.0487066 0)
(-0.0007824 -0.0492137 0)
(0.000378275 -0.0491314 0)
(0.000179586 -0.0507751 0)
(0.000289224 -0.0510085 0)
(-0.000371265 -0.0503702 0)
(-0.00010699 -0.0524788 0)
(-0.000103405 -0.0531952 0)
(-0.000193865 -0.0537519 0)
(-1.70815e-05 -0.0550637 0)
(-0.00288549 -0.0567126 0)
(-0.00282742 -0.0570637 0)
(0.00131406 -0.0545228 0)
(0.000513076 -0.0557143 0)
(-5.69843e-05 -0.0562798 0)
(-0.000262362 -0.0567781 0)
(-0.000187615 -0.0575146 0)
(0.000188199 -0.0566093 0)
(-0.000309146 -0.0555561 0)
(-0.00139883 -0.0568207 0)
(0.00130176 -0.0563964 0)
(0.00206178 -0.0592564 0)
(0.00252632 -0.0578884 0)
(0.00259095 -0.0568947 0)
(0.00181054 -0.0573362 0)
(0.00179551 -0.055852 0)
(0.00104858 -0.0547461 0)
(0.00132411 -0.0537035 0)
(-0.00179184 -0.0491012 0)
(-0.00147535 -0.047361 0)
(-0.000621338 -0.0450492 0)
(-0.000471594 -0.0468647 0)
(-0.000523566 -0.0503276 0)
(-0.000842753 -0.0505347 0)
(-0.000713723 -0.0506913 0)
(-0.000127933 -0.0511412 0)
(0.000691651 -0.0522938 0)
(-5.92278e-11 -5.66716e-05 0)
(-5.83726e-11 -5.66753e-05 0)
(-0.00374089 -0.0143694 0)
(-5.75297e-11 -5.66789e-05 0)
(-0.00236016 -0.0117278 0)
(-1.57354e-06 -5.31434e-05 0)
(-0.0049613 -0.0160319 0)
(-0.00374331 -0.0164108 0)
(-0.00138819 -0.0166189 0)
(-0.00733689 -0.0101506 0)
(-0.0101506 0.00563896 0)
(-0.00699511 -0.01845 0)
(-0.0120501 -0.0218587 0)
(-0.00709627 -0.028574 0)
(-0.00206708 -0.0547183 0)
(-0.00293677 -0.0462547 0)
(-0.000122285 -0.0526601 0)
(0.00145451 -0.0516597 0)
(0.00203128 -0.0522434 0)
(0.00127829 -0.0511618 0)
(0.000684166 -0.0506017 0)
(0.00127803 -0.0489489 0)
(-6.54832e-05 -0.051966 0)
(-0.000282186 -0.0462853 0)
(-0.000658045 -0.0455268 0)
(-0.00207054 -0.0479977 0)
(0.000291252 -0.0515564 0)
(0.000228832 -0.0531008 0)
(-0.000708581 -0.0535275 0)
(-0.00108232 -0.0523557 0)
(-0.000205397 -0.0529011 0)
(0.00213907 -0.049052 0)
(-0.00118751 -0.0475672 0)
(-0.000532247 -0.0475327 0)
(0.000908489 -0.0477405 0)
(0.00363163 -0.0463284 0)
(0.00133348 -0.046824 0)
(-0.000285541 -0.0461486 0)
(-0.00226513 -0.0457556 0)
(-0.00193975 -0.046208 0)
(-0.00405607 -0.0518664 0)
(-0.000365287 -0.0528418 0)
(0.000202476 -0.0518031 0)
(0.00223469 -0.0528499 0)
(0.000835972 -0.0513503 0)
(0.000348577 -0.0543838 0)
(-0.000470255 -0.0536997 0)
(-0.000378575 -0.0531897 0)
(-0.00212835 -0.0525507 0)
(-0.00133163 -0.0502886 0)
(0.00160918 -0.049982 0)
(-9.77979e-05 -0.0523787 0)
(-0.00040649 -0.0540754 0)
(-0.00048505 -0.0561015 0)
(-0.000881737 -0.0574443 0)
(-0.000647789 -0.0575154 0)
(-0.000315207 -0.0570461 0)
(0.0011774 -0.0573619 0)
(0.00273495 -0.0553326 0)
(0.0016057 -0.0585853 0)
(0.00167751 -0.0576875 0)
(0.00079642 -0.0563622 0)
(-2.62847e-06 -0.0500758 0)
(0.0011972 -0.0524413 0)
(5.79509e-05 -0.0496832 0)
(-0.000465131 -0.0444194 0)
(-0.00281598 -0.0448135 0)
(-0.00396083 -0.04771 0)
(-0.00126064 -0.0487537 0)
(-0.000451082 -0.0506586 0)
(-0.000168575 -0.0483869 0)
(-0.000196432 -0.0467688 0)
(0.000485394 -0.0484672 0)
(0.00127054 -0.0507535 0)
(0.00250023 -0.0510412 0)
(-9.95307e-11 -5.66042e-05 0)
(-9.75031e-11 -5.66115e-05 0)
(-0.00296996 -0.0160529 0)
(-9.55168e-11 -5.66187e-05 0)
(0.000949507 -0.00262022 0)
(-0.00386703 -0.015653 0)
(-0.00323202 -0.0188731 0)
(-0.00306172 -0.0164233 0)
(-0.00321464 -0.0171325 0)
(-0.00909325 -0.0105939 0)
(-0.002745 -0.0236643 0)
(-0.00188062 -0.0108877 0)
(-0.011025 -0.0186417 0)
(-0.00969341 -0.0359601 0)
(-0.00331579 -0.046081 0)
(-0.00261955 -0.0549644 0)
(0.00200707 -0.0558307 0)
(0.000446749 -0.0554977 0)
(-0.000126371 -0.0540544 0)
(-0.000209609 -0.0534595 0)
(1.17265e-05 -0.0530697 0)
(-0.000205699 -0.05198 0)
(0.00167846 -0.0524192 0)
(-0.000498182 -0.0503768 0)
(3.85043e-05 -0.0499077 0)
(-0.00127603 -0.0514713 0)
(-0.000869791 -0.0505717 0)
(0.00135675 -0.0541131 0)
(-0.000542161 -0.0546258 0)
(-0.000358024 -0.0559817 0)
(0.000771233 -0.0543172 0)
(0.00213449 -0.0532025 0)
(0.00127504 -0.0494836 0)
(0.00428008 -0.0480925 0)
(0.00062022 -0.0499704 0)
(0.000224141 -0.0490203 0)
(0.000422166 -0.0525381 0)
(0.000366047 -0.0523114 0)
(-0.00112568 -0.0537673 0)
(0.000974762 -0.0537971 0)
(-0.00532133 -0.0507034 0)
(-0.00110975 -0.0514247 0)
(0.00013944 -0.0516942 0)
(0.00323098 -0.0530913 0)
(0.00209805 -0.0513735 0)
(0.00186721 -0.0509525 0)
(0.00179613 -0.0525732 0)
(-0.000814195 -0.0538184 0)
(-0.000572466 -0.0533723 0)
(-0.000863569 -0.0515362 0)
(-1.68594e-05 -0.0512122 0)
(-0.000458945 -0.0523303 0)
(-0.000453041 -0.05396 0)
(-3.60036e-05 -0.0551036 0)
(-2.35599e-05 -0.0568075 0)
(0.000290724 -0.0575315 0)
(0.000626083 -0.0565187 0)
(0.00280734 -0.0560022 0)
(0.00164508 -0.0563763 0)
(0.000860313 -0.0560449 0)
(0.000810346 -0.0549878 0)
(0.000931369 -0.0530303 0)
(-0.000948328 -0.0508134 0)
(-0.000173155 -0.0500245 0)
(-4.19295e-05 -0.0508387 0)
(-0.00467952 -0.0440519 0)
(-0.00408674 -0.047498 0)
(-0.000998007 -0.048496 0)
(-0.000720582 -0.0498492 0)
(-0.000882975 -0.0499773 0)
(-0.00126815 -0.052079 0)
(0.00069505 -0.0502768 0)
(0.00133189 -0.050363 0)
(0.00236388 -0.0510029 0)
(0.00243911 -0.0500104 0)
(-7.31041e-11 -5.6651e-05 0)
(-7.19154e-11 -5.66556e-05 0)
(2.02929e-05 -4.54234e-05 0)
(-7.07459e-11 -5.66602e-05 0)
(-0.00164872 -0.00337409 0)
(0.00731172 -0.016645 0)
(-0.0149184 -0.00984021 0)
(-0.01428 -0.0102164 0)
(-0.0118334 -0.0171974 0)
(-0.0100042 -0.0276194 0)
(-0.00816161 -0.0161485 0)
(0.000881535 -0.019017 0)
(-0.00649106 -0.0241294 0)
(-0.00438855 -0.0360868 0)
(-0.00400259 -0.0402491 0)
(-0.00196654 -0.0575721 0)
(-0.00168587 -0.0541772 0)
(-0.000496852 -0.0564034 0)
(-0.000147644 -0.0545653 0)
(0.000629937 -0.05642 0)
(0.000487279 -0.0548651 0)
(5.4275e-05 -0.0558608 0)
(0.000492959 -0.0560169 0)
(-0.000135417 -0.0554535 0)
(-3.84537e-05 -0.0533723 0)
(-0.000282512 -0.0528773 0)
(0.000852298 -0.0529976 0)
(0.000909575 -0.055454 0)
(-3.33092e-05 -0.0557053 0)
(0.000589913 -0.05597 0)
(-0.000360778 -0.0550524 0)
(0.000222682 -0.0532631 0)
(0.000622876 -0.0542858 0)
(0.000462667 -0.0524632 0)
(0.00196388 -0.0517883 0)
(0.00131235 -0.0532569 0)
(-0.000235031 -0.0549456 0)
(-0.000891552 -0.0546096 0)
(-0.000792527 -0.0551711 0)
(-0.00248774 -0.0561909 0)
(-0.0010228 -0.0587036 0)
(-0.00100332 -0.0540795 0)
(-0.00115526 -0.0530801 0)