/*--------------------------------*- C++ -*----------------------------------*\
  =========                 |
  \\      /  F ield         | OpenFOAM: The Open Source CFD Toolbox
   \\    /   O peration     | Website:  https://openfoam.org
    \\  /    A nd           | Version:  12
     \\/     M anipulation  |
\*---------------------------------------------------------------------------*/
FoamFile
{
    format      ascii;
    class       volVectorField::Internal;
    location    "0.95";
    object      cloud:UTrans;
}
// * * * * * * * * * * * * * * * * * * * * * * * * * * * * * * * * * * * * * //

dimensions      [1 1 -1 0 0 0 0];

value           nonuniform List<vector> 
3750
(
(9.79288e-08 -3.69662e-08 0)
(3.97964e-09 -1.04293e-09 0)
(-7.52602e-11 -1.20422e-09 0)
(4.5315e-11 -5.2478e-10 0)
(0 0 0)
(6.41647e-11 -9.78826e-10 0)
(0 0 0)
(1.12307e-11 -9.33675e-10 0)
(-5.65076e-13 -8.58954e-10 0)
(2.57497e-11 -8.85854e-10 0)
(-2.89309e-11 -8.07295e-10 0)
(-3.16575e-12 -6.6402e-10 0)
(9.06602e-14 -6.48296e-10 0)
(-7.18919e-11 -1.7151e-09 0)
(3.85435e-12 -7.76342e-10 0)
(-3.05611e-11 -8.14233e-10 0)
(-1.53463e-11 -8.26785e-10 0)
(-1.15258e-11 -8.93181e-10 0)
(0 0 0)
(1.8525e-11 -8.03954e-10 0)
(0 0 0)
(-2.90194e-11 -7.71761e-10 0)
(0 0 0)
(0 0 0)
(4.83063e-11 -7.67499e-10 0)
(0 0 0)
(-1.529e-11 -1.60044e-09 0)
(-4.16998e-11 -7.36157e-10 0)
(3.2465e-12 -8.55317e-10 0)
(0 0 0)
(-6.47888e-12 -8.74422e-10 0)
(0 0 0)
(-2.45922e-11 -8.61012e-10 0)
(-1.70384e-11 -7.2657e-10 0)
(-1.50309e-11 -8.49675e-10 0)
(0 0 0)
(9.9601e-12 -8.28343e-10 0)
(-4.10315e-12 -5.89698e-10 0)
(-1.66837e-11 -8.84144e-10 0)
(-8.12797e-12 -8.92859e-10 0)
(0 0 0)
(1.11924e-11 -8.02005e-10 0)
(9.72015e-12 -1.81343e-09 0)
(1.14521e-11 -7.95473e-10 0)
(-3.87909e-12 -7.78884e-10 0)
(5.53489e-11 -1.66008e-09 0)
(0 0 0)
(0 0 0)
(-2.15799e-12 -8.71883e-10 0)
(2.4911e-11 -1.96164e-09 0)
(-4.8914e-11 -8.28561e-10 0)
(-1.11195e-10 -8.34071e-10 0)
(-1.0322e-10 -2.18254e-09 0)
(1.12311e-10 -1.85919e-09 0)
(-1.76778e-11 -6.35743e-10 0)
(1.3485e-11 -6.51832e-10 0)
(2.97298e-11 -1.123e-09 0)
(-9.48393e-12 -3.1536e-10 0)
(2.95731e-11 -7.83286e-10 0)
(2.23845e-11 -7.50051e-10 0)
(-9.21599e-12 -7.83324e-10 0)
(-1.12556e-11 -7.94564e-10 0)
(-1.59893e-11 -7.47984e-10 0)
(-1.92818e-11 -8.57664e-10 0)
(-8.46302e-12 -8.24787e-10 0)
(2.96676e-11 -8.94161e-10 0)
(2.3948e-11 -8.81375e-10 0)
(1.10128e-11 -9.00194e-10 0)
(0 0 0)
(5.34601e-12 -8.49145e-10 0)
(1.38756e-10 -1.77137e-09 0)
(1.0235e-11 -8.61296e-10 0)
(-6.43988e-11 -1.72978e-09 0)
(0 0 0)
(-2.2799e-11 -8.64104e-10 0)
(-9.87613e-09 -2.67297e-08 0)
(-1.33959e-09 -3.69893e-09 0)
(-1.3357e-10 -6.42016e-10 0)
(-1.98018e-11 -6.62023e-10 0)
(0 0 0)
(-1.42654e-11 -8.76668e-10 0)
(4.18089e-11 -8.77973e-10 0)
(-2.73375e-11 -8.31519e-10 0)
(3.63701e-11 -8.64708e-10 0)
(0 0 0)
(3.08456e-11 -1.73626e-09 0)
(-1.07294e-11 -7.48597e-10 0)
(-2.01125e-11 -1.54455e-09 0)
(-1.85716e-10 -1.78577e-09 0)
(5.56018e-11 -7.88091e-10 0)
(6.37606e-13 -2.51606e-10 0)
(-2.17698e-11 -1.61154e-09 0)
(4.77242e-12 -8.93406e-10 0)
(0 0 0)
(0 0 0)
(2.93367e-11 -1.90949e-09 0)
(1.24667e-11 -8.52138e-10 0)
(0 0 0)
(3.07757e-12 -8.83813e-10 0)
(-2.22065e-11 -7.65331e-10 0)
(2.55555e-11 -1.05067e-09 0)
(4.8252e-11 -1.06117e-09 0)
(2.59126e-11 -1.33378e-09 0)
(6.1971e-12 -1.13792e-10 0)
(0 0 0)
(6.67586e-11 -1.01171e-09 0)
(0 0 0)
(0 0 0)
(-4.8663e-11 -9.03168e-10 0)
(-1.19678e-11 -3.05493e-09 0)
(-5.12776e-12 -8.02341e-10 0)
(3.21749e-11 -7.90559e-10 0)
(1.20397e-10 -3.27903e-09 0)
(0 0 0)
(0 0 0)
(-1.57814e-12 -8.64623e-10 0)
(0 0 0)
(3.43259e-11 -7.28744e-10 0)
(-7.89923e-11 -2.82643e-09 0)
(7.46714e-12 -7.85537e-10 0)
(-8.29725e-12 -7.88052e-10 0)
(8.22692e-11 -8.14564e-10 0)
(6.78855e-12 -9.76797e-10 0)
(0 0 0)
(0 0 0)
(-8.51417e-11 -2.3107e-09 0)
(0 0 0)
(0 0 0)
(0 0 0)
(1.22073e-10 -1.79867e-09 0)
(2.59152e-11 -1.85917e-09 0)
(1.20021e-12 -1.8213e-09 0)
(1.93379e-11 -7.40099e-10 0)
(4.7359e-11 -7.13353e-10 0)
(1.2757e-11 -7.95371e-10 0)
(-1.0034e-10 -1.88164e-09 0)
(-9.87136e-12 -6.97341e-10 0)
(-1.21833e-10 -2.734e-09 0)
(-9.11367e-11 -1.65511e-09 0)
(-5.39e-11 -7.23184e-10 0)
(2.30057e-11 -7.88193e-10 0)
(0 0 0)
(2.87232e-11 -8.72777e-10 0)
(1.98807e-11 -8.73647e-10 0)
(3.4587e-11 -9.05801e-10 0)
(2.0484e-11 -8.9411e-10 0)
(1.15709e-12 -7.99387e-10 0)
(-1.74624e-11 -8.36147e-10 0)
(-3.31174e-12 -8.39001e-10 0)
(0 0 0)
(-1.95957e-08 2.89022e-08 0)
(-4.72715e-09 7.3403e-09 0)
(-3.3226e-11 -2.8501e-10 0)
(4.92221e-12 -8.34035e-10 0)
(0 0 0)
(3.2724e-11 -8.64881e-10 0)
(-3.51365e-11 -9.09673e-10 0)
(0 0 0)
(6.58042e-12 -8.35938e-10 0)
(0 0 0)
(3.77715e-11 -1.67971e-09 0)
(3.46943e-11 -6.95183e-10 0)
(-6.18926e-12 -1.27669e-10 0)
(-1.47286e-11 -1.52389e-09 0)
(0 0 0)
(-5.19521e-11 -1.19684e-09 0)
(-3.97884e-11 -2.7747e-09 0)
(1.71541e-11 -6.56727e-10 0)
(0 0 0)
(0 0 0)
(3.29742e-12 -8.1303e-10 0)
(-8.67296e-12 -7.87172e-10 0)
(0 0 0)
(0 0 0)
(0 0 0)
(2.25898e-11 -7.34047e-10 0)
(-8.7738e-11 -1.7503e-09 0)
(-2.62281e-11 -6.42887e-10 0)
(1.83707e-11 -8.03839e-10 0)
(6.80289e-12 -9.1274e-10 0)
(6.29264e-11 -8.34386e-10 0)
(-3.36599e-11 -8.08285e-10 0)
(4.14868e-12 -1.68678e-09 0)
(1.0902e-11 -8.47834e-10 0)
(0 0 0)
(8.02408e-11 -1.56728e-09 0)
(1.59382e-11 -1.52004e-09 0)
(-5.10288e-11 -3.59782e-09 0)
(0 0 0)
(-9.73951e-12 -6.18446e-10 0)
(-1.47525e-11 -8.26882e-10 0)
(-1.09293e-11 -8.10869e-10 0)
(2.08448e-11 -8.69499e-10 0)
(-1.9229e-11 -8.19675e-10 0)
(3.37105e-11 -1.53634e-09 0)
(0 0 0)
(4.3479e-11 -7.92082e-10 0)
(0 0 0)
(-3.17403e-11 -2.10153e-09 0)
(9.46116e-11 -3.23543e-09 0)
(3.04105e-12 -8.60563e-10 0)
(0 0 0)
(0 0 0)
(-3.09919e-11 -8.77234e-10 0)
(9.66149e-11 -1.80939e-09 0)
(-2.57441e-12 -8.11416e-10 0)
(-2.08021e-11 -7.36931e-10 0)
(1.63286e-11 -7.80361e-10 0)
(0 0 0)
(-1.11362e-12 -8.42004e-10 0)
(-2.4443e-11 -1.87454e-09 0)
(-3.30389e-11 -7.20609e-10 0)
(-7.43274e-11 -8.25113e-10 0)
(-5.3466e-11 -8.54861e-10 0)
(2.07318e-11 -8.65238e-10 0)
(0 0 0)
(4.38355e-11 -8.79535e-10 0)
(0 0 0)
(0 0 0)
(1.70341e-11 -8.74103e-10 0)
(0 0 0)
(-9.47252e-12 -9.02451e-10 0)
(-4.55016e-11 -1.88928e-09 0)
(-6.04825e-12 -7.56133e-10 0)
(-2.3888e-11 -8.18496e-10 0)
(-8.40776e-09 1.29716e-07 0)
(-7.36187e-11 5.6366e-09 0)
(2.57982e-12 -6.1933e-10 0)
(7.14399e-11 -6.22634e-10 0)
(6.65858e-11 -7.92213e-10 0)
(1.06317e-11 -1.01159e-09 0)
(-2.69574e-11 -9.23955e-10 0)
(-2.88905e-11 -7.24149e-10 0)
(1.98765e-11 -6.94028e-10 0)
(0 0 0)
(-2.90422e-12 -7.56759e-10 0)
(4.28922e-11 -7.22269e-10 0)
(0 0 0)
(4.94087e-11 -7.65374e-10 0)
(4.79592e-11 -1.04093e-09 0)
(0 0 0)
(5.62604e-11 -8.59198e-10 0)
(5.99473e-11 -6.89611e-10 0)
(7.65258e-11 -7.91788e-10 0)
(0 0 0)
(-1.67116e-11 -8.43912e-10 0)
(8.9325e-11 -7.51346e-10 0)
(1.10958e-11 -7.42844e-10 0)
(1.50407e-10 -1.79064e-09 0)
(0 0 0)
(6.5098e-11 -1.5932e-09 0)
(-3.84144e-11 -7.42829e-10 0)
(-2.24487e-11 -7.24178e-10 0)
(-1.83523e-11 -7.26753e-10 0)
(7.31736e-12 -8.43135e-10 0)
(-6.11484e-12 -7.94622e-10 0)
(-1.37645e-11 -7.94442e-10 0)
(-3.42254e-11 -7.79782e-10 0)
(3.01591e-11 -1.66034e-09 0)
(-1.03905e-11 -1.56227e-09 0)
(7.95975e-12 -7.66196e-10 0)
(-6.82452e-11 -7.6838e-10 0)
(-1.03939e-10 -1.98544e-09 0)
(1.39857e-10 -1.76491e-09 0)
(1.85932e-10 -7.63015e-10 0)
(0 0 0)
(4.16141e-11 -8.66184e-10 0)
(4.1392e-12 -7.96631e-10 0)
(0 0 0)
(-1.88265e-11 -8.45114e-10 0)
(-2.45791e-11 -8.364e-10 0)
(0 0 0)
(2.74182e-11 -1.65517e-09 0)
(2.23014e-12 -6.85649e-10 0)
(-3.76738e-11 -1.76498e-09 0)
(5.27997e-11 -2.24197e-09 0)
(-4.04204e-11 -7.90676e-10 0)
(0 0 0)
(-1.54148e-11 -1.86216e-09 0)
(1.23059e-10 -7.26455e-10 0)
(-1.82678e-11 -1.87373e-09 0)
(-3.1702e-11 -6.97459e-10 0)
(-6.23368e-11 -8.07281e-10 0)
(-1.73122e-11 -8.78187e-10 0)
(4.58034e-11 -8.36996e-10 0)
(5.84974e-11 -1.43052e-09 0)
(3.84806e-12 -9.6149e-11 0)
(0 0 0)
(0 0 0)
(-2.76312e-11 -1.92528e-09 0)
(1.83664e-11 -7.42318e-10 0)
(5.39138e-11 -8.51223e-10 0)
(2.17757e-12 -7.9896e-10 0)
(3.95325e-11 -8.43216e-10 0)
(0 0 0)
(2.57542e-11 -8.99859e-10 0)
(2.83477e-11 -8.72454e-10 0)
(2.80019e-11 -8.26138e-10 0)
(-3.68178e-12 -8.04322e-10 0)
(0 0 0)
(2.2536e-08 7.07737e-08 0)
(6.73629e-10 4.77185e-09 0)
(5.43029e-11 2.01006e-11 0)
(1.65856e-10 -6.92676e-10 0)
(8.59767e-11 -7.29571e-10 0)
(9.07051e-11 -2.38845e-09 0)
(3.82464e-11 -8.33796e-10 0)
(1.4312e-11 -7.19154e-10 0)
(4.15838e-12 -1.74969e-09 0)
(4.01035e-13 -2.46645e-11 0)
(2.46402e-12 -1.73035e-09 0)
(0 0 0)
(8.82925e-12 -8.32587e-10 0)
(2.05033e-11 -8.57425e-10 0)
(1.47464e-11 -8.63259e-10 0)
(1.00609e-10 -9.17644e-10 0)
(2.7935e-11 -8.63512e-10 0)
(3.93016e-11 -7.84096e-10 0)
(5.01524e-11 -7.41082e-10 0)
(4.23755e-11 -8.05197e-10 0)
(4.89898e-11 -7.8132e-10 0)
(7.4463e-11 -1.7808e-09 0)
(1.63717e-11 -6.43797e-10 0)
(-1.20157e-11 -7.19949e-10 0)
(-2.39288e-11 -7.7725e-10 0)
(1.75943e-11 -7.73343e-10 0)
(8.91487e-12 -1.79223e-09 0)
(-2.60675e-11 -7.43733e-10 0)
(1.39005e-11 -7.10497e-10 0)
(-4.03498e-11 -1.75258e-09 0)
(7.15708e-12 -7.99872e-10 0)
(4.07305e-11 -8.07434e-10 0)
(-1.25217e-11 -7.90223e-10 0)
(2.61543e-11 -1.81135e-09 0)
(0 0 0)
(7.20969e-12 -7.76885e-10 0)
(0 0 0)
(0 0 0)
(0 0 0)
(9.05104e-11 -2.40916e-09 0)
(6.81345e-11 -9.05655e-10 0)
(7.68832e-11 -7.72342e-10 0)
(-6.93746e-11 -8.11673e-10 0)
(-3.84534e-11 -7.78551e-10 0)
(-2.91184e-11 -1.89174e-09 0)
(2.72741e-11 -7.11537e-10 0)
(7.51593e-12 -6.77024e-10 0)
(0 0 0)
(-2.33422e-11 -8.15968e-10 0)
(0 0 0)
(-1.12788e-10 -8.9357e-10 0)
(5.62452e-11 -1.98196e-09 0)
(-3.52739e-11 -6.62379e-10 0)
(-5.5819e-11 -8.04164e-10 0)
(-1.50597e-10 -3.54214e-09 0)
(0 0 0)
(-1.59469e-11 -8.56977e-10 0)
(-4.91466e-11 -1.85397e-09 0)
(1.80256e-11 -6.93874e-10 0)
(6.62041e-11 -1.6893e-09 0)
(3.17295e-11 -7.30952e-10 0)
(-2.74833e-11 -7.68697e-10 0)
(1.80548e-11 -8.4564e-10 0)
(0 0 0)
(-5.04977e-12 -8.79125e-10 0)
(-1.1113e-11 -7.58331e-10 0)
(6.54598e-12 -8.31525e-10 0)
(2.63219e-11 -8.64757e-10 0)
(5.60924e-11 -8.67322e-10 0)
(5.64761e-11 -8.8589e-10 0)
(0 0 0)
(8.95346e-12 -8.91699e-10 0)
(0 0 0)
(5.40201e-12 -7.88739e-10 0)
(-1.00737e-11 -8.64391e-10 0)
(1.67056e-08 5.91776e-08 0)
(3.61906e-09 8.04838e-09 0)
(1.53316e-10 -4.62046e-10 0)
(8.15152e-11 -7.8794e-10 0)
(3.00361e-11 -7.96322e-10 0)
(1.76366e-11 -8.87435e-10 0)
(1.11851e-10 -9.1708e-10 0)
(8.48396e-11 -8.45489e-10 0)
(1.75408e-11 -7.98968e-10 0)
(1.13664e-11 -8.01153e-10 0)
(-1.24725e-11 -8.21411e-10 0)
(-6.77419e-13 -8.60347e-10 0)
(9.07757e-12 -8.19808e-10 0)
(6.71827e-12 -8.47204e-10 0)
(4.19723e-11 -2.00298e-09 0)
(4.51369e-11 -8.47092e-10 0)
(8.07645e-11 -1.28073e-09 0)
(8.16495e-11 -1.3402e-09 0)
(2.92288e-11 -7.2174e-10 0)
(4.74998e-11 -7.87916e-10 0)
(5.94864e-11 -8.38744e-10 0)
(2.89358e-11 -8.24684e-10 0)
(2.41649e-11 -8.15809e-10 0)
(-9.79059e-12 -8.97159e-10 0)
(0 0 0)
(4.86468e-13 -8.38566e-10 0)
(-1.68837e-11 -1.93087e-09 0)
(0 0 0)
(0 0 0)
(-7.75695e-12 -7.04167e-10 0)
(3.14019e-11 -7.98142e-10 0)
(3.22118e-11 -7.20814e-10 0)
(-2.75543e-12 -8.14678e-10 0)
(-1.79443e-11 -7.93533e-10 0)
(3.61756e-11 -8.00881e-10 0)
(2.37408e-11 -8.89074e-10 0)
(3.87174e-11 -9.01126e-10 0)
(-1.288e-10 -2.04628e-09 0)
(-9.2895e-11 -1.86281e-09 0)
(-7.3516e-12 -8.30571e-10 0)
(5.47843e-11 -9.24163e-10 0)
(1.23185e-10 -2.16638e-09 0)
(-6.09231e-11 -9.38739e-10 0)
(-3.30161e-11 -7.5661e-10 0)
(-3.58907e-12 -7.33132e-10 0)
(5.04929e-11 -7.34718e-10 0)
(-1.95593e-11 -8.61731e-10 0)
(0 0 0)
(-1.0017e-10 -1.81516e-09 0)
(0 0 0)
(-1.15451e-10 -1.9066e-09 0)
(-3.44827e-11 -8.42109e-10 0)
(-4.61503e-11 -8.12963e-10 0)
(-8.20229e-11 -8.02235e-10 0)
(-1.01482e-10 -8.9351e-10 0)
(-1.83017e-13 -8.87166e-10 0)
(3.79725e-11 -2.01202e-09 0)
(1.33122e-11 -8.03334e-10 0)
(1.12558e-11 -7.59094e-10 0)
(0 0 0)
(4.89283e-11 -8.49471e-10 0)
(2.55384e-11 -7.84807e-10 0)
(6.33176e-11 -9.11069e-10 0)
(0 0 0)
(0 0 0)
(0 0 0)
(1.73873e-11 -8.35185e-10 0)
(5.6719e-11 -8.57777e-10 0)
(7.84947e-11 -8.56297e-10 0)
(8.95468e-11 -8.82714e-10 0)
(6.63409e-11 -9.61104e-10 0)
(-3.41127e-11 -9.48719e-10 0)
(0 0 0)
(-1.40258e-12 -8.4851e-10 0)
(6.77858e-12 -8.72955e-10 0)
(3.52573e-09 5.56114e-08 0)
(1.89819e-09 3.06521e-09 0)
(-2.63778e-10 1.92491e-10 0)
(2.62794e-11 -7.17406e-10 0)
(3.42758e-11 -8.11474e-10 0)
(2.29347e-11 -8.94671e-10 0)
(7.06354e-11 -8.81886e-10 0)
(1.05062e-10 -8.42402e-10 0)
(3.6478e-11 -8.57703e-10 0)
(0 0 0)
(6.9124e-12 -8.6521e-10 0)
(-2.67945e-11 -8.69774e-10 0)
(-2.81094e-11 -8.18007e-10 0)
(-2.17345e-11 -8.05119e-10 0)
(-1.01423e-11 -8.37869e-10 0)
(1.57762e-11 -8.82025e-10 0)
(8.57116e-11 -2.00622e-09 0)
(3.59606e-11 -7.9631e-10 0)
(2.97911e-11 -7.82452e-10 0)
(0 0 0)
(7.91355e-11 -8.20706e-10 0)
(5.92992e-11 -8.42639e-10 0)
(2.46867e-11 -8.26935e-10 0)
(0 0 0)
(0 0 0)
(-2.7313e-11 -1.94438e-09 0)
(0 0 0)
(4.64367e-11 -1.06458e-09 0)
(7.54796e-11 -1.47565e-09 0)
(-5.35476e-11 -7.35447e-10 0)
(-4.72481e-12 -7.80839e-10 0)
(8.43273e-13 -8.15846e-10 0)
(-1.25161e-11 -8.20765e-10 0)
(-1.61562e-11 -8.36651e-10 0)
(-1.06179e-11 -6.47516e-10 0)
(4.15677e-11 -8.54608e-10 0)
(-1.02214e-10 -2.46404e-09 0)
(0 0 0)
(-1.85231e-11 -6.67858e-10 0)
(2.01335e-11 -7.86064e-10 0)
(6.29301e-11 -8.28455e-10 0)
(2.00892e-11 -2.2634e-09 0)
(0 0 0)
(1.16344e-12 -8.33559e-10 0)
(5.69967e-13 -7.57639e-10 0)
(3.02852e-11 -7.84534e-10 0)
(4.07682e-11 -8.08078e-10 0)
(-1.50534e-11 -8.49043e-10 0)
(0 0 0)
(-6.55377e-11 -1.95613e-09 0)
(1.14e-11 -7.85759e-10 0)
(-1.76287e-11 -8.6892e-10 0)
(-1.72076e-11 -8.06126e-10 0)
(-5.8313e-11 -8.01405e-10 0)
(-3.53235e-11 -8.15752e-10 0)
(-7.48312e-12 -8.31455e-10 0)
(0 0 0)
(-1.74652e-11 -8.03198e-10 0)
(8.07502e-13 -8.31256e-10 0)
(0 0 0)
(4.08263e-11 -8.40872e-10 0)
(3.76767e-11 -4.04175e-10 0)
(1.80049e-11 -1.83669e-10 0)
(-2.49771e-11 -9.4962e-10 0)
(3.80364e-12 -8.67448e-10 0)
(3.94391e-11 -8.41436e-10 0)
(5.66184e-11 -7.96583e-10 0)
(5.23419e-11 -7.90677e-10 0)
(6.4842e-11 -8.01806e-10 0)
(7.59202e-11 -8.1914e-10 0)
(1.56267e-10 -2.42433e-09 0)
(1.31563e-12 -8.37311e-10 0)
(1.70748e-12 -1.68645e-09 0)
(-2.8056e-11 -1.08617e-09 0)
(-6.53627e-11 -1.37742e-09 0)
(2.54735e-09 5.75157e-08 0)
(2.06768e-09 1.56278e-09 0)
(8.00541e-11 2.60966e-10 0)
(5.80271e-11 -7.80635e-10 0)
(2.4075e-12 -8.06313e-10 0)
(2.41492e-11 -9.16985e-10 0)
(6.14488e-11 -8.30387e-10 0)
(6.95835e-11 -8.71319e-10 0)
(5.94269e-12 -1.19135e-10 0)
(3.3875e-11 -6.50227e-10 0)
(1.04745e-11 -8.82161e-10 0)
(-3.68467e-12 -9.01232e-10 0)
(1.62185e-11 -8.47515e-10 0)
(0 0 0)
(0 0 0)
(-1.28031e-11 -8.98481e-10 0)
(6.20277e-11 -1.82495e-09 0)
(8.51672e-12 -7.91119e-10 0)
(3.83686e-11 -8.27125e-10 0)
(9.19635e-11 -8.44918e-10 0)
(7.62867e-12 -7.71601e-10 0)
(2.42017e-11 -8.17823e-10 0)
(6.73582e-11 -8.78319e-10 0)
(3.68242e-11 -8.43723e-10 0)
(-7.81771e-12 -1.86841e-09 0)
(-5.22718e-13 -3.96362e-11 0)
(-1.90374e-11 -1.7592e-09 0)
(-2.99073e-12 -7.48137e-10 0)
(-4.1942e-11 -7.76764e-10 0)
(-1.31162e-11 -8.20685e-10 0)
(-2.61242e-11 -7.73118e-10 0)
(-2.37915e-11 -8.30698e-10 0)
(-1.01125e-11 -8.36517e-10 0)
(-2.36309e-11 -7.42495e-10 0)
(-5.16548e-11 -7.18658e-10 0)
(-5.35129e-11 -1.03574e-09 0)
(-5.23372e-11 -1.02289e-09 0)
(4.79915e-11 -1.23072e-09 0)
(1.57082e-11 -1.02014e-09 0)
(1.53861e-11 -7.13932e-10 0)
(5.25471e-11 -7.72003e-10 0)
(-1.75797e-11 -1.41342e-09 0)
(1.2667e-10 -1.69254e-09 0)
(0 0 0)
(3.51724e-11 -7.27871e-10 0)
(3.91231e-11 -7.52448e-10 0)
(5.25848e-11 -8.05216e-10 0)
(0 0 0)
(-2.64803e-11 -1.82405e-09 0)
(-3.95553e-11 -7.75193e-10 0)
(-2.57078e-11 -8.1404e-10 0)
(-1.66742e-11 -9.00449e-10 0)
(2.90106e-11 -1.79813e-09 0)
(-6.12961e-11 -7.96915e-10 0)
(-3.40725e-11 -8.60174e-10 0)
(-3.10426e-11 -8.68087e-10 0)
(6.17298e-12 -8.53682e-10 0)
(5.13069e-11 -8.95181e-10 0)
(-6.93434e-12 -8.62199e-10 0)
(1.60828e-11 -8.03093e-10 0)
(0 0 0)
(6.23768e-11 -6.5109e-10 0)
(1.50581e-10 -2.13382e-09 0)
(8.13495e-11 -9.23349e-10 0)
(0 0 0)
(3.59434e-11 -8.55773e-10 0)
(2.79129e-11 -8.86949e-10 0)
(2.4064e-11 -7.99215e-10 0)
(2.30616e-11 -7.68557e-10 0)
(2.23902e-11 -8.10081e-10 0)
(-1.32884e-10 -3.58447e-09 0)
(4.96363e-11 -8.27092e-10 0)
(-1.77808e-11 -1.7737e-09 0)
(2.2965e-11 -7.99797e-10 0)
(-1.00613e-10 -7.29891e-10 0)
(-1.00084e-08 3.56146e-08 0)
(1.66681e-10 6.21004e-09 0)
(4.91426e-10 2.65085e-11 0)
(7.56212e-11 -8.54016e-10 0)
(3.18682e-11 -8.51149e-10 0)
(-4.95735e-12 -7.7605e-10 0)
(1.47037e-11 -8.88208e-10 0)
(9.83406e-11 -8.71056e-10 0)
(0 0 0)
(0 0 0)
(-2.67824e-11 -8.5273e-10 0)
(0 0 0)
(1.67445e-11 -1.81289e-09 0)
(4.68688e-11 -7.6911e-10 0)
(-3.9156e-11 -1.87482e-09 0)
(-7.67185e-11 -2.13251e-09 0)
(-5.51634e-11 -2.46198e-09 0)
(1.67478e-11 -7.28148e-10 0)
(3.70707e-11 -7.9814e-10 0)
(2.57085e-11 -7.78479e-10 0)
(4.3928e-11 -1.77388e-09 0)
(3.21183e-11 -6.94908e-10 0)
(6.36715e-11 -8.19642e-10 0)
(3.81384e-11 -7.95224e-10 0)
(-1.97814e-12 -8.19475e-10 0)
(-2.75917e-11 -1.92292e-09 0)
(0 0 0)
(8.52212e-11 -1.74925e-09 0)
(3.74631e-11 -6.96453e-10 0)
(9.35368e-12 -7.38268e-10 0)
(-5.77091e-12 -7.63995e-10 0)
(-3.80756e-12 -8.14066e-10 0)
(-1.61256e-11 -8.0972e-10 0)
(-4.64627e-11 -1.92387e-09 0)
(-9.01675e-11 -8.32562e-10 0)
(0 0 0)
(-1.16515e-10 -2.0623e-09 0)
(-4.81153e-12 -1.32945e-09 0)
(5.14712e-12 -2.68494e-10 0)
(-2.63783e-12 -1.57035e-09 0)
(1.35178e-11 -9.67674e-10 0)
(0 0 0)
(1.03206e-10 -2.30435e-09 0)
(4.78535e-11 -8.0183e-10 0)
(3.70646e-11 -7.05728e-10 0)
(2.63322e-11 -7.32491e-10 0)
(5.26193e-11 -7.75829e-10 0)
(-5.15178e-12 -1.33806e-09 0)
(-1.09311e-12 -2.21519e-10 0)
(-6.22913e-12 -7.77672e-10 0)
(-7.00708e-11 -2.05042e-09 0)
(0 0 0)
(-2.67126e-11 -8.21329e-10 0)
(0 0 0)
(-4.21721e-11 -8.20904e-10 0)
(-7.11192e-12 -8.46133e-10 0)
(-1.60002e-11 -8.20553e-10 0)
(7.93579e-12 -2.24327e-09 0)
(2.56818e-11 -7.97105e-10 0)
(2.77204e-11 -7.24011e-10 0)
(5.57999e-12 -1.58555e-09 0)
(3.24436e-11 -1.53858e-09 0)
(-1.60703e-11 -2.60949e-09 0)
(7.29669e-11 -6.029e-10 0)
(1.35849e-10 -8.38497e-10 0)
(1.05548e-11 -8.70084e-10 0)
(4.7351e-13 -8.40775e-10 0)
(3.94056e-12 -8.07508e-10 0)
(4.43473e-11 -1.31165e-09 0)
(2.33785e-11 -1.26486e-09 0)
(-1.20295e-12 -1.5455e-11 0)
(-1.70823e-10 -1.91779e-09 0)
(-9.67159e-11 -1.66617e-09 0)
(-4.82884e-11 -2.22544e-09 0)
(0 0 0)
(-4.7826e-09 4.35509e-08 0)
(2.55039e-10 5.04093e-09 0)
(4.28694e-10 -9.56988e-10 0)
(6.73951e-11 -1.45144e-09 0)
(2.45842e-10 -1.93888e-09 0)
(2.09037e-11 -1.13283e-09 0)
(-8.77665e-12 -5.81596e-10 0)
(0 0 0)
(0 0 0)
(6.93805e-11 -8.68471e-10 0)
(-6.62518e-11 -1.70889e-09 0)
(1.8086e-11 -1.73182e-09 0)
(2.28177e-11 -7.33508e-10 0)
(0 0 0)
(0 0 0)
(0 0 0)
(1.17741e-11 -8.07956e-10 0)
(5.05634e-11 -7.52302e-10 0)
(-1.56666e-11 -1.83515e-09 0)
(1.61212e-11 -7.70724e-10 0)
(4.44666e-11 -1.62752e-09 0)
(-2.29115e-11 -1.19136e-09 0)
(-9.81591e-12 -1.36805e-10 0)
(-2.479e-11 -2.23707e-09 0)
(-1.29849e-11 -7.75383e-10 0)
(-7.74967e-12 -7.35164e-10 0)
(2.38002e-11 -6.85377e-10 0)
(1.06259e-11 -7.02337e-10 0)
(1.93364e-10 -1.83694e-09 0)
(6.83508e-11 -8.94022e-10 0)
(7.31113e-12 -8.17958e-10 0)
(1.4019e-11 -9.24677e-10 0)
(0 0 0)
(0 0 0)
(-5.05122e-11 -8.73748e-10 0)
(-6.35249e-11 -8.66802e-10 0)
(-3.79773e-11 -8.5551e-10 0)
(-1.5e-11 -8.17054e-10 0)
(-2.2792e-11 -7.84978e-10 0)
(-2.87761e-11 -8.04812e-10 0)
(2.34578e-12 -9.27639e-10 0)
(6.77088e-11 -9.94116e-10 0)
(-4.18314e-11 -9.87985e-10 0)
(0 0 0)
(1.01412e-10 -1.6696e-09 0)
(3.40831e-11 -7.27976e-10 0)
(9.63238e-11 -1.9153e-09 0)
(-3.85001e-13 -7.84033e-10 0)
(5.81632e-12 -7.64947e-10 0)
(5.13353e-12 -7.95713e-10 0)
(-6.56331e-11 -9.69938e-10 0)
(0 0 0)
(-1.4259e-11 -8.11021e-10 0)
(-3.1909e-11 -8.21586e-10 0)
(0 0 0)
(-3.63243e-11 -8.5721e-10 0)
(-4.83317e-11 -8.64384e-10 0)
(-2.59139e-11 -8.5976e-10 0)
(7.60457e-11 -1.93646e-09 0)
(7.56749e-11 -1.71382e-09 0)
(-2.98975e-11 -7.32534e-10 0)
(-1.57398e-10 -1.60911e-09 0)
(-2.76331e-10 -2.60472e-09 0)
(-5.32511e-13 -2.25307e-09 0)
(1.63946e-10 -2.64038e-09 0)
(3.1249e-11 -7.4013e-10 0)
(9.70489e-11 -1.82119e-09 0)
(-5.1582e-11 -7.92752e-10 0)
(0 0 0)
(4.98801e-11 -2.05405e-09 0)
(-9.98769e-11 -1.33583e-09 0)
(-4.63565e-11 -7.26635e-10 0)
(-6.01663e-11 -5.69438e-10 0)
(-6.84865e-11 -9.15991e-10 0)
(0 0 0)
(2.98043e-09 5.44729e-08 0)
(2.39946e-09 8.02564e-09 0)
(8.46558e-10 4.11332e-10 0)
(1.21773e-10 -6.60802e-10 0)
(5.27666e-11 -1.01737e-09 0)
(5.02528e-11 -8.83913e-10 0)
(1.20356e-10 -1.57855e-09 0)
(7.703e-11 -6.34999e-10 0)
(1.25749e-10 -2.37444e-09 0)
(0 0 0)
(0 0 0)
(-2.92369e-11 -7.40915e-10 0)
(3.47989e-11 -7.0352e-10 0)
(-3.2968e-11 -2.01997e-09 0)
(-3.98798e-11 -1.9162e-09 0)
(-9.15876e-12 -7.12442e-10 0)
(-2.34028e-11 -7.14705e-10 0)
(-4.38738e-11 -1.87871e-09 0)
(-2.03274e-11 -1.63148e-09 0)
(-4.24577e-11 -1.55305e-09 0)
(-5.12359e-11 -1.70789e-09 0)
(0 0 0)
(-4.47719e-11 -7.92717e-10 0)
(0 0 0)
(1.97303e-11 -3.03309e-10 0)
(1.63688e-11 -2.4691e-10 0)
(2.33682e-11 -8.11122e-10 0)
(-6.01696e-13 -7.88121e-10 0)
(-3.603e-11 -1.05252e-09 0)
(3.01484e-11 -1.6403e-09 0)
(0 0 0)
(1.75516e-11 -7.88284e-10 0)
(6.05315e-12 -8.29052e-10 0)
(3.65297e-11 -9.21755e-10 0)
(-6.78386e-11 -9.92974e-10 0)
(-6.26329e-11 -8.68142e-10 0)
(-4.88652e-11 -8.0262e-10 0)
(-1.8168e-11 -7.77271e-10 0)
(-2.10726e-11 -7.45661e-10 0)
(-1.51161e-11 -7.8873e-10 0)
(1.16071e-11 -9.65209e-10 0)
(1.93625e-11 -1.08469e-09 0)
(1.64312e-11 -9.04464e-10 0)
(4.68785e-11 -8.22099e-10 0)
(3.03732e-11 -7.81891e-10 0)
(6.61245e-11 -1.77254e-09 0)
(4.72707e-11 -7.93308e-10 0)
(7.01297e-11 -7.82615e-10 0)
(-8.0469e-11 -8.53759e-10 0)
(-2.7667e-11 -9.93803e-10 0)
(0 0 0)
(4.01012e-11 -8.39401e-10 0)
(5.12026e-12 -8.08261e-10 0)
(0 0 0)
(-7.39144e-12 -8.38411e-10 0)
(-1.90209e-11 -8.27232e-10 0)
(-3.18045e-11 -8.26346e-10 0)
(0 0 0)
(4.592e-11 -8.23258e-10 0)
(-3.61131e-11 -8.14477e-10 0)
(-4.47324e-11 -7.81e-10 0)
(0 0 0)
(0 0 0)
(0 0 0)
(-1.99807e-10 -1.92571e-09 0)
(1.96617e-11 -1.62916e-09 0)
(5.41405e-11 -4.25777e-09 0)
(1.56696e-11 -1.55469e-09 0)
(0 0 0)
(-5.42872e-12 -1.0918e-09 0)
(0 0 0)
(-1.68902e-11 -9.76284e-10 0)
(-1.30577e-12 -1.68396e-09 0)
(2.84813e-11 -7.30841e-10 0)
(0 0 0)
(7.97996e-09 5.81903e-08 0)
(2.05454e-09 3.14871e-09 0)
(4.20897e-10 2.28168e-09 0)
(-7.59651e-12 -7.36191e-10 0)
(5.4671e-11 -8.36495e-10 0)
(1.79687e-10 -2.0242e-09 0)
(5.02476e-11 -7.41964e-10 0)
(1.53629e-11 -1.829e-09 0)
(5.82897e-11 -7.96333e-10 0)
(9.07721e-11 -9.02006e-10 0)
(2.01048e-11 -8.63785e-10 0)
(-2.5892e-11 -7.90266e-10 0)
(-5.86351e-11 -7.34949e-10 0)
(-4.18184e-11 -9.16014e-10 0)
(0 0 0)
(9.41988e-11 -1.82904e-09 0)
(-4.05447e-11 -1.6923e-09 0)
(0 0 0)
(-7.02721e-12 -7.9988e-10 0)
(0 0 0)
(0 0 0)
(2.58289e-11 -1.62626e-09 0)
(1.42025e-11 -7.23115e-10 0)
(-5.90563e-12 -7.86561e-10 0)
(9.44474e-12 -8.76912e-10 0)
(2.3358e-11 -7.44465e-10 0)
(8.17402e-12 -8.48621e-10 0)
(3.1156e-12 -8.14046e-10 0)
(2.55173e-12 -7.95628e-10 0)
(1.63911e-11 -8.18126e-10 0)
(5.44303e-11 -8.14809e-10 0)
(0 0 0)
(-3.38948e-11 -8.28462e-10 0)
(-6.56083e-11 -2.37303e-09 0)
(0 0 0)
(-1.70681e-11 -7.95378e-10 0)
(-2.09077e-11 -7.87585e-10 0)
(-6.8153e-11 -1.78952e-09 0)
(1.07062e-12 -6.90247e-10 0)
(-4.47791e-11 -7.11895e-10 0)
(-7.78102e-11 -8.37611e-10 0)
(-6.15244e-11 -9.40454e-10 0)
(5.32741e-12 -9.52475e-10 0)
(2.66488e-11 -8.74442e-10 0)
(1.93186e-11 -7.91523e-10 0)
(4.1402e-11 -7.30708e-10 0)
(8.07262e-11 -7.87859e-10 0)
(3.59574e-14 -2.26896e-09 0)
(0 0 0)
(-7.90689e-11 -8.61561e-10 0)
(5.80953e-11 -9.10115e-10 0)
(0 0 0)
(0 0 0)
(1.62012e-10 -1.84746e-09 0)
(-2.79572e-11 -2.02057e-09 0)
(-9.00425e-12 -7.62111e-10 0)
(-3.60096e-11 -7.63529e-10 0)
(0 0 0)
(-1.93287e-11 -7.84702e-10 0)
(-4.80094e-11 -1.27686e-09 0)
(-1.15567e-11 -2.78518e-10 0)
(-7.69753e-11 -8.22633e-10 0)
(-7.10849e-11 -8.22072e-10 0)
(-1.41434e-10 -1.848e-09 0)
(0 0 0)
(0 0 0)
(-9.94431e-11 -8.82461e-10 0)
(-4.96913e-11 -8.66034e-10 0)
(-5.5187e-11 -8.28318e-10 0)
(-8.0206e-11 -8.60544e-10 0)
(3.54739e-11 -2.40919e-09 0)
(1.30993e-10 -1.74405e-09 0)
(5.00247e-11 -6.6247e-10 0)
(1.51057e-10 -1.66755e-09 0)
(1.02165e-10 -7.74425e-10 0)
(6.72055e-09 4.25148e-08 0)
(1.35654e-09 2.33232e-09 0)
(1.16347e-09 6.90513e-10 0)
(1.85567e-10 -1.31796e-09 0)
(7.27733e-11 -8.41196e-10 0)
(1.98851e-10 -2.11113e-09 0)
(1.37181e-11 -8.26434e-10 0)
(-2.55919e-11 -7.80355e-10 0)
(3.87516e-12 -1.83793e-09 0)
(1.69228e-10 -2.28666e-09 0)
(3.26017e-11 -7.81198e-10 0)
(1.30321e-12 -1.74352e-09 0)
(0 0 0)
(-3.76921e-11 -7.59333e-10 0)
(-1.50286e-11 -8.84846e-10 0)
(1.35911e-11 -8.0431e-10 0)
(0 0 0)
(0 0 0)
(7.90556e-12 -8.54731e-10 0)
(6.07408e-12 -1.7634e-09 0)
(0 0 0)
(0 0 0)
(-1.45089e-11 -7.79522e-10 0)
(-3.87522e-11 -1.78747e-09 0)
(2.76287e-12 -1.03695e-10 0)
(1.93889e-11 -6.94506e-10 0)
(1.84376e-11 -8.61096e-10 0)
(2.95711e-11 -8.45734e-10 0)
(5.65145e-12 -8.03806e-10 0)
(-2.26262e-11 -1.945e-09 0)
(-1.74575e-13 -1.00767e-09 0)
(0 0 0)
(-4.69421e-11 -1.867e-09 0)
(-5.93984e-11 -8.09388e-10 0)
(1.083e-11 -4.60886e-10 0)
(8.62655e-13 -4.04253e-11 0)
(-3.65442e-11 -1.92132e-09 0)
(0 0 0)
(-5.8857e-11 -1.64704e-09 0)
(-5.17363e-11 -7.30996e-10 0)
(-4.91094e-11 -8.36778e-10 0)
(-1.43483e-11 -8.99555e-10 0)
(5.38162e-12 -9.18719e-10 0)
(3.78036e-12 -8.6879e-10 0)
(-3.0117e-11 -7.62295e-10 0)
(9.34387e-12 -7.43449e-10 0)
(1.04772e-11 -2.18308e-09 0)
(-4.45293e-11 -9.17966e-10 0)
(1.90827e-11 -7.83393e-10 0)
(4.26574e-11 -7.64217e-10 0)
(5.76313e-11 -7.85825e-10 0)
(0 0 0)
(8.83502e-11 -8.80514e-10 0)
(8.55006e-11 -8.59531e-10 0)
(-3.98793e-11 -8.51089e-10 0)
(-1.62221e-11 -8.82053e-10 0)
(-8.90243e-12 -3.04352e-10 0)
(-7.44232e-12 -2.49064e-10 0)
(-4.88039e-11 -8.41788e-10 0)
(-4.02342e-11 -8.45233e-10 0)
(-3.07992e-11 -8.63155e-10 0)
(0 0 0)
(-5.78285e-11 -8.13772e-10 0)
(-4.49054e-11 -8.4933e-10 0)
(0 0 0)
(-7.61806e-11 -8.44911e-10 0)
(0 0 0)
(-5.77216e-12 -8.75221e-10 0)
(0 0 0)
(0 0 0)
(0 0 0)
(4.7613e-11 -9.29547e-10 0)
(7.60094e-11 -8.22065e-10 0)
(-2.53087e-11 -9.74794e-10 0)
(-8.53702e-12 -1.05694e-09 0)
(7.53026e-09 5.12209e-08 0)
(1.54694e-09 2.94292e-09 0)
(3.65546e-10 2.59984e-10 0)
(7.37641e-11 -7.52252e-10 0)
(9.97424e-11 -8.36391e-10 0)
(8.13132e-11 -1.01571e-09 0)
(-3.05876e-12 -1.04889e-09 0)
(3.8977e-12 -1.94234e-09 0)
(-3.30007e-11 -7.62923e-10 0)
(-4.14882e-11 -8.71542e-10 0)
(4.17664e-11 -8.69284e-10 0)
(5.04654e-11 -1.83795e-09 0)
(1.21184e-11 -7.1627e-10 0)
(1.38339e-11 -7.52211e-10 0)
(0 0 0)
(1.38985e-11 -8.48466e-10 0)
(2.39273e-11 -9.00018e-10 0)
(0 0 0)
(1.66192e-12 -8.61863e-10 0)
(0 0 0)
(4.28861e-11 -8.2045e-10 0)
(1.18475e-11 -8.33963e-10 0)
(0 0 0)
(0 0 0)
(0 0 0)
(0 0 0)
(2.04039e-12 -8.4245e-10 0)
(4.66598e-11 -1.94541e-09 0)
(-3.30114e-11 -7.75391e-10 0)
(-1.04181e-10 -1.84824e-09 0)
(-5.64761e-11 -8.35647e-10 0)
(3.48699e-12 -8.42617e-10 0)
(2.70826e-12 -9.58727e-10 0)
(0 0 0)
(-4.99217e-11 -9.07155e-10 0)
(6.12623e-12 -1.90318e-09 0)
(-6.67034e-11 -7.90626e-10 0)
(-2.17471e-11 -1.61368e-09 0)
(-8.84447e-11 -1.66054e-09 0)
(0 0 0)
(-5.56922e-11 -8.37373e-10 0)
(-1.8255e-11 -9.04512e-10 0)
(1.98677e-11 -9.01523e-10 0)
(-1.167e-11 -9.25001e-10 0)
(-1.76623e-10 -2.02543e-09 0)
(-8.43672e-11 -7.43083e-10 0)
(-3.04936e-11 -8.16796e-10 0)
(-3.86394e-11 -1.92595e-09 0)
(5.56111e-11 -7.56332e-10 0)
(8.00855e-11 -1.77637e-09 0)
(5.1519e-11 -6.71045e-10 0)
(7.96894e-11 -6.52188e-10 0)
(3.9406e-11 -8.17148e-10 0)
(6.47355e-11 -9.97226e-10 0)
(0 0 0)
(2.34038e-11 -8.08914e-10 0)
(-6.94479e-12 -8.12118e-10 0)
(-1.3741e-11 -8.52165e-10 0)
(0 0 0)
(-1.55307e-11 -8.44037e-10 0)
(-4.19002e-11 -8.45815e-10 0)
(-5.782e-11 -8.67343e-10 0)
(0 0 0)
(-4.5741e-11 -8.70089e-10 0)
(-4.08757e-11 -8.23482e-10 0)
(-4.66589e-11 -7.94005e-10 0)
(-1.72641e-11 -8.25073e-10 0)
(0 0 0)
(0 0 0)
(-1.3188e-11 -8.94849e-10 0)
(-2.11077e-11 -9.85768e-10 0)
(1.61773e-10 -1.91857e-09 0)
(4.41439e-11 -8.27384e-10 0)
(-4.03712e-11 -9.18062e-10 0)
(-5.6023e-11 -9.24944e-10 0)
(4.69847e-09 4.19069e-08 0)
(2.36388e-09 5.54829e-09 0)
(2.30845e-10 -1.90627e-10 0)
(1.07023e-11 -5.7022e-10 0)
(3.7131e-11 -7.83648e-10 0)
(9.88114e-11 -2.54399e-09 0)
(-4.57879e-12 -9.38454e-10 0)
(-1.24038e-11 -7.72886e-10 0)
(-2.78278e-11 -7.81478e-10 0)
(-1.18969e-11 -8.46412e-10 0)
(7.48334e-11 -1.98011e-09 0)
(9.95097e-12 -7.44794e-10 0)
(5.31757e-12 -7.4092e-10 0)
(3.48511e-11 -8.07182e-10 0)
(3.97613e-11 -9.01847e-10 0)
(0 0 0)
(0 0 0)
(0 0 0)
(0 0 0)
(-2.27799e-13 -8.66585e-10 0)
(3.27252e-11 -8.50784e-10 0)
(7.16276e-11 -8.63408e-10 0)
(6.50959e-11 -8.53661e-10 0)
(6.63097e-11 -8.46852e-10 0)
(3.75691e-11 -8.1908e-10 0)
(-4.23307e-12 -7.7538e-10 0)
(3.63729e-11 -1.72896e-09 0)
(-1.85222e-12 -8.15356e-10 0)
(0 0 0)
(0 0 0)
(-6.93076e-11 -1.75266e-09 0)
(-1.56447e-11 -7.66459e-10 0)
(3.69397e-11 -9.44194e-10 0)
(-4.63005e-11 -9.75417e-10 0)
(-4.27569e-11 -8.417e-10 0)
(0 0 0)
(-2.88789e-11 -8.11383e-10 0)
(-4.31367e-11 -8.27204e-10 0)
(0 0 0)
(-6.28218e-11 -8.46096e-10 0)
(-4.39491e-11 -8.72004e-10 0)
(3.06625e-11 -9.35717e-10 0)
(0 0 0)
(-1.82117e-12 -9.90177e-10 0)
(-4.08982e-11 -8.67586e-10 0)
(0 0 0)
(0 0 0)
(0 0 0)
(1.96512e-11 -9.36729e-10 0)
(1.95004e-11 -8.66821e-10 0)
(6.98562e-11 -1.74804e-09 0)
(0 0 0)
(1.2801e-12 -6.50118e-10 0)
(1.07578e-10 -2.00185e-09 0)
(1.43343e-10 -1.03813e-09 0)
(6.6674e-11 -9.41335e-10 0)
(0 0 0)
(4.0786e-13 -7.74518e-10 0)
(-1.50228e-11 -8.10072e-10 0)
(-1.42748e-11 -8.31712e-10 0)
(0 0 0)
(0 0 0)
(-5.70076e-11 -8.70188e-10 0)
(-4.7913e-11 -8.68051e-10 0)
(-4.94294e-11 -8.43358e-10 0)
(-1.52739e-10 -1.80509e-09 0)
(-1.29251e-11 -7.46556e-10 0)
(1.98117e-11 -7.74049e-10 0)
(3.85071e-11 -8.3134e-10 0)
(0 0 0)
(-8.60534e-12 -1.99528e-09 0)
(-3.08066e-11 -1.83598e-09 0)
(2.28374e-11 -9.05596e-10 0)
(0 0 0)
(-6.74644e-11 -1.03151e-09 0)
(1.0614e-08 4.20707e-08 0)
(2.7926e-09 3.94276e-09 0)
(2.57989e-10 -7.55064e-10 0)
(3.81987e-11 -8.10349e-10 0)
(2.67894e-11 -8.98917e-10 0)
(2.73165e-11 -1.17911e-09 0)
(4.4312e-12 -1.02479e-09 0)
(-3.84217e-12 -8.71667e-10 0)
(-1.24682e-11 -8.49879e-10 0)
(-3.0627e-12 -8.77755e-10 0)
(-1.56683e-11 -8.32094e-10 0)
(1.67834e-11 -8.18918e-10 0)
(-7.32535e-12 -7.32271e-10 0)
(4.60767e-12 -7.31791e-10 0)
(-3.07273e-11 -7.16717e-10 0)
(0 0 0)
(8.08565e-11 -8.96762e-10 0)
(0 0 0)
(3.72237e-11 -8.8159e-10 0)
(4.6338e-11 -8.47332e-10 0)
(4.92499e-11 -7.71487e-10 0)
(5.12809e-11 -7.92476e-10 0)
(1.46537e-10 -1.7835e-09 0)
(3.78407e-11 -1.73061e-09 0)