/*--------------------------------*- C++ -*----------------------------------*\
  =========                 |
  \\      /  F ield         | OpenFOAM: The Open Source CFD Toolbox
   \\    /   O peration     | Website:  https://openfoam.org
    \\  /    A nd           | Version:  12
     \\/     M anipulation  |
\*---------------------------------------------------------------------------*/
FoamFile
{
    format      ascii;
    class       volScalarField::Internal;
    location    "0.95";
    object      cloud:UCoeff;
}
// * * * * * * * * * * * * * * * * * * * * * * * * * * * * * * * * * * * * * //

dimensions      [1 0 0 0 0 0 0];

value           nonuniform List<scalar> 
3750
(
7.55686e-05
1.61589e-06
2.20892e-07
2.04403e-08
0
2.57302e-08
0
2.52442e-08
2.44493e-08
2.47429e-08
2.38868e-08
2.22087e-08
2.20153e-08
5.63724e-08
2.35325e-08
2.39648e-08
2.4099e-08
2.48178e-08
0
2.38461e-08
0
2.34864e-08
0
0
2.34489e-08
0
5.51164e-08
2.30836e-08
2.44099e-08
0
2.46166e-08
0
2.44754e-08
2.29601e-08
2.43499e-08
0
2.41152e-08
2.12752e-08
2.47223e-08
2.4814e-08
0
2.38228e-08
5.74044e-08
2.37495e-08
2.35614e-08
5.57866e-08
0
0
2.4589e-08
5.90047e-08
2.4133e-08
2.42588e-08
6.10265e-08
5.79161e-08
2.18626e-08
2.20608e-08
3.5305e-08
1.04398e-08
2.36175e-08
2.32348e-08
2.36121e-08
2.37393e-08
2.32091e-08
2.44377e-08
2.40758e-08
2.48327e-08
2.46944e-08
2.48922e-08
0
2.43428e-08
5.70214e-08
2.44754e-08
5.65523e-08
0
2.45083e-08
0.000155415
4.04166e-07
6.92995e-08
2.21879e-08
0
2.46417e-08
2.46652e-08
2.41546e-08
2.45199e-08
0
5.6626e-08
2.32151e-08
5.44823e-08
5.72607e-08
2.36876e-08
6.5092e-09
4.65889e-08
2.48195e-08
0
0
5.84651e-08
2.43763e-08
0
2.47171e-08
2.34104e-08
3.54271e-08
3.78502e-08
4.21886e-08
3.67109e-09
0
2.60633e-08
0
0
2.49369e-08
1.00712e-07
2.38259e-08
2.37007e-08
1.02975e-07
0
0
2.45107e-08
0
2.29927e-08
9.83783e-08
2.3637e-08
2.36655e-08
2.40081e-08
2.56884e-08
0
0
6.2484e-08
0
0
0
5.73264e-08
5.78817e-08
5.753e-08
2.31186e-08
2.28206e-08
2.37487e-08
5.81793e-08
2.26124e-08
9.74148e-08
5.57571e-08
2.29415e-08
2.36704e-08
0
2.46037e-08
2.46104e-08
2.49578e-08
2.48294e-08
2.37926e-08
2.42025e-08
2.42319e-08
0
3.77087e-06
9.80032e-07
7.06462e-08
2.41775e-08
0
2.45202e-08
2.49989e-08
0
2.41985e-08
0
5.6008e-08
2.25962e-08
3.78067e-09
4.86451e-08
0
3.18912e-08
9.19738e-08
2.2122e-08
0
0
2.39451e-08
2.36557e-08
0
0
0
2.30492e-08
5.67964e-08
2.19549e-08
2.38448e-08
2.50244e-08
2.42072e-08
2.38999e-08
5.60812e-08
2.43292e-08
0
5.47654e-08
5.42091e-08
1.06037e-07
0
2.16433e-08
2.41e-08
2.39218e-08
2.4566e-08
2.40213e-08
5.44018e-08
0
2.37239e-08
0
6.63237e-08
9.51611e-08
2.44668e-08
0
0
2.46524e-08
5.74361e-08
2.39271e-08
2.30822e-08
2.358e-08
0
2.42647e-08
5.80976e-08
2.28966e-08
2.41159e-08
2.44231e-08
2.452e-08
0
2.46829e-08
0
0
2.46147e-08
0
2.49159e-08
5.82508e-08
2.33014e-08
2.40096e-08
1.11677e-05
7.7916e-07
6.88902e-08
2.17465e-08
2.37435e-08
2.60405e-08
2.5146e-08
2.2936e-08
2.25754e-08
0
2.33084e-08
2.29222e-08
0
2.34255e-08
2.63435e-08
0
2.44719e-08
2.25502e-08
2.37488e-08
0
2.42874e-08
2.33071e-08
2.31485e-08
5.72582e-08
0
5.50522e-08
2.31589e-08
2.29337e-08
2.29626e-08
2.42774e-08
2.37393e-08
2.37384e-08
2.358e-08
5.57868e-08
5.46869e-08
2.34172e-08
2.34762e-08
5.9289e-08
5.70185e-08
2.36348e-08
0
2.45384e-08
2.37618e-08
0
2.4301e-08
2.42073e-08
0
5.57279e-08
2.24714e-08
5.69279e-08
6.18049e-08
2.37063e-08
0
5.79681e-08
2.30775e-08
5.80895e-08
2.26216e-08
2.39078e-08
2.46586e-08
2.42236e-08
4.36523e-08
3.10654e-09
0
0
5.86418e-08
2.31441e-08
2.43839e-08
2.37878e-08
2.42881e-08
0
2.48919e-08
2.46001e-08
2.40955e-08
2.3848e-08
0
1.49413e-05
6.29921e-07
1.0691e-07
2.27894e-08
2.30519e-08
6.32172e-08
2.41843e-08
2.28722e-08
5.67635e-08
7.61327e-10
5.53594e-08
0
2.41619e-08
2.44354e-08
2.44973e-08
2.51335e-08
2.45036e-08
2.36315e-08
2.31468e-08
2.38701e-08
2.36063e-08
5.71125e-08
2.19622e-08
2.28811e-08
2.35469e-08
2.35005e-08
5.723e-08
2.31632e-08
2.27698e-08
5.68039e-08
2.37984e-08
2.38941e-08
2.36907e-08
5.74465e-08
0
2.35389e-08
0
0
0
6.34086e-08
2.49764e-08
2.35303e-08
2.39629e-08
2.35682e-08
5.82981e-08
2.27867e-08
2.23675e-08
0
2.39814e-08
0
2.48966e-08
5.92404e-08
2.22001e-08
2.38678e-08
1.05475e-07
0
2.44294e-08
5.78897e-08
2.25729e-08
5.61114e-08
2.30171e-08
2.34509e-08
2.43066e-08
0
2.4667e-08
2.33274e-08
2.415e-08
2.45165e-08
2.45594e-08
2.47585e-08
0
2.48017e-08
0
2.3673e-08
2.45088e-08
2.04966e-05
1.92606e-06
3.98188e-08
2.37113e-08
2.37646e-08
2.47576e-08
2.51412e-08
2.43492e-08
2.37901e-08
2.38133e-08
2.40391e-08
2.44644e-08
2.40208e-08
2.43218e-08
5.94144e-08
2.43334e-08
3.68029e-08
4.26436e-08
2.29079e-08
2.36797e-08
2.42521e-08
2.40798e-08
2.39799e-08
2.48598e-08
0
2.4227e-08
5.86828e-08
0
0
2.26935e-08
2.51833e-08
2.15014e-08
2.39634e-08
2.37291e-08
2.38185e-08
2.47766e-08
2.49102e-08
5.98971e-08
5.7994e-08
2.41395e-08
2.51611e-08
6.11139e-08
2.53168e-08
2.33149e-08
2.30346e-08
2.30733e-08
2.44818e-08
0
5.75094e-08
0
5.84693e-08
2.42736e-08
2.39588e-08
2.38713e-08
2.48816e-08
2.47529e-08
5.94803e-08
2.3838e-08
2.33362e-08
0
2.43616e-08
2.36331e-08
2.50297e-08
0
0
0
2.41919e-08
2.44569e-08
2.44595e-08
2.47538e-08
2.55509e-08
2.5406e-08
0
2.43358e-08
2.46008e-08
8.02961e-06
7.6097e-07
2.16196e-07
2.28556e-08
2.39357e-08
2.4836e-08
2.47267e-08
2.43404e-08
2.44442e-08
0
2.45173e-08
2.45708e-08
2.40056e-08
2.38601e-08
2.42201e-08
2.46994e-08
5.94539e-08
2.37672e-08
2.36082e-08
0
2.40724e-08
2.42945e-08
2.41032e-08
0
0
5.88275e-08
0
3.192e-08
4.7237e-08
2.30842e-08
2.35836e-08
2.39763e-08
2.40319e-08
2.56576e-08
2.06185e-08
2.44132e-08
6.39393e-08
0
2.22587e-08
2.36455e-08
2.41422e-08
6.20125e-08
0
2.4172e-08
2.33185e-08
2.36319e-08
2.39013e-08
2.4343e-08
0
5.89581e-08
2.36401e-08
2.4559e-08
2.38701e-08
2.3839e-08
2.39838e-08
2.41493e-08
0
2.38374e-08
2.41467e-08
0
2.42632e-08
1.10067e-08
5.06629e-09
2.54124e-08
2.45413e-08
2.42686e-08
2.37837e-08
2.37142e-08
2.3849e-08
2.40518e-08
6.35969e-08
2.42133e-08
5.6078e-08
3.42326e-08
4.34974e-08
8.04285e-06
4.92911e-07
1.00145e-07
2.36056e-08
2.38702e-08
2.50721e-08
2.41622e-08
2.46128e-08
3.35368e-09
1.83824e-08
2.47e-08
2.49026e-08
2.43266e-08
0
0
2.48743e-08
5.75906e-08
2.37002e-08
2.4111e-08
2.43511e-08
2.34788e-08
2.40022e-08
2.46859e-08
2.42923e-08
5.80318e-08
1.22e-09
5.49577e-08
2.3209e-08
2.355e-08
2.40311e-08
2.35007e-08
2.41443e-08
2.42052e-08
2.31479e-08
2.28866e-08
2.62947e-08
2.61666e-08
3.83519e-08
3.63787e-08
2.28109e-08
2.35034e-08
3.77572e-08
4.68262e-08
0
2.29829e-08
2.32705e-08
2.3877e-08
0
5.75674e-08
2.35308e-08
2.39607e-08
2.48959e-08
5.7291e-08
2.37913e-08
2.44699e-08
2.45541e-08
2.43923e-08
2.48539e-08
2.44848e-08
2.38359e-08
0
2.20867e-08
6.07737e-08
2.51731e-08
0
2.4423e-08
2.47552e-08
2.37947e-08
2.34476e-08
2.39156e-08
1.05926e-07
2.41173e-08
5.70193e-08
2.38009e-08
2.30773e-08
3.42708e-05
1.89498e-06
1.51139e-07
2.44321e-08
2.4371e-08
2.35292e-08
2.47653e-08
2.46397e-08
0
0
2.43863e-08
0
5.74493e-08
2.34663e-08
5.81078e-08
6.7777e-08
8.62374e-08
2.29784e-08
2.37883e-08
2.35615e-08
5.7033e-08
2.25914e-08
2.40458e-08
2.37561e-08
2.40166e-08
5.86069e-08
0
5.67582e-08
2.2613e-08
2.30951e-08
2.33917e-08
2.39566e-08
2.39099e-08
5.86189e-08
2.42147e-08
0
6.00599e-08
3.92668e-08
8.2994e-09
5.4777e-08
2.55958e-08
0
6.24132e-08
2.38359e-08
2.27231e-08
2.30325e-08
2.35469e-08
4.01589e-08
6.9696e-09
2.35478e-08
5.99224e-08
0
2.40419e-08
0
2.40444e-08
2.43102e-08
2.40302e-08
6.18103e-08
2.37716e-08
2.29339e-08
5.49554e-08
5.44176e-08
9.60514e-08
2.15008e-08
2.43459e-08
2.45703e-08
2.42512e-08
2.38836e-08
3.93608e-08
3.89837e-08
4.47803e-10
5.79402e-08
5.59037e-08
6.16457e-08
0
7.99307e-06
1.12278e-06
1.58496e-07
5.34515e-08
5.89417e-08
3.17228e-08
1.71311e-08
0
0
2.45821e-08
5.63317e-08
5.65701e-08
2.3043e-08
0
0
0
2.38894e-08
2.32766e-08
5.76851e-08
2.34703e-08
5.54194e-08
3.98243e-08
4.61576e-09
6.17588e-08
2.35226e-08
2.30586e-08
2.2473e-08
2.26722e-08
5.77958e-08
2.48537e-08
2.40001e-08
2.51506e-08
0
0
2.46248e-08
2.45593e-08
2.44211e-08
2.39912e-08
2.36341e-08
2.38591e-08
2.51804e-08
2.58873e-08
2.58109e-08
0
5.59171e-08
2.29835e-08
5.85501e-08
2.36196e-08
2.34026e-08
2.37515e-08
2.56407e-08
0
2.3924e-08
2.40468e-08
0
2.44388e-08
2.45227e-08
2.44623e-08
5.87544e-08
5.63921e-08
2.30346e-08
5.5302e-08
9.61624e-08
9.20854e-08
9.64396e-08
2.31237e-08
5.75686e-08
2.3737e-08
0
5.99489e-08
3.60594e-08
2.01093e-08
1.77887e-08
2.50851e-08
0
9.35018e-06
1.14867e-06
1.87043e-07
2.61374e-08
2.61117e-08
2.47334e-08
5.49131e-08
2.19083e-08
6.30827e-08
0
0
2.31319e-08
2.26956e-08
5.95893e-08
5.85384e-08
2.27919e-08
2.28225e-08
5.85206e-08
5.50914e-08
5.46154e-08
5.6312e-08
0
2.37319e-08
0
8.87428e-09
7.33725e-09
2.39275e-08
2.36658e-08
3.1987e-08
4.86978e-08
0
2.36699e-08
2.41227e-08
2.51264e-08
2.5876e-08
2.45731e-08
2.38455e-08
2.35453e-08
2.31837e-08
2.36743e-08
2.55701e-08
2.67631e-08
2.49383e-08
2.40604e-08
2.3602e-08
5.70263e-08
2.37402e-08
2.36391e-08
2.44341e-08
2.58648e-08
0
2.42467e-08
2.3892e-08
0
2.42257e-08
2.41048e-08
2.40993e-08
0
2.40726e-08
2.397e-08
2.35998e-08
0
0
0
5.87398e-08
5.54431e-08
1.51493e-07
5.45992e-08
0
2.683e-08
0
2.56844e-08
5.60637e-08
2.30142e-08
0
6.9393e-06
7.5234e-07
3.08646e-07
2.30706e-08
2.42239e-08
5.97141e-08
2.31571e-08
5.76144e-08
2.37823e-08
2.4959e-08
2.45042e-08
2.36948e-08
2.3083e-08
2.50686e-08
0
5.76429e-08
5.6157e-08
0
2.37985e-08
0
0
5.54104e-08
2.29188e-08
2.36485e-08
2.57729e-08
2.20695e-08
2.43374e-08
2.39564e-08
2.37504e-08
2.40034e-08
2.3985e-08
0
2.41236e-08
6.30414e-08
0
2.37496e-08
2.36629e-08
5.72001e-08
2.25266e-08
2.28014e-08
2.42561e-08
2.53349e-08
2.54386e-08
2.46209e-08
2.37069e-08
2.30199e-08
2.37095e-08
6.20778e-08
0
2.45168e-08
2.5016e-08
0
0
5.7882e-08
5.9615e-08
2.33705e-08
2.33958e-08
0
2.36299e-08
3.89125e-08
8.18572e-09
2.40913e-08
2.40793e-08
5.78808e-08
0
0
2.47623e-08
2.45413e-08
2.41346e-08
2.4507e-08
6.33756e-08
5.67672e-08
2.22128e-08
5.59508e-08
2.35869e-08
7.98419e-06
3.90785e-07
4.83612e-07
5.198e-08
2.42903e-08
6.0617e-08
2.40948e-08
2.35827e-08
5.77102e-08
6.22972e-08
2.35952e-08
5.66908e-08
0
2.33487e-08
2.47294e-08
2.3849e-08
0
0
2.44039e-08
5.69117e-08
0
0
2.357e-08
5.71722e-08
2.88586e-09
1.9421e-08
2.44747e-08
2.43111e-08
2.38423e-08
5.88215e-08
2.60008e-08
0
5.80149e-08
2.39287e-08
1.28248e-08
1.14539e-09
5.85878e-08
0
5.56557e-08
2.30309e-08
2.42232e-08
2.48859e-08
2.50872e-08
2.45558e-08
2.33788e-08
2.31553e-08
6.12254e-08
2.50904e-08
2.3615e-08
2.34076e-08
2.36638e-08
0
2.47291e-08
2.45015e-08
2.43741e-08
2.46998e-08
8.87426e-09
7.37449e-09
2.42778e-08
2.43105e-08
2.45008e-08
0
2.39761e-08
2.43577e-08
0
2.4334e-08
0
2.46251e-08
0
0
0
2.5213e-08
2.40841e-08
2.5671e-08
2.64908e-08
9.31411e-06
1.11389e-06
2.17618e-07
2.32981e-08
2.42682e-08
2.61139e-08
2.64111e-08
5.87665e-08
2.33874e-08
2.4596e-08
2.45719e-08
5.76786e-08
2.28377e-08
2.32574e-08
0
2.43365e-08
2.4893e-08
0
2.44809e-08
0
2.40398e-08
2.41774e-08
0
0
0
0
2.42696e-08
5.8816e-08
2.35296e-08
5.78505e-08
2.4216e-08
2.42715e-08
2.5503e-08
0
2.49797e-08
5.84247e-08
2.37258e-08
5.52531e-08
5.58233e-08
0
2.42343e-08
2.49392e-08
2.49079e-08
2.51537e-08
5.97085e-08
2.32058e-08
2.39932e-08
5.86414e-08
2.3327e-08
5.70731e-08
2.23185e-08
2.21232e-08
2.40012e-08
2.59167e-08
0
2.39029e-08
2.39352e-08
2.43768e-08
0
2.42885e-08
2.43177e-08
2.45609e-08
0
2.45827e-08
2.40722e-08
2.37476e-08
2.40805e-08
0
0
2.48358e-08
2.57817e-08
5.86086e-08
2.4117e-08
2.50894e-08
2.517e-08
1.08129e-05
1.34647e-06
6.4231e-08
2.10227e-08
2.36252e-08
6.46409e-08
2.52934e-08
2.34941e-08
2.35963e-08
2.43138e-08
5.91966e-08
2.31709e-08
2.31254e-08
2.38882e-08
2.49183e-08
0
0
0
0
2.45319e-08
2.43674e-08
2.45297e-08
2.44188e-08
2.4346e-08
2.40217e-08
2.35216e-08
5.65452e-08
2.39709e-08
0
0
5.67939e-08
2.34215e-08
2.53603e-08
2.56852e-08
2.42733e-08
0
2.39324e-08
2.41145e-08
0
2.43349e-08
2.46022e-08
2.527e-08
0
2.58241e-08
2.45531e-08
0
0
0
2.52774e-08
2.45368e-08
5.67444e-08
0
2.2038e-08
5.94262e-08
2.64021e-08
2.53476e-08
0
2.35116e-08
2.39136e-08
2.41531e-08
0
0
2.45909e-08
2.4562e-08
2.42954e-08
5.74262e-08
2.31919e-08
2.35092e-08
2.41575e-08
0
5.93515e-08
5.76825e-08
2.49517e-08
0
2.62609e-08
9.28295e-06
7.69307e-07
1.11188e-07
2.39252e-08
2.48821e-08
2.7662e-08
2.61722e-08
2.45868e-08
2.43517e-08
2.46522e-08
2.41576e-08
2.40123e-08
2.30249e-08
2.3019e-08
2.28495e-08
0
2.48937e-08
0
2.47017e-08
2.43368e-08
2.3495e-08
2.37336e-08
5.71951e-08
5.6564e-08
5.53658e-08
2.2293e-08
2.32813e-08
0
2.36589e-08
2.39984e-08
5.68445e-08
2.2555e-08
6.06732e-08
2.4221e-08
2.35401e-08
0
0
0
0
2.44873e-08
2.42121e-08
5.75877e-08
2.69418e-08
2.56773e-08
0
2.44609e-08
0
2.45056e-08
3.80267e-08
4.27259e-08
2.21515e-08
5.58825e-08
2.25735e-08
2.36675e-08
6.5037e-08
2.46621e-08
2.35248e-08
5.67517e-08
2.32153e-08
2.34953e-08
2.37852e-08
0
2.48386e-08
2.4481e-08
2.46819e-08
2.36101e-08
5.65501e-08
2.23404e-08
2.28497e-08
2.50758e-08
3.00995e-08
2.12721e-08
2.35257e-08
2.6092e-08
0
4.98615e-05
4.84692e-07
7.03416e-08
2.22912e-08
2.34287e-08
6.51669e-08
2.58326e-08
0
2.3873e-08
2.46351e-08
0
2.4613e-08
2.39294e-08
2.3844e-08
0
2.40916e-08
2.46093e-08
2.47079e-08
2.43196e-08
2.46374e-08
2.41668e-08
5.67158e-08
5.7133e-08
2.24041e-08
2.36394e-08
2.35269e-08
0
5.71845e-08
2.38257e-08
5.97726e-08
5.63303e-08
5.48908e-08
5.60815e-08
5.71428e-08
0
2.29811e-08
4.12122e-08
5.39031e-09
5.68782e-08
0
0
2.43284e-08
2.53145e-08
2.53073e-08
2.34851e-08
2.30587e-08
2.34984e-08
2.34214e-08
5.94566e-08
0
2.32654e-08
5.66306e-09
4.48303e-08
2.53257e-08
2.63295e-08
6.12446e-08
2.43481e-08
2.36275e-08
2.29769e-08
5.60486e-08
5.73792e-08
0
2.4251e-08
2.3924e-08
2.43991e-08
2.38437e-08
5.7715e-08
2.26374e-08
2.37115e-08
2.66737e-08
0
2.43453e-08
2.42625e-08
0
6.00311e-08
1.08464e-05
7.62248e-07
2.18306e-07
5.53302e-08
2.35316e-08
2.5601e-08
0
2.47389e-08
2.41567e-08
0
5.71628e-08
7.7051e-10
5.49559e-08
2.45428e-08
2.42013e-08
2.36815e-08
2.39347e-08
2.41487e-08
2.40363e-08
2.44771e-08
2.44036e-08
2.40539e-08
5.87758e-08
2.36118e-08
2.35619e-08
2.40412e-08
2.37886e-08
2.37551e-08
6.26671e-08
2.46467e-08
2.33291e-08
5.67984e-08
5.61202e-08
5.55066e-08
5.59686e-08
5.48803e-08
2.3209e-08
2.37307e-08
2.4478e-08
0
5.66118e-08
2.40238e-08
6.01539e-08
2.46405e-08
5.54659e-08
5.48352e-08
2.35699e-08
0
2.3466e-08
2.25755e-08
0
0
6.06004e-08
2.50857e-08
2.59852e-08
2.47079e-08
5.67335e-08
2.30711e-08
2.24988e-08
2.6897e-08
5.21114e-08
2.46814e-08
2.80472e-09
1.94263e-08
2.37821e-08
0
2.34489e-08
2.36793e-08
0
2.53775e-08
5.47412e-10
2.44603e-08
2.51153e-08
0
2.54251e-08
2.86345e-05
7.64151e-07
1.09936e-07
5.80449e-08
2.4145e-08
2.74996e-08
0
2.4823e-08
0
5.6507e-08
2.4028e-08
0
2.4096e-08
2.46698e-08
8.79971e-09
2.96122e-08
3.16591e-08
2.39481e-08
0
0
2.47641e-08
2.39813e-08
2.51654e-08
2.36599e-08
2.31069e-08
2.36031e-08
2.39659e-08
2.44042e-08
2.46488e-08
2.50213e-08
2.46893e-08
2.44576e-08
2.45207e-08
2.45004e-08
2.43321e-08
2.40318e-08
2.44345e-08
0
2.37314e-08
2.47276e-08
2.46356e-08
2.41984e-08
6.0782e-08
5.69276e-08
5.45109e-08
2.31968e-08
2.37784e-08
0
5.59394e-08
2.35237e-08
2.3682e-08
0
2.43338e-08
2.34935e-08
6.51686e-08
2.53256e-08
2.24312e-08
9.48297e-08
5.4675e-08
2.28405e-08
5.75261e-08
5.62282e-08
0
5.66022e-08
0
2.38252e-08
2.3678e-08
0
0
5.71042e-08
2.43325e-08
2.42203e-08
2.50687e-08
2.61334e-08
1.05878e-08
2.04428e-05
1.36561e-06
2.41331e-07
2.28706e-08
2.44621e-08
3.26521e-08
1.89168e-08
2.44666e-08
2.39882e-08
5.89365e-08
1.19527e-08
1.05482e-09
2.37383e-08
2.44747e-08
2.47131e-08
2.44725e-08
2.38612e-08
0
2.37531e-08
2.45483e-08
2.34081e-08
0
5.87359e-08
5.76745e-08
0
2.38463e-08
2.46946e-08
0
2.5153e-08
0
2.44301e-08
2.44896e-08
2.4405e-08
0
2.42918e-08
0
2.45288e-08
2.45893e-08
2.3677e-08
0
0
2.42023e-08
0
0
2.51509e-08
0
2.45117e-08
0
0
0
2.37541e-08
2.43625e-08
5.74527e-08
0
0
0
2.29872e-08
5.61045e-08
2.28771e-08
1.04579e-07
5.85273e-08
2.30733e-08
2.39699e-08
0
2.3254e-08
0
5.73063e-08
0
2.37074e-08
0
2.40366e-08
4.58161e-08
3.69673e-08
2.70446e-08
0
1.47963e-05
6.24675e-07
1.03174e-07
2.39169e-08
2.5074e-08
2.54778e-08
5.82182e-08
2.40166e-08
2.35808e-08
2.43099e-08
0
5.63897e-08
2.2655e-08
2.36424e-08
6.18519e-08
2.40681e-08
2.24327e-08
2.32557e-08
2.36653e-08
0
2.46473e-08
5.8312e-08
2.35197e-08
0
5.63355e-08
2.33531e-08
0
5.93849e-08
0
5.98532e-08
2.21885e-08
2.4463e-08
0
0
2.38729e-08
2.30482e-08
2.3302e-08
2.3239e-08
2.4194e-08
2.49406e-08
0
5.78226e-08
0
2.52301e-08
5.86405e-08
0
2.39576e-08
2.4181e-08
2.41143e-08
2.43131e-08
2.45359e-08
0
2.42461e-08
5.75543e-08
5.80977e-08
5.89942e-08
5.82271e-08
5.78487e-08
2.23926e-08
5.62247e-08
5.7164e-08
2.30079e-08
2.30771e-08
2.36413e-08
2.41468e-08
0
0
2.37992e-08
2.29235e-08
2.38016e-08
5.62581e-08
2.36176e-08
2.41907e-08
2.6413e-08
5.90237e-08
3.30501e-06
9.25608e-07
2.16731e-07
2.54564e-08
2.40768e-08
0
2.43869e-08
2.48492e-08
2.53081e-08
2.32682e-08
2.31401e-08
2.57139e-09
5.02694e-08
5.67852e-08
2.45061e-08
2.43598e-08
2.40415e-08
2.35948e-08
5.81615e-08
2.35658e-08
2.36441e-08
2.39683e-08
2.43781e-08
0
2.40466e-08
2.34856e-08
6.23589e-08
2.48255e-08
0
2.36284e-08
2.40824e-08
2.43424e-08
0
2.42979e-08
0
9.71554e-09
4.54579e-09
0
2.42408e-08
2.45789e-08
5.84669e-08
2.44742e-08
2.45901e-08
2.46003e-08
0
3.18925e-09
1.85308e-08
0
2.42193e-08
2.52024e-08
2.41299e-08
1.22741e-07
6.68978e-08
9.89565e-08
2.24298e-08
5.812e-08
2.53762e-08
2.40795e-08
2.34208e-08
5.81603e-08
4.56246e-08
2.81984e-08
5.64281e-08
2.2827e-08
2.31771e-08
2.34355e-08
0
2.07364e-08
0
5.97936e-08
2.33165e-08
2.33884e-08
2.44184e-08
5.9967e-08
2.30319e-08
2.87269e-05
1.63037e-06
1.54873e-07
5.95247e-08
0
2.39592e-08
0
2.45519e-08
2.43626e-08
3.25818e-08
4.73005e-08
5.75761e-08
2.28791e-08
2.35269e-08
2.34456e-08
2.54207e-08
2.44804e-08
5.78255e-08
4.43133e-08
3.47645e-09
2.39607e-08
2.43231e-08
2.43158e-08
2.41954e-08
2.42186e-08
0
2.45231e-08
0
0
2.43066e-08
0
5.70686e-08
2.2742e-08
2.43402e-08
4.37886e-08
3.20851e-08
5.72802e-08
5.51624e-08
2.19872e-08
2.35586e-08
2.38255e-08
2.38785e-08
5.84648e-08
5.65717e-08
5.56074e-08
5.52389e-08
5.48386e-08
7.02359e-08
4.03297e-08
2.35359e-08
0
2.39672e-08
2.32693e-08
2.32882e-08
2.38907e-08
2.53755e-08
0
2.62767e-08
0
2.5557e-08
2.53971e-08
0
0
2.4136e-08
5.51849e-08
5.46531e-08
2.2435e-08
5.76878e-08
6.1425e-08
0
0
2.33069e-08
1.09921e-07
0
2.32393e-08
9.33446e-06
9.12077e-07
2.9652e-07
2.23734e-08
5.76142e-08
2.3392e-08
2.46302e-08
5.73805e-08
2.35892e-08
3.09951e-08
4.80753e-08
2.37719e-08
5.96038e-08
2.30529e-08
2.42105e-08
0
2.45236e-08
2.44274e-08
2.41961e-08
2.38367e-08
5.69703e-08
2.45062e-08
0
5.84409e-08
2.37121e-08
2.40809e-08
2.51784e-08
0
6.051e-08
2.38139e-08
0
2.34987e-08
2.40956e-08
2.42203e-08
4.48165e-08
3.22724e-08
2.31209e-08
2.1682e-08
5.6901e-08
0
2.42596e-08
3.62407e-08
4.26931e-08
5.65118e-08
2.32128e-08
2.38825e-08
5.79758e-08
2.32264e-08
5.61398e-08
2.3139e-08
2.39052e-08
2.22332e-08
0
2.35911e-08
2.43553e-08
2.50534e-08
0
2.6446e-08
0
2.44174e-08
0
0
2.49039e-08
0
2.27865e-08
2.40561e-08
2.37317e-08
2.50743e-08
2.56125e-08
2.50364e-08
5.62758e-08
5.72022e-08
0
6.01477e-08
2.24554e-08
6.88552e-06
7.3493e-07
1.71225e-07
2.25506e-08
2.41104e-08
6.20377e-08
2.41157e-08
2.36003e-08
3.7072e-08
3.98129e-08
2.34759e-08
2.57674e-08
0
2.41113e-08
0
2.39808e-08
2.45446e-08
3.54291e-08
1.30558e-08
2.4449e-08
2.37477e-08
2.53758e-08
0
2.49179e-08
3.26048e-08
4.52267e-08
2.47282e-08
0
2.66513e-08
2.46205e-08
2.35944e-08
2.38813e-08
2.40433e-08
2.41394e-08
2.43031e-08
2.43068e-08
2.32367e-08
2.22877e-08
2.34735e-08
2.41312e-08
1.09942e-07
0
0
2.32624e-08
2.40646e-09
5.19138e-08
2.34718e-08
4.10515e-08
3.56516e-08
2.41076e-08
2.44582e-08
5.75281e-08
2.37285e-08
2.38962e-08
4.13998e-08
7.39627e-09
2.53997e-08
0
0
2.44295e-08
5.74869e-08
4.26541e-08
5.94068e-09
2.42561e-08
0
5.66186e-08
2.27919e-08
2.35612e-08
6.17637e-08
2.31168e-08
5.77317e-08
2.29053e-08
9.73007e-08
9.77276e-08
5.32807e-08
9.26925e-06
6.07004e-07
2.87762e-07
5.65855e-08
5.66165e-08
6.4691e-08
2.43269e-08
2.23687e-08
2.35911e-08
2.3645e-08
0
2.4601e-08
0
0
7.67012e-09
4.0734e-08
2.37752e-08
5.90065e-08
2.39154e-08
2.33158e-08
2.40733e-08
2.60663e-08
8.4648e-10
5.94759e-08
2.26866e-09
5.05937e-08
2.30824e-08
2.59921e-08
2.614e-08
2.36572e-08
2.21172e-08
2.30274e-08
2.39353e-08
0
0
0
2.4432e-08
0
2.29692e-08
6.26042e-08
0
2.5646e-08
2.44555e-08
2.4397e-08
5.69182e-08
2.41355e-08
2.42649e-08
2.39701e-08
0
0
0
2.4498e-08
2.45092e-08
0
2.44953e-08
0
2.47268e-08
0
5.67744e-08
5.75279e-08
5.9881e-08
0
1.00108e-07
2.32261e-08
2.30921e-08
0
2.25943e-08
2.43867e-08
2.55267e-08
2.51135e-08
0
0
2.36482e-08
5.72137e-08
9.62643e-08
6.0992e-05
1.89493e-06
7.09782e-08
2.21992e-08
4.53097e-08
8.09341e-08
2.50341e-08
2.31468e-08
2.32906e-08
0
2.40293e-08
0
0
0
5.84952e-08
2.43085e-08
2.45849e-08
2.48971e-08
2.49711e-08
0
2.44535e-08
2.46001e-08
2.43352e-08
5.78951e-08
2.32835e-08
2.31374e-08
2.25271e-08
5.69021e-08
6.0607e-08
2.40048e-08
2.34971e-08
2.34374e-08
0
2.39101e-08
0
2.50612e-08
2.42459e-08
2.3975e-08
0
5.88185e-08
0
2.50469e-08
2.43089e-08
0
2.35791e-08
2.37807e-08
2.44251e-08
0
2.45178e-08
2.6721e-08
0
0
0
0
2.39905e-08
2.44752e-08
2.46935e-08
2.47833e-08
0
2.38643e-08
2.36369e-08
6.18725e-08
2.39224e-08
5.81536e-08
5.51917e-08
2.23706e-08
0
2.42912e-08
2.44484e-08
2.40098e-08
2.41295e-08
2.42566e-08
2.42515e-08
2.41144e-08
2.43099e-08
2.41507e-05
9.12116e-07
3.9169e-08
2.39452e-08
2.62807e-08
0
6.11332e-08
2.29887e-08
2.33636e-08
2.38012e-08
2.42924e-08
0
0
2.35709e-08
2.44068e-08
2.56395e-08
0
2.53811e-08
2.57812e-08
2.54983e-08
2.44144e-08
5.76784e-08
2.28687e-08
5.68028e-08
2.32024e-08
5.65718e-08
2.25153e-08
5.83857e-08
2.40836e-08
2.38388e-08
2.41611e-08
3.99191e-08
3.89934e-08
2.36416e-08
0
5.96868e-08
0
5.7583e-08
5.5563e-08
2.34395e-08
2.44473e-08
2.42524e-08
3.22649e-08
1.69461e-08
5.8238e-08
0
0
2.3507e-08
2.44375e-08
2.57936e-08
2.56219e-08
2.436e-08
2.42488e-08
2.39909e-08
2.3787e-08
2.39761e-08
2.45024e-08
0
5.83276e-08
2.45835e-08
2.37261e-08
6.11985e-08
2.363e-08
0
2.30839e-08
2.3138e-08
2.42328e-08
5.7244e-08
2.41801e-08
0
2.40937e-08
2.30686e-08
2.30333e-08
2.36111e-08
2.37407e-08
2.86532e-05
6.14709e-07
7.09433e-08
2.37377e-08
2.69726e-08
0
2.4853e-08
2.42771e-08
2.42523e-08
2.41704e-08
2.40226e-08
0
5.77602e-08
2.36035e-08
2.4483e-08
0
2.59218e-08
2.49955e-08
2.54472e-08
6.13799e-08
2.33029e-08
2.33458e-08
0
2.3278e-08
5.62606e-08
5.72374e-08
2.29629e-08
2.34991e-08
2.41692e-08
5.75037e-08
2.36908e-08
2.32689e-08
2.44675e-08
2.34695e-08
5.78713e-08
5.87743e-08
2.4189e-08
2.35486e-08
2.33897e-08
5.7679e-08
0
5.82498e-08
2.38751e-08
2.38596e-08
0
2.42436e-08
0
2.39872e-08
2.45047e-08
2.48855e-08
2.49946e-08
2.42982e-08
5.91958e-08
2.34972e-08
0
2.40691e-08
2.49506e-08
0
6.20445e-08
2.39733e-08
2.27779e-08
2.46703e-08
0
2.30917e-08
2.44669e-08
0
0
0
2.4314e-08
2.435e-08
3.53566e-08
4.43042e-08
2.40651e-08
2.53073e-08
2.49934e-08
6.83619e-06
7.53298e-07
1.29092e-07
2.40142e-08
2.35611e-08
2.55466e-08
2.45801e-08
2.42159e-08
2.4332e-08
2.4147e-08
2.3881e-08
2.38382e-08
2.31072e-08
7.84335e-09
3.91682e-08
2.63715e-08
6.20801e-08
2.36322e-08
6.23687e-08
1.02068e-08
3.24496e-08
2.22623e-08
2.35127e-08
2.39357e-08
2.41357e-08
2.39296e-08
2.35398e-08
2.35371e-08
5.62265e-08
5.81296e-08
2.29624e-08
2.28331e-08
5.82932e-08
2.33568e-08
2.3766e-08
2.47109e-08
5.93547e-08
2.37573e-08
0
2.38957e-08
2.41603e-08
2.49142e-08
0
2.46767e-08
0
2.42641e-08
2.45561e-08
2.44277e-08
2.43715e-08
2.44646e-08
4.40495e-08
5.16017e-09
2.40077e-08
0
3.09021e-10
5.49875e-08
1.06417e-07
2.47664e-08
2.38374e-08
2.40806e-08
2.35879e-08
4.7619e-08
1.11062e-09
2.42105e-08
2.40165e-08
6.09585e-08
2.43567e-08
2.27639e-08
2.28651e-08
5.8325e-08
2.25102e-08
2.37329e-08
2.33829e-08
0
2.42698e-08
0.000401303
2.22623e-07
5.24825e-08
2.40253e-08
2.26312e-08
2.49124e-08
2.45458e-08
2.42812e-08
2.40306e-08
2.39384e-08
2.37844e-08
0
0
5.69535e-08
6.1746e-08
2.49863e-08
2.46707e-08
2.41253e-08
2.509e-08
2.53552e-08
2.39576e-08
2.31898e-08
2.36344e-08
2.41487e-08
2.40005e-08
2.39254e-08
5.75431e-08
2.26952e-08
2.31031e-08
5.71699e-08
2.34156e-08
5.77488e-08
2.30962e-08
2.33724e-08
2.42026e-08
2.65517e-08
2.47933e-08
2.38236e-08
2.39527e-08
2.38692e-08
2.40313e-08
0
2.54268e-08
2.39168e-08
2.45505e-08
2.44386e-08
2.43869e-08
2.42901e-08
2.42665e-08
2.42331e-08
2.43862e-08
2.42519e-08
2.44003e-08
0
0
2.43775e-08
0
2.45421e-08
5.81475e-08
2.36701e-08
2.3811e-08
2.44047e-08
2.42066e-08
0
2.4128e-08
2.37603e-08
5.71975e-08
8.06316e-08
2.26422e-08
2.29817e-08
0
5.71784e-08
2.35656e-08
2.38646e-08
2.42266e-08
6.09746e-05
4.96324e-07
5.31018e-08
2.33629e-08
2.2569e-08
2.46856e-08
5.84935e-08
2.36869e-08
2.40144e-08
2.38887e-08
2.39927e-08
2.40093e-08
2.35055e-08
2.35909e-08
2.47539e-08
2.62318e-08
0
2.39743e-08
2.70716e-08
0
2.49439e-08
2.32967e-08
5.69608e-08
2.33218e-08
5.74452e-08
2.28585e-08
2.25232e-08
2.32053e-08
2.31461e-08
2.37901e-08
2.48233e-08
2.47927e-08
2.37886e-08
2.29748e-08
6.21562e-08
2.6942e-08
0
2.38478e-08
2.35757e-08
2.37711e-08
2.37026e-08
6.2502e-08
2.52859e-08
0
2.34461e-08
2.42839e-08
0
2.44193e-08
0
5.76603e-08
5.64593e-08
5.74686e-08
2.38042e-08
0
2.42826e-08
2.29324e-08
5.98833e-08
5.82223e-08
2.26094e-08
2.36818e-08
5.91506e-08
2.40329e-08
0
0
2.43077e-08
5.70962e-08
2.31006e-08
3.06837e-08
5.46347e-08
2.32816e-08
2.43545e-08
0
0
4.1679e-08
6.73466e-08
2.41215e-05
2.91947e-07
4.13809e-08
2.39144e-08
2.53582e-08
0
2.3843e-08
5.6964e-08
3.84023e-08
3.85419e-08
2.326e-08
2.34137e-08
2.31026e-08
2.32318e-08
6.30739e-08
0
2.45017e-08
0
0
2.60681e-08
0
2.37606e-08
5.71863e-08
2.20211e-08
5.75479e-08
0
2.17021e-08
2.41247e-08
2.414e-08
2.38501e-08
6.2192e-08
2.41323e-08
2.32554e-08
2.33702e-08
2.44056e-08
2.51031e-08
2.45211e-08
2.36623e-08
2.39228e-08
2.38281e-08
2.4054e-08
2.53037e-08
2.55926e-08
2.46738e-08
2.38313e-08
2.45469e-08
0
2.50607e-08
0
2.39457e-08
2.41221e-08
2.40799e-08
2.42409e-08
0
5.76174e-08
2.38754e-08
5.75528e-08
0
0
0
0
0
2.45504e-08
2.53368e-08
2.40801e-08
2.37159e-08
2.36004e-08
2.35734e-08
2.36532e-08
2.26259e-08
2.36882e-08
6.18922e-08
2.45774e-08
1.00713e-07
0
1.26226e-05
5.93325e-07
1.80211e-08
2.43036e-08
2.38899e-08
2.37899e-08
2.41549e-08
2.42499e-08
2.41423e-08
2.33286e-08
5.75979e-08
2.29755e-08
2.36277e-08
2.42931e-08
6.25498e-08
2.46041e-08
2.37026e-08
2.30496e-08
2.38154e-08
2.58361e-08
0
5.68315e-08
5.46962e-08
0
2.24211e-08
2.29295e-08
2.5187e-08
0
2.41788e-08
2.41794e-08
2.48917e-08
2.48937e-08
2.41129e-08
2.45327e-08
2.58581e-08
0
5.85406e-08
2.4828e-08
0
3.64461e-08
1.24945e-08
5.77921e-08
2.46398e-08
2.46547e-08
3.84975e-08
4.15484e-08
0
2.41645e-08
0
2.45199e-08
2.42401e-08
0
5.86394e-08
2.34397e-08
2.84855e-08
2.00066e-08
2.4097e-08
2.39395e-08
2.46151e-08
2.42089e-08
2.44871e-08
0
2.44465e-08
2.38217e-08
5.67614e-08
5.61906e-08
0
2.35332e-08
0
2.41121e-08
2.50342e-08
0
2.46691e-08
2.45175e-08
0
0.000401308
3.66858e-07
4.54889e-08
0
5.81673e-08
2.33834e-08
2.4609e-08
0
5.89308e-08
2.37548e-08
2.357e-08
2.3447e-08
2.41062e-08
2.46015e-08
2.44349e-08
5.92173e-08
2.34313e-08
2.3588e-08
5.74347e-08
6.21663e-08
2.32887e-08
2.2916e-08
0
5.49755e-08
2.26687e-08
0
0
5.85205e-08
2.38129e-08
2.44458e-08
2.45347e-08
0
2.47702e-08
0
2.50928e-08
2.46476e-08
2.42233e-08
2.52548e-08
2.42656e-08
2.53345e-08
2.38719e-08
2.29012e-08
5.76309e-08
5.96191e-08
2.37888e-08
2.40082e-08
2.3312e-08
0
0
5.64864e-08
0
2.45397e-08
2.44057e-08
2.39457e-08
0
0
2.47454e-08
0
5.76568e-08
5.7535e-08
2.33249e-08
5.94186e-08
0
2.41098e-08
0
2.29462e-08
2.18287e-08
2.16874e-08
2.33556e-08
2.43585e-08
2.48236e-08
2.50657e-08
2.46556e-08
2.44196e-08
2.40706e-08
5.88995e-06
9.10414e-07
6.8352e-08
2.14954e-08
2.4285e-08
2.41212e-08
2.42327e-08
2.47119e-08
0
3.03626e-08
5.09146e-08
2.35978e-08
2.46805e-08
2.40243e-08
2.35238e-08
5.73441e-08
5.60508e-08
2.33712e-08
2.45267e-08
2.43535e-08
2.52395e-08
1.14089e-08
1.51551e-09
2.25489e-08
2.29871e-08
0
2.51714e-08
0
2.46492e-08
0
2.43795e-08
2.53455e-08
0
2.47672e-08
2.48518e-08
2.43034e-08
2.39494e-08
0
6.37282e-08
0
2.4771e-08
5.75614e-08
2.38614e-08
6.05158e-08
2.37375e-08
2.33304e-08
2.34819e-08
2.39068e-08
2.39902e-08
0
2.42047e-08
0
2.51691e-08
2.51472e-08
2.46168e-08
2.45806e-08
2.452e-08
0
2.41302e-08
2.47045e-08
4.6167e-08
3.11838e-08
2.31308e-08
2.35446e-08
4.70277e-08
2.88676e-08
5.67198e-08
5.42893e-08
2.15557e-08
5.51229e-08
2.38363e-08
2.42132e-08
0
6.82382e-08
4.49486e-08
4.11687e-05
2.8356e-07
2.19636e-07
2.4052e-08
2.39528e-08
2.40589e-08
2.42936e-08
0
0
0
0
3.74508e-09
5.16477e-08
0
0
0
0
2.37921e-08
6.33538e-08
2.53104e-08
2.36237e-08
2.3846e-08
5.67946e-08
2.30858e-08
2.31916e-08
2.32599e-08
2.68049e-08
0
2.41709e-08
0
2.42732e-08
2.48628e-08
0
5.89813e-08
2.36573e-08
2.35213e-08
2.38997e-08
2.56975e-08
0
2.61994e-08
2.44028e-08
2.39182e-08
2.42228e-08
2.48054e-08
2.50069e-08
2.46294e-08
5.73731e-08
2.29229e-08
2.33506e-08
2.3801e-08
0
6.01733e-08
2.45634e-08
2.49325e-08
2.48113e-08
2.44044e-08
2.46648e-08
0
2.4417e-08
2.47483e-08
2.44343e-08
5.8673e-08
2.36667e-08
2.27729e-08
2.3977e-08
0
2.34092e-08
2.25593e-08
5.52556e-08
2.27718e-08
2.36304e-08
5.93854e-08
2.39779e-08
2.39684e-08
5.7406e-08
8.00397e-06
1.11605e-06
1.14476e-07
2.48028e-08
2.39518e-08
2.33785e-08
2.40557e-08
0
0
5.61843e-08
2.46337e-08
2.39583e-08
0
2.42104e-08
5.99319e-08
2.3724e-08
5.67521e-08
2.45225e-08
2.56114e-08
2.41068e-08
2.33921e-08
5.61995e-08
2.27383e-08
2.31575e-08
5.86628e-08
5.44953e-08
5.63074e-08
2.3963e-08
2.36888e-08
0
2.33932e-08
5.89358e-08
2.4576e-08
2.45698e-08
2.3918e-08
2.31564e-08
0
2.59342e-08
0
2.49714e-08
2.31561e-08
2.35074e-08
2.43366e-08
2.49366e-08
2.50016e-08
5.90868e-08
2.31704e-08
5.60248e-08
2.24652e-08
0
3.93667e-08
4.04165e-08
2.57016e-08
5.94026e-08
2.38862e-08
2.36954e-08
2.32516e-08
2.3543e-08
2.3896e-08
2.42611e-08
2.36357e-08
2.37756e-08
2.3698e-08
2.38853e-08
2.3929e-08
2.39455e-08
2.34576e-08
2.3015e-08
2.30833e-08
5.54404e-08
2.34506e-08
2.50678e-08
2.53497e-08
2.4182e-08
2.35039e-08
9.29438e-06
1.91992e-06
1.07504e-07
2.41803e-08
5.66145e-08
2.33811e-08
2.38849e-08
2.5507e-08
0
2.44271e-08
2.42267e-08
2.96562e-08
1.85197e-08
2.41994e-08
2.39438e-08
2.32487e-08
0