/*--------------------------------*- C++ -*----------------------------------*\
  =========                 |
  \\      /  F ield         | OpenFOAM: The Open Source CFD Toolbox
   \\    /   O peration     | Website:  https://openfoam.org
    \\  /    A nd           | Version:  12
     \\/     M anipulation  |
\*---------------------------------------------------------------------------*/
FoamFile
{
    format      ascii;
    class       volScalarField;
    location    "0.95";
    object      p;
}
// * * * * * * * * * * * * * * * * * * * * * * * * * * * * * * * * * * * * * //

dimensions      [0 2 -2 0 0 0 0];

internalField   nonuniform List<scalar> 
3750
(
1.47424
1.52236
1.51561
1.50768
1.50491
1.50117
1.49545
1.488
1.48003
1.47196
1.46371
1.45295
1.42996
1.41827
1.41125
1.40187
1.37964
1.36923
1.36134
1.35321
1.34544
1.33739
1.32949
1.32143
1.31154
1.28649
1.25898
1.24264
1.21938
1.20794
1.1978
1.18721
1.17596
1.16459
1.15351
1.14517
1.13448
1.12667
1.12335
1.11704
1.10835
1.09867
1.08791
1.07709
1.0687
1.05682
1.04521
1.03331
1.02111
1.00971
1.00324
0.982311
0.974543
1.01902
1.0111
0.999518
0.994665
0.943963
0.940762
0.930839
0.924374
0.914497
0.902555
0.891206
0.880902
0.871206
0.861358
0.851295
0.841568
0.83185
0.822177
0.812139
0.800331
0.792778
0.781361
1.33576
1.52958
1.52109
1.51195
1.50833
1.5035
1.49719
1.48858
1.48003
1.47085
1.46095
1.45038
1.43285
1.41661
1.41345
1.41611
1.3682
1.36681
1.3607
1.35327
1.34551
1.33767
1.32985
1.32131
1.31439
1.29613
1.25257
1.25019
1.20772
1.20659
1.1986
1.18826
1.17636
1.16451
1.15356
1.14347
1.13091
1.12201
1.12636
1.11941
1.10927
1.09942
1.08907
1.07718
1.06855
1.05732
1.04545
1.03333
1.0201
1.00137
1.01102
0.988599
0.991132
1.00287
0.99973
0.990845
0.97988
0.957127
0.945401
0.934952
0.925847
0.914099
0.90133
0.890381
0.880397
0.87112
0.861201
0.851379
0.841621
0.831814
0.822058
0.812125
0.801842
0.792699
0.781636
1.55961
1.54679
1.52827
1.52045
1.51357
1.50636
1.50132
1.49095
1.48191
1.46994
1.45749
1.44882
1.44594
1.40488
1.40965
1.42067
1.37219
1.36924
1.36151
1.35361
1.3455
1.3383
1.32962
1.31952
1.30463
1.2857
1.26145
1.24255
1.22206
1.21182
1.20186
1.19043
1.17862
1.16542
1.15404
1.14049
1.12516
1.11147
1.13386
1.1227
1.10992
1.10061
1.08998
1.07953
1.06936
1.05727
1.04598
1.03542
1.02688
0.977029
1.0137
1.0074
1.00022
0.995594
0.991329
0.98512
0.975498
0.961093
0.949012
0.938669
0.927548
0.909698
0.898113
0.888874
0.879582
0.870228
0.860915
0.851334
0.841555
0.8318
0.822236
0.812523
0.802693
0.79279
0.781863
1.61236
1.56662
1.54178
1.52672
1.5146
1.50848
1.51172
1.49661
1.48726
1.47018
1.45045
1.44125
1.43227
1.4113
1.39868
1.41837
1.39249
1.37468
1.36319
1.35406
1.34522
1.34067
1.32698
1.31473
1.29503
1.28134
1.26537
1.24664
1.23007
1.21756
1.20615
1.19274
1.18103
1.16806
1.15065
1.13891
1.12897
1.12294
1.11647
1.11458
1.11192
1.10329
1.09067
1.08121
1.07091
1.05673
1.04626
1.03449
1.02062
0.997907
0.994941
1.01973
1.00622
0.990697
0.983228
0.982821
0.976533
0.962692
0.951253
0.941827
0.938609
0.896528
0.894123
0.887276
0.877824
0.87057
0.86114
0.851443
0.841386
0.831529
0.822354
0.813196
0.803835
0.793597
0.782232
1.59096
1.5658
1.54649
1.52918
1.51308
1.49831
1.52183
1.50787
1.49106
1.4795
1.43564
1.43522
1.42863
1.41682
1.40841
1.40676
1.39508
1.37433
1.3631
1.35426
1.34592
1.34034
1.32114
1.31043
1.29217
1.28042
1.26662
1.25141
1.23512
1.22237
1.21149
1.19258
1.18277
1.17068
1.14892
1.1363
1.12925
1.12545
1.11237
1.10067
1.12023
1.10433
1.09008
1.08375
1.07787
1.05444
1.04722
1.03659
1.02411
1.01132
1.00451
1.00893
1.00035
0.986013
0.970285
0.991023
0.976665
0.962402
0.950526
0.939175
0.927695
0.907919
0.895775
0.886927
0.878617
0.870506
0.860984
0.851248
0.840883
0.830593
0.822341
0.814788
0.805937
0.795167
0.782434
1.57202
1.55945
1.54516
1.53055
1.51769
1.50789
1.50915
1.50144
1.48822
1.46834
1.44714
1.43705
1.42936
1.42077
1.41357
1.40854
1.40627
1.36316
1.36064
1.35321
1.34434
1.33493
1.31874
1.30751
1.29504
1.28219
1.26898
1.25661
1.23646
1.22678
1.22497
1.18381
1.18244
1.172
1.14618
1.1333
1.12665
1.13119
1.11766
1.10834
1.10878
1.09934
1.09157
1.09033
1.08043
1.06346
1.05145
1.03971
1.02828
1.01904
1.00713
1.00294
0.997077
0.987366
0.979036
0.98077
0.971103
0.959622
0.948645
0.93747
0.925843
0.912878
0.894174
0.886462
0.8794
0.870838
0.861458
0.851375
0.840319
0.828049
0.820203
0.818698
0.809536
0.798376
0.780321
1.56667
1.55567
1.5433
1.53046
1.51949
1.51052
1.50397
1.49591
1.48497
1.46347
1.44903
1.43818
1.4322
1.42342
1.41573
1.4069
1.3945
1.3742
1.36312
1.35324
1.34302
1.33168
1.31909
1.30834
1.29846
1.28622
1.27127
1.26798
1.22626
1.22515
1.21523
1.19708
1.18883
1.18491
1.13547
1.12715
1.12516
1.14924
1.11929
1.10527
1.10063
1.08917
1.10401
1.09314
1.0815
1.06805
1.05559
1.04323
1.0305
1.02269
1.00359
1.00008
0.996912
0.988465
0.98039
0.973941
0.965443
0.95596
0.946823
0.936821
0.925607
0.923507
0.880876
0.8866
0.881494
0.871867
0.862513
0.852645
0.841047
0.825271
0.810842
0.825444
0.809981
0.808403
0.77007
1.56525
1.55346
1.54127
1.52839
1.51921
1.51047
1.50099
1.49371
1.49304
1.45022
1.4476
1.44038
1.4332
1.42578
1.41825
1.40948
1.39008
1.3761
1.36438
1.35367
1.34284
1.33056
1.31716
1.30919
1.30239
1.30063
1.25498
1.25551
1.24279
1.22733
1.21347
1.19991
1.18967
1.17898
1.14894
1.12697
1.15016
1.15786
1.10354
1.0978
1.09368
1.10684
1.0816
1.0941
1.08445
1.07166
1.05963
1.04702
1.02885
1.02095
1.00796
1.00263
0.99758
0.988883
0.979703
0.97045
0.95979
0.950297
0.948679
0.937139
0.923539
0.905706
0.878057
0.894477
0.883965
0.872703
0.864007
0.85561
0.846142
0.828242
0.822436
0.805415
0.797185
0.788309
0.783829
1.56433
1.55146
1.53828
1.52312
1.51835
1.51188
1.49491
1.48557
1.47947
1.46087
1.45148
1.44234
1.43459
1.42758
1.42278
1.42259
1.38014
1.37593
1.36455
1.35441
1.3442
1.33095
1.30957
1.30368
1.30299
1.29264
1.26026
1.25262
1.24902
1.22437
1.21102
1.19992
1.19107
1.18423
1.16004
1.14168
1.14862
1.15162
1.09927
1.09185
1.08069
1.10197
1.08351
1.10556
1.08884
1.07445
1.06408
1.05662
1.01632
1.01713
1.01159
1.00688
0.998915
0.989494
0.979113
0.968719
0.955045
0.938452
0.955996
0.93874
0.921924
0.905268
0.888437
0.88151
0.872814
0.875267
0.865528
0.859321
0.859017
0.821769
0.828612
0.792808
0.784572
0.771841
0.795992
1.56485
1.55597
1.53657
1.5154
1.51226
1.52329
1.48205
1.47817
1.47073
1.46794
1.45687
1.44254
1.43397
1.4229
1.4225
1.41491
1.39429
1.38219
1.36382
1.35507
1.34845
1.33977
1.29573
1.28923
1.31167
1.28227
1.25771
1.2423
1.21699
1.21062
1.20634
1.19813
1.19072
1.18407
1.16959
1.15599
1.14793
1.13714
1.11133
1.09593
1.08477
1.09055
1.09487
1.09842
1.08595
1.07359
1.06494
1.04124
1.02612
1.01709
1.01838
1.01323
1.0017
0.99106
0.980158
0.969503
0.95822
0.948642
0.945399
0.932999
0.919654
0.905621
0.896174
0.868658
0.855201
0.877694
0.86049
0.85923
0.845458
0.826411
0.828634
0.819982
0.77967
0.778358
0.785876
1.55965
1.54912
1.54737
1.49939
1.49298
1.51605
1.49377
1.47646
1.45531
1.47683
1.46125
1.44628
1.43171
1.41285
1.42961
1.41476
1.39996
1.39542
1.35354
1.35255
1.34913
1.32587
1.31113
1.30433
1.31502
1.26063
1.25183
1.24088
1.23213
1.19526
1.20043
1.19697
1.18929
1.18068
1.1792
1.16521
1.15238
1.13775
1.1139
1.09843
1.08487
1.08028
1.1069
1.09565
1.08209
1.06849
1.05531
1.03847
1.03126
1.01556
1.0329
1.0171
1.00238
0.992283
0.981508
0.97087
0.961501
0.952039
0.943833
0.932692
0.912976
0.901278
0.890128
0.871877
0.859556
0.862443
0.844624
0.86134
0.837961
0.81042
0.826581
0.821741
0.797853
0.786343
0.781339
1.54657
1.52826
1.53982
1.51183
1.50041
1.50141
1.49283
1.48343
1.45892
1.46443
1.46752
1.45306
1.43238
1.42006
1.42091
1.40932
1.39579
1.38328
1.36359
1.35348
1.34486
1.32897
1.31937
1.30958
1.31139
1.25337
1.24901
1.24013
1.22881
1.20903
1.19932
1.20013
1.19028
1.17624
1.19717
1.17259
1.15744
1.14221
1.11558
1.10163
1.09304
1.09042
1.09707
1.09043
1.07896
1.06296
1.04562
1.03354
1.05049
1.03121
1.02274
1.0106
0.998588
0.99061
0.984922
0.971774
0.966213
0.95071
0.944737
0.938076
0.899329
0.89799
0.889452
0.877002
0.866669
0.858194
0.850177
0.84721
0.832681
0.815042
0.806235
0.822063
0.802026
0.785154
0.776805
1.54467
1.53338
1.5273
1.51226
1.50154
1.49657
1.49241
1.48529
1.46692
1.45327
1.47573
1.45993
1.43056
1.42164
1.41318
1.4032
1.39114
1.37834
1.36403
1.35254
1.34233
1.33088
1.32306
1.3085
1.30842
1.25464
1.25084
1.24243
1.23158
1.21111
1.19242
1.21353
1.20055
1.19291
1.20246
1.16321
1.15933
1.14053
1.12216
1.10093
1.09794
1.09538
1.09427
1.08944
1.07955
1.06024
1.03767
1.05359
1.04986
1.03578
1.01668
1.00264
0.98999
0.983284
0.986481
0.978636
0.979883
0.940606
0.939538
0.928537
0.909645
0.902647
0.89174
0.880562
0.870832
0.8601
0.851004
0.841741
0.830192
0.817762
0.807637
0.807441
0.794773
0.777484
0.765948
1.54242
1.53154
1.52184
1.50819
1.49657
1.49121
1.49561
1.48878
1.47502
1.46409
1.4646
1.45436
1.4344
1.42166
1.40959
1.39776
1.38591
1.37396
1.36194
1.35085
1.34054
1.33081
1.32145
1.30603
1.29296
1.26988
1.25734
1.24617
1.23456
1.21934
1.20623
1.20719
1.20122
1.19626
1.19064
1.17315
1.16043
1.14168
1.12586
1.10999
1.10186
1.09633
1.09503
1.09238
1.08646
1.06663
1.05459
1.04997
1.04639
1.038
1.01201
0.994045
0.97654
0.96404
0.989766
0.979925
0.970789
0.952689
0.941951
0.929817
0.915735
0.904523
0.893893
0.883475
0.873678
0.862678
0.851612
0.839224
0.828362
0.81858
0.809551
0.798731
0.789955
0.779378
0.775621
1.54033
1.52988
1.51971
1.50209
1.48629
1.47694
1.50483
1.49713
1.48213
1.47055
1.4619
1.4511
1.43607
1.42101
1.40365
1.39385
1.38157
1.37027
1.35915
1.34825
1.33844
1.32823
1.31757
1.30475
1.29136
1.27561
1.26207
1.25024
1.2389
1.22628
1.21249
1.20389
1.19673
1.19875
1.19093
1.1764
1.16129
1.14302
1.12785
1.11413
1.10388
1.09383
1.09196
1.0987
1.09195
1.07567
1.05938
1.04932
1.04722
1.03196
1.01301
0.988481
0.968631
0.960232
0.970154
0.978959
0.972244
0.957804
0.945258
0.932379
0.919425
0.906946
0.895982
0.885781
0.876774
0.866091
0.853619
0.836362
0.824979
0.818403
0.811121
0.792341
0.781348
0.778364
0.782801
1.53932
1.52955
1.51677
1.4966
1.48296
1.48057
1.50144
1.49875
1.48561
1.47352
1.46171
1.44931
1.43562
1.42047
1.40205
1.38783
1.37635
1.36628
1.3557
1.34509
1.33707
1.32602
1.31548
1.30437
1.29222
1.27872
1.26567
1.25378
1.24368
1.23373
1.21521
1.20452
1.18896
1.20917
1.19498
1.1797
1.16476
1.14174
1.12806
1.11642
1.105
1.0913
1.0827
1.10951
1.09981
1.07913
1.06216
1.05477
1.05722
1.01878
1.01076
0.993809
0.963606
0.953819
0.951746
0.98227
0.97501
0.960747
0.948327
0.936453
0.922327
0.907808
0.897656
0.886929
0.879015
0.871848
0.857601
0.833292
0.819362
0.815673
0.825005
0.78241
0.776289
0.769463
0.793268
1.53713
1.52354
1.5126
1.49818
1.48399
1.47706
1.50697
1.50207
1.48764
1.475
1.4629
1.4504
1.43
1.41667
1.40372
1.38765
1.3734
1.36257
1.35239
1.34293
1.33359
1.32327
1.31394
1.30525
1.29428
1.28142
1.26835
1.25539
1.24703
1.25453
1.21226
1.20831
1.19959
1.20202
1.19225
1.18248
1.17686
1.13133
1.12605
1.11811
1.10731
1.09679
1.0924
1.0982
1.0934
1.08079
1.06397
1.05315
1.04212
1.02669
1.01043
1.00411
0.954418
0.953218
0.959346
0.975968
0.973643
0.962159
0.9511
0.940386
0.92427
0.90675
0.90138
0.884922
0.877149
0.870679
0.860718
0.831978
0.818096
0.805088
0.826071
0.796228
0.783724
0.78043
0.7843
1.52723
1.51725
1.50919
1.49896
1.49221
1.48779
1.50276
1.4997
1.48814
1.47646
1.46461
1.45909
1.41527
1.41304
1.40534
1.38683
1.36785
1.35789
1.34818
1.33904
1.33081
1.31953
1.30944
1.3089
1.29848
1.28446
1.27058
1.25538
1.23869
1.25623
1.23265
1.21747
1.20709
1.19933
1.18866
1.17971
1.16518
1.14246
1.1295
1.12136
1.10936
1.09821
1.09218
1.09884
1.09119
1.07861
1.06468
1.05128
1.03735
1.02571
1.00951
0.991555
0.959153
0.967318
0.95678
0.986298
0.976458
0.962545
0.952833
0.951865
0.91344
0.909947
0.915145
0.874297
0.873305
0.866679
0.856344
0.84174
0.818944
0.817532
0.827234
0.785222
0.783538
0.785667
0.786202
1.52363
1.50817
1.508
1.50391
1.4975
1.48949
1.5074
1.49895
1.48809
1.47774
1.46147
1.44185
1.42179
1.41469
1.41756
1.38617
1.35378
1.35298
1.3435
1.33433
1.33248
1.31715
1.30084
1.32015
1.30477
1.2873
1.2738
1.26179
1.25227
1.24994
1.23474
1.22167
1.21111
1.20124
1.18943
1.17643
1.16097
1.14512
1.13215
1.1221
1.11048
1.09741
1.084
1.10555
1.09191
1.07755
1.06363
1.05011
1.03643
1.02373
1.00876
0.992483
0.974384
0.966135
0.954033
0.985682
0.975022
0.959653
0.946056
0.935489
0.926394
0.915947
0.906674
0.886129
0.875362
0.865322
0.854516
0.843786
0.827809
0.820159
0.813952
0.795663
0.779198
0.78833
0.804565
1.52736
1.50542
1.51102
1.51
1.50956
1.51589
1.48963
1.49278
1.48742
1.48145
1.46735
1.42484
1.41634
1.40676
1.39975
1.3902
1.37112
1.35695
1.34067
1.32445
1.34215
1.3256
1.31212
1.30996
1.2999
1.28653
1.2757
1.26665
1.25928
1.2509
1.23306
1.2231
1.21438
1.20513
1.19244
1.17449
1.15794
1.14473
1.13404
1.12354
1.11261
1.10161
1.09322
1.09716
1.08878
1.07703
1.06167
1.04852
1.0354
1.02296
1.0103
0.996644
0.981387
0.970694
0.963418
0.969017
0.964657
0.955684
0.937049
0.920752
0.935507
0.919411
0.904323
0.888597
0.876263
0.864913
0.853446
0.842517
0.830599
0.821448
0.813513
0.806159
0.754742
0.782928
0.80545
1.55001
1.5454
1.52055
1.51114
1.51569
1.51354
1.50047
1.49439
1.48718
1.4785
1.45922
1.43619
1.4127
1.39823
1.3828
1.39929
1.37963
1.36264
1.34699
1.33465
1.33385
1.32446
1.31427
1.30588
1.29501
1.28267
1.27291
1.27193
1.2649
1.26401
1.22363
1.22313
1.21818
1.21124
1.19757
1.17773
1.15401
1.14287
1.13498
1.12545
1.11466
1.10569
1.09904
1.09399
1.0872
1.0798
1.05926
1.04712
1.03376
1.02264
1.01264
1.00221
0.98368
0.975233
0.962989
0.957253
0.953505
0.959974
0.935988
0.929165
0.932127
0.913234
0.900268
0.8876
0.875867
0.864534
0.852821
0.841024
0.829685
0.821257
0.812454
0.799827
0.781173
0.785268
0.786859
1.55148
1.53994
1.52145
1.50484
1.53073
1.52065
1.50526
1.49657
1.48708
1.47842
1.45776
1.44894
1.39995
1.3961
1.38924
1.39111
1.38019
1.36704
1.35369
1.33821
1.33046
1.32266
1.31412
1.30433
1.29274
1.27753
1.26148
1.27976
1.26376
1.25391
1.23661
1.22817
1.22139
1.21485
1.20551
1.1875
1.14302
1.14195
1.13734
1.12925
1.11424
1.10793
1.10054
1.09477
1.09026
1.0903
1.04902
1.04654
1.02995
1.0214
1.01558
1.01564
0.976013
0.979
0.957159
0.949818
0.942501
0.964487
0.943772
0.934311
0.939339
0.898233
0.89455
0.885726
0.875363
0.864164
0.852559
0.838361
0.826535
0.824391
0.815957
0.80242
0.792826
0.794447
0.780983
1.54318
1.52906
1.51852
1.52063
1.52599
1.51787
1.50629
1.49841
1.49198
1.4889
1.43861
1.43292
1.41129
1.40234
1.3957
1.38922
1.38102
1.37224
1.36798
1.32724
1.32637
1.32141
1.31457
1.30493
1.29302
1.27794
1.26701
1.26871
1.26134
1.25282
1.24116
1.23201
1.22424
1.21854
1.21726
1.16479
1.15325
1.14903
1.14316
1.13954
1.10503
1.11099
1.10041
1.09477
1.08833
1.07866
1.06242
1.06064
1.01792
1.01735
1.01267
1.00521
0.988365
0.978705
0.964215
0.953846
0.949414
0.951694
0.941965
0.932216
0.925405
0.90759
0.895256
0.885289
0.875323
0.864439
0.853533
0.835771
0.816772
0.8359
0.82181
0.801408
0.786131
0.807543
0.78918
1.53612
1.52157
1.50963
1.53359
1.52367
1.51434
1.50417
1.4989
1.49275
1.48224
1.43003
1.42491
1.42111
1.41129
1.40087
1.39032
1.38191
1.37305
1.35502
1.33714
1.32844
1.32195
1.31653
1.30805
1.29772
1.27551
1.26407
1.25845
1.25494
1.25383
1.24478
1.23403
1.22455
1.21714
1.21524
1.16511
1.16029
1.14916
1.1411
1.12415
1.11742
1.13252
1.09548
1.09548
1.08953
1.07256
1.06188
1.05236
1.02624
1.01819
1.01219
1.00438
0.993642
0.983615
0.972467
0.955307
0.949157
0.944764
0.937786
0.929101
0.920368
0.910835
0.894197
0.885109
0.875912
0.865109
0.852672
0.836702
0.825746
0.834892
0.823412
0.809272
0.797308
0.797374
0.786172
1.53548
1.52319
1.51862
1.52085
1.5142
1.51017
1.50626
1.50382
1.49943
1.45474
1.43616
1.41944
1.43574
1.41979
1.40654
1.3896
1.38312
1.38345
1.34242
1.33821
1.32857
1.32128
1.32394
1.31194
1.31599
1.2622
1.25464
1.24768
1.25283
1.25964
1.24989
1.2355
1.22254
1.21098
1.19948
1.1803
1.16813
1.15229
1.13717
1.12013
1.11517
1.13935
1.11521
1.10344
1.10161
1.06059
1.06046
1.06009
1.01659
1.01695
1.01405
1.00692
0.997636
0.989391
0.987326
0.946363
0.946608
0.942109
0.935232
0.924552
0.915673
0.923292
0.885199
0.884951
0.878571
0.867949
0.854786
0.838732
0.823367
0.841686
0.826644
0.81487
0.803891
0.795986
0.784966
1.53555
1.52557
1.51966
1.51403
1.50347
1.48652
1.51866
1.50394
1.48659
1.46286
1.44574
1.43207
1.42962
1.42095
1.41756
1.37678
1.3777
1.37213
1.35601
1.34558
1.33138
1.31896
1.34194
1.29716
1.3232
1.26346
1.24903
1.22871
1.24921
1.27082
1.25386
1.23478
1.21789
1.20482
1.19047
1.17701
1.17254
1.1591
1.1389
1.1198
1.13598
1.13303
1.11687
1.10197
1.08984
1.07042
1.05952
1.04768
1.02588
1.01635
1.02081
1.012
1.00017
0.989092
0.977617
0.958485
0.949093
0.941745
0.934116
0.918079
0.898968
0.916296
0.89617
0.894024
0.88501
0.872189
0.858857
0.845524
0.836725
0.835786
0.826407
0.814859
0.804614
0.794625
0.782633
1.53836
1.52592
1.51891
1.51247
1.50998
1.47183
1.51496
1.50315
1.48295
1.46435
1.44922
1.43535
1.42434
1.41437
1.4016
1.38621
1.37852
1.3721
1.36324
1.35397
1.34225
1.33046
1.32471
1.30743
1.30164
1.27546
1.25312
1.24061
1.24814
1.25408
1.2458
1.23257
1.21097
1.19929
1.18319
1.16564
1.18234
1.16492
1.147
1.13519
1.13404
1.12757
1.11732
1.09751
1.08535
1.07198
1.05946
1.04563
1.02624
1.01048
1.03376
1.01871
1.00193
0.989032
0.975831
0.960899
0.949505
0.940399
0.93305
0.922438
0.906975
0.901391
0.889846
0.910362
0.893605
0.876771
0.863331
0.851961
0.84278
0.83444
0.82514
0.812288
0.801326
0.790092
0.777405
1.53473
1.52414
1.51646
1.5072
1.50073
1.49955
1.50486
1.49571
1.47989
1.46378
1.44883
1.43489
1.42176
1.40858
1.3936
1.38252
1.37841
1.3751
1.37024
1.36409
1.35519
1.34083
1.32192
1.30779
1.29716
1.28131
1.25619
1.24874
1.24947
1.24668
1.24062
1.23786
1.19452
1.19473
1.18586
1.1785
1.17128
1.16269
1.15047
1.14048
1.13374
1.12832
1.12767
1.08543
1.08202
1.07246
1.06093
1.0483
1.03485
1.02551
1.02574
1.01434
1.00099
0.989438
0.975799
0.959783
0.947623
0.938037
0.930194
0.928208
0.913548
0.895004
0.912666
0.906572
0.891745
0.878154
0.866267
0.856184
0.846387
0.83691
0.826356
0.8077
0.797607
0.787401
0.775485
1.53348
1.52104
1.51282
1.50618
1.49722
1.51845
1.50599
1.49136
1.47676
1.46184
1.44711
1.43323
1.41945
1.40426
1.38101
1.3715
1.37726
1.38141
1.37668
1.37663
1.36069
1.34453
1.32234
1.3082
1.29828
1.28471
1.26131
1.25112
1.24776
1.24295
1.23169
1.22246
1.20403
1.19524
1.18704
1.18177
1.17215
1.15987
1.15189
1.14224
1.13372
1.12546
1.11604
1.09708
1.08558
1.07443
1.0634
1.05209
1.0414
1.03344
1.02614
1.00917
0.998142
0.991141
0.978022
0.955102
0.942919
0.938707
0.927401
0.944351
0.926452
0.912289
0.907529
0.8983
0.886622
0.874306
0.870039
0.860108
0.849351
0.840901
0.836342
0.79489
0.793952
0.786251
0.774816
1.53119
1.51818
1.50392
1.52265
1.51162
1.50743
1.49995
1.48768
1.47405
1.45922
1.44483
1.43127
1.41872
1.40832
1.35686
1.35489
1.3783
1.39256
1.3767
1.40013
1.35225
1.34231
1.32575
1.31208
1.29963
1.28484
1.26845
1.25597
1.2464
1.24108
1.22266
1.21581
1.20371
1.19398
1.18632
1.18227
1.17842
1.15892
1.15495
1.14335
1.13285
1.12354
1.1145
1.10122
1.08888
1.07693
1.06549
1.05463
1.04533
1.03881
1.03852
0.998187
0.997342
0.99265
0.989583
0.942751
0.933225
0.952719
0.942376
0.941175
0.932021
0.929825
0.891873
0.890956
0.883077
0.862152
0.879102
0.862011
0.849621
0.840234
0.820319
0.805354
0.797634
0.788779
0.775575
1.53336
1.52669
1.52115
1.51928
1.51307
1.50373
1.49642
1.48554
1.47237
1.45621
1.44169
1.42816
1.4143
1.39101
1.35991
1.37908
1.38138
1.37818
1.37249
1.38163
1.36304
1.34655
1.33125
1.31528
1.30182
1.2883
1.2737
1.25809
1.24536
1.23468
1.22075
1.21319
1.20285
1.19009
1.17796
1.18189
1.18667
1.16968
1.156
1.14353
1.1305
1.11945
1.11982
1.10499
1.09151
1.07886
1.06688
1.05607
1.0464
1.03748
1.02806
1.01014
1.00072
0.992226
0.981238
0.960103
0.950485
0.949948
0.944693
0.937717
0.929436
0.91981
0.902322
0.892435
0.882523
0.86815
0.871193
0.869411
0.8464
0.833178
0.816824
0.80753
0.802392
0.794936
0.775345
1.55251
1.53537
1.52906
1.5203
1.5132
1.50337
1.49524
1.48561
1.47364
1.45162
1.43756
1.42435
1.4094
1.39056
1.37199
1.38109
1.3781
1.3673
1.35653
1.37968
1.36534
1.34876
1.3338
1.3156
1.304
1.29252
1.27851
1.25305
1.24232
1.2294
1.21755
1.21553
1.20459
1.18747
1.16469
1.18125
1.19952
1.17548
1.15881
1.14419
1.12705
1.11037
1.12725
1.10989
1.0953
1.08079
1.06725
1.05629
1.04669
1.03676
1.0261
1.01384
1.00388
0.994335
0.983113
0.968618
0.961137
0.94473
0.945386
0.937139
0.92801
0.917662
0.904991
0.893659
0.882424
0.870114
0.857775
0.834314
0.833303
0.823988
0.811872
0.805439
0.811364
0.811104
0.759836
1.55299
1.54003
1.53172
1.52305
1.5143
1.50429
1.49562
1.48826
1.48479
1.43856
1.43248
1.42215
1.40724
1.38988
1.37145
1.38862
1.37687
1.36651
1.35918
1.36288
1.35983
1.34778
1.33277
1.31115
1.2986
1.28862
1.27087
1.24983
1.23837
1.22437
1.20815
1.22634
1.21126
1.19487
1.18074
1.18044
1.1832
1.17233
1.15956
1.14703
1.12719
1.1189
1.11956
1.11068
1.09991
1.08108
1.06553
1.05596
1.0471
1.03661
1.02616
1.0155
1.00619
0.997596
0.988013
0.970054
0.961683
0.950028
0.944926
0.937677
0.928506
0.917599
0.905386
0.893951
0.882987
0.87086
0.856096
0.839093
0.828696
0.817702
0.803882
0.793331
0.816597
0.80258
0.767941
1.55263
1.54186
1.53434
1.52599
1.51671
1.50377
1.49461
1.48708
1.47662
1.44878
1.43112
1.42136
1.40756
1.39378
1.38551
1.37748
1.37132
1.36571
1.35747
1.35407
1.35883
1.344
1.32547
1.30742
1.2841
1.25584
1.25493
1.24853
1.23895
1.22842
1.21979
1.21908
1.21101
1.2005
1.18942
1.18172
1.17483
1.1673
1.15912
1.15886
1.12022
1.12021
1.11465
1.11073
1.11287
1.0752
1.06476
1.05852
1.04852
1.0367
1.02606
1.01627
1.00795
1.00188
1.0015
0.961105
0.960504
0.953575
0.947184
0.939952
0.930866
0.918394
0.904419
0.894008
0.884922
0.873584
0.85783
0.837661
0.824387
0.813929
0.80419
0.798072
0.802526
0.79324
0.772814
1.5579
1.5427
1.53612
1.52926
1.52029
1.50359
1.49212
1.48755
1.47455
1.45426
1.43066
1.42054
1.40698
1.39709
1.38996
1.37833
1.36949
1.35998
1.35008
1.33982
1.36399
1.34006
1.31782
1.30284
1.273
1.25762
1.25247
1.2479
1.24097
1.23163
1.22286
1.21597
1.2089
1.20054
1.18986
1.18094
1.17034
1.15894
1.14875
1.15049
1.13599
1.12423
1.10849
1.10363
1.10703
1.09064
1.07344
1.06295
1.05176
1.03549
1.02523
1.01557
1.00735
1.00043
0.991866
0.974607
0.96573
0.958103
0.950605
0.943566
0.936358
0.916855
0.903177
0.894889
0.888731
0.874183
0.862422
0.834941
0.819785
0.810066
0.804225
0.800409
0.796242
0.789019
0.769226
1.55188
1.54024
1.53412
1.53236
1.52134
1.50572
1.49423
1.48614
1.4763
1.46773
1.42299
1.42274
1.4037
1.398
1.38841
1.37704
1.3664
1.35462
1.34412
1.34912
1.35401
1.34572
1.30162
1.2957
1.27565
1.26245
1.25177
1.25195
1.24496
1.23422
1.22386
1.21484
1.20708
1.19823
1.18972
1.17999
1.16718
1.15125
1.13748
1.16037
1.14552
1.12658
1.1011
1.09114
1.1124
1.09662
1.07961
1.06672
1.05413
1.03294
1.02371
1.01341
1.00644
0.999879
0.991496
0.979876
0.969787
0.960964
0.953081
0.947225
0.947494
0.906186
0.902356
0.898067
0.899797
0.86167
0.863639
0.838354
0.81802
0.807529
0.802496
0.798368
0.795341
0.796569
0.75477
1.55456
1.53814
1.52415
1.54153
1.52501
1.50762
1.49549
1.48498
1.47284
1.46009
1.44195
1.43908
1.39396
1.3948
1.38647
1.37691
1.36465
1.34898
1.33423
1.35798
1.34484
1.32915
1.30769
1.29424
1.28406
1.26282
1.24513
1.26477
1.249
1.23613
1.22365
1.21294
1.20558
1.19593
1.19071
1.17928
1.16439
1.15017
1.15205
1.15391
1.14125
1.12478
1.10608
1.09987
1.1027
1.09414
1.08219
1.06897
1.04994
1.03262
1.02297
1.00786
1.00472
1.00221
0.994435
0.983595
0.972742
0.962788
0.953511
0.944857
0.935328
0.916638
0.906236
0.897473
0.888533
0.870814
0.861006
0.841697
0.825545
0.80431
0.800213
0.795094
0.790907
0.783353
0.763939
1.5578
1.5475
1.53592
1.53219
1.5198
1.50643
1.49527
1.48507
1.46934
1.45948
1.44735
1.43376
1.40553
1.3952
1.38569
1.379
1.36596
1.35132
1.34278
1.34378
1.33364
1.32008
1.30519
1.29056
1.29276
1.26892
1.25737
1.25729
1.24589
1.23621
1.22187
1.20849
1.20174
1.19502
1.19589
1.18221
1.16314
1.14457
1.16564
1.15133
1.13625
1.12145
1.10828
1.10122
1.09744
1.09217
1.08431
1.07276
1.046
1.03527
1.03007
0.988071
1.00213
1.00957
1.00012
0.987142
0.974881
0.963731
0.953257
0.943159
0.932141
0.918967
0.907703
0.897115
0.885506
0.871543
0.858407
0.843916
0.828167
0.807921
0.79658
0.788548
0.791863
0.781662
0.765953
1.5605
1.5628
1.54141
1.52889
1.5146
1.50205
1.49202
1.48591
1.46752
1.46108
1.45451
1.44377
1.39824
1.39594
1.3887
1.38043
1.36927
1.34992
1.34082
1.33345
1.32824
1.3141
1.29804
1.28233
1.30039
1.28161
1.26648
1.25674
1.24609
1.23454
1.21913
1.20518
1.1945
1.1918
1.20954
1.18899
1.1683
1.15379
1.15485
1.14421
1.1311
1.11715
1.10549
1.09837
1.09391
1.09031
1.08483
1.075
1.04974
1.0364
1.01436
0.987273
1.00713
1.02835
1.00656
0.988995
0.9758
0.964099
0.95295
0.942251
0.931154
0.919483
0.908232
0.897561
0.88531
0.871859
0.858366
0.844217
0.82721
0.809631
0.793864
0.777319
0.798274
0.783684
0.7681
1.54767
1.5291
1.53578
1.52807
1.50769
1.4948
1.48477
1.48517
1.47017
1.46111
1.46841
1.42471
1.41038
1.4007
1.39243
1.3848
1.38059
1.33827
1.33714
1.33075
1.32327
1.31332
1.30188
1.29299
1.2901
1.28022
1.26849
1.25799
1.24802
1.23624
1.21444
1.19906
1.18749
1.21595
1.20341
1.19011
1.16952
1.1544
1.14902
1.13878
1.12595
1.10988
1.09973
1.09141
1.08791
1.09044
1.08463
1.07226
1.05723
1.05387
1.01288
1.00707
1.01287
1.01719
1.00439
0.988204
0.975027
0.963482
0.952529
0.941708
0.930871
0.919783
0.908531
0.897945
0.886054
0.872893
0.859773
0.844695
0.822962
0.807405
0.795326
0.785843
0.788124
0.78162
0.771058
1.53849
1.54481
1.54385
1.54024
1.49394
1.48742
1.47372
1.49003
1.46968
1.44714
1.46281
1.43695
1.41781
1.40564
1.39592
1.38602
1.36684
1.34775
1.33843
1.32983
1.32185
1.31455
1.30715
1.29994
1.28465
1.27643
1.26794
1.2592
1.25124
1.24763
1.20262
1.19904
1.2073
1.2248
1.18795
1.19529
1.15855
1.15017
1.14932
1.13589
1.13039
1.09211
1.09094
1.08175
1.07353
1.10024
1.08756
1.06995
1.05063
1.06447
1.03823
1.02399
1.01846
1.01366
1.00394
0.984186
0.972633
0.962103
0.951961
0.94148
0.930827
0.919832
0.908851
0.900041
0.887286
0.87324
0.861621
0.841852
0.818359
0.804589
0.795251
0.784885
0.779654
0.783016
0.775348
1.51679
1.56224
1.55204
1.53274
1.50526
1.49376
1.48371
1.47932
1.46694
1.45247
1.44785
1.43634
1.42009
1.40836
1.39933
1.39661
1.35337
1.34787
1.33851
1.32727
1.32025
1.3166
1.31279
1.31304
1.27374
1.2725
1.26775
1.26036
1.2504
1.23817
1.2146
1.20137
1.21912
1.21109
1.1915
1.18182
1.16524
1.15603
1.15828
1.1208
1.11196
1.09864
1.09021
1.08145
1.07926
1.09237
1.08683
1.07355
1.06346
1.06051
1.04577
1.03226
1.02296
1.01586
1.01403
0.971754
0.969046
0.960922
0.951464
0.941727
0.931161
0.920635
0.910604
0.90128
0.890855
0.871751
0.8583
0.835404
0.820119
0.806906
0.796494
0.782695
0.771134
0.792973
0.780482
1.55346
1.55773
1.55152
1.53769
1.52326
1.50214
1.4878
1.47525
1.46389
1.45234
1.44183
1.43175
1.41875
1.40837
1.39665
1.38461
1.36424
1.35216
1.34065
1.32091
1.31444
1.32045
1.31577
1.30439
1.28817
1.27179
1.27275
1.26321
1.25137
1.2392
1.22554
1.22662
1.19855
1.19959
1.18543
1.17518
1.16367
1.15349
1.14441
1.12669
1.11252
1.1006
1.08842
1.0773
1.08802
1.09269
1.08835
1.07703
1.06776
1.05915
1.04822
1.03688
1.02546
1.01302
1.00159
0.981987
0.97065
0.960818
0.952129
0.941842
0.931551
0.921319
0.912146
0.903954
0.900856
0.857201
0.851132
0.835053
0.822372
0.811381
0.801036
0.791185
0.785251
0.781511
0.773812
1.57016
1.56376
1.55549
1.5425
1.53128
1.50448
1.48923
1.4732
1.46109
1.45068
1.43905
1.42859
1.41751
1.4059
1.39379
1.38087
1.36684
1.35629
1.35113
1.30446
1.29797
1.32463
1.3242
1.30992
1.30565
1.25796
1.28771
1.26528
1.25221
1.24198
1.22435
1.21667
1.20287
1.19596
1.17782
1.17013
1.16087
1.15082
1.13955
1.12578
1.11207
1.09852
1.08182
1.06444
1.09223
1.10263
1.09707
1.07973
1.0709
1.06158
1.05115
1.04033
1.02908
1.00919
0.997401
0.984087
0.971433
0.959848
0.952899
0.942618
0.932299
0.922033
0.911844
0.901337
0.888404
0.864807
0.851197
0.836874
0.823486
0.815607
0.805074
0.798831
0.801146
0.765612
0.768361
1.59198
1.57459
1.56191
1.54411
1.54325
1.49507
1.48998
1.46911
1.45763
1.44989
1.43521
1.42646
1.41655
1.40523
1.39241
1.37799
1.36462
1.35432
1.33968
1.32021
1.30928
1.30785
1.33091
1.31853
1.30285
1.28735
1.2989
1.25274
1.25174
1.25329
1.21397
1.21344
1.2047
1.18792
1.17455
1.16721
1.15823
1.14801
1.137
1.12443
1.11148
1.0978
1.08215
1.06749
1.07221
1.1082
1.11099
1.07556
1.07431
1.06538
1.05466
1.04447
1.04092
0.997374
0.995147
0.986321
0.971068
0.961119
0.952827
0.942877
0.932578
0.922561
0.91229
0.900977
0.887071
0.863205
0.851307
0.839368
0.827392
0.815998
0.80578
0.797993
0.790474
0.774847
0.770353
1.60403
1.58872
1.57382
1.52854
1.53496
1.49384
1.47669
1.4645
1.45572
1.45398
1.43199
1.42518
1.41674
1.40626
1.39444
1.37452
1.3573
1.34598
1.33722
1.32771
1.31866
1.31547
1.32007
1.31457
1.30337
1.29488
1.2837
1.26077
1.25011
1.24244
1.22552
1.2178
1.21423
1.1737
1.17304
1.16646
1.15728
1.14652
1.13515
1.12326
1.1112
1.09848
1.08347
1.06561
1.07598
1.09359
1.09018
1.09936
1.08364
1.07068
1.05884
1.04247
1.02921
1.00715
0.996565
0.986688
0.971816
0.961469
0.953592
0.943862
0.933474
0.923287
0.913227
0.903373
0.896529
0.850302
0.849603
0.840594
0.830164
0.814766
0.804429
0.795706
0.78726
0.777414
0.772067
1.61137
1.60506
1.55141
1.52478
1.51039
1.47457
1.46273
1.44983
1.46544
1.45133
1.4335
1.423
1.41732
1.40778
1.39848
1.3737
1.35157
1.33043
1.3473
1.33335
1.32243
1.31722
1.31176
1.30867
1.30178
1.29319
1.28011
1.26389
1.25099
1.2403
1.22625
1.21021
1.19666
1.18705
1.17954
1.16791
1.1571
1.14575
1.1341
1.12213
1.1116
1.10197
1.09351
1.04509
1.07584
1.1022
1.09543
1.091
1.08295
1.07428
1.06158
1.04278
1.02859
1.00606
0.992227
0.980993
0.97806
0.966753
0.955634
0.944547
0.934039
0.923699
0.913847
0.903005
0.881882
0.860677
0.851003
0.841914
0.832302
0.813696
0.80235
0.793123
0.784924
0.77821
0.773834
1.61449
1.60537
1.56516
1.50934
1.50132
1.48563
1.46573
1.45449
1.45413
1.4471
1.43456
1.42427
1.41723
1.40898
1.39822
1.37906
1.34621
1.33526
1.33669
1.33078
1.32088
1.31303
1.30869
1.30695
1.30116
1.29174
1.27915
1.26509
1.2516
1.23873
1.22341
1.20325
1.18388
1.20281
1.18726
1.1696
1.1586
1.14528
1.13299
1.12006
1.11141
1.10357
1.09188
1.07432
1.08086
1.09039
1.08716
1.08265
1.08098
1.07495
1.06346
1.04763
1.04195
0.995508
0.986248
0.971545
0.985485
0.971581
0.956288