/*--------------------------------*- C++ -*----------------------------------*\
  =========                 |
  \\      /  F ield         | OpenFOAM: The Open Source CFD Toolbox
   \\    /   O peration     | Website:  https://openfoam.org
    \\  /    A nd           | Version:  12
     \\/     M anipulation  |
\*---------------------------------------------------------------------------*/
FoamFile
{
    format      ascii;
    class       surfaceScalarField;
    location    "0.95";
    object      phi.water;
}
// * * * * * * * * * * * * * * * * * * * * * * * * * * * * * * * * * * * * * //

dimensions      [0 3 -1 0 0 0 0];

internalField   nonuniform List<scalar> 
7375
(
-1.19995e-07
-1.94648e-07
-3.16745e-08
-4.66443e-08
5.07764e-09
-3.30276e-08
2.3152e-08
-1.85843e-08
5.04623e-08
-2.70376e-08
7.4361e-08
-2.41196e-08
9.53401e-08
-2.09794e-08
9.37264e-08
2.59191e-09
1.07195e-07
-1.34764e-08
1.15367e-07
-8.06843e-09
1.37591e-07
-2.24709e-08
1.26586e-07
1.10336e-08
1.36645e-07
-8.77369e-09
1.08864e-07
2.8051e-08
1.19956e-07
-1.21997e-08
1.9076e-07
-7.0814e-08
1.21615e-07
6.91374e-08
1.05765e-07
1.47547e-08
1.08484e-07
-2.69207e-09
9.94052e-08
9.09682e-09
1.10906e-07
-1.16187e-08
1.1031e-07
5.87592e-10
1.12028e-07
-2.82082e-09
1.1148e-07
1.6793e-09
1.36496e-07
-2.52632e-08
1.88407e-07
-5.05187e-08
1.58757e-07
3.16049e-08
2.06878e-07
-5.02864e-08
1.50461e-07
5.43331e-08
1.59266e-07
-8.71733e-09
1.60811e-07
-1.54492e-09
1.75738e-07
-1.4778e-08
1.6893e-07
8.51772e-09
1.75483e-07
-6.5749e-09
1.70615e-07
3.16036e-09
1.66077e-07
4.5379e-09
1.49995e-07
1.77752e-08
1.46651e-07
3.40007e-09
1.33011e-07
1.35033e-08
1.44457e-07
-1.28006e-08
1.55897e-07
-1.14397e-08
1.61907e-07
-2.72878e-09
1.70716e-07
-8.77364e-09
1.92934e-07
-2.44714e-08
2.02506e-07
-7.50274e-09
2.02632e-07
-2.1608e-09
2.03169e-07
-4.63461e-09
1.87088e-07
1.81324e-08
1.66516e-07
2.39617e-08
1.16141e-07
4.9904e-08
8.49867e-08
3.02322e-08
8.5751e-08
7.32082e-11
-3.12649e-08
-4.45519e-09
8.54389e-08
4.75086e-09
5.71415e-08
2.76643e-08
4.20211e-08
1.5681e-08
3.29842e-07
7.3413e-08
6.28539e-08
-9.28864e-08
1.14175e-07
-5.06975e-08
1.26157e-07
-1.1962e-08
1.35108e-07
-9.04723e-09
1.14967e-07
2.01274e-08
1.10673e-07
4.36009e-09
1.00904e-07
9.85929e-09
9.93709e-08
1.5256e-09
1.0668e-07
-7.30641e-09
1.20211e-07
-1.33957e-08
1.21474e-07
-2.49706e-09
1.28846e-07
-7.37194e-09
1.29798e-07
1.69947e-09
1.30205e-07
-3.11661e-10
1.43539e-07
-1.31934e-08
1.406e-07
1.5123e-09
1.36834e-07
2.34614e-09
1.96523e-08
1.38668e-07
-4.38926e-07
8.8404e-08
-5.48283e-08
4.54652e-08
5.29626e-09
1.54602e-08
1.03349e-08
1.17882e-08
-2.34027e-08
1.69616e-08
-2.91732e-08
1.96966e-08
-2.39289e-08
2.51569e-08
-2.83984e-09
3.72654e-08
-2.59655e-08
4.01648e-08
-1.04571e-08
2.76049e-08
-9.59645e-09
4.69763e-08
-8.14064e-09
9.92163e-08
-5.99915e-08
5.10327e-08
7.49223e-08
3.7982e-08
3.26598e-10
3.26661e-07
6.7474e-10
5.95537e-08
-2.41637e-08
9.05762e-08
-1.71924e-08
1.12198e-07
-2.52197e-08
1.19649e-07
3.9471e-09
1.16852e-07
-7.70921e-09
1.21277e-07
-6.26725e-09
1.20522e-07
-2.07339e-09
1.3687e-07
-1.32871e-08
7.31141e-08
3.88421e-08
3.17899e-07
6.80484e-08
2.93428e-08
-4.37122e-08
2.8722e-07
5.27492e-08
6.26741e-08
-8.11787e-08
1.01651e-07
-4.71491e-08
1.13342e-07
-1.33557e-08
1.27915e-07
-3.07924e-08
1.39759e-07
-2.05473e-09
1.43256e-07
-5.72281e-09
1.20411e-07
2.57371e-08
1.18587e-07
3.99161e-09
9.03653e-08
4.83342e-08
6.20468e-08
3.17335e-08
8.22964e-08
-8.74219e-09
1.00084e-07
-2.97565e-08
1.07113e-07
-1.86574e-08
1.23861e-07
-1.9477e-08
1.61391e-07
-4.16568e-08
1.72355e-07
-3.54352e-08
2.21604e-07
-6.08894e-08
2.35627e-07
-1.59991e-08
2.42747e-07
-1.18016e-08
2.61431e-07
-3.00286e-09
3.06253e-07
-2.44466e-08
2.13782e-07
1.48624e-07
2.11346e-07
3.26927e-08
1.74331e-07
3.28621e-08
1.50541e-07
1.94232e-08
1.5645e-07
1.89386e-09
1.60658e-07
2.70031e-08
1.60024e-07
1.63086e-08
1.97797e-07
3.32341e-08
1.37838e-07
-3.58924e-08
1.19915e-07
-3.24443e-08
1.34449e-07
-2.51243e-08
1.43371e-07
-1.8156e-08
1.42608e-07
2.2337e-08
1.09256e-07
3.88498e-08
9.19698e-08
2.48934e-08
9.10474e-08
1.50984e-09
8.62486e-08
-3.35324e-09
9.29222e-08
-2.00692e-08
9.77107e-08
-6.27373e-09
9.84298e-08
-8.08392e-09
1.08821e-07
-8.69163e-09
1.12619e-07
-4.06507e-09
1.09943e-07
-1.05171e-08
1.2171e-07
-1.03761e-08
1.22008e-07
8.27561e-10
3.94714e-09
-2.80053e-07
-1.64361e-07
-2.16501e-07
-6.53048e-08
-1.40917e-07
-4.65669e-08
-8.57184e-08
-4.11143e-08
-8.38721e-08
-2.54856e-08
-7.04407e-08
-4.34606e-08
-7.34581e-08
-2.01625e-08
-6.66341e-08
-9.66427e-09
-5.33369e-08
-3.93988e-08
-5.81437e-08
-6.28002e-09
-9.88777e-08
3.06367e-08
-1.3227e-07
2.62599e-08
9.76264e-08
7.01687e-08
-1.373e-07
-4.9676e-08
-1.30279e-07
-8.01124e-09
2.05824e-07
2.89254e-08
-5.94538e-08
-1.24881e-07
-2.81884e-08
-4.75642e-08
-2.16876e-08
-3.17567e-08
-3.77415e-09
-1.40045e-08
6.74786e-09
-1.81915e-08
3.4807e-08
-3.46819e-08
3.31975e-08
-8.20499e-10
3.35479e-08
-1.37805e-08
5.56449e-08
1.69128e-08
1.18237e-07
6.60286e-09
7.58438e-08
-1.31899e-09
1.17697e-07
9.58348e-09
4.11494e-08
-5.45904e-09
3.19997e-08
-3.84805e-08
2.65203e-08
-7.87649e-09
1.70584e-08
-2.14706e-08
2.4371e-08
-9.3885e-09
3.57043e-08
-1.78511e-08
1.42599e-08
4.72832e-08
-9.94545e-09
2.82415e-08
5.78882e-09
3.28219e-08
-1.04066e-07
1.96004e-08
-2.93852e-09
1.10978e-08
-3.27714e-09
-2.97513e-08
1.4775e-08
-3.63386e-08
4.01814e-08
-4.50819e-08
4.91863e-08
-5.06616e-08
5.51134e-08
-3.96722e-08
6.65288e-08
-7.29903e-08
9.94131e-08
-4.95552e-08
1.07515e-07
-1.97845e-08
9.26386e-08
1.38852e-08
3.62573e-07
7.77677e-08
5.10881e-08
-3.13204e-08
1.1169e-07
9.10791e-08
1.26133e-07
1.74781e-08
1.303e-07
1.65587e-08
1.14941e-07
1.99778e-08
1.26891e-07
1.47746e-08
9.70716e-08
4.51273e-08
1.0818e-07
2.17865e-08
8.53402e-08
-1.39232e-08
7.24308e-08
-1.9535e-08
8.71065e-08
-3.81725e-08
1.36572e-07
-6.81367e-08
8.72313e-08
6.95747e-08
7.66886e-08
4.81091e-08
7.20287e-08
2.90034e-08
5.95598e-08
1.3509e-08
6.06705e-08
-4.46386e-09
6.14801e-08
-2.10918e-08
6.82323e-08
-1.3715e-08
7.55646e-08
-1.47273e-08
8.13985e-08
-1.44379e-08
8.70581e-08
-9.72479e-09
7.74604e-08
7.59325e-10
6.79096e-08
-8.2468e-10
6.46537e-08
3.39071e-09
5.50514e-09
-1.286e-08
-1.13442e-08
-4.42792e-08
-2.55442e-08
-7.55714e-08
-1.00064e-08
-7.15919e-08
-4.35523e-08
-8.10917e-08
-1.62462e-08
-1.14154e-07
-1.05055e-08
-1.03213e-07
-3.11047e-08
-6.84815e-08
-4.44944e-08
-8.52104e-08
-2.20257e-08
-3.56304e-08
-5.59238e-08
-9.01851e-08
8.45148e-08
-8.7856e-08
2.45759e-08
-2.68659e-08
9.17815e-09
-4.30794e-08
-3.37371e-08
-1.11514e-07
-5.85743e-08
3.95002e-08
-3.54054e-09
-2.71578e-08
-5.65466e-08
-4.27641e-08
-3.19584e-08
-4.52611e-08
-2.91225e-08
-3.85657e-08
-2.08418e-08
-4.93277e-08
-7.82342e-09
-5.72373e-08
-2.70486e-08
-5.89991e-08
3.30639e-10
-5.46745e-08
-1.76839e-08
-3.91199e-08
1.68569e-09
-3.17381e-08
-1.18239e-09
-4.53226e-08
1.27324e-08
-2.51489e-08
-1.05905e-08
-2.97534e-08
-8.54672e-10
-4.33455e-08
-2.51451e-08
-2.63088e-08
-2.49133e-08
-4.81066e-08
3.27241e-10
-5.8034e-08
4.26042e-11
-8.62855e-08
9.61018e-09
-6.39103e-08
2.60166e-08
-6.28249e-08
2.75201e-08
-4.28162e-08
1.19202e-08
-6.18906e-08
3.72491e-08
-3.84179e-08
-1.15039e-08
-5.24274e-08
-1.49677e-08
-2.97188e-08
-5.90471e-08
-4.02768e-09
-7.1076e-08
-2.89845e-08
-2.5409e-08
-3.9112e-08
-2.95445e-08
-4.98917e-08
-6.25025e-08
-3.71388e-08
-6.24347e-08
-2.15924e-08
-3.55489e-08
-7.15067e-09
-6.29429e-10
5.41172e-08
1.55382e-08
1.37525e-08
9.41181e-09
-2.56322e-08
9.03108e-09
4.81392e-08
6.43657e-08
1.22576e-08
5.27312e-08
-4.61582e-09
3.69775e-08
-2.03957e-08
3.08727e-08
-4.13278e-09
2.85698e-08
8.49427e-09
9.20154e-09
-6.2284e-09
8.07668e-10
-1.96447e-08
-6.31797e-09
-5.89555e-08
5.4225e-10
1.73607e-07
6.20872e-08
-4.53607e-08
-6.9277e-08
-4.03146e-09
6.3625e-09
6.31124e-09
1.84969e-08
4.24848e-09
1.56368e-08
-2.75359e-09
2.44935e-09
-1.3611e-08
-1.02344e-08
-7.01367e-09
-2.04523e-08
4.89693e-09
-2.68382e-08
1.54693e-08
-2.50104e-08
2.92071e-08
-2.31677e-08
4.07105e-08
-1.07437e-08
3.95416e-08
3.49702e-10
4.32429e-08
-7.5164e-10
3.05485e-09
-8.94335e-08
-1.74657e-08
-8.71132e-08
2.38448e-10
-6.43599e-08
-2.4557e-08
-5.79816e-08
-4.79613e-08
-3.99139e-08
-3.47214e-08
-1.04783e-07
-6.69277e-08
-1.57169e-08
9.51329e-10
-4.62653e-08
-1.44184e-08
-9.00613e-08
2.17698e-08
1.54703e-07
5.98211e-08
-7.3792e-08
-4.63992e-08
-3.76635e-08
-1.1553e-08
-2.15415e-08
-7.23492e-09
-2.80376e-08
-2.72415e-08
-6.22637e-08
-2.45997e-08
-1.26413e-08
-5.31996e-08
3.3507e-08
-1.03754e-07
-3.2286e-08
3.38341e-08
-5.86969e-08
-2.71207e-09
-6.03807e-08
-1.9371e-08
-5.61747e-08
-1.26029e-08
-8.04597e-08
-2.76398e-09
-7.32704e-08
-6.03829e-09
-1.11166e-07
2.03917e-08
-1.03353e-07
-6.04862e-09
-8.88571e-08
-1.65731e-08
-8.7852e-08
1.18493e-08
-7.66514e-08
-2.0684e-08
-7.46542e-08
-3.57715e-09
-8.22162e-08
-1.75833e-08
-1.10566e-08
-9.62158e-08
-5.37067e-08
4.25432e-08
-4.525e-08
-8.87566e-09
-4.01533e-08
4.82825e-09
-1.89261e-08
4.93225e-09
-6.43925e-09
1.49059e-08
1.75425e-08
-1.22387e-08
4.60488e-08
8.16135e-09
6.7185e-08
-3.17005e-08
-2.38579e-08
-4.45232e-08
2.16125e-08
1.51773e-08
-2.92705e-08
-2.0401e-08
-7.62721e-08
2.15927e-08
-8.05112e-08
-2.6428e-08
-1.18038e-07
-2.49756e-08
-1.28369e-07
-5.08994e-08
-1.21002e-07
-4.2044e-08
-1.04405e-07
-1.7048e-08
-9.10204e-08
2.03816e-09
-7.83299e-08
-3.33995e-09
-1.12054e-07
4.11403e-08
-8.0885e-08
3.31969e-08
-6.64561e-08
3.96655e-08
-6.69601e-08
3.5738e-08
-1.69372e-07
1.24941e-08
-7.22235e-08
5.33951e-08
-7.77191e-08
1.33031e-08
-9.86236e-08
2.17121e-08
-9.56744e-08
-9.23713e-09
-1.18919e-07
2.3544e-08
-3.35606e-08
-2.26914e-08
-6.94285e-08
-3.4116e-08
-5.17942e-08
-1.06785e-08
-3.3572e-08
4.56918e-10
-2.83868e-08
9.84909e-09
-9.53924e-09
-1.62326e-08
-1.35754e-09
-1.84161e-08
9.03626e-09
-3.08461e-08
1.62566e-08
-3.40586e-08
1.46787e-08
-2.38375e-08
2.342e-08
-3.19089e-08
2.12849e-08
-8.58656e-09
4.50839e-08
-2.32141e-08
5.34602e-08
-8.66805e-09
6.51348e-09
-7.10732e-08
-1.58331e-08
-1.74417e-08
-3.17743e-08
-2.21366e-08
-1.7298e-08
-3.74821e-08
-3.23903e-08
-3.96982e-08
-3.25057e-08
-6.28498e-08
-4.30938e-08
-2.63633e-08
-3.55355e-08
-6.05558e-09
-3.47265e-08
7.41431e-09
8.0774e-09
4.85105e-08
1.85355e-08
-1.88812e-09
3.99896e-09
-1.54953e-08
1.93578e-09
-1.86532e-08
-4.07746e-09
-3.96084e-08
-6.69078e-09
-5.45345e-08
-9.67405e-09
-1.02762e-07
-5.46418e-09
1.10481e-07
4.73635e-08
-1.25456e-07
-9.15176e-08
-9.07308e-08
-3.74375e-08
-7.8504e-08
-3.12791e-08
-7.20118e-08
-1.90955e-08
-7.48517e-08
1.03654e-10
-5.46704e-08
-2.62199e-08
-2.76633e-08
-6.26955e-09
-2.11041e-08
-1.24821e-08
-1.49708e-08
-2.33125e-08
-5.10026e-09
1.88951e-09
4.86393e-08
-7.56272e-08
-2.00658e-09
4.75597e-08
-2.84522e-08
8.73083e-09
1.97521e-07
3.96483e-08
-3.42393e-08
-8.42151e-08
1.25229e-08
-5.59872e-08
9.18048e-08
-7.52708e-08
5.44809e-08
4.18792e-08
5.88144e-08
1.05724e-08
3.30668e-08
1.3863e-08
6.80239e-08
-2.5745e-08
1.63512e-08
1.89444e-08
-5.45514e-08
2.6667e-08
-5.21544e-08
1.22484e-08
-8.89138e-08
1.65288e-08
-4.88496e-08
-1.73869e-08
-9.24726e-08
1.71951e-08
-1.2235e-07
5.15642e-09
-1.39008e-07
-3.42411e-08
-1.40293e-07
-3.9328e-08
-1.18078e-07
-4.06273e-08
-1.21678e-07
5.61705e-09
-1.13108e-07
-1.19773e-08
-1.06486e-07
3.33521e-08
-9.02348e-08
1.76934e-08
-7.66917e-08
2.61225e-08
-7.32728e-08
3.2319e-08
-9.65687e-08
3.55351e-08
-6.82685e-08
2.49431e-08
-8.10638e-08
2.5832e-08
-7.74181e-08
1.86719e-08
-8.63813e-08
6.07218e-10
-6.59201e-08
2.81655e-09
-5.34615e-08
-3.58226e-08
-1.18883e-09
-8.63887e-08
-3.50275e-08
2.328e-08
-2.60529e-08
-8.25002e-09
-2.31632e-09
-1.41272e-08
1.10247e-08
-2.95969e-08
2.62447e-08
-3.35237e-08
2.23768e-08
-2.69782e-08
2.56708e-08
-3.73527e-08
1.96812e-08
-1.78479e-08
1.80952e-08
-3.09642e-08
2.1879e-08
-1.25931e-08
1.72203e-08
-1.8981e-08
5.84746e-08
-5.02592e-08
6.29444e-08
-7.71592e-08
-1.26295e-08
-3.64083e-08
-5.29536e-08
-4.04108e-08
-9.50247e-09
-3.8575e-08
-3.21651e-08
-3.13748e-08
-3.97062e-08
-2.47012e-08
-4.97678e-08
-2.0723e-08
-3.9514e-08
-8.04738e-09
-4.74025e-08
6.52637e-08
-6.58999e-08
2.82069e-08
5.5036e-08
2.03391e-08
1.21542e-08
1.28782e-08
9.39622e-09
1.88075e-09
6.91952e-09
3.75899e-10
-5.13401e-09
-1.33083e-09
-7.78962e-09
1.56633e-08
-2.22989e-08
5.46627e-08
7.95746e-09
-1.22498e-08
-2.51633e-08
-1.74214e-08
-3.20885e-08
-1.62943e-08
-3.24067e-08
-7.77606e-09
-2.77803e-08
3.09108e-09
-1.07639e-08
1.03577e-09
-2.41755e-08
6.21466e-09
-1.15115e-08
1.67986e-08
-2.31942e-08
6.4431e-08
-7.14361e-08
-3.23045e-08
9.76288e-08
1.86353e-07
6.84753e-08
-5.48736e-08
-7.27903e-08
-4.40036e-08
-2.1392e-09
-2.12819e-08
1.6522e-08
-9.46724e-08
-1.16837e-08
-1.51439e-07
-7.65853e-10
8.85409e-08
4.77101e-08
-1.55875e-07
-7.11227e-08
-1.27587e-07
-2.06071e-08
-1.80375e-07
-5.27806e-08
-6.97761e-09
-7.90179e-08
-7.65777e-08
8.82802e-08
-8.8525e-08
3.86144e-08
-7.36735e-08
-3.35457e-09
-1.45683e-07
-3.17482e-08
-9.28971e-08
5.01394e-08
-1.07785e-07
3.08214e-08
-8.98063e-08
-1.28226e-08
-9.55912e-08
-2.84562e-08
-8.97968e-08
-4.51223e-08
-8.67367e-08
-4.27804e-08
-8.653e-08
4.52562e-09
-1.23359e-07
2.38364e-08
-8.96986e-08
6.09972e-10
-1.14425e-07
4.24199e-08
-9.77523e-08
9.54703e-09
-1.08483e-07
4.30495e-08
-9.75032e-08
2.45555e-08
-9.87797e-08
2.72274e-08
-9.41858e-08
2.09772e-08
-7.71019e-08
6.27114e-10
-8.35973e-08
7.95537e-09
-5.85376e-08
-2.22147e-08
-9.14713e-08
-3.45087e-09
1.32808e-07
4.81382e-08
-1.09281e-07
-9.20852e-08
-5.56888e-08
-6.30409e-08
-3.16694e-08
-3.79041e-08
-4.02852e-08
-2.1283e-08
-4.66884e-08
-2.71205e-08
-4.08273e-08
-3.28393e-08
-3.59983e-08
-4.21818e-08
-3.52361e-08
-1.89695e-08
-1.34138e-07
-5.44765e-08
-7.75894e-08
5.14896e-08
-1.64105e-07
6.63315e-08
6.27665e-08
8.84343e-08
-2.12483e-08
-9.74253e-08
1.05771e-08
-5.92759e-08
-7.34637e-08
-4.53003e-08
-1.87783e-08
-2.29603e-08
-5.3119e-08
8.15864e-10
-6.34828e-08
1.36585e-08
-6.26108e-08
-1.18975e-08
-1.39584e-08
-5.42376e-08
-5.06278e-09
1.86855e-07
5.07443e-08
-2.95748e-08
-8.36579e-08
2.08817e-09
-1.98109e-08
2.50988e-08
-1.34773e-08
3.50308e-08
-3.40503e-09
3.99829e-08
-1.04904e-08
4.88472e-08
-1.64164e-08
9.07982e-08
-6.41344e-08
4.76597e-08
5.15448e-08
2.69577e-08
-4.94797e-09
1.32279e-08
-1.83592e-08
-2.7737e-09
-1.67361e-08
-9.43693e-10
-2.99159e-08
1.08704e-08
-2.25783e-08
-7.65507e-09
-5.65043e-09
-1.46811e-08
-4.75302e-09
-6.00198e-08
2.19051e-08
1.58049e-07
7.27394e-08
-8.2277e-08
-2.09966e-08
-1.65189e-08
2.03921e-09
-3.89996e-08
-5.03098e-08
-5.29173e-08
1.17784e-08
-5.41465e-08
1.77511e-08
-7.07693e-08
4.9391e-09
-8.7398e-08
1.58628e-08
-3.98408e-08
-3.37293e-10
-9.21021e-08
-1.95869e-08
-1.90359e-07
-4.19751e-08
-1.61261e-07
3.74496e-08
1.24748e-07
-1.98854e-09
-1.67517e-07
1.89193e-08
-1.60331e-07
3.17524e-08
-1.95939e-07
3.02548e-08
3.78844e-08
9.76223e-08
-1.86254e-07
-8.47217e-08
-1.24095e-07
-3.13375e-08
-1.09119e-07
-2.90651e-08
-1.08255e-07
-2.93201e-08
-9.87271e-08
-5.36427e-08
-6.19673e-08
-8.09839e-08
-1.25159e-07
6.64408e-08
-1.26489e-07
2.61998e-08
-1.25248e-07
-6.37672e-10
-1.2396e-07
3.94648e-08
-1.26937e-07
1.25243e-08
-1.05136e-07
2.23158e-08
-1.04144e-07
2.35633e-08
-9.3272e-08
1.63555e-08
-8.56379e-08
1.35572e-08
-9.53259e-08
1.04214e-08
-5.99711e-08
-2.73995e-08
-5.3048e-08
-2.88233e-08
-5.79595e-08
1.4755e-09
1.13314e-08
-2.18513e-08
-1.17732e-07
-8.70564e-08
-3.6787e-08
-2.23562e-08
-5.71915e-08
-1.74995e-08
-7.74339e-08
-1.62402e-09
-8.57549e-08
-1.87994e-08
-9.52929e-08
-2.33013e-08
-7.4689e-08
-6.34328e-08
-1.12948e-07
1.69849e-08
-1.36076e-07
-3.07814e-08
-1.52194e-07
6.88322e-08
-1.87139e-07
1.01641e-07
-1.59436e-07
6.23741e-08
3.642e-08
-6.12626e-08
1.54616e-08
-5.01521e-08
-6.49487e-08
-1.62238e-08
-4.60666e-08
-1.53989e-08
-5.38313e-08
-3.48048e-08
-4.45316e-08
1.15429e-08
-1.10082e-07
-1.75525e-08
1.49838e-08
1.44032e-08
-3.67905e-08
8.69955e-08
-2.24997e-08
3.70285e-08
-3.36577e-08
3.7726e-08
-2.07274e-08
3.88097e-08
-1.43141e-08
2.47031e-08
1.11012e-08
1.2525e-08
1.44127e-09
-3.61948e-08
3.10675e-08
1.92308e-07
7.66066e-08
-5.23432e-08
-7.21728e-08
-1.51812e-08
-4.15764e-08
-3.40689e-08
5.33575e-10
-4.34421e-08
-7.80655e-09
-4.11412e-08
-3.25528e-08
-1.53119e-09
-6.24056e-08
-7.27382e-08
6.48942e-08
-1.07885e-07
3.07068e-08
-7.34199e-08
-1.35329e-08
-5.69004e-08
5.68061e-08
-9.37795e-08
1.55098e-08
-1.1692e-07
2.42128e-08
-1.05365e-07
5.99942e-08
-1.17301e-07
2.37141e-08
-1.16127e-07
1.65771e-08
-1.17503e-07
6.31433e-09
-1.02405e-07
-2.77342e-10
-1.06496e-07
3.71552e-09
-1.1334e-07
-1.04996e-08
-1.66898e-07
9.89697e-09
-1.60005e-07
2.71879e-08
1.24901e-07
7.73609e-08
-1.54148e-07
-6.13733e-08
-1.17598e-07
-6.38676e-09
-1.88366e-07
-1.59094e-08
4.08616e-09
2.30669e-08
-1.93793e-07
-8.09179e-09
-9.71287e-08
-6.22676e-09
-1.06926e-07
-1.94666e-08
-1.1948e-07
-1.67661e-08
-1.5617e-07
-1.8737e-08
6.7239e-08
5.79529e-08
-1.58016e-07
-6.61782e-08
-1.12128e-07
-2.24436e-08
-1.16673e-07
5.10917e-09
-9.10985e-08
1.49183e-08
-9.0785e-08
1.20799e-08
-7.29222e-08
4.453e-09
-6.05138e-08
1.03058e-08
-5.73521e-08
1.31938e-08
-4.67041e-08
2.43265e-09
-1.47433e-07
-1.0141e-08
-6.49646e-08
1.18105e-08
-9.41658e-08
-5.88859e-10
-1.09585e-07
1.57803e-08
-1.33927e-07
8.68471e-10
-2.03836e-07
-1.51621e-08
-2.00937e-07
-2.15356e-08
-2.0208e-07
-1.68791e-08
-1.8148e-07
-2.22239e-08
-1.83819e-07
-1.66301e-08
-2.28213e-07
1.87644e-08
-2.14465e-08
9.27182e-08
-3.0674e-07
-5.82584e-08
-3.42355e-09
2.69669e-08
-2.33042e-07
-6.40873e-08
-2.2325e-07
8.75987e-08
-2.95719e-07
1.89006e-08
3.69156e-08
-1.12917e-07
2.55805e-08
-7.89291e-08
-6.9469e-08
-1.5069e-08
-1.03561e-07
-1.0883e-07
3.94284e-08
-1.32773e-07
-2.08357e-08
1.39462e-07
-1.85126e-08
-7.90652e-08
-1.24884e-07
-4.38685e-08
-7.23431e-08
-3.10091e-08
-3.63973e-08
-1.48563e-08
-5.01109e-08
-2.68794e-08
-8.8902e-09
-2.68776e-08
-1.41868e-08
-2.4454e-08
9.08762e-09
-3.66564e-08
1.41564e-08
-2.32473e-09
-3.96518e-09
4.86133e-08
2.40974e-08
-8.30373e-09
-1.40239e-08
1.26675e-08
-6.37189e-08
-6.16231e-08
7.48237e-08
-1.00521e-07
3.10106e-08
-1.61141e-07
2.702e-08
4.96453e-08
9.0893e-08
-1.86045e-07
-5.83195e-08
-2.37821e-07
-4.03112e-08
-6.86021e-08
-6.02718e-08
-1.29932e-07
1.16369e-07
-1.41482e-07
2.7218e-08
-1.24271e-07
5.48665e-09
-8.51785e-08
-1.01435e-07
-1.1331e-07
5.27145e-08
-1.10988e-07
1.41115e-08
-1.07035e-07
3.45296e-09
-9.05509e-08
-1.58472e-08
-7.882e-08
-8.96739e-09
-8.88245e-08
-1.29911e-09
-7.4941e-08
-3.8856e-09
-6.18417e-08
1.38113e-08
1.11144e-08
3.61567e-09
-4.3454e-08
-7.43094e-09
-5.75465e-08
7.77099e-09
-8.6837e-08
1.33813e-08
-6.73848e-08
3.85013e-09
-7.55531e-08
9.29958e-10
-5.74386e-08
-2.49212e-08
-8.07003e-08
3.20319e-09
-8.76254e-08
-1.00137e-08
-1.09929e-07
3.56651e-09
-3.5746e-08
-1.56996e-08
-1.0225e-07
-3.49356e-10
-1.17182e-07
-7.5113e-09
-1.06297e-07
-4.69559e-09
-7.35582e-08
-1.76699e-08
-7.17622e-08
9.53345e-09
-6.49999e-08
-1.5846e-09
-4.8655e-08
-6.03912e-09
-4.84283e-08
1.24708e-08
-4.76155e-08
1.61975e-09
-8.12734e-08
2.25611e-08
-5.51262e-08
-1.49049e-08
-8.7703e-08
3.25561e-08
-1.13583e-07
4.12355e-08
-1.68011e-07
5.12956e-08
-2.42466e-07
5.57271e-08
-2.59591e-07
-4.71761e-09
-3.72692e-07
-2.11456e-08
-2.7008e-07
6.77322e-11
-2.71721e-07
-1.54681e-08
-2.29183e-07
-1.88557e-08
-1.65747e-07
2.64055e-08
-3.05046e-07
7.61881e-08
-8.612e-08
5.32188e-08
-4.16588e-08
1.28092e-08
-2.18602e-07
-9.38136e-08
-1.76001e-07
-2.43276e-08
-1.55812e-08
-1.06444e-07
5.21149e-08
-2.39296e-07
1.00628e-07
9.57003e-08
-2.5645e-08
-1.18581e-07
-1.11736e-07
-1.76033e-07
-8.32246e-08
-2.98739e-08
-4.51955e-08
-1.09513e-07
-4.65323e-08
-1.28242e-07
-5.51061e-08
-2.36387e-07
-4.7482e-08
-1.25588e-07
-3.84143e-08
-1.14007e-07
-2.16497e-08
-1.20299e-07
-8.91344e-09
-1.1546e-07
3.06987e-09
-2.35981e-07
1.10995e-08
-1.5835e-07
4.16568e-08
-1.58978e-07
2.68598e-08
-2.19463e-07
4.24162e-08
-1.72901e-08
1.00721e-07
-2.6319e-07
-4.25333e-08
-2.35603e-07
9.84887e-10
-2.40247e-07
3.59193e-08
-1.35418e-07
-1.25553e-08
-1.59095e-07
-3.49954e-08
-1.88686e-07
-1.0314e-08
1.27481e-07
-1.97042e-08
-1.35259e-07
2.23585e-08
-1.16144e-07
6.7233e-09
-1.28359e-07
1.63919e-08
8.39097e-08
5.12145e-08
-1.39065e-07
-8.39091e-08
-8.55842e-08
-3.93694e-08
-8.15665e-08
-1.42343e-09
-7.44825e-08
-2.30929e-08
-8.16224e-08
-1.93878e-09
-5.64792e-08
-2.61752e-08
-7.14644e-08
1.10996e-08
-6.83839e-08
1.07309e-08
-6.88352e-08
4.10895e-09
-6.21593e-08
-1.41067e-08
-4.90906e-08
-5.29767e-09
-3.65123e-08
8.03133e-10
-1.28789e-07
-2.3927e-08
-4.85023e-08
4.06973e-08
-6.99978e-08
-3.67989e-09
-7.28166e-08
5.24656e-09
-8.01263e-08
-2.70391e-09
-8.39728e-08
8.19411e-09
-9.4159e-08
-5.57016e-09
-6.25041e-08
-3.1681e-08
-1.52522e-07
-3.59912e-08
-5.49726e-08
1.65964e-08
-6.94723e-08
-3.87184e-09
-5.1224e-08
-8.10947e-09
-4.74724e-08
-5.39061e-09
-4.22432e-08
-1.1936e-08
-2.69659e-08
-2.80657e-09
-1.50018e-08
-1.01913e-08
-2.31511e-08
3.04034e-08
-3.4049e-08
-4.09117e-09
2.72451e-08
-2.93697e-08
-1.57085e-08
8.34975e-08
-2.4868e-08
6.01881e-08
-2.12829e-08
5.09803e-08
-4.09467e-08
1.45601e-08
-1.03783e-07
4.02208e-08
-1.14417e-07
8.14918e-09
-2.73956e-07
1.87109e-08
-2.08309e-07
4.74059e-08
-1.91842e-07
1.23094e-08
-2.56364e-07
2.05371e-08
-1.38512e-07
5.4219e-08
-9.91936e-08
-2.92323e-08
-1.6081e-07
-3.31632e-08
-1.51288e-07
-3.09816e-08
-1.88859e-08
-2.24206e-08
-2.317e-08
-2.8618e-07
-6.77906e-08
4.92712e-08
6.19087e-08
-5.19369e-08
-1.41913e-08
-1.06163e-07
-3.0082e-08
-1.16998e-07
-3.47188e-08
-1.34123e-07
-2.91072e-08
-1.68438e-07
-2.07915e-08
-1.62305e-07
-5.19429e-08
-1.62983e-07
-3.85217e-08
-1.33422e-07
-5.14317e-08
-1.18339e-07
-2.42442e-08
-1.36597e-07
2.11123e-08
-1.49467e-07
2.53802e-08
-1.38276e-07
2.86488e-08
-1.486e-07
3.42259e-08
-1.40113e-07
3.65285e-08
-8.36176e-08
4.31699e-08
-1.18986e-07
-6.80485e-09
-1.16417e-07
-4.2306e-10
-1.02317e-07
1.90556e-08
-1.11912e-07
-4.10246e-09
-1.28366e-07
-1.74006e-08
-1.52947e-07
1.27317e-08
1.84782e-07
4.53452e-09
-1.309e-07
-1.99223e-08
-1.03137e-07
-2.23755e-08
-7.95518e-08
-7.19349e-09
-2.58613e-08
-2.99856e-09
-9.95637e-08
-1.0312e-08
-1.09136e-07
-2.90854e-08
-7.13517e-08
-3.88159e-08
-6.01058e-08
-3.60477e-08
-1.52997e-07
-2.87618e-08
-1.09033e-09
-5.76955e-08
-6.1282e-08
7.05603e-08
-5.50429e-08
3.97079e-09
-8.13902e-08
3.01457e-08
-5.90408e-08
-3.59929e-08
-8.72989e-08
2.29605e-08
-9.5912e-08
9.41637e-09
-1.18786e-07
-1.05314e-09
-7.97219e-08
1.63348e-09
-8.31211e-08
-2.80585e-10
-7.13888e-08
-6.48572e-09
-8.47271e-08
1.06621e-08
-6.68237e-08
-1.0498e-08
-1.49898e-07
-4.2242e-08
-5.11429e-08
-1.00809e-08
-8.10978e-08
-6.55793e-09
-6.05834e-08
-3.13051e-09
-6.16622e-08
-2.1486e-09
-6.45004e-08
-6.54538e-09
-5.51469e-08
-1.60329e-08
-8.52792e-08
1.87647e-08
-5.58166e-08
-3.13992e-08
-2.05917e-08
-4.52061e-08
-5.40133e-08
6.34908e-08
-1.11255e-07
5.14645e-08
1.39977e-07
8.18291e-08
-1.02622e-07
-3.18408e-08
-5.62236e-08
1.32214e-08
-3.23709e-08
2.73174e-08
-3.2177e-08
1.48479e-08
-1.51757e-08
2.30587e-08
-2.31551e-08
1.58931e-08
-4.96215e-08
4.39204e-08
-4.20134e-08
3.93141e-08
-6.32184e-08
3.33003e-08
-7.66796e-08
3.28807e-08
-1.39801e-07
-4.78352e-09
-5.99155e-08
1.3615e-08
-1.00575e-07
7.4208e-09
-1.1965e-07
-1.19064e-08
-6.54813e-09
-9.02197e-08
-8.74326e-09
-1.31146e-07
-9.09973e-09
-7.59734e-08
1.19391e-08
-9.95341e-08
1.56335e-08
-1.13679e-07
-1.60814e-08
-1.30731e-07
-1.73101e-08
-1.34757e-07
-2.37475e-08
-1.37118e-07
-1.98192e-08
-1.51963e-07
-3.8665e-08
-2.54624e-07
-5.55861e-08
-1.72747e-07
-1.24198e-08
-2.05989e-07
1.12361e-08
-1.60196e-07
-2.26006e-08
-1.37978e-07
1.5269e-09
-1.1479e-07
5.69483e-09
-1.09005e-07
2.9204e-08
-9.65662e-08
2.46952e-08
-7.33974e-08
1.92668e-08
-8.49399e-08
3.12197e-09
-8.45001e-08
3.25496e-12
-5.96751e-08
-4.12129e-09
-5.79116e-08
-6.42757e-09
-8.81371e-08
1.12202e-08
-9.19454e-08
1.6371e-08
1.94904e-07
7.59744e-08
-8.71309e-08
-9.36669e-08
-5.93082e-08
-5.10873e-08
-4.17241e-08
-2.50332e-08
-2.12913e-08
-2.36487e-08
5.81255e-09
-3.78057e-08
-9.66974e-08
-4.5702e-08
-1.96841e-08
2.42119e-09
-5.64901e-08
5.55347e-10
-1.06767e-07
2.21588e-08
1.46251e-07
4.73673e-08
-8.15141e-08
-5.9624e-08
-7.78267e-08
2.45456e-10
-6.76918e-08
2.00107e-08
-1.12137e-07
7.83585e-09
-8.55979e-08
-2.4103e-09
-9.6148e-08
1.99665e-08
-9.52948e-08
-1.90624e-09
-8.6243e-08
-7.4182e-09
-8.12239e-08
-5.29968e-09
-8.96801e-08
1.9909e-09
-6.12363e-08
-1.84063e-08
-1.55427e-07
-3.75984e-08
-1.04116e-07
2.88116e-08
-1.00372e-07
-1.39278e-08
-9.94622e-08
-7.54488e-09
-9.08961e-08
-1.07692e-08
-7.88317e-08
-1.42347e-08
-8.57438e-08
-5.04267e-10
-1.02449e-07
8.36226e-10
-7.65252e-08
-7.27648e-09
-1.11341e-07
3.41679e-09
1.3247e-07
6.97927e-08
-9.42917e-08
-6.56305e-08
-5.70905e-08
1.3167e-08
1.85922e-08
5.31165e-09
-1.85146e-08
5.13006e-09
-2.64526e-08
2.11594e-08
-1.82763e-08
1.86807e-08
-1.56358e-08
1.22155e-08
-1.6878e-09
9.34365e-09
5.42909e-09
8.86584e-09
4.03483e-08
9.00122e-09
5.63871e-08
2.28783e-08
8.02683e-08
8.5225e-09
1.09691e-07
3.16066e-09
1.05272e-07
7.92429e-10
1.11251e-07
8.6597e-09
1.34528e-07
-1.58557e-08
1.39191e-07
-1.64475e-08
-3.90859e-08
-8.46753e-08
-3.84021e-09
-6.99716e-08
-2.97067e-09
-4.53059e-08
-4.83119e-09
-4.6353e-08
1.88318e-08
-5.3701e-08
-8.7337e-09
-8.00895e-08
9.35005e-09
-6.99884e-08
-3.45629e-08
-6.10141e-08
-2.8794e-08
-7.19577e-08
-2.67048e-08
-1.09625e-07
-1.73517e-08
-9.72526e-08
-2.60508e-08
-9.00151e-08
3.88246e-09
-9.85667e-08
-1.33617e-08
-8.41689e-08
-1.20126e-08
-9.81338e-08
1.96593e-08
-7.98256e-08
9.79435e-09
-6.43156e-08
9.99089e-09
-4.73314e-08
2.45207e-09
-4.45191e-08
2.77722e-10
-3.01553e-08
-1.4361e-08
-1.5244e-08
-1.93826e-08
3.79367e-09
-2.55699e-08
2.73917e-08
-1.26548e-08
5.49834e-08
-1.16651e-08
1.34599e-07
-4.44536e-09
7.74502e-08
-3.61051e-08
5.90044e-08
-3.15718e-08
5.08969e-08
-1.69259e-08
5.27997e-08
-2.52745e-08
3.93698e-08
-2.37415e-08
5.03743e-09
-1.18927e-08
9.98776e-09
-2.50452e-09
1.23285e-08
-1.91693e-09
1.27317e-08
2.17555e-08
4.63112e-08
1.43901e-08
-6.90676e-09
-6.94891e-09
-2.00789e-08
1.32808e-08
-1.13873e-08
1.1408e-08
-3.60509e-08
3.2572e-08
-4.05503e-08
2.45318e-09
-3.07805e-08
9.78315e-09
-4.60033e-08
1.33166e-08
-4.42112e-08
-9.1172e-09
-4.98892e-08
-1.30537e-10
-5.20581e-08
4.15987e-09
-5.3834e-08
-1.59367e-08
-1.1348e-07
2.10589e-08
-7.30473e-08
-1.15026e-08
-6.86691e-08
-1.82613e-08
-1.01165e-07
2.49515e-08
-1.02725e-07
-8.26206e-09
-7.9174e-08
-3.75475e-08
-8.28203e-08
3.14205e-09
-1.79974e-07
-2.04361e-08
-6.38543e-08
-4.55487e-09
-7.60125e-08
1.49236e-08
-4.14233e-09
-2.05645e-09
-4.22869e-08
-2.77242e-08
-2.33147e-08
-5.80506e-09
-1.64881e-08
-1.7528e-09
-1.47502e-08
3.35789e-09
-5.45945e-09
1.20176e-08
-3.43275e-09
1.66541e-08
-6.52462e-09
1.52724e-08
-2.86258e-09
5.777e-09
-9.58955e-09
1.57536e-08
6.90303e-09
-7.46986e-09
1.16659e-08
1.79977e-08
2.83677e-08
-7.97538e-09
4.6176e-08
-1.41812e-08
6.12227e-08
-1.37617e-08
4.69416e-08
2.31803e-08
3.18735e-08
-1.26588e-09
5.35189e-09
9.97277e-09
9.78396e-09
-8.95163e-08
-7.00373e-09
-3.31504e-08
-3.66316e-08
-3.38554e-08
6.32909e-10
-2.40577e-09
-1.19274e-08
1.44307e-08
-2.54233e-08
-5.39795e-08
-4.35311e-08
1.21085e-08
1.99531e-08
-1.95695e-08
3.17743e-09
-3.3743e-08
-1.25317e-08
-3.82163e-08
-1.32687e-08
-4.90579e-08
-1.52096e-08
-4.07458e-08
-3.96914e-09
-5.24439e-08
-1.66399e-09
-6.05661e-08
-3.89083e-09
-3.52694e-08
-5.07734e-09
-1.8024e-08
-7.19677e-09
-1.08146e-08
2.70825e-09
-1.49795e-09
-6.86497e-09
5.64316e-09
-6.8789e-09
8.59719e-09
-1.74043e-08
6.86464e-09
-1.76504e-08
2.20793e-09
-2.09135e-08
3.23099e-09
-1.39496e-08
-5.29709e-10
-8.10637e-09
1.15368e-11
-5.0841e-09
-2.13114e-08
-1.53682e-08
-4.47419e-08
-8.14146e-09
-3.47537e-08
-2.56688e-08
-2.92925e-08
-3.044e-08
-2.16379e-08
-3.16708e-08
-2.78951e-08
-5.91969e-09
-2.57638e-08
-4.35129e-09
-3.12581e-08
3.61415e-09
4.75831e-11
-9.32824e-09
1.44118e-08
-1.21108e-10
5.82214e-09
1.69379e-09
1.83539e-08
8.0021e-10
6.66585e-10
2.86796e-08
1.97201e-08
1.30578e-08
1.12657e-08
1.11338e-08
1.29545e-08
8.09441e-09
1.94902e-08
6.64997e-09
7.67814e-09
2.69495e-09
3.83323e-08
-3.07063e-08
4.66366e-08
-4.6155e-09
4.28217e-08
-1.25542e-08
5.24421e-08
1.1228e-08
5.69227e-08
-1.53374e-08
1.06657e-07
-6.81095e-08
4.46851e-08
8.71246e-08
3.67657e-08
-7.21598e-10
2.37312e-08
-2.51381e-08
1.00732e-08
1.7145e-08
-4.22833e-08
3.19205e-08
-3.87577e-08
-7.77489e-09
-2.8278e-09
-2.09774e-08
1.23458e-08
-1.723e-08
1.05926e-09
-1.64798e-08
8.15813e-09
-1.29631e-08
2.19526e-08
-1.57712e-08
3.30109e-08
-8.0337e-09
2.23823e-08
2.27498e-08
2.28715e-08
1.65632e-08
1.2833e-08
2.53109e-08
-2.86411e-10
1.88936e-08
-9.57503e-09
2.50423e-08
-1.91547e-08
2.23033e-09
-2.34604e-08
2.24872e-08
-3.4056e-08
2.88633e-09
-2.95741e-08
-1.89616e-08
1.32915e-08
-5.73863e-08
-3.34134e-08
6.88006e-08
-5.99645e-08
2.62387e-08
-8.02332e-08
3.02416e-08
-1.99534e-09
-6.14279e-08
-1.819e-08
-3.65645e-08
-4.38721e-08
-1.1107e-08
-2.14415e-08
-1.82437e-09
-2.08705e-08
-1.59695e-08
-1.12785e-08
-6.59297e-08
6.94371e-09
-1.20885e-08
-3.38886e-08
-2.75719e-09
-6.09204e-09
-1.1901e-08
-3.38828e-09
-1.79098e-08
-7.26029e-09
-1.84161e-08
-1.44015e-08
-7.21833e-09
-1.51673e-08
-1.32801e-08
4.39739e-09
-2.78414e-08
1.06701e-08
-1.12597e-08
-2.1327e-08
-2.86153e-09
-1.5668e-08
6.42445e-09
-6.64523e-09
3.2685e-09
-3.77872e-09
5.89529e-09
-9.5429e-09
1.92291e-09
-1.34323e-08
-2.01203e-08
4.39252e-09
-4.0268e-08
-1.18913e-09
-5.45715e-08
-2.11048e-10
-7.54728e-08
1.25792e-08
-8.07746e-08
9.95323e-10
-8.53273e-08
-9.99166e-09
-8.74083e-08
-5.03448e-09
-8.33049e-08
-3.00762e-08
-7.21907e-08
-4.27148e-08
-1.90023e-08
-8.71545e-08
-9.13503e-08
6.64892e-08
-8.49535e-08
-1.0793e-08
-1.87715e-07
-1.5071e-08
-7.26093e-08
-2.49055e-09
-6.26877e-08
-9.30825e-09
-4.84328e-08
-1.20549e-08
1.58091e-08
-6.47443e-08
-2.23198e-08
6.65218e-08
-1.34951e-08
4.18188e-09
-2.02712e-08
1.75928e-08
-4.10661e-09
-8.03011e-09
2.28343e-08
-2.02909e-08
-5.64453e-08
-3.82844e-08
2.98458e-08
2.75178e-09
2.6765e-08
-1.53462e-09
2.81652e-08
-1.40967e-08
2.49351e-08
1.45716e-08
-3.95949e-08
4.88867e-08
1.99948e-07
5.68064e-08
-4.52639e-08
-2.95627e-08
-3.42022e-08
-1.21249e-08
-1.96647e-08
-3.99346e-08
-4.67189e-08
4.43999e-08
-4.88894e-08
3.32667e-08