/*--------------------------------*- C++ -*----------------------------------*\
  =========                 |
  \\      /  F ield         | OpenFOAM: The Open Source CFD Toolbox
   \\    /   O peration     | Website:  https://openfoam.org
    \\  /    A nd           | Version:  12
     \\/     M anipulation  |
\*---------------------------------------------------------------------------*/
FoamFile
{
    format      ascii;
    class       surfaceScalarField;
    location    "0.95";
    object      phi.water_0;
}
// * * * * * * * * * * * * * * * * * * * * * * * * * * * * * * * * * * * * * //

dimensions      [0 3 -1 0 0 0 0];

internalField   nonuniform List<scalar> 
7375
(
3.96247e-08
-4.97131e-07
-3.11752e-08
4.30034e-08
3.81621e-08
-6.57562e-08
6.79233e-08
-3.24086e-08
8.01296e-08
-1.20844e-08
9.51289e-08
-1.51338e-08
1.09278e-07
-1.41491e-08
1.03469e-07
6.92838e-09
1.13524e-07
-1.00572e-08
1.21685e-07
-8.07686e-09
1.47971e-07
-2.65837e-08
2.27382e-08
5.26384e-09
1.35634e-07
8.58547e-09
1.18794e-07
1.69647e-08
1.16145e-07
1.43624e-09
1.13114e-07
2.9927e-09
1.12864e-07
2.41005e-10
1.128e-07
-1.10561e-09
1.19769e-07
-6.89861e-09
1.08204e-07
1.15901e-08
1.23554e-07
-1.55062e-08
1.19577e-07
4.00164e-09
1.21555e-07
-3.17314e-09
1.18755e-07
4.02738e-09
8.05812e-08
3.85617e-08
1.0369e-07
-2.20624e-08
1.30632e-07
-2.61248e-08
1.33491e-07
-4.21905e-09
1.41347e-07
-9.30215e-09
1.59674e-07
-1.81439e-08
1.55806e-07
3.92678e-09
1.70747e-07
-1.47919e-08
1.62663e-07
9.74021e-09
1.70294e-07
-7.65621e-09
1.67247e-07
1.32659e-09
1.61237e-07
6.00994e-09
1.63079e-07
-1.90664e-10
1.8148e-07
-1.87913e-08
1.54365e-07
2.68369e-08
1.54488e-07
-1.68833e-09
1.6255e-07
-8.06191e-09
1.64364e-07
1.51815e-09
1.68523e-07
-4.14137e-09
1.94709e-07
-2.84982e-08
1.97328e-07
-6.0187e-10
1.96406e-07
-1.03999e-09
1.95554e-07
-3.1058e-09
1.75219e-07
2.23095e-08
1.5581e-07
2.25712e-08
1.35539e-07
2.0094e-08
5.24395e-08
8.2487e-08
1.79215e-08
3.4353e-08
3.06506e-07
7.76329e-08
2.79984e-08
-8.76353e-08
6.01114e-08
-3.27503e-08
8.92867e-08
-2.95171e-08
9.973e-08
-1.05373e-08
1.09655e-07
-9.96619e-09
1.38708e-07
-2.90693e-08
1.25595e-07
1.3133e-08
1.29423e-07
-3.8697e-09
1.05835e-07
2.35743e-08
1.05836e-07
-1.98087e-11
9.95439e-08
6.3395e-09
1.0053e-07
-9.9334e-10
1.07649e-07
-7.11796e-09
1.23127e-07
-1.53218e-08
1.22488e-07
-6.02883e-10
1.32455e-07
-9.96601e-09
1.33212e-07
1.96616e-09
1.33425e-07
-1.06217e-10
1.50217e-07
-1.66128e-08
1.3976e-07
9.04769e-09
1.42113e-07
-3.7648e-09
2.60017e-08
5.14671e-07
3.26498e-08
1.43057e-08
5.95142e-08
1.32541e-07
6.48485e-08
4.34247e-08
5.356e-08
3.21472e-08
-9.19903e-10
3.43734e-08
-1.70324e-08
3.03944e-08
-1.03146e-08
3.38917e-08
3.39609e-09
4.01443e-08
-1.67197e-08
3.93212e-08
-6.78837e-09
2.91948e-08
-1.62195e-08
3.60399e-08
-1.51173e-09
6.09693e-08
-1.55555e-08
8.26884e-08
-5.61593e-09
1.01053e-07
-1.86135e-08
1.03214e-07
1.87369e-09
1.052e-07
-6.95619e-10
1.09033e-07
-7.12395e-09
1.23845e-07
-2.28009e-08
1.29333e-07
8.57135e-09
1.24964e-07
-9.96402e-09
1.31209e-07
-4.85656e-09
1.27558e-07
4.40692e-10
1.51519e-07
-1.84033e-08
8.37984e-08
-1.36325e-08
1.46386e-07
3.66714e-08
9.2808e-08
2.80116e-08
1.00774e-07
-1.31318e-08
1.07208e-07
-1.68303e-08
1.08938e-07
-2.00573e-08
1.10398e-07
2.4521e-09
1.17748e-07
-2.34797e-08
1.28758e-07
-8.21737e-11
1.35851e-07
-1.06635e-08
1.09399e-07
2.74931e-08
1.19073e-07
-5.89526e-09
1.02975e-07
1.81942e-08
1.44066e-07
-6.26877e-08
1.03578e-07
6.27356e-08
1.02145e-07
7.90272e-10
1.108e-07
-1.68865e-08
1.25726e-07
-1.34079e-08
1.65143e-07
-3.88632e-08
1.71343e-07
-3.46984e-08
2.18398e-07
-5.16799e-08
2.30073e-07
-1.25758e-08
2.33751e-07
-6.81539e-09
2.45097e-07
8.60287e-09
2.52878e-07
1.23617e-08
3.03444e-07
-2.5573e-08
1.90842e-07
7.49593e-08
2.24289e-07
1.144e-07
2.50404e-07
4.99651e-08
1.84503e-07
-1.64568e-08
1.57491e-07
-2.23585e-09
1.52298e-07
-2.43778e-08
1.25699e-07
1.44924e-08
1.31961e-07
-1.75099e-08
1.13957e-07
-1.09537e-08
1.31902e-07
-3.46579e-09
1.25675e-07
2.38184e-09
1.38793e-07
1.20064e-08
1.07961e-07
3.19369e-08
9.23475e-08
1.97274e-08
9.38528e-08
-3.44062e-09
8.51819e-08
6.77314e-10
9.24276e-08
-2.25673e-08
9.92376e-08
-6.40429e-09
9.8022e-08
-8.76234e-09
1.09375e-07
-9.38607e-09
1.12317e-07
-3.0168e-09
1.04374e-07
-8.66893e-09
1.17748e-07
-4.46477e-09
1.12326e-07
4.72931e-10
6.7146e-09
-2.90712e-07
2.06033e-07
-2.49011e-07
7.99643e-08
-1.50046e-07
-7.08839e-09
-7.41718e-08
-1.84968e-08
-6.39251e-08
-1.11762e-08
-4.98976e-08
-3.17122e-08
-7.0195e-08
1.06986e-08
-6.11266e-08
-5.67263e-09
-6.18963e-08
-1.59424e-08
-7.03693e-08
8.96093e-10
-8.84609e-08
1.31365e-09
-8.23888e-08
-5.84114e-09
-8.25908e-08
-1.58706e-08
-6.50196e-08
-2.33106e-08
4.27039e-09
-8.72472e-08
-3.80859e-08
4.30759e-08
-2.53328e-08
-1.34418e-08
-1.21059e-08
-1.97107e-08
-1.40832e-08
-2.0912e-08
5.60756e-09
-1.10636e-08
1.40478e-08
-1.82456e-08
4.46981e-08
-3.59631e-08
3.29006e-08
1.19102e-08
2.31807e-08
-8.67304e-09
2.49505e-08
-1.50166e-08
9.70208e-08
-3.45068e-08
1.02637e-08
-6.81115e-09
8.35809e-08
3.34999e-08
3.30976e-08
3.3653e-08
2.56595e-08
-1.28239e-08
1.63844e-08
1.17273e-08
8.97859e-09
-1.62217e-08
1.8282e-08
-9.3863e-09
2.519e-08
-1.82006e-08
4.55097e-10
5.22047e-08
-3.43494e-08
2.85601e-08
-6.81409e-08
5.09352e-08
1.20165e-07
1.18669e-07
-6.54311e-08
-1.11107e-07
6.22693e-10
-6.59227e-08
2.40605e-08
-3.99169e-08
4.02493e-08
-2.97332e-08
4.79031e-08
-4.65167e-08
4.9446e-08
-3.46749e-08
6.15731e-08
-6.44413e-08
9.81335e-08
-4.97577e-08
1.07362e-07
-1.59753e-08
1.08604e-07
8.54512e-09
8.26636e-08
4.12527e-08
3.23951e-07
1.00724e-07
1.13833e-07
-8.44807e-08
1.44096e-07
8.38374e-08
1.55526e-07
4.00903e-08
1.43241e-07
-1.30491e-09
1.46522e-07
-5.49382e-09
8.75257e-08
3.37166e-08
8.05149e-08
2.13555e-08
7.19916e-08
-9.72082e-09
7.12453e-08
-1.02071e-08
8.72101e-08
-1.78138e-08
7.73939e-08
1.21737e-08
8.34132e-08
5.19779e-09
8.26394e-08
3.17356e-08
7.38134e-08
2.8066e-08
5.74979e-08
1.24151e-08
6.21216e-08
-3.94613e-09
6.27144e-08
-2.33962e-08
6.89774e-08
-1.33636e-08
7.63006e-08
-1.53886e-08
8.21333e-08
-1.51237e-08
8.75549e-08
-8.4381e-09
7.46566e-08
5.88437e-09
6.24757e-08
7.71614e-09
5.63507e-08
5.96093e-09
7.6851e-09
-2.84516e-07
-2.14212e-07
-1.0477e-07
-3.13177e-08
-9.98586e-08
-9.7138e-10
-8.39462e-08
-3.23719e-08
-6.75818e-08
-2.76549e-08
-1.20528e-08
-8.81407e-08
-1.58305e-07
3.68968e-08
-8.00435e-08
3.60615e-08
-1.09811e-07
1.50994e-08
-9.00985e-08
-1.862e-08
-8.62553e-08
-3.49808e-09
-8.1581e-08
-9.58572e-09
-8.91407e-08
-8.47141e-09
-1.12016e-07
-1.10727e-09
1.36069e-07
2.25506e-08
-1.02271e-07
-7.51083e-08
-7.26624e-08
-4.382e-08
-5.3905e-08
-3.84684e-08
-4.27171e-08
-3.18777e-08
-3.15344e-08
-2.23583e-08
-4.1151e-08
-8.95091e-09
-6.56402e-08
-1.15924e-08
-1.87771e-08
-3.50231e-08
-1.162e-07
-3.1433e-08
-3.7778e-08
2.60428e-08
-6.52391e-08
-7.43522e-09
-8.91773e-08
1.80462e-08
-6.28954e-08
7.21798e-09
-4.61326e-08
1.68902e-08
-5.74404e-08
-1.53168e-09
-4.80459e-08
2.33282e-09
-5.95641e-08
-4.70348e-09
-7.61702e-08
6.53865e-09
-1.21332e-07
2.59788e-08
-7.74704e-08
1.00282e-08
-7.22785e-08
2.38673e-08
-4.51266e-08
2.25733e-08
-7.72058e-08
2.59479e-08
-1.71984e-08
-4.96611e-08
2.00855e-08
-1.043e-07
-4.90951e-08
2.92641e-08
-1.41239e-08
-6.5205e-08
-3.0572e-08
-2.97564e-08
-4.21817e-08
-2.30649e-08
-6.40618e-08
-4.27702e-08
-3.87798e-08
-7.51515e-08
-2.67615e-08
-2.82635e-08
-2.64178e-08
7.93212e-09
-1.40267e-08
2.85675e-08
7.83744e-09
7.60807e-08
1.98119e-07
8.90307e-08
-4.29437e-08
-3.63597e-08
-1.05013e-08
7.947e-09
-9.97353e-09
-1.94065e-09
4.38705e-08
-5.99555e-08
-9.73415e-09
8.64306e-08
-4.94838e-09
1.66693e-08
-1.53291e-08
6.66976e-10
-1.83862e-08
-7.25395e-09
-2.06572e-08
-1.57027e-08
-1.3745e-08
5.13749e-09
-9.69997e-09
1.25198e-09
4.64767e-09
1.73413e-08
1.76263e-08
1.51595e-08
1.29277e-08
1.72956e-08
1.8412e-10
8.62551e-09
-1.38165e-08
-9.39524e-09
-8.19178e-09
-1.91244e-08
3.99445e-09
-2.77723e-08
1.7068e-08
-2.81969e-08
2.98554e-08
-2.09238e-08
4.27871e-08
-7.04727e-09
3.55329e-08
1.47413e-08
3.50053e-08
6.13161e-09
4.5413e-09
-1.88102e-07
-7.35256e-08
-1.363e-07
-3.01045e-08
-9.70477e-08
-2.75838e-08
-8.67962e-08
-3.96535e-08
-1.06334e-07
-9.20201e-09
1.44551e-07
2.48468e-08
-9.97616e-08
-8.04263e-08
-4.66504e-09
-5.90829e-08
-8.95915e-08
-2.03421e-08
2.94142e-09
8.43452e-09
-2.28057e-08
2.25141e-08
-2.48189e-08
-7.34252e-09
-3.86176e-08
4.9874e-09
-2.26891e-08
-1.7036e-08
1.00758e-08
-1.03199e-08
-2.71012e-08
-3.86979e-08
-3.08079e-08
-4.01135e-08
-3.88344e-08
-3.0756e-08
-5.55265e-08
-1.51858e-08
-5.52465e-08
-2.28667e-08
-5.31822e-08
-1.15579e-08
-1.5397e-07
-3.20957e-08
-8.65639e-08
1.91949e-08
-1.3733e-07
1.9654e-08
-1.12254e-07
1.21916e-09
-1.10262e-07
-1.04758e-08
-1.18779e-07
2.68396e-08
-1.13161e-07
2.78301e-09
-9.01797e-08
-6.94004e-09
-9.31137e-08
1.40232e-09
-6.38344e-08
-2.59966e-08
-5.51592e-08
-1.33785e-08
-2.80501e-08
-2.08566e-08
-1.21194e-07
-1.18668e-09
4.06687e-09
4.73129e-09
1.15141e-08
1.63442e-08
4.45413e-08
-1.09035e-08
4.014e-08
3.04392e-08
-7.50948e-09
-1.19231e-09
2.3524e-07
1.67468e-08
-1.2591e-07
-9.19017e-08
-5.12843e-08
-1.99809e-08
-7.03733e-08
-1.06671e-08
-7.54994e-08
-1.89442e-08
-1.98922e-07
-4.06381e-08
-1.28968e-07
-2.3022e-08
-1.26373e-07
-2.98582e-08
-1.17409e-07
-1.10038e-09
-1.0603e-07
1.72492e-08
-6.07002e-08
2.96826e-08
-2.61754e-08
5.32549e-08
-7.56695e-08
1.31346e-08
-8.54268e-08
1.85576e-08
-1.33244e-07
4.31777e-08
9.74427e-08
7.60059e-08
-1.38106e-07
-3.73853e-08
-1.00526e-07
-2.35853e-08
-1.12928e-07
1.30688e-08
-1.00876e-07
-1.91828e-08
-1.34829e-07
1.80646e-08
-9.22484e-08
-3.60674e-08
-8.56329e-08
-5.36328e-09
-4.84387e-08
-1.91816e-08
-2.89558e-08
-4.12844e-09
-2.79552e-08
1.56637e-08
-5.52701e-09
-1.36631e-08
-1.49576e-09
-1.34262e-08
7.02161e-09
-2.76415e-08
1.42437e-08
-3.4994e-08
2.01979e-08
-3.46445e-08
3.45403e-08
-3.52659e-08
2.37921e-08
3.81058e-09
3.94793e-08
-9.36431e-10
3.40711e-08
1.1943e-08
-6.17291e-09
-9.61942e-08
-3.20605e-08
-4.24273e-08
-5.27082e-08
-4.24726e-08
-2.12199e-08
-5.26751e-08
-2.90179e-08
-4.10047e-08
-2.08727e-08
1.38467e-08
-3.02584e-08
-1.43884e-08
-5.21913e-08
-1.7529e-08
-5.59426e-08
-3.16207e-08
-6.04308e-09
-9.16666e-09
-1.37931e-08
2.36628e-09
1.07512e-08
-1.59121e-08
1.08606e-08
-1.69532e-08
6.02829e-09
-2.82827e-08
-5.99541e-09
-3.38261e-08
-4.77673e-09
-6.28757e-08
-9.30348e-09
-8.36056e-08
-2.04454e-08
-8.70108e-08
-2.73511e-08
-7.94638e-08
-2.18454e-08
-7.48649e-08
-2.71884e-08
-6.77895e-08
-1.86336e-08
-9.63176e-08
-3.24034e-09
-5.33066e-08
-2.38163e-08
-3.86943e-08
5.38143e-09
-3.40387e-08
-3.40218e-09
-3.61673e-08
-9.15692e-09
-2.01442e-08
1.06378e-08
-4.52165e-09
-1.25905e-08
-3.29035e-09
-8.30084e-09
1.9937e-08
-2.18728e-08
1.79415e-08
-2.40011e-08
1.5889e-08
-1.13259e-08
1.50284e-08
-1.99959e-08
1.78985e-08
-4.04453e-09
4.31066e-08
-2.04284e-08
7.12048e-08
-1.17537e-08
1.0785e-07
-4.7039e-08
5.18973e-08
8.63504e-08
2.00015e-08
3.01565e-08
1.97031e-08
1.66705e-08
-5.52335e-08
-1.75282e-08
-9.73986e-08
-1.00139e-07
-5.31113e-08
6.54257e-08
-9.86545e-08
2.65993e-08
-1.44819e-07
5.94119e-09
-1.50171e-07
-1.76702e-08
-1.53866e-07
-2.45932e-08
-1.27714e-07
-2.8553e-08
-1.20043e-07
9.40277e-09
-1.08057e-07
1.8303e-08
-7.42901e-08
1.83741e-08
-7.47548e-08
1.42234e-08
-7.67089e-08
2.0512e-08
-6.78869e-08
3.4356e-08
-2.9516e-08
3.60845e-08
-6.99784e-08
1.982e-09
-9.379e-08
2.24321e-10
-8.44695e-08
4.57199e-09
-9.40214e-08
-8.67155e-09
-7.4114e-08
-2.00474e-09
-7.81191e-08
-3.28181e-08
-5.29006e-08
-3.02728e-08
-2.42197e-08
-4.76152e-08
-1.54356e-08
-1.27982e-08
2.97952e-09
-2.93716e-09
1.26289e-08
-2.32822e-08
2.68665e-08
-2.75347e-08
1.67347e-08
-1.75094e-08
1.39494e-08
-3.22085e-08
1.15308e-08
-3.22256e-08
6.71803e-08
-9.22157e-08
6.35975e-09
6.45663e-08
1.35767e-08
-8.2461e-09
9.42542e-09
1.6233e-08
-2.76136e-09
-8.56774e-08
-1.99122e-08
-4.98101e-08
-6.4967e-08
-5.41248e-08
-1.17001e-08
-4.41985e-08
-3.61835e-08
-2.74775e-08
-3.7594e-08
-9.21467e-09
-4.85215e-08
-1.00673e-08
-5.13389e-08
-1.08289e-08
-5.51813e-08
-5.97576e-10
-1.61043e-08
7.78156e-09
-2.21725e-08
2.64488e-08
-7.8369e-09
2.54438e-08
1.18653e-08
1.67941e-08
1.46777e-08
-6.54304e-11
1.07541e-08
-5.3807e-09
5.8106e-10
-5.01528e-09
-9.72034e-09
-6.46712e-09
-1.91917e-08
-2.00133e-08
-1.34602e-08
-1.797e-08
-2.37056e-08
-1.75689e-08
-2.75897e-08
-1.21067e-08
-2.42752e-08
-7.06534e-09
-8.28191e-09
1.98924e-10
-3.10828e-08
1.33686e-08
-7.92343e-09
2.30965e-08
-1.29268e-08
3.22831e-08
-1.82502e-08
1.74037e-08
2.53395e-08
8.98925e-09
-4.03531e-09
-8.54194e-10
1.45705e-09
-3.43233e-08
1.1605e-08
-6.64114e-08
8.08712e-09
-8.26239e-08
4.88672e-09
-1.08222e-07
5.60222e-09
-1.19152e-07
6.88593e-09
-1.31434e-07
-8.14665e-09
-9.77824e-08
-4.64026e-08
8.77152e-08
1.30433e-07
-1.3344e-07
-5.07753e-08
-9.46128e-08
-1.04464e-08
-8.24331e-08
4.49097e-09
-1.06887e-07
5.83561e-09
7.59103e-08
8.11868e-08
-1.35463e-07
-8.13121e-08
-1.11926e-07
1.66339e-09
-1.02779e-07
-3.20496e-09
-1.05248e-07
-1.52015e-08
-1.01186e-07
-2.86549e-08
-1.05485e-07
-2.32316e-08
-8.90225e-08
-8.1358e-09
-1.8452e-07
-8.21953e-09
-7.2779e-08
2.83822e-08
-1.11042e-07
5.24864e-08
-9.3321e-08
2.82031e-09
-1.0146e-07
4.24957e-08
-8.53818e-08
2.00059e-08
-9.49102e-08
1.24789e-08
-9.42991e-08
-3.88821e-10
-7.54434e-08
-1.52455e-08
-8.45662e-08
1.31418e-09
-6.07787e-08
-2.58123e-08
-6.95183e-08
-2.37468e-08
-5.18612e-08
-4.79296e-08
5.8331e-09
-1.06929e-07
-4.5119e-08
3.80236e-08
-3.06066e-08
-1.73028e-08
-3.85003e-08
-1.56259e-08
-4.961e-08
-1.64247e-08
-4.96048e-08
-1.75144e-08
-6.62741e-08
-1.55389e-08
-1.02525e-07
2.97913e-09
8.6373e-08
8.45019e-08
-1.21446e-07
-8.98957e-08
-1.19832e-07
-1.00488e-08
-9.90508e-08
-4.33589e-09
5.51823e-08
-1.09563e-07
9.05367e-09
-6.55123e-08
-8.97255e-08
-6.11223e-08
-1.03968e-08
-2.38188e-08
-7.16166e-08
8.17282e-09
-6.95858e-08
1.78022e-08
-5.8151e-08
9.58303e-09
-4.31201e-08
-1.20336e-09
-4.43829e-08
1.21557e-08
-2.9169e-08
1.75257e-08
-2.73657e-08
1.66184e-08
-6.92995e-09
3.60433e-08
-7.48346e-09
4.94934e-08
7.29875e-10
5.63553e-08
3.32275e-09
5.52505e-08
2.27773e-09
3.59653e-08
1.06033e-08
2.43986e-08
-7.58379e-09
1.66556e-08
-5.96629e-09
1.06202e-08
-1.76704e-08
-5.9109e-09
-1.13403e-08
-9.07589e-09
-2.1328e-08
-3.01243e-09
-1.43455e-08
3.15554e-09
-3.72509e-08
9.11128e-09
-1.38672e-08
-6.28448e-09
2.40037e-09
-5.24532e-08
2.79185e-08
-2.33848e-08
-3.96756e-09
-1.83491e-08
-8.92346e-09
-8.29407e-08
6.60338e-08
-7.56257e-08
4.28992e-09
-7.34483e-08
5.90984e-09
-7.28286e-08
4.26707e-09
-9.00191e-08
2.27928e-08
-1.24079e-07
4.1368e-08
-1.68082e-07
3.58562e-08
9.66021e-08
4.85791e-08
-1.00861e-07
-3.39422e-08
-1.25589e-07
-2.78459e-08
-1.35973e-07
-6.24603e-11
-1.30383e-07
2.91e-10
-6.94182e-08
-5.51285e-08
-6.30645e-08
7.26208e-08
-7.10308e-08
-7.42165e-08
-1.20952e-07
5.23023e-08
-1.18375e-07
-7.01563e-09
-1.12849e-07
-2.07275e-08
-1.07393e-07
-3.3015e-08
-1.08052e-07
-2.36637e-08
-1.12002e-07
-5.38272e-09
-1.27238e-07
8.24331e-09
-1.02612e-07
3.79527e-09
-1.05672e-07
5.39181e-08
-1.21589e-07
1.87381e-08
-1.01215e-07
2.31263e-08
-1.01664e-07
2.04545e-08
-9.78798e-08
8.69522e-09
-8.44769e-08
-1.37955e-08
-2.47681e-08
-7.57265e-08
-6.86504e-08
4.51967e-08
-7.23815e-08
-2.16058e-08
-1.00096e-07
4.00823e-09
-1.22851e-07
-2.82255e-08
1.25573e-07
8.69912e-09
-1.01673e-07
-9.51351e-08
-5.55191e-08
-6.34561e-08
-7.28651e-08
1.15393e-09
-8.12817e-08
-8.00789e-09
-9.39567e-08
-4.83913e-09
-1.22724e-07
1.32282e-08
-1.05179e-07
-1.68837e-08
-1.70555e-07
2.61712e-08
-1.62523e-07
2.41956e-08
-2.02442e-07
3.02854e-08
-1.46826e-07
-5.84835e-08
1.13604e-07
-6.7442e-08
2.30749e-08
-6.56035e-08
-6.92866e-08
-3.30396e-08
-3.35922e-08
-9.36999e-09
-9.49063e-08
-1.33945e-08
-6.62372e-08
-2.54941e-08
-4.60517e-08
-9.20668e-09
-5.94077e-08
3.19168e-08
-8.49654e-08
5.67929e-08
-5.43645e-08
4.44369e-08
-1.44364e-08
3.90918e-08
-1.54635e-09
4.33976e-08
-1.14671e-08
3.81404e-08
6.43409e-09
4.04131e-08
1.09568e-09
2.12047e-08
2.15062e-08
-3.15468e-10
3.15728e-08
-1.84658e-08
1.06485e-08
-2.13373e-08
-2.71818e-09
-3.44092e-08
-4.6462e-09
-4.00788e-08
-6.07985e-09
-5.30989e-08
-8.39463e-09
-5.82195e-08
-8.68345e-09
-8.272e-08
-1.27506e-08
-2.83868e-08
-6.89034e-08
-9.04293e-08
6.34957e-08
-1.96729e-07
1.52422e-08
-1.01932e-07
2.1074e-08
-7.10039e-08
-4.09018e-08
-1.94382e-07
-1.71778e-07
-1.36896e-07
-5.31955e-08
-1.24607e-07
-6.37921e-09
-1.17545e-07
-2.79479e-09
-1.01892e-07
6.03881e-09
-1.57651e-07
-2.3917e-08
-1.50928e-07
3.22813e-08
-3.46352e-08
5.07776e-08
-9.27835e-08
2.38493e-08
-1.13848e-07
-5.835e-09
-1.30338e-07
1.50989e-08
-1.57962e-07
2.79151e-08
9.81069e-08
4.95746e-08
-1.45128e-07
-4.21331e-08
8.48269e-08
5.89707e-08
-1.50744e-07
-7.18858e-08
-1.21536e-07
-3.65973e-08
-1.1407e-07
-2.8193e-08
-1.19854e-07
-2.75108e-08
-1.04874e-07
-3.8885e-08
-9.68739e-08
-1.33279e-08
-8.55598e-08
-3.94339e-09
-1.02286e-07
2.1576e-08
-8.26844e-08
3.49962e-08
-8.86437e-08
2.45672e-08
-7.51829e-08
9.66578e-09
-6.13397e-08
5.78553e-09
-7.30857e-08
2.04414e-08
-1.13369e-07
2.53315e-08
1.07316e-07
6.74618e-08
-1.39575e-07
-6.98806e-08
-1.32519e-07
-3.03227e-08
-1.45566e-07
1.55957e-08
-1.71387e-07
-4.48287e-09
-1.83111e-07
2.25882e-08
-1.9841e-07
-7.76844e-08
-1.46882e-07
-1.1804e-07
-1.84675e-07
3.89472e-08
-1.64963e-07
-2.80056e-08
-1.74101e-07
4.29882e-09
-1.80293e-07
1.74041e-08
-2.05245e-07
1.029e-08
-1.49885e-07
-2.91589e-08
-2.28827e-07
9.92344e-08
-2.55846e-07
5.67137e-08
-2.83159e-08
8.07889e-08
-5.01835e-08
-9.16491e-08
-8.54904e-09
-1.57075e-07
-1.28198e-07
-3.95434e-08
-5.12478e-09
-7.9773e-08
-5.44298e-08
-1.4844e-08
-1.30344e-07
-4.25985e-08
-1.8146e-08
-4.00011e-08
-6.22322e-08
-4.2538e-08
-8.19992e-08
2.59073e-08
-1.25051e-07
-2.88104e-08
3.96991e-08
-3.83075e-08
7.47865e-09
-3.6647e-08
-1.28512e-08
-3.45232e-08
4.97045e-09
2.64294e-08
-6.07374e-08
-1.02943e-08
5.8979e-08
-1.09934e-08
3.18488e-08
-2.00728e-08
1.93983e-08
-3.75913e-08
1.45652e-08
-5.72857e-08
1.52047e-08
-7.90213e-08
1.55929e-08
-1.31532e-07
4.46631e-08
-1.40004e-07
1.11807e-09
-1.86565e-07
3.19073e-08
3.71246e-08
7.05529e-08
-2.09212e-07
-5.01952e-08
-1.86831e-07
-7.2949e-09
-1.58424e-07
-7.11809e-09
-2.08939e-07
7.89915e-09
-7.0682e-08
5.38385e-08
-9.46778e-08
-2.87722e-08
-1.06562e-07
5.44916e-09
-1.02137e-07
-6.1779e-09
-7.72815e-08
-1.80357e-08
-8.89762e-08
-1.27611e-08
-9.38363e-08
3.62338e-08
-6.59892e-08
2.34488e-08
-6.48017e-08
2.24187e-08
-7.11443e-08
5.07799e-10
-6.55837e-08
9.5385e-09
-6.9552e-08
3.15989e-08
-1.84787e-08
-1.49845e-09
-3.23552e-09
-5.78059e-08
-1.42682e-08
6.95475e-08
-7.10661e-08
-1.58053e-08
-9.24389e-08
-1.59568e-08
-8.75233e-08
-3.33989e-08
-1.86583e-07
-4.97422e-08
-8.63836e-08
-1.71268e-08
-1.00922e-07
1.21104e-09
-4.80187e-08
-5.68468e-08
-1.12065e-07
8.5672e-08
-8.01302e-08
3.4148e-09
-7.22897e-08
1.59094e-08
-7.02989e-08
8.40525e-09
-5.72019e-08
-7.31124e-09
-5.50956e-08
1.77518e-08
-4.73566e-08
1.75927e-08
-1.49189e-08
3.38387e-08
-6.88426e-08
-1.66663e-08
-1.3613e-07
3.76749e-08
-1.38599e-07
1.78799e-08
-1.80492e-07
3.33918e-08
-3.12585e-07
2.67473e-08
-3.10477e-07
4.23651e-08
-1.05452e-07
5.1602e-08
-3.19427e-07
-1.09462e-07
-2.31302e-07
-1.19837e-07
-2.5298e-07
3.1237e-08
-2.27072e-07
-1.06896e-08
-2.92004e-07
-4.85143e-08
1.40434e-08
1.46198e-07
-2.24465e-07
-2.34307e-08
-1.6877e-07
4.44439e-10
-9.29731e-08
5.11683e-09
-2.77059e-08
-8.79336e-08
-1.69253e-08
-2.0223e-07
2.27826e-08
-1.03999e-07
-8.37799e-08
-1.21557e-07
-3.20243e-08
1.11585e-07
-7.55545e-10
-1.34387e-07
-1.35084e-07
-1.4179e-07
-5.48294e-08
-2.01311e-07
-2.41687e-08
4.88211e-08
-1.31027e-08
-1.65861e-07
-1.00961e-07
-1.37398e-07
-2.27346e-08
-1.71736e-07
2.02158e-08
-1.7912e-07
1.05267e-08
4.27793e-08
8.10513e-08
-2.29433e-07
-3.21835e-08
-1.84167e-07
-1.08628e-08
-1.89652e-07
2.31849e-08
-2.13164e-07
3.55135e-08
-2.17986e-07
1.98204e-08
-2.12861e-07
1.04132e-08
-2.88962e-07
4.14169e-09
-1.77362e-07
1.13928e-08
-1.48767e-07
3.02034e-09
-8.19178e-08
3.8184e-09
-1.24262e-07
-8.67826e-09
-1.19635e-07
-1.31895e-08
-1.15492e-07
-1.12616e-08
-1.15869e-07
8.27612e-09
-7.07985e-08
7.49671e-09
-8.23161e-08
-1.64062e-08
-5.04497e-08
-2.55859e-08
-6.98102e-08
1.25401e-08
-6.91958e-08
-1.8834e-08
-3.02441e-08
-5.23772e-08
-7.4236e-08
7.94156e-08
-8.55826e-08
3.47955e-08
-8.77733e-08
2.46095e-08
-1.25141e-07
3.82663e-08
-7.94135e-08
-3.6189e-08
-5.06962e-08
2.88171e-09
-9.56502e-08
4.34559e-08
1.4786e-07
5.88454e-08
-1.00685e-07
-4.20687e-08
-8.53844e-08
-3.12667e-08
-8.82695e-08
-1.38091e-08
-9.39936e-08
-2.76746e-08
-1.07249e-07
-3.502e-08
-5.54279e-08
-6.96586e-08
-1.39818e-07
8.47368e-08
8.40616e-08
7.85774e-08
-1.31437e-07
-5.5353e-08
-9.1537e-08
-3.74094e-08
-4.97489e-08
-2.51147e-08
-2.58977e-08
-1.56034e-08
-5.8714e-08
2.5426e-08
-1.28685e-08
-2.80935e-08
-1.70624e-08
2.19609e-08
1.35693e-09
1.52654e-08
-4.98619e-08
3.47367e-08
-3.66284e-08
2.40573e-08
-1.93935e-08
8.43125e-10
-3.35712e-08
4.75715e-08
-5.43884e-08
4.72348e-08
-4.73679e-08
3.38028e-08
-6.27872e-08
6.41612e-08
-1.91175e-07
1.3523e-08
-1.53472e-08
7.89786e-08
-2.90938e-07
-5.35723e-08
-2.87242e-07
-1.1555e-08
-4.14905e-08
6.38833e-08
-1.25485e-07
-1.2762e-07
-1.77925e-07
2.61809e-08
-1.7583e-07
-1.65073e-09
-1.33221e-07
-3.46929e-08
-3.33589e-08
-7.68174e-08
-4.09997e-08
-1.61442e-07
-2.20795e-08
-5.52187e-08
-4.48347e-08
-6.51988e-08
-1.85267e-08
-3.91913e-08
-2.71631e-08
-1.21679e-07
-5.31449e-08
-1.47409e-07
-2.88023e-08
-2.53567e-07
-3.93017e-08
-1.12267e-07
-3.19547e-08
-1.12053e-07
-1.03259e-07
-1.62176e-07
2.71565e-08
-1.6396e-07
2.22263e-08
-1.53874e-07
4.35565e-10
-1.05163e-07
3.25859e-08
-1.50348e-07
1.18081e-08
-1.70227e-07
5.71215e-09
-1.57272e-07
1.34663e-08
-1.40889e-07
2.01562e-08
-1.22523e-07
1.06446e-09
-1.10737e-07
-3.63809e-10
-1.1766e-07
8.62953e-09
-1.08522e-07
1.14733e-09
-1.13277e-07
8.88204e-09
-9.49596e-08
-1.46088e-08
-9.41802e-08
-9.44987e-09
-9.66417e-08
-1.07282e-08
-9.45367e-08
-1.33666e-08
-8.63719e-08
1.11274e-10
-8.1484e-08
2.60879e-09
-9.6324e-08
-1.41323e-09
-2.65961e-08
-9.53033e-08
-7.0192e-08
5.55747e-08
-1.19317e-07
2.86504e-08
1.07417e-07
8.36551e-08
-1.13302e-07
-5.68996e-08
-8.8596e-08
8.93375e-09
-8.106e-08
1.64141e-08
-1.5143e-07
-1.25253e-08
-8.3613e-08
1.77739e-08
-8.87298e-08
7.99878e-09
-8.02857e-08
3.5012e-08
-2.24119e-08
9.71807e-10
-6.81915e-08
3.71112e-09
-9.09631e-08
-8.49489e-09
-9.53241e-08
-9.44783e-09
-1.13469e-07
-9.24705e-09
-8.75939e-08
-6.24254e-08
8.54466e-08
1.20294e-07
-1.39651e-07
-4.75521e-08
-4.30541e-08
-1.94439e-08
-6.96937e-08
-2.85669e-08
-7.25088e-08
-3.35232e-08
-5.66787e-08
-4.22493e-08
-3.74732e-08
-3.59399e-08
-1.35907e-07
2.95482e-09
-5.70804e-08
1.45206e-08
-6.06471e-08
2.58824e-08
-4.24124e-08
-2.81488e-09
-1.40832e-07
1.267e-08
-3.32086e-08
3.64879e-08
-6.61206e-08
3.37554e-08
-5.1254e-08
3.28552e-08
-3.85712e-08
3.46405e-08
-3.41618e-08
3.00942e-08
-8.60838e-09
3.80081e-08
-1.94841e-08
2.41754e-08
1.29058e-08
4.35289e-08
-6.19079e-08
2.17881e-08
-9.96444e-08
2.58007e-08
-8.28797e-08
4.5806e-08
1.03894e-07
4.87328e-08
-1.55528e-07
-7.93408e-08
-1.35177e-07
-2.17778e-08
-1.22131e-07
-4.77383e-08
-9.25552e-08
-9.52774e-08
-2.11377e-08
-9.30646e-08
-5.67214e-09
-1.04672e-07
-2.55861e-08
-1.05983e-07
-8.58525e-09
-9.50779e-08
-3.79574e-08
-1.14668e-07
-3.30069e-08
-1.2405e-07
-1.82512e-08
-1.6513e-07
5.00043e-10
-2.03068e-07
3.88999e-09
1.65304e-08
4.31079e-08
-2.31343e-07
-8.76596e-08
-2.86766e-07
-4.11109e-08
-1.73218e-07
8.6253e-09
-1.38286e-07
-4.11391e-09
-1.19176e-07
-7.10878e-09
-1.25519e-07
1.32771e-08
-1.14456e-07
3.42231e-09
-9.93744e-08
4.08128e-09
-9.51578e-08
-5.13692e-09
-8.81469e-08
-6.40408e-09
-6.89771e-08
-8.86655e-09
-5.6002e-08
-1.25361e-08
-1.38013e-07
-3.08252e-08
-3.12074e-08
1.95806e-10
-4.42928e-08
3.91109e-09
-5.32743e-08
-2.1764e-09
-5.2154e-08
-1.44868e-08
-4.78062e-08
-4.28024e-09
-3.20053e-08
-1.35186e-08
-1.47537e-07
-7.24681e-09
1.70866e-07
6.62698e-08
-7.60003e-08
-5.42888e-08
-4.66832e-08
-1.4499e-09
1.54886e-08
2.07367e-08
-2.85222e-08
-1.34633e-08
-1.50273e-08
-5.05684e-09
-1.15146e-07
-3.57159e-09
-4.30522e-08
3.54351e-08
-1.65461e-07
1.86399e-08
-7.49266e-08
3.88106e-08
-7.27831e-08
3.28687e-08
-6.25699e-08
-9.24121e-09
-6.75135e-08
8.65493e-09
-8.27175e-08
6.70944e-09
-1.19028e-07
2.71396e-08
-1.50698e-07
2.08861e-08
7.25663e-08
7.81834e-08
-1.01085e-07
-6.88863e-08
-1.18633e-07
-3.04886e-08
-1.26858e-07
-1.13345e-08
-1.05586e-07
-4.87617e-08
-9.21382e-08
-4.73092e-08
-7.69942e-08
-5.8764e-08
-1.06382e-08
-1.01929e-07
-6.56556e-08
5.73572e-08
-5.56115e-08
5.04403e-09
-4.14798e-08
1.17508e-08
-4.72773e-08
2.53104e-09
-6.02468e-08
2.53808e-08
-2.26121e-08
-1.14654e-09
-1.77984e-08
2.91234e-08
-2.52757e-08
4.03327e-08
-2.25292e-08
3.13169e-08
-1.8197e-08
2.56409e-08
8.26619e-10
1.93685e-08
8.903e-09
1.62635e-08
4.56088e-08
6.82333e-09
5.21636e-08
1.50135e-08
7.0472e-08
6.71296e-09
1.05697e-07
1.02252e-08
1.45314e-07
9.69157e-09
9.08256e-08
-2.27933e-08
1.14331e-07
-4.52837e-08
5.28722e-08
1.4208e-08
3.5352e-08
-9.14225e-08
-1.27991e-08
-6.31018e-08
-1.25222e-08
-6.02211e-08
-1.85247e-08
-5.31156e-08
-1.25315e-08
-3.27015e-08
-5.83717e-08
7.7648e-09
-7.38905e-08
-5.90413e-08
4.79524e-08
-8.06788e-08
2.21373e-08
-8.10892e-08
5.08353e-09
-4.59099e-08
7.48864e-09
-1.01592e-07
-3.3354e-08
-1.3305e-07
-9.22977e-09
-1.1233e-07
-1.06493e-08
-9.60774e-08
-1.9387e-08
-1.15365e-07
1.21788e-08
-9.60472e-08
-7.14517e-09
-7.99206e-08
-1.17346e-08
-6.1448e-08
-1.42068e-08
-5.5512e-08
-1.10213e-08
-3.51243e-08
-2.67273e-08
-1.59573e-08
-2.84825e-08
1.06377e-08
-3.93677e-08
1.31532e-08
-3.34737e-08
3.57187e-08
-2.25996e-08
5.80224e-08
-1.85785e-08
6.17886e-08
-5.35663e-09
5.26011e-08
-4.17499e-09
4.10716e-08
7.24925e-09
2.55312e-08
1.84444e-09
3.93831e-09
1.42737e-08
7.12663e-08
-1.10964e-09
2.24562e-08
-6.03253e-09
3.32418e-08
-1.25597e-08
3.04506e-08
2.3528e-08
2.72207e-10
1.68914e-08
-2.16347e-08
1.66784e-08
-5.04367e-08
2.49732e-08
-3.55115e-08
2.05093e-08
-5.55928e-08
3.90657e-08
-3.2136e-08
1.59154e-08
-1.86004e-08
1.90055e-08
-2.78927e-08
5.13605e-11
-7.38487e-09
-1.1733e-08
-9.40161e-09
8.6305e-09
-1.28035e-07
2.44819e-08
-1.315e-09
1.53698e-08
-9.45839e-08
4.91351e-08
-6.89801e-08
2.65277e-08
-8.33228e-08
-1.6292e-08
-1.82656e-07
-3.32921e-08
-1.37429e-07
2.82165e-08
-1.15122e-07
-6.93903e-08
-1.47684e-07
-2.62023e-08
1.04119e-07
5.42248e-09
-9.58465e-08
-9.92009e-08
-7.15126e-08
-2.02674e-08
-5.30693e-08
-6.50609e-09
-4.78285e-08
-2.22153e-09
-3.12974e-08
8.84981e-09
-3.98581e-08
7.09517e-09
-2.97347e-08
1.88083e-08
-1.06394e-08
2.15379e-08
-6.47386e-09
2.71515e-08
-7.57465e-09
2.66758e-08
-4.19799e-09
1.61897e-08
-1.18145e-08
2.41263e-08
2.43077e-09
-7.37691e-09
7.8449e-09
9.52035e-09
3.00402e-08
-1.53351e-08
4.77673e-08
-7.01931e-09
6.41602e-08
-6.00913e-09
3.95683e-08
1.81736e-09
2.79332e-08
-3.40523e-08
2.25344e-08
1.94088e-08
2.06573e-08
-9.21459e-08
-1.36991e-08
-3.44859e-08
-4.65192e-08
-6.28677e-08
1.59899e-08
-2.90501e-08
-4.50665e-08
-5.56453e-08
-3.23445e-08
1.98445e-07
3.58922e-08
-6.07887e-08
-5.49997e-08
-4.27062e-08
3.82879e-09
-4.19081e-08
4.28513e-09
-3.01724e-08
-4.55508e-09
-5.80089e-08
-5.51774e-09
-6.52857e-08
-1.2672e-09
-7.5182e-08
-7.53201e-10
-9.20854e-08
-2.48383e-09
-5.70587e-08
-2.21418e-08
-3.05773e-08
-3.29849e-08
-2.02937e-08
-2.21222e-08
-8.58725e-09
-2.59134e-08
1.42168e-09
-2.11171e-08
3.99064e-09
-2.95546e-08
6.94778e-09
-3.14397e-08
1.54901e-09
-3.3969e-08
-7.89893e-09
-2.46185e-08
-1.80464e-08
-1.28135e-08
-3.31668e-08
-3.68524e-09
-4.03075e-08
1.3181e-09
-5.67357e-08
1.22532e-08
-4.34772e-08
-5.00977e-09
-4.30332e-08
1.83502e-09
-3.97492e-08
1.00096e-08
-2.75819e-08
-1.38291e-08
-1.85048e-08
-1.48282e-08
3.73762e-08
-6.9146e-08
-5.65826e-09
6.68026e-08
-1.18262e-08
2.31801e-08
-1.96613e-08
2.41018e-08
-1.91114e-08
2.39782e-08
-2.22508e-08
2.34277e-08
5.81514e-09
1.04994e-08
4.44891e-09
1.75035e-08
1.8194e-08
5.26066e-09
3.92198e-08
-2.15947e-08
9.39974e-08
-6.65104e-08
4.88944e-08
5.46927e-08
2.82168e-08
4.41715e-08
3.10325e-08
1.22409e-08
6.06235e-08
1.90531e-08
8.61918e-08
1.30404e-09
7.24455e-08
-1.66624e-09
4.96025e-09
3.49401e-08
-2.67364e-08
-6.11022e-08
1.31459e-08
9.93922e-09
1.54156e-08
-2.81803e-08
5.02327e-08
-2.93945e-08
5.1014e-08
-1.02553e-07
-4.97671e-09
3.57743e-08
-1.6083e-08
4.60039e-09
-1.42089e-08
-4.30334e-09
-6.75763e-09
1.48901e-09
2.13465e-09
-1.81867e-09
1.99122e-08
8.29878e-10
1.42037e-08
2.71733e-08
1.65778e-08
2.51996e-08
1.39397e-08
2.93142e-08
4.55961e-09
2.56164e-08
-1.75665e-08
4.62527e-08
-3.77904e-08
1.31606e-08
-2.54003e-08
-2.77244e-09
-1.79476e-08
-2.2761e-08
-1.27834e-08
-1.23125e-08
-3.03052e-08
1.10687e-08
-3.62493e-08
8.05499e-09
-6.33467e-08
-5.93917e-09
6.7549e-09
-5.06925e-08
7.19336e-08
-5.9919e-08
-3.20325e-08
-1.34036e-08
-7.65613e-08
-7.91272e-08
-4.19393e-08
2.57868e-08
-2.75054e-08
1.38067e-09
-7.93855e-09
9.2284e-08
-5.59482e-08
-9.73593e-09
4.702e-08
-2.04591e-08
1.44048e-08
-2.27078e-08
6.53366e-09
-2.99751e-08
2.71193e-09
-3.4467e-08
-9.59887e-10
-3.14376e-08
-4.29684e-09
-6.06257e-09
-2.61285e-08
-1.01742e-07
-2.68584e-08
1.94185e-10
-3.98573e-09
-6.43773e-09
-2.66863e-08
-4.4877e-09
-2.4318e-08
-6.93614e-09
-2.37269e-08
1.44315e-09
-2.97827e-08
3.52039e-09
-3.1632e-08
-1.86448e-08
-9.27468e-09
-4.05947e-08
-1.25616e-08
-5.88826e-08
-7.00981e-09
-8.89859e-08
1.69794e-08
-1.00964e-07
9.21021e-09
-1.0217e-07
3.55352e-09
-9.76928e-08
8.5606e-09
-8.40142e-08
-1.8879e-08
-7.14171e-08
-1.16005e-08
-6.45708e-08
2.63365e-09
-1.13316e-07
3.54233e-08
-1.3685e-07
8.55363e-09
8.98801e-08
6.87051e-08
-1.36316e-07
-6.87812e-08
-8.79819e-08
-2.40109e-08
-7.00434e-08
7.11425e-09
-5.08661e-08
4.60738e-09
-3.72865e-08
9.71112e-09
-1.97703e-08
-7.3615e-09
-2.54694e-08
2.27689e-08
-1.91245e-08
-1.26624e-09
-5.57815e-08
1.50626e-08
1.87044e-07
5.07159e-08
-3.94982e-08
-7.85231e-08
3.75622e-08
-3.28886e-08
-3.6023e-08
-3.33517e-08
6.79605e-08
3.41034e-08
3.15639e-08
3.84075e-08
6.31152e-08
-3.29092e-08
-3.82055e-08
1.48172e-08
1.55307e-08
6.38705e-09
-1.09475e-07
1.36161e-08
-3.45647e-08
1.82667e-08
-6.28201e-08
-1.47982e-09
1.60993e-07