/*--------------------------------*- C++ -*----------------------------------*\
  =========                 |
  \\      /  F ield         | OpenFOAM: The Open Source CFD Toolbox
   \\    /   O peration     | Website:  https://openfoam.org
    \\  /    A nd           | Version:  12
     \\/     M anipulation  |
\*---------------------------------------------------------------------------*/
FoamFile
{
    format      ascii;
    class       volVectorField;
    location    "0.95";
    object      U.water;
}
// * * * * * * * * * * * * * * * * * * * * * * * * * * * * * * * * * * * * * //

dimensions      [0 1 -1 0 0 0 0];

internalField   nonuniform List<vector> 
3750
(
(-0.0353985 -0.00717164 0)
(-0.00728153 -0.00516676 0)
(-0.00497668 -0.00333005 0)
(-0.00483008 0.000214187 0)
(-0.00419629 0.00266667 0)
(-0.00169767 0.00659868 0)
(-0.00205223 0.00793418 0)
(-0.000306757 0.00929463 0)
(-0.000584667 0.0108376 0)
(0.000140095 0.00985982 0)
(6.51735e-06 0.00874661 0)
(0.00153515 0.00908054 0)
(-0.000960275 0.0094831 0)
(0.00174899 0.0102535 0)
(-0.000441932 0.00972622 0)
(-0.00324757 0.0142159 0)
(0.00364287 0.0156463 0)
(0.000222896 0.0122159 0)
(-0.000672229 0.00917025 0)
(0.000252631 0.00892217 0)
(-0.00130059 0.00976258 0)
(0.000381249 0.00898965 0)
(-0.000756521 0.0115764 0)
(-0.000521311 0.0104407 0)
(-0.00160686 0.0126663 0)
(-0.00278399 0.0161025 0)
(0.00252745 0.0170133 0)
(-0.00274603 0.0185837 0)
(0.00333342 0.0172875 0)
(0.000676726 0.0139544 0)
(0.00105475 0.0151984 0)
(0.00059865 0.0159951 0)
(0.00117521 0.0160024 0)
(-0.000368112 0.0170554 0)
(-0.000937705 0.0165183 0)
(0.000240812 0.0170109 0)
(0.000298237 0.0147426 0)
(0.000368007 0.0154284 0)
(2.1067e-06 0.0139359 0)
(-0.000984324 0.0130823 0)
(-0.000355237 0.015203 0)
(6.70512e-05 0.0138996 0)
(0.000515386 0.0156646 0)
(-0.00124132 0.018144 0)
(0.00024927 0.0183893 0)
(0.00014287 0.0197812 0)
(1.9849e-05 0.0200635 0)
(0.000893728 0.0186634 0)
(0.00178011 0.016938 0)
(0.00298798 0.0138645 0)
(-0.00202191 0.0102426 0)
(0.000343645 0.00314465 0)
(0.000468477 0.00233629 0)
(-0.00137623 0.0027029 0)
(0.000359095 0.000494655 0)
(-0.000154787 0.00290068 0)
(0.00361739 0.0173517 0)
(-0.00551703 0.0199424 0)
(-0.00366069 0.00645324 0)
(-0.000865002 0.00889543 0)
(-0.000426797 0.0124567 0)
(-0.000278897 0.0112322 0)
(-0.000638321 0.0106919 0)
(0.000307791 0.0102089 0)
(-2.54621e-05 0.01049 0)
(-0.000965059 0.0100936 0)
(-0.00100176 0.00984052 0)
(-0.000122024 0.0110984 0)
(-0.000509468 0.0111832 0)
(0.000609538 0.0116854 0)
(5.06027e-05 0.0123483 0)
(-0.000251254 0.0110877 0)
(0.0011488 0.0101868 0)
(-0.000314358 0.0109744 0)
(0.0022916 0.00970593 0)
(-0.0295505 0.0229274 0)
(-0.00201749 0.0123386 0)
(-0.000376066 -0.00278626 0)
(0.00112771 0.0031427 0)
(-0.000183951 0.000745632 0)
(-0.00197935 0.00348047 0)
(-0.00175486 -9.60611e-05 0)
(4.03696e-05 0.0030321 0)
(-0.00245055 0.00303542 0)
(-0.00155693 0.00372094 0)
(-0.0029043 0.00279647 0)
(-0.000354653 0.00449817 0)
(-0.00295694 0.00638288 0)
(0.0053362 0.00916521 0)
(0.000342324 0.00397309 0)
(-0.0041174 0.0164853 0)
(0.00238742 0.0189155 0)
(0.000639868 0.00806442 0)
(-0.0008943 0.00967109 0)
(0.00100727 0.0100459 0)
(-0.000371513 0.0118184 0)
(-0.000304224 0.011958 0)
(0.000476949 0.0111613 0)
(0.00130242 0.0108836 0)
(0.000969464 0.0108595 0)
(0.00115956 0.0178794 0)
(-0.00122961 0.0138311 0)
(-0.000723191 0.0153591 0)
(-0.00281038 0.0174596 0)
(-0.00396671 0.00811209 0)
(-0.00132342 0.0107396 0)
(-0.00282059 0.0120493 0)
(0.000552642 0.0132277 0)
(-0.000343434 0.0131373 0)
(0.00144913 0.013173 0)
(0.000556913 0.0115075 0)
(0.00286206 0.00671688 0)
(0.000216224 0.00723229 0)
(0.0023731 0.00571484 0)
(-0.0012998 0.00748894 0)
(-0.00131646 0.0101435 0)
(-0.000578229 0.0119092 0)
(-0.0013852 0.0111999 0)
(-0.00177546 0.0153979 0)
(-0.0020689 0.0206479 0)
(-0.00027445 0.0211429 0)
(-0.00101486 0.023605 0)
(0.00141005 0.0256294 0)
(-0.000260386 0.0289632 0)
(0.00787099 0.024613 0)
(0.00515502 0.0216092 0)
(0.00194971 0.0191347 0)
(0.0014942 0.0140686 0)
(0.000225432 0.0161358 0)
(0.00213618 0.0153588 0)
(0.00162491 0.0160712 0)
(0.00502186 0.0191614 0)
(-0.00678776 0.0157337 0)
(-0.00426192 0.0114279 0)
(-0.00128842 0.0123699 0)
(-0.00102721 0.0153431 0)
(0.0030492 0.0141249 0)
(0.00175202 0.00984101 0)
(0.00196546 0.00959498 0)
(0.000302708 0.00857881 0)
(-0.000573974 0.00832894 0)
(-0.00155692 0.0093495 0)
(-8.23213e-05 0.00932872 0)
(-0.000534779 0.00983245 0)
(-0.000354498 0.0109566 0)
(-0.000232975 0.0105897 0)
(-0.00219267 0.0105499 0)
(-0.00131267 0.012865 0)
(0.000711759 0.0115259 0)
(0.00101278 0.0120752 0)
(-0.00203671 -0.0458199 0)
(-0.000262307 -0.0159832 0)
(-0.00327807 -0.0196609 0)
(-0.00169247 -0.00758668 0)
(-0.00279531 -0.0125851 0)
(-0.004274 -0.0083797 0)
(-0.0034706 -0.00602259 0)
(-0.00102032 -0.00674208 0)
(-0.00216396 -0.00666886 0)
(-0.000662 -0.00642225 0)
(0.00144373 -0.00787278 0)
(0.000743727 -0.0101484 0)
(0.00148223 -0.00345733 0)
(0.00139843 -0.00112534 0)
(-0.00124475 -0.0114002 0)
(0.00349907 0.00410562 0)
(-0.00757593 0.00867389 0)
(-0.00332016 -0.00420847 0)
(-0.00316694 -0.00316334 0)
(-0.000473921 -0.00103729 0)
(-0.00101513 -0.000167344 0)
(-0.00106478 0.00129257 0)
(-0.000379875 0.00332767 0)
(-0.00181414 0.00292037 0)
(0.00315549 0.00550064 0)
(0.00425895 0.00619051 0)
(-0.00161166 0.00853241 0)
(0.00355185 0.00868013 0)
(-0.00414235 0.00492776 0)
(-0.00339601 0.00478353 0)
(-0.000688698 0.0031931 0)
(-0.00229292 0.00212991 0)
(-0.000489061 0.00218784 0)
(-0.00012496 0.00241195 0)
(0.00176236 0.00314245 0)
(0.000477049 -0.000386023 0)
(0.00358856 -0.00389644 0)
(0.000812229 -0.00342226 0)
(0.000673334 -0.00369178 0)
(-0.00111631 -0.00450607 0)
(-0.00281019 0.00240238 0)
(-0.00389435 0.00235823 0)
(-0.00601539 0.00422225 0)
(-0.00382563 0.00467755 0)
(-0.00639164 0.00517753 0)
(-0.00368126 0.00700396 0)
(-0.00149919 0.0107775 0)
(-4.5679e-05 0.010959 0)
(0.00199901 0.0186576 0)
(0.00364179 0.0198031 0)
(0.00245228 0.00882298 0)
(0.00148425 0.00983933 0)
(0.00150192 0.0120759 0)
(0.0018498 0.0124748 0)
(0.00404383 0.0098943 0)
(0.00256311 0.011186 0)
(0.00250509 0.00996364 0)
(-0.00163263 0.00891652 0)
(-0.0022486 0.0080643 0)
(-0.00371773 0.00650805 0)
(-0.00527098 0.0102719 0)
(0.0037602 0.00929596 0)
(0.00422275 0.00661934 0)
(0.00257457 0.00780314 0)
(0.000460605 0.00650934 0)
(-0.000676774 0.00595591 0)
(-0.00257253 0.00559095 0)
(-0.000934415 0.00674735 0)
(-0.000917882 0.00659797 0)
(-0.00102647 0.00823862 0)
(-0.000568526 0.00857641 0)
(-0.000157263 0.00721341 0)
(-0.0011035 0.00805745 0)
(-0.000703338 0.00665008 0)
(-3.31344e-05 0.00579421 0)
(-0.00956643 -0.00793304 0)
(-0.0111378 -0.000632934 0)
(-0.00154974 -0.00711497 0)
(-0.00511136 -0.00383147 0)
(-0.002757 -0.010635 0)
(-0.00360821 -0.00774324 0)
(-0.000737167 -0.00714211 0)
(-0.00159723 -0.00789788 0)
(-0.00285212 -0.00981857 0)
(-0.00281642 -0.00561528 0)
(0.00580833 -0.00749564 0)
(0.00234423 -0.00753541 0)
(0.00300344 -0.00573312 0)
(-0.004542 -0.00582524 0)
(-0.00275711 -0.00339062 0)
(0.00214576 -0.0002204 0)
(-0.00841796 -0.00112726 0)
(-0.00297265 -0.00338315 0)
(-0.00308835 -0.00415913 0)
(-0.0017981 -0.00401434 0)
(-0.00146644 -0.00433584 0)
(-0.0028529 -0.00192331 0)
(0.000455037 -0.00615725 0)
(-0.00193463 -0.00303352 0)
(0.000496107 -0.00236755 0)
(-0.000148058 -0.00592531 0)
(0.000674079 -0.00173699 0)
(-0.00103294 -0.00267383 0)
(-0.000404843 -0.0039469 0)
(-0.00416541 -0.00317206 0)
(-0.00125147 -0.00294911 0)
(-0.00120217 -0.00438275 0)
(-0.000894491 -0.00591233 0)
(-0.00198949 -0.00687165 0)
(0.00361994 -0.00742039 0)
(0.00458242 -0.00576475 0)
(0.00428241 -0.00775765 0)
(0.00438599 -0.00440905 0)
(-0.00158602 -0.00505403 0)
(-0.00388927 -0.00631792 0)
(-0.00295735 -0.00273461 0)
(-0.00297101 -0.00158559 0)
(-0.00339704 -0.00217654 0)
(-0.00433255 -0.00292336 0)
(-0.00867383 -0.00412346 0)
(-0.00525474 -0.00280931 0)
(-0.00211172 -0.00322897 0)
(0.000714535 -0.0022241 0)
(0.00533295 0.00326279 0)
(-0.000342768 -3.34824e-05 0)
(0.00132763 0.000368388 0)
(0.00180831 0.000788352 0)
(0.00274126 -0.00141482 0)
(0.00276907 -1.46807e-05 0)
(0.000379313 -0.000556369 0)
(0.00474669 -0.0012841 0)
(0.00229907 0.000924273 0)
(-0.000977381 0.000375509 0)
(-0.000664157 -6.70598e-05 0)
(-0.00345793 -0.00431088 0)
(0.000690589 0.00591843 0)
(0.0005663 0.00607311 0)
(0.00365634 -0.00218993 0)
(0.00195077 0.000831683 0)
(0.00100184 0.000207863 0)
(5.88634e-05 -0.000499597 0)
(-0.000811919 -0.000619728 0)
(-0.00160786 -0.000813672 0)
(-0.00189316 -0.000302613 0)
(-0.00180956 0.00112948 0)
(-0.00162704 0.00236115 0)
(0.00016701 0.00293088 0)
(0.000790628 0.00484137 0)
(0.000719306 0.00454753 0)
(0.00139554 0.0033072 0)
(-0.00680105 -0.0136405 0)
(0.00280078 -0.00524312 0)
(-0.00123784 -0.00988641 0)
(-0.00474646 -0.00279299 0)
(-0.0012457 -0.00927811 0)
(-0.00210312 -0.00303738 0)
(-0.000188187 -0.00292672 0)
(-0.0017786 -0.0057317 0)
(-5.80913e-05 -0.00583686 0)
(-3.7522e-05 0.00664126 0)
(0.00114979 0.00244326 0)
(0.000800187 -0.00388136 0)
(0.00034508 -0.00311272 0)
(-0.00201081 -0.00191458 0)
(-0.00164042 -0.00391228 0)
(-0.00411422 -0.00372014 0)
(-0.00799771 0.00127932 0)
(-0.000250307 5.27091e-05 0)
(-0.00148053 -0.00620378 0)
(-0.0020105 -0.00613335 0)
(-0.00116656 -0.00899574 0)
(-0.00184652 -0.00448158 0)
(0.000152348 -0.00607683 0)
(0.00127046 -0.0116525 0)
(0.000112309 -0.00952033 0)
(-0.000621278 -0.010496 0)
(0.000293939 -0.00812198 0)
(-9.68269e-05 -0.00634692 0)
(0.0009482 -0.00911655 0)
(-0.00101753 -0.0073598 0)
(-0.00576129 -0.00361819 0)
(0.00283276 -0.00519457 0)
(0.00105885 -0.00467441 0)
(0.0019757 -0.00322221 0)
(0.00235411 -0.000673967 0)
(0.00202645 -0.00215792 0)
(-0.00075614 0.00145485 0)
(8.80535e-05 0.00399126 0)
(-0.00354182 0.00319151 0)
(-0.00256694 0.00140297 0)
(-0.00155536 -0.000168758 0)
(-0.00336925 -0.00589973 0)
(-0.000712855 -0.00653056 0)
(-0.00313699 -0.00925561 0)
(-0.00494679 -0.00686397 0)
(-0.00438089 -0.00935499 0)
(-0.00440172 -0.0140518 0)
(1.19155e-05 -0.0129063 0)
(-5.11082e-05 -0.00975863 0)
(0.00272415 -0.00755772 0)
(0.00480798 -0.00913726 0)
(0.00315949 -0.00794345 0)
(0.00370826 -0.00732488 0)
(0.00296498 -0.00843464 0)
(0.00146222 -0.00764721 0)
(0.00308244 -0.00543271 0)
(0.00033648 -0.0101905 0)
(0.001321 -0.00674874 0)
(-0.000213563 -0.00998093 0)
(0.00194534 -0.0112229 0)
(0.002737 -0.0065873 0)
(-0.00549546 -0.00567761 0)
(-0.000689125 -0.0052645 0)
(0.000879704 -0.00439071 0)
(0.00192118 -0.00246078 0)
(9.9713e-05 -0.00177992 0)
(-0.000629467 -0.000617532 0)
(-0.00282693 0.000622579 0)
(-0.00330737 0.0012277 0)
(-0.00294677 0.00184661 0)
(-0.00250838 0.00245817 0)
(-0.00246916 0.00121674 0)
(-0.00146451 0.00381817 0)
(-0.00152852 0.00462072 0)
(0.000155471 0.00529691 0)
(-5.25806e-05 -0.0103765 0)
(-0.00385898 0.000171856 0)
(-0.00445307 -0.00353225 0)
(-0.00477447 -0.000647043 0)
(-0.00386749 -0.00565244 0)
(-0.00343056 -0.00302892 0)
(-0.0033666 -0.00379252 0)
(-0.00201419 -0.00181022 0)
(0.00259842 -0.000438925 0)
(0.00440792 0.00314007 0)
(-0.00165194 0.00209492 0)
(-0.000366816 2.97681e-05 0)
(-0.00114337 -0.00169901 0)
(-0.0026254 -0.00371674 0)
(-0.00304258 -0.00449878 0)
(-0.00250874 -0.00750259 0)
(-0.00216733 0.000142504 0)
(-0.00276175 -0.000263123 0)
(-0.00145002 -0.00961878 0)
(-0.00192011 -0.00881112 0)
(-0.000981269 -0.00882018 0)
(0.00189323 -0.00559746 0)
(-0.00116225 -0.0067892 0)
(0.000782795 -0.00425425 0)
(0.000158902 -0.00215117 0)
(-0.00192948 -0.00275859 0)
(0.000824759 0.000366225 0)
(-0.00561876 0.00263709 0)
(0.000883504 0.00189328 0)
(-0.000891104 -0.00163766 0)
(-0.00386141 0.00849671 0)
(-0.00248921 0.00770809 0)
(-0.00404922 -0.00150195 0)
(-0.00471799 0.00448709 0)
(0.000640919 0.0078629 0)
(0.0013163 0.00543404 0)
(-0.00327426 0.00498292 0)
(0.000578843 0.00533735 0)
(0.000901959 0.00321171 0)
(0.0031347 0.000423433 0)
(0.00270519 -0.00573462 0)
(-0.000940341 -0.00606392 0)
(0.00248639 -0.00553731 0)
(9.72101e-05 -0.0108419 0)
(0.000714269 -0.0118126 0)
(-0.00485665 -0.0126587 0)
(-0.00367912 -0.0121549 0)
(-0.00324858 -0.0136047 0)
(0.000506554 -0.0115587 0)
(-0.00195569 -0.0088348 0)
(0.00464513 -0.0103276 0)
(0.00314404 -0.00776809 0)
(0.00506467 -0.00817752 0)
(0.00391966 -0.00732229 0)
(0.00469508 -0.00734583 0)
(0.00151435 -0.00765673 0)
(0.00210261 -0.00756266 0)
(0.0020735 -0.00682601 0)
(-0.00109579 -0.00826644 0)
(0.00233856 -0.00784725 0)
(-0.00340717 -0.00588266 0)
(-0.00515315 -0.0020123 0)
(0.000948454 -0.00285681 0)
(-0.000804706 -0.00255315 0)
(-0.00124188 -0.00125299 0)
(-0.00277644 0.000437198 0)
(-0.00309506 0.00164687 0)
(-0.00363351 0.00293825 0)
(-0.00366357 0.00195042 0)
(-0.00224178 0.00162818 0)
(-0.00401922 0.00176108 0)
(0.000604094 0.00185907 0)
(-0.00186482 0.000867898 0)
(-0.00246506 0.00382561 0)
(0.00267715 0.00298673 0)
(-0.00115053 -0.0142119 0)
(-0.00111332 -0.00015207 0)
(0.000672624 -0.00715294 0)
(-0.00108246 -0.00201691 0)
(-0.00322507 -0.00469449 0)
(-0.00506423 -0.00225122 0)
(-0.0045034 -0.0022549 0)
(-0.00476251 -0.00149343 0)
(-0.00450064 0.00273231 0)
(0.00369326 0.00527776 0)
(0.000686447 0.00177367 0)
(0.0010195 0.00143382 0)
(0.00130918 0.000249939 0)
(0.000997826 0.00104106 0)
(0.00036296 -0.000323671 0)
(-0.00113131 0.000731602 0)
(0.00269625 0.00374726 0)
(-0.00560412 0.00199556 0)
(-0.0043878 -0.00213726 0)
(-0.00443363 -0.00128879 0)
(-0.0030742 -0.00164272 0)
(-0.00186892 0.000508739 0)
(-0.00248785 -0.000523174 0)
(-0.000960952 0.00101553 0)
(-0.00263697 0.000420272 0)
(-0.00427467 0.00270959 0)
(0.00305105 0.00225253 0)
(-0.00091773 0.00722605 0)
(-0.00247382 0.00768651 0)
(0.000243226 -0.00419864 0)
(0.00346884 -0.00345609 0)
(-0.00497785 -0.00687161 0)
(-0.00292745 -0.011487 0)
(-0.00159313 -0.00341698 0)
(-0.00151393 -0.0030807 0)
(-0.00260563 -0.0154355 0)
(-0.00146406 -0.00984652 0)
(-0.00533926 -0.00366626 0)
(0.00529651 -0.00843096 0)
(0.00263846 -0.00753435 0)
(0.00119498 -0.00982052 0)
(-0.00126187 -0.0076397 0)
(0.00253907 -0.00662025 0)
(0.00158744 -0.0110578 0)
(-0.00155997 -0.00996692 0)
(-0.00309365 -0.00883052 0)
(-0.00381258 -0.00896715 0)
(-0.00450937 -0.00927576 0)
(9.07921e-05 -0.00972529 0)
(-1.34901e-05 -0.00901465 0)
(0.000833568 -0.0080082 0)
(0.00119061 -0.0104447 0)
(0.000965586 -0.008403 0)
(0.00326031 -0.0114885 0)
(0.00257267 -0.00965022 0)
(0.00350129 -0.00932006 0)
(0.00303523 -0.00983158 0)
(0.00166353 -0.00968131 0)
(0.000572373 -0.00759094 0)
(-0.00169519 -0.00795168 0)
(-0.00035203 -0.00761223 0)
(-0.0022609 0.00356502 0)
(-0.00392707 0.00122897 0)
(-0.00221852 -0.00612455 0)
(-0.00151932 -0.00446068 0)
(-0.00256678 -0.00402688 0)
(-0.00300103 -0.00358099 0)
(-0.00229349 -0.00408719 0)
(-0.00391983 -0.00377894 0)
(-0.00146717 -0.00582521 0)
(-0.00385986 -0.00335922 0)
(0.00243661 -0.00642271 0)
(0.000647796 -0.0135816 0)
(0.00226787 -0.00472918 0)
(0.000560047 -0.00927063 0)
(-0.000948679 -0.0161556 0)
(-0.00947978 -0.00076666 0)
(-0.00289836 -0.0101828 0)
(-0.00614022 -0.000434535 0)
(-0.00436157 -0.00244352 0)
(-0.00496428 0.00279654 0)
(-0.00227323 -0.000813305 0)
(-0.00331732 -0.00314598 0)
(-0.00025527 0.00556892 0)
(-0.00137389 0.00807517 0)
(-0.000743537 -0.00152666 0)
(-0.000480471 0.00138018 0)
(6.61689e-05 0.00247898 0)
(-0.000381594 0.00270695 0)
(-0.00238131 0.00420588 0)
(-0.00471265 0.00762062 0)
(0.00286867 0.0062673 0)
(-0.00177144 0.00347364 0)
(-0.00241238 0.00204996 0)
(-0.00226318 0.000467254 0)
(-0.00228288 -0.000504348 0)
(-0.000658605 0.000437452 0)
(-0.00139652 -0.00018658 0)
(0.000490512 -0.000751816 0)
(-0.000353744 -0.00347666 0)
(-0.000657801 0.00494782 0)
(0.00423991 0.0041623 0)
(0.00505996 -0.00461955 0)
(-0.00128675 -0.00172126 0)
(0.00202605 -0.00357145 0)
(0.00339487 -0.00521568 0)
(0.000290382 -0.00761515 0)
(0.00102177 -0.00731255 0)
(0.00230686 -0.00600652 0)
(-0.00509478 -0.00815798 0)
(-0.00302807 -0.00945023 0)
(-0.0014238 -0.0110868 0)
(-0.00634518 -0.00204402 0)
(0.00404734 -0.00273126 0)
(0.00284924 -0.0154264 0)
(0.000201828 -0.0177767 0)
(0.00438895 -0.00859658 0)
(-0.00325703 -0.00575169 0)
(0.0010996 -0.0145168 0)
(-0.00116599 -0.0120041 0)
(-0.00287077 -0.0104322 0)
(-0.00457116 -0.0105646 0)
(-0.00600721 -0.00881954 0)
(0.00346886 -0.00893237 0)
(0.0038099 -0.0120519 0)
(-0.000670989 -0.0124304 0)
(0.00457635 -0.0117809 0)
(0.000986013 -0.0115157 0)
(0.00381578 -0.0112961 0)
(0.00199076 -0.0111486 0)
(0.00176892 -0.00949358 0)
(0.00090063 -0.0103035 0)
(-0.00120874 -0.00692691 0)
(0.000505439 -0.00703319 0)
(-0.00180769 -0.00497726 0)
(-0.000110222 -0.00424312 0)
(0.000464162 -0.00407094 0)
(-0.00811687 -0.00151321 0)
(-0.00228894 -0.00340191 0)
(-0.00347031 -0.00716282 0)
(-0.00201322 -0.00853545 0)
(-0.00309531 -0.006802 0)
(-0.00337039 -0.008474 0)
(-0.00500285 -0.00775378 0)
(0.0020205 -0.0115481 0)
(-0.000400071 -0.00701061 0)
(0.00316974 -0.010441 0)
(0.00870858 -0.0175297 0)
(0.00575854 -0.0141756 0)
(0.00308508 -0.0187004 0)
(0.00158574 -0.00841926 0)
(-0.00741793 -0.00181386 0)
(-0.00154989 -0.00352358 0)
(-0.00599089 -0.00144151 0)
(-0.00522438 -0.00227506 0)
(-0.0078959 7.77792e-05 0)
(0.000890799 -0.000230672 0)
(-0.000331672 -0.000156504 0)
(0.00141542 0.00354217 0)
(-0.00618515 0.00548126 0)
(-0.00212142 0.0038724 0)
(-0.00159285 0.00454807 0)
(-4.98012e-05 0.00254588 0)
(-1.78215e-05 0.000931469 0)
(0.00106732 -0.000859251 0)
(0.000744383 0.00792174 0)
(-0.00155719 0.00677307 0)
(-0.0018282 -0.00349133 0)
(-0.00104616 -0.00292017 0)
(-0.00106672 -0.00380308 0)
(-0.003356 -0.00372531 0)
(-0.00650146 -0.0030745 0)
(0.0023912 -0.00326063 0)
(-0.000711025 -0.00594116 0)
(0.00145208 -0.0113877 0)
(0.00724048 -0.00405004 0)
(9.26227e-05 -0.00454849 0)
(0.00011815 -0.0115414 0)
(-0.000987774 -0.00921844 0)
(0.00193395 -0.0109857 0)
(0.000528833 -0.0115812 0)
(0.000137781 -0.0122465 0)
(0.00102575 -0.011776 0)
(0.000169879 -0.00996247 0)
(-0.00101111 -0.00616059 0)
(0.000414887 -0.0105005 0)
(0.001222 -0.0146085 0)
(0.00476895 -0.000823184 0)
(-0.00160461 -0.00264333 0)
(0.00101422 -0.0150499 0)
(0.00209668 -0.00912101 0)
(0.00596306 -0.00826313 0)
(-0.00415217 -0.00760954 0)
(-0.00170631 -0.00816751 0)
(-0.00258753 -0.0131551 0)
(-0.00270853 -0.0117362 0)
(-0.00535108 -0.0122824 0)
(-0.000786623 -0.00384528 0)
(0.000379592 -0.0041865 0)
(-0.000261746 -0.0148334 0)
(-0.000592356 -0.00985697 0)
(0.00224659 -0.00985423 0)
(0.00211105 -0.0100841 0)
(0.000910144 -0.00710154 0)
(0.0019858 -0.00745266 0)
(0.00112514 -0.00540116 0)
(0.000713695 -0.00755195 0)
(-0.0003844 -0.00508854 0)
(-0.000350214 -0.00444411 0)
(-0.00232828 -0.00957892 0)
(0.000724076 -0.00967161 0)
(-0.00195888 -0.0132343 0)
(-0.00460729 -0.0143593 0)
(-0.00241333 -0.0186666 0)
(-0.00204701 -0.0207167 0)
(0.00222325 -0.017346 0)
(0.00071413 -0.0187292 0)
(0.000129468 -0.0198822 0)
(0.00142453 -0.0122922 0)
(-0.00257715 -0.0150114 0)
(-0.00255189 -0.0150062 0)
(0.00114849 -0.0111719 0)
(0.0109615 -0.0234413 0)
(0.00365782 -0.0197064 0)
(0.00289319 -0.0175098 0)
(0.00299794 -0.0194885 0)
(-0.00462306 -0.00540003 0)
(-0.00721744 -0.00272078 0)
(0.00024598 -0.00709245 0)
(-0.00462187 -0.00989602 0)
(-0.00443862 0.00155333 0)
(-0.00600789 0.00214347 0)
(-0.0051657 -0.00586789 0)
(-0.00570004 -0.00312456 0)
(-0.00208181 4.44268e-05 0)
(-0.00129344 -0.00191094 0)
(-0.00170859 -0.00141471 0)
(0.00122284 -0.00224361 0)
(-4.0434e-05 -0.00229312 0)
(0.00232246 -0.000709573 0)
(0.00569172 0.00188415 0)
(-0.00352123 0.00191017 0)
(-0.00664327 0.000714922 0)
(0.00372488 -0.0019189 0)
(-2.71311e-05 -0.00764776 0)
(-0.000489956 -0.0133092 0)
(0.00171364 -0.00408328 0)
(0.000797106 -0.00811787 0)
(-0.000114656 -0.015864 0)
(-0.0033194 -0.00851234 0)
(0.0103044 -0.00972053 0)
(0.00174434 -0.0145257 0)
(0.00247316 -0.0148687 0)
(-0.00171805 -0.0087535 0)
(0.00345648 -0.0082012 0)
(0.00247566 -0.011211 0)
(0.000509976 -0.0100562 0)
(-0.000340238 -0.00916977 0)
(-0.000103359 -0.00853318 0)
(-0.000754234 -0.00754385 0)
(-0.00224243 -0.00804249 0)
(0.00121463 -0.00772489 0)
(0.00368426 -0.00276995 0)
(-0.00417388 -0.00195786 0)
(-0.00058349 -0.00599074 0)
(-0.000225136 -0.00582157 0)
(-0.00100981 -0.00793044 0)
(0.00124725 -0.00591584 0)
(-0.00198542 -0.00616521 0)
(-0.00145879 -0.00744134 0)
(-0.000727491 -0.00943892 0)
(-5.73256e-05 -0.00854705 0)
(0.00451711 -0.00431851 0)
(-0.00501693 -0.00892673 0)
(-0.00271656 -0.0121353 0)
(0.00197363 -0.0094572 0)
(-0.000335223 -0.00793733 0)
(0.00169996 -0.00953878 0)
(0.000851256 -0.00662691 0)
(0.000456626 -0.00416433 0)
(0.000646414 -0.00421628 0)
(0.000412318 -0.00486577 0)
(0.00292842 -0.00450515 0)
(-0.000874052 -0.00724981 0)
(0.00111232 -0.00608368 0)
(0.00308537 -0.00817157 0)
(0.00308974 -0.0173896 0)
(0.00223182 -0.0151443 0)
(-0.000322488 -0.0203208 0)
(-0.00198162 -0.0257652 0)
(-0.00175196 -0.0270556 0)
(-0.00457954 -0.0275547 0)
(0.0019147 -0.0220709 0)
(0.00753993 -0.020916 0)
(0.000148785 -0.0224423 0)
(0.00681435 -0.010047 0)
(-0.00120903 -0.00145982 0)
(-0.00124546 -0.0144612 0)
(0.00177533 -0.0182312 0)
(-0.0018083 -0.0138491 0)
(0.0029868 -0.0150799 0)
(0.00266342 -0.0130522 0)
(-0.00396618 -0.00860995 0)
(-0.0020835 -0.00198723 0)
(-0.00338548 -0.00983385 0)
(-0.00252301 -0.00396383 0)
(-0.00975051 -0.00791366 0)
(-0.00776379 -0.0135745 0)
(-0.001392 -0.0124133 0)
(-0.00156057 -0.0119474 0)
(-0.00195072 -0.0145999 0)
(-0.0009647 -0.0104357 0)
(-0.000721406 -0.0103601 0)
(-0.000458332 -0.0142797 0)
(0.000166736 -0.0131839 0)
(0.000991859 -0.0143473 0)
(0.000566886 -0.0191047 0)
(0.00296723 -0.00932533 0)
(0.00305884 -0.0110353 0)
(0.00288419 -0.0256144 0)
(0.00327926 -0.0189802 0)
(0.00514083 -0.0141991 0)
(-0.00333693 -0.0150102 0)
(-0.000766914 -0.0157827 0)
(-0.00540469 -0.00283533 0)
(0.00561724 0.000194324 0)
(0.00169723 -0.0123734 0)
(0.000976946 -0.0125924 0)
(0.00076134 -0.00391171 0)
(-0.000492306 -0.00232071 0)
(-0.0013591 -0.00960701 0)
(-0.000877767 -0.0108785 0)
(-0.00313688 -0.00781504 0)
(-0.0034502 -0.00718373 0)
(8.64381e-05 -0.00556855 0)
(0.000524138 -0.00756309 0)
(0.00197321 -0.00625805 0)
(0.000268397 -0.00519264 0)
(0.000215089 -0.00640221 0)
(0.000105994 -0.00785787 0)
(-0.000552003 -0.00682833 0)
(-0.000512469 -0.00505449 0)
(0.000653651 -0.00601883 0)
(-0.00106976 -0.00757382 0)
(0.00152944 -0.00869922 0)
(-0.000781793 -0.00735698 0)
(0.0022729 -0.00637357 0)
(-0.00397907 -0.00799251 0)
(-0.000411124 -0.00917926 0)
(-0.00245723 -0.00673881 0)
(0.000159479 -0.00502415 0)
(-0.000929894 -0.00767519 0)
(8.22234e-05 -0.00539237 0)
(-0.000595388 -0.00566669 0)
(-0.00137532 -0.0044044 0)
(-0.000206269 -0.00220321 0)
(-0.000274599 -0.00291468 0)
(0.00249286 -0.00154307 0)
(-0.000503534 -0.00190418 0)
(0.00194536 0.000631324 0)
(0.00571613 7.33854e-05 0)
(0.0052838 -0.00198628 0)
(0.00663135 -0.000331126 0)
(0.00256637 -0.00296227 0)
(0.00351293 -0.00649084 0)
(-0.000184162 -0.0108813 0)
(-0.000395293 -0.0162306 0)
(-0.000411641 -0.0163754 0)
(-0.000417372 -0.0214703 0)
(0.00308919 -0.0179479 0)
(0.00426654 -0.0147581 0)
(-0.00293628 -0.0134786 0)
(-0.00688046 -0.0118615 0)
(-0.00360182 -0.0137773 0)
(-0.00153234 -0.0153228 0)
(0.000931837 -0.0135273 0)
(0.00394128 -0.0102008 0)
(0.00282078 -0.0133373 0)
(-0.00577681 -0.000295203 0)
(-0.00364653 -0.00808855 0)
(-0.00352343 -0.00889694 0)
(-0.00222539 -0.0133146 0)
(-0.00248383 -0.0128639 0)
(-0.003713 -0.0132273 0)
(-0.00584985 -0.0162197 0)
(-0.00241124 -0.0150643 0)
(-0.000720161 -0.0115366 0)
(0.0024423 -0.0122983 0)
(0.00467343 -0.0128986 0)
(0.00333986 -0.013579 0)
(0.0030644 -0.0153205 0)
(0.00473637 -0.0128153 0)
(0.00792313 -0.0105662 0)
(-0.00344728 -0.0102896 0)
(-0.000471771 -0.0107042 0)
(0.00196997 -0.0112597 0)
(-0.00248397 -0.00966677 0)
(-0.00458776 -0.0110966 0)
(-0.00223911 -0.0136509 0)
(-0.000682543 0.00296215 0)
(0.00011489 0.00305303 0)
(-0.000127992 -0.012625 0)
(0.00119097 -0.0100035 0)
(0.00244342 -0.00552183 0)
(-0.00371772 -0.00597959 0)
(-0.00510719 -0.00827172 0)
(-0.000138035 -0.00770347 0)
(-0.00222529 -0.0100215 0)
(-0.00133668 -0.00562825 0)
(-0.00458952 -0.00219635 0)
(0.00423445 -0.00571318 0)
(-0.000370827 -0.00681765 0)
(0.000968648 -0.00565197 0)
(-0.00421202 -0.00418999 0)
(0.000163415 -0.00911254 0)
(0.000983003 -0.00816354 0)
(0.000409687 -0.00824685 0)
(0.000440544 -0.00926415 0)
(5.82757e-06 -0.00769728 0)
(-0.000387332 -0.00762138 0)
(4.51102e-05 -0.00696934 0)
(-0.00162566 -0.00862887 0)
(-0.00104812 -0.0058336 0)
(-0.00168804 -0.00556597 0)
(-0.000562486 -0.00890823 0)
(-0.001495 -0.00503932 0)
(-0.000405524 -0.00550325 0)
(-0.000895393 -0.00625664 0)
(-0.00133167 -0.00766804 0)
(-0.00029798 -0.0057591 0)
(-0.00219811 -0.00578982 0)
(-0.00293238 -0.00626375 0)
(0.00357752 -0.00587636 0)
(0.00213594 -0.00709195 0)
(0.00258101 0.0026392 0)
(0.00210106 0.000583358 0)
(0.00299596 -0.00676594 0)
(0.00269336 -0.00324218 0)
(0.00147763 -0.00336919 0)
(0.00460849 -0.00138901 0)
(0.00330831 -0.00252454 0)
(0.00747443 -0.00216029 0)
(0.00503276 -0.00297564 0)
(0.00320524 -0.00543767 0)
(0.00310625 -0.0072807 0)
(0.00123424 -0.00690179 0)
(0.00094678 -0.00347991 0)
(-0.000559039 -0.0100636 0)
(-0.00186847 -0.0116886 0)
(-0.00265037 -0.0115698 0)
(-0.00124123 -0.0150859 0)
(-0.00411689 -0.00523098 0)
(0.00294863 -0.0100402 0)
(0.000429917 -0.00804668 0)
(-0.00133523 -0.0125093 0)
(-0.00175379 -0.0108292 0)
(-0.00263868 -0.0112607 0)
(-0.0023492 -0.0140725 0)
(-0.00506577 -0.014964 0)
(-0.00245092 -0.0132906 0)
(-0.00187363 -0.0161873 0)
(-0.00123145 -0.015544 0)
(-0.000522407 -0.013224 0)
(0.00159749 -0.0164502 0)
(0.00147663 -0.0131323 0)
(0.00322159 -0.0102446 0)
(0.00329571 -0.00929827 0)
(0.00214201 -0.00907374 0)
(7.1455e-05 -0.00872825 0)
(9.01053e-05 -0.00757078 0)
(0.00114427 -0.006526 0)
(0.00187731 -0.00836443 0)
(0.0013207 -0.00595838 0)
(0.00337332 -0.00699327 0)
(0.00547715 0.00297031 0)
(-0.00559517 0.00418096 0)
(-0.00372579 -0.00711484 0)
(-0.00216954 -0.00506489 0)
(-0.0020341 -0.00334815 0)
(-0.00347521 -0.00416333 0)
(-0.00220096 -0.00191875 0)
(-0.00214776 -0.00359757 0)
(-0.00128343 -0.00659498 0)
(0.000389531 -0.00619938 0)
(-0.00292782 0.00351088 0)
(-0.000293895 0.00257857 0)
(-0.000577248 -0.004329 0)
(0.00247953 -0.00482863 0)
(-0.000747788 -0.00776574 0)
(0.000500453 -0.00627083 0)
(0.000505618 -0.0109262 0)
(-0.000953575 -0.00970419 0)
(0.000889759 -0.00944479 0)
(-0.000412729 -0.00893347 0)
(-0.00173573 -0.00757951 0)
(0.000495282 -0.00858291 0)
(-0.00293309 -0.00679087 0)
(0.000491247 -0.00727918 0)
(-0.00320132 -0.0106391 0)
(-0.00324071 -0.00955789 0)
(0.00122816 -0.00762641 0)
(-0.000608243 -0.00909897 0)
(-0.000561667 -0.00885394 0)
(-0.000787503 -0.00685407 0)
(0.0030186 -0.00762546 0)
(-0.000781811 -0.00770273 0)
(0.0010845 0.00122299 0)
(0.000272735 0.00136497 0)
(0.00423175 -0.00556568 0)
(0.0039861 -0.00124712 0)
(-0.0022765 0.000558746 0)
(0.00082914 -0.000873324 0)
(0.00148025 -0.00229976 0)
(0.00169499 -0.000711697 0)
(0.000629405 -0.000870825 0)
(0.000673843 -0.000220931 0)
(0.00167912 0.00231082 0)
(0.00300047 0.00542713 0)
(0.00285828 0.00641684 0)
(0.00213592 0.00869538 0)
(0.0034327 0.0109598 0)
(0.000751856 0.0115942 0)
(-0.000687557 0.0103237 0)
(-0.00101141 0.00974562 0)
(-0.00135816 0.00908512 0)
(-0.000732087 -0.0140313 0)
(-2.74604e-05 -0.00302042 0)
(0.00199718 -0.00765247 0)
(0.00151187 -0.00187663 0)
(-0.00142051 -0.00714238 0)
(-0.00112999 -0.00411234 0)
(-0.00194425 -0.00589254 0)
(-0.0025716 -0.00641566 0)
(-0.00235671 -0.0066595 0)
(-0.000895448 -0.00789707 0)
(-0.00246743 -0.0104782 0)
(0.00131694 -0.00883394 0)
(-0.0017932 -0.00826109 0)
(-0.00155353 -0.00991079 0)
(0.000810466 -0.00841968 0)
(0.00182531 -0.00830555 0)
(0.001219 -0.00578564 0)
(0.00167589 -0.00531268 0)
(8.0774e-05 -0.00477811 0)
(-0.000124196 -0.00268692 0)
(-0.00221086 -0.00356997 0)
(-0.00211494 -0.000246386 0)
(4.78816e-05 0.00185042 0)
(-0.000847256 0.00346275 0)
(0.0022776 0.00882873 0)
(-0.00644395 0.0110297 0)
(-0.00484445 0.00616646 0)
(-0.00244851 0.00535759 0)
(-0.00224519 0.0045288 0)
(-0.00193026 0.00289345 0)
(-0.00121152 0.00158721 0)
(-0.000790063 0.000249585 0)
(7.02696e-05 0.000811038 0)
(0.00151016 0.00167283 0)
(0.00324442 0.00293288 0)
(-0.00411755 0.00155442 0)
(0.000469046 -0.000941869 0)
(-0.000909662 -0.00190584 0)
(0.00403409 -0.00170779 0)
(-0.000629741 -0.00331776 0)
(0.00177485 -0.0041549 0)
(0.000475075 -0.00289087 0)
(-0.000253418 -0.0036523 0)
(-0.00101906 -0.00465211 0)
(0.00112712 -0.00220298 0)
(0.000174457 -0.00436656 0)
(0.00104361 -0.00631893 0)
(-0.00225015 -0.00572557 0)
(-0.0018843 -0.0100623 0)
(0.00148727 -0.00626048 0)
(-0.000422731 -0.00554223 0)
(-0.000846739 -0.0111646 0)
(-0.000556326 -0.0103947 0)
(-0.000294356 -0.00716724 0)
(0.00053175 -0.00793634 0)
(0.000414471 -0.00830898 0)
(0.00301992 -0.00406759 0)
(-0.00481078 -0.00208502 0)
(-0.000375494 -0.00242783 0)
(-0.000185755 -0.00179538 0)
(0.000482491 -0.00145577 0)
(0.000978456 -0.000403048 0)
(0.00130496 -0.000389432 0)
(0.00131572 -0.00034905 0)
(0.00117925 -5.89545e-05 0)
(0.00151135 -0.000982776 0)
(0.000205754 -0.000318316 0)
(0.00155541 0.000875676 0)
(-0.000959658 0.00192026 0)
(-0.00133518 0.00450889 0)
(-0.0020885 0.00516917 0)
(0.0010097 0.00415276 0)
(-0.00119394 0.00304387 0)
(0.00129418 0.00243997 0)
(-0.000820212 -0.000562804 0)
(-0.000585661 -0.0152428 0)
(-0.00195361 0.000529023 0)
(-0.000885731 -0.00623285 0)
(0.000310389 0.00160934 0)
(-0.000774267 -0.00586025 0)
(0.000224521 -0.000400093 0)
(-0.00105645 -0.00146769 0)
(-0.0013274 -0.0040276 0)
(-0.00194069 -0.00426469 0)
(-0.0021936 -0.00371384 0)
(-0.00226254 -0.00431888 0)
(-2.35192e-05 -0.00370162 0)
(-0.000215428 -0.00682212 0)
(-0.000825946 -0.00530642 0)
(0.00121463 -0.00238844 0)
(0.00099394 -0.0028114 0)
(0.00100154 -0.00137364 0)
(-0.000562948 0.000298608 0)
(-1.90987e-05 -2.24664e-05 0)
(-0.00210376 0.00090347 0)
(-0.00210258 0.000555098 0)
(-0.00226423 0.00060531 0)
(-0.00300205 0.000406426 0)
(-0.00235031 0.000202318 0)
(-0.000628253 0.000367095 0)
(-0.00291463 -0.00148832 0)
(-0.00187871 -0.00374399 0)
(-0.000802061 -0.00364188 0)
(-0.00246181 -0.00321017 0)