/*--------------------------------*- C++ -*----------------------------------*\
  =========                 |
  \\      /  F ield         | OpenFOAM: The Open Source CFD Toolbox
   \\    /   O peration     | Website:  https://openfoam.org
    \\  /    A nd           | Version:  12
     \\/     M anipulation  |
\*---------------------------------------------------------------------------*/
FoamFile
{
    format      ascii;
    class       volVectorField;
    location    "0.95";
    object      U.water_0;
}
// * * * * * * * * * * * * * * * * * * * * * * * * * * * * * * * * * * * * * //

dimensions      [0 1 -1 0 0 0 0];

internalField   nonuniform List<vector> 
3750
(
(-0.0415527 -0.000619478 0)
(-0.00733096 0.00110355 0)
(-0.00180215 0.00031599 0)
(-0.00325193 0.00256179 0)
(-0.0033569 0.00536352 0)
(-0.00115351 0.00901808 0)
(-0.00170447 0.00955954 0)
(-8.91592e-05 0.0104445 0)
(-0.00040413 0.0116325 0)
(0.000208012 0.00987586 0)
(0.00018824 0.00829112 0)
(0.00210499 0.0085044 0)
(-0.00127884 0.00787355 0)
(0.000786674 0.00932726 0)
(2.32049e-06 0.00935377 0)
(0.000722064 0.00973428 0)
(0.000211024 0.0112669 0)
(-0.00050888 0.0121331 0)
(-0.000832631 0.00966018 0)
(0.000421076 0.00965983 0)
(-0.00137695 0.0106467 0)
(0.000356916 0.00974034 0)
(-0.000771072 0.0124845 0)
(-0.000715984 0.0111777 0)
(-0.00151775 0.0105042 0)
(0.000194846 0.00957433 0)
(0.000626121 0.011276 0)
(-0.00025169 0.0134849 0)
(0.000206416 0.0131124 0)
(0.000310561 0.01334 0)
(0.00117809 0.0149216 0)
(0.000750795 0.015476 0)
(0.00120132 0.0153101 0)
(-0.000609216 0.0164294 0)
(-0.00132759 0.0160205 0)
(-0.000269518 0.0165933 0)
(-0.000485131 0.0150985 0)
(-0.000785838 0.0178315 0)
(0.000738756 0.0167074 0)
(-0.00035033 0.0146454 0)
(-0.000141374 0.0159752 0)
(0.000215812 0.0141615 0)
(0.000726524 0.0156472 0)
(-0.00122611 0.0180534 0)
(0.000318165 0.0180554 0)
(0.000436047 0.0191921 0)
(0.000212814 0.0194011 0)
(0.00100085 0.0176298 0)
(0.00164367 0.0157562 0)
(0.000673695 0.0141378 0)
(-0.000794049 0.00959419 0)
(0.00237302 0.00341625 0)
(0.00397434 0.0160661 0)
(-0.00478149 0.0147202 0)
(-0.00215622 0.000832264 0)
(-0.00246848 0.00401989 0)
(-0.000700479 0.0073191 0)
(-0.00178465 0.0102234 0)
(-0.00234964 0.00819153 0)
(0.000309772 0.009313 0)
(0.000130108 0.0125682 0)
(-0.000374829 0.0103496 0)
(-0.000781317 0.009915 0)
(0.00018167 0.00986201 0)
(-0.00010586 0.0104963 0)
(-0.00103231 0.0101482 0)
(-0.00107001 0.00973949 0)
(-8.46066e-05 0.0111254 0)
(-0.000538669 0.0112973 0)
(0.000579466 0.0117356 0)
(3.06578e-05 0.0122354 0)
(-0.000163819 0.0103254 0)
(0.00172168 0.00995396 0)
(-0.000433151 0.0106293 0)
(0.00244707 0.00880545 0)
(-0.0233033 0.0334756 0)
(0.00485244 0.0245213 0)
(0.00296275 0.00167317 0)
(0.00367577 0.00364532 0)
(0.00194828 0.00234169 0)
(-0.000960889 0.00540888 0)
(-0.000724146 0.00122769 0)
(0.00118306 0.00398971 0)
(-0.00141433 0.00363831 0)
(-0.00130729 0.00370958 0)
(-0.00309551 0.00280864 0)
(0.000334412 0.00354814 0)
(0.000448155 0.00336666 0)
(0.000872477 0.00892874 0)
(-0.000184669 0.00853316 0)
(0.000684513 0.00827029 0)
(-0.000227508 0.00966661 0)
(0.000604328 0.0112732 0)
(-0.000940277 0.0110373 0)
(0.00118148 0.0108773 0)
(-0.000602415 0.0126338 0)
(-0.000121421 0.0128297 0)
(0.000268427 0.0118915 0)
(0.00062101 0.0118357 0)
(-0.000347082 0.0120287 0)
(0.000642682 0.00911247 0)
(-0.00160934 0.00754427 0)
(0.000102365 0.00895445 0)
(-0.00163389 0.0103652 0)
(-0.00300164 0.0106716 0)
(-0.00040132 0.0109556 0)
(-0.00226459 0.0114111 0)
(0.000967833 0.0121329 0)
(-0.000617963 0.0121079 0)
(0.00132339 0.0124564 0)
(-0.000649719 0.0106713 0)
(0.000517966 0.00651205 0)
(-0.00328173 0.0113829 0)
(0.00451983 0.0101551 0)
(0.000130463 0.00847727 0)
(-0.00103382 0.0104012 0)
(-0.000115689 0.012131 0)
(-0.00100457 0.0110082 0)
(-0.00135079 0.015295 0)
(-0.00167586 0.0206413 0)
(0.000136431 0.0207111 0)
(-0.000563291 0.0228396 0)
(0.00232246 0.024353 0)
(0.00188998 0.0255228 0)
(0.000365477 0.0261588 0)
(0.00756808 0.0252301 0)
(0.00769194 0.0214231 0)
(0.00633589 0.0218941 0)
(-0.0050153 0.0222645 0)
(-0.00252333 0.0166155 0)
(-0.00211801 0.015567 0)
(-0.000585927 0.0151837 0)
(-0.00208336 0.0116218 0)
(-0.00208884 0.0106162 0)
(0.000954068 0.0119908 0)
(0.00033025 0.0143083 0)
(0.00237069 0.0125886 0)
(0.000868485 0.00905182 0)
(0.00157824 0.00938417 0)
(6.68302e-05 0.00865099 0)
(-0.000856551 0.0083549 0)
(-0.0017378 0.00928832 0)
(-7.034e-05 0.00936001 0)
(-0.000579095 0.00991797 0)
(-0.000387942 0.0110066 0)
(-0.000187924 0.0105447 0)
(-0.00207172 0.010278 0)
(-0.000686568 0.0124614 0)
(0.000733628 0.0107885 0)
(0.00130269 0.0112456 0)
(0.0200404 -0.0460675 0)
(0.0133879 -0.0176911 0)
(-0.000339954 -0.019994 0)
(0.000717257 -0.006278 0)
(-0.00152258 -0.0114626 0)
(-0.00337924 -0.00717801 0)
(-0.000717928 -0.00424169 0)
(0.00129862 -0.00565351 0)
(0.000104017 -0.0068318 0)
(0.000107659 -0.00764037 0)
(-0.00046981 -0.007872 0)
(-0.00107293 -0.00715388 0)
(0.00115898 -0.0100543 0)
(-8.06004e-05 -0.0062406 0)
(-0.00440579 -0.00275263 0)
(0.00258428 -0.00235731 0)
(-0.0008431 -0.00093875 0)
(-0.00129055 -0.00175807 0)
(-0.0026031 -0.00249592 0)
(-0.000294991 -0.000522702 0)
(-0.00143961 0.00077959 0)
(-0.000351439 0.00206319 0)
(-0.00116229 0.00333866 0)
(-0.00336846 0.00259403 0)
(0.000501433 0.00350127 0)
(-0.000253079 0.000516781 0)
(0.00136841 0.00420522 0)
(0.00203008 0.00497296 0)
(0.00180313 0.000917431 0)
(-0.000724387 0.00390928 0)
(0.0010669 0.00249594 0)
(-0.00156897 0.00112551 0)
(7.55103e-05 0.000641957 0)
(9.01864e-05 0.00122331 0)
(0.00120419 0.00163894 0)
(-0.000410647 -0.00303087 0)
(0.00280422 -0.00565832 0)
(0.000477106 0.00391991 0)
(-0.00135261 0.00372128 0)
(-0.0019135 -0.00479806 0)
(-0.00253754 0.00213394 0)
(-0.00271289 0.00272127 0)
(-0.005596 0.00406931 0)
(-0.00310009 0.00453679 0)
(-0.00569406 0.00482512 0)
(-0.00355543 0.00650282 0)
(-0.000996786 0.0106013 0)
(0.000412918 0.0117347 0)
(0.00249698 0.00880241 0)
(0.00341949 0.0201859 0)
(0.000332702 0.0215118 0)
(0.00734594 0.0128726 0)
(0.00416172 0.0141513 0)
(-0.00149949 0.015064 0)
(-4.82046e-05 0.0117989 0)
(0.00019379 0.0114889 0)
(0.0016131 0.00825869 0)
(-0.00033832 0.00685513 0)
(-0.000846599 0.00732086 0)
(-0.00172826 0.00605373 0)
(-0.00113099 0.00743079 0)
(-0.000506222 0.00626012 0)
(0.00269168 0.00614114 0)
(0.00201804 0.00806569 0)
(-0.000271288 0.00659177 0)
(-0.0005348 0.00600492 0)
(-0.00260616 0.00572351 0)
(-0.000905081 0.00685138 0)
(-0.000953048 0.00665722 0)
(-0.00104157 0.00832474 0)
(-0.000477557 0.00854446 0)
(-4.62674e-05 0.00698683 0)
(-0.000758949 0.00772117 0)
(-0.000318683 0.00603022 0)
(0.000393199 0.00492946 0)
(-0.000345444 -0.0198034 0)
(-0.0045957 -0.0122823 0)
(0.00261187 -0.0111954 0)
(-0.00306981 -0.00507996 0)
(-0.00307252 -0.0105211 0)
(-0.00490829 -0.00447744 0)
(0.00343357 -0.00428682 0)
(0.00189388 -0.00745712 0)
(-0.00125904 -0.0108596 0)
(0.00098566 -0.00972878 0)
(0.000509433 -0.0101455 0)
(-0.00136221 -0.00698688 0)
(-0.00234404 -0.00844677 0)
(-0.00141757 -0.00922729 0)
(-0.00342793 0.00179627 0)
(-0.00200013 0.000952891 0)
(-0.00196069 -0.0073042 0)
(-0.00165933 -0.00612125 0)
(-0.00255645 -0.00458758 0)
(-0.00157167 -0.00417981 0)
(-0.00151139 -0.00305446 0)
(-0.00289516 -0.0013984 0)
(-0.000463449 -0.00764072 0)
(-0.0029788 -0.00391168 0)
(-0.00187761 -0.00424839 0)
(-0.00132305 -0.0089877 0)
(0.00251311 -0.00501131 0)
(-0.000159538 -0.00613446 0)
(0.0020938 -0.006848 0)
(-0.00194004 -0.00471675 0)
(0.000902808 -0.00464872 0)
(-0.00137356 -0.00620546 0)
(-0.000811998 -0.00748946 0)
(-0.00158029 -0.00905195 0)
(0.00298582 -0.00932102 0)
(0.00412537 -0.00678535 0)
(0.00554392 -0.00747868 0)
(0.00745127 -0.00181498 0)
(-0.00644015 -0.000864037 0)
(-0.00929327 -0.00296598 0)
(-0.00247496 -0.000554602 0)
(-0.00184359 -0.00113094 0)
(-0.00302091 -0.00288369 0)
(-0.00357754 -0.0029992 0)
(-0.00725345 -0.00489337 0)
(-0.00560461 -0.00345292 0)
(-0.0016134 -0.00371672 0)
(0.000874922 -0.00361604 0)
(0.00405614 -0.000835231 0)
(0.00855724 -0.0011439 0)
(0.000221829 0.0105056 0)
(0.00200045 0.00803246 0)
(0.00247042 -0.00271128 0)
(0.000271598 -0.000550904 0)
(-0.0043105 0.00168164 0)
(0.00529678 0.00135429 0)
(0.00225371 0.000617291 0)
(-0.00076202 -0.00136257 0)
(-0.000277858 -0.000146355 0)
(-0.00329593 -0.00206771 0)
(0.000899926 -0.00148411 0)
(0.000273569 -0.00116622 0)
(0.0032856 0.000538824 0)
(0.00164762 0.00132185 0)
(0.000912227 0.00103543 0)
(0.000303484 0.000239736 0)
(-0.000645558 -0.000776335 0)
(-0.00152403 -0.000795225 0)
(-0.00195636 -0.000303384 0)
(-0.00199601 0.00123847 0)
(-0.00143637 0.00242057 0)
(0.000736157 0.0029178 0)
(0.00173688 0.00470237 0)
(0.00153114 0.00389845 0)
(0.00169507 0.00230644 0)
(-0.0147804 -0.0183869 0)
(0.00172823 -0.0109819 0)
(0.000153229 -0.0138481 0)
(-0.00379113 -0.0056761 0)
(-0.000325153 -0.011534 0)
(-0.00185948 0.00308929 0)
(-0.000156987 0.00352562 0)
(-0.00122444 -0.00719197 0)
(-0.000299694 -0.0053759 0)
(-0.0007215 -0.00135695 0)
(0.000341526 -0.00532661 0)
(-0.000479551 -0.00105901 0)
(-0.000968434 -0.00296277 0)
(-0.00011143 -0.00209045 0)
(0.000937359 -0.00245098 0)
(-0.00583964 -0.00311182 0)
(-0.00372041 -0.00240284 0)
(-0.00344272 -0.00343242 0)
(-0.00205675 -0.00654179 0)
(-0.00210702 -0.00612646 0)
(-0.000914419 -0.00831278 0)
(-0.0029711 -0.00444737 0)
(-0.00102153 -0.0069948 0)
(0.000716619 -0.0133206 0)
(-0.00029659 -0.01154 0)
(-0.00039084 -0.0120262 0)
(0.00120307 -0.0104699 0)
(0.0018631 -0.00931957 0)
(0.0017194 -0.0118263 0)
(0.000964924 -0.00861928 0)
(-0.00100226 -0.00672468 0)
(-0.000302903 -0.00834021 0)
(0.000970058 -0.00562396 0)
(0.0030358 -0.00509911 0)
(0.00130177 -0.00298381 0)
(0.00102997 -0.00291728 0)
(-0.000733488 0.00302533 0)
(0.0026236 0.00473642 0)
(-0.00388375 0.00248553 0)
(-0.00502238 0.00657298 0)
(-0.00318907 0.0059324 0)
(-0.00542816 -0.0057178 0)
(-0.000465609 -0.0070543 0)
(-0.00103181 -0.00836457 0)
(-0.00295368 -0.00824673 0)
(-0.00294525 -0.0108113 0)
(-0.00347775 -0.0137666 0)
(0.000995054 -0.0139446 0)
(0.00126289 -0.0111013 0)
(0.00765379 -0.00729861 0)
(0.00753896 -0.0047997 0)
(-9.75127e-05 -0.00375844 0)
(0.00140014 -0.00767019 0)
(0.00204603 -0.0103243 0)
(0.000130925 -0.00239838 0)
(0.00281243 -0.000633756 0)
(-0.00119368 -0.0121364 0)
(0.000732251 -0.00829617 0)
(-0.000783082 -0.0106951 0)
(0.000794073 -0.0118566 0)
(-0.000783594 -0.00990377 0)
(-0.000640829 -0.00936069 0)
(-0.00056884 -0.00579101 0)
(0.000642139 -0.00391595 0)
(0.00261365 -0.00182869 0)
(0.000123481 -0.00144589 0)
(-0.000312892 -0.000619211 0)
(-0.00262361 0.000535334 0)
(-0.00339 0.00107057 0)
(-0.00365398 0.00218554 0)
(-0.00264268 0.00315421 0)
(-0.00105544 0.00169309 0)
(0.000166935 0.00364884 0)
(-0.000153825 0.00332925 0)
(-0.000421278 0.00408503 0)
(-0.0047849 -0.0115021 0)
(-0.0066008 -0.00176807 0)
(-0.00483469 -0.00566138 0)
(-0.00419895 -0.00228807 0)
(-0.0021071 -0.00625608 0)
(-0.00074742 -0.000583286 0)
(-0.00649478 -0.0007139 0)
(-0.00448301 -0.00156763 0)
(0.00154893 -0.00267353 0)
(-0.00126796 -0.00159014 0)
(0.00150131 -0.00111557 0)
(2.89669e-05 9.22035e-05 0)
(-0.000187426 -0.0012237 0)
(-0.00139738 -0.00305679 0)
(-0.00168049 -0.00288169 0)
(-0.00229001 -0.00445323 0)
(-0.00212139 -0.00744031 0)
(-0.00268214 -0.00793333 0)
(-0.00132933 -0.00693864 0)
(-0.00190333 -0.00813012 0)
(-0.000917357 -0.00860811 0)
(0.000965825 -0.0064252 0)
(-0.0017483 -0.00770114 0)
(0.000323876 -0.00455918 0)
(0.00139416 -0.00317312 0)
(-0.00072172 -0.00442714 0)
(0.00209037 -0.00115979 0)
(-0.00133502 -0.000944894 0)
(-0.00250327 -0.00105297 0)
(-0.000474412 0.000815446 0)
(-0.00338622 0.00177332 0)
(-0.00153784 0.00103265 0)
(-0.00222154 0.00107254 0)
(-2.5505e-05 0.0013314 0)
(-0.00382193 0.00404207 0)
(-0.00073897 0.0055634 0)
(-0.00321749 0.00891046 0)
(0.00636061 0.00759825 0)
(0.00204089 0.00236801 0)
(0.0036995 0.00261274 0)
(-0.000701638 -0.00306631 0)
(-0.0049112 -0.00367909 0)
(0.00449856 -0.00196287 0)
(0.00199714 -0.00914802 0)
(0.00186127 -0.013214 0)
(-0.00232451 -0.014355 0)
(-0.00224532 -0.0130595 0)
(-0.00211117 -0.0146219 0)
(0.00147438 -0.0116602 0)
(-0.0002176 -0.00854682 0)
(0.00473583 -0.00881635 0)
(0.00134485 -0.00521582 0)
(0.00381968 -0.0072064 0)
(0.00417549 -0.0068515 0)
(0.00628239 -0.00454916 0)
(-0.00195222 -0.00532232 0)
(-0.000363219 -0.00808702 0)
(0.000803405 -0.00755893 0)
(-0.00196421 -0.00893982 0)
(0.0018346 -0.00863467 0)
(-0.00389801 -0.00731511 0)
(-0.000514548 -0.0055344 0)
(-0.00298429 -0.00510115 0)
(-0.00125075 -0.00152491 0)
(-0.000486891 -0.000323057 0)
(-0.00230992 0.000761343 0)
(-0.00249641 0.00167216 0)
(-0.00297471 0.00260279 0)
(-0.00337544 0.00109129 0)
(-0.00335915 0.0017344 0)
(-0.00608276 0.00396427 0)
(0.00264693 0.00364649 0)
(-0.00085193 0.000668093 0)
(0.00163367 0.000952083 0)
(-0.00079462 0.000837428 0)
(-0.00233382 -0.0154295 0)
(-0.00247114 -0.00120551 0)
(0.000214705 -0.00853071 0)
(-0.00116368 -0.00283415 0)
(-0.00250522 -0.00474703 0)
(-0.00421973 -0.00134452 0)
(-0.00607576 -0.000947722 0)
(-0.00626688 -0.00091898 0)
(-0.00259213 -0.000126783 0)
(-0.00176726 0.00136856 0)
(0.000280842 0.000197165 0)
(0.00168393 0.00214778 0)
(0.00189019 0.00124102 0)
(0.00199417 0.00125095 0)
(0.00125921 0.000134573 0)
(-0.00100871 7.28614e-05 0)
(-0.00204869 -0.000114246 0)
(-0.00181594 -0.00142239 0)
(-0.00321519 -0.00257947 0)
(-0.00406686 -0.00137874 0)
(-0.00287562 -0.00192223 0)
(-0.00228987 -0.000217395 0)
(-0.00270618 -0.00098978 0)
(-0.000578107 0.00116935 0)
(-0.00131853 4.80012e-05 0)
(0.000256514 0.00114951 0)
(-0.000889042 0.00305959 0)
(-0.00134832 -0.000454045 0)
(-0.00103241 0.000968787 0)
(-0.000144808 -0.00149764 0)
(-0.000291819 -0.00601486 0)
(-0.00071964 -0.00864049 0)
(-0.0012269 -0.00867701 0)
(1.5985e-05 -0.0116368 0)
(-0.000785933 -0.012143 0)
(-0.0028815 -0.0118115 0)
(0.00438989 -0.000228437 0)
(0.0017521 -0.00185102 0)
(0.0015232 -0.0142168 0)
(0.0002393 -0.00712253 0)
(-0.00146326 -0.00801341 0)
(0.00153526 -0.00183582 0)
(-0.00126961 -0.00161675 0)
(0.00170253 -0.0109771 0)
(-0.000904643 -0.0107899 0)
(-0.00163464 -0.00993876 0)
(-0.00217486 -0.0100005 0)
(-0.00287684 -0.0107974 0)
(-7.14727e-05 -0.0103648 0)
(7.61324e-05 -0.0094388 0)
(0.000985397 -0.00720821 0)
(0.00087266 -0.00772346 0)
(0.000567529 -0.00672096 0)
(0.00329812 -0.0105601 0)
(0.00236983 -0.00861747 0)
(0.00102789 -0.00839745 0)
(0.000515126 -0.00962708 0)
(-0.000371661 -0.00975148 0)
(0.000471945 -0.00762838 0)
(-0.00186684 -0.00825842 0)
(-0.000904088 -0.00574851 0)
(-0.00389228 -0.00346066 0)
(-0.00720686 -0.00440721 0)
(-0.000980914 -0.000838644 0)
(-0.000178261 -0.00285708 0)
(-0.00195142 -0.00384716 0)
(-0.002166 -0.00337969 0)
(-0.000891457 -0.00447045 0)
(-0.00210709 -0.00568267 0)
(-0.00140776 -0.00786055 0)
(-0.00376505 0.000700791 0)
(-8.16257e-05 -0.00279566 0)
(-0.00222337 -0.0115367 0)
(1.58404e-05 -0.0104172 0)
(0.00141385 -0.0149579 0)
(-0.0015953 -0.0175665 0)
(-0.011018 -0.00139682 0)
(-0.00340156 -0.0114317 0)
(-0.00729009 -0.000904576 0)
(-0.00415685 -0.00206457 0)
(-0.00418203 0.00303068 0)
(-0.00432195 -6.86233e-05 0)
(-0.00580849 0.000528166 0)
(-0.00135292 -0.000660435 0)
(-0.00215637 0.00100256 0)
(-0.000228972 0.00148428 0)
(0.000661702 0.00242684 0)
(0.000232562 0.00326835 0)
(0.000511622 0.00357835 0)
(-0.000724178 0.00480737 0)
(-0.000398778 0.00512311 0)
(-0.00142349 0.00226172 0)
(-0.00122232 0.00176216 0)
(-0.00195157 0.00134292 0)
(-0.00180401 0.000210968 0)
(-0.00163797 -0.00107405 0)
(-0.000356655 -0.000836948 0)
(-0.00358978 -0.000277527 0)
(-0.000814088 0.000559278 0)
(0.000140186 -0.000338213 0)
(1.7475e-06 -0.00192156 0)
(0.00158716 -0.00234498 0)
(0.000624211 -0.00278522 0)
(0.00437753 -0.00459675 0)
(0.00143513 -0.00628497 0)
(0.00209051 -0.00729098 0)
(0.000889836 -0.00882182 0)
(0.00104975 -0.00740874 0)
(0.000362506 -0.0100926 0)
(0.00131518 -0.0138947 0)
(0.00188733 -0.00433364 0)
(0.00416072 0.000221411 0)
(-0.00425822 -0.00923174 0)
(-0.000910552 -0.013631 0)
(-1.35267e-05 -0.0121343 0)
(-0.0032689 -0.0101616 0)
(0.00642491 -0.00761995 0)
(-0.00769437 -0.00481938 0)
(0.00309181 -0.00837763 0)
(8.78723e-05 -0.0121171 0)
(-0.00181521 -0.0111158 0)
(-0.00276921 -0.0112788 0)
(-0.00209157 -0.0115757 0)
(-0.000303493 -0.010566 0)
(0.00292629 -0.0114326 0)
(0.000547602 -0.0113878 0)
(0.00562873 -0.00979204 0)
(0.00133399 -0.0101204 0)
(0.00380168 -0.0106593 0)
(0.00149627 -0.0108748 0)
(0.000441758 -0.00959456 0)
(-0.00145975 -0.0104806 0)
(-0.0047434 -0.00525651 0)
(0.00199082 -0.00578617 0)
(-0.00153616 -0.00618281 0)
(-0.00141044 -0.00710027 0)
(-0.00484624 -0.010344 0)
(-0.00585111 -0.000679111 0)
(-0.00251695 0.00238452 0)
(-0.00494241 -0.00674493 0)
(-0.00087766 -0.00866388 0)
(-0.00206818 -0.00595546 0)
(-0.00148271 -0.00782416 0)
(5.81093e-05 -0.00992581 0)
(0.000694693 -0.0131603 0)
(0.00455906 -0.00735466 0)
(-0.00435357 -0.0114249 0)
(0.00253031 -0.01738 0)
(-0.00343817 -0.0133258 0)
(0.00925444 -0.0173824 0)
(0.00176344 -0.00881277 0)
(-0.00767293 -0.00199535 0)
(-0.00130707 -0.00513678 0)
(-0.00847868 -0.00151551 0)
(-0.00623782 -0.000397565 0)
(-0.00399543 -0.00122582 0)
(-0.00426435 -0.00218033 0)
(-0.00421296 0.00135609 0)
(-0.00406709 0.00236624 0)
(-0.00127061 0.00316727 0)
(0.000237706 0.00420697 0)
(-0.00136388 0.0048933 0)
(0.000341121 0.00336554 0)
(-0.000642901 0.00271978 0)
(0.0018945 0.00316509 0)
(0.00214072 0.00133321 0)
(-0.000362579 -0.0010365 0)
(-4.13335e-05 -0.0022244 0)
(-0.00118603 -0.00341289 0)
(-0.000724529 -0.00364946 0)
(-0.0018804 -0.00409363 0)
(-0.00309483 -0.00663006 0)
(-0.00279792 -0.00531799 0)
(-0.00504246 -0.00308207 0)
(0.00284848 -0.00974689 0)
(0.0015991 -0.00868213 0)
(0.00117837 -0.00883559 0)
(-0.00319078 -0.0108932 0)
(-0.00633555 -0.0119018 0)
(-0.00174806 -0.0153113 0)
(-0.00121179 -0.012984 0)
(-0.000248646 -0.0127141 0)
(0.00133717 -0.0115055 0)
(0.00111419 -0.0116619 0)
(0.00361066 -0.008449 0)
(0.00635991 -0.00759624 0)
(0.00102782 -0.00782873 0)
(-0.000746394 -0.00935247 0)
(0.00110413 -0.0133729 0)
(0.000951404 -0.0133146 0)
(0.000262456 -0.00229867 0)
(0.00176764 -0.00383169 0)
(-0.000271719 -0.00209347 0)
(-0.000705338 -0.00251172 0)
(-0.00254991 -0.0149695 0)
(-0.0028059 -0.01231 0)
(-0.0048141 -0.0103788 0)
(-0.00177449 -0.0108274 0)
(0.000192224 -0.00968448 0)
(-0.00106067 -0.01045 0)
(0.00130879 -0.00706008 0)
(0.00415137 -0.00808024 0)
(0.00301445 -0.0095296 0)
(0.00118498 -0.00705305 0)
(0.00208982 -0.00770825 0)
(0.000795288 -0.00630873 0)
(0.00031851 -0.00952695 0)
(-0.000857344 -0.000995505 0)
(-0.00120657 -0.000605486 0)
(-0.0033838 -0.0126108 0)
(-0.000801639 -0.0133345 0)
(-0.00262868 -0.0167477 0)
(-0.000923375 -0.0148092 0)
(-0.0065164 -0.01703 0)
(-0.007726 -0.0178354 0)
(0.00315678 -0.0145839 0)
(1.99247e-05 -0.0177827 0)
(0.00100149 -0.0162176 0)
(0.00126553 -0.0173352 0)
(-0.0029891 -0.0174645 0)
(0.00197249 -0.0173316 0)
(0.00386658 -0.0184129 0)
(0.00563679 -0.0233347 0)
(0.000631932 -0.0127893 0)
(0.00343407 -0.0119696 0)
(0.00228472 -0.0197891 0)
(-0.0061408 -0.00519536 0)
(-0.00329501 -0.00629056 0)
(-0.00562436 -0.00882239 0)
(-0.0101038 -0.00300528 0)
(-0.00425271 -0.00230153 0)
(-0.00658585 -0.00487826 0)
(-0.00728011 -0.00267595 0)
(-0.010562 -0.000629621 0)
(0.00149602 0.00105379 0)
(0.000920445 -0.0036422 0)
(-0.000719423 -0.00226476 0)
(0.000622254 -0.00235637 0)
(-0.00254526 -0.00099642 0)
(0.00323133 0.00181472 0)
(0.00330223 -0.000304599 0)
(0.00220573 -0.00165256 0)
(-0.00105841 -0.00226138 0)
(0.000518784 -0.00405504 0)
(-0.000759662 -0.00624499 0)
(0.000249562 -0.0107103 0)
(0.00123677 -0.0119286 0)
(0.00180115 -0.0160705 0)
(0.000709316 -0.0076355 0)
(0.000668884 -0.00655091 0)
(0.00217135 -0.0169349 0)
(-0.00131352 -0.0186123 0)
(-0.000547685 -0.0195813 0)
(-0.00485881 -0.012272 0)
(-0.00386829 -0.00719911 0)
(-7.50325e-05 -0.00994342 0)
(0.000174178 -0.00924615 0)
(-0.00015046 -0.00802934 0)
(0.000174718 -0.00839312 0)
(0.00350253 -0.0082261 0)
(0.00137061 -0.00790235 0)
(0.000928701 -0.00770151 0)
(-0.000903142 -0.00718074 0)
(0.000318152 -0.00725781 0)
(0.00150066 -0.00716193 0)
(0.000549671 -0.00244646 0)
(-0.00479338 -0.00142123 0)
(0.00597228 0.000394192 0)
(-0.00377882 -0.00363974 0)
(-0.0032224 -0.00863343 0)
(-0.00241359 -0.00954088 0)
(-0.00250889 -0.00996091 0)
(-0.000511123 -0.00784098 0)
(-0.000912772 -0.0103805 0)
(-0.00235983 -0.00949586 0)
(0.00633114 -0.00564872 0)
(0.00150057 -0.00698835 0)
(0.00219703 -0.00991877 0)
(0.0011384 -0.00685246 0)
(0.000705379 -0.00453317 0)
(0.00139019 -0.00483616 0)
(0.00197384 -0.00510947 0)
(0.00534299 -0.00329967 0)
(-0.00337993 -0.00650243 0)
(2.15322e-05 -0.00783104 0)
(0.00108917 -0.01053 0)
(0.00206931 -0.018563 0)
(0.00294823 -0.0176115 0)
(-0.00270497 -0.0238829 0)
(-0.00516708 -0.0197808 0)
(-0.00459148 -0.0222729 0)
(-0.00913672 -0.0269173 0)
(0.00171989 -0.0208954 0)
(0.00226007 -0.0243605 0)
(-0.00115049 -0.0194209 0)
(0.00581149 -0.00724706 0)
(0.00604314 -0.0122236 0)
(0.00173676 -0.0200007 0)
(0.00472431 -0.0115581 0)
(-0.00464668 -0.00934433 0)
(-0.00205924 -0.0158971 0)
(-0.00666374 -0.00762467 0)
(-0.00309843 -0.0154771 0)
(-0.00288532 -0.0114671 0)
(-0.00654996 -0.00177484 0)
(-0.008588 -0.000442113 0)
(-0.00687481 -0.0120543 0)
(-0.00689708 -0.0165299 0)
(-0.00405834 -0.00757095 0)
(-0.00201872 -0.00733979 0)
(0.000367858 -0.0168693 0)
(0.00152102 -0.0128183 0)
(-0.000893129 -0.0131473 0)
(-0.000764386 -0.0107842 0)
(0.000270571 -0.00905441 0)
(-0.000340549 -0.0160205 0)
(0.00117897 -0.0187338 0)
(0.00348265 -0.0170138 0)
(0.00315738 -0.0178232 0)
(0.0025328 -0.0215534 0)
(0.00219082 -0.0190814 0)
(0.0016457 -0.017658 0)
(0.00285538 -0.0159579 0)
(0.00457721 -0.0100556 0)
(-0.00345813 -0.0101153 0)
(-0.00180291 -0.0116189 0)
(-0.00119031 -0.0115532 0)
(-0.000269364 -0.0119242 0)
(0.0026064 -0.01089 0)
(-0.00138675 -0.00617946 0)
(-0.00222773 -0.00413198 0)
(0.000218546 -0.00859621 0)
(-0.00256614 -0.00692298 0)
(-0.00411709 -0.00494439 0)
(0.00586348 -0.0044919 0)
(0.00287041 -0.00915915 0)
(0.00261928 -0.00785376 0)
(0.000277253 -0.00898865 0)
(0.00197565 -0.0104773 0)
(0.00249458 -0.00976185 0)
(0.00191629 -0.00604054 0)
(-0.000303399 0.00374533 0)
(0.00121835 0.000882957 0)
(-0.00308816 -0.00836964 0)
(-0.000159292 -0.010326 0)
(-0.00313874 -0.0085561 0)
(-0.00163388 -0.00778546 0)
(-0.00608453 -0.00851725 0)
(0.00439804 -0.00928882 0)
(0.00080021 -0.00204325 0)
(0.00096577 -0.000953944 0)
(-0.00153356 -0.00971598 0)
(-0.000754849 -0.00641198 0)
(-0.000995403 -0.00587363 0)
(-0.00100201 -0.00420363 0)
(0.00101081 -0.00180619 0)
(0.0020337 -0.0032038 0)
(0.00246016 -0.00173961 0)
(-0.00113498 -0.00156975 0)
(0.00447627 -0.00197177 0)
(0.000881282 -0.00361216 0)
(0.00353064 -0.00300631 0)
(0.00541961 -0.00226188 0)
(0.00340824 -0.0049252 0)
(0.00519894 -0.00393398 0)
(-0.00452371 -0.00925298 0)
(-0.00288015 -0.0118752 0)
(-0.00320392 -0.0133763 0)
(-0.0031472 -0.0276165 0)
(0.0012058 -0.0161736 0)
(-0.00254941 -0.00884574 0)
(-0.00259239 -0.0166355 0)
(-0.000396496 -0.0161081 0)
(-0.00148439 -0.0131718 0)
(-0.00354383 -0.0134061 0)
(-0.00329895 -0.0179279 0)
(0.00011421 -0.00230237 0)
(-0.00425663 -0.0101938 0)
(-0.00250291 -0.00597308 0)
(-0.00224631 -0.00666492 0)
(-0.00767341 -0.00664199 0)
(-0.00231588 -0.0131937 0)
(-0.000400185 -0.0149933 0)
(-0.00159361 -0.0121466 0)
(-0.0104286 -0.0103839 0)
(0.000182194 -0.0137679 0)
(0.00163397 -0.015051 0)
(0.0028638 -0.0151641 0)
(0.00645688 -0.0112903 0)
(0.000438563 -0.0119485 0)
(0.000423894 -0.0169591 0)
(0.00261602 -0.0145464 0)
(0.0035691 -0.0140956 0)
(-0.000136803 -0.0133575 0)
(-8.18552e-05 -0.0105428 0)
(0.000742487 -0.0119857 0)
(-0.00251028 -0.0102867 0)
(-0.00265152 -0.00997525 0)
(-0.00077266 -0.0100551 0)
(-0.00151655 -0.00801495 0)
(-0.00103493 -0.00911238 0)
(-0.000471681 -0.010569 0)
(0.00118218 -0.0100207 0)
(0.00131533 -0.00857535 0)
(-4.52099e-05 -0.0077503 0)
(-0.00512784 -0.00509293 0)
(0.00387774 -0.00545129 0)
(0.000750434 -0.0106274 0)
(0.00203173 4.1734e-05 0)
(0.00107312 5.10474e-05 0)
(0.00231617 -0.0107374 0)
(-0.000156163 -0.00913138 0)
(0.00138783 -0.00877952 0)
(-0.00225621 -0.00717646 0)
(0.00166957 -0.00962656 0)
(0.00441181 -0.00700013 0)
(0.00348541 -0.00363352 0)
(-0.00210653 -0.00514513 0)
(-0.00170736 -0.00739969 0)
(-0.00133996 -0.00915133 0)
(-0.001527 -0.00935997 0)
(-0.00526037 -0.00995451 0)
(0.00175243 -0.000338685 0)
(0.00210679 -0.00183611 0)
(0.00334836 -0.0102303 0)
(-0.00469857 -0.00502086 0)
(-0.00319669 -0.00623732 0)
(-0.00335814 -0.00642281 0)
(-0.00297427 -0.00658833 0)
(0.00120326 -0.00433512 0)
(-0.000393026 -0.00443332 0)
(0.00204424 -0.00778885 0)
(0.000113157 -0.00765686 0)
(0.00105434 -0.00387308 0)
(0.00146311 -0.00338753 0)
(0.00113987 -0.00620936 0)
(0.00363202 -0.00447903 0)
(0.0029706 -0.00351467 0)
(0.00304501 -0.0039348 0)
(0.00666692 -0.000988855 0)
(0.00255304 -0.00158277 0)
(0.00834935 7.63847e-05 0)
(0.00109353 -0.00231042 0)
(0.00158297 -0.00782431 0)
(0.00463286 -0.00831435 0)
(-0.00328884 -0.00178512 0)
(-0.00213663 -0.00117336 0)
(-0.000888298 -0.0138106 0)
(-0.00376664 -0.0135325 0)
(-0.00586079 -0.00881649 0)
(-0.00236179 -0.0154553 0)
(-0.00181749 -0.0033996 0)
(-0.00382284 -0.00919161 0)
(-0.000828982 -0.00945045 0)
(-0.00213564 -0.0119737 0)
(-0.0036461 -0.00870204 0)
(-0.00153737 -0.00938227 0)
(-0.000420494 -0.0148252 0)
(-0.00180735 -0.0171154 0)
(-0.00297983 -0.00747726 0)
(-0.00294443 -0.0114412 0)
(-0.00124209 -0.0200973 0)
(-0.000120133 -0.0166543 0)
(0.00203649 -0.0166991 0)
(-0.000993885 -0.0134652 0)
(0.000498849 -0.0111305 0)
(0.000997389 -0.010828 0)
(-5.52853e-05 -0.0113198 0)
(2.60001e-05 -0.0106298 0)
(-0.000191606 -0.00815109 0)
(0.000298078 -0.0071382 0)
(0.00196712 -0.00857844 0)
(0.00129266 -0.00520734 0)
(0.00184065 -0.00370079 0)
(0.000462227 -0.00688173 0)
(-0.000704564 -0.00714953 0)
(-0.00137899 -0.00518306 0)
(-0.000625169 -0.00519971 0)
(-0.000695234 -0.00676019 0)
(-0.00089442 -0.00686308 0)
(-0.000499941 0.00429597 0)
(-0.000460405 0.00146581 0)
(0.00138252 -0.00652675 0)
(0.00459339 -0.000956407 0)
(-0.00383717 -0.000590918 0)
(4.04195e-05 -0.00480096 0)
(0.000737294 -0.00350431 0)
(0.00288387 -0.00694757 0)
(0.00116833 -0.0107392 0)
(0.00208931 -0.00666277 0)
(0.00239595 -0.0085618 0)
(0.000418737 -0.00697436 0)
(0.000302072 -0.00700016 0)
(-0.000539298 -0.00815781 0)
(-0.00104144 -0.00908902 0)
(0.00121779 -0.0124952 0)
(-0.00104147 -0.00383551 0)
(0.00433655 -0.000145125 0)
(-0.00374035 -0.00940144 0)
(-0.00258099 -0.0122238 0)
(-0.00100353 -0.0102159 0)
(-0.0035777 -0.0104407 0)
(-0.00499878 -0.00861454 0)
(-0.00563047 -0.00304355 0)
(0.00441376 -0.00398538 0)
(0.000396576 -0.00383583 0)
(0.00172076 -0.00432271 0)
(0.000739581 -0.00491774 0)
(0.00405192 -0.00280623 0)
(0.00057498 -0.00372971 0)
(0.00189927 -0.00138265 0)
(0.00243788 -0.000735332 0)
(0.00245405 -0.00337863 0)
(0.00313812 -0.000957358 0)
(0.00189103 -0.000851889 0)
(0.00143113 -6.75457e-05 0)
(0.00167214 0.00294653 0)
(0.0012487 0.00548879 0)
(0.00214604 0.00569672 0)
(0.00306094 0.00796495 0)
(0.00385342 0.0125173 0)
(-0.0040421 0.012388 0)
(-0.00303329 0.00742575 0)
(-0.00220519 0.00764251 0)
(-0.00167254 0.0160581 0)
(-0.00209573 -0.0147476 0)
(-0.000901414 -0.00280961 0)
(-0.000497687 -0.00796626 0)
(-0.000889742 -0.00269187 0)
(-0.00459695 -0.00637516 0)
(-0.00468091 -0.0001333 0)
(0.000643719 -0.00198389 0)
(0.000698066 -0.00644182 0)
(0.00101336 -0.00792585 0)
(0.00238493 -0.00630983 0)
(-0.00506858 -0.00867623 0)
(-0.000137958 -0.0108413 0)
(-0.00113073 -0.0106371 0)
(-0.00208486 -0.0112357 0)
(-0.00113852 -0.0099801 0)
(5.36603e-05 -0.00987861 0)
(-0.00100306 -0.00706231 0)
(-8.4097e-05 -0.00660653 0)
(-0.000837654 -0.00589426 0)
(-0.000887067 -0.00334495 0)
(-0.00306881 -0.00396844 0)
(-0.00260229 -7.06594e-05 0)
(-0.000886726 0.0013059 0)
(-0.00263632 0.00193898 0)
(-0.00312786 0.0043014 0)
(-0.000771743 0.00637983 0)
(-0.0017573 0.00492491 0)
(-0.000195152 0.00438136 0)
(3.90242e-05 0.00255421 0)
(0.00273218 0.00150551 0)
(0.00224002 0.00411407 0)
(-0.00296238 0.00353213 0)
(-0.000783647 0.00274255 0)
(0.00252019 0.00349372 0)
(0.000138673 0.00140849 0)
(0.000511696 -0.00128431 0)
(0.00242854 -0.00319415 0)
(-0.000251786 -0.00449313 0)
(0.00516758 -0.00345126 0)
(0.00132992 -0.00385958 0)
(0.00257049 -0.00313377 0)
(-0.000481774 -0.000683652 0)
(-0.000679101 -0.0010248 0)
(0.000893286 -0.00307493 0)
(0.00339444 -0.00269383 0)
(0.00327406 -0.00574388 0)
(0.00578545 -0.00444763 0)
(-0.00250398 -0.00263884 0)
(-0.00263086 -0.00945979 0)
(-0.000883464 -0.00918691 0)
(-0.00232432 -0.00931213 0)
(-0.00353224 -0.0141033 0)
(-0.00475552 -0.0125608 0)
(-0.00559059 -0.000180286 0)
(-0.00287716 -0.00110479 0)
(0.000135208 -0.00776849 0)
(0.000261628 -0.00628182 0)
(-0.000122232 -0.00468128 0)
(0.000975962 -0.00315648 0)
(0.000103291 -0.00349063 0)
(0.00270252 -0.00320436 0)
(0.00177183 -0.0013009 0)
(0.00221507 -0.000921551 0)
(0.00254276 -0.000612857 0)
(0.00217517 -0.000300205 0)
(0.00231381 -0.00125964 0)
(0.000446949 -0.000628546 0)
(0.000572692 0.00065541 0)
(-0.00159091 0.00210599 0)
(-0.000590935 0.00460947 0)
(-0.000832251 0.00435759 0)
(-0.00277218 0.00363459 0)
(-0.0041722 0.00279926 0)
(0.00162119 0.00283656 0)
(0.0027779 0.00345438 0)
(-0.00149424 -0.0155291 0)
(-0.00262586 0.000641954 0)
(-0.00276701 -0.00754764 0)
(-0.00182439 -0.000694242 0)
(-0.00363454 -0.0065074 0)
(-0.00208266 0.00773055 0)
(0.000519552 0.00683661 0)
(0.00125076 -0.00401965 0)
(0.000596324 -0.00620519 0)
(8.20217e-05 -0.00423655 0)
(-0.00247743 -0.00433851 0)
(-0.000729251 -0.00501957 0)
(-0.000426591 -0.00933029 0)
(-0.00213438 -0.00819599 0)
(-1.52097e-05 -0.00392875 0)
(-0.000970427 -0.00397707 0)
(-0.00120377 -0.00295677 0)
(-0.00225463 -0.000695501 0)
(-0.0013516 -0.000946305 0)
(-0.00366918 0.000373475 0)
(-0.00271567 0.000283634 0)
(-0.00334217 0.000385052 0)
(-0.0045065 -0.000202006 0)
(-0.00324223 -0.00113885 0)
(-0.00133093 -0.00203016 0)
(-0.000656092 -0.00414529 0)
(0.000424392 -0.0053548 0)
(0.00143079 -0.00460845 0)
(0.000234344 -0.00433749 0)