/*--------------------------------*- C++ -*----------------------------------*\
  =========                 |
  \\      /  F ield         | OpenFOAM: The Open Source CFD Toolbox
   \\    /   O peration     | Website:  https://openfoam.org
    \\  /    A nd           | Version:  12
     \\/     M anipulation  |
\*---------------------------------------------------------------------------*/
FoamFile
{
    format      ascii;
    class       volVectorField::Internal;
    location    "0.5";
    object      cloud:UTrans;
}
// * * * * * * * * * * * * * * * * * * * * * * * * * * * * * * * * * * * * * //

dimensions      [1 1 -1 0 0 0 0];

value           nonuniform List<vector> 
3750
(
(0 0 0)
(-1.47828e-10 -2.15493e-09 0)
(-3.28605e-11 -1.98354e-09 0)
(-4.7531e-12 -6.38284e-10 0)
(-5.06795e-12 -6.33481e-10 0)
(-1.36786e-11 -1.92996e-09 0)
(3.63351e-11 -2.02872e-09 0)
(3.60623e-11 -1.96655e-09 0)
(1.02468e-10 -4.18342e-09 0)
(-8.27742e-12 -1.89886e-09 0)
(-1.06036e-10 -1.79932e-09 0)
(-2.57737e-11 -1.97179e-09 0)
(-1.04652e-11 -1.98325e-09 0)
(1.22241e-11 -2.01198e-09 0)
(9.95494e-11 -4.56707e-09 0)
(4.39748e-11 -1.96201e-09 0)
(4.55702e-12 -3.95817e-09 0)
(6.60618e-11 -1.67958e-09 0)
(2.9523e-11 -1.87827e-09 0)
(1.09272e-11 -1.95022e-09 0)
(1.86631e-11 -1.96999e-09 0)
(2.46721e-11 -2.05848e-09 0)
(-1.25369e-11 -2.05271e-09 0)
(4.35069e-12 -2.10288e-09 0)
(-7.42145e-11 -2.28534e-09 0)
(-2.10751e-10 -2.19715e-09 0)
(-1.18826e-10 -4.82757e-09 0)
(4.75333e-11 -1.98964e-09 0)
(4.47786e-11 -1.90266e-09 0)
(7.76414e-11 -1.98395e-09 0)
(0 0 0)
(6.69954e-11 -4.20262e-09 0)
(2.57274e-11 -4.63228e-10 0)
(2.03699e-10 -3.10449e-09 0)
(6.8671e-11 -1.98432e-09 0)
(1.60754e-10 -2.11267e-09 0)
(3.58214e-11 -1.79631e-09 0)
(0 0 0)
(3.1421e-11 -1.6073e-09 0)
(-2.37781e-11 -1.8542e-09 0)
(-1.71286e-12 -1.95856e-09 0)
(1.78308e-11 -1.88504e-09 0)
(3.51417e-11 -1.92112e-09 0)
(0 0 0)
(7.042e-11 -1.74525e-09 0)
(-1.13105e-10 -4.2906e-09 0)
(4.18053e-11 -2.00677e-09 0)
(-7.88663e-11 -1.87e-09 0)
(2.26855e-12 -1.92168e-09 0)
(-6.45155e-11 -2.60828e-09 0)
(-1.03038e-10 -4.32808e-09 0)
(0 0 0)
(1.2274e-11 -1.96102e-09 0)
(1.26579e-11 -2.03623e-09 0)
(-8.95643e-12 -2.00413e-09 0)
(-1.67913e-12 -2.07317e-10 0)
(3.35555e-13 -3.86474e-09 0)
(-4.29098e-11 -1.82004e-09 0)
(0 0 0)
(0 0 0)
(0 0 0)
(0 0 0)
(0 0 0)
(0 0 0)
(0 0 0)
(0 0 0)
(0 0 0)
(0 0 0)
(0 0 0)
(0 0 0)
(0 0 0)
(0 0 0)
(0 0 0)
(0 0 0)
(0 0 0)
(-1.27386e-10 -5.26048e-09 0)
(-7.2646e-11 -1.85255e-09 0)
(0 0 0)
(-4.04147e-12 -1.80272e-09 0)
(0 0 0)
(1.91912e-11 -1.82945e-09 0)
(1.00843e-10 -2.04489e-09 0)
(-4.45287e-11 -1.94122e-09 0)
(-6.26098e-11 -1.98891e-09 0)
(-1.1954e-10 -5.02782e-09 0)
(0 0 0)
(0 0 0)
(3.68344e-12 -1.97293e-09 0)
(-5.27099e-11 -1.93435e-09 0)
(1.36109e-10 -1.61423e-09 0)
(2.26018e-11 -1.79082e-09 0)
(-5.98189e-11 -1.78168e-09 0)
(-3.11535e-11 -4.04141e-09 0)
(-2.588e-10 -3.87758e-09 0)
(-1.40088e-10 -4.03899e-09 0)
(-2.93489e-11 -1.91481e-09 0)
(5.33417e-12 -2.02776e-09 0)
(0 0 0)
(0 0 0)
(-7.74828e-11 -2.25997e-09 0)
(0 0 0)
(-7.99495e-12 -2.03557e-09 0)
(2.0234e-11 -2.11827e-09 0)
(8.20113e-11 -1.92949e-09 0)
(4.4555e-11 -1.87354e-09 0)
(2.55737e-11 -4.76807e-09 0)
(3.52868e-11 -1.67653e-09 0)
(0 0 0)
(0 0 0)
(-7.1527e-11 -1.84792e-09 0)
(-4.10563e-11 -4.48931e-09 0)
(-3.37588e-10 -4.0356e-09 0)
(-3.26689e-10 -6.43879e-09 0)
(-1.93891e-10 -1.676e-09 0)
(-2.63072e-11 -1.67058e-09 0)
(-1.6213e-12 -1.97506e-09 0)
(0 0 0)
(0 0 0)
(-2.03629e-11 -2.14577e-09 0)
(1.01783e-10 -4.01686e-09 0)
(0 0 0)
(-8.3531e-11 -1.66089e-09 0)
(2.97469e-12 -2.08129e-09 0)
(-2.71611e-11 -1.96221e-09 0)
(-6.92327e-11 -1.96844e-09 0)
(-9.1835e-11 -2.03307e-09 0)
(5.6569e-11 -2.02274e-09 0)
(2.34785e-11 -1.79572e-09 0)
(0 0 0)
(0 0 0)
(0 0 0)
(0 0 0)
(0 0 0)
(0 0 0)
(0 0 0)
(0 0 0)
(0 0 0)
(0 0 0)
(0 0 0)
(0 0 0)
(0 0 0)
(0 0 0)
(0 0 0)
(0 0 0)
(0 0 0)
(0 0 0)
(0 0 0)
(0 0 0)
(0 0 0)
(0 0 0)
(5.80765e-12 -2.05755e-09 0)
(9.24059e-11 -1.74145e-09 0)
(4.50724e-11 -1.64588e-09 0)
(7.58433e-12 -1.609e-09 0)
(1.78425e-11 -1.9105e-09 0)
(-7.58133e-12 -4.91032e-10 0)
(-7.06223e-11 -6.34404e-09 0)
(0 0 0)
(0 0 0)
(5.04039e-11 -1.98716e-09 0)
(1.37411e-10 -1.91032e-09 0)
(6.51354e-11 -1.89458e-09 0)
(3.33874e-10 -4.20507e-09 0)
(5.59916e-11 -1.79433e-09 0)
(3.64545e-11 -2.09885e-09 0)
(0 0 0)
(-1.6056e-10 -1.99994e-09 0)
(4.73325e-12 -4.01998e-09 0)
(-5.51065e-11 -1.80398e-09 0)
(-9.65361e-11 -1.97489e-09 0)
(0 0 0)
(-1.33796e-11 -2.01644e-09 0)
(4.09922e-11 -1.96517e-09 0)
(2.04794e-11 -2.0181e-09 0)
(-3.01825e-11 -2.20024e-09 0)
(4.40587e-12 -2.18463e-09 0)
(-5.17415e-12 -2.05155e-09 0)
(-1.67135e-11 -3.21581e-09 0)
(-1.38215e-10 -2.20804e-09 0)
(1.52473e-11 -4.3405e-09 0)
(-1.38063e-10 -1.81874e-09 0)
(1.7884e-10 -4.10442e-09 0)
(9.19254e-11 -1.63382e-09 0)
(1.77059e-11 -1.70717e-09 0)
(-9.01763e-12 -4.72992e-10 0)
(-3.35359e-11 -1.2753e-09 0)
(7.45855e-11 -2.00432e-09 0)
(5.82772e-13 -2.01497e-09 0)
(-1.31366e-10 -2.05624e-09 0)
(-2.0922e-12 -1.90281e-09 0)
(1.35412e-11 -1.88366e-09 0)
(8.47017e-11 -1.84896e-09 0)
(4.97432e-11 -2.09497e-09 0)
(2.37412e-11 -2.0201e-09 0)
(7.01111e-11 -1.74057e-09 0)
(-1.45185e-10 -4.2403e-09 0)
(-4.39995e-11 -1.59956e-09 0)
(-2.95582e-11 -1.95118e-09 0)
(-4.52359e-11 -1.88732e-09 0)
(-1.06788e-10 -1.90822e-09 0)
(-1.03174e-10 -1.99284e-09 0)
(-7.05564e-11 -1.88505e-09 0)
(0 0 0)
(0 0 0)
(0 0 0)
(0 0 0)
(0 0 0)
(0 0 0)
(0 0 0)
(0 0 0)
(0 0 0)
(0 0 0)
(0 0 0)
(0 0 0)
(0 0 0)
(0 0 0)
(0 0 0)
(0 0 0)
(0 0 0)
(0 0 0)
(0 0 0)
(0 0 0)
(0 0 0)
(0 0 0)
(0 0 0)
(4.51205e-11 -5.67046e-09 0)
(6.13695e-11 -2.03617e-09 0)
(3.81351e-13 -1.78946e-09 0)
(2.65904e-11 -1.77696e-09 0)
(1.22695e-11 -1.87741e-09 0)
(-4.69452e-11 -2.01447e-09 0)
(0 0 0)
(1.53881e-10 -1.9597e-09 0)
(1.17799e-10 -1.98315e-09 0)
(6.82994e-11 -1.96793e-09 0)
(4.88877e-11 -1.92663e-09 0)
(6.29026e-11 -1.98135e-09 0)
(0 0 0)
(5.8189e-12 -1.82886e-09 0)
(-2.88743e-11 -1.97283e-09 0)
(-7.84739e-11 -2.15413e-09 0)
(0 0 0)
(-8.55842e-11 -1.90691e-09 0)
(-2.23324e-11 -1.83157e-09 0)
(-6.0825e-11 -2.05668e-09 0)
(-3.52887e-11 -2.02543e-09 0)
(1.15719e-11 -2.11912e-09 0)
(3.93866e-11 -2.0757e-09 0)
(-4.86934e-11 -2.02211e-09 0)
(-3.71203e-11 -1.97944e-09 0)
(-7.81642e-11 -2.94224e-09 0)
(-8.95493e-11 -3.36851e-09 0)
(-2.07369e-10 -3.01629e-09 0)
(-7.03523e-11 -1.62149e-09 0)
(-1.04163e-10 -3.79445e-09 0)
(-1.32068e-12 -1.79945e-09 0)
(-2.24178e-13 -1.81248e-09 0)
(3.46938e-11 -1.87498e-09 0)
(-1.51481e-11 -1.83103e-09 0)
(-4.74315e-11 -2.16182e-09 0)
(6.66696e-11 -2.12874e-09 0)
(5.77998e-11 -2.20416e-09 0)
(-6.97994e-11 -2.1939e-09 0)
(-2.04893e-11 -6.49157e-10 0)
(-2.43687e-11 -7.32395e-10 0)
(1.71062e-11 -1.76403e-09 0)
(-2.22431e-11 -1.76335e-09 0)
(2.3894e-11 -2.09291e-09 0)
(-3.38207e-11 -1.85265e-09 0)
(-6.72628e-11 -1.94164e-09 0)
(-1.32027e-10 -1.93687e-09 0)
(-4.73027e-11 -4.2465e-09 0)
(3.89866e-11 -1.63414e-09 0)
(-1.5369e-12 -3.06463e-09 0)
(-1.02903e-11 -5.12558e-10 0)
(0 0 0)
(0 0 0)
(0 0 0)
(0 0 0)
(0 0 0)
(0 0 0)
(0 0 0)
(0 0 0)
(0 0 0)
(0 0 0)
(0 0 0)
(0 0 0)
(0 0 0)
(0 0 0)
(0 0 0)
(0 0 0)
(0 0 0)
(0 0 0)
(0 0 0)
(0 0 0)
(0 0 0)
(0 0 0)
(0 0 0)
(0 0 0)
(0 0 0)
(-1.14816e-11 -2.04463e-09 0)
(-3.71032e-11 -2.00018e-09 0)
(0 0 0)
(7.10859e-11 -1.79753e-09 0)
(7.68968e-11 -1.94593e-09 0)
(0 0 0)
(-2.77511e-11 -2.00495e-09 0)
(1.00755e-11 -2.05827e-09 0)
(9.76455e-12 -2.06608e-09 0)
(6.45672e-12 -1.95854e-09 0)
(4.65014e-12 -1.80258e-09 0)
(5.00489e-11 -1.93486e-09 0)
(3.84705e-11 -2.0546e-09 0)
(0 0 0)
(2.25261e-11 -1.94946e-09 0)
(2.03121e-11 -2.15858e-09 0)
(-4.01863e-11 -2.10806e-09 0)
(0 0 0)
(-7.31054e-12 -1.95819e-09 0)
(-3.11546e-11 -2.10445e-09 0)
(-7.3033e-11 -2.04997e-09 0)
(-1.35347e-10 -1.93895e-09 0)
(-2.29206e-10 -4.75162e-09 0)
(-2.35527e-11 -1.8844e-09 0)
(-2.45939e-11 -1.82308e-09 0)
(-7.80682e-11 -1.86207e-09 0)
(-7.08584e-11 -5.01685e-09 0)
(0 0 0)
(-1.73496e-10 -1.81994e-09 0)
(-7.22288e-11 -1.96604e-09 0)
(6.01079e-12 -1.95798e-09 0)
(-1.45811e-11 -2.03623e-09 0)
(-4.24285e-11 -2.1469e-09 0)
(-3.88309e-11 -1.90215e-09 0)
(-1.33156e-10 -1.91212e-09 0)
(-1.13044e-10 -2.02746e-09 0)
(-7.47195e-12 -2.15947e-09 0)
(-1.03844e-11 -2.09646e-09 0)
(5.91477e-11 -1.88473e-09 0)
(2.94363e-11 -1.8124e-09 0)
(-1.48558e-11 -1.87391e-09 0)
(2.59215e-11 -3.46464e-09 0)
(9.16185e-11 -2.626e-09 0)
(0 0 0)
(0 0 0)
(0 0 0)
(-4.29159e-11 -1.90245e-09 0)
(-6.70589e-11 -2.08389e-09 0)
(3.9401e-12 -4.18442e-09 0)
(4.01569e-11 -1.70597e-09 0)
(0 0 0)
(0 0 0)
(0 0 0)
(0 0 0)
(0 0 0)
(0 0 0)
(0 0 0)
(0 0 0)
(0 0 0)
(0 0 0)
(0 0 0)
(0 0 0)
(0 0 0)
(0 0 0)
(0 0 0)
(0 0 0)
(0 0 0)
(0 0 0)
(0 0 0)
(0 0 0)
(0 0 0)
(0 0 0)
(0 0 0)
(0 0 0)
(0 0 0)
(-3.69254e-11 -2.01054e-09 0)
(0 0 0)
(3.56099e-11 -1.95058e-09 0)
(7.02516e-11 -1.96888e-09 0)
(0 0 0)
(3.73747e-11 -1.9985e-09 0)
(1.18161e-10 -2.01859e-09 0)
(1.14128e-10 -2.09186e-09 0)
(0 0 0)
(4.95493e-11 -1.97222e-09 0)
(4.69335e-11 -1.97667e-09 0)
(6.66365e-11 -1.95926e-09 0)
(7.50623e-11 -1.96933e-09 0)
(6.12243e-11 -1.98255e-09 0)
(-3.98735e-11 -2.02486e-09 0)
(-3.0634e-11 -2.21049e-09 0)
(6.13629e-12 -5.03297e-10 0)
(1.59306e-11 -1.03358e-09 0)
(6.59782e-13 -4.732e-09 0)
(-2.70657e-11 -1.98067e-09 0)
(-1.40941e-10 -2.0745e-09 0)
(-1.6487e-10 -2.02143e-09 0)
(-1.96375e-10 -1.96243e-09 0)
(-1.26591e-10 -3.17024e-09 0)
(-6.46304e-11 -3.01125e-09 0)
(-9.01434e-11 -1.89236e-09 0)
(-6.06631e-13 -2.2232e-09 0)
(3.80627e-12 -2.06908e-09 0)
(-6.4183e-11 -1.89245e-09 0)
(-1.30321e-11 -1.85596e-09 0)
(1.52957e-11 -2.03679e-09 0)
(0 0 0)
(-6.28323e-11 -1.95583e-09 0)
(-5.31137e-11 -2.00454e-09 0)
(-8.3269e-11 -2.30316e-09 0)
(-6.32421e-11 -1.48603e-09 0)
(-1.10164e-10 -1.97409e-09 0)
(-1.39062e-12 -2.00182e-09 0)
(1.33093e-10 -2.48435e-09 0)
(4.69577e-11 -2.44139e-09 0)
(3.16057e-11 -2.08753e-09 0)
(5.31834e-11 -3.19588e-09 0)
(3.60232e-11 -1.92421e-09 0)
(0 0 0)
(1.28827e-11 -4.4484e-09 0)
(-4.66699e-11 -3.40142e-09 0)
(1.27932e-12 -1.82589e-10 0)
(0 0 0)
(4.07976e-11 -2.02225e-09 0)
(-1.03378e-11 -2.12325e-09 0)
(0 0 0)
(0 0 0)
(0 0 0)
(0 0 0)
(0 0 0)
(0 0 0)
(0 0 0)
(0 0 0)
(0 0 0)
(0 0 0)
(0 0 0)
(0 0 0)
(0 0 0)
(0 0 0)
(0 0 0)
(0 0 0)
(0 0 0)
(0 0 0)
(0 0 0)
(0 0 0)
(0 0 0)
(0 0 0)
(0 0 0)
(0 0 0)
(0 0 0)
(1.23596e-11 -2.02611e-09 0)
(3.34799e-11 -2.01523e-09 0)
(5.57414e-11 -1.9451e-09 0)
(7.61442e-11 -1.91628e-09 0)
(1.1442e-10 -2.13088e-09 0)
(0 0 0)
(8.04904e-11 -1.95123e-09 0)
(3.71735e-11 -4.3278e-09 0)
(1.01959e-10 -2.23311e-09 0)
(2.07547e-12 -6.08755e-11 0)
(6.83008e-11 -1.86868e-09 0)
(9.82717e-11 -2.44424e-09 0)
(4.8244e-11 -2.70299e-09 0)
(-5.72349e-12 -3.20104e-09 0)
(-4.35735e-11 -1.8541e-09 0)
(-1.91533e-11 -1.87299e-09 0)
(8.25888e-11 -1.84679e-09 0)
(9.78132e-11 -4.09147e-09 0)
(-1.31097e-10 -3.08824e-09 0)
(-1.25261e-10 -2.96107e-09 0)
(-5.66756e-11 -2.11116e-09 0)
(-3.49394e-12 -2.85042e-10 0)
(-1.95044e-11 -1.47453e-09 0)
(-8.40934e-11 -2.0608e-09 0)
(-1.39837e-10 -2.08394e-09 0)
(-1.06265e-10 -2.06807e-09 0)
(-8.32426e-11 -2.02261e-09 0)
(-2.99839e-11 -2.07596e-09 0)
(7.30386e-11 -2.10447e-09 0)
(9.16656e-12 -1.9192e-09 0)
(2.39811e-11 -1.9944e-09 0)
(-5.35819e-13 -1.97392e-09 0)
(-7.52737e-11 -1.99392e-09 0)
(-1.23287e-10 -1.9724e-09 0)
(-1.12471e-10 -1.9168e-09 0)
(-9.20588e-11 -1.97486e-09 0)
(-5.50358e-11 -2.02783e-09 0)
(8.28815e-13 -2.0761e-09 0)
(1.06638e-10 -2.38491e-09 0)
(3.30506e-11 -1.88446e-09 0)
(4.20758e-11 -1.64551e-09 0)
(-1.08241e-10 -1.77085e-09 0)
(-4.73409e-11 -3.12239e-09 0)
(7.82807e-11 -3.06924e-09 0)
(0 0 0)
(1.6162e-11 -4.21979e-09 0)
(8.46559e-11 -1.78607e-09 0)
(8.06336e-11 -1.85706e-09 0)
(9.10376e-11 -1.92184e-09 0)
(-1.49346e-11 -2.16438e-09 0)
(0 0 0)
(0 0 0)
(0 0 0)
(0 0 0)
(0 0 0)
(0 0 0)
(0 0 0)
(0 0 0)
(0 0 0)
(0 0 0)
(0 0 0)
(0 0 0)
(0 0 0)
(0 0 0)
(0 0 0)
(0 0 0)
(0 0 0)
(0 0 0)
(0 0 0)
(0 0 0)
(0 0 0)
(0 0 0)
(0 0 0)
(0 0 0)
(0 0 0)
(-1.69851e-11 -2.01156e-09 0)
(2.03648e-11 -1.97767e-09 0)
(8.24328e-11 -1.92781e-09 0)
(1.05426e-10 -1.87551e-09 0)
(7.97563e-11 -1.95231e-09 0)
(1.44805e-10 -2.0256e-09 0)
(1.61951e-10 -2.00899e-09 0)
(-8.38197e-11 -2.08892e-09 0)
(5.13897e-11 -1.75332e-09 0)
(1.90208e-10 -1.73856e-09 0)
(7.35226e-11 -1.00893e-09 0)
(7.3269e-11 -2.19196e-09 0)
(-8.35943e-11 -2.3338e-09 0)
(-9.67917e-11 -1.89126e-09 0)
(-1.22431e-10 -3.27482e-09 0)
(-3.7442e-11 -2.36439e-09 0)
(-4.68605e-11 -3.80539e-09 0)
(-6.69209e-11 -1.68892e-09 0)
(-7.89603e-11 -1.79019e-09 0)
(-6.78306e-11 -2.01325e-09 0)
(-1.52116e-10 -2.136e-09 0)
(-5.64403e-11 -2.04064e-09 0)
(-1.51439e-11 -2.22276e-09 0)
(0 0 0)
(-6.18702e-11 -2.16904e-09 0)
(-3.06166e-11 -2.09044e-09 0)
(-6.13212e-11 -2.00307e-09 0)
(1.29032e-11 -1.98808e-09 0)
(4.02092e-11 -1.96251e-09 0)
(5.78209e-11 -2.00965e-09 0)
(3.65719e-11 -1.93044e-09 0)
(1.08319e-10 -2.10993e-09 0)
(-1.29474e-10 -2.13105e-09 0)
(-9.7736e-11 -1.96763e-09 0)
(-4.7609e-11 -1.94944e-09 0)
(0 0 0)
(-4.44389e-11 -1.96233e-09 0)
(-2.76118e-11 -2.00202e-09 0)
(-2.02131e-12 -2.11984e-09 0)
(3.1458e-11 -2.05686e-09 0)
(-6.13296e-12 -1.99131e-09 0)
(-5.68716e-11 -1.88944e-09 0)
(-7.17472e-11 -1.87328e-09 0)
(-6.59669e-11 -1.92342e-09 0)
(6.48551e-11 -1.94071e-09 0)
(9.65461e-11 -1.87235e-09 0)
(3.91531e-11 -1.67714e-09 0)
(-3.34692e-11 -4.13466e-09 0)
(6.75153e-11 -4.71055e-09 0)
(-7.79705e-12 -2.14405e-09 0)
(0 0 0)
(0 0 0)
(0 0 0)
(0 0 0)
(0 0 0)
(0 0 0)
(0 0 0)
(0 0 0)
(0 0 0)
(0 0 0)
(0 0 0)
(0 0 0)
(0 0 0)
(0 0 0)
(0 0 0)
(0 0 0)
(0 0 0)
(0 0 0)
(0 0 0)
(0 0 0)
(0 0 0)
(0 0 0)
(0 0 0)
(0 0 0)
(0 0 0)
(1.06055e-10 -1.90731e-09 0)
(3.41111e-11 -2.14537e-09 0)
(5.93464e-11 -3.08842e-09 0)
(6.5615e-11 -2.41179e-09 0)
(1.15521e-10 -1.84703e-09 0)
(1.52182e-10 -1.85652e-09 0)
(2.16792e-10 -4.59083e-09 0)
(3.5207e-11 -1.72915e-09 0)
(1.9073e-10 -4.06189e-09 0)
(5.00376e-11 -1.54651e-09 0)
(6.24675e-11 -1.63358e-09 0)
(5.76984e-11 -2.15485e-09 0)
(-5.93943e-11 -2.08879e-09 0)
(-9.87804e-11 -1.84123e-09 0)
(-2.31066e-11 -1.6735e-09 0)
(-3.15829e-10 -4.08878e-09 0)
(-6.10667e-11 -1.53429e-09 0)
(-8.24265e-11 -1.79401e-09 0)
(-7.26492e-11 -2.00326e-09 0)
(-7.04392e-11 -2.38494e-09 0)
(0 0 0)
(-5.14673e-11 -2.03948e-09 0)
(-1.14896e-10 -2.09592e-09 0)
(1.66657e-11 -2.24965e-09 0)
(0 0 0)
(4.63796e-11 -2.00993e-09 0)
(1.21386e-11 -1.96634e-09 0)
(-6.63836e-11 -2.00679e-09 0)
(-1.92456e-11 -1.88679e-09 0)
(4.02511e-11 -1.90454e-09 0)
(5.653e-11 -3.17573e-09 0)
(-7.11819e-12 -3.66998e-09 0)
(-4.40006e-11 -8.49662e-10 0)
(-2.65946e-11 -4.40854e-10 0)
(-1.46568e-10 -3.08953e-09 0)
(-6.17698e-11 -1.63448e-09 0)
(-2.266e-11 -9.73198e-10 0)
(-2.32941e-11 -1.89681e-09 0)
(-1.68736e-11 -2.13127e-09 0)
(-3.45333e-11 -2.11191e-09 0)
(0 0 0)
(-3.15839e-11 -1.9052e-09 0)
(-5.68655e-11 -1.97208e-09 0)
(-3.7876e-11 -1.92216e-09 0)
(4.44546e-11 -1.97205e-09 0)
(2.96858e-11 -2.07562e-09 0)
(0 0 0)
(7.59669e-12 -1.83948e-09 0)
(-1.169e-11 -1.93075e-09 0)
(8.16813e-11 -2.16719e-09 0)
(8.19459e-11 -2.08445e-09 0)
(0 0 0)
(0 0 0)
(0 0 0)
(0 0 0)
(0 0 0)
(0 0 0)
(0 0 0)
(0 0 0)
(0 0 0)
(0 0 0)
(0 0 0)
(0 0 0)
(0 0 0)
(0 0 0)
(0 0 0)
(0 0 0)
(0 0 0)
(0 0 0)
(0 0 0)
(0 0 0)
(0 0 0)
(0 0 0)
(0 0 0)
(0 0 0)
(4.7582e-11 -2.14622e-09 0)
(-7.17587e-11 -1.9515e-09 0)
(9.92326e-11 -4.33748e-09 0)
(1.08407e-10 -1.74363e-09 0)
(8.56267e-11 -1.79709e-09 0)
(5.79641e-11 -3.19941e-09 0)
(2.32285e-11 -2.48768e-09 0)
(1.74102e-10 -4.26657e-09 0)
(1.22392e-11 -2.49064e-09 0)
(1.36459e-11 -3.03101e-09 0)
(-3.06307e-11 -1.73467e-09 0)
(-1.31627e-11 -1.90626e-09 0)
(1.8875e-11 -2.02547e-09 0)
(1.17218e-10 -1.94124e-09 0)
(1.87997e-11 -1.95584e-09 0)
(-6.22326e-11 -1.96496e-09 0)
(-8.15084e-11 -1.90296e-09 0)
(-2.59023e-11 -1.92192e-09 0)
(-1.5339e-10 -2.02626e-09 0)
(-1.18028e-10 -2.27286e-09 0)
(0 0 0)
(2.3601e-12 -1.96e-09 0)
(-5.51402e-11 -1.10192e-09 0)
(-1.01539e-11 -1.93677e-10 0)
(1.23589e-11 -2.01547e-09 0)
(-1.00006e-11 -2.00285e-09 0)
(2.14289e-11 -2.23582e-09 0)
(0 0 0)
(1.52826e-11 -4.33326e-09 0)
(3.22907e-11 -1.78864e-09 0)
(1.41329e-10 -1.92937e-09 0)
(4.52745e-11 -3.26894e-09 0)
(-3.87038e-11 -3.11299e-09 0)
(-4.52737e-11 -1.82693e-09 0)
(-5.16542e-11 -1.8867e-09 0)
(0 0 0)
(8.75429e-13 -1.8703e-09 0)
(-5.47327e-11 -1.9437e-09 0)
(-1.09796e-11 -2.30081e-09 0)
(1.58417e-12 -4.67339e-10 0)
(5.95593e-12 -1.25957e-09 0)
(1.16345e-11 -1.93461e-09 0)
(-2.73965e-12 -4.62763e-10 0)
(-5.81808e-12 -1.10719e-09 0)
(4.06541e-11 -1.95509e-09 0)
(1.52561e-11 -2.34156e-09 0)
(0 0 0)
(1.44835e-11 -2.05492e-09 0)
(2.53385e-11 -2.60419e-09 0)
(1.16106e-10 -4.35096e-09 0)
(4.12668e-11 -2.19487e-09 0)
(0 0 0)
(0 0 0)
(0 0 0)
(0 0 0)
(0 0 0)
(0 0 0)
(0 0 0)
(0 0 0)
(0 0 0)
(0 0 0)
(0 0 0)
(0 0 0)
(0 0 0)
(0 0 0)
(0 0 0)
(0 0 0)
(0 0 0)
(0 0 0)
(0 0 0)
(0 0 0)
(0 0 0)
(0 0 0)
(0 0 0)
(0 0 0)
(-4.44926e-11 -1.11432e-09 0)
(-8.75526e-13 -2.17614e-11 0)
(-5.79271e-11 -2.42323e-09 0)
(1.21485e-10 -4.06629e-09 0)
(4.08474e-11 -1.86929e-09 0)
(-3.046e-11 -2.0251e-09 0)
(8.62888e-12 -1.96254e-09 0)
(3.08021e-11 -4.70427e-09 0)
(-7.85733e-11 -2.64947e-09 0)
(-1.26994e-10 -3.18155e-09 0)
(-3.96134e-11 -3.8158e-09 0)
(-3.82886e-11 -1.83686e-09 0)
(2.67658e-11 -1.90922e-09 0)
(1.2606e-10 -4.56141e-09 0)
(-2.62095e-11 -2.27633e-09 0)
(0 0 0)
(-4.97974e-11 -1.92975e-09 0)
(-1.90984e-10 -4.73593e-09 0)
(-8.68316e-11 -1.74915e-09 0)
(-6.94869e-12 -1.80912e-09 0)
(0 0 0)
(4.15221e-12 -1.97145e-09 0)
(1.65079e-11 -1.99868e-09 0)
(2.93572e-11 -1.94567e-09 0)
(6.63542e-11 -1.91959e-09 0)
(-6.18964e-12 -2.0448e-09 0)
(0 0 0)
(5.74052e-11 -2.04692e-09 0)
(2.84362e-11 -1.96997e-09 0)
(0 0 0)
(6.07319e-11 -1.93923e-09 0)
(-8.95453e-11 -5.47234e-09 0)
(-6.00245e-11 -1.95305e-09 0)
(-2.57009e-11 -1.82777e-09 0)
(-5.74497e-12 -1.73698e-09 0)
(-5.9091e-11 -4.25036e-09 0)
(-2.38241e-11 -1.79209e-09 0)
(0 0 0)
(-7.02693e-11 -2.00982e-09 0)
(8.91632e-11 -2.04862e-09 0)
(-1.97569e-11 -1.8978e-09 0)
(6.15331e-12 -1.94451e-09 0)
(0 0 0)
(3.45686e-11 -2.01447e-09 0)
(-1.77575e-11 -2.0484e-09 0)
(0 0 0)
(8.78616e-11 -2.37153e-09 0)
(0 0 0)
(-4.70427e-11 -1.78815e-09 0)
(-1.22518e-10 -2.02554e-09 0)
(-7.88181e-11 -2.40411e-09 0)
(4.24282e-13 -1.79772e-09 0)
(1.33451e-11 -1.96537e-09 0)
(0 0 0)
(0 0 0)
(0 0 0)
(0 0 0)
(0 0 0)
(0 0 0)
(0 0 0)
(0 0 0)
(0 0 0)
(0 0 0)
(0 0 0)
(0 0 0)
(0 0 0)
(0 0 0)
(0 0 0)
(0 0 0)
(0 0 0)
(0 0 0)
(0 0 0)
(0 0 0)
(0 0 0)
(0 0 0)
(0 0 0)
(-1.02884e-11 -1.9491e-09 0)
(-4.93079e-11 -1.92654e-09 0)
(-5.70778e-11 -1.90826e-09 0)
(5.16075e-12 -2.01975e-09 0)
(2.21452e-11 -2.08314e-09 0)
(1.65548e-11 -2.35759e-09 0)
(5.32119e-11 -2.3262e-09 0)
(-2.54991e-11 -2.02913e-09 0)
(-9.02557e-11 -1.85213e-09 0)
(-6.75983e-11 -1.88409e-09 0)
(-6.9072e-11 -2.69857e-09 0)
(-2.31767e-11 -3.19808e-09 0)
(-7.48451e-11 -1.81403e-09 0)
(-6.99328e-11 -2.39545e-09 0)
(4.52281e-11 -3.89506e-09 0)
(-5.22179e-11 -1.79712e-09 0)
(0 0 0)
(3.03744e-11 -1.94942e-09 0)
(4.0638e-11 -2.0108e-09 0)
(-4.07637e-11 -2.18476e-09 0)
(-4.36407e-11 -2.09893e-09 0)
(-2.3913e-12 -1.91729e-09 0)
(3.53068e-11 -1.93239e-09 0)
(-2.08646e-11 -1.94441e-09 0)
(0 0 0)
(8.72398e-12 -2.01114e-09 0)
(5.77835e-11 -1.98762e-09 0)
(4.07525e-11 -2.00931e-09 0)
(-2.8515e-11 -2.04786e-09 0)
(-8.59903e-11 -2.34546e-09 0)
(1.48358e-11 -2.30613e-09 0)
(-2.23323e-11 -2.0515e-09 0)
(5.73559e-11 -1.75189e-09 0)
(5.18005e-11 -1.82327e-09 0)
(1.37086e-12 -1.89597e-09 0)
(-4.45274e-14 -1.84543e-09 0)
(2.40392e-11 -1.9502e-09 0)
(-8.79156e-11 -1.93929e-09 0)
(-1.8992e-11 -2.00242e-09 0)
(3.46695e-12 -2.01183e-09 0)
(0 0 0)
(9.35692e-11 -4.20912e-09 0)
(1.40337e-11 -1.83302e-09 0)
(3.7755e-11 -1.97064e-09 0)
(0 0 0)
(2.50937e-11 -1.81673e-09 0)
(1.75218e-10 -2.99519e-09 0)
(-7.74816e-11 -3.07656e-09 0)
(-1.13575e-10 -1.88541e-09 0)
(-1.137e-10 -1.89528e-09 0)
(-7.92757e-11 -1.99419e-09 0)
(0 0 0)
(0 0 0)
(0 0 0)
(0 0 0)
(0 0 0)
(0 0 0)
(0 0 0)
(0 0 0)
(0 0 0)
(0 0 0)
(0 0 0)
(0 0 0)
(0 0 0)
(0 0 0)
(0 0 0)
(0 0 0)
(0 0 0)
(0 0 0)
(0 0 0)
(0 0 0)
(0 0 0)
(0 0 0)
(0 0 0)
(6.33214e-11 -2.02812e-09 0)
(4.99068e-11 -1.93296e-09 0)
(3.02768e-11 -1.89064e-09 0)
(1.42604e-11 -1.91388e-09 0)
(0 0 0)
(0 0 0)
(0 0 0)
(0 0 0)
(0 0 0)
(0 0 0)
(0 0 0)
(-3.73806e-11 -2.35343e-09 0)
(-5.45532e-11 -2.27803e-09 0)
(0 0 0)
(0 0 0)
(-1.29965e-12 -1.15356e-10 0)
(-8.65995e-11 -4.18958e-09 0)
(7.04183e-13 -1.96942e-09 0)
(-6.53838e-12 -2.05743e-09 0)
(-2.65216e-12 -2.17847e-09 0)
(-1.3594e-11 -2.04243e-09 0)
(-8.73451e-13 -2.10323e-09 0)
(1.12366e-11 -1.81491e-09 0)
(1.27803e-10 -4.18452e-09 0)
(6.99249e-11 -1.76741e-09 0)
(5.94181e-11 -1.87729e-09 0)
(8.29876e-12 -1.90258e-09 0)
(9.59471e-11 -1.99541e-09 0)
(4.7907e-11 -2.09948e-09 0)
(-5.02401e-11 -2.01205e-09 0)
(-7.15223e-11 -1.9494e-09 0)
(1.26236e-10 -2.07819e-09 0)
(1.05408e-10 -2.05261e-09 0)
(5.28065e-11 -1.86665e-09 0)
(3.21092e-11 -1.9362e-09 0)
(-1.85596e-12 -2.01605e-09 0)
(-5.54353e-11 -1.9594e-09 0)
(-7.73894e-11 -1.87568e-09 0)
(-2.17985e-11 -1.88736e-09 0)
(2.85156e-11 -1.89639e-09 0)
(1.4596e-11 -1.99525e-09 0)
(0 0 0)
(0 0 0)
(6.4529e-11 -1.90594e-09 0)
(-3.1646e-11 -1.9842e-09 0)
(-5.84415e-13 -3.52539e-09 0)
(-6.37577e-11 -2.14595e-09 0)
(-9.46451e-11 -4.58245e-09 0)
(-1.2641e-10 -1.78379e-09 0)
(-1.06352e-10 -1.8753e-09 0)
(-8.53993e-11 -1.80439e-09 0)
(0 0 0)
(0 0 0)
(0 0 0)
(0 0 0)
(0 0 0)
(0 0 0)
(0 0 0)
(0 0 0)
(0 0 0)
(0 0 0)
(0 0 0)
(0 0 0)
(0 0 0)
(0 0 0)
(0 0 0)
(0 0 0)
(0 0 0)
(0 0 0)
(0 0 0)
(0 0 0)
(0 0 0)
(0 0 0)
(0 0 0)
(0 0 0)
(-6.4687e-12 -1.93206e-09 0)
(4.50207e-11 -1.94043e-09 0)
(2.90169e-11 -1.93282e-09 0)
(2.5053e-11 -1.95952e-09 0)
(5.12793e-11 -1.9532e-09 0)
(7.57506e-11 -1.94483e-09 0)
(1.01214e-10 -1.90641e-09 0)
(1.09184e-10 -2.01898e-09 0)
(1.0193e-10 -2.35823e-09 0)
(0 0 0)
(-1.03235e-10 -4.19385e-09 0)
(-5.77942e-11 -2.3078e-09 0)
(-1.14408e-11 -3.59055e-10 0)
(-5.29165e-11 -1.60581e-09 0)
(9.68401e-11 -4.21813e-09 0)
(-5.59807e-11 -4.54408e-09 0)
(-4.53619e-11 -8.77258e-10 0)
(-4.14227e-11 -7.13047e-10 0)
(-2.12921e-10 -2.13906e-09 0)
(-3.82775e-10 -4.72725e-09 0)
(-1.23023e-10 -1.88467e-09 0)
(-3.85494e-11 -5.00536e-09 0)
(-1.29736e-11 -1.78688e-09 0)
(8.05123e-11 -1.65278e-09 0)
(7.39692e-11 -1.74281e-09 0)
(8.18556e-11 -2.95011e-09 0)
(8.00209e-12 -5.89859e-10 0)
(5.00514e-11 -1.81313e-09 0)
(2.30665e-11 -4.94573e-09 0)
(4.11441e-11 -1.94492e-09 0)
(-7.56459e-11 -1.7714e-09 0)
(-5.76873e-11 -1.94147e-09 0)
(1.80383e-11 -2.0168e-09 0)
(4.76245e-11 -1.98054e-09 0)
(3.54702e-11 -2.34975e-09 0)
(1.11952e-11 -2.23583e-09 0)
(-9.31212e-12 -4.39383e-10 0)
(-5.64532e-11 -2.11069e-09 0)
(-6.43809e-11 -3.38039e-09 0)
(3.10416e-11 -1.8728e-09 0)
(2.77205e-11 -1.89739e-09 0)
(8.29828e-11 -2.00341e-09 0)
(9.50161e-12 -5.30434e-10 0)
(1.4632e-11 -9.50193e-10 0)
(0 0 0)
(0 0 0)
(-7.72648e-11 -1.97134e-09 0)
(-1.38947e-10 -2.05074e-09 0)
(-1.66606e-10 -1.98139e-09 0)
(-1.21972e-10 -1.9e-09 0)
(0 0 0)
(0 0 0)
(0 0 0)
(0 0 0)
(0 0 0)
(0 0 0)
(0 0 0)
(0 0 0)
(0 0 0)
(0 0 0)
(0 0 0)
(0 0 0)
(0 0 0)
(0 0 0)
(0 0 0)
(0 0 0)
(0 0 0)
(0 0 0)
(0 0 0)
(0 0 0)
(0 0 0)
(0 0 0)
(0 0 0)
(0 0 0)
(0 0 0)
(0 0 0)
(5.81108e-11 -1.90812e-09 0)
(1.35274e-10 -1.96403e-09 0)
(4.35346e-11 -2.00104e-09 0)
(0 0 0)
(3.99165e-11 -4.11701e-09 0)
(1.05787e-10 -1.78062e-09 0)
(1.02531e-10 -1.95416e-09 0)
(-7.81729e-11 -1.90485e-09 0)
(1.08339e-10 -4.3622e-09 0)
(-3.8581e-11 -1.75172e-09 0)
(1.9718e-11 -2.03392e-09 0)
(5.63932e-11 -1.91185e-09 0)
(3.32467e-12 -1.41348e-10 0)
(-2.73233e-12 -4.59122e-09 0)
(-2.4035e-11 -9.89992e-10 0)
(-1.8477e-10 -3.00719e-09 0)
(-6.37697e-11 -2.03608e-09 0)
(-1.24441e-10 -1.86271e-09 0)
(-8.51347e-11 -2.21591e-09 0)
(0 0 0)
(-3.20663e-11 -2.03781e-09 0)
(1.00954e-10 -2.02423e-09 0)
(8.21938e-11 -1.9485e-09 0)
(7.52771e-11 -1.87306e-09 0)
(2.62293e-10 -3.66531e-09 0)
(1.52063e-10 -2.17139e-09 0)
(6.17037e-11 -1.97332e-09 0)
(-4.2559e-11 -1.97195e-09 0)
(-1.12127e-11 -3.20148e-09 0)
(-2.69251e-11 -3.0566e-09 0)
(-3.24065e-12 -3.95097e-10 0)
(-9.00122e-12 -1.18793e-09 0)
(2.05766e-11 -2.00672e-09 0)
(-1.05925e-10 -2.17162e-09 0)
(-4.84781e-11 -2.13485e-09 0)
(2.34129e-11 -1.99148e-09 0)
(-9.44779e-11 -2.08699e-09 0)
(-4.96557e-11 -1.79241e-09 0)
(-1.08194e-11 -1.90393e-09 0)
(2.59326e-11 -1.90643e-09 0)
(1.50179e-10 -4.30754e-09 0)
(1.91942e-10 -4.21364e-09 0)
(1.12389e-10 -1.94216e-09 0)
(3.58768e-11 -2.85209e-09 0)
(4.05954e-10 -5.43495e-09 0)
(-6.03565e-11 -1.76057e-09 0)
(-9.56139e-11 -1.82089e-09 0)
(0 0 0)
(0 0 0)
(0 0 0)
(0 0 0)
(0 0 0)
(0 0 0)
(0 0 0)
(0 0 0)
(0 0 0)
(0 0 0)
(0 0 0)
(0 0 0)
(0 0 0)
(0 0 0)
(0 0 0)
(0 0 0)
(0 0 0)
(0 0 0)
(0 0 0)
(0 0 0)
(0 0 0)
(0 0 0)
(0 0 0)
(0 0 0)
(0 0 0)
(0 0 0)
(0 0 0)
(6.84244e-11 -1.9819e-09 0)
(1.12312e-10 -1.89887e-09 0)
(1.29402e-10 -1.99134e-09 0)
(1.03443e-11 -2.03414e-09 0)
(1.09483e-11 -1.95325e-09 0)
(0 0 0)
(-6.07678e-11 -4.19329e-09 0)
(4.55621e-12 -4.27743e-09 0)
(-5.94899e-11 -1.69598e-09 0)
(-7.30297e-11 -1.86379e-09 0)
(-3.39902e-11 -1.84871e-09 0)
(-1.70512e-11 -2.01063e-09 0)
(7.47443e-11 -1.96681e-09 0)
(5.6266e-11 -1.93408e-09 0)
(-1.79947e-10 -2.00379e-09 0)
(-1.69061e-10 -4.90852e-09 0)
(0 0 0)
(-7.94047e-11 -1.93267e-09 0)
(1.42037e-11 -2.02412e-09 0)
(0 0 0)
(5.41587e-11 -2.08872e-09 0)
(2.22062e-11 -2.10896e-09 0)
(1.24404e-10 -2.21557e-09 0)
(0 0 0)
(2.32837e-11 -2.23952e-09 0)
(-3.0872e-11 -3.11889e-09 0)
(-2.05682e-11 -2.40502e-09 0)
(1.48191e-11 -1.71353e-09 0)
(7.25966e-11 -4.46372e-09 0)
(-7.48764e-11 -1.95265e-09 0)
(-1.1139e-10 -2.98155e-09 0)
(2.05189e-12 -1.64143e-09 0)
(2.00136e-11 -9.97155e-10 0)
(7.89742e-11 -2.18042e-09 0)
(-2.83196e-11 -2.25087e-09 0)
(-7.92441e-11 -2.05624e-09 0)
(-2.49923e-11 -1.96798e-09 0)
(-8.19508e-11 -1.9583e-09 0)
(-2.34034e-11 -1.76494e-09 0)
(-7.66025e-12 -1.89782e-09 0)
(2.12857e-11 -1.86611e-09 0)
(5.38647e-11 -1.78268e-09 0)
(2.74843e-10 -4.88915e-09 0)
(5.0123e-11 -1.82395e-09 0)
(-7.64805e-12 -2.67656e-09 0)
(-8.90334e-12 -2.88513e-09 0)
(-3.8188e-11 -1.67908e-09 0)
(-5.96382e-11 -1.83588e-09 0)
(0 0 0)
(0 0 0)
(0 0 0)
(0 0 0)
(0 0 0)
(0 0 0)
(0 0 0)
(0 0 0)
(0 0 0)
(0 0 0)
(0 0 0)
(0 0 0)
(0 0 0)
(0 0 0)
(0 0 0)
(0 0 0)
(0 0 0)
(0 0 0)
(0 0 0)
(0 0 0)
(0 0 0)
(0 0 0)
(0 0 0)
(0 0 0)
(0 0 0)
(0 0 0)
(0 0 0)
(9.20704e-11 -1.85968e-09 0)
(4.23634e-11 -1.82592e-09 0)
(9.06183e-11 -4.55811e-09 0)
(-7.06997e-11 -2.03731e-09 0)
(0 0 0)
(2.77741e-11 -1.91148e-09 0)
(-4.37227e-11 -1.96388e-09 0)
(-7.40371e-11 -1.97613e-09 0)
(-2.54884e-11 -1.98263e-09 0)
(2.20798e-13 -1.04997e-09 0)
(-1.73554e-13 -1.88441e-10 0)
(2.18982e-12 -2.03572e-09 0)
(-3.58021e-12 -1.9205e-09 0)
(-1.03393e-10 -4.41803e-09 0)
(-5.70489e-11 -2.0067e-09 0)
(0 0 0)
(2.4772e-11 -2.12883e-09 0)
(-4.70195e-11 -2.09649e-09 0)
(-1.17709e-11 -2.04477e-09 0)
(0 0 0)
(1.45649e-11 -1.99681e-09 0)
(3.50419e-11 -2.25482e-09 0)
(5.37744e-11 -2.43634e-09 0)
(0 0 0)
(3.60319e-11 -4.67719e-09 0)
(-2.7478e-11 -1.76564e-09 0)
(-7.78558e-11 -1.75178e-09 0)
(-7.80521e-11 -1.78898e-09 0)
(-4.2366e-11 -4.74597e-09 0)
(1.20766e-11 -2.06057e-09 0)
(1.45636e-11 -1.73315e-09 0)
(8.9712e-11 -1.73306e-09 0)
(8.53038e-13 -2.14574e-09 0)
(2.82663e-11 -2.30132e-09 0)
(4.73323e-11 -2.24154e-09 0)
(-9.52072e-12 -8.20622e-10 0)
(-6.56613e-12 -5.29454e-10 0)
(-3.68744e-11 -1.80794e-09 0)
(-5.46201e-11 -1.92026e-09 0)
(-7.15954e-11 -1.93327e-09 0)
(-2.98556e-11 -2.04138e-09 0)
(-1.75286e-11 -1.75296e-09 0)
(1.77193e-12 -7.56172e-09 0)
(1.02228e-10 -2.72494e-09 0)
(7.40862e-11 -3.10349e-09 0)
(-3.74035e-11 -1.57844e-09 0)
(1.30843e-11 -1.7291e-09 0)
(-2.56916e-11 -1.76918e-09 0)
(-6.85424e-11 -1.99236e-09 0)
(0 0 0)
(0 0 0)
(0 0 0)
(0 0 0)
(0 0 0)
(0 0 0)
(0 0 0)
(0 0 0)
(0 0 0)
(0 0 0)
(0 0 0)
(0 0 0)
(0 0 0)
(0 0 0)
(0 0 0)
(0 0 0)
(0 0 0)
(0 0 0)
(0 0 0)
(0 0 0)
(0 0 0)
(0 0 0)
(0 0 0)
(0 0 0)
(0 0 0)
(0 0 0)
(7.99823e-12 -2.5929e-09 0)
(5.44054e-11 -3.19251e-09 0)
(2.52046e-11 -1.90079e-09 0)
(1.51263e-10 -1.99211e-09 0)
(9.77631e-11 -1.9447e-09 0)
(-2.52094e-11 -1.93784e-09 0)
(-3.61601e-11 -1.83976e-09 0)
(-3.63112e-11 -1.94457e-09 0)
(-2.86762e-11 -1.95301e-09 0)
(-1.26981e-11 -1.98979e-09 0)
(-2.61487e-11 -2.0353e-09 0)
(0 0 0)
(-5.24344e-12 -1.98905e-09 0)
(-9.60737e-11 -2.06951e-09 0)
(-9.81253e-11 -2.03856e-09 0)
(1.66345e-11 -1.99121e-09 0)
(1.35894e-11 -2.35706e-09 0)
(0 0 0)
(-5.33226e-12 -2.06111e-09 0)
(3.13465e-11 -1.95941e-09 0)
(3.18203e-11 -1.91723e-09 0)
(3.99835e-11 -1.93968e-09 0)
(2.61674e-11 -1.99966e-09 0)
(3.09396e-11 -2.15662e-09 0)
(-8.22109e-11 -2.09035e-09 0)
(-4.07635e-11 -1.96642e-09 0)
(-5.25925e-11 -2.0142e-09 0)
(-2.72007e-11 -1.8926e-09 0)
(0 0 0)
(-4.42931e-11 -2.07336e-09 0)
(5.3685e-11 -2.01731e-09 0)
(-4.60769e-11 -4.70814e-09 0)
(-1.86437e-11 -1.78896e-09 0)
(-1.04261e-10 -1.83392e-09 0)
(5.97158e-12 -4.88317e-09 0)
(8.03345e-11 -1.92963e-09 0)
(1.48622e-11 -1.82133e-09 0)
(-2.35812e-11 -1.82086e-09 0)
(-5.1077e-11 -1.86674e-09 0)
(0 0 0)
(-2.09716e-11 -6.54075e-10 0)
(-7.54526e-11 -2.73902e-09 0)
(-9.29718e-11 -1.864e-09 0)
(-3.34878e-12 -2.13147e-09 0)
(4.52949e-11 -1.91364e-09 0)
(-5.09248e-11 -2.51418e-09 0)
(-2.46951e-11 -3.40255e-09 0)
(1.94844e-11 -1.78654e-09 0)
(-2.94264e-11 -1.78803e-09 0)
(0 0 0)
(0 0 0)
(0 0 0)
(0 0 0)
(0 0 0)
(0 0 0)
(0 0 0)
(0 0 0)
(0 0 0)
(0 0 0)
(0 0 0)
(0 0 0)
(0 0 0)
(0 0 0)
(0 0 0)
(0 0 0)
(0 0 0)
(0 0 0)
(0 0 0)
(0 0 0)
(0 0 0)
(0 0 0)
(0 0 0)
(0 0 0)
(0 0 0)
(0 0 0)
(-1.13069e-10 -1.60242e-09 0)
(6.30783e-12 -3.94023e-09 0)
(7.55938e-11 -1.70619e-09 0)
(2.01806e-10 -4.64677e-09 0)
(4.74765e-11 -1.8691e-09 0)
(2.43498e-12 -1.85484e-09 0)
(-4.04296e-11 -1.87232e-09 0)
(-5.03452e-11 -1.88724e-09 0)
(-9.88429e-12 -2.02851e-09 0)
(-1.65143e-12 -2.2149e-10 0)
(-1.40799e-11 -1.70037e-09 0)
(-8.57431e-12 -2.01619e-09 0)
(1.42696e-12 -2.16766e-09 0)
(-2.09215e-11 -6.06385e-10 0)
(-3.96719e-11 -9.772e-10 0)
(-4.8069e-11 -1.97572e-09 0)
(-1.4176e-11 -2.13569e-09 0)
(7.39231e-11 -2.16268e-09 0)
(6.03793e-11 -2.04931e-09 0)
(6.73895e-11 -4.25658e-09 0)
(6.41564e-11 -1.80212e-09 0)
(2.49396e-12 -1.89588e-09 0)
(-3.5804e-11 -2.1464e-09 0)
(-4.27011e-11 -2.20555e-09 0)
(0 0 0)
(2.43071e-11 -1.89609e-09 0)
(0 0 0)
(-2.92208e-11 -2.02591e-09 0)
(-2.60571e-11 -2.01551e-09 0)
(-5.17091e-13 -2.08146e-09 0)
(0 0 0)
(0 0 0)
(-1.46353e-10 -4.60339e-09 0)
(-1.47806e-10 -1.83121e-09 0)
(-1.15028e-10 -1.90828e-09 0)
(6.02398e-12 -2.8697e-09 0)