/*--------------------------------*- C++ -*----------------------------------*\
  =========                 |
  \\      /  F ield         | OpenFOAM: The Open Source CFD Toolbox
   \\    /   O peration     | Website:  https://openfoam.org
    \\  /    A nd           | Version:  12
     \\/     M anipulation  |
\*---------------------------------------------------------------------------*/
FoamFile
{
    format      ascii;
    class       volScalarField::Internal;
    location    "0.5";
    object      cloud:UCoeff;
}
// * * * * * * * * * * * * * * * * * * * * * * * * * * * * * * * * * * * * * //

dimensions      [1 0 0 0 0 0 0];

value           nonuniform List<scalar> 
3750
(
0
5.72218e-08
5.53763e-08
1.84945e-08
1.90358e-08
5.47963e-08
5.58572e-08
5.51949e-08
1.29876e-07
5.44588e-08
5.33935e-08
5.52493e-08
5.53704e-08
5.56766e-08
1.33888e-07
5.51478e-08
1.27493e-07
5.20111e-08
5.42359e-08
5.5016e-08
5.52292e-08
5.6169e-08
5.61071e-08
5.66312e-08
5.85026e-08
5.77042e-08
1.36467e-07
5.54447e-08
5.45059e-08
5.53941e-08
0
1.30121e-07
1.45466e-08
9.51764e-08
5.53944e-08
5.67965e-08
5.33278e-08
0
5.11556e-08
5.39698e-08
5.51055e-08
5.43085e-08
5.47045e-08
0
5.2765e-08
1.31029e-07
5.56259e-08
5.41609e-08
5.47071e-08
7.47848e-08
1.14889e-07
0
5.51323e-08
5.59335e-08
5.55932e-08
6.14245e-09
1.17188e-07
5.35953e-08
0
0
0
0
0
0
0
0
0
0
0
0
0
0
0
0
0
1.4063e-07
5.39659e-08
0
5.33965e-08
0
5.36956e-08
5.60505e-08
5.49242e-08
5.68336e-08
1.36536e-07
0
0
5.52598e-08
5.48521e-08
5.13006e-08
5.32648e-08
5.31717e-08
1.28367e-07
1.26714e-07
1.28388e-07
5.46349e-08
5.58436e-08
0
0
5.82504e-08
0
5.59262e-08
5.6792e-08
5.48106e-08
5.41872e-08
1.35869e-07
5.19649e-08
0
0
5.39145e-08
1.33016e-07
1.28485e-07
2.21393e-07
5.20844e-08
5.18935e-08
5.52826e-08
0
0
5.70764e-08
1.28081e-07
0
5.18045e-08
5.64065e-08
5.51468e-08
5.52246e-08
5.59216e-08
5.5799e-08
5.33198e-08
0
0
0
0
0
0
0
0
0
0
0
0
0
0
0
0
0
0
0
0
0
0
5.61582e-08
5.27334e-08
5.16113e-08
5.11717e-08
5.45864e-08
1.49481e-08
1.91928e-07
0
0
5.54186e-08
5.46375e-08
5.44242e-08
1.30261e-07
5.33124e-08
5.65917e-08
0
5.56173e-08
1.2816e-07
5.342e-08
5.5306e-08
0
5.57241e-08
5.51811e-08
5.57422e-08
5.76345e-08
5.74738e-08
5.60946e-08
9.71567e-08
7.2975e-08
1.31542e-07
5.36337e-08
1.29173e-07
5.14937e-08
5.2315e-08
1.25837e-08
3.41328e-08
5.56098e-08
5.57082e-08
5.61882e-08
5.45018e-08
5.42929e-08
5.39321e-08
5.65552e-08
5.5764e-08
5.27116e-08
1.30536e-07
5.10669e-08
5.50284e-08
5.43385e-08
5.45934e-08
5.55011e-08
5.43222e-08
0
0
0
0
0
0
0
0
0
0
0
0
0
0
0
0
0
0
0
0
0
0
0
1.70781e-07
6.48873e-08
5.32479e-08
5.31096e-08
5.42244e-08
5.57085e-08
0
5.51829e-08
5.54066e-08
5.52188e-08
5.47675e-08
5.53605e-08
0
5.3688e-08
5.52607e-08
5.71764e-08
0
5.45675e-08
5.37195e-08
5.61579e-08
5.58222e-08
5.68003e-08
5.63519e-08
5.57901e-08
5.53332e-08
8.33008e-08
9.90172e-08
8.42908e-08
4.69428e-08
1.09058e-07
5.33599e-08
5.35055e-08
5.42008e-08
5.37127e-08
5.72455e-08
5.69101e-08
5.76803e-08
5.75803e-08
1.82094e-08
2.11563e-08
5.29624e-08
5.29554e-08
6.02111e-08
5.02846e-08
5.49359e-08
5.49202e-08
1.30545e-07
5.14724e-08
9.14077e-08
1.50713e-08
0
0
0
0
0
0
0
0
0
0
0
0
0
0
0
0
0
0
0
0
0
0
0
0
0
5.6022e-08
5.55545e-08
0
5.33542e-08
5.49858e-08
0
5.56036e-08
5.61654e-08
5.62475e-08
5.51054e-08
5.3395e-08
5.48568e-08
5.61303e-08
0
5.50088e-08
5.72075e-08
5.66895e-08
0
5.51016e-08
5.66501e-08
5.60919e-08
5.49452e-08
1.35746e-07
5.43022e-08
5.36255e-08
5.40734e-08
1.38289e-07
0
5.36809e-08
5.52001e-08
5.50993e-08
5.59335e-08
5.70916e-08
5.44989e-08
5.46538e-08
5.58737e-08
5.72159e-08
5.65651e-08
5.43143e-08
5.35073e-08
5.41861e-08
1.04596e-07
7.10761e-08
0
0
0
5.45031e-08
5.96598e-08
1.25827e-07
5.23056e-08
0
0
0
0
0
0
0
0
0
0
0
0
0
0
0
0
0
0
0
0
0
0
0
0
0
5.56645e-08
0
5.50231e-08
5.52297e-08
0
5.55367e-08
5.57832e-08
5.65489e-08
0
5.5259e-08
5.53058e-08
5.51252e-08
5.52365e-08
5.53729e-08
5.58169e-08
5.77393e-08
1.3965e-08
2.9402e-08
1.35504e-07
5.53445e-08
5.63858e-08
5.58481e-08
5.52527e-08
9.24214e-08
8.68642e-08
5.44112e-08
5.78651e-08
5.6279e-08
5.44006e-08
5.39885e-08
5.59396e-08
0
5.5087e-08
5.78187e-08
6.51254e-08
4.22646e-08
5.45549e-08
5.55682e-08
6.61425e-08
6.67955e-08
6.10793e-08
9.86457e-08
5.47381e-08
0
1.32651e-07
1.00992e-07
5.55957e-09
0
5.57893e-08
5.68428e-08
0
0
0
0
0
0
0
0
0
0
0
0
0
0
0
0
0
0
0
0
0
0
0
0
0
5.58265e-08
5.57138e-08
5.49691e-08
5.46648e-08
5.69535e-08
0
5.50446e-08
1.31411e-07
5.79902e-08
1.69601e-09
5.22316e-08
6.89184e-08
7.64627e-08
9.17955e-08
5.39731e-08
5.41765e-08
5.39071e-08
1.28893e-07
9.41025e-08
8.28829e-08
5.67256e-08
7.85354e-09
4.1103e-08
5.62099e-08
5.64831e-08
5.62967e-08
5.58072e-08
5.63527e-08
5.66614e-08
5.46804e-08
5.54907e-08
5.52703e-08
5.54995e-08
5.52955e-08
5.46901e-08
5.53034e-08
5.58522e-08
5.63519e-08
5.94996e-08
5.43044e-08
5.16062e-08
5.30759e-08
9.26369e-08
8.64074e-08
0
1.30277e-07
5.32325e-08
5.40194e-08
5.4732e-08
5.72667e-08
0
0
0
0
0
0
0
0
0
0
0
0
0
0
0
0
0
0
0
0
0
0
0
0
0
5.56727e-08
5.53117e-08
5.47927e-08
5.42356e-08
5.50557e-08
5.58758e-08
5.57139e-08
5.65039e-08
5.28488e-08
5.27911e-08
2.73273e-08
6.15071e-08
6.76331e-08
5.44029e-08
9.71875e-08
7.54559e-08
1.25824e-07
5.21193e-08
5.32758e-08
5.57017e-08
5.70305e-08
5.59879e-08
5.78621e-08
0
5.73236e-08
5.65044e-08
5.55915e-08
5.54222e-08
5.51524e-08
5.56605e-08
5.48057e-08
5.6733e-08
5.69643e-08
5.52291e-08
5.50136e-08
0
5.51513e-08
5.55723e-08
5.68074e-08
5.6153e-08
5.54565e-08
5.43652e-08
5.41937e-08
5.47382e-08
5.49248e-08
5.41957e-08
5.19731e-08
1.29386e-07
1.3527e-07
5.70575e-08
0
0
0
0
0
0
0
0
0
0
0
0
0
0
0
0
0
0
0
0
0
0
0
0
0
5.4583e-08
6.11781e-08
9.32055e-08
7.32606e-08
5.39293e-08
5.40631e-08
1.34139e-07
5.25693e-08
1.28669e-07
5.04369e-08
5.14747e-08
5.71761e-08
5.64939e-08
5.38545e-08
5.19273e-08
1.29043e-07
5.02947e-08
5.33203e-08
5.55976e-08
5.94861e-08
0
5.59744e-08
5.65914e-08
5.81339e-08
0
5.56603e-08
5.51895e-08
5.56329e-08
5.43278e-08
5.45252e-08
9.09523e-08
9.51918e-08
2.34102e-08
1.25924e-08
8.82388e-08
4.65926e-08
2.85863e-08
5.44377e-08
5.6926e-08
5.67283e-08
0
5.45307e-08
5.52594e-08
5.47163e-08
5.52556e-08
5.63491e-08
0
5.38059e-08
5.48056e-08
5.85598e-08
5.52082e-08
0
0
0
0
0
0
0
0
0
0
0
0
0
0
0
0
0
0
0
0
0
0
0
0
5.70855e-08
5.50438e-08
1.31488e-07
5.27687e-08
5.33563e-08
9.56412e-08
7.75946e-08
1.308e-07
7.67295e-08
9.75018e-08
5.26314e-08
5.45399e-08
5.58202e-08
5.4957e-08
5.50771e-08
5.51849e-08
5.45225e-08
5.47115e-08
5.58891e-08
5.83962e-08
0
5.5121e-08
2.8961e-08
5.2142e-09
5.57138e-08
5.55795e-08
5.79944e-08
0
1.31393e-07
5.3242e-08
5.48465e-08
9.21293e-08
8.9611e-08
5.36727e-08
5.43336e-08
0
5.41458e-08
5.49535e-08
5.86459e-08
1.24623e-08
3.40639e-08
5.48474e-08
1.28839e-08
3.13631e-08
5.50725e-08
5.905e-08
0
5.61306e-08
7.35912e-08
1.16639e-07
5.75827e-08
0
0
0
0
0
0
0
0
0
0
0
0
0
0
0
0
0
0
0
0
0
0
0
0
3.03772e-08
6.1782e-10
7.02757e-08
1.15693e-07
5.41396e-08
5.58179e-08
5.51483e-08
1.35246e-07
7.90954e-08
1.02186e-07
1.22203e-07
5.37811e-08
5.45737e-08
1.33755e-07
5.84019e-08
0
5.48015e-08
1.35583e-07
5.28175e-08
5.34681e-08
0
5.52439e-08
5.55357e-08
5.49689e-08
5.46968e-08
5.60235e-08
0
5.60543e-08
5.52303e-08
0
5.49076e-08
1.42649e-07
5.50563e-08
5.36776e-08
5.27626e-08
1.30458e-07
5.32792e-08
0
5.56662e-08
5.60841e-08
5.44482e-08
5.49541e-08
0
5.57057e-08
5.6062e-08
0
5.93597e-08
0
5.32403e-08
5.58588e-08
6.46248e-08
4.86112e-08
5.51792e-08
0
0
0
0
0
0
0
0
0
0
0
0
0
0
0
0
0
0
0
0
0
0
0
5.5004e-08
5.47665e-08
5.45703e-08
5.57588e-08
5.64268e-08
5.9207e-08
5.8903e-08
5.58598e-08
5.397e-08
5.43105e-08
8.07501e-08
9.71327e-08
5.35401e-08
6.81174e-08
1.1629e-07
5.33424e-08
0
5.50096e-08
5.56681e-08
5.74789e-08
5.65955e-08
5.46594e-08
5.48266e-08
5.49541e-08
0
5.56673e-08
5.54259e-08
5.56523e-08
5.60578e-08
5.91028e-08
5.86998e-08
5.60956e-08
5.28346e-08
5.36339e-08
5.44271e-08
5.38716e-08
5.50169e-08
5.49192e-08
5.55757e-08
5.56748e-08
0
1.30174e-07
5.37347e-08
5.5239e-08
0
5.35549e-08
8.60187e-08
9.33852e-08
5.43492e-08
5.44569e-08
5.55039e-08
0
0
0
0
0
0
0
0
0
0
0
0
0
0
0
0
0
0
0
0
0
0
0
5.58578e-08
5.48363e-08
5.43715e-08
5.46228e-08
0
0
0
0
0
0
0
5.91688e-08
5.84258e-08
0
0
3.39697e-09
1.24785e-07
5.52222e-08
5.61565e-08
5.74106e-08
5.59989e-08
5.66355e-08
5.35329e-08
1.29923e-07
5.30153e-08
5.42329e-08
5.44994e-08
5.55245e-08
5.66015e-08
5.56838e-08
5.50211e-08
5.64141e-08
5.61346e-08
5.41139e-08
5.48671e-08
5.57195e-08
5.5123e-08
5.42225e-08
5.43344e-08
5.44341e-08
5.54988e-08
0
0
5.45478e-08
5.5383e-08
1.04662e-07
6.71224e-08
1.34009e-07
5.32345e-08
5.4234e-08
5.34378e-08
0
0
0
0
0
0
0
0
0
0
0
0
0
0
0
0
0
0
0
0
0
0
0
0
5.48196e-08
5.49156e-08
5.483e-08
5.51175e-08
5.5055e-08
5.49735e-08
5.45703e-08
5.57817e-08
5.9235e-08
0
1.30016e-07
5.87217e-08
9.24731e-09
4.15737e-08
1.30263e-07
1.3362e-07
2.24023e-08
1.8465e-08
5.95151e-08
1.32535e-07
5.43475e-08
1.3819e-07
5.32193e-08
5.17077e-08
5.27389e-08
8.85346e-08
1.75383e-08
5.35205e-08
1.37605e-07
5.49633e-08
5.30629e-08
5.49305e-08
5.57284e-08
5.53474e-08
5.9132e-08
5.79945e-08
1.21863e-08
6.02199e-08
9.96785e-08
5.41761e-08
5.44448e-08
5.56035e-08
1.49063e-08
2.72277e-08
0
0
5.5259e-08
5.61355e-08
5.54253e-08
5.4514e-08
0
0
0
0
0
0
0
0
0
0
0
0
0
0
0
0
0
0
0
0
0
0
0
0
0
0
5.45693e-08
5.52143e-08
5.5565e-08
0
1.29194e-07
5.3184e-08
5.5087e-08
5.45416e-08
1.31751e-07
5.28271e-08
5.59096e-08
5.46092e-08
4.07383e-09
1.27887e-07
2.61244e-08
8.19671e-08
5.59421e-08
5.41083e-08
5.78082e-08
0
5.59522e-08
5.58332e-08
5.5016e-08
5.41929e-08
1.06811e-07
6.67938e-08
5.52742e-08
5.52542e-08
9.07069e-08
8.99378e-08
1.11362e-08
3.40515e-08
5.56214e-08
5.7367e-08
5.69683e-08
5.54597e-08
5.64886e-08
5.32887e-08
5.45143e-08
5.45432e-08
1.31228e-07
1.30244e-07
5.49638e-08
8.29714e-08
1.83326e-07
5.29342e-08
5.36273e-08
0
0
0
0
0
0
0
0
0
0
0
0
0
0
0
0
0
0
0
0
0
0
0
0
0
0
0
5.53684e-08
5.44951e-08
5.55014e-08
5.59113e-08
5.50487e-08
0
1.30003e-07
1.30877e-07
5.21973e-08
5.40901e-08
5.39113e-08
5.56628e-08
5.52095e-08
5.48502e-08
5.56752e-08
1.37275e-07
0
5.4844e-08
5.58055e-08
0
5.64913e-08
5.66956e-08
5.78239e-08
0
6.44678e-08
9.11304e-08
7.34362e-08
5.23876e-08
1.32797e-07
5.50574e-08
8.64491e-08
4.78679e-08
2.82274e-08
5.74447e-08
5.8147e-08
5.61602e-08
5.52084e-08
5.51213e-08
5.29734e-08
5.44475e-08
5.41011e-08
5.3181e-08
1.37152e-07
5.36409e-08
8.13617e-08
9.26721e-08
5.19954e-08
5.37765e-08
0
0
0
0
0
0
0
0
0
0
0
0
0
0
0
0
0
0
0
0
0
0
0
0
0
0
0
5.40542e-08
5.36607e-08
1.33749e-07
5.59579e-08
0
5.45983e-08
5.51678e-08
5.53089e-08
5.53653e-08
2.82142e-08
5.23418e-09
5.59277e-08
5.46943e-08
1.32334e-07
5.56289e-08
0
5.69018e-08
5.65705e-08
5.60233e-08
0
5.55155e-08
5.81872e-08
5.99824e-08
0
1.34882e-07
5.2982e-08
5.28424e-08
5.32617e-08
1.3563e-07
5.61901e-08
5.26116e-08
5.26367e-08
5.70744e-08
5.86522e-08
5.80569e-08
2.23865e-08
1.49014e-08
5.34591e-08
5.47001e-08
5.4847e-08
5.82271e-08
5.06555e-08
2.32609e-07
8.01274e-08
9.73412e-08
5.08147e-08
5.25655e-08
5.30217e-08
5.548e-08
0
0
0
0
0
0
0
0
0
0
0
0
0
0
0
0
0
0
0
0
0
0
0
0
0
0
7.73438e-08
9.99333e-08
5.44814e-08
5.55262e-08
5.49828e-08
5.48839e-08
5.38128e-08
5.49584e-08
5.50479e-08
5.54404e-08
5.5925e-08
0
5.54322e-08
5.63065e-08
5.59827e-08
5.54559e-08
5.92033e-08
0
5.61951e-08
5.51172e-08
5.46615e-08
5.49063e-08
5.5547e-08
5.71889e-08
5.6518e-08
5.51945e-08
5.57071e-08
5.43924e-08
0
5.63282e-08
5.57406e-08
1.35244e-07
5.32434e-08
5.3777e-08
1.37009e-07
5.48115e-08
5.36047e-08
5.36007e-08
5.41144e-08
0
1.97639e-08
8.40684e-08
5.41021e-08
5.6928e-08
5.46256e-08
7.49404e-08
1.04123e-07
5.32163e-08
5.32346e-08
0
0
0
0
0
0
0
0
0
0
0
0
0
0
0
0
0
0
0
0
0
0
0
0
0
0
5.1141e-08
1.27294e-07
5.23221e-08
1.34697e-07
5.41393e-08
5.39755e-08
5.41729e-08
5.4339e-08
5.58517e-08
5.95627e-09
4.57964e-08
5.57211e-08
5.72997e-08
1.62878e-08
2.6777e-08
5.52959e-08
5.69715e-08
5.72622e-08
5.60805e-08
1.30661e-07
5.34026e-08
5.4426e-08
5.70843e-08
5.76913e-08
0
5.44302e-08
0
5.58261e-08
5.57154e-08
5.64081e-08
0
0
1.34266e-07
5.37803e-08
5.45992e-08
8.30601e-08
9.6003e-08
5.3716e-08
5.26075e-08
1.286e-07
1.28203e-07
1.26641e-07
5.38806e-08
5.46365e-08
5.54922e-08
5.52524e-08
5.36392e-08
9.93907e-08
7.75094e-09
0
0
0
0
0
0
0
0
0
0
0
0
0
0
0
0
0
0
0
0
0
0
0
0
0
0
1.18108e-07
5.21181e-08
1.27351e-07
1.32269e-07
5.45008e-08
5.51472e-08
5.47669e-08
5.4313e-08
5.59719e-08
2.09502e-08
1.81398e-08
5.51549e-08
5.71204e-08
5.70297e-08
5.51171e-08
5.43762e-08
5.63912e-08
5.66153e-08
5.54339e-08
5.43769e-08
5.29587e-08
5.56429e-08
5.80489e-08
0
5.49969e-08
5.51603e-08
0
5.51882e-08
5.58634e-08
5.56387e-08
5.56193e-08
1.39545e-07
5.46963e-08
5.36762e-08
5.37213e-08
1.30918e-07
5.30296e-08
5.40997e-08
5.44495e-08
5.47562e-08
5.57582e-08
5.50693e-08
5.57042e-08
5.51888e-08
5.43199e-08
7.96591e-08
1.00557e-07
5.32897e-08
0
0
0
0
0
0
0
0
0
0
0
0
0
0
0
0
0
0
0
0
0
0
0
0
0
0
0
1.30285e-07
5.1822e-08
1.27406e-07
5.22296e-08
1.36234e-07
5.40115e-08
5.3413e-08
5.37207e-08
5.46905e-08
5.56287e-08
5.58155e-08
5.69763e-08
5.9461e-08
0
5.5109e-08
5.55766e-08
5.70453e-08
5.63315e-08
5.56969e-08
5.46745e-08
5.47712e-08
5.84608e-08
0
5.70127e-08
5.46579e-08
5.47004e-08
5.64748e-08
5.92362e-08
0
5.46997e-08
1.37208e-07
5.46569e-08
5.48466e-08
9.00792e-08
8.5186e-08
5.31479e-08
5.40826e-08
5.4786e-08
5.58757e-08
5.74641e-08
1.42614e-08
3.11619e-08
5.58302e-08
5.60837e-08
0
0
0
9.86773e-09
1.0497e-07
1.28783e-07
0
0
0
0
0
0
0
0
0
0
0
0
0
0
0
0
0
0
0
0
0
0
0
0
0
5.55102e-08
5.51046e-08
5.33318e-08
1.27244e-07
1.373e-07
5.41039e-08
5.20687e-08
5.15138e-08
1.33079e-07
5.65272e-08
5.6571e-08
5.6013e-08
5.0069e-09
4.64901e-08
5.56415e-08
5.53094e-08
5.82186e-08
5.83556e-08
5.57929e-08
5.50319e-08
5.79081e-08
2.18141e-08
1.73436e-08
5.46253e-08
9.48345e-08
7.88282e-08
5.37829e-08
5.59151e-08
5.66512e-08
5.61074e-08
5.65496e-08
5.64986e-08
5.59682e-08
5.58464e-08
5.4786e-08
5.51095e-08
5.52487e-08
5.69014e-08
0
5.57863e-08
5.45374e-08
5.5369e-08
5.63405e-08
1.91147e-08
2.13383e-08
5.59287e-08
5.45295e-08
1.30527e-07
5.31125e-08
5.44151e-08
5.31804e-08
5.35523e-08
0
0
0
0
0
0
0
0
0
0
0
0
0
0
0
0
0
0
0
0
0
0
0
0
0
0
9.1794e-09
1.1775e-07
5.53367e-08
5.25482e-08
1.0258e-07
6.82399e-08
0
5.56146e-08
1.33872e-07
5.32665e-08
5.37386e-08
5.39419e-08
5.58754e-08
5.65524e-08
5.48196e-08
5.79357e-08
5.73965e-08
2.20354e-08
5.37405e-08
8.3713e-08
1.2722e-07
5.13605e-08
5.25689e-08
9.33016e-08
1.71797e-08
5.72698e-08
5.67208e-08
2.87236e-08
4.72034e-09
5.56956e-08
5.50746e-08
5.61098e-08
0
5.66272e-08
0
1.37318e-07
5.64304e-08
0
5.50843e-08
5.58681e-08
5.55462e-08
5.56159e-08
0
5.43429e-08
5.51354e-08
5.76127e-08
5.52281e-08
5.47135e-08
5.44736e-08
0
0
0
0
0
0
0
0
0
0
0
0
0
0
0
0
0
0
0
0
0
0
0
5.6033e-08
5.61326e-08
5.61913e-08
0
0
5.67274e-08
0
5.84263e-08
1.33792e-07
5.5451e-08
5.53609e-08
5.4031e-08
5.43172e-08
5.40499e-08
5.33633e-08
1.3711e-07
5.5032e-08
5.5165e-08
5.59431e-08
5.70844e-08
1.32223e-07
1.24337e-07
5.22862e-08
5.2717e-08
5.34723e-08
5.31005e-08
5.90427e-08
5.87037e-08
0
5.64103e-08
0
5.43873e-08
0
5.29441e-08
5.59924e-08
1.43638e-08
3.00224e-08
5.59629e-08
5.69236e-08
5.68005e-08
5.63871e-08
0
5.65063e-08
5.68323e-08
5.46449e-08
5.46567e-08
5.56782e-08
5.68587e-08
5.50145e-08
5.51443e-08
5.48513e-08
5.45309e-08
0
0
0
0
0
0
0
0
0
0
0
0
0
0
0
0
0
0
0
0
0
0
0
5.72202e-08
0
1.31193e-07
5.36695e-08
5.42432e-08
5.45268e-08
5.57609e-08
3.05499e-08
4.05069e-08
1.74891e-08
1.04675e-07
7.07713e-08
5.34823e-08
5.23526e-08
5.39085e-08
1.36273e-07
5.33346e-08
1.28484e-07
1.35138e-07
5.35957e-08
5.29839e-08
5.2229e-08
5.32033e-08
5.39985e-08
5.44213e-08
0
5.41549e-08
5.68061e-08
5.42601e-08
1.39508e-07
5.64387e-08
5.32744e-08
1.27315e-07
5.17511e-08
5.19859e-08
0
5.61152e-08
5.64231e-08
5.79139e-08
5.59057e-08
0
5.55607e-08
1.39292e-07
5.57276e-08
5.39408e-08
5.75467e-08
5.42652e-08
5.35117e-08
5.37419e-08
5.38962e-08
5.40625e-08
0
0
0
0
0
0
0
0
0
0
0
0
0
0
0
0
0
0
0
0
0
0
0
0
5.62213e-08
5.58069e-08
5.50409e-08
1.29984e-07
5.40808e-08
1.33054e-07
5.41973e-08
0
5.41463e-08
5.63215e-08
3.69401e-09
1.24451e-07
5.28674e-08
5.34495e-08
5.59753e-08
5.63195e-08
5.61467e-08
5.41815e-08
2.27223e-07
1.30009e-07
5.2166e-08
5.50299e-08
5.48778e-08
5.44269e-08
0
1.30308e-07
5.26094e-08
5.53002e-08
1.31605e-07
5.65742e-08
5.80947e-08
5.69822e-08
5.48916e-08
4.97635e-08
1.27254e-07
5.73616e-08
0
5.60123e-08
1.3739e-07
5.43477e-08
5.24026e-08
5.33773e-08
8.42531e-08
9.74984e-08
5.33511e-08
5.51781e-08
2.57792e-08
8.18807e-09
5.32967e-08
5.54188e-08
0
0
0
0
0
0
0
0
0
0
0
0
0
0
0
0
0
0
0
0
0
0
0
0
0
1.38603e-07
5.54397e-08
5.47171e-08
5.4685e-08
5.64736e-08
0
5.56613e-08
5.54902e-08
5.50077e-08
6.85348e-10
5.47304e-08
5.54936e-08
5.54203e-08
5.55567e-08
5.59018e-08
1.07053e-07
3.99706e-09
0
5.74479e-08
1.8176e-08
8.77702e-08
1.29122e-07
1.27406e-07
7.39934e-08
1.02232e-07
0
0
5.52202e-08
5.79895e-08
6.09865e-08
0
5.57545e-08
5.43075e-08
0
0
5.36284e-08
1.37476e-07
5.41682e-08
5.3942e-08
5.61944e-08
5.56609e-08
5.46904e-08
5.57794e-08
5.58998e-08
5.51508e-08
5.82767e-08
0
5.52769e-08
5.48424e-08
5.44614e-08
0
0
0
0
0
0
0
0
0
0
0
0
0
0
0
0
0
0
0
0
0
0
0
0
0
5.66122e-08
5.67492e-08
5.4669e-08
5.76961e-08
0
5.50822e-08
0
5.50642e-08
5.45371e-08
8.84612e-08
9.06798e-08
5.41582e-08
5.4191e-08
5.47982e-08
5.50147e-08
5.49495e-08
5.54051e-08
5.64273e-08
5.74256e-08
5.61263e-08
5.53696e-08
5.44567e-08
5.591e-08
5.47775e-08
5.95174e-08
1.26307e-07
5.582e-08
0
5.45142e-08
5.626e-08
0
5.47089e-08
0
2.2343e-07
5.09378e-08
9.30112e-08
8.17717e-08
5.52113e-08
5.67674e-08
5.67596e-08
0
5.38897e-08
5.63375e-08
1.67021e-08
2.51581e-08
5.56523e-08
5.6423e-08
1.36397e-07
5.30606e-08
5.5032e-08
0
0
0
0
0
0
0
0
0
0
0
0
0
0
0
0
0
0
0
0
0
0
0
0
0
1.37497e-07
1.38595e-07
0
5.5192e-08
5.63669e-08
5.58572e-08
5.62546e-08
0
1.29479e-07
5.35588e-08
1.35103e-07
5.36134e-08
5.34069e-08
5.52599e-08
5.64983e-08
5.47279e-08
5.40591e-08
5.46097e-08
5.7182e-08
5.47923e-08
5.57071e-08
5.51893e-08
0
5.49612e-08
5.54195e-08
5.5364e-08
5.63995e-08
1.30825e-07
5.26056e-08
5.28739e-08
6.80237e-08
1.77017e-07
6.57527e-08
5.43313e-08
1.31538e-07
5.28638e-08
1.31678e-07
5.54625e-08
1.33791e-07
5.37608e-08
5.37451e-08
5.34461e-08
0
5.47682e-08
5.57655e-08
5.92026e-08
0
5.58144e-08
0
5.3249e-08
5.34635e-08
5.22323e-08
0
0
0
0
0
0
0
0
0
0
0
0
0
0
0
0
0
0
0
0
0
0
0
5.39581e-08
5.55541e-08
5.63797e-08
5.55751e-08
5.61048e-08
5.55516e-08
5.57121e-08
5.44195e-08
5.47886e-08
5.57408e-08
5.58413e-08
5.5347e-08
6.89225e-08
1.18817e-07
5.48321e-08
5.22068e-08
5.07083e-08
5.94569e-08
1.22338e-07
5.68459e-08
0
5.30274e-08
5.57272e-08
0
5.55814e-08
0
1.3119e-07
5.47623e-08
6.7493e-13
6.46827e-08
4.36478e-08
5.70039e-08
0
5.54176e-08
5.57832e-08
5.59772e-08
1.33239e-07
0
0
5.54391e-08
5.4253e-08
5.46929e-08
1.3881e-07
0
5.49245e-08
5.52233e-08
5.64122e-08
0
8.69837e-08
9.20546e-08
5.31588e-08
5.217e-08
0
0
0
0
0
0
0
0
0
0
0
0
0
0
0
0
0
0
0
0
0
0
0
5.42526e-08
1.35535e-07
5.4167e-08
5.43937e-08
5.47948e-08
5.58986e-08
5.50774e-08
5.288e-08
5.32746e-08
5.4628e-08
5.5306e-08
5.48347e-08
5.52341e-08
0
5.42407e-08
9.98948e-08
7.15615e-08
5.5754e-08
5.84318e-08
0
5.52689e-08
5.61041e-08
1.89306e-08
2.18218e-08
5.56695e-08
5.59482e-08
5.4981e-08
0
1.8375e-07
7.84167e-08
1.24359e-07
5.47918e-08
1.33326e-07
5.31291e-08
5.32996e-08
5.51019e-08
5.46793e-08
5.54124e-08
5.64596e-08
5.64762e-08
5.5645e-08
5.42379e-08
0
1.36859e-07
5.66429e-08
2.51876e-08
9.81233e-09
5.50015e-08
5.85506e-08
0
5.54769e-08
0
0
0
0
0
0
0
0
0
0
0
0
0
0
0
0
0
0
0
0
0
0
0
0
5.4139e-08
5.41926e-08
5.48848e-08
5.51482e-08
5.48029e-08
1.35604e-07
5.37214e-08
1.2605e-07
5.14989e-08
5.4036e-08
5.54094e-08
5.45366e-08
5.72237e-08
5.47341e-08
5.45493e-08
5.36695e-08
5.58741e-08
5.51599e-08
5.48922e-08
5.70205e-08
5.64661e-08
5.95482e-08
1.32076e-08
3.23995e-08
5.38439e-08
0
5.5833e-08
1.29174e-07
1.27011e-07
5.27424e-08
5.40813e-08
1.32413e-07
5.36851e-08
5.35618e-08
5.40907e-08
5.49791e-08
5.63606e-08
5.60102e-08
5.61624e-08
5.60463e-08
5.56363e-08
5.55749e-08
5.55321e-08
5.5105e-08
5.49269e-08
5.37848e-08
5.49158e-08
5.52108e-08
5.54105e-08
0
5.48984e-08
0
0
0
0
0
0
0
0
0
0
0
0
0
0
0
0
0
0
0
0
0
0
0
0
5.42052e-08
0
0
0
0
6.27845e-08
1.24694e-07
5.24967e-08
7.40673e-08
1.09005e-07
0
5.43337e-08
5.83744e-08
0
5.56626e-08
5.45633e-08
5.8247e-08
0
5.44101e-08
5.71975e-08
0
5.7487e-08
5.53753e-08
6.76251e-08
1.15907e-07
1.36679e-07
5.26959e-08
1.2684e-07
6.91742e-08
1.15678e-07
5.35256e-08
5.4561e-08
5.36465e-08
5.42221e-08
5.57005e-08
5.60457e-08
5.56033e-08
5.54474e-08
5.55066e-08
5.54186e-08
5.53444e-08
5.55747e-08
5.53643e-08
5.55943e-08
5.52114e-08
5.4096e-08
1.77537e-07
1.21416e-07
2.33716e-08
5.43212e-08
0
0
0
0
0
0
0
0
0
0
0
0
0
0
0
0
0
0
0
0
0
0
0
0
0
0
5.54613e-08
5.60276e-08
5.48669e-08
1.37845e-07
5.43537e-08
5.1969e-08
1.27615e-07
5.10248e-08
2.71954e-08
7.33003e-08
8.43076e-09
3.97243e-08
5.7189e-08
5.3921e-08
5.0058e-09
4.70706e-08
5.59585e-08
0
1.068e-07
7.35764e-08
5.4898e-08
5.38334e-08
5.33682e-08
5.46096e-08
0
0
0
0
5.66352e-08
6.21378e-08
1.22336e-07
5.50786e-08
5.53311e-08
5.62077e-08
5.57394e-08
5.57035e-08
5.59485e-08
5.51445e-08
5.49242e-08
5.5185e-08
5.53431e-08
5.55844e-08
2.22562e-08
8.54653e-08
5.45536e-08
5.2952e-08
1.35111e-07
5.35134e-08
5.43805e-08
0
0
0
0
0
0
0
0
0
0
0
0
0
0
0
0
0
0
0
0
0
0
0
0
0
5.48398e-08
1.35527e-07
5.35312e-08
5.36244e-08
5.46351e-08
5.14408e-08
5.18249e-08
0
5.50337e-08
5.43545e-08
5.33286e-08
5.63851e-08
5.57624e-08
5.56008e-08
5.50983e-08
5.52368e-08
5.52788e-08
5.54778e-08
5.54352e-08
7.9356e-08
1.00581e-07
5.58746e-08
0
0
0
1.36955e-07
5.2372e-08
5.26354e-08
2.35323e-07
0
5.46028e-08
5.54443e-08
5.481e-08
5.50856e-08
5.67154e-08
5.61254e-08
5.63933e-08
5.48942e-08
5.60872e-08
5.36483e-08
5.35009e-08
5.47489e-08
0
1.8952e-07
7.6896e-08
2.16415e-08
1.54291e-08
5.68553e-08
5.66189e-08
5.50774e-08
0
0
0
0
0
0
0
0
0
0
0
0
0
0
0
0
0
0
0
0
0
0
0
0
0
0
5.629e-08
5.70538e-08
5.56618e-08
5.46067e-08
1.29991e-07
5.37915e-08
5.60593e-08
5.57149e-08
5.36172e-08
5.28941e-08
1.32414e-07
5.33488e-08
0
5.49494e-08
5.46806e-08
5.47799e-08
1.32967e-07
5.41001e-08
1.0561e-07
6.75213e-08
5.66596e-08
5.46708e-08
5.40418e-08
5.91701e-08
5.61377e-08
5.37179e-08
5.22405e-08
5.47745e-08
1.33186e-07
5.40878e-08
5.46833e-08
5.61779e-08
5.58868e-08
5.74619e-08
5.64024e-08
0
5.4769e-08
1.29861e-07
5.29376e-08
8.72329e-08
8.80581e-08
5.46387e-08
5.54006e-08
6.75571e-08
6.9884e-08
2.88533e-08
5.88297e-08
5.61201e-08
5.44968e-08
0
0
0
0
0
0
0
0
0
0
0
0
0
0
0
0
0
0
0
0
0
0
0
0
0
7.17246e-08
3.66978e-08
5.61145e-08
5.5289e-08
1.30432e-07
5.32374e-08
9.01706e-09
3.97764e-08
5.39715e-08
7.13962e-08
1.11293e-07
5.63733e-08
5.56521e-08
5.43339e-08
5.31087e-08
5.35017e-08
5.42861e-08
6.12783e-08
1.27331e-07
5.44652e-08
5.38307e-08
5.47029e-08
5.53233e-08
5.43734e-08
5.65028e-08
2.52858e-08
9.1943e-09
1.29586e-07
1.68875e-08
2.54285e-08
5.56796e-08
5.47154e-08
5.47734e-08
5.99931e-08
5.79138e-08
5.29081e-08
5.32479e-08
5.24342e-08
1.31209e-07
5.26162e-08
5.22852e-08
5.52038e-08
5.54168e-08
1.39139e-07
5.54821e-08
5.45119e-08
5.95918e-08
5.9113e-08
5.45355e-08
5.35462e-08
0
0
0
0
0
0
0
0
0
0
0
0
0
0
0
0
0
0
0
0
0
0
0
0
0
7.72624e-08
2.98998e-08
5.39247e-08
1.29778e-07
0
5.23136e-08
5.50665e-08
5.50374e-08
5.42777e-08
5.4151e-08
6.43175e-08
1.19444e-07
5.54993e-08
5.44149e-08
5.40686e-08
5.44896e-08
5.42491e-08
5.46667e-08
5.50182e-08
5.78354e-08
8.83076e-08
8.87795e-08
5.76733e-08
0
1.30446e-07
1.27992e-07
1.27402e-07
5.10161e-08
5.11096e-08
5.86139e-08
0
5.52382e-08
5.41364e-08
5.72581e-08
5.58536e-08
5.49133e-08
5.34479e-08
1.29861e-07
5.31694e-08
5.29618e-08
0
1.31991e-07
0
5.67808e-08
5.72137e-08
5.55882e-08
5.58898e-08
5.67984e-08
5.58932e-08
5.38288e-08
0
0
0
0
0
0
0
0
0
0
0
0
0
0
0
0
0
0
0
0
0
0
0
0
0
1.33197e-07
5.59994e-08
1.328e-07
1.17751e-08
1.02848e-07
5.29507e-08
5.36163e-08
5.48647e-08
1.32191e-07
5.23095e-08
1.03375e-07
7.1941e-08
5.33117e-08
5.41535e-08
5.31133e-08
7.28217e-08
1.06884e-07
5.3361e-08
5.42991e-08
5.51096e-08
5.53361e-08
5.5209e-08
5.52839e-08
1.32722e-07
9.78847e-08
9.55469e-09
5.33478e-08
5.35957e-08
0
5.93027e-08
0
1.03692e-07
7.02937e-08
5.42535e-08
5.45922e-08
5.55521e-08
1.31762e-07
5.0106e-08
1.25963e-07
5.07466e-08
2.52727e-08
1.61397e-07
5.35616e-08
1.37643e-07
5.50694e-08
5.478e-08
5.50881e-08
5.60533e-08
5.51517e-08
5.42231e-08
0
0
0
0
0
0
0
0
0
0
0
0
0
0
0
0
0
0
0
0
0
0
0
0
0
5.44864e-08
5.52677e-08
5.66574e-08
0
0
5.42592e-08
5.45657e-08
5.42919e-08
5.78256e-08
0
8.91938e-08
9.34398e-08
5.31353e-08
5.32766e-08
5.3601e-08
5.33132e-08
9.361e-08
8.0749e-08
2.61631e-08
7.42857e-09
5.60149e-08
5.62588e-08
5.5539e-08
5.50272e-08
5.47738e-08
5.55281e-08
1.29321e-08
2.98767e-08
5.57124e-08
5.74593e-08
5.72555e-08
5.78923e-08
2.93734e-08
3.36789e-08
5.61984e-08
9.97083e-08
5.41675e-08
5.22703e-08
5.10261e-08
1.27224e-07
5.32059e-08
0
5.59272e-08
5.60483e-08
5.73045e-08
5.7974e-08
5.65184e-08
5.62813e-08
5.62626e-08
5.50404e-08
5.7735e-08
0
0
0
0
0
0
0
0
0
0
0
0
0
0
0
0
0
0
0
0
0
0
0
0
5.34231e-08
5.46417e-08
5.46691e-08
0
7.43684e-08
1.04871e-07
1.29087e-07
5.32347e-08
0
5.59769e-08
5.9395e-08
0
5.55647e-08
1.31971e-07
5.25153e-08
1.29066e-07
5.10059e-08
1.28354e-07
5.34098e-08
5.48289e-08
5.78391e-08
0
5.5686e-08
5.65113e-08
5.64141e-08
5.57105e-08
5.48613e-08
5.40972e-08
5.33459e-08
1.33658e-07
5.3506e-08
5.35504e-08
5.43305e-08
5.51697e-08
0
5.41259e-08
5.54379e-08
0
5.55537e-08
5.46668e-08
5.395e-08
1.35788e-07
5.42257e-08
5.39494e-08
1.38752e-07
5.68571e-08
5.47261e-08
5.53938e-08
1.62476e-08
2.49814e-08
5.52665e-08
5.57631e-08
0
0
0
0
0
0
0
0
0
0
0
0
0
0
0
0
0
0
0
0
0
0
0
5.43624e-08
5.44364e-08
5.35614e-08
5.47262e-08
5.59569e-08
0
1.28522e-07
8.74813e-08
8.66256e-08
8.51651e-08
2.38965e-08
5.6456e-08
0
0
5.48144e-08
5.44776e-08
5.37235e-08
5.37138e-08
5.89288e-08
1.26673e-07
5.69048e-08
0
5.66641e-08
5.64039e-08
5.60099e-08
5.60292e-08
5.47057e-08
1.04419e-07
6.91351e-08
5.40058e-08
1.30662e-07
5.15313e-08
5.21981e-08
5.35295e-08
5.50077e-08
0
5.37249e-08
5.55284e-08
0
5.64852e-08
5.50661e-08
9.99885e-08
4.84331e-08
6.96658e-08
7.38766e-08
5.80868e-08
5.7116e-08
5.74008e-08
0
5.58355e-08
6.87574e-08
4.1603e-08
0
0
0
0
0
0
0
0
0
0
0
0
0
0
0
0
0
0
0
0
0
0
0
6.70218e-08
1.16523e-07
5.54151e-08
0
5.5003e-08
5.43479e-08
5.53426e-08
5.61861e-08
5.7701e-08
0
5.69785e-08
5.73772e-08
5.54431e-08
5.50417e-08
0
0
5.4047e-08
5.59218e-08
5.5813e-08
5.52997e-08
5.4931e-08
5.50123e-08
5.79992e-08
5.62839e-08
5.56379e-08
0
0
0
5.46301e-08
5.52536e-08
5.62233e-08
5.47406e-08
5.42322e-08
7.53919e-08
3.53812e-08
5.44801e-08
5.42506e-08
8.42294e-08
2.43479e-08
5.4457e-08
5.60789e-08
0
5.42749e-08
5.6716e-08
5.79437e-08
5.71713e-08
5.73107e-08
5.65932e-08
5.45555e-08
5.50838e-08
5.43829e-08
0
0
0
0
0
0
0
0
0
0
0
0
0
0
0
0
0
0
0
0
0
0
0
0
5.55392e-08
5.57831e-08
1.33386e-07
5.33341e-08
5.33268e-08
0
5.36492e-08
5.56993e-08
5.66503e-08
5.75166e-08
5.90361e-08
0
5.55061e-08
5.51598e-08
1.67635e-08
2.265e-08
5.17238e-08
5.55974e-08
5.55463e-08
5.5321e-08
5.46753e-08
7.28254e-08
8.07706e-08
3.04045e-08
3.76811e-08
5.62189e-08
1.28716e-07
5.29811e-08
0
5.44865e-08
5.47472e-08
5.53196e-08
5.46579e-08
1.32535e-07
0
5.39802e-08
5.42233e-08
5.53937e-08
5.3263e-08
5.6828e-08
0
1.31578e-07
8.74772e-08
9.54465e-08
0
5.578e-08
5.64096e-08
5.6832e-08
5.58964e-08
5.59526e-08
5.48522e-08
0
0
0
0
0
0
0
0
0
0
0
0
0
0
0
0
0
0
0
0
0
0
0
0
5.79763e-08
2.18223e-08
8.14586e-08
5.24936e-08
5.31118e-08
5.39401e-08
5.47458e-08
5.95047e-08
5.15321e-09
4.79263e-08
5.55095e-08
5.70104e-08
1.10696e-08
1.01619e-07
1.27508e-07
1.27907e-07
7.38605e-08
1.06199e-07
5.73681e-08
2.75152e-08
1.76543e-08
4.37096e-08
1.04123e-07
7.53318e-08
9.41329e-09
3.73159e-08
9.42036e-08
8.02887e-08
5.33899e-08
5.53163e-08
5.51072e-08
5.46069e-08
0
0
5.61576e-08
1.27684e-07
1.26347e-07
8.71299e-08
8.9843e-08
0
5.54893e-08
5.48543e-08
5.5878e-08
5.71279e-08
5.68751e-08
5.53124e-08
5.68907e-08
0
0
1.37486e-07
5.46001e-08
5.40583e-08
0
0
0
0
0
0
0
0
0
0
0
0
0
0
0
0
0
0
0
0
0
0
0
5.58334e-08
5.54684e-08
5.36995e-08
5.39431e-08
5.45394e-08
5.46798e-08
5.47027e-08
5.64544e-08
1.39671e-07
5.57106e-08
1.63739e-08
1.00674e-07
0
5.28028e-08
5.43998e-08
5.48496e-08
5.30519e-08
5.46701e-08
5.64848e-08
0
5.62492e-08
5.6145e-08
5.56321e-08
6.55235e-08
1.21045e-07
5.33426e-08
0
1.29802e-07
5.36451e-08
5.37815e-08
5.10383e-08
5.34149e-08
5.47197e-08
5.81641e-08
0
5.32479e-08
5.24034e-08
5.31816e-08
5.43437e-08
5.86083e-08
1.25537e-07
5.25344e-08
5.78395e-08
5.74836e-08
5.50787e-08
5.36503e-08
5.40917e-08
1.36494e-07
5.48262e-08
0
3.9376e-09
1.23517e-07
0
0
0
0
0
0
0
0
0
0
0
0
0
0
0
0
0
0
0
0
0
0
0
5.57077e-08
5.47565e-08
5.42201e-08
5.39229e-08
5.41186e-08
9.26385e-08
8.53242e-08
5.51561e-08
5.54224e-08
1.06976e-07
7.15151e-08
0
5.48795e-08
5.44276e-08
5.64194e-08
0
5.36755e-08
5.44446e-08
5.56168e-08
5.58139e-08
5.74053e-08
5.63954e-08
5.51398e-08
5.46327e-08
5.49153e-08
5.40165e-08
5.43756e-08
5.5525e-08
5.39636e-08
1.28913e-07
1.27073e-07
1.2761e-07
5.46017e-08
0
5.58075e-08
0
5.64243e-08
5.37964e-08
5.55867e-08
0
5.63121e-08
5.53522e-08
5.62053e-08
0
0
0
5.70097e-08
5.73278e-08
1.36757e-07
1.31989e-07
5.48046e-08
0
5.50732e-08
0
0
0
0
0
0
0
0
0
0
0
0
0
0
0
0
0
0
0
0
0
0
0
5.3685e-08
5.53705e-08
1.30785e-07
2.3328e-08
1.27892e-08
9.05511e-08
9.76875e-08
5.63064e-08
1.31295e-07
5.16468e-08
0
5.61814e-08
5.27064e-08
5.36376e-08
1.31347e-07
5.2886e-08
5.38792e-08
6.26504e-08
4.22996e-08
5.71872e-08
8.28792e-09
3.99263e-08
5.47776e-08
5.52367e-08
5.538e-08
5.56722e-08
5.60937e-08
5.60785e-08
0
5.53363e-08
5.49015e-08
5.45017e-08
5.44323e-08
5.35571e-08
5.39106e-08
5.16475e-08
7.03074e-08
1.15729e-07
0
5.50515e-08
5.55041e-08
5.55261e-08
0
5.50176e-08
5.72591e-08
5.73212e-08
0
5.63941e-08
5.7236e-08
5.68244e-08
5.38629e-08
5.31412e-08
0
0
5.47903e-08
0
0
0
0
0
0
0
0
0
0
0
0
0
0
0
0
0
0
0
5.47729e-08
5.50521e-08
5.38992e-08
5.50721e-08
5.57066e-08
5.75305e-08
0
0
5.89727e-08
5.80601e-08
5.40842e-08
5.20703e-08
2.22659e-07
5.07516e-08
5.69957e-08
0
5.34843e-08
2.57378e-08
7.20232e-08
1.27822e-07
5.50248e-08
0
5.6874e-08
0
0
5.5335e-08
5.64569e-08
5.67126e-08
5.59213e-08
5.40052e-08
1.30741e-07
5.4352e-08
5.51728e-08
0
0
1.25363e-07
5.46953e-08
5.52688e-08
1.80622e-07
1.52849e-08