/*--------------------------------*- C++ -*----------------------------------*\
  =========                 |
  \\      /  F ield         | OpenFOAM: The Open Source CFD Toolbox
   \\    /   O peration     | Website:  https://openfoam.org
    \\  /    A nd           | Version:  12
     \\/     M anipulation  |
\*---------------------------------------------------------------------------*/
FoamFile
{
    format      ascii;
    class       volScalarField;
    location    "0.5";
    object      p;
}
// * * * * * * * * * * * * * * * * * * * * * * * * * * * * * * * * * * * * * //

dimensions      [0 2 -2 0 0 0 0];

internalField   nonuniform List<scalar> 
3750
(
0.747873
0.741459
0.731068
0.721716
0.702567
0.693256
0.682963
0.673208
0.662608
0.651185
0.6442
0.634445
0.623808
0.613509
0.603132
0.592859
0.583458
0.568771
0.558465
0.549626
0.540575
0.530925
0.521104
0.511177
0.501874
0.494824
0.484869
0.483898
0.472339
0.460058
0.450239
0.443085
0.434239
0.415181
0.406207
0.396834
0.389275
0.379479
0.370259
0.359861
0.348944
0.337865
0.326559
0.315192
0.303577
0.291485
0.277805
0.276952
0.266187
0.254353
0.235026
0.236289
0.227128
0.216223
0.206277
0.19866
0.180127
0.172526
0.163053
0.153217
0.143425
0.133578
0.1237
0.113807
0.103902
0.0939883
0.0840663
0.07414
0.0642176
0.0543113
0.0444222
0.0345448
0.0246576
0.0147121
0.00485807
0.74715
0.744141
0.731895
0.718817
0.705329
0.694058
0.682169
0.674336
0.664854
0.647379
0.645671
0.634862
0.623447
0.613145
0.602869
0.591704
0.582074
0.570173
0.559486
0.549642
0.540798
0.531055
0.521247
0.511028
0.501302
0.499049
0.48983
0.482355
0.469939
0.458058
0.447163
0.443584
0.431647
0.417577
0.406333
0.394758
0.390821
0.38005
0.371523
0.360429
0.349083
0.337885
0.326649
0.315355
0.302885
0.292096
0.28299
0.274615
0.264296
0.252621
0.240646
0.233447
0.225255
0.215289
0.205362
0.195333
0.183079
0.173149
0.163259
0.153367
0.143495
0.133611
0.123717
0.113815
0.103907
0.0939892
0.084062
0.0741284
0.0641934
0.0542909
0.0444156
0.0345424
0.0246463
0.0146931
0.00483916
0.748685
0.743994
0.730762
0.717975
0.706342
0.696336
0.677914
0.676033
0.664296
0.651329
0.643664
0.633554
0.622543
0.612079
0.601761
0.588988
0.581581
0.570542
0.560007
0.550179
0.540834
0.531292
0.521826
0.512786
0.504491
0.498883
0.490061
0.485166
0.465456
0.456847
0.447768
0.442269
0.428475
0.417336
0.407059
0.392876
0.389129
0.381816
0.374304
0.361242
0.34943
0.337912
0.326475
0.315319
0.301429
0.291171
0.28643
0.274104
0.263641
0.251381
0.241344
0.232603
0.223882
0.214388
0.204574
0.194419
0.183704
0.173494
0.163458
0.153496
0.143567
0.13365
0.123737
0.113827
0.103913
0.0939919
0.0840644
0.0741342
0.0642095
0.0543006
0.0444145
0.0345377
0.0246399
0.0146902
0.00481823
0.749005
0.736409
0.727979
0.716977
0.705377
0.694419
0.682213
0.674623
0.664686
0.652833
0.643247
0.632935
0.622109
0.61027
0.599171
0.587608
0.583694
0.570393
0.559634
0.55031
0.541079
0.531592
0.521781
0.51506
0.50656
0.500239
0.485975
0.484621
0.468834
0.453147
0.451312
0.440777
0.427092
0.417696
0.402297
0.394619
0.387847
0.384425
0.381385
0.360518
0.349434
0.337946
0.326373
0.312172
0.302435
0.293634
0.286408
0.274047
0.265142
0.247992
0.240651
0.232278
0.223345
0.213901
0.204117
0.194067
0.183811
0.173658
0.163606
0.1536
0.143637
0.133693
0.123761
0.113839
0.103918
0.0939957
0.0840712
0.0741492
0.0642316
0.0543233
0.0444267
0.034541
0.024636
0.0146797
0.00481068
0.747536
0.736697
0.726706
0.716203
0.704243
0.694176
0.683979
0.674358
0.666258
0.653348
0.643753
0.632785
0.622656
0.608101
0.598486
0.587568
0.58306
0.568203
0.557718
0.550307
0.541637
0.532099
0.520739
0.517459
0.505578
0.497439
0.484215
0.483102
0.472429
0.460231
0.452249
0.44046
0.426033
0.421423
0.405328
0.395128
0.38488
0.384829
0.376929
0.36297
0.349885
0.338232
0.318482
0.314727
0.304228
0.294965
0.28469
0.275616
0.260604
0.24863
0.241126
0.23253
0.223336
0.213758
0.203927
0.193922
0.183815
0.173721
0.163671
0.153661
0.14368
0.13372
0.123777
0.113847
0.103921
0.0939981
0.0840772
0.0741602
0.0642454
0.0543359
0.0444354
0.0345423
0.0246326
0.0146718
0.00480509
0.74592
0.73633
0.725659
0.715464
0.701593
0.694698
0.684457
0.674063
0.665392
0.65651
0.644267
0.633168
0.620662
0.606815
0.600028
0.587406
0.585198
0.565136
0.553833
0.549168
0.542443
0.535068
0.523932
0.518414
0.501385
0.499069
0.483469
0.480578
0.475712
0.463399
0.453304
0.439924
0.429848
0.424277
0.408834
0.396129
0.383389
0.380475
0.375697
0.36421
0.348867
0.332424
0.319392
0.311859
0.305474
0.297231
0.280797
0.271849
0.260666
0.250071
0.242651
0.233369
0.223705
0.213869
0.203913
0.19388
0.183806
0.173738
0.163697
0.153686
0.1437
0.133734
0.123784
0.113847
0.10392
0.0939991
0.0840814
0.0741665
0.0642529
0.0543427
0.0444392
0.0345412
0.0246288
0.0146666
0.00480105
0.745621
0.735752
0.724477
0.713198
0.699798
0.695958
0.684552
0.674224
0.663565
0.66099
0.643326
0.634921
0.619527
0.602677
0.601181
0.588644
0.580004
0.567561
0.558029
0.542042
0.541806
0.540837
0.522362
0.516779
0.50643
0.499209
0.488442
0.480109
0.47164
0.462055
0.452023
0.440237
0.431026
0.421568
0.409645
0.39741
0.385999
0.377512
0.368445
0.364186
0.348756
0.33409
0.323761
0.306499
0.305727
0.294471
0.281527
0.270375
0.259088
0.251063
0.244718
0.234527
0.224261
0.214098
0.203979
0.193879
0.183793
0.17373
0.163696
0.153687
0.143701
0.133734
0.123783
0.113844
0.103918
0.0939976
0.0840812
0.0741669
0.0642537
0.0543435
0.044439
0.0345389
0.0246244
0.0146615
0.00479805
0.746321
0.736351
0.724283
0.711932
0.699995
0.693146
0.683787
0.677271
0.664643
0.655567
0.645643
0.630578
0.617698
0.608277
0.603044
0.587417
0.577036
0.567285
0.557193
0.54591
0.54222
0.535249
0.522011
0.518706
0.50944
0.500031
0.491482
0.480334
0.468789
0.460606
0.451104
0.439449
0.432446
0.421534
0.410907
0.39787
0.385529
0.375904
0.367059
0.360198
0.347527
0.334765
0.323279
0.310574
0.303165
0.293126
0.280827
0.269337
0.255826
0.251714
0.247501
0.235358
0.224699
0.214281
0.20402
0.193859
0.183758
0.173698
0.163669
0.153666
0.143685
0.133722
0.123773
0.113837
0.103911
0.0939921
0.0840768
0.0741633
0.0642507
0.0543415
0.0444368
0.0345356
0.0246202
0.0146569
0.00479553
0.746672
0.738699
0.724327
0.708716
0.699014
0.692099
0.681273
0.679884
0.666319
0.650839
0.640449
0.625914
0.620342
0.615677
0.600276
0.590303
0.576832
0.567528
0.557745
0.54674
0.545061
0.534627
0.524217
0.513652
0.511603
0.50001
0.490254
0.481525
0.470251
0.459454
0.45195
0.435717
0.436558
0.420997
0.414542
0.397679
0.382379
0.374025
0.365251
0.358663
0.346567
0.335256
0.324198
0.311503
0.301542
0.292023
0.280908
0.270544
0.259401
0.251994
0.241451
0.235644
0.224947
0.214312
0.203965
0.19378
0.18368
0.173631
0.163616
0.153624
0.143651
0.133695
0.123751
0.11382
0.103898
0.0939827
0.0840693
0.074157
0.0642455
0.0543369
0.0444325
0.0345313
0.0246159
0.0146528
0.00479344
0.745193
0.734618
0.723734
0.707773
0.70167
0.695517
0.680829
0.678571
0.667821
0.648422
0.638539
0.628249
0.620579
0.613443
0.59879
0.590508
0.578262
0.568084
0.560027
0.551764
0.542884
0.535452
0.527843
0.512646
0.507928
0.498343
0.48692
0.484013
0.472052
0.45713
0.448922
0.440567
0.431631
0.423712
0.414423
0.397654
0.384863
0.373499
0.363449
0.362511
0.344477
0.335456
0.326771
0.309611
0.300204
0.288904
0.283983
0.272144
0.262333
0.244453
0.241706
0.237381
0.224806
0.214053
0.203753
0.193614
0.183549
0.173529
0.163536
0.153562
0.143602
0.133655
0.123719
0.113795
0.103881
0.0939699
0.0840588
0.0741479
0.0642378
0.0543301
0.0444266
0.0345261
0.0246118
0.0146494
0.00479188
0.746186
0.731401
0.723777
0.704422
0.702408
0.693567
0.681708
0.677666
0.669399
0.65216
0.637651
0.630087
0.620082
0.61164
0.596439
0.592356
0.578978
0.566977
0.562541
0.552931
0.541131
0.53614
0.526329
0.515742
0.50727
0.497749
0.487963
0.480684
0.471143
0.456148
0.445209
0.437502
0.436332
0.425456
0.415108
0.397404
0.386035
0.373808
0.36519
0.358171
0.346423
0.335706
0.32489
0.312281
0.301475
0.291047
0.282286
0.271785
0.260419
0.24962
0.244539
0.231712
0.223261
0.213376
0.203381
0.193369
0.183374
0.173396
0.163432
0.153481
0.14354
0.133607
0.123683
0.113769
0.103861
0.0939529
0.0840441
0.0741355
0.0642279
0.0543214
0.0444197
0.0345207
0.0246078
0.0146461
0.00479045
0.746262
0.733253
0.722016
0.709285
0.701434
0.692416
0.677555
0.674189
0.669785
0.652869
0.641866
0.634168
0.618607
0.611069
0.601965
0.588582
0.578268
0.568691
0.561231
0.5529
0.53911
0.538475
0.525671
0.517178
0.508206
0.498151
0.487718
0.47828
0.468348
0.456572
0.441464
0.439015
0.436925
0.422978
0.409389
0.399699
0.388503
0.376709
0.366496
0.356559
0.34638
0.335919
0.324743
0.313209
0.302614
0.292656
0.281442
0.272099
0.258762
0.250708
0.242297
0.231984
0.222584
0.212891
0.203023
0.193108
0.18318
0.173247
0.163315
0.153387
0.143465
0.133549
0.12364
0.113736
0.103835
0.0939316
0.0840264
0.0741222
0.0642173
0.0543132
0.0444129
0.0345158
0.0246041
0.014643
0.00478935
0.743431
0.733088
0.721942
0.71096
0.701195
0.691034
0.679246
0.671993
0.664297
0.654306
0.642797
0.632191
0.622453
0.611008
0.60133
0.592675
0.576636
0.568402
0.561046
0.551452
0.541034
0.535904
0.527844
0.519264
0.509841
0.499113
0.486512
0.476152
0.466135
0.458175
0.445902
0.438062
0.430226
0.419366
0.405934
0.39981
0.392478
0.379591
0.367274
0.355945
0.346413
0.336631
0.325266
0.313574
0.303801
0.2954
0.278994
0.266079
0.263159
0.251975
0.241931
0.231939
0.222268
0.212525
0.202717
0.192863
0.182984
0.173092
0.163192
0.153287
0.143384
0.133485
0.123592
0.113698
0.103804
0.093907
0.0840067
0.0741063
0.0642052
0.0543048
0.0444064
0.0345108
0.0246003
0.0146402
0.00478823
0.742051
0.732265
0.721861
0.71154
0.701409
0.691075
0.680539
0.670647
0.6598
0.655462
0.642272
0.630718
0.627913
0.607857
0.597459
0.592019
0.578998
0.567208
0.563828
0.547032
0.544904
0.531151
0.532585
0.521462
0.511314
0.501917
0.482843
0.474031
0.46391
0.460876
0.448003
0.436777
0.425488
0.416238
0.402297
0.400154
0.399302
0.381703
0.366308
0.355079
0.347071
0.33828
0.326743
0.312392
0.304246
0.292551
0.280194
0.269048
0.261655
0.251595
0.241625
0.231736
0.221958
0.212226
0.202453
0.192643
0.182805
0.172946
0.163073
0.15319
0.143304
0.133423
0.123542
0.113659
0.103773
0.0938827
0.083988
0.0740917
0.0641941
0.0542963
0.0444
0.0345063
0.0245969
0.0146378
0.00478759
0.741722
0.731499
0.721352
0.711677
0.701543
0.691414
0.681132
0.671073
0.660996
0.653051
0.64161
0.631207
0.624295
0.609634
0.592099
0.592642
0.574112
0.570209
0.566775
0.549753
0.546292
0.535205
0.530149
0.521078
0.512119
0.50162
0.481493
0.472906
0.465435
0.461076
0.447676
0.436609
0.419724
0.413337
0.4052
0.400347
0.393725
0.381849
0.369408
0.357472
0.347346
0.336544
0.325268
0.317516
0.30858
0.289669
0.280107
0.270009
0.260667
0.251003
0.241209
0.23144
0.221703
0.211972
0.202223
0.192446
0.182641
0.172813
0.162968
0.15311
0.143244
0.133375
0.123501
0.113625
0.103745
0.0938605
0.0839714
0.0740786
0.0641838
0.0542884
0.0443941
0.0345021
0.0245937
0.0146358
0.00478679
0.741677
0.730704
0.72011
0.712846
0.701763
0.6918
0.681872
0.671862
0.662231
0.652566
0.640484
0.630324
0.620345
0.607544
0.595837
0.586319
0.581935
0.572792
0.565127
0.55369
0.545503
0.535824
0.528709
0.52092
0.514306
0.498054
0.481508
0.470834
0.464215
0.456894
0.452682
0.434835
0.416675
0.412192
0.407585
0.402676
0.391795
0.381427
0.370027
0.358942
0.34815
0.334794
0.322559
0.32146
0.309806
0.290138
0.28066
0.270211
0.260257
0.250525
0.240804
0.231111
0.221428
0.211736
0.202021
0.192275
0.182499
0.172697
0.162875
0.153037
0.143187
0.133331
0.123466
0.113597
0.103722
0.0938415
0.0839568
0.0740674
0.0641752
0.0542819
0.0443893
0.0344989
0.0245913
0.0146344
0.00478653
0.742049
0.729843
0.716695
0.71449
0.701431
0.692169
0.682367
0.672588
0.663057
0.654758
0.637455
0.628665
0.618763
0.607781
0.597693
0.587636
0.581106
0.574565
0.565201
0.554788
0.544449
0.534476
0.524559
0.521386
0.511453
0.496291
0.483916
0.471516
0.459638
0.455624
0.451934
0.433997
0.418109
0.413193
0.409496
0.408927
0.390107
0.380496
0.370095
0.360115
0.351286
0.332304
0.321865
0.323201
0.305613
0.293737
0.28172
0.269998
0.259695
0.24997
0.240366
0.23077
0.22116
0.211522
0.201846
0.192132
0.182383
0.172603
0.162798
0.152974
0.143138
0.133291
0.123435
0.113572
0.103703
0.0938267
0.0839449
0.0740583
0.0641683
0.0542768
0.0443856
0.0344962
0.0245893
0.0146332
0.00478621
0.744634
0.728647
0.716404
0.710455
0.702572
0.69287
0.682952
0.673085
0.663178
0.652722
0.638395
0.627997
0.618162
0.608914
0.598421
0.588634
0.578773
0.576577
0.565938
0.555654
0.54399
0.533672
0.524056
0.517214
0.509758
0.496756
0.484544
0.472677
0.461927
0.454447
0.446391
0.432469
0.426544
0.414464
0.406629
0.405769
0.391181
0.380005
0.36981
0.360192
0.351712
0.333719
0.323082
0.31834
0.307187
0.29801
0.281419
0.269241
0.258742
0.249301
0.239916
0.230441
0.220921
0.211345
0.20171
0.192024
0.182297
0.172533
0.162739
0.152925
0.143097
0.133258
0.12341
0.113554
0.103688
0.0938159
0.0839367
0.0740523
0.0641639
0.0542736
0.0443833
0.0344949
0.0245886
0.0146328
0.00478634
0.741971
0.730222
0.718376
0.706779
0.703963
0.693463
0.683596
0.673663
0.664339
0.654229
0.635717
0.627075
0.617587
0.611152
0.597978
0.589674
0.580627
0.574637
0.566052
0.557028
0.543291
0.532132
0.522658
0.51447
0.510954
0.497073
0.48486
0.473127
0.463018
0.453767
0.443941
0.433928
0.429202
0.41682
0.408703
0.404238
0.38627
0.378568
0.36924
0.359499
0.349029
0.33656
0.325903
0.317629
0.306513
0.296872
0.284147
0.272372
0.256653
0.248757
0.239467
0.230131
0.220742
0.211227
0.201624
0.191958
0.182244
0.172487
0.162699
0.152893
0.143074
0.133241
0.123397
0.113544
0.103681
0.0938109
0.0839332
0.0740493
0.0641618
0.0542724
0.0443826
0.0344945
0.0245884
0.0146328
0.00478647
0.740791
0.729796
0.719993
0.708629
0.699029
0.694073
0.684341
0.67363
0.664399
0.65275
0.635515
0.627197
0.616191
0.607934
0.603848
0.591275
0.581472
0.574173
0.566434
0.556649
0.543714
0.530043
0.521889
0.518724
0.508353
0.495746
0.484082
0.471817
0.463725
0.453449
0.442836
0.434207
0.431921
0.420257
0.408523
0.400614
0.386528
0.377821
0.368415
0.359141
0.348186
0.336444
0.326789
0.318493
0.305811
0.298593
0.28278
0.270619
0.259212
0.249598
0.239144
0.230022
0.22069
0.211196
0.201601
0.191937
0.182222
0.172464
0.162677
0.152873
0.143057
0.133229
0.12339
0.113539
0.103678
0.0938089
0.083933
0.0740503
0.0641633
0.0542739
0.044384
0.0344958
0.0245899
0.0146337
0.00478703
0.744022
0.730063
0.721822
0.70812
0.696783
0.696924
0.685445
0.673185
0.660558
0.649219
0.638372
0.630303
0.616943
0.612355
0.601665
0.59003
0.579797
0.574189
0.568823
0.558182
0.542397
0.532034
0.527154
0.5178
0.506829
0.494209
0.482518
0.468212
0.464979
0.453458
0.441446
0.439462
0.431066
0.422788
0.40604
0.397666
0.386121
0.377434
0.367356
0.359966
0.349287
0.334214
0.326675
0.318173
0.305247
0.295881
0.284898
0.275141
0.258605
0.251107
0.238825
0.230087
0.220778
0.211266
0.201647
0.191964
0.182236
0.172474
0.162685
0.152881
0.143063
0.133234
0.123393
0.113541
0.103681
0.093813
0.0839371
0.0740548
0.0641676
0.0542776
0.0443871
0.0344982
0.0245918
0.014635
0.00478753
0.743542
0.73222
0.722135
0.709685
0.697201
0.698056
0.686779
0.673282
0.656046
0.64798
0.639977
0.633052
0.626221
0.608829
0.598957
0.587825
0.576203
0.573783
0.571288
0.55858
0.545314
0.541699
0.524016
0.516202
0.506679
0.490569
0.478823
0.468121
0.462894
0.454351
0.445573
0.437866
0.428746
0.419272
0.407575
0.395672
0.384894
0.376258
0.364251
0.35862
0.348147
0.336838
0.327676
0.320008
0.303069
0.294822
0.284403
0.27361
0.261631
0.251627
0.240303
0.230647
0.221086
0.211439
0.201755
0.192036
0.182287
0.172513
0.162721
0.152911
0.143088
0.133253
0.123408
0.113554
0.103692
0.0938229
0.0839463
0.0740638
0.0641756
0.0542841
0.0443927
0.0345026
0.0245957
0.0146373
0.00478855
0.742748
0.733489
0.723698
0.714009
0.697566
0.698346
0.687832
0.676649
0.656145
0.648097
0.640835
0.633085
0.621183
0.60878
0.597731
0.586847
0.579476
0.572891
0.564149
0.559597
0.556088
0.539178
0.522023
0.514637
0.500997
0.489458
0.479058
0.466287
0.462869
0.455448
0.449243
0.435131
0.427113
0.416723
0.407018
0.394007
0.383298
0.373501
0.361825
0.358971
0.348653
0.337438
0.327406
0.317776
0.305337
0.294967
0.284636
0.273494
0.262469
0.251969
0.241321
0.231236
0.221426
0.211655
0.2019
0.192137
0.182361
0.172571
0.162767
0.152951
0.143123
0.133282
0.123433
0.113576
0.10371
0.0938376
0.0839604
0.0740764
0.0641868
0.0542939
0.044401
0.0345091
0.0245999
0.0146404
0.00478954
0.742201
0.735347
0.725329
0.715263
0.704769
0.698426
0.687305
0.677499
0.656225
0.652223
0.641846
0.630712
0.617936
0.607415
0.596525
0.584628
0.583482
0.573753
0.563796
0.559808
0.55262
0.536353
0.524075
0.513503
0.499539
0.486911
0.47256
0.467039
0.465521
0.453688
0.447977
0.438762
0.427861
0.413924
0.404501
0.395431
0.380121
0.372296
0.363258
0.356995
0.347345
0.336791
0.326669
0.318923
0.30653
0.294227
0.285753
0.273431
0.262731
0.252239
0.241847
0.231666
0.22169
0.211846
0.202041
0.192246
0.182448
0.172642
0.162828
0.153003
0.143169
0.133322
0.123466
0.113605
0.103737
0.0938617
0.0839805
0.0740939
0.064202
0.0543073
0.0444119
0.0345176
0.0246063
0.0146445
0.00479107
0.741837
0.739094
0.727016
0.717229
0.708063
0.697636
0.688643
0.677765
0.662675
0.651268
0.643871
0.627163
0.614631
0.606576
0.596962
0.58552
0.583825
0.57263
0.561542
0.560914
0.548364
0.535406
0.5243
0.513538
0.49914
0.486944
0.47354
0.464271
0.46232
0.448194
0.449059
0.443403
0.429028
0.410977
0.402633
0.391066
0.382029
0.372653
0.363724
0.357512
0.346532
0.336039
0.324709
0.319505
0.307812
0.292593
0.287655
0.272547
0.262827
0.252717
0.24213
0.231886
0.221895
0.212013
0.202176
0.192358
0.182543
0.172724
0.1629
0.153067
0.143221
0.133367
0.123509
0.113642
0.103769
0.093891
0.0840055
0.0741154
0.064221
0.0543231
0.0444248
0.0345277
0.0246135
0.0146492
0.00479276
0.740572
0.736857
0.72783
0.718716
0.711587
0.69531
0.687516
0.67691
0.665652
0.656162
0.642788
0.626615
0.614883
0.607358
0.598745
0.589768
0.581308
0.571325
0.561756
0.559176
0.544697
0.534654
0.524253
0.514625
0.498478
0.487664
0.47481
0.466492
0.459748
0.44887
0.447079
0.439771
0.42748
0.416489
0.402008
0.38609
0.382091
0.372915
0.361954
0.360094
0.346334
0.336755
0.327913
0.312139
0.309585
0.294214
0.288604
0.271567
0.263354
0.253702
0.242088
0.231891
0.221986
0.21213
0.202294
0.192466
0.18264
0.172811
0.162976
0.153133
0.143281
0.133421
0.123556
0.113686
0.10381
0.0939249
0.0840355
0.0741418
0.0642436
0.0543421
0.0444404
0.0345398
0.0246223
0.0146548
0.00479487
0.737926
0.736473
0.727953
0.717799
0.710034
0.698282
0.687878
0.677071
0.666741
0.658025
0.638912
0.62792
0.61773
0.609178
0.601004
0.593994
0.57908
0.569917
0.559807
0.558541
0.541464
0.534037
0.525113
0.515565
0.497986
0.485237
0.47802
0.468166
0.45969
0.448262
0.44656
0.437086
0.423994
0.413067
0.39993
0.387203
0.375579
0.37322
0.362785
0.356452
0.347773
0.337156
0.326272
0.314938
0.305266
0.29182
0.287167
0.27375
0.265916
0.256064
0.241427
0.231853
0.222052
0.212229
0.202403
0.192574
0.182742
0.172904
0.163059
0.153207
0.143348
0.133483
0.123612
0.113735
0.103853
0.0939642
0.0840705
0.074172
0.0642691
0.0543638
0.044458
0.0345534
0.0246322
0.014661
0.00479726
0.7378
0.734544
0.72729
0.716243
0.711986
0.699653
0.688481
0.676703
0.666404
0.6573
0.638448
0.628844
0.620154
0.61067
0.602202
0.593392
0.58226
0.569234
0.558272
0.552406
0.542923
0.534136
0.525299
0.512187
0.502216
0.483608
0.482346
0.470019
0.459886
0.449982
0.443168
0.432086
0.418274
0.41024
0.397002
0.39088
0.372027
0.36885
0.362057
0.353907
0.350675
0.337585
0.326539
0.318481
0.301583
0.291709
0.285152
0.272314
0.26885
0.257271
0.241303
0.231785
0.222105
0.212333
0.202518
0.192688
0.18285
0.173004
0.16315
0.153289
0.143422
0.13355
0.123674
0.113792
0.103903
0.0940092
0.0841103
0.0742066
0.0642985
0.0543884
0.044478
0.0345689
0.0246434
0.014668
0.00479998
0.735648
0.734994
0.728978
0.717802
0.709748
0.699255
0.689363
0.674869
0.664922
0.65359
0.639051
0.633651
0.622515
0.610554
0.603709
0.594648
0.582211
0.568423
0.55491
0.551883
0.542772
0.533435
0.523259
0.511517
0.500695
0.489055
0.482756
0.473455
0.461504
0.451601
0.443034
0.42913
0.414202
0.40602
0.394383
0.392666
0.370317
0.366601
0.361694
0.358022
0.347747
0.335992
0.325009
0.317052
0.304013
0.291509
0.286454
0.273549
0.266108
0.255658
0.241307
0.231989
0.222268
0.212481
0.202649
0.19281
0.182965
0.173111
0.16325
0.153381
0.143506
0.133626
0.123744
0.113855
0.10396
0.0940593
0.0841541
0.0742445
0.064331
0.0544154
0.0444997
0.0345856
0.0246556
0.0146756
0.00480294
0.739813
0.734198
0.725779
0.716778
0.707749
0.69813
0.68841
0.675322
0.664647
0.653495
0.642334
0.634305
0.625444
0.606958
0.605432
0.596341
0.581564
0.569628
0.552801
0.550551
0.54239
0.533437
0.522489
0.510544
0.500208
0.490833
0.482833
0.474846
0.466607
0.450831
0.435377
0.4265
0.416209
0.405176
0.39583
0.388699
0.377039
0.367052
0.361262
0.354849
0.344986
0.333912
0.322026
0.318226
0.305923
0.293278
0.284635
0.272128
0.265546
0.252346
0.242398
0.232364
0.222501
0.212647
0.202792
0.192938
0.183085
0.173224
0.163356
0.153481
0.143598
0.133711
0.12382
0.113923
0.104021
0.0941134
0.0842014
0.0742858
0.0643662
0.0544446
0.0445234
0.0346039
0.024669
0.0146839
0.00480621
0.742281
0.734962
0.723267
0.715436
0.706527
0.697047
0.689919
0.676337
0.665041
0.653719
0.643388
0.633618
0.623619
0.610898
0.604659
0.596833
0.57844
0.568235
0.554003
0.551698
0.541759
0.533282
0.524679
0.507489
0.49859
0.490462
0.482892
0.474994
0.467627
0.44979
0.434003
0.426141
0.41815
0.405571
0.397317
0.388505
0.37914
0.369057
0.360959
0.352703
0.343235
0.332921
0.322903
0.315563
0.306969
0.295661
0.279996
0.270157
0.259535
0.255094
0.243295
0.232826
0.222764
0.212827
0.202944
0.193079
0.183212
0.173343
0.163468
0.153586
0.143696
0.133799
0.123901
0.113995
0.104084
0.0941705
0.0842526
0.0743298
0.0644038
0.0544759
0.0445488
0.0346236
0.0246832
0.0146929
0.00480957
0.742605
0.733682
0.723952
0.715126
0.705901
0.695788
0.69075
0.679547
0.664764
0.652503
0.64411
0.633402
0.622915
0.612206
0.603827
0.592991
0.579274
0.57
0.557301
0.549085
0.540954
0.530847
0.527675
0.506993
0.495815
0.48954
0.48348
0.47408
0.464742
0.447198
0.437703
0.427358
0.418308
0.407328
0.398171
0.388822
0.379609
0.370132
0.361093
0.351778
0.342126
0.332486
0.323258
0.31426
0.304575
0.293305
0.281797
0.269967
0.259602
0.252832
0.243133
0.232973
0.222911
0.212964
0.203072
0.193203
0.183337
0.173464
0.163584
0.153695
0.143797
0.133894
0.123986
0.11407
0.104153
0.0942329
0.0843083
0.0743783
0.0644445
0.0545094
0.0445761
0.0346446
0.0246985
0.0147026
0.00481323
0.742402
0.733291
0.724341
0.715207
0.706307
0.701254
0.687611
0.680064
0.668229
0.649884
0.645835
0.632958
0.619611
0.614971
0.603698
0.592106
0.577626
0.572625
0.559283
0.546598
0.540464
0.53168
0.523427
0.51063
0.490336
0.48843
0.486128
0.473831
0.464095
0.444301
0.441253
0.428206
0.418017
0.407928
0.398451
0.388987
0.380222
0.371304
0.361492
0.351224
0.341081
0.331663
0.322794
0.313722
0.302993
0.292297
0.28414
0.26963
0.258501
0.25169
0.24277
0.232873
0.222932
0.213049
0.203188
0.19333
0.183467
0.173593
0.163706
0.15381
0.143904
0.133991
0.124072
0.114151
0.104226
0.0942977
0.0843653
0.0744278
0.064487
0.0545448
0.0446047
0.034667
0.0247143
0.0147128
0.00481687
0.741853
0.732813
0.725886
0.715816
0.704582
0.70191
0.691096
0.681157
0.666765
0.657068
0.643497
0.633783
0.618573
0.613149
0.603929
0.59479
0.577543
0.570725
0.560545
0.550919
0.533006
0.531411
0.521472
0.50881
0.495091
0.4878
0.483042
0.471308
0.459971
0.450151
0.443364
0.426272
0.417658
0.408227
0.398984
0.389839
0.380949
0.372025
0.362318
0.350641
0.339546
0.33032
0.322637
0.315659
0.299431
0.290775
0.2799
0.266811
0.263776
0.252959
0.242951
0.23278
0.222913
0.213108
0.203296
0.193461
0.183606
0.17373
0.163837
0.153932
0.144018
0.134097
0.124169
0.114237
0.104302
0.0943645
0.0844236
0.0744789
0.0645309
0.0545824
0.0446353
0.0346906
0.0247309
0.0147235
0.00482081
0.743255
0.731379
0.728063
0.716892
0.706823
0.699704
0.6907
0.679949
0.667903
0.655813
0.643405
0.631308
0.622777
0.613917
0.603855
0.593357
0.581247
0.571605
0.560909
0.552791
0.533363
0.527238
0.521187
0.508403
0.495559
0.48709
0.482542
0.468521
0.455693
0.453073
0.440705
0.427882
0.418173
0.408011
0.399166
0.390602
0.381576
0.372804
0.363009
0.349575
0.337158
0.327378
0.322158
0.315011
0.296745
0.29505
0.275715
0.268359
0.263173
0.253559
0.242231
0.232426
0.222846
0.213178
0.203425
0.193613
0.183762
0.173883
0.163982
0.154067
0.144142
0.13421
0.124272
0.114329
0.104383
0.0944352
0.0844846
0.0745316
0.0645762
0.0546205
0.0446664
0.0347146
0.024748
0.0147346
0.00482478
0.745492
0.733578
0.726511
0.717488
0.708049
0.699068
0.689811
0.678206
0.668928
0.655006
0.643049
0.629487
0.625856
0.615694
0.604272
0.593078
0.58237
0.572607
0.558503
0.553459
0.535806
0.523747
0.521404
0.508206
0.494637
0.491829
0.479216
0.465368
0.456568
0.448401
0.438866
0.428097
0.417318
0.40557
0.399223
0.392916
0.382581
0.374549
0.359104
0.349476
0.338596
0.321149
0.320799
0.31132
0.304512
0.290715
0.273061
0.269417
0.265129
0.254754
0.240353
0.232019
0.222855
0.213324
0.203614
0.193808
0.183949
0.174056
0.164141
0.154212
0.144272
0.134324
0.124375
0.114422
0.104465
0.0945077
0.0845477
0.0745854
0.0646221
0.0546593
0.044698
0.034739
0.0247655
0.0147459
0.00482893
0.747913
0.732305
0.725367
0.717484
0.708123
0.699216
0.691583
0.675761
0.668032
0.65904
0.643167
0.630414
0.624902
0.616552
0.60481
0.592785
0.582986
0.573622
0.554639
0.552504
0.53796
0.525019
0.516919
0.50918
0.49842
0.493522
0.475985
0.464151
0.457789
0.443098
0.438072
0.428372
0.416934
0.400501
0.399282
0.397253
0.381759
0.370978
0.355608
0.35161
0.33615
0.323889
0.316043
0.306941
0.30459
0.289345
0.272474
0.270694
0.269231
0.254838
0.240499
0.232295
0.223201
0.21365
0.203901
0.194058
0.184168
0.17425
0.164315
0.154368
0.144412
0.134452
0.124487
0.114519
0.104551
0.0945826
0.0846117
0.0746397
0.0646684
0.0546983
0.0447296
0.0347636
0.0247833
0.0147574
0.00483316
0.750744
0.735029
0.725623
0.719038
0.707892
0.698211
0.68861
0.677577
0.668552
0.658306
0.649026
0.630678
0.623952
0.616969
0.605153
0.592841
0.582901
0.570922
0.558921
0.55301
0.53802
0.523511
0.512002
0.511095
0.500502
0.489308
0.477897
0.46317
0.453782
0.441548
0.441173
0.429812
0.416451
0.401483
0.399976
0.392843
0.381122
0.369751
0.355672
0.347737
0.335992
0.322946
0.313138
0.305449
0.301751
0.289766
0.277546
0.27148
0.265582
0.253923
0.242212
0.23342
0.223971
0.214179
0.204287
0.194359
0.184415
0.174462
0.1645
0.15453
0.144557
0.13458
0.1246
0.114617
0.104637
0.0946578
0.084677
0.074695
0.064715
0.0547373
0.0447612
0.034788
0.0248011
0.0147691
0.00483751
0.747156
0.743162
0.724377
0.724262
0.706242
0.696964
0.687132
0.676556
0.6677
0.658423
0.651234
0.633461
0.622499
0.616103
0.606166
0.597242
0.582317
0.569343
0.558851
0.548081
0.536835
0.525902
0.515207
0.509527
0.502164
0.486053
0.477285
0.463596
0.452575
0.441621
0.441373
0.431829
0.417818
0.404131
0.396432
0.386879
0.380671
0.367029
0.35698
0.345099
0.338835
0.314195
0.313575
0.302766
0.30062
0.29026
0.280102
0.272011
0.263678
0.252948
0.242625
0.235312
0.225054
0.214804
0.204705
0.194677
0.184677
0.174686
0.164693
0.154699
0.144704
0.134708
0.124713
0.114718
0.104724
0.0947325
0.0847418
0.0747509
0.0647618
0.0547761
0.0447925
0.034812
0.0248189
0.0147809
0.00484195
0.748603
0.740728
0.729975
0.7198
0.708696
0.696575
0.686371
0.674838
0.663659
0.659222
0.650309
0.63529
0.62395
0.616605
0.606369
0.596991
0.58594
0.568869
0.559291
0.544068
0.535067
0.527484
0.517549
0.508564
0.499247
0.48842
0.479839
0.462123
0.452233
0.442273
0.438841
0.427973
0.424739
0.407943
0.393775
0.379244
0.378498
0.365279
0.355573
0.343554
0.33317
0.319305
0.313126
0.302992
0.295667
0.290086
0.280763
0.272862
0.26431
0.252064
0.241199
0.238013
0.226026
0.215289
0.205051
0.194964
0.184927
0.174906
0.164887
0.154869
0.144853
0.134838
0.124824
0.114814
0.104808
0.0948054
0.0848047
0.0748058
0.0648084
0.0548138
0.0448229
0.0348355
0.0248364
0.0147927
0.00484645
0.749323
0.739807
0.729613
0.719093
0.711317
0.693773
0.686946
0.673591
0.663736
0.655182
0.644425
0.639341
0.627192
0.618243
0.605677
0.597605
0.582685
0.570191
0.55955
0.546493
0.534375
0.529852
0.518505
0.508052
0.497997
0.488619
0.478504
0.465318
0.453121
0.441207
0.438747
0.427294
0.419512
0.408233
0.392865
0.382085
0.374872
0.364117
0.353961
0.343227
0.332442
0.320315
0.314559
0.301297
0.288748
0.288556
0.279674
0.274395
0.269015
0.25202
0.243549
0.235136
0.225329
0.215294
0.205245
0.1952
0.185158
0.175117
0.165074
0.155033
0.144996
0.134962
0.124933
0.114908
0.104889
0.0948754
0.0848663
0.0748585
0.0648522
0.0548496
0.0448523
0.0348583
0.0248536
0.0148044
0.00485103
0.750183
0.739558
0.728604
0.717775
0.708745
0.694577
0.687506
0.676457
0.661766
0.655697
0.642124
0.637019
0.627491
0.617634
0.60692
0.597746
0.583319
0.570367
0.563562
0.548015
0.537619
0.528076
0.518502
0.507692
0.49715
0.487815
0.479606
0.467578
0.452959
0.442114
0.437498
0.425551
0.417002
0.406427
0.392809
0.382545
0.373064
0.362788
0.353142
0.342911
0.333543
0.325711
0.31339
0.299262
0.283658
0.283875
0.279175
0.274736
0.271281
0.256391
0.248188
0.232801
0.224738
0.215305
0.205438
0.195437
0.185391
0.175328
0.165261
0.155195
0.145136
0.135084
0.125037
0.114997
0.104966
0.0949414
0.0849227
0.0749069
0.0648936
0.0548843
0.0448808
0.0348809
0.0248702
0.0148157
0.00485558
0.752217
0.737755
0.726883
0.717613
0.70663
0.695142
0.68569
0.675226
0.660777
0.656673
0.644153
0.637651
0.628135
0.617771
0.60758
0.595318
0.582941
0.571071
0.562464
0.552204
0.541048
0.529938
0.518673
0.506825
0.495465
0.485656
0.478436
0.466088
0.454635
0.444819
0.435942
0.424777
0.416793
0.407
0.390544
0.382181
0.372577
0.362911
0.351833
0.341116
0.333378
0.323515
0.311832
0.298573
0.290461
0.284876
0.27903
0.27329
0.268092
0.255811
0.247304
0.235697
0.225658
0.215747
0.205766
0.195722
0.185642
0.175546
0.165446
0.155352
0.145267
0.135194
0.12513
0.115079
0.105037
0.0950017
0.0849729
0.0749498
0.0649306
0.0549155
0.0449062
0.0349019
0.0248863
0.0148274
0.00486034
0.749229
0.740481
0.724562
0.719359
0.704462
0.694516
0.683945
0.673697
0.664733
0.655986
0.642651
0.639416
0.629093
0.617694
0.609818
0.592751
0.582669
0.569747