/*--------------------------------*- C++ -*----------------------------------*\
  =========                 |
  \\      /  F ield         | OpenFOAM: The Open Source CFD Toolbox
   \\    /   O peration     | Website:  https://openfoam.org
    \\  /    A nd           | Version:  12
     \\/     M anipulation  |
\*---------------------------------------------------------------------------*/
FoamFile
{
    format      ascii;
    class       surfaceScalarField;
    location    "0.5";
    object      phi.water_0;
}
// * * * * * * * * * * * * * * * * * * * * * * * * * * * * * * * * * * * * * //

dimensions      [0 3 -1 0 0 0 0];

internalField   nonuniform List<scalar> 
7375
(
1.50155e-07
-1.35778e-08
1.0796e-07
4.3701e-08
9.84349e-08
8.48584e-09
1.03599e-07
-5.1634e-09
9.60249e-08
8.55029e-09
9.74648e-08
-1.45924e-09
1.06042e-07
-8.57327e-09
9.9868e-08
7.21297e-09
9.32351e-08
6.68669e-09
1.25116e-07
-3.31894e-08
9.70581e-08
2.7766e-08
9.47703e-08
2.28217e-09
9.89739e-08
-4.18166e-09
9.65848e-08
3.39971e-09
9.11413e-08
5.44735e-09
9.57792e-08
-4.58521e-09
5.01456e-08
-8.46749e-09
9.98339e-08
3.45693e-09
7.53641e-08
2.46933e-08
7.69314e-08
-1.61971e-09
7.11884e-08
5.72859e-09
7.39753e-08
-2.78043e-09
7.10328e-08
2.95416e-09
7.05207e-08
5.56182e-10
9.07908e-08
-2.02911e-08
4.47679e-08
4.59511e-08
1.64179e-07
4.32306e-08
2.36411e-08
-2.20369e-08
3.12888e-08
-7.58729e-09
5.04054e-08
-1.95985e-08
8.78227e-08
-3.69035e-08
6.97705e-08
1.82e-08
7.48706e-08
-4.99852e-09
7.40412e-08
1.75396e-09
8.63894e-08
-1.31469e-08
1.00258e-07
-1.39927e-08
5.85784e-08
4.14799e-08
6.73708e-08
-8.97336e-09
4.83421e-08
1.9784e-08
3.88796e-08
9.46231e-09
3.68839e-08
2.01378e-09
3.94611e-08
-2.51456e-09
4.74072e-08
-8.30752e-09
5.38786e-08
-6.47106e-09
5.90641e-08
-4.02117e-09
9.85869e-09
-4.85693e-09
1.63391e-07
6.09665e-08
1.5247e-08
-1.27523e-08
1.45421e-08
7.14045e-10
-3.62404e-09
1.81175e-08
1.17103e-07
4.06374e-08
3.56811e-10
-4.37714e-08
-3.38602e-09
3.73372e-09
-6.3463e-09
2.93208e-09
-2.39501e-08
1.76852e-08
-3.16532e-08
7.31007e-09
-5.08759e-08
1.87899e-08
-4.02538e-08
-9.63597e-09
-3.81488e-08
-1.7029e-09
-3.24658e-08
-5.68261e-09
-2.26462e-08
-9.81996e-09
-1.21963e-08
-1.04496e-08
-2.77764e-09
-9.41905e-09
4.97286e-09
-7.75034e-09
1.36536e-08
-8.68134e-09
2.39759e-08
-1.03222e-08
3.61018e-08
-1.21265e-08
4.62469e-08
-1.0145e-08
4.72781e-08
-1.03147e-09
3.25871e-08
1.46914e-08
6.68055e-09
2.59064e-08
-2.57397e-08
3.24201e-08
-5.88721e-08
3.31317e-08
-8.51947e-08
2.63216e-08
6.00499e-09
1.05864e-07
1.52862e-08
-5.36251e-08
-1.19378e-08
1.23851e-09
6.72989e-09
-9.04071e-09
5.1684e-09
-1.73862e-09
1.24833e-09
3.9019e-09
-7.04535e-09
2.81427e-08
-3.34975e-08
2.05522e-09
3.29644e-08
-4.50822e-09
1.30033e-08
1.03631e-07
2.02091e-08
1.35396e-08
-4.26472e-08
4.13705e-08
-2.54119e-08
6.06862e-08
-2.33131e-08
6.70368e-08
-2.95076e-09
7.01549e-08
2.27371e-09
6.25361e-08
3.00309e-09
2.97805e-08
2.46783e-08
1.02673e-08
2.33163e-08
4.16974e-09
3.07281e-08
-2.31128e-08
2.562e-08
-2.60998e-08
8.86093e-09
-3.00859e-08
1.51272e-09
-1.64894e-08
-1.04759e-08
-1.70296e-08
9.2992e-10
9.33132e-08
2.91875e-08
2.34719e-09
-2.24046e-08
4.20417e-08
3.11892e-09
5.64367e-09
1.43612e-08
4.41792e-09
-6.42723e-09
-2.58111e-08
1.04741e-08
7.5201e-08
2.431e-08
-5.12205e-08
-1.69286e-08
-2.04882e-08
-3.55746e-08
-1.54861e-08
-3.47279e-09
-2.65446e-08
-2.49193e-09
3.34354e-08
3.4776e-08
-8.23397e-08
-7.39326e-09
-6.67931e-08
3.10106e-08
-7.04249e-08
2.47785e-08
-6.94292e-08
8.4667e-09
-6.60051e-08
-7.37088e-10
-4.76609e-08
-2.03774e-08
-4.01762e-08
-1.62736e-08
-4.45317e-08
-3.04562e-09
-3.11808e-08
-1.70507e-08
-2.66321e-08
-9.13383e-09
9.91261e-09
2.41501e-08
-1.4028e-08
1.11885e-08
-2.69149e-08
1.3601e-08
-2.71107e-08
1.83135e-08
-1.34326e-08
2.65448e-08
-6.56441e-08
7.99373e-09
-7.33613e-08
1.20761e-08
-8.17069e-08
1.1982e-08
-8.54121e-08
2.12136e-08
-9.49179e-08
1.6816e-08
-9.53339e-08
1.88302e-08
-1.0347e-07
-1.40362e-09
-9.92701e-08
-5.90255e-09
-9.52226e-08
-9.73003e-09
-9.20311e-08
-1.30115e-08
-8.89991e-08
-1.34816e-08
-8.60387e-08
-1.23797e-08
-8.16725e-08
-1.21166e-08
-7.34706e-08
-1.68836e-08
-6.16366e-08
-2.21564e-08
-4.89168e-08
-2.48466e-08
-3.83691e-08
-2.06927e-08
-3.79783e-08
-1.42246e-09
-5.13244e-08
2.80377e-08
-7.1994e-08
4.65759e-08
-9.44362e-08
5.4862e-08
-1.05389e-07
4.40837e-08
-1.06794e-07
2.77256e-08
2.55285e-09
-1.46908e-08
1.50548e-08
-1.59416e-07
-2.84489e-08
-1.32222e-07
-2.03952e-08
-1.22067e-07
-4.98652e-09
-1.22647e-07
3.09251e-09
-1.41061e-07
8.52035e-09
-4.15965e-08
2.99892e-08
-1.28676e-07
-3.71379e-08
-1.04766e-07
-1.22064e-08
-7.66981e-08
-9.13354e-09
-9.71644e-08
-2.26158e-08
-9.72725e-08
-2.65553e-08
-1.11109e-07
-9.38012e-09
-1.00932e-07
-1.19935e-08
-1.18145e-07
-3.29578e-08
-5.57567e-08
-6.2774e-09
-7.59969e-08
4.31344e-08
-7.8463e-08
2.55421e-08
-6.84739e-08
2.1226e-08
-6.09091e-08
1.84153e-08
-6.01137e-08
8.06552e-09
-6.21907e-08
2.97657e-09
-6.40899e-08
-8.68366e-09
-5.9667e-08
-3.48342e-09
-4.07135e-08
1.0234e-08
-5.71157e-08
-6.23102e-09
-5.46992e-08
7.09639e-10
-1.19999e-07
2.47877e-08
-9.78321e-08
2.45996e-08
-1.34447e-07
-6.16851e-09
-1.00305e-07
4.39177e-08
-1.68783e-07
-2.65275e-09
-1.42742e-07
-6.60775e-09
-1.29935e-07
-1.49895e-08
-9.51736e-08
-3.72536e-08
-6.3248e-08
1.52466e-09
-7.63132e-08
5.74723e-09
-6.96021e-08
2.36668e-08
-9.49161e-08
4.95865e-08
-9.67177e-08
1.02683e-08
-1.00725e-07
3.27007e-09
-1.10355e-07
-1.09552e-08
-1.20877e-07
-5.91789e-09
-1.79442e-07
1.87048e-09
-1.68208e-07
2.3822e-08
-1.03874e-07
3.48431e-08
-1.88977e-07
3.04495e-09
-1.6014e-07
-1.76481e-08
-1.49462e-07
2.92353e-09
-1.38717e-07
7.56825e-09
-1.35469e-07
2.30616e-08
-1.3905e-07
1.28617e-08
-1.33165e-07
7.46075e-09
-1.32181e-07
1.09984e-08
-1.29156e-07
1.81885e-08
-1.33267e-07
2.09275e-08
-1.35128e-07
2.06911e-08
-1.45177e-07
8.64483e-09
-1.50853e-07
-2.26526e-10
-1.51196e-07
-9.38662e-09
-1.50395e-07
-1.38124e-08
-1.50064e-07
-1.38129e-08
-1.49229e-07
-1.32151e-08
-1.46037e-07
-1.53083e-08
-1.40293e-07
-2.26278e-08
-1.34578e-07
-2.78716e-08
-1.30707e-07
-2.87176e-08
-1.29256e-07
-2.21444e-08
-1.31691e-07
1.0123e-09
-1.34755e-07
3.11022e-08
-1.34465e-07
4.62853e-08
-1.26736e-07
4.71326e-08
-1.18773e-07
3.61201e-08
-1.11845e-07
2.07959e-08
-1.29048e-09
-1.27073e-07
-3.94437e-09
-1.55655e-07
1.44365e-09
-1.66594e-07
-7.78761e-09
-1.65827e-07
-5.75314e-09
-1.56878e-07
-5.85643e-09
-1.49699e-07
2.92606e-09
-1.17155e-07
-3.16092e-09
-1.25744e-07
-3.01223e-08
-1.2912e-07
-8.95526e-09
-1.18194e-07
-2.00596e-08
-1.154e-07
-2.54094e-08
-1.21109e-07
-1.96106e-08
-1.16552e-07
-1.38419e-08
-1.09038e-07
-2.04879e-08
-1.47751e-07
5.75569e-09
-1.20582e-08
1.90357e-08
-1.22439e-07
-5.80695e-09
-9.9553e-08
1.13518e-09
-7.25285e-08
-5.79845e-09
-6.85403e-08
1.44272e-08
-7.35276e-08
1.31351e-08
-8.50487e-08
1.44977e-08
-7.51663e-08
-1.87575e-08
-1.05516e-07
2.68665e-08
-1.04473e-07
9.19041e-09
-1.20904e-07
8.96703e-09
-1.03756e-07
-1.66095e-08
-1.27884e-07
4.94695e-08
-1.38966e-07
3.40127e-08
-4.19608e-08
5.94961e-08
-1.35468e-07
-2.30942e-08
-1.53387e-07
1.52928e-08
-1.21268e-07
-3.87264e-08
-1.73863e-07
3.76057e-08
-8.34525e-08
3.29027e-08
-9.0399e-08
8.47111e-09
-6.70483e-08
-1.76035e-08
-6.0712e-08
1.79499e-08
-1.47004e-07
-2.34438e-08
-1.33729e-07
-4.50577e-09
-1.29963e-07
-4.96605e-10
-1.31245e-07
-9.67249e-09
-1.05528e-07
-3.19616e-08
-1.35611e-07
3.16309e-08
-1.32959e-07
2.09563e-08
-1.25506e-07
2.54944e-08
-1.72585e-07
-4.07802e-09
-1.51554e-07
1.67302e-08
-1.51878e-07
3.28172e-09
-1.26807e-07
-1.62091e-08
-1.17943e-07
1.52346e-08
-1.13291e-07
8.08096e-09
-1.12169e-07
6.33958e-09
-1.13038e-07
1.18676e-08
-1.15123e-07
2.02732e-08
-1.19943e-07
2.57477e-08
-1.25774e-07
2.65224e-08
-1.37384e-07
2.02548e-08
-1.47822e-07
1.02115e-08
-1.54229e-07
-2.97954e-09
-1.58238e-07
-9.80357e-09
-1.62471e-07
-9.58014e-09
-1.66183e-07
-9.50286e-09
-1.65735e-07
-1.57568e-08
-1.61499e-07
-2.68641e-08
-1.58243e-07
-3.1128e-08
-1.574e-07
-2.95604e-08
-1.608e-07
-1.87446e-08
-1.61867e-07
2.07923e-09
-1.55302e-07
2.45373e-08
-1.44432e-07
3.5415e-08
-1.30627e-07
3.33265e-08
-1.21112e-07
2.66045e-08
-1.14744e-07
1.44265e-08
-3.50277e-09
-1.55182e-07
3.45299e-09
-1.56149e-07
3.94905e-09
-1.52197e-07
-1.17385e-08
-1.58033e-07
-1.46951e-09
-1.348e-07
-2.74339e-08
-1.29263e-07
-2.61116e-09
-1.27186e-07
-6.5886e-09
-1.31034e-07
-2.62737e-08
-1.73755e-07
-1.96827e-08
-1.35942e-07
-4.2237e-09
-1.40927e-07
-2.04239e-08
-1.45147e-07
-1.53907e-08
-1.74535e-07
-3.64636e-08
-1.24603e-07
-1.7312e-08
-1.25064e-07
4.94529e-09
-7.08173e-08
-3.5211e-08
-1.47469e-07
1.84526e-08
-1.01337e-07
8.1108e-09
-8.04885e-08
-2.79663e-08
-9.33326e-08
2.72713e-08
-1.08418e-07
2.82204e-08
-1.29022e-07
3.37856e-08
-3.47337e-08
4.95603e-08
-1.60212e-07
-8.24855e-09
-1.1988e-07
-3.14623e-08
-1.63966e-07
5.13809e-08
-2.26493e-08
5.08415e-09
-1.16787e-07
-1.54862e-08
-1.17778e-07
3.38126e-08
-9.09565e-08
3.20675e-08
-1.22343e-07
8.29225e-09
-1.57902e-07
-2.76914e-09
-2.02455e-08
3.82133e-08
-1.8163e-07
-1.56059e-08
-1.16676e-07
2.15972e-08
-1.30892e-07
2.26877e-08
-3.1481e-08
4.39323e-08
-1.41551e-07
-3.29279e-08
-1.45875e-07
-1.93584e-08
-1.48463e-07
-1.91765e-09
-1.47491e-07
-1.46935e-09
-1.65455e-07
6.67179e-09
-4.01102e-08
5.71347e-09
-1.28098e-07
-3.76241e-08
-9.99486e-08
-7.55413e-09
-8.08448e-08
5.38132e-09
-9.21479e-08
6.44197e-09
-8.29228e-08
6.59205e-09
-1.30587e-07
-3.25594e-09
-9.12619e-08
3.78093e-10
-9.34217e-08
1.83069e-08
-9.84741e-08
1.31335e-08
-1.04442e-07
1.23076e-08
-1.05937e-07
1.3363e-08
-1.08153e-07
2.24885e-08
-1.12305e-07
2.98998e-08
-1.17506e-07
3.17242e-08
-1.26052e-07
2.88006e-08
-1.37473e-07
2.16327e-08
-1.51484e-07
1.10316e-08
-1.63138e-07
1.84982e-09
-1.70576e-07
-2.14167e-09
-1.72728e-07
-7.35104e-09
-1.68233e-07
-2.02518e-08
-1.62756e-07
-3.23418e-08
-1.58751e-07
-3.51335e-08
-1.56559e-07
-3.17523e-08
-1.57871e-07
-1.74328e-08
-1.58541e-07
2.74931e-09
-1.51377e-07
1.73733e-08
-1.38983e-07
2.30204e-08
-1.27456e-07
2.1799e-08
-1.19429e-07
1.85768e-08
-1.15724e-07
1.07199e-08
-2.9488e-09
-1.73051e-07
1.3943e-08
-1.53667e-07
-1.5434e-08
-1.45973e-07
-2.11195e-08
-1.65317e-07
-3.4087e-08
-1.06807e-07
-3.28368e-08
-1.22119e-07
1.14677e-08
-1.19857e-07
-8.8503e-09
-1.23874e-07
-2.1209e-08
-8.97292e-08
-5.38274e-08
-1.03403e-07
8.44872e-09
-1.12049e-07
-1.17777e-08
-1.1249e-07
-1.49497e-08
-1.27162e-07
-2.17914e-08
-1.05567e-07
-3.94863e-08
-1.68388e-07
1.41167e-08
-2.86909e-08
3.99811e-08
-1.46e-07
-2.35602e-08
-1.33374e-07
-7.3576e-09
-3.28371e-08
3.4103e-08
-1.20229e-07
-4.64229e-08
-1.1048e-07
1.84718e-08
-1.32256e-07
5.5001e-08
-1.19738e-07
3.6536e-08
-1.56208e-07
2.6628e-08
-6.54657e-08
4.04016e-08
-2.26029e-07
-1.98393e-09
-5.50969e-08
4.86962e-08
-7.21205e-08
1.37945e-09
-1.67823e-07
-3.14321e-08
-1.17711e-07
-1.80449e-08
-1.47439e-07
-1.41248e-08
-1.09189e-07
1.20887e-08
-8.45638e-08
1.24738e-08
-1.15634e-07
1.54642e-08
-1.11839e-07
1.78022e-08
-1.13161e-07
2.40095e-08
-8.67692e-08
1.75406e-08
-1.13442e-07
-6.2553e-09
-9.92751e-08
-3.35252e-08
-1.41744e-07
4.05511e-08
-1.47872e-07
3.14993e-09
-1.74756e-07
-2.06459e-08
-1.19657e-07
7.20854e-09
-1.15532e-07
-4.37375e-08
-1.45561e-07
2.09904e-08
-1.36241e-07
-2.42395e-09
-1.24955e-07
-3.56931e-09
-1.05721e-07
-1.26419e-08
-9.89432e-08
-1.10786e-08
-9.41532e-08
-3.45133e-09
-9.09075e-08
1.60026e-08
-9.27566e-08
1.49827e-08
-9.64163e-08
1.59673e-08
-1.00662e-07
1.7609e-08
-1.03944e-07
2.57709e-08
-1.06307e-07
3.22628e-08
-1.0936e-07
3.47768e-08
-1.13125e-07
3.2566e-08
-1.19017e-07
2.75239e-08
-1.2888e-07
2.0895e-08
-1.40994e-07
1.39641e-08
-1.50258e-07
7.1223e-09
-1.52257e-07
-5.3525e-09
-1.47075e-07
-2.54337e-08
-1.44122e-07
-3.52952e-08
-1.43136e-07
-3.6119e-08
-1.44867e-07
-3.00217e-08
-1.47892e-07
-1.44083e-08
-1.46706e-07
1.56286e-09
-1.40445e-07
1.11123e-08
-1.32136e-07
1.47109e-08
-1.25007e-07
1.46699e-08
-1.19513e-07
1.30812e-08
-1.17052e-07
8.25768e-09
-2.02759e-09
-1.28396e-07
4.60933e-09
-1.35357e-07
-8.62925e-09
-1.37857e-07
-1.86194e-08
-1.62432e-07
-9.51169e-09
-3.88184e-08
4.55844e-09
-1.3482e-07
-5.18527e-08
-1.16151e-07
-3.0079e-08
-1.4005e-07
2.68973e-09
-1.32578e-08
-1.86572e-08
-1.15736e-07
-4.83948e-08
-1.05857e-07
-2.26067e-08
-1.02459e-07
-1.83473e-08
-1.45253e-07
1.97217e-08
-4.67983e-08
2.46654e-08
-1.82868e-07
-1.02835e-08
-1.30047e-07
-1.29718e-08
-1.51662e-07
-3.77112e-09
-1.68636e-07
9.61617e-09
-1.57063e-07
2.22999e-08
-8.18709e-08
4.09915e-08
-8.63323e-08
2.46492e-08
-1.72602e-07
-1.80516e-08
-1.25879e-07
-1.19469e-08
-1.35713e-07
3.60932e-08
-1.23993e-07
2.82691e-08
-1.44001e-07
1.80241e-08
-1.22754e-07
2.74493e-08
-1.1933e-07
-2.04468e-09
-1.26883e-07
-2.38791e-08
-1.29705e-07
-1.5223e-08
-1.3755e-07
-6.27935e-09
-1.18569e-07
-6.76896e-09
-1.25135e-07
1.904e-08
-1.28952e-07
1.92809e-08
-1.25064e-07
1.39137e-08
-1.29927e-07
2.85814e-08
-1.28104e-07
1.57178e-08
-1.47621e-07
1.32609e-08
-3.75866e-08
1.73879e-08
-1.65964e-07
-4.56678e-08
-1.57548e-07
-5.26666e-09
-1.64479e-07
4.0145e-08
-1.68089e-07
9.10436e-09
-7.09266e-08
2.19861e-08
-1.81099e-07
-2.94837e-08
-1.7159e-07
-1.37991e-08
-1.60534e-07
-1.28754e-08
-1.5526e-07
-1.82302e-08
-1.25023e-07
-4.17419e-08
-1.24665e-07
-2.53687e-09
-1.29675e-07
2.22591e-08
-1.26426e-07
1.17332e-08
-1.23734e-07
1.3276e-08
-1.22329e-07
1.62038e-08
-1.17287e-07
2.07291e-08
-1.13287e-07
2.82622e-08
-1.1113e-07
3.26205e-08
-1.10316e-07
3.17516e-08
-1.10517e-07
2.7725e-08
-1.13316e-07
2.36939e-08
-1.17986e-07
1.8634e-08
-1.21304e-07
1.04405e-08
-1.22046e-07
-4.61027e-09
-1.22409e-07
-2.50712e-08
-1.25104e-07
-3.26e-08
-1.29013e-07
-3.221e-08
-1.35028e-07
-2.4007e-08
-1.39697e-07
-9.74005e-09
-1.38444e-07
3.09983e-10
-1.33705e-07
6.37317e-09
-1.28691e-07
9.69665e-09
-1.24189e-07
1.01675e-08
-1.20546e-07
9.43706e-09
-1.18565e-07
6.27472e-09
-1.43305e-09
-1.14463e-07
-7.28778e-10
-1.23802e-07
7.10419e-10
-1.31348e-07
-1.10736e-08
-1.43175e-07
2.34055e-09
-1.08249e-07
-3.03682e-08
-1.31284e-07
-2.93459e-08
-1.09782e-07
-5.21132e-08
-1.61812e-07
1.0439e-09
-1.39032e-07
1.23379e-08
-1.44658e-07
-4.17871e-08
-1.43314e-07
-2.39504e-08
-1.22242e-07
-4.2128e-08
-1.53901e-07
-2.82152e-09
-1.47032e-07
7.27637e-08
-1.68326e-07
9.29374e-09
-2.03037e-07
1.98514e-08
-1.9429e-07
-1.04254e-08
-1.89975e-07
7.18443e-09
-1.79563e-07
1.1888e-08
-1.30554e-07
-8.43571e-09
-1.49563e-07
4.32181e-08
-1.90253e-07
2.24545e-08
-7.72044e-08
3.67389e-08
-1.581e-07
-4.23329e-08
-1.60104e-07
2.83707e-08
-1.42874e-07
7.94431e-10
-1.50433e-07
-1.86409e-08
-1.59834e-07
7.3559e-09
-1.37868e-07
7.80398e-09
-1.51267e-07
-1.82348e-09
-1.45021e-07
-1.25259e-08
-1.15703e-07
-3.64588e-08
-1.28931e-07
3.19424e-08
-1.35743e-07
2.60929e-08
-1.40524e-07
2.01278e-08
-1.29007e-07
1.70649e-08
-1.25447e-07
1.08412e-08
-1.16909e-07
4.72321e-09
-1.0089e-07
1.36882e-09
-1.55574e-07
9.01563e-09
-1.79826e-07
1.8794e-08
-1.48553e-07
8.87179e-09
-1.53724e-07
1.42755e-08
-1.37759e-07
5.79648e-09
-1.58402e-07
-9.14056e-09
-1.69565e-07
-2.49623e-09
-1.82945e-07
-1.34759e-09
-2.11769e-07
8.41139e-09
-1.13882e-07
2.51594e-08
-1.0034e-07
-1.3893e-08
-1.89211e-07
-4.60563e-08
-1.72231e-07
-5.24693e-09
-1.65543e-07
6.58837e-09
-1.58526e-07
9.18711e-09
-1.49666e-07
1.1869e-08
-1.38458e-07
1.70544e-08
-1.27213e-07
2.13755e-08
-1.17941e-07
2.24791e-08
-1.11936e-07
2.17203e-08
-1.09661e-07
2.14193e-08
-1.09083e-07
1.80558e-08
-1.09265e-07
1.06228e-08
-1.10714e-07
-3.16146e-09
-1.14854e-07
-2.09317e-08
-1.19988e-07
-2.74661e-08
-1.25228e-07
-2.69698e-08
-1.30513e-07
-1.87219e-08
-1.33384e-07
-6.8701e-09
-1.32321e-07
-7.53129e-10
-1.29494e-07
3.54666e-09
-1.26526e-07
6.72832e-09
-1.23618e-07
7.25798e-09
-1.21212e-07
7.03029e-09
-1.19722e-07
4.78383e-09
-9.93693e-10
-1.3305e-07
2.91886e-09
-1.37477e-07
5.13839e-09
-1.55731e-07
5.65011e-09
-1.76418e-07
-3.11742e-08
-1.42749e-07
-8.58832e-09
-1.70349e-07
-3.48305e-09
-7.43756e-08
1.46707e-08
-2.00414e-07
-3.55134e-08
-2.0316e-07
-3.91175e-08
-1.89507e-07
2.84515e-10
-2.10224e-07
-3.47744e-09
-1.22783e-07
3.13776e-08
-1.34409e-07
8.83418e-09
-2.3147e-07
-4.47721e-08
-1.79941e-07
9.57782e-09
-2.22602e-07
8.10587e-09
-2.01604e-07
2.46038e-08
-1.93424e-07
-9.95792e-10
-2.00978e-07
1.94422e-08
-9.61445e-08
4.86584e-08
-1.84437e-07
-2.7533e-08
-1.72858e-07
8.99372e-09
-1.64686e-07
2.82781e-08
-7.69543e-08
3.12362e-08
-1.8384e-07
-2.40659e-08
-1.70373e-07
-1.45476e-08
-1.63713e-07
-2.53005e-08
-1.88683e-07
3.19987e-08
-1.86974e-07
6.15784e-09
-1.79981e-07
-8.8158e-09
-1.78059e-07
-1.62649e-08
-6.17745e-08
1.04995e-08
-1.54911e-07
-3.39627e-08
-1.53486e-07
2.30884e-08
-1.66736e-07
3.33776e-08
-1.47998e-07
-1.48462e-09
-1.51376e-07
1.422e-08
-1.45627e-07
-1.0261e-09
-1.20318e-07
-2.39409e-08
-1.51358e-07
4.11804e-08
-1.46286e-07
1.37216e-08
-1.46347e-07
7.44006e-09
-1.41419e-07
9.25369e-09
-1.34338e-07
-1.28431e-09
-1.35888e-07
-7.59066e-09
-1.54969e-07
-3.54838e-08
-1.32235e-07
2.87356e-08
-1.31299e-07
6.04039e-09
-1.06779e-07
3.82918e-10
-8.074e-08
-4.03433e-08
-1.07585e-07
-1.85836e-08
-1.3764e-07
2.5884e-08
-1.4252e-07
1.14682e-08
-1.44794e-07
1.14611e-08
-1.44509e-07
1.15838e-08
-1.39442e-07
1.19875e-08
-1.29394e-07
1.13277e-08
-1.17868e-07
1.09526e-08
-1.07861e-07
1.17133e-08
-1.02491e-07
1.60496e-08
-1.00611e-07
1.61765e-08
-1.0275e-07
1.27611e-08
-1.09299e-07
3.38818e-09
-1.16573e-07
-1.36585e-08
-1.20663e-07
-2.33758e-08
-1.23854e-07
-2.37792e-08
-1.27358e-07
-1.52184e-08
-1.297e-07
-4.52816e-09
-1.29872e-07
-5.80956e-10
-1.28244e-07
1.91863e-09
-1.2618e-07
4.66329e-09
-1.2395e-07
5.02724e-09
-1.22056e-07
5.13518e-09
-1.20668e-07
3.39491e-09
-7.29649e-10
-1.24552e-07
2.85119e-09
-1.284e-07
7.67708e-09
-1.68772e-07
-8.1797e-09
-1.3115e-07
-1.32415e-08
-1.58523e-07
1.87844e-08
-1.66938e-07
3.22949e-09
-1.50334e-07
-3.63424e-09
-2.20324e-07
-1.83654e-08
-2.09826e-07
4.54013e-09
-2.14781e-07
5.29457e-09
-2.12857e-07
-3.2439e-09
-1.87013e-07
5.53392e-09
-1.72367e-07
-5.81139e-09
-2.17368e-07
2.31196e-10
-1.63294e-07
-4.44963e-08
-1.88574e-07
3.29668e-08
-1.76975e-07
1.3005e-08
-1.775e-07
-4.75439e-10
-1.80412e-07
2.2354e-08
-1.78035e-07
-5.5514e-09
-1.70595e-07
1.76774e-08
-1.69877e-07
8.2684e-09
-1.56262e-07
1.46637e-08
-1.38118e-07
1.14975e-08
-1.64183e-07
1.75409e-09
-1.84706e-07
5.97539e-09
-8.61939e-08
3.76299e-08
-1.91249e-07
-2.41992e-08
-2.34203e-07
-7.06181e-09
-1.7045e-07
-1.63636e-08
-1.59127e-07
-2.75878e-08
-1.19797e-07
-3.04705e-08
-1.81319e-07
2.72094e-08
-1.6809e-07
1.17091e-08
-1.80043e-07
-6.48144e-09
-1.63356e-07
3.52922e-08
-1.6095e-07
1.01468e-08
-1.60843e-07
-1.12173e-09
-5.43865e-08
3.11049e-08
-1.53759e-07
-1.87687e-08
-1.30619e-07
-1.08476e-08
-1.25274e-07
3.373e-09
-1.20601e-07
4.53571e-09
-1.2232e-07
-7.95715e-10
-1.35081e-07
5.16972e-09
-4.02271e-08
3.0707e-08
-1.35649e-07
-3.4874e-08
-1.2368e-07
-7.23912e-09
-1.34931e-07
1.02575e-08
-4.92613e-08
3.65935e-08
-6.46717e-08
-2.01085e-09
-1.58352e-07
-3.78969e-08
-1.40714e-07
-6.23241e-09
-1.36634e-07
7.38124e-09
-1.32608e-07
7.55794e-09
-1.25527e-07
4.90652e-09
-1.15974e-07
1.77483e-09
-1.04388e-07
-6.33546e-10
-9.21445e-08
-5.2996e-10
-8.25432e-08
6.4484e-09
-7.78384e-08
1.14716e-08
-7.77965e-08
1.27192e-08
-8.27138e-08
8.3054e-09
-9.34311e-08
-2.94123e-09
-1.03074e-07
-1.37331e-08
-1.11374e-07
-1.54791e-08
-1.18522e-07
-8.07063e-09
-1.23004e-07
-4.61625e-11
-1.25465e-07
1.87991e-09
-1.25902e-07
2.35454e-09
-1.24969e-07
3.72995e-09
-1.2377e-07
3.82773e-09
-1.22197e-07
3.56123e-09
-1.21298e-07
2.49467e-09
-5.02489e-10
-1.06009e-07
5.58017e-08
-1.21219e-07
2.18064e-08
-1.54791e-07
2.38968e-08
-4.37184e-08
3.82923e-08
-1.73517e-07
-1.19179e-08
-1.56636e-07
-1.36516e-08
-1.21929e-07
-3.95482e-08
-1.91373e-07
-2.93387e-09
-1.87306e-07
5.41642e-08
-2.0082e-07
1.66841e-08
-2.09863e-07
7.86906e-09
-2.01168e-07
-1.0203e-09
-1.96446e-07
-1.26664e-08
-2.49198e-07
-1.21847e-09
-1.14383e-07
3.89943e-08
-2.18159e-07
-2.28103e-08
-2.16103e-07
6.51942e-09
-1.38831e-07
3.03437e-08
-2.09341e-07
-1.30173e-08
-2.02578e-07
-1.02485e-08
-1.44475e-07
-4.02472e-08
-1.61872e-07
2.41918e-08
-1.56796e-07
9.73724e-09
-1.40225e-07
-5.07282e-09
-1.45802e-07
7.33032e-09
-1.38749e-07
3.35308e-10
-1.08178e-07
7.05859e-09
-1.26149e-07
-7.57924e-09
-1.79582e-07
-5.37311e-09
-1.3827e-07
-4.5686e-09
-1.24735e-07
-4.38058e-08
-2.44947e-08
3.1895e-08
-1.95172e-07
3.69114e-08
-1.66128e-07
-1.73341e-08
-1.62987e-07
-1.12855e-08
-1.707e-07
-1.08334e-08
-1.63497e-07
6.35293e-09
-1.29487e-07
1.79763e-08
-1.07061e-07
7.35755e-09
-1.17691e-07
-8.33043e-09
-1.19754e-07
-8.7849e-09
-1.18592e-07
3.38689e-09
-1.14821e-07
8.19085e-10
-1.14945e-07
-1.8439e-09
-1.07986e-07
-6.87595e-10
-8.01354e-08
2.8283e-09
-9.64366e-08
-1.87623e-08
-8.21525e-08
-2.15232e-08
-8.0485e-08
7.83176e-09
-6.92829e-08
2.50182e-08
-8.78202e-08
1.65265e-08
-1.27794e-07
1.69065e-09
-1.40178e-07
7.44145e-09
-1.36016e-07
4.62113e-09
-1.32124e-07
3.66584e-09
-1.23514e-07
-3.70325e-09
-1.12398e-07
-9.34084e-09
-1.00704e-07
-1.23278e-08
-9.01184e-08
-1.11157e-08
-7.82448e-08
-5.42516e-09
-6.89512e-08
2.17803e-09
-6.45185e-08
8.28645e-09
-6.55326e-08
9.31943e-09
-7.48855e-08
6.41166e-09
-9.10442e-08
2.42546e-09
-1.08051e-07
1.52779e-09
-1.19259e-07
3.1364e-09
-1.23892e-07
4.5875e-09
-1.25954e-07
3.94103e-09
-1.26595e-07
2.99574e-09
-1.25396e-07
2.53077e-09
-1.24102e-07
2.53287e-09
-1.22591e-07
2.04889e-09
-1.2182e-07
1.72299e-09
-3.68993e-10
-1.61342e-07
-2.52994e-08
-1.50019e-07
8.83811e-09
-1.38324e-07
1.22029e-08
-1.12472e-07
1.20498e-08
-1.3536e-07
1.086e-08
-1.95902e-07
-6.6903e-09
-5.71892e-08
3.5968e-08
-5.64162e-08
-3.63966e-09
-1.72944e-07
-4.34607e-08
-1.29273e-07
2.62242e-08
-1.27538e-07
5.99278e-09
-1.37222e-07
7.26425e-09
-1.68524e-07
1.86356e-08
-1.68578e-07
5.61069e-10
-1.42667e-07
1.15102e-08
-1.62863e-07
-2.81951e-09
-1.5709e-07
4.05197e-09
-1.3772e-07
1.06664e-08
-1.55348e-07
3.20661e-09
-2.18644e-07
-6.0158e-10
-6.56684e-08
2.09624e-08
-2.13967e-07
-4.2106e-08
-1.42428e-07
-8.15276e-09
-1.40068e-07
-7.50871e-09
-1.3408e-07
2.70951e-09
-1.27423e-07
-6.32144e-09
-1.18712e-07
-2.88048e-09
-1.20681e-07
-5.60984e-09
-1.28521e-07
2.46667e-09
-1.79207e-07
-7.57827e-09
-5.32768e-08
4.48601e-08
-2.87795e-08
7.07239e-09
-1.52519e-07
-5.39457e-08
-1.54419e-07
-1.54337e-08
-1.38216e-07
2.61599e-08
-1.4809e-07
-8.48447e-10
-1.4792e-07
6.18254e-09
-1.37423e-07
7.66292e-09
-1.2841e-07
-1.65559e-09
-1.25168e-07
-1.15719e-08
-1.30073e-07
-2.55289e-09
-1.27012e-07
-9.4756e-10
-1.2918e-07
1.66955e-09
-1.28213e-07
-1.49317e-09
-1.23798e-07
-3.84013e-09
-1.13017e-07
-7.92367e-09
-1.24943e-07
-8.07162e-09
-1.03191e-07
-4.50068e-08
-1.30656e-07
3.52972e-08
-1.34419e-07
3.01137e-08
-1.40383e-07
2.24905e-08
-1.51152e-07
1.38605e-08
-1.49814e-07
7.54046e-09
-1.437e-07
-1.49288e-09
-1.29725e-07
-1.03092e-08
-1.17113e-07
-1.63153e-08
-1.03936e-07
-2.25175e-08
-9.23888e-08
-2.38752e-08
-8.39223e-08
-1.95821e-08
-7.65041e-08
-1.28434e-08
-7.21919e-08
-2.13423e-09
-7.1978e-08
8.07257e-09
-7.66139e-08
1.39553e-08
-8.72439e-08
1.70416e-08
-1.02518e-07
1.7699e-08
-1.14679e-07
1.36892e-08
-1.21109e-07
9.56574e-09
-1.23636e-07
7.1145e-09
-1.24776e-07
5.08053e-09
-1.25069e-07
3.28912e-09
-1.24449e-07
1.90991e-09
-1.23743e-07
1.8263e-09
-1.227e-07
1.00476e-09
-1.22121e-07
1.14265e-09
-1.98494e-10
-1.50784e-07
5.98712e-09
-1.31977e-07
-9.96808e-09
-1.19033e-07
-7.40617e-10
-1.06629e-07
7.34171e-10
-9.26776e-08
-2.15507e-09
-9.1124e-08
-8.25941e-09
-4.3292e-08
-1.2347e-08
-2.16454e-08
-2.55048e-08
-2.3634e-08
-4.1452e-08
-1.86413e-08
2.09694e-08
-2.15607e-09
-1.07896e-08
1.3604e-08
-8.51773e-09
2.54028e-10
3.14718e-08
-3.19477e-09
4.04217e-09
1.32775e-08
-5.18067e-09
-1.83647e-08
2.90937e-08
-3.26212e-08
1.79343e-08
-5.00717e-08
2.85585e-08
-7.63656e-08
2.95005e-08
-1.27193e-07
-3.45882e-09
-1.05184e-07
5.2603e-08
-1.49673e-07
-5.17944e-08
-1.63299e-07
5.74564e-08
-1.81638e-07
1.08298e-08
-1.57984e-07
-1.90907e-08
-1.48486e-07
-1.58849e-08
-1.34657e-07
-1.67095e-08
-1.25396e-07
-1.48702e-08
-9.77849e-08
-2.54037e-08
-1.30928e-07
2.55651e-08
-9.86982e-08
1.263e-08
-9.65927e-08
4.96688e-09
-1.39056e-07
-1.14823e-08
-1.63605e-07
9.11563e-09
-1.14597e-07
-2.28485e-08
-1.07212e-07
-8.23341e-09
-1.36676e-07
3.52863e-08
-1.31945e-07
2.9325e-09
-1.28678e-07
-4.97379e-09
-1.17823e-07
-2.24267e-08
-1.16587e-07
-2.59962e-09
-1.07929e-07
-8.52481e-09
-8.8012e-08
-1.91611e-08
-9.28906e-08
2.48754e-09
-1.08873e-07
1.20192e-08
-1.12364e-07
-5.60225e-09
-1.86851e-07
1.02878e-08
-7.02472e-08
5.71232e-08
-1.87426e-07
-8.11511e-09
-1.76781e-07
1.94694e-08
-1.676e-07
1.4867e-08
-1.61713e-07
9.51098e-09
-1.53573e-07
-5.99866e-10
-1.43571e-07
-1.14947e-08
-1.32102e-07
-2.17785e-08
-1.19993e-07
-2.84234e-08
-1.0896e-07
-3.35509e-08
-1.00308e-07
-3.25275e-08
-9.26446e-08
-2.72454e-08
-8.72998e-08
-1.81881e-08
-8.62696e-08
-3.16446e-09
-9.22717e-08
1.40747e-08
-1.02876e-07
2.45598e-08
-1.14081e-07
2.82464e-08
-1.231e-07
2.67172e-08
-1.26403e-07
1.69925e-08
-1.26233e-07
9.39546e-09
-1.25544e-07
6.42553e-09
-1.25302e-07
4.83804e-09
-1.25138e-07
3.12505e-09
-1.2465e-07
1.42167e-09
-1.23965e-07
1.14024e-09
-1.23033e-07
7.17453e-11
-1.22434e-07
5.42658e-10
-1.25129e-10
-1.42912e-07
-2.04726e-09
-1.42293e-07
-1.05865e-08
-1.39286e-07
-3.74659e-09
-1.39463e-07
9.11288e-10
-1.39514e-07
-2.1044e-09
-1.37817e-07
-1.01435e-08
-1.38881e-07
-1.1409e-08
-1.47516e-07
-1.71303e-08
-4.79422e-08
1.9988e-08
-1.56433e-07
-3.1548e-08
-1.71022e-07
2.07548e-09
-4.18437e-08
2.5423e-08
-1.48115e-07
-2.15786e-08
-1.10109e-07
-3.61877e-08
-8.87544e-08
-2.77899e-08
-1.38131e-07
2.66319e-08
-7.46528e-08
8.86712e-09
-8.19614e-08
3.51055e-08
-1.35273e-07
8.1432e-08
-2.57638e-08
4.96382e-08
-2.17006e-07
2.70227e-08
2.30595e-08
8.7554e-08
-1.88972e-07
-5.26414e-08
-1.55033e-07
-2.32202e-08
-1.49852e-07
-2.42718e-08
-1.39519e-07
-2.62181e-08
-1.27458e-07
-2.90662e-08
-1.45266e-07
1.45534e-09
-2.5996e-08
1.79324e-08
-1.35857e-07
-2.52555e-08
-1.22479e-07
-7.56184e-10
-1.21994e-07
4.43669e-09
-1.39039e-07
5.56241e-09
-1.9011e-07
6.53792e-09
-5.28256e-08
5.44632e-08
-6.31913e-08
2.77692e-09
-1.43903e-07
-4.33238e-08
-1.35245e-07
-8.57334e-09
-1.82292e-07
-1.21292e-08
-1.47781e-07
-1.42871e-09
-1.39893e-07
-1.04881e-08
-1.71181e-07
-2.95277e-08
-1.08638e-07
-2.90835e-08
-9.82374e-08
-8.01924e-09
-7.56631e-08
-9.79097e-09
-6.58072e-08
-1.65567e-08
-7.66986e-08
2.0403e-08
-5.59714e-08
3.58132e-08
-9.1276e-08
2.69149e-08
-1.035e-07
3.24182e-08
-1.07442e-07
1.96959e-08
-1.06533e-07
8.60197e-09
-1.05516e-07
-1.61709e-09
-1.09417e-07
-7.59398e-09
-1.16932e-07
-1.42635e-08
-1.24435e-07
-2.09204e-08
-1.29747e-07
-2.82384e-08
-1.32748e-07
-2.95274e-08
-1.32267e-07
-2.77255e-08
-1.29328e-07
-2.11274e-08
-1.25469e-07
-7.02402e-09
-1.2453e-07
1.31363e-08
-1.26542e-07
2.65712e-08
-1.2829e-07
2.99947e-08
-1.28463e-07
2.68905e-08
-1.27394e-07
1.59234e-08
-1.25985e-07
7.98538e-09
-1.25089e-07
5.52999e-09
-1.24633e-07
4.38191e-09
-1.24321e-07
2.81278e-09
-1.2389e-07
9.8989e-10
-1.23419e-07
6.68627e-10
-1.22883e-07
-4.65434e-10
-1.22518e-07
1.77035e-10
-2.34451e-11
-1.44444e-07
-1.63716e-08
-1.32947e-07
-2.35562e-08
-1.19909e-07
-1.67849e-08
-1.1663e-07
-1.17698e-09
-1.17783e-07
-2.14094e-09
-1.3251e-07
3.3357e-09
-1.34724e-07
-7.92458e-09
-1.46141e-07
-5.77181e-09
-1.32752e-07
5.24428e-09
-1.6302e-07
-1.60521e-09
-1.65512e-07
6.20986e-09
-1.41393e-07
1.30355e-09
-1.96661e-07
-1.81733e-08
-1.74714e-07
-6.79122e-09
-8.23241e-08
4.17602e-08
-1.7266e-07
-4.39795e-08
-7.63703e-08
7.27456e-08
-7.40119e-08
3.35264e-08
-2.06885e-07
-2.90776e-10
-9.59928e-09
6.58679e-08
-1.27898e-07
-1.40007e-08
-4.92307e-08
6.68906e-09
-8.8954e-08
-1.29181e-08
-8.84042e-08
-2.35299e-08
-9.68037e-08
-1.58723e-08
-1.09128e-07
-1.50068e-08
-1.37324e-07
-8.79496e-10
-1.07946e-07
-2.65222e-08
-9.01539e-08
-4.26711e-11
-1.08515e-07
-8.00129e-09
-1.61956e-07
1.52426e-10
-1.19966e-07
1.71888e-08
-1.07884e-07
-7.74327e-09
-1.06538e-07
5.19184e-09
-6.14584e-08
9.38378e-09
-7.77906e-08
1.91091e-08
-1.0571e-07
-1.58468e-08
-1.20981e-07
6.69827e-09
-1.37494e-07
4.50765e-09
-1.39708e-07
7.85272e-10
-1.49339e-07
-2.38105e-09
-1.67588e-07
-1.30054e-08
-1.34819e-07
-6.10546e-08
-1.59527e-07
1.80645e-08
-1.6588e-07
-6.92267e-09
-1.73108e-07
-9.60147e-09
-1.58484e-07
9.31105e-09
-1.40643e-07
1.94077e-08
-1.27324e-07
1.47329e-08
-1.15486e-07
2.0256e-08
-1.09481e-07
1.36903e-08
-1.10694e-07
9.81518e-09
-1.15141e-07
2.83027e-09
-1.22447e-07
-2.88344e-10
-1.31147e-07
-5.56359e-09
-1.4067e-07
-1.13977e-08
-1.47956e-07
-2.09521e-08
-1.53213e-07
-2.42703e-08
-1.58313e-07
-2.26255e-08
-1.62397e-07
-1.70431e-08
-1.62012e-07
-7.40964e-09
-1.55254e-07
6.37812e-09
-1.47311e-07
1.86283e-08
-1.40759e-07
2.34427e-08
-1.3445e-07
2.0582e-08
-1.30586e-07
1.20588e-08
-1.28829e-07
6.22853e-09
-1.27299e-07
3.99968e-09
-1.25819e-07
2.90164e-09
-1.24679e-07
1.67209e-09
-1.24011e-07
3.22284e-10
-1.2339e-07
4.63335e-11
-1.23001e-07
-8.5539e-10
-1.22662e-07
-1.62929e-10
2.55557e-11
-1.34252e-07
-1.62646e-08
-1.27536e-07
-3.02714e-08
-1.03266e-07
-4.14779e-08
-1.25538e-07
2.1095e-08
-1.20233e-07
-6.17768e-09
-1.2123e-07
3.07469e-09
-1.45396e-07
1.34932e-08
-1.64251e-07
1.45825e-08
-1.54091e-07
-3.23985e-09
-1.59209e-07
3.49328e-09
-1.55455e-07
2.45534e-09
-1.56021e-07
1.86959e-09
-1.74655e-07
4.61246e-10
-1.81921e-07
4.09601e-10
-1.59311e-07
1.70987e-08
-7.03918e-08
2.9674e-08
-1.33606e-07
-2.33863e-08
-1.10921e-07
9.47864e-09
-1.18487e-07
8.48414e-09
-6.42852e-08
1.15496e-08
-7.509e-08
-3.99454e-09
-5.91506e-08
-9.25035e-09
-8.22288e-08
-4.265e-08
-7.58293e-08
2.29461e-08
-9.69315e-08
4.50228e-09
-1.00591e-07
-1.23737e-08
-1.50334e-07
-5.32939e-09
-1.18627e-07
-4.25613e-09
-1.33801e-07
-3.9478e-08
-1.0591e-07
1.91214e-08
-1.64269e-07
5.85103e-08
-1.38472e-07
-8.4326e-09
-8.59145e-08
-6.0301e-08
-7.89587e-08
-1.764e-09
-6.30189e-08
-6.55604e-09
-8.31065e-08
3.88009e-08
-1.21773e-07
2.28195e-08
-1.19246e-07
4.17109e-09
-1.22937e-07
8.19941e-09
-1.35064e-07
1.29116e-08
-1.46393e-07
8.9483e-09
-1.58771e-07
-2.1141e-09
-4.41742e-08
-1.26776e-08
-1.75833e-07
-1.07734e-08
-1.75456e-07
-9.18285e-09
-1.87549e-07
2.68943e-09
-1.68754e-07
-7.57119e-09
-1.49201e-07
1.37669e-09