/*--------------------------------*- C++ -*----------------------------------*\
  =========                 |
  \\      /  F ield         | OpenFOAM: The Open Source CFD Toolbox
   \\    /   O peration     | Website:  https://openfoam.org
    \\  /    A nd           | Version:  12
     \\/     M anipulation  |
\*---------------------------------------------------------------------------*/
FoamFile
{
    format      ascii;
    class       surfaceScalarField;
    location    "0.5";
    object      phi.water;
}
// * * * * * * * * * * * * * * * * * * * * * * * * * * * * * * * * * * * * * //

dimensions      [0 3 -1 0 0 0 0];

internalField   nonuniform List<scalar> 
7375
(
1.1283e-07
7.17062e-09
1.02799e-07
1.11239e-08
9.96488e-08
3.15953e-09
2.1801e-07
4.03652e-08
8.66149e-08
-2.76434e-08
1.01051e-07
-1.35687e-08
1.03285e-07
-2.22355e-09
1.05157e-07
-7.67743e-10
1.21535e-07
-1.64914e-08
9.03924e-08
2.98602e-08
9.46206e-08
-4.17953e-09
1.0238e-07
-7.6596e-09
1.03158e-07
-7.5174e-10
9.93613e-08
4.8401e-09
9.3548e-08
5.97158e-09
8.96732e-08
3.82547e-09
7.63643e-08
1.3262e-08
8.82297e-08
-1.27766e-08
7.31995e-08
1.51871e-08
7.03119e-08
2.86172e-09
6.75618e-08
2.755e-09
7.13463e-08
-3.78202e-09
7.07564e-08
6.23599e-10
6.36367e-08
7.086e-09
5.72521e-08
6.32406e-09
7.01284e-08
-1.20828e-08
3.27248e-08
-1.66306e-08
8.33327e-08
2.71859e-09
6.12809e-08
2.20798e-08
5.33592e-08
7.39493e-09
4.60593e-08
7.84464e-09
4.99376e-08
-3.33462e-09
1.86688e-07
2.34615e-08
6.12823e-08
-3.50565e-08
7.77061e-08
-1.64585e-08
6.15941e-08
1.62737e-08
5.78587e-08
3.20541e-09
5.88281e-08
-9.89676e-10
5.52038e-08
4.31e-09
5.22451e-08
2.96454e-09
5.12665e-08
9.97405e-10
5.64525e-08
-5.09858e-09
6.59781e-08
-1.00595e-08
7.5145e-08
-9.16727e-09
7.52845e-08
1.44645e-09
8.9955e-08
-1.45179e-08
2.5208e-08
1.03096e-08
5.64648e-08
2.23322e-08
3.04446e-08
2.63194e-08
1.51684e-07
4.1357e-08
-3.38894e-08
-3.01897e-08
2.5925e-08
-6.70764e-09
4.03572e-09
2.21363e-08
-1.16139e-08
1.54849e-08
-3.97468e-08
2.787e-08
7.32054e-08
4.75064e-08
-6.62497e-08
-2.11788e-08
-4.6255e-08
-1.93775e-08
-4.09067e-08
-4.88551e-09
-3.33753e-08
-7.53178e-09
-2.26409e-08
-1.07341e-08
-1.17809e-08
-1.08602e-08
-2.16528e-09
-9.61523e-09
5.70201e-09
-7.86744e-09
1.44955e-08
-8.793e-09
2.49009e-08
-1.04054e-08
3.70356e-08
-1.21341e-08
4.70997e-08
-1.00643e-08
4.79483e-08
-8.48298e-10
3.31131e-08
1.48349e-08
7.21567e-09
2.58976e-08
-2.50414e-08
3.22572e-08
-5.79486e-08
3.29079e-08
-8.40815e-08
2.61337e-08
6.00238e-09
-3.21904e-08
-7.80128e-10
2.58252e-08
6.82154e-09
9.43212e-09
1.95523e-08
3.47672e-08
1.47714e-08
1.6956e-08
-1.01115e-08
3.58444e-08
-3.22844e-08
1.47817e-09
3.24739e-08
-4.07804e-09
4.6987e-09
1.19415e-07
2.25589e-08
-1.2953e-08
-5.34543e-08
5.26408e-08
-1.71977e-08
5.52732e-08
-9.76062e-09
6.61508e-08
-1.11795e-08
6.9407e-08
1.58379e-09
7.66309e-08
-1.31331e-09
5.52368e-08
2.49648e-08
4.11851e-08
2.75985e-08
8.1692e-09
2.0535e-08
-5.27495e-09
2.84927e-08
-2.27916e-08
2.04326e-08
-2.60486e-08
6.18154e-09
-2.80329e-08
-1.51189e-09
-1.01399e-08
-1.71669e-08
1.67496e-08
-1.9906e-08
-9.00757e-09
-2.1305e-08
3.39399e-08
-1.923e-09
8.85197e-09
8.9733e-09
4.49217e-08
-3.3695e-08
1.81623e-08
4.88393e-08
1.86621e-08
7.15851e-09
-4.35364e-08
1.59221e-08
3.78912e-09
3.46372e-09
2.70905e-08
-1.13337e-10
-3.43417e-10
-7.349e-09
1.23179e-08
-2.89975e-08
-6.8885e-08
4.21303e-08
-4.38531e-08
3.21816e-08
-6.23787e-08
1.79823e-08
-5.21412e-08
-4.65465e-09
-5.01596e-08
9.82879e-10
-4.39277e-08
-4.78626e-09
-2.73436e-08
-2.14066e-08
-1.97624e-08
-1.79167e-08
-2.08046e-08
-8.63262e-09
-1.75549e-08
-1.62226e-09
-4.66629e-08
1.50661e-08
-2.59059e-08
-1.09235e-08
-9.13649e-09
5.56265e-09
-4.68574e-09
2.18687e-08
3.36375e-10
3.59128e-08
-5.09428e-08
2.10895e-08
-6.93177e-08
1.15986e-08
-7.10599e-08
2.43549e-08
-7.77884e-08
2.2769e-08
-8.12685e-08
3.10714e-08
-6.18952e-08
2.76581e-08
-9.25311e-08
9.66888e-09
-1.03647e-07
-8.06835e-09
-9.93155e-08
-9.21668e-09
-9.50368e-08
-1.18107e-08
-9.15892e-08
-1.41817e-08
-8.83324e-08
-1.4117e-08
-8.51999e-08
-1.27476e-08
-8.06588e-08
-1.24085e-08
-7.22965e-08
-1.7155e-08
-6.03831e-08
-2.23186e-08
-4.76162e-08
-2.49007e-08
-3.71127e-08
-2.05677e-08
-3.68967e-08
-1.06413e-09
-5.03052e-08
2.82433e-08
-7.09779e-08
4.65703e-08
-9.34077e-08
5.46873e-08
-1.04237e-07
4.37376e-08
-1.05644e-07
2.75423e-08
2.58305e-09
-9.84646e-08
1.34534e-08
-1.02973e-07
6.49782e-08
-1.04325e-07
2.11032e-08
-1.04159e-07
1.4605e-08
-1.2473e-07
1.03566e-08
-2.98605e-08
3.34882e-08
-1.7642e-07
-3.55895e-08
-1.01921e-07
-1.38823e-08
-6.65843e-08
-1.40351e-08
-9.65838e-08
-2.41342e-08
-9.18993e-08
-2.20577e-08
-8.33981e-08
-1.92124e-08
-9.21112e-08
-2.44139e-09
-9.2626e-08
3.03822e-09
-9.28851e-08
-1.06743e-10
-7.75942e-08
9.67385e-09
-6.36834e-08
1.21227e-08
-7.06954e-08
2.73353e-08
-6.59979e-08
2.42257e-08
-6.3335e-08
1.82073e-08
-6.20501e-08
4.89661e-09
-6.57909e-08
1.5958e-09
-7.08014e-08
-1.23315e-08
-7.52512e-08
-1.56594e-08
-8.73188e-08
-9.23738e-09
-6.42782e-08
-2.52407e-08
-9.9207e-08
4.289e-08
3.21524e-09
2.67648e-08
-9.68411e-08
-1.30723e-08
-1.50613e-07
6.09308e-08
-1.3531e-07
6.12723e-10
-1.38062e-07
6.2152e-09
-1.22545e-07
-1.4223e-08
-1.24287e-07
-5.68157e-09
-3.20626e-08
4.00523e-08
-1.36228e-07
-1.3452e-08
-1.10465e-07
4.70065e-09
-9.22152e-08
-6.33873e-10
-5.37525e-08
-4.31173e-08
-7.5334e-08
2.23365e-08
-8.33262e-08
3.20604e-09
-9.09523e-08
-1.3999e-08
-8.78177e-08
-2.1453e-08
-1.42253e-07
4.53403e-08
-1.47531e-07
2.16687e-09
-1.84465e-07
-2.04684e-09
-1.5686e-07
1.7178e-08
-1.52905e-07
1.6068e-09
-1.18238e-07
-1.29302e-08
-1.33849e-07
5.10042e-08
-1.44547e-07
3.14655e-08
-1.48038e-07
1.64325e-08
-1.35431e-07
1.29847e-08
-1.30093e-07
1.74308e-08
-1.23174e-07
2.41517e-08
-1.20549e-07
2.50338e-08
-1.29355e-07
1.84743e-08
-1.42673e-07
5.25014e-09
-1.49475e-07
-2.41519e-09
-1.50058e-07
-1.12278e-08
-1.49321e-07
-1.49184e-08
-1.48991e-07
-1.44471e-08
-1.481e-07
-1.36389e-08
-1.44801e-07
-1.57065e-08
-1.38969e-07
-2.29876e-08
-1.33231e-07
-2.8056e-08
-1.29343e-07
-2.87883e-08
-1.27947e-07
-2.19639e-08
-1.3039e-07
1.37928e-09
-1.33521e-07
3.13744e-08
-1.33211e-07
4.62603e-08
-1.25497e-07
4.69736e-08
-1.1755e-07
3.57921e-08
-1.10692e-07
2.0685e-08
-1.25705e-09
-8.99787e-08
1.93563e-08
-1.73494e-07
-1.15362e-08
-1.58763e-07
6.30687e-09
-1.48796e-07
4.63825e-09
-1.44098e-07
5.65804e-09
-1.1696e-07
7.46681e-09
-1.37605e-07
-1.45855e-08
-1.23291e-07
-2.97419e-08
-1.1151e-07
-2.59589e-08
-1.14624e-07
-2.1021e-08
-1.08147e-07
-2.85342e-08
-1.06828e-07
-1.94416e-08
-9.83899e-08
-1.08551e-08
-9.53702e-08
-9.7534e-10
-9.9007e-08
3.52996e-09
-1.34972e-07
-6.53429e-09
-8.23919e-08
1.26495e-08
-9.001e-08
3.34922e-08
-7.65245e-08
1.07401e-08
-7.20513e-08
1.37341e-08
-7.5607e-08
8.50221e-09
-8.29231e-08
8.91185e-09
-1.09047e-07
1.39345e-08
-1.16815e-07
-7.89122e-09
-1.45876e-07
1.83356e-08
-6.04321e-08
5.19211e-08
-1.93844e-07
1.41376e-08
-5.81805e-08
5.28867e-08
-6.40245e-08
-6.6347e-09
-1.88195e-07
-3.01161e-08
-1.26058e-07
-7.87534e-09
-1.21123e-07
1.21618e-09
-1.28274e-07
-7.07142e-09
-1.08318e-07
-2.56378e-08
-1.03825e-07
-1.80894e-08
-1.1685e-07
-5.64239e-10
-1.36976e-07
2.48265e-08
-1.4056e-07
2.95035e-09
-1.58322e-08
4.69124e-08
-1.25515e-07
-2.73026e-08
-1.16236e-07
-7.35355e-09
-1.14322e-07
-1.7255e-08
-4.56472e-08
7.29487e-08
-1.45578e-07
-1.34534e-08
-1.44569e-07
-3.24449e-10
-1.57345e-07
9.05224e-09
-1.64725e-07
2.45579e-08
-1.54447e-07
-8.65491e-09
-6.29692e-08
5.88474e-08
-1.53113e-07
-1.59921e-08
-1.30221e-07
8.25926e-09
-1.20349e-07
6.3956e-09
-1.15007e-07
7.64257e-09
-1.12045e-07
1.44687e-08
-1.11075e-07
2.31821e-08
-1.13655e-07
2.76136e-08
-1.21244e-07
2.60633e-08
-1.34712e-07
1.87177e-08
-1.45757e-07
8.63024e-09
-1.52687e-07
-4.29797e-09
-1.56963e-07
-1.06421e-08
-1.61321e-07
-1.00897e-08
-1.64998e-07
-9.96193e-09
-1.64392e-07
-1.63116e-08
-1.60113e-07
-2.72666e-08
-1.56888e-07
-3.12815e-08
-1.56109e-07
-2.95669e-08
-1.59552e-07
-1.85204e-08
-1.60574e-07
2.40091e-09
-1.53941e-07
2.47418e-08
-1.43087e-07
3.54061e-08
-1.29316e-07
3.32037e-08
-1.19905e-07
2.63819e-08
-1.13572e-07
1.43529e-08
-3.4717e-09
-1.36256e-07
1.4618e-08
-1.51381e-07
5.08067e-09
-1.45581e-07
5.06634e-10
-1.39625e-07
-2.80397e-09
-1.29936e-07
-2.67834e-09
-1.22248e-07
-2.21285e-10
-1.26141e-07
-1.20878e-08
-1.30787e-07
-2.50965e-08
-1.36127e-07
-2.0411e-08
-1.25379e-07
-3.17691e-08
-1.26155e-07
-2.77579e-08
-1.25833e-07
-1.97639e-08
-1.23761e-07
-1.1775e-08
-1.18978e-07
-5.75843e-09
-1.15271e-07
-1.39166e-09
-1.28894e-07
7.08873e-09
-8.89619e-08
-2.62457e-08
-8.81554e-08
3.23588e-08
-1.0368e-07
2.56264e-08
-1.02648e-07
1.27028e-08
-1.12775e-07
1.86286e-08
-1.0814e-07
3.17367e-09
-1.56419e-07
8.01118e-09
-1.07996e-07
-1.08019e-09
-1.39454e-07
4.97942e-08
-1.169e-07
2.76445e-08
-1.81449e-07
2.63547e-08
-1.00948e-07
2.67916e-08
-8.8191e-08
-2.04219e-08
-1.12275e-07
-6.0325e-09
-9.84287e-08
-2.17213e-08
-1.01565e-07
4.30847e-09
-1.43463e-07
-1.88222e-08
-8.77307e-08
-2.80069e-08
-1.01428e-07
-4.39245e-09
-1.15302e-07
1.33101e-08
-1.9213e-07
4.75203e-08
-1.56338e-07
2.08078e-08
-9.6153e-08
-1.34092e-08
-1.14795e-07
-8.93931e-09
-1.34403e-07
1.08831e-08
-4.55561e-08
5.65045e-08
-1.64322e-07
-2.14853e-08
-1.17333e-07
-6.22243e-09
-1.07949e-07
-9.90379e-09
-7.64872e-08
-2.37394e-08
-1.10211e-07
5.55592e-08
-1.02114e-08
5.34015e-08
-1.12013e-07
-7.94748e-10
-1.05869e-07
-2.12194e-08
-1.03479e-07
6.9282e-09
-1.03339e-07
6.25525e-09
-1.05634e-07
9.93801e-09
-1.0459e-07
1.34244e-08
-1.04985e-07
2.35766e-08
-1.0815e-07
3.07788e-08
-1.13836e-07
3.1749e-08
-1.23293e-07
2.81746e-08
-1.35415e-07
2.07522e-08
-1.49872e-07
1.01595e-08
-1.61703e-07
1.18839e-09
-1.69153e-07
-2.64008e-09
-1.71233e-07
-7.88143e-09
-1.66665e-07
-2.08799e-08
-1.61287e-07
-3.26435e-08
-1.57337e-07
-3.52315e-08
-1.55262e-07
-3.16415e-08
-1.56671e-07
-1.71117e-08
-1.57297e-07
3.02677e-09
-1.50037e-07
1.74822e-08
-1.37637e-07
2.30064e-08
-1.26165e-07
2.17324e-08
-1.18245e-07
1.8463e-08
-1.14547e-07
1.06558e-08
-2.93048e-09
-1.63662e-07
8.78988e-09
-1.43889e-07
-1.46934e-08
-1.33032e-07
-1.18136e-08
-1.32155e-07
-2.33329e-09
-1.32858e-07
-1.97511e-09
-1.15372e-07
-1.88729e-08
-1.12179e-07
-1.52812e-08
-1.16355e-07
-1.9937e-08
-1.06229e-07
-3.05373e-08
-7.17322e-08
-6.73494e-08
-9.51062e-08
-4.33977e-09
-7.725e-08
-3.8008e-08
-8.76292e-08
-1.39584e-09
-1.25469e-07
3.20224e-08
-1.2028e-07
-6.58052e-09
-1.77352e-07
1.0512e-08
-3.02907e-08
4.15977e-08
-1.22768e-07
-3.57599e-08
-1.26674e-07
-2.62047e-08
-1.34882e-07
7.58512e-08
-1.38471e-07
2.22183e-08
-1.13681e-07
-2.16162e-08
-1.67967e-07
5.98901e-08
-5.71543e-08
5.07135e-08
-1.94248e-07
-2.71258e-08
-1.29647e-07
1.6693e-08
-1.53558e-07
-3.65243e-09
-1.23563e-07
-2.93023e-09
-1.11792e-07
2.14564e-08
-1.09514e-07
-8.31098e-09
-1.22472e-07
-7.51364e-09
-1.08071e-07
-1.00919e-08
-1.35959e-07
6.57564e-09
-5.31847e-08
5.18251e-08
-7.22439e-08
1.52094e-08
-7.00159e-08
1.17964e-08
-1.67363e-07
-1.44543e-08
-1.70888e-07
2.0882e-08
-7.51662e-08
5.34751e-08
-8.5492e-08
2.15342e-09
-7.15333e-08
-3.07565e-09
-1.51076e-07
-2.54764e-08
-1.26446e-07
-4.5287e-08
-1.53439e-07
1.9158e-08
-1.66087e-07
-6.45157e-10
-5.57667e-08
3.09071e-08
-1.39176e-07
-1.83848e-08
-9.01373e-08
2.41799e-09
-9.40951e-08
2.24342e-09
-1.0327e-07
-1.09909e-08
-9.39531e-08
-1.35647e-09
-9.3303e-08
5.60504e-09
-9.52663e-08
1.19012e-08
-9.83942e-08
1.65523e-08
-1.00865e-07
2.60476e-08
-1.02872e-07
3.27854e-08
-1.06123e-07
3.50004e-08
-1.10398e-07
3.24489e-08
-1.16825e-07
2.71791e-08
-1.27124e-07
2.04591e-08
-1.39472e-07
1.35364e-08
-1.48752e-07
6.63969e-09
-1.50639e-07
-5.99441e-09
-1.45528e-07
-2.59911e-08
-1.42729e-07
-3.54425e-08
-1.41834e-07
-3.61257e-08
-1.43669e-07
-2.98069e-08
-1.46698e-07
-1.40815e-08
-1.45447e-07
1.7751e-09
-1.39147e-07
1.11832e-08
-1.3085e-07
1.47093e-08
-1.23757e-07
1.464e-08
-1.18314e-07
1.30209e-08
-1.15867e-07
8.20967e-09
-2.01908e-09
-1.24432e-07
-3.40109e-09
-1.20465e-07
-1.88106e-08
-1.20668e-07
-1.16118e-08
-1.20277e-07
-2.72461e-09
-1.62584e-07
-1.16782e-08
-1.14064e-07
-1.42867e-08
-1.13357e-07
-1.83084e-08
-1.03403e-07
-2.98909e-08
-1.49108e-07
-3.7738e-08
-1.85617e-08
1.68898e-08
-1.25682e-07
-5.78105e-08
-3.43724e-08
3.19928e-08
-6.29313e-08
2.75136e-08
-2.00307e-07
-4.51981e-08
-1.31312e-07
-2.21526e-08
-1.49316e-07
2.85158e-08
-1.27103e-07
1.8275e-08
-1.78639e-07
1.35663e-08
-7.84499e-08
3.83231e-08
-1.91343e-07
-2.50513e-08
-1.86824e-07
1.76993e-08
-6.23979e-08
6.91901e-08
-1.74859e-07
1.30293e-08
-1.24036e-07
-2.38657e-09
-1.48622e-07
-2.53949e-09
-1.36041e-07
4.11203e-09
-1.44471e-07
4.77758e-09
-1.4226e-07
-5.14162e-09
-1.2226e-07
1.45648e-09
-1.22963e-07
-7.60741e-09
-1.2336e-07
-7.11695e-09
-1.26683e-07
-6.8719e-09
-1.29274e-07
9.16635e-09
-1.04184e-07
2.62067e-08
-9.50472e-08
6.07279e-09
-1.07864e-07
2.43648e-08
-1.42212e-07
1.97464e-08
-1.43694e-07
2.23633e-08
-1.55432e-07
1.10193e-08
-1.14775e-07
1.51446e-08
-1.21231e-07
3.38108e-09
-1.60935e-07
1.2586e-08
-6.55515e-08
2.19351e-08
-2.12046e-07
-4.59162e-08
-1.67607e-07
6.3372e-09
-1.39583e-07
8.36743e-10
-1.49433e-07
-7.29821e-09
-1.40142e-07
-6.91899e-09
-1.43154e-07
5.3089e-09
-1.44801e-07
-7.86664e-09
-1.21779e-07
-2.29313e-08
-1.20649e-07
4.47574e-09
-1.19396e-07
1.06478e-08
-1.1843e-07
1.55858e-08
-1.13608e-07
2.12262e-08
-1.09868e-07
2.90452e-08
-1.08055e-07
3.31869e-08
-1.07616e-07
3.20105e-08
-1.08215e-07
2.77773e-08
-1.11371e-07
2.36156e-08
-1.16279e-07
1.84446e-08
-1.19738e-07
1.00985e-08
-1.2058e-07
-5.15247e-09
-1.2112e-07
-2.54513e-08
-1.23901e-07
-3.26608e-08
-1.27884e-07
-3.21426e-08
-1.33925e-07
-2.37661e-08
-1.38512e-07
-9.49454e-09
-1.37176e-07
4.39927e-10
-1.3243e-07
6.4373e-09
-1.27436e-07
9.71504e-09
-1.22955e-07
1.01601e-08
-1.19335e-07
9.40191e-09
-1.17367e-07
6.24304e-09
-1.42904e-09
-1.14386e-07
-7.02801e-09
-9.87694e-08
-3.47828e-08
-1.0047e-07
-9.91174e-09
-1.22952e-07
1.97569e-08
-1.39057e-07
4.42665e-09
-1.3061e-07
-2.28799e-08
-1.40606e-07
-8.39822e-09
-1.4246e-07
-2.77318e-08
-1.48237e-07
-3.22904e-08
-1.4029e-07
8.94298e-09
-7.44715e-08
3.6728e-08
-7.01662e-08
2.7361e-08
-1.78395e-07
-2.52052e-08
-2.04019e-07
-2.16555e-08
-9.41551e-08
3.05899e-08
-2.09325e-07
-1.86266e-08
-1.97443e-07
6.39314e-09
-1.87285e-07
5.28428e-09
-1.60194e-07
1.08404e-08
-1.9784e-07
1.25946e-08
-1.81079e-07
9.29122e-10
-1.29803e-07
1.79143e-08
-1.66259e-07
-2.33479e-09
-1.5689e-07
4.13519e-08
-1.60183e-07
-8.38914e-10
-1.51538e-07
-4.53311e-09
-1.55842e-07
9.08142e-09
-1.60031e-07
-9.52602e-10
-1.45537e-07
-1.30374e-08
-1.50174e-07
-2.97054e-09
-1.23949e-07
-3.3685e-08
-1.45022e-07
1.42012e-08
-1.14923e-07
-2.09328e-08
-1.28759e-07
3.96381e-08
-1.02686e-07
-1.91482e-08
-9.87698e-08
2.04489e-08
-1.28337e-07
4.78183e-08
-1.27192e-07
2.12185e-08
-1.31903e-07
1.57296e-08
-1.23745e-07
6.98681e-09
-1.42112e-07
2.1529e-08
-1.31682e-07
2.15564e-09
-1.1548e-07
5.50925e-09
-1.61771e-07
3.74498e-10
-1.57842e-07
2.47288e-09
-1.50494e-07
-6.51948e-09
-1.68116e-07
8.52118e-09
-1.6679e-07
-9.96346e-09
-1.74723e-07
-3.92417e-08
-1.57058e-07
-2.23749e-08
-1.61916e-07
3.60734e-08
-1.64099e-07
6.65837e-09
-1.59043e-07
5.59129e-09
-1.53404e-07
9.94674e-09
-1.45392e-07
1.32148e-08
-1.34742e-07
1.83951e-08
-1.23986e-07
2.2431e-08
-1.15172e-07
2.31963e-08
-1.09575e-07
2.21798e-08
-1.07623e-07
2.16637e-08
-1.07293e-07
1.81143e-08
-1.07686e-07
1.04924e-08
-1.09361e-07
-3.47837e-09
-1.13659e-07
-2.11532e-08
-1.18835e-07
-2.74839e-08
-1.24104e-07
-2.6874e-08
-1.29379e-07
-1.84911e-08
-1.32175e-07
-6.69739e-09
-1.31077e-07
-6.58e-10
-1.2825e-07
3.61011e-09
-1.25293e-07
6.75874e-09
-1.22395e-07
7.26268e-09
-1.19998e-07
7.00549e-09
-1.18516e-07
4.76232e-09
-9.919e-10
-1.57841e-07
1.56613e-08
-8.06575e-08
5.06393e-08
-8.59824e-08
-3.80338e-09
-1.97501e-07
-2.96723e-08
-1.64512e-07
-2.85621e-08
-1.45724e-07
-4.35993e-08
-2.0842e-07
9.58017e-11
-1.67038e-07
-1.51984e-08
-1.64917e-07
-3.47694e-08
-1.7004e-07
1.57481e-08
-1.4789e-07
1.45776e-08
-1.59752e-07
-1.44258e-08
-1.87176e-07
2.21905e-09
-1.86798e-07
3.16156e-08
-1.66295e-07
8.07787e-09
-2.02941e-07
1.80188e-08
-2.00693e-07
6.15033e-09
-1.92218e-07
-3.19025e-09
-1.82859e-07
1.48127e-09
-2.07466e-07
-1.43307e-08
-1.75495e-07
2.18448e-08
-1.63297e-07
3.92554e-09
-1.47924e-07
-1.77079e-08
-1.81494e-07
2.33083e-08
-1.58153e-07
2.89273e-08
-1.69741e-07
5.44134e-09
-1.83751e-07
2.30921e-08
-1.81779e-07
-2.89587e-09
-1.82933e-07
-1.20051e-08
-2.04559e-07
1.6568e-08
-9.44565e-08
1.88189e-08
-2.17987e-07
-7.66832e-08
-8.04573e-08
5.69545e-08
-1.98741e-07
-3.4075e-09
-8.91377e-08
3.18067e-08
-8.33714e-08
1.6483e-08
-1.73459e-07
-2.14159e-08
-1.57343e-07
3.33259e-09
-1.54956e-07
1.33426e-08
-1.18496e-07
-2.82645e-08
-1.31064e-07
3.37564e-08
-1.34852e-07
4.60711e-09
-1.06268e-07
-2.30756e-08
-1.31745e-07
2.55911e-08
-1.35386e-07
6.11302e-09
-1.57266e-07
1.69656e-08
-1.22246e-07
-2.62346e-08
-1.16461e-07
-1.68935e-08
-1.31141e-07
-2.5762e-08
-5.80788e-08
6.77673e-08
-1.52337e-07
-2.65013e-08
-1.28946e-07
-1.67326e-08
-1.34747e-07
1.13923e-08
-1.39666e-07
1.48653e-08
-1.40666e-07
1.42156e-08
-1.36166e-07
1.38949e-08
-1.2647e-07
1.27352e-08
-1.15275e-07
1.20013e-08
-1.05608e-07
1.25119e-08
-1.00532e-07
1.6588e-08
-9.88927e-08
1.64751e-08
-1.01261e-07
1.28603e-08
-1.07978e-07
3.23924e-09
-1.15304e-07
-1.38271e-08
-1.19421e-07
-2.33671e-08
-1.22647e-07
-2.36477e-08
-1.26175e-07
-1.49633e-08
-1.28489e-07
-4.38337e-09
-1.28635e-07
-5.11612e-10
-1.27003e-07
1.97885e-09
-1.24944e-07
4.6996e-09
-1.22721e-07
5.04016e-09
-1.20833e-07
5.11876e-09
-1.19455e-07
3.38508e-09
-7.27947e-10
-1.12279e-07
4.68451e-11
-1.07938e-07
4.42292e-08
-1.10616e-07
-1.13798e-09
-1.71756e-07
3.25958e-08
-1.93675e-07
-8.61854e-09
-9.76925e-08
2.30237e-08
-2.36397e-07
-2.3563e-08
-2.38556e-07
-1.56602e-08
-9.48335e-08
-1.32044e-08
-2.03499e-07
-3.59332e-08
-2.00928e-07
1.20073e-08
-2.03357e-07
-1.19977e-08
-2.00526e-07
-6.11906e-10
-1.74005e-07
5.14697e-09
-1.78701e-07
1.27744e-08
-1.65727e-07
4.81176e-09
-1.71797e-07
1.22196e-08
-2.01223e-07
2.65065e-08
-1.86073e-07
-1.36682e-08
-2.07751e-07
9.46663e-09
-1.90692e-07
4.95566e-09
-1.92933e-07
4.2214e-09
-8.23475e-08
3.34939e-08
-1.92865e-07
-2.54963e-08
-1.62139e-07
-3.47061e-09
-1.59463e-07
2.76528e-09
-1.91032e-07
2.93078e-09
-1.67245e-07
2.47355e-08
-1.94763e-07
1.37888e-08
-1.79285e-07
3.0457e-09
-1.71775e-07
9.36487e-09
-1.16298e-07
3.07631e-08
-1.84038e-07
-3.5066e-08
-1.73434e-07
-1.4047e-08
-1.23721e-07
-1.71433e-08
-1.30256e-07
2.3018e-08
-1.50506e-07
-2.71269e-09
-1.50927e-07
3.71532e-09
-1.9135e-07
1.1639e-10
-4.76334e-08
4.31014e-08
-1.44539e-07
-2.83186e-08
-1.42122e-07
7.15409e-10
-3.06507e-08
2.64429e-08
-1.29507e-07
-3.48745e-08
-1.13528e-07
-1.11876e-08
-1.43975e-07
-4.71925e-09
-1.12158e-07
-5.20965e-09
-1.29212e-07
-2.27814e-09
-2.925e-08
3.68819e-08
-1.37945e-07
-3.85271e-08
-1.23627e-07
-4.02393e-08
-1.27346e-07
4.0799e-08
-1.33035e-07
1.72535e-08
-1.32308e-07
1.41389e-08
-1.29458e-07
1.13653e-08
-1.22853e-07
7.2896e-09
-1.13543e-07
3.42534e-09
-1.02143e-07
6.01651e-10
-9.01134e-08
4.81975e-10
-8.0759e-08
7.2336e-09
-7.62778e-08
1.19938e-08
-7.6404e-08
1.29865e-08
-8.15317e-08
8.36694e-09
-9.23238e-08
-3.03488e-09
-1.01972e-07
-1.37183e-08
-1.10305e-07
-1.53146e-08
-1.17436e-07
-7.83268e-09
-1.21868e-07
4.93689e-11
-1.24289e-07
1.90974e-09
-1.247e-07
2.38978e-09
-1.23754e-07
3.75417e-09
-1.22548e-07
3.83461e-09
-1.20981e-07
3.55264e-09
-1.20084e-07
2.48926e-09
-5.01447e-10
-3.187e-08
3.54052e-08
-1.48717e-07
2.51936e-10
-3.39836e-08
4.5213e-08
-1.8477e-07
-3.08677e-08
-1.54681e-07
1.49418e-08
-1.34907e-07
3.01436e-09
-1.84044e-07
2.3696e-08
-2.3178e-07
2.98484e-08
-9.9768e-08
1.88863e-08
-1.31838e-07
-2.83473e-09
-2.32557e-07
-4.68761e-08
-1.93923e-07
-5.11535e-08
-2.03714e-07
7.10083e-09
-2.00245e-07
1.67771e-09
-1.94463e-07
-4.30691e-08
-1.76133e-07
3.95886e-08
-1.86213e-07
1.86026e-08
-2.21196e-07
7.21313e-09
-1.99011e-07
2.00523e-08
-1.88925e-07
1.30853e-09
-1.99385e-07
1.54651e-08
-1.65821e-07
-3.13766e-08
-1.41235e-07
8.90774e-09
-1.49064e-07
-1.79276e-08
-1.44454e-07
-8.08032e-09
-1.34124e-07
-6.13382e-09
-1.35592e-07
4.39855e-09
-1.26133e-07
1.41458e-08
-1.35329e-07
2.42251e-08
-1.24861e-07
-7.42222e-09
-1.42056e-07
2.38365e-08
-1.69408e-07
3.59608e-09
-1.48758e-07
-3.38735e-10
-1.69321e-07
4.78864e-09
-6.10645e-08
3.72062e-08
-1.72078e-07
-2.60579e-08
-1.52121e-07
-2.11175e-08
-1.31665e-07
-1.67409e-08
-1.32842e-07
-4.97868e-11
-9.1517e-08
1.77626e-09
-1.11141e-07
-8.98342e-09
-1.08665e-07
-6.4522e-10
-8.14466e-08
-7.83679e-10
-1.02877e-07
-1.46308e-08
-9.89657e-08
-1.40895e-08
-9.12634e-08
-1.22973e-08
-8.85275e-08
-8.02666e-09
-6.33604e-08
-2.77253e-08
-6.79133e-08
4.04122e-08
-1.23088e-07
1.53923e-08
-4.42769e-08
4.40115e-08
-1.47169e-07
-1.47716e-08
-1.41559e-07
1.16438e-08
-1.34993e-07
8.98734e-09
-1.30253e-07
6.62552e-09
-1.21501e-07
-1.46235e-09
-1.10403e-07
-7.67278e-09
-9.87844e-08
-1.10168e-08
-8.82785e-08
-1.0024e-08
-7.6533e-08
-4.51196e-09
-6.74492e-08
2.91002e-09
-6.32168e-08
8.75407e-09
-6.4426e-08
9.57623e-09
-7.397e-08
6.50921e-09
-9.01825e-08
2.49427e-09
-1.07118e-07
1.6211e-09
-1.18181e-07
3.23044e-09
-1.2275e-07
4.61848e-09
-1.24772e-07
3.93156e-09
-1.25384e-07
3.00278e-09
-1.24173e-07
2.54307e-09
-1.22875e-07
2.53728e-09
-1.21373e-07
2.05186e-09
-1.20605e-07
1.72189e-09
-3.67726e-10
-1.19089e-07
3.19236e-08
-1.33105e-07
1.30549e-08
-1.02854e-07
1.44999e-08
-1.3139e-07
-2.33199e-09
-1.26859e-07
1.03053e-08
-1.23658e-07
-1.85122e-10
-1.31934e-07
-2.14582e-08
-1.18654e-07
1.60996e-08
-8.18692e-08
3.5199e-08
-1.05477e-07
2.05916e-08
-1.49398e-07
-4.43386e-09
-5.88846e-08
2.09392e-08
-1.87564e-07
-2.45667e-08
-1.869e-07
-9.00552e-10
-9.34861e-08
2.58564e-08
-1.55618e-07
-5.78687e-08
-1.57939e-07
2.25341e-08
-1.68775e-07
1.7977e-08
-1.56036e-07
5.59143e-09
-1.60503e-07
5.77561e-09
-2.00806e-07
2.27632e-09
-1.64852e-07
-1.36815e-08
-1.46777e-07
-9.16766e-09
-1.38784e-07
-2.61874e-08
-1.2665e-07
-1.89227e-08
-1.15525e-07
-1.72588e-08
-1.23617e-07
1.13569e-08
-1.21467e-07
1.19962e-08
-1.08874e-07
1.16316e-08
-1.12876e-07
-3.49596e-09
-1.26858e-07
-1.58302e-08
-1.43074e-07
1.97749e-08
-1.11326e-07
2.15626e-08
-1.27529e-07
2.09922e-08
-1.15474e-07
2.47712e-08
-1.38384e-07
-3.14779e-09
-1.31597e-07
-2.79046e-08
-1.29895e-07
-1.86138e-08
-1.24326e-07
-5.61825e-09
-1.18299e-07
-4.25105e-09
-1.20812e-07
-5.23762e-09
-1.13845e-07
-8.67438e-09
-1.09153e-07
-6.58915e-09
-1.18354e-07
-4.31622e-09
-1.18021e-07
-1.32185e-08
-9.60937e-08
-3.46998e-08
-1.39323e-07
3.28014e-08
-5.29557e-08
4.87294e-08
-1.50114e-07
-2.28362e-08
-1.49371e-07
1.46485e-08
-1.31784e-07
2.59755e-08
-1.55354e-07
1.01297e-08
-1.51088e-07
8.81407e-09
-1.43163e-07
1.06276e-09
-1.28671e-07
-7.86665e-09
-1.15693e-07
-1.44405e-08
-1.02402e-07
-2.09632e-08
-9.08739e-08
-2.25454e-08
-8.24424e-08
-1.84555e-08
-7.50968e-08
-1.18575e-08
-7.08909e-08
-1.29592e-09
-7.08231e-08
8.68624e-09
-7.55831e-08
1.43363e-08
-8.63254e-08
1.72516e-08
-1.01597e-07
1.77656e-08
-1.13652e-07
1.36765e-08
-1.19989e-07
9.56759e-09
-1.22479e-07
7.10895e-09
-1.23605e-07
5.05773e-09
-1.23877e-07
3.27473e-09
-1.23242e-07
1.90819e-09
-1.22526e-07
1.82222e-09
-1.21486e-07
1.01265e-09
-1.20906e-07
1.14286e-09
-1.97849e-10
-1.28775e-07
1.78402e-08
-1.17058e-07
1.33766e-09
-1.05434e-07
2.87533e-09
-1.0397e-07
-2.73592e-09
-8.57835e-08
-7.01479e-09
-7.43395e-08
-1.17448e-08
-7.2117e-08
-2.37032e-08
-4.464e-08
-1.1655e-08
-1.89037e-08
9.20279e-09
4.96963e-09
-3.48768e-09
5.67939e-09
-5.14545e-09
1.0109e-08
1.63538e-08
2.83026e-08
-4.30491e-08
4.88945e-09
2.22386e-08
-4.21927e-09
3.51079e-08
6.41329e-08
3.50407e-08
-5.11335e-08
-2.31468e-08
-7.7789e-08
4.43633e-08
-7.02367e-08
-1.9812e-09
-1.27837e-07
6.33759e-08
-1.46201e-07
2.06404e-08
-1.85933e-07
2.63193e-08
-1.59704e-07
-3.70259e-08
-1.68892e-07
-1.69998e-08
-1.46406e-07
-3.96861e-08
-1.12212e-07
-5.21603e-08
-1.28182e-07
2.70503e-08
-1.25487e-07
9.30141e-09
-1.21451e-07
7.67434e-09
-1.08703e-07
-1.62443e-08
-1.19434e-07
-5.09922e-09
-1.14043e-07
1.43843e-08
-1.25885e-07
3.34039e-08
-1.27732e-07
2.28397e-08
-1.47526e-07
4.45646e-08
-1.34742e-07
-1.59311e-08
-1.00274e-07
-6.23732e-08
-1.01526e-07
-1.73619e-08
-1.17326e-07
1.01819e-08
-1.16726e-07
-4.85138e-09
-1.13543e-07
-7.26132e-09
-9.47153e-08
-2.66337e-08
-6.15749e-08
-4.06196e-08
-9.0287e-08
2.35277e-08
-1.15093e-07
1.03084e-08
-2.73081e-08
3.93578e-08
-1.4855e-07
-8.14071e-09
-1.67593e-07
1.30678e-08
-1.66482e-07
3.14117e-08
-1.74152e-07
2.23188e-08
-1.6413e-07
1.74495e-08
-1.6234e-07
9.87955e-09
-1.53783e-07
2.57218e-10
-1.43207e-07
-9.5136e-09
-1.31296e-07
-1.97771e-08
-1.19007e-07
-2.67298e-08
-1.07893e-07
-3.20767e-08
-9.91864e-08
-3.12525e-08
-9.14967e-08
-2.61452e-08
-8.61813e-08
-1.71729e-08
-8.52117e-08
-2.26547e-09
-9.1329e-08
1.48036e-08
-1.01931e-07
2.4938e-08
-1.13101e-07
2.84216e-08
-1.22034e-07
2.66989e-08
-1.25226e-07
1.68691e-08
-1.2503e-07
9.3716e-09
-1.24344e-07
6.42337e-09
-1.24113e-07
4.82689e-09
-1.23941e-07
3.10212e-09
-1.23441e-07
1.40879e-09
-1.22748e-07
1.13015e-09
-1.21817e-07
8.21491e-11
-1.21219e-07
5.45971e-10
-1.23939e-10
-1.41591e-07
-3.27172e-10
-1.37734e-07
-2.51999e-09
-1.343e-07
-5.59094e-10
-1.36598e-07
-4.38425e-10
-1.35527e-07
-8.07467e-09
-1.33236e-07
-1.43019e-08
-1.3915e-07
-1.80313e-08
-1.30929e-07
-1.99949e-08
-1.57707e-07
-1.59655e-08
-1.16093e-07
6.8672e-09
-1.3174e-07
9.25232e-09
-1.73149e-07
5.45769e-09
-2.63042e-08
2.49704e-08
-1.02905e-07
-6.12971e-08
-1.24362e-07
5.45843e-08
-8.83929e-08
3.53349e-10
-3.56481e-08
8.6321e-08
-1.57027e-07
4.8345e-09
-3.96632e-08
4.16426e-08
-1.95678e-07
5.19922e-09
-1.2648e-07
3.76238e-09
-2.17364e-07
8.79907e-09
-1.4529e-07
4.16479e-10
-1.49945e-07
-1.21722e-08
-1.56914e-07
-3.43174e-08
-2.3542e-08
-2.29201e-08
-1.41841e-07
-1.3735e-08
-1.36687e-07
1.30611e-09
-1.61885e-07
-2.13302e-08
-9.66898e-08
-2.64079e-08
-1.16093e-07
1.43038e-08
-1.02991e-07
1.28228e-09
-1.30033e-07
5.98356e-08
-1.34128e-07
2.69347e-08
-1.45211e-07
1.99867e-09
-1.63723e-07
2.58135e-09
-5.00764e-08
3.85761e-08
-6.42224e-08
-3.21595e-09
-1.79642e-07
-3.5346e-08
-1.54938e-07
-2.95546e-08
-1.47859e-07
-1.4341e-08
-1.6552e-07
-9.33933e-09
-3.87026e-08
-6.5765e-09
-1.16221e-07
-5.71023e-08
-4.78443e-08
-5.93581e-08
-3.45417e-08
2.54314e-08
-6.57795e-08
2.27447e-08
-8.0174e-08
2.73289e-08
-8.58951e-08
3.67578e-08
-1.01115e-07
3.81807e-08
-1.05632e-07
2.28033e-08
-1.06481e-07
1.07279e-08
-1.06349e-07
1.25264e-10
-1.0998e-07
-5.88284e-09
-1.17105e-07
-1.2652e-08
-1.24272e-07
-1.95626e-08
-1.29293e-07
-2.70554e-08
-1.32052e-07
-2.8494e-08
-1.31379e-07
-2.68178e-08
-1.28299e-07
-2.02528e-08
-1.24434e-07
-6.13097e-09
-1.23523e-07
1.38929e-08
-1.25515e-07
2.69301e-08
-1.27223e-07
3.01296e-08
-1.27353e-07
2.68288e-08
-1.26242e-07
1.57578e-08
-1.24821e-07
7.95158e-09
-1.23919e-07
5.5214e-09
-1.23458e-07
4.3656e-09
-1.23135e-07
2.77954e-09
-1.22692e-07
9.66145e-10
-1.22212e-07
6.50926e-10
-1.21673e-07
-4.55884e-10
-1.21305e-07
1.79146e-10
-2.20513e-11
-1.37982e-07
-1.6064e-08
-1.29785e-07
-1.2125e-08
-1.22532e-07
-7.81257e-09
-1.13708e-07
-8.10259e-09
-1.17662e-07
-5.30863e-09
-1.29509e-07
-3.63077e-09
-1.32664e-07
-1.36945e-08
-1.4012e-07
-1.26686e-08
-1.51897e-07
-5.73829e-09
-1.44319e-07
-6.39493e-10
-1.53667e-07
1.99777e-08
-1.67243e-07
1.90335e-08
-1.59967e-07
1.76942e-08
-6.88152e-08
7.8733e-09
-2.1572e-07
-1.3664e-08
-5.81489e-08
5.79662e-08
-1.44817e-07
-4.11875e-08
-1.42561e-07
2.62823e-09
-8.72586e-08
3.95644e-08
-1.56037e-07
2.16986e-08
-1.0268e-07
3.51273e-09
-1.11793e-07
1.67747e-08
-9.56339e-08
-1.57423e-08
-9.84881e-08
-9.22396e-09
-9.10205e-08
-4.31537e-08
1.93688e-08
2.95328e-08
-1.41418e-07
-1.42328e-08
-1.36079e-07
-4.03291e-09
-1.60381e-07
1.56893e-09
-5.61673e-08
3.19845e-08
-1.60581e-07
-4.20865e-08
-2.77627e-08
2.96947e-08
-1.47467e-07
2.0016e-08
-1.26817e-07
4.7801e-09
-1.12743e-07
-1.20755e-08
-1.12307e-07
2.14522e-09
-7.90212e-08
5.29073e-09
-9.13632e-08
9.12603e-09
-1.22638e-07
-4.07101e-09
-1.35344e-07
-1.68492e-08
-1.39996e-07
-1.11169e-08
-1.58448e-07
7.47948e-09
-1.46463e-07
-1.71042e-08
-1.70601e-07
-3.37939e-08
-5.23308e-08
-1.63416e-08
-1.76526e-07
-1.21777e-08
-1.588e-07
6.81963e-09
-1.46821e-07
1.68478e-08
-1.27448e-07
1.84849e-08
-1.14727e-07
2.50775e-08
-1.09315e-07
1.73918e-08
-1.11098e-07
1.25104e-08
-1.15837e-07
4.86408e-09
-1.23084e-07
1.36429e-09
-1.31519e-07
-4.21646e-09
-1.40699e-07
-1.03827e-08
-1.47664e-07
-2.00906e-08
-1.52692e-07
-2.34663e-08
-1.57616e-07
-2.1893e-08
-1.61508e-07
-1.63611e-08
-1.60896e-07
-6.74288e-09
-1.54011e-07
7.00773e-09
-1.46097e-07
1.90162e-08
-1.39559e-07
2.35914e-08
-1.33257e-07
2.05271e-08
-1.29427e-07
1.19283e-08
-1.27655e-07
6.17936e-09
-1.26107e-07
3.97404e-09
-1.2462e-07
2.8783e-09
-1.23479e-07
1.63906e-09
-1.22808e-07
2.95249e-10
-1.22183e-07
2.65326e-11
-1.21789e-07
-8.48534e-10
-1.21448e-07
-1.61396e-10
2.54098e-11
-1.20805e-07
-2.21e-08
-1.21088e-07
-1.18425e-08
-1.31766e-07
2.89471e-09
-1.15319e-07
-2.45504e-08
-1.18349e-07
-1.11442e-09
-1.20355e-07
-2.80364e-09
-1.42853e-07
6.09078e-09
-1.59441e-07
5.39211e-09
-1.53831e-07
-9.72199e-09
-1.29286e-07
-2.51776e-08
-1.49534e-07
3.98194e-08
-1.51903e-07
2.14022e-08
-1.45392e-07
1.11829e-08
-1.39956e-07
2.46283e-09
-1.54462e-07
-7.33877e-10
-1.39118e-07
-1.00427e-08
-1.34338e-07
8.54518e-09
-1.34126e-07
1.0457e-09
-9.97879e-08
6.24379e-09
-8.31107e-08
4.97109e-09
-7.62428e-08
-4.16721e-09
-7.1911e-08
1.24429e-08
-1.02945e-07
1.63419e-08
-1.07462e-07
-5.73473e-09
-2.1915e-08
3.31397e-08
-1.01259e-08
1.76659e-08
-1.54995e-07
-3.03112e-08
-1.41725e-07
-1.87487e-08
-1.79879e-07
4.0137e-08
-1.65615e-07
1.7539e-08
-7.848e-08
3.33851e-08
-4.33695e-08
-4.17268e-09
-1.50145e-07
-3.23286e-08
-1.32089e-07
-1.48078e-08
-1.09929e-07
-3.42349e-08
-6.57875e-08
-4.19964e-08
-9.86682e-08
3.77859e-08
-1.02401e-07
1.2859e-08
-1.12861e-07
6.38879e-09
-1.2708e-07
-2.62973e-09
-1.08847e-07
-2.96526e-08
-1.32231e-07
2.91405e-08
-2.03274e-07
-8.87047e-11
-1.5333e-07
-2.98842e-08
-5.65907e-08
4.96935e-08
-1.89892e-07
-3.91216e-08
-1.6525e-07
-1.78226e-08
-1.48783e-07
1.89834e-09
-1.36095e-07
7.35779e-09