/*--------------------------------*- C++ -*----------------------------------*\
  =========                 |
  \\      /  F ield         | OpenFOAM: The Open Source CFD Toolbox
   \\    /   O peration     | Website:  https://openfoam.org
    \\  /    A nd           | Version:  12
     \\/     M anipulation  |
\*---------------------------------------------------------------------------*/
FoamFile
{
    format      ascii;
    class       volVectorField;
    location    "0.5";
    object      U.water_0;
}
// * * * * * * * * * * * * * * * * * * * * * * * * * * * * * * * * * * * * * //

dimensions      [0 1 -1 0 0 0 0];

internalField   nonuniform List<vector> 
3750
(
(-0.00209492 0.0118153 0)
(0.00109862 0.0116608 0)
(0.00170626 0.0104196 0)
(0.000586636 0.00943663 0)
(0.000574029 0.00899327 0)
(-0.000189163 0.00958956 0)
(-0.00035652 0.00985697 0)
(0.000196122 0.00924537 0)
(-0.000136795 0.00898312 0)
(-0.00100992 0.0107927 0)
(0.00215024 0.00998694 0)
(0.00105371 0.00909182 0)
(0.000898898 0.00914961 0)
(0.000589093 0.00892081 0)
(0.00101978 0.00918836 0)
(-0.00105302 0.00851456 0)
(-0.000586892 0.00727696 0)
(-0.00131025 0.00582369 0)
(-0.000498118 0.00585932 0)
(-0.00168653 0.00788762 0)
(-0.000212059 0.00709858 0)
(-0.000363726 0.00658301 0)
(0.00128292 0.00678007 0)
(0.000948434 0.00717325 0)
(-0.00028416 0.00819466 0)
(0.00248778 0.00642149 0)
(0.0026798 0.00892603 0)
(-0.000539664 0.00842435 0)
(-6.56001e-05 0.00296749 0)
(-0.000920401 0.00478067 0)
(-0.0025206 0.00564927 0)
(0.000279049 0.00702403 0)
(-0.000437152 0.00708455 0)
(-0.000161176 0.00775001 0)
(-0.00218223 0.00800733 0)
(-0.0029381 0.00648002 0)
(9.42896e-05 0.00868622 0)
(-0.000258674 0.00664027 0)
(0.00186536 0.00445279 0)
(0.000612022 0.0039525 0)
(0.000525997 0.00365831 0)
(0.000648644 0.00328533 0)
(0.000344911 0.0040177 0)
(-0.000486083 0.00465319 0)
(-0.000310297 0.00462392 0)
(0.000901982 0.00294484 0)
(0.00267003 0.00877846 0)
(-0.000222906 0.00712467 0)
(-0.000353719 0.00149674 0)
(0.000671414 0.000243173 0)
(0.00133656 0.00544921 0)
(-0.00265974 0.00593052 0)
(-0.000699267 7.42905e-05 0)
(-0.000391744 -0.00087442 0)
(0.000727508 -3.81534e-05 0)
(-0.000596066 -0.00209135 0)
(0.00121105 -0.00320393 0)
(-0.000643304 -0.00317795 0)
(0.000225304 -0.00533258 0)
(7.15906e-05 -0.00425933 0)
(-0.000368419 -0.00284639 0)
(-0.000496221 -0.00184892 0)
(-0.000589059 -0.00054882 0)
(-0.000545991 5.13442e-05 0)
(-0.000478146 0.00096018 0)
(-0.000350842 0.00181157 0)
(-0.000375377 0.00294681 0)
(-0.000378824 0.00414222 0)
(5.62551e-05 0.00491203 0)
(0.000643869 0.00440724 0)
(0.000964565 0.00211881 0)
(0.00104051 -0.000646876 0)
(0.00162111 -0.00414341 0)
(0.00151746 -0.00875739 0)
(0.000764505 -0.00903073 0)
(0.000579045 0.00200356 0)
(0.0022639 0.00297753 0)
(0.0010103 -0.0024529 0)
(0.00017136 -0.00237656 0)
(0.00055752 -3.32083e-05 0)
(-0.000346275 1.28073e-05 0)
(-0.00210643 0.00208372 0)
(0.00215341 0.00135169 0)
(0.00134567 -0.000708835 0)
(-0.000555038 0.00428081 0)
(-0.000830945 0.00546835 0)
(-0.00154599 0.00229567 0)
(-0.0014558 0.00434345 0)
(-0.000577731 0.00691763 0)
(-0.000615834 0.00704465 0)
(0.000608805 0.00611681 0)
(0.00111227 0.00531866 0)
(0.0010825 0.00112891 0)
(0.00328702 -0.000888696 0)
(0.00237782 -0.000382716 0)
(0.000719106 -0.00205678 0)
(6.77811e-05 -0.0034454 0)
(-0.000659899 -0.00195215 0)
(-8.71291e-05 -0.00161898 0)
(0.0001994 0.00426643 0)
(0.00160658 0.00463588 0)
(0.0018561 0.00209754 0)
(-0.00145385 0.00224825 0)
(-0.0014145 0.000195927 0)
(-0.00102372 -0.000987651 0)
(-0.000299931 0.00174347 0)
(-0.000262794 0.00140024 0)
(-0.000997212 -0.00308488 0)
(7.40337e-05 -0.00215667 0)
(-0.000767152 -0.00222997 0)
(0.000237428 0.000491375 0)
(0.00249103 0.000166539 0)
(0.0015716 -0.0050151 0)
(0.00208693 -0.00640648 0)
(0.00106501 -0.00799159 0)
(-0.00014737 -0.00568706 0)
(-0.0015684 -0.00417733 0)
(-0.0021305 -0.00420964 0)
(-0.000921242 -0.00430619 0)
(-0.000305608 -0.004064 0)
(-0.00104698 -0.0028215 0)
(0.0050954 -0.000230161 0)
(-0.000272053 -0.000510665 0)
(0.000898762 -0.00205033 0)
(0.0019048 -0.00272662 0)
(0.00326793 -0.0025354 0)
(-0.00149293 -0.00234389 0)
(0.000526566 -0.00553236 0)
(0.000728393 -0.00803633 0)
(0.00276594 -0.00847316 0)
(0.00130124 -0.00898825 0)
(0.00245806 -0.00951049 0)
(-0.000451572 -0.00980195 0)
(-0.000701033 -0.0101099 0)
(-0.00135592 -0.00960438 0)
(-0.00152557 -0.00942281 0)
(-0.00148626 -0.00909538 0)
(-0.00120771 -0.00875541 0)
(-0.000951558 -0.00841201 0)
(-0.00120877 -0.00773679 0)
(-0.00169841 -0.00671741 0)
(-0.00217108 -0.00555553 0)
(-0.00184887 -0.00440559 0)
(-0.000359013 -0.00370254 0)
(0.00199491 -0.00411315 0)
(0.00400821 -0.00574221 0)
(0.00528069 -0.00806952 0)
(0.00473515 -0.0103519 0)
(0.00341043 -0.0122385 0)
(0.000323696 -0.0102206 0)
(0.00175305 -0.00199464 0)
(-0.00182249 -0.00653232 0)
(-0.00136164 -0.0122433 0)
(-5.86222e-05 -0.0127259 0)
(-7.39941e-05 -0.011562 0)
(4.7627e-05 -0.013267 0)
(-0.000155064 -0.00868681 0)
(0.000206476 -0.00783444 0)
(0.000337628 -0.0120641 0)
(6.33571e-05 -0.00825985 0)
(-0.00397621 -0.00700703 0)
(-0.0022398 -0.00908179 0)
(-0.00106308 -0.00773177 0)
(-0.00123884 -0.0089271 0)
(-0.00167684 -0.00892586 0)
(-0.000345365 -0.00629027 0)
(0.00375508 -0.0064892 0)
(0.00311015 -0.00624509 0)
(0.00352748 -0.00671791 0)
(0.00343533 -0.00616558 0)
(0.000545067 -0.00591588 0)
(0.000347616 -0.00612484 0)
(-0.00167768 -0.00623344 0)
(-8.69891e-05 -0.00588366 0)
(0.00117003 -0.00457533 0)
(-0.00206043 -0.00510388 0)
(-0.000373544 -0.00551486 0)
(0.00153871 -0.00518083 0)
(0.000975841 -0.00929443 0)
(-0.000352426 -0.00850604 0)
(0.00388638 -0.00973535 0)
(-0.00107288 -0.012495 0)
(-0.002796 -0.0133339 0)
(-0.000614987 -0.0128557 0)
(-0.00107887 -0.0107198 0)
(0.00315874 -0.0079878 0)
(0.000734637 -0.00654183 0)
(0.00220748 -0.00759986 0)
(0.00307422 -0.00783747 0)
(0.000795865 -0.00863243 0)
(0.000125934 -0.0102546 0)
(-0.00203884 -0.0105632 0)
(-0.00216461 -0.0101703 0)
(-0.000777744 -0.0100326 0)
(-0.00107113 -0.0141664 0)
(-0.000625718 -0.0120302 0)
(0.00128755 -0.0121722 0)
(0.000334443 -0.0167452 0)
(0.0016483 -0.0146399 0)
(0.00193876 -0.0144737 0)
(0.003023 -0.0132602 0)
(0.00188053 -0.0127674 0)
(0.000821898 -0.0131275 0)
(0.000943689 -0.0137399 0)
(0.00188807 -0.0130853 0)
(0.00186742 -0.0131024 0)
(0.00158034 -0.0133553 0)
(0.000128082 -0.0140531 0)
(-0.000348105 -0.0149764 0)
(-0.000785678 -0.0151713 0)
(-0.00126189 -0.0150619 0)
(-0.00136719 -0.0150468 0)
(-0.00139116 -0.0150458 0)
(-0.00154504 -0.0147922 0)
(-0.0022066 -0.0142284 0)
(-0.0027811 -0.0136533 0)
(-0.00283492 -0.0132713 0)
(-0.0021913 -0.0130288 0)
(0.000156551 -0.0132664 0)
(0.00382077 -0.0134489 0)
(0.0053151 -0.0133534 0)
(0.00557822 -0.0128645 0)
(0.00422066 -0.0119586 0)
(0.00240531 -0.0132986 0)
(0.000117092 -0.0106483 0)
(0.00109035 -0.0132676 0)
(-0.00126453 -0.0123398 0)
(-0.000182764 -0.0144075 0)
(-1.87217e-05 -0.0166007 0)
(-0.000274377 -0.0160227 0)
(0.00106802 -0.0142587 0)
(0.00191213 -0.0124406 0)
(-0.00376543 -0.0118101 0)
(-0.00182829 -0.012607 0)
(-0.000505306 -0.0117072 0)
(-0.00177827 -0.0106151 0)
(-0.00204151 -0.0114115 0)
(-0.000603117 -0.0122104 0)
(-0.00102175 -0.0115463 0)
(-0.000867929 -0.00992999 0)
(-0.00159579 -0.00559949 0)
(0.000233941 -0.00730931 0)
(0.00166221 -0.0105648 0)
(-0.000129669 -0.00772465 0)
(0.00101423 -0.0067475 0)
(0.00107012 -0.0061328 0)
(0.000797879 -0.00698748 0)
(-0.00109336 -0.00762174 0)
(0.00152489 -0.00883529 0)
(0.00127454 -0.0104381 0)
(0.000601848 -0.0110629 0)
(-0.000500671 -0.00892188 0)
(0.00360834 -0.00948733 0)
(0.00270355 -0.0132575 0)
(0.00300243 -0.00935322 0)
(0.000830464 -0.00869352 0)
(-0.00016516 -0.0136719 0)
(-0.0023578 -0.0126625 0)
(0.000406979 -0.0139213 0)
(6.04918e-06 -0.0124972 0)
(-0.00023645 -0.00907886 0)
(-0.00160854 -0.0072557 0)
(0.00155042 -0.00553671 0)
(0.00146037 -0.0104244 0)
(0.000542 -0.0137982 0)
(0.000335821 -0.0127009 0)
(0.000485651 -0.0129751 0)
(-0.000722464 -0.0114907 0)
(0.00239706 -0.0121701 0)
(0.00228933 -0.0137615 0)
(0.00434283 -0.011985 0)
(-0.000421515 -0.0125628 0)
(-0.000370627 -0.0148737 0)
(-0.000672533 -0.0149581 0)
(6.74982e-05 -0.0136142 0)
(0.00146825 -0.0120163 0)
(0.000792805 -0.0113246 0)
(0.000342513 -0.0112158 0)
(0.000996216 -0.0112348 0)
(0.00181815 -0.0114219 0)
(0.00231004 -0.0116146 0)
(0.00243068 -0.0121793 0)
(0.00164268 -0.0131183 0)
(0.000425912 -0.0143889 0)
(-0.000988753 -0.0151769 0)
(-0.00137785 -0.0156063 0)
(-0.0012768 -0.0160755 0)
(-0.0011624 -0.0165174 0)
(-0.00147526 -0.0166869 0)
(-0.00233369 -0.0163517 0)
(-0.00281703 -0.0159099 0)
(-0.00279742 -0.0157239 0)
(-0.00202466 -0.0158678 0)
(6.82407e-05 -0.0165255 0)
(0.00270959 -0.0162292 0)
(0.00423319 -0.0149617 0)
(0.00405176 -0.0131857 0)
(0.00312408 -0.0123258 0)
(0.0015986 -0.0134472 0)
(-0.000331503 -0.0110939 0)
(0.000136231 -0.0152856 0)
(0.00121347 -0.0141062 0)
(-0.000725296 -0.0141545 0)
(-0.00108991 -0.014949 0)
(-0.000812842 -0.0136361 0)
(-0.000224618 -0.0133573 0)
(-0.0009928 -0.0128844 0)
(-0.00322033 -0.010807 0)
(-0.000872294 -0.00990219 0)
(-0.000515652 -0.0112648 0)
(-0.00208418 -0.0139684 0)
(-0.00185599 -0.0138979 0)
(-0.00228648 -0.0110642 0)
(-0.00174714 -0.0116708 0)
(0.000161356 -0.0127977 0)
(0.000505777 -0.00925866 0)
(0.000509235 -0.00805038 0)
(0.000495051 -0.00969899 0)
(-0.00179014 -0.00911235 0)
(0.00194936 -0.00745101 0)
(0.00182748 -0.00982924 0)
(0.00210735 -0.0117344 0)
(0.00123078 -0.00850789 0)
(0.000576197 -0.00785478 0)
(-0.00104777 -0.0119427 0)
(0.00233492 -0.0135976 0)
(0.000622689 -0.0089756 0)
(0.000668506 -0.00705749 0)
(0.00224377 -0.0110438 0)
(0.00393323 -0.00988433 0)
(-0.000783703 -0.0100518 0)
(0.0004747 -0.0106661 0)
(0.000895597 -0.00774037 0)
(0.00108993 -0.00737314 0)
(0.00267945 -0.0108797 0)
(0.00140257 -0.0123678 0)
(0.000515735 -0.00828082 0)
(-0.00108343 -0.00808898 0)
(-0.00205421 -0.012849 0)
(-0.000235618 -0.0141597 0)
(-0.000618693 -0.0142576 0)
(-0.00203082 -0.0149257 0)
(-0.00119336 -0.0103259 0)
(9.10036e-05 -0.00847358 0)
(0.000678331 -0.0115779 0)
(0.00159483 -0.00884595 0)
(0.00109947 -0.0078183 0)
(0.000932076 -0.00825227 0)
(0.000222306 -0.00841153 0)
(-0.000699067 -0.00802796 0)
(0.00117937 -0.00891847 0)
(0.000961594 -0.0099678 0)
(0.00113725 -0.010347 0)
(0.00135674 -0.0106962 0)
(0.00214932 -0.010769 0)
(0.00275762 -0.010946 0)
(0.00291093 -0.0114791 0)
(0.00249329 -0.0120917 0)
(0.00167772 -0.0131594 0)
(0.000415746 -0.0144186 0)
(-0.000547127 -0.015813 0)
(-0.000689054 -0.0169398 0)
(-0.000769264 -0.0172959 0)
(-0.0016351 -0.0171999 0)
(-0.00299812 -0.0164427 0)
(-0.00337152 -0.0160362 0)
(-0.00312267 -0.0156705 0)
(-0.00179081 -0.0156775 0)
(0.00031244 -0.0161092 0)
(0.00207166 -0.0159003 0)
(0.00279588 -0.0144343 0)
(0.00257567 -0.0127689 0)
(0.00216439 -0.012146 0)
(0.00128795 -0.013273 0)
(-0.000349147 -0.0114631 0)
(-0.000305264 -0.015157 0)
(-0.00075795 -0.0144321 0)
(-0.00151545 -0.0154381 0)
(-0.00108934 -0.0135354 0)
(-0.00289943 -0.0117161 0)
(0.000936745 -0.0112517 0)
(-0.000578622 -0.0122257 0)
(-0.00144994 -0.00967542 0)
(-0.00235805 -0.00774304 0)
(-0.000149296 -0.0101534 0)
(-0.00193819 -0.0102592 0)
(-0.000565245 -0.0108882 0)
(-0.00121567 -0.0122871 0)
(-0.00368366 -0.010879 0)
(0.000521248 -0.0104222 0)
(0.000569794 -0.0075376 0)
(-9.26054e-06 -0.00899041 0)
(-0.00152215 -0.0143304 0)
(-0.000453421 -0.00806822 0)
(-0.00185378 -0.00551278 0)
(0.00132082 -0.00959569 0)
(0.00466078 -0.011293 0)
(0.00437381 -0.0118152 0)
(0.0014459 -0.0130605 0)
(0.000598084 -0.0116545 0)
(0.00202196 -0.011613 0)
(0.0028087 -0.011035 0)
(-0.000452562 -0.00704114 0)
(8.91239e-05 -0.00947589 0)
(-9.16716e-05 -0.0114824 0)
(-0.000632073 -0.0111842 0)
(0.000266059 -0.0099113 0)
(0.00176304 -0.00961266 0)
(0.000547203 -0.00958257 0)
(0.000992798 -0.0112659 0)
(0.00177774 -0.011391 0)
(0.00282279 -0.0102984 0)
(-0.0020828 -0.00934445 0)
(-0.00288543 -0.00984637 0)
(0.000560868 -0.0125541 0)
(0.000147675 -0.0146727 0)
(-0.000460134 -0.0137142 0)
(0.000456106 -0.0109087 0)
(-0.00413613 -0.0113154 0)
(0.000251246 -0.0123919 0)
(-0.000245336 -0.0128529 0)
(0.00110441 -0.0131273 0)
(0.000714535 -0.0118393 0)
(0.000102805 -0.0104372 0)
(-0.000456221 -0.00730832 0)
(0.00181202 -0.00699457 0)
(0.00163198 -0.0099478 0)
(0.00138197 -0.00974212 0)
(0.00136388 -0.00994583 0)
(0.00240573 -0.0104149 0)
(0.0031995 -0.0104602 0)
(0.00341338 -0.0107785 0)
(0.00316458 -0.0111357 0)
(0.00255317 -0.0115593 0)
(0.00168997 -0.0123179 0)
(0.000908949 -0.01351 0)
(0.000250524 -0.0147108 0)
(-0.000762385 -0.0154294 0)
(-0.00253834 -0.0150976 0)
(-0.00358542 -0.0144188 0)
(-0.0037096 -0.014288 0)
(-0.00322429 -0.0142953 0)
(-0.00166219 -0.0147022 0)
(0.00025604 -0.0150205 0)
(0.00138079 -0.0145931 0)
(0.00175583 -0.0134704 0)
(0.00174221 -0.0124249 0)
(0.00151811 -0.0120309 0)
(0.0009168 -0.0134082 0)
(-0.000234337 -0.0116283 0)
(0.000778887 -0.0130848 0)
(-0.00143996 -0.0136032 0)
(-0.00115431 -0.0127155 0)
(-0.00152812 -0.0146736 0)
(-0.00181927 -0.00988726 0)
(-0.00196781 -0.00889933 0)
(-0.00277894 -0.0130384 0)
(-0.00116595 -0.00975578 0)
(-0.00367921 -0.00516497 0)
(-0.00239273 -0.00728777 0)
(-0.00157958 -0.0109929 0)
(-0.00247143 -0.009702 0)
(-0.000568216 -0.0125053 0)
(0.00155234 -0.00951258 0)
(0.0011012 -0.00953581 0)
(0.00113999 -0.0127809 0)
(-0.00217903 -0.014316 0)
(0.000463403 -0.0158797 0)
(0.00352578 -0.015928 0)
(0.00091861 -0.011798 0)
(0.00202519 -0.00841158 0)
(0.00117308 -0.0130425 0)
(0.00147911 -0.0147933 0)
(0.00243227 -0.0132151 0)
(0.0033584 -0.0123693 0)
(0.00109921 -0.0118136 0)
(0.00261843 -0.0124495 0)
(-0.000374973 -0.0112802 0)
(-0.00197961 -0.0124021 0)
(-0.00194898 -0.0125205 0)
(-0.000940484 -0.0126926 0)
(-0.00109466 -0.0121309 0)
(0.00173023 -0.0118983 0)
(0.00175846 -0.0118539 0)
(0.00216424 -0.0124357 0)
(0.00284041 -0.0121907 0)
(0.0019093 -0.0124683 0)
(0.000220819 -0.0124936 0)
(-0.00133724 -0.00841616 0)
(-0.000520971 -0.0100728 0)
(-0.000495943 -0.0153818 0)
(0.00087829 -0.0160463 0)
(0.000160282 -0.0157785 0)
(-0.00111124 -0.0117576 0)
(-1.8185e-05 -0.0129933 0)
(-0.000484592 -0.0173233 0)
(-0.0022749 -0.0162858 0)
(-0.00254428 -0.0161392 0)
(-0.00292697 -0.0138726 0)
(0.000271137 -0.00951853 0)
(0.00168749 -0.00958841 0)
(0.00124333 -0.012884 0)
(0.00158061 -0.0127122 0)
(0.00209052 -0.0124313 0)
(0.0026981 -0.0119237 0)
(0.00332432 -0.011432 0)
(0.00352184 -0.0111838 0)
(0.00336755 -0.0110595 0)
(0.00295855 -0.0109679 0)
(0.00248655 -0.011146 0)
(0.00195186 -0.0115588 0)
(0.00120053 -0.012074 0)
(-0.000304472 -0.0123315 0)
(-0.00251179 -0.0122164 0)
(-0.00339163 -0.0122942 0)
(-0.00345914 -0.0126037 0)
(-0.00276939 -0.0131395 0)
(-0.00126771 -0.0138699 0)
(4.00015e-05 -0.0141897 0)
(0.000777902 -0.0137419 0)
(0.00112826 -0.0129468 0)
(0.00117455 -0.0122845 0)
(0.0010827 -0.0120486 0)
(0.000709887 -0.0136092 0)
(-0.00016224 -0.0117444 0)
(-0.00026107 -0.0109438 0)
(-0.0001329 -0.0121679 0)
(-0.00124445 -0.012525 0)
(-0.00186024 -0.0127888 0)
(0.000322423 -0.0117475 0)
(-0.00385088 -0.0122499 0)
(-0.0035498 -0.0118642 0)
(0.00107467 -0.0108247 0)
(-0.000738524 -0.0119727 0)
(-0.00302067 -0.0135663 0)
(-0.00188352 -0.0138033 0)
(-0.00235005 -0.0136493 0)
(0.000482131 -0.0123378 0)
(0.00411315 -0.0122963 0)
(0.000116412 -0.0155661 0)
(-0.000102646 -0.018256 0)
(-0.000480409 -0.0196413 0)
(0.000955837 -0.0186507 0)
(0.00131694 -0.0182877 0)
(0.00173433 -0.0153924 0)
(0.00300652 -0.0135497 0)
(-0.000336526 -0.0151849 0)
(0.000807463 -0.0122054 0)
(-0.000284187 -0.0120732 0)
(0.00346267 -0.014571 0)
(0.000441913 -0.0142861 0)
(0.00120533 -0.0147823 0)
(-0.00040641 -0.0148722 0)
(-0.00019465 -0.0145601 0)
(-0.00108285 -0.0141252 0)
(-0.00138888 -0.0142261 0)
(-0.00190796 -0.0125622 0)
(0.00291019 -0.0118667 0)
(0.00164688 -0.0135677 0)
(0.00147217 -0.0130626 0)
(0.00233136 -0.0126585 0)
(0.000919069 -0.0127044 0)
(0.00066332 -0.0116423 0)
(0.00108088 -0.0106306 0)
(-0.00164285 -0.0119872 0)
(-0.000174769 -0.0137425 0)
(0.00086981 -0.0134353 0)
(0.00120955 -0.0147938 0)
(0.00155378 -0.0143226 0)
(-0.00239556 -0.014488 0)
(-0.00164801 -0.0162491 0)
(0.000203953 -0.0165952 0)
(0.000423041 -0.0186745 0)
(-0.000664717 -0.0160145 0)
(-0.000802129 -0.0109531 0)
(-0.00104712 -0.0144392 0)
(0.000137162 -0.0181768 0)
(0.000738653 -0.0171352 0)
(0.000944667 -0.0163823 0)
(0.0012664 -0.0155203 0)
(0.00217541 -0.0143928 0)
(0.00291587 -0.0131678 0)
(0.00294108 -0.0122271 0)
(0.00261461 -0.0113498 0)
(0.00231593 -0.0110262 0)
(0.00184434 -0.0108808 0)
(0.000955424 -0.0109609 0)
(-0.000585332 -0.0109932 0)
(-0.00238639 -0.011267 0)
(-0.00303663 -0.0117095 0)
(-0.00293428 -0.0121966 0)
(-0.0020215 -0.0127702 0)
(-0.000713449 -0.013338 0)
(1.44222e-05 -0.0134831 0)
(0.000483185 -0.0131867 0)
(0.000806638 -0.0126453 0)
(0.000861879 -0.0121855 0)
(0.000817504 -0.012055 0)
(0.000549631 -0.0137507 0)
(-0.000120376 -0.0118427 0)
(4.34214e-05 -0.0120433 0)
(-0.000332816 -0.0140337 0)
(-0.00112724 -0.0143881 0)
(-0.00113408 -0.0132465 0)
(-0.000806291 -0.0131218 0)
(-0.0014412 -0.0150271 0)
(-0.00146288 -0.0120117 0)
(-0.00139332 -0.0134129 0)
(-0.00160906 -0.019153 0)
(-0.0023528 -0.0184101 0)
(-0.0013496 -0.0201753 0)
(-0.000605238 -0.0162517 0)
(0.00100723 -0.0127338 0)
(0.0018293 -0.0169733 0)
(-9.96677e-05 -0.0197196 0)
(0.00159745 -0.0191967 0)
(0.00154295 -0.0200486 0)
(0.000904834 -0.0199627 0)
(0.0013686 -0.0191184 0)
(0.0014707 -0.0147252 0)
(0.00138946 -0.0139475 0)
(0.00172176 -0.0172946 0)
(0.00280404 -0.0160648 0)
(-0.0011331 -0.0114183 0)
(4.38472e-06 -0.0128992 0)
(-0.000989681 -0.0177112 0)
(-0.00155749 -0.016594 0)
(0.00195105 -0.0170832 0)
(-0.000235212 -0.0176384 0)
(-0.000741707 -0.0179823 0)
(-0.00178974 -0.0182287 0)
(-0.00163144 -0.0114057 0)
(-0.000282699 -0.0104979 0)
(0.00175239 -0.0157142 0)
(0.00184846 -0.0145284 0)
(0.00204732 -0.0146823 0)
(0.00132008 -0.0158066 0)
(-1.45385e-05 -0.0144717 0)
(-0.000760042 -0.0125201 0)
(0.00118294 -0.0125404 0)
(0.00110558 -0.0137918 0)
(0.00112124 -0.0145793 0)
(0.00131497 -0.0140118 0)
(0.000513652 -0.0133144 0)
(-0.000740367 -0.013429 0)
(-0.00180556 -0.0116207 0)
(0.00169085 -0.0113997 0)
(0.000220429 -0.0136773 0)
(0.00112919 -0.011577 0)
(-0.00299391 -0.00834197 0)
(-0.00314278 -0.00841195 0)
(0.00100815 -0.0126646 0)
(0.000784926 -0.0141736 0)
(0.000961807 -0.0145751 0)
(0.00118048 -0.0146023 0)
(0.00133861 -0.0143749 0)
(0.00146055 -0.0135913 0)
(0.00160968 -0.0123499 0)
(0.00175269 -0.0110785 0)
(0.00195169 -0.0104392 0)
(0.00175117 -0.0100726 0)
(0.00113946 -0.010091 0)
(-5.79353e-05 -0.0105393 0)
(-0.0018572 -0.011406 0)
(-0.00253353 -0.0118658 0)
(-0.00250354 -0.0121394 0)
(-0.00172661 -0.0125418 0)
(-0.000639743 -0.0129482 0)
(-0.000156051 -0.0131592 0)
(0.000219474 -0.0130042 0)
(0.000517956 -0.0125721 0)
(0.00058065 -0.0121986 0)
(0.00059148 -0.0121188 0)
(0.000400608 -0.0138697 0)
(-8.07297e-05 -0.0119182 0)
(0.000677732 -0.0115322 0)
(0.000636861 -0.0132057 0)
(-0.000625925 -0.0132441 0)
(-0.00196787 -0.0124069 0)
(-0.000378214 -0.0138795 0)
(0.000591278 -0.0156463 0)
(0.00054526 -0.0157065 0)
(-0.00257625 -0.0156406 0)
(0.000878704 -0.0182501 0)
(1.9443e-05 -0.0206652 0)
(-0.000453821 -0.020646 0)
(0.00191428 -0.0201378 0)
(0.000218077 -0.0179272 0)
(-0.00136015 -0.0193364 0)
(-0.00120451 -0.018884 0)
(0.00233995 -0.0171342 0)
(0.000186432 -0.0178689 0)
(-0.001263 -0.0178083 0)
(0.00237753 -0.0179957 0)
(0.00281367 -0.0167556 0)
(-0.00148403 -0.0165183 0)
(0.00147311 -0.0163803 0)
(0.00254089 -0.0158208 0)
(0.00261346 -0.0142815 0)
(-0.000933192 -0.0143665 0)
(-0.00022017 -0.0165789 0)
(0.000141404 -0.0132842 0)
(0.000339423 -0.0141214 0)
(7.51543e-05 -0.0173873 0)
(0.000230071 -0.0152439 0)
(-0.00233058 -0.0161327 0)
(-0.0010043 -0.0138708 0)
(-0.000524267 -0.0123455 0)
(0.00179842 -0.0147077 0)
(0.000708959 -0.0166434 0)
(0.00063854 -0.0154019 0)
(0.00110295 -0.0161645 0)
(0.00110747 -0.0147758 0)
(0.000571218 -0.00950778 0)
(0.00101227 -0.010474 0)
(0.000151185 -0.0141273 0)
(0.000691929 -0.0116273 0)
(0.000578551 -0.0117575 0)
(-0.000299442 -0.0120902 0)
(-0.000177328 -0.0119878 0)
(0.000200687 -0.00826188 0)
(-0.00119006 -0.00864469 0)
(-0.000212443 -0.0122996 0)
(0.000371984 -0.011644 0)
(0.000126821 -0.00901595 0)
(-0.00143144 -0.00595553 0)
(-0.000739553 -0.0109206 0)
(0.000327337 -0.015002 0)
(0.00103599 -0.0140061 0)
(0.00112827 -0.0135409 0)
(0.00103022 -0.013049 0)
(0.000738866 -0.0122793 0)
(0.000563544 -0.0110184 0)
(0.000614134 -0.00970535 0)
(0.00130382 -0.00869408 0)
(0.00152597 -0.00792902 0)
(0.00139532 -0.00774348 0)
(0.00067925 -0.00794048 0)
(-0.000951215 -0.00876972 0)
(-0.00218941 -0.00981914 0)
(-0.00227523 -0.0106314 0)
(-0.0013157 -0.0115606 0)
(-0.000258274 -0.0121891 0)
(4.20137e-05 -0.0125509 0)
(0.000162579 -0.0126622 0)
(0.00042985 -0.0124356 0)
(0.000437582 -0.0120865 0)
(0.000434612 -0.0121372 0)
(0.000289139 -0.0139406 0)
(-6.07681e-05 -0.0119767 0)
(0.00300855 -0.0102243 0)
(0.00176132 -0.0118551 0)
(0.00198136 -0.0127315 0)
(-0.000127677 -0.00945585 0)
(-0.000763316 -0.00884275 0)
(-0.00143819 -0.0130093 0)
(-0.00166292 -0.014509 0)
(-0.000982424 -0.0124028 0)
(0.000577732 -0.0147001 0)
(0.00111558 -0.0192751 0)
(0.000555594 -0.0200141 0)
(1.7144e-05 -0.0201936 0)
(-0.00146877 -0.0198108 0)
(-0.00127017 -0.0206811 0)
(-7.07665e-05 -0.0167414 0)
(0.000662442 -0.0168463 0)
(0.00267333 -0.0214233 0)
(0.00254614 -0.0160333 0)
(0.00178968 -0.0158728 0)
(0.000628373 -0.0204692 0)
(-0.00133902 -0.0174297 0)
(0.000601855 -0.0153238 0)
(0.00107404 -0.0158673 0)
(0.000931605 -0.0147296 0)
(-0.000562718 -0.0142666 0)
(-0.000338545 -0.0137265 0)
(0.00139034 -0.0126458 0)
(-0.00185748 -0.0118022 0)
(-7.74734e-05 -0.0113543 0)
(-0.00165071 -0.0125529 0)
(-0.00290208 -0.0131932 0)
(0.000113993 -0.00721989 0)
(0.00226482 -0.00785772 0)
(-0.000578135 -0.015025 0)
(-0.000777771 -0.0169066 0)
(0.000503447 -0.0162408 0)
(0.000601013 -0.0162242 0)
(0.000922674 -0.0151675 0)
(0.00183579 -0.0113971 0)
(-0.00172278 -0.0106942 0)
(-0.0003187 -0.0116585 0)
(0.000479982 -0.0112876 0)
(-0.000149889 -0.0119618 0)
(0.000118657 -0.011412 0)
(0.000974633 -0.00954609 0)
(0.00215995 -0.00917859 0)
(-0.00202498 -0.00813905 0)
(-0.000982066 -0.00769902 0)
(0.000701893 -0.0079851 0)
(0.00245755 -0.00677715 0)
(0.000884694 -0.00774156 0)
(-0.00193703 -0.0108441 0)
(-0.000321555 -0.0132874 0)
(0.000382307 -0.0139504 0)
(0.000456108 -0.0136774 0)
(-0.000102367 -0.0129471 0)
(-0.000409209 -0.0119388 0)
(-0.000683654 -0.0107397 0)
(-0.000721005 -0.00964918 0)
(-2.88802e-05 -0.00848943 0)
(0.000797918 -0.00729819 0)
(0.00124022 -0.0066184 0)
(0.00107814 -0.00639501 0)
(0.000397591 -0.00679649 0)
(-0.000471765 -0.00809682 0)
(-0.00075369 -0.00994977 0)
(-0.000274742 -0.0116623 0)
(0.000244085 -0.0122876 0)
(0.000320978 -0.0125984 0)
(0.000289558 -0.0127139 0)
(0.000302712 -0.0124985 0)
(0.000310183 -0.0121212 0)
(0.00027427 -0.0121641 0)
(0.000207401 -0.0140036 0)
(-4.22405e-05 -0.0120188 0)
(0.000511167 -0.0127065 0)
(0.00208598 -0.0152087 0)
(0.00202701 -0.014158 0)
(0.00296023 -0.0117111 0)
(0.0014224 -0.0106585 0)
(-0.000506068 -0.0121652 0)
(3.23534e-05 -0.00966504 0)
(0.000774091 -0.00644933 0)
(0.000923136 -0.00787752 0)
(0.00223074 -0.0113653 0)
(0.00147968 -0.0129797 0)
(-0.000311717 -0.0138626 0)
(0.000481535 -0.0138659 0)
(0.000719488 -0.0149878 0)
(0.00194696 -0.0154328 0)
(-0.00149722 -0.0144384 0)
(-0.000915089 -0.0151984 0)
(0.00167839 -0.0148288 0)
(-0.00185616 -0.0142125 0)
(-0.00182268 -0.0136161 0)
(0.000391676 -0.0117061 0)
(-0.00194617 -0.0106133 0)
(0.00111582 -0.0130897 0)
(-0.000852905 -0.013733 0)
(0.00072539 -0.012961 0)
(0.000187396 -0.0132771 0)
(0.00034481 -0.0121165 0)
(-0.000377393 -0.0114393 0)
(-0.000446294 -0.0113653 0)
(-0.000349066 -0.0118994 0)
(0.000862035 -0.00921161 0)
(0.00200515 -0.0045083 0)
(-0.00166792 -0.00839898 0)
(-0.00187107 -0.0149176 0)
(-0.00114595 -0.0129025 0)
(0.000310892 -0.0124683 0)
(0.000308499 -0.0149405 0)
(-5.09171e-05 -0.0135164 0)
(0.000477545 -0.0125038 0)
(-0.00147694 -0.0120556 0)
(-0.00127686 -0.0110672 0)
(0.00035945 -0.0119836 0)
(3.37491e-05 -0.0130583 0)
(-0.000565657 -0.012046 0)
(-0.000991825 -0.0113484 0)
(-0.00136182 -0.0111955 0)
(-0.00220838 -0.0117924 0)
(-0.00325185 -0.0105084 0)
(0.00217104 -0.0109396 0)
(0.00284665 -0.0119834 0)
(0.0022035 -0.0131211 0)
(0.000897405 -0.0143174 0)
(0.00128834 -0.0143327 0)
(0.000806419 -0.0144161 0)
(0.000153 -0.0137922 0)
(-0.000632336 -0.0126555 0)
(-0.00136836 -0.0107733 0)
(-0.00169521 -0.00982596 0)
(-0.00145172 -0.00886385 0)
(-0.00103448 -0.00805152 0)
(-0.000370972 -0.0074193 0)
(0.000375735 -0.00715763 0)
(0.000749824 -0.00732067 0)
(0.000870506 -0.00801512 0)
(0.000976939 -0.0093483 0)
(0.00106263 -0.0110337 0)
(0.000898181 -0.0119795 0)
(0.000708043 -0.012335 0)
(0.000490584 -0.0125211 0)
(0.00033052 -0.0125925 0)
(0.000207472 -0.0123565 0)
(0.000210293 -0.012047 0)
(0.00014686 -0.012173 0)
(0.000143076 -0.014026 0)
(-2.75029e-05 -0.0120523 0)
(-0.000954876 -0.0109897 0)
(-0.000167788 -0.0114333 0)
(-1.34281e-05 -0.0129158 0)
(0.000552044 -0.0104778 0)
(6.23581e-05 -0.00863557 0)
(-0.000395218 -0.00940108 0)
(-4.512e-05 -0.00673854 0)
(-0.00191513 -0.00339693 0)
(-0.00345377 -0.0011655 0)
(0.00167348 -0.00109642 0)
(-0.000525662 -0.00159258 0)
(0.00011402 -5.22269e-05 0)
(0.0030566 0.000791573 0)
(-0.000254156 0.000286107 0)
(0.000204105 0.000772382 0)
(5.35495e-05 0.000193237 0)
(0.0012019 -0.00143191 0)
(0.000981864 -0.00389522 0)
(0.00164817 -0.00712107 0)
(-0.000494101 -0.00692278 0)
(0.00234403 -0.00843054 0)
(-0.00418553 -0.00939393 0)
(0.0011592 -0.0115608 0)
(0.000530565 -0.0149564 0)
(-0.000869421 -0.0144804 0)
(-0.000908512 -0.0156036 0)
(-0.000414987 -0.0140812 0)
(-0.00166624 -0.0127186 0)
(-0.00133097 -0.0106167 0)
(0.00207928 -0.0106564 0)
(0.00212183 -0.0109374 0)
(-0.000312839 -0.00998167 0)
(-0.00301212 -0.0108212 0)
(-0.00133619 -0.0136307 0)
(-0.000338502 -0.0128749 0)
(-0.00044376 -0.0103752 0)
(0.00266054 -0.0122631 0)
(0.00106389 -0.0125827 0)
(-0.00120561 -0.011822 0)
(-0.000489304 -0.0126923 0)
(0.000235549 -0.010801 0)
(-0.000627727 -0.0096075 0)
(0.000793409 -0.00997664 0)
(0.000658533 -0.00847532 0)
(0.00120775 -0.00767878 0)
(0.000330121 -0.00890415 0)
(0.000492714 -0.0121064 0)
(0.000672799 -0.00986245 0)
(0.00136755 -0.0122225 0)
(0.00147761 -0.0177785 0)
(0.0016013 -0.0173056 0)
(0.00095325 -0.0167606 0)
(3.44953e-05 -0.0157501 0)
(-0.00117673 -0.0148347 0)
(-0.00204381 -0.0136511 0)
(-0.0026768 -0.0126808 0)
(-0.00327368 -0.0113003 0)
(-0.00320634 -0.0103843 0)
(-0.00254015 -0.00955194 0)
(-0.00162223 -0.00907593 0)
(-8.6302e-05 -0.00851443 0)
(0.0011814 -0.00881964 0)
(0.0019935 -0.00963396 0)
(0.00248407 -0.0108382 0)
(0.00246432 -0.0119255 0)
(0.00160689 -0.0125777 0)
(0.000963995 -0.012712 0)
(0.000662458 -0.0126109 0)
(0.000492931 -0.0126209 0)
(0.000311071 -0.0126252 0)
(0.000166356 -0.0123611 0)
(0.00014474 -0.0120703 0)
(4.71076e-05 -0.0122032 0)
(8.05815e-05 -0.0140686 0)
(-1.54664e-05 -0.0120735 0)
(0.000831367 -0.0138658 0)
(-0.000726265 -0.0143575 0)
(0.000160666 -0.0140789 0)
(7.71923e-05 -0.0133527 0)
(-0.000482648 -0.0131474 0)
(-0.00178787 -0.0135337 0)
(-0.00161392 -0.0138313 0)
(-0.00248904 -0.0136121 0)
(-0.00200766 -0.00874378 0)
(-0.00108196 -0.0103398 0)
(-0.00105131 -0.0148221 0)
(-0.000156809 -0.00856728 0)
(-0.000526968 -0.0101265 0)
(-0.00160483 -0.013091 0)
(-0.00175806 -0.00894157 0)
(0.00244431 -0.0071338 0)
(0.00179696 -0.00749621 0)
(0.00381848 -0.00818084 0)
(0.00575733 -0.00969586 0)
(0.00363722 -0.00765455 0)
(0.00407659 -0.0107707 0)
(0.00183317 -0.00833439 0)
(-0.000267101 -0.00780039 0)
(-0.000186601 -0.0154805 0)
(-0.00185014 -0.0150003 0)
(-0.00216731 -0.0136356 0)
(-0.00296082 -0.0133188 0)
(-0.00100748 -0.0127236 0)
(-0.000279041 -0.00771028 0)
(-0.00058786 -0.00790105 0)
(0.000616415 -0.011974 0)
(0.000710897 -0.0123598 0)
(-0.000174206 -0.0120733 0)
(-0.000315712 -0.0124951 0)
(0.00108221 -0.00996082 0)
(-0.000419138 -0.00622136 0)
(-0.000942794 -0.0101272 0)
(-0.000800972 -0.0139241 0)
(-0.000697011 -0.0128681 0)
(-0.000903328 -0.0118551 0)
(-0.000593084 -0.0130908 0)
(-0.0020639 -0.0131844 0)
(-0.00266722 -0.011814 0)
(0.000534805 -0.010502 0)
(0.000389865 -0.00806707 0)
(0.000121802 -0.00738009 0)
(0.0022671 -0.00667521 0)
(0.00415948 -0.0050364 0)
(0.00126279 -0.00668364 0)
(0.00273468 -0.008913 0)
(0.00160223 -0.0102697 0)
(0.000743174 -0.0111642 0)
(-0.000371639 -0.0106025 0)
(-0.00129774 -0.0107423 0)
(-0.00216043 -0.0110889 0)
(-0.00287153 -0.0122348 0)
(-0.00328477 -0.0127449 0)
(-0.00317618 -0.0132183 0)
(-0.00288727 -0.0133541 0)
(-0.00211226 -0.0132593 0)
(-0.000628155 -0.0128338 0)
(0.00152275 -0.0123548 0)
(0.00278104 -0.0124666 0)
(0.00305154 -0.0127167 0)
(0.00283178 -0.0128336 0)
(0.0017591 -0.0128065 0)
(0.00089811 -0.0126821 0)
(0.0006377 -0.0125669 0)
(0.000496259 -0.0125701 0)
(0.000322457 -0.0125559 0)
(0.000124867 -0.012272 0)
(9.19369e-05 -0.0119979 0)
(-3.20697e-05 -0.0121765 0)
(3.2737e-05 -0.0140685 0)
(-6.3435e-06 -0.0120851 0)
(-0.00213486 -0.0149354 0)
(-0.001419 -0.0140589 0)
(-0.00164001 -0.0126561 0)
(7.14043e-05 -0.010312 0)
(-0.000441925 -0.0103933 0)
(-0.000201999 -0.0127057 0)
(-0.000967697 -0.0127194 0)
(-0.00134246 -0.0125792 0)
(0.00171756 -0.0120789 0)
(-0.00132862 -0.0151183 0)
(0.000966735 -0.0165102 0)
(0.00117832 -0.0147265 0)
(-0.00218666 -0.0151899 0)
(-0.00154994 -0.0170928 0)
(0.00108974 -0.0125969 0)
(-0.000704773 -0.0117983 0)
(0.00259825 -0.0124479 0)
(0.0027347 -0.00777775 0)
(0.00300391 -0.0111523 0)
(0.00467821 -0.00815893 0)
(0.0012268 -0.00718281 0)
(0.00354908 -0.00836478 0)
(-0.00334718 -0.00590022 0)
(-0.00159533 -0.00818153 0)
(-0.00145386 -0.00858829 0)
(-0.00226041 -0.0107293 0)
(-0.00262374 -0.00983452 0)
(-0.000768203 -0.00911993 0)
(-0.000226945 -0.0100478 0)
(-0.00155186 -0.0102386 0)
(0.000639653 -0.0104209 0)
(0.00087415 -0.0114054 0)
(-0.000297931 -0.0117668 0)
(0.000214892 -0.00978931 0)
(0.00235774 -0.00804772 0)
(0.000753051 -0.0068064 0)
(-0.0022686 -0.00823942 0)