/*--------------------------------*- C++ -*----------------------------------*\
  =========                 |
  \\      /  F ield         | OpenFOAM: The Open Source CFD Toolbox
   \\    /   O peration     | Website:  https://openfoam.org
    \\  /    A nd           | Version:  12
     \\/     M anipulation  |
\*---------------------------------------------------------------------------*/
FoamFile
{
    format      ascii;
    class       volVectorField;
    location    "0.5";
    object      U.water;
}
// * * * * * * * * * * * * * * * * * * * * * * * * * * * * * * * * * * * * * //

dimensions      [0 1 -1 0 0 0 0];

internalField   nonuniform List<vector> 
3750
(
(-0.00131965 0.00846283 0)
(0.000408163 0.00993504 0)
(0.00129457 0.0100942 0)
(0.00225769 0.0150028 0)
(-0.00119418 0.014338 0)
(-0.000704972 0.00930325 0)
(8.90196e-05 0.00997974 0)
(-0.000382153 0.00949376 0)
(-0.00146028 0.0105798 0)
(0.00088963 0.0104853 0)
(0.00160697 0.00836318 0)
(0.000891244 0.00937677 0)
(0.00108408 0.00981971 0)
(0.000855125 0.00935538 0)
(0.0011473 0.00948585 0)
(-0.000690843 0.0082997 0)
(-0.000356705 0.00826733 0)
(-0.00167333 0.00743237 0)
(-0.000710489 0.00602464 0)
(-0.00175127 0.0076294 0)
(-0.000363963 0.00669434 0)
(-0.000452318 0.00642221 0)
(0.00113972 0.00676439 0)
(0.00102856 0.0067903 0)
(-0.000229739 0.0063697 0)
(0.000421976 0.00469513 0)
(0.000288827 0.00424634 0)
(0.000332243 0.00522782 0)
(0.00124944 0.00526697 0)
(0.000197462 0.00627497 0)
(-0.0012291 0.00421322 0)
(0.000414138 0.00435983 0)
(0.00101794 0.011617 0)
(-0.00196757 0.0128189 0)
(-0.00246696 0.00710428 0)
(-0.00192224 0.00476341 0)
(-0.000526519 0.0068519 0)
(-0.000674819 0.00599779 0)
(0.0011908 0.00458335 0)
(0.000319003 0.00508642 0)
(0.000434356 0.00505657 0)
(0.000598365 0.00490093 0)
(0.000263632 0.00589535 0)
(-0.000456609 0.00674555 0)
(-0.000144539 0.00667321 0)
(8.45419e-05 0.0040913 0)
(0.000448868 0.00468623 0)
(0.00102614 0.00311217 0)
(0.000787003 0.00267504 0)
(0.00194329 0.00671046 0)
(-0.001704 0.00540732 0)
(-0.00142891 -7.53012e-05 0)
(0.000440286 -7.60329e-05 0)
(0.000128179 -0.000287797 0)
(0.00130771 -0.00147216 0)
(0.00155786 0.00211747 0)
(-0.000805228 0.00118269 0)
(-0.00121197 -0.00513776 0)
(0.00013458 -0.00585945 0)
(-2.12367e-05 -0.00426649 0)
(-0.000416656 -0.00286696 0)
(-0.000519774 -0.00182449 0)
(-0.000599759 -0.000502898 0)
(-0.000550014 0.000116874 0)
(-0.000480947 0.00103787 0)
(-0.000353503 0.0019006 0)
(-0.000374369 0.00304032 0)
(-0.000370989 0.00423228 0)
(7.60728e-05 0.00498982 0)
(0.000654563 0.00446729 0)
(0.00096637 0.00216918 0)
(0.0010368 -0.000593069 0)
(0.00161274 -0.00405344 0)
(0.00150969 -0.0086236 0)
(0.000762512 -0.00892255 0)
(0.000805213 -0.00372625 0)
(0.00185416 0.00018454 0)
(0.00193757 -0.00033639 0)
(0.00267943 0.00196354 0)
(-0.0018213 0.00314193 0)
(-0.00248194 0.00203743 0)
(0.000600355 0.00217527 0)
(0.00101982 -6.60402e-05 0)
(0.000696703 0.00350698 0)
(-0.000739573 0.0048718 0)
(-0.000572784 0.00186983 0)
(-0.00107893 0.00331195 0)
(-0.000871701 0.00548984 0)
(0.000314827 0.00735612 0)
(0.000165314 0.00756734 0)
(0.00206056 0.00619104 0)
(0.00155183 0.00561776 0)
(0.00067853 0.00208444 0)
(0.00287274 -0.000445742 0)
(0.00198437 -0.000673682 0)
(0.000482777 -0.00247629 0)
(-0.00018498 -0.00346546 0)
(-0.0010904 -0.00159125 0)
(-0.000907689 -0.00158881 0)
(-0.00120665 0.000400765 0)
(-0.000486331 0.000788866 0)
(-0.000421244 0.000552377 0)
(-0.00224574 0.0026565 0)
(0.00256935 0.00282736 0)
(0.000959204 0.000465925 0)
(0.000847425 -0.000884364 0)
(0.000352624 -0.00101511 0)
(0.0019327 -0.000301789 0)
(-0.00183673 0.00124715 0)
(-0.0020616 -0.000244065 0)
(0.00232456 -0.00165119 0)
(0.00228346 -0.00333841 0)
(3.47967e-05 -0.00611184 0)
(-0.000111618 -0.00625533 0)
(0.000373968 -0.00619902 0)
(-0.000479149 -0.00390895 0)
(-0.00171047 -0.00243207 0)
(-0.00226967 -0.0021857 0)
(-0.000830529 -0.00203186 0)
(0.000360925 -0.00282291 0)
(-0.00125975 -0.00387592 0)
(0.00146674 -0.00222095 0)
(0.00128062 -0.00122414 0)
(0.00247491 -0.00072309 0)
(0.0040465 -0.000291132 0)
(5.00626e-07 -0.00248162 0)
(0.000289094 -0.004595 0)
(0.00246897 -0.00635455 0)
(0.00183931 -0.00783048 0)
(0.00379151 -0.00801632 0)
(0.00398646 -0.00712201 0)
(3.31566e-05 -0.0077088 0)
(-0.00133209 -0.00968542 0)
(-0.000958887 -0.0101317 0)
(-0.00153365 -0.00960109 0)
(-0.00162373 -0.0093916 0)
(-0.00153486 -0.00903967 0)
(-0.00123304 -0.0086809 0)
(-0.00097089 -0.00831928 0)
(-0.00122867 -0.00762876 0)
(-0.00171387 -0.00659738 0)
(-0.0021742 -0.00542819 0)
(-0.00183725 -0.00427179 0)
(-0.000335028 -0.00357839 0)
(0.00201438 -0.00400515 0)
(0.00400792 -0.0056496 0)
(0.00525864 -0.00797648 0)
(0.0047039 -0.0102305 0)
(0.00338642 -0.0120904 0)
(0.000327925 -0.0101126 0)
(0.00119515 -0.00762222 0)
(0.00239805 -0.00769695 0)
(0.00178116 -0.00967701 0)
(0.00148117 -0.0104983 0)
(-3.26178e-05 -0.0108681 0)
(-0.000148436 -0.00841946 0)
(-8.80542e-05 -0.00751505 0)
(0.0002303 -0.010727 0)
(0.000843783 -0.00925649 0)
(-0.00325069 -0.0073822 0)
(-0.00318304 -0.00807523 0)
(-0.00126952 -0.00849705 0)
(-0.000247537 -0.00674302 0)
(2.21609e-05 -0.00828245 0)
(-2.40184e-05 -0.00783884 0)
(0.0013964 -0.00644037 0)
(0.00312789 -0.00725365 0)
(0.00326018 -0.00557966 0)
(0.00361091 -0.00643489 0)
(0.00306505 -0.00616414 0)
(0.000327877 -0.00610056 0)
(2.17168e-06 -0.00640782 0)
(-0.00196152 -0.00677654 0)
(-0.00220082 -0.00708922 0)
(-0.00125298 -0.00763553 0)
(-0.00305349 -0.00776874 0)
(0.00195915 -0.00861856 0)
(0.000255794 -0.00231957 0)
(0.00152104 -0.00417584 0)
(0.00257016 -0.00999741 0)
(0.00202737 -0.0126026 0)
(5.55676e-06 -0.0133722 0)
(-0.000457494 -0.0112599 0)
(-0.00110791 -0.0119579 0)
(7.17078e-05 -0.0074282 0)
(0.00257255 -0.00836555 0)
(0.0018267 -0.0118394 0)
(-7.90986e-06 -0.0103646 0)
(-0.00222725 -0.00696367 0)
(0.00109652 -0.00565117 0)
(-0.000117164 -0.00830593 0)
(-0.00230349 -0.00877361 0)
(-0.00247825 -0.00810782 0)
(0.000928857 -0.00739548 0)
(-0.000996596 -0.0123907 0)
(-0.00119383 -0.0152454 0)
(0.000144167 -0.0145077 0)
(0.000638047 -0.015508 0)
(0.00129448 -0.0127847 0)
(0.00487852 -0.0126658 0)
(0.0031438 -0.0134998 0)
(0.00259962 -0.0137768 0)
(0.00191809 -0.0137579 0)
(0.00186971 -0.0137278 0)
(0.00266835 -0.0126776 0)
(0.00262352 -0.0121633 0)
(0.00100192 -0.012426 0)
(-0.000358749 -0.0136452 0)
(-0.000651623 -0.0147818 0)
(-0.000980486 -0.0150416 0)
(-0.00137521 -0.014952 0)
(-0.00143243 -0.0149401 0)
(-0.00143082 -0.0149356 0)
(-0.0015788 -0.0146733 0)
(-0.00223777 -0.0141003 0)
(-0.00279662 -0.0135215 0)
(-0.00283996 -0.0131357 0)
(-0.00217462 -0.0128961 0)
(0.000200983 -0.0131338 0)
(0.00384373 -0.0133142 0)
(0.00530706 -0.0132323 0)
(0.00556012 -0.0127431 0)
(0.00418006 -0.0118279 0)
(0.00239096 -0.0131405 0)
(0.000119837 -0.0105378 0)
(0.00149119 -0.00974052 0)
(0.0024383 -0.0116668 0)
(0.0022491 -0.0152568 0)
(0.00127535 -0.015438 0)
(0.000962122 -0.014565 0)
(0.00268473 -0.0121025 0)
(-0.00133197 -0.0119327 0)
(-0.00320202 -0.0127461 0)
(-0.00273764 -0.0116442 0)
(-0.00223428 -0.010722 0)
(-0.00210178 -0.0102081 0)
(-0.00180964 -0.0104319 0)
(-0.000417879 -0.0105909 0)
(0.000638676 -0.0100916 0)
(0.000673538 -0.00887259 0)
(-0.000656622 -0.00781627 0)
(-0.000287754 -0.00851529 0)
(0.00261219 -0.00873903 0)
(0.00108482 -0.00756819 0)
(0.000978002 -0.00716608 0)
(0.000666725 -0.00654968 0)
(0.00027098 -0.00720099 0)
(-0.000721692 -0.00925363 0)
(-0.00068377 -0.0111163 0)
(0.00120618 -0.0131761 0)
(0.0016727 -0.0104008 0)
(0.00236361 -0.0109697 0)
(0.00502166 -0.0109286 0)
(-0.00113286 -0.00654767 0)
(0.000937406 -0.0102782 0)
(-0.0013127 -0.0128068 0)
(0.000387515 -0.0120736 0)
(-0.00146479 -0.0116676 0)
(-0.0015461 -0.0117634 0)
(0.000625396 -0.010399 0)
(-0.00217812 -0.0109533 0)
(0.000440921 -0.0121167 0)
(0.000506173 -0.0127035 0)
(0.000168867 -0.00783012 0)
(-0.000283162 -0.00702483 0)
(0.000100874 -0.0116481 0)
(-7.02219e-05 -0.0114881 0)
(0.00314303 -0.00758155 0)
(0.00258769 -0.00955571 0)
(0.000903618 -0.0148116 0)
(0.00221353 -0.014324 0)
(0.000895443 -0.0140255 0)
(-0.00100058 -0.0148081 0)
(0.00172133 -0.0109197 0)
(0.00158907 -0.0105261 0)
(0.00168203 -0.0139529 0)
(0.000899214 -0.0122963 0)
(0.000732081 -0.0117108 0)
(0.00146678 -0.0113306 0)
(0.00226483 -0.0111677 0)
(0.00261198 -0.0110981 0)
(0.0022977 -0.0116394 0)
(0.00139232 -0.0127594 0)
(0.000188367 -0.0141564 0)
(-0.00114394 -0.0149919 0)
(-0.00147343 -0.0154633 0)
(-0.0013315 -0.0159594 0)
(-0.00120476 -0.0163995 0)
(-0.00151922 -0.0165621 0)
(-0.00237506 -0.0162094 0)
(-0.00283599 -0.0157746 0)
(-0.00280558 -0.0155909 0)
(-0.00200849 -0.0157437 0)
(0.000103001 -0.0164009 0)
(0.00273682 -0.0160882 0)
(0.0042342 -0.0148274 0)
(0.00403696 -0.013059 0)
(0.00309489 -0.0121919 0)
(0.00159245 -0.0132912 0)
(-0.000328543 -0.0109808 0)
(0.00132552 -0.0140679 0)
(0.000773972 -0.0131081 0)
(0.00029084 -0.0137851 0)
(6.07195e-05 -0.0138543 0)
(0.0010163 -0.0126067 0)
(-0.000337132 -0.0128053 0)
(-0.00232172 -0.0125475 0)
(-0.00312249 -0.0115496 0)
(-0.00143104 -0.00953542 0)
(-0.00286837 -0.00994248 0)
(-0.00289276 -0.0130438 0)
(-0.00221379 -0.0126836 0)
(-0.00153955 -0.00848485 0)
(5.25623e-05 -0.00957821 0)
(-0.000169505 -0.0124029 0)
(0.000296061 -0.0116656 0)
(-0.000619389 -0.00885266 0)
(0.0033361 -0.00712401 0)
(0.00115622 -0.00974898 0)
(0.00280421 -0.00916778 0)
(0.0012803 -0.0106302 0)
(0.000251626 -0.0113018 0)
(8.0796e-05 -0.0109462 0)
(-0.00131278 -0.00961753 0)
(0.00221499 -0.0117355 0)
(0.00396406 -0.0133382 0)
(0.00129782 -0.0118632 0)
(0.00273669 -0.0105563 0)
(-0.00133536 -0.00929834 0)
(-0.00167459 -0.00954711 0)
(-0.00195903 -0.0103199 0)
(0.000215537 -0.00832111 0)
(-0.000944445 -0.00820335 0)
(-0.00264044 -0.00700602 0)
(-0.000671739 -0.00782938 0)
(0.000584243 -0.0113632 0)
(0.00328211 -0.0127282 0)
(0.0011603 -0.0141817 0)
(0.000784293 -0.0118437 0)
(-0.00240443 -0.0100853 0)
(-0.000356264 -0.0120459 0)
(0.00126948 -0.00903769 0)
(0.00239687 -0.00739293 0)
(-0.000384604 -0.0107985 0)
(-0.00115059 -0.0118247 0)
(-0.000747457 -0.00903174 0)
(0.00432983 -0.00864424 0)
(0.00289522 -0.00601905 0)
(0.00326093 -0.00457931 0)
(-0.00189318 -0.00850962 0)
(0.000338731 -0.0104512 0)
(0.00052186 -0.0107092 0)
(0.00105309 -0.0106419 0)
(0.00148714 -0.0106841 0)
(0.00234781 -0.0105397 0)
(0.00289565 -0.0105796 0)
(0.00289064 -0.011087 0)
(0.00238676 -0.0117701 0)
(0.00155484 -0.0129195 0)
(0.000301413 -0.0142349 0)
(-0.000622508 -0.0156673 0)
(-0.000735416 -0.0167939 0)
(-0.000814871 -0.0171501 0)
(-0.00169881 -0.0170412 0)
(-0.0030365 -0.0162889 0)
(-0.00338383 -0.0158943 0)
(-0.00311577 -0.0155322 0)
(-0.00176073 -0.0155563 0)
(0.000342877 -0.0159902 0)
(0.00208669 -0.0157671 0)
(0.00279489 -0.014298 0)
(0.00256715 -0.0126427 0)
(0.00215138 -0.0120143 0)
(0.00127937 -0.0131202 0)
(-0.000346624 -0.0113484 0)
(0.000669334 -0.0152275 0)
(-0.000444759 -0.0137008 0)
(-0.000554333 -0.0145561 0)
(0.000363095 -0.0115872 0)
(-0.000702367 -0.0114909 0)
(0.000297329 -0.0123194 0)
(-0.000754154 -0.0116855 0)
(-0.00159838 -0.00987754 0)
(-0.00179127 -0.0089976 0)
(-0.00434482 -0.00941156 0)
(-0.00178104 -0.00791861 0)
(-0.00204419 -0.00839408 0)
(0.000204144 -0.00864733 0)
(-0.000596793 -0.0106148 0)
(-0.000581962 -0.0114752 0)
(0.000141528 -0.0105724 0)
(0.00128876 -0.00723343 0)
(-0.000889711 -0.0084819 0)
(-0.000826288 -0.0101246 0)
(0.00266301 -0.0094912 0)
(0.00141936 -0.012806 0)
(7.89415e-05 -0.0119969 0)
(0.00419151 -0.0134991 0)
(0.00182985 -0.0110419 0)
(0.00023792 -0.0107778 0)
(0.00154919 -0.0135684 0)
(0.000977319 -0.0124609 0)
(0.00069164 -0.0127972 0)
(-0.00029105 -0.0105694 0)
(-0.00157472 -0.00985107 0)
(-0.00082742 -0.00982052 0)
(-2.62637e-05 -0.00870502 0)
(-0.000587405 -0.0121471 0)
(2.82208e-05 -0.00899605 0)
(-0.000981499 -0.00625456 0)
(0.00079861 -0.00725072 0)
(0.00240377 -0.0120745 0)
(0.00151092 -0.0163968 0)
(0.0014899 -0.0115948 0)
(0.000644612 -0.00845764 0)
(0.000724324 -0.00817046 0)
(0.00138148 -0.00912827 0)
(-0.00305527 -0.0107812 0)
(-0.000370663 -0.0138314 0)
(-0.000533529 -0.0155719 0)
(-7.03993e-05 -0.0101406 0)
(0.00267136 -0.00985207 0)
(0.00380239 -0.0117675 0)
(0.000585103 -0.00950368 0)
(-0.00155613 -0.00823449 0)
(0.000322695 -0.00825313 0)
(0.00081252 -0.0101679 0)
(0.00106584 -0.00967979 0)
(0.00131615 -0.00977126 0)
(0.00247746 -0.010144 0)
(0.0032687 -0.010134 0)
(0.00342644 -0.0104445 0)
(0.00312845 -0.0108358 0)
(0.00249325 -0.0113124 0)
(0.00162622 -0.0121215 0)
(0.000852415 -0.0133493 0)
(0.000197305 -0.0145639 0)
(-0.000823133 -0.0152737 0)
(-0.00259989 -0.014926 0)
(-0.00360373 -0.0142744 0)
(-0.00371382 -0.0141533 0)
(-0.00320639 -0.0141712 0)
(-0.00162754 -0.0145864 0)
(0.000280637 -0.0148975 0)
(0.00138799 -0.0144622 0)
(0.00175471 -0.013342 0)
(0.00173787 -0.0123023 0)
(0.00150993 -0.0118998 0)
(0.000911318 -0.0132526 0)
(-0.000233021 -0.0115131 0)
(0.000657508 -0.0128434 0)
(-0.001746 -0.0126896 0)
(-0.000589796 -0.0113197 0)
(0.000118193 -0.0123445 0)
(-0.000856921 -0.0110138 0)
(-0.00111818 -0.0107302 0)
(-0.00219838 -0.0122873 0)
(-0.00258489 -0.00972223 0)
(-0.00374328 -0.00896456 0)
(-0.00219946 -0.00644102 0)
(-0.00285025 -0.00736322 0)
(-0.00103712 -0.00732388 0)
(0.00166484 -0.00552214 0)
(0.000712956 -0.0102422 0)
(-0.000944964 -0.0127814 0)
(0.00219871 -0.0128809 0)
(0.00224972 -0.0141095 0)
(-0.000630584 -0.0152413 0)
(0.00200484 -0.0127574 0)
(0.00258109 -0.0131536 0)
(0.00197852 -0.0182988 0)
(0.00095238 -0.012697 0)
(0.00253595 -0.0119389 0)
(0.00301493 -0.0150082 0)
(-0.00084965 -0.01313 0)
(0.000438334 -0.0130363 0)
(-0.000392784 -0.013436 0)
(-0.000404734 -0.0135269 0)
(0.000635029 -0.0133263 0)
(-0.001246 -0.0120169 0)
(-0.000452337 -0.0117871 0)
(-0.000761532 -0.0119296 0)
(0.000707596 -0.0125444 0)
(0.00386909 -0.0109308 0)
(0.00157302 -0.00974451 0)
(0.00203293 -0.00964689 0)
(0.000411099 -0.0121942 0)
(0.00246112 -0.0137369 0)
(0.00363683 -0.0109811 0)
(0.00138847 -0.010062 0)
(-5.8056e-05 -0.0114854 0)
(-0.00104757 -0.0141098 0)
(-0.00185846 -0.0108945 0)
(-0.00042769 -0.0116205 0)
(0.00121221 -0.0170968 0)
(0.00191895 -0.0153709 0)
(-0.00281671 -0.0141841 0)
(-0.00151648 -0.0148488 0)
(-0.00078473 -0.014049 0)
(-0.00044242 -0.0119727 0)
(-0.000355914 -0.0108398 0)
(0.000559961 -0.0123946 0)
(0.00126346 -0.0122031 0)
(0.00201053 -0.0120152 0)
(0.00273555 -0.0115443 0)
(0.00338637 -0.0110769 0)
(0.00355843 -0.0108623 0)
(0.00337437 -0.0107698 0)
(0.00294414 -0.0107175 0)
(0.00246092 -0.0109338 0)
(0.00191945 -0.011378 0)
(0.00115561 -0.011912 0)
(-0.000369978 -0.0121766 0)
(-0.00256071 -0.0120755 0)
(-0.00340271 -0.0121694 0)
(-0.00345706 -0.0124885 0)
(-0.00274545 -0.0130297 0)
(-0.00123733 -0.0137585 0)
(5.63662e-05 -0.0140644 0)
(0.000785114 -0.0136117 0)
(0.00112966 -0.0128227 0)
(0.00117337 -0.0121635 0)
(0.00107857 -0.0119173 0)
(0.000706228 -0.0134515 0)
(-0.00016182 -0.0116286 0)
(-0.000912987 -0.0109136 0)
(-0.00229551 -0.0108942 0)
(-0.00116114 -0.0098024 0)
(0.000764783 -0.0105133 0)
(0.000549228 -0.0124199 0)
(-0.00213845 -0.0137217 0)
(-0.00166583 -0.0135419 0)
(-0.00125132 -0.0118166 0)
(-0.00186567 -0.0118287 0)
(0.00187812 -0.0140163 0)
(-0.00083714 -0.0102716 0)
(0.00254727 -0.00764808 0)
(0.00051303 -0.0109932 0)
(-0.00225774 -0.0163742 0)
(-7.96123e-05 -0.0148409 0)
(-0.00070619 -0.0150021 0)
(0.00105246 -0.0201676 0)
(0.00109762 -0.0187314 0)
(0.00197322 -0.0172538 0)
(-0.000793851 -0.0176917 0)
(0.00121441 -0.018492 0)
(0.00284954 -0.014642 0)
(-0.000791647 -0.0129877 0)
(0.00107723 -0.0150711 0)
(0.000640972 -0.0149148 0)
(3.46153e-06 -0.0149657 0)
(0.000605106 -0.0155009 0)
(-0.00082868 -0.0150004 0)
(0.000703785 -0.015029 0)
(-0.000306599 -0.0145378 0)
(-0.00224701 -0.013209 0)
(0.000541885 -0.0130349 0)
(0.000352134 -0.0126483 0)
(0.00290706 -0.0125155 0)
(-0.000758211 -0.0109037 0)
(0.00222023 -0.00939674 0)
(0.0030088 -0.0113409 0)
(0.00237638 -0.0123259 0)
(0.00261212 -0.0126383 0)
(0.000112467 -0.0122558 0)
(0.000949633 -0.0111806 0)
(0.000806696 -0.0113938 0)
(0.00163544 -0.0121464 0)
(-0.00112415 -0.013634 0)
(-0.000371595 -0.0156682 0)
(-0.00013567 -0.0152867 0)
(5.91793e-05 -0.0150508 0)
(2.76368e-05 -0.0162708 0)
(-0.00102402 -0.0169235 0)
(-0.00139331 -0.016112 0)
(0.000947014 -0.0157042 0)
(-0.000197429 -0.0166127 0)
(0.00055753 -0.0163853 0)
(0.000956585 -0.0158012 0)
(0.00136838 -0.0150491 0)
(0.00229296 -0.0139911 0)
(0.00300179 -0.0128211 0)
(0.00298879 -0.0119256 0)
(0.00263868 -0.0110956 0)
(0.00232345 -0.0108071 0)
(0.00183654 -0.0106905 0)
(0.000930478 -0.0107917 0)
(-0.000626329 -0.0108443 0)
(-0.00241356 -0.0111416 0)
(-0.00303964 -0.0115915 0)
(-0.00292404 -0.0120834 0)
(-0.00199811 -0.0126592 0)
(-0.000694751 -0.0132214 0)
(2.40106e-05 -0.0133585 0)
(0.000488782 -0.0130606 0)
(0.000808952 -0.0125238 0)
(0.000861512 -0.0120658 0)
(0.000814394 -0.0119239 0)
(0.000546968 -0.0135918 0)
(-0.000120073 -0.0117263 0)
(0.00032471 -0.0136629 0)
(0.000522879 -0.0124115 0)
(-0.000595191 -0.0082818 0)
(0.000504661 -0.0108786 0)
(-0.00198487 -0.0153157 0)
(-0.00300399 -0.0153862 0)
(0.00047776 -0.0154992 0)
(-0.00212588 -0.0165388 0)
(-0.0040996 -0.0158217 0)
(0.00151608 -0.0155694 0)
(0.00291716 -0.0165364 0)
(0.000784254 -0.0148876 0)
(-0.00113641 -0.0168663 0)
(-0.000430368 -0.0178095 0)
(0.00242125 -0.0172737 0)
(-0.000296273 -0.0178289 0)
(0.00098171 -0.0190456 0)
(0.00077971 -0.0199963 0)
(2.71597e-05 -0.0184396 0)
(-0.00130322 -0.0183301 0)
(0.000678506 -0.0178369 0)
(0.00152284 -0.0167393 0)
(-0.000910812 -0.0149722 0)
(0.00194785 -0.0144924 0)
(0.00043356 -0.0154809 0)
(-0.000407525 -0.0166813 0)
(0.000472119 -0.0175714 0)
(0.000638911 -0.017862 0)
(-0.000790433 -0.0172151 0)
(0.000642992 -0.0191361 0)
(-0.00104603 -0.0156544 0)
(-0.00254117 -0.0130603 0)
(0.000573349 -0.0122524 0)
(0.0011936 -0.0144279 0)
(0.000519539 -0.0131897 0)
(0.00207569 -0.00780124 0)
(0.00143889 -0.0136713 0)
(0.00066029 -0.0162179 0)
(0.000363958 -0.0149319 0)
(-0.000584179 -0.0127942 0)
(0.00305742 -0.0116026 0)
(0.000975897 -0.0132601 0)
(-0.000604574 -0.0117227 0)
(0.00122295 -0.0114617 0)
(0.000704275 -0.0134431 0)
(0.000247548 -0.0117847 0)
(0.000283129 -0.0110173 0)
(-0.00118152 -0.0125774 0)
(-0.00249058 -0.0120815 0)
(0.000906724 -0.00848444 0)
(-0.000173441 -0.00957249 0)
(0.000281736 -0.0144722 0)
(0.00091453 -0.0133613 0)
(0.00118113 -0.0139232 0)
(0.00137439 -0.0141513 0)
(0.00149687 -0.0140182 0)
(0.00158533 -0.0132778 0)
(0.00170234 -0.0120714 0)
(0.0018179 -0.0108367 0)
(0.00199043 -0.0102307 0)
(0.00176848 -0.00988819 0)
(0.0011372 -0.0099303 0)
(-8.17843e-05 -0.0104008 0)
(-0.00187547 -0.0112779 0)
(-0.00253389 -0.0117372 0)
(-0.00249393 -0.012018 0)
(-0.00170371 -0.012424 0)
(-0.000624183 -0.0128289 0)
(-0.00014716 -0.0130354 0)
(0.000226414 -0.0128788 0)
(0.000521888 -0.0124505 0)
(0.000582022 -0.0120784 0)
(0.000589567 -0.0119867 0)
(0.000399154 -0.0137098 0)
(-8.06263e-05 -0.0118015 0)
(-5.65603e-05 -0.0112839 0)
(0.00471869 -0.0116926 0)
(-0.000974855 -0.00985214 0)
(-0.000332499 -0.0119376 0)
(-0.00155926 -0.0177863 0)
(0.000147594 -0.0141217 0)
(4.05372e-05 -0.0166907 0)
(-0.00194721 -0.0212385 0)
(-0.00196248 -0.0136987 0)
(-0.000833894 -0.0145418 0)
(0.00143907 -0.0196172 0)
(-0.000173477 -0.0203301 0)
(2.32209e-05 -0.020108 0)
(0.000532126 -0.0187047 0)
(0.00054402 -0.0175167 0)
(0.00116481 -0.0167433 0)
(-0.0001941 -0.0165815 0)
(-0.000250341 -0.0187111 0)
(0.000140783 -0.0196264 0)
(-1.95265e-06 -0.018484 0)
(0.000513147 -0.0188538 0)
(0.000684226 -0.0187327 0)
(0.00116571 -0.013348 0)
(0.00130942 -0.0132697 0)
(0.000967459 -0.0171701 0)
(0.000803625 -0.0156622 0)
(0.00131147 -0.0158286 0)
(0.00115439 -0.0167347 0)
(0.000317814 -0.0151207 0)
(0.00202241 -0.0144786 0)
(0.00131955 -0.0176173 0)
(-0.00216616 -0.0143025 0)
(7.93687e-05 -0.0129504 0)
(-0.000781879 -0.01595 0)
(0.000278907 -0.0138687 0)
(0.00146124 -0.0107193 0)
(-0.00128217 -0.0141641 0)
(0.00033443 -0.0142873 0)
(0.000262878 -0.0140735 0)
(0.00110846 -0.00985689 0)
(0.000109512 -0.00981067 0)
(0.000345249 -0.01328 0)
(0.000129011 -0.00820532 0)
(-0.000817599 -0.00795684 0)
(-0.000320443 -0.0117947 0)
(0.000448135 -0.0101687 0)
(-0.00144136 -0.010324 0)
(-0.000711564 -0.0118906 0)
(3.77689e-05 -0.0072487 0)
(0.00171216 -0.00773352 0)
(-0.00365221 -0.012031 0)
(0.00148272 -0.0123133 0)
(0.00128268 -0.0133662 0)
(0.00156896 -0.0133871 0)
(0.00144814 -0.0131675 0)
(0.00124404 -0.0127584 0)
(0.000890721 -0.0120212 0)
(0.00067647 -0.0107825 0)
(0.000705548 -0.00949251 0)
(0.00137065 -0.00849996 0)
(0.00156538 -0.00776435 0)
(0.00141372 -0.00759377 0)
(0.000674282 -0.00781104 0)
(-0.000966899 -0.00865759 0)
(-0.00218661 -0.00970552 0)
(-0.0022576 -0.010525 0)
(-0.00128681 -0.0114561 0)
(-0.000245054 -0.0120765 0)
(4.67557e-05 -0.0124343 0)
(0.000167853 -0.0125432 0)
(0.00043292 -0.0123156 0)
(0.000438589 -0.0119693 0)
(0.000433226 -0.0120041 0)
(0.000288389 -0.0137805 0)
(-6.05961e-05 -0.0118599 0)
(0.00221471 -0.00918848 0)
(0.00227034 -0.00965275 0)
(0.00229996 -0.00902011 0)
(-0.000703671 -0.00814994 0)
(-0.000309092 -0.0131314 0)
(0.000546394 -0.0126679 0)
(-0.00127349 -0.0167332 0)
(0.000716609 -0.0179327 0)
(0.000451597 -0.0127448 0)
(-0.00158247 -0.0116696 0)
(-0.00173013 -0.017803 0)
(-0.00376503 -0.0209471 0)
(-0.000528672 -0.0200307 0)
(-7.70785e-06 -0.0194623 0)
(-0.0019446 -0.0172512 0)
(0.00205937 -0.0172618 0)
(0.00324774 -0.018273 0)
(0.00266952 -0.0182148 0)
(0.00148121 -0.019194 0)
(0.000244314 -0.0197279 0)
(0.000906312 -0.0192819 0)
(-0.000377168 -0.0181384 0)
(0.00211151 -0.0153053 0)
(-0.00214961 -0.014389 0)
(-0.000776843 -0.0146653 0)
(-0.000210612 -0.0134386 0)
(0.00115632 -0.0136515 0)
(0.00104931 -0.0133817 0)
(0.00192226 -0.00992774 0)
(-0.000646975 -0.0101781 0)
(0.000824045 -0.0137063 0)
(0.00122519 -0.0123066 0)
(1.42305e-05 -0.0111945 0)
(-0.000661679 -0.0149646 0)
(0.000931519 -0.012221 0)
(-0.000358627 -0.0113171 0)
(-0.00144036 -0.0157079 0)
(-0.000681625 -0.0145878 0)
(0.000544017 -0.0128686 0)
(0.00155202 -0.0107356 0)
(-0.00176743 -0.00996419 0)
(2.8558e-05 -0.0103953 0)
(0.00101397 -0.00983434 0)
(-0.00216342 -0.00920139 0)
(-0.000476366 -0.00875071 0)
(0.000260646 -0.00938327 0)
(-0.000642926 -0.00850533 0)
(-0.00115477 -0.00663536 0)
(0.00345777 -0.00645486 0)
(-0.000631025 -0.00886298 0)
(0.000351653 -0.00821949 0)
(0.00060229 -0.00965596 0)
(0.000747933 -0.0143781 0)
(0.00092527 -0.0139668 0)
(0.000806244 -0.0135256 0)
(0.000134776 -0.0127504 0)
(-0.000241743 -0.0117346 0)
(-0.000558276 -0.0105413 0)
(-0.000615766 -0.00945875 0)
(5.8216e-05 -0.00830979 0)
(0.000862375 -0.00713339 0)
(0.0012737 -0.00647911 0)
(0.00109221 -0.0062724 0)
(0.000396281 -0.00669484 0)
(-0.000472965 -0.00801066 0)
(-0.000740722 -0.00986663 0)
(-0.000257555 -0.0115605 0)
(0.000251141 -0.0121732 0)
(0.000321881 -0.0124817 0)
(0.000290968 -0.0125941 0)
(0.000304437 -0.0123773 0)
(0.000310753 -0.012003 0)
(0.00027394 -0.012031 0)
(0.000207084 -0.013843 0)
(-4.21699e-05 -0.0119021 0)
(0.00262632 -0.0140438 0)
(0.00124156 -0.012422 0)
(0.00330289 -0.0115983 0)
(-0.000299376 -0.0110405 0)
(0.00175968 -0.0120535 0)
(0.000502268 -0.0106498 0)
(0.00100639 -0.0107892 0)
(0.00329097 -0.0122849 0)
(0.00427119 -0.00768095 0)
(0.00125246 -0.00722864 0)
(-0.00191633 -0.0130686 0)
(-0.00178177 -0.0111286 0)
(-0.00106049 -0.0112321 0)
(0.000804508 -0.0172625 0)
(0.000102612 -0.0140352 0)
(-0.00177992 -0.0116697 0)
(0.000725117 -0.0150441 0)
(0.00111368 -0.0163622 0)
(-0.000522452 -0.0162824 0)
(-0.000472491 -0.0128912 0)
(0.00077437 -0.0148389 0)
(-0.00184301 -0.0143524 0)
(2.52131e-05 -0.0127824 0)
(-0.00289615 -0.0140608 0)
(-0.000611573 -0.01253 0)
(-0.000730207 -0.0123562 0)
(0.000997609 -0.0117716 0)
(0.00187107 -0.011797 0)
(0.00208245 -0.0107785 0)
(-0.000704489 -0.00937528 0)
(0.000864706 -0.010609 0)
(0.00211958 -0.0109614 0)
(0.000994991 -0.0100818 0)
(0.00111739 -0.0120963 0)
(0.00348477 -0.0109201 0)
(-0.00183878 -0.0115571 0)
(-0.00321209 -0.0137554 0)
(-0.00231766 -0.0123979 0)
(-0.000184646 -0.0120762 0)
(-0.000252572 -0.0116186 0)
(-0.00129448 -0.0105088 0)
(-0.000228184 -0.011044 0)
(-0.000522089 -0.0113831 0)
(-0.00145192 -0.010655 0)
(-0.00244003 -0.0107609 0)
(-0.00359321 -0.0101965 0)
(8.56106e-05 -0.011768 0)
(-0.00029563 -0.00889874 0)
(0.00112571 -0.00953585 0)
(0.00176911 -0.0138917 0)
(0.00378952 -0.013524 0)
(0.000424949 -0.0141514 0)
(0.00161656 -0.0146742 0)
(0.00113225 -0.0144843 0)
(0.000416979 -0.0137114 0)
(-0.00043337 -0.012521 0)
(-0.00121447 -0.0106273 0)
(-0.0015667 -0.00967456 0)
(-0.00134439 -0.00871208 0)
(-0.00094257 -0.00790579 0)
(-0.000291966 -0.00728121 0)
(0.000433628 -0.00703391 0)
(0.000785695 -0.00721002 0)
(0.000890917 -0.00791749 0)
(0.000990265 -0.00925976 0)
(0.00106809 -0.0109404 0)
(0.00089986 -0.011869 0)
(0.000706859 -0.0122193 0)
(0.000487195 -0.0124044 0)
(0.000329884 -0.0124738 0)
(0.000207952 -0.0122379 0)
(0.000210276 -0.0119303 0)
(0.000147528 -0.0120402 0)
(0.000143016 -0.0138657 0)
(-2.73985e-05 -0.0119357 0)
(0.00169144 -0.0117852 0)
(0.000627432 -0.010249 0)
(0.000209183 -0.0115752 0)
(-0.000682181 -0.00979156 0)
(-1.71604e-05 -0.00840162 0)
(-5.07683e-05 -0.00830712 0)
(-0.00123205 -0.00729425 0)
(-0.000234623 -0.00589945 0)
(0.00124601 -0.0023025 0)
(0.000814499 -1.67166e-05 0)
(-0.000780198 0.000202525 0)
(0.00181151 0.000942521 0)
(-0.00222565 0.00214102 0)
(0.00127934 0.00131113 0)
(0.00309185 9.58243e-05 0)
(-0.00171332 0.00314513 0)
(0.000271931 0.00127713 0)
(0.00205886 -0.00628531 0)
(0.000472552 -0.00840265 0)
(0.00260114 -0.00730265 0)
(0.000135323 -0.0118199 0)
(-0.00133569 -0.0138218 0)
(-0.00170096 -0.0134231 0)
(-0.00145093 -0.0150472 0)
(-0.00263174 -0.0137054 0)
(-0.00337728 -0.0133103 0)
(0.00233346 -0.011949 0)
(0.000546751 -0.0124474 0)
(0.000616766 -0.0118167 0)
(5.84364e-05 -0.0109757 0)
(-0.000382146 -0.0111101 0)
(0.000757173 -0.011827 0)
(0.00209553 -0.0111764 0)
(0.00214787 -0.0117133 0)
(0.00302294 -0.0131464 0)
(-0.00111384 -0.0134772 0)
(-0.0032274 -0.0119145 0)
(-0.0011465 -0.00944513 0)
(-0.000175398 -0.00992771 0)
(0.000260936 -0.0121249 0)
(-0.00010225 -0.0108447 0)
(-0.00177113 -0.00911877 0)
(-0.000959039 -0.00807515 0)
(0.00121383 -0.00716842 0)
(0.000299275 -0.00840909 0)
(0.00066531 -0.00562234 0)
(0.00161514 -0.00749925 0)
(0.00291582 -0.0125267 0)
(-0.000262167 -0.0148405 0)
(0.0010176 -0.0170689 0)
(0.00196337 -0.017 0)
(0.000902658 -0.0166191 0)
(0.00020881 -0.0157933 0)
(-0.000941089 -0.0148272 0)
(-0.00183089 -0.0135924 0)
(-0.0024984 -0.0125907 0)
(-0.00311917 -0.011198 0)
(-0.0030721 -0.0102773 0)
(-0.00242602 -0.00944076 0)
(-0.00151899 -0.00896113 0)
(1.73448e-06 -0.00840509 0)
(0.00124467 -0.00871882 0)
(0.00203387 -0.00954016 0)
(0.00250493 -0.0107434 0)
(0.00246454 -0.0118245 0)
(0.00159927 -0.0124663 0)
(0.000962572 -0.0125911 0)
(0.000662799 -0.0124898 0)
(0.000492016 -0.0125014 0)
(0.000309184 -0.0125056 0)
(0.000165594 -0.0122425 0)
(0.000143998 -0.0119534 0)
(4.80689e-05 -0.0120702 0)
(8.07805e-05 -0.0139079 0)
(-1.5406e-05 -0.011957 0)
(0.00213867 -0.014325 0)
(0.000303907 -0.0140755 0)
(0.000634247 -0.0136056 0)
(-0.000278955 -0.0129947 0)
(-0.000836031 -0.0128726 0)
(-0.00222932 -0.0131485 0)
(-0.00261334 -0.013679 0)
(-0.00200872 -0.0132969 0)
(-0.000162548 -0.0109158 0)
(-0.000100559 -0.0111958 0)
(-0.000133046 -0.0121559 0)
(0.000531044 -0.0108374 0)
(-0.00156446 -0.00765204 0)
(-0.00189893 -0.00710573 0)
(0.00316499 -0.0109547 0)
(0.00246029 -0.00832292 0)
(0.00280402 -0.00449308 0)
(0.00297711 -0.0100714 0)
(0.00295684 -0.00985835 0)
(0.00350775 -0.00799423 0)
(0.00174881 -0.0142755 0)
(0.00224547 -0.0132402 0)
(-0.000679605 -0.0122478 0)
(-0.000899777 -0.0147337 0)
(-0.00348566 -0.0151692 0)
(-0.00391887 -0.008271 0)
(-5.85802e-05 -0.00829298 0)
(0.000737606 -0.0137911 0)
(-7.07085e-05 -0.0116198 0)
(-0.00258243 -0.0099341 0)
(8.92499e-05 -0.0102975 0)
(0.000853437 -0.0111227 0)
(0.00527982 -0.0113434 0)
(0.00258407 -0.0114092 0)
(0.00151104 -0.0122366 0)
(-0.000676268 -0.0144288 0)
(-0.00150431 -0.0104625 0)
(-0.00188702 -0.00601048 0)
(-0.00171573 -0.00966957 0)
(-0.0016669 -0.0128589 0)
(-0.00118834 -0.0144392 0)
(-0.00207466 -0.0136883 0)
(-0.00282987 -0.00837926 0)
(-0.00151175 -0.00805138 0)
(-0.0022568 -0.00759115 0)
(0.00366606 -0.00440476 0)
(0.00170829 -0.00484879 0)
(0.0027642 -0.00618069 0)
(0.00254637 -0.00792342 0)
(0.00321342 -0.00875633 0)
(0.00192396 -0.0101227 0)
(0.000890766 -0.0110576 0)
(-0.000188245 -0.0106315 0)
(-0.00110487 -0.0108093 0)
(-0.00198111 -0.01113 0)
(-0.00271389 -0.0122345 0)
(-0.00314727 -0.012714 0)
(-0.00306042 -0.0131608 0)
(-0.00278672 -0.0132755 0)
(-0.0020182 -0.0131629 0)
(-0.00053462 -0.0127263 0)
(0.001602 -0.0122502 0)
(0.00281548 -0.0123685 0)
(0.00306587 -0.0126117 0)
(0.00282798 -0.0127263 0)
(0.00174167 -0.0126934 0)
(0.00089486 -0.012566 0)
(0.000636938 -0.0124497 0)
(0.000494497 -0.0124525 0)
(0.000319225 -0.0124371 0)
(0.000122752 -0.0121548 0)
(9.03981e-05 -0.0118821 0)
(-3.08739e-05 -0.0120442 0)
(3.30224e-05 -0.0139083 0)
(-6.21599e-06 -0.0119687 0)
(-0.00172374 -0.0144537 0)
(-0.000443906 -0.013581 0)
(-0.000566754 -0.0126289 0)
(-0.000572983 -0.0104816 0)
(-0.000884207 -0.0104218 0)
(-0.00079792 -0.0125635 0)
(-0.00171972 -0.0125548 0)
(-0.00182953 -0.012454 0)
(0.000622364 -0.0130025 0)
(7.02856e-05 -0.0151991 0)
(0.00219556 -0.0150095 0)
(0.00166949 -0.0155317 0)
(0.00157109 -0.0148916 0)
(-0.00207917 -0.0104114 0)
(0.0016795 -0.0130877 0)
(0.00186639 -0.0124561 0)
(0.00164449 -0.0104855 0)
(-0.000346859 -0.013771 0)
(0.00256426 -0.0115893 0)
(0.000799584 -0.00804793 0)
(0.000576597 -0.00979149 0)
(0.00209784 -0.0108315 0)
(-0.00116651 -0.00892638 0)
(-0.00154132 -0.00932143 0)
(-0.00345832 -0.00889501 0)
(-2.82334e-06 -0.00413208 0)
(-0.00162414 -0.00435161 0)
(0.000755637 -0.0116262 0)
(-4.12152e-06 -0.0150115 0)
(-6.32605e-05 -0.0113234 0)
(-0.00218433 -0.00850261 0)
(0.00165165 -0.00723673 0)
(0.00431216 -0.00919175 0)
(0.00182816 -0.0130092 0)
(-3.49162e-05 -0.0116509 0)
(-0.000599989 -0.0109418 0)
(0.00181825 -0.00875437 0)
(0.000675399 -0.00845471 0)