/*--------------------------------*- C++ -*----------------------------------*\
  =========                 |
  \\      /  F ield         | OpenFOAM: The Open Source CFD Toolbox
   \\    /   O peration     | Website:  https://openfoam.org
    \\  /    A nd           | Version:  12
     \\/     M anipulation  |
\*---------------------------------------------------------------------------*/
FoamFile
{
    format      ascii;
    class       volVectorField::Internal;
    location    "0.1";
    object      cloud:UTrans;
}
// * * * * * * * * * * * * * * * * * * * * * * * * * * * * * * * * * * * * * //

dimensions      [1 1 -1 0 0 0 0];

value           nonuniform List<vector> 
3750
(
(2.01057e-10 -5.36917e-09 0)
(-2.73833e-11 -2.51536e-09 0)
(-3.93343e-11 -7.4779e-10 0)
(-4.60096e-11 -8.45973e-10 0)
(-8.31806e-11 -1.97483e-09 0)
(1.36447e-11 -2.02129e-09 0)
(1.931e-10 -2.51781e-09 0)
(5.3464e-11 -2.47605e-09 0)
(-2.69904e-11 -1.91263e-09 0)
(-1.43816e-10 -2.0718e-09 0)
(-1.42856e-10 -2.25471e-09 0)
(1.66177e-11 -2.96767e-09 0)
(6.16318e-11 -2.84416e-09 0)
(2.97711e-10 -2.4937e-09 0)
(1.73711e-10 -2.21713e-09 0)
(1.76033e-10 -2.12508e-09 0)
(-1.02781e-11 -2.59829e-09 0)
(4.62858e-11 -2.46075e-09 0)
(-3.83635e-11 -2.07228e-09 0)
(-7.25477e-11 -5.1414e-09 0)
(0 0 0)
(-1.03976e-10 -1.91459e-09 0)
(-1.32121e-10 -2.00982e-09 0)
(1.29082e-10 -2.23789e-09 0)
(8.15546e-11 -2.14561e-09 0)
(2.72915e-10 -4.7805e-09 0)
(-8.93811e-12 -2.28787e-09 0)
(-1.3156e-10 -2.48224e-09 0)
(-1.69364e-10 -2.38778e-09 0)
(-1.86877e-10 -2.52439e-09 0)
(-3.19389e-11 -2.60697e-09 0)
(0 0 0)
(2.19982e-11 -1.93472e-09 0)
(1.09517e-10 -1.82824e-09 0)
(6.69091e-11 -1.86952e-09 0)
(1.6105e-10 -3.09876e-09 0)
(1.0416e-10 -3.22701e-09 0)
(1.11534e-10 -2.39494e-09 0)
(-5.22311e-12 -2.37141e-09 0)
(4.49503e-11 -2.48513e-09 0)
(-1.59094e-12 -2.47e-09 0)
(-8.77688e-11 -2.32295e-09 0)
(-1.34356e-10 -2.38572e-09 0)
(-6.07078e-11 -2.63671e-09 0)
(0 0 0)
(-3.78402e-11 -2.54472e-09 0)
(-1.49272e-11 -2.35838e-09 0)
(2.38019e-11 -2.00898e-09 0)
(-1.15926e-10 -5.43446e-09 0)
(-6.51707e-11 -2.68514e-09 0)
(0 0 0)
(-1.66752e-10 -1.97267e-09 0)
(-3.5589e-13 -2.36076e-09 0)
(4.01429e-11 -2.25677e-09 0)
(2.77962e-10 -2.16126e-09 0)
(1.72495e-11 -2.62458e-09 0)
(5.40039e-11 -2.29299e-09 0)
(1.06611e-11 -2.83908e-09 0)
(1.09755e-10 -4.79143e-09 0)
(0 0 0)
(-1.90117e-10 -3.94565e-09 0)
(2.34553e-11 -5.99759e-10 0)
(9.81351e-11 -1.42048e-09 0)
(8.22938e-11 -2.05304e-09 0)
(1.68327e-10 -1.94048e-09 0)
(9.68844e-11 -2.34181e-09 0)
(-1.09838e-11 -1.99054e-09 0)
(-2.50915e-10 -2.04223e-09 0)
(-1.42901e-10 -2.0022e-09 0)
(1.71226e-10 -2.46315e-09 0)
(4.12777e-10 -2.1737e-09 0)
(8.62571e-11 -2.04606e-09 0)
(0 0 0)
(0 0 0)
(0 0 0)
(-1.66466e-10 -1.52434e-09 0)
(8.93174e-11 -1.44846e-09 0)
(-2.15021e-10 -1.97367e-09 0)
(-8.54483e-11 -2.16505e-09 0)
(5.50203e-11 -2.2382e-09 0)
(3.41168e-10 -2.92804e-09 0)
(6.48216e-11 -1.86916e-09 0)
(2.59966e-10 -2.02364e-09 0)
(2.64855e-10 -2.58113e-09 0)
(-4.61867e-11 -2.23651e-09 0)
(-2.62471e-10 -2.41844e-09 0)
(-5.68932e-11 -2.03174e-09 0)
(-1.33844e-11 -1.80313e-09 0)
(2.67055e-10 -1.67576e-09 0)
(-7.80925e-12 -1.93784e-09 0)
(-7.57533e-11 -1.56657e-09 0)
(2.90266e-10 -1.84705e-09 0)
(6.83375e-13 -1.78103e-09 0)
(-1.09881e-10 -1.93333e-09 0)
(-1.29479e-10 -1.32322e-09 0)
(6.52472e-11 -1.26072e-09 0)
(-2.16598e-10 -1.82148e-09 0)
(2.54162e-10 -2.34247e-09 0)
(4.04509e-10 -2.18852e-09 0)
(1.0651e-10 -2.19946e-09 0)
(-1.41823e-11 -2.25284e-09 0)
(-6.71119e-11 -1.90815e-09 0)
(-3.48269e-10 -1.63702e-09 0)
(-1.53764e-10 -1.724e-09 0)
(-3.80209e-10 -1.84261e-09 0)
(-1.94995e-10 -1.97295e-09 0)
(1.18943e-10 -1.92345e-09 0)
(7.05059e-11 -2.5674e-09 0)
(2.18155e-10 -2.0241e-09 0)
(3.48964e-12 -2.24786e-09 0)
(4.91515e-11 -2.19337e-09 0)
(3.77574e-11 -1.90411e-09 0)
(1.72685e-10 -1.82802e-09 0)
(1.38401e-10 -2.04845e-09 0)
(-2.14291e-11 -2.04034e-09 0)
(-2.20088e-10 -1.81306e-09 0)
(-1.9479e-10 -1.92006e-09 0)
(-5.63097e-11 -2.04177e-09 0)
(-1.0932e-10 -2.11758e-09 0)
(2.48766e-11 -2.28898e-09 0)
(1.13159e-10 -1.67557e-09 0)
(2.45909e-10 -2.34024e-09 0)
(5.01814e-11 -2.18939e-09 0)
(-2.60426e-10 -1.85279e-09 0)
(-3.24551e-10 -2.04535e-09 0)
(-4.72343e-11 -2.46131e-09 0)
(-4.60787e-10 -2.23645e-09 0)
(2.27088e-10 -6.25439e-09 0)
(7.66627e-11 -1.12687e-09 0)
(4.52426e-11 -6.95656e-10 0)
(1.7112e-11 -4.67917e-09 0)
(-7.1024e-12 -3.1523e-09 0)
(1.04369e-10 -2.36932e-09 0)
(-1.31755e-10 -1.86182e-09 0)
(-1.49002e-10 -2.50475e-09 0)
(-2.4941e-11 -2.38336e-09 0)
(0 0 0)
(-1.86999e-11 -2.29117e-09 0)
(1.06734e-11 -1.87592e-09 0)
(6.30108e-11 -1.6811e-09 0)
(5.8221e-11 -1.28866e-09 0)
(-2.61216e-10 -1.97704e-09 0)
(-1.44141e-10 -5.82384e-09 0)
(2.73758e-11 -5.62569e-10 0)
(9.10507e-11 -1.75313e-09 0)
(1.28625e-10 -2.28179e-09 0)
(0 0 0)
(0 0 0)
(0 0 0)
(0 0 0)
(-7.37856e-11 -2.15425e-09 0)
(-2.38231e-10 -1.97363e-09 0)
(-1.93208e-10 -2.04265e-09 0)
(-1.97074e-10 -2.37953e-09 0)
(-1.16347e-10 -2.31312e-09 0)
(2.74431e-10 -2.25854e-09 0)
(1.50944e-10 -2.52654e-09 0)
(2.06921e-10 -2.68025e-09 0)
(1.71891e-11 -2.46176e-09 0)
(-4.30571e-11 -2.28984e-09 0)
(-1.54021e-10 -2.46935e-09 0)
(-1.2574e-10 -3.37537e-09 0)
(-7.23488e-11 -1.94843e-09 0)
(-4.3789e-11 -2.33125e-09 0)
(7.01248e-11 -2.09926e-09 0)
(-1.21828e-10 -2.86325e-09 0)
(-4.95679e-11 -1.5251e-09 0)
(-4.41462e-12 -2.04572e-09 0)
(-8.64921e-11 -2.38337e-09 0)
(-1.08022e-10 -2.05445e-09 0)
(-4.47464e-11 -2.56211e-09 0)
(2.06053e-10 -2.49087e-09 0)
(3.02308e-10 -2.21806e-09 0)
(1.86729e-10 -2.40253e-09 0)
(1.03692e-10 -2.12575e-09 0)
(1.01119e-10 -2.22198e-09 0)
(-2.44769e-11 -2.1385e-09 0)
(-2.95034e-10 -2.02231e-09 0)
(-1.78245e-10 -2.16936e-09 0)
(-1.47869e-10 -2.31803e-09 0)
(-6.3594e-11 -4.58894e-09 0)
(1.26371e-12 -2.29224e-10 0)
(3.10353e-11 -2.23382e-09 0)
(6.59963e-12 -1.95004e-09 0)
(4.07216e-11 -2.06594e-09 0)
(5.71598e-11 -2.11574e-09 0)
(1.9151e-11 -2.15665e-09 0)
(2.1077e-10 -2.45696e-09 0)
(2.36023e-10 -2.54357e-09 0)
(-2.03269e-10 -2.25311e-09 0)
(-1.5101e-10 -1.96556e-09 0)
(-4.28786e-11 -2.6423e-09 0)
(-4.23977e-10 -2.33115e-09 0)
(-1.80255e-10 -2.236e-09 0)
(-3.08057e-10 -2.42558e-09 0)
(-2.27139e-11 -2.68445e-09 0)
(2.06902e-11 -2.01861e-09 0)
(-1.84025e-10 -5.48502e-09 0)
(-1.13727e-10 -2.57677e-09 0)
(2.72514e-11 -1.28684e-09 0)
(3.39367e-11 -3.1937e-09 0)
(-1.01299e-11 -1.85343e-09 0)
(-7.62666e-11 -1.54178e-09 0)
(1.35237e-10 -2.35478e-09 0)
(6.34089e-12 -3.84265e-10 0)
(6.09159e-11 -4.65422e-09 0)
(1.04967e-12 -9.87046e-11 0)
(2.68806e-11 -2.40484e-09 0)
(3.83727e-11 -2.42926e-09 0)
(-4.47723e-10 -2.83515e-09 0)
(-9.79589e-11 -2.98208e-09 0)
(-1.99225e-11 -2.35429e-09 0)
(-9.81021e-11 -4.20147e-09 0)
(9.3109e-11 -2.74731e-09 0)
(4.71055e-12 -1.81174e-09 0)
(1.4202e-10 -1.50925e-09 0)
(-6.30497e-11 -1.49709e-09 0)
(-2.66112e-10 -1.30065e-09 0)
(-2.21768e-11 -1.60725e-09 0)
(1.11595e-10 -1.78278e-09 0)
(0 0 0)
(0 0 0)
(0 0 0)
(0 0 0)
(0 0 0)
(-1.235e-10 -2.12844e-09 0)
(-1.60634e-10 -2.4769e-09 0)
(-1.03369e-10 -2.7002e-09 0)
(-1.89533e-10 -2.20679e-09 0)
(-1.58067e-10 -2.32701e-09 0)
(1.8129e-10 -3.97663e-09 0)
(8.21156e-11 -1.14972e-09 0)
(8.84356e-11 -1.466e-09 0)
(1.62113e-10 -2.65233e-09 0)
(-6.60982e-11 -2.34267e-09 0)
(-1.59751e-10 -3.0011e-09 0)
(-2.53975e-10 -5.31153e-09 0)
(-7.24905e-11 -2.54411e-09 0)
(4.6475e-11 -1.90319e-09 0)
(3.83051e-11 -1.65182e-09 0)
(-1.55481e-10 -1.77593e-09 0)
(-7.32329e-11 -2.09442e-09 0)
(-6.4426e-11 -1.8553e-09 0)
(0 0 0)
(-1.6426e-11 -1.90056e-09 0)
(1.20671e-10 -4.63353e-09 0)
(1.42479e-10 -1.97451e-09 0)
(2.11718e-11 -2.30902e-09 0)
(9.76354e-12 -1.08311e-09 0)
(2.91364e-11 -2.97534e-09 0)
(-4.9264e-12 -6.08603e-10 0)
(-9.25771e-11 -3.95499e-09 0)
(-1.68565e-10 -1.80432e-09 0)
(-3.5623e-11 -1.72032e-09 0)
(-4.76368e-11 -2.17345e-09 0)
(1.09668e-10 -1.97816e-09 0)
(0 0 0)
(9.01126e-11 -1.94347e-09 0)
(-7.52939e-11 -2.06515e-09 0)
(-8.56001e-14 -2.33942e-09 0)
(5.66766e-11 -2.30258e-09 0)
(9.63811e-13 -2.3107e-09 0)
(5.81059e-11 -2.33943e-09 0)
(-1.77724e-11 -2.57798e-09 0)
(-4.65662e-10 -2.42322e-09 0)
(2.81521e-11 -2.10625e-09 0)
(-7.91694e-13 -2.31625e-09 0)
(2.54534e-11 -2.48761e-09 0)
(-1.8658e-11 -5.82112e-09 0)
(-5.3211e-11 -9.3653e-10 0)
(-1.01241e-10 -1.71293e-09 0)
(-2.60733e-10 -3.35362e-09 0)
(-2.29633e-10 -3.0563e-09 0)
(-2.66172e-12 -1.03409e-09 0)
(-7.70181e-12 -3.52381e-09 0)
(-9.50512e-11 -2.73986e-09 0)
(1.69666e-10 -2.27529e-09 0)
(7.89409e-11 -1.69988e-09 0)
(-1.60488e-11 -2.4036e-09 0)
(1.71763e-11 -4.30047e-10 0)
(2.58932e-10 -4.69871e-09 0)
(3.03532e-12 -8.87043e-10 0)
(7.19462e-12 -8.91459e-10 0)
(4.87352e-11 -2.01079e-09 0)
(-1.57814e-11 -2.58244e-09 0)
(1.05575e-10 -2.31271e-09 0)
(9.34041e-12 -2.69619e-09 0)
(5.58481e-11 -4.04533e-09 0)
(2.86052e-10 -3.34814e-09 0)
(2.77562e-11 -2.05485e-09 0)
(-1.59348e-10 -2.12407e-09 0)
(-6.59628e-11 -1.89046e-09 0)
(-1.5977e-10 -1.80507e-09 0)
(2.23162e-11 -1.94367e-09 0)
(3.85504e-11 -2.76192e-09 0)
(0 0 0)
(0 0 0)
(0 0 0)
(0 0 0)
(0 0 0)
(-1.82801e-10 -2.35296e-09 0)
(9.85306e-13 -3.3965e-09 0)
(1.73491e-10 -2.59651e-09 0)
(-9.13443e-11 -1.57978e-09 0)
(9.44365e-12 -1.3787e-09 0)
(1.24911e-10 -1.53318e-09 0)
(1.47397e-10 -2.34799e-09 0)
(6.47347e-11 -1.21026e-09 0)
(3.30879e-11 -3.42899e-09 0)
(-3.63133e-11 -1.21318e-09 0)
(-7.04016e-11 -3.50881e-09 0)
(-1.14713e-10 -2.24494e-09 0)
(-1.41054e-10 -2.34542e-09 0)
(2.22736e-10 -2.02261e-09 0)
(2.47843e-10 -1.78245e-09 0)
(-6.86778e-11 -1.3611e-09 0)
(-3.3121e-10 -1.73051e-09 0)
(9.50227e-11 -1.77523e-09 0)
(4.79672e-11 -1.19897e-09 0)
(-1.26311e-11 -1.64692e-09 0)
(3.00134e-11 -1.75214e-09 0)
(5.13455e-12 -1.81336e-09 0)
(0 0 0)
(-8.65708e-11 -4.03858e-09 0)
(2.64333e-11 -3.11933e-09 0)
(-1.60635e-11 -9.74847e-10 0)
(-1.02412e-11 -6.45482e-10 0)
(-6.23258e-11 -1.97539e-09 0)
(3.92154e-12 -1.80015e-09 0)
(2.10269e-11 -3.69534e-09 0)
(7.14312e-11 -3.47142e-09 0)
(0 0 0)
(7.08816e-11 -2.14974e-09 0)
(-8.25651e-12 -2.33539e-09 0)
(3.35792e-11 -2.31524e-09 0)
(9.25943e-12 -2.14781e-09 0)
(-3.02105e-11 -2.2077e-09 0)
(2.96443e-11 -2.2317e-09 0)
(2.81841e-10 -2.10141e-09 0)
(5.4428e-11 -2.46489e-09 0)
(6.9439e-11 -2.4313e-09 0)
(1.10805e-10 -3.72018e-09 0)
(2.09758e-10 -3.78456e-09 0)
(-2.99196e-11 -2.74115e-09 0)
(-1.74437e-10 -2.70425e-09 0)
(-7.46495e-11 -9.61879e-10 0)
(-4.86785e-11 -5.7861e-10 0)
(-2.26594e-10 -2.15345e-09 0)
(-1.33738e-10 -2.63954e-09 0)
(2.56567e-10 -2.75678e-09 0)
(2.71761e-10 -2.74155e-09 0)
(8.20861e-11 -2.73504e-09 0)
(1.29417e-10 -2.99005e-09 0)
(-2.43167e-11 -2.75107e-09 0)
(3.58503e-11 -2.47291e-09 0)
(1.69265e-10 -2.57637e-09 0)
(1.11274e-10 -2.34695e-09 0)
(4.50907e-11 -5.81831e-09 0)
(9.40857e-12 -2.38989e-10 0)
(6.71247e-11 -1.98324e-09 0)
(3.40197e-11 -2.08108e-09 0)
(5.34051e-11 -2.21219e-09 0)
(2.21193e-10 -3.6843e-09 0)
(6.27394e-11 -1.31238e-09 0)
(2.3186e-10 -4.82382e-09 0)
(5.60452e-11 -2.09064e-09 0)
(-7.97861e-11 -2.51457e-09 0)
(-7.89337e-11 -2.03765e-09 0)
(9.2835e-11 -1.94307e-09 0)
(-2.18468e-10 -2.14937e-09 0)
(0 0 0)
(0 0 0)
(0 0 0)
(0 0 0)
(0 0 0)
(-2.37605e-10 -1.94739e-09 0)
(-4.59446e-11 -1.53724e-09 0)
(1.40998e-10 -2.22869e-09 0)
(8.71494e-11 -1.68793e-09 0)
(-8.4424e-11 -1.83775e-09 0)
(3.6682e-11 -1.59959e-09 0)
(1.25076e-10 -2.45548e-09 0)
(6.59333e-11 -1.51245e-09 0)
(-1.51298e-11 -3.39068e-09 0)
(4.16735e-12 -6.18796e-10 0)
(5.24448e-11 -3.13465e-09 0)
(5.40186e-11 -4.26656e-09 0)
(1.73207e-11 -2.63729e-09 0)
(4.99712e-11 -2.24976e-09 0)
(-3.26207e-11 -1.67971e-09 0)
(-1.98819e-11 -4.8613e-10 0)
(-2.21534e-10 -3.04909e-09 0)
(-9.90717e-11 -1.89813e-09 0)
(-6.52902e-12 -1.77833e-09 0)
(6.78067e-11 -1.43732e-09 0)
(-3.30671e-11 -1.71112e-09 0)
(-1.4579e-10 -2.23151e-09 0)
(-5.76677e-12 -1.00353e-10 0)
(-1.3083e-10 -2.27486e-09 0)
(-7.45019e-11 -2.6208e-09 0)
(3.1228e-11 -2.70024e-09 0)
(4.65686e-11 -2.76323e-09 0)
(-4.64352e-11 -2.35745e-09 0)
(2.83211e-11 -2.08614e-09 0)
(-7.94182e-11 -2.20831e-09 0)
(3.14387e-11 -2.48193e-09 0)
(-1.85648e-11 -2.80235e-09 0)
(4.14923e-11 -2.70008e-09 0)
(-3.23404e-11 -2.41985e-09 0)
(4.10325e-11 -2.57955e-09 0)
(-1.24458e-10 -2.31816e-09 0)
(-1.67828e-10 -2.48632e-09 0)
(1.66316e-11 -2.32068e-09 0)
(2.99133e-10 -2.04403e-09 0)
(9.98489e-11 -2.33956e-09 0)
(1.55204e-11 -1.88673e-09 0)
(4.59705e-11 -3.41417e-09 0)
(4.11049e-11 -4.22597e-09 0)
(-7.30223e-11 -3.04277e-09 0)
(-1.05633e-10 -2.96476e-09 0)
(-4.82908e-11 -1.01518e-09 0)
(-3.33922e-11 -6.77039e-10 0)
(-2.69066e-10 -2.2945e-09 0)
(-3.96836e-10 -5.24414e-09 0)
(0 0 0)
(3.34807e-11 -2.03525e-09 0)
(9.24943e-11 -2.21667e-09 0)
(4.23028e-11 -2.81971e-09 0)
(1.22071e-10 -2.43243e-09 0)
(1.04425e-10 -2.79162e-09 0)
(1.08214e-10 -2.32174e-09 0)
(1.34075e-10 -2.25141e-09 0)
(2.52462e-11 -3.93375e-09 0)
(1.05173e-10 -4.05364e-09 0)
(-3.30855e-11 -7.58305e-10 0)
(-4.49751e-11 -9.39509e-10 0)
(2.73809e-11 -1.98258e-09 0)
(4.1538e-10 -1.92446e-09 0)
(1.83867e-10 -1.90961e-09 0)
(1.02912e-11 -2.1835e-09 0)
(-1.69346e-11 -3.18134e-09 0)
(1.12019e-10 -4.49638e-09 0)
(3.45731e-10 -2.34845e-09 0)
(1.69532e-11 -1.28955e-09 0)
(-2.60796e-10 -1.63742e-09 0)
(0 0 0)
(0 0 0)
(0 0 0)
(0 0 0)
(0 0 0)
(-5.48126e-11 -4.42782e-09 0)
(-1.47441e-10 -1.98834e-09 0)
(0 0 0)
(7.85276e-11 -2.18836e-09 0)
(1.66035e-10 -3.79196e-09 0)
(-6.28511e-11 -3.07529e-09 0)
(-1.41062e-11 -1.10426e-09 0)
(2.71118e-10 -3.72021e-09 0)
(2.31183e-11 -2.94382e-09 0)
(-1.59083e-12 -7.39323e-10 0)
(1.16204e-10 -4.89662e-09 0)
(-3.21479e-11 -2.91273e-09 0)
(2.93156e-11 -1.23064e-09 0)
(7.09844e-12 -2.34509e-10 0)
(9.82454e-11 -2.09989e-09 0)
(1.5594e-10 -2.07268e-09 0)
(-2.45585e-10 -2.70706e-09 0)
(-8.53863e-11 -2.47969e-09 0)
(1.6297e-11 -2.31386e-09 0)
(7.48737e-11 -2.18303e-09 0)
(-6.70243e-12 -2.15689e-09 0)
(-1.4136e-10 -2.36742e-09 0)
(-7.48479e-11 -2.4152e-09 0)
(-2.49563e-12 -2.62556e-09 0)
(-6.84324e-11 -2.4414e-09 0)
(-7.99477e-11 -2.49563e-09 0)
(-4.05349e-11 -2.51891e-09 0)
(-2.79622e-11 -2.48314e-09 0)
(-2.54565e-10 -2.67463e-09 0)
(-3.62417e-11 -2.50085e-09 0)
(-1.27784e-10 -3.31781e-09 0)
(-4.95386e-11 -2.36483e-09 0)
(-1.26103e-10 -4.3923e-09 0)
(0 0 0)
(-1.34681e-11 -2.3526e-09 0)
(-4.99863e-11 -2.65994e-09 0)
(7.9579e-12 -3.9842e-09 0)
(2.14244e-12 -1.08359e-10 0)
(6.14629e-11 -2.03214e-09 0)
(9.68718e-11 -3.35943e-09 0)
(2.08762e-11 -1.1019e-09 0)
(1.81726e-11 -2.41737e-09 0)
(-1.00884e-10 -6.35598e-09 0)
(-4.46064e-11 -3.43767e-09 0)
(-9.13832e-11 -2.99415e-09 0)
(-1.91251e-11 -1.01038e-09 0)
(-1.86863e-11 -3.70569e-09 0)
(-1.3866e-10 -1.78436e-09 0)
(-1.94885e-10 -1.39018e-09 0)
(-1.91506e-11 -5.53865e-10 0)
(-2.71788e-11 -9.04725e-10 0)
(-6.54032e-12 -3.94133e-09 0)
(3.41749e-11 -1.47746e-09 0)
(1.67524e-10 -4.64525e-09 0)
(1.69296e-11 -7.48311e-10 0)
(2.99006e-11 -1.18397e-09 0)
(5.47104e-11 -2.21907e-09 0)
(1.67544e-10 -3.76988e-09 0)
(-1.04599e-10 -4.49934e-09 0)
(8.45609e-11 -2.60218e-09 0)
(6.38852e-11 -1.88523e-09 0)
(3.00354e-10 -1.44273e-09 0)
(1.05206e-10 -1.74867e-09 0)
(-1.23543e-11 -2.32633e-09 0)
(6.15038e-12 -7.92217e-10 0)
(-1.77838e-11 -2.37956e-09 0)
(8.68472e-11 -3.51567e-09 0)
(1.02491e-10 -1.22448e-09 0)
(-1.53158e-10 -2.89069e-09 0)
(-6.86942e-11 -8.12417e-10 0)
(-3.26314e-11 -4.12232e-10 0)
(0 0 0)
(0 0 0)
(0 0 0)
(0 0 0)
(3.22298e-11 -1.9354e-09 0)
(-3.21654e-10 -1.88612e-09 0)
(-1.10273e-10 -1.72469e-09 0)
(1.24411e-10 -1.62177e-09 0)
(1.76674e-11 -1.03669e-09 0)
(-1.71209e-10 -2.89274e-09 0)
(-2.30212e-11 -9.76333e-10 0)
(5.41321e-11 -2.85489e-09 0)
(1.16819e-10 -3.36622e-09 0)
(6.89339e-11 -2.37989e-09 0)
(-7.36108e-11 -2.82321e-09 0)
(1.73355e-11 -1.12208e-09 0)
(6.6177e-11 -2.37247e-09 0)
(1.01582e-11 -2.78474e-10 0)
(3.1353e-11 -1.91103e-09 0)
(1.0226e-10 -2.02133e-09 0)
(-3.47577e-10 -2.51246e-09 0)
(-1.16593e-10 -2.39876e-09 0)
(-2.5211e-11 -2.33118e-09 0)
(-4.60787e-12 -2.36311e-09 0)
(-5.43089e-11 -3.8593e-09 0)
(-4.61941e-11 -1.92323e-09 0)
(-1.57394e-10 -2.46304e-09 0)
(-1.35409e-10 -1.50076e-09 0)
(-1.95274e-10 -2.23944e-09 0)
(-9.62463e-11 -2.19998e-09 0)
(-1.43945e-10 -2.71095e-09 0)
(6.48268e-12 -3.44648e-09 0)
(9.89857e-11 -2.65901e-09 0)
(2.34974e-11 -2.8859e-09 0)
(-5.48242e-11 -8.3072e-10 0)
(-1.70327e-10 -3.3909e-09 0)
(7.69813e-14 -1.79051e-09 0)
(5.5269e-11 -1.73046e-09 0)
(1.73608e-11 -1.43948e-09 0)
(1.01685e-10 -1.23869e-09 0)
(6.94733e-11 -1.68147e-09 0)
(3.27133e-11 -1.75497e-09 0)
(7.66963e-11 -1.51946e-09 0)
(5.42429e-11 -2.33632e-09 0)
(6.10197e-11 -1.22144e-09 0)
(5.76837e-11 -1.91994e-09 0)
(-1.2852e-10 -4.12993e-09 0)
(-1.28039e-10 -3.04887e-09 0)
(-5.81656e-11 -2.85481e-09 0)
(2.15962e-11 -7.89803e-10 0)
(6.22006e-11 -4.12431e-09 0)
(-5.81454e-11 -2.01369e-09 0)
(-8.88327e-11 -1.8997e-09 0)
(-1.9032e-11 -1.80534e-09 0)
(2.38816e-11 -2.09463e-09 0)
(7.70716e-11 -2.75347e-09 0)
(-2.85673e-11 -1.17143e-09 0)
(-1.42886e-11 -3.06551e-09 0)
(9.72974e-11 -1.29107e-09 0)
(1.621e-11 -2.30527e-10 0)
(1.17465e-10 -2.26877e-09 0)
(1.10462e-10 -2.48683e-09 0)
(-3.82172e-11 -2.54459e-09 0)
(1.8725e-10 -6.26377e-09 0)
(1.57424e-10 -2.36302e-09 0)
(-4.79271e-11 -1.52951e-09 0)
(2.83523e-11 -1.87799e-09 0)
(-4.14492e-11 -2.50158e-09 0)
(1.54494e-11 -4.75173e-10 0)
(4.14114e-11 -1.68153e-09 0)
(-2.95455e-11 -2.00052e-09 0)
(4.35199e-11 -2.27865e-09 0)
(2.61274e-11 -2.6279e-09 0)
(-1.40673e-10 -1.99811e-09 0)
(5.70415e-11 -2.48679e-09 0)
(0 0 0)
(0 0 0)
(0 0 0)
(0 0 0)
(2.21497e-11 -1.49422e-09 0)
(-1.79867e-10 -5.36949e-09 0)
(-1.169e-10 -2.24019e-09 0)
(-4.7237e-11 -2.13916e-09 0)
(0 0 0)
(-1.06544e-10 -1.98317e-09 0)
(7.39176e-11 -2.42402e-09 0)
(1.21398e-10 -5.38311e-09 0)
(3.28242e-11 -2.69572e-09 0)
(7.80603e-11 -2.57745e-09 0)
(2.40451e-11 -2.84289e-09 0)
(9.25142e-12 -5.79318e-10 0)
(5.02041e-11 -1.92605e-09 0)
(1.13573e-10 -2.59265e-09 0)
(5.51855e-11 -1.39823e-09 0)
(1.84798e-11 -2.2876e-09 0)
(1.51454e-10 -2.76552e-09 0)
(9.75683e-11 -3.45784e-09 0)
(-1.05386e-10 -2.3218e-09 0)
(-9.20448e-11 -1.25494e-09 0)
(-4.13975e-11 -3.08065e-09 0)
(-5.80243e-11 -4.04164e-09 0)
(-6.39372e-11 -8.36414e-10 0)
(-7.40535e-11 -1.00218e-09 0)
(-2.86083e-10 -2.22894e-09 0)
(-2.47861e-10 -6.01655e-09 0)
(3.31555e-11 -2.24424e-09 0)
(-6.66799e-11 -1.48996e-09 0)
(7.81094e-11 -1.56279e-09 0)
(1.00429e-10 -1.80987e-09 0)
(5.08421e-11 -1.92718e-09 0)
(9.26291e-12 -2.37821e-09 0)
(1.73009e-10 -2.57383e-09 0)
(-8.92233e-11 -1.89142e-09 0)
(-3.24066e-10 -1.98562e-09 0)
(-1.83125e-10 -1.75493e-09 0)
(6.67054e-11 -1.58193e-09 0)
(6.33612e-11 -1.52294e-09 0)
(-1.23132e-10 -1.41381e-09 0)
(-1.33087e-10 -1.4369e-09 0)
(4.84287e-11 -1.42472e-09 0)
(8.21635e-11 -2.32403e-09 0)
(-7.78934e-11 -2.7889e-09 0)
(-1.47286e-10 -2.8555e-09 0)
(3.90883e-11 -2.67622e-09 0)
(7.40601e-11 -1.24324e-09 0)
(8.09204e-11 -3.38001e-09 0)
(1.45772e-11 -1.9634e-09 0)
(-2.87536e-10 -1.61878e-09 0)
(-2.53091e-10 -1.56644e-09 0)
(3.41357e-11 -1.25483e-09 0)
(9.58722e-12 -1.61896e-09 0)
(2.28236e-11 -1.69934e-09 0)
(-7.63178e-11 -1.90554e-09 0)
(6.21789e-12 -2.30218e-09 0)
(1.88924e-12 -1.13155e-09 0)
(2.85147e-10 -3.10751e-09 0)
(2.42815e-11 -1.16923e-09 0)
(4.28944e-12 -1.13126e-09 0)
(-3.32963e-11 -3.70423e-09 0)
(1.19071e-11 -2.92212e-09 0)
(0 0 0)
(-2.98358e-11 -1.85259e-09 0)
(7.9334e-12 -2.77871e-09 0)
(3.47522e-11 -1.87546e-09 0)
(1.67276e-10 -4.20297e-09 0)
(-3.89701e-12 -5.83483e-10 0)
(-2.38566e-11 -2.11785e-09 0)
(-6.64819e-11 -2.04184e-09 0)
(-1.21125e-10 -2.16623e-09 0)
(-4.44998e-11 -2.10465e-09 0)
(0 0 0)
(0 0 0)
(0 0 0)
(0 0 0)
(1.0425e-10 -1.78094e-09 0)
(-5.35048e-11 -2.22178e-09 0)
(3.68407e-11 -2.63034e-09 0)
(3.30944e-11 -2.25403e-09 0)
(-8.29643e-11 -2.28728e-09 0)
(-1.42812e-11 -2.27818e-09 0)
(-5.6843e-11 -2.32198e-09 0)
(5.12287e-11 -2.4085e-09 0)
(1.69862e-11 -2.74393e-09 0)
(-5.13553e-11 -7.32982e-09 0)
(4.50879e-11 -3.2506e-09 0)
(0 0 0)
(-1.97902e-11 -2.37013e-09 0)
(7.82418e-12 -2.3288e-09 0)
(-5.14653e-11 -5.41043e-09 0)
(3.77281e-11 -2.39107e-09 0)
(2.41255e-10 -2.15852e-09 0)
(9.85788e-11 -1.14734e-09 0)
(-6.8036e-11 -9.94781e-10 0)
(-1.40424e-10 -1.90513e-09 0)
(-4.15054e-11 -3.66843e-09 0)
(-1.4142e-12 -3.02804e-09 0)
(-1.36828e-11 -8.89709e-10 0)
(4.36465e-12 -3.89275e-09 0)
(8.93926e-11 -2.08881e-09 0)
(9.36335e-11 -2.08413e-09 0)
(2.46608e-10 -1.64235e-09 0)
(-3.35157e-10 -1.46143e-09 0)
(9.2402e-12 -1.51323e-09 0)
(3.64193e-10 -1.6739e-09 0)
(2.62954e-11 -1.67652e-09 0)
(-3.39299e-11 -1.76405e-09 0)
(1.59239e-10 -2.18623e-09 0)
(1.19375e-10 -1.8883e-09 0)
(2.05528e-10 -1.83034e-09 0)
(-1.50183e-10 -1.85403e-09 0)
(-1.55323e-10 -1.19568e-09 0)
(-2.94032e-10 -1.92139e-09 0)
(-1.95769e-10 -1.50229e-09 0)
(-3.85869e-10 -1.81501e-09 0)
(-3.21463e-11 -2.22875e-09 0)
(-9.35134e-11 -2.7508e-09 0)
(-1.32269e-11 -2.82143e-09 0)
(3.62196e-11 -3.02821e-09 0)
(1.25845e-10 -2.83479e-09 0)
(4.51439e-11 -2.53935e-09 0)
(0 0 0)
(1.47329e-10 -2.31424e-09 0)
(2.65055e-10 -3.90632e-09 0)
(1.88384e-11 -2.00829e-09 0)
(-2.23158e-10 -1.75955e-09 0)
(4.12684e-11 -1.40385e-09 0)
(-4.7921e-11 -1.77313e-09 0)
(-1.83129e-10 -2.002e-09 0)
(-1.18519e-10 -1.95948e-09 0)
(1.88436e-11 -1.54383e-09 0)
(7.53119e-11 -2.39986e-09 0)
(1.85479e-10 -2.46404e-09 0)
(7.38162e-12 -1.24686e-10 0)
(1.19667e-10 -2.1359e-09 0)
(-2.17544e-11 -4.1663e-09 0)
(-3.63078e-13 -5.1618e-10 0)
(-2.74356e-11 -2.39011e-09 0)
(1.43069e-10 -2.47851e-09 0)
(3.03329e-11 -2.50708e-09 0)
(1.58411e-10 -2.57435e-09 0)
(1.61559e-10 -2.27428e-09 0)
(-8.58084e-11 -2.42069e-09 0)
(-1.75853e-10 -2.589e-09 0)
(-7.84404e-11 -2.07953e-09 0)
(-4.53285e-11 -2.34961e-09 0)
(0 0 0)
(0 0 0)
(0 0 0)
(0 0 0)
(1.80836e-10 -2.47439e-09 0)
(-2.15062e-11 -2.3063e-09 0)
(5.92665e-11 -2.47038e-09 0)
(-1.54004e-11 -2.20344e-09 0)
(-1.17072e-10 -2.1827e-09 0)
(-9.7761e-11 -3.26309e-09 0)
(3.66327e-11 -1.3248e-09 0)
(5.09177e-11 -2.09363e-09 0)
(-5.57605e-11 -5.60363e-09 0)
(6.77308e-11 -3.32018e-09 0)
(-1.67828e-10 -2.98561e-09 0)
(-1.84625e-11 -6.191e-10 0)
(-3.07341e-11 -1.28173e-09 0)
(-4.51992e-12 -2.0733e-09 0)
(2.58335e-10 -1.96754e-09 0)
(-5.52195e-11 -4.84014e-09 0)
(-1.19121e-11 -3.90777e-10 0)
(2.62487e-10 -2.43474e-09 0)
(3.03321e-11 -2.12659e-09 0)
(-4.45109e-11 -2.78237e-09 0)
(4.36343e-11 -2.54339e-09 0)
(1.49011e-10 -2.53722e-09 0)
(-3.47631e-11 -2.59982e-09 0)
(1.2842e-10 -5.7636e-09 0)
(1.62216e-10 -2.18976e-09 0)
(2.06904e-10 -2.54265e-09 0)
(1.25189e-10 -2.23791e-09 0)
(-1.13181e-10 -1.62602e-09 0)
(-6.26838e-11 -1.93966e-09 0)
(8.35573e-11 -2.07497e-09 0)
(-1.34495e-10 -1.77719e-09 0)
(-3.29709e-11 -1.90921e-09 0)
(1.51428e-10 -2.04295e-09 0)
(2.51914e-10 -1.78992e-09 0)
(5.37262e-11 -1.67286e-09 0)
(-1.24796e-10 -1.94716e-09 0)
(-1.64342e-10 -1.71517e-09 0)
(-1.60698e-10 -1.21981e-09 0)
(-1.27029e-10 -1.42697e-09 0)
(-7.00168e-11 -6.58102e-10 0)
(-2.48262e-10 -4.00703e-09 0)
(-2.35379e-10 -3.02009e-09 0)
(5.34043e-11 -2.63247e-09 0)
(6.53556e-11 -2.80178e-09 0)
(9.08498e-11 -2.76011e-09 0)
(0 0 0)
(6.16438e-11 -2.37452e-09 0)
(2.90417e-10 -2.34491e-09 0)
(3.52181e-10 -2.21651e-09 0)
(1.78307e-10 -2.42969e-09 0)
(1.35416e-10 -2.10121e-09 0)
(4.9249e-11 -2.47139e-09 0)
(-1.43652e-10 -5.69057e-09 0)
(-6.09237e-11 -7.452e-10 0)
(-2.54615e-10 -2.74291e-09 0)
(-1.50476e-10 -3.2e-09 0)
(-4.9444e-11 -2.64109e-09 0)
(4.35616e-12 -1.47796e-09 0)
(2.44835e-11 -9.40897e-10 0)
(4.53872e-11 -1.84733e-09 0)
(-1.19439e-10 -2.37485e-09 0)
(-2.0007e-11 -2.35142e-09 0)
(-1.07415e-10 -2.29568e-09 0)
(-3.80668e-11 -2.02898e-09 0)
(7.23487e-11 -2.18317e-09 0)
(-1.18178e-11 -2.54468e-09 0)
(1.5035e-11 -2.24499e-09 0)
(-3.71667e-10 -2.65573e-09 0)
(-6.69782e-11 -2.55413e-09 0)
(3.62608e-10 -2.46359e-09 0)
(7.25986e-11 -2.3205e-09 0)
(0 0 0)
(0 0 0)
(0 0 0)
(0 0 0)
(1.9315e-10 -3.99051e-09 0)
(-1.80602e-11 -1.73167e-09 0)
(-5.21762e-11 -1.83885e-09 0)
(-3.99413e-11 -1.89932e-09 0)
(9.49642e-11 -4.81404e-09 0)
(9.27635e-11 -2.00294e-09 0)
(-2.94032e-11 -1.2614e-09 0)
(-7.03879e-11 -1.54976e-09 0)
(-1.9251e-10 -1.92557e-09 0)
(3.89754e-11 -2.71184e-09 0)
(-1.97064e-10 -2.73891e-09 0)
(-1.16608e-10 -2.5297e-09 0)
(8.38764e-11 -2.21465e-09 0)
(2.466e-12 -2.80879e-11 0)
(2.03535e-10 -1.99407e-09 0)
(2.26688e-10 -2.14038e-09 0)
(3.71181e-11 -2.37988e-09 0)
(-4.02783e-11 -2.50064e-09 0)
(-6.09081e-11 -2.48004e-09 0)
(2.16987e-11 -2.32579e-09 0)
(-1.93357e-11 -2.38186e-09 0)
(1.09834e-10 -2.06729e-09 0)
(1.24534e-10 -2.55332e-09 0)
(2.71007e-10 -6.19998e-09 0)
(1.51706e-10 -2.23556e-09 0)
(1.35161e-10 -2.35312e-09 0)
(-6.26603e-12 -2.47151e-09 0)
(-8.21191e-11 -1.99369e-09 0)
(1.27194e-12 -1.94231e-09 0)
(-6.0438e-11 -2.40925e-09 0)
(-1.43287e-11 -2.49761e-10 0)
(-9.20371e-11 -3.18974e-09 0)
(2.10694e-11 -7.98586e-10 0)
(2.27498e-10 -5.0234e-09 0)
(2.60651e-11 -2.36612e-09 0)
(-9.7795e-11 -1.11808e-09 0)
(-3.3976e-10 -2.6472e-09 0)
(-1.45306e-10 -2.04788e-09 0)
(-1.3381e-10 -1.90135e-09 0)
(-3.67827e-11 -1.51009e-09 0)
(-5.65826e-11 -1.8103e-09 0)
(-1.2219e-10 -1.54754e-09 0)
(-1.62633e-11 -2.10029e-09 0)
(-1.33932e-10 -2.7629e-09 0)
(1.48574e-11 -2.75161e-09 0)
(9.20963e-12 -7.61954e-10 0)
(1.65442e-11 -1.06963e-09 0)
(3.2584e-10 -2.36816e-09 0)
(3.17932e-10 -2.29092e-09 0)
(1.23072e-10 -3.10905e-09 0)
(5.85329e-11 -3.63623e-09 0)
(-1.84408e-10 -3.15688e-09 0)
(-1.30944e-10 -2.64648e-09 0)
(-8.07997e-11 -2.51604e-09 0)
(-1.07e-10 -2.3994e-09 0)
(1.5392e-11 -1.14784e-09 0)
(4.10006e-11 -2.23298e-09 0)
(6.3338e-11 -2.57846e-09 0)
(-4.13005e-11 -3.5826e-09 0)
(-2.92467e-11 -1.2238e-09 0)
(-4.46272e-12 -1.74074e-10 0)
(5.20468e-12 -1.98483e-09 0)
(-2.61572e-10 -2.07756e-09 0)
(-1.87203e-10 -2.08681e-09 0)
(5.56093e-11 -2.18965e-09 0)
(6.69019e-11 -2.03839e-09 0)
(4.13562e-10 -1.92703e-09 0)
(3.95349e-10 -2.15635e-09 0)
(1.01183e-11 -2.48487e-09 0)
(8.79657e-11 -2.38465e-09 0)
(4.76609e-11 -2.19817e-09 0)
(0 0 0)
(0 0 0)
(0 0 0)
(0 0 0)
(8.71393e-11 -2.36647e-09 0)
(3.81908e-12 -9.69537e-10 0)
(-2.82512e-11 -8.10083e-10 0)
(-1.17612e-10 -3.0395e-09 0)
(2.09702e-11 -1.76744e-09 0)
(5.73825e-11 -1.58317e-09 0)
(8.05966e-12 -2.46239e-09 0)
(-2.94259e-10 -6.04179e-09 0)
(-1.0329e-10 -1.205e-09 0)
(-2.81857e-10 -4.05817e-09 0)
(-1.55551e-10 -2.94057e-09 0)
(2.13381e-11 -1.45506e-09 0)
(-7.68029e-11 -2.62714e-09 0)
(1.25203e-10 -1.91426e-09 0)
(0 0 0)
(1.72465e-10 -3.60734e-09 0)
(-3.752e-11 -1.63783e-09 0)
(-1.69571e-10 -4.26978e-09 0)
(4.27753e-11 -1.91148e-09 0)
(1.32307e-10 -2.31863e-09 0)
(0 0 0)
(-4.29037e-11 -2.59233e-09 0)
(1.715e-10 -3.75606e-09 0)
(1.58493e-11 -3.62015e-09 0)
(1.99441e-10 -1.9919e-09 0)
(1.45964e-10 -2.64816e-09 0)
(-7.24288e-11 -2.24893e-09 0)
(-1.14884e-11 -1.70566e-09 0)
(-1.05286e-10 -2.20161e-09 0)
(0 0 0)
(7.81656e-12 -1.88462e-09 0)
(-4.74401e-11 -2.10136e-09 0)
(8.2868e-11 -2.05748e-09 0)
(4.68791e-11 -2.4172e-09 0)
(-7.42584e-11 -2.43894e-09 0)
(-3.12753e-10 -2.11968e-09 0)
(-1.62057e-10 -2.18985e-09 0)
(-1.11479e-10 -2.4698e-09 0)
(-3.93804e-10 -5.0972e-09 0)
(-7.43862e-11 -2.1235e-09 0)
(-8.10558e-11 -1.88493e-09 0)
(0 0 0)
(-2.44565e-10 -5.42339e-09 0)
(-1.78225e-10 -2.97516e-09 0)
(6.5325e-11 -1.58795e-09 0)
(9.74441e-11 -1.84658e-09 0)
(3.30014e-11 -6.37719e-10 0)
(3.53993e-10 -4.00043e-09 0)
(1.51309e-10 -2.84359e-09 0)
(-6.66083e-13 -5.33206e-10 0)
(-7.21005e-11 -3.00727e-09 0)
(-3.11736e-10 -3.30107e-09 0)
(-2.3115e-11 -7.06627e-10 0)
(-4.81271e-11 -1.49427e-09 0)
(2.29182e-11 -5.34679e-09 0)
(7.48122e-11 -1.11003e-09 0)
(3.33103e-11 -1.9052e-09 0)
(3.41753e-11 -4.09384e-09 0)
(-8.90798e-11 -2.83457e-09 0)
(-8.58679e-12 -3.63254e-10 0)
(-5.23042e-11 -1.73417e-09 0)
(6.74471e-11 -2.23216e-09 0)
(-1.71111e-10 -2.41863e-09 0)
(-3.24362e-10 -2.45446e-09 0)
(-2.68223e-10 -2.34178e-09 0)
(-1.63193e-10 -2.18559e-09 0)
(9.36874e-11 -2.3231e-09 0)
(2.54946e-10 -2.35718e-09 0)
(1.86569e-10 -2.13133e-09 0)
(1.16619e-10 -2.24451e-09 0)
(4.89697e-11 -2.30984e-09 0)
(0 0 0)
(0 0 0)
(0 0 0)
(0 0 0)
(-2.07364e-12 -3.66824e-09 0)
(5.16651e-11 -1.2757e-09 0)
(-3.35343e-12 -5.03966e-10 0)
(-3.61786e-11 -3.82908e-09 0)
(7.32409e-11 -2.7188e-09 0)
(5.15916e-12 -1.06216e-09 0)
(-1.29408e-10 -3.52363e-09 0)
(2.56702e-12 -1.81759e-10 0)
(-1.31463e-11 -3.13514e-09 0)
(-8.4975e-11 -2.3914e-09 0)
(-9.29196e-12 -3.37213e-09 0)
(3.63996e-10 -4.11118e-09 0)
(-2.56637e-10 -1.9839e-09 0)
(-1.51309e-10 -1.95483e-09 0)
(1.46185e-10 -2.16209e-09 0)
(9.27005e-11 -1.74295e-09 0)
(8.67699e-11 -1.31514e-09 0)
(-3.11749e-10 -1.72227e-09 0)
(-2.9312e-10 -1.55846e-09 0)
(2.45611e-11 -1.43553e-09 0)
(1.70372e-10 -1.82598e-09 0)
(1.25003e-10 -2.03688e-09 0)
(6.15204e-11 -2.0791e-09 0)
(-1.00237e-10 -2.07872e-09 0)
(6.22446e-11 -1.74277e-09 0)
(5.59065e-11 -2.50911e-09 0)
(0 0 0)
(1.40139e-10 -2.14428e-09 0)
(-5.11224e-12 -1.90203e-09 0)
(-9.16961e-11 -2.25192e-09 0)
(3.38439e-11 -2.21356e-09 0)
(8.76328e-11 -2.11194e-09 0)
(4.19203e-10 -2.32654e-09 0)
(-1.14479e-11 -2.33245e-09 0)
(-1.12066e-10 -3.14903e-09 0)
(-6.47574e-11 -2.28426e-09 0)
(-8.51441e-12 -2.72929e-09 0)
(2.52902e-10 -3.63481e-09 0)
(1.83648e-12 -3.41368e-09 0)
(-5.94825e-11 -1.38108e-09 0)
(-2.42294e-10 -1.61644e-09 0)
(0 0 0)
(-1.96135e-10 -2.08401e-09 0)
(-1.43936e-10 -2.41869e-09 0)
(2.97739e-11 -4.58969e-09 0)
(1.59788e-10 -3.01351e-09 0)
(1.85403e-10 -2.78095e-09 0)
(1.93135e-10 -2.21004e-09 0)
(2.36678e-11 -2.02972e-09 0)
(-1.37124e-12 -8.18711e-10 0)
(-2.14518e-12 -6.74512e-10 0)
(-1.10458e-10 -2.19732e-09 0)
(-2.1393e-10 -2.43886e-09 0)
(-6.96155e-11 -2.30281e-09 0)
(6.37495e-11 -5.8309e-09 0)
(3.1865e-10 -2.28701e-09 0)
(-5.24602e-11 -2.37948e-09 0)
(-1.42622e-11 -2.42694e-09 0)
(-2.68348e-11 -2.43444e-09 0)
(-1.14377e-11 -4.45822e-10 0)
(-1.87908e-11 -1.42817e-09 0)
(-4.63752e-12 -5.37345e-09 0)
(4.33241e-12 -1.18429e-09 0)
(-9.28127e-11 -1.55216e-09 0)
(-8.09697e-11 -1.00609e-09 0)
(-1.00823e-11 -2.05465e-09 0)
(4.30575e-10 -5.07586e-09 0)
(3.32261e-11 -3.11027e-10 0)
(1.5817e-10 -1.37283e-09 0)
(1.20093e-10 -3.31246e-09 0)
(-1.18883e-11 -8.77567e-10 0)
(0 0 0)
(0 0 0)
(0 0 0)
(0 0 0)
(-6.24373e-11 -2.47374e-09 0)
(2.05145e-10 -2.11835e-09 0)
(2.4775e-10 -5.61605e-09 0)
(1.34872e-11 -1.75645e-09 0)
(-1.24699e-10 -1.58798e-09 0)
(-1.42404e-10 -2.22403e-09 0)
(-3.00154e-11 -2.3348e-09 0)
(2.15833e-10 -2.5284e-09 0)
(8.72989e-11 -1.2713e-09 0)
(-3.00567e-12 -2.24081e-09 0)
(-2.91345e-12 -6.1107e-10 0)
(1.22509e-10 -5.57932e-09 0)