/*--------------------------------*- C++ -*----------------------------------*\
  =========                 |
  \\      /  F ield         | OpenFOAM: The Open Source CFD Toolbox
   \\    /   O peration     | Website:  https://openfoam.org
    \\  /    A nd           | Version:  12
     \\/     M anipulation  |
\*---------------------------------------------------------------------------*/
FoamFile
{
    format      ascii;
    class       volScalarField::Internal;
    location    "0.1";
    object      cloud:UCoeff;
}
// * * * * * * * * * * * * * * * * * * * * * * * * * * * * * * * * * * * * * //

dimensions      [1 0 0 0 0 0 0];

value           nonuniform List<scalar> 
3750
(
1.5198e-07
6.48694e-08
2.05966e-08
2.40009e-08
5.91373e-08
5.96408e-08
6.496e-08
6.44667e-08
5.84145e-08
6.02525e-08
6.22183e-08
6.92154e-08
6.80684e-08
6.48252e-08
6.18506e-08
6.08651e-08
6.56842e-08
6.43122e-08
6.0209e-08
1.49635e-07
0
5.84673e-08
5.95591e-08
6.20336e-08
6.10211e-08
1.46075e-07
6.25278e-08
6.45696e-08
6.3631e-08
6.50286e-08
6.57842e-08
0
5.8666e-08
5.74742e-08
5.79287e-08
9.64048e-08
9.74875e-08
6.36693e-08
6.34e-08
6.45675e-08
6.44096e-08
6.29134e-08
6.35865e-08
6.60826e-08
0
6.51571e-08
6.3257e-08
5.9503e-08
1.52559e-07
6.65575e-08
0
5.91738e-08
6.32807e-08
6.21998e-08
6.13709e-08
6.59388e-08
6.25843e-08
6.80071e-08
1.46059e-07
0
1.15541e-07
1.84346e-08
4.39083e-08
6.00068e-08
5.88113e-08
6.31061e-08
5.92948e-08
6.00452e-08
5.94851e-08
6.44008e-08
6.17309e-08
5.99371e-08
0
0
0
5.38461e-08
5.27917e-08
5.92393e-08
6.12373e-08
6.20106e-08
6.90533e-08
5.79261e-08
5.98524e-08
6.56607e-08
6.19897e-08
6.40302e-08
5.97667e-08
5.71424e-08
5.58751e-08
5.87015e-08
5.42908e-08
5.79212e-08
5.68816e-08
5.86856e-08
5.11761e-08
5.0254e-08
5.75085e-08
6.32432e-08
6.18712e-08
6.16164e-08
6.21588e-08
5.83728e-08
5.5594e-08
5.62834e-08
5.80572e-08
5.92079e-08
5.85789e-08
6.53996e-08
5.98007e-08
6.21045e-08
6.15286e-08
5.83162e-08
5.75242e-08
5.9994e-08
5.98528e-08
5.74158e-08
5.86113e-08
5.98779e-08
6.07345e-08
6.25411e-08
5.56596e-08
6.32101e-08
6.1487e-08
5.7935e-08
6.01933e-08
6.4326e-08
6.28654e-08
1.5993e-07
2.79288e-08
1.72925e-08
1.21739e-07
8.61078e-08
6.33922e-08
5.78787e-08
6.47773e-08
6.35094e-08
0
6.25564e-08
5.79914e-08
5.56962e-08
5.06316e-08
5.93395e-08
1.55871e-07
1.37207e-08
4.30266e-08
6.25019e-08
0
0
0
0
6.11159e-08
5.92688e-08
5.99807e-08
6.35671e-08
6.28241e-08
6.23949e-08
6.50238e-08
6.65755e-08
6.43263e-08
6.25532e-08
6.44502e-08
8.84836e-08
4.92455e-08
5.79784e-08
6.05165e-08
8.42128e-08
4.27277e-08
5.60363e-08
6.35389e-08
6.00411e-08
6.53386e-08
6.47047e-08
6.33585e-08
6.2397e-08
6.08206e-08
6.18537e-08
6.09319e-08
5.98922e-08
6.13441e-08
6.28918e-08
1.21382e-07
6.17495e-09
6.19589e-08
5.88394e-08
6.01417e-08
6.06921e-08
6.11292e-08
6.43652e-08
6.52577e-08
6.22582e-08
5.90812e-08
6.61269e-08
6.33799e-08
6.20564e-08
6.41551e-08
6.65427e-08
5.96122e-08
1.53094e-07
6.55063e-08
3.22865e-08
8.75059e-08
5.77307e-08
5.39791e-08
6.32666e-08
1.11721e-08
1.27614e-07
2.53059e-09
6.1001e-08
6.39946e-08
6.83085e-08
6.93693e-08
6.32216e-08
1.16477e-07
8.2502e-08
5.72444e-08
5.36198e-08
5.33971e-08
5.11495e-08
5.47782e-08
5.69444e-08
0
0
0
0
0
6.08602e-08
6.45293e-08
6.67098e-08
6.17551e-08
6.29935e-08
1.16429e-07
3.03958e-08
3.7834e-08
6.62718e-08
6.31091e-08
8.17522e-08
1.36162e-07
6.51671e-08
5.83111e-08
5.53286e-08
5.69013e-08
6.04648e-08
5.77652e-08
0
5.95737e-08
1.42651e-07
5.9175e-08
6.27511e-08
3.02567e-08
8.34853e-08
1.66332e-08
1.13865e-07
5.72483e-08
5.61622e-08
6.13124e-08
5.91922e-08
0
5.87883e-08
6.01432e-08
6.30652e-08
6.26896e-08
6.27665e-08
6.30742e-08
6.54931e-08
6.43839e-08
6.0583e-08
6.28261e-08
6.73775e-08
1.52715e-07
2.37271e-08
4.56524e-08
9.57592e-08
8.30468e-08
2.6968e-08
9.64068e-08
6.7091e-08
6.24626e-08
5.59335e-08
6.37286e-08
1.18893e-08
1.27949e-07
2.28882e-08
2.34865e-08
5.95322e-08
6.55362e-08
6.28113e-08
6.66538e-08
1.13981e-07
8.96549e-08
6.00156e-08
6.08395e-08
5.81723e-08
5.72473e-08
5.87665e-08
6.72963e-08
0
0
0
0
0
6.73085e-08
9.73893e-08
6.57342e-08
5.44643e-08
5.18365e-08
5.3912e-08
6.31997e-08
3.11932e-08
9.01416e-08
3.08793e-08
9.18221e-08
6.21052e-08
6.31736e-08
5.97922e-08
5.71003e-08
5.16272e-08
5.66563e-08
5.68431e-08
4.93786e-08
5.52663e-08
5.65411e-08
5.72625e-08
0
1.16753e-07
8.35349e-08
2.56593e-08
1.74105e-08
5.91379e-08
5.71068e-08
1.09533e-07
9.14848e-08
0
6.10673e-08
6.30253e-08
6.2818e-08
6.10328e-08
6.16797e-08
6.19357e-08
6.07333e-08
6.43581e-08
6.40255e-08
1.07251e-07
9.79358e-08
6.7091e-08
6.67883e-08
2.58756e-08
1.5955e-08
6.12229e-08
6.61283e-08
6.73516e-08
6.72212e-08
6.70368e-08
6.94625e-08
6.718e-08
6.44364e-08
6.55317e-08
6.31726e-08
1.56302e-07
6.23399e-09
5.26268e-08
6.03064e-08
6.17325e-08
1.03209e-07
3.6193e-08
1.33915e-07
6.04171e-08
6.48698e-08
5.98405e-08
5.8786e-08
6.11692e-08
0
0
0
0
0
5.89753e-08
5.39067e-08
6.19476e-08
5.57911e-08
5.75716e-08
5.46864e-08
6.42929e-08
3.66426e-08
8.51635e-08
1.60251e-08
8.17113e-08
1.05414e-07
6.60814e-08
6.21316e-08
5.56701e-08
1.48836e-08
1.04285e-07
5.82771e-08
5.68499e-08
5.26323e-08
5.60508e-08
6.19803e-08
2.65156e-09
5.95169e-08
6.59252e-08
6.66941e-08
6.72995e-08
6.32592e-08
6.03616e-08
6.16999e-08
6.45296e-08
6.76697e-08
6.66889e-08
6.3898e-08
6.55124e-08
6.28788e-08
6.46313e-08
6.28727e-08
6.01373e-08
6.93185e-08
5.21824e-08
9.90738e-08
1.08261e-07
6.99325e-08
6.92257e-08
2.6149e-08
1.78498e-08
6.27626e-08
1.50918e-07
0
5.97999e-08
6.17943e-08
7.42161e-08
6.18515e-08
6.75681e-08
5.88745e-08
6.21857e-08
1.06487e-07
1.04512e-07
2.03833e-08
2.57861e-08
5.92095e-08
5.90533e-08
5.84796e-08
6.14162e-08
8.62027e-08
1.24981e-07
6.34256e-08
5.06297e-08
5.54029e-08
0
0
0
0
0
1.29365e-07
5.93333e-08
0
6.14833e-08
1.13605e-07
8.36435e-08
2.89226e-08
9.54179e-08
6.90165e-08
1.86946e-08
1.21838e-07
6.87259e-08
3.21199e-08
6.36771e-09
6.05349e-08
6.02741e-08
6.68657e-08
6.45185e-08
6.43107e-08
5.99215e-08
6.11278e-08
6.33957e-08
6.38583e-08
6.59613e-08
6.41259e-08
6.46783e-08
6.49059e-08
6.45413e-08
6.65563e-08
6.47214e-08
9.07941e-08
6.52542e-08
1.17403e-07
0
6.3204e-08
7.18789e-08
1.11504e-07
2.98703e-09
5.97723e-08
9.45052e-08
2.9323e-08
6.73931e-08
1.56536e-07
7.345e-08
6.94937e-08
2.60728e-08
9.98114e-08
5.69832e-08
5.21701e-08
1.65189e-08
2.75996e-08
1.13556e-07
3.96054e-08
1.19793e-07
1.9138e-08
3.07288e-08
6.18062e-08
1.01941e-07
1.12435e-07
6.57472e-08
5.81102e-08
5.30806e-08
5.65333e-08
6.29279e-08
2.12823e-08
6.67622e-08
9.91323e-08
3.26029e-08
8.16661e-08
2.43424e-08
1.27864e-08
0
0
0
0
5.86769e-08
5.84221e-08
5.62513e-08
5.50156e-08
2.88742e-08
8.48992e-08
2.62316e-08
7.61802e-08
8.46922e-08
6.34967e-08
6.78841e-08
2.88457e-08
6.64012e-08
7.82789e-09
5.83974e-08
5.96705e-08
6.50782e-08
6.37103e-08
6.29836e-08
6.33139e-08
1.06442e-07
4.92564e-08
6.24252e-08
3.81474e-08
6.21067e-08
6.16177e-08
7.32837e-08
9.54674e-08
7.75756e-08
7.82345e-08
2.30447e-08
9.8614e-08
5.69931e-08
5.62898e-08
5.26399e-08
4.99826e-08
5.57046e-08
5.65756e-08
5.36954e-08
6.30421e-08
3.36121e-08
5.19721e-08
9.87275e-08
7.00026e-08
6.81826e-08
2.01371e-08
1.12379e-07
5.95648e-08
5.82886e-08
5.71675e-08
6.0454e-08
6.72206e-08
3.23951e-08
8.16313e-08
3.30571e-08
6.09183e-09
6.2356e-08
6.4603e-08
6.51596e-08
1.60486e-07
6.3367e-08
5.38044e-08
5.80178e-08
6.473e-08
1.27381e-08
4.57882e-08
5.57965e-08
6.2435e-08
6.59804e-08
5.94377e-08
6.45827e-08
0
0
0
0
4.25307e-08
1.51911e-07
6.20564e-08
6.0944e-08
0
5.9246e-08
6.87229e-08
1.45924e-07
6.66484e-08
6.54916e-08
6.80612e-08
1.53423e-08
5.25884e-08
7.11865e-08
3.71336e-08
6.25253e-08
6.73551e-08
9.62077e-08
6.4749e-08
3.58359e-08
8.97814e-08
1.04771e-07
2.15047e-08
2.6293e-08
6.20985e-08
1.58198e-07
6.20687e-08
5.33089e-08
5.42449e-08
5.72544e-08
5.85857e-08
6.34707e-08
6.55112e-08
5.81928e-08
5.95379e-08
5.66836e-08
5.44687e-08
5.37244e-08
5.23688e-08
5.26879e-08
5.24588e-08
6.29147e-08
6.75529e-08
6.82142e-08
6.64628e-08
3.10095e-08
9.13421e-08
5.89909e-08
5.52322e-08
5.45206e-08
5.01565e-08
5.49216e-08
5.59061e-08
5.835e-08
6.2678e-08
3.15532e-08
8.30176e-08
2.94665e-08
3.05133e-08
1.03317e-07
8.06206e-08
0
5.77221e-08
7.77454e-08
4.8053e-08
1.12839e-07
1.5576e-08
5.96313e-08
5.98813e-08
6.12687e-08
6.05666e-08
0
0
0
0
4.81707e-08
6.18344e-08
6.60107e-08
6.21705e-08
6.25365e-08
6.24245e-08
6.28905e-08
6.37857e-08
6.71103e-08
1.69906e-07
7.18122e-08
0
6.33874e-08
6.29551e-08
1.52389e-07
6.36033e-08
6.12909e-08
3.21392e-08
2.79805e-08
5.36694e-08
1.0328e-07
8.07204e-08
2.33322e-08
1.04883e-07
6.041e-08
6.03599e-08
5.54365e-08
5.34163e-08
5.35927e-08
5.60725e-08
5.56302e-08
5.66841e-08
6.15087e-08
5.81776e-08
5.75957e-08
5.78067e-08
4.94579e-08
5.87691e-08
5.36116e-08
5.77576e-08
6.19047e-08
6.71958e-08
6.78579e-08
6.97977e-08
6.8015e-08
6.51124e-08
0
6.64729e-08
1.31912e-07
5.94971e-08
5.67955e-08
5.21805e-08
5.67961e-08
5.95185e-08
5.8987e-08
5.39824e-08
6.37004e-08
6.44148e-08
3.33736e-09
5.72835e-08
1.1276e-07
1.34008e-08
6.35932e-08
6.45347e-08
6.4781e-08
6.55014e-08
6.24451e-08
6.39211e-08
6.56609e-08
6.03029e-08
6.31751e-08
0
0
0
0
6.45195e-08
6.27221e-08
6.75815e-08
5.85046e-08
6.14432e-08
8.85971e-08
3.66215e-08
6.04485e-08
1.54229e-07
7.24274e-08
6.94456e-08
1.63167e-08
3.42239e-08
6.02182e-08
5.92287e-08
1.21706e-07
1.002e-08
6.41942e-08
6.0804e-08
6.74776e-08
6.51472e-08
6.5127e-08
6.82026e-08
1.52612e-07
6.15498e-08
6.52255e-08
6.20374e-08
5.50532e-08
5.87331e-08
6.02551e-08
5.68965e-08
5.83775e-08
5.9945e-08
5.71946e-08
5.55913e-08
5.88526e-08
5.61907e-08
3.37705e-08
4.14376e-08
1.92297e-08
1.18942e-07
7.93035e-08
6.60377e-08
6.76743e-08
6.72869e-08
0
6.34405e-08
6.33081e-08
6.20669e-08
6.40637e-08
6.05716e-08
6.61132e-08
1.52924e-07
1.948e-08
7.6843e-08
9.15379e-08
6.6123e-08
3.59029e-08
2.39164e-08
4.62796e-08
6.34636e-08
6.31885e-08
6.26364e-08
5.97309e-08
6.14274e-08
6.5159e-08
6.20748e-08
6.65111e-08
6.52627e-08
6.4616e-08
6.2882e-08
0
0
0
0
1.10266e-07
4.62926e-08
5.02036e-08
5.55445e-08
1.34939e-07
5.94603e-08
5.02489e-08
5.40771e-08
5.86668e-08
6.67957e-08
6.71347e-08
6.50381e-08
6.17689e-08
8.11576e-10
5.85238e-08
6.10801e-08
6.3489e-08
6.56236e-08
6.36142e-08
6.29254e-08
6.35085e-08
6.01836e-08
6.52771e-08
1.59942e-07
6.20299e-08
6.32499e-08
6.44251e-08
5.93509e-08
5.87523e-08
6.37978e-08
7.03673e-09
9.24824e-08
2.343e-08
1.41835e-07
6.3347e-08
3.06111e-08
8.09346e-08
5.99942e-08
5.83385e-08
5.35581e-08
5.7238e-08
5.40882e-08
6.05132e-08
6.73189e-08
6.71898e-08
1.98693e-08
2.835e-08
6.35968e-08
6.27904e-08
8.43381e-08
1.00043e-07
8.31101e-08
6.62006e-08
6.48849e-08
6.3712e-08
3.05045e-08
6.35198e-08
6.49954e-08
8.96145e-08
3.24538e-08
4.80942e-09
5.92321e-08
6.04467e-08
6.0459e-08
6.14922e-08
5.9844e-08
5.90785e-08
6.15131e-08
6.45586e-08
6.35537e-08
6.15814e-08
0
0
0
0
6.33583e-08
2.71882e-08
2.36086e-08
8.62069e-08
4.70552e-08
4.12377e-08
6.43291e-08
1.58486e-07
2.94738e-08
1.00664e-07
6.90226e-08
3.63084e-08
7.68306e-08
5.84788e-08
0
1.04019e-07
4.77584e-08
1.15671e-07
5.84047e-08
6.28888e-08
0
6.5635e-08
1.0272e-07
1.02882e-07
5.94249e-08
6.6225e-08
6.213e-08
5.59811e-08
6.16383e-08
0
5.809e-08
6.05325e-08
6.0062e-08
6.38753e-08
6.41049e-08
6.09772e-08
6.155e-08
6.4431e-08
1.49174e-07
6.07786e-08
5.81155e-08
0
1.52448e-07
6.93551e-08
3.77186e-08
4.93112e-08
1.68653e-08
1.17053e-07
8.01802e-08
1.4639e-08
8.6225e-08
8.95298e-08
1.87764e-08
4.07312e-08
1.42537e-07
2.88785e-08
5.35229e-08
1.05801e-07
6.80007e-08
9.58055e-09
4.62924e-08
6.19451e-08
6.39447e-08
6.44628e-08
6.32515e-08
6.15061e-08
6.29168e-08
6.33954e-08
6.09422e-08
6.21018e-08
6.27651e-08
0
0
0
0
9.29804e-08
3.33988e-08
1.38839e-08
1.09585e-07
7.81082e-08
2.85606e-08
9.29321e-08
4.61894e-09
7.95004e-08
6.02815e-08
8.4776e-08
1.12921e-07
5.94087e-08
5.89604e-08
6.12394e-08
5.64583e-08
5.10215e-08
5.65176e-08
5.45078e-08
5.25924e-08
5.75033e-08
5.9857e-08
6.02921e-08
6.03049e-08
5.64396e-08
6.48042e-08
0
6.10456e-08
5.82921e-08
6.21674e-08
6.17428e-08
6.06617e-08
6.33229e-08
6.29945e-08
7.09045e-08
6.24993e-08
6.69736e-08
9.64228e-08
1.06932e-07
5.18848e-08
5.51138e-08
0
6.04371e-08
6.3929e-08
1.12356e-07
8.01244e-08
8.02145e-08
6.1792e-08
5.97368e-08
2.28263e-08
1.93039e-08
6.15945e-08
6.4186e-08
6.26963e-08
1.56429e-07
6.27519e-08
6.34853e-08
6.39648e-08
6.40474e-08
1.21696e-08
3.9792e-08
1.51996e-07
3.03223e-08
4.33374e-08
2.85384e-08
6.00125e-08
1.49213e-07
9.22617e-09
4.16811e-08
9.64022e-08
2.45395e-08
0
0
0
0
6.44543e-08
6.08209e-08
1.54333e-07
5.65904e-08
5.45976e-08
6.18979e-08
6.3019e-08
6.50901e-08
3.37637e-08
6.07702e-08
1.61589e-08
1.44959e-07
6.27847e-08
2.79399e-08
8.8222e-08
0
1.07352e-07
9.46296e-08
6.18842e-08
5.98843e-08
6.29194e-08
6.61537e-08
6.43464e-08
0
6.13426e-08
6.3751e-08
6.5271e-08
6.6813e-08
5.73874e-08
5.96886e-08
6.04438e-08
6.25971e-08
6.24139e-08
6.2985e-08
6.5597e-08
9.48947e-08
5.67425e-08
3.92506e-08
5.95316e-08
6.19781e-08
6.09039e-08
5.93766e-08
6.06662e-08
6.80708e-08
6.48777e-08
1.59986e-07
5.76117e-08
6.23261e-08
6.29553e-08
2.07732e-08
2.37125e-08
6.5853e-08
6.68472e-08
6.66886e-08
1.10272e-07
9.7386e-08
3.46523e-08
4.71799e-09
6.66166e-08
6.75561e-08
1.43981e-07
5.90267e-08
6.23299e-08
5.78275e-08
5.39453e-08
5.78633e-08
5.69105e-08
6.01368e-08
5.44144e-08
6.31427e-08
0
0
0
0
0
5.76728e-08
6.03766e-08
9.11026e-08
1.12616e-07
6.63992e-08
6.23533e-08
5.66601e-08
6.34938e-08
0
1.16191e-07
5.64132e-08
3.66243e-08
1.35823e-07
6.12525e-08
5.64076e-08
6.19329e-08
0
6.24454e-08
6.16993e-08
7.45555e-08
1.37781e-07
6.93604e-08
2.79205e-08
1.67974e-08
6.11218e-08
6.06972e-08
6.24834e-08
6.64685e-08
6.09055e-08
5.95252e-08
1.02449e-07
1.01612e-07
6.40083e-08
2.35598e-08
1.04591e-07
5.80139e-08
2.82778e-09
5.5834e-08
6.05337e-08
5.94088e-08
6.17248e-08
6.14937e-08
6.21805e-08
9.88059e-08
7.31415e-08
1.00254e-07
5.81297e-08
1.00918e-09
1.52121e-07
6.39156e-08
0
6.10008e-08
6.11434e-08
6.45257e-08
6.0738e-08
6.27981e-08
1.15312e-07
9.84132e-08
6.59108e-08
5.53592e-08
4.83263e-08
5.05367e-08
6.0937e-08
5.98029e-08
5.60899e-08
5.71009e-08
5.76721e-08
6.362e-08
6.41816e-08
6.55046e-08
0
0
0
0
0
5.72459e-08
5.98143e-08
5.97366e-08
6.32974e-08
6.26908e-08
5.80176e-08
5.36737e-08
5.72824e-08
6.2674e-08
6.58709e-08
6.5395e-08
0
6.46166e-08
1.07242e-07
9.54253e-08
6.0145e-08
5.83422e-08
2.43192e-08
3.02362e-08
6.01531e-08
1.39596e-07
6.56287e-08
6.33734e-08
6.07841e-08
2.91738e-08
7.26065e-09
5.91121e-08
6.24671e-08
6.26112e-08
6.07417e-08
1.50065e-07
5.98863e-08
2.93984e-08
9.69853e-08
0
6.27952e-08
6.3024e-08
6.12442e-08
6.60122e-08
5.75614e-08
6.02119e-08
6.01187e-08
9.66664e-08
7.17879e-08
4.09886e-08
6.24436e-08
1.03458e-07
2.81235e-09
6.28123e-08
6.17396e-08
6.30244e-08
6.36916e-08
6.40061e-08
6.42111e-08
6.28784e-08
6.85657e-08
6.64115e-08
8.58905e-08
6.44579e-08
1.11133e-07
7.73426e-08
6.25385e-08
6.45538e-08
5.4431e-08
5.4704e-08
6.10667e-08
6.18598e-08
6.7143e-08
1.37608e-08
5.3036e-08
5.46804e-08
0
0
0
0
5.56812e-08
5.99929e-08
5.93409e-08
5.67222e-08
6.43265e-09
1.39415e-07
6.05237e-08
0
9.40426e-08
1.22853e-07
2.87008e-08
1.47349e-08
6.02722e-08
6.37198e-08
6.59218e-08
8.81877e-08
1.22369e-07
6.45941e-08
5.67443e-08
6.0516e-08
6.22527e-08
5.42275e-08
5.20511e-08
6.01137e-08
6.13737e-08
6.19118e-08
8.08117e-09
9.22305e-08
4.13461e-08
3.42474e-08
1.14869e-07
8.56582e-08
6.35046e-08
6.49987e-08
0
6.03331e-08
6.36698e-08
6.53395e-08
6.31626e-08
6.43766e-08
6.30826e-08
6.23148e-08
8.14494e-08
6.3386e-08
4.65545e-08
7.52786e-08
5.01762e-08
6.17041e-08
6.07219e-08
6.24541e-08
6.8989e-08
6.62925e-08
6.54849e-08
7.35094e-08
7.11277e-08
4.51893e-08
6.17763e-08
9.63176e-08
1.15332e-07
3.46714e-08
5.5149e-08
3.95501e-08
1.2397e-07
5.97482e-08
5.87563e-08
6.00764e-08
6.43945e-08
1.9963e-08
6.13764e-08
8.58891e-08
6.47318e-09
0
0
0
0
6.71499e-08
1.48853e-07
0
6.50388e-08
6.44405e-08
6.42443e-08
6.61522e-08
6.32306e-08
6.23941e-08
5.96375e-08
1.05867e-07
2.54885e-08
6.30113e-08
6.02148e-08
5.97918e-08
5.92937e-08
1.19442e-07
8.62157e-08
6.23357e-08
5.34282e-08
6.02224e-08
6.0269e-08
6.1259e-08
6.2978e-08
6.18417e-08
6.20929e-08
5.68893e-08
6.06106e-08
6.19829e-08
2.42452e-08
2.79178e-08
1.39029e-07
2.87084e-08
9.71762e-08
0
6.40379e-08
1.52171e-07
6.17562e-08
4.92708e-08
5.07993e-08
6.20349e-08
6.44739e-08
1.95987e-08
2.69021e-08
7.33884e-08
4.6543e-08
5.97721e-08
6.10124e-08
6.16934e-08
6.38119e-08
8.4102e-08
6.36105e-08
1.40214e-07
2.20406e-08
4.55678e-08
3.59274e-08
1.48544e-07
6.51945e-08
5.94177e-08
6.47217e-08
2.56214e-08
9.82331e-08
6.22264e-08
5.9563e-08
5.79959e-08
6.05942e-08
6.14384e-08
6.04201e-08
5.96489e-08
5.93613e-08
0
0
0
0
0
6.34944e-08
6.04747e-08
6.42548e-08
6.70476e-08
6.22787e-08
6.13001e-08
6.89739e-08
5.94665e-08
6.11418e-08
6.70957e-08
6.56881e-08
6.9367e-08
6.98084e-08
8.66857e-08
5.05662e-08
7.97049e-08
1.06738e-07
6.7702e-08
6.34492e-08
6.28197e-08
5.95782e-08
6.11866e-08
5.52125e-08
5.90099e-08
5.72048e-08
5.50665e-08
5.2463e-08
5.67561e-08
5.83389e-08
0
5.9836e-08
7.52333e-08
5.04805e-08
1.02382e-07
1.11803e-07
6.40813e-08
6.28119e-08
5.53507e-08
4.91524e-08
5.02779e-08
6.22087e-08
6.5225e-08
1.49366e-08
3.45527e-08
5.8435e-08
6.04894e-08
6.40184e-08
6.42163e-08
6.15488e-08
1.53834e-07
6.80947e-08
6.55632e-08
6.39645e-08
6.08466e-08
5.75483e-08
5.5983e-08
5.67976e-08
6.50175e-08
6.61134e-08
3.75513e-08
8.25393e-08
6.28367e-08
6.10847e-08
5.21512e-08
4.90895e-08
5.81694e-08
5.99771e-08
5.76518e-08
5.79018e-08
5.94882e-08
0
0
0
0
0
6.55506e-08
6.0571e-08
6.37664e-08
6.26748e-08
6.67709e-08
6.53028e-08
6.87327e-08
6.55705e-08
9.46929e-08
3.47764e-08
6.13209e-08
6.07156e-08
6.39864e-08
1.59199e-07
3.34961e-08
8.47253e-08
3.72371e-08
8.31323e-08
6.41971e-08
5.98156e-08
5.93985e-08
5.97811e-08
6.2808e-08
5.36912e-08
5.72771e-08
5.90878e-08
5.87436e-08
6.21741e-08
5.76019e-08
5.30591e-08
5.41642e-08
5.9829e-08
6.02208e-08
6.80206e-08
6.76521e-08
6.50706e-08
6.38805e-08
1.03001e-08
1.23934e-07
6.1231e-08
5.95616e-08
6.45971e-08
0
5.93553e-08
6.04273e-08
6.32515e-08
6.33251e-08
6.57936e-08
9.08047e-08
1.17751e-07
6.61532e-08
6.50397e-08
5.80829e-08
5.92253e-08
5.63394e-08
5.54627e-08
5.44101e-08
6.59223e-08
6.84786e-08
6.67568e-08
0
6.1065e-08
6.13712e-08
6.29263e-08
6.1871e-08
6.34368e-08
1.0837e-07
8.62772e-08
6.0112e-08
6.21651e-08
0
0
0
0
0
5.82417e-08
8.93189e-08
1.13866e-07
5.21556e-09
6.44052e-08
7.71333e-08
9.69641e-08
8.30342e-08
6.35896e-08
2.75102e-08
1.08812e-08
5.87402e-08
6.23093e-08
9.42908e-08
6.31344e-08
1.23278e-07
6.76742e-08
2.94983e-08
8.58264e-08
5.74399e-08
5.56049e-08
6.18606e-08
6.70811e-08
0
1.11378e-07
8.86211e-08
5.94957e-08
6.27192e-08
6.41105e-08
3.04935e-08
7.36593e-08
5.99067e-08
5.82948e-08
6.60584e-08
6.62302e-08
3.03508e-09
6.09915e-08
1.54417e-07
6.2448e-08
5.97151e-08
5.66198e-08
6.27364e-08
0
6.07795e-08
6.12602e-08
6.48624e-08
8.01253e-08
1.18889e-07
6.61212e-08
6.21755e-08
6.50796e-08
6.85652e-08
6.18833e-08
5.13822e-08
5.40068e-08
1.16556e-08
1.23458e-07
6.9107e-08
6.88495e-08
3.05924e-08
9.81197e-09
6.02578e-08
6.1802e-08
6.25598e-08
6.36656e-08
6.43461e-08
6.44125e-08
6.68607e-08
6.1954e-08
6.02834e-08
6.10621e-08
0
0
0
0
5.90827e-08
5.86498e-08
5.8836e-08
6.34023e-08
1.29465e-08
7.01368e-08
3.77252e-08
1.39251e-07
6.4192e-08
2.45649e-08
1.91339e-08
1.50289e-07
5.87511e-08
6.32295e-08
6.52463e-08
6.31189e-08
6.72804e-08
2.75847e-08
6.05453e-08
9.03273e-08
6.37909e-08
6.50159e-08
6.66421e-08
6.18041e-08
6.04783e-08
5.2986e-08
5.30873e-08
6.27266e-08
1.48124e-08
1.20349e-07
5.8962e-08
5.68305e-08
6.18015e-08
6.35366e-08
6.42377e-08
6.43077e-08
6.42975e-08
5.97549e-08
5.5854e-08
0
6.23603e-08
6.19198e-08
9.4753e-08
1.07818e-07
6.00959e-08
5.27764e-08
5.58796e-08
5.82318e-08
5.6017e-08
5.37241e-08
5.63173e-08
6.45499e-08
1.46728e-08
1.16783e-07
6.17845e-08
0
6.03333e-08
6.78442e-08
6.64128e-08
8.89178e-08
4.28713e-08
6.27979e-08
6.28174e-08
5.99528e-08
6.07268e-08
5.90986e-08
5.27064e-08
5.78917e-08
6.19981e-08
6.69875e-08
6.47965e-08
0
0
0
0
5.48985e-08
6.15441e-08
6.46643e-08
6.54017e-08
1.17938e-08
4.05697e-08
6.07809e-08
1.13825e-07
5.31791e-08
1.02315e-07
6.1817e-08
5.38414e-08
5.50272e-08
6.30314e-08
6.22632e-08
5.88953e-08
6.28692e-08
2.31785e-08
3.4532e-08
4.9686e-08
6.6899e-08
6.61885e-08
6.24794e-08
6.37767e-08
6.24052e-08
6.14509e-08
1.03913e-07
1.45355e-08
6.14184e-08
1.58622e-07
6.32353e-08
2.67785e-09
5.63124e-08
6.23131e-08
1.26579e-07
8.48067e-08
6.32748e-08
5.43186e-08
5.72114e-08
6.19304e-08
6.11264e-08
5.89212e-08
6.00638e-08
5.63734e-08
5.49491e-08
5.50403e-08
6.23045e-08
3.18944e-08
8.00393e-08
6.36484e-08
6.08969e-08
2.58346e-08
1.26179e-08
6.75775e-08
6.53447e-08
6.56726e-08
6.44246e-08
6.65962e-08
6.58758e-08
6.66144e-08
6.38126e-08
6.2489e-08
6.58093e-08
6.50665e-08
6.45225e-08
6.31435e-08
6.10266e-08
6.25713e-08
6.46051e-08
1.23152e-07
1.17805e-09
0
0
0
0
6.16128e-08
6.07968e-08
2.83076e-08
1.18407e-08
8.85303e-08
7.04364e-08
4.61663e-08
4.20073e-08
8.58236e-08
1.25115e-07
6.38582e-08
5.8248e-08
6.1525e-08
6.03439e-08
6.27622e-08
6.104e-08
5.64464e-08
5.40457e-08
6.23218e-08
6.41985e-08
6.16719e-08
2.61496e-08
1.29417e-08
6.88819e-08
9.05638e-08
2.22133e-08
5.80945e-08
5.80744e-08
1.49938e-07
6.15188e-08
6.24415e-08
1.20463e-08
7.64347e-08
1.07922e-07
6.06858e-08
6.0905e-08
6.21711e-08
5.88502e-08
5.57973e-08
5.87522e-08
5.62382e-08
5.72069e-08
5.5415e-08
5.17885e-08
5.55754e-08
5.57834e-08
6.51216e-08
6.45406e-08
2.87052e-08
8.74822e-08
5.81682e-08
5.78819e-08
5.72819e-08
6.61268e-08
0
6.15825e-08
6.47889e-08
6.5316e-08
6.61284e-08
6.78768e-08
6.85895e-08
6.79321e-08
6.50611e-08
6.49995e-08
6.54159e-08
1.49051e-07
5.44267e-08
5.26161e-08
5.42948e-08
2.2134e-08
2.08909e-08
0
0
0
0
6.29257e-08
6.26307e-08
6.28945e-08
6.57072e-08
9.81541e-08
4.97373e-08
6.33899e-08
4.13543e-08
6.2279e-08
6.20735e-08
1.09471e-07
9.09537e-08
6.38095e-08
6.08629e-08
6.02785e-08
6.30448e-08
6.02126e-08
5.51739e-08
6.28185e-08
6.27801e-08
1.22928e-08
7.13931e-08
3.08426e-08
5.90462e-08
5.82485e-08
6.07129e-08
5.95096e-08
5.908e-08
5.95979e-08
1.57355e-07
6.53667e-08
1.78886e-08
6.25391e-08
1.1788e-07
6.1594e-08
5.98128e-08
6.12999e-08
5.2808e-08
5.52594e-08
5.33975e-08
5.92202e-08
5.93974e-08
6.07052e-08
5.9259e-08
6.16278e-08
6.30392e-08
6.28527e-08
6.57498e-08
7.67947e-09
5.01472e-08
6.05295e-08
6.34592e-08
6.36197e-08
1.57817e-07
0
6.12872e-08
6.43011e-08
6.37238e-08
9.7698e-08
1.10952e-07
6.73532e-08
6.41951e-08
2.85515e-08
8.68987e-08
5.80018e-08
5.21092e-08
5.60011e-08
6.16728e-08
6.29321e-08
2.78407e-08
1.13398e-08
0
0
0
0
6.45231e-08
6.45401e-08
6.59177e-08
6.68437e-08
6.65201e-08
6.5793e-08
6.45426e-08
6.28611e-08
6.26627e-08
6.15078e-08
6.03242e-08
1.52929e-07
6.64073e-08
6.27563e-08
6.36041e-08
2.02371e-09
5.97475e-08
9.77242e-08
5.99657e-08
4.52073e-08
5.2147e-08
6.21959e-08
5.8985e-08
6.42251e-08
6.79881e-08
6.33001e-08
6.23909e-08
6.78171e-08
6.38437e-08
6.28022e-08
6.75738e-08
6.7024e-08
8.34219e-08
8.84726e-08
2.33095e-08
6.13522e-08
6.13311e-08
6.20217e-08
6.32213e-08
6.0153e-08
7.69937e-08
9.92926e-08
8.50566e-08
6.01057e-08
6.07108e-08
6.12077e-08
6.39764e-08
6.34037e-08
1.90217e-08
2.76213e-08
6.02321e-08
1.56448e-07
0
6.3324e-08
6.45279e-08
1.54751e-07
6.84324e-08
6.33199e-08
5.83135e-08
6.1569e-08
5.81707e-08
6.51233e-08
6.31238e-08
5.55391e-08
5.53364e-08
5.3188e-08
6.08529e-08
1.2615e-08
4.00838e-08
6.32951e-08
6.28774e-08
0
0
0
0
5.93842e-09
6.0204e-08
6.20913e-08
6.47083e-08
6.3773e-08
6.63331e-08
6.39951e-08
6.74059e-08
5.8927e-08
1.13376e-07
1.90289e-08
5.30134e-08
1.55256e-07
5.95139e-08
1.43812e-08
3.42737e-08
6.09345e-08
6.51251e-08
6.50447e-08
6.32535e-08
6.4386e-08
6.36023e-08
6.11149e-08
6.19977e-08
6.45172e-08
6.42861e-08
9.08366e-08
3.72695e-08
6.07319e-08
6.32245e-08
6.16094e-08
8.27144e-08
5.78913e-08
8.05795e-08
3.80898e-08
6.52575e-08
6.1538e-08
6.05187e-08
6.78552e-08
6.60688e-08
6.05621e-08
6.00703e-08
6.22867e-08
6.21598e-08
6.35359e-08
1.1082e-07
5.46401e-08
1.03986e-07
2.53419e-08
4.04563e-08
1.20568e-07
6.16296e-08
5.62307e-08
5.93321e-08
6.13574e-08
6.42517e-08
6.50751e-08
6.33231e-08
2.95015e-08
9.16911e-09
6.40249e-08
9.05946e-08
3.78984e-08
6.39649e-08
6.18498e-08
6.21758e-08
1.15545e-07
4.22779e-08
3.173e-08
7.01726e-08
5.26566e-08
0
0
0
0
9.56632e-10
1.54065e-07
2.19861e-08
2.35157e-08
6.96377e-08
8.44038e-08
3.08289e-08
6.25713e-08
1.01537e-07
9.99903e-08
8.63725e-10
6.09402e-08
8.86958e-08
1.24676e-07
6.38943e-09
5.05706e-08
6.32378e-08
6.40762e-08
6.31807e-08
6.57113e-08
6.46071e-08
6.67024e-08
6.21448e-08
6.36668e-08
6.84532e-08
6.30304e-08
9.47698e-08
2.65256e-08
6.1514e-08
6.2446e-08
6.29557e-08
6.07098e-08
6.24208e-08
7.72906e-08
4.95552e-08
6.47157e-08
5.88674e-08
6.018e-08
6.26944e-08
6.37023e-08
6.00277e-08
6.02526e-08
6.16065e-08
6.20236e-08
6.79407e-08
6.46156e-08
6.12302e-08
6.75805e-08
6.31061e-08
6.4714e-08
8.50529e-08
1.28517e-07
6.40086e-08
5.5414e-08
6.21078e-08
6.52135e-08
1.02588e-08
9.74191e-08
4.51149e-08
3.08389e-08
6.46573e-08
6.24487e-08
6.36517e-08
6.43327e-08
6.41284e-08
6.54493e-08
6.50091e-08
6.61956e-08
6.37163e-08
6.32324e-08
6.15226e-08
0
0
0
0
6.34832e-08
6.41247e-08
6.17244e-08
6.16135e-08
5.8583e-08
5.97438e-08
2.40535e-08
2.4849e-08
5.54971e-08
6.1745e-08
6.11563e-08
6.41769e-08
6.57051e-08
6.67636e-08
7.78141e-08
1.08588e-07
3.99112e-08
4.8597e-08
4.7389e-08
5.39749e-08
6.16006e-08
6.23105e-08
8.65169e-08
7.486e-08
4.60195e-08
6.89304e-08
9.70513e-08
6.5183e-08
4.97753e-09
1.13534e-07
4.14482e-08
3.59792e-08
1.45316e-07
5.88547e-08
6.2418e-08
2.32131e-08
2.76861e-08
5.16531e-08
6.16186e-08
6.21599e-08
6.02487e-08
6.13991e-08
6.31418e-08
6.21728e-08
6.64094e-08
6.6032e-08
5.84765e-08
6.69105e-08
6.775e-08
1.55429e-07
6.4119e-08
3.26829e-08
8.41753e-08
6.28695e-08
6.73239e-08
6.73531e-08
8.56688e-09
7.42225e-08
1.24782e-07
6.36403e-08
1.9801e-08
2.61841e-08
6.15457e-08
6.5351e-08
6.26238e-08
6.1224e-08
6.49788e-08
6.25099e-08
6.55674e-08
6.34718e-08
6.31426e-08
0
0
0
0
8.01786e-08
1.25324e-07
6.56455e-08
6.40731e-08
5.35099e-08
5.62745e-08
6.44017e-08
5.75847e-09
5.4606e-08
6.40856e-08
6.29184e-08
6.19408e-08
6.13936e-08
6.17595e-08
6.22442e-08
6.1799e-08
6.03272e-08
5.99386e-08
8.32687e-08
3.94809e-08
6.06281e-08
5.97394e-08
9.97311e-08
1.09995e-07
1.29809e-08
4.19662e-08
6.38334e-08
6.68289e-08
6.51286e-08
6.54591e-08
6.76373e-08
6.45233e-08
8.34375e-08
1.28437e-07
6.17911e-08
5.98392e-08
5.34369e-08
0
5.93722e-08
5.87861e-08
6.12471e-08
8.33824e-08
7.15803e-08
4.37272e-08
6.08652e-08
5.79191e-08
7.03285e-08
1.39093e-07
5.37022e-08
5.60395e-08
5.9242e-08
2.92943e-08
8.88222e-08
3.05425e-09
1.21958e-07
3.8656e-08
6.94514e-08
1.09525e-07
5.865e-08
5.78479e-08
2.45562e-08
1.51433e-08
6.97972e-08
1.35723e-07
6.09279e-08
0
6.00595e-08
6.09039e-08
5.96199e-08
6.05691e-08
5.98146e-08
0
0
0
0
3.89131e-08
5.93486e-08
9.05551e-08
6.56296e-08
1.1827e-07
5.63491e-08
6.53478e-08
6.62582e-08
0
6.0119e-08
6.08439e-08
6.14191e-08
6.16336e-08
6.11137e-08
6.20017e-08
6.15936e-08
6.2317e-08
6.26053e-08
6.47283e-08
5.99901e-08
6.37443e-08
1.10062e-07
1.02742e-07
6.4106e-08
6.11212e-08
2.5761e-09
1.37493e-07
6.12435e-08
0
1.07854e-07
1.00328e-07
0
5.91462e-08
6.22847e-08
6.31174e-08
5.99412e-08
7.84165e-08
4.29544e-08
6.07461e-08
5.90582e-08
9.76401e-08
1.05966e-07
6.6906e-08
1.54784e-08
6.30972e-08
1.0609e-07
5.69847e-08
6.26247e-08
5.7942e-08
5.75671e-08
6.11742e-08
6.15917e-08
6.56368e-08
2.01387e-08
6.98542e-08
6.50484e-08
1.00077e-07
6.72806e-08
5.72655e-08
5.42674e-08
6.08104e-08
5.60406e-08
5.31465e-08
5.31054e-08
5.89624e-08
0
5.71982e-08
6.57222e-08
6.68556e-08
6.51624e-08
6.34908e-08
0
0
0
0
3.68562e-08
8.9024e-08
7.36091e-08
5.67422e-08
7.33177e-08
9.54898e-08
6.58806e-08
6.52785e-08
0
6.19217e-08
6.4087e-08
6.39547e-08
6.20438e-08
6.05575e-08
5.94166e-08
6.3358e-08
6.40694e-08
6.30179e-08
6.21729e-08
6.54841e-08
1.00529e-07
1.17165e-07
6.6089e-08
5.71115e-08
4.98588e-08
4.85504e-08
4.74609e-08
5.63266e-08
6.25377e-08
6.20047e-08
6.31553e-08
0
5.8895e-08
5.93176e-08
6.1521e-08
6.3938e-08
6.51324e-08
5.83301e-08
5.99964e-08
6.60083e-08
9.78408e-08
1.13768e-07
6.59475e-08
6.06445e-08
5.85178e-08
5.82893e-08
5.45855e-08
5.94797e-08
5.85713e-08
6.1689e-08
0
6.0844e-08
1.61138e-07
2.87362e-08
1.68373e-08
9.55136e-08
8.14932e-08
1.0306e-07
6.23966e-08
6.1674e-08
6.33956e-08
5.7943e-08
6.01512e-08
6.54833e-08
2.14201e-08
2.37606e-08
5.82937e-08
6.00467e-08
5.95617e-08
6.00983e-08
6.45144e-08
0
0
0
0
5.35066e-08
5.20384e-08
2.50521e-08
5.19742e-08
2.49654e-08
5.89048e-08
1.55418e-07
6.07738e-08
2.41417e-08
1.01718e-07
5.92225e-08
6.41351e-08
0
5.94211e-08
5.81787e-08
6.09394e-08
6.18046e-08
6.16191e-08
7.79849e-08
7.48521e-08
1.16226e-07
6.62537e-08
2.2711e-08
2.19617e-08
6.01059e-08
5.89142e-08
7.35425e-08
1.37428e-07
6.73204e-08
0
6.46428e-08
6.35987e-08
6.37761e-08
6.35789e-08
6.52573e-08
6.19924e-08
6.14063e-08
5.98473e-08
6.3888e-08
6.32576e-08
5.96779e-08
1.27459e-07
8.48765e-08
6.30658e-08
5.66131e-08
6.0919e-08
6.0074e-08
6.15198e-08
5.96319e-08
5.67451e-08
6.10661e-08
6.40037e-08
6.53553e-08
6.51267e-08
6.19729e-08
6.47064e-08
6.39997e-08
2.5577e-08
1.01891e-07
6.0513e-08
6.21444e-08
6.02966e-08
6.25821e-08
2.59575e-08
1.84403e-08
1.09473e-07
9.04699e-08
5.66942e-08
2.56728e-08
1.18943e-08
5.9508e-08
0
0
0
0
4.92977e-08
9.32189e-08
1.16484e-07
6.00627e-09
5.09285e-08
5.97529e-08
6.22066e-08
6.8003e-08
1.48863e-07
6.75866e-08
6.64911e-08
6.57453e-08
0
6.16732e-08
6.1231e-08
5.86923e-08
6.01583e-08
5.89633e-08
9.77739e-08
1.04298e-07
6.37277e-08
1.67907e-08
5.07168e-08
4.62211e-08
6.1139e-08
6.31579e-08
6.47261e-08
7.52227e-08
7.00792e-08
4.83671e-08
6.49355e-08
6.55478e-08
6.12941e-08
1.05323e-07
6.64622e-08
9.68319e-08
2.85695e-08
1.22179e-08
9.91476e-08
9.7306e-08
6.26426e-08
6.41454e-08
6.39906e-08
6.17776e-08
5.62141e-08
6.06014e-08
5.40374e-08
5.2899e-08
4.85571e-08
5.35876e-08
6.0501e-08
7.27529e-09
9.30829e-08
1.00886e-07
1.65534e-08
1.23721e-07
6.55915e-08
6.64302e-08
5.79867e-08
5.42767e-08
6.0746e-08
5.7961e-08
6.51073e-08
6.33413e-08
0
5.92153e-08
1.48648e-07
6.0507e-08
2.92994e-08
3.79733e-08
3.40077e-08
0
0
0
0
6.60547e-08
9.35688e-08
3.45963e-08
6.1215e-08
5.94989e-08
6.11628e-08
6.32839e-08
6.66171e-08
8.43479e-08
1.43476e-07
3.31723e-08
1.0502e-08