/*--------------------------------*- C++ -*----------------------------------*\
  =========                 |
  \\      /  F ield         | OpenFOAM: The Open Source CFD Toolbox
   \\    /   O peration     | Website:  https://openfoam.org
    \\  /    A nd           | Version:  12
     \\/     M anipulation  |
\*---------------------------------------------------------------------------*/
FoamFile
{
    format      ascii;
    class       volScalarField;
    location    "0.1";
    object      p;
}
// * * * * * * * * * * * * * * * * * * * * * * * * * * * * * * * * * * * * * //

dimensions      [0 2 -2 0 0 0 0];

internalField   nonuniform List<scalar> 
3750
(
0.715044
0.715802
0.702829
0.686528
0.678176
0.668942
0.659547
0.65044
0.64169
0.633152
0.624652
0.615898
0.606681
0.597178
0.5876
0.577605
0.566873
0.555368
0.543717
0.531515
0.530458
0.518229
0.506613
0.495471
0.485323
0.476255
0.461725
0.452322
0.441573
0.428298
0.425789
0.423756
0.411226
0.400023
0.389932
0.380801
0.363837
0.355602
0.346631
0.336636
0.326788
0.316919
0.305705
0.293842
0.293536
0.282279
0.271174
0.260421
0.249685
0.249939
0.249612
0.238314
0.225519
0.217109
0.205158
0.194071
0.182498
0.176102
0.170291
0.156477
0.152308
0.140854
0.12503
0.11518
0.104628
0.0942003
0.0837711
0.0738463
0.066203
0.0540506
0.0432122
0.0333368
0.0237694
0.014267
0.00474178
0.717624
0.710923
0.700304
0.688797
0.678998
0.66929
0.659435
0.650042
0.641352
0.633113
0.624757
0.616241
0.606972
0.59747
0.588137
0.578315
0.566946
0.555522
0.544913
0.535058
0.527352
0.516915
0.506008
0.494556
0.484304
0.474797
0.463239
0.453468
0.442898
0.432215
0.426287
0.418671
0.409155
0.399093
0.388936
0.378472
0.36634
0.356251
0.34642
0.336428
0.326426
0.316539
0.306488
0.296665
0.290658
0.281615
0.270891
0.260286
0.254252
0.250999
0.244812
0.239418
0.221654
0.219262
0.204586
0.194488
0.179717
0.17544
0.171752
0.153648
0.149146
0.143197
0.12865
0.11565
0.104554
0.0943694
0.084155
0.072979
0.0698879
0.0525422
0.042358
0.0331274
0.0237231
0.0141861
0.004689
0.717006
0.707703
0.698897
0.689437
0.679624
0.669842
0.65892
0.649034
0.640606
0.633054
0.625001
0.617438
0.607631
0.59773
0.589297
0.581515
0.56642
0.555028
0.545514
0.536556
0.526403
0.515447
0.505715
0.492751
0.482577
0.475177
0.4634
0.455495
0.44429
0.433872
0.42913
0.415015
0.407394
0.398166
0.388305
0.377956
0.367071
0.356624
0.346417
0.336254
0.326079
0.316177
0.306881
0.297952
0.29092
0.282412
0.271046
0.258352
0.256827
0.253354
0.238526
0.239005
0.225687
0.2121
0.209615
0.19049
0.188967
0.173866
0.167414
0.156673
0.148552
0.140907
0.131135
0.114248
0.104098
0.0947565
0.0851754
0.0741865
0.0652631
0.0539251
0.0429319
0.0336187
0.0238667
0.0141253
0.00457445
0.715809
0.705037
0.697734
0.691019
0.68019
0.671623
0.657037
0.64664
0.638801
0.633655
0.625036
0.611769
0.608164
0.604668
0.590374
0.58142
0.564272
0.560706
0.547168
0.539068
0.524578
0.513338
0.500961
0.49767
0.479257
0.47955
0.460706
0.458815
0.444945
0.431396
0.428537
0.416321
0.407261
0.397834
0.388105
0.37796
0.367379
0.356806
0.346418
0.336115
0.325466
0.315199
0.305919
0.297094
0.293697
0.286377
0.273085
0.258771
0.261421
0.245673
0.240456
0.236431
0.229194
0.211477
0.208985
0.189753
0.189538
0.172671
0.166802
0.157265
0.148297
0.139552
0.130328
0.110237
0.105204
0.0940807
0.0845594
0.0755919
0.0634463
0.0504104
0.0449332
0.0336911
0.0238441
0.0140711
0.00452807
0.716276
0.699545
0.695922
0.694573
0.678856
0.669165
0.652172
0.651861
0.635408
0.637742
0.619977
0.616755
0.609854
0.606101
0.59316
0.582221
0.566462
0.558748
0.548601
0.537538
0.525199
0.512089
0.504441
0.496528
0.479022
0.480241
0.463271
0.456689
0.445598
0.435515
0.421765
0.417848
0.40694
0.397842
0.388362
0.378375
0.36766
0.356779
0.346401
0.336214
0.324496
0.313436
0.295525
0.295588
0.295734
0.295688
0.27653
0.267037
0.260371
0.248901
0.241366
0.234641
0.226596
0.213575
0.204317
0.191705
0.184053
0.172109
0.169803
0.156631
0.147834
0.13909
0.130428
0.113774
0.100061
0.0967692
0.0807471
0.0774095
0.0632796
0.0541957
0.0421669
0.033159
0.0236492
0.0139762
0.00448884
0.720072
0.70398
0.692518
0.693075
0.677921
0.66693
0.650893
0.649886
0.635068
0.639175
0.623148
0.61337
0.612992
0.608541
0.594288
0.582966
0.568359
0.558033
0.550801
0.537045
0.524284
0.51031
0.508853
0.492549
0.482802
0.476522
0.466033
0.456318
0.445672
0.43506
0.424495
0.41548
0.405087
0.398342
0.389159
0.379569
0.368116
0.35623
0.346236
0.337772
0.322927
0.308802
0.290858
0.29401
0.297258
0.299287
0.27981
0.272848
0.263888
0.250865
0.241598
0.234064
0.226574
0.212627
0.203578
0.189374
0.18232
0.174382
0.159558
0.16045
0.147508
0.138405
0.127887
0.114594
0.10581
0.096848
0.0773587
0.0763696
0.063725
0.0567105
0.041587
0.0327881
0.0234968
0.0139294
0.00448431
0.719199
0.706282
0.694397
0.689184
0.679123
0.663553
0.654135
0.63946
0.636368
0.638534
0.62121
0.620208
0.619383
0.603178
0.592199
0.581443
0.570868
0.560762
0.552825
0.535691
0.524929
0.512856
0.504704
0.492971
0.484079
0.476144
0.467518
0.456648
0.44561
0.43452
0.428211
0.413766
0.401794
0.399652
0.390139
0.382225
0.368876
0.353855
0.344664
0.335261
0.320691
0.308941
0.290502
0.293737
0.298312
0.300421
0.280247
0.279605
0.265934
0.254458
0.240193
0.233612
0.223308
0.207237
0.20732
0.190022
0.182004
0.174372
0.156781
0.155306
0.152184
0.139341
0.127643
0.112063
0.112335
0.0953312
0.0762462
0.0767454
0.0599515
0.0591452
0.0416271
0.0328001
0.0235077
0.0139358
0.004513
0.723084
0.706566
0.697743
0.68872
0.678939
0.660711
0.658277
0.640033
0.630715
0.635058
0.626002
0.629088
0.617113
0.600426
0.590061
0.581011
0.572111
0.563043
0.551623
0.53813
0.527455
0.512858
0.503957
0.490385
0.483839
0.476338
0.471281
0.457609
0.445768
0.430471
0.429002
0.409765
0.407754
0.397689
0.389334
0.380254
0.369623
0.355889
0.343915
0.329982
0.325484
0.306402
0.291245
0.2952
0.29892
0.30124
0.281496
0.28163
0.265416
0.254558
0.241295
0.229388
0.225472
0.207048
0.206612
0.190949
0.181418
0.174486
0.162525
0.152797
0.149586
0.13894
0.126742
0.112753
0.112108
0.0961287
0.0791142
0.0721499
0.062172
0.0546245
0.0432987
0.0333969
0.0237564
0.0140635
0.00457486
0.71902
0.706083
0.699963
0.684322
0.678873
0.664807
0.655919
0.636097
0.631764
0.63065
0.629474
0.632697
0.616913
0.601331
0.58659
0.580446
0.573437
0.56763
0.552416
0.537941
0.523908
0.507627
0.50746
0.490478
0.484868
0.47501
0.471355
0.457421
0.447451
0.434663
0.425511
0.412307
0.406486
0.39904
0.38905
0.379586
0.368988
0.356171
0.345786
0.331013
0.321694
0.302017
0.298057
0.298298
0.300037
0.299655
0.282511
0.281805
0.264821
0.252881
0.241463
0.231463
0.222061
0.211969
0.199838
0.195782
0.178698
0.179147
0.167111
0.153917
0.142062
0.139036
0.127191
0.117696
0.105824
0.0976383
0.0825675
0.0696974
0.0620468
0.0533996
0.0434844
0.0336625
0.0239385
0.0141546
0.00458697
0.719476
0.708775
0.699343
0.685207
0.676103
0.665367
0.652927
0.640092
0.6313
0.626394
0.629037
0.630456
0.615986
0.602014
0.587062
0.580957
0.573555
0.570294
0.552354
0.537363
0.522976
0.506815
0.507548
0.488544
0.488405
0.476071
0.47017
0.45922
0.447792
0.435767
0.425775
0.415229
0.403969
0.401025
0.387231
0.379793
0.368785
0.355701
0.350504
0.332523
0.321255
0.302299
0.30117
0.299288
0.300264
0.292805
0.288586
0.279987
0.262472
0.250122
0.24043
0.230934
0.220977
0.213908
0.201794
0.191709
0.179117
0.176515
0.172114
0.154005
0.146091
0.133959
0.125575
0.116011
0.105438
0.0952705
0.0835531
0.0723333
0.0628406
0.0534164
0.0436791
0.033912
0.0241378
0.0143079
0.00466569
0.721624
0.711278
0.701163
0.683361
0.673286
0.667007
0.650414
0.641219
0.630574
0.626068
0.628013
0.630258
0.613853
0.603908
0.590659
0.58311
0.569655
0.562474
0.549122
0.53626
0.524208
0.512559
0.505586
0.488814
0.488225
0.474152
0.47064
0.460676
0.447765
0.434657
0.428328
0.418506
0.405495
0.395952
0.386601
0.38265
0.369938
0.362061
0.349309
0.333186
0.323393
0.305269
0.30375
0.294627
0.297699
0.297126
0.285771
0.27471
0.262108
0.250648
0.23921
0.228909
0.216662
0.217304
0.204456
0.193417
0.182374
0.175071
0.165548
0.15429
0.144728
0.134663
0.125249
0.115344
0.104956
0.0945353
0.0838731
0.0735444
0.0636262
0.0538188
0.0439224
0.0341042
0.0242839
0.01437
0.00466111
0.723593
0.713741
0.700361
0.684702
0.668601
0.666361
0.652271
0.644028
0.6371
0.62374
0.625492
0.624834
0.614773
0.609039
0.589635
0.581154
0.56959
0.559967
0.545536
0.534391
0.525143
0.514272
0.503909
0.490721
0.488333
0.474743
0.46646
0.464638
0.448139
0.435499
0.434525
0.420675
0.40635
0.390712
0.388153
0.386492
0.36753
0.364462
0.34991
0.337768
0.324539
0.312073
0.303843
0.294635
0.299042
0.298966
0.280808
0.271184
0.260019
0.253283
0.237387
0.220178
0.218422
0.213044
0.20455
0.201708
0.183874
0.170149
0.1598
0.161721
0.144016
0.134552
0.125245
0.115096
0.104445
0.0940587
0.0839454
0.0743594
0.0642402
0.0542624
0.0441685
0.034341
0.0244963
0.0145366
0.00473261
0.718594
0.71872
0.701657
0.68609
0.670974
0.662794
0.653489
0.647478
0.644658
0.625845
0.625421
0.625053
0.611146
0.602307
0.587878
0.583192
0.567686
0.552512
0.548094
0.532376
0.526956
0.515432
0.506382
0.490359
0.487082
0.471594
0.468878
0.465501
0.446906
0.441154
0.431593
0.419662
0.407562
0.396263
0.389348
0.382513
0.371303
0.361684
0.348445
0.341391
0.327063
0.314981
0.304019
0.30178
0.303867
0.292064
0.276975
0.269371
0.254431
0.254203
0.236796
0.220419
0.223025
0.211022
0.198316
0.199265
0.181159
0.165387
0.16447
0.165798
0.144603
0.133942
0.126217
0.115484
0.103686
0.0933169
0.0835327
0.0758878
0.0646672
0.054778
0.044252
0.0345848
0.0247255
0.0146447
0.00473921
0.717508
0.717044
0.700889
0.687408
0.669673
0.667159
0.653066
0.656278
0.647606
0.634101
0.624841
0.615538
0.607579
0.601063
0.583811
0.582981
0.566916
0.553891
0.54736
0.534163
0.521984
0.514232
0.506614
0.496384
0.485776
0.471263
0.471225
0.461751
0.448996
0.44021
0.429716
0.418605
0.407829
0.398558
0.390554
0.383158
0.37303
0.36338
0.349228
0.339425
0.330376
0.317853
0.30987
0.304703
0.30071
0.287802
0.275919
0.264773
0.255773
0.251865
0.235692
0.226282
0.220128
0.21005
0.198653
0.194747
0.178634
0.169964
0.167193
0.166587
0.144286
0.131422
0.129551
0.116841
0.101308
0.0920527
0.0812793
0.0792417
0.0637301
0.0556385
0.0435572
0.0350444
0.0251052
0.014876
0.00483381
0.720953
0.711488
0.697275
0.689327
0.675559
0.665492
0.658142
0.655015
0.653956
0.638399
0.624853
0.609207
0.605736
0.604215
0.583048
0.579724
0.568932
0.550982
0.546769
0.531829
0.51413
0.512394
0.509404
0.502873
0.489052
0.477286
0.470189
0.460551
0.449348
0.438736
0.428425
0.417228
0.406509
0.399622
0.390962
0.387019
0.373673
0.359174
0.35013
0.340848
0.331578
0.321967
0.31381
0.305821
0.295648
0.282329
0.277034
0.260113
0.253712
0.253179
0.237879
0.228774
0.220054
0.210853
0.202031
0.187521
0.185254
0.169649
0.166837
0.164052
0.145116
0.13258
0.121492
0.119325
0.103318
0.0931956
0.0820702
0.0740908
0.0654231
0.0522209
0.0494344
0.036939
0.0257008
0.0150246
0.00482374
0.720294
0.71077
0.700281
0.683334
0.67898
0.675046
0.66071
0.651034
0.649179
0.639987
0.626939
0.61461
0.602789
0.60205
0.585738
0.572125
0.568242
0.554313
0.544552
0.531681
0.51136
0.512292
0.513962
0.501402
0.490338
0.479387
0.470775
0.460908
0.448877
0.437056
0.428019
0.415292
0.402402
0.401477
0.388425
0.388702
0.375213
0.359717
0.351193
0.342023
0.333209
0.324976
0.317507
0.309208
0.29444
0.278501
0.275943
0.261468
0.247409
0.247528
0.242506
0.230698
0.220988
0.211666
0.201726
0.190997
0.184703
0.16775
0.16558
0.162763
0.146194
0.132889
0.120211
0.118033
0.104
0.094348
0.0822394
0.0697971
0.0660337
0.056015
0.0501986
0.0369758
0.0256885
0.0150462
0.00486613
0.722328
0.71128
0.70038
0.685518
0.681341
0.67754
0.664515
0.651643
0.640469
0.634746
0.628386
0.61975
0.607068
0.600443
0.584918
0.573097
0.563987
0.553995
0.54379
0.529472
0.512457
0.511813
0.508643
0.503264
0.491747
0.479064
0.473042
0.46327
0.448223
0.432777
0.421772
0.416006
0.404572
0.393746
0.393993
0.386345
0.374819
0.363311
0.352961
0.34304
0.334295
0.327444
0.322222
0.308904
0.295013
0.282609
0.272097
0.258435
0.25052
0.245516
0.23925
0.230408
0.221505
0.213191
0.202212
0.19077
0.182333
0.174585
0.164595
0.158829
0.144629
0.133052
0.121879
0.116518
0.103763
0.0957808
0.0833984
0.0730918
0.0717386
0.0572743
0.0436988
0.0349136
0.0249661
0.0147367
0.0047366
0.722728
0.71101
0.704314
0.691785
0.683369
0.669656
0.667141
0.652179
0.642984
0.630297
0.630497
0.614966
0.6056
0.596286
0.585324
0.575411
0.560685
0.549002
0.546172
0.531265
0.520692
0.514734
0.505358
0.496188
0.489403
0.481557
0.477476
0.460521
0.447943
0.434338
0.424198
0.406533
0.402992
0.394834
0.394863
0.384656
0.374555
0.366133
0.354336
0.342663
0.332588
0.328093
0.32455
0.309157
0.294231
0.284767
0.269636
0.260329
0.251934
0.244766
0.238232
0.229852
0.221436
0.217571
0.203387
0.187561
0.179303
0.174828
0.159638
0.158583
0.146474
0.132993
0.121076
0.119368
0.10417
0.095446
0.0837307
0.0819227
0.0696815
0.0564295
0.041862
0.0339409
0.0245817
0.0146369
0.00474729
0.724271
0.708181
0.706194
0.694577
0.685097
0.669609
0.663423
0.6524
0.64279
0.633034
0.628152
0.613168
0.603882
0.593753
0.583155
0.571693
0.560449
0.547457
0.548065
0.534139
0.523135
0.519838
0.50533
0.496741
0.489009
0.480415
0.470899
0.455961
0.449007
0.442378
0.424638
0.406764
0.405678
0.39001
0.390033
0.382652
0.372614
0.370201
0.355451
0.341515
0.327864
0.327922
0.329037
0.308813
0.298298
0.282319
0.271547
0.261358
0.251902
0.243311
0.239187
0.229503
0.218712
0.221023
0.205953
0.186975
0.174686
0.170572
0.160569
0.152765
0.149118
0.132008
0.130819
0.121612
0.106033
0.0969379
0.0868671
0.0794484
0.0679322
0.056629
0.0439046
0.0344362
0.0245467
0.0144934
0.0046467
0.72319
0.712166
0.704494
0.695187
0.684997
0.672754
0.662445
0.651998
0.642997
0.633159
0.624671
0.61577
0.603038
0.591656
0.581841
0.567848
0.554656
0.550577
0.549319
0.535765
0.530231
0.517468
0.504163
0.498964
0.489408
0.480075
0.469305
0.458831
0.44957
0.438913
0.425603
0.413205
0.403818
0.389497
0.381314
0.382816
0.372151
0.371728
0.355234
0.34226
0.328669
0.326485
0.328434
0.308879
0.297442
0.284741
0.272892
0.261677
0.251103
0.237909
0.235411
0.230146
0.224545
0.218314
0.209396
0.189788
0.174238
0.161496
0.160456
0.159563
0.143929
0.136928
0.132136
0.125772
0.108451
0.0990184
0.0891176
0.0783472
0.065974
0.0531712
0.0467513
0.034953
0.0245849
0.0144736
0.00466165
0.723504
0.713937
0.703699
0.696816
0.686547
0.67412
0.661569
0.649819
0.644169
0.631884
0.621625
0.611812
0.600851
0.588677
0.583394
0.564086
0.562586
0.550003
0.546619
0.542995
0.529066
0.514421
0.50317
0.504417
0.491153
0.481269
0.469166
0.458295
0.451195
0.440533
0.426338
0.409861
0.402743
0.384328
0.382291
0.38235
0.374486
0.371792
0.352864
0.346147
0.333728
0.322461
0.324068
0.310325
0.297945
0.286361
0.273769
0.261146
0.253317
0.237649
0.234683
0.229953
0.229978
0.21697
0.20603
0.188664
0.172212
0.159122
0.160591
0.159629
0.150825
0.139791
0.131554
0.123187
0.110826
0.100737
0.0920585
0.0774885
0.065208
0.0557682
0.0434564
0.0341028
0.0242469
0.0142934
0.00459645
0.723728
0.715697
0.701061
0.701433
0.690252
0.675541
0.66008
0.642707
0.641761
0.636516
0.618296
0.609171
0.600721
0.589789
0.578685
0.56332
0.563759
0.561665
0.542916
0.539864
0.525997
0.510932
0.507449
0.506053
0.495295
0.479066
0.471981
0.45376
0.451365
0.445108
0.428226
0.411815
0.397763
0.383284
0.383793
0.385607
0.371904
0.36416
0.358706
0.3433
0.338337
0.32323
0.3225
0.309484
0.297643
0.289082
0.274854
0.257482
0.253268
0.247006
0.236814
0.227154
0.228192
0.213911
0.202811
0.187192
0.168684
0.164515
0.163238
0.163827
0.148016
0.139399
0.130898
0.121831
0.111477
0.101143
0.0906472
0.0788404
0.0673884
0.0563314
0.0438509
0.0336829
0.0239516
0.0141777
0.00461314
0.723028
0.713471
0.70527
0.696823
0.696932
0.677599
0.660864
0.643382
0.642437
0.630732
0.616544
0.607858
0.601736
0.583335
0.577993
0.571266
0.565961
0.56556
0.545852
0.530294
0.524639
0.515761
0.509242
0.503254
0.494157
0.485446
0.470569
0.452559
0.452639
0.43718
0.433319
0.415224
0.395497
0.388274
0.384592
0.37928
0.372837
0.364011
0.358998
0.342379
0.336144
0.327745
0.321498
0.306973
0.29492
0.286738
0.277582
0.264103
0.255353
0.246239
0.239075
0.226008
0.225773
0.210041
0.199214
0.185759
0.175201
0.168628
0.164138
0.160544
0.146176
0.139033
0.130898
0.121879
0.112162
0.101741
0.0907173
0.0795901
0.0691187
0.058777
0.0415331
0.0327477
0.0235201
0.0139618
0.0045117
0.722913
0.712081
0.706313
0.699375
0.697917
0.676695
0.662909
0.650906
0.639283
0.621633
0.619176
0.613581
0.59922
0.58228
0.580023
0.577193
0.564209
0.563169
0.544374
0.53069
0.526681
0.520135
0.510362
0.502348
0.492725
0.482585
0.471107
0.453077
0.446316
0.437028
0.433728
0.42122
0.400865
0.39148
0.387357
0.374009
0.373289
0.362574
0.351849
0.339169
0.334224
0.329507
0.317949
0.305822
0.295265
0.285387
0.278145
0.268497
0.257823
0.245482
0.24113
0.228952
0.216725
0.206694
0.198779
0.188371
0.178829
0.171101
0.16403
0.156385
0.147214
0.139573
0.131685
0.122594
0.113332
0.102874
0.0905831
0.0791798
0.0707774
0.0578038
0.0409305
0.0324716
0.0233963
0.0139498
0.00454656
0.725478
0.716842
0.708249
0.697822
0.694594
0.678335
0.663306
0.647986
0.639784
0.622767
0.622758
0.611563
0.597515
0.588222
0.583039
0.574521
0.565407
0.5581
0.539582
0.534606
0.531469
0.527305
0.509712
0.50336
0.490911
0.477436
0.467798
0.455166
0.443221
0.439077
0.428651
0.427696
0.40695
0.389489
0.388596
0.375644
0.370503
0.360636
0.349896
0.340915
0.332073
0.324762
0.313937
0.303599
0.294762
0.283176
0.275469
0.269052
0.265846
0.24494
0.242118
0.228243
0.215596
0.202511
0.201133
0.190218
0.180506
0.172601
0.164587
0.153938
0.146811
0.140298
0.133654
0.123475
0.115667
0.104468
0.0896582
0.0764417
0.0669478
0.060741
0.0420927
0.0328784
0.0235484
0.0139693
0.00452431
0.725126
0.716696
0.707907
0.699211
0.692943
0.678271
0.663931
0.648593
0.639479
0.628875
0.62268
0.606582
0.594463
0.59241
0.587432
0.572674
0.566053
0.560147
0.539929
0.536293
0.535683
0.523017
0.507932
0.500198
0.489928
0.478664
0.467844
0.456104
0.445033
0.435474
0.430793
0.42933
0.409872
0.390557
0.38885
0.375532
0.368501
0.359356
0.350071
0.342482
0.330202
0.321037
0.309234
0.300974
0.290985
0.282853
0.278837
0.267916
0.267949
0.246818
0.23775
0.226481
0.216048
0.204342
0.201247
0.190286
0.180286
0.174231
0.168461
0.149958
0.146807
0.140023
0.138112
0.121906
0.119019
0.103231
0.087512
0.0740263
0.0673975
0.0635689
0.0433735
0.0335505
0.0238802
0.0141508
0.00460325
0.725452
0.716713
0.70842
0.698245
0.68935
0.67776
0.665429
0.653076
0.640925
0.630461
0.61945
0.604035
0.598892
0.598327
0.585737
0.581063
0.565961
0.560087
0.545302
0.53626
0.5273
0.519466
0.509045
0.499719
0.489812
0.479393
0.468791
0.456528
0.446346
0.437412
0.430775
0.424363
0.412943
0.396143
0.383712
0.37571
0.367638
0.358748
0.349776
0.341525
0.332913
0.319072
0.303044
0.300019
0.295334
0.28019
0.275458
0.267736
0.268194
0.246772
0.234187
0.224062
0.219532
0.206123
0.199575
0.188871
0.176982
0.175819
0.173452
0.153363
0.150849
0.13759
0.133962
0.128923
0.116714
0.102094
0.0864265
0.0814899
0.0655748
0.0584496
0.0447595
0.0341269
0.024177
0.0142966
0.0046423
0.72508
0.715588
0.710785
0.695994
0.688525
0.678006
0.666925
0.657439
0.640656
0.632499
0.621383
0.606146
0.599265
0.599002
0.590023
0.576324
0.566693
0.557436
0.546351
0.536186
0.527012
0.518365
0.509137
0.499709
0.490134
0.480519
0.471611
0.45484
0.446398
0.438256
0.43067
0.423927
0.410691
0.397529
0.382668
0.376031
0.367575
0.358308
0.349319
0.340226
0.330596
0.319283
0.3079
0.300804
0.293796
0.284986
0.273994
0.262175
0.264989
0.247296
0.229189
0.225523
0.218984
0.203311
0.199067
0.186338
0.183374
0.178661
0.175641
0.156325
0.150437
0.141815
0.13023
0.124673
0.114074
0.102463
0.0919402
0.0801327
0.0654435
0.0585855
0.0430891
0.0340336
0.0243374
0.0144406
0.00470359
0.728551
0.71082
0.711771
0.696479
0.690977
0.67869
0.666905
0.658717
0.64208
0.627682
0.627264
0.61071
0.605012
0.593779
0.594206
0.576748
0.56703
0.556896
0.54608
0.535146
0.526262
0.517902
0.50945
0.499698
0.490552
0.480901
0.471918
0.455022
0.446267
0.438603
0.429451
0.419755
0.408166
0.400679
0.38373
0.378422
0.368317
0.357619
0.348457
0.339333
0.329908
0.319945
0.310184
0.301477
0.293008
0.283712
0.273579
0.263752
0.257941
0.247979
0.23414
0.220909
0.217296
0.205703
0.192639
0.190435
0.192724
0.179216
0.16862
0.156483
0.151341
0.140607
0.130517
0.121628
0.112368
0.102264
0.0914576
0.0798025
0.0676484
0.0570903
0.0451227
0.0347249
0.0246309
0.0145601
0.00471978
0.721643
0.710192
0.705799
0.697332
0.690033
0.678406
0.671453
0.65819
0.641822
0.632431
0.625295
0.614768
0.606251
0.597825
0.593466
0.579413
0.567957
0.557112
0.545877
0.531992
0.524969
0.517523
0.51113
0.499079
0.491682
0.480763
0.469664
0.457229
0.445203
0.440394
0.428862
0.417838
0.403043
0.399788
0.386434
0.384461
0.369486
0.355492
0.347551
0.338775
0.329695
0.320429
0.310902
0.30192
0.293073
0.283464
0.273333
0.262649
0.255151
0.24323
0.237129
0.225087
0.2116
0.211322
0.1954
0.192272
0.192207
0.176309
0.163412
0.159381
0.156177
0.138668
0.129617
0.118968
0.111363
0.102732
0.0917043
0.0799958
0.0682794
0.05698
0.0457057
0.0351031
0.0248361
0.0146779
0.00479664
0.720643
0.705354
0.703192
0.696349
0.690069
0.673714
0.660422
0.660021
0.644903
0.635244
0.626081
0.61656
0.607678
0.598852
0.590316
0.579288
0.568282
0.557675
0.54812
0.53208
0.524288
0.516149
0.508157
0.494824
0.49556
0.480702
0.468619
0.459013
0.447273
0.43865
0.427638
0.419715
0.409724
0.39502
0.391346
0.380043
0.369453
0.357236
0.347632
0.338541
0.329605
0.320897
0.311415
0.302383
0.293829
0.283454
0.273842
0.258102
0.255754
0.24142
0.23265
0.226215
0.212712
0.217176
0.201553
0.191465
0.182029
0.170211
0.170635
0.161317
0.152556
0.140058
0.130975
0.11413
0.111237
0.105311
0.0922434
0.0802065
0.0684444
0.0568981
0.0457453
0.0350921
0.0247743
0.0146116
0.00472874
0.724097
0.710454
0.705539
0.693713
0.680964
0.666565
0.654419
0.654572
0.650634
0.637562
0.627329
0.617702
0.608938
0.599602
0.58977
0.579109
0.568248
0.557406
0.546421
0.533991
0.524102
0.514913
0.501145
0.498449
0.492865
0.486417
0.46586
0.461567
0.445983
0.439429
0.424914
0.423609
0.411331
0.399285
0.390822
0.379698
0.371078
0.355736
0.347073
0.338087
0.329479
0.312123
0.311485
0.312215
0.296377
0.282825
0.270835
0.261359
0.253206
0.241312
0.228402
0.223557
0.217371
0.219922
0.203257
0.190318
0.174606
0.171724
0.173522
0.16229
0.148166
0.144822
0.129874
0.117993
0.114122
0.102327
0.0913353
0.0800103
0.0682628
0.0565109
0.0453501
0.0347983
0.024591
0.0145457
0.00475513
0.727988
0.717984
0.704875
0.692049
0.676998
0.65933
0.654648
0.654552
0.65039
0.636627
0.628571
0.618066
0.610767
0.600817
0.590075
0.579124
0.568182
0.557292
0.54619
0.53351
0.52335
0.509547
0.507599
0.50442
0.491251
0.482656
0.469269
0.458173
0.442592
0.438384
0.430031
0.425643
0.412302
0.40044
0.389581
0.378904
0.369079
0.357341
0.347109
0.337331
0.328785
0.310936
0.31066
0.312864
0.297178
0.286044
0.272735
0.25993
0.252207
0.242558
0.234087
0.222045
0.215096
0.216253
0.200287
0.192088
0.179117
0.169489
0.169009
0.165435
0.149279
0.145384
0.130385
0.120452
0.117884
0.100965
0.0907437
0.0802112
0.0681717
0.0555722
0.0444019
0.034093
0.0241597
0.0142862
0.00463033
0.733222
0.71817
0.704365
0.691931
0.674661
0.663698
0.655304
0.655883
0.644222
0.629922
0.631094
0.617949
0.615395
0.602657
0.590611
0.579128
0.568013
0.557349
0.547629
0.530699
0.516847
0.516479
0.515914
0.500733
0.491383
0.482315
0.472033
0.453118
0.445178
0.440433
0.430545
0.42242
0.411597
0.400533
0.388148
0.377195
0.369373
0.357511
0.346692
0.335129
0.327734
0.317424
0.308169
0.310489
0.298673
0.287757
0.274707
0.263967
0.253149
0.243129
0.233263
0.221354
0.215197
0.207998
0.198997
0.188362
0.182016
0.179907
0.166694
0.164896
0.148498
0.143937
0.127842
0.126705
0.114243
0.104439
0.0899984
0.0819499
0.0698717
0.0532889
0.0426028
0.0330527
0.0236124
0.0140504
0.00458641
0.728007
0.718489
0.699292
0.694725
0.676083
0.666642
0.658676
0.653539
0.636587
0.631554
0.630432
0.622149
0.617302
0.603101
0.590561
0.578795
0.567477
0.556542
0.546011
0.525674
0.520794
0.523932
0.514616
0.499594
0.491875
0.483506
0.473295
0.460777
0.446452
0.435836
0.429196
0.420377
0.410889
0.401982
0.385486
0.372124
0.37363
0.356065
0.347201
0.330451
0.328153
0.31518
0.312681
0.307312
0.302775
0.287471
0.280678
0.264102
0.253522
0.243109
0.231937
0.229423
0.216468
0.202167
0.198607
0.180734
0.180731
0.179422
0.172281
0.162321
0.145651
0.143462
0.129184
0.124238
0.116539
0.101888
0.0896681
0.0861199
0.0723681
0.0552286
0.0397862
0.0319294
0.0231301
0.0138208
0.00449324
0.72699
0.717977
0.699989
0.691276
0.678613
0.668222
0.659617
0.651488
0.640245
0.630009
0.633943
0.62299
0.614331
0.601639
0.589704
0.578069
0.566604
0.555351
0.543981
0.530728
0.520688
0.51996
0.514745
0.500701
0.492634
0.486535
0.47718
0.460766
0.44387
0.435439
0.429681
0.419165
0.409641
0.400652
0.380487
0.374761
0.373217
0.356392
0.345736
0.333957
0.323954
0.321871
0.320576
0.30304
0.300462
0.29485
0.27855
0.262451
0.253782
0.244129
0.235007
0.228038
0.219439
0.205237
0.193274
0.179855
0.18056
0.180644
0.167612
0.163218
0.145064
0.140591
0.136644
0.123551
0.110688
0.0966043
0.0916123
0.0840695
0.0730068
0.0552209
0.0396331
0.0318473
0.0231024
0.0138186
0.00450961
0.725253
0.716164
0.703006
0.691376
0.678807
0.667947
0.660133
0.653616
0.636519
0.63526
0.632917
0.628291
0.615121
0.599235
0.588524
0.577148
0.565455
0.554182
0.544029
0.533637
0.524573
0.518188
0.510064
0.496493
0.49156
0.489548
0.477664
0.461341
0.445112
0.43341
0.434074
0.41645
0.407695
0.400118
0.383978
0.372969
0.368983
0.355195
0.344625
0.337586
0.324146
0.327971
0.32098
0.307332
0.298712
0.289495
0.274735
0.264598
0.255142
0.244785
0.237482
0.227288
0.217672
0.208042
0.189935
0.187972
0.181755
0.171889
0.171371
0.162098
0.150113
0.137491
0.131591
0.122526
0.105837
0.0925753
0.0958672
0.0843156
0.06992
0.05316
0.042004
0.0327954
0.0235251
0.0139845
0.00454789
0.732478
0.718471
0.704402
0.692657
0.677311
0.66537
0.65933
0.654551
0.639215
0.643467
0.632601
0.623751
0.614813
0.601419
0.58787
0.576717
0.565537
0.552143
0.54432
0.535268
0.52634
0.518218
0.510362
0.495448
0.487596
0.487428
0.481958
0.462112
0.446332
0.432535
0.432683
0.414777
0.404993
0.398448
0.384997
0.37098
0.371106
0.355219
0.347243
0.340426
0.323901
0.324833
0.325024
0.307046
0.297556
0.287571
0.27642
0.266378
0.257705
0.24212
0.242097
0.225443
0.215939
0.209485
0.192711
0.182524
0.183881
0.173466
0.176298
0.161935
0.147123
0.137772
0.128777
0.118948
0.0980009
0.0951058
0.0958625
0.0830212
0.069008
0.0556327
0.042648
0.0338452
0.0241256
0.0142768
0.00464545
0.73548
0.720664
0.704311
0.696421
0.672973
0.667275
0.657436
0.647656
0.644954
0.643649
0.630089
0.617664
0.615202
0.6037
0.589684
0.576754
0.563878
0.554559
0.54577
0.536724
0.527293
0.518017
0.508135
0.496539
0.492953
0.487554
0.475889
0.459239
0.44833
0.437545
0.428483
0.414783
0.400218
0.393403
0.386589
0.37587
0.370195
0.364622
0.349471
0.336118
0.324335
0.32329
0.321678
0.307964
0.29697
0.286792
0.27691
0.266925
0.257128
0.24699
0.241908
0.227009
0.212364
0.210676
0.190477
0.186408
0.183184
0.175388
0.175643
0.161714
0.148127
0.137865
0.126914
0.117144
0.0975064
0.0942954
0.0890433
0.0786723
0.067338
0.0575891
0.0485028
0.0355774
0.0247709
0.0145447
0.0047257
0.735788
0.724357
0.707462
0.693835
0.675407
0.660564
0.655802
0.649567
0.647986
0.630685
0.625921
0.62251
0.608541
0.607877
0.588214
0.577019
0.565954
0.556434
0.547417
0.538609
0.528074
0.518367
0.508608
0.499133
0.491807
0.483157
0.472574
0.460658
0.450313
0.441841
0.428725
0.415224
0.399788
0.392359
0.391595
0.376017
0.368986
0.361276
0.349839
0.338662
0.329166
0.322558
0.316351
0.305954
0.295528
0.285788
0.277917
0.26737
0.256829
0.247633
0.239243
0.22829
0.21942
0.207368
0.197267
0.190056
0.184794
0.172515
0.165423
0.160608
0.155077
0.138484
0.123977
0.11541
0.105739
0.0952876
0.0862779
0.0753082
0.0650458
0.0586727
0.0444896
0.0349486
0.0247985
0.0146256
0.0047523
0.731703
0.722765
0.708689
0.695102
0.674601
0.663438
0.656093
0.64949
0.644257
0.628546
0.621718
0.621236
0.604319
0.605452
0.588028
0.577233
0.566811
0.557863
0.548932
0.542222
0.528024
0.518095
0.509035
0.499797
0.491392
0.480818
0.470869
0.460451
0.450386
0.440564
0.429511
0.418791
0.400381
0.400213
0.389036
0.377261
0.368454
0.359753
0.349919
0.339907
0.330691
0.322216
0.313649
0.303749
0.293344
0.283795
0.27991
0.2675
0.255056
0.247421
0.239576
0.22787
0.21984
0.21121
0.201314
0.191966
0.183426
0.17381
0.165493
0.16023
0.147329
0.136931
0.125402
0.11527
0.105345
0.0951568
0.0852903
0.0750631
0.0647482
0.0558822
0.0449098
0.034772
0.0246982
0.0146142
0.00477502
0.731713
0.72629
0.709393
0.693029
0.674763
0.664222
0.655769
0.647873
0.639592
0.628877
0.620405
0.614471
0.605045
0.598764
0.590958
0.577015
0.566513
0.559169
0.551842
0.542934
0.531803
0.518834
0.509722
0.499321
0.493539
0.478125
0.469784
0.459775
0.450268
0.440398
0.430054
0.42021
0.402566
0.402239
0.390574
0.375311
0.367754
0.359342
0.350159
0.340409
0.331088
0.322083
0.312584
0.302061
0.290778
0.287408
0.27758
0.267163
0.251362
0.247251
0.243044
0.225872
0.220778
0.214413
0.204769
0.193009
0.1832
0.173874
0.165176
0.157059
0.146891
0.136531
0.12551
0.114843
0.104708
0.0946942
0.0846404
0.074422
0.0644792
0.0551348
0.0446375
0.0345135
0.0245353
0.014535
0.00473999
0.732556
0.728476
0.709479
0.692969
0.67744
0.663118
0.654884
0.646654
0.637595
0.627393
0.616839
0.610661
0.604037
0.593825
0.589465
0.577193
0.564009
0.56071
0.557784
0.545722
0.531923
0.522518
0.512023
0.495448
0.493589
0.478187
0.470582
0.458577
0.450641
0.440679
0.43032
0.419654
0.407927
0.400373
0.391617
0.375745
0.368047
0.35978
0.350997
0.340457
0.33111
0.322423
0.312651
0.301892
0.290939
0.288913
0.274998
0.265761
0.253663
0.24716
0.241966
0.228782
0.221666
0.210926
0.210031
0.192128
0.18251
0.173392
0.164376
0.15592
0.146664
0.1368
0.125259
0.113849
0.104024
0.0941807
0.0841272
0.0735929
0.0635421
0.0555673
0.0440689
0.0341023
0.0243117
0.0144375
0.00470985
0.73201
0.721588
0.707015
0.691923
0.678768
0.666084
0.654101
0.64625
0.636756
0.626239
0.609116
0.608363
0.604057
0.592883
0.586772
0.577116
0.566037
0.562618
0.556722
0.548615
0.527887
0.523761
0.517651