/*--------------------------------*- C++ -*----------------------------------*\
  =========                 |
  \\      /  F ield         | OpenFOAM: The Open Source CFD Toolbox
   \\    /   O peration     | Website:  https://openfoam.org
    \\  /    A nd           | Version:  12
     \\/     M anipulation  |
\*---------------------------------------------------------------------------*/
FoamFile
{
    format      ascii;
    class       surfaceScalarField;
    location    "0.1";
    object      phi.water_0;
}
// * * * * * * * * * * * * * * * * * * * * * * * * * * * * * * * * * * * * * //

dimensions      [0 3 -1 0 0 0 0];

internalField   nonuniform List<scalar> 
7375
(
2.81786e-07
7.91639e-08
1.09206e-07
-2.36169e-08
1.28204e-07
2.86587e-08
1.61263e-07
-3.18732e-08
2.2801e-07
-6.6925e-08
2.54888e-07
-2.68976e-08
2.50753e-07
4.23721e-09
2.41027e-07
9.71923e-09
2.23128e-07
1.79264e-08
2.16927e-07
6.08596e-09
2.32665e-07
-1.59626e-08
2.58158e-07
-2.56078e-08
2.93751e-07
-3.56298e-08
2.94647e-07
-7.97945e-10
2.64254e-07
3.06105e-08
2.51082e-07
1.33239e-08
2.28479e-07
2.27239e-08
1.96505e-07
3.21777e-08
1.56582e-07
4.15166e-08
2.58055e-07
4.17653e-08
1.40937e-07
-2.84543e-08
1.60303e-07
-1.80592e-08
1.91652e-07
-3.16032e-08
2.19846e-07
-2.82271e-08
2.05679e-07
1.63413e-08
1.2901e-07
2.85296e-08
1.23888e-07
5.20642e-08
8.06236e-08
4.3307e-08
1.95038e-08
1.29404e-08
1.83735e-07
2.82996e-08
2.05884e-07
-2.46482e-08
1.19983e-07
-5.70798e-08
1.64604e-07
-4.34423e-08
1.8324e-07
-1.86111e-08
1.79037e-07
4.22989e-09
1.66064e-07
1.47433e-08
1.34771e-07
3.13642e-08
1.1424e-07
1.92734e-08
7.76801e-08
3.67321e-08
5.01015e-08
2.76821e-08
3.91616e-08
1.09188e-08
4.72038e-08
-8.05626e-09
3.15909e-08
-3.26416e-08
2.21641e-07
2.16174e-10
1.32172e-07
-5.35148e-08
1.8325e-07
-4.98013e-08
1.96497e-07
-1.33333e-08
1.77636e-07
2.06515e-08
2.52737e-07
7.08145e-08
2.31418e-07
1.6396e-08
1.3406e-07
-4.56015e-08
1.68473e-07
-3.32693e-08
2.48983e-07
-8.16527e-08
2.70962e-07
-2.1919e-08
2.70918e-07
7.81414e-11
2.62095e-07
8.78883e-09
2.67274e-07
-5.20742e-09
2.49078e-07
2.07511e-08
1.35299e-07
6.39993e-08
1.71429e-07
1.01614e-08
1.6835e-07
4.83228e-09
1.59509e-07
8.71707e-09
1.71287e-07
-1.1647e-08
1.81856e-07
-1.03207e-08
1.92414e-07
-1.01827e-08
1.91427e-07
1.21902e-09
1.8347e-07
8.09775e-09
2.18211e-07
-3.5376e-08
2.37573e-07
-1.9507e-08
2.79382e-07
-4.20548e-08
2.95529e-07
-1.63118e-08
2.65046e-07
2.75439e-08
2.0834e-07
5.40558e-08
1.43913e-07
6.44258e-08
4.00127e-08
-6.83993e-08
3.73006e-08
-8.32415e-08
-8.77399e-09
-5.62576e-08
1.96749e-09
-6.32156e-08
-2.49149e-08
-6.13115e-08
-6.88291e-08
-5.68599e-08
-3.13491e-08
-6.68067e-08
1.4184e-08
-7.90187e-08
2.19314e-08
-8.39442e-08
2.28518e-08
-1.02085e-07
2.42268e-08
-1.0905e-07
-8.99724e-09
-9.82889e-08
-3.63691e-08
-6.36773e-08
-7.02414e-08
-3.07321e-08
-3.37431e-08
-4.20735e-08
4.19518e-08
-7.06681e-08
4.19186e-08
-2.14955e-08
-2.64488e-08
-2.04712e-08
3.11535e-08
-4.96143e-08
7.06595e-08
-4.46091e-08
3.63341e-08
-6.14789e-08
-1.18749e-08
-8.38731e-08
4.33509e-09
-1.06892e-07
-8.58446e-09
-1.15887e-07
-1.92323e-08
-1.13336e-07
1.37907e-08
-1.22643e-07
3.75451e-08
-1.10114e-07
3.95357e-08
-1.05637e-07
3.88295e-08
-8.64409e-08
-6.25577e-09
-4.7715e-08
-1.04263e-08
-6.46386e-08
-7.72482e-09
-1.07039e-07
-1.52622e-08
-1.48961e-07
-1.51956e-09
-1.75707e-07
8.13475e-09
-1.65677e-07
-5.80086e-09
-1.60204e-07
9.27043e-09
-1.64754e-07
3.55945e-08
-1.63403e-07
1.79223e-08
-1.48283e-07
2.1612e-08
-1.52675e-07
3.20739e-08
-1.1478e-07
-2.69763e-08
-9.15966e-08
-3.12396e-08
-9.89746e-08
-2.52637e-08
-4.65616e-08
-5.21968e-08
-4.99094e-08
-5.0713e-08
-6.34933e-08
-3.62174e-08
-7.02561e-08
-6.57047e-09
-5.2998e-08
3.4284e-09
-2.68675e-08
4.39615e-08
-4.63009e-08
3.54676e-08
-7.97283e-08
-1.27697e-08
-1.5083e-07
3.62941e-08
-1.05806e-07
2.03317e-08
-1.9597e-07
-7.36575e-08
-2.28748e-07
3.05454e-08
-2.20874e-07
-1.35228e-09
-1.52437e-07
7.15366e-08
-1.6326e-07
3.3129e-08
-3.38792e-07
4.63055e-08
-2.24901e-07
8.89474e-08
-2.17734e-07
-1.13924e-10
-2.74522e-07
-7.74657e-08
-2.44208e-07
-4.47622e-08
-1.82925e-07
-7.2342e-08
-1.21099e-07
-7.20085e-08
-9.773e-08
-2.21504e-08
-1.11503e-07
2.07329e-08
-5.45204e-08
5.41218e-08
-1.83748e-07
-3.27005e-08
-1.80849e-07
-4.68282e-08
-1.59255e-07
-3.59142e-08
-1.4813e-07
1.77353e-08
-1.31967e-07
3.78917e-08
-1.20256e-07
5.27147e-08
3.11184e-08
-1.02313e-07
-1.9749e-08
-7.6526e-08
-3.456e-08
-4.39477e-08
-3.06104e-08
-7.46091e-08
5.74681e-09
-1.25421e-07
-1.80171e-08
-1.1679e-07
-3.99802e-08
-8.59221e-08
-1.66836e-08
-9.90028e-08
3.50122e-08
-1.03959e-07
2.78084e-08
-1.05884e-07
2.61512e-08
-9.57754e-08
-1.91056e-08
-9.10644e-08
-4.15035e-08
-1.25906e-07
-3.53998e-08
-1.56296e-07
-3.3527e-09
-1.34743e-07
2.03985e-08
-1.54715e-07
6.18904e-08
-1.60917e-07
-2.02463e-08
-1.64662e-07
3.48977e-08
-1.01382e-07
7.30499e-09
-8.06086e-08
1.55612e-08
-9.77943e-08
5.36547e-09
-8.34057e-08
-1.00535e-08
-8.90442e-08
-2.94607e-09
-1.56454e-07
4.76907e-08
-1.30975e-07
-1.18083e-08
-1.16214e-07
2.25536e-08
-9.05058e-08
1.39702e-08
-1.2523e-07
7.3554e-08
-1.09653e-07
-2.18335e-08
-6.42787e-08
-5.58004e-08
-7.49711e-08
2.96748e-09
-9.701e-08
6.70817e-09
-1.58128e-07
5.95981e-08
-1.66445e-07
1.64516e-08
-1.45021e-07
-2.72248e-08
-1.37436e-07
1.68524e-09
-1.08099e-07
6.25773e-09
-8.70735e-08
-3.10331e-09
-1.12906e-07
4.74448e-08
-9.81158e-08
1.72832e-08
-5.33452e-08
-7.1747e-08
-4.2347e-08
-4.22379e-08
-5.57209e-08
-1.18899e-08
-5.92752e-08
-4.91439e-08
-8.23282e-08
-2.73806e-08
-1.47047e-07
2.85019e-08
-1.88641e-07
3.3099e-08
-9.5883e-08
5.71777e-08
-1.18684e-07
6.82552e-08
-2.12849e-07
-1.56459e-08
-1.17319e-07
3.54248e-08
-2.24329e-07
-4.80719e-08
-2.43557e-07
3.93518e-08
-1.35197e-07
1.11835e-08
-2.27072e-07
-2.26154e-08
-6.01931e-08
-2.4283e-08
-1.43828e-07
1.19647e-08
-1.07973e-07
-4.19278e-09
-6.14303e-08
-2.37538e-10
1.13979e-08
1.61192e-08
-2.34705e-08
3.47544e-08
-1.13192e-07
1.14654e-08
-1.54167e-07
-5.36004e-09
-2.06333e-07
-6.95322e-08
-2.89981e-07
6.18875e-08
-3.41574e-07
2.94429e-08
-3.52169e-07
3.13273e-08
-3.09716e-07
1.11168e-08
-3.08451e-07
-3.4299e-08
-2.74246e-07
-1.26379e-07
-2.53414e-07
-6.46491e-09
-2.40604e-07
4.925e-09
-2.15319e-07
1.26063e-08
-1.82352e-07
1.97465e-08
1.03872e-08
-1.04987e-07
-3.09853e-08
-7.0844e-08
-6.94109e-08
-5.43591e-08
-4.70948e-08
-8.96785e-08
4.10665e-08
-1.0322e-07
-4.47563e-09
-1.06472e-07
-3.67275e-08
-8.34958e-08
-3.96601e-08
-9.65441e-08
4.75752e-08
-6.6368e-08
-2.39199e-09
-1.01355e-07
6.05205e-08
-1.19175e-07
-2.52652e-09
-8.59649e-08
7.12045e-08
-1.19332e-07
-1.15522e-09
-2.61469e-07
-5.37887e-08
-2.11152e-07
1.82248e-08
-2.7406e-07
7.6655e-08
-1.56398e-07
5.46649e-08
-2.44976e-07
-6.65988e-08
-1.52905e-07
-3.71083e-08
-1.39823e-07
-5.07516e-10
-1.7875e-07
-4.34711e-09
-2.02737e-07
1.5757e-08
-1.18414e-07
1.05436e-07
-2.36274e-07
2.01936e-08
-1.18801e-07
1.55871e-08
-2.5379e-07
1.30764e-08
-1.39536e-07
4.30185e-08
-2.32722e-07
-2.44095e-08
-2.52297e-07
-2.25887e-09
-1.45141e-07
2.96164e-08
-2.44545e-07
-8.8611e-08
-2.12387e-07
2.19852e-08
-1.65096e-07
1.01403e-08
-1.13446e-07
-3.51981e-08
-1.0969e-07
-3.09807e-08
-1.1764e-07
9.63545e-09
-1.04001e-07
-7.38131e-09
-9.48866e-08
-1.22183e-08
-7.32353e-08
2.57934e-08
-6.56674e-08
9.71535e-09
-1.05698e-07
-3.17167e-08
-1.15005e-07
-3.29312e-08
-7.68279e-08
-5.13745e-08
-1.35797e-07
-3.74147e-08
-1.44486e-07
3.03367e-08
-1.94332e-07
7.60976e-08
-2.28519e-07
6.49548e-08
-1.29376e-07
1.04698e-07
-2.34639e-07
2.94841e-08
-1.50753e-07
4.38067e-08
-1.2038e-07
6.22836e-09
-1.57589e-07
-1.08625e-08
-2.84712e-07
-2.60982e-08
-1.06221e-07
2.63489e-08
-2.17128e-07
-5.71009e-08
-9.71554e-08
6.76548e-10
-2.10171e-07
-1.68891e-08
-1.74675e-07
-4.22639e-08
-1.28205e-07
-4.62356e-08
-7.69512e-08
-3.51347e-08
-6.8655e-08
2.64581e-08
-9.61994e-08
3.90098e-08
-1.25302e-07
2.24643e-08
-8.96788e-08
4.14793e-08
-2.0692e-07
-1.26586e-08
-2.13984e-07
8.46498e-08
-1.88368e-07
-4.24318e-08
-1.7336e-07
-3.8916e-09
-1.69258e-07
-3.84006e-08
-1.29285e-07
2.75389e-08
-2.30526e-07
-4.54729e-08
-2.13265e-07
-1.23368e-08
-1.95848e-07
-4.81145e-09
-1.81601e-07
5.49942e-09
2.58517e-09
-2.11844e-07
-2.38135e-11
-1.32195e-07
-3.14087e-09
-1.08777e-07
-6.91641e-08
-2.75384e-07
1.51016e-08
-2.58066e-07
2.63496e-08
-3.21919e-07
-2.10177e-08
-1.5814e-07
-9.25268e-09
-2.39009e-07
-1.67719e-08
-9.24652e-08
-4.57469e-09
-2.04689e-07
2.83536e-08
-1.08305e-07
4.48984e-08
-1.81268e-07
-4.85227e-08
-1.7685e-07
4.25704e-08
-2.97725e-07
6.70866e-08
-3.17114e-07
3.76131e-08
-3.07029e-07
1.82407e-08
-2.47614e-07
4.38412e-08
-2.82622e-07
-3.15914e-08
-2.84768e-07
-3.53409e-08
-2.77411e-07
-7.86448e-09
-3.03876e-07
2.21617e-08
-2.83187e-07
-2.04207e-09
-2.16532e-07
3.83931e-08
-2.12722e-07
1.22103e-08
-9.5372e-08
4.49778e-08
-2.10435e-07
-1.37365e-08
-1.54963e-07
-1.50397e-08
-1.63628e-07
-1.57442e-08
-1.64433e-07
-1.45394e-09
-1.22603e-07
-1.34643e-08
-6.4996e-08
3.69806e-10
-1.62247e-07
-2.28562e-08
-1.29233e-07
-2.45293e-08
-1.17513e-07
-4.69181e-08
-1.41355e-07
-7.13931e-09
-1.45455e-07
1.37359e-08
-1.29694e-07
-2.31421e-08
-1.10971e-07
-3.09422e-08
-6.46237e-08
-2.05535e-08
-7.0619e-08
1.57106e-08
-1.28311e-07
2.59757e-08
-1.69799e-07
6.82365e-09
-7.63892e-08
1.14624e-09
-1.15209e-07
2.56559e-09
-9.87591e-08
1.52042e-08
-1.88729e-07
2.28654e-08
-1.41802e-07
1.61024e-08
-8.43102e-08
4.61377e-08
-4.52958e-08
-9.32474e-09
2.5851e-08
-2.75064e-08
1.83018e-08
1.37775e-08
-3.21411e-08
3.95804e-08
-7.77007e-08
1.94614e-08
-2.4078e-08
-2.72738e-08
-7.82011e-08
-3.56028e-09
-1.02007e-07
2.44757e-08
-1.41449e-07
2.09372e-08
-8.16634e-08
4.47108e-08
-1.94862e-07
-7.59507e-08
-2.22501e-07
-9.38754e-09
-1.85742e-07
-1.03011e-08
-1.53655e-07
6.92262e-09
-1.84029e-07
5.28386e-08
-2.09195e-07
6.40884e-08
-1.45384e-07
6.94482e-08
-2.35601e-07
-1.62229e-08
-9.39547e-08
8.5819e-09
-2.47129e-07
-4.32902e-08
-2.24933e-07
-1.24541e-08
-2.8279e-07
4.01378e-08
-2.58569e-07
-1.96865e-08
-2.27533e-07
-4.33726e-08
-2.05608e-07
-2.6738e-08
-1.86909e-07
-1.31999e-08
-4.86287e-09
-2.45945e-07
-4.54289e-08
-2.49055e-07
1.51285e-12
-1.2141e-07
-4.19271e-09
-2.70046e-07
-2.88348e-08
-2.43621e-07
4.80685e-08
-2.9481e-07
-1.81571e-08
-1.1359e-07
3.22556e-09
-1.90219e-07
-8.60728e-08
-7.32678e-08
2.32338e-08
-1.94067e-07
7.13599e-09
-1.31429e-07
-2.174e-08
-7.02594e-08
3.62259e-08
-9.42607e-08
6.66089e-08
-2.36409e-07
1.6662e-08
-2.23675e-07
2.71609e-08
-2.04442e-07
4.46006e-08
-2.29389e-07
1.80409e-08
-2.20794e-07
1.02979e-08
-2.60584e-07
-4.36942e-08
-2.7321e-07
4.76146e-09
-2.7056e-07
1.95116e-08
-1.28375e-07
4.96551e-08
-1.76874e-07
-5.56906e-08
-1.38947e-07
-2.75213e-08
-9.32654e-08
-1.16296e-09
-8.25041e-08
-2.46379e-08
-7.5618e-08
-2.19258e-08
-1.07422e-07
1.60595e-08
-1.2832e-07
1.94439e-08
-9.81371e-08
-4.36469e-08
-4.47067e-08
-5.30645e-08
-4.49634e-08
-2.28327e-08
-4.4626e-08
-2.51232e-08
-1.05227e-07
1.35447e-08
-1.21651e-07
9.28424e-09
-1.1029e-07
2.37552e-09
-1.19917e-07
-1.35152e-08
-1.37156e-07
-1.3704e-08
-1.66246e-07
8.53634e-09
-1.78345e-07
2.78101e-08
-1.90384e-07
3.80147e-08
-2.17835e-07
3.20519e-08
-7.58115e-08
5.08171e-09
-6.82659e-08
-4.20657e-09
-5.90736e-08
6.6146e-09
-1.77442e-07
-1.49107e-09
-1.30168e-07
-3.33221e-08
-1.28777e-07
4.3433e-08
-1.88246e-07
3.44479e-09
-1.68359e-07
2.14344e-09
-1.62897e-07
6.59778e-09
-1.26144e-07
2.82801e-09
-9.41704e-08
-1.25126e-08
-7.86573e-08
-4.32278e-08
-1.26161e-07
4.34997e-08
-1.36977e-07
3.52914e-08
-1.42671e-07
2.66314e-08
-1.37545e-07
3.77254e-08
-7.09297e-08
3.33505e-09
-1.51277e-07
-7.12949e-08
-1.34615e-07
-2.85064e-08
-1.08229e-07
-1.94637e-08
-9.87958e-08
4.34054e-08
-7.09101e-08
3.62026e-08
-9.63343e-08
9.32128e-08
-1.57804e-07
4.3637e-08
-1.57726e-08
1.25983e-08
-2.16049e-07
1.25889e-08
-2.49602e-07
2.13157e-08
-3.00562e-07
4.55567e-08
-2.32766e-07
-3.76738e-08
-2.03651e-07
-7.24886e-08
-1.89756e-07
-4.06335e-08
-1.78992e-07
-2.39654e-08
-9.31955e-09
-1.77586e-07
6.71344e-08
-2.17654e-07
4.41023e-08
-1.64203e-07
-9.98605e-09
-1.45924e-07
-4.87886e-08
-8.89004e-08
-9.76193e-09
-1.64328e-07
1.04326e-08
-1.57379e-07
4.35641e-08
-8.30723e-08
-1.69706e-08
-3.6985e-08
-2.20911e-08
-1.8704e-07
1.24031e-08
-4.72845e-08
-1.75049e-08
-5.7026e-08
4.61907e-08
-1.53173e-07
1.97851e-08
-1.52672e-07
1.45976e-08
-1.1442e-07
-1.10907e-08
-9.7346e-08
2.79815e-08
-1.14589e-07
3.50998e-08
-7.3006e-08
-3.12852e-08
-9.14633e-08
-2.52369e-08
-9.58937e-08
9.19181e-09
-7.76257e-08
1.24356e-09
-3.03777e-08
2.4071e-09
-7.7217e-08
-9.4195e-09
-9.13172e-08
-1.34212e-08
-8.00843e-08
-1.23959e-08
-8.42865e-08
-2.04357e-08
-7.70584e-08
-2.91539e-08
-3.61833e-08
-2.48157e-08
-4.33055e-08
2.65661e-08
-1.00225e-07
1.34091e-08
-1.87975e-07
3.43355e-08
-1.8825e-07
-2.4731e-08
-1.03666e-07
3.72799e-08
-1.70338e-07
-6.17079e-08
-1.37039e-07
-2.5752e-08
-9.66722e-08
-3.79915e-08
-1.1658e-07
6.39224e-09
-1.4573e-07
1.54466e-08
-1.59037e-07
2.18428e-08
-1.29408e-07
-1.81857e-09
-1.32635e-07
4.08243e-08
-1.23078e-07
2.124e-08
8.58096e-09
1.94893e-08
-2.53928e-08
2.96796e-08
-4.69554e-08
2.86562e-08
-1.98685e-07
5.19291e-09
-9.59188e-08
7.86372e-09
-2.47155e-07
3.07432e-09
-2.57466e-07
1.63477e-08
-2.17108e-07
9.46408e-09
-1.7627e-07
-3.64549e-08
-1.14931e-07
-5.85115e-08
-1.57937e-07
2.85912e-08
-5.90687e-08
4.47683e-09
-1.50395e-07
-7.47307e-09
-1.38789e-07
2.21512e-08
-1.31396e-07
1.92387e-08
-1.36461e-07
4.13982e-08
-6.29844e-08
7.57421e-08
-1.08892e-07
-2.5735e-08
-2.7147e-07
-1.03581e-08
-2.99728e-07
8.79441e-09
-3.10582e-07
6.11612e-09
-1.21339e-07
4.07708e-08
-2.05871e-07
3.44251e-08
-2.13337e-07
4.68267e-08
-1.08509e-07
5.46774e-08
-2.34892e-07
-5.2756e-09
-1.34267e-07
6.55711e-08
-1.90378e-07
-3.99473e-08
-1.39918e-07
-8.90337e-08
-1.56126e-07
-5.48814e-08
-1.69362e-07
-2.73986e-08
-1.70493e-07
-2.28351e-08
-7.2925e-09
-2.77911e-07
4.40671e-08
-2.36185e-07
5.10407e-08
-2.70801e-07
2.45289e-08
-2.63725e-07
-1.01317e-07
-2.4562e-07
1.71377e-08
-1.48816e-07
5.84416e-08
-2.31757e-07
-1.45233e-08
-2.04617e-07
-4.88886e-08
-8.08887e-08
9.9358e-11
-1.96487e-07
-6.36194e-08
-4.88186e-08
2.80759e-08
-1.69491e-07
2.36531e-08
-1.82537e-07
3.13039e-08
-1.85183e-07
1.72432e-08
-1.8048e-07
-1.57936e-08
-1.44235e-07
-8.26359e-09
-1.01156e-07
-7.97868e-09
-1.20546e-07
-1.18951e-08
-1.61555e-07
1.57719e-08
-1.69089e-07
1.6726e-08
-1.52525e-07
-1.53205e-08
-1.07606e-07
-4.29501e-08
-1.55312e-07
3.78997e-08
-1.56326e-07
-1.24075e-08
-1.41475e-07
-2.72463e-08
-1.25239e-07
-3.705e-08
-1.47425e-07
-6.96828e-09
-1.48062e-07
-2.41783e-08
-1.65194e-07
4.20124e-08
-7.53251e-08
7.0235e-08
-2.23017e-07
3.75642e-08
-1.42348e-07
3.822e-08
-2.49879e-07
-4.66903e-08
-2.59161e-07
-4.91217e-09
-2.65115e-07
-1.97983e-08
-2.66538e-07
-3.65686e-08
-2.70087e-07
-3.82016e-08
-2.55501e-07
8.60225e-10
-2.51758e-07
1.81003e-08
-1.17744e-07
5.79417e-08
-1.98757e-07
-2.11348e-08
-1.42941e-07
-3.80613e-08
-6.0856e-08
8.31215e-08
-9.31722e-08
6.26167e-08
-8.23913e-08
1.87157e-08
-2.10028e-07
-1.20878e-08
-8.13382e-08
2.30842e-08
-2.85338e-07
1.53305e-08
-2.1542e-07
-5.42688e-09
-2.03255e-07
-5.07476e-08
-2.11109e-07
-2.86009e-08
-1.08988e-07
3.30529e-08
-2.15739e-07
-9.80756e-09
-9.60038e-08
2.93793e-08
-1.58455e-07
-8.70992e-08
-1.28977e-07
-8.85246e-09
-7.027e-08
-3.98754e-08
-7.36369e-08
4.4313e-08
-6.06165e-08
6.13305e-08
-1.27268e-08
7.22937e-08
-1.97043e-07
-1.86758e-08
-2.42627e-07
5.3829e-08
-2.60968e-07
2.44573e-08
-9.8191e-08
7.15687e-08
-1.91712e-07
-1.46778e-08
-1.51743e-07
4.90179e-09
-1.17719e-07
2.00958e-08
-1.17204e-07
-5.84428e-09
-4.04356e-08
-1.18668e-08
-4.40149e-08
-3.67757e-08
-8.41428e-08
-4.80476e-08
-1.19554e-07
-1.86295e-08
-1.40785e-07
-6.16862e-09
-1.54084e-07
-9.53727e-09
-1.90332e-09
-1.89521e-07
5.42966e-08
-5.41404e-08
6.15791e-08
-2.12397e-07
-9.23448e-09
-1.53509e-07
3.39339e-08
-2.31687e-07
-4.74829e-08
-1.62792e-07
-1.34129e-08
-1.59771e-07
-1.93218e-08
-1.11576e-07
4.88346e-08
-1.50997e-07
4.06578e-08
-1.61501e-07
-5.36633e-08
-8.91187e-08
-4.33968e-08
-1.90505e-07
-1.75165e-08
-1.48573e-07
-1.25713e-08
-1.25332e-07
-5.99785e-09
-1.14474e-07
-2.69256e-08
-7.64387e-08
-4.62994e-08
-3.89314e-08
-4.54859e-08
-9.64974e-08
4.52097e-08
-1.45895e-07
6.51692e-08
-1.59104e-07
2.9935e-08
-1.64503e-07
-1.15991e-08
-4.53184e-08
-1.59136e-08
-1.53277e-07
3.31103e-09
-1.03988e-07
-6.39116e-08
-1.19287e-07
-1.31642e-08
-4.04945e-08
3.00753e-08
-2.04427e-07
-3.51956e-08
-2.37799e-07
5.73364e-08
-2.37534e-07
-6.39577e-09
-1.6555e-07
-2.46487e-09
-1.60141e-07
3.25375e-08
-1.31753e-07
5.75857e-08
-1.68337e-07
-1.01062e-08
-2.18689e-07
4.54396e-08
-2.63435e-07
2.4948e-08
-3.1993e-07
1.99258e-08
-3.67685e-07
9.55389e-09
-3.58771e-07
-8.05423e-09
-3.68906e-07
2.82359e-08
-3.07693e-07
-3.27201e-09
-3.50106e-07
-2.70802e-08
-1.81076e-07
-1.45182e-08
-1.3838e-07
3.95772e-08
-9.9287e-08
2.35235e-08
-9.53145e-08
1.57155e-08
-1.88582e-07
-6.3818e-08
-1.00147e-07
7.75864e-08
-2.74439e-07
-1.92896e-09
-2.63337e-07
3.19404e-08
-2.89546e-07
-2.45387e-08
-2.83514e-07
-3.46328e-08
-2.54146e-07
-4.4458e-08
-2.32503e-07
1.65923e-08
-2.45695e-07
-5.87209e-09
-1.56908e-07
1.73991e-08
-2.22234e-07
-8.8742e-08
-6.00133e-08
-5.78493e-08
-1.33736e-07
-2.43294e-08
-1.50614e-07
7.60681e-08
-1.6072e-07
8.00229e-08
-1.27099e-07
9.49312e-08
-2.37868e-07
2.29103e-08
-1.9625e-07
-1.95872e-08
-1.20316e-07
-4.36553e-09
-1.70066e-07
3.49222e-08
-1.89092e-07
2.39274e-08
-1.71538e-07
2.54231e-09
-1.83115e-07
5.73187e-09
-1.5873e-07
-3.6252e-08
-1.52404e-07
-4.31011e-08
-1.87559e-07
-1.09793e-08
-1.81839e-07
-2.24757e-08
-1.67415e-07
-2.05932e-08
-1.67012e-07
-9.94088e-09
-5.05815e-09
-1.65296e-07
1.17269e-08
-9.9609e-08
-4.73531e-09
-8.12054e-08
-2.76375e-08
-5.66729e-08
9.40168e-09
-9.59548e-08
-8.68512e-09
-8.56416e-08
-2.37261e-08
-8.25932e-08
-2.23701e-08
-6.06691e-08
2.64123e-08
-3.20458e-08
1.18282e-08
2.74025e-08
3.28067e-08
-2.78198e-08
1.18298e-08
-1.76515e-07
-1.18502e-08
-1.42634e-07
-4.8253e-08
-1.25446e-07
-2.44648e-08
-8.48876e-08
7.8434e-08
-1.81578e-07
5.12572e-08
-1.9707e-07
-2.79833e-08
-2.49392e-07
-4.544e-08
-2.31863e-07
4.50965e-08
-2.32528e-07
3.0599e-08
-2.36089e-07
-1.04466e-08
-1.30555e-07
2.59811e-08
-2.52094e-07
-1.93154e-08
-1.04608e-07
-6.87863e-08
-2.45235e-07
-6.40436e-08
-2.11088e-07
-4.37783e-09
-2.90042e-07
9.19013e-08
-3.0163e-07
6.89243e-08
-3.25041e-07
1.70154e-08
-3.06196e-07
-2.13106e-08
-2.9697e-07
2.33114e-08
-2.85727e-07
4.63434e-08
-1.75743e-07
2.43393e-08
-2.84254e-07
-3.8623e-08
-2.32107e-07
2.09442e-08
-2.80176e-07
6.79955e-08
-3.19376e-07
4.87538e-08
-1.8775e-07
4.70062e-09
-2.73853e-07
-7.8234e-08
-1.97462e-07
-3.15194e-08
-2.62671e-07
-1.00146e-08
-1.03586e-07
1.91653e-08
-8.81592e-08
2.41503e-08
-6.25849e-09
-5.83773e-08
-1.49907e-07
-3.32092e-08
-9.96901e-08
7.81074e-08
-1.78361e-07
1.25029e-08
-1.89098e-07
5.0587e-09
-2.11375e-07
5.5783e-09
-2.27226e-07
4.16122e-08
-2.57326e-07
-4.53326e-09
-2.70669e-07
-3.11147e-08
-2.37868e-07
-6.50159e-08
-2.45852e-07
2.09067e-09
-2.13855e-07
-1.45977e-08
-2.54117e-07
-1.25441e-09
-1.86274e-07
1.9327e-08
-1.82511e-07
-2.62112e-08
-2.10306e-07
-3.91077e-08
-1.55544e-07
2.31155e-08
-1.13266e-07
5.16845e-08
-1.21027e-07
3.0905e-08
-1.13222e-07
-2.73921e-08
-6.47532e-08
-5.28346e-08
-3.72431e-08
7.41209e-09
-4.9146e-08
3.58302e-08
-6.10691e-08
1.44652e-08
-8.032e-08
2.49826e-08
-9.3892e-08
-2.26801e-08
-7.93598e-08
-5.76334e-08
-8.69768e-08
-2.47524e-09
-1.15138e-07
6.55501e-09
-1.2909e-07
-6.64238e-09
-1.43593e-07
4.5607e-09
-2.17586e-10
-1.14596e-07
-1.09305e-08
-1.17051e-07
-2.27935e-09
-1.40589e-07
-4.09906e-09
-1.37787e-07
6.59972e-09
-1.14361e-07
-3.24418e-08
-1.34407e-07
-3.68032e-09
-1.53525e-07
-3.25182e-09
-1.63542e-07
3.4761e-08
-5.05944e-08
4.47991e-08
-3.03332e-08
1.2727e-08
-7.31393e-08
5.5382e-08
-1.922e-07
-3.58806e-08
-1.65723e-07
-7.66909e-08
-1.35036e-07
-5.45947e-08
-5.0886e-08
-6.51591e-09
-5.76147e-08
5.79858e-08
-9.78099e-08
1.22119e-08
-9.28792e-08
-5.08343e-08
-3.2184e-08
-1.55987e-08
-1.71349e-08
1.555e-08
-4.93672e-08
2.17857e-08
-6.15949e-08
3.79436e-08
-1.02026e-07
1.98783e-08
-1.29723e-08
-1.13299e-08
-2.71797e-07
2.3402e-09
-1.32345e-07
4.8743e-08
-2.04352e-07
-2.86645e-08
-2.15155e-07
7.97274e-08
-2.32631e-07
3.44918e-08
-2.14902e-07
9.10273e-09
-2.4243e-07
5.03268e-08
-2.17228e-07
-2.70028e-08
-1.86553e-07
-6.3357e-09
-2.08981e-07
-1.63616e-08
-1.95163e-07
5.52699e-08
-2.47362e-07
7.1323e-08
-1.98632e-07
2.07114e-09
-1.60178e-07
1.39037e-08
-1.73564e-07
-6.64824e-08
-1.47806e-07
-5.72769e-08
-1.587e-07
-7.40019e-10
-5.49438e-08
6.13277e-08
-2.09549e-07
-1.32566e-08
-8.15561e-08
6.20245e-09
-1.2253e-07
9.01479e-09
-1.90027e-07
2.60681e-09
-1.4696e-07
-3.23755e-08
-9.83422e-08
-4.35588e-08
-9.71804e-08
4.35957e-09
-8.939e-08
3.38218e-08
-9.45805e-08
6.57255e-10
-1.01079e-07
-2.59121e-08
-2.37934e-08
3.86259e-09
-1.1031e-07
-5.4124e-08
-9.61563e-08
-3.08573e-08
-1.28827e-07
-1.70474e-08
-1.20419e-07
1.34622e-08
-1.14447e-07
1.54737e-08
-1.01551e-07
-5.41223e-08
-1.03605e-07
2.49146e-08
-7.68907e-08
2.49704e-08
-8.5066e-08
3.90803e-08
-1.28518e-07
1.60602e-08
-1.41911e-07
-3.94417e-08
-8.45684e-08
-4.99308e-08
-2.20204e-08
-2.6718e-08
1.17992e-08
-1.93545e-08
1.87479e-09
3.49069e-08
-5.60687e-08
3.52632e-08
-1.10568e-07
-3.13427e-09
-1.1549e-07
3.62493e-09
-1.38008e-07
3.0227e-08
-1.61077e-07
1.6426e-08
-1.644e-07
7.88288e-09
2.0514e-09
-6.74615e-08
-5.52566e-08
-1.20746e-07
5.04906e-08
-1.8626e-07
6.14156e-08
-1.90272e-07
8.67126e-09
-8.79871e-08
1.11916e-08
-2.60053e-07
-2.32893e-08
-2.63428e-07
4.82658e-08
-2.55655e-07
2.72662e-08
-2.82131e-07
2.24456e-08
-1.37232e-07
6.10241e-08
-1.08924e-07
2.7074e-08
-1.34698e-07
-1.03665e-08
-1.43206e-07
-6.74105e-08
-2.26421e-07
-1.14351e-07
-1.44961e-07
-8.93735e-08
-9.964e-08
1.26645e-08
-1.31652e-07
4.4224e-08
-1.50839e-07
-3.19737e-08
-1.38497e-07
-2.79403e-08
-7.70763e-08
-4.5871e-08
-1.21417e-07
6.54583e-08
-1.22789e-07
3.93163e-08
-1.15416e-07
1.13272e-08
-2.22028e-09
2.17338e-08
-2.0266e-07
1.02294e-08
-1.61959e-07
8.04257e-09
-9.46594e-08
9.66084e-08
-2.52482e-07
4.49771e-08
-2.07348e-07
-1.0642e-08
-8.31428e-08
7.75275e-08
-1.68866e-07
-6.92117e-09
-1.83796e-07
-1.37952e-08
-2.04041e-07
1.18271e-08
-1.2741e-07
5.29263e-08
-1.3229e-07
6.2799e-08
-2.57797e-07
5.12547e-08
-1.20717e-07
8.2523e-09
-2.04721e-07
-9.32915e-08
-2.23241e-07
-4.84567e-08
-2.63101e-07
-1.74175e-08
-2.43637e-07
-2.02036e-08
-2.2179e-07
3.84626e-08
-2.56266e-07
2.14385e-08
-1.32736e-07
7.52453e-08
-1.14111e-07
-8.36147e-09
-1.75165e-07
-7.92832e-08
-1.50964e-07
-5.8364e-08
-1.33295e-07
-6.12275e-08
-1.02359e-07
-2.68506e-08
-1.16853e-07
4.7828e-08
-1.67108e-07
4.92073e-08
-1.15273e-07
6.88816e-08
-1.35321e-07
2.47937e-08
-1.57084e-07
-3.29135e-08
-1.20893e-07
-6.64933e-08
-2.39038e-07
-4.12847e-08
-1.88685e-07
-3.93288e-08
-1.31163e-07
-4.36739e-08
-6.59089e-08
2.72208e-08
-1.96082e-07
1.26542e-08
-1.9792e-07
2.48078e-08
-1.66078e-07
7.23904e-09
-1.31097e-07
-1.89217e-08
-1.23093e-07
-4.74455e-08
-1.08532e-07
-6.44912e-08
-8.65792e-08
-4.86714e-08
-5.07802e-08
-5.51535e-08
-2.26874e-08
6.814e-09
-7.38856e-08
8.64613e-08
-1.39666e-07
6.26457e-08
-1.42556e-07
7.96936e-09
-1.35104e-07
2.41993e-08
-1.4489e-07
2.62114e-08
-1.4888e-07
1.18717e-08
6.20477e-09
-1.55699e-07
2.78343e-09
-2.51324e-07
3.11362e-09
-1.8372e-07
-8.75213e-09
-1.2303e-07
-5.20184e-08
-7.1894e-08
-4.04716e-08
-1.21061e-07
2.56165e-08
-9.0378e-08
1.68325e-08
-1.71932e-08
9.9155e-08
-1.76497e-07
3.71698e-08
-6.67563e-08
9.53823e-08
-4.6115e-08
7.58419e-09
-1.4072e-07
-6.0768e-08
-1.81748e-07
-7.64714e-08
-2.42252e-07
-5.06887e-08
-2.01274e-07
-8.26936e-08
-1.91208e-07
5.44481e-10
-1.49311e-07
8.04474e-10
-7.2883e-08
3.75162e-08
-2.47782e-07
-4.48711e-08
-1.02468e-07
2.43419e-09
-1.41877e-07
-3.81045e-08
-9.57358e-08
-8.27221e-09
-9.95432e-08
1.4119e-08
-2.97253e-08
9.76103e-08
-2.56885e-07
4.51195e-08
-1.17086e-07
6.08164e-08
-1.33363e-07
1.11745e-07
-2.96261e-07
1.53027e-08
-1.6179e-07
4.91102e-08
-2.14375e-07
-1.28584e-08
-1.92606e-07
-3.09481e-08
-1.49995e-07
-5.64061e-08
-1.21371e-07
-1.6797e-08
-1.06371e-07
3.7386e-08
-7.7541e-08
3.3969e-08
-4.8179e-08
2.24156e-08
-5.30691e-09
-3.4704e-08
-6.08192e-08
-3.83997e-08
-2.09308e-08
5.81729e-08
-2.12573e-07
-1.81349e-08
-2.5574e-07
7.3716e-08
-2.29055e-07
9.36983e-09
-1.07729e-07
4.36695e-08
-3.31184e-08
2.07165e-09
-1.16929e-07
-6.75219e-08
-1.28671e-07
-6.95426e-08
-1.53054e-07
-3.43318e-08
-1.8374e-07
-3.24155e-08
-8.52307e-08
2.14365e-08
-1.91839e-07
1.22026e-08
-2.25736e-07
7.88444e-08
-1.16074e-07
1.05624e-07
-1.98215e-07
-3.48645e-08
-1.79589e-07
-5.53929e-08
-3.49622e-08
-6.5517e-08
-1.62999e-07
-5.62831e-08
-1.53869e-07
-5.16913e-08
-6.71009e-08
1.54763e-08
-6.59149e-08
2.71141e-08
-2.04025e-07
7.8421e-09
-1.51112e-07
-3.01876e-08
-5.66887e-08
-8.80825e-08
-3.23667e-08
-4.28069e-08
-6.85779e-08
-1.12344e-08
-1.06821e-07
-2.6248e-08
-1.12483e-07
-4.30101e-08
-1.15918e-07
-5.22517e-08
-1.29569e-07
2.02581e-08
-1.14419e-07
7.13121e-08
-1.39354e-07
8.75804e-08
-1.79421e-07
4.98663e-08
-1.79983e-07
2.65549e-08
-1.74452e-07
2.06789e-08
-1.73559e-07
1.09783e-08
4.26128e-09
-3.93827e-08
4.30942e-08
-1.60836e-07
-1.79741e-08
-1.34731e-07
-3.68745e-08
-2.14853e-07
2.59122e-08
-1.48493e-07
4.06177e-08
-2.1234e-07
-5.41528e-08
-6.66795e-08
1.55894e-08
-9.43998e-08
-1.64238e-08
-1.20326e-07
6.18808e-08
-1.02252e-07
7.63348e-08
-1.23301e-07
2.73759e-08
-1.77868e-07
-5.60442e-08
-2.12023e-07
8.42114e-09
-3.1002e-07
-8.26697e-10
-1.56637e-07
-4.48038e-08
-2.8229e-07
-6.57057e-08
-2.54585e-07
2.12428e-08
-2.45632e-07
2.84713e-08
-3.29783e-07
3.92792e-08
-2.91733e-07
-8.37592e-08
-2.20381e-07
-1.09845e-07
-2.02046e-07
-2.66075e-08
-2.1705e-07
2.91234e-08
-2.39121e-07
1.17487e-07
-2.80153e-07
8.61509e-08
-1.4337e-07
1.18069e-07
-1.9965e-07
2.50532e-08
-1.82048e-07
-4.33538e-09
-1.24202e-07
-8.73631e-09
-1.17318e-07
-1.98734e-08
-9.14786e-08
-5.67876e-08
-4.77137e-08
-1.00171e-07
1.07076e-08
-7.52184e-08
1.92851e-08
2.88085e-08
3.22916e-09
5.00248e-08
-1.26769e-08
3.83216e-08
-7.03227e-08
2.29418e-08
-1.40529e-07
3.03733e-08
-1.98454e-07
6.68581e-08
-2.58431e-07
9.20098e-08
-2.93766e-07
6.39048e-08
-2.14267e-07
-2.23769e-08
-1.2425e-07
-4.89796e-08
-8.57172e-08
-3.64608e-08
-1.3005e-07
-2.38782e-08
-1.31011e-07
-7.06387e-08
-1.94301e-07
-1.96813e-08
-1.90652e-07
-3.40823e-08
-1.80426e-07
1.28331e-08
-2.01563e-07
8.03084e-08
-1.58214e-07
3.34388e-08
-6.84012e-08
1.4734e-08
-1.04019e-07
3.97987e-10
-1.51185e-07
-9.7701e-09
-6.31357e-08
-6.97225e-09
-2.38685e-07
-7.39922e-08
-1.94461e-07
9.56823e-08
-1.80657e-07
1.51368e-09
-1.31883e-07
-2.03137e-08
-2.33155e-07
-3.37787e-08
-2.15115e-07
-5.33448e-08
-1.07913e-07
-4.82537e-08
-1.91383e-07
-1.01219e-07
-2.0815e-07
3.58062e-09
-1.7518e-07
-5.92181e-08
-1.53743e-07
-6.60161e-08
-6.54507e-08
6.04914e-09
-1.67914e-07
-1.95891e-08
-1.44479e-07
4.61636e-08
-9.24218e-08
3.55235e-08
-1.27026e-07
8.48997e-08
-1.4076e-07
4.15583e-08
-1.46409e-07
2.63274e-08
-1.54671e-07
1.92393e-08
8.35696e-09
-9.24055e-08
1.64254e-08
-1.39252e-07
2.72696e-08
-1.04464e-07
7.42555e-08
-2.50965e-07
-1.92905e-08
-2.49433e-07
3.86714e-08
-2.06768e-07
9.52037e-08
-1.64001e-07
-2.73368e-08
-1.2099e-07
-5.83679e-08
-1.90455e-07
-1.1509e-08
-1.48129e-07
3.20653e-08
-1.55982e-07
3.36372e-08
-1.03235e-07
3.7705e-08
-6.96694e-08
-2.36214e-08
-2.16717e-07
1.06147e-09
-7.77788e-08
-3.9256e-08
-1.45326e-07
-1.40344e-07
-1.5851e-07
3.10107e-08
-6.29114e-08
7.87912e-08
-1.72013e-07
-4.355e-08
-2.24683e-07
-3.10893e-08
-1.19351e-07
-2.28367e-08
-1.39312e-07
-6.64702e-09
-1.42861e-07
3.37851e-08
-1.88749e-07
2.04044e-08
-1.4033e-07
3.58064e-08
-4.14484e-08
1.91875e-08
-3.76071e-08
2.14675e-08
-7.82855e-08
3.6343e-08
-9.19521e-08
4.93028e-09
-4.74884e-08
-6.43371e-08
-5.36055e-08
-5.06706e-08
-1.17108e-07
-3.7047e-08
-1.01409e-07
-9.09168e-08
-8.3299e-08
1.05903e-08
-5.42932e-08
2.12357e-08
-9.65663e-08
8.05946e-08
-1.30756e-07
5.65548e-08
-1.48337e-07
4.79544e-08
-1.08399e-07
2.62375e-08
-9.31294e-08
7.67401e-08
-8.88316e-08
5.96069e-08
-7.10465e-08
-4.03902e-08
-4.3481e-08
-7.65452e-08
-5.71687e-08
-2.27731e-08
-1.0406e-07
2.19514e-08
-4.79803e-08
1.94e-08
-2.70041e-07
1.04964e-08
-1.44339e-07
3.24583e-08
-1.3783e-07
7.80939e-09
-1.90983e-07
-8.69929e-09
-1.36945e-07
-2.2319e-08
-6.0915e-08
-6.12965e-08
-3.0663e-08
-2.98541e-08
-4.94302e-08
8.99712e-09
-1.08276e-07
5.08405e-08
-1.10573e-07
7.53623e-08
-1.55532e-07
-1.21326e-09
-7.98489e-08
-7.65369e-08
-2.8695e-08
-7.14677e-08
-8.7266e-08
2.35574e-08
-1.60315e-07
-2.89349e-08
-2.21659e-07
1.52177e-08
-1.39346e-07
8.00878e-09
-2.66178e-07
-6.21603e-08
-2.7218e-07
-5.07347e-09
-3.25496e-07
-1.27001e-08
-3.14137e-07
-5.3718e-09
-3.02565e-07
-3.13612e-08
-3.21204e-07
1.66596e-08
-1.62234e-07
7.07817e-08
-2.40218e-07
2.21147e-08
-2.12424e-07
1.3764e-08
-2.00893e-07
1.47957e-08
-1.87677e-07
6.02185e-09
2.22346e-09
-9.76095e-08
-6.16622e-10
-9.54639e-08
2.51247e-08
-1.01576e-07
7.85742e-08
-5.61144e-08
8.11664e-08
-8.01108e-08
6.32403e-08
-2.13284e-07
3.58043e-08
-2.06459e-07
1.3981e-08
-1.37107e-07
1.81089e-08
-2.25401e-07
-6.63028e-08
-1.73161e-07
-2.24739e-08
-1.25681e-07
-1.38431e-08
-1.33825e-07
4.36542e-08
-5.50605e-08
4.3532e-08
-2.14172e-07
-3.18273e-08
-2.43301e-07
-9.82713e-09
-1.6003e-07
-3.08417e-08
-1.91164e-07
-8.08267e-08
-6.84136e-08
-4.62411e-08
-1.17444e-07
5.48063e-09
-1.86237e-07
3.58031e-08
-6.37984e-08
6.50084e-10
-4.71463e-08
-2.21673e-08
-1.30366e-07
-2.59666e-08
-1.42562e-07
3.14784e-08
-1.21752e-07
1.48453e-08
-9.12236e-08
-1.13409e-08
-7.12708e-08
1.51457e-09
-5.1082e-08
1.61542e-08
-7.15649e-08
2.54131e-08
-1.26045e-07
-9.85668e-09
-1.59685e-07
-1.88526e-08
-2.50418e-07
5.04643e-09
-1.46016e-07
1.28601e-09
-2.30182e-07
-5.10553e-08
-1.25864e-07
5.98466e-08
-2.41184e-07
7.08594e-09
-2.11172e-07
7.41998e-08
-1.81497e-07
1.6125e-08
-1.00292e-07
-5.49673e-08
-3.35081e-08
9.95623e-09
-1.17447e-08
3.78435e-08
-5.49723e-08
2.83731e-09
-8.96575e-08
-4.18601e-08
-1.05475e-07
-6.95549e-09
-1.44655e-07
5.96558e-08
-8.7128e-08
1.07591e-07
-2.67829e-07
2.24561e-09
-2.25101e-07
3.51144e-08