/*--------------------------------*- C++ -*----------------------------------*\
  =========                 |
  \\      /  F ield         | OpenFOAM: The Open Source CFD Toolbox
   \\    /   O peration     | Website:  https://openfoam.org
    \\  /    A nd           | Version:  12
     \\/     M anipulation  |
\*---------------------------------------------------------------------------*/
FoamFile
{
    format      ascii;
    class       surfaceScalarField;
    location    "0.1";
    object      phi.water;
}
// * * * * * * * * * * * * * * * * * * * * * * * * * * * * * * * * * * * * * //

dimensions      [0 3 -1 0 0 0 0];

internalField   nonuniform List<scalar> 
7375
(
1.5006e-07
4.3188e-08
1.48137e-07
4.8544e-08
2.2298e-07
6.73129e-08
1.39681e-07
-5.97243e-08
2.16892e-07
-7.5962e-08
2.49207e-07
-3.23368e-08
2.43854e-07
5.42203e-09
2.30969e-07
1.28676e-08
2.11886e-07
1.91176e-08
2.04453e-07
7.36118e-09
2.21106e-07
-1.68607e-08
2.50954e-07
-2.99658e-08
2.8927e-07
-3.83698e-08
2.90123e-07
-5.57683e-10
2.64705e-07
2.56044e-08
2.64331e-07
4.92858e-10
2.46878e-07
1.75854e-08
2.15254e-07
3.18296e-08
1.90941e-07
2.62608e-08
1.42884e-07
-2.04333e-09
1.73384e-07
1.57137e-08
1.79618e-07
-4.58967e-09
2.0611e-07
-2.67404e-08
2.25244e-07
-1.91809e-08
2.02952e-07
2.44364e-08
1.63405e-07
3.9913e-08
1.22457e-07
3.93986e-08
9.18947e-08
3.06211e-08
1.01394e-07
-9.55506e-09
9.20304e-08
-3.89325e-08
1.1734e-07
-2.67068e-08
1.58034e-07
6.96341e-09
1.75273e-07
-1.5669e-08
1.80337e-07
-5.05552e-09
1.63877e-07
1.81465e-08
2.61616e-07
4.8301e-08
1.15424e-07
-8.40541e-10
1.0663e-07
8.90792e-09
7.51443e-08
3.16428e-08
4.80495e-08
2.71896e-08
3.79876e-08
1.00446e-08
4.66654e-08
-8.7003e-09
9.60123e-08
-4.9472e-08
9.54283e-08
-4.86738e-08
1.58149e-07
-1.50641e-08
1.98051e-07
-3.83717e-08
2.06135e-07
-8.16576e-09
1.91456e-07
1.66137e-08
1.32409e-07
1.05362e-08
1.25231e-07
4.56603e-09
1.5683e-07
1.60571e-08
1.9962e-07
-4.18059e-08
2.22355e-07
-2.30602e-08
2.98021e-07
-7.58366e-08
2.8979e-07
8.17613e-09
2.92801e-07
-3.10375e-09
2.34148e-07
5.86704e-08
2.08698e-07
2.75976e-08
1.71258e-07
3.60055e-08
1.02666e-07
6.79004e-08
2.02315e-07
4.7411e-08
2.46352e-07
-4.80915e-08
1.6806e-07
-6.45598e-08
1.86506e-07
-1.64937e-08
1.9574e-07
-8.88202e-09
1.9392e-07
2.06766e-09
1.80266e-07
1.37979e-08
1.87125e-07
-7.16644e-09
2.61996e-07
-7.51761e-08
2.80599e-07
-1.86573e-08
2.88509e-07
-7.89249e-09
2.59949e-07
2.5688e-08
2.04747e-07
5.26019e-08
1.40038e-07
6.47074e-08
4.0105e-08
-1.02916e-07
4.55045e-08
-7.20497e-08
1.76793e-08
-3.01534e-08
2.54173e-08
-6.03733e-08
-3.0113e-08
-6.08624e-08
-7.54725e-08
-5.31524e-08
-4.00463e-08
-6.54069e-08
1.76767e-08
-8.60562e-08
3.35173e-08
-9.70775e-08
3.01391e-08
-1.13799e-07
2.40826e-08
-1.17601e-07
-1.30585e-08
-9.50197e-08
-5.3088e-08
-6.08835e-08
-7.25059e-08
-3.65869e-08
-2.46029e-08
-3.99145e-08
2.8932e-08
-3.79831e-08
-1.45309e-09
5.21137e-11
-2.04497e-08
-1.12467e-08
4.26931e-08
-4.62553e-08
6.12695e-08
-6.72375e-08
1.89599e-08
-4.9964e-08
-1.39943e-09
-7.0041e-08
1.54875e-08
-8.10532e-08
-1.58903e-08
-1.05541e-07
5.25327e-09
-1.14025e-07
3.29201e-08
-1.06136e-07
3.16175e-08
-1.08815e-07
4.2077e-08
-9.73533e-08
1.91599e-08
-8.5188e-08
-2.17205e-08
-9.90419e-08
-2.50784e-08
-8.71707e-08
-3.89757e-08
-1.10968e-07
3.05205e-08
-1.47212e-07
2.05745e-08
-1.71504e-07
1.92371e-08
-1.57262e-07
3.90388e-09
-1.28317e-07
1.88634e-08
-1.55818e-07
2.66604e-08
-1.58185e-07
1.12744e-08
-1.45172e-07
1.863e-08
-1.47072e-07
2.90898e-08
-1.09905e-07
-2.71228e-08
-8.67076e-08
-3.18972e-08
-1.03089e-07
-3.3091e-08
-9.22642e-08
-5.94981e-08
-5.23464e-08
-5.51356e-08
-4.78456e-08
-4.28723e-08
-5.53035e-08
-7.07846e-10
-9.18075e-08
5.36655e-08
-9.8252e-08
1.68733e-08
-8.3042e-08
-1.06436e-08
-1.3793e-07
6.97017e-08
-4.37313e-08
9.91428e-09
-2.15849e-07
-4.30696e-08
-1.26548e-07
2.87274e-08
-2.2126e-07
-4.23177e-08
-1.40879e-07
6.01538e-08
-2.10262e-07
-6.30828e-08
-2.34957e-07
5.17644e-08
-2.46525e-07
9.53499e-08
-2.82351e-07
5.62756e-08
-2.47677e-07
1.47805e-08
-2.08601e-07
-3.95102e-08
-1.97473e-07
-7.92843e-08
-1.70406e-07
-4.35613e-08
-1.13408e-07
-6.58803e-08
-9.12856e-08
-2.00548e-08
-8.72143e-08
8.83622e-09
-1.76801e-07
3.37809e-08
-8.50591e-08
2.83259e-08
-1.88103e-07
-5.85847e-08
-1.65029e-07
-3.08866e-08
-1.47779e-07
9.83101e-09
-1.30866e-07
3.56871e-08
-1.19353e-07
5.31926e-08
3.16133e-08
-1.06657e-07
1.75656e-09
-8.85143e-08
-4.62181e-10
-5.00589e-08
-1.30372e-08
-7.76753e-08
-2.49589e-09
-1.24684e-07
-2.84633e-08
-9.85471e-08
-6.68651e-08
-7.86344e-08
-2.23563e-09
-1.09082e-07
6.33196e-08
-1.25453e-07
4.65101e-08
-1.2101e-07
1.96399e-08
-1.15924e-07
-1.9526e-08
-7.98817e-08
5.67883e-08
-1.14515e-07
-3.58889e-08
-1.8171e-07
-1.0038e-07
-1.61991e-07
5.70678e-09
-9.06459e-08
7.31207e-08
-1.33549e-07
2.47407e-08
-1.73168e-07
-6.06585e-08
-1.10321e-07
-3.31031e-09
-7.38163e-08
-1.77258e-08
-9.16926e-08
1.6477e-08
-9.15198e-08
1.43812e-08
-3.9605e-08
7.85215e-08
-1.4757e-07
-2.93524e-08
-1.56842e-07
4.06862e-08
-8.96162e-08
-3.56083e-08
-1.17643e-07
7.01034e-08
-1.20405e-07
2.19226e-08
-1.14701e-07
-2.74252e-08
-1.38019e-07
-3.16762e-09
-1.75172e-08
-1.33791e-08
-1.26882e-07
-2.88044e-09
-1.66068e-07
5.84669e-08
-1.65599e-07
1.8768e-08
-1.38824e-07
-2.28711e-08
-1.23238e-07
3.27676e-09
-9.95608e-08
2.98321e-09
-8.29236e-08
-5.36283e-09
-1.08247e-07
4.39537e-08
-9.28053e-08
1.36478e-08
-5.22327e-08
-6.76955e-08
-4.90019e-08
-3.5128e-08
-6.49478e-08
-1.73219e-08
-9.85207e-08
-2.59251e-08
-9.60275e-08
-5.76288e-08
-1.23711e-07
-1.51887e-08
-1.42248e-07
1.63782e-08
-1.98312e-07
6.10905e-08
-1.90127e-07
1.0711e-08
-1.30912e-07
1.22715e-07
-2.57563e-07
3.77995e-09
-1.95441e-07
-4.16534e-09
-2.16169e-07
-2.23413e-08
-2.38001e-07
2.41601e-09
-7.14958e-08
-1.66816e-08
-1.90616e-07
-1.39124e-08
-6.2497e-08
2.00882e-09
-1.50259e-07
-3.41056e-09
-5.40688e-08
-2.37297e-09
-2.10969e-08
2.33038e-08
-4.87191e-08
4.24026e-08
-1.12793e-07
2.301e-08
-4.7739e-08
1.59617e-09
-2.26396e-07
-8.8475e-09
-2.94528e-07
2.2513e-09
-3.40493e-07
2.59099e-08
-3.40947e-07
9.28928e-09
-3.22823e-07
1.53122e-08
-2.81572e-07
-1.29246e-08
-2.78765e-07
-5.91458e-08
-2.49453e-07
-5.71035e-08
-2.36568e-07
-3.05435e-09
-2.14068e-07
1.31848e-08
-1.81576e-07
2.06993e-08
1.09309e-08
-9.42906e-08
-2.58612e-08
-1.04761e-07
1.00095e-08
-9.36586e-08
-2.41388e-08
-8.44128e-08
-1.1741e-08
-1.22024e-07
7.90359e-09
-4.68872e-08
3.91693e-09
-6.48842e-08
1.69019e-08
-1.14893e-07
-2.96424e-08
-1.19374e-07
4.98191e-08
-1.09764e-07
8.91056e-09
-5.83673e-08
7.49959e-08
-1.59349e-07
-3.47864e-08
-1.90676e-07
-4.56216e-09
-2.23058e-07
-2.08781e-08
-2.11872e-07
-5.47905e-09
-1.92952e-07
5.3455e-08
-2.30484e-07
1.41299e-08
-2.05678e-07
-3.58418e-08
-1.68907e-07
-4.17874e-08
-6.81041e-08
2.56494e-08
-1.86795e-07
-8.56654e-09
-1.83169e-07
1.07551e-08
-2.15133e-07
6.09201e-08
-1.0326e-07
5.15743e-08
-2.74939e-07
1.9792e-08
-1.23299e-07
5.32453e-09
-2.48912e-07
3.1117e-09
-2.05574e-07
2.67278e-08
-2.22823e-07
-1.01759e-08
-2.35187e-07
-3.93488e-08
-2.2683e-07
2.88578e-08
-2.12965e-07
-1.66067e-08
-1.67076e-07
1.04054e-08
-1.1455e-07
-3.37582e-08
-1.06657e-07
-3.07642e-08
-1.085e-07
5.11947e-09
-9.52444e-08
-1.02719e-08
-8.9205e-08
-1.14023e-08
-6.86911e-08
2.34398e-08
-5.72712e-08
2.22783e-09
-1.00705e-07
-2.42612e-08
-1.18852e-07
-1.83813e-08
-7.57144e-08
8.54589e-08
-2.35878e-07
-9.41864e-09
-1.62213e-07
1.31356e-08
-1.43529e-07
-3.38726e-08
-1.62625e-07
3.51161e-08
-3.03491e-07
8.76058e-09
-1.50572e-07
5.03648e-08
-2.03033e-07
-1.73962e-08
-1.86937e-07
-1.23159e-08
-1.90671e-07
-4.31484e-10
-1.93312e-07
2.84432e-08
-2.30479e-07
-8.55963e-09
-6.18397e-08
7.25197e-09
-2.36304e-07
-3.20208e-08
-1.06442e-07
6.58053e-08
-2.19466e-07
-3.37327e-08
-1.28312e-07
-9.57652e-08
-8.58782e-08
-1.89372e-08
-8.12575e-08
3.77818e-08
-1.0588e-07
4.65528e-08
2.18346e-08
1.99889e-08
-1.62308e-07
-1.75009e-08
-2.05823e-07
9.39097e-08
-2.07373e-07
2.7459e-08
-2.09101e-07
1.10167e-08
-1.56025e-07
-3.77638e-08
-1.33785e-07
-3.5165e-08
-1.92982e-07
-4.61233e-08
-2.11427e-07
1.0451e-08
-2.106e-07
-3.88243e-09
-1.95314e-07
-2.10238e-09
-1.81476e-07
6.8594e-09
3.10993e-09
-1.2112e-07
-6.63853e-08
-2.1535e-07
-8.83322e-08
-2.204e-07
-1.90877e-08
-2.18168e-07
3.41709e-08
-2.4367e-07
3.3406e-08
-2.44625e-07
4.83274e-09
-2.78417e-07
2.55026e-09
-1.1807e-07
2.28155e-09
-2.58983e-07
-1.84001e-09
-6.91375e-08
1.1638e-08
-1.79284e-07
-8.19541e-09
-2.23155e-07
5.72281e-08
-2.40728e-07
1.30109e-08
-2.68978e-07
7.37176e-09
-2.99944e-07
2.5488e-08
-2.53223e-07
6.73403e-09
-2.65312e-07
2.62186e-08
-2.74906e-07
-2.62471e-08
-2.69019e-07
-4.81007e-08
-2.46791e-07
3.15955e-09
-2.7778e-07
2.24225e-08
-3.06386e-07
4.24867e-08
-2.31723e-07
-1.60827e-08
-9.54788e-08
5.82597e-08
-2.62881e-07
-4.40495e-09
-1.09072e-07
4.52011e-08
-1.99758e-07
-4.91729e-08
-1.60307e-07
-1.47606e-08
-1.72262e-07
2.13804e-11
-6.45624e-08
-1.13017e-09
-1.59845e-07
-6.61432e-08
-1.471e-07
1.81376e-08
-1.37841e-07
-3.54174e-10
-1.23246e-07
-4.83531e-08
-1.40157e-07
-1.38541e-08
-1.34338e-07
-6.98875e-10
-1.18396e-07
-2.62139e-08
-1.07581e-07
-2.22181e-08
-6.4521e-08
-1.96199e-08
-4.96956e-08
-1.27274e-08
-1.1624e-07
4.10974e-08
-5.03455e-08
6.16425e-08
-2.0822e-07
5.04024e-08
-2.37811e-07
2.01718e-08
-2.25773e-07
1.09787e-09
-5.42374e-08
-1.22816e-08
-1.45395e-07
-1.653e-08
-1.26584e-07
-1.15335e-08
-2.64556e-08
-5.02768e-08
-5.80567e-09
-3.76618e-08
-2.19243e-08
3.80286e-09
-5.92747e-08
3.6919e-08
-3.79173e-08
7.15909e-09
-3.23453e-08
-1.41314e-08
-3.36732e-08
8.58002e-09
-1.24893e-07
5.8601e-08
-9.87887e-08
3.86936e-08
-1.80898e-07
-6.1662e-10
-1.43262e-07
6.24784e-08
-2.31522e-07
-7.36483e-08
-1.98039e-07
1.91712e-09
-1.72777e-07
1.95286e-08
-9.412e-08
8.70441e-08
-1.52661e-07
4.19999e-08
-2.30636e-07
-2.06886e-08
-1.56841e-07
1.82532e-09
-2.28446e-07
3.4478e-08
-2.02574e-07
-1.54925e-08
-2.20823e-07
-1.6917e-08
-2.81969e-07
1.78997e-08
-2.58342e-07
-1.03579e-08
-2.26368e-07
-3.5857e-08
-2.05777e-07
-2.2695e-08
-1.87291e-07
-1.16286e-08
-4.3076e-09
-1.87454e-07
-9.11246e-09
-2.48151e-07
-2.76336e-08
-2.75217e-07
-3.97592e-08
-2.14982e-07
2.20799e-08
-2.08691e-07
2.7395e-08
-2.25546e-07
2.16887e-08
-2.27579e-07
-4.35598e-08
-9.08259e-08
5.81016e-08
-2.80615e-07
-4.62355e-09
-9.24021e-08
1.59983e-08
-1.18225e-07
1.76281e-08
-1.87447e-07
-6.61225e-08
-1.53001e-07
-2.14351e-08
-1.97176e-07
9.86827e-08
-2.22865e-07
5.11771e-08
-1.3242e-07
6.07198e-08
-2.41654e-07
-8.97784e-09
-2.3255e-07
-3.53504e-08
-2.22563e-07
-5.86868e-08
-2.43e-07
2.33587e-08
-2.29824e-07
9.24695e-09
-2.39949e-07
4.46775e-09
-7.98049e-08
1.69968e-08
-1.38025e-07
-2.70793e-08
-1.38627e-07
-5.21107e-09
-7.38491e-08
-1.9577e-08
-8.25289e-08
-4.09947e-08
-1.04082e-07
6.79207e-09
-1.23482e-07
1.94218e-08
-8.97685e-08
-3.48322e-08
-5.73333e-08
-9.95945e-08
-3.60082e-08
-3.00256e-09
-8.65048e-08
5.01424e-08
-1.14193e-07
-2.04562e-08
-1.24497e-07
-3.55029e-09
-8.99507e-08
-3.56085e-08
-9.85371e-08
-1.76275e-08
-1.43902e-07
2.2913e-08
-1.93056e-07
2.75645e-08
-1.13057e-07
5.37457e-08
-1.37083e-07
6.5608e-08
-9.87441e-08
2.29083e-08
-2.46104e-07
5.18916e-09
-2.24617e-07
-1.315e-09
-2.20277e-07
-3.24228e-09
-3.23861e-08
-7.26861e-09
-1.62464e-07
-2.95904e-08
-1.46157e-07
-3.09889e-08
-1.7072e-07
-2.39533e-08
-1.6854e-07
-3.81179e-08
-1.90367e-07
2.3669e-08
-1.5426e-07
-7.69362e-10
-3.38091e-08
3.2627e-08
-8.1916e-08
3.43206e-08
-6.17114e-08
-1.09948e-08
-1.72209e-07
2.58667e-08
-1.65312e-07
2.83531e-08
-5.59072e-08
3.62772e-08
-2.24215e-07
3.87838e-08
-9.79569e-08
-7.08562e-09
-1.47205e-07
-9.18063e-08
-1.03193e-07
-2.59849e-08
-6.23533e-08
4.53163e-08
-8.58211e-08
6.54676e-08
-1.10744e-07
3.10444e-09
-1.92283e-08
5.62273e-08
-2.07014e-07
2.98863e-08
-1.78386e-07
4.02223e-09
-2.8094e-07
8.56373e-08
-2.58802e-07
-1.59887e-09
-2.36299e-07
-3.02741e-08
-2.07031e-07
-6.51253e-08
-1.92081e-07
-3.76474e-08
-1.8068e-07
-2.30307e-08
-8.92237e-09
-1.61514e-07
6.41321e-11
-2.11706e-07
2.47197e-08
-2.11089e-07
-4.03755e-08
-1.55448e-07
-3.72992e-08
-2.43927e-09
2.03049e-08
-1.85547e-07
6.03919e-08
-7.56428e-08
-9.03392e-09
-1.51797e-07
-5.83169e-08
-2.2618e-07
6.97598e-08
-5.54185e-08
3.781e-08
-1.60611e-07
-6.97522e-08
-1.60002e-07
-6.67312e-08
-5.93392e-08
7.10806e-08
-1.46283e-07
4.22293e-08
-1.12444e-07
1.58462e-08
-8.83449e-08
3.66204e-08
-1.14716e-07
1.73936e-08
-9.45788e-08
-5.64524e-08
8.93372e-10
-8.24969e-09
-9.37427e-08
-2.49853e-08
-5.27826e-08
-3.30061e-08
-5.62925e-08
7.97776e-09
-4.69536e-08
7.65805e-09
-1.03423e-07
2.882e-08
-1.05961e-07
-2.67336e-09
-1.02882e-07
-2.26558e-08
-6.7668e-08
-7.69942e-08
-2.56764e-08
-3.51995e-08
-3.49676e-08
2.8713e-08
-1.5549e-07
8.4104e-08
-1.27527e-07
1.83613e-08
-1.55399e-07
2.61701e-08
-2.13914e-07
-8.17332e-08
-1.69779e-07
-1.69347e-08
-1.62919e-07
-1.38038e-08
-4.75413e-08
-5.06825e-09
-5.82227e-08
-5.86714e-09
-1.68575e-07
-9.70637e-09
-1.76485e-07
3.19544e-08
-6.40099e-08
8.72951e-08
-1.12378e-07
-2.94834e-08
9.23907e-09
4.60513e-08
-1.86949e-07
8.70968e-09
-1.96931e-07
8.66772e-09
-2.20263e-07
2.00892e-08
-2.6834e-08
-8.12423e-09
-2.37868e-07
-1.14308e-08
-2.20673e-07
-4.06039e-11
-2.59718e-07
1.53364e-08
-1.49395e-07
-2.87641e-09
-2.23871e-07
-4.70863e-08
-1.0476e-07
2.37303e-08
-6.27727e-08
-8.62412e-09
-2.28846e-07
7.82117e-09
-4.12261e-08
-5.62115e-09
-1.62984e-07
4.86595e-09
-1.59605e-07
2.16832e-08
-2.20807e-08
4.42971e-08
-1.72949e-07
-2.69541e-09
-1.85829e-07
5.85381e-09
-2.38572e-07
8.14313e-09
-2.80158e-07
1.56017e-08
-2.56469e-07
2.1627e-08
-2.66376e-07
2.72312e-08
-1.06222e-07
3.55229e-08
-8.61292e-08
3.55607e-08
-2.66938e-07
1.79383e-08
-1.31487e-07
6.11437e-08
-2.69647e-07
3.12239e-08
-9.60436e-08
1.83507e-08
-1.57929e-07
-1.10072e-07
-1.64263e-07
-5.87926e-08
-1.73515e-07
-2.83968e-08
-1.73342e-07
-2.32054e-08
-7.32372e-09
-2.10564e-07
8.95347e-08
-2.4923e-07
6.40409e-08
-2.8034e-07
-9.67699e-09
-2.86822e-07
-3.08161e-08
-1.2105e-07
-1.2316e-09
-2.5097e-07
-2.26033e-09
-1.10109e-07
4.3118e-08
-1.92542e-07
2.41164e-08
-2.85556e-07
-2.9799e-08
-1.83065e-07
-1.65373e-08
-2.70376e-07
-3.05847e-08
-1.27944e-07
-1.65902e-08
-8.58698e-08
2.98829e-08
-1.82538e-07
-3.64657e-09
-1.94266e-07
2.54521e-08
-1.56447e-07
-1.19811e-09
-1.13808e-07
-2.5246e-08
-1.01724e-07
-6.92421e-08
-1.16659e-07
6.76966e-09
-1.63457e-07
1.98901e-08
-8.74606e-08
3.69157e-08
-1.14236e-07
3.56452e-08
-9.9728e-08
-5.83211e-09
-1.99338e-07
-1.4396e-08
-1.75723e-07
-2.83221e-08
-1.91347e-07
-9.07549e-09
-1.02884e-07
-1.95392e-08
-1.20555e-07
-1.64786e-08
-9.83758e-08
6.53332e-09
-2.18758e-07
1.19132e-08
-8.86317e-08
8.06207e-08
-2.3969e-07
-1.53448e-08
-2.63772e-07
-9.50795e-09
-2.66927e-07
-1.39525e-08
-2.69718e-07
-1.10124e-08
-2.45659e-07
-2.9076e-08
-2.39293e-07
-1.22334e-08
-2.41525e-07
-7.57341e-09
-2.13197e-07
3.62664e-09
-1.99233e-07
2.42975e-08
-7.70676e-08
4.06232e-08
-6.31925e-08
3.17064e-08
-2.37964e-07
-9.09177e-09
-2.47455e-07
1.8159e-08
-2.30955e-07
3.58904e-09
-4.45118e-08
-1.99428e-09
-2.58115e-07
9.59932e-09
-2.10494e-07
4.81784e-10
-1.94602e-07
-5.55748e-10
-1.73191e-07
-2.42865e-08
-1.93927e-07
-2.68303e-08
-1.98847e-07
-1.97351e-08
-8.26876e-08
6.77895e-08
-2.37674e-07
-2.97657e-08
-7.34207e-08
2.34481e-08
-1.28809e-07
-8.26679e-08
-1.02112e-07
-6.3279e-09
-3.56227e-08
-2.26439e-08
-4.40269e-08
5.25972e-09
-1.42681e-07
5.58686e-08
-1.98921e-07
1.13982e-07
-2.27997e-07
4.42266e-08
-2.25457e-07
1.90871e-08
-2.50623e-07
4.29753e-09
-9.92259e-08
7.59238e-08
-5.25586e-08
-1.06797e-08
-1.52616e-07
-2.49759e-08
-1.13405e-07
2.01696e-08
-7.23385e-08
-9.84281e-09
-2.93164e-08
-2.46718e-08
-8.82752e-08
-5.13359e-08
-1.24479e-07
-2.17072e-08
-1.44536e-07
-8.34187e-09
-1.57139e-07
-1.06038e-08
-2.23475e-09
-1.56268e-07
4.00214e-08
-1.63751e-07
2.12751e-08
-1.43227e-07
1.96129e-08
-2.18486e-07
-1.47062e-09
-1.75625e-07
3.56514e-09
-1.75635e-07
-5.83317e-09
-1.36872e-08
2.70886e-08
-1.71876e-07
-1.0128e-08
-2.4442e-07
4.27454e-08
-2.58739e-07
-2.24063e-09
-2.60137e-07
-2.91873e-08
-1.0121e-07
1.68844e-08
-7.20179e-08
6.90705e-10
-6.2603e-08
-1.24598e-08
-1.66327e-07
-1.39356e-08
-1.1522e-07
-5.40014e-08
-9.78053e-08
-4.36588e-08
-2.71891e-08
6.06019e-09
-8.87677e-08
6.86258e-08
-1.07161e-07
3.82837e-08
-7.46202e-08
3.99816e-09
-2.30029e-07
-1.51883e-09
-4.42125e-08
1.37557e-09
-1.6268e-07
-3.90452e-08
-1.24725e-07
-6.92088e-08
-1.72175e-07
-1.0265e-08
-1.70459e-07
2.88434e-08
-2.24975e-07
3.80381e-08
-2.11544e-07
-6.89759e-09
-1.82294e-07
-1.73372e-08
-1.22927e-07
2.12542e-08
-1.67028e-07
2.8756e-08
-2.02355e-07
2.58182e-08
-2.21658e-07
5.35133e-09
-2.63885e-07
3.12143e-08
-3.07799e-07
1.4838e-08
-3.39904e-07
1.98711e-08
-3.61815e-07
1.43376e-08
-3.19846e-07
-3.83425e-08
-3.00921e-07
5.37325e-09
-2.36506e-07
-2.37926e-08
-2.35263e-07
-1.76796e-08
-2.47991e-07
3.63691e-09
-2.29038e-07
-7.93773e-10
-2.08576e-07
-1.68736e-08
-6.5068e-08
4.7071e-08
-2.33979e-07
-1.39203e-08
-2.03068e-07
1.78963e-08
-2.36554e-07
3.29308e-08
-2.67914e-07
7.07354e-09
-2.71589e-07
-2.31551e-08
-2.72012e-07
-1.93122e-08
-2.11407e-07
7.18429e-09
-2.35863e-07
-5.30934e-09
-2.26753e-07
-3.38049e-08
-1.03162e-07
-1.45289e-08
-2.40032e-07
-6.2031e-08
-9.42754e-08
2.41723e-08
-9.61309e-08
7.11528e-09
-1.22086e-07
8.0433e-08
-2.23567e-07
2.54299e-08
-2.22681e-07
9.00885e-08
-2.12005e-07
3.97633e-09
-8.89623e-08
2.80897e-08
-1.92536e-07
3.548e-08
-1.14522e-07
5.52403e-08
-1.26403e-07
-1.08924e-08
-2.12199e-07
-3.70065e-08
-1.74254e-07
-4.99527e-08
-1.54182e-07
-4.47446e-08
-1.88593e-07
-1.50011e-08
-1.83308e-07
-2.51075e-08
-1.69316e-07
-2.23358e-08
-1.68749e-07
-1.11725e-08
-5.32883e-09
-1.57433e-07
-2.63617e-08
-1.04313e-07
-3.36668e-08
-2.83229e-08
-5.69578e-08
-6.85415e-08
3.83572e-08
-8.46032e-08
1.96637e-08
-5.12212e-08
-3.9619e-08
-4.0167e-08
1.55992e-08
-6.77951e-08
1.75003e-08
-7.15751e-08
4.62674e-08
-1.35751e-07
1.32959e-08
-1.85614e-07
2.39545e-08
-1.06676e-07
-1.43958e-08
-9.08256e-08
-1.60842e-08
-5.76797e-08
-4.61939e-08
-1.40131e-07
1.97329e-08
-2.09636e-07
1.7108e-08
-2.7775e-07
2.42079e-08
-1.45699e-07
6.65207e-08
-1.66728e-07
8.96548e-08
-1.74274e-07
4.58301e-08
-1.48362e-07
-2.19145e-08
-2.90016e-07
-5.24374e-08
-1.05082e-07
9.1077e-09
-2.60155e-07
-7.69436e-08
-2.29495e-07
-5.17252e-08
-2.82072e-07
4.24168e-08
-2.77754e-07
2.45249e-08
-2.90377e-07
5.06611e-08
-3.06886e-07
9.61161e-09
-3.0533e-07
-1.88932e-08
-2.77783e-07
-6.29274e-09
-2.58245e-07
9.21813e-09
-2.64537e-07
-1.60328e-08
-2.4713e-07
3.60871e-08
-2.46551e-07
3.0635e-08
-2.66923e-07
3.52102e-08
-2.78893e-07
3.18414e-08
-2.51691e-07
-6.1008e-08
-1.88634e-07
-5.32561e-08
-1.6122e-07
-2.18178e-08
-1.46335e-07
-3.90764e-08
-2.07848e-07
-4.31028e-09
-1.73986e-07
-3.02245e-08
-1.76359e-07
1.57901e-09
-1.64191e-07
1.91021e-08
-1.60151e-07
-3.44336e-09
-1.89326e-07
6.1e-08
-8.98572e-08
6.23943e-08
-2.06456e-07
6.01714e-09
-2.19128e-07
1.97452e-08
-2.51695e-07
9.41189e-09
-2.57422e-07
-1.37255e-08
-2.76811e-07
2.65737e-08
-2.24204e-07
-5.7916e-08
-2.16715e-07
-4.12938e-08
-2.03121e-07
-2.81231e-08
-2.72559e-07
-4.07357e-08
-2.32218e-07
-1.6169e-08
-8.5481e-08
5.38234e-08
-1.78891e-07
2.87742e-08
-7.98096e-08
7.12461e-08
-1.4724e-07
1.62629e-08
-1.22034e-07
-2.27318e-08
-5.52102e-08
-3.90204e-08
-3.38405e-08
1.4472e-08
-2.27157e-08
4.35517e-08
-4.1083e-08
7.47456e-09
-8.56305e-08
7.16304e-09
-9.99217e-08
-3.56618e-08
-8.20386e-08
-6.26281e-08
-8.99244e-08
-6.19852e-09
-1.17095e-07
2.96062e-09
-1.3088e-07
-8.55218e-09
-1.45259e-07
3.20487e-09
-6.29208e-10
-1.08223e-07
-5.06393e-08
-1.13987e-07
-2.90643e-08
-3.24861e-08
7.79504e-09
-1.34954e-07
-1.81765e-09
-1.60344e-07
4.20415e-08
-4.69043e-08
-6.6562e-09
-1.5763e-07
-1.61726e-08
-1.44377e-07
1.16654e-09
-1.14052e-07
-3.26962e-08
-1.66171e-07
6.64428e-08
-2.28309e-07
8.60919e-08
-9.42998e-08
4.49837e-08
-1.66661e-07
-8.66939e-08
-9.21188e-08
-1.22436e-07
-8.46177e-08
1.10546e-08
-6.1492e-09
8.46214e-08
-1.32056e-07
7.20615e-09
-4.60625e-08
-2.10349e-08
2.16815e-09
4.1006e-08
8.35998e-09
3.96384e-08
-2.81026e-08
1.45481e-08
-9.89668e-08
1.74174e-08
1.72547e-08
3.88046e-08
-2.09727e-07
-4.31514e-08
-1.94591e-07
-1.87172e-08
-2.1966e-07
1.93422e-08
-2.156e-07
6.86087e-08
-1.96761e-07
3.18214e-08
-2.12322e-07
2.51724e-08
-2.46836e-07
1.56213e-08
-2.18394e-07
-3.47343e-08
-1.81997e-07
-2.71797e-08
-1.93282e-07
-4.74746e-09
-2.28215e-07
7.102e-08
-2.41388e-07
4.38079e-08
-2.17228e-07
1.10505e-08
-2.32876e-07
4.74891e-08
-1.15296e-07
-3.41581e-08
-1.01048e-07
-6.64733e-08
-1.60278e-07
-1.07178e-07
-4.84512e-08
-6.63676e-09
-2.21557e-07
-2.32835e-08
-2.07789e-07
4.15075e-09
-2.57161e-07
2.80828e-09
-2.21253e-07
-1.45481e-08
-1.57959e-07
-1.9081e-08
-1.29304e-07
3.10393e-08
-6.58356e-08
-1.71028e-09
-8.60116e-08
2.61932e-08
-6.42383e-08
-2.04893e-09
-8.46715e-08
2.89815e-08
-5.53688e-08
1.0289e-07
-1.97043e-07
-2.37599e-08
-6.88219e-08
6.43575e-09
-7.71548e-08
-3.29609e-08
-1.2536e-07
-1.24347e-07
-1.63978e-07
-2.11854e-09
-9.38621e-08
5.81453e-08
-6.47278e-08
2.53494e-08
-1.03356e-07
-7.52778e-08
-7.36987e-08
3.94051e-08
-9.54349e-08
3.8165e-08
-1.31158e-07
1.2991e-08
-1.33528e-07
-3.66503e-08
-7.65032e-08
-4.2553e-08
-1.2488e-08
-2.04638e-08
1.63244e-08
-2.13381e-08
2.38393e-09
2.11031e-08
-5.82424e-08
2.49642e-08
-1.10845e-07
-1.00259e-08
-1.16803e-07
9.51046e-10
-1.39121e-07
2.64451e-08
-1.6137e-07
1.36951e-08
-1.64522e-07
6.35441e-09
1.48067e-09
-6.38215e-08
1.2144e-08
-7.28093e-08
-1.94243e-08
-1.07294e-07
4.22015e-08
-9.9946e-08
-9.18399e-09
-2.08843e-07
-4.16344e-08
-2.22493e-07
5.46485e-08
-2.72284e-07
3.34535e-08
-2.76612e-07
5.55128e-09
-2.41155e-07
-6.78192e-08
-2.63121e-07
4.02655e-08
-2.08237e-07
3.12083e-08
-1.21326e-07
-4.19271e-08
-2.00204e-07
-8.70069e-09
-1.09876e-07
-1.90698e-08
-1.63592e-07
-7.74186e-08
-7.5639e-08
-5.92459e-09
-1.31511e-07
6.18104e-08
-7.94876e-08
7.36792e-08
-1.27202e-07
-5.34478e-08
-8.86368e-08
-2.24692e-10
-1.09301e-07
3.48567e-08
-1.1459e-07
2.27071e-08
-5.2895e-08
-2.40718e-08
-1.73509e-07
2.88237e-08
-1.58665e-07
1.63519e-08
-1.98314e-07
5.89911e-08
-2.42014e-07
6.41657e-08
-1.91439e-07
2.93893e-08
-1.92305e-07
2.60388e-08
-2.14776e-07
-9.94987e-09
-1.0554e-07
4.86028e-08
-1.30527e-07
-2.19258e-09
-1.30068e-07
-5.2062e-09
-2.2243e-07
-2.91916e-08
-2.30028e-07
5.14058e-08
-1.26188e-07
9.97842e-08
-2.13075e-07
-5.81976e-08
-1.56083e-07
-4.30064e-08
-2.02366e-07
-2.03985e-08
-2.33773e-07
-7.68639e-08
-2.14145e-07
-2.61972e-08
-2.4452e-07
7.02028e-09
-2.69823e-07
2.97578e-08
-2.95795e-07
-1.93636e-08
-2.16642e-07
-9.37009e-08
-5.28361e-08
1.00308e-08
-1.57441e-07
-7.25343e-09
-1.19921e-07
-4.1257e-08
-1.48611e-07
5.33663e-08
-3.65947e-08
3.18536e-08
-6.36402e-08
5.64003e-08
-2.17624e-07
6.32516e-08
-1.86038e-07
-5.53459e-08
-1.67462e-07
-1.21407e-08
-2.14798e-07
1.43756e-08
-1.39184e-07
-7.38858e-09
-1.37938e-07
-3.36437e-09
-1.11125e-07
3.13324e-08
-2.3446e-07
-4.38879e-08
-8.30054e-08
-3.40811e-08
-2.05008e-07
1.82526e-08
-1.73882e-07
4.94741e-09
-1.28183e-07
-3.27082e-08
-1.12806e-07
-5.2027e-08
-1.01414e-07
-5.39458e-08
-8.12614e-08
-4.06165e-08
-5.06984e-08
-5.19015e-08
-1.89317e-08
-1.06639e-08
-7.39272e-08
7.99593e-08
-1.36206e-07
5.22528e-08
-1.42036e-07
8.22885e-09
-1.3555e-07
2.13787e-08
-1.447e-07
2.28426e-08
-1.48444e-07
1.0097e-08
5.44226e-09
-2.92358e-07
1.07436e-08
-1.43672e-07
2.44641e-08
-1.0285e-07
1.38094e-09
-5.2537e-08
-5.94967e-08
-9.56832e-08
2.48845e-09
-1.36068e-07
-4.79373e-08
-1.35285e-07
2.99022e-08
-1.51347e-07
-2.70263e-08
-3.43062e-08
9.25745e-09
-1.7801e-07
-8.60379e-09
-1.58609e-07
1.18079e-08
-7.68918e-08
6.89286e-08
-2.1151e-07
-1.8512e-08
-2.05066e-07
-2.34214e-08
-2.59471e-07
-2.64156e-08
-1.13635e-07
-8.5163e-09
-6.51673e-08
1.45016e-08
-1.83877e-07
-9.35765e-10
-1.78269e-07
-1.14572e-08
-1.79453e-07
-4.53538e-08
-1.18245e-07
2.13062e-08
-1.10718e-07
1.28439e-08
-5.39149e-09
1.65204e-08
-1.85828e-07
1.64487e-08
-1.61191e-07
3.98573e-08
-2.05136e-07
5.47937e-08
-2.17045e-07
7.53059e-08
-1.9259e-07
5.30777e-08
-2.18068e-07
5.59835e-09
-2.11561e-07
3.12005e-08
-1.5837e-07
-6.74692e-09
-1.17703e-07
-4.28595e-08
-1.01414e-07
-2.14954e-08
-1.40131e-07
9.52542e-09
-1.10106e-07
2.13806e-08
-2.26466e-08
1.23251e-08
-2.65072e-08
-5.43369e-08
-7.45652e-09
-6.27736e-08
-1.14569e-07
3.80745e-08
-1.8379e-07
4.16694e-08
-2.32707e-07
2.5094e-08
-2.15868e-07
-1.18794e-08
-1.99463e-07
-3.75113e-08
-1.95254e-07
-2.15372e-08
-7.44871e-08
-2.21207e-08
-5.03831e-08
-1.3559e-08
-1.94296e-07
-8.34694e-09
-1.18e-07
2.63626e-08
-2.40634e-07
-1.53692e-08
-8.73338e-08
7.08019e-08
-1.28455e-07
9.65367e-08
-2.87901e-07
3.01244e-08
-1.64021e-07
1.33472e-08
-1.32786e-07
-4.33751e-08
-2.39264e-07
-7.24586e-08
-6.05619e-08
6.48209e-09
-7.08093e-08
6.88303e-09
-1.71758e-07
-6.02915e-08
-2.10769e-07
-4.87713e-09
-4.87185e-08
-3.0618e-09
-1.47479e-07
-2.55163e-08
-8.97485e-08
-5.4847e-08
-2.425e-08
-9.82068e-08
-4.75396e-08
-2.87376e-08
-1.02304e-07
8.10024e-10
-1.13043e-07
-2.98773e-08
-1.41051e-07
-2.41403e-08
-1.08471e-07
-4.32445e-08
-1.15133e-07
8.57468e-08
-1.29864e-07
6.76737e-08
-1.80619e-07
6.02113e-08
-1.79165e-07
2.17289e-08
-1.72451e-07
1.61274e-08
-1.71031e-07
8.67553e-09
3.38166e-09
-2.15426e-07
2.47351e-09
-6.19614e-08
6.35741e-08
-8.23607e-08
2.20055e-08
-1.08819e-07
-3.30373e-08
-2.53725e-07
-4.51785e-08
-1.46296e-07
3.67182e-08
-2.53727e-07
-5.52403e-08
-9.91374e-08
1.12333e-08
-6.50343e-08
-2.48455e-08
-9.48081e-08
2.11701e-08
-1.07435e-07
2.44352e-08
-2.16994e-07
3.40574e-08
-2.41739e-07
6.23319e-09
-2.30551e-07
-3.46087e-08
-2.83202e-07
-2.21779e-08
-2.12015e-07
-3.1155e-08
-1.97774e-07
2.63626e-10
-2.77437e-07
7.87276e-08
-2.8867e-07
-2.24638e-10
-2.8081e-07
-5.32132e-08
-2.45736e-07
-1.35508e-08
-2.29395e-07
-3.49669e-09
-2.12002e-07
-1.04133e-09
-2.34312e-07
3.83669e-08
-2.35515e-07
4.10611e-08
-2.69993e-07
4.38825e-08
-1.98626e-07
5.15965e-08
-1.51902e-07
4.32662e-09
-1.37425e-07
-8.87804e-09
-1.0527e-07
-6.36205e-10
-7.18305e-08
-4.01864e-08
-3.43493e-08
-8.03407e-08
4.51115e-09
-6.03558e-08
-1.70098e-09
1.57376e-08
-2.69279e-08
4.66075e-08
-4.30297e-09
-1.04059e-08
-7.24992e-08
1.31197e-08
-7.68221e-08
8.65753e-08
-2.28777e-07
4.59947e-08
-2.66101e-07
7.89935e-08
-2.78521e-07
4.03559e-08
-2.25455e-07
-6.50653e-08
-1.73699e-07
-9.11848e-08
-1.52838e-07
-4.39576e-08
-7.21007e-08
4.30607e-08
-8.28162e-08
-2.12959e-09
-2.00076e-07
-3.56022e-08
-2.09275e-07
3.5293e-08
-2.65411e-07
4.07665e-08
-9.61159e-08
4.69175e-08
-1.55505e-07
1.28247e-08
-1.16095e-07
-1.08719e-08
-9.87575e-08
-3.99004e-09
-1.20568e-07
-2.27951e-08
-1.81809e-07
-6.04805e-08
-1.62775e-07
3.74465e-08
-1.90993e-07
-1.3042e-08
-2.52697e-07
1.39818e-09
-2.44844e-07
-1.27305e-08
-6.91332e-08
1.46552e-08
-1.84296e-07
-5.54435e-08
-2.28649e-07
-6.1033e-08
-1.52442e-07
2.04918e-08
-1.38315e-07
-4.14542e-08
-1.8413e-07
-9.6346e-08
-1.40013e-07
-7.73016e-08
-1.89072e-07
-2.37205e-08
-8.85244e-08
5.16123e-08
-1.7472e-07
2.72067e-08
-5.61516e-08
9.38009e-08
-1.45237e-07
8.27538e-09
-1.41022e-07
1.75125e-08
-1.43459e-07
1.85624e-08
-1.51437e-07
1.66515e-08
7.46722e-09
-9.40685e-08
3.25734e-08
-6.86473e-08
3.74537e-08
-1.26211e-07
3.12529e-08
-2.14564e-07
1.04747e-07
-2.6195e-07
2.20842e-09
-2.28105e-07
-4.52705e-08
-2.37485e-07
-4.58602e-08
-2.2676e-07
5.08788e-10
-1.02521e-07
4.30496e-08
-8.62647e-08
4.96469e-09
-6.47977e-08
2.96834e-09
-1.80159e-07
-4.3154e-08
-1.94589e-07
2.06627e-08
-5.58887e-08
1.92646e-08
-2.01772e-07
-6.68088e-08
-1.44175e-07
-4.25515e-08
-4.05051e-08
4.0608e-08
-1.77127e-07
2.319e-08
-1.24792e-07
-4.41688e-09
-1.41985e-07
-3.63906e-08
-2.23803e-07
2.0124e-08
-2.2239e-07
-4.90988e-09
-1.83041e-07
-3.85227e-08
-1.49285e-07
5.17454e-08
-1.26441e-07
1.66941e-08
-8.23704e-08
-1.88e-10
-4.17154e-08
1.14679e-08
-6.36862e-08
2.62974e-08
-8.12646e-08
8.70033e-09
-4.0299e-08
-4.16018e-08
-3.55602e-08
-4.53882e-08
-1.12041e-07
-3.86023e-09
-1.32637e-07
-3.9759e-08
-8.76537e-08
-2.92461e-08
-1.26053e-07
8.3721e-08
-5.02687e-08
5.9728e-08
-6.49068e-08
2.89329e-08
-1.60151e-07
3.75944e-08
-1.26676e-07
1.08858e-08
-1.07276e-07
5.95934e-08
-1.01827e-07
3.49074e-08
-9.1437e-08
-7.61193e-08
-6.37522e-08
-1.1887e-07
-4.45974e-08
-6.37628e-08
-4.24257e-08
4.0017e-08
-1.6474e-07
7.15451e-08
-1.61104e-07
1.05863e-08
-1.82602e-07
8.64718e-09
-2.55348e-07
1.13513e-07
-1.0479e-07
9.00015e-08
-1.4283e-07
-9.10572e-08
-7.41584e-08
-8.1001e-08
-3.92758e-08
-3.88726e-08
-6.56537e-08
2.91299e-09
-3.94768e-08
5.98843e-08
-2.13384e-07
1.91838e-08
-6.57562e-08
3.29093e-08
-1.58835e-07
-4.84941e-08
-1.2147e-07
-5.29551e-08
3.77767e-08
1.3267e-09
-1.4797e-07
-1.50779e-08
-2.1988e-07
1.14995e-08
-2.526e-07
5.06926e-09
-1.99303e-07
-4.66086e-08
-2.60122e-07
-3.65101e-08
-3.12032e-07
-2.53913e-08
-3.31929e-07
-3.58189e-09
-3.0646e-07
2.61426e-08
-2.86493e-07
7.5173e-09
-2.44438e-07
5.13842e-09
-1.99557e-07
1.30181e-08
-1.95625e-07
1.35798e-08
-1.91734e-07
1.46694e-08
-1.8129e-07
6.20642e-09
2.2197e-09
-9.69524e-08
-2.69436e-08
-8.33044e-08
2.19679e-08
5.00052e-09
8.8545e-08
-1.32149e-07
4.92724e-08
-1.59299e-07
2.93591e-08
-1.69818e-07
1.33915e-08
-2.01541e-07
-1.41365e-08
-2.42081e-07
-4.62489e-09
-2.21025e-07
6.74186e-08
-1.13449e-07
4.10296e-08
-7.7744e-08
-3.15792e-08
-8.82402e-08
-3.23279e-08
-2.30261e-07
-2.9889e-08
-1.47427e-07
-1.55853e-08
-2.17804e-07
3.56756e-09
-2.34841e-07
-7.16953e-08
-1.2797e-07
-1.90164e-08
-6.88517e-08
-3.72332e-08
-9.03787e-08
1.61882e-08
-4.54162e-08
6.45653e-08
-2.12229e-07
-5.17277e-09
-2.04852e-07
-1.22868e-08
-9.31878e-08
4.33369e-08
-1.41462e-07
-4.24284e-08
-1.12373e-07
-1.38388e-08
-1.08873e-07
-3.65036e-09
-7.19131e-08
-2.54919e-08
-2.36858e-08
-2.21558e-08
-4.63302e-08
3.13447e-08
-1.39012e-07
4.91604e-08
-1.11741e-07
7.40224e-08
-2.25942e-07
-3.29492e-08
-2.59768e-07
-5.40761e-08
-1.64072e-07
6.76311e-08
-2.56232e-07
-1.65233e-08
-2.09871e-07
6.09006e-08
-1.23273e-07
8.80217e-08
-1.98439e-07
-2.98302e-08
-1.1368e-07
-7.58981e-08
-5.15718e-08
-2.5146e-09
-3.76479e-08
2.09835e-08
-8.71268e-08
-2.66404e-08
-1.08861e-07
-9.92587e-08
-3.20792e-08
5.3741e-09
-4.90828e-08
5.73479e-08
-2.21712e-07
5.08715e-08
-2.26868e-07
6.38859e-08
-1.60925e-07