/*--------------------------------*- C++ -*----------------------------------*\
  =========                 |
  \\      /  F ield         | OpenFOAM: The Open Source CFD Toolbox
   \\    /   O peration     | Website:  https://openfoam.org
    \\  /    A nd           | Version:  12
     \\/     M anipulation  |
\*---------------------------------------------------------------------------*/
FoamFile
{
    format      ascii;
    class       volVectorField;
    location    "0.1";
    object      U.water;
}
// * * * * * * * * * * * * * * * * * * * * * * * * * * * * * * * * * * * * * //

dimensions      [0 1 -1 0 0 0 0];

internalField   nonuniform List<vector> 
3750
(
(0.00341091 0.0184692 0)
(0.00300698 0.0152821 0)
(0.0039364 0.0163219 0)
(-0.00266404 0.0161133 0)
(-0.0036652 0.0165986 0)
(-0.001137 0.0243531 0)
(-0.00136944 0.0258754 0)
(-0.00106645 0.0242756 0)
(0.00147519 0.0213909 0)
(0.00061115 0.0205856 0)
(-0.00269171 0.0202397 0)
(-0.00300869 0.0229513 0)
(-0.00231455 0.0270874 0)
(0.00213985 0.0295654 0)
(0.00160168 0.0287657 0)
(-0.000320652 0.0264159 0)
(0.00312509 0.0253617 0)
(0.00402151 0.0225256 0)
(0.000112782 0.0196134 0)
(-0.00135059 0.0172253 0)
(0.00111833 0.0154413 0)
(-0.000751996 0.0172057 0)
(-0.00383902 0.0183378 0)
(-0.00281897 0.0211218 0)
(0.000797451 0.0229091 0)
(0.00221057 0.0179081 0)
(0.00240157 0.014874 0)
(0.00281363 0.00924046 0)
(0.000338654 0.00528312 0)
(-0.00203975 0.00540463 0)
(-0.00402768 0.0111204 0)
(-0.000366345 0.0140815 0)
(-0.000322346 0.0150772 0)
(-0.00114347 0.0181987 0)
(-8.42236e-05 0.017455 0)
(0.00190028 0.0207403 0)
(-0.0017608 0.0189786 0)
(0.000385144 0.0113372 0)
(0.00360365 0.00842767 0)
(0.00153916 0.00499715 0)
(-0.000192193 0.00454156 0)
(0.000785072 0.00271409 0)
(-0.00157009 0.00268397 0)
(-0.00302758 0.00771317 0)
(-2.77794e-06 0.0137611 0)
(-0.00102556 0.0160048 0)
(-0.00146451 0.0217257 0)
(-0.000671192 0.0207303 0)
(-0.000540048 0.0158567 0)
(0.000755424 0.0125377 0)
(0.00161164 0.0138296 0)
(-0.00272592 0.0165363 0)
(-0.00529324 0.0212717 0)
(-0.00647544 0.0248667 0)
(-0.00343739 0.0310482 0)
(-0.00232546 0.0307155 0)
(0.000984871 0.0249465 0)
(0.000518985 0.0218167 0)
(0.00177063 0.0197105 0)
(0.00573485 0.0126284 0)
(0.00522418 0.0130178 0)
(0.000295731 0.0223457 0)
(-0.000578563 0.0210093 0)
(0.00423404 0.01799 0)
(0.00598028 0.0189639 0)
(0.0041999 0.0190202 0)
(0.00355136 0.0194495 0)
(-0.00123475 0.0179424 0)
(-0.00729457 0.0218192 0)
(-0.00700021 0.0258446 0)
(-0.00593353 0.0299165 0)
(-0.000689882 0.0295408 0)
(0.00366589 0.0235579 0)
(0.00502374 0.0164238 0)
(0.0039838 0.0100222 0)
(0.00643814 -0.00985591 0)
(0.00310703 -0.00909892 0)
(0.00478111 -0.00319827 0)
(-0.00638709 -0.00465998 0)
(-0.00962476 -0.0051274 0)
(-0.00490229 -0.00654544 0)
(0.00274357 -0.00427749 0)
(0.00346708 -0.00804735 0)
(0.00175943 -0.00789259 0)
(0.001073 -0.0100997 0)
(-0.000990825 -0.0127226 0)
(-0.00367816 -0.0110974 0)
(-0.00606047 -0.00772669 0)
(-0.00193987 -0.00511646 0)
(0.00338755 -0.00101795 0)
(0.00032448 -0.00494305 0)
(-0.000800122 -0.00192602 0)
(0.00349722 0.0005985 0)
(0.00503439 -0.00247403 0)
(0.00264224 -0.00638095 0)
(0.00029848 -0.00561614 0)
(-0.000153643 -0.00330552 0)
(-0.00168844 -0.00886615 0)
(-0.00108987 -0.00998898 0)
(0.0042429 -0.0108283 0)
(0.00562142 -0.0105273 0)
(0.0043267 -0.0112844 0)
(0.00294778 -0.00981028 0)
(-0.000193287 -0.00799446 0)
(-0.00168961 -0.00891221 0)
(-0.00311156 -0.00896193 0)
(0.000193612 -0.00911801 0)
(-0.00295767 -0.0115965 0)
(0.00017623 -0.0168633 0)
(0.00292728 -0.0165103 0)
(0.00470455 -0.014143 0)
(0.00262971 -0.0137279 0)
(0.00222115 -0.0162079 0)
(0.00150043 -0.0140426 0)
(0.00315277 -0.0150571 0)
(0.00143392 -0.0131686 0)
(-0.00227757 -0.00748496 0)
(-0.00520561 -0.00966863 0)
(-0.00357725 -0.0108495 0)
(-0.00503174 -0.00498439 0)
(-0.00661985 -0.0046869 0)
(-0.000791079 -0.00578243 0)
(0.00397088 -0.006569 0)
(0.00365561 -0.00960296 0)
(0.000731168 -0.00661291 0)
(0.00194685 -0.0112971 0)
(-0.00170535 -0.00961099 0)
(-0.00326028 -0.0117885 0)
(-0.00151498 -0.0174667 0)
(0.000789633 -0.0179419 0)
(0.00474361 -0.0170555 0)
(6.27337e-05 -0.0171987 0)
(0.00514175 -0.0224707 0)
(0.00667361 -0.0225654 0)
(0.0017605 -0.0275142 0)
(0.000227262 -0.0272255 0)
(-0.00517158 -0.0217577 0)
(-0.00969539 -0.0216097 0)
(-0.00608704 -0.0187568 0)
(-0.00735453 -0.0130011 0)
(-0.00382423 -0.00821922 0)
(-0.000968205 -0.00868278 0)
(-0.000453431 -0.00938527 0)
(-0.000740963 -0.0129413 0)
(-0.00114759 -0.0140278 0)
(0.00212676 -0.0178941 0)
(0.00459342 -0.0139311 0)
(0.00601512 -0.013771 0)
(0.0070746 -0.0141706 0)
(0.0037657 -0.0110035 0)
(0.00130292 -0.0122603 0)
(0.0012035 -0.00935144 0)
(0.00109576 -0.00558816 0)
(-0.000542046 -0.00469013 0)
(-0.00471792 -0.0117841 0)
(-0.0039008 -0.0115554 0)
(0.0011277 -0.0080739 0)
(0.00422794 -0.00749753 0)
(0.00413192 -0.0121585 0)
(0.00278057 -0.0123675 0)
(-0.00148255 -0.0110984 0)
(-0.00186569 -0.00772215 0)
(-0.00692673 -0.0101331 0)
(-0.00651956 -0.0166803 0)
(0.00295206 -0.0160332 0)
(0.00224885 -0.0110292 0)
(-0.0029986 -0.0124637 0)
(0.000500155 -0.0166409 0)
(0.00496697 -0.0130064 0)
(0.000262652 -0.00725353 0)
(0.000987544 -0.00924822 0)
(0.0035103 -0.00878688 0)
(0.00124675 -0.00362741 0)
(-0.00211695 -0.0109363 0)
(0.00261408 -0.0158553 0)
(-0.000971575 -0.0115709 0)
(0.0040771 -0.00895931 0)
(0.000925353 -0.0126574 0)
(-0.00416477 -0.0110785 0)
(-0.00141491 -0.0122819 0)
(-5.45222e-05 -0.00847788 0)
(0.00224229 -0.0046129 0)
(0.00612208 -0.0151944 0)
(0.00307087 -0.0180022 0)
(-0.00197963 -0.014582 0)
(0.000160635 -0.0128974 0)
(0.00138661 -0.0124537 0)
(-0.000437039 -0.00685122 0)
(0.00202668 -0.00854652 0)
(0.00262381 -0.011277 0)
(-0.00640235 -0.00635604 0)
(-0.00427934 -0.00369152 0)
(-0.00102776 -0.00634565 0)
(-0.00547269 -0.00810524 0)
(-0.00566785 -0.00793625 0)
(-0.00208254 -0.0121082 0)
(-8.60266e-05 -0.0134884 0)
(0.00376504 -0.0162445 0)
(-0.000930657 -0.0184507 0)
(0.00282464 -0.0168987 0)
(0.0051675 -0.0187323 0)
(0.00408523 -0.0209664 0)
(-0.00018328 -0.0200678 0)
(0.00139892 -0.0219232 0)
(-0.00259826 -0.0162574 0)
(0.00183697 -0.00962389 0)
(-0.00271767 -0.00987148 0)
(0.00348901 -0.0129502 0)
(0.00933983 -0.0100356 0)
(0.0099159 -0.00179691 0)
(0.00427694 -0.00140841 0)
(-0.00227358 -0.00738873 0)
(-0.00358513 -0.0102315 0)
(-0.00473292 -0.0102986 0)
(-0.00238389 -0.0252753 0)
(0.00149003 -0.0323125 0)
(0.00317046 -0.0344585 0)
(0.00526805 -0.0338865 0)
(0.00103668 -0.029846 0)
(-0.00744196 -0.0263463 0)
(-0.00618279 -0.0259738 0)
(-0.000881185 -0.023258 0)
(0.00199853 -0.0223691 0)
(0.00318188 -0.0227369 0)
(0.00187577 -0.0158107 0)
(-0.00152911 -0.0105208 0)
(0.000116004 -0.00989235 0)
(-0.00344618 -0.00973622 0)
(-0.000690918 -0.00758711 0)
(-0.000143225 -0.0107575 0)
(-0.00514172 -0.00827406 0)
(-0.00170812 -0.00522381 0)
(0.00283038 -0.00950538 0)
(0.00432769 -0.0119083 0)
(0.000283804 -0.00988252 0)
(0.000995002 -0.00929753 0)
(0.00335408 -0.00847205 0)
(-0.000226138 -0.0176324 0)
(-0.00508807 -0.0208068 0)
(-0.000575995 -0.0218694 0)
(0.00593156 -0.0180237 0)
(0.0036768 -0.0197043 0)
(-0.00465267 -0.0216413 0)
(-0.00475287 -0.0186592 0)
(-0.000263652 -0.0109543 0)
(-5.51941e-05 -0.0118929 0)
(-0.00127673 -0.0186234 0)
(0.00544633 -0.0181762 0)
(0.00260354 -0.0164032 0)
(0.00217414 -0.016339 0)
(-0.00237924 -0.0199076 0)
(0.00417336 -0.0186978 0)
(0.00266794 -0.0199767 0)
(-0.00202116 -0.0220305 0)
(-0.0032136 -0.0225524 0)
(-0.000859971 -0.0212439 0)
(0.000546304 -0.0224573 0)
(0.00584411 -0.0198068 0)
(0.000520746 -0.0133414 0)
(-0.00310892 -0.00884573 0)
(0.000710082 -0.0115411 0)
(-0.000886144 -0.00961162 0)
(-0.000578912 -0.00859689 0)
(0.00643798 -0.00823388 0)
(0.000494851 -0.00377965 0)
(-0.00648478 -0.00796364 0)
(-0.00266541 -0.0124128 0)
(0.00295489 -0.00945223 0)
(-0.00230589 -0.0129613 0)
(-0.00127042 -0.0204013 0)
(-0.000912989 -0.014718 0)
(0.00373454 -0.0155626 0)
(0.00435824 -0.0219389 0)
(0.00562637 -0.0221533 0)
(0.00712928 -0.0192545 0)
(0.000729964 -0.0175642 0)
(-0.00371175 -0.0183495 0)
(-0.00268746 -0.0202405 0)
(0.00177715 -0.0187913 0)
(-0.0022771 -0.0125834 0)
(-0.00399325 -0.0130929 0)
(0.00191088 -0.015523 0)
(-0.00434897 -0.0178964 0)
(-0.00974081 -0.0164562 0)
(-0.00497641 -0.0105462 0)
(0.00418506 -0.00574489 0)
(0.00635647 -0.00957218 0)
(0.00150638 -0.00383242 0)
(0.000618418 -0.00480438 0)
(0.00694173 -0.0188123 0)
(0.00433818 -0.0200253 0)
(-0.000201179 -0.0222937 0)
(-0.00236515 -0.0183524 0)
(-0.00234486 -0.0121675 0)
(-0.00334944 -0.0147535 0)
(-0.000995765 -0.0209816 0)
(0.000389654 -0.0211734 0)
(0.000389927 -0.0197377 0)
(0.00123991 -0.0216893 0)
(0.000581492 -0.0170282 0)
(-0.00288264 -0.0138442 0)
(-0.00337127 -0.0158454 0)
(-0.00175878 -0.0208406 0)
(0.000458944 -0.0197538 0)
(0.000704903 -0.0225585 0)
(0.00233182 -0.0253941 0)
(0.00353006 -0.0243907 0)
(-0.000438445 -0.0191071 0)
(0.00231351 -0.0168936 0)
(0.00339918 -0.0142306 0)
(0.00446812 -0.01255 0)
(0.000357621 -0.0180764 0)
(-0.000897163 -0.022101 0)
(-0.00220701 -0.0242971 0)
(-0.000432633 -0.0306121 0)
(0.00155414 -0.0278021 0)
(0.000507044 -0.0236291 0)
(-0.00397053 -0.0264261 0)
(-0.00542927 -0.0276506 0)
(0.00180319 -0.0254854 0)
(0.00116484 -0.0256738 0)
(0.00438766 -0.0296434 0)
(0.00438379 -0.0274242 0)
(0.00584355 -0.0156759 0)
(0.00182734 -0.0151232 0)
(0.00349963 -0.0176416 0)
(-0.00247735 -0.0162126 0)
(-0.00225756 -0.0167068 0)
(0.000684661 -0.0166333 0)
(0.00168551 -0.0111962 0)
(0.00118923 -0.00840935 0)
(-0.0010639 -0.015673 0)
(-0.003425 -0.0151702 0)
(-0.00711462 -0.011102 0)
(-0.00267038 -0.0134334 0)
(2.96111e-05 -0.0146644 0)
(-0.00141173 -0.0116357 0)
(-0.00146138 -0.0114183 0)
(-0.00136416 -0.00952523 0)
(-0.00116808 -0.000964124 0)
(0.00240313 -0.0102143 0)
(0.00153608 -0.007713 0)
(0.00647219 -0.0128009 0)
(0.0027022 -0.0209702 0)
(0.0011409 -0.0229223 0)
(-0.0022973 -0.0152548 0)
(0.00200265 -0.00856716 0)
(0.00124432 -0.0139332 0)
(-0.000510452 -0.00737739 0)
(-0.00481028 -0.000568556 0)
(-0.00345137 -4.92833e-06 0)
(0.00352313 -0.0041349 0)
(0.00251549 -0.00670267 0)
(-0.000890294 -0.00308991 0)
(0.000507301 -0.000307995 0)
(0.00258311 -0.00953262 0)
(0.0045362 -0.0114623 0)
(-0.00142795 -0.0109872 0)
(-0.000971571 -0.0162087 0)
(-0.00207865 -0.0208832 0)
(0.00352219 -0.0214343 0)
(0.00433891 -0.0164755 0)
(0.00529261 -0.0108307 0)
(0.000715174 -0.0139707 0)
(-0.000332985 -0.0192376 0)
(-0.000858197 -0.0186081 0)
(0.00328146 -0.0169776 0)
(-0.00293293 -0.0174712 0)
(-0.00378586 -0.0203962 0)
(0.000193544 -0.0252258 0)
(0.000885939 -0.0267896 0)
(-0.000797516 -0.0229517 0)
(-0.000842912 -0.0215307 0)
(-2.5744e-05 -0.0222598 0)
(-2.00458e-05 -0.0176344 0)
(-0.00487398 -0.0156515 0)
(-0.00552034 -0.0225429 0)
(-0.00183748 -0.0258104 0)
(0.00556944 -0.0196668 0)
(0.00421039 -0.0208727 0)
(0.00035747 -0.0219029 0)
(-0.00442906 -0.0190852 0)
(0.00105681 -0.0151212 0)
(-0.00185195 -0.0158045 0)
(-0.000919256 -0.0169556 0)
(0.000659821 -0.0106658 0)
(-0.0021792 -0.0131956 0)
(-0.0017078 -0.0170129 0)
(0.00608794 -0.016382 0)
(0.00663679 -0.0225677 0)
(0.00313664 -0.017085 0)
(-2.12936e-05 -0.0178888 0)
(-0.000512037 -0.0231858 0)
(-0.00444326 -0.0225513 0)
(0.000460878 -0.0237222 0)
(0.00078725 -0.0233107 0)
(0.00061454 -0.023203 0)
(-0.00143027 -0.0146592 0)
(0.000724974 -0.00945894 0)
(-0.000810995 -0.0136515 0)
(0.000401942 -0.0118059 0)
(-0.00537043 -0.0047972 0)
(-0.000785778 -0.00986702 0)
(-0.000995089 -0.011333 0)
(-0.00489372 -0.01086 0)
(-0.0081907 -0.00759296 0)
(0.00287775 -0.00345173 0)
(0.0032027 -0.00531787 0)
(-0.0012781 -0.00886785 0)
(0.000455404 -0.0146125 0)
(-0.000442739 -0.00830873 0)
(-0.0035105 -0.00984769 0)
(-0.00227546 -0.011876 0)
(-0.00175982 -0.015618 0)
(0.00193139 -0.0152629 0)
(0.00576124 -0.0126791 0)
(0.00513914 -0.0125088 0)
(0.00460641 -0.0168241 0)
(0.000193568 -0.0220281 0)
(-0.000545418 -0.0216118 0)
(-0.00178899 -0.0121757 0)
(-0.00445151 -0.0095256 0)
(-0.00425285 -0.0153433 0)
(-0.00657722 -0.0114509 0)
(-0.00375199 -0.0174247 0)
(0.00511834 -0.0186141 0)
(0.00401988 -0.0170928 0)
(0.00215759 -0.00857467 0)
(-0.000235327 -0.0034664 0)
(0.000737601 -0.00819901 0)
(0.00486058 -0.011639 0)
(0.0036951 -0.0176209 0)
(0.00227933 -0.0093234 0)
(0.00384478 -0.0125213 0)
(-0.00346616 -0.0159612 0)
(-0.00628319 -0.01092 0)
(-0.00213087 -0.0134271 0)
(0.00675682 -0.00604721 0)
(0.00590726 -0.00745611 0)
(0.000311318 -0.00935487 0)
(0.000523384 -0.00794557 0)
(0.00225033 -0.00810154 0)
(-0.000221141 -0.0116396 0)
(0.00293061 -0.0261513 0)
(0.00190832 -0.0275891 0)
(-0.00214988 -0.0231984 0)
(-0.0060621 -0.0210216 0)
(-0.00341534 -0.0197345 0)
(-0.00201845 -0.0212956 0)
(-0.000747761 -0.0172768 0)
(-0.000886048 -0.00340303 0)
(-9.54253e-05 -0.019019 0)
(-0.00331418 -0.0234028 0)
(-0.00306163 -0.0182161 0)
(0.000197844 -0.00773091 0)
(0.00201443 -0.00461024 0)
(-0.0016534 -0.0128835 0)
(0.00202187 -0.0110915 0)
(0.0056762 -0.0144698 0)
(0.00472153 -0.0139284 0)
(-0.00506379 -0.0104779 0)
(-0.00753509 -0.0135559 0)
(0.0020213 -0.0109534 0)
(0.00653137 -0.011341 0)
(0.00150177 -0.0116494 0)
(0.00300399 -0.00805174 0)
(0.00118998 -0.0115542 0)
(-0.00378751 -0.0101124 0)
(-0.00201626 -0.00311884 0)
(0.00125673 -0.00616423 0)
(-0.000516621 -0.00713907 0)
(0.00199423 -0.00434579 0)
(-2.34946e-05 -0.00379029 0)
(-0.000150913 -0.00826446 0)
(-0.000924741 -0.0109638 0)
(-0.00300092 -0.00898169 0)
(-0.00467857 -0.0106805 0)
(0.00119216 -0.00398972 0)
(0.00457972 -0.000901465 0)
(0.000836185 -0.00785475 0)
(-0.00683493 -0.0167232 0)
(-0.00198792 -0.0148127 0)
(-0.000904763 -0.0178376 0)
(-3.32325e-05 -0.0185352 0)
(-0.000305046 -0.0165401 0)
(-0.00237797 -0.0106043 0)
(-0.000402178 -0.0018222 0)
(0.00260522 -0.0137712 0)
(0.00563838 -0.0155923 0)
(0.00718366 -0.0122939 0)
(0.00304467 -0.00913367 0)
(0.00392012 -0.00448684 0)
(-0.00136378 -0.00747227 0)
(-0.00103048 -0.0148375 0)
(0.000308265 -0.0212021 0)
(-0.00112884 -0.0111076 0)
(-0.00207824 -0.0120116 0)
(-0.00138151 -0.0199321 0)
(0.00304172 -0.0247585 0)
(-0.000284579 -0.0224718 0)
(-0.00292429 -0.0183575 0)
(-0.00130446 -0.0152331 0)
(-0.0010266 -0.00774707 0)
(0.00308333 -0.0134466 0)
(0.00060622 -0.0104686 0)
(0.00118537 -0.00980842 0)
(0.00233166 -0.0157843 0)
(0.00430361 -0.00875711 0)
(0.00318991 -0.00898504 0)
(-0.00313211 -0.0167303 0)
(-0.00520868 -0.0194368 0)
(-0.000867978 -0.0283805 0)
(0.000634345 -0.0276024 0)
(0.00513902 -0.0227538 0)
(0.00389842 -0.0165842 0)
(0.00633011 -0.00887474 0)
(0.00327534 -0.0165158 0)
(0.00505646 -0.0182106 0)
(0.00808422 -0.019922 0)
(0.0011489 -0.0195359 0)
(-0.00723217 -0.00992856 0)
(-0.00753601 -0.0151664 0)
(-0.00486549 -0.0179506 0)
(-0.00308272 -0.0194707 0)
(-0.0010582 -0.0172195 0)
(0.00579714 -0.0175372 0)
(0.00442583 -0.0214454 0)
(-0.00400124 -0.0270203 0)
(-0.00429231 -0.0292701 0)
(0.0028181 -0.0193982 0)
(0.00542443 -0.0174786 0)
(0.00181517 -0.0175806 0)
(-0.00261511 -0.0144236 0)
(-0.000557691 -0.0219135 0)
(0.00157038 -0.0215202 0)
(-0.00285932 -0.0189119 0)
(-0.00240279 -0.016161 0)
(0.00486066 -0.0110051 0)
(0.00153817 -0.0131191 0)
(0.00259578 -0.0183406 0)
(0.00486472 -0.0183511 0)
(0.00184222 -0.0118454 0)
(-0.00829694 -0.00830756 0)
(-0.00262806 -0.0123738 0)
(-0.00141436 -0.0137797 0)
(-0.000471748 -0.0125805 0)
(0.00144986 -0.0090289 0)
(0.000660776 -0.00984891 0)
(0.00147248 -0.0166076 0)
(-0.00120207 -0.0178268 0)
(-0.00110197 -0.0187206 0)
(-0.00574179 -0.0135684 0)
(-0.00610608 -0.0100092 0)
(0.000423748 -0.0134138 0)
(0.00749671 -0.0117174 0)
(0.00931114 -0.0147181 0)
(0.00208954 -0.0164479 0)
(-0.00376335 -0.0232492 0)
(-0.00377374 -0.0263226 0)
(-0.00365993 -0.0267736 0)
(-0.00262039 -0.0267437 0)
(0.000175779 -0.0239877 0)
(-0.000550669 -0.0243421 0)
(0.00077025 -0.0225382 0)
(0.00381194 -0.0187896 0)
(-0.000340153 -0.013168 0)
(0.00315537 -0.00624439 0)
(0.000305695 -0.0124233 0)
(0.00232516 -0.025216 0)
(0.00292049 -0.0227959 0)
(0.000594551 -0.0144896 0)
(0.000153685 -0.0119111 0)
(-0.000602892 -0.0187103 0)
(-0.000289318 -0.0192961 0)
(-0.0015193 -0.0180111 0)
(-0.00350274 -0.0192837 0)
(0.00268233 -0.0171722 0)
(0.00522977 -0.0142523 0)
(-0.00117169 -0.0155067 0)
(-0.00124736 -0.0142384 0)
(-0.0021041 -0.0108521 0)
(0.00233061 -0.00965193 0)
(0.00112981 -0.00700927 0)
(-0.000135222 -0.00303973 0)
(0.00470216 -0.00518199 0)
(0.00523478 -0.0134268 0)
(0.003309 -0.0231908 0)
(0.00229614 -0.0233451 0)
(-0.00045809 -0.0208316 0)
(0.00189268 -0.0155227 0)
(0.00074291 -0.00658504 0)
(5.89806e-05 -0.00894263 0)
(0.00232943 -0.0145362 0)
(0.00134691 -0.00875234 0)
(-0.00214488 -0.0028464 0)
(-0.0102827 -0.00512002 0)
(-0.002359 -0.0107081 0)
(-8.02396e-05 -0.0141762 0)
(-0.00100596 -0.0170522 0)
(-0.000147303 -0.015988 0)
(0.00675012 -0.0121545 0)
(0.00382663 -0.0121795 0)
(0.0017929 -0.00955877 0)
(-0.000487586 -0.0196409 0)
(-0.00117572 -0.0196681 0)
(-0.0024972 -0.0186846 0)
(0.00285781 -0.00842064 0)
(0.00152296 -0.00608577 0)
(0.000581979 -0.0219242 0)
(-0.00140059 -0.0263565 0)
(-0.00249669 -0.0243169 0)
(-0.000644516 -0.0175361 0)
(0.00179547 -0.00895247 0)
(-0.000300453 -0.00476784 0)
(-0.00212067 -0.0125391 0)
(-0.00581683 -0.0149862 0)
(-0.00617472 -0.0089251 0)
(-0.00200954 -0.00405295 0)
(0.0056255 -0.00668058 0)
(0.00382706 -0.0115511 0)
(0.00256461 -0.00865099 0)
(0.00151878 -0.012741 0)
(0.00114561 -0.0101553 0)
(-0.00180104 -0.0108437 0)
(-0.00376709 -0.0151446 0)
(-0.00129481 -0.0107943 0)
(0.00011352 -0.0123757 0)
(0.00282388 -0.020395 0)
(-7.33576e-05 -0.0246176 0)
(-0.0010387 -0.0189467 0)
(0.00366898 -0.0134428 0)
(0.000518684 -0.0144242 0)
(0.000317309 -0.0178434 0)
(0.00128359 -0.0214001 0)
(0.000290411 -0.0227825 0)
(-0.00148015 -0.028687 0)
(-0.00165531 -0.0336329 0)
(-0.00168751 -0.0352963 0)
(-0.000713508 -0.034504 0)
(0.0017303 -0.0307047 0)
(0.000229182 -0.0264688 0)
(0.00077837 -0.0225405 0)
(0.00256497 -0.0236506 0)
(0.00233123 -0.0234748 0)
(-0.000647569 -0.0217393 0)
(9.25602e-05 -0.0139315 0)
(-0.000679032 -0.0128761 0)
(-0.000248182 -0.0188957 0)
(0.00215745 -0.0211528 0)
(0.000243879 -0.025272 0)
(-0.00335731 -0.0273495 0)
(-0.000329641 -0.0275465 0)
(0.00288809 -0.0239593 0)
(-0.00195191 -0.0210756 0)
(0.00113646 -0.0218498 0)
(-0.00602937 -0.0171118 0)
(-0.00482861 -0.0144496 0)
(-0.000295094 -0.0133153 0)
(2.61558e-05 -0.00929258 0)
(0.00705599 -0.0100231 0)
(0.00571791 -0.0154929 0)
(0.00674208 -0.0238714 0)
(0.00252996 -0.0228292 0)
(0.00373653 -0.0121827 0)
(0.00566421 -0.0136838 0)
(0.0003144 -0.0162467 0)
(-0.00177656 -0.0116505 0)
(-0.000606004 -0.0169662 0)
(-0.0048889 -0.0199519 0)
(-0.00215801 -0.0144327 0)
(-0.00112895 -0.0177355 0)
(-0.00254548 -0.0190749 0)
(-0.00181257 -0.0168423 0)
(-0.00147075 -0.0193954 0)
(-0.000473939 -0.0162927 0)
(0.00100217 -0.0115682 0)
(-0.000194568 -0.0126113 0)
(-0.00154902 -0.0066869 0)
(0.00472563 -0.0019113 0)
(0.0030364 -0.00932616 0)
(-0.00131546 -0.00638361 0)
(0.00112668 -0.00334236 0)
(0.00115854 -0.0068549 0)
(0.00648748 -0.00713706 0)
(0.000890283 -0.00855593 0)
(-0.00324508 -0.0137385 0)
(-0.00062941 -0.0137056 0)
(-0.000968587 -0.0115408 0)
(-0.00307542 -0.00645492 0)
(-1.31571e-05 -0.00621981 0)
(-0.00375394 -0.0187627 0)
(-0.000754029 -0.0259498 0)
(0.00608878 -0.0208804 0)
(0.00870458 -0.0150992 0)
(0.00331573 -0.0178021 0)
(-0.00121395 -0.014273 0)
(-0.00331207 -0.0211542 0)
(-0.00161762 -0.0195268 0)
(-0.00726044 -0.0160867 0)
(-0.00572574 -0.0212287 0)
(0.00276752 -0.0257182 0)
(0.0036297 -0.0284432 0)
(0.00261177 -0.0270691 0)
(-0.00198968 -0.0299638 0)
(-0.00413194 -0.0311054 0)
(0.000137752 -0.0289831 0)
(0.00102243 -0.0267169 0)
(0.000940979 -0.0252524 0)
(0.00220926 -0.0242501 0)
(0.00459747 -0.0240393 0)
(0.00438297 -0.0254048 0)
(0.00497984 -0.0276878 0)
(-0.000853941 -0.0265504 0)
(-0.0023587 -0.020647 0)
(0.000273161 -0.0170854 0)
(-0.00358179 -0.0132884 0)
(-0.00388844 -0.0163337 0)
(-0.00275977 -0.0192805 0)
(-0.00178587 -0.0138484 0)
(-0.0014096 -0.0135157 0)
(0.00169505 -0.016335 0)
(0.00352194 -0.0173803 0)
(0.00491026 -0.0129317 0)
(0.00175379 -0.0133259 0)
(0.000291038 -0.0193635 0)
(-0.000904564 -0.0243588 0)
(-0.0010871 -0.0266278 0)
(0.00242818 -0.0262289 0)
(-0.00221823 -0.0252058 0)
(-0.00203154 -0.0222141 0)
(-0.000651287 -0.0195522 0)
(-0.00500551 -0.0236901 0)
(-1.13287e-05 -0.0270196 0)
(0.00604891 -0.0151205 0)
(0.0069763 -0.0122947 0)
(0.00646226 -0.0124557 0)
(0.00522632 -0.0118597 0)
(-0.00355232 -0.0128612 0)
(-0.00297643 -0.00956451 0)
(0.00385885 -0.00285426 0)
(0.00618116 -0.00214056 0)
(-0.00149618 -0.00313014 0)
(-0.00247074 -0.00568102 0)
(-0.00512906 -0.00962377 0)
(-0.00651869 -0.00957945 0)
(-0.0016271 -0.00592841 0)
(-0.00183778 -0.0114061 0)
(-0.00212797 -0.0123726 0)
(-0.00029276 -0.0157784 0)
(-0.000268081 -0.0147803 0)
(-0.00486559 -0.0120775 0)
(-0.00664437 -0.00997563 0)
(-0.00721424 -0.00593311 0)
(-0.000924 -0.00979062 0)
(0.00217932 -0.0148031 0)
(-0.00360845 -0.00899123 0)
(-0.000708766 -0.00895793 0)
(0.000509409 -0.0172039 0)
(-0.00272549 -0.0124656 0)
(0.00450109 -0.0101628 0)
(0.00813063 -0.0200483 0)
(0.00205573 -0.0173447 0)
(-0.00544232 -0.0119426 0)
(-0.00852048 -0.0143186 0)
(0.00471007 -0.00686432 0)
(0.00933088 -0.00231593 0)
(0.000720897 -0.00740888 0)
(-0.000630506 -0.0107172 0)
(0.00831952 -0.00183427 0)
(0.00560853 0.00283932 0)
(-0.00174108 -0.00087051 0)
(-0.0013507 -0.00694209 0)
(0.00277799 -0.00495069 0)
(-0.00635368 -0.00396369 0)
(-0.00344063 -0.0169133 0)
(0.00183244 -0.0189704 0)
(0.00184926 -0.0216031 0)
(0.00436773 -0.0206161 0)
(0.00423504 -0.0195346 0)
(-0.000299415 -0.0228747 0)
(-0.00199666 -0.0238509 0)
(-0.00183782 -0.0184264 0)
(-0.0012321 -0.0179815 0)
(0.00305814 -0.0204388 0)
(0.000382353 -0.0231383 0)
(-0.00130061 -0.0230971 0)
(0.0024284 -0.0242563 0)
(-0.00372762 -0.015938 0)
(-0.00803002 -0.0104128 0)
(-0.00735947 -0.013618 0)
(-0.000486504 -0.00890082 0)
(0.000378796 -0.0104598 0)
(-0.00202697 -0.0171622 0)
(-0.000936479 -0.0236433 0)
(0.00133508 -0.0223606 0)
(0.00219035 -0.0185363 0)
(0.00410552 -0.0159634 0)
(0.00353063 -0.00790683 0)
(0.00275524 -0.00615359 0)
(0.00137495 -0.00786619 0)
(0.0032457 -0.00623425 0)
(0.00303928 -0.00748685 0)
(-0.00019436 -0.010529 0)
(-0.00311923 -0.0102759 0)
(-0.00496869 -0.00896485 0)
(-0.00565204 -0.0096938 0)
(0.000149085 -0.0130431 0)
(0.00247378 -0.0149192 0)
(-0.00116205 -0.00684121 0)
(-0.00461826 -0.00821745 0)
(0.00393801 -0.00887385 0)
(0.00272466 -0.00525155 0)
(0.000506659 -0.0121998 0)
(-0.00302161 -0.0135096 0)
(-0.00095194 -0.0116785 0)
(0.00262412 -0.00437961 0)
(0.00215177 0.000831246 0)
(0.00391393 0.00200806 0)
(-0.00148731 -0.001274 0)
(-0.00497336 -0.0104755 0)
(0.000421291 -0.011634 0)
(0.00215373 -0.0110473 0)
(0.000120858 -0.0163153 0)
(0.000602878 -0.0183274 0)
(3.16918e-05 -0.0163952 0)
(-0.00114464 -0.0111092 0)
(-0.000968316 -0.00343352 0)
(0.00568686 -0.0112452 0)
(0.00277945 -0.0121562 0)
(0.00176829 -0.0116064 0)
(0.00267069 -0.0185541 0)
(0.00100063 -0.0254814 0)
(-0.00107743 -0.0279926 0)
(-0.00350378 -0.0262042 0)
(0.00418514 -0.0246791 0)
(0.00768464 -0.022933 0)
(0.00161218 -0.0159172 0)
(-0.00600226 -0.0149282 0)
(-0.0087739 -0.0163777 0)
(-0.00556665 -0.0160655 0)
(0.0034516 -0.00915459 0)
(0.00501386 -0.00882758 0)
(0.00197 -0.0115833 0)
(-0.00365097 -0.0107241 0)
(0.0013289 -0.00922629 0)
(0.00474101 -0.00903093 0)
(0.00315187 -0.0124459 0)
(0.00158917 -0.00783054 0)
(0.000198617 -0.00599997 0)
(0.00083035 -0.0130536 0)
(0.00287106 -0.0165368 0)
(0.00396197 -0.0200843 0)
(0.00179192 -0.0198451 0)
(0.000524414 -0.0191446 0)
(0.00134797 -0.0180519 0)
(0.000881696 -0.0138513 0)
(-0.00215926 -0.0109805 0)
(-0.000438682 -0.0135815 0)
(0.0031337 -0.0179386 0)
(0.00584973 -0.0201573 0)
(0.00732134 -0.0202379 0)
(6.84366e-05 -0.0171115 0)
(-0.00229108 -0.014328 0)
(-0.00517429 -0.0193434 0)
(-0.00909072 -0.0218857 0)
(-0.0025093 -0.0235178 0)
(-0.00135731 -0.0210629 0)
(0.00108935 -0.0251072 0)
(0.000424178 -0.0296797 0)
(-0.00425866 -0.0250476 0)
(-0.00175551 -0.0126455 0)
(-0.000657685 -0.00952986 0)
(-0.00383684 -0.0132712 0)
(0.00335858 -0.0129848 0)
(0.00167807 -0.00917444 0)
(0.00126733 -0.00241106 0)
(0.0073759 -0.0159104 0)
(-0.00240604 -0.0195126 0)
(0.000850595 -0.0180158 0)
(0.000424433 -0.0177374 0)
(-0.00542275 -0.01778 0)
(0.000395224 -0.0152287 0)
(0.00661707 -0.0101792 0)
(0.00150757 -0.0154463 0)
(-0.00465716 -0.0134605 0)
(0.00284403 -0.0148933 0)
(0.00328712 -0.0191802 0)
(0.00104811 -0.0145773 0)
(-0.00497279 -0.0108349 0)
(-0.00702336 -0.0106725 0)
(-0.00611283 -0.00855972 0)
(-0.00631384 -0.00702139 0)
(-0.00098196 -0.00181589 0)
(0.00613638 -0.00200887 0)
(0.00284887 -0.0124598 0)
(-1.52266e-05 -0.0143903 0)
(0.00306325 -0.0124576 0)
(0.00304334 -0.0146493 0)
(0.00110048 -0.0163478 0)
(0.000462621 -0.0150057 0)
(0.000142436 -0.0262214 0)
(0.00067132 -0.0208137 0)
(0.00358636 -0.0126142 0)
(-0.00474427 -0.0073174 0)
(-0.00237859 -0.00589381 0)
(0.000662278 -0.0113045 0)
(0.00248171 -0.0146957 0)
(-0.000438484 -0.00924106 0)
(-0.00392165 -0.00791098 0)
(-0.00189448 -0.0120024 0)
(-0.0013216 -0.014782 0)
(0.000690538 -0.0108619 0)
(-0.00176327 -0.0128906 0)
(-0.00152992 -0.0208116 0)
(-0.00419651 -0.0242058 0)
(0.000659656 -0.0197677 0)
(0.00560718 -0.0072293 0)
(0.0048272 -0.00765618 0)
(-0.00308334 -0.0171913 0)
(-0.000968087 -0.0186677 0)
(0.00350489 -0.0128051 0)
(0.0014321 -0.0106492 0)
(-0.00181344 -0.0051496 0)
(0.000698843 -0.0046584 0)
(0.00198087 -0.0147319 0)
(0.00429887 -0.01618 0)
(0.00826072 -0.0212561 0)
(0.00616521 -0.0208824 0)
(0.00118568 -0.0188096 0)
(-0.000543546 -0.0218544 0)
(0.00187113 -0.0186828 0)
(0.000232721 -0.0124083 0)
(0.000155414 -0.010315 0)
(-0.00232966 -0.0117932 0)
(0.00281862 -0.0134059 0)
(0.00649765 -0.00713117 0)
(-0.00571891 0.000730008 0)
(-0.00613467 -0.00239564 0)
(0.00104261 -0.00201186 0)
(-0.00311322 -0.0113588 0)
(-0.00211531 -0.0221875 0)
(0.000815396 -0.0233881 0)
(0.00170194 -0.0197838 0)
(-0.00189197 -0.0169056 0)
(-0.00659633 -0.0109499 0)
(-0.00103295 -0.00757877 0)
(-0.000780179 -0.0102804 0)
(-0.000927055 -0.0159696 0)
(0.00149159 -0.0170858 0)
(0.00294691 -0.0138476 0)
(0.00959646 -0.0106466 0)
(0.00562101 -0.0196718 0)
(-0.00234649 -0.021754 0)
(-0.00368169 -0.0158637 0)
(-0.00312244 -0.0139626 0)
(0.00028043 -0.0110978 0)
(-0.00293917 -0.00771733 0)
(-0.00422732 -0.0109965 0)
(-0.0029135 -0.0168553 0)
(-0.00179863 -0.0129069 0)
(0.00207207 -0.0122125 0)
(-0.00145709 -0.0101523 0)
(-0.00787405 -0.00531315 0)
(-0.00423686 -0.000591566 0)
(-0.00151667 -0.00944818 0)
(-0.000921133 -0.0102665 0)
(-0.00300672 -0.0113647 0)
(-0.00148788 -0.0147516 0)
(0.0105103 -0.00926806 0)
(0.00700672 -0.0103179 0)
(0.00238985 -0.0168391 0)
(0.000799328 -0.0174065 0)
(0.00102287 -0.0172291 0)
(0.000397372 -0.0196998 0)
(0.000268473 -0.0166014 0)
(0.00145302 -0.00784471 0)
(0.00220521 -0.0120092 0)
(-0.00326725 -0.00577706 0)
(-0.00534483 -0.00862376 0)
(-0.00302939 -0.0185106 0)
(-0.00235919 -0.0207064 0)
(-0.000600801 -0.0196287 0)
(-0.000311065 -0.0145951 0)
(0.00251031 -0.00818342 0)
(0.00351778 -0.00783508 0)
(0.00267194 -0.0090462 0)
(0.00518241 -0.0169373 0)
(0.00296792 -0.0208491 0)
(-0.00134061 -0.0247555 0)
(-0.00271841 -0.0236908 0)
(-0.00187976 -0.0228398 0)
(-0.00385602 -0.0191515 0)
(0.0024754 -0.0237036 0)
(0.00109845 -0.0295582 0)
(-0.00253436 -0.0287384 0)
(-0.000841067 -0.0259971 0)
(9.83563e-05 -0.0225761 0)
(0.00192679 -0.0215335 0)
(0.00450532 -0.0222417 0)
(0.00562732 -0.0239376 0)
(0.00593299 -0.0242891 0)
(0.00577018 -0.022893 0)
(0.00112894 -0.0169952 0)
(0.000461495 -0.0132465 0)
(0.00269777 -0.0113407 0)
(-0.00307825 -0.00927984 0)
(-0.00848653 -0.00502398 0)
(-0.00456166 -0.00132888 0)
(0.00381889 0.00200631 0)
(0.00274206 -0.00237613 0)
(-0.00360033 -0.00095491 0)
(-0.00433491 -0.00142839 0)
(-5.89863e-05 -0.0104218 0)
(0.00400012 -0.011432 0)
(0.00522854 -0.0245853 0)
(0.00317459 -0.0289023 0)
(-0.00409247 -0.0259902 0)
(-0.00648178 -0.0176104 0)
(-0.00412001 -0.0146495 0)
(0.00161111 -0.0112644 0)
(-0.000464404 -0.00794806 0)
(-0.00233362 -0.0128585 0)
(0.00214555 -0.0202774 0)
(0.00239688 -0.0238417 0)
(0.00644985 -0.0189584 0)
(0.00782959 -0.0132719 0)
(0.0034048 -0.0115803 0)
(2.89063e-05 -0.00935512 0)
(-0.00400142 -0.0111426 0)
(-0.00851486 -0.0122385 0)
(-0.00150435 -0.0131418 0)
(0.000778933 -0.0185474 0)
(0.00246684 -0.0230266 0)
(0.00252828 -0.0225589 0)
(0.000816964 -0.0167094 0)
(-0.00810973 -0.0128591 0)
(-0.00923367 -0.017537 0)
(-0.00524857 -0.0190075 0)
(-0.00165386 -0.015243 0)
(-0.0033034 -0.0158571 0)
(-0.00682339 -0.0164363 0)
(-0.00248321 -0.0124683 0)
(-0.00022378 -0.0139091 0)
(0.0017969 -0.0141927 0)
(0.00718048 -0.00950021 0)
(0.00496844 -0.00940305 0)
(0.00286442 -0.0142549 0)
(0.00221197 -0.0140816 0)
(0.00182413 -0.0167601 0)
(0.000730904 -0.0152927 0)
(0.00291153 -0.00768344 0)
(0.00540542 -0.0084199 0)
(0.00303565 -0.00643364 0)
(0.00458496 -0.017978 0)
(-0.00162462 -0.0241398 0)
(-0.00251842 -0.0249918 0)
(-0.00545029 -0.0234698 0)
(-0.00163688 -0.0222991 0)
(-0.00110391 -0.0170161 0)
(0.000325712 -0.00795157 0)
(0.00278748 -0.00704732 0)
(-0.00054512 -0.0125295 0)
(0.00025164 -0.0152088 0)
(0.00107457 -0.0137759 0)
(-0.00417864 -0.0106105 0)
(-0.00290365 -0.0166664 0)
(0.00528935 -0.00742338 0)
(0.00725827 -0.0102933 0)
(7.23867e-05 -0.0101984 0)
(-0.00600153 -0.01353 0)
(3.04393e-05 -0.0182593 0)
(-0.00120524 -0.0214745 0)
(-0.0015233 -0.021568 0)
(0.00521311 -0.0161725 0)
(0.00351298 -0.0142836 0)
(0.00356501 -0.00950876 0)
(0.00192267 -0.00461067 0)
(-0.000296702 -0.00337706 0)
(-0.00222263 -0.00944888 0)
(-0.00367855 -0.006403 0)
(-0.00516152 -2.30311e-06 0)
(-0.0061895 -0.00812828 0)
(-0.00745091 -0.0141166 0)
(-0.00141504 -0.0104851 0)
(0.00701275 -0.00941482 0)
(0.00548767 -0.00791388 0)
(0.00512838 -0.00433067 0)
(0.00976306 -0.0145366 0)
(0.00792224 -0.0123347 0)
(0.00986549 -0.0109974 0)
(0.00355143 -0.0114345 0)
(-0.00932075 -0.00861237 0)
(-0.0121402 -0.00784337 0)
(-0.00681605 -0.00342401 0)
(0.00302701 -0.0055909 0)
(0.000788793 -0.00568588 0)
(-0.00113241 -0.0134419 0)