/*--------------------------------*- C++ -*----------------------------------*\
  =========                 |
  \\      /  F ield         | OpenFOAM: The Open Source CFD Toolbox
   \\    /   O peration     | Website:  https://openfoam.org
    \\  /    A nd           | Version:  12
     \\/     M anipulation  |
\*---------------------------------------------------------------------------*/
FoamFile
{
    format      ascii;
    class       volVectorField;
    location    "0.1";
    object      U.water_0;
}
// * * * * * * * * * * * * * * * * * * * * * * * * * * * * * * * * * * * * * //

dimensions      [0 1 -1 0 0 0 0];

internalField   nonuniform List<vector> 
3750
(
(0.00502167 0.0231145 0)
(0.000586422 0.0202285 0)
(0.0019483 0.0112006 0)
(-0.001337 0.0125968 0)
(-0.00304495 0.0182604 0)
(-0.000776584 0.025188 0)
(-0.00138158 0.0265127 0)
(-0.00125362 0.0251205 0)
(0.00137531 0.0224042 0)
(0.000553004 0.0217395 0)
(-0.0027703 0.0213496 0)
(-0.00283604 0.0239428 0)
(-0.00207265 0.027759 0)
(0.00229823 0.0299707 0)
(0.00179226 0.0289719 0)
(5.54722e-05 0.0257669 0)
(0.00321307 0.0237199 0)
(0.00405529 0.0206148 0)
(0.000631177 0.0175139 0)
(0.00059942 0.0212319 0)
(-0.000593793 0.0187896 0)
(-0.00143142 0.0149276 0)
(-0.00407654 0.0166827 0)
(-0.00322179 0.020164 0)
(0.000493547 0.0228937 0)
(0.00190097 0.0162455 0)
(0.0029611 0.0133599 0)
(0.00336858 0.00871579 0)
(0.0013704 0.00434907 0)
(-0.000571659 0.00923008 0)
(-0.00408136 0.0194638 0)
(-0.0031303 0.016568 0)
(-0.00146616 0.013049 0)
(-0.0016937 0.017873 0)
(-0.000748317 0.0182842 0)
(0.000230507 0.0167327 0)
(-6.74821e-05 0.0151293 0)
(0.000901873 0.0126227 0)
(0.00379182 0.00880134 0)
(0.0014779 0.00518107 0)
(-0.000362079 0.00440378 0)
(0.00084743 0.00156748 0)
(-0.000827199 0.00220497 0)
(-0.00220568 0.013357 0)
(-0.00167125 0.0177251 0)
(-0.00136706 0.0141508 0)
(-0.00171944 0.0206551 0)
(-0.000891866 0.0198258 0)
(0.00201872 0.0214678 0)
(0.00131803 0.0234044 0)
(-0.00104379 0.0178291 0)
(-0.00200724 0.0142048 0)
(-0.00775091 0.0211844 0)
(-0.00477861 0.0247249 0)
(-0.0038018 0.0288067 0)
(-0.00169171 0.0283429 0)
(-0.000439508 0.0249352 0)
(0.000248923 0.025496 0)
(0.00268838 0.0209607 0)
(0.0039643 0.0152849 0)
(0.00275475 0.0146064 0)
(0.00127948 0.0161941 0)
(0.00180915 0.0168706 0)
(0.0045496 0.0179418 0)
(0.00616645 0.0185272 0)
(0.00436753 0.0186947 0)
(0.00385536 0.0195251 0)
(-0.00167546 0.0196812 0)
(-0.00520503 0.0220422 0)
(-0.00839127 0.024636 0)
(-0.00623911 0.0303348 0)
(-0.000397644 0.0301251 0)
(0.00386236 0.0239237 0)
(0.00500356 0.0167194 0)
(0.00394808 0.0104193 0)
(0.00760846 -0.00884238 0)
(-0.001261 -0.00762349 0)
(0.00161254 -0.00445902 0)
(-0.00461215 -0.00596218 0)
(-0.00875501 -0.00510126 0)
(-0.00427978 -0.00674732 0)
(0.00263916 -0.00447452 0)
(0.00272962 -0.00772645 0)
(0.00108358 -0.00680867 0)
(0.00103096 -0.00876142 0)
(-0.000750997 -0.0117102 0)
(-0.00255897 -0.0108923 0)
(-0.00575983 -0.0079903 0)
(-0.00234996 -0.00488016 0)
(0.00433891 -0.000631936 0)
(0.00276166 -0.00629407 0)
(-0.00104371 -0.00421207 0)
(0.00287027 -0.000788425 0)
(0.00614825 -0.00298999 0)
(0.00562496 -0.00544484 0)
(-0.00208942 -0.00471537 0)
(-0.00157988 -0.00401436 0)
(-0.00150477 -0.0107891 0)
(-0.00266321 -0.011799 0)
(0.00281636 -0.0113264 0)
(0.00554275 -0.0112994 0)
(0.00463043 -0.0121422 0)
(0.00448366 -0.0101148 0)
(0.00173306 -0.00812323 0)
(0.000847073 -0.00657311 0)
(-0.00111273 -0.00548951 0)
(-0.00506578 -0.00772302 0)
(-0.00544529 -0.0112451 0)
(-0.00111104 -0.0171418 0)
(0.00177447 -0.0171273 0)
(0.00252979 -0.0161828 0)
(0.00477742 -0.0157352 0)
(0.00307594 -0.0169157 0)
(0.00169608 -0.0143848 0)
(0.0032595 -0.0154291 0)
(0.0014848 -0.0137149 0)
(-0.00217629 -0.0077725 0)
(-0.00412786 -0.00959181 0)
(-0.00209871 -0.00849324 0)
(-0.00656293 -0.00236868 0)
(-0.00670727 -0.00507738 0)
(-0.00109643 -0.00720697 0)
(0.00263896 -0.00517591 0)
(0.00771612 -0.00405008 0)
(0.0027555 -0.000909595 0)
(-0.00494048 -0.00639081 0)
(-0.00216782 -0.0115561 0)
(-0.00316642 -0.0116485 0)
(-0.00346256 -0.0161586 0)
(0.00410719 -0.0217615 0)
(0.00292987 -0.0211193 0)
(0.00429364 -0.01842 0)
(0.00377843 -0.0167314 0)
(0.00555356 -0.0223663 0)
(0.00114253 -0.0285897 0)
(-0.00279424 -0.0233874 0)
(-0.00534656 -0.0234021 0)
(-0.00559805 -0.0271223 0)
(-0.00719182 -0.0218407 0)
(-0.00769462 -0.0137838 0)
(-0.00372561 -0.00843848 0)
(-0.000483164 -0.00933251 0)
(-0.000456406 -0.00560853 0)
(-0.00124959 -0.0136505 0)
(-0.00120975 -0.0184926 0)
(0.00267462 -0.0172336 0)
(0.00511828 -0.0135451 0)
(0.00616264 -0.0138502 0)
(0.00702032 -0.0143839 0)
(0.00374566 -0.0110416 0)
(-0.000113033 -0.0125047 0)
(-0.00246499 -0.00836856 0)
(-0.000901744 -0.00451574 0)
(0.000622739 -0.00418155 0)
(-0.00385961 -0.0117096 0)
(-0.00205389 -0.0124442 0)
(0.000126411 -0.00932782 0)
(0.00221166 -0.0071392 0)
(0.00264044 -0.0105062 0)
(0.00313522 -0.0104854 0)
(-0.00116968 -0.00911133 0)
(-0.00496142 -0.00709011 0)
(-0.00666941 -0.0112754 0)
(-0.0035427 -0.0160192 0)
(0.00407247 -0.0133467 0)
(0.00392672 -0.0127399 0)
(-0.00396564 -0.0170613 0)
(0.00310682 -0.0175848 0)
(0.00688042 -0.011992 0)
(0.00286206 -0.00701501 0)
(-0.00136373 -0.00986453 0)
(0.00169125 -0.00855043 0)
(-0.000752473 -0.00547776 0)
(0.000340235 -0.0138334 0)
(-0.000100732 -0.0149419 0)
(0.0018774 -0.0114978 0)
(0.00191097 -0.0088239 0)
(0.00332636 -0.0115808 0)
(-0.00311703 -0.0108315 0)
(-0.00159654 -0.00872141 0)
(0.000589557 -0.00820129 0)
(0.00103636 -0.00593382 0)
(0.00506055 -0.0132097 0)
(0.00240967 -0.0177199 0)
(-0.00268191 -0.01491 0)
(-0.000446194 -0.0138768 0)
(0.00198209 -0.0136676 0)
(-4.35039e-05 -0.00736646 0)
(0.00227644 -0.0087515 0)
(0.00307122 -0.0116912 0)
(-0.00660621 -0.00662468 0)
(-0.00465391 -0.00333168 0)
(-0.000816854 -0.00559081 0)
(-0.00593667 -0.00570143 0)
(-0.00351568 -0.00525825 0)
(0.000581875 -0.0125386 0)
(0.000831933 -0.0163764 0)
(0.00252959 -0.0131925 0)
(0.00326253 -0.0101887 0)
(-0.000454459 -0.016957 0)
(0.00244838 -0.0164671 0)
(0.00187392 -0.0163275 0)
(0.00427581 -0.0224279 0)
(-0.00259019 -0.0195846 0)
(0.000606277 -0.01924 0)
(-0.0011024 -0.011372 0)
(0.00316769 -0.0092518 0)
(0.00197011 -0.0148664 0)
(0.00701804 -0.00792615 0)
(0.0112182 -0.00036948 0)
(0.00319113 0.000803414 0)
(-0.00438214 -0.00602528 0)
(-0.00185861 -0.0154845 0)
(-0.00833418 -0.014756 0)
(-0.00327631 -0.0240746 0)
(0.000896173 -0.0320839 0)
(0.00224041 -0.0349784 0)
(0.00650773 -0.0338802 0)
(-0.00185548 -0.0304437 0)
(-0.00797986 -0.0274989 0)
(-0.00469494 -0.026047 0)
(-0.000543514 -0.0235409 0)
(0.00205734 -0.0225883 0)
(0.00309313 -0.0228945 0)
(0.00180587 -0.0158725 0)
(-0.00241095 -0.0107815 0)
(-0.00496244 -0.00871291 0)
(-0.0054457 -0.00611956 0)
(0.00172274 -0.00581658 0)
(-1.07831e-05 -0.0099247 0)
(-0.00567649 -0.0101035 0)
(-0.00482782 -0.00915031 0)
(0.00527688 -0.00965416 0)
(0.00141669 -0.0084277 0)
(0.00314923 -0.00673069 0)
(-0.00264369 -0.0115844 0)
(0.00149745 -0.00750821 0)
(0.00102579 -0.0110856 0)
(-0.000769878 -0.0193522 0)
(0.00100437 -0.0232253 0)
(0.00583474 -0.0211786 0)
(0.00447178 -0.0205296 0)
(-0.00176554 -0.0202992 0)
(-0.00314902 -0.0194413 0)
(0.000281613 -0.0137869 0)
(-0.000544157 -0.0148457 0)
(-0.00307316 -0.0191379 0)
(0.00486876 -0.0156891 0)
(0.00571874 -0.019055 0)
(0.000212807 -0.0160354 0)
(0.000286335 -0.0199615 0)
(0.00375854 -0.0201368 0)
(0.00344975 -0.0162281 0)
(-0.00134748 -0.0245903 0)
(-0.00207089 -0.0210213 0)
(-0.00590117 -0.0188905 0)
(0.00179287 -0.0231674 0)
(0.00554566 -0.0196216 0)
(0.000423301 -0.0132529 0)
(-0.00334104 -0.00877145 0)
(0.000850155 -0.0121431 0)
(-0.000595825 -0.0104543 0)
(-0.000571173 -0.00924864 0)
(0.00684019 -0.00863739 0)
(0.00113134 -0.00430328 0)
(-0.00708447 -0.00857736 0)
(-0.00369277 -0.0124797 0)
(-0.00368067 -0.00933148 0)
(-0.00400813 -0.00790254 0)
(0.00113201 -0.014727 0)
(0.00647669 -0.0162222 0)
(0.00579858 -0.0210138 0)
(0.00884747 -0.0171137 0)
(0.00761034 -0.0184884 0)
(0.00458664 -0.0207242 0)
(0.00329601 -0.011727 0)
(-0.00528835 -0.0133492 0)
(-0.00226111 -0.0219605 0)
(0.00222034 -0.0186537 0)
(-0.00557421 -0.0153638 0)
(-0.00352052 -0.0139464 0)
(-0.000301274 -0.0150805 0)
(-0.00426379 -0.0207236 0)
(-0.00796092 -0.0141273 0)
(-0.00599945 -0.00999928 0)
(0.0031895 -0.00460705 0)
(0.00524174 -0.00835459 0)
(0.00135922 -0.0101853 0)
(0.00112931 -0.00925919 0)
(0.00415327 -0.0162613 0)
(0.00544294 -0.0200951 0)
(-0.00238903 -0.0214992 0)
(-0.0012024 -0.0182287 0)
(-0.00336841 -0.0143736 0)
(-0.0033849 -0.0134952 0)
(-0.00155623 -0.0191043 0)
(0.000161269 -0.0222037 0)
(0.000220937 -0.0198598 0)
(0.00112511 -0.0217646 0)
(0.000534035 -0.0170328 0)
(-0.00158752 -0.0186025 0)
(-0.00415475 -0.0158768 0)
(-0.00425169 -0.0120984 0)
(0.00135491 -0.0173192 0)
(-0.000249542 -0.0248989 0)
(-0.000816175 -0.0292632 0)
(0.000735712 -0.0231735 0)
(0.00228363 -0.0195015 0)
(0.000167348 -0.0148249 0)
(0.00667621 -0.0130996 0)
(0.00304365 -0.0152438 0)
(0.00095756 -0.0131017 0)
(0.00189305 -0.016528 0)
(-0.000409209 -0.0220192 0)
(0.00140047 -0.0328431 0)
(0.0030191 -0.0314829 0)
(0.00243152 -0.0254281 0)
(-0.00497277 -0.0257003 0)
(-0.00436312 -0.0288261 0)
(0.000167353 -0.0278777 0)
(0.00201565 -0.0282023 0)
(0.00299886 -0.0298705 0)
(0.00828133 -0.0255439 0)
(0.0021706 -0.0203075 0)
(0.00379896 -0.0138257 0)
(0.00183643 -0.015993 0)
(0.00115772 -0.0188759 0)
(-0.00302887 -0.0145263 0)
(0.00102101 -0.0161832 0)
(0.00336521 -0.0134282 0)
(-0.000910165 -0.00742901 0)
(-0.00195533 -0.0127881 0)
(-0.00498917 -0.0154371 0)
(-0.00710763 -0.0103424 0)
(-0.00231393 -0.0131303 0)
(0.000939097 -0.0153238 0)
(-0.00109938 -0.0126891 0)
(-0.00187405 -0.0120993 0)
(-0.00133202 -0.0097358 0)
(0.000514433 -0.00179181 0)
(0.00134945 -0.0118395 0)
(-0.00187979 -0.013582 0)
(-0.00299083 -0.0125307 0)
(0.00125757 -0.00917117 0)
(0.0024163 -0.0110953 0)
(0.00448438 -0.0163335 0)
(0.00489418 -0.0146715 0)
(0.0087418 -0.0116075 0)
(0.000541101 -0.00604246 0)
(-0.00103082 0.000438491 0)
(-0.00220181 0.00357449 0)
(0.00316549 -0.000943249 0)
(0.00219603 -0.00725618 0)
(-0.000928 -0.00479139 0)
(-0.00315655 -0.00223398 0)
(0.00199812 -0.0104768 0)
(0.000511673 -0.0116997 0)
(0.000802983 -0.0079627 0)
(-0.00498057 -0.01466 0)
(-0.000425209 -0.0231119 0)
(0.00234952 -0.0204015 0)
(0.00321009 -0.0147931 0)
(0.00349833 -0.0139987 0)
(0.00435074 -0.0213303 0)
(0.00128973 -0.0182723 0)
(0.00137195 -0.0177633 0)
(-0.000261798 -0.0169568 0)
(-0.00277699 -0.0157804 0)
(-0.00465816 -0.0214046 0)
(0.00287053 -0.0253156 0)
(-0.000959076 -0.0270493 0)
(-0.00137811 -0.0228995 0)
(-0.00115478 -0.0215715 0)
(-0.000155562 -0.0222584 0)
(-6.69718e-05 -0.0175686 0)
(-0.00441294 -0.015532 0)
(-0.00156221 -0.0251167 0)
(-0.00226071 -0.0208098 0)
(0.00320187 -0.0163933 0)
(0.00499285 -0.0240026 0)
(-0.0028539 -0.0258989 0)
(-0.00323505 -0.017411 0)
(-0.00619737 -0.0148631 0)
(-0.00128598 -0.0115514 0)
(-0.000762188 -0.0136299 0)
(0.00190929 -0.0157168 0)
(0.000975711 -0.0078675 0)
(0.00384421 -0.00924912 0)
(0.00419432 -0.0151913 0)
(0.00620335 -0.0243144 0)
(0.00314832 -0.020479 0)
(0.00202021 -0.0209812 0)
(0.000862602 -0.0218552 0)
(-0.00191735 -0.0235686 0)
(-0.00100876 -0.0271678 0)
(0.00075159 -0.0266347 0)
(0.00074568 -0.0210214 0)
(-0.00220842 -0.0151675 0)
(-0.0025699 -0.0139212 0)
(0.00179551 -0.0114993 0)
(-0.00201072 -0.0101619 0)
(-0.00229201 -0.00469903 0)
(-0.000379943 -0.00968663 0)
(-0.000890746 -0.011604 0)
(-0.00601686 -0.0114504 0)
(-0.00410881 -0.00745572 0)
(0.000656555 -0.00312834 0)
(-7.68016e-05 -0.00352214 0)
(-0.00042725 -0.00622283 0)
(0.00135097 -0.0141276 0)
(0.00195763 -0.00902864 0)
(-0.00319916 -0.0119277 0)
(-0.0045763 -0.0126059 0)
(-0.00288033 -0.0137944 0)
(0.00194135 -0.0171927 0)
(0.00366667 -0.0184748 0)
(0.0027325 -0.0205359 0)
(0.00172509 -0.0147676 0)
(-0.000779677 -0.00673213 0)
(0.000734149 -0.006992 0)
(0.000622655 -0.0121051 0)
(-0.00287951 -0.0145573 0)
(0.00196126 -0.0127414 0)
(-0.00347806 -0.0108568 0)
(0.000234575 -0.0181947 0)
(0.0048147 -0.0172445 0)
(0.00441351 -0.0143108 0)
(0.000801543 -0.0100667 0)
(-0.0042706 -0.00617515 0)
(0.00237163 -0.0113632 0)
(0.00362123 -0.0130214 0)
(0.00254668 -0.0146862 0)
(0.00421505 -0.0117795 0)
(-0.00412643 -0.0100973 0)
(-0.00405453 -0.0128511 0)
(-0.00418992 -0.0126482 0)
(-0.0025814 -0.0129699 0)
(0.00459102 -0.00780616 0)
(0.00641401 -0.0084304 0)
(0.00915393 -0.00801823 0)
(0.000794371 -0.0133017 0)
(-0.000780506 -0.00934269 0)
(-5.15082e-05 -0.00758324 0)
(8.90424e-05 -0.0257761 0)
(0.00490132 -0.028211 0)
(-0.00306885 -0.0252144 0)
(-0.00678622 -0.0204516 0)
(-0.00377524 -0.0194549 0)
(-0.00214277 -0.0211327 0)
(-0.000796865 -0.017092 0)
(0.00131759 -0.00615059 0)
(0.00195992 -0.0197287 0)
(-0.000702979 -0.0216375 0)
(-0.00540893 -0.015481 0)
(0.00141044 -0.0110874 0)
(-0.00153182 -0.00691007 0)
(0.0021336 -0.0155058 0)
(-0.00483327 -0.0115191 0)
(0.00280018 -0.00439345 0)
(0.0020876 -0.0121551 0)
(-0.00233944 -0.0103289 0)
(0.00241504 -0.00380244 0)
(0.00469596 -0.0105827 0)
(0.00243626 -0.0162617 0)
(-0.00116894 -0.011846 0)
(0.00123157 -0.00837868 0)
(0.00384631 -0.0119529 0)
(-0.000996643 -0.0089141 0)
(-0.00109355 -0.0064276 0)
(0.00198645 -0.0109442 0)
(0.00126559 -0.00836437 0)
(0.00234056 -0.00471456 0)
(-0.00386372 -0.00449119 0)
(-0.00229369 -0.00908001 0)
(-0.00078313 -0.00911804 0)
(-0.00331472 -0.00667156 0)
(-0.00122171 -0.0102755 0)
(0.00230385 -0.00493259 0)
(0.00455136 -0.00167761 0)
(-0.00205098 -0.00543566 0)
(-0.00397289 -0.017055 0)
(-0.00551098 -0.0194235 0)
(0.000170898 -0.0145608 0)
(-0.000136591 -0.013765 0)
(-0.000286209 -0.0149875 0)
(-0.00237209 -0.0117569 0)
(-0.000446109 -0.00692184 0)
(0.00203031 -0.0156487 0)
(0.00443574 -0.0132874 0)
(0.0031378 -0.0145491 0)
(0.0047484 -0.0133938 0)
(0.0028851 -0.0110283 0)
(-0.000852822 -0.00540463 0)
(-0.000123433 0.00146522 0)
(0.00134008 -0.00591332 0)
(7.03317e-05 -0.0113409 0)
(-0.000934124 -0.0142437 0)
(0.003102 -0.0155641 0)
(0.00464225 -0.025625 0)
(0.00135634 -0.0259074 0)
(-0.00296803 -0.0194038 0)
(-0.00362608 -0.0133297 0)
(-0.00187013 -0.0125575 0)
(-0.000745912 -0.0119886 0)
(0.00263705 -0.00998761 0)
(0.00245302 -0.0136673 0)
(0.00195455 -0.0130527 0)
(0.0041496 -0.0127161 0)
(0.00542164 -0.00983235 0)
(-0.00752707 -0.00871252 0)
(-0.00485293 -0.0167716 0)
(-0.000663762 -0.0305346 0)
(0.000194277 -0.0309559 0)
(0.00516076 -0.0199631 0)
(0.00815351 -0.0160446 0)
(0.00619149 -0.0195438 0)
(0.00414102 -0.0164962 0)
(0.00287865 -0.0164852 0)
(0.0074488 -0.0186121 0)
(0.000698983 -0.0187699 0)
(-0.00678593 -0.0134693 0)
(-0.00765568 -0.0137999 0)
(-0.00501612 -0.0173798 0)
(-0.00312395 -0.0191432 0)
(-0.00108121 -0.0169605 0)
(0.00667407 -0.0185673 0)
(0.00493374 -0.0234457 0)
(-0.00161922 -0.0258445 0)
(-0.00727075 -0.0277597 0)
(0.00176093 -0.0244389 0)
(0.00648954 -0.0189003 0)
(0.00254201 -0.0187574 0)
(-0.00521383 -0.0206571 0)
(-0.0037827 -0.014087 0)
(-0.003176 -0.0126154 0)
(0.00222083 -0.0103967 0)
(0.00506977 -0.0115466 0)
(0.00370281 -0.0177084 0)
(0.00118444 -0.0180293 0)
(-0.000973018 -0.0176948 0)
(0.00412572 -0.0170415 0)
(0.0037289 -0.0105647 0)
(-0.0040647 -0.00847491 0)
(-0.00303173 -0.0155551 0)
(0.000101474 -0.0162295 0)
(-0.00134144 -0.0160895 0)
(-0.00244857 -0.0120056 0)
(0.00160283 -0.0122861 0)
(-0.000931508 -0.0173226 0)
(-0.00148484 -0.0138913 0)
(-0.00186638 -0.0137449 0)
(-0.00388184 -0.0123054 0)
(-0.00572761 -0.0131434 0)
(0.000865399 -0.0179142 0)
(0.00751712 -0.00904677 0)
(0.00805969 -0.0149415 0)
(0.00189949 -0.0181175 0)
(-0.00089762 -0.0183698 0)
(-0.00400223 -0.0249999 0)
(-0.00413565 -0.0260938 0)
(-0.0047177 -0.0276131 0)
(-0.000157345 -0.0264401 0)
(0.000739369 -0.0265889 0)
(0.00115462 -0.0249377 0)
(0.000863996 -0.0178862 0)
(-1.46579e-05 -0.0160853 0)
(-0.000396167 -0.0154684 0)
(0.00546885 -0.00785249 0)
(0.00545897 -0.00976493 0)
(0.00408587 -0.00821262 0)
(0.000506816 -0.0145072 0)
(0.00192671 -0.0133485 0)
(0.00140425 -0.0152184 0)
(-0.000455944 -0.0223119 0)
(-0.00327519 -0.020069 0)
(-0.00338102 -0.0215664 0)
(-4.462e-05 -0.0145068 0)
(0.00430878 -0.0170072 0)
(0.00155752 -0.0155861 0)
(-0.00487763 -0.0126158 0)
(0.0025292 -0.0150257 0)
(0.0008089 -0.00787619 0)
(0.0037816 -0.00717458 0)
(0.00621353 -0.00503636 0)
(0.00403605 -0.00249189 0)
(-0.000470673 -0.0100379 0)
(0.00318768 -0.0233231 0)
(0.00234802 -0.0254587 0)
(0.00279501 -0.0175553 0)
(-0.00230836 -0.0151208 0)
(0.00228471 -0.0155958 0)
(0.00413601 -0.0120049 0)
(-0.00206871 -0.0129211 0)
(0.0028407 -0.00714418 0)
(-0.00519604 -0.00193803 0)
(-0.00911303 -0.00546744 0)
(-0.00194598 -0.0102378 0)
(0.000144416 -0.0137949 0)
(-0.000919764 -0.0167338 0)
(-0.000123108 -0.01571 0)
(0.00546985 -0.0192325 0)
(0.00513412 -0.0116086 0)
(0.00287759 -0.00969817 0)
(-0.00259994 -0.0196173 0)
(-0.00419672 -0.01984 0)
(-0.000277363 -0.0207615 0)
(-0.000991272 -0.0145428 0)
(0.00132055 -0.00968551 0)
(0.00119264 -0.0141307 0)
(-0.00588684 -0.0170473 0)
(-0.00143463 -0.0119967 0)
(-0.000289018 -0.0143839 0)
(0.00108931 -0.0169139 0)
(0.00136937 -0.0115992 0)
(-0.00328498 -0.0131272 0)
(-0.00571372 -0.0105385 0)
(-0.00546481 -0.00393155 0)
(0.0021727 -0.00454134 0)
(0.00593501 -0.0128409 0)
(0.00321796 -0.0170423 0)
(-0.000584374 -0.0153661 0)
(-0.00278985 -0.011304 0)
(0.00304743 -0.0095931 0)
(-0.00318417 -0.0130204 0)
(-0.0024976 -0.0117535 0)
(-0.00199037 -0.00610066 0)
(-0.000795908 -0.00982481 0)
(0.00380514 -0.0221897 0)
(0.00160352 -0.0264591 0)
(0.0025015 -0.0196002 0)
(0.00202882 -0.0142485 0)
(0.00416137 -0.0143961 0)
(-0.00132239 -0.0143452 0)
(0.00264069 -0.019646 0)
(-0.000159913 -0.0226309 0)
(-0.00177302 -0.0290734 0)
(-0.00160379 -0.0356474 0)
(-0.00191559 -0.0364509 0)
(0.0019942 -0.0368224 0)
(0.00257188 -0.0333775 0)
(-0.00258466 -0.0315793 0)
(-0.0017627 -0.02553 0)
(0.00884046 -0.0156416 0)
(0.00547989 -0.0114978 0)
(-7.91122e-05 -0.00976527 0)
(-0.00425243 -0.0137602 0)
(0.0043598 -0.0131235 0)
(0.000105866 -0.0165749 0)
(-8.43417e-05 -0.0254358 0)
(-0.00154714 -0.0277 0)
(-0.00440835 -0.0288928 0)
(-0.00104396 -0.0275113 0)
(-0.00124087 -0.0239576 0)
(0.00179205 -0.0222094 0)
(-0.0016745 -0.0192743 0)
(-0.00469629 -0.0191383 0)
(-0.00597458 -0.0134956 0)
(0.00119231 -0.00949705 0)
(0.00584763 -0.0137388 0)
(0.00774645 -0.0145312 0)
(0.0048001 -0.012924 0)
(0.00402964 -0.0203632 0)
(0.00152005 -0.0227722 0)
(0.00457725 -0.0128468 0)
(0.00146316 -0.014143 0)
(-0.000234434 -0.0188794 0)
(0.00134834 -0.0176304 0)
(-3.87782e-05 -0.017703 0)
(-0.00432741 -0.0178212 0)
(-0.00265435 -0.0134832 0)
(-0.000656911 -0.0175574 0)
(-0.00223905 -0.0190143 0)
(-0.00160342 -0.0166511 0)
(-0.00134747 -0.019248 0)
(-0.000446524 -0.0161184 0)
(0.00351302 -0.0178389 0)
(0.00320121 -0.0127992 0)
(0.000177848 -0.00887971 0)
(0.00344768 -0.00362085 0)
(-0.000892836 -0.00940966 0)
(-0.000372195 -0.00857351 0)
(-0.00309432 -0.00705264 0)
(0.00389882 -0.00864088 0)
(0.00594084 -0.00357394 0)
(-0.00162644 0.00219966 0)
(-0.004399 -0.000438946 0)
(-0.00230573 -0.0105742 0)
(-0.00321044 -0.0171902 0)
(-0.00148518 -0.0118897 0)
(0.00315542 -0.00664433 0)
(-0.00169632 -0.0149816 0)
(-0.00351649 -0.0206466 0)
(0.00233573 -0.021912 0)
(0.0063595 -0.0234491 0)
(0.00218047 -0.0239678 0)
(-0.00147877 -0.0210996 0)
(-0.000453594 -0.0189633 0)
(-0.00206575 -0.0198658 0)
(-0.00802644 -0.0175092 0)
(-0.00491257 -0.0160552 0)
(0.0022551 -0.0225523 0)
(0.00303652 -0.0258005 0)
(0.00450896 -0.0279569 0)
(-0.000383238 -0.0313774 0)
(-0.00305135 -0.0320591 0)
(0.00161016 -0.0298965 0)
(0.00379932 -0.0290086 0)
(0.000218251 -0.0229482 0)
(0.000195928 -0.0221338 0)
(0.0032472 -0.024774 0)
(0.00575677 -0.0251409 0)
(0.00587984 -0.0300749 0)
(0.00354719 -0.026233 0)
(-0.000896038 -0.0218605 0)
(0.000723649 -0.0218448 0)
(-0.00244245 -0.0189661 0)
(-0.00282381 -0.0165368 0)
(4.0155e-05 -0.01044 0)
(-0.0028884 -0.00373339 0)
(-0.00230864 -0.00597261 0)
(0.000140978 -0.0114227 0)
(0.0061159 -0.0144676 0)
(0.00188914 -0.0169869 0)
(-1.27155e-05 -0.0186607 0)
(-0.000601358 -0.0201279 0)
(-0.00198803 -0.0249062 0)
(-0.00227658 -0.02763 0)
(-0.00165885 -0.0249859 0)
(0.00077138 -0.0242577 0)
(-0.000402713 -0.0232377 0)
(-0.00333212 -0.0215355 0)
(-0.00293213 -0.0217523 0)
(-0.00182215 -0.0205603 0)
(0.00533593 -0.018599 0)
(0.00694586 -0.0171303 0)
(0.00836891 -0.0130486 0)
(0.00317512 -0.0122831 0)
(-0.00484362 -0.0110115 0)
(-0.00536709 -0.00956151 0)
(0.00321734 -0.00344774 0)
(0.00411927 -0.00353214 0)
(-0.000572316 -0.00542869 0)
(0.000459734 -0.00634317 0)
(-0.00379832 -0.00904793 0)
(-0.00616339 -0.00913487 0)
(-0.00120704 -0.00547988 0)
(-0.00150967 -0.0112031 0)
(-0.00196498 -0.0121984 0)
(-0.000160454 -0.0156239 0)
(-0.000231392 -0.0146281 0)
(-0.000933004 -0.0126988 0)
(-0.00286712 -0.0104038 0)
(-0.00649308 -0.0112472 0)
(-0.00151396 -0.0153838 0)
(-0.00291478 -0.0126956 0)
(-0.00431979 -0.010872 0)
(-0.00140893 -0.0127417 0)
(0.00274035 -0.0177573 0)
(0.000438106 -0.0100097 0)
(0.00310513 -0.000201652 0)
(0.00595518 -0.00651794 0)
(-0.000987894 -0.0153082 0)
(-0.00656797 -0.0164679 0)
(-0.00449467 -0.0162224 0)
(0.0059398 -0.00719662 0)
(0.00977982 -0.0030543 0)
(-0.00151217 -0.00823289 0)
(-0.00732117 -0.011374 0)
(0.00335199 -0.00575147 0)
(0.00356569 1.85769e-05 0)
(-0.000756752 -0.00319465 0)
(0.00312388 -0.00617231 0)
(0.00108811 -0.00792212 0)
(-0.00432559 -0.00384374 0)
(-0.00326892 -0.0129415 0)
(0.00158642 -0.0162352 0)
(-0.000111877 -0.0171955 0)
(0.00703628 -0.020926 0)
(0.00535668 -0.0213996 0)
(0.000609324 -0.0222906 0)
(0.00337237 -0.0232818 0)
(0.00110513 -0.0212735 0)
(0.000208212 -0.0193012 0)
(-0.00279827 -0.0193221 0)
(0.000321458 -0.019668 0)
(0.00254348 -0.0219432 0)
(0.00128383 -0.024193 0)
(0.000590645 -0.0164003 0)
(-0.00855824 -0.0160607 0)
(-0.00530181 -0.0165309 0)
(0.00126656 -0.0129638 0)
(0.00574241 -0.0105673 0)
(7.64277e-06 -0.0110071 0)
(-0.00272634 -0.015277 0)
(0.00173758 -0.0107968 0)
(0.00580793 -0.0150491 0)
(-0.000479875 -0.0183777 0)
(-0.00151001 -0.0103117 0)
(0.0019706 -0.00822623 0)
(0.00348083 -0.00958105 0)
(0.001762 -0.00786011 0)
(-0.00308247 -0.00991697 0)
(-0.00122333 -0.00585921 0)
(-0.00365183 -0.00567931 0)
(-0.00388451 -0.0120371 0)
(-0.000833593 -0.0107966 0)
(0.0025174 -0.0108501 0)
(-0.00132669 -0.0139822 0)
(-0.0090166 -0.00962059 0)
(3.92415e-05 -0.00996245 0)
(0.0021352 -0.00894458 0)
(0.00338407 -0.00471974 0)
(0.000463875 -0.0114887 0)
(-0.0038159 -0.0137224 0)
(-0.00163402 -0.0124777 0)
(0.00189972 -0.00538732 0)
(0.00261342 -3.41818e-05 0)
(0.00556126 0.00171392 0)
(-0.000338182 -0.00108665 0)
(-0.00443022 -0.0103767 0)
(0.000734789 -0.0115848 0)
(0.00251002 -0.0108668 0)
(0.000342583 -0.0162927 0)
(0.000755605 -0.018323 0)
(8.06964e-05 -0.0163922 0)
(-0.00160988 -0.00980963 0)
(0.00398052 -0.0060852 0)
(0.00593769 -0.0174617 0)
(0.00461808 -0.0204573 0)
(1.7474e-06 -0.0116031 0)
(-0.000627894 -0.0156001 0)
(0.00291204 -0.0266256 0)
(0.00267304 -0.0263714 0)
(0.00452242 -0.0268261 0)
(0.00385907 -0.0207093 0)
(0.00589492 -0.0121294 0)
(-0.00193072 -0.0115887 0)
(-0.00827271 -0.0126187 0)
(-0.0100129 -0.019138 0)
(-0.00707052 -0.0210087 0)
(0.00348613 -0.00941116 0)
(0.00446587 -0.00989841 0)
(-0.00420438 -0.0150724 0)
(-0.00552648 -0.0146202 0)
(-0.0012237 -0.00924399 0)
(0.00608088 -0.00910274 0)
(0.00492957 -0.0134142 0)
(0.00240483 -0.0104606 0)
(0.00168437 -0.00460988 0)
(0.00121841 -0.0100227 0)
(0.00245417 -0.0154554 0)
(0.00400769 -0.0141348 0)
(0.00461999 -0.0179908 0)
(0.000307835 -0.0223871 0)
(0.00479537 -0.0140504 0)
(0.00271653 -0.0124139 0)
(-0.000888396 -0.0164535 0)
(0.00105268 -0.0197427 0)
(0.00317755 -0.0170357 0)
(0.00688973 -0.0109273 0)
(0.00777995 -0.0216443 0)
(0.00104423 -0.0195965 0)
(-0.00342399 -0.0126918 0)
(-0.00607022 -0.0227384 0)
(-0.00499099 -0.0244449 0)
(-0.000715185 -0.0264921 0)
(0.00443486 -0.0212019 0)
(0.00204246 -0.0229538 0)
(0.00456383 -0.0214371 0)
(-0.000216822 -0.0126467 0)
(-0.00464941 -0.0132706 0)
(-0.00637174 -0.0148955 0)
(-0.00690318 -0.0134569 0)
(-0.00109151 -0.0113774 0)
(0.00402329 -0.0109005 0)
(-0.000318271 -0.0108733 0)
(0.00201583 -0.016119 0)
(0.00181248 -0.0123252 0)
(-0.00270489 -0.0148695 0)
(-0.00309001 -0.0131278 0)
(-0.00195035 -0.0181945 0)
(-0.000545696 -0.0224527 0)
(-0.000236823 -0.0137117 0)
(0.000488339 -0.00941775 0)
(0.00211883 -0.0120352 0)
(0.00237847 -0.0198508 0)
(0.00291658 -0.0184643 0)
(0.00196021 -0.0143115 0)
(-0.00473385 -0.0114325 0)
(-0.00783989 -0.011405 0)
(-0.00679625 -0.00910531 0)
(-0.00635466 -0.00715501 0)
(0.000548134 -0.00191351 0)
(0.00700144 -0.00214563 0)
(0.00376171 -0.0125667 0)
(9.12958e-05 -0.0146023 0)
(0.00336631 -0.0124042 0)
(0.00339587 -0.0146625 0)
(0.00127281 -0.0163855 0)
(0.000533164 -0.0150608 0)
(-0.00365282 -0.0232368 0)
(0.00233788 -0.0209568 0)
(0.00391663 -0.0217326 0)
(-0.00342463 -0.0148675 0)
(-0.0017838 -0.00846998 0)
(0.00200654 -0.00946968 0)
(0.00281409 -0.0113888 0)
(0.00747742 -0.00282685 0)
(0.00223972 -0.00968716 0)
(0.00375867 -0.0125052 0)
(-0.00238302 -0.00478312 0)
(-0.00585564 -0.00895238 0)
(-0.00636003 -0.0142295 0)
(-0.00684816 -0.0210589 0)
(-0.00748293 -0.0233113 0)
(0.000815672 -0.0207587 0)
(0.00443534 -0.0149064 0)
(0.00073881 -0.00895023 0)
(-0.00270615 -0.0170398 0)
(-0.00199175 -0.0189398 0)
(0.00186875 -0.0111673 0)
(0.00161469 -0.0104954 0)
(-0.000109804 -0.00832454 0)
(0.00455274 -0.00511785 0)
(0.00243465 -0.0128847 0)
(0.00335731 -0.0138932 0)
(0.0112729 -0.0138962 0)
(0.00559556 -0.0210233 0)
(0.00182469 -0.0203863 0)
(0.00111438 -0.0200234 0)
(-0.00132615 -0.0203672 0)
(-0.000708685 -0.0156793 0)
(0.00121926 -0.0128813 0)
(0.00235649 -0.0110278 0)
(0.00386106 -0.0102208 0)
(0.00463051 -0.00644232 0)
(-0.00220435 -0.000352521 0)
(-0.00636875 -0.00411179 0)
(0.000144322 -0.00199709 0)
(-0.00213217 -0.0104749 0)
(0.000595668 -0.0245092 0)
(0.00448369 -0.0249355 0)
(0.00544087 -0.0157264 0)
(0.00329876 -0.00569983 0)
(-0.00571765 -0.00647956 0)
(-0.00824523 -0.013609 0)
(-0.0044905 -0.0119043 0)
(-0.00496307 -0.0167328 0)
(-0.00114711 -0.0139976 0)
(0.00228812 -0.0127514 0)
(0.00824862 -0.0199717 0)
(0.0095372 -0.016493 0)
(-0.00109763 -0.0160523 0)
(-0.00529073 -0.0194879 0)
(-0.00653794 -0.00943985 0)
(-0.0039809 -0.00947452 0)
(-0.00579584 -0.0162834 0)
(-0.00493662 -0.00986937 0)
(0.0013005 -0.00535742 0)
(0.000876614 -0.0137617 0)
(0.0022604 -0.0199649 0)
(-0.00278186 -0.00872566 0)
(-0.00483292 -0.0041145 0)
(-0.00311917 -0.00186739 0)
(-0.00338413 -0.0107287 0)
(-0.00180721 -0.0103911 0)
(-0.00417029 -0.00997957 0)
(0.00129102 -0.0146137 0)
(0.0100232 -0.0102592 0)
(0.00847468 -0.0105224 0)
(0.0018609 -0.017271 0)
(0.00111669 -0.0173549 0)
(0.00136216 -0.0173518 0)
(0.000582487 -0.019956 0)
(0.000339675 -0.0168557 0)
(0.00196573 -0.00729277 0)
(-0.0022301 -0.0113176 0)
(-0.00613665 -0.0127939 0)
(-0.00463522 -0.0157847 0)
(-0.000217008 -0.0186071 0)
(0.000165549 -0.018798 0)
(0.00252718 -0.0144451 0)
(0.00382687 -0.007 0)
(0.00843079 -0.0105045 0)
(0.0111936 -0.0109006 0)
(0.00258496 -0.0101024 0)
(-0.00457909 -0.0161102 0)
(0.000196915 -0.0169729 0)
(-0.000623921 -0.0263803 0)
(-0.00678399 -0.0227049 0)
(-0.00468003 -0.0212309 0)
(-0.00338215 -0.0250503 0)
(0.00150336 -0.0252151 0)
(0.00021098 -0.0300824 0)
(-0.00276516 -0.0312004 0)
(-0.00768174 -0.0253931 0)
(-0.00177195 -0.0199699 0)
(0.00312857 -0.0203199 0)
(0.0123176 -0.0226677 0)
(0.0080088 -0.0260278 0)
(0.00959907 -0.0211135 0)
(0.0071885 -0.0181196 0)
(-0.0009091 -0.0182142 0)
(0.00131212 -0.0138308 0)
(0.00113543 -0.0111313 0)
(-0.00499524 -0.0109133 0)
(-0.010164 -0.006517 0)
(-0.00496167 -0.00156969 0)
(0.00601779 0.00335736 0)
(0.00356157 6.6605e-05 0)
(-0.000817635 0.000194947 0)
(-0.00268698 -0.00142613 0)
(-0.00178269 -0.0133898 0)
(0.00501387 -0.0131665 0)
(0.00554344 -0.0226664 0)
(0.00568483 -0.0291376 0)
(9.52664e-05 -0.0263028 0)
(-0.00107281 -0.014528 0)
(-0.00230472 -0.00875535 0)
(-0.00352634 -0.0108106 0)
(-0.00647438 -0.013207 0)
(-0.00277252 -0.01457 0)
(-0.00325733 -0.0189749 0)
(0.00167291 -0.0187155 0)
(0.00556795 -0.0200007 0)
(0.00792077 -0.0185609 0)
(0.0083304 -0.00934474 0)
(-0.00179227 -0.00731289 0)
(-0.00404747 -0.0123281 0)
(-0.00601817 -0.010241 0)
(-0.00888714 -0.0127586 0)
(0.00317486 -0.0213745 0)
(0.0046535 -0.0197841 0)
(0.0038318 -0.013708 0)
(5.74522e-05 -0.0194585 0)
(-0.00804622 -0.0222544 0)
(-0.00995527 -0.013172 0)
(-0.00757511 -0.0157587 0)
(0.000547537 -0.0207236 0)
(-0.00261789 -0.018801 0)
(-0.00689755 -0.0161822 0)
(-0.00313825 -0.00796489 0)
(-0.00118281 -0.0132825 0)
(0.00202398 -0.0166623 0)
(0.00645197 -0.00965458 0)
(0.00821266 -0.0102324 0)
(0.00432719 -0.0133051 0)
(0.00282972 -0.0142233 0)
(0.00206443 -0.0170755 0)
(0.000819399 -0.0156314 0)
(0.00384281 -0.0105202 0)
(0.00123818 -0.0115798 0)
(0.00267045 -0.00933556 0)
(0.00192227 -0.0192206 0)
(0.00369659 -0.0251584 0)
(0.00168045 -0.023364 0)
(-0.000381075 -0.0188746 0)
(-0.00452097 -0.0135486 0)
(-0.000184314 -0.0161462 0)
(0.00426025 -0.0149746 0)
(0.0046449 -0.0143992 0)
(-0.000133468 -0.0132227 0)
(-0.00281728 -0.00673555 0)
(0.000844236 -0.0154717 0)
(-0.00402003 -0.0128123 0)
(-0.00872212 -0.0125149 0)
(0.00542537 -0.012859 0)
(0.00812174 -0.0136784 0)
(-0.00054113 -0.00963012 0)
(-0.0065572 -0.0192458 0)
(-0.00671443 -0.0176963 0)
(-0.00248238 -0.0127395 0)
(0.00268187 -0.0154938 0)
(0.00791527 -0.0158649 0)
(0.00658526 -0.0165875 0)
(0.0079024 -0.00836165 0)
(0.00202248 -0.00256206 0)
(-0.000228172 -0.00368431 0)
(-0.00229909 -0.0107306 0)
(-0.00577082 -0.0073035 0)
(-0.0061984 -0.00104891 0)
(-0.00877381 -0.00917849 0)
(-0.01014 -0.012808 0)
(0.000209911 -0.00867365 0)
(0.0053863 -0.00546431 0)
(0.00825336 -0.00645364 0)
(0.00705984 -0.00961526 0)
(0.00746701 -0.0173008 0)
(0.00973904 -0.0107024 0)
(0.0115677 -0.00922333 0)
(0.0057655 -0.0100003 0)
(-0.00544535 -0.00695883 0)
(-0.00787013 -0.00573189 0)
(-0.00436908 -0.00292219 0)
(-0.00117985 -0.00890138 0)
(-0.00525231 -0.00654829 0)
(-0.00119085 -0.0142004 0)
(0.00124593 -0.0159153 0)
(0.00117642 -0.0149769 0)
(0.000976487 -0.0185688 0)
(-0.00220604 -0.0149712 0)