/*--------------------------------*- C++ -*----------------------------------*\
  =========                 |
  \\      /  F ield         | OpenFOAM: The Open Source CFD Toolbox
   \\    /   O peration     | Website:  https://openfoam.org
    \\  /    A nd           | Version:  12
     \\/     M anipulation  |
\*---------------------------------------------------------------------------*/
FoamFile
{
    format      ascii;
    class       volScalarField::Internal;
    location    "0.7";
    object      cloud:UCoeff;
}
// * * * * * * * * * * * * * * * * * * * * * * * * * * * * * * * * * * * * * //

dimensions      [1 0 0 0 0 0 0];

value           nonuniform List<scalar> 
3750
(
1.60388e-05
1.00697e-06
1.39426e-07
4.7108e-08
4.76032e-08
4.88638e-08
4.81714e-08
4.64086e-08
0
1.15213e-07
0
4.9499e-08
5.21192e-08
0
5.03907e-08
4.91711e-08
5.04485e-08
1.19914e-07
4.7916e-08
1.20741e-07
1.13586e-07
0
4.87715e-08
4.89921e-08
4.93694e-08
4.82784e-08
1.1779e-07
0
4.68209e-08
0
4.9669e-08
0
1.18326e-07
1.1627e-07
0
0
5.12906e-08
0
4.91519e-08
4.86436e-08
0
1.18847e-07
1.12863e-07
4.9812e-08
4.98854e-08
5.05405e-08
5.00151e-08
4.96562e-08
1.23969e-07
1.04381e-07
4.72868e-08
4.82347e-08
1.15038e-07
5.00094e-08
4.97545e-08
4.96394e-08
5.02735e-08
5.04437e-08
1.1988e-07
1.15181e-07
4.69743e-08
1.18184e-07
0
2.09881e-08
6.44918e-08
1.18999e-07
4.71235e-08
4.72205e-08
4.84345e-08
1.13741e-07
5.07729e-08
0
4.9406e-08
5.04733e-08
5.10214e-08
3.52368e-05
1.28677e-06
8.47501e-08
0
1.17896e-07
0
1.15603e-07
1.23168e-07
1.17628e-07
4.79338e-08
4.87096e-08
4.90332e-08
0
4.97908e-08
0
5.00461e-08
0
4.97832e-08
1.24481e-07
4.96055e-08
0
1.6418e-08
2.01741e-08
9.98183e-08
5.03512e-08
0
0
4.91453e-08
4.94752e-08
0
4.95859e-08
1.14639e-07
5.3865e-08
1.15741e-07
5.39916e-08
0
1.00393e-09
4.66951e-08
0
1.17391e-07
1.14742e-07
4.67519e-08
4.92901e-08
0
0
0
0
0
0
5.01614e-08
0
5.12487e-08
5.08985e-08
5.25313e-08
1.22318e-07
0
5.06583e-08
0
0
5.29118e-08
7.93096e-08
8.05053e-08
1.24274e-07
7.03311e-09
3.75143e-08
5.0072e-08
4.85862e-08
1.14418e-07
1.16839e-07
4.75428e-08
4.86595e-08
4.87146e-08
5.0611e-08
0
5.09167e-08
4.23516e-06
1.29534e-06
1.78622e-07
4.58301e-08
4.73594e-08
4.8584e-08
4.9366e-08
4.94879e-08
4.93181e-08
4.80784e-08
1.15107e-07
0
1.24059e-07
1.75903e-08
7.9446e-08
0
4.98417e-08
1.21247e-07
1.25474e-07
4.63365e-08
4.73016e-08
4.9082e-08
0
2.87048e-08
1.43043e-07
4.72818e-08
5.02885e-08
0
5.00447e-08
0
4.9347e-08
0
4.75135e-08
5.11207e-08
6.76799e-08
3.30056e-08
0
1.15363e-07
4.98744e-08
1.14918e-07
1.15165e-07
4.58968e-08
4.81001e-08
4.90513e-08
4.96063e-08
0
4.97072e-08
5.02751e-08
4.88611e-08
1.14227e-07
4.78893e-08
0
4.95217e-08
5.13361e-08
0
1.23512e-07
1.09092e-07
1.20778e-07
0
1.28284e-07
4.75953e-08
0
1.17109e-07
1.20534e-07
0
4.90754e-08
5.8863e-08
1.00788e-07
4.79836e-08
5.87276e-08
1.05907e-07
0
4.91002e-08
5.07915e-08
4.99528e-08
1.21136e-05
6.26361e-07
1.69312e-07
0
1.15815e-07
1.19031e-07
4.67626e-08
4.66923e-08
4.67561e-08
1.13646e-07
1.95508e-07
1.11107e-07
4.81948e-08
4.95524e-08
4.78208e-08
1.14884e-07
1.19556e-07
0
1.20663e-07
4.96024e-08
0
8.95077e-08
8.76168e-09
1.14072e-07
5.01515e-08
0
5.07003e-08
5.16256e-08
4.96342e-08
0
4.94544e-08
4.85106e-08
1.17671e-07
1.1618e-07
0
5.00094e-08
1.16395e-07
5.63337e-08
1.06581e-07
4.6894e-08
4.86209e-08
1.16595e-07
4.85825e-08
4.93272e-08
4.95421e-08
5.07196e-08
1.1605e-07
1.14187e-07
8.05015e-08
6.37939e-08
4.88385e-08
4.70308e-08
4.74757e-08
1.21221e-07
4.89555e-08
4.82965e-08
0
2.23349e-08
7.25065e-08
0
4.97194e-08
1.16151e-07
4.84714e-08
5.0011e-08
4.80527e-08
4.76791e-08
4.79038e-08
1.17449e-07
4.73557e-08
4.84896e-08
4.77681e-08
4.92878e-08
0
4.94642e-08
4.99749e-08
1.04355e-05
2.38328e-06
3.68665e-08
4.88094e-08
4.94396e-08
4.92175e-08
5.0247e-08
5.08675e-08
4.80682e-08
0
0
4.92325e-08
4.88572e-08
1.22733e-07
4.82153e-08
4.74518e-08
4.96454e-08
5.20135e-08
5.21782e-08
0
5.00711e-08
4.84197e-08
4.88649e-08
4.77188e-08
5.17352e-08
2.56467e-08
6.56607e-08
4.81962e-08
4.66323e-08
4.73076e-08
4.73619e-08
1.22327e-07
4.86393e-08
4.87657e-08
5.079e-08
1.25691e-07
4.804e-08
4.75153e-08
5.12852e-08
0
1.23051e-07
0
1.18639e-07
4.8626e-08
8.51391e-08
8.68016e-08
1.01197e-07
4.26313e-08
4.55284e-08
4.80113e-08
4.83973e-08
4.76495e-08
8.04202e-08
7.61676e-08
1.23727e-07
0
5.11744e-08
0
4.92608e-08
5.03276e-08
1.20121e-07
4.77275e-08
4.77471e-08
1.22184e-07
4.84789e-08
5.0915e-08
4.92361e-08
4.92602e-08
4.98304e-08
0
4.91676e-08
5.02135e-08
0
4.9118e-08
0
1.2042e-05
1.62012e-06
8.24532e-08
5.02661e-08
4.91096e-08
4.93513e-08
1.19176e-07
0
4.89252e-08
4.9141e-08
4.89531e-08
1.1809e-07
5.01836e-08
5.01032e-08
4.82059e-08
4.83791e-08
5.1764e-08
5.2817e-08
5.10583e-08
5.33148e-08
0
4.54126e-08
1.22141e-07
4.71646e-08
4.82732e-08
5.77537e-08
1.09944e-07
4.81884e-08
4.76954e-08
4.84495e-08
4.94818e-08
5.06327e-08
0
0
5.20601e-08
5.10592e-08
0
0
0
0
0
1.19901e-07
0
4.92702e-08
5.02954e-08
4.89014e-08
4.61419e-08
4.99479e-08
4.8084e-08
4.70767e-08
4.76492e-08
4.80751e-08
8.79646e-08
5.52849e-08
6.86707e-08
5.00731e-08
4.8837e-08
0
5.03275e-08
5.01699e-08
0
4.95353e-08
4.70975e-08
4.92018e-08
8.32347e-08
8.08555e-08
0
4.91377e-08
0
4.94972e-08
0
4.96752e-08
5.02509e-08
5.03025e-08
0
1.03583e-05
4.72232e-07
2.1933e-07
1.19703e-07
4.8321e-08
4.82458e-08
5.06727e-08
0
4.82704e-08
4.83149e-08
4.84883e-08
0
5.05957e-08
5.01265e-08
4.78589e-08
4.74401e-08
5.29677e-08
0
5.03334e-08
5.11225e-08
2.46937e-08
6.34852e-08
4.92508e-08
4.87342e-08
1.19258e-07
4.63827e-08
1.22957e-07
0
0
4.96054e-08
4.99118e-08
0
4.94621e-08
4.98491e-08
1.18061e-07
4.83307e-08
1.17522e-07
5.09431e-08
1.17556e-07
4.81774e-08
1.18684e-07
1.1961e-07
1.21392e-07
5.00469e-08
0
4.95373e-08
4.82207e-08
4.74414e-08
4.71409e-08
4.83072e-08
4.74609e-08
4.79427e-08
4.95134e-08
4.88053e-08
5.08006e-08
5.05411e-08
4.90675e-08
4.85261e-08
5.11787e-08
4.86331e-08
5.68891e-08
1.02602e-07
1.2352e-07
4.65222e-08
7.85708e-08
8.86214e-08
0
4.91272e-08
4.94534e-08
4.9569e-08
5.03211e-08
0
4.98087e-08
4.86384e-08
4.87519e-08
1.19796e-05
1.03069e-06
2.39385e-07
5.2042e-08
0
0
5.01313e-08
2.2476e-08
6.19748e-08
4.96227e-08
0
4.80962e-08
5.23982e-08
1.20845e-07
4.93113e-08
4.80302e-08
4.93598e-08
5.20467e-08
1.15149e-08
3.2233e-08
4.99169e-08
4.87804e-08
0
4.90444e-08
4.84051e-08
1.16344e-07
0
5.03997e-08
4.92572e-08
5.14086e-08
0
4.91243e-08
2.03767e-07
4.79428e-08
0
4.92416e-08
4.8744e-08
4.79064e-08
4.80305e-08
5.18464e-08
5.08933e-08
5.07539e-08
0
4.9412e-08
4.98828e-08
4.88398e-08
7.63525e-08
8.25047e-08
4.91495e-08
1.14878e-07
4.69608e-08
4.8075e-08
5.00547e-08
4.98845e-08
4.99705e-08
4.87169e-08
4.92475e-08
4.86427e-08
1.23209e-07
6.69361e-09
3.68452e-08
4.72119e-08
5.02469e-08
5.11313e-08
0
5.15598e-08
5.20663e-08
5.03326e-08
5.03036e-08
5.00924e-08
5.00335e-08
1.15336e-07
4.74484e-08
5.11036e-08
6.17738e-08
2.9995e-05
6.99028e-07
1.97897e-07
1.22236e-07
4.89185e-08
4.95845e-08
4.85024e-08
4.95296e-08
5.00818e-08
5.02762e-08
1.66107e-08
0
4.90347e-08
5.25051e-08
0
0
5.06599e-08
0
5.34935e-08
4.94172e-08
0
8.75245e-08
7.43794e-08
1.1537e-07
1.13668e-07
4.75514e-08
4.90004e-08
4.93822e-08
4.91926e-08
5.0183e-08
4.92484e-08
4.58665e-08
1.22743e-07
4.86238e-08
6.81578e-08
9.0513e-08
4.97491e-08
1.49296e-08
2.03866e-08
4.98235e-08
5.19843e-08
5.20233e-08
6.33725e-08
1.04316e-07
5.29082e-08
1.69835e-08
3.2454e-08
6.6383e-08
8.74129e-08
4.78187e-08
4.52569e-08
5.06446e-08
0
1.16519e-07
4.79935e-08
4.91334e-08
5.0037e-08
4.99226e-08
8.59771e-08
1.14335e-08
4.89369e-08
5.05116e-08
0
5.13968e-08
5.05992e-08
5.10594e-08
4.93056e-08
4.9198e-08
1.24605e-07
4.86672e-08
4.66696e-08
4.81123e-08
1.20795e-07
6.6344e-08
9.24562e-08
1.19517e-05
4.8891e-07
6.25682e-07
5.11844e-08
0
5.01249e-08
4.92029e-08
0
5.10755e-08
0
1.91787e-08
0
0
4.85751e-08
5.09925e-08
5.02354e-08
0
4.98264e-08
5.079e-08
0
1.15203e-07
1.22879e-07
4.99616e-08
0
0
4.92373e-08
4.81932e-08
7.67676e-08
7.94613e-08
2.0806e-07
1.10467e-07
4.41596e-08
5.33071e-08
5.02192e-08
0
4.69682e-08
7.26789e-08
4.68613e-08
1.16181e-07
7.41363e-08
9.27094e-08
0
4.94838e-08
4.88206e-08
0
5.03428e-08
4.96338e-08
4.89384e-08
5.0815e-08
5.10034e-08
4.92514e-08
5.09643e-08
5.09737e-08
4.89175e-08
4.88118e-08
5.00209e-08
1.24448e-07
4.89437e-08
4.7758e-08
4.82106e-08
4.79985e-08
5.01289e-08
5.15526e-08
0
5.03958e-08
5.09933e-08
5.07676e-08
4.9672e-08
1.2476e-07
4.82785e-08
4.61129e-08
1.13864e-07
1.15119e-07
1.15586e-07
1.16172e-07
1.39323e-05
6.00471e-07
4.4529e-07
1.22377e-07
4.9107e-08
4.99252e-08
5.25435e-08
0
2.10914e-08
7.49295e-08
4.85504e-08
4.80343e-08
1.17911e-07
4.73842e-08
1.19894e-07
7.41494e-08
8.34992e-08
4.75088e-08
4.8524e-08
5.86398e-08
1.07449e-07
0
1.51156e-08
2.15741e-08
1.16612e-07
1.15077e-07
1.55831e-07
7.51147e-08
0
4.92438e-08
4.76187e-08
4.63901e-08
5.37824e-08
0
4.99324e-08
0
8.49571e-08
4.80919e-08
4.8344e-08
6.6942e-08
1.00312e-07
8.88409e-09
3.31421e-08
4.89935e-08
5.01678e-08
8.24472e-08
7.99701e-08
4.82337e-08
5.2167e-08
0
4.95388e-08
4.98963e-08
4.93452e-08
8.81316e-08
7.08697e-08
4.90853e-08
5.09085e-08
4.97722e-08
4.9044e-08
4.93959e-08
4.88244e-08
5.00658e-08
0
4.81316e-08
5.20066e-08
5.46477e-08
2.1845e-08
1.38645e-08
0
9.70239e-08
5.97834e-08
4.87588e-08
8.91905e-08
6.9525e-08
1.21907e-07
1.19463e-05
1.04622e-06
1.36403e-07
4.87211e-08
0
5.07792e-08
5.00575e-08
5.37384e-08
1.14741e-07
5.02016e-08
4.97073e-08
1.17196e-07
4.60204e-08
4.64613e-08
1.23301e-07
4.90916e-08
4.87105e-08
4.85944e-08
1.1954e-07
4.79561e-08
4.78671e-08
4.89378e-08
5.05127e-08
1.18954e-07
4.8652e-08
4.68455e-08
5.26192e-09
3.71535e-08
4.80077e-08
0
4.92804e-08
0
1.19725e-07
5.09792e-08
4.96591e-08
4.83253e-08
4.90662e-08
4.9723e-08
4.98466e-08
4.97286e-08
5.02057e-08
4.98172e-08
4.89553e-08
4.89978e-08
5.00834e-08
5.12032e-08
4.81349e-08
4.75764e-08
4.8884e-08
5.07496e-08
5.00421e-08
4.95014e-08
4.95487e-08
4.98612e-08
8.30658e-08
7.77662e-08
4.9271e-08
4.81304e-08
4.95172e-08
1.26997e-08
2.46027e-08
4.98878e-08
0
1.16509e-07
5.00206e-08
1.25258e-07
5.30715e-08
0
1.14364e-07
4.84658e-08
4.9782e-08
0
4.96551e-08
5.07215e-08
5.10883e-08
1.04092e-05
2.50338e-07
4.55269e-07
5.02113e-08
4.86084e-08
4.94201e-08
0
1.20212e-07
4.87396e-08
4.88089e-08
8.51819e-08
7.21294e-08
4.80272e-08
4.81505e-08
4.93781e-08
4.96359e-08
8.98625e-08
6.94618e-08
4.81338e-08
4.84561e-08
4.80145e-08
1.18284e-07
4.90101e-08
9.27281e-08
4.58009e-09
4.92893e-08
4.86502e-08
4.91153e-08
0
1.16295e-07
4.72119e-08
0
5.02598e-08
5.01065e-08
1.16749e-07
5.09541e-08
5.1459e-08
5.0284e-08
4.89231e-08
4.86447e-08
4.89785e-08
4.96224e-08
4.96463e-08
4.94471e-08
5.0218e-08
5.04509e-08
1.20437e-07
4.69182e-08
4.81159e-08
5.03468e-08
5.1105e-08
5.71058e-08
4.2013e-08
5.0362e-08
4.91662e-08
8.59074e-08
7.53911e-08
4.73064e-08
4.78742e-08
4.86934e-08
4.80723e-08
4.98525e-08
0
4.71228e-09
1.0966e-07
0
5.19982e-08
5.24362e-08
5.00837e-08
4.94231e-08
0
0
0
0
0
1.0477e-05
8.06706e-07
1.49079e-07
4.98441e-08
4.92526e-08
5.85528e-08
8.83316e-08
1.5115e-09
4.82696e-08
4.94709e-08
4.98418e-08
5.00843e-08
5.0425e-08
4.82574e-08
4.83798e-08
1.18383e-07
4.92694e-08
4.94316e-08
4.90353e-08
4.94109e-08
4.97233e-08
4.90558e-08
4.92446e-08
1.23882e-07
5.19514e-08
0
4.9277e-08
0
0
0
4.90848e-08
4.99616e-08
0
0
0
4.98256e-08
4.87792e-08
5.28504e-08
1.16855e-07
4.81002e-08
5.02875e-08
0
4.91961e-08
5.00427e-08
5.3025e-08
5.17244e-08
4.96228e-08
4.84441e-08
5.07848e-08
5.1263e-08
4.81609e-08
4.95024e-08
5.2415e-08
4.9757e-08
4.80388e-08
4.86193e-08
4.84339e-08
1.15956e-07
4.73023e-08
5.53326e-08
1.09457e-07
4.83325e-08
4.87309e-08
4.90722e-08
4.98857e-08
5.00533e-08
5.38036e-08
0
5.0695e-08
4.92782e-08
4.90384e-08
5.01346e-08
5.13561e-08
2.8386e-08
8.80336e-10
2.60697e-05
8.33345e-07
1.4358e-07
5.00288e-08
5.02535e-08
4.86985e-08
4.90666e-08
4.98455e-08
5.08286e-08
0
4.90015e-08
5.12572e-08
5.17167e-08
4.85819e-08
4.77813e-08
4.86598e-08
5.05628e-08
5.00084e-08
4.98651e-08
4.94807e-08
5.23978e-08
4.68095e-08
4.84961e-08
5.0461e-08
5.19976e-08
5.19945e-08
0
4.91723e-08
4.91836e-08
5.06212e-08
1.95539e-08
4.51232e-08
6.336e-08
7.64981e-08
1.46283e-08
1.35757e-07
6.06058e-08
5.15778e-08
0
4.82976e-08
4.82635e-08
4.94467e-08
4.89569e-08
4.98535e-08
5.38621e-08
0
5.04259e-08
4.89834e-08
1.22185e-07
4.90548e-08
0
5.04164e-08
5.15978e-08
0
4.98603e-08
0
0
0
4.9276e-08
4.85903e-08
4.80302e-08
5.1557e-08
1.19473e-07
4.88004e-08
4.90985e-08
4.79328e-08
5.12072e-08
5.43929e-08
0
4.91225e-08
0
0
2.10045e-07
4.81046e-08
4.82146e-08
1.5766e-05
4.86717e-07
1.67649e-07
0
4.97812e-08
4.9792e-08
5.02226e-08
0
4.98635e-08
5.00836e-08
5.01825e-08
5.07057e-08
5.09285e-08
5.02869e-08
4.84232e-08
4.87048e-08
5.19529e-08
5.09774e-08
4.93096e-08
5.03749e-08
4.9705e-08
4.91388e-08
4.90731e-08
0
4.98379e-08
0
5.07422e-08
5.03445e-08
4.87682e-08
8.63395e-08
6.98492e-08
4.77785e-08
1.2284e-07
4.95223e-08
4.83865e-08
4.86278e-08
4.82377e-08
4.87384e-08
5.04691e-08
3.74373e-09
1.09343e-07
4.79832e-08
7.55872e-08
8.07062e-08
4.93883e-08
5.29842e-08
0
0
0
5.33171e-08
0
5.01704e-08
5.04624e-08
5.01557e-08
2.4945e-08
4.01255e-08
7.87724e-08
4.74459e-08
4.90807e-08
4.68879e-08
1.27773e-07
5.07207e-08
4.96086e-08
4.90494e-08
4.915e-08
4.92831e-08
5.02308e-08
5.07946e-08
5.05033e-08
5.01383e-08
4.95518e-08
0
0
1.21038e-07
0
4.90568e-05
4.36805e-07
1.69371e-07
0
5.09757e-08
4.9573e-08
0
4.88342e-08
4.96313e-08
4.99007e-08
5.01442e-08
5.09716e-08
4.94568e-08
4.8865e-08
4.81054e-08
4.79682e-08
1.25641e-07
0
4.94459e-08
5.07206e-08
0
4.90299e-08
4.92506e-08
5.08588e-08
6.21569e-09
3.87961e-08
5.14833e-08
5.2315e-08
4.97717e-08
1.197e-07
4.72822e-08
5.73925e-08
1.09053e-07
4.91763e-08
0
4.76546e-08
4.85249e-08
1.19485e-07
4.79455e-08
5.78091e-08
1.04297e-07
7.01853e-08
8.78264e-08
7.74405e-08
7.96734e-08
4.92551e-08
5.0798e-08
7.32212e-09
3.74652e-08
5.10523e-08
0
1.25746e-07
0
4.88149e-08
4.86446e-08
4.88076e-08
4.8785e-08
4.69194e-08
1.14349e-07
4.88291e-08
5.31398e-08
1.92448e-08
7.74774e-08
4.88399e-08
4.88867e-08
4.90627e-08
7.80128e-08
8.87148e-08
4.87544e-08
4.93132e-08
4.83517e-08
4.83767e-08
1.16652e-07
4.9728e-08
4.73646e-08
8.8279e-06
4.44928e-07
1.4589e-07
5.33956e-08
0
4.90257e-08
4.96214e-08
0
4.89647e-08
6.23455e-08
1.06352e-07
4.90483e-08
4.86111e-08
4.85828e-08
1.1725e-07
5.00002e-08
0
5.007e-08
5.0968e-08
4.03711e-09
4.39319e-08
5.00675e-08
2.49874e-08
4.08339e-09
4.90433e-08
9.11978e-08
7.59783e-08
2.32369e-08
1.30276e-08
4.41851e-08
6.74787e-08
9.80014e-08
5.02063e-08
4.91842e-08
4.86779e-08
4.93772e-08
5.00235e-08
5.0454e-08
5.01668e-08
4.9419e-08
1.17902e-07
6.88781e-08
8.91593e-08
1.1451e-07
4.72979e-08
4.76219e-08
1.17839e-07
4.96326e-08
5.11826e-08
1.71071e-08
1.82358e-08
4.98039e-08
5.49508e-09
1.03689e-07
1.17167e-07
6.00089e-08
1.01485e-07
4.93715e-08
0
0
5.00962e-08
5.0804e-08
5.11064e-08
4.97717e-08
4.79487e-08
1.16592e-07
1.17033e-07
4.87856e-08
4.85743e-08
4.78771e-08
1.16774e-07
4.73035e-08
4.82915e-08
4.94367e-08
1.16924e-07
3.50899e-05
8.16065e-07
1.6715e-07
4.97339e-08
5.03192e-08
4.92895e-08
4.91371e-08
4.92103e-08
4.77489e-08
4.82647e-08
4.8803e-08
1.20591e-07
1.21274e-07
4.72944e-08
4.7345e-08
4.81849e-08
5.21121e-08
0
5.07276e-08
5.10556e-08
5.07384e-08
1.32097e-08
2.50791e-08
1.20069e-07
7.66151e-09
8.04404e-08
6.91548e-08
0
5.024e-08
0
4.84339e-08
5.04489e-08
5.0938e-08
5.10751e-08
4.89801e-08
8.83065e-08
4.94167e-08
7.77081e-08
0
5.02378e-08
4.96633e-08
4.95386e-08
4.92157e-08
4.8892e-08
4.87905e-08
4.92773e-08
4.99254e-08
1.2594e-07
0
1.19999e-07
3.09318e-07
7.48105e-08
1.54901e-07
5.01388e-08
4.64152e-08
0
4.7049e-08
4.91339e-08
4.9807e-08
0
4.97182e-08
0
5.03997e-08
9.08345e-08
6.92556e-08
8.25124e-08
1.14611e-07
7.58445e-08
1.16096e-07
7.71455e-08
7.9638e-08
4.68202e-08
4.77883e-08
4.93786e-08
0
1.38384e-05
3.20807e-07
1.63211e-07
4.84483e-08
4.87882e-08
4.81003e-08
1.17486e-07
5.53857e-08
1.07786e-07
4.76348e-08
4.85343e-08
4.86457e-08
4.94571e-08
4.95887e-08
4.73589e-08
1.21209e-07
5.13709e-08
5.04134e-08
5.04705e-08
5.10128e-08
0
4.85147e-08
1.22174e-07
1.67586e-08
7.70729e-08
4.83715e-08
5.29782e-08
0
4.98367e-08
7.66231e-10
4.75401e-08
5.00829e-08
1.23672e-07
4.84387e-08
0
4.94947e-08
5.02659e-08
0
5.19602e-08
0
0
4.87432e-08
4.89241e-08
5.1111e-08
0
5.00049e-08
5.43545e-08
0
0
5.09858e-08
0
0
0
4.9319e-08
0
0
4.81723e-08
1.19653e-07
4.59707e-08
0
5.10541e-08
2.1524e-07
0
0
0
0
0
8.94166e-08
1.44968e-07
1.14823e-07
4.61234e-08
4.72399e-08
4.86173e-08
4.96098e-08
4.89785e-08
1.39688e-05
1.30858e-06
2.14499e-07
6.82837e-08
6.34886e-08
7.31839e-08
4.96989e-08
4.9475e-08
4.90024e-08
4.83958e-08
4.83541e-08
4.89556e-08
5.11844e-08
2.63766e-08
3.27313e-08
8.50158e-08
5.08045e-08
4.9626e-08
4.99618e-08
5.06058e-08
4.99375e-08
7.14732e-08
8.85618e-08
4.82617e-08
4.73776e-08
4.76742e-08
5.1338e-08
4.98555e-08
5.00663e-08
4.90309e-08
7.51114e-08
9.01412e-08
4.82714e-08
4.73834e-08
4.86847e-08
4.79216e-08
0
4.78076e-08
1.22347e-07
4.82115e-08
1.15795e-07
0
4.85082e-08
0
4.71627e-08
1.17001e-07
0
5.32344e-08
0
5.07358e-08
5.0373e-08
5.00475e-08
5.0046e-08
0
4.84198e-08
4.92241e-08
4.84913e-08
0
4.73978e-08
2.09584e-07
1.22504e-07
8.74442e-08
7.04193e-08
4.76005e-08
1.16949e-07
1.21487e-07
4.88627e-08
8.07325e-10
4.8493e-08
1.14909e-07
1.13092e-07
4.679e-08
4.77877e-08
4.85405e-08
4.92239e-08
1.37693e-05
1.25669e-06
2.25385e-07
4.63539e-08
4.92975e-08
1.64189e-08
2.27506e-08
4.95799e-08
8.3895e-08
7.42308e-08
4.64042e-08
4.89969e-08
0
5.13564e-08
4.97717e-08
5.12041e-08
0
5.10171e-08
5.0859e-08
1.20493e-07
4.84527e-08
1.17445e-07
4.71798e-08
4.77795e-08
4.85214e-08
8.11204e-08
1.61486e-08
4.83594e-08
4.83888e-08
1.24048e-07
4.94971e-08
4.89175e-08
4.85872e-08
4.859e-08
4.78558e-08
4.78944e-08
1.16934e-07
4.95457e-08
4.93842e-08
4.91883e-08
4.73925e-08
5.00977e-08
0
4.91559e-08
0
7.74452e-09
1.09423e-07
0
5.15442e-08
1.18256e-07
5.99535e-08
1.00781e-07
1.10967e-07
4.80657e-08
4.88522e-08
1.1546e-07
4.73628e-08
2.00241e-07
4.81944e-08
5.1015e-08
5.80471e-09
1.07127e-07
4.74698e-08
1.1686e-07
4.74978e-08
4.84238e-08
1.72802e-07
2.90607e-08
4.56318e-08
4.76249e-08
1.18565e-07
4.68719e-08
1.13533e-07
4.60665e-08
4.82783e-08
1.61829e-05
2.21142e-07
6.53087e-08
4.75783e-08
4.73251e-08
0
5.1162e-08
4.88199e-08
4.68972e-08
1.16607e-07
4.5665e-08
1.21398e-07
5.36689e-08
0
4.9515e-08
4.96166e-08
5.06671e-08
5.09409e-08
5.20221e-08
5.04846e-08
6.67519e-08
9.61307e-08
4.77308e-08
4.82175e-08
4.8649e-08
0
1.20554e-07
8.91619e-08
6.87395e-08
4.81968e-08
0
4.93504e-08
4.9255e-08
4.91589e-08
4.86975e-08
4.92622e-08
5.08152e-08
0
0
5.00905e-08
5.0481e-08
1.22691e-07
0
1.15796e-07
4.54685e-08
4.94887e-08
1.23106e-07
1.21823e-07
1.21912e-07
4.6479e-08
4.69326e-08
0
0
1.17878e-07
4.77998e-08
4.80132e-08
5.4658e-08
4.53067e-08
4.43628e-08
5.02396e-08
5.19083e-08
4.96909e-08
4.93399e-08
4.93841e-08
5.02025e-08
4.99954e-08
1.72749e-08
0
4.98643e-08
4.95615e-08
5.14221e-08
5.00046e-08
7.2e-08
8.0171e-08
1.2e-07
1.62374e-05
4.21353e-07
1.69116e-07
0
1.16016e-07
1.19714e-07
4.63774e-08
1.14414e-07
4.6267e-08
4.74609e-08
4.71169e-08
4.97113e-08
5.19993e-08
5.16381e-08
4.83482e-08
4.9258e-08
5.60226e-08
1.1387e-07
5.13554e-08
4.78781e-08
4.70419e-08
4.74794e-08
4.79133e-08
4.89202e-08
4.90215e-08
4.98887e-08
5.07575e-08
0
1.19085e-07
4.65512e-08
1.23373e-07
0
4.86002e-08
4.92948e-08
4.93675e-08
5.30737e-08
4.50162e-08
4.90845e-08
5.02691e-08
4.98319e-08
0
5.28218e-08
5.15447e-08
1.17198e-07
4.5104e-08
1.21479e-07
0
4.80647e-08
1.50082e-07
2.56774e-08
4.90649e-08
4.70601e-08
1.13571e-07
4.86915e-08
4.93725e-08
4.98495e-08
4.97367e-08
4.8818e-08
7.77379e-08
8.71142e-08
5.01173e-08
1.34643e-08
2.30475e-08
5.0189e-08
5.03718e-08
4.99048e-08
5.08955e-08
5.30757e-08
0
5.07438e-08
0
0
4.95593e-08
0
5.06608e-08
1.19261e-05
1.02068e-06
2.17639e-07
4.68604e-08
5.51427e-08
1.0931e-07
4.8412e-08
4.72763e-08
4.68996e-08
4.75317e-08
4.82698e-08
1.26361e-07
5.00468e-08
4.8201e-08
4.58325e-08
4.7289e-08
1.20537e-07
4.84853e-08
4.96338e-08
5.04417e-08
4.87925e-08
4.8532e-08
4.93155e-08
0
4.9486e-08
4.8989e-08
1.23853e-07
4.96806e-08
0
4.92156e-08
5.07816e-08
0
4.96351e-08
4.95679e-08
5.09501e-08
5.02337e-08
5.01288e-08
2.54237e-09
1.12639e-07
4.89235e-08
4.96306e-08
1.25893e-07
4.94093e-08
4.75492e-08
4.88702e-08
0
1.22508e-07
0
1.1798e-07
1.22519e-07
4.86595e-08
0
4.86601e-08
4.78581e-08
4.82543e-08
1.22427e-07
4.82437e-08
4.81127e-08
4.90436e-08
5.13456e-08
5.1299e-08
4.9571e-08
4.83756e-08
1.24522e-07
5.09523e-08
4.70322e-08
4.66629e-08
0
1.20664e-07
4.83281e-08
4.90213e-08
4.82803e-08
0
4.74003e-08
1.16555e-07
6.82666e-06
6.22877e-07
3.29288e-07
4.64901e-08
4.77592e-08
4.82338e-08
4.94787e-08
4.7875e-08
4.71626e-08
4.8335e-08
4.94008e-08
5.13353e-08
1.24672e-07
7.08065e-08
8.46071e-08
4.86358e-08
4.84982e-08
4.82133e-08
5.01944e-08
4.96637e-08
4.90104e-08
5.00921e-08
0
0
1.22257e-07
4.98085e-08
4.9698e-08
4.87487e-08
1.21006e-07
0
4.96481e-08
4.97935e-08
4.93532e-08
4.85626e-08
4.95545e-08
5.00049e-08
4.95304e-08
1.33424e-08
8.99388e-08
4.99992e-08
4.99442e-08
5.04938e-08
4.94843e-08
0
0
5.06817e-08
0
4.99359e-08
4.97268e-08
0
5.25177e-08
5.00323e-08
1.21056e-07
0
4.93392e-08
5.00788e-08
4.95363e-08
0
0
5.38983e-08
0
4.99793e-08
0
0
0
6.05101e-08
1.02485e-07
1.15931e-07
4.55133e-08
5.09657e-08
1.22457e-07
6.44052e-08
4.58574e-08
4.67241e-08
0
2.55323e-05
7.96618e-07
1.53485e-07
1.14892e-07
4.71006e-08
5.05004e-08
5.80631e-08
1.06512e-07
4.85278e-08
4.93996e-08
5.2503e-08
5.24674e-08
5.03026e-08
4.70473e-08
4.71492e-08
1.20377e-07
4.86052e-08
4.85798e-08
5.06074e-08
0
4.88923e-08
0
4.1553e-09
1.05536e-07
1.25009e-07
5.36353e-08
0
4.98218e-08
0
5.10154e-08
4.93292e-08
4.92509e-08
1.21035e-07
4.62991e-08
1.21496e-07
4.7778e-08
4.66e-08
4.74618e-08
4.86831e-08
4.99147e-08
1.25144e-07
4.91272e-08
0
4.90997e-08
2.34231e-08
7.42754e-09
4.89115e-08
0
5.07226e-08
5.239e-08
5.18062e-08
1.18387e-07
0
4.92472e-08
4.85417e-08
4.75781e-08
5.08135e-08
5.0229e-08
5.14444e-08
0
0
0
4.98346e-08
5.07709e-08
5.07709e-08
5.12443e-08
0
4.89501e-08
4.89559e-08
5.06433e-08
4.9932e-08
9.94963e-08
1.16529e-07
4.71152e-08
4.81752e-08
2.24636e-05
5.21064e-07
1.42401e-07
4.67203e-08
1.19475e-07
4.73044e-08
4.76037e-08
8.22501e-08
7.77302e-08
0
0
4.9648e-08
5.07316e-08
4.99839e-08
4.83166e-08
4.89479e-08
5.04691e-08
5.32262e-08
4.51073e-08
4.87106e-08
4.94871e-08
0
5.00741e-08
5.05929e-08
5.16809e-08
5.27206e-08
0
5.05798e-08
5.01259e-08
4.95615e-08
1.17739e-07
1.20086e-07
0
4.68206e-08
1.20154e-07
4.8246e-08
4.77162e-08
4.87802e-08
4.76523e-08
1.24036e-07
5.10276e-08
4.8748e-08
4.72301e-08
4.86154e-08
4.85885e-08
1.18847e-07
4.58388e-08
1.1324e-07
1.23178e-07
5.27055e-08
4.94646e-08
6.13275e-09
3.73053e-08
1.13327e-07
4.7225e-08
5.03252e-08
0
4.91771e-08
4.95266e-08
5.00201e-08
5.00839e-08
6.08209e-08
1.07281e-07
4.91656e-08
4.92546e-08
5.04512e-08
0
5.00659e-08
4.95036e-08
1.19863e-07
4.90813e-08
5.07467e-08
0
4.96662e-08
4.91963e-08
3.00178e-05
2.13574e-07
8.10505e-08
1.97569e-07
4.68101e-08
4.87539e-08
5.05143e-08
6.06211e-08
3.3725e-08
4.95103e-08
4.90842e-08
4.96028e-08
0
4.82753e-08
5.20959e-08
5.03881e-08
5.14251e-08
5.08935e-08
4.99641e-08
4.91874e-08
4.95382e-08
4.88928e-08
4.93284e-08
5.15342e-08
0
2.41435e-08
6.60199e-08
4.80088e-08
9.32182e-08
6.56314e-08
0
4.8363e-08
4.86026e-08
7.49739e-08
9.41203e-08
4.90965e-08
4.72289e-08
4.72303e-08
4.8018e-08
4.90947e-08
1.23812e-07
4.84878e-08
0
4.60859e-08
1.21249e-07
1.21198e-07
4.68454e-08
4.71917e-08
4.87254e-08
5.21893e-08
5.16437e-08
0
1.14967e-07
4.8835e-08
0
0
4.98307e-08
4.97878e-08
4.93963e-08
4.91848e-08
4.91102e-08
6.8894e-08
9.75019e-08
0
4.99138e-08
5.17745e-08
0
1.16667e-07
1.15961e-07
4.64172e-08
4.7844e-08
4.83366e-08
0
5.03404e-08
4.92502e-08
7.56048e-06
7.95633e-07
9.25017e-08
4.61342e-08
4.94707e-08
0
4.79685e-08
4.94286e-08
2.2769e-08
8.01558e-09
1.61041e-08
8.40173e-08
7.74084e-08
5.85203e-08
3.44002e-08
2.27948e-08
5.00688e-08
5.08143e-08
5.0601e-08
4.93493e-08
4.87941e-08
4.88423e-08
4.98837e-08
4.99119e-08
5.18542e-08
1.22273e-07
4.75675e-08
4.73484e-08
1.21975e-07
4.80746e-08
4.65522e-08
4.79971e-08
4.84679e-08
5.26719e-08
5.18601e-08
4.89e-08
4.77953e-08
4.8463e-08
1.16759e-07
4.84986e-08
4.95219e-08
4.946e-08
4.93564e-08
1.18697e-07
4.81891e-08
4.81425e-08
4.74355e-08
4.83091e-08
4.944e-08
5.04157e-08
5.03807e-08
4.9617e-08
4.95022e-08
0
5.14642e-08
5.21594e-08
5.13856e-08
4.81528e-08
4.69943e-08
4.83243e-08
4.92099e-08
4.94906e-08
5.04002e-08
0
7.141e-08
9.70744e-08
4.84633e-08
4.78626e-08
6.4323e-08
3.94238e-08
4.17965e-08
5.0881e-08
4.95823e-08
4.91787e-08
0
7.02992e-05
7.87605e-07
3.65319e-08
4.93363e-08
5.03268e-08
5.05173e-08
5.04433e-08
5.07221e-08
0
4.93519e-08
0
4.92823e-08
4.87737e-08
4.82082e-08
4.7235e-08
7.06138e-08
9.80036e-08
2.55105e-08
1.50178e-08
3.7982e-08
4.87899e-08
0
0
5.11647e-08
1.27833e-07
4.87318e-08
4.79781e-08
4.82873e-08
4.89532e-08
4.88786e-08
4.87603e-08
4.86217e-08
4.9998e-08
5.03124e-08
4.95329e-08
4.90525e-08
1.22491e-07
4.815e-08
4.77453e-08
7.03348e-08
9.09563e-08
4.86662e-08
4.98343e-08
5.01364e-08
4.86342e-08
4.88013e-08
5.02415e-08
5.00358e-08
5.01171e-08
4.99804e-08
5.01274e-08
4.88461e-08
4.90606e-08
0
1.24277e-07
7.04366e-09
1.0995e-07
4.74057e-08
4.70207e-08
5.01813e-08
2.553e-08
3.70006e-08
1.37433e-08
5.00437e-08
0
1.26467e-07
7.0263e-08
9.25813e-08
4.71623e-08
4.80637e-08
6.76786e-08
3.01053e-08
4.9176e-08
4.82374e-08
1.19728e-07
8.36864e-05
2.16773e-07
0
4.77969e-08
5.20755e-08
0
4.84615e-08
5.1276e-08
0
4.95478e-08
4.96636e-08
1.18015e-07
4.73775e-08
4.69448e-08
1.18201e-07
4.68758e-08
4.86388e-08
1.26264e-07
4.8485e-08
4.72662e-08
4.74626e-08
4.78299e-08
5.12632e-08
1.26282e-07
5.06885e-08
0
4.72179e-08
4.89757e-08
0
4.96068e-08
1.17763e-07
4.80855e-08
5.68828e-08
1.10348e-07
4.83954e-08
4.87345e-08
0
4.86922e-08
4.86208e-08
4.94864e-08
4.81649e-08
9.48268e-08
6.71944e-08
4.98771e-08
4.74983e-08
4.72708e-08
5.03847e-08
5.35342e-08
5.20547e-08
2.03553e-08
7.18297e-08
4.87032e-08
4.89984e-08
4.87737e-08
5.36742e-08
5.29071e-08
0
0
4.6236e-08
1.16054e-07
1.18176e-07
4.72292e-08
4.70643e-08
5.20492e-08
0
5.02262e-08
4.93424e-08
4.89635e-08
4.91138e-08
4.85824e-08
1.2408e-07
4.96639e-08
4.85401e-08
0
1.18699e-07
1.61423e-05
2.2186e-07
1.09367e-07
1.15501e-07
4.90316e-08
4.97446e-08
4.8863e-08
4.91574e-08
5.02896e-08
4.96078e-08
4.99292e-08
4.94254e-08
4.85307e-08
4.78401e-08
4.81946e-08
4.84579e-08
4.87527e-08
7.29635e-08
9.19917e-08
4.73541e-08
4.6171e-08
1.18507e-07
5.16833e-08
5.20482e-08
5.07621e-08
4.97154e-08
0
4.85202e-08
0
5.00016e-08
0
1.18027e-07
4.79928e-08
6.16952e-08
1.05226e-07
4.76309e-08
4.88598e-08
4.8971e-08
4.97059e-08
4.94201e-08
4.89685e-08
7.98039e-08
8.55662e-08
4.91137e-08
4.77255e-08
4.81134e-08
7.65177e-09
1.10258e-07
4.96325e-08
4.87214e-08
5.01952e-08
4.44059e-09
4.12231e-08
1.20417e-07
5.26186e-08
0
5.02989e-08
4.93969e-08
4.71209e-08
2.38102e-08
6.24631e-08
4.70213e-08
4.80273e-08
0
1.22806e-07
4.92479e-08
4.87612e-08
0
0
0
0
0
5.0462e-08
1.21789e-07
0
1.04394e-05
3.12237e-07
6.13784e-08
3.05421e-08
1.17343e-07
4.81469e-08
1.17277e-07
4.69112e-08
4.79726e-08
4.81792e-08
4.93782e-08
0
4.94491e-08
4.95055e-08
5.01191e-08
0
4.95318e-08
5.02989e-08
5.05844e-08
4.91368e-08
4.84732e-08
5.92885e-08
1.10551e-07
5.07971e-08
5.02824e-08
4.91587e-08
4.84506e-08
4.99139e-08
5.08199e-08
0
1.16529e-07
1.14313e-07
4.7611e-08
4.89887e-08
0
5.03002e-08
4.94319e-08
4.77238e-08
5.01819e-08
4.92049e-08
4.90618e-08
5.06143e-08
5.05935e-08
4.94342e-08
6.17996e-09
3.8956e-08
1.26303e-07
5.21478e-08
0
4.79071e-08
4.95412e-08
1.21617e-07
4.82281e-08
4.93207e-08
4.99307e-08
4.93922e-08
5.26679e-08
0
0
4.90388e-08
4.93772e-08
4.87431e-08
1.21458e-07
0
6.21275e-08
6.50299e-08
2.21326e-08
4.95891e-08
4.98066e-08
4.999e-08
4.93426e-08
4.91437e-08
1.24451e-07
0
2.15684e-07
8.36297e-05
5.90703e-07
9.47449e-08
4.93704e-08
4.89498e-08
1.19047e-07
4.76132e-08
1.18427e-07
4.62524e-08
4.90208e-08
4.97432e-08
4.84318e-08
5.0446e-08
0
5.00225e-08
4.94422e-08
4.97843e-08
4.98613e-08
5.05428e-08
4.98494e-08
5.00672e-08
5.02282e-08
5.03704e-08
4.98325e-08
4.88148e-08
4.92069e-08
4.94825e-08
1.25924e-07
4.95718e-08
1.14838e-07
4.6321e-08
4.61646e-08
4.54204e-08
5.08087e-08
4.95597e-08
4.91466e-08
0
4.93347e-08
9.18811e-08
6.11635e-09
4.98584e-08
0
4.99086e-08
0
5.04384e-08
5.03586e-08
5.03482e-08
5.02377e-08
5.02227e-08
5.12085e-08
4.95905e-08
1.2054e-07
4.78715e-08
4.84049e-08
4.92977e-08
4.96502e-08
4.98526e-08
5.23809e-08
0
1.14171e-07
0
5.00536e-08
5.08307e-08
5.15814e-08
0
0
4.75741e-08
1.21198e-07
4.89425e-08
1.17265e-07
4.63858e-08
0
4.77438e-08
4.95459e-08
0
7.60357e-06
6.01592e-07
0
4.9617e-08
4.94864e-08
5.42273e-08
1.14154e-07
8.616e-08
6.93486e-08
4.86286e-08
4.85662e-08
4.971e-08
0
5.12186e-08
5.03954e-08
4.96335e-08
4.9885e-08
5.015e-08
4.97397e-08
5.01181e-08
4.98941e-08
4.99832e-08
4.89371e-08
4.77094e-08
4.78707e-08
7.2241e-08
8.67921e-08
5.19783e-08
5.06278e-08
4.71231e-08
4.70461e-08
4.80203e-08
0
4.77622e-08
5.10589e-08
5.04381e-08
0
4.87082e-08
5.04254e-08
0
4.97575e-08
5.12973e-08
0
5.15071e-08
5.11765e-08
5.04103e-08
4.93782e-08
5.13944e-08
5.21129e-08
5.08041e-08
4.92831e-08
4.83908e-08
4.82339e-08
4.89703e-08
4.9626e-08
4.97403e-08
5.01133e-08
5.05229e-08
5.01111e-08
4.95467e-08
5.00325e-08
0
4.95627e-08
4.99872e-08
1.19067e-07
4.72722e-08
0
5.23541e-08
4.94368e-08
4.73568e-08
4.70008e-08
4.93449e-08
1.25479e-07
5.07236e-08
0
2.18559e-05
3.36835e-07
1.10544e-07
0
0
1.23919e-07
4.70898e-08
4.68653e-08
4.83943e-08
1.14917e-07
1.13165e-07
4.96509e-08
5.27684e-08
1.43371e-09
4.69316e-08
4.93004e-08
4.94646e-08
4.94419e-08
0
5.14434e-08
0
5.00578e-08
4.92098e-08
4.83921e-08
4.75121e-08
6.97917e-08
6.18771e-08
1.65916e-07
6.41441e-08
3.81285e-08
6.11659e-08
1.00708e-07
4.73831e-08
4.86658e-08
5.26647e-08
0
5.01279e-08
5.0864e-08
0
4.90091e-08
4.96797e-08
5.02945e-08
0
8.65109e-08
7.75055e-08
4.8215e-08
4.98765e-08
5.23909e-08
0
5.05648e-08
4.93338e-08
4.84894e-08
4.92436e-08
5.07722e-08
5.00088e-08
4.93158e-08
4.9201e-08
5.05555e-08
5.02567e-08
5.00669e-08
5.0721e-08
4.9501e-08
1.18582e-07
0
4.77153e-08
4.94903e-08
4.93066e-08
5.02409e-08
5.07201e-08
4.96942e-08
4.95674e-08
1.17028e-07
3.64281e-09