/*--------------------------------*- C++ -*----------------------------------*\
  =========                 |
  \\      /  F ield         | OpenFOAM: The Open Source CFD Toolbox
   \\    /   O peration     | Website:  https://openfoam.org
    \\  /    A nd           | Version:  12
     \\/     M anipulation  |
\*---------------------------------------------------------------------------*/
FoamFile
{
    format      ascii;
    class       volVectorField::Internal;
    location    "0.7";
    object      cloud:UTrans;
}
// * * * * * * * * * * * * * * * * * * * * * * * * * * * * * * * * * * * * * //

dimensions      [1 1 -1 0 0 0 0];

value           nonuniform List<vector> 
3750
(
(-4.23672e-09 4.60497e-08 0)
(2.20081e-09 5.53288e-09 0)
(7.47901e-10 -7.09974e-10 0)
(3.85948e-11 -1.5164e-09 0)
(8.22043e-11 -1.5577e-09 0)
(8.09427e-12 -1.67189e-09 0)
(-3.63159e-11 -1.60951e-09 0)
(5.22128e-11 -1.45615e-09 0)
(0 0 0)
(-6.03119e-11 -3.54549e-09 0)
(0 0 0)
(1.88348e-11 -1.72968e-09 0)
(2.24205e-11 -1.97801e-09 0)
(0 0 0)
(-2.80373e-11 -1.8123e-09 0)
(-1.49744e-11 -1.69975e-09 0)
(-1.97405e-11 -1.81784e-09 0)
(-5.94554e-13 -3.98828e-09 0)
(5.98804e-11 -1.5862e-09 0)
(-2.01736e-10 -3.87463e-09 0)
(7.15102e-11 -3.58663e-09 0)
(0 0 0)
(-1.56655e-11 -1.66352e-09 0)
(4.95769e-12 -1.68353e-09 0)
(-1.39896e-11 -1.71786e-09 0)
(2.13729e-11 -1.6193e-09 0)
(1.56189e-10 -3.78875e-09 0)
(0 0 0)
(1.68393e-11 -1.49208e-09 0)
(0 0 0)
(-2.97561e-12 -1.74539e-09 0)
(0 0 0)
(2.46421e-12 -3.84414e-09 0)
(5.68827e-11 -3.64568e-09 0)
(0 0 0)
(0 0 0)
(6.23482e-11 -1.89688e-09 0)
(0 0 0)
(3.07235e-11 -1.6978e-09 0)
(6.23473e-12 -1.65213e-09 0)
(0 0 0)
(-1.27758e-10 -3.89105e-09 0)
(-3.39693e-12 -3.33236e-09 0)
(2.02776e-12 -1.7586e-09 0)
(-1.0895e-11 -1.76536e-09 0)
(-4.36711e-11 -1.82608e-09 0)
(-1.37259e-10 -1.7721e-09 0)
(-1.10623e-10 -1.74068e-09 0)
(-1.55119e-10 -3.83512e-09 0)
(2.20376e-11 -3.06499e-09 0)
(-5.30147e-12 -1.53232e-09 0)
(-7.57849e-12 -1.61552e-09 0)
(2.35647e-10 -3.53379e-09 0)
(-1.60001e-11 -1.77684e-09 0)
(1.99994e-11 -1.75316e-09 0)
(1.22333e-11 -1.74263e-09 0)
(4.51551e-13 -1.80154e-09 0)
(-2.4439e-11 -1.81734e-09 0)
(-1.35464e-11 -3.98734e-09 0)
(4.71354e-11 -3.543e-09 0)
(-4.10247e-11 -1.5048e-09 0)
(-2.38829e-11 -3.82561e-09 0)
(0 0 0)
(-2.55467e-11 -6.34331e-10 0)
(-1.14334e-10 -2.10691e-09 0)
(-1.05687e-10 -3.91906e-09 0)
(4.902e-11 -1.51741e-09 0)
(-2.40952e-12 -1.52659e-09 0)
(-1.01445e-10 -1.63018e-09 0)
(7.17035e-14 -3.41136e-09 0)
(1.12898e-11 -1.8485e-09 0)
(0 0 0)
(-2.63184e-12 -1.72123e-09 0)
(1.50967e-11 -1.82022e-09 0)
(2.99242e-11 -1.87193e-09 0)
(-8.24112e-09 6.11054e-08 0)
(-3.09659e-09 5.41451e-09 0)
(2.60623e-10 -1.24146e-09 0)
(0 0 0)
(8.2816e-11 -3.79569e-09 0)
(0 0 0)
(2.67837e-11 -3.5811e-09 0)
(2.75381e-10 -4.11752e-09 0)
(1.72796e-10 -3.94953e-09 0)
(5.11724e-11 -1.58807e-09 0)
(6.62248e-11 -1.65668e-09 0)
(1.87469e-11 -1.68714e-09 0)
(0 0 0)
(1.22157e-11 -1.7566e-09 0)
(0 0 0)
(1.14088e-11 -1.78028e-09 0)
(0 0 0)
(1.16536e-11 -1.75591e-09 0)
(-9.13194e-11 -4.44188e-09 0)
(-6.11684e-11 -1.73847e-09 0)
(0 0 0)
(-1.61441e-11 -5.94634e-10 0)
(-2.28503e-11 -7.15645e-10 0)
(2.87901e-10 -3.27319e-09 0)
(1.16486e-10 -1.80505e-09 0)
(0 0 0)
(0 0 0)
(3.33276e-11 -1.69711e-09 0)
(4.59947e-11 -1.72697e-09 0)
(0 0 0)
(-4.3416e-11 -1.73719e-09 0)
(-3.54789e-11 -3.49266e-09 0)
(2.0831e-11 -1.8776e-09 0)
(1.08096e-10 -3.92922e-09 0)
(-2.43365e-11 -2.1653e-09 0)
(0 0 0)
(4.14941e-13 -3.42359e-11 0)
(2.23298e-11 -1.58217e-09 0)
(0 0 0)
(-1.85908e-11 -3.75161e-09 0)
(-1.1526e-10 -3.50322e-09 0)
(-1.31236e-10 -1.48045e-09 0)
(-1.05834e-10 -1.70734e-09 0)
(0 0 0)
(0 0 0)
(0 0 0)
(0 0 0)
(0 0 0)
(0 0 0)
(-4.64719e-12 -1.79104e-09 0)
(0 0 0)
(-4.00522e-11 -1.89346e-09 0)
(3.29408e-11 -1.86018e-09 0)
(1.14631e-10 -2.01545e-09 0)
(-6.5142e-11 -4.23054e-09 0)
(0 0 0)
(-3.25072e-11 -1.83743e-09 0)
(0 0 0)
(0 0 0)
(3.51162e-11 -2.05619e-09 0)
(-1.99904e-10 -2.61694e-09 0)
(-2.81842e-10 -2.66528e-09 0)
(-2.18066e-10 -4.41862e-09 0)
(-1.46519e-12 -2.55304e-10 0)
(-1.27266e-11 -1.34755e-09 0)
(4.54152e-11 -1.78213e-09 0)
(-8.99247e-11 -1.64446e-09 0)
(7.44896e-11 -3.4731e-09 0)
(2.4771e-12 -3.69697e-09 0)
(-2.32027e-11 -1.55443e-09 0)
(-1.77986e-11 -1.65341e-09 0)
(2.37976e-12 -1.65846e-09 0)
(2.58083e-11 -1.83308e-09 0)
(0 0 0)
(7.26475e-11 -1.86079e-09 0)
(6.11865e-09 6.95556e-08 0)
(1.95418e-09 9.73849e-09 0)
(6.66055e-10 -1.42014e-09 0)
(1.71348e-10 -1.39798e-09 0)
(6.25711e-11 -1.53735e-09 0)
(7.42643e-11 -1.64505e-09 0)
(-1.21125e-11 -1.71752e-09 0)
(-8.76059e-11 -1.72651e-09 0)
(3.80293e-11 -1.71276e-09 0)
(1.31335e-10 -1.59626e-09 0)
(2.02299e-10 -3.53045e-09 0)
(0 0 0)
(6.6181e-11 -4.40225e-09 0)
(3.95921e-12 -6.18816e-10 0)
(8.9058e-12 -2.58154e-09 0)
(0 0 0)
(-3.47292e-11 -1.761e-09 0)
(-1.61893e-10 -4.11946e-09 0)
(1.85264e-10 -4.54359e-09 0)
(1.00033e-10 -1.44754e-09 0)
(-2.87412e-11 -1.53336e-09 0)
(4.22042e-11 -1.69115e-09 0)
(0 0 0)
(6.38399e-11 -9.40385e-10 0)
(3.8735e-10 -3.97171e-09 0)
(3.97934e-11 -1.53138e-09 0)
(7.29771e-11 -1.80146e-09 0)
(0 0 0)
(1.2741e-11 -1.78014e-09 0)
(0 0 0)
(3.47685e-11 -1.71548e-09 0)
(0 0 0)
(3.15803e-11 -1.55171e-09 0)
(-1.62005e-11 -1.88157e-09 0)
(5.94677e-11 -2.4446e-09 0)
(-3.60144e-11 -1.16931e-09 0)
(0 0 0)
(6.16032e-11 -3.55881e-09 0)
(1.32935e-10 -1.75935e-09 0)
(8.21029e-12 -3.51613e-09 0)
(-1.69149e-11 -3.54565e-09 0)
(9.78629e-11 -1.41064e-09 0)
(1.18344e-10 -1.5992e-09 0)
(1.36882e-10 -1.68331e-09 0)
(5.62158e-11 -1.73871e-09 0)
(0 0 0)
(1.6215e-11 -1.74884e-09 0)
(-4.86717e-11 -1.80103e-09 0)
(-1.49205e-10 -1.66497e-09 0)
(-1.91638e-10 -3.45561e-09 0)
(-2.28385e-11 -1.58481e-09 0)
(0 0 0)
(-4.03301e-11 -1.73137e-09 0)
(8.32976e-11 -1.90045e-09 0)
(0 0 0)
(-4.33989e-11 -3.94019e-09 0)
(-1.69045e-10 -3.3497e-09 0)
(-4.91104e-11 -4.07622e-09 0)
(0 0 0)
(1.24343e-10 -4.84001e-09 0)
(-3.56809e-11 -1.55878e-09 0)
(0 0 0)
(-1.99673e-10 -3.71655e-09 0)
(1.20482e-10 -4.0495e-09 0)
(0 0 0)
(-9.87854e-11 -1.68818e-09 0)
(-5.64181e-11 -1.88296e-09 0)
(-3.12343e-12 -3.1146e-09 0)
(-6.61016e-11 -1.59192e-09 0)
(-2.07274e-11 -2.002e-09 0)
(-4.37956e-12 -3.41598e-09 0)
(0 0 0)
(-1.1413e-11 -1.69329e-09 0)
(-2.71166e-11 -1.85012e-09 0)
(4.52644e-11 -1.77107e-09 0)
(1.03598e-08 9.85459e-08 0)
(2.73205e-09 4.48225e-09 0)
(1.40307e-10 -1.34789e-09 0)
(0 0 0)
(3.02454e-10 -3.58757e-09 0)
(7.29337e-11 -3.90467e-09 0)
(-5.37077e-11 -1.48623e-09 0)
(-2.08701e-11 -1.48106e-09 0)
(-1.19102e-10 -1.48185e-09 0)
(-1.46256e-10 -3.39679e-09 0)
(-2.9573e-10 -5.32447e-09 0)
(-4.43112e-11 -3.16749e-09 0)
(-5.30364e-12 -1.61202e-09 0)
(1.77958e-10 -1.7254e-09 0)
(8.46397e-11 -1.57669e-09 0)
(2.48459e-11 -3.5147e-09 0)
(1.77606e-10 -3.95195e-09 0)
(0 0 0)
(2.94746e-10 -4.05079e-09 0)
(3.37763e-11 -1.73893e-09 0)
(0 0 0)
(1.01663e-11 -3.08354e-09 0)
(5.86156e-12 -3.09597e-10 0)
(3.24945e-12 -3.44134e-09 0)
(1.56823e-10 -1.78324e-09 0)
(0 0 0)
(1.00449e-10 -1.83894e-09 0)
(6.20171e-11 -1.92916e-09 0)
(-2.72134e-11 -1.74197e-09 0)
(0 0 0)
(9.03551e-11 -1.72329e-09 0)
(4.93675e-11 -1.63937e-09 0)
(-2.2198e-11 -3.77476e-09 0)
(2.76543e-11 -3.63643e-09 0)
(0 0 0)
(2.11554e-10 -1.7642e-09 0)
(1.10541e-10 -3.653e-09 0)
(1.7065e-10 -1.78189e-09 0)
(2.36357e-10 -3.47349e-09 0)
(1.77425e-10 -1.48788e-09 0)
(3.65035e-11 -1.64963e-09 0)
(1.87435e-10 -3.66853e-09 0)
(1.12124e-10 -1.64276e-09 0)
(5.5081e-11 -1.71313e-09 0)
(-8.67257e-11 -1.73152e-09 0)
(-6.32347e-11 -1.84241e-09 0)
(-1.522e-10 -3.62254e-09 0)
(-1.42713e-10 -3.44758e-09 0)
(-1.35351e-11 -2.33494e-09 0)
(-4.34271e-11 -1.71e-09 0)
(-3.63446e-11 -1.66923e-09 0)
(5.31374e-12 -1.51021e-09 0)
(-5.36569e-11 -1.54781e-09 0)
(3.60127e-11 -4.12178e-09 0)
(4.48658e-11 -1.6796e-09 0)
(-1.45783e-10 -1.61444e-09 0)
(0 0 0)
(-1.62795e-11 -7.65733e-10 0)
(-9.58045e-11 -2.68379e-09 0)
(0 0 0)
(-1.80523e-11 -1.74993e-09 0)
(-2.41469e-11 -3.63209e-09 0)
(-7.36796e-11 -1.63497e-09 0)
(3.91301e-11 -1.77661e-09 0)
(-7.35392e-11 -1.5977e-09 0)
(4.90389e-11 -1.56576e-09 0)
(-1.11913e-10 -1.5823e-09 0)
(-2.73717e-10 -3.74436e-09 0)
(-1.02161e-10 -1.53491e-09 0)
(-8.2849e-11 -1.63617e-09 0)
(-1.9613e-11 -1.57422e-09 0)
(2.16817e-11 -1.71028e-09 0)
(0 0 0)
(1.92577e-11 -1.72646e-09 0)
(7.41655e-11 -1.77215e-09 0)
(1.18519e-08 1.02052e-07 0)
(5.50555e-09 1.25039e-08 0)
(2.42432e-11 -7.53663e-10 0)
(1.43827e-10 -1.66075e-09 0)
(7.19927e-11 -1.7228e-09 0)
(-1.18511e-11 -1.70396e-09 0)
(1.82173e-11 -1.79897e-09 0)
(-6.4163e-11 -1.85641e-09 0)
(-9.08943e-11 -1.59818e-09 0)
(0 0 0)
(0 0 0)
(-6.48714e-11 -1.70414e-09 0)
(-7.76314e-11 -1.6695e-09 0)
(-7.93367e-12 -4.27043e-09 0)
(3.48888e-11 -1.61345e-09 0)
(3.2092e-11 -1.54635e-09 0)
(4.77392e-11 -1.74256e-09 0)
(1.47465e-10 -1.96234e-09 0)
(3.01357e-11 -1.9837e-09 0)
(0 0 0)
(7.22037e-11 -1.78117e-09 0)
(8.14775e-11 -1.62998e-09 0)
(1.22795e-10 -1.66749e-09 0)
(-1.23508e-11 -1.56995e-09 0)
(9.52153e-12 -1.94072e-09 0)
(4.20626e-11 -9.27341e-10 0)
(3.10337e-11 -2.29384e-09 0)
(5.63957e-12 -1.61213e-09 0)
(3.74011e-11 -1.47563e-09 0)
(3.9281e-11 -1.53364e-09 0)
(-2.71104e-11 -1.5386e-09 0)
(1.7068e-10 -4.22469e-09 0)
(-1.6335e-11 -1.65161e-09 0)
(-1.36575e-11 -1.663e-09 0)
(6.46831e-11 -1.78325e-09 0)
(2.37941e-10 -4.65907e-09 0)
(1.19303e-10 -1.5938e-09 0)
(1.78823e-10 -1.54182e-09 0)
(1.48495e-10 -1.89157e-09 0)
(0 0 0)
(3.11991e-10 -4.29138e-09 0)
(0 0 0)
(6.12719e-11 -3.86772e-09 0)
(9.70219e-11 -1.64764e-09 0)
(-3.48034e-11 -2.82473e-09 0)
(3.49798e-11 -2.78891e-09 0)
(-1.37121e-11 -3.1395e-09 0)
(4.92946e-12 -1.15363e-09 0)
(-1.25431e-10 -1.37772e-09 0)
(-7.19634e-11 -1.59411e-09 0)
(-7.61513e-11 -1.62824e-09 0)
(-1.83093e-11 -1.56382e-09 0)
(-6.33635e-11 -2.61375e-09 0)
(-2.0013e-10 -2.40509e-09 0)
(9.03403e-11 -4.37085e-09 0)
(0 0 0)
(-1.19885e-10 -1.88297e-09 0)
(0 0 0)
(-1.28697e-10 -1.70308e-09 0)
(-2.41903e-11 -1.80644e-09 0)
(-4.4422e-11 -4.01074e-09 0)
(-4.29796e-11 -1.57017e-09 0)
(-3.13388e-11 -1.57216e-09 0)
(-1.87711e-11 -4.21414e-09 0)
(4.22009e-12 -1.63731e-09 0)
(-8.44419e-11 -1.86013e-09 0)
(-8.82019e-11 -1.70341e-09 0)
(-1.32572e-10 -1.70273e-09 0)
(-5.23022e-11 -1.75953e-09 0)
(0 0 0)
(9.86445e-11 -1.69658e-09 0)
(2.32569e-11 -1.79578e-09 0)
(0 0 0)
(2.10818e-11 -1.69482e-09 0)
(0 0 0)
(1.1015e-08 9.18224e-08 0)
(3.36292e-09 1.17931e-08 0)
(1.24684e-10 -1.11011e-09 0)
(1.17415e-10 -1.797e-09 0)
(1.19941e-11 -1.69414e-09 0)
(-2.33543e-11 -1.71607e-09 0)
(8.06696e-11 -3.91879e-09 0)
(0 0 0)
(-1.47514e-10 -1.67093e-09 0)
(-1.58416e-10 -1.68961e-09 0)
(-9.60242e-11 -1.67723e-09 0)
(3.06889e-11 -3.82889e-09 0)
(-1.37584e-11 -1.79309e-09 0)
(-7.57479e-11 -1.78402e-09 0)
(-3.46239e-11 -1.61262e-09 0)
(7.03349e-13 -1.6284e-09 0)
(-1.3596e-12 -1.94362e-09 0)
(-7.09271e-11 -2.04578e-09 0)
(4.12457e-11 -1.87523e-09 0)
(1.18369e-10 -2.09344e-09 0)
(0 0 0)
(8.2283e-11 -1.37142e-09 0)
(1.74136e-10 -4.2061e-09 0)
(8.38993e-11 -1.51944e-09 0)
(1.22543e-10 -1.61431e-09 0)
(1.27273e-10 -1.96089e-09 0)
(1.00115e-10 -3.73307e-09 0)
(3.22228e-11 -1.61111e-09 0)
(9.24696e-11 -1.56521e-09 0)
(1.36542e-10 -1.62895e-09 0)
(-1.17435e-10 -1.72417e-09 0)
(-1.05204e-10 -1.83228e-09 0)
(0 0 0)
(0 0 0)
(-3.37531e-11 -1.97204e-09 0)
(6.51227e-11 -1.87464e-09 0)
(0 0 0)
(0 0 0)
(0 0 0)
(0 0 0)
(0 0 0)
(2.65979e-10 -3.97999e-09 0)
(0 0 0)
(-2.84898e-11 -1.70857e-09 0)
(-1.51308e-10 -1.79718e-09 0)
(-1.31384e-10 -1.67013e-09 0)
(1.45062e-11 -1.43452e-09 0)
(-4.39557e-11 -1.77065e-09 0)
(-8.40835e-11 -1.59995e-09 0)
(-1.39483e-10 -1.5077e-09 0)
(-1.17016e-10 -1.55949e-09 0)
(-9.80162e-11 -1.59837e-09 0)
(-1.9853e-10 -2.98318e-09 0)
(-1.14031e-10 -1.94203e-09 0)
(-2.21733e-11 -2.54944e-09 0)
(3.61066e-11 -1.78246e-09 0)
(-7.48591e-12 -1.66948e-09 0)
(0 0 0)
(-3.33241e-11 -1.80628e-09 0)
(-3.3894e-12 -1.79185e-09 0)
(0 0 0)
(3.18955e-11 -1.73278e-09 0)
(6.48074e-11 -1.51457e-09 0)
(-2.14815e-11 -1.70244e-09 0)
(-3.46209e-12 -2.81286e-09 0)
(8.54907e-12 -2.95297e-09 0)
(0 0 0)
(-6.43316e-11 -1.69552e-09 0)
(0 0 0)
(4.67212e-11 -1.72895e-09 0)
(0 0 0)
(2.89132e-11 -1.74573e-09 0)
(7.48832e-11 -1.79786e-09 0)
(-2.43456e-11 -1.80409e-09 0)
(0 0 0)
(1.05882e-08 8.3008e-08 0)
(1.97208e-09 3.62002e-09 0)
(1.25764e-10 -1.77281e-10 0)
(3.51662e-10 -3.95428e-09 0)
(1.60161e-11 -1.62316e-09 0)
(4.63901e-11 -1.61586e-09 0)
(5.66109e-11 -1.83821e-09 0)
(0 0 0)
(6.04805e-12 -1.6187e-09 0)
(2.10166e-11 -1.62254e-09 0)
(-9.32669e-12 -1.63813e-09 0)
(0 0 0)
(5.25675e-11 -1.83107e-09 0)
(1.96889e-11 -1.7877e-09 0)
(-7.2051e-11 -1.58066e-09 0)
(-1.0426e-10 -1.54212e-09 0)
(8.88442e-12 -2.062e-09 0)
(0 0 0)
(1.31782e-10 -1.80231e-09 0)
(5.22442e-12 -1.88182e-09 0)
(4.92032e-11 -8.60304e-10 0)
(5.67547e-11 -2.0757e-09 0)
(2.09585e-11 -1.70691e-09 0)
(1.60514e-12 -1.66022e-09 0)
(1.35868e-11 -3.93358e-09 0)
(7.27536e-11 -1.45307e-09 0)
(6.58071e-11 -4.29087e-09 0)
(0 0 0)
(0 0 0)
(6.03209e-12 -1.73953e-09 0)
(-4.44839e-11 -1.76728e-09 0)
(0 0 0)
(7.14702e-11 -1.72488e-09 0)
(6.82003e-11 -1.76072e-09 0)
(-2.11384e-10 -3.80631e-09 0)
(-3.7994e-11 -1.62365e-09 0)
(1.4853e-10 -3.76098e-09 0)
(1.85586e-10 -1.6463e-09 0)
(3.67164e-10 -4.03546e-09 0)
(8.31268e-11 -1.6083e-09 0)
(1.43771e-10 -3.86915e-09 0)
(-8.68565e-11 -3.95896e-09 0)
(-1.44195e-10 -4.13328e-09 0)
(3.54972e-11 -1.78003e-09 0)
(0 0 0)
(5.40399e-11 -1.73243e-09 0)
(-5.15643e-12 -1.61429e-09 0)
(-2.03441e-11 -1.54563e-09 0)
(-2.30343e-11 -1.51952e-09 0)
(-5.77665e-11 -1.62095e-09 0)
(-6.58124e-11 -1.54607e-09 0)
(-9.76482e-11 -1.58668e-09 0)
(-1.5998e-10 -1.72364e-09 0)
(-9.2593e-11 -1.66405e-09 0)
(-9.30535e-11 -1.84885e-09 0)
(2.23709e-11 -1.82652e-09 0)
(4.58906e-11 -1.68973e-09 0)
(4.21142e-11 -1.64099e-09 0)
(4.65113e-11 -1.88662e-09 0)
(-8.78618e-11 -1.64879e-09 0)
(5.08919e-11 -1.80469e-09 0)
(-2.59982e-11 -3.15652e-09 0)
(2.97742e-10 -4.34e-09 0)
(1.09486e-10 -1.46264e-09 0)
(-3.71964e-11 -2.70963e-09 0)
(4.16275e-11 -3.26721e-09 0)
(0 0 0)
(1.37438e-11 -1.69574e-09 0)
(7.19917e-11 -1.72406e-09 0)
(1.12235e-10 -1.73255e-09 0)
(8.8253e-11 -1.80384e-09 0)
(0 0 0)
(4.7042e-11 -1.75766e-09 0)
(4.27845e-11 -1.65105e-09 0)
(2.98717e-11 -1.66155e-09 0)
(2.26047e-08 6.59089e-08 0)
(1.617e-09 4.36554e-09 0)
(-4.14779e-10 -2.29529e-09 0)
(1.94984e-11 -1.9705e-09 0)
(0 0 0)
(0 0 0)
(6.93954e-11 -1.78691e-09 0)
(3.00138e-11 -7.18659e-10 0)
(9.7191e-11 -1.90743e-09 0)
(4.61067e-12 -1.74112e-09 0)
(0 0 0)
(-2.00363e-11 -1.60312e-09 0)
(3.49079e-13 -1.77857e-09 0)
(-2.79932e-11 -4.39666e-09 0)
(-2.1696e-11 -1.71242e-09 0)
(-5.47103e-11 -1.59648e-09 0)
(3.22266e-12 -1.717e-09 0)
(1.30129e-10 -1.96682e-09 0)
(1.60602e-11 -4.47532e-10 0)
(4.36463e-11 -1.2478e-09 0)
(1.25707e-10 -1.76382e-09 0)
(1.313e-10 -1.65918e-09 0)
(0 0 0)
(-4.00257e-11 -1.68778e-09 0)
(-3.47512e-13 -1.63072e-09 0)
(1.51989e-10 -3.64685e-09 0)
(0 0 0)
(1.96024e-10 -1.80269e-09 0)
(2.13331e-10 -1.6942e-09 0)
(9.09099e-11 -1.90708e-09 0)
(0 0 0)
(8.91798e-11 -1.69315e-09 0)
(1.93167e-10 -6.11922e-09 0)
(-2.51856e-11 -1.5895e-09 0)
(0 0 0)
(-1.11593e-11 -1.70616e-09 0)
(3.20145e-11 -1.6608e-09 0)
(4.54671e-11 -1.58583e-09 0)
(4.45812e-11 -1.59681e-09 0)
(1.27171e-10 -1.9474e-09 0)
(3.94787e-11 -1.85953e-09 0)
(-5.68788e-11 -1.84586e-09 0)
(0 0 0)
(2.19862e-11 -1.72164e-09 0)
(1.07237e-10 -1.76188e-09 0)
(5.52876e-11 -1.66883e-09 0)
(-6.87174e-12 -2.52871e-09 0)
(1.08219e-10 -2.62924e-09 0)
(1.61632e-11 -1.69774e-09 0)
(-8.83152e-11 -3.51386e-09 0)
(-7.58336e-11 -1.50227e-09 0)
(-9.53401e-11 -1.59852e-09 0)
(-3.32038e-10 -1.74978e-09 0)
(-9.79425e-11 -1.76259e-09 0)
(-1.05824e-10 -1.77013e-09 0)
(4.28985e-11 -1.65811e-09 0)
(2.79775e-11 -1.70651e-09 0)
(-4.12733e-11 -1.65148e-09 0)
(-1.08814e-10 -4.31541e-09 0)
(-2.0883e-12 -2.35539e-10 0)
(-1.2342e-11 -1.27261e-09 0)
(1.23059e-10 -1.52086e-09 0)
(-9.13369e-11 -1.79674e-09 0)
(-5.20709e-11 -1.88193e-09 0)
(0 0 0)
(-1.52509e-11 -1.92379e-09 0)
(7.63849e-11 -1.97152e-09 0)
(9.92701e-11 -1.80433e-09 0)
(1.74375e-10 -1.79589e-09 0)
(8.14055e-11 -1.78276e-09 0)
(4.37042e-11 -1.71198e-09 0)
(7.42038e-11 -3.64317e-09 0)
(1.00494e-10 -1.54309e-09 0)
(5.45032e-11 -1.87922e-09 0)
(1.07636e-10 -2.17803e-09 0)
(3.7826e-09 4.69132e-08 0)
(-1.73391e-09 -5.35891e-10 0)
(-3.85204e-10 2.47673e-09 0)
(3.47235e-10 -4.20536e-09 0)
(1.30843e-10 -1.67173e-09 0)
(3.23477e-11 -1.73731e-09 0)
(9.42918e-11 -1.63669e-09 0)
(5.78646e-11 -1.73159e-09 0)
(3.69634e-11 -1.78326e-09 0)
(6.8029e-12 -1.80178e-09 0)
(-2.19584e-11 -5.92503e-10 0)
(0 0 0)
(-6.79196e-11 -1.68601e-09 0)
(4.67983e-11 -2.01551e-09 0)
(0 0 0)
(0 0 0)
(3.93867e-11 -1.83744e-09 0)
(0 0 0)
(5.39907e-11 -2.11404e-09 0)
(-3.09777e-11 -1.72201e-09 0)
(0 0 0)
(1.22568e-10 -3.05467e-09 0)
(4.68131e-11 -2.50846e-09 0)
(-2.43952e-11 -3.56141e-09 0)
(1.15341e-11 -3.4045e-09 0)
(-4.20927e-11 -1.55478e-09 0)
(5.10459e-11 -1.68349e-09 0)
(6.84788e-11 -1.71767e-09 0)
(7.31331e-11 -1.70016e-09 0)
(1.11767e-10 -1.78958e-09 0)
(5.19773e-11 -1.70603e-09 0)
(-7.60325e-11 -1.40952e-09 0)
(2.23404e-11 -4.26882e-09 0)
(-7.56295e-11 -1.64856e-09 0)
(-5.26986e-11 -2.18218e-09 0)
(-5.96425e-11 -2.8698e-09 0)
(3.16334e-11 -1.7525e-09 0)
(-9.27566e-13 -5.10218e-10 0)
(-6.96279e-13 -6.76574e-10 0)
(7.7998e-12 -1.75966e-09 0)
(3.26699e-11 -1.96476e-09 0)
(-1.83254e-10 -1.96021e-09 0)
(-4.58146e-11 -2.30406e-09 0)
(-1.90968e-11 -3.43413e-09 0)
(1.69098e-12 -2.05613e-09 0)
(1.08184e-11 -6.32398e-10 0)
(7.30816e-12 -1.15739e-09 0)
(-2.50996e-11 -2.30932e-09 0)
(-5.1171e-12 -3.10936e-09 0)
(-5.90496e-11 -1.57767e-09 0)
(-4.06548e-11 -1.36049e-09 0)
(-9.32213e-11 -1.83405e-09 0)
(0 0 0)
(3.76563e-11 -3.66601e-09 0)
(-6.4644e-12 -1.59415e-09 0)
(3.80549e-11 -1.69592e-09 0)
(5.65133e-11 -1.77857e-09 0)
(-7.02197e-11 -1.76743e-09 0)
(-1.89313e-10 -2.92196e-09 0)
(-9.90725e-13 -3.83974e-10 0)
(-2.35838e-11 -1.67835e-09 0)
(2.39995e-11 -1.82375e-09 0)
(0 0 0)
(-8.11874e-11 -1.90638e-09 0)
(1.01482e-11 -1.83212e-09 0)
(8.76403e-12 -1.87578e-09 0)
(-3.46374e-11 -1.71169e-09 0)
(-3.00075e-12 -1.70223e-09 0)
(1.97081e-10 -4.45279e-09 0)
(-3.04027e-11 -1.65392e-09 0)
(6.54777e-11 -1.47783e-09 0)
(-1.86838e-11 -1.60458e-09 0)
(1.68758e-10 -4.07391e-09 0)
(7.33083e-11 -2.1526e-09 0)
(1.83862e-10 -2.86277e-09 0)
(-1.00418e-08 5.41532e-08 0)
(-1.64589e-09 4.50193e-09 0)
(-1.93575e-12 -2.03012e-09 0)
(5.79586e-11 -1.88688e-09 0)
(0 0 0)
(1.27261e-10 -1.78311e-09 0)
(1.97313e-10 -1.69116e-09 0)
(0 0 0)
(2.20705e-10 -1.86428e-09 0)
(0 0 0)
(-2.89555e-11 -6.69195e-10 0)
(0 0 0)
(0 0 0)
(-6.73218e-11 -1.64455e-09 0)
(1.50224e-10 -1.86335e-09 0)
(8.25744e-11 -1.79607e-09 0)
(0 0 0)
(7.10083e-11 -1.7585e-09 0)
(6.84536e-11 -1.84891e-09 0)
(0 0 0)
(1.59111e-10 -3.54106e-09 0)
(-9.89613e-11 -4.28243e-09 0)
(-2.25104e-11 -1.77232e-09 0)
(0 0 0)
(0 0 0)
(2.07336e-11 -1.70568e-09 0)
(-4.82763e-12 -1.61185e-09 0)
(-7.75242e-12 -2.45099e-09 0)
(3.45119e-11 -2.50538e-09 0)
(-1.70058e-10 -6.54562e-09 0)
(-2.01327e-11 -3.12023e-09 0)
(-6.39962e-12 -1.27246e-09 0)
(-2.24595e-11 -2.09606e-09 0)
(5.1172e-11 -1.79572e-09 0)
(0 0 0)
(3.98606e-11 -1.50431e-09 0)
(-4.08624e-12 -2.32721e-09 0)
(-1.44162e-11 -1.49559e-09 0)
(6.42307e-11 -3.63437e-09 0)
(-8.90004e-13 -2.5323e-09 0)
(-7.53543e-11 -3.34534e-09 0)
(0 0 0)
(1.36156e-11 -1.72831e-09 0)
(1.04946e-11 -1.66798e-09 0)
(0 0 0)
(8.11989e-11 -1.8062e-09 0)
(5.07177e-12 -1.74213e-09 0)
(-3.72753e-11 -1.67824e-09 0)
(-4.89614e-11 -1.85192e-09 0)
(-7.69791e-11 -1.86886e-09 0)
(-8.70201e-11 -1.70487e-09 0)
(-7.64173e-11 -1.86518e-09 0)
(-4.28288e-11 -1.86715e-09 0)
(-3.96592e-11 -1.67629e-09 0)
(-4.76926e-11 -1.66654e-09 0)
(4.93542e-11 -1.77729e-09 0)
(-7.08807e-11 -4.4407e-09 0)
(-1.16827e-10 -1.67506e-09 0)
(-5.17788e-11 -1.57259e-09 0)
(-2.26863e-11 -1.61324e-09 0)
(-4.02545e-11 -1.5941e-09 0)
(-3.20975e-11 -1.78775e-09 0)
(1.45229e-12 -1.92311e-09 0)
(0 0 0)
(8.99465e-11 -1.81078e-09 0)
(-7.44659e-11 -1.86801e-09 0)
(-7.17282e-11 -1.84664e-09 0)
(-2.03637e-10 -1.7337e-09 0)
(-1.67015e-10 -4.47094e-09 0)
(9.42008e-12 -1.61942e-09 0)
(7.93911e-11 -1.42999e-09 0)
(-8.8464e-11 -3.42013e-09 0)
(-1.24174e-10 -3.53446e-09 0)
(1.17699e-10 -3.57747e-09 0)
(1.06978e-10 -3.63291e-09 0)
(-8.54895e-09 7.56135e-08 0)
(-2.4781e-09 9.18585e-10 0)
(-8.01868e-10 9.4794e-10 0)
(2.1372e-10 -4.23483e-09 0)
(1.1983e-10 -1.68968e-09 0)
(7.8863e-11 -1.76732e-09 0)
(1.09198e-10 -2.01692e-09 0)
(0 0 0)
(7.85444e-11 -7.45619e-10 0)
(2.72102e-10 -2.59957e-09 0)
(1.09126e-10 -1.64008e-09 0)
(1.42539e-10 -1.59138e-09 0)
(1.92983e-10 -3.79366e-09 0)
(1.26539e-10 -1.53555e-09 0)
(3.70816e-10 -3.97133e-09 0)
(1.01347e-10 -2.42613e-09 0)
(7.21875e-11 -2.59564e-09 0)
(2.66429e-11 -1.5514e-09 0)
(1.7135e-11 -1.64126e-09 0)
(4.58902e-11 -1.99735e-09 0)
(-2.84703e-12 -3.55797e-09 0)
(0 0 0)
(3.00579e-11 -5.3434e-10 0)
(4.53467e-11 -7.46028e-10 0)
(9.13945e-11 -3.67391e-09 0)
(-5.55205e-11 -3.53132e-09 0)
(-1.33828e-10 -4.82686e-09 0)
(-1.51485e-11 -2.31046e-09 0)
(0 0 0)
(-8.75767e-11 -1.70414e-09 0)
(8.88557e-11 -1.55872e-09 0)
(3.40367e-11 -1.45511e-09 0)
(1.31075e-11 -2.14405e-09 0)
(0 0 0)
(9.10002e-11 -1.7674e-09 0)
(0 0 0)
(-1.53736e-12 -2.69434e-09 0)
(-1.52669e-11 -1.6028e-09 0)
(-1.0756e-11 -1.62523e-09 0)
(-5.65615e-12 -2.28527e-09 0)
(-2.45848e-11 -3.51577e-09 0)
(1.69196e-11 -3.14607e-10 0)
(6.64355e-11 -1.15401e-09 0)
(5.78749e-11 -1.68264e-09 0)
(5.92317e-11 -1.79068e-09 0)
(-3.9948e-12 -2.91012e-09 0)
(-4.29662e-11 -2.62246e-09 0)
(-3.86203e-11 -1.61499e-09 0)
(1.24702e-11 -1.98282e-09 0)
(0 0 0)
(-9.97338e-11 -1.73053e-09 0)
(-1.04478e-10 -1.7633e-09 0)
(-5.50843e-11 -1.71478e-09 0)
(-1.62758e-10 -2.98619e-09 0)
(-8.17542e-11 -2.33872e-09 0)
(-4.61996e-11 -1.69135e-09 0)
(-1.1433e-10 -1.8579e-09 0)
(-5.67364e-11 -1.754e-09 0)
(-3.08428e-11 -1.68794e-09 0)
(-9.21652e-12 -1.72028e-09 0)
(-3.36756e-11 -1.66802e-09 0)
(-3.82759e-11 -1.78175e-09 0)
(0 0 0)
(9.41907e-11 -1.6036e-09 0)
(4.07987e-11 -1.96679e-09 0)
(6.31725e-11 -2.23203e-09 0)
(-9.99995e-12 -8.537e-10 0)
(-8.02436e-12 -5.30656e-10 0)
(0 0 0)
(-2.60377e-11 -3.36143e-09 0)
(1.96612e-11 -1.86966e-09 0)
(-8.92359e-11 -1.66004e-09 0)
(-1.39183e-10 -3.01576e-09 0)
(-1.16037e-10 -2.29879e-09 0)
(-1.5988e-10 -4.18277e-09 0)
(-1.15889e-08 6.24965e-08 0)
(5.63681e-10 8.71473e-09 0)
(4.73837e-11 -7.62271e-10 0)
(4.96113e-12 -1.65904e-09 0)
(0 0 0)
(-3.27083e-11 -1.84885e-09 0)
(-7.7068e-12 -1.78135e-09 0)
(2.07067e-10 -1.88304e-09 0)
(2.27109e-10 -3.79486e-09 0)
(1.19709e-10 -1.79081e-09 0)
(1.01696e-10 -1.74594e-09 0)
(1.33238e-10 -3.73036e-09 0)
(1.84538e-11 -1.42428e-09 0)
(9.70113e-12 -1.46151e-09 0)
(3.67449e-11 -4.32607e-09 0)
(1.12446e-10 -1.68879e-09 0)
(6.88795e-11 -1.65665e-09 0)
(5.79024e-11 -1.64664e-09 0)
(1.53792e-10 -3.95204e-09 0)
(1.38189e-11 -1.59082e-09 0)
(6.16847e-12 -1.58302e-09 0)
(7.36786e-11 -1.67697e-09 0)
(6.35655e-11 -1.82288e-09 0)
(7.48397e-11 -3.89687e-09 0)
(-1.16129e-10 -1.64872e-09 0)
(-1.86341e-11 -1.49417e-09 0)
(-7.98211e-12 -1.72842e-10 0)
(-5.69286e-11 -1.19319e-09 0)
(-2.9074e-11 -1.59515e-09 0)
(0 0 0)
(-6.47145e-12 -1.70973e-09 0)
(0 0 0)
(-4.49249e-11 -3.97338e-09 0)
(1.04157e-10 -1.86522e-09 0)
(8.74317e-11 -1.74227e-09 0)
(5.51468e-11 -1.62268e-09 0)
(5.59911e-11 -1.68931e-09 0)
(1.60658e-11 -1.7503e-09 0)
(1.99517e-11 -1.76169e-09 0)
(1.48087e-11 -1.75083e-09 0)
(2.49062e-11 -1.79503e-09 0)
(4.338e-11 -1.75854e-09 0)
(7.03417e-11 -1.67871e-09 0)
(2.93892e-11 -1.68378e-09 0)
(8.09581e-11 -1.78196e-09 0)
(7.404e-12 -1.88951e-09 0)
(1.40899e-11 -1.60663e-09 0)
(-8.87735e-12 -1.55751e-09 0)
(3.76064e-11 -1.67331e-09 0)
(4.84928e-11 -1.84572e-09 0)
(-3.98798e-11 -1.77949e-09 0)
(-1.22233e-11 -1.72993e-09 0)
(-2.05298e-11 -1.73419e-09 0)
(-9.28264e-11 -1.76069e-09 0)
(-1.2935e-10 -2.72317e-09 0)
(-8.75657e-11 -2.74736e-09 0)
(-6.74309e-11 -1.70755e-09 0)
(-6.33771e-12 -1.60627e-09 0)
(-1.2773e-11 -1.73138e-09 0)
(-1.00763e-11 -4.34298e-10 0)
(-2.06862e-11 -8.20307e-10 0)
(-8.07326e-11 -1.76377e-09 0)
(0 0 0)
(-6.42424e-11 -3.66166e-09 0)
(1.13921e-10 -1.7743e-09 0)
(-6.44407e-11 -4.52386e-09 0)
(1.04609e-10 -2.06968e-09 0)
(0 0 0)
(-1.05347e-10 -3.46603e-09 0)
(-9.87915e-11 -1.63314e-09 0)
(-1.02616e-10 -1.75281e-09 0)
(0 0 0)
(-7.14986e-11 -1.74264e-09 0)
(-1.56116e-10 -1.83706e-09 0)
(-1.81207e-10 -1.86977e-09 0)
(-3.00103e-09 8.84292e-08 0)
(9.98753e-10 2.97095e-09 0)
(-4.86534e-10 5.60351e-10 0)
(1.0998e-10 -1.79235e-09 0)
(1.06106e-10 -1.64549e-09 0)
(1.38597e-10 -1.71691e-09 0)
(0 0 0)
(3.31982e-10 -4.00705e-09 0)
(5.57532e-11 -1.65978e-09 0)
(7.96664e-11 -1.66505e-09 0)
(2.63472e-10 -2.83085e-09 0)
(1.43052e-10 -2.29517e-09 0)
(3.50411e-11 -1.59676e-09 0)
(-1.12892e-11 -1.60802e-09 0)
(-1.86843e-11 -1.71857e-09 0)
(9.3714e-11 -1.73981e-09 0)
(1.1324e-10 -3.08753e-09 0)
(8.66532e-11 -2.28273e-09 0)
(1.01203e-11 -1.60656e-09 0)
(1.40419e-11 -1.63522e-09 0)
(2.02873e-11 -1.5959e-09 0)
(-8.07438e-11 -3.83257e-09 0)
(-4.69461e-11 -1.6845e-09 0)
(9.37855e-11 -3.14512e-09 0)
(4.65058e-12 -1.60304e-10 0)
(-1.04333e-10 -1.70734e-09 0)
(-3.53166e-11 -1.65229e-09 0)
(-6.73043e-11 -1.69336e-09 0)
(0 0 0)
(-2.0229e-11 -3.64618e-09 0)
(2.95582e-11 -1.52556e-09 0)
(0 0 0)
(2.44644e-11 -1.8001e-09 0)
(4.91093e-12 -1.78593e-09 0)
(-1.54195e-11 -3.68893e-09 0)
(1.21133e-10 -1.86181e-09 0)
(6.27921e-11 -1.91307e-09 0)
(4.23718e-11 -1.80202e-09 0)
(-2.78533e-11 -1.67704e-09 0)
(-1.54427e-11 -1.65211e-09 0)
(-8.27301e-14 -1.68229e-09 0)
(7.69083e-13 -1.74109e-09 0)
(7.49698e-11 -1.74168e-09 0)
(4.60339e-11 -1.72438e-09 0)
(2.22984e-11 -1.79621e-09 0)
(-2.1071e-11 -1.81806e-09 0)
(1.89652e-11 -4.0416e-09 0)
(4.1677e-12 -1.50053e-09 0)
(-1.0302e-11 -1.60496e-09 0)
(2.57364e-11 -1.80822e-09 0)
(-6.54162e-11 -1.87899e-09 0)
(-2.99661e-11 -1.95767e-09 0)
(6.60335e-12 -1.51434e-09 0)
(-6.31251e-11 -1.80871e-09 0)
(-1.08783e-10 -1.69583e-09 0)
(-1.79259e-10 -2.96721e-09 0)
(9.26547e-12 -2.52163e-09 0)
(1.9772e-11 -1.53391e-09 0)
(1.72008e-11 -1.58356e-09 0)
(1.84341e-11 -1.65645e-09 0)
(6.70981e-13 -1.60114e-09 0)
(-1.73588e-11 -1.76227e-09 0)
(0 0 0)
(-5.89194e-12 -1.57355e-10 0)
(-1.58131e-10 -3.70236e-09 0)
(0 0 0)
(4.05278e-11 -1.96597e-09 0)
(7.14519e-11 -2.00803e-09 0)
(-3.36239e-11 -1.7835e-09 0)
(-2.44325e-11 -1.72262e-09 0)
(0 0 0)
(0 0 0)
(0 0 0)
(0 0 0)
(0 0 0)
(7.49367e-09 9.44605e-08 0)
(1.8273e-09 5.57477e-09 0)
(6.30327e-10 -1.03143e-09 0)
(1.97357e-10 -1.75044e-09 0)
(7.13646e-11 -1.70571e-09 0)
(7.31762e-11 -2.02658e-09 0)
(1.46064e-10 -3.09519e-09 0)
(2.03195e-12 -5.32119e-11 0)
(8.33971e-11 -1.6165e-09 0)
(4.61072e-11 -1.72656e-09 0)
(7.08345e-11 -1.75992e-09 0)
(8.74012e-11 -1.78174e-09 0)
(4.31314e-13 -1.81574e-09 0)
(9.20283e-12 -1.61754e-09 0)
(-4.29539e-11 -1.6279e-09 0)
(1.7241e-10 -3.83807e-09 0)
(5.45594e-12 -1.70873e-09 0)
(8.96816e-12 -1.72355e-09 0)
(3.62331e-11 -1.68704e-09 0)
(6.60112e-12 -1.72166e-09 0)
(3.5121e-11 -1.75005e-09 0)
(-3.72369e-11 -1.68888e-09 0)
(-3.84806e-11 -1.70604e-09 0)
(6.64749e-11 -4.38562e-09 0)
(-2.18404e-11 -1.96162e-09 0)
(0 0 0)
(-2.93986e-11 -1.70918e-09 0)
(0 0 0)
(0 0 0)
(0 0 0)
(6.81168e-11 -1.69055e-09 0)
(6.54692e-11 -1.77126e-09 0)
(0 0 0)
(0 0 0)
(0 0 0)
(4.66934e-11 -1.75923e-09 0)
(-1.84698e-11 -1.66418e-09 0)
(3.32821e-11 -1.84083e-09 0)
(-5.11946e-11 -3.96289e-09 0)
(-2.25103e-11 -1.60345e-09 0)
(1.67852e-11 -1.80278e-09 0)
(0 0 0)
(5.17436e-11 -1.70127e-09 0)
(7.55319e-11 -1.77841e-09 0)
(6.68192e-11 -2.06671e-09 0)
(-4.54546e-11 -1.93919e-09 0)
(-6.08154e-11 -1.74006e-09 0)
(-2.60591e-11 -1.63399e-09 0)
(5.33354e-11 -1.84894e-09 0)
(-5.79829e-11 -1.89435e-09 0)
(-1.22077e-10 -1.60434e-09 0)
(-6.91685e-11 -1.72868e-09 0)
(-8.16122e-11 -2.00558e-09 0)
(-7.66406e-11 -1.75183e-09 0)
(-8.48444e-11 -1.59591e-09 0)
(-8.45915e-11 -1.64772e-09 0)
(-5.65881e-11 -1.63231e-09 0)
(-8.07411e-11 -3.61304e-09 0)
(1.44704e-11 -1.53361e-09 0)
(4.60039e-11 -1.84272e-09 0)
(2.38037e-11 -3.55407e-09 0)
(-1.27475e-11 -1.6242e-09 0)
(2.08279e-11 -1.65979e-09 0)
(-3.99149e-11 -1.69031e-09 0)
(-4.0074e-11 -1.76497e-09 0)
(-1.10987e-11 -1.78098e-09 0)
(6.71231e-11 -2.14524e-09 0)
(0 0 0)
(5.54931e-11 -1.84032e-09 0)
(-9.34413e-13 -1.70954e-09 0)
(-6.46033e-12 -1.68771e-09 0)
(1.69053e-11 -1.78849e-09 0)
(1.37957e-11 -1.90418e-09 0)
(-3.82195e-11 -1.07815e-09 0)
(-1.26072e-12 -3.25394e-11 0)
(3.95404e-08 6.11359e-08 0)
(3.92613e-09 9.03376e-10 0)
(1.33664e-09 -1.71558e-09 0)
(1.00337e-10 -1.77588e-09 0)
(3.56111e-11 -1.7993e-09 0)
(2.6102e-12 -1.65701e-09 0)
(5.05483e-11 -1.68952e-09 0)
(3.39311e-11 -1.76137e-09 0)
(8.13943e-11 -1.85204e-09 0)
(0 0 0)
(3.22329e-11 -1.68406e-09 0)
(5.65971e-11 -1.89388e-09 0)
(2.18019e-11 -1.93884e-09 0)
(5.69099e-12 -1.64654e-09 0)
(-5.91718e-12 -1.57547e-09 0)
(9.7533e-14 -1.65353e-09 0)
(2.81184e-11 -1.8285e-09 0)
(-2.53141e-11 -1.77662e-09 0)
(-4.12156e-11 -1.76303e-09 0)
(-1.20399e-11 -1.72803e-09 0)
(2.38701e-12 -1.83136e-09 0)
(7.50519e-12 -1.64738e-09 0)
(-2.21731e-11 -1.63871e-09 0)
(-1.45902e-10 -1.81327e-09 0)
(3.52028e-11 -1.966e-09 0)
(7.99161e-11 -1.96437e-09 0)
(0 0 0)
(-7.45955e-12 -1.69988e-09 0)
(3.07497e-11 -1.70064e-09 0)
(7.21591e-11 -1.8328e-09 0)
(3.67607e-11 -6.93249e-10 0)
(4.87203e-11 -1.64246e-09 0)
(6.1109e-11 -2.40488e-09 0)
(-1.9822e-11 -2.98455e-09 0)
(-2.9572e-12 -4.97883e-10 0)
(5.74779e-11 -4.07319e-09 0)
(-1.81838e-11 -1.886e-09 0)
(2.12176e-12 -1.92556e-09 0)
(0 0 0)
(-1.06356e-10 -1.61764e-09 0)
(9.08303e-11 -1.61554e-09 0)
(8.97676e-11 -1.7226e-09 0)
(4.97273e-11 -1.6796e-09 0)
(-1.2425e-11 -1.7624e-09 0)
(3.00843e-11 -2.152e-09 0)
(0 0 0)
(2.44675e-11 -1.81564e-09 0)
(-5.42436e-11 -1.68186e-09 0)
(6.34788e-12 -4.22168e-09 0)
(-6.17186e-11 -1.68807e-09 0)
(0 0 0)
(-1.49935e-10 -1.80871e-09 0)
(-1.52895e-10 -1.92142e-09 0)
(0 0 0)
(-2.51489e-11 -1.7629e-09 0)
(0 0 0)
(0 0 0)
(0 0 0)
(1.64047e-11 -1.70926e-09 0)
(7.6223e-11 -1.64552e-09 0)
(2.75479e-11 -1.59718e-09 0)
(-9.04852e-11 -1.9214e-09 0)
(-1.64634e-10 -3.94784e-09 0)
(-2.97153e-11 -1.66592e-09 0)
(-3.75044e-11 -1.69276e-09 0)
(-5.72447e-11 -1.58779e-09 0)
(3.67683e-11 -1.88958e-09 0)
(1.35818e-10 -2.20232e-09 0)
(0 0 0)
(6.44043e-11 -1.69413e-09 0)
(0 0 0)
(0 0 0)
(-3.11294e-11 -6.75236e-09 0)
(3.87824e-11 -1.60353e-09 0)
(6.23209e-12 -1.61375e-09 0)