/*--------------------------------*- C++ -*----------------------------------*\
  =========                 |
  \\      /  F ield         | OpenFOAM: The Open Source CFD Toolbox
   \\    /   O peration     | Website:  https://openfoam.org
    \\  /    A nd           | Version:  12
     \\/     M anipulation  |
\*---------------------------------------------------------------------------*/
FoamFile
{
    format      ascii;
    class       volScalarField;
    location    "0.7";
    object      p;
}
// * * * * * * * * * * * * * * * * * * * * * * * * * * * * * * * * * * * * * //

dimensions      [0 2 -2 0 0 0 0];

internalField   nonuniform List<scalar> 
3750
(
1.47828
1.46655
1.4583
1.44346
1.4326
1.42251
1.41511
1.41049
1.39501
1.38256
1.3717
1.36109
1.35144
1.34259
1.3328
1.32358
1.31509
1.30761
1.29673
1.29587
1.27848
1.26642
1.25286
1.24155
1.23163
1.22194
1.21223
1.20254
1.19294
1.18334
1.17386
1.16457
1.15507
1.1436
1.13592
1.13203
1.12323
1.11082
1.10107
1.09158
1.08037
1.07199
1.06336
1.05422
1.04471
1.03484
1.02473
1.01458
1.00518
0.983856
0.975139
0.96528
0.95546
0.945901
0.936827
0.92818
0.918298
0.909105
0.900484
0.893633
0.886034
0.875234
0.867708
0.865221
0.841796
0.831443
0.832467
0.820642
0.809642
0.799692
0.788647
0.778247
0.768649
0.759791
0.751295
1.47616
1.46561
1.45651
1.44463
1.43338
1.42171
1.41273
1.40382
1.38914
1.38158
1.3716
1.36008
1.35067
1.34429
1.33237
1.32276
1.31402
1.30515
1.29415
1.2969
1.28334
1.27143
1.25177
1.24031
1.23136
1.22183
1.21222
1.20264
1.19291
1.18323
1.17366
1.16466
1.15699
1.14003
1.13464
1.13513
1.12633
1.10815
1.10012
1.09177
1.07921
1.07301
1.06398
1.05458
1.04503
1.0351
1.02475
1.01367
1.00164
0.986555
0.975858
0.965153
0.95496
0.945411
0.937161
0.928656
0.917758
0.908497
0.899272
0.892403
0.889278
0.872572
0.864182
0.867606
0.84519
0.837771
0.828253
0.818372
0.808587
0.799826
0.788318
0.777408
0.768292
0.759445
0.750832
1.47487
1.4642
1.4571
1.44162
1.4319
1.42146
1.41366
1.40259
1.39209
1.38266
1.37333
1.35849
1.34819
1.34877
1.32936
1.32107
1.31188
1.30559
1.2958
1.29594
1.28263
1.27155
1.25806
1.25205
1.23164
1.22186
1.2123
1.20299
1.19284
1.18278
1.17281
1.16316
1.1531
1.14204
1.14357
1.12924
1.12203
1.1106
1.09928
1.09096
1.0799
1.07578
1.06508
1.05518
1.04572
1.03571
1.02544
1.01357
1.00129
0.986372
0.975576
0.964364
0.953876
0.943619
0.938693
0.932345
0.915443
0.907539
0.896802
0.889856
0.889589
0.877448
0.867573
0.861221
0.848944
0.839979
0.831308
0.815064
0.807842
0.802016
0.785785
0.775977
0.768083
0.75892
0.749632
1.47124
1.46194
1.45679
1.4411
1.4305
1.41963
1.41712
1.40494
1.3939
1.38349
1.37313
1.36046
1.34926
1.34204
1.33209
1.32068
1.30833
1.30858
1.29886
1.29253
1.28327
1.27452
1.25607
1.24631
1.23508
1.22398
1.21212
1.20429
1.1927
1.18228
1.17175
1.16164
1.15433
1.14516
1.13987
1.12851
1.12241
1.11353
1.09369
1.09281
1.08273
1.07465
1.06526
1.05545
1.04722
1.03673
1.02668
1.01348
1.00344
0.982101
0.975654
0.962882
0.953522
0.939344
0.938126
0.930549
0.918556
0.911688
0.893094
0.893939
0.886458
0.876518
0.866976
0.857493
0.849458
0.839232
0.829859
0.819917
0.80728
0.799481
0.788477
0.777719
0.768589
0.758681
0.747535
1.46799
1.45665
1.45709
1.44356
1.43252
1.42241
1.4144
1.40576
1.39512
1.38393
1.37332
1.36211
1.35014
1.33807
1.33346
1.32068
1.31033
1.30358
1.29624
1.29315
1.28359
1.27131
1.2583
1.24585
1.23506
1.23092
1.20829
1.20548
1.19221
1.182
1.17066
1.15779
1.15688
1.14696
1.14009
1.12438
1.12376
1.11103
1.0973
1.09087
1.08266
1.07444
1.06587
1.0548
1.05121
1.03718
1.02308
1.0105
0.999784
0.988038
0.974006
0.965063
0.957837
0.938223
0.930773
0.931973
0.91773
0.912477
0.899581
0.893478
0.883642
0.875048
0.86622
0.854098
0.850769
0.836847
0.82948
0.819786
0.809088
0.799456
0.789197
0.778893
0.769963
0.759532
0.747085
1.46617
1.45671
1.45204
1.44293
1.43381
1.42379
1.41423
1.40779
1.39564
1.38401
1.37312
1.36351
1.3501
1.34112
1.3318
1.31896
1.31131
1.30124
1.29888
1.28781
1.28465
1.26893
1.25432
1.24949
1.23781
1.22961
1.20984
1.20402
1.1934
1.18289
1.17216
1.15993
1.15453
1.14554
1.13517
1.13198
1.12269
1.10959
1.09623
1.08982
1.08183
1.07433
1.0613
1.05545
1.0502
1.03796
1.02459
1.01226
0.997503
0.988606
0.975898
0.965642
0.959676
0.942569
0.927403
0.931723
0.919735
0.909861
0.901456
0.893118
0.881795
0.870722
0.864707
0.855975
0.850634
0.829479
0.831035
0.820214
0.810302
0.800247
0.790282
0.780253
0.770852
0.761767
0.749034
1.46458
1.45485
1.45018
1.44239
1.43586
1.42523
1.41357
1.41224
1.39542
1.38379
1.3716
1.36152
1.34831
1.34281
1.33193
1.32115
1.3102
1.30762
1.29891
1.28781
1.2834
1.26616
1.25458
1.24767
1.23866
1.22445
1.21093
1.20662
1.19458
1.18397
1.17517
1.16796
1.15628
1.14757
1.13877
1.13217
1.1235
1.10938
1.08895
1.08776
1.07988
1.07304
1.05881
1.0561
1.05312
1.03849
1.02513
1.01063
0.99825
0.990144
0.977103
0.96469
0.957155
0.94573
0.935031
0.929818
0.919913
0.909556
0.901497
0.895234
0.881334
0.862966
0.85328
0.855708
0.848043
0.827547
0.830094
0.819541
0.810024
0.801061
0.79146
0.780819
0.771363
0.762862
0.752685
1.46161
1.44879
1.45128
1.44058
1.43982
1.42786
1.41774
1.41496
1.38944
1.38381
1.371
1.36146
1.35177
1.33436
1.33511
1.32513
1.31399
1.30764
1.29886
1.28559
1.27858
1.26682
1.25494
1.24771
1.23827
1.22558
1.21385
1.20427
1.19361
1.18378
1.17529
1.1665
1.15613
1.15049
1.14175
1.13098
1.1219
1.10711
1.09155
1.08115
1.07662
1.07225
1.06692
1.05502
1.04658
1.03929
1.02733
1.00544
0.995239
0.989053
0.977631
0.965633
0.958658
0.948278
0.937996
0.928839
0.919439
0.910247
0.900309
0.896806
0.8753
0.864195
0.854981
0.85155
0.843845
0.832909
0.826956
0.81794
0.808959
0.803289
0.795804
0.777977
0.770927
0.766038
0.75643
1.46045
1.44632
1.4535
1.43978
1.43976
1.428
1.41747
1.40835
1.39374
1.38302
1.37483
1.36153
1.34922
1.33582
1.33664
1.32662
1.31494
1.30415
1.29329
1.2901
1.27883
1.26755
1.25106
1.24997
1.2386
1.22781
1.21527
1.20423
1.19173
1.18206
1.17568
1.16469
1.1527
1.15433
1.14621
1.12861
1.12254
1.11007
1.09141
1.08294
1.0747
1.07196
1.06743
1.05015
1.03944
1.04121
1.02328
1.00519
0.988789
0.989604
0.978695
0.965986
0.962972
0.950409
0.939203
0.92802
0.918157
0.912155
0.904751
0.888172
0.876362
0.864903
0.855853
0.850869
0.842393
0.833997
0.826377
0.816413
0.805288
0.805974
0.794679
0.780245
0.769472
0.771098
0.751533
1.46364
1.45722
1.4461
1.43734
1.43592
1.42619
1.41582
1.40736
1.39433
1.38047
1.36902
1.36106
1.35059
1.33923
1.33371
1.32505
1.31412
1.30419
1.29465
1.28821
1.27564
1.26175
1.25797
1.24851
1.23849
1.22935
1.21604
1.20588
1.18749
1.17804
1.17843
1.16389
1.15031
1.15341
1.14329
1.13109
1.12375
1.10926
1.09655
1.08952
1.07029
1.07128
1.06021
1.04887
1.03897
1.0334
1.01998
1.00493
0.992869
0.989636
0.980101
0.970134
0.962977
0.952451
0.939993
0.926839
0.915772
0.914221
0.903051
0.889544
0.876937
0.864966
0.854451
0.852147
0.840068
0.833805
0.82843
0.817004
0.806109
0.80692
0.793723
0.78137
0.77124
0.762893
0.752127
1.46627
1.45786
1.44668
1.43585
1.43509
1.42486
1.41298
1.40959
1.39568
1.37433
1.37265
1.36287
1.35115
1.33865
1.33347
1.32739
1.31188
1.30474
1.297
1.28917
1.27289
1.26258
1.25996
1.24444
1.23758
1.23005
1.2192
1.20017
1.19056
1.18169
1.1774
1.16374
1.15001
1.15109
1.14076
1.12891
1.11566
1.1071
1.0977
1.09086
1.07347
1.06865
1.05381
1.04641
1.03798
1.03151
1.01722
1.00386
0.993643
0.992454
0.981853
0.972296
0.963538
0.956167
0.938668
0.924718
0.918581
0.912201
0.901979
0.890717
0.877077
0.865816
0.856792
0.84852
0.834961
0.832072
0.834807
0.818405
0.810993
0.807078
0.789872
0.781447
0.774197
0.756431
0.747592
1.47005
1.45978
1.44738
1.43839
1.43272
1.42576
1.41397
1.40725
1.38894
1.37837
1.37238
1.36298
1.34855
1.33825
1.32827
1.32742
1.31548
1.30461
1.29716
1.28478
1.27476
1.26417
1.2565
1.24644
1.2373
1.23131
1.21966
1.2006
1.19238
1.18355
1.17539
1.16388
1.15274
1.14692
1.13823
1.12798
1.11742
1.10663
1.09674
1.08714
1.07589
1.06562
1.05471
1.04521
1.03569
1.02522
1.02064
1.00649
0.996455
0.990359
0.982395
0.973784
0.963215
0.95476
0.944185
0.923254
0.92152
0.91066
0.901764
0.893964
0.875153
0.866454
0.858208
0.848826
0.836347
0.826783
0.827882
0.824446
0.812518
0.80311
0.792452
0.779212
0.770849
0.759604
0.750156
1.47476
1.46486
1.44581
1.43966
1.43226
1.42404
1.41095
1.40103
1.38981
1.38038
1.37447
1.3593
1.34759
1.33892
1.33035
1.3245
1.31772
1.30132
1.29538
1.28491
1.27499
1.26435
1.25549
1.24746
1.2339
1.22957
1.21816
1.20534
1.19515
1.18532
1.17508
1.16408
1.15382
1.14536
1.1371
1.12732
1.11827
1.10595
1.09664
1.08574
1.07526
1.06511
1.05444
1.04411
1.03464
1.02642
1.0203
1.00691
0.997423
0.988348
0.983533
0.976556
0.959916
0.955219
0.944276
0.933466
0.919151
0.908335
0.900479
0.891584
0.878202
0.867123
0.859665
0.853385
0.837495
0.827769
0.823662
0.821089
0.812187
0.801988
0.791101
0.779646
0.770387
0.761582
0.750555
1.47802
1.46245
1.44835
1.43975
1.43251
1.42656
1.41092
1.39615
1.3887
1.37876
1.3701
1.35927
1.35011
1.34111
1.33184
1.322
1.31384
1.3036
1.29527
1.2859
1.27612
1.264
1.25353
1.24038
1.23629
1.23329
1.21962
1.20757
1.19705
1.18695
1.17544
1.16357
1.1525
1.14345
1.13827
1.12773
1.11704
1.10905
1.09546
1.08449
1.07448
1.06489
1.05383
1.04225
1.03239
1.02726
1.01846
1.00694
0.997164
0.986851
0.985515
0.974197
0.961469
0.959244
0.944293
0.933073
0.92082
0.909197
0.900314
0.893093
0.876847
0.866621
0.860053
0.85203
0.841507
0.83143
0.819279
0.81967
0.812064
0.801225
0.790099
0.779037
0.769531
0.765766
0.748844
1.47413
1.46073
1.445
1.43855
1.43153
1.423
1.41135
1.39834
1.39011
1.37677
1.36802
1.35787
1.34848
1.34577
1.33298
1.32041
1.31237
1.30391
1.29565
1.28736
1.27998
1.2622
1.2538
1.24374
1.23656
1.22914
1.21928
1.20842
1.19862
1.18998
1.17674
1.1627
1.14956
1.13842
1.1437
1.1279
1.11195
1.10352
1.09984
1.08711
1.07443
1.06458
1.05353
1.04006
1.02819
1.02731
1.01898
1.00679
0.9939
0.989537
0.985188
0.974819
0.964799
0.95791
0.946209
0.933474
0.920617
0.909191
0.898728
0.888032
0.87723
0.870266
0.861882
0.853056
0.843379
0.833472
0.821553
0.814349
0.8129
0.800396
0.789181
0.778332
0.766632
0.764525
0.751505
1.44314
1.44984
1.44754
1.43923
1.43195
1.42288
1.4132
1.39864
1.3892
1.37768
1.36732
1.35807
1.35019
1.3438
1.33273
1.32032
1.31047
1.30466
1.29653
1.28787
1.27828
1.26622
1.25613
1.24615
1.23732
1.22621
1.21694
1.20798
1.19917
1.19134
1.1708
1.16067
1.14688
1.14526
1.13901
1.12732
1.11529
1.10611
1.09863
1.09131
1.07227
1.06532
1.05585
1.03851
1.02607
1.02167
1.02096
1.00808
0.995434
0.986586
0.984932
0.974454
0.966499
0.957533
0.949848
0.933894
0.917892
0.907599
0.897615
0.88428
0.874471
0.875012
0.864078
0.854675
0.845221
0.835686
0.825706
0.815051
0.808024
0.798564
0.788104
0.778335
0.768725
0.761365
0.751213
1.47287
1.45348
1.44436
1.44199
1.43391
1.42335
1.41273
1.40036
1.38927
1.37791
1.36555
1.35887
1.35095
1.34249
1.33301
1.32039
1.30768
1.30658
1.29761
1.28911
1.27863
1.2686
1.25832
1.24711
1.24057
1.22286
1.214
1.20836
1.19836
1.18721
1.17164
1.16197
1.14763
1.14514
1.13718
1.12694
1.11609
1.10737
1.09655
1.09131
1.07324
1.06879
1.05083
1.04358
1.02632
1.02168
1.019
1.0096
0.994659
0.98883
0.980628
0.970606
0.968586
0.955645
0.946332
0.934263
0.920311
0.906745
0.896784
0.885416
0.875557
0.878014
0.860757
0.856418
0.8472
0.838206
0.830646
0.814848
0.804836
0.797359
0.787541
0.777934
0.76905
0.755214
0.752309
1.47104
1.45855
1.44871
1.43766
1.43612
1.42382
1.41249
1.40111
1.38966
1.37934
1.35926
1.35867
1.34992
1.34263
1.33363
1.32
1.30817
1.30372
1.298
1.29309
1.27747
1.27074
1.26176
1.24539
1.23822
1.22587
1.20672
1.21338
1.19865
1.18198
1.17311
1.15422
1.15327
1.14622
1.13698
1.12719
1.1151
1.10363
1.09677
1.08823
1.07696
1.07009
1.05035
1.04143
1.03042
1.02217
1.01498
1.00664
1.00072
0.995503
0.977117
0.972495
0.96693
0.949851
0.946129
0.935895
0.918196
0.905273
0.897541
0.887608
0.878746
0.873003
0.861599
0.860513
0.848177
0.839379
0.828884
0.816689
0.806225
0.798526
0.787822
0.776985
0.76787
0.757171
0.749749
1.46642
1.46139
1.45199
1.44066
1.43335
1.42294
1.41237
1.40192
1.38893
1.37562
1.36315
1.35586
1.34639
1.3437
1.33129
1.31772
1.31002
1.3014
1.29716
1.29155
1.28354
1.27563
1.2568
1.24952
1.24089
1.22184
1.20377
1.20981
1.1989
1.18418
1.1708
1.15828
1.15248
1.14765
1.13731
1.12979
1.11378
1.09692
1.0975
1.08763
1.07713
1.06695
1.05396
1.04273
1.03099
1.02104
1.01227
1.00532
1.00606
0.997362
0.976645
0.977511
0.959463
0.947491
0.947816
0.93142
0.918279
0.905451
0.89892
0.888963
0.880065
0.872048
0.866175
0.862252
0.845618
0.842208
0.828965
0.814835
0.806995
0.802585
0.787495
0.775633
0.767713
0.758396
0.749122
1.4833
1.46384
1.45585
1.44317
1.43333
1.42196
1.41219
1.40519
1.38737
1.37406
1.36443
1.3557
1.34808
1.34025
1.32718
1.31128
1.30914
1.30322
1.2976
1.29255
1.28842
1.27368
1.25594
1.25356
1.23505
1.21937
1.20723
1.20868
1.19888
1.18652
1.16925
1.15789
1.15061
1.14842
1.13499
1.12563
1.1137
1.1012
1.09408
1.0878
1.07734
1.06659
1.05526
1.04398
1.03096
1.01919
1.00944
1.01062
1.00468
0.994914
0.982575
0.973784
0.961535
0.950934
0.943239
0.930939
0.918008
0.904324
0.90073
0.888971
0.880403
0.872592
0.868779
0.85788
0.845812
0.837044
0.829829
0.821595
0.806216
0.800779
0.791017
0.777821
0.768921
0.759112
0.750006
1.47456
1.46536
1.4572
1.44927
1.43429
1.41945
1.41078
1.40253
1.39064
1.37614
1.36437
1.35582
1.35016
1.34169
1.3265
1.30851
1.31084
1.30473
1.2975
1.29124
1.28489
1.27503
1.25408
1.24482
1.23484
1.2223
1.2103
1.20419
1.19481
1.18399
1.17649
1.15589
1.15492
1.14449
1.13413
1.12473
1.1137
1.10216
1.09069
1.08877
1.07701
1.06648
1.05493
1.04419
1.03168
1.02049
1.01074
1.00938
1.00356
0.995093
0.98516
0.972891
0.961871
0.951497
0.941765
0.931184
0.919885
0.908241
0.89752
0.884678
0.882098
0.880453
0.863491
0.854244
0.843318
0.83167
0.830369
0.819688
0.811893
0.801985
0.792091
0.780946
0.771623
0.759182
0.749234
1.46126
1.46441
1.45683
1.44688
1.43549
1.42603
1.40959
1.4026
1.39426
1.3754
1.3617
1.35368
1.34885
1.34187
1.32942
1.31709
1.311
1.30323
1.29636
1.28983
1.28293
1.27166
1.25411
1.24345
1.23437
1.22619
1.20924
1.20249
1.19121
1.18028
1.1787
1.16319
1.15369
1.14375
1.13428
1.12463
1.11334
1.10275
1.09233
1.08545
1.07558
1.06656
1.05522
1.04479
1.03276
1.02284
1.00452
1.00943
1.00385
0.997865
0.989754
0.97193
0.959447
0.950978
0.941804
0.932228
0.922668
0.911678
0.895892
0.887593
0.885483
0.872012
0.862483
0.852456
0.843156
0.833151
0.823768
0.829115
0.817499
0.802894
0.790414
0.78721
0.775197
0.757938
0.748886
1.46243
1.46133
1.4562
1.44629
1.43498
1.42383
1.414
1.40456
1.39247
1.3776
1.36189
1.35053
1.3486
1.34603
1.33267
1.32101
1.31127
1.30014
1.29492
1.29064
1.28404
1.26632
1.25209
1.24228
1.23264
1.22318
1.21254
1.20577
1.18814
1.18068
1.17463
1.16586
1.15404
1.14415
1.13478
1.12522
1.11288
1.1032
1.09273
1.08349
1.07348
1.06307
1.05944
1.04631
1.03212
1.0193
1.00691
1.00733
1.00404
1.00017
0.988081
0.973167
0.961033
0.951106
0.942283
0.933316
0.926843
0.91161
0.89484
0.886848
0.883566
0.872901
0.861057
0.851471
0.843269
0.835367
0.829988
0.820883
0.811156
0.802959
0.793349
0.787594
0.778596
0.756981
0.747333
1.47813
1.46082
1.45921
1.44711
1.43498
1.42105
1.41766
1.4058
1.38996
1.3775
1.36393
1.35413
1.3503
1.34436
1.33327
1.32266
1.31366
1.29255
1.29247
1.29134
1.27937
1.26573
1.25204
1.24119
1.23112
1.22131
1.21148
1.20496
1.19178
1.1822
1.1709
1.16819
1.15508
1.14469
1.13549
1.12805
1.11054
1.10286
1.09124
1.08244
1.07327
1.06408
1.05932
1.04836
1.03222
1.01864
1.01569
1.00729
1.00384
0.990891
0.987142
0.973026
0.962388
0.951303
0.941211
0.931202
0.924629
0.913047
0.902094
0.884058
0.885923
0.874799
0.856942
0.848569
0.843354
0.83741
0.82737
0.814614
0.811029
0.803979
0.795386
0.787274
0.776133
0.762069
0.751908
1.47101
1.46465
1.45734
1.44792
1.43898
1.42049
1.41574
1.40427
1.3896
1.37641
1.36513
1.35529
1.35523
1.3451
1.33244
1.32161
1.31237
1.29719
1.29191
1.28559
1.27556
1.26431
1.25094
1.23959
1.22928
1.22029
1.20978
1.20715
1.19251
1.18425
1.17299
1.16561
1.15472
1.14405
1.13439
1.12532
1.11433
1.10644
1.087
1.08231
1.0735
1.06353
1.06152
1.04815
1.0371
1.02233
1.01542
1.00513
0.997773
0.987549
0.986858
0.974896
0.963427
0.951336
0.940215
0.928507
0.925731
0.913631
0.901314
0.889108
0.885147
0.873677
0.859595
0.845947
0.844259
0.842169
0.827232
0.814823
0.80493
0.803689
0.796212
0.789984
0.776563
0.764303
0.753387
1.48704
1.46809
1.45759
1.44829
1.43733
1.4259
1.41694
1.40388
1.38892
1.37523
1.36491
1.35916
1.35713
1.3497
1.3295
1.31871
1.31256
1.30148
1.29207
1.28205
1.27274
1.26323
1.24941
1.23694
1.22614
1.22068
1.21403
1.20619
1.1926
1.18792
1.17503
1.1639
1.15377
1.14249
1.13272
1.12543
1.11541
1.10599
1.08406
1.08346
1.0743
1.06785
1.06021
1.04861
1.03858
1.02607
1.01338
1.00381
0.995749
0.988889
0.984744
0.975581
0.96419
0.950467
0.940746
0.931405
0.9234
0.91273
0.900644
0.889609
0.887528
0.875372
0.861931
0.851141
0.845429
0.841587
0.824301
0.81524
0.804831
0.79654
0.795384
0.794992
0.776839
0.76513
0.754138
1.47984
1.46584
1.45745
1.44882
1.43626
1.43025
1.42219
1.40302
1.38732
1.37536
1.36394
1.36067
1.35671
1.35104
1.33182
1.31598
1.31378
1.30306
1.29185
1.2788
1.27044
1.26096
1.25144
1.23307
1.22299
1.22122
1.21864
1.20618
1.19518
1.18646
1.17398
1.16167
1.15424
1.14103
1.12967
1.12644
1.11515
1.10323
1.08919
1.08122
1.07379
1.07264
1.05904
1.04882
1.04118
1.02474
1.01371
1.00238
0.99421
0.989629
0.985359
0.976372
0.963278
0.951501
0.941667
0.932328
0.92307
0.912922
0.902313
0.893823
0.886142
0.875626
0.862443
0.852259
0.844759
0.837181
0.826656
0.816919
0.807112
0.797804
0.791316
0.782174
0.774103
0.76458
0.754221
1.48689
1.46363
1.45747
1.44728
1.43604
1.4333
1.42269
1.40864
1.384
1.38089
1.37021
1.36275
1.35462
1.34617
1.33154
1.31828
1.31101
1.30435
1.28736
1.27836
1.269
1.25835
1.24842
1.23694
1.22844
1.22228
1.21577
1.20581
1.19614
1.18428
1.17154
1.15944
1.15612
1.14246
1.13141
1.12507
1.11486
1.10368
1.09144
1.07864
1.07673
1.07179
1.05783
1.04666
1.03619
1.02777
1.0171
1.00271
0.991165
0.989786
0.987567
0.980609
0.960999
0.951569
0.9421
0.932999
0.923807
0.913782
0.903915
0.894821
0.886161
0.878037
0.858349
0.850857
0.844192
0.836458
0.828117
0.818932
0.809187
0.799177
0.789766
0.780856
0.773337
0.763932
0.754105
1.49803
1.47294
1.45978
1.44814
1.43896
1.43254
1.42512
1.40783
1.38892
1.38208
1.37418
1.36532
1.3524
1.34248
1.33002
1.31757
1.30802
1.30035
1.28918
1.27808
1.26861
1.25583
1.24719
1.23821
1.23129
1.22685
1.21228
1.20393
1.19742
1.1824
1.17222
1.16166
1.15373
1.14366
1.1276
1.12853
1.11473
1.1049
1.0933
1.08218
1.07334
1.07132
1.0558
1.04388
1.03065
1.02708
1.02208
1.00663
0.996101
0.990322
0.98039
0.978224
0.963099
0.95185
0.942272
0.933908
0.925289
0.914632
0.905007
0.895281
0.886548
0.877416
0.855044
0.853496
0.84298
0.836016
0.831085
0.821433
0.811744
0.800203
0.788705
0.77963
0.772466
0.763547
0.754074
1.49503
1.47534
1.46051
1.4489
1.43942
1.43094
1.42143
1.40911
1.39839
1.38239
1.3787
1.36581
1.35251
1.34093
1.32859
1.31361
1.30525
1.30026
1.28882
1.27604
1.26578
1.25461
1.24551
1.23782
1.23108
1.22639
1.21608
1.20406
1.1923
1.18788
1.17318
1.16313
1.15202
1.13833
1.13235
1.13009
1.11485
1.10691
1.09582
1.08553
1.07333
1.06672
1.05476
1.04393
1.03351
1.02616
1.01827
1.00737
0.998354
0.991204
0.98054
0.972533
0.961291
0.950585
0.940954
0.93521
0.926947
0.916982
0.906039
0.894485
0.887622
0.874893
0.859767
0.852423
0.842629
0.833905
0.836429
0.823778
0.815811
0.800678
0.78616
0.778851
0.771164
0.762872
0.753418
1.48973
1.47476
1.45929
1.44826
1.43821
1.43121
1.42083
1.40905
1.39754
1.38564
1.37638
1.36508
1.35271
1.34074
1.3298
1.31831
1.30047
1.30383
1.28961
1.27138
1.26299
1.25249
1.24297
1.23703
1.23166
1.23108
1.21846
1.20582
1.19469
1.18612
1.17439
1.16436
1.15412
1.14255
1.13307
1.12495
1.11199
1.10912
1.09818
1.08989
1.07194
1.06433
1.0524
1.04521
1.03457
1.02516
1.01558
1.00509
0.9998
0.994069
0.981656
0.969747
0.959126
0.948128
0.937079
0.940023
0.924521
0.922893
0.907882
0.893355
0.893306
0.875201
0.857718
0.850215
0.844487
0.835805
0.839199
0.82014
0.811541
0.800686
0.79185
0.77866
0.770488
0.761563
0.749814
1.48322
1.47127
1.45884
1.44678
1.43573
1.43301
1.42065
1.40825
1.39708
1.38634
1.37626
1.36536
1.35243
1.33978
1.33042
1.31617
1.30498
1.29686
1.29075
1.27301
1.26239
1.24953
1.23795
1.23706
1.23872
1.23255
1.21861
1.20648
1.19571
1.18537
1.17508
1.16612
1.1595
1.14384
1.13146
1.12261
1.11384
1.10712
1.09765
1.08761
1.0757
1.06693
1.04568
1.0476
1.03434
1.02495
1.01529
0.999794
1.00075
1.00068
0.979291
0.969633
0.958344
0.94506
0.935282
0.935065
0.932469
0.922825
0.909827
0.897193
0.887625
0.874024
0.861191
0.850723
0.849793
0.839363
0.832147
0.820401
0.809989
0.799092
0.7873
0.783643
0.770951
0.759743
0.751958
1.48381
1.46918
1.45932
1.44667
1.43706
1.43055
1.41965
1.40674
1.39627
1.38622
1.37645
1.36548
1.35221
1.33875
1.33016
1.31861
1.30823
1.3003
1.28479
1.27461
1.26256
1.24736
1.24046
1.23724
1.23654
1.23393
1.21679
1.206
1.19632
1.1848
1.17504
1.1658
1.15811
1.14934
1.13261
1.12227
1.11571
1.10591
1.09679
1.08709
1.07674
1.06777
1.04553
1.04764
1.03464
1.02379
1.01606
0.999651
1.00285
0.993127
0.978126
0.977499
0.958989
0.93974
0.94108
0.932474
0.92745
0.9212
0.911359
0.901759
0.884034
0.871901
0.862572
0.85651
0.8507
0.839903
0.828287
0.818485
0.808798
0.798527
0.787879
0.779289
0.769028
0.760587
0.752484
1.48205
1.46947
1.46201
1.44455
1.43752
1.42953
1.41864
1.40457
1.39534
1.38574
1.37693
1.3633
1.35212
1.34075
1.33059
1.32038
1.30947
1.29867
1.2864
1.27592
1.26533
1.25669
1.24263
1.23581
1.23275
1.22618
1.21397
1.20407
1.19798
1.18486
1.17494
1.16513
1.15585
1.14527
1.13638
1.12628
1.1187
1.10613
1.09749
1.08663
1.07635
1.06652
1.05057
1.0456
1.03748
1.01971
1.01047
1.00869
0.999427
0.989628
0.978576
0.973065
0.960616
0.945522
0.941812
0.932165
0.922397
0.921197
0.910296
0.899445
0.886503
0.873687
0.862923
0.862286
0.854425
0.83873
0.823254
0.81641
0.808279
0.798747
0.787062
0.776517
0.76506
0.762459
0.750948
1.48014
1.46746
1.45866
1.44736
1.43843
1.43037
1.41564
1.40501
1.39441
1.38458
1.37462
1.36281
1.35226
1.34312
1.33213
1.32147
1.31024
1.29894
1.28724
1.27702
1.26748
1.25828
1.24785
1.23688
1.23084
1.22237
1.20926
1.19913
1.19912
1.18619
1.17505
1.16406
1.1535
1.14155
1.13928
1.12863
1.11934
1.10907
1.10134
1.08382
1.07551
1.06572
1.05259
1.04372
1.03412
1.02262
1.01284
1.00629
0.996522
0.987543
0.980069
0.969391
0.964453
0.950938
0.941804
0.932442
0.923327
0.917492
0.90854
0.898615
0.887775
0.875496
0.866578
0.86019
0.850803
0.837247
0.824913
0.815553
0.809437
0.798899
0.784884
0.77525
0.765372
0.761838
0.753509
1.47399
1.46414
1.45768
1.44774
1.43818
1.43044
1.41464
1.40809
1.39131
1.38343
1.37332
1.36216
1.35265
1.34604
1.33358
1.32255
1.31112
1.29922
1.28686
1.27744
1.26926
1.26101
1.25091
1.23836
1.23128
1.22337
1.20243
1.19419
1.19664
1.1861
1.1752
1.16291
1.15206
1.14179
1.13579
1.12978
1.12025
1.11031
1.09973
1.08689
1.07622
1.06632
1.05289
1.04349
1.03215
1.02452
1.01313
1.00248
0.995913
0.985823
0.982775
0.972102
0.962953
0.95165
0.942234
0.933134
0.924154
0.916008
0.907315
0.898048
0.88933
0.87699
0.868413
0.857926
0.849278
0.835381
0.824656
0.812733
0.81037
0.79766
0.785705
0.775288
0.764455
0.761769
0.755293
1.47296
1.45995
1.45862
1.44784
1.43695
1.42499
1.41869
1.40488
1.39477
1.3845
1.37306
1.36045
1.35072
1.35203
1.33313
1.32327
1.31224
1.29904
1.28501
1.27634
1.27102
1.26359
1.25084
1.24115
1.23091
1.22227
1.20185
1.18168
1.18844
1.18348
1.17586
1.16112
1.15091
1.14095
1.13293
1.13135
1.11955
1.11233
1.10055
1.08779
1.07612
1.06603
1.05459
1.04527
1.02798
1.0269
1.01244
1.00079
0.999286
0.988727
0.981099
0.970946
0.960552
0.950235
0.943365
0.933616
0.924022
0.915101
0.906623
0.897207
0.887837
0.880027
0.870033
0.856979
0.847864
0.836499
0.824756
0.813711
0.807141
0.79675
0.786639
0.777762
0.770293
0.754838
0.755827
1.47242
1.45991
1.4554
1.44658
1.43738
1.43024
1.41659
1.39869
1.39798
1.38643
1.37441
1.35771
1.35191
1.34988
1.33863
1.32582
1.3135
1.29654
1.28482
1.27456
1.27411
1.26377
1.25256
1.2416
1.22925
1.21902
1.20192
1.18694
1.1816
1.17931
1.16954
1.16556
1.15085
1.1389
1.1365
1.12781
1.11598
1.11535
1.10192
1.08942
1.07476
1.06618
1.05463
1.04156
1.03487
1.02424
1.00964
1.00587
0.998206
0.989258
0.980197
0.969974
0.958885
0.947254
0.94512
0.933755
0.923252
0.913711
0.907109
0.896544
0.885383
0.883059
0.869177
0.857971
0.847176
0.839675
0.823966
0.812844
0.804654
0.797329
0.786284
0.77957
0.769818
0.759252
0.75346
1.47008
1.46206
1.45443
1.44576
1.4363
1.42715
1.41488
1.4052
1.39607
1.38905
1.38107
1.36406
1.35089
1.35195
1.34176
1.32776
1.31546
1.29528
1.28487
1.27482
1.27334
1.26468
1.25577
1.23625
1.22587
1.2139
1.20099
1.19039
1.18791
1.18019
1.17069
1.16358
1.15342
1.14457
1.13464
1.12551
1.11383
1.11066
1.10303
1.08723
1.08093
1.06878
1.05669
1.04592
1.03283
1.02343
1.01102
1.00438
0.995586
0.989564
0.980267
0.970029
0.959091
0.949191
0.942265
0.932164
0.921875
0.910679
0.908754
0.896677
0.886157
0.879616
0.86839
0.859889
0.843507
0.836696
0.827354
0.816262
0.803504
0.799562
0.784528
0.783216
0.77017
0.760691
0.752643
1.46251
1.46411
1.45472
1.44589
1.4365
1.42585
1.41418
1.41176
1.3912
1.39085
1.38099
1.36935
1.35187
1.34774
1.34163
1.32821
1.31338
1.30126
1.2871
1.27159
1.27419
1.2647
1.25454
1.2344
1.2247
1.21287
1.20041
1.19749
1.18887
1.18001
1.17037
1.16379
1.1552
1.14528
1.13489
1.1267
1.10728
1.10718
1.10731
1.09006
1.07991
1.07058
1.05773
1.04625
1.03171
1.02392
1.01077
1.0025
0.992517
0.991682
0.980911
0.97082
0.958873
0.949448
0.940773
0.93142
0.921765
0.912472
0.906513
0.894932
0.885231
0.877091
0.866025
0.854405
0.846024
0.836854
0.829101
0.822057
0.807548
0.795999
0.789315
0.783183
0.767161
0.759586
0.750784
1.47056
1.46201
1.45347
1.44676
1.43805
1.42827
1.41732
1.40631
1.39579
1.3896
1.38239
1.36425
1.35367
1.34429
1.33265
1.32697
1.31124
1.30745
1.29157
1.27918
1.27652
1.26281
1.24732
1.23674
1.2255
1.21369
1.20433
1.19834
1.18919
1.17909
1.16855
1.16672
1.1563
1.14569
1.13483
1.12448
1.11279
1.10525
1.09927
1.09443
1.0824
1.07361
1.05548
1.04283
1.03287
1.02336
1.01234
1.00207
0.994202
0.989225
0.980996
0.973447
0.956121
0.948702
0.940096
0.930907
0.921857
0.913568
0.907546
0.890765
0.88197
0.877912
0.866503
0.847631
0.846735
0.836614
0.828113
0.820258
0.810089
0.799873
0.791063
0.780813
0.769293
0.75948
0.749115
1.47235
1.46116
1.45197
1.45023
1.44044
1.4319
1.41408
1.40536
1.39647
1.38774
1.37867
1.36629
1.35487
1.34329
1.33218
1.32283
1.30961
1.30803
1.29499
1.28074
1.2728
1.26187
1.25034
1.24043
1.2274
1.21134
1.20714
1.19945
1.18989
1.17968
1.17039
1.16472
1.15601
1.14607
1.13443
1.12509
1.11555
1.10402
1.10029
1.09212
1.08131
1.07108
1.05655
1.04289
1.03309
1.02366
1.016
0.999635
0.99471
0.987687
0.979558
0.970196
0.958614
0.949102
0.939957
0.930555
0.921222
0.912259
0.90367
0.89404
0.875428
0.877993
0.864523
0.85166
0.84239
0.834492
0.826445
0.821225
0.812533
0.80223
0.791822
0.781814
0.770453
0.759451
0.746877
1.4721
1.46085
1.45486
1.44921
1.43992
1.42948
1.41687
1.40594
1.39584
1.38796
1.37809
1.36686
1.35573
1.34338
1.3326
1.32214
1.31086
1.30378
1.29398
1.28196
1.27186
1.26172
1.25234
1.23262
1.22898
1.21503
1.2114
1.20198
1.19116
1.18003
1.17142
1.16373
1.15649
1.14836
1.13214
1.12615
1.11488
1.10331
1.1035
1.08929
1.07952
1.0729
1.0568
1.04044
1.03279
1.02217
1.01293
1.0024
0.995305
0.987432
0.978694
0.969242
0.959127
0.949327
0.939762
0.930119
0.919958
0.910434
0.900444
0.89068
0.877834
0.880145
0.861953
0.855346
0.838221
0.830396
0.823188
0.82339
0.816425
0.804793
0.79366
0.783274
0.771146
0.761542
0.754068
1.46812
1.46252
1.45803
1.44948
1.43979
1.42941
1.418
1.40686
1.39416
1.38939
1.37747
1.36691
1.35686
1.34307
1.33282
1.32368
1.30782
1.30149
1.29255
1.28209
1.27156
1.26076
1.24953
1.23686
1.22988
1.21995
1.20756
1.20658
1.19189
1.18013
1.17146
1.16204
1.15571
1.14448
1.13577
1.1292
1.11469
1.10563
1.1033
1.0862
1.07603
1.06866
1.05699
1.04469
1.0346
1.02111
1.0119
1.00223
0.996737
0.987971
0.978656
0.968878
0.95915
0.949505
0.939733
0.929943
0.918634
0.908987
0.89934
0.889537
0.87957
0.873668
0.862818
0.853147
0.840118
0.827352
0.825972
0.821711
0.820471
0.80654
0.795129
0.785488
0.771265
0.761682
0.751733
1.45424
1.46564
1.46345
1.45064
1.44031
1.43045
1.41867
1.41146
1.39684
1.38481
1.37483
1.36666
1.35641
1.34265
1.32999
1.31842
1.3105
1.30198
1.2925
1.28232
1.27169
1.26034
1.24872
1.23798
1.22839
1.21819
1.20702
1.20697
1.19812
1.18097
1.17146
1.15961
1.15389
1.14471
1.13766
1.13191
1.11467
1.10475
1.09834
1.08579
1.07784
1.06862
1.05789
1.04669
1.03386
1.02149
1.01103
1.00096
0.999745
0.988633
0.978252
0.96842
0.959109
0.949855
0.939969
0.93018
0.916283
0.907479
0.898155
0.888598
0.879228
0.871102
0.862386
0.85277
0.841576
0.830824
0.822736
0.825736
0.819562
0.805614
0.795575
0.785041
0.772641
0.762055
0.754893
1.47178
1.46733
1.46055
1.44925
1.4404
1.43328
1.41495
1.4079
1.398
1.38611
1.37625
1.3666
1.35583
1.3391
1.32598
1.31784
1.31222
1.30322
1.29316
1.28305
1.27273
1.25997
1.24719
1.23671
1.22632
1.21946
1.20923
1.20164
1.19565
1.18435
1.17375
1.16004
1.15254
1.14402
1.13814
1.12962
1.11793
1.10749
1.10033
1.08156
1.08006
1.06961
1.05938
1.05008
1.03092
1.02147
1.01116
1.00234
0.999438
0.988067
0.97767
0.967588
0.958389
0.949473
0.940109
0.928857
0.915311
0.906296
0.897089
0.887615
0.878179
0.869261
0.862948
0.854025
0.843509
0.833067
0.823838
0.825752
0.816948
0.80804
0.795749
0.784838
0.773575
0.76139
0.751754
1.47825
1.47139
1.45703
1.44604
1.4388
1.43076
1.41527
1.40751
1.40087
1.38506
1.38064
1.36738
1.35393
1.33717
1.31801
1.31731
1.31588
1.30464
1.29374
1.28408
1.2763
1.25957
1.24313
1.23549
1.22284
1.22114
1.21336
1.19469
1.19484
1.18422
1.17339
1.16179
1.15276
1.1429
1.14114
1.12999
1.11883
1.10801
1.09863
1.08821
1.07881
1.06986
1.06023
1.04784
1.03325
1.02226
1.01209
1.00272
1.00356
0.984712
0.97645
0.967477
0.957507
0.948935
0.941902
0.925319
0.913916
0.905541
0.896327
0.886697
0.876681
0.866196
0.86536
0.856026
0.845552
0.835857
0.827832
0.822344
0.81401
0.812809
0.793237
0.784157
0.774502
0.760766
0.750999
1.47632
1.46847
1.45785
1.44718
1.43782
1.42786
1.41599
1.4061
1.3968
1.38844
1.37924
1.36746
1.35491
1.34002
1.32532
1.31842
1.31297
1.30352
1.29313
1.28322
1.27281
1.26002
1.24728
1.23731
1.22328
1.21572
1.21156
1.19768
1.18983
1.18397
1.17329