/*--------------------------------*- C++ -*----------------------------------*\
  =========                 |
  \\      /  F ield         | OpenFOAM: The Open Source CFD Toolbox
   \\    /   O peration     | Website:  https://openfoam.org
    \\  /    A nd           | Version:  12
     \\/     M anipulation  |
\*---------------------------------------------------------------------------*/
FoamFile
{
    format      ascii;
    class       surfaceScalarField;
    location    "0.7";
    object      phi.water_0;
}
// * * * * * * * * * * * * * * * * * * * * * * * * * * * * * * * * * * * * * //

dimensions      [0 3 -1 0 0 0 0];

internalField   nonuniform List<scalar> 
7375
(
-1.99498e-07
3.53078e-08
-1.1245e-07
-4.25466e-08
-8.63259e-08
-7.77757e-08
1.10082e-08
-3.6188e-08
2.44229e-08
-1.36353e-08
5.75792e-08
-3.28391e-08
9.59706e-08
-3.88822e-08
1.71863e-08
-9.97723e-08
5.68461e-08
-3.94848e-08
6.44343e-08
-7.73445e-09
8.59082e-08
-2.21249e-08
1.01792e-07
-1.49979e-08
1.12867e-07
-1.207e-08
1.12422e-07
4.43856e-10
1.09615e-07
3.95168e-09
1.14138e-07
-4.52646e-09
1.17212e-07
-1.84442e-09
6.6723e-08
-9.06749e-09
1.46506e-07
-2.00542e-08
1.00442e-07
4.70854e-08
2.82042e-08
1.13982e-08
8.87023e-08
-2.25274e-09
7.0297e-08
1.93019e-08
8.87868e-08
-1.87328e-08
8.85358e-08
2.70705e-10
9.94499e-08
-9.8019e-09
9.64712e-08
2.11471e-09
1.06722e-07
-1.12254e-08
1.11444e-07
-4.76218e-09
1.13375e-07
-1.91234e-09
1.22935e-07
-9.68646e-09
1.23911e-07
2.77371e-10
1.32924e-07
-6.30538e-09
1.41741e-07
-1.17784e-08
1.71058e-07
-3.24748e-08
1.47367e-07
2.51636e-08
1.43031e-07
4.39907e-09
1.52651e-07
-9.61974e-09
1.57485e-07
-3.23664e-09
1.54377e-07
1.47054e-09
1.84279e-07
-2.83261e-08
1.82375e-07
5.75454e-09
1.76902e-07
3.64408e-09
1.7825e-07
-3.09079e-09
1.8213e-07
-3.80192e-09
1.77763e-07
4.35636e-09
1.62115e-07
1.54907e-08
1.31986e-07
3.11404e-08
9.54554e-08
3.71523e-08
9.19305e-08
2.44988e-09
7.7554e-08
1.32842e-08
8.55852e-08
-7.18536e-09
8.54782e-08
2.69943e-10
1.01123e-07
-1.6563e-08
1.06463e-07
-5.3795e-09
1.05158e-07
1.32364e-09
1.16347e-07
-1.11606e-08
1.24713e-07
-6.98731e-09
1.22898e-07
3.05465e-09
1.30659e-07
-8.96425e-09
1.15345e-07
1.51406e-08
1.01562e-07
1.28494e-08
1.35606e-07
-3.68109e-08
1.06326e-07
3.14062e-08
7.09292e-08
3.71202e-08
1.98785e-07
5.03789e-08
6.32296e-08
-4.37708e-08
8.72379e-08
-2.4296e-08
9.75285e-08
-9.48715e-09
8.73081e-08
1.01887e-08
9.7734e-08
-1.23182e-08
1.03191e-07
-5.4562e-09
1.08669e-07
-4.4423e-09
1.14435e-07
-5.69947e-09
-5.59957e-09
-8.13282e-08
2.95166e-08
-6.13799e-08
-3.65642e-08
-5.30267e-08
-7.99334e-08
-6.37699e-09
-8.2367e-08
-2.73096e-08
-5.22014e-08
2.5341e-08
-2.64504e-08
-2.13448e-08
7.84436e-09
3.14702e-08
2.70991e-08
4.18292e-09
-1.29292e-08
1.14859e-08
-1.50016e-08
1.50965e-08
-2.62293e-08
4.462e-08
-4.45228e-08
8.41063e-08
-5.20827e-08
6.54886e-08
1.9061e-08
8.23281e-08
-1.30196e-08
9.06593e-08
-1.28124e-08
1.01777e-07
-1.29625e-08
6.68026e-08
2.80045e-08
2.09459e-07
1.66023e-08
4.28978e-08
3.32767e-08
3.73572e-08
1.64462e-08
5.0489e-08
-1.50304e-08
5.81304e-08
1.26393e-08
5.4345e-08
-1.47952e-08
6.33738e-08
-1.01667e-08
6.62403e-08
-1.33376e-08
7.46965e-08
-5.69404e-09
7.14234e-08
-7.23126e-09
7.47566e-08
-8.85817e-09
7.07154e-08
2.08832e-09
6.73504e-08
-4.9129e-09
6.44213e-08
3.17646e-09
6.5596e-08
-7.40368e-09
8.00637e-08
-2.61247e-08
1.69942e-07
5.20804e-08
5.71926e-08
-3.79349e-08
7.85257e-08
-1.61927e-08
8.37623e-08
-1.51625e-08
1.05969e-07
-2.43727e-08
6.74317e-08
-1.81057e-08
1.15543e-07
-1.78939e-08
1.19994e-07
6.55104e-11
1.41697e-07
-1.95407e-08
1.6606e-07
-2.91312e-08
1.88309e-07
-2.6275e-08
2.09273e-07
-1.66513e-08
2.20598e-07
4.05127e-09
2.09258e-07
4.25954e-08
1.94645e-07
5.3504e-08
1.68668e-07
2.89617e-08
1.54107e-07
2.78462e-08
1.38277e-07
1.01134e-08
1.34826e-07
3.71885e-09
1.36129e-07
-1.64772e-08
1.28389e-07
1.02622e-09
1.38425e-07
-1.0111e-08
1.35577e-07
-8.36835e-09
1.39128e-07
-1.20652e-08
1.66743e-07
-2.29542e-08
1.76882e-07
-1.74886e-08
1.47911e-07
4.56204e-08
1.26068e-07
3.54938e-08
2.18697e-07
4.62469e-08
8.50381e-08
-1.24764e-08
1.04057e-07
1.8403e-08
9.40994e-08
7.17791e-10
9.2325e-08
1.80508e-08
6.78473e-08
8.90546e-10
5.41482e-08
3.51299e-09
6.09267e-08
2.75424e-09
4.19245e-08
6.75329e-09
5.75246e-08
-2.08983e-08
5.47508e-08
-2.22654e-09
6.92376e-08
-2.01858e-08
-6.2227e-09
-1.94789e-07
2.32962e-08
-1.25929e-07
-7.69196e-08
-1.69707e-07
-8.564e-08
-1.00588e-07
-8.88526e-08
-9.24301e-08
-6.04439e-08
-5.93514e-08
-6.04157e-08
-7.0537e-08
1.89496e-08
-6.5e-08
2.12852e-08
-8.50634e-08
7.26573e-09
-1.03315e-07
2.21854e-09
-1.77114e-07
-1.05367e-08
-1.59672e-07
-3.31437e-09
-4.90566e-08
1.47666e-08
-1.45657e-07
-6.08391e-08
-1.17547e-07
-4.15539e-08
-1.01757e-07
-2.76957e-08
-6.54045e-08
-5.16799e-08
-8.09104e-08
4.22407e-08
5.55534e-08
6.05676e-08
-1.20159e-07
-2.79982e-08
-6.74322e-08
2.27598e-08
-8.84833e-08
6.76964e-09
-7.08292e-08
-4.29979e-09
-8.83334e-08
3.62345e-10
-9.63316e-08
-3.0887e-09
-8.2104e-08
-2.54762e-08
-7.24517e-08
-1.46654e-08
-7.25139e-08
-7.16925e-09
-6.89586e-08
-1.24499e-08
-5.34818e-08
-1.32339e-08
-4.87527e-08
-9.69023e-09
-2.32412e-08
-2.23672e-08
-3.58684e-08
5.03788e-09
8.88897e-08
2.69738e-08
2.28268e-09
-3.82372e-08
-6.57318e-09
-2.93989e-08
-1.14392e-08
-1.17239e-08
-1.57265e-08
-1.0993e-08
1.24378e-08
-5.30392e-08
-1.55716e-08
9.93004e-09
1.00756e-07
-1.44482e-08
4.3859e-08
-6.29169e-08
6.72119e-08
-4.28933e-08
8.50835e-08
-4.72997e-08
9.45201e-08
-3.69438e-08
1.00865e-07
-2.3164e-08
1.0065e-07
5.392e-09
9.33664e-08
5.0832e-08
9.08072e-08
5.75356e-08
7.35304e-08
4.67202e-08
6.35718e-08
3.66904e-08
5.7335e-08
1.63503e-08
6.27105e-08
-1.07162e-09
7.50506e-08
-2.98876e-08
4.73524e-08
2.91924e-08
4.46916e-09
3.32023e-08
-1.2096e-08
7.94437e-09
-2.85422e-08
4.62801e-09
-1.4949e-08
-3.70157e-08
7.00791e-08
7.56917e-08
-3.75429e-08
-2.44042e-08
-1.40495e-08
1.16176e-08
1.74416e-08
1.43144e-08
-5.23284e-08
-2.18924e-09
1.20292e-08
1.30821e-08
-6.41892e-08
1.79543e-08
-8.59225e-09
2.14715e-08
-3.54909e-08
2.80697e-08
-3.53704e-08
3.71912e-09
-3.16542e-08
-1.28453e-09
-8.47303e-08
9.89016e-10
-3.85964e-08
-7.66814e-09
-4.26035e-08
1.37327e-09
-4.28963e-08
-2.00984e-08
-1.4623e-08
-8.98827e-08
1.41866e-09
-8.42971e-08
-6.36229e-08
-1.75028e-07
-4.63717e-08
-1.31081e-07
-7.20805e-08
-1.57201e-07
-3.72957e-08
-3.07141e-08
-6.14006e-09
-1.38759e-07
-5.00073e-08
-1.302e-07
1.27258e-08
-1.41527e-07
1.71482e-08
-1.78686e-07
3.53301e-08
-2.1317e-07
2.3453e-08
-2.22276e-07
1.01519e-08
-1.89288e-07
-1.61051e-08
-1.83002e-07
-6.84448e-08
-2.21585e-07
-4.80782e-09
-2.44922e-07
-7.16871e-09
-1.21749e-07
8.06808e-09
-1.9471e-07
-6.14864e-08
-1.44868e-07
-5.16197e-08
-1.49085e-07
3.79349e-08
-1.22842e-07
-3.48377e-09
-1.15662e-07
-1.66355e-09
-1.09604e-07
-1.15198e-08
-1.01852e-07
-7.38659e-09
-1.15805e-07
-4.59577e-08
-9.87371e-08
1.58045e-08
-7.27621e-08
-4.20772e-08
-1.02929e-07
2.29248e-08
-9.61522e-08
-1.82463e-08
-9.36725e-08
-1.58473e-08
-9.12744e-08
-1.3044e-08
-6.06449e-08
-5.43985e-08
-8.68647e-08
3.03624e-08
-6.50686e-08
6.7437e-09
-8.27928e-08
-1.98558e-08
-7.9705e-08
-3.44962e-08
-1.22523e-07
3.09733e-08
-1.35366e-07
1.83182e-09
-5.6685e-09
-3.59456e-09
-1.01221e-07
-7.11494e-08
-5.15074e-08
-6.52051e-08
-4.92356e-08
-6.45234e-08
-4.61763e-08
-4.59185e-08
-3.93476e-08
-5.41282e-08
-6.06422e-08
-1.5649e-08
-7.9451e-08
-5.45744e-09
-1.41799e-07
6.63258e-09
-1.11646e-07
2.2141e-08
-1.13558e-07
5.94286e-08
-8.00577e-08
7.24525e-08
-1.22219e-07
2.05639e-08
-8.70892e-08
4.04922e-08
-1.05301e-07
1.60664e-08
1.03373e-08
3.39664e-08
-6.73923e-08
-7.09238e-08
-6.8777e-08
3.45972e-08
-4.23301e-08
-1.81551e-08
-8.2593e-08
4.31471e-08
2.70407e-08
3.09817e-08
-5.58245e-08
-1.80046e-08
-7.28355e-08
-8.79527e-09
-6.81308e-08
7.03294e-09
-6.26421e-08
9.37494e-09
-4.10058e-08
-2.40482e-08
-6.6886e-08
3.9096e-08
-6.46533e-08
1.5722e-08
-7.56276e-08
3.16746e-08
-1.33948e-07
2.63875e-08
-1.00993e-07
3.12357e-08
-1.09007e-07
6.66163e-09
-1.0905e-07
1.02283e-09
-9.69283e-08
-1.88792e-08
-8.20975e-08
-1.33225e-08
-9.79178e-08
-5.11524e-09
-4.14023e-09
-1.73932e-07
7.02876e-09
-4.60171e-09
1.80993e-08
-1.06554e-07
-1.21464e-07
-8.12966e-08
-9.8074e-08
-7.10025e-08
-4.72096e-08
-1.86718e-08
-5.84085e-08
-1.41487e-08
-5.50928e-08
-3.15952e-09
1.71866e-09
7.11754e-09
6.7981e-09
1.5919e-08
2.60107e-08
1.76487e-08
2.14099e-08
-1.20471e-08
4.03352e-08
-4.59597e-08
1.73382e-08
2.95586e-08
3.51788e-08
-1.35228e-07
-1.76384e-08
-1.1301e-07
-2.93132e-08
-9.30466e-08
-1.19784e-08
-1.12041e-07
-4.31199e-08
-4.18186e-08
5.64257e-08
-9.79327e-08
-8.14756e-08
-1.13573e-07
1.10094e-08
-9.07325e-08
-2.45046e-08
-1.10689e-07
-5.11911e-08
-9.64175e-08
3.75222e-08
6.16245e-09
2.8714e-08
-1.12416e-07
-4.21166e-08
8.05412e-09
1.55965e-08
-1.59367e-07
-4.61564e-08
-1.1927e-07
7.6204e-10
-1.27542e-07
-7.73746e-09
-1.46921e-07
4.83659e-09
-1.68316e-08
-5.3461e-09
-1.24884e-07
-3.86438e-08
-1.04925e-07
-1.31495e-08
-9.3876e-08
-3.20654e-08
-3.74631e-09
5.45167e-08
-1.15108e-07
-3.4901e-08
-7.11013e-08
-4.17492e-08
-4.07867e-08
-3.31184e-08
-6.28473e-08
-4.92261e-08
-8.19185e-08
-4.54685e-08
-9.32966e-08
-5.31451e-08
-1.44754e-07
-5.45739e-08
-1.23353e-07
-1.49471e-08
-1.48972e-07
8.44975e-09
-1.54629e-07
-1.39345e-09
-1.96723e-07
-9.46206e-09
-1.63759e-07
5.00629e-08
-1.34592e-07
3.02621e-08
-1.546e-07
3.26166e-08
-1.27121e-07
5.21892e-08
-1.09162e-07
2.2534e-08
-1.15057e-07
2.07872e-08
-1.17295e-07
3.46455e-08
-6.89339e-09
-9.11904e-10
-1.65753e-07
1.80028e-08
-3.68364e-08
2.87425e-08
-1.16952e-07
-5.1307e-08
-8.34814e-08
-3.99833e-09
-9.94171e-08
-3.26657e-09
-1.17456e-07
9.14968e-09
-1.09557e-07
2.60232e-10
-1.41249e-07
3.9626e-08
-3.5159e-08
4.90049e-08
-1.5017e-07
-2.28485e-08
-1.10839e-07
-2.38524e-08
-1.36168e-07
5.64286e-08
-1.37589e-07
2.75398e-08
-1.24268e-07
1.89891e-08
-1.06528e-07
-1.10785e-08
-9.22788e-08
-1.41681e-08
-9.79389e-08
-1.22195e-08
-8.9539e-08
-2.18565e-08
-9.30522e-08
-1.56565e-09
-8.23166e-09
-1.34932e-07
-6.50275e-09
-5.22099e-08
-3.60041e-08
-7.93786e-08
-9.17512e-08
-1.23989e-07
-5.3197e-08
-1.29326e-07
-4.18728e-08
-1.32721e-07
-5.63675e-08
-1.1961e-07
-6.69713e-08
-9.84558e-08
-1.80461e-08
-7.30582e-08
-1.96043e-08
-4.57131e-08
-1.06944e-09
-3.67968e-08
1.23363e-08
-7.00638e-08
1.3746e-08
-3.59905e-08
-1.60207e-08
-5.86151e-08
5.74441e-08
-9.48867e-08
1.86327e-08
-8.76353e-08
2.254e-08
-1.34063e-07
-2.4656e-08
9.86639e-10
5.76615e-08
-1.58827e-07
-2.01805e-08
-5.73559e-09
1.07936e-09
-1.16999e-07
-5.27192e-08
-1.20696e-07
-2.34721e-08
-3.27661e-09
1.05312e-08
-1.13839e-07
-2.91967e-08
-8.15022e-08
-3.66072e-09
-8.95572e-08
-3.54052e-08
-9.54161e-08
-3.88197e-08
-1.18562e-07
3.66929e-08
-1.07261e-07
-1.04322e-08
-9.57351e-08
-1.92635e-08
-9.55218e-08
4.62324e-09
2.59759e-08
4.9753e-08
6.42112e-09
-1.91538e-08
6.39805e-09
-1.30615e-08
1.27366e-07
2.45973e-08
3.57353e-08
-3.20875e-08
1.73507e-08
-1.68618e-08
1.61388e-08
-4.05248e-08
3.10227e-08
-4.86437e-08
-1.40056e-08
-4.23997e-09
-3.99963e-08
-1.97633e-08
-1.34016e-07
-1.86099e-08
-9.01943e-08
-3.83703e-08
-1.02921e-07
-3.14004e-09
-1.41051e-07
4.61094e-08
-1.53432e-07
1.10018e-08
-1.74471e-07
1.16743e-08
-1.82923e-07
-5.90533e-10
-1.33262e-07
3.97066e-08
-1.45372e-07
4.47264e-08
-1.2809e-07
3.49081e-08
-1.09609e-07
4.0531e-09
-1.16799e-07
2.79774e-08
-1.22649e-07
3.88903e-08
1.12124e-08
4.43789e-08
-1.53311e-07
-5.38238e-08
-1.19086e-07
-4.26781e-09
-1.14446e-07
2.04321e-09
-1.0872e-07
-1.08921e-08
-1.29506e-07
1.88407e-08
-1.1657e-07
-3.87841e-09
-1.03984e-07
-1.36543e-08
-1.49494e-07
-9.3128e-08
-1.42378e-07
4.13887e-08
-1.89517e-07
2.23578e-08
-4.29274e-08
9.23828e-09
-1.68108e-07
6.4535e-09
-1.4506e-07
4.25702e-09
-1.0041e-07
-2.56599e-08
-9.77367e-08
-1.38922e-08
-8.04035e-08
-3.15009e-08
-7.15366e-08
-2.1685e-08
-7.30812e-08
-2.05345e-08
-1.07006e-07
-2.56533e-08
4.90887e-09
-1.30698e-07
-1.19176e-08
-7.29855e-08
-6.85938e-08
-1.07409e-07
-5.5401e-08
-1.04215e-07
-5.30707e-08
-1.44668e-07
-3.53367e-10
-1.86002e-07
-1.48818e-08
-6.58797e-08
-8.42394e-09
-1.78802e-07
-8.00226e-08
-1.51804e-07
-4.89263e-08
-1.27731e-07
-2.51425e-08
-1.08017e-07
-6.21272e-09
-1.0727e-07
1.28601e-08
1.87342e-08
3.4195e-08
-1.08088e-07
-5.26914e-08
-7.88151e-08
4.84642e-08
-9.29802e-08
3.67048e-08
2.30679e-08
3.63749e-08
-6.07191e-08
-3.4076e-08
-4.71683e-08
-3.40042e-08
-2.52813e-08
-2.05501e-08
-4.99119e-08
-2.91255e-08
-1.00582e-07
-3.30307e-08
-2.22548e-08
-7.69435e-09
-5.16087e-08
-3.69523e-10
-1.01006e-07
-1.39775e-08
-7.86959e-08
1.63336e-09
1.77144e-08
4.36795e-08
-7.80693e-08
-4.24382e-08
-5.9195e-08
-3.0095e-08
-4.53552e-08
-3.37072e-08
-1.20912e-08
-2.82294e-08
-8.0313e-08
-5.75494e-08
-6.71301e-08
-3.4046e-08
-8.28552e-08
1.68511e-09
-7.46005e-08
1.6176e-08
-1.03434e-07
-3.54764e-09
-1.63743e-07
-1.6441e-08
-1.62283e-07
1.67213e-08
-4.58927e-08
1.36075e-08
-1.50608e-07
-7.79512e-08
-1.42407e-07
-2.96356e-08
-2.40735e-07
1.91825e-08
-1.21604e-07
8.25903e-08
-1.24671e-07
2.43981e-09
-2.03291e-07
-5.07949e-08
-1.78801e-07
-1.5562e-08
-1.6257e-07
-4.55616e-09
-1.47275e-07
-1.6049e-08
-1.16578e-07
9.00979e-09
-1.35689e-07
4.7812e-09
-1.28861e-07
2.80806e-08
-1.10426e-07
4.47226e-08
-1.12895e-07
3.04471e-08
-8.9211e-08
1.52062e-08
-6.59973e-08
2.07126e-08
-1.1009e-07
-9.73044e-09
-1.10611e-07
-3.74699e-09
-1.06395e-07
-2.15146e-09
-1.04923e-07
-1.2492e-08
-1.7159e-07
2.61364e-08
-1.49177e-07
3.1253e-08
-2.00856e-07
3.59543e-08
-1.48932e-08
8.12643e-08
-1.53884e-07
3.21719e-09
-1.49616e-07
1.63963e-08
2.56201e-09
3.60813e-08
-1.20275e-07
-4.61941e-08
-1.02672e-07
-1.45725e-08
-9.10291e-08
-3.75643e-08
-9.41191e-08
-1.08018e-08
-9.6813e-08
-2.81402e-08
-8.10312e-08
-3.78486e-08
-7.76724e-08
-2.47196e-08
-9.70214e-08
-6.3037e-09
-1.43322e-08
-1.50738e-07
2.25014e-08
1.09645e-09
1.44515e-08
-1.96214e-07
-4.01929e-08
-4.12095e-08
-2.40391e-08
-1.83098e-07
-3.214e-08
-1.65667e-07
-3.41626e-08
-1.40069e-07
-3.42831e-08
-1.62067e-07
-6.04696e-08
-1.57709e-07
-5.49551e-08
-1.75564e-07
-6.2993e-08
-1.12112e-07
-1.10452e-08
-1.09794e-07
9.43244e-09
-9.29171e-08
1.63697e-08
2.09774e-08
1.25562e-08
-1.07619e-07
-4.64352e-10
-7.69866e-08
6.01113e-09
-4.48483e-08
4.23614e-09
-1.02001e-07
-3.4979e-08
-2.76841e-08
-4.98133e-08
-5.93066e-08
1.07896e-08
-5.29056e-08
-3.54622e-08
-4.49554e-08
-4.01857e-08
-1.43304e-09
-5.17395e-08
-3.05477e-08
2.90263e-08
-5.32966e-08
8.45636e-09
-4.53485e-08
-5.84758e-09
-1.06372e-08
8.9849e-09
-3.21222e-08
-2.14948e-08
-3.53742e-08
-2.71502e-08
-3.26898e-08
-3.60582e-08
-4.01264e-08
-2.07929e-08
-8.6965e-08
-1.34817e-08
-8.90916e-08
-3.22553e-08
-1.19773e-07
3.54066e-08
-1.13516e-07
9.75579e-09
-1.10577e-07
-7.72348e-09
-1.3499e-07
8.13943e-09
-1.09434e-07
-8.74492e-09
-9.55224e-08
-4.4295e-10
-2.04113e-08
2.42527e-08
-4.79689e-08
-1.77551e-09
-3.90728e-08
1.04895e-08
-1.07522e-07
-2.5318e-08
-1.10789e-07
4.6576e-09
-1.16445e-07
-4.5657e-08
-1.55471e-07
2.32267e-08
-1.65734e-07
4.01602e-09
-1.85794e-07
4.0113e-09
-1.33397e-07
-4.32944e-08
-1.72476e-07
4.38607e-08
-1.61431e-07
1.87956e-08
-1.13352e-07
-3.35589e-09
-1.402e-07
5.67159e-08
-1.29071e-07
4.11937e-09
-1.25057e-07
1.66991e-08
-1.29184e-07
-5.6032e-09
-1.28383e-07
-4.54759e-09
-1.4479e-07
1.27782e-08
-8.02839e-08
4.32579e-08
-1.63067e-07
-7.28554e-09
-1.35996e-07
2.51888e-09
-1.07745e-07
7.3363e-09
-5.86411e-08
3.10152e-08
-7.51583e-08
2.05014e-08
-6.6872e-08
8.1103e-09
-3.99074e-08
8.06677e-09
-7.35398e-08
-1.30326e-08
-7.59804e-08
-1.21315e-08
-5.52809e-08
-5.88639e-08
-8.52935e-08
1.92111e-08
-1.0808e-07
-6.45621e-09
-1.14268e-07
-3.20498e-08
-8.12845e-08
-5.71199e-08
-9.94867e-08
1.18988e-08
-1.23919e-08
-1.18534e-07
-4.94925e-08
3.71955e-08
9.06634e-08
-1.41888e-07
-4.80543e-08
-8.56359e-09
2.47039e-08
-1.55662e-07
-6.19654e-08
-1.47438e-07
-4.27349e-08
-1.23407e-07
-5.83148e-08
-1.232e-07
-6.06745e-08
-1.15077e-07
-6.25185e-08
-1.02363e-07
-7.39087e-08
-7.26604e-08
-4.01258e-08
-5.77368e-08
-6.16312e-09
-4.62926e-08
4.29234e-09
1.09074e-07
3.32628e-08
-1.12519e-08
-5.55491e-08
1.97721e-08
-2.51268e-08
3.81054e-08
-1.41403e-08
4.10013e-09
-9.74111e-10
1.24503e-07
6.63208e-09
8.08158e-09
-4.96799e-08
1.24618e-09
-2.89192e-08
-1.20254e-08
-2.73029e-08
6.91752e-08
4.63817e-08
-6.29386e-08
-1.91667e-08
-5.23674e-08
-1.45138e-09
-6.49885e-08
7.36714e-09
-4.52343e-08
-1.06778e-08
-5.98574e-08
-6.87179e-09
-7.31999e-08
-1.39501e-08
-6.22426e-08
-4.79949e-08
-1.06929e-07
2.39253e-08
-1.37957e-07
1.61388e-08
3.51359e-09
6.08159e-09
-1.46908e-07
8.47749e-09
-1.41684e-07
3.15344e-09
-1.5843e-07
9.02276e-09
-1.88352e-07
-1.75052e-08
-1.3638e-07
-2.20859e-09
-1.27232e-07
-1.10955e-08
-9.42226e-08
-8.75652e-09
-6.38329e-08
-3.24965e-08
-8.73648e-08
3.3678e-08
-1.17098e-07
2.96234e-09
-1.84363e-07
1.2209e-08
-3.35489e-08
4.17459e-08
-1.52396e-07
-3.345e-08
-1.44842e-07
-5.09289e-09
-1.51566e-07
9.14896e-09
-4.61441e-08
3.0426e-08
-1.77892e-07
-1.68259e-09
-1.69647e-07
1.05508e-08
-3.94188e-08
4.41328e-08
-1.47128e-07
-1.25851e-08
-1.46823e-07
2.29878e-09
-1.19764e-07
-8.8621e-09
-1.17686e-07
-7.68061e-09
-9.46991e-08
-2.78186e-08
-1.17855e-07
3.59341e-08
-1.03969e-07
2.8931e-08
-1.13504e-07
2.17575e-09
-1.18061e-07
7.07558e-09
-1.00016e-07
-9.68777e-09
-6.37799e-08
-5.22083e-09
-7.61087e-08
3.18548e-08
-6.38657e-08
-4.0496e-09
-6.24259e-08
6.62726e-09
-8.85648e-08
1.31066e-08
-1.19876e-07
1.79573e-08
-3.86975e-09
4.31679e-09
-1.6239e-07
4.5693e-10
-1.46224e-07
-2.26226e-08
-1.97247e-07
1.74669e-08
-8.89426e-08
1.38613e-08
-2.02142e-07
-5.39212e-08
-2.86352e-08
-1.36507e-07
4.09355e-08
-7.59809e-08
5.41939e-08
-1.51176e-07
-3.24065e-08
-3.91472e-08
-1.90132e-08
-8.69796e-08
-1.41333e-08
-7.62637e-08
-5.43385e-08
-3.97473e-08
-9.4426e-08
-5.8591e-08
-4.1413e-08
-6.28864e-08
-5.75921e-08
-6.09806e-08
-7.65883e-08
-9.92357e-08
-1.89017e-09
-7.3555e-08
-3.11636e-08
-7.28274e-08
2.85032e-09
-2.95415e-08
-1.07665e-08
-5.9554e-08
-2.63727e-08
-5.39457e-08
-3.04416e-08
-5.97729e-08
-8.3983e-09
-5.75826e-08
-3.78448e-09
-4.82804e-08
-2.17796e-09
-8.62567e-08
-1.2575e-08
-1.2536e-07
7.7846e-09
-2.0525e-09
2.95197e-08
-9.46572e-08
-3.74334e-08
-9.17691e-08
-2.09348e-08
-8.5208e-08
-9.01582e-09
-1.25369e-07
-1.25747e-08
-9.68994e-08
2.01631e-08
-1.17801e-07
1.29601e-08
-1.67603e-07
3.2066e-08
-8.4243e-08
5.05216e-08
-2.39951e-07
2.22713e-09
-2.25951e-07
4.58712e-09
-1.81035e-08
-2.45132e-08
-1.78142e-07
-6.91065e-09
-1.57934e-07
-1.70546e-08
-1.5686e-07
6.18228e-09
-1.56244e-07
-1.83076e-08
-1.62488e-07
2.355e-09
-1.7149e-07
-2.09363e-09
-1.79679e-07
-6.50509e-10
-5.90706e-08
2.69241e-08
-1.57833e-07
-4.20624e-08
-1.42878e-07
-1.3602e-08
-1.2421e-07
-5.31621e-09
-7.69052e-08
-5.55908e-09
-1.02098e-07
-9.38324e-09
-1.0844e-07
1.26265e-09
-9.79622e-08
-1.3287e-09
-5.15383e-08
-1.63081e-08
-9.0981e-08
3.73789e-08
-9.48974e-08
1.44675e-08
-6.79476e-08
1.71832e-08
-8.13664e-08
7.05471e-10
-9.24158e-08
1.33249e-08
-1.16248e-07
1.51247e-08
-1.2113e-07
-4.03396e-09
-1.34504e-08
4.3644e-08
-1.48639e-07
-6.05515e-09
-1.24452e-07
4.74492e-09
-1.26529e-07
4.25283e-09
-1.29544e-07
1.00906e-08
-1.50141e-07
1.09099e-08
-1.89094e-08
4.05878e-08
-1.15517e-07
-4.70619e-08
-7.37416e-08
-4.70028e-08
-6.31656e-08
-3.94848e-09
-1.01328e-07
5.07514e-08
-1.25224e-07
4.05765e-08
4.94762e-09
5.27e-08
-1.47812e-07
-2.41481e-08
-1.54318e-07
-1.78728e-08
-1.69808e-07
3.1207e-08
-1.59472e-07
3.48898e-09
-1.94803e-07
-1.91515e-08
-2.65358e-08
-1.51693e-07
4.08634e-08
-6.12775e-08
-5.01846e-09
-1.12293e-07
2.39598e-08
3.23743e-08
2.12482e-08
-9.12595e-08
-6.75995e-08
-8.62949e-08
-5.93035e-08
2.95539e-08
-3.32618e-08
-8.25929e-08
-1.04375e-07
-9.001e-08
-5.24481e-08
1.64314e-08
-5.6048e-09
-1.18096e-07
-4.48454e-08
-1.11375e-07
-3.97448e-08
-1.45723e-07
-2.24863e-08
-9.717e-08
2.79864e-10
-1.50092e-07
-3.35111e-08
-1.41973e-07
2.06272e-08
-1.55392e-07
4.93406e-09
-1.48327e-07
-9.26523e-09
-1.60366e-07
9.96297e-09
-1.47379e-07
-2.71943e-08
-1.88314e-07
-9.13409e-09
-1.00842e-07
3.17735e-09
-1.16363e-07
-2.29308e-08
-1.237e-07
-1.64289e-08
-1.37876e-07
3.64658e-09
-1.85621e-07
3.46778e-08
-1.68366e-07
3.05446e-09
-1.70323e-07
1.84073e-08
-1.68348e-07
3.14874e-08
-1.45181e-07
2.43578e-08
-1.80228e-07
-2.18537e-08
-1.79405e-07
3.7257e-09
-7.56836e-10
3.36092e-08
-1.42389e-07
-4.08028e-08
-1.31267e-07
-2.84639e-08
-1.15237e-07
-1.10111e-08
-1.34888e-07
1.55445e-10
-1.26816e-07
-4.34041e-09
-1.30202e-07
1.31408e-09
-1.30735e-07
-1.4512e-09
-1.51117e-07
-1.11277e-08
-1.22468e-07
-1.11023e-08
-1.29231e-07
-8.08807e-09
-1.26414e-07
-8.13339e-09
-1.12385e-07
-1.96444e-08
-9.57829e-08
-2.69621e-08
-1.62714e-07
8.48021e-09
-1.42957e-07
3.96794e-08
-5.75943e-09
2.38676e-08
-1.17391e-07
-2.65133e-08
-1.06407e-07
2.28555e-09
-9.2528e-08
3.30467e-09
-9.71029e-08
5.28049e-09
-9.55316e-08
1.07792e-08
-1.47944e-07
7.82349e-09
-8.69167e-08
-4.49291e-09
-8.72506e-08
4.35328e-08
-1.06524e-07
1.32187e-08
-1.00384e-07
-1.39549e-09
-1.06465e-07
1.02298e-08
-1.02003e-07
5.62901e-09
-1.11674e-07
2.17209e-08
-7.35396e-08
2.42859e-09
-1.16756e-07
-5.12801e-09
-1.13183e-08
2.48748e-08
2.24739e-08
-3.8361e-08
-6.44989e-08
-3.77995e-08
-6.59242e-08
4.15924e-08
-3.76625e-08
2.41503e-08
-7.30872e-08
1.01471e-08
-1.30866e-07
3.99064e-08
-1.16142e-07
1.73234e-08
-1.40736e-07
2.66122e-08
-2.03202e-07
4.14176e-08
4.75812e-08
-1.60654e-07
4.15647e-08
-8.41777e-08
-4.52786e-08
-4.49421e-08
-1.00329e-08
-1.05932e-08
-1.22928e-08
-4.61514e-08
-3.20416e-08
-9.51027e-08
-6.99283e-08
-6.08605e-08
-6.68226e-08
-1.17546e-07
-5.0469e-08
-1.32664e-07
-3.7871e-08
-1.18142e-07
-1.87162e-08
-1.38901e-07
-2.5504e-08
-2.14154e-07
-2.44586e-08
-1.60664e-07
-1.44577e-08
-1.63135e-07
1.08629e-09
-5.39078e-08
3.67494e-08
-1.71995e-07
-3.80512e-08
-1.54208e-07
-1.29029e-08
-1.4382e-07
-2.13386e-08
-1.82914e-07
-1.06582e-08
-1.49015e-07
-1.22335e-10
-1.5974e-07
1.68385e-09
-1.34677e-07
-2.20792e-08
-1.51727e-07
-7.66266e-09
-1.51814e-07
-1.63424e-08
-1.61741e-07
1.50855e-08
-2.1042e-07
2.60441e-08
-1.78606e-07
2.97178e-08
-1.81326e-07
1.91172e-08
-1.58838e-07
1.08305e-08
-1.31856e-07
-2.65062e-09
-1.48281e-07
-5.26212e-09
-1.33464e-07
-1.23141e-08
-1.0574e-07
4.50889e-09
-1.27734e-07
-1.81461e-08
-1.47795e-07
-8.48894e-09
-1.41553e-07
-1.73658e-08
-1.4357e-07
2.1708e-09
-1.31031e-07
-1.6879e-08
-1.19205e-07
-1.05113e-08
-1.12906e-07
-7.7504e-09
-1.17863e-07
-6.0574e-09
-1.13965e-07
-1.51129e-08
-1.17123e-07
-4.92947e-09
-1.18096e-07
-7.16066e-09
-1.33193e-07
-4.54712e-09
-1.91458e-08
3.63055e-08
-1.81524e-07
-6.61007e-09
-1.18563e-07
-2.32818e-08
-8.29146e-08
-1.17803e-08
-1.03278e-07
-6.42029e-09
-1.04236e-07
3.24384e-09
-9.79547e-08
-2.97643e-09
-1.02588e-07
9.91444e-09
-1.08295e-07
1.64861e-08
-1.31642e-07
2.97475e-08
-8.71545e-09
5.17233e-08
-1.36038e-07
-6.43579e-09
-1.04912e-07
-1.79077e-08
-1.08644e-07
3.44592e-09
-1.02411e-07
3.99672e-09
-1.01251e-07
3.42477e-09
-8.72901e-08
8.65033e-09
-8.65323e-08
8.13522e-10
-1.09433e-07
1.67089e-08
-1.03874e-07
1.95724e-08
9.17349e-09
2.74512e-08
-1.03646e-08
-1.86346e-08
-1.13455e-07
-3.19864e-08
-9.56495e-08
5.42443e-09
-8.95537e-08
5.0275e-09
-1.2618e-07
1.81238e-08
-8.00718e-08
2.9426e-08
-6.84704e-08
1.4051e-08
-6.46022e-08
3.67523e-08
3.32927e-08
-1.30178e-07
4.78922e-08
-1.09051e-07
-4.27087e-08
-7.22238e-08
-4.4075e-08
-4.35554e-08
-3.72774e-08
-5.57823e-08
-2.01419e-08
-9.93285e-08
-2.5369e-08
-1.01967e-07
-6.70601e-09
-1.27516e-07
-2.59712e-08
-1.43892e-07
-1.98081e-08
-1.47247e-07
-1.53616e-08
-1.44194e-07
-3.00286e-08
-2.05117e-07
-2.29984e-08
-1.57408e-07
-9.69071e-10
-1.378e-07
-1.85216e-08
-1.12781e-07
1.13542e-08
-1.31502e-07
-1.95295e-08
-1.37532e-07
-8.2765e-09
-1.5648e-07
-2.39027e-09
-1.58539e-07
-6.89467e-09
-1.5591e-07
-2.75218e-09
-1.58871e-07
3.02384e-09
-1.76379e-07
-4.57163e-09
-1.67903e-07
-1.43388e-08
-1.43133e-07
-4.13686e-08
-1.24579e-07
-3.46803e-09
-1.45058e-07
4.60527e-08
-1.27317e-07
1.22802e-08
-1.23303e-07
1.61953e-08
-1.15091e-07
1.44176e-09
-1.11755e-07
-7.12648e-09
-1.02881e-07
-1.1947e-08
-1.00642e-07
-1.46777e-08
-8.99267e-08
-7.2054e-09
-9.26441e-08
-1.62084e-08
-1.04773e-07
3.6032e-09
-1.01853e-07
-1.92167e-08
-1.31615e-07
-2.71721e-08
-7.93112e-08
-1.00782e-08
-9.98394e-08
1.01203e-08
-9.78088e-08
-9.78086e-09
-9.60367e-08
-7.82928e-09
-1.14894e-07
3.70637e-09
-1.08461e-07
-1.13618e-08
-1.01863e-07
-1.37589e-08
-1.02521e-07
-3.8885e-09
-8.09732e-08
1.39318e-08
-1.47931e-07
6.33827e-10
-1.12967e-07
2.3683e-09
-1.01616e-07
-2.31308e-08
-7.67514e-08
-3.12848e-08
-1.11821e-07
3.83141e-08
-1.05487e-07
-9.31046e-09
-8.44958e-08
-1.10768e-08
-1.26737e-07
5.87279e-08
-1.15331e-07
1.8341e-08
-9.65265e-08
3.14068e-08
-1.64342e-07
1.66546e-09
-1.41556e-07
2.02958e-08
-1.37839e-07
-2.70697e-10
-1.30158e-07
-3.64351e-09
-1.31721e-07
5.03877e-09
-1.0613e-07
-1.5857e-08
-9.51238e-08
-9.22387e-09
-9.47335e-08
1.42327e-08
-1.39046e-07
4.62764e-09
-7.11111e-08
1.91518e-08
-3.56961e-08
-5.47748e-08
-7.50542e-08
6.97452e-09
-8.74147e-08
1.773e-08
-8.17288e-08
1.75679e-10
-6.6692e-08
3.76097e-09
-3.44728e-08
-2.82096e-09
-4.15528e-09
-1.65724e-08
1.16142e-08
2.06159e-08
2.13945e-08
-1.57047e-07
7.51011e-08
-8.96594e-08
-8.06264e-08
-7.76687e-08
-4.82396e-08
-7.49922e-08
-3.83695e-08
-7.87923e-08
-1.63421e-08
-9.30717e-08
-1.10899e-08
-9.22096e-08
-7.63681e-09
-1.14244e-07
-3.67217e-09
-1.19271e-07
-1.47817e-08
-1.03401e-07
-3.09165e-08
-1.02713e-07
-3.07162e-08
-9.84029e-08
-2.70747e-08
-1.09148e-07
-4.93291e-08
-1.11914e-07
4.33491e-08
-1.15109e-07
1.3374e-08
-1.2201e-07
-1.26286e-08
-1.15814e-07
-1.32287e-08
-1.22419e-07
4.23935e-09
-1.26608e-07
-2.7061e-09
-1.24242e-07
-5.11836e-09
-1.12108e-07
-9.11066e-09
-1.23385e-07
6.75166e-09
-1.44358e-07
5.1609e-09
-5.34573e-08
4.68732e-08
-4.6923e-08
-8.97854e-09
-1.43034e-07
-3.3361e-08
-1.14136e-07
-1.67416e-08
-8.18565e-08
-1.52577e-08
-6.71577e-08
-1.33911e-08
-5.84589e-08
-1.64315e-08
-3.30949e-08
-3.75246e-08
-2.17578e-08
-2.59426e-08
2.8524e-10
-2.92514e-08
2.4001e-08
-4.05734e-08
-3.61073e-09
3.11069e-08
-2.64443e-08
3.61706e-09
-5.31213e-08
-5.00086e-10
-2.75264e-08
-3.59538e-08
-1.07567e-07
3.01365e-08
-7.06544e-08
1.35088e-08
-7.52355e-08
-2.48048e-09
-6.09278e-08
-1.06011e-08
-6.33915e-08
-9.51959e-09
-5.10054e-08
-2.61449e-08
-3.04266e-08
-2.4467e-08
-4.9014e-08
3.21909e-08
-6.80183e-08
1.96318e-08
-7.16176e-08
5.96775e-09
-1.34874e-07
-1.91743e-08
7.40607e-09
6.28546e-08
-1.28312e-07
-3.24951e-09
-1.59351e-07
2.17294e-08
-2.98465e-08
3.67332e-08
-1.9032e-07
-1.70446e-08
-1.34104e-07
2.12307e-08
-1.28377e-07
2.54203e-08
-1.3762e-07
9.39176e-09
-1.41269e-07
2.37008e-08
-1.43306e-07
3.20812e-09
-1.36708e-07
-1.1636e-08
-1.70142e-07
-2.12414e-08
-1.3593e-07
1.07718e-08
-1.4404e-07
-1.21933e-09
-1.35083e-07
5.42058e-09
-1.42678e-07
1.21762e-08
-1.74455e-07
-7.98098e-09
-8.36388e-09
1.56398e-08
-9.66393e-08
-8.02738e-08
-1.03996e-07
2.38581e-08
-1.03278e-07
-5.42739e-10
-9.61535e-08
-3.29077e-09
-8.87505e-08
-1.01488e-08
-7.00591e-08
-3.54408e-08
-6.25044e-08
1.32697e-08
2.67627e-08
-1.70043e-07
-3.06473e-07
-6.50777e-08
-1.3796e-07
-7.49084e-08
-3.3355e-08
-9.26132e-08
-1.89434e-08
-9.89464e-08
-1.00093e-08
-1.05222e-07
-4.81471e-09
-1.03687e-07
-9.1724e-09
-9.37097e-08
-1.35117e-08
-1.34662e-07
-3.15606e-08
-8.76161e-08
-1.94549e-08
-8.84811e-08
-3.07454e-08
-1.14629e-07
-9.26866e-10
7.02183e-09
6.33424e-09
-1.20671e-07
-6.53779e-08
-9.98662e-08
-7.4314e-09
-7.98962e-08
2.66348e-08
-8.30578e-08
-1.00675e-08
-9.18128e-08
1.2994e-08
-9.84581e-08
3.93886e-09
-9.74009e-08
-6.17584e-09
-1.04502e-07
-2.00969e-09
-1.0472e-07
6.96888e-09
-1.03856e-07
4.29723e-09
-6.84502e-08
1.08777e-08
-6.56714e-08
-1.17576e-08
-8.93749e-08
-8.9945e-09
-7.36161e-08
-3.25006e-08
-7.08156e-08
-1.89651e-08
-6.75129e-08
-1.68304e-08
-1.0349e-07
-3.86712e-08
-6.33787e-08
-1.93232e-08
-7.14315e-08
-1.85364e-08
-6.39594e-08
-3.80627e-08
1.65411e-08
5.74797e-08
-1.1914e-07
-9.79226e-09
-1.25378e-07
7.33521e-09
-1.39571e-07
1.4985e-08
-1.50267e-08
1.83941e-08
-1.23909e-07
-3.68093e-08
-9.8415e-08
-1.31157e-08
-7.76016e-08
-2.35338e-08
-7.72238e-08
-1.10868e-08
-7.71966e-08
-9.54671e-09
-1.1278e-07
9.53609e-09
3.42872e-08
5.43088e-09
-5.7733e-08
-5.13128e-08
-7.13021e-08
3.22828e-08
-9.01779e-08
2.36822e-08
-2.70521e-08
3.67496e-08
-3.00596e-08
-5.1765e-08
-5.9648e-08
2.60758e-08
-4.69596e-08
8.43256e-09
-2.39637e-08
1.39821e-08
-4.76439e-08
6.63569e-09
-2.90223e-08
2.39504e-09
-1.58946e-08
1.24533e-08
-1.96477e-08
1.33175e-08
-8.77215e-09
1.23877e-08
-1.68005e-08
1.11472e-08
-2.25069e-08
-5.9294e-09
-2.31992e-08
-2.05417e-08
-6.37205e-08
5.06432e-08
-8.49788e-08
2.00393e-08
-1.00129e-07
2.1438e-08
-1.01406e-07
1.34535e-08
-1.14216e-07
4.82932e-09
-9.34628e-08
-5.11299e-09
-3.07836e-09
5.86929e-09
-1.07204e-07
-4.75396e-08
-9.16065e-08
-1.62994e-08
-8.2757e-08
-1.13042e-08
-1.1075e-07
1.4624e-08
1.50633e-10
3.31683e-08
-1.42277e-07
-2.17064e-08
-1.29899e-08
1.17906e-07
3.05774e-07
-7.53826e-08
3.55814e-08
-1.2102e-07
-4.30712e-08
-9.69396e-08
1.77494e-08
-1.03186e-07
-4.75176e-09
-1.00163e-07
-7.83875e-09
-1.35124e-07
-3.16155e-08
-8.0343e-08
-9.78467e-09
-8.65487e-08
-2.61749e-08
-7.43946e-08
-3.18079e-08
-7.16337e-08
-3.35066e-08
-5.7244e-08
-1.53169e-08
-3.79514e-08
-1.29587e-08
-9.79562e-08
-5.37347e-09
-9.7176e-08
-8.21193e-09
-5.98036e-08
-1.0738e-08
-4.53773e-08
-2.47466e-08
-6.79514e-08
3.52086e-08
-7.56391e-08
1.16262e-08
-8.91624e-08
7.34714e-09
-9.38934e-08
2.69356e-09
-8.61218e-08
-8.03064e-10
-8.27892e-08
1.80895e-09
-5.98952e-08
-1.20165e-08
-5.45706e-08
-1.69637e-08
-4.0634e-08
-2.29313e-08
-4.00509e-08
-3.383e-08
-5.80638e-08
-9.52317e-10
-7.14674e-08
-3.42699e-09
-1.18697e-07
7.42302e-09
-1.15806e-07
-2.24133e-08
-1.21096e-07
-1.33005e-08
-1.07229e-08
3.10265e-08
-1.28878e-07
-2.15739e-09
-1.34476e-07
-4.24993e-09
-1.27616e-07
4.00469e-10
-1.14581e-07
1.79647e-09
-9.64981e-08
3.14816e-10
-1.06325e-07
-2.62729e-08
-1.04697e-07
-1.58008e-08
-1.10899e-07
-1.86029e-08
-1.12964e-07
-7.8905e-09
-1.21447e-07
-2.32586e-09
-1.54165e-07
-1.74597e-08
-9.938e-08
1.14402e-08
2.79783e-09
2.32723e-08
-1.12723e-07
-2.65817e-08
-8.43787e-08
-4.89894e-09