/*--------------------------------*- C++ -*----------------------------------*\
  =========                 |
  \\      /  F ield         | OpenFOAM: The Open Source CFD Toolbox
   \\    /   O peration     | Website:  https://openfoam.org
    \\  /    A nd           | Version:  12
     \\/     M anipulation  |
\*---------------------------------------------------------------------------*/
FoamFile
{
    format      ascii;
    class       surfaceScalarField;
    location    "0.7";
    object      phi.water;
}
// * * * * * * * * * * * * * * * * * * * * * * * * * * * * * * * * * * * * * //

dimensions      [0 3 -1 0 0 0 0];

internalField   nonuniform List<scalar> 
7375
(
-2.02652e-07
4.07692e-08
-1.22587e-07
-3.43124e-08
-4.75061e-08
-6.5492e-08
-9.98426e-09
-3.62562e-08
1.5639e-08
-2.59537e-08
3.43191e-08
-1.85284e-08
3.79663e-08
-3.80784e-09
1.03889e-07
-8.1786e-09
7.44461e-08
3.01953e-08
7.05003e-08
3.90027e-09
8.8303e-08
-1.85141e-08
9.45683e-08
-5.36011e-09
1.02751e-07
-9.08721e-09
1.12854e-07
-1.01009e-08
1.05204e-07
8.75067e-09
1.03719e-07
1.48025e-09
9.66063e-08
8.04323e-09
6.85086e-08
2.81514e-08
4.77583e-08
2.12527e-08
1.94314e-07
3.45283e-08
6.95394e-08
-5.64649e-08
1.27893e-07
-5.83527e-08
9.1519e-08
3.73201e-08
9.02837e-08
1.19132e-09
8.6294e-08
4.01982e-09
9.50297e-08
-7.68474e-09
9.39305e-08
2.56598e-10
1.03133e-07
-1.01496e-08
1.07695e-07
-4.60256e-09
1.08898e-07
-1.19057e-09
1.16674e-07
-7.88103e-09
1.20714e-07
-2.84929e-09
1.53038e-07
-2.98185e-08
1.24498e-07
2.56385e-08
1.17836e-07
4.21452e-09
1.41158e-07
-2.19107e-08
1.75999e-07
-3.51361e-08
1.54757e-07
2.10304e-08
1.53514e-07
2.80584e-09
1.562e-07
-4.3531e-09
1.6512e-07
-7.32703e-09
1.66161e-07
2.35299e-09
1.68005e-07
-3.5084e-09
1.73658e-07
-7.26666e-09
1.80094e-07
-6.33858e-09
1.76603e-07
3.47492e-09
1.58852e-07
1.75331e-08
1.17411e-07
4.3378e-08
2.20828e-07
7.67658e-08
7.28687e-08
-3.39611e-08
7.11509e-08
1.67908e-09
7.99465e-08
-8.0227e-09
8.07728e-08
-6.7477e-10
9.33386e-08
-1.3441e-08
1.01011e-07
-7.73603e-09
1.07835e-07
-6.72256e-09
1.10409e-07
-2.54796e-09
1.10423e-07
1.14182e-09
1.02323e-07
9.10211e-09
1.0198e-07
-6.91736e-10
1.23224e-07
-2.12532e-08
7.90601e-08
4.33238e-08
5.99086e-08
1.85397e-08
2.58876e-07
-2.10534e-08
8.93456e-08
-6.87331e-09
6.05707e-08
-3.09564e-08
1.03417e-07
1.55976e-08
9.7876e-08
5.5469e-09
1.00901e-07
-2.12694e-09
9.93224e-08
1.54823e-09
1.02566e-07
-5.30274e-09
9.92656e-08
3.29979e-09
9.79892e-08
2.28412e-09
1.01857e-07
-3.81821e-09
-2.03495e-09
-8.44646e-08
3.60874e-08
-6.90357e-08
-2.21574e-08
-4.74411e-08
-8.05024e-08
-2.58073e-08
-5.76708e-08
-1.54877e-08
-3.6379e-08
-1.94273e-08
-1.46278e-08
-2.28156e-08
-1.08931e-09
8.47229e-08
5.19334e-09
-1.97161e-08
-4.41004e-08
7.69684e-09
-2.35515e-08
2.29912e-08
-3.4347e-08
3.74624e-08
-2.00085e-08
4.82456e-08
-2.00724e-08
8.98261e-08
-5.22076e-08
8.11257e-08
1.74519e-08
8.05862e-08
2.00568e-09
8.98403e-08
-1.21009e-09
9.78785e-08
2.19661e-08
5.57647e-08
3.69118e-09
1.12727e-07
3.42489e-08
4.42131e-08
1.20493e-08
1.61797e-07
-4.1538e-10
7.52346e-08
-5.11253e-08
4.14974e-08
-1.43078e-07
5.73031e-08
-1.24975e-08
6.38082e-08
-1.48335e-08
7.16666e-08
-6.9598e-09
6.8966e-08
-6.75204e-09
7.12202e-08
-7.58313e-09
6.71051e-08
2.88369e-09
5.66356e-08
3.85093e-09
3.93547e-08
1.4657e-08
1.47434e-07
4.11466e-08
3.43408e-08
-4.0349e-08
6.16039e-08
-8.35921e-08
6.59904e-08
3.16698e-08
1.76024e-07
3.07088e-08
6.75978e-08
-4.70125e-08
9.49134e-08
-2.2869e-08
7.65893e-08
1.59024e-08
7.46548e-08
-6.323e-09
1.11129e-07
-3.49074e-08
1.36972e-07
-3.07135e-08
1.6409e-07
-3.6041e-08
1.90019e-07
-3.25299e-08
2.13358e-07
-1.98991e-08
2.28597e-07
2.13933e-09
2.25804e-07
4.61993e-08
2.44828e-07
5.84711e-08
1.8041e-07
3.14355e-08
1.58423e-07
2.36657e-08
1.39568e-07
1.23219e-08
1.31545e-07
7.35578e-09
1.24494e-07
-5.12077e-09
1.215e-07
-5.93313e-09
1.518e-07
-3.90375e-08
1.31775e-07
1.76803e-08
1.35309e-07
-3.79627e-09
1.42884e-07
2.77265e-09
1.10592e-07
3.45456e-08
2.29509e-07
3.89725e-08
1.13864e-07
-1.97664e-08
7.85113e-08
-5.68928e-09
2.30504e-07
6.08418e-08
8.07233e-08
-3.22912e-08
5.46078e-08
-3.70176e-09
9.79284e-08
-2.69998e-08
6.46822e-08
3.94597e-08
4.92281e-08
1.26602e-08
7.66264e-08
-2.664e-08
4.43419e-08
2.69816e-08
4.81766e-08
-4.96725e-10
4.70738e-08
2.90579e-09
5.78599e-08
-1.4605e-08
3.00394e-09
-2.04709e-07
5.19423e-08
-1.43173e-07
-5.38024e-08
-1.3157e-07
-7.95036e-08
-1.00662e-07
-8.56082e-08
-9.22563e-08
-4.48707e-08
-8.11044e-08
-2.61955e-08
-5.57829e-08
-2.63989e-08
-5.36019e-08
2.90714e-09
-8.58673e-08
-1.18342e-08
-1.06129e-07
-4.41721e-09
-1.46179e-07
7.36276e-09
-1.47865e-07
-1.85262e-08
-2.12683e-07
-1.66981e-08
-3.83642e-08
1.20638e-08
-1.3906e-07
-5.75699e-08
-1.06857e-07
-3.05043e-08
-9.99632e-08
-1.03306e-08
-5.63095e-08
-2.20399e-08
-1.2294e-07
1.12672e-08
-5.63365e-08
2.80049e-08
-5.36762e-08
9.41666e-09
-3.34522e-08
-2.05066e-08
-1.15277e-07
2.87293e-08
3.43885e-08
6.53827e-08
-1.02007e-07
-5.55984e-08
-8.28925e-08
-3.27243e-08
-7.47896e-08
-1.43703e-08
-6.78776e-08
-1.36636e-08
-6.44828e-08
-1.10123e-08
-5.11491e-08
-1.03164e-08
-4.67806e-08
-5.62035e-10
-2.18658e-08
-1.04056e-08
2.19817e-08
-3.37823e-09
-4.88464e-08
-2.94243e-08
8.44075e-08
2.09247e-08
-3.12816e-08
-2.8382e-08
8.64708e-09
-9.54507e-09
6.61844e-09
-4.58521e-08
-3.12532e-08
1.43827e-08
1.5887e-08
-3.12382e-08
-4.26157e-09
-4.59875e-08
5.89083e-08
-3.93303e-08
6.66171e-08
-3.84227e-08
8.17062e-08
-5.14981e-08
9.94831e-08
-5.16538e-08
1.07496e-07
-2.81135e-08
1.13045e-07
-2.3151e-09
1.09902e-07
5.03271e-08
1.36727e-07
3.39843e-08
8.43636e-08
8.37983e-08
7.0604e-08
3.60856e-08
6.22754e-08
2.06503e-08
6.47977e-08
5.4687e-09
3.28892e-08
2.67247e-08
1.38415e-08
1.34539e-08
9.52454e-08
6.03042e-08
-3.76123e-08
-2.88101e-08
-4.09271e-09
-3.73129e-08
-1.59159e-08
1.45043e-08
-5.10826e-08
9.73379e-09
3.30783e-08
1.37026e-08
-8.77802e-09
2.22256e-08
-3.74502e-08
2.25649e-08
3.829e-09
1.99089e-08
-3.75803e-08
8.75309e-09
-6.03045e-08
1.80235e-08
4.40146e-08
4.78232e-08
-6.82531e-08
-2.67117e-08
-7.1393e-08
1.49424e-08
5.25155e-08
2.85938e-08
-7.2138e-08
-2.54799e-08
-4.98439e-08
-2.27914e-08
-4.76014e-08
1.5223e-10
-4.76352e-08
-1.47207e-08
3.94423e-09
-9.20402e-08
4.12145e-08
-1.24902e-07
4.15313e-09
-1.30711e-07
-6.28715e-08
-1.23393e-07
-9.1532e-08
-1.21966e-07
-4.88257e-08
-1.50271e-07
-5.63465e-08
-1.02081e-07
-1.39501e-08
-1.13822e-07
1.46483e-08
-1.3686e-07
9.80886e-09
-1.77491e-07
3.22229e-08
-1.95863e-07
2.52052e-08
-2.0988e-07
-6.61812e-10
-2.15691e-07
-8.57444e-09
-1.83049e-07
-2.07892e-08
-2.0854e-07
-3.42056e-08
-2.14086e-07
-2.74791e-08
-2.38147e-07
-4.13217e-08
-1.8855e-07
-1.24046e-08
-2.08316e-07
2.89743e-08
-1.42721e-07
-3.3664e-08
-1.34542e-07
-1.20524e-10
-1.45513e-08
3.7409e-08
-1.19085e-07
-4.3026e-08
-7.5908e-08
2.03051e-08
-1.13278e-07
-1.57306e-08
-6.56677e-08
-8.03341e-08
-9.1406e-08
1.06985e-08
-9.00218e-08
-1.51868e-08
-8.80171e-08
-1.21188e-08
-8.48757e-08
-1.35617e-08
-8.60281e-08
-2.75412e-10
-8.81454e-08
-9.38939e-09
-8.83693e-08
-4.06516e-09
-1.05703e-07
-1.00904e-08
-5.70099e-08
-2.71869e-08
-1.18805e-07
3.133e-08
-1.33204e-07
3.38213e-09
-1.2556e-08
1.44877e-08
-1.64916e-07
-6.9549e-08
-8.78006e-08
-4.84364e-08
-7.83757e-08
-5.63176e-08
-5.89068e-08
-5.81997e-08
-5.41892e-08
-4.29781e-08
-5.53794e-08
-5.03082e-08
-4.43157e-08
-6.33643e-08
-6.27546e-08
-1.07111e-08
-1.14759e-07
4.85067e-08
-1.14158e-07
4.97318e-08
3.09032e-09
9.70546e-08
-1.06146e-07
1.48328e-08
-9.85029e-08
2.84427e-08
-8.44181e-08
6.77599e-09
-4.42715e-08
-3.54917e-08
-1.156e-07
3.83391e-08
-7.39307e-08
3.25378e-08
-4.51163e-08
3.04094e-08
-8.08367e-08
6.91016e-09
3.77247e-08
2.07843e-08
-1.26623e-07
-5.6128e-08
-7.23686e-08
1.3889e-08
-6.98462e-08
9.82951e-09
-6.74163e-08
2.00246e-08
-6.07943e-08
1.64003e-08
-6.64709e-08
2.56438e-08
-5.84489e-08
8.20183e-10
-7.19165e-08
3.14908e-08
-6.24039e-08
3.71858e-08
-1.10675e-07
2.15589e-08
-1.11395e-07
1.67911e-08
-9.07126e-08
7.54283e-09
-1.05852e-07
-1.03407e-08
-1.00236e-07
-2.76184e-08
-8.10225e-08
-1.88714e-08
-8.50188e-08
-1.15516e-08
-1.73286e-09
-1.46164e-07
2.15292e-08
-1.60092e-07
-1.57018e-08
-7.24708e-08
-7.12321e-08
-7.62337e-08
-8.87023e-08
-6.90075e-08
-5.55532e-08
-5.57609e-08
-6.90176e-08
-1.51896e-08
-5.50826e-08
1.1659e-08
-1.20764e-08
1.87994e-08
2.47751e-09
2.46463e-08
2.58024e-08
2.55023e-08
2.40899e-08
-1.31631e-09
2.66969e-08
-1.54546e-08
5.40703e-09
-8.89716e-08
-6.98543e-09
-7.9512e-08
1.63481e-08
-1.01393e-07
-5.3173e-09
-1.24463e-07
-1.78284e-08
-1.26908e-07
-1.00862e-08
-1.27776e-07
-2.82536e-08
-9.79007e-08
-5.03036e-09
-8.63942e-08
-1.24989e-08
-4.99645e-08
5.98364e-10
-9.73919e-08
4.00392e-09
-6.1141e-08
-1.61522e-08
-1.12305e-07
-2.36714e-08
5.96279e-08
-1.68377e-08
-1.3496e-07
-3.11332e-08
-1.07705e-07
1.66639e-08
-1.08352e-07
-1.14717e-08
-1.09875e-07
-1.21765e-08
-1.03105e-07
-8.0977e-09
-1.59102e-07
-1.31061e-08
-1.10595e-07
8.11485e-09
-1.35667e-07
1.35614e-08
-1.33755e-08
2.93842e-08
-1.48028e-07
-7.03006e-08
-7.07439e-08
-1.46823e-08
-2.71539e-08
-2.89549e-08
-6.85603e-08
-2.71663e-08
-7.57738e-08
-4.15686e-08
-9.71328e-08
-3.43843e-08
-1.10279e-07
-4.50537e-08
-1.4255e-07
-1.17233e-08
-1.78442e-07
-1.47829e-08
-9.08628e-08
2.72623e-08
-9.22778e-08
-8.35989e-09
-1.94442e-07
-2.61976e-08
-1.60026e-07
1.48081e-08
-1.12383e-07
4.84216e-08
-1.24498e-07
2.69477e-08
-1.26174e-07
3.01179e-08
-1.36784e-07
1.59908e-08
2.05111e-09
4.86551e-09
-1.27373e-07
-1.12634e-08
-1.84653e-07
3.20075e-08
-1.00133e-07
6.26136e-09
-1.43825e-07
-7.9868e-09
-7.34398e-08
8.81844e-09
-1.19948e-07
-1.03694e-08
-9.94996e-08
-7.43265e-09
-1.11297e-07
2.14065e-08
-1.18091e-07
2.77493e-08
-1.0599e-07
3.21763e-09
-1.52667e-07
1.26065e-08
-8.94468e-08
-1.75559e-09
-1.31073e-07
7.3117e-08
-1.34113e-07
3.98187e-08
-1.31031e-07
1.82574e-08
-1.22149e-07
9.06235e-09
-9.83399e-08
-1.62666e-08
-8.4798e-08
-2.46349e-08
-9.25024e-08
-1.89709e-08
-8.3186e-08
-2.83794e-08
-6.95428e-08
-2.53346e-08
-1.26342e-08
-1.36114e-07
1.42569e-08
-1.02134e-07
-1.55657e-08
-9.04699e-08
-7.46774e-08
-1.2828e-07
-5.04838e-08
-1.28321e-07
-5.55117e-08
-1.34522e-07
-6.41882e-08
-1.32602e-07
-5.56345e-08
-7.00788e-08
-7.25276e-08
-5.50716e-08
-1.32439e-08
-3.47657e-08
5.76048e-09
-3.07581e-08
2.0015e-08
-3.41674e-08
2.97998e-08
-5.34522e-08
2.50413e-08
-7.83766e-08
1.8011e-08
-7.47006e-08
1.2673e-08
-8.03129e-08
2.95792e-10
-1.06122e-07
7.98115e-09
-1.31215e-07
-4.36514e-08
-8.65571e-08
-1.3806e-08
-1.30086e-07
-1.93297e-08
-4.96859e-08
-3.43904e-08
-6.67842e-08
1.65092e-08
-1.15717e-07
-6.77673e-09
-7.95687e-08
7.98539e-09
-1.04813e-07
5.09478e-10
3.36847e-08
2.38074e-08
-1.59797e-07
-1.54674e-08
-1.05605e-07
-3.71485e-08
-9.92106e-08
-1.76856e-08
-8.6064e-08
-2.53228e-08
-5.90889e-08
-3.50726e-08
-5.25599e-08
-7.72817e-08
1.05134e-08
-5.50645e-08
5.22675e-08
-2.80866e-08
4.22004e-08
-1.96205e-08
3.35328e-08
-2.8703e-09
4.1198e-08
-2.29959e-08
5.81829e-08
-4.6582e-08
-9.95226e-10
3.26092e-08
-2.6151e-08
-1.65788e-08
-5.94191e-08
-1.65009e-09
-9.83858e-08
-6.21411e-09
-1.30451e-07
2.16727e-08
-1.44698e-07
-1.86706e-09
-1.09974e-07
-7.66178e-09
-1.13338e-07
-4.91129e-09
-1.36767e-07
-2.76899e-09
-1.42438e-07
2.04792e-08
-1.26562e-07
3.25456e-08
-1.3305e-07
3.3435e-08
-1.32395e-07
2.94627e-08
-1.51199e-07
3.32528e-08
-2.7696e-08
6.04544e-08
-4.79666e-08
9.28964e-09
-2.12059e-07
-4.06469e-08
-1.25807e-07
-2.08211e-08
-1.36807e-07
4.40843e-09
-1.16857e-07
-1.10427e-08
-1.18171e-07
-1.02479e-08
-1.14263e-07
-1.01745e-08
-9.6473e-08
3.43451e-09
-1.35843e-07
6.61351e-08
-1.60239e-07
8.7612e-08
-1.91466e-07
4.17512e-08
-4.90847e-08
3.537e-08
-2.35255e-07
2.5768e-08
-1.48226e-07
1.11845e-08
-1.33243e-07
3.12131e-09
-9.89588e-08
-2.52221e-08
-9.27616e-08
-2.26933e-08
-7.37269e-08
-4.367e-08
-7.18503e-08
-2.13823e-08
-7.30947e-08
-2.74255e-08
-7.8391e-08
-1.92392e-08
-3.00327e-08
-1.36755e-07
2.0291e-08
-1.26457e-07
2.85018e-09
-1.30925e-07
-6.62375e-08
-1.40304e-07
-3.70557e-08
-1.40637e-07
-5.32041e-08
-1.60984e-07
-4.33981e-08
-1.98344e-07
-7.47877e-08
-9.97382e-08
-1.14514e-07
-1.34294e-07
2.00907e-08
-1.09533e-07
-1.90001e-08
-9.57082e-08
7.0949e-09
-6.75692e-08
1.36068e-09
-8.60918e-08
-1.63969e-08
-7.68889e-08
6.79139e-08
-6.73845e-08
3.1694e-09
-6.52551e-08
-1.83285e-09
-1.00489e-07
-1.48638e-08
-7.00752e-08
-1.55565e-08
-3.60368e-08
-4.85585e-08
-7.82925e-08
2.26952e-08
4.48888e-08
1.9393e-08
-6.6412e-08
-4.95041e-08
-5.9435e-08
-1.35458e-08
-5.37069e-08
1.71002e-09
-6.20955e-08
8.89854e-09
-2.44811e-08
-1.38065e-08
-9.14934e-08
-7.15201e-09
-4.99657e-08
-1.87393e-08
-4.97941e-08
-1.83615e-08
-4.78451e-08
-2.77796e-08
-5.95524e-08
-2.25277e-08
-5.52317e-08
-2.30943e-08
-7.59072e-08
-3.62539e-08
-9.1178e-08
-1.40325e-08
-1.01286e-07
-9.41559e-09
-1.08703e-07
4.47108e-09
-1.35526e-07
2.19264e-09
-2.40635e-08
2.20148e-08
-1.90464e-07
-3.68322e-08
-1.62946e-07
1.31767e-08
-1.67878e-07
1.53434e-09
-1.93096e-07
1.88074e-08
-1.82946e-07
-4.55095e-08
-1.87781e-07
6.75018e-09
-1.53336e-07
1.64005e-08
-1.42911e-07
-1.69004e-08
-1.12276e-07
-3.37489e-08
-1.27592e-07
3.57958e-08
-1.25793e-07
3.07462e-08
-1.24884e-07
3.28611e-08
-1.2236e-07
2.69383e-08
-1.21457e-07
3.23491e-08
-8.6417e-08
2.47978e-08
-7.04621e-08
-6.66535e-09
-1.0615e-07
-4.95941e-09
-1.14515e-07
-1.24559e-08
-1.10016e-07
-9.03999e-11
-1.19896e-07
-1.27623e-09
-1.38068e-07
8.00584e-09
-1.43514e-07
-6.19285e-09
-4.5619e-08
8.38531e-08
-1.72624e-07
1.45297e-08
-2.16281e-07
1.184e-08
-1.69022e-07
5.4079e-08
-1.58591e-08
6.0363e-08
-1.9563e-07
-2.87239e-08
-1.10281e-07
-1.5543e-08
-1.07027e-07
-1.25824e-09
-1.00394e-07
-3.21125e-08
-9.50975e-08
-2.79906e-08
-6.94708e-08
-6.97455e-08
-8.33312e-08
-7.52255e-09
-9.06104e-08
-2.09975e-08
-8.12798e-08
-2.85704e-08
-5.04813e-08
-1.22773e-07
-3.45859e-09
-2.01148e-07
4.28675e-08
-1.23627e-07
-6.5839e-08
-1.91122e-07
-2.27859e-08
-1.53879e-07
-3.03845e-08
-1.63709e-07
-3.51213e-08
-2.12184e-07
-3.01469e-08
1.87562e-08
1.1458e-08
-2.03548e-07
-1.08842e-07
-1.62917e-07
-6.00452e-08
-1.09276e-07
-4.6545e-08
-1.16378e-07
6.11302e-09
-1.94451e-10
4.65623e-08
-1.51221e-07
-1.74764e-08
-7.50694e-08
-1.37365e-08
-6.36031e-08
-1.31641e-08
-7.65774e-08
-1.88872e-09
-9.68777e-08
4.53947e-09
1.35731e-08
1.81678e-08
-8.33738e-08
-5.58813e-08
-2.76826e-08
-3.67729e-08
-2.24446e-08
-5.50744e-08
-4.30271e-08
7.03732e-09
-3.19579e-08
-9.89856e-09
-2.50066e-08
1.61844e-09
-2.3829e-08
-1.47382e-08
-2.92478e-08
-1.41988e-09
-2.23511e-08
-2.61252e-08
-3.2034e-08
-8.86569e-09
-4.2648e-08
-1.67302e-08
-5.04052e-08
-1.47704e-08
-7.93603e-08
3.49189e-09
-1.18275e-07
2.68826e-09
-1.24797e-07
-3.8237e-09
-9.79019e-08
-3.65852e-08
-1.14492e-07
2.00622e-08
-9.76756e-08
-1.46461e-08
-4.60048e-08
-2.98807e-08
-8.3741e-08
8.94568e-10
-9.50916e-08
-3.45779e-08
-9.36427e-08
6.94976e-11
-9.14177e-08
1.7323e-08
-8.53257e-08
7.44105e-09
-1.32636e-07
5.31898e-08
-1.42139e-07
2.60708e-08
-1.34667e-07
-2.57467e-08
-3.09722e-08
4.16983e-08
-1.65427e-07
-6.74852e-09
-1.74254e-07
3.77959e-08
-1.64244e-07
2.28509e-08
-1.49655e-07
1.40242e-08
-1.38882e-07
2.15758e-08
-1.26193e-07
1.1987e-08
-1.17263e-07
-1.5757e-08
-1.28511e-07
6.28834e-09
-1.32943e-07
-8.02391e-09
-1.34362e-07
1.32882e-09
-1.32832e-07
-4.16175e-09
-1.69233e-07
-1.54668e-08
-3.15063e-08
9.35935e-08
-1.22365e-07
-1.65976e-09
-1.0984e-07
7.57114e-10
-1.19698e-07
2.13584e-08
-8.90254e-08
2.43147e-08
-4.94686e-08
2.01963e-08
-7.87692e-08
7.17736e-11
-8.17097e-08
-1.27614e-08
-8.48846e-08
1.91643e-09
-9.75113e-08
-1.9687e-08
-1.12095e-07
-1.45511e-08
-1.51396e-08
1.24414e-08
-1.37948e-07
-6.19516e-08
-1.31098e-07
-2.81357e-08
-1.0008e-07
-6.12351e-08
4.6808e-08
-7.81297e-08
-2.64464e-08
-2.24698e-07
-5.31425e-08
-6.63712e-08
3.7247e-08
-1.78935e-07
3.21168e-08
-1.32587e-07
-1.5949e-08
-1.40903e-07
-2.71626e-08
-1.28821e-07
-4.22287e-08
-6.68322e-08
-5.01355e-08
-1.03885e-07
-7.28989e-08
-1.29451e-07
-3.41306e-08
-3.72876e-08
3.81242e-08
-3.78007e-08
6.56068e-09
2.05728e-08
-1.25431e-08
-3.95343e-08
-1.60701e-08
3.18796e-08
-2.69635e-08
3.00258e-08
-1.09876e-08
2.987e-08
-1.7131e-09
4.52708e-08
-1.08606e-08
2.57253e-08
-2.0929e-08
4.34803e-08
-1.53874e-08
3.00168e-09
3.77481e-09
9.16212e-08
3.58496e-08
-7.16598e-08
-6.76947e-08
-3.46341e-08
1.23066e-08
-3.70989e-08
4.39545e-09
-4.30453e-08
-8.26252e-09
-3.25562e-08
-1.1923e-08
-3.0451e-08
-2.8521e-08
-7.01467e-08
3.08303e-08
-9.49469e-08
8.23825e-09
-9.77086e-08
-1.22847e-08
-1.09706e-07
1.43701e-08
-1.84975e-07
1.81879e-08
-1.57629e-07
2.82142e-08
-5.34288e-08
3.75923e-08
-1.90355e-07
-1.97812e-08
-1.72385e-07
-3.29529e-08
-3.13326e-08
6.70134e-09
-1.37574e-07
-6.90857e-08
-1.05842e-07
-6.84119e-08
-1.3474e-07
2.89672e-08
-1.45524e-07
2.63536e-08
-2.95817e-08
7.07173e-08
-1.68469e-07
1.50639e-08
-2.15432e-07
1.37876e-08
-6.28386e-08
5.80796e-08
-6.11856e-08
3.96197e-08
-7.62296e-08
8.29523e-09
-2.21753e-07
-5.31003e-08
-1.58343e-07
1.83121e-08
-1.37831e-07
-6.48809e-09
-1.7295e-07
-6.45688e-10
-1.14763e-07
1.11492e-08
-1.19721e-07
-1.19818e-08
-1.06047e-07
-6.16504e-09
-1.1683e-07
2.75882e-09
-1.32948e-07
1.76269e-08
-1.46831e-07
8.22349e-09
-3.32886e-08
5.0635e-08
-9.39337e-08
-2.09495e-08
-9.73725e-08
8.03689e-10
-9.60221e-08
3.86093e-10
-1.06309e-07
3.16454e-08
-8.62396e-08
3.12828e-09
-7.41134e-08
8.27598e-09
-8.05676e-08
6.52568e-09
-8.54758e-08
-7.85348e-09
-9.76417e-08
1.30859e-08
-1.74349e-07
-2.72253e-09
-1.22234e-07
-5.78239e-09
-1.02694e-07
-7.2262e-09
-1.63392e-07
-2.9509e-09
-2.29355e-07
-2.45051e-08
-8.86711e-08
3.97107e-08
-2.82324e-08
-1.64849e-07
-6.53934e-09
-3.90569e-08
5.42318e-08
-1.35579e-07
-5.46983e-08
-1.0454e-07
8.82355e-09
-8.21863e-08
-3.83022e-08
-6.95841e-08
-4.06027e-08
-5.36736e-08
-5.75908e-08
-2.3135e-08
-7.98669e-08
-1.88685e-08
-7.72082e-08
-4.09155e-08
-1.16696e-08
-1.161e-07
-6.14551e-08
-7.19673e-08
-3.79511e-08
-6.68428e-08
-1.85813e-08
-8.88074e-08
5.21338e-09
-7.72522e-08
-3.91929e-08
-3.852e-08
-4.99477e-08
-5.54155e-08
1.51831e-08
-6.5221e-08
-1.73049e-09
-7.33185e-08
-1.20827e-08
-5.65893e-08
-3.30209e-08
-7.82465e-08
2.40819e-08
-1.12201e-07
1.04198e-08
-8.21749e-08
-3.66319e-08
-8.89825e-08
1.96902e-08
-8.61276e-08
6.04148e-10
-9.37318e-08
-1.55238e-09
-8.21875e-08
-2.48117e-08
-1.59872e-08
8.44214e-08
-1.69136e-07
3.3422e-09
-2.26857e-07
3.26168e-09
-1.93488e-07
1.87364e-08
-1.86567e-07
9.42308e-09
-2.36888e-07
9.21833e-09
-1.59361e-07
1.13028e-08
-1.32826e-07
1.06776e-08
-1.83756e-07
2.76372e-08
-1.15044e-07
7.74778e-08
-1.32841e-07
2.43164e-08
-1.94535e-07
-1.01087e-08
-6.42253e-08
-1.77579e-08
-2.33593e-07
-3.50469e-08
-1.44004e-07
-4.727e-09
-1.27648e-07
5.16433e-08
-1.29789e-07
1.85285e-08
-1.2336e-07
7.35808e-09
-5.95411e-08
-7.06957e-09
-5.99997e-08
4.0078e-08
-7.06377e-08
1.89331e-08
-1.22762e-07
-9.75889e-10
-9.22683e-08
-1.20591e-08
-9.46993e-08
-4.05735e-09
-9.45258e-08
-8.19317e-10
-7.35548e-08
-9.70813e-09
-6.08012e-08
-2.4867e-08
-8.71445e-08
2.01781e-08
-1.00489e-07
1.5078e-08
-1.57165e-07
1.45891e-08
-1.16863e-07
2.86292e-08
-8.38916e-08
1.7147e-08
-9.80065e-08
-7.04843e-09
-1.0746e-07
1.02567e-08
-1.10779e-07
3.70578e-09
-1.43767e-07
7.2432e-09
-8.51946e-08
3.06398e-09
-1.07902e-07
3.01139e-08
-1.03702e-07
2.32518e-09
-7.99777e-08
-3.15778e-08
-1.03613e-07
3.53033e-08
-1.71809e-07
5.72864e-09
-9.62324e-08
-2.07132e-08
-1.31743e-07
2.69396e-08
-1.63487e-07
2.71081e-08
-1.69272e-07
-1.87212e-08
-1.75467e-07
4.54315e-08
2.90327e-08
-1.53006e-07
4.26605e-09
-4.55914e-08
-2.29481e-08
-9.8638e-08
3.23894e-09
-1.1894e-07
-2.5505e-08
-6.22761e-08
-3.46838e-08
-4.00599e-08
-6.28183e-08
-9.69454e-08
-5.88205e-08
-3.50276e-08
-8.49404e-08
4.25585e-08
2.21638e-08
-1.29751e-07
-7.58981e-08
-9.60507e-08
-3.66768e-08
-1.00789e-07
-3.49839e-08
-1.37354e-07
1.77924e-08
-1.31307e-07
-7.71388e-10
-2.01644e-07
2.93692e-08
-6.48052e-08
-5.56474e-09
-1.80262e-07
-4.58584e-08
-1.70362e-07
-1.16292e-08
-1.86626e-07
2.30107e-09
-6.61601e-08
2.53161e-08
-1.93352e-07
-2.36387e-08
-1.67307e-07
-1.57297e-08
-4.40579e-08
1.61771e-08
-1.56577e-07
-4.51525e-08
-1.67091e-07
7.78907e-09
-1.95368e-07
2.44194e-08
-6.02276e-08
2.3091e-08
-1.67279e-07
1.60689e-08
-1.72848e-07
8.91125e-09
-1.78215e-07
6.73037e-09
-1.57376e-07
-2.29372e-09
-1.46311e-07
-1.62516e-09
-1.88428e-07
-5.90735e-09
-1.1779e-07
-8.27334e-10
-1.05876e-07
-1.24903e-09
-7.71908e-08
-1.04824e-09
-1.53329e-07
-2.52766e-08
-1.34395e-07
5.38194e-09
-1.61035e-07
1.49917e-08
-3.7282e-08
3.78142e-08
-2.23908e-07
-2.53559e-08
-5.69897e-08
6.20275e-09
-1.57366e-07
-2.3505e-08
-1.42866e-07
2.42306e-09
-1.46805e-07
9.87465e-09
-3.25804e-08
5.78476e-08
-1.35903e-07
-3.3582e-08
-1.11617e-07
-5.35329e-09
-1.52963e-07
-1.71743e-08
-1.0405e-07
-2.46469e-09
-1.10055e-07
8.8681e-10
-1.02809e-07
-8.06549e-09
-1.24011e-07
1.02277e-08
-8.67782e-10
3.11323e-08
-1.07687e-07
-5.08273e-08
-1.16711e-07
2.41014e-08
-1.17406e-07
1.51359e-08
-1.01099e-07
1.23213e-08
-8.40712e-08
1.19202e-10
-6.61746e-08
-2.49452e-08
-8.77563e-08
3.15168e-08
-9.9344e-08
1.63067e-08
-9.05915e-08
-1.49438e-09
-6.97418e-08
-1.88714e-08
-9.67797e-08
-1.95345e-09
-1.33531e-07
3.94791e-08
1.95934e-08
5.15172e-08
-9.2584e-08
-2.68378e-08
-1.0286e-07
1.41157e-08
1.09627e-08
4.35455e-08
-1.38993e-07
-5.32282e-10
-1.4428e-07
3.0337e-08
-4.56582e-08
6.1991e-08
-1.81079e-07
1.6915e-09
3.17641e-09
-1.63349e-07
4.46452e-09
-5.11101e-08
-9.92838e-08
-5.13067e-08
7.85287e-09
-6.1993e-08
-1.28786e-08
-6.34754e-08
-3.32008e-08
-7.1354e-08
-5.55866e-08
-1.00091e-07
-3.07903e-08
-1.67899e-08
1.0131e-08
-1.20523e-07
-5.1246e-08
-1.5458e-07
-4.18399e-08
-1.37487e-07
-5.5741e-08
-1.85731e-07
1.32613e-08
-1.59467e-07
-6.75787e-09
-1.62215e-07
3.22662e-10
-1.93532e-07
6.69788e-10
-1.31596e-07
-6.3641e-09
-1.35593e-07
-4.22922e-08
-1.60778e-07
1.19169e-08
-1.72467e-07
1.39909e-08
-1.36735e-07
-8.91458e-09
-1.54613e-07
-5.75994e-09
-1.50925e-07
-1.97793e-08
-1.42461e-07
6.26013e-09
-1.5436e-07
-3.40689e-08
-1.96968e-07
5.13679e-08
-2.14456e-07
4.16588e-08
-6.18496e-08
4.796e-08
-1.92095e-07
-2.92091e-08
-1.65961e-07
-1.72229e-08
-1.4321e-07
-1.61837e-08
-1.36729e-07
-8.84085e-09
-1.25521e-07
-1.39597e-08
-1.38363e-07
5.64054e-09
-1.34768e-07
-3.01925e-09
-1.39593e-07
3.61326e-09
-1.31647e-07
-9.00534e-09
-1.4198e-07
-1.4944e-08
-1.28496e-07
-8.10174e-09
-1.19896e-07
6.39158e-09
-9.41479e-08
1.16801e-08
-1.14358e-07
-5.14576e-09
-1.00252e-07
-7.90406e-09
-1.19952e-07
-4.04445e-09
-1.20564e-07
3.03481e-09
-1.11588e-07
8.98182e-10
-1.27897e-07
1.44617e-08
-1.07667e-07
5.34689e-09
-1.14969e-07
1.94841e-09
-1.18416e-07
-1.37275e-08
-1.17392e-07
-3.5139e-09
-1.13783e-07
-2.72274e-09
-8.6377e-08
-3.58369e-08
-1.17508e-07
4.09408e-08
-1.0647e-07
1.86906e-08
-1.00447e-08
3.18894e-08
-1.56621e-07
-6.63159e-08
-1.14438e-07
3.20575e-08
-1.16206e-07
1.40894e-08
-1.27518e-07
1.14305e-08
-1.63501e-09
2.65033e-08
-1.15759e-07
-2.98833e-08
-1.01025e-07
1.42215e-09
-8.98225e-08
-1.34833e-08
-7.81077e-08
-3.15122e-08
-1.03439e-07
2.3119e-08
-1.33969e-07
1.01895e-08
-9.22961e-08
1.21525e-08
-9.15686e-08
2.97468e-08
-9.77171e-08
1.94655e-08
-7.22406e-08
1.86213e-08
-9.61756e-08
2.41372e-08
-8.69163e-08
2.08662e-08
-4.64277e-08
1.97805e-08
-6.26144e-08
1.76971e-08
2.88072e-08
-1.33528e-07
1.48907e-08
7.76809e-09
-1.84958e-08
-1.01851e-07
-6.93588e-08
-6.8989e-08
-4.15836e-08
-7.23252e-08
-3.02027e-08
-7.03875e-08
-5.73912e-08
-8.62666e-08
-1.57818e-08
-1.08934e-07
3.14815e-08
-1.47778e-07
-1.12901e-08
-1.87152e-07
-4.37516e-09
-7.32642e-08
9.51458e-09
-1.99919e-07
-3.67859e-08
-1.61804e-07
-4.48718e-08
-1.53463e-07
-8.018e-09
-1.53947e-07
1.1479e-09
-1.64314e-07
2.35168e-09
-5.68529e-08
2.93892e-08
-1.86147e-07
-3.55232e-08
-1.59253e-07
-1.3045e-08
-1.55545e-07
-1.2622e-08
-1.51487e-07
-1.13628e-08
-1.77821e-07
6.55524e-09
-1.85352e-07
1.37146e-08
-9.02048e-08
5.17414e-08
-1.81291e-07
-3.21589e-08
-1.34754e-07
-6.6588e-09
-9.18861e-08
5.09236e-09
-1.15639e-07
-4.52841e-09
-1.15831e-07
-1.80177e-08
-1.07787e-07
-2.53272e-08
-9.27802e-08
-2.18014e-08
-9.53181e-08
-1.15627e-08
-9.81308e-08
7.3484e-09
-1.05027e-07
2.77688e-09
-1.01322e-07
-9.07374e-11
-9.08633e-08
-1.84302e-08
-9.89187e-08
-6.88864e-09
-6.21344e-08
-4.53489e-08
-9.15738e-08
3.58308e-08
-8.77157e-08
7.82177e-09
-9.00872e-08
-2.77447e-09
-1.01477e-07
3.45024e-09
-1.01712e-07
-3.80947e-09
-1.02669e-07
3.99186e-09
-1.07962e-07
6.19017e-09
-1.0811e-07
1.35065e-08
-1.18472e-07
1.57089e-08
-1.11891e-07
-3.42374e-09
-1.13688e-07
-1.19312e-08
-1.29107e-07
1.19054e-08
-1.41562e-07
8.28738e-09
-2.20225e-08
2.39932e-08
-1.41006e-07
-1.53777e-08
-1.2296e-07
-7.93866e-10
-1.06889e-07
1.4402e-08
-3.34978e-08
3.94353e-08
-1.64008e-07
-1.44051e-08
-1.51812e-07
1.9127e-09
-1.40607e-07
2.25258e-10
-8.79665e-08
-2.6407e-08
-1.22605e-07
4.45005e-09
-1.25739e-07
5.8391e-09
-1.28639e-07
-1.07197e-08
-1.45252e-08
3.06974e-08
-1.41393e-07
-2.58854e-08
-1.25639e-07
-5.66759e-09
-1.17993e-07
3.22424e-09
-7.94243e-08
-8.43292e-09
-7.9757e-08
1.95993e-08
-6.69246e-08
6.47129e-09
-5.42501e-08
1.201e-08
-3.76317e-08
4.28991e-09
-5.90668e-09
-1.22659e-08
3.09233e-08
-1.95054e-08
4.41725e-08
-1.04682e-07
-3.10554e-08
-3.69454e-08
-6.80611e-08
-8.87067e-08
-1.21408e-08
-1.00002e-07
-2.8478e-08
-1.24346e-07
-7.12594e-09
-3.08406e-08
2.8246e-08
-3.40158e-08
-1.21052e-08
-1.37462e-07
-4.0914e-08
-1.22256e-07
-2.78978e-08
-1.11604e-07
-1.48749e-08
-8.63514e-08
-1.58341e-08
-1.02954e-07
-2.01826e-08
-1.38548e-07
-9.27719e-09
-1.17602e-07
-2.89629e-08
-1.21178e-07
3.48788e-09
-1.33891e-07
1.50654e-08
-1.03916e-07
4.80717e-10
-1.31906e-07
-7.53239e-09
-1.30767e-07
-1.41828e-08
-1.25467e-07
-1.79219e-08
-8.93689e-08
-4.79492e-08
-1.15198e-07
3.19915e-08
-1.05132e-07
2.57657e-09
-1.1084e-07
-2.79723e-09
-1.2761e-07
-1.32834e-08
-9.75346e-08
2.17738e-08
-8.84944e-08
-3.9989e-09
-7.33882e-08
-1.88932e-08
-6.49784e-08
-2.66941e-08
-4.88643e-08
-4.18415e-08
-1.08586e-08
-6.03054e-08
-4.73871e-09
-1.77521e-08
3.07644e-09
-4.97754e-10
-2.7753e-08
3.39177e-08
6.99184e-09
-3.51149e-08
-1.18576e-08
4.95509e-10
-7.67056e-08
5.71768e-08
1.03573e-08
4.67304e-08
-9.85528e-08
-3.23497e-08
-6.19948e-08
-2.87363e-08
-6.0367e-08
-3.78658e-09
-4.83159e-08
-8.60107e-09
-4.61608e-08
-6.45773e-09
-4.50496e-08
2.88047e-09
-6.68486e-08
2.79889e-08
-5.77646e-08
4.37765e-09
-5.67851e-08
1.45689e-08
-6.5282e-08
5.07293e-09
-1.02703e-07
2.57521e-08
-1.41025e-07
-8.87748e-09
-1.00503e-07
2.65991e-08
-9.2783e-08
1.60278e-08
-1.59867e-07
-7.55552e-09
-1.24366e-07
2.25796e-08
-1.11542e-07
1.57739e-09
-9.76514e-08
2.48884e-08
-1.25523e-07
1.20631e-08
-1.49134e-07
2.52628e-08
-1.66166e-07
1.70836e-08
-5.25093e-08
3.90781e-08
-1.821e-07
-4.27391e-08
-1.59612e-07
-1.66491e-08
-1.54025e-07
-1.65852e-08
-1.20484e-07
-2.84421e-09
-1.38172e-07
-8.19773e-09
-1.33322e-07
-1.05757e-08
-1.62223e-07
-2.5325e-08
-1.12492e-07
3.44147e-10
-9.28056e-08
-1.22256e-09
-8.9251e-08
2.91635e-09
-8.32317e-08
6.05105e-09
-8.91114e-08
1.01094e-08
-1.18965e-07
1.7825e-08
2.42478e-08
1.41498e-08
-1.61225e-08
-1.25598e-07
1.03691e-07
1.96067e-08
2.43391e-08
-1.14158e-07
-6.0124e-08
-1.1831e-07
-2.29266e-08
-1.10517e-07
-1.49183e-08
-8.33454e-08
7.86855e-10
-7.21984e-08
-2.32516e-08
-1.01109e-07
-1.22948e-08
-1.01416e-07
-2.65556e-08
-8.79744e-08
-2.83156e-08
-8.04012e-08
-2.43041e-08
-8.27748e-08
-1.78083e-08
-1.25126e-07
-2.60298e-08
-9.41473e-08
-8.36382e-10
-9.18655e-08
1.20681e-09
-9.18614e-08
1.49084e-08
-9.00182e-08
-1.36187e-09
-1.02605e-07
5.05538e-09
-1.12002e-07
-4.7855e-09
-1.2337e-07
-7.81223e-09
-1.57074e-08
2.36936e-08
-1.21846e-07
-3.72352e-08
-1.01275e-07
-1.92364e-08
-9.31093e-08
-1.08236e-08
-8.68273e-08
-1.95649e-08
-7.0359e-08
6.18277e-09
-6.18179e-08
-1.25397e-08
-7.00786e-08
-1.14555e-08
-7.52957e-08
-2.1749e-08
-6.90686e-08
-4.89951e-08
-6.976e-09
5.4917e-08
-3.20741e-08
7.34615e-09
-3.69508e-08
4.41905e-09
-1.99047e-07
-4.00593e-08
-4.88039e-08
5.02051e-08
-5.96428e-08
1.13344e-08
-1.48793e-07
-3.03796e-08
-1.37848e-07
-2.23901e-08
-9.37888e-08
-1.79007e-08
-6.59497e-08
-5.75324e-08
-7.51775e-08
5.44106e-09
-6.37205e-08
-2.0146e-08
-3.69163e-08
-3.36049e-08
-5.03548e-08
1.63187e-08
-1.02768e-07
2.23456e-08
-6.7873e-08
2.79903e-08
-5.18179e-08
-2.15687e-09
-5.08811e-08
3.58038e-09
-9.71149e-08
1.21463e-08
-7.46603e-08
2.9525e-08
-5.04479e-08
2.36268e-09
-3.79239e-08
2.98888e-09
-5.07739e-08
5.81225e-09
-2.94691e-08
1.2746e-09
4.51971e-09
-3.27584e-08
1.92259e-08
9.9878e-09
-7.15807e-09
3.87133e-08
-6.89738e-09
2.46745e-08
-1.11537e-08
2.12693e-08
-7.96588e-09
3.54913e-08
-5.81424e-08
7.51385e-09
-7.51689e-08
-3.89626e-10
-8.97123e-08
-2.0421e-09
-9.77357e-08
6.09408e-09
-1.00853e-07
-5.08092e-09
-9.65832e-08
-1.48456e-08
-9.27987e-08
-2.91099e-08
-1.2382e-07
-2.64732e-08
-7.62862e-08
9.7515e-09
-7.87429e-08
5.3977e-09
-7.13739e-08
-5.97701e-10
-8.14686e-08
1.76587e-08
-1.33891e-07
8.96851e-09
-7.41178e-08
1.63799e-08
9.09905e-09
-1.72743e-07
-5.12169e-08
-6.44374e-08
-4.53119e-08
-1.35109e-07
1.6276e-08
-1.12189e-07
-4.26858e-08
-1.06028e-07
-2.22237e-08
-9.10251e-08
-1.42154e-08
-9.12494e-08
-2.18726e-08
-7.76278e-08
-2.59158e-08
-7.61556e-08
-2.88191e-08
-6.87847e-08
-3.59747e-08
-7.56192e-08
-1.7469e-08
-7.29736e-08
-2.04532e-08
-8.46642e-08
-1.43385e-08
-8.23434e-08
-3.15645e-09
-7.53631e-08
-5.77284e-09
-6.49181e-08
4.46403e-09
-8.09997e-08
1.48721e-08
-8.14656e-08
5.46623e-09
-8.4852e-08
-1.39846e-09
-8.66241e-08
-6.03952e-09
-6.83795e-08
5.15525e-09
-8.28992e-08
-2.30949e-08
-7.88096e-08
-2.25215e-08
-6.7606e-08
-2.20267e-08
-3.62477e-08
-5.12427e-08
-4.20277e-08
1.18436e-08
-4.72421e-08
-7.88161e-09
-6.51067e-08
6.40944e-09
-9.74074e-08
9.55821e-09
-9.69776e-09
4.28799e-08
-1.04693e-07
-2.73032e-08
-6.54092e-08
-3.29411e-08
-1.46866e-07
2.61616e-08
-1.50975e-07
2.4653e-08
-1.13223e-07
1.23276e-08
-1.0349e-07
1.4858e-09
-1.22513e-07
-1.13568e-08
-1.28068e-07
-1.70092e-08
-1.33363e-07
-1.27886e-08
1.34493e-09
-1.50791e-08
-1.40576e-07
-2.99529e-08
-1.16939e-07
-4.54394e-08
-2.99901e-08
5.85879e-08
-1.3177e-07
-5.95176e-08
-1.28411e-07
1.89861e-08
-1.44898e-07
-1.28634e-08
-8.18707e-08
-5.84983e-09
-5.7839e-08
-2.06942e-08
-7.42035e-08