/*--------------------------------*- C++ -*----------------------------------*\
  =========                 |
  \\      /  F ield         | OpenFOAM: The Open Source CFD Toolbox
   \\    /   O peration     | Website:  https://openfoam.org
    \\  /    A nd           | Version:  12
     \\/     M anipulation  |
\*---------------------------------------------------------------------------*/
FoamFile
{
    format      ascii;
    class       volVectorField;
    location    "0.7";
    object      U.water_0;
}
// * * * * * * * * * * * * * * * * * * * * * * * * * * * * * * * * * * * * * //

dimensions      [0 1 -1 0 0 0 0];

internalField   nonuniform List<vector> 
3750
(
(0.00285882 -0.0288964 0)
(-0.00532647 -0.00963227 0)
(-0.00475429 -0.00998145 0)
(-0.00316183 0.000982169 0)
(-0.00379299 -0.00241264 0)
(-0.00132372 0.00560975 0)
(-0.00300844 0.00660371 0)
(-0.00550734 0.00623087 0)
(-0.00295171 0.00197812 0)
(-0.0005961 0.00556304 0)
(-0.000914379 0.00801899 0)
(-0.000283456 0.00761928 0)
(0.00103619 0.01108 0)
(0.000825107 0.0110779 0)
(0.001703 0.0107146 0)
(0.000111142 0.0107689 0)
(0.00119587 0.00981199 0)
(0.000658024 0.00940151 0)
(-0.000947594 0.0107531 0)
(0.00260344 0.00961164 0)
(0.00161538 0.00651097 0)
(-0.000354027 0.00563764 0)
(0.000982765 0.0062117 0)
(-0.00147666 0.00740131 0)
(0.00119644 0.00927273 0)
(-0.000378769 0.00932134 0)
(0.000296924 0.00915641 0)
(-0.000720432 0.0102595 0)
(-0.00015713 0.0101535 0)
(-0.000294147 0.0108745 0)
(-0.000708071 0.011034 0)
(-5.20178e-05 0.0124094 0)
(-0.000119456 0.0117564 0)
(-0.00101577 0.013799 0)
(-0.00219985 0.0157015 0)
(0.00122584 0.0147077 0)
(0.000562577 0.0142048 0)
(-0.0004192 0.0147033 0)
(-0.000195579 0.0148372 0)
(-0.00102743 0.015715 0)
(-0.000587614 0.0174413 0)
(0.000812637 0.0177604 0)
(0.000679423 0.0179125 0)
(0.000769646 0.0178019 0)
(0.00121443 0.0172072 0)
(0.00142693 0.0181452 0)
(0.00161191 0.0170813 0)
(0.00174618 0.0140794 0)
(0.000943614 0.011528 0)
(-0.00160615 0.00815277 0)
(-0.000547508 0.00640076 0)
(-0.0011757 0.00737471 0)
(-8.28907e-05 0.00801582 0)
(-0.00122142 0.00909383 0)
(8.12578e-05 0.00949847 0)
(0.00072295 0.0102319 0)
(0.000783459 0.0109902 0)
(0.00168891 0.0110784 0)
(0.000623596 0.0123035 0)
(-0.000160304 0.011976 0)
(0.000622343 0.008742 0)
(-0.000121959 0.00986951 0)
(-0.00266053 0.0126134 0)
(0.000340399 0.0106866 0)
(0.000188758 0.00868192 0)
(0.000675811 0.0134294 0)
(-0.0024099 0.0130003 0)
(-0.00156251 0.00752377 0)
(-0.00129259 0.00897088 0)
(-0.000394794 0.00772707 0)
(-0.000204954 0.00897058 0)
(-0.000574255 0.00960082 0)
(-7.11886e-05 0.0100797 0)
(4.37743e-05 0.0108497 0)
(-0.000479738 0.011312 0)
(0.00333731 -0.0114495 0)
(-0.00175842 -0.00245456 0)
(-0.00831745 -0.00661266 0)
(-0.00456857 -0.00132996 0)
(-0.00108887 -0.00436644 0)
(-0.00119222 0.00241214 0)
(-0.000253975 -0.00329705 0)
(-0.0030987 0.00204625 0)
(-0.00183293 0.000510359 0)
(-0.000519367 0.000716827 0)
(-0.00234305 0.000542661 0)
(-0.00255244 0.0033096 0)
(-0.0040439 0.00665345 0)
(0.000608478 0.00766074 0)
(-0.000487583 0.00715083 0)
(-0.00101075 0.00833826 0)
(-0.000932169 0.0101252 0)
(0.000738102 0.00828152 0)
(-0.000537183 0.0134409 0)
(0.0021341 0.01238 0)
(0.000864079 0.00371532 0)
(-0.00115233 0.00422827 0)
(0.00150065 0.00466496 0)
(-0.00135784 0.00506346 0)
(-0.0013215 0.00662547 0)
(-0.00144909 0.00543796 0)
(-0.000248296 0.00687752 0)
(-0.000677504 0.0076561 0)
(-0.000932898 0.00759847 0)
(-0.000108921 0.00634621 0)
(-0.00114531 0.00693635 0)
(-4.6371e-05 0.00684343 0)
(-0.000839041 0.00564044 0)
(-0.00127159 0.00667001 0)
(0.00106992 0.0118707 0)
(-0.000288592 0.010673 0)
(-0.000565788 0.00679855 0)
(-0.00154975 0.00825733 0)
(-0.00115191 0.00871268 0)
(-0.000225487 0.00786508 0)
(-0.00131606 0.00976352 0)
(0.00163196 0.011229 0)
(-0.000121915 0.0126559 0)
(-0.0016098 0.0152213 0)
(-0.00184649 0.0174694 0)
(-0.000572106 0.0196397 0)
(0.00150297 0.02225 0)
(0.00440929 0.0219047 0)
(0.00477568 0.0199808 0)
(0.0022801 0.0183034 0)
(0.00167004 0.0162252 0)
(-0.000393412 0.014212 0)
(-0.000556943 0.0135697 0)
(-0.00229184 0.0129719 0)
(-0.000399865 0.0139666 0)
(-0.00113735 0.0130386 0)
(-0.00203677 0.0132429 0)
(-0.00256415 0.0135052 0)
(-0.00135501 0.0147768 0)
(-0.00212718 0.0176341 0)
(0.00286908 0.0161944 0)
(0.00324568 0.0135839 0)
(0.000350284 0.017705 0)
(-0.000268845 0.0146562 0)
(0.00326737 0.00751207 0)
(0.00266636 0.0100056 0)
(0.000195591 0.00888647 0)
(-0.000261587 0.00568802 0)
(9.06707e-06 0.0051573 0)
(0.000658735 0.00506123 0)
(-0.00122739 0.0041654 0)
(-0.000131562 0.00357745 0)
(2.80401e-05 0.00605208 0)
(-0.00116021 0.00595897 0)
(-0.000596158 0.00708119 0)
(0.00102159 -0.0466346 0)
(-0.00677485 -0.00438867 0)
(-0.00793274 -0.0164638 0)
(-0.00708426 -0.00643023 0)
(-0.00500635 -0.0120703 0)
(-0.0048643 -0.00701225 0)
(0.000603364 -0.00766362 0)
(0.00108457 -0.00600711 0)
(-0.00108592 -0.00712932 0)
(-0.00183267 -0.00832824 0)
(-0.00210406 -0.0112422 0)
(-0.00150575 -0.0141893 0)
(-0.00137225 -0.0101355 0)
(-0.000984133 -0.0100593 0)
(-0.00177384 -0.0135736 0)
(-0.0015184 -0.0105247 0)
(-0.00332372 -0.00850545 0)
(0.00328847 -0.00616652 0)
(0.00365175 -0.000652236 0)
(0.000417396 -0.0012654 0)
(0.0014457 -0.0075271 0)
(0.00077034 -0.00626873 0)
(0.00147068 -0.00623587 0)
(-0.000414532 -0.00842984 0)
(-0.00153381 -0.00802183 0)
(-0.000840582 -0.00848564 0)
(-0.000566984 -0.00677354 0)
(0.000114812 -0.0066307 0)
(-0.000787583 -0.00549037 0)
(1.03196e-05 -0.00573861 0)
(0.000106209 -0.0046583 0)
(-2.2289e-05 -0.00320846 0)
(0.000390923 -0.00322932 0)
(-0.000182039 0.00345868 0)
(0.000257758 0.00417322 0)
(-0.00367097 6.5164e-05 0)
(-0.00205076 -0.00059554 0)
(-0.00131137 -0.00105658 0)
(-0.00347714 -0.000679175 0)
(0.00106386 -0.00226144 0)
(-0.000860184 0.0038211 0)
(-0.00334153 0.00558545 0)
(-0.00324678 0.00488352 0)
(-0.00460838 0.00745069 0)
(-0.00362623 0.00859371 0)
(-0.00349462 0.00999905 0)
(-0.00125384 0.0098276 0)
(0.00266234 0.0103565 0)
(0.00533474 0.00901291 0)
(0.00401753 0.0081278 0)
(0.00237643 0.00703852 0)
(0.00186292 0.00567746 0)
(0.000512321 0.0036744 0)
(-0.00147657 0.00647134 0)
(0.00188463 0.00622759 0)
(0.0014051 0.00235295 0)
(0.00064099 -0.000250394 0)
(-0.00102332 -0.00114673 0)
(-0.00245958 -0.0014628 0)
(0.00327266 0.00298058 0)
(0.00220859 0.00184299 0)
(0.00220318 -0.00195315 0)
(0.00312168 -0.00100119 0)
(-0.00145945 0.00074375 0)
(0.00133932 -0.0027146 0)
(0.00140716 -0.00174836 0)
(0.000960549 -0.00159405 0)
(-6.16157e-05 -0.00375171 0)
(0.000374544 -0.00193005 0)
(-0.000483969 -0.00413981 0)
(0.000446843 -0.00269844 0)
(-0.00127177 -0.00364767 0)
(0.000169756 -0.00479429 0)
(-0.00197588 -0.00418935 0)
(-0.00102652 -0.00347954 0)
(0.00151232 -0.0169192 0)
(-0.00654704 -0.00366863 0)
(-0.00503138 -0.0130909 0)
(-0.00789547 -0.00977502 0)
(-0.0041937 -0.0137441 0)
(-0.00181672 -0.00605685 0)
(-0.000170808 -0.00879929 0)
(0.00296396 -0.0109208 0)
(0.00173547 -0.0137839 0)
(0.0025442 -0.0149652 0)
(0.00249909 -0.0194825 0)
(0.000315056 -0.0214747 0)
(-0.000103083 -0.0194229 0)
(-0.00704193 -0.0192237 0)
(-0.00219322 -0.0203024 0)
(-0.00277486 -0.0226367 0)
(-0.00243037 -0.0183604 0)
(-0.00225295 -0.0165378 0)
(0.000734474 -0.0150046 0)
(-0.000192869 -0.0102754 0)
(6.08448e-06 -0.0126881 0)
(0.000762454 -0.0118374 0)
(-0.00124053 -0.0114021 0)
(0.000198522 -0.0111599 0)
(-0.00129129 -0.00671759 0)
(-7.28154e-05 -0.00860605 0)
(-0.00294186 -0.00836734 0)
(-0.000825121 -0.00838553 0)
(-0.0010956 -0.00870667 0)
(-0.00268605 -0.0086579 0)
(-0.00195231 -0.00868469 0)
(-0.00585512 -0.0075168 0)
(0.000983146 -0.0083101 0)
(0.000324077 -0.00577388 0)
(-0.0023254 -0.0064823 0)
(-0.00236434 -0.00893589 0)
(0.00135808 -0.00995762 0)
(0.000192246 -0.0117349 0)
(-0.00213607 -0.00823616 0)
(-0.00263903 -0.00610408 0)
(-0.00296847 -0.0067514 0)
(-0.00581994 -0.00396513 0)
(-0.00466306 -0.00440093 0)
(-0.00368945 -0.00403971 0)
(-0.00212703 -0.00537251 0)
(-0.00133436 -0.00745319 0)
(0.00134849 -0.00891764 0)
(0.00419021 -0.0088148 0)
(0.00623089 -0.0106219 0)
(0.00519425 -0.00974856 0)
(0.00361909 -0.00760325 0)
(0.00192197 -0.00784004 0)
(0.000445916 -0.00992954 0)
(-0.000743725 -0.00482015 0)
(-0.00127047 -0.00161366 0)
(0.00482242 -0.00600293 0)
(0.000482296 -0.00523496 0)
(0.00288636 -0.00623034 0)
(-0.000516702 -0.00244326 0)
(0.00269945 -0.000899943 0)
(-0.00400288 -0.00668725 0)
(0.00132818 -0.00708038 0)
(0.0014964 -0.00473785 0)
(-0.000216724 -0.00573584 0)
(0.00070711 -0.00565828 0)
(0.000824649 -0.00474705 0)
(0.00164951 -0.00648565 0)
(0.00240125 -0.00844077 0)
(0.00128898 -0.00891267 0)
(0.00078746 -0.00981047 0)
(0.00115488 -0.0114289 0)
(-0.000978535 -0.0105961 0)
(0.000270642 -0.0084944 0)
(-0.000701944 -0.00874668 0)
(-0.00135346 -0.00824611 0)
(0.000720429 -0.0277694 0)
(-0.000718592 -0.00240177 0)
(-0.0077659 -0.00713643 0)
(-0.00945093 -0.00825635 0)
(-0.00297891 -0.00803398 0)
(-0.0040624 -0.00511135 0)
(-0.00504555 -0.00236178 0)
(0.00146649 0.00129299 0)
(0.00167353 -0.000886344 0)
(0.00383244 0.00240913 0)
(0.00226072 0.0018749 0)
(0.00121635 -9.56623e-06 0)
(-0.000386929 -0.00202662 0)
(-0.00173601 -0.00157773 0)
(-0.00113076 -0.00373291 0)
(-0.00146268 -0.0100215 0)
(-0.000746045 -0.0109379 0)
(-0.00481567 -0.00919516 0)
(-0.000479739 -0.00599625 0)
(-0.00324299 -0.00709946 0)
(-0.000187783 -0.0102455 0)
(-0.00153142 -0.00971287 0)
(-0.00287302 -0.00774082 0)
(0.00246962 -0.00690685 0)
(4.85565e-05 -0.00415225 0)
(-0.00142134 -0.00591876 0)
(-0.00201608 -0.00513351 0)
(-0.000455813 -0.00543776 0)
(-0.000401635 -0.0101125 0)
(6.03046e-05 -0.0116764 0)
(0.000606735 -0.0134298 0)
(-0.000800111 -0.00729112 0)
(0.00131551 -0.00630078 0)
(0.00137296 -0.0107514 0)
(-0.00209235 -0.009228 0)
(0.000658737 -0.00453648 0)
(0.000369931 -0.00584094 0)
(-0.00262566 -0.00849106 0)
(-0.00292371 -0.00466501 0)
(-0.00630814 -0.004537 0)
(-0.00551861 -0.00604563 0)
(-0.00626528 -0.00723618 0)
(-0.00435182 -0.00952572 0)
(-0.00345623 -0.00976939 0)
(-0.000283809 -0.0135492 0)
(3.25767e-05 -0.0152684 0)
(-0.000487097 -0.0158871 0)
(0.00134142 -0.0152577 0)
(0.00265466 -0.0143019 0)
(0.00409667 -0.0116659 0)
(0.00204319 -0.00908808 0)
(0.00119752 -0.0102719 0)
(0.00099278 -0.0115765 0)
(0.00325558 -0.0112744 0)
(-0.00376186 -0.00554024 0)
(0.000536748 -0.00871277 0)
(-0.000810726 -0.0105148 0)
(0.000288234 -0.0078681 0)
(0.00222043 -0.00873538 0)
(-0.000681991 -0.0103037 0)
(0.00128619 -0.00863366 0)
(0.0009409 -0.00828958 0)
(0.00166591 -0.012356 0)
(-3.95312e-05 -0.00781325 0)
(0.00139255 -0.00926776 0)
(0.000368155 -0.0104773 0)
(0.00481622 -0.0102634 0)
(0.00295168 -0.0127332 0)
(0.00240374 -0.0115654 0)
(-3.28347e-05 -0.0106378 0)
(-0.00115576 -0.00977785 0)
(-0.00112724 -0.00720789 0)
(-0.00179277 -0.00761983 0)
(-0.00077175 -0.00773682 0)
(0.000306827 -0.00711881 0)
(-0.000308938 -0.0227045 0)
(-0.00168807 -0.00318683 0)
(-0.0112946 -0.00748432 0)
(-0.00817997 -0.00817261 0)
(-0.00481145 -0.0117329 0)
(-0.00609668 -0.0139985 0)
(-0.00487294 -0.00996211 0)
(-0.000474565 -0.0079052 0)
(-2.23922e-05 -0.00959872 0)
(0.00159282 -0.00402061 0)
(0.000811413 -0.00469198 0)
(0.00296413 -0.00362492 0)
(0.000688129 -0.00385808 0)
(0.00398058 -0.00449849 0)
(0.00176101 -0.00741103 0)
(-7.68187e-05 -0.00929954 0)
(-0.00145107 -0.00761914 0)
(0.00184643 -0.00456139 0)
(0.00082239 -0.0054882 0)
(-0.00310652 -0.00465382 0)
(-0.000665205 -0.0074655 0)
(-0.00297614 -0.0105823 0)
(-0.000830809 -0.0054622 0)
(-0.000736356 -0.00600503 0)
(0.000120271 -0.00807736 0)
(-0.00230008 -0.0092897 0)
(-0.000680104 -0.00710291 0)
(0.0011694 -0.00765832 0)
(0.000223643 -0.0103164 0)
(-0.001844 -0.00986714 0)
(0.000428672 -0.00894118 0)
(0.00178191 -0.00310509 0)
(-0.00321879 0.000968134 0)
(-0.00179342 0.00163024 0)
(-0.00124742 0.00612753 0)
(0.000292544 0.00699601 0)
(-0.00319398 0.00218776 0)
(-0.00377047 0.00163651 0)
(-0.00379268 0.0027098 0)
(-0.00384091 0.00115394 0)
(-0.0026623 -0.00368228 0)
(-0.00423894 -0.00572799 0)
(-0.00158375 -0.00799205 0)
(7.32251e-05 -0.00955116 0)
(0.00301872 -0.0111375 0)
(0.000611789 -0.0152037 0)
(0.000489827 -0.0147514 0)
(0.00144883 -0.0126295 0)
(0.00226943 -0.0120045 0)
(0.00343457 -0.0131926 0)
(0.00311143 -0.0127672 0)
(0.00196529 -0.0113329 0)
(0.00297692 -0.0107701 0)
(0.00405795 -0.0124026 0)
(0.0021509 -0.0066187 0)
(-0.00108217 -0.00622788 0)
(0.00184644 -0.0121903 0)
(-0.00179219 -0.0122047 0)
(-0.000591575 -0.0117957 0)
(-0.00107129 -0.0102131 0)
(0.000822236 -0.0117285 0)
(-0.00279814 -0.011365 0)
(-0.00242031 -0.0116716 0)
(0.00427332 -0.0140302 0)
(9.09985e-05 -0.0158229 0)
(-0.000475552 -0.0118895 0)
(0.00291885 -0.0113083 0)
(0.000377877 -0.0125624 0)
(-9.04902e-05 -0.0100962 0)
(-0.0016956 -0.00937345 0)
(-0.00190196 -0.00800347 0)
(-2.82035e-05 -0.00842519 0)
(-0.00230046 -0.00686885 0)
(-9.79992e-05 -0.00631087 0)
(0.000624155 -0.00566018 0)
(-0.000186155 -0.0225233 0)
(-0.00491226 -0.00519429 0)
(-0.00725834 -0.0106837 0)
(-0.00389662 -0.0088785 0)
(-0.00118746 -0.0133284 0)
(-0.00185164 -0.0167453 0)
(-0.00423528 -0.0119619 0)
(-0.00581211 -0.0125043 0)
(-0.00373596 -0.0169377 0)
(-0.00130424 -0.0129191 0)
(0.00104179 -0.0101947 0)
(0.00128977 -0.00870941 0)
(0.00120569 -0.00560396 0)
(-0.000605921 -0.00136706 0)
(0.0015119 -0.00641964 0)
(0.00222817 -0.00827812 0)
(0.00119129 -0.00328439 0)
(0.000200929 -0.00180584 0)
(-0.00139926 -0.00595886 0)
(-0.000875726 -0.00267882 0)
(-0.00523624 -0.00393631 0)
(-0.00131538 -0.00531281 0)
(0.000473678 -0.00284059 0)
(-0.000832759 -0.00464628 0)
(0.000474466 -0.00500317 0)
(-0.00105197 -0.00661771 0)
(0.0010734 -0.00321615 0)
(-0.00209581 -0.00341625 0)
(-0.00224362 -0.00740792 0)
(-0.0027577 -0.00370858 0)
(-0.00200321 -0.0023183 0)
(-0.00198821 -0.0047272 0)
(-0.00419578 -0.0066486 0)
(-0.000694442 -0.00767991 0)
(0.0027672 -0.00726233 0)
(-0.000588653 -0.00844703 0)
(-0.000740819 -0.0105889 0)
(-0.00103042 -0.0120938 0)
(-0.00115245 -0.0100392 0)
(-0.00248771 -0.0105977 0)
(-0.00196179 -0.0134189 0)
(0.001504 -0.0148193 0)
(0.00104468 -0.0141889 0)
(1.0805e-05 -0.0123031 0)
(-0.000501493 -0.0166015 0)
(-0.000172235 -0.0189549 0)
(0.000911484 -0.016528 0)
(-0.000689131 -0.0154555 0)
(0.0016434 -0.0132783 0)
(0.00151735 -0.011508 0)
(0.00306806 -0.011445 0)
(0.00175442 -0.0114667 0)
(0.00237295 -0.0107208 0)
(0.0023561 -0.0104123 0)
(0.00356844 -0.00729574 0)
(-0.00228705 -0.00748312 0)
(-0.000904514 -0.0115387 0)
(-0.00133972 -0.011214 0)
(-0.00233207 -0.00939353 0)
(0.00235586 -0.011264 0)
(0.000506225 -0.0137093 0)
(0.00189997 -0.0152464 0)
(-0.000578035 -0.00931886 0)
(0.00210907 -0.00828051 0)
(0.00168123 -0.0142222 0)
(0.00164286 -0.00654876 0)
(-0.0023248 -0.0064422 0)
(-0.000816448 -0.0115916 0)
(-0.00402333 -0.00933478 0)
(-0.00106266 -0.00977664 0)
(-0.00334366 -0.00671187 0)
(-0.00274829 -0.00737904 0)
(-0.00228737 -0.00848219 0)
(-0.000660384 -0.00607803 0)
(-0.000593804 -0.00661455 0)
(-0.00235062 -0.0213695 0)
(-0.00421064 -0.00173585 0)
(-0.00398288 -0.00982917 0)
(-0.00433438 -0.00763945 0)
(-0.00203256 -0.0116211 0)
(-0.00279417 -0.0157875 0)
(-0.00210947 -0.0143305 0)
(-0.00703825 -0.0140826 0)
(-0.00494957 -0.0168111 0)
(-0.00344768 -0.0125127 0)
(-0.000128819 -0.0123167 0)
(-2.73308e-05 -0.010398 0)
(0.00241431 -0.00857478 0)
(-0.000949367 -0.00367196 0)
(0.00174569 -0.00286132 0)
(0.00233597 -0.00697595 0)
(0.001215 -0.00695402 0)
(-0.00227606 -0.00424857 0)
(-0.00406516 -0.00408825 0)
(4.93513e-05 -0.00441548 0)
(-0.00222678 -0.00511445 0)
(-0.0028746 -0.00393419 0)
(-0.00327455 -0.00233111 0)
(0.000477442 -0.00100197 0)
(3.64004e-05 -0.00314804 0)
(0.000111661 -0.00390807 0)
(0.00166686 -0.00266358 0)
(-0.00368682 -0.00266948 0)
(-0.00246995 -0.0027478 0)
(-0.00258363 -0.00275982 0)
(-0.00175946 -0.0026411 0)
(-0.00310137 -0.00669439 0)
(-0.00386184 -0.00706962 0)
(0.00261826 -0.00813382 0)
(0.00148817 -0.0118052 0)
(-0.000839985 -0.0113969 0)
(-0.000547126 -0.0111739 0)
(0.00100328 -0.0115572 0)
(0.000383444 -0.00926471 0)
(-0.00300285 -0.00610624 0)
(-0.00173892 -0.00298283 0)
(0.00126955 -0.00303617 0)
(0.00239983 -0.007635 0)
(-0.00180252 -0.0094206 0)
(-0.00559333 -0.0098371 0)
(-0.000310431 -0.0137239 0)
(-0.00120878 -0.0155049 0)
(-0.00198752 -0.0145287 0)
(-0.00207031 -0.0128225 0)
(0.00215195 -0.0155287 0)
(0.00208462 -0.0157967 0)
(0.00187195 -0.0141814 0)
(0.0043845 -0.011267 0)
(0.00107114 -0.0125323 0)
(0.00237997 -0.0124555 0)
(-0.00107254 -0.0111707 0)
(0.0002924 -0.0114352 0)
(0.0017614 -0.0133241 0)
(0.00165281 -0.00840761 0)
(0.000894568 -0.00954577 0)
(0.000774523 -0.0151145 0)
(0.00180609 -0.012102 0)
(0.0041495 -0.00862793 0)
(0.000245542 -0.00479717 0)
(0.00114997 -0.00641622 0)
(0.00224735 -0.00501102 0)
(-0.00308633 -0.00516766 0)
(-0.00119918 -0.00790055 0)
(-0.00458292 -0.00613183 0)
(0.000438051 -0.00672122 0)
(-0.000366223 -0.0105116 0)
(-0.00432098 -0.00937195 0)
(-0.00300785 -0.00821737 0)
(0.00133818 -0.00846137 0)
(-0.00160722 -0.010124 0)
(-0.000872792 -0.0135755 0)
(0.00653615 0.0039888 0)
(-0.00294491 -0.00878309 0)
(0.000492257 -0.00515696 0)
(-0.00261523 -0.00942926 0)
(-0.00374892 -0.0153651 0)
(-0.0047603 -0.0131724 0)
(-0.00601564 -0.0114447 0)
(-0.00600648 -0.0114397 0)
(-0.00491249 -0.0097322 0)
(-0.00284018 -0.0081858 0)
(0.000738682 -0.00640128 0)
(0.00129973 -0.00514994 0)
(0.00167233 0.00336317 0)
(-0.00137419 0.00507217 0)
(-0.0010703 0.000635884 0)
(0.000264877 0.00106944 0)
(-0.00101773 0.00177657 0)
(-0.00320622 0.00522639 0)
(-0.00167519 0.00592392 0)
(-0.00298602 -0.000561641 0)
(-0.00480471 -0.000697086 0)
(-0.0014716 0.00278441 0)
(0.000637439 -0.000699332 0)
(0.000347547 -0.00538309 0)
(0.0007621 -0.00424198 0)
(0.000206607 -0.0043844 0)
(-0.000857593 -0.00520397 0)
(-0.0023606 -0.0074093 0)
(-0.00545385 -0.00580301 0)
(-0.000522989 -0.00780546 0)
(-0.000695638 -0.0128063 0)
(-0.00113456 -0.00657826 0)
(0.00242525 -0.00655687 0)
(0.000456078 -0.0148473 0)
(9.94461e-05 -0.0147004 0)
(-0.000533628 -0.0128177 0)
(-0.000295819 -0.0120831 0)
(-0.00119542 -0.0136511 0)
(0.000679735 -0.0112066 0)
(-0.00116785 -0.00626056 0)
(0.00254794 -0.00612925 0)
(-0.000423264 -0.0104353 0)
(0.00166862 -0.0121653 0)
(0.000798358 -0.00779261 0)
(0.000139002 -0.00965613 0)
(0.0010047 -0.014632 0)
(0.00149432 -0.0144225 0)
(-0.00100443 -0.00980349 0)
(0.00148923 -0.0107262 0)
(0.000745365 -0.0148989 0)
(0.00161952 -0.0101531 0)
(0.00225257 -0.010103 0)
(-0.000322908 -0.0126556 0)
(-4.95705e-05 -0.0104631 0)
(-0.00120264 -0.0113488 0)
(-0.00204281 -0.0100575 0)
(0.00170714 -0.0107475 0)
(0.00369802 -0.0108871 0)
(-0.00117984 -0.0117516 0)
(0.000608954 -0.0116654 0)
(2.92121e-05 -0.00824456 0)
(0.0016269 -0.00693492 0)
(0.0023744 -0.00663768 0)
(-0.000518382 -0.00614962 0)
(0.000397532 -0.00465854 0)
(-0.000252252 -0.00591152 0)
(-0.00016599 -0.00977386 0)
(-0.00296041 -0.0066936 0)
(0.000622898 -0.0059667 0)
(-0.000800105 -0.0139018 0)
(-0.000409328 -0.0148223 0)
(-0.00241213 -0.011765 0)
(-0.00292177 -0.0156068 0)
(-0.00239134 -0.0190117 0)
(0.000912322 -0.0233575 0)
(0.00702742 -0.00310427 0)
(-0.00545608 -0.0116515 0)
(0.000893883 -0.00177269 0)
(-0.00389906 -0.00787842 0)
(-0.00388685 -0.0079977 0)
(-0.00676678 -0.0061402 0)
(-0.00541249 -0.00371216 0)
(-0.00627713 -0.00630147 0)
(-0.00715907 -0.00581989 0)
(-0.00272134 -0.00761073 0)
(-0.00153408 -0.00695049 0)
(-0.00164323 -0.006568 0)
(0.000617941 -0.00545017 0)
(-0.00532917 -0.00388324 0)
(-0.00177709 -0.00526674 0)
(-0.00143703 -0.00644684 0)
(-0.00101303 -0.00662983 0)
(0.000941605 -0.00371066 0)
(-0.00266919 -0.00464438 0)
(-0.00207382 -0.0108098 0)
(0.00185619 -0.00585988 0)
(0.00223899 -0.0042689 0)
(-0.000750946 -0.00819154 0)
(-0.000481702 -0.00936411 0)
(-0.000485971 -0.00716527 0)
(-0.000372847 -0.00700964 0)
(-7.84882e-05 -0.0097526 0)
(0.000491549 -0.014024 0)
(0.000450087 -0.0123706 0)
(0.00123719 -0.015436 0)
(0.00108768 -0.0229835 0)
(0.00088868 -0.0120497 0)
(0.0010168 -0.00885611 0)
(0.000444811 -0.016328 0)
(0.00111078 -0.015741 0)
(-0.000904123 -0.015105 0)
(-0.000920785 -0.0154447 0)
(-0.000836804 -0.0144585 0)
(-4.41042e-05 -0.0157234 0)
(-0.000945956 -0.0121705 0)
(7.95616e-05 -0.0113751 0)
(-0.000688094 -0.0154573 0)
(0.000320211 -0.011853 0)
(-8.65266e-05 -0.00991477 0)
(-0.00311964 -0.00883719 0)
(-0.00054822 -0.00927465 0)
(0.000325752 -0.010739 0)
(0.000745947 -0.00704755 0)
(0.00224722 -0.00643318 0)
(0.00158571 -0.00871238 0)
(0.00329816 -0.00695499 0)
(-0.000539569 -0.00772501 0)
(0.00168144 -0.00867314 0)
(7.97957e-05 -0.00894807 0)
(0.000327945 -0.0105137 0)
(0.00151511 -0.00649315 0)
(0.00152425 -0.00749498 0)
(0.00106384 -0.0113437 0)
(-8.68173e-05 -0.0118654 0)
(0.000826201 -0.013053 0)
(4.98251e-05 -0.0110125 0)
(0.00154337 -0.0063678 0)
(-0.000513233 -0.00738073 0)
(-0.00188989 -0.00952155 0)
(0.000603589 -0.0049556 0)
(0.00355143 -0.0066328 0)
(0.00323679 -0.0108987 0)
(0.00393367 -0.00598522 0)
(-0.000112705 -0.00576584 0)
(-0.0012902 -0.0136793 0)
(0.00149899 -0.015131 0)
(0.00166385 -0.0166185 0)
(-0.0037674 -0.0169325 0)
(-0.00215944 -0.0188487 0)
(0.00162721 -0.0233118 0)
(0.0026235 0.000355863 0)
(0.00154754 -0.0157541 0)
(-0.00186279 -0.000239799 0)
(-0.00468779 -0.00508174 0)
(-0.00682891 -0.00450022 0)
(-0.00561608 -0.00323746 0)
(-0.00777084 -0.0022447 0)
(-0.00551266 -0.00823056 0)
(-0.00450511 -0.00435754 0)
(-0.00212646 -0.003634 0)
(-0.00248618 -0.00951523 0)
(-0.000673724 -0.0100759 0)
(-0.000399576 -0.0105567 0)
(-0.00284944 -0.00930357 0)
(5.76049e-05 -0.010475 0)
(-0.000246773 -0.0153746 0)
(2.89072e-05 -0.0143692 0)
(0.000274695 -0.0153908 0)
(-0.00114558 -0.0153037 0)
(0.000565691 -0.013751 0)
(0.00129336 -0.0116191 0)
(-0.00339623 -0.0115163 0)
(-0.00370923 -0.0118113 0)
(-0.00153769 -0.0144462 0)
(0.00108116 -0.0154639 0)
(0.00171264 -0.0168688 0)
(0.0022655 -0.0173884 0)
(0.00316966 -0.0180716 0)
(0.00456269 -0.0147427 0)
(-0.0011368 -0.0142909 0)
(0.000648556 -0.0170855 0)
(0.000222561 -0.00871623 0)
(-0.00303907 -0.00739357 0)
(-0.00303906 -0.0118613 0)
(-0.000422611 -0.0113963 0)
(-0.00108871 -0.0120666 0)
(0.000366553 -0.0118244 0)
(0.000208375 -0.0135078 0)
(-0.000775074 -0.0133046 0)
(0.000819185 -0.0108415 0)
(-0.00247921 -0.0108913 0)
(-0.00137247 -0.0135904 0)
(-0.00114145 -0.0120235 0)
(-0.00128479 -0.0104147 0)
(-0.00136581 -0.00943513 0)
(0.0011156 -0.00999013 0)
(0.00112317 -0.0113049 0)
(0.00106267 -0.00617621 0)
(-0.000147579 -0.00700279 0)
(0.000863548 -0.0103547 0)
(0.00133195 -0.00846487 0)
(-0.000127643 -0.00964273 0)
(0.000855224 -0.00964551 0)
(0.000185356 -0.00948701 0)
(-0.000728551 -0.00782468 0)
(0.00462074 -0.00807005 0)
(0.000155712 -0.0102505 0)
(0.000343914 -0.0104319 0)
(0.000651101 -0.0100621 0)
(0.00126976 -0.0105645 0)
(0.00138083 -0.00810021 0)
(0.002124 -0.00721979 0)
(-0.00328262 -0.0100706 0)
(-0.000355668 -0.0056853 0)
(-0.00250533 7.3266e-05 0)
(0.000840205 -0.00180045 0)
(0.00385641 -0.00664288 0)
(0.00289901 -0.00449398 0)
(-0.00167734 -0.00560129 0)
(-0.000753147 -0.00852614 0)
(0.00143459 -0.00893469 0)
(0.00153981 -0.0127299 0)
(0.000762441 -0.0142608 0)
(0.000163372 -0.0120719 0)
(0.00536929 -0.0256577 0)
(-0.00265395 -0.00434379 0)
(-7.53886e-05 -0.00975002 0)
(0.0013733 -2.10263e-05 0)
(-0.00398019 -0.00493794 0)
(-0.00545469 -0.00388515 0)
(-0.00466449 -0.00695619 0)
(-0.00777695 -0.00853594 0)
(-0.00376888 -0.0107378 0)
(-0.000889865 -0.0110928 0)
(-0.00272391 -0.0128302 0)
(-0.00347013 -0.0142326 0)
(0.000412367 -0.014677 0)
(-2.83538e-05 -0.0158076 0)
(0.000590638 -0.0105367 0)
(-0.00147281 -0.00985924 0)
(-0.000264995 -0.0147525 0)
(-0.00189406 -0.0145166 0)
(-0.000334794 -0.0138261 0)
(-0.000847852 -0.0130943 0)
(-0.000271237 -0.0146288 0)
(-0.00151138 -0.0145274 0)
(-0.00136732 -0.0131483 0)
(-0.00063264 -0.0130955 0)
(0.00229846 -0.0156337 0)
(0.00293788 -0.0164245 0)
(0.00328787 -0.0165763 0)
(0.00104924 -0.0173246 0)
(0.00152756 -0.0162156 0)
(0.000342961 -0.0143725 0)
(-0.000342488 -0.0129968 0)
(-0.00082997 -0.0136701 0)
(0.00101362 -0.0114539 0)
(-0.0030191 -0.0109069 0)
(-0.00130284 -0.0139704 0)
(-0.00152301 -0.0143954 0)
(-0.000160831 -0.0137307 0)
(-0.000228737 -0.0133761 0)
(0.00017372 -0.0125129 0)
(5.60977e-05 -0.0111622 0)
(-7.87008e-05 -0.00989085 0)
(-0.00238692 -0.0101621 0)
(-0.000969634 -0.0114437 0)
(-0.00062708 -0.0105515 0)
(-0.000705531 -0.0108388 0)
(0.000181978 -0.00703652 0)
(-0.000246536 -0.00758843 0)
(0.000687229 -0.0115056 0)
(0.000243175 -0.00967949 0)
(-0.00214782 -0.0082855 0)
(0.00085158 -0.00881298 0)
(0.000255326 -0.00884324 0)
(0.00115936 -0.0100434 0)
(0.00231623 -0.0107762 0)
(0.00287653 -0.0129335 0)
(0.00139565 -0.00728731 0)
(0.000850479 -0.00610633 0)
(-0.000208171 -0.0115119 0)
(-0.000399963 -0.0094781 0)
(0.000497377 -0.00982933 0)
(0.000437995 -0.0107112 0)
(0.00121124 -0.00796019 0)
(0.000105556 -0.00837838 0)
(0.000378849 -0.00980232 0)
(0.0012641 -0.00921137 0)
(0.00107908 -0.00438774 0)
(-0.00286651 1.64805e-05 0)
(0.000698808 -0.00777785 0)
(0.00164442 -0.0116812 0)
(0.00149491 -0.00793007 0)
(0.00353793 -0.00834975 0)
(0.0026352 -0.00738727 0)
(0.00291156 -0.00850042 0)
(0.00520249 -0.00676885 0)
(0.00451065 -0.00489752 0)
(0.00462077 -0.0219371 0)
(-0.00346613 -0.00709134 0)
(-0.00183564 -0.0103117 0)
(-0.00175949 -0.000640485 0)
(-0.00218426 -0.0075501 0)
(-0.00228959 -0.00457983 0)
(-0.00153861 -0.00977978 0)
(-0.00278306 -0.0103953 0)
(-0.00233392 -0.0129717 0)
(-0.00151985 -0.014281 0)
(-0.0025622 -0.0149703 0)
(-0.00211774 -0.014443 0)
(-0.00229844 -0.0119644 0)
(0.000250329 -0.0131555 0)
(0.00223204 -0.0123459 0)
(-0.00314732 -0.0113311 0)
(-0.00145406 -0.0135948 0)
(-0.000665647 -0.0121436 0)
(9.99486e-05 -0.0130009 0)
(-0.000648325 -0.0150044 0)
(0.000178471 -0.0153092 0)
(-0.000920235 -0.0153983 0)
(-0.000453588 -0.0155048 0)
(-0.0030854 -0.0149431 0)
(3.09922e-05 -0.0137492 0)
(0.00294067 -0.0134525 0)
(0.00144242 -0.0130111 0)
(0.00228699 -0.0112334 0)
(0.00146842 -0.0112646 0)
(0.000258101 -0.0120064 0)
(-0.000714559 -0.010395 0)
(-0.00156218 -0.0114349 0)
(0.000874864 -0.00765289 0)
(-0.00126497 -0.00881558 0)
(-0.000249484 -0.0105746 0)
(-0.00170203 -0.00878796 0)
(-0.00119836 -0.00747997 0)
(-0.00124566 -0.00626372 0)
(2.21417e-05 -0.00803488 0)
(-8.65025e-05 -0.00915699 0)
(-0.000875648 -0.00921414 0)
(3.10524e-07 -0.00872475 0)
(-0.000349233 -0.0102615 0)
(-0.0010867 -0.0101371 0)
(-0.00138389 -0.00822294 0)
(0.00244257 -0.00785014 0)
(-0.000830071 -0.00845405 0)
(-0.00016042 -0.0107514 0)
(-0.000875332 -0.0103288 0)
(-0.000893147 -0.008419 0)
(0.00122869 -0.0094835 0)
(-0.000924075 -0.0108174 0)
(-0.000926489 -0.010207 0)
(0.0014747 -0.0101984 0)
(0.00223897 -0.0117361 0)
(0.00411043 -0.0110677 0)
(-0.000551732 -0.0096268 0)
(-0.000618312 -0.0124957 0)
(0.000154183 -0.0126927 0)
(-0.000298679 -0.0124095 0)
(4.28148e-05 -0.0133227 0)
(0.000685857 -0.0103971 0)
(0.000238382 -0.0091853 0)
(0.00223776 -0.0102024 0)
(0.00148724 -0.00863534 0)
(0.00187624 -0.00769712 0)
(-0.00282572 -0.00579024 0)
(-0.00117078 -0.00612511 0)
(0.00122801 -0.00905731 0)
(0.000217265 -0.00710751 0)
(0.00046865 -0.00697457 0)
(-9.50185e-05 -0.00509948 0)
(3.53407e-05 -0.00130613 0)
(0.00364354 0.000804452 0)
(0.00316158 0.00160838 0)
(0.00219424 -0.0242976 0)
(-0.00830771 -0.0055404 0)
(-0.00450776 -0.00961663 0)
(-0.00522515 -0.00387086 0)
(-0.0017739 -0.00908772 0)
(-0.00271396 -0.00724956 0)
(-0.00152054 -0.0101348 0)
(-0.00230972 -0.0110003 0)
(-0.00244401 -0.0108192 0)
(-0.00125786 -0.0107769 0)
(-0.00284438 -0.0109916 0)
(-0.0022954 -0.0085559 0)
(-0.00178113 -0.00763009 0)
(0.00112455 -0.00869154 0)
(0.00143225 -0.0108991 0)
(-0.000852604 -0.0104479 0)
(-6.23475e-05 -0.00984303 0)
(-0.000223953 -0.0110509 0)
(-0.00128727 -0.0118661 0)
(0.000307862 -0.0116653 0)
(-0.000267707 -0.0129726 0)
(0.000774867 -0.0117913 0)
(-0.000192914 -0.0124278 0)
(0.000189439 -0.00947023 0)
(-0.000726888 -0.005079 0)
(0.000892882 -0.0101515 0)
(0.00107818 -0.0113469 0)
(0.00063072 -0.00870401 0)
(-0.00148222 -0.0075573 0)
(-0.00120928 -0.00575044 0)
(-0.0024216 -0.0042714 0)
(-0.00110425 -0.00306018 0)
(-0.00185518 -0.000306197 0)
(-0.00282022 0.0013499 0)
(0.00221148 0.000516236 0)
(-0.000714937 -0.00109246 0)
(-0.000450458 -0.00269663 0)
(-0.00210164 -0.00425394 0)
(0.00153849 -0.00457306 0)
(-0.000314868 -0.00654256 0)
(-0.000104146 -0.00544045 0)
(8.81622e-05 -0.0050666 0)
(-0.00110877 -0.00711734 0)
(-0.00172796 -0.0055929 0)
(-0.00148159 -0.00191602 0)
(0.00201104 -0.00263668 0)
(0.0010213 -0.00620135 0)
(-0.00121215 -0.00770982 0)
(-0.00302809 -0.00706198 0)
(0.000944192 -0.00338779 0)
(0.00240998 -0.006846 0)
(0.00060957 -0.011131 0)
(0.00148798 -0.00748732 0)
(0.0023523 -0.00848525 0)
(0.00183005 -0.0125041 0)
(0.00353962 -0.0121299 0)
(0.00200263 -0.0126799 0)
(0.00152342 -0.0127654 0)
(-4.8224e-05 -0.0122526 0)
(-0.000924587 -0.0136477 0)
(-0.00204355 -0.0130822 0)
(-0.000584023 -0.0124076 0)
(-0.00144322 -0.0126996 0)
(0.000621827 -0.0125621 0)
(0.00188998 -0.0131344 0)
(0.000517716 -0.0123041 0)
(-0.00138721 -0.0064336 0)
(-0.00263757 -0.00615089 0)
(0.002281 -0.0105465 0)
(-0.00033561 -0.0092693 0)
(-0.000136683 -0.00937857 0)
(-0.000992847 -0.00910107 0)
(-0.00286384 -0.00602964 0)
(0.00095696 -0.0042812 0)
(0.00121436 -0.00715024 0)
(-0.0101414 -0.0168394 0)
(-0.00738461 -0.00308944 0)
(-0.00484205 -0.00913491 0)
(-0.00120002 -0.00589633 0)
(-0.000971326 -0.0110996 0)
(-0.000575336 -0.00989806 0)
(-0.00117925 -0.0104929 0)
(1.3038e-05 -0.00974677 0)
(-0.0011801 -0.00797305 0)
(-0.00206567 -0.00895479 0)
(-0.00224558 -0.00930941 0)
(-0.00180105 -0.0071418 0)
(-0.00101523 -0.00377957 0)
(-0.000157548 -0.00555022 0)
(-1.93101e-05 -0.00894508 0)
(0.000864446 -0.00751983 0)
(-0.00129287 -0.0072798 0)
(-0.000161368 -0.00885573 0)
(-0.000104905 -0.0087579 0)
(-0.000609995 -0.00919222 0)
(-0.00111084 -0.00984451 0)
(0.00102682 -0.010925 0)
(0.000649265 -0.0113988 0)
(0.00357751 -0.00841168 0)
(-0.00156078 -0.00689162 0)
(-0.00279193 -0.00519643 0)
(-0.00221267 -0.006619 0)
(-0.00233735 -0.00790664 0)
(-0.00177258 -0.00687081 0)
(-0.00202935 -0.00554002 0)