/*--------------------------------*- C++ -*----------------------------------*\
  =========                 |
  \\      /  F ield         | OpenFOAM: The Open Source CFD Toolbox
   \\    /   O peration     | Website:  https://openfoam.org
    \\  /    A nd           | Version:  12
     \\/     M anipulation  |
\*---------------------------------------------------------------------------*/
FoamFile
{
    format      ascii;
    class       volVectorField;
    location    "0.7";
    object      U.water;
}
// * * * * * * * * * * * * * * * * * * * * * * * * * * * * * * * * * * * * * //

dimensions      [0 1 -1 0 0 0 0];

internalField   nonuniform List<vector> 
3750
(
(0.00310989 -0.0290871 0)
(-0.00479028 -0.0104635 0)
(-0.00413455 -0.00946832 0)
(-0.00353647 0.0023484 0)
(-0.00371536 -0.00249038 0)
(-0.00117958 0.0043863 0)
(-0.00209272 0.0032583 0)
(-0.0031717 0.00677566 0)
(9.43909e-05 0.00599717 0)
(-8.77865e-05 0.00718136 0)
(-0.000770526 0.00845571 0)
(0.000108806 0.0075145 0)
(0.00125518 0.0102249 0)
(-6.77626e-05 0.0106306 0)
(0.00185872 0.0105393 0)
(0.000475123 0.0101332 0)
(0.00138528 0.00835401 0)
(0.00132182 0.00719349 0)
(0.000582078 0.00536213 0)
(0.00273154 0.00993693 0)
(-0.00175314 0.0106203 0)
(-0.00265725 0.00721372 0)
(0.00204141 0.00944827 0)
(-0.000462768 0.00859899 0)
(0.00140013 0.00923938 0)
(-0.00028398 0.00901598 0)
(0.000303541 0.0088431 0)
(-0.000731293 0.00991908 0)
(-0.000130479 0.00983529 0)
(-0.000248772 0.0105044 0)
(-0.000625297 0.0105522 0)
(-0.000177345 0.0119619 0)
(-0.00132005 0.0126826 0)
(0.000885016 0.0138904 0)
(-0.00182207 0.0123132 0)
(-9.97912e-05 0.0119804 0)
(-0.00109158 0.01558 0)
(0.00108432 0.0164366 0)
(0.000367027 0.0147803 0)
(-0.00066396 0.0155697 0)
(-0.000112757 0.0165348 0)
(0.000183964 0.0160327 0)
(0.000344463 0.0166838 0)
(0.000567546 0.0171266 0)
(0.00106149 0.0169269 0)
(0.00137846 0.0179728 0)
(0.00174576 0.0169079 0)
(0.00237694 0.013243 0)
(0.00308689 0.0170578 0)
(-0.0032739 0.0137679 0)
(-0.00104107 0.00551874 0)
(-0.00129516 0.0069571 0)
(-2.84399e-06 0.00754036 0)
(-0.00104777 0.00849008 0)
(-1.30618e-06 0.00897275 0)
(0.000509756 0.0101676 0)
(0.00105817 0.0108662 0)
(0.00197588 0.0101928 0)
(0.00130258 0.0105142 0)
(0.000275804 0.00977417 0)
(-0.00113726 0.00847508 0)
(0.00141326 0.00947457 0)
(-0.00102242 0.00787561 0)
(-0.000370132 0.0146616 0)
(-0.00137528 0.0160359 0)
(-0.00198239 0.00734247 0)
(-0.000981457 0.00813068 0)
(-0.00057973 0.00854239 0)
(-0.000758532 0.00980367 0)
(-0.000411015 0.00872998 0)
(2.04695e-05 0.00979332 0)
(-0.000314942 0.00968335 0)
(4.01546e-05 0.00937681 0)
(0.000201905 0.00971041 0)
(-0.000303668 0.00991244 0)
(0.00402533 -0.0117065 0)
(-0.000981856 -0.00317616 0)
(-0.00784805 -0.00690034 0)
(-0.00375902 -0.000504372 0)
(-0.000655035 -0.00399615 0)
(-0.000656949 0.00200956 0)
(0.000531421 -0.00445494 0)
(0.000779047 0.00467948 0)
(-0.000263083 0.00262394 0)
(-0.000448566 -0.000633767 0)
(-0.00291418 0.000864872 0)
(-0.00162769 0.00325628 0)
(-0.0029861 0.00460207 0)
(-0.00259498 0.0071388 0)
(0.00144648 0.00823971 0)
(0.000117574 0.00778286 0)
(0.000208608 0.00907353 0)
(0.00119992 0.00749431 0)
(0.000580741 0.00731991 0)
(0.00294285 0.00825491 0)
(-0.00243483 0.00535861 0)
(-0.00337119 0.0101401 0)
(-0.000782579 0.0113013 0)
(-0.00710923 0.00536209 0)
(-0.00107321 0.00568509 0)
(-0.00147422 0.00508099 0)
(-0.00034483 0.00663872 0)
(-0.000866942 0.00734991 0)
(-0.000894956 0.0072938 0)
(0.000103421 0.00607637 0)
(-0.000681279 0.00622635 0)
(0.000595083 0.00506475 0)
(0.000160293 0.00852222 0)
(-0.00101881 0.00845934 0)
(-0.00279911 0.00514924 0)
(0.00143492 0.00610679 0)
(5.92088e-05 0.0109667 0)
(-0.00158162 0.0123376 0)
(-0.000402263 0.00749276 0)
(0.000488695 0.00754422 0)
(-0.000847307 0.00783757 0)
(-0.000120445 0.00879404 0)
(-0.00102822 0.0119881 0)
(-0.00212466 0.0148921 0)
(-0.00229431 0.0174636 0)
(-0.000774672 0.019923 0)
(0.00160322 0.0228509 0)
(0.00526679 0.0231512 0)
(0.00706263 0.0232454 0)
(0.000800609 0.0214074 0)
(0.00117061 0.017008 0)
(-0.000392986 0.0144726 0)
(-8.91014e-05 0.0134708 0)
(-0.00123566 0.0122262 0)
(-0.00126721 0.0129926 0)
(-0.0033973 0.0134287 0)
(-0.000356324 0.0137071 0)
(-0.00172619 0.013145 0)
(0.000509332 0.0133959 0)
(-0.000668012 0.0131491 0)
(0.00126981 0.01701 0)
(0.00203641 0.0166061 0)
(0.000614021 0.010354 0)
(0.00228245 0.0156004 0)
(-0.000840659 0.0129372 0)
(-0.00141216 0.00709564 0)
(-0.000109901 0.00756198 0)
(0.00283792 0.0057849 0)
(0.000813626 0.00493067 0)
(-0.00079648 0.00575172 0)
(0.000739964 0.00533389 0)
(0.00070392 0.00353119 0)
(0.000176195 0.00527189 0)
(-0.000769089 0.0050311 0)
(8.7885e-05 0.0056817 0)
(0.00320959 -0.0470158 0)
(-0.00495478 -0.00523831 0)
(-0.00812934 -0.0158888 0)
(-0.00587896 -0.00520719 0)
(-0.00405436 -0.0123665 0)
(-0.0033701 -0.00777826 0)
(-0.0006742 -0.00778062 0)
(0.00147478 -0.00471033 0)
(-0.00341707 -0.00671761 0)
(-0.00263336 -0.00885894 0)
(-0.00259244 -0.0102678 0)
(-0.00151677 -0.0125731 0)
(-0.000516838 -0.0151543 0)
(-4.09365e-05 -0.00980603 0)
(-0.00171295 -0.00945372 0)
(-0.000928106 -0.011798 0)
(-0.00099711 -0.0105188 0)
(0.00186526 -0.00839842 0)
(0.00219968 -0.0058332 0)
(0.00164778 -0.00525674 0)
(0.0010629 -0.00651477 0)
(-0.000540373 -0.00359141 0)
(-0.000425744 -0.0062112 0)
(-0.00360285 -0.00478359 0)
(-0.00350191 -0.00224494 0)
(-0.00229451 -0.00903285 0)
(-0.000532689 -0.00709769 0)
(-0.000514129 -0.00672295 0)
(-0.000855109 -0.00536475 0)
(0.000312897 -0.00560932 0)
(0.000951505 -0.00464619 0)
(0.00140425 -0.00299347 0)
(0.00211022 -0.00245833 0)
(-0.00295962 -0.00114852 0)
(-0.00223035 0.00221139 0)
(-0.000697367 0.00148983 0)
(3.55357e-06 -0.00104868 0)
(-0.00488114 0.00081812 0)
(-0.000698404 -0.000124671 0)
(0.000527537 -0.00280067 0)
(-0.00179804 0.000275979 0)
(-0.00362128 0.00255558 0)
(-0.00368835 0.00494292 0)
(-0.00522035 0.00728328 0)
(-0.00481786 0.00871528 0)
(-0.00383205 0.0105433 0)
(-0.0011994 0.0107761 0)
(0.00309557 0.0118433 0)
(0.00444178 0.0121597 0)
(0.00638153 0.0108799 0)
(0.0022829 0.00780945 0)
(0.00233805 0.00647502 0)
(0.000800993 0.00447563 0)
(0.00130719 0.00467733 0)
(0.00198292 0.00250394 0)
(0.000648424 0.0047887 0)
(0.000178166 0.00276665 0)
(-0.00300013 -0.00181376 0)
(0.000591347 -0.00231335 0)
(0.00282859 -0.00276108 0)
(0.00376205 -0.000851108 0)
(-4.71725e-05 -0.000530789 0)
(0.00167863 -0.00206372 0)
(0.00320829 0.00026042 0)
(-0.00153382 -0.00211056 0)
(3.27499e-05 -0.00375298 0)
(0.0005202 0.000715178 0)
(-0.000378943 -0.00162998 0)
(0.000882403 -0.00551043 0)
(-0.000597991 -0.0019708 0)
(0.000311523 0.000425797 0)
(-0.00137887 -0.00533197 0)
(7.62856e-05 -0.0058649 0)
(-0.00157331 -0.00472679 0)
(0.000393696 -0.00456302 0)
(0.00477739 -0.0165485 0)
(-0.0030966 -0.00619551 0)
(-0.00521504 -0.0136287 0)
(-0.00862903 -0.00786157 0)
(-0.00420306 -0.0129421 0)
(-0.00193719 -0.00883077 0)
(-0.00016203 -0.010769 0)
(0.00171941 -0.00915834 0)
(0.000416219 -0.0127924 0)
(0.00207744 -0.0147392 0)
(0.00268804 -0.0187026 0)
(-0.000439815 -0.0201212 0)
(-0.000596252 -0.0202198 0)
(-0.00194757 -0.0203728 0)
(-0.00444929 -0.0197449 0)
(-0.00307598 -0.0209283 0)
(-0.00192187 -0.0216324 0)
(-0.00167787 -0.0208155 0)
(0.000231107 -0.0180397 0)
(0.000253503 -0.0135138 0)
(-0.000136888 -0.0136364 0)
(0.00136061 -0.00743963 0)
(-0.000956337 -0.00671556 0)
(0.00368915 -0.0107189 0)
(-0.00376155 -0.00586421 0)
(-0.00460529 -0.00701657 0)
(-0.000635668 -0.00777653 0)
(-0.00114828 -0.00878449 0)
(-0.0010978 -0.00804526 0)
(-0.00252703 -0.00803735 0)
(-0.00109166 -0.00812237 0)
(-0.00339864 -0.00835083 0)
(-0.000411884 -0.00959436 0)
(-0.00166466 -0.00823251 0)
(-0.00114291 -0.00734693 0)
(-0.00037352 -0.00939874 0)
(0.000786099 -0.0124629 0)
(-0.000187758 -0.00699654 0)
(-0.00129724 -0.00644902 0)
(-0.003068 -0.00989791 0)
(-0.0039681 -0.00829927 0)
(-0.00473839 -0.00606294 0)
(-0.00471638 -0.00550317 0)
(-0.00393855 -0.00521693 0)
(-0.00529565 -0.0052558 0)
(-0.00178482 -0.00609854 0)
(0.00363609 -0.00774431 0)
(0.00599438 -0.00877404 0)
(0.00715885 -0.00551506 0)
(0.00453772 -0.00568502 0)
(0.00396773 -0.00872948 0)
(0.00129661 -0.0071454 0)
(-0.0019881 -0.00762328 0)
(0.00242423 -0.00576308 0)
(0.0028147 -0.00588869 0)
(0.00609349 -0.00617302 0)
(-0.00102432 -0.00587935 0)
(0.000473978 -0.00306355 0)
(-0.00197097 -0.00236823 0)
(0.000944995 -0.00662341 0)
(-0.00164755 -0.00778544 0)
(0.00225835 -0.00701585 0)
(0.0015663 -0.00491765 0)
(0.00215163 -0.00651002 0)
(-0.000284117 -0.00626384 0)
(0.00225341 -0.00510978 0)
(0.00344343 -0.00682867 0)
(9.54529e-05 -0.00737103 0)
(0.000824178 -0.00880216 0)
(0.00212507 -0.00974034 0)
(-0.00120662 -0.0102374 0)
(-0.00218934 -0.0104709 0)
(-0.000175366 -0.00864536 0)
(-0.000845842 -0.00818375 0)
(-0.00041645 -0.00752322 0)
(0.00320604 -0.0263401 0)
(0.00212217 -0.0066917 0)
(-0.00587735 -0.00986011 0)
(-0.00979817 -0.00676381 0)
(-0.00410396 -0.00771402 0)
(-0.00577525 -0.00588306 0)
(-0.00390332 -0.00369359 0)
(0.000296533 0.00119648 0)
(0.00100626 0.000332194 0)
(0.00370095 0.00343304 0)
(0.00245593 0.00287713 0)
(0.000557943 0.00113023 0)
(-0.000232996 -0.00116979 0)
(-0.000983388 -0.00349602 0)
(-0.00142934 -0.00517383 0)
(-0.00121385 -0.00874157 0)
(-0.00243136 -0.0120664 0)
(-0.00243152 -0.0122077 0)
(-0.000813522 -0.0111099 0)
(-0.00134847 -0.0105851 0)
(-0.000151495 -0.0090776 0)
(0.00209604 -0.00660705 0)
(-0.00243457 -0.00503686 0)
(0.00111211 -0.0059887 0)
(-0.00144951 -0.00654493 0)
(-0.00411961 -0.00174337 0)
(-0.000141129 -0.001167 0)
(-0.000450012 -0.00801793 0)
(-0.000713505 -0.00961153 0)
(-0.000179777 -0.0107863 0)
(0.00036394 -0.0111873 0)
(-0.000173839 -0.00965474 0)
(0.00127247 -0.00987818 0)
(0.00122755 -0.0124804 0)
(0.000105932 -0.00724176 0)
(-0.000665303 -0.00505154 0)
(0.000313034 -0.0086053 0)
(-0.000652413 -0.00514874 0)
(-0.00438204 -0.00392029 0)
(-0.00544766 -0.00662697 0)
(-0.00509363 -0.00787799 0)
(-0.00567099 -0.00926085 0)
(-0.00271405 -0.0108696 0)
(-0.00346323 -0.0129917 0)
(-0.00182073 -0.0136966 0)
(-0.000936002 -0.00946915 0)
(-1.52036e-05 -0.0128645 0)
(0.00245549 -0.0150849 0)
(0.00614047 -0.0134243 0)
(0.00151936 -0.00955054 0)
(0.00186972 -0.00842825 0)
(6.05166e-06 -0.0124102 0)
(-0.00209427 -0.00727134 0)
(0.00196433 -0.00635379 0)
(0.00171935 -0.011389 0)
(0.0013407 -0.011819 0)
(-0.00108708 -0.011054 0)
(0.00101028 -0.00819493 0)
(-0.0021077 -0.00888274 0)
(-0.000756433 -0.012011 0)
(0.00290462 -0.00895977 0)
(0.00332222 -0.00923459 0)
(0.00259855 -0.0118892 0)
(0.000337648 -0.00943343 0)
(-0.000116629 -0.0098316 0)
(0.00486023 -0.00975724 0)
(0.00482196 -0.0116989 0)
(0.0027682 -0.0127635 0)
(0.00140905 -0.0113777 0)
(-0.000324114 -0.0102602 0)
(-0.00220686 -0.00911724 0)
(-0.00214701 -0.00704163 0)
(-0.00252996 -0.0075088 0)
(-0.00194606 -0.00669845 0)
(-0.000589717 -0.00566758 0)
(0.00150888 -0.0225646 0)
(-0.000666892 -0.00566859 0)
(-0.00825238 -0.0104077 0)
(-0.0075634 -0.00941606 0)
(-0.00622793 -0.0124085 0)
(-0.00736678 -0.0143179 0)
(-0.00478323 -0.0114485 0)
(-0.00337635 -0.00786697 0)
(0.000158136 -0.00744796 0)
(0.00180431 -0.00267175 0)
(0.00143609 -0.00411963 0)
(0.00307461 -0.00239687 0)
(0.00138485 -0.0035428 0)
(0.00266531 -0.00628568 0)
(0.00193858 -0.00723821 0)
(-0.000601329 -0.00896142 0)
(-0.00185372 -0.00862985 0)
(-0.000216028 -0.00791121 0)
(-0.000770562 -0.00889075 0)
(-0.000443172 -0.00762753 0)
(-0.000632753 -0.00676049 0)
(0.000330068 -0.00580676 0)
(0.000665481 -0.00585199 0)
(-0.0011598 -0.00749807 0)
(-0.000784928 -0.00864953 0)
(0.000800316 -0.00459568 0)
(-0.00260351 -0.0038397 0)
(-6.02672e-05 -0.0102281 0)
(-0.000601946 -0.00993151 0)
(-0.00233877 -0.00912428 0)
(-0.00136057 -0.00753343 0)
(-0.00234512 -0.00368679 0)
(-0.00295965 -0.000738335 0)
(-0.00185982 0.00152069 0)
(-7.93865e-05 0.00389647 0)
(-0.00328079 0.00435742 0)
(-0.00335416 0.00317506 0)
(-0.00371505 0.0049272 0)
(-0.000314727 0.00337106 0)
(-0.00227417 -0.000765463 0)
(-0.00132241 -0.00546681 0)
(-0.00338508 -0.0065245 0)
(0.00101669 -0.00960182 0)
(-0.000167251 -0.0137924 0)
(0.0025956 -0.0118189 0)
(-0.000399676 -0.0117195 0)
(-0.00167289 -0.0114445 0)
(0.00170625 -0.00962511 0)
(0.00353094 -0.0105957 0)
(0.00323688 -0.0130403 0)
(0.00224681 -0.0124978 0)
(0.0022818 -0.013704 0)
(0.00397547 -0.00848384 0)
(0.00046652 -0.0046314 0)
(0.000453115 -0.00926056 0)
(-8.00372e-05 -0.0121943 0)
(0.00108994 -0.0130298 0)
(-0.000503229 -0.0129955 0)
(-0.00156285 -0.0123963 0)
(-0.00209169 -0.0102341 0)
(0.00084758 -0.0102063 0)
(0.00256084 -0.0118779 0)
(0.00322072 -0.0139207 0)
(0.00359536 -0.0172632 0)
(0.00034718 -0.0122272 0)
(0.00381652 -0.0107402 0)
(0.00279816 -0.0159639 0)
(0.000496837 -0.0123308 0)
(-0.000384727 -0.00989661 0)
(-0.00240354 -0.00929259 0)
(-0.00314593 -0.00757013 0)
(-0.00070906 -0.00805677 0)
(-0.00301433 -0.00726409 0)
(-0.00165409 -0.00593525 0)
(-0.00153608 -0.00500982 0)
(0.00222087 -0.0227134 0)
(-0.00111875 -0.00785046 0)
(-0.00696777 -0.0144547 0)
(-0.00316353 -0.0120278 0)
(-0.00364229 -0.0149689 0)
(-0.00372383 -0.015798 0)
(-0.00590636 -0.0148638 0)
(-0.00979654 -0.0123554 0)
(-6.2925e-05 -0.0124356 0)
(-0.000961722 -0.0113086 0)
(0.00144918 -0.00918079 0)
(0.00142578 -0.00732543 0)
(-0.000505689 -0.00593332 0)
(0.00242884 -0.00363573 0)
(0.000469364 -0.00692552 0)
(-0.000305696 -0.00755937 0)
(-0.000217246 -0.00595321 0)
(-0.00231013 -0.00582001 0)
(-0.00271235 -0.00640034 0)
(0.00101248 -0.0046941 0)
(-0.00244525 -0.00208076 0)
(-0.000356917 -0.000850057 0)
(0.000469728 -0.0039884 0)
(0.000202221 -0.00615879 0)
(0.000508125 -0.0039608 0)
(0.00139346 -0.00335061 0)
(-0.00185106 -0.00378293 0)
(-0.00227699 -0.0046659 0)
(-0.0020739 -0.00603074 0)
(-0.00282913 -0.00374584 0)
(-0.0031022 -0.00369898 0)
(-0.00432652 -0.00481927 0)
(-0.00492332 -0.00628038 0)
(-0.00257719 -0.00859205 0)
(-3.27175e-05 -0.00906801 0)
(-0.000389821 -0.0102905 0)
(-0.00036118 -0.0098973 0)
(-0.000238725 -0.00508824 0)
(0.000786735 -0.00790593 0)
(0.000969127 -0.0149388 0)
(0.000348605 -0.0162041 0)
(0.00219546 -0.015882 0)
(-0.0012097 -0.0165324 0)
(0.000807791 -0.0184578 0)
(0.00102001 -0.0173002 0)
(-0.00130487 -0.0148237 0)
(-0.00127506 -0.0122748 0)
(0.00249453 -0.01191 0)
(0.00332456 -0.0128819 0)
(0.00170281 -0.0115458 0)
(0.0029563 -0.0103894 0)
(0.00239416 -0.0118216 0)
(0.00389497 -0.0102071 0)
(-0.000112564 -0.00818295 0)
(-0.00171387 -0.00829149 0)
(-0.00203012 -0.00990515 0)
(-0.000878796 -0.011844 0)
(-0.000975838 -0.0118213 0)
(-0.00171855 -0.0119598 0)
(4.25733e-05 -0.0119846 0)
(0.00382554 -0.00769307 0)
(0.00471975 -0.010515 0)
(0.00402634 -0.0152556 0)
(0.00412062 -0.0149643 0)
(0.00511008 -0.00997653 0)
(-0.000226415 -0.00635798 0)
(-0.00100028 -0.0117041 0)
(2.76571e-05 -0.0117746 0)
(-0.0036883 -0.0100275 0)
(-0.00270257 -0.0104696 0)
(-0.00629848 -0.00611179 0)
(-0.00146231 -0.00661908 0)
(-0.00246852 -0.00929985 0)
(-0.00296307 -0.00661061 0)
(-0.00365003 -0.00579951 0)
(0.000596625 -0.0210506 0)
(0.000536815 -0.00740136 0)
(-0.00596079 -0.0155445 0)
(-0.00379927 -0.0115255 0)
(-0.00364358 -0.0146729 0)
(-0.0038786 -0.0150901 0)
(-0.00368222 -0.0180259 0)
(-0.00542332 -0.00893628 0)
(-0.00422193 -0.0100262 0)
(-0.00309756 -0.0144708 0)
(-0.00201643 -0.011779 0)
(-0.000391682 -0.0110461 0)
(0.0018205 -0.00522129 0)
(0.0014639 -0.00495159 0)
(-1.48122e-06 -0.00832776 0)
(-7.33029e-05 -0.00688583 0)
(-0.000820293 -0.00805446 0)
(-0.000815422 -0.00746636 0)
(-0.00169757 -0.00293565 0)
(-0.000607535 -0.0031171 0)
(-2.71556e-06 -0.00536598 0)
(-0.00465283 -0.00191677 0)
(-0.00131626 -0.00233338 0)
(-6.67399e-05 -0.00236709 0)
(0.000139932 -0.00243023 0)
(-0.00117888 -0.0020481 0)
(-0.00034636 -0.0018884 0)
(-0.0028799 -0.00216837 0)
(-0.00103706 -0.00229581 0)
(-0.00141723 -0.00329153 0)
(-0.00169341 -0.00366195 0)
(-0.00170858 -0.00709621 0)
(-0.00248101 -0.00865434 0)
(-0.000251186 -0.0103142 0)
(-0.00215623 -0.011578 0)
(0.00117229 -0.0108593 0)
(-0.000124941 -0.00972878 0)
(0.000436921 -0.00678122 0)
(-0.000700317 -0.0058254 0)
(-0.0011493 -0.0079031 0)
(0.00042566 -0.00775433 0)
(0.0013483 -0.00810439 0)
(-0.0010842 -0.00915582 0)
(0.00171348 -0.00984584 0)
(0.000201359 -0.0124535 0)
(-0.00207918 -0.0141182 0)
(-0.00062442 -0.00802643 0)
(0.000328156 -0.00753088 0)
(0.00262697 -0.0145691 0)
(0.00241759 -0.0173057 0)
(0.00177983 -0.0150163 0)
(0.00189515 -0.0147419 0)
(0.00243038 -0.0120252 0)
(-0.000913839 -0.0115434 0)
(0.000285411 -0.0121027 0)
(-0.00062823 -0.0117757 0)
(0.00107096 -0.0122106 0)
(0.000598027 -0.0136791 0)
(-0.000364971 -0.0119049 0)
(0.00434836 -0.00700316 0)
(0.00408151 -0.0083767 0)
(0.000998247 -0.0114909 0)
(0.00337723 -0.0116705 0)
(0.00248416 -0.0088942 0)
(0.00417558 -0.00668486 0)
(-0.00104682 -0.00594966 0)
(-0.00194056 -0.00739892 0)
(-0.000115486 -0.008836 0)
(-0.0028181 -0.00860948 0)
(-0.00180232 -0.0101014 0)
(-0.0016643 -0.00728642 0)
(-0.00447088 -0.00636118 0)
(-0.00240282 -0.0123018 0)
(-0.00263001 -0.0110647 0)
(-0.000231415 -0.00602523 0)
(-0.00171982 -0.0129729 0)
(0.000955463 -0.00572243 0)
(-0.000398436 -0.0154798 0)
(0.0017258 -0.00825426 0)
(-0.00142831 -0.0127001 0)
(-0.00306534 -0.0143224 0)
(-0.00373527 -0.0131201 0)
(-0.00180387 -0.00900762 0)
(-0.00919806 -0.00827862 0)
(-0.00339346 -0.0106882 0)
(-0.000927999 -0.00782133 0)
(0.00133253 -0.00367735 0)
(0.00237914 -0.00275502 0)
(-0.000932886 -0.000145853 0)
(-0.00118729 4.31796e-05 0)
(-0.00158083 0.0011239 0)
(9.98004e-05 0.00241357 0)
(0.000672581 0.00197605 0)
(-0.000439509 0.00250492 0)
(-0.00303749 0.00383671 0)
(-0.00158021 0.000204982 0)
(-0.00306344 0.00339381 0)
(-0.00268286 0.00274731 0)
(0.00033654 -0.00418038 0)
(0.000465734 -0.00505063 0)
(-0.000720767 -0.00312722 0)
(-0.00106614 -0.00276865 0)
(-0.00197776 -0.00307406 0)
(0.00108019 -0.00577666 0)
(-0.00237434 -0.00729739 0)
(-0.001116 -0.00907431 0)
(0.000837828 -0.0116697 0)
(0.00132902 -0.0108643 0)
(0.00122489 -0.0124521 0)
(-0.000184458 -0.0117539 0)
(-8.36267e-05 -0.012324 0)
(-0.0018196 -0.0145132 0)
(-0.00126951 -0.00655849 0)
(-0.00374608 -0.00896927 0)
(-0.00359069 -0.0123036 0)
(0.00179631 -0.0105383 0)
(0.00295193 -0.0127062 0)
(0.00278449 -0.00930812 0)
(0.00466445 -0.00895963 0)
(0.00461876 -0.0140986 0)
(0.0029823 -0.0107544 0)
(0.00492861 -0.00639023 0)
(0.00122422 -0.00686747 0)
(-0.000151256 -0.011691 0)
(0.00101716 -0.0157375 0)
(-0.000207253 -0.0139008 0)
(-0.000144337 -0.0120778 0)
(0.000511296 -0.0115867 0)
(-0.0021405 -0.0106047 0)
(-0.000960491 -0.00910153 0)
(-0.000675375 -0.0108889 0)
(-0.000722145 -0.0119395 0)
(0.000180884 -0.0141289 0)
(0.00241776 -0.00875059 0)
(0.00285762 -0.0071266 0)
(-3.89114e-05 -0.00986035 0)
(-0.000399029 -0.00762214 0)
(0.00169116 -0.00919811 0)
(0.00229465 -0.00943064 0)
(0.00147456 -0.00746165 0)
(-0.00013795 -0.00635427 0)
(-0.0012075 -0.00702397 0)
(0.000153459 -0.00941305 0)
(-0.00179969 -0.0110891 0)
(-0.000770618 -0.00986619 0)
(0.000651952 -0.0113144 0)
(-0.00255941 -0.0122621 0)
(-0.00270635 -0.0167815 0)
(-0.00105551 -0.0154935 0)
(0.000678046 -0.0137748 0)
(-0.00201258 -0.0254688 0)
(-8.53865e-05 -0.00241034 0)
(-0.00238421 -0.011563 0)
(0.00244948 -0.00709349 0)
(-0.00195371 -0.0112708 0)
(-0.00249697 -0.007499 0)
(-0.00485905 -0.00633794 0)
(-0.00589566 -0.00261806 0)
(-0.00776788 -0.0023594 0)
(-0.00306277 -0.00268401 0)
(-0.000585853 -0.00801007 0)
(-0.00147013 -0.00832874 0)
(-0.00214409 -0.00629965 0)
(-0.000968508 -0.00737747 0)
(-0.0045288 -0.00727551 0)
(-0.00312744 -0.00553193 0)
(5.22199e-05 -0.00536379 0)
(-0.0011208 -0.00697649 0)
(-0.000260449 -0.00580439 0)
(-0.00276869 -0.0048548 0)
(0.00149064 -0.00798162 0)
(0.0042107 -0.00669251 0)
(-0.00254782 -0.00642374 0)
(0.00160384 -0.00818706 0)
(0.000167666 -0.00958876 0)
(-0.0012616 -0.00671979 0)
(-0.00271548 -0.00591469 0)
(0.00233463 -0.00470929 0)
(0.00153191 -0.00945445 0)
(0.00092841 -0.0176797 0)
(0.00137437 -0.0185352 0)
(0.00170643 -0.0199878 0)
(0.00169062 -0.0160383 0)
(0.00250839 -0.0140264 0)
(0.003389 -0.0150839 0)
(0.000763242 -0.0158815 0)
(0.00275885 -0.0144654 0)
(0.00126094 -0.011996 0)
(-0.00417786 -0.0145429 0)
(-0.0043425 -0.0119881 0)
(7.67425e-06 -0.0122194 0)
(0.000984169 -0.0158987 0)
(0.00644053 -0.0142574 0)
(0.00186334 -0.0115852 0)
(0.00136474 -0.0123554 0)
(0.00176201 -0.00892541 0)
(0.00311108 -0.0049209 0)
(0.000715685 -0.00700532 0)
(-0.00226011 -0.00897374 0)
(0.000742985 -0.0099626 0)
(6.36942e-05 -0.00914976 0)
(0.000662039 -0.00847841 0)
(-0.000993248 -0.00863584 0)
(-0.00126869 -0.00682019 0)
(0.000703529 -0.00634007 0)
(0.00172202 -0.00890585 0)
(0.00112634 -0.00970935 0)
(0.00147118 -0.0105254 0)
(0.00276833 -0.00910613 0)
(-0.0011678 -0.00858437 0)
(0.000688528 -0.0107982 0)
(-0.000350229 -0.00967081 0)
(0.00115132 -0.0090999 0)
(0.000385883 -0.00942781 0)
(0.00127638 -0.0102493 0)
(0.0012891 -0.00887666 0)
(-0.000569003 -0.00797684 0)
(0.00287134 -0.009737 0)
(0.00158149 -0.0105383 0)
(-0.000926198 -0.00885007 0)
(0.00139893 -0.0112016 0)
(0.00108584 -0.0139103 0)
(-0.000970395 -0.0167733 0)
(0.00376471 -0.0164466 0)
(-0.000231356 -0.0199049 0)
(-0.000921686 -0.0234952 0)
(0.0011379 0.000534096 0)
(-0.000283086 -0.0144176 0)
(-0.00216257 -0.00413305 0)
(-0.00311761 -0.00832166 0)
(-0.00649367 -0.00359885 0)
(-0.00512709 -0.00525686 0)
(-0.0082614 -0.00331389 0)
(-0.00293128 -0.000617067 0)
(-0.00360628 -0.00183118 0)
(-0.00400587 -0.00766276 0)
(-0.00303163 -0.00968169 0)
(-0.000199277 -0.00964023 0)
(-0.000397993 -0.0127303 0)
(-0.000866646 -0.0145992 0)
(-0.00105178 -0.00953065 0)
(-0.00104334 -0.0128476 0)
(-0.000106906 -0.0168334 0)
(-0.000324569 -0.0179487 0)
(0.000229662 -0.0128179 0)
(0.000898521 -0.0106256 0)
(0.000203781 -0.0155098 0)
(-0.00317131 -0.0111055 0)
(-0.00293604 -0.0097396 0)
(-0.000891851 -0.017427 0)
(0.000146604 -0.0175952 0)
(-0.000410022 -0.0121703 0)
(0.00576312 -0.0118123 0)
(0.0010432 -0.0180477 0)
(0.00215864 -0.016951 0)
(0.000180451 -0.0154435 0)
(0.000651522 -0.0152388 0)
(-0.000395868 -0.0118024 0)
(-0.000319949 -0.0108255 0)
(-0.000442682 -0.0104893 0)
(0.00120768 -0.00846481 0)
(0.00254865 -0.0112306 0)
(0.00186036 -0.0133311 0)
(0.000380813 -0.0154246 0)
(0.000707407 -0.0103099 0)
(-0.00206785 -0.00987968 0)
(-0.000200539 -0.0111739 0)
(0.00113269 -0.0117351 0)
(0.000524576 -0.0143896 0)
(0.000570486 -0.0132204 0)
(0.00276951 -0.00843759 0)
(0.00161395 -0.00628639 0)
(0.000477201 -0.01027 0)
(-0.00103978 -0.00979252 0)
(-0.000740643 -0.0102871 0)
(-0.00047941 -0.0105201 0)
(-0.000538488 -0.00934428 0)
(-0.000115447 -0.0115177 0)
(-0.000287867 -0.00650647 0)
(-0.00231365 -0.0037988 0)
(0.00126496 -0.00842786 0)
(0.00270396 -0.0114076 0)
(0.00165156 -0.0114843 0)
(0.000886499 -0.00932589 0)
(-0.00172726 -0.00731734 0)
(0.0024936 -0.00811617 0)
(0.00100038 -0.00773542 0)
(0.00053699 -0.0080997 0)
(-0.00183993 -0.00929404 0)
(0.0015394 -0.00733042 0)
(0.00034479 -0.00898629 0)
(0.000963983 -0.00378417 0)
(0.000706015 -0.00434964 0)
(0.000570461 -0.00881346 0)
(0.000304311 -0.0045156 0)
(0.000159837 -0.0055301 0)
(0.00234577 -0.0116624 0)
(0.00154833 -0.00965386 0)
(0.0023211 -0.00971192 0)
(0.000817461 -0.0172335 0)
(0.00145224 -0.026087 0)
(-0.00687498 -0.00279613 0)
(0.000535201 -0.00865529 0)
(0.000221017 -0.00202151 0)
(-0.00306456 -0.0077729 0)
(-0.00565655 -0.00466724 0)
(-0.00439168 -0.00817207 0)
(-0.00412437 -0.00548422 0)
(-0.000763629 -0.0056039 0)
(-0.00428475 -0.0126013 0)
(-0.0046076 -0.0148882 0)
(-0.00161154 -0.01369 0)
(0.00147829 -0.0139808 0)
(-0.000271429 -0.0162905 0)
(0.0018579 -0.0153158 0)
(0.00026875 -0.0129522 0)
(-0.00394418 -0.0127116 0)
(-0.000329913 -0.0146848 0)
(0.000659767 -0.0145447 0)
(0.00132722 -0.0124581 0)
(-0.00199994 -0.0141745 0)
(-0.00212523 -0.0151677 0)
(0.00115835 -0.0136704 0)
(-0.00281908 -0.0130253 0)
(0.00421877 -0.0177242 0)
(0.00336502 -0.0185621 0)
(0.00454517 -0.0111906 0)
(-0.00120277 -0.0122453 0)
(-0.000721601 -0.0172467 0)
(-0.00148008 -0.0152652 0)
(-3.93636e-05 -0.0131942 0)
(-0.00084256 -0.0128453 0)
(0.000290882 -0.0127223 0)
(-0.000390867 -0.0129542 0)
(0.000479792 -0.0139462 0)
(-0.000676833 -0.0135259 0)
(-0.00131916 -0.0132181 0)
(0.000304116 -0.0132274 0)
(0.00106254 -0.0124453 0)
(0.00260965 -0.0103304 0)
(-0.00170012 -0.00907823 0)
(-0.000244367 -0.00960753 0)
(-0.00163422 -0.0110074 0)
(0.000382318 -0.0110507 0)
(0.00114189 -0.0108737 0)
(0.00329133 -0.00858944 0)
(-0.00165011 -0.00811728 0)
(-0.000589148 -0.0103502 0)
(-0.00129712 -0.0115094 0)
(-0.000760562 -0.0110472 0)
(-0.000381243 -0.0104826 0)
(-0.00220445 -0.00900165 0)
(0.00346832 -0.0102182 0)
(0.0033527 -0.0114078 0)
(-0.000590722 -0.00719121 0)
(-0.00306786 -0.00510986 0)
(0.00143961 -0.00953442 0)
(0.00153768 -0.0120154 0)
(0.00026578 -0.0110586 0)
(3.46183e-05 -0.00584598 0)
(0.000105257 -0.00639858 0)
(0.000673808 -0.00952053 0)
(-0.00138274 -0.00928462 0)
(-0.00217755 -0.00860854 0)
(0.00113687 -0.00869077 0)
(0.0032029 -0.0103626 0)
(0.00221192 -0.00729877 0)
(-0.000876617 -0.009161 0)
(0.00129049 -0.0107593 0)
(0.00438769 -0.00765351 0)
(0.00274498 -0.00683571 0)
(0.0034694 -0.00683201 0)
(0.0050331 -0.00780245 0)
(0.00242705 -0.00551266 0)
(0.00281435 -0.00666065 0)
(0.00132532 -0.0218253 0)
(-0.00474148 -0.00162019 0)
(-0.00230862 -0.00641577 0)
(-0.00260842 -0.00392203 0)
(-0.00269798 -0.00983258 0)
(-0.00388341 -0.00435157 0)
(-0.000470634 -0.00806229 0)
(0.0031254 -0.00898427 0)
(-0.0025979 -0.0123596 0)
(-0.00252113 -0.0164796 0)
(-0.00209585 -0.0136241 0)
(-0.000721662 -0.0116165 0)
(-0.00257794 -0.0133824 0)
(-0.000989563 -0.0150059 0)
(0.000526698 -0.0153255 0)
(-0.00088362 -0.0151421 0)
(-0.00123007 -0.011314 0)
(-0.000753052 -0.010013 0)
(0.000431909 -0.0151074 0)
(-0.00100469 -0.0152735 0)
(-0.000606612 -0.0150389 0)
(-0.000528175 -0.0153301 0)
(0.000981179 -0.0167839 0)
(-0.000440609 -0.0133862 0)
(0.000604393 -0.0138779 0)
(0.00236634 -0.0158334 0)
(0.00276291 -0.0108815 0)
(-0.00106447 -0.00926036 0)
(-0.000914489 -0.0110624 0)
(-0.00172236 -0.0118014 0)
(-0.00149306 -0.0096746 0)
(-0.00150096 -0.0105757 0)
(0.00124957 -0.00795861 0)
(0.000542061 -0.00993563 0)
(-0.000190403 -0.0110805 0)
(-0.00142562 -0.00875578 0)
(-0.00100114 -0.00690937 0)
(-0.00240626 -0.00571256 0)
(0.00134512 -0.00797448 0)
(0.00100216 -0.00859258 0)
(-0.000670575 -0.00856369 0)
(0.000449096 -0.0081278 0)
(7.5809e-05 -0.00957879 0)
(0.000367063 -0.0099687 0)
(0.000452283 -0.00894896 0)
(0.00202682 -0.0101337 0)
(-5.53965e-06 -0.00922008 0)
(-7.59198e-05 -0.00986025 0)
(-0.00101858 -0.0111657 0)
(-0.000187989 -0.0115788 0)
(-0.000305126 -0.0135297 0)
(-0.00121459 -0.00816701 0)
(-8.29935e-05 -0.00855475 0)
(0.000209287 -0.0127991 0)
(0.00234408 -0.0113075 0)
(-0.000634493 -0.00760941 0)
(-0.000389553 -0.00708548 0)
(3.6462e-05 -0.0137081 0)
(0.000760631 -0.0137969 0)
(2.74015e-05 -0.0106381 0)
(-0.000567375 -0.0108707 0)
(0.000304596 -0.0111651 0)
(-0.000684331 -0.0119746 0)
(0.000667858 -0.00809072 0)
(-0.000738741 -0.00577069 0)
(0.00028898 -0.0113004 0)
(0.000691013 -0.0116648 0)
(0.00104896 -0.00940846 0)
(0.00139953 -0.00892198 0)
(0.00108126 -0.0062856 0)
(0.0014596 -0.0058612 0)
(0.000441087 -0.00468946 0)
(0.0007278 -0.00157776 0)
(0.000371828 0.00168522 0)
(0.00399965 0.00215601 0)
(0.0027047 -0.0213702 0)
(-0.00608481 -0.000552271 0)
(-0.00423308 -0.00797936 0)
(-0.00517853 -0.00609163 0)
(-0.00175374 -0.0127852 0)
(-0.00232802 -0.00648163 0)
(-0.00126455 -0.00400011 0)
(-0.00104182 -0.00915098 0)
(-0.00286608 -0.0122614 0)
(-0.000302932 -0.0114276 0)
(-4.06795e-05 -0.0106015 0)
(-0.00271208 -0.00841258 0)
(-0.00198737 -0.00950673 0)
(-0.00116385 -0.010612 0)
(0.00037372 -0.0119278 0)
(0.000775017 -0.0117234 0)
(0.00236262 -0.0102665 0)
(-0.00213944 -0.0111392 0)
(-0.00195229 -0.0126711 0)
(-0.000930318 -0.0120367 0)
(-0.00271626 -0.0117424 0)
(0.00237188 -0.0101953 0)
(0.000779851 -0.0107054 0)
(0.00240893 -0.0104147 0)
(-0.00234828 -0.0103925 0)
(0.000855962 -0.011332 0)
(0.000936037 -0.00851729 0)
(-0.000708608 -0.00719626 0)
(-0.00297379 -0.0070538 0)
(-0.00355365 -0.00507622 0)
(-0.00406538 -0.00253264 0)
(-0.000753314 -0.00109451 0)
(0.000227435 0.000305488 0)
(0.000711257 -0.000784024 0)
(-0.000899192 -0.000902171 0)
(-0.000872595 -0.000140031 0)
(0.002629 -0.00367851 0)
(-0.000893794 -0.00307077 0)
(0.000409165 -0.00246405 0)
(-0.000880455 -0.00691297 0)
(0.000322297 -0.00522989 0)
(0.000321217 -0.00421742 0)
(-0.000597594 -0.00564673 0)
(0.000267732 -0.00472703 0)
(0.00121673 -0.00393984 0)
(0.00182989 -0.00521758 0)
(0.00156389 -0.00612039 0)
(-0.000730076 -0.007391 0)
(-0.0011474 -0.00837832 0)
(0.000398073 -0.00772399 0)
(0.00151278 -0.00952698 0)
(0.00177069 -0.00885685 0)
(-0.00123379 -0.00867104 0)
(0.000900168 -0.00997527 0)
(0.00115217 -0.0101477 0)
(0.00395096 -0.00987913 0)
(0.000954221 -0.0107044 0)
(0.0013758 -0.0128648 0)
(0.00074483 -0.0141968 0)
(0.000421151 -0.0109287 0)
(-0.00208641 -0.00961069 0)
(-0.00218975 -0.0143619 0)
(-0.0024179 -0.0148113 0)
(0.00107626 -0.0126394 0)
(-0.00153071 -0.0124809 0)
(-0.00188171 -0.0119839 0)
(-0.000197236 -0.0100894 0)
(0.000561414 -0.0105291 0)
(0.00220268 -0.0109177 0)
(0.000458758 -0.00815333 0)
(0.000745298 -0.00819616 0)
(-0.000145169 -0.00882407 0)
(-0.000859699 -0.00915048 0)
(0.000178259 -0.00279268 0)
(0.000914109 -0.00390798 0)
(0.00043725 -0.0165622 0)
(-0.00132836 0.0022832 0)
(-0.00458462 -0.00760519 0)
(-0.00126776 -0.00932278 0)
(-0.000676965 -0.0129775 0)
(0.00177925 -0.0093798 0)
(-0.00188376 -0.00782287 0)
(-0.00199126 -0.00893541 0)
(-0.00195913 -0.00754155 0)
(-0.001837 -0.00783801 0)
(-0.0012948 -0.00930093 0)
(-0.00180872 -0.00721843 0)
(-0.00131277 -0.00709422 0)
(-0.000927919 -0.00831824 0)
(-2.03267e-05 -0.00814201 0)
(0.00191787 -0.00785401 0)
(0.000263596 -0.00851704 0)
(-0.000759077 -0.00979337 0)
(-0.000879888 -0.0100947 0)
(-0.00157928 -0.0112663 0)
(-0.00186246 -0.00672076 0)
(7.65577e-05 -0.00731259 0)
(-0.000508184 -0.012067 0)
(0.000917824 -0.00948839 0)
(-0.002254 -0.00926012 0)
(0.000335163 -0.00609373 0)
(-0.000852739 -0.0056958 0)
(-0.00236483 -0.00725863 0)