/*--------------------------------*- C++ -*----------------------------------*\
  =========                 |
  \\      /  F ield         | OpenFOAM: The Open Source CFD Toolbox
   \\    /   O peration     | Website:  https://openfoam.org
    \\  /    A nd           | Version:  12
     \\/     M anipulation  |
\*---------------------------------------------------------------------------*/
FoamFile
{
    format      ascii;
    class       volVectorField::Internal;
    location    "0.5";
    object      cloud:UTrans;
}
// * * * * * * * * * * * * * * * * * * * * * * * * * * * * * * * * * * * * * //

dimensions      [1 1 -1 0 0 0 0];

value           nonuniform List<vector> 
3750
(
(-9.18249e-09 4.28619e-08 0)
(-2.1082e-10 -5.85981e-10 0)
(-1.75772e-10 -4.11301e-09 0)
(3.74858e-11 -2.87291e-09 0)
(1.24065e-10 -3.91658e-09 0)
(3.32176e-11 -1.9633e-09 0)
(0 0 0)
(2.89079e-11 -1.9654e-09 0)
(3.31098e-13 -2.20658e-09 0)
(-1.76269e-12 -6.70629e-10 0)
(-8.03493e-11 -2.90046e-09 0)
(-4.97264e-12 -1.79514e-09 0)
(7.99306e-11 -2.0159e-09 0)
(2.17691e-11 -1.72232e-09 0)
(6.88409e-11 -2.02502e-09 0)
(-2.2778e-11 -4.14627e-09 0)
(0 0 0)
(-1.10092e-11 -2.04623e-09 0)
(3.56608e-11 -2.03562e-09 0)
(2.57537e-11 -2.05087e-09 0)
(8.28793e-11 -1.89132e-09 0)
(9.48492e-11 -1.93026e-09 0)
(-2.17776e-11 -2.13711e-09 0)
(-1.96289e-10 -4.24489e-09 0)
(1.82214e-12 -1.63638e-09 0)
(4.37573e-11 -1.95117e-09 0)
(0 0 0)
(-8.07478e-11 -1.93881e-09 0)
(-1.87725e-11 -1.99395e-09 0)
(-1.49535e-11 -4.1186e-09 0)
(8.15741e-12 -1.74122e-10 0)
(9.97235e-11 -3.63245e-09 0)
(-3.05756e-12 -1.90753e-09 0)
(-3.01999e-12 -2.19403e-09 0)
(0 0 0)
(-5.47485e-11 -2.01288e-09 0)
(0 0 0)
(1.30392e-10 -3.78234e-09 0)
(2.91577e-11 -3.6084e-09 0)
(0 0 0)
(0 0 0)
(2.85025e-11 -2.03281e-09 0)
(0 0 0)
(0 0 0)
(-1.60409e-10 -3.82397e-09 0)
(-1.89418e-10 -6.30132e-09 0)
(0 0 0)
(6.33023e-11 -2.15777e-09 0)
(2.43472e-11 -2.04121e-09 0)
(1.10107e-11 -2.01125e-09 0)
(7.63427e-12 -1.98586e-09 0)
(2.72605e-11 -2.05137e-09 0)
(6.8394e-11 -1.98153e-09 0)
(9.06654e-11 -1.92781e-09 0)
(-4.50904e-11 -1.85637e-09 0)
(-4.48244e-11 -4.06154e-09 0)
(-3.76401e-11 -1.56496e-09 0)
(-3.31918e-11 -1.97151e-09 0)
(-8.60178e-11 -1.714e-09 0)
(-7.46889e-11 -2.13069e-09 0)
(-6.12765e-11 -2.89195e-09 0)
(-2.29268e-11 -3.13897e-09 0)
(-2.34929e-11 -1.88283e-09 0)
(-8.32173e-12 -1.97122e-09 0)
(6.57482e-11 -2.04557e-09 0)
(-1.00911e-11 -2.06902e-09 0)
(2.37327e-11 -3.65826e-09 0)
(0 0 0)
(0 0 0)
(2.47623e-11 -1.92061e-09 0)
(2.37924e-11 -4.06312e-09 0)
(1.44914e-12 -1.63252e-09 0)
(-7.85978e-11 -1.81521e-09 0)
(3.87698e-11 -4.32747e-09 0)
(9.41685e-13 -1.97475e-09 0)
(3.25251e-09 6.35465e-08 0)
(2.81106e-09 -1.68073e-09 0)
(2.31608e-11 -2.01601e-09 0)
(9.81417e-11 -2.02652e-09 0)
(3.46664e-10 -4.12058e-09 0)
(8.27972e-11 -1.62031e-09 0)
(0 0 0)
(0 0 0)
(-1.85784e-11 -5.21081e-10 0)
(2.92709e-11 -1.94594e-09 0)
(0 0 0)
(5.57741e-11 -1.90039e-09 0)
(9.15144e-12 -1.84485e-09 0)
(-8.81811e-11 -4.03652e-09 0)
(-1.98834e-10 -7.49674e-09 0)
(-7.56181e-11 -1.78023e-09 0)
(0 0 0)
(0 0 0)
(3.33776e-11 -1.98937e-09 0)
(0 0 0)
(0 0 0)
(7.73826e-11 -1.85323e-09 0)
(2.18534e-11 -2.05467e-09 0)
(-5.28947e-11 -1.80297e-09 0)
(-1.50656e-10 -7.5122e-09 0)
(-4.60949e-12 -2.61168e-09 0)
(-1.51401e-11 -1.83943e-09 0)
(0 0 0)
(0 0 0)
(-7.66671e-11 -4.59312e-09 0)
(2.07537e-10 -2.00012e-09 0)
(0 0 0)
(7.82784e-11 -1.9765e-09 0)
(7.36395e-11 -2.00754e-09 0)
(0 0 0)
(0 0 0)
(2.91836e-10 -6.08944e-09 0)
(2.34541e-11 -1.65488e-09 0)
(7.1125e-11 -1.71929e-09 0)
(-1.78738e-10 -4.66292e-09 0)
(0 0 0)
(0 0 0)
(7.2075e-11 -1.93907e-09 0)
(-1.87592e-11 -1.886e-09 0)
(7.63697e-11 -1.96498e-09 0)
(-1.44795e-10 -4.95863e-09 0)
(-4.72863e-12 -2.31864e-09 0)
(0 0 0)
(0 0 0)
(-1.1729e-11 -1.94185e-09 0)
(0 0 0)
(-1.44607e-11 -1.97378e-09 0)
(4.02886e-11 -1.90126e-09 0)
(0 0 0)
(4.54064e-11 -4.14839e-09 0)
(0 0 0)
(0 0 0)
(-1.72384e-10 -2.03125e-09 0)
(-3.42259e-10 -4.38446e-09 0)
(-1.27659e-10 -1.88299e-09 0)
(-1.64383e-10 -2.0365e-09 0)
(0 0 0)
(0 0 0)
(6.70828e-12 -2.01078e-09 0)
(-2.86689e-12 -2.01441e-09 0)
(-1.71558e-10 -1.90592e-09 0)
(-1.91291e-10 -4.05925e-09 0)
(3.677e-11 -1.80398e-09 0)
(1.00339e-10 -1.99498e-09 0)
(0 0 0)
(-2.62255e-11 -2.84063e-10 0)
(-2.09674e-10 -3.58769e-09 0)
(-1.31002e-10 -2.09154e-09 0)
(-2.62295e-10 -8.39469e-09 0)
(1.80832e-11 -1.88706e-09 0)
(9.04129e-09 7.25449e-08 0)
(9.3254e-10 -3.53953e-09 0)
(1.98553e-10 -1.97023e-09 0)
(9.08902e-11 -1.80715e-09 0)
(3.31572e-11 -1.86494e-09 0)
(1.95697e-10 -1.57474e-09 0)
(1.43486e-10 -1.90035e-09 0)
(1.39373e-10 -4.61415e-09 0)
(-3.07898e-11 -7.81624e-10 0)
(-7.85733e-11 -4.06566e-09 0)
(-1.02256e-10 -4.16399e-09 0)
(-4.29328e-11 -1.33425e-09 0)
(-3.63751e-11 -1.55992e-09 0)
(-8.31897e-11 -1.93797e-09 0)
(-1.0989e-10 -1.94297e-09 0)
(1.02534e-10 -1.88147e-09 0)
(1.34292e-10 -2.05727e-09 0)
(2.1175e-10 -3.50345e-09 0)
(9.15532e-11 -1.70215e-09 0)
(4.99224e-11 -1.87808e-09 0)
(4.7516e-11 -1.555e-09 0)
(9.64459e-14 -6.82352e-11 0)
(-5.44644e-11 -5.07647e-09 0)
(-2.0248e-10 -3.26034e-09 0)
(-6.62485e-11 -4.07133e-09 0)
(-7.30699e-11 -1.64699e-09 0)
(8.62812e-11 -1.87644e-09 0)
(1.01871e-11 -9.77098e-10 0)
(3.31744e-12 -3.73327e-10 0)
(5.50866e-11 -1.91443e-09 0)
(9.81958e-11 -1.93562e-09 0)
(1.1182e-10 -4.48183e-09 0)
(4.67527e-11 -1.81857e-09 0)
(1.43735e-10 -1.9002e-09 0)
(1.70081e-10 -1.89585e-09 0)
(1.2133e-10 -1.9698e-09 0)
(0 0 0)
(0 0 0)
(3.79491e-11 -1.90122e-09 0)
(-5.66023e-12 -1.73204e-09 0)
(-1.21443e-10 -2.01672e-09 0)
(-1.70008e-10 -2.18475e-09 0)
(1.33192e-11 -2.00011e-09 0)
(0 0 0)
(1.7809e-10 -4.18665e-09 0)
(6.18771e-11 -2.1391e-09 0)
(1.08335e-10 -4.21927e-09 0)
(7.61517e-11 -1.93416e-09 0)
(1.03588e-10 -2.20833e-09 0)
(-5.66778e-11 -2.23451e-09 0)
(-8.36616e-11 -2.14316e-09 0)
(-3.54631e-11 -1.94796e-09 0)
(0 0 0)
(-3.59796e-13 -4.23168e-09 0)
(-1.21783e-11 -2.09941e-09 0)
(-1.45241e-11 -1.82126e-09 0)
(1.96459e-11 -2.21708e-09 0)
(0 0 0)
(-1.5272e-10 -3.97126e-09 0)
(-7.34143e-11 -1.78477e-09 0)
(-5.60697e-11 -1.76682e-09 0)
(-1.34182e-10 -2.13137e-09 0)
(-1.63712e-10 -4.06022e-09 0)
(-4.79274e-10 -4.6412e-09 0)
(-1.68336e-10 -1.89854e-09 0)
(-9.20569e-11 -1.90469e-09 0)
(5.46061e-13 -1.66832e-09 0)
(1.09329e-10 -1.79523e-09 0)
(1.13704e-10 -1.77588e-09 0)
(-2.57752e-10 -4.28558e-09 0)
(-1.63048e-10 -1.95884e-09 0)
(-3.66596e-10 -4.64493e-09 0)
(0 0 0)
(1.31694e-11 -1.79114e-09 0)
(-1.25419e-10 -2.35358e-09 0)
(-1.29134e-08 6.42729e-08 0)
(-8.17683e-10 4.90603e-10 0)
(8.80137e-10 -1.32792e-09 0)
(0 0 0)
(2.29567e-10 -1.87508e-09 0)
(8.83891e-11 -2.00218e-09 0)
(1.42845e-12 -1.94038e-09 0)
(-6.4135e-11 -1.91905e-09 0)
(-3.1033e-11 -1.88613e-09 0)
(-8.29376e-11 -4.06024e-09 0)
(-2.68566e-10 -4.1407e-09 0)
(-1.12741e-10 -1.64298e-09 0)
(-2.11673e-11 -4.59835e-09 0)
(-6.17221e-11 -1.84474e-09 0)
(-7.6888e-12 -1.72573e-09 0)
(4.39465e-11 -1.78889e-09 0)
(-3.5321e-11 -3.95439e-09 0)
(-2.18781e-11 -2.36838e-09 0)
(-4.26669e-13 -2.63764e-09 0)
(1.61465e-11 -3.76569e-09 0)
(-3.80104e-11 -1.72233e-09 0)
(1.96387e-10 -5.16895e-09 0)
(-1.73324e-11 -2.32381e-09 0)
(0 0 0)
(-5.77894e-11 -1.8955e-09 0)
(-1.94687e-11 -1.84363e-09 0)
(5.00379e-11 -1.85414e-09 0)
(9.47074e-11 -2.10343e-09 0)
(0 0 0)
(1.21486e-10 -4.00549e-09 0)
(-3.43438e-11 -1.97608e-09 0)
(1.85692e-11 -2.03998e-09 0)
(1.58743e-10 -1.96666e-09 0)
(1.29338e-10 -1.89477e-09 0)
(0 0 0)
(2.15227e-10 -1.95792e-09 0)
(1.99015e-10 -1.99866e-09 0)
(1.47306e-10 -1.83412e-09 0)
(1.72732e-11 -1.90276e-09 0)
(-3.8756e-10 -5.03424e-09 0)
(-1.77012e-10 -1.96713e-09 0)
(-1.39627e-10 -1.89782e-09 0)
(-3.5148e-11 -2.06065e-09 0)
(0 0 0)
(3.55719e-11 -1.66895e-09 0)
(-7.53048e-11 -2.27144e-09 0)
(-6.78075e-11 -3.74483e-09 0)
(0 0 0)
(-2.08546e-10 -5.26233e-09 0)
(0 0 0)
(-1.65342e-10 -3.02777e-09 0)
(-7.22175e-11 -1.14348e-09 0)
(-2.1914e-10 -5.35906e-09 0)
(-1.157e-10 -2.67299e-09 0)
(1.0394e-10 -4.58878e-09 0)
(6.43599e-12 -1.8753e-09 0)
(1.52475e-11 -2.15706e-09 0)
(0 0 0)
(8.20074e-11 -1.7944e-09 0)
(-5.42638e-11 -1.90358e-09 0)
(-8.11912e-11 -1.90292e-09 0)
(-1.1265e-11 -1.91672e-09 0)
(-1.90847e-10 -1.90793e-09 0)
(-2.28222e-10 -1.92791e-09 0)
(-1.44042e-10 -1.90846e-09 0)
(0 0 0)
(-5.65856e-11 -1.96729e-09 0)
(-3.0946e-11 -2.00914e-09 0)
(-1.868e-11 -4.42453e-09 0)
(-1.14684e-10 -1.6872e-09 0)
(-1.48509e-10 -1.74082e-09 0)
(-1.59722e-10 -1.84746e-09 0)
(-3.49538e-11 -1.7689e-09 0)
(1.0294e-10 -5.34431e-09 0)
(-1.05115e-11 -4.41013e-10 0)
(-1.26086e-08 7.35877e-08 0)
(1.35162e-09 2.17835e-09 0)
(2.2491e-10 -2.16783e-09 0)
(0 0 0)
(2.02567e-10 -1.86843e-09 0)
(1.78085e-10 -4.53441e-09 0)
(3.37196e-11 -4.06909e-09 0)
(0 0 0)
(0 0 0)
(-2.46937e-11 -1.96428e-09 0)
(0 0 0)
(0 0 0)
(0 0 0)
(0 0 0)
(1.45056e-11 -2.05966e-09 0)
(2.19126e-11 -1.87118e-09 0)
(7.83366e-11 -1.79793e-09 0)
(0 0 0)
(0 0 0)
(-5.5494e-12 -2.33209e-10 0)
(-1.81292e-10 -3.4304e-09 0)
(-1.09394e-10 -3.00771e-09 0)
(4.98662e-11 -2.37193e-09 0)
(1.13459e-10 -1.93432e-09 0)
(3.85054e-11 -1.79711e-09 0)
(3.43074e-11 -1.86028e-09 0)
(4.79721e-11 -1.84453e-09 0)
(2.24156e-11 -8.41861e-10 0)
(1.86725e-11 -5.93839e-10 0)
(5.61272e-11 -1.99286e-09 0)
(5.31187e-11 -2.11428e-09 0)
(4.80619e-11 -1.93428e-09 0)
(1.63171e-11 -2.35145e-09 0)
(1.9845e-10 -1.97518e-09 0)
(1.6987e-10 -1.86539e-09 0)
(2.62394e-10 -1.91514e-09 0)
(1.61391e-10 -1.91154e-09 0)
(1.48801e-11 -1.8934e-09 0)
(-1.03874e-10 -4.7266e-09 0)
(-1.1404e-10 -4.85211e-09 0)
(-2.48062e-12 -1.85295e-09 0)
(7.36517e-11 -1.86501e-09 0)
(0 0 0)
(2.76896e-11 -1.78169e-09 0)
(-1.7149e-10 -4.37281e-09 0)
(-1.78389e-10 -1.79717e-09 0)
(-3.74897e-11 -1.84313e-09 0)
(-1.92508e-10 -2.545e-09 0)
(-6.4e-11 -1.03591e-09 0)
(5.40755e-11 -5.16271e-09 0)
(0 0 0)
(-1.82102e-12 -1.85228e-10 0)
(-1.71516e-11 -1.33038e-09 0)
(-2.61915e-11 -1.86147e-09 0)
(2.00699e-13 -1.86225e-09 0)
(1.08026e-10 -2.01525e-09 0)
(1.39826e-10 -2.07847e-09 0)
(2.44075e-10 -2.12885e-09 0)
(-1.03194e-11 -9.53364e-10 0)
(-4.30824e-11 -4.45488e-09 0)
(-1.03228e-10 -1.61341e-09 0)
(-1.82826e-10 -4.30485e-09 0)
(-6.72335e-11 -1.85173e-09 0)
(-1.24414e-10 -1.91492e-09 0)
(-1.36329e-10 -1.91653e-09 0)
(0 0 0)
(-8.41645e-11 -1.90796e-09 0)
(6.73597e-12 -1.9476e-09 0)
(5.50603e-11 -2.04977e-09 0)
(4.77221e-12 -1.98382e-09 0)
(-3.67834e-11 -1.81482e-09 0)
(-1.03789e-10 -1.78104e-09 0)
(-2.70984e-10 -4.17065e-09 0)
(-1.98367e-10 -2.02403e-09 0)
(-1.48785e-10 -1.98369e-09 0)
(6.26704e-10 8.57465e-08 0)
(7.47731e-10 -1.55017e-09 0)
(8.4141e-11 -2.4429e-09 0)
(2.93762e-10 -2.03689e-09 0)
(3.28627e-11 -1.96491e-09 0)
(-1.70541e-11 -1.99187e-09 0)
(-9.29564e-13 -1.97812e-09 0)
(4.85095e-11 -1.97906e-09 0)
(2.02658e-10 -4.75056e-09 0)
(-6.39903e-11 -1.76945e-09 0)
(-8.22078e-11 -1.76323e-09 0)
(-1.34348e-10 -1.82904e-09 0)
(-2.26256e-10 -1.9121e-09 0)
(-1.5411e-10 -1.99569e-09 0)
(-2.06656e-11 -2.0145e-09 0)
(4.24622e-11 -7.33598e-10 0)
(5.6576e-12 -2.61265e-09 0)
(-4.39347e-12 -1.78167e-09 0)
(-3.54828e-11 -1.86268e-09 0)
(-2.99296e-11 -1.88749e-09 0)
(-1.60957e-10 -2.07754e-09 0)
(-1.03517e-10 -2.20038e-09 0)
(3.48017e-11 -2.16239e-09 0)
(1.14332e-10 -2.02396e-09 0)
(7.05232e-11 -1.91266e-09 0)
(5.67166e-11 -1.91411e-09 0)
(6.79024e-11 -1.86907e-09 0)
(1.0057e-10 -1.89771e-09 0)
(2.06074e-10 -2.10592e-09 0)
(2.9648e-11 -1.92066e-09 0)
(5.51599e-12 -4.62241e-09 0)
(9.32847e-11 -1.96026e-09 0)
(1.15168e-10 -1.84373e-09 0)
(1.10854e-10 -1.81828e-09 0)
(1.61613e-10 -1.81415e-09 0)
(1.25855e-10 -1.79378e-09 0)
(1.65148e-10 -4.92091e-09 0)
(0 0 0)
(0 0 0)
(0 0 0)
(1.92052e-10 -2.06667e-09 0)
(2.71599e-10 -1.77999e-09 0)
(2.27866e-10 -1.7505e-09 0)
(1.94999e-10 -4.09783e-09 0)
(3.42334e-10 -4.16873e-09 0)
(-4.12853e-10 -1.78744e-09 0)
(-4.89047e-10 -1.92536e-09 0)
(-1.95227e-10 -1.85189e-09 0)
(-1.26373e-10 -1.86948e-09 0)
(0 0 0)
(1.70238e-11 -1.95194e-09 0)
(-1.76347e-11 -4.35612e-09 0)
(9.60947e-11 -3.90876e-09 0)
(1.48715e-11 -1.74935e-09 0)
(2.56765e-11 -2.08534e-09 0)
(0 0 0)
(-8.29557e-12 -1.99689e-09 0)
(1.17119e-10 -4.95616e-09 0)
(-2.82007e-11 -1.97214e-09 0)
(-1.13619e-10 -1.80854e-09 0)
(-1.19318e-10 -1.77414e-09 0)
(-1.07839e-10 -1.8206e-09 0)
(-2.04702e-11 -2.0542e-09 0)
(-8.70908e-11 -2.10675e-09 0)
(-1.72108e-10 -2.00075e-09 0)
(-6.89888e-11 -1.78157e-09 0)
(-8.28611e-11 -1.83731e-09 0)
(-1.63196e-12 -2.00216e-09 0)
(-1.90471e-10 -4.66024e-09 0)
(-5.75396e-11 -2.02966e-09 0)
(-7.52648e-11 -1.90845e-09 0)
(-1.4778e-10 -1.80958e-09 0)
(-5.86216e-11 -1.96451e-09 0)
(-2.3127e-10 -4.8498e-09 0)
(-4.057e-12 -1.85596e-09 0)
(1.35444e-08 6.38176e-08 0)
(7.11294e-10 -5.46133e-10 0)
(1.81827e-10 -2.02522e-09 0)
(1.3402e-10 -2.26182e-09 0)
(0 0 0)
(2.82162e-12 -1.97103e-09 0)
(-1.64302e-11 -2.13963e-09 0)
(-3.06333e-11 -1.79228e-09 0)
(-3.53222e-11 -2.03552e-09 0)
(8.40869e-12 -2.02133e-09 0)
(1.72938e-10 -3.15697e-09 0)
(2.92973e-10 -4.41132e-09 0)
(-7.70199e-11 -3.66448e-09 0)
(2.96217e-13 -1.92619e-10 0)
(2.13323e-12 -1.36614e-09 0)
(1.04376e-10 -3.79631e-09 0)
(-7.17097e-11 -1.75222e-09 0)
(2.29982e-11 -1.84075e-09 0)
(-9.88488e-12 -2.01025e-09 0)
(-8.25567e-11 -2.23682e-09 0)
(0 0 0)
(-1.35347e-11 -1.87262e-09 0)
(4.63485e-11 -1.93278e-09 0)
(1.02838e-10 -1.97937e-09 0)
(8.41249e-11 -1.94641e-09 0)
(6.89706e-11 -1.89435e-09 0)
(6.46601e-11 -1.93743e-09 0)
(0 0 0)
(4.85066e-11 -1.87516e-09 0)
(1.41388e-11 -1.73957e-09 0)
(4.88522e-11 -1.74246e-09 0)
(5.0724e-10 -4.94357e-09 0)
(5.95814e-11 -1.91935e-09 0)
(1.18608e-10 -1.83554e-09 0)
(1.35458e-10 -3.08593e-09 0)
(2.31717e-11 -7.1927e-10 0)
(0 0 0)
(1.47607e-10 -2.1101e-09 0)
(7.0744e-11 -2.0613e-09 0)
(1.72815e-10 -2.00158e-09 0)
(1.7058e-10 -1.91324e-09 0)
(1.34188e-10 -1.89272e-09 0)
(1.24467e-11 -1.85309e-09 0)
(1.39397e-10 -1.93418e-09 0)
(9.75105e-11 -4.99593e-09 0)
(-1.29156e-10 -2.01551e-09 0)
(-1.03281e-10 -1.86797e-09 0)
(-1.81676e-10 -1.83516e-09 0)
(-2.00061e-10 -1.8766e-09 0)
(-1.29301e-10 -4.93402e-09 0)
(0 0 0)
(1.20058e-10 -1.79985e-09 0)
(6.58937e-12 -1.96945e-09 0)
(-8.14012e-11 -1.98463e-09 0)
(-1.70296e-11 -2.175e-09 0)
(-3.55142e-12 -1.8926e-09 0)
(5.75281e-11 -1.9572e-09 0)
(5.65702e-11 -2.08961e-09 0)
(0 0 0)
(-7.74839e-11 -2.7868e-09 0)
(6.1904e-12 -3.20702e-09 0)
(1.77951e-11 -2.00927e-09 0)
(-7.10628e-11 -2.02405e-09 0)
(-1.52511e-10 -2.09835e-09 0)
(-3.39669e-11 -1.75988e-09 0)
(-5.29257e-11 -1.70986e-09 0)
(-1.085e-10 -1.79201e-09 0)
(0 0 0)
(-1.06725e-10 -1.88236e-09 0)
(-9.21933e-11 -2.12734e-09 0)
(8.89224e-11 -2.08224e-09 0)
(-3.50589e-11 -2.19968e-09 0)
(-7.99786e-11 -2.06758e-09 0)
(-7.34666e-11 -2.07369e-09 0)
(-4.69497e-11 -1.96321e-09 0)
(6.38603e-10 6.33377e-08 0)
(5.6098e-10 1.32313e-09 0)
(5.65253e-11 -1.92466e-09 0)
(1.84704e-10 -2.09164e-09 0)
(1.09822e-10 -2.12964e-09 0)
(6.41125e-11 -1.99918e-09 0)
(0 0 0)
(5.92531e-11 -2.02048e-09 0)
(1.0637e-10 -1.91569e-09 0)
(1.43322e-10 -1.75141e-09 0)
(3.76475e-10 -3.97445e-09 0)
(0 0 0)
(-2.40601e-10 -1.77088e-09 0)
(-7.11827e-11 -3.99702e-09 0)
(2.56984e-11 -1.73922e-09 0)
(-2.57322e-11 -2.07832e-09 0)
(0 0 0)
(-2.57481e-11 -1.84685e-09 0)
(-3.20695e-11 -2.34417e-09 0)
(7.08316e-12 -2.0133e-09 0)
(-2.04635e-11 -1.89856e-09 0)
(1.92784e-12 -2.41771e-09 0)
(1.1926e-10 -3.27137e-09 0)
(7.49616e-11 -1.54831e-09 0)
(3.58916e-11 -6.79911e-10 0)
(1.28268e-10 -2.87637e-09 0)
(4.41153e-11 -3.45211e-09 0)
(2.0915e-11 -1.69354e-09 0)
(2.13228e-11 -4.37404e-09 0)
(0 0 0)
(0 0 0)
(2.62356e-10 -4.80095e-09 0)
(2.62296e-10 -1.97116e-09 0)
(1.33051e-10 -1.85824e-09 0)
(0 0 0)
(1.59924e-11 -1.99113e-09 0)
(1.3901e-12 -2.00905e-09 0)
(5.80417e-11 -3.54389e-09 0)
(8.3833e-11 -2.48976e-09 0)
(9.15894e-11 -1.6982e-09 0)
(1.3121e-10 -2.32991e-09 0)
(1.33165e-10 -1.866e-09 0)
(9.22322e-11 -1.95307e-09 0)
(0 0 0)
(-3.75415e-11 -2.44637e-09 0)
(-1.55945e-11 -2.27898e-09 0)
(-6.45341e-11 -1.74773e-09 0)
(-1.40206e-10 -1.74925e-09 0)
(-1.17712e-10 -1.86421e-09 0)
(-1.82993e-10 -1.99138e-09 0)
(-3.50688e-11 -1.92312e-09 0)
(2.34022e-11 -1.85773e-09 0)
(-2.9401e-11 -2.13832e-09 0)
(-3.46007e-11 -1.93959e-09 0)
(-2.771e-11 -1.8318e-09 0)
(-2.81046e-11 -1.76039e-09 0)
(8.89771e-11 -3.43517e-09 0)
(-3.54185e-11 -2.78281e-09 0)
(-4.84826e-11 -4.9785e-09 0)
(-8.22201e-11 -1.65446e-09 0)
(-7.75345e-11 -1.67791e-09 0)
(6.04972e-11 -2.15001e-09 0)
(-5.07532e-11 -2.20798e-09 0)
(-8.51372e-11 -1.96964e-09 0)
(5.34579e-11 -1.72414e-09 0)
(1.81167e-13 -1.70006e-09 0)
(-7.98071e-11 -1.81224e-09 0)
(0 0 0)
(-6.42498e-11 -1.94361e-09 0)
(-2.50188e-11 -2.18815e-09 0)
(-3.51812e-11 -2.14437e-09 0)
(-7.42218e-11 -2.13298e-09 0)
(-7.75739e-11 -2.33541e-09 0)
(0 0 0)
(-5.08962e-11 -1.95154e-09 0)
(-1.00691e-08 8.12812e-08 0)
(-9.66684e-10 3.95682e-09 0)
(-1.14107e-10 -1.73876e-09 0)
(1.02273e-10 -3.192e-09 0)
(8.36138e-12 -2.75962e-10 0)
(-6.57239e-13 -2.05215e-09 0)
(0 0 0)
(-1.32885e-11 -4.19871e-09 0)
(1.92087e-10 -4.04462e-09 0)
(6.20334e-11 -1.78773e-09 0)
(3.97358e-11 -4.57922e-10 0)
(1.22368e-10 -6.16442e-09 0)
(-6.48827e-11 -1.72491e-09 0)
(-3.28051e-11 -7.90513e-10 0)
(-5.47326e-11 -2.32282e-09 0)
(5.72037e-11 -1.93557e-09 0)
(0 0 0)
(-3.89073e-11 -1.90257e-09 0)
(0 0 0)
(0 0 0)
(0 0 0)
(0 0 0)
(2.62486e-11 -1.91994e-09 0)
(0 0 0)
(0 0 0)
(0 0 0)
(2.00323e-11 -2.34536e-09 0)
(1.25345e-10 -2.05813e-09 0)
(0 0 0)
(1.34789e-10 -1.91654e-09 0)
(6.18868e-11 -4.30472e-09 0)
(-6.93363e-11 -1.86497e-09 0)
(2.32714e-10 -4.97822e-09 0)
(1.30901e-10 -1.94204e-09 0)
(1.14982e-10 -1.82766e-09 0)
(1.3893e-11 -1.77816e-09 0)
(-5.94556e-12 -2.02979e-09 0)
(0 0 0)
(1.66014e-10 -1.95258e-09 0)
(1.45788e-10 -1.77244e-09 0)
(1.74584e-11 -3.31616e-09 0)
(2.96264e-11 -4.14925e-09 0)
(-1.23747e-10 -2.2835e-09 0)
(0 0 0)
(-1.67034e-10 -2.18291e-09 0)
(-3.05314e-10 -2.30321e-09 0)
(-8.36498e-11 -2.1059e-09 0)
(-9.06465e-12 -1.96527e-09 0)
(-4.04666e-11 -1.06149e-09 0)
(-8.58211e-11 -2.24886e-09 0)
(-2.25679e-11 -1.80868e-09 0)
(-2.23489e-11 -1.83946e-09 0)
(-4.27693e-11 -1.9209e-09 0)
(1.96148e-11 -1.98453e-09 0)
(4.88558e-11 -1.9747e-09 0)
(-2.33905e-11 -1.94799e-09 0)
(-1.0851e-10 -1.89171e-09 0)
(-3.13094e-10 -5.02591e-09 0)
(-3.35476e-11 -1.90848e-09 0)
(-1.0962e-10 -1.77241e-09 0)
(0 0 0)
(-1.00932e-10 -1.82125e-09 0)
(4.69333e-11 -5.15964e-09 0)
(6.77533e-11 -1.85755e-09 0)
(5.47348e-11 -1.72157e-09 0)
(-3.49828e-13 -1.82523e-09 0)
(-8.25897e-11 -1.8663e-09 0)
(-6.1181e-11 -1.83389e-09 0)
(-5.71603e-11 -1.93077e-09 0)
(2.25356e-11 -2.06641e-09 0)
(-5.18073e-11 -2.38272e-09 0)
(0 0 0)
(-1.01893e-10 -2.07605e-09 0)
(1.0924e-11 -1.98712e-09 0)
(1.43363e-11 -1.89522e-09 0)
(-1.12018e-09 9.23212e-08 0)
(-2.86454e-10 -4.06525e-10 0)
(-8.17853e-11 -1.76085e-09 0)
(1.24239e-10 -4.28576e-09 0)
(5.84157e-11 -2.09235e-09 0)
(-4.14124e-11 -1.92465e-09 0)
(1.40461e-10 -1.92224e-09 0)
(0 0 0)
(5.16421e-11 -1.89844e-09 0)
(7.36131e-11 -4.27741e-09 0)
(0 0 0)
(-1.79417e-11 -1.88058e-09 0)
(0 0 0)
(-1.53994e-10 -1.87181e-09 0)
(0 0 0)
(-3.45921e-11 -1.92579e-09 0)
(9.78002e-11 -4.11673e-09 0)
(-2.89294e-11 -1.84994e-09 0)
(-1.86109e-11 -1.97373e-09 0)
(1.21677e-10 -2.08888e-09 0)
(1.42736e-10 -2.02176e-09 0)
(1.48404e-10 -1.84318e-09 0)
(1.43353e-11 -1.76202e-09 0)
(-7.24304e-12 -1.88729e-09 0)
(9.1144e-11 -2.09945e-09 0)
(7.82603e-11 -2.30352e-09 0)
(3.46624e-11 -8.6686e-10 0)
(2.74707e-11 -9.59748e-10 0)
(1.29116e-11 -2.02537e-09 0)
(-1.52111e-10 -4.77526e-09 0)
(-6.5347e-11 -3.06985e-09 0)
(-2.87483e-11 -1.88292e-09 0)
(0 0 0)
(0 0 0)
(1.75099e-10 -1.98457e-09 0)
(6.40264e-11 -1.97509e-09 0)
(3.34269e-11 -1.82587e-09 0)
(8.63426e-11 -4.09703e-09 0)
(8.1075e-11 -4.10027e-09 0)
(-1.38256e-12 -3.92665e-09 0)
(-4.32615e-11 -1.69062e-09 0)
(-1.02779e-10 -1.9291e-09 0)
(-3.73866e-11 -2.03387e-09 0)
(-7.39328e-11 -1.9385e-09 0)
(-3.54048e-10 -5.12411e-09 0)
(-3.00216e-11 -6.07279e-10 0)
(-1.6959e-10 -2.81068e-09 0)
(-1.1017e-10 -1.73613e-09 0)
(-5.05933e-11 -1.90928e-09 0)
(-5.48535e-11 -2.01976e-09 0)
(-3.12529e-11 -1.96041e-09 0)
(-9.58813e-13 -2.00648e-09 0)
(2.04227e-11 -2.00353e-09 0)
(0 0 0)
(3.6809e-11 -1.99936e-09 0)
(-4.2518e-11 -2.0414e-09 0)
(-1.26657e-10 -1.98284e-09 0)
(-1.36322e-10 -2.06714e-09 0)
(-1.20064e-10 -2.10925e-09 0)
(-8.76477e-11 -1.93101e-09 0)
(-3.5785e-11 -1.92557e-09 0)
(-9.40622e-11 -1.78537e-09 0)
(-1.0322e-10 -2.09075e-09 0)
(7.76054e-11 -2.11972e-09 0)
(6.80458e-11 -2.12046e-09 0)
(-2.51418e-11 -2.68827e-09 0)
(-1.28957e-10 -3.28516e-09 0)
(-5.92055e-11 -1.84005e-09 0)
(-1.23619e-10 -1.90963e-09 0)
(-3.39625e-11 -2.36086e-09 0)
(-8.75009e-12 -7.87445e-10 0)
(2.26534e-12 -2.16359e-09 0)
(1.14793e-11 -8.96012e-10 0)
(1.1513e-11 -1.94845e-09 0)
(-2.11595e-10 -1.88071e-09 0)
(-1.23503e-09 7.88218e-08 0)
(-3.39366e-10 1.90271e-09 0)
(-6.23851e-11 -1.28136e-09 0)
(6.14492e-11 -2.28692e-09 0)
(6.6963e-11 -2.35633e-09 0)
(0 0 0)
(5.12811e-11 -3.8511e-09 0)
(6.79675e-11 -1.96277e-09 0)
(-3.54303e-11 -1.80283e-09 0)
(0 0 0)
(1.175e-10 -1.90534e-09 0)
(6.57409e-11 -2.03316e-09 0)
(2.637e-11 -2.05745e-09 0)
(0 0 0)
(-1.09669e-11 -1.81601e-09 0)
(0 0 0)
(0 0 0)
(-2.22944e-11 -2.04034e-09 0)
(-3.54194e-11 -2.03672e-09 0)
(5.17614e-11 -1.95946e-09 0)
(2.09493e-10 -4.30778e-09 0)
(1.38944e-10 -1.87801e-09 0)
(8.72906e-11 -4.1573e-09 0)
(1.07256e-10 -1.78936e-09 0)
(1.18661e-10 -1.79165e-09 0)
(1.43139e-10 -1.96566e-09 0)
(2.06817e-10 -2.0515e-09 0)
(7.55515e-11 -2.04177e-09 0)
(3.21177e-11 -4.89241e-09 0)
(-4.13228e-12 -1.84691e-09 0)
(1.84243e-11 -1.79302e-09 0)
(0 0 0)
(7.39634e-11 -1.83363e-09 0)
(1.38605e-10 -4.3411e-09 0)
(9.45905e-11 -4.58524e-09 0)
(3.20637e-11 -1.74002e-09 0)
(1.30372e-11 -4.19741e-09 0)
(0 0 0)
(5.93966e-11 -1.92157e-09 0)
(-2.06782e-10 -1.92769e-09 0)
(-1.00946e-10 -1.74668e-09 0)
(7.38543e-12 -2.05643e-09 0)
(-5.58318e-11 -2.14956e-09 0)
(0 0 0)
(-1.96581e-10 -2.25731e-09 0)
(-2.23085e-11 -2.09744e-09 0)
(-7.34617e-11 -1.84752e-09 0)
(1.6941e-11 -1.81347e-09 0)
(1.97735e-11 -1.8796e-09 0)
(-3.53189e-11 -1.89227e-09 0)
(-4.03009e-11 -1.91046e-09 0)
(-3.91534e-11 -1.80486e-09 0)
(4.54845e-12 -1.86221e-09 0)
(-2.65632e-12 -3.28217e-09 0)
(-4.00814e-11 -3.01634e-09 0)
(6.87357e-13 -1.90285e-09 0)
(-2.20994e-11 -8.90019e-10 0)
(-1.14164e-11 -3.87427e-10 0)
(-3.39176e-11 -1.94851e-09 0)
(-1.68785e-10 -1.96217e-09 0)
(-1.58548e-10 -1.97167e-09 0)
(-1.69535e-10 -1.91098e-09 0)
(-1.0139e-10 -2.36523e-09 0)
(-4.86408e-11 -4.277e-09 0)
(2.03462e-11 -1.90594e-09 0)
(-1.48206e-11 -1.92537e-09 0)
(-5.9697e-11 -1.92145e-09 0)
(-8.1277e-11 -1.95953e-09 0)
(-6.50954e-11 -1.90883e-09 0)
(-1.41758e-10 -1.97393e-09 0)
(7.85907e-11 -2.40184e-09 0)
(0 0 0)
(1.303e-10 -2.08161e-09 0)
(4.65703e-11 -2.09805e-09 0)
(2.18993e-12 -1.98475e-09 0)
(1.68097e-08 1.03502e-07 0)
(5.14473e-10 2.18566e-09 0)
(1.99019e-10 -2.4386e-09 0)
(6.15679e-11 -3.65158e-09 0)
(1.08994e-10 -2.31599e-09 0)
(0 0 0)
(1.22889e-10 -1.97638e-09 0)
(8.56154e-11 -1.8647e-09 0)
(1.74884e-10 -4.36009e-09 0)
(1.37177e-10 -1.79613e-09 0)
(1.58852e-10 -1.87325e-09 0)
(9.90448e-11 -1.92327e-09 0)
(6.09876e-11 -2.01291e-09 0)
(3.18191e-11 -1.95384e-09 0)
(4.36895e-11 -1.92701e-09 0)
(7.7842e-11 -1.93787e-09 0)
(6.2991e-11 -2.06636e-09 0)
(-2.82719e-11 -4.8576e-09 0)
(-1.21155e-10 -2.08277e-09 0)
(-6.62162e-11 -1.89476e-09 0)
(-1.95793e-10 -4.42797e-09 0)
(4.06618e-11 -1.74346e-09 0)
(8.02252e-11 -1.79004e-09 0)
(6.79999e-11 -1.7961e-09 0)
(8.20245e-11 -1.77722e-09 0)
(2.85564e-11 -1.85124e-09 0)
(5.45741e-11 -4.83614e-09 0)
(6.42129e-11 -1.97559e-09 0)
(1.54474e-11 -2.00799e-09 0)
(-1.21736e-11 -1.94034e-09 0)
(-1.46283e-11 -1.80309e-09 0)
(2.64642e-11 -1.77638e-09 0)
(-1.06197e-10 -4.34057e-09 0)
(-3.79089e-11 -1.98621e-09 0)
(-8.53897e-12 -1.93366e-09 0)
(1.10058e-10 -1.78758e-09 0)
(4.85016e-11 -1.71547e-09 0)
(2.93772e-11 -1.77265e-09 0)
(-3.20924e-11 -2.14418e-09 0)
(0 0 0)
(-6.50803e-11 -1.87886e-09 0)
(-5.83563e-11 -1.9434e-09 0)
(2.73551e-11 -3.40336e-09 0)
(-4.53606e-11 -3.44062e-09 0)
(-1.55016e-11 -2.29152e-09 0)
(4.05566e-11 -2.14515e-09 0)
(5.18647e-12 -2.74649e-10 0)
(4.60686e-11 -2.35662e-09 0)
(4.2486e-11 -3.44342e-09 0)
(5.41292e-11 -1.91114e-09 0)
(-6.91953e-11 -1.71672e-09 0)
(2.7805e-11 -1.94344e-09 0)
(1.32304e-12 -1.95744e-09 0)
(-7.90193e-11 -1.90342e-09 0)
(-1.09165e-10 -1.87499e-09 0)
(-1.7092e-11 -1.97347e-09 0)
(1.31996e-12 -1.93928e-09 0)
(6.94256e-11 -2.02586e-09 0)
(-1.17961e-10 -1.95078e-09 0)
(-1.96259e-10 -1.92387e-09 0)
(-1.2097e-10 -1.87492e-09 0)
(-1.31443e-10 -1.88467e-09 0)
(-9.19094e-11 -1.92563e-09 0)
(-1.24698e-10 -1.96725e-09 0)
(-3.29246e-11 -1.92856e-09 0)
(3.84646e-11 -4.72579e-09 0)
(-3.41306e-11 -1.8708e-09 0)
(-5.42607e-12 -1.38673e-10 0)
(-6.71434e-11 -1.58995e-09 0)
(-7.18349e-11 -1.90366e-09 0)
(-6.66144e-11 -2.13773e-09 0)
(0 0 0)
(1.59801e-10 -2.08481e-09 0)
(-3.6318e-11 -4.42431e-09 0)
(-4.63563e-11 -2.05472e-09 0)
(1.02858e-08 6.9003e-08 0)
(1.74883e-09 5.52186e-10 0)
(3.72835e-10 -2.16415e-09 0)
(2.38323e-11 -1.98824e-09 0)
(9.47517e-11 -2.09747e-09 0)
(1.99997e-10 -2.03931e-09 0)
(1.07971e-10 -2.01906e-09 0)
(2.0073e-11 -5.38383e-10 0)
(3.63415e-11 -9.03186e-10 0)
(1.01113e-10 -2.08075e-09 0)
(1.14321e-10 -1.95774e-09 0)
(1.00339e-10 -1.92675e-09 0)
(8.2543e-11 -2.00255e-09 0)
(6.18991e-11 -1.88395e-09 0)
(-7.95035e-11 -4.12869e-09 0)
(-2.62969e-11 -1.70956e-09 0)
(-1.69509e-10 -5.07193e-09 0)
(-6.32877e-11 -2.052e-09 0)
(1.63831e-11 -1.82598e-09 0)
(-2.95943e-11 -1.67779e-09 0)
(-1.02231e-11 -1.79252e-09 0)
(7.81811e-11 -1.8785e-09 0)
(3.38375e-11 -1.92429e-09 0)
(3.73397e-11 -4.17321e-09 0)
(6.57797e-11 -1.84188e-09 0)
(-4.5586e-11 -1.80176e-09 0)
(-5.36388e-11 -1.89923e-09 0)
(-8.01729e-12 -1.93812e-09 0)
(9.23872e-11 -4.93368e-09 0)
(2.83003e-11 -1.89384e-09 0)
(-2.19292e-11 -1.74997e-09 0)
(-1.57444e-11 -1.81803e-09 0)
(-4.67843e-11 -2.74702e-09 0)
(-8.09785e-12 -9.80251e-10 0)
(-1.39335e-12 -1.90358e-09 0)
(-2.10703e-11 -2.01795e-09 0)
(0 0 0)
(-1.82679e-11 -1.94755e-09 0)
(-5.29687e-11 -4.41574e-09 0)
(5.3344e-11 -2.0012e-09 0)
(0 0 0)
(6.60327e-12 -2.05911e-09 0)
(-2.94548e-11 -2.12833e-09 0)
(-1.04517e-10 -2.22622e-09 0)
(3.77359e-11 -2.16921e-09 0)
(6.7657e-11 -2.00004e-09 0)
(8.75957e-11 -1.86379e-09 0)
(2.65962e-11 -1.86294e-09 0)
(-1.62997e-11 -1.99387e-09 0)
(5.92876e-11 -1.95586e-09 0)
(7.33928e-11 -1.9126e-09 0)
(3.58387e-11 -1.97986e-09 0)
(2.63654e-11 -2.01769e-09 0)
(-3.04182e-11 -2.82352e-09 0)
(6.16503e-11 -3.43835e-09 0)
(-9.94813e-11 -1.91913e-09 0)
(-9.93939e-11 -1.82984e-09 0)
(7.04358e-11 -2.02841e-09 0)
(-1.29826e-10 -2.05205e-09 0)
(-1.42925e-10 -1.93849e-09 0)
(-1.59252e-10 -1.86039e-09 0)
(-1.18945e-10 -1.90956e-09 0)
(-9.64236e-11 -1.9317e-09 0)
(-7.9745e-11 -1.94201e-09 0)
(-8.72216e-11 -1.92102e-09 0)
(-7.94941e-12 -2.17453e-09 0)
(1.20085e-10 -4.42407e-09 0)
(-2.4233e-11 -1.82381e-09 0)
(-2.50792e-11 -1.8234e-09 0)
(-1.68169e-11 -1.96961e-09 0)
(2.23228e-11 -2.13163e-09 0)
(0 0 0)
(1.28984e-10 -4.95783e-09 0)
(-2.70403e-11 -1.95198e-09 0)
(0 0 0)
(-6.08976e-09 8.23059e-08 0)
(1.35528e-09 7.49625e-10 0)
(4.97642e-11 -2.02482e-09 0)
(1.06036e-10 -1.89466e-09 0)
(1.54066e-10 -2.07935e-09 0)
(1.00396e-10 -2.16316e-09 0)
(3.44058e-11 -9.10024e-10 0)
(1.21983e-11 -2.83767e-10 0)
(2.25443e-11 -3.07513e-09 0)
(1.90257e-11 -4.91679e-10 0)
(4.40778e-11 -1.98014e-09 0)
(-4.55401e-12 -4.31987e-09 0)
(1.66096e-11 -1.82956e-09 0)
(2.38111e-11 -1.87298e-09 0)
(-3.45529e-11 -1.84572e-09 0)
(-6.57969e-11 -1.92503e-09 0)
(-6.14507e-11 -2.13377e-09 0)
(-9.07736e-11 -2.15414e-09 0)
(5.27271e-11 -2.00012e-09 0)
(3.85118e-11 -1.93642e-09 0)
(7.0753e-11 -1.84107e-09 0)
(6.05095e-11 -2.05339e-09 0)
(1.8948e-11 -1.80381e-09 0)
(-8.18789e-12 -1.72528e-09 0)
(5.73116e-12 -4.62425e-09 0)
(3.15269e-11 -1.78442e-09 0)
(6.72584e-12 -1.84006e-09 0)
(-4.90862e-11 -1.98309e-09 0)
(-6.43178e-11 -2.05202e-09 0)
(5.49934e-12 -2.03175e-09 0)
(-1.32653e-11 -2.03987e-09 0)
(1.02637e-11 -1.97143e-09 0)
(-2.38886e-11 -1.90026e-09 0)
(4.02381e-11 -1.969e-09 0)
(2.36379e-11 -2.06438e-09 0)
(0 0 0)
(1.83927e-11 -1.9054e-09 0)
(0 0 0)
(0 0 0)
(3.07305e-11 -1.91147e-09 0)
(6.8964e-11 -1.96618e-09 0)
(0 0 0)
(-4.51799e-11 -2.39455e-09 0)
(0 0 0)
(6.57624e-11 -4.92934e-09 0)
(7.59673e-11 -1.8034e-09 0)
(5.65838e-11 -1.80679e-09 0)
(-1.24569e-11 -1.88096e-09 0)
(2.10584e-11 -2.01512e-09 0)
(8.12789e-11 -2.07417e-09 0)
(0 0 0)
(3.63132e-11 -1.99615e-09 0)
(2.47204e-11 -2.00714e-09 0)
(8.57698e-12 -2.03064e-09 0)
(-7.04854e-11 -2.07631e-09 0)
(-1.59695e-10 -2.06555e-09 0)
(-1.80306e-10 -2.01759e-09 0)
(-5.77558e-10 -7.68073e-09 0)
(-2.20527e-10 -1.83256e-09 0)
(-2.76256e-11 -1.95281e-09 0)
(-5.28154e-11 -1.84157e-09 0)
(-8.04127e-11 -1.77966e-09 0)
(-8.44759e-11 -1.77957e-09 0)
(-1.13817e-10 -1.91678e-09 0)
(-1.13826e-10 -1.96289e-09 0)
(-8.62548e-11 -1.9583e-09 0)
(-5.0182e-11 -4.98313e-09 0)
(-3.2899e-11 -1.81242e-09 0)
(2.5264e-12 -1.70223e-09 0)
(4.7088e-11 -1.8182e-09 0)
(2.1252e-11 -1.92652e-09 0)
(8.81517e-11 -2.06187e-09 0)
(-7.14853e-11 -2.77513e-09 0)
(-2.04577e-11 -1.21485e-09 0)
(-1.08897e-11 -1.8267e-09 0)
(-4.30682e-09 8.05106e-08 0)
(8.255e-10 1.46067e-09 0)
(1.14086e-10 -1.72985e-09 0)
(3.30481e-11 -3.65854e-09 0)
(9.05585e-11 -2.98948e-09 0)
(7.0276e-11 -1.90911e-09 0)
(1.68333e-10 -1.84163e-09 0)
(1.78416e-10 -1.73653e-09 0)
(1.11587e-10 -1.88711e-09 0)
(8.38975e-11 -2.00587e-09 0)
(3.45977e-11 -1.90785e-09 0)
(-1.17341e-11 -1.90356e-09 0)
(2.1837e-11 -1.9398e-09 0)
(2.17575e-11 -1.945e-09 0)
(-6.49442e-11 -1.94168e-09 0)
(-3.29754e-11 -2.05997e-09 0)
(-1.17002e-10 -2.49049e-09 0)
(0 0 0)
(-9.05889e-12 -2.05897e-09 0)
(2.19037e-11 -1.94522e-09 0)
(7.73824e-11 -1.89345e-09 0)
(2.7323e-11 -1.86369e-09 0)
(1.05525e-10 -1.88864e-09 0)
(1.65261e-11 -2.06296e-09 0)
(-4.4385e-11 -1.8557e-09 0)
(2.25538e-11 -1.86686e-09 0)
(2.55705e-11 -1.98013e-09 0)
(-4.18364e-11 -2.04457e-09 0)
(-2.29393e-11 -2.00154e-09 0)
(3.55291e-11 -1.99356e-09 0)
(1.68228e-11 -2.04054e-09 0)
(-1.82357e-11 -2.00433e-09 0)
(-5.81925e-12 -1.9763e-09 0)
(1.33653e-11 -2.05061e-09 0)
(1.52551e-11 -1.13332e-09 0)
(2.36413e-12 -1.68583e-10 0)
(5.1742e-11 -2.03441e-09 0)
(8.10354e-11 -2.03694e-09 0)
(5.37103e-11 -2.02648e-09 0)
(6.05101e-11 -2.05956e-09 0)
(5.97055e-11 -2.01649e-09 0)
(3.07852e-11 -2.0925e-09 0)
(-2.01185e-11 -2.20234e-09 0)
(1.09232e-10 -3.71882e-09 0)
(8.62405e-11 -2.60816e-09 0)