/*--------------------------------*- C++ -*----------------------------------*\
  =========                 |
  \\      /  F ield         | OpenFOAM: The Open Source CFD Toolbox
   \\    /   O peration     | Website:  https://openfoam.org
    \\  /    A nd           | Version:  12
     \\/     M anipulation  |
\*---------------------------------------------------------------------------*/
FoamFile
{
    format      ascii;
    class       volScalarField;
    location    "0.5";
    object      p;
}
// * * * * * * * * * * * * * * * * * * * * * * * * * * * * * * * * * * * * * //

dimensions      [0 2 -2 0 0 0 0];

internalField   nonuniform List<scalar> 
3750
(
1.49252
1.48336
1.46927
1.45545
1.4578
1.44464
1.43052
1.4221
1.41537
1.40725
1.38793
1.37735
1.3637
1.35066
1.34126
1.33453
1.32486
1.31228
1.29887
1.28424
1.28432
1.27283
1.26214
1.25233
1.24187
1.22948
1.21891
1.20827
1.19667
1.18543
1.18898
1.1698
1.16198
1.15349
1.1449
1.13684
1.12236
1.11229
1.09804
1.09079
1.08284
1.07407
1.06455
1.05443
1.04341
1.03106
1.03341
1.02226
1.0125
1.00089
0.989582
0.978308
0.967056
0.956035
0.945753
0.9363
0.927171
0.91633
0.908573
0.900462
0.892435
0.873984
0.864633
0.85491
0.846129
0.839992
0.820524
0.821334
0.80925
0.796536
0.784383
0.766502
0.758202
0.749784
0.757014
1.48703
1.47692
1.47072
1.46315
1.45651
1.44158
1.43104
1.42109
1.41709
1.40593
1.39165
1.3804
1.36312
1.34785
1.3394
1.33718
1.3265
1.31211
1.29904
1.28624
1.27934
1.27079
1.26116
1.25351
1.24405
1.22753
1.21898
1.20908
1.19709
1.18788
1.18164
1.17016
1.16308
1.1538
1.14434
1.13471
1.12347
1.11066
1.10016
1.0911
1.08374
1.07485
1.06515
1.05507
1.04489
1.03537
1.02923
1.01986
1.01267
1.00039
0.989652
0.978296
0.966848
0.955188
0.94441
0.937498
0.928707
0.916416
0.909549
0.900293
0.890177
0.877461
0.864927
0.854449
0.845538
0.841722
0.82794
0.818718
0.807808
0.795411
0.784985
0.765283
0.760115
0.751803
0.753901
1.48441
1.46985
1.47219
1.46748
1.457
1.4393
1.43208
1.4153
1.41235
1.40761
1.39238
1.37672
1.36
1.35295
1.34315
1.3374
1.32951
1.31143
1.29603
1.28794
1.27574
1.26935
1.2583
1.25588
1.24037
1.23035
1.22055
1.212
1.19548
1.1877
1.1801
1.1674
1.16454
1.15386
1.14374
1.13338
1.12274
1.11023
1.09994
1.09157
1.08532
1.07652
1.06621
1.05592
1.046
1.03701
1.02658
1.01526
1.00413
0.998577
0.990293
0.978378
0.966881
0.953462
0.941139
0.939173
0.930792
0.924925
0.912421
0.901007
0.890618
0.880952
0.863302
0.853807
0.851347
0.841054
0.827485
0.818159
0.807785
0.793447
0.785047
0.774455
0.767652
0.755912
0.751872
1.48598
1.475
1.46772
1.46098
1.45126
1.43922
1.43098
1.42057
1.41302
1.40434
1.39283
1.37584
1.36185
1.35886
1.34521
1.33693
1.32798
1.31437
1.29343
1.28702
1.27405
1.26047
1.25956
1.25956
1.24361
1.2319
1.22104
1.21035
1.19754
1.18766
1.17849
1.16887
1.16232
1.15294
1.14335
1.13238
1.12133
1.11002
1.09872
1.09053
1.08919
1.07904
1.06844
1.0549
1.04666
1.03995
1.02513
1.0125
1.0005
0.999461
0.994021
0.977918
0.968551
0.95093
0.940062
0.93808
0.928413
0.926047
0.913792
0.900864
0.890307
0.879515
0.867602
0.858203
0.851428
0.840619
0.828771
0.818712
0.809876
0.799843
0.788709
0.778472
0.768825
0.756772
0.762139
1.48796
1.47651
1.46935
1.45643
1.4478
1.43618
1.43312
1.42233
1.41236
1.40364
1.39227
1.37844
1.36622
1.35707
1.34582
1.33681
1.32571
1.31135
1.2963
1.29001
1.27493
1.25823
1.25969
1.25959
1.24369
1.23253
1.22149
1.21219
1.19515
1.18693
1.17713
1.17055
1.16255
1.1532
1.14284
1.13138
1.12021
1.11076
1.09708
1.09332
1.09106
1.07812
1.06662
1.05539
1.04587
1.03815
1.02736
1.0176
1.00163
0.99512
0.994245
0.983004
0.965555
0.954077
0.9424
0.935727
0.928042
0.921584
0.916107
0.899223
0.889787
0.879323
0.86943
0.86022
0.851763
0.840981
0.829471
0.818453
0.806906
0.799736
0.791883
0.781369
0.771437
0.762526
0.757654
1.4892
1.47586
1.46874
1.45458
1.44773
1.43727
1.4296
1.42192
1.41022
1.40575
1.39311
1.37983
1.36752
1.35666
1.34551
1.33771
1.32178
1.30917
1.29614
1.2886
1.27851
1.26722
1.26122
1.2546
1.24278
1.23183
1.2203
1.20883
1.19611
1.18791
1.17442
1.17145
1.16428
1.15437
1.14346
1.13022
1.11794
1.11366
1.10178
1.09436
1.08811
1.07449
1.06464
1.0542
1.04462
1.03823
1.02876
1.0176
1.00543
0.995922
0.99172
0.980701
0.968429
0.953962
0.944914
0.935592
0.927066
0.916397
0.914961
0.902556
0.889524
0.879162
0.870088
0.861353
0.85449
0.842167
0.829783
0.819465
0.800583
0.798637
0.795635
0.783504
0.773641
0.765996
0.754444
1.48685
1.4777
1.46883
1.45234
1.45016
1.4379
1.42605
1.42401
1.41174
1.40371
1.39455
1.37801
1.36731
1.35674
1.34209
1.33353
1.32035
1.3079
1.29585
1.28966
1.28356
1.27366
1.26302
1.25257
1.24125
1.23127
1.21941
1.20696
1.19427
1.18901
1.17623
1.16659
1.1658
1.15617
1.14646
1.12883
1.11962
1.11278
1.10411
1.09386
1.08546
1.07401
1.06295
1.05233
1.0409
1.04071
1.03188
1.01861
1.00665
0.99431
0.990799
0.978352
0.966489
0.955841
0.943501
0.939296
0.92727
0.915271
0.911791
0.906365
0.886743
0.877612
0.870628
0.862622
0.859428
0.842835
0.829645
0.816413
0.805558
0.799071
0.792983
0.783431
0.773529
0.766717
0.755543
1.48474
1.48182
1.47055
1.45676
1.44762
1.43807
1.42859
1.42128
1.41135
1.40231
1.39034
1.37658
1.36758
1.35602
1.34312
1.3337
1.3185
1.30772
1.29496
1.29155
1.28912
1.27907
1.26437
1.25162
1.2383
1.23299
1.21855
1.20683
1.19651
1.18782
1.17654
1.16516
1.16397
1.15588
1.14475
1.13191
1.12222
1.11326
1.10368
1.09204
1.08556
1.07304
1.06084
1.05231
1.04068
1.03948
1.03677
1.01993
1.00867
0.996532
0.987627
0.976532
0.963991
0.960137
0.945836
0.938351
0.928744
0.909386
0.910079
0.90738
0.88753
0.87489
0.871224
0.870282
0.858045
0.842207
0.829937
0.817964
0.807779
0.799054
0.790865
0.783484
0.772286
0.768572
0.756739
1.51621
1.49355
1.47418
1.45774
1.44653
1.43819
1.42991
1.42066
1.41105
1.40237
1.38914
1.37065
1.3689
1.35881
1.34105
1.33332
1.31885
1.30912
1.2994
1.29279
1.28627
1.27649
1.26379
1.25132
1.23978
1.23103
1.22243
1.21063
1.19923
1.18826
1.17681
1.16558
1.15793
1.15539
1.14461
1.13351
1.12308
1.112
1.10246
1.09106
1.07861
1.07172
1.05726
1.05505
1.04469
1.04172
1.03331
1.02116
1.01164
0.996164
0.984698
0.976449
0.966277
0.95882
0.947002
0.937425
0.926196
0.912476
0.911642
0.903396
0.889585
0.878154
0.869716
0.86908
0.856574
0.843047
0.829869
0.818989
0.808464
0.798558
0.790703
0.786599
0.774238
0.766613
0.756516
1.50959
1.49366
1.47539
1.45412
1.45244
1.44003
1.43134
1.42032
1.4097
1.39895
1.38758
1.37546
1.36448
1.3554
1.3429
1.33223
1.32071
1.31102
1.30215
1.2939
1.28529
1.27621
1.26305
1.25029
1.23915
1.22883
1.22765
1.21248
1.19985
1.19043
1.17612
1.16552
1.15813
1.15149
1.14238
1.1348
1.12385
1.11119
1.10102
1.09096
1.08016
1.0704
1.05985
1.05338
1.04536
1.04886
1.03102
1.01969
1.00775
0.996843
0.985863
0.976952
0.967805
0.958289
0.945958
0.938312
0.927301
0.915922
0.909734
0.900947
0.890536
0.880337
0.871131
0.863078
0.855744
0.846233
0.828761
0.819361
0.808793
0.797768
0.79666
0.786623
0.772338
0.765278
0.755303
1.50818
1.49092
1.47245
1.45667
1.45287
1.44348
1.4351
1.41809
1.40847
1.397
1.38634
1.37556
1.36414
1.35434
1.34315
1.33187
1.32131
1.31224
1.30422
1.29554
1.28653
1.27822
1.26186
1.24915
1.23968
1.22879
1.22097
1.21192
1.19939
1.19593
1.1796
1.16883
1.15955
1.14962
1.13921
1.13687
1.1234
1.10878
1.09916
1.09171
1.08071
1.06961
1.05897
1.05464
1.04796
1.0459
1.03437
1.01915
1.0042
0.997711
0.986758
0.97771
0.969066
0.961166
0.942132
0.940529
0.928775
0.914573
0.908637
0.900665
0.891324
0.881741
0.873453
0.856443
0.85484
0.843653
0.833279
0.821083
0.809941
0.800481
0.790441
0.786244
0.774136
0.765684
0.753407
1.51179
1.48662
1.4739
1.45312
1.45097
1.44671
1.43433
1.42108
1.40916
1.39452
1.38517
1.375
1.36446
1.35405
1.34309
1.33075
1.32024
1.31367
1.30741
1.29753
1.28797
1.27459
1.26415
1.25238
1.24013
1.22774
1.2159
1.21286
1.20121
1.19584
1.18135
1.17151
1.16172
1.15023
1.14075
1.1348
1.12069
1.10839
1.09684
1.09485
1.08101
1.07041
1.06257
1.04813
1.04817
1.04445
1.03993
1.01848
1.00004
0.999025
0.986831
0.978098
0.969545
0.961107
0.946362
0.938718
0.926509
0.917336
0.909876
0.901762
0.892144
0.881889
0.871411
0.859911
0.852489
0.841664
0.83726
0.823928
0.80805
0.799781
0.790333
0.781999
0.772259
0.765157
0.749496
1.48295
1.47976
1.47068
1.45782
1.45064
1.44386
1.43393
1.42263
1.40568
1.39435
1.38468
1.37472
1.36453
1.35427
1.34395
1.32899
1.31709
1.31477
1.31181
1.29899
1.28747
1.27459
1.26578
1.2549
1.24035
1.22913
1.21734
1.20987
1.1991
1.19709
1.18236
1.17367
1.16549
1.14916
1.14105
1.13219
1.1199
1.10913
1.09874
1.09334
1.07985
1.07015
1.06092
1.05363
1.0484
1.04213
1.03252
1.01633
1.00483
0.997574
0.987248
0.978281
0.97003
0.963207
0.945573
0.937444
0.927282
0.917824
0.911756
0.903025
0.893553
0.882167
0.870645
0.860913
0.852212
0.844783
0.832287
0.822515
0.810559
0.800263
0.791565
0.778779
0.769332
0.765776
0.750859
1.48674
1.47904
1.47078
1.45948
1.44965
1.44338
1.43484
1.4169
1.4085
1.39257
1.3845
1.37469
1.3646
1.35433
1.34362
1.33037
1.32021
1.31625
1.30999
1.29953
1.28631
1.27243
1.26777
1.25565
1.23917
1.23322
1.21728
1.20888
1.20048
1.19419
1.18338
1.17419
1.16432
1.15217
1.14246
1.13094
1.1202
1.10959
1.0998
1.09095
1.07984
1.0696
1.05968
1.05712
1.04591
1.04086
1.02833
1.01581
1.0063
0.996477
0.98694
0.977701
0.969043
0.960066
0.946806
0.939177
0.928744
0.917549
0.915558
0.904761
0.895494
0.88272
0.870011
0.860876
0.851823
0.842693
0.831035
0.826394
0.810897
0.799944
0.789822
0.778231
0.774434
0.760567
0.751182
1.48998
1.48035
1.47368
1.4598
1.44561
1.44365
1.43028
1.41565
1.40623
1.39535
1.38612
1.37499
1.36501
1.35489
1.3446
1.33145
1.32091
1.31898
1.30886
1.29925
1.28613
1.27441
1.26455
1.25643
1.2426
1.23112
1.21562
1.20966
1.2015
1.19296
1.18425
1.17495
1.16513
1.15296
1.14541
1.12881
1.12041
1.10929
1.09952
1.0903
1.08058
1.06982
1.06141
1.05741
1.04381
1.03641
1.0249
1.01599
1.00662
0.995386
0.986338
0.976885
0.967927
0.959081
0.945965
0.942683
0.931467
0.92145
0.914646
0.904621
0.894891
0.883401
0.872077
0.860961
0.851529
0.842759
0.835523
0.823011
0.810987
0.79973
0.789112
0.77398
0.775333
0.760974
0.751967
1.49268
1.47931
1.47029
1.46147
1.45246
1.43939
1.42615
1.41547
1.40541
1.39658
1.38968
1.37421
1.3653
1.35563
1.34815
1.33141
1.32365
1.31765
1.30841
1.2978
1.28586
1.27488
1.26433
1.25542
1.2454
1.23008
1.21446
1.21112
1.20154
1.19212
1.18594
1.17665
1.16767
1.15031
1.14241
1.13123
1.12231
1.10882
1.09866
1.0901
1.08217
1.069
1.06079
1.05349
1.04436
1.03501
1.02471
1.0162
1.00875
0.992188
0.986787
0.97634
0.966368
0.959651
0.949808
0.94237
0.932462
0.923106
0.91472
0.903841
0.894034
0.884029
0.875311
0.85929
0.850621
0.841383
0.833032
0.822863
0.812666
0.79431
0.791156
0.779931
0.773587
0.76218
0.752345
1.4996
1.47693
1.46672
1.4625
1.45208
1.43977
1.426
1.41505
1.40337
1.39606
1.38894
1.37964
1.36669
1.35589
1.34672
1.33507
1.32601
1.3177
1.30865
1.29689
1.28482
1.27484
1.26474
1.25415
1.24673
1.23163
1.21812
1.20963
1.19954
1.19118
1.18838
1.17724
1.16563
1.15095
1.13849
1.13503
1.12255
1.11133
1.09558
1.08986
1.07764
1.07176
1.05839
1.05142
1.04364
1.03527
1.02557
1.01627
1.00598
0.992609
0.989713
0.975217
0.96277
0.963151
0.952798
0.942507
0.932982
0.923979
0.916311
0.903925
0.893332
0.883436
0.873612
0.861451
0.848253
0.839598
0.832088
0.821614
0.810417
0.798933
0.790783
0.781852
0.773295
0.763425
0.753238
1.49479
1.48056
1.46824
1.4593
1.45149
1.43953
1.42395
1.41607
1.39994
1.39547
1.38992
1.38617
1.36577
1.35595
1.34613
1.33597
1.32681
1.31853
1.3112
1.2951
1.28203
1.27436
1.26563
1.25216
1.25217
1.23161
1.21975
1.20882
1.19715
1.19424
1.18627
1.17884
1.16668
1.15022
1.1388
1.1241
1.1216
1.11713
1.09593
1.09446
1.07925
1.06767
1.05514
1.04878
1.04291
1.03731
1.02692
1.01678
1.00631
0.996098
0.988674
0.974058
0.962643
0.963162
0.953189
0.942611
0.933404
0.92468
0.916407
0.90608
0.893177
0.882866
0.873512
0.8582
0.845717
0.844205
0.832464
0.82071
0.810232
0.799301
0.789219
0.78224
0.774469
0.765038
0.75528
1.49521
1.48532
1.46772
1.45576
1.45211
1.43927
1.4232
1.41755
1.40385
1.39599
1.38865
1.3805
1.36717
1.35617
1.3459
1.33588
1.32668
1.31843
1.31005
1.29878
1.27981
1.27433
1.25955
1.25889
1.25083
1.2382
1.22033
1.20981
1.19892
1.19217
1.18374
1.18305
1.16527
1.15269
1.13997
1.12089
1.12034
1.11116
1.10007
1.09734
1.07771
1.07059
1.04958
1.04449
1.04144
1.04024
1.02814
1.01742
1.00753
0.997126
0.98699
0.975517
0.966213
0.959949
0.950822
0.941622
0.933526
0.924982
0.916116
0.907128
0.896785
0.880439
0.871184
0.854957
0.8526
0.843876
0.832915
0.820327
0.809016
0.799221
0.787103
0.783901
0.7743
0.766837
0.757644
1.49539
1.48469
1.47453
1.456
1.44818
1.44265
1.4237
1.41538
1.40579
1.39665
1.38779
1.37856
1.36603
1.35563
1.34545
1.33498
1.32555
1.31934
1.31155
1.29444
1.27979
1.27081
1.26318
1.25978
1.2524
1.24225
1.22547
1.21173
1.19799
1.19165
1.18437
1.17853
1.16587
1.15
1.14396
1.12727
1.11811
1.10734
1.10585
1.08893
1.07603
1.07298
1.05748
1.041
1.03962
1.03785
1.03182
1.0179
1.00768
0.997668
0.986281
0.976436
0.967342
0.958672
0.948506
0.940338
0.932909
0.924878
0.915609
0.906252
0.894203
0.881514
0.870601
0.859969
0.853106
0.844274
0.834324
0.821051
0.808179
0.801645
0.789904
0.780473
0.772053
0.769715
0.759488
1.49536
1.48454
1.47658
1.46045
1.44267
1.44358
1.42705
1.41476
1.40687
1.39697
1.38711
1.38006
1.36281
1.35497
1.34551
1.33505
1.32022
1.32076
1.30862
1.29442
1.2809
1.26854
1.26471
1.2595
1.25463
1.24138
1.22768
1.21352
1.20214
1.19323
1.18451
1.17875
1.1687
1.15187
1.14186
1.13248
1.11642
1.10812
1.10101
1.08888
1.07801
1.0708
1.06043
1.05091
1.04905
1.03689
1.02721
1.01526
1.00791
0.998468
0.985224
0.976628
0.967863
0.95964
0.944313
0.938231
0.932687
0.926077
0.914757
0.90511
0.893547
0.878974
0.873574
0.86297
0.853707
0.844899
0.83462
0.826886
0.812991
0.798639
0.79028
0.776704
0.774292
0.766453
0.755985
1.49434
1.48196
1.47427
1.46091
1.44723
1.44594
1.4256
1.41553
1.40835
1.39724
1.38559
1.37692
1.365
1.35609
1.34702
1.32843
1.32336
1.32168
1.3051
1.29371
1.28109
1.27259
1.26787
1.25902
1.25113
1.24025
1.23056
1.21268
1.20391
1.1947
1.18258
1.17925
1.168
1.15521
1.14161
1.13154
1.11957
1.11026
1.09944
1.088
1.07877
1.06904
1.06328
1.056
1.05065
1.03965
1.02351
1.00963
1.00924
0.997433
0.98511
0.975453
0.969562
0.953201
0.942974
0.938785
0.9334
0.930458
0.913917
0.901571
0.895484
0.880098
0.871208
0.865221
0.856045
0.844259
0.836767
0.831527
0.81286
0.799954
0.789889
0.779539
0.77244
0.763364
0.753751
1.49315
1.47805
1.47635
1.4632
1.45144
1.44106
1.42686
1.41656
1.40795
1.39716
1.38702
1.37428
1.36815
1.35731
1.34567
1.33644
1.32407
1.31681
1.30322
1.29348
1.27953
1.27553
1.27387
1.25677
1.2491
1.23805
1.22739
1.21472
1.20605
1.19954
1.18603
1.17241
1.17052
1.15587
1.14185
1.13221
1.12071
1.11132
1.0988
1.08659
1.07963
1.06431
1.06563
1.05791
1.05073
1.03809
1.02471
1.01017
1.00802
0.995966
0.984586
0.972062
0.967991
0.953154
0.940234
0.941298
0.936923
0.929758
0.913815
0.903015
0.89234
0.880103
0.866101
0.868882
0.861239
0.850187
0.837084
0.824303
0.81956
0.79861
0.789877
0.780622
0.770359
0.761048
0.751778
1.49696
1.4755
1.47521
1.4639
1.45416
1.43713
1.42451
1.41524
1.40708
1.3955
1.39036
1.37669
1.3667
1.35841
1.34317
1.33732
1.32723
1.31615
1.30388
1.29609
1.28444
1.27788
1.26637
1.25765
1.25029
1.23656
1.2257
1.21286
1.20556
1.19874
1.19026
1.17727
1.16801
1.15581
1.14355
1.13247
1.12192
1.11084
1.09805
1.08576
1.07585
1.06741
1.06416
1.05937
1.0515
1.04313
1.02664
1.01072
1.00464
0.994492
0.984434
0.973449
0.964452
0.95148
0.948313
0.939222
0.930685
0.929049
0.914965
0.903647
0.889272
0.875639
0.871084
0.869248
0.866787
0.851536
0.837851
0.824625
0.815052
0.800007
0.790841
0.781893
0.768564
0.758876
0.748807
1.49382
1.48435
1.47017
1.46294
1.45101
1.4382
1.42543
1.41301
1.40862
1.39744
1.39044
1.3763
1.36379
1.35361
1.34479
1.34025
1.3286
1.31693
1.30432
1.29834
1.28625
1.27869
1.26757
1.25726
1.24651
1.24137
1.2261
1.20992
1.20426
1.1988
1.19866
1.17986
1.16465
1.15595
1.14673
1.12772
1.12846
1.10901
1.09699
1.08516
1.07285
1.06771
1.06256
1.06068
1.05208
1.0435
1.02815
1.01496
1.00554
0.993855
0.984011
0.974101
0.964532
0.955471
0.950931
0.935702
0.927808
0.926877
0.914228
0.901832
0.886945
0.881647
0.874001
0.868641
0.863347
0.851471
0.838435
0.825669
0.813692
0.801214
0.791075
0.780914
0.768436
0.757201
0.744516
1.49509
1.48654
1.46914
1.46576
1.4482
1.43812
1.42699
1.41433
1.40626
1.39676
1.38466
1.37892
1.36493
1.3496
1.34342
1.33726
1.3303
1.32505
1.30402
1.30028
1.28601
1.28112
1.26805
1.25692
1.24901
1.24067
1.22718
1.21466
1.20349
1.19503
1.1972
1.17831
1.16732
1.15686
1.14742
1.12788
1.12946
1.11153
1.0957
1.08738
1.07661
1.06846
1.05755
1.05572
1.05192
1.04852
1.02716
1.0151
1.00926
0.99206
0.98359
0.974194
0.964755
0.956133
0.948908
0.938216
0.930755
0.923652
0.911756
0.900812
0.88881
0.882167
0.872779
0.867638
0.861851
0.850932
0.838736
0.82606
0.8137
0.802004
0.791366
0.780786
0.768498
0.757325
0.746643
1.49502
1.48637
1.47518
1.46027
1.44949
1.43904
1.43026
1.41375
1.40579
1.39698
1.38394
1.37659
1.36702
1.35196
1.3419
1.3352
1.32939
1.32209
1.30913
1.30005
1.28854
1.28005
1.26873
1.25574
1.25189
1.23965
1.22721
1.21727
1.20064
1.19561
1.19117
1.18039
1.16941
1.15675
1.14554
1.13263
1.12422
1.11164
1.09961
1.09269
1.08207
1.06731
1.06005
1.05543
1.04968
1.04286
1.02982
1.00971
1.00918
0.994152
0.984416
0.974088
0.964113
0.95521
0.94936
0.937713
0.933759
0.924767
0.907885
0.899189
0.887666
0.882192
0.870079
0.867416
0.864008
0.85134
0.839435
0.825986
0.813271
0.802076
0.791779
0.781085
0.767406
0.757437
0.747199
1.49104
1.48948
1.47338
1.46231
1.44999
1.43858
1.42782
1.41654
1.4069
1.39731
1.38434
1.37567
1.36393
1.35591
1.34343
1.33402
1.32929
1.32256
1.31164
1.30077
1.29009
1.28027
1.27027
1.25886
1.25017
1.23798
1.22487
1.21196
1.20158
1.19729
1.18981
1.18258
1.17322
1.15526
1.14581
1.1348
1.12281
1.11105
1.09886
1.09518
1.08185
1.06956
1.06434
1.05656
1.04836
1.0425
1.02731
1.00954
1.00943
0.995292
0.985016
0.972735
0.962601
0.953009
0.944956
0.941928
0.940712
0.920487
0.908101
0.89735
0.886388
0.885664
0.875698
0.868445
0.860444
0.850524
0.841709
0.825014
0.812157
0.801161
0.793366
0.78058
0.767989
0.757535
0.747081
1.47686
1.49227
1.47864
1.46734
1.44824
1.43759
1.42649
1.41868
1.40862
1.39911
1.38317
1.37807
1.36798
1.35023
1.34278
1.33462
1.3296
1.32531
1.31195
1.3009
1.29021
1.28051
1.27174
1.26011
1.24941
1.23717
1.22319
1.2088
1.2059
1.18997
1.18855
1.18641
1.17249
1.15777
1.14771
1.13763
1.12192
1.11036
1.10034
1.09414
1.08099
1.0679
1.06648
1.05806
1.04623
1.03886
1.02731
1.01617
1.00833
0.996417
0.98677
0.969701
0.961504
0.950016
0.949383
0.944312
0.936968
0.921507
0.906813
0.894208
0.888332
0.886178
0.879854
0.870247
0.858226
0.846546
0.839253
0.827263
0.81622
0.798531
0.797701
0.778374
0.767351
0.757982
0.746584
1.49766
1.49199
1.47806
1.46579
1.45051
1.43773
1.42406
1.42086
1.41086
1.40331
1.38437
1.37488
1.36706
1.35774
1.34198
1.33431
1.32845
1.32176
1.31121
1.30006
1.28924
1.27982
1.27233
1.25904
1.2506
1.23811
1.22395
1.21031
1.20099
1.19439
1.18684
1.18633
1.17196
1.1584
1.14956
1.13996
1.12085
1.10988
1.09995
1.09152
1.08088
1.06955
1.06213
1.06007
1.04715
1.03799
1.02742
1.02032
1.00616
0.99597
0.983122
0.972449
0.965377
0.9509
0.948495
0.9479
0.938183
0.921578
0.904185
0.886334
0.888289
0.888584
0.885986
0.874532
0.856607
0.839884
0.840204
0.826234
0.814484
0.803107
0.793749
0.780474
0.76781
0.759626
0.747262
1.51439
1.49655
1.4792
1.46097
1.45017
1.43951
1.42732
1.41925
1.41113
1.40322
1.38784
1.37559
1.36758
1.3607
1.34468
1.33457
1.32787
1.32035
1.31066
1.29895
1.28828
1.27785
1.27453
1.25458
1.25491
1.23905
1.22489
1.21083
1.19462
1.19667
1.18876
1.1822
1.16805
1.16081
1.15189
1.13558
1.12264
1.11425
1.09753
1.09046
1.08169
1.07108
1.06204
1.05776
1.05007
1.03613
1.02577
1.01831
1.00868
0.999319
0.979593
0.976795
0.974228
0.957529
0.944953
0.94361
0.933485
0.922427
0.90241
0.889344
0.890536
0.892029
0.883611
0.872557
0.853655
0.844172
0.840264
0.823036
0.813022
0.802866
0.792694
0.781604
0.769421
0.760484
0.75003
1.50408
1.49226
1.47995
1.46101
1.44914
1.44318
1.43249
1.41591
1.41125
1.40203
1.39063
1.37596
1.36698
1.35986
1.34791
1.33668
1.32817
1.32124
1.31167
1.29738
1.2875
1.28065
1.26797
1.2554
1.24961
1.23806
1.22591
1.21481
1.19495
1.19656
1.18966
1.18076
1.16328
1.16274
1.14884
1.13553
1.12324
1.11358
1.09906
1.09026
1.08238
1.07118
1.06279
1.05629
1.04767
1.03756
1.02713
1.0182
1.00928
0.999863
0.987867
0.981483
0.977383
0.961057
0.94611
0.935997
0.929337
0.919273
0.90679
0.896959
0.892499
0.888765
0.882211
0.8653
0.854045
0.844292
0.836888
0.825106
0.81109
0.799647
0.792613
0.783984
0.770261
0.761779
0.751999
1.5017
1.49037
1.48085
1.46079
1.44351
1.44427
1.43619
1.41585
1.415
1.40269
1.39078
1.3779
1.36651
1.36276
1.34855
1.33721
1.32819
1.32301
1.31131
1.29837
1.28624
1.2784
1.26736
1.25647
1.24775
1.23744
1.22601
1.21424
1.19889
1.19408
1.18926
1.17501
1.16832
1.16104
1.15088
1.13317
1.12331
1.1129
1.10078
1.08962
1.08193
1.06964
1.0656
1.05594
1.04604
1.03625
1.02809
1.01747
1.01031
1.00329
0.992173
0.983853
0.974331
0.963108
0.945395
0.936705
0.928332
0.918642
0.908701
0.900052
0.893747
0.886941
0.878312
0.86491
0.85291
0.841856
0.832994
0.821773
0.807264
0.803131
0.793783
0.784785
0.771397
0.764743
0.753684
1.50103
1.48921
1.47641
1.46053
1.44495
1.44292
1.43857
1.42325
1.41422
1.40331
1.39191
1.38061
1.37037
1.36175
1.34696
1.33554
1.32515
1.32265
1.31077
1.29917
1.28825
1.27759
1.26655
1.25686
1.248
1.23758
1.22636
1.21288
1.198
1.19123
1.18502
1.1764
1.17308
1.15963
1.14868
1.1354
1.12388
1.11199
1.10264
1.08762
1.08342
1.07144
1.06535
1.05413
1.04499
1.0356
1.03122
1.01611
1.01098
1.0091
0.993469
0.987179
0.972147
0.959612
0.94826
0.938135
0.928658
0.918826
0.909062
0.900383
0.895595
0.887035
0.87871
0.863358
0.851173
0.837709
0.830939
0.823088
0.806549
0.801089
0.793223
0.784561
0.772572
0.769211
0.755376
1.5008
1.48994
1.47543
1.46178
1.4472
1.44514
1.436
1.42409
1.41376
1.40328
1.39261
1.38233
1.37315
1.35986
1.34985
1.33346
1.32557
1.31894
1.30918
1.2989
1.29035
1.27944
1.26435
1.25694
1.24905
1.23834
1.22732
1.21305
1.19487
1.18849
1.18198
1.18049
1.17224
1.16086
1.14887
1.13632
1.12458
1.10863
1.10498
1.09159
1.08277
1.07119
1.06781
1.0514
1.0451
1.04129
1.03066
1.01933
1.00938
1.00034
0.99625
0.986506
0.973839
0.961234
0.949712
0.938917
0.929391
0.919479
0.908725
0.898733
0.899503
0.883709
0.873419
0.860309
0.850453
0.839757
0.830376
0.820746
0.809367
0.800683
0.793077
0.785152
0.776154
0.769732
0.756492
1.49979
1.48898
1.48025
1.46542
1.44989
1.44347
1.43336
1.42341
1.41357
1.40355
1.39313
1.38307
1.37309
1.36036
1.34663
1.33582
1.3266
1.31763
1.30785
1.29756
1.28808
1.27899
1.26665
1.25709
1.25178
1.24089
1.22593
1.2174
1.20064
1.18734
1.17429
1.17702
1.17322
1.16096
1.14929
1.13643
1.1195
1.11477
1.10259
1.09842
1.08402
1.07519
1.06991
1.05474
1.04336
1.03882
1.02991
1.021
1.00816
0.999199
0.990945
0.987543
0.974777
0.962823
0.950385
0.938002
0.930576
0.920476
0.906972
0.899438
0.893054
0.882443
0.87177
0.86007
0.85011
0.839945
0.830051
0.819941
0.809459
0.799434
0.791981
0.786771
0.778184
0.770657
0.757482
1.49897
1.48775
1.47806
1.46958
1.45632
1.44394
1.43123
1.42322
1.41367
1.40327
1.39323
1.38342
1.37446
1.35614
1.34721
1.33647
1.32717
1.31743
1.30699
1.29616
1.28444
1.28026
1.26589
1.25594
1.25251
1.23838
1.22856
1.2176
1.20587
1.18709
1.17659
1.17718
1.16911
1.15867
1.14828
1.13693
1.12197
1.11499
1.1037
1.09827
1.08778
1.07721
1.06717
1.05563
1.04768
1.03845
1.02927
1.01958
1.00869
0.999691
0.992379
0.983442
0.974908
0.965233
0.952378
0.934743
0.934732
0.917638
0.907045
0.898619
0.889559
0.879557
0.871825
0.861027
0.850374
0.83998
0.829688
0.819397
0.808985
0.797388
0.789755
0.787515
0.778933
0.773695
0.762697
1.49845
1.48625
1.47492
1.47023
1.46159
1.44426
1.43183
1.42412
1.41438
1.40233
1.39305
1.38284
1.37089
1.35544
1.35096
1.33536
1.32799
1.31784
1.30672
1.29722
1.28542
1.27777
1.26325
1.26005
1.24894
1.23463
1.23118
1.21806
1.2056
1.19206
1.18165
1.17492
1.16591
1.15612
1.14446
1.13948
1.12564
1.11591
1.10281
1.09996
1.08904
1.07796
1.0668
1.05386
1.05124
1.0393
1.02783
1.01831
1.00905
0.998842
0.991586
0.983348
0.976449
0.958669
0.957596
0.938283
0.930635
0.918278
0.908222
0.898284
0.88713
0.875156
0.873975
0.861709
0.850441
0.839876
0.829419
0.818874
0.807272
0.793686
0.793345
0.780817
0.781156
0.777921
0.761489
1.49746
1.48632
1.47598
1.46598
1.46147
1.44699
1.43428
1.42485
1.415
1.40429
1.39377
1.38394
1.3651
1.35224
1.3502
1.33741
1.33106
1.31861
1.30666
1.29981
1.2865
1.27827
1.26476
1.25877
1.247
1.23479
1.22814
1.21599
1.20664
1.19456
1.1853
1.17683
1.16344
1.15442
1.1453
1.13782
1.12706
1.11646
1.1058
1.09893
1.08919
1.07881
1.06848
1.05714
1.04925
1.03916
1.02492
1.01678
1.01046
0.995942
0.989387
0.983839
0.976597
0.95866
0.955108
0.945869
0.930521
0.912735
0.910564
0.898228
0.886932
0.874789
0.876086
0.859158
0.849735
0.839638
0.829074
0.818172
0.803263
0.795141
0.789053
0.786727
0.785221
0.774179
0.760427
1.4981
1.48702
1.47682
1.46669
1.45844
1.44733
1.43569
1.422
1.41819
1.40725
1.39376
1.38118
1.36624
1.35195
1.34619
1.33505
1.33197
1.3186
1.3095
1.29998
1.28885
1.2794
1.2673
1.26018
1.24621
1.2313
1.22263
1.21162
1.20804
1.19411
1.18746
1.17754
1.16851
1.15339
1.14578
1.13714
1.12743
1.11729
1.10737
1.09825
1.08889
1.07949
1.07079
1.05841
1.04851
1.03655
1.02298
1.01347
1.00721
0.999049
0.987762
0.985131
0.974571
0.961392
0.95056
0.946434
0.933917
0.915015
0.908558
0.897353
0.889035
0.878793
0.872106
0.860329
0.849855
0.839771
0.829476
0.816478
0.800872
0.79772
0.793614
0.791979
0.781985
0.770268
0.759244
1.49893
1.48771
1.47753
1.46674
1.45557
1.44773
1.4382
1.42042
1.4151
1.40464
1.39275
1.38065
1.36812
1.35652
1.34694
1.33724
1.32935
1.31672
1.31294
1.30096
1.29028
1.28181
1.26539
1.25642
1.24623
1.23388
1.22014
1.21119
1.20526
1.19259
1.18982
1.17894
1.16797
1.1569
1.14733
1.13804
1.12846
1.11785
1.10813
1.0986
1.08855
1.07934
1.07087
1.06323
1.0498
1.03472
1.01742
1.00787
1.00577
1.00272
0.989253
0.982896
0.973449
0.963006
0.954092
0.937085
0.934885
0.918151
0.907589
0.895538
0.892173
0.881002
0.871509
0.860059
0.849766
0.840127
0.830748
0.816908
0.803658
0.802426
0.797279
0.790655
0.778721
0.765724
0.758381
1.5001
1.48847
1.47854
1.46821
1.4506
1.44762
1.43511
1.42166
1.41402
1.40381
1.39197
1.38071
1.36932
1.35874
1.34857
1.33855
1.3292
1.31916
1.31138
1.30059
1.2899
1.27929
1.26743
1.25472
1.24895
1.23203
1.22106
1.20911
1.20565
1.19223
1.18831
1.18164
1.16879
1.15791
1.14855
1.1392
1.13031
1.11795
1.10905
1.10077
1.0858
1.07834
1.06982
1.06165
1.05236
1.03266
1.01871
1.01055
1.00532
0.999814
0.989636
0.981341
0.973051
0.963335
0.954673
0.936236
0.934417
0.918972
0.906767
0.896975
0.890515
0.881528
0.872544
0.85969
0.848741
0.840176
0.832449
0.812356
0.80936
0.808151
0.795966
0.78624
0.776204
0.768101
0.759246
1.50118
1.4892
1.47944
1.4658
1.45325
1.44486
1.43112
1.42175
1.41423
1.40474
1.39077
1.38103
1.37077
1.36023
1.34999
1.33924
1.32965
1.31987
1.31032
1.29994
1.28915
1.27843
1.26531
1.25336
1.24751
1.23474
1.22368
1.20995
1.20236
1.18894
1.18886
1.18743
1.16703
1.15722
1.14998
1.14018
1.13043
1.11902
1.10878
1.09685
1.08807
1.07846
1.06805
1.06125
1.05133
1.03493
1.02135
1.01157
1.00533
0.997671
0.98833
0.981685
0.972452
0.962592
0.952581
0.942274
0.933833
0.918172
0.90442
0.896362
0.889271
0.881115
0.872361
0.862581
0.844572
0.839517
0.833085
0.819956
0.812328
0.805795
0.795234
0.783958
0.772581
0.769108
0.759344
1.50404
1.48882
1.48427
1.46257
1.45113
1.44268
1.42617
1.42295
1.41003
1.4035
1.39666
1.38273
1.37153
1.36103
1.35054
1.34008
1.32982
1.32021
1.31071
1.29953
1.28826
1.28009
1.26356
1.25687
1.24251
1.23368
1.22567
1.21156
1.20013
1.19125
1.1909
1.1818
1.16776
1.15524
1.15151
1.1404
1.13078
1.12057
1.11095
1.09196
1.09018
1.07914
1.06516
1.0629
1.05043
1.03801
1.0192
1.01046
1.00626
0.998862
0.986204
0.983752
0.972248
0.962007
0.952287
0.941115
0.929463
0.915973
0.907943
0.896925
0.889873
0.881184
0.871789
0.863018
0.842186
0.839422
0.839122
0.823743
0.813898
0.805168
0.796731
0.781118
0.772786
0.765494
0.756055
1.49945
1.48751
1.47897
1.46762
1.45493
1.44206
1.42945
1.42147
1.41202
1.40367
1.3936
1.38214
1.37159
1.36127
1.35103
1.34091
1.32947
1.3203
1.31252
1.29718
1.28587
1.27753
1.26625
1.25658
1.24432
1.23157
1.22956
1.21268
1.1992
1.19694
1.18951
1.17994
1.16799
1.1564
1.14757
1.14023
1.13136
1.12127
1.10979
1.09624
1.08912
1.08136
1.06486
1.05911
1.04854
1.03782
1.01642
1.0129
1.00869
1.00482
0.98596
0.980075
0.970684
0.960811
0.952306
0.940776
0.924224
0.913818
0.907075
0.899353
0.892593
0.881706
0.871575
0.861797
0.851086
0.836925
0.838508
0.824746
0.814636
0.806382
0.793081
0.783832
0.774257
0.763468
0.751034
1.49428
1.4849
1.47627
1.47325
1.45991
1.44165
1.43067
1.42155
1.41252
1.40409
1.39
1.38179
1.37189
1.36116
1.35092
1.34145
1.32812
1.31901
1.30955
1.29827
1.28703
1.27765
1.26749
1.25748
1.24792
1.23046
1.22954
1.21457
1.20112
1.19682
1.18937
1.18027
1.16817
1.15606
1.14251
1.14064
1.13161
1.1229
1.11076
1.09495
1.08778
1.07924
1.06839
1.05766
1.04635
1.03584
1.02324
1.01604
1.0112
0.99743
0.986997
0.978047
0.968973
0.959547
0.950099
0.937788
0.924851
0.911471
0.907166
0.90152
0.897739
0.882139
0.871386
0.860554
0.852315
0.840775
0.834112
0.821744
0.813673
0.805799
0.797352
0.786878
0.775825
0.763171
0.75252
1.48692
1.4846
1.47638
1.4737
1.46108
1.44666
1.43019
1.42156
1.4124
1.40334
1.38787
1.38329
1.37247
1.36046
1.35035
1.34033
1.3279
1.31769
1.30773
1.29759
1.28782
1.27848
1.26866
1.25802
1.24737
1.23611
1.22665
1.21529
1.20364
1.19604
1.18942
1.18327
1.16673
1.1539
1.14304
1.13819
1.13092
1.12224
1.10903
1.09758
1.08818
1.07887
1.06981
1.05742
1.0449
1.03586
1.02611
1.01763
1.00944
0.996984
0.985426
0.976699
0.967854
0.958491
0.949066
0.937162
0.925881
0.915091
0.90874
0.901565
0.8947
0.883116
0.871312
0.858584
0.854855
0.841104
0.832059
0.817095
0.812967
0.807267
0.802431
0.789197
0.778988
0.761581
0.752745
1.48793
1.4821
1.47566
1.4707
1.46195
1.44888
1.43432
1.42205
1.41215
1.40223
1.39059
1.38171
1.37232
1.35924
1.34967
1.3399
1.32729
1.31659
1.30618
1.29647
1.28952
1.27982
1.26939
1.25868
1.2485
1.23976
1.22356
1.21463
1.20337
1.19459
1.18892
1.18194
1.1701
1.15446
1.14105
1.13691
1.13087
1.12305