/*--------------------------------*- C++ -*----------------------------------*\
  =========                 |
  \\      /  F ield         | OpenFOAM: The Open Source CFD Toolbox
   \\    /   O peration     | Website:  https://openfoam.org
    \\  /    A nd           | Version:  12
     \\/     M anipulation  |
\*---------------------------------------------------------------------------*/
FoamFile
{
    format      ascii;
    class       surfaceScalarField;
    location    "0.5";
    object      phi.water;
}
// * * * * * * * * * * * * * * * * * * * * * * * * * * * * * * * * * * * * * //

dimensions      [0 3 -1 0 0 0 0];

internalField   nonuniform List<scalar> 
7375
(
-2.78064e-07
1.09316e-07
-3.64183e-08
-1.3082e-08
3.98759e-08
-7.59175e-08
-6.34893e-08
-1.12403e-07
4.59453e-08
-5.59748e-08
4.6475e-08
-1.46779e-09
5.56469e-08
-9.08063e-09
4.90495e-08
7.15142e-09
6.35653e-08
-1.4471e-08
2.05578e-07
1.89422e-08
9.17451e-08
-4.66504e-08
1.39337e-07
-4.8103e-08
1.37778e-07
1.59558e-09
9.74614e-08
4.03008e-08
9.02086e-08
8.31442e-09
9.49927e-08
-5.62545e-09
1.22956e-07
-2.86338e-08
1.29853e-07
-5.58699e-09
1.40162e-07
-1.02966e-08
9.92619e-08
-1.25461e-08
1.31254e-07
2.14337e-08
1.20193e-07
1.11004e-08
1.09377e-07
1.19109e-08
1.12298e-07
-3.01444e-09
1.47491e-07
-3.75184e-08
1.20301e-07
2.59868e-08
1.26553e-07
-6.25208e-09
1.32196e-07
-4.32893e-09
1.23156e-07
1.02182e-08
5.70966e-08
1.21709e-08
2.24766e-07
4.63443e-08
8.97901e-08
-2.56486e-08
1.08211e-07
-1.8431e-08
1.19883e-07
-1.2882e-08
1.32901e-07
-1.28875e-08
1.37232e-07
-4.41296e-09
1.49215e-07
-1.06915e-08
1.35834e-07
1.63115e-08
1.42571e-07
-9.61007e-09
1.49163e-07
-9.63595e-09
1.62307e-07
-1.15201e-08
1.73324e-07
-1.09725e-08
1.98199e-07
-2.68756e-08
2.1851e-07
-1.6103e-08
2.33056e-07
-7.45175e-09
1.78217e-07
-4.00112e-09
1.91977e-07
3.57475e-08
1.5607e-07
3.75602e-08
1.36193e-07
1.97704e-08
1.21413e-07
1.48137e-08
1.17732e-07
3.66905e-09
1.17779e-07
-3.93518e-11
1.19639e-07
-1.85117e-09
1.21974e-07
-2.27708e-09
1.20258e-07
2.94566e-09
1.12704e-07
7.61608e-09
1.22803e-07
-1.11059e-08
1.08459e-07
1.43339e-08
1.11348e-07
-2.94913e-09
1.03626e-07
8.77522e-09
2.25769e-07
4.049e-08
9.1482e-08
-2.85976e-08
8.87495e-08
2.71044e-09
8.27722e-08
5.93944e-09
5.16094e-08
3.17133e-08
1.95839e-07
1.83882e-08
3.66284e-08
-5.83097e-08
9.98436e-08
-1.11165e-08
1.07355e-07
-6.50261e-09
1.17088e-07
-7.35786e-09
1.36423e-07
-1.92746e-08
1.06431e-07
2.8576e-08
1.06046e-07
1.44038e-09
6.58063e-08
-1.42784e-08
-2.41248e-09
-1.11484e-07
6.4249e-08
-5.67066e-08
-4.71397e-08
-6.12021e-08
-6.89125e-08
-7.50265e-08
-9.93447e-08
-6.3638e-08
-6.74823e-08
-5.37134e-08
-1.00928e-08
-3.00783e-08
-3.28357e-08
-6.31411e-08
3.99098e-08
3.26231e-08
4.95618e-08
8.06606e-08
-3.05419e-08
5.20834e-08
-1.77267e-08
1.33205e-07
3.39176e-08
1.00365e-07
3.27417e-08
7.9185e-09
-2.80386e-08
-3.02352e-08
-8.29887e-09
2.17078e-08
-3.46724e-09
4.72638e-08
-5.55174e-08
5.32885e-08
-1.11351e-08
4.95487e-08
-6.51907e-09
4.02756e-08
-3.68028e-09
5.14139e-08
1.07016e-08
6.8039e-08
-5.00083e-09
2.63816e-08
5.35678e-08
1.43639e-08
9.57075e-09
7.0195e-08
7.34518e-08
-4.01501e-08
-2.67641e-08
-1.69668e-08
-2.93262e-08
2.51267e-08
-4.66765e-08
5.75243e-09
2.96052e-08
3.59817e-10
1.74971e-08
4.3341e-08
2.91724e-09
1.86941e-08
-1.01205e-09
2.81944e-08
-2.77404e-08
3.01338e-08
-1.51289e-08
2.53711e-08
-8.51108e-09
2.63316e-08
-4.58533e-09
9.70189e-09
6.03845e-09
1.99728e-08
5.61901e-09
3.62555e-09
6.87241e-09
1.77539e-08
-2.40466e-08
4.01965e-08
-3.46639e-08
6.71908e-08
-3.75607e-08
9.18497e-08
-5.1123e-08
1.2815e-07
-5.20371e-08
1.58785e-07
-3.67653e-08
1.50498e-07
4.36854e-09
1.50477e-07
3.34035e-08
1.21361e-07
6.54506e-08
9.68846e-08
9.85801e-08
7.06682e-08
4.12976e-08
6.88437e-08
5.49371e-09
6.51026e-08
4.40399e-09
6.98652e-08
-7.25249e-09
6.22255e-08
6.05204e-09
6.461e-08
5.367e-10
8.50943e-08
-1.44571e-08
1.07437e-07
-3.25895e-08
1.10561e-07
-3.98087e-08
1.1525e-07
-7.7176e-09
1.19009e-07
3.8399e-09
1.39912e-07
1.77466e-08
1.30821e-07
-2.10405e-08
9.71447e-08
3.7708e-08
7.42772e-08
3.01051e-08
4.4239e-08
8.10256e-09
8.01756e-08
3.67311e-08
-3.65771e-09
2.55236e-08
-1.08136e-08
-4.03681e-09
9.3971e-10
-1.83319e-08
-1.24848e-08
6.12826e-09
1.3112e-07
-1.86262e-09
3.50305e-09
-5.90054e-08
4.20478e-08
-3.58798e-08
-1.38141e-08
-1.30339e-08
2.38585e-08
-1.22907e-07
2.27964e-08
-1.51756e-07
-1.04534e-07
-8.84326e-08
-7.23943e-08
-9.68175e-08
-3.79121e-08
-1.58201e-09
5.99674e-10
-1.15305e-07
-5.68409e-08
9.97272e-09
2.96569e-09
-1.16616e-07
-4.66036e-08
-1.52843e-07
-2.35127e-08
-5.00252e-08
2.91296e-08
-6.45707e-08
-2.3576e-09
-3.17806e-08
1.76392e-09
-1.32296e-07
-2.63309e-08
-1.34009e-07
-2.76758e-08
-1.33767e-07
-8.3726e-09
-1.31585e-07
-6.99188e-09
-3.82566e-08
1.33248e-08
-1.48459e-07
-6.22385e-08
-1.60649e-07
5.67051e-09
-1.64241e-07
-1.2817e-10
-1.61355e-07
7.9247e-09
-6.52808e-08
6.04883e-08
-1.79869e-07
5.37328e-09
-4.58728e-08
3.73228e-08
-1.36412e-07
-4.14232e-10
-1.51307e-07
-1.04774e-08
-1.68886e-07
-1.17476e-08
-5.59731e-08
1.45231e-09
-1.55396e-07
-2.96952e-08
-1.37211e-07
-2.47664e-09
-1.26156e-07
-9.42542e-09
-1.59348e-07
-2.20328e-08
-1.1607e-07
-1.57433e-08
-1.06571e-07
-2.46281e-08
-9.62012e-08
-1.87758e-08
-7.92553e-08
-2.07695e-08
-5.94161e-08
-1.33224e-08
-4.69837e-08
-7.41333e-09
-2.6965e-08
-1.36254e-08
-2.8517e-08
-2.24784e-08
-8.12399e-09
-5.54104e-08
5.7558e-09
-5.18235e-08
1.9983e-08
-6.55538e-08
3.70641e-08
-6.80564e-08
4.27287e-08
-4.20477e-08
7.06869e-08
-2.35896e-08
4.22488e-08
6.18417e-08
4.21825e-08
6.50897e-08
3.14814e-09
8.58469e-08
-2.1094e-09
4.6085e-08
8.22531e-09
-4.83422e-09
-1.73871e-08
2.98888e-08
-2.25816e-09
-2.2866e-08
-3.26705e-08
3.65034e-08
-1.00696e-07
1.53978e-08
-4.99374e-08
-1.17139e-08
-8.18434e-08
-1.81055e-10
-5.58175e-08
-1.31582e-08
-5.23382e-08
-1.16927e-08
-5.52351e-08
7.27063e-09
-6.8456e-08
3.02691e-08
2.94555e-08
4.34372e-08
-8.71019e-08
-7.48621e-09
-1.1967e-07
8.47081e-09
-8.83395e-08
3.16423e-08
-7.38254e-08
2.19926e-08
-6.74803e-08
1.89182e-08
-7.64262e-08
4.90913e-09
-6.63815e-08
-2.93534e-08
-7.38813e-08
-4.05109e-08
-5.89959e-08
-1.65962e-08
-1.00476e-07
-1.6489e-08
-8.5593e-08
3.3596e-09
-1.17645e-07
1.86009e-08
-6.30611e-08
-1.44204e-07
1.2892e-09
-1.4369e-07
-7.33852e-08
-1.04619e-07
-1.07093e-07
-1.00773e-07
-4.13407e-08
-6.77313e-08
-3.34771e-08
-8.03917e-08
-4.52222e-08
-4.35527e-08
-3.42534e-08
-6.61579e-08
-2.37565e-08
-8.00296e-08
-1.05897e-08
-7.45116e-08
2.22426e-08
-9.92009e-08
2.28875e-08
-1.06377e-07
8.77654e-09
-1.7748e-07
-9.60319e-09
-1.71252e-07
2.13377e-08
-1.72318e-07
-7.30727e-09
-1.78511e-07
-2.62048e-09
-1.95245e-07
2.7909e-08
-1.33331e-07
4.00523e-08
-2.63675e-07
-2.59974e-08
-2.23148e-07
-4.0656e-08
-2.03919e-07
-1.11085e-08
-2.17016e-07
1.93823e-08
-2.12385e-07
5.12251e-09
-1.36588e-07
1.42563e-08
-1.45607e-07
7.21531e-09
-1.5058e-07
-5.50464e-09
-1.47531e-07
-1.47972e-08
-1.17577e-07
-2.73029e-08
-1.54415e-07
5.23103e-09
-1.57862e-07
-6.2201e-10
-1.56702e-07
-8.97429e-09
-1.49987e-07
-2.85234e-08
-1.38756e-07
-2.69745e-08
-1.23817e-07
-3.83043e-08
-1.03651e-07
-3.89412e-08
-9.26769e-08
-3.2801e-08
-7.97934e-08
-2.63417e-08
-7.49367e-08
-1.23455e-08
-8.69768e-08
-2.49798e-09
-1.22326e-07
-4.17619e-08
-6.78999e-08
-5.49389e-08
-6.3054e-08
-5.66692e-08
-7.29368e-08
-5.43721e-08
-7.21038e-08
-6.95766e-08
-9.99267e-08
-1.57109e-08
-7.38723e-09
4.64771e-08
-1.32042e-07
2.63409e-08
-8.41383e-08
1.65031e-08
-1.47426e-07
9.46094e-08
-1.25839e-07
7.86172e-08
-2.43855e-08
5.47092e-08
-1.21852e-07
-3.41816e-08
-4.69566e-08
6.4361e-08
-1.74219e-07
1.62649e-09
-2.01351e-07
-1.16723e-08
-1.55953e-07
-1.40816e-09
-1.88154e-07
-1.97097e-08
-1.22177e-07
-2.6161e-08
-8.90688e-08
-4.59281e-08
-1.01525e-07
1.99302e-08
-9.70061e-08
2.57501e-08
-7.78508e-08
2.40844e-08
-1.04122e-07
1.87846e-08
-1.08854e-07
1.31162e-08
-9.64036e-08
2.01759e-08
-9.34127e-08
1.88118e-08
-8.51614e-08
9.71401e-09
-8.89626e-08
7.80275e-09
-1.32714e-07
1.43983e-08
-1.33113e-07
1.53038e-08
-1.34055e-07
-1.56539e-08
-1.41098e-07
-9.2777e-09
-1.32566e-07
-6.55671e-09
-2.30732e-07
8.3629e-09
6.00227e-08
-1.47816e-07
-1.25374e-08
-1.19608e-07
-7.29821e-08
-1.27802e-07
-9.36164e-08
-1.07698e-07
-6.05717e-08
-9.83817e-08
-4.48962e-08
-1.4629e-07
-5.30245e-08
-8.48286e-08
-3.91309e-08
-6.08449e-08
-4.62696e-08
-4.19512e-08
-3.04055e-08
5.06206e-09
-2.54777e-08
2.94368e-08
-2.01622e-09
2.68502e-08
1.13887e-08
-4.13687e-09
2.17933e-08
-1.41943e-08
3.13528e-08
-6.11943e-08
3.95474e-08
-8.0816e-08
1.70006e-08
-1.15367e-07
6.33519e-08
-1.08813e-07
3.41921e-08
-1.47595e-07
1.16854e-08
-5.48273e-08
2.64317e-08
-5.9742e-08
-6.19426e-09
-1.85344e-07
-6.98106e-08
-1.65339e-07
-1.48827e-08
-1.03902e-07
6.61369e-09
-1.03527e-07
6.83988e-09
-1.08376e-07
-6.55729e-10
-1.25948e-07
2.77375e-09
-2.45336e-08
3.24803e-08
-1.40743e-07
-3.78287e-08
-1.30436e-07
-1.23588e-08
-1.25762e-07
-1.3789e-08
-1.12237e-07
-4.20484e-08
-1.04005e-07
-3.52063e-08
-9.51683e-08
-4.71411e-08
-8.54479e-08
-4.90588e-08
-9.32013e-08
-2.50476e-08
-1.08407e-07
-1.12512e-08
-9.66372e-08
-2.4847e-08
-1.25259e-07
-2.90691e-08
-1.41682e-07
-2.33764e-08
-9.93317e-08
-4.21949e-08
-1.0579e-07
-4.91312e-08
-1.08158e-07
-5.20045e-08
-1.39363e-07
-4.20347e-08
-1.54947e-07
-1.27993e-10
-1.49151e-07
4.17878e-08
-1.78732e-07
5.40985e-08
-7.6636e-08
7.79732e-08
-1.71533e-07
2.8271e-08
-1.69611e-07
2.30457e-08
-1.01533e-07
4.08992e-08
-9.12077e-09
3.34028e-08
-1.00073e-07
-5.36278e-09
-1.09101e-07
9.63338e-09
-1.23152e-07
2.49849e-09
-1.14994e-07
-9.47029e-09
-1.20842e-07
-1.38613e-08
-1.53177e-07
5.96731e-09
-5.3233e-08
1.45325e-08
-1.8081e-07
-1.50989e-08
-1.71719e-07
1.6752e-08
-1.75806e-07
2.81707e-08
-1.66682e-07
1.14542e-08
-1.63428e-07
9.86298e-09
-1.42658e-07
8.60625e-10
-1.2708e-07
3.42415e-09
-1.22598e-07
3.93526e-09
-1.01255e-07
-1.36791e-08
-1.43985e-07
5.69811e-08
-1.40774e-07
1.20927e-08
-1.40437e-07
-1.59908e-08
-1.60022e-07
8.67507e-09
-1.73732e-07
7.15454e-09
-1.83316e-07
1.9836e-08
1.75016e-08
-1.86312e-07
2.59518e-08
-1.27195e-07
-9.51578e-08
-1.37256e-07
-7.94768e-08
-1.26814e-07
-7.02314e-08
-1.08689e-07
-6.23858e-08
-1.17579e-07
-4.35939e-08
-1.2255e-07
-3.37608e-08
-1.1581e-07
-5.46638e-08
-1.56538e-07
-4.41932e-08
-1.07348e-07
-1.94221e-08
-6.84852e-08
-4.1322e-08
-9.19188e-08
3.52981e-08
-1.00063e-07
3.04699e-08
-8.83252e-08
1.99345e-08
-1.39561e-07
8.98658e-08
-4.30262e-08
8.22517e-08
-1.56154e-07
1.55316e-08
-1.41301e-07
1.96881e-08
-1.41918e-07
1.24204e-08
-1.12773e-07
-2.71332e-09
-9.98119e-08
-1.89627e-08
-1.21454e-07
-4.81693e-08
-1.11094e-07
-2.52425e-08
-1.02715e-07
-1.76585e-09
-9.13208e-08
-4.55491e-09
-8.65651e-08
-5.41179e-09
-8.26407e-08
-1.15088e-09
-5.86748e-08
8.42819e-09
-8.68113e-08
-1.00783e-08
-9.20029e-08
-8.10595e-09
-1.39464e-07
-2.053e-08
-1.09097e-07
-1.75224e-08
-1.02979e-07
-4.1324e-08
-9.63285e-08
-5.3792e-08
-7.39006e-08
-7.22234e-08
-9.64839e-08
-3.4136e-09
-1.37055e-07
-2.32298e-08
-8.06485e-08
-2.59477e-08
-1.0074e-07
-8.48135e-09
-1.10186e-07
-1.47115e-08
-1.25701e-07
-2.78035e-08
-1.44975e-07
-2.98575e-08
-1.721e-07
-2.71647e-08
-2.01497e-07
-1.4715e-08
-2.14262e-07
1.48685e-08
-1.9754e-07
2.7252e-08
-1.88468e-07
4.5027e-08
-1.68526e-07
5.72353e-08
-1.6232e-07
2.40095e-08
-1.84126e-07
4.50748e-08
-1.6506e-07
1.84986e-08
-1.57592e-07
2.43106e-08
-1.81118e-07
1.97322e-08
-1.67902e-07
-1.73474e-09
-1.83209e-07
1.96747e-08
-1.50763e-07
-4.19168e-08
-1.50638e-07
-1.70606e-08
-1.91856e-07
-7.0173e-09
-1.44251e-07
2.23066e-08
-1.37111e-07
-2.23129e-08
-1.59555e-07
3.91963e-08
-1.68531e-07
3.68595e-08
-1.60784e-07
3.70658e-09
-1.66012e-07
1.50915e-08
-1.54897e-07
-1.02543e-08
-1.61653e-07
1.02143e-08
-1.74319e-07
1.48228e-08
-7.005e-08
4.42029e-08
-1.96316e-07
-3.06348e-08
-1.86529e-07
2.30541e-09
-1.78695e-07
2.98244e-08
-1.84633e-07
1.46143e-08
-1.90391e-07
1.08975e-08
-1.90155e-07
1.96005e-08
4.44892e-10
-2.14995e-07
7.15673e-08
-1.39982e-07
-1.34028e-07
-1.36778e-07
-7.68833e-08
-1.72241e-07
-8.52656e-08
-1.5163e-07
-2.98899e-08
-1.68557e-07
-2.82137e-08
-2.0755e-07
-4.7929e-08
-1.84136e-07
-2.44287e-08
-1.92434e-07
-3.54452e-08
-1.82069e-07
-3.16448e-08
-7.32456e-08
1.18272e-08
-1.88617e-07
-1.29921e-08
-1.77733e-07
2.15295e-08
-6.11336e-08
6.74059e-08
-1.60834e-07
2.86192e-08
-1.07281e-07
2.70411e-08
-1.19491e-07
2.85441e-08
-1.11206e-07
1.14026e-08
-1.22866e-07
2.408e-08
-1.19224e-07
-5.1395e-09
-9.28136e-08
-4.53739e-08
-8.86812e-08
-5.3798e-08
-8.63926e-08
-2.75315e-08
-7.91258e-08
-9.0331e-09
-9.53778e-08
1.15787e-08
-6.34606e-08
-3.77142e-08
-7.59904e-08
1.2154e-08
-6.11985e-08
-6.364e-09
-1.06789e-07
-1.8955e-08
-6.70127e-08
5.70883e-09
-7.42938e-08
-1.36582e-08
-1.25568e-07
-2.06629e-08
-7.57467e-08
-3.62156e-08
-9.26744e-08
-3.78096e-08
1.04641e-08
-1.27324e-08
-9.20908e-08
-5.93561e-08
-9.26667e-08
-2.33492e-08
-8.35236e-08
-3.66749e-08
-1.00063e-07
7.97137e-09
-1.07584e-07
-7.33974e-09
-1.04403e-07
-3.13038e-08
-1.16366e-07
-1.78945e-08
-1.28082e-07
-1.54485e-08
-1.53e-07
8.70348e-09
-2.15971e-07
2.34848e-08
-1.8814e-07
5.5273e-08
-1.74265e-07
3.11517e-08
-1.61409e-07
4.43797e-08
-1.58576e-07
1.95587e-08
-1.83195e-07
1.7845e-08
-1.40293e-07
3.05542e-08
-1.38448e-07
2.07864e-08
-1.3681e-07
1.78922e-08
-1.31289e-07
-7.2554e-09
-1.48821e-07
-1.6442e-08
-1.32666e-07
-4.85103e-09
-1.13075e-07
-3.70289e-08
-1.55469e-07
3.70337e-08
-1.5732e-07
2.27998e-08
-5.56438e-08
3.69953e-08
-1.7375e-07
-3.07757e-09
-1.68782e-07
3.18919e-08
-1.60147e-07
-4.92877e-09
-1.71764e-07
-2.69399e-08
-1.41012e-07
1.26428e-08
-1.36988e-07
6.18982e-09
-1.30551e-07
9.71758e-09
-1.14817e-07
2.77431e-08
-1.49988e-07
3.3647e-09
-1.55311e-07
7.62815e-09
-1.38962e-07
1.34757e-08
-1.36554e-07
1.22072e-08
-1.4939e-07
2.37343e-08
-1.3843e-07
8.3555e-09
-1.36429e-09
-2.13693e-07
-2.08998e-07
-1.26066e-07
-1.81936e-07
-1.26848e-07
-7.21541e-08
-1.70639e-07
-4.01813e-08
-1.98447e-07
-2.36264e-09
-2.1638e-07
-8.07383e-09
-2.35559e-07
-2.84636e-08
-2.29055e-07
-3.36796e-08
-2.20108e-07
-4.48499e-08
-2.08953e-07
-4.49322e-08
-1.39475e-07
-5.63356e-08
-1.65599e-07
1.48203e-08
-1.5285e-07
5.31236e-09
-9.73372e-08
1.18921e-08
-1.17547e-07
5.01135e-08
-1.16064e-07
2.64655e-08
-1.01686e-07
1.40242e-08
-9.95534e-08
8.23208e-09
-1.22988e-07
-6.07334e-09
-1.33699e-07
5.51488e-09
-1.38675e-07
1.12581e-08
-6.53368e-08
3.5108e-08
-8.13499e-08
-1.08523e-08
-6.47766e-08
-2.46941e-08
-1.62055e-07
-5.15806e-08
-2.87989e-08
-9.9326e-09
-1.29257e-07
-4.80418e-08
-8.99228e-08
-4.66806e-08
-8.1926e-08
-2.58413e-08
-5.61702e-08
-1.86525e-08
-5.35191e-08
-1.75948e-08
-1.11345e-07
-1.73777e-08
-7.52325e-08
-1.7724e-08
-8.73992e-08
-2.47512e-08
-8.12063e-08
-1.87967e-08
-1.35032e-07
-6.96387e-09
-1.54401e-07
-5.79372e-09
-1.0235e-07
1.94771e-08
-1.72404e-07
-2.82279e-08
-1.80283e-07
-1.30059e-09
-1.14618e-07
6.5638e-08
-1.2779e-07
-3.58993e-09
-1.29083e-07
-1.28381e-08
-1.10775e-07
-9.50889e-09
-1.62331e-07
2.00219e-08
-1.36822e-07
2.97643e-08
-1.34816e-07
8.27949e-08
-1.342e-07
4.37638e-08
-1.19218e-07
4.57737e-09
-1.50019e-07
4.84635e-08
-1.47234e-07
2.80814e-08
-1.35044e-07
8.59642e-09
-1.55734e-07
-1.50675e-08
-1.31575e-07
2.22349e-08
-1.39613e-07
-8.40426e-09
-1.53234e-07
7.20722e-09
-6.23556e-08
3.46987e-08
-2.11405e-07
-3.03437e-08
-1.89231e-07
8.60912e-10
-1.47352e-07
5.03185e-08
-1.65806e-07
1.52209e-08
-1.69947e-07
-1.7616e-08
-1.78378e-07
3.53829e-09
-1.5992e-07
8.25165e-09
-1.46512e-07
-7.66071e-10
-1.28415e-07
-1.19071e-08
-1.33462e-07
1.61262e-08
-1.11071e-07
5.6331e-09
-1.292e-07
2.03599e-08
-1.27677e-07
6.10522e-09
-1.2662e-07
1.2419e-08
-1.16383e-07
1.95144e-09
-1.58656e-07
1.39777e-08
-1.1165e-07
1.44564e-08
3.85799e-09
-1.13757e-07
8.85367e-08
-7.22881e-08
-2.40706e-08
-9.46178e-08
-4.58282e-08
-1.34645e-07
2.18463e-09
-2.21772e-07
-7.45578e-08
-2.11183e-07
-1.87715e-08
-2.07231e-07
-3.47963e-08
-2.21765e-07
-2.33268e-08
-2.3575e-07
-2.85798e-08
-2.39812e-07
-3.88619e-08
-1.3005e-07
-5.8435e-09
-2.45634e-07
-8.62517e-08
-2.06737e-07
2.23417e-08
-7.95481e-08
4.55287e-08
-1.79396e-07
-1.08757e-08
-1.67538e-07
1.63162e-08
-1.40006e-07
-1.35032e-08
-1.28148e-07
-3.74677e-09
-1.20698e-07
-1.23049e-08
-1.00977e-07
-1.44061e-08
-7.16873e-08
-1.83277e-08
-3.09193e-08
-6.73904e-09
-2.02902e-08
-2.15903e-08
-1.35532e-08
-3.12946e-08
-2.65543e-08
-3.89694e-08
-7.00765e-09
-2.96475e-08
2.06765e-08
-7.57977e-08
2.62298e-09
-2.86541e-08
-1.14604e-08
-1.14971e-08
-2.70531e-08
-3.68072e-09
-7.728e-08
3.24506e-08
-1.10029e-07
1.52147e-08
-1.62583e-07
-1.91751e-08
-1.32227e-07
1.98845e-10
-1.38109e-07
-1.31063e-08
-1.41947e-07
-3.12612e-09
-1.3261e-07
-1.37772e-08
-1.12948e-07
-3.85475e-10
-1.29734e-07
-1.27238e-08
-1.20237e-07
-1.09091e-08
-1.87228e-07
-3.08977e-08
-1.81022e-07
-9.79557e-09
-2.13949e-07
-2.95301e-08
-1.86788e-07
1.63414e-08
-1.92873e-07
2.44503e-08
-1.49705e-07
-1.3404e-08
-1.36072e-07
6.91626e-08
-1.51325e-07
5.90171e-08
-5.51499e-08
6.93491e-08
-1.70506e-07
2.8729e-09
-1.48705e-07
6.27987e-09
-1.41326e-07
1.21769e-09
-1.47504e-07
-8.88969e-09
-1.22243e-07
-2.99565e-09
-1.29521e-07
-1.12593e-09
-1.23197e-07
8.83221e-10
-1.0044e-07
1.0563e-08
-1.93231e-07
8.24505e-09
-1.64073e-07
2.73149e-08
-1.33058e-07
2.06611e-08
-1.2687e-07
9.03223e-09
-1.47906e-07
6.17382e-10
-1.94497e-07
-4.07321e-09
-1.41395e-07
1.07831e-08
-1.39963e-07
-2.19793e-09
-1.17056e-07
-3.51732e-08
-1.29881e-07
2.89511e-08
-1.33666e-07
9.47591e-09
-1.33338e-07
2.00321e-08
-1.41414e-07
1.41813e-08
-1.37386e-07
-4.38561e-08
-9.58773e-08
1.35503e-08
-1.24373e-07
4.10772e-08
-1.22473e-07
1.27038e-08
1.49244e-08
-8.91455e-08
2.57065e-09
-1.14346e-07
2.00618e-08
-1.81067e-08
2.57244e-08
-1.80947e-07
-4.93876e-08
-1.72271e-07
-3.03454e-08
-1.58944e-07
-3.17747e-08
-1.26964e-07
-6.65146e-08
-1.45018e-07
-5.03828e-09
-1.4574e-07
-3.05328e-08
-1.61942e-07
-2.07769e-08
-1.33096e-07
-3.3055e-08
-1.88025e-07
-2.98824e-08
-1.47558e-07
-1.81255e-08
-1.11686e-07
9.19554e-09
-1.24155e-07
1.59327e-09
-1.24337e-07
1.38218e-08
-1.30863e-07
-7.04434e-09
-1.28025e-07
-5.24999e-09
-1.27253e-07
-1.32037e-08
-1.25117e-07
-1.6689e-08
-1.14353e-07
-2.95808e-08
-7.92721e-08
-4.23213e-08
-1.06549e-07
5.68584e-09
-1.17282e-07
-2.08807e-08
-1.35041e-07
-2.16081e-08
-1.9171e-07
-2.69309e-08
-7.4938e-08
2.20266e-08
-9.40923e-08
-9.49997e-09
-1.04008e-07
-2.78816e-09
-8.86443e-08
-1.90448e-08
-1.82071e-07
-3.44971e-08
-1.4829e-07
-1.68814e-08
-1.36767e-07
-2.91225e-08
-1.16764e-07
-2.14013e-08
-1.27532e-07
-3.56665e-09
-1.06007e-07
-2.4651e-08
-1.17941e-07
-3.07738e-09
-1.41505e-07
2.14946e-08
-1.65066e-07
1.05939e-08
-1.79499e-07
5.22576e-09
-1.94626e-07
-1.39391e-08
-1.94501e-07
-9.8211e-09
-2.42967e-07
1.89368e-08
-2.10374e-07
-1.80476e-08
-2.59599e-07
1.94742e-08
-1.10467e-07
5.47084e-08
-1.87632e-07
-1.4619e-08
-1.43288e-07
1.46725e-08
-1.10161e-07
3.62222e-08
-1.15214e-07
7.9265e-09
-1.16589e-07
7.65476e-09
-1.14754e-07
-6.16952e-10
-1.13129e-07
-9.3611e-09
-7.60211e-08
-4.05125e-08
-1.09177e-07
3.12544e-08
-9.6349e-08
-1.19447e-08
-7.30494e-08
-1.27367e-08
-1.07069e-07
4.17549e-08
-1.10467e-07
3.07127e-08
-1.11753e-07
2.1947e-08
-1.12592e-07
9.96351e-09
-1.14852e-07
2.87667e-09
-1.02902e-07
-1.61457e-08
-1.33817e-07
4.16979e-08
-1.51396e-07
1.3837e-08
-5.3975e-08
3.00115e-08
-1.54404e-07
-3.1016e-08
-1.3584e-07
-9.08805e-09
-1.38085e-07
2.2277e-08
-1.76866e-07
-6.86748e-10
-8.11606e-08
7.50349e-08
-5.96084e-08
-7.18166e-09
-1.44239e-07
-3.36133e-08
-1.27247e-07
-5.75968e-09
1.5569e-08
-1.29208e-07
-5.19128e-08
-9.14792e-08
1.06785e-08
-2.36238e-08
-3.90593e-08
-9.73453e-08
2.43336e-08
-1.22374e-07
-4.06888e-09
-1.12014e-07
-4.28338e-08
-1.51106e-08
-1.96674e-09
-1.18548e-07
-6.24457e-08
-1.15017e-07
-3.32296e-08
-1.14954e-07
-2.0631e-08
-1.23686e-07
-2.58334e-08
-1.32785e-07
-2.07836e-08
-1.24286e-07
-2.55424e-08
-1.01969e-07
-1.31222e-08
-9.25846e-08
-7.87066e-09
-8.32871e-08
5.36482e-09
-8.31417e-08
-7.96017e-09
-8.49033e-08
-4.38185e-09
-9.21811e-08
-5.92637e-09
-1.09417e-07
-5.69802e-10
-1.57303e-07
1.68567e-08
-5.20615e-08
1.66646e-08
-1.78935e-07
-2.78576e-08
-1.57863e-07
-4.19524e-08
-1.60895e-07
-1.85763e-08
-1.73421e-07
-1.44058e-08
-1.53938e-07
2.57023e-09
-1.44214e-07
-2.06958e-08
-1.77964e-07
-2.32409e-08
-1.48918e-07
7.56879e-09
-1.62561e-07
-1.91957e-08
-1.54872e-07
-2.45711e-08
-1.53039e-07
-3.47485e-08
-1.68088e-07
-8.3056e-09
-1.98025e-07
-2.60983e-08
-1.66142e-07
-2.55982e-09
-1.73434e-07
6.00234e-09
-1.51995e-07
1.59015e-09
-1.66261e-07
2.32013e-08
-1.54741e-07
-6.28351e-09
-1.63994e-07
-4.68606e-09
-1.61733e-07
-1.20815e-08
-1.49207e-07
-4.61876e-08
-1.80727e-07
6.65802e-08
-1.86974e-07
2.36781e-08
-1.45808e-07
1.35429e-08
-1.20199e-07
-4.02278e-08
-1.13417e-07
7.8903e-09
-1.35962e-07
5.87676e-08
-1.37144e-07
9.10841e-09
-1.39193e-07
9.70351e-09
-1.40895e-07
1.08525e-09
-1.52134e-07
3.26146e-10
-4.73561e-08
1.68978e-08
-1.97478e-07
-3.27368e-08
-1.66589e-07
1.08153e-08
-4.7818e-08
2.99274e-08
-1.47404e-07
-1.79814e-08
-1.25325e-07
7.13074e-09
-1.26314e-07
2.29354e-08
-1.28872e-07
1.25215e-08
-1.51046e-07
2.35095e-08
-5.0545e-08
4.59597e-08
-2.0035e-07
-2.25772e-08
-1.39372e-07
6.50739e-09
-1.16479e-07
6.88332e-09
-1.22566e-07
-2.49296e-08
-1.15285e-07
-1.63683e-08
-1.32958e-07
3.95467e-08
-1.53392e-07
1.97471e-08
-1.34641e-07
4.00811e-09
-9.61351e-08
7.34651e-09
-1.17956e-07
-1.31148e-08
-1.28468e-07
4.80071e-09
4.45225e-08
-9.20826e-08
2.3214e-07
-1.02495e-07
4.12136e-08
1.18537e-08
1.2496e-08
-1.19195e-07
-5.93351e-08
-1.05228e-07
-1.69634e-08
-7.72385e-08
-1.81485e-08
-6.57482e-08
-1.42254e-08
-8.57739e-08
-4.32955e-08
-1.19581e-07
5.7066e-10
-1.25835e-07
-1.33675e-08
-1.2709e-07
-2.45793e-08
-1.23068e-07
-2.48056e-08
-1.26407e-07
-2.22038e-08
-1.19993e-07
-1.96711e-08
-1.14202e-07
-1.38031e-08
-1.11745e-07
2.96291e-09
-1.40649e-07
1.96275e-08
-1.56397e-07
1.13651e-08
-1.44823e-07
-1.59055e-08
-1.50553e-07
3.62391e-09
-1.50547e-07
1.66763e-08
-1.22208e-07
-1.0309e-08
-1.33175e-07
-1.68907e-08
-1.45456e-07
-2.99774e-08
-1.42429e-07
-2.16032e-08
-1.44525e-07
-1.37849e-08
-1.74445e-07
-2.17122e-08
-1.53632e-07
1.39201e-08
-1.88255e-07
1.17386e-08
-1.5917e-07
-2.15167e-08
-1.67474e-07
-1.08922e-08
-1.75753e-07
-1.83357e-08
-1.74143e-07
-3.67366e-08
-1.9779e-07
1.70283e-08
-2.14045e-07
-9.57621e-09
-2.16188e-07
-4.17465e-10
-2.08324e-07
-1.9034e-09
-2.0043e-07
-6.28723e-09
-2.07638e-07
-2.13393e-08
-1.68142e-07
7.32822e-09
-1.85477e-07
1.08227e-08
-2.11014e-07
1.13028e-08
-1.14052e-07
1.94574e-08
-2.19291e-07
-4.09346e-08
-1.90049e-07
-5.56345e-09
-1.96208e-07
1.97014e-08
-8.58933e-08
6.40543e-08
-8.75831e-08
9.58023e-09
-2.15113e-07
-2.82987e-08
-1.54638e-07
2.28264e-09
-1.39741e-07
-5.19341e-09
-1.30351e-07
-8.30436e-09
-1.1813e-07
-1.18948e-08
-7.96869e-08
-2.19419e-08
-1.33822e-07
2.13981e-08
-1.47818e-07
2.48119e-08
-1.15121e-07
-2.76999e-09
-1.31003e-07
-2.28267e-09
-1.36144e-07
1.2271e-08
-1.3389e-07
2.06814e-08
-1.40405e-07
1.90372e-08
-1.43691e-07
2.67955e-08
-1.20117e-07
2.19164e-08
-1.48874e-07
6.18024e-09
-1.39205e-07
-4.58158e-09
-1.55e-07
-3.18521e-08
-1.58795e-07
3.40954e-08
-5.3703e-08
4.00354e-08
-1.51106e-07
-2.23726e-08
-1.27652e-07
-5.24816e-09
-1.19592e-07
-2.83101e-09
-1.17139e-07
4.91793e-09
-1.50318e-07
1.75153e-08
-1.60036e-07
1.45195e-08
9.83833e-09
-2.07752e-07
-5.58716e-08
-1.10908e-07
-1.70987e-08
-6.26492e-08
-3.28004e-08
-9.67116e-08
-2.4634e-08
-1.00264e-07
-1.34113e-08
-9.60872e-08
-2.2511e-08
-8.01328e-08
-3.01802e-08
8.45257e-09
2.86871e-08
-8.05314e-08
-7.04852e-08
-9.38693e-08
-8.43032e-10
-9.79447e-08
-2.05044e-08
-1.02697e-07
-2.02601e-08
-1.10395e-07
-1.45063e-08
-1.19692e-07
-1.15962e-08
-1.41298e-07
7.80226e-09
-1.2856e-07
-9.64481e-09
-1.59457e-07
-3.67878e-09
-1.54894e-07
8.31242e-09
-1.43292e-07
2.6141e-08
-1.45019e-07
5.3509e-09
-1.29897e-07
1.38325e-09
-1.36343e-07
-3.8633e-09
-1.23332e-07
-3.116e-08
-1.36422e-07
-1.68878e-08
-1.51935e-07
-4.74673e-09
-1.40238e-07
-2.54827e-08
-1.63808e-07
2.07895e-09
-1.57526e-07
6.03061e-09
-1.92093e-07
-7.89652e-09
-1.71518e-07
1.35174e-08
-1.77679e-07
-4.73154e-09
-1.9227e-07
-5.70649e-09
-9.33e-08
2.824e-08
-1.86694e-07
-4.79573e-08
-1.73495e-07
-2.46801e-08
-1.78393e-07
6.23674e-09
-1.75603e-07
-4.69325e-09
-1.84616e-07
-9.39073e-10
-1.98603e-07
-7.27701e-09
-1.78327e-07
-9.02775e-09
-1.56861e-07
-1.06436e-08
-1.49891e-07
2.7048e-09
-1.4148e-07
1.08486e-08
-1.5183e-07
-3.02757e-08
-1.64401e-07
7.07954e-09
-1.45861e-07
1.16148e-09
-1.03667e-07
2.18601e-08
-9.90946e-08
5.00838e-09
-1.21122e-07
-6.27159e-09
-1.17782e-07
-1.05678e-09
-1.15687e-07
-7.21456e-09
-1.23292e-07
-6.99264e-10
-1.43678e-07
7.02496e-09
-3.59321e-08
3.29186e-08
-1.56858e-07
-1.82564e-08
-1.30599e-07
-1.44764e-09
-1.31941e-07
-1.42713e-09
-1.46859e-07
1.28982e-08
-1.4099e-07
6.40172e-09
-1.38052e-07
1.77436e-08
-1.45661e-07
2.66467e-08
-1.35657e-07
1.67913e-08
-1.35601e-07
2.18604e-08
-1.44141e-07
1.47204e-08
-1.62431e-07
1.20514e-08
-7.17761e-08
4.04272e-08
-1.90452e-07
-7.52012e-09
-1.34324e-07
-1.60924e-08
-1.49016e-07
-7.90914e-09
-1.48061e-07
-6.20299e-09
-1.567e-07
7.40675e-09
-1.44919e-07
-8.27565e-09
-1.57547e-07
-2.58181e-08
-1.42992e-07
5.5961e-08
8.58234e-09
-2.07482e-07
-4.25797e-09
-1.50089e-07
-3.55409e-08
-1.10923e-07
-6.76856e-08
-1.08915e-07
-2.55106e-08
-1.30363e-07
8.03578e-09
-1.43984e-07
-8.88996e-09
-4.00779e-08
2.7269e-08
-1.33707e-07
-3.83568e-08
-4.33556e-08
1.1169e-10
-1.45838e-07
-5.72453e-08
-1.40738e-07
-2.85286e-08
-1.52315e-07
-8.68335e-09
-1.4858e-07
-1.66876e-08
-1.39701e-07
-2.04754e-08
-1.27599e-07
-4.37985e-09
-1.34231e-07
-3.01337e-09
-1.54452e-07
1.65792e-08
-1.49602e-07
3.42715e-09
-1.26917e-07
3.45561e-09
-1.24154e-07
2.58704e-09
-1.20791e-07
-1.9798e-09
-1.499e-07
-2.84045e-08
-1.24968e-07
-2.44312e-09
-1.27019e-07
-1.59609e-08
-1.61265e-07
-2.47026e-08
-1.4842e-07
1.69666e-08
-1.49221e-07
2.87895e-09
-1.43293e-07
1.03082e-10
-1.527e-07
1.59027e-09
-1.41823e-07
2.64063e-09
-1.47471e-07
9.16252e-10
-1.44858e-07
-8.31943e-09
-1.12078e-07
-4.82873e-09
-1.38702e-07
-2.1822e-08
-1.2044e-07
-4.17132e-08
-1.28886e-07
1.45352e-08
-1.21039e-07
-1.26679e-08
-1.07166e-07
-1.37301e-08
-1.04088e-07
-1.13629e-08
-1.05069e-07
-9.10907e-09
-9.16553e-08
-2.32306e-08
-8.43808e-08
-4.56963e-09
-1.1877e-07
-8.06041e-09
-6.75513e-08
-2.93657e-08
-1.38216e-07
2.28463e-08
-1.08399e-07
2.64038e-08
-9.39549e-08
7.34082e-09
-8.94064e-08
4.59961e-10
-9.10938e-08
-4.58413e-09
-8.98822e-08
-1.35137e-09
-9.50757e-08
-2.0209e-09
-9.26453e-08
-4.0996e-09
-9.32914e-08
7.67115e-09
-7.04474e-08
9.73878e-09
-1.0845e-07
1.97462e-08
-1.15242e-07
5.2904e-09
-1.35612e-07
1.6176e-08
-1.88733e-07
1.1253e-08
-1.58039e-07
3.28719e-08
-1.56784e-07
1.63223e-08
-1.50446e-07
2.03089e-08
-1.42779e-07
9.12464e-09
-1.38997e-07
1.80779e-08
-1.40631e-07
1.61893e-08
-1.46616e-07
1.80367e-08
-1.30542e-07
2.26092e-08
-1.68415e-07
-2.40973e-08
-1.66607e-07
3.74667e-08
-1.66487e-07
-8.02877e-09
-1.41455e-07
-3.12354e-08
-1.4608e-07
1.20327e-08
-2.05149e-07
4.86162e-08
-1.0017e-07
3.31083e-08
-1.77867e-07
-2.46517e-08
-1.12516e-08
-1.25365e-07
-1.51743e-08
-1.36986e-07
3.92467e-09
-4.71001e-08
1.1379e-08
-5.13926e-08
-2.07379e-08
-1.74027e-07
-8.47919e-08
-1.41298e-07
1.203e-08
-1.17937e-07
3.90774e-09
-1.42185e-07
-1.45005e-08
-1.35016e-07
-7.0589e-09
-1.60713e-07
-3.21329e-08
-1.35875e-07
-5.39175e-08
-1.54851e-07
1.02763e-08
-1.55715e-07
-1.58241e-08
-1.47766e-07
-2.84245e-08
-1.2471e-07
-2.74361e-08
-1.45524e-07
1.76196e-08
-1.78991e-07
-1.77699e-09
-1.30108e-07
7.65125e-09
-1.20743e-07
-7.23732e-09
-1.15575e-07
-2.58199e-09
-1.1345e-07
-4.10491e-09
-1.29195e-07
-1.26594e-08
-1.13285e-07
-1.83536e-08
-1.1314e-07
-1.61065e-08
-1.3175e-07
-5.84153e-09
-1.31163e-07
1.63797e-08
-1.38111e-07
9.82643e-09
-1.33395e-07
-4.6133e-09
-1.3775e-07
5.94512e-09
-1.34542e-07
-5.6733e-10
-1.30138e-07
-3.48775e-09
-1.19826e-07
-1.86318e-08
-8.3588e-08
-4.10665e-08
-1.36627e-07
3.09013e-08
-2.6243e-08
9.11815e-09
-1.28335e-07
-4.21224e-08
-1.09768e-07
-3.28793e-08
-1.10303e-07
-1.33355e-08
-1.17615e-07
-4.16608e-09
-1.1958e-07
-7.14497e-09
-1.06405e-07
-3.67801e-08
-1.27685e-07
1.66636e-08
-1.54577e-07
1.72547e-08
-5.46103e-08
3.29712e-08
-1.73069e-07
-1.93178e-08
-1.43984e-07
-1.21264e-09
-1.25122e-07
-1.1521e-08
-1.18949e-07
-6.9896e-09
-9.72083e-08
-2.63244e-08
-1.10427e-07
1.18676e-08
-1.15548e-07
3.0798e-09
-1.15062e-07
-4.58648e-09
-1.07374e-07
-1.64829e-11
-9.96713e-08
2.03636e-09
-1.37374e-07
5.20129e-09
-9.43225e-08
1.53463e-08
-9.46064e-08
1.53412e-08
-9.51133e-08
1.23745e-08
-7.57652e-08
1.42889e-08
-8.01972e-08
1.99892e-08
-7.87256e-08
1.80191e-08
-8.18161e-08
1.22152e-08
-5.12545e-08
-1.19607e-08
-7.99079e-08
4.48428e-08
-1.07157e-07
4.40215e-08
-1.32607e-07
4.62352e-08
-5.08887e-08
5.64569e-08
-1.66458e-07
-7.39172e-09
-1.53167e-07
-2.15394e-08
-9.9303e-08
7.58479e-08
-9.96899e-08
1.22945e-08
-2.29095e-07
-3.65739e-08
-1.62133e-07
1.94579e-08
-1.65516e-07
-2.152e-08
-2.14822e-08
-1.11955e-07
-7.37133e-08
-1.33067e-07
4.78287e-08
-1.08543e-07
-7.91196e-09
-1.22341e-07
-8.18894e-09
-6.06936e-08
1.61665e-08
-1.7322e-07
-3.57724e-08
-1.59839e-07
-9.47336e-09
-1.57536e-07
-1.68041e-08
-1.59855e-07
-4.74032e-09
-1.78295e-07
-1.55123e-08
-7.21776e-08
3.31478e-09
-1.62755e-07
-5.77399e-08
-1.57589e-07
-2.26511e-08
-1.74654e-07
-1.13598e-08
-5.53654e-08
1.46378e-08
-1.55496e-07
-4.15722e-08
-1.47562e-07
-1.12973e-08
-1.24143e-07
-1.56905e-08
-1.16405e-07
-1.49761e-08
-1.17835e-07
-1.15252e-09
-1.16464e-07
-5.47603e-09
-1.18318e-07
-1.08054e-08
-1.18727e-07
-1.79457e-08
-1.30755e-07
-4.078e-09
-1.36375e-07
-2.22558e-10
-1.17522e-07
-2.47345e-09
-1.57701e-07
-3.64417e-09
-1.19719e-07
1.1054e-08
-1.16644e-07
2.87008e-09
-1.32957e-07
1.57449e-08
-1.19249e-07
-1.70217e-08
-1.31231e-07
-6.64965e-09
-2.42305e-08
1.31272e-08
-1.2592e-07
-2.67308e-08
-1.06242e-07
-1.07613e-08
-7.80682e-08
-7.15097e-08
-1.06278e-07
-5.47405e-09
-1.04203e-07
-1.43266e-08
-1.39441e-07
3.10722e-08
-1.65384e-07
1.71114e-08
-7.65988e-08
3.74262e-08
-1.78666e-07
-4.14348e-08
-1.53474e-07
-7.93712e-09
-1.32201e-07
1.1247e-08
-1.46172e-07
-5.34657e-09
-1.41523e-07