/*--------------------------------*- C++ -*----------------------------------*\
  =========                 |
  \\      /  F ield         | OpenFOAM: The Open Source CFD Toolbox
   \\    /   O peration     | Website:  https://openfoam.org
    \\  /    A nd           | Version:  12
     \\/     M anipulation  |
\*---------------------------------------------------------------------------*/
FoamFile
{
    format      ascii;
    class       surfaceScalarField;
    location    "0.5";
    object      phi.water_0;
}
// * * * * * * * * * * * * * * * * * * * * * * * * * * * * * * * * * * * * * //

dimensions      [0 3 -1 0 0 0 0];

internalField   nonuniform List<scalar> 
7375
(
-2.44279e-07
6.71857e-08
-1.01681e-07
-9.14174e-08
-4.07564e-08
-5.99328e-08
1.41889e-07
-1.8325e-08
-1.57512e-08
-6.12517e-08
2.30772e-08
-3.8831e-08
8.10469e-08
-4.81339e-09
8.13893e-08
5.4017e-10
8.0685e-08
-5.79607e-11
8.47067e-08
-3.16542e-09
8.48003e-08
7.93619e-10
9.43151e-08
-1.03997e-08
1.00708e-07
-6.43177e-09
1.06535e-07
-5.91975e-09
1.33882e-07
-2.65326e-08
9.14975e-08
4.15057e-08
9.96641e-08
-8.99936e-09
1.03399e-07
-2.69823e-09
8.03808e-08
2.3006e-08
2.2943e-07
1.1779e-08
1.00462e-07
-3.1535e-08
1.09479e-07
-8.97763e-09
1.08955e-07
1.63724e-09
1.02212e-07
6.61791e-09
1.14902e-07
-1.40539e-08
1.11433e-07
2.3462e-09
1.18249e-07
-6.81586e-09
1.14288e-07
5.11919e-09
1.01396e-07
1.37605e-08
2.18624e-07
4.3588e-08
1.01131e-07
-4.30125e-08
1.14734e-07
-1.22886e-08
1.24057e-07
-1.04974e-08
1.30168e-07
-7.42513e-09
1.46753e-07
-1.64193e-08
1.15885e-07
-2.22496e-08
1.49308e-07
2.16284e-08
1.15998e-07
-1.80444e-08
1.62192e-07
5.06051e-09
1.62009e-07
-3.1225e-09
1.72122e-07
-8.39271e-09
1.76953e-07
-4.7704e-09
1.96132e-07
-2.11608e-08
2.08403e-07
-8.18513e-09
2.03386e-07
1.13861e-08
3.14242e-07
4.86103e-08
1.69595e-07
-2.0992e-08
1.57474e-07
1.37465e-08
1.18084e-07
3.90203e-08
1.08272e-07
9.83237e-09
1.038e-07
4.45752e-09
1.05011e-07
-1.19122e-09
1.12068e-07
-7.05958e-09
1.27328e-07
-1.50837e-08
1.30286e-07
-1.66889e-09
1.13224e-07
1.7011e-08
1.13465e-07
-1.33847e-09
1.33382e-07
-1.98872e-08
1.32461e-07
9.05355e-10
1.27304e-07
5.17166e-09
1.18112e-07
1.04169e-08
1.01627e-07
1.64097e-08
9.4625e-08
5.92128e-09
9.42116e-08
3.84211e-10
1.01955e-07
-7.71082e-09
5.75474e-08
4.49493e-08
1.77486e-07
4.12337e-08
5.51116e-08
-3.93122e-08
7.81276e-08
-2.24596e-08
9.24434e-08
-1.24373e-08
5.53714e-08
-1.67927e-08
1.22179e-07
-1.39012e-08
1.06192e-07
1.70146e-08
2.71613e-07
-2.87097e-09
-3.01345e-08
-9.9832e-08
1.37953e-08
-2.33589e-08
-1.5242e-07
-4.32881e-08
-3.86768e-08
-4.28556e-08
-1.9007e-08
-1.17972e-07
-3.97059e-08
-5.78852e-08
-4.34736e-08
-3.51689e-08
-2.72226e-08
1.40716e-08
-4.96988e-08
9.30076e-09
4.85561e-09
2.57015e-08
-1.99688e-08
3.85192e-08
-1.21542e-08
4.18024e-08
-1.32891e-08
3.53986e-08
3.33818e-10
-9.46973e-10
3.04071e-08
9.17612e-08
4.50693e-08
-8.78682e-09
-2.10987e-08
3.57244e-09
-2.14849e-08
2.39536e-08
-2.32776e-08
2.75031e-08
-3.42282e-08
7.46652e-08
1.69709e-08
6.32014e-08
-1.93167e-08
6.69004e-08
-1.19096e-08
5.09577e-08
1.77616e-08
1.53983e-08
4.24246e-08
-1.94428e-08
2.1023e-08
-2.28627e-08
6.16748e-09
-1.86405e-08
-1.06839e-08
-1.6474e-09
-1.17383e-08
5.86283e-09
6.29295e-09
4.60617e-08
3.00064e-09
2.08159e-08
-1.88878e-08
5.07274e-08
-4.25051e-08
3.00567e-08
1.06908e-08
3.16765e-08
-9.36801e-09
2.63658e-08
-1.15408e-08
1.82249e-08
-1.34743e-08
8.43631e-09
-2.26984e-08
2.27904e-08
2.10478e-08
1.99366e-08
8.06569e-09
3.84984e-08
-2.21134e-08
5.2842e-08
-2.37438e-08
6.97274e-08
-2.11223e-08
9.11628e-08
-4.21012e-08
1.26356e-07
-4.30229e-08
1.63308e-07
-2.42637e-08
1.89377e-07
2.15385e-08
1.51856e-07
1.29662e-08
1.47296e-07
1.68191e-08
6.36911e-08
-3.52094e-08
6.06022e-08
1.29528e-08
5.2257e-08
1.28026e-08
4.83731e-08
3.22587e-09
5.17936e-08
-1.08974e-08
5.99036e-08
-2.28191e-08
9.79276e-08
-4.00848e-08
9.31634e-08
1.96738e-08
7.80785e-08
1.46873e-08
1.45807e-07
7.48523e-08
1.20804e-07
2.61777e-08
1.15888e-07
8.85568e-09
1.04162e-07
2.108e-08
9.80668e-08
2.13492e-08
9.16766e-08
1.34375e-08
7.79629e-08
1.51881e-08
1.34262e-07
9.69375e-08
1.79554e-09
1.64865e-08
2.42365e-08
1.83676e-08
-1.93225e-08
3.5986e-09
-2.44433e-08
-1.73186e-08
1.00379e-09
-3.82808e-08
-1.82841e-08
2.49032e-09
7.57641e-08
5.5035e-08
3.49145e-08
5.72192e-08
1.49852e-07
4.65204e-08
-1.68307e-08
-1.70263e-07
4.53541e-08
4.8716e-08
7.31575e-09
-3.32085e-08
-1.19687e-07
-1.01655e-07
-1.10381e-07
-8.06779e-08
-6.02778e-08
-7.21602e-08
-5.19908e-08
-8.27947e-08
-1.77099e-08
1.16541e-08
1.79469e-08
-1.12459e-07
-3.31942e-08
-1.14558e-07
-1.92482e-08
-1.27644e-07
2.00851e-09
-1.18801e-07
-2.08298e-08
-1.01042e-07
-1.76038e-08
-1.29348e-07
5.84034e-08
-9.03314e-08
5.13411e-09
-1.07149e-07
-4.28085e-09
-1.33136e-07
2.9559e-09
-1.92656e-07
-1.81983e-08
-1.56485e-07
-1.4937e-08
-1.71716e-07
-2.14922e-08
-1.30799e-07
-5.44665e-09
-9.25078e-08
-5.16562e-08
-9.33034e-08
1.76043e-08
-1.23164e-07
7.00106e-08
-1.42905e-07
4.03262e-08
-1.48011e-07
1.4127e-08
-1.51034e-07
-6.11975e-09
-1.45377e-07
-1.75137e-08
-1.31447e-07
-8.9643e-09
-1.23622e-07
-4.90428e-09
-1.80291e-07
-1.77072e-08
-3.01869e-08
2.37608e-08
-1.35169e-07
-4.49666e-08
-1.12252e-07
-3.22852e-08
-9.96593e-08
-2.40061e-08
-8.46007e-08
-2.78074e-08
-7.93611e-08
-2.66782e-08
-4.88985e-08
-1.02164e-08
-1.0531e-08
-3.08009e-08
1.46744e-08
-4.75788e-08
-4.34933e-09
-4.96257e-09
7.14603e-09
-3.28333e-08
1.37938e-08
-4.88899e-08
4.46481e-08
-7.26924e-08
5.23343e-08
-3.149e-08
6.1881e-08
1.18692e-08
3.34874e-08
4.17903e-08
2.61435e-09
4.70421e-08
6.44006e-08
6.42477e-08
7.30941e-09
6.93365e-08
-1.71215e-08
3.73641e-08
-3.49159e-08
2.13765e-08
-4.1603e-08
-4.67772e-09
-1.05967e-07
-1.34599e-08
5.14932e-08
1.87324e-08
-6.69544e-08
-2.2625e-08
-1.24946e-08
-3.94951e-08
-8.93108e-08
-8.46961e-09
-6.84703e-08
4.14682e-09
-6.23417e-08
3.42572e-09
-6.44011e-08
2.31394e-08
-6.54267e-08
2.19252e-08
-9.62325e-08
4.33899e-08
1.99387e-08
6.26148e-08
-9.89397e-08
1.01606e-09
-1.02911e-07
2.0251e-08
-6.79979e-08
3.69162e-08
-8.12898e-08
1.68905e-08
-1.12018e-07
1.23938e-08
-4.82858e-08
6.01983e-08
-7.19227e-08
2.59115e-08
-3.7398e-08
2.0328e-08
-1.19131e-07
-1.9993e-08
-6.0115e-08
-1.48113e-08
9.79243e-08
-1.44902e-07
2.68293e-08
-1.08141e-07
-5.69966e-08
-7.15137e-08
-9.96418e-08
-9.85159e-08
-8.25444e-08
-9.15376e-08
-6.82605e-08
-6.16175e-08
-8.27545e-08
-6.58753e-08
-1.35901e-08
-4.22393e-08
-5.81233e-09
-6.96295e-08
-6.44793e-09
-9.80818e-08
8.39223e-09
-1.67013e-07
1.75478e-08
-1.69969e-07
3.53847e-08
-7.55781e-08
5.00958e-08
-2.1085e-07
-1.9946e-08
-1.66131e-07
1.40656e-08
-1.72389e-07
2.19181e-10
-2.09198e-07
-1.44364e-08
-2.36734e-07
9.14952e-09
-2.33254e-07
3.30407e-08
-2.51286e-07
-1.04437e-09
-2.52148e-07
-4.59303e-09
-1.26675e-07
-1.52115e-08
-1.08529e-07
1.6782e-09
-2.08198e-07
1.03584e-08
-1.71123e-07
3.05248e-10
-1.58881e-07
1.88585e-09
-1.56083e-07
-8.91788e-09
-1.64764e-07
-7.25585e-09
-1.54023e-07
-2.12605e-08
-1.52163e-07
-8.35153e-09
-1.50523e-07
-1.77955e-08
-1.16324e-07
-1.06799e-08
-1.37787e-07
-2.35038e-08
-1.29659e-07
-3.90904e-08
-1.13934e-07
-3.97311e-08
-1.01659e-07
-4.12448e-08
-9.01397e-08
-3.847e-08
-8.87397e-08
-1.17207e-08
-8.278e-08
-3.79929e-08
2.04842e-08
1.18854e-08
-1.06707e-07
-3.89277e-08
-7.50384e-08
-6.45023e-08
-1.08554e-07
-6.72298e-08
-6.00203e-08
-6.88537e-08
-6.78523e-08
-2.4196e-08
-7.69206e-08
2.01527e-08
-1.51286e-07
6.30824e-08
-1.24585e-07
7.37176e-08
1.60342e-09
9.93647e-08
-8.47751e-08
-3.65998e-09
-1.02582e-07
5.37572e-08
-1.08289e-07
2.57169e-08
-1.36052e-07
2.16344e-08
-2.01372e-07
5.13256e-08
-3.54287e-08
1.7471e-08
-1.93515e-07
-2.51242e-08
-5.66147e-08
-1.48708e-08
-1.54846e-07
-6.96454e-08
-1.26374e-07
-2.56855e-08
-1.14502e-07
-8.6216e-09
-1.08765e-07
1.74024e-08
-1.06677e-07
2.00411e-08
-1.03456e-07
3.97265e-08
-7.54184e-08
3.39386e-08
-9.9754e-08
2.63693e-08
-1.05287e-07
2.55261e-08
-8.99603e-08
2.05153e-08
-8.44197e-08
1.04886e-08
-1.14876e-07
-1.13517e-08
-1.52624e-07
-8.79442e-09
-1.36378e-07
9.66522e-09
-1.35808e-07
1.95503e-08
-1.81739e-07
2.41257e-08
4.43737e-08
8.38303e-08
-3.49535e-08
-1.46534e-07
1.02323e-08
-9.86288e-08
-7.69762e-08
-1.4903e-07
-9.88585e-08
-9.87176e-08
-7.90779e-08
-1.22266e-07
-4.69659e-08
-2.3918e-08
-1.87425e-08
-1.16885e-07
-8.17771e-08
-6.52826e-08
-5.55747e-08
-1.30476e-08
-5.9947e-08
-1.58384e-08
1.11265e-08
-1.30072e-08
1.46714e-08
1.76901e-11
2.22289e-08
1.46177e-08
3.48432e-08
-3.82242e-08
3.30441e-08
-6.33079e-08
3.87601e-08
-9.62616e-08
3.28386e-08
-1.45863e-07
3.71806e-08
-1.47198e-07
1.19717e-08
-1.08702e-07
-6.17769e-09
-1.16639e-07
5.80675e-09
-1.53716e-07
2.97266e-08
-4.40326e-08
3.78681e-08
-4.16988e-08
-2.05803e-10
-1.84508e-07
-6.13221e-08
-1.32762e-07
2.20838e-09
-1.21387e-07
-9.48901e-09
-1.1573e-07
-1.33935e-08
-1.18016e-07
-4.96916e-09
-1.22068e-07
-1.86293e-08
-1.25004e-07
-5.33052e-09
-9.02325e-08
-5.31086e-08
-9.6082e-08
-4.83038e-09
-9.85235e-08
-2.10623e-08
-1.00857e-07
-3.67565e-08
-1.00901e-07
-4.0093e-08
-1.04145e-07
-3.80008e-08
-1.01841e-07
-4.1194e-08
-1.43478e-07
2.81645e-08
-5.57711e-08
3.59607e-08
-2.35055e-08
-1.97248e-08
-1.40701e-07
-8.24399e-08
-1.21715e-07
-8.22471e-08
-1.15052e-07
-7.38927e-08
-1.33009e-07
-5.46879e-08
-1.36696e-07
-2.07229e-08
-1.59599e-07
4.44506e-08
-1.65815e-07
6.86545e-08
-1.63035e-07
7.16898e-08
-1.41137e-07
7.50122e-08
-2.64009e-08
4.39914e-08
-1.2433e-07
-6.11334e-09
-1.0136e-07
1.50628e-09
-1.14132e-07
3.34936e-08
-1.12542e-07
-4.43738e-09
-8.78948e-08
4.62949e-08
-9.55924e-08
-1.72505e-08
-8.57117e-08
-2.47514e-08
-1.05919e-07
-4.95734e-08
-1.4608e-07
1.15243e-08
-1.77082e-07
2.08593e-08
-1.78841e-07
2.09503e-08
-1.86481e-07
2.76815e-08
-1.62323e-07
1.74704e-08
-1.47096e-07
1.8712e-08
-1.46255e-07
2.702e-08
-1.37482e-07
1.70105e-08
-1.34948e-07
1.65789e-08
-1.25396e-07
9.3705e-10
-1.07616e-07
-2.93157e-08
-1.18919e-07
2.50932e-09
-1.48923e-07
3.96687e-08
-1.59895e-07
2.88908e-08
-1.64505e-07
2.87348e-08
-1.22302e-07
4.28872e-08
-9.78491e-09
-2.05088e-07
-9.21935e-09
-1.06989e-07
-7.7723e-08
-1.75501e-07
-8.10567e-08
-1.02464e-07
-9.74813e-08
-1.20889e-07
-2.8252e-08
-9.78464e-08
-4.15935e-08
-1.0048e-07
-7.83092e-08
-1.47644e-07
-1.04824e-08
-4.58629e-08
2.60365e-10
-1.48068e-07
-4.71471e-08
-1.08595e-07
-2.46515e-08
-1.11528e-07
2.59185e-08
-1.0541e-07
2.93813e-08
-1.09046e-07
3.66438e-08
-1.1874e-07
4.9666e-08
-1.22367e-07
3.55906e-08
-1.58359e-07
1.77094e-08
-1.53441e-07
8.7925e-09
-1.28978e-07
2.29459e-08
-1.22019e-07
-1.09248e-09
-1.20393e-07
2.7817e-08
-8.76348e-08
4.72443e-09
-8.14879e-08
-6.35213e-09
-1.24698e-07
-1.81115e-08
-1.04033e-07
-1.84564e-08
-1.06366e-07
-7.15584e-09
-1.01295e-07
-1.84632e-08
-9.60162e-08
-1.01949e-08
-7.55697e-08
-3.90756e-08
-1.52925e-07
1.68155e-08
-2.66803e-08
3.74552e-08
-1.08877e-07
-8.41674e-08
-1.04724e-07
-2.52154e-08
-1.07423e-07
-3.4057e-08
-1.11783e-07
-3.5733e-08
-1.29149e-07
-2.19524e-08
-2.43221e-08
1.66636e-08
-1.10216e-07
-4.39045e-08
-7.26216e-08
-2.37714e-09
-7.45521e-08
-1.83287e-08
-1.60941e-07
-5.04611e-08
-1.48101e-07
-4.14376e-08
-1.76354e-07
-4.81932e-08
-1.95572e-07
-3.7486e-08
-1.81837e-07
-3.25643e-08
-1.94285e-07
5.87534e-08
-1.98229e-07
7.25984e-08
-2.00232e-07
7.36929e-08
-1.64057e-07
4.05101e-08
-1.25866e-07
5.41085e-09
-1.77575e-07
4.20092e-08
-1.90926e-07
1.29055e-08
-2.11244e-07
1.57737e-09
-1.74746e-07
1.48687e-08
-1.57682e-07
-2.28095e-08
-1.46809e-07
2.49833e-08
-1.72736e-07
-2.08367e-09
-6.82972e-08
8.59364e-09
-1.88166e-07
-2.84499e-08
-1.75813e-07
8.0813e-09
-1.66194e-07
1.14476e-08
-1.6135e-07
2.2556e-08
-1.50039e-07
6.15904e-09
-1.29936e-07
-1.39074e-09
-1.68387e-07
6.5471e-08
-1.74755e-07
2.35521e-08
-1.71481e-07
1.33044e-08
-1.87824e-07
1.52092e-08
-1.07696e-07
5.31621e-08
-1.142e-07
1.01121e-08
-2.10922e-07
-2.45566e-08
-1.85388e-07
3.35608e-09
-1.69763e-07
1.10839e-08
-1.88312e-07
7.23317e-09
2.18016e-08
-1.7632e-07
-1.15221e-08
-1.38574e-07
-8.53041e-08
-2.1745e-07
-5.03526e-08
-6.25495e-08
-3.49282e-08
-1.84624e-07
-6.54989e-08
-1.98296e-07
-2.98041e-08
-1.04776e-07
-1.0772e-08
-2.17716e-07
-5.84883e-08
-1.7525e-07
-4.22086e-08
-1.70798e-07
-5.15975e-08
-1.64039e-07
-3.5116e-08
-1.74459e-07
-2.00355e-08
-1.6677e-07
2.70086e-08
-1.4155e-07
6.68916e-08
-1.45242e-07
5.04329e-08
-1.36468e-07
2.71836e-08
-1.36847e-07
1.91061e-08
-1.29145e-07
1.09087e-09
-8.58651e-08
-2.03334e-08
-9.38463e-08
7.84678e-09
-9.45108e-08
2.8482e-08
-1.05477e-07
1.47266e-08
-9.94083e-08
-1.24199e-08
-9.95921e-08
-1.79271e-08
-9.67691e-08
-2.1279e-08
-8.88685e-08
-1.50561e-08
-1.02015e-07
-4.31974e-09
-9.9882e-08
-1.23275e-08
-3.93826e-09
2.51659e-08
-1.29098e-07
-1.878e-08
-7.3375e-08
-1.92026e-08
4.01916e-08
-3.54936e-08
-9.65723e-08
-4.98088e-08
-8.77014e-08
-4.29279e-08
-8.50714e-08
-3.79756e-08
-8.43728e-08
-2.17904e-08
-5.78808e-08
-9.99685e-09
-7.27352e-08
-3.00886e-08
-9.7348e-08
2.24401e-08
-8.87945e-08
-2.70694e-08
-1.15405e-07
-2.38506e-08
-1.25968e-07
-3.08745e-08
-1.34111e-07
-4.00508e-08
-1.77451e-07
4.38126e-09
-6.58516e-08
1.87777e-08
-1.8817e-07
2.07961e-08
-1.9803e-07
8.24584e-08
-1.88461e-07
6.41239e-08
-1.93344e-07
4.34205e-08
-7.48135e-08
5.03131e-08
-1.70826e-07
-2.05444e-08
-1.60234e-07
4.3886e-10
-1.37698e-07
-2.09745e-08
-1.82266e-07
5.94364e-08
-6.75047e-08
2.33764e-08
-1.67208e-07
-3.6006e-08
-1.41339e-07
-2.79525e-08
-8.51599e-08
-4.72866e-08
-1.11645e-07
-1.98485e-09
-1.69529e-07
6.30966e-08
-1.79059e-07
2.09781e-08
-1.37591e-07
-1.70849e-08
-1.47693e-07
1.62603e-08
-7.78628e-08
8.97265e-08
-1.99255e-07
-2.77332e-08
-1.62682e-07
-1.30213e-08
-1.58325e-07
1.05626e-08
-1.41213e-07
5.0693e-08
-1.16581e-07
2.65473e-08
-1.16745e-07
1.02756e-08
-1.40972e-07
-3.29563e-10
-1.39133e-07
1.51575e-09
-1.15895e-07
-1.21546e-08
-1.49132e-07
3.99881e-08
1.04015e-08
-9.25739e-08
1.93853e-07
-1.42769e-07
-1.31134e-08
-1.62229e-07
-2.62284e-08
-1.62175e-07
-3.33266e-08
-1.9838e-07
-2.99619e-08
-2.18801e-07
-7.15079e-09
-2.10554e-07
-1.88279e-08
-2.29557e-07
-4.2062e-08
-2.18593e-07
-5.37202e-08
-2.24357e-07
-4.81217e-08
-1.8817e-07
-6.86547e-08
-1.48415e-07
-5.86705e-08
-1.66855e-07
4.19573e-08
-1.41727e-07
4.20205e-08
-1.18252e-07
2.86973e-08
-1.64422e-07
2.11059e-08
-1.11627e-07
1.92246e-08
-1.36789e-07
2.51148e-08
-4.36639e-08
4.701e-08
-4.96215e-08
1.36656e-08
-1.46282e-07
-3.51553e-08
-1.24961e-07
-6.52711e-09
-1.18292e-07
-1.90879e-08
-1.10752e-07
-2.52096e-08
-1.05489e-07
-2.6274e-08
-9.39893e-08
-2.72359e-08
-1.39374e-07
-1.31363e-08
-1.00877e-07
3.09108e-09
-7.13751e-08
-3.56304e-09
-7.14695e-08
-1.72429e-08
-8.21853e-08
-1.01408e-08
4.55245e-08
-1.07842e-09
-7.36489e-08
-9.29957e-08
-1.0331e-07
-1.22128e-08
-1.14365e-07
-2.69208e-08
-1.44253e-07
6.93085e-09
-1.51787e-07
-2.56445e-09
-4.71905e-08
2.55197e-08
-1.91378e-07
-5.01806e-08
-1.4266e-07
-2.01866e-08
-1.47586e-07
-1.91191e-08
-1.46918e-07
-3.18678e-08
-1.1238e-07
-7.34424e-08
-1.39611e-07
3.12954e-08
-3.13205e-08
6.98185e-08
-6.4417e-08
5.38924e-08
-2.19486e-07
2.29309e-08
-1.5392e-07
5.22066e-08
-1.50144e-07
3.92446e-08
-1.36243e-07
3.62686e-08
-1.64574e-07
7.57735e-09
-1.74083e-07
9.94787e-09
-6.0954e-08
2.68433e-08
-1.93918e-07
-2.21957e-08
-1.16761e-07
-1.31558e-10
-1.48284e-07
-4.48332e-09
-1.8511e-07
6.9851e-09
-8.22893e-08
1.17721e-08
-1.16794e-07
3.33474e-08
-2.49099e-07
-1.80027e-08
-2.17179e-07
4.20638e-08
-1.11231e-07
3.79149e-08
-6.89468e-08
-2.62927e-08
-1.68642e-07
-2.51748e-08
-1.85604e-07
-1.07712e-08
-1.59266e-07
1.42902e-08
-1.57771e-07
1.06765e-08
-1.20422e-07
1.38561e-08
-1.20378e-07
2.52747e-08
-1.10767e-07
6.64499e-10
-1.00909e-07
-1.01884e-08
-1.45967e-07
4.61028e-08
-4.18175e-08
4.5069e-08
-1.33297e-07
-2.78548e-08
-4.45146e-09
-2.38371e-07
-7.51203e-08
-1.77151e-07
-2.62087e-08
-1.70162e-07
-2.56423e-08
-1.56931e-07
-4.52838e-08
-1.99271e-07
1.23789e-08
-1.99223e-07
-5.16638e-09
-2.04223e-07
-1.60798e-08
-2.17507e-07
-3.27862e-08
-2.27145e-07
-4.18391e-08
-2.50388e-07
-7.44155e-08
-2.42851e-07
-2.7022e-08
-1.4078e-07
4.17919e-10
-2.11297e-07
-4.30052e-08
-1.78399e-07
6.89684e-09
-1.64534e-07
1.28624e-08
-2.09286e-07
1.6023e-08
-1.42322e-07
5.61903e-09
-1.29958e-07
1.26255e-08
-8.85268e-08
6.47327e-09
-6.80231e-08
-7.04464e-09
-7.31894e-08
-2.99362e-08
-6.45338e-08
-1.59213e-08
-4.94394e-08
-3.43358e-08
-3.39513e-08
-4.03543e-08
-1.94874e-08
-4.08836e-08
1.52761e-08
-6.21958e-08
-1.08705e-08
1.31662e-08
-2.72362e-09
-5.02775e-09
-9.61331e-09
3.36288e-09
-4.37146e-08
1.6305e-08
-8.6841e-08
3.32236e-08
-8.85813e-08
6.5521e-10
-3.66957e-08
1.7544e-08
-1.59734e-07
-4.92449e-08
-1.51187e-07
-3.57429e-08
-1.49243e-07
4.98678e-09
-1.47439e-07
-2.86435e-09
-1.14014e-07
-7.98592e-09
-1.42915e-07
-2.21566e-08
-1.52373e-07
-1.241e-08
-1.58117e-07
-1.50055e-08
-2.19288e-07
-2.32693e-08
-1.20864e-07
4.62006e-08
-2.03469e-07
-4.51061e-08
-1.23598e-07
-1.22532e-08
-1.37285e-07
6.68972e-08
-1.54098e-07
4.01531e-08
-1.43661e-07
4.32345e-08
-1.33985e-07
2.82155e-08
-1.76085e-07
2.27856e-08
-1.44497e-07
3.14345e-08
-1.46479e-07
1.19298e-08
-1.19241e-07
-3.93764e-10
-1.34995e-07
-6.37722e-09
-1.27878e-07
-7.24855e-09
-1.39244e-07
6.88276e-09
-1.58047e-07
2.4176e-08
-3.32712e-08
4.94809e-08
-1.50847e-07
-1.00249e-08
-1.7072e-07
3.6125e-09
-1.47234e-07
1.85774e-08
-1.37704e-07
2.5478e-08
-3.12241e-08
2.98336e-08
-1.69848e-07
-4.71794e-08
-1.68037e-07
-1.25821e-08
-1.55556e-07
1.80872e-09
-1.44447e-07
-4.36689e-10
-1.41432e-07
1.09821e-08
-1.3563e-07
1.94725e-08
-1.24212e-07
-1.07539e-08
-3.26313e-08
5.891e-08
-1.36085e-07
-9.7662e-09
-9.67832e-08
4.37805e-09
-1.21446e-07
-3.47646e-09
3.50686e-09
-1.66176e-07
1.2103e-08
-2.11103e-07
-2.62892e-09
-1.68004e-07
-7.92951e-09
-5.57525e-08
5.07143e-09
-2.16303e-07
-4.10976e-08
-1.56213e-07
-1.14891e-08
-1.49921e-07
-2.1006e-08
-1.53549e-07
-2.91213e-08
-1.53214e-07
-4.48757e-08
-1.81986e-07
-4.33213e-08
-1.62028e-07
-4.54143e-08
-1.78884e-07
-3.62109e-08
-1.5156e-07
-1.72213e-08
-1.4423e-07
-4.32208e-10
-1.33337e-07
1.8401e-09
-1.33031e-07
1.28687e-08
-1.26477e-07
-8.67051e-10
-1.17998e-07
5.43672e-09
-1.10348e-07
-1.11015e-09
-1.13041e-07
-4.42252e-09
-1.22188e-07
-2.13119e-08
-1.1668e-07
-2.15906e-08
-1.31637e-07
-1.95777e-08
-1.31442e-07
-4.09612e-08
-1.49637e-07
-2.31046e-08
-4.57878e-08
-5.26511e-09
-1.42706e-07
-4.92372e-08
-1.3013e-07
-1.90589e-08
-1.02726e-07
-2.53131e-08
-1.42895e-07
5.5001e-08
-1.68748e-07
6.00502e-09
-1.35775e-07
2.41913e-08
-1.05443e-07
-1.18995e-08
-1.18811e-07
-3.73186e-08
-1.04879e-07
-5.14125e-08
-1.17295e-07
1.74032e-08
-1.38859e-07
1.74614e-08
-1.4285e-07
-5.49371e-09
-1.64524e-07
-7.05498e-10
-1.89967e-07
1.47286e-08
-1.98237e-07
-4.64445e-09
-2.06536e-07
-1.47333e-08
-1.79773e-07
-3.42121e-08
-2.06299e-07
3.21761e-08
-1.01197e-07
4.62933e-08
-2.05575e-07
1.08991e-08
-1.92555e-07
2.50148e-08
-1.60062e-07
1.27055e-08
-1.29871e-07
-1.68769e-09
-1.22273e-07
1.49545e-08
-1.10407e-07
1.95688e-08
-1.06792e-07
8.31445e-09
-1.09645e-07
3.57835e-09
-1.04105e-07
-1.19179e-08
-8.34625e-08
-2.92511e-08
-1.03785e-07
2.7205e-08
-9.51424e-08
1.53767e-08
-6.95626e-08
2.33963e-08
-1.00988e-07
2.14008e-08
-1.16234e-07
1.88579e-08
-1.14652e-07
1.7185e-08
-1.078e-07
1.86261e-08
-8.67974e-08
8.52668e-09
-1.01495e-07
-3.28164e-08
-1.40256e-07
2.61785e-08
-1.4288e-07
2.97514e-09
-1.46087e-07
2.7697e-09
-1.43845e-07
1.02305e-08
-1.56055e-07
3.16822e-08
-4.51052e-08
3.9704e-08
-9.21386e-08
-5.33788e-08
-1.17267e-07
1.4177e-08
-1.09142e-07
-3.74757e-09
-1.18483e-07
5.86433e-09
9.61656e-09
-2.02738e-07
5.87819e-08
-1.89156e-07
-2.76298e-08
-1.08019e-07
-2.7698e-08
-5.48809e-08
-4.86135e-08
-1.29025e-07
-1.92855e-08
-1.03245e-07
1.568e-08
-1.09681e-07
-1.67415e-08
-1.12433e-07
-2.66691e-08
-1.25588e-07
-2.95935e-08
-1.2636e-07
-4.21119e-08
-1.34894e-07
-3.86321e-08
-1.44859e-07
-2.62449e-08
-1.31547e-07
-2.93669e-08
-1.179e-07
-1.40786e-08
-1.07918e-07
-8.2235e-09
-8.97218e-08
-4.42123e-09
-7.29704e-08
-1.85151e-08
-6.7985e-08
-2.95546e-10
-7.90766e-08
9.98212e-09
-9.82485e-08
1.37476e-08
-1.50594e-07
3.13575e-08
-1.36142e-07
-3.58944e-08
-1.9508e-07
-1.48419e-08
-1.5985e-07
-2.05514e-08
-1.72283e-07
-1.06708e-08
-1.49737e-07
-2.78108e-08
-1.48691e-07
-5.13084e-08
-1.87427e-07
1.77647e-08
-8.26808e-08
3.25473e-08
-2.17001e-07
-2.49924e-08
-1.76694e-07
2.10887e-08
-1.53118e-07
6.15527e-10
-1.56927e-07
-1.14928e-08
-1.90016e-07
-6.57198e-09
-9.16276e-08
1.47632e-08
-2.03746e-07
-3.257e-08
-2.00975e-07
-3.74402e-08
-1.58939e-07
7.66332e-09
-1.43349e-07
-1.791e-08
-1.65353e-07
3.6212e-08
-1.77241e-07
7.24341e-09
-1.97045e-07
5.07082e-09
-8.44169e-08
1.49682e-08
-1.55436e-07
-5.6699e-08
-1.09481e-07
-1.72015e-09
-1.4621e-07
-5.91005e-09
-1.67359e-07
4.54445e-08
-1.59498e-07
4.8449e-09
-1.19659e-07
1.22467e-08
-1.4856e-07
4.38563e-08
-1.33651e-07
4.65908e-09
-1.29649e-07
4.31275e-09
-1.28875e-07
2.80412e-09
-1.63919e-07
2.13321e-08
-5.48149e-08
2.4251e-08
-1.98891e-07
-4.07274e-08
-1.17648e-07
-1.27589e-08
-1.10524e-07
1.50719e-08
-1.08369e-07
1.92467e-08
-1.19802e-07
3.02909e-08
-1.21716e-07
1.90986e-08
-1.27341e-07
2.42515e-08
-1.42059e-07
2.17951e-08
-4.88418e-08
3.65723e-08
-1.56192e-07
-2.69205e-08
-1.19278e-07
-3.42885e-08
-1.43689e-07
2.71519e-08
-1.46899e-07
1.33054e-08
-1.36562e-07
2.13444e-08
-1.60853e-07
1.03459e-08
-2.95124e-08
2.96332e-08
-1.34205e-07
-4.00482e-08
-1.09434e-07
-2.98892e-08
-1.37939e-07
-1.94782e-08
-2.16407e-08
-2.66261e-07
-1.54268e-07
-1.3063e-07
-5.23664e-08
-1.22358e-07
-3.35617e-08
-2.7026e-08
1.86608e-08
-2.53821e-08
-2.03942e-08
-1.08657e-07
-6.02076e-08
-1.06216e-07
-2.02912e-08
-1.14763e-07
-1.88282e-08
-1.62471e-07
-3.60864e-08
-1.254e-07
-2.43055e-08
-1.31827e-07
-3.22045e-08
-1.30034e-07
-2.8037e-08
-1.34759e-07
-2.46422e-08
-1.30884e-07
-1.80957e-08
-1.34811e-07
-4.3405e-09
-1.18581e-07
-2.06955e-08
-1.04508e-07
-3.41913e-08
-1.22217e-07
1.74136e-08
-1.50567e-07
3.95793e-08
-1.55187e-07
1.67855e-08
-1.72649e-07
-5.7052e-09
-1.38098e-07
-1.50345e-08
-1.47168e-07
-5.62021e-09
-1.62418e-07
-5.35578e-09
-1.60256e-07
-1.28317e-08
-1.6811e-07
-2.16722e-08
-8.19773e-08
2.51656e-08
-1.97633e-07
-2.66899e-08
-1.35823e-07
-2.99e-08
-1.99772e-07
3.89567e-08
-1.74571e-07
-4.11152e-09
-1.76561e-07
8.10252e-10
-1.97054e-07
9.00019e-09
-2.00486e-07
-1.06239e-09
-1.76364e-07
-9.50908e-09
-2.39201e-07
-2.33825e-08
-2.34111e-07
1.13844e-08
-2.25306e-07
-1.06351e-09
-1.06075e-07
2.51453e-08
-2.09623e-07
-1.95621e-08
-1.90518e-07
-1.3859e-08
-1.94637e-07
9.18931e-09
-1.82028e-07
5.0239e-10
-1.10486e-07
3.37802e-08
-1.2075e-07
9.67136e-09
-1.19766e-07
-5.67227e-09
-2.03227e-07
-3.04172e-08
-1.88991e-07
-1.33921e-08
-5.19568e-08
3.78184e-08
-1.91499e-07
-3.0668e-08
-1.35115e-07
1.92449e-09
-1.21463e-07
-9.33945e-09
-1.12023e-07
-6.63628e-09
-1.25484e-07
-1.88557e-08
-1.01724e-07
2.46094e-10
-1.63823e-07
2.13716e-08
-1.24384e-07
1.32043e-09
-1.13653e-07
4.34124e-09
-1.22046e-07
2.76396e-08
-1.28657e-07
3.69018e-08
-1.40936e-07
3.13776e-08
-1.46233e-07
2.95487e-08
-1.3878e-07
1.43419e-08
-1.21935e-07
1.93544e-08
-1.56929e-07
6.47259e-09
-5.59823e-08
2.73706e-08
-2.1106e-07
-2.99484e-08
-1.39706e-07
-4.94084e-09
-1.32102e-07
1.23152e-08
-1.23367e-07
1.61064e-09
-1.0187e-07
9.17481e-09
-1.22039e-07
-2.00821e-08
-1.24384e-07
-3.0369e-08
-2.35354e-07
3.729e-08
4.40928e-08
-9.55763e-08
4.54856e-08
-1.0804e-07
-1.98972e-08
-1.02353e-07
-3.62819e-08
-7.24632e-08
-1.03745e-08
-6.63615e-08
-2.64954e-08
-9.72121e-08
-2.99708e-08
-9.61152e-08
-2.02009e-08
-8.06339e-08
-3.4309e-08
-8.82506e-08
-2.89235e-08
-8.95979e-08
-2.29577e-08
-9.87164e-08
-2.30855e-08
-1.06425e-07
-2.05371e-08
-1.16476e-07
-1.45908e-08
-1.28086e-07
-7.79212e-09
-1.82448e-07
-4.17912e-09
-1.62081e-07
1.27943e-08
-8.08787e-08
4.72133e-08
-8.26425e-08
1.98254e-08
-1.80685e-07
-2.33245e-08
-1.63095e-07
-8.04116e-10
-1.57701e-07
-1.10404e-08
-1.27064e-07
-4.56709e-08
-1.41024e-07
6.90108e-09
-1.68868e-07
-3.1713e-08
-1.45812e-07
-3.45171e-08
-1.63768e-07
4.99335e-08
-1.41909e-07
3.05069e-09
-1.84276e-07
1.3797e-08
-8.05593e-08
2.89896e-08
-2.28135e-07
-2.72423e-08
-1.81976e-07
3.37913e-09
-1.76799e-07
-4.36705e-09
-1.77169e-07
9.27913e-09
-1.68524e-07
-9.70725e-09
-1.67098e-07
-1.09354e-08
-1.97732e-07
9.17479e-09
-1.83585e-07
-2.76232e-09
-1.919e-07
3.3859e-09
-1.61897e-07
-4.80777e-09
-2.02772e-07
-2.88162e-08
-1.63022e-07
-5.0178e-10
-1.53704e-07
-1.77321e-09
-1.33414e-07
-1.97879e-08
-1.10999e-07
1.09084e-08
-1.06679e-07
-4.87953e-08
-1.28703e-07
1.63519e-08
-1.6114e-07
1.70937e-09
-1.41454e-07
2.05701e-08
-9.98437e-08
-4.17743e-09
-1.20622e-07
-9.88936e-09
-1.07831e-07
-1.0757e-08
-1.10266e-07
-6.90464e-09
-1.12105e-07
-4.79776e-09
-1.27196e-07
-5.06215e-09
-1.36702e-07
9.75199e-09
-1.27146e-07
1.32108e-08
-1.34521e-07
8.69447e-09
-1.12129e-07
-1.84267e-08
-1.34327e-07
4.98384e-08
-1.32957e-07
3.55316e-08
-1.51838e-07
5.02585e-08
-1.44327e-07
2.20374e-08
-1.34076e-07
4.09128e-09
-1.32962e-07
1.82399e-08
-1.35378e-07
8.88822e-09
-1.17896e-07
8.40712e-09
-1.76758e-07
-2.55518e-08
-1.68347e-07
4.20495e-08
-1.54166e-07
-1.86562e-09
-1.50635e-07
-1.92124e-09
-1.76176e-07
-1.71356e-08
-1.51298e-07
6.41511e-09
-6.17044e-08
4.1083e-08
-2.14029e-07
-2.25488e-08
1.20723e-09
-1.66798e-07
3.52141e-08
-1.34695e-07
-2.02917e-08
-1.33111e-07
-3.33259e-08
-1.15753e-07
-2.63744e-08
-9.28851e-08
-4.98716e-08
-1.35115e-07
1.36378e-08
-1.29481e-07
-2.58346e-08
-1.14024e-07
-5.14355e-08
-1.19544e-07
-2.34034e-08
-1.22488e-07
-2.00136e-08
-1.38793e-07
-8.19548e-09
-1.54752e-07
-4.57787e-09
-1.54095e-07
-1.3668e-08
-1.48204e-07
-1.36831e-08
-1.5929e-07
6.95071e-09
-1.42095e-07
-4.40067e-09
-9.4076e-08
-1.28628e-09
-1.13872e-07
3.92221e-08
-1.40018e-07
2.82205e-09
-1.59125e-07
1.83036e-08
-1.78254e-07
8.08835e-09
-6.34223e-08
4.45518e-10
-1.55813e-07
-6.1655e-08
-1.93997e-07
4.81607e-09
-9.47145e-08
2.88067e-08
-2.12905e-07
-4.55054e-08
-1.45423e-07
-1.07821e-08
-1.36672e-07
5.04638e-09
-1.17005e-07
9.02703e-09
-1.46434e-07
2.18695e-09
-1.47242e-07
4.18728e-09
-1.4944e-07
-2.16872e-09
-1.4027e-07
1.08935e-10
-1.39445e-07
-1.05319e-08
-1.47917e-07
-9.4515e-10
-1.35271e-07
-3.47109e-09
-1.28041e-07
-1.00948e-08
-1.08116e-07
-1.54468e-08
-9.8296e-08
-1.56714e-08
-1.13162e-07
-1.49528e-08
-9.72084e-08
-1.54692e-08
-9.53545e-08
-3.62726e-09
1.22935e-08
3.2413e-08
-1.09047e-07
-2.81744e-08
-3.2991e-08
3.70123e-08
-1.4786e-07
-2.93898e-08
-1.15994e-07
-2.98522e-08
-9.27246e-08
-2.69949e-09
-9.59258e-08
-9.76339e-10
-8.9993e-08
-1.49041e-08
-8.95346e-08
-1.12155e-08
-8.41139e-08
-1.32389e-08
-8.76604e-08
-1.25136e-09
-1.05389e-07
1.26665e-08
-8.23413e-08
-1.33954e-08
-1.19594e-07
4.99543e-08
-1.57721e-07
4.36031e-08
-6.85917e-08
5.67433e-08
-1.75651e-07
-2.62291e-09
-1.56096e-07
1.5815e-08
-1.62778e-07
3.29135e-09
-1.56522e-07
1.57811e-08
-1.40709e-07
4.19279e-08
-1.34508e-07
1.19172e-08
-1.3965e-07
1.40297e-08
-1.59858e-07
2.69843e-08
-6.75339e-08
4.4993e-08
-2.20277e-07
-1.93116e-08
-1.78788e-07
1.02941e-08
-1.55073e-07
-2.53772e-08
-1.67153e-07
-5.05668e-09
-1.39414e-07
-2.14778e-08
-1.48584e-07
4.98325e-08
-1.6505e-07
-6.08379e-09
-1.28612e-08
-1.13413e-07
9.0103e-09
-9.95941e-08
-8.49281e-09
-9.81978e-08
-3.03177e-08
-1.20723e-07
-5.0807e-09
-2.07136e-08
1.2726e-08
-1.69546e-07
-5.24489e-08
-1.5254e-07
-4.3104e-08
-1.43925e-07
-6.40116e-09
-1.49633e-07
-1.76948e-08
-1.54104e-07
-1.55415e-08
-1.52991e-07
-9.30834e-09
-1.5578e-07
-1.74164e-09
-1.56809e-07
-1.26386e-08
-1.53472e-07
-1.70195e-08
-1.61724e-07
1.50502e-08
-1.7331e-07
7.18587e-09
-4.5743e-08
3.25608e-08
-1.42012e-07
-2.38299e-08
-1.27135e-07
-1.35036e-08
-1.39385e-07
-2.30945e-08
-1.29146e-07
-2.15029e-09
-1.20183e-07
-8.51735e-09
-1.24903e-07
-3.28506e-09
-1.45528e-07
-2.82077e-08
-1.27987e-07
1.09726e-08
-1.80911e-07
7.41886e-09
-1.10361e-07
-2.76833e-08
-1.25319e-07
2.0005e-08
-1.29113e-07
1.28209e-08
-1.25248e-07
-1.67707e-09
-1.28628e-07
7.56753e-09
-1.23912e-07
-6.8849e-09
-1.12393e-07
-1.12945e-08
-1.14775e-07
-6.97908e-09
-1.07312e-07
-8.40846e-09
-1.08563e-07
-3.31662e-09
-1.18336e-07
-3.25165e-10
-1.11516e-07
-2.24239e-08
-1.12793e-07
-1.45548e-08
-1.16488e-07
-1.1258e-08
-1.18396e-07
-1.35613e-08
-1.15806e-07
-6.31865e-09
-9.20349e-08
8.64182e-09
-1.14879e-07
-6.78978e-09
-1.21711e-07
-1.07397e-08
-1.42422e-07
-5.98362e-09
-1.21883e-07
2.71588e-09
-1.19345e-07
-6.48163e-09
-1.15801e-07
-4.47493e-09
-1.0634e-07
-2.46157e-08
-1.12341e-07
-5.32926e-09
-1.09889e-07
-1.56908e-08
-1.06704e-07
-4.43704e-09
-1.64288e-07
1.66014e-08
-1.54645e-08
5.25354e-08
-1.16484e-07
-8.34848e-09
-9.80536e-08
2.37425e-08
-6.62979e-08
2.42586e-08
-8.00415e-08
1.19289e-08
-7.88567e-08
1.38218e-08
-8.71086e-08
1.07387e-08
-8.82801e-08
1.69525e-08
-6.60216e-08
2.01374e-08
-7.47622e-08
2.08684e-08
-9.65167e-08
3.46677e-08
-1.06279e-07
3.63754e-08
-9.3419e-08
3.04105e-08
-1.66042e-07
-8.91284e-10
-1.50378e-07
-2.14141e-09
-1.21444e-07
-1.21659e-09
-1.76457e-07
4.64434e-08
-7.59766e-08
4.06466e-08
-2.1264e-07
-2.73267e-08
-1.65296e-07
2.21647e-10
-1.77675e-08
-1.458e-07
-1.00104e-08
-1.31648e-07
5.87996e-09
-9.91682e-08
-5.80168e-08
-1.20459e-07
1.62104e-08
-1.09879e-07
8.96078e-10
-1.9984e-07
-1.66895e-08
-1.72771e-07
-1.44846e-08
-1.57651e-07
-2.15206e-08
-1.49026e-07
-2.632e-08
-1.4299e-07
-2.15763e-08
-1.44328e-07
-7.97003e-09
-1.50071e-07
4.00209e-09
-1.5551e-07
-7.19883e-09
-1.61659e-07
-9.22119e-09
-1.4019e-07
-6.35389e-09
-1.33489e-07
-9.44413e-10
-1.07644e-07
6.7167e-09
-1.20059e-07
-1.16583e-08
-1.26026e-07
-7.53606e-09
-1.37993e-07
-1.11269e-08
-1.2586e-07
-1.42823e-08
-1.24765e-07
-9.6119e-09
-1.16575e-07
-1.14746e-08
-1.32038e-07
-1.27444e-08
-1.69273e-07
-5.4412e-09
-1.76606e-07
1.47525e-08
-3.27332e-08
4.30405e-08
-1.50333e-07
-2.33424e-08
-1.18577e-07
-1.89344e-08
-9.63137e-08
-2.39403e-08
-1.1518e-07
2.61666e-08
-1.20494e-07
-3.4067e-10
-1.16742e-07
-1.5047e-08
-1.10079e-07
-1.48327e-08
-1.11929e-07
-5.91512e-08
-8.26791e-08
1.95085e-08
-1.40275e-07
2.21634e-09
-1.16844e-07
9.22578e-09
-1.27089e-07
-4.35503e-09
-1.40585e-07
2.2385e-09
-1.22254e-07
-3.3481e-08
-1.65414e-07
3.68406e-08
-1.30321e-07
-2.47634e-08
-1.27862e-07
-9.15507e-09
-1.31371e-07
-7.12126e-09
-1.36514e-07
-8.41371e-10