/*--------------------------------*- C++ -*----------------------------------*\
  =========                 |
  \\      /  F ield         | OpenFOAM: The Open Source CFD Toolbox
   \\    /   O peration     | Website:  https://openfoam.org
    \\  /    A nd           | Version:  12
     \\/     M anipulation  |
\*---------------------------------------------------------------------------*/
FoamFile
{
    format      ascii;
    class       volVectorField;
    location    "0.5";
    object      U.water_0;
}
// * * * * * * * * * * * * * * * * * * * * * * * * * * * * * * * * * * * * * //

dimensions      [0 1 -1 0 0 0 0];

internalField   nonuniform List<vector> 
3750
(
(0.00519861 -0.0359612 0)
(-0.00797468 -0.00975944 0)
(-0.00612027 -0.00903044 0)
(-0.00247936 0.00645418 0)
(-0.00295359 0.00233511 0)
(-0.00045973 0.00327931 0)
(0.000953228 0.00295382 0)
(0.00109149 0.0059998 0)
(0.00115617 0.00737721 0)
(0.000725019 0.00759565 0)
(0.000727697 0.00859702 0)
(-0.000456695 0.00894344 0)
(-0.000444783 0.00911281 0)
(-0.000840555 0.010086 0)
(-0.00198219 0.0107014 0)
(0.00178058 0.0106334 0)
(0.000276398 0.00953646 0)
(0.000183868 0.00818808 0)
(-0.000305163 0.0091034 0)
(0.00154004 0.015274 0)
(-0.00164479 0.0167282 0)
(-0.000638766 0.0107969 0)
(-0.000165196 0.0100662 0)
(0.000443815 0.0105392 0)
(-0.000949209 0.00991931 0)
(-0.000128292 0.0108978 0)
(-0.000333928 0.0115362 0)
(0.0008955 0.0114164 0)
(0.00104279 0.0106574 0)
(0.00228112 0.0154481 0)
(-0.00155968 0.0158106 0)
(-7.39968e-05 0.0105249 0)
(-0.000218182 0.0114684 0)
(0.00039774 0.0120378 0)
(-0.000503944 0.0131177 0)
(-0.00123691 0.0130198 0)
(-0.00103089 0.0132452 0)
(-0.00113271 0.0123492 0)
(-0.000284164 0.0140546 0)
(-0.00137337 0.0154428 0)
(0.000285446 0.016066 0)
(0.00070517 0.0171608 0)
(-0.000732274 0.0188153 0)
(0.000213544 0.0198173 0)
(0.00171747 0.0206489 0)
(0.00258303 0.0265508 0)
(-0.000734616 0.025018 0)
(0.000927291 0.0155471 0)
(0.00207136 0.0132084 0)
(0.0007115 0.00974648 0)
(0.000559722 0.00943146 0)
(-0.000295105 0.0104304 0)
(-0.000984075 0.0107983 0)
(-0.000713082 0.0103679 0)
(6.78465e-05 0.0111028 0)
(0.00198679 0.0118963 0)
(0.00159644 0.0113447 0)
(0.000345647 0.0113363 0)
(0.000778901 0.0129207 0)
(0.00120043 0.0130634 0)
(0.00123169 0.0121244 0)
(0.00136418 0.0107864 0)
(0.000578967 0.00968434 0)
(-0.000867013 0.00913315 0)
(-0.000539105 0.00941262 0)
(0.000444332 0.00758062 0)
(0.000324277 0.0110803 0)
(-0.00323316 0.0117276 0)
(-0.00175121 0.00621458 0)
(-0.00014008 0.00760858 0)
(0.000506907 0.00746006 0)
(-0.000737831 0.00928526 0)
(0.000720738 0.0105444 0)
(-0.000540993 0.0171637 0)
(-0.00122168 0.0179525 0)
(0.00601068 -0.0234207 0)
(-0.0126075 0.00195202 0)
(-0.00490952 -0.00723037 0)
(-0.00220525 -0.00225528 0)
(-0.00497376 -0.00775694 0)
(-0.00386327 -0.00429793 0)
(-0.00301204 -0.00626238 0)
(-0.00295189 -0.000886751 0)
(-0.000914734 0.00109045 0)
(-0.00111399 0.00150213 0)
(-0.00106872 0.00279692 0)
(-0.00113655 0.00440457 0)
(-0.000403835 0.00386906 0)
(0.00121104 0.0020077 0)
(0.000446563 0.00370671 0)
(0.000724504 0.00332378 0)
(-0.00144584 -0.00105922 0)
(-0.00223456 0.000804231 0)
(-0.00103878 0.00318825 0)
(0.00180438 0.00554159 0)
(-0.00207024 0.00678747 0)
(-0.000363951 0.00607069 0)
(0.000502449 0.00553263 0)
(0.00199933 0.00294584 0)
(-0.000587277 -0.000336011 0)
(-4.05052e-05 -0.00260736 0)
(-0.000677612 -0.00156603 0)
(-0.00020282 -0.00137287 0)
(0.000823294 0.000534614 0)
(0.00235241 0.00163254 0)
(-0.00374792 0.00354432 0)
(-0.00217212 0.00257693 0)
(-0.000177417 0.00445419 0)
(-0.00129439 0.00301562 0)
(-0.0016472 0.00228848 0)
(-0.00142674 0.00234789 0)
(0.000659425 0.000530611 0)
(0.00110813 0.00147871 0)
(0.00126457 0.00035743 0)
(-0.000646635 0.00203003 0)
(-0.000809498 0.00344946 0)
(-0.0012671 0.00419406 0)
(-0.00407351 0.00828146 0)
(-0.00236569 0.0113412 0)
(-0.000477767 0.0132372 0)
(0.00372158 0.0181576 0)
(-0.000335445 0.0177356 0)
(0.00152021 0.0150575 0)
(0.000965394 0.0102162 0)
(0.000739101 0.00661314 0)
(0.000595312 0.00495295 0)
(-1.45833e-05 0.00457086 0)
(6.57935e-05 0.0051132 0)
(-0.00148893 0.00604698 0)
(-0.00141707 0.00781779 0)
(0.00124604 0.00968526 0)
(-0.000256611 0.00802413 0)
(0.00180525 0.0109463 0)
(0.000591141 0.0135354 0)
(-0.000379794 0.0120706 0)
(0.000431881 0.0108694 0)
(0.000821401 0.0102472 0)
(0.000202108 0.00844135 0)
(0.000754875 0.00852797 0)
(0.00379207 0.010199 0)
(0.00332489 0.00616119 0)
(0.00378283 0.00125021 0)
(-0.00145427 -0.000211464 0)
(-0.000992639 -0.00303988 0)
(-0.00234886 -0.00125207 0)
(-0.000895105 -0.000548329 0)
(0.00175295 0.00343671 0)
(0.00325945 0.00438918 0)
(0.00211733 0.0078255 0)
(-0.00255319 0.00646064 0)
(0.00141282 -0.0255495 0)
(-0.00706235 -0.0009789 0)
(-0.00712092 -0.000557264 0)
(-0.00604238 -0.00564068 0)
(-0.00419513 -0.00884275 0)
(-0.00472995 -0.00621164 0)
(-0.00256854 -0.0076167 0)
(-0.00194258 -0.00347379 0)
(-0.00244349 -0.00402934 0)
(-0.00278222 -0.00882141 0)
(-0.00227745 -0.01155 0)
(-0.000917639 -0.0123508 0)
(-0.000745126 -0.0117749 0)
(0.00428972 -0.0115125 0)
(0.004136 -0.0100848 0)
(-0.000702651 -0.00919288 0)
(-0.00199814 -0.0115416 0)
(-0.00276682 -0.0130378 0)
(-0.00242637 -0.0131383 0)
(-0.000892939 -0.0150161 0)
(-0.00129294 -0.0131818 0)
(-0.00306895 -0.0113845 0)
(0.00270569 -0.00966787 0)
(0.00664823 -0.0100308 0)
(0.00435585 -0.0121 0)
(0.000804696 -0.0137975 0)
(-0.00106389 -0.0155612 0)
(-0.00150486 -0.0152366 0)
(2.65891e-05 -0.0140349 0)
(3.48846e-05 -0.0115953 0)
(-0.00138545 -0.0108406 0)
(-0.000498539 -0.00766548 0)
(-0.00134988 -0.00791438 0)
(-0.00129345 -0.0121597 0)
(-0.000800116 -0.0108163 0)
(-0.00159392 -0.00833624 0)
(-0.000799697 -0.00714522 0)
(-0.00115122 -0.00658137 0)
(-0.00198164 -0.00302799 0)
(-0.00246947 0.000473572 0)
(-0.00224433 0.000755037 0)
(-0.00310324 -0.000269485 0)
(-0.00440547 0.000895779 0)
(-0.00456649 0.00201765 0)
(-0.00343042 0.00325557 0)
(0.00145963 0.00623035 0)
(0.000703869 0.00428948 0)
(0.00339863 0.00209555 0)
(0.000612782 0.0033095 0)
(0.00392176 0.00287862 0)
(0.00229618 -0.000221101 0)
(0.000877171 -0.00309125 0)
(-0.0016629 -0.00505831 0)
(-0.00181528 -0.00525738 0)
(-0.00194396 0.000106048 0)
(-0.000974112 -0.00211511 0)
(-0.00107594 -0.00277679 0)
(0.00432521 -0.00463318 0)
(0.00252209 -0.0083712 0)
(0.00190741 -0.00705041 0)
(0.00330707 -0.00565918 0)
(0.0030377 -0.00725052 0)
(0.0034299 -0.00750235 0)
(0.00387046 -0.00365351 0)
(0.00408137 -0.00322277 0)
(0.00284682 -0.00672141 0)
(0.00208697 -0.00785587 0)
(0.000343829 -0.00709902 0)
(-0.00142416 -0.00907763 0)
(0.000709612 -0.00793084 0)
(0.000665129 -0.00571447 0)
(0.00403673 -0.00526848 0)
(0.00225327 -0.00875787 0)
(0.00214272 -0.00677459 0)
(0.0032159 -0.00207249 0)
(0.00459366 -0.0269214 0)
(-0.0025593 -0.00480877 0)
(-0.0110752 -0.00852005 0)
(-0.00829293 -0.00639247 0)
(-0.00611514 -0.010644 0)
(-0.00636058 -0.00704759 0)
(-0.000208373 -0.00504324 0)
(0.00303853 -0.00371649 0)
(0.000607154 -0.00556191 0)
(0.000493168 -0.00840878 0)
(0.00191052 -0.0107949 0)
(3.01044e-05 -0.0131449 0)
(0.000582514 -0.0119413 0)
(-0.000100386 -0.0126148 0)
(-0.000927623 -0.0162589 0)
(-0.00164843 -0.0165632 0)
(0.000458875 -0.0183345 0)
(0.00121615 -0.021641 0)
(0.000422266 -0.0222364 0)
(-0.000121059 -0.0232966 0)
(-0.00116494 -0.0252698 0)
(-0.00328031 -0.0189407 0)
(0.000810111 -0.0118577 0)
(0.00341654 -0.0156657 0)
(0.00208989 -0.0182767 0)
(0.00107954 -0.0157276 0)
(-0.00031306 -0.0160588 0)
(-0.000938855 -0.0141097 0)
(-0.00127256 -0.0138074 0)
(-0.00049426 -0.0152823 0)
(-0.00128701 -0.0140646 0)
(-0.00046211 -0.0136743 0)
(-0.00377 -0.0123885 0)
(-0.00303188 -0.0111056 0)
(-0.0035823 -0.0110548 0)
(-0.00382157 -0.0100702 0)
(-0.00426431 -0.00889442 0)
(-0.00210427 -0.00902158 0)
(-0.00348094 -0.00652924 0)
(-0.00208023 -0.00248057 0)
(-0.0011806 -0.00245444 0)
(-0.00374612 -0.00735365 0)
(-0.00547475 -0.0072736 0)
(-0.0066172 -0.0056907 0)
(-0.00349032 -0.00615592 0)
(0.000987153 -0.00640468 0)
(0.00506863 -0.00893338 0)
(0.00636701 -0.0109204 0)
(0.00705381 -0.00640467 0)
(0.00386541 -0.00399106 0)
(0.00539511 -0.00778558 0)
(0.00289185 -0.0108817 0)
(0.00104193 -0.0126738 0)
(0.00239831 -0.0131951 0)
(0.00200239 -0.0103317 0)
(-0.00187666 -0.0105446 0)
(-0.00214093 -0.011018 0)
(-0.00449334 -0.0108401 0)
(-0.00171769 -0.0137794 0)
(-0.00127589 -0.0114609 0)
(0.000260892 -0.0102255 0)
(0.000538428 -0.00919283 0)
(0.00493148 -0.00834489 0)
(0.00472786 -0.00861093 0)
(0.00259253 -0.0083695 0)
(0.00234264 -0.0102224 0)
(0.00154332 -0.0101547 0)
(0.00112277 -0.00797479 0)
(0.000394255 -0.00743676 0)
(0.00310375 -0.0103697 0)
(0.00217793 -0.014021 0)
(0.00192666 -0.0143526 0)
(2.16925e-05 -0.0155421 0)
(0.00292698 -0.00628984 0)
(0.00324673 -0.00465979 0)
(0.000701222 -0.0277486 0)
(-0.00649722 -0.00551571 0)
(-0.0105859 -0.0116206 0)
(-0.00857442 -0.006952 0)
(-0.00558121 -0.0124997 0)
(-0.00513765 -0.00719002 0)
(-0.0038732 -0.00634682 0)
(-0.00407333 -0.0075833 0)
(-0.00396295 -0.00526574 0)
(0.00190093 -0.00119356 0)
(0.00277517 -0.000945197 0)
(0.00414341 -0.000575409 0)
(0.00486777 0.000897102 0)
(0.00124803 -0.000374071 0)
(0.00075062 -0.00297419 0)
(0.00100951 -0.00690351 0)
(1.76507e-05 -0.0121747 0)
(0.000853754 -0.0145576 0)
(0.000827245 -0.0120418 0)
(-0.000152643 -0.011272 0)
(0.00046415 -0.0127755 0)
(0.00137481 -0.00957526 0)
(-0.000437116 -0.00515248 0)
(-0.00274513 -0.0093544 0)
(-0.000322774 -0.0123886 0)
(-0.00048643 -0.0111288 0)
(-0.00118072 -0.0119014 0)
(-0.000493802 -0.011759 0)
(-0.0023393 -0.0120714 0)
(-0.00059709 -0.0115157 0)
(-0.00295662 -0.0105509 0)
(-0.000962952 -0.0100259 0)
(-0.00087658 -0.00832047 0)
(-0.00288528 -0.00939029 0)
(-0.00414562 -0.0102517 0)
(-0.00403617 -0.00994137 0)
(-0.00379698 -0.00936496 0)
(0.00115926 -0.0117174 0)
(0.00042749 -0.0100978 0)
(-0.000562195 -0.00374752 0)
(-0.00598937 -0.00720453 0)
(-0.00705947 -0.0115646 0)
(-0.00597749 -0.0121482 0)
(-0.00638035 -0.012476 0)
(-0.00147462 -0.0123582 0)
(0.00351223 -0.0136027 0)
(0.00686867 -0.016469 0)
(0.00721664 -0.0158337 0)
(0.00883546 -0.014192 0)
(0.00194394 -0.00742796 0)
(0.00202878 -0.0062991 0)
(0.00138238 -0.011908 0)
(0.0024049 -0.0103572 0)
(0.00171775 -0.00910617 0)
(0.00267954 -0.00785693 0)
(-0.00139595 -0.0081951 0)
(-0.00252105 -0.00898167 0)
(-0.00630482 -0.00887236 0)
(-0.000299418 -0.0111197 0)
(0.000986751 -0.0153301 0)
(0.0015138 -0.017746 0)
(0.00234732 -0.0157742 0)
(0.0021655 -0.0137388 0)
(0.0027309 -0.0157041 0)
(0.00276892 -0.0146982 0)
(0.00169888 -0.0142357 0)
(0.00146681 -0.0131842 0)
(0.000233011 -0.0127083 0)
(-0.00221586 -0.0116401 0)
(-0.00126858 -0.0108821 0)
(0.00110042 -0.0124729 0)
(0.00184023 -0.0146169 0)
(0.00232033 -0.0160895 0)
(0.00559389 -0.0140449 0)
(-0.0013565 -0.0131253 0)
(-0.000381021 -0.0279258 0)
(-0.00652586 -0.00593639 0)
(-0.00823904 -0.0148551 0)
(-0.00815343 -0.00722802 0)
(-0.00329953 -0.0122721 0)
(-0.00301257 -0.00979906 0)
(-0.00833128 -0.0092878 0)
(-0.00436018 -0.0117561 0)
(-0.00387248 -0.00944998 0)
(-0.00241543 -0.00958204 0)
(-0.00206807 -0.0118895 0)
(0.00014887 -0.0101694 0)
(0.00307799 -0.0106255 0)
(0.00457286 -0.0106976 0)
(0.00575972 -0.0103561 0)
(0.0049354 -0.0111043 0)
(0.00184149 -0.0138116 0)
(0.000598081 -0.0143295 0)
(0.00096914 -0.0129377 0)
(0.000618574 -0.0116237 0)
(0.0046147 -0.0117577 0)
(0.00364593 -0.00951026 0)
(0.000878445 -0.00813288 0)
(-0.00238108 -0.0100277 0)
(-0.000854488 -0.0105394 0)
(-0.000818918 -0.010363 0)
(-0.00101638 -0.00921565 0)
(-0.00110275 -0.00936633 0)
(-0.00282321 -0.0084005 0)
(-0.000360913 -0.00823132 0)
(-0.00138536 -0.00690987 0)
(-0.0044321 -0.00500646 0)
(-0.00193117 -0.00723023 0)
(-0.00282263 -0.00984068 0)
(-0.00315302 -0.0105634 0)
(-0.00246366 -0.0114748 0)
(-0.00139291 -0.00724877 0)
(-0.000775391 -0.00700753 0)
(0.0016931 -0.00884146 0)
(-0.00188146 -0.00781543 0)
(-0.00559508 -0.00903996 0)
(-0.00635778 -0.0120647 0)
(-0.00549644 -0.0158898 0)
(-0.00503452 -0.0186378 0)
(-0.00275559 -0.0185448 0)
(0.0041743 -0.0184484 0)
(0.00702883 -0.0199096 0)
(0.00590738 -0.0201562 0)
(0.00434262 -0.0176132 0)
(0.0024665 -0.0142552 0)
(2.9521e-05 -0.015198 0)
(-0.000464779 -0.018358 0)
(0.00108998 -0.0194106 0)
(0.000604058 -0.0169797 0)
(9.12839e-07 -0.0139059 0)
(0.000608352 -0.0136918 0)
(-0.000834949 -0.0150999 0)
(-0.000953342 -0.0112914 0)
(-1.0099e-07 -0.011753 0)
(0.00162712 -0.0165412 0)
(0.000916176 -0.0172223 0)
(0.00321915 -0.0161756 0)
(0.000534244 -0.0144785 0)
(0.000635773 -0.013349 0)
(0.00284382 -0.014903 0)
(0.00138239 -0.0170674 0)
(0.00112795 -0.0169238 0)
(0.00135747 -0.017154 0)
(0.000398316 -0.0140654 0)
(0.000974562 -0.0110104 0)
(0.00147512 -0.0151741 0)
(0.00302073 -0.0181447 0)
(0.00194838 -0.0182643 0)
(0.00240138 -0.0164225 0)
(1.18682e-05 -0.0162316 0)
(0.000524233 -0.0352028 0)
(-0.00885308 -0.00720883 0)
(-0.00643436 -0.0172398 0)
(-0.00782514 -0.00775307 0)
(-0.00592907 -0.0125917 0)
(-0.00358813 -0.0178464 0)
(-0.00352621 -0.0146437 0)
(-0.00214294 -0.0157417 0)
(-0.00166895 -0.0199938 0)
(-0.00342282 -0.0163216 0)
(-0.00167966 -0.0162452 0)
(0.000615522 -0.0168001 0)
(0.00293085 -0.0160324 0)
(0.00359962 -0.0155095 0)
(0.00381734 -0.0136965 0)
(0.00122559 -0.0135899 0)
(0.00175292 -0.0134936 0)
(0.000418006 -0.0120511 0)
(-0.000513249 -0.00999786 0)
(0.000381841 -0.00629526 0)
(0.00183687 -0.00718329 0)
(0.000566927 -0.00986858 0)
(-0.0012721 -0.00949963 0)
(-0.00261215 -0.00982899 0)
(-0.00214526 -0.00916304 0)
(-0.00185673 -0.00848051 0)
(-0.000886975 -0.00805597 0)
(-0.000472418 -0.00860904 0)
(-0.00015429 -0.00597624 0)
(0.0014131 -0.00470204 0)
(0.00151552 -0.00810225 0)
(-0.0047991 -0.0027004 0)
(-0.00400778 -0.00173939 0)
(-0.00401052 -0.00793264 0)
(-0.00373822 -0.00822579 0)
(-0.00317025 -0.00815447 0)
(0.000137663 -0.00700682 0)
(-0.0038655 -0.00643201 0)
(-6.85472e-05 -0.00822093 0)
(-0.00114351 -0.00923425 0)
(-0.00164175 -0.0100898 0)
(-0.00244298 -0.0115017 0)
(-0.00373895 -0.012983 0)
(-0.000869804 -0.0149437 0)
(-0.000830363 -0.0122414 0)
(0.00305328 -0.011483 0)
(0.0067291 -0.0181772 0)
(0.0058235 -0.0193316 0)
(0.00343145 -0.0188567 0)
(0.00254143 -0.0134287 0)
(0.0013224 -0.0127908 0)
(0.000459139 -0.016175 0)
(-0.000378562 -0.0144792 0)
(0.00198396 -0.0132596 0)
(0.000830883 -0.00939776 0)
(-0.000904542 -0.0111437 0)
(-0.00221034 -0.0144049 0)
(-0.00253012 -0.0110891 0)
(-0.00208529 -0.0104112 0)
(0.00208477 -0.0139476 0)
(0.000941453 -0.0150555 0)
(0.000207103 -0.0137755 0)
(0.00138681 -0.0137138 0)
(0.00346984 -0.0107889 0)
(0.00168492 -0.0125906 0)
(0.00119482 -0.016729 0)
(0.00209697 -0.0156339 0)
(0.00252532 -0.015183 0)
(0.00372537 -0.0127194 0)
(0.000650579 -0.0109795 0)
(-0.00155337 -0.011147 0)
(-0.000548529 -0.0127192 0)
(-0.000258963 -0.0129176 0)
(0.00236017 -0.0121016 0)
(0.000921826 -0.0128708 0)
(0.00691299 -0.0228299 0)
(-0.00532425 -0.00514631 0)
(-0.00416435 -0.0176972 0)
(-0.00245102 -0.0148189 0)
(-0.00305207 -0.0182284 0)
(-0.00165254 -0.0202307 0)
(-0.000656241 -0.0218526 0)
(-0.00627139 -0.0220958 0)
(-0.00474699 -0.0219305 0)
(-0.00473042 -0.0215317 0)
(-0.00417491 -0.0198033 0)
(-0.00258598 -0.0165531 0)
(0.00244515 -0.0157309 0)
(0.00349287 -0.0142786 0)
(0.00262374 -0.012845 0)
(0.00256609 -0.0107679 0)
(0.00274964 -0.00997194 0)
(0.00176035 -0.0120516 0)
(0.00196939 -0.00814266 0)
(0.00207824 -0.0050096 0)
(-0.000360805 -0.00872615 0)
(0.000161292 -0.0126486 0)
(-0.00126384 -0.0117679 0)
(-0.00135162 -0.0115884 0)
(-0.0014322 -0.0111407 0)
(-0.00147652 -0.0101032 0)
(-0.00048995 -0.00914556 0)
(-0.000178235 -0.0094599 0)
(0.00105582 -0.00843341 0)
(-0.00198263 -0.00658402 0)
(-0.00291467 -0.00755949 0)
(-0.00308957 -0.00204606 0)
(-0.00824638 -0.000411517 0)
(-0.00375448 -0.00706947 0)
(-0.00258705 -0.0111999 0)
(-0.000552494 -0.0109816 0)
(0.000688297 -0.0112828 0)
(0.000226907 -0.0104086 0)
(-0.000441959 -0.0100443 0)
(-0.00182569 -0.0137348 0)
(-0.00351569 -0.0134389 0)
(-0.00424548 -0.0148743 0)
(-0.00488812 -0.0131344 0)
(0.00228594 -0.0118371 0)
(0.0052903 -0.00882691 0)
(0.00459707 -0.00525425 0)
(0.00496947 -0.0104945 0)
(0.00499001 -0.0153497 0)
(0.00397811 -0.0153316 0)
(0.00295062 -0.0140499 0)
(-0.000833285 -0.0155283 0)
(0.000546122 -0.0159595 0)
(-0.000269302 -0.0106832 0)
(0.00206385 -0.00973671 0)
(0.00147089 -0.0118723 0)
(-0.000887834 -0.0127625 0)
(-0.000479624 -0.0164125 0)
(-0.00149076 -0.0133251 0)
(0.00171681 -0.0103608 0)
(0.00288765 -0.0167587 0)
(0.00321722 -0.0198695 0)
(0.000667505 -0.0148513 0)
(-0.000911483 -0.00956429 0)
(0.00260372 -0.0117653 0)
(-0.00139596 -0.0160415 0)
(-0.000465953 -0.0158188 0)
(0.000898246 -0.0154302 0)
(0.00159098 -0.0138567 0)
(0.00250169 -0.0114241 0)
(0.000852593 -0.0107924 0)
(0.00021802 -0.0106539 0)
(0.00244327 -0.0110316 0)
(0.0018837 -0.00858134 0)
(0.00101128 -0.00896249 0)
(0.000546282 -0.0120863 0)
(0.006593 -0.0312549 0)
(-0.00124825 -0.010752 0)
(-0.00161158 -0.02036 0)
(-0.00299686 -0.0147501 0)
(-0.000373138 -0.0186463 0)
(0.000131072 -0.0195469 0)
(-0.000786446 -0.0200384 0)
(-0.00251274 -0.0210714 0)
(-0.00439288 -0.0225895 0)
(-0.00550723 -0.0232838 0)
(-0.00400251 -0.0241422 0)
(-0.00413185 -0.0191076 0)
(0.000339698 -0.0164197 0)
(0.00215466 -0.0194501 0)
(0.00186963 -0.0171809 0)
(0.00103882 -0.0135539 0)
(0.000306633 -0.0137839 0)
(0.00131 -0.0132157 0)
(0.0029649 -0.00997121 0)
(0.000813866 -0.00824567 0)
(-0.00238706 -0.006707 0)
(-0.000332492 -0.00701352 0)
(-0.00246597 -0.00559107 0)
(-0.00369518 -0.00378562 0)
(-0.00367983 -0.00224281 0)
(-0.0042363 7.29539e-06 0)
(0.00081127 0.000751052 0)
(-0.000312163 -0.000721337 0)
(-0.000255326 -0.00206143 0)
(-0.00152808 -0.00323016 0)
(-0.00100594 -0.00545055 0)
(0.000768437 -0.00801047 0)
(-0.00260811 -0.00718094 0)
(-0.00192689 -0.00891868 0)
(-0.00208176 -0.0136697 0)
(0.00153738 -0.0145036 0)
(-0.000224892 -0.0141742 0)
(0.000182606 -0.0124137 0)
(-0.00319727 -0.0121082 0)
(-0.00233377 -0.0127625 0)
(-0.0018182 -0.0145392 0)
(-0.00213777 -0.0185721 0)
(-0.00201318 -0.0159977 0)
(-0.000132634 -0.0162322 0)
(0.0030686 -0.0166406 0)
(0.00634252 -0.012273 0)
(0.00378024 -0.0136863 0)
(0.00476584 -0.0136811 0)
(0.00402096 -0.0136368 0)
(0.00275871 -0.0128508 0)
(0.000920099 -0.0125408 0)
(0.00123368 -0.0136528 0)
(0.00170364 -0.0131797 0)
(-0.000611818 -0.0126116 0)
(-0.00104792 -0.0129138 0)
(-0.000314635 -0.0128047 0)
(0.00124338 -0.013646 0)
(0.00274689 -0.0091404 0)
(0.000562384 -0.00916052 0)
(-0.00141491 -0.0147635 0)
(0.00113395 -0.0156798 0)
(0.00226559 -0.014264 0)
(7.97869e-07 -0.00769498 0)
(-0.00249162 -0.00947999 0)
(-0.00157363 -0.0157647 0)
(-0.000141932 -0.0148587 0)
(0.000943799 -0.0138901 0)
(0.00210249 -0.0144484 0)
(0.00197049 -0.0135067 0)
(-0.000739145 -0.0118209 0)
(0.00197469 -0.00711466 0)
(0.00160486 -0.00813473 0)
(0.00188996 -0.0109184 0)
(-0.00193281 -0.0101099 0)
(-0.000400377 -0.0111015 0)
(-0.00131218 -0.0290038 0)
(-0.0017056 -0.00791511 0)
(-0.000920761 -0.0185306 0)
(-0.0024255 -0.00982858 0)
(-0.00170665 -0.0101013 0)
(0.000801637 -0.013848 0)
(-0.00182538 -0.0155563 0)
(-0.00219322 -0.0149721 0)
(-0.00368837 -0.0157441 0)
(-0.00429507 -0.0143794 0)
(-0.00412501 -0.0154514 0)
(-0.00103388 -0.0148403 0)
(-0.00320282 -0.0142916 0)
(-0.000244294 -0.0146708 0)
(0.00156333 -0.0132862 0)
(0.00170639 -0.0131266 0)
(9.35501e-05 -0.0120088 0)
(0.000838412 -0.0121785 0)
(-0.000578379 -0.0111435 0)
(-0.00193106 -0.0114128 0)
(-0.00471883 -0.00884483 0)
(-0.00230268 -0.00911242 0)
(-0.00345609 -0.0123558 0)
(-0.00301266 -0.01257 0)
(-0.00231255 -0.0128958 0)
(-0.00271995 -0.00877429 0)
(-0.00189906 -0.00939929 0)
(-0.00119073 -0.0136316 0)
(-0.0010426 -0.0120523 0)
(0.0036933 -0.0115494 0)
(0.00304021 -0.0133158 0)
(0.00198125 -0.0138497 0)
(0.00023827 -0.0115723 0)
(-0.00388277 -0.01152 0)
(-0.0041218 -0.0100537 0)
(0.000125287 -0.00955176 0)
(-0.00101901 -0.0124387 0)
(-0.00101027 -0.0142237 0)
(-0.00166805 -0.0148128 0)
(0.000568085 -0.0176222 0)
(-0.000319209 -0.0181391 0)
(-0.000718573 -0.0200972 0)
(0.00110887 -0.0180989 0)
(-0.000707913 -0.0176225 0)
(0.00153166 -0.0144531 0)
(0.00226694 -0.0145082 0)
(0.00277369 -0.0192774 0)
(0.00242585 -0.0170944 0)
(0.00110026 -0.0144921 0)
(0.00231995 -0.0118186 0)
(0.0011395 -0.0114969 0)
(0.00019497 -0.0107717 0)
(-8.51707e-05 -0.0104572 0)
(-0.00124278 -0.0105559 0)
(-0.00235031 -0.0092167 0)
(0.00157821 -0.00865365 0)
(0.00306781 -0.0097362 0)
(0.00391589 -0.00835027 0)
(0.00113198 -0.00838879 0)
(0.00087441 -0.0104858 0)
(0.00202322 -0.0107063 0)
(0.00253531 -0.0108468 0)
(0.00186743 -0.0089909 0)
(-0.00422382 -0.00831529 0)
(0.000205061 -0.010637 0)
(-0.000150095 -0.0138404 0)
(0.000634878 -0.0146155 0)
(0.000232535 -0.0141101 0)
(0.00289625 -0.0148818 0)
(0.0011198 -0.00990156 0)
(0.00107957 -0.00661829 0)
(0.00054312 -0.0100558 0)
(0.000274108 -0.0114308 0)
(0.00075322 -0.0110319 0)
(0.000856483 -0.0100436 0)
(-0.00087593 -0.0295103 0)
(-6.76316e-05 -0.00912286 0)
(-0.0011233 -0.0151621 0)
(-0.000588441 -0.00540447 0)
(-0.0010769 -0.00501965 0)
(0.000267554 -0.00759365 0)
(-0.00230989 -0.0110555 0)
(-0.0033324 -0.0101888 0)
(-0.00436782 -0.0113176 0)
(-0.00377083 -0.0125334 0)
(-0.00353462 -0.0132818 0)
(-0.00195459 -0.0136173 0)
(-0.00233764 -0.0122092 0)
(-0.000483247 -0.011885 0)
(-0.00040785 -0.0112526 0)
(0.000781084 -0.00910554 0)
(-0.000521333 -0.00829975 0)
(0.000594079 -0.00671695 0)
(0.00135174 -0.0067366 0)
(0.00130331 -0.00903886 0)
(0.000551737 -0.00948115 0)
(-0.00126191 -0.0116105 0)
(-1.50322e-05 -0.0139837 0)
(-0.000795156 -0.0133253 0)
(-0.0012439 -0.0155448 0)
(-0.00172742 -0.0157709 0)
(-0.00579881 -0.0148238 0)
(-0.000514129 -0.0166109 0)
(0.000146377 -0.0129616 0)
(0.00118329 -0.013358 0)
(-9.20079e-05 -0.0164172 0)
(-0.000239703 -0.0148797 0)
(-0.00214478 -0.0156699 0)
(-0.00262727 -0.0160412 0)
(-0.00145147 -0.0131661 0)
(-0.00112684 -0.0148423 0)
(-0.0001186 -0.0186725 0)
(0.000928946 -0.0169814 0)
(0.000620769 -0.014908 0)
(0.00307045 -0.0145885 0)
(-0.000435554 -0.0171356 0)
(-0.00106823 -0.0161209 0)
(-8.54074e-05 -0.0112627 0)
(-0.00124685 -0.0120105 0)
(0.00310646 -0.0131542 0)
(0.000123615 -0.0121902 0)
(0.00322497 -0.0149982 0)
(0.000789048 -0.0158518 0)
(-0.0010602 -0.012992 0)
(0.00172135 -0.0122886 0)
(0.00156885 -0.0133925 0)
(0.00111538 -0.0134683 0)
(0.000559225 -0.0127825 0)
(0.000105313 -0.0139203 0)
(7.50622e-05 -0.0109148 0)
(-0.000594603 -0.00928965 0)
(0.000328116 -0.012575 0)
(0.00168847 -0.0118306 0)
(0.00177143 -0.0102267 0)
(0.00251699 -0.0100691 0)
(0.00222442 -0.0111674 0)
(0.00208306 -0.012302 0)
(0.0013416 -0.0131114 0)
(-0.000194381 -0.00959421 0)
(0.000130007 -0.0103539 0)
(-0.00091692 -0.0134012 0)
(0.00240774 -0.013134 0)
(0.00244561 -0.0120709 0)
(0.00202351 -0.0109229 0)
(0.00202815 -0.0120699 0)
(-0.00111018 -0.00660993 0)
(-0.00232101 -0.00840229 0)
(-0.00245725 -0.0118072 0)
(-0.00134427 -0.00995765 0)
(-0.000784342 -0.00972342 0)
(-0.00339732 -0.0309934 0)
(-0.00401897 -0.00642963 0)
(-0.00378974 -0.0176672 0)
(-0.00171896 -0.00524505 0)
(-0.00153542 -0.00335644 0)
(-0.00267367 -0.00620716 0)
(-0.00193644 -0.00997253 0)
(-0.00150261 -0.0101315 0)
(-0.0024514 -0.011944 0)
(-0.00280109 -0.0108739 0)
(-0.00254103 -0.0124321 0)
(-0.00227218 -0.0129385 0)
(-0.00170339 -0.012566 0)
(-0.0019956 -0.0131829 0)
(-0.00179935 -0.0126157 0)
(-0.00177124 -0.0122361 0)
(-0.00311913 -0.0114971 0)
(0.00129675 -0.010086 0)
(0.00328249 -0.0122235 0)
(0.00189783 -0.0154998 0)
(0.00206318 -0.0145762 0)
(-0.00163026 -0.0137086 0)
(-0.000220846 -0.014505 0)
(-0.00164378 -0.0152954 0)
(-0.00226126 -0.0158005 0)
(-0.0011658 -0.0159728 0)
(-0.00140311 -0.0121504 0)
(-0.000463897 -0.0126337 0)
(6.82212e-05 -0.0152375 0)
(0.000546729 -0.0162761 0)
(0.000609532 -0.0181557 0)
(0.000888409 -0.0176586 0)
(0.000555194 -0.0182762 0)
(0.00105924 -0.0188991 0)
(0.000212849 -0.0187297 0)
(-0.00296557 -0.0206404 0)
(-0.00165722 -0.0226727 0)
(-0.00151283 -0.0228177 0)
(-0.000944235 -0.0160444 0)
(0.000246077 -0.0150301 0)
(0.000697623 -0.0193955 0)
(0.00119708 -0.0181417 0)
(0.000134071 -0.0172011 0)
(-0.000636833 -0.0141206 0)
(0.000181775 -0.0119353 0)
(-5.76653e-05 -0.0124823 0)
(0.000537735 -0.0158298 0)
(8.26134e-05 -0.0191372 0)
(0.00142444 -0.0127053 0)
(0.000329249 -0.00951579 0)
(0.000373922 -0.0130531 0)
(-0.000212354 -0.0124811 0)
(-0.000290904 -0.011749 0)
(0.00063243 -0.0111188 0)
(0.00178206 -0.01059 0)
(-0.000206219 -0.0110062 0)
(-0.000180511 -0.0121215 0)
(0.000951256 -0.0120416 0)
(0.00229988 -0.0115245 0)
(0.00275477 -0.0119451 0)
(0.00214183 -0.0125518 0)
(0.00236569 -0.0140595 0)
(0.00191835 -0.0144104 0)
(0.00282946 -0.0127961 0)
(-0.00198408 -0.0132781 0)
(-0.000996001 -0.010489 0)
(-0.00109351 -0.00971375 0)
(0.00212712 -0.0132704 0)
(0.00126517 -0.0145492 0)
(0.00124529 -0.0120875 0)
(0.00106955 -0.00999394 0)
(-0.00236616 -0.0110736 0)
(-0.00258959 -0.0128689 0)
(0.00122988 -0.0143176 0)
(0.00173601 -0.0117558 0)
(-0.00440607 -0.0242981 0)
(-0.0041429 -0.00227861 0)
(-0.00320023 -0.014239 0)
(0.000959832 -0.00569187 0)
(-0.00182091 -0.00747158 0)
(-0.00440692 -0.00791881 0)
(-0.00126266 -0.00865828 0)
(-0.00262752 -0.00756718 0)
(-0.00207421 -0.00844067 0)
(-0.00225704 -0.00828785 0)
(-0.00333821 -0.00945436 0)
(-0.0029669 -0.0100034 0)
(-0.00215323 -0.0101498 0)
(-0.00105108 -0.0117338 0)
(0.000304692 -0.0125257 0)
(0.000308171 -0.0141313 0)
(0.00122548 -0.011359 0)
(0.0017576 -0.00778583 0)
(0.00166739 -0.0133714 0)
(0.00149069 -0.0166205 0)
(-0.000237663 -0.0154542 0)
(-0.00270242 -0.0134924 0)
(-0.000102206 -0.0132411 0)
(-0.000702901 -0.0150282 0)
(-0.00252497 -0.0151068 0)
(0.00150102 -0.0149382 0)
(0.00169504 -0.0144035 0)
(-0.00118974 -0.0156569 0)
(-0.00092544 -0.0126756 0)
(-0.000750236 -0.0131078 0)
(-2.906e-05 -0.0167029 0)
(0.000282689 -0.0161442 0)
(0.000485704 -0.0169068 0)
(-0.000716681 -0.016559 0)
(-0.000672468 -0.0168415 0)
(0.000181733 -0.0172193 0)
(-0.000254774 -0.0186243 0)
(0.00117591 -0.0194699 0)
(0.00096309 -0.0171651 0)
(-0.00237555 -0.0154207 0)
(-0.00066765 -0.0165675 0)
(-0.000337065 -0.0152864 0)
(-0.000289732 -0.0116957 0)
(0.0028864 -0.00971483 0)
(-0.00119564 -0.0106264 0)
(-0.000704579 -0.0112137 0)
(-0.00232691 -0.0141559 0)
(-0.000922678 -0.0133601 0)
(0.00204011 -0.00970339 0)
(-0.00132322 -0.0105897 0)
(-0.000671866 -0.0109253 0)
(-0.00106467 -0.0106399 0)
(-0.000596714 -0.0109188 0)
(9.81732e-05 -0.0113259 0)
(-4.478e-05 -0.0112089 0)
(0.000930825 -0.0115047 0)
(-0.000140762 -0.013109 0)
(-0.000965751 -0.0127542 0)
(0.00345959 -0.012317 0)
(0.00304343 -0.0132496 0)
(0.00354169 -0.0140842 0)
(0.00230639 -0.0150072 0)
(0.00147117 -0.0131512 0)
(0.00183449 -0.0130006 0)
(0.00130138 -0.0137391 0)
(0.0017613 -0.0127707 0)
(-0.00226757 -0.0114225 0)
(0.000671775 -0.0118313 0)
(9.53625e-05 -0.0152757 0)
(0.000195085 -0.0152787 0)
(-0.000372515 -0.0130126 0)
(-0.000625141 -0.0142128 0)
(0.00132361 -0.0108033 0)
(0.00172251 -0.00982835 0)
(0.00111881 -0.013246 0)
(0.00240363 -0.0314478 0)
(-0.00235033 -0.00677283 0)
(-0.00353504 -0.0162314 0)
(-0.00220676 -0.00947911 0)
(-0.00439049 -0.011534 0)
(-0.00108095 -0.00865183 0)
(-0.00197132 -0.0105062 0)
(-0.00367039 -0.0120465 0)
(-0.00292189 -0.0109043 0)
(-0.00253686 -0.0113305 0)
(-0.00132095 -0.0130469 0)
(-0.000853137 -0.0137955 0)
(-0.000110876 -0.0144681 0)
(-0.000529912 -0.0151117 0)
(0.00056337 -0.0153547 0)
(4.78214e-05 -0.0146134 0)
(0.00208283 -0.0116664 0)
(0.00249373 -0.00946217 0)
(-0.001331 -0.0116613 0)
(6.52918e-05 -0.0144597 0)
(-0.000523387 -0.0144853 0)
(-0.00105561 -0.0104089 0)
(-0.0012804 -0.0107888 0)
(-0.00051715 -0.0171054 0)
(-0.000494413 -0.0135148 0)
(-6.0752e-05 -0.0122155 0)
(-0.000274742 -0.0146602 0)
(0.00126614 -0.0138979 0)
(0.00229826 -0.0129083 0)
(-0.000529601 -0.0131324 0)
(0.000443982 -0.0138749 0)
(-0.000445964 -0.0138223 0)
(0.0007862 -0.0146259 0)
(-0.000968844 -0.0137803 0)
(0.000213476 -0.012496 0)
(-0.000772617 -0.0126503 0)
(-0.000416192 -0.0126605 0)
(-0.000713046 -0.011052 0)
(-0.000159553 -0.0107191 0)
(-0.00114461 -0.010005 0)
(-0.00166912 -0.00951086 0)
(-0.000751086 -0.00942945 0)
(-0.000160722 -0.0042691 0)
(-0.000932436 -0.0044587 0)
(-0.00072536 -0.00712949 0)
(-0.000832468 -0.00680179 0)
(-0.00119615 -0.0111168 0)
(0.000625871 -0.0107608 0)
(-0.000196059 -0.00877062 0)
(-0.00144473 -0.00854977 0)
(-0.00125181 -0.00841921 0)
(-0.000532714 -0.009004 0)
(-0.000446459 -0.0085521 0)
(-0.0013187 -0.00863221 0)
(0.000120745 -0.00907367 0)
(0.00296449 -0.0100414 0)
(0.00194026 -0.013327 0)
(0.00162024 -0.0110145 0)
(0.00252959 -0.012464 0)
(0.00249431 -0.0168655 0)
(0.00157461 -0.0156147 0)
(0.00187135 -0.0153871 0)
(0.00175643 -0.0142668 0)
(0.00191771 -0.0127234 0)
(0.000739321 -0.0130601 0)
(0.00149006 -0.014228 0)
(0.000787776 -0.0112323 0)
(0.0010518 -0.0125391 0)
(8.25708e-05 -0.0171091 0)
(-0.000349623 -0.015973 0)
(-0.000293208 -0.015681 0)
(-0.00201501 -0.0148015 0)
(0.00335392 -0.0140245 0)
(-0.00127952 -0.0162405 0)
(-3.38815e-05 -0.0151359 0)
(0.00341693 -0.0212023 0)
(-0.00198081 -0.00321771 0)
(-0.00240121 -0.0141095 0)
(-0.00163475 -0.00866929 0)
(-0.00219794 -0.00828862 0)
(-0.00178325 -0.00766552 0)
(-0.00271985 -0.0152346 0)
(-0.00158539 -0.014427 0)
(-0.00138872 -0.0147284 0)
(-0.00137166 -0.0144614 0)
(-0.000285689 -0.0146161 0)
(-0.000211113 -0.0153123 0)
(-0.00139435 -0.0150354 0)
(-0.00133761 -0.0155791 0)
(0.000805879 -0.015839 0)
(0.000753944 -0.0147221 0)
(0.0015525 -0.00897201 0)
(0.00119085 -0.00976383 0)
(-0.000641369 -0.0128439 0)
(-0.000350506 -0.0123135 0)
(5.83332e-05 -0.0132121 0)
(0.000229195 -0.0120436 0)
(-0.00233632 -0.011758 0)
(-0.00108612 -0.0126503 0)
(0.0013762 -0.0135022 0)
(-0.000718573 -0.0132204 0)
(-0.001684 -0.0118368 0)
(0.00068668 -0.0111044 0)
(0.000764761 -0.0122144 0)
(-0.00077549 -0.012169 0)
(0.000857136 -0.0133436 0)
(-1.70014e-06 -0.0117463 0)
(-3.45581e-06 -0.0116301 0)
(-0.000566691 -0.0103657 0)
(-0.00120824 -0.00966043 0)
(-0.000628146 -0.0109418 0)
(-0.0014245 -0.0109441 0)
(-0.00173787 -0.0114148 0)
(-0.00208357 -0.0100043 0)
(-0.00107411 -0.0102996 0)