/*--------------------------------*- C++ -*----------------------------------*\
  =========                 |
  \\      /  F ield         | OpenFOAM: The Open Source CFD Toolbox
   \\    /   O peration     | Website:  https://openfoam.org
    \\  /    A nd           | Version:  12
     \\/     M anipulation  |
\*---------------------------------------------------------------------------*/
FoamFile
{
    format      ascii;
    class       volVectorField;
    location    "0.5";
    object      U.water;
}
// * * * * * * * * * * * * * * * * * * * * * * * * * * * * * * * * * * * * * //

dimensions      [0 1 -1 0 0 0 0];

internalField   nonuniform List<vector> 
3750
(
(0.00733789 -0.0376742 0)
(-0.00412383 -0.00766769 0)
(-0.00689176 -0.0030744 0)
(-0.00712484 0.00279047 0)
(-0.00323724 -0.00387523 0)
(0.00112477 0.00395617 0)
(0.00120089 0.00335168 0)
(0.00213828 0.00387222 0)
(0.000383192 0.00515435 0)
(0.00176498 0.012764 0)
(-0.00157602 0.0151055 0)
(-0.00238303 0.0115434 0)
(-8.51753e-05 0.0132553 0)
(0.000962772 0.0115306 0)
(-0.00113787 0.00848308 0)
(0.000530794 0.00865029 0)
(-0.000569641 0.0105925 0)
(0.000503492 0.0109369 0)
(-7.21878e-05 0.012042 0)
(0.000571171 0.0115307 0)
(0.000627894 0.0123762 0)
(0.000249328 0.0120843 0)
(0.000430881 0.0106203 0)
(-0.000306194 0.0111105 0)
(-0.00226723 0.0121824 0)
(0.0011779 0.0130868 0)
(-0.000351828 0.0123951 0)
(0.000361033 0.0127607 0)
(0.00102694 0.0120769 0)
(0.00139276 0.00883819 0)
(0.00253249 0.0146198 0)
(-0.000848604 0.015057 0)
(-0.0010786 0.00943541 0)
(2.29403e-05 0.0107803 0)
(-0.000358995 0.0119373 0)
(-0.000492296 0.0133887 0)
(-0.00100676 0.0142616 0)
(-0.000587975 0.0132324 0)
(-0.00113854 0.0139374 0)
(-0.00118651 0.013714 0)
(-0.000134974 0.0150156 0)
(0.000339404 0.0165035 0)
(-0.000969011 0.0187236 0)
(-0.000153131 0.020451 0)
(0.000889772 0.0222778 0)
(0.000342547 0.0211834 0)
(0.00138219 0.0200078 0)
(0.00208349 0.016336 0)
(0.00209274 0.014083 0)
(0.00102192 0.0114773 0)
(0.000496071 0.0109286 0)
(-0.000236913 0.0117657 0)
(-0.000757751 0.0118719 0)
(-0.0001175 0.010785 0)
(0.000647344 0.0107224 0)
(0.0012478 0.0114018 0)
(0.000564981 0.0116748 0)
(6.93015e-05 0.0105829 0)
(0.000177172 0.0106981 0)
(0.0013987 0.0108287 0)
(0.00273194 0.0162717 0)
(-0.000838074 0.015742 0)
(0.000512468 0.00886903 0)
(-0.000410858 0.0082631 0)
(-3.18898e-05 0.00652799 0)
(5.79066e-05 0.0105582 0)
(-0.00396948 0.010766 0)
(-0.00222078 0.00715446 0)
(-0.00120789 0.00857505 0)
(0.000110362 0.0103609 0)
(-0.000619919 0.0116877 0)
(0.000237471 0.0116434 0)
(-8.50575e-05 0.00918857 0)
(-0.0016368 0.00796945 0)
(-0.000110232 0.00816708 0)
(0.00972094 -0.0244291 0)
(-0.00457697 -0.000252718 0)
(-0.00648547 -0.0096601 0)
(-0.00933769 -0.0050688 0)
(-0.00632625 -0.00802793 0)
(-0.000755251 -0.00300315 0)
(-0.00301545 -0.00638431 0)
(0.00163272 -0.00370276 0)
(0.00188744 -0.000941055 0)
(-0.000567157 0.00532384 0)
(-0.00346941 0.00625215 0)
(-0.00082384 0.0096753 0)
(0.00193112 0.0117183 0)
(0.000157405 0.00383488 0)
(-0.000785571 -0.00185913 0)
(-0.000883576 -0.000191179 0)
(-0.00408216 0.0015001 0)
(-0.00141276 0.00471587 0)
(0.000136621 0.00494483 0)
(0.000234236 0.00430445 0)
(0.0018437 0.00450201 0)
(0.000995141 0.00569694 0)
(0.00288778 0.0045459 0)
(-6.11257e-05 0.0016192 0)
(0.000678113 0.00396295 0)
(-0.00034108 0.000856233 0)
(-0.00164948 -0.00253239 0)
(-0.00250422 0.000100744 0)
(0.00195755 0.0017661 0)
(0.00155653 -0.000513665 0)
(0.00134517 0.00233566 0)
(-0.00211223 0.00213454 0)
(-0.00179836 0.00292525 0)
(-0.00179841 0.00276569 0)
(-0.0013888 0.00221246 0)
(-0.000291778 0.002712 0)
(0.00075135 0.00124389 0)
(0.00208803 0.00183111 0)
(0.00106965 0.000173985 0)
(-0.000672284 0.00063965 0)
(-0.00194747 0.00190068 0)
(-0.00246348 0.00381174 0)
(-0.00483277 0.00818471 0)
(-0.00330678 0.0114457 0)
(-0.00195373 0.0131158 0)
(0.000580468 0.0160843 0)
(0.00335217 0.0156929 0)
(0.00490887 0.0138525 0)
(0.00477172 0.0103521 0)
(0.0019094 0.00837383 0)
(0.000161734 0.00633867 0)
(7.10248e-05 0.00632279 0)
(0.00037829 0.006846 0)
(0.000288239 0.00691623 0)
(0.000348564 0.00620463 0)
(-3.51346e-05 0.007771 0)
(-0.00215274 0.00890761 0)
(-0.00259134 0.0106171 0)
(-0.00137021 0.011701 0)
(-0.000416776 0.0119572 0)
(0.00181189 0.0128284 0)
(-0.00334657 0.0136664 0)
(0.00122541 0.0103649 0)
(0.0014164 0.00829068 0)
(0.00190526 0.00647302 0)
(0.003192 0.00450007 0)
(-0.000639536 0.00241763 0)
(-0.000339936 -0.00024697 0)
(-0.000470705 -0.00141098 0)
(-0.00149249 -1.01173e-05 0)
(-0.00195245 0.00449172 0)
(-0.0021941 0.00625899 0)
(-0.00122306 0.000948798 0)
(-0.00129665 0.000609733 0)
(-0.000913063 -0.0014815 0)
(0.00260379 -0.0235392 0)
(-0.00467697 -0.00622772 0)
(-0.00598623 -0.00913129 0)
(-0.00592933 -0.00880415 0)
(-0.00246989 -0.00492213 0)
(-0.00351885 -0.00419081 0)
(-0.00191427 -0.00576785 0)
(-0.00075815 -0.00273675 0)
(0.000556285 -0.0103496 0)
(-0.0011779 -0.00910464 0)
(-0.00230291 -0.00542774 0)
(0.00176384 -0.00494069 0)
(-0.00018053 -0.00880285 0)
(-0.00146964 -0.013406 0)
(0.00067829 -0.0127247 0)
(-0.000878308 -0.0126304 0)
(-0.00250291 -0.00828418 0)
(-0.00487688 -0.00657805 0)
(-0.000428229 -0.0124989 0)
(-0.00108242 -0.0158127 0)
(0.00151243 -0.0142355 0)
(0.00231022 -0.0116332 0)
(0.00401318 -0.012546 0)
(0.00411569 -0.0106301 0)
(0.00497786 -0.00800557 0)
(-0.00180666 -0.0139084 0)
(-0.00228377 -0.0166426 0)
(-0.00229365 -0.0117019 0)
(2.20222e-05 -0.0107434 0)
(0.00013777 -0.0139481 0)
(0.000257425 -0.0112284 0)
(-2.50269e-06 -0.0100355 0)
(-0.00122496 -0.0104593 0)
(-0.00126086 -0.0114901 0)
(-0.000599625 -0.0103636 0)
(-0.000859295 -0.00802801 0)
(-0.000133075 -0.00606586 0)
(-0.000329759 -0.00553028 0)
(-0.000554274 -0.00377765 0)
(-0.00223484 -0.00219649 0)
(-0.00474943 -0.00163256 0)
(-0.00496375 -0.000639013 0)
(-0.00589664 0.00110099 0)
(-0.00476743 0.00202879 0)
(-0.00459999 0.00286666 0)
(-0.0012664 0.00635663 0)
(0.00322396 0.00539305 0)
(0.00663855 0.003043 0)
(0.00635091 0.00184869 0)
(0.00438263 0.000213589 0)
(-0.000220297 0.000247159 0)
(0.00140197 -0.000859094 0)
(-0.0024471 -0.00227744 0)
(0.000924659 -0.00333821 0)
(0.000184521 -0.00331174 0)
(-0.00112856 -0.00614167 0)
(-0.00116868 -0.00556862 0)
(-0.000231368 -0.00519417 0)
(0.000312432 -0.00617973 0)
(0.0018165 -0.00582464 0)
(0.0036018 -0.00551581 0)
(0.0020293 -0.00268663 0)
(0.0019876 -0.00325304 0)
(0.0017452 -0.00758967 0)
(0.00107684 -0.00682172 0)
(0.00298173 -0.00619675 0)
(0.00134512 -0.0066239 0)
(0.000139989 -0.00704903 0)
(-0.00230876 -0.00709728 0)
(-0.00171969 -0.00672997 0)
(-0.00105385 -0.00604534 0)
(-0.00279956 -0.00628753 0)
(-0.00221348 -0.00933459 0)
(-0.00105206 -0.0091379 0)
(-0.00162813 -0.00876032 0)
(0.0026754 -0.026919 0)
(-0.00521804 -0.00716912 0)
(-0.00955775 -0.012705 0)
(-0.00353571 -0.00845107 0)
(-0.00167738 -0.00967088 0)
(-0.00524017 -0.00689417 0)
(0.000102664 -0.00539123 0)
(-0.000379919 -0.00434591 0)
(0.000454662 -0.00740597 0)
(0.0032813 -0.00786405 0)
(0.00230887 -0.00655114 0)
(-0.000660877 -0.00743377 0)
(-0.00334108 -0.0125791 0)
(-0.00274313 -0.0145144 0)
(-0.00251228 -0.0155854 0)
(-0.00118789 -0.0173697 0)
(0.00273729 -0.018203 0)
(0.000260802 -0.0156108 0)
(-0.000523988 -0.0185327 0)
(-0.00183891 -0.023917 0)
(-0.000338771 -0.0218458 0)
(0.00356469 -0.0207342 0)
(0.000353459 -0.020718 0)
(0.00273432 -0.0172929 0)
(-4.21206e-05 -0.0138901 0)
(-0.00029852 -0.0141542 0)
(-0.000887274 -0.0152603 0)
(-0.00109927 -0.0115003 0)
(-0.00110878 -0.0117415 0)
(-6.04449e-05 -0.0157088 0)
(-0.000129286 -0.0148227 0)
(-0.00175643 -0.0156149 0)
(-0.00299322 -0.0142346 0)
(-0.0029974 -0.0112635 0)
(-0.00352808 -0.0104475 0)
(-0.00311256 -0.00924516 0)
(-0.00309251 -0.00801529 0)
(-0.00216135 -0.00796693 0)
(-0.00177673 -0.00722108 0)
(-0.00271443 -0.0080413 0)
(-0.0035982 -0.0063404 0)
(-0.00457666 -0.00701023 0)
(-0.00579132 -0.00571526 0)
(-0.00635206 -0.00515564 0)
(-0.0035884 -0.00861014 0)
(0.000415881 -0.00479239 0)
(0.00420633 -0.0051567 0)
(0.00446159 -0.00906565 0)
(0.00890568 -0.00919614 0)
(0.005455 -0.0102555 0)
(0.00367481 -0.00658966 0)
(0.000342068 -0.0076608 0)
(0.00237539 -0.00899102 0)
(0.00224335 -0.00948542 0)
(0.00195983 -0.0149397 0)
(-0.000605803 -0.014674 0)
(-0.00104925 -0.0149039 0)
(-0.00332686 -0.0129595 0)
(-0.00410752 -0.010693 0)
(5.92802e-05 -0.00900598 0)
(0.00119538 -0.0091977 0)
(0.00204516 -0.00756458 0)
(0.00141768 -0.00753948 0)
(0.00136576 -0.0105028 0)
(0.0015193 -0.00989308 0)
(0.0020792 -0.00945721 0)
(0.000496125 -0.00924053 0)
(0.00073159 -0.00817392 0)
(0.00104358 -0.00820437 0)
(0.000172376 -0.0102626 0)
(-0.00124083 -0.0134072 0)
(-0.0015957 -0.0145116 0)
(-0.00194543 -0.0150361 0)
(-0.000552108 -0.0133838 0)
(0.000216289 -0.0100468 0)
(-0.00138693 -0.0279302 0)
(-0.00729841 -0.00727388 0)
(-0.0109076 -0.01298 0)
(-0.00558909 -0.00701343 0)
(-0.00386259 -0.0122973 0)
(-0.00399747 -0.00957527 0)
(-0.00287498 -0.0090555 0)
(-0.00473382 -0.00698117 0)
(-0.0024999 -0.00527514 0)
(0.00169089 -0.000611259 0)
(0.00271377 0.00186317 0)
(0.00261097 0.00264509 0)
(0.00192803 0.00181819 0)
(0.00137532 -5.29785e-05 0)
(0.000713819 -0.00263357 0)
(0.000235799 -0.00653041 0)
(0.00342365 -0.0102385 0)
(0.00357062 -0.0111286 0)
(-0.000988621 -0.0120117 0)
(-0.0011074 -0.0102096 0)
(-0.00148466 -0.0057675 0)
(-0.00193606 -0.011365 0)
(-0.00112222 -0.0153039 0)
(-3.97177e-05 -0.0115627 0)
(0.000143668 -0.00898358 0)
(-0.000619124 -0.00958888 0)
(-0.000739412 -0.0118354 0)
(0.000358266 -0.00762013 0)
(-0.00178008 -0.0083024 0)
(-0.000846751 -0.0128886 0)
(-0.00176007 -0.0126174 0)
(-0.00236214 -0.0124792 0)
(-0.00188549 -0.00956684 0)
(-0.00380076 -0.00951589 0)
(-0.00464428 -0.00919199 0)
(-0.00304907 -0.00866714 0)
(-0.00213742 -0.00925988 0)
(-0.000304266 -0.0103467 0)
(-0.000819368 -0.0114727 0)
(-0.00197746 -0.0107879 0)
(-0.00535893 -0.00991795 0)
(-0.00528504 -0.00978947 0)
(-0.00449152 -0.0109856 0)
(-0.00585001 -0.0124283 0)
(-0.000320069 -0.0136851 0)
(0.004715 -0.0141124 0)
(0.00445999 -0.016595 0)
(0.00481676 -0.0121802 0)
(0.00650802 -0.0117896 0)
(0.00366148 -0.0139237 0)
(0.00359977 -0.00990195 0)
(-0.000141281 -0.00671456 0)
(0.00294711 -0.00517414 0)
(-0.000445515 -0.00858372 0)
(0.000561401 -0.00962136 0)
(-0.000743028 -0.0112558 0)
(-0.00195179 -0.0118295 0)
(-0.00171905 -0.0130186 0)
(-0.000805646 -0.00912133 0)
(0.000147301 -0.0109294 0)
(0.00201353 -0.0176258 0)
(0.00272116 -0.0156116 0)
(0.00101624 -0.0142994 0)
(0.00126273 -0.016883 0)
(0.00114996 -0.0153222 0)
(0.0007518 -0.0135302 0)
(0.000565392 -0.0120467 0)
(-0.00102782 -0.0109266 0)
(0.00241261 -0.0122278 0)
(-0.000552835 -0.013765 0)
(-0.00211425 -0.0132628 0)
(-0.000497901 -0.0143908 0)
(0.000360515 -0.0167007 0)
(0.00174497 -0.0174337 0)
(0.00208725 -0.0158359 0)
(5.33345e-05 -0.0269433 0)
(-0.00746122 -0.00642248 0)
(-0.00813458 -0.0153783 0)
(-0.00603673 -0.00744469 0)
(-0.00416328 -0.0132633 0)
(-0.0035844 -0.0103263 0)
(-0.00469239 -0.0114298 0)
(-0.00484553 -0.011999 0)
(-0.00322192 -0.010934 0)
(-0.00238816 -0.0104809 0)
(-0.00336766 -0.00857994 0)
(0.0013721 -0.00726374 0)
(0.00245891 -0.00940498 0)
(0.00371078 -0.00939067 0)
(0.00801934 -0.0105057 0)
(0.0064687 -0.00845041 0)
(0.00427015 -0.00994864 0)
(0.00244797 -0.0134581 0)
(0.00154075 -0.0130086 0)
(0.0013585 -0.0121357 0)
(0.000406563 -0.0105184 0)
(-0.00469575 -0.0103512 0)
(-0.00113874 -0.0112467 0)
(0.000843156 -0.0105506 0)
(0.000985296 -0.00903639 0)
(-7.29624e-05 -0.00879952 0)
(0.00034113 -0.00744049 0)
(0.00178199 -0.00668923 0)
(-0.00315119 -0.00735075 0)
(-0.00153855 -0.00807625 0)
(-0.00102964 -0.00910439 0)
(-0.00293078 -0.00915198 0)
(-0.00351151 -0.0087165 0)
(-0.00456426 -0.00961317 0)
(-0.00548662 -0.00824239 0)
(-0.000850573 -0.00859644 0)
(-0.000822932 -0.00887232 0)
(-0.001439 -0.00856718 0)
(-0.00135027 -0.00922563 0)
(-0.0021406 -0.0108854 0)
(-0.00308517 -0.00974386 0)
(-0.00423961 -0.0108304 0)
(-0.00371254 -0.0157294 0)
(-0.00333266 -0.0187717 0)
(4.86938e-05 -0.0204944 0)
(0.00321366 -0.0202469 0)
(0.00495642 -0.0195893 0)
(0.00564119 -0.0181312 0)
(0.00120058 -0.015927 0)
(0.00272701 -0.0167704 0)
(0.00187853 -0.0173102 0)
(0.00224967 -0.0163426 0)
(3.07332e-06 -0.0162717 0)
(-0.000958024 -0.0156091 0)
(-0.000740008 -0.0152929 0)
(-0.0010799 -0.0150649 0)
(-0.000344376 -0.0149213 0)
(0.00268914 -0.0150607 0)
(0.00280551 -0.0142547 0)
(-0.00242146 -0.0131257 0)
(0.00238709 -0.0149991 0)
(0.00410297 -0.0162238 0)
(-2.08607e-05 -0.0154662 0)
(-0.00036977 -0.0156886 0)
(-0.000670934 -0.0160393 0)
(0.000165528 -0.0157997 0)
(0.000652137 -0.016419 0)
(0.00167657 -0.0118109 0)
(0.000762713 -0.0127158 0)
(0.00135969 -0.0187117 0)
(0.00107407 -0.0176999 0)
(0.00202589 -0.0171397 0)
(0.00106534 -0.0193372 0)
(0.000381366 -0.0176838 0)
(0.00131072 -0.0167469 0)
(0.00313549 -0.0374371 0)
(-0.0123628 -0.00927714 0)
(-0.00758738 -0.0154937 0)
(-0.00862232 -0.00887523 0)
(-0.00553962 -0.0150113 0)
(-0.00374888 -0.0154161 0)
(-0.00258455 -0.0173831 0)
(-0.00152557 -0.0183318 0)
(-0.00202167 -0.0195273 0)
(-0.00170855 -0.0178288 0)
(-0.000527599 -0.0125148 0)
(0.00228864 -0.0130459 0)
(0.00274985 -0.0172364 0)
(0.00377477 -0.0121071 0)
(0.00511759 -0.0107264 0)
(0.00365379 -0.0130101 0)
(0.0022335 -0.011252 0)
(0.000934117 -0.0105623 0)
(0.00052365 -0.0112359 0)
(-0.000868237 -0.00994819 0)
(-0.00331337 -0.00891794 0)
(-0.00590877 -0.00920631 0)
(-0.00313762 -0.00813325 0)
(-0.0011948 -0.00819655 0)
(0.000645959 -0.00818759 0)
(-0.00253391 -0.00734589 0)
(0.000634486 -0.0058596 0)
(0.000421326 -0.00611239 0)
(-0.000740779 -0.00629912 0)
(0.00104215 -0.00550366 0)
(0.000661779 -0.00745377 0)
(-0.0019365 -0.00748951 0)
(-0.00401178 -0.00624373 0)
(-0.00481919 -0.00881175 0)
(-0.00442095 -0.00384871 0)
(-0.00406417 -0.00385675 0)
(-0.00178754 -0.00905991 0)
(-0.00421532 -0.00865084 0)
(-7.11763e-05 -0.0089573 0)
(-6.54598e-05 -0.0103526 0)
(-0.000864105 -0.0104604 0)
(-0.00128428 -0.0105412 0)
(-0.00161563 -0.0122581 0)
(0.000186033 -0.0140044 0)
(0.00132835 -0.0164689 0)
(0.00295839 -0.01666 0)
(0.00325971 -0.0174894 0)
(0.00444724 -0.0168569 0)
(0.00155958 -0.0160167 0)
(0.00228199 -0.0148089 0)
(0.00295606 -0.014187 0)
(0.00226053 -0.0139169 0)
(0.00120712 -0.0136007 0)
(-0.000811679 -0.0122774 0)
(-0.00018403 -0.0113078 0)
(-0.00203213 -0.0128825 0)
(-0.00312372 -0.0119457 0)
(0.00155999 -0.012909 0)
(0.000866845 -0.0157138 0)
(1.14987e-05 -0.0109286 0)
(0.00134983 -0.0098808 0)
(0.00208001 -0.0156651 0)
(0.000859208 -0.0161948 0)
(-0.000632305 -0.0149886 0)
(-0.000527281 -0.013907 0)
(0.00039807 -0.013192 0)
(0.00195573 -0.0129373 0)
(0.00358416 -0.0125212 0)
(-0.000337824 -0.0131798 0)
(0.000195667 -0.0146361 0)
(0.00068615 -0.0133206 0)
(-0.000561428 -0.0128603 0)
(0.000235824 -0.0144858 0)
(0.0010735 -0.0134898 0)
(0.000287821 -0.0126028 0)
(-0.00666939 -0.028225 0)
(-0.0148988 -0.0082182 0)
(-0.00762389 -0.0154117 0)
(-0.00481832 -0.0135666 0)
(-0.00062365 -0.0186903 0)
(-0.00159392 -0.0201723 0)
(-0.00256781 -0.0229518 0)
(-0.00442438 -0.0233428 0)
(-0.00423355 -0.0220705 0)
(-0.00385244 -0.0210225 0)
(-0.00189455 -0.0167154 0)
(0.000491441 -0.0149426 0)
(0.00148979 -0.0159896 0)
(0.00291592 -0.0115603 0)
(0.00307276 -0.0108215 0)
(0.00269687 -0.00906422 0)
(0.00295877 -0.00782847 0)
(0.00102451 -0.0105823 0)
(0.000460868 -0.0101069 0)
(0.000797104 -0.0119276 0)
(-0.0016061 -0.012738 0)
(-0.00106941 -0.010022 0)
(-0.00159045 -0.00697514 0)
(-0.000898583 -0.00743619 0)
(-0.00103017 -0.0116644 0)
(-0.00161209 -0.0097955 0)
(-0.00224263 -0.00583818 0)
(-0.00214776 -0.00892361 0)
(-0.00164938 -0.00868776 0)
(-0.00187703 -0.00638001 0)
(-0.00300633 -0.00631 0)
(-0.00240144 -0.00566204 0)
(-0.00475151 -0.00545002 0)
(-0.0031079 -0.00775371 0)
(-0.00105261 -0.00899128 0)
(-0.00320305 -0.0093373 0)
(-0.00120411 -0.0122451 0)
(0.000607976 -0.0101485 0)
(0.000407348 -0.00940764 0)
(-0.000223079 -0.016199 0)
(0.000420868 -0.0140194 0)
(-0.00236673 -0.0123406 0)
(-0.00187464 -0.0129541 0)
(0.00123044 -0.0117611 0)
(0.00365417 -0.0120228 0)
(0.00423586 -0.0126646 0)
(0.00444433 -0.011605 0)
(0.00385209 -0.0118055 0)
(0.00105087 -0.0128962 0)
(0.00235501 -0.0131328 0)
(0.00163556 -0.0153667 0)
(0.00113387 -0.0138042 0)
(-0.000411123 -0.0121171 0)
(0.000625346 -0.0111614 0)
(-0.000364252 -0.011728 0)
(1.41143e-05 -0.0143432 0)
(-9.6213e-06 -0.0111616 0)
(-0.000123617 -0.0129742 0)
(0.00227455 -0.0192582 0)
(0.00454065 -0.0161883 0)
(0.00117544 -0.0136697 0)
(-0.000306205 -0.0157508 0)
(-0.000984285 -0.0164685 0)
(-0.00080544 -0.0156789 0)
(-0.000791039 -0.0138612 0)
(-0.000921698 -0.0121901 0)
(0.000937579 -0.0128549 0)
(0.000998964 -0.0121887 0)
(0.00103812 -0.0114751 0)
(0.00103259 -0.0121747 0)
(0.00110868 -0.0127776 0)
(0.00115285 -0.0117727 0)
(0.00173524 -0.0109194 0)
(0.00114444 -0.0110419 0)
(0.000206967 -0.0113044 0)
(-0.00556824 -0.0251819 0)
(-0.0087499 -0.000522331 0)
(-0.00552373 -0.0115604 0)
(-0.00153633 -0.00993407 0)
(-0.0020777 -0.0186157 0)
(-0.00119716 -0.0213112 0)
(-0.00257949 -0.0207916 0)
(-0.00190319 -0.0214174 0)
(-0.00340687 -0.0233503 0)
(-0.00393991 -0.0231306 0)
(-0.00240267 -0.0181458 0)
(-0.00342278 -0.0182421 0)
(0.00164407 -0.0210929 0)
(0.00274984 -0.0147042 0)
(0.00179433 -0.0132454 0)
(0.00155871 -0.0133088 0)
(-0.000672889 -0.0123192 0)
(-5.38941e-05 -0.0132733 0)
(-0.000114847 -0.011629 0)
(-4.60824e-05 -0.0114344 0)
(-0.000327178 -0.00824935 0)
(0.00183367 -0.00528339 0)
(-0.00147147 -0.00244513 0)
(-0.00331223 -0.00138004 0)
(-0.00487782 -0.00176764 0)
(-0.00255233 -0.000952423 0)
(-0.00518012 0.00108328 0)
(-0.00343746 0.000825728 0)
(-0.00188462 -0.000348702 0)
(-0.00244721 -0.00145514 0)
(-5.79499e-05 -0.00453281 0)
(0.000462208 -0.00900902 0)
(0.000219272 -0.012104 0)
(0.000164091 -0.0118479 0)
(-0.000497765 -0.0125695 0)
(0.000212866 -0.0136777 0)
(-0.00100453 -0.013207 0)
(0.00138018 -0.0116998 0)
(-0.00290533 -0.0115383 0)
(-0.00154324 -0.0108639 0)
(0.00158831 -0.0148947 0)
(-0.000229256 -0.0187217 0)
(-0.000646585 -0.0183574 0)
(-0.000574041 -0.0195663 0)
(0.00104048 -0.0194236 0)
(0.00163694 -0.0161408 0)
(0.00688295 -0.0136454 0)
(0.00520901 -0.0133858 0)
(0.00432262 -0.0102816 0)
(0.00238723 -0.0087955 0)
(0.00158284 -0.0128623 0)
(0.00081839 -0.0140697 0)
(-0.000404617 -0.0143742 0)
(-0.000183074 -0.0133205 0)
(-0.000662273 -0.0123503 0)
(8.33239e-05 -0.0122241 0)
(0.00214943 -0.0108039 0)
(-0.000964949 -0.0112945 0)
(0.00044218 -0.0142411 0)
(0.0014745 -0.0141144 0)
(-0.000168586 -0.0130498 0)
(-0.000886592 -0.0139748 0)
(-0.000481139 -0.0131367 0)
(-1.63009e-05 -0.0132418 0)
(-0.000723586 -0.013755 0)
(-0.00201465 -0.0117032 0)
(0.00224163 -0.0114184 0)
(0.00185756 -0.013366 0)
(0.00161271 -0.0130859 0)
(-4.11753e-06 -0.0130331 0)
(-0.00133715 -0.0108174 0)
(0.000256228 -0.00920675 0)
(0.0027189 -0.0109908 0)
(1.66063e-05 -0.0116641 0)
(0.000303188 -0.0116427 0)
(0.00175453 -0.0246999 0)
(-0.000485316 -0.0015505 0)
(-0.000635493 -0.00771877 0)
(-0.00190666 -0.0063409 0)
(-0.00503289 -0.0133967 0)
(-0.00249036 -0.0138167 0)
(-0.00506703 -0.0147127 0)
(-0.000725089 -0.0134021 0)
(-0.00244193 -0.0149643 0)
(-0.00199609 -0.0133721 0)
(-0.00202339 -0.0134663 0)
(-0.00369423 -0.0136236 0)
(-0.000858307 -0.0144253 0)
(0.0024754 -0.0131081 0)
(8.88368e-05 -0.0112999 0)
(0.00195587 -0.0123023 0)
(-0.00090446 -0.0118774 0)
(-0.000568649 -0.0129318 0)
(-0.00272844 -0.012513 0)
(-0.00298248 -0.0129734 0)
(-0.00443911 -0.00978768 0)
(-0.00303073 -0.00763502 0)
(-0.00175336 -0.00939884 0)
(-0.00205629 -0.0107623 0)
(-0.0025107 -0.0121094 0)
(-0.00181019 -0.0132738 0)
(-0.00184695 -0.0108003 0)
(-0.00216527 -0.00873097 0)
(-0.00105121 -0.0101223 0)
(-1.82915e-06 -0.00901069 0)
(0.000906625 -0.0116564 0)
(0.000115672 -0.0153929 0)
(-0.000697607 -0.0139056 0)
(-0.0012434 -0.0130168 0)
(-0.0013316 -0.0112303 0)
(-0.00115969 -0.010289 0)
(-0.00102592 -0.0108967 0)
(4.66561e-05 -0.0130376 0)
(-0.000396511 -0.0148088 0)
(6.10231e-05 -0.017188 0)
(-0.00177172 -0.017614 0)
(-2.12869e-05 -0.019484 0)
(0.000881713 -0.0202878 0)
(0.000375811 -0.0210311 0)
(0.000473358 -0.0220746 0)
(0.000940697 -0.0166375 0)
(0.00225403 -0.0146525 0)
(0.0034088 -0.0160403 0)
(0.00478081 -0.0127188 0)
(0.0011245 -0.010584 0)
(-2.48003e-05 -0.0114592 0)
(-0.000712694 -0.0115137 0)
(-0.00168093 -0.0110554 0)
(-0.00259068 -0.00936491 0)
(0.000797502 -0.00908745 0)
(0.000554955 -0.00967475 0)
(0.00105213 -0.00837037 0)
(0.00310076 -0.00892122 0)
(0.00234473 -0.010583 0)
(0.00224688 -0.0108344 0)
(0.00127578 -0.0105132 0)
(0.000482586 -0.0111996 0)
(-0.000650394 -0.0102109 0)
(0.00187985 -0.0108223 0)
(0.00143012 -0.0130918 0)
(0.000121515 -0.0102418 0)
(-0.00071645 -0.0105452 0)
(-0.000812445 -0.0141729 0)
(0.00252357 -0.0139891 0)
(0.0003827 -0.0142359 0)
(0.00099148 -0.0106769 0)
(0.000813169 -0.00676658 0)
(0.000712218 -0.0103419 0)
(0.0017654 -0.0133543 0)
(0.00232181 -0.0109752 0)
(-0.00122711 -0.0256517 0)
(0.00364257 -0.0023591 0)
(-0.000129913 -0.0071278 0)
(-4.76112e-05 -0.00432139 0)
(-0.000667241 -0.00878595 0)
(-0.00270643 -0.00921077 0)
(-0.00379 -0.00707992 0)
(-0.00394957 -0.00578449 0)
(-0.00399962 -0.011166 0)
(-0.0017642 -0.0114424 0)
(-0.00244265 -0.0121735 0)
(-0.00198717 -0.0126521 0)
(-0.00193009 -0.0115709 0)
(0.000371419 -0.0109145 0)
(-0.000552426 -0.00973627 0)
(0.00112709 -0.0080896 0)
(-0.000271751 -0.00846708 0)
(-0.000688704 -0.00808052 0)
(-0.0010662 -0.00828209 0)
(-0.000100066 -0.0103444 0)
(-3.3573e-05 -0.0112327 0)
(-0.00037725 -0.00879314 0)
(-0.000209694 -0.00942027 0)
(-0.00152927 -0.0129185 0)
(-0.0016995 -0.0152714 0)
(-0.00153498 -0.0164945 0)
(-3.46409e-05 -0.0162847 0)
(-0.000871582 -0.0151723 0)
(-0.000730324 -0.0141023 0)
(-0.00218006 -0.0137061 0)
(-0.0040216 -0.013388 0)
(-0.00323088 -0.0145404 0)
(-0.00416264 -0.0156721 0)
(-0.00176394 -0.0153076 0)
(-0.000485153 -0.016344 0)
(-0.000695945 -0.0171024 0)
(0.00108232 -0.0156054 0)
(0.00216158 -0.0149388 0)
(0.00254509 -0.0158044 0)
(0.0011606 -0.01531 0)
(-0.00113451 -0.0160796 0)
(-0.00166102 -0.0147571 0)
(-0.0021082 -0.0131761 0)
(0.00255195 -0.0160656 0)
(0.00264307 -0.0185413 0)
(0.0027311 -0.0158263 0)
(-0.00218677 -0.0126132 0)
(0.00087777 -0.0112617 0)
(0.00306676 -0.0118951 0)
(0.00115611 -0.0130474 0)
(0.00102576 -0.0133897 0)
(0.000463015 -0.014282 0)
(-0.000122739 -0.0145293 0)
(-0.00073972 -0.0100008 0)
(0.000148198 -0.010015 0)
(-0.000878162 -0.0138902 0)
(0.000395599 -0.00952398 0)
(0.000962247 -0.0102427 0)
(0.00177561 -0.0129679 0)
(0.00227291 -0.0114455 0)
(0.001451 -0.0120219 0)
(0.00121537 -0.0139146 0)
(0.000985918 -0.0101477 0)
(0.00136135 -0.00965174 0)
(0.00180601 -0.0142903 0)
(0.00186376 -0.0128882 0)
(-0.0015344 -0.012006 0)
(-0.000573828 -0.00998843 0)
(0.00275325 -0.0101728 0)
(0.0012396 -0.0129974 0)
(0.00265384 -0.00937744 0)
(-0.000134263 -0.0089602 0)
(-0.00275253 -0.0111275 0)
(-0.00121755 -0.0105145 0)
(0.00154542 -0.0120018 0)
(0.00921811 -0.0227929 0)
(0.00228332 0.00103547 0)
(-0.00219346 -0.009946 0)
(-0.00222861 -0.00241621 0)
(-0.000468831 -0.010053 0)
(-0.0022608 -0.00793888 0)
(-0.000912217 -0.00686097 0)
(-0.00464385 -0.0069866 0)
(-0.000896653 -0.00878381 0)
(-0.00125634 -0.00912825 0)
(-0.00174631 -0.0124422 0)
(-0.00194929 -0.0123877 0)
(-0.00162472 -0.0118602 0)
(-0.00183811 -0.0122555 0)
(-0.00206392 -0.0111199 0)
(-0.000730383 -0.0109374 0)
(-0.00110942 -0.0129452 0)
(0.000171092 -0.0137324 0)
(-0.000175564 -0.013822 0)
(0.000682479 -0.0152544 0)
(0.00211971 -0.0133808 0)
(0.000778065 -0.0119379 0)
(-0.00234867 -0.0131299 0)
(-0.00358389 -0.0137616 0)
(-0.00237178 -0.0141347 0)
(-0.00196911 -0.0141624 0)
(0.000109935 -0.0145625 0)
(0.000137686 -0.0145874 0)
(-0.000241504 -0.0163884 0)
(-0.000586346 -0.0169145 0)
(-0.00143532 -0.0160263 0)
(-0.00175481 -0.0172953 0)
(-0.00283782 -0.0171428 0)
(0.00166072 -0.017731 0)
(-0.000858681 -0.0204032 0)
(-0.000825917 -0.0211739 0)
(-0.000162186 -0.0202082 0)
(-0.00128991 -0.0205446 0)
(-0.000538033 -0.0186208 0)
(-0.000336892 -0.0169925 0)
(0.000667099 -0.0175393 0)
(0.000771905 -0.0188894 0)
(-0.000989053 -0.0150017 0)
(0.000257367 -0.016189 0)
(0.00057419 -0.0204988 0)
(0.00147919 -0.0195496 0)
(0.000871609 -0.0140687 0)
(0.000952541 -0.00874379 0)
(0.00164311 -0.0116786 0)
(0.000463592 -0.0129424 0)
(0.000172925 -0.0130848 0)
(-0.00051886 -0.0133294 0)
(-0.000659558 -0.0125863 0)
(-0.000148659 -0.00926529 0)
(0.000202966 -0.00993479 0)
(0.00133816 -0.0121215 0)
(0.00132678 -0.0113508 0)
(-0.000725208 -0.0125826 0)
(0.000914985 -0.013068 0)
(0.00188509 -0.0129525 0)
(0.00148611 -0.0129939 0)
(0.00236189 -0.0140103 0)
(0.00359693 -0.0133399 0)
(0.000129469 -0.0132071 0)
(-0.00104761 -0.0143078 0)
(-0.00175164 -0.012519 0)
(0.000211495 -0.0115099 0)
(0.00142395 -0.0086953 0)
(0.000522993 -0.0114229 0)
(0.000941582 -0.0133871 0)
(0.00124205 -0.0112109 0)
(0.00074889 -0.0117257 0)
(-0.000701653 -0.0140514 0)
(0.00101774 -0.0143048 0)
(0.00269161 -0.0135057 0)
(0.00778794 -0.0296581 0)
(0.000636985 -0.00651166 0)
(-0.000693862 -0.0127085 0)
(-0.00227643 -0.00511853 0)
(-0.00111122 -0.0103781 0)
(-0.00252892 -0.0095979 0)
(-0.00170313 -0.00814392 0)
(-0.000753833 -0.00264779 0)
(-0.00247363 -0.00356592 0)
(-0.000925638 -0.00811183 0)
(-0.00292249 -0.00964766 0)
(-0.00280452 -0.0098023 0)
(-0.0022037 -0.00974942 0)
(-0.00124609 -0.0112552 0)
(-1.81927e-05 -0.0104973 0)
(0.000562799 -0.0110662 0)
(0.00143011 -0.0139791 0)
(0.000795534 -0.0147154 0)
(0.000549652 -0.0150557 0)
(0.000713705 -0.0141765 0)
(0.000364822 -0.0132793 0)
(-0.00124743 -0.0126155 0)
(-0.00177841 -0.0129299 0)
(-0.00172087 -0.0128605 0)
(-0.0015507 -0.0138357 0)
(-0.000946996 -0.0140866 0)
(0.00038979 -0.0144992 0)
(0.000147877 -0.0159839 0)
(-0.00113483 -0.0155486 0)
(-0.000306876 -0.015163 0)
(-0.00119579 -0.0152845 0)
(-0.00119629 -0.0171484 0)
(-0.000955155 -0.0136273 0)
(-0.00190631 -0.0133377 0)
(-0.00196681 -0.0180879 0)
(0.00181989 -0.0167606 0)
(0.00031533 -0.0174364 0)
(0.000761991 -0.0187509 0)
(-0.00051478 -0.0189459 0)
(-0.000442229 -0.0165176 0)
(-0.000151701 -0.0152186 0)
(0.000220171 -0.0150465 0)
(0.00126148 -0.0122304 0)
(-0.00162724 -0.0125234 0)
(4.31786e-05 -0.0154517 0)
(0.00105972 -0.0148679 0)
(0.00364298 -0.0122935 0)
(0.000475625 -0.00889843 0)
(-0.00131736 -0.00930943 0)
(-0.000691364 -0.0116964 0)
(-0.000535146 -0.0112811 0)
(-0.000792432 -0.0117035 0)
(-0.000281387 -0.0132418 0)
(0.00043191 -0.0086406 0)
(-0.000392179 -0.0081045 0)
(0.00109102 -0.0130309 0)
(-0.000381174 -0.0132202 0)
(-0.000711011 -0.0142552 0)
(0.00100843 -0.0142842 0)
(0.00184161 -0.0138751 0)
(0.00256584 -0.0141155 0)
(0.00201327 -0.01427 0)
(0.00175853 -0.0128099 0)
(0.00104263 -0.0136776 0)
(0.00151089 -0.015645 0)
(0.00119349 -0.0119978 0)
(0.000694996 -0.0105137 0)
(0.000623365 -0.0118898 0)
(-0.00222658 -0.014112 0)
(-0.000734489 -0.0153351 0)
(-0.000391993 -0.0122759 0)
(0.00124013 -0.0131872 0)
(-0.000377949 -0.0135715 0)
(0.00376573 -0.0114171 0)
(0.000834056 -0.0131213 0)
(-0.00141406 -0.0330887 0)
(-0.00246174 -0.00930226 0)
(-0.00517932 -0.0160082 0)
(-0.00314128 -0.00828024 0)
(-0.00111869 -0.0130178 0)
(0.000343675 -0.0116084 0)
(-8.41981e-05 -0.00737994 0)
(-0.000393919 -0.00872073 0)
(-0.00404434 -0.00817685 0)
(-0.0033198 -0.00873838 0)
(-0.00226844 -0.0143697 0)
(-0.00103813 -0.0139138 0)
(-0.000463858 -0.0141885 0)
(-0.00106705 -0.0144547 0)
(-2.23766e-06 -0.0133738 0)
(-0.000865749 -0.0127293 0)
(0.000402249 -0.0142212 0)
(0.000781297 -0.0141881 0)
(0.000371552 -0.0129752 0)
(0.000296376 -0.0123262 0)
(6.25673e-05 -0.0109033 0)
(-0.000937945 -0.0109945 0)
(-0.000996137 -0.0119817 0)
(-0.00107414 -0.0130501 0)
(-0.00113813 -0.0131558 0)
(-0.000648154 -0.0129232 0)
(9.68609e-05 -0.0129801 0)
(0.00109276 -0.0146129 0)
(0.000816743 -0.0149272 0)
(0.000979994 -0.0146157 0)
(-0.000157988 -0.0136985 0)
(-0.000934113 -0.0136409 0)
(0.00116671 -0.0130507 0)
(-0.00329895 -0.0123753 0)
(-0.00255026 -0.0112655 0)
(0.000823565 -0.0111766 0)
(-0.000635541 -0.0121213 0)
(-0.000887802 -0.0107344 0)
(-0.000652772 -0.0109455 0)
(5.04427e-05 -0.0100889 0)
(-0.00172683 -0.00909561 0)
(-0.000337468 -0.00908486 0)
(-0.000374592 -0.00712123 0)
(-0.00347035 -0.00661863 0)
(0.00185826 -0.00953752 0)
(0.00180925 -0.00936127 0)
(0.00228956 -0.00967091 0)
(0.00111839 -0.00967192 0)
(-0.00130077 -0.00848967 0)
(-0.000484519 -0.00841274 0)
(-0.000530027 -0.0087273 0)
(0.000237353 -0.00969563 0)
(0.000690933 -0.00930815 0)
(0.00118767 -0.00741373 0)
(-0.000772504 -0.00861988 0)
(0.000628822 -0.0110715 0)
(0.000462573 -0.01253 0)
(1.83193e-05 -0.0143017 0)
(0.00127457 -0.0154793 0)
(0.00165097 -0.0163805 0)
(0.000920707 -0.0150514 0)
(0.00127064 -0.0140129 0)
(0.000980014 -0.0135444 0)
(0.00193125 -0.0131985 0)
(0.00107996 -0.0138351 0)
(0.00241659 -0.013539 0)
(-0.00199737 -0.0124666 0)
(0.00174111 -0.0134592 0)
(-0.000564588 -0.0150136 0)
(-0.00117919 -0.0149007 0)
(0.000399833 -0.0141139 0)
(0.00109066 -0.0171598 0)
(0.000624954 -0.0149241 0)
(0.000268838 -0.0144411 0)
(-5.43015e-05 -0.0162856 0)
(8.47253e-05 -0.021799 0)
(-0.0020048 -0.00580735 0)
(-0.0020312 -0.0132807 0)
(-0.002484 -0.00322036 0)
(-0.00351188 -0.00890275 0)
(0.00116466 -0.010806 0)
(0.0020497 -0.0130089 0)
(-0.00098752 -0.0126581 0)
(0.000122903 -0.0140251 0)
(-0.00409104 -0.0141066 0)
(-0.00359808 -0.0141543 0)
(0.000105432 -0.0144615 0)
(-0.0018086 -0.0149613 0)
(-0.00230185 -0.0152534 0)
(-0.00187477 -0.0138711 0)
(0.000788996 -0.0124799 0)
(7.61217e-05 -0.0122577 0)
(0.000602065 -0.0130151 0)
(0.000323926 -0.0124889 0)
(0.000439318 -0.0110557 0)
(0.000201244 -0.0112601 0)
(-0.00113388 -0.0114945 0)
(-0.000819142 -0.0120777 0)
(-0.000961478 -0.0111802 0)
(-0.00130815 -0.0120912 0)
(0.000661717 -0.0114843 0)
(-0.000488249 -0.0115818 0)
(-0.000262839 -0.0132659 0)
(0.000298744 -0.0131711 0)
(0.00036488 -0.0131581 0)
(-9.20063e-05 -0.0138602 0)
(-0.00115132 -0.0117328 0)
(-0.00199988 -0.010224 0)
(0.000655892 -0.0102868 0)
(-0.00112868 -0.00689342 0)
(-0.00136899 -0.00783902 0)
(-0.00265139 -0.0115645 0)
(-0.0015918 -0.0110038 0)
(-0.00149638 -0.0104098 0)