/*--------------------------------*- C++ -*----------------------------------*\
  =========                 |
  \\      /  F ield         | OpenFOAM: The Open Source CFD Toolbox
   \\    /   O peration     | Website:  https://openfoam.org
    \\  /    A nd           | Version:  12
     \\/     M anipulation  |
\*---------------------------------------------------------------------------*/
FoamFile
{
    format      ascii;
    class       IOPosition;
    location    "0.5/lagrangian/cloud";
    object      positions;
}
// * * * * * * * * * * * * * * * * * * * * * * * * * * * * * * * * * * * * * //

4947
(
(2.11844e-07 0.5 0.5 1.02908e-10) 0 7376 2
(2.12022e-07 0.5 0.5 2.15879e-10) 0 7376 2
(2.1219e-07 0.5 0.000214501 0.499785) 0 7376 2
(2.1235e-07 0.5 0.020661 0.479339) 0 7376 2
(2.12502e-07 0.5 0.0397248 0.460275) 0 7376 2
(0.102803 0.448598 0.00749254 0.441106) 0 7376 2
(2.02349e-07 0.5 0.0619264 0.438074) 0 7376 2
(0.127603 0.436199 0.397175 0.0390238) 0 7375 1
(0.118661 0.440669 0.378225 0.0624447) 0 7375 1
(0.120239 0.43988 0.357763 0.0821173) 0 7375 1
(0.199753 0.400124 0.146751 0.253373) 0 7375 1
(0.266648 0.263448 0.366676 0.103228) 0 7375 2
(0.15844 0.42078 0.214838 0.205942) 0 7375 1
(0.0413214 0.0258904 0.479339 0.453449) 0 7375 2
(0.340843 0.329579 0.11998 0.209598) 1 7377 1
(0.675424 0.162288 0.016966 0.145322) 1 7377 1
(0.00810433 0.495948 0.0232946 0.472653) 1 2 1
(0.101875 0.449062 0.326614 0.122448) 2 4 1
(0.171934 0.414033 0.282039 0.131994) 3 6 1
(0.248295 0.375853 0.29276 0.0830929) 4 8 1
(0.28183 0.140076 0.359085 0.219009) 5 10 2
(0.246979 0.37651 0.189811 0.186699) 7 15 2
(0.342798 0.328601 0.306193 0.0224083) 8 17 2
(0.0775938 0.166409 0.461203 0.294794) 9 18 2
(0.422086 0.0042759 0.288957 0.284681) 10 20 2
(0.444247 0.277877 0.0138361 0.264041) 11 7387 1
(0.514174 0.242913 0.0201894 0.222724) 12 22 1
(0.247157 0.376421 0.0847279 0.291693) 13 24 1
(0.762727 0.118636 0.0281312 0.0905051) 14 29 2
(0.390761 0.304619 0.0506734 0.253946) 15 7391 1
(0.500688 0.249656 0.166022 0.0836339) 17 32 1
(0.353862 0.323069 0.256765 0.0663044) 18 37 2
(0.104235 0.102545 0.447883 0.345338) 19 38 2
(0.47609 0.0394071 0.261955 0.222548) 20 7396 2
(0.324609 0.246978 0.0907174 0.337696) 21 43 1
(0.432601 0.283699 0.0873014 0.196398) 22 45 2
(0.118064 0.292244 0.148724 0.440968) 23 44 2
(0.39897 0.0789485 0.300515 0.221566) 23 7399 2
(0.467535 0.224675 0.266232 0.0415575) 24 7400 2
(0.318731 0.18944 0.340635 0.151195) 25 7401 2
(0.457881 0.27106 0.228054 0.0430054) 27 7403 1
(0.450551 0.274724 0.0484025 0.226322) 28 54 1
(0.0909396 0.45453 0.232885 0.221645) 29 56 1
(0.179779 0.41011 0.277205 0.132905) 29 58 1
(0.0249486 0.487526 0.254692 0.232834) 30 60 1
(0.484387 0.257806 0.109934 0.147873) 32 7408 1
(0.655601 0.113692 0.1722 0.0585072) 33 66 2
(0.312213 0.0274981 0.343893 0.316395) 35 70 2
(0.415728 0.109653 0.182483 0.292136) 37 72 2
(0.182547 0.408727 0.275027 0.133699) 37 74 1
(0.428938 0.0473792 0.285531 0.238152) 38 7414 2
(0.357218 0.310384 0.0110072 0.321391) 41 83 1
(0.146594 0.343135 0.426703 0.0835675) 117 85 1
(0.464862 0.198582 0.267569 0.0689868) 118 87 1
(0.0142652 0.389804 0.103063 0.492867) 44 89 1
(0.66512 0.0370226 0.130417 0.16744) 119 235 2
(0.697367 0.141515 0.151317 0.00980132) 44 7420 2
(0.375687 0.312156 0.226724 0.0854324) 45 88 1
(0.88363 0.0581851 0.0350272 0.023158) 45 90 1
(0.0429363 0.478532 0.1744 0.304132) 45 90 1
(0.0513771 0.474311 0.014463 0.459849) 47 95 2
(0.122758 0.438621 0.343898 0.0947229) 48 97 2
(0.207927 0.386542 0.00949473 0.396036) 49 99 1
(0.230484 0.259461 0.125297 0.384758) 50 101 1
(0.263113 0.130978 0.237465 0.368444) 51 103 1
(0.29366 0.0839879 0.269182 0.35317) 52 105 1
(0.450098 0.0731316 0.20182 0.274951) 53 107 1
(0.540087 0.229957 0.106216 0.123741) 54 7430 1
(0.269097 0.365451 0.229158 0.136294) 55 108 1
(0.39322 0.30339 0.133109 0.170281) 55 110 1
(0.542144 0.205783 0.228928 0.0231448) 56 7432 2
(0.326633 0.336684 0.207141 0.129543) 57 115 2
(0.255119 0.37244 0.15254 0.219901) 58 114 1
(0.246125 0.376938 0.161495 0.215443) 59 119 2
(0.282527 0.358736 0.0407417 0.317995) 60 121 2
(2.12578e-07 0.499999 1.30927e-06 0.5) 75 7451 1
(2.12673e-07 0.499999 1.31239e-06 0.5) 75 7451 1
(1.86046e-07 0.5 0.0436188 0.456381) 0 7376 2
(1.87602e-07 0.235644 0.264356 0.5) 0 7376 1
(0.128709 0.435646 0.244997 0.190648) 0 7375 1
(0.912936 0.0435319 0.00277553 0.0407564) 0 7375 1
(0.402417 0.298791 0.0750059 0.223785) 0 0 1
(0.665807 0.0945152 0.167096 0.0725811) 0 7375 2
(0.110483 0.444758 0.255887 0.188871) 75 1 2
(0.322874 0.338563 0.0895263 0.249036) 0 0 1
(0.0545073 0.472746 0.15861 0.314137) 0 1 2
(0.232237 0.123996 0.383881 0.259885) 75 1 1
(0.164628 0.000608859 0.417686 0.417077) 75 1 1
(0.22945 0.385275 0.360374 0.0249009) 75 149 1
(0.27608 0.293031 0.36196 0.0689283) 0 7375 2
(0.173275 0.413363 0.387945 0.0254179) 75 149 1
(0.166066 0.416967 0.393206 0.0237615) 75 149 1
(0.300068 0.349966 0.152012 0.197954) 76 149 1
(0.565276 0.0398232 0.217362 0.177539) 1 2 2
(0.143914 0.360536 0.0675072 0.428043) 2 5 1
(0.168659 0.415671 0.180143 0.235527) 78 7 2
(0.0389953 0.480502 0.328439 0.152063) 4 9 2
(0.447473 0.0795933 0.19667 0.276263) 79 155 2
(0.340933 0.134902 0.329534 0.194632) 79 157 2
(0.774399 0.0262818 0.0865188 0.112801) 80 160 1
(0.289465 0.355268 0.330068 0.0252001) 84 19 2
(0.14875 0.425625 0.110428 0.315197) 86 169 1
(0.0113973 0.494301 0.365634 0.128668) 86 171 1
(0.00550394 0.497248 0.350146 0.147102) 87 173 1
(0.113155 0.443423 0.241021 0.202402) 89 29 2
(0.0396794 0.155246 0.324914 0.48016) 15 31 1
(0.126562 0.436719 0.178781 0.257938) 88 176 2
(0.0437118 0.478144 0.156169 0.321975) 161 320 1
(0.2745 0.36275 0.108667 0.254083) 89 178 2
(0.210038 0.0913067 0.394981 0.303674) 89 177 2
(0.376001 0.311999 0.230065 0.0819347) 90 180 2
(0.317485 0.341257 0.338175 0.00308264) 93 185 1
(0.0356068 0.482197 0.205433 0.276764) 96 189 1
(0.398899 0.122248 0.300551 0.178303) 97 45 1
(0.481388 0.259306 0.145881 0.113425) 98 47 2
(0.0301752 0.484912 0.40111 0.0838027) 99 49 2
(0.29226 0.35387 0.104372 0.249498) 99 195 1
(0.0470309 0.0374684 0.476485 0.439016) 173 196 1
(0.656942 0.0994983 0.0720307 0.171529) 99 198 1
(0.0709806 0.46451 0.157251 0.307259) 99 197 1
(0.0823687 0.371939 0.458816 0.0868762) 104 59 1
(0.0860754 0.241789 0.215173 0.456962) 31 63 1
(0.243828 0.252058 0.378086 0.126028) 107 65 1
(0.293874 0.169922 0.353063 0.183141) 108 67 1
(0.406582 0.296709 0.0198777 0.276832) 111 219 1
(0.0146845 0.492658 0.121257 0.3714) 38 77 2
(0.0320156 0.483992 0.0576069 0.426385) 111 222 2
(0.235813 0.012727 0.369366 0.382093) 111 222 1
(0.274588 0.0962409 0.266465 0.362706) 112 224 1
(0.499955 0.250022 0.203891 0.0461312) 113 226 2
(0.292762 0.202577 0.151041 0.353619) 114 225 2
(0.449025 0.0248943 0.250593 0.275488) 114 228 1
(0.0424163 0.211381 0.478792 0.267411) 192 234 1
(0.244099 0.241448 0.377951 0.136502) 194 238 1
(0.188137 0.030913 0.375018 0.405931) 120 237 2
(0.796309 0.0207811 0.0810646 0.101846) 120 240 1
(0.366238 0.316881 0.266351 0.05053) 121 239 1
(0.172638 0.413681 0.10854 0.305141) 194 387 2
(0.516472 0.0914949 0.150269 0.241764) 195 386 2
(0.146579 0.426711 0.260047 0.166664) 196 388 1
(0.58736 0.20632 0.191492 0.0148274) 196 390 1
(0.393748 0.303126 0.0348989 0.268227) 197 244 2
(0.0190214 0.490489 0.220591 0.269898) 198 246 2
(0.130813 0.434594 0.144962 0.289632) 124 248 2
(0.240608 0.379696 0.298074 0.0816216) 126 252 2
(0.289596 0.241758 0.113444 0.355202) 127 254 1
(0.411326 0.294337 0.128165 0.166172) 129 109 2
(0.201033 0.399484 0.31932 0.0801632) 129 258 2
(0.155854 0.0845851 0.422073 0.337488) 203 256 1
(0.0548633 0.472568 0.382345 0.0902238) 205 260 2
(2.12114e-07 0.5 0.5 5.86251e-09) 150 7452 2
(2.12258e-07 0.5 0.5 5.59148e-09) 150 7452 2
(0.000365016 0.499817 0.0606348 0.439183) 75 7451 2
(2.12396e-07 0.5 0.14379 0.35621) 150 7452 2
(0.180586 0.409707 0.380238 0.0294685) 75 149 1
(0.168893 0.415554 0.330767 0.0847871) 75 149 1
(0.0323984 0.483801 0.180374 0.303427) 75 7451 2
(0.31455 0.342725 0.0751723 0.267552) 75 1 2
(0.176468 0.411766 0.344441 0.0673254) 75 149 1
(0.313966 0.343017 0.0078475 0.33517) 75 1 2
(0.288357 0.355822 0.242045 0.113777) 75 149 1
(0.261478 0.114963 0.369261 0.254298) 75 1 1
(0.297123 0.351438 0.200396 0.151042) 75 149 1
(0.160489 0.419756 0.052414 0.367342) 150 150 2
(0.180103 0.223337 0.409948 0.186612) 150 150 1
(0.198812 0.164896 0.400594 0.235698) 150 150 1
(0.222544 0.0681974 0.388728 0.320531) 150 150 1
(0.298998 0.350501 0.208651 0.141851) 75 149 1
(0.194781 0.40261 0.244648 0.157962) 75 149 1
(0.610016 0.194992 0.190456 0.00453597) 76 3 2
(0.806152 0.096924 0.0907375 0.00618651) 76 151 1
(0.342315 0.303546 0.328842 0.0252962) 76 151 2
(0.548616 0.225692 0.0400281 0.185664) 77 154 2
(0.0712643 0.0421971 0.464368 0.422171) 152 154 1
(0.662062 0.126703 0.168969 0.0422666) 153 304 2
(0.0133648 0.493318 0.330492 0.162825) 154 306 1
(0.102348 0.448826 0.446078 0.00274776) 156 162 2
(0.0071088 0.496446 0.423248 0.0731975) 156 310 1
(0.0950602 0.066097 0.45247 0.386373) 157 164 1
(0.00635143 0.211932 0.284893 0.496824) 83 166 1
(0.0281176 0.376732 0.485941 0.109209) 159 168 1
(0.311658 0.344171 0.321931 0.0222404) 234 317 2
(0.245036 0.377482 0.362186 0.0152954) 159 317 2
(0.0331217 0.159136 0.483439 0.324303) 159 316 2
(0.344904 0.327548 0.183808 0.14374) 160 319 2
(0.0803754 0.108841 0.459812 0.350971) 160 318 2
(0.469346 0.265327 0.128688 0.136639) 163 322 1
(0.625327 0.187337 0.0465333 0.140803) 164 324 1
(0.425939 0.28703 0.000982076 0.286048) 165 180 2
(0.260232 0.369884 0.254834 0.115051) 166 182 2
(0.0369133 0.481543 0.378011 0.103533) 166 330 1
(0.230684 0.0545588 0.384658 0.330099) 167 184 1
(0.235263 0.146131 0.382369 0.236238) 168 186 1
(0.184852 0.0982155 0.407574 0.309358) 169 188 1
(0.00933523 0.495332 0.212472 0.282861) 171 340 1
(0.336323 0.218531 0.331839 0.113308) 174 198 1
(0.282136 0.33929 0.0196422 0.358932) 100 200 1
(0.26607 0.366965 0.27411 0.0928551) 101 202 2
(0.28456 0.35772 0.314499 0.0432212) 104 208 2
(0.575698 0.212151 0.115297 0.0968544) 105 210 2
(0.414754 0.0691695 0.292623 0.223453) 179 208 1
(0.210319 0.0807924 0.39484 0.314048) 180 210 1
(0.753573 0.123213 0.0527103 0.0705029) 181 212 2
(0.0656784 0.136061 0.3311 0.467161) 181 361 1
(0.381794 0.309103 0.232255 0.0768482) 182 363 2
(0.316194 0.341903 0.0720301 0.269873) 183 365 2
(0.424057 0.287971 0.031578 0.256393) 184 367 2
(0.252931 0.373535 0.306468 0.0670664) 185 369 2
(0.71494 0.0246977 0.117833 0.14253) 188 372 2
(0.813471 0.0727192 0.0932646 0.0205454) 189 376 2
(0.610359 0.194821 0.10281 0.0920108) 190 230 2
(0.216385 0.391807 0.307124 0.084683) 191 378 1
(0.152742 0.423629 0.154297 0.269332) 264 525 1
(0.516864 0.241568 0.129126 0.112442) 265 527 1
(0.43525 0.171833 0.282375 0.110541) 266 381 1
(0.35553 0.159262 0.322235 0.162973) 267 531 2
(0.866442 0.0667788 0.03042 0.0363588) 269 533 1
(0.714675 0.142663 0.121845 0.0208173) 270 389 2
(0.0397863 0.480107 0.0434283 0.436679) 270 537 1
(0.384499 0.30775 0.162859 0.144891) 271 539 1
(0.0384939 0.480753 0.459808 0.0209455) 273 395 2
(0.0932308 0.453385 0.0176971 0.435688) 199 397 2
(0.168904 0.415548 0.00425523 0.411293) 200 399 2
(0.228736 0.385632 0.0277271 0.357905) 201 401 2
(0.104852 0.447574 0.248496 0.199078) 277 403 2
(2.12358e-07 0.5 0.5 4.94844e-09) 225 7453 2
(2.12475e-07 0.5 0.5 4.72498e-09) 225 7453 2
(8.44121e-08 0.5 0.0524613 0.447539) 150 7452 2
(2.12587e-07 0.5 0.153335 0.346665) 225 7453 2
(0.0222365 0.488882 0.477191 0.0116905) 150 150 2
(0.0402225 0.479889 0.428391 0.0514974) 150 150 2
(0.0365515 0.481724 0.357805 0.123919) 150 150 2
(0.191202 0.404399 0.391018 0.0133806) 150 298 1
(0.162695 0.418652 0.377284 0.0413681) 150 298 1
(0.209261 0.14222 0.395369 0.253149) 150 150 1
(0.173099 0.41345 0.403808 0.00964223) 150 298 1
(0.158609 0.420695 0.393469 0.0272264) 150 298 1
(0.168509 0.415745 0.391524 0.0242217) 150 298 1
(0.605861 0.197069 0.192034 0.00503502) 150 298 1
(0.221895 0.017187 0.389053 0.371866) 225 299 1
(0.236866 0.381567 0.258253 0.123314) 150 298 1
(0.3216 0.3392 0.00892376 0.330276) 150 298 1
(0.464004 0.0974511 0.267998 0.170547) 150 298 2
(0.497272 0.251364 6.1642e-05 0.251302) 151 298 1
(0.720953 0.139523 0.0257897 0.113734) 151 152 2
(0.704131 0.147934 0.0183772 0.129557) 151 152 2
(0.0961991 0.4519 0.17764 0.274261) 151 300 1
(0.0693689 0.126509 0.465316 0.338807) 151 300 2
(0.0911428 0.454429 0.292108 0.162321) 226 449 1
(0.170282 0.350721 0.414859 0.0641384) 227 303 1
(0.0967338 0.451633 0.0282493 0.423384) 154 307 2
(0.412975 0.293512 0.0249496 0.268563) 229 456 2
(0.241673 0.379163 0.123665 0.255498) 230 458 2
(0.00543765 0.497281 0.339742 0.157539) 306 460 2
(0.434389 0.0822543 0.200551 0.282805) 231 460 1
(0.277402 0.282136 0.0791628 0.361299) 232 462 1
(0.300692 0.349654 0.159885 0.189769) 233 464 2
(0.118889 0.0100231 0.430532 0.440555) 234 463 2
(0.257721 0.320452 0.371139 0.050687) 309 466 1
(0.159222 0.420389 0.00488916 0.4155) 235 468 2
(0.194688 0.0793046 0.323351 0.402656) 235 468 1
(0.213394 0.238624 0.154679 0.393303) 236 470 1
(0.168272 0.415864 0.0538962 0.361968) 237 469 1
(0.189365 0.405318 0.330957 0.0743605) 237 471 1
(0.366167 0.0671453 0.316916 0.249771) 238 325 1
(0.289427 0.276355 0.355286 0.078931) 239 327 1
(0.251909 0.374045 0.122868 0.251177) 240 329 2
(0.231515 0.384243 0.191301 0.192942) 241 331 2
(0.0956369 0.452182 0.448075 0.00410698) 242 481 1
(0.0993758 0.450312 0.357105 0.0932071) 244 337 2
(0.142729 0.428636 0.0780441 0.350592) 170 339 2
(0.270757 0.364622 0.101187 0.263434) 246 341 2
(0.0708362 0.397412 0.0671702 0.464582) 172 343 1
(0.0202397 0.291566 0.198314 0.48988) 173 345 1
(0.099816 0.23441 0.215682 0.450092) 174 347 1
(0.267796 0.328268 0.0378338 0.366102) 175 349 1
(0.276431 0.298223 0.0635616 0.361785) 176 351 1
(0.160686 0.0594193 0.419657 0.360238) 177 352 2
(0.0418868 0.479057 0.206331 0.272725) 254 357 2
(0.201972 0.325674 0.0733394 0.399014) 255 505 2
(0.0649666 0.212099 0.255418 0.467517) 256 507 2
(0.206596 0.089395 0.307307 0.396702) 257 509 2
(0.618656 0.142896 0.190672 0.0477756) 258 513 2
(0.332035 0.333983 0.0384918 0.295491) 260 518 2
(0.196983 0.307985 0.093523 0.401508) 261 517 2
(0.541297 0.229351 0.0400476 0.189304) 262 522 2
(0.684597 0.04746 0.157702 0.110242) 263 375 1
(0.0572562 0.203248 0.268124 0.471372) 264 523 2
(0.23246 0.38377 0.0599529 0.323817) 339 526 2
(0.21015 0.394925 0.0194781 0.375447) 340 528 2
(0.026155 0.478612 0.486922 0.0083104) 341 530 1
(0.193918 0.403041 0.0126908 0.39035) 343 680 1
(0.326375 0.336813 0.135665 0.201147) 344 536 2
(0.657752 0.171124 0.0417792 0.129345) 344 684 1
(0.633599 0.178741 0.183201 0.00446023) 345 538 1
(0.555616 0.222192 0.0541706 0.168021) 346 540 2
(0.261649 0.220125 0.369176 0.149051) 347 542 1
(0.0878438 0.0591127 0.396965 0.456078) 273 544 1
(0.267977 0.366011 0.0576718 0.308339) 275 548 2
(0.0349498 0.0181671 0.464358 0.482525) 275 548 1
(2.12578e-07 0.5 0.5 9.21367e-09) 300 7454 2
(2.12673e-07 0.5 0.5 8.90668e-09) 300 7454 2
(1.72095e-07 0.5 0.0279184 0.472081) 225 7453 2
(2.12764e-07 0.5 0.161481 0.338519) 300 7454 2
(0.054509 0.472746 0.369562 0.103184) 225 299 2
(0.0649887 0.467506 0.30488 0.162626) 225 299 2
(0.120118 0.439941 0.0823345 0.357606) 225 299 2
(0.0734903 0.463255 0.0952657 0.367989) 225 299 2
(0.200057 0.399972 0.375202 0.0247699) 225 447 1
(0.27431 0.362845 0.099527 0.263318) 150 299 2
(0.197436 0.401282 0.378498 0.0227842) 225 447 1
(0.179526 0.410237 0.382714 0.0275233) 225 447 1
(0.199327 0.400336 0.369841 0.0304951) 225 447 1
(0.193922 0.403039 0.367736 0.0353025) 225 447 1
(0.23947 0.380265 0.355103 0.0251617) 225 447 1
(0.49353 0.253235 0.225039 0.0281959) 225 447 1
(0.426291 0.286855 0.259253 0.0276019) 225 447 1
(0.275383 0.362309 0.336296 0.026013) 225 447 1
(0.407696 0.277067 0.296152 0.0190847) 225 447 2
(0.0249477 0.487526 0.453006 0.0345201) 226 301 2
(0.683272 0.158364 0.084916 0.0734477) 226 301 2
(0.877719 0.0266422 0.0611406 0.0344985) 226 301 1
(0.0997239 0.317079 0.450138 0.133059) 301 450 1
(0.191235 0.404383 0.245602 0.158781) 301 598 1
(0.0399654 0.480017 0.192788 0.287229) 302 598 1
(0.426166 0.286917 0.069387 0.21753) 302 600 1
(0.11987 0.307375 0.13269 0.440065) 304 602 2
(0.0867146 0.256915 0.199727 0.456643) 305 604 2
(0.260504 0.0570305 0.369748 0.312718) 305 606 2
(0.343914 0.207879 0.120163 0.328043) 306 609 1
(0.091177 0.454412 0.290739 0.163672) 382 611 2
(0.0232373 0.488381 0.104701 0.383681) 383 759 1
(0.229911 0.0429226 0.385045 0.342122) 383 613 1
(0.360249 0.140459 0.319875 0.179416) 384 615 1
(0.324881 0.305541 0.33756 0.032019) 385 617 1
(0.332086 0.333957 0.0643455 0.269612) 386 619 2
(0.422292 0.288854 0.0593331 0.229521) 387 621 2
(0.413145 0.293428 0.0755913 0.217836) 388 623 2
(0.30099 0.349505 0.061518 0.287987) 389 625 2
(0.224077 0.151799 0.387962 0.236163) 314 476 1
(0.314172 0.342914 0.067626 0.275288) 315 478 2
(0.157272 0.421364 0.0998205 0.321544) 316 626 1
(0.204478 0.110086 0.287675 0.397761) 241 480 1
(0.154901 0.188022 0.234527 0.422549) 242 482 1
(0.179919 0.209459 0.200582 0.410041) 243 484 1
(0.221099 0.29063 0.0988209 0.38945) 244 486 1
(0.283353 0.358324 0.357227 0.00109666) 245 488 2
(0.152559 0.0439946 0.379726 0.423721) 246 490 1
(0.205369 0.0108965 0.397315 0.386419) 247 491 2
(0.189037 0.405482 0.0159982 0.389483) 249 496 2
(0.245876 0.377062 0.0304231 0.346639) 250 498 2
(0.258489 0.370755 0.0590447 0.311711) 251 500 2
(0.290558 0.216281 0.13844 0.354721) 252 502 1
(0.0308064 0.103537 0.381059 0.484597) 254 503 2
(0.0673707 0.466315 0.238839 0.227475) 330 654 1
(0.309768 0.277019 0.0680973 0.345116) 331 656 2
(0.551462 0.167895 0.0563736 0.224269) 332 658 2
(0.544196 0.128068 0.0998343 0.227902) 333 663 1
(0.419878 0.151419 0.138642 0.290061) 334 665 1
(0.417923 0.206543 0.0844953 0.291038) 335 667 1
(0.417696 0.291152 0.267633 0.0235192) 336 669 2
(0.491237 0.254382 0.0771055 0.177276) 337 671 2
(0.276396 0.103538 0.258264 0.361802) 338 670 2
(0.0322042 0.103572 0.380326 0.483898) 338 673 1
(0.0889971 0.113792 0.34171 0.455501) 339 675 1
(0.0397355 0.234488 0.480132 0.245644) 415 677 1
(0.0940641 0.336579 0.452968 0.116389) 416 679 1
(0.171082 0.414459 0.0527871 0.361672) 417 681 2
(0.128773 0.435613 0.00197945 0.433634) 418 683 2
(0.363437 0.278538 0.318282 0.0397436) 419 685 1
(0.50857 0.245715 0.233189 0.0125259) 420 687 2
(0.373063 0.313468 0.285166 0.0283026) 421 689 2
(0.0682567 0.0454952 0.465872 0.420376) 347 690 2
(0.185404 0.362178 0.0451198 0.407298) 349 692 2
(0.231933 0.0601569 0.323877 0.384033) 349 695 1
(2.12361e-07 0.5 0.5 3.69928e-08) 375 7455 2
(2.12477e-07 0.5 0.5 3.6595e-08) 375 7455 2
(2.12852e-07 0.5 0.0415228 0.458477) 300 7454 2
(2.12589e-07 0.5 0.167269 0.332731) 375 7455 2
(0.124443 0.437779 0.0626229 0.375156) 225 448 2
(2.12936e-07 0.5 0.000605754 0.499394) 300 7454 2
(0.0243186 0.487841 0.177073 0.310767) 225 448 2
(0.0457049 0.477148 0.149826 0.327322) 300 448 2
(0.157372 0.114681 0.421314 0.306633) 300 448 1
(0.123519 0.235325 0.438241 0.202915) 300 448 1
(0.157681 0.421159 0.409384 0.0117751) 300 596 1
(0.173503 0.235827 0.413249 0.177422) 300 448 1
(0.18978 0.40511 0.398367 0.00674312) 300 596 1
(0.167226 0.416387 0.4109 0.00548755) 300 596 1
(0.203745 0.398128 0.389326 0.00880151) 300 596 1
(0.246201 0.3769 0.373568 0.0033319) 300 596 1
(0.204836 0.397582 0.383318 0.0142641) 300 596 1
(0.213846 0.393077 0.369743 0.0233337) 300 596 1
(0.348929 0.325536 0.306751 0.0187845) 300 596 1
(0.220573 0.389714 0.369795 0.0199187) 300 596 1
(0.382333 0.308834 0.244966 0.0638681) 301 450 2
(0.48631 0.256845 0.0492295 0.207616) 301 450 2
(0.899858 0.0194962 0.0500711 0.0305749) 301 450 1
(0.372433 0.158316 0.313784 0.155467) 376 599 1
(0.235786 0.382107 0.224579 0.157528) 376 747 1
(0.0677633 0.466118 0.375364 0.0907544) 377 747 1
(0.370494 0.232711 0.314753 0.0820421) 377 749 2
(0.646965 0.0473043 0.129213 0.176518) 378 752 1
(0.493143 0.253428 0.203141 0.0502871) 379 754 2
(0.32603 0.336985 0.0913119 0.245673) 380 756 2
(0.111461 0.44427 0.0865367 0.357733) 381 758 2
(0.0917264 0.454137 0.0524213 0.401716) 457 906 1
(0.239177 0.380411 0.232724 0.147688) 458 762 2
(0.308849 0.345576 0.0740177 0.271558) 459 764 2
(0.215274 0.361638 0.392363 0.0307252) 460 766 1
(0.0645281 0.34182 0.467736 0.125916) 461 768 1
(0.110795 0.150391 0.444602 0.294211) 462 770 1
(0.0362464 0.481877 0.348172 0.133705) 463 920 1
(0.067415 0.466292 0.0721776 0.394115) 465 922 1
(0.132834 0.0441585 0.433583 0.389424) 390 775 2
(0.334488 0.0231276 0.332756 0.309628) 391 629 1
(0.303296 0.0319068 0.348352 0.316445) 392 631 1
(0.320421 0.122892 0.339789 0.216897) 393 633 1
(0.375889 0.297073 0.312056 0.0149822) 394 635 1
(0.0393043 0.14906 0.480348 0.331288) 319 634 2
(0.167574 0.0640459 0.416213 0.352167) 320 636 2
(0.272201 0.00519389 0.358706 0.3639) 321 639 1
(0.261726 0.0498672 0.31927 0.369137) 322 641 1
(0.257795 0.108934 0.262169 0.371103) 323 643 1
(0.26008 0.157157 0.212803 0.36996) 324 645 1
(0.27419 0.220428 0.142477 0.362905) 325 647 1
(0.278719 0.235983 0.124657 0.36064) 326 649 1
(0.130984 0.0701494 0.434508 0.364359) 327 650 2
(0.326123 0.0150984 0.32184 0.336938) 329 652 2
(0.189197 0.321827 0.405402 0.083575) 405 657 1
(0.505822 0.178796 0.247089 0.0682936) 406 807 2
(0.644875 0.0270859 0.150477 0.177562) 407 810 1
(0.55561 0.183728 0.0384675 0.222195) 408 812 1
(0.439135 0.280432 0.169692 0.110741) 409 814 2
(0.398097 0.300951 0.023744 0.277207) 410 816 2
(0.103579 0.112181 0.336029 0.44821) 411 815 2
(0.250422 0.059788 0.374789 0.315001) 411 817 2
(0.163665 0.278792 0.418168 0.139376) 487 820 1
(0.059034 0.335969 0.470483 0.134514) 488 822 1
(0.107665 0.369453 0.446168 0.0767143) 489 824 1
(0.169465 0.415268 0.0622653 0.353002) 490 826 2
(0.125461 0.437269 0.240038 0.197231) 491 828 2
(0.281645 0.359177 0.34772 0.011457) 492 830 2
(0.15956 0.42022 0.106114 0.314106) 418 832 2
(0.244915 0.377543 0.0200295 0.357513) 419 834 2
(0.301612 0.349194 0.247077 0.102117) 494 982 1
(0.431237 0.148765 0.284381 0.135616) 495 836 1
(0.17357 0.413215 0.0308767 0.382338) 496 838 2
(0.0736582 0.463171 0.203754 0.259417) 422 840 2
(0.13811 0.430945 0.133721 0.297224) 423 842 2
(2.12958e-07 0.5 0.5 1.10369e-08) 450 7456 2
(2.1302e-07 0.5 0.5 1.06734e-08) 450 7456 2
(0.108636 0.445682 0.09302 0.352662) 300 597 2
(2.13081e-07 0.5 0.137766 0.362234) 450 7456 2
(0.0844617 0.457769 0.18837 0.269399) 375 597 2
(0.0821415 0.458929 0.0866376 0.372292) 375 597 2
(0.0999561 0.450022 0.0332478 0.416774) 375 597 2
(0.0998896 0.450055 0.0769325 0.373123) 375 597 2
(1.25409e-07 0.5 0.10167 0.39833) 375 7455 2
(0.1819 0.0408758 0.368174 0.40905) 300 7454 1
(0.14452 0.42774 0.397379 0.0303611) 375 745 1
(0.161553 0.419223 0.386536 0.0326875) 375 745 1
(0.897207 0.0472774 0.0513965 0.00411906) 375 597 1
(0.126046 0.436977 0.40253 0.0344475) 375 745 1
(0.138261 0.430869 0.381738 0.049131) 375 745 1
(0.111041 0.44448 0.392393 0.0520869) 375 745 1
(0.154067 0.422967 0.387572 0.0353942) 375 745 1
(0.18249 0.408755 0.373968 0.0347866) 375 745 1
(0.391364 0.304318 0.186894 0.117425) 375 745 1
(0.300909 0.349546 0.272193 0.0773526) 375 745 1
(0.0656257 0.467187 0.364994 0.102193) 375 745 1
(0.493939 0.253031 0.0243368 0.228694) 376 745 1
(0.757615 0.121192 0.0774304 0.0437619) 376 599 2
(0.34828 0.32586 0.027707 0.298153) 451 748 2
(0.627568 0.186216 0.0492346 0.136981) 451 748 2
(0.671076 0.0415398 0.164462 0.122922) 451 748 1
(0.277124 0.361438 0.00798846 0.35345) 451 896 1
(0.0295332 0.485233 0.45241 0.0328231) 452 896 1
(0.447415 0.0453408 0.276293 0.230952) 452 898 2
(0.282174 0.110098 0.358913 0.248815) 453 900 2
(0.277147 0.361427 0.241035 0.120391) 455 905 2
(0.185131 0.0880018 0.319433 0.407434) 456 907 1
(0.0372446 0.347791 0.481378 0.133587) 533 911 1
(0.0521768 0.473912 0.46854 0.00537137) 535 915 2
(0.152409 0.0117239 0.423796 0.412072) 460 914 2
(0.377907 0.0106485 0.300398 0.311047) 461 917 1
(0.414195 0.154722 0.138181 0.292903) 462 919 1
(0.343214 0.328393 0.156351 0.172042) 538 921 2
(0.0504866 0.474757 0.220021 0.254735) 539 923 2
(0.0407038 0.479648 0.157191 0.322457) 465 925 2
(0.135731 0.432134 0.0745093 0.357625) 466 927 2
(0.271056 0.364472 0.140862 0.22361) 467 780 2
(0.252931 0.327451 0.373534 0.0460832) 468 782 1
(0.249261 0.195383 0.375369 0.179986) 469 784 1
(0.275046 0.250431 0.112046 0.362477) 395 786 1
(0.273429 0.228409 0.134877 0.363285) 396 788 1
(0.26062 0.196612 0.173079 0.36969) 397 790 1
(0.266438 0.201088 0.165693 0.366781) 398 792 1
(0.247157 0.238593 0.137829 0.376421) 399 794 1
(0.28037 0.212409 0.147406 0.359815) 400 796 1
(0.310865 0.292687 0.0518807 0.344568) 401 798 1
(0.447121 0.27644 0.138084 0.138356) 402 800 2
(0.347772 0.326114 0.238023 0.0880907) 403 802 2
(0.42409 0.214332 0.287955 0.0736227) 404 803 2
(0.19402 0.0142695 0.40299 0.38872) 405 805 2
(0.162409 0.309878 0.418795 0.108917) 481 956 2
(0.67397 0.030427 0.163015 0.132588) 482 958 2
(0.549697 0.225151 0.123063 0.102088) 483 961 2
(0.37119 0.043492 0.270913 0.314405) 484 960 2
(0.100611 0.141864 0.449694 0.30783) 484 962 2
(0.157669 0.253843 0.421166 0.167322) 560 965 1
(0.173167 0.273172 0.413416 0.140244) 561 967 1
(0.0431779 0.148617 0.478411 0.329794) 562 969 1
(0.0532268 0.200099 0.473387 0.273287) 563 971 1
(0.214406 0.392797 0.00442119 0.388376) 564 973 2
(0.175039 0.41248 0.20388 0.208601) 565 975 2
(0.168978 0.415511 0.280146 0.135365) 566 977 2
(0.383245 0.308378 0.253741 0.0546363) 567 979 2
(0.378112 0.310944 0.0181066 0.292837) 493 981 2
(0.141383 0.193715 0.235593 0.429309) 494 980 2
(0.335582 0.332209 0.282114 0.0500949) 569 1131 1
(0.293354 0.353323 0.327417 0.0259057) 570 1133 1
(0.107912 0.185902 0.446044 0.260142) 571 987 1
(0.0898963 0.321343 0.133709 0.455052) 497 989 1
(0.263192 0.248185 0.120219 0.368404) 498 991 1
(2.12085e-07 0.5 0.5 1.23703e-08) 525 7457 2
(2.12232e-07 0.5 0.5 1.1953e-08) 525 7457 2
(2.13139e-07 0.5 0.0415194 0.45848) 450 7456 2
(2.12373e-07 0.5 0.0999984 0.400001) 525 7457 2
(0.0783145 0.460843 0.322104 0.138739) 450 746 2
(0.0655511 0.467224 0.221447 0.245777) 450 746 2
(0.13208 0.43396 0.102385 0.331576) 375 597 2
(0.0624875 0.468756 0.256889 0.211867) 450 746 2
(0.085039 0.45748 0.189373 0.268108) 450 746 2
(0.315112 0.342444 0.13838 0.204064) 375 746 2
(0.13578 0.43211 0.413973 0.0181365) 450 894 1
(0.158423 0.420788 0.411798 0.00899051) 450 894 1
(0.118022 0.440989 0.386887 0.054102) 450 894 1
(0.155849 0.422076 0.413444 0.00863146) 450 894 1
(0.145693 0.00163905 0.427153 0.425514) 450 746 1
(0.154284 0.0258777 0.422858 0.39698) 450 746 1
(0.0711572 0.464421 0.123566 0.340856) 525 895 2
(0.134058 0.167885 0.432971 0.265085) 525 895 1
(0.150207 0.0558995 0.424897 0.368997) 525 895 1
(0.165403 0.0834939 0.417298 0.333804) 450 746 1
(0.156252 0.421874 0.41532 0.0065538) 450 894 1
(0.153912 0.423044 0.379912 0.0431325) 450 894 1
(0.0639164 0.468042 0.45529 0.0127515) 451 748 2
(0.387341 0.0370504 0.306329 0.269279) 525 895 1
(0.58396 0.20802 0.206839 0.00118108) 526 897 2
(0.613922 0.193039 0.0388701 0.154169) 526 1043 1
(0.868689 0.0656553 0.0480408 0.0176145) 526 1045 1
(0.253272 0.297436 0.373364 0.0759281) 526 1045 2
(0.136246 0.235643 0.196234 0.431877) 527 1045 2
(0.414266 0.292867 0.257772 0.0350952) 527 1048 2
(0.423324 0.26562 0.0227181 0.288338) 528 1050 1
(0.328302 0.24523 0.0906191 0.335849) 529 1052 1
(0.334314 0.166044 0.166799 0.332843) 530 1054 1
(0.290905 0.226479 0.128068 0.354547) 532 1055 2
(0.294699 0.147851 0.2048 0.35265) 534 1059 2
(0.632166 0.0887026 0.0952147 0.183917) 535 1064 1
(0.107359 0.44632 0.352663 0.0936577) 610 1212 1
(0.312469 0.343765 0.342196 0.00156922) 611 1214 1
(0.149426 0.404516 0.020771 0.425287) 537 1068 1
(0.0408147 0.283754 0.195839 0.479593) 538 1070 1
(0.233438 0.123888 0.259393 0.383281) 540 1074 1
(0.297242 0.351379 0.186093 0.165286) 542 929 2
(0.221414 0.0298598 0.389293 0.359433) 543 931 1
(0.0856529 0.404794 0.457174 0.0523795) 545 935 1
(0.323923 0.338038 0.176364 0.161674) 471 937 2
(0.287127 0.356437 0.127372 0.229065) 472 939 2
(0.274383 0.362808 0.138669 0.22414) 473 941 2
(0.260043 0.369979 0.199521 0.170458) 474 943 2
(0.43368 0.245776 0.0373844 0.28316) 475 945 1
(0.36517 0.2487 0.0687151 0.317415) 476 947 1
(0.241279 0.351979 0.37936 0.0273816) 552 949 1
(0.264995 0.367502 0.119164 0.248339) 553 951 2
(0.192469 0.191079 0.403765 0.212686) 478 950 2
(0.456526 0.044219 0.271737 0.227518) 479 952 2
(0.296488 0.351756 0.322044 0.0297119) 480 955 2
(0.385679 0.307161 0.0354134 0.271747) 481 957 2
(0.196383 0.140995 0.260813 0.401808) 556 1103 2
(0.156039 0.173354 0.421981 0.248627) 556 1105 2
(0.435499 0.129713 0.152537 0.282251) 557 1108 1
(0.330639 0.33468 0.267834 0.0668462) 558 1110 2
(0.164389 0.417805 0.0361618 0.381643) 634 1112 2
(0.237633 0.381184 0.106817 0.274366) 635 1114 2
(0.158094 0.383864 0.420953 0.0370891) 636 1116 1
(0.136651 0.0646494 0.431675 0.367025) 562 1117 2
(0.26812 0.268537 0.36594 0.0974025) 638 1120 1
(0.139804 0.409373 0.430098 0.020725) 639 1122 1
(0.00318673 0.346384 0.152022 0.498407) 565 1124 1
(0.0986029 0.182556 0.450699 0.268142) 641 1126 1
(0.259528 0.0572609 0.370236 0.312975) 642 1128 1
(0.17591 0.412045 0.229309 0.182736) 644 1278 1
(0.549378 0.225311 0.161104 0.0642066) 645 1134 2
(0.365954 0.317023 0.104856 0.212167) 646 1136 2
(0.0194929 0.490254 0.475045 0.0152087) 572 1138 2
(0.090081 0.45496 0.454931 2.87231e-05) 573 1140 2
(0.509292 0.245354 0.243387 0.00196732) 574 993 2
(2.1239e-07 0.5 0.5 9.05197e-09) 600 7458 2
(2.12504e-07 0.5 0.5 8.78803e-09) 600 7458 2
(4.54043e-08 0.5 0.1721 0.3279) 525 7457 2
(2.12612e-07 0.5 0.0291418 0.470858) 600 7458 2
(5.40624e-08 0.5 0.0199213 0.480079) 525 7457 2
(6.21913e-08 0.5 0.0154103 0.48459) 525 7457 2
(0.454958 0.272521 0.13599 0.136531) 450 895 2
(0.156425 0.0190759 0.421787 0.402711) 525 895 1
(0.0290907 0.485455 0.000906883 0.484548) 525 7457 2
(0.119454 0.440273 0.417776 0.022497) 525 1043 1
(0.141741 0.429129 0.41691 0.0122197) 525 1043 1