/*--------------------------------*- C++ -*----------------------------------*\
  =========                 |
  \\      /  F ield         | OpenFOAM: The Open Source CFD Toolbox
   \\    /   O peration     | Website:  https://openfoam.org
    \\  /    A nd           | Version:  12
     \\/     M anipulation  |
\*---------------------------------------------------------------------------*/
FoamFile
{
    format      ascii;
    class       vectorField;
    location    "0.5/lagrangian/cloud";
    object      U;
}
// * * * * * * * * * * * * * * * * * * * * * * * * * * * * * * * * * * * * * //


4947
(
(6.34727e-11 -4.893e-05 0)
(6.03036e-11 -4.89711e-05 0)
(5.72925e-11 -4.90101e-05 0)
(5.44314e-11 -4.90469e-05 0)
(5.17129e-11 -4.90818e-05 0)
(0.000626364 -0.00482671 0)
(5.90188e-07 -4.67396e-05 0)
(0.000510056 -0.00490354 0)
(0.000572247 -0.00442952 0)
(0.00067365 -0.00422225 0)
(0.00302257 -0.010818 0)
(0.00111622 -0.0117994 0)
(0.000389628 -0.00570282 0)
(0.000244215 -0.00418938 0)
(-0.00559729 0.00505956 0)
(-0.00636317 -0.0191537 0)
(-0.00509689 -0.0173936 0)
(-0.000853261 -0.0348361 0)
(-0.000252184 -0.0330318 0)
(-0.000403878 -0.0310162 0)
(-0.000523463 -0.0355381 0)
(0.000138275 -0.0331451 0)
(0.000259978 -0.0327814 0)
(-0.000200217 -0.0311239 0)
(-0.00108976 -0.0259807 0)
(-0.000288741 -0.0299485 0)
(0.00106642 -0.0311002 0)
(0.000121084 -0.0297851 0)
(-0.000424601 -0.0264242 0)
(-0.000339297 -0.0274739 0)
(-0.000187622 -0.0312268 0)
(0.000308254 -0.0287907 0)
(0.000429518 -0.0265177 0)
(0.000617033 -0.0269563 0)
(0.00103802 -0.0258244 0)
(-0.000416464 -0.0283772 0)
(-0.000553406 -0.027784 0)
(-0.00153522 -0.026804 0)
(-0.000411924 -0.0276271 0)
(0.000687048 -0.0320149 0)
(-0.000934502 -0.0300974 0)
(0.000230462 -0.0304071 0)
(0.000646184 -0.028153 0)
(7.06639e-05 -0.0284367 0)
(0.000891184 -0.0276532 0)
(-0.000157087 -0.0294922 0)
(-3.78766e-06 -0.0285386 0)
(-0.00174384 -0.027645 0)
(0.000292214 -0.0253283 0)
(0.00092205 -0.023183 0)
(0.000687526 -0.0237795 0)
(0.000165649 -0.0228921 0)
(-0.000754912 -0.0225053 0)
(-0.00181382 -0.0211816 0)
(0.000380828 -0.013003 0)
(0.000177382 -0.023911 0)
(-0.000419236 -0.0151843 0)
(0.000463536 -0.0155101 0)
(0.00103678 -0.0106676 0)
(0.000559905 -0.0121828 0)
(0.00141695 -0.0193847 0)
(0.0017659 -0.024168 0)
(0.00101457 -0.0271219 0)
(0.000520754 -0.0279047 0)
(0.000194619 -0.0280373 0)
(0.000317853 -0.0269031 0)
(0.000711329 -0.0257455 0)
(-0.000728825 -0.0285277 0)
(0.000543052 -0.0256763 0)
(0.000461083 -0.0255512 0)
(0.000180117 -0.025349 0)
(0.000152465 -0.0245523 0)
(-0.00115745 -0.0275723 0)
(-0.000475807 -0.0243934 0)
(0.000112386 -0.0240827 0)
(5.46062e-11 -4.90602e-05 0)
(5.25895e-11 -4.90821e-05 0)
(6.29951e-06 -4.306e-05 0)
(5.97401e-06 -4.34145e-05 0)
(0.000280712 -0.00492934 0)
(0.00301084 -0.024325 0)
(-1.13699e-05 -0.0148504 0)
(0.00149584 -0.0155986 0)
(-0.000873796 -0.00469034 0)
(-0.000881484 -0.0108376 0)
(-0.00098481 -0.00353882 0)
(-0.00195229 -0.00980812 0)
(-0.000654306 -0.00978364 0)
(-0.0025041 -0.00911836 0)
(0.000375199 -0.00829793 0)
(0.000420666 -0.0128675 0)
(-0.000208838 -0.0124621 0)
(-0.000298999 -0.00527919 0)
(-0.00721725 -0.0214331 0)
(-0.00737101 -0.0353826 0)
(-0.00181778 -0.0383439 0)
(-0.00184454 -0.0312474 0)
(-0.00172327 -0.0394314 0)
(-0.00243038 -0.03707 0)
(-0.00228189 -0.0367848 0)
(0.000131128 -0.0318299 0)
(0.000273181 -0.028084 0)
(-0.000435939 -0.0301827 0)
(-0.000297749 -0.027398 0)
(-0.00163183 -0.024853 0)
(0.00108707 -0.0262515 0)
(0.000548017 -0.0353037 0)
(-0.00140028 -0.0439366 0)
(0.00135978 -0.0337309 0)
(0.000572593 -0.0328416 0)
(-0.00084128 -0.034842 0)
(0.00061138 -0.0292943 0)
(0.000110493 -0.027101 0)
(0.000891825 -0.029807 0)
(0.000347766 -0.0290192 0)
(-0.00276091 -0.0218463 0)
(-0.00143058 -0.028207 0)
(0.00183802 -0.0355003 0)
(0.00337987 -0.0283136 0)
(-0.000664298 -0.0302836 0)
(-0.000670055 -0.0254692 0)
(-0.00044077 -0.0261637 0)
(0.000930402 -0.0288752 0)
(0.000354884 -0.0297267 0)
(-0.000652344 -0.0255279 0)
(-0.000225099 -0.0219467 0)
(0.000520692 -0.0317292 0)
(0.00316035 -0.0275869 0)
(0.00059468 -0.0335327 0)
(0.00160874 -0.0334804 0)
(-2.41099e-05 -0.0325084 0)
(-0.0042633 -0.0317922 0)
(-0.00354538 -0.0309723 0)
(-0.00108732 -0.0239178 0)
(0.000415406 -0.0251952 0)
(0.00202744 -0.0164256 0)
(0.000587748 -0.0212189 0)
(-0.00158254 -0.0330974 0)
(0.00145057 -0.0332961 0)
(0.000962742 -0.0252668 0)
(0.00303514 -0.025736 0)
(0.00348708 -0.0291213 0)
(0.00322658 -0.0308406 0)
(0.00131115 -0.0298929 0)
(0.000100587 -0.0338007 0)
(4.62048e-05 -0.0333179 0)
(-0.00119562 -0.0230494 0)
(-0.000340897 -0.0283262 0)
(-0.00140229 -0.031629 0)
(-0.00097281 -0.0307344 0)
(1.56354e-11 -4.89778e-05 0)
(1.49283e-11 -4.90111e-05 0)
(-0.000297469 -0.000935486 0)
(1.42531e-11 -4.90428e-05 0)
(-0.00029059 -0.0135118 0)
(-0.000710743 -0.0128731 0)
(-2.26873e-05 -0.00131055 0)
(-0.00336632 -0.00548272 0)
(-0.00152606 -0.0124386 0)
(-0.00181079 -0.00516237 0)
(0.000922349 -0.0122131 0)
(0.00533208 -0.01034 0)
(0.00136829 -0.0114366 0)
(-0.00018253 -0.00736861 0)
(-0.00151696 -0.00885114 0)
(0.000169098 -0.00909986 0)
(-0.00116098 -0.0092158 0)
(0.00150619 -0.0112063 0)
(0.000479217 -0.0111418 0)
(0.00339963 -0.011491 0)
(0.00466201 -0.0108198 0)
(-0.00747347 -0.0209874 0)
(-0.00568572 -0.0409626 0)
(-0.00196709 -0.0392949 0)
(-0.0042432 -0.0403116 0)
(-0.000872415 -0.0400714 0)
(-0.000988613 -0.0402585 0)
(-0.00154419 -0.038881 0)
(-0.00110675 -0.0365546 0)
(-0.0030355 -0.0370501 0)
(-0.00254404 -0.0332888 0)
(-0.000676849 -0.0383321 0)
(-0.0015681 -0.0383238 0)
(-0.00181533 -0.0388001 0)
(-0.0014353 -0.0400523 0)
(-0.00153951 -0.0422115 0)
(0.00145516 -0.0442852 0)
(0.0017821 -0.0436636 0)
(0.00144541 -0.0409342 0)
(0.000687614 -0.0391069 0)
(-0.000395292 -0.0392193 0)
(-0.0005059 -0.0384394 0)
(0.000389106 -0.0398238 0)
(0.000177385 -0.0408151 0)
(-0.000204905 -0.0434212 0)
(0.00250801 -0.0351813 0)
(0.000503819 -0.0360151 0)
(-0.000809926 -0.0409687 0)
(0.00101505 -0.0376415 0)
(0.000768756 -0.035475 0)
(0.000581532 -0.0424859 0)
(-0.000138287 -0.040089 0)
(-0.00037534 -0.0394705 0)
(-0.00026958 -0.0440963 0)
(-0.000884367 -0.0437519 0)
(0.000412795 -0.0462792 0)
(0.00124913 -0.0458806 0)
(-0.000283942 -0.0447585 0)
(-0.00138899 -0.0387468 0)
(-0.00240595 -0.0328882 0)
(-0.00400471 -0.0349341 0)
(-0.00510277 -0.0374689 0)
(-0.00541473 -0.0379592 0)
(-0.00517266 -0.0386946 0)
(-0.00612504 -0.0399873 0)
(-0.00634456 -0.0440049 0)
(-0.00291306 -0.038447 0)
(-0.000644816 -0.0387905 0)
(0.00259739 -0.0396422 0)
(0.00412944 -0.0388878 0)
(0.00372957 -0.037931 0)
(0.00297918 -0.0388524 0)
(0.0022217 -0.039331 0)
(0.00168274 -0.0405342 0)
(-0.000172276 -0.0397214 0)
(4.60692e-11 -4.90211e-05 0)
(4.41853e-11 -4.90481e-05 0)
(1.89771e-05 -1.9516e-05 0)
(4.23783e-11 -4.90739e-05 0)
(-0.00139046 -0.00143636 0)
(-0.000245234 -0.00311734 0)
(-0.00136771 -0.0021629 0)
(-0.00107425 -0.00886422 0)
(0.00168702 -0.00923637 0)
(0.00334301 -0.0099289 0)
(-0.00126281 -0.013102 0)
(0.00136789 -0.00819606 0)
(-0.000991492 -0.0125665 0)
(-0.00058754 -0.0105246 0)
(-0.00224476 -0.0118869 0)
(-0.000926414 -0.00800162 0)
(-0.000330757 -0.00913092 0)
(0.000325686 -0.010818 0)
(-0.00555587 -0.00170494 0)
(0.0033956 -0.0141683 0)
(-0.00201525 -0.0174807 0)
(-0.00834025 -0.0197712 0)
(-0.00998591 -0.0174237 0)
(-0.00865811 -0.0142383 0)
(0.0077001 -0.0322801 0)
(-0.00565515 -0.0410668 0)
(-0.00276103 -0.0443911 0)
(-0.00415674 -0.0442726 0)
(-0.00340417 -0.0374381 0)
(-0.000911764 -0.0408068 0)
(-0.00107756 -0.0402231 0)
(-0.000942213 -0.0402949 0)
(-0.00109954 -0.037779 0)
(0.000821386 -0.0398126 0)
(6.13903e-05 -0.038394 0)
(0.000134654 -0.0388528 0)
(-0.00014889 -0.0400218 0)
(-0.00013705 -0.0459741 0)
(0.000884358 -0.0451788 0)
(6.79735e-05 -0.047008 0)
(0.000131687 -0.0470777 0)
(0.00015314 -0.0480338 0)
(-0.00150936 -0.0468001 0)
(0.000205166 -0.0473473 0)
(-0.000466556 -0.0491446 0)
(-0.000225687 -0.0494769 0)
(-0.000482433 -0.0512732 0)
(0.00137602 -0.0472216 0)
(0.00175338 -0.0485013 0)
(0.00207439 -0.0423468 0)
(-0.000435336 -0.0471733 0)
(0.00074503 -0.0500712 0)
(-0.00052401 -0.0523667 0)
(0.000146402 -0.0451114 0)
(-0.00173448 -0.0489469 0)
(-0.00088217 -0.0485646 0)
(0.000451448 -0.047027 0)
(-0.000805417 -0.045849 0)
(-0.000312364 -0.0456448 0)
(-0.00042614 -0.0449936 0)
(0.000437945 -0.0436019 0)
(-0.00286208 -0.0404263 0)
(-0.00342383 -0.0400945 0)
(-0.00287558 -0.0394001 0)
(-0.00409864 -0.0404782 0)
(-0.00389961 -0.0432042 0)
(-0.00565674 -0.043885 0)
(-0.00534636 -0.043452 0)
(-0.000160422 -0.0449589 0)
(9.08274e-05 -0.0464273 0)
(0.00547067 -0.0489192 0)
(0.00448131 -0.0483615 0)
(0.00365261 -0.0459478 0)
(0.00199863 -0.0449461 0)
(0.000940207 -0.0447886 0)
(6.36944e-12 -4.90603e-05 0)
(6.13317e-12 -4.90821e-05 0)
(-1.36405e-05 -3.9746e-05 0)
(5.90565e-12 -4.91032e-05 0)
(0.0021753 -0.0060035 0)
(0.00103379 -0.00388106 0)
(0.00307094 -0.00769067 0)
(-0.00247289 -0.00628559 0)
(-0.000804985 -0.0145592 0)
(0.000347695 -0.000995137 0)
(-0.000979371 -0.0140698 0)
(-0.000959319 -0.00941618 0)
(-0.00092838 -0.0134283 0)
(-0.00121044 -0.00851805 0)
(-0.00118541 -0.0121999 0)
(-0.00209781 -0.00977675 0)
(-0.0025955 -0.00836988 0)
(-0.000254219 -0.0134394 0)
(-0.00099114 -0.0129842 0)
(-0.00702217 -0.00346333 0)
(-0.00413089 -0.0114481 0)
(-0.00514525 -0.00851392 0)
(0.00363453 -0.00551203 0)
(-0.00571455 -0.0071943 0)
(-0.00488225 -0.0106362 0)
(-0.00823769 -0.042833 0)
(-0.00300981 -0.0447138 0)
(-0.00342845 -0.0443842 0)
(-0.00389587 -0.040289 0)
(-0.00424284 -0.0398894 0)
(-0.00405929 -0.0447373 0)
(-0.00213664 -0.0436268 0)
(-0.00165762 -0.0414953 0)
(-0.00217344 -0.0409468 0)
(-0.00158337 -0.0414492 0)
(-0.000856144 -0.0413195 0)
(-0.000614657 -0.0424774 0)
(0.00127763 -0.0435595 0)
(0.00354243 -0.044015 0)
(0.000294715 -0.0451779 0)
(0.000598527 -0.0450756 0)
(0.00143175 -0.0469776 0)
(0.000977311 -0.0476772 0)
(4.38339e-06 -0.0500759 0)
(-9.582e-05 -0.0478507 0)
(-0.000102165 -0.0494218 0)
(-0.00133366 -0.0527137 0)
(0.000229886 -0.0498093 0)
(0.000234058 -0.0496643 0)
(-8.48231e-05 -0.0496973 0)
(0.000318117 -0.0490776 0)
(0.000549826 -0.0488066 0)
(0.000448547 -0.0502807 0)
(-2.04641e-05 -0.0444988 0)
(-0.000732541 -0.0488259 0)
(-0.000815897 -0.0451084 0)
(-0.00098354 -0.0476758 0)
(0.000322201 -0.0452002 0)
(-0.000845229 -0.0449482 0)
(0.000904486 -0.0448654 0)
(-5.44531e-05 -0.0442841 0)
(0.000426291 -0.0452321 0)
(-0.00068428 -0.0441673 0)
(-0.000259815 -0.042131 0)
(-0.00320964 -0.0418023 0)
(-0.00258654 -0.0458733 0)
(-0.00157388 -0.0455931 0)
(-0.00194435 -0.0475529 0)
(-0.0035717 -0.0471139 0)
(-0.00143384 -0.0483248 0)
(-0.00422179 -0.0507343 0)
(-0.00195974 -0.0530479 0)
(0.00499017 -0.0489038 0)
(0.00392737 -0.0464222 0)
(0.00259155 -0.0459903 0)
(-3.82099e-12 -4.90218e-05 0)
(-3.6645e-12 -4.90487e-05 0)
(5.68656e-12 -4.91234e-05 0)
(-3.5144e-12 -4.90745e-05 0)
(-0.000669029 -0.00127033 0)
(5.47558e-12 -4.91428e-05 0)
(-0.00111004 -0.000598818 0)
(-0.000371987 -0.00971399 0)
(-0.00243406 -0.00994832 0)
(-0.00244518 -0.00797041 0)
(-0.00422567 -0.00972728 0)
(0.00391945 -0.00936193 0)
(-0.00123646 -0.0166363 0)
(-0.00498319 -0.00905886 0)
(-0.00151269 -0.00862096 0)
(-0.0012708 -0.0156507 0)
(-0.00169697 -0.00780756 0)
(-0.00382963 -0.00668983 0)
(-0.00181285 -0.00740703 0)
(-0.00201648 -0.00627668 0)
(0.00146855 0.00177049 0)
(-0.00605571 -0.0179774 0)
(-0.00635441 -0.00732517 0)
(0.00203781 -0.017975 0)
(-0.00762093 -0.022262 0)
(-0.00922579 -0.0228513 0)
(-0.0061101 -0.0437597 0)
(-0.00271112 -0.0444217 0)
(-0.0037106 -0.0474827 0)
(-0.00402875 -0.0479047 0)
(-0.00500693 -0.0482582 0)
(-0.00467138 -0.0473491 0)
(-0.00322738 -0.0518561 0)
(-0.00274703 -0.0506665 0)
(-0.000326475 -0.0491326 0)
(0.00117757 -0.0418657 0)
(0.00185408 -0.0441048 0)
(0.0043232 -0.0465618 0)
(0.00473079 -0.0425074 0)
(0.00449118 -0.0481452 0)
(0.000665514 -0.0454204 0)
(0.00067137 -0.0474711 0)
(0.000112948 -0.0470044 0)
(0.000384303 -0.0466493 0)
(0.000237718 -0.0495435 0)
(-0.000495017 -0.0474864 0)
(0.000142011 -0.0463767 0)
(-0.000177964 -0.0467903 0)
(4.23072e-05 -0.0453878 0)
(8.71798e-06 -0.0453209 0)
(-0.000141303 -0.0454445 0)
(-0.000182301 -0.0453726 0)
(-0.000600957 -0.0491505 0)
(-0.000269038 -0.0464289 0)
(-0.00151917 -0.0419961 0)
(-0.00214726 -0.0408242 0)
(-0.00044628 -0.0414286 0)
(-0.00116256 -0.043307 0)
(-0.000480317 -0.0439304 0)
(-0.000610154 -0.0441569 0)
(-0.000655188 -0.0431182 0)
(-0.000365855 -0.0427581 0)
(0.000944233 -0.044219 0)
(0.000696413 -0.0447667 0)
(0.00115423 -0.0448072 0)
(-0.000122092 -0.0449168 0)
(-0.00166937 -0.0462295 0)
(-0.00403789 -0.04771 0)
(-0.00223392 -0.0481503 0)
(0.00229877 -0.0490044 0)
(0.000722644 -0.0487916 0)
(0.00173838 -0.0505171 0)
(0.00423334 -0.0528738 0)
(0.00265031 -0.0537793 0)
(0.00236025 -0.0529098 0)
(3.90096e-12 -4.9128e-05 0)
(3.78388e-12 -4.91424e-05 0)
(-0.00125838 -0.00262032 0)
(3.6703e-12 -4.91563e-05 0)
(-0.00147729 -0.00570219 0)
(-0.00215864 -0.0063357 0)
(-0.00184411 -0.00653954 0)
(-0.00199694 -0.00569999 0)
(-1.15504e-05 -2.89191e-05 0)
(-0.00410392 -0.00175343 0)
(-0.00217064 -0.0103466 0)
(-0.00234877 -0.00959685 0)
(-0.00188363 -0.0153328 0)
(-0.00273721 -0.00979514 0)
(-0.00221786 -0.00906587 0)
(-0.00259819 -0.00872965 0)
(-0.00240544 -0.00908041 0)
(-0.00232136 -0.00854745 0)
(-0.00183647 -0.0104906 0)
(-0.00203438 -0.00877691 0)
(-0.00279549 -0.0116962 0)
(-0.00608288 -0.0106004 0)
(-0.0032583 -0.0201856 0)
(-0.00270194 -0.0173828 0)
(-0.00374542 -0.0155492 0)
(-0.00794208 -0.0211413 0)
(-0.00590751 -0.0111046 0)
(-0.0047194 -0.0200389 0)
(-0.00445903 -0.0447797 0)
(-0.00352139 -0.0501083 0)
(-0.00316636 -0.0534773 0)
(-0.00344726 -0.0551455 0)
(-0.00192468 -0.055134 0)
(-0.00131744 -0.049997 0)
(0.000454499 -0.0477826 0)
(0.00373425 -0.0443314 0)
(0.00310692 -0.0447214 0)
(0.0025466 -0.0452954 0)
(0.00355004 -0.0469725 0)
(0.00269119 -0.0432722 0)
(0.000736677 -0.0456358 0)
(0.00113694 -0.0471475 0)
(-1.91464e-05 -0.04681 0)
(-3.07539e-05 -0.046781 0)
(0.000431864 -0.046747 0)
(0.000371935 -0.047189 0)
(0.000142157 -0.0465023 0)
(-0.000125006 -0.0459999 0)
(-0.000211539 -0.0450018 0)
(-0.000149755 -0.0446171 0)
(0.000164632 -0.0436539 0)
(0.000669428 -0.043868 0)
(0.00176506 -0.0447322 0)
(0.000153801 -0.0431823 0)
(-0.00249898 -0.0401429 0)
(-0.00248406 -0.0380052 0)
(-0.00329171 -0.0380518 0)
(-0.00219943 -0.0412846 0)
(-0.00191839 -0.0442665 0)
(-0.00169249 -0.0438042 0)
(-0.000811181 -0.0455387 0)
(-0.000443105 -0.0453864 0)
(-0.000282429 -0.0458095 0)
(0.00020462 -0.0416196 0)
(3.91504e-05 -0.0445141 0)
(-0.000307271 -0.0463753 0)
(-0.00108095 -0.0476064 0)
(-0.00251044 -0.0486182 0)
(0.00107897 -0.0490786 0)
(0.00174103 -0.0485633 0)
(0.00317998 -0.0494107 0)
(0.00455091 -0.0485655 0)
(0.00432353 -0.0480758 0)
(0.00187309 -0.0513041 0)
(0.000173454 -0.0513571 0)
(7.64986e-11 -4.89704e-05 0)
(7.30391e-11 -4.90045e-05 0)
(3.56013e-12 -4.91698e-05 0)
(6.97358e-11 -4.90369e-05 0)
(-0.00086114 -0.00316859 0)
(0.000235472 -0.0100062 0)
(-0.00090281 -0.00473097 0)
(0.000387289 -0.00933678 0)
(8.91235e-05 -0.0105552 0)
(-0.00121174 -0.00601886 0)
(-0.00206604 -0.00999068 0)
(-0.00225069 -0.00956656 0)
(0.00637952 -0.0120117 0)
(-0.00207645 -0.00836563 0)
(-0.0021308 -0.0196075 0)
(-0.00235916 -0.0256973 0)
(-7.11895e-05 -0.00662282 0)
(0.000127533 -0.0110946 0)
(0.000205333 -0.0116937 0)
(-0.00228236 -0.00747528 0)
(-0.00254319 -0.00730925 0)
(0.00662238 -0.00997257 0)
(-0.00452811 -0.0161137 0)
(-0.00150648 -0.012432 0)
(-0.00162625 -0.00644395 0)
(0.00326242 -0.00860803 0)
(-0.0048882 -0.00236309 0)
(-0.00629535 -0.0121069 0)
(-0.00667254 -0.0216207 0)
(-0.000988747 -0.0449734 0)
(0.000534823 -0.0526766 0)
(-0.000263193 -0.0555097 0)
(-4.72154e-05 -0.0561439 0)
(-0.0031564 -0.0572683 0)
(-0.00219512 -0.0552247 0)
(-0.000853583 -0.0507291 0)
(-0.00101782 -0.0524293 0)
(-0.0022954 -0.0497467 0)
(-0.00311242 -0.0501036 0)
(0.00221583 -0.0479983 0)
(0.00148917 -0.0485393 0)
(0.00110009 -0.04611 0)
(0.000684937 -0.0466395 0)
(0.000287357 -0.0434667 0)
(0.000109556 -0.0446862 0)
(-0.000111945 -0.0457791 0)
(-0.000243257 -0.0461292 0)
(-0.000514475 -0.0453499 0)
(-0.000423981 -0.043817 0)
(0.000292831 -0.0439021 0)
(0.000194262 -0.0415387 0)
(-0.000157636 -0.040244 0)
(0.000745853 -0.0411892 0)
(0.000551601 -0.0393264 0)
(0.000300525 -0.03994 0)
(0.00102899 -0.0390203 0)
(-5.73839e-05 -0.0396713 0)
(-0.00216962 -0.0380793 0)
(-0.00150713 -0.0389291 0)
(-0.00127821 -0.0421337 0)
(0.000165034 -0.046015 0)
(0.000308932 -0.0468419 0)
(9.97672e-05 -0.0488622 0)
(-0.000384719 -0.0450269 0)
(0.000732549 -0.0473822 0)
(0.000307385 -0.0466161 0)
(-0.00265188 -0.0463346 0)
(-0.00235064 -0.0475146 0)
(-0.00333935 -0.0533147 0)
(-0.000205662 -0.0524037 0)
(0.000950255 -0.050162 0)
(0.00308649 -0.0492868 0)
(0.00210154 -0.0473838 0)
(0.00189836 -0.0489084 0)
(-1.03411e-05 -0.0504598 0)
(6.61285e-11 -4.90293e-05 0)
(6.34265e-11 -4.90554e-05 0)
(-1.76562e-05 -1.04301e-05 0)
(6.08348e-11 -4.90804e-05 0)
(-1.68934e-05 -1.24405e-05 0)
(-1.61387e-05 -1.43255e-05 0)
(-0.000492244 -0.00414569 0)
(0.000145701 -0.0108714 0)
(-0.000146449 -0.000836983 0)
(0.000149508 -0.0100681 0)
(-0.000409613 -0.0158922 0)
(-0.000536847 -0.0156238 0)
(-0.000644555 -0.0156889 0)
(-0.000260776 -0.0154481 0)
(-0.000307499 -0.0102808 0)
(0.00165204 -0.00824602 0)
(-0.000118064 -0.0130235 0)
(0.0020232 -0.0139922 0)
(-0.000441181 -0.0112862 0)
(-0.000537551 -0.0102927 0)
(0.000129889 -0.0124821 0)
(0.0031612 -0.0171788 0)
(0.00152418 -0.0123168 0)
(-0.00109173 -0.00858507 0)
(-0.000844309 -0.0122807 0)
(-0.00275024 -0.0112411 0)
(-0.00143844 0.0012263 0)
(-0.00493649 -0.00729726 0)
(-0.00265155 -0.00990634 0)
(-0.00295175 -0.0157996 0)
(-0.00330285 -0.0419154 0)
(-0.00116425 -0.0487336 0)
(-0.0009598 -0.0508333 0)
(-0.000138487 -0.0537373 0)
(-0.00284716 -0.0535701 0)
(-0.00208524 -0.0539383 0)
(-0.00376553 -0.0549885 0)
(-0.00187079 -0.0491767 0)
(-0.00171172 -0.049428 0)
(0.000750488 -0.0503953 0)
(0.00228572 -0.0480557 0)
(0.000894403 -0.0472708 0)
(0.000449502 -0.0429548 0)
(-0.000623605 -0.0441661 0)
(-0.000387002 -0.0446498 0)
(-0.000391408 -0.0451483 0)
(-0.000728398 -0.0447614 0)
(-0.000663924 -0.0427702 0)
(-0.000470918 -0.0408362 0)
(-5.41196e-05 -0.0384259 0)
(0.00015201 -0.0420262 0)
(0.00162314 -0.0389713 0)
(0.000564231 -0.0388813 0)
(0.00119254 -0.0402166 0)
(0.000138908 -0.0381297 0)
(-0.000496767 -0.0410205 0)
(-0.00020484 -0.044101 0)
(6.8859e-07 -0.0446337 0)
(0.00028832 -0.0445941 0)
(-0.000368966 -0.0455582 0)
(0.000267996 -0.0468619 0)
(0.000606479 -0.0473178 0)
(0.00026169 -0.0470129 0)
(-0.000488977 -0.0453998 0)
(-0.000302516 -0.0455713 0)
(-0.000288512 -0.0458558 0)
(-0.00110194 -0.046796 0)
(-0.00153607 -0.050488 0)
(-0.000839334 -0.0536073 0)
(-0.000629953 -0.0509039 0)
(0.00171844 -0.0476948 0)
(0.00311272 -0.050897 0)
(0.00142606 -0.050338 0)
(0.000792602 -0.0466788 0)
(0.000356999 -0.0477455 0)
(-1.19185e-11 -4.90596e-05 0)
(-1.14761e-11 -4.90815e-05 0)
(-0.000766155 8.1628e-05 0)
(-1.105e-11 -4.91026e-05 0)
(-1.92624e-05 -0.00729832 0)
(-0.000208313 -0.00138087 0)
(0.00116213 -0.0106149 0)
(0.00115186 -0.000606168 0)
(0.000900396 -0.00933561 0)
(0.00591171 -0.00796839 0)
(0.000883642 -0.00711413 0)
(-7.56836e-05 -0.00217777 0)
(-1.60964e-05 -0.00421949 0)
(0.00128903 -0.0090194 0)
(-0.00107383 -0.0105138 0)
(-0.00087904 -0.010782 0)
(-0.000519341 -0.0104425 0)
(-8.08848e-05 -0.0108521 0)
(-0.000734307 -0.0105341 0)
(-0.000357563 -0.0151383 0)
(-0.000122897 -0.0135464 0)
(-0.000663688 -0.0130854 0)
(-1.20557e-05 -0.0101395 0)
(-3.16138e-05 -0.00423395 0)
(-0.00104755 -0.0168815 0)
(-0.00387706 -0.0183721 0)
(-0.00292095 -0.0200085 0)
(-0.000993624 -0.0245261 0)
(-0.0027979 -0.0417491 0)
(-0.000819729 -0.0469032 0)
(-0.000467484 -0.045391 0)
(6.65311e-05 -0.0462974 0)
(-0.000883307 -0.0474853 0)
(0.000360027 -0.0492226 0)
(-0.00234128 -0.0507501 0)
(-0.003391 -0.0505054 0)
(-0.00341073 -0.0511604 0)
(-0.00187242 -0.0498352 0)
(-0.00266365 -0.0500856 0)
(0.000924034 -0.0470638 0)
(0.00111847 -0.0447687 0)
(0.000319702 -0.0468301 0)
(0.000232529 -0.0468131 0)
(0.000834012 -0.0465322 0)
(-0.000199428 -0.0442969 0)
(-0.00152219 -0.0434886 0)
(0.000400489 -0.0443267 0)
(-0.00286442 -0.0444269 0)
(-0.00276033 -0.0459694 0)
(-0.00171079 -0.0436231 0)
(-0.00102302 -0.044611 0)
(0.000322311 -0.0453507 0)
(-0.000168138 -0.0430737 0)
(-0.000348744 -0.0412804 0)
(0.000675506 -0.0453714 0)
(0.000786927 -0.0456132 0)
(0.00130719 -0.0461888 0)
(0.000344697 -0.048813 0)
(0.000357141 -0.0487312 0)
(-0.00104176 -0.0473834 0)
(-0.000684383 -0.046537 0)
(-0.000827193 -0.046122 0)
(-0.000656088 -0.0482298 0)
(0.000213904 -0.046729 0)
(-0.00043056 -0.0472025 0)
(-0.000137989 -0.0475488 0)
(-0.000366797 -0.0500188 0)
(-0.00265896 -0.0542776 0)
(-0.00121606 -0.0507856 0)
(0.000219899 -0.0495618 0)
(0.000470387 -0.0499288 0)
(0.000292826 -0.0500203 0)
(9.53909e-05 -0.049261 0)
(0.00075562 -0.0484598 0)
(0.000692063 -0.0476458 0)
(-9.69868e-12 -4.89778e-05 0)
(-9.26481e-12 -4.90111e-05 0)
(-0.000257728 -0.000964747 0)
(-8.85032e-12 -4.90428e-05 0)
(-0.000824221 0.000441979 0)
(-0.000181327 -0.00355541 0)
(0.0002389 -0.00917172 0)
(-0.000247436 -0.000315578 0)
(0.00461967 -0.0112969 0)
(-0.00171998 -0.00714954 0)
(-0.000766926 -0.00499681 0)
(-0.00216296 -0.00647657 0)
(-0.000387719 -0.0100793 0)
(7.35388e-05 -0.010461 0)
(-0.000253637 -0.0139526 0)
(-0.000310724 -0.0146141 0)
(-0.000370932 -0.0161996 0)
(-0.00129264 -0.0132045 0)
(-0.00132974 -0.0119068 0)
(-0.00137892 -0.0103208 0)
(-0.00133136 -0.00947539 0)
(-0.00296267 0.00260363 0)
(-0.00123712 -0.017449 0)
(0.000314149 -0.0126587 0)
(-0.00267827 -0.0147154 0)
(-0.00137457 -0.0230557 0)
(-0.00293571 -0.0405986 0)
(-0.000188146 -0.0444745 0)
(-0.000178492 -0.044567 0)
(-0.00216071 -0.0461633 0)
(-0.00114861 -0.045623 0)
(-0.00226822 -0.0406351 0)
(-0.00425598 -0.0463835 0)
(-0.0028798 -0.0494593 0)
(-0.00405637 -0.0456975 0)
(-0.00164577 -0.0489677 0)
(-0.00123757 -0.0502025 0)
(-0.00139961 -0.049572 0)
(-0.000224164 -0.0466747 0)
(0.000443286 -0.0470844 0)
(0.00124359 -0.0422641 0)
(9.45482e-05 -0.0451497 0)
(-0.000108016 -0.0451977 0)
(0.000796352 -0.0450642 0)
(0.000712217 -0.0424727 0)
(-0.000123302 -0.0421788 0)
(0.000639352 -0.0445881 0)
(-0.000842694 -0.0451336 0)
(-0.00079694 -0.0450269 0)
(0.000246489 -0.0472624 0)
(0.000237961 -0.047659 0)
(0.000518468 -0.051104 0)
(-0.000180926 -0.0510263 0)
(-0.000310027 -0.051175 0)
(0.000132014 -0.0496366 0)
(0.000571031 -0.048805 0)
(0.000667554 -0.049701 0)
(0.000515906 -0.050459 0)
(0.000800314 -0.0507249 0)
(-0.000727375 -0.0490684 0)
(-0.000437919 -0.0487364 0)
(-0.00175918 -0.0502206 0)
(0.000277153 -0.0529357 0)
(-0.000161154 -0.0509283 0)
(0.000889783 -0.0523229 0)
(-0.000876347 -0.0500382 0)
(-0.00198778 -0.0506682 0)
(-0.000442236 -0.0530773 0)
(-0.00113635 -0.051436 0)
(-0.000807951 -0.051808 0)
(0.000411147 -0.0502798 0)
(0.000317479 -0.0504121 0)
(0.000764739 -0.0495229 0)
(0.000433973 -0.0474144 0)
(0.000528023 -0.0469811 0)
(-3.40729e-11 -4.90292e-05 0)
(-3.26783e-11 -4.90553e-05 0)
(0.00014897 0.000540439 0)
(-3.13406e-11 -4.90804e-05 0)
(0.000240303 0.00118436 0)
(0.000188515 5.92543e-05 0)
(-0.00227586 -0.00474665 0)
(-0.000183164 -0.0080478 0)
(-0.00234708 -0.00523361 0)
(-0.000426538 -0.00877789 0)
(-0.00133813 -0.00905531 0)
(-0.00130236 -0.0138257 0)
(-0.00115894 -0.0136705 0)
(-0.00086403 -0.0141391 0)
(-0.000260042 -0.006017 0)
(-0.00121603 -0.0262227 0)
(-0.00215613 -0.0157051 0)
(-0.00204972 -0.0115936 0)
(-0.00125384 -0.00898166 0)
(-0.00189478 -0.00888507 0)
(-0.00121329 -0.00759107 0)
(-0.000843986 -0.0138746 0)
(-0.00263984 -0.00203968 0)
(-0.000926209 0.00770313 0)
(-0.00171465 -0.0204507 0)
(-0.000364132 -0.0405983 0)
(-0.000971229 -0.0446816 0)
(-0.000727949 -0.0430079 0)
(-0.000639155 -0.0443868 0)
(-0.000266104 -0.044513 0)
(-0.000308232 -0.0440698 0)
(-0.00126743 -0.0436488 0)
(-0.0017626 -0.0439895 0)
(-0.000800442 -0.0457517 0)
(-0.000126841 -0.0473093 0)
(-0.000648787 -0.0481325 0)
(-0.000778961 -0.0486644 0)
(-0.000948621 -0.0480222 0)
(-0.000394104 -0.0470597 0)
(0.000145686 -0.0462272 0)
(-0.00112996 -0.0483259 0)
(0.00025029 -0.0454609 0)
(0.00128458 -0.0449735 0)
(0.000192635 -0.0471963 0)
(0.000733012 -0.047256 0)
(0.000721963 -0.0465758 0)
(-0.0012308 -0.0453481 0)
(-0.000102667 -0.0465911 0)
(0.000774086 -0.0478164 0)
(6.45629e-05 -0.0486219 0)
(-0.000477503 -0.049257 0)
(-0.00058046 -0.0500537 0)
(-0.000200464 -0.0489533 0)
(-1.50455e-05 -0.0482998 0)
(0.000518238 -0.0492911 0)
(-3.79138e-05 -0.0505065 0)
(-0.00016642 -0.0506403 0)
(2.39035e-05 -0.0507583 0)
(0.000195524 -0.0512388 0)
(-0.000718671 -0.0511902 0)
(-0.000109939 -0.0540565 0)
(-0.000377547 -0.0537093 0)
(-0.000402553 -0.0537114 0)
(-0.000644159 -0.0555021 0)
(-0.000280865 -0.0527382 0)
(-0.000306278 -0.0524305 0)
(0.000371481 -0.0503463 0)
(-0.000115352 -0.0510087 0)
(-0.000408521 -0.050117 0)
(0.00037995 -0.0509221 0)
(0.000134505 -0.0506457 0)
(0.000193933 -0.0501876 0)
(0.00115894 -0.0487776 0)
(0.00110217 -0.0463132 0)
(0.000804153 -0.045728 0)
(-4.41833e-11 -4.90145e-05 0)
(-4.2375e-11 -4.90421e-05 0)
(0.00257838 -0.00617745 0)
(-4.06406e-11 -4.90685e-05 0)
(-0.000261341 -0.00020146 0)
(0.000902175 0.00100464 0)
(-0.000482493 -0.00648092 0)
(0.00171152 -0.00592218 0)
(-0.000322005 -0.00592427 0)
(0.000575741 -0.00321857 0)
(-0.000263646 -0.00577941 0)
(-0.000176247 -0.00552105 0)
(0.000717319 0.000738863 0)
(-0.000741553 -0.00700209 0)
(-0.00274681 -0.0126197 0)
(-0.00246627 -0.0117455 0)
(-0.00210848 -0.0110447 0)
(-0.00228914 -0.0103029 0)
(-0.00203064 -0.00964879 0)
(-0.00179595 -0.0107217 0)
(-0.00185383 -0.0144159 0)
(-0.00033387 -0.0138945 0)
(-0.00237307 -0.010229 0)
(0.00636829 -0.00683097 0)
(0.0057215 -0.00305973 0)
(-0.000943007 -0.0226267 0)
(0.000928602 -0.0408872 0)
(-0.00063784 -0.0448362 0)
(-0.000407394 -0.0451174 0)
(-4.33146e-05 -0.0448733 0)
(-0.000227423 -0.0452728 0)
(-0.00140893 -0.045638 0)
(-0.000865349 -0.0464711 0)
(-0.000922649 -0.0460927 0)
(-0.000899363 -0.0463366 0)
(-0.000238752 -0.0476405 0)
(0.000115652 -0.0473899 0)
(-3.22997e-05 -0.0453155 0)
(-0.00166756 -0.044682 0)
(-0.000948193 -0.0460521 0)
(-0.00142904 -0.0476917 0)
(0.000928404 -0.0463155 0)
(0.00080589 -0.0468741 0)
(0.00113156 -0.0475586 0)
(2.72741e-05 -0.0481428 0)
(2.07985e-05 -0.0489367 0)
(-5.76422e-06 -0.0486976 0)
(-0.000269036 -0.0488851 0)
(-0.0010877 -0.0468252 0)
(-0.000536952 -0.0470737 0)
(-6.47684e-05 -0.0488169 0)
(-0.000116912 -0.0482719 0)
(2.97667e-05 -0.0492968 0)
(-0.000216422 -0.050201 0)
(0.00031728 -0.0488424 0)
(0.000855216 -0.04827 0)
(0.000140735 -0.0487312 0)
(-0.000377498 -0.0488776 0)
(-0.000330406 -0.0503486 0)
(-4.10258e-05 -0.0518317 0)
(-0.000223346 -0.0523013 0)
(-0.000830547 -0.0541917 0)
(-0.000274803 -0.0551789 0)
(-0.000156611 -0.0498789 0)
(-0.000142824 -0.0522111 0)
(-0.000683356 -0.0516768 0)
(-0.000214661 -0.050451 0)
(-0.000271023 -0.049105 0)
(-0.000338643 -0.0469579 0)
(2.86949e-05 -0.0467226 0)
(0.000141624 -0.0472737 0)
(0.000264709 -0.0462822 0)
(0.000289458 -0.0456605 0)
(5.42358e-05 -0.0453371 0)
(0.000319944 -0.0451597 0)
(2.18357e-11 -4.90589e-05 0)
(2.10285e-11 -4.90808e-05 0)
(-0.000475921 -0.00772965 0)
(2.02512e-11 -4.91018e-05 0)
(0.00059672 -0.000945299 0)
(-0.00192175 -0.0144909 0)
(-0.00121266 -0.00742581 0)
(-0.00129409 -0.00756425 0)
(-0.00197929 -0.00780478 0)
(-0.000267702 -0.00523724 0)
(-0.00237303 -0.00744365 0)
(-0.00175069 -0.00732428 0)
(-0.00103657 -0.0132594 0)
(-0.00105108 -0.014258 0)
(-0.000870043 -0.0132561 0)
(-0.000368481 -0.0141001 0)
(-0.00131467 -0.00819787 0)
(-0.00152031 -0.00801905 0)
(-0.000859695 -0.0154195 0)
(-0.00143243 -0.0129854 0)
(-0.000685945 -0.00661703 0)
(-0.00137607 -0.00611434 0)
(-0.00179194 -0.0175395 0)
(-0.00410469 -0.0167296 0)
(0.00555599 -0.0025553 0)
(0.00934231 -0.00646459 0)
(-0.000861982 -0.0161132 0)
(-0.00331859 -0.0426034 0)
(-0.000605162 -0.0458891 0)
(-0.000596316 -0.0466841 0)
(-8.95444e-05 -0.047135 0)
(-0.00111081 -0.0486277 0)
(-0.00316003 -0.0456168 0)
(-0.00106889 -0.0447367 0)
(-0.00155905 -0.0465421 0)
(-0.00225984 -0.0451713 0)
(-0.000401397 -0.0464598 0)
(-0.000253419 -0.0490021 0)
(-0.000168586 -0.04988 0)
(-0.000404395 -0.0498074 0)
(-0.000700766 -0.0491649 0)
(0.000794052 -0.0486813 0)
(0.000373349 -0.047428 0)
(0.000265584 -0.0474581 0)
(0.000397475 -0.048908 0)
(0.000815924 -0.0477137 0)
(-0.000102585 -0.0475641 0)
(-0.000656278 -0.0467294 0)
(-0.000880824 -0.0483379 0)
(-0.000609165 -0.0493645 0)
(-0.000260833 -0.0464162 0)
(8.86859e-05 -0.0465975 0)
(-0.000106071 -0.0477537 0)
(-1.51264e-06 -0.0487773 0)
(0.000191701 -0.0490825 0)
(0.000149197 -0.0491646 0)
(-2.14006e-06 -0.0496391 0)
(0.000131072 -0.0488978 0)
(-0.000100941 -0.0501045 0)
(0.00014073 -0.0504347 0)
(0.000176487 -0.0508418 0)
(-1.43032e-05 -0.0499435 0)
(-0.00046462 -0.0478823 0)
(-0.000330231 -0.0476734 0)
(-0.000211329 -0.0478557 0)
(-0.000396264 -0.0485666 0)
(-0.000420473 -0.0465622 0)
(-0.000220854 -0.0441703 0)
(-6.75734e-08 -0.043189 0)
(0.000305417 -0.0435473 0)
(2.99744e-05 -0.045381 0)
(-0.000274494 -0.0458406 0)
(5.61103e-05 -0.0457113 0)
(0.000116032 -0.0460229 0)
(-0.000153456 -0.0453206 0)
(3.78161e-11 -4.89764e-05 0)
(3.61081e-11 -4.90097e-05 0)
(-0.000141247 -0.000144945 0)
(3.4477e-11 -4.90414e-05 0)
(-0.00148527 -0.0136193 0)
(-0.000294404 -0.000363085 0)
(-0.000898301 -0.00620572 0)
(-0.000998697 -0.00518139 0)
(-0.00205602 -0.0081392 0)
(-0.000974839 -0.00514662 0)
(-0.0016512 -0.00539949 0)
(-0.000397516 -0.00194959 0)
(-0.000756745 -0.0101139 0)
(-0.000684281 -0.010404 0)
(0.00155455 -0.0151329 0)
(0.000637134 -0.012645 0)
(0.000286028 -0.0111913 0)
(0.000118729 -0.0102217 0)
(0.000139847 -0.00963226 0)
(7.89955e-05 -0.00889136 0)
(0.000121015 -0.00835263 0)
(0.000210637 -0.00794329 0)
(-0.00149821 -0.00811097 0)
(-0.00256309 0.00112175 0)
(-0.0017502 -0.0109293 0)
(0.00734354 -0.0130481 0)
(0.00213414 -0.0122271 0)
(-0.00038941 -0.0423551 0)