# Selection   : all 
# Volume      : 7.500000e-05
# Time        	max(cloud:alpha)
0             	0.000000e+00
0.05          	3.999115e-02
0.05025       	3.999115e-02
0.0505497     	3.999115e-02
0.050908      	3.999115e-02
0.0513349     	3.999115e-02
0.0518472     	3.999115e-02
0.0524567     	3.999115e-02
0.0531881     	3.999115e-02
0.054055      	3.999115e-02
0.055076      	3.999115e-02
0.0562902     	3.999115e-02
0.0577472     	5.998673e-02
0.0594373     	5.998673e-02
0.0610598     	5.998673e-02
0.0630068     	5.998673e-02
0.0651829     	5.998673e-02
0.067359      	5.998673e-02
0.069535      	5.998673e-02
0.0718785     	5.998673e-02
0.0740417     	5.998673e-02
0.0762049     	7.998230e-02
0.0783681     	7.998230e-02
0.0805313     	7.998230e-02
0.0826945     	5.998673e-02
0.0851667     	5.998673e-02
0.0872857     	5.998673e-02
0.0894048     	5.998673e-02
0.0915238     	5.998673e-02
0.0936429     	7.998230e-02
0.0957619     	7.998230e-02
0.097881      	9.997788e-02
0.1           	9.997788e-02
0.102083      	9.997788e-02
0.104479      	9.997788e-02
0.106755      	9.997788e-02
0.109158      	1.199735e-01
0.111307      	1.399690e-01
0.113344      	1.199735e-01
0.115635      	1.199735e-01
0.117656      	1.199735e-01
0.119813      	1.199735e-01
0.121825      	1.199735e-01
0.123838      	1.399690e-01
0.126018      	1.399690e-01
0.128198      	1.399690e-01
0.130015      	1.399690e-01
0.132013      	1.399690e-01
0.134012      	1.399690e-01
0.13601       	1.399690e-01
0.138009      	1.599646e-01
0.140007      	1.799602e-01
0.142006      	1.799602e-01
0.144004      	1.799602e-01
0.146003      	1.799602e-01
0.148001      	1.799602e-01
0.15          	1.799602e-01
0.151923      	1.799602e-01
0.153926      	1.799602e-01
0.156021      	1.799602e-01
0.158115      	1.999558e-01
0.160209      	1.999558e-01
0.162303      	1.999558e-01
0.164398      	2.199513e-01
0.166271      	2.199513e-01
0.168379      	2.199513e-01
0.170136      	2.199513e-01
0.172127      	2.199513e-01
0.174118      	2.199513e-01
0.176109      	2.199513e-01
0.1781        	2.199513e-01
0.18029       	2.199513e-01
0.182261      	2.199513e-01
0.184232      	2.199513e-01
0.186203      	2.199513e-01
0.188174      	2.199513e-01
0.190145      	2.399469e-01
0.192116      	2.599425e-01
0.194087      	2.599425e-01
0.196058      	2.599425e-01
0.198029      	2.599425e-01
0.2           	2.599425e-01
0.202174      	2.599425e-01
0.204348      	2.599425e-01
0.206522      	2.599425e-01
0.20881       	2.799381e-01
0.21087       	2.799381e-01
0.213043      	2.799381e-01
0.215217      	2.799381e-01
0.217391      	2.799381e-01
0.219565      	2.799381e-01
0.221739      	2.799381e-01
0.223758      	2.799381e-01
0.225945      	2.999336e-01
0.228131      	2.799381e-01
0.230318      	2.999336e-01
0.232505      	2.999336e-01
0.234692      	2.999336e-01
0.236879      	2.999336e-01
0.239066      	2.999336e-01
0.241253      	2.999336e-01
0.243439      	2.999336e-01
0.245626      	2.999336e-01
0.247813      	2.799381e-01
0.25          	2.999336e-01
0.252273      	3.199292e-01
0.254785      	3.399248e-01
0.257045      	3.199292e-01
0.259432      	3.599204e-01
0.261818      	3.599204e-01
0.263939      	3.599204e-01
0.266343      	3.599204e-01
0.268587      	3.399248e-01
0.271205      	3.599204e-01
0.273262      	3.599204e-01
0.275692      	3.599204e-01
0.277902      	3.599204e-01
0.279744      	3.599204e-01
0.281769      	3.599204e-01
0.284048      	3.599204e-01
0.286327      	3.799159e-01
0.288606      	3.599204e-01
0.290885      	3.799159e-01
0.293164      	3.599204e-01
0.295442      	3.599204e-01
0.297721      	3.599204e-01
0.3           	3.599204e-01
0.302381      	3.399248e-01
0.304762      	3.399248e-01
0.307275      	3.399248e-01
0.309649      	3.399248e-01
0.312171      	3.399248e-01
0.314062      	3.399248e-01
0.316308      	3.399248e-01
0.318715      	3.599204e-01
0.320453      	3.599204e-01
0.322423      	3.599204e-01
0.324721      	3.599204e-01
0.327019      	3.599204e-01
0.329572      	3.799159e-01
0.331842      	3.799159e-01
0.33386       	3.599204e-01
0.335653      	3.599204e-01
0.337703      	3.599204e-01
0.340162      	3.799159e-01
0.342622      	3.799159e-01
0.345081      	3.799159e-01
0.347541      	3.799159e-01
0.35          	3.999115e-01
0.352632      	3.799159e-01
0.355         	3.799159e-01
0.35725       	3.999115e-01
0.359922      	3.999115e-01
0.362427      	3.999115e-01
0.364932      	3.999115e-01
0.367437      	3.999115e-01
0.37015       	4.199071e-01
0.372446      	3.999115e-01
0.374951      	4.199071e-01
0.377456      	4.199071e-01
0.379961      	4.399027e-01
0.382188      	4.199071e-01
0.384732      	4.199071e-01
0.387277      	4.399027e-01
0.389397      	4.399027e-01
0.391518      	4.399027e-01
0.393638      	4.399027e-01
0.395759      	4.399027e-01
0.397879      	4.598983e-01
0.4           	4.598983e-01
0.4025        	4.598983e-01
0.404565      	4.598983e-01
0.406957      	4.598983e-01
0.409647      	4.598983e-01
0.411481      	4.399027e-01
0.413315      	4.399027e-01
0.415473      	4.598983e-01
0.417939      	4.598983e-01
0.420854      	4.598983e-01
0.422936      	4.598983e-01
0.425396      	4.798938e-01
0.427857      	4.798938e-01
0.430625      	4.798938e-01
0.433046      	4.798938e-01
0.435468      	4.598983e-01
0.437544      	4.598983e-01
0.440035      	4.798938e-01
0.442028      	4.798938e-01
0.444021      	4.798938e-01
0.446014      	4.798938e-01
0.448007      	4.798938e-01
0.45          	4.798938e-01
0.452381      	4.998894e-01
0.454286      	4.998894e-01
0.456463      	4.998894e-01
0.459024      	4.998894e-01
0.46195       	4.998894e-01
0.464329      	5.198850e-01
0.466877      	5.398806e-01
0.469085      	5.398806e-01
0.471293      	5.398806e-01
0.473501      	5.398806e-01
0.476151      	5.398806e-01
0.478536      	5.398806e-01
0.480682      	5.398806e-01
0.482614      	5.398806e-01
0.484787      	5.598761e-01
0.487323      	5.598761e-01
0.489858      	5.598761e-01
0.492394      	5.598761e-01
0.494295      	5.598761e-01
0.496197      	5.598761e-01
0.498098      	5.798717e-01
0.5           	5.798717e-01
0.502083      	5.798717e-01
0.504167      	5.798717e-01
0.505929      	5.798717e-01
0.508028      	5.798717e-01
0.510497      	5.798717e-01
0.513131      	5.798717e-01
0.515764      	5.798717e-01
0.51821       	5.798717e-01
0.520859      	5.798717e-01
0.5231        	5.798717e-01
0.525342      	5.798717e-01
0.527584      	5.798717e-01
0.529621      	5.998673e-01
0.531886      	5.998673e-01
0.53415       	5.998673e-01
0.536131      	5.998673e-01
0.538443      	5.998673e-01
0.540369      	5.998673e-01
0.542295      	5.998673e-01
0.544221      	5.998673e-01
0.546148      	5.998673e-01
0.548074      	5.998673e-01
0.55          	5.998673e-01
0.552273      	5.998673e-01
0.554924      	5.998673e-01
0.557576      	5.998673e-01
0.559809      	5.998673e-01
0.562488      	5.998673e-01
0.563931      	6.198629e-01
0.565648      	6.198629e-01
0.567669      	6.198629e-01
0.569978      	6.198629e-01
0.572708      	6.398584e-01
0.575189      	6.398584e-01
0.57767       	6.398584e-01
0.5797        	6.598540e-01
0.58173       	6.598540e-01
0.584014      	6.598540e-01
0.586678      	6.798496e-01
0.588343      	6.798496e-01
0.5898        	6.798496e-01
0.5915        	6.798496e-01
0.5932        	6.798496e-01
0.5949        	6.798496e-01
0.5966        	6.798496e-01
0.5983        	6.798496e-01
0.59915       	6.798496e-01
0.6           	6.798496e-01
0.601         	6.798496e-01
0.602195      	6.798496e-01
0.603601      	6.798496e-01
0.605258      	6.598540e-01
0.607204      	6.598540e-01
0.609456      	6.598540e-01
0.612159      	6.598540e-01
0.61507       	6.598540e-01
0.616816      	7.198407e-01
0.618475      	6.598540e-01
0.619789      	6.598540e-01
0.6213        	6.798496e-01
0.623093      	6.798496e-01
0.625163      	6.798496e-01
0.627647      	6.798496e-01
0.63013       	6.798496e-01
0.632969      	6.998452e-01
0.634861      	6.798496e-01
0.636543      	6.998452e-01
0.638466      	6.998452e-01
0.640114      	6.998452e-01
0.641526      	7.598319e-01
0.642736      	6.998452e-01
0.643644      	7.198407e-01
0.644704      	6.998452e-01
0.645763      	7.198407e-01
0.646822      	7.198407e-01
0.647881      	7.198407e-01
0.648941      	7.198407e-01
0.65          	7.198407e-01
0.65125       	7.198407e-01
0.652727      	7.198407e-01
0.654478      	7.398363e-01
0.656048      	7.398363e-01
0.657879      	7.398363e-01
0.659985      	7.398363e-01
0.662208      	7.798275e-01
0.664308      	7.598319e-01
0.666291      	7.998230e-01
0.668274      	7.598319e-01
0.669943      	7.598319e-01
0.671947      	7.598319e-01
0.673951      	7.598319e-01
0.676319      	7.598319e-01
0.677898      	7.598319e-01
0.678902      	7.598319e-01
0.680075      	7.598319e-01
0.681403      	7.598319e-01
0.682953      	7.598319e-01
0.684657      	7.598319e-01
0.686575      	7.598319e-01
0.688493      	7.798275e-01
0.690794      	7.798275e-01
0.693096      	7.798275e-01
0.694822      	7.798275e-01
0.696548      	7.798275e-01
0.698274      	7.798275e-01
0.7           	7.598319e-01
0.702         	7.598319e-01
0.7036        	7.598319e-01
0.705257      	7.798275e-01
0.707047      	8.198186e-01
0.708699      	7.598319e-01
0.709914      	7.598319e-01
0.711345      	7.598319e-01
0.713026      	7.798275e-01
0.714875      	7.598319e-01
0.715878      	7.598319e-01
0.716731      	7.598319e-01
0.717739      	7.598319e-01
0.718852      	7.598319e-01
0.72015       	7.598319e-01
0.721642      	7.598319e-01
0.72331       	7.598319e-01
0.724793      	7.598319e-01
0.726474      	7.598319e-01
0.728434      	7.598319e-01
0.729782      	7.598319e-01
0.730745      	7.798275e-01
0.731877      	7.798275e-01
0.733086      	7.798275e-01
0.734081      	7.798275e-01
0.735218      	7.798275e-01
0.736449      	7.798275e-01
0.737417      	7.998230e-01
0.738256      	7.998230e-01
0.739235      	7.998230e-01
0.740004      	7.998230e-01
0.740559      	7.998230e-01
0.741189      	7.998230e-01
0.741923      	7.998230e-01
0.742731      	7.998230e-01
0.743639      	7.998230e-01
0.744169      	7.998230e-01
0.744752      	7.998230e-01
0.745408      	7.998230e-01
0.746174      	7.998230e-01
0.746811      	7.998230e-01
0.747449      	7.998230e-01
0.747959      	7.998230e-01
0.748469      	8.198186e-01
0.74898       	7.998230e-01
0.74949       	7.998230e-01
0.75          	7.998230e-01
0.75061       	7.998230e-01
0.751336      	7.998230e-01
0.752205      	7.998230e-01
0.753244      	7.998230e-01
0.754475      	7.998230e-01
0.755943      	7.998230e-01
0.757517      	8.198186e-01
0.758887      	7.998230e-01
0.760133      	7.798275e-01
0.761609      	7.798275e-01
0.763354      	7.998230e-01
0.76539       	7.998230e-01
0.767553      	7.998230e-01
0.769871      	7.998230e-01
0.772023      	7.998230e-01
0.773496      	7.998230e-01
0.774891      	7.998230e-01
0.776564      	7.998230e-01
0.778517      	7.998230e-01
0.77986       	8.398142e-01
0.781409      	8.198186e-01
0.783099      	8.198186e-01
0.784636      	8.198186e-01
0.786172      	8.198186e-01
0.787555      	8.798054e-01
0.788686      	7.998230e-01
0.789282      	7.998230e-01
0.789996      	7.998230e-01
0.79083       	7.998230e-01
0.791747      	7.998230e-01
0.792779      	7.998230e-01
0.793982      	7.998230e-01
0.795186      	7.998230e-01
0.796389      	7.998230e-01
0.797593      	8.198186e-01
0.798796      	8.198186e-01
0.8           	8.198186e-01
0.801429      	8.198186e-01
0.803103      	8.198186e-01
0.805057      	8.198186e-01
0.806786      	8.198186e-01
0.808844      	8.198186e-01
0.810902      	8.198186e-01
0.813345      	8.198186e-01
0.815636      	8.198186e-01
0.817658      	8.198186e-01
0.819275      	8.398142e-01
0.820738      	8.198186e-01
0.822068      	8.198186e-01
0.82362       	8.398142e-01
0.825378      	8.198186e-01
0.82743       	8.398142e-01
0.829687      	8.198186e-01
0.831041      	8.198186e-01
0.832621      	8.198186e-01
0.834359      	8.198186e-01
0.836314      	8.198186e-01
0.838269      	8.198186e-01
0.840615      	8.398142e-01
0.842492      	8.198186e-01
0.843994      	8.398142e-01
0.845495      	8.198186e-01
0.846396      	8.198186e-01
0.847297      	8.198186e-01
0.848198      	8.198186e-01
0.849099      	8.198186e-01
0.85          	8.198186e-01
0.851064      	8.198186e-01
0.852319      	8.198186e-01
0.853809      	8.398142e-01
0.855585      	8.198186e-01
0.8577        	8.598098e-01
0.859463      	8.398142e-01
0.861084      	8.598098e-01
0.86303       	8.398142e-01
0.865341      	8.598098e-01
0.867816      	8.398142e-01
0.869709      	8.598098e-01
0.871603      	8.198186e-01
0.873273      	8.598098e-01
0.874609      	8.398142e-01
0.876196      	8.598098e-01
0.877684      	8.398142e-01
0.878997      	8.598098e-01
0.880309      	8.598098e-01
0.881468      	8.598098e-01
0.882626      	8.398142e-01
0.883648      	8.598098e-01
0.88467       	8.398142e-01
0.885849      	8.398142e-01
0.887264      	8.398142e-01
0.888856      	8.398142e-01
0.890714      	8.598098e-01
0.892571      	8.398142e-01
0.894428      	8.598098e-01
0.895821      	8.598098e-01
0.896657      	8.598098e-01
0.897493      	8.598098e-01
0.898328      	8.598098e-01
0.899164      	8.598098e-01
0.9           	8.598098e-01
0.901         	8.598098e-01
0.901907      	8.398142e-01
0.902594      	8.598098e-01
0.903412      	8.598098e-01
0.904382      	8.798054e-01
0.905523      	8.398142e-01
0.906582      	8.398142e-01
0.907822      	8.398142e-01
0.909063      	8.398142e-01
0.910525      	8.398142e-01
0.912241      	8.598098e-01
0.914228      	8.598098e-01
0.915784      	8.798054e-01
0.917585      	8.798054e-01
0.919491      	8.798054e-01
0.921017      	8.798054e-01
0.922224      	8.798054e-01
0.923253      	8.798054e-01
0.924368      	8.798054e-01
0.925283      	8.798054e-01
0.92601       	8.798054e-01
0.926737      	8.798054e-01
0.927599      	8.798054e-01
0.92846       	8.798054e-01
0.929486      	8.798054e-01
0.930512      	8.798054e-01
0.931291      	8.798054e-01
0.93204       	8.798054e-01
0.932659      	8.798054e-01
0.933218      	8.798054e-01
0.933889      	8.798054e-01
0.934695      	8.798054e-01
0.935391      	8.798054e-01
0.935999      	8.798054e-01
0.936699      	8.798054e-01
0.937531      	8.798054e-01
0.93849       	8.998009e-01
0.939641      	8.798054e-01
0.940936      	8.798054e-01
0.942447      	8.798054e-01
0.943957      	8.798054e-01
0.945468      	8.798054e-01
0.946601      	8.798054e-01
0.947451      	8.798054e-01
0.9483        	8.798054e-01
0.94915       	8.798054e-01
0.95          	8.798054e-01
0.951         	8.798054e-01
0.952195      	8.798054e-01
0.953601      	8.798054e-01
0.955258      	8.798054e-01
0.956915      	8.798054e-01
0.958262      	8.798054e-01
0.959332      	8.798054e-01
0.960603      	8.798054e-01
0.962118      	8.798054e-01
0.963266      	8.798054e-01
0.964627      	8.798054e-01
0.966234      	8.798054e-01
0.96811       	8.798054e-01
0.969882      	8.798054e-01
0.970854      	8.998009e-01
0.971975      	8.998009e-01
0.972799      	8.998009e-01
0.97377       	8.998009e-01
0.974542      	8.998009e-01
0.975451      	8.998009e-01
0.976518      	8.998009e-01
0.977754      	8.998009e-01
0.978449      	8.998009e-01
0.979278      	8.998009e-01
0.980265      	8.998009e-01
0.981252      	8.998009e-01
0.982424      	8.998009e-01
0.983302      	8.998009e-01
0.984346      	8.998009e-01
0.985129      	8.998009e-01
0.986058      	8.998009e-01
0.986929      	8.998009e-01
0.987935      	8.998009e-01
0.98894       	8.998009e-01
0.989862      	8.998009e-01
0.990369      	8.998009e-01
0.990971      	8.998009e-01
0.991665      	8.998009e-01
0.992499      	8.998009e-01
0.993332      	8.998009e-01
0.993725      	8.998009e-01
0.993976      	8.998009e-01
0.994249      	8.998009e-01
0.994455      	8.998009e-01
0.994628      	8.998009e-01
0.994813      	8.998009e-01
0.994966      	8.998009e-01
0.995146      	8.998009e-01
0.995357      	8.998009e-01
0.995511      	8.998009e-01
0.995565      	8.998009e-01
0.995618      	8.998009e-01
0.995682      	8.998009e-01
0.995758      	8.998009e-01
0.995819      	8.998009e-01
0.995874      	8.998009e-01
0.99594       	8.998009e-01
0.996018      	8.998009e-01
0.996104      	8.998009e-01
0.996207      	8.998009e-01
0.996329      	8.998009e-01
0.996476      	8.998009e-01
0.996593      	8.998009e-01
0.996681      	8.998009e-01
0.996784      	8.998009e-01
0.996908      	8.998009e-01
0.997049      	8.998009e-01
0.997213      	8.998009e-01
0.997398      	8.998009e-01
0.997615      	8.998009e-01
0.997854      	8.998009e-01
0.998122      	8.998009e-01
0.998331      	8.998009e-01
0.998569      	8.998009e-01
0.998855      	8.998009e-01
0.999142      	8.998009e-01
0.999428      	8.998009e-01
0.999571      	8.998009e-01
0.999714      	8.998009e-01
0.999857      	8.998009e-01
1             	8.998009e-01
