/*--------------------------------*- C++ -*----------------------------------*\
  =========                 |
  \\      /  F ield         | OpenFOAM: The Open Source CFD Toolbox
   \\    /   O peration     | Website:  https://openfoam.org
    \\  /    A nd           | Version:  12
     \\/     M anipulation  |
\*---------------------------------------------------------------------------*/
FoamFile
{
    format      ascii;
    class       IOPosition;
    location    "0.8/lagrangian/cloud";
    object      positions;
}
// * * * * * * * * * * * * * * * * * * * * * * * * * * * * * * * * * * * * * //

1931
(
(0.0363311 0.481834 0.442375 0.0394591) 76 3 2
(0.0865866 0.456707 0.190133 0.266574) 0 15075 2
(0.221635 0.389182 0.118806 0.270376) 1 0 1
(0.132157 0.433922 0.255766 0.178155) 1 2 1
(0.200578 0.399711 0.0593708 0.34034) 3 7 2
(0.249353 0.375324 0.105367 0.269956) 4 9 2
(0.239985 0.0575527 0.322455 0.380008) 5 8 2
(0.124586 0.115434 0.322273 0.437707) 6 10 2
(0.262983 0.0136289 0.368509 0.35488) 6 12 2
(0.00058956 0.499705 0.365277 0.134428) 83 17 2
(0.40299 0.133546 0.298505 0.164958) 7 7382 2
(0.559311 0.220344 0.0643624 0.155982) 8 7383 1
(0.0585663 0.470717 0.268013 0.202704) 9 16 1
(0.156622 0.421689 0.299506 0.122183) 9 18 1
(0.124963 0.107165 0.437519 0.330353) 10 20 2
(0.325229 0.0812354 0.25615 0.337385) 11 23 1
(0.300505 0.185104 0.164643 0.349747) 12 25 1
(0.256537 0.244532 0.1272 0.371732) 13 27 1
(0.280067 0.144016 0.21595 0.359966) 14 29 1
(0.390211 0.187975 0.11692 0.304894) 15 31 1
(0.442956 0.14813 0.130391 0.278522) 16 33 1
(0.476208 0.261896 0.223473 0.0384232) 17 35 2
(0.0289687 0.485516 0.223563 0.261953) 18 34 1
(0.476222 0.261889 0.216832 0.0450568) 18 36 1
(0.468924 0.185952 0.265538 0.0795863) 19 7394 2
(0.444837 0.277582 0.00138949 0.276192) 20 7395 1
(0.495521 0.158432 0.252239 0.093807) 22 7397 2
(0.458686 0.243828 0.0268285 0.270657) 24 49 1
(0.211515 0.394242 0.116886 0.277356) 25 51 2
(0.10361 0.129886 0.318309 0.448195) 26 50 2
(0.138634 0.198205 0.430683 0.232478) 26 52 2
(0.425179 0.194669 0.28741 0.0927417) 27 7402 2
(0.246451 0.376775 0.297289 0.0794855) 28 56 1
(0.418247 0.000870119 0.290876 0.290006) 29 7404 2
(0.486209 0.256895 0.180824 0.076071) 31 60 1
(0.177054 0.0280967 0.383376 0.411473) 32 62 2
(0.232403 0.104892 0.383799 0.278906) 32 64 2
(0.527705 0.233063 0.236147 0.00308474) 34 7409 2
(0.197325 0.195119 0.401337 0.206218) 109 69 1
(0.327163 0.0420219 0.336419 0.294397) 35 70 2
(0.444079 0.0561375 0.221823 0.27796) 36 73 1
(0.395612 0.302194 0.0373227 0.264871) 37 7412 1
(0.158063 0.00386453 0.417104 0.420969) 38 74 2
(0.289698 0.0688986 0.286252 0.355151) 38 77 1
(0.237886 0.381057 0.315865 0.065192) 39 79 2
(0.205945 0.0401798 0.356848 0.397028) 40 78 2
(0.190917 0.227958 0.176583 0.404542) 40 81 1
(0.412015 0.293992 0.236414 0.057578) 41 82 1
(0.402942 0.0202941 0.298529 0.278235) 42 7417 2
(0.376212 0.311894 0.310253 0.00164093) 43 86 1
(0.0845934 0.457703 0.241292 0.216411) 45 88 1
(0.0735778 0.335738 0.127473 0.463211) 45 91 1
(0.294975 0.352512 0.235661 0.116852) 46 93 2
(0.534862 0.175411 0.0571584 0.232569) 75 150 1
(0.495353 0.204005 0.252324 0.0483182) 80 11 1
(0.579283 0.110731 0.0996269 0.210358) 81 162 1
(0.532449 0.233776 0.0561813 0.177594) 82 163 1
(0.555832 0.06043 0.222084 0.161654) 83 17 1
(0.00564247 0.497179 0.333182 0.163997) 85 21 2
(0.0974367 0.451282 0.427473 0.0238084) 158 314 1
(0.319387 0.340307 0.229734 0.110572) 158 312 1
(0.131156 0.0956387 0.338783 0.434422) 84 168 1
(0.260295 0.369852 0.192807 0.177045) 85 170 2
(0.304853 0.0433001 0.304273 0.347574) 85 170 1
(0.230375 0.384812 0.0651992 0.319613) 86 172 2
(0.286694 0.327957 0.0286958 0.356653) 86 172 1
(0.0162065 0.240555 0.491897 0.251341) 86 171 2
(0.0602114 0.469894 0.16876 0.301135) 91 179 1
(0.541224 0.229388 0.133183 0.0962054) 92 35 2
(0.266566 0.181504 0.366717 0.185213) 93 37 1
(0.215325 0.199045 0.392338 0.193293) 94 39 1
(0.0372622 0.481369 0.23117 0.250199) 21 43 2
(0.0424419 0.299421 0.478779 0.179358) 97 45 1
(0.238579 0.380711 0.310135 0.070576) 95 190 2
(0.32428 0.33786 0.0520722 0.285788) 96 192 2
(0.104348 0.0942617 0.447826 0.353564) 96 191 2
(0.514813 0.152997 0.242594 0.089597) 100 51 1
(0.302769 0.301834 0.348616 0.0467811) 102 55 1
(0.0021606 0.49892 0.45981 0.0391101) 104 59 2
(0.111873 0.353696 0.444063 0.0903675) 175 200 1
(0.282911 0.358545 0.0195787 0.338966) 176 202 2
(0.0835807 0.447434 0.0107754 0.45821) 102 204 1
(0.0542714 0.084338 0.472864 0.388526) 102 203 2
(0.228174 0.385913 0.304943 0.0809703) 103 206 2
(0.180749 0.0826069 0.327019 0.409625) 103 206 1
(0.219748 0.390126 0.17457 0.215556) 104 208 2
(0.244386 0.034042 0.343765 0.377807) 104 208 1
(0.287757 0.356122 0.187002 0.16912) 108 67 2
(0.394731 0.302634 0.122998 0.179637) 110 71 2
(0.542302 0.228849 0.120861 0.107987) 111 73 2
(0.463792 0.268104 0.223504 0.0445998) 112 75 2
(0.402815 0.298592 0.228077 0.0705156) 113 223 1
(0.104934 0.447533 0.380046 0.0674871) 114 225 1
(0.142824 0.427107 0.428588 0.00148131) 114 227 2
(0.0816095 0.459195 0.224753 0.234442) 116 229 1
(0.599253 0.200374 0.123047 0.0773264) 116 231 1
(0.581668 0.209166 0.186969 0.0221976) 187 372 1
(0.446606 0.150295 0.276697 0.126402) 188 226 1
(0.112408 0.443796 0.0280703 0.415726) 151 298 1
(0.238015 0.380993 0.100617 0.280375) 77 154 2
(0.0164186 0.491791 0.374803 0.116987) 150 299 2
(0.168622 0.415689 0.09129 0.324399) 151 301 2
(0.277532 0.319327 0.0419067 0.361234) 151 301 1
(0.242916 0.126404 0.252138 0.378542) 152 300 2
(0.267002 0.105203 0.366499 0.261297) 152 302 2
(0.400978 0.114622 0.184889 0.299511) 154 307 1
(0.177341 0.411329 0.0790772 0.332252) 232 313 2
(0.176788 0.411606 0.121785 0.289821) 233 315 2
(0.0706943 0.0688146 0.395838 0.464653) 159 314 2
(0.418543 0.265984 0.0247445 0.290729) 161 318 2
(0.426944 0.286528 0.20622 0.0803081) 162 174 2
(0.0444177 0.477791 0.107916 0.369875) 163 322 1
(0.0859682 0.457016 0.402911 0.0541053) 163 324 1
(0.120967 0.439516 0.0310455 0.408471) 165 326 1
(0.168389 0.415806 0.254757 0.161049) 166 182 2
(0.00483908 0.0725404 0.42504 0.49758) 93 186 1
(0.132715 0.433643 0.0269876 0.406655) 241 477 1
(0.164993 0.0743443 0.343159 0.417504) 166 331 1
(0.168125 0.23899 0.176947 0.415937) 167 333 1
(0.188113 0.405943 0.1484 0.257544) 168 335 2
(0.251957 0.0919619 0.282059 0.374021) 168 335 1
(0.220605 0.389698 0.161003 0.228695) 169 337 2
(0.201976 0.12327 0.275742 0.399012) 169 337 1
(0.215388 0.392306 0.206462 0.185844) 170 339 2
(0.00955094 0.129402 0.495225 0.365822) 170 338 2
(0.262843 0.0380192 0.330559 0.368579) 171 341 1
(0.192665 0.0445341 0.403667 0.359133) 172 342 2
(0.256614 0.0410841 0.330609 0.371693) 174 347 1
(0.133605 0.433197 0.0250312 0.408166) 176 351 2
(0.14013 0.429935 0.081519 0.348416) 177 353 2
(0.173568 0.413216 0.0518168 0.361399) 178 355 2
(0.185849 0.407076 0.0152008 0.391875) 179 357 2
(0.239361 0.0836029 0.38032 0.296717) 180 210 1
(0.173584 0.413208 0.393314 0.0198938) 181 360 1
(0.176011 0.411995 0.289648 0.122346) 183 216 2
(0.082577 0.101367 0.458711 0.357345) 184 218 1
(0.0852747 0.457363 0.283314 0.174049) 183 365 2
(0.118743 0.0988415 0.341787 0.440628) 184 364 2
(0.375994 0.312003 0.105462 0.206542) 185 220 2
(0.219848 0.390076 0.0840059 0.30607) 186 368 1
(0.286867 0.356567 0.272198 0.0843687) 186 370 1
(0.668031 0.165985 0.14537 0.0206144) 226 449 1
(0.443973 0.145594 0.278014 0.13242) 227 303 1
(0.224204 0.0179102 0.387898 0.369988) 228 305 1
(0.00901548 0.495492 0.237082 0.258411) 231 457 1
(0.117196 0.0362806 0.405121 0.441402) 232 459 2
(0.0789596 0.46052 0.153738 0.306782) 233 464 2
(0.437494 0.281253 0.178884 0.102369) 234 317 2
(0.374457 0.312772 0.0144514 0.29832) 235 465 1
(0.359262 0.320369 0.305903 0.0144663) 236 321 2
(0.156629 0.421685 0.0646697 0.357016) 237 469 1
(0.0438573 0.478071 0.375987 0.102084) 237 471 1
(0.123949 0.438025 0.309406 0.128619) 239 327 2
(0.220604 0.225791 0.389698 0.163907) 313 474 1
(0.217193 0.391404 0.331938 0.0594654) 239 476 2
(0.169381 0.0804545 0.334855 0.41531) 239 476 1
(0.180346 0.409827 0.389585 0.0202419) 240 478 2
(0.134945 0.432528 0.275204 0.157324) 241 480 2
(0.114042 0.0398718 0.442979 0.403107) 241 479 2
(0.170758 0.15824 0.256381 0.414621) 242 482 1
(0.164724 0.234925 0.182713 0.417638) 243 484 1
(0.194067 0.243365 0.159602 0.402967) 244 486 1
(0.222721 0.281888 0.106752 0.38864) 245 488 1
(0.256683 0.284763 0.0868953 0.371658) 246 490 1
(0.268006 0.244036 0.121961 0.365997) 247 492 1
(0.382314 0.308843 0.243654 0.0651888) 248 493 1
(0.244287 0.377857 0.131717 0.246139) 250 495 1
(0.468637 0.265681 0.179159 0.0865224) 251 351 2
(0.284648 0.357676 0.106117 0.251559) 252 502 2
(0.242593 0.378703 0.0266832 0.35202) 253 504 2
(0.103724 0.0753883 0.372749 0.448138) 254 503 2
(0.115457 0.0696783 0.442272 0.372593) 254 505 2
(0.232741 0.032037 0.351593 0.38363) 255 508 1
(0.182175 0.00589644 0.408913 0.403016) 256 509 2
(0.100796 0.449602 0.181723 0.267879) 258 514 2
(0.465677 0.267161 0.253084 0.0140776) 259 367 2
(0.0412809 0.47936 0.115425 0.363935) 260 515 1
(0.397693 0.301154 0.0394144 0.261739) 260 369 2
(0.342021 0.328989 0.29525 0.0337397) 261 371 2
(0.212785 0.393608 0.377514 0.0160939) 300 448 2
(0.240931 0.0659176 0.379534 0.313617) 301 450 1
(0.129424 0.435288 0.279183 0.156105) 303 454 2
(0.129179 0.366132 0.435411 0.0692783) 304 456 1
(0.547007 0.226496 0.158759 0.0677373) 306 608 1
(0.226753 0.386624 0.112336 0.274287) 382 611 2
(0.0647923 0.0219373 0.445667 0.467604) 308 610 2
(0.135694 0.199277 0.232876 0.432153) 308 613 1
(0.154837 0.422581 0.366797 0.0557846) 309 615 2
(0.170654 0.414673 0.0832311 0.331442) 310 617 2
(0.156019 0.0253217 0.396669 0.42199) 310 617 1
(0.171493 0.301304 0.11295 0.414254) 311 619 1
(0.178663 0.410668 0.209502 0.201166) 312 621 2
(0.0673484 0.048605 0.466326 0.417721) 312 620 2
(0.106522 0.0798892 0.36685 0.446739) 313 623 1
(0.524941 0.237529 0.123961 0.113568) 315 624 1
(0.242562 0.378719 0.0704329 0.308286) 316 629 2
(0.173956 0.413022 0.340199 0.0728224) 317 631 2
(0.182317 0.00330521 0.408841 0.405536) 318 632 2
(0.179593 0.0155967 0.394607 0.410204) 320 634 2
(0.282698 0.358651 0.0331407 0.32551) 321 639 2
(0.178097 0.0552323 0.355719 0.410951) 322 638 2
(0.124975 0.0781919 0.437513 0.359321) 322 640 2
(0.145078 0.0509113 0.427461 0.37655) 323 642 2
(0.272373 0.22397 0.363814 0.139844) 324 496 1
(0.322446 0.316333 0.338777 0.0224442) 325 498 1
(0.266916 0.366542 0.087553 0.278989) 326 500 2
(0.0893402 0.105812 0.349518 0.45533) 327 648 2
(0.226963 0.081744 0.386518 0.304774) 327 650 2
(0.263469 0.15787 0.210395 0.368266) 328 653 1
(0.253332 0.229691 0.143643 0.373334) 329 655 1
(0.13633 0.431835 0.185805 0.246031) 406 659 2
(0.0969835 0.451508 0.420473 0.0310358) 408 663 2
(0.139761 0.0163559 0.413764 0.43012) 334 662 2
(0.316293 0.341854 0.303409 0.0384444) 334 664 1
(0.474561 0.0984333 0.26272 0.164286) 335 518 1
(0.504986 0.247507 0.0632956 0.184211) 336 520 2
(0.334657 0.332672 0.25285 0.0798219) 337 522 2
(0.176971 0.411515 0.0129982 0.398516) 376 745 1
(0.196774 0.401613 0.209778 0.191835) 377 601 2
(0.170847 0.414577 0.0800751 0.334501) 378 603 2
(0.167394 0.324296 0.416303 0.0920068) 379 605 1
(0.0526998 0.47365 0.339623 0.134027) 380 755 1
(0.0161485 0.491926 0.151364 0.340562) 456 904 1
(0.0424234 0.234298 0.24449 0.478788) 381 758 1
(0.037062 0.467177 0.014292 0.481469) 382 760 1
(0.0886629 0.455669 0.142186 0.313482) 383 762 2
(0.126435 0.00500872 0.431774 0.436782) 383 762 1
(0.137751 0.200195 0.230929 0.431124) 384 764 1
(0.166158 0.359099 0.057822 0.416921) 385 766 1
(0.173952 0.413024 0.310205 0.102819) 386 768 2
(0.169363 0.415318 0.210862 0.204457) 387 770 2
(0.819753 0.0901235 0.0754354 0.0146881) 388 623 2
(0.422655 0.288673 0.0211319 0.267541) 389 625 2
(0.455402 0.272299 0.129593 0.142706) 390 627 2
(0.58993 0.205035 0.0480999 0.156935) 391 775 1
(0.359464 0.320268 0.232238 0.0880305) 392 780 2
(0.0700368 0.116525 0.348457 0.464982) 394 781 2
(0.0677685 0.0850713 0.381044 0.466116) 395 783 2
(0.0496463 0.0945655 0.380611 0.475177) 396 785 2
(0.0568742 0.0920929 0.37947 0.471563) 397 787 2
(0.030478 0.106686 0.484761 0.378075) 397 789 2
(0.119409 0.0444441 0.440295 0.395851) 398 791 2
(0.22251 0.0226635 0.388745 0.366081) 399 793 2
(0.28275 0.0747019 0.358625 0.283923) 400 647 1
(0.492447 0.131416 0.253777 0.122361) 401 649 1
(0.537545 0.151514 0.231228 0.0797134) 402 651 1
(0.252428 0.373786 0.304621 0.0691648) 403 802 2
(0.266445 0.366777 0.172706 0.194071) 404 804 2
(0.265218 0.367391 0.127538 0.239853) 405 806 2
(0.183805 0.365742 0.408098 0.0423555) 481 808 1
(0.329127 0.285509 0.0499277 0.335437) 407 810 1
(0.402794 0.113844 0.298603 0.184759) 482 810 1
(0.237265 0.203393 0.381368 0.177975) 483 812 1
(0.123807 0.438096 0.0223605 0.415736) 410 816 2
(0.162134 0.418933 0.205076 0.213857) 411 817 1
(0.197607 0.401197 0.0204063 0.38079) 450 15081 2
(0.130287 0.434856 0.0387086 0.396148) 451 894 1
(0.0733997 0.4633 0.387071 0.0762294) 451 896 1
(0.19813 0.0860132 0.400935 0.314922) 452 750 1
(0.233486 0.258256 0.383257 0.125001) 453 752 1
(0.148525 0.235638 0.425737 0.1901) 454 754 1
(0.236552 0.0926553 0.381724 0.289069) 528 901 1
(0.177775 0.411112 0.336639 0.074473) 454 903 2
(0.153728 0.00731148 0.423136 0.415825) 454 902 2
(0.015077 0.318865 0.173596 0.492461) 455 905 1
(0.110859 0.44457 0.417067 0.0275029) 456 907 2
(0.150621 0.424689 0.348741 0.0759479) 457 909 2
(0.108653 0.2096 0.236073 0.445673) 458 911 1
(0.0392771 0.0605888 0.419773 0.480361) 460 912 2
(0.172637 0.413682 0.103121 0.31056) 461 917 2
(0.230161 0.384919 0.154229 0.23069) 462 919 2
(0.362149 0.318925 0.15869 0.160235) 463 772 2
(0.285033 0.357484 0.058229 0.299255) 464 774 2
(0.285378 0.25925 0.357311 0.098061) 465 776 1
(0.0285763 0.485712 0.313597 0.172115) 466 926 1
(0.362339 0.318831 0.226695 0.0921359) 468 782 2
(0.028086 0.0929313 0.393026 0.485957) 469 930 2
(0.157709 0.0635804 0.421145 0.357565) 469 932 2
(0.269284 0.0609064 0.304451 0.365358) 470 935 1
(0.221674 0.0359105 0.353252 0.389163) 471 937 1
(0.0834685 0.0575526 0.400713 0.458266) 473 938 2
(0.172695 0.413652 0.200918 0.212735) 474 943 2
(0.491208 0.100301 0.254396 0.154095) 475 796 1
(0.344709 0.244916 0.327646 0.08273) 476 798 1
(0.352147 0.276025 0.323927 0.0479017) 477 800 1
(0.0376731 0.481163 0.261434 0.21973) 478 951 2
(0.128953 0.042371 0.393152 0.435523) 479 950 2
(0.246157 0.102701 0.274221 0.376922) 479 953 1
(0.243717 0.320536 0.0576053 0.378142) 480 955 1
(0.109073 0.234381 0.211083 0.445464) 481 957 1
(0.284455 0.252303 0.357773 0.10547) 557 959 1
(0.262759 0.0578869 0.36862 0.310733) 558 961 1
(0.348355 0.318262 0.00756049 0.325822) 484 963 1
(0.31811 0.340945 0.273542 0.0674032) 486 818 2
(0.210609 0.394695 0.386659 0.00803607) 525 895 2
(0.233982 0.383009 0.378542 0.00446663) 525 1043 1
(0.234172 0.311119 0.382914 0.0717949) 526 897 1
(0.258035 0.370983 0.179679 0.191304) 527 899 2
(0.0427774 0.478611 0.104211 0.3744) 528 1047 1
(0.0259825 0.487009 0.257781 0.229227) 527 1048 2
(0.048026 0.475987 0.0810461 0.394941) 528 1050 2
(0.0128582 0.243059 0.493571 0.250512) 603 1050 1
(0.229719 0.38514 0.162452 0.222688) 529 1052 2
(0.14849 0.0490896 0.376665 0.425755) 530 1051 2
(0.204362 0.384449 0.0133699 0.397819) 531 1056 1
(0.196241 0.401879 0.0959838 0.305896) 533 1060 2
(0.189365 0.0940315 0.311286 0.405317) 534 1062 1
(0.129743 0.0442802 0.390848 0.435128) 536 1063 2
(0.26756 0.36622 0.27016 0.0960598) 537 1067 1
(0.234141 0.38293 0.354929 0.028001) 538 1069 1
(0.248403 0.375799 0.365383 0.0104155) 539 1071 1
(0.206508 0.396746 0.38458 0.012166) 540 1073 1
(0.176988 0.411506 0.373865 0.037641) 542 929 2
(0.405442 0.0890597 0.208219 0.297279) 542 1078 1
(0.462771 0.234532 0.034083 0.268615) 543 1080 1
(0.430395 0.284803 0.195088 0.089715) 544 1082 2
(0.52862 0.129883 0.105807 0.23569) 545 1084 1
(0.227374 0.386313 0.282162 0.104151) 547 1088 2
(0.215323 0.116281 0.276058 0.392339) 548 1090 1
(0.114804 0.0492087 0.442598 0.39339) 549 1091 2
(0.201745 0.399128 0.0441113 0.355016) 551 1096 2
(0.18075 0.409625 0.180399 0.229226) 552 1098 2
(0.148358 0.425821 0.31283 0.112991) 553 1100 2
(0.191042 0.404479 0.271386 0.133093) 554 1102 2
(0.225758 0.387121 0.123422 0.263699) 555 1104 2
(0.0958176 0.0784989 0.373592 0.452091) 556 1103 2
(0.126051 0.0324873 0.436975 0.404487) 556 1105 2
(0.0237958 0.0567602 0.431342 0.488102) 558 1110 1
(0.0843582 0.00947546 0.448345 0.457821) 559 1112 1
(0.271256 0.364372 0.2949 0.0694718) 560 965 2
(0.175862 0.412069 0.0382454 0.373824) 561 1113 1
(0.180253 0.253035 0.409873 0.156839) 600 1044 1
(0.27637 0.361815 0.0908981 0.270917) 601 1192 1
(0.249216 0.375392 0.116091 0.259301) 601 1194 1
(0.00417022 0.497915 0.276154 0.221761) 602 1197 2
(0.256514 0.371743 0.0231038 0.348639) 603 1199 2
(0.373519 0.298901 0.0143396 0.31324) 604 1201 1
(0.134493 0.143123 0.432753 0.28963) 605 1202 2
(0.308005 0.127727 0.218271 0.345997) 607 1207 1
(0.233273 0.383364 0.352415 0.0309483) 609 1211 2
(0.144668 0.0399135 0.427666 0.387752) 610 1212 2
(0.193013 0.403493 0.0623477 0.341146) 612 1214 1
(0.27491 0.362545 0.323229 0.0393165) 613 1070 2
(0.265735 0.367133 0.247417 0.119715) 614 1072 2
(0.258855 0.370573 0.252462 0.118111) 615 1074 2
(0.282859 0.35857 0.348107 0.0104632) 616 1076 2
(0.0526588 0.473671 0.317955 0.155716) 616 1224 1
(0.106993 0.446503 0.272985 0.173518) 617 1226 1
(0.120958 0.439521 0.295502 0.144019) 618 1228 1
(0.20233 0.398835 0.0605202 0.338315) 620 1230 1
(0.276712 0.361644 0.00805081 0.353593) 621 1232 1
(0.0504573 0.0947083 0.380063 0.474771) 622 1234 2
(0.239614 0.380193 0.307621 0.0725721) 623 1239 2
(0.207723 0.0606356 0.335503 0.396138) 624 1241 1
(0.206592 0.396704 0.0204367 0.376267) 626 1245 2
(0.0749052 0.462547 0.377845 0.0847026) 702 1395 1
(0.0182064 0.490897 0.246271 0.244626) 629 1251 2
(0.107761 0.403837 0.0422823 0.446119) 630 1253 1
(0.123295 0.241658 0.196694 0.438352) 631 1255 1
(0.094703 0.124558 0.32809 0.452649) 632 1257 1
(0.0254643 0.487268 0.073626 0.413642) 634 1261 2
(0.223554 0.388223 0.378111 0.0101115) 635 1263 2
(0.0895463 0.455227 0.058547 0.39668) 636 1262 1
(0.19048 0.40476 0.377965 0.0267951) 636 1264 1
(0.331143 0.0221931 0.334428 0.312235) 675 1193 1
(0.601703 0.199149 0.144244 0.0549047) 677 1343 1
(0.46614 0.26693 0.0501376 0.216792) 678 1199 2
(0.415388 0.292306 0.0171898 0.275116) 679 1201 2
(0.255147 0.372427 0.246956 0.12547) 680 1351 1
(0.462357 0.268821 0.0167049 0.252117) 683 1358 2
(0.32225 0.00493372 0.338875 0.333941) 684 1359 2
(0.397124 0.301438 0.218866 0.0825723) 686 1364 2
(0.195014 0.00475362 0.397739 0.402493) 687 1366 1
(0.0628057 0.468597 0.442493 0.0261044) 689 1370 2
(0.0730139 0.463493 0.0946283 0.368865) 690 1369 1
(0.267939 0.366031 0.326872 0.0391585) 690 1371 1
(0.343961 0.148721 0.328019 0.179298) 691 1225 1
(0.338515 0.330743 0.0593123 0.27143) 692 1227 2
(0.325823 0.337089 0.269945 0.067144) 693 1229 2
(0.0880594 0.45597 0.0962381 0.359732) 694 1377 1
(0.194792 0.402604 0.389131 0.0134736) 694 1379 1
(0.210098 0.0265609 0.394951 0.36839) 695 1233 1
(0.567002 0.179655 0.0368434 0.216499) 697 1386 1
(0.249715 0.0235927 0.375143 0.35155) 698 1387 2
(0.280861 0.359569 0.0305698 0.329) 700 1392 2
(0.272116 0.363942 0.303287 0.060655) 701 1394 2
(0.131376 0.434312 0.378331 0.0559816) 703 1398 2
(0.246769 0.0395935 0.337022 0.376615) 704 1400 1
(0.253992 0.060831 0.312173 0.373004) 706 1404 1
(0.131078 0.434461 0.252202 0.182259) 783 1408 2
(0.0702719 0.0851661 0.379698 0.464864) 709 1410 1
(0.180124 0.016384 0.409938 0.393554) 710 1411 2
(0.2703 0.255082 0.36485 0.109768) 711 1265 1
(0.282937 0.358531 0.103898 0.254633) 712 1267 2
(0.261749 0.369126 0.24651 0.122616) 713 1269 2
(0.0905831 0.454708 0.347002 0.107706) 750 1490 1
(0.202522 0.290732 0.398739 0.108007) 753 1348 1
(0.199259 0.327804 0.400371 0.0725666) 754 1350 1
(0.282845 0.358578 0.174759 0.183819) 755 1352 2
(0.412165 0.22774 0.0661781 0.293918) 757 1502 2
(0.347779 0.112199 0.213912 0.326111) 758 1504 2
(0.682503 0.158749 0.0684057 0.090343) 759 1509 2
(0.477634 0.101204 0.261183 0.159979) 760 1510 2
(0.348253 0.143252 0.325873 0.182622) 761 1512 2
(0.259994 0.346344 0.0236586 0.370003) 763 1517 1
(0.195676 0.258734 0.143428 0.402162) 765 1521 1
(0.124748 0.0258181 0.437626 0.411808) 766 1522 2
(0.116862 0.0790254 0.362543 0.441569) 768 1527 1
(0.0237156 0.488142 0.430714 0.0574277) 768 1526 1
(0.184877 0.229912 0.407562 0.177649) 769 1380 1
(0.214513 0.392743 0.220134 0.17261) 770 1382 2
(0.179478 0.410261 0.408687 0.00157372) 770 1530 1
(0.192797 0.313815 0.403602 0.0897867) 771 1384 1
(0.259182 0.370409 0.302273 0.068136) 772 1386 2
(0.0797272 0.460136 0.114919 0.345217) 773 1534 1
(0.733903 0.128504 0.004545 0.133049) 774 1539 1
(0.21492 0.140282 0.39254 0.252257) 775 1540 2
(0.194767 0.182484 0.402617 0.220133) 776 1542 2
(0.861207 0.0693967 0.0297359 0.0396607) 778 1398 2
(0.162354 0.418823 0.233975 0.184848) 780 1548 1
(0.507794 0.0245622 0.246103 0.221541) 781 1404 1
(0.323108 0.104778 0.338446 0.233668) 783 1556 2
(0.00980283 0.158369 0.495099 0.33673) 785 1560 2
(0.186994 0.0106084 0.406503 0.395895) 786 1562 2
(0.425107 0.287447 0.235318 0.0521286) 787 1564 1
(0.0840824 0.457959 0.271071 0.186888) 788 1567 2
(0.162301 0.0477022 0.371147 0.418849) 789 1566 2
(0.264512 0.0481572 0.319587 0.367744) 825 1640 1
(0.31318 0.34341 0.0863435 0.257066) 826 1642 2
(0.121187 0.098443 0.439407 0.340964) 826 1641 2
(0.0384258 0.0671762 0.413611 0.480787) 828 1643 2
(0.0807134 0.0835003 0.459643 0.376143) 828 1645 2
(0.0541048 0.472948 0.313808 0.15914) 827 1495 2
(0.118934 0.440533 0.393355 0.047178) 828 1497 2
(0.0136785 0.0626144 0.493161 0.430546) 753 1496 2
(0.329416 0.158287 0.335292 0.177005) 829 1499 1
(0.20951 0.293709 0.395245 0.101536) 830 1501 1
(0.195314 0.319323 0.402343 0.0830203) 831 1503 1
(0.215813 0.21164 0.392094 0.180453) 832 1505 1
(0.294902 0.107544 0.352549 0.245005) 833 1507 1
(0.2064 0.139032 0.3968 0.257768) 834 1509 1
(0.173398 0.107764 0.413301 0.305536) 835 1511 1
(0.146533 0.426733 0.126141 0.300593) 837 1515 2
(0.279898 0.0299991 0.330052 0.360051) 838 1666 1
(0.222342 0.388829 0.0704088 0.31842) 840 1670 2
(0.208192 0.347124 0.0487795 0.395904) 841 1672 1
(0.199781 0.180289 0.21982 0.400109) 842 1674 1
(0.246184 0.050647 0.326261 0.376908) 843 1676 1
(0.285566 0.0625256 0.357217 0.294691) 844 1529 1
(0.285289 0.1885 0.357356 0.168855) 845 1531 1
(0.285584 0.357208 0.0164977 0.34071) 846 1533 2
(0.273803 0.363099 0.226114 0.136985) 847 1535 2
(0.154843 0.422579 0.0515672 0.371011) 848 1683 1
(0.28225 0.00694228 0.358875 0.351933) 848 1537 1
(0.287423 0.130893 0.356288 0.225396) 849 1539 1
(0.317707 0.23564 0.341146 0.105507) 850 1541 1
(0.110723 0.444638 0.318455 0.126183) 851 1691 1
(0.25054 0.37473 0.299649 0.0750813) 854 1549 2
(0.0662648 0.466868 0.389287 0.077581) 855 1699 1
(0.270898 0.364551 0.352059 0.0124922) 856 1701 1
(0.0947784 0.452611 0.100474 0.352137) 860 1707 1
(0.320206 0.339897 0.212323 0.127574) 860 1709 1
(0.273679 0.36316 0.121345 0.241816) 936 1858 1
(0.0519852 0.31689 0.157117 0.474007) 861 1712 1
(0.185113 0.407444 0.207385 0.200058) 862 1714 2
(0.117508 0.0292337 0.412012 0.441246) 863 1713 2
(0.373784 0.131272 0.181836 0.313108) 900 1789 1
(0.217023 0.175446 0.391489 0.216043) 901 1790 2
(0.052948 0.468169 0.473526 0.00535696) 978 1795 1
(0.0124558 0.162328 0.331444 0.493772) 904 1797 1
(0.185984 0.0436199 0.407008 0.363388) 905 1798 2
(0.0328618 0.483569 0.46185 0.0217189) 906 1652 2
(0.196278 0.148316 0.401861 0.253545) 906 1652 1
(0.173858 0.413071 0.131781 0.28129) 907 1654 2
(0.0714001 0.4643 0.063642 0.400658) 908 1802 1
(0.237072 0.111926 0.381464 0.269538) 908 1656 1
(0.196678 0.313422 0.401661 0.0882389) 909 1658 1
(0.386735 0.306633 0.118431 0.188202) 910 1809 2
(0.130824 0.120212 0.314376 0.434588) 835 1660 1
(0.212391 0.393804 0.187113 0.206692) 911 1662 2
(0.156839 0.42158 0.411493 0.0100869) 911 1810 1
(0.255244 0.372378 0.0922829 0.280095) 912 1664 2
(0.108168 0.445916 0.0808246 0.365091) 913 1812 1
(0.182924 0.199192 0.209346 0.408538) 913 1815 1
(0.214606 0.0773866 0.31531 0.392697) 914 1817 1
(0.0671783 0.0734531 0.392958 0.466411) 916 1818 2
(0.246968 0.376516 0.0328565 0.343659) 917 1823 2
(0.437424 0.281288 0.0493594 0.231929) 918 1825 2
(0.347738 0.231224 0.326131 0.0949065) 919 1678 1
(0.283882 0.271603 0.358059 0.0864562) 920 1680 1
(0.284102 0.346654 0.357949 0.0112952) 921 1682 1
(0.279284 0.360358 0.0772275 0.28313) 922 1684 2
(0.273142 0.363429 0.184036 0.179393) 923 1686 2
(0.269782 0.365109 0.325235 0.0398737) 924 1688 2
(0.0697243 0.465138 0.0954229 0.369715) 925 1836 1
(0.0795191 0.46024 0.0599087 0.400332) 926 1838 1
(0.164585 0.417708 0.315983 0.101724) 927 1694 2
(0.126612 0.436694 0.378265 0.0584286) 855 1700 2
(0.303453 0.348273 0.157598 0.190675) 931 1702 2
(0.247952 0.376024 0.05586 0.320164) 933 1706 2
(0.19721 0.401395 0.296419 0.104976) 859 1708 2
(0.481443 0.259278 0.230342 0.0289362) 935 1710 2
(0.534748 0.232626 0.184469 0.0481574) 1010 2007 1
(0.612148 0.193926 0.0119251 0.182001) 1011 1861 2
(0.0900629 0.454969 0.208696 0.246272) 1012 2009 1
(0.3978 0.074014 0.3011 0.227086) 1012 1863 1
(0.301831 0.349084 0.0893513 0.259733) 975 15088 2
(0.321505 0.339247 0.169795 0.169452) 976 1791 2
(0.22204 0.38898 0.171234 0.217746) 977 1942 2
(0.173854 0.413073 0.383325 0.0297474) 978 1944 2
(0.248665 0.375667 0.280399 0.095268) 979 1946 2
(0.262709 0.00303735 0.365608 0.368646) 980 1945 2
(0.160748 0.0624003 0.419626 0.357226) 980 1947 2
(0.264752 0.0590202 0.308604 0.367624) 981 1950 1
(0.229162 0.0685244 0.316895 0.385419) 982 1952 1
(0.226107 0.386947 0.00641712 0.38053) 1059 2102 1
(0.276607 0.361696 0.0700227 0.291674) 984 1953 1
(0.360102 0.319949 0.0512202 0.268729) 985 1955 1
(0.00717031 0.496415 0.24099 0.255424) 986 1957 1
(0.22258 0.300649 0.38871 0.088061) 986 1811 1
(0.191938 0.404031 0.0752397 0.328791) 987 1959 1
(0.303236 0.0687645 0.348382 0.279618) 987 1813 1
(0.375157 0.00313378 0.309288 0.312421) 988 1964 1
(0.260876 0.152871 0.216691 0.369562) 989 1966 1
(0.271598 0.253337 0.110864 0.364201) 990 1968 1
(0.505667 0.247166 0.198489 0.0486774) 991 1970 2
(0.553868 0.223066 0.166702 0.056364) 992 1972 2
(0.620224 0.189888 0.167812 0.0220755) 993 1825 2
(0.275803 0.362099 0.105919 0.256179) 994 1827 2
(0.247586 0.376207 0.0218037 0.354403) 995 1829 2
(0.234627 0.270726 0.382687 0.11196) 996 1831 1
(0.296697 0.145061 0.20659 0.351651) 997 1982 1
(0.266879 0.0895923 0.36656 0.276968) 998 1983 2
(0.0597153 0.212493 0.25765 0.470142) 1000 1985 2
(0.170083 0.110789 0.414959 0.304169) 1000 1839 1
(0.216079 0.207785 0.391961 0.184176) 1001 1841 1
(0.0833206 0.241841 0.45834 0.216499) 1002 1843 1
(0.245851 0.0508936 0.326181 0.377075) 928 1845 1
(0.149639 0.0403268 0.384854 0.425181) 930 1846 2
(0.241093 0.252198 0.127255 0.379453) 932 1853 1
(0.237344 0.381328 0.325792 0.0555365) 1009 1857 2
(0.0556941 0.472153 0.294114 0.178039) 1009 2005 1
(0.0903716 0.454814 0.364128 0.0906866) 1008 2004 2
(0.316117 0.341942 0.0912933 0.250648) 1084 2006 2
(0.383602 0.308199 0.0786518 0.229547) 1085 2154 1
(0.219347 0.390326 0.174323 0.216003) 1086 2156 1
(0.151246 0.155574 0.424377 0.268802) 1050 1938 1
(0.238162 0.380919 0.0809062 0.300013) 1051 2089 2
(0.175067 0.0367561 0.375711 0.412467) 1052 2088 2
(0.133967 0.0505558 0.382461 0.433017) 1053 2090 2
(0.22422 0.38789 0.101303 0.286587) 1054 2095 2
(0.24129 0.379355 0.265526 0.113829) 1055 2097 2
(0.254158 0.372225 0.000696126 0.372921) 1056 2099 1
(0.214164 0.392918 0.0703432 0.322575) 1058 2103 2
(0.43282 0.28359 0.147357 0.136234) 1059 2104 1
(0.456133 0.173739 0.271934 0.0981945) 1060 1958 1
(0.369098 0.315451 0.118252 0.197199) 1061 1960 2
(0.307397 0.346302 0.0155688 0.330733) 1062 2108 1
(0.206222 0.396889 0.30394 0.0929492) 1062 2110 1
(0.48513 0.0778439 0.257435 0.179591) 1063 1964 1
(0.220425 0.228357 0.161431 0.389788) 1064 2115 1
(0.293549 0.28307 0.0701553 0.353225) 1065 2117 1
(0.281835 0.359082 0.297233 0.0618495) 1066 2119 2
(0.0117836 0.494108 0.153852 0.340256) 1067 2118 1
(0.297316 0.351342 0.335408 0.0159336) 1067 2120 1
(0.239377 0.120333 0.380312 0.259979) 1068 1974 1
(0.221235 0.0560597 0.389383 0.333323) 1069 1976 1
(0.263856 0.368072 0.137648 0.230424) 1071 2129 2
(0.25194 0.37403 0.361242 0.0127879) 1072 2131 2
(0.260997 0.232164 0.137338 0.369502) 1073 2133 1
(0.381966 0.280594 0.309017 0.0284224) 1074 1986 1
(0.351682 0.304529 0.324159 0.01963) 1075 1988 1
(0.266864 0.366568 0.150153 0.216415) 1076 1990 2
(0.295173 0.352414 0.343774 0.00864017) 1077 1992 2
(0.265382 0.367309 0.00510542 0.362204) 1003 1994 2
(0.040779 0.228074 0.251536 0.47961) 1004 1993 2
(0.106863 0.40071 0.0458583 0.446569) 1004 1996 1
(0.0981748 0.450913 0.303985 0.146927) 1080 1998 2
(0.0240532 0.487973 0.350529 0.137445) 1081 2000 2
(0.266732 0.366634 0.0105935 0.356041) 1007 2002 2
(0.313686 0.260122 0.0830352 0.343157) 1081 2149 1
(0.26182 0.0845577 0.284532 0.36909) 1082 2148 2
(0.340919 0.0752019 0.32954 0.254339) 1082 2150 2
(0.318182 0.107691 0.233218 0.340909) 1083 2153 1
(0.19095 0.26158 0.142945 0.404525) 1125 2236 1
(0.259954 0.330018 0.0400048 0.370023) 1126 2238 1
(0.402378 0.298811 0.132523 0.166288) 1127 2240 2
(0.467875 0.266062 0.175832 0.09023) 1128 2242 2
(0.0763645 0.206061 0.255757 0.461818) 1130 2243 2
(0.55807 0.0830159 0.137949 0.220965) 1132 2247 2
(0.206494 0.396753 0.107213 0.28954) 1133 2251 1
(0.360652 0.319674 0.111047 0.208627) 1135 2107 2
(0.345772 0.229857 0.327114 0.0972571) 1136 2109 1
(0.173551 0.0407893 0.372435 0.413225) 1138 2259 2
(0.0311864 0.0857167 0.484407 0.39869) 1138 2261 2
(0.149463 0.184545 0.240724 0.425269) 1139 2264 1
(0.162809 0.418596 0.357863 0.0607328) 1140 2266 2
(0.158735 0.0416512 0.378981 0.420633) 1141 2265 2
(0.252804 0.285416 0.0881823 0.373598) 1141 2268 1
(0.146502 0.0536969 0.373052 0.426749) 1142 2267 2
(0.115998 0.442001 0.0405161 0.401485) 1142 2121 2