/*--------------------------------*- C++ -*----------------------------------*\
  =========                 |
  \\      /  F ield         | OpenFOAM: The Open Source CFD Toolbox
   \\    /   O peration     | Website:  https://openfoam.org
    \\  /    A nd           | Version:  12
     \\/     M anipulation  |
\*---------------------------------------------------------------------------*/
FoamFile
{
    format      ascii;
    class       volScalarField::Internal;
    location    "0.95";
    object      cloud:UCoeff;
}
// * * * * * * * * * * * * * * * * * * * * * * * * * * * * * * * * * * * * * //

dimensions      [1 0 0 0 0 0 0];

value           nonuniform List<scalar> 
3750
(
2.48965e-08
2.48274e-08
2.44504e-08
5.70212e-08
5.67978e-08
2.22621e-08
2.32345e-08
2.33991e-08
2.40219e-08
2.39081e-08
2.36173e-08
2.3389e-08
2.3729e-08
6.13775e-08
2.46378e-08
2.30157e-08
2.34684e-08
2.41644e-08
2.37214e-08
0
2.46184e-08
2.48159e-08
2.38094e-08
5.53807e-08
2.28291e-08
5.5813e-08
2.47897e-08
2.4538e-08
2.44102e-08
2.43282e-08
0
2.39875e-08
5.64283e-08
0
5.61315e-08
5.64964e-08
2.44946e-08
2.402e-08
2.40583e-08
2.44626e-08
2.40615e-08
0
0
0
0
0
0
0
0
0
0
0
0
0
0
0
0
0
0
0
0
0
0
0
0
0
0
0
0
0
0
0
0
0
0
0
2.4715e-08
2.42396e-08
0
5.84814e-08
2.3636e-08
9.84335e-08
5.62427e-08
5.56827e-08
0
0
0
2.30412e-08
2.61752e-08
0
5.77603e-08
8.1658e-08
3.16303e-08
2.44421e-08
0
2.41819e-08
2.48045e-08
0
2.16506e-08
9.33235e-08
5.26997e-08
0
0
0
2.39365e-08
2.50185e-08
5.66405e-08
2.27857e-08
5.70591e-08
0
2.36059e-08
2.28501e-08
0
0
2.45937e-08
0
0
0
0
0
0
0
0
0
0
0
0
0
0
0
0
0
0
0
0
0
0
0
0
0
0
0
0
0
0
0
0
0
0
0
0
0
0
2.5907e-08
2.42336e-08
2.39682e-08
2.48189e-08
0
2.31338e-08
5.62289e-08
5.72819e-08
2.22277e-08
5.61191e-08
5.69096e-08
5.72006e-08
5.61601e-08
2.42277e-08
2.41149e-08
2.4867e-08
0
2.42901e-08
5.8009e-08
2.40986e-08
5.77139e-08
0
2.2865e-08
2.21892e-08
2.44035e-08
5.65436e-08
2.44454e-08
5.75346e-08
2.26834e-08
5.65809e-08
2.29526e-08
2.24798e-08
0
0
0
0
0
0
0
0
0
0
0
0
0
0
0
0
0
0
0
0
0
0
0
0
0
0
0
0
0
0
0
0
0
0
0
0
0
0
0
0
2.46136e-08
0
5.78959e-08
2.49743e-08
2.46569e-08
2.31498e-08
2.43119e-08
2.47258e-08
5.7681e-08
5.69498e-08
2.3741e-08
9.54848e-08
2.25251e-08
2.37147e-08
2.39582e-08
2.35421e-08
2.47964e-08
2.48766e-08
0
2.35243e-08
2.35807e-08
2.33403e-08
6.04361e-08
2.48808e-08
2.36307e-08
2.37437e-08
0
2.41423e-08
2.41689e-08
5.67493e-08
2.24431e-08
0
0
0
0
0
0
0
0
0
0
0
0
0
0
0
0
0
0
0
0
0
0
0
0
0
0
0
0
0
0
0
0
0
0
0
0
0
0
0
0
0
0
0
0
0
2.41681e-08
0
5.88904e-08
5.76215e-08
5.71593e-08
5.97277e-08
4.60953e-08
2.92528e-10
6.14598e-08
0
2.39781e-08
2.37963e-08
2.43771e-08
0
2.32401e-08
6.16723e-08
2.54745e-08
2.33474e-08
2.25356e-08
5.74254e-08
2.31127e-08
2.38421e-08
2.51637e-08
2.51555e-08
0
0
0
2.39388e-08
5.88635e-08
2.40889e-08
2.35231e-08
0
0
0
0
0
0
0
0
0
0
0
0
0
0
0
0
0
0
0
0
0
0
0
0
0
0
0
0
0
0
0
0
0
0
0
0
0
0
0
0
0
0
0
2.44189e-08
2.48756e-08
2.40268e-08
0
0
0
0
2.42075e-08
2.34148e-08
2.38634e-08
2.46952e-08
2.37926e-08
2.46907e-08
2.44976e-08
2.42166e-08
2.45502e-08
2.48834e-08
2.43741e-08
2.38849e-08
2.31235e-08
2.34527e-08
2.32236e-08
2.38494e-08
6.2618e-08
0
0
2.25369e-08
2.36895e-08
2.35582e-08
0
2.5936e-08
0
0
0
0
0
0
0
0
0
0
0
0
0
0
0
0
0
0
0
0
0
0
0
0
0
0
0
0
0
0
0
0
0
0
0
0
0
0
0
0
0
0
0
0
2.39933e-08
5.86712e-08
2.30603e-08
2.44909e-08
2.52714e-08
2.31648e-08
5.69013e-08
7.98042e-09
1.00729e-08
2.44273e-08
2.45097e-08
0
5.83574e-08
2.42118e-08
2.38372e-08
2.38625e-08
2.45543e-08
0
2.42608e-08
2.41116e-08
2.4125e-08
2.43503e-08
3.65825e-08
4.42209e-08
2.39751e-08
5.77276e-08
2.21648e-08
5.69185e-08
0
2.42795e-08
0
0
0
0
0
0
0
0
0
0
0
0
0
0
0
0
0
0
0
0
0
0
0
0
0
0
0
0
0
0
0
0
0
0
0
0
0
0
0
0
0
0
0
0
0
2.37399e-08
2.37568e-08
3.4144e-08
1.31489e-08
5.52967e-08
2.29924e-08
2.52326e-08
2.47036e-08
2.45718e-08
2.43793e-08
2.4242e-08
2.33506e-08
2.39181e-08
2.38969e-08
2.43559e-08
0
2.46146e-08
2.4334e-08
2.46197e-08
0
2.43328e-08
2.46959e-08
2.49053e-08
2.51051e-08
2.49655e-08
2.41215e-08
5.6605e-08
2.36302e-08
2.34788e-08
2.35665e-08
0
0
0
0
0
0
0
0
0
0
0
0
0
0
0
0
0
0
0
0
0
0
0
0
0
0
0
0
0
0
0
0
0
0
0
0
0
0
0
0
0
0
0
0
0
5.66687e-08
0
2.41573e-08
0
2.41065e-08
2.42889e-08
2.50968e-08
2.47669e-08
2.45369e-08
2.39151e-08
2.36335e-08
2.36349e-08
2.38722e-08
2.40869e-08
2.44302e-08
2.42715e-08
0
2.43374e-08
2.44368e-08
1.09143e-08
4.23081e-09
0
0
2.47713e-08
2.539e-08
0
2.40469e-08
5.85737e-08
2.32084e-08
0
1.00842e-07
0
0
0
0
0
0
0
0
0
0
0
0
0
0
0
0
0
0
0
0
0
0
0
0
0
0
0
0
0
0
0
0
0
0
0
0
0
0
0
0
0
0
0
0
0
2.38863e-08
0
2.4002e-08
2.58128e-08
0
2.4106e-08
0
5.80245e-08
2.3036e-08
2.32252e-08
2.38454e-08
5.82402e-08
2.3291e-08
2.37481e-08
0
2.36879e-08
2.33136e-08
2.44055e-08
0
2.47619e-08
0
5.82538e-08
2.51054e-08
0
0
2.43728e-08
0
2.38603e-08
1.79555e-08
2.39336e-08
5.74651e-08
2.27373e-08
0
0
0
0
0
0
0
0
0
0
0
0
0
0
0
0
0
0
0
0
0
0
0
0
0
0
0
0
0
0
0
0
0
0
0
0
0
0
0
0
0
0
2.40874e-08
2.33011e-08
2.37585e-08
0
6.14277e-08
2.46292e-08
0
2.3804e-08
0
2.42924e-08
0
2.46191e-08
0
5.75508e-08
5.63569e-08
5.65628e-08
5.85585e-08
0
2.3606e-08
2.46168e-08
2.48838e-08
0
2.33504e-08
0
2.50265e-08
0
2.41207e-08
2.34206e-08
2.29552e-08
3.01668e-09
2.39203e-08
2.38128e-08
2.40715e-08
2.41644e-08
0
0
0
0
0
0
0
0
0
0
0
0
0
0
0
0
0
0
0
0
0
0
0
0
0
0
0
0
0
0
0
0
0
0
0
0
0
0
0
0
0
5.84948e-08
2.37884e-08
2.40914e-08
2.38887e-08
0
2.45582e-08
2.42723e-08
0
2.2827e-08
2.3668e-08
2.45185e-08
2.52366e-08
2.52069e-08
0
5.77454e-08
2.34021e-08
2.37602e-08
5.71021e-08
2.38989e-08
2.4734e-08
2.51547e-08
0
0
2.47301e-08
2.53182e-08
2.41257e-08
2.38777e-08
0
2.38049e-08
2.38484e-08
2.40321e-08
0
2.44934e-08
0
0
0
0
0
0
0
0
0
0
0
0
0
0
0
0
0
0
0
0
0
0
0
0
0
0
0
0
0
0
0
0
0
0
0
0
0
0
0
0
0
0
0
5.71847e-08
2.31919e-08
5.66207e-08
5.83193e-08
2.40051e-08
2.39078e-08
9.82204e-08
2.25377e-08
2.32353e-08
2.44537e-08
2.57903e-08
0
2.37472e-08
2.43095e-08
2.41772e-08
2.3942e-08
2.36355e-08
4.21499e-08
3.99048e-08
0
5.64616e-08
2.35426e-08
2.59841e-08
0
2.3633e-08
2.40608e-08
2.36892e-08
0
2.44549e-08
2.26994e-08
5.66417e-08
2.31517e-08
0
0
0
0
0
0
0
0
0
0
0
0
0
0
0
0
0
0
0
0
0
0
0
0
0
0
0
0
0
0
0
0
0
0
0
0
0
0
0
0
0
0
5.98687e-08
2.32306e-08
0
2.47905e-08
2.38385e-08
5.73209e-08
2.26843e-08
5.61131e-08
2.3341e-08
5.76556e-08
1.11893e-08
3.44655e-08
1.02692e-08
6.24138e-09
2.38302e-08
2.44116e-08
2.37817e-08
2.36083e-08
2.63151e-08
2.56736e-08
2.37043e-08
0
2.38839e-08
5.83031e-08
0
2.46285e-08
2.46584e-08
2.42957e-08
2.4218e-08
5.79904e-08
2.31323e-08
2.34474e-08
2.39771e-08
0
0
0
0
0
0
0
0
0
0
0
0
0
0
0
0
0
0
0
0
0
0
0
0
0
0
0
0
0
0
0
0
0
0
0
0
0
0
0
0
0
0
2.53649e-08
0
5.82443e-08
2.32216e-08
2.30952e-08
5.78845e-08
2.2859e-08
2.34333e-08
2.47012e-08
2.38421e-08
5.54594e-08
2.41012e-08
2.46838e-08
2.36094e-08
2.59387e-08
0
2.43452e-08
2.38414e-08
2.53513e-08
2.55337e-08
2.45375e-08
2.375e-08
2.38288e-08
0
2.40823e-08
2.47806e-08
5.89606e-08
2.30615e-08
5.65316e-08
2.12284e-08
0
0
0
0
0
0
0
0
0
0
0
0
0
0
0
0
0
0
0
0
0
0
0
0
0
0
0
0
0
0
0
0
0
0
0
0
0
0
0
0
0
0
0
0
0
0
2.37696e-08
2.41049e-08
0
2.40371e-08
2.44302e-08
0
2.46762e-08
2.44634e-08
5.66416e-08
5.56444e-08
5.41667e-08
5.46991e-08
0
6.09836e-08
0
2.40498e-08
2.34288e-08
2.46963e-08
7.87106e-09
3.92937e-08
2.40261e-08
4.50923e-08
3.15635e-08
5.79807e-08
5.89486e-08
2.39976e-08
2.3189e-08
0
0
0
0
0
0
0
0
0
0
0
0
0
0
0
0
0
0
0
0
0
0
0
0
0
0
0
0
0
0
0
0
0
0
0
0
0
0
0
0
0
0
0
0
0
0
0
2.46892e-08
2.31048e-08
2.34645e-08
0
0
2.43324e-08
2.48264e-08
2.44801e-08
2.36299e-08
2.31446e-08
5.76419e-08
2.28051e-08
5.5357e-08
5.86027e-08
2.44855e-08
4.11155e-08
3.72835e-08
2.37184e-08
2.3859e-08
2.38939e-08
2.42856e-08
2.48382e-08
0
2.654e-08
5.3886e-08
1.04873e-07
5.86223e-08
2.19665e-08
0
0
0
0
0
0
0
0
0
0
0
0
0
0
0
0
0
0
0
0
0
0
0
0
0
0
0
0
0
0
0
0
0
0
0
0
0
0
0
0
0
0
0
0
0
0
0
0
2.39464e-08
5.76119e-08
2.32819e-08
2.42912e-08
0
0
5.92615e-08
0
2.32124e-08
0
2.44785e-08
2.43308e-08
0
2.48133e-08
0
5.78647e-08
2.32034e-08
5.64799e-08
5.57411e-08
0
2.36252e-08
2.47564e-08
6.05976e-08
2.34295e-08
5.84189e-08
2.46035e-08
5.77325e-08
2.23071e-08
0
0
0
0
0
0
0
0
0
0
0
0
0
0
0
0
0
0
0
0
0
0
0
0
0
0
0
0
0
0
0
0
0
0
0
0
0
0
0
0
0
0
0
0
0
0
3.37506e-08
2.28166e-08
2.26439e-08
2.4302e-08
0
0
5.91475e-08
0
2.31894e-08
0
2.40968e-08
2.51969e-08
0
0
2.40944e-08
5.68432e-08
5.47995e-08
5.4732e-08
7.20952e-08
3.91254e-08
2.33087e-08
2.34078e-08
6.18964e-08
2.48961e-08
2.3483e-08
2.34172e-08
2.44744e-08
2.43277e-08
0
0
0
0
0
0
0
0
0
0
0
0
0
0
0
0
0
0
0
0
0
0
0
0
0
0
0
0
0
0
0
0
0
0
0
0
0
0
0
0
0
0
0
0
0
0
0
2.16053e-08
2.35353e-08
0
2.44533e-08
2.39001e-08
2.49566e-08
2.44559e-08
0
2.39256e-08
2.3589e-08
2.47322e-08
2.73773e-08
0
0
5.56537e-08
5.55517e-08
5.44182e-08
5.62632e-08
0
2.18744e-08
5.76637e-08
0
2.35589e-08
2.46638e-08
2.406e-08
2.39659e-08
2.48446e-08
2.49769e-08
0
2.42133e-08
2.37493e-08
2.33609e-08
0
0
0
0
0
0
0
0
0
0
0
0
0
0
0
0
0
0
0
0
0
0
0
0
0
0
0
0
0
0
0
0
0
0
0
0
0
0
0
0
0
0
0
2.29693e-08
0
2.151e-08
2.43682e-08
2.3415e-08
6.07967e-08
2.36333e-08
2.22106e-08
0
2.33503e-08
0
6.30748e-08
2.46327e-08
5.72997e-08
5.46958e-08
2.30118e-08
5.7446e-08
2.30073e-08
2.23535e-08
0
5.76107e-08
5.7652e-08
2.31277e-08
0
2.42519e-08
2.42507e-08
2.64418e-08
0
0
2.39245e-08
2.34447e-08
5.78538e-08
2.27781e-08
0
0
0
0
0
0
0
0
0
0
0
0
0
0
0
0
0
0
0
0
0
0
0
0
0
0
0
0
0
0
0
0
0
0
0
0
0
0
0
0
0
0
2.17406e-08
5.62363e-08
2.42204e-08
5.65422e-08
5.84708e-08
2.33091e-08
5.77803e-08
2.32218e-08
2.34488e-08
0
2.39744e-08
5.96128e-08
2.48161e-08
0
2.42934e-08
2.3528e-08
0
2.3216e-08
2.4138e-08
0
2.52166e-08
0
2.34708e-08
2.40725e-08
2.42192e-08
0
2.48864e-08
0
2.48875e-08
2.45362e-08
2.44503e-08
0
0
0
0
0
0
0
0
0
0
0
0
0
0
0
0
0
0
0
0
0
0
0
0
0
0
0
0
0
0
0
0
0
0
0
0
0
0
0
0
0
0
0
0
2.3256e-08
6.05564e-08
4.08836e-08
3.56124e-08
5.58348e-08
2.31306e-08
0
5.83215e-08
0
2.42415e-08
0
2.44221e-08
0
2.47733e-08
0
2.38413e-08
2.38834e-08
0
0
2.57752e-08
2.53301e-08
2.39364e-08
0
2.4287e-08
2.43554e-08
2.5053e-08
3.34085e-10
2.43669e-08
2.49404e-08
2.33845e-08
2.43236e-08
2.38499e-08
5.81755e-08
0
0
0
0
0
0
0
0
0
0
0
0
0
0
0
0
0
0
0
0
0
0
0
0
0
0
0
0
0
0
0
0
0
0
0
0
0
0
0
0
0
0
5.61464e-08
2.29403e-08
2.46505e-08
0
2.44451e-08
2.37607e-08
0
2.49796e-08
2.43537e-08
0
2.40723e-08
0
2.38408e-08
2.59387e-08
0
0
5.72521e-08
0
2.41821e-08
2.48735e-08
0
2.48573e-08
2.43542e-08
0
2.41564e-08
2.43704e-08
2.42874e-08
2.41729e-08
2.45085e-08
5.66922e-08
4.09054e-08
3.64233e-08
0
0
0
0
0
0
0
0
0
0
0
0
0
0
0
0
0
0
0
0
0
0
0
0
0
0
0
0
0
0
0
0
0
0
0
0
0
0
0
0
0
0
0
2.23271e-08
2.34586e-08
0
0
1.20239e-08
1.75829e-09
0
2.55328e-08
5.80992e-08
2.31184e-08
5.60704e-08
3.72456e-08
9.52806e-09
2.44849e-08
2.45083e-08
2.39091e-08
0
2.39563e-08
2.40335e-08
2.4296e-08
2.52808e-08
0
2.44997e-08
0
5.73755e-08
2.28289e-08
2.36338e-08
5.91533e-08
2.37319e-08
2.37449e-08
2.41313e-08
0
0
0
0
0
0
0
0
0
0
0
0
0
0
0
0
0
0
0
0
0
0
0
0
0
0
0
0
0
0
0
0
0
0
0
0
0
0
0
0
0
0
0
0
5.34393e-08
2.24698e-08
0
0
2.42698e-08
0
6.03655e-08
6.03053e-08
2.28114e-08
2.31941e-08
2.35702e-08
2.42557e-08
0
2.56399e-08
0
2.40523e-08
2.43182e-08
0
2.33815e-08
2.35999e-08
5.97383e-08
2.35584e-08
5.80103e-08
2.23932e-08
5.49962e-08
2.32518e-08
2.35703e-08
2.42441e-08
0
2.45467e-08
0
0
0
0
0
0
0
0
0
0
0
0
0
0
0
0
0
0
0
0
0
0
0
0
0
0
0
0
0
0
0
0
0
0
0
0
0
0
0
0
0
0
0
0
0
2.39265e-08
2.3824e-08
2.47565e-08
5.66186e-08
5.60822e-08
5.69743e-08
0
0
2.39312e-08
2.42189e-08
0
2.51011e-08
0
2.35329e-08
2.46103e-08
2.40115e-08
2.37077e-08
5.64196e-08
5.54071e-08
5.723e-08
2.35163e-08
5.78212e-08
2.35201e-08
2.33721e-08
2.36543e-08
2.45822e-08
0
2.42859e-08
2.457e-08
0
2.46386e-08
0
0
0
0
0
0
0
0
0
0
0
0
0
0
0
0
0
0
0
0
0
0
0
0
0
0
0
0
0
0
0
0
0
0
0
0
0
0
0
0
0
0
0
0
0
2.49685e-08
2.42531e-08
2.40666e-08
5.68503e-08
5.75064e-08
5.68448e-08
6.01902e-08
0
2.44549e-08
2.15838e-08
2.42985e-08
2.4281e-08
5.65398e-08
2.40475e-08
2.47305e-08
0
2.33815e-08
2.29558e-08
5.75883e-08
2.36041e-08
2.39027e-08
2.42272e-08
0
2.44169e-08
2.38507e-08
2.47575e-08
0
2.48757e-08
5.95895e-08
2.32462e-08
0
0
0
0
0
0
0
0
0
0
0
0
0
0
0
0
0
0
0
0
0
0
0
0
0
0
0
0
0
0
0
0
0
0
0
0
0
0
0
0
0
0
0
0
0
0
2.4386e-08
2.4205e-08
0
2.41914e-08
2.36684e-08
6.33165e-08
2.52122e-08
2.25889e-08
2.16286e-08
2.37586e-08
0
2.38767e-08
2.43549e-08
2.45104e-08
5.93941e-08
2.32891e-08
5.65652e-08
2.36703e-08
5.70223e-08
5.72992e-08
0
0
7.28305e-09
7.6765e-08
0
2.44261e-08
2.56112e-08
0
0
0
5.79196e-08
2.25661e-08
0
0
0
0
0
0
0
0
0
0
0
0
0
0
0
0
0
0
0
0
0
0
0
0
0
0
0
0
0
0
0
0
0
0
0
0
0
0
0
0
0
2.44409e-08
2.38804e-08
5.66829e-08
0
2.43761e-08
0
2.48159e-08
0
0
2.43642e-08
2.33772e-08
5.89482e-08
2.2597e-08
5.68936e-08
2.40977e-08
2.46448e-08
2.414e-08
2.41216e-08
2.38935e-08
2.37765e-08
2.38367e-08
2.3697e-08
2.36664e-08
0
5.6461e-08
2.29688e-08
2.33392e-08
2.64969e-08
0
0
0
2.43733e-08
2.41527e-08
2.38216e-08
0
0
0
0
0
0
0
0
0
0
0
0
0
0
0
0
0
0
0
0
0
0
0
0
0
0
0
0
0
0
0
0
0
0
0
0
0
0
0
0
0
2.2563e-08
5.68972e-08
0
2.43702e-08
2.48502e-08
1.06546e-08
4.70071e-09
2.52671e-08
2.51169e-08
0
2.43705e-08
5.71439e-08
5.64287e-08
2.26533e-08
3.58568e-08
4.10735e-08
6.16282e-08
2.43934e-08
2.32646e-08
2.32735e-08
2.37579e-08
2.46487e-08
0
2.42008e-08
2.34805e-08
2.30766e-08
2.34911e-08
6.02585e-08
2.45648e-08
0
2.38968e-08
2.42124e-08
0
0
0
0
0
0
0
0
0
0
0
0
0
0
0
0
0
0
0
0
0
0
0
0
0
0
0
0
0
0
0
0
0
0
0
0
0
0
0
0
0
0
0
2.25157e-08
0
2.41627e-08
2.41618e-08
2.46245e-08
1.69187e-10
5.89475e-08
2.62031e-08
2.42941e-08
5.67927e-08
5.525e-08
2.67101e-08
4.90776e-08
5.50332e-08
5.53798e-08
2.33054e-08
2.43433e-08
2.54154e-08
2.45386e-08
2.3473e-08
2.37329e-08
2.41292e-08
0
2.39583e-08
0
5.71353e-08
2.33907e-08
2.38131e-08
2.42601e-08
5.86367e-08
0
0
0
0
0
0
0
0
0
0
0
0
0
0
0
0
0
0
0
0
0
0
0
0
0
0
0
0
0
0
0
0
0
0
0
0
0
0
0
0
0
0
0
0
0
2.26519e-08
0
2.41584e-08
2.43034e-08
2.52197e-08
2.46743e-08
2.40822e-08
6.34612e-08
2.43895e-08
5.63698e-08
5.50595e-08
5.54225e-08
2.21301e-08
5.64117e-08
2.32711e-08
2.40289e-08
2.44978e-08
2.50325e-08
0
2.32357e-08
2.36016e-08
2.39754e-08
2.41328e-08
0
2.41621e-08
3.77289e-08
4.01607e-08
5.95563e-08
2.57698e-08
0
0
0
0
0
0
0
0
0
0
0
0
0
0
0
0
0
0
0
0
0
0
0
0
0
0
0
0
0
0
0
0
0
0
0
0
0
0
0
0
0
0
0
0
0
0
2.20734e-08
2.24106e-08
2.44083e-08
2.53983e-08
2.56576e-08
2.52089e-08
6.00862e-08
0
0
0
0
2.3651e-08
2.39359e-08
2.37789e-08
4.09568e-08
7.49174e-08
5.58429e-08
2.35229e-08
2.42775e-08
2.38942e-08
5.84236e-08
2.3385e-08
2.33678e-08
2.30844e-08
2.3649e-08
5.66478e-08
2.2807e-08
2.38207e-08
6.31921e-08
0
0
0
0
0
0
0
0
0
0
0
0
0
0
0
0
0
0
0
0
0
0
0
0
0
0
0
0
0
0
0
0
0
0
0
0
0
0
0
0
0
0
0
0
0
0
2.34192e-08
5.72354e-08
2.35007e-08
0
0
0
0
2.46815e-08
2.49795e-08
2.44603e-08
2.41139e-08
2.40355e-08
2.33162e-08
3.57431e-08
4.61939e-08
2.40168e-08
2.29351e-08
2.27753e-08
9.88753e-08
2.27767e-08
2.36392e-08
2.38947e-08
5.60561e-08
2.3442e-08
5.63372e-08
2.25285e-08
2.3001e-08
2.60475e-08
2.54171e-08
2.40134e-08
0
0
0
0
0
0
0
0
0
0
0
0
0
0
0
0
0
0
0
0
0
0
0
0
0
0
0
0
0
0
0
0
0
0
0
0
0
0
0
0
0
0
0
0
0
5.6151e-08
0
2.21665e-08
6.24949e-08
2.50202e-08
2.62611e-08
0
2.43981e-08
5.86023e-08
0
9.33083e-08
2.2006e-08
5.40514e-08
2.36231e-08
2.48392e-08
2.46029e-08
0
0
2.436e-08
2.44546e-08
5.76533e-08
2.30225e-08
2.41415e-08
5.69112e-08
2.33118e-08
2.37282e-08
2.43217e-08
2.61494e-08
0
2.48193e-08
0
0
0
0
0
0
0
0
0
0
0
0
0
0
0
0
0
0
0
0
0
0
0
0
0
0
0
0
0
0
0
0
0
0
0
0
0
0
0
0
0
0
0
0
0
2.26017e-08
2.23275e-08
6.08731e-08
2.48533e-08
2.45223e-08
0
5.87087e-08
3.35382e-08
1.41179e-08
2.38566e-08
2.2436e-08
2.37782e-08
2.63432e-08
0
2.42497e-08
2.35051e-08
2.36385e-08
2.3641e-08
2.59211e-08
5.47645e-08
2.30251e-08
5.77241e-08
2.37408e-08
2.32697e-08
2.3635e-08
2.47005e-08
2.49087e-08
2.54697e-08
2.55494e-08
2.43505e-08
0
0
0
0
0
0
0
0
0
0
0
0
0
0
0
0
0
0
0
0
0
0
0
0
0
0
0
0
0
0
0
0
0
0
0
0
0
0
0
0
0
0
0
0
0
2.29918e-08
5.86141e-08
2.45109e-08
5.9612e-08
3.82487e-08
3.85996e-08
2.28404e-08
2.39868e-08
2.66847e-08
0
0
2.30771e-08
0
0
2.70421e-08
5.16285e-08
2.24625e-08
5.77935e-08
2.30159e-08
2.30928e-08
2.32999e-08
2.43046e-08
0
2.41278e-08
2.33577e-08
5.9503e-08
2.49609e-08
2.58858e-08
0
2.386e-08
0
0
0
0
0
0
0
0
0
0
0
0
0
0
0
0
0
0
0
0
0
0
0
0
0
0
0
0
0
0
0
0
0
0
0
0
0
0
0
0
0
0
0
0
0
2.3654e-08
2.56433e-08
2.51487e-08
2.45239e-08
2.40672e-08
2.37216e-08
5.63782e-08
2.33582e-08
0
0
2.32937e-08
0
5.7597e-08
2.2466e-08
5.67695e-08
2.26147e-08
2.3103e-08
0
5.90988e-08
2.28986e-08
5.69307e-08
2.36393e-08
6.06909e-08
2.37435e-08
5.63534e-08
2.28864e-08
2.32342e-08
2.40165e-08
2.48624e-08
2.38472e-08
2.62719e-08
0
0
0
0
0
0
0
0
0
0
0
0
0
0
0
0
0
0
0
0
0
0
0
0
0
0
0
0
0
0
0
0
0
0
0
0
0
0
0
0
0
0
0
0
2.37345e-08
0
2.46383e-08
2.42696e-08
2.35097e-08
2.38032e-08
2.40796e-08
2.36777e-08
0
2.61052e-08
2.4617e-08
2.39984e-08
2.37109e-08
2.31656e-08
2.36574e-08
0
2.26225e-08
6.20369e-08
0
2.3727e-08
2.39015e-08
5.81447e-08
0
0
2.42022e-08
5.75906e-08
2.30135e-08
2.34702e-08
2.42162e-08
5.82927e-08
2.43772e-08
0
0
0
0
0
0
0
0
0
0
0
0
0
0
0
0
0
0
0
0
0
0
0
0
0
0
0
0
0
0
0
0
0
0
0
0
0
0
0
0
0
0
0
0
2.34565e-08
2.45264e-08
0
0
5.69268e-08
2.43157e-08
0
2.41463e-08
2.40706e-08
6.27846e-08
2.4118e-08
2.21829e-08
2.29792e-08
5.6725e-08
2.31655e-08
0
2.31135e-08
0
2.4135e-08
2.38844e-08
0
6.22922e-08
2.46424e-08
2.52446e-08
2.43121e-08
5.76675e-08
2.26864e-08
3.34992e-08
4.39732e-08
2.38666e-08
5.92127e-08
2.41631e-08
0
0
0
0
0
0
0
0
0
0
0
0
0
0
0
0
0
0
0
0
0
0
0
0
0
0
0
0
0
0
0
0
0
0
0
0
0
0
0
0
0
0
0
5.66643e-08
5.56023e-08
5.70666e-08
2.37841e-08
0
2.33907e-08
2.34844e-08
5.72724e-08
2.32979e-08
3.51723e-08
4.86874e-08
0
2.35865e-08
2.3801e-08
5.66385e-08
2.29866e-08
5.6768e-08
0
5.59646e-08
2.24909e-08
2.61828e-08
2.59284e-08
2.43485e-08
2.51241e-08
0
3.96904e-08
3.89879e-08
2.35893e-08
2.33752e-08
2.38903e-08
2.42571e-08
2.49152e-08
2.46096e-08
0
0
0
0
0
0
0
0
0
0
0
0
0
0
0
0
0
0
0
0
0
0
0
0
0
0
0
0
0
0
0
0
0
0
0
0
0
0
0
0
0
0
0
2.39904e-08
2.44108e-08
2.45634e-08
2.45252e-08
2.4594e-08
2.43565e-08
2.40058e-08
0
0
2.52053e-08
2.42615e-08
2.3762e-08
0
2.44099e-08
2.54624e-08
5.73459e-08
2.40382e-08
2.39308e-08
2.39619e-08
2.51688e-08
0
2.59038e-08
2.52251e-08
0
2.35222e-08
6.11757e-08
2.39119e-08
2.24571e-08
2.3153e-08
2.40724e-08
2.48609e-08
2.43635e-08
0
0
0
0
0
0
0
0
0
0
0
0
0
0
0
0
0
0
0
0
0
0
0
0
0
0
0
0
0
0
0
0
0
0
0
0
0
0
0
0
0
0
2.43447e-08
2.4588e-08
2.4691e-08
2.4637e-08
2.41547e-08
5.99924e-08
2.5249e-08
0
2.41921e-08
2.43972e-08
2.42266e-08
2.39485e-08
1.00981e-08
3.69742e-09
2.33447e-08
2.45131e-08
2.37978e-08
2.41932e-08
2.41085e-08
2.39998e-08
2.42751e-08
2.47382e-08
2.51542e-08
0
5.88238e-08
4.03751e-08
3.75843e-08
2.42941e-08
2.37099e-08
2.31949e-08
2.38359e-08
2.43913e-08
2.65007e-08
0
0
0
0
0
0
0
0
0
0
0
0
0
0
0
0
0
0
0
0
0
0
0
0
0
0
0
0
0
0
0
0
0
0
0
0
0
0
0
0
0
0
2.36897e-08
2.40139e-08
2.4486e-08
2.37494e-08
2.48081e-08
2.65739e-08
0
2.35582e-08
2.3755e-08
2.31457e-08
2.29465e-08
2.33376e-08
5.82252e-08
0
0
2.41817e-08
0
2.3682e-08
2.35493e-08
5.7996e-08
3.18363e-08
4.62921e-08
5.9052e-08
0
2.3984e-08
2.38545e-08
2.4102e-08
5.96076e-08
0
2.36586e-08
0
2.63769e-08
5.90779e-08
2.54972e-08
0
0
0
0
0
0
0
0
0
0
0
0
0
0
0
0
0
0
0
0
0
0
0
0
0
0
0
0
0
0
0
0
0
0
0
0
0
0
0
0
0
0
0
2.43816e-08
2.43895e-08
2.46864e-08
2.5563e-08
2.58738e-08
5.83766e-08
2.34788e-08
2.25114e-08
5.6834e-08
2.37733e-08
0
2.34737e-08
2.42077e-08
2.43702e-08
2.31512e-08
5.83319e-08
0
2.39266e-08
4.48397e-08
3.31038e-08
2.38186e-08
2.40273e-08
2.36461e-08
2.45345e-08
2.40125e-08
2.43432e-08
2.43361e-08
2.3902e-08
5.8515e-08
2.3594e-08
2.52219e-08
0
2.25993e-08
2.3671e-08
0
0
0
0
0
0
0
0
0
0
0
0
0
0
0
0
0
0
0
0
0
0
0
0
0
0
0
0
0
0
0
0
0
0
0
0
0
0
0
2.41245e-08
2.39677e-08
0
2.35844e-08
2.45377e-08
2.51298e-08
2.55515e-08
5.86113e-08
2.30877e-08
2.28932e-08
2.38316e-08
2.3748e-08
5.69279e-08
5.66174e-08
5.67413e-08
5.70299e-08
0
2.38149e-08
0
2.39478e-08
0
2.45288e-08
0
2.4718e-08
2.52123e-08
2.48233e-08
0
0
0
0
0
2.41291e-08
2.43256e-08
2.49376e-08
5.97893e-08
2.48358e-08
2.49505e-08
2.42301e-08
0
2.3876e-08
0
0
0
0
0
0
0
0
0
0
0
0
0
0
0
0
0
0
0
0
0
0
0
0
0
0
0
0
0
0
0
0
0
0
0
2.46169e-08
5.48882e-08
9.8099e-08
0
2.55652e-08
0
2.54303e-08
2.35443e-08
2.25078e-08
2.37931e-08
2.4362e-08
2.41723e-08
2.41921e-08
0
2.43477e-08
0
2.45117e-08
5.63306e-08
0
5.68805e-08
2.35197e-08
2.3892e-08
2.48386e-08
2.40927e-08
9.91829e-08
2.3743e-08
2.44142e-08
0
0
0
2.46976e-08
2.45011e-08
5.75217e-08
0
2.41031e-08
2.61353e-08
2.53635e-08
2.44038e-08
5.59276e-08
2.3238e-08
0
0
0
0
0
0
0
0
0
0
0
0
0
0
0
0
0
0
0
0
0
0
0
0
0
0
0
0
0
0
0
0
0
0
0
5.7578e-08
5.36819e-08
2.20983e-08
5.58076e-08
0
2.45155e-08
1.02649e-07
2.19101e-08
0
0
0
2.42082e-08
1.96666e-09
2.07736e-08
2.44517e-08
2.44558e-08
2.46178e-08
2.42087e-08
2.33448e-08
2.42005e-08
2.36022e-08
0
0
2.45865e-08
2.4056e-08
5.79181e-08
2.44812e-08
5.70279e-08
0
2.43058e-08
2.44109e-08
2.42609e-08
5.82778e-08
2.36422e-08
2.45198e-08
2.53067e-08
0
2.3797e-08
2.41476e-08
2.41138e-08
9.86768e-08
0
0
0
0
0
0
0
0
0
0
0
0
0
0
0
0
0
0
0
0
0
0
0
0
0
0
0
0
0
0
0
0
0
0
2.42251e-08
2.40469e-08
2.37802e-08
0
2.38828e-08
2.55614e-08
2.45931e-08
2.34727e-08
2.34796e-08
2.41397e-08
2.45427e-08
0
2.37355e-08
2.44814e-08
5.82594e-08
2.36112e-08
0
2.38084e-08
2.30879e-08
0
5.78952e-08
2.41693e-08
0
9.82838e-08
2.31161e-08
0
0
2.40763e-08
5.75333e-08
2.32585e-08
2.38036e-08
2.42195e-08
2.43681e-08
2.39767e-08
2.49593e-08
2.42835e-08
2.54288e-08
2.4799e-08
2.44886e-08
0
2.4482e-08
5.72587e-08
0
0
0
0
0
0
0
0
0
0
0
0
0
0
0
0
0
0
0
0
0
0
0
0
0
0
0
0
0
0
0
0
0
)
;


// ************************************************************************* //
