/*--------------------------------*- C++ -*----------------------------------*\
  =========                 |
  \\      /  F ield         | OpenFOAM: The Open Source CFD Toolbox
   \\    /   O peration     | Website:  https://openfoam.org
    \\  /    A nd           | Version:  12
     \\/     M anipulation  |
\*---------------------------------------------------------------------------*/
FoamFile
{
    format      ascii;
    class       volScalarField;
    location    "0.95";
    object      p;
}
// * * * * * * * * * * * * * * * * * * * * * * * * * * * * * * * * * * * * * //

dimensions      [0 2 -2 0 0 0 0];

internalField   nonuniform List<scalar> 
3750
(
0.771253
0.761734
0.754012
0.749774
0.74366
0.725048
0.713007
0.70273
0.691493
0.67892
0.664209
0.64646
0.626618
0.613667
0.65416
0.644082
0.625332
0.600669
0.588491
0.578513
0.568681
0.559523
0.551149
0.540583
0.518921
0.508704
0.499205
0.489714
0.480439
0.47164
0.464142
0.456678
0.444051
0.424025
0.409177
0.399956
0.392291
0.383422
0.373914
0.364084
0.354114
0.344115
0.333919
0.323763
0.313584
0.303371
0.293138
0.28289
0.272633
0.262367
0.252095
0.241819
0.23154
0.221258
0.210974
0.200688
0.1904
0.180111
0.169823
0.159533
0.149243
0.138951
0.128656
0.118358
0.108058
0.0977567
0.0874573
0.0771631
0.0668745
0.0565873
0.0462988
0.0360078
0.0257184
0.0154226
0.00513285
0.770919
0.760441
0.74978
0.742238
0.745462
0.731098
0.717495
0.705435
0.692924
0.681079
0.667326
0.647944
0.635361
0.629632
0.638305
0.634614
0.631306
0.588331
0.586388
0.578466
0.567988
0.557523
0.549767
0.543254
0.518479
0.510292
0.499212
0.489379
0.479733
0.470702
0.462589
0.454268
0.442075
0.427651
0.413701
0.402512
0.39344
0.383932
0.374135
0.364173
0.354288
0.344199
0.333983
0.323811
0.313612
0.303389
0.29315
0.282898
0.272638
0.26237
0.252097
0.241821
0.231542
0.22126
0.210975
0.200688
0.1904
0.180111
0.169823
0.159534
0.149244
0.138951
0.128655
0.118355
0.108054
0.0977508
0.0874513
0.0771581
0.0668724
0.0565882
0.0463014
0.0360108
0.0257182
0.0154196
0.00512911
0.770733
0.758809
0.743921
0.729533
0.753948
0.73895
0.722383
0.70877
0.693634
0.681666
0.670822
0.652107
0.641604
0.635005
0.630433
0.623581
0.61377
0.597705
0.59027
0.580701
0.568251
0.553972
0.546155
0.543916
0.527585
0.512417
0.500087
0.488976
0.479014
0.469419
0.460562
0.451778
0.440896
0.428616
0.416599
0.405163
0.394767
0.384698
0.374629
0.364505
0.354424
0.344285
0.334093
0.323882
0.31366
0.303422
0.293173
0.282915
0.27265
0.26238
0.252105
0.241827
0.231546
0.221262
0.210977
0.20069
0.190401
0.180111
0.169822
0.159533
0.149242
0.138949
0.128653
0.118354
0.108053
0.0977496
0.0874493
0.0771572
0.066871
0.0565852
0.0462978
0.0360079
0.0257169
0.0154188
0.00512548
0.771053
0.759887
0.747743
0.740528
0.742867
0.733231
0.722572
0.715807
0.690832
0.677278
0.674847
0.66014
0.647189
0.636797
0.628296
0.615407
0.600699
0.597226
0.597946
0.584517
0.569635
0.547653
0.530104
0.547087
0.534665
0.513871
0.499708
0.488091
0.477049
0.466701
0.458735
0.451497
0.441543
0.429965
0.418304
0.40681
0.395936
0.385475
0.375147
0.364885
0.35468
0.344448
0.334209
0.323967
0.313721
0.303467
0.293206
0.28294
0.272669
0.262394
0.252116
0.241835
0.231552
0.221267
0.21098
0.200691
0.190401
0.180111
0.169821
0.159531
0.14924
0.138947
0.128652
0.118355
0.108056
0.0977566
0.0874594
0.0771673
0.0668785
0.0565896
0.0462997
0.036008
0.0257163
0.0154166
0.00512331
0.771771
0.761735
0.752074
0.744503
0.738892
0.729094
0.717523
0.738604
0.676561
0.663652
0.684256
0.66649
0.65147
0.636296
0.630109
0.611529
0.583894
0.595356
0.609563
0.585316
0.569754
0.543726
0.533451
0.533158
0.533609
0.516843
0.500246
0.487899
0.47466
0.460782
0.453976
0.454328
0.444094
0.431493
0.419372
0.407818
0.396769
0.386081
0.375593
0.365216
0.354904
0.344617
0.334337
0.324063
0.313791
0.303519
0.293245
0.282968
0.27269
0.26241
0.252129
0.241845
0.231559
0.221272
0.210983
0.200693
0.190402
0.180111
0.16982
0.15953
0.149239
0.138947
0.128653
0.118358
0.108062
0.0977648
0.0874688
0.0771758
0.0668845
0.0565931
0.0463011
0.0360084
0.0257162
0.0154149
0.00512184
0.771532
0.763339
0.75463
0.745809
0.740597
0.735192
0.724964
0.72018
0.686989
0.675297
0.67534
0.664228
0.653305
0.636061
0.631399
0.621291
0.600541
0.590926
0.590274
0.580097
0.566591
0.547692
0.535007
0.514381
0.536884
0.520812
0.502324
0.487724
0.473926
0.457437
0.443074
0.463291
0.44806
0.432526
0.419918
0.408322
0.397244
0.386488
0.375927
0.36548
0.355106
0.344769
0.334455
0.324154
0.313861
0.303571
0.293285
0.282999
0.272713
0.262428
0.252142
0.241855
0.231567
0.221278
0.210988
0.200696
0.190404
0.180112
0.16982
0.15953
0.14924
0.138948
0.128656
0.118362
0.108067
0.0977715
0.0874765
0.0771824
0.0668891
0.056596
0.0463026
0.0360091
0.0257162
0.0154138
0.00512099
0.770695
0.76533
0.757986
0.743117
0.739757
0.74154
0.72535
0.723836
0.67913
0.677347
0.673048
0.660542
0.650486
0.637676
0.631477
0.624855
0.613496
0.592886
0.582571
0.574645
0.562761
0.552161
0.549863
0.510273
0.522484
0.51531
0.502736
0.489071
0.475139
0.461825
0.453028
0.452466
0.443081
0.431005
0.419439
0.408282
0.3974
0.386708
0.376148
0.36568
0.355272
0.344905
0.334563
0.324239
0.313927
0.303623
0.293324
0.283029
0.272736
0.262445
0.252156
0.241866
0.231576
0.221285
0.210994
0.200701
0.190408
0.180116
0.169823
0.159532
0.149242
0.138951
0.128659
0.118366
0.108072
0.0977766
0.0874816
0.0771871
0.0668929
0.0565987
0.0463043
0.0360101
0.0257163
0.0154132
0.00512038
0.776259
0.769659
0.769627
0.728923
0.727249
0.709873
0.713504
0.708486
0.690616
0.68143
0.674921
0.656452
0.648865
0.638775
0.630958
0.624507
0.613658
0.598091
0.586019
0.575605
0.557444
0.54821
0.539893
0.524649
0.519528
0.513541
0.50363
0.490944
0.473831
0.463198
0.456231
0.445345
0.438179
0.428879
0.418564
0.407983
0.397369
0.386794
0.376277
0.365813
0.355394
0.345009
0.33465
0.32431
0.313984
0.303668
0.29336
0.283058
0.272759
0.262463
0.252169
0.241878
0.231586
0.221294
0.211001
0.200708
0.190414
0.180121
0.169828
0.159537
0.149246
0.138955
0.128663
0.11837
0.108076
0.0977809
0.0874857
0.0771908
0.0668959
0.056601
0.046306
0.0360112
0.0257165
0.0154131
0.00512004
0.77998
0.768401
0.757426
0.737656
0.725707
0.714941
0.711814
0.704677
0.692969
0.683614
0.67331
0.657644
0.647857
0.639015
0.629525
0.622752
0.613135
0.601724
0.591251
0.584606
0.54338
0.543502
0.537299
0.528243
0.520998
0.514662
0.506164
0.492477
0.474396
0.462069
0.454929
0.442341
0.436515
0.427676
0.417934
0.407709
0.397294
0.386823
0.376352
0.365903
0.355483
0.345089
0.334719
0.324368
0.314031
0.303707
0.293392
0.283083
0.27278
0.262481
0.252184
0.24189
0.231597
0.221304
0.21101
0.200715
0.190421
0.180127
0.169834
0.159541
0.14925
0.138959
0.128668
0.118375
0.10808
0.0977849
0.0874894
0.0771941
0.0668987
0.0566033
0.0463078
0.0360123
0.025717
0.0154131
0.00511987
0.778006
0.767121
0.754294
0.738528
0.725002
0.725445
0.716158
0.704971
0.692501
0.684327
0.672028
0.659026
0.648373
0.638899
0.62924
0.621297
0.613229
0.599453
0.58789
0.570788
0.55254
0.545364
0.537733
0.529558
0.522167
0.514626
0.505581
0.493008
0.477572
0.454803
0.454962
0.444943
0.436495
0.427544
0.417739
0.407606
0.397274
0.386852
0.376405
0.365964
0.355544
0.345145
0.334768
0.324409
0.314066
0.303736
0.293416
0.283103
0.272796
0.262494
0.252196
0.241901
0.231606
0.221312
0.211017
0.200722
0.190427
0.180133
0.169839
0.159547
0.149256
0.138965
0.128673
0.118379
0.108084
0.0977887
0.087493
0.0771972
0.0669014
0.0566055
0.0463095
0.0360135
0.0257177
0.0154133
0.00511982
0.776415
0.767238
0.754615
0.738312
0.71952
0.737437
0.721332
0.705894
0.693738
0.682597
0.670224
0.658925
0.648377
0.638172
0.628309
0.619554
0.612688
0.592769
0.583775
0.56675
0.556498
0.547953
0.538413
0.530441
0.523492
0.515835
0.506095
0.495969
0.487133
0.487066
0.464262
0.449905
0.43864
0.428286
0.418018
0.407714
0.397337
0.386903
0.376452
0.366008
0.355584
0.345181
0.3348
0.324436
0.314089
0.303756
0.293432
0.283117
0.272809
0.262506
0.252206
0.241909
0.231614
0.221318
0.211023
0.200727
0.190432
0.180138
0.169845
0.159554
0.149262
0.138971
0.128678
0.118384
0.108088
0.0977924
0.0874963
0.0772002
0.0669041
0.0566077
0.0463113
0.0360148
0.0257185
0.0154136
0.00511986
0.780407
0.770783
0.757392
0.743216
0.731857
0.729187
0.717689
0.705049
0.694281
0.682579
0.66923
0.657173
0.648141
0.637119
0.62701
0.618225
0.60791
0.591082
0.579321
0.562613
0.561088
0.55142
0.537662
0.52754
0.526704
0.518993
0.507464
0.497032
0.487475
0.479027
0.465028
0.451935
0.440168
0.42921
0.418477
0.40794
0.397449
0.386962
0.376487
0.366031
0.3556
0.345194
0.33481
0.324446
0.314098
0.303764
0.29344
0.283125
0.272816
0.262512
0.252212
0.241915
0.231619
0.221323
0.211027
0.20073
0.190435
0.180141
0.169849
0.159559
0.149268
0.138976
0.128683
0.118388
0.108092
0.0977962
0.0874998
0.0772033
0.0669068
0.0566101
0.0463132
0.0360162
0.0257194
0.015414
0.00511996
0.791324
0.777347
0.761211
0.748973
0.739092
0.728118
0.714168
0.702403
0.696167
0.685092
0.667163
0.649878
0.652189
0.635224
0.624945
0.615655
0.604449
0.590769
0.583373
0.54667
0.574269
0.554963
0.534886
0.517036
0.536621
0.521085
0.507325
0.496693
0.486681
0.476436
0.464596
0.452491
0.4409
0.429743
0.418807
0.408162
0.397556
0.387007
0.376504
0.366033
0.355595
0.345187
0.334804
0.32444
0.314094
0.303761
0.293439
0.283125
0.272817
0.262515
0.252216
0.241919
0.231622
0.221326
0.211029
0.200732
0.190436
0.180142
0.169852
0.159563
0.149273
0.138981
0.128687
0.118392
0.108096
0.0978001
0.0875036
0.0772067
0.0669097
0.0566125
0.0463152
0.0360177
0.0257204
0.0154145
0.00512011
0.780595
0.775531
0.762126
0.751307
0.74143
0.731549
0.708829
0.703279
0.696336
0.690616
0.673752
0.629253
0.667394
0.623497
0.621005
0.615094
0.603302
0.586261
0.567577
0.577801
0.571415
0.554872
0.538827
0.523947
0.523349
0.514904
0.505391
0.496065
0.486056
0.475424
0.464298
0.452748
0.441202
0.430015
0.419063
0.408285
0.397607
0.387011
0.376478
0.365996
0.355558
0.345152
0.334773
0.324416
0.314076
0.303748
0.29343
0.28312
0.272816
0.262515
0.252217
0.241922
0.231626
0.221329
0.211033
0.200736
0.19044
0.180147
0.169857
0.159567
0.149277
0.138985
0.128692
0.118397
0.108101
0.0978043
0.0875075
0.0772102
0.0669127
0.056615
0.0463172
0.0360193
0.0257215
0.0154151
0.0051203
0.780406
0.772385
0.760294
0.751094
0.740405
0.730753
0.707117
0.702738
0.696438
0.688846
0.668605
0.644227
0.645443
0.628781
0.618869
0.62061
0.607204
0.592754
0.581968
0.580478
0.564036
0.553688
0.543112
0.525063
0.515584
0.508631
0.503227
0.496039
0.486046
0.47528
0.464188
0.452726
0.441327
0.430153
0.419146
0.408297
0.397572
0.38695
0.376409
0.365928
0.355494
0.345097
0.334728
0.32438
0.314047
0.303727
0.293415
0.28311
0.27281
0.262513
0.252218
0.241923
0.231629
0.221334
0.211039
0.200744
0.190449
0.180156
0.169865
0.159574
0.149283
0.138991
0.128697
0.118402
0.108105
0.0978088
0.0875117
0.077214
0.0669158
0.0566176
0.0463195
0.036021
0.0257227
0.0154157
0.00512051
0.783832
0.772295
0.759538
0.747331
0.735436
0.72366
0.709164
0.702243
0.696836
0.688683
0.67366
0.647105
0.639182
0.627846
0.613576
0.635563
0.610589
0.597072
0.589401
0.589843
0.550569
0.552522
0.555056
0.514726
0.505718
0.500405
0.505686
0.498711
0.487034
0.475476
0.464061
0.452658
0.44132
0.430112
0.419066
0.408178
0.397434
0.386807
0.376273
0.365807
0.35539
0.345011
0.334657
0.324323
0.314004
0.303695
0.293393
0.283095
0.272801
0.262508
0.252216
0.241924
0.231632
0.221339
0.211045
0.200751
0.190457
0.180165
0.169874
0.159583
0.149291
0.138998
0.128703
0.118407
0.108111
0.0978137
0.0875162
0.077218
0.0669192
0.0566205
0.0463219
0.0360229
0.025724
0.0154164
0.00512075
0.777959
0.772659
0.760359
0.743303
0.730375
0.719645
0.709239
0.701068
0.695789
0.687383
0.67312
0.650802
0.639244
0.633129
0.629113
0.640039
0.598554
0.595662
0.587904
0.576484
0.558589
0.550976
0.546331
0.538175
0.494328
0.487758
0.511563
0.502112
0.488119
0.475767
0.464046
0.452529
0.441142
0.42992
0.418835
0.407923
0.397178
0.386572
0.376069
0.365636
0.355251
0.3449
0.334571
0.324258
0.313955
0.303658
0.293366
0.283077
0.272788
0.262501
0.252213
0.241925
0.231635
0.221343
0.211051
0.200758
0.190466
0.180174
0.169883
0.159591
0.149299
0.139005
0.128709
0.118413
0.108116
0.0978189
0.0875209
0.0772222
0.066923
0.0566237
0.0463244
0.0360249
0.0257253
0.0154172
0.00512101
0.775628
0.769869
0.75866
0.740708
0.725294
0.716469
0.70831
0.699439
0.692715
0.680604
0.666612
0.654698
0.646346
0.64022
0.634034
0.627639
0.609826
0.599313
0.58917
0.569772
0.557017
0.54636
0.537699
0.533764
0.513333
0.503333
0.505574
0.498127
0.487228
0.475654
0.463868
0.452269
0.440842
0.429598
0.418423
0.407495
0.396782
0.386234
0.375791
0.365414
0.355078
0.344766
0.334469
0.324181
0.313897
0.303617
0.293337
0.283056
0.272776
0.262494
0.252211
0.241926
0.231639
0.221349
0.211056
0.200764
0.190474
0.180183
0.169893
0.1596
0.149307
0.139012
0.128716
0.11842
0.108122
0.0978244
0.0875258
0.0772267
0.0669271
0.0566273
0.0463272
0.036027
0.0257268
0.0154181
0.00512131
0.765339
0.763321
0.754176
0.742337
0.722911
0.71539
0.707401
0.699386
0.688319
0.675163
0.660234
0.652232
0.654351
0.648602
0.638278
0.626824
0.613695
0.602713
0.599691
0.55686
0.553288
0.542659
0.526452
0.542343
0.518378
0.51027
0.502082
0.495783
0.486964
0.475615
0.463758
0.451831
0.440346
0.42901
0.417708
0.406817
0.396223
0.385791
0.375448
0.365152
0.354878
0.344616
0.334358
0.324099
0.313838
0.303574
0.293307
0.283037
0.272764
0.262487
0.252209
0.241927
0.231642
0.221353
0.211062
0.200772
0.190482
0.180193
0.169902
0.15961
0.149315
0.13902
0.128724
0.118426
0.108129
0.0978302
0.0875312
0.0772315
0.0669315
0.056631
0.0463301
0.0360292
0.0257284
0.0154191
0.00512162
0.777493
0.762038
0.748237
0.734173
0.72601
0.715642
0.711368
0.700986
0.687635
0.671673
0.651827
0.638447
0.671712
0.659653
0.641787
0.627715
0.614967
0.597971
0.586235
0.566827
0.556475
0.546993
0.537652
0.535678
0.519679
0.507709
0.497109
0.497779
0.488623
0.476032
0.46361
0.450909
0.439568
0.427883
0.41658
0.405882
0.395503
0.385257
0.375059
0.364869
0.354673
0.344466
0.334248
0.324019
0.313781
0.303535
0.293281
0.28302
0.272754
0.262483
0.252208
0.241929
0.231646
0.221358
0.211067
0.200778
0.190489
0.180201
0.169911
0.159619
0.149324
0.139028
0.128732
0.118434
0.108136
0.0978365
0.0875369
0.0772368
0.0669362
0.0566349
0.0463332
0.0360316
0.0257302
0.0154201
0.00512195
0.773951
0.759445
0.743093
0.723264
0.731146
0.709948
0.721591
0.704145
0.687774
0.671915
0.653832
0.639003
0.671132
0.659095
0.642053
0.628289
0.616811
0.588888
0.579827
0.568491
0.559902
0.551578
0.542258
0.532983
0.52025
0.505852
0.48929
0.505814
0.490695
0.476267
0.463369
0.449724
0.439859
0.426457
0.414865
0.40463
0.394646
0.384673
0.374652
0.364581
0.354468
0.34432
0.334146
0.323949
0.313733
0.303503
0.293261
0.283009
0.27275
0.262483
0.252211
0.241934
0.231652
0.221366
0.211077
0.20079
0.190502
0.180213
0.169922
0.159628
0.149333
0.139037
0.12874
0.118442
0.108143
0.0978434
0.0875432
0.0772423
0.0669409
0.056639
0.0463367
0.0360344
0.0257321
0.0154212
0.00512232
0.769634
0.756635
0.751862
0.732104
0.728379
0.709226
0.711523
0.700307
0.687624
0.674847
0.662301
0.653494
0.655738
0.651459
0.63917
0.626671
0.613433
0.587869
0.572425
0.563429
0.564128
0.557452
0.546119
0.534925
0.523332
0.511315
0.501688
0.492763
0.484751
0.474953
0.463838
0.45087
0.437529
0.423395
0.412327
0.403182
0.393801
0.384151
0.374311
0.364353
0.354313
0.344213
0.334072
0.323898
0.3137
0.303483
0.293251
0.283006
0.272751
0.262489
0.25222
0.241945
0.231665
0.221381
0.211094
0.200806
0.190517
0.180226
0.169933
0.159639
0.149344
0.139047
0.128749
0.118451
0.108151
0.0978508
0.0875499
0.0772483
0.0669461
0.0566433
0.0463404
0.0360373
0.0257342
0.0154224
0.00512271
0.769316
0.747763
0.774909
0.726519
0.722609
0.710473
0.704185
0.696659
0.687674
0.677568
0.667914
0.658915
0.649707
0.642933
0.634654
0.624489
0.608785
0.586154
0.565978
0.552803
0.57751
0.564818
0.549537
0.537534
0.526601
0.516861
0.516582
0.478156
0.478742
0.473273
0.465339
0.447933
0.435444
0.419528
0.410197
0.402154
0.393206
0.383766
0.374068
0.364193
0.354208
0.344146
0.33403
0.323874
0.313688
0.303479
0.293253
0.283013
0.272762
0.262501
0.252234
0.24196
0.231681
0.221398
0.211112
0.200824
0.190534
0.180242
0.169948
0.159652
0.149356
0.139058
0.12876
0.11846
0.10816
0.0978589
0.087557
0.0772546
0.0669516
0.0566481
0.0463443
0.0360404
0.0257363
0.0154237
0.00512313
0.772824
0.748229
0.754226
0.737406
0.725823
0.706999
0.699322
0.695033
0.689002
0.680094
0.672432
0.663074
0.645209
0.636058
0.630533
0.619434
0.605246
0.587216
0.572276
0.564315
0.568307
0.561746
0.550945
0.539347
0.526967
0.513424
0.50435
0.488075
0.478134
0.473188
0.473967
0.433301
0.431432
0.419088
0.410238
0.402051
0.393095
0.383685
0.374007
0.364153
0.354184
0.344136
0.334029
0.323879
0.313698
0.303493
0.293269
0.28303
0.27278
0.262521
0.252253
0.24198
0.231701
0.221418
0.211132
0.200844
0.190554
0.18026
0.169963
0.159667
0.14937
0.139071
0.128772
0.118471
0.10817
0.0978676
0.0875648
0.0772614
0.0669575
0.0566531
0.0463485
0.0360435
0.0257386
0.015425
0.00512357
0.767883
0.752568
0.746657
0.738261
0.735631
0.69326
0.692777
0.697946
0.691082
0.681643
0.677073
0.675258
0.63357
0.631629
0.625494
0.615433
0.603387
0.589721
0.577595
0.569859
0.565153
0.559916
0.55208
0.538899
0.525413
0.508424
0.499896
0.490047
0.472777
0.467692
0.459841
0.442391
0.43211
0.421593
0.411899
0.402706
0.393401
0.38385
0.374107
0.364223
0.354239
0.344181
0.334068
0.323915
0.313732
0.303524
0.293299
0.283059
0.272807
0.262547
0.252279
0.242004
0.231724
0.221441
0.211154
0.200865
0.190572
0.180277
0.169981
0.159683
0.149384
0.139085
0.128784
0.118483
0.10818
0.0978768
0.087573
0.0772686
0.0669637
0.0566584
0.0463528
0.0360469
0.025741
0.0154264
0.00512404
0.761433
0.753246
0.743692
0.733816
0.722133
0.700271
0.684224
0.70695
0.695794
0.683435
0.673992
0.663209
0.643975
0.633289
0.623971
0.613871
0.602725
0.590933
0.578956
0.569768
0.563819
0.560459
0.554329
0.53345
0.525015
0.508784
0.497233
0.484294
0.469993
0.462523
0.455228
0.444017
0.433588
0.423612
0.413532
0.403712
0.393989
0.384218
0.374353
0.364398
0.354369
0.344282
0.33415
0.323982
0.313789
0.303574
0.293343
0.283098
0.272843
0.26258
0.25231
0.242033
0.231752
0.221467
0.211178
0.200887
0.190592
0.180296
0.169998
0.159699
0.1494
0.139099
0.128798
0.118495
0.108191
0.0978867
0.0875818
0.0772763
0.0669703
0.0566639
0.0463573
0.0360504
0.0257434
0.0154279
0.00512452
0.762027
0.752112
0.741894
0.73107
0.718914
0.704117
0.693962
0.698848
0.693737
0.683051
0.672162
0.66002
0.645752
0.63372
0.62323
0.613366
0.603192
0.591848
0.577506
0.567374
0.56275
0.557961
0.55028
0.534792
0.523779
0.508769
0.496336
0.48008
0.467876
0.460956
0.454405
0.444774
0.434671
0.424745
0.414595
0.404558
0.394621
0.384674
0.374685
0.364645
0.354557
0.344428
0.334266
0.324077
0.313867
0.30364
0.2934
0.283149
0.272888
0.26262
0.252346
0.242067
0.231783
0.221496
0.211205
0.200911
0.190615
0.180316
0.170017
0.159717
0.149417
0.139115
0.128812
0.118508
0.108203
0.0978972
0.087591
0.0772844
0.0669772
0.0566697
0.046362
0.0360541
0.025746
0.0154294
0.00512503
0.762786
0.751349
0.740546
0.729934
0.718492
0.70636
0.69539
0.690968
0.696822
0.684367
0.671693
0.658905
0.645289
0.632831
0.622055
0.612567
0.603708
0.592033
0.578255
0.567467
0.56242
0.555411
0.547145
0.536649
0.527058
0.506196
0.489829
0.474058
0.466235
0.461403
0.456398
0.446328
0.435755
0.425707
0.415506
0.405365
0.395271
0.385179
0.375072
0.364941
0.354786
0.344608
0.334409
0.324192
0.313962
0.30372
0.293468
0.283208
0.27294
0.262667
0.252388
0.242105
0.231819
0.221528
0.211235
0.200938
0.190639
0.180339
0.170038
0.159737
0.149435
0.139132
0.128827
0.118521
0.108215
0.0979081
0.0876007
0.0772928
0.0669845
0.0566758
0.0463669
0.0360578
0.0257487
0.015431
0.00512555
0.761842
0.749968
0.7394
0.729468
0.71892
0.706984
0.690764
0.67964
0.703298
0.689742
0.672286
0.658814
0.643827
0.630425
0.619582
0.608054
0.598585
0.592693
0.579237
0.570021
0.561654
0.553286
0.54582
0.538524
0.538031
0.493766
0.478256
0.470075
0.470167
0.466846
0.458102
0.447696
0.437097
0.427007
0.41648
0.406149
0.395918
0.385694
0.375478
0.36526
0.355038
0.344807
0.334569
0.324323
0.31407
0.303811
0.293546
0.283275
0.272999
0.262719
0.252435
0.242148
0.231858
0.221564
0.211268
0.200968
0.190667
0.180364
0.170061
0.159759
0.149455
0.13915
0.128843
0.118536
0.108228
0.0979196
0.0876107
0.0773015
0.0669919
0.056682
0.046372
0.0360618
0.0257515
0.0154327
0.00512609
0.759818
0.747125
0.737519
0.729362
0.721078
0.71106
0.691489
0.685711
0.692663
0.68909
0.677104
0.662105
0.640232
0.627076
0.617363
0.597681
0.591769
0.592211
0.583287
0.571759
0.561027
0.551256
0.543122
0.533337
0.521625
0.498568
0.475268
0.459324
0.483081
0.472763
0.459513
0.448856
0.438414
0.427987
0.417419
0.406949
0.39656
0.386209
0.375886
0.365584
0.355297
0.345014
0.334736
0.32446
0.314184
0.303907
0.293628
0.283347
0.273062
0.262775
0.252485
0.242194
0.2319
0.221603
0.211303
0.201001
0.190697
0.180392
0.170086
0.159781
0.149475
0.139168
0.12886
0.118551
0.108241
0.0979313
0.0876211
0.0773105
0.0669996
0.0566884
0.0463772
0.0360658
0.0257543
0.0154344
0.00512665
0.752165
0.74243
0.73565
0.729411
0.724942
0.725573
0.678775
0.68423
0.688053
0.686237
0.678094
0.665371
0.642497
0.631119
0.627524
0.581829
0.575967
0.599419
0.58607
0.572139
0.559413
0.547502
0.540621
0.529235
0.516077
0.49902
0.479993
0.468147
0.473624
0.468741
0.459706
0.449768
0.439504
0.428941
0.4183
0.407686
0.397156
0.386688
0.37627
0.365891
0.355539
0.345214
0.334902
0.324598
0.314301
0.304007
0.293715
0.283422
0.273129
0.262834
0.252539
0.242242
0.231943
0.221643
0.21134
0.201034
0.190727
0.180419
0.170111
0.159804
0.149496
0.139186
0.128876
0.118566
0.108255
0.0979434
0.0876316
0.0773196
0.0670074
0.056695
0.0463825
0.0360699
0.0257572
0.0154361
0.00512722
0.748554
0.740498
0.733285
0.727631
0.723898
0.724773
0.675931
0.680448
0.692775
0.688162
0.679889
0.676298
0.631625
0.627398
0.61722
0.596001
0.586921
0.590598
0.58279
0.570802
0.558501
0.545476
0.538271
0.526728
0.514926
0.501544
0.480781
0.472232
0.469768
0.467344
0.461001
0.451512
0.440797
0.42994
0.419121
0.408364
0.397701
0.387125
0.37662
0.366173
0.35577
0.345401
0.335057
0.324729
0.314412
0.304104
0.293799
0.283497
0.273196
0.262895
0.252593
0.242291
0.231988
0.221683
0.211376
0.201067
0.190757
0.180447
0.170137
0.159827
0.149516
0.139205
0.128894
0.118581
0.108269
0.0979557
0.0876424
0.0773288
0.0670153
0.0567016
0.0463879
0.036074
0.0257602
0.0154378
0.0051278
0.751528
0.737898
0.72955
0.72384
0.718618
0.710551
0.687275
0.676327
0.703675
0.690238
0.676374
0.663092
0.642994
0.631072
0.618878
0.599374
0.591613
0.585854
0.581281
0.570157
0.55816
0.542174
0.533887
0.52446
0.515736
0.512189
0.46886
0.4674
0.465874
0.472236
0.46498
0.453656
0.442183
0.430916
0.419842
0.408935
0.398154
0.387484
0.376908
0.366407
0.355964
0.345565
0.335196
0.324849
0.314517
0.304196
0.293881
0.283571
0.273262
0.262955
0.252648
0.242341
0.232033
0.221723
0.211413
0.201101
0.190788
0.180475
0.170162
0.15985
0.149537
0.139224
0.128911
0.118597
0.108283
0.0979683
0.0876532
0.0773381
0.0670231
0.0567082
0.0463933
0.0360782
0.0257632
0.0154396
0.00512838
0.753421
0.735491
0.725187
0.719806
0.716406
0.70998
0.699079
0.691329
0.694308
0.685306
0.673601
0.659894
0.645885
0.63468
0.626154
0.594258
0.594936
0.587577
0.578991
0.568549
0.560136
0.538076
0.530637
0.521718
0.511475
0.499395
0.477944
0.464242
0.461934
0.487774
0.47093
0.455772
0.443364
0.43173
0.420442
0.409383
0.398496
0.387752
0.377123
0.366585
0.356116
0.345696
0.335313
0.324954
0.314612
0.304282
0.29396
0.283642
0.273328
0.263015
0.252703
0.242391
0.232078
0.221764
0.21145
0.201135
0.19082
0.180505
0.17019
0.159875
0.149559
0.139244
0.128929
0.118613
0.108297
0.0979807
0.0876641
0.0773476
0.0670312
0.056715
0.0463988
0.0360824
0.0257662
0.0154414
0.00512898
0.754013
0.73131
0.719651
0.713925
0.717953
0.711912
0.709664
0.700061
0.689981
0.68142
0.67163
0.656507
0.646291
0.639045
0.597469
0.616588
0.604684
0.590273
0.57829
0.565603
0.555017
0.540078
0.529642
0.519847
0.509199
0.496914
0.48028
0.463179
0.483169
0.482176
0.469144
0.455968
0.443851
0.432195
0.420809
0.409648
0.398692
0.387903
0.377248
0.366695
0.356217
0.345792
0.335404
0.325042
0.314696
0.304361
0.294033
0.283711
0.273391
0.263074
0.252758
0.242441
0.232124
0.221807
0.211489
0.201171
0.190853
0.180535
0.170217
0.159899
0.149582
0.139264
0.128946
0.118629
0.108311
0.0979931
0.0876751
0.0773571
0.0670393
0.0567217
0.0464042
0.0360866
0.0257692
0.0154432
0.00512959
0.751729
0.727629
0.716928
0.712676
0.728936
0.710581
0.725171
0.707261
0.684639
0.677679
0.669231
0.645513
0.639116
0.636654
0.620249
0.613226
0.605257
0.592473
0.578893
0.559714
0.549308
0.53856
0.52892
0.519039
0.508558
0.497167
0.48635
0.482599
0.480038
0.475965
0.466184
0.455151
0.44391
0.432408
0.420955
0.409721
0.398722
0.387921
0.377271
0.36673
0.356265
0.34585
0.33547
0.325112
0.314768
0.304433
0.294104
0.283778
0.273456
0.263134
0.252813
0.242492
0.232171
0.22185
0.211529
0.201208
0.190887
0.180566
0.170245
0.159924
0.149604
0.139283
0.128964
0.118644
0.108325
0.0980053
0.0876858
0.0773665
0.0670474
0.0567284
0.0464096
0.0360908
0.0257721
0.0154451
0.00513021
0.75156
0.733501
0.7179
0.739761
0.731021
0.715167
0.717355
0.714614
0.66706
0.675815
0.665345
0.645373
0.630598
0.650747
0.632469
0.608956
0.599807
0.59318
0.585811
0.544672
0.542901
0.535789
0.528205
0.520234
0.508693
0.496293
0.493308
0.48715
0.483951
0.474521
0.4643
0.454681
0.444248
0.432543
0.420878
0.409556
0.398553
0.387787
0.377184
0.366688
0.35626
0.345875
0.335514
0.325169
0.314831
0.304499
0.29417
0.283844
0.273518
0.263193
0.252868
0.242543
0.232217
0.221893
0.211569
0.201245
0.190921
0.180597
0.170273
0.15995
0.149626
0.139303
0.128981
0.11866
0.108338
0.0980173
0.0876964
0.0773756
0.0670552
0.0567349
0.0464149
0.0360949
0.0257751
0.0154469
0.00513083
0.750682
0.736295
0.740858
0.750988
0.740988
0.705816
0.7067
0.699764
0.66637
0.685585
0.668605
0.652318
0.643038
0.649318
0.644872
0.59413
0.590736
0.586443
0.567179
0.553445
0.543662
0.533902
0.526818
0.5268
0.51167
0.489549
0.498625
0.482446
0.492779
0.473495
0.460073
0.457442
0.445848
0.432605
0.420456
0.409072
0.398146
0.387489
0.37699
0.366578
0.356213
0.345873
0.335543
0.325216
0.31489
0.304563
0.294236
0.283908
0.27358
0.263251
0.252922
0.242593
0.232264
0.221936
0.211609
0.201282
0.190955
0.180628
0.170301
0.159974
0.149647
0.139322
0.128999
0.118675
0.108352
0.098029
0.0877066
0.0773845
0.0670627
0.0567412
0.04642
0.0360989
0.0257779
0.0154487
0.00513147
0.75173
0.7361
0.758744
0.747358
0.731859
0.715551
0.706066
0.694838
0.677333
0.675475
0.667403
0.657502
0.648099
0.644424
0.634989
0.596178
0.583998
0.572466
0.56838
0.556604
0.544606
0.531424
0.519068
0.54148
0.524478
0.506475
0.496602
0.483207
0.477698
0.462449
0.445258
0.463457
0.446189
0.431452
0.419272
0.408132
0.397469
0.387035
0.376707
0.36642
0.356143
0.34586
0.335567
0.325263
0.314949
0.304628
0.294302
0.283973
0.273641
0.263308
0.252975
0.242643
0.232311
0.221979
0.211649
0.201318
0.190988
0.180658
0.170328
0.159998
0.149669
0.139341
0.129016
0.11869
0.108365
0.0980403
0.0877164
0.077393
0.06707
0.0567472
0.0464248
0.0361027
0.0257807
0.0154505
0.00513212
0.758779
0.750047
0.751366
0.742869
0.731314
0.718959
0.707785
0.695278
0.680138
0.670449
0.668743
0.659907
0.648838
0.641018
0.629061
0.597754
0.576795
0.55801
0.575635
0.558554
0.543429
0.535583
0.532826
0.539937
0.534777
0.520949
0.495746
0.483495
0.468839
0.459151
0.44976
0.449942
0.439676
0.428007
0.417091
0.406712
0.396561
0.386476
0.376383
0.366253
0.356077
0.345858
0.335603
0.32532
0.315016
0.304699
0.294372
0.284039
0.273703
0.263366
0.253029
0.242692
0.232356
0.222021
0.211687
0.201353
0.191019
0.180686
0.170353
0.16002
0.149689
0.139359
0.129031
0.118705
0.108378
0.0980516
0.0877258
0.077401
0.0670768
0.0567529
0.0464295
0.0361063
0.0257834
0.0154522
0.0051328
0.764118
0.755226
0.747754
0.739657
0.730315
0.720309
0.710717
0.698417
0.679879
0.664509
0.676521
0.663597
0.648595
0.636153
0.622597
0.599606
0.579947
0.567138
0.563706
0.548835
0.537572
0.538101
0.542315
0.540765
0.541841
0.529637
0.498882
0.494942
0.457224
0.457416
0.451211
0.444814
0.433846
0.423726
0.414375
0.405065
0.395588
0.385926
0.3761
0.366133
0.356055
0.345892
0.335666
0.325397
0.315097
0.304778
0.294447
0.284109
0.273767
0.263425
0.253083
0.242742
0.232401
0.222062
0.211724
0.201386
0.191049
0.180712
0.170376
0.160041
0.149708
0.139377
0.129047
0.118718
0.10839
0.0980619
0.0877347
0.0774085
0.0670831
0.0567582
0.0464338
0.0361098
0.025786
0.015454
0.00513351
0.766169
0.755685
0.746556
0.738061
0.729557
0.721568
0.71505
0.703575
0.687634
0.68843
0.658768
0.661184
0.644783
0.630882
0.618474
0.604055
0.581641
0.570015
0.559177
0.542756
0.520365
0.537191
0.551118
0.536876
0.551408
0.53847
0.484721
0.48814
0.472703
0.462185
0.453197
0.444284
0.426865
0.418784
0.411648
0.403589
0.394799
0.385539
0.375953
0.366124
0.356118
0.345988
0.335774
0.325504
0.315198
0.304871
0.29453
0.284183
0.273834
0.263485
0.253137
0.242791
0.232446
0.222103
0.211761
0.201419
0.191077
0.180737
0.170399
0.160062
0.149726
0.139393
0.129062
0.118731
0.108401
0.0980716
0.087743
0.0774154
0.0670889
0.056763
0.0464377
0.0361129
0.0257885
0.0154557
0.00513428
0.764426
0.754748
0.745493
0.736388
0.727807
0.721373
0.716122
0.707216
0.694818
0.684952
0.66969
0.662212
0.644926
0.626609
0.617653
0.615788
0.573164
0.570667
0.561549
0.549122
0.534312
0.536461
0.538544
0.533806
0.532754
0.516239
0.481256
0.499783
0.481228
0.465432
0.454857
0.452397
0.410405
0.413481
0.409839
0.402826
0.394467
0.385477
0.376048
0.366288
0.356298
0.346165
0.335934
0.325645
0.31532
0.304976
0.294621
0.284261
0.273902
0.263546
0.253193
0.242841
0.232491
0.222143
0.211797
0.20145
0.191105
0.180761
0.170419
0.16008
0.149743
0.139408
0.129075
0.118742
0.10841
0.0980796
0.0877499
0.0774212
0.0670937
0.0567671
0.0464411
0.0361157
0.025791
0.0154575
0.00513512
0.762382
0.753808
0.744435
0.734446
0.723893
0.717933
0.720066
0.711842
0.699297
0.685759
0.67237
0.661004
0.655315
0.612056
0.611713
0.604403
0.58673
0.577492
0.568822