/*--------------------------------*- C++ -*----------------------------------*\
  =========                 |
  \\      /  F ield         | OpenFOAM: The Open Source CFD Toolbox
   \\    /   O peration     | Website:  https://openfoam.org
    \\  /    A nd           | Version:  12
     \\/     M anipulation  |
\*---------------------------------------------------------------------------*/
FoamFile
{
    format      ascii;
    class       surfaceScalarField;
    location    "0.95";
    object      phi.water_0;
}
// * * * * * * * * * * * * * * * * * * * * * * * * * * * * * * * * * * * * * //

dimensions      [0 3 -1 0 0 0 0];

internalField   nonuniform List<scalar> 
7375
(
1.07693e-07
9.52992e-09
1.0726e-07
4.37948e-10
1.15162e-07
-6.74843e-09
1.48099e-07
-3.1045e-08
1.67899e-08
8.64427e-09
1.28492e-07
8.13264e-09
1.04101e-07
2.48639e-08
9.77714e-08
6.37612e-09
8.5859e-08
1.20305e-08
7.06938e-08
1.5018e-08
6.19441e-08
8.67804e-09
5.99887e-08
1.94557e-09
2.8655e-08
3.1645e-08
3.11886e-07
8.06791e-08
3.16754e-08
-8.22963e-08
6.49971e-08
-3.36611e-08
8.47148e-08
-1.9936e-08
9.37385e-08
-9.12719e-09
9.67679e-08
-4.01425e-09
1.01298e-07
-4.48483e-09
1.07886e-07
-5.5482e-09
1.1606e-07
-8.17009e-09
1.04136e-07
1.28633e-08
7.21335e-08
3.19455e-08
9.53472e-08
-2.34617e-08
9.63029e-08
-9.18692e-10
8.42234e-08
1.09737e-08
8.81312e-08
-3.86897e-09
8.82397e-08
-1.0905e-10
8.75642e-08
-2.08528e-10
9.15927e-08
-4.02884e-09
1.03492e-07
-1.00055e-08
-2.19365e-08
4.50808e-09
7.29932e-08
2.51243e-08
1.05032e-08
6.27235e-08
-2.75977e-08
3.79874e-08
-5.4016e-08
2.67047e-08
-7.13809e-08
1.71947e-08
-8.60561e-08
1.45266e-08
-9.00728e-08
3.98173e-09
-9.49843e-08
5.82416e-09
-8.43132e-08
-9.72107e-09
-8.3817e-08
-4.96496e-10
-7.54324e-08
-8.38415e-09
-6.59808e-08
-9.45185e-09
-5.58097e-08
-1.01707e-08
-4.76839e-08
-8.12597e-09
-4.06173e-08
-7.06622e-09
-3.36404e-08
-6.97703e-09
-2.73342e-08
-6.30571e-09
-2.1431e-08
-5.9035e-09
-1.71829e-08
-4.24759e-09
-1.31056e-08
-4.07752e-09
-9.31479e-09
-3.7903e-09
-4.972e-09
-4.34304e-09
-5.27337e-10
-4.44421e-09
3.65249e-09
-4.1801e-09
7.30877e-09
-3.65587e-09
1.05418e-08
-3.23331e-09
1.41298e-08
-3.58772e-09
1.88793e-08
-4.74983e-09
2.52977e-08
-6.41808e-09
3.31995e-08
-7.90223e-09
4.18962e-08
-8.69658e-09
5.00425e-08
-8.14691e-09
5.52122e-08
-5.16969e-09
5.44174e-08
7.94258e-10
4.72258e-08
7.19172e-09
3.56219e-08
1.16036e-08
2.28164e-08
1.28059e-08
1.04896e-08
1.23267e-08
-5.12437e-10
1.10019e-08
-1.20603e-08
1.15471e-08
-2.21724e-08
1.01111e-08
3.63791e-09
1.39693e-07
1.43749e-09
1.32668e-07
8.79884e-09
1.39535e-07
-1.48863e-08
1.71993e-07
-6.14521e-08
9.6901e-08
8.54202e-08
8.621e-08
1.95945e-08
8.04186e-08
3.1493e-08
7.37498e-08
1.20238e-08
6.72571e-08
1.707e-08
7.32094e-08
7.72547e-09
6.40999e-08
1.80621e-08
9.60555e-08
-2.93623e-08
1.25778e-07
2.93218e-09
1.89273e-07
1.4579e-08
1.215e-07
-1.34311e-08
1.04509e-07
-1.44897e-08
9.78733e-08
-1.3369e-08
9.11848e-08
-3.44714e-09
8.51635e-08
2.07996e-10
9.28334e-08
-1.20778e-08
9.45789e-08
-6.34648e-09
1.11114e-07
-2.61053e-08
1.48862e-07
-2.48844e-08
8.72658e-08
-2.37808e-08
1.39891e-07
4.74303e-08
9.01005e-08
4.50691e-08
6.75323e-08
3.195e-08
7.07651e-08
-7.13423e-09
7.3934e-08
-2.58954e-09
7.67789e-08
-2.29903e-09
6.3795e-08
9.66333e-09
2.7807e-08
2.59826e-08
-1.64155e-09
3.39566e-08
-2.47718e-09
2.62445e-08
1.7038e-09
5.79341e-08
-9.05605e-09
4.78887e-08
-2.56029e-08
4.30733e-08
-3.93057e-08
3.09817e-08
-4.21458e-08
1.68001e-08
-5.08898e-08
1.26856e-08
-4.57428e-08
1.12768e-09
-4.69713e-08
-8.49242e-09
-4.12788e-08
-6.18899e-09
-3.72397e-08
-1.24231e-08
-3.42586e-08
-1.24329e-08
-3.3047e-08
-1.13821e-08
-3.17792e-08
-9.39378e-09
-3.03626e-08
-8.48259e-09
-2.89079e-08
-8.43161e-09
-2.79865e-08
-7.22695e-09
-2.85133e-08
-5.37665e-09
-3.10577e-08
-1.70296e-09
-3.49019e-08
-2.33277e-10
-3.83023e-08
-3.89634e-10
-3.95563e-08
-3.08904e-09
-3.90087e-08
-4.99165e-09
-3.75927e-08
-5.59612e-09
-3.60435e-08
-5.20496e-09
-3.41051e-08
-5.17168e-09
-3.0687e-08
-7.00576e-09
-2.45358e-08
-1.09011e-08
-1.54468e-08
-1.55071e-08
-4.29322e-09
-1.9056e-08
7.76428e-09
-2.07542e-08
1.91524e-08
-1.95354e-08
2.73325e-08
-1.33499e-08
2.97182e-08
-1.59183e-09
2.40622e-08
1.28476e-08
1.30264e-08
2.26393e-08
-1.52228e-09
2.73547e-08
-1.6528e-08
2.73324e-08
-2.73564e-08
2.183e-08
-3.31319e-08
1.73217e-08
-3.55053e-08
1.24835e-08
3.46462e-09
4.85754e-08
7.19894e-09
5.03031e-08
6.98386e-09
2.24103e-08
1.36529e-08
2.53055e-07
6.76662e-08
2.22612e-08
-4.48181e-08
6.32476e-08
-2.13915e-08
8.49271e-08
8.3048e-09
8.56379e-08
1.11919e-08
8.23285e-08
2.21449e-08
1.17371e-07
-2.62985e-08
1.28586e-08
2.60251e-10
7.46681e-08
2.98215e-08
4.7927e-08
3.01675e-08
4.08255e-08
2.16076e-08
6.30053e-09
2.05998e-08
2.81378e-09
-1.09184e-08
1.15102e-08
-2.19576e-08
7.63547e-09
4.62981e-10
-8.52791e-09
1.62923e-08
-2.56329e-08
4.90539e-09
-2.3104e-08
-9.37245e-09
-3.83267e-08
-1.08825e-08
1.33733e-08
-7.70971e-08
-8.26442e-08
7.30885e-08
-4.86514e-08
1.33143e-08
-2.94649e-08
2.49265e-08
-2.02591e-08
2.28372e-08
-4.07684e-08
1.28865e-08
-5.04148e-08
7.03021e-09
-5.53116e-08
2.57409e-09
-6.85313e-08
2.28831e-08
-7.62309e-08
3.30019e-08
-8.19782e-08
3.92988e-08
-8.81902e-08
3.26916e-08
-6.87374e-08
3.9372e-08
-5.8652e-08
3.80117e-08
-4.54097e-08
2.94003e-08
-3.74463e-08
2.30183e-08
-3.73711e-08
1.67249e-08
-3.82771e-08
1.34648e-08
-3.71967e-08
4.73779e-11
-3.89983e-08
-6.69081e-09
-3.75058e-08
-7.68137e-09
-3.89813e-08
-1.09475e-08
-4.00625e-08
-1.13517e-08
-4.10035e-08
-1.0441e-08
-4.09457e-08
-9.45141e-09
-4.05201e-08
-8.90808e-09
-4.05294e-08
-8.42224e-09
-4.15692e-08
-6.18691e-09
-4.47572e-08
-2.18857e-09
-4.97671e-08
3.30709e-09
-5.60091e-08
6.0088e-09
-6.16635e-08
5.26495e-09
-6.58054e-08
1.05291e-09
-6.80947e-08
-2.70221e-09
-6.96388e-08
-4.05196e-09
-7.05068e-08
-4.33691e-09
-6.97928e-08
-5.88558e-09
-6.59061e-08
-1.08924e-08
-5.88334e-08
-1.79739e-08
-5.07284e-08
-2.36122e-08
-4.3441e-08
-2.63434e-08
-3.73894e-08
-2.68059e-08
-3.34973e-08
-2.34277e-08
-3.23739e-08
-1.44736e-08
-3.43014e-08
3.35313e-10
-3.80995e-08
1.66455e-08
-4.19746e-08
2.65143e-08
-4.46229e-08
3.0003e-08
-4.50639e-08
2.77732e-08
-4.32654e-08
2.0031e-08
-4.16732e-08
1.57285e-08
-3.95566e-08
1.03658e-08
1.88822e-09
3.458e-08
1.07699e-08
3.25208e-08
9.44269e-09
1.91853e-08
2.71846e-08
5.74773e-08
2.94796e-08
-2.28956e-09
1.51033e-08
-1.32074e-08
-1.05813e-08
3.55416e-08
-4.08608e-08
-3.75309e-08
8.3996e-08
-2.75662e-08
1.18964e-08
-4.51795e-09
-4.92995e-08
-1.01636e-07
9.43851e-08
-1.08804e-07
3.69902e-08
-8.49255e-08
8.2013e-09
-9.99518e-08
3.64137e-08
-9.80986e-08
1.83494e-08
-8.1539e-08
-2.73664e-08
-1.86117e-08
-8.57596e-08
-1.54501e-08
-2.54079e-09
-6.41188e-08
6.49612e-08
-7.61917e-08
1.63743e-08
-1.03438e-07
1.8058e-08
-1.22989e-07
7.52507e-09
1.33562e-07
3.02254e-08
-9.28534e-08
-6.27652e-08
-1.01742e-07
2.23385e-08
-8.07164e-08
4.67707e-09
-4.85803e-08
-9.20578e-09
-4.97244e-08
1.33984e-08
-5.46731e-08
1.13495e-08
-7.38046e-08
2.19317e-08
-5.50181e-08
5.17748e-09
-5.68382e-08
3.53961e-08
-6.28272e-08
4.45021e-08
-6.17393e-08
3.12769e-08
-5.05228e-08
2.77618e-08
-3.84072e-08
2.5896e-08
-3.42429e-08
2.52361e-08
-3.05693e-08
1.93448e-08
-2.89952e-08
1.51508e-08
-2.60811e-08
1.05506e-08
-2.91932e-08
3.15958e-09
-3.25166e-08
-3.36735e-09
-3.38389e-08
-6.35908e-09
-3.55896e-08
-9.19671e-09
-3.66322e-08
-1.0309e-08
-3.71732e-08
-9.89983e-09
-3.75411e-08
-9.08338e-09
-3.82868e-08
-8.16221e-09
-3.98528e-08
-6.85614e-09
-4.23523e-08
-3.68728e-09
-4.61042e-08
1.56343e-09
-5.08562e-08
8.05926e-09
-5.71456e-08
1.22983e-08
-6.40953e-08
1.22147e-08
-7.11002e-08
8.05791e-09
-7.65766e-08
2.77426e-09
-7.99925e-08
-6.36e-10
-8.13659e-08
-2.96346e-09
-8.00577e-08
-7.19373e-09
-7.5194e-08
-1.57561e-08
-6.88591e-08
-2.43088e-08
-6.41124e-08
-2.83589e-08
-6.11963e-08
-2.92596e-08
-6.07168e-08
-2.72856e-08
-6.37614e-08
-2.03833e-08
-6.85122e-08
-9.72303e-09
-7.10013e-08
2.82414e-09
-6.96224e-08
1.52665e-08
-6.55341e-08
2.24259e-08
-5.95188e-08
2.39876e-08
-5.23819e-08
2.0636e-08
-4.74964e-08
1.5145e-08
-4.43935e-08
1.26245e-08
-4.16985e-08
7.66972e-09
5.43319e-10
4.27801e-08
1.23706e-08
3.56737e-08
1.67186e-08
3.69177e-08
2.60394e-08
1.76016e-08
4.88546e-08
-2.59007e-08
5.75642e-08
-9.75354e-08
5.97001e-08
1.32046e-07
9.34731e-08
-2.33918e-07
-3.16017e-08
-1.46368e-07
4.27859e-08
8.27582e-08
8.51028e-08
-1.25142e-07
-5.50736e-08
-1.03671e-07
1.34873e-08
-9.74349e-08
1.96584e-09
-6.21686e-08
1.78192e-09
-4.75986e-08
3.77956e-09
-1.47112e-07
7.01613e-08
4.37446e-08
8.72566e-08
4.12937e-08
-5.36012e-10
-1.42229e-07
-1.11014e-07
-9.30907e-08
-3.37133e-08
-1.79502e-07
-1.6822e-08
-7.07733e-08
2.06818e-08
-3.68366e-08
-4.0194e-09
-1.47654e-08
-8.57107e-08
-1.3177e-07
2.04255e-08
-1.90734e-08
1.09043e-08
-2.93718e-08
1.10377e-09
-3.00197e-08
1.37498e-08
-4.20497e-08
2.26442e-08
-2.96117e-08
9.1732e-09
2.49051e-09
-2.66226e-08
-4.93745e-08
8.7236e-08
-5.08883e-08
4.65095e-08
-4.56194e-08
2.60081e-08
-4.11916e-08
2.3334e-08
-3.49459e-08
1.96504e-08
-2.93874e-08
1.96776e-08
-2.48061e-08
1.47635e-08
-2.12492e-08
1.15939e-08
-1.81127e-08
7.41416e-09
-1.53484e-08
3.95351e-10
-1.5779e-08
-2.9367e-09
-1.65682e-08
-5.56976e-09
-1.83403e-08
-7.42458e-09
-2.02744e-08
-8.37484e-09
-2.19002e-08
-8.27388e-09
-2.3516e-08
-7.46752e-09
-2.57796e-08
-5.89846e-09
-2.90928e-08
-3.54287e-09
-3.34273e-08
6.47379e-10
-3.83668e-08
6.50305e-09
-4.33771e-08
1.30697e-08
-4.91726e-08
1.8094e-08
-5.60833e-08
1.91255e-08
-6.39979e-08
1.59726e-08
-7.15269e-08
1.03033e-08
-7.69175e-08
4.75473e-09
-7.889e-08
-9.90909e-10
-7.72924e-08
-8.79138e-09
-7.2875e-08
-2.01735e-08
-6.89526e-08
-2.82312e-08
-6.67363e-08
-3.05753e-08
-6.55861e-08
-3.04098e-08
-6.74483e-08
-2.54235e-08
-7.21662e-08
-1.56657e-08
-7.64306e-08
-5.45881e-09
-7.70792e-08
3.47243e-09
-7.32152e-08
1.14023e-08
-6.68366e-08
1.60471e-08
-5.92045e-08
1.63553e-08
-5.23859e-08
1.38171e-08
-4.81333e-08
1.08919e-08
-4.49662e-08
9.45621e-09
-4.28584e-08
5.56089e-09
-5.65014e-11
4.15817e-09
1.43262e-08
8.82188e-09
1.21798e-08
-8.45509e-10
3.59816e-08
-7.07449e-10
4.82307e-08
5.24936e-09
5.09663e-08
-4.84392e-08
1.13328e-07
-2.04083e-08
6.46624e-08
-8.84418e-08
3.58581e-08
-6.57977e-08
2.01421e-08
-1.69339e-08
3.53711e-08
-5.60849e-08
-1.64842e-08
-4.24635e-08
-1.32606e-10
-1.41284e-07
-1.94657e-08
-3.87386e-08
1.92904e-08
-2.85671e-08
-6.35325e-09
-9.05651e-08
1.21059e-08
-5.45354e-08
5.0337e-08
3.65508e-08
2.81445e-08
-3.87785e-08
-3.56849e-08
-8.17704e-08
9.27874e-09
-1.09775e-07
1.13548e-08
-9.12898e-08
2.19624e-09
-1.10285e-07
1.38511e-08
1.14465e-07
5.27761e-08
-1.5582e-07
-6.53955e-08
-9.9579e-08
-4.72772e-08
-9.49883e-08
-4.49145e-09
-7.74911e-08
-3.64423e-09
-8.32512e-08
2.89583e-08
-1.10431e-07
3.62602e-08
1.39355e-07
8.03843e-08
-8.14023e-08
-4.72313e-08
-4.16045e-08
6.71167e-09
-3.06196e-08
1.50232e-08
-2.46229e-08
1.73374e-08
-2.11615e-08
1.6189e-08
-1.67994e-08
1.53155e-08
-1.42737e-08
1.22378e-08
-1.23534e-08
9.67374e-09
-1.01834e-08
5.24415e-09
-1.04943e-08
7.0632e-10
-1.13048e-08
-2.12613e-09
-1.27553e-08
-4.11918e-09
-1.43734e-08
-5.80642e-09
-1.63623e-08
-6.38582e-09
-1.82827e-08
-6.35339e-09
-2.01977e-08
-5.55245e-09
-2.24091e-08
-3.68694e-09
-2.53989e-08
-5.52961e-10
-2.91493e-08
4.39792e-09
-3.28834e-08
1.02373e-08
-3.60576e-08
1.6244e-08
-3.89514e-08
2.09879e-08
-4.23309e-08
2.25051e-08
-4.73172e-08
2.09589e-08
-5.31868e-08
1.61731e-08
-5.82355e-08
9.80344e-09
-6.15445e-08
2.31812e-09
-6.25879e-08
-7.74795e-09
-6.20155e-08
-2.07459e-08
-6.13585e-08
-2.88881e-08
-6.11143e-08
-3.08195e-08
-6.20926e-08
-2.94316e-08
-6.53512e-08
-2.21651e-08
-6.93099e-08
-1.17071e-08
-7.15561e-08
-3.21286e-09
-7.06997e-08
2.61579e-09
-6.66603e-08
7.36267e-09
-6.09145e-08
1.03011e-08
-5.52557e-08
1.06964e-08
-5.08716e-08
9.4326e-09
-4.7756e-08
7.77568e-09
-4.5092e-08
6.79103e-09
-4.36338e-08
4.10158e-09
-2.19248e-10
-1.67364e-07
2.4592e-08
-1.91568e-07
3.63848e-08
-1.64438e-07
1.08063e-08
-1.33197e-07
1.74819e-08
-6.61505e-08
-1.57205e-08
-1.8394e-07
-1.29763e-07
-1.07683e-07
-9.81815e-09
-7.81584e-08
7.42097e-09
-6.59572e-08
7.14382e-09
-4.76374e-08
1.70515e-08
-7.38809e-08
1.05132e-08
-5.47766e-08
-1.97898e-08
-8.3577e-08
8.77032e-09
-5.66467e-08
-6.78701e-09
-5.14914e-08
-1.15084e-08
-4.01905e-08
7.97039e-10
-1.08601e-07
-1.97784e-10
9.52419e-09
2.88605e-08
-3.50558e-08
8.99243e-09
-4.49967e-08
1.90256e-08
-4.09754e-08
7.33366e-09
-5.69356e-08
1.81566e-08
-6.24067e-08
1.86856e-08
-4.30619e-08
3.28875e-08
-9.70589e-08
-1.26165e-08
-1.30797e-07
-1.40263e-08
-1.34855e-07
-4.7994e-10
-1.42429e-07
5.39779e-09
-1.19273e-07
7.2413e-09
-9.77952e-08
1.4933e-08
-1.68327e-08
-4.04094e-10
-6.32117e-08
-8.52263e-10
-5.593e-08
-5.69998e-10
-5.13577e-08
1.04509e-08
-4.51103e-08
1.109e-08
-4.03285e-08
1.14072e-08
-3.53594e-08
1.03464e-08
-3.26992e-08
9.57761e-09
-3.14315e-08
8.40609e-09
-3.1283e-08
5.09576e-09
-3.18699e-08
1.29327e-09
-3.24941e-08
-1.50189e-09
-3.32307e-08
-3.38258e-09
-3.42441e-08
-4.79293e-09
-3.54957e-08
-5.13407e-09
-3.65043e-08
-5.34476e-09
-3.69675e-08
-5.08905e-09
-3.69455e-08
-3.70883e-09
-3.69741e-08
-5.24312e-10
-3.70034e-08
4.4274e-09
-3.69951e-08
1.0229e-08
-3.68111e-08
1.60602e-08
-3.60442e-08
2.02211e-08
-3.51061e-08
2.15671e-08
-3.49772e-08
2.08301e-08
-3.63563e-08
1.75523e-08
-3.89426e-08
1.23898e-08
-4.23078e-08
5.68334e-09
-4.63516e-08
-3.70412e-09
-5.07213e-08
-1.63761e-08
-5.35328e-08
-2.60766e-08
-5.55845e-08
-2.87678e-08
-5.79101e-08
-2.71061e-08
-6.05679e-08
-1.95073e-08
-6.28102e-08
-9.46501e-09
-6.34444e-08
-2.57881e-09
-6.21546e-08
1.32576e-09
-5.92156e-08
4.42338e-09
-5.56777e-08
6.76303e-09
-5.23376e-08
7.35604e-09
-4.9509e-08
6.60365e-09
-4.73184e-08
5.58434e-09
-4.5365e-08
4.8364e-09
-4.42702e-08
3.00566e-09
-2.48162e-10
-2.05982e-07
2.38505e-08
-2.10012e-07
3.96393e-08
-2.04147e-07
4.94181e-09
-1.88972e-07
3.75791e-10
-2.0399e-07
-7.0153e-10
-5.03381e-08
7.88274e-08
-8.10152e-08
2.09594e-08
-7.82832e-08
4.7649e-09
-5.65497e-08
-1.45895e-08
-3.92743e-08
-2.23724e-10
-1.34463e-07
-1.43513e-08
-4.82542e-08
1.38531e-08
-5.55611e-08
1.5988e-08
-6.3638e-08
1.29007e-09
-5.44661e-08
-2.01244e-08
-5.76403e-08
3.97141e-09
-6.72805e-08
8.76516e-09
-3.83965e-08
2.71043e-10
-3.38853e-08
4.82702e-09
-3.02699e-08
1.52563e-08
-3.29249e-08
9.68001e-09
-3.69616e-08
2.19693e-08
-3.59228e-08
1.74687e-08
-2.07281e-08
1.73574e-08
-4.34926e-08
1.01481e-08
-6.89984e-08
1.08085e-08
-9.30911e-08
2.36129e-08
-1.19661e-07
3.32015e-08
-9.70444e-08
-1.53016e-08
-8.41793e-08
2.89722e-09
-8.91963e-08
5.62319e-09
-7.97715e-08
-1.0277e-08
-7.41685e-08
-6.17298e-09
-7.32783e-08
9.56075e-09
-6.93514e-08
7.16319e-09
-6.60727e-08
8.12853e-09
-6.35497e-08
7.82349e-09
-6.15725e-08
7.60044e-09
-5.93546e-08
6.18819e-09
-5.78149e-08
3.55611e-09
-5.73863e-08
8.6471e-10
-5.71304e-08
-1.7577e-09
-5.69726e-08
-3.54029e-09
-5.7039e-08
-4.72652e-09
-5.73752e-08
-4.79773e-09
-5.77981e-08
-4.92175e-09
-5.80436e-08
-4.84351e-09
-5.79751e-08
-3.7772e-09
-5.71724e-08
-1.32692e-09
-5.46861e-08
1.94127e-09
-5.03199e-08
5.86289e-09
-4.47534e-08
1.04937e-08
-3.89548e-08
1.44226e-08
-3.39907e-08
1.66031e-08
-3.00742e-08
1.69136e-08
-2.76789e-08
1.51571e-08
-2.75112e-08
1.22221e-08
-2.98152e-08
7.98736e-09
-3.46998e-08
1.18053e-09
-4.17998e-08
-9.27615e-09
-4.77812e-08
-2.00952e-08
-5.15315e-08
-2.50175e-08
-5.41004e-08
-2.45373e-08
-5.59328e-08
-1.7675e-08
-5.72451e-08
-8.15284e-09
-5.7297e-08
-2.52707e-09
-5.62783e-08
3.06833e-10
-5.45952e-08
2.74e-09
-5.25554e-08
4.72302e-09
-5.04507e-08
5.25117e-09
-4.8525e-08
4.67756e-09
-4.69526e-08
4.01123e-09
-4.55772e-08
3.4598e-09
-4.47529e-08
2.18025e-09
-2.40889e-10
-1.87693e-07
-1.12056e-08
-1.46558e-07
4.00632e-10
-1.33828e-07
-7.83706e-09
-1.22376e-07
-1.10758e-08
-1.08149e-07
-1.61697e-08
-6.41567e-08
3.44835e-08
-6.48993e-08
2.17022e-08
-7.61613e-08
1.58653e-08
-8.02815e-08
-1.05769e-08
-8.59774e-08
5.47244e-09
-1.03121e-07
2.79277e-09
-7.93553e-08
-9.91254e-09
-6.29043e-08
-4.67571e-10
-5.02528e-08
-1.13613e-08
-7.09422e-08
5.65138e-10
-5.52491e-08
-1.10051e-08
-3.6945e-08
-9.5388e-09
-5.16324e-08
1.45817e-08
-5.85741e-08
1.23664e-08
-2.28e-08
-2.01599e-08
-1.01703e-08
-3.07841e-09
-1.28796e-09
1.29691e-08
5.30897e-09
1.09696e-08
1.42336e-08
8.487e-09
6.61439e-09
1.75212e-08
5.25601e-09
1.20453e-08
1.88373e-08
1.00365e-08
-7.58613e-08
6.54168e-09
-1.44111e-08
4.42229e-08
-2.54366e-08
1.3409e-08
-1.41699e-07
6.01081e-10
-4.49477e-08
1.51781e-08
-5.63831e-08
5.31554e-09
-5.09302e-08
4.10795e-09
-4.76027e-08
3.83576e-09
-4.61641e-08
6.68993e-09
-4.59493e-08
7.60867e-09
-4.49617e-08
6.6129e-09
-4.38234e-08
5.0499e-09
-4.36036e-08
3.33644e-09
-4.42706e-08
1.53167e-09
-4.57247e-08
-3.03514e-10
-4.77025e-08
-1.56245e-09
-4.98079e-08
-2.62099e-09
-5.19419e-08
-2.6637e-09
-5.42579e-08
-2.60567e-09
-5.70803e-08
-2.02093e-09
-6.00257e-08
-8.31788e-10
-6.18395e-08
4.87015e-10
-6.14177e-08
1.51958e-09
-5.82382e-08
2.68347e-09
-5.21628e-08
4.41838e-09
-4.40444e-08
6.30432e-09
-3.53215e-08
7.88027e-09
-2.74361e-08
9.0283e-09
-2.15808e-08
9.30183e-09
-1.89014e-08
9.54268e-09
-1.95795e-08
8.66552e-09
-2.36964e-08
5.29747e-09
-3.08399e-08
-2.13267e-09
-3.86527e-08
-1.22824e-08
-4.41207e-08
-1.95496e-08
-4.78933e-08
-2.07647e-08
-5.08619e-08
-1.47065e-08
-5.27104e-08
-6.30457e-09
-5.3262e-08
-1.97563e-09
-5.30322e-08
7.67926e-11
-5.20761e-08
1.78371e-09
-5.06877e-08
3.33444e-09
-4.92211e-08
3.78429e-09
-4.78514e-08
3.30749e-09
-4.67033e-08
2.86246e-09
-4.57167e-08
2.47199e-09
-4.51051e-08
1.56758e-09
-2.14768e-10
-1.1099e-07
-1.57778e-08
-9.97901e-08
-1.09093e-08
-8.98693e-08
-1.77574e-08
-8.59708e-08
-1.58422e-08
-4.29509e-08
-5.93566e-08
-6.16967e-08
5.32296e-08
-6.52561e-08
2.50428e-08
-4.98426e-08
-5.13234e-11
-7.227e-08
1.12213e-08
-5.49444e-08
-1.11156e-08
-6.43355e-08
1.2061e-08
-6.67342e-08
-8.19437e-09
-7.49404e-08
7.65981e-09
-7.28479e-08
-1.28199e-08
-7.14669e-08
-8.74076e-11
-6.71762e-08
-1.54517e-08
-7.61912e-08
-1.3197e-09
-1.4923e-08
-4.62149e-08
-9.97926e-08
-2.17994e-08
-1.37027e-08
1.2388e-08
-2.80764e-08
1.14421e-08
-2.82398e-08
1.28486e-08
-1.97259e-08
2.27785e-09
-1.60451e-08
5.11901e-09
-3.91396e-09
5.42972e-09
-3.75832e-10
8.50348e-09
3.39608e-09
6.22625e-09
-9.40492e-09
1.92767e-08
2.10278e-08
1.36942e-08
1.35338e-08
2.08274e-08
-2.14006e-08
3.53049e-08
-1.29526e-08
6.88665e-09
-1.99387e-08
1.26914e-08
-3.04213e-08
1.49393e-08
-3.77711e-08
1.11857e-08
-4.25015e-08
1.14203e-08
-4.52569e-08
1.03641e-08
-4.64723e-08
7.82835e-09
-4.71757e-08
5.75332e-09
-4.74901e-08
3.65088e-09
-4.86243e-08
2.66589e-09
-5.03599e-08
1.43215e-09
-5.20358e-08
1.13599e-10
-5.36848e-08
-9.71956e-10
-5.51975e-08
-1.15096e-09
-5.69479e-08
-8.55163e-10
-5.92e-08
2.31289e-10
-6.10964e-08
1.06468e-09
-6.18724e-08
1.26307e-09
-6.09253e-08
5.7262e-10
-5.75024e-08
-7.39346e-10
-5.09708e-08
-2.11318e-09
-4.19239e-08
-2.74244e-09
-3.16056e-08
-2.43802e-09
-2.15292e-08
-1.04801e-09
-1.34515e-08
1.22409e-09
-8.60096e-09
4.6922e-09
-7.34538e-09
7.40996e-09
-9.21179e-09
7.1639e-09
-1.44019e-08
3.05743e-09
-2.23997e-08
-4.2846e-09
-3.11512e-08
-1.07981e-08
-3.93948e-08
-1.25212e-08
-4.5743e-08
-8.35841e-09
-4.90244e-08
-3.02324e-09
-5.04372e-08
-5.63085e-10
-5.08491e-08
4.88519e-10
-5.04503e-08
1.38473e-09
-4.9443e-08
2.32687e-09
-4.83137e-08
2.65478e-09
-4.73422e-08
2.33562e-09
-4.65158e-08
2.03535e-09
-4.58018e-08
1.75683e-09
-4.53559e-08
1.12054e-09
-1.78467e-10
-1.32037e-07
-1.31864e-08
-1.26028e-07
-1.69174e-08
-1.40582e-07
-1.95031e-09
-1.52842e-07
-5.1252e-09
8.78875e-08
6.15774e-08
-1.23697e-07
-9.4438e-08
-7.62908e-08
-2.23634e-08
-4.69903e-08
-2.93516e-08
-4.36658e-08
7.78365e-09
-2.6448e-08
-2.85088e-08
-1.03116e-08
-4.07521e-09
-9.88324e-09
-8.62691e-09
-2.24125e-08
1.98855e-08
-4.13331e-08
5.38843e-09
-4.50719e-08
3.65058e-09
-5.00756e-08
-1.06586e-08
-1.46684e-07
-2.39744e-08
-5.95426e-08
-1.31664e-08
-8.06162e-08
-1.33303e-09
-4.31444e-08
-2.49573e-08
-4.74606e-08
1.62426e-08
-3.7319e-08
2.80849e-09
-3.22836e-08
-2.80344e-09
-1.40484e-08
-1.31161e-08
-2.36897e-08
1.52249e-08
-1.86167e-08
3.51646e-09
-2.11876e-08
8.60728e-09
-1.18497e-08
1.00332e-08
-7.71363e-09
9.63695e-09
-5.63072e-09
1.87445e-08
9.88347e-11
2.95179e-08
-8.38709e-09
1.51478e-08
-1.99977e-08
2.43021e-08
-2.78515e-08
2.2995e-08
-3.63338e-08
1.99465e-08
-4.74564e-08
2.2543e-08
-5.33533e-08
1.6261e-08
-5.51013e-08
9.57643e-09
-5.46058e-08
5.25788e-09
-5.42087e-08
3.25386e-09
-5.61669e-08
4.6241e-09
-5.91047e-08
4.37002e-09
-6.15864e-08
2.59536e-09
-6.34829e-08
9.24576e-10
-6.48804e-08
2.46621e-10
-6.58341e-08
9.86715e-11
-6.61936e-08
5.90835e-10
-6.57752e-08
6.46375e-10
-6.40955e-08
-4.16541e-10
-6.05264e-08
-2.99636e-09
-5.46338e-08
-6.63194e-09
-4.61838e-08
-1.0563e-08
-3.6056e-08
-1.28702e-08
-2.5526e-08
-1.29679e-08
-1.5804e-08
-1.077e-08
-7.98705e-09
-6.59287e-09
-3.12065e-09
-1.74177e-10
-1.87925e-09
6.16857e-09
-3.49565e-09
8.7803e-09
-7.74484e-09
7.30662e-09
-1.49804e-08
2.95092e-09
-2.49911e-08
-7.87383e-10
-3.60187e-08
-1.49369e-09
-4.42409e-08
-1.3623e-10
-4.80608e-08
7.96468e-10
-4.95057e-08
8.8163e-10
-4.99152e-08
8.97886e-10
-4.96186e-08
1.08785e-09
-4.87224e-08
1.43049e-09
-4.7717e-08
1.6492e-09
-4.69784e-08
1.59664e-09
-4.63845e-08
1.44081e-09
-4.58615e-08
1.23261e-09
-4.55368e-08
7.94691e-10
-1.39324e-10
-1.01109e-07
2.49982e-08
-9.94857e-08
-1.76895e-08
-8.78691e-08
-1.35664e-08
-7.19803e-08
-2.05411e-08
-1.15963e-08
5.77711e-10
-5.33689e-08
-5.27834e-08
-5.42999e-08
-2.11064e-08
-5.10514e-08
-3.32719e-08
-3.23286e-08
-1.13804e-08
-1.98059e-08
-4.10313e-08
-1.48733e-08
-9.04917e-09
2.50948e-09
-2.60095e-08
-3.87843e-09
2.62483e-08
-1.75165e-08
1.87954e-08
-2.51304e-08
1.10465e-08
-5.2153e-08
1.67293e-08
-8.53658e-08
8.61231e-09
-7.28059e-08
-2.58619e-08
-4.70228e-08
-2.63733e-08
-8.19767e-09
-6.44396e-08
-6.33612e-08
7.1325e-08
-5.77232e-08
-2.2407e-09
-4.46208e-08
-1.64887e-08
2.87643e-08
-8.70901e-08
-2.24391e-08
6.57576e-08
-2.40172e-08
5.13052e-09
-2.33989e-08
8.22775e-09
-1.91319e-08
5.76627e-09
-2.95748e-08
1.9684e-08
-2.64954e-08
1.58563e-08
-2.70884e-08
3.03874e-08
-3.58329e-08
2.41361e-08
-4.44261e-08
3.2983e-08
-4.9479e-08
2.82622e-08
-5.95142e-08
2.99818e-08
-6.28863e-08
2.59151e-08
-6.40233e-08
1.7398e-08
-6.6227e-08
1.17802e-08
-6.89873e-08
8.01823e-09
-7.14173e-08
5.68396e-09
-7.4089e-08
7.29582e-09
-7.54651e-08
5.74619e-09
-7.64265e-08
3.55688e-09
-7.66819e-08
1.18004e-09
-7.59355e-08
-4.99723e-10
-7.44654e-08
-1.37131e-09
-7.19772e-08
-1.89736e-09
-6.89202e-08
-2.41051e-09
-6.43361e-08
-5.00054e-09
-5.79515e-08
-9.38095e-09
-5.02258e-08
-1.43576e-08
-4.21364e-08
-1.86524e-08
-3.34638e-08
-2.15427e-08
-2.44934e-08
-2.19383e-08
-1.60231e-08
-1.92403e-08
-9.25443e-09
-1.33615e-08
-5.1793e-09
-4.24929e-09
-4.68165e-09
5.67092e-09
-7.40486e-09
1.15035e-08
-1.27505e-08
1.26523e-08
-2.07022e-08
1.09025e-08
-3.05952e-08
9.10561e-09
-3.97015e-08
7.61255e-09
-4.54053e-08
5.5675e-09
-4.79786e-08
3.3697e-09
-4.89891e-08
1.89191e-09
-4.91873e-08
1.09587e-09
-4.88207e-08
7.21125e-10
-4.80699e-08
6.79504e-10
-4.72953e-08
8.74342e-10
-4.67317e-08
1.03265e-09
-4.62847e-08
9.93168e-10
-4.59002e-08
8.46897e-10
-4.56656e-08
5.58926e-10
-1.00072e-10
1.59592e-08
-6.59944e-08
2.18212e-08
-2.33864e-08
4.28692e-08
-3.40518e-08
1.29245e-08
9.5371e-09
7.37273e-09
6.00253e-09
-2.95476e-08
-1.61023e-08
-3.48784e-08
-1.6487e-08
-5.401e-08
-1.4639e-08
-5.23983e-08
-1.18898e-08
-9.34816e-08
5.26335e-11
-4.44653e-08
-5.74789e-08
-1.96491e-09
-6.91956e-08
-4.00774e-08
6.37175e-08
-4.60886e-08
2.45896e-08
-4.59029e-08
1.07483e-08
-5.22585e-08
2.3085e-08
-5.75372e-08
1.38911e-08
-8.05347e-08
-2.6004e-09
-5.96799e-08
-4.78368e-08
1.19074e-07
1.19452e-07
-1.15121e-07
-5.33687e-08
-9.03098e-08
-2.7973e-08
-1.05044e-07
-1.00129e-09
1.29445e-07
3.76458e-08
-8.80036e-08
-7.25848e-08
-4.91821e-08
-3.45887e-08
-3.35884e-08
-7.36581e-09
-2.85928e-08
1.12122e-09
-2.65025e-08
1.75937e-08
-2.37582e-08
1.29741e-08
-2.84431e-08
3.47822e-08
-3.17517e-08
2.76935e-08
-2.80339e-08
2.98752e-08
-2.55363e-08
2.60449e-08
-2.30524e-08
2.74978e-08
-2.08172e-08
2.368e-08
-2.65154e-08
2.30963e-08
-3.72975e-08
2.25623e-08
-5.32189e-08
2.39397e-08
-6.61834e-08
1.86484e-08
-7.14551e-08
1.25676e-08
-7.30084e-08
7.29954e-09
-7.31112e-08
3.6597e-09
-7.22459e-08
3.14833e-10
-7.07363e-08
-2.00924e-09
-6.86114e-08
-3.49615e-09
-6.52546e-08
-5.25411e-09
-6.09912e-08
-6.67377e-09
-5.60382e-08
-9.9535e-09
-5.08679e-08
-1.45512e-08
-4.63531e-08
-1.88723e-08
-4.28812e-08
-2.21242e-08
-3.90845e-08
-2.53394e-08
-3.48409e-08
-2.61819e-08
-2.97475e-08
-2.43336e-08
-2.47917e-08
-1.83174e-08
-2.09651e-08
-8.0759e-09
-1.98498e-08
4.55566e-09
-2.278e-08
1.44337e-08
-2.84597e-08
1.83319e-08
-3.59824e-08
1.84252e-08
-4.29655e-08
1.60887e-08
-4.69587e-08
1.16057e-08
-4.79575e-08
6.56619e-09
-4.8144e-08
3.55612e-09
-4.83696e-08
2.11731e-09
-4.83834e-08
1.10956e-09
-4.80568e-08
3.94269e-10
-4.755e-08
1.72503e-10
-4.70003e-08
3.24492e-10
-4.65668e-08
5.98776e-10
-4.62193e-08
6.44892e-10
-4.59355e-08
5.61975e-10
-4.57633e-08
3.85626e-10
-6.53522e-11
-3.38004e-08
4.74032e-09
-5.08655e-08
-5.16571e-09
-6.09019e-08
-2.42601e-08
-6.4777e-08
1.2694e-08
-5.02992e-08
-9.04938e-09
-1.91515e-07
3.86212e-09
-9.05185e-08
3.6012e-09
-1.12069e-07
7.21293e-09
-1.11647e-07
-1.23071e-08
-2.08919e-07
-2.18122e-08
-1.38027e-07
-8.90378e-09
8.08562e-08
7.35384e-08
-1.24295e-07
-8.78281e-08
-8.3055e-08
-1.79181e-08
-6.09795e-08
-1.13271e-08
-7.48543e-08
3.65867e-08
-8.05977e-08
1.96347e-08
-1.13172e-07
2.99737e-08
1.32852e-07
6.63006e-08
-5.82752e-08
-5.07999e-08
-6.05753e-08
-5.09949e-08
-6.75247e-08
-2.0741e-08
-6.23408e-08
-7.50995e-09
-1.23206e-08
-1.21224e-08
-4.45974e-08
-4.09164e-08
-4.95188e-08
-3.01222e-08
-5.2425e-08
-4.50546e-09
-6.37687e-08
1.24649e-08
-5.68216e-08
1.03522e-08
-7.65083e-08
3.26608e-08
-7.55758e-08
3.42805e-08
-8.0513e-08
3.20216e-08
-7.70695e-08
2.69431e-08
-6.71581e-08
1.69041e-08
-5.78372e-08
1.8177e-08
-5.03715e-08
1.62144e-08
-4.65534e-08
1.92783e-08
-4.47296e-08
2.07385e-08
-4.43018e-08
2.3512e-08
-4.3775e-08
1.81217e-08
-3.90675e-08
7.86014e-09
-3.47699e-08
3.00204e-09
-3.27382e-08
1.62805e-09
-3.29614e-08
5.38107e-10
-3.44716e-08
-4.99003e-10
-3.64682e-08
-1.49946e-09
-3.8503e-08
-3.21921e-09
-3.9808e-08
-5.36874e-09
-4.11564e-08
-8.60507e-09
-4.30296e-08
-1.26779e-08
-4.57106e-08
-1.61913e-08
-4.86574e-08
-1.91775e-08
-5.07503e-08
-2.32464e-08
-5.16085e-08
-2.53236e-08
-5.16154e-08
-2.43268e-08
-5.08846e-08
-1.90481e-08
-4.93319e-08
-9.62867e-09
-4.82692e-08
3.49299e-09
-4.88292e-08
1.49936e-08
-4.99819e-08
1.94846e-08
-5.15582e-08
2.00015e-08
-5.21742e-08
1.67047e-08
-5.09551e-08
1.03865e-08
-4.9332e-08
4.94306e-09
-4.84214e-08
2.64535e-09
-4.79878e-08
1.68353e-09
-4.77598e-08
8.81371e-10
-4.74581e-08
9.23618e-11
-4.71167e-08
-1.69093e-10
-4.6729e-08
-6.33635e-11
-4.64103e-08
2.79628e-10
-4.61597e-08
3.93592e-10
-4.59556e-08
3.56729e-10
-4.58339e-08
2.62814e-10
-3.44092e-11
-5.70411e-08
1.69572e-08
-5.83854e-08
-4.41044e-09
-8.33397e-08
-1.57143e-10
-6.84418e-08
-1.33967e-09
-7.24813e-08
-5.74905e-09
-2.0125e-07
1.13005e-08
-8.24066e-08
6.79511e-09
-7.44359e-08
-8.31155e-10
-9.91464e-08
1.24037e-08
-1.32378e-07
1.03973e-08
-1.22601e-07
-1.89673e-08
-4.8335e-08
-2.29475e-10
-9.60624e-08
-4.1419e-08
-8.27877e-08
-3.08777e-08
-3.25454e-08
-6.18684e-08
-6.83726e-08
7.169e-08
-6.96709e-08
2.02356e-08
-6.1685e-08
2.19879e-08
-2.66602e-09
7.28173e-09
-3.90319e-08
-1.42881e-08
-5.58575e-08
-3.45214e-08
-5.40377e-08
-2.27722e-08
-4.51384e-08
-1.59487e-08
-3.87593e-08
-1.85665e-08
-5.02567e-08
-3.05434e-08
-4.88159e-08
-3.23913e-08
-5.96522e-08
6.3309e-09
-7.73988e-08
3.00306e-08
-1.03877e-07
3.64544e-08
-1.13223e-07
4.34459e-08
-1.08952e-07
3.07982e-08
-9.96165e-08
2.23664e-08
-9.11993e-08
1.82567e-08
-8.67692e-08
1.2474e-08
-8.04276e-08
1.18355e-08
-7.4063e-08
9.84982e-09
-6.44385e-08
9.65382e-09
-5.47264e-08
1.10265e-08
-4.43763e-08
1.31619e-08
-3.49974e-08
8.74284e-09
-2.74319e-08
2.94709e-10
-2.19875e-08
-2.44226e-09
-1.88286e-08
-1.53079e-09
-1.82293e-08
-6.11724e-11
-1.96536e-08
9.25374e-10
-2.26376e-08
1.4846e-09
-2.68175e-08
9.60744e-10
-3.15316e-08
-6.5461e-10
-3.68602e-08
-3.27637e-09
-4.27731e-08
-6.76496e-09
-4.88566e-08
-1.01078e-08
-5.37923e-08
-1.42417e-08
-5.7485e-08
-1.95537e-08
-6.07144e-08
-2.20942e-08
-6.47973e-08
-2.02439e-08
-6.88067e-08
-1.50388e-08
-7.0683e-08
-7.75237e-09
-6.95016e-08
2.31163e-09
-6.6754e-08
1.2246e-08
-6.39498e-08
1.66804e-08
-6.04747e-08
1.65264e-08
-5.64364e-08
1.26664e-08
-5.28051e-08
6.75512e-09
-5.04044e-08
2.54234e-09
-4.88854e-08
1.1262e-09
-4.79503e-08
7.48251e-10
-4.73916e-08
3.22488e-10
-4.70754e-08
-2.24078e-10
-4.68356e-08
-4.09118e-10
-4.65788e-08
-3.203e-10
-4.63308e-08
3.1244e-11
-4.61445e-08
2.06603e-10
-4.59913e-08
2.02334e-10
-4.58956e-08
1.65995e-10
-1.29588e-11
-3.86986e-08
-2.74234e-08
-3.78746e-08
-5.67368e-09
-2.94945e-08
-8.23437e-09
-2.30733e-08
-7.6829e-09
-2.09625e-08
-8.01327e-09
-2.41533e-08
1.46227e-08
-1.22334e-08
-5.12457e-09
-1.61741e-08
2.98496e-09
-1.91846e-08
1.52186e-08
-2.98182e-08
2.07237e-08
-1.86548e-07
1.52085e-08
-7.26747e-08
8.36213e-09
-1.19105e-07
7.06095e-09
-1.57497e-07
7.19922e-09
6.97358e-08
7.24302e-08
-1.43631e-07
-7.14473e-08
-1.01379e-07
-2.37231e-08
-7.1146e-08
-8.24518e-09
-5.03838e-08
-1.29663e-08
-4.82022e-08
-1.69564e-08
-7.23442e-08
-1.0876e-08
-7.77546e-08
-1.66238e-08
-7.95099e-08
-1.48529e-08
-8.13759e-08
-1.77305e-08
-9.45092e-08
-1.77281e-08
-6.5334e-08
-6.18676e-08
-1.08929e-07
5.10492e-08
-1.12167e-07
3.44121e-08
-9.94012e-08
2.40816e-08
-8.41309e-08
2.77412e-08
-7.02888e-08
1.69563e-08
-6.54717e-08
1.75494e-08
-6.1841e-08
1.4626e-08
-5.93228e-08
9.95574e-09
-5.73917e-08
9.90444e-09
-5.53912e-08
7.84939e-09
-5.1831e-08
6.09372e-09
-4.63158e-08
5.51131e-09
-3.81794e-08
5.02562e-09
-3.1204e-08
1.76749e-09
-2.77137e-08
-3.19555e-09
-2.56255e-08
-4.53037e-09
-2.36457e-08
-3.51057e-09
-2.3376e-08
-3.30828e-10
-2.44809e-08
2.03035e-09
-2.67411e-08
3.74484e-09
-3.02551e-08
4.47479e-09
-3.49968e-08
4.08717e-09
-4.07763e-08
2.50314e-09
-4.68823e-08
-6.58913e-10
-5.22123e-08
-4.77777e-09
-5.62472e-08