/*--------------------------------*- C++ -*----------------------------------*\
  =========                 |
  \\      /  F ield         | OpenFOAM: The Open Source CFD Toolbox
   \\    /   O peration     | Website:  https://openfoam.org
    \\  /    A nd           | Version:  12
     \\/     M anipulation  |
\*---------------------------------------------------------------------------*/
FoamFile
{
    format      ascii;
    class       surfaceScalarField;
    location    "0.95";
    object      phi.water;
}
// * * * * * * * * * * * * * * * * * * * * * * * * * * * * * * * * * * * * * //

dimensions      [0 3 -1 0 0 0 0];

internalField   nonuniform List<scalar> 
7375
(
1.09089e-07
9.22226e-09
1.01702e-07
7.39323e-09
9.25912e-08
1.00433e-08
1.04117e-07
-1.03279e-08
8.86769e-08
1.45079e-08
1.08071e-07
-2.03144e-08
1.03147e-07
4.996e-09
1.03998e-07
-8.80873e-10
9.76812e-08
6.3749e-09
9.04624e-08
7.14424e-09
9.37993e-08
-3.28634e-09
1.01728e-07
-7.84692e-09
1.22931e-07
-1.99438e-08
6.8086e-09
-4.99694e-09
1.22498e-07
4.21781e-09
1.0777e-07
1.48651e-08
1.65032e-07
-5.84692e-08
1.04237e-07
6.07891e-08
9.54034e-08
7.86514e-09
1.00096e-07
-4.64597e-09
1.03805e-07
-2.68026e-09
1.06948e-07
-3.13499e-09
1.03295e-07
4.67275e-09
1.15736e-07
-1.24507e-08
9.8853e-08
1.70457e-08
9.70613e-08
1.83341e-09
8.40574e-08
1.18806e-08
8.68582e-08
-2.7709e-09
8.49889e-08
1.85393e-09
8.13206e-08
2.84422e-09
8.07848e-08
5.3606e-10
7.60245e-08
6.43162e-09
5.82701e-08
1.72268e-08
4.05652e-08
1.77047e-08
-6.52769e-09
4.69417e-08
-3.27722e-08
2.62875e-08
-5.51215e-08
2.26937e-08
-7.09642e-08
1.56891e-08
-8.46996e-08
1.35973e-08
-8.85062e-08
3.77396e-09
-9.23611e-08
4.75147e-09
-8.1914e-08
-9.52398e-09
-8.11161e-08
-7.97632e-10
-7.26494e-08
-8.46706e-09
-6.3106e-08
-9.54311e-09
-5.29119e-08
-1.01945e-08
-4.47836e-08
-8.12808e-09
-3.77202e-08
-7.0638e-09
-3.07531e-08
-6.96693e-09
-2.44606e-08
-6.29292e-09
-1.85754e-08
-5.88497e-09
-1.43439e-08
-4.23191e-09
-1.02828e-08
-4.06093e-09
-6.506e-09
-3.77722e-09
-2.1774e-09
-4.32838e-09
2.2506e-09
-4.4284e-09
6.41592e-09
-4.16507e-09
1.0056e-08
-3.64047e-09
1.32774e-08
-3.2211e-09
1.68575e-08
-3.58047e-09
2.16044e-08
-4.74656e-09
2.80209e-08
-6.41678e-09
3.59199e-08
-7.8986e-09
4.46094e-08
-8.68961e-09
5.27455e-08
-8.13563e-09
5.79017e-08
-5.15621e-09
5.70959e-08
8.0632e-10
4.99059e-08
7.18989e-09
3.83134e-08
1.15927e-08
2.55217e-08
1.27914e-08
1.32153e-08
1.23065e-08
2.22949e-09
1.0986e-08
-9.29555e-09
1.15257e-08
-1.9391e-08
1.00963e-08
3.63569e-09
1.44129e-07
2.77682e-09
1.39646e-07
1.32117e-08
1.30349e-07
1.78278e-08
9.96662e-08
2.14653e-08
1.03015e-07
1.20368e-08
9.98988e-08
-1.62112e-08
9.40335e-08
1.18405e-08
8.91544e-08
2.94812e-09
7.66389e-08
1.71815e-08
9.01535e-08
-8.13714e-09
9.6255e-08
-9.54591e-09
1.08594e-07
-1.92142e-08
1.052e-07
-1.5601e-08
9.52548e-08
4.06885e-09
8.71662e-08
1.33212e-08
6.22511e-08
4.23987e-08
2.89134e-07
8.16622e-08
4.41226e-08
-6.026e-08
7.23291e-08
-2.10792e-08
9.1172e-08
-2.33006e-08
9.8106e-08
-8.68408e-09
1.03059e-07
-9.23382e-09
1.30703e-07
-2.29707e-08
1.00537e-07
2.14455e-08
1.06752e-07
1.18195e-08
8.07467e-08
2.47866e-08
6.87032e-08
2.24149e-08
7.28101e-08
-6.91931e-09
7.33567e-08
2.06353e-09
7.12009e-08
5.74833e-09
5.71234e-08
1.53585e-08
3.40814e-08
2.94736e-08
1.60919e-08
3.52164e-08
7.14206e-09
2.67633e-08
2.1381e-09
5.13996e-08
-1.06959e-08
3.84825e-08
-2.55668e-08
3.74435e-08
-3.85012e-08
2.87223e-08
-4.10276e-08
1.55777e-08
-4.86023e-08
1.13105e-08
-4.40119e-08
5.99583e-10
-4.46098e-08
-8.92619e-09
-3.87548e-08
-6.65262e-09
-3.45953e-08
-1.26266e-08
-3.15861e-08
-1.25523e-08
-3.03293e-08
-1.14514e-08
-2.90247e-08
-9.43273e-09
-2.75848e-08
-8.50383e-09
-2.61162e-08
-8.4356e-09
-2.51886e-08
-7.22068e-09
-2.57141e-08
-5.35948e-09
-2.82587e-08
-1.68757e-09
-3.20982e-08
-2.21459e-10
-3.54911e-08
-3.8445e-10
-3.67386e-08
-3.08094e-09
-3.61912e-08
-4.97597e-09
-3.47829e-08
-5.57336e-09
-3.3243e-08
-5.18046e-09
-3.13091e-08
-5.15497e-09
-2.78881e-08
-7.00162e-09
-2.17296e-08
-1.0905e-08
-1.2637e-08
-1.55094e-08
-1.48485e-09
-1.90506e-08
1.05666e-08
-2.0741e-08
2.19439e-08
-1.95126e-08
3.01073e-08
-1.33194e-08
3.24826e-08
-1.5687e-09
2.68203e-08
1.28523e-08
1.57897e-08
2.26235e-08
1.25677e-09
2.73243e-08
-1.37345e-08
2.72978e-08
-2.45535e-08
2.18053e-08
-3.03353e-08
1.73083e-08
-3.27093e-08
1.24711e-08
3.46589e-09
6.08127e-08
3.81918e-09
7.37136e-08
1.78048e-10
1.12239e-07
-2.01575e-08
3.53966e-08
-2.03819e-08
1.22616e-07
4.47485e-08
9.14984e-08
1.49057e-08
1.03328e-07
-1.28519e-09
1.128e-07
-6.55375e-09
9.48613e-08
3.74455e-08
1.03274e-07
-1.57319e-08
7.4305e-08
1.82604e-08
5.3159e-08
1.55154e-09
2.77656e-08
1.00785e-08
1.35791e-08
1.8109e-08
-4.78832e-09
3.16365e-08
3.54923e-09
3.36734e-08
4.66971e-08
3.68119e-08
-8.21032e-09
-5.35271e-09
-1.05684e-08
-1.84255e-08
-1.4581e-08
-1.95234e-08
-6.75584e-09
-1.6727e-08
-3.71875e-08
2.11978e-08
-7.25723e-08
1.19405e-08
-4.52544e-08
-5.40607e-09
-1.76519e-08
-1.55647e-08
-1.95927e-08
2.62944e-08
-1.68065e-08
1.96568e-08
-3.82659e-08
1.40791e-08
-5.02944e-08
1.41133e-08
-5.75631e-08
1.30763e-08
-7.07112e-08
2.85067e-08
-7.46307e-08
3.27186e-08
-7.58622e-08
3.6076e-08
-7.72795e-08
2.8392e-08
-5.9585e-08
3.44855e-08
-5.4217e-08
3.33255e-08
-4.28005e-08
2.56527e-08
-3.49088e-08
2.08306e-08
-3.44966e-08
1.51656e-08
-3.53525e-08
1.20533e-08
-3.44202e-08
-3.32695e-10
-3.62336e-08
-7.1128e-09
-3.48179e-08
-8.06841e-09
-3.62355e-08
-1.12091e-08
-3.72855e-08
-1.15024e-08
-3.82042e-08
-1.05327e-08
-3.81306e-08
-9.50644e-09
-3.76969e-08
-8.9376e-09
-3.77036e-08
-8.42903e-09
-3.87474e-08
-6.17702e-09
-4.19401e-08
-2.16682e-09
-4.69546e-08
3.32679e-09
-5.31962e-08
6.0201e-09
-5.88466e-08
5.26576e-09
-6.29832e-08
1.05559e-09
-6.52735e-08
-2.68578e-09
-6.68214e-08
-4.02545e-09
-6.76893e-08
-4.31264e-09
-6.69671e-08
-5.8772e-09
-6.30661e-08
-1.09027e-08
-5.59868e-08
-1.79843e-08
-4.78868e-08
-2.36094e-08
-4.06066e-08
-2.63306e-08
-3.45623e-08
-2.67852e-08
-3.06761e-08
-2.33986e-08
-2.95536e-08
-1.44417e-08
-3.14767e-08
3.54709e-10
-3.52707e-08
1.66464e-08
-3.91464e-08
2.64992e-08
-4.18039e-08
2.99818e-08
-4.2255e-08
2.77491e-08
-4.04666e-08
2.00174e-08
-3.88774e-08
1.572e-08
-3.67625e-08
1.03571e-08
1.89119e-09
4.23419e-08
7.1687e-09
4.26223e-08
3.29184e-10
2.01791e-08
2.49111e-09
-1.29059e-08
1.26257e-08
9.50398e-09
2.25686e-08
1.03852e-09
2.36119e-08
-1.70735e-08
1.70001e-08
5.31565e-08
-7.7095e-08
-7.59376e-09
9.71164e-08
-7.5662e-08
5.31242e-08
-8.69716e-08
2.80943e-08
-9.68394e-08
1.14192e-08
-7.86656e-08
-6.22228e-09
-9.75333e-08
3.67918e-08
-8.03468e-08
1.39846e-08
-6.17473e-08
1.47302e-08
-6.4162e-08
3.96308e-08
-6.70453e-08
-1.78547e-09
-4.3672e-08
-4.17989e-08
-5.32744e-08
-1.05656e-08
-5.80538e-08
-1.20708e-08
-4.77695e-08
1.02099e-08
-1.33111e-07
-2.4009e-08
-2.58497e-08
8.79937e-09
-6.54278e-08
2.38546e-08
-5.45633e-08
1.58251e-08
-3.93309e-08
4.38026e-09
-4.19889e-08
1.61708e-08
-5.01122e-08
2.15814e-08
-7.66827e-08
4.00597e-08
-6.44311e-08
1.74039e-08
-5.8397e-08
2.72743e-08
-5.66829e-08
3.36406e-08
-5.33947e-08
2.48199e-08
-4.36166e-08
2.43628e-08
-3.33454e-08
2.30543e-08
-3.04191e-08
2.27265e-08
-2.72164e-08
1.76279e-08
-2.59119e-08
1.38611e-08
-2.3406e-08
9.54744e-09
-2.62282e-08
2.48946e-09
-2.95954e-08
-3.74561e-09
-3.09801e-08
-6.68372e-09
-3.27515e-08
-9.43769e-09
-3.37914e-08
-1.04626e-08
-3.43286e-08
-9.99548e-09
-3.46971e-08
-9.13811e-09
-3.54474e-08
-8.1873e-09
-3.70196e-08
-6.85701e-09
-3.95275e-08
-3.66913e-09
-4.3287e-08
1.59254e-09
-4.80489e-08
8.08853e-09
-5.43446e-08
1.23157e-08
-6.12969e-08
1.22179e-08
-6.82978e-08
8.05644e-09
-7.37672e-08
2.7835e-09
-7.71767e-08
-6.1602e-10
-7.85416e-08
-2.94775e-09
-7.72189e-08
-7.2e-09
-7.23418e-08
-1.57797e-08
-6.60134e-08
-2.43127e-08
-6.12781e-08
-2.83446e-08
-5.83694e-08
-2.92392e-08
-5.79009e-08
-2.72537e-08
-6.09537e-08
-2.03456e-08
-6.56993e-08
-9.69586e-09
-6.81801e-08
2.83575e-09
-6.67978e-08
1.52643e-08
-6.2713e-08
2.24146e-08
-5.67044e-08
2.39733e-08
-4.9579e-08
2.06239e-08
-4.47001e-08
1.5139e-08
-4.15986e-08
1.26195e-08
-3.89043e-08
7.66369e-09
5.47199e-10
4.36027e-08
1.30917e-08
3.66936e-08
7.31138e-09
2.51889e-08
1.42245e-08
-5.13269e-09
4.27134e-08
-3.09009e-08
4.75805e-08
-3.93852e-08
3.1682e-08
-1.79899e-07
3.44196e-08
1.17427e-07
1.11387e-07
-1.17881e-07
-2.74566e-08
-1.89855e-07
4.00087e-09
-6.85126e-08
2.75107e-08
-8.83644e-08
3.03389e-08
-8.22552e-08
-1.23316e-08
-5.69223e-08
1.20396e-08
-3.72486e-08
-5.6892e-09
-2.82681e-08
5.0812e-09
-8.19082e-08
-2.80202e-08
-1.01243e-07
1.83848e-08
-4.92009e-08
2.57862e-08
-5.64307e-08
-3.91158e-09
-8.16603e-08
1.31588e-08
-4.89739e-08
-2.16435e-08
-7.69381e-08
4.2e-09
-8.56086e-08
1.76499e-08
-5.5713e-08
-5.4174e-09
-2.41327e-08
-1.53565e-08
-1.52769e-08
-4.5207e-09
-1.63792e-08
1.71188e-08
-2.52786e-08
3.00558e-08
-2.46824e-08
3.86523e-08
-6.35045e-08
5.64778e-08
-5.24738e-08
1.6885e-08
-4.15748e-08
2.32663e-08
-3.74085e-08
2.06536e-08
-3.4183e-08
2.11374e-08
-2.93659e-08
1.82372e-08
-2.49803e-08
1.83409e-08
-2.10125e-08
1.36601e-08
-1.78474e-08
1.0696e-08
-1.49591e-08
6.65923e-09
-1.23469e-08
-1.22798e-10
-1.27841e-08
-3.30844e-09
-1.36319e-08
-5.83587e-09
-1.5447e-08
-7.62267e-09
-1.74015e-08
-8.50808e-09
-1.90414e-08
-8.35563e-09
-2.06689e-08
-7.51073e-09
-2.29431e-08
-5.91317e-09
-2.62661e-08
-3.53411e-09
-3.06094e-08
6.74103e-10
-3.55557e-08
6.53875e-09
-4.05739e-08
1.31066e-08
-4.63776e-08
1.81194e-08
-5.32952e-08
1.91354e-08
-6.12099e-08
1.5971e-08
-6.8729e-08
1.03025e-08
-7.41031e-08
4.75807e-09
-7.60588e-08
-9.92104e-10
-7.4449e-08
-8.80984e-09
-7.00307e-08
-2.01981e-08
-6.61213e-08
-2.82221e-08
-6.39122e-08
-3.05537e-08
-6.27709e-08
-3.03804e-08
-6.46456e-08
-2.53789e-08
-6.9367e-08
-1.5624e-08
-7.36254e-08
-5.43731e-09
-7.42681e-08
3.47872e-09
-7.0405e-08
1.14013e-08
-6.40308e-08
1.60406e-08
-5.64037e-08
1.63464e-08
-4.95907e-08
1.38111e-08
-4.53396e-08
1.08884e-08
-4.21734e-08
9.45428e-09
-4.00647e-08
5.55594e-09
-5.29342e-11
-4.84791e-09
2.0115e-08
3.78006e-10
2.10623e-09
1.19029e-09
1.35447e-08
-1.80023e-08
6.16561e-08
-2.53127e-08
5.4484e-08
-3.75643e-08
4.37373e-08
-6.56395e-08
6.23977e-08
3.93861e-08
4.55535e-09
-5.8124e-08
6.90687e-08
-9.02295e-08
3.60654e-08
-5.08018e-08
-1.16365e-08
-3.31731e-08
1.25818e-08
-4.90873e-08
3.61939e-09
-2.98502e-08
-7.19761e-09
-3.4391e-08
-1.20646e-09
-4.5525e-08
1.62151e-08
-7.55412e-08
2.28179e-09
-7.50194e-08
1.76826e-08
-3.90302e-08
-1.0203e-08
-6.13991e-08
1.84573e-08
-7.48399e-08
2.64653e-08
-7.69288e-08
-1.95546e-08
-6.09767e-09
-6.73808e-08
-1.50866e-07
4.26824e-08
-6.19025e-08
2.66087e-08
-6.32634e-08
-1.49265e-08
-7.29117e-08
4.43603e-09
-5.91684e-08
3.58682e-09
-5.07966e-08
2.1978e-08
-2.51261e-08
1.25914e-08
-9.95818e-08
1.15219e-08
-4.44407e-09
4.02272e-08
-1.89723e-08
3.77945e-08
-1.93404e-08
2.10217e-08
-1.72482e-08
1.90453e-08
-1.55323e-08
1.65213e-08
-1.22296e-08
1.50383e-08
-1.03153e-08
1.17458e-08
-8.77814e-09
9.15886e-09
-6.89964e-09
4.78074e-09
-7.35347e-09
3.31031e-10
-8.25777e-09
-2.40416e-09
-9.76877e-09
-4.3249e-09
-1.14378e-08
-5.95367e-09
-1.34621e-08
-6.48388e-09
-1.54063e-08
-6.41143e-09
-1.73386e-08
-5.57852e-09
-1.95645e-08
-3.68737e-09
-2.25655e-08
-5.33233e-10
-2.63244e-08
4.43301e-09
-3.00644e-08
1.02786e-08
-3.32431e-08
1.62852e-08
-3.61427e-08
2.10189e-08
-3.95322e-08
2.25248e-08
-4.4527e-08
2.09658e-08
-5.03957e-08
1.61712e-08
-5.54357e-08
9.79798e-09
-5.87338e-08
2.30594e-09
-5.97713e-08
-7.77235e-09
-5.92031e-08
-2.07664e-08
-5.85513e-08
-2.8874e-08
-5.83101e-08
-3.07949e-08
-5.92958e-08
-2.93947e-08
-6.25595e-08
-2.2115e-08
-6.65158e-08
-1.16677e-08
-6.87571e-08
-3.19573e-09
-6.78983e-08
2.6201e-09
-6.38609e-08
7.36406e-09
-5.81193e-08
1.02992e-08
-5.24641e-08
1.06914e-08
-4.80807e-08
9.42797e-09
-4.49641e-08
7.77236e-09
-4.22991e-08
6.79031e-09
-4.08412e-08
4.09908e-09
-2.16732e-10
-1.91982e-07
-3.70539e-09
-1.99343e-07
9.46598e-09
-1.31701e-07
-5.26007e-08
-1.64096e-07
9.37237e-08
-1.77014e-07
6.86586e-08
-1.43503e-07
1.29261e-07
-1.57228e-07
7.67664e-08
1.16688e-07
9.12132e-08
-1.1269e-07
-5.80772e-08
-7.6809e-08
-9.65244e-10
-6.69608e-08
-2.08017e-08
-6.0365e-08
5.37628e-09
-6.71536e-08
9.78574e-09
-5.74483e-08
-1.62179e-08
-4.84355e-08
-1.02193e-08
-3.77798e-08
5.50315e-09
-5.11872e-08
1.62113e-08
-4.65988e-08
1.30941e-08
-3.85712e-08
-1.87061e-08
-3.06366e-08
1.04164e-08
-3.91667e-08
3.49953e-08
-1.01068e-07
4.13153e-08
1.16047e-07
7.93775e-08
-1.57746e-07
-4.53048e-08
-1.13246e-07
-1.87751e-08
-1.24773e-07
-3.55328e-09
-1.20371e-07
7.91441e-11
-1.17565e-07
1.99328e-09
-1.02161e-07
7.76137e-09
-9.74924e-08
8.00328e-09
-9.01287e-08
5.01782e-09
-6.55778e-08
1.56762e-08
-4.61677e-08
1.83845e-08
-4.35147e-08
1.83687e-08
-3.89127e-08
1.44433e-08
-3.51632e-08
1.27718e-08
-3.08911e-08
1.07662e-08
-2.87133e-08
9.56802e-09
-2.77822e-08
8.2278e-09
-2.78731e-08
4.8716e-09
-2.8614e-08
1.07198e-09
-2.9354e-08
-1.66415e-09
-3.01731e-08
-3.50588e-09
-3.12504e-08
-4.87635e-09
-3.25476e-08
-5.18674e-09
-3.35884e-08
-5.3707e-09
-3.40743e-08
-5.09273e-09
-3.40701e-08
-3.6916e-09
-3.41143e-08
-4.89159e-10
-3.41547e-08
4.47335e-09
-3.41557e-08
1.02795e-08
-3.39781e-08
1.61075e-08
-3.32165e-08
2.02572e-08
-3.22841e-08
2.15924e-08
-3.21649e-08
2.08464e-08
-3.35534e-08
1.75597e-08
-3.61459e-08
1.23904e-08
-3.9515e-08
5.67499e-09
-4.35637e-08
-3.72369e-09
-4.7937e-08
-1.63931e-08
-5.07456e-08
-2.60654e-08
-5.27968e-08
-2.87437e-08
-5.51219e-08
-2.70695e-08
-5.77768e-08
-1.946e-08
-6.00147e-08
-9.4297e-09
-6.06468e-08
-2.56342e-09
-5.93582e-08
1.33169e-09
-5.64213e-08
4.42743e-09
-5.28859e-08
6.76387e-09
-4.95477e-08
7.35344e-09
-4.67202e-08
6.60075e-09
-4.45298e-08
5.58258e-09
-4.25739e-08
4.83551e-09
-4.14782e-08
3.00431e-09
-2.45989e-10
-2.26112e-07
4.97973e-09
-2.66913e-07
4.69679e-08
-2.95113e-08
7.41744e-08
-2.42374e-07
-5.15668e-08
-1.67911e-07
-8.30275e-09
-1.52608e-07
-4.38234e-09
-9.95336e-08
2.29088e-08
-3.05445e-08
2.22239e-08
-5.98045e-08
-2.94098e-08
-5.26462e-08
-8.12372e-09
-6.95834e-08
-3.86456e-09
-4.8367e-08
-1.57853e-08
-4.84025e-08
9.72134e-09
-6.87381e-08
4.11758e-09
-6.06755e-08
-1.76631e-08
-5.56729e-08
5.00517e-10
-5.27814e-08
1.2623e-08
-3.38115e-08
-5.74228e-09
-3.31683e-08
-1.90109e-08
1.60213e-08
-3.87733e-08
-3.61467e-08
8.64449e-08
-4.29517e-08
4.76342e-08
1.87365e-09
3.34016e-08
-4.22963e-08
-1.1349e-09
-6.03185e-08
-7.52901e-10
-7.02701e-08
5.65984e-09
-8.17549e-08
1.15639e-08
-9.7349e-08
1.85908e-08
-9.19315e-08
2.42308e-09
-9.85291e-08
1.54484e-08
-9.66744e-08
4.27651e-09
-9.50924e-08
1.40942e-08
-7.58116e-08
-8.9632e-10
-6.99987e-08
1.25558e-08
-6.50944e-08
9.53909e-09
-6.17841e-08
9.46151e-09
-5.9447e-08
8.42906e-09
-5.77005e-08
7.82159e-09
-5.56945e-08
6.22182e-09
-5.43354e-08
3.51247e-09
-5.40607e-08
7.97263e-10
-5.39096e-08
-1.81523e-09
-5.38375e-08
-3.57803e-09
-5.39721e-08
-4.74183e-09
-5.43617e-08
-4.79712e-09
-5.48252e-08
-4.90733e-09
-5.51031e-08
-4.81489e-09
-5.50595e-08
-3.73521e-09
-5.42729e-08
-1.2759e-09
-5.17962e-08
1.99658e-09
-4.74397e-08
5.92288e-09
-4.18839e-08
1.05517e-08
-3.6099e-08
1.44723e-08
-3.11475e-08
1.66409e-08
-2.72418e-08
1.69406e-08
-2.48594e-08
1.51773e-08
-2.4705e-08
1.22359e-08
-2.70217e-08
7.99167e-09
-3.19189e-08
1.17348e-09
-3.90251e-08
-9.28689e-09
-4.49995e-08
-2.0091e-08
-4.87452e-08
-2.49979e-08
-5.13104e-08
-2.45043e-08
-5.31402e-08
-1.76302e-08
-5.44497e-08
-8.11998e-09
-5.45012e-08
-2.51176e-09
-5.34847e-08
3.1533e-10
-5.18036e-08
2.74656e-09
-4.97652e-08
4.72563e-09
-4.76616e-08
5.25007e-09
-4.57367e-08
4.67616e-09
-4.41641e-08
4.01058e-09
-4.27867e-08
3.45924e-09
-4.19611e-08
2.17966e-09
-2.39127e-10
-1.81421e-07
9.80562e-09
-1.43992e-07
1.13703e-08
-8.12406e-08
9.92468e-09
-1.13784e-07
-1.95441e-08
-1.049e-07
-1.82635e-08
-1.01748e-07
-7.45859e-09
-7.93732e-08
5.34083e-10
-6.54397e-08
8.20662e-09
-7.797e-08
-1.70536e-08
-8.31211e-08
-2.97269e-09
-8.40517e-08
-2.934e-09
-8.10539e-08
-1.87833e-08
-6.66876e-08
-4.69292e-09
-5.56808e-08
-6.88925e-09
-6.83837e-08
-4.96025e-09
-6.14021e-08
-5.79058e-09
-3.92556e-08
-9.52359e-09
-5.61466e-08
1.07482e-08
-8.6388e-08
1.12304e-08
1.56029e-07
7.62063e-08
-6.42169e-08
-4.91851e-08
-1.83552e-08
1.29631e-09
6.73305e-09
8.21079e-09
4.34082e-09
1.32599e-09
-6.42228e-09
9.97394e-09
-1.0973e-08
1.01085e-08
-1.03731e-08
1.06283e-08
-7.42484e-09
1.54829e-08
-2.64834e-08
2.18276e-08
-7.12008e-08
5.81406e-08
-8.51765e-08
1.84423e-08
-5.36549e-08
-1.51761e-08
-5.56578e-08
1.11782e-09
-4.90873e-08
5.98529e-09
-4.46062e-08
5.05804e-09
-4.26536e-08
7.50895e-09
-4.23059e-08
8.08141e-09
-4.13506e-08
6.86631e-09
-4.03139e-08
5.18504e-09
-4.02119e-08
3.41048e-09
-4.09914e-08
1.57679e-09
-4.2542e-08
-2.6467e-10
-4.45972e-08
-1.52287e-09
-4.67659e-08
-2.57316e-09
-4.89532e-08
-2.60982e-09
-5.13134e-08
-2.54721e-09
-5.41697e-08
-1.95868e-09
-5.71374e-08
-7.67593e-10
-5.8962e-08
5.48671e-10
-5.85438e-08
1.57827e-09
-5.53624e-08
2.74141e-09
-4.92857e-08
4.47495e-09
-4.11714e-08
6.35784e-09
-3.24599e-08
7.92945e-09
-2.45902e-08
9.07076e-09
-1.87527e-08
9.33975e-09
-1.60894e-08
9.57258e-09
-1.67828e-08
8.68501e-09
-2.09125e-08
5.30315e-09
-2.80627e-08
-2.1367e-09
-3.58711e-08
-1.22826e-08
-4.13347e-08
-1.95343e-08
-4.51075e-08
-2.07315e-08
-4.80747e-08
-1.46629e-08
-4.99193e-08
-6.27529e-09
-5.04699e-08
-1.96091e-09
-5.02405e-08
8.60981e-11
-4.92852e-08
1.79144e-09
-4.7898e-08
3.33861e-09
-4.64324e-08
3.78471e-09
-4.50634e-08
3.30748e-09
-4.3915e-08
2.86278e-09
-4.29267e-08
2.47198e-09
-4.23136e-08
1.56753e-09
-2.13348e-10
-1.06012e-07
-7.25627e-09
-8.55286e-08
-9.20726e-09
-6.17758e-08
-1.38286e-08
-6.88173e-08
-1.31979e-08
-8.86085e-08
2.45647e-09
-6.54264e-08
-3.06409e-08
-5.98985e-08
-4.99937e-09
-4.07553e-08
-1.13482e-08
-6.09049e-08
2.64852e-09
-4.75426e-08
-1.57137e-08
-5.40548e-08
3.54195e-09
-6.5214e-08
-8.28948e-09
-7.43121e-08
4.3601e-09
-7.13554e-08
-9.18154e-09
-7.31176e-08
-2.47741e-09
-7.53798e-08
-3.5645e-09
-6.98117e-08
-1.61224e-08
-5.61549e-08
-2.87925e-09
-5.07127e-08
6.30548e-09
1.03858e-08
1.51078e-08
-3.47695e-08
-4.07098e-09
-3.58215e-08
1.9797e-09
-2.66576e-08
-1.23777e-09
-2.33921e-08
-1.41457e-09
-1.42152e-08
9.4055e-10
-4.54492e-09
3.92793e-10
8.46257e-09
-2.51194e-09
2.26029e-08
1.18629e-09
7.93329e-08
-3.54812e-08
-5.8421e-08
-1.60042e-07
-2.29731e-08
-1.82123e-08
-2.17807e-08
-1.65248e-08
-2.46008e-08
4.42244e-09
-2.97933e-08
1.15392e-08
-3.52971e-08
1.05619e-08
-3.92956e-08
1.15074e-08
-4.18222e-08
1.06081e-08
-4.29749e-08
8.01899e-09
-4.37135e-08
5.92366e-09
-4.4113e-08
3.80992e-09
-4.5343e-08
2.80677e-09
-4.71651e-08
1.55743e-09
-4.89184e-08
2.30406e-10
-5.06342e-08
-8.5735e-10
-5.22036e-08
-1.04048e-09
-5.40012e-08
-7.49642e-10
-5.62907e-08
3.30726e-10
-5.8213e-08
1.15461e-09
-5.90039e-08
1.33951e-09
-5.80626e-08
6.36956e-10
-5.46381e-08
-6.83151e-10
-4.81042e-08
-2.05904e-09
-3.90585e-08
-2.68792e-09
-2.87475e-08
-2.38153e-09
-1.86857e-08
-9.91068e-10
-1.06259e-08
1.27988e-09
-5.79477e-09
4.74141e-09
-4.5555e-09
7.44572e-09
-6.43733e-09
7.18496e-09
-1.16386e-08
3.06452e-09
-1.96396e-08
-4.28156e-09
-2.83893e-08
-1.07846e-08
-3.66288e-08
-1.2492e-08
-4.29675e-08
-8.32411e-09
-4.62407e-08
-3.002e-09
-4.76502e-08
-5.51285e-10
-4.80607e-08
4.96814e-10
-4.76611e-08
1.39198e-09
-4.6654e-08
2.33172e-09
-4.55258e-08
2.65672e-09
-4.45549e-08
2.33686e-09
-4.37279e-08
2.03649e-09
-4.30123e-08
1.75741e-09
-4.25647e-08
1.1209e-09
-1.77324e-10
-1.34558e-07
-2.26578e-08
-1.12931e-07
-3.08343e-08
-1.06856e-07
-1.89555e-08
-8.27707e-08
-3.81191e-08
-1.737e-07
-2.84655e-08
-5.46625e-08
-2.76074e-08
-5.48154e-08
-4.84663e-09
-3.801e-08
-2.81538e-08
-3.4086e-08
-1.30232e-09
-1.68553e-08
-3.31203e-08
-6.72178e-09
-6.59161e-09
-6.15115e-09
-8.86601e-09
-1.99087e-08
1.78725e-08
-4.00844e-08
1.02699e-08
-4.98267e-08
7.23901e-09
-5.50416e-08
1.55993e-09
-7.95684e-08
9.79175e-09
-5.4216e-08
-2.77079e-08
-5.06981e-08
2.2344e-09
-3.43649e-08
-1.07132e-09
-4.78378e-08
9.88988e-09
-3.53824e-08
-1.03513e-08
-3.59911e-08
-6.04039e-10
-2.38829e-08
-1.35229e-08
-3.06416e-08
7.77783e-09
-1.80893e-08
-1.21556e-08
-1.91352e-08
-1.6506e-09
-2.04074e-08
2.44563e-09
-6.76027e-08
1.17141e-08
6.55602e-08
6.53232e-08
2.02087e-08
2.71392e-08
-2.94956e-09
6.73338e-09
-1.72639e-08
1.87368e-08
-2.55875e-08
2.00371e-08
-3.36702e-08
1.89004e-08
-4.42306e-08
2.20679e-08
-4.98834e-08
1.62609e-08
-5.16107e-08
9.74629e-09
-5.11631e-08
5.476e-09
-5.08563e-08
3.5031e-09
-5.29046e-08
4.8551e-09
-5.59239e-08
4.57674e-09
-5.84766e-08
2.7831e-09
-6.0436e-08
1.102e-09
-6.18871e-08
4.10539e-10
-6.28839e-08
2.47134e-10
-6.32762e-08
7.22931e-10
-6.28793e-08
7.57732e-10
-6.12136e-08
-3.26285e-10
-5.76528e-08
-2.92385e-09
-5.17638e-08
-6.57228e-09
-4.33183e-08
-1.05046e-08
-3.31997e-08
-1.28065e-08
-2.26808e-08
-1.29005e-08
-1.29716e-08
-1.07003e-08
-5.17044e-09
-6.5213e-09
-3.22603e-10
-1.06449e-10
9.00685e-10
6.22241e-09
-7.30776e-10
8.81641e-09
-4.99195e-09
7.32569e-09
-1.22355e-08
2.96195e-09
-2.22468e-08
-7.7323e-10
-3.32646e-08
-1.47409e-09
-4.14701e-08
-1.18635e-10
-4.52791e-08
8.07205e-10
-4.67199e-08
8.89573e-10
-4.7128e-08
9.05088e-10
-4.68299e-08
1.09413e-09
-4.59338e-08
1.43577e-09
-4.49299e-08
1.65295e-09
-4.41919e-08
1.59922e-09
-4.35974e-08
1.44261e-09
-4.30727e-08
1.23373e-09
-4.27462e-08
7.95375e-10
-1.38393e-10
-9.69879e-08
-5.73898e-08
-8.03387e-08
-4.69739e-08
-6.71772e-08
-3.21175e-08
-6.06683e-08
-4.48559e-08
-7.09228e-08
-1.81066e-08
-4.98351e-08
-4.94187e-08
-4.40904e-08
-1.01911e-08
-4.29245e-08
-2.99241e-08
-2.66798e-08
-1.79984e-08
-6.19445e-09
-5.36057e-08
-4.95164e-09
-7.90174e-09
-5.90047e-09
-7.91726e-09
3.12654e-09
8.90501e-09
-1.49612e-08
2.81027e-08
-3.08044e-08
2.28534e-08
-5.3305e-08
2.43587e-08
-6.61282e-08
2.18405e-08
-6.55448e-08
-2.8577e-08
-5.71388e-09
-5.75146e-08
-7.8445e-08
7.16597e-08
-5.68843e-08
-1.09785e-08
-3.74768e-08
-2.97856e-08
-3.74425e-08
-1.01692e-09
-3.95181e-08
-1.19672e-08
-2.2281e-08
-9.36381e-09
-1.57016e-08
-1.88589e-08
-2.40783e-08
6.97168e-09
-2.74654e-08
5.83276e-09
-3.9582e-08
2.33126e-08
-5.32354e-09
3.10648e-08
-1.17617e-08
3.36974e-08
-2.68481e-08
2.20423e-08
-3.86327e-08
3.06417e-08
-4.55955e-08
2.71859e-08
-5.58852e-08
2.919e-08
-5.92869e-08
2.54696e-08
-6.04295e-08
1.74036e-08
-6.26793e-08
1.19961e-08
-6.5525e-08
8.3217e-09
-6.80498e-08
6.02787e-09
-7.0813e-08
7.61826e-09
-7.22764e-08
6.0401e-09
-7.33138e-08
3.82055e-09
-7.36289e-08
1.41702e-09
-7.29301e-08
-2.88318e-10
-7.14989e-08
-1.1841e-09
-6.90424e-08
-1.7336e-09
-6.60085e-08
-2.27622e-09
-6.14405e-08
-4.89433e-09
-5.50696e-08
-9.2948e-09
-4.73607e-08
-1.42811e-08
-3.92874e-08
-1.85779e-08
-3.06273e-08
-2.14667e-08
-2.16691e-08
-2.18587e-08
-1.32109e-08
-1.91585e-08
-6.45576e-09
-1.32765e-08
-2.39571e-09
-4.16651e-09
-1.91432e-09
5.74101e-09
-4.64789e-09
1.155e-08
-9.99964e-09
1.26774e-08
-1.79557e-08
1.0918e-08
-2.78459e-08
9.11693e-09
-3.69398e-08
7.61986e-09
-4.26308e-08
5.57249e-09
-4.51981e-08
3.37457e-09
-4.62057e-08
1.89733e-09
-4.64014e-08
1.10095e-09
-4.60336e-08
7.26487e-10
-4.5283e-08
6.85372e-10
-4.45093e-08
8.79441e-10
-4.3946e-08
1.03625e-09
-4.34984e-08
9.95569e-10
-4.31121e-08
8.48481e-10
-4.28756e-08
5.59865e-10
-9.93087e-11
1.0037e-07
1.39669e-08
5.15764e-08
2.85376e-09
4.97473e-08
-3.00014e-08
1.10764e-08
-6.07116e-09
-1.0701e-09
-6.26113e-09
-1.66973e-08
-3.41289e-08
-3.52479e-08
7.64026e-09
-5.31402e-08
-1.24735e-08
-5.34924e-08
-1.6562e-08
-7.11286e-08
-3.63403e-08
-7.10908e-09
-7.19213e-08
-7.66626e-08
6.24183e-08
-1.05701e-09
-6.67006e-08
-4.7054e-08
7.36245e-08
-5.07585e-08
2.63247e-08
-4.98835e-08
2.34837e-08
-4.69217e-08
1.88786e-08
-1.05445e-07
2.91616e-08
1.31837e-07
6.90768e-08
-1.653e-07
-1.11076e-07
-3.87107e-08
-1.91179e-08
-4.34726e-08
-2.54672e-08
-1.74958e-08
-2.65606e-08
-1.1011e-07
-3.86783e-08
-1.40449e-08
1.32785e-08
-3.32486e-08
2.01401e-10
-3.09916e-08
4.71467e-09
-2.97077e-08
4.9114e-09
-2.49771e-08
1.8582e-08
-1.57474e-08
2.18027e-08
-1.87801e-08
3.65384e-08
-2.46053e-08
2.80947e-08
-2.27827e-08
2.93025e-08
-2.09401e-08
2.5571e-08
-1.86408e-08
2.68908e-08
-1.69353e-08
2.37641e-08
-2.28845e-08
2.33528e-08
-3.38247e-08
2.29363e-08
-4.98398e-08
2.43368e-08
-6.28632e-08
1.90513e-08
-6.82043e-08
1.29593e-08
-6.98289e-08
7.66472e-09
-6.9999e-08
3.99065e-09
-6.91954e-08
6.13366e-10
-6.77318e-08
-1.75195e-09
-6.56456e-08
-3.27037e-09
-6.23213e-08
-5.05789e-09
-5.80851e-08
-6.51244e-09
-5.31571e-08
-9.82239e-09
-4.80118e-08
-1.44402e-08
-4.35216e-08
-1.87714e-08
-4.0064e-08
-2.20356e-08
-3.62757e-08
-2.5255e-08
-3.20372e-08
-2.60973e-08
-2.69497e-08
-2.4246e-08
-2.2002e-08
-1.82241e-08
-1.81863e-08
-7.98221e-09
-1.70858e-08
4.64046e-09
-2.00215e-08
1.44857e-08
-2.57024e-08
1.83583e-08
-3.32222e-08
1.84378e-08
-4.01952e-08
1.60899e-08
-4.41776e-08
1.16023e-08
-4.5173e-08
6.56805e-09
-4.53604e-08
3.562e-09
-4.55859e-08
2.12303e-09
-4.55988e-08
1.114e-09
-4.52718e-08
3.9961e-10
-4.47649e-08
1.78633e-10
-4.42156e-08
3.30397e-10
-4.37821e-08
6.03079e-10
-4.34337e-08
6.47799e-10
-4.31482e-08
5.63933e-10
-4.29741e-08
3.86777e-10
-6.47117e-11
-2.94262e-08
-4.31072e-10
-3.54441e-08
9.40782e-09
-5.05878e-08
-1.50098e-08
-6.16645e-08
4.55119e-09
-6.1956e-08
-6.538e-09
-9.90904e-08
3.03664e-09
-9.4064e-08
2.66502e-09
-1.14544e-07
8.26335e-09
-1.21232e-07
-9.94196e-09
-1.83251e-07
2.56789e-08
8.68171e-08
2.02472e-08
-2.76997e-07
-5.39824e-08
9.49772e-08
3.98905e-08
-1.30525e-07
-5.73972e-08
-8.41689e-08
-2.1363e-08
-7.02501e-08
9.46819e-09
-5.31023e-08
1.73075e-09
-2.21724e-08
-1.76836e-09
-4.71248e-08
-2.67293e-08
-2.94668e-08
-8.6804e-09
-3.16188e-08
-1.68384e-08
-3.92744e-08
-1.75546e-08
-3.54323e-08
-3.11648e-08
-7.50272e-08
1.67266e-09
-5.24463e-08
-8.41068e-09
-5.24673e-08
-3.12617e-10
-5.52856e-08
7.6106e-09
-6.37288e-08
1.33545e-08
-5.80261e-08
1.26055e-08
-6.93468e-08
3.31234e-08
-6.83595e-08
3.58925e-08
-7.40458e-08
3.31561e-08
-7.09683e-08
2.6677e-08
-6.16896e-08
1.70018e-08
-5.31917e-08
1.83928e-08
-4.61034e-08
1.66758e-08
-4.2617e-08
1.98664e-08
-4.10575e-08
2.13768e-08
-4.08449e-08
2.41242e-08
-4.04687e-08
1.86751e-08
-3.5887e-08
8.37763e-09
-3.16934e-08
3.47107e-09
-2.97396e-08
2.0368e-09
-3.0018e-08
8.91735e-10
-3.1571e-08
-1.98956e-10
-3.35995e-08
-1.24195e-09
-3.56554e-08
-3.00199e-09
-3.69796e-08
-5.18825e-09
-3.83464e-08
-8.45563e-09
-4.02363e-08
-1.25503e-08
-4.29275e-08
-1.60802e-08
-4.58754e-08
-1.90877e-08
-4.79637e-08
-2.31667e-08
-4.88174e-08
-2.52435e-08
-4.88235e-08
-2.42399e-08
-4.80935e-08
-1.89541e-08
-4.65451e-08
-9.53063e-09
-4.54897e-08
3.58509e-09
-4.60518e-08
1.50478e-08
-4.72054e-08
1.9512e-08
-4.87801e-08
2.00125e-08
-4.93903e-08
1.67001e-08
-4.81679e-08
1.038e-08
-4.65468e-08
4.94699e-09
-4.5638e-08
2.65328e-09
-4.52052e-08
1.69045e-09
-4.49769e-08
8.85868e-10
-4.4675e-08
9.77973e-11
-4.43335e-08
-1.62679e-10
-4.39459e-08
-5.70006e-11
-4.36268e-08
2.84326e-10
-4.33752e-08
3.96785e-10
-4.31691e-08
3.58918e-10
-4.30455e-08
2.64086e-10
-3.38793e-11
-5.7092e-08
-1.18845e-08
-4.79338e-08
-2.35063e-10
-6.5707e-08
2.11422e-09
-6.48626e-08
4.33267e-09
-7.70313e-08
4.84464e-09
-1.03835e-07
2.98091e-08
-8.77242e-08
-1.22616e-08
-8.80974e-08
8.55214e-09
-1.06194e-07
8.15425e-09
-9.64782e-08
1.48688e-08
-5.78865e-08
-1.85357e-08
-1.16942e-07
5.72148e-09
-5.51636e-08
-2.21131e-08
-8.22095e-08
-3.06245e-08
-9.24523e-08
-1.0282e-08
-5.14155e-08
-3.1253e-08
-5.10448e-08
8.35432e-10
-5.55401e-08
2.7269e-09
-6.63281e-08
-1.59413e-08
1.58592e-09
-7.65945e-08
-5.44733e-08
3.92207e-08
-5.37244e-08
-1.84826e-08
5.79941e-10
-8.63561e-08
-3.74278e-08
3.96635e-08
-6.54728e-08
1.93642e-08
-7.13623e-08
4.89887e-09
-7.31768e-08
9.42504e-09
-7.95321e-08
1.9645e-08
-9.95628e-08
3.23032e-08
-1.06556e-07
4.14586e-08
-1.01489e-07
3.15322e-08
-9.24246e-08
2.37598e-08
-8.51712e-08
1.91568e-08
-8.12962e-08
1.31267e-08
-7.5565e-08
1.26616e-08
-6.96487e-08
1.07595e-08
-6.0405e-08
1.06227e-08
-5.10025e-08
1.19742e-08
-4.09008e-08
1.40225e-08
-3.17093e-08
9.48359e-09
-2.42793e-08
9.47556e-10
-1.89485e-08
-1.85971e-09
-1.58756e-08
-1.03612e-09
-1.53235e-08
3.39556e-10
-1.67967e-08
1.27425e-09
-1.98143e-08
1.77556e-09
-2.40176e-08
1.20133e-09
-2.8749e-08
-4.56931e-10
-3.40901e-08
-3.1145e-09
-4.00108e-08
-6.62965e-09
-4.6093e-08
-9.99808e-09
-5.10238e-08
-1.41569e-08
-5.47119e-08
-1.94786e-08
-5.79443e-08
-2.20111e-08
-6.2032e-08
-2.01522e-08
-6.60368e-08
-1.49493e-08
-6.79013e-08
-7.66611e-09
-6.67118e-08
2.39555e-09
-6.39655e-08
1.23015e-08
-6.11609e-08
1.67073e-08
-5.76831e-08
1.65347e-08
-5.36457e-08
1.26627e-08
-5.00174e-08
6.75177e-09
-4.76193e-08
2.54892e-09
-4.61018e-08
1.13589e-09
-4.5168e-08
7.56748e-10
-4.46105e-08
3.28582e-10
-4.42946e-08
-2.17918e-10
-4.40544e-08
-4.02714e-10
-4.37971e-08
-3.14157e-10
-4.35484e-08
3.60221e-11
-4.33609e-08
2.09908e-10
-4.32056e-08
2.04647e-10
-4.3108e-08
1.67363e-10
-1.24966e-11
-2.43557e-08
3.96983e-09
-2.74719e-08
2.62969e-09
-1.7159e-08
-8.04567e-09
-1.81233e-08
5.2438e-09
-1.72034e-08
3.70199e-09
-9.68432e-09
2.20846e-08
-2.47609e-08
2.81496e-09
-2.64044e-08
9.94293e-09
-4.00651e-08
2.14061e-08
-4.56587e-08
1.99917e-08
-8.73626e-08
2.31682e-08
-7.78247e-08
-3.71822e-09
-1.03537e-07
5.52517e-09
-1.04858e-07
-2.9616e-08
-2.02132e-07
-3.32964e-08
-3.9293e-08
-7.4275e-08
-8.9327e-08
5.04686e-08
-8.72202e-08
6.20015e-10
-1.06576e-07
3.41457e-09
1.19205e-07
5.77854e-08
-1.41382e-07
-6.03529e-08
-1.51375e-07
-1.00341e-08
9.38581e-08
3.19543e-08
-8.86572e-08
-1.40877e-07
-1.20485e-07
4.99506e-08
-1.38414e-07
2.45759e-08
-1.17632e-07
-1.01449e-08
-1.06436e-07
9.53526e-09
-9.29738e-08
1.9259e-08
-7.80815e-08
2.61518e-08
-6.40709e-08
1.75216e-08
-5.90159e-08
1.87048e-08
-5.5774e-08
1.59149e-08
-5.39031e-08
1.12559e-08
-5.2555e-08
1.13135e-08
-5.10774e-08
9.2819e-09
-4.79258e-08
7.47114e-09
-4.27164e-08
6.76469e-09
-3.48149e-08
6.121e-09
-2.80199e-08
2.68862e-09
-2.46626e-08
-2.40975e-09
-2.26591e-08
-3.86331e-09
-2.07444e-08
-2.95084e-09
-2.05323e-08
1.27491e-10
-2.16708e-08
2.4127e-09
-2.39558e-08
4.06055e-09
-2.74876e-08
4.73311e-09
-3.22422e-08
4.29758e-09
-3.80286e-08
2.67192e-09
-4.41356e-08
-5.22656e-10
-4.94615e-08
-4.67223e-09
-5.34936e-08
-1.01248e-08
-5.73757e-08
-1.55965e-08