/*--------------------------------*- C++ -*----------------------------------*\
  =========                 |
  \\      /  F ield         | OpenFOAM: The Open Source CFD Toolbox
   \\    /   O peration     | Website:  https://openfoam.org
    \\  /    A nd           | Version:  12
     \\/     M anipulation  |
\*---------------------------------------------------------------------------*/
FoamFile
{
    format      ascii;
    class       volVectorField;
    location    "0.95";
    object      U.water;
}
// * * * * * * * * * * * * * * * * * * * * * * * * * * * * * * * * * * * * * //

dimensions      [0 1 -1 0 0 0 0];

internalField   nonuniform List<vector> 
3750
(
(0.000964574 0.0123317 0)
(0.000204754 0.0105973 0)
(0.00038033 0.0100479 0)
(-0.000112947 0.00563598 0)
(-0.000711977 0.00604738 0)
(-0.00264243 0.00616164 0)
(-0.00155222 0.00689491 0)
(-0.000936024 0.00958369 0)
(-6.09284e-05 0.00869937 0)
(0.00111045 0.0093862 0)
(0.00132223 0.00957043 0)
(-0.000676232 0.010106 0)
(-2.75313e-05 0.00584976 0)
(0.00194986 0.00496504 0)
(-0.000224756 0.00612724 0)
(0.000656668 0.00666997 0)
(-0.00309562 0.0137971 0)
(0.00266343 0.0129598 0)
(0.00084614 0.0102626 0)
(0.00069058 0.00961019 0)
(-0.000246553 0.00919552 0)
(0.000621643 0.0106228 0)
(0.00092234 0.0100316 0)
(-0.00142948 0.0113289 0)
(0.000156819 0.0106444 0)
(-0.000339467 0.00910679 0)
(-0.00132039 0.00912002 0)
(0.000185026 0.00858818 0)
(-0.00017366 0.00781097 0)
(-9.32477e-06 0.00737983 0)
(-7.57545e-05 0.00882576 0)
(-0.00053066 0.00445101 0)
(0.000659046 0.00376976 0)
(0.000308409 0.00425324 0)
(0.0016051 0.000467195 0)
(0.000489853 -0.000532579 0)
(0.00129742 -0.00418994 0)
(0.000275223 -0.00583961 0)
(0.000406661 -0.00780548 0)
(-0.000427168 -0.00897488 0)
(0.000660726 -0.00868577 0)
(-0.000637736 -0.00842984 0)
(5.90527e-05 -0.00930896 0)
(-0.000510249 -0.00728241 0)
(-0.000795994 -0.00696583 0)
(-0.000894054 -0.00568147 0)
(-0.000696944 -0.0049007 0)
(-0.000595058 -0.00413515 0)
(-0.000577278 -0.00334168 0)
(-0.000524312 -0.00281941 0)
(-0.000513099 -0.00206664 0)
(-0.000420883 -0.0016802 0)
(-0.000449096 -0.00118202 0)
(-0.000418873 -0.000872286 0)
(-0.000390776 -0.000437812 0)
(-0.00033293 1.30557e-06 0)
(-0.000238655 0.000440966 0)
(-0.00017573 0.000835408 0)
(-0.000128079 0.00117307 0)
(-0.000145535 0.00148736 0)
(-0.000181548 0.00189784 0)
(-0.0002138 0.00244165 0)
(-0.000235187 0.00316957 0)
(-0.000233151 0.00400041 0)
(-0.000167008 0.00487021 0)
(1.45529e-05 0.00559805 0)
(0.000384561 0.00587878 0)
(0.000619855 0.00552091 0)
(0.000735691 0.00455048 0)
(0.000589004 0.00319083 0)
(0.000379183 0.0019471 0)
(0.000293256 0.000683243 0)
(0.000566885 -0.000220619 0)
(0.000573977 -0.00172942 0)
(0.000308417 -0.00229586 0)
(0.000614863 0.0139641 0)
(0.00100134 0.0140258 0)
(0.0015001 0.0141174 0)
(-0.00130797 0.0109088 0)
(0.00219499 0.0102299 0)
(-0.000197164 0.0105716 0)
(0.00188807 0.00868068 0)
(0.000963917 0.00996158 0)
(0.00125141 0.00605665 0)
(0.00069526 0.00819477 0)
(-0.000646615 0.00935463 0)
(-0.0013547 0.0105411 0)
(-0.00256193 0.0104875 0)
(-0.000512901 0.0097114 0)
(-0.000318707 0.0093471 0)
(0.0018966 0.00745053 0)
(0.000565044 0.0173378 0)
(-0.000304285 0.0162214 0)
(-0.00141861 0.00691716 0)
(-0.00196048 0.00733526 0)
(-0.000669264 0.00838252 0)
(-0.00180825 0.0113394 0)
(0.000171664 0.00909001 0)
(0.00029555 0.0121181 0)
(0.000272966 0.0102206 0)
(0.00101428 0.00446167 0)
(0.0025113 0.00695398 0)
(-0.000863682 0.00642809 0)
(0.000345 0.00801131 0)
(0.000407982 0.00705303 0)
(0.000290257 0.00690246 0)
(0.00115106 0.00380143 0)
(0.00198281 0.00159046 0)
(0.00245701 0.000861919 0)
(0.00568494 -6.90913e-05 0)
(0.00407649 0.000635926 0)
(0.00379417 -0.00191093 0)
(0.00286552 -0.00381244 0)
(0.00189296 -0.00482387 0)
(0.000971899 -0.00424454 0)
(0.000458827 -0.00420051 0)
(-0.00100316 -0.0054054 0)
(-0.000206548 -0.00444956 0)
(-0.00103424 -0.00346148 0)
(-0.00113174 -0.00329203 0)
(-0.00116125 -0.00306856 0)
(-0.000943565 -0.003025 0)
(-0.000832451 -0.00282536 0)
(-0.000845183 -0.00265329 0)
(-0.000767101 -0.00257167 0)
(-0.000697564 -0.00249696 0)
(-0.000447196 -0.00265791 0)
(-0.000368613 -0.00296317 0)
(-0.000328784 -0.00343211 0)
(-0.000466131 -0.00367707 0)
(-0.000563964 -0.00369609 0)
(-0.000610826 -0.00357728 0)
(-0.000563625 -0.00341314 0)
(-0.000506815 -0.00322417 0)
(-0.000551639 -0.00299583 0)
(-0.000742853 -0.00253809 0)
(-0.0010482 -0.00177498 0)
(-0.00134715 -0.000738064 0)
(-0.00154178 0.00044134 0)
(-0.00151745 0.00165187 0)
(-0.00110343 0.00268864 0)
(-0.000244556 0.00327069 0)
(0.00075413 0.00318827 0)
(0.00153162 0.00225534 0)
(0.00202812 0.000947805 0)
(0.00215711 -0.000690057 0)
(0.00198073 -0.00210181 0)
(0.00172608 -0.0027197 0)
(0.00138945 -0.00352074 0)
(0.000390516 -0.00324482 0)
(-0.000160143 0.00585269 0)
(0.000843075 0.00651106 0)
(-0.000258556 0.00561016 0)
(0.000660823 0.00561536 0)
(0.00200714 0.00744974 0)
(0.000397531 0.00640999 0)
(0.00159551 0.00904254 0)
(-0.000639496 0.011545 0)
(0.00171625 0.00918269 0)
(-0.00130757 0.00758694 0)
(-0.00164807 0.00589502 0)
(-0.00284909 0.00428494 0)
(-0.00108521 0.00176506 0)
(-0.000186118 0.00264372 0)
(0.00319714 -5.7029e-05 0)
(0.0053493 -0.000683713 0)
(0.00708536 0.00232471 0)
(-0.00270085 0.00212181 0)
(-0.00216079 -0.00111361 0)
(-0.00196567 -0.000673152 0)
(-0.000491063 -0.00188092 0)
(-0.000287215 -0.00148942 0)
(-0.00251869 -0.00382249 0)
(0.00268145 -0.00495268 0)
(0.000425908 -0.0026531 0)
(0.00173647 -0.002757 0)
(0.00123009 -0.00227855 0)
(-0.000113669 -0.00211663 0)
(0.000430852 -0.00459113 0)
(0.00105356 -0.00650082 0)
(0.00215934 -0.00528872 0)
(0.00294329 -0.00717806 0)
(0.0033421 -0.00951313 0)
(0.00399401 -0.0061202 0)
(0.00421274 -0.00680461 0)
(0.00424737 -0.00602658 0)
(0.00264267 -0.00484165 0)
(0.00256723 -0.00345625 0)
(0.00160968 -0.0037722 0)
(0.00127543 -0.00338206 0)
(-0.000434225 -0.00292855 0)
(-0.00106236 -0.0034882 0)
(-0.00117479 -0.00372122 0)
(-0.00141221 -0.00350484 0)
(-0.0013115 -0.00365962 0)
(-0.00110957 -0.0037696 0)
(-0.000952534 -0.00382868 0)
(-0.000882729 -0.0037998 0)
(-0.000856343 -0.00375336 0)
(-0.00067487 -0.00376469 0)
(-0.000358171 -0.00398053 0)
(0.000112729 -0.00439747 0)
(0.00031965 -0.00498107 0)
(0.000245776 -0.00562856 0)
(-0.000164106 -0.00614725 0)
(-0.000434095 -0.0064429 0)
(-0.000493022 -0.00664596 0)
(-0.000478531 -0.00675799 0)
(-0.00054078 -0.00677974 0)
(-0.000874713 -0.00657632 0)
(-0.00147041 -0.00598274 0)
(-0.00208137 -0.00516022 0)
(-0.00248774 -0.0043809 0)
(-0.00263717 -0.00373504 0)
(-0.00241686 -0.00322289 0)
(-0.00160459 -0.0029996 0)
(-9.77748e-05 -0.00301792 0)
(0.00174855 -0.0032323 0)
(0.0028955 -0.00371627 0)
(0.00330255 -0.00403222 0)
(0.00316814 -0.00428702 0)
(0.002279 -0.00414744 0)
(0.00170431 -0.00381998 0)
(0.00115579 -0.00414101 0)
(0.000285652 -0.00350679 0)
(0.000754206 0.00506827 0)
(-0.000499519 0.00349817 0)
(-0.00151761 0.00252878 0)
(0.000266518 0.000775195 0)
(0.000307471 -0.000862254 0)
(-0.000286603 -0.000379756 0)
(-0.00169963 -0.000546535 0)
(-0.00356155 0.00325456 0)
(0.00770975 0.00147086 0)
(0.000615505 -0.00290033 0)
(0.00392089 -0.00549614 0)
(0.00103006 -0.00848003 0)
(0.00131177 -0.00840469 0)
(0.00290318 -0.00813191 0)
(0.00270738 -0.0072952 0)
(0.00184764 -0.00671104 0)
(0.00125155 -0.00647721 0)
(-0.000804249 -0.00496241 0)
(-0.000559401 -0.00462789 0)
(-0.000626946 -0.00564347 0)
(-0.00131293 -0.00439583 0)
(0.00331495 -0.00539865 0)
(0.000901711 -0.00546298 0)
(0.000378046 -0.00293364 0)
(-0.00118185 -0.00509847 0)
(0.0021577 -0.00430416 0)
(0.00126115 -0.00492159 0)
(0.00233637 -0.00488353 0)
(0.00188302 -0.00458012 0)
(0.00239875 -0.00634523 0)
(0.00400959 -0.00640579 0)
(0.00292154 -0.00676496 0)
(0.00436455 -0.00621268 0)
(0.00298102 -0.00404633 0)
(0.0020226 -0.00468052 0)
(0.00187934 -0.00407229 0)
(0.00220197 -0.00308485 0)
(0.00185667 -0.002522 0)
(0.00148862 -0.00292027 0)
(0.0011541 -0.00243729 0)
(0.000410753 -0.00230203 0)
(-0.000284551 -0.00271569 0)
(-0.000557199 -0.00308097 0)
(-0.000930867 -0.00319268 0)
(-0.00104662 -0.0033299 0)
(-0.000997383 -0.00341042 0)
(-0.000926875 -0.00344085 0)
(-0.000880911 -0.00347901 0)
(-0.000803422 -0.0035993 0)
(-0.000542017 -0.00379526 0)
(-6.45217e-05 -0.00410669 0)
(0.000566337 -0.00452289 0)
(0.000906657 -0.00508301 0)
(0.000828665 -0.00577003 0)
(0.00038381 -0.00649498 0)
(-9.54109e-05 -0.00716822 0)
(-0.000311637 -0.00761943 0)
(-0.000372841 -0.00784534 0)
(-0.000620892 -0.00787035 0)
(-0.00129836 -0.0075418 0)
(-0.00215327 -0.00688051 0)
(-0.00269094 -0.00629077 0)
(-0.00282879 -0.00593599 0)
(-0.00274774 -0.00575101 0)
(-0.00221794 -0.00587885 0)
(-0.00120672 -0.00640455 0)
(0.000184076 -0.00684249 0)
(0.00169188 -0.00675619 0)
(0.00252954 -0.00648409 0)
(0.00281204 -0.00599296 0)
(0.00247614 -0.00530433 0)
(0.00176568 -0.00461089 0)
(0.00144472 -0.00417605 0)
(0.000881055 -0.0043525 0)
(0.000100944 -0.00374283 0)
(0.00157039 0.00427381 0)
(0.000834237 0.0037221 0)
(0.00239807 0.00385665 0)
(0.00260505 0.00102227 0)
(0.00386557 -0.000986201 0)
(0.00247403 -0.00554308 0)
(0.000887118 -0.00739665 0)
(-0.000321363 0.00431834 0)
(0.00189953 -0.00219506 0)
(0.00155277 -0.0112759 0)
(0.0019508 -0.00609747 0)
(0.00269254 -0.010502 0)
(-0.000976651 -0.00666936 0)
(0.00171333 -0.00414348 0)
(-0.000454181 -0.00446547 0)
(8.26415e-05 -0.00566039 0)
(0.000653297 -0.00364877 0)
(0.0002557 -0.00398668 0)
(-0.000680454 -0.00652452 0)
(-0.000627118 -0.00808804 0)
(-0.00050664 -0.00503647 0)
(-0.000127661 -0.00374685 0)
(0.00060159 -0.00769177 0)
(0.000205092 -0.00751429 0)
(0.00220518 -0.00446242 0)
(0.00116038 -0.0028457 0)
(-0.000560544 -0.00314599 0)
(0.00199797 -0.000251291 0)
(0.00193623 -0.000957268 0)
(0.00329618 -0.00245038 0)
(0.000392675 -0.00216404 0)
(0.00303759 -0.00544638 0)
(0.00259453 -0.004612 0)
(0.00222536 -0.00388546 0)
(0.00251951 -0.00331409 0)
(0.00241307 -0.00306994 0)
(0.00235618 -0.00286538 0)
(0.00157297 -0.00221803 0)
(0.00125401 -0.00197002 0)
(0.000800347 -0.00157178 0)
(2.80932e-05 -0.0013001 0)
(-0.000392196 -0.00118249 0)
(-0.000713799 -0.00131434 0)
(-0.000911235 -0.00141756 0)
(-0.00100558 -0.00165447 0)
(-0.000977378 -0.00181926 0)
(-0.00088636 -0.00197985 0)
(-0.000745437 -0.00214174 0)
(-0.000556609 -0.00242902 0)
(-0.000178013 -0.00281201 0)
(0.000389976 -0.00328929 0)
(0.00106508 -0.00380551 0)
(0.00154603 -0.00431415 0)
(0.00159028 -0.0049511 0)
(0.00119954 -0.0057225 0)
(0.000635221 -0.00654355 0)
(0.000181333 -0.0072208 0)
(-0.000232383 -0.00761795 0)
(-0.000846322 -0.00764431 0)
(-0.00188524 -0.00722555 0)
(-0.00273599 -0.00674087 0)
(-0.00298847 -0.00645815 0)
(-0.00300943 -0.00630417 0)
(-0.00266724 -0.00627054 0)
(-0.00179588 -0.0066792 0)
(-0.000693749 -0.00726403 0)
(0.00039341 -0.0075532 0)
(0.00136253 -0.00727462 0)
(0.00193449 -0.00672894 0)
(0.00198592 -0.00603622 0)
(0.00165021 -0.00526109 0)
(0.00127558 -0.00464414 0)
(0.00109631 -0.00425781 0)
(0.000641832 -0.0044033 0)
(1.04609e-05 -0.00393248 0)
(0.000656616 -0.000326823 0)
(0.000120723 -0.000493785 0)
(0.00085906 8.2584e-05 0)
(0.00628664 -0.000896014 0)
(0.00630643 -0.00164473 0)
(0.00715248 -0.00211435 0)
(0.00617144 -0.00547038 0)
(0.00475726 0.00110569 0)
(0.00158983 -0.00109175 0)
(0.00373273 -0.00605549 0)
(-0.00144023 -0.00542298 0)
(0.0013593 -0.00685862 0)
(-0.000862945 -0.00260592 0)
(0.00023898 -0.00321325 0)
(-0.000482905 -0.00456746 0)
(0.00172167 -0.00266534 0)
(-0.000115899 -0.00447868 0)
(0.000839208 -0.00443003 0)
(-4.51032e-05 -0.00525192 0)
(0.000376539 -0.00653171 0)
(0.0023756 -0.00557841 0)
(-0.00207705 -0.00607535 0)
(-0.00407855 -0.00608929 0)
(0.00371305 -0.00333117 0)
(0.0022399 -0.0049512 0)
(-0.00129607 -0.0088457 0)
(0.000567026 -0.00753077 0)
(0.000115749 -0.00596983 0)
(0.00361467 -0.00481962 0)
(0.0030186 -0.00613764 0)
(0.00306594 -0.00312375 0)
(0.00230082 -0.00234422 0)
(0.00300172 -0.00451124 0)
(0.00228436 -0.00157619 0)
(0.00212655 -0.00174775 0)
(0.00150636 -0.0017615 0)
(0.00141404 -0.00151672 0)
(0.00112525 -0.00105364 0)
(0.000868303 -0.00104214 0)
(0.000438533 -0.000728477 0)
(-4.81501e-05 -0.000697065 0)
(-0.000317409 -0.000749942 0)
(-0.000483904 -0.000910832 0)
(-0.000646851 -0.00104274 0)
(-0.000729321 -0.00124236 0)
(-0.000716637 -0.00144608 0)
(-0.000631871 -0.00163735 0)
(-0.000449782 -0.00181599 0)
(-0.000161173 -0.00208853 0)
(0.000308046 -0.00242618 0)
(0.000892913 -0.00281714 0)
(0.001521 -0.00318203 0)
(0.00204332 -0.00345578 0)
(0.00221224 -0.00375403 0)
(0.00197629 -0.00416641 0)
(0.00140805 -0.00475807 0)
(0.00074963 -0.00534536 0)
(2.27013e-05 -0.00577834 0)
(-0.000947096 -0.00601452 0)
(-0.00220073 -0.00595059 0)
(-0.00294302 -0.00585253 0)
(-0.00312773 -0.00582019 0)
(-0.00304159 -0.00582025 0)
(-0.00237175 -0.0060501 0)
(-0.00131352 -0.00649388 0)
(-0.000385554 -0.00685978 0)
(0.000314555 -0.00693714 0)
(0.000917185 -0.00665874 0)
(0.00125594 -0.00608982 0)
(0.00127103 -0.0055109 0)
(0.00111152 -0.00502115 0)
(0.000905573 -0.0045718 0)
(0.000787706 -0.00425329 0)
(0.000476089 -0.00444119 0)
(-1.98839e-05 -0.00405337 0)
(0.00123583 -0.0197419 0)
(-0.000446433 -0.0193107 0)
(-0.00139742 -0.0146324 0)
(0.00738803 -0.0144447 0)
(0.0055712 -0.0161298 0)
(0.00508686 -0.0141887 0)
(0.00611991 -0.0141921 0)
(0.00577261 -0.000658834 0)
(0.0012195 -0.000628913 0)
(0.00129844 -0.0103673 0)
(-0.00087252 -0.00492593 0)
(0.000861702 -0.0064279 0)
(0.000828086 -0.00636159 0)
(-0.000998411 -0.00365155 0)
(9.18675e-05 -0.00510388 0)
(0.000875606 -0.00611973 0)
(-0.00124167 -0.0043952 0)
(0.00104012 -0.00209551 0)
(-0.0010043 -0.00501611 0)
(0.001407 -0.00274928 0)
(0.00225481 -0.00363795 0)
(0.00115947 -0.00694482 0)
(0.000591535 0.00029554 0)
(0.00209425 -0.000693817 0)
(-0.00123911 -0.0132037 0)
(-0.000561621 -0.0122294 0)
(-0.000195358 -0.012474 0)
(0.000883895 -0.01122 0)
(0.000367211 -0.00896196 0)
(0.000654248 -0.0102647 0)
(0.00200798 -0.00667544 0)
(0.000328308 -0.0065634 0)
(0.0020188 -0.00574666 0)
(0.00196791 -0.00445445 0)
(0.00159832 -0.00397134 0)
(0.00163722 -0.00375594 0)
(0.00149424 -0.00323265 0)
(0.00119211 -0.00294419 0)
(0.00100792 -0.00283266 0)
(0.000573577 -0.00272961 0)
(0.000127664 -0.00279804 0)
(-0.00012258 -0.0029091 0)
(-0.000338597 -0.0029854 0)
(-0.000508761 -0.00306463 0)
(-0.000540088 -0.00317729 0)
(-0.000549724 -0.00332334 0)
(-0.00048119 -0.0033894 0)
(-0.000302496 -0.00340558 0)
(4.52228e-05 -0.00342203 0)
(0.000562634 -0.00340046 0)
(0.00115703 -0.00340205 0)
(0.0017403 -0.00341564 0)
(0.00215254 -0.00336051 0)
(0.0022704 -0.0032749 0)
(0.00219641 -0.00318976 0)
(0.00181203 -0.00325926 0)
(0.00121468 -0.00347766 0)
(0.000450732 -0.00377957 0)
(-0.000585936 -0.00415915 0)
(-0.00192683 -0.00458737 0)
(-0.00280249 -0.00495399 0)
(-0.00300466 -0.0051511 0)
(-0.00281824 -0.00537905 0)
(-0.00204971 -0.00564709 0)
(-0.00103254 -0.00592779 0)
(-0.000266868 -0.00610928 0)
(0.000193724 -0.00606 0)
(0.000535651 -0.00581549 0)
(0.000789695 -0.00546701 0)
(0.000856246 -0.00512397 0)
(0.000773143 -0.00482091 0)
(0.000651383 -0.00449426 0)
(0.0005639 -0.0042512 0)
(0.00035068 -0.00449408 0)
(-2.34789e-05 -0.00413019 0)
(0.000195266 -0.0233094 0)
(0.00342996 -0.025414 0)
(0.000518266 -0.012249 0)
(0.00221362 -0.0144208 0)
(0.00161738 -0.0212856 0)
(0.00277039 -0.0138052 0)
(0.0027611 -0.0101161 0)
(0.00429713 -0.00543899 0)
(-0.00423323 -0.00537198 0)
(-0.00167095 -0.00754917 0)
(-0.00109482 -0.0042777 0)
(-0.000251144 -0.00530865 0)
(0.00157107 -0.0067397 0)
(-0.000152879 -0.00574992 0)
(-0.00132472 -0.00578625 0)
(-0.000503752 -0.00502751 0)
(0.00102679 -0.0040319 0)
(0.000239531 -0.00313496 0)
(-4.44074e-05 -0.00332889 0)
(-0.000964273 -0.000798651 0)
(0.00630899 -0.00174023 0)
(0.00556609 -0.00421991 0)
(0.00626218 -0.00180645 0)
(-0.00118212 -0.00158428 0)
(-0.000503056 -0.00487237 0)
(0.00148319 -0.00594586 0)
(-0.000129582 -0.00802885 0)
(0.000897077 -0.00785102 0)
(-0.000153009 -0.00783061 0)
(0.000723276 -0.00905552 0)
(-0.00163666 -0.00847453 0)
(0.00269261 -0.00789173 0)
(0.000743207 -0.00859262 0)
(0.00155325 -0.00724915 0)
(0.00132272 -0.00672635 0)
(0.00102252 -0.00622482 0)
(0.000726992 -0.0061316 0)
(0.000709578 -0.00583227 0)
(0.000600371 -0.00570196 0)
(0.000354132 -0.00544573 0)
(8.05946e-05 -0.00540992 0)
(-0.000237755 -0.00537844 0)
(-0.000395759 -0.00538932 0)
(-0.000497237 -0.0053841 0)
(-0.000519505 -0.0054171 0)
(-0.000534912 -0.00546802 0)
(-0.00053369 -0.0054899 0)
(-0.000424684 -0.005518 0)
(-0.000137823 -0.00551485 0)
(0.000319715 -0.00535876 0)
(0.000868093 -0.00500702 0)
(0.00144834 -0.00447125 0)
(0.00188748 -0.0038628 0)
(0.00206147 -0.00334936 0)
(0.00200107 -0.00288671 0)
(0.00173368 -0.0025734 0)
(0.00129581 -0.00242962 0)
(0.000707421 -0.00253651 0)
(-0.000142437 -0.00289709 0)
(-0.00131465 -0.00351449 0)
(-0.002371 -0.00425704 0)
(-0.00271962 -0.00470098 0)
(-0.00258607 -0.00500816 0)
(-0.00184531 -0.00523697 0)
(-0.000867991 -0.00541545 0)
(-0.000254451 -0.0054982 0)
(6.61104e-05 -0.00543112 0)
(0.000335994 -0.00527828 0)
(0.000548942 -0.00508706 0)
(0.000606627 -0.0048846 0)
(0.000546601 -0.00468166 0)
(0.000468087 -0.00443517 0)
(0.000405152 -0.00424236 0)
(0.000253876 -0.00454392 0)
(-2.4537e-05 -0.00418184 0)
(0.000408832 -0.0182233 0)
(0.0037871 -0.0151319 0)
(0.00479493 -0.0115326 0)
(-0.00375004 -0.00911041 0)
(-0.000299119 -0.0115743 0)
(0.00242551 -0.00988474 0)
(0.00162637 -0.00958801 0)
(0.00206741 -0.00699792 0)
(-0.00237785 -0.0067801 0)
(-7.66045e-05 -0.00781671 0)
(9.40441e-06 -0.00635475 0)
(-0.00143803 -0.0071451 0)
(-0.000265116 -0.00776456 0)
(0.000831666 -0.00735008 0)
(-0.000585793 -0.00676852 0)
(0.000119359 -0.00497175 0)
(-0.000144811 -0.00375341 0)
(-0.000144296 -0.00458558 0)
(-0.000934851 -0.00617522 0)
(0.0012944 0.00392792 0)
(0.00152904 0.00424674 0)
(0.00224803 -0.00402209 0)
(0.00219295 -0.000645583 0)
(-0.000670695 0.000763339 0)
(0.00150306 -0.000193428 0)
(0.000358888 0.000258635 0)
(0.0019064 -0.00160337 0)
(0.000552457 -0.00064649 0)
(0.000421629 0.000673724 0)
(0.0033808 -0.00584637 0)
(0.000826746 -0.00528594 0)
(-0.00029612 -0.00548463 0)
(0.000102356 -0.00828344 0)
(0.000679416 -0.00471354 0)
(0.00050925 -0.00475045 0)
(0.000953886 -0.00436516 0)
(0.000964221 -0.00429235 0)
(0.000876145 -0.00412874 0)
(0.000662052 -0.00411316 0)
(0.000367586 -0.00394844 0)
(9.3587e-05 -0.00403093 0)
(-0.000108016 -0.0041893 0)
(-0.0002947 -0.00435538 0)
(-0.000425459 -0.00455216 0)
(-0.000421644 -0.00479222 0)
(-0.000438165 -0.00500105 0)
(-0.000419787 -0.00526302 0)
(-0.000308418 -0.00557031 0)
(-0.000103373 -0.00586 0)
(9.71609e-05 -0.00594255 0)
(0.00035134 -0.00577333 0)
(0.000703536 -0.00528678 0)
(0.00104357 -0.00454376 0)
(0.00130155 -0.00367119 0)
(0.00141788 -0.00281725 0)
(0.00132815 -0.00211527 0)
(0.00117006 -0.00166899 0)
(0.000899891 -0.00156909 0)
(0.000374583 -0.00180955 0)
(-0.000550513 -0.00238433 0)
(-0.00168319 -0.00323431 0)
(-0.00231761 -0.00389575 0)
(-0.00233257 -0.00431453 0)
(-0.00167755 -0.00469176 0)
(-0.000751507 -0.00496019 0)
(-0.00025348 -0.00505594 0)
(-5.30423e-06 -0.0050623 0)
(0.000207395 -0.0049959 0)
(0.000389773 -0.00486987 0)
(0.000438462 -0.00473051 0)
(0.000386907 -0.00458752 0)
(0.000335488 -0.00439497 0)
(0.000289721 -0.00423507 0)
(0.000183561 -0.00457991 0)
(-2.25498e-05 -0.00421882 0)
(-0.000150247 -0.0114771 0)
(-0.00191576 -0.00899578 0)
(-0.000909949 -0.00646343 0)
(-0.00241111 -0.00854698 0)
(-0.00296714 -0.00652467 0)
(-0.000533342 -0.00717327 0)
(-4.41288e-05 -0.00759575 0)
(-0.000284647 -0.00539152 0)
(-0.000630969 -0.0055163 0)
(-0.000976893 -0.0046839 0)
(-0.000351813 -0.00746646 0)
(-0.0013522 -0.00658593 0)
(-8.64008e-05 -0.00611303 0)
(-0.00170496 -0.0067676 0)
(0.00010892 -0.00673941 0)
(-0.001089 -0.00586069 0)
(-0.00130329 -0.00602964 0)
(0.0018555 -0.00548573 0)
(0.00093106 -0.00351378 0)
(0.00474879 0.000429309 0)
(-0.00318139 -0.0018571 0)
(-0.00043762 -0.00299385 0)
(8.32081e-05 -0.00413656 0)
(0.000640285 -0.00224545 0)
(0.000632934 -0.00189384 0)
(0.000699623 -0.00072319 0)
(7.32355e-05 0.000419699 0)
(0.00156952 0.00106436 0)
(-0.00105882 0.00474531 0)
(-0.0046266 0.0013231 0)
(0.000603891 -0.00385728 0)
(-0.00185173 -0.00238089 0)
(-3.96881e-05 -0.00278504 0)
(0.000243968 -0.00311162 0)
(0.000352562 -0.00381744 0)
(0.000425632 -0.00342797 0)
(0.000591969 -0.00412017 0)
(0.000464341 -0.00413883 0)
(0.000351169 -0.0044093 0)
(0.000294835 -0.00435587 0)
(0.000208325 -0.00447783 0)
(4.73731e-05 -0.00461192 0)
(-2.44524e-05 -0.00478578 0)
(-0.000106259 -0.0049781 0)
(-0.000112337 -0.00514889 0)
(-7.64091e-05 -0.00529321 0)
(2.89709e-05 -0.00550074 0)
(0.000152063 -0.00577122 0)
(0.000210346 -0.00589529 0)
(0.000206743 -0.00590368 0)
(0.000180854 -0.00570634 0)
(0.000175716 -0.00519549 0)
(0.000222754 -0.00439543 0)
(0.00029992 -0.00339544 0)
(0.000419432 -0.00234681 0)
(0.00056457 -0.00141372 0)
(0.000767824 -0.000711931 0)
(0.000858279 -0.000442823 0)
(0.000692966 -0.000470288 0)
(0.000116577 -0.000819927 0)
(-0.000779101 -0.00150341 0)
(-0.00155508 -0.00237517 0)
(-0.00178371 -0.00326379 0)
(-0.00123792 -0.00407042 0)
(-0.000494944 -0.00456019 0)
(-0.000139737 -0.00472453 0)
(2.27312e-05 -0.00481173 0)
(0.000151806 -0.00481073 0)
(0.000278334 -0.00473128 0)
(0.000318611 -0.00462098 0)
(0.000274331 -0.0045148 0)
(0.000238161 -0.00436602 0)
(0.000206471 -0.00422795 0)
(0.000131566 -0.00460528 0)
(-1.94005e-05 -0.00424486 0)
(-0.0025362 -0.0132355 0)
(-0.000506673 -0.0124265 0)
(-0.000671756 -0.00952389 0)
(-0.000865036 -0.00925708 0)
(-0.000457943 -0.00910122 0)
(-0.00212578 -0.00507655 0)
(0.000159495 -0.00800024 0)
(-0.00129983 -0.00498276 0)
(0.000746872 -0.00291424 0)
(-0.00187995 -0.00225693 0)
(0.00068287 -0.00013813 0)
(0.000149457 -0.000444378 0)
(0.000672648 -0.00069276 0)
(-0.000760336 -0.00291356 0)
(-0.000680394 -0.00461201 0)
(-0.00102649 -0.00785519 0)
(-0.000872015 -0.00481666 0)
(-0.0016223 -0.00579302 0)
(0.0012993 -0.00683413 0)
(0.00106473 -0.00294381 0)
(-0.00044707 -0.00360752 0)
(0.000419517 -0.00398338 0)
(-4.345e-06 -0.0037291 0)
(-2.55498e-05 -0.0020581 0)
(-0.000629861 -0.00308154 0)
(-0.000590373 -0.00176909 0)
(-0.000148793 -0.00163429 0)
(-0.00011564 -0.00126391 0)
(-0.000477204 -0.00429324 0)
(-0.00490213 -0.000514851 0)
(0.00035615 0.00452172 0)
(0.000740246 0.00107204 0)
(0.00101409 -0.00085728 0)
(0.00155898 -0.00242897 0)
(0.00155912 -0.0033012 0)
(0.00173008 -0.00391615 0)
(0.00159366 -0.00463515 0)
(0.00117097 -0.00503694 0)
(0.000871959 -0.00522183 0)
(0.000497621 -0.00504702 0)
(0.000377916 -0.00518853 0)
(0.000277121 -0.00541002 0)
(7.62153e-05 -0.00570465 0)
(-5.19376e-05 -0.00598466 0)
(-8.46392e-05 -0.00614126 0)
(-6.94145e-05 -0.00624547 0)
(3.67975e-05 -0.00633046 0)
(7.77327e-05 -0.00633924 0)
(6.3866e-05 -0.00624936 0)
(-7.46065e-05 -0.00600255 0)
(-0.000309455 -0.00553066 0)
(-0.000574454 -0.00479173 0)
(-0.000750898 -0.00384702 0)
(-0.000771742 -0.00279261 0)
(-0.000615133 -0.00175411 0)
(-0.000306782 -0.000862818 0)
(0.000190413 -0.000179899 0)
(0.000647314 0.000109863 0)
(0.000771185 7.50981e-05 0)
(0.000518394 -0.000211762 0)
(-5.19771e-05 -0.000776447 0)
(-0.000575954 -0.00165327 0)
(-0.000693843 -0.00276758 0)
(-0.000416456 -0.00389832 0)
(-0.000113357 -0.00444038 0)
(2.64496e-05 -0.00463568 0)
(7.36936e-05 -0.00471082 0)
(0.000122899 -0.00471701 0)
(0.000184551 -0.00465339 0)
(0.000210092 -0.00455342 0)
(0.000191445 -0.00446246 0)
(0.000169424 -0.00434598 0)
(0.000145989 -0.0042227 0)
(9.37286e-05 -0.00462374 0)
(-1.55773e-05 -0.00426325 0)
(-0.00171121 -0.011407 0)
(-0.00516426 -0.00719641 0)
(-0.00271707 -0.00739185 0)
(-0.00555723 -0.00613074 0)
(-0.00160204 -0.00445082 0)
(-0.00523593 -0.00477072 0)
(-0.00264377 -0.00494003 0)
(-0.0034307 -0.0036121 0)
(-0.00187907 -0.0036979 0)
(-0.00370348 -0.000669392 0)
(-0.00167579 -6.11549e-05 0)
(-0.00132974 -0.000351618 0)
(0.00134322 0.000630189 0)
(0.00319588 -0.000965704 0)
(0.00225395 -0.00180393 0)
(0.00181809 -0.00344047 0)
(0.00215537 -0.00590294 0)
(-0.00291541 -0.00514127 0)
(-0.00338647 -0.00284198 0)
(0.00108293 -0.00398028 0)
(0.00113007 -0.00500311 0)
(-0.00216333 -0.00438872 0)
(-9.69447e-05 -0.00468272 0)
(-0.00200465 -0.00204026 0)
(0.00176951 -0.00169112 0)
(-0.00103501 -0.00249018 0)
(-0.000117623 -0.00130145 0)
(0.000244556 -0.00289 0)
(0.00123914 -0.00326946 0)
(0.00446637 -0.00155935 0)
(0.0030234 -0.000409628 0)
(0.000810325 -0.0020697 0)
(0.00271565 -0.00257587 0)
(0.00277549 -0.00420689 0)
(0.0024053 -0.00596531 0)
(0.00246716 -0.0057166 0)
(0.0016023 -0.0059825 0)
(0.000749936 -0.00599007 0)
(0.000177992 -0.00645418 0)
(0.000172571 -0.00672334 0)
(0.000553666 -0.00694917 0)
(0.000599289 -0.00715029 0)
(0.000449966 -0.00731116 0)
(0.000261716 -0.00739057 0)
(0.000164217 -0.0073501 0)
(0.000116781 -0.00725442 0)
(0.000109781 -0.00703319 0)
(7.66335e-05 -0.00681158 0)
(-0.000126408 -0.00641037 0)
(-0.000513697 -0.00587721 0)
(-0.001024 -0.00514208 0)
(-0.001554 -0.00433206 0)
(-0.00183258 -0.00348349 0)
(-0.00182946 -0.00262953 0)
(-0.0015473 -0.00171869 0)
(-0.0010171 -0.000952454 0)
(-0.000214286 -0.000355164 0)
(0.000600244 -0.000129692 0)
(0.000979645 -0.000249469 0)
(0.000927281 -0.000663235 0)
(0.000632084 -0.00131783 0)
(0.000418777 -0.00224616 0)
(0.000396468 -0.00330371 0)
(0.000392438 -0.00410778 0)
(0.000279127 -0.00445751 0)
(0.000153519 -0.00459926 0)
(0.000108157 -0.00464518 0)
(9.38517e-05 -0.00463752 0)
(0.000100341 -0.00457561 0)
(0.000119104 -0.00450119 0)
(0.000127868 -0.00442955 0)
(0.000119645 -0.00433066 0)
(0.000101787 -0.00421852 0)
(6.63883e-05 -0.00463686 0)
(-1.16876e-05 -0.00427618 0)
(-0.00179498 0.00599972 0)
(-0.00230585 0.00389461 0)
(-0.00353347 0.00529708 0)
(-0.00298479 0.00324375 0)
(-0.00201122 -0.00049099 0)
(-0.00507291 0.000560248 0)
(-0.000267097 -0.0024764 0)
(-0.0022753 -0.00455388 0)
(-0.00108986 -0.00565429 0)
(-0.00485337 -0.00690185 0)
(-0.00336991 -0.0035079 0)
(0.000994056 -0.00308462 0)
(-0.000506299 -0.00120083 0)
(0.00552771 -0.00418087 0)
(0.00317456 -0.00449983 0)
(0.00190946 -0.00427229 0)
(0.00178749 -0.00449812 0)
(0.000337778 -0.00816042 0)
(-0.00139444 -0.00034996 0)
(-0.00120361 0.00244836 0)
(-0.000874693 -0.00659199 0)
(-0.00270776 -0.00624073 0)
(-0.00160073 -0.00501115 0)
(-0.00208999 -0.00271013 0)
(0.000750706 -0.00273271 0)
(-0.000671709 -0.00534466 0)
(0.0009684 -0.00196299 0)
(0.000244401 -0.00250583 0)
(0.00250116 -0.00240214 0)
(0.00231327 -0.00138406 0)
(0.00272504 -0.00151286 0)
(0.00270368 -0.00225594 0)
(0.00305997 -0.00214469 0)
(0.00242527 -0.00282903 0)
(0.00292878 -0.00201863 0)
(0.00255649 -0.00111541 0)
(0.00184865 -0.00212585 0)
(0.00163285 -0.00250791 0)
(0.00155803 -0.00415049 0)
(0.00108745 -0.00595364 0)
(0.00102596 -0.0066958 0)
(0.000660991 -0.00694833 0)
(0.000354742 -0.00695829 0)
(3.72559e-05 -0.00702239 0)
(-0.000214002 -0.00685815 0)
(-0.000349719 -0.00669353 0)
(-0.000467729 -0.00641926 0)
(-0.000547345 -0.00606785 0)
(-0.000877672 -0.00557848 0)
(-0.00137238 -0.00505109 0)
(-0.00185483 -0.0045182 0)
(-0.00219172 -0.00418332 0)
(-0.00250438 -0.00379492 0)
(-0.00259331 -0.00345372 0)
(-0.00233968 -0.00295733 0)
(-0.00169142 -0.00247771 0)
(-0.000655808 -0.00197745 0)
(0.000509551 -0.00168827 0)
(0.00128664 -0.00173131 0)
(0.00159367 -0.00220791 0)
(0.00156157 -0.00290595 0)
(0.00139186 -0.00372671 0)
(0.00110898 -0.00431497 0)
(0.000706374 -0.00454164 0)
(0.000383499 -0.00453272 0)
(0.000220638 -0.00454849 0)
(0.000110635 -0.00456836 0)
(5.2292e-05 -0.00455594 0)
(3.73582e-05 -0.00451416 0)
(5.61096e-05 -0.00446174 0)
(7.8554e-05 -0.00440864 0)
(7.90018e-05 -0.00431996 0)
(6.81865e-05 -0.00421636 0)
(4.59423e-05 -0.00464717 0)
(-7.98126e-06 -0.00428556 0)
(-0.000208573 -0.00308999 0)
(0.00151295 -0.00279833 0)
(-0.00093692 -0.00330009 0)
(0.00128314 -0.00405152 0)
(0.000259625 -0.00858997 0)
(-0.000730339 -0.00595482 0)
(0.00143566 -0.00724198 0)
(0.0012422 -0.0127567 0)
(-0.00132325 -0.0131561 0)
(0.000555329 -0.0119937 0)
(-0.00217298 -0.00255477 0)
(0.00105998 -0.00568689 0)
(-0.00132865 -0.00237322 0)
(0.000479706 -0.00485351 0)
(0.000399972 -0.010047 0)
(0.0017099 -0.00692783 0)
(0.00101295 -0.00815632 0)
(0.00113047 -0.00585539 0)
(0.00286725 -0.000809358 0)
(-0.00439335 -0.000516105 0)
(-0.00296125 -0.00526142 0)
(-0.00171966 -0.00351245 0)
(-0.001882 -0.00515242 0)
(0.00108518 -0.00378108 0)
(-0.00143717 -0.00483452 0)
(0.000212638 -0.0059657 0)
(-0.000242595 -0.00433339 0)
(0.000619606 -0.00524179 0)
(0.000469404 -0.00644275 0)
(0.00220427 -0.00622289 0)
(0.00403648 -0.00582099 0)
(0.00362263 -0.00822357 0)
(0.00231612 -0.00805823 0)
(0.0022458 -0.00629032 0)
(0.00247018 -0.00574527 0)
(0.00225622 -0.00465726 0)
(0.00288869 -0.00440453 0)
(0.00295805 -0.00410035 0)
(0.00315747 -0.00409778 0)
(0.00258589 -0.00417276 0)
(0.00147398 -0.00381104 0)
(0.000796334 -0.00339422 0)
(0.000391986 -0.00299143 0)
(7.3659e-05 -0.00294573 0)
(-0.000162499 -0.00302029 0)
(-0.000326421 -0.00327192 0)
(-0.000549967 -0.00344989 0)
(-0.000739676 -0.00366896 0)
(-0.00106141 -0.00374948 0)
(-0.00149595 -0.00391562 0)
(-0.00189877 -0.00413963 0)
(-0.00219097 -0.00441099 0)
(-0.00251829 -0.00474033 0)
(-0.00260744 -0.00486328 0)
(-0.0024956 -0.00490531 0)
(-0.00195721 -0.00490963 0)
(-0.000960657 -0.00478665 0)
(0.000402828 -0.00457732 0)
(0.00157269 -0.00449368 0)
(0.00202307 -0.00463341 0)
(0.00207558 -0.00477259 0)
(0.00179222 -0.00495561 0)
(0.00119459 -0.00492382 0)
(0.00060069 -0.00473906 0)
(0.000332825 -0.00460357 0)
(0.000205832 -0.0045347 0)
(0.000110369 -0.0045073 0)
(2.67084e-05 -0.00449035 0)
(-2.0822e-06 -0.0044636 0)
(9.49985e-06 -0.00442555 0)
(4.2312e-05 -0.00438798 0)
(5.08751e-05 -0.00431081 0)
(4.50869e-05 -0.00421384 0)
(3.20258e-05 -0.00465459 0)
(-4.71319e-06 -0.00429231 0)
(0.00123332 -0.00433294 0)
(0.000128375 -0.00625387 0)
(-0.000801489 -0.00544202 0)
(-0.000849296 -0.00498973 0)
(-0.00103593 -0.0107926 0)
(0.00158372 -0.00712441 0)
(-0.00093489 -0.00686434 0)
(-7.13818e-05 -0.011716 0)
(0.000305686 -0.0101641 0)
(0.00200735 -0.01012 0)
(-4.82684e-05 -0.0074702 0)
(-0.00138918 -0.00683385 0)