/*--------------------------------*- C++ -*----------------------------------*\
  =========                 |
  \\      /  F ield         | OpenFOAM: The Open Source CFD Toolbox
   \\    /   O peration     | Website:  https://openfoam.org
    \\  /    A nd           | Version:  12
     \\/     M anipulation  |
\*---------------------------------------------------------------------------*/
FoamFile
{
    format      ascii;
    class       volVectorField;
    location    "0.95";
    object      U.water_0;
}
// * * * * * * * * * * * * * * * * * * * * * * * * * * * * * * * * * * * * * //

dimensions      [0 1 -1 0 0 0 0];

internalField   nonuniform List<vector> 
3750
(
(0.000959972 0.0121417 0)
(1.80854e-05 0.0108345 0)
(-0.000410673 0.0111546 0)
(-0.00120876 0.00724636 0)
(0.000652296 0.00772685 0)
(-0.00226405 0.00607099 0)
(-0.00110097 0.0056295 0)
(-0.000602424 0.00828403 0)
(0.000108878 0.00724481 0)
(0.00143886 0.0076594 0)
(0.00180708 0.00703292 0)
(-2.54576e-05 0.00637079 0)
(0.00226516 0.00370089 0)
(0.00533793 0.0161333 0)
(-0.00357226 0.0173015 0)
(-0.00153179 0.00532995 0)
(-0.00115196 0.00766254 0)
(-0.000793884 0.00838882 0)
(0.000272223 0.00980276 0)
(0.000718021 0.00969607 0)
(-0.000350472 0.00939124 0)
(0.00021597 0.0112256 0)
(0.000546602 0.0104809 0)
(-0.00152278 0.00944684 0)
(0.000115816 0.00859485 0)
(0.000534798 0.00883001 0)
(-0.00121425 0.00908193 0)
(0.000149584 0.00864639 0)
(-0.0003181 0.00786966 0)
(-0.000126857 0.00772897 0)
(-0.000257994 0.00902535 0)
(-0.00037829 0.00351139 0)
(0.00126498 0.00361257 0)
(0.00018171 0.00340861 0)
(0.00215204 -0.00123508 0)
(0.000912573 -0.000561481 0)
(0.00151059 -0.00370312 0)
(0.000346384 -0.00571716 0)
(0.00041883 -0.00787276 0)
(-0.000455225 -0.00912478 0)
(0.000722919 -0.00884858 0)
(-0.000626786 -0.00867421 0)
(7.76909e-05 -0.00963058 0)
(-0.00049894 -0.00755524 0)
(-0.000792076 -0.00724821 0)
(-0.000894678 -0.00597024 0)
(-0.000698441 -0.00519044 0)
(-0.000596443 -0.00442523 0)
(-0.000579017 -0.00363019 0)
(-0.000526137 -0.00310782 0)
(-0.000515247 -0.00235279 0)
(-0.000422554 -0.00196523 0)
(-0.00045081 -0.00146488 0)
(-0.00042045 -0.001154 0)
(-0.000392283 -0.000717942 0)
(-0.000334349 -0.000277482 0)
(-0.000239706 0.000163732 0)
(-0.000176582 0.0005599 0)
(-0.000128621 0.000898933 0)
(-0.000145943 0.00121415 0)
(-0.000181898 0.00162521 0)
(-0.000214133 0.00216918 0)
(-0.000235552 0.00289737 0)
(-0.000233642 0.00372862 0)
(-0.000167705 0.00459929 0)
(1.38835e-05 0.00532792 0)
(0.000384235 0.00561065 0)
(0.000620543 0.00525316 0)
(0.000736548 0.00428235 0)
(0.000589748 0.00292113 0)
(0.000379909 0.00167581 0)
(0.000293917 0.000410737 0)
(0.000568571 -0.000495477 0)
(0.000574948 -0.0020078 0)
(0.000308838 -0.00257396 0)
(0.000675855 0.0133965 0)
(0.00052392 0.0134441 0)
(-0.000494463 0.0142798 0)
(-0.00450641 0.0144885 0)
(0.00547739 0.0134132 0)
(0.0017646 0.00989914 0)
(0.00323512 0.00727808 0)
(0.00189992 0.00844643 0)
(0.00147777 0.0045467 0)
(0.000796012 0.00676041 0)
(8.13604e-06 0.00711191 0)
(0.000678833 0.00859816 0)
(0.00153912 0.0109799 0)
(0.00389636 0.0149292 0)
(-0.0055692 0.01526 0)
(-0.00324416 0.011377 0)
(-0.00230386 0.00988529 0)
(-0.000934571 0.00905245 0)
(-0.000922891 0.00993763 0)
(-0.00128256 0.00787673 0)
(-0.000517488 0.00814406 0)
(-0.00307877 0.0116456 0)
(-0.000501195 0.00977906 0)
(0.00112435 0.0106789 0)
(0.00220026 0.00904516 0)
(0.00189699 0.00431404 0)
(0.00297327 0.0059669 0)
(-0.000918531 0.00612814 0)
(0.000195158 0.00795408 0)
(0.000138668 0.00735094 0)
(-0.000228723 0.00743451 0)
(0.000962024 0.00368524 0)
(0.00241671 0.00115824 0)
(0.00205663 0.000109517 0)
(0.00651275 -0.00132798 0)
(0.00497045 0.000198061 0)
(0.00419004 -0.00181417 0)
(0.00304746 -0.00394721 0)
(0.00198665 -0.00503575 0)
(0.00101887 -0.00436626 0)
(0.000510346 -0.00433243 0)
(-0.000995471 -0.00569704 0)
(-0.000167106 -0.00474405 0)
(-0.00101124 -0.00371979 0)
(-0.00112001 -0.00355658 0)
(-0.00115618 -0.00333782 0)
(-0.000941264 -0.0032991 0)
(-0.000831266 -0.00310207 0)
(-0.000845504 -0.00293155 0)
(-0.000768084 -0.00285137 0)
(-0.000699416 -0.00277685 0)
(-0.000448853 -0.0029378 0)
(-0.000370282 -0.00324307 0)
(-0.000329942 -0.00371275 0)
(-0.000467507 -0.00395869 0)
(-0.000565612 -0.00397802 0)
(-0.000612916 -0.00385885 0)
(-0.000565986 -0.00369375 0)
(-0.000508767 -0.00350385 0)
(-0.000552748 -0.00327537 0)
(-0.000743074 -0.00281823 0)
(-0.00104806 -0.00205588 0)
(-0.00134735 -0.00101908 0)
(-0.00154275 0.00016079 0)
(-0.00151936 0.00137222 0)
(-0.0011061 0.00241069 0)
(-0.000247119 0.00299368 0)
(0.000752995 0.00291235 0)
(0.00153226 0.00197947 0)
(0.00203055 0.000670556 0)
(0.00216041 -0.000968888 0)
(0.00198398 -0.00238198 0)
(0.00172807 -0.00299916 0)
(0.00139108 -0.00380215 0)
(0.000390336 -0.00352379 0)
(4.63899e-05 0.00479779 0)
(0.000970255 0.00464957 0)
(-0.000439812 0.00387784 0)
(0.000807677 0.0123968 0)
(0.00181796 0.0141962 0)
(0.00040648 0.00470222 0)
(0.002354 0.00663344 0)
(0.00124257 0.00921337 0)
(0.00104911 0.0069009 0)
(-0.00208791 0.0063509 0)
(0.000154629 0.00536755 0)
(-0.000165494 0.00385917 0)
(0.00187722 0.00205833 0)
(0.00144009 0.00426253 0)
(0.000485436 0.00208506 0)
(0.00012382 0.000485406 0)
(-0.000938743 0.000657758 0)
(0.000233481 0.00084058 0)
(0.000996959 -0.000276008 0)
(-0.000442038 -0.000934214 0)
(-3.93079e-06 -0.0036289 0)
(-0.002146 -0.00175488 0)
(-0.00606402 -0.00129352 0)
(0.00358733 -0.00425644 0)
(0.00328905 -0.00473387 0)
(0.00201918 -0.00451667 0)
(0.00159466 -0.00332658 0)
(-0.00021213 -0.00266392 0)
(-5.45501e-05 -0.00474803 0)
(0.000289913 -0.00645672 0)
(0.00152443 -0.00493987 0)
(0.00259894 -0.00707722 0)
(0.003385 -0.00988894 0)
(0.00390745 -0.00644382 0)
(0.00465647 -0.00737616 0)
(0.00495314 -0.00666074 0)
(0.00298871 -0.00519507 0)
(0.00278602 -0.00370744 0)
(0.00177143 -0.004049 0)
(0.00141235 -0.00363707 0)
(-0.000395013 -0.00315771 0)
(-0.00104702 -0.00374844 0)
(-0.00113977 -0.00399884 0)
(-0.00139085 -0.00378001 0)
(-0.0012984 -0.00393535 0)
(-0.00110157 -0.00404819 0)
(-0.0009477 -0.00410932 0)
(-0.00088006 -0.00408186 0)
(-0.00085563 -0.00403591 0)
(-0.000675513 -0.004047 0)
(-0.000359846 -0.00426242 0)
(0.000111241 -0.00467889 0)
(0.000318736 -0.00526214 0)
(0.000245835 -0.00590988 0)
(-0.000164483 -0.00642931 0)
(-0.000435805 -0.0067253 0)
(-0.000495495 -0.00692769 0)
(-0.000480984 -0.0070398 0)
(-0.00054222 -0.00706175 0)
(-0.000874465 -0.00685959 0)
(-0.0014695 -0.00626742 0)
(-0.00208114 -0.00544464 0)
(-0.00248868 -0.00466454 0)
(-0.00263889 -0.00401808 0)
(-0.00241944 -0.00350534 0)
(-0.0016078 -0.00328171 0)
(-0.000100444 -0.0033005 0)
(0.0017488 -0.00351505 0)
(0.00289784 -0.00399902 0)
(0.00330542 -0.00431449 0)
(0.00317125 -0.00456842 0)
(0.00228047 -0.00442712 0)
(0.00170522 -0.00409933 0)
(0.00115687 -0.00442256 0)
(0.00028543 -0.0037857 0)
(0.00119213 0.00419145 0)
(0.000428126 0.00253043 0)
(0.000724704 0.00275481 0)
(0.00352582 0.00439354 0)
(-0.00257811 0.00212689 0)
(-0.0028029 -0.000141936 0)
(-0.00234997 -0.000110354 0)
(0.00282844 0.000257296 0)
(0.00348799 -0.00273514 0)
(-0.00258505 -0.00182797 0)
(0.00712829 -0.00419086 0)
(0.00332107 -0.0092664 0)
(0.00298039 -0.00901523 0)
(0.00318445 -0.0084487 0)
(0.00248442 -0.00795564 0)
(-0.00160391 -0.00823512 0)
(-0.00561419 -0.00585602 0)
(-0.000670365 -0.000904571 0)
(0.0039697 -0.00304108 0)
(0.000313591 -0.00771296 0)
(-0.00143977 -0.00797719 0)
(0.00181339 -0.0091753 0)
(-0.00190909 -0.00175141 0)
(-0.00229005 0.00203612 0)
(-0.00129104 -0.00686339 0)
(0.00325749 -0.00702198 0)
(0.00150839 -0.00629399 0)
(0.00228094 -0.00597872 0)
(0.000861323 -0.00523173 0)
(0.000263581 -0.00614031 0)
(0.00257331 -0.00550854 0)
(0.00344277 -0.00628633 0)
(0.00512096 -0.0064266 0)
(0.00350065 -0.00445622 0)
(0.00231445 -0.00522385 0)
(0.00224036 -0.00468149 0)
(0.00249977 -0.00353058 0)
(0.00205602 -0.00286685 0)
(0.00163144 -0.00324524 0)
(0.0012746 -0.00272789 0)
(0.000484268 -0.00258006 0)
(-0.000239163 -0.00300425 0)
(-0.000523215 -0.00336951 0)
(-0.000906669 -0.00347791 0)
(-0.00103142 -0.00361383 0)
(-0.000987634 -0.00369469 0)
(-0.00092109 -0.00372526 0)
(-0.000877987 -0.00376315 0)
(-0.000802892 -0.00388295 0)
(-0.000543418 -0.00407814 0)
(-6.72225e-05 -0.00438876 0)
(0.0005638 -0.00480408 0)
(0.000905285 -0.00536331 0)
(0.000828463 -0.00604984 0)
(0.000383668 -0.00677483 0)
(-9.69555e-05 -0.00744875 0)
(-0.000314516 -0.0079007 0)
(-0.00037529 -0.00812731 0)
(-0.000621114 -0.00815339 0)
(-0.00129652 -0.0078268 0)
(-0.00215203 -0.00716585 0)
(-0.0026919 -0.00657451 0)
(-0.00283055 -0.00621884 0)
(-0.00275031 -0.00603347 0)
(-0.00222124 -0.00615968 0)
(-0.00120951 -0.0066855 0)
(0.000182476 -0.0071246 0)
(0.00169205 -0.00703873 0)
(0.00253078 -0.00676609 0)
(0.0028139 -0.0062749 0)
(0.0024781 -0.00558514 0)
(0.00176662 -0.00488995 0)
(0.00144549 -0.00445529 0)
(0.000881588 -0.00463421 0)
(0.000100578 -0.00402179 0)
(0.00176055 0.00389129 0)
(0.00169909 0.00364498 0)
(0.00432844 0.00444198 0)
(0.00390337 0.00265554 0)
(0.00344209 0.000250821 0)
(0.00288032 -0.00499731 0)
(0.00152962 -0.000670691 0)
(0.00100396 -0.00104298 0)
(0.00101928 -0.0141499 0)
(0.00110365 -0.00494671 0)
(0.00198603 -0.0014294 0)
(0.00295731 -0.0124624 0)
(-0.000486614 -0.0085044 0)
(0.00171959 -0.00452924 0)
(-7.96559e-05 -0.00622338 0)
(-0.000208882 -0.0111553 0)
(8.43246e-05 -0.00167366 0)
(0.000304525 0.00627455 0)
(-0.0014957 -0.0049426 0)
(-0.00105026 -0.0130674 0)
(-0.000809755 -0.00919909 0)
(3.54781e-05 -0.00667266 0)
(0.00143405 -0.00638708 0)
(-0.00657452 -0.00431853 0)
(0.00142565 -0.00259317 0)
(0.00223169 -0.00430935 0)
(-0.000577037 -0.00533487 0)
(0.00154444 -0.00211604 0)
(0.000959613 -0.0031725 0)
(0.001036 -0.00277257 0)
(-0.00267349 0.000799965 0)
(0.00527869 -0.00318046 0)
(0.0041724 -0.00502076 0)
(0.00281214 -0.00475738 0)
(0.0027643 -0.00405775 0)
(0.00262821 -0.00368571 0)
(0.00255234 -0.00336692 0)
(0.00171347 -0.00262875 0)
(0.0013636 -0.00232944 0)
(0.000886344 -0.00189797 0)
(8.20806e-05 -0.00160644 0)
(-0.000352648 -0.00148167 0)
(-0.000683837 -0.0016104 0)
(-0.000889483 -0.00170889 0)
(-0.000991396 -0.00194282 0)
(-0.000968737 -0.00210581 0)
(-0.000881695 -0.00226516 0)
(-0.000743622 -0.00242584 0)
(-0.00055716 -0.00271215 0)
(-0.000180303 -0.00309422 0)
(0.00038659 -0.00357068 0)
(0.00106168 -0.00408629 0)
(0.00154385 -0.00459408 0)
(0.00158978 -0.0052301 0)
(0.00119986 -0.00600102 0)
(0.000634813 -0.00682265 0)
(0.000180094 -0.00750133 0)
(-0.000233187 -0.0079002 0)
(-0.000844968 -0.00792846 0)
(-0.00188246 -0.0075107 0)
(-0.00273655 -0.00702447 0)
(-0.00299047 -0.00674075 0)
(-0.00301186 -0.00658614 0)
(-0.00267102 -0.00655156 0)
(-0.00179987 -0.00695887 0)
(-0.000696135 -0.00754423 0)
(0.000392637 -0.00783443 0)
(0.00136275 -0.00755591 0)
(0.00193546 -0.00700962 0)
(0.00198712 -0.00631665 0)
(0.00165093 -0.00554087 0)
(0.001276 -0.00492283 0)
(0.00109665 -0.00453687 0)
(0.000642372 -0.00468493 0)
(1.00849e-05 -0.00421151 0)
(0.000305923 0.000268935 0)
(0.00107024 0.000320775 0)
(0.0024895 0.00064964 0)
(0.00590706 0.00024182 0)
(0.00651003 0.000360211 0)
(0.0094327 -0.00088984 0)
(0.00736575 -0.00412416 0)
(0.0025717 -0.00337516 0)
(0.00154749 -0.0069981 0)
(0.0058487 -0.00413668 0)
(-0.00381704 -0.00349489 0)
(0.00012144 -0.00729727 0)
(-0.00116255 -0.00343911 0)
(0.000710983 -0.00347913 0)
(-0.000314111 -0.00550427 0)
(0.00396506 -0.00503442 0)
(0.00567113 -0.00350116 0)
(0.00116131 -0.000740504 0)
(-0.00515373 -0.00409685 0)
(-0.00126078 -0.00792607 0)
(0.00169017 -0.00858557 0)
(-0.000352658 -0.00871465 0)
(9.97102e-05 -0.00962555 0)
(-0.00260075 0.000292052 0)
(-2.21203e-05 0.000866215 0)
(-0.00297919 -0.0108318 0)
(-1.58775e-05 -0.0104009 0)
(-0.000414314 -0.00799799 0)
(0.00336925 -0.00726584 0)
(0.00326097 -0.00817068 0)
(0.00299755 0.00233323 0)
(0.00210987 0.00266931 0)
(0.00303203 -0.0063338 0)
(0.00229337 -0.00333526 0)
(0.00215612 -0.00267807 0)
(0.00156251 -0.00241825 0)
(0.00149255 -0.00203378 0)
(0.00120386 -0.00148279 0)
(0.000938749 -0.00141975 0)
(0.000497256 -0.00107188 0)
(-3.49985e-06 -0.00101888 0)
(-0.000285432 -0.00105922 0)
(-0.000459833 -0.00121259 0)
(-0.000629386 -0.0013388 0)
(-0.000717727 -0.00153413 0)
(-0.000709593 -0.00173488 0)
(-0.000628379 -0.00192412 0)
(-0.000449067 -0.0021011 0)
(-0.00016278 -0.00237246 0)
(0.000304915 -0.00270906 0)
(0.000888963 -0.00309926 0)
(0.00151688 -0.00346374 0)
(0.00204029 -0.00373709 0)
(0.00221064 -0.00403441 0)
(0.0019762 -0.00444567 0)
(0.00140853 -0.0050369 0)
(0.000750061 -0.00562475 0)
(2.37086e-05 -0.00605889 0)
(-0.000944822 -0.00629631 0)
(-0.00219872 -0.00623258 0)
(-0.00294443 -0.00613318 0)
(-0.00313009 -0.00610072 0)
(-0.00304508 -0.00610044 0)
(-0.00237682 -0.00632926 0)
(-0.00131773 -0.00677303 0)
(-0.00038743 -0.00713952 0)
(0.000314095 -0.00721734 0)
(0.0009171 -0.00693899 0)
(0.00125622 -0.00636959 0)
(0.0012716 -0.00579025 0)
(0.00111202 -0.00530033 0)
(0.000905896 -0.00485026 0)
(0.000787637 -0.00453236 0)
(0.000476611 -0.0047227 0)
(-2.01748e-05 -0.00433236 0)
(0.00244369 -0.0156719 0)
(0.00138027 -0.017343 0)
(0.00293305 -0.0154289 0)
(0.00286166 -0.0144668 0)
(0.00260866 -0.0124049 0)
(3.99153e-05 -0.0127889 0)
(0.00344133 -0.0122297 0)
(0.00317083 -0.00762165 0)
(0.00190081 -0.00817893 0)
(0.00205412 -0.00662113 0)
(-0.00141498 -0.00352672 0)
(-4.36065e-05 -0.00628965 0)
(0.000667919 -0.00643191 0)
(-0.000815716 -0.00355032 0)
(0.000287164 -0.00488078 0)
(0.00294085 -0.00604373 0)
(0.00202255 -0.00432713 0)
(0.00147842 -0.00289961 0)
(-0.00232076 -0.00532735 0)
(0.000613166 -0.00330764 0)
(8.14764e-05 -0.00450059 0)
(0.00104858 -0.00493179 0)
(0.00142258 -0.0062015 0)
(0.00404197 -0.00400251 0)
(-0.00471088 -0.00691933 0)
(-0.0030118 -0.0116799 0)
(-0.000791446 -0.0134261 0)
(0.000855836 -0.012773 0)
(9.18792e-05 -0.010451 0)
(0.00180745 -0.0105879 0)
(0.00441511 -0.00436566 0)
(-0.00304083 -0.00433011 0)
(7.10286e-05 -0.00596833 0)
(0.00131818 -0.00533446 0)
(0.00134786 -0.0046704 0)
(0.00155415 -0.00432424 0)
(0.00148874 -0.00371412 0)
(0.00121763 -0.00336705 0)
(0.00104337 -0.00321464 0)
(0.000608945 -0.00308247 0)
(0.000156748 -0.00313101 0)
(-9.98293e-05 -0.00322895 0)
(-0.000321745 -0.00329531 0)
(-0.000497127 -0.00336716 0)
(-0.000532436 -0.00347422 0)
(-0.000545476 -0.00361652 0)
(-0.000479647 -0.0036798 0)
(-0.000303311 -0.0036939 0)
(4.24217e-05 -0.00370885 0)
(0.000558622 -0.00368594 0)
(0.00115259 -0.00368645 0)
(0.00173606 -0.00369924 0)
(0.0021494 -0.00364349 0)
(0.00226805 -0.00355742 0)
(0.00219508 -0.00347161 0)
(0.00181186 -0.00353989 0)
(0.00121525 -0.00375758 0)
(0.000452255 -0.00405905 0)
(-0.000583355 -0.00443842 0)
(-0.00192474 -0.00486601 0)
(-0.00280377 -0.00523238 0)
(-0.00300716 -0.00542985 0)
(-0.00282205 -0.00565772 0)
(-0.00205459 -0.005926 0)
(-0.00103629 -0.00620706 0)
(-0.000268494 -0.00638905 0)
(0.000193244 -0.00633986 0)
(0.000535365 -0.00609509 0)
(0.000789687 -0.00574636 0)
(0.000856581 -0.00540311 0)
(0.00077351 -0.00509991 0)
(0.000651648 -0.00477258 0)
(0.000564085 -0.00452975 0)
(0.000350761 -0.00477562 0)
(-2.3706e-05 -0.00440912 0)
(0.00234284 -0.0217793 0)
(0.00430134 -0.0215894 0)
(0.000476752 -0.0179014 0)
(0.0010597 -0.0205093 0)
(-0.00158527 -0.0198281 0)
(-0.0028645 -0.0122144 0)
(-0.000358646 -0.0061663 0)
(-0.000857203 -0.00660915 0)
(-5.16447e-05 -0.00792396 0)
(0.000185425 -0.00687214 0)
(-0.000665716 -0.00400263 0)
(-0.000625575 -0.00540457 0)
(0.00109886 -0.00647528 0)
(-0.00026008 -0.00577635 0)
(-0.00156517 -0.00488981 0)
(6.82686e-05 -0.0043963 0)
(0.00171744 -0.00474037 0)
(0.000830284 -0.00404851 0)
(0.0014107 -0.00339443 0)
(0.00211883 -0.00309307 0)
(0.00106371 -0.00408159 0)
(0.00316643 -0.00385843 0)
(0.00245933 -0.00328799 0)
(0.00375502 -0.00244429 0)
(-0.000642249 -0.00307482 0)
(0.00138156 -0.00500698 0)
(-4.5944e-05 -0.0084935 0)
(0.000692009 -0.00956364 0)
(-4.73619e-05 -0.00904662 0)
(0.000630385 -0.00828099 0)
(-0.00208633 -0.00781469 0)
(0.00109535 -0.00719817 0)
(-0.00026749 -0.00771899 0)
(0.000975926 -0.00733016 0)
(0.00103986 -0.00710178 0)
(0.000894973 -0.00665092 0)
(0.000676484 -0.00655177 0)
(0.00069846 -0.00623113 0)
(0.000607002 -0.00607886 0)
(0.000366829 -0.00580266 0)
(9.36449e-05 -0.00574997 0)
(-0.000227246 -0.0057057 0)
(-0.000387985 -0.00570711 0)
(-0.000492468 -0.00569421 0)
(-0.000516963 -0.00572111 0)
(-0.000534322 -0.00576738 0)
(-0.000534904 -0.00578554 0)
(-0.00042766 -0.0058107 0)
(-0.000142224 -0.00580548 0)
(0.000314354 -0.00564828 0)
(0.00086229 -0.00529575 0)
(0.00144294 -0.00475894 0)
(0.00188321 -0.00414904 0)
(0.00205864 -0.00363415 0)
(0.00199913 -0.00317053 0)
(0.00173245 -0.00285606 0)
(0.00129526 -0.00271094 0)
(0.000707753 -0.00281654 0)
(-0.000141104 -0.00317592 0)
(-0.00131319 -0.00379207 0)
(-0.00237181 -0.00453466 0)
(-0.00272185 -0.00497945 0)
(-0.00258954 -0.00528689 0)
(-0.00184984 -0.00551609 0)
(-0.000871339 -0.00569481 0)
(-0.000255958 -0.00577785 0)
(6.53578e-05 -0.00571069 0)
(0.000335418 -0.00555757 0)
(0.000548744 -0.00536619 0)
(0.000606801 -0.00516364 0)
(0.000546814 -0.0049606 0)
(0.000468211 -0.0047135 0)
(0.000405231 -0.00452085 0)
(0.000253978 -0.00482545 0)
(-2.47265e-05 -0.00446078 0)
(0.000823823 -0.019525 0)
(0.00309078 -0.0154141 0)
(0.00048261 -0.0143395 0)
(-0.000936347 -0.0121085 0)
(-0.000855917 -0.0121912 0)
(0.00566544 -0.00833323 0)
(0.00222804 -0.00721769 0)
(0.00122801 -0.00677786 0)
(-0.00156348 -0.00729835 0)
(0.00143047 -0.00779835 0)
(0.000325953 -0.00716738 0)
(-0.00124914 -0.00792056 0)
(-0.000813931 -0.0075938 0)
(0.000907722 -0.00707409 0)
(-0.00083723 -0.00580506 0)
(-0.000440862 -0.00395056 0)
(-0.000288747 -0.00385694 0)
(-0.000327139 -0.00456698 0)
(-0.000958695 -0.00397513 0)
(0.00089157 -0.00322403 0)
(0.000581966 -0.00224095 0)
(0.00151822 -0.000715231 0)
(0.00152565 9.43919e-05 0)
(0.000668617 0.00116955 0)
(0.00241964 0.00100209 0)
(0.000833273 0.000916388 0)
(0.00241165 -0.00273975 0)
(0.00108751 -0.00205884 0)
(0.00141162 -0.000694795 0)
(0.000778419 -0.00662961 0)
(0.000260547 -0.00414909 0)
(-0.000234348 -0.00375003 0)
(-0.000123008 -0.00748326 0)
(0.000478532 -0.00485877 0)
(0.000321402 -0.00499009 0)
(0.000844845 -0.00469239 0)
(0.000910376 -0.00465074 0)
(0.000853271 -0.0044911 0)
(0.000654363 -0.00446926 0)
(0.000366421 -0.00429325 0)
(9.46626e-05 -0.00436424 0)
(-0.000106979 -0.00451258 0)
(-0.000294718 -0.00466986 0)
(-0.00042712 -0.00485942 0)
(-0.000424429 -0.0050938 0)
(-0.000441878 -0.00529772 0)
(-0.000424439 -0.00555571 0)
(-0.00031387 -0.00586005 0)
(-0.000108993 -0.00614819 0)
(9.13748e-05 -0.00623008 0)
(0.000345223 -0.00606092 0)
(0.000697482 -0.00557464 0)
(0.00103804 -0.00483148 0)
(0.00129689 -0.00395805 0)
(0.0014145 -0.00310259 0)
(0.00132545 -0.00239911 0)
(0.00116796 -0.00195098 0)
(0.000898781 -0.00184958 0)
(0.000374673 -0.00208856 0)
(-0.000549742 -0.00266227 0)
(-0.00168329 -0.00351199 0)
(-0.00231944 -0.00417438 0)
(-0.00233579 -0.0045929 0)
(-0.00168199 -0.00497028 0)
(-0.000754706 -0.00523918 0)
(-0.000255042 -0.00533521 0)
(-6.2589e-06 -0.00534154 0)
(0.000206629 -0.00527508 0)
(0.000389417 -0.00514896 0)
(0.000438491 -0.0050095 0)
(0.000386972 -0.00486642 0)
(0.000335507 -0.00467328 0)
(0.000289754 -0.00451352 0)
(0.000183595 -0.00486142 0)
(-2.27037e-05 -0.00449773 0)
(-0.000871115 -0.0112653 0)
(-0.00233262 -0.00990494 0)
(-0.00179948 -0.0085706 0)
(-0.00200667 -0.010836 0)
(-0.00377972 -0.00477215 0)
(0.00403471 -0.00449479 0)
(0.00222967 -0.00771412 0)
(0.000200693 -0.00633027 0)
(-0.000100075 -0.00565155 0)
(-0.000690407 -0.00445168 0)
(-0.000552945 -0.00857144 0)
(-0.000980587 -0.00746598 0)
(2.0729e-05 -0.00592004 0)
(-0.00174179 -0.00648111 0)
(-0.000218096 -0.00648184 0)
(-0.00223535 -0.00514167 0)
(-0.00210227 -0.00636029 0)
(0.000332723 -0.00630652 0)
(-0.000533478 -0.00375211 0)
(-0.000178238 -0.00280899 0)
(0.000448177 -0.00455488 0)
(0.000718836 -0.00239656 0)
(0.000379277 -0.00350875 0)
(0.00132574 -0.00151514 0)
(0.00134471 -0.0010549 0)
(0.00115313 -0.000321088 0)
(0.000680558 -9.27614e-05 0)
(0.0032235 -0.00023014 0)
(0.00182018 0.000316116 0)
(0.0021446 0.000576603 0)
(0.00378746 -0.000352461 0)
(-0.000572106 -0.00117308 0)
(8.39328e-05 -0.00207799 0)
(0.000269396 -0.00312737 0)
(0.000296959 -0.00409388 0)
(0.000367525 -0.00371216 0)
(0.000554802 -0.00444796 0)
(0.000440748 -0.00448347 0)
(0.000334597 -0.00475763 0)
(0.000283028 -0.0046978 0)
(0.000199099 -0.00481097 0)
(3.90509e-05 -0.00493568 0)
(-3.21478e-05 -0.00510124 0)
(-0.000114116 -0.00528643 0)
(-0.000120324 -0.00545117 0)
(-8.44025e-05 -0.00559027 0)
(2.10593e-05 -0.00579348 0)
(0.000144574 -0.00606074 0)
(0.000203787 -0.00618282 0)
(0.000200777 -0.00619003 0)
(0.000175368 -0.0059928 0)
(0.000170392 -0.00548215 0)
(0.000217503 -0.00468222 0)
(0.000294744 -0.00368178 0)
(0.000414438 -0.00263196 0)
(0.000559857 -0.00169726 0)
(0.000763968 -0.000993289 0)
(0.000855594 -0.000722506 0)
(0.000691775 -0.000748486 0)
(0.000116633 -0.00109668 0)
(-0.000779057 -0.00177942 0)
(-0.00155628 -0.00265109 0)
(-0.00178699 -0.00354 0)
(-0.00124212 -0.00434723 0)
(-0.000497525 -0.00483848 0)
(-0.000141126 -0.00500317 0)
(2.18251e-05 -0.00509052 0)
(0.000151045 -0.00508969 0)
(0.000277874 -0.00501028 0)
(0.00031851 -0.00489989 0)
(0.000274275 -0.00479361 0)
(0.000238085 -0.00464429 0)
(0.000206444 -0.00450635 0)
(0.000131553 -0.00488676 0)
(-1.95245e-05 -0.00452373 0)
(-0.0021729 -0.0120209 0)
(0.000175911 -0.0128903 0)
(-0.00011055 -0.0114458 0)
(0.000142473 -0.0121624 0)
(0.00123967 -0.00521154 0)
(-0.00140554 -0.000462913 0)
(0.000657916 -0.00982957 0)
(-0.000961776 -0.0065953 0)
(0.00157141 -0.00367087 0)
(-0.00175663 -0.00298383 0)
(0.000379831 -0.00086517 0)
(0.000132745 -0.000955734 0)
(0.000824216 -0.00090578 0)
(-0.00118496 -0.00299887 0)
(-0.00132586 -0.00470545 0)
(-0.00153635 -0.00718379 0)
(-0.00173027 -0.00511202 0)
(-0.00295946 -0.00649705 0)
(-6.39041e-06 -0.00814191 0)
(-0.00198494 -0.00508429 0)
(0.000987471 -0.00386521 0)
(0.00173976 -0.00393403 0)
(-5.6963e-06 -0.00347515 0)
(-0.000293689 -0.00127024 0)
(0.000373942 -0.00214495 0)
(0.000636433 -0.0012399 0)
(0.000708087 -0.00157162 0)
(0.00122225 -0.00051304 0)
(0.00183808 -0.000593695 0)
(0.00171683 -0.00104541 0)
(0.00321687 -5.47954e-05 0)
(0.00226527 -0.000188936 0)
(0.00157457 -0.00117085 0)
(0.001746 -0.00269097 0)
(0.00162472 -0.00359629 0)
(0.00173884 -0.00422664 0)
(0.00158268 -0.00496152 0)
(0.00115378 -0.00538079 0)
(0.000854627 -0.00556894 0)
(0.000478275 -0.00538662 0)
(0.000359498 -0.00551962 0)
(0.000260258 -0.00573192 0)
(6.03181e-05 -0.00601881 0)
(-6.69351e-05 -0.00629257 0)
(-9.85564e-05 -0.00644349 0)
(-8.26561e-05 -0.0065426 0)
(2.49088e-05 -0.00662375 0)
(6.73587e-05 -0.00662979 0)
(5.52235e-05 -0.00653835 0)
(-8.15961e-05 -0.00629031 0)
(-0.000315328 -0.00581793 0)
(-0.000579936 -0.00507864 0)
(-0.000756495 -0.00413327 0)
(-0.0007778 -0.00307774 0)
(-0.000621483 -0.00203803 0)
(-0.000313294 -0.0011453 0)
(0.000184446 -0.000460584 0)
(0.000642836 -0.000168931 0)
(0.000768281 -0.000202116 0)
(0.000517083 -0.000487648 0)
(-5.25347e-05 -0.0010513 0)
(-0.000577249 -0.00192758 0)
(-0.000696282 -0.00304206 0)
(-0.00041904 -0.00417451 0)
(-0.000115029 -0.00471842 0)
(2.54784e-05 -0.00491414 0)
(7.2948e-05 -0.0049895 0)
(0.000122209 -0.00499585 0)
(0.000184038 -0.00493233 0)
(0.000209802 -0.00483229 0)
(0.000191252 -0.00474117 0)
(0.000169276 -0.00462418 0)
(0.000145905 -0.00450102 0)
(9.36786e-05 -0.00490516 0)
(-1.56778e-05 -0.00454205 0)
(0.00132645 -0.00831611 0)
(-0.00299007 -0.00789723 0)
(-0.00133154 -0.00924055 0)
(-0.0035911 -0.00740554 0)
(0.00198147 -0.00304632 0)
(-0.00682639 -0.00317236 0)
(-0.00376762 -0.00542616 0)
(-0.00396716 -0.00425 0)
(-0.00107728 -0.00411948 0)
(-0.00256691 -0.00158403 0)
(-0.00176282 -0.00128315 0)
(-0.00272914 -0.000761635 0)
(0.00260883 0.000360865 0)
(0.00249839 -0.0014648 0)
(0.00158972 -0.00153995 0)
(0.00158141 -0.00288518 0)
(0.00120105 -0.00698962 0)
(-0.00333406 -0.00632469 0)
(-0.00290114 -0.00482128 0)
(-0.00421899 -0.00450693 0)
(0.00428337 -0.00328016 0)
(-0.000886723 -0.0052539 0)
(-0.000941892 -0.00575908 0)
(-0.00455114 -0.000373786 0)
(0.00437873 0.000770624 0)
(0.00018747 -0.00216854 0)
(0.000192396 -0.00170132 0)
(0.000620716 -0.00274821 0)
(0.000966173 -0.00229495 0)
(0.00125484 -0.00177993 0)
(0.00298396 -0.00217919 0)
(0.00130065 -0.00325443 0)
(0.00307845 -0.00324669 0)
(0.00297459 -0.00470164 0)
(0.00247752 -0.0064253 0)
(0.00250682 -0.00609029 0)
(0.00160277 -0.00634164 0)
(0.000731099 -0.00634518 0)
(0.000149556 -0.00680495 0)
(0.000141238 -0.00706484 0)
(0.000525138 -0.00728141 0)
(0.0005742 -0.0074734 0)
(0.000427866 -0.00762619 0)
(0.000241286 -0.00769896 0)
(0.000146013 -0.00765308 0)
(0.000100423 -0.00755315 0)
(9.53891e-05 -0.00732819 0)
(6.46738e-05 -0.00710399 0)
(-0.000135858 -0.00670077 0)
(-0.000521045 -0.00616624 0)
(-0.00103 -0.00542973 0)
(-0.0015602 -0.00461768 0)
(-0.00183975 -0.00376766 0)
(-0.00183689 -0.0029126 0)
(-0.00155494 -0.0020005 0)
(-0.00102505 -0.00123301 0)
(-0.000222068 -0.000634278 0)
(0.000593944 -0.000407223 0)
(0.000975303 -0.000525667 0)
(0.000924846 -0.000938667 0)
(0.000630433 -0.0015926 0)
(0.000417211 -0.00252066 0)
(0.000395023 -0.00357888 0)
(0.00039153 -0.00438488 0)
(0.000278642 -0.00473549 0)
(0.000152905 -0.00487745 0)
(0.000107518 -0.00492365 0)
(9.33121e-05 -0.00491627 0)
(9.97917e-05 -0.00485437 0)
(0.000118645 -0.00477991 0)
(0.00012755 -0.00470817 0)
(0.000119438 -0.00460879 0)
(0.000101653 -0.00449677 0)
(6.63088e-05 -0.00491822 0)
(-1.17703e-05 -0.00455491 0)
(-0.00195461 0.0121209 0)
(-0.00120231 0.00185074 0)
(-0.00252997 0.00326388 0)
(-0.00147172 0.00269874 0)
(-0.000479398 -0.000266115 0)
(-0.00506101 0.000401824 0)
(-0.0012837 -0.00319455 0)
(-0.00194368 -0.00402517 0)
(-0.000553342 -0.00466858 0)
(-0.00309898 -0.00847765 0)
(-0.000494106 -0.00674938 0)
(-0.0047404 -0.00223148 0)
(0.00427776 -0.000786985 0)
(0.0017627 -0.00627795 0)
(0.00193395 -0.00422708 0)
(0.00146579 -0.00399352 0)
(0.000937389 -0.00510392 0)
(-0.000744894 -0.00735332 0)
(-0.00388911 -0.00646592 0)
(0.00154845 0.00307103 0)
(0.00126838 -0.000499364 0)
(-0.00200875 -0.0102161 0)
(-0.00134052 -0.00865473 0)
(-0.00311773 0.00162571 0)
(5.51808e-05 0.00179079 0)
(-0.00171373 -0.0070618 0)
(0.000469603 -0.00270712 0)
(-7.11366e-06 -0.00236492 0)
(0.00214189 -0.00230815 0)
(0.00111631 -0.00167012 0)
(0.00239285 -0.00232945 0)
(0.00279081 -0.00307725 0)
(0.00317289 -0.00277046 0)
(0.00247503 -0.00340331 0)
(0.00297974 -0.00248287 0)
(0.00257461 -0.00148383 0)
(0.00183383 -0.00250025 0)
(0.00160182 -0.00286243 0)
(0.0015232 -0.00449215 0)
(0.00104889 -0.00628958 0)
(0.000989824 -0.00702543 0)
(0.000627605 -0.00727017 0)
(0.000324677 -0.00727258 0)
(1.06551e-05 -0.00733069 0)
(-0.000237796 -0.00716111 0)
(-0.000370684 -0.00699202 0)
(-0.00048597 -0.00671428 0)
(-0.000562128 -0.00635991 0)
(-0.000889431 -0.00586801 0)
(-0.00138228 -0.00533827 0)
(-0.0018641 -0.00480231 0)
(-0.00220037 -0.00446569 0)
(-0.00251244 -0.00407599 0)
(-0.00260188 -0.00373437 0)
(-0.0023486 -0.00323738 0)
(-0.00170068 -0.00275732 0)
(-0.000664969 -0.00225602 0)
(0.00050182 -0.00196571 0)
(0.00128155 -0.00200726 0)
(0.00159089 -0.00248342 0)
(0.00156015 -0.0031816 0)
(0.00139121 -0.00400307 0)
(0.00110888 -0.00459255 0)
(0.000706225 -0.00482018 0)
(0.000382992 -0.00481121 0)
(0.000220145 -0.00482683 0)
(0.000110195 -0.00484676 0)
(5.17492e-05 -0.00483444 0)
(3.67541e-05 -0.00479277 0)
(5.55548e-05 -0.0047403 0)
(7.81556e-05 -0.00468716 0)
(7.87314e-05 -0.00459799 0)
(6.80064e-05 -0.00449454 0)
(4.58367e-05 -0.00492847 0)
(-8.04974e-06 -0.00456421 0)
(-0.00216418 0.001514 0)
(0.000241768 -0.0023234 0)
(-0.00112969 -0.00473364 0)
(0.00164985 -0.00476838 0)
(0.000492107 -0.00856431 0)
(-0.000538325 -0.00674214 0)
(0.000424687 -0.00749063 0)
(0.00213749 -0.0117609 0)
(-0.00129453 -0.0121092 0)
(0.000866542 -0.0103481 0)
(-0.00196286 -0.0111836 0)
(-4.35161e-05 -0.00404834 0)
(-0.00231178 -0.000696902 0)
(-0.000556837 -0.0115226 0)
(-0.000631194 -0.00653894 0)
(0.00312694 -0.00599961 0)
(0.00167639 -0.00994033 0)
(0.00141857 -0.00874343 0)
(0.00181757 0.000976975 0)
(0.00364397 0.00368267 0)
(-0.00478132 -0.00548843 0)
(-0.00187553 -0.00634777 0)
(0.000204492 -0.00788757 0)
(0.00222716 -0.00306352 0)
(-0.00588287 -0.00247289 0)
(-0.00266682 -0.00539844 0)
(-0.00114062 -0.0039123 0)
(0.000344886 -0.00490266 0)
(0.000199246 -0.00638283 0)
(0.00177336 -0.00634436 0)
(0.00384213 -0.00625868 0)
(0.00358952 -0.00897721 0)
(0.00230512 -0.00877465 0)
(0.00224754 -0.00685914 0)
(0.00249128 -0.00624864 0)
(0.00222749 -0.00509813 0)
(0.00284934 -0.00481387 0)
(0.00291089 -0.00448042 0)
(0.00310923 -0.00445403 0)
(0.00254106 -0.00451119 0)
(0.00143028 -0.00413435 0)
(0.000755425 -0.00370747 0)
(0.000355101 -0.0032951 0)
(4.16895e-05 -0.00324283 0)
(-0.000190624 -0.0033122 0)
(-0.000350495 -0.00356042 0)
(-0.00057064 -0.00373563 0)
(-0.000756911 -0.00395298 0)
(-0.00107563 -0.00403155 0)
(-0.001508 -0.00419577 0)
(-0.00190957 -0.00441845 0)
(-0.00220003 -0.00468897 0)
(-0.00252692 -0.00501859 0)
(-0.00261563 -0.00514235 0)
(-0.00250403 -0.00518444 0)
(-0.00196642 -0.0051889 0)
(-0.000970374 -0.00506583 0)
(0.000393629 -0.00485611 0)
(0.00156731 -0.0047712 0)
(0.0020204 -0.00491099 0)
(0.00207429 -0.00505012 0)
(0.00179249 -0.00523358 0)
(0.0011953 -0.00520249 0)
(0.000600435 -0.00501777 0)
(0.00033215 -0.00488205 0)
(0.00020522 -0.00481299 0)
(0.000109959 -0.00478555 0)
(2.61934e-05 -0.00476865 0)
(-2.6982e-06 -0.004742 0)
(8.87511e-06 -0.00470393 0)
(4.18571e-05 -0.00466635 0)
(5.05703e-05 -0.00458874 0)
(4.48803e-05 -0.00449192 0)
(3.19062e-05 -0.00493581 0)
(-4.77055e-06 -0.00457089 0)
(0.00248379 -0.00259538 0)
(-0.000685363 -0.00661258 0)
(-0.00125671 -0.00588678 0)
(-0.00114537 -0.00516786 0)
(-0.00153468 -0.010839 0)
(0.0009195 -0.00840063 0)
(-0.00126061 -0.00699892 0)
(-0.000462448 -0.0102482 0)
(0.00037306 -0.00973867 0)
(0.000863891 -0.0114816 0)
(-0.00274248 -0.01214 0)
(0.00317219 -0.00721155 0)
(-0.00558017 -0.00751357 0)