/*--------------------------------*- C++ -*----------------------------------*\
  =========                 |
  \\      /  F ield         | OpenFOAM: The Open Source CFD Toolbox
   \\    /   O peration     | Website:  https://openfoam.org
    \\  /    A nd           | Version:  12
     \\/     M anipulation  |
\*---------------------------------------------------------------------------*/
FoamFile
{
    format      ascii;
    class       volVectorField::Internal;
    location    "0.9";
    object      cloud:UTrans;
}
// * * * * * * * * * * * * * * * * * * * * * * * * * * * * * * * * * * * * * //

dimensions      [1 1 -1 0 0 0 0];

value           nonuniform List<vector> 
3750
(
(-1.79589e-12 -9.10628e-10 0)
(1.31634e-12 -9.15772e-10 0)
(-4.51221e-12 -8.84227e-10 0)
(-1.226e-11 -8.03291e-10 0)
(6.90042e-11 -1.71864e-09 0)
(8.76318e-12 -1.79499e-09 0)
(1.14049e-11 -7.89702e-10 0)
(5.38718e-11 -7.45857e-10 0)
(-2.44285e-11 -9.94373e-10 0)
(-1.51789e-11 -1.93792e-09 0)
(5.88797e-12 -7.95101e-10 0)
(-2.19645e-11 -7.9773e-10 0)
(-9.57984e-11 -8.47923e-10 0)
(-9.69314e-12 -1.00696e-09 0)
(8.39507e-11 -9.51585e-10 0)
(4.02841e-11 -1.49691e-09 0)
(7.72607e-12 -6.66942e-10 0)
(3.58374e-12 -7.04189e-10 0)
(-1.34368e-11 -8.26963e-10 0)
(7.76912e-12 -7.94165e-10 0)
(0 0 0)
(4.03853e-12 -9.50248e-10 0)
(1.06794e-10 -1.04687e-09 0)
(3.02914e-11 -7.61955e-10 0)
(6.89692e-11 -1.78553e-09 0)
(4.54055e-11 -8.16618e-10 0)
(-4.04922e-12 -1.6474e-09 0)
(0 0 0)
(-3.16242e-11 -8.34532e-10 0)
(-1.80927e-10 -2.59353e-09 0)
(0 0 0)
(1.95454e-11 -7.85875e-10 0)
(-1.72487e-11 -8.39974e-10 0)
(-2.77593e-12 -8.33297e-10 0)
(-2.79055e-11 -7.86257e-10 0)
(-1.5366e-10 -1.79599e-09 0)
(-1.26246e-10 -1.81553e-09 0)
(-5.00895e-11 -7.4687e-10 0)
(-1.73034e-11 -8.32624e-10 0)
(-8.18475e-12 -8.7217e-10 0)
(-3.52883e-12 -8.77189e-10 0)
(-3.48484e-11 -8.65939e-10 0)
(-3.80397e-12 -8.46185e-10 0)
(0 0 0)
(0 0 0)
(0 0 0)
(0 0 0)
(0 0 0)
(0 0 0)
(0 0 0)
(0 0 0)
(0 0 0)
(0 0 0)
(0 0 0)
(0 0 0)
(0 0 0)
(0 0 0)
(0 0 0)
(0 0 0)
(0 0 0)
(0 0 0)
(0 0 0)
(0 0 0)
(0 0 0)
(0 0 0)
(0 0 0)
(0 0 0)
(0 0 0)
(0 0 0)
(0 0 0)
(0 0 0)
(0 0 0)
(0 0 0)
(0 0 0)
(0 0 0)
(0 0 0)
(0 0 0)
(0 0 0)
(4.32261e-11 -1.89484e-09 0)
(0 0 0)
(-5.17395e-11 -8.78011e-10 0)
(-6.14713e-11 -7.90178e-10 0)
(-1.04534e-10 -3.92989e-09 0)
(-1.23757e-11 -1.88319e-09 0)
(7.09717e-11 -1.60943e-09 0)
(0 0 0)
(0 0 0)
(0 0 0)
(-9.13741e-11 -1.00815e-09 0)
(1.2108e-10 -9.68399e-10 0)
(0 0 0)
(3.6821e-11 -1.60129e-09 0)
(-2.24333e-11 -1.61871e-09 0)
(-2.97182e-11 -8.04768e-10 0)
(-3.53897e-11 -1.29667e-09 0)
(-4.66187e-12 -2.92607e-10 0)
(0 0 0)
(0 0 0)
(7.92116e-11 -8.84532e-10 0)
(0 0 0)
(9.69163e-11 -2.87285e-09 0)
(-6.78913e-11 -1.48485e-09 0)
(-4.95482e-11 -5.75924e-10 0)
(0 0 0)
(0 0 0)
(5.64145e-11 -1.03556e-09 0)
(1.75921e-11 -8.99153e-10 0)
(9.76835e-12 -8.28186e-10 0)
(-2.18664e-11 -8.17241e-10 0)
(-4.96845e-11 -1.85787e-09 0)
(-3.61804e-11 -7.66816e-10 0)
(-3.6966e-11 -8.07897e-10 0)
(-8.18222e-11 -7.71989e-10 0)
(-4.31325e-11 -8.42272e-10 0)
(0 0 0)
(0 0 0)
(5.78981e-12 -8.67808e-10 0)
(0 0 0)
(0 0 0)
(0 0 0)
(0 0 0)
(0 0 0)
(0 0 0)
(0 0 0)
(0 0 0)
(0 0 0)
(0 0 0)
(0 0 0)
(0 0 0)
(0 0 0)
(0 0 0)
(0 0 0)
(0 0 0)
(0 0 0)
(0 0 0)
(0 0 0)
(0 0 0)
(0 0 0)
(0 0 0)
(0 0 0)
(0 0 0)
(0 0 0)
(0 0 0)
(0 0 0)
(0 0 0)
(0 0 0)
(0 0 0)
(0 0 0)
(0 0 0)
(0 0 0)
(0 0 0)
(3.82254e-11 -8.7085e-10 0)
(0 0 0)
(0 0 0)
(0 0 0)
(-1.30912e-10 -8.70834e-10 0)
(-2.03164e-10 -1.92496e-09 0)
(0 0 0)
(2.29463e-11 -9.6161e-10 0)
(5.59205e-11 -8.26865e-10 0)
(7.14124e-11 -7.56153e-10 0)
(9.16027e-11 -1.78795e-09 0)
(-2.12837e-11 -7.9595e-10 0)
(-1.34661e-10 -1.8977e-09 0)
(-6.17423e-11 -1.79975e-09 0)
(-2.30208e-11 -1.73767e-09 0)
(-9.08861e-11 -1.65535e-09 0)
(-5.56015e-11 -7.44152e-10 0)
(-6.27359e-11 -1.75328e-09 0)
(0 0 0)
(-8.43829e-12 -9.38942e-10 0)
(0 0 0)
(5.69436e-11 -1.92933e-09 0)
(1.6577e-10 -1.83823e-09 0)
(1.45194e-10 -1.93799e-09 0)
(-2.9643e-11 -9.06288e-10 0)
(0 0 0)
(4.44844e-14 -6.49984e-10 0)
(-3.97664e-11 -8.65367e-10 0)
(-1.68191e-11 -9.21798e-10 0)
(3.52402e-11 -1.9451e-09 0)
(2.83206e-11 -2.04983e-09 0)
(-2.06296e-11 -7.75418e-10 0)
(-8.5274e-11 -1.77846e-09 0)
(4.05807e-12 -6.83324e-10 0)
(0 0 0)
(0 0 0)
(0 0 0)
(0 0 0)
(0 0 0)
(0 0 0)
(0 0 0)
(0 0 0)
(0 0 0)
(0 0 0)
(0 0 0)
(0 0 0)
(0 0 0)
(0 0 0)
(0 0 0)
(0 0 0)
(0 0 0)
(0 0 0)
(0 0 0)
(0 0 0)
(0 0 0)
(0 0 0)
(0 0 0)
(0 0 0)
(0 0 0)
(0 0 0)
(0 0 0)
(0 0 0)
(0 0 0)
(0 0 0)
(0 0 0)
(0 0 0)
(0 0 0)
(0 0 0)
(0 0 0)
(0 0 0)
(0 0 0)
(0 0 0)
(0 0 0)
(0 0 0)
(2.07691e-11 -8.80229e-10 0)
(0 0 0)
(-8.10322e-12 -8.87836e-10 0)
(-3.75192e-13 -8.71916e-10 0)
(6.94664e-11 -9.28324e-10 0)
(-5.32663e-11 -9.46006e-10 0)
(-1.52978e-10 -1.92353e-09 0)
(1.31011e-13 -7.92079e-10 0)
(3.98007e-11 -8.22862e-10 0)
(4.80133e-11 -8.17197e-10 0)
(-4.68564e-12 -8.77946e-10 0)
(-2.32512e-12 -1.9792e-09 0)
(-1.53464e-10 -2.0093e-09 0)
(-1.6348e-10 -1.76593e-09 0)
(-3.89088e-11 -7.75017e-10 0)
(-2.0865e-11 -8.05065e-10 0)
(-3.43491e-11 -8.29956e-10 0)
(-2.04284e-11 -8.23891e-10 0)
(-9.53428e-12 -8.14435e-10 0)
(-3.97657e-11 -7.90293e-10 0)
(-1.95262e-12 -4.10823e-10 0)
(-4.8468e-13 -1.1474e-10 0)
(2.04701e-12 -8.64463e-10 0)
(2.43e-12 -8.34674e-10 0)
(2.57252e-11 -2.27535e-09 0)
(4.49632e-12 -8.89016e-10 0)
(-2.79726e-11 -7.84725e-10 0)
(-4.62518e-11 -8.74595e-10 0)
(0 0 0)
(-2.99486e-11 -8.90818e-10 0)
(3.22521e-11 -9.6255e-10 0)
(-2.55756e-10 -1.9798e-09 0)
(-7.49597e-11 -7.43734e-10 0)
(0 0 0)
(0 0 0)
(0 0 0)
(0 0 0)
(0 0 0)
(0 0 0)
(0 0 0)
(0 0 0)
(0 0 0)
(0 0 0)
(0 0 0)
(0 0 0)
(0 0 0)
(0 0 0)
(0 0 0)
(0 0 0)
(0 0 0)
(0 0 0)
(0 0 0)
(0 0 0)
(0 0 0)
(0 0 0)
(0 0 0)
(0 0 0)
(0 0 0)
(0 0 0)
(0 0 0)
(0 0 0)
(0 0 0)
(0 0 0)
(0 0 0)
(0 0 0)
(0 0 0)
(0 0 0)
(0 0 0)
(0 0 0)
(0 0 0)
(0 0 0)
(0 0 0)
(0 0 0)
(0 0 0)
(0 0 0)
(0 0 0)
(-7.74459e-12 -9.17927e-10 0)
(0 0 0)
(-3.95345e-11 -8.24008e-10 0)
(-2.98217e-11 -8.77183e-10 0)
(-1.48476e-10 -1.93434e-09 0)
(-5.00956e-11 -8.02083e-10 0)
(-8.33937e-11 -1.76613e-09 0)
(-8.30519e-11 -1.8984e-09 0)
(-1.871e-10 -1.93356e-09 0)
(0 0 0)
(-9.55825e-11 -2.35114e-09 0)
(0 0 0)
(-5.04662e-12 -8.79172e-10 0)
(4.69959e-12 -8.30719e-10 0)
(-3.11796e-13 -9.39679e-10 0)
(0 0 0)
(-3.78436e-12 -8.37262e-10 0)
(-2.062e-11 -1.99716e-09 0)
(-5.89729e-12 -7.78441e-10 0)
(6.33221e-12 -7.42037e-10 0)
(1.7468e-11 -7.87854e-10 0)
(7.02679e-14 -2.04938e-09 0)
(8.24985e-12 -8.53593e-10 0)
(-2.15915e-11 -9.02016e-10 0)
(6.99923e-12 -9.39847e-10 0)
(0 0 0)
(0 0 0)
(0 0 0)
(0 0 0)
(-9.8648e-11 -2.44504e-09 0)
(-5.27596e-11 -9.13956e-10 0)
(-4.32205e-11 -7.29881e-10 0)
(-7.07256e-11 -7.44444e-10 0)
(0 0 0)
(0 0 0)
(0 0 0)
(0 0 0)
(0 0 0)
(0 0 0)
(0 0 0)
(0 0 0)
(0 0 0)
(0 0 0)
(0 0 0)
(0 0 0)
(0 0 0)
(0 0 0)
(0 0 0)
(0 0 0)
(0 0 0)
(0 0 0)
(0 0 0)
(0 0 0)
(0 0 0)
(0 0 0)
(0 0 0)
(0 0 0)
(0 0 0)
(0 0 0)
(0 0 0)
(0 0 0)
(0 0 0)
(0 0 0)
(0 0 0)
(0 0 0)
(0 0 0)
(0 0 0)
(0 0 0)
(0 0 0)
(0 0 0)
(0 0 0)
(0 0 0)
(0 0 0)
(0 0 0)
(-1.96298e-12 -1.10525e-09 0)
(0 0 0)
(-4.51605e-11 -8.53359e-10 0)
(-4.62252e-11 -8.59138e-10 0)
(-5.41193e-11 -9.15357e-10 0)
(0 0 0)
(-1.19628e-11 -8.49318e-10 0)
(-3.22302e-11 -8.37545e-10 0)
(-1.29068e-11 -8.83093e-10 0)
(-1.49702e-10 -9.31561e-10 0)
(-1.07623e-10 -8.20051e-10 0)
(-8.45205e-11 -9.03015e-10 0)
(1.0212e-11 -9.43454e-10 0)
(2.51141e-11 -8.75227e-10 0)
(1.60856e-11 -8.91884e-10 0)
(-1.16773e-11 -8.94004e-10 0)
(2.48426e-13 -8.5576e-10 0)
(-2.61445e-12 -8.53961e-10 0)
(1.7078e-12 -8.59246e-10 0)
(-3.94565e-12 -7.92425e-10 0)
(-5.60565e-12 -7.94263e-10 0)
(-8.09831e-12 -8.59089e-10 0)
(-2.59835e-11 -8.72321e-10 0)
(-1.35293e-11 -8.3404e-10 0)
(2.46036e-11 -9.74106e-10 0)
(-2.39739e-11 -1.22023e-09 0)
(-1.50913e-11 -9.4174e-10 0)
(2.37607e-13 -6.95737e-10 0)
(-2.21588e-11 -8.58857e-10 0)
(-1.82285e-11 -8.54204e-10 0)
(-4.57882e-11 -9.67354e-10 0)
(0 0 0)
(-2.45641e-11 -8.2771e-10 0)
(0 0 0)
(0 0 0)
(0 0 0)
(0 0 0)
(0 0 0)
(0 0 0)
(0 0 0)
(0 0 0)
(0 0 0)
(0 0 0)
(0 0 0)
(0 0 0)
(0 0 0)
(0 0 0)
(0 0 0)
(0 0 0)
(0 0 0)
(0 0 0)
(0 0 0)
(0 0 0)
(0 0 0)
(0 0 0)
(0 0 0)
(0 0 0)
(0 0 0)
(0 0 0)
(0 0 0)
(0 0 0)
(0 0 0)
(0 0 0)
(0 0 0)
(0 0 0)
(0 0 0)
(0 0 0)
(0 0 0)
(0 0 0)
(0 0 0)
(0 0 0)
(0 0 0)
(0 0 0)
(0 0 0)
(0 0 0)
(-1.23799e-10 -2.04169e-09 0)
(3.84903e-11 -1.05789e-09 0)
(2.17328e-11 -7.76712e-10 0)
(-1.89286e-11 -8.66258e-10 0)
(-1.32237e-10 -1.79607e-09 0)
(-6.70646e-12 -1.73632e-09 0)
(-6.04156e-11 -8.42124e-10 0)
(-8.9164e-11 -9.57574e-10 0)
(-4.75621e-11 -1.0962e-09 0)
(0 0 0)
(-7.66818e-11 -9.08786e-10 0)
(-6.33445e-11 -8.95474e-10 0)
(4.6643e-11 -9.25272e-10 0)
(0 0 0)
(7.11435e-11 -1.92517e-09 0)
(6.97762e-12 -8.23992e-10 0)
(1.37273e-13 -7.76727e-10 0)
(-3.72575e-11 -7.91133e-10 0)
(-1.42117e-11 -8.69741e-10 0)
(0 0 0)
(-1.42153e-11 -8.49899e-10 0)
(-3.57908e-11 -8.56615e-10 0)
(-4.97187e-11 -8.50572e-10 0)
(-2.70081e-11 -8.63895e-10 0)
(-1.22498e-10 -2.41292e-09 0)
(1.45366e-11 -8.83019e-10 0)
(-2.68941e-12 -7.82688e-10 0)
(2.89025e-11 -1.88969e-09 0)
(-4.07177e-11 -7.98801e-10 0)
(-7.22407e-11 -1.26698e-09 0)
(-1.06582e-11 -4.17726e-10 0)
(-3.26425e-12 -9.4309e-10 0)
(0 0 0)
(0 0 0)
(0 0 0)
(0 0 0)
(0 0 0)
(0 0 0)
(0 0 0)
(0 0 0)
(0 0 0)
(0 0 0)
(0 0 0)
(0 0 0)
(0 0 0)
(0 0 0)
(0 0 0)
(0 0 0)
(0 0 0)
(0 0 0)
(0 0 0)
(0 0 0)
(0 0 0)
(0 0 0)
(0 0 0)
(0 0 0)
(0 0 0)
(0 0 0)
(0 0 0)
(0 0 0)
(0 0 0)
(0 0 0)
(0 0 0)
(0 0 0)
(0 0 0)
(0 0 0)
(0 0 0)
(0 0 0)
(0 0 0)
(0 0 0)
(0 0 0)
(0 0 0)
(0 0 0)
(0 0 0)
(0 0 0)
(-7.58834e-11 -6.70295e-10 0)
(4.20728e-11 -2.89647e-09 0)
(8.49571e-11 -7.14286e-10 0)
(1.63067e-11 -1.88646e-09 0)
(8.34011e-13 -7.20163e-11 0)
(8.26798e-12 -7.01935e-10 0)
(-4.71163e-12 -9.06617e-10 0)
(0 0 0)
(-1.28769e-10 -9.68861e-10 0)
(-5.53054e-12 -9.9553e-10 0)
(-5.60018e-13 -8.93776e-10 0)
(-9.09399e-12 -8.633e-10 0)
(3.74021e-11 -8.82088e-10 0)
(4.48213e-11 -7.92409e-10 0)
(-4.81887e-12 -8.34565e-10 0)
(-1.2727e-11 -8.19973e-10 0)
(1.4459e-11 -8.44449e-10 0)
(0 0 0)
(-3.06949e-11 -8.59952e-10 0)
(-9.39942e-12 -8.31722e-10 0)
(6.0062e-12 -8.86687e-10 0)
(-2.12863e-11 -5.29424e-10 0)
(-3.6453e-12 -8.18616e-11 0)
(-9.3501e-11 -9.0888e-10 0)
(-9.49492e-11 -9.27452e-10 0)
(-1.02715e-11 -9.56321e-10 0)
(1.13206e-11 -9.1975e-10 0)
(2.06386e-11 -8.9645e-10 0)
(-5.02178e-11 -1.91568e-09 0)
(-2.68726e-11 -8.80661e-10 0)
(-3.76509e-11 -8.77015e-10 0)
(3.26845e-14 -8.14944e-10 0)
(0 0 0)
(0 0 0)
(0 0 0)
(0 0 0)
(0 0 0)
(0 0 0)
(0 0 0)
(0 0 0)
(0 0 0)
(0 0 0)
(0 0 0)
(0 0 0)
(0 0 0)
(0 0 0)
(0 0 0)
(0 0 0)
(0 0 0)
(0 0 0)
(0 0 0)
(0 0 0)
(0 0 0)
(0 0 0)
(0 0 0)
(0 0 0)
(0 0 0)
(0 0 0)
(0 0 0)
(0 0 0)
(0 0 0)
(0 0 0)
(0 0 0)
(0 0 0)
(0 0 0)
(0 0 0)
(0 0 0)
(0 0 0)
(0 0 0)
(0 0 0)
(0 0 0)
(0 0 0)
(0 0 0)
(0 0 0)
(0 0 0)
(-1.08826e-12 -1.47361e-10 0)
(-4.1383e-12 -5.0904e-10 0)
(5.97533e-12 -9.27509e-10 0)
(0 0 0)
(2.12074e-11 -9.15402e-10 0)
(0 0 0)
(4.87204e-11 -9.86088e-10 0)
(-1.04086e-10 -9.85739e-10 0)
(-7.14187e-11 -9.40217e-10 0)
(1.60468e-11 -9.52345e-10 0)
(2.73536e-11 -8.79074e-10 0)
(1.08663e-11 -8.27934e-10 0)
(1.37315e-11 -8.10602e-10 0)
(9.0067e-12 -8.577e-10 0)
(-6.19506e-12 -8.34711e-10 0)
(-2.23611e-11 -8.34824e-10 0)
(-5.53129e-12 -8.5967e-10 0)
(-1.31627e-11 -8.05615e-10 0)
(0 0 0)
(-1.1021e-11 -8.31704e-10 0)
(-2.40077e-11 -8.3582e-10 0)
(-1.72828e-11 -1.07028e-09 0)
(0 0 0)
(0 0 0)
(0 0 0)
(3.91887e-12 -8.87305e-10 0)
(-8.33196e-13 -9.4674e-10 0)
(-1.2093e-11 -1.11267e-09 0)
(0 0 0)
(-1.03809e-10 -2.14374e-09 0)
(8.11264e-12 -8.165e-10 0)
(-3.60151e-11 -7.88582e-10 0)
(1.92682e-12 -1.7762e-09 0)
(0 0 0)
(0 0 0)
(0 0 0)
(0 0 0)
(0 0 0)
(0 0 0)
(0 0 0)
(0 0 0)
(0 0 0)
(0 0 0)
(0 0 0)
(0 0 0)
(0 0 0)
(0 0 0)
(0 0 0)
(0 0 0)
(0 0 0)
(0 0 0)
(0 0 0)
(0 0 0)
(0 0 0)
(0 0 0)
(0 0 0)
(0 0 0)
(0 0 0)
(0 0 0)
(0 0 0)
(0 0 0)
(0 0 0)
(0 0 0)
(0 0 0)
(0 0 0)
(0 0 0)
(0 0 0)
(0 0 0)
(0 0 0)
(0 0 0)
(0 0 0)
(0 0 0)
(0 0 0)
(0 0 0)
(0 0 0)
(0 0 0)
(1.36294e-11 -7.91912e-10 0)
(0 0 0)
(5.44408e-12 -8.57618e-10 0)
(0 0 0)
(1.22296e-11 -8.15597e-10 0)
(1.25989e-11 -1.07264e-09 0)
(0 0 0)
(2.90988e-11 -8.82157e-10 0)
(0 0 0)
(4.34339e-11 -1.937e-09 0)
(6.62613e-11 -7.91356e-10 0)
(6.90592e-11 -8.44344e-10 0)
(-4.81196e-11 -8.99334e-10 0)
(-1.08213e-10 -1.98866e-09 0)
(-2.06024e-11 -7.57358e-10 0)
(-2.75551e-12 -7.63774e-10 0)
(0 0 0)
(5.35154e-11 -7.78932e-10 0)
(-5.70049e-11 -7.57938e-10 0)
(-4.26823e-11 -8.48835e-10 0)
(0 0 0)
(4.10684e-11 -9.07141e-10 0)
(0 0 0)
(4.7641e-11 -1.85102e-09 0)
(-1.28063e-11 -9.29693e-10 0)
(0 0 0)
(-2.99065e-11 -1.1316e-09 0)
(0 0 0)
(0 0 0)
(1.65941e-11 -8.37608e-10 0)
(-4.76678e-11 -8.68519e-10 0)
(-8.29093e-11 -1.93035e-09 0)
(2.50537e-12 -7.57912e-10 0)
(2.52791e-11 -7.64084e-10 0)
(0 0 0)
(0 0 0)
(0 0 0)
(0 0 0)
(0 0 0)
(0 0 0)
(0 0 0)
(0 0 0)
(0 0 0)
(0 0 0)
(0 0 0)
(0 0 0)
(0 0 0)
(0 0 0)
(0 0 0)
(0 0 0)
(0 0 0)
(0 0 0)
(0 0 0)
(0 0 0)
(0 0 0)
(0 0 0)
(0 0 0)
(0 0 0)
(0 0 0)
(0 0 0)
(0 0 0)
(0 0 0)
(0 0 0)
(0 0 0)
(0 0 0)
(0 0 0)
(0 0 0)
(0 0 0)
(0 0 0)
(0 0 0)
(0 0 0)
(0 0 0)
(0 0 0)
(0 0 0)
(7.01576e-11 -1.69245e-09 0)
(0 0 0)
(-5.01825e-11 -7.64961e-10 0)
(-1.04595e-11 -8.43518e-10 0)
(7.91804e-13 -2.24086e-10 0)
(9.52181e-13 -4.0756e-10 0)
(-4.77882e-11 -8.15521e-10 0)
(1.31365e-10 -9.27932e-10 0)
(0 0 0)
(6.37315e-11 -8.71494e-10 0)
(0 0 0)
(8.37784e-12 -8.71184e-10 0)
(3.81103e-11 -1.13249e-09 0)
(0 0 0)
(0 0 0)
(-5.96397e-11 -2.84977e-09 0)
(7.23781e-12 -1.74439e-09 0)
(2.74884e-11 -7.43136e-10 0)
(-3.61851e-11 -1.87466e-09 0)
(0 0 0)
(-1.69876e-11 -7.69327e-10 0)
(1.50595e-11 -8.33503e-10 0)
(4.93338e-11 -8.65039e-10 0)
(0 0 0)
(1.19493e-12 -8.05529e-10 0)
(0 0 0)
(-8.02172e-12 -9.38424e-10 0)
(-4.42381e-11 -1.0598e-09 0)
(0 0 0)
(1.00212e-11 -8.83231e-10 0)
(-1.48452e-12 -8.545e-10 0)
(0 0 0)
(-2.60294e-11 -8.54246e-10 0)
(-4.07722e-11 -8.34876e-10 0)
(-1.99587e-11 -8.37585e-10 0)
(-6.8133e-12 -8.41873e-10 0)
(0 0 0)
(0 0 0)
(0 0 0)
(0 0 0)
(0 0 0)
(0 0 0)
(0 0 0)
(0 0 0)
(0 0 0)
(0 0 0)
(0 0 0)
(0 0 0)
(0 0 0)
(0 0 0)
(0 0 0)
(0 0 0)
(0 0 0)
(0 0 0)
(0 0 0)
(0 0 0)
(0 0 0)
(0 0 0)
(0 0 0)
(0 0 0)
(0 0 0)
(0 0 0)
(0 0 0)
(0 0 0)
(0 0 0)
(0 0 0)
(0 0 0)
(0 0 0)
(0 0 0)
(0 0 0)
(0 0 0)
(0 0 0)
(0 0 0)
(0 0 0)
(0 0 0)
(2.78079e-11 -1.71665e-09 0)
(4.15693e-11 -7.62631e-10 0)
(6.34671e-11 -1.93461e-09 0)
(1.97889e-11 -8.50604e-10 0)
(4.84573e-11 -8.97581e-10 0)
(-9.0471e-13 -8.51164e-10 0)
(2.11263e-11 -9.69093e-10 0)
(2.85623e-11 -7.38818e-10 0)
(1.00185e-10 -9.12617e-10 0)
(8.77138e-13 -5.71522e-11 0)
(1.00592e-11 -6.18598e-10 0)
(1.45418e-11 -8.19458e-10 0)
(-1.21061e-11 -9.50786e-10 0)
(6.65415e-11 -1.09717e-09 0)
(-2.79969e-11 -1.00667e-09 0)
(-7.48226e-12 -7.86407e-10 0)
(-3.69121e-11 -7.89453e-10 0)
(-5.49367e-12 -8.31554e-10 0)
(-6.78617e-11 -1.55301e-09 0)
(4.90399e-12 -9.10956e-10 0)
(4.03694e-12 -7.50176e-10 0)
(-2.81269e-12 -7.87246e-10 0)
(3.0425e-11 -8.58736e-10 0)
(0 0 0)
(0 0 0)
(7.60697e-11 -9.65792e-10 0)
(-5.72493e-11 -1.04785e-09 0)
(-6.0785e-11 -9.3356e-10 0)
(-1.42449e-11 -9.34013e-10 0)
(0 0 0)
(-4.58592e-11 -8.87446e-10 0)
(-2.71821e-11 -8.59198e-10 0)
(-1.2449e-11 -8.14264e-10 0)
(-7.19258e-12 -8.39768e-10 0)
(-2.28092e-12 -8.64864e-10 0)
(0 0 0)
(0 0 0)
(0 0 0)
(0 0 0)
(0 0 0)
(0 0 0)
(0 0 0)
(0 0 0)
(0 0 0)
(0 0 0)
(0 0 0)
(0 0 0)
(0 0 0)
(0 0 0)
(0 0 0)
(0 0 0)
(0 0 0)
(0 0 0)
(0 0 0)
(0 0 0)
(0 0 0)
(0 0 0)
(0 0 0)
(0 0 0)
(0 0 0)
(0 0 0)
(0 0 0)
(0 0 0)
(0 0 0)
(0 0 0)
(0 0 0)
(0 0 0)
(0 0 0)
(0 0 0)
(0 0 0)
(0 0 0)
(0 0 0)
(0 0 0)
(0 0 0)
(0 0 0)
(-3.22076e-12 -8.50965e-10 0)
(6.19476e-11 -9.71034e-10 0)
(-1.70584e-11 -9.78076e-10 0)
(3.7571e-11 -8.58364e-10 0)
(1.16983e-10 -1.78153e-09 0)
(3.46899e-11 -8.21685e-10 0)
(8.42172e-11 -1.91469e-09 0)
(6.49088e-11 -8.9963e-10 0)
(1.78276e-10 -1.97269e-09 0)
(4.77978e-11 -1.81764e-09 0)
(-9.25007e-12 -7.59262e-10 0)
(-2.45442e-11 -8.59697e-10 0)
(-3.70445e-11 -9.36656e-10 0)
(-1.04745e-11 -1.07849e-09 0)
(0 0 0)
(-1.01629e-11 -8.09151e-10 0)
(-2.98616e-11 -8.48195e-10 0)
(-5.06996e-11 -8.92254e-10 0)
(-4.66306e-11 -8.85428e-10 0)
(-2.98861e-11 -8.15732e-10 0)
(4.08837e-12 -1.82556e-09 0)
(8.65763e-12 -7.4055e-10 0)
(0 0 0)
(8.01735e-11 -1.81613e-09 0)
(5.07663e-12 -9.16288e-10 0)
(6.95424e-12 -1.14649e-09 0)
(0 0 0)
(-1.7694e-11 -9.01638e-10 0)
(8.35802e-12 -9.08257e-10 0)
(-3.5134e-11 -8.92341e-10 0)
(0 0 0)
(-3.53446e-11 -8.67192e-10 0)
(-7.91582e-11 -2.01884e-09 0)
(0 0 0)
(3.99803e-13 -8.22007e-10 0)
(0 0 0)
(0 0 0)
(0 0 0)
(0 0 0)
(0 0 0)
(0 0 0)
(0 0 0)
(0 0 0)
(0 0 0)
(0 0 0)
(0 0 0)
(0 0 0)
(0 0 0)
(0 0 0)
(0 0 0)
(0 0 0)
(0 0 0)
(0 0 0)
(0 0 0)
(0 0 0)
(0 0 0)
(0 0 0)
(0 0 0)
(0 0 0)
(0 0 0)
(0 0 0)
(0 0 0)
(0 0 0)
(0 0 0)
(0 0 0)
(0 0 0)
(0 0 0)
(0 0 0)
(0 0 0)
(0 0 0)
(0 0 0)
(0 0 0)
(0 0 0)
(0 0 0)
(0 0 0)
(-6.71479e-11 -7.75242e-10 0)
(-7.35537e-11 -2.25792e-09 0)
(3.00885e-11 -8.36266e-10 0)
(-6.78459e-13 -7.3454e-10 0)
(0 0 0)
(-5.29926e-12 -8.91157e-10 0)
(2.37322e-11 -8.61991e-10 0)
(1.44767e-10 -1.90742e-09 0)
(-6.89128e-11 -1.89758e-09 0)
(-4.01457e-13 -7.35686e-10 0)
(2.60451e-11 -8.03288e-10 0)
(-2.36951e-11 -8.94522e-10 0)
(-4.73212e-11 -8.85724e-10 0)
(-7.47956e-11 -8.73256e-10 0)
(-1.16717e-12 -9.64486e-10 0)
(3.41187e-11 -9.11206e-10 0)
(3.85706e-11 -8.87672e-10 0)
(-6.9371e-11 -9.32946e-10 0)
(-1.74055e-11 -8.55737e-10 0)
(9.84303e-12 -7.98176e-10 0)
(-7.85304e-12 -7.54553e-10 0)
(1.75235e-11 -7.1432e-10 0)
(3.53142e-11 -7.44268e-10 0)
(0 0 0)
(3.25931e-11 -8.83077e-10 0)
(-3.97575e-11 -2.16749e-09 0)
(0 0 0)
(6.07116e-11 -9.59482e-10 0)
(1.49261e-11 -9.17291e-10 0)
(-2.10825e-11 -9.21278e-10 0)
(6.11865e-13 -9.2136e-10 0)
(-4.6791e-11 -2.01923e-09 0)
(-5.99053e-11 -7.12061e-10 0)
(3.6469e-11 -1.79182e-09 0)
(0 0 0)
(0 0 0)
(0 0 0)
(0 0 0)
(0 0 0)
(0 0 0)
(0 0 0)
(0 0 0)
(0 0 0)
(0 0 0)
(0 0 0)
(0 0 0)
(0 0 0)
(0 0 0)
(0 0 0)
(0 0 0)
(0 0 0)
(0 0 0)
(0 0 0)
(0 0 0)
(0 0 0)
(0 0 0)
(0 0 0)
(0 0 0)
(0 0 0)
(0 0 0)
(0 0 0)
(0 0 0)
(0 0 0)
(0 0 0)
(0 0 0)
(0 0 0)
(0 0 0)
(0 0 0)
(0 0 0)
(0 0 0)
(0 0 0)
(0 0 0)
(0 0 0)
(0 0 0)
(0 0 0)
(0 0 0)
(-1.00442e-10 -8.54188e-10 0)
(3.54898e-12 -9.18313e-10 0)
(5.1496e-12 -2.64877e-10 0)
(2.7929e-11 -1.3368e-09 0)
(4.46768e-12 -7.35562e-10 0)
(3.0881e-11 -7.40859e-10 0)
(7.87076e-12 -2.24787e-09 0)
(-2.01063e-11 -8.68472e-10 0)
(1.90828e-11 -7.87746e-10 0)
(5.08097e-11 -9.53931e-10 0)
(-1.60317e-11 -9.81414e-10 0)
(-1.22109e-10 -1.95849e-09 0)
(-2.3458e-11 -8.3561e-10 0)
(2.01256e-11 -8.08974e-10 0)
(5.00685e-12 -8.04982e-10 0)
(2.33552e-11 -1.10593e-09 0)
(0 0 0)
(5.31039e-11 -8.5488e-10 0)
(4.69332e-11 -8.01339e-10 0)
(1.36479e-11 -7.68847e-10 0)
(4.51327e-11 -7.26096e-10 0)
(2.15893e-11 -7.56074e-10 0)
(1.5449e-11 -7.88108e-10 0)
(5.1207e-11 -8.97515e-10 0)
(0 0 0)
(3.67179e-11 -8.65911e-10 0)
(8.13949e-11 -1.00722e-09 0)
(-1.90148e-11 -2.04637e-09 0)
(-9.33258e-11 -7.84411e-10 0)
(-8.51712e-11 -1.84829e-09 0)
(5.53057e-12 -6.06587e-10 0)
(0 0 0)
(0 0 0)
(0 0 0)
(0 0 0)
(0 0 0)
(0 0 0)
(0 0 0)
(0 0 0)
(0 0 0)
(0 0 0)
(0 0 0)
(0 0 0)
(0 0 0)
(0 0 0)
(0 0 0)
(0 0 0)
(0 0 0)
(0 0 0)
(0 0 0)
(0 0 0)
(0 0 0)
(0 0 0)
(0 0 0)
(0 0 0)
(0 0 0)
(0 0 0)
(0 0 0)
(0 0 0)
(0 0 0)
(0 0 0)
(0 0 0)
(0 0 0)
(0 0 0)
(0 0 0)
(0 0 0)
(0 0 0)
(0 0 0)
(0 0 0)
(0 0 0)
(0 0 0)
(0 0 0)
(0 0 0)
(0 0 0)
(-2.73898e-11 -7.95373e-10 0)
(0 0 0)
(0 0 0)
(5.04696e-11 -8.34293e-10 0)
(-3.34514e-12 -8.32594e-10 0)
(0 0 0)
(-1.96266e-11 -8.42648e-10 0)
(-4.98594e-11 -9.7476e-10 0)
(0 0 0)
(8.55735e-12 -8.72376e-10 0)
(-3.39848e-11 -2.33358e-09 0)
(-2.02143e-11 -8.74598e-10 0)
(-4.49347e-11 -1.77944e-09 0)
(-4.23937e-11 -1.64077e-09 0)
(-5.01159e-11 -1.6878e-09 0)
(0 0 0)
(-3.43121e-11 -8.28234e-10 0)
(5.78505e-11 -8.85657e-10 0)
(7.33193e-11 -8.59181e-10 0)
(6.72176e-11 -7.84037e-10 0)
(2.79843e-11 -7.78854e-10 0)
(2.83996e-12 -7.16329e-10 0)
(1.89665e-11 -7.22302e-10 0)
(-1.35345e-11 -7.51511e-10 0)
(-3.74978e-11 -2.4268e-09 0)
(2.27606e-11 -9.05729e-10 0)
(1.16688e-10 -1.88417e-09 0)
(1.47868e-10 -2.06412e-09 0)
(-4.2912e-11 -9.2081e-10 0)
(-1.0393e-10 -8.55536e-10 0)
(0 0 0)
(0 0 0)
(0 0 0)
(0 0 0)
(0 0 0)
(0 0 0)
(0 0 0)
(0 0 0)
(0 0 0)
(0 0 0)
(0 0 0)
(0 0 0)
(0 0 0)
(0 0 0)
(0 0 0)
(0 0 0)
(0 0 0)
(0 0 0)
(0 0 0)
(0 0 0)
(0 0 0)
(0 0 0)
(0 0 0)
(0 0 0)
(0 0 0)
(0 0 0)
(0 0 0)
(0 0 0)
(0 0 0)
(0 0 0)
(0 0 0)
(0 0 0)
(0 0 0)
(0 0 0)
(0 0 0)
(0 0 0)
(0 0 0)
(0 0 0)
(0 0 0)
(0 0 0)
(0 0 0)
(0 0 0)
(0 0 0)
(0 0 0)
(0 0 0)
(0 0 0)
(-4.04775e-11 -1.77892e-09 0)
(5.96551e-12 -8.237e-10 0)
(5.94502e-11 -8.02091e-10 0)
(2.57903e-11 -8.38542e-10 0)
(0 0 0)
(-4.02331e-11 -9.00406e-10 0)
(0 0 0)
(4.49902e-12 -9.43085e-10 0)
(-7.66278e-11 -9.39162e-10 0)
(-6.36367e-11 -9.04756e-10 0)
(-1.96631e-11 -9.45559e-10 0)
(-2.44178e-11 -1.9494e-09 0)
(-4.64765e-11 -7.79248e-10 0)
(-8.81941e-11 -1.77629e-09 0)
(1.07712e-11 -1.8907e-09 0)
(-2.19463e-11 -8.43034e-10 0)
(6.59983e-11 -2.04177e-09 0)
(3.14921e-11 -7.59355e-10 0)
(7.09817e-11 -7.3965e-10 0)
(2.84562e-11 -7.74718e-10 0)
(1.92086e-11 -8.10226e-10 0)
(2.00367e-11 -8.41933e-10 0)
(-4.38319e-11 -9.26591e-10 0)
(0 0 0)
(8.16354e-12 -1.03534e-09 0)
(1.33588e-11 -1.8147e-09 0)
(-2.2587e-11 -3.48032e-09 0)
(-1.07598e-11 -2.30908e-09 0)
(-3.31398e-11 -7.58055e-10 0)
(0 0 0)
(0 0 0)
(0 0 0)
(0 0 0)
(0 0 0)
(0 0 0)
(0 0 0)
(0 0 0)
(0 0 0)
(0 0 0)
(0 0 0)
(0 0 0)
(0 0 0)
(0 0 0)
(0 0 0)
(0 0 0)
(0 0 0)
(0 0 0)
(0 0 0)
(0 0 0)
(0 0 0)
(0 0 0)
(0 0 0)
(0 0 0)
(0 0 0)
(0 0 0)
(0 0 0)
(0 0 0)
(0 0 0)
(0 0 0)
(0 0 0)
(0 0 0)
(0 0 0)
(0 0 0)
(0 0 0)
(0 0 0)
(0 0 0)
(0 0 0)
(0 0 0)
(0 0 0)
(0 0 0)
(0 0 0)
(0 0 0)
(0 0 0)
(0 0 0)
(0 0 0)
(-1.13927e-11 -9.14954e-10 0)
(4.9492e-12 -3.00182e-10 0)
(2.04653e-11 -1.26511e-09 0)
(3.40346e-11 -7.68338e-10 0)
(2.38559e-11 -8.3771e-10 0)
(-5.71976e-11 -9.47537e-10 0)
(0 0 0)
(0 0 0)
(-4.83415e-11 -2.00357e-09 0)
(-1.45676e-11 -9.23447e-10 0)
(0 0 0)
(8.398e-12 -3.51863e-10 0)
(-2.24778e-12 -1.2321e-09 0)
(0 0 0)
(1.69234e-11 -9.72024e-10 0)
(0 0 0)
(1.51066e-11 -8.68946e-10 0)
(6.12704e-11 -7.59883e-10 0)
(1.97258e-10 -1.65236e-09 0)
(6.4378e-11 -1.61815e-09 0)
(-6.0155e-12 -7.18182e-10 0)
(0 0 0)
(-2.51234e-11 -9.09644e-10 0)
(-3.07452e-11 -9.36597e-10 0)
(-1.36622e-10 -2.13247e-09 0)
(-7.32306e-11 -8.24071e-10 0)
(-2.13795e-10 -2.17024e-09 0)
(-2.87493e-11 -9.22264e-10 0)
(1.35165e-10 -2.02193e-09 0)
(1.99611e-11 -7.02328e-10 0)
(0 0 0)
(0 0 0)
(0 0 0)
(0 0 0)
(0 0 0)
(0 0 0)
(0 0 0)
(0 0 0)
(0 0 0)
(0 0 0)
(0 0 0)
(0 0 0)
(0 0 0)
(0 0 0)
(0 0 0)
(0 0 0)
(0 0 0)
(0 0 0)
(0 0 0)
(0 0 0)
(0 0 0)
(0 0 0)
(0 0 0)
(0 0 0)
(0 0 0)
(0 0 0)
(0 0 0)
(0 0 0)
(0 0 0)
(0 0 0)
(0 0 0)
(0 0 0)
(0 0 0)
(0 0 0)
(0 0 0)
(0 0 0)
(0 0 0)
(0 0 0)
(0 0 0)
(0 0 0)
(0 0 0)
(0 0 0)
(0 0 0)
(0 0 0)
(3.74696e-11 -8.98459e-10 0)
(0 0 0)
(8.21884e-11 -1.92329e-09 0)
(2.75423e-11 -7.5784e-10 0)
(4.09677e-11 -7.58118e-10 0)
(1.70789e-11 -9.35429e-10 0)
(0 0 0)
(0 0 0)
(-2.89268e-11 -1.85781e-09 0)
(0 0 0)
(-1.18814e-11 -8.90701e-10 0)
(-4.4197e-12 -9.76011e-10 0)
(0 0 0)
(-8.64443e-12 -9.1095e-10 0)
(0 0 0)
(0 0 0)
(-9.84308e-12 -9.08646e-10 0)
(5.56695e-11 -1.9457e-09 0)
(-6.47896e-12 -1.69305e-09 0)
(-1.31752e-11 -2.71416e-09 0)
(-5.82238e-11 -1.63205e-09 0)
(2.54292e-11 -7.44324e-10 0)
(-2.01455e-11 -9.03565e-10 0)
(-5.83146e-11 -9.06791e-10 0)
(-6.63059e-11 -9.6262e-10 0)
(-5.76756e-11 -8.28356e-10 0)
(-8.8092e-11 -1.55949e-09 0)
(-6.07545e-11 -1.44065e-09 0)
(1.62866e-11 -9.07656e-10 0)
(1.82412e-11 -8.56845e-10 0)
(0 0 0)
(0 0 0)
(0 0 0)
(0 0 0)
(0 0 0)
(0 0 0)
(0 0 0)
(0 0 0)
(0 0 0)
(0 0 0)
(0 0 0)
(0 0 0)
(0 0 0)
(0 0 0)
(0 0 0)
(0 0 0)
(0 0 0)
(0 0 0)
(0 0 0)
(0 0 0)
(0 0 0)
(0 0 0)
(0 0 0)
(0 0 0)
(0 0 0)
(0 0 0)
(0 0 0)
(0 0 0)
(0 0 0)
(0 0 0)
(0 0 0)
(0 0 0)
(0 0 0)
(0 0 0)
(0 0 0)
(0 0 0)
(0 0 0)
(0 0 0)
(0 0 0)
(0 0 0)
(0 0 0)
(0 0 0)
(0 0 0)
(0 0 0)
(0 0 0)
(4.38329e-11 -8.80344e-10 0)
(4.01459e-11 -8.76141e-10 0)
(4.07981e-11 -8.1786e-10 0)
(6.51182e-11 -8.24961e-10 0)
(0 0 0)
(3.89846e-11 -8.63864e-10 0)
(-6.23102e-11 -8.99268e-10 0)
(-2.52558e-11 -8.40489e-10 0)
(-2.57855e-12 -8.17351e-10 0)
(0 0 0)
(-3.2654e-11 -9.10648e-10 0)
(-1.1976e-11 -9.4006e-10 0)
(3.5313e-12 -9.37871e-10 0)
(3.18944e-12 -9.85621e-10 0)
(0 0 0)
(0 0 0)
(-9.25581e-11 -1.85383e-09 0)
(-9.40276e-11 -1.75767e-09 0)
(-7.69715e-11 -1.60078e-09 0)
(-1.57227e-11 -1.82138e-09 0)
(0 0 0)
(8.47074e-13 -6.65711e-10 0)
(-2.15738e-11 -1.45391e-09 0)
(-5.68218e-12 -2.44592e-10 0)
(-4.36723e-11 -8.80725e-10 0)
(-7.06434e-11 -9.16223e-10 0)
(-4.78408e-11 -9.22217e-10 0)
(-4.12584e-11 -8.99196e-10 0)
(1.80142e-11 -9.1512e-10 0)
(-6.39725e-11 -8.89465e-10 0)
(0 0 0)
(7.65927e-11 -7.72788e-10 0)
(5.26736e-11 -8.46602e-10 0)
(6.83202e-11 -8.02044e-10 0)
(0 0 0)
(0 0 0)
(0 0 0)
(0 0 0)
(0 0 0)
(0 0 0)
(0 0 0)
(0 0 0)
(0 0 0)
(0 0 0)
(0 0 0)
(0 0 0)
(0 0 0)
(0 0 0)
(0 0 0)
(0 0 0)
(0 0 0)
(0 0 0)
(0 0 0)
(0 0 0)
(0 0 0)
(0 0 0)
(0 0 0)
(0 0 0)
(0 0 0)
(0 0 0)
(0 0 0)
(0 0 0)
(0 0 0)
(0 0 0)
(0 0 0)
(0 0 0)
(0 0 0)
(0 0 0)
(0 0 0)
(0 0 0)
(0 0 0)
(0 0 0)
(0 0 0)
(0 0 0)
(0 0 0)
(4.69996e-11 -8.65317e-10 0)
(7.22271e-11 -8.62389e-10 0)
(6.05499e-11 -8.49655e-10 0)
(0 0 0)
(6.11657e-11 -7.31366e-10 0)
(2.85083e-11 -2.37776e-09 0)
(0 0 0)
(3.24586e-11 -9.18654e-10 0)
(2.25329e-11 -1.83458e-09 0)
(-1.23922e-11 -7.81769e-10 0)
(0 0 0)
(9.3257e-13 -9.01596e-10 0)
(0 0 0)
(3.81801e-11 -9.43362e-10 0)
(-1.36814e-10 -2.17596e-09 0)
(-1.19949e-10 -1.86867e-09 0)
(-1.34048e-10 -1.71373e-09 0)
(-5.43573e-11 -7.74722e-10 0)
(-8.13196e-11 -1.52168e-09 0)
(-1.50661e-11 -9.65524e-10 0)
(1.25417e-11 -7.7062e-10 0)
(0 0 0)
(1.83281e-11 -1.73618e-09 0)
(9.67045e-11 -2.14465e-09 0)
(-6.83786e-11 -9.39647e-10 0)
(0 0 0)
(-4.68002e-11 -8.80574e-10 0)
(-5.11882e-11 -8.34159e-10 0)
(-1.68684e-11 -1.11738e-09 0)
(0 0 0)
(0 0 0)
(3.74439e-11 -8.68863e-10 0)
(4.54097e-11 -9.08959e-10 0)
(7.13515e-11 -1.87803e-09 0)
(2.38445e-11 -7.39406e-10 0)
(0 0 0)
(0 0 0)
(0 0 0)
(0 0 0)
(0 0 0)
(0 0 0)
(0 0 0)
(0 0 0)
(0 0 0)
(0 0 0)
(0 0 0)
(0 0 0)
(0 0 0)
(0 0 0)
(0 0 0)
(0 0 0)
(0 0 0)
(0 0 0)
(0 0 0)
(0 0 0)
(0 0 0)
(0 0 0)
(0 0 0)
(0 0 0)
(0 0 0)
(0 0 0)
(0 0 0)
(0 0 0)
(0 0 0)
(0 0 0)
(0 0 0)
(0 0 0)
(0 0 0)
(0 0 0)
(0 0 0)
(0 0 0)
(0 0 0)
(0 0 0)
(0 0 0)
(0 0 0)
(-1.92546e-11 -7.56994e-10 0)
(3.53293e-11 -8.19482e-10 0)
(0 0 0)
(5.3934e-11 -8.08435e-10 0)
(-5.95981e-11 -1.84205e-09 0)
(-3.86552e-11 -7.99335e-10 0)
(3.1192e-11 -9.22345e-10 0)
(4.13807e-11 -2.02731e-09 0)
(-2.68857e-11 -1.00033e-09 0)
(-7.29572e-12 -1.62719e-09 0)
(-1.51082e-11 -8.49423e-10 0)
(0 0 0)
(-3.05175e-11 -8.62077e-10 0)
(1.69264e-11 -2.41241e-09 0)
(0 0 0)
(2.15693e-11 -8.29105e-10 0)
(-4.15181e-11 -8.34116e-10 0)
(-6.53527e-12 -8.47135e-10 0)
(0 0 0)
(-5.65905e-11 -8.12811e-10 0)
(-1.64802e-11 -8.35215e-10 0)
(0 0 0)
(-2.59023e-11 -7.7972e-10 0)
(3.07775e-11 -1.16288e-09 0)
(1.07553e-11 -5.06327e-10 0)
(4.05321e-12 -2.12574e-10 0)
(-7.39278e-12 -8.59644e-10 0)
(-3.2275e-11 -9.59563e-10 0)
(0 0 0)
(0 0 0)
(3.31234e-11 -9.07365e-10 0)
(2.52049e-11 -8.7549e-10 0)
(3.25896e-11 -8.53205e-10 0)
(0 0 0)
(0 0 0)
(0 0 0)
(0 0 0)
(0 0 0)
(0 0 0)
(0 0 0)
(0 0 0)
(0 0 0)
(0 0 0)
(0 0 0)
(0 0 0)
(0 0 0)
(0 0 0)
(0 0 0)
(0 0 0)
(0 0 0)
(0 0 0)
(0 0 0)
(0 0 0)
(0 0 0)
(0 0 0)
(0 0 0)
(0 0 0)
(0 0 0)
(0 0 0)
(0 0 0)
(0 0 0)
(0 0 0)
(0 0 0)
(0 0 0)
(0 0 0)
(0 0 0)
(0 0 0)
(0 0 0)
(0 0 0)
(0 0 0)
(0 0 0)
(0 0 0)
(0 0 0)
(0 0 0)
(0 0 0)
(1.02959e-11 -7.87196e-10 0)
(7.10479e-12 -7.52104e-10 0)
(-6.74699e-11 -6.83127e-10 0)
(-9.9582e-11 -1.60845e-09 0)
(-1.80847e-10 -1.70743e-09 0)
(-1.59638e-10 -1.91047e-09 0)
(-1.08341e-10 -1.95956e-09 0)
(-1.94664e-11 -8.39737e-10 0)
(0 0 0)
(-2.32732e-11 -8.55233e-10 0)
(-2.44878e-11 -8.75305e-10 0)
(-2.51834e-12 -8.93352e-10 0)
(0 0 0)
(-3.44768e-11 -9.44414e-10 0)
(0 0 0)
(4.14975e-11 -9.01619e-10 0)
(0 0 0)
(1.37048e-11 -8.46613e-10 0)
(-1.39451e-11 -8.88046e-10 0)
(0 0 0)
(0 0 0)
(1.58198e-11 -8.36201e-10 0)
(-3.52827e-11 -8.55192e-10 0)
(-7.15962e-11 -8.8158e-10 0)
(3.51006e-11 -1.15355e-09 0)
(0 0 0)
(4.54948e-11 -8.57866e-10 0)
(5.73566e-11 -9.92365e-10 0)
(1.14617e-11 -1.01456e-09 0)
(-1.97438e-11 -9.14653e-10 0)
(0 0 0)
(-2.00259e-11 -8.31243e-10 0)
(1.49075e-11 -8.44217e-10 0)
(-6.29192e-12 -1.82951e-09 0)
(2.71852e-11 -6.93401e-10 0)
(0 0 0)
(0 0 0)
(0 0 0)
(0 0 0)
(0 0 0)
(0 0 0)
(0 0 0)
(0 0 0)
(0 0 0)
(0 0 0)
(0 0 0)
(0 0 0)
(0 0 0)
(0 0 0)
(0 0 0)
(0 0 0)
(0 0 0)
(0 0 0)
(0 0 0)
(0 0 0)
(0 0 0)
(0 0 0)
(0 0 0)
(0 0 0)
(0 0 0)
(0 0 0)
(0 0 0)
(0 0 0)
(0 0 0)
(0 0 0)
(0 0 0)
(0 0 0)
(0 0 0)
(0 0 0)
(0 0 0)
(0 0 0)
(0 0 0)
(0 0 0)
(0 0 0)
(0 0 0)
(-4.87789e-11 -1.76537e-09 0)
(-5.04191e-11 -1.59755e-09 0)
(-7.75854e-11 -6.72176e-10 0)
(-1.44072e-10 -1.73391e-09 0)
(0 0 0)
(-6.9965e-11 -8.95129e-10 0)
(1.43555e-11 -8.7475e-10 0)
(-1.22326e-11 -8.34883e-10 0)
(0 0 0)
(0 0 0)
(1.13329e-11 -9.60274e-10 0)
(-2.66504e-11 -8.91651e-10 0)
(6.97615e-12 -8.59611e-10 0)
(0 0 0)
(3.11091e-11 -8.41732e-10 0)
(0 0 0)
(1.15862e-11 -9.07227e-10 0)
(0 0 0)
(-1.18308e-11 -8.79865e-10 0)
(0 0 0)
(2.29404e-11 -8.3022e-10 0)
(2.33952e-11 -8.6863e-10 0)
(0 0 0)
(-6.88734e-11 -8.99741e-10 0)
(-9.81312e-11 -1.01383e-09 0)
(0 0 0)
(3.46128e-11 -9.56681e-10 0)
(1.63647e-11 -2.06539e-09 0)
(8.42602e-11 -9.57308e-10 0)
(1.50686e-11 -8.86527e-10 0)
(-2.74537e-11 -8.27775e-10 0)
(-5.97531e-11 -7.73901e-10 0)
(-4.41753e-11 -1.81804e-09 0)
(-1.36759e-11 -7.63051e-10 0)
(0 0 0)
(0 0 0)
(0 0 0)
(0 0 0)
(0 0 0)
(0 0 0)
(0 0 0)
(0 0 0)
(0 0 0)
(0 0 0)
(0 0 0)
(0 0 0)
(0 0 0)
(0 0 0)
(0 0 0)
(0 0 0)
(0 0 0)
(0 0 0)
(0 0 0)
(0 0 0)
(0 0 0)
(0 0 0)
(0 0 0)
(0 0 0)
(0 0 0)
(0 0 0)
(0 0 0)
(0 0 0)
(0 0 0)
(0 0 0)
(0 0 0)
(0 0 0)
(0 0 0)
(0 0 0)
(0 0 0)
(0 0 0)
(0 0 0)
(0 0 0)
(0 0 0)
(0 0 0)
(0 0 0)
(2.58341e-11 -1.87981e-09 0)
(1.59101e-11 -1.8983e-09 0)
(-3.95895e-11 -6.91708e-10 0)
(0 0 0)
(-2.49612e-11 -7.93899e-10 0)
(0 0 0)
(0 0 0)
(2.83026e-11 -8.95145e-10 0)
(0 0 0)
(9.87686e-11 -9.63701e-10 0)
(-7.56416e-11 -1.63422e-09 0)
(-1.41281e-11 -2.70777e-10 0)
(7.54642e-12 -2.4974e-09 0)
(2.45094e-11 -1.13764e-09 0)
(8.92539e-12 -8.0349e-10 0)
(1.93642e-11 -8.46438e-10 0)
(4.50619e-12 -8.02356e-10 0)
(4.88865e-11 -8.35016e-10 0)
(1.38379e-11 -7.68088e-10 0)
(1.10856e-11 -8.45714e-10 0)
(1.83912e-11 -7.78888e-10 0)
(2.94047e-11 -7.75401e-10 0)
(9.65044e-11 -9.31293e-10 0)
(0 0 0)
(-2.24913e-11 -9.40059e-10 0)
(3.10016e-11 -8.20249e-10 0)