/*--------------------------------*- C++ -*----------------------------------*\
  =========                 |
  \\      /  F ield         | OpenFOAM: The Open Source CFD Toolbox
   \\    /   O peration     | Website:  https://openfoam.org
    \\  /    A nd           | Version:  12
     \\/     M anipulation  |
\*---------------------------------------------------------------------------*/
FoamFile
{
    format      ascii;
    class       volScalarField::Internal;
    location    "0.9";
    object      cloud:UCoeff;
}
// * * * * * * * * * * * * * * * * * * * * * * * * * * * * * * * * * * * * * //

dimensions      [1 0 0 0 0 0 0];

value           nonuniform List<scalar> 
3750
(
2.47478e-08
2.48015e-08
2.44697e-08
2.35924e-08
5.57983e-08
5.66257e-08
2.34408e-08
2.2965e-08
2.56088e-08
5.81135e-08
2.35004e-08
2.35329e-08
2.41389e-08
2.57322e-08
2.52098e-08
5.33386e-08
2.20123e-08
2.24573e-08
2.38536e-08
2.34902e-08
0
2.51583e-08
2.61793e-08
2.31336e-08
5.64943e-08
2.37526e-08
5.50208e-08
0
2.39416e-08
6.44816e-08
0
2.33997e-08
2.39963e-08
2.39217e-08
2.34068e-08
5.67053e-08
5.68906e-08
2.29735e-08
2.39162e-08
2.43417e-08
2.43948e-08
2.42821e-08
2.40618e-08
0
0
0
0
0
0
0
0
0
0
0
0
0
0
0
0
0
0
0
0
0
0
0
0
0
0
0
0
0
0
0
0
0
0
0
5.7683e-08
0
2.44197e-08
2.34719e-08
1.07935e-07
5.75463e-08
5.46173e-08
0
0
0
2.57846e-08
2.54201e-08
0
5.45193e-08
5.471e-08
2.36138e-08
3.85142e-08
8.47781e-09
0
0
2.45103e-08
0
9.77373e-08
5.32072e-08
2.08996e-08
0
0
2.60303e-08
2.46291e-08
2.38664e-08
2.37488e-08
5.72646e-08
2.31917e-08
2.36518e-08
2.32895e-08
2.40313e-08
0
0
2.42948e-08
0
0
0
0
0
0
0
0
0
0
0
0
0
0
0
0
0
0
0
0
0
0
0
0
0
0
0
0
0
0
0
0
0
0
2.43361e-08
0
0
0
2.44314e-08
5.80895e-08
0
2.52771e-08
2.3872e-08
2.3099e-08
5.65768e-08
2.35129e-08
5.77597e-08
5.6689e-08
5.60131e-08
5.51435e-08
2.29469e-08
5.61925e-08
0
2.50423e-08
0
5.80457e-08
5.7162e-08
5.81802e-08
2.47074e-08
0
2.18051e-08
2.42782e-08
2.48659e-08
5.81984e-08
5.92521e-08
2.32824e-08
5.64558e-08
2.22092e-08
0
0
0
0
0
0
0
0
0
0
0
0
0
0
0
0
0
0
0
0
0
0
0
0
0
0
0
0
0
0
0
0
0
0
0
0
0
0
0
0
2.44297e-08
0
2.45082e-08
2.43385e-08
2.4959e-08
2.51301e-08
5.80372e-08
2.34665e-08
2.3818e-08
2.37606e-08
2.44029e-08
5.85396e-08
5.89081e-08
5.63911e-08
2.32858e-08
2.3614e-08
2.38929e-08
2.38215e-08
2.37153e-08
2.34577e-08
1.14429e-08
3.24131e-09
2.42588e-08
2.39367e-08
6.14524e-08
2.45205e-08
2.33897e-08
2.43801e-08
0
2.45447e-08
2.52894e-08
5.87217e-08
2.29616e-08
0
0
0
0
0
0
0
0
0
0
0
0
0
0
0
0
0
0
0
0
0
0
0
0
0
0
0
0
0
0
0
0
0
0
0
0
0
0
0
0
0
0
0
2.48243e-08
0
2.38304e-08
2.44001e-08
5.81393e-08
2.35953e-08
5.63373e-08
5.77322e-08
5.8179e-08
0
6.21922e-08
0
2.4416e-08
2.38936e-08
2.50495e-08
0
2.39649e-08
5.87253e-08
2.33137e-08
2.28989e-08
2.34214e-08
5.92499e-08
2.41423e-08
2.46601e-08
2.50515e-08
0
0
0
0
6.30724e-08
2.47985e-08
2.27729e-08
2.29649e-08
0
0
0
0
0
0
0
0
0
0
0
0
0
0
0
0
0
0
0
0
0
0
0
0
0
0
0
0
0
0
0
0
0
0
0
0
0
0
0
0
0
2.66905e-08
0
2.41522e-08
2.42149e-08
2.48138e-08
0
2.40966e-08
2.39747e-08
2.44585e-08
2.50892e-08
2.38538e-08
2.47094e-08
2.50889e-08
2.43777e-08
2.45522e-08
2.45738e-08
2.41652e-08
2.41458e-08
2.42027e-08
2.34704e-08
2.34911e-08
2.42014e-08
2.4347e-08
2.39309e-08
2.54044e-08
3.10771e-08
2.5469e-08
1.89795e-08
2.42016e-08
2.41505e-08
2.53438e-08
0
2.38645e-08
0
0
0
0
0
0
0
0
0
0
0
0
0
0
0
0
0
0
0
0
0
0
0
0
0
0
0
0
0
0
0
0
0
0
0
0
0
0
0
0
0
0
6.16792e-08
3.12032e-08
2.32974e-08
2.57644e-08
5.47774e-08
5.60044e-08
2.40412e-08
2.52754e-08
2.66138e-08
0
2.47623e-08
2.46121e-08
2.49126e-08
0
5.7999e-08
2.38201e-08
2.32941e-08
2.34657e-08
2.43165e-08
0
2.41032e-08
2.41825e-08
2.41249e-08
2.42572e-08
6.27924e-08
2.4458e-08
2.33613e-08
5.76188e-08
2.3553e-08
3.63272e-08
1.17392e-08
2.50847e-08
0
0
0
0
0
0
0
0
0
0
0
0
0
0
0
0
0
0
0
0
0
0
0
0
0
0
0
0
0
0
0
0
0
0
0
0
0
0
0
0
0
0
0
2.21041e-08
9.79901e-08
2.26351e-08
5.75878e-08
2.05231e-09
2.01329e-08
2.47058e-08
0
2.54345e-08
2.56175e-08
2.45706e-08
2.42468e-08
2.44553e-08
2.34843e-08
2.39356e-08
2.37768e-08
2.40443e-08
0
2.42162e-08
2.3905e-08
2.44959e-08
1.3389e-08
2.08861e-09
2.47797e-08
2.49733e-08
2.52209e-08
2.48437e-08
2.46013e-08
5.78983e-08
2.44361e-08
2.44015e-08
2.37203e-08
0
0
0
0
0
0
0
0
0
0
0
0
0
0
0
0
0
0
0
0
0
0
0
0
0
0
0
0
0
0
0
0
0
0
0
0
0
0
0
0
0
0
0
4.35659e-09
1.51899e-08
2.49238e-08
0
2.48002e-08
0
2.55345e-08
2.55741e-08
2.50829e-08
2.5181e-08
2.44194e-08
2.38638e-08
2.36736e-08
2.41866e-08
2.39373e-08
2.39415e-08
2.42075e-08
2.36183e-08
0
2.3905e-08
2.39529e-08
2.63556e-08
0
0
0
2.45023e-08
2.51221e-08
2.67616e-08
0
6.02123e-08
2.37379e-08
2.34916e-08
5.63558e-08
0
0
0
0
0
0
0
0
0
0
0
0
0
0
0
0
0
0
0
0
0
0
0
0
0
0
0
0
0
0
0
0
0
0
0
0
0
0
0
0
0
0
0
2.34659e-08
0
2.41854e-08
0
2.37285e-08
2.63778e-08
0
2.44527e-08
0
5.81135e-08
2.34894e-08
2.40724e-08
2.46428e-08
5.86546e-08
2.30775e-08
2.31475e-08
0
2.33397e-08
2.31054e-08
2.4102e-08
0
2.4721e-08
0
5.72253e-08
2.49472e-08
0
2.69441e-08
0
0
2.39704e-08
2.43162e-08
5.80613e-08
2.30807e-08
2.31557e-08
0
0
0
0
0
0
0
0
0
0
0
0
0
0
0
0
0
0
0
0
0
0
0
0
0
0
0
0
0
0
0
0
0
0
0
0
0
0
0
0
5.28168e-08
0
2.31796e-08
2.40335e-08
6.43659e-09
1.1828e-08
2.37421e-08
2.50238e-08
0
2.43589e-08
0
2.43311e-08
2.6955e-08
0
0
9.74843e-08
5.60853e-08
2.29172e-08
5.74741e-08
0
2.32126e-08
2.39253e-08
2.428e-08
0
2.36162e-08
0
2.50369e-08
2.62613e-08
0
2.44596e-08
2.41516e-08
0
2.41531e-08
2.39497e-08
2.39709e-08
2.40153e-08
0
0
0
0
0
0
0
0
0
0
0
0
0
0
0
0
0
0
0
0
0
0
0
0
0
0
0
0
0
0
0
0
0
0
0
0
0
0
0
5.57893e-08
2.31473e-08
5.80992e-08
2.4112e-08
2.46245e-08
2.41156e-08
2.7406e-08
2.08941e-08
2.48258e-08
1.77051e-09
1.93387e-08
2.37714e-08
2.51644e-08
2.66324e-08
2.57327e-08
2.34034e-08
2.34468e-08
2.39028e-08
4.59854e-08
2.92344e-08
2.29923e-08
2.34124e-08
2.4203e-08
0
0
2.53473e-08
2.6151e-08
2.50067e-08
2.49921e-08
0
2.45163e-08
2.42068e-08
2.37138e-08
2.39924e-08
2.42631e-08
0
0
0
0
0
0
0
0
0
0
0
0
0
0
0
0
0
0
0
0
0
0
0
0
0
0
0
0
0
0
0
0
0
0
0
0
0
0
0
0
2.41135e-08
2.53902e-08
2.54431e-08
2.42021e-08
5.65238e-08
2.38025e-08
5.79058e-08
2.4657e-08
5.85585e-08
5.68811e-08
2.30967e-08
2.42113e-08
2.50258e-08
2.64341e-08
0
2.3657e-08
2.40892e-08
2.45698e-08
2.44953e-08
2.3735e-08
5.69455e-08
2.28821e-08
0
5.68744e-08
2.4807e-08
2.70808e-08
0
2.46553e-08
2.47233e-08
2.45628e-08
0
2.42957e-08
5.89584e-08
0
2.3798e-08
0
0
0
0
0
0
0
0
0
0
0
0
0
0
0
0
0
0
0
0
0
0
0
0
0
0
0
0
0
0
0
0
0
0
0
0
0
0
0
0
2.33101e-08
6.13095e-08
2.39599e-08
2.2812e-08
0
2.45432e-08
2.42357e-08
5.78613e-08
5.77149e-08
2.28253e-08
2.3596e-08
2.45818e-08
2.44988e-08
2.4387e-08
2.53037e-08
2.47605e-08
2.4515e-08
2.50066e-08
2.41669e-08
2.35352e-08
2.30428e-08
2.25789e-08
2.2934e-08
0
2.44637e-08
6.04229e-08
0
2.52722e-08
2.48186e-08
2.48614e-08
2.48597e-08
5.89001e-08
2.25795e-08
5.6586e-08
0
0
0
0
0
0
0
0
0
0
0
0
0
0
0
0
0
0
0
0
0
0
0
0
0
0
0
0
0
0
0
0
0
0
0
0
0
0
0
0
0
0
2.42117e-08
2.48281e-08
7.80138e-09
4.00234e-08
2.2824e-08
2.28925e-08
6.11962e-08
2.43042e-08
2.34206e-08
2.52097e-08
2.54766e-08
5.83734e-08
2.39504e-08
2.36571e-08
2.36103e-08
2.66993e-08
0
2.41735e-08
2.35849e-08
2.32064e-08
2.27304e-08
2.30632e-08
2.34237e-08
2.46254e-08
0
2.42826e-08
2.704e-08
5.7617e-08
2.34427e-08
5.71872e-08
2.1265e-08
0
0
0
0
0
0
0
0
0
0
0
0
0
0
0
0
0
0
0
0
0
0
0
0
0
0
0
0
0
0
0
0
0
0
0
0
0
0
0
0
0
0
0
2.35085e-08
0
0
2.39491e-08
2.3914e-08
0
2.40259e-08
2.54208e-08
0
2.43439e-08
6.20074e-08
2.43696e-08
5.64556e-08
5.49619e-08
5.54795e-08
0
2.38741e-08
2.45049e-08
2.42356e-08
2.34087e-08
2.33237e-08
2.26e-08
2.26727e-08
2.30089e-08
6.28898e-08
2.46994e-08
5.76045e-08
5.94464e-08
2.48645e-08
2.42306e-08
0
0
0
0
0
0
0
0
0
0
0
0
0
0
0
0
0
0
0
0
0
0
0
0
0
0
0
0
0
0
0
0
0
0
0
0
0
0
0
0
0
0
0
0
0
0
5.64605e-08
2.38168e-08
2.36025e-08
2.39831e-08
0
2.465e-08
0
2.50847e-08
2.50763e-08
2.47097e-08
2.51121e-08
5.82368e-08
2.33381e-08
5.64506e-08
5.76285e-08
2.40307e-08
5.91779e-08
2.31046e-08
2.29103e-08
2.32773e-08
2.36707e-08
2.40182e-08
2.49249e-08
0
2.60133e-08
5.68288e-08
1.03732e-07
6.17844e-08
2.30905e-08
0
0
0
0
0
0
0
0
0
0
0
0
0
0
0
0
0
0
0
0
0
0
0
0
0
0
0
0
0
0
0
0
0
0
0
0
0
0
0
0
0
0
0
0
0
0
2.47937e-08
8.75999e-09
3.79423e-08
2.32078e-08
2.39734e-08
2.5148e-08
0
0
5.8794e-08
2.48826e-08
0
1.02073e-08
3.54935e-08
0
2.53817e-08
0
2.43082e-08
2.31313e-08
5.52118e-08
5.47185e-08
2.26219e-08
0
2.47411e-08
2.50229e-08
6.01185e-08
2.38563e-08
6.0548e-08
2.48738e-08
5.89718e-08
2.24385e-08
0
0
0
0
0
0
0
0
0
0
0
0
0
0
0
0
0
0
0
0
0
0
0
0
0
0
0
0
0
0
0
0
0
0
0
0
0
0
0
0
0
0
0
0
2.46282e-08
0
5.79772e-08
2.30856e-08
2.30957e-08
2.50072e-08
0
0
5.72901e-08
0
2.4539e-08
2.54208e-08
0
2.47515e-08
0
0
2.47276e-08
5.82091e-08
5.55274e-08
9.60593e-08
5.48663e-08
2.293e-08
2.46761e-08
2.47272e-08
2.64351e-08
2.27876e-08
4.27302e-08
3.89297e-08
2.47182e-08
2.4179e-08
0
0
0
0
0
0
0
0
0
0
0
0
0
0
0
0
0
0
0
0
0
0
0
0
0
0
0
0
0
0
0
0
0
0
0
0
0
0
0
0
0
0
0
0
0
2.44399e-08
2.43934e-08
2.37636e-08
2.38586e-08
0
2.42618e-08
2.46512e-08
2.40041e-08
2.37469e-08
0
2.47541e-08
2.50542e-08
2.50309e-08
2.55177e-08
0
0
5.72716e-08
5.62539e-08
5.453e-08
5.69106e-08
0
2.19969e-08
4.13392e-08
6.85229e-09
2.44439e-08
2.48346e-08
2.48815e-08
2.46377e-08
2.47965e-08
2.45494e-08
0
2.32924e-08
2.4084e-08
2.36098e-08
0
0
0
0
0
0
0
0
0
0
0
0
0
0
0
0
0
0
0
0
0
0
0
0
0
0
0
0
0
0
0
0
0
0
0
0
0
0
0
0
0
2.42816e-08
2.42689e-08
2.41226e-08
0
2.28049e-08
6.24284e-08
0
2.48376e-08
5.70485e-08
2.3352e-08
0
2.4653e-08
0
2.50953e-08
6.05407e-08
5.74788e-08
5.57815e-08
2.3293e-08
4.61671e-08
2.91396e-08
2.32262e-08
0
5.59945e-08
6.02095e-08
2.50748e-08
0
2.4444e-08
2.39481e-08
2.6807e-08
0
0
2.43145e-08
2.47422e-08
5.75071e-08
2.28727e-08
0
0
0
0
0
0
0
0
0
0
0
0
0
0
0
0
0
0
0
0
0
0
0
0
0
0
0
0
0
0
0
0
0
0
0
0
0
0
0
0
2.3073e-08
2.37786e-08
0
2.36683e-08
5.71341e-08
2.35578e-08
2.48755e-08
5.90328e-08
2.98124e-08
4.96732e-08
2.40982e-08
0
2.42389e-08
6.27489e-08
0
2.38788e-08
2.39418e-08
2.40723e-08
0
2.37185e-08
2.39443e-08
0
2.33327e-08
2.72374e-08
1.22476e-08
5.18534e-09
2.42073e-08
2.52589e-08
0
0
2.47199e-08
2.43805e-08
2.41444e-08
0
0
0
0
0
0
0
0
0
0
0
0
0
0
0
0
0
0
0
0
0
0
0
0
0
0
0
0
0
0
0
0
0
0
0
0
0
0
0
0
0
0
2.34126e-08
2.30147e-08
2.22465e-08
5.46456e-08
5.57849e-08
5.79052e-08
5.83724e-08
2.39942e-08
0
2.41629e-08
2.43783e-08
2.45662e-08
0
2.51047e-08
0
2.46633e-08
0
2.40676e-08
2.45112e-08
0
0
2.39549e-08
2.41669e-08
2.44723e-08
2.71517e-08
0
2.42009e-08
2.56021e-08
2.5808e-08
2.47921e-08
0
2.39018e-08
2.40418e-08
5.69902e-08
2.23357e-08
0
0
0
0
0
0
0
0
0
0
0
0
0
0
0
0
0
0
0
0
0
0
0
0
0
0
0
0
0
0
0
0
0
0
0
0
0
0
0
0
5.63153e-08
5.4475e-08
2.21289e-08
5.60362e-08
0
2.46137e-08
2.437e-08
2.39399e-08
0
0
2.52613e-08
2.45524e-08
2.4207e-08
0
2.40197e-08
0
2.47129e-08
0
2.44241e-08
0
2.38915e-08
2.43067e-08
0
2.46612e-08
2.58472e-08
0
2.76465e-08
5.6271e-08
2.52683e-08
2.44953e-08
2.38662e-08
2.32882e-08
5.68775e-08
2.31406e-08
0
0
0
0
0
0
0
0
0
0
0
0
0
0
0
0
0
0
0
0
0
0
0
0
0
0
0
0
0
0
0
0
0
0
0
0
0
0
0
0
0
6.9918e-08
7.21831e-08
2.23227e-08
0
2.34912e-08
0
0
2.45898e-08
0
2.5347e-08
4.29334e-08
7.43376e-09
7.90883e-08
3.46273e-08
2.35941e-08
2.40669e-08
2.35811e-08
2.39559e-08
2.31978e-08
2.40574e-08
2.33209e-08
2.32855e-08
2.50144e-08
0
2.50562e-08
2.37851e-08
5.65174e-08
2.32208e-08
2.42763e-08
6.2769e-08
2.42359e-08
2.28188e-08
2.30736e-08
0
0
0
0
0
0
0
0
0
0
0
0
0
0
0
0
0
0
0
0
0
0
0
0
0
0
0
0
0
0
0
0
0
0
0
0
0
0
0
0
0
0
5.54166e-08
9.53896e-08
5.39942e-08
2.20473e-08
0
0
2.4601e-08
0
2.29263e-08
1.08211e-07
2.43317e-08
2.294e-08
2.32455e-08
2.43649e-08
0
2.31794e-08
0
2.42057e-08
2.43397e-08
0
2.32483e-08
2.29723e-08
6.26994e-08
2.4521e-08
2.36354e-08
5.69458e-08
2.34909e-08
2.38179e-08
2.45152e-08
2.56883e-08
0
2.42238e-08
0
0
0
0
0
0
0
0
0
0
0
0
0
0
0
0
0
0
0
0
0
0
0
0
0
0
0
0
0
0
0
0
0
0
0
0
0
0
0
0
0
0
0
2.38088e-08
2.38257e-08
2.42198e-08
2.35771e-08
2.36236e-08
5.59285e-08
5.65295e-08
5.81216e-08
0
0
2.43044e-08
2.40318e-08
0
2.50464e-08
0
2.31946e-08
2.43522e-08
2.41697e-08
2.40796e-08
5.68983e-08
7.00376e-08
4.21347e-08
2.42708e-08
5.97399e-08
2.39842e-08
2.37828e-08
2.41606e-08
2.52982e-08
0
2.52006e-08
2.53269e-08
0
2.40666e-08
0
0
0
0
0
0
0
0
0
0
0
0
0
0
0
0
0
0
0
0
0
0
0
0
0
0
0
0
0
0
0
0
0
0
0
0
0
0
0
0
0
0
2.34208e-08
2.3664e-08
0
2.44189e-08
2.34912e-08
2.34577e-08
5.56631e-08
1.05584e-07
2.45956e-08
6.00107e-08
0
2.35048e-08
2.29873e-08
2.48229e-08
2.52524e-08
5.48416e-08
2.44366e-08
2.47565e-08
0
2.42762e-08
2.35504e-08
5.71506e-08
2.42753e-08
2.44182e-08
2.4672e-08
0
2.43981e-08
2.44007e-08
2.61368e-08
1.00086e-08
7.0126e-09
5.69932e-08
2.30032e-08
0
0
0
0
0
0
0
0
0
0
0
0
0
0
0
0
0
0
0
0
0
0
0
0
0
0
0
0
0
0
0
0
0
0
0
0
0
0
0
0
0
0
0
2.41335e-08
0
2.41971e-08
4.1406e-08
4.35913e-09
0
2.44693e-08
6.52288e-08
2.42982e-08
2.35894e-08
2.27228e-08
2.34958e-08
2.35792e-08
0
2.42524e-08
2.45355e-08
4.72804e-08
2.95755e-08
5.80639e-08
2.29355e-08
2.33958e-08
1.03102e-07
2.37416e-08
0
0
5.64665e-08
2.33153e-08
2.64398e-08
0
2.37115e-08
0
0
0
5.67173e-08
2.29934e-08
0
0
0
0
0
0
0
0
0
0
0
0
0
0
0
0
0
0
0
0
0
0
0
0
0
0
0
0
0
0
0
0
0
0
0
0
0
0
0
0
2.42897e-08
2.39781e-08
2.38393e-08
2.30312e-08
2.41216e-08
0
0
2.6256e-08
0
0
2.3926e-08
5.84104e-08
2.25507e-08
2.3149e-08
5.71018e-08
2.41493e-08
2.45146e-08
2.43197e-08
2.43175e-08
2.40214e-08
2.36858e-08
2.4522e-08
2.45191e-08
2.41791e-08
0
2.31084e-08
2.3672e-08
2.4429e-08
2.51297e-08
0
0
0
2.44158e-08
2.40335e-08
2.34583e-08
0
0
0
0
0
0
0
0
0
0
0
0
0
0
0
0
0
0
0
0
0
0
0
0
0
0
0
0
0
0
0
0
0
0
0
0
0
0
0
2.31792e-08
2.39277e-08
5.67001e-08
2.22967e-08
0
2.37939e-08
2.44337e-08
2.55139e-08
2.7246e-08
0
2.45546e-08
0
2.3953e-08
5.73988e-08
5.6228e-08
2.3275e-08
5.75994e-08
2.31706e-08
6.15663e-08
2.45157e-08
2.30428e-08
2.27522e-08
2.42881e-08
2.71658e-08
0
2.45064e-08
5.65692e-08
2.34866e-08
2.36907e-08
5.88544e-08
2.34231e-08
0
2.4402e-08
2.43644e-08
0
0
0
0
0
0
0
0
0
0
0
0
0
0
0
0
0
0
0
0
0
0
0
0
0
0
0
0
0
0
0
0
0
0
0
0
0
0
0
0
0
5.57397e-08
5.57888e-08
2.31625e-08
0
2.30006e-08
2.32748e-08
2.37787e-08
2.49645e-08
2.45433e-08
2.52366e-08
2.41246e-08
5.69691e-08
5.58628e-08
2.18961e-08
5.5141e-08
5.55787e-08
5.52427e-08
2.31841e-08
2.48732e-08
2.56947e-08
2.40469e-08
2.35239e-08
2.5424e-08
6.05056e-10
2.51597e-08
2.43452e-08
0
5.67725e-08
2.31555e-08
2.33706e-08
2.34454e-08
5.95326e-08
0
0
0
0
0
0
0
0
0
0
0
0
0
0
0
0
0
0
0
0
0
0
0
0
0
0
0
0
0
0
0
0
0
0
0
0
0
0
0
0
0
0
0
5.55141e-08
0
2.3629e-08
0
5.713e-08
2.46054e-08
2.39341e-08
2.49207e-08
0
5.93812e-08
5.80641e-08
5.64723e-08
3.98493e-08
7.09301e-08
2.15174e-08
5.73067e-08
2.29562e-08
2.37162e-08
2.63615e-08
0
2.43797e-08
2.36832e-08
2.48186e-08
2.55479e-08
2.48319e-08
0
2.42173e-08
5.8247e-08
2.26869e-08
5.73373e-08
2.46006e-08
0
0
0
0
0
0
0
0
0
0
0
0
0
0
0
0
0
0
0
0
0
0
0
0
0
0
0
0
0
0
0
0
0
0
0
0
0
0
0
0
0
0
0
0
2.41001e-08
0
5.80756e-08
0
2.39212e-08
2.40415e-08
5.73739e-08
2.40982e-08
2.45315e-08
0
0
0
0
0
5.66751e-08
6.00345e-08
5.62852e-08
2.42465e-08
5.54988e-08
2.47404e-08
2.38609e-08
2.32564e-08
6.22523e-08
2.479e-08
2.35576e-08
0
2.35154e-08
5.70508e-08
2.22295e-08
2.27972e-08
6.13258e-08
0
0
0
0
0
0
0
0
0
0
0
0
0
0
0
0
0
0
0
0
0
0
0
0
0
0
0
0
0
0
0
0
0
0
0
0
0
0
0
0
0
0
0
0
2.4316e-08
2.39292e-08
2.40124e-08
5.78474e-08
2.30427e-08
0
0
0
0
2.42828e-08
2.51385e-08
2.50091e-08
5.65597e-08
2.35664e-08
2.30859e-08
2.45042e-08
2.38178e-08
2.32468e-08
2.40847e-08
2.44322e-08
9.69885e-08
2.33407e-08
2.50019e-08
2.61159e-08
2.4679e-08
5.67542e-08
5.67785e-08
2.29567e-08
2.32083e-08
1.02217e-08
3.50393e-08
2.43036e-08
0
0
0
0
0
0
0
0
0
0
0
0
0
0
0
0
0
0
0
0
0
0
0
0
0
0
0
0
0
0
0
0
0
0
0
0
0
0
0
0
0
0
0
5.6516e-08
5.56628e-08
2.2791e-08
2.28069e-08
2.31001e-08
5.68053e-08
2.35136e-08
2.63931e-08
0
2.38102e-08
6.29038e-08
0
5.51758e-08
2.21718e-08
5.40088e-08
2.3322e-08
2.43533e-08
2.48016e-08
0
0
2.48033e-08
2.46888e-08
6.00155e-08
2.39707e-08
5.73836e-08
5.75188e-08
2.33809e-08
2.35521e-08
2.43313e-08
0
2.43412e-08
2.47786e-08
0
0
0
0
0
0
0
0
0
0
0
0
0
0
0
0
0
0
0
0
0
0
0
0
0
0
0
0
0
0
0
0
0
0
0
0
0
0
0
0
0
0
0
2.2775e-08
2.25673e-08
5.63238e-08
2.30304e-08
2.33255e-08
3.88537e-08
7.1475e-09
2.41691e-08
2.49493e-08
2.34199e-08
5.82957e-08
2.4387e-08
2.15082e-08
2.43007e-08
0
2.42819e-08
2.43562e-08
2.39156e-08
2.40579e-08
2.39173e-08
2.40997e-08
5.88177e-08
2.36755e-08
3.96083e-08
3.9598e-08
2.4097e-08
2.44413e-08
2.45905e-08
2.42331e-08
2.42784e-08
2.43202e-08
2.45149e-08
0
0
0
0
0
0
0
0
0
0
0
0
0
0
0
0
0
0
0
0
0
0
0
0
0
0
0
0
0
0
0
0
0
0
0
0
0
0
0
0
0
0
0
2.36262e-08
2.30243e-08
2.26299e-08
6.01191e-08
2.36492e-08
2.26227e-08
2.72646e-08
5.36081e-08
9.64768e-08
2.35065e-08
2.39238e-08
2.47755e-08
0
2.39953e-08
0
0
2.34928e-08
5.83757e-08
2.30818e-08
4.48755e-08
3.08038e-08
2.37432e-08
2.44701e-08
2.44382e-08
0
2.36426e-08
2.49072e-08
2.55687e-08
2.46042e-08
2.37493e-08
2.42422e-08
2.45302e-08
0
0
0
0
0
0
0
0
0
0
0
0
0
0
0
0
0
0
0
0
0
0
0
0
0
0
0
0
0
0
0
0
0
0
0
0
0
0
0
0
0
0
0
3.44327e-08
2.33506e-08
2.35819e-08
1.06405e-09
5.57076e-08
2.3997e-08
2.38974e-08
2.38655e-08
2.40821e-08
0
0
0
2.30754e-08
0
5.76498e-08
2.32577e-08
5.91287e-08
2.43716e-08
2.38713e-08
0
5.70722e-08
2.2711e-08
6.05055e-08
2.38591e-08
2.22205e-08
5.51284e-08
6.22914e-08
2.42346e-08
2.23127e-08
2.31843e-08
2.42211e-08
2.46947e-08
0
2.4401e-08
0
0
0
0
0
0
0
0
0
0
0
0
0
0
0
0
0
0
0
0
0
0
0
0
0
0
0
0
0
0
0
0
0
0
0
0
0
0
0
0
0
5.79074e-08
2.31337e-08
2.37898e-08
0
2.40617e-08
2.40741e-08
2.36191e-08
2.35911e-08
2.41869e-08
2.45481e-08
0
2.45759e-08
2.33218e-08
2.42836e-08
2.55904e-08
2.43188e-08
2.43771e-08
1.2996e-08
2.79323e-09
5.90344e-08
0
2.39666e-08
2.47089e-08
5.94155e-08
0
0
2.45939e-08
6.16165e-08
2.26386e-08
2.30967e-08
2.41508e-08
5.94065e-08
2.41836e-08
0
0
0
0
0
0
0
0
0
0
0
0
0
0
0
0
0
0
0
0
0
0
0
0
0
0
0
0
0
0
0
0
0
0
0
0
0
0
0
0
0
0
2.40682e-08
5.682e-08
2.3489e-08
2.43555e-08
0
2.35435e-08
2.30459e-08
2.42312e-08
0
2.46574e-08
3.69022e-08
4.31412e-08
2.27887e-08
2.27876e-08
6.1925e-08
2.33593e-08
2.29587e-08
2.61131e-08
0
0
2.35848e-08
2.44691e-08
0
5.90505e-08
2.38044e-08
2.3551e-08
6.21887e-08
2.39932e-08
2.22034e-08
5.57984e-08
2.4287e-08
2.41778e-08
2.28831e-08
2.35669e-08
0
0
0
0
0
0
0
0
0
0
0
0
0
0
0
0
0
0
0
0
0
0
0
0
0
0
0
0
0
0
0
0
0
0
0
0
0
0
0
0
0
2.45663e-08
0
9.9378e-08
5.59263e-08
2.23539e-08
2.36795e-08
0
5.86406e-08
0
5.76893e-08
4.13757e-08
3.69988e-08
2.29548e-08
1.3783e-08
6.27658e-10
5.93533e-08
5.72833e-08
2.33446e-08
2.24402e-08
2.31197e-08
2.27641e-08
2.34534e-08
2.51901e-08
2.4481e-08
2.37169e-08
2.48083e-08
2.44502e-08
2.39462e-08
2.33157e-08
2.33066e-08
6.17217e-08
2.48417e-08
2.37624e-08
2.3685e-08
2.40961e-08
0
0
0
0
0
0
0
0
0
0
0
0
0
0
0
0
0
0
0
0
0
0
0
0
0
0
0
0
0
0
0
0
0
0
0
0
0
0
0
0
2.4316e-08
2.42446e-08
0
2.36278e-08
2.39349e-08
5.81404e-08
2.37213e-08
2.40848e-08
2.42334e-08
0
0
2.51286e-08
0
2.41928e-08
2.51658e-08
0
5.84053e-08
2.41474e-08
2.44621e-08
5.75617e-08
0
2.39927e-08
2.60469e-08
2.60082e-08
0
2.42923e-08
2.38804e-08
2.37951e-08
2.38099e-08
2.41413e-08
2.46255e-08
2.50145e-08
2.46953e-08
5.90031e-08
0
0
0
0
0
0
0
0
0
0
0
0
0
0
0
0
0
0
0
0
0
0
0
0
0
0
0
0
0
0
0
0
0
0
0
0
0
0
0
0
0
0
2.45615e-08
2.41e-08
2.37627e-08
2.38261e-08
2.37964e-08
6.02557e-08
2.34805e-08
0
0
2.38368e-08
6.15276e-08
2.40667e-08
0
2.45481e-08
2.23475e-08
2.37088e-08
0
5.95222e-08
0
2.36152e-08
2.33728e-08
6.31409e-08
2.68876e-08
0
2.30075e-08
2.25889e-08
5.5954e-08
2.33858e-08
2.41369e-08
2.40718e-08
2.43326e-08
2.4663e-08
2.35709e-08
2.67606e-08
0
0
0
0
0
0
0
0
0
0
0
0
0
0
0
0
0
0
0
0
0
0
0
0
0
0
0
0
0
0
0
0
0
0
0
0
0
0
0
0
5.4677e-08
2.20725e-08
2.25534e-08
2.3292e-08
2.43869e-08
2.51134e-08
2.48313e-08
2.44241e-08
0
2.40155e-08
2.41004e-08
2.43583e-08
2.41729e-08
6.18086e-08
2.44293e-08
0
0
2.37675e-08
0
2.37076e-08
4.18152e-08
3.44815e-08
5.88386e-08
6.12743e-08
2.35773e-08
0
2.36129e-08
2.35934e-08
5.85779e-08
2.37633e-08
0
2.44969e-08
0
4.62094e-08
3.39005e-08
2.66504e-08
0
0
0
0
0
0
0
0
0
0
0
0
0
0
0
0
0
0
0
0
0
0
0
0
0
0
0
0
0
0
0
0
0
0
0
0
0
0
0
5.51187e-08
2.16066e-08
0
0
2.50863e-08
2.60878e-08
2.49387e-08
4.81174e-08
2.97726e-08
2.32809e-08
2.42011e-08
3.91302e-08
3.98049e-08
2.58651e-08
0
2.36837e-08
2.3713e-08
2.38881e-08
2.30587e-08
5.74026e-08
0
2.39892e-08
5.98761e-08
2.39551e-08
2.35508e-08
2.39659e-08
2.38385e-08
2.43102e-08
2.41092e-08
2.44841e-08
3.47526e-08
4.64928e-08
2.33804e-08
2.32184e-08
2.48444e-08
0
2.58023e-08
2.44755e-08
0
0
0
0
0
0
0
0
0
0
0
0
0
0
0
0
0
0
0
0
0
0
0
0
0
0
0
0
0
0
0
0
0
0
0
0
0
0
5.57098e-08
2.22542e-08
0
2.67556e-08
2.49467e-08
2.34915e-08
2.4356e-08
2.44296e-08
2.44029e-08
3.84983e-08
9.90543e-09
2.48746e-08
2.47702e-08
5.79195e-08
5.59937e-08
5.51848e-08
5.57899e-08
0
2.4291e-08
0
2.41161e-08
0
2.4951e-08
0
2.36558e-08
2.51521e-08
2.46401e-08
0
0
0
0
2.53742e-08
2.53382e-08
2.43746e-08
2.43819e-08
2.43388e-08
2.43071e-08
2.41767e-08
0
0
0
0
0
0
0
0
0
0
0
0
0
0
0
0
0
0
0
0
0
0
0
0
0
0
0
0
0
0
0
0
0
0
0
0
5.83091e-08
2.30267e-08
5.30656e-08
5.44636e-08
2.53711e-08
0
2.50008e-08
2.49127e-08
2.48541e-08
2.40165e-08
2.42967e-08
2.4461e-08
0
5.65394e-08
2.43111e-08
2.47241e-08
0
2.40268e-08
2.44098e-08
2.38562e-08
2.42948e-08
3.32046e-08
1.4544e-08
2.45885e-08
5.69582e-08
5.64977e-08
2.3668e-08
2.37383e-08
2.43052e-08
0
0
2.56908e-08
2.4744e-08
2.42316e-08
2.34304e-08
2.41984e-08
0
2.47604e-08
2.44502e-08
2.49816e-08
5.71887e-08
5.55003e-08
0
0
0
0
0
0
0
0
0
0
0
0
0
0
0
0
0
0
0
0
0
0
0
0
0
0
0
0
0
0
0
0
0
2.39553e-08
5.63156e-08
5.36719e-08
2.28285e-08
2.37582e-08
2.46258e-08
0
1.02988e-07
4.62566e-08
2.6351e-09
0
0
0
0
2.45017e-08
2.3842e-08
2.37998e-08
2.4334e-08
2.4455e-08
2.44939e-08
2.45588e-08
2.43944e-08
0
0
2.44954e-08
2.38018e-08
5.71081e-08
2.38832e-08
5.65173e-08
0
2.51598e-08
2.65708e-08
2.4807e-08
2.49552e-08
2.39617e-08
5.73551e-08
2.66012e-08
0
2.20955e-08
5.30574e-08
0
1.00009e-07
2.3431e-08
0
0
0
0
0
0
0
0
0
0
0
0
0
0
0
0
0
0
0
0
0
0
0
0
0
0
0
0
0
0
0
0
2.22498e-08
2.39903e-08
2.39808e-08
2.37994e-08
0
2.42964e-08
0
5.99168e-08
2.50814e-08
2.32311e-08
2.42945e-08
0
2.42598e-08
2.44751e-08
2.41853e-08
5.60526e-08
2.24261e-08
0
2.42933e-08
0
2.42931e-08
2.44852e-08
2.40168e-08
2.40157e-08
5.63068e-08
2.31617e-08
2.30157e-08
0
2.40098e-08
2.3959e-08
2.4365e-08
2.53865e-08
2.51283e-08
5.69574e-08
2.32783e-08
0
5.97077e-08
2.43931e-08
2.28927e-08
0
2.32365e-08
0
5.88015e-08
2.32423e-08
0
0
0
0
0
0
0
0
0
0
0
0
0
0
0
0
0
0
0
0
0
0
0
0
0
0
0
0
0
0
0
)
;


// ************************************************************************* //
