/*--------------------------------*- C++ -*----------------------------------*\
  =========                 |
  \\      /  F ield         | OpenFOAM: The Open Source CFD Toolbox
   \\    /   O peration     | Website:  https://openfoam.org
    \\  /    A nd           | Version:  12
     \\/     M anipulation  |
\*---------------------------------------------------------------------------*/
FoamFile
{
    format      ascii;
    class       volScalarField;
    location    "0.9";
    object      p;
}
// * * * * * * * * * * * * * * * * * * * * * * * * * * * * * * * * * * * * * //

dimensions      [0 2 -2 0 0 0 0];

internalField   nonuniform List<scalar> 
3750
(
0.70129
0.690718
0.679895
0.668936
0.658033
0.646679
0.635457
0.629275
0.639465
0.633167
0.621126
0.607125
0.587561
0.575567
0.618378
0.601953
0.583819
0.567016
0.552257
0.534641
0.501683
0.485167
0.52693
0.515208
0.49902
0.488741
0.480901
0.457425
0.435442
0.422132
0.465252
0.454364
0.436522
0.422976
0.410927
0.399463
0.388292
0.377427
0.366686
0.356116
0.34566
0.33522
0.324913
0.314859
0.304707
0.294566
0.284494
0.274438
0.264401
0.254375
0.244361
0.234356
0.224359
0.214368
0.204382
0.1944
0.18442
0.174444
0.16447
0.154499
0.144528
0.134558
0.124586
0.114612
0.104636
0.09466
0.0846855
0.0747176
0.0647561
0.0547971
0.0448366
0.0348744
0.0249148
0.014934
0.00496464
0.701582
0.690887
0.680047
0.668753
0.657871
0.646737
0.632607
0.61925
0.648179
0.636979
0.621611
0.60933
0.598026
0.592632
0.60132
0.5937
0.581112
0.567318
0.555983
0.549618
0.501419
0.499107
0.50793
0.502526
0.493134
0.484437
0.470413
0.459416
0.44527
0.438738
0.448021
0.443473
0.433478
0.422079
0.410466
0.399168
0.387992
0.377151
0.36657
0.355996
0.345501
0.335147
0.325002
0.31482
0.30466
0.294549
0.284474
0.274421
0.264385
0.254361
0.244349
0.234346
0.224351
0.214362
0.204377
0.194395
0.184416
0.17444
0.164468
0.154497
0.144527
0.134557
0.124584
0.114609
0.104631
0.0946522
0.0846772
0.0747099
0.0647524
0.054798
0.0448395
0.0348771
0.0249133
0.0149311
0.00495983
0.702376
0.691481
0.680005
0.667938
0.658027
0.649848
0.640508
0.633468
0.638981
0.630805
0.619995
0.610737
0.604834
0.600524
0.596437
0.58917
0.578177
0.56719
0.555413
0.542039
0.522409
0.506339
0.501017
0.493031
0.485554
0.483331
0.470918
0.459371
0.449032
0.442332
0.440354
0.4374
0.430642
0.420561
0.409861
0.398702
0.387552
0.376825
0.366269
0.355785
0.345404
0.335099
0.324885
0.314722
0.304598
0.294501
0.284432
0.274385
0.264354
0.254336
0.244329
0.23433
0.224337
0.21435
0.204367
0.194387
0.18441
0.174434
0.164462
0.154491
0.144522
0.134553
0.124581
0.114606
0.104629
0.0946511
0.0846752
0.0747092
0.0647503
0.0547931
0.0448343
0.0348735
0.0249116
0.0149322
0.00495471
0.702973
0.692962
0.680628
0.665728
0.653937
0.65496
0.647789
0.639672
0.633402
0.625796
0.616553
0.608335
0.61025
0.604342
0.596677
0.588936
0.574653
0.565531
0.556903
0.543251
0.540214
0.497981
0.498007
0.484379
0.472281
0.491758
0.477007
0.460127
0.449007
0.439323
0.432781
0.436869
0.431186
0.420144
0.408985
0.397881
0.387021
0.376377
0.36588
0.355483
0.345168
0.334925
0.324744
0.314601
0.304499
0.294424
0.28437
0.274334
0.264312
0.254302
0.244301
0.234307
0.224318
0.214334
0.204354
0.194375
0.184399
0.174426
0.164454
0.154485
0.144516
0.134547
0.124576
0.114604
0.104631
0.0946575
0.0846861
0.0747206
0.0647593
0.0547981
0.0448361
0.0348729
0.0249112
0.0149303
0.0049516
0.700735
0.697605
0.684174
0.664498
0.645412
0.666707
0.654098
0.640084
0.631174
0.623764
0.614108
0.600418
0.622569
0.609058
0.596822
0.588085
0.571403
0.563672
0.556325
0.539196
0.53217
0.511417
0.501658
0.485066
0.48422
0.489265
0.476966
0.457596
0.447712
0.435168
0.421626
0.446389
0.435354
0.420067
0.407949
0.39696
0.386279
0.375773
0.365393
0.3551
0.344867
0.334691
0.324555
0.314455
0.304379
0.294325
0.284289
0.274268
0.264258
0.254258
0.244265
0.234277
0.224294
0.214314
0.204336
0.19436
0.184386
0.174415
0.164444
0.154476
0.144509
0.134542
0.124574
0.114604
0.104635
0.0946644
0.0846949
0.0747289
0.0647651
0.0548014
0.0448372
0.034873
0.0249113
0.0149285
0.00494987
0.693654
0.706316
0.691755
0.675208
0.656848
0.655212
0.646082
0.635005
0.625505
0.627072
0.620615
0.613117
0.614601
0.604544
0.593499
0.58488
0.571366
0.562283
0.553853
0.540674
0.528284
0.514786
0.502067
0.488003
0.487338
0.505225
0.477604
0.445566
0.448605
0.443494
0.430598
0.434914
0.428585
0.417843
0.406483
0.39577
0.38535
0.375046
0.364818
0.354644
0.344508
0.334404
0.324326
0.314272
0.304233
0.294208
0.284194
0.27419
0.264194
0.254205
0.244221
0.234241
0.224264
0.21429
0.204316
0.194343
0.184372
0.174401
0.164433
0.154467
0.144502
0.134538
0.124572
0.114605
0.104638
0.0946695
0.0847017
0.074735
0.0647693
0.0548039
0.0448384
0.0348734
0.0249111
0.0149275
0.00494886
0.708252
0.684985
0.688627
0.690081
0.650804
0.644282
0.63856
0.628464
0.616605
0.639776
0.627178
0.617283
0.612286
0.600356
0.591244
0.583364
0.573354
0.561014
0.548822
0.541153
0.528243
0.517266
0.499017
0.486255
0.47554
0.499325
0.480274
0.462233
0.458172
0.461509
0.424315
0.427589
0.424211
0.414366
0.404268
0.394293
0.384275
0.374234
0.364191
0.354154
0.344125
0.334103
0.324087
0.314078
0.304076
0.29408
0.28409
0.274105
0.264124
0.254147
0.244174
0.234203
0.224233
0.214264
0.204295
0.194327
0.184359
0.174391
0.164425
0.15446
0.144498
0.134535
0.124571
0.114606
0.10464
0.0946727
0.0847054
0.0747388
0.0647725
0.0548061
0.0448397
0.0348741
0.0249109
0.014927
0.00494815
0.717023
0.692332
0.685936
0.679927
0.67596
0.633916
0.635168
0.632287
0.628251
0.631247
0.624005
0.616565
0.612309
0.595564
0.590607
0.582891
0.574531
0.559613
0.549758
0.54043
0.529439
0.525129
0.490528
0.489568
0.484021
0.484606
0.474791
0.465262
0.460889
0.456335
0.44197
0.434436
0.419457
0.410823
0.402149
0.39286
0.383219
0.373422
0.363557
0.353653
0.343726
0.333782
0.323831
0.313872
0.30391
0.293946
0.283981
0.274016
0.264051
0.254087
0.244124
0.234163
0.224201
0.214239
0.204275
0.194311
0.184347
0.174382
0.164419
0.154456
0.144494
0.134533
0.124571
0.114607
0.104642
0.0946752
0.0847083
0.0747416
0.0647749
0.0548081
0.0448412
0.034875
0.0249111
0.0149267
0.00494778
0.728869
0.683352
0.682761
0.677021
0.666254
0.643702
0.634169
0.63838
0.632806
0.625822
0.618366
0.614283
0.607958
0.596844
0.591909
0.584797
0.578676
0.558531
0.551581
0.539568
0.523628
0.503824
0.512939
0.498102
0.485941
0.476879
0.466883
0.459972
0.464673
0.459237
0.452189
0.449937
0.407633
0.407227
0.400297
0.391746
0.382306
0.372684
0.362964
0.353176
0.343343
0.333476
0.323583
0.313671
0.303746
0.293812
0.283872
0.273927
0.263979
0.254029
0.244078
0.234125
0.22417
0.214214
0.204256
0.194296
0.184335
0.174373
0.164412
0.154451
0.144491
0.134531
0.124571
0.114608
0.104644
0.0946775
0.084711
0.0747443
0.0647774
0.0548102
0.0448428
0.0348761
0.0249116
0.0149267
0.00494761
0.713454
0.694642
0.686145
0.678522
0.667577
0.642562
0.627252
0.648155
0.636715
0.624852
0.612627
0.604545
0.59877
0.601686
0.596881
0.589355
0.579954
0.56502
0.553646
0.540166
0.526974
0.508093
0.503439
0.494209
0.483561
0.473602
0.461018
0.450125
0.476743
0.465699
0.450807
0.439258
0.419622
0.409722
0.400395
0.390973
0.381543
0.372018
0.362421
0.352741
0.342995
0.333194
0.323353
0.313483
0.303592
0.293686
0.283768
0.273841
0.263908
0.253971
0.24403
0.234086
0.224139
0.21419
0.204237
0.194281
0.184324
0.174365
0.164406
0.154448
0.14449
0.134532
0.124573
0.11461
0.104646
0.0946802
0.084714
0.0747472
0.06478
0.0548125
0.0448447
0.0348775
0.0249124
0.0149269
0.00494761
0.699276
0.695267
0.689032
0.683195
0.681757
0.637802
0.637198
0.635756
0.631968
0.624086
0.605868
0.593013
0.583587
0.611729
0.603593
0.591436
0.579977
0.571865
0.558554
0.541611
0.527839
0.509951
0.498141
0.489003
0.479859
0.47278
0.465862
0.462237
0.467208
0.460703
0.44924
0.437443
0.423363
0.410914
0.400093
0.390317
0.380883
0.371461
0.361982
0.352387
0.342702
0.332952
0.323154
0.313318
0.303454
0.29357
0.283672
0.273761
0.263843
0.253917
0.243986
0.234051
0.224111
0.214166
0.204218
0.194267
0.184312
0.174357
0.164402
0.154447
0.144491
0.134534
0.124575
0.114613
0.104649
0.0946831
0.084717
0.0747502
0.064783
0.0548151
0.0448469
0.0348792
0.0249135
0.0149273
0.00494772
0.709673
0.698789
0.69181
0.683962
0.673329
0.656459
0.657587
0.62253
0.628767
0.633825
0.593787
0.592184
0.587812
0.595459
0.602401
0.593646
0.582884
0.5759
0.574883
0.532811
0.527129
0.508276
0.494071
0.483736
0.474413
0.469047
0.472534
0.470152
0.463534
0.456254
0.447487
0.437806
0.425589
0.410526
0.398998
0.389382
0.380222
0.371017
0.361637
0.352107
0.34247
0.332757
0.322987
0.313176
0.303334
0.29347
0.283588
0.273691
0.263784
0.253869
0.243946
0.234017
0.224083
0.214144
0.2042
0.194252
0.184301
0.174349
0.164397
0.154445
0.144492
0.134536
0.124578
0.114616
0.104652
0.094687
0.0847209
0.0747539
0.0647864
0.0548182
0.0448495
0.0348812
0.0249149
0.014928
0.00494794
0.709481
0.697199
0.698626
0.687223
0.671329
0.657646
0.647766
0.632406
0.627075
0.623837
0.607731
0.598842
0.589695
0.581121
0.607743
0.594368
0.582661
0.574485
0.566212
0.548616
0.533436
0.505817
0.490271
0.478022
0.467204
0.458408
0.485923
0.475934
0.462131
0.453586
0.446559
0.438298
0.426026
0.409784
0.396632
0.38788
0.379693
0.370785
0.36147
0.351952
0.342325
0.332623
0.322867
0.313069
0.30324
0.293387
0.283517
0.273631
0.263733
0.253826
0.243911
0.233989
0.22406
0.214125
0.204184
0.194239
0.18429
0.174341
0.164392
0.154445
0.144494
0.134539
0.124581
0.114619
0.104656
0.0946914
0.0847256
0.0747585
0.0647905
0.0548218
0.0448526
0.0348836
0.0249165
0.0149288
0.00494824
0.706401
0.687563
0.708943
0.69249
0.667145
0.654128
0.641503
0.63015
0.629899
0.62502
0.613829
0.60591
0.597887
0.59096
0.594273
0.585373
0.576198
0.575686
0.566048
0.553474
0.535996
0.506613
0.48849
0.478613
0.471307
0.4687
0.476678
0.472369
0.45736
0.451045
0.444276
0.435698
0.423219
0.408303
0.400134
0.389239
0.380025
0.370841
0.361434
0.351882
0.342243
0.332535
0.322779
0.312987
0.303167
0.293324
0.283461
0.273583
0.263693
0.253793
0.243884
0.233967
0.224043
0.214112
0.204175
0.194232
0.184286
0.174339
0.164393
0.154446
0.144496
0.134543
0.124585
0.114625
0.104662
0.0946973
0.0847313
0.074764
0.0647954
0.0548261
0.0448562
0.0348865
0.0249186
0.01493
0.00494864
0.712616
0.699584
0.700344
0.698243
0.651523
0.648922
0.636049
0.618844
0.639719
0.624944
0.612832
0.614312
0.605971
0.596744
0.589553
0.578028
0.56414
0.585184
0.566986
0.550405
0.534975
0.511691
0.489622
0.478506
0.471422
0.477032
0.475635
0.478016
0.44349
0.448474
0.443192
0.434296
0.422879
0.410823
0.400465
0.390171
0.380627
0.371116
0.361554
0.351925
0.34224
0.33251
0.322742
0.312945
0.303123
0.29328
0.283422
0.273549
0.263664
0.253769
0.243865
0.233952
0.224032
0.214105
0.204171
0.194232
0.18429
0.174345
0.1644
0.154453
0.144503
0.134549
0.124592
0.114632
0.104669
0.0947046
0.0847384
0.0747705
0.0648013
0.0548311
0.0448605
0.0348898
0.0249209
0.0149313
0.00494911
0.72338
0.704675
0.694571
0.682524
0.659825
0.648917
0.637383
0.629398
0.629686
0.616647
0.604927
0.627742
0.614164
0.598698
0.588803
0.579658
0.571944
0.574493
0.558776
0.545408
0.531662
0.517248
0.491597
0.478424
0.462788
0.484696
0.46899
0.454828
0.453342
0.457557
0.44634
0.434331
0.422699
0.411751
0.401487
0.391109
0.38119
0.371439
0.36173
0.352012
0.342273
0.332511
0.322725
0.312918
0.303093
0.293252
0.283396
0.273526
0.263645
0.253754
0.243853
0.233944
0.224027
0.214103
0.204172
0.194237
0.184297
0.174355
0.16441
0.154463
0.144514
0.13456
0.124602
0.114642
0.104679
0.0947136
0.0847468
0.0747782
0.0648081
0.0548371
0.0448655
0.0348937
0.0249237
0.014933
0.00494968
0.724887
0.709772
0.698797
0.678098
0.660015
0.64957
0.639842
0.633097
0.62639
0.61988
0.615932
0.620918
0.614224
0.596602
0.588725
0.581589
0.575455
0.57187
0.55071
0.541864
0.528497
0.514634
0.496289
0.484195
0.476063
0.474213
0.461148
0.437954
0.453946
0.471647
0.449104
0.433739
0.422277
0.411939
0.401797
0.391622
0.381608
0.371727
0.361912
0.352122
0.342335
0.332541
0.322735
0.312916
0.303084
0.293239
0.283382
0.273514
0.263635
0.253746
0.243849
0.233943
0.224029
0.214107
0.204179
0.194245
0.184308
0.174367
0.164424
0.154477
0.144527
0.134572
0.124614
0.114653
0.10469
0.0947243
0.0847566
0.0747871
0.0648161
0.054844
0.0448712
0.0348983
0.0249269
0.0149349
0.00495033
0.722302
0.714076
0.713409
0.66682
0.659497
0.650271
0.640651
0.635594
0.62927
0.62357
0.619338
0.618416
0.623414
0.582952
0.587647
0.582088
0.575664
0.568147
0.555888
0.541107
0.52353
0.511289
0.499258
0.48937
0.483231
0.470018
0.464032
0.449798
0.452592
0.454003
0.440264
0.431304
0.422015
0.41207
0.402006
0.39192
0.38189
0.371948
0.362069
0.352226
0.342399
0.332578
0.322755
0.312925
0.303087
0.293239
0.283381
0.273512
0.263635
0.253748
0.243853
0.233949
0.224038
0.214118
0.204189
0.194257
0.184322
0.174383
0.16444
0.154494
0.144543
0.134588
0.124629
0.114668
0.104703
0.0947368
0.0847681
0.0747975
0.0648254
0.054852
0.0448778
0.0349034
0.0249306
0.0149371
0.00495108
0.718725
0.709028
0.698561
0.678556
0.663209
0.655901
0.643822
0.64011
0.633268
0.6259
0.619037
0.613118
0.610855
0.594895
0.589785
0.583396
0.574526
0.567122
0.557527
0.542523
0.518161
0.509242
0.501478
0.491102
0.496709
0.46285
0.477102
0.44867
0.448477
0.444186
0.432824
0.429625
0.421657
0.412186
0.402216
0.39214
0.382091
0.372108
0.36219
0.352313
0.34246
0.332619
0.322783
0.312944
0.3031
0.293249
0.283389
0.27352
0.263643
0.253758
0.243864
0.233962
0.224052
0.214132
0.204205
0.194275
0.18434
0.174402
0.164461
0.154513
0.144562
0.134606
0.124646
0.114684
0.104719
0.0947511
0.0847813
0.0748095
0.064836
0.0548611
0.0448853
0.0349093
0.0249348
0.0149396
0.00495192
0.715122
0.704072
0.69196
0.677067
0.663097
0.653866
0.655158
0.648215
0.638477
0.627315
0.618882
0.611489
0.605276
0.596995
0.592618
0.586996
0.570956
0.563666
0.556126
0.539269
0.514464
0.510259
0.512347
0.476617
0.483395
0.4723
0.467644
0.455099
0.445936
0.448834
0.439153
0.431791
0.422802
0.412841
0.40255
0.392336
0.382212
0.372202
0.362271
0.352381
0.342514
0.332661
0.322814
0.312968
0.303119
0.293266
0.283405
0.273537
0.26366
0.253775
0.243882
0.233981
0.224071
0.214151
0.204224
0.194293
0.18436
0.174424
0.164483
0.154536
0.144584
0.134627
0.124667
0.114703
0.104737
0.0947676
0.0847963
0.074823
0.0648479
0.0548713
0.0448936
0.0349158
0.0249395
0.0149424
0.00495287
0.711439
0.699951
0.688113
0.674541
0.658833
0.644993
0.669882
0.656939
0.644621
0.626503
0.617803
0.609457
0.601143
0.593972
0.598691
0.600827
0.559439
0.560822
0.561768
0.517637
0.513215
0.505968
0.496204
0.481489
0.489488
0.475246
0.465849
0.452798
0.438677
0.461123
0.4481
0.435551
0.424703
0.413623
0.402873
0.392482
0.382222
0.372217
0.362292
0.352403
0.342536
0.332683
0.32284
0.312994
0.303144
0.29329
0.28343
0.273562
0.263685
0.253801
0.243908
0.234006
0.224096
0.214178
0.204252
0.194322
0.18439
0.174453
0.164511
0.154562
0.144609
0.134651
0.124689
0.114725
0.104757
0.0947863
0.0848133
0.0748382
0.0648613
0.0548827
0.044903
0.0349232
0.0249448
0.0149455
0.00495392
0.709948
0.697921
0.685211
0.673669
0.662609
0.655699
0.660969
0.658277
0.65779
0.616529
0.616458
0.609142
0.597216
0.583071
0.607416
0.590777
0.569151
0.558749
0.548462
0.528052
0.51633
0.503662
0.487756
0.472261
0.506611
0.47335
0.467308
0.453468
0.449735
0.454778
0.448603
0.438323
0.426878
0.414295
0.40283
0.392241
0.382117
0.372199
0.362311
0.352435
0.342573
0.332721
0.322871
0.313024
0.303175
0.293322
0.283462
0.273594
0.263719
0.253835
0.243943
0.234042
0.224133
0.214216
0.204291
0.194362
0.184428
0.174488
0.164543
0.154593
0.144638
0.134679
0.124716
0.114749
0.10478
0.0948074
0.0848324
0.0748553
0.0648762
0.0548953
0.0449134
0.0349313
0.0249506
0.014949
0.00495509
0.724897
0.699578
0.683567
0.672893
0.66597
0.659568
0.655251
0.654288
0.646736
0.630431
0.622647
0.612272
0.601533
0.591067
0.593543
0.583519
0.569232
0.556701
0.542836
0.531569
0.517797
0.504121
0.490269
0.476671
0.473912
0.49232
0.474318
0.451125
0.457077
0.455452
0.449105
0.440584
0.42995
0.41285
0.401953
0.391759
0.381927
0.372115
0.362277
0.352431
0.342581
0.332741
0.322902
0.31306
0.303213
0.293361
0.283502
0.273635
0.263761
0.253877
0.243986
0.234086
0.224177
0.21426
0.204336
0.194406
0.184471
0.174529
0.164582
0.154629
0.144672
0.134711
0.124746
0.114778
0.104806
0.0948311
0.0848537
0.0748741
0.0648926
0.0549093
0.044925
0.0349403
0.024957
0.0149529
0.00495637
0.73568
0.709111
0.683045
0.676498
0.668789
0.661429
0.654922
0.649833
0.643017
0.635651
0.630865
0.616171
0.607832
0.592858
0.586414
0.5778
0.566431
0.554239
0.542447
0.530583
0.517463
0.504079
0.493134
0.485053
0.480069
0.483419
0.47699
0.428885
0.460939
0.457106
0.454615
0.445804
0.432718
0.410665
0.401837
0.391626
0.381866
0.372086
0.362269
0.352437
0.342605
0.33277
0.322936
0.313098
0.303255
0.293406
0.283549
0.273684
0.26381
0.253928
0.244037
0.234136
0.224228
0.214311
0.204387
0.194456
0.18452
0.174575
0.164625
0.15467
0.144711
0.134748
0.12478
0.114809
0.104835
0.0948572
0.0848772
0.0748949
0.0649107
0.0549247
0.0449375
0.0349501
0.024964
0.0149571
0.00495777
0.750626
0.6995
0.691841
0.680975
0.671091
0.662106
0.654339
0.647502
0.640589
0.636642
0.651875
0.61468
0.621762
0.582387
0.582475
0.574813
0.564512
0.553372
0.542207
0.530452
0.517165
0.501944
0.49114
0.491442
0.48532
0.476943
0.468693
0.450654
0.449305
0.441522
0.460861
0.44893
0.432152
0.412819
0.401698
0.391729
0.381893
0.372071
0.362251
0.352434
0.342616
0.332796
0.322971
0.313141
0.303304
0.293458
0.283604
0.273741
0.263869
0.253987
0.244096
0.234196
0.224286
0.214369
0.204444
0.194512
0.184572
0.174625
0.164673
0.154716
0.144754
0.134788
0.124818
0.114844
0.104866
0.094886
0.0849029
0.0749176
0.0649304
0.0549413
0.0449512
0.0349607
0.0249716
0.0149616
0.00495929
0.736127
0.711135
0.699538
0.685523
0.672942
0.661197
0.651398
0.644562
0.638192
0.627466
0.652458
0.630211
0.616749
0.597203
0.586429
0.574272
0.563589
0.552978
0.542245
0.531542
0.519253
0.495864
0.480209
0.503267
0.489572
0.477669
0.468006
0.457193
0.449964
0.445179
0.449081
0.440195
0.427383
0.413702
0.402116
0.391852
0.381903
0.372055
0.362242
0.35244
0.342638
0.332829
0.323014
0.313191
0.303359
0.293518
0.283667
0.273806
0.263935
0.254054
0.244163
0.234263
0.224353
0.214434
0.204507
0.194573
0.18463
0.17468
0.164725
0.154766
0.144801
0.134832
0.124859
0.114882
0.104901
0.0949173
0.084931
0.0749423
0.0649517
0.0549594
0.0449659
0.0349721
0.0249797
0.0149665
0.00496093
0.732187
0.715739
0.702207
0.688
0.673921
0.658557
0.645907
0.638005
0.64444
0.641296
0.645233
0.632447
0.618181
0.603645
0.591491
0.572254
0.562382
0.553264
0.542483
0.53395
0.531191
0.487353
0.487996
0.493676
0.48734
0.477897
0.469066
0.460463
0.455617
0.451552
0.440012
0.433035
0.423346
0.412657
0.401934
0.391757
0.381832
0.372008
0.362221
0.352442
0.342659
0.332867
0.323064
0.31325
0.303425
0.293589
0.283742
0.273883
0.264013
0.254132
0.24424
0.234339
0.224428
0.214508
0.204578
0.194641
0.184695
0.174742
0.164784
0.154821
0.144853
0.134881
0.124904
0.114923
0.104939
0.0949513
0.0849613
0.074969
0.0649747
0.0549788
0.0449817
0.0349844
0.0249885
0.0149717
0.00496269
0.732079
0.717685
0.704003
0.690504
0.676438
0.653535
0.637548
0.623844
0.649354
0.651931
0.645764
0.633619
0.61985
0.607647
0.603842
0.560814
0.560608
0.55474
0.539279
0.530704
0.520059
0.503003
0.497652
0.490452
0.484992
0.478065
0.46974
0.460906
0.457214
0.468726
0.429781
0.427989
0.420202
0.411025
0.401224
0.391424
0.381655
0.371925
0.362193
0.35245
0.342691
0.332916
0.323125
0.31332
0.303502
0.293671
0.283826
0.27397
0.264101
0.25422
0.244328
0.234426
0.224513
0.21459
0.204658
0.194717
0.184767
0.17481
0.164848
0.154882
0.144911
0.134934
0.124953
0.114968
0.104979
0.0949878
0.0849938
0.0749975
0.0649993
0.0549995
0.0449986
0.0349974
0.0249978
0.0149773
0.00496455
0.733133
0.719076
0.705274
0.693183
0.687533
0.641425
0.636954
0.626741
0.629452
0.662508
0.653119
0.636518
0.620049
0.603497
0.590223
0.571151
0.564758
0.566166
0.527539
0.530425
0.517251
0.509767
0.503126
0.490433
0.486568
0.479209
0.470081
0.458522
0.445361
0.46784
0.444752
0.429524
0.418574
0.409833
0.400453
0.391084
0.381556
0.371842
0.362177
0.352473
0.342737
0.332979
0.323201
0.313405
0.303593
0.293766
0.283925
0.27407
0.264201
0.25432
0.244427
0.234523
0.224608
0.214682
0.204747
0.194801
0.184848
0.174886
0.16492
0.154949
0.144973
0.134992
0.125006
0.115016
0.105023
0.0950269
0.0850284
0.0750278
0.0650254
0.0550214
0.0450165
0.0350113
0.0250076
0.0149832
0.00496652
0.735566
0.7215
0.705371
0.689136
0.673425
0.651825
0.64357
0.632176
0.631292
0.654933
0.651945
0.639425
0.621837
0.597985
0.582825
0.569895
0.560734
0.552169
0.536723
0.535964
0.525724
0.514463
0.503406
0.49179
0.490311
0.482874
0.472388
0.462574
0.45596
0.455748
0.442508
0.427455
0.416753
0.409023
0.400107
0.390834
0.381417
0.371838
0.3622
0.352522
0.342805
0.33306
0.323293
0.313505
0.303698
0.293874
0.284036
0.274182
0.264314
0.254433
0.244538
0.234631
0.224713
0.214784
0.204845
0.194895
0.184936
0.17497
0.164998
0.155022
0.14504
0.135054
0.125063
0.115067
0.105069
0.0950684
0.0850652
0.0750599
0.065053
0.0550446
0.0450353
0.0350259
0.025018
0.0149894
0.0049686
0.739401
0.722927
0.709929
0.683925
0.670917
0.657742
0.647756
0.634695
0.626583
0.657963
0.650685
0.634921
0.618009
0.597366
0.581572
0.569164
0.55704
0.546443
0.528669
0.547713
0.533087
0.518622
0.505042
0.487443
0.500423
0.48601
0.47458
0.465523
0.457432
0.447551
0.439814
0.429708
0.415281
0.407914
0.399841
0.390808
0.381438
0.3719
0.362278
0.352609
0.342901
0.333166
0.323407
0.313626
0.303821
0.294001
0.284164
0.274311
0.264441
0.254558
0.244661
0.234751
0.22483
0.214896
0.204951
0.194996
0.185031
0.175059
0.165081
0.155099
0.145112
0.135119
0.125122
0.115122
0.105118
0.0951121
0.0851038
0.0750937
0.0650819
0.0550689
0.0450551
0.0350411
0.0250288
0.0149959
0.00497077
0.744647
0.734688
0.714538
0.693586
0.674102
0.664845
0.65363
0.642554
0.638686
0.643798
0.640936
0.630241
0.616557
0.592348
0.577851
0.566811
0.558811
0.546893
0.533015
0.542909
0.533597
0.520645
0.514702
0.510204
0.480666
0.482129
0.476046
0.467252
0.45417
0.445526
0.438124
0.433765
0.415522
0.409528
0.400445
0.391099
0.381623
0.372048
0.362411
0.352736
0.343029
0.333295
0.323534
0.313755
0.303958
0.294142
0.284306
0.274453
0.264583
0.254697
0.244797
0.234883
0.224956
0.215017
0.205065
0.195104
0.185133
0.175154
0.16517
0.15518
0.145186
0.135188
0.125185
0.115179
0.10517
0.0951581
0.0851444
0.0751289
0.0651121
0.0550942
0.0450756
0.035057
0.0250401
0.0150027
0.00497302
0.745833
0.735639
0.718923
0.704017
0.687546
0.673368
0.659383
0.647515
0.644596
0.640131
0.635434
0.628618
0.62465
0.577457
0.570222
0.5613
0.566224
0.552625
0.52661
0.547002
0.532068
0.517527
0.508438
0.509349
0.493964
0.485343
0.478521
0.467575
0.449454
0.441529
0.432958
0.435571
0.421548
0.41095
0.401164
0.391532
0.381894
0.372247
0.36258
0.352892
0.34318
0.333447
0.323691
0.313914
0.304118
0.294301
0.284466
0.274611
0.26474
0.254851
0.244946
0.235027
0.225093
0.215147
0.205189
0.19522
0.185241
0.175255
0.165264
0.155267
0.145266
0.135261
0.125252
0.115239
0.105224
0.095206
0.0851865
0.0751655
0.0651433
0.0551203
0.0450968
0.0350734
0.0250517
0.0150096
0.00497535
0.744958
0.733754
0.720117
0.711011
0.695894
0.678967
0.661631
0.649831
0.643114
0.63694
0.631078
0.624566
0.612731
0.587373
0.568027
0.555153
0.57985
0.57256
0.526003
0.532909
0.524772
0.510447
0.495125
0.515228
0.499765
0.486373
0.476909
0.467652
0.453165
0.44099
0.418564
0.441682
0.425953
0.412611
0.401947
0.391961
0.382183
0.372469
0.362772
0.35307
0.343355
0.333621
0.323867
0.314092
0.304297
0.294481
0.284644
0.274788
0.264913
0.25502
0.24511
0.235184
0.225243
0.215289
0.205322
0.195345
0.185358
0.175364
0.165365
0.15536
0.145351
0.135337
0.125321
0.115302
0.10528
0.0952557
0.0852301
0.0752033
0.0651756
0.0551473
0.0451186
0.0350902
0.0250637
0.0150168
0.00497775
0.74446
0.733646
0.72189
0.709919
0.697417
0.682556
0.658746
0.644735
0.64401
0.634394
0.625088
0.626191
0.613592
0.590533
0.575063
0.567232
0.568165
0.558834
0.541036
0.532755
0.522123
0.510535
0.500844
0.503444
0.493438
0.483508
0.4752
0.466757
0.458598
0.45745
0.416423
0.428216
0.422222
0.412183
0.402088
0.392191
0.382405
0.372675
0.362968
0.353263
0.343548
0.333816
0.324064
0.314292
0.304497
0.294681
0.284842
0.274983
0.265104
0.255206
0.24529
0.235356
0.225406
0.215442
0.205466
0.19548
0.185484
0.175481
0.165472
0.155458
0.145439
0.135418
0.125393
0.115366
0.105337
0.0953066
0.0852748
0.075242
0.0652086
0.0551748
0.0451409
0.0351074
0.0250758
0.0150241
0.0049802
0.745814
0.733941
0.723532
0.708249
0.698964
0.68996
0.653027
0.63439
0.65176
0.631717
0.612916
0.635285
0.619508
0.590673
0.576333
0.568359
0.561334
0.552238
0.545023
0.532985
0.52086
0.511623
0.505629
0.500955
0.485742
0.479373
0.472444
0.46543
0.457908
0.449687
0.433332
0.4277
0.420769
0.411743
0.402082
0.392323
0.382574
0.372858
0.363162
0.353466
0.343757
0.33403
0.324282
0.314512
0.304719
0.294903
0.285063
0.275202
0.265318
0.255412
0.245487
0.235544
0.225584
0.215609
0.205622
0.195624
0.185618
0.175604
0.165584
0.15556
0.145531
0.1355
0.125467
0.115433
0.105396
0.0953587
0.0853203
0.0752814
0.0652422
0.0552028
0.0451634
0.0351247
0.0250882
0.0150316
0.00498269
0.74812
0.73121
0.72123
0.699378
0.70474
0.703961
0.652459
0.64112
0.637266
0.628639
0.620143
0.622202
0.612081
0.595604
0.572265
0.567292
0.560356
0.550865
0.545167
0.53489
0.516735
0.509156
0.506636
0.50925
0.469819
0.474245
0.470037
0.465256
0.45886
0.449796
0.438758
0.430069
0.421329
0.411924
0.402188
0.392431
0.382709
0.373024
0.363356
0.353679
0.343984
0.334265
0.324522
0.314755
0.304963
0.295148
0.285307
0.275442
0.265552
0.255639
0.245704
0.235748
0.225776
0.215788
0.205789
0.195778
0.185759
0.175733
0.165702
0.155666
0.145627
0.135586
0.125544
0.1155
0.105456
0.0954113
0.0853663
0.0753211
0.0652759
0.0552308
0.045186
0.0351421
0.0251005
0.015039
0.0049852
0.742875
0.724849
0.712862
0.692389
0.706907
0.695537
0.68373
0.650275
0.620451
0.62456
0.62008
0.613664
0.603995
0.591528
0.575459
0.568664
0.563094
0.551902
0.544762
0.544467
0.502818
0.502131
0.497872
0.49813
0.482478
0.472778
0.465886
0.469927
0.461935
0.451316
0.441323
0.432618
0.422539
0.412386
0.402359
0.39251
0.382805
0.373175
0.363557
0.353913
0.344234
0.334524
0.324785
0.315021
0.305233
0.295418
0.285576
0.275707
0.26581
0.255886
0.245939
0.23597
0.225983
0.21598
0.205966
0.19594
0.185907
0.175867
0.165823
0.155775
0.145724
0.135673
0.125621
0.115569
0.105517
0.0954643
0.0854123
0.0753607
0.0653095
0.0552587
0.0452085
0.0351595
0.0251128
0.0150465
0.00498772
0.72924
0.715278
0.713112
0.713356
0.681087
0.681895
0.672499
0.654145
0.637153
0.629674
0.621246
0.609512
0.598591
0.587348
0.575345
0.568871
0.565602
0.550687
0.538955
0.531052
0.513038
0.500678
0.484514
0.502996
0.486144
0.468991
0.453404
0.477293
0.46511
0.45211
0.442371
0.435836
0.423786
0.412694
0.402337
0.392443
0.382824
0.37332
0.363784
0.354179
0.344516
0.334809
0.325073
0.315313
0.305528
0.295716
0.285873
0.275999
0.266093
0.256157
0.246195
0.23621
0.226205
0.216185
0.206153
0.196111
0.186061
0.176006
0.165947
0.155885
0.145823
0.135761
0.125699
0.115638
0.105577
0.095517
0.085458
0.0754
0.0653427
0.0552862
0.0452306
0.0351765
0.025125
0.0150539
0.00499024
0.733284
0.717812
0.709914
0.702643
0.686035
0.677653
0.669076
0.656411
0.644463
0.635559
0.625656
0.604767
0.593757
0.581447
0.569064
0.570768
0.56466
0.561483
0.529525
0.527423
0.517892
0.504511
0.494137
0.492235
0.482097
0.46735
0.457508
0.469729
0.464479
0.450166
0.440028
0.434757
0.423949
0.412449
0.401849
0.392101
0.382767
0.373495
0.364076
0.354504
0.344839
0.335125
0.325386
0.315629
0.30585
0.296043
0.286202
0.276323
0.266406
0.256455
0.246474
0.236468
0.226443
0.216401
0.206348
0.196287
0.186219
0.176147
0.166073
0.155997
0.145922
0.135848
0.125776
0.115706
0.105637
0.0955692
0.0855029
0.0754383
0.0653751
0.055313
0.0452522
0.035193
0.0251368
0.0150612
0.00499274
0.732313
0.719489
0.709222
0.698953
0.686526
0.674914
0.667987
0.657385
0.648337
0.642581
0.642507
0.591134
0.587636
0.577009
0.554848
0.577128
0.55953
0.541238
0.552682
0.536572
0.519927
0.506624
0.497114
0.488965
0.48067
0.466346
0.452861
0.475417
0.461738
0.443591
0.431515
0.430235
0.422536
0.410921
0.400502
0.391329
0.382655
0.373822
0.364525
0.354931
0.345214
0.335465
0.325716
0.315966
0.306201
0.296406
0.286569
0.276685
0.266755
0.256784
0.246779
0.236748
0.226696
0.216629
0.206552
0.196468
0.186379
0.176289
0.166198
0.156108
0.14602
0.135935
0.125853
0.115773
0.105695
0.0956196
0.0855463
0.0754752
0.0654061
0.0553387
0.0452728
0.0352089
0.0251482
0.0150683
0.00499523
0.732787
0.721342
0.707845
0.696369
0.686326
0.675788
0.663818
0.656414
0.649216
0.644181
0.644192
0.593679
0.588999
0.592336
0.554002
0.563841
0.55598
0.549851
0.546384
0.533976
0.51918
0.504983
0.49553
0.489928
0.484785
0.474467
0.464926
0.462828
0.451917
0.434184
0.415886
0.435278
0.422759
0.407906
0.397925
0.389968
0.38283
0.374632
0.365267
0.355477
0.345618
0.335807
0.326049
0.316319
0.306582
0.29681
0.286983
0.277094
0.267145
0.257149
0.247114
0.23705
0.226965
0.216868
0.206764
0.196654
0.186542
0.176431
0.166322
0.156218
0.146116
0.136019
0.125926
0.115837
0.105751
0.095668
0.0855877
0.0755103
0.0654355
0.0553629
0.0452923
0.035224
0.0251591
0.0150751
0.00499768
0.736498
0.722102
0.706336
0.693251
0.682719
0.670452
0.656833
0.660231
0.650403
0.641242
0.627678
0.605429
0.593124
0.586996
0.571413
0.565518
0.558547
0.551226
0.543052
0.532058
0.517043
0.498479
0.487818
0.491444
0.495519
0.48453
0.469411
0.458125
0.447504
0.433361
0.42242
0.421807
0.413515
0.400685
0.392887
0.387991
0.384204
0.376581
0.366431
0.356087
0.34597
0.336085
0.326348
0.316673
0.306997
0.29727
0.287461
0.277563
0.267587
0.257554
0.247479
0.237373
0.227249
0.217116
0.206979
0.196841
0.186704
0.176571
0.166443
0.156321
0.146207
0.136099
0.125996
0.115897
0.105803
0.0957126
0.0856258
0.0755425
0.0654625
0.0553853
0.0453103
0.035238
0.0251694
0.0150816
0.00500012
0.741187
0.719574
0.700276
0.688084
0.678085
0.664455
0.65069
0.671775
0.65512
0.638705
0.618921
0.594404
0.603539
0.588681
0.57992
0.572168
0.561637
0.552011
0.540908
0.533681