/*--------------------------------*- C++ -*----------------------------------*\
  =========                 |
  \\      /  F ield         | OpenFOAM: The Open Source CFD Toolbox
   \\    /   O peration     | Website:  https://openfoam.org
    \\  /    A nd           | Version:  12
     \\/     M anipulation  |
\*---------------------------------------------------------------------------*/
FoamFile
{
    format      ascii;
    class       surfaceScalarField;
    location    "0.9";
    object      phi.water_0;
}
// * * * * * * * * * * * * * * * * * * * * * * * * * * * * * * * * * * * * * //

dimensions      [0 3 -1 0 0 0 0];

internalField   nonuniform List<scalar> 
7375
(
1.22811e-07
2.32948e-09
1.15986e-07
6.76402e-09
1.01588e-07
1.426e-08
9.75867e-08
5.02839e-09
8.45018e-08
1.38756e-08
7.46112e-08
8.98659e-09
9.14134e-08
-1.75813e-08
1.5485e-07
-6.47628e-08
1.00109e-07
5.63086e-08
8.17432e-08
1.85922e-08
8.48555e-08
-3.89498e-09
7.98551e-08
4.95979e-09
4.78059e-08
3.17167e-08
3.30717e-07
8.32835e-08
5.42373e-08
-8.91328e-08
8.2847e-08
-2.82872e-08
9.76116e-08
-1.57635e-08
8.77103e-08
1.00103e-08
9.05316e-08
-2.8145e-09
7.36413e-08
1.61506e-08
5.77705e-08
1.58707e-08
3.42081e-07
8.16412e-08
6.8252e-08
-9.14028e-08
1.07599e-07
-3.82647e-08
1.19201e-07
-1.14622e-08
1.46682e-07
-2.7753e-08
6.97802e-08
-4.74452e-08
8.83475e-08
-1.92717e-08
4.31505e-08
4.60784e-08
3.19689e-07
8.91766e-08
2.78498e-08
-7.38855e-08
5.82923e-08
-3.01599e-08
5.69456e-08
1.34108e-09
5.90127e-08
-2.07059e-09
3.76256e-08
2.19861e-08
1.43084e-08
2.33972e-08
-1.0313e-08
2.44248e-08
-3.09095e-08
2.06617e-08
-4.94322e-08
1.85224e-08
-6.31687e-08
1.36037e-08
-7.30664e-08
9.80009e-09
-8.01941e-08
7.10705e-09
-8.8084e-08
8.71764e-09
-7.99036e-08
-7.29955e-09
-7.27917e-08
-7.112e-09
-6.28231e-08
-9.96832e-09
-5.37088e-08
-9.11448e-09
-4.58224e-08
-7.88603e-09
-3.77647e-08
-8.05784e-09
-3.0447e-08
-7.3173e-09
-2.33093e-08
-7.13783e-09
-1.81307e-08
-5.17828e-09
-1.31577e-08
-4.97317e-09
-8.61309e-09
-4.54421e-09
-3.53174e-09
-5.08152e-09
1.66912e-09
-5.20051e-09
6.61132e-09
-4.94239e-09
1.10452e-08
-4.43354e-09
1.48292e-08
-3.78424e-09
1.88118e-08
-3.98224e-09
2.36513e-08
-4.83978e-09
3.00241e-08
-6.37261e-09
3.79499e-08
-7.92605e-09
4.68672e-08
-8.91725e-09
5.55479e-08
-8.68111e-09
6.1434e-08
-5.88602e-09
6.15075e-08
-7.40066e-11
5.43141e-08
7.19355e-09
4.21935e-08
1.21204e-08
2.84994e-08
1.36944e-08
1.50894e-08
1.34099e-08
2.89514e-09
1.21942e-08
-9.88536e-09
1.27799e-08
-2.09896e-08
1.11036e-08
3.77336e-09
1.30001e-07
-7.08674e-09
1.38692e-07
-2.01347e-09
1.50365e-07
5.45086e-09
1.29559e-07
2.57831e-08
1.4115e-07
8.28025e-10
1.18883e-07
3.2602e-08
6.69505e-08
3.60855e-08
2.84368e-07
9.36222e-08
1.82844e-08
-5.3244e-08
5.92084e-08
-2.3322e-08
7.15351e-08
-1.75419e-08
8.91435e-08
-1.29571e-08
1.15721e-07
6.03908e-09
1.90261e-07
1.00272e-08
1.19336e-07
-1.96257e-08
1.03825e-07
-1.15588e-08
8.80535e-08
2.00662e-09
8.63601e-08
1.07962e-08
8.40559e-08
-1.40561e-09
8.42858e-08
1.576e-08
8.84179e-08
1.09984e-08
1.59138e-07
9.2209e-09
1.09282e-07
-4.03469e-08
1.02565e-07
-3.18039e-08
1.17985e-07
-2.46319e-08
8.28992e-08
9.42494e-09
8.26253e-08
7.41653e-08
5.23919e-08
9.38776e-09
7.32056e-08
2.45253e-08
1.43719e-07
1.85022e-08
8.89364e-08
-1.85802e-08
6.62154e-08
-7.5155e-09
5.05424e-08
1.7014e-08
3.43467e-08
1.46247e-08
1.59696e-08
4.03632e-08
7.44198e-09
3.12049e-08
-9.60238e-09
4.08037e-08
-2.36157e-08
3.43249e-08
-3.23879e-08
2.7346e-08
-3.85279e-08
1.99316e-08
-3.71662e-08
7.96873e-09
-3.6144e-08
6.01317e-09
-2.87187e-08
1.5666e-09
-2.84606e-08
-7.55755e-09
-2.59296e-08
-9.64302e-09
-2.61127e-08
-9.78513e-09
-2.65201e-08
-8.70705e-09
-2.62607e-08
-8.14523e-09
-2.5558e-08
-8.76051e-09
-2.50782e-08
-7.79689e-09
-2.58435e-08
-6.37252e-09
-2.85525e-08
-2.46915e-09
-3.28174e-08
-7.0814e-10
-3.70116e-08
-3.49863e-10
-3.9001e-08
-3.09207e-09
-3.86809e-08
-5.5205e-09
-3.70663e-08
-6.55693e-09
-3.51664e-08
-6.33337e-09
-3.30346e-08
-5.91603e-09
-2.9973e-08
-7.04375e-09
-2.44345e-08
-1.03783e-08
-1.58033e-08
-1.50037e-08
-4.73605e-09
-1.89935e-08
7.54279e-09
-2.11962e-08
1.9467e-08
-2.06056e-08
2.86261e-08
-1.50452e-08
3.16787e-08
-3.1269e-09
2.65828e-08
1.22894e-08
1.50626e-08
2.36405e-08
-3.59335e-10
2.91164e-08
-1.63924e-08
2.94429e-08
-2.76568e-08
2.34583e-08
-3.30287e-08
1.81512e-08
-3.51943e-08
1.32684e-08
3.32743e-09
3.25305e-08
-1.46181e-09
3.20908e-08
-1.57336e-09
3.85578e-08
-1.35015e-09
6.49595e-08
-1.14537e-09
7.53136e-08
-8.86151e-09
7.72477e-08
3.22244e-08
7.63833e-08
3.65394e-08
1.35679e-07
3.16643e-08
8.51308e-08
-7.68436e-10
8.73724e-08
-2.53256e-08
6.85688e-08
1.78235e-09
7.89242e-08
-2.36901e-08
6.24851e-08
2.26028e-08
5.09098e-08
2.23577e-08
1.91998e-08
1.17576e-08
3.2254e-09
4.13185e-09
-1.33422e-08
1.85204e-08
-2.59808e-08
2.31959e-08
-2.9981e-08
2.90363e-09
-2.30506e-08
9.13251e-09
-2.44019e-08
1.22386e-08
-1.23278e-08
-2.88444e-09
-3.12379e-08
-2.23017e-08
-4.1669e-08
-2.14802e-08
4.33618e-09
-7.11953e-08
-5.2367e-08
6.64259e-08
-2.18922e-08
4.29415e-08
-2.83468e-08
1.56191e-08
-2.3633e-08
1.9859e-08
-1.23193e-08
7.25158e-09
-1.88958e-08
-1.21984e-08
-5.36592e-08
2.77285e-08
-5.43287e-08
1.76766e-08
-7.29818e-08
3.29383e-08
-6.03877e-08
2.84279e-08
-6.40677e-08
3.51766e-08
-5.44587e-08
3.07867e-08
-5.01096e-08
2.96326e-08
-4.39303e-08
2.08934e-08
-3.90482e-08
1.50494e-08
-4.07788e-08
9.69937e-09
-4.12546e-08
6.42885e-09
-3.54131e-08
-4.27481e-09
-3.64151e-08
-6.55552e-09
-3.76042e-08
-8.45388e-09
-3.88271e-08
-8.56212e-09
-3.91865e-08
-8.34762e-09
-3.90349e-08
-8.29666e-09
-3.92328e-08
-8.56259e-09
-4.01457e-08
-6.88379e-09
-4.31666e-08
-3.35151e-09
-4.80556e-08
2.41993e-09
-5.45187e-08
5.75508e-09
-6.06866e-08
5.81818e-09
-6.54696e-08
1.69094e-09
-6.80951e-08
-2.89487e-09
-6.96564e-08
-4.99558e-09
-7.06611e-08
-5.32861e-09
-7.05074e-08
-6.06973e-09
-6.76757e-08
-9.87532e-09
-6.12916e-08
-1.67625e-08
-5.30854e-08
-2.32099e-08
-4.5437e-08
-2.66419e-08
-3.90302e-08
-2.7603e-08
-3.47389e-08
-2.48971e-08
-3.35508e-08
-1.62334e-08
-3.5615e-08
-1.06293e-09
-3.99207e-08
1.6595e-08
-4.37771e-08
2.74968e-08
-4.59378e-08
3.12771e-08
-4.57723e-08
2.92774e-08
-4.32901e-08
2.09758e-08
-4.13788e-08
1.6239e-08
-3.90695e-08
1.09584e-08
1.6767e-09
4.27485e-08
-8.84721e-09
2.80208e-08
1.31548e-08
1.47865e-08
1.20338e-08
1.73735e-08
-3.74383e-09
5.18752e-08
-4.34534e-08
-4.31527e-09
8.92818e-08
-5.30029e-09
3.71479e-08
7.82214e-09
1.91142e-08
-1.57595e-09
8.71872e-09
-1.94125e-08
-7.56621e-09
-3.31886e-08
1.50663e-08
-2.1729e-09
-5.50513e-08
-6.90357e-08
8.78708e-08
-8.71848e-08
4.0988e-08
-9.08724e-08
1.62148e-08
-1.06873e-07
2.00909e-08
-8.30192e-08
-5.46701e-09
-6.69598e-08
7.13653e-09
-8.8991e-08
2.5162e-08
-7.26887e-08
-6.33497e-09
-5.67721e-08
-3.67792e-09
-5.16509e-08
-8.6142e-09
-8.9436e-08
1.58729e-08
-1.05725e-07
-6.05085e-09
1.42503e-07
5.12737e-08
-1.05346e-07
-5.33677e-08
-4.71756e-08
-1.46413e-08
-4.93053e-08
1.80675e-08
-3.91056e-08
9.56275e-09
-3.92332e-08
6.90976e-09
-5.85002e-11
-5.17775e-08
-6.38492e-08
9.12333e-08
-7.46412e-08
2.98815e-08
-7.61679e-08
3.49016e-08
-6.31315e-08
1.51072e-08
-4.88398e-08
2.08849e-08
-4.38013e-08
2.57482e-08
-3.72204e-08
2.30518e-08
-3.50673e-08
1.87403e-08
-3.35763e-08
1.35584e-08
-3.19276e-08
8.0507e-09
-3.0451e-08
4.95226e-09
-3.36215e-08
-1.10427e-09
-3.47594e-08
-5.4175e-09
-3.55995e-08
-7.6137e-09
-3.61363e-08
-8.02526e-09
-3.64942e-08
-7.98966e-09
-3.70674e-08
-7.72332e-09
-3.85044e-08
-7.12553e-09
-4.07623e-08
-4.62582e-09
-4.43174e-08
2.03751e-10
-4.87598e-08
6.86245e-09
-5.49326e-08
1.19279e-08
-6.19671e-08
1.28528e-08
-6.9454e-08
9.17787e-09
-7.5683e-08
3.33422e-09
-7.97513e-08
-9.27187e-10
-8.17983e-08
-3.28156e-09
-8.15427e-08
-6.32524e-09
-7.78529e-08
-1.35651e-08
-7.14502e-08
-2.31651e-08
-6.6156e-08
-2.85042e-08
-6.28926e-08
-2.99054e-08
-6.17943e-08
-2.87014e-08
-6.42689e-08
-2.24226e-08
-6.91857e-08
-1.13168e-08
-7.23468e-08
2.09794e-09
-7.11913e-08
1.54393e-08
-6.69101e-08
2.32155e-08
-6.05998e-08
2.49666e-08
-5.27725e-08
2.145e-08
-4.74112e-08
1.56141e-08
-4.40933e-08
1.29203e-08
-4.12288e-08
8.09314e-09
3.11604e-10
7.89396e-08
-6.47834e-08
2.72503e-08
6.48446e-08
9.56454e-09
2.97198e-08
-2.62709e-08
3.21894e-08
1.93177e-07
1.05258e-07
-5.68875e-08
-3.03041e-08
-4.29583e-08
2.29819e-08
-4.08327e-08
1.65679e-08
-3.53271e-08
3.26992e-09
-8.60696e-08
4.44276e-08
-1.09691e-07
3.84493e-08
1.07639e-07
9.5909e-08
-1.13561e-07
-5.53935e-08
-8.16387e-08
7.48869e-09
-4.55393e-08
-1.98846e-08
-1.42133e-07
-3.92781e-09
-4.84461e-08
2.1676e-08
-5.41599e-08
1.18037e-08
-1.2928e-07
-2.30386e-08
-5.62181e-08
4.39847e-08
-5.01388e-08
-9.79465e-09
-5.00615e-08
-9.20217e-09
-1.48626e-07
-8.88391e-09
-4.02721e-08
9.17481e-09
2.68962e-09
7.7889e-09
-5.58495e-08
5.74123e-09
-5.60389e-08
-1.38859e-08
-3.8039e-08
-1.14158e-10
-3.59539e-08
7.55318e-09
-6.15096e-08
3.14812e-08
1.65131e-07
9.09106e-08
-6.73207e-08
-4.46631e-08
-6.4007e-08
2.65679e-08
-4.08486e-08
1.23896e-08
-4.45877e-08
1.92547e-08
-4.3465e-08
1.97622e-08
-3.65165e-08
1.87997e-08
-3.01802e-08
1.67155e-08
-2.55589e-08
1.4119e-08
-2.17693e-08
9.76872e-09
-1.87988e-08
5.08025e-09
-1.63223e-08
2.47581e-09
-1.57669e-08
-1.65962e-09
-1.71395e-08
-4.04486e-09
-1.87386e-08
-6.01452e-09
-2.00849e-08
-6.6789e-09
-2.15026e-08
-6.57185e-09
-2.36185e-08
-5.60733e-09
-2.67677e-08
-3.97624e-09
-3.10241e-08
-3.69388e-10
-3.59813e-08
5.16108e-09
-4.09115e-08
1.17927e-08
-4.6566e-08
1.75826e-08
-5.33558e-08
1.96427e-08
-6.14797e-08
1.73019e-08
-6.9791e-08
1.16456e-08
-7.64588e-08
5.74063e-09
-7.97578e-08
1.75259e-11
-7.92786e-08
-6.80443e-09
-7.53184e-08
-1.75253e-08
-7.08039e-08
-2.76796e-08
-6.82574e-08
-3.10506e-08
-6.66858e-08
-3.14771e-08
-6.77445e-08
-2.76428e-08
-7.21537e-08
-1.80135e-08
-7.67733e-08
-6.69746e-09
-7.78934e-08
3.21793e-09
-7.40538e-08
1.15996e-08
-6.74304e-08
1.65919e-08
-5.95201e-08
1.70562e-08
-5.2369e-08
1.42986e-08
-4.79646e-08
1.12092e-08
-4.46383e-08
9.59312e-09
-4.23968e-08
5.85076e-09
-2.49608e-10
1.73278e-07
6.75409e-08
-5.90677e-08
-6.59662e-08
-3.02113e-08
5.64331e-10
-1.45961e-08
1.65745e-08
2.65359e-08
6.45139e-08
-3.65816e-08
3.34574e-08
-5.24607e-08
3.8488e-08
-6.13201e-08
2.52583e-08
-2.48339e-08
-3.32495e-08
-7.97528e-08
9.78946e-08
-7.05537e-08
2.96425e-08
-1.38359e-08
3.82129e-08
-4.93849e-08
-2.04095e-08
-3.97714e-08
-2.1033e-09
-5.03105e-08
-9.44172e-09
-6.23409e-08
8.10268e-09
-2.60243e-08
-1.44195e-08
-3.27585e-08
1.8538e-08
-7.99787e-08
2.44166e-08
-3.19503e-08
-4.00268e-09
-4.44428e-08
2.69784e-09
-6.07896e-08
7.14471e-09
-8.84516e-08
1.88688e-08
-6.70207e-08
-1.22561e-08
-3.48677e-09
-5.63195e-08
-5.62624e-08
5.85168e-08
-7.15553e-08
1.26538e-09
-6.48361e-08
-6.90491e-09
-6.40509e-08
6.84507e-09
-5.38227e-08
2.15742e-08
-3.00228e-09
3.91934e-08
-4.90299e-08
1.36451e-09
-3.88684e-08
1.6138e-08
-3.80615e-08
1.18474e-08
-3.482e-08
1.60131e-08
-2.824e-08
1.31822e-08
-2.30288e-08
1.35885e-08
-1.87357e-08
1.24225e-08
-1.60092e-08
1.13925e-08
-1.3241e-08
7.00054e-09
-1.18091e-08
3.64835e-09
-1.05553e-08
1.22203e-09
-1.15281e-08
-6.86755e-10
-1.23831e-08
-3.18984e-09
-1.40553e-08
-4.34229e-09
-1.58419e-08
-4.89223e-09
-1.7763e-08
-4.65065e-09
-1.99509e-08
-3.41934e-09
-2.29682e-08
-9.58858e-10
-2.68232e-08
3.48576e-09
-3.07779e-08
9.11586e-09
-3.418e-08
1.5195e-08
-3.7177e-08
2.05796e-08
-4.03651e-08
2.28308e-08
-4.51188e-08
2.20556e-08
-5.12515e-08
1.77784e-08
-5.70443e-08
1.15335e-08
-6.13287e-08
4.30207e-09
-6.31049e-08
-5.02828e-09
-6.25697e-08
-1.80605e-08
-6.16758e-08
-2.85734e-08
-6.12983e-08
-3.14281e-08
-6.18996e-08
-3.08759e-08
-6.48406e-08
-2.47018e-08
-6.8981e-08
-1.38732e-08
-7.16136e-08
-4.06495e-09
-7.09991e-08
2.60319e-09
-6.69254e-08
7.52574e-09
-6.09463e-08
1.06127e-08
-5.5057e-08
1.11667e-08
-5.06054e-08
9.8468e-09
-4.74453e-08
8.04858e-09
-4.47808e-08
6.92778e-09
-4.31993e-08
4.26844e-09
-3.72148e-10
-9.96434e-08
4.83947e-08
-1.65586e-07
3.30428e-10
-1.70905e-07
7.573e-09
-1.78347e-07
2.24266e-08
-1.50283e-07
3.45447e-08
-1.37763e-07
2.28319e-08
-1.19334e-07
2.14642e-08
-1.38393e-07
4.38704e-08
1.04306e-07
8.91755e-08
-1.13067e-07
-4.72227e-08
-6.67062e-08
-1.78716e-08
-4.75365e-08
1.90432e-08
-7.39325e-08
6.74079e-09
-4.69051e-08
-2.96043e-08
-5.81902e-08
1.36005e-09
-5.75887e-08
8.09486e-09
-6.31429e-08
-8.86514e-09
-6.40016e-08
1.92009e-08
-5.63067e-08
1.72962e-08
-5.56175e-08
-4.69191e-09
-4.18525e-08
-1.16344e-08
-3.81842e-08
3.44131e-09
-5.16472e-08
3.23318e-08
-1.0795e-07
4.29456e-08
1.24475e-07
8.12178e-08
-1.29827e-07
-5.46392e-08
-1.13591e-07
-1.61292e-08
-1.11519e-07
-8.9767e-09
-1.18529e-07
1.51468e-08
-9.35931e-08
-3.36161e-09
-7.47812e-08
2.03815e-08
-9.1212e-08
1.87398e-08
-5.67054e-08
-1.7618e-08
-5.79424e-08
1.30843e-08
-5.12599e-08
9.33068e-09
-4.83967e-08
1.0319e-08
-4.28425e-08
8.03427e-09
-3.84699e-08
8.04986e-09
-3.54573e-08
8.37987e-09
-3.44291e-08
5.97243e-09
-3.42776e-08
3.49686e-09
-3.36801e-08
6.24547e-10
-3.32192e-08
-1.1476e-09
-3.34144e-08
-2.99463e-09
-3.42348e-08
-3.52185e-09
-3.51043e-08
-4.0226e-09
-3.55755e-08
-4.17942e-09
-3.56555e-08
-3.33927e-09
-3.57835e-08
-8.30758e-10
-3.59583e-08
3.66066e-09
-3.60956e-08
9.25323e-09
-3.61398e-08
1.52392e-08
-3.55661e-08
2.0006e-08
-3.47213e-08
2.19861e-08
-3.4357e-08
2.16915e-08
-3.54287e-08
1.88502e-08
-3.7864e-08
1.39688e-08
-4.12232e-08
7.66133e-09
-4.51908e-08
-1.06064e-09
-4.94356e-08
-1.38157e-08
-5.25759e-08
-2.54331e-08
-5.47528e-08
-2.92513e-08
-5.7148e-08
-2.84807e-08
-6.00553e-08
-2.17946e-08
-6.26502e-08
-1.12784e-08
-6.35316e-08
-3.18375e-09
-6.22417e-08
1.31315e-09
-5.92028e-08
4.48666e-09
-5.55438e-08
6.95359e-09
-5.20959e-08
7.71861e-09
-4.91973e-08
6.94791e-09
-4.69587e-08
5.80948e-09
-4.5022e-08
4.99022e-09
-4.38693e-08
3.11495e-09
-3.65182e-10
-1.71002e-07
3.0445e-08
-2.00631e-07
2.99561e-08
-1.97634e-07
6.65444e-09
-2.03202e-07
2.97821e-08
-1.47063e-07
-1.98911e-08
-1.29379e-07
3.38021e-09
-9.91486e-08
-7.75463e-09
-8.46713e-08
2.93933e-08
-3.13658e-08
3.50063e-08
-8.42354e-08
5.16521e-09
-7.77388e-08
-2.4368e-08
-4.97156e-08
-8.97995e-09
-1.39377e-07
-2.56611e-08
-5.38749e-08
6.65504e-09
-6.92214e-08
1.66927e-08
-7.30322e-08
1.19057e-08
-8.67971e-08
5.78524e-09
-5.88368e-08
-8.75937e-09
-5.28162e-08
1.05676e-08
-5.18313e-08
-5.72463e-09
-4.71279e-08
-1.5857e-08
-1.00048e-09
-4.26861e-08
-4.91593e-08
7.96677e-08
-4.88634e-08
4.2219e-08
7.13384e-09
2.41457e-08
-4.36705e-08
-3.83488e-09
-5.81993e-08
-1.6003e-09
-6.20809e-08
-5.63691e-09
-8.87135e-08
4.13532e-08
-1.02987e-07
1.19385e-08
-9.82512e-08
1.56459e-08
-8.7498e-08
8.87922e-09
-9.34248e-08
-1.1037e-08
-8.80079e-08
7.66736e-09
-7.8942e-08
2.64842e-10
-7.61335e-08
7.51049e-09
-7.21347e-08
4.03545e-09
-6.89424e-08
4.85754e-09
-6.57302e-08
5.16768e-09
-6.34657e-08
3.70797e-09
-6.1694e-08
1.72517e-09
-6.04792e-08
-5.90203e-10
-5.95419e-08
-2.08488e-09
-5.90218e-08
-3.51474e-09
-5.88963e-08
-3.64727e-09
-5.90448e-08
-3.87404e-09
-5.90363e-08
-4.1878e-09
-5.8805e-08
-3.57055e-09
-5.8184e-08
-1.45168e-09
-5.6069e-08
1.54577e-09
-5.19555e-08
5.13982e-09
-4.64398e-08
9.72365e-09
-4.03745e-08
1.39408e-08
-3.50498e-08
1.66614e-08
-3.08527e-08
1.74945e-08
-2.80044e-08
1.60019e-08
-2.72624e-08
1.32269e-08
-2.89884e-08
9.38731e-09
-3.32146e-08
3.16568e-09
-3.99352e-08
-7.09517e-09
-4.64494e-08
-1.89189e-08
-5.06109e-08
-2.50897e-08
-5.35363e-08
-2.55554e-08
-5.56246e-08
-1.97064e-08
-5.71865e-08
-9.71651e-09
-5.73635e-08
-3.00694e-09
-5.62659e-08
2.1537e-10
-5.44785e-08
2.69917e-09
-5.23714e-08
4.84634e-09
-5.0214e-08
5.56097e-09
-4.82299e-08
4.96357e-09
-4.66209e-08
4.19991e-09
-4.52336e-08
3.60203e-09
-4.4384e-08
2.26457e-09
-3.26388e-10
-1.68985e-07
-9.75994e-10
-1.51302e-07
9.93887e-09
-1.48183e-07
4.99628e-09
-1.25393e-07
6.69156e-09
-1.34681e-07
-1.06025e-08
-1.04213e-07
-2.70882e-08
-4.63398e-08
-6.66907e-08
-7.7159e-08
5.99014e-08
-6.59869e-08
2.38343e-08
-5.70312e-08
-3.75216e-09
-7.83831e-08
-3.04715e-09
-6.06233e-08
-2.67396e-08
-7.77685e-08
-8.51579e-09
-7.76466e-08
6.53323e-09
-6.87082e-08
7.83431e-09
-5.68412e-08
3.87996e-11
-1.39284e-07
-3.38347e-08
-4.42892e-08
1.84826e-08
-3.91432e-08
5.42169e-09
-7.69787e-08
3.17116e-08
-1.28833e-07
3.5997e-08
1.37112e-07
5.51606e-08
-7.5797e-08
-6.91479e-08
-2.72977e-08
-6.70237e-09
1.35039e-10
-3.59897e-09
-8.59749e-09
4.89907e-09
-6.39482e-09
-3.76455e-09
3.91553e-08
-5.15865e-08
-6.58414e-09
8.57427e-08
-3.58926e-08
4.0759e-08
-5.18963e-08
3.20157e-08
-5.83031e-08
1.46912e-08
-7.487e-08
6.2522e-09
-5.7795e-08
-7.99039e-09
-5.36152e-08
-3.9545e-09
-4.87811e-08
2.67633e-09
-4.74123e-08
2.66667e-09
-4.57209e-08
3.16618e-09
-4.44028e-08
3.84954e-09
-4.39189e-08
3.22413e-09
-4.41559e-08
1.96216e-09
-4.53344e-08
5.88299e-10
-4.70832e-08
-3.35977e-10
-4.90108e-08
-1.58709e-09
-5.0919e-08
-1.73908e-09
-5.29621e-08
-1.83085e-09
-5.56859e-08
-1.46393e-09
-5.87649e-08
-4.91532e-10
-6.12169e-08
1.00043e-09
-6.16711e-08
2.00004e-09
-5.95023e-08
2.97114e-09
-5.4259e-08
4.48042e-09
-4.65729e-08
6.25471e-09
-3.771e-08
7.79851e-09
-2.92905e-08
9.0751e-09
-2.27156e-08
9.42703e-09
-1.9222e-08
9.73335e-09
-1.91247e-08
9.29006e-09
-2.25379e-08
6.57887e-09
-2.9296e-08
-3.37048e-10
-3.7453e-08
-1.07619e-08
-4.33802e-08
-1.91625e-08
-4.72459e-08
-2.16897e-08
-5.03436e-08
-1.66087e-08
-5.24989e-08
-7.56131e-09
-5.31736e-08
-2.33235e-09
-5.29604e-08
2.05926e-12
-5.19845e-08
1.72304e-09
-5.05422e-08
3.40398e-09
-4.90158e-08
4.03437e-09
-4.75871e-08
3.53462e-09
-4.63998e-08
3.01204e-09
-4.53899e-08
2.59121e-09
-4.47606e-08
1.63446e-09
-2.76243e-10
-1.07402e-07
-2.16425e-08
-1.05661e-07
8.09753e-09
-9.22779e-08
-8.38603e-09
-8.44093e-08
-1.1889e-09
-9.31446e-08
-1.84831e-09
-1.2909e-07
7.63045e-09
1.19158e-07
5.0035e-08
-1.12667e-07
-7.07648e-08
-6.84194e-08
-2.06536e-08
-5.49588e-08
-1.77677e-08
-7.13075e-08
1.26052e-08
-6.61295e-08
-3.119e-08
-6.40557e-09
-6.82397e-08
-5.48074e-08
5.38268e-08
-7.25446e-08
2.53107e-08
-6.87558e-08
-3.07246e-09
-9.62053e-08
-5.45944e-09
-7.28796e-08
-4.84299e-09
-7.49138e-08
6.83748e-09
-4.27661e-08
-4.31685e-10
-1.17622e-07
-1.00095e-08
2.29112e-08
3.54572e-08
-4.22547e-08
-4.02263e-09
-3.88377e-08
-1.04734e-08
-3.5687e-08
-7.18697e-09
-2.9183e-08
-9.33651e-10
-5.37533e-08
2.08058e-08
1.78444e-07
8.00364e-08
-4.1588e-08
-5.48762e-08
-2.63094e-09
9.70397e-10
1.50877e-08
1.42702e-08
6.62297e-09
2.2989e-08
-8.67911e-09
2.14898e-08
-2.32331e-08
6.5706e-09
-3.64808e-08
9.62509e-09
-3.90271e-08
5.64375e-09
-4.44357e-08
8.07522e-09
-4.67138e-08
5.44431e-09
-4.78992e-08
5.035e-09
-4.79731e-08
3.29807e-09
-4.89483e-08
2.93734e-09
-5.04414e-08
2.08143e-09
-5.17738e-08
9.96445e-10
-5.3177e-08
-1.83792e-10
-5.44392e-08
-4.76915e-10
-5.58548e-08
-4.15123e-10
-5.79377e-08
6.18982e-10
-6.00587e-08
1.6296e-09
-6.12183e-08
2.16004e-09
-6.08397e-08
1.62152e-09
-5.83103e-08
4.4183e-10
-5.26715e-08
-1.15835e-09
-4.42161e-08
-2.2006e-09
-3.3992e-08
-2.42555e-09
-2.34508e-08
-1.46611e-09
-1.44777e-08
4.54013e-10
-8.68125e-09
3.93694e-09
-6.57304e-09
7.18188e-09
-7.63175e-09
7.6376e-09
-1.22277e-08
4.25892e-09
-2.01071e-08
-2.88238e-09
-2.9073e-08
-1.01966e-08
-3.75979e-08
-1.31649e-08
-4.45672e-08
-9.63954e-09
-4.84368e-08
-3.69177e-09
-5.00983e-08
-6.7093e-10
-5.06404e-08
5.43977e-10
-5.03262e-08
1.40869e-09
-4.93189e-08
2.39652e-09
-4.81232e-08
2.83855e-09
-4.70929e-08
2.50406e-09
-4.62306e-08
2.14919e-09
-4.54905e-08
1.85021e-09
-4.50299e-08
1.17306e-09
-2.21361e-10
-1.4972e-07
-1.94221e-08
-1.24354e-07
-1.57561e-08
-1.18539e-07
-1.57146e-08
-1.1283e-07
-5.74678e-09
-9.68027e-08
-1.78944e-08
-8.74352e-08
-2.72445e-09
-3.24678e-08
-4.93236e-09
-6.66905e-08
-3.65836e-08
-4.93876e-08
-3.79563e-08
-4.88861e-08
-1.82691e-08
-3.96296e-08
3.2215e-09
-7.02878e-08
-9.36108e-10
1.70348e-07
5.55748e-08
-6.12995e-08
-7.63966e-08
-5.34277e-08
1.54852e-08
-4.99564e-08
-7.62031e-09
-8.85421e-08
3.41561e-08
-9.23495e-08
-1.12372e-09
-1.0281e-07
1.83579e-08
-8.41971e-08
-1.81902e-08
-9.88831e-08
3.81756e-09
-5.19651e-08
-1.1099e-08
-5.20967e-08
-3.35952e-09
-3.65917e-08
-2.58234e-08
-3.20543e-08
-1.15792e-08
-1.16792e-08
-2.13087e-08
-1.39476e-08
2.31673e-08
4.54371e-08
2.01882e-08
-3.42866e-09
-6.5646e-09
-5.5644e-09
3.04995e-09
-4.545e-09
1.32972e-08
-7.67323e-10
1.92114e-08
5.50967e-10
1.99445e-08
-1.68387e-08
2.39603e-08
-2.81685e-08
2.09549e-08
-4.18881e-08
1.96478e-08
-4.66455e-08
1.32515e-08
-5.24525e-08
1.12513e-08
-5.41219e-08
6.70439e-09
-5.37118e-08
2.888e-09
-5.54168e-08
4.64237e-09
-5.85077e-08
5.17243e-09
-6.12368e-08
3.72558e-09
-6.31858e-08
1.76526e-09
-6.45936e-08
9.30854e-10
-6.55573e-08
5.4871e-10
-6.59892e-08
1.0509e-09
-6.57938e-08
1.43425e-09
-6.44676e-08
8.33917e-10
-6.15214e-08
-1.32462e-09
-5.63108e-08
-4.76877e-09
-4.83562e-08
-9.11286e-09
-3.82828e-08
-1.2274e-08
-2.75275e-08
-1.31808e-08
-1.73665e-08
-1.16271e-08
-8.84537e-09
-8.06706e-09
-3.05538e-09
-1.85303e-09
-8.52728e-10
4.97925e-09
-1.64074e-09
8.42563e-09
-5.3017e-09
7.9199e-09
-1.20604e-08
3.8763e-09
-2.19643e-08
-2.92754e-10
-3.3559e-08
-1.57009e-09
-4.29037e-08
-2.94943e-10
-4.75072e-08
9.11688e-10
-4.92538e-08
1.07549e-09
-4.97595e-08
1.04959e-09
-4.95476e-08
1.19667e-09
-4.86561e-08
1.50482e-09
-4.7556e-08
1.7383e-09
-4.67426e-08
1.69039e-09
-4.61148e-08
1.52082e-09
-4.5565e-08
1.29955e-09
-4.52258e-08
8.33097e-10
-1.68412e-10
-1.00761e-07
-1.4078e-08
-7.74088e-08
-3.90301e-08
-8.64628e-08
-6.66033e-09
-6.89932e-08
-2.23342e-08
-5.83475e-08
-2.90185e-08
-3.94619e-08
-2.161e-08
-2.76744e-08
-1.68922e-08
-3.29523e-08
-3.13056e-08
-3.12585e-08
-4.01277e-08
-3.93235e-08
-1.03082e-08
-2.77997e-08
-8.67053e-09
-2.90167e-08
2.80934e-10
2.97265e-08
-3.16831e-09
2.93638e-08
-7.68132e-08
-2.13387e-08
6.56757e-08
-4.35429e-08
1.47395e-08
-4.12106e-08
3.14753e-08
-4.96415e-08
7.30729e-09
-6.55549e-08
3.34153e-08
-9.13873e-08
7.45472e-09
-1.01461e-07
1.49762e-08
-9.17604e-08
-2.07993e-08
-5.73269e-08
-3.68323e-08
-3.89561e-08
-4.45111e-08
-2.28717e-08
-2.80569e-08
4.08149e-08
-8.5446e-08
-1.02235e-08
7.34563e-08
-4.57297e-09
1.45378e-08
-1.63365e-08
5.29861e-09
-1.68732e-08
3.58674e-09
-1.80101e-08
1.41179e-08
-3.06039e-08
3.20012e-08
-6.432e-08
5.42136e-08
-5.10435e-08
1.0576e-08
-5.66817e-08
2.71713e-08
-5.93661e-08
2.27025e-08
-6.36334e-08
1.75188e-08
-6.69107e-08
1.45286e-08
-6.9452e-08
9.24575e-09
-7.19615e-08
5.39751e-09
-7.50377e-08
7.71853e-09
-7.65271e-08
6.66194e-09
-7.74208e-08
4.61928e-09
-7.77297e-08
2.07415e-09
-7.70721e-08
2.73357e-10
-7.58155e-08
-7.0784e-10
-7.34433e-08
-1.32123e-09
-7.06228e-08
-1.38628e-09
-6.64152e-08
-3.37361e-09
-6.02888e-08
-7.451e-09
-5.24435e-08
-1.2614e-08
-4.40029e-08
-1.75534e-08
-3.5016e-08
-2.12609e-08
-2.56647e-08
-2.2532e-08
-1.67105e-08
-2.05813e-08
-9.35983e-09
-1.54177e-08
-4.56528e-09
-6.64756e-09
-3.1934e-09
3.60739e-09
-5.40564e-09
1.06379e-08
-1.03556e-08
1.28698e-08
-1.7986e-08
1.15067e-08
-2.80223e-08
9.74354e-09
-3.79183e-08
8.32596e-09
-4.44996e-08
6.2863e-09
-4.75371e-08
3.9491e-09
-4.87527e-08
2.29098e-09
-4.90605e-08
1.35723e-09
-4.87422e-08
8.78285e-10
-4.79753e-08
7.37738e-10
-4.71279e-08
8.90693e-10
-4.65049e-08
1.06713e-09
-4.60243e-08
1.03968e-09
-4.56137e-08
8.8811e-10
-4.53657e-08
5.8431e-10
-1.18659e-10
8.70318e-08
-1.55632e-08
1.30426e-07
-8.32731e-08
6.62603e-08
5.75733e-08
4.67606e-08
-2.35725e-09
4.06311e-08
-2.26554e-08
1.44532e-08
4.30099e-09
4.45284e-09
-6.89169e-09
1.77014e-10
-2.73523e-08
-2.49644e-08
-1.54023e-08
-4.86235e-08
1.35021e-08
-5.20753e-08
-4.72263e-09
-6.41754e-08
1.23812e-08
-8.72511e-08
1.99074e-08
1.39971e-07
6.07253e-08
-9.56261e-08
-6.12176e-08
-6.64645e-08
-1.53976e-08
-2.89886e-08
-6.0005e-09
-4.76156e-08
2.59343e-08
-3.79777e-08
2.37775e-08
-3.69518e-08
5.97583e-09
-1.44785e-07
-5.11348e-10
-6.27576e-09
-3.57047e-08
-2.33835e-08
-1.99607e-08
-4.89254e-08
-1.94683e-08
-6.96691e-08
-7.10026e-09
1.58696e-07
5.12812e-08
-6.57046e-08
-6.3987e-08
-2.11293e-08
-3.07078e-08
-8.49533e-09
-7.33534e-09
-4.00069e-09
-8.3048e-10
8.84425e-09
1.27296e-09
3.3688e-08
7.66961e-09
-5.59094e-08
2.10663e-08
3.28208e-08
4.36817e-08
-2.88172e-09
6.25994e-08
-4.05112e-09
2.39007e-08
-1.5106e-08
2.85736e-08
-2.68583e-08
2.62809e-08
-4.65245e-08
2.89121e-08
-6.41654e-08
2.30383e-08
-7.22235e-08
1.57767e-08
-7.50844e-08
9.52287e-09
-7.56573e-08
5.19226e-09
-7.5136e-08
1.5529e-09
-7.36104e-08
-1.25221e-09
-7.15303e-08
-2.78787e-09
-6.81033e-08
-4.74819e-09
-6.37245e-08
-5.76507e-09
-5.8486e-08
-8.61203e-09
-5.27613e-08
-1.31757e-08
-4.73761e-08
-1.79992e-08
-4.34203e-08
-2.15092e-08
-3.94518e-08
-2.52293e-08
-3.51756e-08
-2.68082e-08
-3.00121e-08
-2.57448e-08
-2.47553e-08
-2.06745e-08
-2.04233e-08
-1.09795e-08
-1.84797e-08
1.66378e-09
-2.10292e-08
1.31874e-08
-2.65869e-08
1.84275e-08
-3.42678e-08
1.91877e-08
-4.18885e-08
1.73642e-08
-4.66081e-08
1.30455e-08
-4.78703e-08
7.54852e-09
-4.79977e-08
4.07643e-09
-4.81833e-08
2.47646e-09
-4.82481e-08
1.4219e-09
-4.79409e-08
5.7087e-10
-4.74208e-08
2.1753e-10
-4.68247e-08
2.94393e-10
-4.63466e-08
5.88808e-10
-4.59656e-08
6.58189e-10
-4.56576e-08
5.79207e-10
-4.54719e-08
3.9782e-10
-7.68756e-11
-6.42421e-08
5.87358e-09
1.52514e-07
6.9934e-08
-9.67683e-08
-6.08884e-08
-7.63377e-08
-2.17867e-08
-7.61979e-08
-2.27965e-08
-7.95542e-08
6.88011e-09
-5.79117e-08
-2.90546e-08
-1.19631e-08
-7.41888e-08
-1.05758e-07
7.8675e-08
-8.26049e-08
-8.7101e-09
-7.48521e-08
-1.24753e-08
-7.8175e-08
1.57041e-08
-7.30031e-08
1.48874e-08
-2.6548e-08
1.42703e-08
-7.26651e-08
-1.5725e-08
-7.73459e-08
-1.07167e-08
-2.14328e-08
-6.19135e-08
-6.28172e-08
6.66389e-08
-5.15634e-08
1.25237e-08
-1.98919e-08
-2.56957e-08
-1.32279e-07
-1.01815e-08
-2.24304e-08
-2.34908e-08
-4.31919e-08
1.03788e-09
-4.88996e-08
-1.3564e-08
-3.86014e-08
-1.82911e-08
1.09032e-09
1.14602e-08
-3.37147e-08
-2.98392e-08
-2.65415e-08
-3.82249e-08
-3.12645e-08
-2.63923e-09
-4.75473e-08
1.54524e-08
-5.7361e-08
1.06229e-08
-8.12576e-08
3.15662e-08
-9.92879e-08
3.8307e-08
-7.58858e-08
2.12925e-08
-4.18089e-08
2.94141e-08
-5.31768e-08
3.52686e-08
-4.95004e-08
2.48972e-08
-4.64979e-08
2.32784e-08
-4.39378e-08
2.6352e-08
-4.30962e-08
2.21968e-08
-3.79422e-08
1.06227e-08
-3.31595e-08
4.74024e-09
-3.09337e-08
2.96646e-09
-3.10441e-08
1.66337e-09
-3.27598e-08
4.63461e-10
-3.5108e-08
-4.39556e-10
-3.76094e-08
-2.24677e-09
-3.90959e-08
-4.27858e-09
-4.03301e-08
-7.37776e-09
-4.19081e-08
-1.15976e-08
-4.44552e-08
-1.54521e-08
-4.77041e-08
-1.82602e-08
-5.04168e-08
-2.25165e-08
-5.1782e-08
-2.54431e-08
-5.2021e-08
-2.55058e-08
-5.13749e-08
-2.13205e-08
-4.96383e-08
-1.27161e-08
-4.82127e-08
2.38163e-10
-4.8507e-08
1.34818e-08
-4.961e-08
1.95305e-08
-5.12545e-08
2.08321e-08
-5.22149e-08
1.83247e-08
-5.12351e-08
1.20656e-08
-4.94802e-08
5.7936e-09
-4.84153e-08
3.01142e-09
-4.78775e-08
1.93859e-09
-4.76224e-08
1.16668e-09
-4.73114e-08
2.59718e-10
-4.69438e-08
-1.50254e-10
-4.65268e-08
-1.22769e-10
-4.61761e-08
2.37894e-10
-4.59014e-08
3.82919e-10
-4.56785e-08
3.5547e-10
-4.55467e-08
2.65166e-10
-4.01963e-11
-8.34969e-08
4.68351e-08
-2.25854e-08
7.38233e-09
-5.87432e-08
-2.38874e-08
-5.51305e-08
-2.59559e-08
-8.56572e-08
6.92711e-09
-7.91722e-08
1.25618e-09
-1.21506e-07
1.20401e-08
9.10938e-08
8.39386e-08
-1.43472e-07
-5.41277e-08
-1.10978e-07
-4.12037e-08
-4.74242e-08
-7.68128e-08
-9.22039e-08
5.95432e-08
-9.31243e-08
1.59725e-08
-7.81751e-08
2.73959e-10
-9.60869e-08
2.20936e-09
-1.24607e-07
1.76233e-08
1.12734e-07
6.57847e-08
-1.02662e-07
-8.04556e-08
-6.63213e-08
-2.48646e-08
-6.9835e-08
-2.21819e-08
-8.87492e-08
8.73278e-09
-9.35405e-08
-1.86994e-08
-5.54159e-08
-3.70867e-08
-3.94316e-08
-2.96867e-08
1.15872e-08
-7.01436e-08
-3.05555e-08
5.34872e-08
-4.48501e-08
-1.63272e-08
-3.64745e-08
-4.74568e-08
-5.5651e-08
1.65373e-08
-7.16223e-08
3.12608e-08
-1.10173e-07
4.86717e-08
-1.14575e-07
3.7556e-08
-1.1309e-07
3.7585e-08
-1.17367e-07
2.51439e-08
-9.7484e-08
9.5307e-09
-8.08063e-08
1.85908e-08
-7.05456e-08
1.46366e-08
-5.99454e-08
1.26782e-08
-4.79283e-08
1.43349e-08
-3.72335e-08
1.1502e-08
-2.86975e-08
2.08673e-09
-2.23573e-08
-1.59989e-09
-1.85112e-08
-8.79573e-10
-1.75362e-08
6.88351e-10
-1.85984e-08
1.5257e-09
-2.12262e-08
2.18831e-09
-2.52378e-08
1.76487e-09
-2.98016e-08
2.85192e-10
-3.50362e-08
-2.14312e-09
-4.09131e-08
-5.72071e-09
-4.73757e-08
-8.9895e-09
-5.28652e-08
-1.27707e-08
-5.70584e-08
-1.83233e-08
-6.03028e-08
-2.21986e-08
-6.41294e-08
-2.16792e-08
-6.83724e-08
-1.70775e-08
-7.09924e-08
-1.00962e-08
-7.0336e-08
-4.18187e-10
-6.75137e-08
1.06595e-08
-6.46428e-08
1.66596e-08
-6.12844e-08
1.74737e-08
-5.71836e-08
1.4224e-08
-5.33269e-08
8.20885e-09
-5.06988e-08
3.16552e-09
-4.903e-08
1.3425e-09
-4.79661e-08
8.74532e-10
-4.72923e-08
4.92774e-10
-4.69037e-08
-1.2903e-10
-4.66354e-08
-4.18672e-10
-4.63667e-08
-3.91653e-10
-4.60961e-08
-3.30182e-11
-4.58892e-08
1.75536e-10
-4.57194e-08
1.84799e-10
-4.56123e-08
1.57268e-10
-1.62197e-11
-1.13303e-07
-3.32081e-08
-7.87677e-10
1.58654e-08
-2.61764e-08
1.49366e-09
-3.65168e-08
-1.61472e-08
-3.90776e-08
9.816e-09
-2.14922e-08
-1.61659e-08
-2.12002e-08
1.15289e-08
3.42884e-08
2.69688e-08
-2.25199e-08
2.68069e-09
-7.63284e-08
1.15964e-08
1.52826e-07
6.39957e-08
-1.0497e-07
-5.14794e-08
-9.97238e-08
9.63327e-09
-9.16559e-08
-7.71075e-09
-1.07443e-07
2.02578e-08
-9.45501e-08
5.8744e-09
-4.883e-08
1.91001e-08
-1.07954e-07
-2.23806e-08
-8.68171e-08
-4.60016e-08
-6.81885e-08
-4.08105e-08
-4.02572e-08
-1.91984e-08
-1.50189e-07
-3.08306e-08
-6.98018e-08
4.58916e-09
-1.20391e-07
1.96747e-08
1.10032e-07
6.86882e-08
-1.3378e-07
-7.08314e-08
-1.01035e-07
-5.06351e-08
-7.0912e-08
-7.81496e-08
-4.98105e-08
-4.05081e-09
-1.03755e-07
8.62641e-08
-1.1189e-07
5.68708e-08
-9.1412e-08
1.67022e-08
-7.19536e-08
1.81266e-08
-6.06163e-08
1.38066e-08
-6.36201e-08
1.25345e-08
-5.76498e-08
1.26206e-08
-5.29101e-08
9.89694e-09
-4.82275e-08
7.99567e-09
-4.06318e-08
6.73914e-09
-3.29838e-08
3.85406e-09
-2.9023e-08
-1.87405e-09
-2.6674e-08
-3.94885e-09
-2.41516e-08
-3.4019e-09
-2.33299e-08
-1.33393e-10
-2.40145e-08
2.21039e-09
-2.58967e-08
4.07053e-09
-2.91229e-08
4.99107e-09
-3.36241e-08
4.78647e-09
-3.92671e-08
3.49988e-09
-4.55338e-08
5.45974e-10
-5.12395e-08
-3.28379e-09
-5.55414e-08
-8.46878e-09
-5.92903e-08