/*--------------------------------*- C++ -*----------------------------------*\
  =========                 |
  \\      /  F ield         | OpenFOAM: The Open Source CFD Toolbox
   \\    /   O peration     | Website:  https://openfoam.org
    \\  /    A nd           | Version:  12
     \\/     M anipulation  |
\*---------------------------------------------------------------------------*/
FoamFile
{
    format      ascii;
    class       surfaceScalarField;
    location    "0.9";
    object      phi.water;
}
// * * * * * * * * * * * * * * * * * * * * * * * * * * * * * * * * * * * * * //

dimensions      [0 3 -1 0 0 0 0];

internalField   nonuniform List<scalar> 
7375
(
1.26343e-07
5.04024e-10
1.20702e-07
5.59423e-09
1.08718e-07
1.18729e-08
1.01537e-07
8.27756e-09
9.18085e-08
1.06216e-08
8.23806e-08
8.45532e-09
7.48829e-08
6.62699e-09
5.20694e-08
2.32471e-08
8.06094e-08
-2.8002e-08
9.08834e-08
-1.03414e-08
9.72372e-08
-7.19822e-09
1.08321e-07
-1.09754e-08
1.27083e-07
-1.8596e-08
7.13751e-09
-2.03358e-09
1.25238e-07
5.23203e-09
1.08034e-07
1.70255e-08
1.08449e-07
-1.52879e-09
1.04565e-07
3.92817e-09
1.25157e-07
-2.0587e-08
1.92833e-07
-7.03478e-08
1.74883e-07
1.77707e-08
4.55437e-08
9.05329e-09
1.61473e-07
6.0721e-09
1.39229e-07
2.36547e-08
1.29616e-07
9.53065e-09
1.39513e-07
-1.0006e-08
1.03722e-07
3.50662e-08
1.21936e-07
-1.92612e-08
1.36853e-07
-1.21341e-08
1.46398e-08
-1.16989e-09
1.18339e-07
1.69828e-08
9.38637e-08
2.56722e-08
7.35044e-08
2.03524e-08
6.76216e-08
5.88501e-09
4.41533e-08
2.41568e-08
1.99544e-08
2.43316e-08
-6.13948e-09
2.58332e-08
-2.77358e-08
2.16224e-08
-4.66062e-08
1.8872e-08
-6.09325e-08
1.41878e-08
-7.11119e-08
1.00793e-08
-7.84101e-08
7.27953e-09
-8.60485e-08
8.44726e-09
-7.824e-08
-6.94795e-09
-7.13007e-08
-6.93958e-09
-6.13642e-08
-9.93613e-09
-5.23371e-08
-9.02737e-09
-4.45303e-08
-7.80647e-09
-3.65499e-08
-7.98065e-09
-2.9297e-08
-7.25256e-09
-2.22187e-08
-7.07858e-09
-1.70855e-08
-5.13279e-09
-1.21525e-08
-4.93324e-09
-7.6394e-09
-4.51269e-09
-2.58533e-09
-5.05436e-09
2.5905e-09
-5.17544e-09
7.51334e-09
-4.92316e-09
1.19284e-08
-4.41474e-09
1.56978e-08
-3.76972e-09
1.96696e-08
-3.97149e-09
2.45044e-08
-4.83522e-09
3.08772e-08
-6.37252e-09
3.88025e-08
-7.9257e-09
4.77165e-08
-8.91395e-09
5.63886e-08
-8.67266e-09
6.22703e-08
-5.88168e-09
6.2329e-08
-5.92094e-11
5.51431e-08
7.18599e-09
4.30355e-08
1.21073e-08
2.93554e-08
1.36804e-08
1.59629e-08
1.33923e-08
3.78345e-09
1.21793e-08
-8.97655e-09
1.27593e-08
-2.00485e-08
1.1071e-08
3.77253e-09
1.35827e-07
-1.12001e-08
1.43972e-07
-2.63294e-09
1.52464e-07
6.31169e-09
1.35589e-07
2.50686e-08
1.43237e-07
1.48247e-09
1.34495e-07
1.85727e-08
1.49166e-07
-5.05212e-09
4.67609e-08
1.51873e-09
1.08091e-07
3.41393e-08
8.25651e-08
1.33262e-08
8.30777e-08
-9.38353e-09
9.74843e-08
-2.57877e-08
9.56727e-08
-1.57998e-08
9.70134e-08
-2.42272e-09
1.10999e-07
-9.98775e-09
1.19533e-07
9.62388e-09
1.04269e-07
1.62089e-08
8.85466e-08
1.85764e-08
5.93226e-08
8.42481e-09
2.95034e-07
6.02415e-08
5.12945e-08
-1.04298e-07
6.80534e-08
-7.79602e-09
8.66128e-08
-1.19205e-08
1.00586e-07
9.63771e-09
1.12192e-07
9.46055e-11
8.58453e-08
1.84037e-08
9.27814e-08
2.57338e-08
7.73432e-08
-5.75497e-09
6.04909e-08
4.10722e-09
5.01308e-08
9.81296e-09
6.35762e-08
4.26537e-09
6.63726e-08
2.31117e-08
5.72778e-08
2.9447e-08
4.16628e-08
2.2151e-08
2.33325e-08
4.24869e-08
1.24867e-08
3.43408e-08
-5.03051e-09
4.26515e-08
-2.00893e-08
3.63108e-08
-2.97332e-08
2.85281e-08
-3.59752e-08
2.05852e-08
-3.50174e-08
8.67056e-09
-3.40828e-08
6.27147e-09
-2.71779e-08
1.79854e-09
-2.69485e-08
-7.17724e-09
-2.4567e-08
-9.3212e-09
-2.48922e-08
-9.61079e-09
-2.53603e-08
-8.55929e-09
-2.51475e-08
-8.0192e-09
-2.4486e-08
-8.64218e-09
-2.40409e-08
-7.69747e-09
-2.48345e-08
-6.28496e-09
-2.75674e-08
-2.39979e-09
-3.18458e-08
-6.54899e-10
-3.60432e-08
-3.1506e-10
-3.80322e-08
-3.06542e-09
-3.77166e-08
-5.49091e-09
-3.61128e-08
-6.52707e-09
-3.42237e-08
-6.30367e-09
-3.20995e-08
-5.89402e-09
-2.90352e-08
-7.0358e-09
-2.34876e-08
-1.03829e-08
-1.4849e-08
-1.50112e-08
-3.77869e-09
-1.89962e-08
8.50001e-09
-2.11928e-08
2.04218e-08
-2.05947e-08
2.95641e-08
-1.50243e-08
3.26059e-08
-3.10127e-09
2.74931e-08
1.22986e-08
1.59834e-08
2.3617e-08
5.85347e-10
2.90786e-08
-1.54244e-08
2.9402e-08
-2.66733e-08
2.3428e-08
-3.20524e-08
1.81375e-08
-3.42294e-08
1.32471e-08
3.33951e-09
3.9676e-08
-8.6703e-09
4.15271e-08
-4.4831e-09
5.15166e-08
-4.1337e-09
6.70034e-08
9.1727e-09
7.01651e-08
-9.87303e-10
7.42543e-08
1.59571e-08
6.6674e-08
1.86039e-09
5.92996e-08
8.18945e-09
7.91882e-08
1.45076e-08
9.11082e-08
1.27042e-09
6.63014e-08
1.60041e-08
6.01844e-08
-2.01439e-08
3.48375e-08
9.22156e-09
2.43456e-08
8.40695e-09
4.79897e-09
9.35749e-09
9.20334e-09
5.36425e-09
-9.54741e-09
3.46978e-08
-2.19461e-08
3.06592e-08
-1.5452e-08
2.09005e-09
3.23772e-08
1.19601e-08
1.69485e-08
-8.97757e-08
-3.99651e-08
4.81491e-08
-4.51896e-08
-7.69639e-09
-5.31968e-08
1.75624e-08
-6.11658e-08
8.70263e-09
-2.58348e-08
-1.64153e-08
-5.50179e-09
5.14089e-09
-1.93781e-08
8.06522e-09
-3.55349e-08
2.01008e-08
-5.01655e-08
2.4032e-08
-5.2405e-08
5.96466e-09
-6.65713e-08
3.82119e-08
-5.40024e-08
1.70063e-08
-6.62689e-08
3.40663e-08
-5.49736e-08
3.16719e-08
-5.86852e-08
3.82586e-08
-5.00459e-08
3.35857e-08
-4.5938e-08
3.18398e-08
-4.05378e-08
2.28425e-08
-3.64602e-08
1.65076e-08
-3.83966e-08
1.06069e-08
-3.91947e-08
7.00691e-09
-3.38349e-08
-3.56127e-09
-3.49211e-08
-6.09112e-09
-3.6188e-08
-8.05422e-09
-3.75384e-08
-8.2604e-09
-3.79874e-08
-8.11023e-09
-3.78997e-08
-8.10688e-09
-3.81422e-08
-8.39957e-09
-3.90955e-08
-6.74412e-09
-4.21498e-08
-3.23066e-09
-4.70648e-08
2.51528e-09
-5.3544e-08
5.82441e-09
-5.97191e-08
5.86014e-09
-6.45028e-08
1.71827e-09
-6.71298e-08
-2.86387e-09
-6.8698e-08
-4.95882e-09
-6.97055e-08
-5.29613e-09
-6.95467e-08
-6.05287e-09
-6.66998e-08
-9.8827e-09
-6.0303e-08
-1.67798e-08
-5.20963e-08
-2.32179e-08
-4.44532e-08
-2.66394e-08
-3.80511e-08
-2.7595e-08
-3.3767e-08
-2.48791e-08
-3.25812e-08
-1.62103e-08
-3.46353e-08
-1.04743e-09
-3.89256e-08
1.65887e-08
-4.27819e-08
2.74732e-08
-4.49542e-08
3.12508e-08
-4.48003e-08
2.92481e-08
-4.23295e-08
2.09568e-08
-4.04174e-08
1.62244e-08
-3.81161e-08
1.09448e-08
1.68734e-09
4.66231e-08
-1.38899e-08
4.14826e-08
6.58265e-10
4.26951e-08
-4.9144e-09
3.89687e-08
1.29932e-08
-7.74242e-09
4.57141e-08
-1.15007e-09
9.44975e-09
-6.62443e-09
7.31584e-09
-1.60527e-08
1.79522e-08
-1.03546e-08
8.90054e-09
-2.08628e-08
1.19003e-08
-3.21391e-08
2.66805e-08
-8.56418e-08
3.30244e-08
-8.82132e-08
1.16466e-08
-9.54899e-08
1.65063e-08
-9.98495e-08
1.4596e-08
-9.59384e-08
1.39855e-09
-8.32021e-08
2.13894e-08
-7.04538e-08
1.79111e-08
-7.6621e-08
8.32086e-09
-1.01756e-07
3.72177e-08
1.30084e-07
4.32459e-08
-1.06883e-07
-7.68886e-08
-8.68854e-08
-2.90016e-08
-6.13054e-08
-8.82217e-09
-1.27683e-07
-4.83305e-08
-1.12259e-08
-9.50686e-09
-1.43976e-08
8.28059e-09
-3.88803e-08
3.26118e-08
-3.74974e-08
1.85307e-08
-5.23354e-08
3.80988e-08
-9.17136e-08
4.48034e-08
-7.94452e-08
2.55497e-08
-6.76884e-08
6.75046e-09
-6.73241e-08
3.40378e-08
-5.64014e-08
2.04325e-08
-4.41384e-08
2.59956e-08
-4.00066e-08
2.94538e-08
-3.41576e-08
2.59908e-08
-3.23724e-08
2.10573e-08
-3.1212e-08
1.53472e-08
-2.99294e-08
9.32425e-09
-2.88106e-08
5.88815e-09
-3.20423e-08
-3.29656e-10
-3.33716e-08
-4.76179e-09
-3.42914e-08
-7.13442e-09
-3.49072e-08
-7.64456e-09
-3.53334e-08
-7.68399e-09
-3.59654e-08
-7.47486e-09
-3.74463e-08
-6.9186e-09
-3.97413e-08
-4.44908e-09
-4.3325e-08
3.53086e-10
-4.77933e-08
6.98367e-09
-5.39839e-08
1.20151e-08
-6.10299e-08
1.29062e-08
-6.85186e-08
9.20699e-09
-7.47413e-08
3.35887e-09
-7.88038e-08
-8.96315e-10
-8.08432e-08
-3.25667e-09
-8.05733e-08
-6.3228e-09
-7.68634e-08
-1.35927e-08
-7.04591e-08
-2.31841e-08
-6.51733e-08
-2.85037e-08
-6.19141e-08
-2.98988e-08
-6.0824e-08
-2.86853e-08
-6.33078e-08
-2.23954e-08
-6.82216e-08
-1.12968e-08
-7.13691e-08
2.09978e-09
-7.02067e-08
1.54261e-08
-6.59276e-08
2.3194e-08
-5.96205e-08
2.49436e-08
-5.18043e-08
2.14316e-08
-4.645e-08
1.56019e-08
-4.31358e-08
1.29092e-08
-4.02772e-08
8.08525e-09
3.18199e-10
4.08866e-08
-5.18743e-09
4.8023e-08
-6.47713e-09
5.51796e-08
-1.20704e-08
9.33967e-08
-2.46605e-08
-1.91171e-08
3.59704e-08
3.44157e-08
7.84299e-08
-2.28687e-08
6.39415e-08
-5.08364e-08
4.53963e-08
-6.56647e-08
2.35762e-08
-8.55598e-08
3.33543e-08
-6.60785e-08
7.39601e-09
-1.68518e-07
1.28584e-08
-6.06412e-08
2.61845e-08
-7.11547e-08
2.62329e-08
-4.94407e-08
-7.11792e-09
-6.38003e-08
1.64092e-08
-4.22014e-08
-2.09344e-10
-4.32664e-08
1.81043e-08
-4.90994e-08
1.41539e-08
-3.0208e-08
1.88272e-08
2.00079e-09
1.10372e-08
-4.70745e-08
-2.90779e-08
-8.07765e-08
4.7004e-09
-6.78091e-08
-2.09654e-08
-9.86867e-08
-1.69598e-08
-2.401e-08
-8.48037e-08
-1.62503e-10
-1.55653e-08
-3.7391e-08
6.95143e-08
-2.32978e-08
4.48229e-09
2.97802e-08
-1.49138e-08
-7.55022e-08
2.70718e-08
1.40603e-08
5.79681e-08
-3.60611e-08
5.68719e-08
-3.41282e-08
3.2469e-08
-3.98151e-08
2.64605e-08
-3.96283e-08
2.58086e-08
-3.35515e-08
2.33769e-08
-2.77386e-08
2.01778e-08
-2.34382e-08
1.67568e-08
-1.98657e-08
1.17747e-08
-1.71349e-08
6.59339e-09
-1.48501e-08
3.60336e-09
-1.4423e-08
-7.56809e-10
-1.58571e-08
-3.32769e-09
-1.75435e-08
-5.44796e-09
-1.89564e-08
-6.23164e-09
-2.04269e-08
-6.21345e-09
-2.25845e-08
-5.31719e-09
-2.57682e-08
-3.73491e-09
-3.00502e-08
-1.66987e-10
-3.50265e-08
5.32946e-09
-3.9973e-08
1.19302e-08
-4.56413e-08
1.76835e-08
-5.2442e-08
1.97069e-08
-6.05703e-08
1.73353e-08
-6.88754e-08
1.1664e-08
-7.55265e-08
5.75488e-09
-7.88004e-08
1.71661e-11
-7.83036e-08
-6.81957e-09
-7.43335e-08
-1.75628e-08
-6.98275e-08
-2.76901e-08
-6.7286e-08
-3.10452e-08
-6.5718e-08
-3.14669e-08
-6.67883e-08
-2.76152e-08
-7.12015e-08
-1.79824e-08
-7.58134e-08
-6.68506e-09
-7.69243e-08
3.21043e-09
-7.30831e-08
1.15847e-08
-6.64624e-08
1.65731e-08
-5.85551e-08
1.70362e-08
-5.14077e-08
1.4284e-08
-4.70042e-08
1.11978e-08
-4.36806e-08
9.58449e-09
-4.14417e-08
5.84533e-09
-2.45312e-10
-2.41428e-09
-3.4579e-08
3.58219e-08
7.61178e-08
-1.52768e-09
2.55222e-08
4.11802e-08
-6.80623e-08
-2.93295e-08
1.0678e-07
-3.42725e-08
8.34236e-08
-4.58464e-08
7.5166e-08
-5.90376e-08
5.81245e-08
-9.13894e-08
5.56877e-08
-8.5553e-08
2.69034e-08
-7.82823e-08
2.00977e-10
-9.32029e-08
2.76479e-08
-5.03803e-08
-1.63707e-08
-3.89608e-08
1.46639e-08
-4.67028e-08
6.30667e-10
-4.69841e-08
1.66905e-08
-3.81482e-08
-9.04727e-09
-3.96052e-08
1.95614e-08
-5.19681e-08
2.63725e-08
-4.11289e-08
7.9074e-09
-3.35711e-08
3.47947e-09
-4.88502e-08
-1.37986e-08
-7.69043e-08
3.27065e-08
-1.13313e-07
1.54435e-08
-1.76144e-07
4.45281e-08
5.03614e-08
5.8654e-08
5.53117e-08
-2.17524e-08
-1.37187e-07
-1.00793e-07
-8.99972e-08
-4.40618e-08
-3.12471e-08
-7.45769e-08
-8.63426e-08
8.1936e-08
-4.89851e-08
2.06106e-08
-3.38658e-08
4.11782e-08
-3.12581e-08
2.98753e-08
-3.13632e-08
2.65655e-08
-2.59436e-08
2.0389e-08
-2.11908e-08
1.8624e-08
-1.71278e-08
1.61148e-08
-1.45207e-08
1.41497e-08
-1.18461e-08
9.10008e-09
-1.05008e-08
5.24802e-09
-9.35592e-09
2.4585e-09
-1.04008e-08
2.8811e-10
-1.12945e-08
-2.43403e-09
-1.30026e-08
-3.73981e-09
-1.48229e-08
-4.41136e-09
-1.67712e-08
-4.26507e-09
-1.8983e-08
-3.10543e-09
-2.20193e-08
-6.98522e-10
-2.58876e-08
3.70133e-09
-2.98511e-08
9.29308e-09
-3.32584e-08
1.53375e-08
-3.62599e-08
2.0685e-08
-3.94553e-08
2.29024e-08
-4.42162e-08
2.20962e-08
-5.03471e-08
1.77949e-08
-5.61276e-08
1.15354e-08
-6.04003e-08
4.28992e-09
-6.216e-08
-5.05995e-09
-6.16214e-08
-1.81015e-08
-6.07304e-08
-2.85811e-08
-6.03519e-08
-3.14237e-08
-6.09563e-08
-3.08626e-08
-6.39004e-08
-2.46712e-08
-6.80356e-08
-1.38474e-08
-7.06588e-08
-4.06208e-09
-7.00386e-08
2.58995e-09
-6.59637e-08
7.50957e-09
-5.99866e-08
1.05958e-08
-5.40994e-08
1.11488e-08
-4.96469e-08
9.83121e-09
-4.64865e-08
8.03674e-09
-4.38222e-08
6.91908e-09
-4.22414e-08
4.26341e-09
-3.69248e-10
-1.31666e-08
1.4555e-09
-2.42312e-07
-6.1264e-08
-2.36769e-07
1.75646e-08
-5.02897e-09
7.08921e-08
-1.65099e-07
-1.00971e-07
-1.58981e-07
7.73678e-08
-1.18463e-07
3.62702e-08
-8.70011e-08
2.63936e-08
-1.64563e-07
1.28653e-08
-5.72385e-08
4.04097e-08
-6.49507e-08
7.32939e-09
-6.85066e-08
3.1204e-08
-6.78638e-08
-1.63211e-08
-6.26346e-08
8.80226e-09
-6.46205e-08
1.97117e-09
-5.46938e-08
7.42315e-09
-5.35264e-08
-1.02145e-08
-6.15716e-08
2.73279e-08
-4.72735e-08
1.25567e-08
-4.96292e-08
1.02632e-08
-4.13428e-08
-5.31317e-09
5.47514e-09
-6.06165e-08
-4.7628e-08
8.49431e-08
-6.16391e-08
2.88258e-08
-1.62069e-07
2.16369e-08
-3.37734e-08
5.34765e-08
-6.95848e-08
1.33491e-08
-1.4414e-07
-2.72765e-08
-1.88643e-07
-1.25853e-11
6.47133e-08
4.13621e-08
-1.41076e-07
-7.54183e-08
-9.49951e-08
-2.57307e-08
-5.78047e-08
4.52572e-09
-5.88865e-08
3.0957e-08
-5.17107e-08
1.93897e-08
-4.82297e-08
1.6908e-08
-4.2312e-08
1.27063e-08
-3.77377e-08
1.15404e-08
-3.46091e-08
1.1021e-08
-3.35104e-08
8.00141e-09
-3.33258e-08
5.06334e-09
-3.27181e-08
1.85081e-09
-3.22526e-08
-1.77374e-10
-3.24625e-08
-2.2241e-09
-3.32929e-08
-2.90946e-09
-3.41692e-08
-3.53495e-09
-3.46474e-08
-3.78688e-09
-3.47335e-08
-3.01924e-09
-3.48662e-08
-5.65822e-10
-3.50441e-08
3.87931e-09
-3.51833e-08
9.43232e-09
-3.52269e-08
1.53812e-08
-3.46519e-08
2.011e-08
-3.38049e-08
2.20554e-08
-3.34433e-08
2.17347e-08
-3.45192e-08
1.88708e-08
-3.69557e-08
1.39718e-08
-4.03137e-08
7.64793e-09
-4.42788e-08
-1.0948e-09
-4.85241e-08
-1.38563e-08
-5.1656e-08
-2.54492e-08
-5.38272e-08
-2.92526e-08
-5.6218e-08
-2.84718e-08
-5.91175e-08
-2.17719e-08
-6.17027e-08
-1.12624e-08
-6.25762e-08
-3.18874e-09
-6.1284e-08
1.29747e-09
-5.82445e-08
4.46984e-09
-5.45852e-08
6.93629e-09
-5.11369e-08
7.70028e-09
-4.82376e-08
6.93152e-09
-4.59983e-08
5.79687e-09
-4.40615e-08
4.98109e-09
-4.29091e-08
3.10989e-09
-3.63683e-10
-8.43901e-08
-4.00591e-08
-2.20208e-07
7.37863e-08
-2.22221e-07
2.18044e-08
-2.00081e-07
4.75316e-08
3.42647e-08
3.25642e-08
-1.88853e-07
-6.21587e-08
-1.31297e-07
-2.18724e-08
-1.11257e-07
6.35399e-09
-1.1879e-07
1.92635e-08
-8.76712e-08
9.70318e-09
-7.89005e-08
-1.44115e-09
-5.84659e-08
1.07696e-08
-7.42088e-08
-5.78068e-10
-5.83052e-08
-7.01143e-09
-7.0968e-08
1.4614e-08
-7.64806e-08
1.29359e-08
-6.46213e-08
-2.14144e-08
-5.43469e-08
1.70535e-08
-4.57288e-08
3.35003e-09
-4.90346e-08
1.36739e-08
-8.20162e-08
2.76685e-08
1.14291e-07
1.08099e-07
-9.96062e-08
-6.30141e-08
-6.9216e-08
-2.55445e-09
-7.07566e-08
2.2725e-08
-3.83904e-08
2.11103e-08
-5.6591e-08
3.15498e-08
-8.67293e-08
2.25526e-09
-1.09711e-07
2.27344e-08
-6.25479e-08
-5.15595e-09
-1.01113e-07
-3.76224e-08
-5.46041e-08
-7.24216e-08
-1.04356e-07
5.53773e-08
-9.58086e-08
2.24095e-08
-8.30003e-08
6.58132e-09
-7.78973e-08
1.1805e-08
-7.27772e-08
7.58609e-09
-6.90023e-08
7.76551e-09
-6.54318e-08
7.45044e-09
-6.29447e-08
5.51429e-09
-6.10372e-08
3.15575e-09
-5.97396e-08
5.53254e-10
-5.87431e-08
-1.17391e-09
-5.81865e-08
-2.78069e-09
-5.80377e-08
-3.05821e-09
-5.81691e-08
-3.40352e-09
-5.81502e-08
-3.80573e-09
-5.79122e-08
-3.25723e-09
-5.72826e-08
-1.19534e-09
-5.51566e-08
1.75333e-09
-5.10357e-08
5.31139e-09
-4.55159e-08
9.86146e-09
-3.94516e-08
1.40457e-08
-3.41298e-08
1.67336e-08
-2.99332e-08
1.75381e-08
-2.70875e-08
1.60252e-08
-2.63504e-08
1.32347e-08
-2.80809e-08
9.37841e-09
-3.23141e-08
3.13837e-09
-3.90378e-08
-7.13261e-09
-4.55396e-08
-1.89474e-08
-4.96903e-08
-2.51019e-08
-5.26049e-08
-2.55573e-08
-5.46842e-08
-1.96927e-08
-5.62376e-08
-9.70905e-09
-5.64084e-08
-3.01822e-09
-5.5309e-08
1.97886e-10
-5.35206e-08
2.68125e-09
-5.14121e-08
4.82754e-09
-4.9253e-08
5.54104e-09
-4.7268e-08
4.94609e-09
-4.56582e-08
4.1864e-09
-4.42704e-08
3.59223e-09
-4.34208e-08
2.25918e-09
-3.26014e-10
3.46563e-08
8.14446e-08
-2.00661e-07
-5.4876e-08
-1.61499e-07
-1.75778e-08
-1.12188e-07
-2.25868e-09
-6.00007e-08
-1.99515e-08
-1.01822e-07
-2.09646e-08
-1.17792e-07
-6.94151e-09
-9.30914e-08
-1.80966e-08
-7.59167e-08
2.08893e-09
-6.33225e-08
-2.86164e-09
-8.15298e-08
1.69392e-08
-7.83729e-08
7.61276e-09
-8.82006e-08
9.24983e-09
-9.94878e-08
4.27586e-09
-7.54526e-08
-9.5182e-09
-5.39507e-08
-8.56594e-09
-6.19613e-08
-1.34036e-08
-3.77027e-08
-6.5793e-09
-2.92384e-08
-5.11417e-09
-4.84075e-08
3.25447e-08
-1.54863e-08
-5.25268e-09
-4.65175e-08
1.73651e-08
3.9753e-09
6.64682e-09
-1.80515e-08
1.94979e-08
-5.07147e-09
9.66026e-09
1.8385e-09
1.41486e-08
1.68783e-09
3.13803e-08
-3.0978e-08
3.52371e-08
-1.51725e-08
6.48063e-09
-3.07595e-08
1.01699e-08
-9.96613e-08
3.05764e-08
1.26702e-07
7.11781e-08
-1.21303e-07
-6.29383e-08
-7.54284e-08
-2.24775e-08
-6.18381e-08
-7.07981e-09
-5.15531e-08
1.51987e-09
-4.89122e-08
4.94519e-09
-4.64571e-08
5.31035e-09
-4.46535e-08
5.64682e-09
-4.3849e-08
4.70977e-09
-4.38719e-08
3.17859e-09
-4.48923e-08
1.5737e-09
-4.65232e-08
4.57005e-10
-4.837e-08
-9.33927e-10
-5.02204e-08
-1.20781e-09
-5.22253e-08
-1.39857e-09
-5.492e-08
-1.11106e-09
-5.7974e-08
-2.03134e-10
-6.0398e-08
1.22869e-09
-6.08247e-08
2.18002e-09
-5.86269e-08
3.11368e-09
-5.33598e-08
4.59442e-09
-4.56571e-08
6.34304e-09
-3.67877e-08
7.8642e-09
-2.83696e-08
9.12e-09
-2.17991e-08
9.45472e-09
-1.83113e-08
9.74699e-09
-1.82199e-08
9.28702e-09
-2.16384e-08
6.55684e-09
-2.83974e-08
-3.73647e-10
-3.65438e-08
-1.0801e-08
-4.24573e-08
-1.91885e-08
-4.63163e-08
-2.16984e-08
-4.94073e-08
-1.66019e-08
-5.15526e-08
-7.56385e-09
-5.22206e-08
-2.35043e-09
-5.20037e-08
-1.92293e-11
-5.10245e-08
1.70189e-09
-4.95802e-08
3.38298e-09
-4.80521e-08
4.01272e-09
-4.66222e-08
3.51591e-09
-4.5434e-08
2.99751e-09
-4.44236e-08
2.58062e-09
-4.3794e-08
1.62856e-09
-2.76731e-10
-5.4639e-08
6.15557e-08
-1.1133e-07
1.81609e-09
-1.02505e-07
-2.64028e-08
-7.67206e-08
-2.83283e-08
-1.2507e-08
-8.41648e-08
-6.17861e-08
2.76908e-08
-1.47356e-07
-4.19307e-08
-5.39476e-08
9.32512e-09
-5.82221e-08
6.3425e-09
-4.4899e-08
-1.66381e-08
-6.90078e-08
4.01714e-08
-8.58738e-08
2.51828e-08
-1.10591e-07
3.39676e-08
-8.01744e-08
-2.66867e-08
-8.03889e-08
-9.20862e-09
-7.33794e-08
-1.50626e-08
-7.66977e-08
-9.39873e-09
-5.84704e-08
-2.48064e-08
-4.42989e-08
-2.01398e-08
-2.20131e-08
1.01554e-08
-4.09234e-08
1.40752e-08
-5.75663e-08
3.40081e-08
-4.08556e-08
-1.01665e-08
-3.36133e-08
1.19919e-08
-3.30871e-08
8.88721e-09
-1.4405e-08
-4.00801e-09
2.37073e-08
-6.73201e-09
-5.62888e-08
-6.01349e-09
3.9583e-08
3.07937e-08
1.23066e-08
3.77433e-08
1.99527e-08
2.30558e-08
5.73852e-08
3.32655e-08
-4.96617e-09
-5.86944e-10
-2.59273e-08
-1.69498e-09
-3.81371e-08
5.44673e-09
-4.18289e-08
5.64948e-09
-4.61912e-08
9.30743e-09
-4.77897e-08
6.90882e-09
-4.84949e-08
6.352e-09
-4.81959e-08
4.41079e-09
-4.88772e-08
3.8598e-09
-5.01638e-08
2.86031e-09
-5.135e-08
1.64324e-09
-5.26519e-08
3.67962e-10
-5.38357e-08
-2.40317e-11
-5.51963e-08
-3.78855e-11
-5.72375e-08
9.30105e-10
-5.93202e-08
1.8796e-09
-6.04463e-08
2.35483e-09
-6.00382e-08
1.772e-09
-5.74771e-08
5.52571e-10
-5.1809e-08
-1.07365e-09
-4.33299e-08
-2.136e-09
-3.30914e-08
-2.37434e-09
-2.25457e-08
-1.42572e-09
-1.35754e-08
4.84439e-10
-7.7842e-09
3.9558e-09
-5.68217e-09
7.18497e-09
-6.74704e-09
7.62169e-09
-1.13455e-08
4.22476e-09
-1.92185e-08
-2.92808e-09
-2.81737e-08
-1.02333e-08
-3.66887e-08
-1.31835e-08
-4.36426e-08
-9.64813e-09
-4.74971e-08
-3.70949e-09
-4.91495e-08
-6.98175e-10
-4.96842e-08
5.15254e-10
-4.93648e-08
1.38232e-09
-4.83541e-08
2.37201e-09
-4.71565e-08
2.81497e-09
-4.61248e-08
2.48386e-09
-4.52614e-08
2.1334e-09
-4.45206e-08
1.83869e-09
-4.40596e-08
1.16652e-09
-2.22563e-10
-1.79786e-07
-7.90632e-08
-1.41358e-07
-3.66114e-08
-1.38483e-07
-3.13083e-08
-1.57794e-07
-9.01685e-09
9.41068e-08
2.83049e-08
-1.35594e-07
-1.05098e-07
-7.11323e-08
-1.08887e-07
-9.06958e-08
2.96072e-08
-5.97326e-08
-2.46205e-08
-8.41658e-10
-7.62994e-08
-2.42733e-08
6.25657e-08
6.15573e-09
-5.49373e-09
-8.25917e-08
1.49488e-09
7.26464e-09
4.21386e-09
-4.37253e-08
4.10646e-08
-4.76563e-08
-1.20831e-08
-7.68169e-08
2.07443e-08
-8.3794e-08
-1.81535e-08
-3.98813e-08
-6.43041e-08
-7.15998e-08
4.22767e-08
-7.72591e-08
1.90041e-08
-4.40968e-08
1.19277e-09
-5.28421e-08
-8.81972e-10
-3.79847e-08
-2.71689e-09
-4.10319e-08
1.17549e-08
-3.11154e-08
-1.39245e-08
-3.7264e-08
-9.69434e-10
-3.7233e-08
-5.66472e-09
-4.19048e-09
-1.93777e-09
8.63677e-09
2.50033e-08
7.6724e-09
2.39419e-08
1.90349e-08
2.1903e-08
1.00461e-08
8.60205e-09
-1.48432e-08
2.31942e-08
-2.95103e-08
2.01139e-08
-4.37017e-08
2.01388e-08
-4.86413e-08
1.4684e-08
-5.38407e-08
1.21082e-08
-5.49062e-08
7.41743e-09
-5.40844e-08
3.58898e-09
-5.55046e-08
5.27999e-09
-5.8369e-08
5.72474e-09
-6.09279e-08
4.20217e-09
-6.27452e-08
2.18518e-09
-6.40612e-08
1.29198e-09
-6.49532e-08
8.54144e-10
-6.53287e-08
1.30562e-09
-6.50871e-08
1.63805e-09
-6.37222e-08
9.8998e-10
-6.07382e-08
-1.212e-09
-5.54939e-08
-4.69167e-09
-4.75103e-08
-9.05724e-09
-3.7418e-08
-1.22283e-08
-2.66513e-08
-1.3141e-08
-1.64832e-08
-1.15938e-08
-7.96114e-09
-8.03761e-09
-2.17532e-09
-1.83004e-09
2.38595e-11
4.98577e-09
-7.68452e-10
8.41397e-09
-4.42726e-09
7.88354e-09
-1.11853e-08
3.82996e-09
-2.10834e-08
-3.35295e-10
-3.26622e-08
-1.60474e-09
-4.19819e-08
-3.28559e-10
-4.65659e-08
8.74312e-10
-4.83016e-08
1.03741e-09
-4.88006e-08
1.01401e-09
-4.85829e-08
1.1645e-09
-4.76874e-08
1.47624e-09
-4.65855e-08
1.71293e-09
-4.57707e-08
1.66871e-09
-4.51415e-08
1.50351e-09
-4.45909e-08
1.28694e-09
-4.42513e-08
8.25823e-10
-1.70224e-10
-9.59677e-08
-1.82791e-08
-9.13702e-08
-4.15347e-08
-9.53092e-08
-2.73686e-08
-6.48362e-08
-3.85171e-08
-1.88489e-08
-1.78643e-08
-9.84126e-08
-2.76107e-08
1.2485e-07
3.6907e-08
-1.16776e-07
-9.25171e-08
-1.0934e-07
-3.38441e-08
1.35248e-07
4.43734e-08
-7.52099e-08
-8.88346e-08
-4.73955e-08
-3.40753e-08
-5.71258e-08
1.12253e-08
-4.96615e-08
-3.20734e-09
-2.0744e-08
1.24393e-08
-3.83575e-08
5.77701e-09
-5.31844e-08
3.53596e-08
-9.62392e-08
2.39195e-08
1.21295e-07
8.87872e-08
-1.22769e-07
-8.06538e-08
-7.59629e-08
-2.80883e-08
-6.93143e-08
-5.45584e-09
-5.27746e-08
-1.67127e-08
-3.7563e-08
-1.77558e-08
-3.33162e-08
7.12876e-09
-3.62773e-08
-1.14453e-08
-2.41186e-08
-1.29956e-08
-1.41768e-08
-1.56065e-08
-2.495e-08
9.07018e-09
-1.82217e-08
1.8275e-08
-1.48243e-08
2.0153e-08
-1.81741e-08
2.54763e-08
-4.3868e-08
3.46494e-08
-4.32235e-08
2.2322e-08
-5.53187e-08
3.27734e-08
-6.1532e-08
2.67038e-08
-6.57109e-08
1.88629e-08
-6.82684e-08
1.46656e-08
-7.02969e-08
9.44592e-09
-7.24061e-08
5.69816e-09
-7.51678e-08
8.04167e-09
-7.64282e-08
6.98513e-09
-7.71562e-08
4.9302e-09
-7.73334e-08
2.3624e-09
-7.65755e-08
5.34132e-10
-7.5237e-08
-4.84394e-10
-7.28025e-08
-1.12889e-09
-6.99302e-08
-1.23418e-09
-6.56763e-08
-3.26393e-09
-5.95124e-08
-7.37585e-09
-5.16411e-08
-1.2563e-08
-4.31831e-08
-1.75152e-08
-3.41817e-08
-2.12297e-08
-2.48188e-08
-2.25039e-08
-1.58567e-08
-2.0556e-08
-8.50031e-09
-1.5394e-08
-3.7016e-09
-6.62877e-09
-2.33133e-09
3.61547e-09
-4.53839e-09
1.0621e-08
-9.48401e-09
1.28291e-08
-1.71103e-08
1.14562e-08
-2.7136e-08
9.69034e-09
-3.70111e-08
8.27028e-09
-4.35703e-08
6.23053e-09
-4.65928e-08
3.89672e-09
-4.77989e-08
2.24331e-09
-4.80994e-08
1.3144e-09
-4.77752e-08
8.40024e-10
-4.70038e-08
7.04698e-10
-4.61537e-08
8.62685e-10
-4.55287e-08
1.04335e-09
-4.50465e-08
1.02059e-09
-4.46349e-08
8.74251e-10
-4.43864e-08
5.76182e-10
-1.21034e-10
9.44594e-08
1.15745e-08
7.24011e-08
-1.96762e-08
7.7331e-08
-3.20187e-08
7.85457e-08
-3.89301e-08
6.12978e-08
-6.09816e-10
1.67365e-08
1.64962e-08
3.86265e-08
1.46369e-08
-2.26426e-08
-3.3155e-08
-4.99823e-08
-7.09254e-09
-8.58307e-09
3.4895e-09
-5.8368e-08
-3.98682e-08
-6.87642e-08
-2.3679e-08
-3.59405e-08
-2.15982e-08
-1.3615e-07
-2.36714e-08
-3.08091e-08
2.79285e-08
-5.74283e-08
3.20819e-08
-4.25298e-08
2.04612e-08
-5.10884e-08
3.24782e-08
7.60025e-09
2.91928e-08
-5.10789e-08
-2.24957e-08
-7.07587e-08
-8.40841e-09
-4.98428e-08
-2.51413e-08
-4.96113e-08
-1.74452e-08
-4.10759e-08
-2.67102e-08
8.03686e-09
-4.14922e-08
-9.27729e-08
-3.20791e-08
5.32657e-09
9.63776e-09
1.63735e-10
-1.03893e-08
-1.14559e-08
2.06899e-08
-9.12017e-09
1.62187e-08
-5.81637e-09
1.68491e-08
-6.48881e-09
2.62914e-08
2.9545e-09
2.51757e-08
-7.17788e-09
3.27553e-08
-1.89594e-08
4.42239e-08
-1.0075e-08
1.8009e-08
-1.74289e-08
2.62167e-08
-2.82884e-08
2.55251e-08
-4.73999e-08
2.85574e-08
-6.46014e-08
2.28997e-08
-7.2345e-08
1.57853e-08
-7.49791e-08
9.61922e-09
-7.53846e-08
5.33569e-09
-7.47355e-08
1.71336e-09
-7.3116e-08
-1.0854e-09
-7.0958e-08
-2.64237e-09
-6.74703e-08
-4.61652e-09
-6.30424e-08
-5.66212e-09
-5.77666e-08
-8.5397e-09
-5.2015e-08
-1.31275e-08
-4.66144e-08
-1.79636e-08
-4.26417e-08
-2.14879e-08
-3.86538e-08
-2.52176e-08
-3.43579e-08
-2.67998e-08
-2.91767e-08
-2.57372e-08
-2.39083e-08
-2.06625e-08
-1.95685e-08
-1.09685e-08
-1.76219e-08
1.66883e-09
-2.01633e-08
1.31623e-08
-2.57114e-08
1.83772e-08
-3.33787e-08
1.91234e-08
-4.09788e-08
1.72904e-08
-4.56771e-08
1.29685e-08
-4.69262e-08
7.47948e-09
-4.70467e-08
4.01712e-09
-4.7226e-08
2.42245e-09
-4.72836e-08
1.37182e-09
-4.69703e-08
5.26476e-10
-4.64456e-08
1.79879e-10
-4.58462e-08
2.62993e-10
-4.53655e-08
5.62391e-10
-4.49827e-08
6.37057e-10
-4.46735e-08
5.63894e-10
-4.44871e-08
3.88754e-10
-7.97603e-11
3.31928e-08
-3.75305e-09
-9.41291e-08
-1.56744e-08
-1.04809e-08
7.35685e-09
4.9934e-09
-5.4455e-08
-5.42317e-08
5.86218e-08
-6.41322e-08
2.58437e-08
-4.98817e-08
-2.71733e-10
-9.59012e-08
1.19999e-08
-9.40826e-08
-7.84943e-09
-7.22684e-08
-1.74004e-08
-8.17262e-08
-3.04103e-08
-8.47351e-08
-2.06701e-08
-8.2669e-08
-2.39081e-08
-1.02777e-07
-3.56348e-09
-7.47419e-08
1.78607e-10
-7.52153e-08
3.25554e-08
-9.21666e-08
3.74126e-08
-6.03108e-08
6.16225e-10
-3.49697e-08
3.85188e-09
-4.11151e-08
-1.63503e-08
-4.84442e-08
-9.93444e-10
-3.99741e-08
-3.36113e-08
-4.56605e-08
-1.1471e-08
-5.50266e-08
-1.70744e-08
-6.63489e-08
-3.1408e-08
-9.79342e-08
5.10427e-10
-5.49546e-08
-3.22555e-08
9.86099e-09
-7.65464e-08
-4.60614e-08
7.66123e-08
-6.13894e-08
3.15467e-08
-6.24998e-08
1.76741e-08
-7.01418e-08
3.39333e-08
-8.46884e-08
3.892e-08
-6.24658e-08
1.13966e-08
-4.30831e-08
2.56481e-08
-5.44753e-08
2.94011e-08
-5.0945e-08
2.26864e-08
-4.74153e-08
2.19954e-08
-4.44975e-08
2.56396e-08
-4.33859e-08
2.1788e-08
-3.80336e-08
1.0433e-08
-3.30978e-08
4.68346e-09
-3.07437e-08
2.98156e-09
-3.07395e-08
1.70914e-09
-3.23643e-08
5.39415e-10
-3.46329e-08
-3.73746e-10
-3.70656e-08
-2.18374e-09
-3.84971e-08
-4.23066e-09
-3.96891e-08
-7.34764e-09
-4.12348e-08
-1.15818e-08
-4.37527e-08
-1.54457e-08
-4.69687e-08
-1.82719e-08
-4.96455e-08
-2.25408e-08
-5.09783e-08
-2.54671e-08
-5.11914e-08
-2.55241e-08
-5.05249e-08
-2.13289e-08
-4.87759e-08
-1.27176e-08
-4.73378e-08
2.30676e-10
-4.76245e-08
1.3449e-08
-4.87143e-08
1.94669e-08
-5.03453e-08
2.07544e-08
-5.12887e-08
1.82338e-08
-5.02938e-08
1.19735e-08
-4.8531e-08
5.71667e-09
-4.74596e-08
2.94559e-09
-4.69156e-08
1.87823e-09
-4.6654e-08
1.11003e-09
-4.63369e-08
2.09231e-10
-4.59645e-08
-1.92769e-10
-4.55434e-08
-1.58242e-10
-4.51897e-08
2.08336e-10
-4.49127e-08
3.59338e-10
-4.46884e-08
3.38453e-10
-4.45557e-08
2.55006e-10
-4.36022e-11
-7.01048e-08
-1.60661e-08
-1.06664e-07
2.01248e-08
-9.87394e-08
-5.6121e-10
1.49226e-07
6.37682e-08
-1.05874e-07
-5.18684e-08
-7.01211e-08
-9.80861e-09
-6.51886e-08
-5.86913e-09
-1.70025e-07
-6.60829e-09
-7.68175e-08
2.25903e-08
-9.85788e-08
4.36103e-09
-1.15977e-07
-1.31458e-08
-9.56311e-08
-4.19917e-08
-9.02954e-08
-2.95483e-08
-8.60456e-08
-6.96301e-09
-8.671e-08
8.5172e-10
-6.07612e-08
6.53993e-09
-1.4691e-07
2.99686e-09
-2.53783e-08
-8.47018e-11
-3.69401e-08
1.51548e-08
-4.62905e-08
-6.99977e-09
-4.44016e-08
-2.88229e-09
-4.65155e-08
-3.14973e-08
-4.71933e-08
-1.07931e-08
-4.56621e-08
-1.87797e-08
-7.72471e-08
9.74957e-10
-6.30817e-08
-1.36601e-08
-1.05732e-07
8.43e-09
1.2028e-07
6.81065e-08
-1.34352e-07
-3.6172e-08
-9.86325e-08
-5.17893e-09
-1.1181e-07
3.05372e-08
-1.07677e-07
3.13735e-08
-1.03237e-07
3.5167e-08
-1.13243e-07
2.11749e-08
-9.62075e-08
8.61242e-09
-8.1376e-08
1.45696e-08
-7.09874e-08
1.22978e-08
-6.02672e-08
1.12753e-08
-4.81141e-08
1.34865e-08
-3.72797e-08
1.09536e-08
-2.86226e-08
1.77585e-09
-2.21817e-08
-1.75743e-09
-1.82462e-08
-9.53892e-10
-1.71891e-08
6.52086e-10
-1.81811e-08
1.53145e-09
-2.07537e-08
2.19883e-09
-2.47139e-08
1.77647e-09
-2.92326e-08
2.88049e-10
-3.44269e-08
-2.15338e-09
-4.02682e-08
-5.74047e-09
-4.66917e-08
-9.02218e-09
-5.21423e-08
-1.28213e-08
-5.62993e-08
-1.83838e-08
-5.95176e-08
-2.22489e-08
-6.33262e-08
-2.17156e-08
-6.75459e-08
-1.71093e-08
-7.01342e-08
-1.01293e-08
-6.9453e-08
-4.50556e-10
-6.66149e-08
1.06109e-08
-6.37308e-08
1.65828e-08
-6.03572e-08
1.73807e-08
-5.62447e-08
1.41212e-08
-5.23796e-08
8.10832e-09
-4.97446e-08
3.08154e-09
-4.80683e-08
1.26918e-09
-4.69978e-08
8.07515e-10
-4.63182e-08
4.30244e-10
-4.59242e-08
-1.84922e-10
-4.56507e-08
-4.66465e-10
-4.53774e-08
-4.31781e-10
-4.51032e-08
-6.61735e-11
-4.48938e-08
1.49242e-10
-4.47224e-08
1.65883e-10
-4.46144e-08
1.4596e-10
-2.00993e-11
-6.61453e-08
1.64302e-09
-3.67756e-08
-8.96322e-09
-1.61766e-08
-2.15311e-08
3.29701e-08
1.44568e-08
-2.64535e-08
7.82527e-09
-1.33139e-08
-2.27185e-08
-1.70872e-08
-2.23154e-09
-3.2668e-08
9.27868e-09
-1.55276e-09
-8.52474e-09
1.95029e-08
-1.65114e-08
-1.00103e-07
-1.68605e-08
-3.21462e-08
1.28076e-08
-6.64431e-08
4.41393e-09
-8.52549e-08
1.1655e-08
-1.04002e-07
2.17738e-08
-9.80646e-08
1.66993e-09
-1.10885e-07
1.48165e-08
-8.30159e-08
-2.82423e-08
-7.14699e-08
3.6089e-09
-4.9435e-08
-2.90347e-08
-4.01824e-08
-1.21347e-08
-6.54675e-08
-6.21221e-09
-4.85764e-08
-2.76841e-08
-5.72483e-08
-1.06918e-08
-1.61626e-07
-1.77848e-08
-7.09641e-08
1.85263e-08
-7.74483e-08
1.42631e-08
-8.05585e-08
7.28139e-08
-1.19761e-07
3.89245e-09
-1.00017e-07
-2.39026e-08
-1.01928e-07
3.28373e-08
-8.42836e-08
1.34153e-08
-6.73907e-08
1.82741e-08
-5.83708e-08
1.2155e-08
-6.10443e-08
1.12859e-08
-5.68952e-08
1.04206e-08
-5.26574e-08
8.05998e-09
-4.81022e-08
6.72009e-09
-4.0505e-08
5.88924e-09
-3.2833e-08
3.28152e-09
-2.88144e-08
-2.24271e-09
-2.64008e-08
-4.17097e-09
-2.38226e-08
-3.53216e-09
-2.295e-08
-2.20468e-10
-2.35802e-08
2.16171e-09
-2.54161e-08
4.03466e-09
-2.85973e-08
4.95769e-09
-3.30581e-08
4.74885e-09
-3.86634e-08
3.45188e-09
-4.48919e-08
4.88043e-10
-5.05582e-08
-3.35587e-09
-5.48246e-08
-8.55502e-09
-5.85464e-08
-1.46619e-08