/*--------------------------------*- C++ -*----------------------------------*\
  =========                 |
  \\      /  F ield         | OpenFOAM: The Open Source CFD Toolbox
   \\    /   O peration     | Website:  https://openfoam.org
    \\  /    A nd           | Version:  12
     \\/     M anipulation  |
\*---------------------------------------------------------------------------*/
FoamFile
{
    format      ascii;
    class       volVectorField;
    location    "0.9";
    object      U.water_0;
}
// * * * * * * * * * * * * * * * * * * * * * * * * * * * * * * * * * * * * * //

dimensions      [0 1 -1 0 0 0 0];

internalField   nonuniform List<vector> 
3750
(
(0.000535951 0.0115369 0)
(0.000479723 0.0117788 0)
(0.000738088 0.0101333 0)
(-0.000997226 0.0102602 0)
(0.000246029 0.00827323 0)
(-0.000852384 0.00697684 0)
(-0.00239083 0.00840451 0)
(-0.00501718 0.0117788 0)
(0.00103639 0.0113644 0)
(0.00123394 0.00908511 0)
(0.000347297 0.00798896 0)
(0.000647429 0.00459077 0)
(0.00252676 0.00391169 0)
(0.00515269 0.0171314 0)
(-0.00380138 0.0165102 0)
(-0.000860809 0.00275122 0)
(-5.56144e-05 0.0046547 0)
(8.86695e-05 0.00641686 0)
(0.000874464 0.00835771 0)
(0.00051343 0.00854353 0)
(0.000842915 0.00720466 0)
(0.00478348 0.0188955 0)
(-0.00402431 0.0203 0)
(-0.00194268 0.00762752 0)
(-0.000802028 0.0118783 0)
(-0.00233076 0.0115726 0)
(-0.000356524 0.00737631 0)
(-0.000213067 0.00696771 0)
(0.00246338 0.00393821 0)
(0.0045396 0.0187353 0)
(-0.00384459 0.0170085 0)
(-0.00150747 0.00347922 0)
(0.000322484 0.00595843 0)
(0.000238399 0.0058286 0)
(0.000686099 0.00453699 0)
(0.000819933 0.00283567 0)
(0.000815065 0.000547033 0)
(-0.000185495 -0.00231236 0)
(0.000844768 -0.0046656 0)
(0.000703091 -0.00566794 0)
(0.000333148 -0.00743857 0)
(0.000279388 -0.00829172 0)
(0.00123486 -0.00773293 0)
(-0.000579306 -0.00796944 0)
(-0.00077844 -0.00863199 0)
(-0.000991422 -0.00688724 0)
(-0.000850079 -0.00581971 0)
(-0.000721093 -0.00499511 0)
(-0.000705811 -0.00404206 0)
(-0.000649454 -0.0034948 0)
(-0.000656273 -0.00258097 0)
(-0.000527666 -0.0021288 0)
(-0.00055393 -0.00148913 0)
(-0.000518536 -0.00112105 0)
(-0.000481378 -0.000613542 0)
(-0.000414015 -0.000100095 0)
(-0.000299132 0.00041868 0)
(-0.000222127 0.000894792 0)
(-0.000153074 0.00130927 0)
(-0.00016718 0.00166986 0)
(-0.000198259 0.00210271 0)
(-0.000230585 0.0026439 0)
(-0.000251068 0.00337011 0)
(-0.000254099 0.00421004 0)
(-0.000197189 0.00511891 0)
(-1.69237e-05 0.00589477 0)
(0.000366114 0.00629043 0)
(0.000663542 0.00596023 0)
(0.000778402 0.00499234 0)
(0.000636985 0.00353954 0)
(0.000418246 0.00217121 0)
(0.00034222 0.000828857 0)
(0.00065217 -0.000202183 0)
(0.00063899 -0.00197535 0)
(0.000337477 -0.002465 0)
(-0.000259849 0.0125598 0)
(0.000521666 0.0132543 0)
(0.00153754 0.0122353 0)
(0.00191397 0.0127189 0)
(0.00114582 0.0128873 0)
(0.00251515 0.010083 0)
(0.00128837 0.00921865 0)
(0.00194239 0.016437 0)
(0.00047416 0.0145987 0)
(-9.13587e-05 0.00398108 0)
(-0.00166832 0.00565881 0)
(-0.000641791 0.00834026 0)
(0.0020831 0.0105698 0)
(0.00492767 0.0148351 0)
(-0.00621326 0.0156869 0)
(-0.00289814 0.0121662 0)
(-0.00148146 0.00886185 0)
(0.00142135 0.00880313 0)
(-0.000801071 0.00892562 0)
(0.00121498 0.007875 0)
(0.000279207 0.008766 0)
(0.00437518 0.0123506 0)
(-0.00714938 0.0132114 0)
(-0.00364827 0.010852 0)
(-0.00148788 0.0112391 0)
(-0.000115057 0.0105142 0)
(0.00151053 0.00670757 0)
(0.000532356 0.00321549 0)
(0.00437196 0.0059366 0)
(0.00581414 0.0111974 0)
(-0.00399054 0.0108547 0)
(-0.00278973 0.00801036 0)
(0.000656939 0.00619102 0)
(-4.67343e-05 0.00403856 0)
(0.00408287 0.0024045 0)
(0.00385663 0.00162545 0)
(0.00413541 -0.000690351 0)
(0.00370833 -0.0010085 0)
(0.00272426 -0.0029381 0)
(0.00203334 -0.00429693 0)
(0.00118079 -0.00439749 0)
(0.000933576 -0.00343625 0)
(0.000985075 -0.00274758 0)
(-0.000714776 -0.00327745 0)
(-0.000776452 -0.0027962 0)
(-0.00103462 -0.00258097 0)
(-0.000924911 -0.0027318 0)
(-0.000829059 -0.00264319 0)
(-0.000906321 -0.00253527 0)
(-0.000841707 -0.00255554 0)
(-0.000811074 -0.00250112 0)
(-0.000536921 -0.00268031 0)
(-0.000449727 -0.00299857 0)
(-0.000376754 -0.00353441 0)
(-0.000520253 -0.00388045 0)
(-0.000633175 -0.00394354 0)
(-0.000710892 -0.00382866 0)
(-0.000683222 -0.00363018 0)
(-0.000605041 -0.00340024 0)
(-0.000607025 -0.00317436 0)
(-0.000740546 -0.00276631 0)
(-0.00101755 -0.00206929 0)
(-0.00132866 -0.00106093 0)
(-0.00156966 0.000129494 0)
(-0.00160415 0.00137234 0)
(-0.00124031 0.00251413 0)
(-0.000388979 0.00316642 0)
(0.00068674 0.00313932 0)
(0.00157171 0.00222478 0)
(0.0021786 0.000837007 0)
(0.00236126 -0.000914849 0)
(0.00218502 -0.00237981 0)
(0.00185829 -0.0030067 0)
(0.00149755 -0.00392354 0)
(0.000379045 -0.00346029 0)
(-0.000956985 0.00344287 0)
(-0.000516474 0.00315196 0)
(-0.000377655 0.00315123 0)
(0.000969457 0.00475889 0)
(-0.000603387 0.00650112 0)
(0.0036697 0.00689717 0)
(0.00371182 0.00815796 0)
(0.00687254 0.0103093 0)
(-0.00156268 0.010377 0)
(-0.00237698 0.00885468 0)
(-0.00202936 0.00754073 0)
(-0.00366037 0.00747907 0)
(0.000569178 0.00669314 0)
(0.000676005 0.00565387 0)
(-0.000808843 0.00371916 0)
(0.000744702 0.000833081 0)
(0.00183686 0.000400074 0)
(0.00275725 -0.00284288 0)
(0.00138373 -0.00270875 0)
(0.00199428 -0.00164599 0)
(0.00162882 -0.00134139 0)
(-0.00012037 -0.00146084 0)
(-0.00247478 -0.00247718 0)
(-0.00305406 -0.00341691 0)
(-0.0049637 -0.00216974 0)
(0.00317863 -0.00187423 0)
(0.00210412 -0.00280064 0)
(-0.000725657 -0.00242871 0)
(0.00161288 -0.00256931 0)
(5.33536e-05 -0.0014495 0)
(-0.0022579 -0.00211063 0)
(0.00143055 -0.00285646 0)
(0.0017231 -0.0061607 0)
(0.00272127 -0.00626199 0)
(0.00378206 -0.00593781 0)
(0.0036249 -0.00836623 0)
(0.00370774 -0.00663516 0)
(0.00383301 -0.00471061 0)
(0.00217042 -0.00433812 0)
(0.00154693 -0.00410314 0)
(0.000786139 -0.00413467 0)
(0.000573906 -0.00397429 0)
(-0.000793006 -0.00368758 0)
(-0.00097503 -0.00353068 0)
(-0.00101995 -0.00365024 0)
(-0.000930473 -0.00379953 0)
(-0.000859552 -0.00390543 0)
(-0.000830224 -0.00393103 0)
(-0.000871448 -0.00390368 0)
(-0.000728717 -0.00390493 0)
(-0.000453936 -0.00410792 0)
(4.47731e-05 -0.00451035 0)
(0.00029911 -0.00508953 0)
(0.000300103 -0.00577435 0)
(-0.000117369 -0.00636492 0)
(-0.000479907 -0.00672352 0)
(-0.000590716 -0.00691923 0)
(-0.000585834 -0.00705641 0)
(-0.000599043 -0.00709364 0)
(-0.00083128 -0.00697913 0)
(-0.00137201 -0.00650071 0)
(-0.00201595 -0.00569145 0)
(-0.00249699 -0.00487325 0)
(-0.00270188 -0.00419531 0)
(-0.00254413 -0.00365512 0)
(-0.00178202 -0.00341168 0)
(-0.000262474 -0.00345501 0)
(0.00175018 -0.00367687 0)
(0.00304466 -0.0041734 0)
(0.00347418 -0.0044658 0)
(0.00336162 -0.00466364 0)
(0.0023924 -0.00441525 0)
(0.00175857 -0.00407223 0)
(0.00122942 -0.00453784 0)
(0.000266994 -0.00372268 0)
(0.000166762 0.00392016 0)
(0.000828446 0.00401446 0)
(0.000102465 0.00187751 0)
(-0.00118197 0.00201179 0)
(-0.00288578 0.00394298 0)
(0.00495178 0.00169108 0)
(0.0041987 0.000211532 0)
(0.00162405 -1.65834e-05 0)
(-0.000395671 -0.000168523 0)
(-0.00198888 -0.000263582 0)
(0.00189086 -0.00244712 0)
(-0.00339066 -0.000925147 0)
(0.00633239 -0.00443819 0)
(0.00398742 -0.00792268 0)
(0.00185387 -0.0083304 0)
(1.89443e-05 -0.00883446 0)
(0.00200587 -0.00934794 0)
(0.000665386 -0.00807802 0)
(-0.000276964 -0.0069643 0)
(0.00180644 -0.00612005 0)
(0.000768243 -0.00564308 0)
(-0.000486614 -0.00598004 0)
(-0.00157149 -0.00525663 0)
(1.10273e-05 -0.00803665 0)
(-0.000898449 -0.000566583 0)
(-0.000558298 0.00218373 0)
(0.00215747 -0.00666876 0)
(0.00183298 -0.00541005 0)
(0.0023054 -0.00346255 0)
(0.0022068 -0.00492581 0)
(-0.00268231 -0.00216021 0)
(0.00642008 -0.00251218 0)
(0.00287002 -0.00651254 0)
(0.00395672 -0.00676189 0)
(0.000748059 -0.00591635 0)
(0.00191917 -0.0053985 0)
(0.00245157 -0.00478113 0)
(0.00231901 -0.00386723 0)
(0.00212141 -0.00360403 0)
(0.00164859 -0.00332282 0)
(0.00103517 -0.00329093 0)
(0.000699725 -0.0030661 0)
(6.77477e-05 -0.00318848 0)
(-0.000425054 -0.00340525 0)
(-0.000732338 -0.00351503 0)
(-0.000774142 -0.00358989 0)
(-0.000786904 -0.00361951 0)
(-0.000810817 -0.00364746 0)
(-0.000810421 -0.00375612 0)
(-0.000623599 -0.00392976 0)
(-0.000201004 -0.00421725 0)
(0.000452193 -0.00460882 0)
(0.000877649 -0.00514123 0)
(0.000889112 -0.00582295 0)
(0.000469683 -0.00657341 0)
(-8.92051e-05 -0.00731488 0)
(-0.000408118 -0.00784686 0)
(-0.000471244 -0.00813898 0)
(-0.000596784 -0.00823652 0)
(-0.0011318 -0.0080566 0)
(-0.00199498 -0.00746185 0)
(-0.00267973 -0.0067944 0)
(-0.00288596 -0.00639575 0)
(-0.00285492 -0.00618916 0)
(-0.00239824 -0.00621948 0)
(-0.00137643 -0.00673433 0)
(8.21167e-05 -0.00724716 0)
(0.00169672 -0.00720727 0)
(0.00261047 -0.00689737 0)
(0.00292617 -0.00640698 0)
(0.00259901 -0.00565404 0)
(0.00183108 -0.00484282 0)
(0.00149089 -0.00441936 0)
(0.000921685 -0.00476201 0)
(7.63023e-05 -0.00396505 0)
(-0.00393327 0.00475695 0)
(0.00358818 0.00529026 0)
(0.0028501 0.00212656 0)
(0.0025393 -0.000842567 0)
(0.00348257 0.00825097 0)
(0.00294655 0.00688288 0)
(0.0025717 -0.00426438 0)
(0.00219913 -0.00486229 0)
(0.000274412 -0.00640125 0)
(0.0018579 -0.00573439 0)
(0.00185787 -0.00900575 0)
(0.00257455 -0.00231045 0)
(0.00216143 0.000194946 0)
(0.00190006 -0.0104027 0)
(-0.000135444 -0.00869341 0)
(-0.000699789 -0.00438878 0)
(-0.000139101 -0.00376238 0)
(0.00132727 -0.00841612 0)
(0.000376522 -0.00344125 0)
(0.00059368 -0.00355757 0)
(-0.00103633 -0.00740469 0)
(-0.0012326 -0.00848139 0)
(-0.000720787 -0.00522027 0)
(0.00013728 -0.00410518 0)
(0.00292462 -0.00454138 0)
(-0.00111563 -0.00149565 0)
(-0.00121346 -0.00458933 0)
(0.00147128 -0.00485242 0)
(0.000275223 -0.00301094 0)
(0.00109848 -0.0046813 0)
(0.00167494 0.0047806 0)
(0.00267938 0.00549684 0)
(0.00132438 -0.00527418 0)
(0.0026942 -0.00555059 0)
(0.00194444 -0.00503996 0)
(0.00227118 -0.00428287 0)
(0.00241202 -0.00387409 0)
(0.00217609 -0.0033135 0)
(0.00173754 -0.00272402 0)
(0.00123366 -0.00230851 0)
(0.000629343 -0.00204397 0)
(0.000342266 -0.00164569 0)
(-0.000268482 -0.00162535 0)
(-0.000534514 -0.00158937 0)
(-0.000734927 -0.00179942 0)
(-0.000805443 -0.00193375 0)
(-0.000795417 -0.00207414 0)
(-0.000716833 -0.00221075 0)
(-0.000601602 -0.00248546 0)
(-0.000283524 -0.00285613 0)
(0.000244746 -0.00332773 0)
(0.000933024 -0.00384819 0)
(0.00149631 -0.00434326 0)
(0.00165683 -0.0049552 0)
(0.00133437 -0.00572256 0)
(0.000734274 -0.0065943 0)
(0.000214913 -0.00738629 0)
(-0.000198896 -0.00791485 0)
(-0.000695835 -0.00808982 0)
(-0.00161234 -0.00778383 0)
(-0.00266691 -0.00722893 0)
(-0.00303598 -0.00690638 0)
(-0.0030957 -0.00671758 0)
(-0.00285123 -0.00662916 0)
(-0.00202159 -0.00694497 0)
(-0.000838035 -0.00755212 0)
(0.00034745 -0.00791477 0)
(0.0013859 -0.00766018 0)
(0.00200827 -0.00707683 0)
(0.00207696 -0.00636711 0)
(0.00170498 -0.00554861 0)
(0.00131294 -0.0048586 0)
(0.00110987 -0.00449661 0)
(0.000683091 -0.00480813 0)
(-1.06676e-05 -0.0041613 0)
(-0.000140044 0.00527699 0)
(4.01298e-05 0.00591307 0)
(0.00088767 -0.0042591 0)
(0.00238948 -0.00225202 0)
(0.00838062 0.00135341 0)
(0.00115979 -0.000558943 0)
(0.00306099 -0.00412326 0)
(0.00257605 -0.00534638 0)
(-0.000247571 -0.00505813 0)
(0.00855804 -0.00367523 0)
(0.00318794 -0.00654418 0)
(0.00622136 -0.00408733 0)
(-0.00350902 -0.00309368 0)
(-0.000150373 -0.0060724 0)
(-0.00165989 -0.00418032 0)
(0.00190894 -0.00395088 0)
(-0.000451053 -0.00375142 0)
(0.000990562 -0.00479604 0)
(0.000559187 -0.00430485 0)
(0.00112665 -0.00524478 0)
(-0.000317875 -0.0065134 0)
(0.000240079 -0.00566953 0)
(0.00315981 -0.00585377 0)
(-0.00172139 -0.0063746 0)
(-0.00315846 -0.00346131 0)
(0.00169646 -0.00296363 0)
(-0.00129088 -0.00612094 0)
(-0.00135918 -0.00646651 0)
(0.000712413 -0.00665967 0)
(0.0026816 -0.00650396 0)
(0.00675124 -0.00212435 0)
(-0.00223679 -0.00153146 0)
(0.00277327 -0.00324791 0)
(0.00193804 -0.00288545 0)
(0.00192071 -0.00374897 0)
(0.00159394 -0.00267702 0)
(0.0014149 -0.00251046 0)
(0.00127139 -0.00192119 0)
(0.00111619 -0.00178444 0)
(0.000645912 -0.00135623 0)
(0.000333635 -0.00123721 0)
(8.1275e-05 -0.00108 0)
(-9.23769e-05 -0.00111349 0)
(-0.000327885 -0.00113557 0)
(-0.000492763 -0.00130886 0)
(-0.00054848 -0.00149379 0)
(-0.000534414 -0.00167887 0)
(-0.000418714 -0.00184994 0)
(-0.000205903 -0.00212899 0)
(0.00020653 -0.00246918 0)
(0.00076231 -0.00287224 0)
(0.0013893 -0.00326801 0)
(0.00198225 -0.00356282 0)
(0.00224329 -0.00384979 0)
(0.00210628 -0.00422568 0)
(0.0015757 -0.00481679 0)
(0.000907262 -0.00545611 0)
(0.000199018 -0.00598602 0)
(-0.000697684 -0.00632995 0)
(-0.00194261 -0.00632515 0)
(-0.00291923 -0.00616744 0)
(-0.00319022 -0.00612335 0)
(-0.00317897 -0.00610716 0)
(-0.00263655 -0.00627766 0)
(-0.00155649 -0.00671889 0)
(-0.000489717 -0.00712841 0)
(0.000306304 -0.00724531 0)
(0.000932669 -0.00698328 0)
(0.00129068 -0.00639058 0)
(0.00132178 -0.00578058 0)
(0.0011547 -0.00527416 0)
(0.000933784 -0.00477163 0)
(0.000799541 -0.00448204 0)
(0.000498596 -0.00485172 0)
(-3.6593e-05 -0.00428489 0)
(0.00477718 -0.0101161 0)
(-0.00373853 -0.0124556 0)
(0.00109695 -0.0171392 0)
(0.000961322 -0.0166443 0)
(0.00695937 -0.0157458 0)
(0.00309211 -0.0144748 0)
(0.0038658 -0.0114018 0)
(0.00373792 -0.0119555 0)
(0.00265747 -0.000727275 0)
(0.00294892 -0.000209947 0)
(0.000770391 -0.00898742 0)
(0.00254081 -0.00611354 0)
(-0.00272451 -0.00316131 0)
(0.000136988 -0.00628657 0)
(-0.00111136 -0.00661257 0)
(0.000392606 -0.00356718 0)
(0.000135179 -0.00579067 0)
(0.00124571 -0.00762193 0)
(-8.91547e-05 -0.00421024 0)
(0.000403831 -0.00271727 0)
(0.000348852 -0.005739 0)
(0.000763405 -0.00296878 0)
(0.00141838 -0.00436414 0)
(0.00171283 -0.00762017 0)
(0.000969612 0.000111944 0)
(0.000202406 0.000583328 0)
(-0.000218228 -0.011117 0)
(-0.000203432 -0.0110919 0)
(0.00078598 -0.0106338 0)
(0.00180846 -0.0111112 0)
(0.0016043 -0.0105366 0)
(-0.000369673 -0.00605669 0)
(2.4753e-05 -0.00537517 0)
(0.000325641 -0.00767391 0)
(0.000956666 -0.00586284 0)
(0.00131608 -0.00504549 0)
(0.00134605 -0.00442199 0)
(0.00117147 -0.00403199 0)
(0.00118167 -0.00372713 0)
(0.000812136 -0.00343123 0)
(0.000452249 -0.00337416 0)
(0.000208332 -0.00340665 0)
(-8.58222e-06 -0.0033624 0)
(-0.000271638 -0.00332476 0)
(-0.000344634 -0.00335851 0)
(-0.000405154 -0.00348362 0)
(-0.000382889 -0.00353596 0)
(-0.000268485 -0.00355098 0)
(9.21684e-06 -0.00358654 0)
(0.0004783 -0.00357691 0)
(0.00105827 -0.00358809 0)
(0.00165518 -0.00362233 0)
(0.00213523 -0.00358193 0)
(0.00230336 -0.0035193 0)
(0.00227907 -0.00342824 0)
(0.00196114 -0.00345394 0)
(0.00139843 -0.00365284 0)
(0.000680111 -0.00394923 0)
(-0.000293011 -0.00433748 0)
(-0.00164571 -0.00474789 0)
(-0.00275752 -0.0051167 0)
(-0.00306432 -0.00534265 0)
(-0.00297274 -0.00556693 0)
(-0.00229771 -0.00585772 0)
(-0.00123514 -0.0061679 0)
(-0.000341572 -0.0063904 0)
(0.000196252 -0.00635946 0)
(0.000547686 -0.00610418 0)
(0.000811515 -0.00574252 0)
(0.000895228 -0.00538687 0)
(0.000810523 -0.00506937 0)
(0.000676575 -0.00469298 0)
(0.000581437 -0.00446905 0)
(0.000362176 -0.00491392 0)
(-3.68205e-05 -0.0043644 0)
(0.00566676 -0.0182393 0)
(0.00195512 -0.0180405 0)
(-0.000164397 -0.020952 0)
(0.00239323 -0.0164724 0)
(-0.000690174 -0.0125366 0)
(0.000939225 -0.0162056 0)
(-0.000786812 -0.00970954 0)
(0.00363287 -0.00866787 0)
(0.00573352 -0.00661003 0)
(-0.00307111 -0.00547329 0)
(-0.0017893 -0.00648078 0)
(0.00120244 -0.00632512 0)
(-0.000379209 -0.00459113 0)
(-0.0012006 -0.00472609 0)
(0.00114414 -0.00720952 0)
(-0.000403225 -0.00644817 0)
(-0.00134904 -0.0058092 0)
(0.00140986 -0.00577737 0)
(0.00263755 -0.00494372 0)
(0.000702025 -0.00429939 0)
(8.67754e-05 -0.00489344 0)
(-0.00159442 -0.00216918 0)
(0.00598174 -0.0029236 0)
(0.00509783 -0.00428015 0)
(0.00605961 -0.00220289 0)
(-0.00224448 -0.00165956 0)
(-0.0014104 -0.00466499 0)
(-0.00110089 -0.00492282 0)
(0.00223437 -0.00620282 0)
(-0.000255636 -0.00733728 0)
(0.00156237 -0.00789554 0)
(0.00175965 -0.00874215 0)
(-0.0021934 -0.011007 0)
(0.00143143 -0.00945062 0)
(0.000509195 -0.00852634 0)
(0.000807304 -0.00746322 0)
(0.000308874 -0.00748545 0)
(0.00047634 -0.00705331 0)
(0.000531236 -0.00678399 0)
(0.000382379 -0.00640016 0)
(0.000202021 -0.00623778 0)
(-0.000109973 -0.00607602 0)
(-0.000233888 -0.00600652 0)
(-0.000354737 -0.00592354 0)
(-0.000382247 -0.00589621 0)
(-0.000414596 -0.00590981 0)
(-0.000459669 -0.00589466 0)
(-0.000401139 -0.00589488 0)
(-0.000173748 -0.0058889 0)
(0.000238997 -0.00576793 0)
(0.000757958 -0.0054588 0)
(0.00135287 -0.00493778 0)
(0.00184495 -0.00430672 0)
(0.00210158 -0.00375043 0)
(0.00208921 -0.00326146 0)
(0.00184839 -0.0029147 0)
(0.00143419 -0.00271672 0)
(0.000884541 -0.00276578 0)
(8.90919e-05 -0.00306671 0)
(-0.00107461 -0.00361651 0)
(-0.00228102 -0.00436188 0)
(-0.00275212 -0.00487352 0)
(-0.00271025 -0.0052056 0)
(-0.00206101 -0.00547104 0)
(-0.00103621 -0.00567204 0)
(-0.000306246 -0.00578295 0)
(5.95068e-05 -0.00572036 0)
(0.000334209 -0.00555357 0)
(0.000563279 -0.00535371 0)
(0.000639827 -0.00514659 0)
(0.000578132 -0.00493164 0)
(0.00048913 -0.0046373 0)
(0.000420273 -0.00446122 0)
(0.000263896 -0.00496633 0)
(-3.43909e-05 -0.00441881 0)
(0.00150483 -0.0191341 0)
(0.00206749 -0.0177462 0)
(0.000765 -0.0127559 0)
(0.00297773 -0.0114905 0)
(-0.00129304 -0.0120312 0)
(-0.00143793 -0.0108609 0)
(-0.00297168 -0.00775837 0)
(0.00394216 -0.00528946 0)
(0.00276418 -0.00719159 0)
(0.000387552 -0.00777503 0)
(-0.00198899 -0.00486388 0)
(-0.000835306 -0.00604591 0)
(-0.000944596 -0.00761474 0)
(-6.43982e-05 -0.00709165 0)
(0.000535059 -0.00726463 0)
(0.00231492 -0.00749015 0)
(0.000173839 -0.00504676 0)
(0.000564315 -0.00491998 0)
(0.000622172 -0.00528524 0)
(0.000274566 -0.00655411 0)
(-0.000750894 -0.00841969 0)
(0.00196115 0.00197165 0)
(0.000704225 0.00240183 0)
(0.00175646 -0.00500572 0)
(0.00066911 -0.00123116 0)
(-0.000128366 0.000694382 0)
(0.000128468 -0.00090506 0)
(-0.00273278 0.00341843 0)
(0.0063566 0.00203223 0)
(0.00294986 -0.00156886 0)
(0.00141353 -0.00154361 0)
(-0.000247472 -0.00616832 0)
(-0.000352155 -0.00503353 0)
(-0.000830374 -0.00519572 0)
(-0.000887904 -0.00647607 0)
(0.000467109 -0.00445699 0)
(0.000419493 -0.00489525 0)
(0.000589237 -0.00456574 0)
(0.000553529 -0.00454285 0)
(0.000348988 -0.00431603 0)
(0.00014742 -0.00435014 0)
(4.35085e-06 -0.00450196 0)
(-0.000166316 -0.00462778 0)
(-0.000323717 -0.00478159 0)
(-0.000328332 -0.00500553 0)
(-0.000356973 -0.00518359 0)
(-0.000367844 -0.00541908 0)
(-0.000295856 -0.00571417 0)
(-0.000100838 -0.00604671 0)
(8.97514e-05 -0.00620788 0)
(0.000310069 -0.00614108 0)
(0.000640874 -0.00575541 0)
(0.000987164 -0.00507633 0)
(0.00127062 -0.00421603 0)
(0.00144513 -0.00331286 0)
(0.00138449 -0.00255763 0)
(0.0012345 -0.00202385 0)
(0.00100578 -0.00184889 0)
(0.000539432 -0.00200829 0)
(-0.000347305 -0.00251994 0)
(-0.00154048 -0.00335476 0)
(-0.00231154 -0.00409894 0)
(-0.00242614 -0.00450856 0)
(-0.00187884 -0.00490255 0)
(-0.00090214 -0.00520379 0)
(-0.000299857 -0.00532734 0)
(-1.82773e-05 -0.00533701 0)
(0.000198094 -0.00527106 0)
(0.000397787 -0.00514108 0)
(0.000466096 -0.00499531 0)
(0.000412182 -0.00484033 0)
(0.00035253 -0.00460087 0)
(0.000302981 -0.00445603 0)
(0.000191354 -0.0050051 0)
(-2.97622e-05 -0.00445747 0)
(-0.00230799 -0.0117715 0)
(0.000242724 -0.0107058 0)
(-0.000492933 -0.00916286 0)
(-0.0016885 -0.00734148 0)
(4.05996e-05 -0.00845351 0)
(-0.00166073 -0.0118591 0)
(-0.00107364 4.48883e-05 0)
(-0.00101156 -0.000288922 0)
(0.000158052 -0.00764685 0)
(-0.00116571 -0.0074171 0)
(-0.000348978 -0.00611955 0)
(-0.0037294 -0.00510859 0)
(-0.0047087 -0.00563889 0)
(0.00354621 -0.00434683 0)
(0.00188161 -0.0057586 0)
(0.000264198 -0.00708259 0)
(-0.00068908 -0.00876651 0)
(0.00106772 -0.00722006 0)
(-0.0011302 -0.00702651 0)
(0.00281778 -0.00695402 0)
(0.00131974 -0.00463864 0)
(0.00392572 -0.00164855 0)
(-0.00410343 -0.00374517 0)
(-0.00122955 -0.00401833 0)
(-0.000847106 -0.00456769 0)
(0.000205166 -0.00228458 0)
(0.000388762 -0.00450637 0)
(0.00142903 0.00602637 0)
(0.00109641 0.00723602 0)
(0.00226998 -0.00261658 0)
(0.0018629 0.000166249 0)
(0.00227163 0.0012 0)
(0.0018505 0.000208098 0)
(-0.00010252 -0.000318023 0)
(-0.00012908 -0.00238039 0)
(-0.000557007 -0.00299366 0)
(2.44796e-08 -0.00492462 0)
(-7.30149e-05 -0.00434854 0)
(0.000109877 -0.00482014 0)
(0.000237745 -0.00475407 0)
(0.000229323 -0.00485927 0)
(0.000108499 -0.00495335 0)
(8.95836e-05 -0.0050819 0)
(1.36884e-06 -0.00524227 0)
(-2.48003e-05 -0.00539163 0)
(-9.10155e-06 -0.00549955 0)
(7.77005e-05 -0.00567038 0)
(0.000198352 -0.00593716 0)
(0.000291116 -0.00610351 0)
(0.000292548 -0.0061421 0)
(0.000260538 -0.00602808 0)
(0.000234074 -0.00561429 0)
(0.000252391 -0.00489379 0)
(0.000298704 -0.00392676 0)
(0.000394982 -0.00285428 0)
(0.000525013 -0.00186757 0)
(0.000741719 -0.00106288 0)
(0.000880034 -0.000693229 0)
(0.000787314 -0.000645578 0)
(0.000277755 -0.000904056 0)
(-0.000622874 -0.00154225 0)
(-0.0014918 -0.00241878 0)
(-0.00187469 -0.00333268 0)
(-0.00142255 -0.00417932 0)
(-0.000597375 -0.00476909 0)
(-0.000168379 -0.00496471 0)
(1.90563e-05 -0.0050643 0)
(0.000148567 -0.00507748 0)
(0.000284148 -0.00500392 0)
(0.000341274 -0.00488813 0)
(0.000294505 -0.00476799 0)
(0.000250981 -0.00457436 0)
(0.000217145 -0.00445053 0)
(0.000137666 -0.00503265 0)
(-2.452e-05 -0.00448481 0)
(-0.00206683 -0.0143634 0)
(0.00049704 -0.0125883 0)
(-0.00182063 -0.0115676 0)
(0.00144328 -0.00952177 0)
(-0.000909601 -0.0103131 0)
(0.00165891 -0.0105578 0)
(0.00185728 -0.00581633 0)
(-0.00455574 -0.00372993 0)
(-0.00209947 -0.00587919 0)
(-0.00162864 -0.00568612 0)
(0.00119735 -0.00362105 0)
(-0.00117061 -0.00524031 0)
(0.000247083 0.00535868 0)
(-0.00121116 0.00554987 0)
(0.00185606 -0.00438657 0)
(-0.00135757 -0.00688486 0)
(3.13252e-05 -0.00454657 0)
(-0.000497082 -0.00666173 0)
(0.000788344 -0.00749817 0)
(-0.000310267 -0.00653343 0)
(0.00224469 -0.00979904 0)
(-0.000805396 -0.00515271 0)
(-0.00180428 -0.00463089 0)
(-0.00120135 -0.00462121 0)
(-0.000481749 -0.00363128 0)
(-0.00107285 -0.00157861 0)
(0.00182095 -0.00296197 0)
(0.00467426 0.00165003 0)
(-0.00284057 0.00218506 0)
(-0.000229319 -0.000869724 0)
(0.00144778 0.0005439 0)
(0.00147872 -0.00121918 0)
(0.00209722 0.000759636 0)
(0.00112141 -0.000876361 0)
(0.0012962 -0.00261756 0)
(0.00159977 -0.00321975 0)
(0.00154874 -0.00480809 0)
(0.0011152 -0.00531359 0)
(0.00101597 -0.0054144 0)
(0.000503096 -0.00533221 0)
(0.000381677 -0.00547833 0)
(0.000331969 -0.00564845 0)
(0.000127547 -0.00594094 0)
(-2.6066e-05 -0.0062652 0)
(-6.30167e-05 -0.00642718 0)
(-7.0764e-05 -0.00651061 0)
(4.42226e-05 -0.00660061 0)
(0.000120007 -0.00661874 0)
(0.000141047 -0.00655833 0)
(4.44493e-05 -0.0063569 0)
(-0.000171222 -0.00595568 0)
(-0.000454965 -0.00527965 0)
(-0.00068073 -0.00436517 0)
(-0.000777295 -0.00329404 0)
(-0.000684681 -0.00222217 0)
(-0.000431968 -0.00128698 0)
(5.49627e-05 -0.000522246 0)
(0.000571561 -0.000116451 0)
(0.000773474 -6.07853e-05 0)
(0.000606722 -0.00026612 0)
(7.10629e-05 -0.000762956 0)
(-0.000514571 -0.00161179 0)
(-0.000732456 -0.00273858 0)
(-0.000490847 -0.00397333 0)
(-0.00014649 -0.00465137 0)
(3.08359e-05 -0.00488221 0)
(8.57942e-05 -0.00497102 0)
(0.000128335 -0.00498615 0)
(0.000190807 -0.00493097 0)
(0.000223118 -0.00482544 0)
(0.000204243 -0.00471623 0)
(0.000178906 -0.00455616 0)
(0.000153963 -0.00444678 0)
(9.83369e-05 -0.0050529 0)
(-1.91015e-05 -0.00450417 0)
(-0.00187369 -0.0103379 0)
(-0.00330437 -0.00889658 0)
(-0.00138362 -0.00868117 0)
(-0.00219138 -0.00604519 0)
(-0.00378645 -0.00764058 0)
(-0.00183494 -0.005871 0)
(-0.00179969 -0.00286961 0)
(-0.00327801 -0.00200014 0)
(-0.00475033 -0.00365836 0)
(-0.00256785 -0.00243795 0)
(-0.00175969 -0.00323129 0)
(-0.000505428 -0.00247589 0)
(0.00197143 -0.000100217 0)
(-0.00756015 0.00361519 0)
(0.00421928 0.000979784 0)
(0.00121378 -0.00296186 0)
(0.00400861 -0.00317915 0)
(3.34729e-05 -0.0038502 0)
(0.00339414 -0.00527612 0)
(-0.00104196 -0.006811 0)
(-0.000378238 -0.00734788 0)
(-0.000542793 -0.00766216 0)
(-0.00119262 -0.00662311 0)
(-0.00364374 -0.00472399 0)
(-0.00167572 -0.00328142 0)
(-0.00536992 0.00111787 0)
(0.00481948 0.00151132 0)
(0.00192701 -0.000116023 0)
(-0.000548224 -0.00101571 0)
(0.000447819 -0.00221893 0)
(0.0012846 -0.00118066 0)
(0.00190318 -0.00257182 0)
(0.0011734 -0.00335729 0)
(0.00388227 -0.00426616 0)
(0.0027323 -0.00463382 0)
(0.00212981 -0.00621541 0)
(0.00138586 -0.00716115 0)
(0.00105005 -0.00634164 0)
(0.000191396 -0.00681496 0)
(1.40685e-06 -0.00713828 0)
(0.000486827 -0.00735154 0)
(0.000651067 -0.00756462 0)
(0.000566666 -0.00772843 0)
(0.000351214 -0.00781113 0)
(0.000240113 -0.00776242 0)
(0.000182593 -0.00768666 0)
(0.000175584 -0.0074643 0)
(0.000179105 -0.00726734 0)
(3.40932e-05 -0.00689124 0)
(-0.0003065 -0.00639426 0)
(-0.000798116 -0.00567578 0)
(-0.00139523 -0.00482464 0)
(-0.00179999 -0.00392821 0)
(-0.00188062 -0.00305076 0)
(-0.00166533 -0.00209784 0)
(-0.00120569 -0.00128907 0)
(-0.000434033 -0.000626033 0)
(0.000428896 -0.000312065 0)
(0.000903505 -0.000339824 0)
(0.000952822 -0.00070424 0)
(0.000686114 -0.00132495 0)
(0.000454486 -0.00223718 0)
(0.000418446 -0.00333264 0)
(0.000432788 -0.00426561 0)
(0.00033359 -0.00468075 0)
(0.000187979 -0.00484879 0)
(0.000126247 -0.00490821 0)
(0.000109326 -0.00490808 0)
(0.000107345 -0.00485032 0)
(0.000122966 -0.00477078 0)
(0.00013328 -0.00468385 0)
(0.000125989 -0.004542 0)
(0.000107108 -0.00444348 0)
(6.95895e-05 -0.00506729 0)
(-1.40412e-05 -0.00451784 0)
(-0.00202264 0.00788897 0)
(-0.00687915 0.0102274 0)
(0.00262447 0.0105192 0)
(-0.0016124 0.0055996 0)
(-0.00219021 0.00411383 0)
(-0.00136865 0.00284003 0)
(-0.00114276 0.000921277 0)
(-0.00400294 0.00013359 0)
(-0.00272663 -0.000852234 0)
(-0.000236435 -0.00194207 0)
(-0.000259828 -0.00558757 0)
(0.000893659 -0.00678508 0)
(0.00124196 -0.00680745 0)
(-0.000984698 0.00277979 0)
(-2.43628e-05 0.00113644 0)
(-0.000210136 -0.00718946 0)
(0.000669981 -0.00439606 0)
(0.00237818 -0.00462883 0)
(0.00160854 -0.00382118 0)
(0.0010948 -0.00656581 0)
(-0.0005967 -0.00756296 0)
(-0.000238451 -0.00514508 0)
(-0.00221596 -0.0071329 0)
(-0.0031334 -0.00590931 0)
(-0.00217071 -0.00472987 0)
(-0.00204526 0.00483428 0)
(0.00121871 0.00389261 0)
(-0.000326262 -0.00468176 0)
(0.000704962 -0.00105086 0)
(0.0004818 -0.000876255 0)
(0.00184337 0.000972854 0)
(0.00102903 -0.00173434 0)
(0.00209735 -0.000634664 0)
(0.00110595 -0.00021498 0)
(0.00416003 -0.00350899 0)
(0.00225079 -0.00018125 0)
(0.00185955 -0.000959909 0)
(0.00177226 -0.00139868 0)
(0.00185573 -0.00353312 0)
(0.00120432 -0.00590176 0)
(0.00115643 -0.0070524 0)
(0.000760873 -0.00743336 0)
(0.000424607 -0.00748173 0)
(0.00010054 -0.00761093 0)
(-0.000175764 -0.00746472 0)
(-0.000322186 -0.00727966 0)
(-0.000449236 -0.00700802 0)
(-0.000467661 -0.00664425 0)
(-0.000733361 -0.00613512 0)
(-0.0012158 -0.00557588 0)
(-0.00175195 -0.00493923 0)
(-0.00214768 -0.00453719 0)
(-0.00249833 -0.00410624 0)
(-0.00268217 -0.0037695 0)
(-0.00251394 -0.00326425 0)
(-0.00194316 -0.0027854 0)
(-0.000947099 -0.00224049 0)
(0.000260296 -0.00189195 0)
(0.00117024 -0.00183605 0)
(0.0015945 -0.00227415 0)
(0.00162702 -0.00298611 0)
(0.00148656 -0.00385191 0)
(0.00122254 -0.00451944 0)
(0.0008038 -0.00481431 0)
(0.000440245 -0.00480702 0)
(0.000261468 -0.00480798 0)
(0.000142035 -0.00483018 0)
(6.78402e-05 -0.00482395 0)
(4.16116e-05 -0.00478612 0)
(5.45809e-05 -0.00472895 0)
(7.92141e-05 -0.00466339 0)
(8.13922e-05 -0.0045321 0)
(7.07207e-05 -0.00444204 0)
(4.76245e-05 -0.00507861 0)
(-9.46579e-06 -0.00452766 0)
(0.00188617 -0.00495949 0)
(-0.000394612 0.00366227 0)
(-0.000349877 0.00261514 0)
(-0.000265406 -0.00794511 0)
(-0.00139695 -0.00626569 0)
(0.00101576 -0.00629545 0)
(-0.00178895 -0.00718084 0)
(-0.00463432 -0.00590034 0)
(0.00383861 -0.0041468 0)
(0.00117871 -0.00714395 0)
(-0.000862945 -0.00989902 0)
(0.00187142 -0.00787587 0)
(0.00142344 -0.00792727 0)
(0.00367218 -0.00439496 0)
(-0.00391887 -0.00484155 0)
(-0.00144871 -0.0072364 0)
(-0.00292582 -0.00450259 0)
(0.00511963 -0.00534348 0)
(0.00253823 -0.0061099 0)
(-0.000757438 -0.00718931 0)
(0.00148221 -0.00578957 0)
(-0.00240873 -0.00561661 0)
(-0.00159639 -0.00760052 0)
(-0.00129168 -0.00499877 0)
(-0.0011361 -0.00569169 0)
(0.00379811 -0.000935952 0)
(-0.00487343 -0.00191479 0)
(-0.00355352 -0.00322837 0)
(-0.00145671 -0.00195951 0)
(-0.000265367 -0.00428237 0)
(-0.00092194 -0.00415146 0)
(0.002268 -0.00620875 0)
(0.00427041 -0.00820453 0)
(0.000890752 -0.00538655 0)
(0.00316378 -0.00537523 0)
(0.00287518 -0.00726829 0)
(0.00372988 -0.00521311 0)
(0.00345995 -0.00471706 0)
(0.00365038 -0.00450472 0)
(0.00315518 -0.00447853 0)
(0.00184756 -0.00395155 0)
(0.00102637 -0.0035984 0)
(0.00052469 -0.00312623 0)
(0.000171658 -0.00305615 0)
(-8.97215e-05 -0.00311462 0)
(-0.000257786 -0.00340786 0)
(-0.000496229 -0.00361738 0)
(-0.000666491 -0.00388526 0)
(-0.000960861 -0.00396793 0)
(-0.00139248 -0.0040971 0)
(-0.00184301 -0.00430029 0)
(-0.00213411 -0.00456432 0)
(-0.0025108 -0.00493637 0)
(-0.00265586 -0.00515411 0)
(-0.00261683 -0.005206 0)
(-0.0021876 -0.00523847 0)
(-0.00127772 -0.00512133 0)
(5.74929e-05 -0.00490043 0)
(0.0014231 -0.00474037 0)
(0.00202959 -0.0048632 0)
(0.00214848 -0.00500665 0)
(0.00194334 -0.00520826 0)
(0.00136426 -0.00522458 0)
(0.000696682 -0.00504525 0)
(0.000377111 -0.00489209 0)
(0.000237239 -0.00480602 0)
(0.000141854 -0.00477162 0)
(4.51474e-05 -0.00475585 0)
(1.03787e-06 -0.00473096 0)
(3.71077e-06 -0.00468879 0)
(3.89475e-05 -0.00464037 0)
(5.071e-05 -0.00452234 0)
(4.57316e-05 -0.00443923 0)
(3.27402e-05 -0.00508638 0)
(-5.56723e-06 -0.00453464 0)
(0.00294289 -0.00787542 0)
(0.00642213 -0.00675296 0)
(-0.00262557 -0.00394328 0)
(-0.00193936 -0.00792253 0)
(-0.00190489 -0.00556592 0)
(-0.00101249 -0.00632401 0)
(-0.00168709 -0.0126105 0)
(0.00026346 -0.00176226 0)
(0.000649591 -0.00220354 0)
(-0.00366425 -0.0117444 0)
(-0.0047475 -0.00765438 0)
(0.00259696 -0.0074513 0)
(0.00132116 -0.00870463 0)
(0.00116995 -0.00693956 0)