/*--------------------------------*- C++ -*----------------------------------*\
  =========                 |
  \\      /  F ield         | OpenFOAM: The Open Source CFD Toolbox
   \\    /   O peration     | Website:  https://openfoam.org
    \\  /    A nd           | Version:  12
     \\/     M anipulation  |
\*---------------------------------------------------------------------------*/
FoamFile
{
    format      ascii;
    class       volVectorField;
    location    "0.9";
    object      U.water;
}
// * * * * * * * * * * * * * * * * * * * * * * * * * * * * * * * * * * * * * //

dimensions      [0 1 -1 0 0 0 0];

internalField   nonuniform List<vector> 
3750
(
(0.000462889 0.0118637 0)
(0.000462677 0.0122492 0)
(0.000741676 0.0107794 0)
(-0.000906207 0.0108571 0)
(0.000283089 0.00898733 0)
(-0.0008718 0.00782126 0)
(-0.00171644 0.00786228 0)
(-0.00313751 0.00643828 0)
(-0.00045262 0.0059582 0)
(0.000365334 0.00861282 0)
(0.000311394 0.00950048 0)
(0.000103218 0.00788279 0)
(0.000148817 0.00602569 0)
(0.0017897 0.00595585 0)
(-0.000304975 0.00692477 0)
(0.000969374 0.00568009 0)
(0.00058483 0.00838252 0)
(-0.000106382 0.0090923 0)
(-0.000240766 0.0111366 0)
(-0.00356549 0.0162775 0)
(0.00136498 0.0139959 0)
(0.00220224 0.00894881 0)
(5.86906e-05 0.00970172 0)
(0.000941013 0.00910966 0)
(0.000307631 0.0140447 0)
(-0.00198774 0.0129302 0)
(-0.00051831 0.0105069 0)
(-0.001613 0.0116248 0)
(-0.0002197 0.00642378 0)
(0.00097248 0.00707823 0)
(-0.000332615 0.00603784 0)
(0.00113465 0.00495708 0)
(0.00102509 0.00866925 0)
(0.000457646 0.00714832 0)
(0.000786037 0.00537453 0)
(0.000858169 0.0034335 0)
(0.000881153 0.000963956 0)
(-8.68988e-05 -0.00195349 0)
(0.000865882 -0.00431903 0)
(0.000732096 -0.00539946 0)
(0.000391101 -0.00718607 0)
(0.000307976 -0.00806179 0)
(0.00116343 -0.00763822 0)
(-0.000573268 -0.00787131 0)
(-0.000763482 -0.00843348 0)
(-0.000987449 -0.00671162 0)
(-0.000844117 -0.00567806 0)
(-0.000715627 -0.00486224 0)
(-0.000700696 -0.00391816 0)
(-0.000644884 -0.00337608 0)
(-0.000651736 -0.00246933 0)
(-0.000524182 -0.00202151 0)
(-0.00055084 -0.001387 0)
(-0.00051589 -0.00102201 0)
(-0.000479096 -0.000517537 0)
(-0.000412015 -6.46532e-06 0)
(-0.00029773 0.000510064 0)
(-0.000221012 0.000984017 0)
(-0.000152423 0.00139683 0)
(-0.000166702 0.00175622 0)
(-0.000197947 0.00218828 0)
(-0.000230325 0.00272928 0)
(-0.000250786 0.00345541 0)
(-0.00025367 0.0042952 0)
(-0.000196467 0.00520352 0)
(-1.59572e-05 0.00597906 0)
(0.00036705 0.00637306 0)
(0.000663134 0.00604279 0)
(0.000777914 0.00507546 0)
(0.000636077 0.00362436 0)
(0.000417336 0.0022576 0)
(0.000341526 0.000915597 0)
(0.000650837 -0.000107408 0)
(0.000637664 -0.00187094 0)
(0.00033738 -0.00237102 0)
(-0.000540698 0.0130203 0)
(0.000347969 0.0138805 0)
(0.00152462 0.0129965 0)
(0.00215834 0.0133689 0)
(0.0012105 0.0135388 0)
(0.00183812 0.0116309 0)
(0.000121237 0.0105438 0)
(0.000897362 0.00844967 0)
(0.000623877 0.00659258 0)
(0.000551229 0.00494802 0)
(-0.00129539 0.00750971 0)
(-0.00146047 0.00931858 0)
(-0.00175529 0.00985591 0)
(-9.80273e-05 0.00961549 0)
(-0.00147288 0.0108645 0)
(3.22226e-05 0.0123326 0)
(-0.000260275 0.0105115 0)
(0.00109786 0.00970794 0)
(-0.00161271 0.0077867 0)
(-0.000792838 0.0172085 0)
(-0.0047773 0.0171956 0)
(0.000212393 0.0062259 0)
(-0.00168925 0.00783073 0)
(0.00128644 0.00950105 0)
(0.000960503 0.0108662 0)
(0.000297423 0.0107022 0)
(0.00135881 0.00787936 0)
(-0.00111198 0.00533235 0)
(0.000646051 0.00647117 0)
(0.00158707 0.00634928 0)
(0.00124196 0.00534504 0)
(0.00131618 0.00671669 0)
(0.00212794 0.00649829 0)
(0.000640861 0.00473645 0)
(0.00429275 0.00307422 0)
(0.00397093 0.00223306 0)
(0.00430499 -0.000152233 0)
(0.00387012 -0.000690079 0)
(0.00282634 -0.00265292 0)
(0.00211142 -0.00393983 0)
(0.00124261 -0.00409867 0)
(0.000944904 -0.00330264 0)
(0.000954248 -0.00265466 0)
(-0.000679735 -0.00310964 0)
(-0.000751522 -0.0026399 0)
(-0.00102449 -0.00244891 0)
(-0.000913848 -0.00261111 0)
(-0.000819337 -0.0025295 0)
(-0.000896699 -0.00242679 0)
(-0.000833651 -0.00244973 0)
(-0.000803606 -0.0023987 0)
(-0.000531049 -0.00258056 0)
(-0.000444822 -0.00290101 0)
(-0.000373199 -0.00343756 0)
(-0.000517237 -0.00378338 0)
(-0.00063038 -0.00384671 0)
(-0.000708173 -0.00373249 0)
(-0.000680363 -0.00353521 0)
(-0.000602647 -0.00330644 0)
(-0.000605549 -0.00308095 0)
(-0.000740208 -0.00267242 0)
(-0.00101794 -0.00197436 0)
(-0.00132903 -0.000965395 0)
(-0.00156929 0.000225035 0)
(-0.00160282 0.00146767 0)
(-0.00123798 0.00260799 0)
(-0.000386415 0.00325921 0)
(0.000688057 0.00323139 0)
(0.00157102 0.00231679 0)
(0.00217595 0.000930664 0)
(0.00235756 -0.000819004 0)
(0.00218134 -0.00228292 0)
(0.0018563 -0.00290601 0)
(0.00149476 -0.00381584 0)
(0.000380266 -0.00336535 0)
(-0.00136348 0.00400215 0)
(-0.00100787 0.00399081 0)
(-0.000520996 0.00427028 0)
(0.00166634 0.00554179 0)
(0.00034945 0.00641743 0)
(0.00189678 0.00656934 0)
(0.00014388 0.00728261 0)
(0.00267987 0.0063879 0)
(0.00140889 0.00662164 0)
(0.000401487 0.00868491 0)
(-0.000765517 0.00761732 0)
(-0.00339663 0.00642999 0)
(-0.00202545 0.00446331 0)
(-0.00178379 0.002949 0)
(0.000562341 0.00164516 0)
(0.00223754 0.000179056 0)
(0.00304725 0.000679556 0)
(0.00308525 -0.0021724 0)
(0.0014914 -0.00160486 0)
(0.00370353 0.00181237 0)
(-0.0090572 0.00334569 0)
(0.00071582 -0.000774882 0)
(-6.19361e-05 -0.00428489 0)
(0.000759146 -0.00500382 0)
(-0.00120107 -0.00462486 0)
(0.00188345 -0.00320198 0)
(0.000743332 -0.00173623 0)
(-0.000840844 -0.00119905 0)
(0.000520433 -0.00277464 0)
(-0.000110207 -0.00380327 0)
(0.00120158 -0.0054127 0)
(0.00317845 -0.00522781 0)
(0.00234585 -0.00689271 0)
(0.00326943 -0.00621309 0)
(0.00420657 -0.00560786 0)
(0.00397996 -0.00766437 0)
(0.00394754 -0.00599313 0)
(0.00400974 -0.00431252 0)
(0.00235098 -0.00400607 0)
(0.00166794 -0.00380241 0)
(0.000840084 -0.00387721 0)
(0.00058692 -0.00376833 0)
(-0.000732352 -0.00352081 0)
(-0.000921698 -0.00337714 0)
(-0.000986 -0.00350566 0)
(-0.000906611 -0.00366483 0)
(-0.000839968 -0.00378132 0)
(-0.00081436 -0.00381415 0)
(-0.000857525 -0.0037923 0)
(-0.000716958 -0.00379801 0)
(-0.00044378 -0.00400465 0)
(5.27049e-05 -0.00441001 0)
(0.000304988 -0.00499147 0)
(0.000303567 -0.00567746 0)
(-0.000114976 -0.00626826 0)
(-0.000476741 -0.0066266 0)
(-0.000587412 -0.00682312 0)
(-0.000582803 -0.00696065 0)
(-0.000596912 -0.00699797 0)
(-0.000831042 -0.00688244 0)
(-0.00137313 -0.00640223 0)
(-0.00201693 -0.00559247 0)
(-0.00249699 -0.0047748 0)
(-0.00270121 -0.00409728 0)
(-0.00254276 -0.0035571 0)
(-0.00178018 -0.0033136 0)
(-0.000260911 -0.00335642 0)
(0.001749 -0.00357835 0)
(0.00304122 -0.00407453 0)
(0.00347098 -0.00436718 0)
(0.00335842 -0.00456616 0)
(0.00239065 -0.00431999 0)
(0.00175735 -0.00397414 0)
(0.00122754 -0.00443 0)
(0.00026819 -0.00362754 0)
(0.000374821 0.00443586 0)
(-0.00051347 0.00487597 0)
(-0.000924177 0.00385299 0)
(-0.000469448 0.0037888 0)
(-0.000541608 0.00219017 0)
(0.00165068 -0.00125494 0)
(0.000939156 -0.00099251 0)
(0.000196655 -0.00110814 0)
(0.00156191 -0.00122103 0)
(-5.02885e-05 -0.000920754 0)
(0.00316879 -0.00311623 0)
(-0.00157163 -0.00395479 0)
(0.00288973 -0.00798628 0)
(0.00225247 -0.00940226 0)
(0.00203578 -0.00935069 0)
(0.000751398 -0.00885814 0)
(0.00284559 -0.00881862 0)
(0.00155573 -0.00817651 0)
(0.000236874 -0.00663749 0)
(0.00261317 -0.00748895 0)
(-0.00197728 0.00183529 0)
(-0.00141266 0.000682836 0)
(-0.00105678 -0.00788929 0)
(0.0010397 -0.00809185 0)
(-0.00138402 -0.0062319 0)
(-0.00226203 -0.00252577 0)
(0.00103801 -0.00433164 0)
(0.00264096 -0.00308667 0)
(0.00268881 -0.0029642 0)
(0.00380224 -0.00550594 0)
(0.00102631 -0.00578604 0)
(0.00483763 -0.00673055 0)
(0.00176933 -0.00737898 0)
(0.00396875 -0.00617814 0)
(0.00133847 -0.00533145 0)
(0.00246721 -0.00488183 0)
(0.00278338 -0.00434933 0)
(0.00257818 -0.00352531 0)
(0.00233213 -0.00331626 0)
(0.00180193 -0.00307124 0)
(0.00114534 -0.0030733 0)
(0.000774457 -0.00288269 0)
(0.000130807 -0.0030266 0)
(-0.000373279 -0.00325794 0)
(-0.000688656 -0.00338031 0)
(-0.000740497 -0.00346302 0)
(-0.000760175 -0.00350007 0)
(-0.000789108 -0.00353438 0)
(-0.000792222 -0.00364808 0)
(-0.000607917 -0.00382583 0)
(-0.000187396 -0.00411666 0)
(0.000463146 -0.0045109 0)
(0.000885374 -0.00504557 0)
(0.000893828 -0.00572882 0)
(0.000472529 -0.00648 0)
(-8.62235e-05 -0.00722118 0)
(-0.000404177 -0.00775232 0)
(-0.000467802 -0.00804377 0)
(-0.00059558 -0.00814056 0)
(-0.0011335 -0.00795841 0)
(-0.00199747 -0.00736216 0)
(-0.00268013 -0.00669595 0)
(-0.00288528 -0.00629789 0)
(-0.00285383 -0.00609145 0)
(-0.00239607 -0.00612307 0)
(-0.00137468 -0.00663797 0)
(8.24151e-05 -0.0071495 0)
(0.00169521 -0.00710883 0)
(0.00260786 -0.0067995 0)
(0.00292336 -0.00630887 0)
(0.00259636 -0.00555684 0)
(0.00182964 -0.00474824 0)
(0.00148962 -0.00432141 0)
(0.000920793 -0.00465363 0)
(7.71475e-05 -0.00386989 0)
(-0.00261665 0.00447461 0)
(0.00115264 0.00487069 0)
(0.000190645 0.00524023 0)
(-3.14469e-05 0.00326687 0)
(0.00273951 0.00406578 0)
(0.00296533 0.00105062 0)
(0.00302509 -0.00331652 0)
(0.00343167 -0.0038703 0)
(0.00215891 -0.00691527 0)
(0.00184272 -0.00666984 0)
(0.00114191 -0.00899104 0)
(0.00154411 -0.00821506 0)
(0.00119259 -0.00527226 0)
(0.00182843 -0.00940054 0)
(0.00057491 -0.0081832 0)
(1.50214e-05 -0.00433093 0)
(0.000615699 -0.00332177 0)
(0.00211454 -0.00805725 0)
(0.00120385 -0.00246022 0)
(0.00177479 -0.00345341 0)
(0.0024171 -0.00449188 0)
(-0.00577304 -0.00447344 0)
(-0.00193429 -0.00509223 0)
(-0.000809341 -0.00655153 0)
(-0.000461108 -0.00970603 0)
(-0.00596896 -0.00344981 0)
(-0.00130278 -0.00102515 0)
(0.00567141 -0.00211791 0)
(0.000553006 -0.00236926 0)
(3.72417e-05 -0.0036503 0)
(0.00225071 -0.00185713 0)
(0.00300926 -0.00147868 0)
(0.00216185 -0.00445008 0)
(0.00311454 -0.00375449 0)
(0.00258023 -0.00417814 0)
(0.00283178 -0.00384996 0)
(0.00283051 -0.00354844 0)
(0.00249413 -0.00304355 0)
(0.00198379 -0.00249669 0)
(0.00142017 -0.00210796 0)
(0.000769227 -0.00186593 0)
(0.000447877 -0.0014897 0)
(-0.000183445 -0.00148385 0)
(-0.000469894 -0.00145799 0)
(-0.00068303 -0.00167566 0)
(-0.000763863 -0.00181763 0)
(-0.000761956 -0.00196392 0)
(-0.000689728 -0.00210541 0)
(-0.000579001 -0.00238385 0)
(-0.00026449 -0.00275749 0)
(0.000260839 -0.00323136 0)
(0.00094608 -0.00375347 0)
(0.00150584 -0.00425004 0)
(0.00166261 -0.00486339 0)
(0.00133736 -0.00563164 0)
(0.000736427 -0.00650333 0)
(0.00021725 -0.00729397 0)
(-0.000196947 -0.00782048 0)
(-0.000696349 -0.00799295 0)
(-0.00161597 -0.00768499 0)
(-0.00266815 -0.00713093 0)
(-0.00303539 -0.00680911 0)
(-0.00309486 -0.00662066 0)
(-0.00284914 -0.00653277 0)
(-0.0020188 -0.00684996 0)
(-0.000836569 -0.00745658 0)
(0.000347083 -0.00781785 0)
(0.00138442 -0.0075628 0)
(0.00200617 -0.00697999 0)
(0.00207468 -0.00627042 0)
(0.00170351 -0.00545252 0)
(0.00131175 -0.00476443 0)
(0.00110898 -0.00439864 0)
(0.000682385 -0.00469937 0)
(-1.01873e-05 -0.00406597 0)
(-0.00231882 0.00453548 0)
(0.00341351 0.00278439 0)
(-0.000308217 -0.00247629 0)
(-0.00451478 0.00151215 0)
(0.00821198 0.00223838 0)
(0.0060228 -0.00224719 0)
(0.00690693 -0.00402783 0)
(0.00532869 -0.0050414 0)
(0.00241707 -0.00731279 0)
(0.00539902 -0.00692787 0)
(0.000630897 -0.00815847 0)
(0.00342539 -0.00724071 0)
(-0.00146876 -0.0056073 0)
(0.00157952 -0.00573508 0)
(-0.000846781 -0.00442003 0)
(0.00212954 -0.00396401 0)
(-0.000339394 -0.00318727 0)
(0.00152402 -0.00488217 0)
(0.0018063 -0.00354994 0)
(0.0011181 -0.00398597 0)
(0.00122367 -0.00472934 0)
(-0.00173811 -0.00369098 0)
(0.00292119 -0.00488415 0)
(-0.00142313 -0.00860025 0)
(-0.00121038 -0.0127222 0)
(4.20473e-05 -0.00441855 0)
(-0.00191789 0.00532533 0)
(-0.00250546 -0.00380585 0)
(-0.00205529 -0.0115773 0)
(-0.00423247 -0.00681819 0)
(0.00744579 -0.0042442 0)
(0.00160749 -0.00523031 0)
(0.00566615 -0.00400377 0)
(0.00341741 -0.0024925 0)
(0.00283008 -0.00301829 0)
(0.00224828 -0.00237547 0)
(0.00189555 -0.00231948 0)
(0.00162898 -0.00175319 0)
(0.00138627 -0.00162974 0)
(0.000852208 -0.0012133 0)
(0.000489119 -0.00110278 0)
(0.000200882 -0.000953812 0)
(8.35394e-07 -0.000996315 0)
(-0.000253867 -0.0010256 0)
(-0.000434551 -0.00120201 0)
(-0.000502318 -0.00139026 0)
(-0.000497299 -0.00157838 0)
(-0.000388552 -0.0017521 0)
(-0.000180849 -0.00203313 0)
(0.000227479 -0.00237498 0)
(0.000779703 -0.00277922 0)
(0.00140355 -0.00317555 0)
(0.0019928 -0.00347075 0)
(0.00225028 -0.00375839 0)
(0.0021099 -0.00413526 0)
(0.00157719 -0.00472663 0)
(0.000907795 -0.00536529 0)
(0.000198608 -0.00589382 0)
(-0.000700162 -0.00623602 0)
(-0.00194636 -0.00622974 0)
(-0.00291977 -0.00607285 0)
(-0.00318959 -0.00602887 0)
(-0.00317772 -0.00601252 0)
(-0.00263331 -0.00618375 0)
(-0.00155339 -0.00662482 0)
(-0.000488918 -0.00703333 0)
(0.000305239 -0.00714935 0)
(0.000931206 -0.0068869 0)
(0.00128908 -0.00629438 0)
(0.00132007 -0.00568474 0)
(0.00115321 -0.0051785 0)
(0.000932654 -0.00467761 0)
(0.000798639 -0.00438425 0)
(0.00049811 -0.0047425 0)
(-3.62601e-05 -0.00418933 0)
(-0.000802647 0.0014034 0)
(-0.00116761 -0.0120968 0)
(0.00226469 -0.0243527 0)
(-0.000664961 -0.0115444 0)
(0.0017799 -0.00789335 0)
(0.00871154 -0.0163341 0)
(0.00657091 -0.0125612 0)
(0.00444767 -0.011956 0)
(0.00193018 -0.0071563 0)
(0.00190644 -0.00603924 0)
(3.29645e-06 -0.00866022 0)
(0.002363 -0.00710667 0)
(-0.00168872 -0.00427929 0)
(0.00161755 -0.00653645 0)
(-0.000935918 -0.00769959 0)
(0.000951176 -0.00420935 0)
(-0.00020847 -0.00500827 0)
(0.00166435 -0.00610008 0)
(0.000613582 -0.0037582 0)
(0.000513063 -0.00220177 0)
(0.000152105 -0.0047729 0)
(-0.0028763 -0.000734869 0)
(0.00465338 -0.00184949 0)
(0.00177563 -0.00790548 0)
(0.00233611 -0.00739688 0)
(0.00588848 -0.00394795 0)
(0.000442106 -0.00709915 0)
(-0.00597603 -0.010551 0)
(-0.00246661 -0.0158334 0)
(-0.00151931 -0.00662881 0)
(-0.000876893 -0.00592771 0)
(-0.000334577 -0.0108715 0)
(0.00232339 -0.00685571 0)
(0.00233918 -0.00778946 0)
(0.00205063 -0.00579955 0)
(0.00199833 -0.00503922 0)
(0.00182991 -0.00439019 0)
(0.0015298 -0.00396919 0)
(0.00145037 -0.00364737 0)
(0.00101687 -0.00334309 0)
(0.000609836 -0.00328164 0)
(0.0003301 -0.00331114 0)
(8.54077e-05 -0.00326568 0)
(-0.000195704 -0.00322878 0)
(-0.000284167 -0.00326402 0)
(-0.000356791 -0.00338975 0)
(-0.000344067 -0.00344289 0)
(-0.000236865 -0.00345865 0)
(3.53771e-05 -0.00349456 0)
(0.000499977 -0.0034853 0)
(0.00107596 -0.00349679 0)
(0.00166922 -0.00353101 0)
(0.00214538 -0.00349073 0)
(0.00231039 -0.00342769 0)
(0.00228354 -0.00333658 0)
(0.00196293 -0.00336292 0)
(0.00139835 -0.00356201 0)
(0.000678207 -0.00385835 0)
(-0.000296685 -0.00424619 0)
(-0.0016502 -0.00465654 0)
(-0.00275876 -0.00502517 0)
(-0.0030642 -0.00525041 0)
(-0.00297148 -0.00547436 0)
(-0.002295 -0.00576441 0)
(-0.00123304 -0.00607373 0)
(-0.000341574 -0.00629517 0)
(0.000194831 -0.00626359 0)
(0.000546097 -0.00600828 0)
(0.000809901 -0.00564661 0)
(0.000893483 -0.00529094 0)
(0.00080894 -0.0049736 0)
(0.000675349 -0.00459877 0)
(0.00058055 -0.00437103 0)
(0.000361646 -0.00480438 0)
(-3.66191e-05 -0.0042686 0)
(-0.000301147 -0.0109133 0)
(0.00189219 -0.0146892 0)
(0.00123559 -0.0233851 0)
(0.00590473 -0.0189444 0)
(-0.00498282 -0.00472735 0)
(0.000666839 -0.0100747 0)
(0.000103671 -0.0143974 0)
(0.00157267 -0.0117151 0)
(0.00270984 -0.0106131 0)
(-0.000303653 -0.00880062 0)
(0.000283556 -0.0071764 0)
(0.00214941 -0.00766117 0)
(0.000311787 -0.00546023 0)
(-0.000202907 -0.00523723 0)
(0.00130847 -0.00837433 0)
(0.000155656 -0.00696193 0)
(-0.0017395 -0.00532747 0)
(0.00181149 -0.00479591 0)
(0.0015683 -0.00445371 0)
(0.00124537 -0.00394467 0)
(0.00111214 -0.00687822 0)
(0.000352606 0.00318304 0)
(0.00309367 0.00176818 0)
(0.002374 -0.00841535 0)
(0.00450892 -0.0057109 0)
(0.00258211 -0.0037715 0)
(0.00173858 -0.00466716 0)
(-0.000789609 -0.00622984 0)
(0.000687713 -0.00890411 0)
(0.000973761 -0.00689186 0)
(-0.0059372 -0.00678626 0)
(-0.00450158 -0.00770023 0)
(0.00233507 -0.00970739 0)
(0.00333224 -0.0102402 0)
(0.00147367 -0.00910805 0)
(0.00136066 -0.00775837 0)
(0.000723295 -0.00760711 0)
(0.000793955 -0.00708762 0)
(0.000777102 -0.00677164 0)
(0.000574639 -0.0063593 0)
(0.000352567 -0.00617902 0)
(9.94168e-06 -0.00600652 0)
(-0.000138964 -0.00592948 0)
(-0.000279382 -0.00584181 0)
(-0.000322063 -0.00581147 0)
(-0.000366793 -0.00582301 0)
(-0.000421014 -0.00580668 0)
(-0.000369499 -0.00580598 0)
(-0.000147644 -0.00579934 0)
(0.000260554 -0.00567726 0)
(0.000775743 -0.00536698 0)
(0.00136699 -0.0048454 0)
(0.00185544 -0.00421431 0)
(0.00210829 -0.00365843 0)
(0.00209311 -0.00316954 0)
(0.00185036 -0.0028228 0)
(0.00143449 -0.00262522 0)
(0.0008832 -0.00267473 0)
(8.60503e-05 -0.00297616 0)
(-0.00107856 -0.00352661 0)
(-0.00228331 -0.0042718 0)
(-0.00275275 -0.00478197 0)
(-0.00270986 -0.00511316 0)
(-0.00205928 -0.00537748 0)
(-0.0010351 -0.00557767 0)
(-0.000307121 -0.00568767 0)
(5.78717e-05 -0.00562462 0)
(0.000332558 -0.00545778 0)
(0.000561523 -0.00525779 0)
(0.000637933 -0.0050505 0)
(0.000576442 -0.00483566 0)
(0.000487817 -0.00454282 0)
(0.000419319 -0.00436289 0)
(0.000263364 -0.00485645 0)
(-3.43169e-05 -0.00432276 0)
(0.00231507 -0.0099161 0)
(0.00118276 -0.00985272 0)
(0.000557634 -0.0164995 0)
(0.00353493 -0.0121589 0)
(0.000660467 -0.00799366 0)
(-0.00441375 -0.00740057 0)
(-0.00213746 -0.010706 0)
(0.000934077 -0.00933987 0)
(0.00105794 -0.00861526 0)
(0.00186484 -0.00877923 0)
(0.000921788 -0.00639187 0)
(0.00166965 -0.00842554 0)
(0.001651 -0.0086571 0)
(-0.000492977 -0.00787475 0)
(-0.000128661 -0.0087449 0)
(0.00108127 -0.00863777 0)
(-0.000901286 -0.0044682 0)
(-0.000455202 -0.00409441 0)
(0.000159296 -0.00468002 0)
(0.00103874 -0.00398894 0)
(0.000672125 -0.00592466 0)
(0.00586645 0.000253767 0)
(-0.00345742 0.000309544 0)
(0.000282268 -0.00393734 0)
(0.000876468 -0.000753527 0)
(0.00235481 0.000862236 0)
(0.0033087 -0.0014049 0)
(0.000177263 -0.000647557 0)
(0.00336525 -0.00216982 0)
(0.00102353 -0.0031999 0)
(-0.00100237 -0.00451008 0)
(-0.00147757 0.00106098 0)
(-0.00044826 0.00168299 0)
(-0.000830938 -0.00891463 0)
(-0.00062347 -0.00776447 0)
(0.000801535 -0.00501929 0)
(0.000720114 -0.00511392 0)
(0.000844184 -0.00467841 0)
(0.00076085 -0.00459202 0)
(0.000515177 -0.00432593 0)
(0.000280157 -0.00433326 0)
(0.000110334 -0.00446529 0)
(-8.10133e-05 -0.00457742 0)
(-0.000254385 -0.00472168 0)
(-0.000272294 -0.00493852 0)
(-0.000311636 -0.00511178 0)
(-0.000330996 -0.00534395 0)
(-0.000265693 -0.00563654 0)
(-7.65025e-05 -0.00596634 0)
(0.00010922 -0.00612468 0)
(0.000325923 -0.00605494 0)
(0.000653729 -0.00566648 0)
(0.000997177 -0.00498536 0)
(0.00127795 -0.0041239 0)
(0.00144958 -0.00322074 0)
(0.00138681 -0.00246558 0)
(0.00123539 -0.00193244 0)
(0.00100503 -0.00175796 0)
(0.000536933 -0.00191802 0)
(-0.000351091 -0.00243011 0)
(-0.00154393 -0.00326472 0)
(-0.00231325 -0.00400701 0)
(-0.00242683 -0.00441629 0)
(-0.00187785 -0.00480943 0)
(-0.000901806 -0.00510967 0)
(-0.000301281 -0.00523223 0)
(-2.02346e-05 -0.00524145 0)
(0.000196214 -0.00517514 0)
(0.00039583 -0.0050449 0)
(0.000464029 -0.00489896 0)
(0.000410382 -0.00474406 0)
(0.000351126 -0.00450605 0)
(0.000301956 -0.00435734 0)
(0.000190782 -0.00489486 0)
(-2.97792e-05 -0.00436111 0)
(0.00609683 -0.00655823 0)
(-0.00317851 -0.00834078 0)
(-0.00224919 -0.0100415 0)
(-0.00337468 -0.00761348 0)
(-0.00456168 -0.00415038 0)
(-0.000146269 -0.00680575 0)
(-0.0020179 -0.00472326 0)
(-0.00036143 -0.00567227 0)
(0.000216759 -0.00722134 0)
(-0.00109115 -0.00614252 0)
(0.00273262 -0.00580981 0)
(0.000970195 -0.00680513 0)
(0.000524516 -0.00932485 0)
(0.000884564 -0.00817732 0)
(-0.000680573 -0.00781357 0)
(-0.00134711 -0.00805766 0)
(-0.00144298 -0.00805155 0)
(-0.00136376 -0.00561738 0)
(-0.0019141 -0.00477504 0)
(0.00299472 -0.00462444 0)
(0.000573777 -0.00363374 0)
(0.00341043 -0.00189693 0)
(-0.00156767 -0.00438081 0)
(0.00053966 -0.00366076 0)
(0.000470094 -0.00410727 0)
(0.000973718 -0.00141235 0)
(0.000578268 -0.00399116 0)
(0.000807195 -0.00157012 0)
(0.000721943 0.000200859 0)
(0.00202649 -0.00151562 0)
(0.0028264 0.00195993 0)
(0.00601625 0.00449233 0)
(-0.00296285 0.00266452 0)
(-0.00144606 -0.000880682 0)
(-0.000410827 -0.00270502 0)
(-0.000435333 -0.00327642 0)
(0.000186122 -0.0051308 0)
(0.000117007 -0.0044878 0)
(0.000267525 -0.00490402 0)
(0.000366498 -0.00479516 0)
(0.000336217 -0.00486674 0)
(0.000196638 -0.004936 0)
(0.000161403 -0.00504707 0)
(6.0348e-05 -0.00519495 0)
(2.40647e-05 -0.00533513 0)
(3.11115e-05 -0.0054364 0)
(0.000110697 -0.00560251 0)
(0.000225114 -0.00586534 0)
(0.000311869 -0.00602787 0)
(0.000308774 -0.00606358 0)
(0.000273177 -0.0059464 0)
(0.000243768 -0.00552941 0)
(0.000259813 -0.00480617 0)
(0.000304397 -0.00383724 0)
(0.000399201 -0.00276386 0)
(0.000527951 -0.00177691 0)
(0.000743194 -0.000972769 0)
(0.0008799 -0.000603743 0)
(0.000785177 -0.000556484 0)
(0.000273845 -0.000815713 0)
(-0.000627385 -0.00145406 0)
(-0.00149523 -0.00232981 0)
(-0.00187597 -0.00324257 0)
(-0.0014223 -0.00408796 0)
(-0.000598343 -0.00467557 0)
(-0.000170566 -0.00487011 0)
(1.65282e-05 -0.00496902 0)
(0.00014621 -0.00498152 0)
(0.000281891 -0.00490749 0)
(0.000338997 -0.00479147 0)
(0.000292552 -0.00467144 0)
(0.000249469 -0.00447918 0)
(0.000216037 -0.00435145 0)
(0.000137038 -0.00492203 0)
(-2.46127e-05 -0.0043881 0)
(-0.000809513 -0.00630951 0)
(-0.000769511 -0.0150457 0)
(-0.00329807 -0.0135777 0)
(-7.8557e-05 -0.0131039 0)
(-0.00246743 -0.00320752 0)
(-0.00194306 -0.00327832 0)
(-0.00546505 -0.00961618 0)
(0.000992164 -0.00671614 0)
(-0.000581474 -0.00781509 0)
(-0.00446568 -0.0036707 0)
(0.0060292 -0.000527382 0)
(0.00184027 -0.00531934 0)
(0.00303425 -0.00316358 0)
(-1.20507e-05 -0.0024879 0)
(0.000537591 -0.00483841 0)
(-0.00237661 -0.00642769 0)
(-0.000806745 -0.00493103 0)
(-0.0027043 -0.00587012 0)
(-0.00459013 -0.0042452 0)
(0.00210215 -0.00399139 0)
(0.0019887 -0.00803529 0)
(5.31262e-05 -0.00353893 0)
(0.000374296 -0.00450028 0)
(0.001008 -0.00478128 0)
(0.00146695 -0.00418355 0)
(-0.000274761 -0.0024521 0)
(-0.000756214 -0.00480748 0)
(0.000639969 -0.00295995 0)
(-0.00020665 -0.00161699 0)
(0.00219389 -0.00101102 0)
(0.00250562 0.00166919 0)
(0.00215039 0.000395162 0)
(0.000485076 0.00230041 0)
(0.000596487 -0.00027564 0)
(0.00115476 -0.00257312 0)
(0.00163832 -0.00338485 0)
(0.00167133 -0.00497833 0)
(0.00123346 -0.00545177 0)
(0.00111543 -0.00552083 0)
(0.000592323 -0.00539033 0)
(0.000460221 -0.005501 0)
(0.000398868 -0.00564633 0)
(0.000184667 -0.00591941 0)
(2.26274e-05 -0.00622761 0)
(-2.19177e-05 -0.00637826 0)
(-3.61433e-05 -0.00645382 0)
(7.28569e-05 -0.00653736 0)
(0.000142863 -0.00655036 0)
(0.000159028 -0.0064857 0)
(5.78309e-05 -0.00628049 0)
(-0.00016155 -0.00587563 0)
(-0.000447971 -0.00519638 0)
(-0.000675497 -0.00427942 0)
(-0.00077293 -0.0032069 0)
(-0.000680983 -0.00213406 0)
(-0.000428804 -0.00119813 0)
(5.71953e-05 -0.000433306 0)
(0.000572024 -2.81907e-05 0)
(0.00077201 2.6786e-05 0)
(0.000603074 -0.000179053 0)
(6.62891e-05 -0.000676032 0)
(-0.000518768 -0.00152441 0)
(-0.000735145 -0.00265021 0)
(-0.00049297 -0.00388264 0)
(-0.000149199 -0.00455772 0)
(2.75588e-05 -0.00478737 0)
(8.25502e-05 -0.00487543 0)
(0.000125425 -0.00488994 0)
(0.000188169 -0.0048342 0)
(0.000220681 -0.00472839 0)
(0.000202152 -0.00461933 0)
(0.000177251 -0.00446057 0)
(0.000152755 -0.00434726 0)
(9.76416e-05 -0.00494184 0)
(-1.92583e-05 -0.00440705 0)
(-0.00496113 -0.00704749 0)
(-0.0042857 -0.00926208 0)
(-0.00399226 -0.00988248 0)
(-0.00325908 -0.00644117 0)
(-0.000776274 -0.00530827 0)
(-0.00739392 -0.00663031 0)
(-0.00482267 0.00157721 0)
(-0.0030137 0.00121208 0)
(-0.00379074 -0.0116309 0)
(-0.00258929 0.00219089 0)
(-0.00236157 0.00300623 0)
(-0.00203764 -0.00634001 0)
(0.00108209 -0.00557284 0)
(-0.0017327 -0.00427078 0)
(0.0038047 -0.00324341 0)
(0.000549865 -0.00338394 0)
(0.00365661 -0.00375706 0)
(-0.000181587 -0.00674591 0)
(0.00192312 0.00157975 0)
(-0.00211065 0.000593365 0)
(-0.000608202 -0.00791303 0)
(-9.44821e-05 -0.00560045 0)
(-0.000280428 -0.00582998 0)
(-0.00136144 -0.00452253 0)
(0.00103709 -0.00415998 0)
(-0.00274644 -0.00242978 0)
(0.000579279 -0.0029175 0)
(-0.0011685 -0.00236374 0)
(0.000799531 -0.00191761 0)
(0.00231731 -0.00270641 0)
(0.00205708 -0.00111436 0)
(0.00221757 -0.00189274 0)
(0.00113994 -0.00209264 0)
(0.00308055 -0.00332705 0)
(0.00284098 -0.00439441 0)
(0.00237541 -0.00622275 0)
(0.0015207 -0.00727553 0)
(0.00110117 -0.00649728 0)
(0.000236575 -0.00692698 0)
(5.23246e-05 -0.00720162 0)
(0.000535634 -0.0073808 0)
(0.000694476 -0.00756631 0)
(0.000605214 -0.00771031 0)
(0.000385927 -0.00777786 0)
(0.000270478 -0.00771777 0)
(0.000208622 -0.00763272 0)
(0.000197418 -0.00740339 0)
(0.000196501 -0.00720054 0)
(4.70263e-05 -0.00681964 0)
(-0.000297561 -0.00631839 0)
(-0.000792487 -0.00559654 0)
(-0.00139121 -0.00474343 0)
(-0.00179614 -0.00384576 0)
(-0.00187709 -0.00296672 0)
(-0.00166229 -0.00201272 0)
(-0.00120278 -0.00120295 0)
(-0.000431542 -0.000539364 0)
(0.000429772 -0.000225382 0)
(0.000902477 -0.000253721 0)
(0.000949319 -0.000617924 0)
(0.000681662 -0.00123797 0)
(0.000450022 -0.00214945 0)
(0.000414124 -0.0032435 0)
(0.000428147 -0.00417353 0)
(0.000328781 -0.00458682 0)
(0.000183601 -0.00475376 0)
(0.000122362 -0.00481244 0)
(0.000105762 -0.00481167 0)
(0.000104246 -0.00475328 0)
(0.000120313 -0.00467342 0)
(0.00013102 -0.00458654 0)
(0.000124164 -0.00444596 0)
(0.000105784 -0.00434347 0)
(6.88161e-05 -0.00495575 0)
(-1.42543e-05 -0.00442025 0)
(-0.00171751 0.0102049 0)
(-0.00538337 0.00806745 0)
(-0.00130223 0.00833828 0)
(-0.00380212 0.00753611 0)
(-0.000572187 0.00682182 0)
(-0.00082218 0.00397316 0)
(0.00302463 0.00284154 0)
(-0.00668383 0.000998985 0)
(-0.00325642 -0.0033143 0)
(0.00223342 -0.00162211 0)
(-0.00611284 -0.0039997 0)
(-0.00277488 -0.00723741 0)
(-0.00127752 -0.00781581 0)
(-6.08973e-05 -0.00531846 0)
(0.00186836 -0.00539425 0)
(0.00186124 -0.00659831 0)
(0.00263897 -0.00419201 0)
(0.00305366 -0.00495459 0)
(0.00480179 -0.00142785 0)
(-0.00393616 -0.002707 0)
(-0.00196041 -0.0044552 0)
(-0.000673142 -0.00235591 0)
(-0.00171617 -0.00516143 0)
(-0.00226285 -0.00425606 0)
(-0.00163863 -0.00501866 0)
(-0.00194347 -0.0031598 0)
(0.000134526 -0.00322864 0)
(-0.000865813 -0.00379458 0)
(0.00244793 2.7306e-05 0)
(0.0019445 -0.00159331 0)
(0.00263308 0.000527753 0)
(0.00144871 -0.000933444 0)
(0.00239005 -0.000309168 0)
(0.00148552 0.000556275 0)
(0.0036843 -0.00239422 0)
(0.00214366 -0.000295362 0)
(0.00182368 -0.00132061 0)
(0.00174511 -0.00164774 0)
(0.00184662 -0.00366143 0)
(0.00121257 -0.00596675 0)
(0.00117318 -0.00707825 0)
(0.000782667 -0.00743391 0)
(0.000448295 -0.0074634 0)
(0.000123335 -0.00757713 0)
(-0.00015439 -0.00741968 0)
(-0.000303149 -0.00722635 0)
(-0.000432658 -0.00694763 0)
(-0.000454834 -0.00657839 0)
(-0.000724321 -0.00606493 0)
(-0.00120962 -0.00550224 0)
(-0.00174735 -0.0048639 0)
(-0.0021441 -0.00446037 0)
(-0.00249595 -0.00402767 0)
(-0.00267996 -0.00368874 0)
(-0.00251171 -0.00318163 0)
(-0.00194083 -0.00270082 0)
(-0.000945001 -0.00215496 0)
(0.000261084 -0.00180582 0)
(0.00116844 -0.00175036 0)
(0.00159026 -0.00218801 0)
(0.0016214 -0.00289826 0)
(0.00148025 -0.00376216 0)
(0.00121588 -0.00442746 0)
(0.000797417 -0.00472028 0)
(0.000434679 -0.00471209 0)
(0.000256357 -0.00471259 0)
(0.000137335 -0.0047341 0)
(6.37214e-05 -0.00472715 0)
(3.80797e-05 -0.00468871 0)
(5.16153e-05 -0.00463118 0)
(7.67067e-05 -0.0045656 0)
(7.93866e-05 -0.00443554 0)
(6.92652e-05 -0.00434149 0)
(4.67652e-05 -0.00496653 0)
(-9.73196e-06 -0.00442954 0)
(0.000742599 -0.000695941 0)
(-0.001797 -0.00105598 0)
(-0.00127893 -0.00215404 0)
(-0.00355564 -0.00292095 0)
(0.00386914 -0.0012554 0)
(0.00326653 -0.00456105 0)
(0.000700185 -0.00600415 0)
(-0.00252931 -0.00739826 0)
(0.00112387 -0.00722121 0)
(0.000801267 -0.00779981 0)
(-0.00254032 -0.00976303 0)
(-0.00199808 -0.00838386 0)
(-0.00240502 -0.00884297 0)
(0.000585952 -0.00776699 0)
(-0.000233979 -0.00790081 0)
(0.00240703 -0.00766832 0)
(0.00108233 -0.00642347 0)
(0.00345992 -0.00698987 0)
(0.00256461 -0.0048907 0)
(-0.00175134 -0.00431788 0)
(0.000212357 -0.00194461 0)
(-0.00319804 -0.00160402 0)
(-0.0011307 -0.00552437 0)
(-0.00172209 -0.00483258 0)
(-0.00233723 -0.00737665 0)
(9.95772e-05 -0.00628475 0)
(-0.00316626 -0.0068491 0)
(-0.00466066 -0.00261059 0)
(0.00391079 -0.000891983 0)
(0.00134468 -0.00576232 0)
(2.24716e-05 -0.00519495 0)
(0.00259149 -0.00611659 0)
(0.00409458 -0.0069801 0)
(0.00148645 -0.00525601 0)
(0.00288961 -0.00553814 0)
(0.00249657 -0.00681755 0)
(0.0034952 -0.00524534 0)
(0.00335375 -0.00483419 0)
(0.00359527 -0.00457797 0)
(0.00312519 -0.00452095 0)
(0.00183653 -0.00397337 0)
(0.00102708 -0.00359927 0)
(0.000532344 -0.00311331 0)
(0.000182 -0.00303147 0)
(-7.86102e-05 -0.00307989 0)
(-0.000247154 -0.00336433 0)
(-0.000486596 -0.00356655 0)
(-0.000658851 -0.00382792 0)
(-0.000955559 -0.00390567 0)
(-0.00138921 -0.00403138 0)
(-0.00184071 -0.00423152 0)
(-0.00213343 -0.00449254 0)
(-0.00251108 -0.00486153 0)
(-0.00265653 -0.00507497 0)
(-0.00261767 -0.00512446 0)
(-0.00218777 -0.00515434 0)
(-0.00127738 -0.00503526 0)
(5.7922e-05 -0.00481288 0)
(0.00142017 -0.00465272 0)
(0.0020239 -0.00477473 0)
(0.00214155 -0.00491657 0)
(0.00193508 -0.00511674 0)
(0.00135565 -0.00513114 0)
(0.000689296 -0.00495059 0)
(0.000370845 -0.00479678 0)
(0.000231497 -0.00471016 0)
(0.000136492 -0.00467513 0)
(4.03673e-05 -0.00465867 0)
(-2.97946e-06 -0.00463317 0)
(3.80444e-07 -0.00459058 0)
(3.61543e-05 -0.00454207 0)
(4.84741e-05 -0.00442521 0)
(4.41135e-05 -0.00433809 0)
(3.17759e-05 -0.0049737 0)
(-5.88347e-06 -0.0044359 0)
(-0.000131877 -0.0047311 0)
(0.00238002 -0.00859889 0)
(-0.000273306 -0.00801058 0)
(0.000370985 0.000176088 0)
(-2.18893e-05 0.00284381 0)
(-5.06299e-05 -0.00803681 0)
(-0.000923659 -0.0107802 0)
(-1.12132e-05 -0.00622542 0)
(0.000313064 -0.00682232 0)
(-0.00209917 -0.0103475 0)
(-0.00359812 -0.00948684 0)
(-0.00216104 -0.0100857 0)
(-0.00273605 -0.00901703 0)
(-0.000610243 -0.00741156 0)
(0.000637384 -0.00928034 0)