/*--------------------------------*- C++ -*----------------------------------*\
  =========                 |
  \\      /  F ield         | OpenFOAM: The Open Source CFD Toolbox
   \\    /   O peration     | Website:  https://openfoam.org
    \\  /    A nd           | Version:  12
     \\/     M anipulation  |
\*---------------------------------------------------------------------------*/
FoamFile
{
    format      ascii;
    class       volScalarField::Internal;
    location    "0.3";
    object      cloud:UCoeff;
}
// * * * * * * * * * * * * * * * * * * * * * * * * * * * * * * * * * * * * * //

dimensions      [1 0 0 0 0 0 0];

value           nonuniform List<scalar> 
3750
(
4.69673e-06
3.54001e-07
4.90258e-08
6.52598e-08
6.602e-08
0
6.37918e-08
0
1.63087e-07
6.38012e-08
6.29678e-08
6.2731e-08
6.44705e-08
6.4668e-08
6.46085e-08
6.78795e-08
6.63352e-08
6.55629e-08
1.56398e-07
0
6.61531e-08
6.4201e-08
0
6.31817e-08
6.72421e-08
6.68751e-08
6.4553e-08
1.63458e-07
6.58269e-08
6.34453e-08
6.17432e-08
0
6.29345e-08
6.51456e-08
1.53807e-07
6.26571e-08
6.29635e-08
6.47785e-08
0
7.36226e-08
0
6.57127e-08
6.9213e-08
1.547e-07
0
6.46405e-08
6.50127e-08
1.559e-07
1.72739e-07
5.92513e-08
6.56443e-08
0
6.66312e-08
0
6.50355e-08
6.58451e-08
6.60469e-08
6.54791e-08
6.55141e-08
1.54805e-07
1.49949e-07
5.89731e-08
6.52679e-08
7.02529e-08
6.87443e-08
6.47716e-08
6.51956e-08
6.29053e-08
6.34222e-08
6.66632e-08
6.60116e-08
6.49905e-08
6.78398e-08
6.02912e-08
0
3.44214e-06
1.22031e-07
2.83123e-09
6.07523e-08
2.70013e-07
6.38465e-08
0
0
6.27738e-08
6.52719e-08
1.65344e-07
6.29827e-08
6.42362e-08
6.31342e-08
0
6.45661e-08
0
6.32659e-08
6.58736e-08
6.67011e-08
6.35733e-08
2.64601e-07
1.13959e-07
1.15697e-08
0
6.59319e-08
0
6.68452e-08
6.57578e-08
1.5333e-07
1.55265e-07
6.21756e-08
6.62744e-08
0
6.59091e-08
6.68443e-08
0
1.51071e-07
1.51991e-07
6.47981e-08
0
1.4184e-08
2.19961e-07
1.33684e-08
0
0
0
6.32737e-08
1.21783e-07
6.22972e-08
1.58491e-07
1.52382e-07
6.25191e-08
6.35995e-08
6.27275e-08
6.38826e-08
6.65672e-08
0
6.07098e-08
6.15984e-08
6.2024e-08
6.49977e-08
2.20836e-08
0
2.24168e-07
9.38463e-08
6.27581e-08
0
6.54826e-08
0
6.50313e-08
6.44886e-08
1.48329e-07
6.14305e-08
6.45445e-08
4.06658e-06
2.4521e-07
1.57062e-07
6.3898e-08
6.49669e-08
6.64538e-08
6.41121e-08
6.35789e-08
0
6.47156e-08
6.55471e-08
6.74514e-08
6.14663e-08
6.09792e-08
7.25968e-08
1.45481e-07
6.26452e-08
2.68749e-07
6.16646e-08
6.28341e-08
6.15383e-08
6.09677e-08
6.24292e-08
6.19739e-08
9.4833e-08
1.26996e-07
6.85757e-08
6.46331e-08
0
1.50471e-07
6.1868e-08
1.43112e-07
8.52018e-08
4.38725e-08
6.03831e-08
1.27808e-07
1.42552e-09
6.58791e-08
6.33669e-08
1.5577e-07
6.47349e-08
5.87483e-08
6.311e-08
1.18817e-07
6.34277e-08
1.63302e-07
6.19905e-08
1.78003e-08
1.13004e-07
0
0
6.42656e-08
6.16857e-08
6.34584e-08
6.29375e-08
6.4683e-08
6.70589e-08
0
6.63413e-08
9.68035e-08
3.22257e-08
1.00867e-07
1.15453e-07
6.90768e-08
1.75744e-08
9.49455e-08
2.86067e-08
6.06171e-08
6.29196e-08
6.41232e-08
6.5815e-08
6.82789e-08
6.53258e-08
6.13992e-08
7.23284e-08
3.96309e-06
2.0907e-07
6.58773e-08
9.53142e-08
1.4516e-07
5.48799e-08
1.33899e-07
6.68918e-08
6.47296e-08
6.50139e-08
6.59601e-08
6.39068e-08
6.35441e-08
0
0
1.60989e-07
6.49404e-08
6.62055e-08
6.49275e-08
6.45076e-08
6.44028e-08
6.34889e-08
6.44396e-08
1.60972e-07
6.32694e-08
6.42273e-08
6.41853e-08
6.19132e-08
1.51134e-07
7.99105e-08
4.65752e-08
6.34355e-08
6.49518e-08
6.34258e-08
1.56784e-07
6.42802e-08
6.60198e-08
0
6.38946e-08
1.11845e-07
1.05909e-07
6.42261e-08
8.74602e-09
4.54541e-08
1.09208e-07
6.42102e-08
6.37209e-08
1.51988e-07
3.28068e-09
1.54658e-07
6.72198e-08
6.29564e-08
6.35199e-08
6.36319e-08
8.69261e-08
9.67141e-08
7.86138e-09
6.7934e-08
6.52124e-08
6.1845e-08
9.42035e-08
1.1099e-07
6.44134e-08
6.36232e-08
6.44009e-08
6.47904e-08
6.32191e-08
6.46582e-08
6.54004e-08
6.5144e-08
6.73983e-08
6.39085e-08
9.10251e-08
3.35789e-08
6.27601e-08
4.70362e-06
1.05459e-07
6.70333e-08
6.8639e-08
6.54834e-08
6.24243e-08
1.56569e-07
1.99455e-08
2.54173e-08
6.27263e-08
6.49412e-08
6.65436e-08
1.59715e-08
1.15409e-07
6.16539e-08
0
0
6.47825e-08
6.62236e-08
6.50289e-08
6.47132e-08
1.35787e-08
4.05881e-08
6.63168e-08
1.68288e-07
6.24984e-08
6.27056e-08
0
0
6.40032e-08
6.33145e-08
6.39564e-08
6.39231e-08
6.51699e-08
6.42006e-08
6.48163e-08
6.66337e-08
2.75962e-09
1.50556e-07
6.55797e-08
6.56198e-08
6.73412e-08
0
6.41366e-08
9.55381e-08
6.37285e-08
1.53657e-07
6.44423e-08
6.19942e-08
6.48493e-08
6.34957e-08
6.58362e-08
1.59838e-07
6.37091e-08
6.28061e-08
6.40014e-08
6.41363e-08
2.60861e-08
1.06494e-07
6.3257e-08
0
0
6.26037e-08
6.49844e-08
6.52073e-08
6.47696e-08
6.42838e-08
6.25468e-08
6.33548e-08
1.61414e-07
6.54525e-08
6.19589e-08
6.71022e-08
2.86534e-08
1.21849e-08
4.02872e-06
1.17976e-07
6.09943e-08
7.10144e-08
0
6.41166e-08
6.52883e-08
1.54967e-07
6.38849e-08
6.53993e-08
0
0
6.55326e-08
6.48684e-08
1.561e-07
6.15814e-08
1.63195e-07
7.02742e-08
6.7225e-08
6.50852e-08
1.78915e-08
2.9876e-08
6.42994e-08
7.03549e-08
1.61047e-08
5.9355e-08
4.72629e-08
1.5726e-07
6.21864e-08
6.31398e-08
6.4501e-08
6.6659e-08
6.62973e-08
6.47765e-08
6.43456e-08
9.26272e-08
1.28588e-07
1.52187e-07
1.52302e-07
6.67188e-08
2.40419e-08
2.39377e-08
6.69394e-08
6.34467e-08
6.28619e-08
6.43445e-08
6.4592e-08
6.4389e-08
6.48247e-08
6.37487e-08
1.58152e-07
6.48668e-08
6.42455e-08
6.44421e-08
6.37772e-08
7.94383e-08
1.11175e-07
8.68438e-08
6.80737e-08
0
1.48908e-07
1.47268e-07
6.3495e-08
6.57223e-08
6.48793e-08
6.40712e-08
6.12275e-08
6.42401e-08
8.57943e-08
1.32846e-07
6.29056e-08
6.03008e-08
4.17821e-09
5.86321e-08
6.38553e-08
3.28541e-06
1.31245e-07
0
0
6.46161e-08
1.60612e-07
0
0
1.56498e-07
0
6.63844e-08
6.62855e-08
6.38317e-08
6.57474e-08
6.22781e-08
6.40614e-08
6.86966e-08
6.86063e-08
6.56507e-08
6.41248e-08
6.31446e-08
6.29081e-08
6.56797e-08
7.73745e-08
1.14031e-07
4.69173e-08
2.68623e-08
6.58406e-08
6.51898e-08
6.33649e-08
6.71536e-08
6.62524e-08
6.46932e-08
6.48689e-08
6.15727e-08
0
0
0
0
6.49258e-08
6.91022e-08
6.35113e-09
1.05448e-07
5.22595e-08
2.56955e-08
6.48971e-08
0
3.21594e-08
8.79962e-08
6.30827e-08
0
6.50461e-08
6.49879e-08
6.34511e-08
6.35511e-08
6.67053e-08
6.63773e-08
6.78859e-08
6.82079e-08
6.4833e-08
6.34305e-08
6.12059e-08
1.34917e-08
4.03266e-08
6.60245e-08
6.3463e-08
1.57771e-07
6.32207e-08
6.4247e-08
6.50673e-08
6.56801e-08
8.4139e-08
8.47085e-08
2.92879e-08
6.65308e-08
3.97708e-06
9.95993e-08
1.1941e-07
9.43072e-08
0
0
6.50433e-08
2.6815e-07
6.01631e-08
6.19206e-08
1.51261e-07
1.56122e-07
6.19489e-08
1.50717e-07
1.32475e-08
4.16938e-08
6.5705e-08
6.94766e-08
6.24933e-08
6.51021e-08
6.48936e-08
1.33833e-07
8.27602e-08
0
6.41385e-08
2.22622e-08
2.537e-08
6.59311e-08
6.39733e-08
9.7062e-08
1.10184e-07
6.65922e-08
6.59515e-08
6.54859e-08
0
6.43407e-08
1.56848e-07
6.39379e-08
1.56197e-07
6.28673e-08
6.49038e-08
6.66533e-08
6.5763e-08
6.49025e-08
0
2.80293e-08
4.57283e-08
1.16856e-07
1.52545e-07
6.18709e-08
6.40534e-08
6.3314e-08
6.4268e-08
6.72484e-08
6.80492e-08
3.16624e-08
9.18948e-08
6.91634e-08
6.46001e-08
6.14903e-08
6.26435e-08
6.45184e-08
1.39912e-08
1.30139e-07
6.34126e-08
6.05356e-08
6.37231e-08
6.5723e-08
6.31022e-08
6.45801e-08
6.51659e-08
6.48429e-08
6.73788e-08
6.53851e-08
6.36811e-08
3.99479e-06
8.59513e-08
1.07612e-07
6.28746e-08
1.21198e-07
8.11786e-08
6.0239e-08
6.45178e-08
6.38458e-08
6.86519e-08
6.70908e-08
6.37638e-08
6.37101e-08
6.11116e-08
1.47033e-07
1.47741e-07
6.07752e-08
6.15775e-08
6.10724e-08
6.61188e-08
2.67369e-08
4.44459e-08
5.59235e-08
5.01794e-08
1.02422e-07
1.14233e-07
0
6.64483e-08
0
0
0
0
0
3.81374e-09
1.44445e-07
1.52481e-07
6.31759e-08
6.63978e-08
6.52825e-08
6.35699e-08
6.52899e-08
6.54503e-08
8.14242e-08
1.3577e-07
6.29546e-08
6.4387e-08
0
1.55366e-07
1.57493e-07
1.06268e-07
5.96617e-08
2.54258e-08
6.39502e-08
6.98727e-08
0
6.69883e-08
6.62353e-08
6.99453e-08
6.07605e-09
1.40863e-07
6.19082e-08
6.36455e-08
6.44653e-08
6.70648e-08
9.89842e-08
8.55905e-08
8.59386e-08
6.3495e-08
6.50503e-08
6.53246e-08
0
6.57354e-08
1.5858e-07
6.12575e-08
6.37307e-08
3.88968e-06
2.11221e-07
1.21326e-07
7.89337e-08
6.35072e-08
6.38795e-08
6.78169e-08
6.36627e-08
6.66832e-08
6.65949e-08
6.73695e-08
6.42573e-08
6.29393e-08
6.38973e-08
6.40444e-08
6.35027e-08
1.11332e-07
9.09727e-08
6.35242e-08
6.50198e-08
6.89009e-08
0
6.62402e-08
6.38703e-08
0
6.43599e-08
1.54281e-07
6.57749e-08
6.61228e-08
6.58088e-08
6.55522e-08
1.51717e-07
1.66167e-07
0
6.61132e-08
6.38007e-08
6.1012e-08
6.50959e-08
6.46594e-08
6.61491e-08
6.37072e-08
9.07258e-08
3.81253e-08
0
6.49678e-08
6.55065e-08
6.46919e-08
6.30467e-08
6.54303e-08
6.22098e-08
0
6.24853e-08
6.49816e-08
0
6.8261e-08
6.81754e-08
6.59946e-08
6.52278e-08
6.58946e-08
6.54601e-08
6.44496e-08
6.43226e-08
6.53764e-08
0
1.13911e-07
2.9114e-08
5.0799e-08
6.70172e-08
6.56727e-08
6.41539e-08
6.53406e-08
6.62613e-08
6.68183e-08
6.4855e-08
6.49933e-08
4.02778e-06
2.35659e-07
5.8548e-08
6.23465e-08
0
6.30528e-08
6.53889e-08
7.00735e-08
0
8.41513e-08
4.78973e-08
6.45883e-08
6.52344e-08
6.65397e-08
6.51015e-08
0
6.2565e-08
1.52311e-07
6.29299e-08
6.90465e-08
6.87365e-08
1.81153e-08
3.21485e-08
6.17128e-08
6.24274e-08
0
0
6.50909e-08
1.61181e-07
6.36126e-08
7.72991e-08
8.39669e-08
8.95758e-08
5.83814e-08
1.03934e-08
1.00197e-07
1.15705e-07
6.71463e-08
6.63208e-08
6.25137e-08
6.1624e-08
6.38576e-08
6.50419e-08
6.36187e-08
6.43687e-08
1.56331e-07
6.50713e-08
1.20317e-08
4.07351e-08
6.30768e-08
6.47467e-08
6.52745e-08
6.46785e-08
6.5507e-08
6.91926e-08
3.61035e-08
7.8691e-08
6.31563e-08
6.32824e-08
6.42439e-08
6.37048e-08
6.51453e-08
6.55258e-08
1.61875e-07
6.4943e-08
6.65271e-08
0
6.57128e-08
6.72041e-08
6.60172e-08
6.47405e-08
6.45958e-08
1.24049e-07
8.39233e-08
6.35598e-08
2.89177e-06
2.26544e-07
4.84699e-08
7.00363e-08
1.4781e-07
6.28667e-08
6.52065e-08
6.53819e-08
6.83504e-08
6.88116e-08
6.51088e-08
6.54793e-08
6.62632e-08
6.67756e-08
6.50031e-08
1.53064e-07
6.19846e-08
6.50061e-08
6.29531e-08
6.57268e-08
6.75981e-08
6.77872e-08
6.50907e-08
6.30011e-08
6.31199e-08
8.61012e-08
1.28746e-07
6.24722e-08
6.66828e-08
1.6539e-07
6.38712e-08
6.2078e-08
6.3673e-08
6.84504e-08
6.54159e-08
6.46183e-08
6.35412e-08
6.41397e-08
6.46498e-08
7.87481e-08
9.03106e-08
1.90738e-08
6.42251e-08
6.41851e-08
1.59562e-07
6.65105e-08
4.63802e-09
1.45245e-07
6.30308e-08
4.66614e-09
5.54318e-08
6.41611e-08
1.53306e-07
6.58533e-08
6.6053e-08
1.65705e-07
6.38763e-08
6.25186e-08
6.32001e-08
6.28232e-08
6.44427e-08
6.39164e-08
6.18968e-08
6.75841e-08
0
9.83155e-08
1.17628e-07
6.7278e-08
6.45731e-08
6.28345e-08
6.14302e-08
6.48232e-08
6.61269e-08
6.50546e-08
6.08102e-08
5.56881e-06
2.17246e-07
0
6.48151e-08
6.55502e-08
6.44677e-08
6.54014e-08
6.50002e-08
6.7324e-08
6.71178e-08
6.51336e-08
1.08255e-07
1.03153e-07
6.69184e-08
0
6.23435e-08
6.3713e-08
6.70706e-08
0
6.75872e-08
6.64341e-08
1.0147e-07
1.12789e-07
6.28346e-08
6.5481e-08
1.09177e-07
1.01614e-07
6.39411e-08
6.91291e-08
7.02298e-08
6.57093e-08
6.15027e-08
6.19516e-08
6.50078e-08
6.69803e-08
1.63575e-07
6.53344e-08
6.33059e-08
6.29387e-08
6.35603e-08
6.33525e-08
6.32375e-08
1.57699e-07
6.19777e-08
6.40177e-08
6.30835e-08
6.71762e-08
0
1.51747e-07
6.41732e-08
6.41224e-08
6.29789e-08
6.58815e-08
6.35787e-08
6.57767e-08
6.61035e-08
6.52413e-08
6.404e-08
6.39912e-08
6.45409e-08
1.11425e-07
2.00046e-08
6.59512e-08
1.62569e-07
6.55881e-08
6.33261e-08
6.37416e-08
6.45683e-08
6.20674e-08
6.19707e-08
6.38976e-08
6.80316e-08
6.70066e-08
6.28199e-08
6.06247e-08
2.40652e-06
1.00241e-07
5.64901e-08
6.33044e-08
6.45023e-08
6.59525e-08
6.5024e-08
6.38225e-08
6.9265e-08
6.66479e-08
6.25377e-08
6.13684e-08
6.33902e-08
6.59159e-08
6.61068e-08
8.7911e-10
6.26549e-08
6.67717e-08
6.5555e-08
6.57858e-08
8.75931e-08
1.34019e-07
6.53101e-08
6.27073e-08
6.45489e-08
6.36524e-08
6.37474e-08
6.33292e-08
6.58095e-08
6.86027e-08
6.81772e-08
6.33366e-08
6.31988e-08
6.38426e-08
6.54914e-08
1.09191e-07
1.0829e-07
6.3463e-08
6.32507e-08
1.88755e-09
6.28254e-08
6.5698e-08
6.54368e-08
6.55433e-08
6.55956e-08
6.59631e-08
3.02585e-08
1.16513e-08
0
6.30711e-08
6.34221e-08
0
6.54662e-08
6.99614e-08
6.65415e-08
6.61442e-08
6.48547e-08
6.45793e-08
6.53905e-08
6.53663e-08
6.81925e-08
6.53534e-09
5.50962e-08
6.46392e-08
9.43737e-08
1.23664e-07
1.57107e-07
6.3906e-08
6.23648e-08
6.35929e-08
6.07397e-08
6.34595e-08
6.53812e-08
6.50861e-08
6.51533e-08
3.47389e-06
2.93619e-07
6.01899e-08
6.4376e-08
6.75152e-08
3.30034e-08
8.43584e-09
6.58163e-08
6.60971e-08
6.70873e-08
7.09305e-08
6.131e-08
6.56877e-08
6.54294e-08
6.53675e-08
6.50225e-08
6.36223e-08
7.45849e-08
9.49915e-08
5.50755e-08
5.30609e-08
6.48948e-08
4.08975e-08
6.3976e-08
6.47091e-08
6.36453e-08
6.50406e-08
6.58248e-08
6.52115e-08
1.29e-08
1.2918e-07
6.69524e-08
6.45774e-08
6.94521e-08
3.53972e-08
8.28209e-08
6.41768e-08
6.42351e-08
6.35423e-08
6.38068e-08
6.45947e-08
6.67483e-08
0
6.62265e-08
6.49968e-08
6.43765e-08
6.52671e-08
6.52863e-08
6.52778e-08
6.54151e-08
6.44166e-08
6.38664e-08
1.58545e-07
6.4456e-08
6.61236e-08
3.2693e-10
6.43413e-08
6.71398e-08
6.87012e-08
6.57232e-08
6.69622e-08
6.46936e-08
6.45788e-08
6.56306e-08
6.66645e-08
6.61014e-08
6.57663e-08
6.732e-08
6.49313e-08
1.22994e-07
7.90471e-08
6.35101e-08
6.53816e-08
6.30194e-08
6.45567e-08
3.93212e-06
1.79637e-07
5.74349e-08
6.11697e-08
6.26909e-08
6.78492e-08
7.10575e-08
0
6.47778e-08
6.54517e-08
6.54157e-08
6.57836e-08
6.44867e-08
6.53552e-08
6.50942e-08
6.51506e-08
8.98389e-08
9.20997e-08
9.7334e-08
6.47223e-08
6.35697e-08
6.59934e-08
2.93029e-08
1.1701e-08
6.68413e-08
6.28119e-08
6.78233e-08
6.92258e-08
1.46476e-08
8.61488e-08
9.62406e-08
6.75009e-08
6.76595e-08
6.78568e-08
6.75282e-08
6.61564e-08
6.56825e-08
6.35493e-08
6.49742e-08
6.60177e-08
6.39554e-08
6.61618e-08
0
6.66158e-08
6.57842e-08
6.00587e-08
6.26505e-08
6.41166e-08
6.4486e-08
1.62621e-07
6.28808e-08
6.17079e-08
6.29153e-08
6.37506e-08
6.48345e-08
6.48299e-08
6.32389e-08
6.50928e-08
0
1.57831e-07
6.37162e-08
6.18557e-08
6.29939e-08
6.78576e-08
6.66654e-08
6.65633e-08
0
0
0
1.93068e-08
1.1502e-07
6.40147e-08
0
6.55593e-08
6.49015e-08
6.00472e-06
2.4353e-07
5.69244e-08
6.34408e-08
6.02657e-08
6.99947e-08
7.00061e-08
0
6.14777e-08
6.5241e-08
6.57513e-08
6.53073e-08
6.51647e-08
6.557e-08
1.09578e-07
1.02091e-07
0
8.15675e-08
1.08855e-07
8.55492e-08
6.53921e-08
6.50657e-08
1.27028e-08
4.20595e-08
6.4093e-08
6.48722e-08
6.4933e-08
7.12914e-08
6.79824e-08
6.21412e-08
6.05042e-08
6.31995e-08
6.5749e-08
6.64081e-08
6.62814e-08
6.59336e-08
6.7636e-08
6.66196e-08
6.5838e-08
0
6.37218e-08
6.51798e-08
6.66944e-08
6.73357e-08
6.47169e-08
6.12483e-08
6.04709e-08
6.27299e-08
1.04113e-07
1.13708e-07
6.39457e-08
6.31507e-08
6.32017e-08
0
9.59896e-08
1.18956e-07
6.20672e-08
6.42689e-08
6.51045e-08
6.80473e-08
1.62201e-07
6.13206e-08
6.08695e-08
6.47926e-08
6.38099e-08
6.43624e-08
6.37039e-08
9.27183e-08
1.28078e-07
0
0
0
9.38704e-08
3.92625e-08
6.04792e-08
6.36324e-07
2.3673e-07
1.19058e-07
6.40939e-08
7.08659e-08
1.55952e-07
6.90274e-08
6.44828e-08
6.40239e-08
6.30295e-08
6.4953e-08
6.56874e-08
6.65044e-08
6.75125e-08
3.39741e-09
5.83977e-08
6.48624e-08
6.6508e-08
6.40842e-08
6.46547e-08
6.5556e-08
6.56205e-08
6.44129e-08
6.34936e-08
6.3431e-08
6.34821e-08
1.7396e-08
1.21634e-07
6.85927e-08
6.35572e-08
6.19538e-08
6.38121e-08
9.89279e-08
5.95787e-08
3.84868e-08
6.76845e-08
6.41848e-08
6.94782e-08
0
6.47591e-08
6.4372e-08
6.62413e-08
6.78091e-08
6.72841e-08
6.32952e-08
6.12675e-08
6.37107e-08
6.25701e-08
6.56797e-08
6.62112e-08
6.72772e-08
6.62886e-08
6.43535e-08
6.46721e-08
6.41489e-08
1.00924e-07
1.05956e-07
6.42688e-08
6.61437e-08
1.64109e-07
6.36699e-08
6.22417e-08
6.29228e-08
6.39037e-08
6.4755e-08
6.52245e-08
6.28852e-08
1.57684e-07
6.85441e-08
6.74524e-08
6.52995e-08
1.37927e-08
1.14232e-07
6.19547e-08
6.45455e-08
3.53379e-06
4.81747e-07
6.41031e-08
6.1987e-08
6.09832e-08
6.54071e-08
6.71505e-08
1.25226e-07
9.03329e-08
6.67572e-08
6.56932e-08
6.70272e-08
6.55333e-08
0
6.49161e-08
6.32767e-08
0
6.56567e-08
6.55368e-08
6.59381e-08
6.59243e-08
6.58622e-08
6.361e-08
6.34253e-08
6.32228e-08
6.35755e-08
6.39205e-08
1.13955e-07
9.98075e-08
6.44824e-08
6.33531e-08
6.4452e-08
6.55534e-08
6.6728e-08
6.42698e-08
6.42799e-08
6.59881e-08
6.67324e-08
6.70301e-08
0
6.44758e-08
6.42491e-08
9.08396e-08
4.29851e-08
6.57934e-08
6.50973e-08
6.46609e-08
6.42937e-08
6.55927e-08
7.09985e-08
6.795e-08
6.43345e-08
6.30842e-08
6.32094e-08
7.37564e-08
1.4175e-07
9.8347e-09
1.3725e-07
6.75582e-08
5.05747e-10
6.65148e-08
6.48836e-08
6.42553e-08
6.42591e-08
6.65026e-08
0
6.49529e-08
9.28048e-08
1.41205e-07
1.46564e-07
1.51267e-07
1.49358e-07
1.11907e-08
4.51742e-08
6.5314e-08
2.73471e-06
2.19969e-07
8.35447e-08
6.24585e-08
5.85305e-08
6.49924e-08
6.58915e-08
6.9304e-08
1.59994e-07
3.24361e-08
1.58201e-08
6.18782e-08
6.60541e-08
6.44304e-08
6.50952e-08
0
6.2643e-08
6.45926e-08
6.38793e-08
6.47175e-08
6.67058e-08
6.35893e-08
6.3517e-08
6.44826e-08
6.43048e-08
6.42935e-08
1.11399e-07
8.91153e-08
6.3702e-08
6.54997e-08
6.73309e-08
6.66732e-08
6.52302e-08
6.83911e-08
6.74107e-08
6.54445e-08
6.53461e-08
6.51353e-08
6.67971e-08
6.69699e-08
6.42991e-08
6.36564e-08
6.39405e-08
6.67029e-08
7.93754e-08
5.29155e-08
6.22279e-08
0
6.33976e-08
6.67529e-08
6.96671e-08
1.1999e-07
8.00187e-09
0
6.46802e-08
6.4406e-08
6.30845e-08
0
0
6.81537e-08
6.65544e-08
3.59197e-08
5.33635e-10
6.44351e-08
6.64537e-08
0
6.52806e-08
0
7.04961e-08
6.98967e-08
6.36356e-08
0
0
1.58027e-07
6.25653e-08
2.96143e-06
2.81092e-07
6.14578e-08
6.37534e-08
6.30094e-08
6.45187e-08
1.58057e-07
6.29721e-08
6.91724e-08
6.95849e-08
6.69599e-08
1.93276e-08
2.97324e-08
1.53075e-07
6.23954e-08
1.4963e-07
1.49902e-07
6.39874e-08
6.35618e-08
6.4851e-08
6.48254e-08
6.43388e-08
6.50282e-08
6.46231e-08
6.46912e-08
1.56908e-07
6.17661e-08
6.27466e-08
6.39181e-08
6.58933e-08
6.90949e-08
1.056e-08
5.78539e-08
1.50749e-07
6.36153e-08
6.3134e-08
6.50228e-08
6.53022e-08
6.4708e-08
6.43836e-08
6.3781e-08
6.46188e-08
1.2643e-07
8.18531e-08
6.70247e-08
0
6.38258e-08
6.47322e-08
6.63582e-08
6.68576e-08
6.35647e-08
6.35427e-08
6.45739e-08
6.39584e-08
0
6.25566e-08
6.3487e-08
1.05012e-07
1.10333e-07
1.02743e-07
0
6.4802e-08
6.52389e-08
2.67935e-08
1.39674e-08
6.38557e-08
6.59736e-08
6.88395e-08
6.90881e-08
6.63528e-08
0
1.50144e-07
6.46109e-08
0
1.08486e-07
4.0759e-06
4.74085e-07
0
0
0
8.60327e-08
1.29862e-07
6.36627e-08
6.60188e-08
6.74763e-08
6.62278e-08
0
1.5235e-07
9.20801e-08
6.31571e-08
3.90542e-08
6.47491e-08
1.52203e-07
6.17034e-08
6.69307e-08
3.35071e-09
5.91811e-08
6.48426e-08
6.50172e-08
6.84549e-08
1.02963e-07
1.02554e-07
6.13813e-08
6.21195e-08
6.52244e-08
7.0312e-08
0
6.64875e-08
6.51712e-08
6.54599e-08
6.55598e-08
6.61713e-08
6.37548e-08
6.31991e-08
6.27574e-08
1.61962e-07
6.41106e-08
6.19845e-08
6.43124e-08
6.726e-08
6.6389e-08
6.54321e-08
6.79611e-08
6.63836e-08
6.33084e-08
6.38345e-08
6.29503e-08
1.51514e-07
1.49247e-07
1.52995e-07
6.03637e-08
6.12875e-08
1.00309e-07
6.3999e-08
6.76539e-08
6.74351e-08
6.7724e-08
2.10593e-08
5.66895e-08
3.23491e-08
6.42664e-08
6.39221e-08
2.78072e-07
6.37738e-08
6.58683e-08
6.52502e-08
0
8.45567e-08
2.27762e-07
6.45519e-08
3.90266e-06
3.40563e-08
1.4413e-07
1.47466e-07
6.32916e-08
0
0
1.50807e-07
6.31288e-08
1.61019e-07
6.28964e-08
6.33004e-08
0
0
0
6.57383e-08
6.55302e-08
6.5423e-08
6.50595e-08
6.7066e-08
0
6.54397e-08
6.5403e-08
6.49923e-08
6.35141e-08
1.59191e-07
6.18206e-08
6.23631e-08
6.29231e-08
6.65855e-08
2.9107e-08
1.09332e-07
1.28836e-08
4.13322e-08
6.47816e-08
6.55675e-08
6.80507e-08
6.68243e-08
6.55713e-08
1.15396e-07
9.63343e-08
6.40626e-08
6.33291e-08
2.2567e-08
3.05729e-08
1.52297e-07
1.54838e-07
6.95504e-08
5.85244e-08
6.45769e-08
2.23179e-08
1.00532e-07
6.50267e-08
6.5283e-08
3.89931e-09
5.67627e-08
6.50335e-08
3.03992e-08
9.03981e-08
6.86027e-08
6.6338e-08
6.16436e-08
6.28251e-08
6.19806e-08
2.7206e-07
6.1277e-08
6.18853e-08
6.51602e-08
6.76739e-08
6.90926e-08
0
1.02445e-07
1.03255e-07
6.38178e-08
6.32306e-08
1.75793e-06
8.60071e-07
1.03373e-07
6.60794e-08
0
1.50356e-07
1.52068e-07
6.48341e-08
6.58193e-08
1.86322e-09
1.49677e-07
6.17518e-08
1.57209e-07
6.08176e-08
6.33747e-08
6.26055e-08
0
0
6.51577e-08
6.56565e-08
6.53806e-08
6.64995e-08
6.42824e-08
6.38431e-08
6.50038e-08
6.50261e-08
6.10854e-08
6.2678e-08
6.19008e-08
6.70905e-08
6.95596e-08
6.94816e-08
1.18747e-08
7.17862e-08
3.35244e-08
1.62848e-07
6.65085e-08
2.83389e-08
8.98958e-08
6.32067e-08
6.54931e-08
6.43571e-08
6.31199e-08
6.48709e-08
2.75093e-08
1.45178e-08
6.57941e-08
1.5463e-07
6.47521e-08
6.45149e-08
6.59336e-08
6.14966e-08
8.2175e-08
1.39797e-07
6.33301e-08
6.28452e-08
6.47452e-08
1.77181e-08
3.48743e-08
1.25568e-07
8.37954e-08
6.36754e-08
6.36565e-08
1.54871e-07
2.72142e-08
9.27125e-08
6.30417e-08
6.44329e-08
6.76816e-08
0
6.60915e-08
6.55653e-08
6.51607e-08
6.4962e-08
6.22304e-08
1.9838e-06
4.83256e-07
1.05272e-07
6.58464e-08
6.30743e-08
6.45604e-08
0
6.45106e-08
6.55111e-08
6.75685e-08
6.74609e-08
0
8.58993e-08
1.30057e-07
6.06024e-08
1.61316e-07
6.45124e-08
1.10704e-07
1.01153e-07
6.16693e-08
6.55425e-08
6.6951e-08
1.10979e-08
9.89316e-08
9.75121e-08
6.42347e-08
6.16828e-08
6.29373e-08
6.20488e-08
6.49344e-08
6.68719e-08
6.67246e-08
6.38358e-08
1.02261e-07
1.1102e-07
1.62662e-09
6.40461e-08
6.60806e-08
6.46552e-08
6.48069e-08
6.53131e-08
6.48825e-08
6.35107e-08
6.43437e-08
1.60503e-07
6.82053e-08
6.80778e-08
0
6.68974e-08
6.49463e-08
6.42599e-08
6.46959e-08
6.67772e-08
1.40889e-08
4.15808e-08
6.46573e-08
6.52929e-08
6.59626e-08
8.46932e-08
1.36186e-07
6.33062e-08
6.38661e-08
6.46605e-08
0
6.54867e-08
6.9538e-08
1.01556e-07
1.17254e-07
7.7856e-09
5.16827e-08
6.43307e-08
6.50997e-08
6.55193e-08
6.59382e-08
6.38214e-08
2.86175e-06
2.0503e-07
4.82026e-08
1.60061e-07
6.123e-08
6.4531e-08
6.50415e-08
7.00432e-08
6.35172e-08
2.42486e-08
2.10957e-08
6.44898e-08
6.50535e-08
6.48975e-08
6.50005e-08
6.47295e-08
1.60069e-07
6.18363e-08
6.3776e-08
6.31418e-08
6.48168e-08
6.59816e-08
6.62061e-08
6.61554e-08
6.66265e-08
6.57034e-08
6.44276e-08
6.38341e-08
6.45718e-08
6.51242e-08
6.51625e-08
1.62428e-07
6.43216e-08
6.48555e-08
6.38711e-08
6.52069e-08
6.6434e-08
3.10904e-08
7.58401e-09
6.7883e-08
6.46419e-08
6.47992e-08
1.19296e-07
8.51031e-08
6.45626e-08
6.47241e-08
6.65455e-08
6.66072e-08
6.42688e-08
6.50488e-08
6.39641e-08
6.32852e-08
6.50499e-08
6.76093e-08
6.56755e-08
6.35531e-08
6.51394e-08
6.54331e-08
8.60994e-08
9.32812e-08
6.01621e-08
1.54981e-08
0
6.51845e-08
6.48863e-08
6.58171e-08
0
6.84421e-08
6.52415e-08
6.39862e-08
6.49196e-08
6.53489e-08
6.563e-08
6.43565e-08
6.34829e-08
3.4864e-06
5.15689e-07
0
6.39717e-08
1.60049e-07
6.61182e-08
6.63895e-08
0
6.41654e-08
6.13905e-08
6.18914e-08
6.41464e-08
6.48705e-08
6.45634e-08
6.58567e-08
4.633e-09
5.54644e-08
1.58101e-07
1.61869e-07
6.31713e-08
6.28282e-08
6.37455e-08
6.36605e-08
6.57252e-08
6.52518e-08
6.50691e-08
6.4621e-08
6.36114e-08
6.44588e-08
6.53225e-08
6.66639e-08
6.64893e-08
9.34516e-08
1.25006e-07
6.33775e-08
6.57819e-08
6.70317e-08
0
6.54648e-08
6.66409e-08
0
1.5134e-07
6.63142e-08
6.20254e-08
6.55165e-08
0
1.25803e-08
1.28163e-07
6.18023e-08
1.01986e-07
1.07049e-07
6.39728e-08
6.94361e-08
6.98113e-08
2.26181e-08
2.37973e-08
7.62731e-08
1.44469e-07
6.25251e-08
6.19358e-08
6.25046e-08
0
6.51123e-08
6.62144e-08
6.63964e-08
2.96902e-08
2.68466e-08
1.34032e-07
6.2382e-08
6.36045e-08
6.61e-08
6.58772e-08
6.4493e-08
6.3793e-08
0
1.66288e-06
2.64688e-07
5.81303e-08
6.86069e-08
2.93219e-08
1.33661e-07
1.053e-07
6.44775e-08
6.26823e-08
6.34874e-08
6.38254e-08
6.45563e-08
6.43498e-08
6.61523e-08
6.64163e-08
6.51277e-08
0
6.79368e-08
6.60415e-08
6.35992e-08
6.41289e-08
6.61242e-08
6.5955e-08
6.51081e-08
6.49576e-08
6.53102e-08
6.49215e-08
6.43598e-08
7.76803e-09
1.44346e-07
6.75155e-08
6.97232e-08
0
6.52845e-08
6.52368e-08
6.54557e-08
6.50409e-08
6.58387e-08
6.55626e-08
1.06768e-07
6.70128e-08
0
0
0
6.45108e-09
1.49217e-07
6.36537e-08
9.01472e-08
1.19256e-07
6.48177e-08
2.70948e-08
4.56953e-08
3.29808e-08
6.93148e-08
6.87046e-08
6.89157e-08
6.567e-08
9.35409e-08
1.19793e-07
6.25733e-08
6.37982e-08
6.33237e-08
6.1839e-08
1.51232e-07
1.52195e-07
6.34543e-08
1.55056e-07
6.49737e-08
6.25061e-08
6.42279e-08
6.86647e-08
6.51009e-08
6.44189e-08
6.425e-08
1.54754e-07
3.51644e-06
1.18082e-06
3.57384e-08
1.55751e-07
6.34709e-08
6.50975e-08
1.13111e-07
9.41715e-08
6.24575e-08
6.43014e-08
0
6.3603e-08
6.39599e-08
6.33171e-08
6.64684e-08
6.66387e-08
6.59715e-08
6.73627e-08
6.6382e-08
6.4694e-08
6.35397e-08
6.50827e-08
8.16813e-08
8.1512e-08
9.0116e-08
8.39205e-08
6.34499e-08
0
6.42808e-08
6.6308e-08
6.37156e-08
1.41171e-08
6.75178e-08
6.50526e-08
6.52659e-08
6.59494e-08
6.5684e-08
6.53587e-08
6.40054e-08
6.38099e-08
1.05406e-07
6.25182e-08
6.26392e-08
1.56454e-07
6.31181e-08
6.4436e-08
6.51358e-08
6.44585e-08
6.50283e-08
6.43059e-08
6.48154e-08
6.52282e-08
1.32169e-09
6.48106e-08
1.64301e-07
6.31274e-08
6.26763e-08
6.35302e-08
6.39374e-08
6.42873e-08
6.4439e-08
6.34328e-08
1.54128e-07
6.24793e-08
6.32953e-08
6.51524e-08
6.34638e-08
6.27498e-08
6.34841e-08
6.7802e-08
6.55739e-08
6.28929e-08
6.34182e-08
0
0
9.36723e-07
5.07835e-07
4.67082e-08
0
0
0
0
7.24169e-08
1.02058e-07
4.94158e-08
3.1978e-08
8.95982e-08
1.22862e-07
0
6.55812e-08
6.62819e-08
6.6148e-08
6.55522e-08
1.53259e-07
6.32516e-08
6.21197e-08
6.43461e-08
6.46911e-08
6.43918e-08
6.64143e-08
6.60108e-08
6.39235e-08
7.83615e-08
1.07113e-07
5.88203e-08
6.50262e-08
6.61816e-08
6.47637e-08
6.49873e-08
6.54016e-08
6.53372e-08
6.54183e-08
6.43265e-08
6.40123e-08
6.51134e-08
6.6339e-08
6.39928e-08
6.52403e-08
1.15164e-07
7.11797e-08
8.73676e-08
6.52469e-08
6.58042e-08
6.46634e-08
6.43354e-08
6.41237e-08
6.73235e-08
0
1.64537e-07
6.62935e-08
6.31676e-08
6.34159e-08
6.27535e-08
6.29226e-08
6.37706e-08
6.37208e-08
6.4676e-08
6.5124e-08
6.48431e-08
6.47734e-08
6.65977e-08
6.3946e-08
6.22521e-08
6.23611e-08
6.41317e-08
6.73312e-08
7.83496e-08
4.74943e-08
1.21325e-07
8.32603e-08
7.50948e-06
3.51813e-07
7.64799e-08
1.40627e-07
6.36202e-08
6.4831e-08
6.43654e-08
6.46255e-08
6.26913e-08
6.33637e-08
6.32492e-08
6.09423e-08
6.32306e-08
6.24398e-08
6.96622e-08
1.82485e-08
3.35013e-08
6.79255e-08
6.12928e-08
1.52201e-07
9.75265e-08
6.22602e-08
3.21013e-08
6.54793e-08
1.66962e-07
6.46304e-08
6.41667e-08
0
6.34255e-08
6.49419e-08
6.44134e-08
6.33276e-08
6.39767e-08
6.73379e-08
2.931e-08
9.65645e-08
6.29864e-08
6.24723e-08
6.25451e-08
0
0
9.96532e-08
1.24103e-07
6.43412e-08
6.20727e-08
6.29555e-08
6.89564e-08
3.00062e-08
1.27574e-08
6.52881e-08
6.56115e-08
6.67043e-08
6.27568e-08
6.59576e-08
1.64383e-07
6.29537e-08
6.33905e-08
6.38168e-08
6.4416e-08
6.47823e-08
6.48881e-08
6.48053e-08
6.56133e-08
6.43652e-08
6.47901e-08
6.63011e-08
6.5102e-08
6.17527e-08
6.20636e-08
6.58074e-08
6.55367e-08
6.16132e-08
6.54072e-08
6.51859e-08
0
4.79083e-06
1.94516e-07
6.58362e-08
1.59448e-07
6.07041e-08
6.2198e-08
1.51795e-07
1.51392e-07
6.47733e-08
6.33568e-08
6.19413e-08
6.4017e-08
2.7971e-08
1.17074e-08
6.52495e-08
6.81628e-08
6.68418e-08
2.41734e-08
4.18419e-08
4.92195e-08
8.24537e-08
4.58746e-08
6.53223e-08
2.69161e-08
1.74038e-08
6.64046e-08
6.59408e-08
6.48069e-08
6.40099e-08
9.14821e-08
1.25512e-07
6.39991e-08
6.30592e-08
6.76967e-08
8.93752e-08
7.39766e-08
1.21388e-07
6.26308e-08
6.11239e-08
6.26664e-08
6.42042e-08
1.6005e-07
6.70207e-08
1.51279e-08
3.63824e-08
6.48002e-08
6.36394e-08
6.9535e-08
0
6.31391e-08
6.45811e-08
6.63023e-08
7.37553e-08
1.5505e-07
6.43959e-08
0
6.41869e-08
6.43226e-08
6.50079e-08
6.59859e-08
6.61357e-08
6.49036e-08
6.41424e-08
6.31985e-08
6.41677e-08
6.65087e-08
6.51755e-08
6.32766e-08
6.7222e-08
6.33821e-08
6.47175e-08
6.39571e-08
6.37398e-08
6.58681e-08
6.27523e-08
1.32597e-06
1.28416e-07
5.98304e-08
6.48815e-08
6.06357e-08
6.15804e-08
0
0
6.5189e-08
6.35501e-08
6.48858e-08
6.35535e-08
0
1.53351e-07
1.5764e-07
6.33549e-08
6.96558e-08
6.85873e-08
9.93867e-08
1.06467e-07
3.0037e-09
6.13269e-08
6.45113e-08
6.46927e-08
6.63876e-08
6.64851e-08
6.55247e-08
1.36665e-08
1.27269e-07
6.27944e-08
6.34155e-08
6.3835e-08
6.46753e-08
6.72004e-08
1.04822e-07
1.11406e-07
6.23669e-08
6.32048e-08
6.32172e-08
6.38905e-08
6.46255e-08
6.38638e-08
6.65593e-08
6.63458e-08
6.32713e-08
6.35033e-08
6.47399e-08
0
1.58687e-07
6.28206e-08
6.53301e-08
6.63817e-08
6.74562e-08
1.64885e-07
6.41944e-08
6.39486e-08
6.35816e-08
6.50744e-08
6.45544e-08
6.6019e-08
6.46029e-08
6.35286e-08
6.34e-08
6.45079e-08
6.48973e-08
6.6072e-08
6.41584e-08
6.31643e-08
6.4011e-08
6.52902e-08
6.75922e-08
6.41673e-08
6.2274e-08
6.36558e-08
6.55347e-08
2.9188e-06
3.5835e-07
5.79327e-08
6.5675e-08
6.10408e-08
6.17769e-08
6.23167e-08
1.63229e-07
6.2593e-08
6.35419e-08
6.37127e-08
6.21503e-08
1.55814e-07
0
6.40636e-08
1.57416e-07
6.33722e-08
6.37402e-08
6.54207e-08
0
6.3289e-08
6.3457e-08
6.3396e-08
6.41526e-08
6.55371e-08
6.66388e-08
6.68936e-08
6.53814e-08
6.53789e-08
6.47123e-08
6.46712e-08
6.5016e-08
6.87504e-08
7.13014e-08
0
6.61843e-08
6.43294e-08
6.38321e-08
6.34328e-08
8.53762e-08
1.31966e-07
6.40241e-08
6.38576e-08
6.41571e-08
6.44935e-08
6.42966e-08
6.58777e-08
0
6.38662e-08
6.82393e-08
1.17597e-07
9.4439e-08
6.80947e-08
0
0
1.58069e-07
6.29095e-08
0
6.4018e-08
6.43414e-08
6.44539e-08
6.3519e-08
6.3534e-08
6.73557e-08
6.65521e-08
6.53652e-08
6.4405e-08
6.45156e-08
6.4887e-08
6.51939e-08
6.57307e-08
6.44579e-08
6.31062e-08
6.36089e-08
6.41923e-08
3.42329e-06
2.45787e-07
6.62612e-08
0
6.528e-08
6.28832e-08
6.46033e-08
6.61348e-08
1.6127e-07
6.63367e-08
0
6.19141e-08
6.29018e-08
7.39053e-08
5.68602e-08
6.56329e-08
6.65705e-08
6.8589e-08
0
1.63474e-07
6.28799e-08
6.07462e-08
6.2367e-08
1.57571e-07
6.75062e-08
6.68979e-08
6.61616e-08
2.85354e-08
1.33881e-08
6.34828e-08
6.32419e-08
6.45019e-08
6.50918e-08
7.00464e-08
6.72214e-08
2.51408e-08
5.50235e-08
6.94127e-08
5.46735e-08
1.19216e-07
6.37033e-08
6.22862e-08
6.35239e-08
6.30282e-08
6.45367e-08
6.41582e-08
6.40104e-08
1.53599e-07
1.61924e-07
6.63913e-08
6.73373e-08
6.89715e-08
0
6.52729e-08
1.63631e-07
6.716e-08
0
1.48621e-07
2.4453e-08
1.90897e-08
6.49689e-08
6.617e-08
0
6.5267e-08
6.56054e-08
6.55086e-08
1.25215e-07
1.29081e-07
6.93579e-08
5.1803e-08
3.94568e-08
6.16284e-08
6.40219e-08
8.43854e-08
8.87118e-08
6.33949e-06