/*--------------------------------*- C++ -*----------------------------------*\
  =========                 |
  \\      /  F ield         | OpenFOAM: The Open Source CFD Toolbox
   \\    /   O peration     | Website:  https://openfoam.org
    \\  /    A nd           | Version:  12
     \\/     M anipulation  |
\*---------------------------------------------------------------------------*/
FoamFile
{
    format      ascii;
    class       volVectorField::Internal;
    location    "0.3";
    object      cloud:UTrans;
}
// * * * * * * * * * * * * * * * * * * * * * * * * * * * * * * * * * * * * * //

dimensions      [1 1 -1 0 0 0 0];

value           nonuniform List<vector> 
3750
(
(1.17475e-09 6.89355e-08 0)
(1.95183e-09 -6.19242e-09 0)
(2.57418e-10 -9.85e-10 0)
(5.83002e-11 -2.27456e-09 0)
(5.71045e-12 -2.34544e-09 0)
(0 0 0)
(1.94189e-11 -2.14266e-09 0)
(0 0 0)
(1.6742e-11 -5.74344e-09 0)
(5.23413e-11 -2.14294e-09 0)
(4.30101e-11 -2.06953e-09 0)
(-3.95271e-11 -2.04892e-09 0)
(1.81451e-10 -2.19603e-09 0)
(8.3015e-11 -2.21986e-09 0)
(3.57516e-12 -2.21602e-09 0)
(2.47223e-12 -2.52127e-09 0)
(2.5979e-11 -2.37468e-09 0)
(-8.67303e-11 -2.30151e-09 0)
(-2.62857e-11 -5.08384e-09 0)
(0 0 0)
(2.38762e-11 -2.35789e-09 0)
(3.02996e-11 -2.17914e-09 0)
(0 0 0)
(1.77612e-11 -2.08873e-09 0)
(1.33479e-10 -2.4567e-09 0)
(-3.41273e-11 -2.42532e-09 0)
(-1.86512e-10 -2.20308e-09 0)
(-4.67341e-10 -5.75966e-09 0)
(3.13756e-11 -2.32741e-09 0)
(-3.95828e-12 -2.112e-09 0)
(-5.05731e-11 -1.96334e-09 0)
(0 0 0)
(-1.79024e-10 -2.05936e-09 0)
(-1.90011e-10 -2.25707e-09 0)
(7.5768e-11 -4.83877e-09 0)
(2.58452e-11 -2.0427e-09 0)
(-4.90171e-11 -2.06931e-09 0)
(-1.05948e-10 -2.22908e-09 0)
(0 0 0)
(1.26519e-11 -3.10277e-09 0)
(0 0 0)
(-6.37297e-11 -2.31609e-09 0)
(-1.37013e-10 -2.64811e-09 0)
(-9.98759e-11 -4.92156e-09 0)
(0 0 0)
(5.18038e-11 -2.21832e-09 0)
(-1.3046e-11 -2.25269e-09 0)
(2.34962e-10 -5.02627e-09 0)
(-7.55263e-11 -4.68737e-09 0)
(1.35802e-10 -1.75132e-09 0)
(6.33378e-11 -2.30979e-09 0)
(0 0 0)
(3.34193e-11 -2.40232e-09 0)
(0 0 0)
(1.14922e-10 -2.25187e-09 0)
(1.30711e-10 -2.32554e-09 0)
(1.30704e-10 -2.34429e-09 0)
(8.10076e-12 -2.29543e-09 0)
(-9.75822e-11 -2.29657e-09 0)
(-1.29825e-11 -4.94129e-09 0)
(-1.01309e-11 -4.48532e-09 0)
(9.75287e-11 -1.73138e-09 0)
(-5.12928e-11 -2.27546e-09 0)
(-7.99307e-11 -2.75301e-09 0)
(1.46293e-10 -2.60083e-09 0)
(1.99454e-10 -2.22196e-09 0)
(7.13759e-11 -2.2683e-09 0)
(2.82764e-11 -2.06433e-09 0)
(-3.18588e-12 -2.10996e-09 0)
(7.96693e-11 -2.40426e-09 0)
(-2.00609e-11 -2.34458e-09 0)
(1.19616e-11 -2.25068e-09 0)
(1.03449e-10 -2.30074e-09 0)
(3.89984e-11 -2.03113e-09 0)
(0 0 0)
(1.62142e-08 7.23168e-08 0)
(1.37031e-09 -1.85701e-09 0)
(-4.31427e-14 -9.96284e-11 0)
(-2.61113e-12 -2.16002e-09 0)
(-9.26138e-12 -8.18222e-09 0)
(6.9798e-12 -2.14761e-09 0)
(0 0 0)
(0 0 0)
(-1.37737e-10 -2.04837e-09 0)
(9.63418e-11 -2.27435e-09 0)
(4.1549e-11 -5.9856e-09 0)
(2.4301e-10 -2.0569e-09 0)
(-3.39749e-11 -2.18221e-09 0)
(1.37117e-11 -2.08454e-09 0)
(0 0 0)
(-2.02338e-10 -2.20287e-09 0)
(0 0 0)
(-2.95972e-11 -2.09596e-09 0)
(-4.44273e-11 -2.33146e-09 0)
(1.05912e-10 -2.40678e-09 0)
(4.64947e-11 -2.12283e-09 0)
(3.37841e-10 -7.65576e-09 0)
(5.81076e-11 -3.71086e-09 0)
(9.1013e-12 -3.98738e-10 0)
(0 0 0)
(4.79071e-11 -2.33677e-09 0)
(0 0 0)
(-3.49661e-10 -2.39722e-09 0)
(4.49872e-11 -2.32069e-09 0)
(-1.56523e-10 -4.78908e-09 0)
(-1.99954e-10 -4.97694e-09 0)
(3.18489e-11 -2.00086e-09 0)
(5.70401e-11 -2.3685e-09 0)
(0 0 0)
(1.1909e-10 -2.33211e-09 0)
(-2.85555e-11 -2.42248e-09 0)
(0 0 0)
(-2.11199e-10 -4.58099e-09 0)
(-2.91216e-10 -4.6619e-09 0)
(2.49536e-11 -2.23307e-09 0)
(0 0 0)
(-2.1254e-11 -4.26416e-10 0)
(-3.4325e-10 -6.14645e-09 0)
(4.39231e-12 -4.19528e-10 0)
(0 0 0)
(0 0 0)
(0 0 0)
(-3.31141e-11 -2.09664e-09 0)
(-1.01039e-11 -3.82916e-09 0)
(-1.1284e-10 -2.0085e-09 0)
(-1.148e-11 -5.28942e-09 0)
(-2.33678e-10 -4.69787e-09 0)
(1.68075e-10 -2.02385e-09 0)
(8.37114e-11 -2.124e-09 0)
(1.29077e-10 -2.04488e-09 0)
(1.64392e-10 -2.14449e-09 0)
(1.75374e-10 -2.39011e-09 0)
(0 0 0)
(6.66848e-11 -1.87552e-09 0)
(1.62719e-10 -1.94485e-09 0)
(-3.31001e-10 -1.96017e-09 0)
(9.66843e-12 -2.25135e-09 0)
(-3.19595e-11 -7.80029e-10 0)
(0 0 0)
(-1.18125e-10 -7.8173e-09 0)
(1.86139e-10 -2.91334e-09 0)
(7.49787e-11 -2.0503e-09 0)
(0 0 0)
(4.40649e-11 -2.29532e-09 0)
(0 0 0)
(-2.65228e-11 -2.25427e-09 0)
(2.86053e-11 -2.20501e-09 0)
(-1.11432e-10 -4.35201e-09 0)
(-1.55675e-10 -1.93111e-09 0)
(-9.94353e-11 -2.20799e-09 0)
(1.29989e-08 8.68199e-08 0)
(2.36689e-09 -3.36782e-09 0)
(6.67901e-10 -5.08063e-09 0)
(6.02926e-11 -2.15137e-09 0)
(9.3924e-11 -2.24659e-09 0)
(4.68068e-11 -2.38548e-09 0)
(-4.42651e-11 -2.17089e-09 0)
(4.00151e-12 -2.12382e-09 0)
(0 0 0)
(-2.09916e-10 -2.21576e-09 0)
(-7.15602e-11 -2.30059e-09 0)
(1.41184e-10 -2.47615e-09 0)
(1.94569e-10 -1.93075e-09 0)
(-1.05075e-10 -1.89636e-09 0)
(5.27627e-12 -2.35017e-09 0)
(8.33502e-11 -4.84764e-09 0)
(5.34353e-11 -2.04112e-09 0)
(3.45974e-11 -8.08744e-09 0)
(-9.10546e-11 -1.95525e-09 0)
(-5.45083e-11 -2.05759e-09 0)
(-1.10514e-10 -1.94342e-09 0)
(1.45134e-10 -1.89273e-09 0)
(1.2694e-10 -2.01909e-09 0)
(1.54934e-10 -1.9777e-09 0)
(1.54439e-10 -3.28675e-09 0)
(2.66881e-11 -4.55109e-09 0)
(-8.26248e-11 -2.58733e-09 0)
(-5.49e-11 -2.21761e-09 0)
(0 0 0)
(1.42239e-11 -4.53661e-09 0)
(-8.97637e-11 -1.9727e-09 0)
(-1.13062e-10 -3.83364e-09 0)
(1.39426e-10 -2.81531e-09 0)
(8.48949e-11 -1.35449e-09 0)
(2.196e-10 -2.08132e-09 0)
(1.26746e-10 -4.38259e-09 0)
(2.72148e-13 -4.877e-11 0)
(-1.03188e-10 -2.33007e-09 0)
(6.27689e-11 -2.10412e-09 0)
(-3.90444e-11 -5.02684e-09 0)
(2.14632e-10 -2.21703e-09 0)
(1.28752e-10 -1.71113e-09 0)
(-7.92324e-11 -2.08095e-09 0)
(-1.46174e-10 -3.59089e-09 0)
(1.77435e-10 -2.10292e-09 0)
(1.55237e-10 -5.76271e-09 0)
(2.08123e-11 -1.98511e-09 0)
(1.07087e-11 -5.82588e-10 0)
(5.51524e-11 -3.61113e-09 0)
(0 0 0)
(0 0 0)
(1.78238e-11 -2.18498e-09 0)
(1.09344e-11 -1.95908e-09 0)
(9.58681e-13 -2.11316e-09 0)
(9.16894e-11 -2.06528e-09 0)
(1.69739e-10 -2.21624e-09 0)
(5.5332e-11 -2.44232e-09 0)
(0 0 0)
(2.00751e-10 -2.36684e-09 0)
(1.0545e-10 -3.32442e-09 0)
(-5.73024e-11 -1.08381e-09 0)
(-5.98182e-11 -3.4252e-09 0)
(-2.90927e-10 -4.0047e-09 0)
(-1.91622e-10 -2.40793e-09 0)
(-3.90255e-11 -6.21085e-10 0)
(2.76713e-10 -3.02178e-09 0)
(5.33291e-11 -8.96386e-10 0)
(1.09354e-10 -1.86576e-09 0)
(5.00321e-11 -2.06516e-09 0)
(7.50931e-11 -2.17103e-09 0)
(6.40396e-11 -2.32555e-09 0)
(-9.37386e-11 -2.55806e-09 0)
(3.30851e-11 -2.28111e-09 0)
(4.37338e-11 -1.93434e-09 0)
(-6.08108e-11 -2.3857e-09 0)
(5.44771e-09 6.96628e-08 0)
(5.99711e-10 -2.53719e-09 0)
(2.07722e-10 -2.32287e-09 0)
(1.80862e-10 -3.36437e-09 0)
(2.06347e-10 -4.48746e-09 0)
(6.83124e-11 -1.78846e-09 0)
(1.56187e-10 -4.07372e-09 0)
(6.03812e-11 -2.42643e-09 0)
(8.80411e-11 -2.22525e-09 0)
(1.08318e-10 -2.25023e-09 0)
(1.74405e-10 -2.33332e-09 0)
(1.46924e-10 -2.14794e-09 0)
(-7.18077e-11 -2.11951e-09 0)
(0 0 0)
(0 0 0)
(-2.98747e-11 -5.53103e-09 0)
(-9.77638e-11 -2.24401e-09 0)
(-1.07782e-10 -2.36021e-09 0)
(-3.95838e-11 -2.24462e-09 0)
(-4.43986e-11 -2.20646e-09 0)
(-8.24977e-11 -2.1959e-09 0)
(2.70945e-11 -2.11569e-09 0)
(5.61019e-11 -2.20005e-09 0)
(1.58893e-10 -5.52728e-09 0)
(2.21423e-11 -2.09636e-09 0)
(-1.66166e-11 -2.18161e-09 0)
(-1.13133e-11 -2.17788e-09 0)
(1.63127e-11 -1.97852e-09 0)
(-1.17919e-10 -4.59004e-09 0)
(-1.17772e-10 -2.58363e-09 0)
(2.11531e-13 -1.60581e-09 0)
(1.09901e-10 -2.10826e-09 0)
(1.36421e-10 -2.24299e-09 0)
(2.60617e-10 -2.094e-09 0)
(4.05868e-10 -5.10114e-09 0)
(2.299e-10 -2.17425e-09 0)
(1.78427e-11 -2.34536e-09 0)
(0 0 0)
(-4.19109e-12 -2.1074e-09 0)
(5.77906e-11 -4.05845e-09 0)
(1.79584e-10 -3.64088e-09 0)
(1.88406e-10 -2.17335e-09 0)
(-5.51162e-12 -2.87984e-10 0)
(-2.71389e-11 -1.44897e-09 0)
(-1.09896e-10 -3.5085e-09 0)
(-5.54133e-11 -2.17942e-09 0)
(1.74137e-10 -2.1293e-09 0)
(2.54157e-10 -4.66227e-09 0)
(-6.03509e-12 -1.11221e-10 0)
(-2.67233e-10 -5.40037e-09 0)
(5.13654e-11 -2.45761e-09 0)
(4.85562e-11 -2.0684e-09 0)
(7.17962e-11 -2.11736e-09 0)
(-3.40762e-11 -2.12825e-09 0)
(1.04029e-10 -2.92584e-09 0)
(1.15303e-10 -3.24317e-09 0)
(9.20119e-12 -2.66767e-10 0)
(3.81977e-10 -2.49734e-09 0)
(4.94492e-10 -2.21627e-09 0)
(-4.47812e-11 -1.97224e-09 0)
(-1.36701e-10 -3.00558e-09 0)
(-2.2138e-10 -3.32197e-09 0)
(-2.24419e-10 -2.18685e-09 0)
(-1.08528e-10 -2.12497e-09 0)
(-1.87959e-10 -2.1892e-09 0)
(1.12804e-11 -2.23247e-09 0)
(7.42715e-11 -2.09073e-09 0)
(7.8507e-11 -2.21913e-09 0)
(8.86433e-11 -2.28648e-09 0)
(8.75306e-11 -2.26302e-09 0)
(-5.38849e-11 -2.47455e-09 0)
(-2.2465e-10 -2.14137e-09 0)
(8.46003e-11 -2.91553e-09 0)
(1.98984e-11 -1.10848e-09 0)
(-2.89239e-11 -2.05161e-09 0)
(9.06027e-10 7.58777e-08 0)
(1.65203e-10 8.59078e-11 0)
(3.18594e-10 -2.4197e-09 0)
(2.69754e-10 -2.5808e-09 0)
(-1.57416e-11 -2.29578e-09 0)
(1.38004e-10 -2.0179e-09 0)
(5.57502e-11 -5.09994e-09 0)
(2.89251e-11 -6.70304e-10 0)
(3.69367e-11 -8.17901e-10 0)
(8.01303e-11 -2.0473e-09 0)
(1.03414e-10 -2.24382e-09 0)
(1.93239e-10 -2.3865e-09 0)
(2.36517e-11 -5.18639e-10 0)
(1.84769e-10 -3.58225e-09 0)
(1.4872e-10 -1.95074e-09 0)
(0 0 0)
(0 0 0)
(1.11552e-10 -2.22898e-09 0)
(4.72187e-11 -2.3639e-09 0)
(-2.7675e-11 -2.25403e-09 0)
(2.73527e-11 -2.22534e-09 0)
(2.28783e-12 -4.84562e-10 0)
(9.82202e-12 -1.4199e-09 0)
(-7.09578e-11 -2.37206e-09 0)
(-4.54236e-10 -6.26386e-09 0)
(-6.21324e-11 -2.02814e-09 0)
(-8.76499e-11 -2.04521e-09 0)
(0 0 0)
(0 0 0)
(-4.11829e-11 -2.16121e-09 0)
(4.05157e-11 -2.10006e-09 0)
(-2.85771e-11 -2.15723e-09 0)
(-3.94898e-11 -2.15411e-09 0)
(7.2751e-11 -2.2659e-09 0)
(1.35964e-10 -2.17499e-09 0)
(3.91512e-10 -2.20012e-09 0)
(1.19538e-10 -2.39985e-09 0)
(-3.01137e-12 -9.15058e-11 0)
(-5.54911e-11 -4.93374e-09 0)
(1.69173e-10 -2.29843e-09 0)
(2.08779e-10 -2.29886e-09 0)
(3.36076e-11 -2.46947e-09 0)
(0 0 0)
(1.65262e-10 -2.1672e-09 0)
(-3.81337e-11 -3.00529e-09 0)
(9.33763e-11 -2.13508e-09 0)
(4.52394e-10 -4.80307e-09 0)
(1.34091e-10 -2.19693e-09 0)
(-1.37826e-10 -1.98066e-09 0)
(-3.06958e-10 -2.21661e-09 0)
(6.71417e-12 -2.11644e-09 0)
(-2.30593e-11 -2.2375e-09 0)
(6.74822e-11 -5.54617e-09 0)
(6.1993e-11 -2.13454e-09 0)
(2.74201e-11 -2.05569e-09 0)
(6.99319e-11 -2.1603e-09 0)
(5.99606e-11 -2.17268e-09 0)
(5.39702e-11 -9.6816e-10 0)
(8.22165e-12 -3.77743e-09 0)
(1.33918e-10 -2.09112e-09 0)
(0 0 0)
(0 0 0)
(-1.48377e-10 -2.03275e-09 0)
(-1.31835e-10 -2.24627e-09 0)
(-7.95891e-11 -2.2691e-09 0)
(1.67953e-11 -2.23055e-09 0)
(3.32515e-11 -2.1865e-09 0)
(-1.33282e-11 -2.03323e-09 0)
(3.02935e-11 -2.09975e-09 0)
(-1.59161e-10 -5.57748e-09 0)
(-1.37234e-10 -2.28887e-09 0)
(5.22633e-11 -1.98186e-09 0)
(3.75146e-11 -2.44675e-09 0)
(1.09409e-11 -1.0116e-09 0)
(3.63701e-12 -4.10931e-10 0)
(7.61916e-09 7.91971e-08 0)
(-8.71773e-10 -1.85395e-09 0)
(1.25662e-11 -1.90054e-09 0)
(1.00772e-10 -2.82918e-09 0)
(0 0 0)
(9.3034e-11 -2.16975e-09 0)
(1.91479e-10 -2.26979e-09 0)
(3.2841e-10 -4.93629e-09 0)
(1.54664e-10 -2.14545e-09 0)
(2.02252e-10 -2.27909e-09 0)
(0 0 0)
(0 0 0)
(1.21256e-10 -2.29715e-09 0)
(-1.1593e-10 -2.203e-09 0)
(-1.5821e-10 -5.1248e-09 0)
(2.1927e-12 -1.95023e-09 0)
(2.39448e-10 -5.74754e-09 0)
(1.6712e-10 -2.75124e-09 0)
(2.86287e-10 -2.44179e-09 0)
(8.77587e-11 -2.25764e-09 0)
(-1.22333e-11 -6.07635e-10 0)
(-2.14673e-11 -9.80922e-10 0)
(6.48925e-14 -2.18816e-09 0)
(-8.37922e-11 -2.76346e-09 0)
(8.21092e-12 -5.9567e-10 0)
(7.15847e-11 -2.13388e-09 0)
(9.15447e-11 -1.67944e-09 0)
(2.24054e-11 -5.37689e-09 0)
(-4.47125e-12 -2.00208e-09 0)
(3.51654e-11 -2.08477e-09 0)
(-2.5336e-12 -2.20632e-09 0)
(-8.32396e-11 -2.40372e-09 0)
(-1.13614e-10 -2.36851e-09 0)
(4.27519e-12 -2.23124e-09 0)
(2.54884e-11 -2.19218e-09 0)
(5.6208e-11 -3.17212e-09 0)
(2.66972e-10 -4.58624e-09 0)
(3.50561e-10 -4.67404e-09 0)
(7.37692e-11 -4.69401e-09 0)
(1.501e-10 -2.4061e-09 0)
(3.06282e-11 -8.9632e-10 0)
(2.73657e-11 -8.6955e-10 0)
(2.83164e-11 -2.43139e-09 0)
(1.52988e-10 -2.10661e-09 0)
(1.87508e-10 -2.05221e-09 0)
(1.3835e-10 -2.18782e-09 0)
(1.29525e-10 -2.21074e-09 0)
(7.40884e-11 -2.19497e-09 0)
(9.88717e-11 -2.23344e-09 0)
(-1.34745e-10 -2.13464e-09 0)
(-1.52309e-10 -5.25006e-09 0)
(-6.26409e-11 -2.23857e-09 0)
(-5.65029e-11 -2.18258e-09 0)
(2.95446e-11 -2.2008e-09 0)
(1.88944e-13 -2.14146e-09 0)
(6.10042e-11 -2.68053e-09 0)
(-5.29002e-11 -3.83037e-09 0)
(-1.51742e-10 -3.17759e-09 0)
(-3.45052e-11 -2.53966e-09 0)
(0 0 0)
(1.94108e-10 -4.38554e-09 0)
(5.66472e-11 -4.24472e-09 0)
(-8.65542e-11 -2.11461e-09 0)
(-1.00779e-10 -2.31565e-09 0)
(-1.5929e-10 -2.23488e-09 0)
(-3.41419e-11 -2.16741e-09 0)
(-7.4774e-11 -1.91876e-09 0)
(-6.62158e-11 -2.18181e-09 0)
(-1.19804e-10 -2.84978e-09 0)
(-1.64524e-10 -4.57991e-09 0)
(-1.64343e-11 -2.06457e-09 0)
(7.29688e-11 -1.84114e-09 0)
(4.05512e-12 -1.50362e-10 0)
(6.83757e-11 -2.09626e-09 0)
(5.76492e-11 -2.14765e-09 0)
(6.32302e-09 5.38245e-08 0)
(-2.06787e-10 -2.98248e-09 0)
(0 0 0)
(0 0 0)
(1.19245e-10 -2.21349e-09 0)
(9.85968e-11 -5.49565e-09 0)
(0 0 0)
(0 0 0)
(3.85779e-10 -5.07883e-09 0)
(0 0 0)
(1.22601e-10 -2.37624e-09 0)
(6.90208e-11 -2.36916e-09 0)
(-1.22211e-10 -2.14278e-09 0)
(-2.09914e-10 -2.31056e-09 0)
(-2.20021e-10 -1.9978e-09 0)
(-4.05596e-10 -2.12824e-09 0)
(-2.86415e-10 -2.58467e-09 0)
(-9.73887e-11 -2.58995e-09 0)
(2.8181e-12 -2.31123e-09 0)
(-1.15397e-10 -2.16944e-09 0)
(-6.26168e-11 -2.08457e-09 0)
(-8.13246e-11 -2.06314e-09 0)
(-4.2271e-11 -2.31357e-09 0)
(-1.65529e-10 -2.88485e-09 0)
(4.68195e-11 -4.0043e-09 0)
(2.3535e-11 -1.64549e-09 0)
(6.1641e-12 -9.48328e-10 0)
(-1.10506e-10 -2.32618e-09 0)
(1.09879e-11 -2.26887e-09 0)
(5.38606e-11 -2.10421e-09 0)
(-7.25244e-11 -2.45089e-09 0)
(-3.64165e-11 -2.3668e-09 0)
(4.55824e-11 -2.22322e-09 0)
(6.52724e-11 -2.23866e-09 0)
(-1.18152e-10 -1.94587e-09 0)
(0 0 0)
(0 0 0)
(0 0 0)
(0 0 0)
(1.43562e-10 -2.2402e-09 0)
(1.32507e-10 -2.63679e-09 0)
(9.26607e-12 -2.33041e-10 0)
(1.63973e-10 -3.67348e-09 0)
(7.54882e-11 -1.77685e-09 0)
(3.94946e-11 -8.78489e-10 0)
(4.75765e-11 -2.2417e-09 0)
(0 0 0)
(4.70031e-11 -1.13581e-09 0)
(-1.40178e-10 -3.02185e-09 0)
(-6.63333e-11 -2.079e-09 0)
(0 0 0)
(-2.46377e-10 -2.24224e-09 0)
(-5.26217e-11 -2.24985e-09 0)
(-6.38252e-11 -2.11156e-09 0)
(-4.93769e-11 -2.12079e-09 0)
(-4.54429e-11 -2.4091e-09 0)
(-1.40751e-11 -2.37876e-09 0)
(-8.2893e-11 -2.52056e-09 0)
(-1.42615e-10 -2.54888e-09 0)
(8.04176e-11 -2.23491e-09 0)
(2.00888e-10 -2.10106e-09 0)
(1.06663e-10 -1.91543e-09 0)
(1.19869e-12 -4.76915e-10 0)
(5.3457e-12 -1.40031e-09 0)
(-1.2152e-10 -2.34268e-09 0)
(-6.37344e-11 -2.11261e-09 0)
(-1.45151e-10 -5.21158e-09 0)
(-5.49795e-12 -2.09226e-09 0)
(-5.37425e-11 -2.18277e-09 0)
(-8.41081e-11 -2.25613e-09 0)
(-1.01621e-10 -2.31172e-09 0)
(-1.17105e-10 -2.91642e-09 0)
(-9.88631e-11 -3.04154e-09 0)
(-5.09948e-11 -1.08265e-09 0)
(9.48185e-11 -2.39126e-09 0)
(4.46596e-09 7.04946e-08 0)
(2.68868e-10 -8.53977e-10 0)
(3.97641e-10 -4.36899e-09 0)
(1.28795e-10 -2.99751e-09 0)
(0 0 0)
(0 0 0)
(1.86526e-10 -2.24774e-09 0)
(1.15566e-09 -7.89332e-09 0)
(-1.31812e-12 -1.83136e-09 0)
(1.58166e-10 -1.97295e-09 0)
(4.6609e-11 -4.60037e-09 0)
(-1.06424e-10 -5.05632e-09 0)
(-9.60351e-11 -1.97936e-09 0)
(-5.42765e-11 -4.54639e-09 0)
(-1.05054e-11 -4.74937e-10 0)
(-4.69573e-11 -1.47978e-09 0)
(-2.0086e-10 -2.30752e-09 0)
(-2.80506e-10 -2.66239e-09 0)
(2.03042e-11 -2.02852e-09 0)
(-1.82922e-10 -2.25344e-09 0)
(-7.66688e-11 -2.24057e-09 0)
(2.01311e-10 -4.87438e-09 0)
(-1.46502e-10 -2.96521e-09 0)
(0 0 0)
(-1.92434e-11 -2.17365e-09 0)
(3.92314e-11 -8.0449e-10 0)
(4.495e-11 -8.91712e-10 0)
(-3.54359e-11 -2.33692e-09 0)
(3.77815e-11 -2.1586e-09 0)
(-1.48894e-11 -3.11526e-09 0)
(-1.73159e-11 -3.4464e-09 0)
(3.84588e-11 -2.3986e-09 0)
(5.93683e-11 -2.33833e-09 0)
(4.10888e-11 -2.29569e-09 0)
(0 0 0)
(-1.31441e-10 -2.18792e-09 0)
(1.07868e-10 -5.12577e-09 0)
(2.94269e-10 -2.13548e-09 0)
(1.51968e-10 -5.06097e-09 0)
(8.48583e-11 -2.05946e-09 0)
(2.7186e-11 -2.24265e-09 0)
(9.35193e-11 -2.40279e-09 0)
(9.02543e-11 -2.31985e-09 0)
(1.21789e-10 -2.23936e-09 0)
(0 0 0)
(1.30898e-11 -9.72999e-10 0)
(5.5777e-12 -1.54001e-09 0)
(4.87102e-11 -3.87551e-09 0)
(3.28753e-11 -4.72103e-09 0)
(-1.32139e-10 -1.97051e-09 0)
(-5.86235e-11 -2.16529e-09 0)
(-8.08696e-11 -2.09884e-09 0)
(-5.53006e-11 -2.18463e-09 0)
(-3.5971e-11 -2.46069e-09 0)
(5.4151e-12 -2.53758e-09 0)
(-9.05307e-12 -1.12443e-09 0)
(-1.27885e-11 -3.32408e-09 0)
(-2.75145e-11 -2.64605e-09 0)
(3.20817e-11 -2.21504e-09 0)
(3.09688e-11 -1.9423e-09 0)
(8.82278e-11 -2.03976e-09 0)
(-9.69144e-11 -2.20574e-09 0)
(-6.35206e-12 -4.94862e-10 0)
(-1.47315e-10 -4.52684e-09 0)
(-4.13353e-11 -2.10871e-09 0)
(-6.35668e-11 -1.86109e-09 0)
(-6.32968e-11 -2.13569e-09 0)
(-8.83295e-12 -2.3179e-09 0)
(4.18669e-11 -2.08137e-09 0)
(-7.2421e-12 -2.21345e-09 0)
(-8.13491e-11 -2.26524e-09 0)
(-4.87127e-11 -2.23674e-09 0)
(-7.77469e-11 -2.47206e-09 0)
(-2.05392e-10 -2.27749e-09 0)
(-1.33339e-10 -2.12874e-09 0)
(3.1904e-09 7.56634e-08 0)
(-8.18718e-11 -2.50869e-09 0)
(1.13585e-10 -2.81169e-09 0)
(2.48013e-10 -2.04676e-09 0)
(1.78769e-10 -3.9605e-09 0)
(4.20842e-11 -2.5039e-09 0)
(4.10888e-11 -1.83699e-09 0)
(1.38755e-11 -2.20779e-09 0)
(1.44378e-11 -2.1475e-09 0)
(-2.05861e-11 -2.59606e-09 0)
(1.72685e-11 -2.44582e-09 0)
(6.35753e-11 -2.13932e-09 0)
(1.90237e-10 -2.12693e-09 0)
(8.51654e-11 -1.90857e-09 0)
(3.58482e-11 -4.22375e-09 0)
(-2.42714e-11 -4.28538e-09 0)
(4.98348e-11 -1.88142e-09 0)
(4.19474e-11 -1.94941e-09 0)
(1.84197e-11 -1.90702e-09 0)
(1.065e-10 -2.35221e-09 0)
(-3.84352e-11 -9.85489e-10 0)
(-4.18742e-11 -1.58815e-09 0)
(-8.87779e-12 -1.99719e-09 0)
(3.56008e-11 -1.77318e-09 0)
(6.53725e-11 -3.46751e-09 0)
(2.22826e-10 -4.00532e-09 0)
(0 0 0)
(2.70468e-11 -2.38525e-09 0)
(0 0 0)
(0 0 0)
(0 0 0)
(0 0 0)
(0 0 0)
(7.88638e-12 -1.24479e-10 0)
(3.67835e-10 -4.5069e-09 0)
(1.64138e-10 -4.71047e-09 0)
(-1.4614e-11 -2.0882e-09 0)
(2.35718e-12 -2.38064e-09 0)
(-2.42966e-11 -2.27725e-09 0)
(-9.82369e-11 -2.12075e-09 0)
(4.00121e-12 -2.27806e-09 0)
(1.43293e-11 -2.29274e-09 0)
(2.1248e-11 -2.79548e-09 0)
(1.43218e-10 -4.39158e-09 0)
(1.7582e-10 -2.06128e-09 0)
(1.15429e-10 -2.19299e-09 0)
(0 0 0)
(1.45262e-11 -4.98586e-09 0)
(3.76168e-10 -5.1718e-09 0)
(-1.12315e-10 -3.53047e-09 0)
(1.01188e-10 -2.009e-09 0)
(9.49813e-11 -8.7456e-10 0)
(-1.6241e-11 -2.1568e-09 0)
(-3.60579e-11 -2.7163e-09 0)
(0 0 0)
(1.00126e-10 -2.43415e-09 0)
(-3.60047e-11 -2.36523e-09 0)
(1.01464e-10 -2.72184e-09 0)
(9.17244e-12 -2.06087e-10 0)
(1.09661e-10 -4.48525e-09 0)
(-5.76328e-11 -1.97732e-09 0)
(-1.30479e-10 -2.1257e-09 0)
(-2.80524e-11 -2.20291e-09 0)
(-2.20052e-10 -2.4335e-09 0)
(-7.36008e-11 -3.33711e-09 0)
(-3.07684e-12 -2.84733e-09 0)
(1.41941e-11 -2.77568e-09 0)
(9.24052e-11 -2.11437e-09 0)
(9.5046e-11 -2.25415e-09 0)
(-2.03194e-11 -2.28115e-09 0)
(0 0 0)
(9.84191e-11 -2.31696e-09 0)
(-1.79999e-10 -5.30427e-09 0)
(-5.95204e-11 -1.92188e-09 0)
(-5.19305e-11 -2.13668e-09 0)
(5.35038e-09 5.23468e-08 0)
(2.41188e-10 -2.77902e-09 0)
(1.99307e-10 -3.86749e-09 0)
(9.81396e-11 -2.48235e-09 0)
(3.2914e-11 -2.11725e-09 0)
(3.16464e-11 -2.15032e-09 0)
(4.56482e-11 -2.34569e-09 0)
(1.64761e-10 -2.28799e-09 0)
(-1.3279e-10 -2.40374e-09 0)
(-9.14168e-11 -2.3974e-09 0)
(1.73387e-11 -2.47238e-09 0)
(1.09772e-10 -2.18158e-09 0)
(1.29173e-10 -2.06343e-09 0)
(8.89329e-11 -2.1503e-09 0)
(3.04355e-11 -2.16507e-09 0)
(-1.82341e-11 -2.11701e-09 0)
(-2.02514e-12 -3.48683e-09 0)
(2.74957e-10 -2.8688e-09 0)
(8.13071e-11 -2.1174e-09 0)
(-2.77959e-11 -2.25322e-09 0)
(-8.99905e-11 -2.61896e-09 0)
(0 0 0)
(-1.44075e-10 -2.36153e-09 0)
(-3.26385e-11 -2.14949e-09 0)
(0 0 0)
(4.04908e-11 -2.19321e-09 0)
(1.52296e-10 -4.87731e-09 0)
(2.44113e-10 -2.30977e-09 0)
(3.27835e-10 -2.33199e-09 0)
(1.74093e-10 -2.31932e-09 0)
(1.03924e-10 -2.29981e-09 0)
(4.55311e-11 -4.64603e-09 0)
(6.35959e-11 -6.05684e-09 0)
(0 0 0)
(7.56238e-11 -2.35286e-09 0)
(6.55157e-12 -2.14353e-09 0)
(1.319e-10 -1.89742e-09 0)
(1.01579e-11 -2.2603e-09 0)
(-7.016e-11 -2.21951e-09 0)
(-1.02849e-10 -2.35518e-09 0)
(-3.05376e-11 -2.135e-09 0)
(-1.51826e-11 -3.09426e-09 0)
(3.07849e-13 -1.30472e-09 0)
(0 0 0)
(1.63028e-10 -2.24268e-09 0)
(-4.44428e-11 -2.29751e-09 0)
(-1.42895e-10 -2.21892e-09 0)
(-1.67722e-13 -2.0769e-09 0)
(-4.45517e-11 -2.29052e-09 0)
(-2.81297e-12 -2.00412e-09 0)
(0 0 0)
(9.82319e-11 -2.02553e-09 0)
(-5.78311e-11 -2.24917e-09 0)
(0 0 0)
(2.01748e-10 -2.5501e-09 0)
(1.09731e-10 -2.54746e-09 0)
(1.08886e-10 -2.34052e-09 0)
(1.17783e-10 -2.26929e-09 0)
(2.28393e-10 -2.32254e-09 0)
(8.42705e-11 -2.29213e-09 0)
(-4.8987e-11 -2.20112e-09 0)
(-5.12657e-11 -2.18963e-09 0)
(1.02015e-10 -2.28373e-09 0)
(0 0 0)
(-8.50008e-11 -3.71978e-09 0)
(-1.2024e-11 -1.03411e-09 0)
(-3.14494e-11 -1.91089e-09 0)
(-7.80116e-11 -2.43771e-09 0)
(-3.55913e-13 -2.31327e-09 0)
(-1.11874e-10 -2.1722e-09 0)
(-7.91542e-11 -2.28134e-09 0)
(-1.39241e-10 -2.36381e-09 0)
(-9.06295e-11 -2.41849e-09 0)
(2.05936e-11 -2.23828e-09 0)
(-2.34432e-11 -2.25084e-09 0)
(2.86811e-11 7.61046e-08 0)
(-2.93703e-10 -2.97726e-09 0)
(1.58544e-10 -1.69236e-09 0)
(1.25564e-10 -2.01196e-09 0)
(0 0 0)
(-9.50672e-12 -2.07741e-09 0)
(3.70161e-12 -2.28714e-09 0)
(-9.98815e-11 -2.73455e-09 0)
(0 0 0)
(1.28246e-11 -3.00466e-09 0)
(3.74649e-11 -1.68683e-09 0)
(1.08531e-10 -2.2115e-09 0)
(2.27385e-10 -2.26152e-09 0)
(8.6394e-11 -2.3924e-09 0)
(-1.85972e-11 -2.26075e-09 0)
(0 0 0)
(-1.02593e-10 -2.03224e-09 0)
(-1.72647e-10 -4.69556e-09 0)
(-7.24488e-11 -2.06538e-09 0)
(-2.12151e-10 -2.62626e-09 0)
(-1.23188e-10 -2.6013e-09 0)
(-1.35006e-11 -6.47197e-10 0)
(-2.53332e-11 -1.11353e-09 0)
(-1.61521e-11 -1.96137e-09 0)
(4.53022e-11 -2.02239e-09 0)
(0 0 0)
(0 0 0)
(1.91736e-10 -2.25167e-09 0)
(5.76331e-10 -5.51996e-09 0)
(8.26706e-11 -2.12522e-09 0)
(-1.60649e-10 -2.49822e-09 0)
(-1.45083e-10 -2.77742e-09 0)
(9.37461e-11 -3.02196e-09 0)
(1.78452e-10 -2.08585e-09 0)
(3.3788e-11 -3.75429e-10 0)
(2.85396e-11 -3.41739e-09 0)
(-6.36971e-11 -3.94258e-09 0)
(8.88182e-12 -2.45121e-09 0)
(2.59607e-11 -2.37331e-09 0)
(6.49177e-11 -2.02938e-09 0)
(5.40105e-11 -1.95314e-09 0)
(3.34146e-11 -2.14834e-09 0)
(8.72579e-11 -2.25369e-09 0)
(4.54959e-11 -2.12687e-09 0)
(8.2056e-12 -2.19438e-09 0)
(-1.32995e-10 -5.07514e-09 0)
(-1.04127e-10 -2.25564e-09 0)
(-1.29921e-12 -4.07507e-10 0)
(-1.03552e-11 -1.34299e-09 0)
(-1.36844e-10 -2.07502e-09 0)
(-1.01842e-10 -2.22621e-09 0)
(-6.5861e-11 -2.27571e-09 0)
(2.30757e-11 -2.22225e-09 0)
(1.52127e-10 -2.29295e-09 0)
(1.55035e-10 -2.64457e-09 0)
(5.80194e-11 -1.32088e-09 0)
(9.12693e-11 -2.50566e-09 0)
(9.22786e-11 -2.08449e-09 0)
(7.34702e-11 -2.09633e-09 0)
(5.10457e-11 -2.18257e-09 0)
(4.70135e-11 -2.13449e-09 0)
(-6.46886e-11 -2.26391e-09 0)
(-4.1427e-11 -2.29938e-09 0)
(3.50017e-10 -5.61191e-09 0)
(-1.06564e-10 -2.24381e-09 0)
(5.6816e-11 -2.39211e-09 0)
(0 0 0)
(6.15081e-12 -2.31696e-09 0)
(-9.18225e-12 -2.45668e-09 0)
(-1.82157e-10 -2.33804e-09 0)
(-1.43493e-10 -2.22334e-09 0)
(-9.05258e-11 -2.21302e-09 0)
(-1.43162e-10 -4.2753e-09 0)
(-4.4256e-11 -2.67001e-09 0)
(-4.75542e-11 -2.12161e-09 0)
(3.5234e-09 6.98688e-08 0)
(2.7639e-10 -1.75165e-09 0)
(1.96253e-10 -9.6614e-10 0)
(1.52784e-10 -2.27354e-09 0)
(3.86125e-10 -4.84335e-09 0)
(-8.3458e-11 -2.05942e-09 0)
(-9.99299e-11 -2.2682e-09 0)
(-1.3945e-10 -2.28223e-09 0)
(5.12786e-11 -2.56623e-09 0)
(-2.93555e-11 -2.61151e-09 0)
(1.28927e-11 -2.26146e-09 0)
(4.15997e-10 -2.25721e-09 0)
(1.45348e-10 -2.36362e-09 0)
(4.86234e-11 -2.41564e-09 0)
(8.9907e-12 -2.25184e-09 0)
(-8.60263e-11 -4.76968e-09 0)
(-1.1422e-10 -1.98138e-09 0)
(-1.4941e-10 -2.24715e-09 0)
(-3.18437e-10 -2.04385e-09 0)
(-2.64569e-10 -2.30308e-09 0)
(-1.19498e-10 -2.49142e-09 0)
(-2.5512e-13 -2.51236e-09 0)
(1.78193e-10 -2.25276e-09 0)
(1.11686e-10 -2.06988e-09 0)
(1.58739e-10 -2.07722e-09 0)
(2.76777e-10 -2.87714e-09 0)
(2.6931e-10 -4.16029e-09 0)
(3.0192e-11 -2.02659e-09 0)
(2.02149e-10 -2.3989e-09 0)
(2.31112e-10 -5.97137e-09 0)
(-7.4161e-11 -2.14855e-09 0)
(-2.51059e-13 -1.9928e-09 0)
(3.15514e-11 -2.13193e-09 0)
(1.45317e-10 -2.57241e-09 0)
(1.41836e-11 -2.28957e-09 0)
(1.00568e-10 -2.21462e-09 0)
(-9.18396e-11 -2.11849e-09 0)
(-3.65727e-11 -2.17351e-09 0)
(-5.47584e-13 -2.21976e-09 0)
(1.2963e-10 -2.63593e-09 0)
(1.46507e-10 -2.89903e-09 0)
(3.55179e-11 -6.01847e-10 0)
(1.20934e-10 -2.17811e-09 0)
(-3.31523e-11 -2.17763e-09 0)
(-2.3953e-10 -5.38471e-09 0)
(3.45233e-11 -2.39096e-09 0)
(-3.38068e-11 -1.47438e-10 0)
(-6.35166e-10 -4.64285e-09 0)
(-1.01282e-10 -2.07301e-09 0)
(-7.87887e-12 -1.59738e-10 0)
(-1.05083e-10 -1.8756e-09 0)
(-3.15518e-11 -2.1755e-09 0)
(7.93323e-11 -4.78723e-09 0)
(7.17527e-11 -2.32889e-09 0)
(9.17302e-11 -2.34674e-09 0)
(3.12605e-10 -6.00279e-09 0)
(1.36186e-10 -2.14595e-09 0)
(5.77548e-11 -2.03002e-09 0)
(-2.78631e-11 -2.09019e-09 0)
(3.67156e-11 -2.05702e-09 0)
(-7.38411e-11 -2.1998e-09 0)
(6.01871e-11 -2.15301e-09 0)
(3.0441e-10 -1.95342e-09 0)
(4.6038e-11 -2.4925e-09 0)
(0 0 0)
(-2.0775e-10 -3.32113e-09 0)
(-1.14147e-10 -4.01657e-09 0)
(-8.11466e-11 -2.46238e-09 0)
(-7.19778e-11 -2.21166e-09 0)
(-3.95823e-11 -2.05798e-09 0)
(8.5486e-12 -1.93738e-09 0)
(-5.87597e-11 -2.23472e-09 0)
(-1.57072e-10 -2.35009e-09 0)
(-1.94555e-10 -2.2481e-09 0)
(-2.00459e-11 -1.88506e-09 0)
(1.0267e-08 8.77464e-08 0)
(4.46368e-10 -1.62804e-09 0)
(0 0 0)
(1.44109e-10 -2.2301e-09 0)
(1.31325e-10 -2.29821e-09 0)
(3.54505e-11 -2.20302e-09 0)
(-2.78843e-11 -2.28812e-09 0)
(-1.73864e-11 -2.25153e-09 0)
(1.31268e-11 -2.46808e-09 0)
(7.65779e-11 -2.44731e-09 0)
(7.09454e-11 -2.26264e-09 0)
(8.76695e-11 -3.57462e-09 0)
(7.38332e-11 -3.52278e-09 0)
(5.98768e-11 -2.42884e-09 0)
(0 0 0)
(6.18438e-11 -2.01474e-09 0)
(-6.50212e-11 -2.13473e-09 0)
(-1.4372e-11 -2.444e-09 0)
(0 0 0)
(-2.04219e-10 -2.48484e-09 0)
(-2.02835e-10 -2.37541e-09 0)
(-3.66134e-11 -3.56073e-09 0)
(3.97897e-11 -3.63169e-09 0)
(2.80486e-10 -2.03898e-09 0)
(1.63275e-10 -2.28974e-09 0)
(1.61554e-10 -3.62228e-09 0)
(1.34627e-10 -3.41464e-09 0)
(-4.96354e-11 -2.1555e-09 0)
(-6.31064e-11 -2.64215e-09 0)
(1.54891e-10 -2.74769e-09 0)
(2.31677e-11 -2.31652e-09 0)
(-5.42939e-11 -1.94289e-09 0)
(-2.65773e-11 -1.9817e-09 0)
(-3.26702e-11 -2.25207e-09 0)
(2.10306e-11 -2.43541e-09 0)
(1.38348e-10 -5.78935e-09 0)
(4.23309e-12 -2.28214e-09 0)
(-1.10864e-10 -2.09677e-09 0)
(-7.28134e-11 -2.06618e-09 0)
(-2.48888e-11 -2.12204e-09 0)
(-4.67509e-11 -2.10329e-09 0)
(-1.6742e-11 -2.0936e-09 0)
(-8.30952e-11 -5.20786e-09 0)
(4.51588e-11 -1.98365e-09 0)
(-1.05461e-10 -2.16028e-09 0)
(8.98099e-12 -2.0801e-09 0)
(4.99145e-11 -2.45354e-09 0)
(0 0 0)
(5.63307e-11 -4.65071e-09 0)
(-1.68324e-11 -2.17676e-09 0)
(4.74131e-11 -2.17175e-09 0)
(-6.10586e-12 -2.07093e-09 0)
(6.13571e-11 -2.33181e-09 0)
(-3.57893e-12 -2.12381e-09 0)
(1.55275e-10 -2.31766e-09 0)
(3.76291e-11 -2.3529e-09 0)
(8.28031e-11 -2.27209e-09 0)
(4.463e-11 -2.16443e-09 0)
(-2.75367e-11 -2.16035e-09 0)
(-6.88113e-11 -2.20884e-09 0)
(2.13901e-11 -3.93142e-09 0)
(-2.42287e-11 -7.01454e-10 0)
(-1.94903e-10 -2.33086e-09 0)
(-2.34567e-10 -5.68361e-09 0)
(-5.79218e-12 -2.30545e-09 0)
(-3.99889e-11 -2.1011e-09 0)
(-5.55756e-11 -2.13754e-09 0)
(-1.97445e-10 -2.20353e-09 0)
(1.75292e-10 -1.98408e-09 0)
(-4.71906e-11 -1.983e-09 0)
(-2.85046e-11 -2.15197e-09 0)
(-8.65093e-11 -2.53451e-09 0)
(-3.06012e-11 -2.43777e-09 0)
(3.97441e-13 -2.05709e-09 0)
(1.62249e-11 -1.86953e-09 0)
(3.67112e-09 6.45855e-08 0)
(-5.01913e-11 -6.9296e-10 0)
(1.13419e-10 -1.53487e-09 0)
(8.52744e-11 -2.09781e-09 0)
(9.11398e-11 -2.20455e-09 0)
(2.07178e-11 -2.3391e-09 0)
(-5.11503e-12 -2.25375e-09 0)
(7.61119e-11 -2.14412e-09 0)
(1.67176e-11 -2.65618e-09 0)
(2.42227e-11 -2.404e-09 0)
(-1.90942e-11 -2.03244e-09 0)
(-1.61303e-10 -1.92538e-09 0)
(-7.88119e-12 -2.10712e-09 0)
(3.44863e-11 -2.33551e-09 0)
(1.34736e-10 -2.34962e-09 0)
(1.20331e-12 -3.01361e-11 0)
(9.2922e-11 -2.13005e-09 0)
(7.78041e-11 -2.41457e-09 0)
(3.38154e-11 -2.30219e-09 0)
(-1.63834e-10 -2.31789e-09 0)
(-3.67524e-10 -3.10303e-09 0)
(-1.5231e-10 -4.55543e-09 0)
(-1.44702e-11 -2.27987e-09 0)
(1.26139e-11 -2.04719e-09 0)
(1.15933e-10 -2.20757e-09 0)
(7.08975e-11 -2.12916e-09 0)
(2.65395e-11 -2.13862e-09 0)
(-8.8729e-11 -2.09987e-09 0)
(-1.19313e-10 -2.32293e-09 0)
(2.54402e-11 -2.59126e-09 0)
(1.65767e-10 -2.54445e-09 0)
(7.94142e-11 -2.10094e-09 0)
(-3.31385e-11 -2.09e-09 0)
(-2.60625e-11 -2.14711e-09 0)
(-1.22965e-10 -2.29324e-09 0)
(-8.75171e-11 -3.82472e-09 0)
(2.65734e-11 -3.79176e-09 0)
(-6.39847e-11 -2.11261e-09 0)
(-1.25595e-10 -2.09106e-09 0)
(-9.36493e-13 -6.76589e-11 0)
(-3.48013e-11 -2.24728e-09 0)
(-1.24044e-11 -2.31559e-09 0)
(-4.92085e-11 -2.29101e-09 0)
(-3.20953e-11 -2.30111e-09 0)
(-1.10365e-10 -2.3035e-09 0)
(-8.7852e-11 -2.33853e-09 0)
(5.92472e-11 -1.10709e-09 0)
(2.5672e-11 -4.12756e-10 0)
(0 0 0)
(1.88333e-11 -2.07895e-09 0)
(5.64594e-11 -2.10918e-09 0)
(0 0 0)
(1.34847e-10 -2.29028e-09 0)
(2.4114e-10 -2.71456e-09 0)
(2.2019e-10 -2.38392e-09 0)
(3.85846e-11 -2.35667e-09 0)
(5.7067e-11 -2.23761e-09 0)
(9.07614e-11 -2.21152e-09 0)
(2.31895e-11 -2.28718e-09 0)
(2.88884e-11 -2.2849e-09 0)
(-1.67907e-10 -2.54591e-09 0)
(-9.06916e-12 -2.39829e-10 0)
(-8.93005e-11 -2.00118e-09 0)
(-1.68988e-10 -2.21231e-09 0)
(-5.72949e-11 -3.35017e-09 0)
(7.22983e-11 -4.0775e-09 0)
(2.82917e-10 -5.14112e-09 0)
(8.31897e-12 -2.1529e-09 0)
(-2.40514e-10 -2.00304e-09 0)
(-3.25284e-11 -2.12483e-09 0)
(-1.09007e-10 -1.87601e-09 0)
(-1.7271e-10 -2.10615e-09 0)
(-1.15464e-10 -2.28351e-09 0)
(-7.08545e-11 -2.2583e-09 0)
(-6.84894e-11 -2.26452e-09 0)
(1.30633e-08 7.37108e-08 0)
(1.85809e-10 -1.8759e-09 0)
(1.84987e-10 -1.82432e-09 0)
(1.10863e-10 -2.19224e-09 0)
(1.09533e-10 -2.48392e-09 0)
(3.90122e-11 -1.24257e-09 0)
(9.92577e-12 -3.04999e-10 0)
(-8.9076e-11 -2.32481e-09 0)
(-1.45607e-10 -2.34806e-09 0)
(-4.97498e-11 -2.4451e-09 0)
(2.92964e-12 -2.53085e-09 0)
(4.47315e-13 -2.17867e-09 0)
(3.67872e-11 -2.31437e-09 0)
(3.12053e-11 -2.29066e-09 0)
(6.59034e-11 -2.28422e-09 0)
(1.12023e-10 -2.25082e-09 0)
(6.2016e-11 -2.12678e-09 0)
(-3.65655e-11 -2.38713e-09 0)
(-4.04022e-11 -3.17605e-09 0)
(-4.59909e-11 -1.95062e-09 0)
(-6.68657e-11 -1.85937e-09 0)