/*--------------------------------*- C++ -*----------------------------------*\
  =========                 |
  \\      /  F ield         | OpenFOAM: The Open Source CFD Toolbox
   \\    /   O peration     | Website:  https://openfoam.org
    \\  /    A nd           | Version:  12
     \\/     M anipulation  |
\*---------------------------------------------------------------------------*/
FoamFile
{
    format      ascii;
    class       volScalarField;
    location    "0.3";
    object      p;
}
// * * * * * * * * * * * * * * * * * * * * * * * * * * * * * * * * * * * * * //

dimensions      [0 2 -2 0 0 0 0];

internalField   nonuniform List<scalar> 
3750
(
1.47753
1.46634
1.45821
1.44795
1.43904
1.43151
1.42116
1.40985
1.39867
1.39601
1.38551
1.37678
1.36621
1.35515
1.34413
1.3334
1.32425
1.31474
1.30444
1.30318
1.2918
1.28067
1.26823
1.25593
1.24552
1.23535
1.22572
1.21513
1.21327
1.202
1.19048
1.17821
1.16781
1.15862
1.15007
1.13751
1.12816
1.11994
1.10777
1.09975
1.09131
1.08185
1.07015
1.05907
1.05641
1.04423
1.03309
1.0219
1.01155
1.00415
0.995054
0.988416
0.979761
0.969869
0.958619
0.949006
0.939571
0.93054
0.920796
0.909576
0.898668
0.887498
0.875414
0.863208
0.859921
0.85561
0.844442
0.830513
0.817597
0.809131
0.800414
0.791805
0.783397
0.76609
0.756325
1.47638
1.46534
1.46021
1.44758
1.43814
1.4329
1.42164
1.41085
1.401
1.39296
1.3829
1.37729
1.36624
1.35489
1.34388
1.33243
1.32429
1.31546
1.30814
1.30094
1.29097
1.28072
1.26882
1.25408
1.2453
1.23446
1.2269
1.21918
1.21094
1.20117
1.19073
1.177
1.16654
1.15827
1.14792
1.13878
1.12851
1.11942
1.10903
1.0996
1.0925
1.08478
1.0697
1.06278
1.0532
1.04268
1.03333
1.02204
1.01804
1.0048
0.993949
0.989513
0.97969
0.97032
0.958289
0.94884
0.939091
0.931192
0.921409
0.910537
0.899064
0.888417
0.875989
0.867455
0.860684
0.849846
0.840781
0.829614
0.81851
0.808912
0.800187
0.791816
0.782583
0.768614
0.758421
1.47517
1.46229
1.4584
1.45197
1.44231
1.43164
1.42122
1.41131
1.40209
1.39272
1.38312
1.37568
1.36572
1.35484
1.34449
1.32847
1.32558
1.31537
1.31135
1.30051
1.28998
1.27884
1.26663
1.25499
1.24756
1.23173
1.22783
1.22253
1.20958
1.2005
1.18959
1.17659
1.16511
1.15829
1.14409
1.14019
1.1278
1.12094
1.11067
1.09861
1.09385
1.08467
1.07212
1.05914
1.05124
1.0404
1.035
1.02663
1.01277
1.00303
0.995948
0.989768
0.97886
0.97
0.959612
0.948228
0.93619
0.931706
0.921464
0.91311
0.899545
0.891823
0.881423
0.868904
0.857482
0.850478
0.837491
0.828608
0.818405
0.808584
0.799805
0.793161
0.783325
0.770718
0.761214
1.47648
1.46504
1.45821
1.45138
1.44637
1.43055
1.41885
1.41215
1.40244
1.39293
1.38369
1.37512
1.36578
1.35446
1.34216
1.32921
1.32674
1.31813
1.31047
1.3004
1.28951
1.27805
1.26499
1.25238
1.24809
1.23756
1.22925
1.21917
1.2094
1.20131
1.18613
1.1757
1.16454
1.15458
1.14029
1.13962
1.12993
1.12567
1.11304
1.10042
1.08992
1.08634
1.07469
1.06016
1.05271
1.04159
1.03381
1.02561
1.01305
0.998561
0.996333
0.992279
0.977623
0.970244
0.961915
0.948503
0.934932
0.928477
0.919346
0.913196
0.903201
0.889233
0.879971
0.869182
0.858655
0.849126
0.838457
0.828783
0.81849
0.807278
0.799208
0.796646
0.784815
0.770516
0.759576
1.47733
1.4661
1.45771
1.45071
1.44411
1.43182
1.42051
1.41631
1.40206
1.39289
1.38339
1.37533
1.36784
1.35394
1.34085
1.33049
1.32329
1.31874
1.31034
1.30073
1.28931
1.2789
1.26309
1.25336
1.24629
1.24062
1.22794
1.21552
1.20818
1.19917
1.18543
1.17636
1.1663
1.1553
1.1439
1.13714
1.12691
1.12615
1.10772
1.10147
1.09553
1.08154
1.07581
1.06175
1.04906
1.04075
1.03197
1.0231
1.01244
1.00264
0.997489
0.989842
0.973232
0.970348
0.960296
0.948936
0.936885
0.927764
0.915563
0.915665
0.902279
0.890788
0.88018
0.86904
0.858872
0.848826
0.838828
0.829811
0.820384
0.803492
0.801866
0.798021
0.781212
0.774778
0.758299
1.47695
1.46706
1.45648
1.4502
1.4448
1.43126
1.42238
1.41403
1.40521
1.39341
1.38231
1.37509
1.36726
1.3578
1.34174
1.32896
1.31883
1.31363
1.31051
1.30183
1.28956
1.27526
1.26442
1.25441
1.25158
1.23848
1.22466
1.21033
1.2079
1.19655
1.18398
1.17664
1.16903
1.15772
1.147
1.13819
1.12447
1.12391
1.11069
1.10207
1.09538
1.08243
1.0736
1.06163
1.0498
1.04043
1.03089
1.02117
1.01047
1.00257
0.991535
0.985156
0.974913
0.967663
0.958652
0.950306
0.936356
0.922134
0.918601
0.91611
0.902823
0.891476
0.880894
0.868936
0.858965
0.848396
0.838039
0.830836
0.821676
0.805129
0.805542
0.796003
0.782868
0.769463
0.759262
1.47505
1.467
1.46217
1.45088
1.44152
1.42712
1.42318
1.41281
1.40503
1.39341
1.38342
1.37546
1.36871
1.35772
1.34366
1.33092
1.32087
1.31309
1.30842
1.29992
1.28852
1.27683
1.26508
1.25907
1.24908
1.23625
1.22172
1.21267
1.20611
1.1949
1.18172
1.17702
1.17265
1.15947
1.14776
1.13645
1.1274
1.11991
1.10989
1.10105
1.09098
1.08792
1.0742
1.06135
1.0481
1.04025
1.03027
1.02041
1.00725
1.00514
0.991778
0.983292
0.974069
0.965866
0.956095
0.948367
0.935454
0.926439
0.921547
0.913005
0.902369
0.892079
0.88299
0.866846
0.859729
0.848144
0.836257
0.832257
0.821398
0.810526
0.804531
0.796258
0.782131
0.768434
0.759781
1.47882
1.47005
1.46379
1.44963
1.4388
1.42845
1.41958
1.40892
1.40589
1.3919
1.38432
1.37559
1.37091
1.35893
1.34563
1.33074
1.32155
1.31184
1.30929
1.29887
1.28821
1.27873
1.26212
1.25862
1.24703
1.23582
1.22235
1.21401
1.20633
1.1959
1.18258
1.17666
1.17017
1.15997
1.14823
1.13816
1.12898
1.11851
1.11109
1.1013
1.09093
1.0844
1.07358
1.06145
1.04985
1.04251
1.02987
1.0155
1.01227
1.00315
0.993386
0.982542
0.972965
0.963874
0.953527
0.950694
0.932498
0.928033
0.926061
0.911649
0.900907
0.891481
0.882805
0.865944
0.863418
0.848474
0.837937
0.829711
0.820944
0.811738
0.803126
0.793372
0.781614
0.771952
0.761618
1.48163
1.47371
1.46248
1.44918
1.44151
1.42856
1.41782
1.40912
1.4021
1.39005
1.38573
1.38039
1.36858
1.3576
1.34559
1.3335
1.32361
1.31352
1.30562
1.29722
1.28756
1.27834
1.26562
1.25507
1.24573
1.22958
1.22503
1.2144
1.2051
1.19562
1.18582
1.17692
1.16833
1.16164
1.14707
1.13892
1.12751
1.11937
1.11207
1.1028
1.09265
1.08405
1.07424
1.05981
1.04844
1.0411
1.03142
1.01985
1.00974
1.00556
0.995807
0.980545
0.971381
0.960903
0.956857
0.948289
0.936273
0.927282
0.925992
0.909495
0.898514
0.890281
0.881215
0.870799
0.864619
0.849222
0.836772
0.827551
0.820388
0.811675
0.802832
0.792483
0.780621
0.775457
0.763383
1.48159
1.47198
1.4655
1.44902
1.44044
1.42998
1.42109
1.40694
1.40173
1.39335
1.38644
1.37795
1.366
1.35679
1.3462
1.33547
1.32559
1.30922
1.30236
1.29251
1.28355
1.2812
1.26717
1.25604
1.2431
1.23189
1.22302
1.21292
1.20367
1.19674
1.18785
1.17711
1.16512
1.16038
1.14793
1.1386
1.12681
1.11971
1.11303
1.10554
1.09379
1.08478
1.07046
1.05954
1.04971
1.04202
1.03371
1.02327
1.01007
1.00421
0.992187
0.981303
0.971548
0.962405
0.95563
0.949104
0.938531
0.927861
0.919792
0.908876
0.898214
0.889355
0.88061
0.871792
0.863652
0.848336
0.836808
0.828707
0.82095
0.812553
0.80307
0.793263
0.783618
0.774858
0.763972
1.48142
1.46952
1.46737
1.45116
1.44032
1.42933
1.42034
1.4066
1.40457
1.39659
1.38422
1.37561
1.36506
1.35623
1.34685
1.33659
1.3247
1.31362
1.30183
1.28917
1.28537
1.28306
1.26547
1.25459
1.24309
1.23277
1.22156
1.21072
1.20013
1.1982
1.19207
1.17835
1.16573
1.15559
1.14562
1.14078
1.12392
1.11983
1.11424
1.10946
1.09355
1.08223
1.07166
1.05881
1.04983
1.04321
1.03738
1.02502
1.01088
1.00228
0.991077
0.980672
0.971282
0.962613
0.953458
0.951768
0.939256
0.927526
0.916847
0.907874
0.898139
0.888453
0.879129
0.870567
0.861231
0.847097
0.840091
0.830346
0.82229
0.814617
0.803734
0.794015
0.786426
0.773956
0.763045
1.48352
1.47137
1.4636
1.45365
1.43983
1.42831
1.41987
1.40934
1.40303
1.39492
1.38528
1.37533
1.36402
1.35619
1.3484
1.33805
1.32474
1.31507
1.30306
1.29319
1.28603
1.27842
1.26544
1.25354
1.2434
1.2345
1.21914
1.2094
1.19924
1.19368
1.19346
1.17891
1.16582
1.1519
1.14696
1.14252
1.12946
1.12159
1.11489
1.10829
1.09313
1.07898
1.06964
1.06042
1.04903
1.04431
1.04032
1.02434
1.01453
1.00326
0.989688
0.979929
0.970098
0.963336
0.954792
0.946572
0.941739
0.927125
0.916728
0.907484
0.89797
0.88735
0.877283
0.866622
0.863632
0.853321
0.836825
0.831018
0.823265
0.817931
0.803256
0.792159
0.784956
0.776674
0.764645
1.48384
1.47213
1.4608
1.45106
1.4399
1.42917
1.41969
1.40993
1.40113
1.3943
1.38675
1.37698
1.36026
1.35609
1.35112
1.33906
1.32559
1.31374
1.30739
1.2962
1.28703
1.27771
1.26337
1.25097
1.24257
1.23349
1.21547
1.21144
1.19714
1.1921
1.19193
1.17974
1.16668
1.15502
1.14789
1.13934
1.13376
1.1238
1.11487
1.10455
1.0919
1.07988
1.06818
1.06379
1.05219
1.04389
1.03374
1.02658
1.01413
1.00254
0.992147
0.980274
0.96789
0.96548
0.956301
0.946975
0.938551
0.927244
0.91696
0.907292
0.89885
0.886598
0.876284
0.865102
0.862482
0.856542
0.840641
0.833318
0.823024
0.815713
0.802218
0.78886
0.784428
0.779435
0.764933
1.48325
1.46925
1.46141
1.45026
1.43883
1.43043
1.41976
1.41017
1.39906
1.39436
1.38903
1.37585
1.36388
1.35659
1.34946
1.34045
1.32544
1.3159
1.30701
1.29717
1.28825
1.27364
1.26355
1.2501
1.24143
1.23215
1.21786
1.211
1.20061
1.18918
1.18499
1.18039
1.168
1.15681
1.1504
1.14203
1.12875
1.1268
1.11539
1.10466
1.08996
1.0804
1.07095
1.0636
1.05392
1.04481
1.03387
1.02168
1.01247
1.00241
0.992655
0.980953
0.969602
0.964943
0.956266
0.948524
0.937176
0.926222
0.91637
0.906501
0.896222
0.892152
0.876435
0.867875
0.863212
0.852928
0.841042
0.837405
0.823668
0.814698
0.801299
0.79135
0.784161
0.776552
0.764997
1.48292
1.46501
1.46375
1.44948
1.43602
1.43281
1.41809
1.41174
1.40236
1.39489
1.38837
1.37411
1.36531
1.3569
1.34836
1.3388
1.32852
1.31933
1.30586
1.29712
1.28607
1.27473
1.26139
1.25036
1.24077
1.23058
1.21853
1.21116
1.20456
1.1941
1.1784
1.17403
1.1689
1.15588
1.15408
1.14062
1.13073
1.12649
1.11555
1.10389
1.09121
1.0814
1.07269
1.06408
1.05502
1.04432
1.03176
1.02147
1.01165
1.00172
0.993784
0.981945
0.97045
0.966503
0.955254
0.951347
0.934836
0.924071
0.916076
0.905902
0.897831
0.88999
0.877963
0.867675
0.860473
0.852537
0.844221
0.837254
0.825002
0.815856
0.801138
0.792677
0.78416
0.774818
0.764438
1.47823
1.46846
1.46111
1.44887
1.43623
1.4275
1.41818
1.41643
1.40475
1.39446
1.3853
1.37498
1.36582
1.35731
1.34845
1.33776
1.33138
1.31778
1.30063
1.29608
1.28416
1.27703
1.26584
1.25008
1.24069
1.23007
1.21666
1.21053
1.20951
1.19653
1.18025
1.16869
1.16543
1.15649
1.15004
1.1409
1.13212
1.12713
1.11607
1.10443
1.09104
1.08187
1.07329
1.06489
1.05702
1.04398
1.03052
1.02096
1.01094
0.999188
0.996823
0.983841
0.974156
0.966214
0.956573
0.946406
0.936117
0.921351
0.916662
0.904072
0.899841
0.890703
0.877662
0.865781
0.858838
0.85201
0.846487
0.835137
0.823691
0.817384
0.80395
0.793545
0.785036
0.774448
0.763556
1.4702
1.47509
1.46097
1.44865
1.43623
1.42301
1.42008
1.41892
1.40525
1.39344
1.38378
1.37463
1.36563
1.35808
1.35124
1.33413
1.33106
1.31951
1.30328
1.28948
1.28364
1.2769
1.27015
1.2517
1.24166
1.23154
1.21882
1.20628
1.20591
1.19948
1.1844
1.17144
1.16526
1.15669
1.14775
1.13929
1.13087
1.12303
1.11599
1.10341
1.09206
1.08186
1.07257
1.06509
1.05872
1.04434
1.03101
1.02099
1.01243
0.99778
0.997096
0.986437
0.976455
0.967249
0.95829
0.941806
0.936086
0.92263
0.914602
0.904824
0.897864
0.892712
0.877633
0.8681
0.857385
0.850299
0.842377
0.832733
0.818423
0.817401
0.807493
0.798183
0.78797
0.774338
0.761323
1.48233
1.46895
1.4593
1.44924
1.43834
1.42147
1.42013
1.41831
1.40348
1.39319
1.3824
1.37441
1.36516
1.3584
1.35388
1.3357
1.32814
1.31714
1.30449
1.29257
1.28467
1.27664
1.26641
1.25404
1.24323
1.23295
1.22261
1.20601
1.20449
1.19621
1.18566
1.17508
1.1682
1.15663
1.14498
1.13761
1.12878
1.119
1.11459
1.10394
1.09292
1.08216
1.07073
1.06455
1.05999
1.04439
1.03318
1.02046
1.01135
1.00115
0.996202
0.988632
0.978014
0.967804
0.957827
0.946245
0.931916
0.921373
0.91385
0.905365
0.901398
0.889875
0.878294
0.867748
0.856642
0.849214
0.839207
0.826827
0.818819
0.815239
0.810118
0.803704
0.78526
0.773373
0.762938
1.4962
1.46715
1.45643
1.44965
1.43693
1.42643
1.41993
1.4144
1.39734
1.39542
1.38057
1.37502
1.36998
1.35769
1.34931
1.33717
1.32695
1.31626
1.30521
1.29475
1.28609
1.27599
1.26406
1.2545
1.24422
1.2339
1.22319
1.21168
1.19781
1.19552
1.18595
1.17634
1.16695
1.15652
1.14673
1.13754
1.12859
1.11952
1.10858
1.10493
1.09355
1.08322
1.07424
1.06197
1.05567
1.0442
1.03361
1.02211
1.01203
1.00115
0.997472
0.99174
0.978858
0.96864
0.95977
0.945391
0.933419
0.918026
0.914354
0.911389
0.89866
0.888916
0.877693
0.866807
0.85507
0.849852
0.838523
0.829066
0.817021
0.812363
0.810993
0.799946
0.786444
0.771188
0.763556
1.49204
1.4749
1.45822
1.44742
1.43778
1.42788
1.41875
1.41238
1.39613
1.39757
1.38465
1.37565
1.36842
1.35744
1.34719
1.33664
1.32616
1.31572
1.30533
1.29515
1.28682
1.27481
1.2644
1.25486
1.24507
1.23507
1.22458
1.21045
1.1989
1.19335
1.18523
1.17733
1.16674
1.1556
1.14792
1.13735
1.12825
1.11969
1.10949
1.10232
1.09298
1.08352
1.07371
1.06203
1.05564
1.04302
1.03322
1.02334
1.01368
1.00396
1.00113
0.990975
0.977308
0.967523
0.958104
0.946696
0.934043
0.922579
0.91451
0.906893
0.899229
0.89123
0.877016
0.867669
0.856842
0.846238
0.836383
0.826814
0.818978
0.814777
0.808402
0.797622
0.784155
0.770556
0.764895
1.48993
1.46802
1.45867
1.44786
1.43847
1.42865
1.41675
1.4109
1.39714
1.39339
1.38645
1.38205
1.36634
1.35726
1.34634
1.33518
1.32519
1.31519
1.30518
1.29454
1.2871
1.27481
1.26502
1.25547
1.24596
1.23556
1.2225
1.21107
1.20065
1.19253
1.18474
1.18001
1.16726
1.15253
1.15014
1.13743
1.12737
1.12052
1.11114
1.10162
1.09205
1.08473
1.075
1.05779
1.05293
1.04597
1.03377
1.02314
1.01562
1.00482
1.00239
0.99062
0.980167
0.967243
0.958031
0.947626
0.935375
0.924393
0.914648
0.901808
0.90049
0.889464
0.880217
0.870371
0.854532
0.844505
0.834382
0.823452
0.819732
0.814433
0.808698
0.79648
0.783604
0.770406
0.763371
1.48803
1.47033
1.45956
1.44891
1.43928
1.43178
1.41866
1.40924
1.39923
1.3912
1.38599
1.37839
1.36727
1.35888
1.34567
1.33238
1.32422
1.31476
1.30574
1.29234
1.28939
1.27373
1.26512
1.25598
1.24764
1.23449
1.22259
1.21083
1.20153
1.1915
1.18226
1.17895
1.16941
1.15658
1.1482
1.13764
1.12566
1.12276
1.11208
1.10112
1.08915
1.08668
1.07461
1.06123
1.05242
1.04296
1.03272
1.022
1.01633
1.01016
1.00157
0.990055
0.979922
0.969144
0.958637
0.948636
0.936161
0.928025
0.913914
0.905137
0.899566
0.888566
0.884229
0.86913
0.8535
0.84561
0.834758
0.823385
0.821178
0.813189
0.807073
0.796433
0.78439
0.766397
0.759673
1.49151
1.47615
1.46191
1.45008
1.43939
1.43144
1.42105
1.41184
1.40048
1.38877
1.38568
1.37536
1.36525
1.35657
1.3448
1.33345
1.3246
1.31482
1.3048
1.2947
1.28446
1.27508
1.26602
1.25577
1.24507
1.23267
1.22633
1.21318
1.20226
1.19025
1.1843
1.17406
1.17454
1.15679
1.14585
1.1363
1.12804
1.12343
1.11274
1.10214
1.08727
1.08696
1.07505
1.06426
1.05256
1.03991
1.03329
1.02647
1.01539
1.00961
1.00199
0.987781
0.979675
0.969657
0.961094
0.946901
0.938044
0.928822
0.911013
0.906035
0.898715
0.890998
0.879627
0.868468
0.854148
0.848743
0.836175
0.826218
0.819345
0.810183
0.807307
0.797173
0.781611
0.770446
0.760042
1.50312
1.47212
1.46246
1.45117
1.44148
1.43254
1.42202
1.41294
1.39942
1.39554
1.38237
1.37312
1.36305
1.35636
1.34343
1.33233
1.32475
1.31499
1.30393
1.29569
1.28388
1.27611
1.26819
1.25608
1.24409
1.23542
1.2261
1.21461
1.20309
1.18768
1.18262
1.17682
1.17544
1.15855
1.14283
1.1348
1.12966
1.12671
1.11122
1.09963
1.09056
1.08412
1.07361
1.06261
1.0534
1.04054
1.03456
1.02793
1.01767
1.00869
0.999825
0.988985
0.980439
0.965914
0.961647
0.948131
0.9405
0.929625
0.915451
0.909026
0.896388
0.886534
0.877845
0.868962
0.857946
0.847264
0.836241
0.826738
0.820161
0.810739
0.803729
0.794355
0.78337
0.774302
0.761251
1.49275
1.47588
1.46376
1.45141
1.44344
1.43467
1.42245
1.41375
1.40325
1.3942
1.37967
1.37454
1.36519
1.35279
1.34056
1.3295
1.32509
1.31658
1.30083
1.29669
1.28154
1.27651
1.27234
1.25625
1.24077
1.23821
1.22581
1.21449
1.20296
1.1909
1.18215
1.17714
1.16998
1.15924
1.14181
1.14029
1.12826
1.12224
1.11083
1.10028
1.09152
1.08292
1.07272
1.06057
1.05026
1.04213
1.03602
1.03072
1.01887
1.00867
0.998566
0.988061
0.978339
0.969809
0.9589
0.949109
0.940169
0.930288
0.921672
0.908001
0.896439
0.884348
0.877101
0.868422
0.85851
0.848868
0.839567
0.825179
0.824316
0.809303
0.801246
0.792674
0.783305
0.77472
0.761697
1.48826
1.47671
1.46337
1.44946
1.44499
1.43454
1.42439
1.41624
1.40632
1.39456
1.37921
1.3723
1.363
1.35212
1.34098
1.33105
1.32063
1.31509
1.30326
1.29684
1.28396
1.27599
1.26767
1.25577
1.24403
1.23626
1.2256
1.21453
1.20338
1.19236
1.18367
1.17762
1.16758
1.15757
1.14541
1.13873
1.12959
1.1224
1.10858
1.10032
1.09198
1.08321
1.0746
1.05776
1.0534
1.04305
1.03677
1.02842
1.01829
1.0085
0.997699
0.986425
0.97546
0.968431
0.960871
0.950204
0.940721
0.930269
0.924051
0.909485
0.896684
0.883334
0.876309
0.867864
0.858971
0.850288
0.839994
0.829771
0.821474
0.809955
0.800613
0.791762
0.782497
0.772843
0.761445
1.49653
1.47221
1.46177
1.45
1.44206
1.43461
1.42567
1.41919
1.40616
1.3932
1.38128
1.37191
1.362
1.35189
1.34195
1.33399
1.31863
1.31156
1.30297
1.29836
1.28488
1.27577
1.26608
1.25518
1.24434
1.23473
1.2252
1.21467
1.20369
1.19142
1.18369
1.1771
1.17056
1.15726
1.14599
1.13794
1.12893
1.1201
1.10947
1.10059
1.09288
1.08365
1.07412
1.06157
1.05282
1.04424
1.03956
1.02795
1.01707
1.00932
0.996936
0.984809
0.970744
0.96733
0.964742
0.950166
0.942285
0.927606
0.924191
0.908326
0.897545
0.886549
0.877056
0.867846
0.85897
0.853352
0.840484
0.832161
0.820201
0.808131
0.799981
0.791153
0.781737
0.771799
0.761426
1.49613
1.47499
1.46327
1.44941
1.44687
1.43515
1.42421
1.41669
1.40511
1.39284
1.38102
1.37131
1.3612
1.35106
1.34181
1.33363
1.32022
1.31028
1.30678
1.29589
1.28516
1.27533
1.26558
1.2545
1.24339
1.23293
1.22577
1.21527
1.20543
1.18807
1.18278
1.17615
1.17113
1.15855
1.14744
1.13815
1.12867
1.11906
1.10913
1.10036
1.09388
1.08458
1.07317
1.06227
1.05515
1.04105
1.039
1.0299
1.01591
1.00631
0.999742
0.985054
0.971123
0.965573
0.960313
0.952442
0.942038
0.932697
0.920725
0.907899
0.898367
0.888038
0.877588
0.867633
0.856686
0.852646
0.838682
0.83211
0.819401
0.806761
0.800112
0.791016
0.780736
0.77083
0.761427
1.49767
1.47596
1.46794
1.45003
1.44348
1.43548
1.42791
1.41588
1.40454
1.39225
1.37951
1.37087
1.3605
1.3499
1.34129
1.33297
1.32225
1.3131
1.3056
1.29468
1.28461
1.27484
1.26643
1.25372
1.24183
1.22882
1.22755
1.21525
1.20613
1.19267
1.1832
1.17355
1.16806
1.15803
1.14812
1.13828
1.12881
1.11919
1.1091
1.099
1.08718
1.08575
1.07174
1.06041
1.05469
1.04202
1.03669
1.02688
1.01623
1.00574
0.997337
0.984747
0.975473
0.963701
0.958062
0.954972
0.942008
0.932448
0.921236
0.909527
0.899255
0.888927
0.878354
0.869011
0.858406
0.848697
0.842638
0.832077
0.818719
0.80519
0.801746
0.791126
0.779316
0.769205
0.759979
1.49371
1.47698
1.46722
1.45303
1.44359
1.43525
1.42694
1.41836
1.40525
1.39237
1.37887
1.37202
1.35855
1.34757
1.34014
1.33393
1.32387
1.31484
1.30452
1.29464
1.28379
1.27309
1.2626
1.25197
1.24121
1.23321
1.22712
1.21656
1.21092
1.1939
1.18367
1.17512
1.16729
1.15719
1.14941
1.13757
1.12939
1.11975
1.10932
1.09907
1.08911
1.08264
1.07381
1.06359
1.0522
1.03711
1.03497
1.02507
1.01537
1.00525
0.995119
0.982872
0.977433
0.964573
0.962065
0.95413
0.943236
0.932841
0.921756
0.910819
0.900252
0.889927
0.879705
0.86981
0.859708
0.84996
0.842358
0.830693
0.818841
0.808098
0.800615
0.792124
0.77727
0.767431
0.757552
1.489
1.47671
1.46836
1.45303
1.44337
1.43525
1.42596
1.41541
1.40528
1.39306
1.38113
1.37062
1.35856
1.34731
1.33828
1.33796
1.32433
1.31784
1.30325
1.29476
1.28386
1.27118
1.25896
1.2506
1.23921
1.23596
1.22702
1.21525
1.20754
1.19686
1.18268
1.1761
1.16801
1.15581
1.15301
1.13447
1.12964
1.12111
1.10935
1.09912
1.08923
1.08123
1.06877
1.06727
1.0523
1.03903
1.02874
1.02628
1.01355
1.00461
0.994739
0.984729
0.977063
0.966334
0.960364
0.956135
0.944482
0.933397
0.922497
0.911704
0.901122
0.890808
0.880647
0.870725
0.8608
0.851341
0.843252
0.829272
0.817875
0.809751
0.799567
0.790265
0.778665
0.768473
0.759868
1.48633
1.47412
1.46588
1.45419
1.44727
1.43463
1.425
1.41252
1.405
1.39343
1.38199
1.37079
1.35886
1.34581
1.33844
1.33511
1.32624
1.31994
1.30508
1.29261
1.2822
1.26858
1.2602
1.25275
1.23952
1.23421
1.22607
1.21598
1.20548
1.19771
1.18101
1.17788
1.16817
1.15864
1.15356
1.13828
1.12454
1.12236
1.10885
1.09841
1.08765
1.07634
1.07092
1.06895
1.05064
1.03921
1.02834
1.01976
1.01547
1.00471
0.994929
0.985807
0.978473
0.964715
0.964535
0.955429
0.944967
0.934172
0.923265
0.912354
0.901618
0.891535
0.881359
0.871499
0.861507
0.851948
0.843452
0.829554
0.816101
0.812032
0.79881
0.790963
0.779552
0.770077
0.761266
1.48445
1.47088
1.46613
1.459
1.44572
1.43189
1.4227
1.41136
1.40398
1.39352
1.38272
1.37188
1.35769
1.34887
1.33783
1.3349
1.32679
1.31984
1.30432
1.28859
1.2843
1.26956
1.26081
1.25173
1.24213
1.23436
1.22616
1.21793
1.20161
1.19772
1.18547
1.17723
1.16642
1.15942
1.15468
1.14045
1.12776
1.12079
1.10901
1.09792
1.08629
1.07831
1.07097
1.06303
1.05075
1.03928
1.02858
1.01917
1.01221
1.00401
0.995015
0.984353
0.977657
0.968703
0.967857
0.956017
0.945334
0.934981
0.924111
0.9128
0.902427
0.892346
0.881701
0.871596
0.861866
0.852252
0.842918
0.830817
0.818994
0.810262
0.797627
0.793595
0.780196
0.770908
0.761504
1.48398
1.4752
1.46637
1.45667
1.44434
1.43065
1.42129
1.40904
1.40289
1.39347
1.38398
1.37191
1.35782
1.3529
1.33979
1.33041
1.32692
1.31616
1.30383
1.29229
1.28732
1.27322
1.2621
1.2512
1.2428
1.23497
1.22719
1.21849
1.20522
1.19641
1.18608
1.17652
1.163
1.15785
1.15561
1.14475
1.1318
1.12067
1.10919
1.09809
1.08376
1.0799
1.07039
1.06079
1.04996
1.0387
1.02777
1.01795
1.00956
1.00423
0.996892
0.980799
0.979504
0.974995
0.965584
0.957285
0.946297
0.936245
0.92546
0.913402
0.902904
0.892773
0.881456
0.871633
0.861993
0.853043
0.843489
0.832057
0.820523
0.809857
0.799272
0.791262
0.780813
0.771472
0.760521
1.48564
1.47324
1.46495
1.45494
1.44406
1.43214
1.42138
1.41115
1.39551
1.39296
1.38662
1.37284
1.36114
1.35377
1.33894
1.33037
1.32345
1.31354
1.30264
1.29082
1.28875
1.27454
1.26376
1.24942
1.24302
1.23562
1.22851
1.2223
1.20501
1.19571
1.18576
1.17569
1.16495
1.15583
1.15407
1.14995
1.13429
1.12163
1.1091
1.09298
1.08798
1.07672
1.0693
1.05982
1.04957
1.0378
1.02593
1.01551
1.00479
1.00463
0.997708
0.985181
0.98429
0.975022
0.961686
0.958325
0.950371
0.938065
0.927854
0.912496
0.902884
0.893484
0.881207
0.871929
0.862338
0.853185
0.845877
0.833081
0.821235
0.810239
0.799513
0.788241
0.780973
0.773283
0.760156
1.48689
1.47141
1.46351
1.45463
1.44441
1.43332
1.4214
1.4095
1.3968
1.3953
1.38464
1.37211
1.36177
1.35184
1.34058
1.33083
1.32159
1.31194
1.30284
1.28909
1.28702
1.27549
1.26781
1.25126
1.24393
1.23585
1.22828
1.21726
1.20599
1.19588
1.18555
1.17518
1.16585
1.16049
1.1524
1.14481
1.13366
1.12237
1.11246
1.09669
1.08517
1.07461
1.06956
1.05944
1.05067
1.03572
1.02332
1.0147
1.00106
1.00193
0.999286
0.993971
0.985383
0.977287
0.960672
0.961352
0.947715
0.938113
0.92666
0.914471
0.902678
0.892732
0.881623
0.871822
0.861878
0.851374
0.844469
0.833025
0.820997
0.81041
0.800279
0.790339
0.781292
0.771567
0.760324
1.48639
1.47023
1.46332
1.45497
1.44536
1.43515
1.42151
1.40735
1.40284
1.39477
1.38284
1.37043
1.3618
1.35129
1.34068
1.33044
1.32033
1.31006
1.29922
1.29374
1.28479
1.27326
1.27062
1.25505
1.24528
1.23634
1.22685
1.21539
1.20496
1.19661
1.18568
1.17458
1.17205
1.15878
1.15072
1.14223
1.13283
1.12152
1.11158
1.09789
1.08478
1.07389
1.0718
1.05899
1.0489
1.03529
1.02221
1.01035
1.00455
1.00072
1.00164
0.995772
0.985283
0.979416
0.964221
0.957966
0.948077
0.938894
0.928294
0.915697
0.900567
0.891935
0.882167
0.87212
0.862429
0.84816
0.847453
0.83347
0.818465
0.809926
0.80086
0.791594
0.781984
0.771194
0.760029
1.47874
1.47401
1.46332
1.4567
1.44627
1.43421
1.42262
1.41021
1.40274
1.39342
1.38186
1.37074
1.36245
1.35086
1.34044
1.33004
1.31945
1.3089
1.30088
1.29245
1.2852
1.27322
1.27096
1.25818
1.24581
1.23744
1.22593
1.21459
1.20284
1.19827
1.18615
1.17614
1.16883
1.15888
1.14971
1.14062
1.13326
1.12061
1.11069
1.09821
1.0854
1.07489
1.07152
1.05947
1.04862
1.03396
1.02214
1.01064
1.00622
0.998632
0.999518
0.997323
0.98419
0.98083
0.96803
0.957557
0.947561
0.936779
0.927671
0.915765
0.901747
0.892564
0.882915
0.872367
0.858997
0.850791
0.844095
0.834538
0.818729
0.810219
0.801726
0.793148
0.784362
0.770041
0.75844
1.47965
1.47564
1.4629
1.45494
1.44701
1.43276
1.42473
1.41022
1.40247
1.3927
1.38076
1.36911
1.3642
1.3505
1.34025
1.32991
1.31872
1.30592
1.30012
1.29273
1.28621
1.27464
1.26933
1.26178
1.24389
1.24133
1.22482
1.21472
1.20435
1.19591
1.1855
1.17619
1.16747
1.15824
1.14868
1.13859
1.13342
1.12014
1.10968
1.09859
1.08609
1.07835
1.07068
1.05974
1.04781
1.03434
1.02148
1.00912
1.00684
1.00292
0.999546
0.994869
0.986397
0.981059
0.967114
0.956818
0.948104
0.932996
0.930356
0.914624
0.902487
0.892997
0.875699
0.872166
0.860451
0.853114
0.843197
0.831975
0.819377
0.810629
0.802693
0.795019
0.78357
0.771071
0.758652
1.48046
1.47435
1.4636
1.45384
1.44462
1.43406
1.42448
1.41328
1.40368
1.39443
1.37939
1.37076
1.36242
1.35048
1.34007
1.32948
1.31991
1.3068
1.29955
1.29333
1.28275
1.27592
1.2689
1.2629
1.24671
1.23834
1.22647
1.21567
1.20511
1.19487
1.18368
1.17569
1.16668
1.15908
1.14841
1.13917
1.13215
1.11938
1.10942
1.09898
1.08528
1.08167
1.0711
1.05979
1.04771
1.03571
1.01746
1.01226
1.00902
1.00717
1.00137
0.994387
0.986698
0.978779
0.962839
0.95495
0.94603
0.935353
0.930112
0.913498
0.90232
0.890879
0.875399
0.867143
0.861883
0.857285
0.843623
0.831314
0.817789
0.810218
0.803167
0.797691
0.783489
0.771165
0.759036
1.4845
1.47292
1.46137
1.45287
1.44294
1.43435
1.42585
1.41476
1.404
1.39316
1.38137
1.37166
1.36164
1.35029
1.3402
1.32848
1.32304
1.30547
1.29853
1.29234
1.28628
1.27725
1.26776
1.25953
1.24757
1.23734
1.22661
1.21623
1.20507
1.19499
1.17955
1.17604
1.16472
1.16212
1.14662
1.13865
1.13081
1.11983
1.10975
1.0993
1.08674
1.08178
1.07228
1.06029
1.04756
1.03469
1.02058
1.01522
1.01036
1.00482
1.00332
0.994546
0.986404
0.978295
0.9642
0.953382
0.945846
0.934074
0.924609
0.911312
0.902607
0.88979
0.874851
0.869457
0.862896
0.856987
0.842741
0.831495
0.821701
0.809374
0.801441
0.793326
0.782096
0.77124
0.760582
1.48455
1.47227
1.46036
1.45287
1.4405
1.43472
1.42924
1.41566
1.40354
1.39279
1.38121
1.37305
1.36183
1.34931
1.34215
1.33302
1.3242
1.30735
1.29681
1.29118
1.28451
1.279
1.26527
1.25683
1.24664
1.23682
1.22618
1.21576
1.20413
1.19232
1.18287
1.17309
1.16569
1.157
1.14589
1.13916
1.13166
1.12086
1.11041
1.10091
1.08512
1.08377
1.06783
1.06343
1.04816
1.03262
1.02425
1.0179
1.0124
1.00798
1.00136
0.993662
0.985982
0.979679
0.965807
0.950279
0.946924
0.933002
0.921414
0.907667
0.903498
0.890038
0.878218
0.874227
0.862875
0.852939
0.839214
0.83045
0.821234
0.813236
0.799874
0.790542
0.780244
0.771203
0.760963
1.48551
1.47354
1.46282
1.45203
1.44081
1.4353
1.42926
1.41573
1.40202
1.39369
1.37789
1.37563
1.36127
1.34822
1.34521
1.33612
1.32284
1.30859
1.29921
1.29073
1.28127
1.2777
1.26601
1.25609
1.24551
1.2375
1.22473
1.21381
1.20358
1.19205
1.18297
1.17378
1.16714
1.15424
1.14276
1.14067
1.13415
1.1215
1.11028
1.09941
1.08797
1.08095
1.07133
1.0616
1.04866
1.0319
1.026
1.01973
1.01416
1.0107
1.00048
0.992601
0.984066
0.978312
0.968752
0.954686
0.94434
0.932635
0.920472
0.907164
0.900856
0.888699
0.881167
0.876445
0.861196
0.850762
0.839892
0.829471
0.819098
0.81227
0.796027
0.788977
0.784233
0.772171
0.761223
1.48644
1.47546
1.46418
1.45193
1.43922
1.43606
1.42607
1.41509
1.40389
1.39306
1.38002
1.37543
1.36205
1.34932
1.34367
1.33611
1.32304
1.30977
1.30056
1.29057
1.28261
1.27399
1.26514
1.25463
1.24269
1.23479
1.22642
1.21341
1.20422
1.19169
1.1826
1.1721
1.16823
1.15187
1.14596
1.14459
1.13046
1.12061
1.11005
1.09923
1.08847
1.0802
1.07452
1.06088
1.0477
1.0374
1.02821
1.02082
1.01379
1.00585
1.00181
0.991216
0.979362
0.977673
0.967038
0.955901
0.941954
0.932534
0.9216
0.910871
0.9003
0.885737
0.882004
0.879366
0.863301
0.849245
0.840163
0.828367
0.81563
0.812126
0.798898
0.786181
0.783502
0.77188
0.760836
1.48656
1.47437
1.46515
1.4538
1.44174
1.43326
1.42389
1.41506
1.40521
1.39429
1.37869
1.37279
1.36688
1.34929
1.3423
1.33475
1.32375
1.3115
1.30259
1.29043
1.28239
1.27278
1.26417
1.25191
1.24159
1.23338
1.22788
1.21172
1.20025
1.19489
1.18404
1.17424
1.16629
1.15486
1.14742
1.14094
1.13064
1.12053
1.11016
1.0995
1.0883
1.08586
1.0737
1.06048
1.04516
1.04193
1.02938
1.02151
1.01374
1.00598
0.999495
0.990257
0.976499
0.973436
0.965378
0.958015
0.941887
0.932496
0.922269
0.913032
0.902137
0.887471
0.881777
0.874981
0.863295
0.851404
0.841897
0.828893
0.815837
0.805849
0.802496
0.788054
0.780637
0.770803
0.760235
1.48592
1.47448
1.46659
1.45677
1.44185
1.43042
1.42126
1.41557
1.40763
1.39596
1.38241
1.36994
1.36127
1.34874
1.34188
1.33536
1.32497
1.31206
1.30737
1.28965
1.28158
1.27235
1.2624
1.25113
1.24012
1.23665
1.22551
1.21121
1.20139
1.19318
1.18316
1.17525
1.16531
1.15599
1.14781
1.14001
1.13068
1.12064
1.11051
1.10039
1.09069
1.08253
1.07251
1.06168
1.05001
1.0412
1.03079
1.02205
1.01399
1.0066
0.999226
0.986527
0.983134
0.970347
0.962578
0.953854
0.941857
0.931524
0.921893
0.912855
0.901949
0.89111
0.88266
0.873841
0.863411
0.852254
0.841299
0.829897
0.819349
0.80305
0.801849
0.790349
0.779896
0.769505
0.759585
1.48415
1.47391
1.46816
1.45541
1.44139
1.43185
1.41696
1.41507
1.4057
1.39797
1.387
1.37079
1.35877
1.34458
1.3411
1.33812
1.32487
1.31614
1.30421
1.29148
1.28233
1.27213
1.26157
1.25169
1.24207
1.23442
1.22501
1.21305
1.2017
1.19179
1.18046
1.17674
1.16408
1.15589
1.1476
1.14086
1.13156
1.12082
1.11106
1.10086
1.09217
1.08038
1.07166
1.06336
1.05253
1.03904
1.03083
1.02195
1.01313
1.00716
1.00075
0.98841
0.97946
0.973192
0.959712
0.950847
0.940543
0.928885
0.920971
0.913344
0.903128
0.892842
0.883857
0.874287
0.864105
0.852549
0.84084
0.830246
0.82019
0.805794
0.799904
0.790286
0.779419
0.768552
0.758863
1.49264
1.47369
1.46651
1.45561
1.44523
1.4303
1.41898
1.41089
1.40503
1.40035
1.38718
1.37481
1.35836
1.34626
1.34024
1.33217
1.32723
1.31602
1.30522
1.29563
1.28307
1.27108
1.26096
1.25258
1.24293
1.2333
1.22606
1.21521
1.20159
1.19214
1.18115
1.17301
1.16278
1.15608
1.14681
1.1438
1.13456
1.11995
1.11105
1.1006
1.09157
1.08043
1.06972
1.05941
1.05514