/*--------------------------------*- C++ -*----------------------------------*\
  =========                 |
  \\      /  F ield         | OpenFOAM: The Open Source CFD Toolbox
   \\    /   O peration     | Website:  https://openfoam.org
    \\  /    A nd           | Version:  12
     \\/     M anipulation  |
\*---------------------------------------------------------------------------*/
FoamFile
{
    format      ascii;
    class       surfaceScalarField;
    location    "0.3";
    object      phi.water_0;
}
// * * * * * * * * * * * * * * * * * * * * * * * * * * * * * * * * * * * * * //

dimensions      [0 3 -1 0 0 0 0];

internalField   nonuniform List<scalar> 
7375
(
-1.91807e-07
-7.1212e-08
-2.4895e-08
-1.42621e-07
1.20672e-08
-3.5669e-08
6.03283e-08
-4.84079e-08
8.22087e-08
-2.31937e-08
6.12611e-08
2.09475e-08
4.62143e-08
1.51112e-08
4.47966e-08
1.85128e-09
1.50182e-07
3.08076e-08
6.20553e-08
-4.77561e-08
1.1387e-07
-5.2381e-08
1.10088e-07
3.70148e-09
1.13202e-07
-2.96993e-09
1.16977e-07
-3.73851e-09
1.11861e-07
5.067e-09
1.03943e-07
7.85446e-09
1.02853e-07
1.06631e-09
9.85284e-08
5.2927e-09
2.02276e-07
2.9882e-08
1.01318e-07
-3.40694e-08
1.03269e-07
-9.62108e-10
9.39439e-08
8.49461e-09
1.02658e-07
-8.71425e-09
1.1095e-07
-7.21852e-09
1.2067e-07
-9.50527e-09
1.28414e-07
-7.75362e-09
1.2169e-07
7.78617e-09
2.16866e-07
4.03909e-08
9.82525e-08
-1.79736e-08
1.02698e-07
-4.53844e-09
1.02589e-07
-1.06802e-09
1.21413e-07
-1.88238e-08
1.37778e-07
-1.53069e-08
1.42886e-07
-3.7442e-09
1.21622e-07
-2.37771e-08
1.52277e-07
1.28314e-08
1.61684e-07
-9.29532e-09
1.2583e-07
-1.03299e-08
1.58954e-07
1.13054e-08
1.60558e-07
-1.65215e-09
1.53307e-07
7.17928e-09
1.54582e-07
3.15285e-10
1.50686e-07
5.51067e-09
2.71391e-07
1.21307e-08
1.9135e-07
-5.50854e-08
2.07526e-07
-1.40185e-08
1.89252e-07
2.00646e-08
1.63455e-07
2.94235e-08
1.0127e-07
6.06722e-08
8.20717e-08
1.71972e-08
1.11105e-07
-3.05444e-08
1.04572e-07
6.6e-09
9.9539e-08
5.08001e-09
1.02891e-07
-3.35176e-09
1.13549e-07
-9.5098e-09
1.18496e-07
-4.84849e-09
1.37954e-07
-1.93398e-08
1.4293e-07
-4.84904e-09
1.43565e-07
8.28598e-10
1.47576e-07
-2.28968e-09
1.33023e-07
1.31193e-08
1.17415e-07
1.43252e-08
8.93926e-08
2.80509e-08
1.67128e-07
5.59965e-08
1.58316e-07
8.85439e-09
7.81264e-08
-5.46611e-08
5.40899e-08
-2.07158e-08
5.79522e-08
-3.75047e-09
1.09143e-07
-6.46159e-09
1.05671e-07
3.46398e-09
1.06428e-07
-7.91204e-10
1.03046e-07
3.3902e-09
9.9399e-08
3.72377e-09
1.06497e-07
-8.1832e-09
1.45933e-08
-2.10582e-07
-5.66212e-08
-1.55349e-07
-1.69287e-07
-1.21211e-07
-6.89341e-08
-1.51603e-07
-2.23454e-08
-5.75054e-08
1.98084e-08
-1.23132e-07
-4.50854e-08
-8.2588e-08
-2.45992e-08
-6.61375e-08
-1.54147e-08
-4.05663e-08
4.20437e-09
-6.33929e-08
-2.55764e-08
2.21376e-08
-2.22443e-09
-5.48162e-08
-5.38736e-08
-3.31631e-08
-2.46232e-08
-3.42356e-08
-2.31693e-09
-2.58877e-08
-3.28103e-09
2.01811e-10
-1.8692e-08
-7.69885e-09
8.96686e-09
1.15431e-08
-1.43201e-08
1.99879e-08
2.11322e-08
-1.96399e-08
5.21075e-09
-3.41986e-08
1.28987e-08
-9.27017e-08
2.12975e-08
-6.23526e-08
7.50679e-09
-4.99554e-08
-1.91062e-08
-3.59422e-08
-2.35184e-08
-1.10046e-09
-4.33936e-08
9.20848e-09
-2.52275e-09
-6.19446e-09
5.54757e-08
-2.54623e-08
1.02408e-09
-3.99471e-08
9.63397e-09
-1.13518e-07
2.76852e-08
-9.04602e-08
3.89233e-09
-4.80334e-08
-5.72436e-08
-4.08796e-08
-1.08979e-08
-1.92816e-08
-4.55495e-08
-1.83873e-08
-3.26428e-08
7.57011e-09
9.13943e-09
-4.08238e-08
3.77215e-08
-2.86504e-08
-3.30498e-10
-6.1389e-09
-2.4054e-08
-7.27892e-09
8.46553e-09
9.12655e-09
-1.59792e-08
5.90362e-08
-4.49185e-08
1.18165e-07
-5.00115e-08
1.19511e-07
-5.70009e-08
1.62289e-07
-5.78119e-08
1.38829e-07
4.51634e-08
2.03286e-07
9.93727e-08
6.44347e-08
6.46422e-08
2.6609e-08
5.47362e-08
5.77941e-08
7.37929e-08
-8.66545e-08
1.48342e-08
-7.50135e-08
-5.67672e-09
-1.10509e-07
-1.26578e-08
-6.20418e-08
-1.32091e-08
-3.22958e-08
-3.45943e-08
2.61998e-09
-5.42821e-08
1.20727e-08
-1.41585e-08
-9.96492e-09
-2.1778e-08
3.22983e-08
2.38338e-10
1.76589e-08
2.76252e-08
2.21252e-09
2.97718e-08
-1.21972e-08
4.25853e-08
-1.16e-08
5.52825e-08
-3.69579e-08
3.3712e-08
-8.92327e-08
-2.00507e-09
-9.5308e-08
-1.27576e-08
-8.66085e-08
-1.24496e-08
-8.42618e-08
-8.83177e-09
-6.82343e-08
-1.2563e-08
-6.1479e-08
-8.24212e-09
-5.8687e-08
-3.30183e-13
-9.33325e-08
-6.8598e-09
-7.00645e-08
1.42687e-08
1.68288e-08
-2.1699e-07
-2.89752e-08
-1.32827e-07
-8.84345e-08
-1.09357e-07
-9.03771e-08
-1.46028e-07
-1.18862e-07
-1.30517e-07
3.93325e-09
-1.32806e-07
-4.27959e-08
-1.2859e-07
-2.93657e-08
-1.36798e-07
-5.96823e-09
-1.19915e-07
-1.26791e-08
-1.26511e-07
-2.02041e-08
-1.03723e-07
-2.499e-08
-1.18933e-07
-3.86638e-08
-1.20834e-07
-2.27216e-08
-1.24079e-07
9.18063e-10
-1.37633e-07
8.7456e-09
-4.92171e-08
2.88771e-08
-1.92328e-07
1.44438e-08
-9.61048e-08
2.65572e-08
-1.91248e-07
-1.60672e-08
-1.83407e-07
-2.62971e-09
-1.90073e-07
1.95642e-08
-1.90817e-07
2.16072e-08
-1.84103e-07
7.92803e-10
-1.71201e-07
-3.23387e-08
-2.06704e-07
9.63633e-09
-1.43284e-07
2.88733e-08
-1.57199e-07
1.28285e-08
-2.41414e-07
-3.69171e-08
-2.23168e-07
2.50932e-08
-2.35923e-07
1.99896e-08
-2.47304e-07
-6.10011e-09
-2.52248e-07
8.83669e-09
-1.41729e-07
1.38816e-08
-2.17232e-07
-6.98088e-08
-1.57722e-07
-1.06143e-07
-1.70825e-07
-1.95393e-08
-1.56671e-07
-4.92101e-09
-1.57229e-07
3.75123e-08
-1.65039e-07
5.7986e-09
-6.502e-08
1.16148e-08
-1.20062e-07
-7.0767e-08
-1.16365e-07
-1.9839e-08
-1.14751e-07
-4.63141e-08
-7.66407e-08
-8.86373e-08
-7.62491e-08
-5.79698e-08
2.47946e-08
-2.37642e-08
-3.35956e-08
-3.01985e-08
-1.96956e-09
6.8418e-08
-2.03618e-08
8.23753e-08
-2.16724e-08
5.70476e-08
-4.16159e-08
9.27726e-08
-1.29846e-07
1.02489e-07
-1.25223e-07
3.44679e-08
-1.30716e-07
-7.16474e-09
-1.23725e-07
-2.02e-08
-1.38305e-07
-2.00134e-08
-5.66278e-08
-1.0786e-09
-1.45674e-07
-5.82017e-08
-1.39145e-07
-2.97928e-08
-1.32543e-07
-6.3635e-09
-1.22188e-07
1.72703e-08
-1.32141e-07
4.01346e-08
-1.32584e-07
4.30286e-08
-1.23027e-07
4.62904e-08
-1.22846e-07
3.31872e-08
-1.24775e-07
-5.54952e-11
-1.26981e-07
-1.05519e-08
-1.34897e-07
-4.65968e-09
-1.30462e-07
-1.32663e-08
-1.31713e-07
-1.14401e-08
-1.18133e-07
-2.18213e-08
-1.43943e-07
2.58096e-08
-1.46321e-07
-4.41198e-09
-1.33553e-07
1.50158e-09
9.33626e-09
-1.95272e-07
-3.77371e-08
-1.59531e-07
-9.69055e-08
-1.84536e-07
-6.11957e-08
-1.17546e-07
-5.27478e-08
-2.20992e-07
-7.35374e-08
-1.53834e-07
-6.45014e-08
-1.3218e-07
-5.15511e-08
-1.2263e-07
-1.40266e-08
-1.24181e-07
-1.12576e-08
-1.32927e-07
-1.14574e-08
-1.28677e-07
-2.92406e-08
-1.29921e-07
-3.74202e-08
-1.25065e-07
-2.60362e-08
-1.34067e-07
1.13892e-08
-1.56802e-07
2.85427e-08
-7.15787e-08
7.66373e-08
-1.99995e-07
9.19331e-09
-1.88336e-07
1.43568e-08
-1.99526e-07
-4.87786e-09
-2.06917e-07
4.76174e-09
-2.20137e-07
3.27834e-08
-2.22917e-07
2.41407e-08
-2.37008e-07
1.24667e-08
-1.54954e-07
2.12941e-08
-2.35065e-07
-4.34178e-08
-2.24059e-07
1.75726e-08
-2.37731e-07
-1.82669e-08
-2.51498e-07
1.88595e-08
-2.42736e-07
1.64201e-08
-2.55069e-07
3.4595e-08
-2.65447e-07
4.27822e-09
-2.55839e-07
-8.61221e-10
-2.33109e-07
-8.84858e-09
-2.84602e-07
-2.12188e-08
-1.44877e-07
2.55058e-08
-2.43664e-07
-5.35772e-08
-1.67703e-07
-7.91707e-08
-2.29933e-07
-3.28714e-08
-1.71341e-07
-5.57082e-08
-1.42982e-07
-1.83211e-08
-8.94898e-08
1.14286e-08
-1.73601e-07
-1.12114e-07
-1.43232e-07
-3.20439e-08
-1.66166e-07
-6.626e-08
-1.54221e-07
-7.06349e-08
-1.31252e-07
-4.64902e-08
-1.43749e-07
-1.93655e-08
-1.63117e-07
4.49438e-08
-1.4568e-07
1.08598e-07
-8.84365e-08
1.34578e-07
-1.11715e-07
1.179e-07
-1.94663e-07
6.36676e-09
-1.31532e-07
-2.89586e-08
-1.44563e-07
5.86649e-09
-1.48565e-07
-1.61978e-08
-1.5483e-07
-1.37475e-08
-1.39662e-07
-1.62466e-08
-1.63793e-07
-3.43141e-08
-1.51757e-07
-4.22598e-08
-1.92096e-07
3.39759e-08
-1.82038e-07
5.30169e-09
-1.71831e-07
2.96225e-08
-1.56376e-07
2.93266e-08
-1.53884e-07
4.37987e-08
-1.40143e-07
1.94465e-08
-1.4704e-07
6.84119e-09
-1.46563e-07
-1.10281e-08
-1.60105e-07
8.88243e-09
-1.59432e-07
-1.39385e-08
-1.52795e-07
-1.82634e-08
-8.34244e-08
4.31113e-08
-2.10656e-07
1.87381e-08
-1.67266e-07
-4.78016e-08
-1.72176e-07
6.34658e-09
6.39748e-09
-1.80707e-07
-6.3456e-08
-1.66212e-07
-8.41949e-08
-1.38214e-07
-8.74984e-08
-1.40294e-07
-5.06672e-08
-1.86462e-07
-2.63508e-08
-2.05776e-07
-4.72866e-08
-1.34886e-07
-3.00623e-08
-1.76781e-07
-6.00064e-08
-1.56434e-07
-3.34081e-08
-1.42227e-07
-2.56647e-08
-1.15604e-07
-5.52992e-08
-1.18272e-07
-3.32073e-08
-1.17495e-07
-2.79997e-08
-1.4097e-07
-1.14581e-08
-1.12844e-07
4.85597e-08
-8.20089e-08
4.58565e-08
-8.55385e-08
1.20159e-08
-1.69638e-07
-3.67198e-08
-1.83988e-07
9.47275e-09
-2.1514e-07
3.59131e-08
-1.99732e-07
1.92173e-08
-2.04442e-07
2.88503e-08
-2.01737e-07
7.67663e-09
-1.85021e-07
2.47331e-09
-1.37439e-07
4.4231e-08
-2.17703e-07
-3.50647e-08
-2.04402e-07
-2.94819e-08
-1.49395e-07
-3.49926e-08
-1.5957e-07
2.49205e-08
-1.87621e-07
1.62508e-08
-1.65615e-07
2.70403e-08
-1.81056e-07
1.45791e-08
-1.9653e-07
6.62618e-09
-2.16154e-07
-1.59518e-09
-1.93711e-07
2.80321e-09
-2.23075e-07
-2.42131e-08
-1.22987e-07
-4.41519e-08
-2.40588e-07
-5.14979e-08
-1.2751e-07
-3.59493e-08
-1.0065e-07
-4.38798e-08
-1.87004e-07
-8.05823e-08
-9.04674e-08
-2.86577e-08
-1.77677e-07
-7.81042e-08
-1.88496e-07
-5.91762e-08
-2.05699e-07
-5.34322e-08
-2.19271e-07
-3.30565e-08
-2.38164e-07
-4.72046e-10
-2.36564e-07
4.53153e-08
-2.0571e-07
7.88526e-08
-1.564e-07
8.38949e-08
-1.82137e-07
9.43105e-09
-1.94375e-07
1.6622e-08
-9.94515e-08
1.18051e-08
-1.89414e-07
-3.74586e-08
-1.84739e-07
-2.08729e-08
-1.81285e-07
-1.72012e-08
-1.79323e-07
-1.63792e-08
-1.78835e-07
-3.69814e-08
-1.09667e-07
2.24169e-08
-2.39821e-07
-1.12606e-08
-2.01063e-07
1.30221e-08
-1.89899e-07
1.62933e-08
-1.94095e-07
3.15852e-08
-1.83474e-07
3.31778e-08
-1.9625e-07
3.22234e-08
-2.02121e-07
1.2712e-08
-2.13172e-07
2.32682e-11
-2.15353e-07
1.10642e-08
-2.43252e-07
1.14788e-08
-1.45052e-07
1.94241e-08
-1.5845e-07
5.79901e-08
-2.88279e-07
-3.05039e-08
-1.57354e-07
1.92923e-09
-2.49448e-07
-3.45054e-08
-6.08019e-09
-1.68824e-07
-9.63373e-08
-1.86213e-07
-8.94685e-08
-9.97098e-08
6.89817e-09
-1.07966e-07
-4.08925e-08
-1.96888e-07
-7.03754e-08
-1.59749e-07
-8.73246e-08
-1.57135e-07
-3.36304e-08
-1.56335e-07
-6.07978e-08
-1.6538e-07
-6.82322e-08
-1.47595e-07
-4.152e-08
-1.22129e-07
-3.52169e-08
-1.232e-07
-3.33695e-08
-1.26049e-07
-2.66939e-08
-1.44383e-07
5.51956e-09
-1.59073e-07
1.80213e-08
-1.20049e-07
5.24652e-08
-5.81898e-08
8.59679e-08
-2.87065e-08
6.86933e-08
-1.73317e-07
1.978e-08
-2.03844e-07
2.37521e-08
-1.81336e-07
4.10246e-08
-1.8172e-07
2.76784e-08
-1.88226e-07
1.41834e-08
-9.41697e-08
4.36801e-08
-1.65341e-07
-1.79911e-08
-1.78714e-07
-2.33782e-08
-1.94613e-07
-1.5568e-08
-1.03095e-07
8.81565e-09
-1.82431e-07
-2.87409e-08
-1.51795e-07
-1.43845e-08
-1.05542e-07
-1.92133e-08
-1.00851e-07
9.88893e-09
-1.56975e-07
6.27504e-08
-1.92893e-07
3.43228e-08
-2.01084e-07
1.09937e-08
-1.86307e-07
-4.04778e-08
-6.96213e-08
-2.56035e-08
-1.88689e-07
-1.1393e-07
-1.33641e-07
-8.77775e-08
-1.2719e-07
-4.76696e-08
-1.41824e-07
-6.59475e-08
-1.62747e-07
-9.0887e-09
-1.98587e-07
-4.30611e-08
-2.19482e-07
-3.82807e-08
-2.42695e-07
-2.96743e-08
-2.56913e-07
-1.88381e-08
-2.54523e-07
-2.82771e-09
-2.24388e-07
1.5027e-08
-1.80969e-07
3.57986e-08
-2.09935e-07
1.1072e-07
-1.52104e-07
8.63973e-08
-1.69586e-07
3.56557e-08
-1.71999e-07
1.40983e-08
-1.97807e-07
-1.16505e-08
-2.00953e-07
-1.77274e-08
-2.14795e-07
-3.3589e-09
-2.34555e-07
9.88458e-10
-1.66614e-07
3.03841e-08
-1.55161e-07
1.40178e-08
-2.65496e-07
-3.65529e-08
-2.44555e-07
-1.30418e-08
-2.22296e-07
-3.27658e-09
-2.12521e-07
2.38357e-08
-2.05439e-07
2.60953e-08
-2.15492e-07
4.22771e-08
-2.15134e-07
1.23543e-08
-1.96178e-07
-1.91282e-08
-2.14916e-07
2.98028e-08
-2.28128e-07
2.23639e-08
-1.16071e-07
4.28547e-08
-2.13574e-07
-2.2393e-08
-2.4083e-07
-7.91851e-10
-2.05378e-07
1.07931e-08
-2.36744e-07
-5.58625e-09
-3.26494e-09
-1.25778e-07
9.61405e-09
-1.21696e-07
-7.66072e-08
-1.51278e-07
-9.37098e-08
-1.43222e-07
-5.09916e-08
-1.80306e-07
-8.12482e-08
-5.10297e-08
-3.48003e-08
-1.18219e-07
-9.76789e-08
-9.62447e-08
-8.60619e-08
-1.56255e-07
-7.60312e-09
-1.54046e-07
-4.21513e-08
-1.66561e-07
-2.48868e-08
-1.7744e-07
-2.3067e-08
-2.17185e-07
1.30513e-08
-2.11431e-07
-2.36708e-10
-1.78556e-07
-1.48858e-08
-1.50336e-07
2.42447e-08
-1.29951e-07
6.47056e-08
-9.76055e-08
3.6348e-08
-1.55376e-07
7.75507e-08
-1.91627e-07
6.00027e-08
-1.77153e-07
2.69688e-08
-1.67518e-07
1.80434e-08
-1.47251e-07
-6.1458e-09
-1.40429e-07
3.64857e-08
-1.58549e-07
-5.46826e-11
-1.61779e-07
-1.99445e-08
-1.64774e-07
-1.25736e-08
-1.50605e-07
-5.44296e-09
-1.79042e-07
-3.04334e-10
-1.75749e-07
-1.76774e-08
-9.46059e-08
3.42966e-08
-8.99446e-08
5.2277e-09
-1.83193e-07
-2.30716e-08
-1.49447e-07
5.76742e-10
-1.26647e-07
-1.04075e-08
-7.90699e-08
-4.2941e-08
-5.13035e-08
-5.39363e-08
-9.7208e-08
-6.64112e-08
-1.29486e-07
-1.13945e-08
-1.7336e-07
-5.11581e-09
-9.45954e-08
-1.01169e-08
-2.00556e-07
-3.60745e-08
-2.21707e-07
-2.39555e-08
-2.35521e-07
-2.44671e-08
-2.27394e-07
-3.74195e-08
-2.19327e-07
-2.44179e-08
-2.01791e-07
-1.8326e-08
-1.78567e-07
-1.21607e-08
-1.02586e-07
9.46404e-08
-2.0252e-07
3.46964e-08
-1.51268e-07
7.85879e-08
-1.72055e-07
5.48997e-08
-1.82381e-07
2.44243e-08
-2.09339e-07
1.53081e-08
-1.90818e-07
-3.62482e-08
-2.0259e-07
8.3285e-09
-1.75664e-07
-2.62045e-08
-1.51225e-07
5.63534e-09
-1.84879e-07
4.76719e-08
-2.04821e-07
-1.69835e-08
-2.1532e-07
-2.40887e-09
-2.12565e-07
-3.82966e-09
-2.09865e-07
2.09247e-08
-1.87213e-07
1.31549e-09
-2.09533e-07
6.45977e-08
-2.20444e-07
2.10166e-08
-1.29587e-07
2.57028e-08
-2.1292e-07
-1.98457e-08
-1.89145e-07
-1.40997e-09
-1.62183e-07
1.54556e-08
-1.9242e-07
7.8439e-09
-2.04867e-07
1.16557e-08
-1.97174e-07
3.20953e-09
-2.04374e-07
1.61405e-09
3.44409e-09
-1.39438e-07
-4.85855e-08
-1.47128e-07
-4.94447e-08
-1.70754e-07
-7.20157e-08
-1.86706e-07
-7.88692e-08
-1.7584e-07
-4.41375e-08
-1.85371e-07
-2.69666e-08
-2.2911e-07
-6.15025e-08
-1.57938e-07
-2.10299e-08
-2.95083e-07
-4.62283e-08
-2.78434e-07
-1.73035e-08
-3.20292e-07
1.36698e-08
-2.61963e-07
5.75928e-08
-3.31868e-07
-5.20603e-08
-3.16076e-07
-5.79998e-08
-2.67236e-07
-1.63838e-08
-2.43806e-07
-1.93159e-09
-2.23164e-07
4.40639e-08
-1.4243e-07
8.99169e-08
-2.17838e-07
1.8655e-08
-2.01866e-07
4.40311e-08
-1.78984e-07
4.04533e-09
-1.95955e-07
3.30148e-08
-1.16493e-07
5.12807e-08
-2.05616e-07
-6.16138e-09
-1.98162e-07
-7.58496e-09
-1.7397e-07
-4.45869e-08
-1.94689e-07
6.30646e-09
-1.85759e-07
-1.43738e-08
-1.96968e-07
-3.35209e-08
-1.73928e-07
2.2536e-09
-1.45845e-07
6.1503e-09
-1.29418e-07
-9.61375e-09
-1.32288e-07
-1.99973e-08
-1.01757e-07
-2.8624e-08
-7.05874e-08
-4.20011e-08
-7.78369e-08
-3.80317e-08
-1.22857e-07
-5.4701e-08
-1.3826e-07
-7.07531e-09
-1.87247e-07
-7.75331e-09
-2.0048e-07
1.00272e-08
-1.79994e-07
1.41646e-08
-2.04901e-07
-1.15344e-08
-2.15905e-07
-1.29512e-08
-2.3338e-07
-4.65914e-09
-2.21737e-07
-4.68231e-08
-2.22421e-07
-2.59725e-08
-2.33207e-07
-1.22502e-08
-1.37681e-07
2.67322e-08
-2.05197e-07
-1.85075e-08
-1.7894e-07
5.5301e-08
-1.83592e-07
8.40422e-08
-1.96004e-07
6.73113e-08
-2.03672e-07
3.20928e-08
-2.25341e-07
-7.78998e-09
-1.43474e-07
6.17889e-08
-2.4827e-07
-2.2329e-08
-1.48605e-07
7.25807e-09
-1.07146e-07
-3.43072e-08
-2.15802e-07
-2.25123e-08
-2.15488e-07
2.7753e-08
-2.05265e-07
-1.26314e-08
-2.15796e-07
8.9037e-09
-2.15502e-07
1.86659e-08
-1.29222e-07
4.85017e-08
-2.28971e-07
-1.34057e-08
-1.94751e-07
3.15647e-08
-1.91834e-07
2.2756e-08
-1.94863e-07
-1.68169e-08
-1.94322e-07
-1.95063e-09
-1.93263e-07
1.43971e-08
-2.04232e-07
1.86228e-08
-2.06305e-07
1.37289e-08
-1.99361e-07
-3.77315e-09
-2.23101e-07
2.53547e-08
8.44666e-09
-2.05783e-07
-4.31272e-08
-1.54333e-07
-7.62289e-08
-2.11488e-07
-6.00898e-08
-2.13662e-07
-2.92634e-08
-2.16991e-07
-4.34726e-08
-2.51096e-07
-3.83694e-08
-2.43508e-07
-2.17611e-08
-2.46971e-07
-1.71379e-08
-2.94317e-07
1.11805e-09
-2.22302e-07
4.49837e-08
-2.50429e-07
4.16574e-08
-3.29934e-07
-4.25603e-08
-3.32609e-07
-4.93853e-08
-3.65936e-07
-2.78149e-08
-3.64538e-07
-2.17075e-08
-3.32624e-07
-3.00881e-08
-2.75682e-07
-9.48537e-09
-2.52278e-07
-2.32597e-08
-2.29825e-07
-3.79753e-09
-2.29997e-07
1.7808e-09
-1.90006e-07
8.37024e-09
-2.14564e-07
5.50722e-08
-2.01836e-07
3.80297e-08
-2.33291e-07
2.52308e-08
-2.3035e-07
-1.27458e-08
-1.32496e-07
-5.848e-09
-1.95702e-07
-6.27295e-08
-1.59563e-07
-5.08809e-08
-1.41456e-07
-5.01998e-08
-1.17601e-07
-2.1842e-08
-9.97877e-08
-1.19053e-08
-9.20149e-08
-1.76431e-08
-7.98873e-08
-3.25762e-08
-1.12773e-07
2.29267e-09
-1.36415e-07
-2.13604e-08
-1.67377e-07
-5.08922e-08
-1.62621e-07
-1.24235e-08
-1.74635e-07
4.93914e-09
-1.94902e-07
1.25925e-08
-1.98282e-07
1.34071e-08
-1.89417e-07
5.29999e-09
-1.99774e-07
-1.17713e-09
-2.0388e-07
-1.09249e-08
-2.26524e-07
-2.69659e-08
-2.05483e-07
-2.12633e-08
-2.03766e-07
-2.58749e-08
-2.27269e-07
8.95742e-09
-2.64265e-07
5.83871e-08
-2.1404e-07
6.98688e-08
-2.13144e-07
5.65893e-08
-2.71263e-07
7.7789e-09
-2.40731e-07
3.67793e-08
-2.3505e-07
2.64121e-08
-1.44802e-07
3.73612e-08
-1.96043e-07
-1.99161e-08
-2.07419e-07
-1.31811e-08
-1.90412e-07
-9.82256e-09
-8.93214e-08
-1.83179e-10
-1.89251e-07
-5.74401e-08
-1.83072e-07
-2.56055e-08
-1.61966e-07
1.28982e-08
-1.69918e-07
1.68565e-08
-1.7002e-07
1.89583e-08
-1.56737e-07
3.43728e-08
-1.83227e-07
1.30853e-08
-1.60021e-07
6.7263e-09
-1.8777e-07
5.27556e-09
-1.74553e-07
1.66501e-08
-1.85878e-07
9.37484e-09
-1.87511e-07
1.79435e-08
-1.90713e-07
2.18246e-08
-2.0956e-07
2.84922e-08
-1.30937e-07
5.32901e-08
-2.28207e-07
-1.03414e-08
-1.33019e-08
-2.28435e-07
-1.66614e-08
-1.75403e-07
-1.00426e-07
-2.01029e-07
-3.23225e-08
-1.96333e-07
-3.39597e-08
-2.0788e-07
-2.962e-08
-2.34198e-07
-1.16606e-08
-2.41831e-07
-1.41279e-08
-2.25051e-07
-3.3918e-08
-2.54341e-07
3.01008e-08
-2.25723e-07
1.63659e-08
-2.24702e-07
-4.13187e-09
-2.50511e-07
-1.67508e-08
-2.54591e-07
-5.38422e-10
-2.63141e-07
-1.92643e-08
-2.66336e-07
-1.82916e-08
-2.78926e-07
-1.70174e-08
-2.8759e-07
-3.75537e-09
-2.24752e-07
5.01058e-08
-2.46933e-07
2.06758e-08
-2.41131e-07
-4.02165e-09
-1.4428e-07
4.73799e-08
-2.43827e-07
2.14557e-08
-2.13969e-07
5.68382e-09
-2.20105e-07
-1.11547e-08
-1.89164e-07
6.28554e-10
-1.71931e-07
-2.64351e-08
-1.81558e-07
-5.3201e-08
-1.68403e-07
-6.21837e-08
-1.52347e-07
-6.74562e-08
-1.6564e-07
-8.77212e-09
-1.77199e-07
-2.27539e-09
-2.15311e-07
1.80682e-08
-1.26024e-07
1.70066e-08
-2.12993e-07
-4.23892e-08
-2.05345e-07
-3.09635e-08
-2.1797e-07
-3.77475e-08
-1.81851e-07
-4.9043e-08
-1.6821e-07
-8.70113e-09
-1.70381e-07
1.47633e-08
-2.08899e-07
5.19253e-08
-1.90495e-07
-1.31044e-08
-1.82707e-07
-8.96416e-09
-1.80267e-07
-1.1526e-08
-1.71695e-07
-3.52657e-08
-1.73021e-07
-2.1688e-08
-1.96846e-07
-2.0714e-09
-2.33352e-07
4.55553e-08
-2.5285e-07
3.21939e-08
-2.09714e-07
7.07877e-08
-2.42816e-07
4.74014e-08
-2.25894e-07
3.51725e-08
-2.22665e-07
3.1246e-08
-2.03455e-07
9.27731e-09
-1.69339e-07
3.24599e-09
-1.51834e-07
-3.93517e-08
-1.69744e-07
4.68111e-09
-1.7942e-07
-1.47929e-10
-1.58978e-07
-2.06243e-08
-1.60915e-07
-5.60897e-08
-1.69899e-07
-1.63593e-08
-1.54678e-07
-2.32323e-09
-1.44881e-07
7.06063e-09
-1.45105e-07
2.06626e-08
-1.45769e-07
3.53948e-08
-1.51538e-07
1.73672e-08
-1.18424e-07
-2.63874e-08
-1.5213e-07
3.85343e-08
-1.5859e-07
2.31108e-08
-1.7607e-07
2.68552e-08
-1.91523e-07
3.3396e-08
-1.83511e-07
1.40358e-08
-1.67573e-07
1.25538e-08
-1.34779e-07
1.99526e-08
-1.63609e-07
1.86794e-08
-1.47969e-08
-2.1356e-07
-1.41103e-08
-9.81379e-08
-4.87583e-08
-2.2827e-07
-7.92588e-08
-1.75613e-07
-3.97113e-08
-1.78883e-07
-2.66181e-08
-1.72874e-07
-1.94951e-08
-2.1881e-07
-1.29595e-08
-1.21338e-07
4.89185e-08
-2.0917e-07
-1.50139e-08
-1.91551e-07
-3.38771e-09
-1.828e-07
-1.28826e-08
-1.79077e-07
-2.04736e-08
-1.62589e-07
-1.70269e-08
-1.59677e-07
-2.21768e-08
-1.65266e-07
-1.10165e-08
-1.9133e-07
9.13903e-09
-1.94417e-07
-4.60408e-09
-2.0847e-07
1.84138e-08
-2.2026e-07
3.45924e-08
-1.27253e-07
8.20421e-08
-1.05658e-07
2.68628e-08
-1.91881e-07
-2.50516e-08
-1.68105e-07
-2.00498e-08
-1.66739e-07
-1.25207e-08
-1.44917e-07
-1.97088e-08
-1.40992e-07
-2.89362e-08
-1.61298e-07
-3.41259e-08
-1.82149e-07
-4.48364e-08
-1.00956e-07
-1.29625e-08
-1.86716e-07
-5.68652e-08
-2.16999e-07
2.80077e-08
-2.1619e-07
1.70757e-08
-1.96679e-07
-2.67822e-09
-1.84002e-07
-5.54984e-08
-1.96218e-07
-1.87472e-08
-2.59881e-07
2.3264e-08
-1.83913e-07
1.06762e-08
-1.87668e-07
-3.06963e-09
-1.69568e-07
-3.33661e-09
-2.57965e-07
-3.87476e-08
-2.1933e-07
-6.97247e-09
-2.07583e-07
-2.07102e-08
-2.28746e-07
-3.51311e-08
-2.17038e-07
-2.56557e-09
-2.14183e-07
-2.70027e-08
-2.22511e-07
6.25611e-09
-2.67411e-07
5.01744e-08
-2.56647e-07
6.64162e-08
-2.49862e-07
6.13855e-08
-2.31199e-07
2.8448e-08
-2.21252e-07
2.55843e-08
-2.07405e-07
1.73991e-08
-1.92314e-07
-5.87303e-09
-1.88946e-07
-8.85022e-11
-9.21313e-08
-9.23632e-10
-1.55603e-07
-6.70418e-08
-1.92882e-07
-9.70154e-09
-1.85143e-07
-2.63951e-08
-2.01279e-07
4.81354e-09
-2.05004e-07
-1.26337e-08
-1.98646e-07
-8.68084e-09
-1.93561e-07
1.97607e-09
-1.79031e-07
4.30588e-09
-1.60688e-07
-2.78126e-08
-1.95449e-07
5.32248e-08
-1.05922e-07
6.42373e-08
-1.7868e-07
-2.1875e-08
-1.63448e-07
6.05609e-09
-1.56642e-07
2.00499e-08
-1.82868e-07
5.96226e-08
-1.72442e-07
3.60961e-09
-1.61095e-07
1.20617e-09
-1.59143e-07
1.63766e-08
-1.93232e-07
7.53992e-09
2.15887e-08
-1.63037e-07
-5.51933e-08
-1.28706e-07
-6.4745e-08
-1.46037e-07
-5.87033e-08
-1.43063e-07
-4.41445e-08
-1.86439e-07
-2.87456e-08
-1.59966e-07
7.00986e-10
-1.79748e-07
6.82277e-09
-1.45147e-07
1.43176e-08
-1.58245e-07
-2.06952e-09
-1.52259e-07
-9.37397e-09
-1.60063e-07
-5.07851e-09
-1.65199e-07
-1.53379e-08
-1.37613e-07
-4.50723e-08
-1.4344e-07
-1.63501e-08
-1.69781e-07
1.34547e-08
-1.95332e-07
-1.04446e-08
-1.64172e-07
1.09961e-08
-1.86218e-07
-4.49559e-09
-1.67955e-07
6.04801e-08
-1.21538e-07
3.56247e-08
-1.13646e-07
1.89705e-08
-1.37323e-07
-1.63e-09
-1.57099e-07
-2.76919e-10
-1.67649e-07
-1.97061e-09
-1.7017e-07
-1.71875e-08
-1.73094e-07
-2.80737e-08
-1.85797e-07
-6.77016e-08
-2.03915e-07
1.99451e-08
-1.77171e-07
-4.13817e-08
-1.03425e-07
5.07606e-09
-2.4506e-07
-8.37271e-09
-2.23279e-07
-4.7049e-09
-2.35606e-07
9.64886e-09
-1.55924e-07
4.38898e-08
-1.65647e-07
-9.02356e-09
-2.49789e-07
-7.24033e-08
-2.33745e-07
3.9291e-08
-2.2404e-07
-1.27743e-08
-2.2418e-07
-3.19706e-09
-2.47491e-07
-1.54364e-08
-2.40803e-07
-1.36601e-08
-2.45271e-07
-1.62419e-08
-2.49009e-07
-3.17167e-08
-2.885e-07
3.39824e-08
-2.27541e-07
4.77263e-08
-2.36086e-07
1.94665e-08
-2.90633e-07
-3.11599e-08
-2.57389e-07
3.05468e-08
-2.49167e-07
1.37038e-08
-2.11726e-07
3.53222e-08
-2.13751e-07
2.54496e-08
-1.98589e-07
2.12265e-10
-1.49005e-07
-5.54571e-08
-1.4534e-07
-2.23371e-09
-1.42013e-07
-5.69929e-09
-7.74221e-08
3.3641e-09
-2.17066e-07
-4.82392e-08
-1.86517e-07
-1.21758e-08
-1.8245e-07
7.4623e-10
-1.88889e-07
-6.19403e-09
-1.9022e-07
-7.34996e-09
-2.04049e-07
1.58052e-08
-2.11038e-07
1.12957e-08
-1.22513e-07
1.96994e-08
-2.08761e-07
6.52681e-09
-2.17005e-07
6.81377e-08
-1.5152e-07
4.81024e-08
-1.57957e-07
1.40391e-08
-1.31149e-07
-6.75784e-09
-2.179e-07
-3.2697e-08
-1.9653e-07
2.70076e-08
-1.63778e-07
-3.15464e-08
-1.68829e-07
2.14275e-08
-2.23055e-07
6.16891e-08
-6.30608e-10
-2.07819e-07
-7.85373e-08
-1.76996e-07
-1.06723e-07
-1.41507e-07
-4.63017e-08
-1.47091e-07
-4.00047e-08
-1.63643e-07
-1.18998e-08
-1.59381e-07
-3.56116e-09
-1.64388e-07
1.18292e-08
-1.54806e-07
4.73541e-09
-1.31935e-07
-2.494e-08
-1.31007e-07
-1.03026e-08
-1.58938e-07
2.28523e-08
-1.878e-07
1.16087e-08
-1.18711e-07
2.15257e-08
-1.22691e-07
-9.90785e-09
-2.01285e-07
-4.08974e-08
-2.02436e-07
-1.11277e-08
-1.85452e-07
-5.98753e-09
-7.55942e-08
2.07205e-08
-1.39499e-07
-8.56163e-09
-1.23982e-07
1.86843e-08
-1.24593e-07
1.9582e-08
-1.40332e-07
1.28079e-08
-2.05639e-07
1.98008e-08
-1.65363e-07
4.61869e-09
-1.73405e-07
-9.14546e-09
-1.9105e-07
-1.23776e-08
-1.1469e-07
-7.67691e-09
-2.29824e-07
-4.28206e-08
-1.31026e-07
3.88905e-08
-8.49337e-08
-4.10681e-08
-2.15582e-07
-5.67948e-08
-2.2515e-07
4.96312e-08
-2.04845e-07
-1.06567e-08
-1.65726e-07
4.7715e-09
-1.80868e-07
4.27342e-09
-1.24011e-07
6.42631e-09
-1.9352e-07
-6.97161e-08
-2.13149e-07
5.16222e-08
-2.28924e-07
1.25786e-08
-2.30804e-07
-1.34193e-08
-2.4391e-07
-5.54242e-10
-2.68019e-07
5.1335e-09
-1.99209e-07
3.51608e-08
-2.88653e-07
-8.84458e-09
-2.54785e-07
1.33715e-08
-2.69113e-07
3.37952e-08
-1.74052e-07
9.44361e-09
-2.53274e-07
-2.60435e-08
-2.3881e-07
-3.33609e-09
-1.92984e-07
-7.70752e-09
-1.92802e-07
-1.94992e-08
-1.96531e-07
3.90114e-09
-8.32776e-08
1.09261e-08
-1.66182e-07
-5.3632e-08
-1.50033e-07
-2.18484e-08
-1.29267e-07
-1.74359e-08
-1.63185e-07
-1.43204e-08
-1.67504e-07
-7.85676e-09
-1.66411e-07
-3.46182e-10
-1.69941e-07
-2.66423e-09
-1.62388e-07
-1.4903e-08
-1.94577e-07
4.75104e-08
-2.26101e-07
4.05131e-08
-1.35127e-07
6.44122e-08
-1.49836e-07
2.26818e-08
-2.35165e-07
-2.58678e-08
-1.55147e-07
-3.27403e-08
-1.76667e-07
3.55594e-08
-1.67302e-07
2.8645e-08
-2.20329e-07
2.033e-08
-2.27197e-07
-1.08911e-08
-1.38916e-07
5.92426e-08
-1.36166e-07
1.86767e-08
-2.31912e-07
-2.16348e-08
1.82196e-08
-2.30848e-07
-4.21313e-08
-2.10051e-07
-1.04766e-07
-2.26642e-07
-2.80399e-08
-2.18637e-07
-4.80106e-08
-1.6968e-07
-6.0857e-08
-1.8235e-07
9.01765e-09
-1.7736e-07
6.8383e-09
-1.93142e-07
2.05182e-08
-1.17631e-07
3.38518e-08
-1.28842e-07
9.08395e-10
-2.18531e-07
-2.17617e-08
-2.01381e-07
-5.54222e-09
-1.81603e-07
1.52854e-09
-1.8744e-07
-4.07067e-09
-2.12461e-07
-1.41262e-08
-2.01923e-07
-2.16664e-08
-2.01792e-07
-8.17821e-09
-1.73431e-07
-7.64032e-09
-1.72943e-07
-9.13797e-09
-1.68148e-07
1.38895e-08
-1.70514e-07
2.02085e-08
-1.8459e-07
2.68836e-08
-2.30761e-07
2.28854e-08
-1.87731e-07
6.35629e-09
-1.91804e-07
-5.07232e-09
-2.14745e-07
-3.42043e-08
-1.72248e-07
-5.32719e-09
-1.99864e-07
-1.52049e-08
-1.97679e-07
-8.0617e-09
-1.06158e-07
4.60115e-08
-1.25094e-07
-3.82492e-08
-2.05004e-07
-4.95291e-08
-2.177e-07
4.68074e-08
-1.7607e-07
-3.68586e-08
-1.9424e-07
2.2217e-08
-2.05398e-07
1.55827e-08
-1.35031e-07
-4.39658e-09
-2.27223e-07
-3.38786e-08
-2.29116e-07
1.68095e-08
-2.23089e-07
2.48691e-08
-2.33871e-07
7.95199e-09
-2.30958e-07
2.22119e-09
-2.11209e-07
1.49012e-08
-2.25715e-07
5.66202e-09
-2.19094e-07
6.75059e-09
-2.13681e-07
-1.42055e-08
-1.64185e-07
4.26298e-09
-1.7419e-07
-1.62015e-08
-1.55939e-07
-2.15532e-08
-1.48424e-07
-1.68128e-08
-1.65298e-07
-9.3876e-10
-1.47674e-07
-1.37225e-08
-1.10262e-07
-2.82809e-08
-1.56443e-07
-7.45144e-09
-1.41759e-07
-3.65316e-08
-1.62204e-07
2.97868e-09
-1.69349e-07
-7.1748e-09
-1.62187e-07
-1.50185e-08
-1.62087e-07
-4.46765e-10
-1.68601e-07
3.84984e-09
-8.36585e-08
3.53115e-08
-1.80561e-07
1.14668e-08
-1.70601e-07
2.87107e-08
-1.34163e-07
2.73181e-08
-1.29229e-07
1.64287e-08
-1.96912e-07
-5.44297e-09
-8.08597e-08
3.41536e-08
-2.2546e-07
1.91433e-09
-1.77711e-07
2.56637e-08
-2.00505e-07
-1.6431e-09
-2.00523e-07
3.42435e-08
-1.71298e-07
3.00176e-08
-1.77615e-07
2.49932e-08
-2.09912e-07
1.06622e-08
1.47531e-08
-1.79807e-07
-6.21038e-08
-1.13136e-07
-9.28058e-09
-2.16367e-07
-1.00416e-07
-2.32061e-07
-3.23169e-08
-1.15962e-07
3.29719e-09
-2.01832e-07
-3.8059e-08
-1.78964e-07
-1.80887e-08
-2.01512e-07
4.26312e-08
-1.91102e-07
2.34419e-08
-1.91059e-07
8.65276e-10
-2.05428e-07
-7.39264e-09
-2.01592e-07
-9.37819e-09
-1.94079e-07
-5.98474e-09
-1.97407e-07
-7.4297e-10
-2.08834e-07
-2.69913e-09
-2.23278e-07
-7.44376e-09
-2.28874e-07
-2.58221e-09
-2.28122e-07
-8.39218e-09
-1.95859e-07
-4.18275e-08
-2.09949e-07
2.7979e-08
-2.00547e-07
1.08066e-08
-2.18806e-07
4.48686e-08
-2.20814e-07
2.46415e-08
-2.22239e-07
7.78151e-09
-2.27219e-07
-9.27755e-11
-2.41196e-07
-2.02267e-08
-1.94346e-07
-5.21774e-08
-1.8089e-07
-2.86605e-08
-2.08839e-07
2.17956e-08
-1.85624e-07
2.09212e-08
-1.29478e-07
3.97889e-08
-1.26316e-07
-5.13694e-08
-2.1991e-07
-3.86689e-08
-1.07452e-07
3.08502e-08
-1.9069e-07
-2.94172e-08
-1.92023e-07
-3.02786e-08
-1.54913e-07
5.2646e-09
-2.07443e-07
1.86514e-08
-2.1284e-07
2.22063e-08
-2.11278e-07
2.35611e-08
-2.05375e-07
2.0498e-09
-2.09429e-07
8.41195e-09
-1.92151e-07
-2.35306e-09
-1.88835e-07
3.85463e-10
-1.9331e-07
1.12265e-08
-1.96163e-07
-1.13529e-08
-1.53195e-07
-3.86608e-08
-1.59759e-07
-9.63771e-09
-1.59268e-07
-2.22642e-08
-1.42034e-07
-3.43968e-08
-1.70655e-07
2.76818e-08
-1.76598e-07
-9.72003e-09
-1.0686e-07
3.76682e-08
-2.25744e-07
-2.17797e-08
-1.22302e-07
-4.42293e-09
-2.03678e-07
-4.85919e-08
-1.96959e-07
-1.59716e-08
-1.55792e-07
-5.61848e-08
-1.66357e-07
1.00161e-08
-1.41262e-07
-2.14642e-08
-1.35474e-07
2.95237e-08
-1.53768e-07
2.98784e-08
-1.47891e-07
2.28336e-08
-1.18238e-07
-2.33455e-09
-1.0049e-07
-1.31893e-09
-1.11403e-07
5.52512e-09
-1.1055e-07
3.26203e-08
-1.6429e-07
1.07767e-08
-1.52525e-07
1.37583e-08
-1.71418e-07
5.96603e-08
-2.01789e-07
6.52878e-08
-1.9464e-07
2.49272e-08
-1.93186e-07
2.33009e-08
-2.0826e-07
2.57364e-08
1.98169e-08
-1.23428e-07
-1.5251e-07
-2.27142e-07
1.13804e-07
-2.47301e-07
-7.56237e-08
-2.56202e-07
-2.34159e-08
-2.12358e-07
-4.05466e-08
-2.12438e-07
-3.83676e-08
-1.21106e-07
2.61181e-08
-2.32007e-07
2.03798e-08
-2.1434e-07
3.40797e-09
-2.02962e-07
-1.05129e-08
-1.94037e-07
-1.63183e-08
-1.90729e-07
-1.26858e-08
-1.81918e-07
-1.47961e-08
-1.88009e-07
5.34828e-09
-1.96738e-07
6.02991e-09
-1.88772e-07
-1.55693e-08
-2.18338e-07
2.67112e-08
-2.29163e-07
9.52931e-11
-1.41858e-07
6.55477e-09
-2.27992e-07
-6.41658e-08
-1.93682e-07
2.12642e-08
-2.14385e-07
2.29917e-08
-2.12509e-07
6.64101e-08
-2.27256e-07
2.03607e-08
-2.29062e-07
1.71301e-09
-2.5218e-07
2.89107e-09
-1.69858e-07
-1.95821e-10
-1.22769e-07
-7.4497e-08
-1.97414e-07
-3.6506e-08
-2.10762e-07
3.03188e-08
-2.20192e-07
3.57962e-09
-1.07795e-07
1.75504e-08
-1.50457e-07
3.99273e-09
-1.2568e-07
6.07352e-09
-1.44524e-07
-1.08725e-08
-1.60326e-07
-1.41677e-08
-1.27321e-07
-2.77402e-08
-2.01755e-07
-4.12179e-08
-1.959e-07
1.63516e-08
-2.05196e-07
-1.17897e-08
-1.83727e-07
2.53488e-08
-1.79741e-07
6.25993e-09
-1.70163e-07
-1.19545e-08
-1.66018e-07
-5.49591e-09