/*--------------------------------*- C++ -*----------------------------------*\
  =========                 |
  \\      /  F ield         | OpenFOAM: The Open Source CFD Toolbox
   \\    /   O peration     | Website:  https://openfoam.org
    \\  /    A nd           | Version:  12
     \\/     M anipulation  |
\*---------------------------------------------------------------------------*/
FoamFile
{
    format      ascii;
    class       surfaceScalarField;
    location    "0.3";
    object      phi.water;
}
// * * * * * * * * * * * * * * * * * * * * * * * * * * * * * * * * * * * * * //

dimensions      [0 3 -1 0 0 0 0];

internalField   nonuniform List<scalar> 
7375
(
-2.00768e-07
-5.55854e-08
-4.70196e-08
-1.28004e-07
1.53532e-08
-6.08264e-08
5.54288e-08
-3.9822e-08
4.80482e-08
7.01661e-09
6.61428e-08
-1.8094e-08
6.23112e-08
3.90479e-09
7.79666e-08
-1.47187e-08
3.6119e-08
-2.40439e-09
8.17237e-08
-1.26607e-09
9.3775e-08
-1.22592e-08
1.14795e-07
-2.10623e-08
1.23646e-07
-8.73598e-09
1.23348e-07
3.31968e-10
1.16552e-07
6.74361e-09
1.01745e-07
1.48378e-08
9.55745e-08
6.19392e-09
1.07542e-07
-1.08868e-08
8.06831e-08
-1.90048e-08
1.2619e-07
-2.00547e-09
1.17193e-07
1.02441e-08
1.20585e-07
-4.77156e-09
1.37595e-07
-1.71833e-08
1.20213e-07
1.86208e-08
1.26834e-07
-6.42979e-09
1.26805e-07
1.54089e-11
1.33863e-07
-5.69762e-09
1.00741e-07
-1.21541e-08
1.26579e-07
1.78707e-08
1.19517e-07
7.08633e-09
1.21741e-07
-3.60285e-09
1.22981e-07
-1.23907e-09
1.30786e-07
-6.73589e-09
1.31179e-07
8.27376e-10
1.32072e-07
-8.34568e-10
1.45971e-07
-1.52188e-08
1.46957e-07
-9.71747e-10
1.34535e-07
1.10904e-08
1.3934e-07
-4.85427e-09
1.44151e-07
-4.91496e-09
1.48167e-07
-3.97646e-09
1.82354e-07
-3.26549e-08
1.74927e-07
9.26034e-09
1.74347e-07
-4.62082e-08
2.24771e-07
-7.79104e-09
2.23955e-07
3.14124e-09
2.04926e-07
2.09753e-08
1.71703e-07
3.53415e-08
6.98124e-08
-3.57043e-08
6.88495e-08
3.09347e-10
6.86588e-08
-6.21184e-10
9.0337e-08
-2.18995e-08
9.79172e-08
-7.66299e-09
1.14187e-07
-1.62702e-08
1.11533e-07
3.89074e-09
1.13642e-07
-1.97441e-09
1.28184e-07
-1.44411e-08
1.38285e-07
-9.92188e-09
1.5098e-07
-1.1196e-08
1.58052e-07
-5.295e-09
1.51727e-07
4.77984e-09
1.48503e-07
1.75028e-09
1.27301e-07
2.10062e-08
8.55783e-08
-2.94589e-09
9.10745e-08
-5.56525e-09
1.08694e-07
2.71316e-08
8.06673e-08
2.80257e-08
7.3179e-08
7.45659e-09
8.29692e-08
-9.82914e-09
8.10167e-08
1.99098e-09
8.24964e-08
-1.51644e-09
7.71174e-08
6.1795e-09
1.9925e-07
1.16468e-08
9.91081e-08
-3.58091e-08
-1.4681e-08
-2.22609e-07
-2.89303e-08
-2.03136e-07
-1.18428e-07
-8.50895e-08
-4.20577e-08
-1.47133e-07
-1.13696e-07
-1.40999e-07
-4.63491e-08
-8.69491e-08
-2.37965e-08
-7.07592e-08
-1.15701e-08
-6.52526e-08
-2.1088e-08
-6.64882e-08
-1.79112e-09
-4.50612e-08
-2.31522e-08
-7.50535e-08
-2.74954e-08
-2.47655e-08
-2.58163e-08
-1.92095e-08
-1.42915e-08
-2.0158e-08
1.4868e-09
-2.2967e-09
-1.12305e-08
-2.58866e-08
3.86691e-08
-8.01311e-09
-1.1679e-08
-2.04843e-08
1.53458e-09
-1.72901e-08
-2.20046e-08
-1.50865e-08
-4.22892e-09
-2.6059e-08
2.06854e-08
-7.06349e-08
3.90693e-08
1.82893e-08
3.06704e-08
-6.01366e-08
-3.54768e-08
-1.31327e-08
-5.45921e-08
-2.66258e-08
1.36466e-08
-2.07581e-08
-1.15651e-08
-2.57195e-08
-7.28016e-09
-2.64912e-08
1.81866e-08
-3.38782e-08
1.42713e-08
-7.4245e-08
3.71131e-08
-8.06045e-08
5.92578e-09
-6.11539e-08
-2.58263e-08
-2.75694e-08
-3.27572e-08
-2.99584e-08
1.26849e-09
-3.87767e-09
-4.16855e-08
-2.68081e-08
2.14708e-08
-3.83221e-08
2.19329e-08
-3.61155e-08
-6.7164e-09
-4.27873e-08
2.58786e-09
-2.68423e-08
-1.99621e-08
7.76245e-08
-2.30117e-09
2.30978e-08
-7.19005e-08
1.05772e-07
4.57725e-09
1.28093e-07
-3.1485e-08
1.56822e-07
-2.61422e-08
1.60674e-07
1.87062e-08
1.19532e-07
3.42139e-08
1.27853e-07
1.37258e-07
5.03672e-08
7.62271e-08
-4.39068e-08
4.74814e-08
-5.20167e-08
3.16659e-08
-7.02024e-08
1.1053e-08
-8.08404e-08
-5.79851e-09
-5.06607e-08
-2.62893e-08
-2.86408e-08
-2.39946e-08
-3.18955e-08
-1.08615e-08
-1.34606e-09
-4.0067e-08
1.64692e-08
-2.90253e-08
4.74025e-08
-3.65475e-08
2.89382e-08
2.29608e-08
4.8532e-08
-1.85279e-08
-2.58136e-08
-3.77153e-08
-6.6335e-08
3.59747e-08
-1.4111e-08
7.78095e-08
-8.6885e-08
-3.44613e-08
-8.57961e-08
2.75308e-08
-7.93422e-08
1.00233e-09
-8.42699e-08
-4.85161e-09
-7.79506e-08
-4.32879e-09
-7.7498e-08
-2.76467e-09
-6.32433e-08
-8.72074e-09
-3.84528e-08
-1.3264e-08
-6.00714e-08
-1.4164e-08
-2.07069e-08
-1.85076e-07
-4.18549e-08
-2.04158e-07
-1.23454e-07
-1.57301e-07
-8.47054e-08
-1.40158e-07
-8.65088e-08
-1.23476e-07
-6.27251e-08
-1.13781e-07
-3.34909e-08
-1.28511e-07
3.04217e-09
-1.36182e-07
-1.22425e-08
-1.26405e-07
-1.15672e-08
-1.29182e-07
-2.16646e-08
-1.28747e-07
-2.76494e-08
-1.19189e-07
-3.53729e-08
-1.10635e-07
-2.28448e-08
-1.23872e-07
1.33244e-08
-4.33856e-08
4.34078e-08
-1.92952e-07
9.7075e-09
-1.58121e-07
-5.08705e-09
-1.85961e-07
-1.63254e-08
-1.71879e-07
1.24758e-08
-1.75996e-07
-1.1082e-10
-1.73839e-07
1.85287e-08
-1.63583e-07
2.80161e-08
-1.56385e-07
2.31603e-08
-2.01856e-07
7.6511e-09
-1.0771e-07
-1.3613e-08
-2.1849e-07
-5.3545e-08
-2.14873e-07
-1.52994e-08
-2.17956e-07
4.27941e-08
-2.26973e-07
2.51652e-08
-2.18005e-07
2.84681e-09
-2.32158e-07
5.02303e-08
-2.47903e-07
1.91162e-08
-1.80275e-07
-4.41402e-10
-1.48565e-07
-1.6679e-08
-2.4177e-07
-4.13327e-08
-1.34261e-07
-1.46156e-08
-1.99699e-07
-4.44657e-08
-1.54026e-07
-2.57387e-08
-1.25294e-07
-3.70365e-08
-1.41638e-07
-2.6297e-08
-1.2962e-07
1.40284e-08
-8.14619e-08
-5.04598e-08
-6.6827e-08
-8.58023e-08
-1.06818e-07
-8.88292e-08
-6.18354e-08
-7.82177e-08
-8.03001e-08
-5.31764e-08
-1.82034e-08
2.38679e-09
5.51696e-08
9.61239e-08
-6.50059e-09
6.32907e-08
-5.67581e-08
1.27057e-07
-1.00639e-07
9.03089e-08
-1.22986e-07
5.26627e-08
-1.26455e-07
1.45222e-08
-1.24515e-07
-7.73927e-09
-1.0039e-07
-5.09343e-08
-1.0168e-07
-2.2705e-08
-1.56327e-07
6.06341e-10
-1.38258e-07
-1.42251e-08
-1.68343e-07
-2.06844e-09
-7.57767e-08
7.35368e-09
-1.56129e-07
-3.07559e-08
-1.2242e-07
8.05792e-08
-8.94943e-08
6.59184e-08
-9.23075e-08
4.10093e-08
-1.60439e-07
9.80228e-09
-7.56266e-08
1.55389e-08
-1.4748e-07
-3.27995e-08
-1.3651e-07
-1.14619e-08
-1.2922e-07
-1.21424e-08
-1.43461e-07
9.86797e-09
-1.61011e-07
1.47848e-08
-1.46109e-07
-2.36228e-08
-1.14166e-07
-4.55365e-08
-1.40912e-07
1.10311e-08
3.8301e-08
-2.00685e-07
-4.67641e-08
-1.92759e-07
-1.02707e-07
-2.17259e-07
-5.76247e-08
-1.71026e-07
-4.40462e-08
-1.5132e-07
-3.54384e-08
-1.1756e-07
-6.57067e-08
-1.82995e-07
-6.65033e-08
-1.22262e-07
-7.29753e-08
-1.31993e-07
-1.93415e-09
-1.4115e-07
-1.25066e-08
-1.43584e-07
-2.52147e-08
-1.36548e-07
-4.24086e-08
-1.04956e-07
-5.33661e-08
-1.1077e-07
2.02579e-08
-1.12352e-07
4.22992e-08
-2.00505e-07
5.09485e-08
-2.05773e-07
4.65207e-08
-2.14375e-07
-7.39013e-09
-1.97155e-07
-4.74405e-09
-1.96505e-07
-7.59998e-10
-1.99708e-07
2.17323e-08
-1.79837e-07
8.14606e-09
-1.97787e-07
3.86981e-08
-2.27294e-07
-8.07086e-09
-2.1111e-07
1.76086e-08
-2.3304e-07
-3.16153e-08
-2.56152e-07
7.81256e-09
-2.53159e-07
3.68435e-08
-2.68752e-07
3.78572e-08
-1.86313e-07
6.07565e-08
-2.6794e-07
7.92133e-10
-2.49498e-07
-2.25433e-09
-2.35173e-07
-1.4762e-08
-2.20834e-07
-3.32711e-08
-2.86752e-07
-6.62994e-08
-2.30921e-07
-2.26044e-08
-2.45613e-07
-2.77216e-08
-1.94371e-07
-3.46291e-08
-1.29508e-07
3.17839e-08
-1.2728e-07
-2.69358e-08
-1.8288e-07
-1.09443e-07
-1.62243e-07
-2.63291e-08
-6.49323e-08
-4.76623e-08
-2.01444e-07
-8.72987e-08
-1.34346e-07
-1.17053e-08
-1.5742e-07
-2.81896e-08
-1.59161e-07
2.52908e-09
-1.40928e-07
7.78909e-08
-6.71146e-08
1.25217e-07
-1.90438e-07
7.26061e-08
-1.79834e-07
8.06256e-08
-1.37162e-07
5.53232e-08
-1.69323e-07
4.66819e-08
-1.68556e-07
-1.02259e-08
-9.64152e-08
1.26119e-08
-9.77816e-08
-1.93578e-08
-1.84816e-07
-4.53059e-08
-1.71888e-07
-2.91846e-08
-2.00371e-07
2.64148e-08
-1.96081e-07
9.87695e-10
-1.20812e-07
2.90454e-08
-1.80331e-07
6.1433e-09
-1.41624e-07
2.65384e-08
-1.39284e-07
3.86686e-08
-1.43114e-07
1.3732e-08
-1.3413e-07
6.39662e-09
-1.49437e-07
-1.78274e-08
-1.55911e-07
-4.98837e-09
-1.34903e-07
-3.34926e-08
-1.73896e-07
4.88599e-08
-2.13317e-07
9.43785e-09
-1.86339e-07
-7.73419e-09
-1.02712e-07
7.58164e-09
-1.57521e-07
-6.60693e-08
2.91594e-08
-1.92733e-07
-5.53938e-08
-1.79872e-07
-8.65313e-08
-1.7572e-07
-5.99416e-08
-1.7751e-07
-4.18055e-08
-1.56266e-07
-5.57516e-08
-1.79703e-07
-4.41027e-08
-2.28517e-07
-6.29178e-08
-1.01219e-07
-1.8022e-08
-1.73771e-07
-6.23285e-08
-1.54584e-07
-3.34655e-08
-1.36278e-07
-4.30815e-08
-1.4782e-07
-3.05533e-08
-5.10158e-08
-1.58672e-08
-1.13571e-07
-5.1811e-08
-1.02754e-07
3.29627e-08
-1.10999e-07
5.98003e-08
-1.52314e-07
8.75999e-08
-1.88156e-07
7.16657e-08
-1.87104e-07
-5.79489e-09
-2.01852e-07
1.39881e-08
-1.86038e-07
5.91884e-09
-1.18169e-07
7.50204e-08
-2.04139e-07
-8.27732e-09
-2.21068e-07
4.60225e-09
-1.87428e-07
-6.126e-08
-1.71449e-07
-9.1385e-10
-1.73286e-07
1.14169e-08
-1.83724e-07
4.91379e-08
-1.69736e-07
2.16312e-08
-1.55559e-07
4.42284e-08
-1.70494e-07
1.57353e-08
-1.8315e-07
1.0401e-08
-1.87072e-07
-1.08396e-08
-1.95813e-07
-2.45302e-08
-2.34987e-07
-2.645e-08
-2.10498e-07
-4.7579e-08
-2.70861e-07
-1.21262e-08
-1.08536e-07
-1.8425e-08
-1.73322e-07
-8.36787e-08
-1.43578e-07
-5.66799e-08
-1.32349e-07
-7.5905e-08
-1.56861e-07
-4.453e-08
-1.16346e-07
-4.38621e-08
-1.48347e-07
-5.73762e-08
-2.31439e-07
-6.27972e-08
-2.35135e-07
-2.68927e-08
-2.46245e-07
1.36391e-08
-2.27391e-07
6.07543e-08
-2.02451e-07
1.00276e-07
-2.16512e-07
8.66668e-08
-2.16031e-07
1.23973e-07
-9.82998e-08
7.32783e-08
-2.07617e-07
-2.20694e-08
-1.82215e-07
9.14015e-09
-1.6694e-07
-2.79243e-09
-1.50702e-07
-3.59626e-08
-1.88678e-07
-7.79247e-09
-1.37896e-07
5.43358e-08
-2.6198e-07
-2.85725e-08
-2.03764e-07
-1.02768e-08
-1.72764e-07
-5.09689e-10
-1.77176e-07
8.90074e-09
-1.74154e-07
2.17081e-08
-1.75532e-07
4.00467e-08
-1.92735e-07
3.09342e-08
-2.01288e-07
1.49496e-08
-2.20849e-07
1.73297e-09
-2.27637e-07
-5.22574e-10
-1.24963e-07
-4.85569e-10
-2.50677e-07
-3.22198e-09
-2.41865e-07
6.25803e-10
-2.0729e-07
2.4576e-09
-2.12053e-07
-3.25002e-08
-1.52409e-07
5.36894e-08
-1.3251e-08
-1.95755e-07
-5.17306e-08
-1.6709e-07
-8.89915e-08
-1.60971e-07
-1.08021e-07
-1.57728e-07
-4.30001e-08
-1.4615e-07
-2.3014e-08
-1.66563e-07
-2.54391e-08
-1.78698e-07
-5.14388e-08
-1.54292e-07
-4.19952e-08
-1.55153e-07
-6.11527e-08
-1.45725e-07
-4.09881e-08
-1.45827e-07
-4.1506e-08
-1.45408e-07
-3.24446e-08
-1.34486e-07
-2.96439e-08
-6.13922e-08
1.0783e-08
-1.43455e-07
-1.86501e-08
-1.12227e-07
2.80383e-08
-1.18515e-07
4.95621e-08
-1.49362e-07
5.89548e-08
-1.67571e-07
5.71824e-08
-1.92401e-07
3.8818e-08
-1.06196e-07
5.51005e-08
-1.65192e-07
1.07091e-09
-1.78257e-07
3.01757e-09
-1.95973e-07
-2.26802e-08
-1.13504e-07
3.59668e-08
-1.18794e-07
4.37683e-09
-1.31303e-07
2.36846e-08
-2.19483e-07
-4.12513e-08
-1.58483e-07
5.61936e-09
-1.19853e-07
5.59872e-09
-1.34151e-07
3.00328e-08
-1.32139e-07
8.38966e-09
-1.46856e-07
3.87719e-09
-1.88436e-07
1.70496e-08
-2.20889e-07
3.74937e-09
-1.20184e-07
-1.24688e-08
-2.3602e-07
-7.57694e-08
-1.4155e-07
-6.84207e-08
-1.50538e-07
-7.24842e-08
-1.67584e-07
-3.8099e-08
-9.88924e-08
-9.28525e-09
-1.76002e-07
-1.00367e-07
-1.69242e-07
-5.28656e-08
-1.92032e-07
-3.45864e-08
-2.50412e-07
-4.37307e-09
-2.61176e-07
-1.61295e-08
-2.52145e-07
4.42366e-09
-2.12724e-07
2.13322e-08
-2.07534e-07
9.50864e-08
-1.99549e-07
7.6646e-08
-1.90312e-07
6.87971e-08
-1.64737e-07
4.88974e-08
-2.05389e-07
1.85824e-08
-2.05913e-07
9.66389e-09
-2.27846e-07
1.6815e-08
-1.56873e-07
2.87515e-08
-1.68104e-07
5.03833e-09
-2.45963e-07
-4.68754e-08
-2.54132e-07
-1.78112e-08
-2.26499e-07
4.11753e-09
-2.26846e-07
-4.84007e-09
-2.11119e-07
-4.39739e-09
-1.82452e-07
-4.80534e-09
-2.01582e-07
5.8579e-08
-2.05511e-07
3.48626e-08
-2.05839e-07
1.52771e-08
-2.26398e-07
2.25212e-08
-2.2568e-07
-3.54238e-09
-1.21573e-07
3.10985e-08
-2.68772e-07
-3.38537e-08
-2.36626e-07
1.32479e-08
-2.21296e-07
-1.30056e-08
-1.43287e-07
2.52546e-08
-2.30716e-07
8.09054e-09
-9.27687e-09
-2.31006e-07
-8.37695e-08
-1.74377e-07
-1.15525e-07
-1.31619e-07
-1.04428e-07
-1.50098e-07
-2.58503e-08
-1.23658e-07
-5.19506e-08
-1.43223e-07
-4.91204e-08
-1.02671e-07
-4.51911e-08
-1.22078e-07
-2.49373e-08
-1.42412e-07
-4.06087e-08
-1.58813e-07
-2.31483e-08
-1.86533e-07
-1.5992e-08
-2.16245e-07
-3.09537e-09
-2.05907e-07
-3.99811e-08
-1.6403e-07
-3.15251e-08
-1.45627e-07
-3.70518e-08
-1.47733e-07
2.98397e-08
-1.52396e-07
5.37207e-08
-1.62438e-07
6.8997e-08
-1.64611e-07
5.93557e-08
-1.75321e-07
4.95285e-08
-1.45894e-07
2.56746e-08
-1.37961e-07
-6.92219e-09
-1.96258e-07
5.93128e-08
-1.32252e-07
4.85022e-08
-1.11663e-07
1.67264e-08
-8.7518e-08
-1.88746e-08
-1.7591e-07
-2.06614e-08
-1.97684e-07
-2.12718e-08
-1.70742e-07
-2.13219e-08
-1.30007e-07
-3.5499e-08
-1.59783e-07
1.50413e-08
-1.59557e-07
8.16412e-09
-1.49094e-07
3.81814e-08
-1.33644e-07
1.5992e-09
-1.16396e-07
-1.21869e-08
-7.66567e-08
-5.13081e-08
-8.41053e-08
-6.89421e-08
-1.009e-07
-5.07662e-08
-1.37917e-07
-3.61191e-08
-1.65026e-07
-1.23974e-08
-2.01749e-07
-1.73295e-08
-1.43421e-07
1.93506e-08
-1.79803e-07
-1.64837e-08
-1.84941e-07
-2.75616e-08
-2.56562e-07
-6.50429e-08
-2.14108e-07
-5.90166e-08
-1.9874e-07
-1.09452e-08
-1.24275e-07
7.91428e-08
-2.17656e-07
9.49299e-09
-1.66477e-07
7.19329e-08
-1.615e-07
6.31251e-08
-1.78328e-07
6.40772e-08
-2.00296e-07
4.055e-08
-2.11808e-07
2.11759e-08
-2.17036e-07
2.20428e-08
-1.55553e-07
-3.30257e-08
-1.81663e-07
3.11485e-08
-2.14378e-07
-1.41609e-08
-2.08127e-07
-2.40625e-08
-1.95229e-07
-8.73857e-09
-2.11093e-07
1.10731e-08
-2.19449e-07
4.00234e-09
-1.15356e-07
2.65811e-08
-2.23092e-07
3.33685e-08
-1.94225e-07
3.71866e-09
-1.89469e-07
8.58837e-09
-2.12789e-07
6.1222e-10
-1.92663e-07
2.32695e-08
-1.73249e-07
1.13668e-08
-2.11813e-07
4.70937e-09
-2.23594e-07
2.27478e-08
-1.53018e-07
5.21052e-08
-1.38664e-07
1.38765e-08
-2.22773e-07
-4.06657e-08
-2.27162e-08
-1.95842e-07
-8.10694e-08
-1.85576e-07
-1.01315e-07
-1.09569e-07
-4.39116e-08
-1.90279e-07
-7.66473e-08
-1.68024e-07
-7.32475e-08
-2.01604e-07
-1.67406e-08
-2.09741e-07
-4.38507e-08
-2.53747e-07
-2.68906e-08
-2.57128e-07
1.31317e-08
-3.04854e-07
2.12316e-08
-3.31293e-07
7.03352e-09
-3.32234e-07
-4.39679e-08
-3.06067e-07
-2.11133e-08
-2.99912e-07
-3.76792e-08
-1.90675e-07
-7.05301e-09
-2.54323e-07
-3.98609e-08
-2.21967e-07
1.87705e-08
-2.37566e-07
3.98291e-08
-2.03207e-07
6.97647e-08
-1.98459e-07
4.47816e-08
-1.8191e-07
7.2703e-09
-9.00139e-08
3.68689e-08
-2.06215e-07
-5.34382e-10
-1.79862e-07
6.53158e-08
-1.77138e-07
1.22936e-08
-1.12628e-07
5.20674e-08
-2.13179e-07
-5.27327e-08
-2.11914e-07
-2.47123e-08
-2.11833e-07
-2.33258e-08
-1.14103e-07
2.43335e-09
-1.99131e-07
-3.27351e-08
-1.74488e-07
-1.63129e-08
-1.3165e-07
-4.61003e-09
-7.81124e-08
-5.11412e-08
-7.11004e-08
-1.91991e-08
-8.71988e-08
-3.77333e-08
-1.27329e-07
-2.95224e-08
-1.60102e-07
-1.88457e-08
-1.9825e-07
1.65616e-09
-2.0432e-07
-4.305e-09
-2.14135e-07
-7.51526e-09
-1.87432e-07
-7.35302e-09
-1.82373e-07
-2.17653e-08
-2.14849e-07
7.10649e-09
-2.51697e-07
-2.88526e-08
-1.77075e-07
-1.90323e-09
-1.65157e-07
-2.27437e-08
-2.27512e-07
-4.03056e-08
-2.30953e-07
5.87688e-08
-1.79674e-07
2.32467e-08
-1.66942e-07
5.10371e-08
-1.97334e-07
9.35148e-08
-2.0631e-07
4.95256e-08
-2.34667e-07
4.95319e-08
-2.42788e-07
-1.44565e-08
-1.17438e-07
2.06947e-08
-2.15279e-07
-5.00819e-08
-2.14205e-07
-1.52351e-08
-1.69163e-07
-2.43367e-08
-2.02685e-07
2.47833e-08
-2.07379e-07
1.57664e-08
-2.27172e-07
2.37955e-08
-1.09052e-07
4.27635e-08
-2.31608e-07
-2.28065e-08
-1.71551e-07
-1.16897e-08
-1.73235e-07
1.02719e-08
-2.17226e-07
4.45968e-08
-2.04825e-07
1.0868e-08
-2.0231e-07
8.85102e-09
-2.08792e-07
1.11908e-08
-2.08777e-07
2.25034e-08
-1.83047e-07
2.58428e-08
-2.00304e-07
3.14542e-08
-2.17535e-07
-2.38497e-08
-2.14638e-08
-2.33038e-07
-3.92269e-08
-1.16338e-07
-5.11123e-08
-1.8874e-07
-1.05251e-07
-2.45551e-07
-2.23408e-08
-1.67175e-07
-1.66918e-08
-2.60217e-07
-5.6466e-08
-2.47246e-07
-5.74073e-08
-2.82883e-07
9.20222e-09
-2.67321e-07
-2.42972e-09
-2.83017e-07
-7.83997e-09
-3.02124e-07
2.60692e-08
-3.24577e-07
2.3702e-08
-3.24086e-07
-2.16035e-08
-3.51237e-07
-1.37262e-08
-3.39182e-07
-2.26036e-08
-3.29933e-07
-4.60243e-08
-2.73398e-07
-3.47525e-08
-2.67479e-07
7.86782e-08
-2.42632e-07
4.49179e-08
-2.52567e-07
5.47175e-08
-1.81655e-07
7.06611e-08
-1.6659e-07
2.12115e-08
-1.85935e-07
2.07084e-08
-2.49566e-07
-5.86013e-09
-1.33613e-07
2.91551e-08
-2.03984e-07
-5.31873e-08
-1.79123e-07
-3.41558e-08
-1.66565e-07
-3.73982e-08
-1.52099e-07
-3.6256e-08
-1.15735e-07
-3.43222e-08
-1.11369e-07
-3.71454e-08
-1.08906e-07
-1.89926e-08
-1.24555e-07
1.00403e-08
-4.18951e-08
-7.60892e-10
-1.61261e-07
-3.59769e-08
-1.65177e-07
-3.38179e-08
-1.83007e-07
-9.70664e-09
-2.04808e-07
2.95536e-09
-2.06707e-07
3.53766e-09
-2.01399e-07
-9.61318e-09
-2.03253e-07
-5.66159e-09
-1.9691e-07
-1.58663e-08
-1.30081e-07
4.66116e-08
-2.28499e-07
-2.71742e-08
-2.26114e-07
-3.15329e-08
-1.99303e-07
-2.66812e-08
-2.05079e-07
-1.90389e-08
-2.63739e-07
1.35219e-08
-2.93882e-07
4.27665e-08
-2.11397e-07
7.94766e-08
-1.92786e-07
8.04959e-08
-2.49425e-07
1.72069e-08
-2.22657e-07
2.0213e-08
-2.24881e-07
9.18864e-09
-2.09572e-07
1.45492e-08
-1.73049e-07
-1.79661e-08
-1.99301e-07
-2.38302e-08
-2.31562e-07
-2.77421e-08
-9.59901e-08
1.91613e-08
-1.84668e-07
-2.08425e-08
-1.69817e-07
9.15109e-10
-1.72884e-07
2.6863e-08
-1.61637e-07
3.15163e-08
-2.09585e-07
2.27699e-08
-1.06578e-07
2.1209e-08
-1.10324e-07
1.51046e-08
-2.1791e-07
1.76994e-08
-2.04182e-07
-2.86071e-09
-1.99937e-07
4.60595e-09
-1.96837e-07
1.0099e-08
-1.87158e-07
1.28232e-08
-1.81953e-07
1.68721e-08
-1.99084e-07
3.35645e-09
-1.93353e-07
1.72172e-08
-2.10764e-08
-2.36211e-07
-1.08411e-08
-2.08e-07
-5.00184e-08
-1.19569e-07
-5.3707e-08
-2.12908e-07
-6.20847e-08
-2.02183e-07
-2.69708e-08
-2.53285e-07
-7.94761e-09
-1.80015e-07
6.86598e-09
-2.84194e-07
-1.7747e-08
-2.67636e-07
-2.16649e-08
-2.47625e-07
-2.81379e-08
-2.55334e-07
3.34379e-08
-2.39946e-07
8.31386e-09
-2.56314e-07
-5.23433e-09
-2.5873e-07
-1.13101e-08
-2.59831e-07
-2.12717e-08
-2.84893e-07
-2.31618e-08
-1.98184e-07
1.42259e-08
-2.66138e-07
-3.07291e-08
-2.45807e-07
2.45874e-08
-2.49752e-07
5.86626e-08
-2.41227e-07
1.98299e-08
-1.72888e-07
-2.81124e-09
-1.87971e-07
3.36837e-08
-1.97341e-07
5.46414e-09
-1.59555e-07
-8.92512e-09
-1.78877e-07
-3.69411e-08
-1.79069e-07
-3.39656e-08
-1.77777e-07
-3.68628e-08
-1.92595e-07
-2.20331e-08
-1.80437e-07
-4.68304e-08
-1.70486e-07
-4.97211e-08
-1.86426e-07
-5.17043e-09
-2.0367e-07
-1.38207e-08
-1.75009e-07
1.69507e-08
-2.15271e-07
2.47424e-09
-1.95335e-07
-5.396e-08
-2.14983e-07
9.9414e-09
-2.0736e-07
-4.66785e-09
-2.00519e-07
-3.30416e-09
-1.88645e-07
-2.14871e-08
-2.01712e-07
5.34775e-09
-1.11829e-07
3.10897e-08
-1.70243e-07
-2.55436e-08
-1.74195e-07
-2.4942e-08
-1.91915e-07
-1.55902e-08
-2.08299e-07
-1.0404e-08
-2.29713e-07
2.18052e-09
-2.2446e-07
8.13106e-09
-2.52424e-07
6.95843e-08
-2.32403e-07
6.10145e-08
-2.03113e-07
5.12056e-08
-2.19088e-07
3.12855e-08
-2.06744e-07
9.97738e-09
-2.03708e-07
6.15232e-09
-1.91439e-07
3.50257e-10
-1.55768e-07
-5.36377e-08
-1.72749e-07
-6.84929e-09
-1.86855e-07
-1.36367e-08
-1.42898e-07
-2.4796e-08
-1.6025e-07
-3.49063e-09
-1.58811e-07
-5.24294e-10
-1.5093e-07
1.89816e-08
-1.52747e-07
3.48916e-08
-1.74e-07
4.26965e-08
-7.57525e-08
5.66359e-08
-8.73017e-08
2.83169e-08
-1.82904e-07
-1.9449e-08
-1.89066e-07
1.43492e-09
-1.96019e-07
1.15587e-08
-1.95381e-07
9.46038e-09
-1.8373e-07
1.30341e-09
-1.68379e-07
1.52092e-09
-1.46599e-07
-1.86486e-08
-1.54963e-07
2.55806e-08
-2.37153e-10
-1.91569e-07
-2.89749e-08
-1.90365e-07
-7.14322e-08
-1.6273e-07
-3.2142e-08
-1.54321e-07
-6.96298e-08
-1.71202e-07
-1.00889e-08
-1.76513e-07
-4.38257e-09
-1.75623e-07
5.90646e-09
-2.28984e-07
-6.99834e-09
-2.2875e-07
2.01074e-08
-1.45129e-07
2.30664e-08
-2.07293e-07
-3.58786e-08
-1.78351e-07
-2.27421e-08
-1.73945e-07
-9.63956e-09
-1.67074e-07
-1.81806e-08
-1.61317e-07
-2.5383e-08
-1.67172e-07
-1.74826e-08
-1.69728e-07
1.32003e-08
-2.03085e-07
2.62811e-09
-1.91608e-07
1.5183e-08
-1.95915e-07
1.82029e-08
-1.99227e-07
2.31423e-08
-7.23991e-08
5.01412e-08
-1.53096e-07
-1.85659e-08
-1.49257e-07
6.41756e-11
-1.35622e-07
-2.12673e-08
-1.18616e-07
-5.32876e-08
-1.54485e-07
1.04913e-09
-1.70008e-07
-2.46503e-08
-2.1714e-07
-2.013e-08
-2.37754e-07
1.85301e-08
-1.69105e-07
1.73163e-08
-1.83705e-07
1.12084e-08
-1.95549e-07
-1.83589e-09
-1.75519e-07
-1.11577e-09
-2.69334e-07
-3.93776e-08
-1.58822e-07
-3.15616e-08
-2.55007e-07
-7.13243e-08
-2.37947e-07
-2.17281e-08
-2.31746e-07
-9.50534e-09
-1.95293e-07
-1.33086e-08
-1.93247e-07
3.30197e-09
-1.90754e-07
2.79937e-08
-2.07497e-07
-9.0617e-09
-2.1981e-07
-1.28842e-08
-2.53458e-07
1.56315e-08
-2.66389e-07
2.52624e-09
-2.53596e-07
-7.8951e-09
-1.90742e-07
8.15262e-08
-2.72575e-07
1.84704e-08
-2.17522e-07
3.18035e-09
-2.14688e-07
4.83992e-08
-2.09992e-07
2.65892e-08
-2.03435e-07
3.45512e-09
-1.88737e-07
-8.48327e-09
-2.07793e-07
-2.53613e-08
-1.04614e-07
2.24826e-08
-1.92572e-07
-5.3194e-08
-1.86452e-07
-1.97573e-08
-2.02737e-07
-8.5116e-09
-1.99815e-07
-6.41303e-09
-1.93208e-07
-7.13097e-09
-1.88509e-07
1.42818e-08
-1.84138e-07
2.86419e-08
-1.81538e-07
4.05366e-08
-1.44486e-07
2.06466e-08
-1.44804e-07
-1.4806e-08
-1.77644e-07
5.75097e-08
-1.88872e-07
1.08499e-08
-1.84283e-07
6.96904e-09
-1.74265e-07
-5.57317e-10
-1.73042e-07
7.9673e-11
-1.90564e-07
1.70989e-08
-1.10608e-07
3.70822e-08
-2.00945e-07
-1.72569e-08
-1.10601e-08
-1.71086e-07
-5.80315e-08
-1.53316e-07
-6.95641e-08
-1.54188e-07
-2.9414e-08
-7.91755e-08
-8.95485e-09
-1.86515e-07
-3.63469e-08
-1.70665e-07
-2.02319e-08
-1.73955e-07
9.19646e-09
-1.88692e-07
7.73889e-09
-1.76979e-07
8.60015e-09
-1.50379e-07
-3.76829e-09
-1.5748e-07
-2.91434e-08
-1.39317e-07
-4.13256e-08
-1.64895e-07
1.59386e-08
-1.71258e-07
-1.18175e-08
-1.61122e-07
-3.67866e-08
-1.63979e-07
-1.4805e-08
-1.51915e-07
2.80967e-09
-1.79341e-07
3.00278e-08
-1.6364e-07
-5.12389e-10
-1.49678e-07
4.24137e-09
-1.357e-07
9.16497e-09
-8.72575e-08
1.71621e-09
-1.3396e-07
2.79478e-08
-1.60592e-07
2.66966e-08
-1.82264e-07
-1.45431e-09
-8.62333e-08
-1.43283e-08
-2.07746e-07
-1.08506e-08
-1.97728e-07
-3.46677e-08
-2.29623e-07
9.62801e-09
-2.49382e-07
-6.94021e-09
-1.95155e-07
1.02241e-08
-1.89742e-07
5.79515e-09
-1.90735e-07
-8.43011e-10
-2.0723e-07
-2.9388e-08
-2.25286e-07
-2.17236e-08
-2.20585e-07
8.91766e-09
-2.55305e-07
-3.66042e-08
-2.60848e-07
-1.61855e-08
-2.70212e-07
-2.89858e-09
-1.79543e-07
3.17099e-08
-1.76638e-07
4.03043e-09
-2.52649e-07
-2.8943e-08
-2.64649e-07
3.65101e-10
-2.64206e-07
-1.60231e-08
-2.91378e-07
-2.42609e-09
-3.03812e-07
1.79069e-08
-2.08046e-07
7.54091e-08
-2.57243e-07
-3.54389e-09
-2.49757e-07
1.12872e-08
-1.46978e-07
3.62033e-08
-2.21209e-07
-1.0317e-08
-2.00084e-07
1.16578e-09
-1.83986e-07
-1.26425e-08
-1.52731e-07
-3.7862e-08
-1.58235e-07
-2.14715e-08
-1.57434e-07
-2.35486e-08
-1.61102e-07
-3.15199e-09
-1.77831e-07
-3.02849e-09
-1.88702e-07
2.3584e-09
-1.88886e-07
-6.22926e-09
-1.73659e-07
-2.25889e-08
-1.92722e-07
3.30081e-08
-1.91426e-07
2.73459e-08
-2.26289e-07
3.28618e-08
-2.05979e-07
4.25715e-08
-1.23439e-07
3.6218e-08
-2.09038e-07
-3.41168e-08
-1.86837e-07
-1.13511e-08
-1.86556e-07
6.68788e-09
-1.67034e-07
2.46882e-08
-1.74774e-07
7.8188e-09
-1.95869e-07
3.81937e-08
-1.84624e-07
2.54591e-08
-2.0372e-07
1.83859e-09
4.53771e-09
-2.03834e-07
-6.9951e-08
-1.6637e-07
-7.27629e-08
-1.46169e-07
-4.62538e-08
-1.30149e-07
-2.63742e-08
-1.57853e-07
-8.64234e-09
-1.62838e-07
-1.52472e-08
-1.64442e-07
1.08014e-08
-1.66676e-07
9.97345e-09
-1.70382e-07
1.23066e-08
-1.61832e-07
-1.23178e-08
-1.6296e-07
-2.96776e-08
-8.61057e-08
1.75077e-08
-1.96138e-07
-5.22205e-08
-1.88791e-07
-1.72377e-08
-1.75292e-07
-5.96982e-09
-1.5698e-07
-3.47539e-08
-1.54402e-07
2.2935e-10
-1.44445e-07
-2.32227e-08
-1.20393e-07
1.97523e-08
-1.3165e-07
1.42707e-08
-1.28482e-07
4.73491e-09
-6.27558e-08
7.16771e-08
-1.83597e-07
1.5127e-08
-1.72224e-07
1.53239e-08
-1.81915e-07
6.3808e-09
-7.24272e-08
1.20189e-08
-2.0572e-07
-5.58889e-08
-1.76396e-07
-1.92246e-08
-1.87906e-07
-2.36294e-08
-2.24112e-07
2.93366e-08
-2.01472e-07
3.2352e-08
-1.87346e-07
-8.33146e-09
-1.8095e-07
-7.23895e-09
-1.95388e-07
-1.49494e-08
-1.9089e-07
-2.81691e-08
-1.77605e-07
-5.0114e-08
-2.0733e-07
3.97009e-08
-2.24437e-07
9.21145e-10
-2.30521e-07
3.1853e-09
-1.90177e-07
-8.95815e-09
-2.12593e-07
2.61787e-08
-2.40822e-07
-3.46607e-09
-2.7434e-07
-1.13462e-08
-2.62256e-07
1.94591e-08
-2.72522e-07
7.86376e-09
-2.65836e-07
1.1221e-08
-2.08761e-07
-2.43042e-08
-2.16076e-07
4.5445e-08
-2.20746e-07
1.35896e-08
-1.7801e-07
-4.28071e-09
-1.82363e-07
-6.06924e-09
-1.69737e-07
-1.13453e-08
-1.8654e-07
-4.04787e-08
-1.54556e-07
-2.50788e-08
-1.52975e-07
-2.30523e-08
-1.4789e-07
-2.83939e-08
-1.52278e-07
1.23523e-09
-1.60912e-07
5.60535e-09
-1.70885e-07
1.23315e-08
-1.90581e-07
1.15216e-08
-1.19335e-07
4.30819e-08
-1.8249e-07
-3.55783e-08
-1.99092e-07
3.96499e-08
-2.28532e-07
1.70728e-08
-1.88193e-07
5.04907e-09
-1.6252e-07
5.49431e-08
-1.98176e-07
1.55426e-09
-1.88591e-07
-2.09359e-08
-1.94227e-07
1.23229e-08
-1.754e-07
5.86094e-09
-1.88765e-07
2.11842e-08
-1.98968e-07
3.62821e-09
-1.92654e-07
1.91455e-08
-1.86238e-07
4.01892e-08
1.77711e-08
-2.17568e-07
-4.26581e-08
-2.30008e-07
-3.71633e-08
-2.10359e-07
-6.40278e-08
-2.00644e-07
-3.60887e-08
-1.91488e-07
-1.77983e-08
-1.68072e-07
-3.86626e-08
-1.8105e-07
2.35395e-08
-1.74259e-07
3.18341e-09
-1.86761e-07
-1.99592e-08
-1.87201e-07
-1.1877e-08
-1.66764e-07
-5.40212e-09
-1.73931e-07
2.42495e-08
-2.16912e-07
-9.23862e-09
-2.24442e-07
-9.70748e-09
-2.26097e-07
-4.37554e-09
-1.27318e-07
2.06983e-09
-2.07668e-07
-5.23666e-08
-1.839e-07
-4.96157e-08
-1.7176e-07
7.81462e-09
-1.82626e-07
2.32733e-08
-9.62676e-08
5.40645e-08
-1.71885e-07
1.32427e-08
-2.01798e-07
4.45855e-08
-1.94324e-07
7.8499e-09
-1.91491e-07
3.54838e-09
-1.71814e-07
-7.78059e-09
-2.01637e-07
-2.60659e-08
-1.94902e-07
-2.59589e-08
-1.8895e-07
-2.9582e-08
-1.7075e-07
-3.36308e-08
-1.91282e-07
5.28846e-08
-1.90752e-07
3.59057e-08
-1.96794e-07
-1.19701e-09
-2.17267e-07
5.52357e-09
-2.08778e-07
-3.87883e-08
-1.5155e-07
2.88614e-08
-2.47862e-07
-4.15113e-08
-2.19485e-07
1.73109e-08
-2.33198e-07
1.68989e-08
-1.42283e-07
3.58802e-08
-2.35258e-07
-1.37927e-08
-2.29756e-07
-1.13684e-08
-2.41508e-07
5.15876e-10
-2.27361e-07
5.31145e-09
-2.23018e-07
3.52044e-09
-2.1834e-07
6.54283e-09
-1.17794e-07
1.06535e-08
-1.79952e-07
-2.30672e-08
-1.5128e-07
-1.70376e-08
-1.46906e-07
-1.01985e-08
-1.42899e-07
-8.61829e-09
-1.31832e-07
-2.24125e-08
-1.71172e-07
-2.5095e-09
-1.59928e-07
-3.63239e-08
-1.66629e-07
-1.63514e-08
-1.40872e-07
-5.4151e-08
-1.58251e-07
1.84259e-08
-1.64538e-07
1.18922e-08
-1.63289e-07
1.10825e-08
-1.58977e-07
7.20892e-09
-1.73934e-07
1.28318e-08
-8.89894e-08
5.90917e-08
-1.85591e-07
3.30441e-09
-2.00951e-07
2.83152e-08
-1.08085e-07
4.787e-08
-1.7392e-07
-1.41967e-08
-1.98521e-07
-1.9075e-08
-1.82509e-07
9.84536e-09
-1.80244e-07
1.00573e-08
-1.65533e-07
-8.94205e-09
-1.88977e-07
4.46279e-08
-2.02122e-07
1.67736e-08
-2.04827e-07
2.185e-08
-1.91316e-07
2.66784e-08
2.38462e-08
-7.73443e-08
5.15573e-09
-2.21662e-07
-6.61657e-08
-1.80014e-07
-5.63845e-08
-1.92547e-07
-2.35553e-08
-2.28036e-07
-2.70768e-08
-1.21462e-07
3.50736e-08
-2.26737e-07
-4.13204e-09
-2.10209e-07
-1.54993e-08
-2.24011e-07
-6.15645e-09
-2.38199e-07
-1.18161e-10
-1.3427e-07
2.77398e-08
-2.17546e-07
-2.40643e-08
-2.14821e-07
-1.41826e-08
-2.17794e-07
-6.73421e-09
-2.15046e-07
-7.12292e-09
-2.18484e-07
5.50838e-09
-2.40398e-07
-3.37836e-08
-1.71371e-07
1.70451e-08
-2.05831e-07
4.40235e-08
-1.96304e-07
1.37469e-08
-1.72507e-07
2.97162e-08
-1.71415e-07
1.38999e-08
-2.11883e-07
-4.78931e-08
-2.23325e-07
1.69579e-08
-2.21181e-07
1.40416e-09
-2.15931e-07
-1.30306e-08
-2.26109e-07
-1.58869e-08
-2.24593e-07
-2.74749e-08
-2.01499e-07
-5.26766e-08
-9.73329e-08
-3.49359e-09
-2.07835e-07
-1.56842e-08
-1.90217e-07
1.82879e-08
-1.81503e-07
3.4857e-08
-2.29534e-07
8.78681e-09
-1.26036e-07
3.67837e-08
-2.07037e-07
-2.47346e-08
-2.26232e-07
-2.23169e-08
-1.93389e-07
-1.55328e-08
-1.94474e-07
1.79838e-08
-1.76772e-07
1.81781e-08
-1.99597e-07
8.8914e-09
-2.1268e-07
3.88389e-09
-2.0466e-07
-7.42906e-09
-1.97169e-07
-4.26768e-09
-1.87286e-07
-6.36367e-09
-1.73682e-07
-7.06129e-09
-1.44928e-07
-1.81008e-08
-1.57092e-07
-1.1139e-08
-1.55291e-07
-1.90122e-08
-1.65417e-07
-7.3729e-11
-1.52422e-07
-2.16136e-08
-1.56902e-07
-1.97626e-08
-1.92698e-07
-1.19428e-08
-1.81005e-07
-1.28315e-09
-2.11579e-07
-3.05455e-08
-1.06884e-07
2.13144e-08
-1.94746e-07
-2.66595e-08
-1.81303e-07
-3.53778e-09
-1.60609e-07
-9.51428e-09
-1.64012e-07
1.07207e-08
-1.54316e-07
3.13547e-09
-1.20128e-07
2.49031e-08
-1.37301e-07
2.05106e-08
-1.49237e-07
4.02511e-08
-1.19673e-07
1.78176e-08
-1.33286e-07
-5.84619e-10
-1.4128e-07
-1.07766e-08
-1.5292e-07
2.12685e-08
-1.77545e-07
3.25383e-08
-9.42623e-08
4.34622e-08
-2.16359e-07
3.33832e-08
-2.11478e-07
1.18919e-08
-1.98082e-07
8.36925e-09
-2.0157e-07
3.01658e-08
3.46534e-08
-2.19409e-07
3.4108e-08
-2.53331e-07
-1.19818e-09
-2.23302e-07
-8.12435e-08
-2.2803e-07
-1.88273e-08
-2.20611e-07
-3.44952e-08
-2.11089e-07
2.55523e-08
-2.45746e-07
-1.17777e-08
-2.08004e-07
-8.83622e-09
-2.12642e-07
-3.64024e-09
-2.11081e-07
-1.67811e-09
-1.81214e-07
-2.41033e-09
-1.97055e-07
-8.46781e-09
-2.03347e-07
-7.8905e-09
-2.03164e-07
-6.9169e-09
-1.86138e-07
-2.4397e-08
-2.39717e-07
5.66425e-08
-1.65411e-07
2.73161e-08
-1.19754e-07
-2.73767e-08
-2.10421e-07
-4.43799e-08
-2.12615e-07
6.07089e-08
-2.14301e-07
3.1402e-08
-2.15853e-07
1.54523e-08
-1.19462e-07
-9.25028e-09
-2.35249e-07
-1.99254e-10
-2.22305e-07
-1.39397e-08
-2.04639e-07
-3.06964e-08
-2.21304e-07
-4.39896e-08
-2.40627e-07
-8.15124e-09
-1.47362e-07
3.31283e-08
-1.20123e-07
-3.07319e-08
-2.20405e-07
-4.97055e-08
-2.02228e-07
-4.46569e-08
-1.59284e-07
-8.08707e-09
-1.64297e-07
1.38006e-08
-1.47267e-07
1.9753e-08
-1.77392e-07
5.39065e-09
-1.94508e-07
-5.20091e-09
-1.81244e-07
1.59699e-08
-1.7719e-07
1.39297e-08
-1.82182e-07
2.2936e-08
-1.82847e-07
9.55578e-09
-1.83051e-07
5.95531e-09
-1.83171e-07
-7.38469e-09
-1.8052e-07
-8.78702e-09