/*--------------------------------*- C++ -*----------------------------------*\
  =========                 |
  \\      /  F ield         | OpenFOAM: The Open Source CFD Toolbox
   \\    /   O peration     | Website:  https://openfoam.org
    \\  /    A nd           | Version:  12
     \\/     M anipulation  |
\*---------------------------------------------------------------------------*/
FoamFile
{
    format      ascii;
    class       volVectorField;
    location    "0.3";
    object      U.water;
}
// * * * * * * * * * * * * * * * * * * * * * * * * * * * * * * * * * * * * * //

dimensions      [0 1 -1 0 0 0 0];

internalField   nonuniform List<vector> 
3750
(
(-0.00868606 -0.0531807 0)
(-0.0151213 0.00751292 0)
(-0.00345957 -0.0137539 0)
(-0.00401274 0.0137748 0)
(-0.000106065 0.000553399 0)
(0.00105036 0.00864468 0)
(0.00110565 0.00415725 0)
(0.000466023 0.0067302 0)
(0.000170615 0.00506328 0)
(-0.000500502 0.00588215 0)
(-0.00128559 0.00741193 0)
(-0.000520377 0.0100007 0)
(-0.000146317 0.0114137 0)
(-0.000350097 0.0114346 0)
(0.000457632 0.00987087 0)
(0.00138383 0.0101345 0)
(0.00145124 0.00971392 0)
(0.000470164 0.00906652 0)
(-0.000248686 0.00960817 0)
(-0.0010784 0.0108291 0)
(-0.00086998 0.0116546 0)
(-0.00178569 0.0121417 0)
(-0.00131385 0.0126274 0)
(0.00156066 0.0122345 0)
(0.000904116 0.0117252 0)
(0.000913793 0.0129002 0)
(0.000809607 0.0127711 0)
(0.000104552 0.0114732 0)
(0.000318662 0.0122295 0)
(-0.000570428 0.011681 0)
(-0.00152662 0.0114405 0)
(-0.000754758 0.0116531 0)
(-0.00114532 0.0125461 0)
(0.000203722 0.0121006 0)
(0.0011853 0.0129529 0)
(-2.76259e-06 0.0143448 0)
(0.000475906 0.0143901 0)
(-0.000167949 0.0141293 0)
(-0.000514527 0.0134521 0)
(-0.000796788 0.0138 0)
(-0.000847813 0.0150267 0)
(-0.000545229 0.0158274 0)
(0.00181856 0.0174551 0)
(0.000584984 0.0174665 0)
(0.000817943 0.0203528 0)
(0.00147059 0.0227266 0)
(0.00164521 0.0218928 0)
(0.00141254 0.0185849 0)
(-0.00224484 0.0120014 0)
(-0.00139562 0.00618102 0)
(-0.00285152 0.00597248 0)
(-0.00220499 0.00742779 0)
(-0.000661738 0.00940473 0)
(-0.00135457 0.0108069 0)
(-4.43655e-05 0.0107816 0)
(0.00103754 0.0114394 0)
(0.000550272 0.0121408 0)
(0.00128344 0.0120176 0)
(0.000340869 0.0138136 0)
(0.000620438 0.015148 0)
(0.000613145 0.0160509 0)
(-0.00029493 0.0148858 0)
(0.00100396 0.0130516 0)
(-1.61825e-05 0.0102807 0)
(-0.00165164 0.00854563 0)
(-0.000224745 0.00691188 0)
(0.000864832 0.00538372 0)
(0.00107455 0.00716162 0)
(-0.000962429 0.00610158 0)
(0.000680229 0.00564352 0)
(-0.000126466 0.00625259 0)
(0.000268171 0.00693837 0)
(-7.78116e-05 0.0140808 0)
(-0.00242055 0.0147569 0)
(-0.00083757 0.0101905 0)
(-0.00239806 -0.055311 0)
(-0.0108946 -0.00277879 0)
(-0.0034374 -0.0249241 0)
(-0.00654032 -0.00478282 0)
(-0.00240093 -0.0178441 0)
(-0.00193826 -0.00608883 0)
(-0.000170545 -0.0101068 0)
(-0.00225602 -0.00551039 0)
(7.54828e-05 -0.00733536 0)
(-0.00136776 -0.00491696 0)
(-0.00214763 -0.00521487 0)
(-0.00171771 -0.00214435 0)
(-0.00114501 -0.0034341 0)
(-0.000120859 -0.00204255 0)
(-0.000179273 -0.00199017 0)
(0.00280964 -0.000915968 0)
(-0.00112315 -0.00120753 0)
(-0.00150672 -0.00209447 0)
(-0.00207083 -0.000951217 0)
(-0.000242547 -0.00142915 0)
(0.0020204 -0.00245737 0)
(0.00236072 -0.00402293 0)
(0.0011046 -0.00160996 0)
(-0.000828792 -0.00236891 0)
(-0.00411519 -0.00402862 0)
(-0.000417455 -0.0012585 0)
(-0.00138311 -0.00175355 0)
(-0.00105849 -0.00250003 0)
(0.00178191 -0.0014054 0)
(0.000819075 -0.0037643 0)
(0.00206546 -0.00451639 0)
(0.000611003 -0.00622158 0)
(-0.00120182 -0.00668766 0)
(-0.00057526 -0.00451095 0)
(-1.59478e-05 -0.00387413 0)
(-0.00217977 -0.00133405 0)
(0.000387715 -0.000828756 0)
(0.000406385 -0.00266218 0)
(-0.000498679 -0.00374167 0)
(0.000352571 -0.00461734 0)
(0.00119552 -0.00253615 0)
(-0.0015105 0.00208544 0)
(-0.00255607 0.0045867 0)
(-0.00216156 0.00463953 0)
(-0.00270402 0.00963815 0)
(-0.00145981 0.0141409 0)
(0.00290571 0.0167668 0)
(0.00416061 0.0143347 0)
(0.00535203 0.0130684 0)
(0.00339221 0.00755715 0)
(0.00108904 0.0010653 0)
(-0.000719712 -0.00354336 0)
(-0.000349258 -0.00683492 0)
(-0.000983969 -0.00708735 0)
(-0.000689999 -0.00439713 0)
(-0.00158193 -0.00441805 0)
(-0.00240265 -0.0023935 0)
(-0.00290363 -0.00117589 0)
(-0.0016946 0.000278182 0)
(-0.00218916 0.00267904 0)
(0.00133734 0.00318427 0)
(-0.00111117 0.00395648 0)
(-0.00139444 0.0014121 0)
(0.00174544 -0.00425627 0)
(0.0041392 -0.00446849 0)
(9.53639e-05 -0.00448732 0)
(0.00336886 -0.00819588 0)
(4.40158e-05 -0.00893266 0)
(-0.000895159 -0.00783971 0)
(-0.000367988 -0.00776128 0)
(-0.000230325 -0.00844462 0)
(-0.000363724 -0.00676133 0)
(0.000580935 -0.00344854 0)
(-0.0024994 -0.00323689 0)
(-0.00119963 -0.00600595 0)
(-0.0043557 -0.0482908 0)
(-0.0130927 -0.00290142 0)
(-0.00852138 -0.0279607 0)
(-0.00897775 -0.008069 0)
(-0.00367237 -0.0168076 0)
(-0.00215681 -0.00751324 0)
(-0.00022687 -0.012928 0)
(-0.0020905 -0.0114974 0)
(-0.000836653 -0.0120123 0)
(-0.00198049 -0.0123835 0)
(-0.00136103 -0.0115465 0)
(-0.00306989 -0.0107316 0)
(-0.00139809 -0.0113566 0)
(0.000819409 -0.0111543 0)
(0.000786164 -0.00784029 0)
(0.000331277 -0.00915334 0)
(-0.000802896 -0.0143389 0)
(-0.00109973 -0.0169128 0)
(-0.00125604 -0.0164373 0)
(0.000524102 -0.0165307 0)
(0.00175382 -0.017313 0)
(0.00365502 -0.0161079 0)
(0.00247898 -0.0153765 0)
(-0.00219644 -0.018152 0)
(-0.00229203 -0.0151423 0)
(-0.00240005 -0.0159292 0)
(-0.00147811 -0.0215215 0)
(0.000330299 -0.0214217 0)
(0.00174087 -0.0219792 0)
(0.00127257 -0.0222616 0)
(0.00422943 -0.0218465 0)
(0.00126875 -0.0240809 0)
(-0.000950247 -0.0202609 0)
(-0.00294074 -0.0158164 0)
(-0.00314788 -0.0194208 0)
(-0.00207971 -0.0181362 0)
(0.000370681 -0.0160803 0)
(0.000875201 -0.0174714 0)
(-0.00110517 -0.0134598 0)
(-0.00121036 -0.0115871 0)
(-0.00112396 -0.0123786 0)
(-0.00272847 -0.0107745 0)
(-0.00760928 -0.00705987 0)
(-0.00436432 -0.00863251 0)
(-0.00552435 -0.00864044 0)
(-0.00402942 -0.00617851 0)
(0.000929762 -0.00325428 0)
(0.00675109 0.00137944 0)
(0.0103494 0.00347834 0)
(0.0103581 -0.00343807 0)
(0.0089724 -0.00768667 0)
(0.00471307 -0.0109453 0)
(0.00229478 -0.0127421 0)
(-0.00047881 -0.011706 0)
(-0.00481735 -0.0105278 0)
(-0.00315024 -0.0101067 0)
(0.00021178 -0.0110933 0)
(-0.00246926 -0.0129031 0)
(-0.00108545 -0.015696 0)
(-0.00197293 -0.0123473 0)
(-0.00089922 -0.0111797 0)
(0.00423861 -0.0131456 0)
(0.00299707 -0.00996009 0)
(0.00486762 -0.00938462 0)
(0.00506491 -0.0126972 0)
(-0.000504131 -0.0109575 0)
(-0.000767054 -0.0108885 0)
(-0.00127664 -0.0144111 0)
(-0.000302686 -0.0124295 0)
(-0.000216894 -0.013912 0)
(-0.000784783 -0.0154497 0)
(-0.00197451 -0.0142631 0)
(-0.00238437 -0.0123092 0)
(-0.000400289 -0.0129535 0)
(0.000239849 -0.00989271 0)
(-0.0027019 -0.0505096 0)
(-0.0100853 -0.00272063 0)
(-0.00637966 -0.0292435 0)
(-0.00617381 -0.0132774 0)
(-0.00424086 -0.018389 0)
(-0.00433778 -0.0108296 0)
(-0.00308258 -0.0156141 0)
(-0.00303108 -0.0142773 0)
(-0.000564157 -0.0132668 0)
(-0.00173947 -0.0121461 0)
(-0.0027195 -0.0134428 0)
(-0.00445713 -0.0141871 0)
(-0.0040761 -0.0116133 0)
(0.00170699 -0.01012 0)
(0.00533847 -0.0113599 0)
(0.00357532 -0.0138214 0)
(0.00252877 -0.0178068 0)
(-0.000321947 -0.0202463 0)
(0.000114646 -0.0200746 0)
(-0.000631291 -0.0197385 0)
(0.00134926 -0.0196778 0)
(0.000935527 -0.0186708 0)
(0.00276573 -0.0189041 0)
(0.000496371 -0.0205499 0)
(-5.75918e-05 -0.0210385 0)
(-0.00220903 -0.0214236 0)
(0.000536996 -0.023861 0)
(0.00348928 -0.0247558 0)
(0.0029198 -0.0257465 0)
(0.0026899 -0.022889 0)
(0.00202003 -0.0224956 0)
(0.000699222 -0.0257033 0)
(-0.000184972 -0.0237722 0)
(-0.00278893 -0.0230383 0)
(-0.00439271 -0.0248347 0)
(-0.00224666 -0.0242324 0)
(-0.0032146 -0.0230544 0)
(-0.00302285 -0.0226375 0)
(9.86421e-05 -0.015631 0)
(-0.00128247 -0.0115486 0)
(-0.00312405 -0.0146754 0)
(-0.00244607 -0.0162118 0)
(-0.00612464 -0.0104897 0)
(-0.00744484 -0.0131573 0)
(-0.00530911 -0.0163639 0)
(-0.0033399 -0.0145757 0)
(-0.000804946 -0.0155029 0)
(0.00835008 -0.0137185 0)
(0.00988989 -0.00917331 0)
(0.0101072 -0.0124699 0)
(0.00827871 -0.0185007 0)
(0.00378316 -0.0164209 0)
(0.00264812 -0.0148418 0)
(-0.000301927 -0.0167771 0)
(-0.00206028 -0.0125805 0)
(-0.0018369 -0.00919399 0)
(-0.0012367 -0.0143311 0)
(-0.00199341 -0.017312 0)
(-3.76896e-05 -0.0179622 0)
(8.74848e-05 -0.0198866 0)
(-0.00104381 -0.0158616 0)
(0.00413086 -0.0140703 0)
(0.00433941 -0.0156963 0)
(0.00308659 -0.014576 0)
(0.000139656 -0.0137376 0)
(0.00130342 -0.0132804 0)
(-0.00299137 -0.0142743 0)
(-0.000776083 -0.0150193 0)
(-0.00204297 -0.0133041 0)
(0.00314833 -0.0147087 0)
(0.00106636 -0.018037 0)
(-0.00118664 -0.0187088 0)
(-0.00233399 -0.0139161 0)
(-0.00240829 -0.0129974 0)
(0.00369375 -0.01519 0)
(-0.00617615 -0.0466101 0)
(-0.00989935 -0.00233931 0)
(-0.00698046 -0.0269391 0)
(-0.005479 -0.0120296 0)
(-0.00495415 -0.0202677 0)
(-0.00630127 -0.0156044 0)
(-0.0059967 -0.0203818 0)
(-0.00459674 -0.0158324 0)
(-0.0028286 -0.0141545 0)
(-0.00178448 -0.0156034 0)
(-0.00206697 -0.0143838 0)
(-0.00295568 -0.0140159 0)
(-0.00310042 -0.0103046 0)
(-0.00200292 -0.0080317 0)
(0.00320739 -0.00833437 0)
(0.00568378 -0.00956794 0)
(0.00468953 -0.012718 0)
(0.000930752 -0.0164122 0)
(-0.00129494 -0.0187166 0)
(0.000215934 -0.0196227 0)
(0.00122661 -0.018363 0)
(0.00445428 -0.0146809 0)
(0.00200036 -0.015506 0)
(-0.000195901 -0.0203753 0)
(-0.00258319 -0.0199799 0)
(-0.00136087 -0.0178368 0)
(0.00110434 -0.0168158 0)
(0.00479315 -0.0171243 0)
(0.00349118 -0.0178322 0)
(0.0048795 -0.0152138 0)
(0.00109354 -0.013719 0)
(0.000277799 -0.016834 0)
(-0.00177603 -0.0176477 0)
(-0.00306784 -0.0188318 0)
(-0.00255936 -0.0216469 0)
(-0.00380613 -0.0225649 0)
(-0.00262077 -0.0231856 0)
(-0.00305932 -0.0186998 0)
(-0.00279629 -0.0135745 0)
(-0.00438664 -0.0146337 0)
(-0.00704226 -0.013411 0)
(-0.003702 -0.0129569 0)
(-0.00452541 -0.0122272 0)
(-0.0078525 -0.0130644 0)
(-0.00412245 -0.0184181 0)
(-0.0027261 -0.0236736 0)
(0.00121537 -0.0249605 0)
(0.00665134 -0.0223382 0)
(0.0105376 -0.0204956 0)
(0.00794807 -0.0211532 0)
(0.00790955 -0.0216195 0)
(0.00530572 -0.0160378 0)
(0.00123454 -0.0142008 0)
(0.000207893 -0.0175814 0)
(0.00109925 -0.017049 0)
(-0.00308007 -0.01559 0)
(-0.00284867 -0.0163546 0)
(0.000857478 -0.0156549 0)
(0.000354865 -0.019368 0)
(0.00077651 -0.0215483 0)
(0.00233741 -0.0189268 0)
(0.000921857 -0.0178577 0)
(0.00189459 -0.0172896 0)
(0.00308726 -0.016652 0)
(0.00223584 -0.0181389 0)
(0.000648431 -0.0196109 0)
(-0.000492067 -0.0208434 0)
(-0.000511776 -0.0226603 0)
(-0.00226577 -0.0172829 0)
(0.00140953 -0.0173229 0)
(0.00112864 -0.0239372 0)
(-0.000684302 -0.0221907 0)
(-0.000688441 -0.0199268 0)
(-0.000510579 -0.017434 0)
(0.000359666 -0.0190056 0)
(-0.00621313 -0.0494048 0)
(-0.007991 0.000711382 0)
(-0.00482327 -0.027301 0)
(-0.00289886 -0.00858768 0)
(-0.00234221 -0.0181117 0)
(-0.00311777 -0.0133002 0)
(-0.00459675 -0.0167237 0)
(-0.00334215 -0.0164558 0)
(-0.00665492 -0.0153164 0)
(-0.00465194 -0.0145306 0)
(-0.0047506 -0.0145187 0)
(-0.00419074 -0.0146452 0)
(-0.00285628 -0.0135795 0)
(-0.00197858 -0.00913376 0)
(8.32792e-05 -0.00907276 0)
(0.00412041 -0.0111876 0)
(0.00694136 -0.0107787 0)
(0.00559128 -0.0111401 0)
(0.00207309 -0.0129971 0)
(0.00243174 -0.0163513 0)
(0.00259238 -0.0153526 0)
(0.00310824 -0.0138977 0)
(-0.000405985 -0.0156905 0)
(-0.00159301 -0.0173038 0)
(-0.00024903 -0.0147866 0)
(-0.000952679 -0.0114229 0)
(0.0010857 -0.0128718 0)
(0.000372484 -0.0174298 0)
(0.00125914 -0.0170373 0)
(0.00286077 -0.0130755 0)
(0.00211111 -0.0122734 0)
(0.00118624 -0.0117235 0)
(-0.00034863 -0.0133387 0)
(-4.50636e-05 -0.0163941 0)
(-0.00132963 -0.0205965 0)
(-0.00125065 -0.0177887 0)
(-0.00356316 -0.0150032 0)
(-0.0043579 -0.0161109 0)
(-0.00707752 -0.0150212 0)
(-0.00571165 -0.0152012 0)
(-0.0043643 -0.0132382 0)
(-0.00682672 -0.0131475 0)
(-0.0051499 -0.0165436 0)
(-0.00426037 -0.0184217 0)
(-0.00216216 -0.022248 0)
(-0.00153112 -0.0259215 0)
(0.0017432 -0.0254273 0)
(0.00330697 -0.0238781 0)
(0.0084971 -0.0204085 0)
(0.00764374 -0.0202112 0)
(0.00678171 -0.0186138 0)
(0.00497159 -0.0169887 0)
(0.000321503 -0.0183129 0)
(0.000788863 -0.0204301 0)
(0.000557469 -0.0215082 0)
(-0.000129873 -0.0187332 0)
(0.000561079 -0.0158795 0)
(0.000932065 -0.0204278 0)
(-0.00185202 -0.0247122 0)
(-0.00140412 -0.0242514 0)
(-0.0011028 -0.0225038 0)
(-7.67714e-05 -0.0215312 0)
(0.00116251 -0.0190328 0)
(0.00483388 -0.0190209 0)
(0.00348908 -0.0200803 0)
(0.00157457 -0.020303 0)
(0.000715224 -0.0201976 0)
(0.000138548 -0.021674 0)
(0.00190833 -0.01757 0)
(-0.00132328 -0.0183282 0)
(-0.000989528 -0.0233258 0)
(-0.000934823 -0.0229045 0)
(-8.07673e-05 -0.0181579 0)
(0.00317649 -0.0186223 0)
(-0.000966715 -0.0235709 0)
(-0.00497614 -0.0551726 0)
(-0.010603 0.00213413 0)
(-0.00856733 -0.0259947 0)
(-0.0038894 -0.00864045 0)
(-0.00273205 -0.0154629 0)
(-0.00294581 -0.00888801 0)
(-0.00529164 -0.0111519 0)
(-0.00350001 -0.0108878 0)
(-0.00348774 -0.0128254 0)
(-0.00260059 -0.0138949 0)
(-0.00297249 -0.018235 0)
(-0.00205559 -0.0196645 0)
(-0.0011721 -0.02139 0)
(0.000625602 -0.0178084 0)
(-0.0015578 -0.0156555 0)
(0.00247298 -0.0143517 0)
(0.00407798 -0.0150147 0)
(0.00591996 -0.0150663 0)
(0.00630372 -0.0147593 0)
(0.0045424 -0.0159721 0)
(0.00382577 -0.0160847 0)
(-0.000545317 -0.0150088 0)
(0.00222913 -0.0153676 0)
(0.00132247 -0.0146103 0)
(0.00141284 -0.0118438 0)
(-0.000538993 -0.0101207 0)
(0.000279475 -0.0131263 0)
(-0.00195016 -0.0181558 0)
(-0.00102156 -0.0174491 0)
(-0.00229244 -0.0148221 0)
(0.00130831 -0.0140942 0)
(0.000407185 -0.0155365 0)
(0.00193347 -0.0152053 0)
(0.00212256 -0.0140104 0)
(0.00118093 -0.013243 0)
(-0.00257031 -0.00903335 0)
(-0.00778335 -0.00743897 0)
(-0.0070328 -0.00892756 0)
(-0.00517857 -0.0109871 0)
(-0.00184681 -0.0145603 0)
(-0.000109605 -0.0174264 0)
(-0.0031345 -0.0158396 0)
(-0.00313723 -0.0161109 0)
(-0.00287018 -0.0183458 0)
(-0.00318179 -0.022001 0)
(-0.00320948 -0.0231664 0)
(-0.000719639 -0.0202548 0)
(0.00399824 -0.0166494 0)
(0.00550425 -0.0158761 0)
(0.00654473 -0.0176766 0)
(0.00678668 -0.0162642 0)
(0.00459516 -0.0163512 0)
(0.00226317 -0.0183801 0)
(0.00163027 -0.0210388 0)
(0.000129317 -0.0210648 0)
(0.00022778 -0.0183823 0)
(0.0016945 -0.0168884 0)
(-0.00175619 -0.0195674 0)
(-0.00194571 -0.0208189 0)
(0.00042382 -0.0203981 0)
(0.000871053 -0.0196894 0)
(3.74654e-05 -0.0208402 0)
(-0.000183175 -0.0168773 0)
(0.00324968 -0.0163564 0)
(0.00192766 -0.0201345 0)
(0.00182406 -0.0193932 0)
(0.000837906 -0.0193721 0)
(0.00113739 -0.0190944 0)
(0.00167521 -0.0175426 0)
(-0.00084826 -0.0181133 0)
(0.000517684 -0.0206967 0)
(0.00238352 -0.0180112 0)
(0.0023329 -0.0150341 0)
(-0.00212407 -0.0183201 0)
(-0.00214 -0.0216935 0)
(-0.00656507 -0.0478098 0)
(-0.00985268 -2.8463e-06 0)
(-0.00848953 -0.0250507 0)
(-0.00452359 -0.00990887 0)
(-0.00552907 -0.0201789 0)
(-0.0042255 -0.0173753 0)
(-0.0037786 -0.0206927 0)
(-0.00205829 -0.0218449 0)
(-0.000416358 -0.0240794 0)
(-0.000436042 -0.0282737 0)
(0.000343785 -0.0321022 0)
(-0.00119874 -0.0336081 0)
(-0.00294686 -0.0316863 0)
(-0.00401966 -0.0295559 0)
(-0.0035698 -0.0242597 0)
(-8.91388e-05 -0.0219196 0)
(0.00401522 -0.0225075 0)
(0.00686027 -0.0222824 0)
(0.00692245 -0.0211715 0)
(0.00405289 -0.0196389 0)
(0.000954683 -0.0189066 0)
(9.19549e-05 -0.013449 0)
(0.00186143 -0.013348 0)
(0.00483415 -0.0187076 0)
(0.00170229 -0.0176153 0)
(0.0016338 -0.0141279 0)
(-0.00265549 -0.0160953 0)
(-0.00221926 -0.0201371 0)
(-0.000644816 -0.0201045 0)
(-0.000186726 -0.0154158 0)
(0.000342496 -0.0154385 0)
(0.000328982 -0.0188674 0)
(0.000696816 -0.0158662 0)
(-0.00366332 -0.0100604 0)
(-0.00320827 -0.00663919 0)
(-0.0064658 -0.00752354 0)
(-0.00525918 -0.00774895 0)
(-0.00328508 -0.0129006 0)
(-0.000409896 -0.0182618 0)
(-0.000613108 -0.020402 0)
(-0.000382992 -0.0209384 0)
(0.000578017 -0.0199347 0)
(-0.00173648 -0.0183804 0)
(-0.000888255 -0.0198418 0)
(-0.00387753 -0.0234265 0)
(-0.00318685 -0.0215931 0)
(-0.00182838 -0.0172863 0)
(0.00147706 -0.0192805 0)
(0.00186474 -0.0217601 0)
(0.00380746 -0.0196782 0)
(0.00629713 -0.0174289 0)
(0.00842906 -0.0176399 0)
(0.00530386 -0.0196993 0)
(0.00318336 -0.0218553 0)
(0.00115635 -0.0228826 0)
(-0.00025834 -0.0177698 0)
(-0.000860479 -0.0167904 0)
(-0.00176561 -0.0207436 0)
(-0.00170166 -0.017929 0)
(0.00178177 -0.016991 0)
(0.00125893 -0.020082 0)
(0.00124677 -0.0211411 0)
(0.00355901 -0.0166492 0)
(-0.000163226 -0.0162077 0)
(-0.00168877 -0.0183923 0)
(0.000792836 -0.016966 0)
(0.00238043 -0.0186174 0)
(0.000903197 -0.0204817 0)
(0.000542686 -0.0204631 0)
(0.000359056 -0.0201547 0)
(0.00263359 -0.0196513 0)
(0.00376839 -0.0185886 0)
(0.00111947 -0.0192161 0)
(-0.00257234 -0.020857 0)
(-0.00146125 -0.0218225 0)
(-0.00667228 -0.050915 0)
(-0.00820153 0.00461742 0)
(-0.00655517 -0.024773 0)
(-0.00422846 -0.0144452 0)
(-0.00460613 -0.0236211 0)
(-0.00311147 -0.0192996 0)
(-0.00323014 -0.025192 0)
(-6.77094e-05 -0.0263998 0)
(0.000257392 -0.027977 0)
(0.000963151 -0.0273647 0)
(0.00133305 -0.0284782 0)
(-0.000991913 -0.0308105 0)
(-0.00191003 -0.0321878 0)
(-0.0024025 -0.0342445 0)
(-0.00152875 -0.0348741 0)
(-0.00492017 -0.0329228 0)
(-0.00208428 -0.0298187 0)
(0.00432998 -0.0264442 0)
(0.00465817 -0.0248345 0)
(0.00376396 -0.0236305 0)
(0.00340715 -0.0207473 0)
(0.00353157 -0.0176186 0)
(0.00156992 -0.0172413 0)
(0.00259437 -0.0219509 0)
(0.00232642 -0.019318 0)
(0.000694278 -0.016414 0)
(-0.00298155 -0.0181871 0)
(-0.00258928 -0.0162832 0)
(-0.00214422 -0.0151381 0)
(-0.0013577 -0.0134186 0)
(-0.00413246 -0.0114736 0)
(-0.00261378 -0.0107176 0)
(-0.0013206 -0.0114132 0)
(-0.0022955 -0.00780498 0)
(-0.00286459 -0.00964063 0)
(-0.00213566 -0.0156948 0)
(0.00111881 -0.0168888 0)
(0.00103686 -0.0194265 0)
(0.000579584 -0.0207018 0)
(-0.000744037 -0.0202747 0)
(-0.000811645 -0.0201213 0)
(-0.0012512 -0.0202981 0)
(0.00181598 -0.0164502 0)
(-4.70969e-05 -0.0167449 0)
(-0.00243096 -0.021555 0)
(-0.00129007 -0.0211357 0)
(-0.00133861 -0.0209942 0)
(-0.0023192 -0.023514 0)
(0.00207186 -0.0267044 0)
(0.00376227 -0.0254283 0)
(0.00502458 -0.0200163 0)
(0.00525916 -0.0213249 0)
(0.00325696 -0.0229342 0)
(0.00258319 -0.021635 0)
(0.000685651 -0.021634 0)
(-0.000124571 -0.0186633 0)
(-0.00310574 -0.0176174 0)
(-0.0019518 -0.0201122 0)
(-0.000394882 -0.0149499 0)
(0.00140289 -0.0132646 0)
(0.00140515 -0.0172232 0)
(0.00224714 -0.0162261 0)
(0.00316105 -0.0158803 0)
(0.000558227 -0.0185021 0)
(-0.00083112 -0.0153543 0)
(0.000746283 -0.0108615 0)
(0.00195295 -0.0159269 0)
(0.000577697 -0.0194747 0)
(0.000303875 -0.0195858 0)
(0.000255759 -0.0192672 0)
(0.00121244 -0.0181602 0)
(0.00216571 -0.0184068 0)
(0.00169531 -0.0179543 0)
(-0.000755116 -0.0186088 0)
(-0.00227063 -0.0180778 0)
(-0.00288406 -0.0512456 0)
(-0.00515533 -0.0011068 0)
(-0.00635977 -0.026162 0)
(-0.00329987 -0.0109649 0)
(-0.000225852 -0.0226893 0)
(-0.00319683 -0.0207772 0)
(-0.00336957 -0.0225711 0)
(-0.00161063 -0.023113 0)
(-0.000606175 -0.0274946 0)
(-0.0008344 -0.0255555 0)
(0.00242856 -0.0245226 0)
(0.000953647 -0.0243498 0)
(0.00057961 -0.0241008 0)
(-0.000818069 -0.0254564 0)
(-0.00166936 -0.0256208 0)
(-0.00309026 -0.0268804 0)
(-0.0022545 -0.0245532 0)
(0.000163813 -0.0229168 0)
(0.00262657 -0.0256881 0)
(0.00380019 -0.0242139 0)
(0.00402686 -0.0236815 0)
(0.00144646 -0.0195865 0)
(0.00292002 -0.0176427 0)
(0.000391374 -0.018291 0)
(0.00128004 -0.0171987 0)
(-0.00354099 -0.0168268 0)
(-0.00403266 -0.0168598 0)
(-0.00479468 -0.0178171 0)
(-0.00429013 -0.0184778 0)
(-0.00407866 -0.0179979 0)
(-0.00528521 -0.0175698 0)
(-0.00109975 -0.0175768 0)
(0.00127473 -0.0186851 0)
(0.00251618 -0.0179304 0)
(-0.0005084 -0.0193495 0)
(-0.00366806 -0.0206068 0)
(-0.00159752 -0.0202655 0)
(-0.000897814 -0.0210103 0)
(-0.000376379 -0.0200696 0)
(-0.000604005 -0.0185667 0)
(0.000396281 -0.0186758 0)
(0.00139203 -0.0155307 0)
(0.00116985 -0.0138057 0)
(-0.00194278 -0.0168009 0)
(-0.00247697 -0.0173722 0)
(-0.00186497 -0.017573 0)
(-0.00157858 -0.0213311 0)
(0.000988033 -0.0228829 0)
(0.00585514 -0.0238027 0)
(0.00624914 -0.0238107 0)
(0.00478003 -0.0208717 0)
(0.0019728 -0.0208098 0)
(0.00180875 -0.0204166 0)
(0.00100183 -0.0197919 0)
(0.000277316 -0.0197088 0)
(-0.00184167 -0.0167465 0)
(-0.00154603 -0.0161948 0)
(-0.00188543 -0.0179924 0)
(-0.00061407 -0.0157802 0)
(-0.00135245 -0.0138615 0)
(0.000195995 -0.015868 0)
(0.00260918 -0.0154234 0)
(0.00285438 -0.0138055 0)
(0.00346046 -0.0151198 0)
(0.0038832 -0.0120199 0)
(0.000989293 -0.00805019 0)
(3.37127e-05 -0.0130669 0)
(-0.000227825 -0.0174245 0)
(-0.000273746 -0.0192253 0)
(0.000275952 -0.0197209 0)
(0.000698312 -0.0190958 0)
(0.0012516 -0.0170618 0)
(-0.000863141 -0.0153178 0)
(0.00138245 -0.0144424 0)
(-0.00139976 -0.0154724 0)
(-0.00182926 -0.0515063 0)
(-0.00453823 0.00232097 0)
(-0.00459934 -0.0274483 0)
(-0.00580258 -0.00771193 0)
(-0.00187969 -0.0193557 0)
(-0.000412933 -0.0156624 0)
(0.000720801 -0.0173909 0)
(-0.00112409 -0.0186375 0)
(0.000186878 -0.0221678 0)
(-0.000465302 -0.0183796 0)
(-0.000430513 -0.0176306 0)
(-0.00123511 -0.0190307 0)
(-0.000297633 -0.0173176 0)
(-0.00223928 -0.016426 0)
(-0.00255778 -0.0159738 0)
(-0.00177078 -0.0165134 0)
(0.00188582 -0.0165804 0)
(0.000264651 -0.0179813 0)
(0.00233358 -0.0194216 0)
(0.00327115 -0.0196289 0)
(0.00303236 -0.0195637 0)
(0.00147862 -0.0130479 0)
(0.000565671 -0.0107161 0)
(-0.000149345 -0.0151649 0)
(-0.00131626 -0.0138474 0)
(-0.00481108 -0.0124778 0)
(-0.00194722 -0.0136462 0)
(-0.00223453 -0.0159983 0)
(-0.000975748 -0.0183185 0)
(-0.000581702 -0.0215026 0)
(-0.000901196 -0.0198371 0)
(0.000313042 -0.0173432 0)
(-0.000689014 -0.0190279 0)
(-0.000346134 -0.0185871 0)
(-0.00284058 -0.0219251 0)
(-0.00307973 -0.0210103 0)
(-0.0017215 -0.0201935 0)
(-0.00100152 -0.0244156 0)
(-0.000587485 -0.0232498 0)
(-0.00182352 -0.0210162 0)
(-0.000244895 -0.018437 0)
(0.00292455 -0.0186797 0)
(-0.00160126 -0.0190513 0)
(-0.00223615 -0.0199496 0)
(-0.000284168 -0.0227054 0)
(5.98343e-05 -0.0266222 0)
(6.03347e-05 -0.0253498 0)
(0.00440573 -0.021896 0)
(0.0041628 -0.0230927 0)
(0.00322272 -0.0246528 0)
(0.00500134 -0.0212082 0)
(0.00210122 -0.020744 0)
(0.000889013 -0.0208975 0)
(-0.00112559 -0.0193856 0)
(-0.00150369 -0.0192301 0)
(-0.00175973 -0.0142346 0)
(-0.00233321 -0.0138494 0)
(-0.000648881 -0.0185766 0)
(-0.000490402 -0.0184543 0)
(-0.000859473 -0.0186086 0)
(-8.1041e-05 -0.019911 0)
(0.0015138 -0.0188236 0)
(0.00284743 -0.0171141 0)
(0.00318022 -0.0168851 0)
(0.00376567 -0.0164165 0)
(-0.00136043 -0.0136162 0)
(0.00082917 -0.0153258 0)
(0.000823222 -0.0178531 0)
(0.00203712 -0.0180685 0)
(0.00141523 -0.017798 0)
(0.0011382 -0.0167166 0)
(0.000944715 -0.0179897 0)
(-0.000144067 -0.014493 0)
(-0.000455933 -0.0142874 0)
(-0.000501197 -0.0183173 0)
(-0.00257885 -0.0559584 0)
(-0.00676767 0.00752992 0)
(-0.00241927 -0.0285107 0)
(-0.00478204 -0.00461681 0)
(-0.00293977 -0.0159956 0)
(-0.000773493 -0.0146875 0)
(0.000461656 -0.0187636 0)
(0.000526235 -0.0172331 0)
(0.000915394 -0.0182082 0)
(0.000572389 -0.01568 0)
(-0.0040047 -0.0153191 0)
(-0.00426055 -0.0127528 0)
(-0.000461341 -0.0132469 0)
(-0.000884997 -0.01713 0)
(-0.0022093 -0.0170727 0)
(-0.00112968 -0.0157842 0)
(0.00082496 -0.0160815 0)
(0.00135221 -0.0157469 0)
(0.00135419 -0.0143321 0)
(0.000916611 -0.0147805 0)
(0.00111983 -0.0143945 0)
(0.00211927 -0.0106084 0)
(0.000119145 -0.0104182 0)
(0.000771528 -0.0142248 0)
(-0.000870838 -0.0166695 0)
(-0.00347458 -0.0139962 0)
(-0.000534418 -0.0138688 0)
(-0.000958405 -0.0190445 0)
(-0.000110115 -0.0210442 0)
(0.0011172 -0.0225133 0)
(0.00199647 -0.0203923 0)
(0.000417808 -0.0191735 0)
(-0.000646085 -0.019471 0)
(-0.000122131 -0.0194011 0)
(-0.00241209 -0.0217039 0)
(2.08143e-05 -0.0217667 0)
(-0.0028912 -0.0228002 0)
(-0.00244008 -0.0251747 0)
(-0.00123882 -0.0255821 0)
(-0.000361107 -0.0220248 0)
(0.000118156 -0.0176507 0)
(-0.000170452 -0.0211974 0)
(-0.000365976 -0.0259126 0)
(-0.00103569 -0.0260567 0)
(-0.00032516 -0.027632 0)
(0.00149452 -0.0302341 0)
(0.00233225 -0.0263357 0)
(0.00364951 -0.0228311 0)
(0.000689884 -0.0245882 0)
(0.00211318 -0.0195004 0)
(0.0021475 -0.018225 0)
(0.00113118 -0.0207653 0)
(-0.000736946 -0.0187278 0)
(-0.00125677 -0.016365 0)
(-0.000991635 -0.0152332 0)
(0.00037733 -0.0141285 0)
(-0.00303418 -0.0136781 0)
(-0.00139023 -0.0149175 0)
(0.00066531 -0.0171932 0)
(-0.00111365 -0.0179712 0)
(-0.0022827 -0.0187182 0)
(0.00163341 -0.0182315 0)
(0.00224881 -0.0190556 0)
(0.00235088 -0.0200711 0)
(0.00326151 -0.021003 0)
(0.00193186 -0.0158432 0)
(0.000420794 -0.0158355 0)
(-0.000601171 -0.0196115 0)
(-0.000623177 -0.0184103 0)
(-0.000542487 -0.0174611 0)
(0.000169014 -0.0156596 0)
(0.00160694 -0.0173433 0)
(0.00365814 -0.0184244 0)
(-0.00024496 -0.0190711 0)
(-0.0002945 -0.0210272 0)
(-0.00933996 -0.0479623 0)
(-0.00756736 5.06235e-05 0)
(-0.00197455 -0.0266205 0)
(-0.000712543 -0.00606183 0)
(-0.000989957 -0.0181185 0)
(-0.00216181 -0.0142258 0)
(0.00113256 -0.0168871 0)
(0.000608259 -0.015854 0)
(0.000665506 -0.0167358 0)
(-0.00112691 -0.0160458 0)
(-0.00213121 -0.0163201 0)
(-0.0007075 -0.0121455 0)
(-0.00120682 -0.0132477 0)
(-0.00122884 -0.01954 0)
(-0.00109058 -0.018578 0)
(-0.00236028 -0.0160457 0)
(-3.36232e-05 -0.0151954 0)
(-0.000166179 -0.0136288 0)
(7.84694e-05 -0.0119063 0)
(0.00103033 -0.0122327 0)
(0.00027696 -0.0128903 0)
(0.00373567 -0.0102048 0)
(0.00216614 -0.00989055 0)
(0.00260148 -0.0144246 0)
(0.000672447 -0.0165794 0)
(-0.000267185 -0.012563 0)
(-0.00250754 -0.0127854 0)
(-0.00163237 -0.0181414 0)
(-0.000925451 -0.0185908 0)
(0.000813955 -0.0198687 0)
(0.00209277 -0.0189853 0)
(0.00108759 -0.0182237 0)
(-0.0006182 -0.0187059 0)
(-0.00110335 -0.0184564 0)
(-0.00293738 -0.0191719 0)
(-0.00255099 -0.0175234 0)
(-0.000270047 -0.0182032 0)
(-0.00107747 -0.0209613 0)
(-0.000763867 -0.0223206 0)
(0.000522549 -0.0211358 0)
(0.00154185 -0.020499 0)
(-0.00137765 -0.0224332 0)
(-0.000704442 -0.0252606 0)
(-6.43095e-05 -0.0264699 0)
(0.00124248 -0.0264517 0)
(0.00102847 -0.0264243 0)
(0.00167069 -0.0230175 0)
(0.0016799 -0.0204585 0)
(0.00128971 -0.020978 0)
(0.00113313 -0.0194959 0)
(-0.00192963 -0.0181769 0)
(-0.000334388 -0.0173128 0)
(-0.00202145 -0.0166698 0)
(-0.00325021 -0.0144554 0)
(-0.00203092 -0.0144145 0)
(-0.0015725 -0.0145871 0)
(4.68017e-05 -0.0147536 0)
(-0.000119402 -0.0151702 0)
(0.000686893 -0.0159806 0)
(0.000168863 -0.018446 0)
(0.000474622 -0.0152925 0)
(-0.000115944 -0.0148255 0)
(0.00352022 -0.01859 0)
(0.00213334 -0.020942 0)
(0.00126296 -0.0206837 0)
(0.00340771 -0.0178821 0)
(-0.0012173 -0.017803 0)
(-0.000514423 -0.0184188 0)
(0.000360743 -0.0183943 0)
(0.000862528 -0.0190527 0)
(0.000886449 -0.0179333 0)
(0.00109548 -0.018862 0)
(0.00223972 -0.0192201 0)
(0.00078184 -0.018631 0)
(0.000392571 -0.0180191 0)
(-0.0025089 -0.0626014 0)
(-0.00639408 -0.00228531 0)
(-0.00553624 -0.029188 0)
(-0.00294023 -0.0130863 0)
(-0.00138104 -0.022341 0)
(-0.00142264 -0.0169888 0)
(0.00207495 -0.017934 0)
(9.97238e-05 -0.0171769 0)
(-0.000985978 -0.0178849 0)
(-0.00102744 -0.0186331 0)
(-0.00146925 -0.0169931 0)
(0.00255417 -0.0161657 0)
(-0.00179454 -0.0194789 0)
(-0.00114212 -0.0220092 0)
(-0.00136521 -0.0214668 0)
(-0.0025487 -0.0174576 0)
(-0.00292409 -0.0168086 0)
(-0.00358582 -0.0192569 0)
(0.00101013 -0.0165806 0)
(0.00245505 -0.0165856 0)
(0.00324326 -0.014343 0)
(0.00463315 -0.0135544 0)
(0.0028408 -0.0156127 0)
(0.000741919 -0.01708 0)
(0.000446205 -0.0190747 0)
(0.000629001 -0.0170417 0)
(-0.00246312 -0.016739 0)
(-0.00200529 -0.0194184 0)
(-0.00237335 -0.0190413 0)
(-0.00103126 -0.0178942 0)
(0.00411234 -0.0166138 0)
(0.00227086 -0.0181107 0)
(-0.000176716 -0.0188363 0)
(-0.00120705 -0.0199077 0)
(-0.00227248 -0.021412 0)
(0.000149071 -0.017611 0)
(-0.000563382 -0.0188666 0)
(0.000226131 -0.0226085 0)
(0.00158433 -0.0227248 0)
(0.00160556 -0.019018 0)
(0.000758763 -0.0186644 0)
(-0.000184984 -0.0228567 0)
(0.000362085 -0.0237769 0)
(0.00083292 -0.0232597 0)
(-0.00014558 -0.0217581 0)
(0.000550925 -0.020713 0)
(0.000218605 -0.0163756 0)
(0.000274411 -0.0139181 0)
(-0.00033412 -0.015867 0)
(-0.000309543 -0.0155698 0)
(-0.00123445 -0.0131005 0)
(-0.00191287 -0.0124713 0)
(-0.00237067 -0.0150342 0)
(-0.00302449 -0.0149412 0)
(-0.00301144 -0.0162617 0)
(-0.00353312 -0.0154765 0)
(0.0010174 -0.0151058 0)
(0.00101118 -0.0161169 0)
(0.000940867 -0.0158456 0)
(0.0015432 -0.0156431 0)
(0.00226823 -0.0152271 0)
(0.000384026 -0.0118066 0)
(0.0025242 -0.0137805 0)
(0.00313278 -0.0192404 0)
(0.00263479 -0.01596 0)
(0.000179598 -0.0135227 0)
(-0.00317668 -0.016125 0)
(-0.00174029 -0.0160732 0)
(0.000164858 -0.016979 0)
(-0.000424533 -0.0174138 0)
(0.00286546 -0.016517 0)
(0.00124456 -0.0180273 0)
(0.00188206 -0.0196146 0)
(0.00225339 -0.0203143 0)
(0.0019433 -0.01885 0)
(-0.00241166 -0.0453686 0)
(-0.00396933 0.00285775 0)
(-0.00452857 -0.0297632 0)
(-0.00247319 -0.0132413 0)
(-0.00141891 -0.022199 0)
(6.71263e-05 -0.0150052 0)
(1.83849e-06 -0.0172174 0)
(-0.000626577 -0.020795 0)
(-0.00052586 -0.0219459 0)
(-0.000269531 -0.0233315 0)
(0.00080464 -0.0187402 0)
(1.50893e-05 -0.016956 0)
(-0.000991381 -0.0211061 0)
(-0.000805915 -0.0216702 0)
(-0.00087414 -0.021376 0)
(0.000171404 -0.0216048 0)
(-0.00507953 -0.0234634 0)
(-0.00155449 -0.0205047 0)
(0.00233015 -0.0178254 0)
(0.00315785 -0.0194787 0)
(0.00484349 -0.0183396 0)
(0.000976399 -0.0172017 0)
(-0.000511499 -0.0190914 0)
(0.00116163 -0.0217259 0)
(0.000325492 -0.0222773 0)
(-0.000398874 -0.0219238 0)
(-0.00213415 -0.021613 0)
(-0.00311077 -0.0224583 0)
(-0.00393111 -0.0208262 0)
(-0.00124108 -0.0145072 0)
(0.00232216 -0.0140799 0)
(0.00243607 -0.0188132 0)
(0.00165431 -0.0191206 0)
(-1.48245e-05 -0.0193914 0)
(-0.000111566 -0.0168982 0)
(0.000860304 -0.0157992 0)
(-0.00180489 -0.0204438 0)
(6.21278e-05 -0.0204771 0)
(0.00185196 -0.0190066 0)
(0.00213165 -0.0183473 0)
(-0.000791709 -0.0187103 0)
(-0.000805631 -0.0194685 0)
(-0.00049369 -0.0200721 0)
(0.000289794 -0.0200165 0)
(-4.68814e-06 -0.0187447 0)
(-0.000436082 -0.0176162 0)
(-0.000412427 -0.0148578 0)
(-0.00216642 -0.0143915 0)