/*--------------------------------*- C++ -*----------------------------------*\
  =========                 |
  \\      /  F ield         | OpenFOAM: The Open Source CFD Toolbox
   \\    /   O peration     | Website:  https://openfoam.org
    \\  /    A nd           | Version:  12
     \\/     M anipulation  |
\*---------------------------------------------------------------------------*/
FoamFile
{
    format      ascii;
    class       volVectorField;
    location    "0.3";
    object      U.water_0;
}
// * * * * * * * * * * * * * * * * * * * * * * * * * * * * * * * * * * * * * //

dimensions      [0 1 -1 0 0 0 0];

internalField   nonuniform List<vector> 
3750
(
(-0.0088445 -0.0527321 0)
(-0.0160887 0.00986069 0)
(-0.00199728 -0.0133767 0)
(-0.00441443 0.014215 0)
(-0.000480648 0.00254957 0)
(0.00185321 0.00991486 0)
(0.00142198 0.00292717 0)
(0.00110098 0.0054309 0)
(0.00145644 0.0090255 0)
(-0.00228599 0.0101056 0)
(-0.00267358 0.00810112 0)
(-0.000400764 0.0105008 0)
(-0.000154876 0.0105293 0)
(-0.000510709 0.0102507 0)
(0.000335161 0.00883498 0)
(0.000605291 0.00993268 0)
(0.00156508 0.0102402 0)
(0.000931549 0.00932973 0)
(0.00204055 0.0148885 0)
(-0.00246078 0.0148488 0)
(-0.00127396 0.00999901 0)
(-0.00171638 0.0101609 0)
(-0.000579773 0.00956484 0)
(0.000290576 0.0099365 0)
(0.000780438 0.010928 0)
(0.000187861 0.0126701 0)
(0.00142754 0.0124853 0)
(0.00241573 0.0162031 0)
(-0.00119097 0.0162857 0)
(-0.00109189 0.0100677 0)
(-0.00158125 0.00958376 0)
(-0.00143242 0.0106045 0)
(-0.0015481 0.0127463 0)
(0.000364445 0.0130473 0)
(9.52603e-05 0.0130439 0)
(0.000240125 0.0141585 0)
(0.00088088 0.0155435 0)
(-4.06112e-05 0.0144199 0)
(-0.000280617 0.0139689 0)
(-0.00129397 0.0156945 0)
(-0.000199733 0.0160467 0)
(0.00144236 0.0146438 0)
(0.000984414 0.0152978 0)
(0.00294207 0.0211036 0)
(-0.00114052 0.0229385 0)
(0.000697387 0.0203515 0)
(0.00185454 0.0203749 0)
(0.00184362 0.0173057 0)
(0.00237567 0.0131435 0)
(-0.000816051 0.00834124 0)
(-0.00334954 0.00864761 0)
(-0.00166066 0.0100479 0)
(-0.000611438 0.0101656 0)
(-0.00110158 0.0102914 0)
(-9.38892e-05 0.0102434 0)
(0.00105109 0.0118079 0)
(0.000327137 0.0128233 0)
(0.00169684 0.012495 0)
(0.000542503 0.0134957 0)
(0.00152901 0.0141879 0)
(0.00091727 0.0146344 0)
(0.000234909 0.0123466 0)
(0.00121629 0.0100433 0)
(0.00262008 0.0126273 0)
(-0.00113618 0.0149128 0)
(-0.00345164 0.00848091 0)
(-0.00111811 0.00290279 0)
(0.000613751 0.00457351 0)
(-0.000858533 0.0060135 0)
(0.000145432 0.00695088 0)
(-0.00052587 0.00729716 0)
(0.000143724 0.00882771 0)
(-0.000933589 0.0103244 0)
(-0.000434501 0.0100784 0)
(0.00062749 0.00968327 0)
(-0.00492242 -0.054623 0)
(-0.0138102 0.000743419 0)
(-0.0031575 -0.0251718 0)
(-0.00415923 -0.00635748 0)
(-0.000198069 -0.0145024 0)
(-0.0016457 -0.00388189 0)
(-0.000164739 -0.0115631 0)
(-0.00131441 -0.00609375 0)
(0.00203895 -0.00625955 0)
(-0.00324336 -0.00329116 0)
(-0.00360297 -0.00252479 0)
(-0.00252176 -0.000187369 0)
(-0.00144878 -0.0045654 0)
(-0.000262243 -0.00354979 0)
(0.000409279 -0.00387744 0)
(-0.000327832 -0.00119497 0)
(-0.000362975 0.000361366 0)
(-0.000909339 0.000197751 0)
(0.00216234 0.00224204 0)
(-0.00176576 0.000218275 0)
(0.00108203 -0.00256228 0)
(0.00135315 -0.00465366 0)
(0.000187972 -0.00606014 0)
(-0.00128678 -0.00567002 0)
(-0.00254817 -0.00453917 0)
(-0.00304313 -0.000937339 0)
(-0.000480683 0.000716844 0)
(0.00300386 -0.000335675 0)
(-4.73754e-05 1.18085e-05 0)
(-0.000115827 -0.00378876 0)
(0.00110153 -0.00615298 0)
(-0.000180829 -0.00779365 0)
(-0.0017436 -0.00589901 0)
(-0.000367948 -0.00453341 0)
(-0.00346467 -0.00386069 0)
(-0.000821691 -0.000250138 0)
(-0.000181046 6.06001e-06 0)
(0.00131801 -0.00237316 0)
(0.000770704 -0.00353399 0)
(-0.000707626 -0.00245466 0)
(0.0021573 0.000695853 0)
(-0.000243245 -0.000573506 0)
(-0.00145528 0.0026933 0)
(-0.00255718 0.00684463 0)
(-0.00581186 0.00915631 0)
(-0.00344303 0.0139497 0)
(0.00401833 0.0162642 0)
(0.00764639 0.0171623 0)
(0.00609856 0.0140769 0)
(0.00282304 0.00481277 0)
(0.00179356 0.00385968 0)
(0.000132681 -0.000155888 0)
(-0.000315904 -0.00623 0)
(-0.00077476 -0.00778847 0)
(0.000125062 -0.00533125 0)
(-0.00188286 -0.00438709 0)
(-0.00441081 -0.00149216 0)
(-0.00239522 -0.000400031 0)
(-0.00136267 0.000288565 0)
(0.000190565 0.0014142 0)
(0.00169116 0.0010353 0)
(0.00195971 0.00117182 0)
(0.00285221 0.00025673 0)
(0.0052942 -0.00183128 0)
(0.00265002 -0.00377457 0)
(-0.00240413 -0.0049915 0)
(-0.000630168 -0.00791063 0)
(-0.001172 -0.00960198 0)
(-0.00104784 -0.00821798 0)
(-0.00134178 -0.00719023 0)
(-0.000995036 -0.00713442 0)
(0.000380084 -0.00536763 0)
(0.000426926 -0.00510838 0)
(0.000850525 -0.00568946 0)
(0.00214336 -0.00701263 0)
(-0.00507301 -0.0499246 0)
(-0.0140096 -8.46605e-05 0)
(-0.0102289 -0.022945 0)
(-0.00638143 -0.00573742 0)
(0.00114771 -0.0171708 0)
(-0.00336765 -0.0081387 0)
(-0.00233458 -0.0133404 0)
(-0.001271 -0.0110148 0)
(6.11672e-06 -0.011421 0)
(-0.00200706 -0.0116748 0)
(-0.000826983 -0.00990624 0)
(-0.0040559 -0.00913923 0)
(-0.0017427 -0.0116079 0)
(0.000436053 -0.0115335 0)
(8.54745e-06 -0.0119792 0)
(-0.00133621 -0.00920397 0)
(0.000781691 -0.010027 0)
(0.000931278 -0.0128005 0)
(0.000432307 -0.0134008 0)
(0.000429 -0.0173598 0)
(0.00116579 -0.0184506 0)
(0.002262 -0.0182167 0)
(-0.000222693 -0.0180613 0)
(-0.00306838 -0.0180438 0)
(-0.000639249 -0.0181933 0)
(-0.000617119 -0.0170235 0)
(-0.000573248 -0.0151923 0)
(0.000802946 -0.0195824 0)
(0.00110918 -0.022937 0)
(0.00174093 -0.0229346 0)
(0.0015234 -0.023108 0)
(0.000322203 -0.0248986 0)
(-0.00234275 -0.0193624 0)
(-0.00473129 -0.0178612 0)
(-0.00727081 -0.0184202 0)
(-0.00151683 -0.0157056 0)
(0.00058689 -0.0156146 0)
(0.00448532 -0.0154057 0)
(0.00143333 -0.0149625 0)
(-0.00100819 -0.0100515 0)
(-0.00360131 -0.00893295 0)
(-0.00277902 -0.0119566 0)
(-0.00360429 -0.0110291 0)
(-0.00660791 -0.00940027 0)
(-0.00583911 -0.00764933 0)
(-0.00491931 -0.0041084 0)
(0.00105243 0.000582402 0)
(0.00848426 -0.000559728 0)
(0.00767638 5.37086e-05 0)
(0.00648048 -0.00173909 0)
(0.0102252 -0.00389829 0)
(0.00633561 -0.00892584 0)
(0.00111273 -0.0126274 0)
(-0.00014958 -0.0114938 0)
(-0.0023601 -0.0116518 0)
(-0.0034225 -0.0127836 0)
(-0.00284596 -0.00969614 0)
(-0.00411805 -0.010221 0)
(-0.00222294 -0.014442 0)
(-0.000904645 -0.0137086 0)
(0.00178746 -0.0123133 0)
(0.00469275 -0.0118268 0)
(0.00586559 -0.012465 0)
(0.00610705 -0.0130829 0)
(0.0039906 -0.0123577 0)
(-0.000361025 -0.0114709 0)
(-0.00172921 -0.0122333 0)
(-0.00195613 -0.0133032 0)
(-0.00048931 -0.0123213 0)
(-0.0017053 -0.01338 0)
(-0.00167407 -0.0127553 0)
(0.000887511 -0.0117903 0)
(-0.000542748 -0.0135318 0)
(0.000537219 -0.0141732 0)
(0.000663766 -0.012655 0)
(-0.00178531 -0.049706 0)
(-0.00834886 -0.000267094 0)
(-0.00680995 -0.0262306 0)
(-0.00681894 -0.00861165 0)
(-0.0031263 -0.0192507 0)
(-0.00443439 -0.0156097 0)
(-0.00365579 -0.0147255 0)
(0.000492033 -0.0117027 0)
(-0.000893647 -0.0128965 0)
(-0.00162944 -0.0110543 0)
(-0.00223954 -0.0119955 0)
(-0.00434964 -0.013115 0)
(-0.0026618 -0.0122892 0)
(0.0003472 -0.0121868 0)
(0.00268358 -0.0144543 0)
(0.00523825 -0.0113152 0)
(0.00168564 -0.0124348 0)
(0.00180114 -0.0178373 0)
(-0.00014748 -0.0188099 0)
(-0.000333761 -0.0203257 0)
(0.00156101 -0.0212448 0)
(0.00127452 -0.0217387 0)
(0.000179486 -0.0227985 0)
(-0.000594586 -0.0191742 0)
(-0.00115495 -0.0189304 0)
(0.00341662 -0.0218838 0)
(0.000767019 -0.0224627 0)
(-0.000639623 -0.0239641 0)
(0.0016565 -0.0242809 0)
(0.00206392 -0.0250407 0)
(0.000353882 -0.0257303 0)
(0.000280083 -0.025914 0)
(-0.000398626 -0.0239153 0)
(-0.00465079 -0.0255831 0)
(-0.00426021 -0.0220876 0)
(-0.0040201 -0.0188713 0)
(-0.00377896 -0.0193058 0)
(-0.000124964 -0.0206664 0)
(-0.0022157 -0.0192075 0)
(-4.37002e-05 -0.0143316 0)
(-0.00257154 -0.0111659 0)
(-0.00427741 -0.0125294 0)
(-0.00396772 -0.0147141 0)
(-0.00584602 -0.0152061 0)
(-0.00730531 -0.0154626 0)
(-0.00357492 -0.0142646 0)
(-0.00280744 -0.013196 0)
(0.00488755 -0.0137507 0)
(0.00973151 -0.0139211 0)
(0.00989507 -0.0114671 0)
(0.00903059 -0.010569 0)
(0.00436167 -0.0155193 0)
(-0.00127616 -0.0155547 0)
(-0.00015708 -0.0137994 0)
(-0.00200351 -0.013886 0)
(-0.0015582 -0.0145784 0)
(-0.000857859 -0.0149562 0)
(-0.00401254 -0.014503 0)
(-0.0040746 -0.0150317 0)
(0.000673016 -0.017214 0)
(0.000938365 -0.0185913 0)
(0.00324381 -0.0166357 0)
(0.00335835 -0.0159374 0)
(0.00334699 -0.0160749 0)
(0.00147435 -0.0143283 0)
(0.000582085 -0.013734 0)
(-0.00155584 -0.0147314 0)
(9.96256e-05 -0.0148133 0)
(-0.000593197 -0.0142984 0)
(-0.000718598 -0.0147368 0)
(0.00180584 -0.012192 0)
(0.00165819 -0.0144482 0)
(-0.00297498 -0.0174309 0)
(-2.11615e-05 -0.0169875 0)
(0.00105087 -0.0167814 0)
(-0.0060173 -0.0460058 0)
(-0.00935445 -0.000847959 0)
(-0.00772372 -0.0245908 0)
(-0.00660927 -0.00821305 0)
(-0.00580248 -0.020063 0)
(-0.00604958 -0.0180666 0)
(-0.00345104 -0.0170682 0)
(-0.00359646 -0.0152215 0)
(-0.00152607 -0.0169724 0)
(-0.00136677 -0.0140253 0)
(-0.00243916 -0.0127517 0)
(-0.00283859 -0.0115142 0)
(-0.00227096 -0.0120504 0)
(0.000202742 -0.0126465 0)
(0.00234701 -0.00966027 0)
(0.00583585 -0.00813316 0)
(0.000709615 -0.0081108 0)
(-0.00126735 -0.0122034 0)
(-0.00136198 -0.0173245 0)
(0.00107275 -0.0199914 0)
(0.00211396 -0.0195512 0)
(0.00280105 -0.0194721 0)
(0.00169294 -0.0195999 0)
(0.00136874 -0.0185188 0)
(0.000111871 -0.0159759 0)
(-0.000238049 -0.0178904 0)
(-0.00135279 -0.020461 0)
(-0.00136273 -0.016922 0)
(0.00206929 -0.0155949 0)
(0.00183072 -0.0162629 0)
(-2.71533e-05 -0.0149923 0)
(0.000627246 -0.016213 0)
(0.000469541 -0.017847 0)
(-0.00168076 -0.0202249 0)
(0.00154752 -0.0205457 0)
(-0.0038437 -0.0210962 0)
(-0.00603498 -0.0180147 0)
(-0.00453794 -0.0186265 0)
(-0.00459974 -0.0171238 0)
(-0.00332839 -0.010286 0)
(-0.00313599 -0.013154 0)
(-0.00603846 -0.0124428 0)
(-0.00580098 -0.012667 0)
(-0.00684423 -0.0179407 0)
(-0.00656769 -0.0191448 0)
(-0.00378628 -0.0215676 0)
(-0.000961147 -0.0237508 0)
(0.00344888 -0.0222392 0)
(0.0078605 -0.0209855 0)
(0.0105063 -0.0184804 0)
(0.00584832 -0.0170884 0)
(0.00166365 -0.0187594 0)
(-0.000385374 -0.0142214 0)
(-0.00149313 -0.013109 0)
(-0.00138674 -0.0179572 0)
(-0.00173247 -0.0179524 0)
(-0.00151513 -0.0173189 0)
(-0.00317106 -0.0170147 0)
(-0.000487432 -0.0151653 0)
(0.00214804 -0.0166822 0)
(0.00176573 -0.0215888 0)
(0.00246874 -0.0199693 0)
(0.00243842 -0.0188475 0)
(0.00287957 -0.0179515 0)
(0.0025868 -0.0187142 0)
(0.000439001 -0.0198196 0)
(-0.000525686 -0.0205026 0)
(0.000883758 -0.0215539 0)
(-0.000213789 -0.0218939 0)
(-0.000624359 -0.0177587 0)
(0.00431299 -0.014793 0)
(-0.000618659 -0.0206752 0)
(-0.00141281 -0.0213787 0)
(-0.00129707 -0.0204022 0)
(-6.58383e-05 -0.0235226 0)
(-0.00778892 -0.0484579 0)
(-0.00788568 0.00242591 0)
(-0.00235191 -0.0256726 0)
(-0.00318858 -0.00421408 0)
(-0.00364755 -0.0178121 0)
(-0.00563044 -0.0149126 0)
(-0.00276172 -0.015102 0)
(-0.00628631 -0.0151502 0)
(-0.00500311 -0.0156106 0)
(-0.00420474 -0.0152611 0)
(-0.00480759 -0.0135577 0)
(-0.00438954 -0.0123515 0)
(-0.00281473 -0.0119979 0)
(0.000910359 -0.0126084 0)
(0.00202074 -0.0140278 0)
(0.00447061 -0.0123257 0)
(0.00583464 -0.00778713 0)
(0.00256113 -0.00424544 0)
(0.00130605 -0.00843676 0)
(0.00203602 -0.0158324 0)
(0.00219108 -0.0196126 0)
(0.00181287 -0.0185051 0)
(0.00107765 -0.01642 0)
(0.00246528 -0.012982 0)
(0.00165957 -0.0132384 0)
(-0.00329904 -0.0168298 0)
(-0.00289282 -0.018833 0)
(-0.00183432 -0.0155432 0)
(-5.61494e-05 -0.0126711 0)
(0.000623618 -0.0150236 0)
(-0.000471555 -0.0122585 0)
(0.0012813 -0.00852178 0)
(0.00258821 -0.0121353 0)
(0.00218152 -0.0169683 0)
(0.00115599 -0.0196786 0)
(-0.00124434 -0.0199959 0)
(-0.00308043 -0.0124892 0)
(-0.00809583 -0.012042 0)
(-0.00521403 -0.0157503 0)
(-0.00539477 -0.0122973 0)
(-0.00603824 -0.0133995 0)
(-0.0025331 -0.0146776 0)
(-0.00609919 -0.017249 0)
(-0.00457981 -0.0212542 0)
(-0.00282921 -0.0232315 0)
(-0.00189782 -0.0253268 0)
(0.000598117 -0.0252774 0)
(0.0017226 -0.0246096 0)
(0.00438156 -0.0197088 0)
(0.00889444 -0.0191119 0)
(0.00397735 -0.0169395 0)
(0.000946079 -0.0152925 0)
(0.00114681 -0.0168091 0)
(-0.00194843 -0.01835 0)
(-0.00196176 -0.0197153 0)
(-0.000417264 -0.0201638 0)
(-0.000438439 -0.0217787 0)
(-0.000512715 -0.019832 0)
(0.00192395 -0.0163243 0)
(-0.00237208 -0.0212695 0)
(-0.00141886 -0.0250822 0)
(0.00065355 -0.0230402 0)
(0.00298638 -0.0210069 0)
(0.00284301 -0.0206978 0)
(0.00384212 -0.0207083 0)
(0.00147778 -0.0211873 0)
(-0.000868007 -0.0190266 0)
(0.00139666 -0.0193743 0)
(0.00177132 -0.0219955 0)
(0.00353152 -0.0170809 0)
(0.00123509 -0.0158699 0)
(-0.00131923 -0.0225913 0)
(-3.85075e-05 -0.0223281 0)
(-0.00133023 -0.0221393 0)
(5.18687e-05 -0.0239527 0)
(-0.00385184 -0.0513922 0)
(-0.00870036 0.00715893 0)
(-0.00507435 -0.0244722 0)
(-0.00486839 -0.00884599 0)
(-0.00600455 -0.01752 0)
(-0.00462857 -0.00775635 0)
(-0.00658608 -0.00821549 0)
(-0.00677244 -0.0101214 0)
(-0.00309843 -0.0120181 0)
(-0.00340585 -0.013858 0)
(-0.00242092 -0.0170933 0)
(-0.00230283 -0.0167669 0)
(0.000576812 -0.019794 0)
(0.000775817 -0.0205377 0)
(0.00193331 -0.0196915 0)
(0.00325256 -0.0160945 0)
(0.00574755 -0.0140697 0)
(0.00496288 -0.0107399 0)
(0.00590038 -0.0108557 0)
(0.00303079 -0.0158537 0)
(0.00275269 -0.0181629 0)
(0.00222952 -0.0180605 0)
(0.00062424 -0.0141808 0)
(0.00349582 -0.012307 0)
(-0.00158365 -0.0144891 0)
(-0.00201138 -0.016174 0)
(-0.00141084 -0.016259 0)
(0.000574977 -0.0151711 0)
(-0.00175333 -0.0152048 0)
(-0.00197978 -0.0171581 0)
(0.000130547 -0.0132714 0)
(0.000313677 -0.00949223 0)
(0.00239158 -0.0132074 0)
(0.00330873 -0.0159894 0)
(0.00164317 -0.0146482 0)
(-0.00314737 -0.00962761 0)
(-0.00493864 -0.00605445 0)
(-0.00979957 -0.00736603 0)
(-0.00537601 -0.0100527 0)
(-0.00214723 -0.0138193 0)
(-0.00241103 -0.0131856 0)
(-0.00147995 -0.0145241 0)
(-0.00302143 -0.0208007 0)
(-0.00295283 -0.0229671 0)
(-0.00272213 -0.0230861 0)
(-0.00147236 -0.0219575 0)
(-0.00144295 -0.0205581 0)
(2.58769e-05 -0.0194981 0)
(0.00589437 -0.0134413 0)
(0.00707314 -0.0137289 0)
(0.00797901 -0.0169934 0)
(0.00301801 -0.0153823 0)
(0.000961814 -0.0169517 0)
(-0.000926595 -0.0200016 0)
(-0.00253352 -0.0195755 0)
(0.000421466 -0.0193135 0)
(-0.00107612 -0.0189357 0)
(0.00173797 -0.01621 0)
(0.00257171 -0.0165483 0)
(-0.00182016 -0.0197043 0)
(-0.000177156 -0.0202982 0)
(-4.17541e-05 -0.0206063 0)
(0.000956705 -0.0212198 0)
(0.000756628 -0.0193134 0)
(0.00422868 -0.0188972 0)
(0.00208951 -0.0215351 0)
(0.000427758 -0.0172564 0)
(0.000579011 -0.0163094 0)
(0.000867549 -0.0188935 0)
(0.00393854 -0.0162609 0)
(-8.14372e-05 -0.0164237 0)
(0.000770225 -0.0188214 0)
(0.000676968 -0.0205403 0)
(-0.000627201 -0.0203787 0)
(-0.000653955 -0.0207182 0)
(-0.00228282 -0.0454457 0)
(-0.00537174 0.00376445 0)
(-0.00887508 -0.0263127 0)
(-0.0054563 -0.0124367 0)
(-0.00547767 -0.0205169 0)
(-0.00406491 -0.0168849 0)
(-0.00666213 -0.0205727 0)
(-0.00453091 -0.0182743 0)
(-0.00178265 -0.021369 0)
(-0.00279133 -0.0285926 0)
(0.000702099 -0.0303109 0)
(0.00114395 -0.0297596 0)
(-0.00277082 -0.0294336 0)
(-0.00416847 -0.0314833 0)
(-0.00241431 -0.0290455 0)
(0.00137074 -0.0251327 0)
(0.00558768 -0.0219861 0)
(0.00741563 -0.0179046 0)
(0.00526789 -0.0174701 0)
(0.00253225 -0.0202987 0)
(0.000933975 -0.0188751 0)
(0.00103916 -0.0182257 0)
(0.00201208 -0.0144168 0)
(0.00166412 -0.0160308 0)
(-0.000184374 -0.0197327 0)
(-0.00254319 -0.0181747 0)
(-0.00032097 -0.0182257 0)
(-0.000811787 -0.0175608 0)
(-0.00113561 -0.0179157 0)
(0.000154307 -0.0177255 0)
(0.00294802 -0.0156627 0)
(0.000588068 -0.0140056 0)
(-0.00111267 -0.013633 0)
(-0.00193957 -0.0112424 0)
(-0.00427037 -0.00775369 0)
(-0.0060177 -0.0067961 0)
(-0.00518117 -0.00696094 0)
(-0.00382818 -0.0115188 0)
(0.000353112 -0.0162153 0)
(8.15968e-05 -0.0197168 0)
(0.000474982 -0.0191354 0)
(-0.00198172 -0.0191161 0)
(-0.00165816 -0.0208921 0)
(-0.00217104 -0.0224271 0)
(-0.00292724 -0.0228672 0)
(-0.00263389 -0.0222737 0)
(-0.00133894 -0.0227967 0)
(0.000726614 -0.0187414 0)
(0.00388807 -0.016527 0)
(0.00473676 -0.0180602 0)
(0.00847918 -0.0181743 0)
(0.00644708 -0.0183953 0)
(0.00361946 -0.0192086 0)
(0.000127072 -0.0211682 0)
(0.0015135 -0.0182248 0)
(-0.000578908 -0.0194631 0)
(-0.000350879 -0.0196215 0)
(-0.000900437 -0.0128622 0)
(0.00128151 -0.0151738 0)
(-0.000707267 -0.0195693 0)
(-0.000779637 -0.0204469 0)
(-0.000302684 -0.0202873 0)
(0.00194661 -0.021167 0)
(0.00269891 -0.0169487 0)
(0.00165828 -0.016262 0)
(0.00124378 -0.0203317 0)
(0.00195994 -0.0182018 0)
(-0.00172518 -0.0185619 0)
(0.000130257 -0.0195102 0)
(0.00145954 -0.0189445 0)
(0.00173358 -0.0184725 0)
(0.00120085 -0.019365 0)
(-3.25485e-05 -0.0203408 0)
(0.00188477 -0.0210781 0)
(0.000870548 -0.0225493 0)
(-0.00461206 -0.0488787 0)
(-0.00706983 0.00538854 0)
(-0.00529546 -0.0282364 0)
(-0.00413759 -0.0139615 0)
(-0.00392024 -0.0245425 0)
(-0.00224026 -0.0211842 0)
(-0.0021942 -0.0245641 0)
(-0.00122904 -0.0242726 0)
(-0.00194503 -0.0273495 0)
(0.00118522 -0.0258093 0)
(0.00176549 -0.0229539 0)
(0.000766767 -0.028071 0)
(-0.00411408 -0.0329096 0)
(-0.00362366 -0.0352684 0)
(-0.00178917 -0.0368289 0)
(-0.00184351 -0.0343949 0)
(0.00033925 -0.0301398 0)
(0.0024867 -0.0257343 0)
(0.000512613 -0.0232795 0)
(5.28909e-05 -0.0218148 0)
(0.000442541 -0.0202939 0)
(0.00465771 -0.0204522 0)
(0.00461284 -0.0204525 0)
(0.000705778 -0.0218136 0)
(0.000230929 -0.0230784 0)
(-0.001972 -0.0182827 0)
(-0.00197859 -0.0157708 0)
(-0.00274277 -0.0162207 0)
(-0.00337456 -0.0141633 0)
(-0.00134621 -0.012969 0)
(-0.000508249 -0.0109957 0)
(-0.00193211 -0.00928678 0)
(-0.00397333 -0.00837999 0)
(-0.00197692 -0.00903361 0)
(-0.00322812 -0.0117964 0)
(-0.00200496 -0.014371 0)
(-0.000377217 -0.0160085 0)
(0.00140013 -0.0168983 0)
(0.00172837 -0.0185255 0)
(0.00141225 -0.0195432 0)
(0.000476304 -0.019305 0)
(-0.00119111 -0.0197653 0)
(-0.00059595 -0.0201973 0)
(-0.00105881 -0.0203427 0)
(-0.00243277 -0.0203476 0)
(-0.00218082 -0.0202689 0)
(0.000353427 -0.0221751 0)
(0.00264728 -0.0245534 0)
(0.0015914 -0.0225185 0)
(0.00411232 -0.0216204 0)
(0.00462293 -0.0237964 0)
(0.00475461 -0.024534 0)
(0.00257559 -0.0229364 0)
(0.00189135 -0.0184636 0)
(0.00134013 -0.017543 0)
(-0.00173104 -0.0194676 0)
(0.000547991 -0.0185479 0)
(-0.0018279 -0.0141492 0)
(-0.00335578 -0.0140516 0)
(-0.000306579 -0.0176412 0)
(-0.000268721 -0.016661 0)
(0.000709751 -0.0154222 0)
(0.00113256 -0.0159032 0)
(0.00449214 -0.0162998 0)
(0.00017593 -0.0164318 0)
(0.000440437 -0.016932 0)
(0.000939694 -0.0169272 0)
(-0.000208954 -0.0164202 0)
(0.000477531 -0.017179 0)
(0.00100707 -0.018098 0)
(0.00135183 -0.0177871 0)
(0.00199791 -0.0196999 0)
(0.00301414 -0.0162461 0)
(0.00102569 -0.0170616 0)
(-0.000622185 -0.0198814 0)
(-0.00356089 -0.0487496 0)
(-0.00826696 0.00229286 0)
(-0.00298023 -0.0285686 0)
(-0.00178883 -0.0140297 0)
(-0.00106764 -0.0221285 0)
(-0.00205034 -0.019832 0)
(-0.00213319 -0.0247309 0)
(-0.00249871 -0.0232793 0)
(0.000863495 -0.023769 0)
(0.00331162 -0.0236462 0)
(0.00161558 -0.0218446 0)
(-0.00122838 -0.0233141 0)
(-0.00143331 -0.0245331 0)
(-0.00160109 -0.0254723 0)
(-0.00121665 -0.0261595 0)
(-0.00161679 -0.026843 0)
(-0.0020296 -0.0285498 0)
(-0.000876225 -0.0255288 0)
(0.000559621 -0.0236461 0)
(-0.00026027 -0.0236718 0)
(0.00189254 -0.0190274 0)
(0.0040763 -0.0188155 0)
(0.00246534 -0.0220352 0)
(0.000120296 -0.0207283 0)
(-0.000755276 -0.0199375 0)
(-0.00124435 -0.0179497 0)
(-0.00586842 -0.016455 0)
(-0.00662315 -0.017384 0)
(-0.00707499 -0.0160755 0)
(-0.00278297 -0.0152184 0)
(-0.00130038 -0.0170258 0)
(-4.63642e-05 -0.0190004 0)
(-0.000222468 -0.0165542 0)
(-0.00101605 -0.0165135 0)
(-0.001206 -0.020501 0)
(-0.00183133 -0.021189 0)
(-0.00414814 -0.0197146 0)
(-0.000992179 -0.0174214 0)
(0.000585588 -0.0165711 0)
(0.00285247 -0.0177741 0)
(0.000826844 -0.0187928 0)
(-0.000161122 -0.0184841 0)
(-0.00104212 -0.0177868 0)
(-0.0017258 -0.0171686 0)
(-0.00205913 -0.0163085 0)
(-0.000823357 -0.0159735 0)
(0.0016528 -0.0205229 0)
(0.00455102 -0.0246146 0)
(0.00642619 -0.0231728 0)
(0.0042368 -0.0223062 0)
(0.00206847 -0.0226447 0)
(0.00265234 -0.0220847 0)
(0.0020715 -0.0202761 0)
(0.0022684 -0.0178923 0)
(-0.0019253 -0.0160731 0)
(-7.69843e-05 -0.0153704 0)
(-0.000626521 -0.017149 0)
(-0.00154043 -0.0168725 0)
(-0.00575069 -0.0150892 0)
(-0.00181403 -0.0150184 0)
(-0.000461053 -0.0160063 0)
(0.00132542 -0.0149019 0)
(0.00115743 -0.0128965 0)
(0.00274081 -0.0130111 0)
(0.00161203 -0.0141933 0)
(0.000174056 -0.0133922 0)
(0.00262607 -0.0130994 0)
(0.00124731 -0.0141679 0)
(0.000832462 -0.0166536 0)
(0.00202509 -0.0185331 0)
(0.00162499 -0.0188542 0)
(0.00228253 -0.0169714 0)
(0.00284041 -0.0146914 0)
(0.000245374 -0.0141743 0)
(-0.00126583 -0.0149506 0)
(-0.000982826 -0.0522363 0)
(-0.00510004 0.00724487 0)
(-0.00581522 -0.0266841 0)
(-0.00246295 -0.0118518 0)
(-0.00251692 -0.0208492 0)
(-0.00101652 -0.0155735 0)
(-0.000177999 -0.0187832 0)
(0.000898964 -0.0159055 0)
(0.00141324 -0.0166667 0)
(0.000923002 -0.0193899 0)
(-0.000142172 -0.0186351 0)
(-0.00253705 -0.0178422 0)
(-0.00189305 -0.0167647 0)
(-0.00268154 -0.0153781 0)
(-0.00150754 -0.0157517 0)
(-0.000874531 -0.0179039 0)
(0.000702502 -0.0188743 0)
(0.00312681 -0.0191042 0)
(0.00270172 -0.0208347 0)
(0.00369295 -0.0178463 0)
(0.00418128 -0.0121367 0)
(-0.000212359 -0.0142834 0)
(-0.000633682 -0.017088 0)
(-0.0013139 -0.0167689 0)
(-0.00159166 -0.0151963 0)
(-0.00314668 -0.0140673 0)
(-0.00492627 -0.0150119 0)
(-0.00427233 -0.0166516 0)
(-0.00366616 -0.0135133 0)
(-0.00264079 -0.0140018 0)
(0.00182094 -0.0192903 0)
(0.00155507 -0.0212386 0)
(0.000212033 -0.0207728 0)
(-0.0048344 -0.0190964 0)
(-0.00354277 -0.0186251 0)
(-0.00126688 -0.02173 0)
(0.000121342 -0.0212592 0)
(0.000183238 -0.0185504 0)
(0.000603667 -0.0178202 0)
(0.000263805 -0.0207089 0)
(-0.000785972 -0.0226783 0)
(-0.00133655 -0.0205729 0)
(-0.00215518 -0.0209498 0)
(-0.00165954 -0.0210852 0)
(-0.000998493 -0.0205703 0)
(0.00158972 -0.0223083 0)
(0.00427443 -0.0237999 0)
(0.00477487 -0.0259225 0)
(0.00636094 -0.0252389 0)
(0.00348302 -0.0242187 0)
(0.00267218 -0.0222029 0)
(0.00134877 -0.020889 0)
(0.000350997 -0.0201972 0)
(-0.000313693 -0.0186832 0)
(-0.00213175 -0.0142405 0)
(-0.00340156 -0.0120376 0)
(-0.000864626 -0.015987 0)
(-0.000801561 -0.0185613 0)
(-0.00239114 -0.0180429 0)
(-0.00163493 -0.0184273 0)
(-0.000314845 -0.0203987 0)
(0.000162085 -0.0192546 0)
(0.000738365 -0.0167893 0)
(-0.000438172 -0.0152449 0)
(0.00300385 -0.0175545 0)
(0.0018459 -0.0150886 0)
(0.0011037 -0.0142661 0)
(0.00224356 -0.0163873 0)
(0.00343171 -0.0153372 0)
(0.00433951 -0.0167236 0)
(0.0016439 -0.016974 0)
(0.000314912 -0.0164867 0)
(0.000756595 -0.015278 0)
(0.000724747 -0.0162191 0)
(0.000202656 -0.0177051 0)
(-0.00176516 -0.0554744 0)
(-0.00541047 0.00922022 0)
(-0.00595356 -0.0272654 0)
(-0.00477504 -0.00707095 0)
(-0.00297148 -0.0193562 0)
(-0.000613933 -0.01402 0)
(0.000328647 -0.0183925 0)
(0.00239702 -0.0152864 0)
(-0.00100016 -0.0150683 0)
(-0.000681885 -0.0147499 0)
(-0.00154945 -0.0154125 0)
(-0.00289614 -0.0135348 0)
(-0.003742 -0.0126176 0)
(-0.00121978 -0.0143853 0)
(0.000127324 -0.0160559 0)
(0.00019856 -0.0178036 0)
(0.00121995 -0.0180693 0)
(0.00172239 -0.0166375 0)
(0.00439013 -0.0147545 0)
(0.00449367 -0.0132199 0)
(0.00190014 -0.0119383 0)
(-0.00144136 -0.0120012 0)
(-0.00163245 -0.013958 0)
(-0.00109663 -0.0156406 0)
(-0.00130165 -0.016331 0)
(-0.00290061 -0.0176714 0)
(-0.00468168 -0.0170161 0)
(-0.00108036 -0.0180741 0)
(-0.00176623 -0.018647 0)
(-0.00281468 -0.0140196 0)
(0.000928455 -0.0164639 0)
(0.0015844 -0.0225742 0)
(0.000304277 -0.0232345 0)
(-0.000295744 -0.0194502 0)
(-0.000644087 -0.0164595 0)
(-0.00155735 -0.0198584 0)
(0.00259648 -0.0228543 0)
(0.000363548 -0.0222408 0)
(-0.000334445 -0.0213558 0)
(-0.00248071 -0.022948 0)
(-0.00105344 -0.0242412 0)
(-0.00157542 -0.0240319 0)
(-0.00256274 -0.0247187 0)
(0.00136281 -0.0262368 0)
(0.000971301 -0.0256989 0)
(0.00197144 -0.0238449 0)
(0.000608613 -0.0269995 0)
(0.00416252 -0.0269028 0)
(0.0028053 -0.0245139 0)
(0.0022472 -0.0227469 0)
(0.00221474 -0.0209962 0)
(0.00117762 -0.0202259 0)
(-0.00203085 -0.0168918 0)
(0.000620146 -0.0141895 0)
(0.000696143 -0.0138683 0)
(-0.00272681 -0.0104636 0)
(-0.00274115 -0.0127292 0)
(-0.00158265 -0.0171077 0)
(0.000356098 -0.0169531 0)
(-0.00149346 -0.0174837 0)
(-0.00154061 -0.0195871 0)
(0.000396647 -0.019525 0)
(0.00076528 -0.0204912 0)
(-0.000708927 -0.0165828 0)
(0.00309514 -0.0166266 0)
(0.00619132 -0.0200827 0)
(0.000557019 -0.0174512 0)
(0.00131828 -0.0154463 0)
(0.000385435 -0.0145072 0)
(0.000287947 -0.0171397 0)
(-0.000758177 -0.0189202 0)
(-0.00109606 -0.0166397 0)
(0.0023246 -0.0159399 0)
(0.00336904 -0.0188971 0)
(0.00103838 -0.0208232 0)
(-0.0098475 -0.0490153 0)
(-0.00912458 0.00106022 0)
(-0.00320398 -0.0273831 0)
(-0.00306258 -0.00645074 0)
(-0.000652479 -0.0193626 0)
(-0.000787717 -0.0142461 0)
(0.00119502 -0.0166812 0)
(0.00116412 -0.0152035 0)
(-0.00163495 -0.0142212 0)
(-0.00139225 -0.012588 0)
(0.000441456 -0.0145005 0)
(-0.00039325 -0.0164875 0)
(-0.00141454 -0.0142863 0)
(-0.00105657 -0.0128898 0)
(-0.000305312 -0.0166731 0)
(-0.00027432 -0.0193748 0)
(2.31084e-05 -0.0187319 0)
(0.000624668 -0.0127676 0)
(0.00185007 -0.0104165 0)
(0.00285641 -0.012527 0)
(0.00151664 -0.0123363 0)
(4.03037e-05 -0.0137117 0)
(0.000455834 -0.0144264 0)
(0.00047836 -0.0145979 0)
(-0.000745409 -0.0153507 0)
(-0.00206752 -0.0175845 0)
(-0.00238481 -0.014826 0)
(-0.00115515 -0.0161797 0)
(-0.000280327 -0.0179196 0)
(-0.00162222 -0.0116689 0)
(-0.00282281 -0.0134787 0)
(0.00148446 -0.0200809 0)
(0.000742121 -0.0217239 0)
(0.00156394 -0.0181473 0)
(-0.000416131 -0.0171152 0)
(-0.00227632 -0.0143341 0)
(-0.00139143 -0.0149937 0)
(0.00169691 -0.0195385 0)
(-0.000101474 -0.0215307 0)
(-0.00114042 -0.0230723 0)
(-0.000741952 -0.0240542 0)
(-0.000330627 -0.0252242 0)
(4.73903e-05 -0.0230809 0)
(0.00107078 -0.0241769 0)
(0.00400022 -0.0265507 0)
(0.0015041 -0.0255812 0)
(-0.00149538 -0.0217659 0)
(0.000591825 -0.0206924 0)
(0.000451567 -0.0234474 0)
(-9.71056e-05 -0.0210745 0)
(-9.56999e-05 -0.0194118 0)
(0.000436409 -0.018881 0)
(-0.0020826 -0.0139475 0)
(-0.00220905 -0.0107967 0)
(-0.000941095 -0.014266 0)
(-0.000135317 -0.013461 0)
(-0.002174 -0.0143459 0)
(-0.00096808 -0.015867 0)
(0.000314356 -0.0159341 0)
(-0.00044049 -0.0172156 0)
(-0.00042464 -0.0164748 0)
(0.00303607 -0.0174904 0)
(0.00290381 -0.0200624 0)
(0.00313732 -0.0175437 0)
(0.00100904 -0.0145606 0)
(0.00186309 -0.0190063 0)
(0.0012972 -0.0189623 0)
(0.00286196 -0.0159594 0)
(0.00097955 -0.0166159 0)
(-0.000531023 -0.0198045 0)
(-1.05195e-05 -0.0217592 0)
(0.000689928 -0.0179005 0)
(0.00190647 -0.0138381 0)
(0.00100162 -0.0177225 0)
(0.000517187 -0.0202748 0)
(-0.00228796 -0.0634933 0)
(-0.011191 -0.0022828 0)
(-0.00449176 -0.0288484 0)
(-0.00375735 -0.0140159 0)
(-0.00272631 -0.0221527 0)
(0.00107321 -0.0167611 0)
(0.000692845 -0.0184581 0)
(0.00117731 -0.0176625 0)
(-2.73023e-05 -0.0154867 0)
(-0.000433638 -0.0126451 0)
(-4.27492e-05 -0.0162862 0)
(0.000292314 -0.0197012 0)
(0.00141024 -0.0190618 0)
(-0.000367679 -0.0183837 0)
(-0.00273399 -0.0187419 0)
(-0.00255297 -0.0203147 0)
(-0.00107337 -0.0202745 0)
(6.5145e-05 -0.018439 0)
(-0.000337637 -0.0159603 0)
(0.00242548 -0.0157741 0)
(0.00224791 -0.0172863 0)
(0.00205845 -0.0177887 0)
(0.00173107 -0.0174896 0)
(-8.69306e-07 -0.0182193 0)
(-0.000798446 -0.0185298 0)
(-0.00144485 -0.0192847 0)
(-1.16725e-05 -0.0175129 0)
(-0.00164321 -0.0178741 0)
(0.00214413 -0.0194938 0)
(0.000863847 -0.0155101 0)
(-0.00395774 -0.010331 0)
(-0.00177246 -0.0150346 0)
(0.000708053 -0.0204339 0)
(-0.000408169 -0.0187996 0)
(0.00163411 -0.0185495 0)
(0.000511883 -0.0193066 0)
(-0.0020126 -0.016197 0)
(0.00152684 -0.0177232 0)
(0.00182862 -0.0228279 0)
(0.000932755 -0.0229332 0)
(0.000367102 -0.0226003 0)
(0.000569836 -0.0228064 0)
(0.00270996 -0.0223478 0)
(0.000651473 -0.021603 0)
(0.00127566 -0.0211853 0)
(0.000778486 -0.0200968 0)
(-0.000540539 -0.0185878 0)
(-0.00226936 -0.015772 0)
(-0.00143071 -0.0156519 0)
(-0.000731159 -0.0158823 0)
(0.000150563 -0.0138709 0)
(-0.000896138 -0.0138831 0)
(-0.00126507 -0.0128842 0)
(-0.0023857 -0.0114792 0)
(-0.00350787 -0.0145634 0)
(-0.000592799 -0.0152905 0)
(-0.00162228 -0.0167206 0)
(-0.00118553 -0.0165515 0)
(0.000321381 -0.015547 0)
(0.000520537 -0.0158028 0)
(0.00140088 -0.0121776 0)
(0.00252184 -0.0128656 0)
(0.00366461 -0.0173796 0)
(0.00484642 -0.0151828 0)
(0.00184581 -0.0137251 0)
(-0.00166964 -0.0148453 0)
(-0.00064501 -0.01268 0)
(-5.05163e-05 -0.0136624 0)
(0.00103977 -0.0178082 0)
(0.000337701 -0.0187367 0)
(0.00194712 -0.0187635 0)
(0.00296371 -0.0166958 0)
(0.0019912 -0.0165441 0)
(-0.000122278 -0.0198418 0)
(0.00134308 -0.0200853 0)
(-0.0064213 -0.0506528 0)
(-0.00461514 0.0040377 0)
(-0.0048097 -0.0265383 0)
(-0.00318856 -0.0161904 0)
(-0.00282419 -0.0200381 0)
(-0.00168117 -0.0152215 0)
(-0.00111804 -0.0186115 0)
(0.00295257 -0.0177988 0)
(0.00298203 -0.01984 0)
(0.000184374 -0.0193516 0)
(-0.00119143 -0.0199318 0)
(-0.000379159 -0.0196627 0)
(0.000325855 -0.0192369 0)
(-0.000160973 -0.0196117 0)
(-0.00140556 -0.0200494 0)
(-0.00182072 -0.0214794 0)
(-0.000994741 -0.0231284 0)
(-0.000231385 -0.0227096 0)
(-0.00223345 -0.0200594 0)
(0.00138185 -0.0195777 0)
(0.00183775 -0.0203846 0)
(0.00306003 -0.0209626 0)
(0.00199525 -0.021922 0)
(0.000475611 -0.0221589 0)
(-0.000108536 -0.0224612 0)
(-0.00137729 -0.0233541 0)
(-0.00277045 -0.0212371 0)
(-0.00284805 -0.0186917 0)
(0.00183084 -0.0189095 0)
(0.00258352 -0.0189865 0)
(-0.000904309 -0.0145917 0)
(-0.00380852 -0.0117645 0)
(9.7797e-05 -0.0172127 0)
(-0.000221912 -0.0159629 0)
(-0.000505357 -0.0155239 0)
(-0.000220979 -0.0181453 0)
(0.000414598 -0.0161103 0)
(0.000249098 -0.0174986 0)
(0.00159703 -0.0204574 0)
(0.000802619 -0.0209722 0)
(0.000362272 -0.020779 0)
(0.000113055 -0.0195178 0)
(0.000675991 -0.0192631 0)
(0.000581864 -0.018919 0)
(0.00111736 -0.0185509 0)
(-0.000648427 -0.0187869 0)
(-0.00227075 -0.0162187 0)
(-0.00178009 -0.0148466 0)