/*--------------------------------*- C++ -*----------------------------------*\
  =========                 |
  \\      /  F ield         | OpenFOAM: The Open Source CFD Toolbox
   \\    /   O peration     | Website:  https://openfoam.org
    \\  /    A nd           | Version:  12
     \\/     M anipulation  |
\*---------------------------------------------------------------------------*/
FoamFile
{
    format      ascii;
    class       IOPosition;
    location    "0.85/lagrangian/cloud";
    object      positions;
}
// * * * * * * * * * * * * * * * * * * * * * * * * * * * * * * * * * * * * * //

1831
(
(0.533877 0.182486 0.233061 0.050575) 0 7375 2
(0.193949 0.0567411 0.346285 0.403026) 1 3 1
(0.147557 0.0560562 0.426221 0.370165) 2 4 2
(0.350432 0.0270156 0.324784 0.297768) 3 6 2
(0.402003 0.0250865 0.273912 0.298999) 4 9 1
(0.294745 0.259742 0.0928852 0.352627) 5 11 1
(0.0604113 0.00687418 0.469794 0.46292) 81 13 1
(0.341108 0.329446 0.0468266 0.282619) 6 10 1
(0.0309136 0.484543 0.238107 0.246436) 6 12 1
(0.627503 0.0215371 0.186249 0.164712) 7 7382 2
(0.477529 0.261235 0.0347823 0.226453) 8 7383 1
(0.359933 0.245343 0.0746904 0.320034) 9 19 1
(0.313961 0.343019 0.207431 0.135588) 10 21 2
(0.314741 0.34263 0.096866 0.245764) 11 23 2
(0.253693 0.373153 0.0737916 0.299362) 12 25 2
(0.268604 0.365698 0.163904 0.201794) 13 27 2
(0.421233 0.289384 0.0159266 0.273457) 14 29 2
(0.414293 0.292853 0.0748114 0.218042) 15 31 2
(0.316991 0.0399936 0.301511 0.341504) 16 30 2
(0.491629 0.107608 0.254186 0.146577) 16 7391 2
(0.587458 0.206271 0.166454 0.0398164) 17 7392 1
(0.23084 0.38458 0.124012 0.260567) 18 34 1
(0.053959 0.473021 0.18954 0.283481) 19 36 1
(0.171458 0.414271 0.167439 0.246832) 21 40 1
(0.403201 0.298399 0.0192889 0.27911) 23 47 2
(0.119797 0.0861117 0.440102 0.35399) 23 46 2
(0.343688 0.0209152 0.307241 0.328156) 24 49 1
(0.492852 0.125946 0.127628 0.253574) 25 51 1
(0.399483 0.300259 0.271212 0.0290467) 26 7401 1
(0.427935 0.286033 0.225279 0.0607535) 27 7402 1
(0.394405 0.302798 0.241623 0.0611748) 28 7403 1
(0.573121 0.213439 0.0751561 0.138283) 29 58 1
(0.220107 0.295437 0.0945094 0.389946) 30 61 1
(0.424056 0.287972 0.197618 0.0903534) 31 63 2
(0.144193 0.427903 0.225577 0.202326) 32 64 1
(0.246513 0.376744 0.315554 0.0611895) 108 67 2
(0.423445 0.288277 0.0914197 0.196858) 34 69 2
(0.401428 0.0195065 0.279779 0.299286) 35 68 2
(0.0871299 0.456435 0.291638 0.164797) 35 70 1
(0.0635126 0.432058 0.0361856 0.468244) 36 73 1
(0.20445 0.397775 0.0960119 0.301763) 37 75 2
(0.121914 0.141303 0.29774 0.439043) 37 75 1
(0.247382 0.376309 0.314456 0.0618534) 38 77 2
(0.107933 0.0532038 0.446033 0.392829) 38 76 2
(0.119153 0.440423 0.251181 0.189242) 39 78 1
(0.145987 0.427007 0.296376 0.130631) 40 80 1
(0.0799506 0.460025 0.306827 0.153198) 41 82 1
(0.326401 0.3368 0.13099 0.205809) 43 84 1
(0.0137946 0.265869 0.227233 0.493103) 43 87 1
(0.279572 0.360214 0.338524 0.0216894) 44 89 2
(0.430234 0.284883 0.246779 0.0381045) 79 9 2
(0.403217 0.298392 0.0249176 0.273474) 80 160 2
(0.951426 0.0242869 0.0155546 0.00873227) 81 161 1
(0.615623 0.192189 0.0189687 0.17322) 82 15 2
(0.0141063 0.492947 0.488219 0.00472746) 83 165 1
(0.163506 0.22057 0.418247 0.197677) 157 164 1
(0.606848 0.196576 0.12657 0.0700056) 156 310 1
(0.112093 0.411348 0.0326048 0.443953) 83 166 1
(0.238561 0.38072 0.0304365 0.350283) 84 168 2
(0.266334 0.247443 0.119389 0.366833) 84 168 1
(0.0278643 0.124662 0.361406 0.486068) 85 167 2
(0.27785 0.361075 0.222631 0.138444) 85 170 2
(0.441723 0.0242321 0.279139 0.254907) 85 169 2
(0.366163 0.151562 0.316918 0.165357) 89 29 1
(0.112778 0.443611 0.23603 0.207581) 91 179 1
(0.257835 0.371082 0.0654132 0.305669) 92 35 2
(0.227826 0.386087 0.0381644 0.347923) 93 37 2
(0.105707 0.0578236 0.389323 0.447147) 19 39 1
(0.0368802 0.48156 0.159828 0.321732) 96 43 2
(0.115804 0.0605904 0.442098 0.381508) 93 185 2
(0.295521 0.139985 0.212254 0.352239) 94 188 1
(0.295622 0.352189 0.335966 0.0162228) 95 190 2
(0.451433 0.274284 0.221318 0.052966) 99 49 2
(0.289623 0.355188 0.151296 0.203892) 101 53 2
(0.00527637 0.0178475 0.497362 0.479514) 102 55 1
(0.098751 0.450624 0.4408 0.00982422) 173 344 1
(0.208803 0.395598 0.349348 0.0462507) 174 346 1
(0.0502668 0.474867 0.464803 0.0100635) 176 202 2
(0.200339 0.291306 0.108525 0.399831) 101 202 1
(0.16999 0.044216 0.370789 0.415005) 102 201 2
(0.196757 0.401622 0.396946 0.00467583) 102 204 2
(0.0722723 0.0634802 0.463864 0.400384) 102 203 2
(0.290487 0.354757 0.262578 0.0921785) 103 206 2
(0.288661 0.0332705 0.355669 0.322399) 106 63 1
(0.282362 0.358819 0.303125 0.0556936) 108 215 1
(0.435115 0.282442 0.244938 0.0375048) 109 217 1
(0.489672 0.0683671 0.255164 0.186797) 110 71 1
(0.88774 0.0561302 0.0445908 0.0115394) 111 222 2
(0.616143 0.0521381 0.13979 0.191928) 112 221 2
(0.252062 0.123068 0.250901 0.373969) 113 223 2
(0.530569 0.234716 0.00989182 0.224824) 114 225 1
(0.23105 0.384475 0.0902822 0.294193) 114 227 1
(0.473779 0.263111 0.126126 0.136984) 185 368 1
(0.595464 0.0632029 0.202268 0.139065) 186 222 1
(0.284109 0.114438 0.243507 0.357945) 75 150 1
(0.12421 0.0642731 0.373622 0.437895) 150 15077 1
(0.518175 0.162694 0.0782182 0.240913) 150 299 1
(0.378706 0.0348108 0.275836 0.310647) 151 298 2
(0.256727 0.0597853 0.371637 0.311851) 152 302 2
(0.186331 0.0918984 0.406834 0.314936) 230 309 1
(0.293758 0.0463552 0.353121 0.306766) 231 311 1
(0.202917 0.368935 0.0296068 0.398542) 157 313 1
(0.593318 0.00081115 0.20253 0.203341) 159 317 1
(0.0149124 0.492544 0.266785 0.225758) 160 318 1
(0.253375 0.179074 0.373313 0.194239) 161 172 1
(0.225588 0.34833 0.387206 0.0388763) 162 174 1
(0.190969 0.33013 0.404516 0.0743861) 163 176 1
(0.0817187 0.117913 0.459141 0.341227) 164 178 1
(0.0120719 0.392765 0.101199 0.493964) 92 184 1
(0.172161 0.413919 0.234327 0.179593) 239 327 2
(0.215695 0.392152 0.00280621 0.389346) 165 329 2
(0.18427 0.0731863 0.334679 0.407865) 165 329 1
(0.181767 0.409116 0.332746 0.0763704) 166 331 2
(0.00861495 0.118868 0.495693 0.376825) 166 330 2
(0.216885 0.389453 0.0021049 0.391558) 167 333 1
(0.0302932 0.0859223 0.484853 0.398931) 167 332 2
(0.182417 0.408792 0.391518 0.0172741) 168 335 2
(0.189997 0.0255295 0.379472 0.405002) 169 334 2
(0.215885 0.00921148 0.392057 0.382846) 169 336 2
(0.292444 0.0357204 0.318058 0.353778) 170 339 1
(0.396029 0.101377 0.200609 0.301985) 172 343 1
(0.210332 0.394834 0.0557989 0.339035) 174 347 2
(0.136116 0.431942 0.172045 0.259897) 175 349 2
(0.149882 0.425059 0.131394 0.293665) 176 351 2
(0.214137 0.392931 0.0582391 0.334692) 177 353 2
(0.0674154 0.466292 0.115738 0.350555) 179 354 1
(0.204116 0.397942 0.0133424 0.3846) 180 356 1
(0.140805 0.33618 0.429598 0.0934171) 181 212 1
(0.137585 0.431207 0.419646 0.0115615) 183 216 2
(0.103685 0.448157 0.366384 0.0817729) 181 361 2
(0.296945 0.0216438 0.329884 0.351528) 182 360 2
(0.402455 0.220118 0.298773 0.0786551) 183 216 1
(0.397941 0.301029 0.239638 0.0613917) 184 218 2
(0.0160108 0.491995 0.271369 0.220625) 184 366 1
(0.106176 0.446912 0.261581 0.185332) 225 447 1
(0.0746732 0.462663 0.088761 0.373902) 227 449 1
(0.400592 0.299704 0.00589433 0.29381) 229 453 1
(0.227965 0.386017 0.224016 0.162001) 230 458 2
(0.00316625 0.428099 0.0703183 0.498417) 231 460 1
(0.492103 0.0790026 0.253948 0.174946) 232 313 1
(0.386386 0.306807 0.0225915 0.284216) 233 315 2
(0.561053 0.219474 0.0596373 0.159836) 234 317 2
(0.347366 0.326317 0.128732 0.197585) 235 319 2
(0.272556 0.363722 0.219286 0.144436) 236 321 2
(0.0277355 0.370473 0.486132 0.115659) 237 323 1
(0.239383 0.171913 0.380309 0.208396) 311 470 1
(0.242595 0.337364 0.0413389 0.378702) 237 472 1
(0.126501 0.0398151 0.436749 0.396934) 237 471 2
(0.244495 0.359967 0.0177858 0.377753) 238 474 1
(0.130779 0.434611 0.334509 0.100101) 239 476 2
(0.0854847 0.0602735 0.457258 0.396984) 239 475 2
(0.17345 0.246474 0.166801 0.413275) 240 478 1
(0.152856 0.393527 0.030045 0.423572) 241 480 1
(0.174629 0.403867 0.00881805 0.412685) 242 482 1
(0.192387 0.403806 0.397165 0.00664176) 243 484 2
(0.237609 0.381195 0.350993 0.0302022) 244 486 2
(0.247998 0.373692 0.00230963 0.376001) 245 488 1
(0.393065 0.121404 0.303467 0.182064) 246 341 1
(0.0335224 0.483239 0.176206 0.307033) 248 491 1
(0.46736 0.26632 0.211602 0.0547177) 249 347 2
(0.276459 0.36177 0.0410127 0.320758) 250 498 2
(0.137063 0.0536718 0.377797 0.431469) 251 497 2
(0.0257292 0.111547 0.487135 0.375588) 251 499 2
(0.214357 0.020767 0.392821 0.372054) 252 501 2
(0.227716 0.0904274 0.295715 0.386142) 253 504 1
(0.18366 0.0838045 0.324365 0.40817) 254 506 1
(0.0568702 0.471565 0.145068 0.326497) 256 510 2
(0.472282 0.263859 0.247152 0.0167073) 257 363 2
(0.147461 0.42627 0.0544706 0.371799) 258 511 1
(0.362894 0.317412 0.318553 0.00114147) 258 365 1
(0.348109 0.325946 0.266625 0.0593203) 259 367 2
(0.160719 0.419641 0.0934671 0.326173) 301 450 2
(0.141476 0.188769 0.429262 0.240493) 302 452 1
(0.100928 0.449536 0.202306 0.24723) 304 604 1
(0.381763 0.309118 0.00820392 0.300914) 380 607 2
(0.0411886 0.479406 0.113505 0.365901) 306 609 2
(0.103697 0.0626498 0.385502 0.448151) 306 609 1
(0.139793 0.379222 0.0508817 0.430104) 307 611 1
(0.149829 0.425086 0.147556 0.27753) 308 613 2
(0.138234 0.0174834 0.4134 0.430883) 308 613 1
(0.180345 0.318481 0.0913469 0.409828) 309 615 1
(0.196977 0.401512 0.15746 0.244052) 310 617 2
(0.169969 0.0450723 0.369943 0.415016) 310 617 1
(0.0927758 0.105944 0.347668 0.453612) 311 619 1
(0.424044 0.287978 0.209561 0.0784172) 313 620 1
(0.0856146 0.0753935 0.381799 0.457193) 314 622 2
(0.184036 0.407982 0.186107 0.221875) 315 627 2
(0.180977 0.122389 0.287122 0.409512) 316 629 1
(0.0370546 0.079481 0.481473 0.401992) 317 630 2
(0.154432 0.0441059 0.378678 0.422784) 319 632 2
(0.0884308 0.0934519 0.362333 0.455785) 320 634 2
(0.164883 0.0516261 0.417558 0.365932) 320 636 2
(0.226319 0.00292207 0.38684 0.383918) 321 638 2
(0.228731 0.34121 0.385634 0.0444248) 322 492 1
(0.292272 0.353864 0.0876205 0.266244) 323 494 2
(0.251548 0.374226 0.17346 0.200766) 324 496 2
(0.0836339 0.116085 0.458183 0.342098) 324 644 2
(0.389923 0.0133687 0.305039 0.29167) 325 646 2
(0.264707 0.239003 0.128644 0.367647) 326 649 1
(0.248731 0.325324 0.0503102 0.375634) 327 651 1
(0.117232 0.441384 0.37331 0.0680743) 404 655 2
(0.0999843 0.450008 0.0283442 0.421664) 406 805 1
(0.151157 0.424422 0.0130636 0.411358) 332 661 2
(0.252306 0.373847 0.313368 0.0604794) 332 660 1
(0.461472 0.082148 0.269264 0.187116) 333 514 1
(0.531577 0.234211 0.0434369 0.190774) 334 516 2
(0.342505 0.328747 0.225091 0.103656) 335 518 2
(0.19243 0.403785 0.127523 0.276263) 375 597 2
(0.177045 0.376508 0.411477 0.0349692) 376 599 1
(0.171903 0.17586 0.414048 0.238188) 377 601 1
(0.15479 0.422605 0.0677295 0.354875) 379 751 1
(0.220917 0.389541 0.338811 0.0507302) 453 900 1
(0.113535 0.251603 0.443232 0.19163) 454 754 1
(0.18892 0.40554 0.0203442 0.385196) 455 756 2
(0.0414756 0.479262 0.373688 0.105574) 456 758 2
(0.0534435 0.149238 0.32404 0.473278) 381 758 1
(0.0838462 0.350995 0.107082 0.458077) 382 760 1
(0.135518 0.432241 0.340618 0.0916225) 383 762 2
(0.144811 0.427595 0.164853 0.262741) 384 764 2
(0.135987 0.432007 0.0657615 0.366245) 385 766 2
(0.626112 0.186944 0.0937156 0.0932286) 386 765 1
(0.442521 0.27874 0.172303 0.106437) 387 621 2
(0.355455 0.322272 0.0493472 0.272925) 388 769 1
(0.302929 0.348535 0.183585 0.164951) 389 771 1
(0.365941 0.317029 0.102164 0.214865) 390 776 2
(0.10214 0.0906836 0.44893 0.358247) 391 777 2
(0.115004 0.0576441 0.442498 0.384854) 392 779 2
(0.155762 0.0361546 0.422119 0.385964) 393 781 2
(0.103659 0.0651654 0.448171 0.383005) 394 783 2
(0.177359 0.0348591 0.41132 0.376461) 395 785 2
(0.232143 0.00881246 0.375116 0.383929) 396 788 1
(0.290287 0.0519998 0.302857 0.354857) 397 790 1
(0.252885 0.217693 0.373558 0.155865) 398 643 1
(0.456452 0.271774 0.0141279 0.257646) 399 645 2
(0.489252 0.255374 0.0467914 0.208582) 400 647 2
(0.27601 0.361995 0.188199 0.173796) 401 798 2
(0.280854 0.359573 0.0452343 0.314339) 402 800 2
(0.201376 0.0335604 0.365752 0.399312) 403 799 2
(0.16649 0.416755 0.117425 0.29933) 479 804 2
(0.319101 0.34045 0.175359 0.165091) 405 806 2
(0.414064 0.292968 0.06675 0.226218) 480 806 2
(0.284115 0.357942 0.0952409 0.262701) 481 808 2
(0.126273 0.103606 0.333257 0.436864) 407 810 1
(0.311016 0.344492 0.191012 0.15348) 409 813 1
(0.210628 0.131167 0.394686 0.263519) 450 746 1
(0.212307 0.270448 0.393847 0.123399) 451 748 1
(0.0515245 0.138414 0.474238 0.335824) 452 750 1
(0.262033 0.368983 0.0185401 0.350443) 526 897 2
(0.175214 0.412393 0.096178 0.316215) 452 899 2
(0.179769 0.204253 0.205863 0.410116) 452 899 1
(0.0175494 0.491225 0.334858 0.156367) 453 901 2
(0.0309128 0.484544 0.129831 0.354713) 454 903 2
(0.0971429 0.451429 0.0487533 0.402675) 455 905 2
(0.0505331 0.474733 0.255318 0.219416) 456 907 2
(0.136031 0.276054 0.155931 0.431984) 457 909 1
(0.163688 0.041012 0.377144 0.418156) 458 911 1
(0.0320009 0.0741241 0.484 0.409876) 459 912 2
(0.234414 0.382793 0.0593611 0.323432) 461 914 1
(0.260878 0.369561 0.269449 0.100112) 462 770 2
(0.276177 0.361911 0.107494 0.254417) 463 772 2
(0.298925 0.350537 0.320584 0.0299532) 464 922 1
(0.344432 0.327784 0.00393793 0.323846) 466 924 1
(0.19156 0.000379823 0.40422 0.40384) 466 926 2
(0.272982 0.0345553 0.328954 0.363509) 467 929 1
(0.259548 0.159527 0.210699 0.370226) 468 931 1
(0.207468 0.159271 0.236995 0.396266) 469 933 1
(0.128454 0.0387304 0.435773 0.397043) 470 934 2
(0.194992 0.402504 0.0793112 0.323193) 472 939 2
(0.442286 0.221653 0.278857 0.0572039) 473 792 1
(0.318873 0.340564 0.0368498 0.303714) 474 794 2
(0.319586 0.340207 0.0539278 0.286279) 475 796 2
(0.0909277 0.454536 0.139045 0.315491) 476 947 2
(0.0332808 0.104034 0.48336 0.379326) 476 946 2
(0.242439 0.17321 0.20557 0.378781) 477 949 1
(0.264472 0.367764 0.341388 0.026376) 478 951 2
(0.158946 0.343647 0.0768803 0.420527) 479 953 1
(0.233382 0.383309 0.0330178 0.350291) 555 955 2
(0.314296 0.342852 0.0621403 0.280711) 556 957 2
(0.348091 0.325954 0.04596 0.279994) 482 959 2
(0.0597274 0.470136 0.130549 0.339587) 484 960 1
(0.302843 0.348578 0.340588 0.00799029) 525 895 2
(0.262044 0.0669477 0.368978 0.30203) 525 895 1
(0.142586 0.135058 0.428707 0.293649) 600 1044 1
(0.267602 0.366199 0.188864 0.177334) 601 1046 2
(0.120026 0.0979258 0.342061 0.439987) 526 1046 1
(0.161661 0.294508 0.124662 0.41917) 527 1048 1
(0.191292 0.0105999 0.393754 0.404354) 528 1050 1
(0.175924 0.260733 0.151305 0.412038) 530 1054 1
(0.171716 0.414142 0.3238 0.0903415) 532 1058 2
(0.207459 0.179199 0.217071 0.39627) 533 1060 1
(0.519298 0.137283 0.240351 0.103068) 535 915 1
(0.287861 0.219777 0.35607 0.136293) 536 917 1
(0.262022 0.223231 0.368989 0.145758) 537 919 1
(0.22406 0.187179 0.38797 0.200791) 538 921 1
(0.0113826 0.494309 0.418853 0.0754559) 539 1071 1
(0.419139 0.200142 0.0902889 0.290431) 540 1074 1
(0.46687 0.266565 0.166666 0.0998994) 541 1076 2
(0.42321 0.288395 0.0361577 0.252237) 542 1078 2
(0.486179 0.256911 0.199955 0.056956) 543 1080 2
(0.227537 0.386232 0.113833 0.272398) 545 1084 2
(0.220982 0.264271 0.125238 0.389509) 546 1086 1
(0.210292 0.0860837 0.30877 0.394854) 547 1088 1
(0.0343121 0.084087 0.398757 0.482844) 549 1089 2
(0.176649 0.411676 0.0961414 0.315534) 550 1094 2
(0.152749 0.423625 0.252012 0.171613) 551 1096 2
(0.192636 0.403682 0.243323 0.160359) 552 1098 2
(0.231827 0.384087 0.117579 0.266508) 553 1100 2
(0.114823 0.0654557 0.377133 0.442588) 554 1099 2
(0.0833072 0.0537159 0.458346 0.404631) 554 1101 2
(0.1479 0.0365334 0.42605 0.389516) 631 1106 1
(0.0272296 0.110032 0.376353 0.486385) 557 1108 1
(0.00919362 0.495403 0.363939 0.131464) 557 1107 1
(0.250857 0.00490172 0.374571 0.36967) 558 961 1
(0.178504 0.171046 0.239702 0.410748) 600 1193 1
(0.122875 0.095005 0.343558 0.438563) 602 1194 2
(0.410116 0.294942 0.239785 0.0551568) 603 1199 2
(0.257852 0.371074 0.112822 0.258252) 605 1203 2
(0.191435 0.0283168 0.375965 0.404282) 607 1204 2
(0.227223 0.268794 0.117594 0.386389) 608 1209 1
(0.290233 0.0616487 0.354883 0.293235) 609 1062 1
(0.177565 0.411218 0.361421 0.0497968) 610 1212 1
(0.0354458 0.482277 0.371654 0.110623) 611 1214 1
(0.0627195 0.46864 0.0951311 0.373509) 613 1216 1
(0.0418075 0.479096 0.360994 0.118102) 613 1218 1
(0.348893 0.00527925 0.325554 0.320274) 614 1072 1
(0.446767 0.276616 0.274577 0.00203924) 615 1222 1
(0.409365 0.0310411 0.295318 0.264277) 616 1076 1
(0.162059 0.418971 0.328698 0.0902732) 617 1226 1
(0.0327572 0.483621 0.348268 0.135354) 618 1228 1
(0.228407 0.0214727 0.364324 0.385797) 619 1231 1
(0.257416 0.371292 0.118527 0.252765) 621 1235 2
(0.204839 0.225613 0.171968 0.39758) 622 1237 1
(0.0255689 0.0924737 0.487216 0.394742) 623 1238 2
(0.023043 0.488478 0.386232 0.102246) 700 1391 1
(0.0432798 0.47836 0.219132 0.259228) 627 1247 2
(0.134399 0.390704 0.0420961 0.4328) 628 1249 1
(0.139778 0.198592 0.231519 0.430111) 629 1251 1
(0.118418 0.0620673 0.378724 0.440791) 630 1253 1
(0.0137881 0.493106 0.230809 0.262297) 632 1257 2
(0.146576 0.36094 0.0657724 0.426712) 633 1259 1
(0.0281158 0.485942 0.382382 0.10356) 633 1258 1
(0.240568 0.0373858 0.379716 0.34233) 634 1112 1
(0.0603277 0.469836 0.272386 0.19745) 675 1341 1
(0.0559929 0.472004 0.201723 0.270281) 677 1343 1
(0.465811 0.267095 0.0783399 0.188755) 678 1199 2
(0.172038 0.170919 0.413981 0.243062) 680 1351 2
(0.350409 0.29263 0.0321652 0.324795) 682 1356 1
(0.297171 0.0677995 0.283615 0.351415) 684 1357 2
(0.20079 0.182547 0.217058 0.399605) 685 1362 1
(0.0631747 0.468413 0.371924 0.0964882) 687 1366 2
(0.189596 0.405202 0.371751 0.0334517) 687 1365 1
(0.335301 0.103508 0.332349 0.228841) 688 1219 1
(0.351559 0.292062 0.324221 0.0321583) 689 1221 1
(0.350218 0.324891 0.191966 0.132925) 690 1223 2
(0.193451 0.403274 0.0583452 0.344929) 691 1371 1
(0.176484 0.411758 0.363987 0.0477708) 691 1373 1
(0.223814 0.115525 0.388093 0.272568) 692 1227 1
(0.208587 0.156293 0.395707 0.239413) 693 1229 1
(0.528656 0.235672 0.115851 0.119821) 695 1382 2
(0.307204 0.107642 0.238756 0.346398) 696 1384 1
(0.0330841 0.119049 0.364409 0.483458) 698 1385 2
(0.262943 0.368529 0.159701 0.208828) 699 1390 2
(0.115182 0.442409 0.366267 0.0761413) 701 1394 2
(0.275649 0.113076 0.2491 0.362176) 702 1396 1
(0.262223 0.0192414 0.349647 0.368888) 704 1400 1
(0.19352 0.40324 0.117727 0.285513) 781 1404 2
(0.0214506 0.0134512 0.475823 0.489275) 707 1406 1
(0.157936 0.421032 0.000112572 0.420919) 709 1410 2
(0.229003 0.183833 0.385498 0.201665) 709 1261 1
(0.286214 0.356893 0.0270714 0.329821) 710 1263 2
(0.271251 0.364374 0.17488 0.189495) 711 1265 2
(0.184468 0.407766 0.264215 0.143551) 751 1344 2
(0.171863 0.414068 0.22466 0.189408) 752 1346 2
(0.0522312 0.473884 0.0990626 0.374822) 753 1494 1
(0.156961 0.412939 0.42152 0.00858091) 754 1498 2
(0.248895 0.155059 0.375552 0.220493) 755 1500 2
(0.351796 0.155467 0.168634 0.324102) 757 1502 2
(0.782388 0.0310452 0.0777611 0.108806) 758 1507 1
(0.650957 0.0159241 0.174522 0.158598) 759 1508 2
(0.274577 0.362711 0.282057 0.0806543) 761 1513 2
(0.20875 0.333692 0.0619336 0.395625) 763 1517 1
(0.169106 0.0128716 0.415447 0.402575) 764 1518 2
(0.0829761 0.0208059 0.458512 0.437706) 766 1522 2
(0.0204719 0.489764 0.0547883 0.434976) 767 1522 1
(0.168195 0.202953 0.415902 0.212949) 767 1376 1
(0.246036 0.376982 0.234833 0.142149) 768 1378 2
(0.187207 0.0361479 0.406396 0.370249) 768 1378 1
(0.230932 0.37644 0.384534 0.0080938) 769 1380 1
(0.152493 0.423754 0.0863579 0.337396) 770 1528 1
(0.153836 0.423082 0.344594 0.0784882) 770 1530 1
(0.720187 0.0161198 0.123787 0.139906) 772 1532 2
(0.472747 0.0410575 0.222569 0.263627) 773 1537 1
(0.54169 0.000746397 0.229155 0.228408) 774 1538 2
(0.871862 0.0640689 0.0465191 0.0175499) 776 1394 2
(0.0364368 0.481782 0.277078 0.204704) 778 1544 1
(0.488008 0.00994025 0.255996 0.246056) 779 1400 1
(0.012019 0.163543 0.493991 0.330448) 781 1552 2
(0.218456 0.0390198 0.351752 0.390772) 784 1556 2
(0.0625777 0.0579759 0.410735 0.468711) 785 1558 2
(0.200811 0.399594 0.275904 0.123691) 785 1560 1
(0.0321218 0.483939 0.0877643 0.396175) 861 1563 2
(0.24604 0.37698 0.0354724 0.341508) 787 1565 2
(0.303146 0.348427 0.0383114 0.310115) 825 1640 2
(0.187885 0.406058 0.158186 0.247872) 826 1642 2
(0.237194 0.381403 0.0135331 0.36787) 827 1644 2
(0.107124 0.00107324 0.446438 0.445365) 825 1491 1
(0.179898 0.0944898 0.315561 0.410051) 751 1493 1
(0.283124 0.340259 0.358438 0.0181786) 827 1495 1
(0.241466 0.379267 0.153898 0.225369) 828 1497 2
(0.189056 0.405472 0.129794 0.275678) 829 1499 2
(0.197824 0.401088 0.0686657 0.332422) 830 1501 2
(0.29095 0.332495 0.354525 0.02203) 831 1503 1
(0.205386 0.328813 0.397307 0.0684945) 832 1505 1
(0.0190924 0.186165 0.490454 0.304289) 833 1507 1
(0.0942181 0.452891 0.234592 0.218299) 835 1511 2
(0.256823 0.0273431 0.371589 0.344246) 836 1661 2
(0.140855 0.0505705 0.379002 0.429573) 838 1663 2
(0.200126 0.399937 0.373566 0.0263714) 839 1668 2
(0.198108 0.272763 0.128183 0.400946) 840 1670 1
(0.217142 0.155465 0.235964 0.391429) 841 1672 1
(0.322804 0.0657989 0.338598 0.272799) 842 1525 1
(0.303024 0.216224 0.348488 0.132264) 843 1527 1
(0.295707 0.352146 0.0580237 0.294123) 844 1529 2
(0.266804 0.366598 0.28298 0.0836178) 845 1531 2
(0.0120844 0.493958 0.372165 0.121793) 845 1679 1
(0.278747 0.120977 0.360626 0.239649) 846 1533 1
(0.286245 0.265392 0.356878 0.0914852) 847 1535 1
(0.338201 0.330899 0.0506423 0.280257) 848 1537 2
(0.369447 0.0423538 0.315277 0.272923) 849 1539 1
(0.21913 0.390435 0.377801 0.012634) 852 1545 2
(0.0575597 0.47122 0.0829688 0.388251) 854 1695 1
(0.120195 0.439903 0.363753 0.0761496) 854 1697 1
(0.304311 0.347844 0.34613 0.00171491) 858 1557 2
(0.107186 0.446407 0.202147 0.244259) 858 1705 1
(0.484351 0.257824 0.0376424 0.220182) 934 1854 1
(0.0355337 0.191507 0.290726 0.482233) 859 1708 1
(0.178206 0.410897 0.359431 0.0514656) 860 1710 2
(0.14995 0.425025 0.123247 0.301778) 861 1712 2
(0.539135 0.230433 0.0187684 0.211664) 900 1789 2
(0.0138115 0.493094 0.483039 0.010055) 977 1793 2
(0.13908 0.43046 0.0390837 0.391376) 903 1795 2
(0.26086 0.36957 0.173518 0.196052) 904 1797 2
(0.103246 0.448377 0.301619 0.146758) 829 1648 2
(0.15138 0.42431 0.407075 0.0172347) 905 1650 2
(0.173954 0.224906 0.413023 0.188118) 905 1650 1
(0.187161 0.406419 0.171238 0.235181) 906 1652 2
(0.013075 0.493463 0.382209 0.111254) 906 1800 1
(0.187755 0.115596 0.406122 0.290527) 907 1654 1
(0.40293 0.298535 0.215736 0.0827993) 908 1805 2
(0.225851 0.0815866 0.387074 0.305488) 833 1655 2
(0.0969206 0.45154 0.113552 0.337988) 909 1658 2
(0.124455 0.437773 0.42135 0.016423) 910 1660 2
(0.20596 0.345153 0.39702 0.0518665) 910 1660 1
(0.225437 0.387282 0.333791 0.0534902) 911 1662 2
(0.213835 0.218754 0.174329 0.393082) 911 1811 1
(0.247165 0.234466 0.141952 0.376418) 912 1813 1
(0.213984 0.077313 0.315695 0.393008) 913 1815 1
(0.0918368 0.0694804 0.454082 0.384601) 914 1816 2
(0.13703 0.111764 0.319721 0.431485) 916 1818 2
(0.362475 0.318762 0.0123838 0.306379) 917 1674 2
(0.304556 0.347722 0.0278499 0.319872) 918 1676 2
(0.283783 0.358109 0.0599883 0.29812) 919 1678 2
(0.275154 0.362423 0.131203 0.231221) 920 1680 2
(0.269815 0.365093 0.246165 0.118927) 921 1682 2
(0.20692 0.39654 0.0357418 0.360798) 922 1830 1
(0.0898622 0.455069 0.369712 0.0853571) 922 1832 1
(0.134686 0.432657 0.39163 0.0410266) 923 1834 1
(0.129789 0.435106 0.0122232 0.422882) 925 1836 1
(0.151228 0.424386 0.398742 0.025644) 853 1696 2
(0.272969 0.363516 0.120797 0.242719) 929 1698 2
(0.25271 0.354996 0.373645 0.0186493) 931 1702 1
(0.179296 0.396508 0.0138439 0.410352) 857 1704 1
(0.451492 0.274254 0.136705 0.137549) 933 1706 2
(0.530356 0.234822 0.206093 0.028729) 1008 2003 1
(0.690924 0.134201 0.154538 0.0203375) 1009 1857 1
(0.364122 0.317939 0.162956 0.154983) 1010 2005 1
(0.357655 0.321172 0.248397 0.0727756) 1010 2007 1
(0.247314 0.376343 0.218886 0.157458) 975 1938 2
(0.22682 0.345177 0.0414133 0.38659) 976 1940 1
(0.26043 0.369785 0.289595 0.0801896) 977 1942 2
(0.259027 0.0101604 0.360326 0.370486) 978 1941 2
(0.19374 0.0421088 0.40313 0.361021) 978 1943 2
(0.288171 0.121744 0.23417 0.355914) 979 1946 1
(0.236348 0.197438 0.184388 0.381826) 980 1948 1
(0.0699612 0.465019 0.393907 0.0711121) 1056 2098 1
(0.162641 0.41868 0.0810496 0.33763) 982 1949 1
(0.235827 0.382086 0.131773 0.250314) 983 1951 1
(0.0188936 0.490553 0.189034 0.301519) 984 1953 1
(0.151716 0.239979 0.424142 0.184163) 984 1807 1
(0.303563 0.348219 0.335639 0.0125796) 985 1809 2
(0.31014 0.0288597 0.34493 0.316071) 985 1809 1
(0.417716 0.156626 0.134516 0.291142) 986 1960 1
(0.289214 0.344931 0.0104617 0.355393) 987 1962 1
(0.261404 0.369298 0.269633 0.0996655) 988 1964 2
(0.413597 0.293201 0.0497716 0.24343) 989 1966 2
(0.468701 0.265649 0.0112106 0.254439) 990 1968 2
(0.256147 0.371927 0.215102 0.156824) 991 1967 1
(0.28442 0.35779 0.306309 0.051481) 992 1823 2
(0.263034 0.368483 0.203777 0.164706) 993 1825 2
(0.256703 0.371649 0.0322821 0.339367) 994 1827 2
(0.289385 0.285429 0.0698786 0.355307) 995 1978 1
(0.459222 0.0156375 0.254751 0.270389) 996 1980 1
(0.0603413 0.2243 0.469829 0.245529) 997 1981 2
(0.175101 0.158793 0.41245 0.253657) 998 1835 1
(0.2116 0.249693 0.3942 0.144507) 999 1837 1
(0.0265696 0.286112 0.486715 0.200604) 1000 1839 1
(0.254858 0.129473 0.243099 0.372571) 926 1841 1
(0.0413435 0.0990003 0.479328 0.380328) 927 1842 2
(0.240434 0.199693 0.18009 0.379783) 930 1849 1
(0.259291 0.370354 0.298665 0.0716891) 1007 1853 2
(0.000324885 0.499838 0.299925 0.199913) 1007 2001 1
(0.145618 0.427191 0.169968 0.257223) 1006 2000 2
(0.321481 0.339259 0.272666 0.0665934) 1082 2002 2
(0.0526468 0.473677 0.214856 0.258821) 1082 2150 1
(0.259671 0.370164 0.224587 0.145578) 1083 2152 1
(0.199053 0.0153267 0.400473 0.385147) 1050 2086 2
(0.0315235 0.0897706 0.394468 0.484238) 1052 2088 2
(0.203244 0.398378 0.119883 0.278496) 1053 2093 2
(0.228943 0.385529 0.230105 0.155424) 1054 2095 2
(0.0710272 0.102874 0.361612 0.464486) 1056 2096 2
(0.608323 0.0159628 0.195839 0.179876) 1057 1952 1
(0.381937 0.309032 0.0294818 0.27955) 1058 1954 2
(0.338464 0.330768 0.236976 0.0937922) 1059 1956 2
(0.0982463 0.450877 0.115964 0.334913) 1060 2104 1
(0.370487 0.0549715 0.314756 0.259785) 1060 1958 1
(0.476564 0.261718 0.0135725 0.248146) 1061 1960 2
(0.23819 0.380905 0.347686 0.0332188) 1062 2111 2
(0.274232 0.362884 0.254022 0.108863) 1063 2113 2
(0.223832 0.388084 0.210901 0.177183) 1064 2115 2
(0.276269 0.361865 0.302676 0.0591888) 1064 2114 1
(0.361366 0.0924681 0.319317 0.226849) 1065 1968 1
(0.254576 0.257587 0.372712 0.115125) 1066 1970 1
(0.266946 0.233016 0.366527 0.133512) 1067 1972 1
(0.170418 0.0559287 0.358862 0.414791) 1069 2122 2
(0.252752 0.373624 0.201007 0.172617) 1070 2127 2
(0.264953 0.352848 0.0146758 0.367524) 1071 2129 1
(0.356302 0.321849 0.0539684 0.267881) 1072 1982 2
(0.319991 0.340005 0.0244199 0.315585) 1073 1984 2
(0.240415 0.379792 0.176878 0.202914) 1074 1986 2
(0.271111 0.364444 0.00409527 0.360349) 1075 2134 1
(0.254357 0.020711 0.35211 0.372821) 1001 1987 2
(0.0225771 0.221116 0.488711 0.267595) 1001 1989 2
(0.0722381 0.463881 0.45077 0.0131105) 1002 1992 2
(0.179556 0.410222 0.0308919 0.37933) 1078 2140 1
(0.0140524 0.492974 0.391215 0.101758) 1079 1996 2
(0.12716 0.077533 0.358887 0.43642) 1005 1995 2
(0.349273 0.325364 0.293067 0.0322962) 1079 2145 2
(0.0477348 0.203627 0.272506 0.476133) 1080 2144 2
(0.507282 0.0526807 0.193678 0.246359) 1080 2147 1
(0.32897 0.301969 0.0335459 0.335515) 1081 2149 1
(0.339228 0.0198444 0.310542 0.330386) 1125 15090 1
(0.452912 0.273544 0.0220645 0.251479) 1126 2238 2
(0.0899101 0.167001 0.455045 0.288044) 1127 2239 2
(0.598877 0.0703198 0.130242 0.200561) 1130 2243 2
(0.401501 0.29925 0.142985 0.156265) 1131 2247 1
(0.30534 0.34733 0.19367 0.15366) 1133 2103 2
(0.30409 0.340496 0.347955 0.00745918) 1134 2105 1
(0.276702 0.361649 0.0183377 0.343312) 1136 2258 2
(0.116528 0.0581027 0.383633 0.441736) 1137 2257 2
(0.159781 0.0951324 0.324977 0.420109) 1137 2260 1
(0.152955 0.417413 0.00610995 0.423522) 1138 2262 1
(0.231743 0.384128 0.0228497 0.361279) 1139 2264 2
(0.276185 0.211627 0.150281 0.361907) 1139 2264 1
(0.249671 0.375164 0.0291979 0.345967) 1140 2266 2
(0.112708 0.443646 0.0362214 0.407425) 1140 2117 2
(0.0393075 0.480346 0.135455 0.344891) 1141 2265 1
(0.263075 0.06441 0.368462 0.304052) 1141 2119 1
(0.369583 0.315209 0.0795978 0.235611) 1143 2272 2
(0.294247 0.352877 0.0618337 0.291043) 1144 2274 2
(0.330637 0.334681 0.267205 0.0674765) 1145 2276 2
(0.32723 0.176815 0.15957 0.336385) 1146 2278 1
(0.195641 0.162963 0.402179 0.239216) 1147 2131 1
(0.122225 0.438888 0.407053 0.031835) 1148 2281 1
(0.199002 0.280219 0.12028 0.400499) 1149 2284 1
(0.303899 0.348051 0.289909 0.058142) 1150 2286 2
(0.210172 0.394914 0.239289 0.155625) 1151 2288 2
(0.259475 0.052368 0.317894 0.370262) 1076 2136 2
(0.0691633 0.465418 0.411238 0.0541799) 1151 2287 1
(0.209969 0.268682 0.395016 0.126334) 1152 2141 1
(0.216801 0.391599 0.286064 0.105536) 1153 2143 2
(0.179358 0.139154 0.410321 0.271167) 1153 2143 1
(0.528285 0.235857 0.153416 0.0824409) 1154 2294 2
(0.100487 0.449756 0.180204 0.269552) 1154 2293 1
(0.649641 0.112242 0.17518 0.0629374) 1155 2147 1
(0.524697 0.237651 0.205136 0.0325157) 1156 2149 2
(0.434578 0.282711 0.0421587 0.240552) 1200 2236 2
(0.346053 0.326974 0.0887149 0.238259) 1201 2238 2
(0.00382777 0.498086 0.338348 0.159738) 1202 2388 1
(0.172491 0.413754 0.259246 0.154508) 1205 2246 2
(0.424341 0.287829 0.155815 0.132015) 1206 2397 2
(0.400899 0.0592336 0.29955 0.240317) 1208 2252 1
(0.30668 0.34666 0.193706 0.152954) 1210 2256 2
(0.142518 0.428741 0.352147 0.0765943) 1285 2553 1
(0.0309236 0.344013 0.140526 0.484538) 1211 2407 1
(0.126093 0.436954 0.389346 0.0476079) 1212 2409 2
(0.136213 0.431893 0.139619 0.292274) 1213 2411 2
(0.149567 0.0296702 0.395546 0.425216) 1213 2411 1
(0.113806 0.400762 0.0423352 0.443097) 1214 2413 1
(0.583303 0.208349 0.155409 0.0529395) 1215 2266 2
(0.0527836 0.473608 0.323953 0.149655) 1215 2414 1