/*--------------------------------*- C++ -*----------------------------------*\
  =========                 |
  \\      /  F ield         | OpenFOAM: The Open Source CFD Toolbox
   \\    /   O peration     | Website:  https://openfoam.org
    \\  /    A nd           | Version:  12
     \\/     M anipulation  |
\*---------------------------------------------------------------------------*/
FoamFile
{
    format      ascii;
    class       volVectorField::Internal;
    location    "0.2";
    object      cloud:UTrans;
}
// * * * * * * * * * * * * * * * * * * * * * * * * * * * * * * * * * * * * * //

dimensions      [1 1 -1 0 0 0 0];

value           nonuniform List<vector> 
3750
(
(-1.74921e-09 2.91465e-08 0)
(9.21395e-10 -4.40661e-09 0)
(3.94686e-10 -2.78809e-09 0)
(-7.22514e-11 -1.6876e-09 0)
(-2.48439e-10 -1.58875e-09 0)
(-4.29794e-10 -1.95119e-09 0)
(5.47135e-11 -2.01176e-09 0)
(-6.38744e-11 -1.93189e-09 0)
(0 0 0)
(-1.7508e-11 -1.91396e-09 0)
(-1.96726e-11 -1.92965e-09 0)
(-9.45789e-11 -1.93279e-09 0)
(-5.30262e-11 -3.68023e-09 0)
(1.36369e-10 -2.0472e-09 0)
(0 0 0)
(6.24069e-11 -2.10079e-09 0)
(1.65212e-10 -2.08758e-09 0)
(-3.32608e-11 -2.00112e-09 0)
(1.25706e-10 -2.15063e-09 0)
(4.40046e-11 -4.48093e-09 0)
(9.74884e-11 -1.84681e-09 0)
(1.38639e-11 -1.91553e-09 0)
(0 0 0)
(-1.4444e-11 -1.99574e-09 0)
(6.21466e-12 -2.08065e-09 0)
(4.80179e-12 -2.01048e-09 0)
(0 0 0)
(2.12841e-10 -2.04059e-09 0)
(6.01266e-11 -4.26055e-09 0)
(-2.82652e-11 -2.11112e-09 0)
(2.52604e-10 -2.05541e-09 0)
(6.7424e-12 -4.67964e-09 0)
(0 0 0)
(-8.1473e-11 -1.72459e-09 0)
(-3.99732e-12 -1.90312e-09 0)
(4.23036e-11 -1.75407e-09 0)
(1.65243e-12 -1.62552e-09 0)
(3.6002e-11 -1.86402e-09 0)
(-2.26375e-11 -1.80778e-09 0)
(1.54e-12 -2.02091e-09 0)
(5.49326e-11 -2.37786e-09 0)
(0 0 0)
(1.95201e-11 -1.82888e-09 0)
(9.76473e-12 -1.92565e-09 0)
(-2.43748e-11 -3.01306e-09 0)
(-2.12461e-11 -1.97068e-09 0)
(0 0 0)
(-1.31597e-11 -2.03589e-09 0)
(-2.13023e-10 -3.91687e-09 0)
(-1.5409e-10 -5.00579e-09 0)
(-1.35275e-11 -1.8792e-09 0)
(-2.38386e-11 -1.79714e-09 0)
(3.35808e-11 -1.84211e-09 0)
(-1.50849e-12 -2.31136e-09 0)
(0 0 0)
(-6.88963e-11 -2.31086e-09 0)
(0 0 0)
(1.19733e-10 -1.69831e-09 0)
(-1.94036e-10 -4.53101e-09 0)
(1.59605e-11 -1.8264e-09 0)
(-6.28666e-12 -1.82992e-09 0)
(7.4193e-11 -4.15218e-09 0)
(2.2581e-11 -1.9201e-09 0)
(-5.72281e-11 -1.72218e-09 0)
(-5.14315e-12 -2.00739e-09 0)
(3.11947e-10 -2.29339e-09 0)
(0 0 0)
(-2.63232e-11 -1.71208e-09 0)
(-5.89309e-12 -4.81108e-09 0)
(3.90039e-11 -8.50646e-10 0)
(1.33759e-11 -1.85134e-09 0)
(2.27909e-11 -2.31971e-09 0)
(-5.66453e-12 -1.90263e-09 0)
(-2.25373e-11 -2.13963e-09 0)
(-2.93392e-10 -3.75361e-09 0)
(2.04014e-09 3.23608e-08 0)
(2.21358e-10 -3.56487e-09 0)
(5.02682e-11 -1.32e-09 0)
(-4.2365e-10 -3.78358e-09 0)
(-1.25086e-10 -1.83253e-09 0)
(8.15778e-12 -1.96789e-09 0)
(6.93752e-11 -2.00595e-09 0)
(1.318e-11 -1.91168e-09 0)
(-1.38058e-10 -4.53866e-09 0)
(-2.16986e-10 -2.50147e-09 0)
(0 0 0)
(2.94006e-11 -1.79919e-09 0)
(1.42063e-11 -1.65724e-09 0)
(-2.6573e-12 -1.81742e-09 0)
(3.17229e-11 -2.06902e-09 0)
(1.06606e-10 -1.78256e-09 0)
(-8.74566e-11 -4.91408e-09 0)
(0 0 0)
(-7.5297e-11 -2.03196e-09 0)
(0 0 0)
(1.22105e-11 -2.07901e-09 0)
(4.35879e-11 -1.99947e-09 0)
(-3.1037e-11 -1.89575e-09 0)
(-9.01171e-11 -1.80355e-09 0)
(2.34409e-10 -5.71457e-09 0)
(7.20643e-11 -1.53287e-09 0)
(-6.08436e-12 -1.72395e-09 0)
(4.37993e-11 -1.83928e-09 0)
(-1.17305e-10 -2.35859e-09 0)
(0 0 0)
(-4.14362e-11 -1.7663e-09 0)
(1.00231e-11 -1.96713e-09 0)
(-3.56375e-10 -5.09537e-09 0)
(0 0 0)
(-1.06844e-10 -2.94676e-09 0)
(2.18745e-10 -3.71456e-09 0)
(-5.88359e-11 -1.65274e-09 0)
(0 0 0)
(-6.86331e-11 -2.0769e-09 0)
(0 0 0)
(-1.19168e-10 -2.13401e-09 0)
(-2.24206e-10 -4.09135e-09 0)
(-9.85938e-11 -1.88867e-09 0)
(0 0 0)
(1.10313e-10 -1.66308e-09 0)
(4.47488e-10 -4.47724e-09 0)
(-3.05203e-12 -1.94945e-09 0)
(0 0 0)
(0 0 0)
(0 0 0)
(-1.63104e-10 -2.11244e-09 0)
(-2.47408e-11 -2.05707e-09 0)
(-1.77071e-11 -1.84289e-09 0)
(5.38623e-11 -1.94404e-09 0)
(-2.26848e-11 -4.47318e-09 0)
(3.09427e-11 -1.69694e-09 0)
(1.10321e-10 -1.83247e-09 0)
(7.87175e-11 -1.73584e-09 0)
(-2.58429e-11 -1.85255e-09 0)
(-1.22316e-11 -1.93042e-09 0)
(-3.27451e-11 -1.85107e-09 0)
(0 0 0)
(-1.45301e-10 -3.99265e-09 0)
(-1.49797e-10 -1.8175e-09 0)
(-2.91803e-10 -1.89298e-09 0)
(6.81016e-11 -1.95172e-09 0)
(9.10551e-11 -1.95229e-09 0)
(4.76704e-13 -1.81617e-09 0)
(1.19797e-10 -1.97514e-09 0)
(1.41486e-10 -4.23828e-09 0)
(0 0 0)
(4.89388e-11 -1.86944e-09 0)
(6.57492e-11 -1.88817e-09 0)
(-1.09635e-10 -2.26628e-09 0)
(0 0 0)
(4.12204e-09 3.09948e-08 0)
(-1.44863e-10 -1.39152e-09 0)
(4.10469e-10 -1.77037e-09 0)
(-1.33213e-11 -1.55547e-09 0)
(-7.53653e-11 -1.83914e-09 0)
(7.68967e-11 -1.7465e-09 0)
(-1.1347e-10 -4.85878e-09 0)
(-1.15249e-10 -2.16588e-09 0)
(-1.87878e-10 -2.0837e-09 0)
(0 0 0)
(-9.51543e-11 -1.88972e-09 0)
(3.87326e-11 -1.89513e-09 0)
(1.29969e-10 -1.87333e-09 0)
(4.94303e-11 -1.33974e-09 0)
(-2.98847e-11 -1.70748e-09 0)
(3.76176e-11 -1.86578e-09 0)
(-8.86356e-11 -2.04276e-09 0)
(-2.6927e-12 -1.82768e-09 0)
(-1.0898e-10 -1.87947e-09 0)
(-6.54512e-11 -2.44741e-09 0)
(8.73386e-11 -2.82586e-09 0)
(-2.93236e-10 -3.6274e-09 0)
(-7.70841e-11 -1.52976e-09 0)
(-1.05595e-11 -1.91322e-09 0)
(3.01085e-11 -1.96272e-09 0)
(1.2537e-10 -1.83943e-09 0)
(0 0 0)
(-3.57315e-11 -4.56804e-09 0)
(-4.4434e-11 -1.94364e-09 0)
(-4.73078e-11 -1.7227e-09 0)
(-5.13335e-11 -1.77613e-09 0)
(-1.30876e-10 -2.36115e-09 0)
(-2.40109e-10 -2.23494e-09 0)
(0 0 0)
(-1.4221e-10 -1.74542e-09 0)
(6.05758e-11 -1.90225e-09 0)
(0 0 0)
(8.48755e-12 -1.56126e-09 0)
(9.19803e-11 -1.77759e-09 0)
(1.12575e-10 -3.84058e-09 0)
(0 0 0)
(-6.67744e-11 -1.92468e-09 0)
(-3.3263e-11 -1.75876e-09 0)
(6.1934e-11 -2.18957e-09 0)
(2.77065e-10 -1.96922e-09 0)
(0 0 0)
(0 0 0)
(4.70957e-11 -2.00296e-09 0)
(-5.69995e-11 -4.8887e-09 0)
(2.81864e-11 -1.90229e-09 0)
(-2.28914e-10 -4.88643e-09 0)
(-1.92985e-10 -1.87609e-09 0)
(-1.00307e-10 -1.93438e-09 0)
(8.67858e-11 -1.73016e-09 0)
(1.44232e-10 -1.8621e-09 0)
(4.19071e-10 -1.88717e-09 0)
(3.49204e-10 -1.86953e-09 0)
(1.50941e-10 -1.88735e-09 0)
(1.27213e-11 -1.97764e-09 0)
(1.00474e-11 -1.95479e-09 0)
(-1.03887e-11 -2.03317e-09 0)
(8.58291e-11 -8.89975e-10 0)
(4.38883e-11 -5.82272e-10 0)
(-6.87308e-11 -4.17032e-09 0)
(-8.72541e-11 -1.66016e-09 0)
(1.06923e-10 -1.812e-09 0)
(1.38497e-10 -1.99623e-09 0)
(1.42247e-10 -1.89733e-09 0)
(9.54393e-11 -1.91898e-09 0)
(-1.40363e-10 -1.90914e-09 0)
(-3.76432e-11 -2.01995e-09 0)
(-4.39911e-11 -1.91997e-09 0)
(-1.0588e-10 -2.11404e-09 0)
(-8.87734e-12 -5.70962e-10 0)
(-2.23838e-11 -1.66492e-09 0)
(3.09131e-09 3.17764e-08 0)
(1.29632e-10 -1.42829e-09 0)
(1.67875e-10 -1.88823e-09 0)
(-3.61477e-11 -1.82126e-09 0)
(-5.49826e-11 -1.28988e-09 0)
(-2.2434e-10 -1.84233e-09 0)
(-1.80212e-10 -1.96403e-09 0)
(-8.26e-11 -2.10747e-09 0)
(-4.80055e-11 -2.27416e-09 0)
(4.85813e-11 -2.15007e-09 0)
(-2.7298e-11 -1.9124e-09 0)
(3.00888e-11 -4.30253e-10 0)
(8.17402e-11 -1.03577e-09 0)
(9.17794e-11 -1.97042e-09 0)
(-4.72379e-11 -1.99072e-09 0)
(-1.04862e-10 -4.6587e-09 0)
(-1.01967e-10 -1.84521e-09 0)
(-1.74443e-10 -2.05312e-09 0)
(-7.10264e-11 -1.88538e-09 0)
(4.33842e-11 -2.81512e-09 0)
(2.87405e-10 -3.46135e-09 0)
(-9.90904e-12 -1.82279e-09 0)
(5.01233e-11 -1.73548e-09 0)
(7.64988e-11 -1.89135e-09 0)
(1.01981e-10 -1.99055e-09 0)
(5.73211e-11 -1.98231e-09 0)
(-4.59002e-11 -1.414e-09 0)
(-1.80413e-10 -1.76653e-09 0)
(-2.03264e-10 -1.86436e-09 0)
(-6.42261e-11 -3.2508e-09 0)
(-1.18977e-10 -2.68395e-09 0)
(0 0 0)
(-2.84383e-10 -4.29576e-09 0)
(1.71613e-11 -4.11344e-09 0)
(1.17122e-10 -3.82239e-09 0)
(2.66089e-11 -1.7753e-09 0)
(2.2099e-10 -3.62461e-09 0)
(1.4263e-10 -2.12051e-09 0)
(9.91495e-12 -2.96927e-09 0)
(6.00154e-11 -1.8788e-09 0)
(-7.83551e-11 -4.21728e-09 0)
(-1.1296e-10 -1.74573e-09 0)
(5.25074e-11 -2.82618e-09 0)
(2.00864e-10 -2.92831e-09 0)
(8.30201e-12 -1.93162e-10 0)
(1.80869e-10 -1.93465e-09 0)
(-9.32043e-11 -5.29412e-09 0)
(-1.45333e-10 -2.44394e-09 0)
(-9.77769e-11 -2.08113e-09 0)
(-2.01906e-11 -1.59128e-09 0)
(-4.95146e-10 -1.63207e-09 0)
(-4.78008e-10 -1.86059e-09 0)
(-1.12959e-10 -1.91497e-09 0)
(6.12416e-11 -2.03907e-09 0)
(1.22908e-10 -1.92324e-09 0)
(2.60081e-10 -1.943e-09 0)
(2.15581e-10 -1.90529e-09 0)
(5.68239e-11 -1.83193e-09 0)
(-8.58443e-12 -2.00769e-09 0)
(5.21347e-11 -1.98143e-09 0)
(6.2269e-11 -1.86926e-09 0)
(1.01576e-10 -1.9555e-09 0)
(8.42856e-11 -1.83061e-09 0)
(-1.9273e-10 -1.6171e-09 0)
(-1.0478e-10 -1.76474e-09 0)
(7.55462e-11 -1.86754e-09 0)
(8.13176e-12 -1.96973e-09 0)
(7.53306e-11 -1.97898e-09 0)
(1.42692e-10 -2.04685e-09 0)
(3.51232e-11 -2.25432e-09 0)
(-8.7527e-11 -2.16552e-09 0)
(-1.38489e-10 -2.04684e-09 0)
(-1.1007e-10 -2.06647e-09 0)
(8.95703e-11 -2.08064e-09 0)
(5.21118e-11 -2.03145e-09 0)
(5.29791e-09 3.51261e-08 0)
(1.85055e-11 -1.09433e-09 0)
(2.50712e-10 -2.15139e-09 0)
(1.22182e-10 -1.70532e-09 0)
(-1.1416e-10 -1.91455e-09 0)
(-1.13656e-10 -2.23959e-09 0)
(-3.24128e-10 -2.0502e-09 0)
(-1.6702e-10 -2.15076e-09 0)
(-2.09821e-11 -3.77496e-09 0)
(6.27972e-11 -2.0077e-09 0)
(1.00004e-10 -1.87765e-09 0)
(-2.20975e-10 -1.92315e-09 0)
(-1.31311e-11 -1.99921e-09 0)
(-7.60955e-12 -2.19863e-09 0)
(0 0 0)
(4.02249e-11 -2.64338e-09 0)
(1.14524e-11 -3.42001e-09 0)
(0 0 0)
(-1.52635e-10 -2.02091e-09 0)
(-4.95661e-12 -2.81898e-09 0)
(2.81123e-10 -3.70685e-09 0)
(6.14373e-11 -1.81015e-09 0)
(1.06953e-10 -1.58916e-09 0)
(1.56392e-10 -1.89258e-09 0)
(-5.38931e-11 -1.88161e-09 0)
(-4.34008e-11 -2.04371e-09 0)
(0 0 0)
(-5.27563e-11 -1.84587e-09 0)
(-1.8802e-11 -1.8562e-09 0)
(-6.80041e-11 -2.83462e-09 0)
(-2.6193e-10 -2.8993e-09 0)
(-9.54031e-11 -1.8705e-09 0)
(0 0 0)
(0 0 0)
(-5.56909e-11 -1.91896e-09 0)
(1.00708e-10 -1.92297e-09 0)
(6.33741e-11 -1.70905e-09 0)
(1.18678e-11 -4.42389e-10 0)
(1.40035e-11 -1.17371e-09 0)
(-1.31582e-10 -4.20034e-09 0)
(-5.00518e-11 -3.49197e-09 0)
(8.3133e-12 -6.22993e-10 0)
(1.22214e-10 -2.94458e-09 0)
(2.063e-10 -1.64726e-09 0)
(1.73789e-10 -4.29133e-09 0)
(2.04527e-11 -1.82141e-09 0)
(-1.74196e-10 -2.21502e-09 0)
(0 0 0)
(-9.00079e-11 -2.06948e-09 0)
(1.16826e-10 -1.67194e-09 0)
(-8.49386e-11 -1.42638e-09 0)
(-2.14715e-10 -1.7005e-09 0)
(-1.57736e-10 -1.77651e-09 0)
(-9.02244e-11 -2.13342e-09 0)
(8.31338e-11 -1.99076e-09 0)
(1.1571e-10 -1.85883e-09 0)
(2.15241e-10 -2.89552e-09 0)
(1.54342e-10 -3.31816e-09 0)
(6.46563e-11 -1.84498e-09 0)
(-1.59168e-11 -1.99396e-09 0)
(-4.82481e-11 -2.02466e-09 0)
(6.24561e-11 -2.10666e-09 0)
(0 0 0)
(-9.63434e-11 -2.46279e-09 0)
(-8.83069e-11 -3.47362e-09 0)
(8.5666e-11 -1.75508e-09 0)
(-4.45417e-11 -1.76994e-09 0)
(9.07081e-11 -1.96306e-09 0)
(-2.25927e-11 -2.1801e-09 0)
(-3.30637e-11 -2.30159e-09 0)
(-9.78557e-11 -2.17563e-09 0)
(-1.78983e-10 -1.81336e-09 0)
(-2.69718e-10 -1.79649e-09 0)
(-9.57063e-12 -1.83441e-09 0)
(2.0166e-10 -1.94306e-09 0)
(4.3337e-09 3.29844e-08 0)
(6.54999e-11 -1.8124e-09 0)
(3.1111e-11 -7.6377e-10 0)
(3.28172e-10 -4.871e-09 0)
(4.03707e-11 -1.69951e-09 0)
(-9.54946e-11 -2.29585e-09 0)
(0 0 0)
(-3.11815e-11 -1.86419e-09 0)
(-3.49026e-12 -2.70883e-10 0)
(9.91924e-12 -1.90705e-09 0)
(9.12864e-11 -1.92197e-09 0)
(7.30831e-11 -2.23529e-09 0)
(3.30422e-11 -1.96587e-09 0)
(1.08935e-10 -2.1141e-09 0)
(5.2782e-11 -1.94751e-09 0)
(0 0 0)
(0 0 0)
(7.07277e-12 -2.0034e-09 0)
(0 0 0)
(0 0 0)
(0 0 0)
(0 0 0)
(7.22867e-11 -4.20745e-09 0)
(-7.68134e-11 -2.08818e-09 0)
(-2.20541e-11 -2.05577e-09 0)
(0 0 0)
(-1.99935e-11 -1.82536e-09 0)
(7.06764e-11 -1.751e-09 0)
(2.67827e-11 -8.4541e-10 0)
(9.63157e-12 -3.22779e-10 0)
(-5.39553e-11 -2.96141e-09 0)
(-9.26664e-11 -3.11342e-09 0)
(4.2164e-11 -1.68281e-09 0)
(1.67854e-10 -4.29421e-09 0)
(0 0 0)
(3.10305e-11 -1.97901e-09 0)
(5.91682e-11 -1.96388e-09 0)
(-2.06134e-11 -1.82563e-09 0)
(-1.07507e-10 -2.09227e-09 0)
(0 0 0)
(-1.49337e-11 -2.98461e-10 0)
(7.2876e-11 -1.92215e-09 0)
(1.52899e-10 -1.8416e-09 0)
(-1.77868e-11 -1.88941e-09 0)
(-4.29218e-11 -2.43593e-09 0)
(-7.06474e-11 -2.22786e-09 0)
(0 0 0)
(-8.97084e-11 -1.78984e-09 0)
(-7.35314e-11 -4.05371e-09 0)
(1.24878e-10 -1.61157e-09 0)
(-2.3988e-10 -1.60513e-09 0)
(-2.38098e-10 -1.61715e-09 0)
(-3.72583e-11 -4.81795e-09 0)
(1.37856e-10 -1.74737e-09 0)
(1.87604e-11 -1.81012e-09 0)
(-7.63625e-12 -1.91407e-09 0)
(4.58926e-11 -2.20149e-09 0)
(8.53432e-11 -1.85091e-09 0)
(7.6851e-11 -1.71741e-09 0)
(-2.1207e-10 -1.95464e-09 0)
(-1.18775e-11 -1.94299e-09 0)
(3.40995e-11 -1.89447e-09 0)
(3.6008e-11 -1.92901e-09 0)
(4.76419e-11 -1.97855e-09 0)
(2.84588e-11 -1.97056e-09 0)
(-2.1282e-11 -1.84449e-09 0)
(-6.32755e-11 -1.9993e-09 0)
(8.50835e-11 -1.98827e-09 0)
(-9.7094e-11 -2.0786e-09 0)
(2.25369e-11 -2.30845e-09 0)
(8.36742e-11 -2.04412e-09 0)
(3.85509e-11 -1.7925e-09 0)
(-2.16445e-11 -1.8129e-09 0)
(6.23463e-11 -1.83091e-09 0)
(1.93209e-10 -1.91802e-09 0)
(9.98586e-09 3.97691e-08 0)
(-2.58135e-10 -2.12597e-09 0)
(-1.75294e-10 -8.00471e-10 0)
(1.2818e-11 -2.41858e-09 0)
(-8.36586e-12 -2.09458e-09 0)
(4.88707e-11 -2.10213e-09 0)
(7.72006e-11 -2.11365e-09 0)
(9.47164e-11 -2.0772e-09 0)
(1.04523e-10 -1.72455e-09 0)
(4.93664e-11 -1.94647e-09 0)
(-7.59565e-11 -1.90395e-09 0)
(-5.77763e-11 -1.50611e-09 0)
(-1.91734e-10 -4.7232e-09 0)
(1.36228e-10 -1.80932e-09 0)
(0 0 0)
(2.00819e-10 -1.87409e-09 0)
(1.44735e-10 -1.89792e-09 0)
(-2.11307e-10 -1.95096e-09 0)
(-3.6755e-10 -2.22722e-09 0)
(-3.33358e-11 -1.83663e-09 0)
(1.60965e-10 -4.47028e-09 0)
(1.93762e-10 -4.85667e-09 0)
(3.09608e-11 -2.14529e-09 0)
(-3.33603e-10 -1.99365e-09 0)
(-1.18903e-10 -1.96723e-09 0)
(6.32566e-12 -1.91324e-09 0)
(2.31212e-11 -1.88255e-09 0)
(-4.26816e-11 -1.98326e-09 0)
(1.83617e-10 -2.0225e-09 0)
(1.12375e-10 -1.81222e-09 0)
(-3.25253e-11 -1.84282e-09 0)
(-2.14408e-11 -1.95253e-09 0)
(-1.00858e-10 -1.89821e-09 0)
(-1.28082e-10 -2.06207e-09 0)
(-8.5677e-11 -4.2902e-09 0)
(-2.36827e-11 -1.95756e-09 0)
(-3.51829e-11 -1.90002e-09 0)
(-9.80018e-11 -1.78528e-09 0)
(-2.93864e-11 -1.9116e-09 0)
(-5.09222e-11 -2.392e-09 0)
(-1.69674e-10 -3.02209e-09 0)
(1.67906e-11 -1.82973e-09 0)
(2.84646e-11 -1.86278e-09 0)
(-9.92276e-11 -1.96036e-09 0)
(4.35384e-12 -2.20471e-09 0)
(0 0 0)
(2.08222e-10 -4.40866e-09 0)
(1.37705e-10 -4.24243e-09 0)
(-9.45384e-11 -1.92712e-09 0)
(-9.59159e-11 -1.84057e-09 0)
(-1.30924e-10 -1.77256e-09 0)
(-3.20492e-10 -2.65909e-09 0)
(-1.93228e-10 -3.45274e-09 0)
(8.07649e-11 -1.92732e-09 0)
(-3.59039e-11 -1.8004e-09 0)
(4.70951e-11 -1.89288e-09 0)
(1.79001e-11 -3.63783e-10 0)
(7.57521e-11 -1.32364e-09 0)
(1.50847e-11 -4.77215e-09 0)
(5.24203e-12 -1.83452e-09 0)
(-7.95287e-12 -2.03143e-09 0)
(3.54252e-11 -1.8781e-09 0)
(-4.37071e-12 -1.86991e-09 0)
(1.31381e-10 -2.13162e-09 0)
(1.69046e-10 -1.68408e-09 0)
(-3.62381e-11 -1.66311e-09 0)
(-7.33303e-11 -9.80686e-10 0)
(-8.85026e-12 -1.25241e-10 0)
(2.22141e-10 -2.10643e-09 0)
(9.60204e-11 -2.10594e-09 0)
(9.43749e-11 -1.91055e-09 0)
(8.89976e-11 -4.82174e-09 0)
(-7.17891e-11 -2.01931e-09 0)
(2.50084e-11 -2.06839e-09 0)
(3.23636e-11 -2.058e-09 0)
(7.20982e-09 3.87296e-08 0)
(-2.86541e-10 -2.54125e-09 0)
(-2.14723e-10 -2.37504e-09 0)
(-6.26834e-11 -1.91925e-09 0)
(-1.38651e-11 -2.03219e-09 0)
(1.07127e-10 -2.1254e-09 0)
(4.44068e-11 -1.91742e-09 0)
(1.90379e-10 -2.25294e-09 0)
(1.24167e-10 -3.69943e-09 0)
(-8.58645e-11 -2.05522e-09 0)
(-9.21763e-11 -1.79424e-09 0)
(-1.84005e-10 -2.24662e-09 0)
(-1.0159e-10 -3.37383e-09 0)
(2.25602e-11 -1.73192e-09 0)
(1.51043e-10 -3.7124e-09 0)
(7.56171e-11 -1.4806e-09 0)
(-1.29817e-10 -4.7038e-09 0)
(7.31655e-11 -1.18085e-09 0)
(-1.28023e-10 -1.79818e-09 0)
(-1.95286e-12 -3.62489e-09 0)
(8.75381e-11 -1.46009e-09 0)
(-8.47249e-11 -1.82862e-09 0)
(-1.35884e-10 -4.78214e-09 0)
(1.10543e-10 -2.02988e-09 0)
(1.16924e-11 -2.15681e-09 0)
(1.37478e-11 -2.02026e-09 0)
(6.16244e-11 -2.13237e-09 0)
(1.38329e-11 -2.17413e-09 0)
(-2.22772e-11 -1.99974e-09 0)
(6.52372e-11 -1.98237e-09 0)
(0 0 0)
(3.18721e-12 -1.91571e-09 0)
(-2.10217e-10 -1.92467e-09 0)
(-8.4823e-11 -1.84626e-09 0)
(-1.65974e-10 -1.76332e-09 0)
(-7.12641e-11 -2.6779e-09 0)
(-3.25281e-11 -1.07379e-09 0)
(0 0 0)
(0 0 0)
(-7.42535e-11 -4.15641e-09 0)
(7.45227e-11 -1.72281e-09 0)
(1.66176e-10 -1.73969e-09 0)
(-9.95444e-11 -1.91552e-09 0)
(-1.40936e-10 -2.97119e-09 0)
(-6.14375e-11 -9.16904e-10 0)
(-5.44889e-11 -2.06302e-09 0)
(7.45386e-11 -2.02993e-09 0)
(3.95746e-11 -1.94999e-09 0)
(1.31343e-11 -1.93549e-09 0)
(5.64358e-12 -1.94109e-09 0)
(0 0 0)
(0 0 0)
(-3.95036e-11 -1.80462e-09 0)
(-1.46424e-10 -1.83417e-09 0)
(-1.08389e-11 -1.89283e-09 0)
(1.75325e-10 -1.82497e-09 0)
(-1.26218e-12 -1.86759e-09 0)
(-7.15062e-11 -2.20987e-09 0)
(0 0 0)
(5.52409e-11 -1.96729e-09 0)
(-8.40637e-12 -1.87902e-09 0)
(8.35545e-11 -2.93693e-09 0)
(3.70653e-11 -1.71661e-09 0)
(-1.12345e-11 -4.18829e-09 0)
(-1.07401e-11 -1.72505e-09 0)
(-6.1039e-11 -2.03042e-09 0)
(-1.87573e-12 -7.94051e-11 0)
(-3.73295e-11 -1.71078e-09 0)
(2.84665e-10 -4.99065e-09 0)
(-1.75832e-12 -2.0237e-09 0)
(3.83425e-11 -1.7611e-09 0)
(3.51685e-11 -1.92516e-09 0)
(-9.11933e-11 -1.95558e-09 0)
(6.30735e-11 -1.91399e-09 0)
(1.60598e-10 -1.74954e-09 0)
(9.90856e-09 3.57363e-08 0)
(-4.21866e-12 -8.37901e-11 0)
(-1.16976e-10 -2.19869e-09 0)
(1.55057e-12 -2.93339e-09 0)
(2.6363e-12 -2.38466e-09 0)
(2.3548e-11 -2.50259e-09 0)
(8.55787e-11 -1.88015e-09 0)
(2.04648e-11 -3.38607e-09 0)
(-9.98102e-11 -2.83319e-09 0)
(-1.07228e-10 -1.96347e-09 0)
(-1.07086e-10 -1.80518e-09 0)
(9.86961e-12 -1.82216e-09 0)
(-2.7355e-10 -1.58556e-09 0)
(1.90535e-10 -1.84976e-09 0)
(2.06215e-10 -1.81171e-09 0)
(1.51773e-12 -2.00883e-10 0)
(5.34728e-12 -1.30512e-09 0)
(1.99732e-10 -5.62677e-09 0)
(1.77265e-11 -1.78007e-09 0)
(-1.10022e-10 -1.65788e-09 0)
(-1.74049e-10 -1.6131e-09 0)
(-1.38407e-10 -1.84201e-09 0)
(-7.21135e-13 -2.10153e-09 0)
(0 0 0)
(-6.11169e-11 -1.91991e-09 0)
(-1.57697e-10 -1.88553e-09 0)
(-2.46851e-10 -1.56881e-09 0)
(4.06764e-12 -1.83054e-09 0)
(-3.45404e-11 -1.77019e-09 0)
(1.98443e-11 -1.734e-09 0)
(0 0 0)
(-1.28721e-11 -2.04415e-09 0)
(3.09814e-12 -1.97496e-09 0)
(0 0 0)
(0 0 0)
(0 0 0)
(3.16134e-11 -1.99474e-09 0)
(-1.54467e-11 -1.77352e-09 0)
(-2.61994e-10 -1.94681e-09 0)
(-1.20723e-10 -4.0522e-09 0)
(2.91867e-11 -1.79632e-09 0)
(4.11149e-11 -2.00723e-09 0)
(-8.37811e-11 -2.0243e-09 0)
(-1.38033e-10 -1.98294e-09 0)
(-1.62779e-10 -1.98333e-09 0)
(1.17878e-10 -1.97001e-09 0)
(-1.46534e-11 -1.98131e-09 0)
(-2.49205e-11 -1.93071e-09 0)
(-4.64027e-11 -1.90726e-09 0)
(-1.05497e-10 -1.9144e-09 0)
(5.7014e-11 -1.91996e-09 0)
(1.4237e-11 -1.80636e-09 0)
(-1.3247e-10 -1.84358e-09 0)
(-8.39187e-11 -1.77874e-09 0)
(-4.50752e-11 -1.69369e-09 0)
(4.23162e-11 -2.04301e-09 0)
(-6.17946e-11 -1.77443e-09 0)
(4.30456e-12 -7.93024e-10 0)
(4.55743e-12 -8.0467e-10 0)
(1.2948e-10 -1.95685e-09 0)
(1.26995e-10 -1.92247e-09 0)
(3.39039e-11 -1.93732e-09 0)
(-1.41268e-10 -2.34959e-09 0)
(-1.82334e-10 -2.09565e-09 0)
(-2.52904e-10 -1.76331e-09 0)
(-1.43892e-10 -1.82791e-09 0)
(-2.96547e-11 -1.82107e-09 0)
(2.19876e-11 -1.7429e-09 0)
(1.14669e-10 -5.18217e-09 0)
(5.7549e-11 -2.19104e-09 0)
(0 0 0)
(9.66407e-11 -4.76479e-09 0)
(1.05215e-10 -1.85501e-09 0)
(5.39385e-11 -1.83913e-09 0)
(-4.43601e-11 -8.30274e-10 0)
(1.06078e-08 2.99349e-08 0)
(-6.48947e-11 -2.45834e-09 0)
(-3.36404e-11 -4.85868e-10 0)
(-4.8781e-11 -5.95002e-10 0)
(-1.11651e-10 -2.25581e-09 0)
(1.22237e-10 -3.9444e-09 0)
(3.91214e-11 -1.82655e-09 0)
(-5.18613e-11 -1.96054e-09 0)
(-1.66188e-10 -3.17443e-09 0)
(-6.31256e-11 -1.74397e-09 0)
(-6.27847e-11 -1.03446e-09 0)
(-3.04289e-11 -1.89324e-09 0)
(1.43367e-10 -4.27705e-09 0)
(0 0 0)
(9.16928e-11 -1.91387e-09 0)
(1.16863e-10 -1.85409e-09 0)
(4.6234e-11 -1.98634e-09 0)
(-1.23793e-11 -1.96868e-09 0)
(2.18187e-11 -1.87346e-09 0)
(-2.66174e-11 -1.99685e-09 0)
(-8.41454e-11 -2.19287e-09 0)
(-5.98924e-11 -1.5912e-09 0)
(6.2589e-11 -2.02847e-09 0)
(-8.43568e-11 -2.03463e-09 0)
(-6.77587e-11 -1.89207e-09 0)
(-1.03408e-10 -1.88204e-09 0)
(-6.3188e-11 -1.86344e-09 0)
(-6.60673e-11 -2.22872e-09 0)
(0 0 0)
(-6.94116e-11 -1.77569e-09 0)
(1.12654e-10 -1.8307e-09 0)
(1.03754e-10 -1.90917e-09 0)
(1.04115e-10 -1.97301e-09 0)
(1.57725e-10 -1.9098e-09 0)
(1.52971e-10 -1.89256e-09 0)
(1.45061e-10 -1.92057e-09 0)
(4.05983e-10 -4.64285e-09 0)
(1.1895e-10 -1.84757e-09 0)
(1.66974e-10 -1.95049e-09 0)
(-1.12307e-10 -1.77366e-09 0)
(4.7425e-11 -1.73924e-09 0)
(2.32966e-11 -2.08525e-09 0)
(-1.24463e-10 -2.19548e-09 0)
(-9.5124e-11 -2.01679e-09 0)
(5.81404e-11 -1.89139e-09 0)
(-3.9021e-11 -1.84555e-09 0)
(-6.9539e-11 -1.89565e-09 0)
(-4.01848e-11 -1.9436e-09 0)
(0 0 0)
(0 0 0)
(1.36044e-12 -1.88911e-09 0)
(-1.08334e-10 -4.05667e-09 0)
(-6.42539e-11 -1.88401e-09 0)
(-1.81405e-10 -1.76206e-09 0)
(-1.22708e-10 -1.68806e-09 0)
(-1.14257e-11 -1.84415e-09 0)
(2.82536e-11 -2.00991e-09 0)
(7.96068e-11 -2.38326e-09 0)
(0 0 0)
(1.1944e-10 -1.64349e-09 0)
(3.11705e-10 -1.88716e-09 0)
(5.4891e-11 -2.10148e-09 0)
(-1.50614e-10 -2.22334e-09 0)
(-6.41245e-11 -2.05112e-09 0)
(7.47191e-12 -1.84189e-09 0)
(3.33094e-12 -1.8139e-09 0)
(-4.70408e-11 -1.77486e-09 0)
(1.06687e-12 -1.92783e-09 0)
(-1.84406e-10 -4.61127e-09 0)
(1.68679e-10 -2.38775e-09 0)
(0 0 0)
(3.74038e-12 -1.99926e-09 0)
(1.16784e-10 -1.78256e-09 0)
(7.10365e-11 -2.04719e-09 0)
(-4.76922e-11 -2.06382e-09 0)
(5.94294e-09 2.90992e-08 0)
(-8.34239e-11 -1.56352e-09 0)
(1.25549e-10 -2.03627e-09 0)
(9.62503e-11 -2.01479e-09 0)
(6.40408e-11 -2.04462e-09 0)
(-4.73208e-11 -2.53675e-09 0)
(-1.20526e-10 -3.66334e-09 0)
(-4.31918e-11 -1.89728e-09 0)
(-4.19486e-12 -1.82352e-09 0)
(-1.25639e-11 -2.16348e-09 0)
(6.41587e-11 -1.90758e-09 0)
(0 0 0)
(1.84517e-11 -1.83178e-09 0)
(-5.35833e-11 -2.27644e-09 0)
(2.03446e-10 -2.20707e-09 0)
(1.73038e-10 -2.10711e-09 0)
(1.51901e-10 -2.29573e-09 0)
(-1.03291e-11 -2.00209e-09 0)
(-4.23872e-11 -1.92933e-09 0)
(-9.21891e-11 -1.94774e-09 0)
(-1.00821e-10 -1.74375e-09 0)
(-1.72653e-11 -1.78998e-09 0)
(1.71065e-10 -5.02071e-09 0)
(0 0 0)
(3.13112e-11 -1.961e-09 0)
(5.3059e-11 -1.91062e-09 0)
(6.97636e-11 -1.92079e-09 0)
(6.01109e-11 -2.02075e-09 0)
(1.65713e-10 -2.21494e-09 0)
(8.50456e-11 -2.01461e-09 0)
(1.46754e-10 -1.91007e-09 0)
(1.06565e-10 -1.94839e-09 0)
(7.17286e-12 -1.91191e-09 0)
(2.10693e-11 -4.28656e-09 0)
(-7.47791e-12 -1.78493e-09 0)
(-3.72418e-11 -1.84751e-09 0)
(-9.93921e-11 -2.14419e-09 0)
(9.44559e-12 -1.76516e-09 0)
(5.47284e-11 -1.81173e-09 0)
(-1.66571e-10 -1.65569e-09 0)
(-8.57943e-12 -1.60897e-09 0)
(1.02846e-10 -1.84237e-09 0)
(4.22067e-11 -2.09494e-09 0)
(6.95261e-11 -2.14832e-09 0)
(3.38921e-11 -2.12833e-09 0)
(-3.56277e-11 -2.05821e-09 0)
(-1.64554e-10 -2.90434e-09 0)
(-5.96405e-11 -7.97748e-10 0)
(2.15837e-11 -2.05077e-09 0)
(-1.32698e-10 -4.5538e-09 0)
(-9.12543e-11 -3.83416e-09 0)
(3.80497e-11 -1.95464e-09 0)
(-3.22777e-11 -1.84964e-09 0)
(-1.77581e-10 -1.62904e-09 0)
(-3.03335e-11 -1.71251e-09 0)
(2.34411e-11 -7.99723e-10 0)
(6.64603e-11 -1.62826e-09 0)
(2.11203e-10 -3.30382e-09 0)
(4.54474e-11 -1.91694e-09 0)
(0 0 0)
(1.41331e-10 -4.76651e-09 0)
(-2.83168e-11 -2.15881e-09 0)
(3.39183e-11 -1.94633e-09 0)
(6.05784e-11 -1.80145e-09 0)
(2.86402e-11 -1.76358e-09 0)
(-4.4438e-12 -1.91495e-09 0)
(5.8379e-11 -2.01933e-09 0)
(-1.43566e-10 -1.91192e-09 0)
(3.20749e-13 -2.95832e-10 0)
(2.20717e-10 -4.44454e-09 0)
(0 0 0)
(9.70217e-11 -2.1386e-09 0)
(1.76205e-10 -2.12179e-09 0)
(1.32333e-10 -2.17453e-09 0)
(1.02571e-10 -2.02284e-09 0)
(5.86394e-09 3.27967e-08 0)
(5.3874e-10 -4.26875e-09 0)
(2.19839e-10 -2.23979e-09 0)
(1.90086e-10 -2.26735e-09 0)
(9.29907e-11 -2.18668e-09 0)
(-6.66667e-11 -3.18374e-09 0)
(-3.06756e-11 -2.26193e-09 0)
(-3.28608e-12 -2.60145e-10 0)
(-8.08567e-12 -1.9818e-09 0)
(-1.52722e-12 -1.97706e-09 0)
(-5.33003e-12 -1.88564e-09 0)
(5.5957e-11 -1.76561e-09 0)
(-5.31596e-11 -2.12615e-09 0)
(-1.46058e-10 -2.17811e-09 0)
(1.49011e-11 -2.19769e-09 0)
(1.03677e-10 -2.29661e-09 0)
(-2.44633e-11 -1.96827e-09 0)
(3.14498e-11 -1.94138e-09 0)
(-7.82502e-11 -1.85141e-09 0)
(-1.05396e-10 -1.83695e-09 0)
(-1.2432e-10 -1.84465e-09 0)
(-6.41673e-11 -1.89828e-09 0)
(-3.11968e-11 -1.91618e-09 0)
(2.2504e-11 -1.97674e-09 0)
(5.6155e-11 -1.96331e-09 0)
(3.85271e-11 -1.99346e-09 0)
(-1.90467e-11 -2.05275e-09 0)
(-3.30368e-12 -1.96197e-09 0)
(9.51211e-11 -1.89984e-09 0)
(1.2728e-10 -1.92869e-09 0)
(1.18768e-10 -3.69877e-09 0)
(1.46141e-10 -2.41496e-09 0)
(1.46145e-10 -1.8376e-09 0)
(-1.18401e-10 -1.91384e-09 0)
(-1.14579e-10 -1.8282e-09 0)
(-1.08629e-10 -1.89834e-09 0)
(-1.13407e-10 -1.88252e-09 0)
(-6.8865e-11 -1.8966e-09 0)
(-1.02341e-12 -1.80405e-09 0)
(3.19046e-13 -1.70953e-09 0)
(1.57489e-10 -1.79085e-09 0)
(6.69121e-11 -1.88321e-09 0)
(6.50519e-13 -1.90965e-09 0)
(-8.92246e-11 -5.0039e-09 0)
(-2.2543e-11 -1.9002e-09 0)
(-1.10031e-10 -1.77772e-09 0)
(-8.85576e-11 -2.03313e-09 0)
(-1.34229e-10 -1.90713e-09 0)
(-9.77111e-12 -1.82857e-09 0)
(-1.39396e-10 -1.95222e-09 0)
(3.7143e-12 -1.70559e-09 0)
(-2.39061e-11 -1.74493e-09 0)
(1.59373e-11 -7.46283e-10 0)
(1.33957e-11 -5.12902e-10 0)
(-3.00906e-11 -1.77088e-09 0)
(7.85413e-11 -1.85034e-09 0)
(3.35171e-11 -1.86561e-09 0)
(1.17318e-11 -2.06926e-09 0)
(2.14555e-11 -1.98236e-09 0)
(3.08108e-11 -4.34933e-09 0)
(-5.25759e-11 -2.32204e-09 0)
(-1.6194e-11 -2.03211e-09 0)
(2.41319e-11 -1.9125e-09 0)
(5.45172e-11 -1.89282e-09 0)
(1.70196e-10 -1.87605e-09 0)
(6.34983e-11 -1.59747e-09 0)
(-2.85129e-11 -2.09213e-09 0)
(-4.27137e-11 -9.5529e-10 0)
(-1.06313e-11 -2.16371e-10 0)
(-1.13137e-10 -1.81757e-09 0)
(3.59694e-10 -1.99759e-09 0)
(2.35436e-10 -2.67311e-09 0)
(1.04404e-10 -1.08587e-09 0)
(6.5784e-11 -2.14985e-09 0)
(-1.69228e-10 -5.26083e-09 0)
(1.27826e-08 3.12228e-08 0)
(1.39214e-10 -2.41013e-09 0)
(3.61891e-10 -2.18908e-09 0)
(3.80696e-10 -5.57054e-09 0)
(1.54909e-11 -1.53707e-09 0)
(5.54019e-12 -1.93172e-09 0)
(1.475e-11 -8.03725e-10 0)
(9.78672e-12 -7.06332e-10 0)
(-8.71192e-11 -2.06284e-09 0)
(-3.98884e-11 -2.13123e-09 0)
(-2.20496e-11 -1.80033e-09 0)
(-2.29494e-11 -1.7989e-09 0)
(-1.81246e-12 -1.86291e-09 0)
(-2.08256e-10 -1.86103e-09 0)
(-2.40436e-10 -1.8228e-09 0)
(-1.99422e-10 -4.99876e-09 0)
(0 0 0)
(8.56522e-11 -1.78318e-09 0)
(2.17082e-11 -1.76525e-09 0)
(-8.12454e-11 -1.78854e-09 0)
(-9.09011e-11 -1.80106e-09 0)
(-6.20036e-11 -1.94395e-09 0)
(2.80552e-12 -1.89232e-09 0)
(-7.65617e-12 -7.30314e-10 0)
(2.12152e-11 -3.39385e-09 0)
(1.96398e-11 -2.0196e-09 0)
(5.28784e-11 -1.78283e-09 0)
(4.00956e-10 -1.86175e-09 0)
(2.16949e-10 -2.2931e-09 0)
(-4.32543e-12 -2.06514e-09 0)
(1.44082e-10 -3.57186e-09 0)
(1.29551e-10 -2.69656e-09 0)
(-1.94795e-11 -2.09793e-09 0)
(0 0 0)
(8.06168e-11 -2.03752e-09 0)
(2.13206e-10 -3.3081e-09 0)
(-2.56383e-11 -2.59157e-09 0)
(-2.72234e-11 -1.69037e-09 0)
(-3.04294e-11 -1.84204e-09 0)
(-1.89187e-11 -1.84029e-09 0)
(1.0732e-10 -2.13736e-09 0)
(3.05337e-11 -2.02388e-09 0)
(-5.6606e-11 -1.97646e-09 0)
(-9.78706e-11 -2.00697e-09 0)
(-6.01518e-11 -2.12113e-09 0)
(-8.94386e-11 -3.08885e-09 0)
(-4.37364e-11 -7.60538e-10 0)
(-2.05332e-11 -1.94489e-09 0)
(-8.28832e-12 -1.9004e-09 0)
(-8.48566e-12 -4.12452e-10 0)
(-2.3751e-11 -1.1294e-09 0)
(8.63191e-12 -1.88842e-09 0)
(3.19449e-11 -1.89087e-09 0)
(-3.85817e-11 -1.78589e-09 0)
(-3.67264e-11 -1.91018e-09 0)
(2.38652e-11 -1.76631e-09 0)
(-5.42337e-12 -1.87358e-09 0)
(-1.31374e-10 -1.89885e-09 0)
(1.66277e-11 -2.18187e-09 0)
(-2.01881e-11 -2.02611e-09 0)
(-9.7787e-11 -2.02918e-09 0)
(-8.61926e-11 -1.97732e-09 0)
(-4.11833e-11 -1.93317e-09 0)
(6.84076e-12 -1.94417e-09 0)
(2.05138e-10 -1.95388e-09 0)
(9.02176e-11 -1.87811e-09 0)
(-1.75274e-10 -2.18371e-09 0)
(-4.69937e-11 -1.96523e-09 0)
(-9.37505e-11 -3.49203e-09 0)
(1.38314e-10 -2.36657e-09 0)
(9.45468e-11 -1.73369e-09 0)
(1.3534e-10 -1.7486e-09 0)
(-8.12991e-11 -2.26686e-09 0)
(-7.09873e-11 -2.23035e-09 0)
(2.74168e-11 -2.06162e-09 0)
(1.12858e-08 4.10671e-08 0)
(-1.74885e-11 -3.57559e-09 0)
(-6.57773e-12 -1.7732e-09 0)
(1.94411e-10 -1.98321e-09 0)
(1.25895e-10 -1.84835e-09 0)
(6.0786e-11 -1.80878e-09 0)
(6.02737e-11 -2.10651e-09 0)
(-2.1642e-11 -2.22918e-09 0)
(7.82214e-11 -1.90682e-09 0)
(3.93058e-11 -1.76016e-09 0)
(2.53896e-11 -1.78942e-09 0)
(2.88622e-11 -1.76232e-09 0)
(2.6388e-11 -1.85662e-09 0)
(-1.20087e-11 -4.10991e-10 0)
(-1.78632e-10 -3.46763e-09 0)
(-7.2944e-11 -1.9027e-09 0)
(3.00985e-11 -1.97363e-09 0)
(1.25701e-10 -2.03766e-09 0)
(-1.96486e-11 -1.79889e-09 0)
(-1.68402e-14 -7.41034e-12 0)
(-5.80932e-12 -1.71821e-09 0)
(5.72023e-11 -1.88448e-09 0)
(-2.53846e-11 -2.24899e-09 0)
(3.53747e-13 -1.85756e-09 0)
(-7.7318e-11 -2.05744e-09 0)
(-8.39601e-11 -2.1317e-09 0)
(1.36772e-10 -4.69689e-09 0)
(1.09622e-10 -2.05192e-09 0)
(9.83662e-11 -2.18726e-09 0)
(2.38842e-11 -4.51903e-10 0)
(2.00312e-10 -3.69845e-09 0)
(-6.36162e-11 -1.83904e-09 0)
(-9.5057e-11 -1.9876e-09 0)
(8.72546e-12 -3.21768e-10 0)
(5.00934e-11 -1.58398e-09 0)
(1.36547e-10 -2.19621e-09 0)
(2.12382e-13 -2.5627e-09 0)
(-1.04941e-10 -3.11258e-09 0)
(-1.89887e-10 -1.6866e-09 0)
(-3.50108e-11 -1.90038e-09 0)
(9.52794e-11 -1.93805e-09 0)
(1.56695e-11 -1.90485e-09 0)
(-2.34221e-11 -2.00957e-09 0)
(4.93045e-11 -1.9177e-09 0)
(1.64083e-10 -2.16221e-09 0)
(-5.28313e-11 -2.12319e-09 0)
(-4.24944e-11 -5.54129e-10 0)
(-2.03592e-10 -3.86164e-09 0)
(-2.43521e-12 -1.54866e-10 0)
(-2.26364e-11 -1.71964e-09 0)
(-1.45007e-11 -1.86385e-09 0)
(-1.88552e-11 -1.85201e-09 0)
(3.98863e-11 -1.81845e-09 0)
(1.0903e-11 -1.83296e-09 0)
(-4.88346e-11 -1.84885e-09 0)
(-6.56731e-11 -1.8811e-09 0)
(6.50012e-11 -1.93967e-09 0)
(3.74476e-11 -1.91836e-09 0)
(1.09911e-10 -2.31704e-09 0)
(7.24948e-11 -2.01667e-09 0)
(-4.81616e-11 -2.00634e-09 0)
(-3.79004e-11 -1.99143e-09 0)
(1.05455e-10 -1.99093e-09 0)
(4.77024e-12 -1.95755e-09 0)
(1.52167e-11 -2.08428e-09 0)
(-7.4863e-11 -2.27564e-09 0)
(-1.93441e-11 -2.1645e-09 0)
(4.92549e-11 -1.89218e-09 0)
(6.71063e-11 -1.74228e-09 0)
(1.50088e-11 -1.76207e-09 0)
(3.14069e-11 -2.24268e-09 0)
(1.03131e-10 -3.69909e-09 0)
(-1.19151e-10 -2.42169e-09 0)
(3.17983e-11 -2.27203e-09 0)
(1.09175e-10 -1.80875e-09 0)
(3.67685e-09 3.10098e-08 0)
(-7.20834e-11 -1.48423e-09 0)
(2.96259e-10 -1.29709e-09 0)
(1.61359e-10 -2.22343e-09 0)
(7.64139e-11 -1.86443e-09 0)
(1.3111e-11 -1.88893e-09 0)
(-6.38121e-11 -1.96526e-09 0)