/*--------------------------------*- C++ -*----------------------------------*\
  =========                 |
  \\      /  F ield         | OpenFOAM: The Open Source CFD Toolbox
   \\    /   O peration     | Website:  https://openfoam.org
    \\  /    A nd           | Version:  12
     \\/     M anipulation  |
\*---------------------------------------------------------------------------*/
FoamFile
{
    format      ascii;
    class       volScalarField;
    location    "0.2";
    object      p;
}
// * * * * * * * * * * * * * * * * * * * * * * * * * * * * * * * * * * * * * //

dimensions      [0 2 -2 0 0 0 0];

internalField   nonuniform List<scalar> 
3750
(
1.45412
1.44773
1.44214
1.427
1.41853
1.40882
1.39985
1.39182
1.38395
1.37548
1.36655
1.36532
1.35074
1.34808
1.33505
1.32256
1.31123
1.3029
1.29226
1.28186
1.28141
1.26843
1.25729
1.24666
1.23672
1.22901
1.21346
1.20359
1.19422
1.18542
1.1756
1.16676
1.15333
1.1475
1.13652
1.13412
1.11522
1.10278
1.09113
1.08064
1.07043
1.0586
1.04872
1.0392
1.03045
1.01574
1.00765
0.999232
0.990172
0.979505
0.980904
0.969432
0.958072
0.947083
0.936943
0.929825
0.919194
0.905199
0.890508
0.890965
0.879146
0.868494
0.857071
0.845791
0.835336
0.825762
0.817129
0.809479
0.790985
0.794869
0.777878
0.764027
0.753404
0.748564
0.745634
1.45884
1.44486
1.44031
1.42883
1.41916
1.40848
1.39867
1.39191
1.38471
1.37769
1.37388
1.36497
1.35241
1.34378
1.33331
1.32162
1.30977
1.30384
1.29266
1.28781
1.277
1.26594
1.25692
1.24599
1.23491
1.22902
1.21435
1.2021
1.19391
1.18657
1.17495
1.16365
1.15438
1.15286
1.14312
1.12728
1.11528
1.10255
1.09026
1.08034
1.0721
1.05661
1.0483
1.03843
1.02835
1.01685
1.00772
0.999755
0.992125
0.98447
0.978279
0.968743
0.957836
0.946723
0.935207
0.930889
0.920638
0.906233
0.89394
0.887275
0.878203
0.868867
0.856842
0.845165
0.834457
0.824866
0.815886
0.807744
0.796878
0.78686
0.775493
0.765493
0.754868
0.74841
0.743929
1.46599
1.45319
1.44296
1.43063
1.42055
1.40906
1.39699
1.39256
1.38738
1.3835
1.37408
1.36413
1.3517
1.34161
1.33194
1.32118
1.31233
1.30428
1.29488
1.28913
1.27155
1.26171
1.25849
1.24656
1.23617
1.22905
1.21311
1.19882
1.19471
1.18945
1.17319
1.1616
1.15726
1.15518
1.14163
1.12534
1.11846
1.10292
1.08889
1.07687
1.06869
1.05964
1.0495
1.03769
1.02691
1.01673
1.00691
0.999995
0.992816
0.986548
0.977631
0.968274
0.957571
0.947094
0.936886
0.929127
0.918824
0.906659
0.895275
0.886157
0.877931
0.870914
0.856797
0.843409
0.83179
0.823277
0.814186
0.805382
0.795587
0.786202
0.776544
0.766714
0.75533
0.755023
0.741263
1.46786
1.45224
1.44304
1.43162
1.42158
1.41074
1.40194
1.39548
1.38886
1.38192
1.3733
1.3654
1.34868
1.34003
1.33224
1.32039
1.31447
1.30393
1.29512
1.28807
1.27004
1.26179
1.25595
1.24562
1.23636
1.22715
1.21585
1.2023
1.19651
1.18963
1.16879
1.16685
1.15786
1.15066
1.14225
1.12906
1.11646
1.10362
1.0858
1.07198
1.06628
1.06348
1.05047
1.03574
1.02523
1.01733
1.00365
1.00095
0.995477
0.991283
0.978714
0.967725
0.957091
0.947344
0.937827
0.928372
0.918128
0.906136
0.894475
0.885468
0.876806
0.868089
0.855642
0.845097
0.832954
0.822272
0.812689
0.803013
0.792884
0.785366
0.777843
0.770389
0.758907
0.750356
0.739649
1.46922
1.45311
1.44334
1.43114
1.42308
1.41229
1.40617
1.39778
1.391
1.38063
1.37163
1.36225
1.34939
1.33897
1.33553
1.32426
1.31069
1.30037
1.2936
1.28656
1.26894
1.26679
1.25505
1.24209
1.23569
1.22441
1.22055
1.20713
1.19808
1.18893
1.17175
1.16568
1.15641
1.14807
1.13938
1.12854
1.11848
1.10526
1.0888
1.07463
1.06111
1.06163
1.04091
1.03395
1.01652
1.02014
1.00675
1.00499
0.996248
0.988177
0.977615
0.966749
0.955826
0.948131
0.938136
0.928314
0.918678
0.905237
0.89229
0.884486
0.875873
0.867662
0.854521
0.847049
0.832293
0.820391
0.811861
0.801113
0.788762
0.784896
0.778725
0.775949
0.760406
0.748371
0.739955
1.47195
1.45462
1.44334
1.42851
1.42563
1.41085
1.40946
1.39806
1.38494
1.37803
1.37034
1.36276
1.34955
1.34164
1.33521
1.32152
1.30887
1.29978
1.29226
1.28344
1.27371
1.2661
1.25392
1.23768
1.23486
1.2291
1.2187
1.20824
1.20038
1.18527
1.17742
1.16423
1.15406
1.14601
1.13763
1.12721
1.11591
1.1031
1.09051
1.07835
1.06687
1.05556
1.04327
1.03257
1.01903
1.01882
1.01464
1.00485
0.995769
0.986652
0.976655
0.965892
0.952872
0.948952
0.938082
0.928154
0.912466
0.906856
0.890357
0.884302
0.875381
0.866088
0.854022
0.844191
0.833799
0.822614
0.813126
0.800938
0.791181
0.785685
0.7762
0.771965
0.760059
0.749489
0.740118
1.4727
1.45462
1.44449
1.43298
1.42535
1.41418
1.40828
1.40015
1.38512
1.3763
1.36921
1.3572
1.34565
1.34374
1.33362
1.32034
1.30307
1.29799
1.2925
1.28159
1.26697
1.25677
1.25094
1.24079
1.23554
1.22696
1.21623
1.20696
1.19782
1.18671
1.17649
1.16521
1.15472
1.14568
1.13617
1.12643
1.11437
1.10349
1.09206
1.08131
1.06159
1.05195
1.04396
1.0344
1.02335
1.01911
1.01358
1.00532
0.995355
0.98582
0.976481
0.967993
0.951939
0.946076
0.936627
0.927155
0.913873
0.901513
0.886314
0.88549
0.874785
0.865165
0.852895
0.841888
0.835072
0.823943
0.817535
0.799452
0.791377
0.786378
0.775191
0.765776
0.761768
0.750831
0.740568
1.48005
1.46819
1.44604
1.4357
1.42616
1.41473
1.4098
1.40273
1.38486
1.37416
1.37142
1.36263
1.34692
1.3414
1.33303
1.31874
1.29778
1.29543
1.29741
1.28279
1.26805
1.25664
1.24705
1.24435
1.23596
1.22497
1.21361
1.20583
1.19726
1.18741
1.17581
1.16551
1.15541
1.14573
1.13632
1.12783
1.11157
1.10295
1.09286
1.08115
1.06444
1.05354
1.04517
1.03823
1.02356
1.01936
1.01283
1.00498
0.994825
0.98491
0.975547
0.965828
0.954464
0.944915
0.934785
0.924065
0.911336
0.897886
0.892559
0.883578
0.873642
0.865434
0.850523
0.837555
0.838565
0.823396
0.821099
0.799848
0.788749
0.788096
0.774561
0.765332
0.760942
0.751112
0.740838
1.4851
1.47286
1.4573
1.44126
1.42871
1.41165
1.41135
1.4026
1.38375
1.38077
1.3691
1.36111
1.35028
1.34049
1.33207
1.32269
1.30722
1.30047
1.30018
1.28415
1.26756
1.2566
1.24776
1.24284
1.23438
1.22371
1.21293
1.20424
1.19807
1.1889
1.17519
1.16561
1.15572
1.14568
1.13549
1.12523
1.11309
1.10374
1.09493
1.07907
1.06537
1.0525
1.04521
1.03828
1.02886
1.02197
1.01333
1.00401
0.994197
0.984105
0.97515
0.96552
0.955128
0.944416
0.933413
0.922015
0.910295
0.900584
0.889605
0.880856
0.870863
0.860948
0.847943
0.843181
0.84025
0.827262
0.817585
0.802376
0.78776
0.787526
0.776098
0.764545
0.762094
0.751663
0.742643
1.48736
1.47222
1.46719
1.44462
1.43495
1.41732
1.40707
1.40104
1.39204
1.38101
1.3689
1.36051
1.35214
1.33909
1.33093
1.32173
1.31175
1.30255
1.29615
1.28613
1.26944
1.25456
1.24702
1.24172
1.23286
1.22273
1.21239
1.20156
1.19991
1.18858
1.17672
1.16601
1.15579
1.14621
1.13482
1.1245
1.11336
1.10258
1.09185
1.07941
1.06667
1.05024
1.04564
1.03993
1.03569
1.02515
1.01397
1.00253
0.993778
0.984156
0.97533
0.965876
0.956028
0.94422
0.932508
0.92051
0.907881
0.895384
0.892177
0.87943
0.868107
0.859993
0.851518
0.846251
0.838843
0.827913
0.817497
0.80558
0.784865
0.781746
0.779755
0.767055
0.758544
0.748789
0.739329
1.48423
1.47195
1.46304
1.44814
1.43746
1.42574
1.40513
1.40142
1.39144
1.37909
1.37556
1.36054
1.35108
1.33992
1.33039
1.32126
1.3124
1.30309
1.29368
1.2826
1.27011
1.25714
1.24611
1.24258
1.2316
1.22219
1.213
1.20362
1.1971
1.18792
1.17753
1.1659
1.15558
1.14744
1.13455
1.12457
1.11311
1.10138
1.09005
1.07851
1.06697
1.05447
1.04688
1.04043
1.0372
1.02814
1.0142
0.998291
0.99429
0.986803
0.976005
0.966497
0.958163
0.94381
0.932064
0.921364
0.907189
0.892397
0.892017
0.876622
0.862899
0.860388
0.853269
0.849835
0.838431
0.827663
0.816466
0.806419
0.791394
0.777174
0.778325
0.766649
0.754588
0.745539
0.736749
1.48266
1.47049
1.46167
1.44878
1.44029
1.42906
1.41053
1.39799
1.39156
1.3821
1.37423
1.36215
1.35136
1.34044
1.33
1.32022
1.31339
1.3037
1.29332
1.28177
1.26972
1.25836
1.24828
1.24059
1.22879
1.22146
1.21398
1.20461
1.19653
1.18834
1.17959
1.16253
1.15435
1.1491
1.13672
1.12595
1.11304
1.09978
1.08851
1.07768
1.06696
1.05687
1.04758
1.03827
1.03891
1.02556
1.01377
0.997657
0.997774
0.987152
0.975383
0.965794
0.958374
0.941032
0.930933
0.918392
0.907626
0.896624
0.889439
0.878335
0.863978
0.862509
0.852466
0.846186
0.836357
0.826958
0.81335
0.812445
0.792744
0.781617
0.774627
0.766183
0.748617
0.742537
0.734055
1.48277
1.46924
1.46027
1.44668
1.44263
1.42704
1.41303
1.39929
1.39468
1.38432
1.37391
1.36274
1.35172
1.34065
1.32948
1.31764
1.31554
1.30477
1.29429
1.28158
1.26872
1.25844
1.24895
1.24138
1.22345
1.22087
1.21551
1.20346
1.1961
1.18942
1.17794
1.15978
1.15565
1.15264
1.13825
1.12919
1.11251
1.09829
1.0866
1.07679
1.06709
1.05741
1.04831
1.04038
1.03605
1.02818
1.01129
1.00011
0.997751
0.988852
0.97285
0.964383
0.954696
0.942496
0.932015
0.917787
0.90834
0.898447
0.889648
0.879484
0.868553
0.861974
0.851945
0.843494
0.834002
0.82345
0.815327
0.811047
0.79894
0.78338
0.772024
0.762067
0.744354
0.742952
0.736635
1.48569
1.46871
1.45976
1.44861
1.43953
1.4251
1.40936
1.4034
1.40068
1.38631
1.37444
1.36323
1.35249
1.34305
1.32994
1.31856
1.31369
1.30533
1.29657
1.28287
1.26581
1.25802
1.24901
1.23973
1.22888
1.2234
1.21056
1.19732
1.19492
1.19281
1.1715
1.1662
1.15678
1.15214
1.13498
1.12829
1.11564
1.09771
1.08426
1.07613
1.06728
1.05717
1.04885
1.04043
1.03278
1.02712
1.01554
0.999043
1.00135
0.984642
0.974211
0.964224
0.953601
0.942514
0.931725
0.919164
0.908309
0.898405
0.891282
0.879738
0.870205
0.861229
0.851721
0.842542
0.832138
0.819523
0.815706
0.812505
0.797161
0.785809
0.775374
0.759174
0.745865
0.745745
0.736781
1.49183
1.4663
1.4596
1.44933
1.4379
1.42499
1.41216
1.40424
1.39754
1.38585
1.37441
1.36325
1.35207
1.34139
1.33382
1.32151
1.31196
1.30628
1.29675
1.28094
1.26769
1.25934
1.24964
1.23975
1.22998
1.22126
1.21062
1.19963
1.19339
1.18809
1.17621
1.16634
1.15549
1.14972
1.13286
1.1228
1.12025
1.1005
1.08255
1.07541
1.0678
1.05576
1.04997
1.03935
1.0308
1.02624
1.0186
1.00471
0.997345
0.98572
0.975254
0.964451
0.953232
0.942001
0.932832
0.919149
0.907669
0.896382
0.895468
0.8769
0.8713
0.861161
0.851263
0.842921
0.833072
0.821497
0.815445
0.808728
0.795721
0.784577
0.773487
0.761194
0.750451
0.744075
0.734746
1.48953
1.4686
1.46087
1.45222
1.43847
1.42512
1.41099
1.40388
1.39506
1.38468
1.37418
1.36343
1.35241
1.34062
1.33839
1.32198
1.30903
1.30841
1.29581
1.28095
1.27075
1.26085
1.25029
1.23984
1.2299
1.22108
1.21104
1.20094
1.19239
1.18298
1.17844
1.16547
1.15393
1.14527
1.13483
1.12375
1.11676
1.10023
1.08337
1.07551
1.06707
1.05521
1.05349
1.03865
1.03878
1.02636
1.01421
1.00536
0.995771
0.985533
0.9757
0.965373
0.952968
0.939653
0.934861
0.918582
0.907321
0.897929
0.89282
0.873746
0.87474
0.861391
0.849243
0.844828
0.835965
0.820543
0.814705
0.808412
0.792389
0.783219
0.772928
0.761807
0.751544
0.74287
0.730856
1.49414
1.46442
1.4605
1.4492
1.43809
1.42571
1.41412
1.40518
1.39447
1.38384
1.37429
1.364
1.35345
1.34372
1.33848
1.32013
1.30898
1.30754
1.29566
1.28338
1.27259
1.26226
1.2507
1.23939
1.2286
1.22216
1.21152
1.20066
1.19246
1.18468
1.17445
1.16376
1.15217
1.14297
1.12877
1.12629
1.1135
1.10002
1.0869
1.07628
1.06635
1.05557
1.05654
1.03995
1.03529
1.02595
1.01566
1.00603
0.995264
0.985543
0.976255
0.968294
0.9542
0.941787
0.93214
0.917349
0.906474
0.898958
0.890262
0.876594
0.87244
0.855641
0.851069
0.848669
0.833691
0.822996
0.814251
0.805135
0.79372
0.78335
0.7732
0.761649
0.750913
0.745082
0.729576
1.4864
1.4675
1.4644
1.44719
1.43823
1.42551
1.41416
1.40572
1.39357
1.38406
1.37525
1.36489
1.35445
1.34446
1.3349
1.32262
1.31221
1.30484
1.2949
1.28442
1.27453
1.2636
1.25122
1.24029
1.22451
1.22468
1.21217
1.19982
1.19209
1.18423
1.17679
1.16283
1.14825
1.13466
1.13422
1.12499
1.11203
1.09981
1.08809
1.07653
1.06487
1.06242
1.05212
1.04205
1.03487
1.02675
1.01685
1.00782
0.994447
0.985541
0.975638
0.965464
0.953605
0.9422
0.931428
0.920153
0.908907
0.900568
0.892019
0.881939
0.867626
0.856183
0.850493
0.844399
0.832897
0.823465
0.814138
0.804532
0.794174
0.784202
0.764778
0.76027
0.754527
0.744464
0.735027
1.47896
1.46866
1.46298
1.45183
1.44045
1.4268
1.41105
1.40483
1.39204
1.38789
1.37672
1.36576
1.35503
1.34424
1.33398
1.32335
1.31332
1.30378
1.29439
1.28542
1.27747
1.26131
1.25079
1.23951
1.22863
1.22215
1.21193
1.20069
1.19169
1.18265
1.17294
1.16256
1.14485
1.13957
1.13659
1.12278
1.10899
1.10028
1.08902
1.07773
1.06735
1.06308
1.04659
1.04109
1.0354
1.02961
1.01852
1.00695
0.995838
0.985595
0.975191
0.964382
0.952722
0.941666
0.931438
0.920886
0.909228
0.902847
0.894974
0.880154
0.867537
0.858611
0.85023
0.841042
0.830971
0.823848
0.814231
0.804142
0.794154
0.782401
0.768823
0.76071
0.750785
0.74424
0.736178
1.47847
1.46383
1.46255
1.45661
1.43789
1.42439
1.41205
1.40862
1.39659
1.38769
1.37704
1.36635
1.35546
1.34343
1.33327
1.32344
1.31345
1.30334
1.29372
1.28608
1.27509
1.26271
1.25148
1.24016
1.22965
1.22054
1.21091
1.20073
1.19119
1.18162
1.16992
1.1586
1.15414
1.14354
1.13506
1.1213
1.10373
1.10208
1.08987
1.07836
1.06651
1.06062
1.04623
1.04077
1.03585
1.03384
1.02018
1.00665
0.996473
0.98592
0.975152
0.964072
0.951286
0.940562
0.931796
0.922053
0.905313
0.904471
0.8929
0.881937
0.870214
0.860371
0.850649
0.8404
0.828771
0.826462
0.814462
0.803384
0.792467
0.78366
0.76888
0.762499
0.756471
0.745553
0.734498
1.48018
1.46552
1.46094
1.4506
1.44023
1.42265
1.41688
1.40961
1.3983
1.38733
1.37668
1.36724
1.357
1.34095
1.33247
1.3237
1.31425
1.30388
1.29201
1.28798
1.27395
1.26306
1.25241
1.23998
1.22971
1.22017
1.21028
1.20031
1.19092
1.18283
1.16707
1.16205
1.15552
1.14442
1.13519
1.11847
1.10754
1.10024
1.09019
1.08033
1.06173
1.05939
1.05351
1.04019
1.0325
1.02888
1.02167
1.00869
0.997489
0.986473
0.97564
0.965761
0.948114
0.93829
0.933373
0.918241
0.90937
0.904267
0.892124
0.883034
0.871287
0.861944
0.851729
0.841079
0.830899
0.823661
0.813561
0.802094
0.787255
0.781793
0.771911
0.764543
0.755152
0.747776
0.740282
1.48423
1.46708
1.46052
1.44583
1.43668
1.42358
1.42298
1.41242
1.39846
1.38603
1.37522
1.36916
1.35245
1.3424
1.33156
1.32508
1.3157
1.30549
1.29511
1.28455
1.2712
1.26321
1.25535
1.23778
1.22936
1.2202
1.20993
1.19932
1.18952
1.17959
1.16925
1.16591
1.15501
1.14305
1.13732
1.11777
1.10862
1.09965
1.08978
1.07915
1.06732
1.06071
1.05337
1.04192
1.02416
1.02479
1.02407
1.01101
0.998208
0.986946
0.975724
0.964926
0.948697
0.932224
0.931419
0.91983
0.912256
0.903293
0.893206
0.884916
0.871439
0.863011
0.853228
0.841445
0.831191
0.822579
0.813606
0.799427
0.787145
0.775662
0.772254
0.767474
0.752746
0.749273
0.748133
1.48948
1.46489
1.45819
1.4457
1.4366
1.42744
1.42201
1.40647
1.39676
1.3872
1.37723
1.36965
1.35249
1.345
1.32882
1.32718
1.31776
1.30782
1.29634
1.28344
1.27121
1.26318
1.25446
1.23865
1.22988
1.2214
1.20989
1.19786
1.18836
1.17828
1.17556
1.16443
1.15427
1.13899
1.13846
1.11907
1.10963
1.10018
1.0903
1.08019
1.0702
1.06155
1.05194
1.0383
1.02584
1.02263
1.01771
1.0116
0.997275
0.987774
0.975585
0.962715
0.949488
0.936507
0.927987
0.916147
0.914196
0.902041
0.894323
0.885051
0.874412
0.865282
0.856441
0.84197
0.831108
0.821942
0.811894
0.800076
0.788304
0.774881
0.774678
0.766827
0.754286
0.74864
0.742506
1.49098
1.46403
1.45942
1.4436
1.43636
1.42859
1.41728
1.40646
1.39629
1.38739
1.3776
1.36786
1.35492
1.34498
1.33424
1.32713
1.31944
1.31156
1.2953
1.27983
1.26936
1.26395
1.25327
1.24021
1.23011
1.22564
1.20935
1.19601
1.18842
1.18036
1.17406
1.16509
1.15308
1.14003
1.13277
1.12349
1.11111
1.10111
1.09108
1.08115
1.07166
1.06282
1.05432
1.03532
1.03307
1.02201
1.0112
1.00405
0.991934
0.989761
0.975763
0.962704
0.95024
0.938497
0.927738
0.916088
0.912577
0.899073
0.894072
0.885607
0.876732
0.868905
0.858601
0.844152
0.830508
0.821101
0.811054
0.802343
0.786992
0.780304
0.774043
0.763277
0.755848
0.748271
0.739866
1.49
1.46521
1.46062
1.4431
1.43626
1.4275
1.4162
1.40606
1.39594
1.38665
1.37779
1.36932
1.35547
1.34589
1.336
1.32619
1.32065
1.31164
1.29319
1.27928
1.2691
1.26644
1.25368
1.24159
1.2255
1.22771
1.21095
1.19567
1.18905
1.18292
1.16802
1.16748
1.15338
1.14441
1.12831
1.12679
1.11124
1.10222
1.09186
1.08171
1.07239
1.06363
1.05389
1.04084
1.03299
1.02174
1.00954
1.00147
0.990532
0.988138
0.975007
0.962154
0.950309
0.939534
0.929653
0.919237
0.910548
0.899546
0.889088
0.884225
0.877915
0.873
0.857432
0.845842
0.831655
0.819615
0.808917
0.799544
0.788411
0.777754
0.774534
0.765788
0.758285
0.748728
0.738298
1.4836
1.46653
1.45803
1.44566
1.4373
1.42715
1.4166
1.40578
1.39467
1.38449
1.37758
1.3705
1.35728
1.3469
1.33744
1.32531
1.3241
1.30886
1.29248
1.27985
1.27132
1.26442
1.25315
1.24008
1.22886
1.22189
1.21028
1.19853
1.18941
1.18097
1.17133
1.16529
1.15462
1.14489
1.13442
1.12841
1.1108
1.10329
1.09246
1.08153
1.07289
1.06636
1.0513
1.04158
1.03182
1.02103
1.01199
1.00225
0.99255
0.98442
0.97331
0.960748
0.949292
0.939695
0.932526
0.921334
0.909967
0.900331
0.890861
0.883707
0.876703
0.868857
0.85593
0.849415
0.832566
0.816678
0.805509
0.798614
0.789952
0.78052
0.770331
0.766477
0.761772
0.749511
0.738629
1.48089
1.46883
1.45442
1.44766
1.43817
1.42745
1.41688
1.40597
1.39281
1.38045
1.37742
1.3754
1.35668
1.34716
1.33724
1.32622
1.31885
1.30708
1.29415
1.28236
1.27243
1.2628
1.25382
1.23999
1.23026
1.22019
1.20949
1.19891
1.18918
1.18034
1.17215
1.1644
1.15577
1.1463
1.13689
1.12635
1.11379
1.10633
1.09189
1.08066
1.07246
1.06423
1.05292
1.04244
1.03194
1.02077
1.01507
1.00393
0.993646
0.983458
0.973142
0.95826
0.946382
0.938395
0.937749
0.923532
0.909838
0.901049
0.892367
0.884448
0.876008
0.867591
0.848641
0.848034
0.8322
0.81353
0.808002
0.799334
0.792408
0.784718
0.773397
0.767205
0.757746
0.749096
0.738778
1.47935
1.46532
1.45735
1.44747
1.4386
1.42764
1.41723
1.40711
1.3938
1.38121
1.37583
1.3683
1.35926
1.34824
1.33747
1.32695
1.3169
1.306
1.29447
1.28323
1.27318
1.26345
1.25309
1.24154
1.23033
1.21914
1.20861
1.19824
1.18827
1.17901
1.17237
1.1645
1.15809
1.14783
1.14025
1.12637
1.11204
1.10431
1.09355
1.08274
1.07333
1.06397
1.0537
1.04345
1.03345
1.02582
1.01213
1.00408
0.994483
0.98271
0.971693
0.959762
0.94061
0.939379
0.938098
0.924381
0.911303
0.90166
0.893068
0.885324
0.875432
0.86555
0.847309
0.846469
0.833543
0.81693
0.803715
0.798386
0.795655
0.792353
0.773755
0.765321
0.754842
0.749076
0.737783
1.47543
1.46446
1.45872
1.44609
1.4394
1.42779
1.4171
1.40548
1.39852
1.38202
1.37731
1.36234
1.36115
1.34874
1.33737
1.32661
1.31618
1.30562
1.29473
1.28395
1.27365
1.26402
1.25255
1.24252
1.2302
1.21756
1.20764
1.19746
1.18713
1.17656
1.17331
1.16403
1.16366
1.14678
1.13794
1.12679
1.11525
1.10531
1.09496
1.0842
1.07425
1.06462
1.05445
1.04434
1.03453
1.02513
1.01468
1.00569
0.997009
0.982012
0.970383
0.956994
0.942759
0.940504
0.933029
0.929556
0.910403
0.901172
0.892714
0.888255
0.873893
0.861935
0.851828
0.844179
0.833386
0.819773
0.807979
0.796975
0.796798
0.786648
0.777551
0.765292
0.752857
0.752881
0.735112
1.48008
1.46297
1.45732
1.44434
1.44335
1.4267
1.41775
1.40742
1.3983
1.38674
1.37697
1.3671
1.36146
1.34793
1.3367
1.32597
1.31562
1.30556
1.29485
1.28435
1.27413
1.26499
1.25182
1.2445
1.23048
1.21575
1.20701
1.1967
1.18625
1.17624
1.17279
1.16229
1.16099
1.14862
1.13811
1.12741
1.11681
1.10666
1.09664
1.08531
1.07505
1.06546
1.05508
1.04499
1.03502
1.02532
1.01557
1.00672
0.999549
0.983876
0.968452
0.955752
0.941018
0.940308
0.938586
0.922912
0.911307
0.900351
0.889267
0.887862
0.875614
0.862886
0.85257
0.84283
0.833327
0.820865
0.809278
0.800585
0.792716
0.778839
0.777815
0.770508
0.756497
0.749268
0.736949
1.48131
1.46533
1.45595
1.44628
1.44086
1.42697
1.41845
1.40884
1.40036
1.38257
1.37709
1.36979
1.3657
1.34591
1.33548
1.32484
1.31478
1.30488
1.29474
1.28434
1.27418
1.26297
1.25274
1.24513
1.23235
1.21524
1.20651
1.19609
1.1851
1.17522
1.17256
1.17026
1.15476
1.14812
1.13851
1.12809
1.11794
1.1079
1.09883
1.08567
1.07458
1.06704
1.05545
1.0456
1.03543
1.02537
1.0155
1.00612
0.99708
0.987329
0.971618
0.957205
0.944656
0.940582
0.934492
0.922825
0.911549
0.900156
0.890127
0.887213
0.874837
0.863535
0.852713
0.841895
0.834321
0.821828
0.804389
0.800445
0.791614
0.784353
0.785065
0.764576
0.760009
0.74683
0.735848
1.47999
1.46582
1.4531
1.4462
1.44475
1.4288
1.41899
1.40913
1.39968
1.39015
1.37849
1.36899
1.35785
1.34616
1.33471
1.32318
1.31377
1.30448
1.2948
1.28425
1.27547
1.25984
1.25168
1.24354
1.23235
1.21848
1.20771
1.1962
1.18395
1.1802
1.17192
1.16528
1.15305
1.15007
1.13938
1.12849
1.11895
1.10948
1.10021
1.09026
1.07144
1.06931
1.05574
1.04649
1.03573
1.02515
1.01491
1.00524
0.995377
0.984492
0.971246
0.958207
0.953603
0.94323
0.93345
0.922799
0.912319
0.900369
0.895277
0.884788
0.873468
0.863307
0.854511
0.840231
0.833372
0.826993
0.804369
0.802721
0.791704
0.784911
0.785613
0.765855
0.759069
0.741767
0.73158
1.48359
1.46045
1.45361
1.44591
1.44273
1.43126
1.41957
1.40917
1.39939
1.38967
1.37825
1.36953
1.36171
1.34619
1.33475
1.31963
1.31252
1.30438
1.29448
1.2842
1.27018
1.2607
1.25057
1.24447
1.23523
1.21881
1.2099
1.19833
1.18644
1.17988
1.16944
1.16389
1.15353
1.15003
1.13857
1.12736
1.11996
1.11082
1.10112
1.09241
1.07568
1.06685
1.05709
1.04765
1.03592
1.02465
1.01392
1.00451
0.994813
0.984138
0.971892
0.961746
0.954101
0.945193
0.93361
0.923343
0.914241
0.906532
0.893586
0.882319
0.874466
0.861851
0.861275
0.844163
0.831214
0.821806
0.807906
0.801504
0.792447
0.785788
0.78272
0.765882
0.75529
0.742007
0.730188
1.48031
1.4629
1.45501
1.44337
1.44383
1.43344
1.41889
1.40862
1.39915
1.39093
1.37531
1.3692
1.36116
1.346
1.33464
1.31947
1.31232
1.30443
1.29195
1.28165
1.27178
1.26273
1.24583
1.24498
1.2348
1.22304
1.21379
1.20111
1.18851
1.18039
1.16597
1.16321
1.15971
1.14676
1.13592
1.12392
1.1207
1.11272
1.10111
1.09054
1.07848
1.06749
1.05886
1.05113
1.03537
1.0238
1.01212
1.00402
0.99481
0.985466
0.972882
0.960023
0.956434
0.949654
0.932882
0.923851
0.913942
0.906407
0.893903
0.883495
0.875852
0.863013
0.857478
0.844326
0.828119
0.824353
0.810017
0.801012
0.792386
0.782258
0.779946
0.766743
0.754963
0.741467
0.732411
1.48112
1.46336
1.45631
1.44351
1.44287
1.4281
1.42322
1.40801
1.39822
1.3879
1.37569
1.36746
1.35716
1.3464
1.33432
1.32261
1.31302
1.30341
1.29187
1.28154
1.27132
1.26107
1.24908
1.24066
1.23718
1.22562
1.21654
1.20393
1.19154
1.18127
1.16997
1.16391
1.15782
1.14594
1.13368
1.12241
1.11499
1.11785
1.10005
1.0902
1.07951
1.06911
1.05967
1.05089
1.03163
1.02775
1.01315
1.00455
0.995152
0.986843
0.974767
0.961533
0.951836
0.9502
0.936359
0.92523
0.911641
0.909822
0.892139
0.883473
0.873889
0.86533
0.857225
0.842415
0.829309
0.821112
0.808334
0.804465
0.793514
0.783332
0.773757
0.767258
0.754902
0.740263
0.739553
1.48145
1.4651
1.46031
1.44606
1.43765
1.4283
1.42022
1.40794
1.39744
1.38679
1.37362
1.36229
1.35837
1.34553
1.33416
1.32377
1.31344
1.3031
1.292
1.28133
1.27089
1.26122
1.25009
1.24298
1.23341
1.22951
1.21798
1.2066
1.19378
1.18167
1.17221
1.1644
1.15653
1.14488
1.13217
1.11842
1.11577
1.11551
1.10202
1.09083
1.08023
1.06991
1.05961
1.04901
1.0383
1.02422
1.0141
1.00455
0.995314
0.985485
0.978339
0.967653
0.952353
0.947637
0.936535
0.927186
0.913609
0.903139
0.893023
0.884504
0.87212
0.86671
0.857028
0.844469
0.82832
0.819866
0.810064
0.80308
0.793843
0.78435
0.773346
0.763625
0.753237
0.742673
0.73632
1.48311
1.46274
1.45847
1.45086
1.4401
1.4269
1.41873
1.40691
1.39669
1.38667
1.37208
1.36223
1.35437
1.34354
1.3329
1.32484
1.3138
1.30352
1.29166
1.2807
1.27113
1.263
1.24729
1.24783
1.23536
1.22844
1.21883
1.21047
1.19537
1.17941
1.17231
1.16497
1.15757
1.14219
1.13201
1.12174
1.11611
1.11061
1.10099
1.0909
1.08081
1.07064
1.05983
1.04707
1.03746
1.02302
1.01809
1.00331
0.994063
0.983134
0.98548
0.967278
0.956363
0.948848
0.934341
0.929189
0.914635
0.900519
0.891956
0.883659
0.872614
0.871441
0.85229
0.844486
0.831016
0.821045
0.810615
0.802351
0.794056
0.787052
0.77365
0.758729
0.751706
0.742425
0.734493
1.47565
1.46421
1.46463
1.45049
1.43745
1.42882
1.42098
1.40443
1.39568
1.38459
1.37219
1.36216
1.35244
1.34154
1.32944
1.3274
1.31262
1.30534
1.29012
1.2787
1.26864
1.26081
1.25115
1.25175
1.2387
1.22781
1.21855
1.20907
1.19751
1.18024
1.17278
1.16537
1.1596
1.13952
1.1322
1.12373
1.11642
1.10896
1.1004
1.09106
1.08153
1.07233
1.06264
1.04397
1.03966
1.02484
1.01648
1.00361
0.99081
0.986044
0.985137
0.970919
0.957308
0.945085
0.934753
0.926096
0.915016
0.904672
0.892284
0.884068
0.875525
0.866885
0.851049
0.848977
0.830206
0.822428
0.809819
0.801691
0.7931
0.784173
0.773667
0.759482
0.752534
0.740737
0.733813
1.47614
1.45909
1.46669
1.45264
1.44154
1.43057
1.41979
1.4072
1.39592
1.3834
1.37203
1.36166
1.35169
1.34111
1.33119
1.31891
1.31474
1.30321
1.2901
1.27627
1.26488
1.26112
1.25619
1.25584
1.23672
1.22565
1.2182
1.20855
1.19387
1.18289
1.17331
1.1645
1.15603
1.14344
1.13366
1.12494
1.1168
1.10867
1.10049
1.09096
1.08115
1.07417
1.06245
1.04886
1.03916
1.02594
1.01543
1.00459
0.994356
0.987271
0.981249
0.972038
0.957133
0.94275
0.933428
0.924138
0.914385
0.904553
0.893962
0.885668
0.876457
0.86775
0.851443
0.844005
0.831063
0.822645
0.810312
0.801478
0.792436
0.783171
0.772858
0.7599
0.755773
0.737644
0.733904
1.47467
1.46151
1.46134
1.45258
1.44524
1.43272
1.4203
1.40883
1.39672
1.38147
1.37124
1.36107
1.35094
1.34012
1.33093
1.3195
1.31031
1.30229
1.29006
1.27813
1.26881
1.26318
1.25712
1.25058
1.2377
1.22321
1.21913
1.20525
1.19432
1.18408
1.1731
1.1641
1.1551
1.14503
1.13413
1.12561
1.11722
1.10864
1.10179
1.09162
1.08013
1.07732
1.06383
1.05171
1.04132
1.02445
1.01471
1.00522
0.995785
0.987515
0.97985
0.972499
0.956619
0.940746
0.931503
0.922869
0.913729
0.90424
0.894666
0.887012
0.874658
0.865531
0.854492
0.843654
0.832544
0.823437
0.810599
0.801479
0.791931
0.782932
0.773273
0.764911
0.756048
0.739417
0.733948
1.47411
1.45915
1.45842
1.45179
1.44575
1.42827
1.41971
1.41085
1.39472
1.38134
1.37059
1.36025
1.35011
1.34
1.33048
1.32111
1.30423
1.30272
1.28971
1.27829
1.27115
1.26573
1.25796
1.25077
1.23454
1.22326
1.21596
1.20482
1.19443
1.1861
1.17089
1.16333
1.15514
1.14744
1.13221
1.12649
1.11775
1.10739
1.10463
1.0938
1.08254
1.07506
1.06361
1.05224
1.04144
1.02744
1.01412
1.00575
0.996044
0.987026
0.9782
0.968572
0.956345
0.945802
0.929586
0.922189
0.91345
0.904058
0.894632
0.886096
0.875674
0.864936
0.853816
0.843967
0.834194
0.823226
0.81241
0.801753
0.790926
0.783432
0.774437
0.765769
0.753585
0.744534
0.733502
1.47673
1.46324
1.45708
1.45303
1.44185
1.42939
1.4186
1.40823
1.39152
1.3892
1.3698
1.35915
1.34916
1.33925
1.33005
1.31855
1.30692
1.29777
1.28742
1.27536
1.27203
1.26932
1.25784
1.2481
1.23783
1.22169
1.21374
1.20408
1.19247
1.18296
1.17254
1.16387
1.15495
1.14548
1.13296
1.1302
1.12025
1.11014
1.10387
1.09548
1.08321
1.07163
1.06263
1.05226
1.0428
1.02989
1.01694
1.0062
0.995472
0.986362
0.977097
0.967247
0.955612
0.94365
0.930407
0.92329
0.913909
0.904083
0.894652
0.886327
0.878687
0.864952
0.851242
0.844083
0.836812
0.822093
0.805461
0.802209
0.79756
0.785501
0.775512
0.767454
0.752626
0.750306
0.731161
1.48184
1.46701
1.45417
1.45007
1.43899
1.42882
1.41796
1.40479
1.39214
1.38735
1.37203
1.35787
1.34824
1.3379
1.33259
1.31667
1.30758
1.29706
1.2875
1.27798
1.27194
1.26571
1.25622
1.24581
1.23511
1.22333
1.21375
1.20558
1.18841
1.18083
1.17257
1.16456
1.15534
1.14732
1.13654
1.12954
1.12021
1.11147
1.10383
1.09545
1.08338
1.07114
1.0615
1.0511
1.04244
1.03306
1.01937
1.0067
0.993202
0.985865
0.976977
0.969125
0.955181
0.941709
0.925666
0.924928
0.91411
0.903525
0.89369
0.88507
0.876045
0.864992
0.853943
0.844598
0.834898
0.823027
0.811949
0.804016
0.796079
0.785193
0.775022
0.764475
0.761997
0.747214
0.731283
1.48653
1.466
1.45853
1.44846
1.43768
1.42883
1.41883
1.39996
1.38927
1.38345
1.37271
1.36216
1.35022
1.33326
1.33236
1.31924
1.30814
1.29757
1.28772
1.27944
1.27205
1.26392
1.25464
1.24423
1.23367
1.22285
1.21258
1.20281
1.1876
1.17924
1.17359
1.16572
1.15539
1.15098
1.13913
1.12899
1.11884
1.11133
1.1045
1.09744
1.08446
1.07169
1.06149
1.05034
1.03723
1.03489
1.02069
1.00807
0.996485
0.987029
0.976087
0.965086
0.95423
0.942501
0.929417
0.925505
0.913319
0.902639
0.892706
0.883995
0.874892
0.8654
0.854949
0.845573
0.835374
0.824948
0.814967
0.805652
0.795122
0.784166
0.775114
0.767893
0.75883
0.744034
0.730416
1.47907
1.46427
1.45773
1.44589
1.43768
1.42997
1.41389
1.39934
1.3843
1.3825
1.37321
1.3629
1.35028
1.33825
1.33053
1.31922
1.30782
1.29743
1.28623
1.28009
1.2743
1.26338
1.25351
1.24321
1.23225
1.22166
1.21096
1.1998
1.18702
1.17549
1.17455
1.16918
1.16284
1.15116
1.13945
1.12875
1.11699
1.11054
1.10517
1.10105
1.08536
1.0723
1.06244
1.0519
1.03481
1.03265
1.02
1.00839
0.997493
0.987832
0.975269
0.962857
0.954229
0.945144
0.934838
0.924088
0.91122
0.901006
0.89045
0.883306
0.873822
0.866331
0.854836
0.84736
0.836184
0.826409
0.817135
0.807468
0.794945
0.781364
0.774944
0.769445
0.755369
0.73965
0.730544
1.48457
1.46524
1.45693
1.44287
1.43621
1.42699
1.41364
1.39999
1.38523
1.37492
1.37373
1.36324
1.35191
1.34134
1.33116
1.3187
1.30726
1.29758
1.28282
1.28056
1.27945
1.26138
1.25243
1.24261
1.23085
1.22058
1.20979
1.19849
1.18625
1.17315
1.17227
1.17044
1.16881
1.15455
1.13859
1.1315
1.12241
1.10961
1.10387
1.09651
1.0839
1.07489
1.06323
1.05345
1.03843
1.02822
1.01798
1.00819
0.997614
0.986817
0.974683
0.963282
0.954549
0.947158
0.940356
0.923215
0.911675
0.899763
0.886711
0.884006
0.871771
0.868079
0.852465
0.850274
0.835713
0.827199
0.818949
0.807797
0.791695
0.782607
0.774234
0.765309
0.75361
0.740579
0.727665
1.47809
1.46696
1.45782
1.44552
1.43666
1.4275
1.41442
1.40113
1.38657
1.37141
1.37227
1.3621
1.35225
1.34364
1.3341
1.31701
1.30584
1.29764
1.28659
1.27975
1.27317
1.262
1.25224
1.24312
1.22953
1.22014
1.20909
1.19791
1.18765
1.17543
1.17256
1.16948
1.16619
1.15904
1.13854
1.13588
1.12611
1.109
1.10234
1.0944
1.08231
1.08051
1.06108
1.05405
1.03913
1.02571
1.01611
1.00857
0.997377
0.98546
0.973272
0.962984
0.953547
0.943014
0.944938
0.928267
0.913925
0.900144
0.886672
0.881691
0.873114
0.866142
0.854991
0.847103
0.835265
0.826237
0.816895
0.805746
0.793932
0.783537
0.773876
0.76388
0.753147
0.741658
0.730535
1.48038
1.46516
1.45722
1.44567
1.4362
1.42579
1.41461
1.39957
1.38836
1.37655
1.37177
1.35777
1.35131
1.34711
1.33253
1.31529
1.30559
1.29887
1.28896
1.27939
1.2709
1.26097
1.25126
1.24174
1.22974
1.22133
1.20761
1.1972
1.19121
1.18315
1.17398
1.16852