/*--------------------------------*- C++ -*----------------------------------*\
  =========                 |
  \\      /  F ield         | OpenFOAM: The Open Source CFD Toolbox
   \\    /   O peration     | Website:  https://openfoam.org
    \\  /    A nd           | Version:  12
     \\/     M anipulation  |
\*---------------------------------------------------------------------------*/
FoamFile
{
    format      ascii;
    class       surfaceScalarField;
    location    "0.2";
    object      phi.water;
}
// * * * * * * * * * * * * * * * * * * * * * * * * * * * * * * * * * * * * * //

dimensions      [0 3 -1 0 0 0 0];

internalField   nonuniform List<scalar> 
7375
(
-1.76494e-07
-1.0121e-07
2.01745e-07
-3.13236e-07
1.81102e-07
1.82604e-08
1.33572e-07
4.62405e-08
1.25342e-07
8.13344e-09
8.77912e-08
3.74081e-08
1.05732e-07
-1.80192e-08
1.10014e-07
-5.41764e-09
1.37104e-07
-2.73669e-08
1.54634e-07
-1.61115e-08
1.57144e-07
-5.36351e-08
2.15046e-07
-4.03968e-09
1.74968e-07
-1.21275e-08
1.92621e-07
3.03561e-08
1.76233e-07
1.63883e-08
1.66243e-07
1.1806e-08
1.62078e-07
4.28631e-09
1.70844e-07
-8.64071e-09
1.97735e-07
-2.48405e-08
1.76985e-07
-3.09196e-08
2.0258e-07
2.43951e-08
1.61665e-07
3.9286e-08
1.39968e-07
2.16973e-08
1.41673e-07
-2.80901e-10
1.64571e-07
-2.34896e-08
1.94542e-07
-3.19746e-08
2.14341e-07
-1.97983e-08
2.21369e-07
-2.39541e-09
2.14575e-07
6.92717e-09
2.02543e-07
9.77857e-09
1.9279e-07
1.18324e-08
1.76144e-07
1.45429e-08
1.77525e-07
-3.19122e-09
1.9705e-07
-1.75478e-08
2.06934e-07
-6.2214e-08
2.34712e-07
2.39399e-08
2.26508e-07
8.22795e-09
2.21544e-07
4.94816e-09
2.18051e-07
3.43348e-09
2.19044e-07
-1.00233e-09
2.33748e-07
-1.72934e-08
2.19113e-07
1.4635e-08
2.40223e-07
-1.88699e-08
2.64107e-07
-2.09677e-08
2.80936e-07
-1.6861e-08
2.67745e-07
7.67145e-09
2.43927e-07
2.38187e-08
2.12346e-07
3.59554e-08
1.98042e-07
1.62967e-08
1.41424e-07
2.4835e-09
1.57272e-07
3.4445e-08
1.43488e-07
1.37892e-08
1.49543e-07
-6.04948e-09
1.41409e-07
6.65175e-09
1.39658e-07
1.77053e-09
1.5535e-07
-1.58566e-08
1.91085e-07
-3.57345e-08
2.25978e-07
-3.05711e-08
2.10532e-07
-3.68031e-08
2.44898e-07
1.52362e-08
2.27585e-07
1.96619e-08
1.9918e-07
2.82965e-08
1.73293e-07
2.41696e-08
1.49388e-07
2.38998e-08
1.1676e-07
3.26352e-08
9.5619e-08
2.0342e-08
8.78026e-08
8.70323e-09
2.26254e-07
1.92663e-08
7.92284e-08
-6.29104e-08
2.26335e-07
5.99065e-08
2.20089e-07
6.19558e-09
1.19682e-07
-5.48684e-08
1.43862e-07
-2.42043e-08
1.29223e-07
1.59169e-08
5.52e-08
-1.15101e-07
-1.47938e-07
-2.05528e-07
-2.66314e-07
-1.28973e-07
-5.77006e-08
-8.16193e-08
-1.11433e-09
-6.20087e-08
-1.06452e-08
-2.08638e-08
-3.73773e-09
-6.10279e-08
2.23724e-08
-4.40737e-08
-2.28224e-08
-4.3535e-08
-2.81885e-08
-3.95202e-08
-7.03216e-08
-1.02645e-08
-3.16553e-08
2.84262e-08
-4.28362e-08
6.29228e-09
1.01292e-08
6.26414e-09
3.03831e-08
-1.67965e-08
3.96152e-08
-1.17151e-08
6.60402e-09
-5.58737e-08
-3.27259e-09
2.42045e-08
-3.69195e-08
-1.26864e-08
-3.9333e-08
3.87619e-08
-3.11348e-08
2.31675e-08
4.03842e-08
-6.84671e-11
6.31654e-08
-1.38361e-09
2.32333e-08
-1.56807e-09
-1.29237e-10
-5.38218e-08
-2.40734e-08
3.72518e-09
-3.6665e-08
-7.02298e-09
-9.15899e-09
-1.03027e-08
8.92951e-10
-5.37854e-09
1.98711e-09
9.47859e-09
-5.07887e-09
-1.53316e-08
3.67394e-08
-4.74639e-08
4.60425e-08
-1.1358e-07
1.17705e-08
-6.45862e-08
-1.46624e-08
2.04458e-08
8.96607e-09
-4.69823e-08
-6.41174e-08
6.9899e-09
-4.53523e-08
2.22429e-08
-1.03045e-08
4.73155e-09
2.11241e-08
-2.49726e-08
2.87403e-08
7.01323e-08
4.37713e-08
-1.81356e-09
-6.92617e-08
5.04989e-08
-7.16967e-08
8.71511e-08
-5.76193e-08
1.11396e-07
-3.89077e-08
1.27514e-07
-8.35913e-09
1.44358e-07
4.39923e-09
1.40011e-07
3.88899e-08
1.0504e-07
5.19811e-08
5.32509e-08
5.53094e-08
1.76722e-08
7.1295e-08
-1.96417e-08
5.11038e-08
-4.13345e-08
1.56441e-08
-6.08229e-08
2.55203e-08
-1.05223e-07
-6.10291e-09
-3.66065e-08
-3.164e-08
-9.98831e-09
-6.27166e-08
1.01972e-08
-5.0756e-08
-3.42502e-09
-2.28048e-08
1.47986e-08
-2.98677e-09
2.27883e-08
1.14403e-08
5.70598e-08
-5.68409e-09
4.77562e-08
3.40618e-08
-2.20434e-08
9.32128e-08
-6.25801e-08
7.31722e-08
-8.58982e-08
4.36605e-08
-8.50792e-08
7.97337e-09
-9.06033e-08
2.36699e-08
-3.15326e-08
3.48966e-08
-1.08781e-07
-1.66899e-08
-8.71957e-08
-1.539e-08
-1.03251e-07
-3.97023e-08
-1.0222e-07
-2.52364e-08
-7.39088e-08
-6.33988e-08
2.81222e-08
-1.8848e-07
-1.27344e-07
-1.99059e-07
-1.87085e-07
-1.32715e-07
-1.22015e-07
-1.08706e-07
-2.51125e-08
-1.07276e-07
-1.20761e-08
-9.26966e-08
-1.92637e-08
-1.18742e-07
-3.8753e-09
-1.04656e-07
-3.56983e-08
-1.2134e-07
-9.9795e-09
-1.30276e-07
-1.01508e-08
-1.3472e-07
-2.88636e-08
-1.02538e-07
-7.50192e-08
-8.604e-08
-6.3058e-09
-6.14522e-08
5.79432e-09
-3.53359e-08
1.34979e-08
-4.32768e-08
1.46938e-08
-8.18761e-08
3.53592e-08
-1.23461e-07
4.28759e-09
-1.60655e-07
-3.77902e-09
-3.27627e-08
-2.49681e-09
-1.58451e-07
9.512e-09
-1.70901e-07
2.33225e-08
-1.52079e-07
5.79134e-08
-1.78329e-07
2.61202e-08
-1.96888e-07
-5.02405e-09
-2.15704e-07
-1.56485e-08
-2.02744e-07
-2.41677e-08
-2.18789e-07
-3.7444e-08
-2.20448e-07
5.87818e-09
-1.77845e-07
4.06584e-09
-2.10716e-07
6.96109e-08
-2.23848e-07
7.33994e-09
-2.29693e-07
2.00439e-08
-1.92862e-07
-4.08897e-10
-1.51721e-07
-3.45866e-08
-1.71339e-07
-9.54847e-08
-1.38723e-07
-2.67318e-08
-1.00987e-07
-5.00712e-08
-1.17695e-07
3.66322e-08
-1.2117e-07
3.37607e-08
-7.4346e-08
-2.29339e-09
-7.8712e-08
-6.56536e-08
-7.05515e-08
-8.06797e-08
-8.92842e-08
-3.94738e-08
-5.17573e-08
-7.59059e-08
-1.47571e-08
-4.51252e-08
-1.78039e-09
-8.81483e-09
3.23877e-08
5.43149e-09
3.46346e-08
5.02707e-08
9.92975e-09
8.03271e-08
-3.52824e-08
1.16508e-07
-7.98351e-08
9.60171e-08
-1.22596e-07
5.84059e-08
-1.12209e-07
1.51338e-08
-1.08688e-07
-9.56116e-09
-9.87261e-08
-4.16011e-08
-1.16176e-07
-4.52657e-08
-1.43548e-07
-2.33833e-08
-1.69234e-07
2.88119e-09
-1.81134e-07
8.91376e-09
-1.72184e-07
2.49084e-09
-5.12492e-08
2.8601e-08
-5.77997e-08
4.02654e-08
-1.4924e-07
2.93767e-08
-1.24783e-07
4.87149e-08
-1.08976e-07
2.7854e-08
-1.19412e-07
1.84098e-08
-1.0886e-07
1.31185e-08
-8.36288e-08
9.3096e-09
-1.09259e-07
8.94028e-09
-1.33687e-07
8.88157e-09
-1.64246e-07
-9.14388e-09
-2.15749e-07
-2.54924e-08
-9.61924e-08
2.40809e-08
-1.4572e-08
-1.45569e-07
-1.562e-07
-1.62376e-07
-1.56347e-07
-2.07494e-07
-7.52409e-08
-1.83575e-07
-4.90326e-08
-1.45161e-07
-5.0491e-08
-1.39643e-07
-2.47817e-08
-1.20528e-07
-2.29516e-08
-1.1391e-07
-4.23177e-08
-9.19727e-08
-3.22465e-08
-9.92703e-08
-2.95772e-09
-1.32735e-07
4.60053e-09
-4.8825e-08
-3.15538e-09
-1.44852e-07
-6.39883e-08
-1.09291e-07
-3.12462e-08
-7.18809e-08
-2.43972e-08
-9.19133e-08
-1.77502e-08
-9.58198e-08
9.19614e-08
-1.56483e-07
6.42941e-08
-1.92347e-07
3.01219e-08
-4.54122e-08
7.54834e-09
-2.09799e-07
1.90839e-08
-2.03449e-07
1.67345e-08
-1.94074e-07
4.85374e-08
-2.10912e-07
4.2958e-08
-2.10253e-07
-5.68446e-09
-2.16663e-07
-9.23832e-09
-1.98279e-07
-4.23667e-08
-2.24217e-07
-1.11244e-08
-2.23758e-07
3.13618e-09
-9.3726e-08
3.12332e-08
-2.48189e-07
2.05257e-08
-2.50675e-07
5.85315e-08
-2.70823e-07
3.4461e-08
-2.6679e-07
-4.3593e-09
-2.60239e-07
-4.10695e-08
-1.58753e-07
-3.74114e-08
-2.65367e-07
-7.67544e-08
-1.10909e-07
-4.76519e-08
-1.79663e-07
-4.8758e-08
-1.66791e-07
-3.32552e-08
-1.74318e-07
5.20992e-09
-1.45614e-07
-4.23044e-08
-9.66488e-08
2.72328e-08
-2.29382e-07
-6.10311e-08
-1.63214e-07
1.32035e-08
-1.56582e-07
-5.38135e-08
-1.75995e-07
-4.17852e-08
-1.45199e-07
-2.33304e-08
-1.36502e-07
4.10614e-08
-1.18163e-07
1.13749e-07
-1.26721e-07
1.23878e-07
-1.33775e-07
1.03071e-07
-1.40514e-07
6.51459e-08
-1.25747e-07
3.66867e-10
-1.11166e-07
-2.41413e-08
-1.14894e-07
-3.78721e-08
-1.18634e-07
-4.19534e-08
-1.42715e-07
6.98863e-10
-1.63848e-07
2.40144e-08
-1.79638e-07
2.47043e-08
-1.76247e-07
-8.99325e-10
-1.45898e-07
-1.74739e-09
-1.23674e-07
1.78594e-08
-9.73374e-08
3.07175e-09
-1.13689e-07
6.50665e-08
-1.17672e-07
3.1838e-08
-1.22972e-07
2.37101e-08
-1.16867e-07
7.01359e-09
-1.21392e-07
1.38344e-08
-1.10519e-07
-1.9323e-09
-1.1575e-07
1.41133e-08
-1.30696e-07
5.80133e-09
-1.63774e-07
7.58546e-09
-1.27167e-07
-1.25252e-08
-2.43682e-08
-1.44184e-07
-1.91823e-07
-1.38397e-07
-1.4882e-07
-1.33324e-07
-8.03141e-08
-1.33768e-07
-4.90911e-08
-1.43514e-07
-4.07454e-08
-1.62756e-07
-5.54021e-09
-1.52382e-07
-3.299e-08
-1.88077e-07
-8.54238e-09
-1.15525e-07
5.1547e-08
-1.21486e-07
4.18095e-09
-1.14997e-07
-1.88965e-09
-8.99807e-08
-2.84628e-08
-1.20246e-07
-3.43771e-08
-1.56216e-07
-4.5442e-08
-1.31757e-07
1.0484e-09
-3.68678e-08
4.26226e-08
-1.24072e-07
2.52721e-08
-1.26592e-07
6.68127e-08
-1.681e-07
6.79293e-08
-5.90373e-08
5.47207e-08
-2.04591e-07
-4.1375e-08
-1.765e-07
3.99938e-08
-1.64612e-07
3.70268e-08
-1.84046e-07
6.23914e-08
-2.01629e-07
1.18979e-08
-2.22059e-07
-3.79162e-08
-2.10923e-07
-2.26625e-09
-2.08148e-07
-1.60511e-08
-1.76773e-07
-3.00429e-08
-5.92132e-08
6.95123e-08
-1.70021e-07
-2.35804e-08
-1.55252e-07
4.59442e-08
-1.58597e-07
3.90596e-08
-1.63826e-07
-6.95164e-10
-1.9609e-07
-9.95536e-09
-2.0738e-07
-2.57396e-08
-2.65523e-07
-1.86114e-08
-1.75915e-07
1.85036e-08
-1.859e-07
-4.0669e-08
-1.47701e-07
-7.07243e-08
-2.41253e-07
-1.0682e-07
-4.8097e-08
-2.84243e-08
-1.64219e-07
-6.39587e-08
-1.16771e-07
-5.67189e-08
-2.9316e-07
-6.92016e-08
-1.95691e-07
-4.77641e-08
-2.39616e-07
-4.6276e-08
-2.34295e-07
2.25857e-08
-2.27505e-07
3.22105e-08
-1.99264e-07
8.55081e-08
-1.62635e-07
8.72492e-08
-1.34255e-07
7.4692e-08
-1.26758e-07
5.82439e-08
-1.13346e-07
-1.30442e-08
-1.25374e-07
-1.21132e-08
-1.4854e-07
-1.62203e-08
-7.0476e-08
3.68604e-08
-1.90291e-07
-3.4044e-08
-1.82057e-07
1.57817e-08
-1.79223e-07
2.18708e-08
-1.94264e-07
1.41427e-08
-2.19053e-07
2.52768e-08
-2.13491e-07
1.01415e-08
-9.80509e-08
4.2309e-08
-1.93775e-07
6.51472e-09
-1.90921e-07
2.89844e-08
-1.91926e-07
2.4715e-08
-1.98371e-07
1.34586e-08
-2.12232e-07
-2.40634e-08
-2.00104e-07
-1.40603e-08
-2.03106e-07
1.71155e-08
-1.73602e-07
2.80561e-08
-1.89648e-07
2.36314e-08
-1.87322e-07
-1.48509e-08
-1.85573e-08
-1.4382e-07
-2.12229e-07
-1.03521e-07
-1.82506e-07
-1.37818e-07
-4.63669e-08
-1.62004e-07
-7.71983e-08
-1.65854e-07
1.65147e-08
-1.82282e-07
-3.90124e-08
-1.59105e-07
-4.93083e-09
-1.41254e-07
-2.65762e-08
-1.98342e-07
-4.5596e-08
-1.76168e-07
-2.0017e-08
-1.66265e-07
-1.34899e-08
-9.80798e-08
5.96141e-08
-1.3047e-07
-9.97175e-10
-1.40308e-07
-3.56049e-08
-1.30017e-07
-7.82719e-09
-8.67341e-08
-2.15468e-10
-8.88517e-08
2.65129e-08
-7.36962e-08
5.21832e-08
-7.45884e-08
6.95739e-08
-7.84503e-08
5.80683e-08
-1.63632e-07
9.68805e-08
-1.84164e-07
1.09354e-07
-1.89898e-07
4.08611e-08
-1.96652e-07
1.93236e-08
-1.87734e-07
4.89501e-09
-1.88017e-07
1.36017e-08
-1.84746e-07
-7.47849e-09
-1.93931e-07
-6.86616e-09
-7.59396e-08
8.01716e-09
-1.43573e-07
-1.87155e-08
-4.38422e-08
3.20865e-08
-1.32922e-07
-1.98061e-08
-9.50051e-08
5.72281e-10
-1.12586e-07
1.80395e-08
-1.41208e-07
2.00052e-08
-1.79744e-07
1.13565e-08
-2.02038e-07
3.68246e-09
-1.55216e-07
-2.83176e-08
-1.31036e-07
-6.35119e-08
-1.0861e-07
-9.33785e-08
-9.91186e-08
3.74763e-08
-1.17211e-07
-1.03315e-08
-1.49113e-07
-3.20563e-08
-1.56864e-07
-4.89666e-08
-2.13685e-07
-6.41397e-08
-2.18449e-07
-4.03585e-08
-2.20852e-07
7.43841e-09
-2.33293e-07
3.0941e-08
-2.37689e-07
3.66066e-08
-1.95015e-07
4.52602e-08
-1.58385e-07
5.06199e-08
-1.23857e-07
3.93018e-08
-1.74859e-07
5.69544e-08
-1.60582e-07
2.62218e-08
-1.76475e-07
3.78072e-09
-1.89913e-07
-2.78206e-09
-1.71437e-07
-3.375e-08
-1.66389e-07
1.26684e-08
-2.11185e-07
6.05777e-08
-2.05119e-07
1.58052e-08
-2.16971e-07
2.59952e-08
-2.02051e-07
1.03572e-08
-1.93821e-07
2.0162e-09
-1.65821e-07
1.38775e-08
-1.81688e-07
2.23819e-08
-1.86431e-07
3.37281e-08
-1.61873e-07
1.57538e-10
-1.95939e-07
4.70442e-08
-2.14442e-07
-5.55929e-09
-2.17433e-07
-1.1069e-08
-1.93116e-07
-7.20213e-09
-1.95756e-07
3.10128e-08
-1.88068e-07
1.59431e-08
-2.05486e-07
2.56705e-09
-1.65696e-08
-1.36799e-07
-2.55082e-07
-1.18803e-07
-2.42568e-07
-1.26368e-07
-3.63793e-08
-1.32472e-07
-7.03073e-08
-1.18856e-07
2.89833e-09
-1.29359e-07
-2.85105e-08
-1.05125e-07
-2.92158e-08
-6.70433e-08
-6.53251e-08
-1.13446e-07
3.40478e-10
-1.06003e-07
-2.74608e-08
-7.91927e-08
-3.94932e-08
-1.35869e-07
-3.97958e-08
-2.04909e-07
1.43497e-08
-1.90206e-07
5.48117e-09
-1.78402e-07
-1.98329e-08
-1.65243e-07
-1.51972e-08
-1.57727e-07
1.94645e-08
-1.44392e-07
3.84554e-08
-1.26745e-07
5.26362e-08
-1.43375e-07
7.45874e-08
-1.60887e-07
6.14399e-08
-1.41554e-07
4.0513e-08
-1.46519e-07
4.73364e-08
-1.24448e-07
-2.74826e-09
-1.23939e-07
4.38498e-09
-1.23298e-07
1.30994e-08
-1.27639e-07
-3.13821e-09
-1.41195e-07
6.68987e-09
-1.33176e-07
-1.88132e-12
-1.34678e-07
-1.7405e-08
-1.04997e-07
2.05688e-09
-1.10853e-07
-1.395e-08
-1.08085e-07
-2.19542e-09
-1.25878e-07
3.4365e-08
-1.41687e-07
3.60204e-08
-1.16845e-07
-1.2164e-08
-1.22897e-07
9.63698e-09
-1.14837e-07
-3.60102e-08
-1.0601e-07
-7.26784e-08
5.24591e-09
-4.92812e-08
-1.84692e-07
-8.00562e-08
-1.68266e-07
-2.86407e-08
-1.73446e-07
-2.68756e-08
-1.63936e-07
-5.90791e-08
-2.28188e-07
2.41638e-09
-2.37151e-07
-3.37897e-08
-2.2191e-07
-1.24567e-08
-1.96021e-07
7.33898e-09
-1.65348e-07
7.56148e-09
-1.35912e-07
1.5824e-08
-1.34945e-07
4.77899e-08
-3.07788e-08
9.10749e-08
-1.62653e-07
3.32853e-08
-1.78377e-07
4.19458e-08
-2.03743e-07
2.91476e-08
-2.29847e-07
2.33229e-08
-1.37092e-07
2.87719e-08
-1.29002e-07
4.57946e-09
-2.26199e-07
-4.87631e-08
-1.86876e-07
2.82417e-08
-1.91578e-07
3.06977e-08
-1.64866e-07
-1.65227e-08
-1.74154e-07
1.1304e-08
-2.20425e-07
6.01497e-08
-2.16699e-07
1.86555e-08
-2.20528e-07
3.75574e-08
-7.66506e-08
1.23398e-08
-1.80829e-07
-2.46073e-09
-1.72412e-07
-1.59843e-08
-1.5615e-07
-2.73311e-08
-1.46851e-07
-1.79989e-08
-1.61548e-07
-6.58301e-09
-1.2421e-07
3.20127e-08
-1.4711e-07
2.54664e-08
1.5078e-08
-2.18475e-07
-2.03826e-07
-8.66263e-08
-1.39981e-07
-1.82006e-07
-1.47153e-07
-1.68531e-07
-8.37827e-08
-1.43088e-07
-2.25457e-08
-1.72704e-07
1.10456e-09
-1.75935e-07
-2.77803e-08
-4.70916e-08
-3.768e-08
-1.77901e-07
-2.36478e-08
-1.84668e-07
-7.24533e-08
-2.13276e-07
3.86967e-08
-1.49534e-07
5.29291e-08
-2.93944e-07
4.86081e-09
-2.97342e-07
5.84518e-09
-2.9183e-07
-2.5551e-08
-2.56473e-07
-5.0194e-08
-2.60698e-07
-7.74119e-08
-2.99121e-07
-7.57279e-08
-2.16517e-07
1.65297e-08
-1.72871e-07
3.09407e-08
-1.53268e-07
4.29735e-08
-1.49035e-07
3.43459e-08
-1.65874e-07
1.18817e-08
-1.37576e-07
2.21778e-08
-1.56402e-07
2.32113e-08
-1.6785e-07
2.45462e-08
-1.9674e-07
2.5752e-08
-2.02134e-07
1.20834e-08
-2.03748e-07
1.61206e-09
-1.97232e-07
-2.19092e-08
-1.77745e-07
-1.72556e-08
-1.82621e-07
-1.08873e-08
-1.85776e-07
9.59545e-10
-1.6714e-07
1.55697e-08
-1.42167e-07
9.13706e-09
6.41862e-09
-3.89803e-09
-5.7077e-08
-8.00643e-08
-3.5492e-08
-5.78128e-08
-4.86427e-08
-6.09929e-08
-1.19426e-07
2.15087e-08
-1.89768e-07
-9.31187e-09
-2.18414e-07
6.54526e-12
-2.30323e-07
-1.73158e-08
-1.33066e-07
1.91303e-09
-2.37985e-07
-4.50285e-08
-2.48904e-07
-2.56431e-08
-2.50751e-07
-1.04818e-08
-2.39389e-07
-4.09747e-09
-2.18721e-07
-1.31062e-08
-1.98998e-07
-1.86811e-09
-1.72489e-07
2.30235e-08
-1.40634e-07
5.65586e-08
-1.75203e-07
6.64202e-08
-1.91357e-07
5.81001e-08
-2.08244e-07
4.60357e-08
-2.08222e-07
2.33011e-08
-1.86854e-07
7.40534e-09
-1.7408e-07
-5.81772e-08
-1.97031e-07
2.51702e-08
-1.80036e-07
9.23697e-09
-1.88789e-07
3.75254e-08
-1.04671e-07
5.6237e-08
-1.2742e-07
3.51213e-08
-2.58231e-07
-1.60749e-08
-1.98173e-07
1.03571e-08
-2.2826e-07
1.58856e-08
-5.77569e-08
4.94625e-08
-1.73448e-07
-4.2255e-08
-2.30914e-07
-1.27293e-08
-1.89467e-07
-1.46633e-08
-1.88656e-07
-1.86196e-08
-2.06988e-07
1.19383e-08
-1.85186e-07
1.02104e-08
-1.95363e-07
3.56437e-08
8.81974e-09
-2.01805e-07
-1.66727e-07
-1.23437e-07
-4.35603e-08
-1.21594e-07
-1.48996e-07
-1.56649e-07
-4.82364e-08
-1.04611e-07
-7.53534e-08
-2.45079e-07
-6.54638e-08
-2.25458e-07
2.05664e-09
-1.0998e-07
4.10699e-09
-2.37984e-07
-1.02605e-07
-2.59018e-07
3.38657e-10
-2.70992e-07
5.01584e-08
-2.58444e-07
3.98398e-08
-2.8508e-07
3.18209e-08
-2.98716e-07
1.92837e-08
-3.30468e-07
6.4602e-09
-2.31947e-07
8.92822e-09
-3.76964e-07
-4.17011e-08
-3.16246e-07
-3.54866e-08
-2.46658e-07
5.15282e-09
-2.02055e-07
-1.41232e-08
-1.99207e-07
4.01248e-08
-2.26388e-07
6.09047e-08
-2.48573e-07
3.64809e-08
-2.51756e-07
2.536e-08
-2.47872e-07
1.67593e-08
-2.50855e-07
2.75279e-08
-2.42119e-07
1.70159e-08
-2.39381e-07
9.34574e-09
-2.01426e-07
-3.5977e-08
-1.81785e-07
-3.96955e-08
-1.65121e-07
-3.40942e-08
-1.53745e-07
-2.39477e-08
-1.42545e-07
-8.78575e-09
-1.15138e-07
-1.06743e-08
-8.97941e-08
-1.64629e-08
-6.47937e-08
-2.97655e-08
-9.6051e-08
-5.08028e-08
-1.22029e-07
-3.36688e-08
-4.31685e-08
1.63956e-08
-1.63835e-07
-1.28803e-08
-1.6488e-07
-8.26617e-09
-1.90327e-07
2.54537e-08
-2.03263e-07
-4.37937e-09
-1.85931e-07
-1.54372e-08
-1.78859e-07
-5.256e-08
-1.71556e-07
-3.29457e-08
-1.77572e-07
-4.465e-09
-1.87708e-07
6.03951e-09
-2.05581e-07
4.71955e-09
-2.27386e-07
1.97362e-08
-2.42482e-07
3.83549e-08
-2.41361e-07
5.6592e-08
-2.41063e-07
6.61228e-08
-2.27343e-07
4.43812e-08
-2.16833e-07
3.55256e-08
-2.12952e-07
1.94215e-08
-2.24398e-07
1.88512e-08
-1.496e-07
2.38294e-08
-2.23549e-07
-5.37926e-08
-1.8897e-07
-2.76213e-08
-1.45429e-07
-6.01561e-09
-1.02805e-07
1.30397e-08
-1.10831e-07
-8.61103e-09
-1.35583e-07
8.67796e-09
-1.17424e-07
4.39575e-08
-1.27298e-07
2.57596e-08
-8.90927e-08
1.12576e-08
-9.69665e-08
-3.61702e-08
-2.03076e-07
4.12195e-08
-1.7053e-07
8.36104e-09
-1.67129e-07
-2.34716e-08
-2.07735e-07
-1.47058e-09
-1.82874e-07
3.92272e-08
-1.91325e-07
4.40955e-08
5.98724e-08
-2.05752e-07
-1.33358e-07
-1.79753e-07
-5.04743e-08
-5.17607e-08
-6.75907e-08
-1.8129e-07
-7.42479e-08
-5.8721e-08
-4.29138e-08
-1.85399e-07
-9.44277e-08
-1.96769e-07
1.34255e-08
-2.09839e-07
1.49938e-08
-1.90686e-07
3.51183e-08
-2.1405e-07
2.78308e-08
-2.9224e-07
-2.53616e-08
-2.7213e-07
1.38309e-08
-2.62469e-07
2.48637e-08
-2.5159e-07
1.10548e-08
-2.4512e-07
-2.5773e-09
-2.27718e-07
-8.47503e-09
-2.4732e-07
-2.25254e-08
-2.70207e-07
-1.18757e-08
-2.8356e-07
1.56122e-08
-2.01661e-07
6.08542e-08
-1.96934e-07
3.94637e-08
-2.84819e-07
-4.91977e-09
-2.78289e-07
2.73236e-08
-2.57082e-07
4.36655e-09
-2.47603e-07
7.27922e-09
-2.24423e-07
4.34726e-09
-1.93441e-07
-1.39663e-08
-1.9496e-07
-3.8905e-08
-1.47041e-07
-3.26601e-08
-1.4891e-07
-3.9327e-08
-1.45356e-07
-3.79963e-08
-1.50131e-07
-1.91727e-08
-1.48753e-07
-1.01632e-08
-1.44124e-07
-1.55711e-08
-1.40278e-07
-2.04763e-08
-1.47742e-07
-2.41129e-08
-1.84287e-07
-1.42566e-08
-1.98216e-07
-1.78597e-08
-1.73058e-07
-8.9296e-09
-1.79578e-07
-6.36007e-09
-1.78855e-07
-8.98814e-09
-1.8948e-07
-1.568e-08
-1.86314e-07
-7.54478e-09
-1.84e-07
-1.77507e-08
-1.74751e-07
-1.00496e-08
-1.54316e-07
-5.39298e-08
-1.54778e-07
-4.00291e-09
-1.86485e-07
3.92498e-08
-2.04505e-07
2.48047e-08
-2.29907e-07
4.35133e-08
-2.39032e-07
4.31365e-08
-2.29048e-07
4.66086e-08
-2.15941e-07
5.53532e-08
-2.17031e-07
4.54718e-08
-2.00187e-07
1.86823e-08
-1.71885e-07
-8.8797e-09
-1.56447e-07
3.41364e-09
-1.98212e-07
1.58582e-08
-1.78422e-07
-2.28896e-08
-1.6984e-07
-3.76388e-08
-1.53287e-07
-2.28008e-08
-1.26668e-07
-1.35784e-08
-1.29219e-07
-6.06001e-09
-1.10614e-07
-9.92624e-09
-9.36822e-08
2.70257e-08
-9.86851e-08
3.07628e-08
-1.14931e-07
2.63314e-08
-1.94665e-08
2.5243e-08
-1.39417e-07
-4.60875e-08
-1.69694e-07
4.03695e-08
-1.68653e-07
2.62217e-08
-1.91518e-07
1.96891e-08
-1.77872e-07
2.55808e-08
-1.58982e-07
2.52058e-08
1.72362e-08
-1.9844e-07
-1.05079e-07
-2.03727e-07
-2.67259e-08
-1.4464e-07
-1.26679e-07
-1.70393e-07
-4.92528e-08
-1.49137e-07
-6.52542e-08
-5.33267e-08
-3.37086e-08
-1.92886e-07
-5.3508e-08
-1.86701e-07
5.99553e-08
-1.74023e-07
2.20813e-08
-2.08615e-07
1.06631e-08
-2.07835e-07
2.74786e-08
-2.06199e-07
1.21937e-08
-1.88857e-07
5.16382e-09
-1.65986e-07
-1.1704e-08
-1.53296e-07
-1.52683e-08
-1.48987e-07
-1.27852e-08
-1.51531e-07
-1.99818e-08
-1.52064e-07
-1.13437e-08
-1.50594e-07
1.4141e-08
-1.29288e-07
3.89266e-08
-1.18844e-07
2.9019e-08
-1.37573e-07
1.23557e-08
-1.72512e-07
1.17467e-08
-1.32167e-07
1.70003e-08
-1.45457e-07
1.92198e-08
-1.49009e-07
7.89942e-09
-1.47919e-07
-1.50573e-08
-1.50038e-07
-3.6786e-08
-1.36146e-07
-4.68859e-08
-1.25504e-07
-4.9969e-08
-1.11651e-07
-5.23833e-08
-1.56643e-07
2.5819e-08
-1.63537e-07
-4.93758e-09
-1.70256e-07
-8.85176e-09
-1.62757e-07
-2.62379e-08
-1.66919e-07
-1.99506e-08
-1.86308e-07
5.27813e-09
-2.10876e-07
6.70815e-09
-2.09521e-07
-1.02839e-08
-2.05741e-07
-1.01393e-08
-2.02473e-07
-1.22559e-08
-1.98163e-07
-1.99896e-08
-1.92139e-07
-1.3568e-08
-2.08004e-07
-1.90499e-09
-2.00017e-07
-2.00759e-08
-1.26092e-07
2.90231e-08
-1.38775e-07
1.13827e-08
-2.61629e-07
8.39534e-09
-2.52128e-07
1.03162e-08
-2.29368e-07
1.88382e-08
-2.28991e-07
4.51237e-08
-2.28271e-07
4.775e-08
-1.94598e-07
2.16811e-08
-2.14697e-07
6.49093e-08
-2.27914e-07
3.18994e-08
-1.21734e-07
4.02182e-08
-9.88535e-08
-1.94665e-08
-2.20669e-07
-6.93618e-08
-1.51244e-07
-3.92452e-08
-1.5822e-07
-3.25899e-08
-1.9915e-07
-3.5793e-08
-1.88667e-07
-2.20299e-08
-2.04372e-07
9.64622e-09
-1.83266e-07
2.07273e-08
-1.6964e-07
1.33996e-08
-1.65294e-07
2.64172e-08
-1.80726e-07
4.17636e-08
-1.38745e-07
-1.69951e-08
-8.62335e-08
5.6106e-08
-2.2898e-07
-2.1584e-08
-1.60242e-07
8.98528e-09
-1.28634e-07
-1.36932e-08
-1.42702e-07
3.92481e-08
-1.35937e-07
1.8441e-08
2.33971e-08
-1.34776e-07
-1.45857e-07
-6.59726e-08
-8.44172e-08
-1.27124e-07
-6.4855e-08
-1.39088e-07
-3.76742e-08
-1.51244e-07
-5.4641e-08
-4.73891e-08
1.96602e-08
-6.68134e-08
-3.29195e-08
-1.72e-07
1.13177e-08
-1.67014e-07
1.53401e-08
-1.7123e-07
1.48787e-08
-1.54405e-07
1.06523e-08
-1.40192e-07
-1.89573e-09
-1.26708e-07
-8.32104e-09
-1.23834e-07
-1.45792e-08
-1.32065e-07
-7.03817e-09
-1.44301e-07
-5.55056e-10
-1.41207e-07
-2.2844e-08
-1.4197e-07
-1.05812e-08
-1.29011e-07
1.18096e-09
-1.06844e-07
1.67591e-08
-1.04194e-07
2.63687e-08
-1.13949e-07
2.21097e-08
-1.14778e-07
1.2456e-08
-9.04265e-08
-7.17864e-09
-1.39335e-07
6.81275e-08
-1.49046e-07
1.76108e-08
-1.41343e-07
-2.27612e-08
-1.54087e-07
-2.40422e-08
-1.64875e-07
-3.60984e-08
-1.70144e-07
-4.64357e-08
-4.82818e-08
-1.75487e-08
-2.13669e-07
3.64213e-08
-2.13418e-07
-5.18781e-09
-1.91808e-07
-3.00646e-08
-1.96212e-07
-2.18337e-08
-1.73035e-07
-4.35723e-08
-1.91771e-07
2.40143e-08
-2.06827e-07
2.1765e-08
-2.19761e-07
2.65028e-09
-2.23462e-07
-6.43823e-09
-2.21167e-07
-1.45501e-08
-2.25357e-07
-1.57992e-08
-2.34214e-07
-7.09948e-09
-2.71034e-07
-1.73769e-08
-2.45755e-07
9.16927e-09
-2.03651e-07
-1.35145e-08
-2.29541e-07
3.68968e-08
-2.8854e-07
1.5722e-08
-2.67278e-07
4.08141e-08
-2.5061e-07
1.9787e-09
-2.58239e-07
5.17644e-08
-2.44178e-07
3.36895e-08
-1.26597e-07
6.0669e-08
-2.01627e-07
-1.37692e-08
-1.5925e-07
-1.25332e-08
-1.02396e-07
-1.66358e-08
-8.73296e-08
-3.45319e-08
-1.12756e-07
-4.39348e-08
-1.27746e-07
-2.55576e-08
-1.44454e-07
-1.62173e-08
-2.22605e-07
-7.56195e-09
-1.98853e-07
5.97773e-09
-1.9621e-07
7.00369e-09
-1.91452e-07
1.597e-08
-2.01433e-07
2.33805e-08
-2.11412e-07
3.63961e-08
-2.50136e-07
2.8729e-08
-1.07663e-07
4.86667e-08
-1.48785e-07
-5.70561e-08
-1.71518e-07
-3.69209e-10
-1.5768e-07
-6.36931e-09
-4.76993e-08
3.36948e-08
-1.58116e-07
-3.56214e-09
-1.56219e-07
1.33367e-08
1.10623e-08
-7.80152e-08
-2.50285e-07
-1.02996e-08
-1.46399e-07
-7.61115e-08
1.79703e-10
-1.04173e-07
-6.19063e-08
-1.30421e-07
2.44284e-08
-1.13372e-07
2.40994e-09
-6.15401e-08
7.11528e-08
-1.84641e-07
-1.91763e-08
-1.70554e-07
-6.31734e-10
-1.58665e-07
2.98868e-09
-1.48523e-07
5.09846e-10
-1.3801e-07
-1.241e-08
-1.27343e-07
-1.8989e-08
-1.1227e-07
-2.96527e-08
-1.43612e-07
2.28378e-08
-1.97363e-07
2.93728e-09
-1.71346e-07
4.36715e-09
-1.68589e-07
-1.50869e-08
-1.46093e-07
-2.13153e-08
-1.09969e-07
-1.93655e-08
-1.24216e-07
4.02044e-08
-1.29688e-07
2.75815e-08
-1.4725e-07
3.00173e-08
-4.28445e-08
4.36923e-08
-1.53594e-07
-2.81596e-08
-1.06524e-07
-2.97628e-08
-1.01824e-07
2.42969e-08
-1.09902e-07
-1.59636e-08
-1.35166e-07
-1.08347e-08
-1.37915e-07
-4.50937e-08
-5.97355e-08
6.13296e-08
-1.90762e-07
-3.89791e-08
-1.8482e-07
-9.24361e-09
-1.46587e-07
-1.70616e-08
-1.85778e-07
1.38255e-08
-5.95047e-08
-1.31027e-08
-1.48547e-07
-4.16126e-08
-1.37137e-07
1.03547e-08
-1.57698e-07
2.32117e-08
-1.74509e-07
1.03731e-08
-1.87822e-07
-1.23594e-09
-2.03621e-07
1.412e-14
-2.11251e-07
5.30579e-10
-2.30187e-07
1.73697e-09
-2.38709e-07
1.5257e-08
-1.45015e-07
5.11638e-08
-2.3217e-07
-2.81915e-08
-2.78142e-07
5.93257e-08
-2.38218e-07
8.90499e-10
-1.45137e-07
6.49931e-08
-2.29997e-07
-1.70839e-08
-2.00283e-07
1.62933e-09
-1.43562e-07
3.94834e-09
-1.36578e-07
-2.08924e-08
-1.15819e-07
-3.32916e-08
-9.42142e-08
-3.82405e-08
-8.93404e-08
-3.94052e-08
-1.06996e-07
-2.6279e-08
-1.03793e-07
-2.87599e-08
-1.2491e-07
5.06638e-09
-1.4005e-07
7.57829e-09
-1.38987e-07
4.91515e-09
-1.40524e-07
8.54141e-09
-1.50396e-07
2.58418e-08
-1.68169e-07
4.11544e-08
-1.95568e-07
6.37953e-08
-1.97449e-07
3.061e-08
-1.40003e-07
-1.02065e-08
-5.00778e-08
9.30789e-09
-1.76308e-07
-2.89053e-08
-1.6514e-07
-1.77178e-08
-1.7428e-07
4.24912e-08
-2.21378e-07
-8.25993e-09
-2.0821e-07
1.69118e-10
7.74772e-09
-1.41336e-07
-2.76759e-07
-2.27438e-07
-4.71863e-08
-1.90657e-07
-3.42814e-08
-1.9735e-07
-5.45828e-08
-1.7224e-07
-6.82363e-10
-1.69571e-07
-2.59343e-10
-1.67716e-07
1.75377e-08
-1.91867e-07
4.77866e-09
-1.7363e-07
3.28894e-08
-1.66719e-07
-3.92341e-09
-1.6222e-07
-3.98989e-09
-1.65547e-07
-9.08301e-09
-1.85956e-07
1.41909e-09
-9.12447e-08
3.09119e-08
-2.08123e-07
-1.55614e-08
-2.10538e-07
5.32094e-09
-1.99691e-07
-6.43576e-09
-2.14412e-07
-3.6668e-10
-2.32185e-07
-3.54317e-09
-1.07912e-07
1.27387e-08
-1.88366e-07
-3.30512e-08
-1.65531e-07
2.82426e-09
-1.56708e-07
2.11942e-08
-1.36103e-07
2.30868e-08
-1.73824e-07
7.78818e-09
-7.73578e-08
3.06476e-08
-1.72612e-07
-3.49372e-08
-1.91955e-07
-4.83795e-08
-2.03685e-07
8.94869e-10
-8.6559e-08
4.48164e-08
-1.89701e-07
-4.31897e-08
-1.76079e-07
-8.42327e-10
-1.91495e-07
6.17226e-09
-6.70906e-08
1.43216e-08
-2.19947e-07
1.06449e-08
-1.23204e-07
4.53672e-08
-9.13117e-08
-7.22477e-08
-1.73003e-07
-6.32308e-08
-1.8521e-07
3.50617e-08
-1.97734e-07
2.28975e-08
-2.17945e-07
1.91714e-08
-2.30235e-07
1.22896e-08
-2.34677e-07
4.97396e-09
-2.34194e-07
1.25426e-09
-2.43855e-07
2.49185e-08
-2.24004e-07
3.07913e-08
-1.34074e-07
3.6496e-08
-2.69733e-07
-1.20511e-08
-1.09955e-07
4.92715e-08
-1.65636e-07
-3.30344e-08
-1.5954e-07
-2.50433e-08
-1.45382e-07
-1.25283e-08
-1.313e-07
-1.01329e-08
-1.35741e-07
-1.64504e-08
-1.35133e-07
-3.38992e-08
-1.42208e-07
-3.11648e-08
-1.5511e-07
-2.65032e-08
-1.4975e-07
-3.19643e-08
-1.12493e-07
-6.60166e-08
-1.33891e-07
2.61977e-08
-1.36131e-07
9.8193e-09
-1.31744e-07
5.28137e-10
-1.36469e-07
1.32675e-08
-1.38813e-07
2.81858e-08
-1.24054e-07
2.63956e-08
-1.37703e-07
2.56856e-08
-1.2817e-07
2.10774e-08
-9.13077e-08
4.69051e-09
-7.9628e-08
-2.46643e-09
-1.26606e-07
1.67814e-08
-4.50957e-08
5.76493e-08
-1.62965e-07
5.54349e-09
-2.25468e-07
2.48429e-09
-1.83715e-07
1.01747e-08
1.05353e-08
-1.44998e-07
-1.07695e-07
-2.69962e-07
-6.43624e-08
-2.048e-07
-9.94443e-08
-1.83446e-07
-7.67195e-08
-1.47783e-07
-3.63465e-08
-1.45807e-07
-2.23554e-09
-1.71522e-07
4.28145e-08
-1.80575e-07
1.38308e-08
-1.70123e-07
2.2437e-08
-1.90655e-07
1.66083e-08
-1.98305e-07
3.65921e-09
-2.04287e-07
-3.10168e-09
-2.00804e-07
-2.06509e-09
-1.82538e-07
1.26449e-08
-1.92401e-07
-5.69927e-09
-1.98349e-07
1.1268e-08
-2.05514e-07
7.28897e-10
-2.25287e-07
1.94054e-08
-2.28347e-07
-4.84059e-10
-2.01098e-07
-1.45105e-08
-2.03102e-07
-3.13851e-08
-1.95954e-07
-4.32451e-09
-1.93433e-07
1.86734e-08
-1.98859e-07
2.85117e-08
-2.12646e-07
2.15756e-08
-2.0695e-07
2.46381e-08
-2.38721e-07
-3.16638e-09
-2.56209e-07
-3.08923e-08
-2.3504e-07
-2.02736e-08
-1.91516e-07
1.29184e-09
-1.98726e-07
-3.56166e-08
-1.87277e-07
-1.22906e-08
-1.9044e-07
9.33464e-09
-6.21539e-08
4.19469e-08
-1.75565e-07
-3.16374e-08
-2.13625e-07
2.88576e-08
-7.9103e-08
2.44587e-09
-1.00966e-07
-4.03371e-08
-2.00146e-07
-1.92724e-08
-1.86438e-07
5.24613e-09
-1.85592e-07
1.83254e-08
-1.84255e-07
1.29787e-08
-1.92803e-07
1.3523e-08
-2.15385e-07
2.38365e-08
-1.99249e-07
-4.29762e-08
-1.78137e-07
1.14971e-08
-1.4961e-07
5.86143e-08
-1.69611e-07
6.42383e-09
-1.21118e-07
7.79689e-10
-1.43155e-07
-1.13345e-08
-1.5089e-07
-1.73072e-08
-1.21942e-07
-4.14755e-08
-9.66059e-08
-3.54688e-08
-1.04999e-07
-8.1395e-09
-1.21686e-07
-1.72116e-08
-1.41785e-07
-1.10651e-08
-1.54429e-07
-1.54346e-08
-2.03992e-07
-3.46928e-08
-5.3107e-08
-7.24258e-09
-1.78255e-07
-2.36296e-09
-1.46975e-07
-2.32785e-08
-1.30889e-07
-1.55576e-08
-1.52212e-07
3.42416e-08
-1.36183e-07
1.21571e-08
-9.95571e-08
-1.03348e-08
-1.16694e-07
4.28228e-08
-1.00043e-07
4.42656e-09
-7.30502e-08
-2.23017e-08
-1.04673e-07
2.88624e-08
-1.18336e-07
3.04446e-08
-9.72173e-08
3.59424e-08
-1.13884e-07
2.22104e-08
-1.27099e-07
1.55404e-08
-1.31154e-07
1.27616e-08
5.94797e-08
-1.46821e-07
-1.34569e-07
-3.02425e-07
1.04423e-07
-2.54919e-07
-1.46467e-07
-1.89546e-07
1.4784e-08
-1.80703e-07
-4.32557e-08
-1.71784e-07
-9.40325e-09
-2.50908e-07
-3.17707e-08
-2.39348e-07
-2.89355e-10
-2.31331e-07
1.44185e-08
-2.29445e-07
1.47216e-08
-2.2817e-07
2.38401e-09
-2.22531e-07
-8.74161e-09
-2.09953e-07
-1.46436e-08
-2.16435e-07
-3.26335e-08
-1.57521e-07
-1.28543e-08
-1.76587e-07
3.00269e-08
-2.43031e-07
1.55716e-08
-1.79886e-07
8.01907e-09
-1.72767e-07
-7.60382e-09
-1.68269e-07
-1.90094e-08
-1.7678e-07
-2.28741e-08
-1.82164e-07
1.05813e-09
-1.89285e-07
2.57941e-08
-1.89762e-07
2.89881e-08
-2.08808e-07
4.06218e-08
-2.10817e-07
2.6647e-08
-2.2079e-07
6.80558e-09
-2.2814e-07
-2.35427e-08
-2.14796e-07
-3.36177e-08
-2.15102e-07
-4.79665e-08
-1.82888e-07
-1.64283e-08
-1.77128e-07
-1.99167e-08
-1.63239e-07
-4.55351e-09
-1.20073e-07
-2.46931e-09
-7.18466e-08
7.66874e-08
-1.92673e-07
-5.15367e-09
-6.0182e-08
2.52317e-08
-7.44457e-08
-2.53136e-08
-1.87405e-07
-6.02159e-08
-1.70693e-07
-1.33778e-08
-1.59509e-07
5.32793e-09
-2.21812e-07
2.29901e-08
-1.40281e-07
-1.39862e-08
-2.25525e-07
5.67434e-08
-1.39008e-07
7.75435e-08
-1.39107e-07
1.30155e-08
-2.00693e-07
-3.29165e-08
-1.74161e-07