/*--------------------------------*- C++ -*----------------------------------*\
  =========                 |
  \\      /  F ield         | OpenFOAM: The Open Source CFD Toolbox
   \\    /   O peration     | Website:  https://openfoam.org
    \\  /    A nd           | Version:  12
     \\/     M anipulation  |
\*---------------------------------------------------------------------------*/
FoamFile
{
    format      ascii;
    class       surfaceScalarField;
    location    "0.2";
    object      phi.water_0;
}
// * * * * * * * * * * * * * * * * * * * * * * * * * * * * * * * * * * * * * //

dimensions      [0 3 -1 0 0 0 0];

internalField   nonuniform List<scalar> 
7375
(
1.48815e-08
-4.65752e-08
2.09484e-07
-3.57315e-07
1.59383e-07
-4.60047e-09
1.44509e-07
6.57409e-08
1.29904e-07
1.44916e-08
9.49124e-08
3.49109e-08
1.24698e-07
-2.98453e-08
1.27036e-07
-3.65365e-09
1.49949e-07
-2.31474e-08
1.62142e-07
-1.06474e-08
2.63568e-07
5.33047e-08
1.24419e-07
-1.48445e-08
2.72987e-07
8.31203e-09
1.43332e-07
-2.97754e-08
1.50141e-07
-6.80807e-09
1.53724e-07
-2.03567e-09
1.83633e-07
-3.00882e-08
1.67135e-07
1.63492e-08
1.93434e-07
-2.42394e-08
2.92404e-07
5.74704e-08
1.66823e-07
-3.25476e-08
1.47647e-07
1.76999e-08
1.33537e-07
1.41102e-08
1.43895e-07
-8.99231e-09
1.91281e-07
-4.84611e-08
1.63646e-07
-2.58046e-08
2.15445e-07
-5.6216e-10
2.26711e-07
-6.53143e-09
2.18831e-07
7.9907e-09
1.96053e-07
2.03652e-08
1.97381e-07
7.53423e-10
1.60456e-07
-1.7227e-08
2.1689e-07
-6.88765e-09
1.72809e-07
4.57507e-08
2.97322e-07
3.07558e-08
1.43817e-07
-5.40243e-08
2.00878e-07
-5.29484e-09
2.02992e-07
-2.04844e-09
2.08004e-07
-5.06651e-09
2.13164e-07
-5.12283e-09
2.06517e-07
4.51239e-09
2.17613e-07
-1.1209e-08
2.43895e-07
-2.4054e-08
2.74325e-07
-2.73494e-08
2.5724e-07
-3.51835e-08
2.83681e-07
1.99734e-08
2.55947e-07
2.77346e-08
2.16624e-07
4.37809e-08
1.82224e-07
3.60153e-08
2.78986e-07
5.7678e-08
1.30683e-07
-9.72894e-09
1.27159e-07
3.54026e-09
1.3911e-07
-1.19185e-08
1.38525e-07
-8.62723e-10
1.70674e-07
-3.24768e-08
1.46971e-07
2.39341e-08
1.59015e-07
-1.20433e-08
1.84135e-07
-2.15237e-08
3.4088e-07
1.16827e-10
2.18071e-07
-3.5903e-08
2.20236e-07
1.01645e-10
1.79897e-07
4.01215e-08
1.54546e-07
2.38134e-08
1.43544e-07
1.1025e-08
1.22648e-07
2.09045e-08
1.11149e-07
1.0373e-08
1.16538e-07
-5.38944e-09
1.1047e-07
8.29755e-09
2.48623e-07
1.6083e-08
1.3412e-07
-4.21818e-08
1.65671e-07
-2.8141e-08
1.47699e-07
-3.42224e-08
1.97383e-07
5.30535e-10
2.05233e-07
-7.82901e-09
4.24418e-08
-1.45723e-07
-6.28652e-08
-1.60332e-07
-1.7342e-07
-1.35713e-07
-2.89214e-08
-8.30383e-08
1.30664e-08
-6.44379e-08
-3.26172e-09
-2.25502e-08
-6.97675e-09
-3.74751e-08
-1.50742e-08
-2.05601e-08
-2.07784e-08
-5.37068e-08
9.7608e-09
5.46891e-08
3.58579e-08
-7.6169e-09
-3.80981e-08
-2.71806e-08
-4.71174e-08
4.49751e-08
-1.21694e-08
-4.90465e-09
2.01045e-08
-3.63325e-08
2.45504e-08
-4.77547e-08
8.8994e-09
4.71618e-08
3.13868e-08
-5.50933e-08
-3.55807e-08
7.29394e-08
1.69886e-09
7.02602e-09
-3.09054e-08
-1.31335e-09
-2.43852e-08
2.16956e-08
-5.36362e-09
-1.12835e-08
4.72334e-08
-3.17474e-08
1.08239e-08
7.03183e-08
7.98455e-09
-6.69001e-08
-4.52977e-08
-2.5101e-08
-4.1939e-08
1.56026e-08
-4.77216e-08
1.49609e-08
8.39845e-09
-1.65314e-08
5.18576e-08
-3.52672e-08
1.93208e-08
-6.1564e-08
8.6177e-09
4.31854e-08
4.47245e-08
-7.48283e-08
9.52352e-09
-2.52167e-08
-1.98762e-08
-5.75722e-08
-7.3961e-08
-3.16982e-09
-7.24447e-09
7.91733e-10
-6.00974e-09
-1.92199e-10
-4.07235e-09
-4.10171e-09
-1.22544e-09
-5.04448e-09
5.30789e-09
1.67462e-08
-3.31149e-08
5.0474e-08
-5.84674e-08
8.97351e-08
-6.66102e-08
1.06204e-07
-4.92941e-08
1.39664e-07
-1.33486e-08
1.64042e-07
5.35192e-10
1.60596e-07
4.56059e-08
1.20878e-07
7.65433e-08
9.38468e-08
8.53482e-08
1.12063e-08
7.46306e-08
-3.09471e-08
4.5694e-08
-5.49011e-08
1.20357e-08
-8.89044e-08
3.2234e-08
8.29893e-09
2.68628e-08
-6.01229e-08
-6.30054e-08
-4.39193e-08
-8.01285e-08
-1.81518e-08
-4.72908e-08
5.47229e-08
-2.09998e-08
2.29387e-08
-4.11853e-09
1.44104e-08
8.48317e-09
3.34777e-08
2.07776e-08
2.44154e-08
3.3221e-08
-2.88314e-08
6.46829e-08
-5.90169e-08
5.10901e-08
-7.7262e-08
2.86183e-08
-7.5623e-08
-7.08317e-09
-1.07887e-07
-1.11969e-08
-4.76675e-08
6.97244e-09
-1.26258e-07
-1.50163e-08
-9.57994e-08
-6.08794e-09
-1.03842e-07
-2.6808e-08
-6.72907e-08
-3.6021e-08
3.12525e-08
4.80952e-08
-1.45836e-08
-1.29379e-07
-1.0662e-07
-2.38947e-07
-2.10443e-07
-1.41141e-07
-1.2429e-07
-1.12117e-07
-1.60908e-08
-1.17827e-07
2.44823e-09
-1.30173e-07
4.04156e-09
-4.68586e-08
5.84884e-08
-5.87307e-08
-8.42823e-09
-5.23297e-08
3.79414e-09
-1.30072e-07
-4.01084e-08
-1.37428e-07
-3.2458e-08
-1.25518e-07
-5.84315e-08
-9.15819e-08
-4.61051e-08
-6.13493e-08
-1.01281e-08
-4.57984e-08
8.99964e-09
-2.68092e-08
-1.01937e-08
-5.96086e-08
6.38661e-08
-1.16667e-07
2.11152e-08
-1.11552e-07
-3.41688e-09
-1.35584e-07
-8.57161e-09
-1.80895e-07
1.92601e-08
-6.12946e-08
3.37782e-08
-1.76958e-07
8.24491e-09
-1.86515e-07
2.03815e-08
-1.75904e-07
-2.78918e-09
-2.55194e-07
-1.51629e-08
-2.49429e-07
1.01332e-09
-1.5903e-07
1.61864e-08
-1.74224e-07
2.52145e-08
-2.58946e-07
-1.81676e-08
-2.34201e-07
-5.48049e-09
-1.64052e-07
9.27993e-08
-1.44007e-07
2.59578e-08
-2.36881e-07
-5.17377e-08
-2.20324e-07
-3.92503e-08
-9.55541e-08
-4.17241e-08
-1.92136e-07
-6.50276e-08
-1.51152e-07
-4.90148e-08
-1.48478e-07
-8.34624e-09
-1.07026e-07
-4.15869e-08
-7.01702e-08
-3.07777e-08
-9.85439e-08
-5.11894e-09
-9.15475e-08
-6.54635e-08
-8.82682e-08
-7.12962e-08
-5.16433e-08
-8.45295e-08
-1.72672e-08
-4.74153e-08
3.27606e-08
-5.01735e-08
6.93574e-08
1.05165e-08
7.04028e-08
7.6287e-08
1.91564e-08
1.36943e-07
-4.10286e-08
1.34816e-07
-9.05399e-08
9.56242e-08
-1.36055e-07
5.75507e-08
-1.21085e-07
1.72645e-08
-8.89705e-08
-5.52527e-09
-1.03846e-07
-4.81297e-08
-1.34472e-07
-4.9502e-08
-1.49858e-07
-3.19048e-08
-1.60672e-07
-1.0185e-08
-1.65641e-07
8.50437e-10
-1.42858e-07
-1.28422e-08
-1.11463e-07
-1.04077e-08
-1.15187e-07
3.42946e-08
-1.60576e-07
5.77793e-08
-1.12304e-07
5.62158e-08
-1.01318e-07
1.76328e-08
-1.11913e-07
3.51208e-09
-1.10991e-07
-1.21193e-08
-8.64674e-08
-1.75504e-08
-1.04219e-07
2.8893e-09
-1.32252e-07
2.18833e-08
-1.87861e-07
2.88006e-08
-8.98511e-08
2.21623e-08
-1.52032e-07
-4.34324e-08
-2.94296e-08
-1.39197e-07
-1.41388e-07
-1.85678e-07
-1.50316e-07
-2.32261e-07
-7.58119e-08
-1.9598e-07
-5.2372e-08
-1.54699e-07
-3.88334e-08
-1.36192e-07
-1.44646e-08
-8.98607e-08
1.156e-08
-7.87557e-08
-1.95332e-08
-6.50037e-08
-9.95782e-09
-8.9885e-08
-1.56362e-08
-1.09472e-07
-1.17547e-08
-1.31886e-07
-3.60174e-08
-1.28927e-07
-5.04086e-08
-8.06429e-08
-5.84125e-08
-1.02588e-07
2.95966e-08
3.15757e-09
4.09379e-08
-1.26833e-07
3.89449e-08
-1.40966e-07
3.48923e-08
-1.58859e-07
1.44766e-08
-1.5976e-07
-9.30018e-09
-1.68376e-07
-2.4871e-08
-1.64303e-07
8.28376e-08
-2.00588e-07
4.453e-08
-2.07603e-07
2.73963e-08
-2.09663e-07
-7.28712e-10
-2.0366e-07
-7.29255e-08
-2.23148e-07
2.0305e-08
-1.91654e-07
3.62867e-08
-1.90981e-07
2.45418e-08
-2.43621e-07
3.19865e-08
-1.57119e-07
6.72074e-08
-2.36141e-07
1.73153e-08
-2.39267e-07
2.39368e-08
-2.59564e-07
-3.18547e-08
-2.76939e-07
-7.1492e-08
-2.0641e-07
-5.97741e-08
-2.67793e-07
-5.66073e-08
-2.21056e-07
-4.30769e-08
-2.28583e-07
-8.18635e-10
-1.23852e-07
1.05593e-08
-8.93207e-08
-6.6309e-08
-1.86552e-07
-6.16245e-08
-1.62339e-07
-9.22738e-08
-2.13539e-07
-7.01878e-08
-1.40781e-07
-1.04954e-07
-2.06764e-07
1.45385e-08
-8.48417e-08
-1.57351e-08
-1.04003e-07
3.02356e-08
-7.08456e-08
4.23513e-08
-1.62873e-07
7.36934e-08
-1.42615e-07
1.13183e-07
-1.43284e-07
9.62937e-08
-1.40536e-07
5.48028e-08
-1.22916e-07
-3.55615e-10
-1.07063e-07
-2.13776e-08
-1.16062e-07
-3.91309e-08
-1.39847e-07
-2.57163e-08
-1.52111e-07
-1.98431e-08
-1.51937e-07
-1.03591e-08
-1.66714e-07
1.56276e-08
-1.67147e-07
-1.24088e-08
-1.75447e-07
-2.21359e-09
-1.45501e-07
4.30506e-09
-1.22911e-07
3.46003e-08
-1.16186e-07
5.00007e-08
-1.13465e-07
1.49123e-08
-1.26932e-07
1.69792e-08
-1.26154e-07
-1.28968e-08
-9.82023e-08
-4.55018e-08
-8.44314e-08
-1.08811e-08
-8.69205e-08
2.43728e-08
-1.4051e-07
8.23895e-08
-1.42588e-07
2.42403e-08
-1.50751e-07
-3.57123e-08
-2.74976e-08
-1.58822e-07
-1.61803e-07
-1.53673e-07
-1.40786e-07
-1.48439e-07
-8.10455e-08
-1.18975e-07
-8.26798e-08
-1.52476e-07
-5.33245e-09
-1.28317e-07
-3.86238e-08
-1.40825e-07
2.38252e-08
-1.51426e-07
-8.93215e-09
-1.27315e-07
-3.40684e-08
-1.14391e-07
-2.85605e-08
-1.0999e-07
-1.61554e-08
-1.25757e-07
-2.06177e-08
-1.45134e-07
-3.10317e-08
-4.62495e-08
-1.54821e-09
-1.46288e-07
-2.40733e-08
-8.95312e-08
-1.84543e-08
-1.23278e-07
2.14488e-08
-9.51528e-08
5.92485e-08
-1.34809e-07
5.26257e-08
-1.64348e-07
1.83744e-08
-9.83405e-08
6.55794e-08
-2.08088e-07
3.79249e-08
-1.90445e-07
2.7164e-08
-1.52752e-07
-1.02963e-08
-2.02384e-07
-2.85567e-09
-1.41387e-07
7.38033e-08
-2.44779e-07
-3.0012e-08
-2.02913e-07
-8.07584e-09
-1.71038e-07
-7.25942e-09
-1.5962e-07
1.89409e-08
-1.3643e-07
4.3325e-08
-1.43986e-07
2.81957e-08
-1.40637e-07
2.1767e-08
-1.58301e-07
-1.54446e-08
-2.01171e-07
-2.92099e-08
-2.15664e-07
-4.52804e-08
-2.70763e-07
-4.99278e-08
-2.64093e-07
1.49003e-09
-2.41228e-07
-2.88302e-08
-1.95786e-07
-3.65242e-08
-7.15805e-08
-2.98897e-08
-1.94002e-07
-9.4148e-08
-9.87371e-08
-3.26607e-08
-2.492e-07
-7.58202e-08
-7.36473e-09
-3.41164e-08
-2.61002e-07
-9.40621e-08
-1.25869e-07
5.70311e-08
-2.27146e-07
-2.21959e-08
-2.1252e-07
2.56705e-08
-2.11671e-07
7.28447e-08
-1.76011e-07
7.75229e-08
-1.49101e-07
6.93835e-08
-1.05006e-07
1.08189e-08
-1.18859e-07
1.3498e-08
-1.24675e-07
-1.55617e-08
-1.35198e-07
-2.86077e-08
-1.24111e-07
-3.80687e-08
-2.09822e-07
1.35753e-08
-1.64056e-07
-2.22513e-09
-1.66868e-07
1.84395e-08
-1.89194e-07
9.91795e-09
-2.38007e-07
-2.73152e-09
-1.96198e-07
1.37327e-08
-1.71413e-07
6.06503e-09
-1.94734e-07
2.10292e-08
-1.80301e-07
5.42252e-08
-2.06239e-07
4.29179e-08
-2.35665e-07
1.65294e-08
-1.5035e-07
2.44601e-08
-1.60445e-07
-7.85035e-10
-1.2611e-07
-9.9621e-09
-2.19101e-07
-3.16562e-08
-1.99416e-07
4.5548e-09
-1.90644e-07
7.27515e-09
-1.77131e-08
-1.26834e-07
-2.02002e-07
-1.34606e-07
-1.79863e-07
-1.81173e-07
-3.4954e-08
-3.71403e-08
-1.75421e-08
-2.40148e-07
-8.98192e-09
-8.69854e-08
1.61372e-08
-1.83336e-07
-3.35335e-08
-1.79536e-07
-1.46016e-08
-1.67417e-07
-4.61874e-08
-1.53983e-07
-4.19944e-08
-1.37903e-07
-3.22358e-08
-1.43209e-07
-1.53116e-08
-1.13818e-07
-6.10455e-08
-1.19926e-07
4.56029e-09
-1.70677e-07
-2.33478e-08
-1.19209e-07
-1.74822e-08
-7.84903e-08
-2.06899e-08
-5.01078e-08
3.1181e-08
-6.61369e-08
6.93229e-08
-8.47566e-08
3.71823e-08
-1.39999e-07
-3.33282e-08
-2.12858e-07
-4.6962e-08
-2.50965e-07
1.07842e-08
-1.18017e-07
6.63521e-08
-1.36987e-07
1.75124e-08
-1.86847e-07
-3.00453e-08
-1.86529e-07
-3.25422e-08
-1.6995e-07
-2.29213e-08
-1.4918e-07
-2.80292e-08
-1.2229e-07
-9.47027e-09
-1.00398e-07
1.99672e-08
-1.29309e-07
4.81376e-09
-7.44378e-08
1.94371e-08
-1.0408e-07
1.51117e-08
-1.47128e-07
1.5041e-08
-1.96206e-07
2.29676e-09
-2.29235e-07
-1.68984e-08
-1.86449e-07
-4.12806e-08
-1.59872e-07
-5.37759e-08
-1.25653e-07
-6.91057e-08
-1.10631e-07
-4.63462e-08
-1.51968e-07
-5.48997e-08
-1.57789e-07
-2.65069e-08
-2.12903e-07
-2.07054e-08
-9.5291e-08
3.89664e-09
-1.48998e-07
-3.84427e-08
-2.08977e-07
-3.7073e-08
-2.32058e-07
4.84122e-08
-2.36021e-07
2.96341e-08
-1.97943e-07
3.7175e-08
-1.68804e-07
4.83842e-08
-1.6955e-07
6.83996e-08
-5.059e-08
4.92442e-08
-1.76682e-07
-1.51703e-08
-1.79969e-07
-1.22745e-08
-2.57104e-07
-3.23153e-09
-9.35921e-08
5.40035e-09
-2.38078e-07
-4.9113e-08
-1.75785e-07
-1.28902e-08
-1.97796e-07
4.04502e-08
-2.14088e-07
2.62104e-08
-2.21725e-07
4.90616e-09
-1.96632e-07
-1.12203e-08
-1.77308e-07
-1.32583e-08
-1.88095e-07
3.16017e-08
-1.82752e-07
4.8882e-08
-1.94235e-07
5.38516e-08
-2.03115e-07
2.54101e-08
-1.76581e-07
-2.07331e-09
-1.9593e-07
-3.31949e-08
-1.48742e-07
-5.39068e-09
-2.04779e-07
-2.76607e-08
-2.01098e-07
5.26321e-08
-2.10464e-07
1.66408e-08
-1.27647e-08
-2.07778e-07
-1.71803e-07
-1.46268e-07
-6.36776e-08
-1.48341e-07
-3.02048e-08
-1.14172e-07
-5.1532e-08
-1.34996e-07
1.18416e-08
-9.33531e-08
-2.55053e-08
-1.08149e-07
-1.90799e-08
-1.41024e-07
-3.34853e-08
-1.11488e-07
-2.42114e-08
-7.40859e-08
-7.93965e-08
-1.09464e-07
3.14289e-09
-1.54574e-07
2.82206e-08
-9.04653e-08
3.20542e-08
-2.0835e-07
-2.97837e-08
-2.05894e-07
-2.60672e-08
-2.37903e-07
-3.95104e-08
-1.18943e-07
-8.90106e-08
-9.77043e-08
9.94292e-09
-1.34689e-07
1.07015e-07
-1.94348e-07
9.62201e-08
-1.66458e-07
9.36e-08
-1.17792e-07
6.24809e-08
-1.60165e-07
2.51606e-09
-8.6362e-08
4.43081e-08
-1.02239e-07
3.33896e-08
-1.23643e-07
-8.94742e-09
-1.19341e-07
-3.68447e-08
-1.33933e-07
-8.32848e-09
-1.5165e-07
-1.05981e-08
-1.44032e-07
-1.70881e-08
-1.25085e-07
1.00958e-09
-1.12216e-07
-8.10326e-09
-9.63054e-08
3.52627e-09
-1.19769e-07
3.7199e-08
-1.42679e-07
3.81067e-08
-1.48167e-07
9.24074e-09
-1.39389e-07
-2.56763e-08
-1.35023e-07
-4.51858e-08
-1.14623e-07
-7.34268e-08
-1.16179e-07
-7.01553e-08
-1.55464e-07
-5.98311e-08
-1.5506e-07
-1.95788e-09
-1.68751e-07
-1.28158e-08
-1.80742e-07
-8.71386e-09
-1.75749e-07
6.96146e-10
-1.89584e-07
-2.65217e-08
-2.09888e-07
-2.12678e-08
-1.87427e-07
-2.41783e-08
-1.59097e-07
2.91368e-09
-1.2876e-07
6.83893e-09
-1.1597e-07
3.52344e-08
-1.09433e-07
6.01332e-08
-1.22901e-07
6.22051e-08
-1.75402e-07
3.8585e-08
-2.02819e-07
1.5143e-08
-2.42287e-07
-1.30513e-08
-1.76853e-07
-8.79665e-09
-1.96143e-07
-3.36278e-08
-1.01286e-07
4.86291e-08
-2.04862e-07
-1.02167e-08
-1.99443e-07
2.07908e-08
-1.93559e-07
-9.77022e-10
-1.89821e-07
-1.49579e-08
-1.94177e-07
-8.99408e-09
-2.24238e-07
6.16632e-08
-1.77376e-07
3.82961e-09
-1.84462e-07
6.03282e-08
-1.65378e-07
4.44425e-09
-1.20874e-07
-4.70562e-08
-1.60936e-07
6.86693e-09
-1.47208e-07
-2.06206e-08
-4.60941e-08
2.81029e-08
-1.43165e-07
-5.10453e-09
-1.53544e-07
2.702e-08
2.07724e-08
-1.78659e-07
-1.63313e-07
-2.76164e-07
-1.05488e-07
-1.49903e-07
4.11595e-10
-1.75975e-07
-2.39308e-08
-1.66923e-07
2.78997e-09
-1.24385e-07
-6.87454e-08
-1.50626e-07
7.16151e-09
-1.48674e-07
-3.69542e-08
-1.67864e-07
-5.79109e-08
-9.21098e-08
5.35983e-08
-2.18903e-07
-2.53407e-08
-2.23144e-07
3.01851e-08
-2.39074e-07
4.7654e-08
-2.81778e-07
1.24843e-08
-3.20642e-07
-3.97638e-08
-3.73957e-07
1.31273e-08
-1.91039e-07
9.41183e-08
-1.65985e-07
-1.32978e-08
-2.6752e-07
5.05443e-08
-2.20974e-07
4.96745e-08
-1.7433e-07
4.82557e-08
-1.53641e-07
3.95868e-08
-3.83554e-08
4.41079e-08
-1.35981e-07
-1.28212e-08
-1.47027e-07
-7.32265e-09
-1.66315e-07
1.03404e-08
-1.81484e-07
3.00835e-08
-1.91738e-07
1.92532e-09
-2.0668e-07
4.34421e-09
-2.20531e-07
-9.87135e-10
-1.84127e-07
-3.50396e-08
-1.85868e-07
-8.24056e-09
-1.86117e-07
3.77479e-09
-1.64755e-07
1.56773e-08
-1.27054e-07
1.76626e-11
-8.02946e-08
-3.71397e-08
-4.69063e-08
-5.85858e-08
-4.04131e-08
-5.12706e-08
-7.70776e-08
-3.79486e-08
-1.8627e-07
-1.41961e-08
-1.98992e-07
7.16099e-09
-1.95267e-07
-5.68261e-09
-1.90028e-07
-1.8055e-08
-1.94432e-07
-4.30922e-09
-1.83088e-07
-1.06478e-08
-2.18262e-07
8.38197e-09
-2.31245e-07
-8.06758e-09
-2.39892e-07
-1.52846e-08
-2.17174e-07
-1.98035e-08
-1.94303e-07
-1.40497e-08
-1.72838e-07
1.55145e-08
-1.61503e-07
4.70529e-08
-1.74367e-07
7.27873e-08
-1.92348e-07
5.65659e-08
-2.13544e-07
3.63394e-08
-2.32728e-07
6.13353e-09
-2.40233e-07
-1.38142e-09
-1.20432e-07
3.04624e-09
-1.86892e-07
-3.91107e-08
-1.77315e-07
-2.17005e-08
-1.6552e-07
8.99606e-09
-1.67753e-07
1.25661e-09
-1.74999e-07
-9.49766e-09
-8.11499e-08
5.40349e-08
-2.64555e-07
3.88604e-08
-1.22354e-07
6.99125e-08
-1.97622e-07
-1.7503e-08
-1.89713e-07
-7.4158e-09
-6.33103e-08
-1.6754e-08
-2.44423e-07
-1.84098e-08
-1.91814e-07
-2.12545e-08
-1.43502e-07
-2.07069e-08
-1.89177e-07
4.05698e-08
-2.02805e-07
4.06474e-08
3.42305e-08
-1.75784e-07
-1.58622e-07
-2.11565e-07
-5.42781e-08
-1.81398e-07
-3.15958e-08
-1.92322e-07
-1.30068e-08
-1.9151e-07
2.45336e-11
-1.28217e-07
2.50969e-08
-2.13551e-07
-6.14733e-08
-2.32824e-07
-2.00561e-08
-1.49484e-07
1.62233e-08
-2.58801e-07
-4.25958e-08
-2.61665e-07
2.92823e-08
-2.70302e-07
3.88227e-08
-2.78499e-07
5.59357e-08
-2.8029e-07
1.41314e-08
-3.18207e-07
1.80478e-09
-2.99594e-07
-5.48559e-09
-3.41015e-07
-2.72326e-08
-1.97309e-07
-1.26872e-10
-3.00233e-07
-5.15539e-08
-2.66271e-07
1.52057e-08
-2.25162e-07
5.89053e-08
-2.21026e-07
3.54517e-08
-2.02057e-07
2.67497e-08
-2.36486e-07
2.16087e-08
-2.4686e-07
6.38185e-10
-2.54774e-07
1.8255e-08
-2.33189e-07
8.49906e-09
-2.02723e-07
-2.85407e-08
-2.00522e-07
2.12114e-09
-2.0871e-07
-4.24286e-08
-1.71127e-07
-2.17395e-08
-1.57141e-07
-2.39722e-08
-1.4602e-07
-5.85607e-09
-1.19057e-07
-1.00836e-08
-9.66994e-08
-2.25653e-08
-9.58965e-08
-3.8919e-08
-1.03501e-07
-5.24954e-08
-1.09485e-07
-4.58089e-08
-1.29109e-07
-2.00285e-08
-1.81683e-07
-1.37682e-08
-1.85924e-07
1.32554e-08
-1.50757e-07
-4.0849e-08
-1.62224e-07
-6.58825e-09
-1.709e-07
4.36742e-09
-1.65575e-07
3.57864e-08
-1.64694e-07
7.50156e-09
-1.72848e-07
8.57867e-11
-1.86106e-07
-2.02621e-09
-2.04579e-07
-1.31616e-09
-2.1909e-07
4.56763e-10
-2.41031e-07
3.76135e-08
-2.49931e-07
5.70146e-08
-2.50507e-07
7.3364e-08
-2.36287e-07
4.23465e-08
-2.299e-07
2.99519e-08
-2.34939e-07
1.11736e-08
-2.3246e-07
-1.48899e-09
-1.73347e-07
-5.60667e-08
-2.07962e-07
-6.59541e-09
-1.88994e-07
-4.06688e-08
-1.44117e-07
-3.58806e-08
-1.4672e-07
3.8604e-09
-4.49415e-08
4.40007e-08
-3.66413e-08
4.51836e-08
-1.62855e-07
9.7973e-09
-1.20469e-07
2.75263e-08
-1.51968e-07
1.38182e-08
-1.6446e-07
3.39848e-09
-2.22061e-08
-1.97795e-09
-1.96253e-07
-4.91704e-08
-1.94788e-07
2.62848e-08
-1.02705e-07
4.20795e-08
-2.04842e-07
-1.1523e-08
-1.78712e-07
1.63403e-08
2.07416e-08
-2.22877e-07
-1.74082e-07
-1.38268e-07
-6.50551e-08
-1.99193e-07
-1.22983e-07
-1.79228e-07
-3.50039e-08
-1.61921e-07
-1.89337e-08
-1.70193e-07
-1.91826e-08
-1.61852e-07
-1.64871e-08
-2.07702e-07
2.57942e-08
-2.09122e-07
1.74774e-08
-2.40058e-07
-1.16594e-08
-2.68984e-07
5.82083e-08
-2.58637e-07
2.55766e-08
-2.74335e-07
2.21683e-08
-2.37511e-07
3.13141e-08
-2.36945e-07
-1.18361e-09
-2.28416e-07
-1.40704e-08
-2.38864e-07
-1.67853e-08
-2.2972e-07
-9.26884e-09
-2.71817e-07
-9.45683e-09
-2.77179e-07
2.05683e-08
-2.63095e-07
4.48206e-08
-2.58311e-07
3.0668e-08
-2.31934e-07
3.77393e-10
-2.4577e-07
3.53048e-08
-2.48419e-07
3.28741e-09
-2.28081e-07
-2.0828e-09
-2.09137e-07
-1.04449e-08
-8.33691e-08
1.8193e-09
-1.67423e-07
-6.7534e-08
-1.65838e-07
-4.57208e-08
-1.56949e-07
-3.08506e-08
-1.55965e-07
-2.49552e-08
-1.47027e-07
-1.47942e-08
-1.57773e-07
5.65854e-10
-1.47964e-07
-3.26047e-08
-1.64913e-07
-2.40489e-08
-1.98525e-07
-1.88832e-08
-2.12798e-07
-2.95103e-08
-2.07092e-07
-2.57341e-08
-2.12237e-07
-8.48256e-09
-2.36292e-07
-1.44485e-08
-1.25917e-07
5.5812e-08
-1.39311e-07
6.80569e-09
-1.17404e-07
-1.75393e-08
-2.04088e-07
-3.28057e-08
-1.77904e-07
-1.86823e-08
-1.75174e-07
-2.64456e-09
-1.73856e-07
-1.5704e-09
-1.9529e-07
2.20911e-08
-2.25796e-07
8.10447e-08
-2.37379e-07
4.49304e-08
-2.30349e-07
4.99843e-08
-2.30109e-07
7.54746e-08
-2.28721e-07
4.09582e-08
-2.15786e-07
1.70176e-08
-2.07869e-07
3.22339e-09
-2.03436e-07
-5.92162e-09
-8.14689e-08
-2.27291e-08
-2.08929e-07
-3.28437e-08
-1.83006e-07
-6.80292e-08
-1.35347e-07
-8.44001e-08
-1.14094e-07
-1.73926e-08
-8.32595e-08
1.31663e-08
-8.90135e-08
5.09378e-08
-1.06678e-07
2.74616e-08
-1.03227e-07
2.40755e-08
-1.26085e-07
3.6677e-08
-1.57255e-07
3.29643e-08
-4.91514e-08
4.63387e-08
-7.35158e-08
-2.37971e-08
-2.04566e-07
3.85288e-09
-1.77279e-07
1.22756e-08
-1.8231e-07
-6.49216e-09
-1.55817e-07
-1.01535e-08
-4.96282e-09
-2.13951e-07
-1.2743e-07
-2.1742e-07
-4.17043e-08
-1.92766e-07
-1.48891e-07
-1.83566e-07
-4.4204e-08
-1.64109e-07
-3.83907e-08
-1.90481e-07
5.44177e-09
-7.54195e-08
2.5329e-08
-2.03687e-07
-4.46127e-10
-2.08345e-07
2.21362e-08
-1.19232e-07
5.45047e-08
-2.49012e-07
-1.6508e-08
-2.05781e-07
3.35822e-08
-1.98025e-07
1.20867e-08
-1.62617e-07
-3.77399e-09
-1.44202e-07
-1.95983e-08
-1.3766e-07
-2.06129e-08
-1.43989e-07
-1.04556e-08
-1.44598e-07
-8.6595e-09
-1.6334e-07
9.28498e-09
-1.71489e-07
2.87176e-08
-1.55135e-07
2.84662e-08
-1.56204e-07
3.0144e-08
-4.64775e-08
4.80074e-08
-1.48877e-07
-1.55354e-08
-1.37232e-07
-9.8761e-09
-1.39038e-07
-2.76117e-10
-1.43036e-07
-6.44732e-09
-1.11171e-07
-3.0045e-08
-1.27407e-07
-5.19869e-08
-1.29628e-07
-4.34994e-08
-1.34802e-07
-2.56763e-08
-1.59634e-07
-1.23942e-10
-1.48014e-07
-2.7924e-08
-1.85351e-07
-1.43897e-08
-1.74213e-07
9.90737e-09
-1.88924e-07
-9.3375e-09
-2.09686e-07
2.07129e-09
-2.29142e-07
-1.00543e-08
-2.29336e-07
-2.55397e-08
-2.22237e-07
-1.5581e-08
-2.31765e-07
-4.92062e-09
-1.69008e-07
-6.945e-09
-1.52593e-07
-9.60861e-09
-1.28171e-07
-4.23941e-08
-1.8604e-07
2.50643e-08
-1.85185e-07
-1.9537e-08
-2.09277e-07
2.14475e-08
-1.93979e-07
-1.6868e-08
-2.31151e-07
5.71304e-08
-2.34336e-07
3.03577e-08
-2.26269e-07
3.92781e-08
-2.21157e-07
4.66713e-08
-2.31007e-07
3.32266e-08
-2.20649e-07
3.06004e-08
-2.16402e-07
1.49785e-08
-1.87971e-07
2.60295e-08
-1.77314e-07
-2.03057e-08
-4.03139e-08
-2.85128e-09
-2.06424e-07
-7.15872e-08
-2.0339e-07
-2.21038e-08
-1.12561e-07
-2.04484e-08
-1.58606e-07
2.98016e-08
-1.38694e-07
-6.74579e-09
-2.11259e-07
-3.17737e-08
-1.79841e-07
-3.95698e-09
-1.78008e-07
2.22429e-08
-1.65169e-07
-2.79203e-08
-1.8702e-07
5.61502e-08
-1.5768e-07
6.61751e-08
-7.1104e-08
4.5612e-08
-1.85725e-07
-3.44775e-08
-1.56087e-07
-1.92577e-08
-1.35353e-07
-2.72276e-08
-1.25675e-07
-1.98316e-08
-2.43183e-08
-1.54786e-07
-1.47111e-07
-8.43565e-08
-9.93708e-08
-1.49102e-07
-8.32847e-08
-1.2781e-07
-6.61719e-08
-1.58268e-07
-7.93251e-09
-1.53763e-07
9.37547e-10
-1.08125e-07
-2.03596e-08
-1.36019e-07
2.74474e-08
-1.60798e-07
4.69156e-08
-1.45824e-07
3.95301e-08
-1.73694e-07
1.1362e-08
-1.46361e-07
6.59225e-09
-1.33924e-07
-3.5053e-10
-1.28557e-07
-9.14083e-09
-1.3115e-07
-1.70046e-08
-1.11307e-07
-4.08727e-08
-1.37775e-07
1.58502e-08
-1.43941e-07
-2.49313e-09
-1.4208e-07
7.42407e-09
-1.29621e-07
1.62596e-08
-1.19186e-07
1.80307e-08
-1.15005e-07
2.59639e-08
-9.32699e-08
2.57822e-08
-1.16956e-07
7.91135e-09
-1.10514e-07
-1.6486e-08
-1.21961e-07
1.1171e-08
-1.38638e-07
1.02305e-08
-1.33815e-07
-3.48684e-08
-1.45306e-07
-4.04953e-08
-1.54864e-07
-3.39406e-08
-1.48559e-07
-3.34969e-08
-1.71057e-07
-3.02296e-08
-1.70186e-07
2.47085e-08
-2.20821e-07
3.60255e-08
-2.09298e-07
-1.61596e-09
-2.15148e-07
-3.48748e-09
-2.26595e-07
1.36588e-08
-2.22066e-07
-1.45833e-08
-2.31303e-07
-1.63027e-08
-2.30252e-07
-1.66318e-08
-2.21437e-07
-1.3735e-08
-2.17016e-07
-1.13657e-08
-2.31482e-07
2.49612e-09
-1.3841e-07
2.14112e-08
-2.70009e-07
-4.89609e-08
-2.45314e-07
7.52733e-09
-2.91447e-07
1.58223e-08
-1.66381e-07
6.51023e-08
-2.83988e-07
1.94603e-08
-2.72687e-07
1.85578e-08
-2.54245e-07
2.04355e-08
-2.21497e-07
1.61832e-08
-2.13952e-07
2.56816e-08
-1.91735e-07
6.20139e-09
-1.79668e-07
2.9117e-09
-1.20943e-07
-3.24296e-08
-1.10729e-07
-3.05199e-08
-8.67534e-08
-2.67974e-08
-1.41522e-07
-1.82623e-08
-1.97054e-07
-1.90922e-08
-5.29216e-08
4.46747e-08
-2.00186e-07
-2.99698e-08
-1.68744e-07
1.35714e-08
-2.01031e-07
5.13553e-10
-2.01229e-07
-3.75845e-09
-2.39115e-07
8.37009e-09
-1.27542e-07
6.88439e-08
-2.28252e-07
3.15149e-09
-1.72142e-07
8.41167e-09
-1.36696e-07
9.80081e-09
-1.40249e-07
-3.12764e-08
-1.4013e-07
-1.93772e-08
-1.11856e-07
-5.55022e-08
-1.41636e-07
8.503e-09
5.2731e-08
-1.0401e-07
-2.23798e-07
-3.54017e-08
-1.6011e-07
-1.19341e-07
-5.624e-10
1.46172e-09
-3.00977e-08
-1.80534e-07
-3.2988e-08
-1.51559e-07
-2.64905e-08
-1.29965e-07
9.28183e-09
-1.3136e-07
2.75168e-08
-1.70083e-07
8.56386e-08
-1.57013e-07
2.64602e-08
-1.56546e-07
1.08956e-08
-1.4344e-07
-6.51342e-09
-1.36023e-07
-7.76748e-09
-1.32413e-07
-1.26226e-08
-1.69751e-07
1.87938e-08
-7.50581e-08
2.20857e-08
-1.84445e-07
-2.77136e-08
-1.70477e-07
-1.83424e-08
-1.67209e-07
4.15579e-09
-1.43866e-07
-7.01115e-09
-1.28755e-07
2.91897e-09
-1.25156e-07
2.23657e-08
-1.26469e-07
2.83856e-08
-1.49402e-07
2.93354e-08
-6.10341e-08
5.04841e-08
-5.49978e-08
5.75764e-09
-1.52219e-07
-4.83181e-08
-7.92108e-08
-1.07876e-07
-9.62228e-08
-2.3483e-08
-1.51089e-07
2.07149e-08
-1.62291e-07
-2.41976e-08
-1.20362e-07
8.50305e-08
-1.06916e-07
1.35815e-08
-1.996e-07
-2.47494e-08
-1.74037e-07
-2.92144e-08
-1.5746e-07
-2.16705e-08
-1.77947e-07
-1.81465e-08
-1.56964e-07
1.81937e-08
-1.56018e-07
-1.72486e-08
-1.71464e-07
-1.18576e-09
-1.84069e-07
-1.12995e-09
-1.94046e-07
-1.38801e-09
-1.90129e-07
-1.42078e-09
-1.67189e-07
-1.74727e-09
-2.0563e-07
-1.05188e-08
-2.30528e-07
3.24251e-08
-2.44059e-07
2.90571e-08
-1.96019e-07
1.72385e-08
-2.31102e-07
5.63263e-08
-2.25711e-07
1.31676e-08
-2.10845e-07
3.26664e-09
-1.98449e-07
3.78696e-09
-1.71738e-07
-7.66273e-10
-1.48246e-07
-1.72913e-08
-1.60149e-07
-3.69434e-08
-1.07792e-07
-3.30279e-08
-9.43384e-08
-4.39733e-08
-1.002e-07
-2.09357e-08
-1.08132e-07
-1.03305e-08
-1.32626e-07
5.59675e-09
-1.02327e-07
1.43768e-08
-1.38462e-07
6.16542e-09
-1.29741e-07
4.85051e-09
-1.47855e-07
1.86272e-08
-1.77698e-07
2.6085e-08
-1.71424e-07
2.09609e-09
-1.3211e-07
2.95297e-08
-1.64425e-07
3.54987e-08
-1.36742e-07
-2.06658e-08
-1.72167e-07
-7.06619e-09
-1.82019e-07
3.20908e-08
-2.58367e-07
5.26472e-09
-1.27434e-07
2.06003e-08
-1.74491e-07
5.55597e-08
3.94828e-09
-1.78247e-07
-2.08809e-07
-2.45892e-07
-7.67206e-08
-2.10837e-07
-3.31088e-08
-1.95511e-07
-4.51169e-08
-2.22944e-07
-5.55539e-09
-2.43668e-07
-5.76568e-09
-1.34458e-07
5.54434e-08
-1.24457e-07
1.75155e-08
-2.13728e-07
-3.21256e-08
-1.80236e-07
-7.03227e-09
-1.68922e-07
-4.18421e-10
-1.65927e-07
-9.50795e-09
-1.69241e-07
-2.72725e-09
-1.5508e-07
2.28868e-08
-2.12077e-07
2.19005e-08
-1.66863e-07
3.05687e-08
-1.87111e-07
-7.74817e-09
-2.04363e-07
-1.08938e-09
-2.4401e-07
-5.46716e-09
-1.99309e-07
-4.76007e-10
-1.68855e-07
-2.95672e-08
-1.59899e-07
1.34092e-08
-1.56355e-07
2.48416e-08
-1.5246e-07
2.574e-08
-1.22961e-07
2.04709e-08
-1.24484e-07
6.01068e-09
-2.01612e-07
-2.34818e-08
-1.11552e-07
1.11558e-08
-1.15344e-07
-1.85138e-08
-2.26625e-07
-2.40013e-08
-1.17276e-07
2.09951e-08
-1.70132e-07
-1.70606e-08
-1.3544e-07
-1.97288e-08
-1.60774e-07
3.31171e-10
-1.79292e-07
-1.23361e-08
-1.62837e-07
-3.85178e-08
-1.91511e-07
8.67014e-09
-1.94325e-07
-3.12838e-08
-1.76407e-07
1.8575e-08
-1.86859e-07
9.2664e-09
-2.12185e-07
2.44452e-08
-2.12127e-07
-1.44532e-09
-2.18356e-07
4.80868e-09
-2.11616e-07
-8.48708e-09
-2.00767e-07
-2.13676e-08
-2.21583e-07
3.74207e-09
-2.28544e-07
8.40979e-08
-1.15869e-07
6.02791e-08
-1.98717e-07
-1.33635e-08
-1.71075e-07
-1.63678e-08
-1.58669e-07
-9.13921e-09
-1.53677e-07
-1.20447e-09
-1.43973e-07
-1.047e-08
-1.42257e-07
-1.9007e-08
-1.5498e-07
-2.42205e-08
-1.5326e-07
-3.47478e-08
-1.60504e-07
-3.67287e-08
-1.23783e-07
-5.82513e-08
-1.35761e-07
1.63113e-09
-1.28352e-07
-1.81164e-09
-1.23836e-07
9.86072e-09
-1.2542e-07
7.74909e-09
-1.27621e-07
7.05246e-09
-1.43631e-07
3.46366e-08
-1.58688e-07
4.11421e-08
-6.69972e-08
6.56828e-08
-5.69927e-08
1.95253e-08
-1.73005e-07
-5.55248e-08
-1.13802e-07
-2.81101e-08
-1.28407e-07
7.61127e-09
-1.33877e-07
3.61948e-08
-2.19178e-07
3.82725e-08
-4.44098e-08
5.51038e-08
-1.65003e-07
-3.08833e-08
7.90642e-09
-3.00516e-07
-1.31383e-07
-2.63594e-07
-3.61527e-08
-2.09521e-07
-8.44925e-08
-2.12133e-07
-4.2505e-08
-1.87811e-07
-2.98771e-08
-1.88529e-07
-5.0474e-09
-1.53087e-07
2.00012e-08
-1.4527e-07
9.69826e-09
-1.83743e-07
6.34716e-09
-2.00982e-07
1.02069e-08
-2.05763e-07
4.36265e-09
-2.14249e-07
-1.02146e-09
-2.12452e-07
-4.52455e-09
-1.66689e-07
-2.26419e-08
-2.13065e-07
6.80534e-08
-1.9759e-07
1.50934e-08
-1.66469e-07
-3.88686e-08
-2.22284e-07
5.47252e-08
-2.65317e-07
-1.41929e-08
-2.31209e-07
-3.45884e-08
-2.03487e-07
-5.53057e-09
-1.9526e-07
5.18286e-09
-1.94684e-07
2.42654e-08
-2.00492e-07
3.15488e-08
-2.00526e-07
2.05054e-08
-2.17902e-07
2.33865e-08
-2.47776e-07
6.63173e-09
-2.17432e-07
-1.91881e-08
-1.97993e-07
-3.79521e-08
-2.00771e-07
-7.32269e-08
-1.89047e-07
8.96528e-09
-1.89088e-07
-1.7019e-08
-1.63061e-07
7.66685e-09
-1.55727e-07
-6.99892e-09
-1.79744e-07
8.25849e-09
-1.09106e-07
4.93559e-08
-2.00755e-07
-5.17652e-08
-1.9639e-07
-3.73772e-08
-1.66147e-07
-1.16678e-08
-1.63363e-07
4.81575e-09
-1.90758e-07
-4.52298e-10
-1.43014e-07
4.5631e-09
-1.95865e-07
5.76592e-08
-1.99842e-07
-4.50923e-09
-1.43138e-07
7.64259e-08
-1.5238e-07
1.45382e-08
-1.96761e-07
-2.43801e-08
-1.40329e-07
1.22554e-09
-1.42554e-07
-1.12748e-08
-1.52495e-07
-6.42732e-09
-1.61352e-07
-2.81609e-10
-1.37102e-07
-2.5454e-08
-1.13149e-07
-3.44235e-08
-9.43756e-08
-3.81693e-08
-1.53509e-07
3.49134e-08
-1.58593e-07
-2.96642e-08
-1.73429e-07
-2.36615e-08
-7.33011e-08
-7.46308e-10
-1.70171e-07
-5.39233e-08
-1.25642e-07
-4.85716e-08
-1.40553e-07
2.47714e-08
-1.321e-07
-6.96285e-10
-1.3436e-07
9.31228e-09
-1.32151e-07
3.24282e-08
-1.21184e-07
3.01749e-08
-8.82398e-08
3.30764e-08
-6.77924e-08
-9.21927e-10
-1.042e-07
-1.89238e-08
-1.19662e-07
-1.26485e-08
-1.32686e-07
2.0636e-08
-1.29259e-07
3.27672e-08
-1.22827e-07
3.14501e-08
-9.2426e-08
2.44517e-08
-1.28396e-07
3.73877e-09
-6.7159e-09
-2.31526e-07
-6.81141e-08
-3.05736e-07
5.93559e-08
-2.28627e-07
-1.58482e-07
-2.46148e-07
-2.49839e-08
-2.25714e-07
-5.03114e-08
-2.32973e-07
2.21144e-09
-2.19538e-07
6.56675e-09
-2.23692e-07
1.38522e-08
-2.30912e-07
1.35675e-08
-2.32025e-07
1.13198e-08
-2.34556e-07
6.89381e-09
-2.3349e-07
-2.08746e-09
-2.42063e-07
4.04841e-09
-1.1934e-07
9.91265e-09
-2.19693e-07
-3.82395e-08
-2.02257e-07
-2.34234e-09
-5.76656e-08
2.38188e-08
-1.97513e-07
-1.24632e-08
-2.0527e-07
-6.43616e-09
-1.80855e-07
-7.24354e-09
-1.83934e-07
-2.45163e-09
-1.88921e-07
1.01705e-08
-1.9569e-07
3.10341e-08
-1.9137e-07
2.72294e-08
-1.98344e-07
2.748e-08
-2.11402e-07
3.64446e-08
-2.21363e-07
1.65921e-08
-2.17266e-07
-2.32846e-08
-2.21337e-07
-3.38804e-08
-1.4371e-07
5.88902e-09
-2.12736e-07
-7.49603e-08
-1.92511e-07
-3.94138e-08
-1.5512e-07
-2.97235e-08
-1.33984e-07
-2.82065e-08
-9.98531e-08
-2.71679e-08
-1.37669e-07
3.57896e-08
-1.48273e-07
1.09436e-08
-1.64315e-07
-2.28479e-08
-1.61946e-07
-1.40362e-08
-1.52932e-07
-4.19873e-09
-1.7759e-07
2.23996e-08
-4.10706e-08
2.49211e-08
-2.18951e-07
2.86309e-08
-9.10502e-08
7.55551e-08
-1.75334e-07