/*--------------------------------*- C++ -*----------------------------------*\
  =========                 |
  \\      /  F ield         | OpenFOAM: The Open Source CFD Toolbox
   \\    /   O peration     | Website:  https://openfoam.org
    \\  /    A nd           | Version:  12
     \\/     M anipulation  |
\*---------------------------------------------------------------------------*/
FoamFile
{
    format      ascii;
    class       volVectorField;
    location    "0.2";
    object      U.water;
}
// * * * * * * * * * * * * * * * * * * * * * * * * * * * * * * * * * * * * * //

dimensions      [0 1 -1 0 0 0 0];

internalField   nonuniform List<vector> 
3750
(
(-0.00852228 -0.0883015 0)
(-0.0334512 0.0559483 0)
(-0.00759918 -0.000370261 0)
(0.00275471 0.0241272 0)
(0.00197114 0.007069 0)
(0.00398587 0.0124568 0)
(-0.00240757 0.00718542 0)
(0.000677187 0.011787 0)
(-0.00227915 0.0106384 0)
(-0.000619054 0.0146338 0)
(-0.000887495 0.0159596 0)
(-0.000255654 0.0169224 0)
(0.000549168 0.0176862 0)
(-2.02162e-05 0.0191845 0)
(-0.00095681 0.0182398 0)
(-0.000137619 0.0161186 0)
(-0.000292007 0.0154365 0)
(0.00132944 0.0162589 0)
(-0.001543 0.0182099 0)
(-5.51909e-05 0.0189141 0)
(0.00170472 0.0188322 0)
(0.00158697 0.0177382 0)
(0.00106004 0.0149243 0)
(0.000579085 0.0130924 0)
(-0.00226576 0.0146806 0)
(-0.00066853 0.0179954 0)
(-0.000199185 0.0211564 0)
(0.00202525 0.0215574 0)
(0.00125964 0.0220995 0)
(0.000683788 0.0213538 0)
(-0.00109992 0.0190216 0)
(-0.00175263 0.0183103 0)
(-0.00307624 0.0180651 0)
(-0.00143313 0.0178944 0)
(-0.00178179 0.0200828 0)
(0.00163525 0.0215774 0)
(0.000767792 0.022509 0)
(0.000415547 0.0225861 0)
(-0.000629899 0.0218072 0)
(-0.000532154 0.0213095 0)
(-0.00277196 0.0225378 0)
(0.000353589 0.022476 0)
(7.8426e-07 0.0220219 0)
(0.000376836 0.0244891 0)
(0.000418342 0.0280462 0)
(0.000181891 0.0285163 0)
(0.000784723 0.0263315 0)
(0.00219668 0.0218439 0)
(0.00173224 0.020336 0)
(0.000688994 0.0169444 0)
(0.000922633 0.0150432 0)
(0.000873107 0.0144254 0)
(-0.000442619 0.013848 0)
(-0.000843467 0.0144168 0)
(-0.000799373 0.0138798 0)
(0.000709633 0.0141048 0)
(0.000529899 0.01724 0)
(-0.000711875 0.0195069 0)
(-3.73902e-05 0.0224503 0)
(0.00118917 0.0242263 0)
(0.00110002 0.0235041 0)
(0.00120629 0.0205596 0)
(0.00164844 0.0192963 0)
(0.00144556 0.015689 0)
(0.000834536 0.0120873 0)
(-0.000262435 0.010287 0)
(-0.00106143 0.00898095 0)
(0.000238755 0.0143069 0)
(-0.0028678 0.0156631 0)
(0.0015529 0.0158033 0)
(0.00096896 0.0213415 0)
(-0.00189176 0.0164686 0)
(-0.00107188 0.0138438 0)
(-0.000739213 0.0137801 0)
(0.00304233 0.0176602 0)
(-0.0111158 -0.0668172 0)
(-0.0258448 0.0226568 0)
(0.00716846 -0.0469027 0)
(0.00494488 0.0129699 0)
(-0.00137839 -0.023664 0)
(0.00146475 0.00710389 0)
(-0.00201002 -0.0111683 0)
(-0.00174126 0.00208882 0)
(-0.00300961 -0.0091992 0)
(-0.00357801 0.00022092 0)
(-0.00341482 -0.00502826 0)
(-0.00202238 0.000724133 0)
(0.000924074 -3.55368e-05 0)
(0.0036305 0.00236877 0)
(0.00317301 -0.00207214 0)
(0.00154218 -0.0016536 0)
(-0.00114854 -0.00163986 0)
(-0.00218315 -0.00212436 0)
(-0.00279561 -0.000702653 0)
(-0.00272455 0.00193657 0)
(0.00311099 0.00214195 0)
(0.00488923 0.00102096 0)
(0.00270735 0.000598617 0)
(-0.00125819 -0.00140874 0)
(-0.00264716 -0.00110703 0)
(-0.00350742 -0.00100081 0)
(-0.00177316 -0.00152764 0)
(-0.0023059 -0.00148785 0)
(-0.000515729 0.00109258 0)
(0.000276184 -9.81531e-05 0)
(0.00377262 -0.00146039 0)
(0.00363806 -0.00382114 0)
(0.00183041 -0.00570786 0)
(0.000135057 -0.00650018 0)
(-0.00258273 -0.00310927 0)
(-0.00223898 0.000189158 0)
(-0.00114765 -0.000944257 0)
(3.48849e-05 0.00150153 0)
(0.00193054 0.00166147 0)
(0.00179308 -0.000229542 0)
(0.00332789 0.00170405 0)
(-0.00216298 0.00261546 0)
(-0.00465887 0.00239833 0)
(-0.00429536 0.00680938 0)
(-0.00279512 0.00946027 0)
(0.00116695 0.0124495 0)
(0.00308745 0.0141865 0)
(0.00417503 0.0144964 0)
(0.00169589 0.0130117 0)
(0.00119648 0.00720656 0)
(0.00297231 0.00282637 0)
(0.00144527 -0.000148848 0)
(-0.000308477 -0.00405278 0)
(0.00145385 -0.00512838 0)
(-0.000508075 -0.00709716 0)
(-0.0013573 -0.00511193 0)
(-0.00527475 -0.00259719 0)
(-0.00514621 2.79563e-05 0)
(-0.00361523 0.000423045 0)
(0.000197485 0.000191937 0)
(0.00177021 0.00234893 0)
(0.00203769 0.0040879 0)
(0.00211183 0.00456064 0)
(0.00443615 0.00216481 0)
(0.00565729 -0.00386981 0)
(0.0041434 -0.00779984 0)
(0.00193782 -0.00940496 0)
(0.00289144 -0.00687326 0)
(-0.0016589 -0.00509172 0)
(0.00184076 -0.00516538 0)
(-0.00143782 -0.00844752 0)
(-0.00509543 -0.0105241 0)
(-0.00213746 -0.0100728 0)
(-0.00072696 -0.00554134 0)
(0.00470148 -0.00205861 0)
(-0.0126144 -0.0661965 0)
(-0.0224577 0.0170042 0)
(-0.0158234 -0.042869 0)
(-0.00388029 0.00681482 0)
(-3.13467e-05 -0.0218678 0)
(-0.00232342 -0.00371219 0)
(0.00163719 -0.013763 0)
(-0.00294396 -0.00733499 0)
(-0.000994262 -0.012437 0)
(-0.00336806 -0.010776 0)
(-0.00418843 -0.0145932 0)
(-0.00504663 -0.011653 0)
(-0.000407773 -0.00976167 0)
(0.00309987 -0.00598962 0)
(0.00313587 -0.00420802 0)
(9.7734e-05 -0.0031575 0)
(0.00151373 -0.00596898 0)
(-0.00283894 -0.0111001 0)
(-0.00255912 -0.013445 0)
(-0.0034216 -0.0100481 0)
(0.00357975 -0.00825886 0)
(0.00365307 -0.0128316 0)
(0.00292671 -0.0147191 0)
(0.00228123 -0.0161957 0)
(0.000691102 -0.0172776 0)
(-0.00180745 -0.0175043 0)
(-0.00119018 -0.0177951 0)
(-0.000339424 -0.0207962 0)
(0.00131995 -0.0217568 0)
(-0.000775786 -0.0198648 0)
(0.00358934 -0.0191943 0)
(0.0013963 -0.0218337 0)
(0.000789433 -0.0221979 0)
(-0.00128827 -0.0208596 0)
(-0.00100761 -0.0172544 0)
(-0.00675446 -0.014014 0)
(-0.00260335 -0.0144187 0)
(-0.00257533 -0.0116933 0)
(0.00308205 -0.0107977 0)
(0.00285216 -0.0111133 0)
(0.00130667 -0.00926817 0)
(-0.00692845 -0.00649894 0)
(-0.00844347 -0.00563112 0)
(-0.00607288 -0.00900036 0)
(-0.00596799 -0.00727325 0)
(-0.00319571 -0.00333535 0)
(-0.00122857 -0.000267515 0)
(0.00143687 0.000434327 0)
(0.00558897 0.00458823 0)
(0.00577068 0.00356395 0)
(0.00782612 -0.000673802 0)
(0.008068 -0.00477419 0)
(0.00408588 -0.0104134 0)
(0.00287232 -0.0105723 0)
(0.000687109 -0.0106192 0)
(-0.00364768 -0.00919186 0)
(-0.00488091 -0.00999082 0)
(-0.00377396 -0.0117695 0)
(-0.00158674 -0.0166286 0)
(0.000620731 -0.0180534 0)
(0.00137 -0.016203 0)
(0.00137302 -0.0102889 0)
(0.00525573 -0.00563383 0)
(0.00772755 -0.00779677 0)
(0.00705646 -0.0114134 0)
(0.00361731 -0.0115905 0)
(0.000435612 -0.0113399 0)
(0.00199234 -0.0106841 0)
(0.00278129 -0.00848705 0)
(0.00124836 -0.00857444 0)
(-0.000813445 -0.0119137 0)
(-0.00338914 -0.0147015 0)
(-0.00346785 -0.017924 0)
(-0.0020824 -0.0151924 0)
(-0.000135241 -0.00778878 0)
(-0.0145715 -0.0679067 0)
(-0.0140225 0.0213254 0)
(-0.00784092 -0.0396051 0)
(-0.00161935 -0.00323976 0)
(-0.00290812 -0.0244039 0)
(-0.000720606 -0.00886273 0)
(-0.00135426 -0.015043 0)
(-0.00277493 -0.00905605 0)
(-0.00223034 -0.0115137 0)
(-0.000956503 -0.00681925 0)
(-0.0010172 -0.0118231 0)
(-0.00490583 -0.00902744 0)
(-0.00513767 -0.0102574 0)
(-0.00232722 -0.0128713 0)
(-0.0007784 -0.0089157 0)
(-0.000583224 -0.0061072 0)
(0.00618821 -0.00516273 0)
(0.00472445 -0.0112726 0)
(0.00167565 -0.0177957 0)
(0.00105324 -0.0124767 0)
(0.000678787 -0.0115889 0)
(0.00212898 -0.0183273 0)
(0.00491973 -0.0196492 0)
(0.0029103 -0.019987 0)
(-0.00165906 -0.0189764 0)
(-0.00202614 -0.0195623 0)
(-0.00259703 -0.0201946 0)
(-0.00123466 -0.0207785 0)
(-0.000427757 -0.0218131 0)
(0.000441525 -0.0157872 0)
(0.00357871 -0.0159957 0)
(0.0037697 -0.0245895 0)
(0.00257288 -0.0265545 0)
(-0.00153385 -0.026774 0)
(-0.00458907 -0.0258095 0)
(-0.00797595 -0.0198148 0)
(-0.00567822 -0.0195971 0)
(-0.00375695 -0.0179458 0)
(-0.000408766 -0.014497 0)
(0.00044343 -0.0172377 0)
(0.00018583 -0.0162023 0)
(-0.00202742 -0.0152104 0)
(-0.00251537 -0.0122533 0)
(-0.00457629 -0.015409 0)
(-0.00366286 -0.0187596 0)
(-0.00370834 -0.0163469 0)
(-0.00319713 -0.0157656 0)
(-0.00158715 -0.015441 0)
(0.00636254 -0.0136919 0)
(0.01118 -0.011589 0)
(0.0144546 -0.0115701 0)
(0.0109899 -0.0133661 0)
(0.0064891 -0.0147356 0)
(0.000413396 -0.0128018 0)
(-0.0026696 -0.0113822 0)
(-0.0046971 -0.0107235 0)
(-0.00426004 -0.0106163 0)
(-0.00107721 -0.0135386 0)
(0.0016763 -0.0156148 0)
(0.00158211 -0.0168112 0)
(-0.000914373 -0.0181402 0)
(-0.000239155 -0.01615 0)
(0.000992045 -0.0125804 0)
(0.000456029 -0.00957504 0)
(0.00389474 -0.00927851 0)
(0.00295642 -0.0116064 0)
(0.00244893 -0.0120994 0)
(0.000805585 -0.0111354 0)
(0.000900885 -0.0125363 0)
(0.000178701 -0.0111166 0)
(0.00175973 -0.0112608 0)
(0.00137562 -0.0118925 0)
(0.000264559 -0.0147609 0)
(0.000587042 -0.0143278 0)
(-0.00188851 -0.0101974 0)
(-0.0182464 -0.0697889 0)
(-0.015691 0.0230238 0)
(-0.00879549 -0.0383038 0)
(-0.00636543 0.0016584 0)
(-0.0056053 -0.0225407 0)
(-0.00271628 -0.00839641 0)
(-0.00273023 -0.0193907 0)
(-0.00357714 -0.0157111 0)
(0.00132295 -0.016273 0)
(0.000694191 -0.0110951 0)
(0.000899581 -0.0111711 0)
(-4.43492e-05 -0.00964112 0)
(-0.00322901 -0.0101146 0)
(-0.00285969 -0.0107225 0)
(-0.000675813 -0.0123343 0)
(0.00174811 -0.00971908 0)
(0.00589119 -0.00630765 0)
(0.00663955 -0.00928243 0)
(0.00400785 -0.0148319 0)
(0.00194863 -0.011776 0)
(-0.000578699 -0.0123948 0)
(0.00295861 -0.0175871 0)
(0.00349877 -0.0169217 0)
(0.0037111 -0.0172412 0)
(6.82321e-05 -0.0179157 0)
(-0.00135889 -0.0200759 0)
(-0.00114986 -0.0217312 0)
(-0.0011948 -0.0215644 0)
(-0.000350983 -0.0173519 0)
(0.00541127 -0.0104624 0)
(5.02287e-05 -0.0104448 0)
(0.00403702 -0.0146596 0)
(0.00438505 -0.015331 0)
(-0.000173994 -0.0161896 0)
(-0.0014909 -0.0179439 0)
(-0.00313575 -0.0188602 0)
(-0.00433673 -0.0224702 0)
(-0.00142968 -0.0219805 0)
(-0.00436876 -0.0183968 0)
(-0.00278831 -0.016668 0)
(-0.00441967 -0.0161548 0)
(-0.00485849 -0.0124673 0)
(-0.00212414 -0.00965344 0)
(-0.0052494 -0.0136214 0)
(-0.00329086 -0.0152105 0)
(-0.00299316 -0.0182906 0)
(-0.00305366 -0.0213651 0)
(-0.000383988 -0.0232756 0)
(0.00315732 -0.0240549 0)
(0.00971513 -0.0207005 0)
(0.01096 -0.0171534 0)
(0.00910471 -0.0145165 0)
(0.00646041 -0.0123018 0)
(-6.2241e-06 -0.0104854 0)
(-0.00233232 -0.0120407 0)
(-0.00321857 -0.0135694 0)
(-0.000895216 -0.0106535 0)
(-0.000914125 -0.0107588 0)
(0.00209766 -0.0156992 0)
(0.00273703 -0.0173816 0)
(0.00158297 -0.0176885 0)
(0.0022136 -0.0188669 0)
(0.0024781 -0.0216943 0)
(0.00276715 -0.0156557 0)
(0.00311887 -0.0124096 0)
(0.00192572 -0.0169131 0)
(0.00113252 -0.0183984 0)
(0.000556409 -0.01956 0)
(-0.00020217 -0.0205009 0)
(-0.000687869 -0.0203091 0)
(0.00111923 -0.0196439 0)
(0.00122351 -0.0184111 0)
(0.00110968 -0.0171466 0)
(-0.000176536 -0.0189402 0)
(-0.00178574 -0.0186552 0)
(-0.0186684 -0.075375 0)
(-0.0162683 0.0315172 0)
(-0.00608818 -0.0392768 0)
(-0.00419179 0.0060316 0)
(-3.93714e-05 -0.0228049 0)
(-0.000798552 -0.00906535 0)
(-0.00166991 -0.0194463 0)
(-0.00107313 -0.0133646 0)
(0.000725 -0.0164991 0)
(-0.000903518 -0.0173464 0)
(-0.00101885 -0.0170038 0)
(0.00109584 -0.0129623 0)
(-0.00327417 -0.0116128 0)
(-0.00337208 -0.0129465 0)
(0.00013612 -0.0102268 0)
(0.0014293 -0.00891882 0)
(0.00248497 -0.00941601 0)
(0.00658666 -0.00652825 0)
(0.00752664 -0.00607418 0)
(0.00590189 -0.0078142 0)
(0.000874206 -0.0125014 0)
(0.00425766 -0.0184221 0)
(0.00337257 -0.0169055 0)
(0.0031657 -0.0166513 0)
(0.00120354 -0.0194576 0)
(0.000439091 -0.0188076 0)
(-0.00125424 -0.0186637 0)
(-0.00263069 -0.0180177 0)
(-0.00173108 -0.0123031 0)
(0.00252977 -0.0113142 0)
(0.000863899 -0.00963439 0)
(0.00153705 -0.00677148 0)
(0.00186754 -0.00889267 0)
(0.000654497 -0.00816553 0)
(-0.001671 -0.0106168 0)
(-0.000690754 -0.0170987 0)
(0.000402542 -0.0194369 0)
(0.00101891 -0.0188208 0)
(-0.00588026 -0.0134311 0)
(-0.00897437 -0.0104957 0)
(-0.00443913 -0.0105827 0)
(-0.00214406 -0.00904715 0)
(-0.00395699 -0.0124568 0)
(-0.00503332 -0.0149475 0)
(-0.00521996 -0.0176042 0)
(-0.00412837 -0.020312 0)
(-0.000915775 -0.0221588 0)
(0.00186501 -0.0232909 0)
(0.00322528 -0.0227686 0)
(0.00529403 -0.0197887 0)
(0.00639118 -0.0168124 0)
(0.00469241 -0.0137478 0)
(0.00271448 -0.0113458 0)
(-0.000186183 -0.012909 0)
(-0.000473368 -0.0176317 0)
(-0.000417897 -0.0167998 0)
(0.00165758 -0.0135792 0)
(0.000243584 -0.0146149 0)
(0.00258707 -0.0169565 0)
(0.00138892 -0.0191091 0)
(0.00213196 -0.0211445 0)
(0.00166591 -0.0208761 0)
(0.00016624 -0.0199565 0)
(0.00237729 -0.0176823 0)
(0.00170919 -0.0169511 0)
(0.00312112 -0.0181413 0)
(0.00161647 -0.0161217 0)
(0.00358685 -0.0167675 0)
(0.000648247 -0.0211671 0)
(-0.00123509 -0.0193793 0)
(9.79749e-05 -0.0189286 0)
(0.00101809 -0.0170269 0)
(0.00105994 -0.0144216 0)
(-0.000907818 -0.0187449 0)
(-0.00290771 -0.020632 0)
(-0.0252444 -0.0712685 0)
(-0.021583 0.0237035 0)
(-0.00329487 -0.0358364 0)
(-0.00601878 0.00307346 0)
(0.000820882 -0.0216174 0)
(-0.00202208 -0.00514491 0)
(-0.00196637 -0.0145445 0)
(-0.00417194 -0.00300063 0)
(-0.00179157 -0.00813558 0)
(-0.00297291 -0.00944973 0)
(-0.0025359 -0.00942928 0)
(0.000494802 -0.0103162 0)
(0.000687742 -0.0172963 0)
(-0.00126231 -0.0175916 0)
(-0.00167767 -0.0169681 0)
(-0.00261327 -0.0145544 0)
(-0.000914894 -0.0132931 0)
(0.00476463 -0.0144027 0)
(0.00645257 -0.0125875 0)
(0.00672294 -0.0138302 0)
(0.00586377 -0.0155966 0)
(0.00590174 -0.0148163 0)
(0.00478864 -0.0119628 0)
(0.00161131 -0.0110206 0)
(0.000343477 -0.012021 0)
(-0.000827316 -0.0121412 0)
(-0.000228304 -0.0124955 0)
(0.000520433 -0.0129499 0)
(-0.000725658 -0.0129259 0)
(-0.00215017 -0.0134919 0)
(0.000937932 -0.0125403 0)
(-0.00215829 -0.0101642 0)
(-0.00100557 -0.0098656 0)
(0.00332189 -0.0110163 0)
(0.00444603 -0.0134044 0)
(0.00191636 -0.0130361 0)
(0.00148297 -0.0122582 0)
(-0.00261738 -0.0108833 0)
(-0.00736439 -0.00950358 0)
(-0.00916515 -0.00493166 0)
(-0.00141019 -0.00766102 0)
(0.000310443 -0.0144712 0)
(-0.00197423 -0.0163485 0)
(-0.00555037 -0.0175389 0)
(-0.00374141 -0.0183484 0)
(-0.00489588 -0.0219544 0)
(-0.00177353 -0.0239944 0)
(0.00221331 -0.0206805 0)
(0.00308534 -0.0176912 0)
(0.00233657 -0.0143913 0)
(0.00452204 -0.0120435 0)
(0.00676314 -0.00823224 0)
(0.00509004 -0.00709489 0)
(0.00222363 -0.013873 0)
(0.00125296 -0.0208971 0)
(0.000683512 -0.0200989 0)
(-0.000821915 -0.0158181 0)
(0.000285673 -0.013718 0)
(0.0012372 -0.0167997 0)
(0.00234524 -0.0192051 0)
(0.00229176 -0.0161551 0)
(-0.00041801 -0.0151418 0)
(0.000628309 -0.0167851 0)
(0.00201318 -0.0183481 0)
(0.00160182 -0.020233 0)
(0.00241407 -0.0220039 0)
(0.00218416 -0.0148162 0)
(0.00180025 -0.0126617 0)
(-0.00129573 -0.0170246 0)
(-0.00121809 -0.0155694 0)
(-0.000786281 -0.014989 0)
(0.00276481 -0.0134702 0)
(0.00186224 -0.0109392 0)
(0.00133107 -0.0127896 0)
(-0.000611953 -0.0168061 0)
(-0.0220739 -0.0649028 0)
(-0.0163241 0.0137114 0)
(-0.00828955 -0.0315222 0)
(-0.00835469 -0.00556789 0)
(-0.00090496 -0.0207264 0)
(-0.00223611 -0.0091297 0)
(-0.00132855 -0.0187769 0)
(-0.00589044 -0.00859884 0)
(-0.00156793 -0.0106079 0)
(-0.00296658 -0.0160215 0)
(-0.000208331 -0.0178944 0)
(0.00135678 -0.0159086 0)
(0.00212578 -0.0220575 0)
(-4.71312e-05 -0.029507 0)
(-0.0026199 -0.0294052 0)
(-0.00160848 -0.0277039 0)
(-0.000611149 -0.0249944 0)
(-0.00163428 -0.0280658 0)
(0.00368124 -0.0254775 0)
(0.00638506 -0.0188659 0)
(0.00701167 -0.0164827 0)
(0.00438095 -0.0149303 0)
(0.000958828 -0.0130807 0)
(-0.00114049 -0.0116732 0)
(0.000868639 -0.0137257 0)
(0.00233026 -0.0158459 0)
(0.00131061 -0.0176773 0)
(0.00189562 -0.0187624 0)
(0.00103693 -0.0204925 0)
(-0.000990785 -0.0184661 0)
(-0.000405122 -0.0172635 0)
(-0.00123033 -0.017504 0)
(0.000895135 -0.0178992 0)
(0.00279384 -0.0166095 0)
(0.00349943 -0.0141489 0)
(-0.00055694 -0.00738956 0)
(-0.00397609 -0.00143582 0)
(-0.00485567 -0.00271558 0)
(-0.00712643 -0.00430734 0)
(-0.00149102 -0.0066645 0)
(-0.00315603 -0.0117287 0)
(-0.000902969 -0.0197967 0)
(-0.00296163 -0.0214479 0)
(-0.00238408 -0.0175875 0)
(-0.001792 -0.0178389 0)
(-0.0022677 -0.0240363 0)
(-0.00186144 -0.0252071 0)
(-0.000885244 -0.0251104 0)
(-0.000890113 -0.0229322 0)
(0.000337673 -0.0204626 0)
(0.00330154 -0.0183849 0)
(0.00807167 -0.0152046 0)
(0.00554769 -0.0150293 0)
(0.00524598 -0.0169053 0)
(0.0045437 -0.0202361 0)
(0.00251161 -0.0206316 0)
(0.00167907 -0.0184279 0)
(-0.00156435 -0.0165211 0)
(-0.000647036 -0.0179678 0)
(0.00183651 -0.0185762 0)
(0.00369956 -0.0178394 0)
(0.000985193 -0.0144522 0)
(0.00150553 -0.0113572 0)
(0.00192275 -0.0162415 0)
(0.000819629 -0.0201429 0)
(0.000974134 -0.020672 0)
(0.00115647 -0.0133582 0)
(-0.00269935 -0.0113709 0)
(-0.00231236 -0.0170469 0)
(-0.00211865 -0.0150346 0)
(-0.00175695 -0.0162277 0)
(6.33666e-05 -0.0196542 0)
(0.00159265 -0.0194582 0)
(0.00389372 -0.0182117 0)
(0.00164545 -0.0185454 0)
(-0.0173169 -0.0651281 0)
(-0.00933049 0.0134302 0)
(-0.0137525 -0.0312753 0)
(-0.00625696 -0.0028895 0)
(-0.00470389 -0.0184653 0)
(-0.0020875 -0.0139999 0)
(-0.000475271 -0.0243835 0)
(-0.00177599 -0.0152293 0)
(-0.00598363 -0.0166906 0)
(-0.00159038 -0.0234028 0)
(0.00359237 -0.0254955 0)
(0.00393713 -0.0252241 0)
(0.0015794 -0.0261015 0)
(0.00203937 -0.0286507 0)
(-0.000183306 -0.0311204 0)
(-0.00169527 -0.0279721 0)
(-0.00485257 -0.0306414 0)
(-0.00665515 -0.0340384 0)
(-0.00142187 -0.0268448 0)
(-0.000224297 -0.0226513 0)
(0.00214613 -0.0187429 0)
(0.00432217 -0.019378 0)
(0.00315067 -0.0232432 0)
(0.00202565 -0.0245368 0)
(0.00242083 -0.0249481 0)
(0.00320183 -0.0248457 0)
(0.00334377 -0.0245611 0)
(0.000931794 -0.0236403 0)
(-0.000356605 -0.0219115 0)
(-0.00167937 -0.0181715 0)
(-0.00192525 -0.0169606 0)
(-0.00117107 -0.0152894 0)
(-0.000894171 -0.0135761 0)
(-0.000422196 -0.0128798 0)
(-0.00245216 -0.0101763 0)
(-0.00311612 -0.00775022 0)
(-0.00660018 -0.00650264 0)
(-0.00498348 -0.00880491 0)
(-4.59312e-05 -0.00845625 0)
(0.00195625 -0.0103262 0)
(-0.000216686 -0.0152394 0)
(2.76057e-05 -0.0176852 0)
(-0.00153751 -0.0196799 0)
(-0.000529105 -0.0192575 0)
(-0.00486371 -0.0182478 0)
(-0.00153867 -0.016876 0)
(0.000437841 -0.0165646 0)
(0.000725685 -0.0170951 0)
(-0.00069063 -0.0184737 0)
(-0.000375789 -0.0210247 0)
(0.00173152 -0.0242874 0)
(0.00536334 -0.0242705 0)
(0.00610081 -0.0230493 0)
(0.0053824 -0.0224992 0)
(0.00418902 -0.0230203 0)
(0.00171333 -0.020555 0)
(0.00168326 -0.0192416 0)
(-0.000876552 -0.0179379 0)
(-0.00192352 -0.0192194 0)
(-0.00129775 -0.0206047 0)
(0.0023671 -0.015711 0)
(0.00483398 -0.0119109 0)
(0.00123692 -0.00975885 0)
(0.000492856 -0.0107187 0)
(0.00235026 -0.0105805 0)
(0.00216113 -0.0122927 0)
(0.00205936 -0.0108995 0)
(-0.00424977 -0.00896276 0)
(0.00108602 -0.0116204 0)
(0.000373039 -0.0118831 0)
(-0.00157845 -0.0147537 0)
(-0.000121443 -0.0190896 0)
(0.00271367 -0.0175974 0)
(0.00426133 -0.0170798 0)
(0.00425662 -0.0140017 0)
(-0.0150002 -0.065537 0)
(-0.00377778 0.0163743 0)
(-0.0100843 -0.0333671 0)
(-0.00571934 -0.000561964 0)
(-0.00555032 -0.017472 0)
(-0.00692433 -0.00698256 0)
(-0.0001491 -0.0200131 0)
(0.00154738 -0.0180694 0)
(-0.00262744 -0.0201291 0)
(-0.000542639 -0.0206248 0)
(0.000804225 -0.0259127 0)
(0.00212785 -0.0284606 0)
(0.00268407 -0.0260109 0)
(0.00181606 -0.0249256 0)
(0.000945886 -0.0249009 0)
(0.000205034 -0.0231592 0)
(-0.00409316 -0.0233397 0)
(-0.00144892 -0.0256978 0)
(0.000757296 -0.0276963 0)
(0.00152354 -0.0241446 0)
(0.00370323 -0.0198716 0)
(0.0027825 -0.0238871 0)
(0.00196167 -0.0281477 0)
(0.00156988 -0.0270667 0)
(0.00079655 -0.025351 0)
(0.00155632 -0.0232575 0)
(0.000190845 -0.0201517 0)
(-0.00103052 -0.0172566 0)
(-0.00325455 -0.0151928 0)
(-0.00391249 -0.0147199 0)
(-0.00502828 -0.0147572 0)
(-0.00286325 -0.0140595 0)
(-0.00106302 -0.0138222 0)
(-0.00112421 -0.0139326 0)
(-0.00123153 -0.0134907 0)
(-0.00203975 -0.0141847 0)
(-0.00251283 -0.016269 0)
(-0.00199583 -0.0183374 0)
(0.000444154 -0.0181182 0)
(-0.00190117 -0.0160519 0)
(-0.00123491 -0.0165125 0)
(6.37875e-05 -0.0177836 0)
(0.000549676 -0.0184038 0)
(-0.000745033 -0.018708 0)
(-0.00349166 -0.0170166 0)
(-0.00502216 -0.0139546 0)
(-0.000975761 -0.0144852 0)
(0.00195251 -0.016394 0)
(0.00129585 -0.0190064 0)
(0.00322159 -0.0221594 0)
(0.00510976 -0.0232773 0)
(0.00536053 -0.0233673 0)
(0.00476813 -0.0214628 0)
(0.00388308 -0.0201682 0)
(0.00289116 -0.021267 0)
(0.000219849 -0.0180713 0)
(0.00115046 -0.0149352 0)
(0.00191286 -0.0149751 0)
(-0.00352492 -0.0164835 0)
(-0.00340056 -0.0177373 0)
(-0.00348678 -0.0160289 0)
(-0.000835829 -0.0140827 0)
(-0.000595741 -0.0118242 0)
(0.000603186 -0.0112348 0)
(0.00379236 -0.0102126 0)
(0.00305556 -0.00842889 0)
(0.00249208 -0.00943023 0)
(-0.000983459 -0.00722304 0)
(-0.000593843 -0.00691507 0)
(0.000484401 -0.0131875 0)
(-5.9063e-05 -0.0169978 0)
(0.0013326 -0.0185862 0)
(0.00265564 -0.0181972 0)
(0.0034963 -0.0158604 0)
(0.00391549 -0.0137352 0)
(-0.0116341 -0.0662314 0)
(-0.00437949 0.0126344 0)
(-0.0102078 -0.038874 0)
(-0.00594371 -0.00366881 0)
(-0.00464695 -0.0221188 0)
(-0.00685327 -0.00697071 0)
(-0.00151361 -0.0118884 0)
(0.0038516 -0.0145122 0)
(0.00308372 -0.0173197 0)
(0.00143071 -0.0179103 0)
(-0.000528672 -0.0192809 0)
(0.00196052 -0.0205926 0)
(0.00206675 -0.0197093 0)
(-0.000327597 -0.0159788 0)
(-0.00116383 -0.0151972 0)
(-0.00109256 -0.014333 0)
(-0.0024466 -0.014636 0)
(-0.00133378 -0.0149765 0)
(0.00186052 -0.0140707 0)
(0.00464818 -0.0112281 0)
(0.00266944 -0.0105711 0)
(0.000585761 -0.0123281 0)
(0.00132198 -0.0122204 0)
(0.000616669 -0.0124646 0)
(0.00184262 -0.0135928 0)
(-0.000307189 -0.0142116 0)
(-0.0022396 -0.014824 0)
(-0.00289536 -0.0148196 0)
(-0.00414137 -0.0142621 0)
(-0.00347712 -0.0128045 0)
(-0.00385776 -0.012242 0)
(0.000423117 -0.0123362 0)
(-0.000967866 -0.0155158 0)
(-0.00180244 -0.0165268 0)
(-0.00186805 -0.0140227 0)
(-0.0022688 -0.0153173 0)
(-0.000141468 -0.0180072 0)
(-0.000997475 -0.0204873 0)
(-0.00104362 -0.0207601 0)
(-0.000313954 -0.0200773 0)
(-0.000639184 -0.0183998 0)
(-0.00112061 -0.0189443 0)
(-0.0016537 -0.0187442 0)
(-0.00195048 -0.0197215 0)
(-0.00152555 -0.020148 0)
(-0.00110416 -0.0162032 0)
(0.000559994 -0.0127775 0)
(0.00173914 -0.0198666 0)
(0.00132259 -0.0262124 0)
(0.002215 -0.0243861 0)
(0.00358533 -0.0224169 0)
(0.00391468 -0.0225749 0)
(0.0032715 -0.0208019 0)
(0.00535649 -0.0200464 0)
(0.00224413 -0.0218459 0)
(0.00207084 -0.0177067 0)
(-0.000934064 -0.010902 0)
(-0.00239761 -0.0115866 0)
(-0.0031243 -0.0131053 0)
(-0.00346831 -0.0146676 0)
(-0.00270002 -0.0172288 0)
(-0.000793741 -0.0184628 0)
(8.10357e-05 -0.019792 0)
(-0.000146596 -0.0189742 0)
(0.0014941 -0.0172457 0)
(0.00254554 -0.0160147 0)
(0.00170595 -0.0170061 0)
(0.00119328 -0.0161222 0)
(0.00132292 -0.0113397 0)
(0.0033645 -0.0137367 0)
(0.00352457 -0.0175826 0)
(0.00155024 -0.0147018 0)
(0.00352099 -0.0120755 0)
(0.00146294 -0.0132061 0)
(8.88268e-05 -0.0138481 0)
(-0.00987946 -0.074392 0)
(-0.00217371 0.0344932 0)
(-0.0120216 -0.0394182 0)
(-0.00392069 0.00229868 0)
(-0.00685111 -0.0231154 0)
(4.71411e-05 -0.00537284 0)
(-0.0036827 -0.00770783 0)
(0.00259753 -0.0102957 0)
(0.00173292 -0.0176476 0)
(0.00140641 -0.0169589 0)
(0.000281095 -0.0156284 0)
(-0.000622823 -0.0131477 0)
(-0.000943551 -0.0139667 0)
(-0.00221057 -0.0125657 0)
(-0.00142017 -0.0126383 0)
(-0.00205961 -0.0130882 0)
(-0.00168676 -0.0139057 0)
(-0.00074271 -0.0145063 0)
(0.00151 -0.0136715 0)
(0.00345945 -0.011463 0)
(0.00225289 -0.0103598 0)
(0.000541858 -0.0106883 0)
(0.00105896 -0.0114059 0)
(-0.000636919 -0.00935427 0)
(0.00298043 -0.0114099 0)
(0.00173594 -0.0149688 0)
(-0.000241075 -0.0130354 0)
(-0.00226103 -0.0136766 0)
(-0.00406096 -0.015415 0)
(-0.0057143 -0.0162941 0)
(-0.00334499 -0.0114597 0)
(0.00217072 -0.0115032 0)
(-0.000381889 -0.0196148 0)
(-0.000918716 -0.0201493 0)
(-0.00137231 -0.0187889 0)
(-0.00240999 -0.017567 0)
(0.00201882 -0.0177176 0)
(0.00205565 -0.0198929 0)
(-0.000363213 -0.0208605 0)
(-0.00171015 -0.0210514 0)
(-0.00211322 -0.0216229 0)
(-0.0028397 -0.0220834 0)
(-0.000947551 -0.0221761 0)
(-0.000557975 -0.0241929 0)
(0.000585218 -0.0239966 0)
(0.000464318 -0.02219 0)
(0.00176885 -0.0213894 0)
(0.000233452 -0.0241766 0)
(0.0018746 -0.0265646 0)
(0.00211147 -0.025974 0)
(0.00525413 -0.0251859 0)
(0.00492324 -0.0237045 0)
(0.00463676 -0.0176325 0)
(0.00291049 -0.0164767 0)
(0.00160092 -0.0179661 0)
(0.00178136 -0.0111599 0)
(-0.00291105 -0.00871218 0)
(-0.0049968 -0.00939794 0)
(-0.0031406 -0.0115467 0)
(-0.00282854 -0.0121179 0)
(-0.000998944 -0.0138416 0)
(-0.000754753 -0.0165451 0)
(-3.03311e-05 -0.0180538 0)
(0.000457765 -0.0180313 0)
(0.000817192 -0.0183912 0)
(0.00218237 -0.0206633 0)
(0.00192994 -0.0215162 0)
(0.000602569 -0.0169503 0)
(-0.00179805 -0.0135519 0)
(-0.00269688 -0.0160066 0)
(-0.00174311 -0.0158534 0)
(-0.000518619 -0.00912979 0)
(0.000675439 -0.00990922 0)
(0.00139191 -0.0162069 0)
(0.00177069 -0.0162544 0)
(-0.0221065 -0.0721934 0)
(-0.0152758 0.0435881 0)
(-0.00049222 -0.0405363 0)
(-0.00525678 0.0157102 0)
(-0.000908364 -0.0227624 0)
(0.000353055 -0.00469425 0)
(-0.000524764 -0.0122823 0)
(-0.000519676 -0.0104929 0)
(0.00157971 -0.0187903 0)
(0.00141203 -0.0161372 0)
(0.00113307 -0.01467 0)
(-0.000477774 -0.0130593 0)
(-0.00102533 -0.0130831 0)
(-0.00216533 -0.0111722 0)
(0.000626535 -0.0120355 0)
(0.00105765 -0.0152731 0)
(0.0003968 -0.0165193 0)
(-0.00096937 -0.0172425 0)
(-0.000744805 -0.0162972 0)
(-0.000146223 -0.0119988 0)
(0.003481 -0.0111808 0)
(0.0025641 -0.0123116 0)
(0.00212009 -0.011981 0)
(0.00273687 -0.00926294 0)
(0.0015965 -0.00983617 0)
(-0.000479899 -0.0123651 0)
(0.000227071 -0.00979626 0)
(-0.00294161 -0.00953643 0)
(-0.00206913 -0.0115614 0)
(-0.00332531 -0.0136801 0)
(0.00142391 -0.0105601 0)
(-0.000675171 -0.0119035 0)
(-0.000306321 -0.0176248 0)
(-0.00272978 -0.0170682 0)
(-0.000261398 -0.016607 0)
(-0.00259636 -0.0123233 0)
(-0.00121487 -0.00896153 0)
(0.00177358 -0.0122865 0)
(0.000663463 -0.0132124 0)
(0.000129473 -0.0155707 0)
(-0.00163063 -0.0178631 0)
(-0.00118062 -0.0190428 0)
(-0.000342426 -0.0202491 0)
(0.000630378 -0.0219907 0)
(0.00124493 -0.0231248 0)
(0.000911624 -0.0187797 0)
(0.00036676 -0.0193923 0)
(0.00285523 -0.0253745 0)
(0.00172352 -0.0250689 0)
(0.00377487 -0.0189905 0)
(0.00198647 -0.0186164 0)
(0.00131302 -0.021018 0)
(0.00208779 -0.0175182 0)
(-0.00233284 -0.0125984 0)
(-0.00173432 -0.00944613 0)
(-0.00210444 -0.00818916 0)
(-0.0040784 -0.00853136 0)
(-0.00275167 -0.00992954 0)
(-0.00173554 -0.0102427 0)
(0.000565131 -0.0117157 0)
(0.000294928 -0.0132608 0)
(0.000366363 -0.0135241 0)
(0.00141933 -0.0131509 0)
(0.00221601 -0.0147123 0)
(0.00335492 -0.015795 0)
(0.00417255 -0.0176922 0)
(0.00316965 -0.019498 0)
(0.00260958 -0.0169787 0)
(-0.00103861 -0.00884457 0)
(-0.00127544 -0.00931954 0)
(-0.000877356 -0.0158722 0)
(0.00276286 -0.0170519 0)
(-2.88105e-05 -0.0185763 0)
(0.00239522 -0.0205837 0)
(0.00230021 -0.0203628 0)
(-0.0281532 -0.0569276 0)
(-0.00943817 0.00694201 0)
(0.000878154 -0.03604 0)
(-0.00531049 -0.00821759 0)
(0.00229287 -0.024261 0)
(0.000624845 -0.0141859 0)
(0.00460224 -0.0181304 0)
(-0.000817989 -0.0166729 0)
(-0.000271861 -0.0184988 0)
(-0.00116945 -0.0167017 0)
(-0.000668525 -0.0164882 0)
(-0.00140292 -0.0157389 0)
(-0.00096949 -0.0172758 0)
(0.000304313 -0.0144584 0)
(0.000698577 -0.0138069 0)
(0.000718197 -0.0182101 0)
(-0.00069823 -0.0198343 0)
(-0.00187182 -0.0196266 0)
(-0.00127648 -0.0202272 0)
(-0.000670167 -0.0163265 0)
(0.000119251 -0.0148345 0)
(0.00216603 -0.0169292 0)
(0.00277885 -0.0145163 0)
(0.00219743 -0.0129899 0)
(-0.000324337 -0.0154972 0)
(-0.000834837 -0.0125484 0)
(-0.00105835 -0.0108964 0)
(-0.00152203 -0.0178667 0)
(-0.000455177 -0.0190235 0)
(0.000926526 -0.0149137 0)
(0.00173354 -0.0141771 0)
(-0.00126433 -0.0173276 0)
(-0.000895037 -0.0169522 0)
(-0.000692598 -0.0126381 0)
(0.000829287 -0.0146762 0)
(0.000465432 -0.0174357 0)
(-0.00536003 -0.0109644 0)
(-0.00132168 -0.0128363 0)
(0.00404279 -0.0156329 0)
(0.00213723 -0.0172253 0)
(0.00119601 -0.0204754 0)
(0.00135989 -0.0228802 0)
(-3.57894e-05 -0.0236035 0)
(-0.000893768 -0.0234631 0)
(0.00046573 -0.0236316 0)
(0.00419774 -0.0223959 0)
(0.0016296 -0.0174562 0)
(0.00213046 -0.01873 0)
(0.00215378 -0.0177777 0)
(0.00112696 -0.014192 0)
(-0.00258785 -0.0154011 0)
(-0.000431927 -0.0149301 0)
(-6.13517e-05 -0.0137583 0)
(-0.00151009 -0.0132616 0)
(-0.00368465 -0.0127712 0)
(-0.0037045 -0.01381 0)
(-0.00310224 -0.0147767 0)
(-0.00366355 -0.0140654 0)
(-0.00431938 -0.0122398 0)
(0.0020535 -0.0125039 0)
(0.000640241 -0.0136891 0)
(3.26791e-05 -0.0132592 0)
(0.000654175 -0.013389 0)
(0.00285473 -0.0137272 0)
(0.00406112 -0.0130607 0)
(0.00434549 -0.0129567 0)
(0.00296148 -0.0129014 0)
(7.62038e-05 -0.00916126 0)
(-0.000667041 -0.00666918 0)
(-0.0016532 -0.00943653 0)
(0.00224727 -0.0094296 0)
(0.00303761 -0.00874347 0)
(-0.000782309 -0.0140787 0)
(-0.000925699 -0.016548 0)
(-0.000855968 -0.018003 0)
(-0.0181276 -0.0621643 0)
(-0.00419314 0.0092047 0)
(-0.00754017 -0.0396199 0)
(-0.00647737 -0.0086205 0)
(-0.00289929 -0.0217212 0)
(-0.000315285 -0.0117411 0)
(0.0033264 -0.0175404 0)
(0.000385204 -0.0164821 0)
(0.000603505 -0.0178233 0)
(-0.000157582 -0.0175462 0)
(-0.000378003 -0.019726 0)
(-0.000618103 -0.0197701 0)
(0.000597802 -0.0198476 0)
(0.0021948 -0.0188083 0)
(-0.000249181 -0.0181001 0)
(0.000342373 -0.0192759 0)
(0.000250886 -0.0199453 0)
(0.00130015 -0.0199948 0)
(-0.000454443 -0.0215298 0)
(-0.000126324 -0.0214506 0)
(-0.00339557 -0.0201106 0)
(0.000216105 -0.0192643 0)
(0.00286583 -0.0193686 0)
(0.00225297 -0.0186989 0)
(0.000533598 -0.0198894 0)
(0.00285543 -0.0211538 0)
(-0.00103111 -0.0223618 0)
(-0.00188134 -0.0247897 0)
(-0.000569054 -0.0239914 0)
(0.00161414 -0.0201719 0)
(-0.00285154 -0.0192984 0)
(-0.00230615 -0.0193581 0)
(0.00110417 -0.0171703 0)
(0.00360482 -0.0108447 0)
(0.000128452 -0.012051 0)
(0.00366498 -0.0185348 0)
(-0.00300477 -0.014537 0)
(-0.0044567 -0.00888137 0)
(0.000783063 -0.0145326 0)
(0.00089525 -0.0190519 0)
(0.00156806 -0.0170293 0)
(-0.000225631 -0.0167098 0)
(-0.000166949 -0.01821 0)
(0.000179555 -0.0202949 0)
(-0.00123132 -0.0209511 0)
(0.00142672 -0.0189972 0)
(0.00371606 -0.0174339 0)
(-0.000617942 -0.0154602 0)
(0.00130464 -0.0133317 0)
(-0.0027632 -0.0125987 0)
(-0.0024644 -0.01388 0)