/*--------------------------------*- C++ -*----------------------------------*\
  =========                 |
  \\      /  F ield         | OpenFOAM: The Open Source CFD Toolbox
   \\    /   O peration     | Website:  https://openfoam.org
    \\  /    A nd           | Version:  12
     \\/     M anipulation  |
\*---------------------------------------------------------------------------*/
FoamFile
{
    format      ascii;
    class       volVectorField;
    location    "0.2";
    object      U.water_0;
}
// * * * * * * * * * * * * * * * * * * * * * * * * * * * * * * * * * * * * * //

dimensions      [0 1 -1 0 0 0 0];

internalField   nonuniform List<vector> 
3750
(
(-0.00561484 -0.0833111 0)
(-0.035107 0.0625813 0)
(-0.00729135 -0.00133543 0)
(0.003847 0.0239726 0)
(0.00198875 0.00786062 0)
(0.00379442 0.0128902 0)
(-0.00301138 0.0083564 0)
(0.000806491 0.013597 0)
(-0.00191371 0.0120492 0)
(0.000884395 0.015872 0)
(0.00267761 0.0210444 0)
(-0.000777234 0.0196065 0)
(0.00143977 0.0199813 0)
(-0.00232194 0.0211067 0)
(-0.00170418 0.0149122 0)
(-0.000557083 0.0141873 0)
(-0.000813075 0.0157527 0)
(0.00159802 0.016993 0)
(-0.00127831 0.0179274 0)
(0.00306531 0.0238322 0)
(-0.000750305 0.0217913 0)
(0.000345196 0.0153631 0)
(0.00080325 0.0139588 0)
(0.000183242 0.0128496 0)
(-0.00305434 0.0160646 0)
(-0.000555337 0.0177728 0)
(-5.67841e-05 0.019826 0)
(0.001188 0.0219743 0)
(0.00103532 0.0225533 0)
(0.00142809 0.0212591 0)
(-0.00147434 0.0188974 0)
(-0.0031568 0.0179855 0)
(-0.00262833 0.0193228 0)
(0.00116691 0.0190647 0)
(0.00175022 0.0227722 0)
(-0.00194099 0.0219429 0)
(0.000628543 0.018303 0)
(0.000295124 0.0206401 0)
(-0.00127585 0.0202962 0)
(-0.000529162 0.0204409 0)
(-0.00166219 0.0208393 0)
(-0.000887046 0.021048 0)
(-0.000239659 0.0221239 0)
(2.65352e-05 0.0251919 0)
(-0.000209578 0.027351 0)
(0.000359729 0.0282612 0)
(0.000596683 0.0279088 0)
(0.00250482 0.0224812 0)
(0.00299295 0.0201444 0)
(0.00349348 0.0225329 0)
(-0.000420154 0.0197354 0)
(0.000576487 0.0128042 0)
(-0.000491827 0.012498 0)
(-0.000957392 0.0137781 0)
(-0.00152236 0.0151859 0)
(0.00102862 0.0150615 0)
(0.000945387 0.015253 0)
(-0.000361459 0.016149 0)
(0.00188124 0.0267684 0)
(-0.00057293 0.0288001 0)
(0.000849075 0.0219519 0)
(0.00147984 0.0192298 0)
(0.00136846 0.0174408 0)
(0.000917745 0.0143598 0)
(0.000273778 0.0119672 0)
(-0.000842952 0.0113494 0)
(-0.00190566 0.0111454 0)
(-0.00126911 0.0107295 0)
(0.000582715 0.0182816 0)
(-0.00317541 0.0189634 0)
(8.36525e-05 0.0144871 0)
(-0.000273427 0.0151309 0)
(-0.000533695 0.0181273 0)
(-0.000651388 0.0203752 0)
(0.00157018 0.0178538 0)
(-0.00415208 -0.0666131 0)
(-0.0235094 0.0260555 0)
(0.00842943 -0.045904 0)
(0.00688756 0.0132729 0)
(-0.000597023 -0.0241092 0)
(0.00164522 0.00697755 0)
(-0.00334571 -0.00991248 0)
(-0.00133639 0.00490118 0)
(-0.00106957 -0.00637575 0)
(0.000734939 0.00450158 0)
(0.000361042 -0.00227356 0)
(-0.00253161 0.000907364 0)
(0.000943207 1.26532e-05 0)
(-0.000148229 0.00255321 0)
(0.00151904 -0.0035582 0)
(0.000785585 -0.00343029 0)
(-0.000585201 -0.000850323 0)
(-0.00156031 -0.00070806 0)
(-0.00133137 0.00155279 0)
(0.00128076 0.00340521 0)
(-0.00252294 0.00106142 0)
(0.00134641 0.000758431 0)
(0.00316842 0.000512095 0)
(-0.00136678 -0.00207559 0)
(-0.00290448 0.000707559 0)
(-0.00344111 -0.000209537 0)
(-0.00222307 -0.00366467 0)
(-0.00453062 -0.00161716 0)
(-0.000104151 0.00292297 0)
(0.00268326 -0.000468174 0)
(0.00269888 -0.00376591 0)
(0.00131388 -0.0037858 0)
(0.00341589 -0.000455435 0)
(0.00370387 -0.00260073 0)
(-3.43217e-05 -0.00671301 0)
(-0.00621421 -0.00307842 0)
(-0.000214338 -0.00184435 0)
(-1.08635e-05 -0.00130905 0)
(0.00048082 -6.97037e-05 0)
(-0.000387652 0.000415147 0)
(0.00239518 -0.00146649 0)
(-0.00140105 -0.000369592 0)
(-0.00431755 0.00342463 0)
(-0.00506438 0.00693469 0)
(-0.00400278 0.00924196 0)
(0.00129933 0.0128409 0)
(0.0025952 0.0158022 0)
(0.00459291 0.0164737 0)
(0.00335612 0.0148045 0)
(0.00502822 0.00952898 0)
(0.00148609 0.0046282 0)
(0.000738453 -0.000561279 0)
(-0.000599843 -0.00526444 0)
(0.00153413 -0.00662984 0)
(-0.00053398 -0.00542309 0)
(-0.00169655 -0.00300305 0)
(-0.00546019 -0.00437889 0)
(-0.00447295 -0.00214064 0)
(-0.00124325 0.00165601 0)
(-0.00237581 0.00236311 0)
(0.0011557 0.00286093 0)
(0.00358587 0.00259088 0)
(0.00171109 0.00174673 0)
(0.00238635 0.000544647 0)
(0.00379148 -0.00413496 0)
(0.00286011 -0.00715894 0)
(0.000237526 -0.00827983 0)
(0.00014472 -0.00643999 0)
(0.00081914 -0.00623946 0)
(-0.00308528 -0.00630148 0)
(-0.00189025 -0.00909257 0)
(-0.00269162 -0.0107701 0)
(-0.00129384 -0.00784123 0)
(0.00283077 -0.00120757 0)
(0.00198092 -0.00288743 0)
(-0.00726107 -0.0646021 0)
(-0.0187702 0.0177674 0)
(-0.014476 -0.0450125 0)
(-0.00263759 0.0061472 0)
(0.00125475 -0.022805 0)
(-0.00126181 -0.00535322 0)
(0.00340166 -0.0123423 0)
(-0.0011941 -0.00226694 0)
(0.00157305 -0.00714074 0)
(-0.00106315 -0.00785992 0)
(-0.00395388 -0.0145756 0)
(-0.00425271 -0.0129094 0)
(-0.00328814 -0.0110072 0)
(0.000492608 -0.00598132 0)
(0.00239225 -0.00441219 0)
(-0.000559452 -0.00296255 0)
(0.00346073 -0.00441916 0)
(-0.00263951 -0.00968237 0)
(-0.00129184 -0.0104654 0)
(-0.002765 -0.0125424 0)
(-0.00108071 -0.0129646 0)
(0.00151855 -0.00879735 0)
(0.00251403 -0.0120845 0)
(0.00213567 -0.0171469 0)
(0.00132922 -0.015875 0)
(-0.00295839 -0.017546 0)
(-0.000413313 -0.021602 0)
(0.000283599 -0.020197 0)
(0.00311622 -0.0167915 0)
(0.00167075 -0.0213155 0)
(0.000227001 -0.0241674 0)
(0.00288189 -0.0201505 0)
(0.00212193 -0.0152816 0)
(-0.00240345 -0.0186429 0)
(-0.0017683 -0.0223265 0)
(-0.00469396 -0.0153434 0)
(-0.00295301 -0.0147305 0)
(-0.0018659 -0.0163844 0)
(0.000318263 -0.0146609 0)
(-0.00203045 -0.0117141 0)
(-0.00223754 -0.00828449 0)
(-0.00297658 -0.00675229 0)
(-0.00704328 -0.00697079 0)
(-0.00809966 -0.00991463 0)
(-0.00690439 -0.00719422 0)
(-0.00313419 -0.00306092 0)
(-0.00309995 0.00151807 0)
(0.0022156 0.00355759 0)
(0.00740266 0.00789011 0)
(0.00927434 0.0055721 0)
(0.00819318 -0.000239852 0)
(0.00768914 -0.00497805 0)
(0.00365267 -0.0110926 0)
(0.00313486 -0.0112004 0)
(0.0020487 -0.00991166 0)
(-0.00450855 -0.00831453 0)
(-0.00573071 -0.0109676 0)
(-0.00403508 -0.0127775 0)
(-0.00178507 -0.0165495 0)
(-0.000642148 -0.0167854 0)
(0.000366885 -0.0136423 0)
(0.000580543 -0.0116032 0)
(0.00471698 -0.0112737 0)
(0.00754022 -0.010616 0)
(0.00619322 -0.0108843 0)
(0.00243118 -0.0104179 0)
(-0.00118003 -0.0104953 0)
(-0.000473144 -0.0102694 0)
(0.000171557 -0.00841397 0)
(0.000669698 -0.008272 0)
(0.000202591 -0.0114262 0)
(-0.000922601 -0.0150585 0)
(-0.00139051 -0.0131019 0)
(-0.00117287 -0.0128198 0)
(-0.00215178 -0.0144968 0)
(-0.0127265 -0.0681848 0)
(-0.0140963 0.0209792 0)
(-0.00789454 -0.0413178 0)
(-0.00104998 -0.00361097 0)
(-0.00171642 -0.0250177 0)
(0.00102212 -0.0086466 0)
(0.00341315 -0.0132414 0)
(4.44267e-05 -0.00541417 0)
(7.23369e-05 -0.00819032 0)
(-0.00212498 -0.00488869 0)
(-0.00196526 -0.0100298 0)
(-0.00555181 -0.0119502 0)
(-0.00637629 -0.0136199 0)
(-0.0040272 -0.0108583 0)
(0.000592894 -0.00836918 0)
(0.00123278 -0.00511141 0)
(0.00477814 -0.00342786 0)
(0.00307655 -0.010145 0)
(0.0013245 -0.0151131 0)
(-0.000107132 -0.0163858 0)
(-0.000749487 -0.0153975 0)
(0.00480146 -0.0142984 0)
(0.00313149 -0.0177103 0)
(0.000744527 -0.0198616 0)
(-0.00201276 -0.0182452 0)
(-0.0037029 -0.0185376 0)
(0.000777752 -0.0208303 0)
(0.00284694 -0.020118 0)
(0.00149152 -0.0182797 0)
(0.000534099 -0.0209428 0)
(0.00244519 -0.0190444 0)
(0.00554273 -0.0200709 0)
(0.00254903 -0.0241467 0)
(-0.00498225 -0.0245662 0)
(-0.00586037 -0.0259985 0)
(-0.00642769 -0.0226802 0)
(-0.00622366 -0.0214636 0)
(-0.00235675 -0.023086 0)
(-0.00065398 -0.0221131 0)
(-0.000899317 -0.017518 0)
(-0.00429068 -0.0104707 0)
(-0.000598597 -0.0131704 0)
(-0.00708134 -0.0170206 0)
(-0.00662206 -0.0175083 0)
(-0.00944621 -0.0172167 0)
(-0.00318293 -0.0173099 0)
(-0.00291738 -0.0134788 0)
(0.000953505 -0.00951776 0)
(0.00795506 -0.0088586 0)
(0.0119575 -0.0105081 0)
(0.0147216 -0.0138914 0)
(0.0106279 -0.0146137 0)
(0.00581318 -0.0152197 0)
(0.0011271 -0.0126507 0)
(-0.00194366 -0.0110221 0)
(-0.00514079 -0.0105479 0)
(-0.00380356 -0.0116504 0)
(-0.00238834 -0.0151178 0)
(5.91312e-05 -0.0155788 0)
(0.000728438 -0.0155376 0)
(-0.0021756 -0.0170235 0)
(-0.00303667 -0.0169679 0)
(0.000151026 -0.0149126 0)
(0.00325256 -0.0116758 0)
(0.00350668 -0.0104025 0)
(0.00153491 -0.0114868 0)
(0.00134932 -0.012039 0)
(-0.00131497 -0.0116338 0)
(-0.00290004 -0.011834 0)
(-0.000842447 -0.00867065 0)
(0.00256158 -0.00861208 0)
(0.005626 -0.0108387 0)
(0.00302027 -0.0139841 0)
(-0.00264114 -0.0140868 0)
(-0.00264653 -0.0122182 0)
(-0.0159915 -0.0710947 0)
(-0.0148975 0.0220726 0)
(-0.00876052 -0.0397249 0)
(-0.00739372 0.00188065 0)
(-0.00376769 -0.0222418 0)
(-0.00262365 -0.0065227 0)
(0.000930938 -0.0171582 0)
(-0.00249359 -0.0132223 0)
(-0.00134987 -0.0150195 0)
(-0.00143842 -0.0113321 0)
(-0.00061367 -0.0105522 0)
(-0.00121045 -0.010911 0)
(-0.00250818 -0.0122737 0)
(-0.00212144 -0.00806347 0)
(0.000217245 -0.00926086 0)
(0.00207531 -0.0124462 0)
(0.0031875 -0.00834574 0)
(0.00468693 -0.00679685 0)
(0.00256512 -0.0111841 0)
(-0.000886129 -0.0150835 0)
(0.00185325 -0.0130527 0)
(0.00479213 -0.0143093 0)
(0.00212515 -0.0193449 0)
(0.000184966 -0.0167524 0)
(-0.000314474 -0.0158139 0)
(0.000398885 -0.01641 0)
(2.6555e-05 -0.0197565 0)
(0.00121692 -0.0226835 0)
(0.00176754 -0.0165914 0)
(0.00220539 -0.0148565 0)
(0.00503514 -0.0135578 0)
(0.0023888 -0.0121741 0)
(0.00275773 -0.0136516 0)
(-0.00208069 -0.0150457 0)
(-0.00337063 -0.017844 0)
(-0.00478574 -0.0191359 0)
(-0.00491546 -0.0227642 0)
(-0.00299947 -0.026609 0)
(-0.00215982 -0.0255021 0)
(0.000460364 -0.0217808 0)
(-0.0040187 -0.0124265 0)
(-0.00864748 -0.0129879 0)
(-0.00621967 -0.0146302 0)
(-0.00601895 -0.0159484 0)
(-0.00730724 -0.0122597 0)
(-0.00316368 -0.0118558 0)
(0.00226398 -0.0172945 0)
(0.00159179 -0.0189833 0)
(0.00307222 -0.0228598 0)
(0.00721519 -0.0204773 0)
(0.00996091 -0.0183131 0)
(0.00845466 -0.0158713 0)
(0.00464964 -0.0118633 0)
(0.000631688 -0.00951754 0)
(-0.00241404 -0.0121736 0)
(-0.00358428 -0.0128247 0)
(-0.00335565 -0.0124301 0)
(-0.000934408 -0.0139115 0)
(-8.59001e-05 -0.0153179 0)
(0.00212343 -0.015554 0)
(0.000700009 -0.0166145 0)
(0.000896363 -0.0192486 0)
(0.00145878 -0.0217715 0)
(0.00259614 -0.0183394 0)
(0.00352077 -0.0160997 0)
(0.00214479 -0.0164338 0)
(0.00146888 -0.0182923 0)
(-0.000656003 -0.0218134 0)
(-0.00134051 -0.0192519 0)
(-0.000899726 -0.0155195 0)
(0.000471151 -0.0141742 0)
(0.00212111 -0.0167944 0)
(0.00211499 -0.0197188 0)
(-0.000502588 -0.0195482 0)
(-0.00150955 -0.0190203 0)
(-0.0162488 -0.0771252 0)
(-0.0150942 0.0288853 0)
(-0.00551121 -0.0428675 0)
(-0.00358019 0.00739038 0)
(0.000773641 -0.0223842 0)
(-0.000307774 -0.00699999 0)
(-0.00111293 -0.0168594 0)
(-0.000506926 -0.0162084 0)
(-0.00309967 -0.0166737 0)
(-0.0035165 -0.0144944 0)
(-0.00247466 -0.0143966 0)
(-0.00192863 -0.0137232 0)
(-0.00571986 -0.013 0)
(-0.00133098 -0.0105018 0)
(-0.00124443 -0.00986464 0)
(-0.00115378 -0.0118123 0)
(-0.000691023 -0.0105477 0)
(0.00507829 -0.00460488 0)
(0.00674881 -0.00423281 0)
(0.00307546 -0.00781622 0)
(0.000640989 -0.0117799 0)
(-0.000271114 -0.0183752 0)
(0.00132405 -0.0204632 0)
(0.00270892 -0.0156186 0)
(0.00160496 -0.0134087 0)
(0.0017827 -0.0161599 0)
(-0.00328262 -0.0186046 0)
(-0.00301247 -0.0167634 0)
(-0.00220214 -0.0145892 0)
(0.000727152 -0.0139388 0)
(0.0035962 -0.0111235 0)
(0.00164817 -0.00866896 0)
(0.00117065 -0.00693183 0)
(-0.000407729 -0.00612414 0)
(-0.00275617 -0.010242 0)
(-0.00176408 -0.0181677 0)
(-0.00211409 -0.0215365 0)
(-0.00163418 -0.021683 0)
(-0.00491612 -0.0163967 0)
(-0.00605857 -0.0125064 0)
(-0.00531758 -0.0120752 0)
(-0.00764176 -0.0111297 0)
(-0.00165939 -0.0142074 0)
(-0.00404816 -0.0172836 0)
(-0.00114669 -0.0147789 0)
(-0.00389561 -0.0119565 0)
(0.00147866 -0.0181012 0)
(0.00118548 -0.0226092 0)
(0.00238257 -0.0222081 0)
(0.00382528 -0.019449 0)
(0.00579315 -0.0173284 0)
(0.00590393 -0.0160327 0)
(0.000484378 -0.0103116 0)
(-0.00151763 -0.0105964 0)
(-0.00135425 -0.0180251 0)
(-0.00101913 -0.0190275 0)
(-0.000380676 -0.0142601 0)
(-0.00088789 -0.0156302 0)
(-0.00106705 -0.0177143 0)
(0.00142931 -0.0165552 0)
(0.00158282 -0.0205777 0)
(0.000651877 -0.0216968 0)
(-0.00133311 -0.0210944 0)
(-0.000997147 -0.0184257 0)
(0.00317087 -0.0177726 0)
(0.00486701 -0.0182488 0)
(0.00499154 -0.0173848 0)
(0.00226717 -0.0185492 0)
(0.00180387 -0.0195637 0)
(-0.000383949 -0.0165471 0)
(-0.00109353 -0.0152851 0)
(-0.00332382 -0.0144732 0)
(0.00190141 -0.014951 0)
(-4.16745e-05 -0.0191118 0)
(-0.00264232 -0.021218 0)
(-0.0208265 -0.0743992 0)
(-0.0131912 0.0209751 0)
(-0.00181407 -0.0383267 0)
(-0.00306671 0.00371367 0)
(0.00104539 -0.0214733 0)
(-0.000588128 -0.00354941 0)
(-0.00188034 -0.0122758 0)
(-0.00187304 -0.00485964 0)
(-0.0025495 -0.00999901 0)
(-0.00508633 -0.00712876 0)
(-0.00219139 -0.00923964 0)
(-3.79028e-05 -0.012499 0)
(-0.00141469 -0.0138708 0)
(-0.0015178 -0.0138156 0)
(-0.00285271 -0.018434 0)
(-0.0039307 -0.0188342 0)
(-0.00608301 -0.0141077 0)
(0.00192045 -0.00973287 0)
(0.00887166 -0.0105735 0)
(0.00675149 -0.0165042 0)
(0.0037331 -0.0182045 0)
(0.00147696 -0.0133706 0)
(0.00176499 -0.00999577 0)
(0.00461309 -0.00795354 0)
(0.000493274 -0.00823477 0)
(-0.00304487 -0.0109296 0)
(-0.0026242 -0.012056 0)
(-0.00078492 -0.0121168 0)
(-0.00305508 -0.0133452 0)
(-0.000963067 -0.0147971 0)
(9.42709e-05 -0.0140369 0)
(-0.000644765 -0.0111542 0)
(-0.000246849 -0.00919717 0)
(0.00301728 -0.0100361 0)
(0.00392335 -0.0130978 0)
(0.00264398 -0.0146166 0)
(-0.00120656 -0.0146925 0)
(-0.00337074 -0.0125032 0)
(-0.00686579 -0.0105619 0)
(-0.00900147 -0.0112201 0)
(-0.00361056 -0.0122608 0)
(-0.00113016 -0.0117775 0)
(-0.000454295 -0.0146697 0)
(-0.00172006 -0.018122 0)
(-0.000908329 -0.0165487 0)
(-0.00421679 -0.0170436 0)
(-0.00320034 -0.0209204 0)
(0.00129573 -0.0195501 0)
(0.00228854 -0.0169276 0)
(0.00118419 -0.0137017 0)
(0.00368532 -0.0105674 0)
(0.00663952 -0.010916 0)
(0.00580793 -0.0088317 0)
(0.000508577 -0.0113294 0)
(-0.000126688 -0.0205325 0)
(-0.00089123 -0.0204392 0)
(-0.00122876 -0.0182218 0)
(-0.00379962 -0.018743 0)
(0.00184881 -0.0150067 0)
(0.00161635 -0.0145025 0)
(0.00142238 -0.0162825 0)
(-0.000238771 -0.0164813 0)
(-0.00132903 -0.0188885 0)
(-0.0021836 -0.0177426 0)
(0.00353345 -0.0189106 0)
(0.00314094 -0.0199955 0)
(0.00670072 -0.018014 0)
(0.00113902 -0.0173144 0)
(-0.00237895 -0.0137136 0)
(6.49402e-05 -0.0129577 0)
(-0.00134983 -0.0146492 0)
(-0.000531461 -0.00987208 0)
(0.00220184 -0.00824749 0)
(0.00180381 -0.0135365 0)
(-0.00029051 -0.017557 0)
(-0.0157839 -0.0634515 0)
(-0.00684633 0.00821492 0)
(-0.000980555 -0.0400633 0)
(-0.00418888 -0.00563228 0)
(0.000877822 -0.0218479 0)
(-0.00432647 -0.00717355 0)
(9.19279e-05 -0.0150553 0)
(-0.0042239 -0.0120579 0)
(-0.00317045 -0.0149279 0)
(-0.00154663 -0.0115564 0)
(-0.000472752 -0.0135802 0)
(0.00316901 -0.0187874 0)
(0.00461114 -0.0229831 0)
(-0.00123109 -0.0260227 0)
(-0.00288803 -0.0295916 0)
(9.16545e-05 -0.0340609 0)
(0.00113077 -0.0278651 0)
(-0.000269034 -0.0189616 0)
(0.00706066 -0.0212238 0)
(0.00794396 -0.0233669 0)
(0.00802823 -0.0199274 0)
(0.00472232 -0.0160092 0)
(-6.13146e-05 -0.00934326 0)
(-0.000332163 -0.00745273 0)
(-4.52558e-06 -0.0125081 0)
(0.000423338 -0.0154774 0)
(-0.000760264 -0.0166688 0)
(-5.18502e-06 -0.0171512 0)
(0.000766962 -0.0200135 0)
(-0.000249919 -0.0195449 0)
(-0.000617482 -0.0185692 0)
(-0.000702655 -0.0179041 0)
(0.00135874 -0.0179256 0)
(0.00263128 -0.0162994 0)
(0.00306395 -0.0130819 0)
(-0.00112004 -0.0109291 0)
(-0.00456743 -0.00517947 0)
(-0.00485815 -0.00230241 0)
(-0.00584628 -0.00576419 0)
(-0.00430053 -0.0109835 0)
(-0.000860776 -0.0147175 0)
(-0.000827536 -0.0184769 0)
(-0.00231567 -0.0180369 0)
(2.13549e-05 -0.0185567 0)
(0.00211972 -0.0180975 0)
(-0.000171764 -0.0196769 0)
(-0.00199298 -0.0226408 0)
(-0.00127588 -0.0241711 0)
(-0.00157615 -0.0228697 0)
(-0.00069884 -0.0201339 0)
(0.00219093 -0.0181789 0)
(0.00613988 -0.0162376 0)
(0.00721971 -0.0160294 0)
(0.00466633 -0.0168213 0)
(0.0034082 -0.0204299 0)
(0.000459782 -0.0219783 0)
(-0.000634267 -0.0216597 0)
(-0.00195456 -0.0167829 0)
(0.000693833 -0.0156243 0)
(-0.000668631 -0.0177539 0)
(0.00155499 -0.0164989 0)
(-0.000963509 -0.0163429 0)
(-0.000914779 -0.01663 0)
(0.00269605 -0.0125824 0)
(0.00337118 -0.0158812 0)
(0.00284184 -0.0183562 0)
(0.000969707 -0.0162694 0)
(-0.0005144 -0.0189015 0)
(-0.00380089 -0.0130439 0)
(-0.00164366 -0.0114045 0)
(-0.00117875 -0.0168825 0)
(-0.000504036 -0.016393 0)
(0.00155987 -0.0165293 0)
(0.00406808 -0.018708 0)
(0.00308908 -0.0202095 0)
(-0.0145557 -0.0630634 0)
(-0.00781347 0.0112784 0)
(-0.00227825 -0.0392511 0)
(-0.00188922 -0.00768612 0)
(-8.85977e-05 -0.024545 0)
(-0.00160627 -0.0127688 0)
(-0.00174083 -0.0182904 0)
(-0.00265981 -0.0200215 0)
(-0.00143776 -0.0189151 0)
(0.000956849 -0.0197198 0)
(0.00128883 -0.024759 0)
(0.0022712 -0.0250566 0)
(0.00449213 -0.02622 0)
(0.00184624 -0.0273281 0)
(-0.000440031 -0.0294895 0)
(-0.000232741 -0.0305714 0)
(0.00158358 -0.0320653 0)
(-0.00228125 -0.027124 0)
(-0.00175307 -0.0244836 0)
(0.00225377 -0.0282549 0)
(0.00313075 -0.0232959 0)
(0.00305315 -0.0200593 0)
(0.00331148 -0.0206082 0)
(0.00107086 -0.0214856 0)
(0.00132009 -0.0239938 0)
(0.00188789 -0.0249428 0)
(0.00218942 -0.024345 0)
(-0.00170793 -0.021388 0)
(0.000601956 -0.0199402 0)
(-0.0014414 -0.019548 0)
(-0.00150112 -0.0187022 0)
(-0.00108142 -0.0155796 0)
(-0.000894375 -0.013715 0)
(-0.000354694 -0.0131828 0)
(-0.00322755 -0.0107425 0)
(-0.00514338 -0.00959933 0)
(-0.00533508 -0.00809428 0)
(-0.00517231 -0.00813499 0)
(-0.000692666 -0.0118454 0)
(0.00101785 -0.0154145 0)
(0.000728022 -0.0171949 0)
(-0.00122091 -0.0167494 0)
(-0.00136889 -0.0156621 0)
(-0.000179851 -0.0166219 0)
(0.00168112 -0.0168227 0)
(0.00164704 -0.0157632 0)
(0.0012201 -0.0158369 0)
(-0.000462346 -0.0165615 0)
(-0.00130997 -0.0182035 0)
(-0.000733548 -0.0204716 0)
(0.00118352 -0.0237928 0)
(0.00469067 -0.0246146 0)
(0.00648051 -0.0238261 0)
(0.00508102 -0.0233018 0)
(0.00341082 -0.0241171 0)
(0.00041212 -0.0220398 0)
(-3.67166e-05 -0.0200705 0)
(-0.00240187 -0.0192695 0)
(-0.00239575 -0.0197814 0)
(-0.00358801 -0.0196879 0)
(-0.000724619 -0.0155634 0)
(0.00149372 -0.0135489 0)
(0.00176409 -0.00910609 0)
(0.00551767 -0.00503203 0)
(0.00297394 -0.00797438 0)
(0.00381683 -0.0128738 0)
(-0.000318606 -0.0136593 0)
(-0.000212481 -0.0146101 0)
(-0.000700829 -0.0096407 0)
(-0.0024664 -0.00709321 0)
(0.000838274 -0.0154118 0)
(0.000758328 -0.0161482 0)
(0.0012707 -0.014347 0)
(0.00286493 -0.0167628 0)
(0.00357927 -0.0172182 0)
(-0.0165296 -0.0650081 0)
(-0.00479594 0.0187398 0)
(-0.00736875 -0.0389981 0)
(-0.00217191 -0.0077001 0)
(-0.00090565 -0.0224186 0)
(0.00138794 -0.0110594 0)
(-0.00354501 -0.0175955 0)
(0.000160983 -0.0158169 0)
(0.00169686 -0.0207459 0)
(-0.00131201 -0.0228717 0)
(0.00314193 -0.0261146 0)
(0.0020721 -0.0265051 0)
(0.00345201 -0.0258997 0)
(0.00196898 -0.0249548 0)
(0.000461477 -0.0237622 0)
(-0.000520331 -0.0227427 0)
(-0.000948115 -0.022951 0)
(-3.54344e-05 -0.0232667 0)
(-0.00209461 -0.0250832 0)
(0.000602184 -0.0272455 0)
(0.00461497 -0.0268739 0)
(0.00326918 -0.0259128 0)
(0.00144221 -0.0245702 0)
(0.0016824 -0.0242385 0)
(-0.000475817 -0.0248017 0)
(0.000632035 -0.0233438 0)
(-6.30297e-05 -0.0207435 0)
(-0.00153764 -0.0135919 0)
(-0.00381098 -0.0120155 0)
(-0.00424778 -0.0163667 0)
(-0.00425449 -0.016169 0)
(-0.00316426 -0.0148109 0)
(-0.00127228 -0.013777 0)
(-0.000448083 -0.0143296 0)
(-0.001428 -0.0144576 0)
(-0.00238655 -0.0154003 0)
(-0.00252225 -0.0177809 0)
(-0.00304517 -0.0196074 0)
(-0.00210018 -0.0203667 0)
(-0.00117151 -0.0188238 0)
(-6.50298e-05 -0.0199419 0)
(0.00112259 -0.0175164 0)
(0.00124995 -0.0133065 0)
(-7.84278e-05 -0.0131695 0)
(0.00022325 -0.0145851 0)
(-0.00143998 -0.0155706 0)
(-0.000497727 -0.0163777 0)
(-0.00148131 -0.0166825 0)
(0.000921715 -0.0179241 0)
(0.00390077 -0.0214877 0)
(0.00513032 -0.0229456 0)
(0.00528992 -0.0233231 0)
(0.00569389 -0.0221802 0)
(0.00338829 -0.0212405 0)
(0.00246945 -0.0225633 0)
(0.00104357 -0.0204635 0)
(-0.000253712 -0.0184665 0)
(-0.00303439 -0.0139329 0)
(-0.00268066 -0.0145815 0)
(-0.00535083 -0.0194379 0)
(-0.0075684 -0.0157697 0)
(-0.00144043 -0.01255 0)
(0.00217537 -0.00875034 0)
(0.00408411 -0.00778989 0)
(0.00290616 -0.0096365 0)
(0.00268927 -0.00907516 0)
(0.00131409 -0.00990573 0)
(0.00156989 -0.0138298 0)
(0.0024968 -0.0100541 0)
(-0.00444043 -0.0055373 0)
(0.000445497 -0.0138344 0)
(0.00225596 -0.0192948 0)
(-0.00157091 -0.0176024 0)
(0.000172475 -0.0157558 0)
(0.000445185 -0.0142512 0)
(-0.0146295 -0.0650633 0)
(-0.00541245 0.014127 0)
(-0.0138979 -0.0422936 0)
(-0.00361003 -0.00676233 0)
(-0.00192433 -0.0236147 0)
(0.000595456 -0.0138387 0)
(0.000318327 -0.0153239 0)
(0.00144194 -0.0116042 0)
(0.00221187 -0.0187729 0)
(0.0019986 -0.016313 0)
(0.00250046 -0.0178003 0)
(0.00330649 -0.0220988 0)
(0.00246312 -0.0199267 0)
(0.000390069 -0.0159782 0)
(-0.00153032 -0.0144772 0)
(-0.00184299 -0.0132439 0)
(-0.00161775 -0.0136233 0)
(-0.000780262 -0.0141361 0)
(0.000336336 -0.0138166 0)
(0.00188415 -0.0130145 0)
(0.00253362 -0.0136958 0)
(0.00305298 -0.0142948 0)
(0.00235324 -0.00947889 0)
(0.000388544 -0.00999465 0)
(-0.000207776 -0.0136085 0)
(-0.00100704 -0.0132497 0)
(-0.00155355 -0.0140368 0)
(-0.00143601 -0.0126934 0)
(-0.00578846 -0.0119621 0)
(-0.00335552 -0.0125334 0)
(-0.0021542 -0.0136146 0)
(-0.00231381 -0.013451 0)
(-0.00157138 -0.0145701 0)
(-0.000201812 -0.0166156 0)
(-0.00092568 -0.015286 0)
(-0.00157205 -0.0167484 0)
(-0.000478631 -0.0202051 0)
(-0.00226503 -0.0225911 0)
(-0.00253856 -0.0225594 0)
(-0.00068427 -0.0217046 0)
(-0.000133158 -0.0202707 0)
(0.00183335 -0.0185534 0)
(-0.000869591 -0.0153028 0)
(-0.00320745 -0.0139318 0)
(-0.000687202 -0.0154688 0)
(-0.000576925 -0.0182701 0)
(0.000363195 -0.0191452 0)
(-0.000383332 -0.0200745 0)
(0.00320214 -0.0218008 0)
(0.00309089 -0.0235873 0)
(0.00326906 -0.0225605 0)
(0.00385259 -0.0218928 0)
(0.00458534 -0.022132 0)
(0.00322912 -0.0221097 0)
(0.00113055 -0.0215693 0)
(0.00105639 -0.0204282 0)
(-0.0011489 -0.0177123 0)
(-0.00199691 -0.0105262 0)
(-0.00443938 -0.0103587 0)
(-0.00429427 -0.0184896 0)
(-0.00479706 -0.0154278 0)
(-0.000140481 -0.0131032 0)
(0.00108548 -0.0150116 0)
(-0.000159412 -0.0170884 0)
(1.95076e-05 -0.0188534 0)
(0.00192932 -0.0170554 0)
(4.91473e-05 -0.0167938 0)
(0.00492716 -0.017709 0)
(0.00560447 -0.0172607 0)
(0.00337025 -0.0111948 0)
(0.00108862 -0.0126418 0)
(0.00141339 -0.0168329 0)
(-0.00200315 -0.0129071 0)
(-0.00182925 -0.0121932 0)
(-0.0025346 -0.0116288 0)
(-0.0111068 -0.0737549 0)
(-0.00351598 0.0350418 0)
(-0.0141011 -0.0415005 0)
(-0.00471559 0.00131716 0)
(-0.00503838 -0.0229925 0)
(0.000445681 -0.0106199 0)
(0.00108564 -0.0152289 0)
(0.00106308 -0.0107519 0)
(0.00289149 -0.0155084 0)
(0.00408757 -0.0153625 0)
(0.000124271 -0.0149398 0)
(0.000688178 -0.0139389 0)
(-7.99178e-05 -0.0146263 0)
(-0.00153751 -0.0131812 0)
(-0.0018544 -0.0127893 0)
(-0.00372294 -0.0113312 0)
(-0.000364785 -0.012051 0)
(-0.000124545 -0.0144191 0)
(0.00163616 -0.0144173 0)
(0.00286865 -0.0132261 0)
(0.00172183 -0.0122573 0)
(0.00137856 -0.0114481 0)
(0.00278206 -0.0104206 0)
(-0.000536633 -0.00945904 0)
(-0.0012951 -0.011174 0)
(0.000968733 -0.0121906 0)
(0.000743977 -0.0112081 0)
(-0.00225918 -0.0121878 0)
(-0.00441773 -0.0133485 0)
(-0.00472901 -0.0144775 0)
(-0.00274037 -0.015559 0)
(-0.00107195 -0.0144173 0)
(-0.000276051 -0.0151562 0)
(0.00200013 -0.0189938 0)
(0.000105137 -0.0206842 0)
(-1.69586e-05 -0.0201845 0)
(0.000864004 -0.0215013 0)
(0.000542585 -0.0223796 0)
(-0.00190344 -0.0221082 0)
(-0.00236025 -0.0218288 0)
(-0.00195441 -0.0219164 0)
(-0.00141781 -0.0215875 0)
(-0.000473744 -0.0213854 0)
(-0.00097098 -0.0182439 0)
(-0.000515091 -0.0196277 0)
(0.0002249 -0.0247473 0)
(0.000155063 -0.0259104 0)
(0.00159237 -0.0222111 0)
(0.00405338 -0.0223868 0)
(0.00380072 -0.0276198 0)
(0.00326105 -0.0260302 0)
(0.00385011 -0.0223001 0)
(0.00322175 -0.0207486 0)
(0.00200342 -0.020276 0)
(0.00103949 -0.0182643 0)
(-0.000973093 -0.0126456 0)
(-0.00270717 -0.0105424 0)
(-0.00155888 -0.00934531 0)
(-0.00372194 -0.0107412 0)
(-0.00179472 -0.0142091 0)
(0.00176434 -0.0118439 0)
(-3.71916e-05 -0.0121507 0)
(-0.000578185 -0.0155041 0)
(-0.00269571 -0.0168589 0)
(-0.0012134 -0.0182938 0)
(0.000355045 -0.0215966 0)
(0.0018886 -0.0177527 0)
(0.00276314 -0.017688 0)
(0.00174073 -0.0204931 0)
(0.000311472 -0.0155754 0)
(-0.00494548 -0.0130763 0)
(-0.00319652 -0.0125392 0)
(-0.0042336 -0.0121563 0)
(-0.000105445 -0.0130678 0)
(0.00178884 -0.0105222 0)
(-0.0210281 -0.0722307 0)
(-0.016539 0.0442933 0)
(-0.00156181 -0.0431221 0)
(-0.00530651 0.0164696 0)
(-0.00130844 -0.0231159 0)
(-0.0023428 -0.00863728 0)
(-0.00127071 -0.0177229 0)
(0.00242197 -0.0113272 0)
(0.00601089 -0.0161049 0)
(0.00385552 -0.0159554 0)
(0.00163516 -0.0148722 0)
(0.000244698 -0.0135039 0)
(-3.59183e-05 -0.0137359 0)
(4.02819e-06 -0.0124022 0)
(7.05201e-05 -0.0135316 0)
(0.000238299 -0.0120833 0)
(0.000259 -0.0133044 0)
(-0.000614604 -0.0177058 0)
(0.000490392 -0.0174829 0)
(0.001292 -0.0147249 0)
(0.00151912 -0.0130387 0)
(0.00245566 -0.0121242 0)
(0.00251792 -0.0103316 0)
(0.00245304 -0.0128288 0)
(0.00189361 -0.0107825 0)
(0.000911482 -0.00612858 0)
(-0.00189987 -0.00823237 0)
(-0.00651668 -0.00858439 0)
(-0.00293391 -0.00795673 0)
(-0.00098895 -0.012238 0)
(-0.00334642 -0.016117 0)
(0.00231587 -0.0135544 0)
(0.00146294 -0.0106116 0)
(-0.000625999 -0.0159579 0)
(-0.00154294 -0.0184848 0)
(-0.00123558 -0.0164629 0)
(7.31937e-05 -0.0154755 0)
(-0.000164005 -0.0148935 0)
(-0.00172658 -0.0138591 0)
(-0.000825508 -0.0151478 0)
(-0.00176467 -0.017407 0)
(-0.00106985 -0.0182883 0)
(9.07788e-05 -0.0186719 0)
(0.00166703 -0.0178944 0)
(-0.00187387 -0.0183983 0)
(0.000964895 -0.0212409 0)
(0.00226953 -0.0242438 0)
(0.00316046 -0.0219984 0)
(0.00411703 -0.0205774 0)
(0.00253978 -0.0224918 0)
(0.0014747 -0.0217307 0)
(0.00045884 -0.0199405 0)
(-0.000398118 -0.0187809 0)
(-0.00114343 -0.0140502 0)
(-0.00145964 -0.0109931 0)
(-0.00212837 -0.00980559 0)
(-0.00402026 -0.00853887 0)
(-0.00160238 -0.009596 0)
(-0.000337294 -0.0100011 0)
(0.00125995 -0.0122365 0)
(0.00299713 -0.0118655 0)
(0.000192607 -0.0115501 0)
(0.000576646 -0.012338 0)
(0.000362727 -0.0140046 0)
(0.00165343 -0.0160185 0)
(0.000807808 -0.0168483 0)
(0.00397271 -0.0150981 0)
(0.00176199 -0.014923 0)
(0.00143688 -0.0138395 0)
(0.00112846 -0.0135531 0)
(-0.000160756 -0.0162228 0)
(-0.00184224 -0.020903 0)
(-0.0012016 -0.0183493 0)
(0.0032383 -0.0148068 0)
(0.00349603 -0.0150349 0)
(-0.0232741 -0.0587203 0)
(-0.0117349 0.00536013 0)
(0.000827611 -0.0370266 0)
(-0.003718 -0.00824528 0)
(0.000735111 -0.0267674 0)
(-0.000782096 -0.0198038 0)
(0.0031551 -0.0201717 0)
(0.00211798 -0.0121727 0)
(0.00164286 -0.0168606 0)
(-5.5516e-06 -0.0191114 0)
(-0.000112832 -0.0175544 0)
(-0.000990082 -0.0160248 0)
(-0.000774425 -0.0165029 0)
(0.000360393 -0.016683 0)
(0.00234529 -0.0169713 0)
(0.00247033 -0.0159833 0)
(-0.00261195 -0.0168204 0)
(-0.00161864 -0.018128 0)
(-0.000507911 -0.0196733 0)
(-0.000818001 -0.0213201 0)
(0.000147563 -0.0185135 0)
(0.00262489 -0.0154728 0)
(0.00304261 -0.0137686 0)
(0.00110325 -0.0132639 0)
(0.00346853 -0.0136437 0)
(-0.000303493 -0.0122466 0)
(-0.00339492 -0.0136489 0)
(-0.00359948 -0.014801 0)
(-0.00200412 -0.0110197 0)
(-0.0003905 -0.0167324 0)
(0.00039282 -0.0178745 0)
(0.00305338 -0.013943 0)
(0.000129215 -0.0133706 0)
(-0.00143636 -0.0144792 0)
(-0.00210723 -0.0173314 0)
(-0.00317961 -0.0175299 0)
(-0.000262537 -0.017902 0)
(-0.000517395 -0.0188467 0)
(0.00112855 -0.0157853 0)
(0.000835207 -0.0155897 0)
(0.000994619 -0.0194438 0)
(0.000543532 -0.0217397 0)
(0.000778505 -0.021872 0)
(-0.00112832 -0.0215556 0)
(-0.0021612 -0.0202607 0)
(0.00243528 -0.0199976 0)
(0.00555104 -0.021757 0)
(0.0046398 -0.016232 0)
(0.00213958 -0.0153965 0)
(-0.000529608 -0.0187647 0)
(-0.000769423 -0.0155809 0)
(-1.46399e-06 -0.0152456 0)
(-0.000439115 -0.0148095 0)
(-0.00126357 -0.0142194 0)
(-0.0031715 -0.0140135 0)
(-0.00322184 -0.0152981 0)
(-0.00343934 -0.0154089 0)
(-0.00458262 -0.0127959 0)
(-0.00113049 -0.0119274 0)
(7.18615e-05 -0.0133327 0)
(0.00168445 -0.0128255 0)
(-0.000276521 -0.0123283 0)
(1.46865e-05 -0.0126496 0)
(0.00264385 -0.0134713 0)
(0.00403332 -0.0146427 0)
(0.00374475 -0.0113681 0)
(0.00279151 -0.00661397 0)
(-0.00138795 -0.00810755 0)
(-0.00277648 -0.0101669 0)
(-0.000532457 -0.0104973 0)
(0.0030341 -0.0134899 0)
(0.00252775 -0.0139633 0)
(0.00205467 -0.0106741 0)
(-0.000544814 -0.0111282 0)
(-0.00196041 -0.0160097 0)
(-0.0159091 -0.0698924 0)
(-0.00417091 0.00400354 0)
(-0.00690966 -0.038654 0)
(-0.0040063 -0.00927952 0)
(-0.00325512 -0.0249834 0)
(-0.000563554 -0.0156787 0)
(0.00338684 -0.0188317 0)
(0.000678169 -0.0138447 0)
(-0.00155427 -0.0167547 0)
(-0.000627414 -0.0186585 0)
(-0.000208757 -0.0206123 0)
(-0.000446986 -0.0205417 0)
(0.000386906 -0.0208177 0)
(-5.40201e-05 -0.0186611 0)
(0.00379284 -0.0181927 0)
(0.00192617 -0.0200973 0)
(-0.00172703 -0.0180751 0)
(0.00237959 -0.0176824 0)
(-0.000656979 -0.0225122 0)
(-0.00155913 -0.0246908 0)
(-0.000761927 -0.0216273 0)
(0.00147487 -0.0190367 0)
(0.00355955 -0.0193617 0)
(0.00236556 -0.0187815 0)
(0.00106749 -0.0193082 0)
(0.00153438 -0.0210372 0)
(-0.000197331 -0.0232722 0)
(-0.000285153 -0.0231726 0)
(-0.00186797 -0.0200853 0)
(-0.00383597 -0.0186829 0)
(0.00123631 -0.0192737 0)
(-0.00232425 -0.0188509 0)
(-0.000341563 -0.0154733 0)
(6.50317e-06 -0.0136984 0)
(0.00043607 -0.0168356 0)
(0.000359005 -0.0142938 0)
(-0.00131266 -0.0163393 0)
(-0.00221112 -0.0196491 0)
(-0.000485935 -0.0176236 0)
(7.90643e-05 -0.016018 0)
(0.00128616 -0.0159851 0)
(-0.00114622 -0.0149063 0)
(0.00183999 -0.0159553 0)
(-0.000382914 -0.0195234 0)
(0.00237221 -0.0174883 0)
(0.00101916 -0.0151819 0)
(0.00185459 -0.0183308 0)
(0.00268974 -0.0162839 0)
(-0.00174447 -0.012808 0)