/*--------------------------------*- C++ -*----------------------------------*\
  =========                 |
  \\      /  F ield         | OpenFOAM: The Open Source CFD Toolbox
   \\    /   O peration     | Website:  https://openfoam.org
    \\  /    A nd           | Version:  12
     \\/     M anipulation  |
\*---------------------------------------------------------------------------*/
FoamFile
{
    format      ascii;
    class       volVectorField::Internal;
    location    "0.65";
    object      cloud:UTrans;
}
// * * * * * * * * * * * * * * * * * * * * * * * * * * * * * * * * * * * * * //

dimensions      [1 1 -1 0 0 0 0];

value           nonuniform List<vector> 
3750
(
(-2.253e-09 2.58076e-08 0)
(1.18024e-09 1.18983e-09 0)
(3.44353e-10 4.24119e-11 0)
(6.4496e-11 -1.1102e-09 0)
(3.6674e-11 -1.0828e-09 0)
(4.86642e-11 -1.0361e-09 0)
(5.909e-11 -2.24858e-09 0)
(2.66738e-11 -9.65123e-10 0)
(-1.1363e-10 -3.14429e-09 0)
(0 0 0)
(9.0611e-11 -8.75514e-10 0)
(-2.92478e-12 -1.04516e-09 0)
(-8.37996e-12 -1.14595e-09 0)
(0 0 0)
(2.5309e-11 -1.21131e-09 0)
(3.98005e-12 -1.18376e-09 0)
(-1.72516e-11 -1.00407e-09 0)
(-3.54854e-13 -1.17069e-09 0)
(-9.55535e-12 -1.18388e-09 0)
(-5.98432e-11 -2.45603e-09 0)
(2.93702e-11 -2.3017e-09 0)
(-3.67708e-11 -9.90296e-10 0)
(1.05168e-11 -1.08497e-09 0)
(-1.43342e-11 -1.13518e-09 0)
(-3.09974e-11 -1.06824e-09 0)
(3.17623e-11 -2.3319e-09 0)
(3.36098e-11 -9.7089e-10 0)
(-1.66388e-11 -1.17026e-09 0)
(-5.05538e-12 -1.04058e-09 0)
(1.44042e-12 -1.28355e-09 0)
(0 0 0)
(-9.55965e-11 -1.14074e-09 0)
(0 0 0)
(2.3304e-11 -1.15393e-09 0)
(-4.44957e-11 -3.49991e-09 0)
(0 0 0)
(0 0 0)
(-1.29343e-11 -1.2362e-09 0)
(0 0 0)
(1.4877e-11 -1.09478e-09 0)
(0 0 0)
(-3.43078e-12 -8.46653e-10 0)
(1.18582e-10 -2.34157e-09 0)
(8.6627e-12 -2.02664e-09 0)
(-1.39974e-11 -1.10236e-09 0)
(-2.63486e-11 -1.12255e-09 0)
(-5.77827e-11 -1.16365e-09 0)
(-5.04313e-11 -1.14531e-09 0)
(-7.92084e-11 -2.3976e-09 0)
(4.44218e-11 -1.0887e-09 0)
(-1.49071e-13 -9.79648e-10 0)
(-1.02917e-11 -2.26388e-09 0)
(2.97143e-12 -9.05834e-10 0)
(1.96939e-11 -1.13274e-09 0)
(1.55989e-11 -2.33736e-09 0)
(3.02718e-11 -1.08611e-09 0)
(-1.95674e-11 -1.08079e-09 0)
(-1.62931e-11 -1.13434e-09 0)
(-3.87854e-11 -1.09323e-09 0)
(-7.36355e-11 -2.3913e-09 0)
(-1.70157e-11 -2.24782e-09 0)
(3.14184e-12 -9.52779e-10 0)
(1.12053e-10 -2.26229e-09 0)
(0 0 0)
(0 0 0)
(-1.69434e-11 -1.13497e-09 0)
(-5.83878e-11 -2.08857e-09 0)
(7.22568e-13 -1.11126e-09 0)
(2.85771e-11 -2.12511e-09 0)
(3.76127e-11 -9.86406e-10 0)
(5.78215e-11 -2.04958e-09 0)
(0 0 0)
(2.89221e-11 -1.07155e-09 0)
(3.18775e-11 -1.11689e-09 0)
(4.84179e-11 -1.2084e-09 0)
(-4.3312e-09 4.42958e-08 0)
(-8.76811e-11 2.37903e-09 0)
(3.3018e-11 -1.45372e-10 0)
(8.88594e-11 -1.06395e-09 0)
(5.64593e-11 -1.03187e-09 0)
(0 0 0)
(1.24873e-13 -9.25985e-10 0)
(-2.02044e-10 -3.13924e-09 0)
(2.77367e-12 -3.91325e-10 0)
(4.5916e-11 -1.75403e-09 0)
(9.08681e-11 -2.27059e-09 0)
(6.45591e-11 -1.08281e-09 0)
(0 0 0)
(0 0 0)
(2.31785e-11 -1.10735e-09 0)
(0 0 0)
(3.69822e-12 -1.15506e-09 0)
(0 0 0)
(-1.91165e-11 -1.1977e-09 0)
(-2.35262e-12 -1.1815e-09 0)
(5.75553e-11 -4.11382e-09 0)
(-6.64651e-11 -1.04564e-09 0)
(0 0 0)
(4.87533e-11 -1.17798e-09 0)
(0 0 0)
(-2.00873e-12 -1.10395e-09 0)
(0 0 0)
(0 0 0)
(4.78168e-12 -1.12365e-09 0)
(-2.66127e-11 -1.11039e-09 0)
(0 0 0)
(0 0 0)
(-1.8413e-11 -2.30731e-09 0)
(2.46577e-11 -1.00673e-09 0)
(1.83259e-11 -1.06242e-09 0)
(-1.95166e-11 -9.78385e-10 0)
(0 0 0)
(0 0 0)
(8.75856e-12 -1.1228e-09 0)
(0 0 0)
(2.08777e-11 -1.09301e-09 0)
(-1.48108e-10 -3.59233e-09 0)
(3.21129e-11 -8.69501e-10 0)
(-8.42212e-12 -1.07772e-09 0)
(0 0 0)
(0 0 0)
(0 0 0)
(0 0 0)
(-9.78598e-12 -1.13502e-09 0)
(0 0 0)
(-1.21822e-10 -2.68113e-09 0)
(0 0 0)
(4.67314e-11 -1.19515e-09 0)
(7.62096e-14 -1.24757e-09 0)
(-3.32924e-11 -1.2183e-09 0)
(-1.22543e-11 -1.104e-09 0)
(-1.52907e-12 -1.06512e-09 0)
(0 0 0)
(0 0 0)
(0 0 0)
(-3.38443e-11 -1.08755e-09 0)
(-1.92613e-11 -1.04204e-09 0)
(-1.17853e-10 -2.47561e-09 0)
(2.20461e-11 -1.04262e-09 0)
(-2.06973e-11 -1.2397e-09 0)
(-6.86705e-11 -1.2883e-09 0)
(0 0 0)
(-2.80771e-11 -1.04909e-09 0)
(-1.13684e-10 -2.30016e-09 0)
(1.1349e-11 -2.2125e-09 0)
(-1.51609e-11 -2.16962e-09 0)
(2.76701e-11 -8.80406e-10 0)
(2.76701e-12 -1.02761e-09 0)
(0 0 0)
(2.20634e-11 -1.151e-09 0)
(-2.68403e-09 2.91217e-08 0)
(2.29845e-09 1.7288e-09 0)
(0 0 0)
(3.48746e-10 -2.16943e-09 0)
(2.76187e-10 -2.2484e-09 0)
(3.87246e-11 -1.19808e-09 0)
(-8.92024e-12 -7.99581e-10 0)
(-1.37212e-10 -1.14303e-09 0)
(-3.92608e-11 -1.28596e-09 0)
(-3.76929e-11 -1.19006e-09 0)
(9.58475e-11 -9.6567e-10 0)
(1.17709e-10 -1.5461e-09 0)
(5.02512e-11 -1.09854e-09 0)
(1.27191e-10 -1.47029e-09 0)
(5.14505e-11 -1.14226e-09 0)
(-7.06545e-11 -2.37708e-09 0)
(0 0 0)
(0 0 0)
(3.1942e-11 -1.39813e-09 0)
(-1.14216e-10 -2.53343e-09 0)
(-9.33781e-12 -2.79275e-09 0)
(0 0 0)
(-3.8273e-11 -1.15458e-09 0)
(1.7303e-11 -1.07229e-09 0)
(0 0 0)
(1.14732e-10 -2.29616e-09 0)
(2.78406e-10 -2.51168e-09 0)
(1.87215e-12 -1.05838e-09 0)
(4.52661e-11 -1.11927e-09 0)
(0 0 0)
(3.76935e-12 -1.14951e-09 0)
(0 0 0)
(-2.91706e-11 -2.26741e-09 0)
(0 0 0)
(-6.99647e-12 -1.07112e-09 0)
(9.70912e-11 -9.96219e-10 0)
(1.17836e-10 -2.30897e-09 0)
(0 0 0)
(0 0 0)
(-9.43387e-11 -2.73133e-09 0)
(-2.44505e-11 -1.77974e-09 0)
(0 0 0)
(4.30222e-11 -2.28415e-09 0)
(3.31547e-11 -9.4303e-10 0)
(7.40102e-11 -1.05152e-09 0)
(5.54186e-11 -1.09824e-09 0)
(0 0 0)
(4.36206e-11 -1.14497e-09 0)
(0 0 0)
(-1.79415e-10 -2.3743e-09 0)
(-1.2033e-10 -2.46051e-09 0)
(0 0 0)
(-1.87211e-11 -1.1384e-09 0)
(0 0 0)
(-2.02858e-11 -1.13958e-09 0)
(-9.72512e-12 -1.14404e-09 0)
(-4.03235e-12 -9.63175e-10 0)
(-1.25509e-10 -3.52583e-09 0)
(5.52831e-11 -2.24439e-09 0)
(-4.80118e-11 -1.08679e-09 0)
(-8.88199e-12 -2.28153e-10 0)
(-1.47194e-10 -1.83074e-09 0)
(1.58525e-11 -8.76869e-10 0)
(5.66064e-11 -9.17023e-10 0)
(-1.61483e-10 -2.98071e-09 0)
(1.63115e-12 -1.08749e-09 0)
(0 0 0)
(0 0 0)
(-1.2649e-11 -2.30241e-09 0)
(1.37625e-11 -1.02065e-09 0)
(5.07133e-13 -1.01189e-09 0)
(4.05319e-11 -2.2572e-09 0)
(2.34061e-11 -9.37261e-10 0)
(0 0 0)
(-3.07847e-11 -1.09632e-09 0)
(8.17347e-09 3.67488e-08 0)
(9.95786e-10 -1.02488e-09 0)
(-3.46174e-11 -7.06794e-10 0)
(2.48848e-10 -2.14253e-09 0)
(2.75939e-10 -2.48295e-09 0)
(0 0 0)
(1.30728e-11 -3.63586e-09 0)
(-1.6279e-10 -2.52682e-09 0)
(-1.52406e-11 -1.03718e-09 0)
(7.51797e-11 -9.9715e-10 0)
(-6.95289e-11 -9.864e-10 0)
(-6.02584e-11 -3.60856e-09 0)
(1.38501e-11 -1.92118e-09 0)
(6.33585e-12 -2.51392e-09 0)
(6.8333e-11 -1.05504e-09 0)
(1.27482e-10 -1.08028e-09 0)
(2.59684e-12 -2.27322e-09 0)
(3.64746e-11 -9.14191e-10 0)
(1.68515e-10 -2.47545e-09 0)
(6.66185e-11 -1.08295e-09 0)
(-3.48603e-11 -1.16679e-09 0)
(0 0 0)
(9.03986e-12 -1.15155e-09 0)
(-1.4103e-11 -1.10371e-09 0)
(6.6863e-12 -1.04518e-09 0)
(3.51475e-11 -2.17522e-09 0)
(9.37828e-11 -1.20802e-09 0)
(0 0 0)
(1.13359e-10 -1.08205e-09 0)
(2.4214e-10 -1.02455e-09 0)
(-4.35005e-11 -1.16792e-09 0)
(0 0 0)
(3.88e-11 -1.05614e-09 0)
(1.63087e-11 -1.04098e-09 0)
(5.54213e-11 -2.25864e-09 0)
(9.38345e-11 -2.13942e-09 0)
(4.12353e-11 -1.15618e-09 0)
(-3.04011e-12 -1.11954e-09 0)
(4.39977e-11 -2.2819e-09 0)
(1.68288e-11 -1.65913e-09 0)
(6.26453e-11 -2.71328e-09 0)
(3.44591e-11 -9.8105e-10 0)
(5.07706e-11 -2.17927e-09 0)
(6.46665e-11 -1.0329e-09 0)
(4.6434e-11 -1.07419e-09 0)
(1.38727e-11 -1.10827e-09 0)
(-7.11545e-11 -1.11449e-09 0)
(9.07365e-13 -1.09212e-09 0)
(8.8555e-12 -2.71666e-09 0)
(-1.38049e-10 -9.311e-10 0)
(-9.34593e-11 -9.88358e-10 0)
(-1.12074e-11 -1.05711e-09 0)
(-1.76631e-11 -1.01731e-09 0)
(1.81907e-11 -1.00773e-09 0)
(3.03531e-12 -1.02235e-09 0)
(-7.58602e-11 -2.52316e-09 0)
(-3.67867e-11 -1.01027e-09 0)
(-3.68279e-11 -9.74493e-10 0)
(0 0 0)
(-1.56352e-11 -1.08937e-09 0)
(-5.22988e-11 -1.06042e-09 0)
(0 0 0)
(-1.47366e-12 -1.00289e-09 0)
(-7.71519e-11 -2.42161e-09 0)
(-9.22229e-11 -1.17215e-09 0)
(-4.83253e-12 -1.19298e-09 0)
(4.4931e-12 -1.04974e-09 0)
(1.0307e-11 -2.29935e-09 0)
(-7.41444e-12 -9.06309e-10 0)
(-5.37089e-13 -2.28978e-09 0)
(1.41871e-11 -9.16306e-10 0)
(-3.05958e-11 -9.6544e-10 0)
(-8.98029e-13 -9.71154e-10 0)
(2.87145e-11 -1.17112e-09 0)
(0 0 0)
(5.5041e-09 3.8479e-08 0)
(3.2379e-09 3.04417e-09 0)
(1.13808e-11 -8.8778e-10 0)
(8.7542e-11 -1.10949e-09 0)
(1.06559e-10 -1.07828e-09 0)
(7.62306e-11 -1.21145e-09 0)
(-4.36766e-11 -1.14493e-09 0)
(0 0 0)
(-8.16611e-11 -1.21969e-09 0)
(-1.16491e-10 -1.21863e-09 0)
(-9.40572e-13 -1.04905e-09 0)
(0 0 0)
(0 0 0)
(-8.06341e-11 -1.13834e-09 0)
(-9.29084e-12 -1.10016e-09 0)
(3.36608e-11 -2.65179e-09 0)
(5.67717e-11 -9.73431e-10 0)
(8.5918e-11 -9.98396e-10 0)
(6.57613e-11 -1.29055e-09 0)
(2.64757e-11 -1.34815e-09 0)
(0 0 0)
(5.1615e-11 -1.29618e-09 0)
(-2.82843e-11 -1.22231e-09 0)
(-7.66417e-11 -1.08673e-09 0)
(1.82802e-11 -1.00028e-09 0)
(-3.4476e-11 -9.71948e-10 0)
(1.57478e-11 -4.71695e-10 0)
(1.34484e-11 -3.5197e-10 0)
(7.76375e-11 -1.03847e-09 0)
(5.4055e-11 -2.7875e-09 0)
(5.60456e-11 -1.05942e-09 0)
(9.82041e-11 -9.46096e-10 0)
(3.42162e-11 -9.84688e-10 0)
(1.22219e-10 -2.31522e-09 0)
(4.50364e-11 -9.76284e-10 0)
(3.76946e-11 -1.02794e-09 0)
(3.96858e-12 -3.01438e-09 0)
(4.07006e-11 -1.13809e-09 0)
(2.92303e-11 -9.63555e-10 0)
(7.55623e-11 -9.02095e-10 0)
(-3.1097e-12 -1.08478e-09 0)
(0 0 0)
(1.58422e-11 -2.42148e-09 0)
(1.74942e-11 -1.10621e-09 0)
(-4.89926e-11 -1.42723e-09 0)
(-6.65433e-12 -1.80987e-09 0)
(-5.73485e-11 -1.03391e-09 0)
(-3.49863e-11 -2.07821e-09 0)
(-1.51467e-10 -2.75722e-09 0)
(-4.53582e-11 -1.06823e-09 0)
(-3.43665e-11 -9.68255e-10 0)
(0 0 0)
(-8.74089e-11 -2.44848e-09 0)
(-9.05085e-12 -9.27344e-10 0)
(8.16714e-12 -2.71986e-09 0)
(-1.08685e-11 -1.06666e-09 0)
(2.60116e-11 -1.04622e-09 0)
(4.82797e-11 -1.02847e-09 0)
(0 0 0)
(-3.74701e-11 -1.12829e-09 0)
(-7.18331e-11 -1.10574e-09 0)
(-4.03395e-11 -1.10932e-09 0)
(-6.23238e-11 -2.40217e-09 0)
(-7.69712e-11 -1.06281e-09 0)
(-6.59107e-11 -1.03622e-09 0)
(-3.51896e-11 -1.06549e-09 0)
(-1.07502e-10 -2.51745e-09 0)
(-1.32309e-11 -4.20778e-10 0)
(-8.63502e-12 -1.37673e-09 0)
(-6.68055e-11 -9.97943e-10 0)
(2.30401e-11 -1.02061e-09 0)
(0 0 0)
(-2.04535e-11 -1.01679e-09 0)
(-9.99862e-12 -1.32285e-09 0)
(0 0 0)
(1.63599e-08 3.52916e-08 0)
(3.85065e-09 -6.38777e-10 0)
(6.07948e-11 -8.19434e-10 0)
(6.46276e-11 -1.10498e-09 0)
(1.07995e-10 -1.11204e-09 0)
(9.98139e-12 -1.11038e-09 0)
(0 0 0)
(4.36888e-12 -1.11248e-09 0)
(-2.18014e-11 -1.1036e-09 0)
(0 0 0)
(-1.13433e-10 -1.13281e-09 0)
(-1.41051e-10 -1.13627e-09 0)
(-1.4967e-10 -1.51688e-09 0)
(-1.53054e-10 -2.06593e-09 0)
(-5.09486e-11 -1.04416e-09 0)
(-1.14578e-11 -1.02045e-09 0)
(7.23583e-11 -9.79877e-10 0)
(2.97811e-11 -1.14736e-09 0)
(-1.28317e-11 -1.49792e-09 0)
(-3.60827e-14 -3.15722e-11 0)
(3.93171e-11 -3.17407e-09 0)
(6.50495e-11 -1.42118e-09 0)
(0 0 0)
(2.68641e-11 -8.20673e-10 0)
(1.24831e-10 -2.37488e-09 0)
(4.19541e-11 -9.9149e-10 0)
(5.18992e-11 -1.06336e-09 0)
(4.40619e-11 -1.11569e-09 0)
(4.31956e-11 -2.54274e-09 0)
(5.23787e-12 -1.00288e-09 0)
(9.35547e-11 -1.04441e-09 0)
(7.27284e-11 -1.06599e-09 0)
(0 0 0)
(0 0 0)
(0 0 0)
(0 0 0)
(-6.33793e-11 -1.26524e-09 0)
(5.82216e-11 -1.15936e-09 0)
(0 0 0)
(0 0 0)
(0 0 0)
(0 0 0)
(0 0 0)
(-2.17637e-11 -1.00714e-09 0)
(-3.56982e-11 -1.09692e-09 0)
(-7.01408e-11 -1.01698e-09 0)
(-1.16246e-11 -9.21234e-10 0)
(-6.00103e-11 -9.91099e-10 0)
(0 0 0)
(-7.90685e-12 -1.20201e-09 0)
(7.90028e-11 -1.86549e-09 0)
(-4.30443e-11 -1.63592e-09 0)
(-8.7633e-11 -1.01986e-09 0)
(-4.82464e-11 -9.80766e-10 0)
(-8.42801e-11 -1.11056e-09 0)
(7.48579e-12 -1.16454e-09 0)
(2.93272e-11 -1.16048e-09 0)
(6.33193e-12 -1.1278e-09 0)
(5.42601e-12 -1.10384e-09 0)
(1.42411e-11 -1.06031e-09 0)
(1.40084e-11 -1.121e-09 0)
(-5.54698e-11 -1.10978e-09 0)
(-7.23323e-11 -1.06286e-09 0)
(-2.84327e-11 -1.03942e-09 0)
(-1.03414e-10 -2.43122e-09 0)
(-4.90444e-11 -2.38826e-09 0)
(-6.53989e-11 -9.7772e-10 0)
(-1.72322e-11 -9.86543e-10 0)
(-7.18749e-11 -9.79471e-10 0)
(-4.86501e-12 -2.1366e-10 0)
(-1.65757e-11 -6.55539e-10 0)
(1.24104e-11 -1.05063e-09 0)
(0 0 0)
(-1.0183e-11 -1.18397e-09 0)
(3.22199e-11 -1.18447e-09 0)
(1.40035e-08 2.67904e-08 0)
(1.35379e-09 -2.30316e-10 0)
(-1.92202e-10 -8.47955e-10 0)
(6.89888e-11 -1.12566e-09 0)
(1.27432e-10 -1.13219e-09 0)
(-2.46088e-11 -1.39733e-09 0)
(3.20383e-11 -2.32714e-09 0)
(3.9315e-11 -2.39967e-09 0)
(2.74064e-13 -1.15064e-10 0)
(5.73989e-13 -9.5789e-10 0)
(3.60178e-12 -1.09252e-09 0)
(-7.96628e-11 -1.13819e-09 0)
(-3.92091e-11 -1.16552e-09 0)
(0 0 0)
(-1.8309e-11 -1.00126e-09 0)
(-1.76695e-11 -9.28237e-10 0)
(-3.13419e-13 -9.43002e-10 0)
(-5.50971e-11 -1.10726e-09 0)
(-9.34817e-12 -1.50376e-09 0)
(0 0 0)
(1.8168e-11 -1.22057e-09 0)
(0 0 0)
(1.1435e-10 -1.11768e-09 0)
(7.69512e-11 -1.02942e-09 0)
(2.5226e-11 -1.04872e-09 0)
(1.60763e-11 -1.09928e-09 0)
(4.04063e-11 -2.56082e-09 0)
(1.78606e-11 -1.032e-09 0)
(8.79337e-12 -2.55193e-09 0)
(0 0 0)
(0 0 0)
(1.13846e-10 -1.12692e-09 0)
(3.14307e-10 -2.55475e-09 0)
(1.46394e-10 -1.08226e-09 0)
(6.72617e-11 -1.09252e-09 0)
(-3.60973e-11 -2.88523e-09 0)
(-3.92344e-11 -1.04897e-09 0)
(3.19379e-11 -1.03551e-09 0)
(9.63009e-11 -2.24896e-09 0)
(1.39988e-10 -1.86462e-09 0)
(3.83249e-11 -1.22081e-09 0)
(-2.12929e-11 -9.3995e-10 0)
(-2.06717e-11 -2.24142e-09 0)
(1.10065e-11 -1.00385e-09 0)
(-6.98331e-11 -2.36306e-09 0)
(-4.28335e-11 -1.00646e-09 0)
(-3.50462e-11 -1.00342e-09 0)
(-2.56817e-12 -1.04263e-09 0)
(-6.37819e-12 -1.08923e-09 0)
(3.40762e-11 -1.11584e-09 0)
(4.52509e-11 -1.14626e-09 0)
(0 0 0)
(-2.38268e-11 -1.10152e-09 0)
(-1.79486e-10 -2.34927e-09 0)
(-1.50033e-11 -1.02307e-09 0)
(-6.50429e-12 -1.16538e-09 0)
(-3.36562e-12 -1.18414e-09 0)
(-1.31899e-11 -1.10683e-09 0)
(-2.89633e-11 -1.05528e-09 0)
(-3.08374e-11 -1.04583e-09 0)
(-1.02042e-11 -1.17746e-09 0)
(0 0 0)
(-5.11589e-11 -1.05884e-09 0)
(-4.39571e-11 -1.13749e-09 0)
(-4.40673e-11 -1.07018e-09 0)
(-6.21028e-11 -1.0667e-09 0)
(-4.97832e-11 -1.06195e-09 0)
(-1.10914e-11 -1.09194e-09 0)
(-1.36319e-11 -1.07067e-09 0)
(1.46193e-11 -1.10267e-09 0)
(1.71712e-11 -1.06757e-09 0)
(1.82857e-11 -1.09294e-09 0)
(3.16633e-13 -6.29506e-10 0)
(-2.2213e-14 -2.00178e-11 0)
(4.68044e-11 -1.14946e-09 0)
(2.9257e-09 3.17367e-08 0)
(-4.00937e-10 -1.98243e-09 0)
(1.49265e-10 -6.52105e-10 0)
(1.86055e-12 -1.96325e-09 0)
(1.59319e-10 -2.85466e-09 0)
(0 0 0)
(2.90958e-12 -1.10825e-09 0)
(5.40841e-12 -2.76596e-10 0)
(1.02235e-10 -1.78669e-09 0)
(7.12926e-11 -1.05158e-09 0)
(-3.26285e-11 -1.06566e-09 0)
(0 0 0)
(-3.56677e-11 -1.15851e-09 0)
(-1.1075e-11 -1.11064e-09 0)
(-5.93382e-11 -2.44777e-09 0)
(-2.33611e-11 -9.33476e-10 0)
(-4.37313e-11 -9.74668e-10 0)
(-7.85385e-11 -1.1408e-09 0)
(-5.43449e-11 -1.29545e-09 0)
(6.81876e-11 -1.3092e-09 0)
(1.64855e-11 -1.18297e-09 0)
(3.31919e-11 -1.02958e-09 0)
(1.38418e-10 -2.56323e-09 0)
(0 0 0)
(0 0 0)
(2.69265e-11 -1.11438e-09 0)
(8.19999e-11 -2.59108e-09 0)
(6.10512e-11 -1.0459e-09 0)
(0 0 0)
(6.67294e-11 -1.09593e-09 0)
(8.67917e-11 -1.04984e-09 0)
(7.40945e-11 -1.11985e-09 0)
(0 0 0)
(1.60225e-10 -2.58372e-09 0)
(-5.15921e-11 -2.46988e-09 0)
(-2.33538e-11 -1.03094e-09 0)
(0 0 0)
(3.27335e-11 -1.07978e-09 0)
(2.05676e-11 -1.05065e-09 0)
(9.95411e-12 -1.01191e-09 0)
(-1.17662e-11 -1.00701e-09 0)
(0 0 0)
(-1.89779e-11 -1.02036e-09 0)
(-3.76516e-11 -9.51776e-10 0)
(-5.18255e-11 -9.81825e-10 0)
(-5.37673e-13 -1.10561e-09 0)
(-6.73839e-12 -1.04378e-09 0)
(-3.54371e-11 -9.98445e-10 0)
(-2.11547e-11 -1.02857e-09 0)
(4.8981e-11 -1.02603e-09 0)
(-5.08068e-12 -2.71816e-09 0)
(9.41143e-11 -2.88986e-09 0)
(-7.37312e-11 -9.54939e-10 0)
(-1.02765e-10 -8.82971e-10 0)
(7.12428e-11 -8.91297e-10 0)
(5.06723e-11 -1.14233e-09 0)
(-3.86503e-11 -1.15081e-09 0)
(-1.76561e-11 -1.03635e-09 0)
(3.70602e-13 -1.02698e-09 0)
(-2.15124e-11 -1.01212e-09 0)
(0 0 0)
(-1.32635e-11 -2.36674e-09 0)
(-1.6467e-11 -1.14245e-09 0)
(1.83369e-12 -1.26653e-09 0)
(-1.05113e-10 -1.14483e-09 0)
(-3.61716e-11 -1.16464e-09 0)
(0 0 0)
(-2.41793e-11 -1.09296e-09 0)
(-5.28438e-12 -1.11194e-09 0)
(1.54444e-11 -1.0922e-09 0)
(3.65273e-11 -1.0878e-09 0)
(5.41873e-11 -1.07487e-09 0)
(5.54859e-11 -1.0943e-09 0)
(4.8555e-11 -1.09226e-09 0)
(7.26617e-11 -1.09029e-09 0)
(-1.18573e-08 3.19666e-08 0)
(-3.95109e-09 2.24161e-09 0)
(-1.51019e-10 -1.72914e-09 0)
(0 0 0)
(-1.00711e-11 -1.13111e-09 0)
(1.22322e-10 -1.10623e-09 0)
(6.85506e-11 -2.42779e-09 0)
(1.18136e-10 -1.0553e-09 0)
(3.93529e-11 -1.11228e-09 0)
(1.37222e-11 -1.16873e-09 0)
(3.96046e-11 -1.12374e-09 0)
(0 0 0)
(0 0 0)
(0 0 0)
(0 0 0)
(3.90648e-12 -1.149e-09 0)
(0 0 0)
(0 0 0)
(-1.05868e-11 -1.26279e-09 0)
(0 0 0)
(-5.66373e-12 -1.2668e-09 0)
(7.37726e-11 -1.18988e-09 0)
(0 0 0)
(8.48184e-11 -1.50143e-09 0)
(7.35743e-11 -2.48186e-09 0)
(2.68067e-11 -1.2641e-09 0)
(1.0643e-11 -2.05558e-09 0)
(-7.46731e-13 -1.10806e-09 0)
(6.95117e-11 -1.08432e-09 0)
(7.85688e-11 -2.55021e-09 0)
(0 0 0)
(3.0971e-11 -1.0584e-09 0)
(2.71771e-11 -1.06974e-09 0)
(-6.78449e-11 -1.10044e-09 0)
(-2.01794e-11 -1.18773e-09 0)
(4.28489e-11 -2.5446e-09 0)
(6.68876e-11 -1.01231e-09 0)
(2.87119e-12 -1.03119e-09 0)
(5.46163e-11 -1.09078e-09 0)
(6.3168e-11 -1.07573e-09 0)
(5.95727e-12 -1.06879e-09 0)
(2.51873e-12 -1.09163e-09 0)
(-8.80088e-11 -1.1131e-09 0)
(-1.02287e-10 -1.07127e-09 0)
(-1.06583e-10 -1.03647e-09 0)
(-7.85915e-11 -1.08041e-09 0)
(-5.42658e-11 -1.09414e-09 0)
(-4.32681e-11 -1.08164e-09 0)
(-4.77941e-11 -1.1092e-09 0)
(-4.18368e-11 -1.13353e-09 0)
(-9.1469e-11 -1.14567e-09 0)
(1.28657e-11 -2.70473e-09 0)
(6.01612e-11 -9.39081e-10 0)
(0 0 0)
(2.07822e-11 -9.11766e-10 0)
(1.05268e-10 -2.8411e-09 0)
(7.02982e-12 -1.07539e-09 0)
(-2.46773e-11 -1.03039e-09 0)
(1.12289e-11 -1.05178e-09 0)
(3.727e-11 -1.06369e-09 0)
(-1.4458e-11 -1.09542e-09 0)
(-6.92671e-11 -1.07961e-09 0)
(1.85675e-11 -1.08648e-09 0)
(2.30913e-12 -1.36424e-09 0)
(0 0 0)
(-1.0338e-10 -1.15546e-09 0)
(-3.08772e-11 -1.0923e-09 0)
(-1.85932e-11 -1.07011e-09 0)
(-2.18592e-11 -1.01812e-09 0)
(-4.09359e-12 -1.03689e-09 0)
(2.41205e-11 -1.09565e-09 0)
(2.84854e-12 -2.45005e-09 0)
(1.18512e-11 -9.62409e-10 0)
(3.57976e-11 -1.00047e-09 0)
(6.16539e-11 -2.2306e-09 0)
(-4.57128e-09 3.08539e-08 0)
(-6.25157e-10 8.42755e-10 0)
(-8.41078e-10 -9.3146e-10 0)
(-3.58161e-11 -1.01633e-09 0)
(7.45141e-11 -2.50578e-09 0)
(6.63931e-11 -1.17046e-09 0)
(0 0 0)
(7.93812e-11 -1.08655e-09 0)
(1.73092e-10 -1.22506e-09 0)
(0 0 0)
(1.26685e-10 -2.42995e-09 0)
(5.27914e-11 -1.11807e-09 0)
(-6.37977e-12 -1.14877e-09 0)
(0 0 0)
(-3.05032e-12 -1.12972e-09 0)
(-4.73228e-12 -1.02067e-09 0)
(-4.50312e-11 -2.69733e-09 0)
(0 0 0)
(0 0 0)
(5.48222e-11 -1.21431e-09 0)
(3.99252e-11 -1.15292e-09 0)
(4.16236e-11 -1.06041e-09 0)
(-2.24056e-11 -1.03515e-09 0)
(1.9642e-12 -2.15249e-09 0)
(5.78643e-11 -1.92657e-09 0)
(0 0 0)
(0 0 0)
(1.27582e-11 -1.14103e-09 0)
(2.57959e-11 -1.0359e-09 0)
(5.38364e-11 -9.40652e-10 0)
(1.01289e-11 -2.31217e-09 0)
(-1.08212e-10 -2.27743e-09 0)
(-1.62186e-10 -2.21684e-09 0)
(-1.01285e-10 -2.39675e-09 0)
(0 0 0)
(-5.34381e-12 -1.05238e-09 0)
(2.43968e-11 -1.1629e-09 0)
(-2.54691e-11 -1.03516e-09 0)
(4.53835e-11 -1.08139e-09 0)
(-2.77458e-12 -9.6443e-10 0)
(4.07855e-11 -9.82991e-10 0)
(2.74074e-11 -2.35286e-09 0)
(-2.20991e-11 -1.01779e-09 0)
(-9.07593e-12 -1.05415e-09 0)
(-4.29654e-11 -1.10891e-09 0)
(-4.02611e-11 -1.06736e-09 0)
(0 0 0)
(-2.91031e-12 -1.06492e-09 0)
(-9.28948e-14 -1.12482e-09 0)
(-5.58783e-11 -1.18869e-09 0)
(-8.47926e-11 -1.14898e-09 0)
(-3.30569e-11 -1.12251e-09 0)
(4.61466e-11 -1.10585e-09 0)
(6.8969e-11 -1.06972e-09 0)
(6.51214e-12 -1.09992e-09 0)
(-2.20484e-11 -1.1094e-09 0)
(6.09391e-11 -1.24196e-09 0)
(-9.24572e-12 -1.16323e-09 0)
(-4.39178e-11 -1.05386e-09 0)
(-2.70962e-11 -2.49806e-09 0)
(-3.21041e-12 -1.04769e-09 0)
(-1.30404e-11 -9.44805e-10 0)
(5.89456e-11 -1.11318e-09 0)
(-5.97251e-11 -1.49391e-09 0)
(0 0 0)
(-3.14652e-11 -1.13582e-09 0)
(-2.6711e-11 -1.04531e-09 0)
(-7.19661e-11 -1.00232e-09 0)
(-7.59499e-12 -1.0134e-09 0)
(-5.47142e-11 -1.04308e-09 0)
(-2.63604e-11 -1.0629e-09 0)
(-8.13417e-11 -2.37035e-09 0)
(4.66066e-11 -8.79861e-10 0)
(-9.64828e-11 -2.29403e-09 0)
(-1.96273e-11 -9.72545e-10 0)
(6.44268e-09 3.81886e-08 0)
(9.33833e-10 8.27586e-10 0)
(-5.34233e-12 -1.52685e-09 0)
(-1.03345e-10 -1.14467e-09 0)
(-2.2762e-11 -1.04857e-09 0)
(-5.19974e-11 -2.39002e-09 0)
(-1.64834e-11 -1.0352e-09 0)
(-7.64796e-11 -1.18566e-09 0)
(3.37577e-11 -1.28159e-09 0)
(0 0 0)
(2.1889e-12 -2.84268e-11 0)
(1.45964e-10 -2.71805e-09 0)
(6.55965e-11 -1.10767e-09 0)
(9.31952e-11 -1.06054e-09 0)
(3.98712e-11 -2.42055e-09 0)
(2.17233e-11 -9.49864e-10 0)
(1.52588e-11 -2.77337e-09 0)
(8.07173e-12 -9.88073e-10 0)
(2.55933e-11 -1.3227e-09 0)
(4.74668e-11 -1.87793e-09 0)
(6.88843e-11 -1.03493e-09 0)
(6.56366e-11 -1.12476e-09 0)
(1.31437e-12 -1.15101e-09 0)
(1.8183e-11 -1.08963e-09 0)
(0 0 0)
(9.28182e-11 -1.06642e-09 0)
(-1.84884e-11 -2.54139e-09 0)
(-8.26773e-11 -2.33784e-09 0)
(2.3385e-11 -1.03864e-09 0)
(-4.45911e-11 -2.23542e-09 0)
(-3.77306e-11 -1.02078e-09 0)
(0 0 0)
(2.69524e-12 -1.04156e-09 0)
(-5.71891e-11 -1.06063e-09 0)
(-1.17099e-11 -1.11114e-09 0)
(1.99969e-11 -1.16196e-09 0)
(2.00245e-12 -1.169e-09 0)
(0 0 0)
(-2.64135e-12 -2.32773e-09 0)
(-1.95497e-12 -9.52014e-10 0)
(3.88234e-11 -1.01223e-09 0)
(-6.51205e-12 -1.08597e-09 0)
(1.9267e-11 -1.10711e-09 0)
(1.95714e-11 -1.10197e-09 0)
(1.01437e-12 -1.06312e-09 0)
(-3.04549e-11 -1.02239e-09 0)
(1.88812e-11 -1.07887e-09 0)
(-3.17131e-11 -1.0112e-09 0)
(1.41385e-11 -1.83451e-09 0)
(-7.17495e-11 -1.49962e-09 0)
(-5.51205e-12 -8.59407e-11 0)
(-1.63209e-11 -1.02042e-09 0)
(-1.25156e-11 -1.0834e-09 0)
(-7.38245e-12 -1.0317e-09 0)
(-3.80204e-11 -1.03218e-09 0)
(-3.44563e-11 -1.06447e-09 0)
(-3.81211e-11 -2.83526e-09 0)
(5.32298e-11 -1.13226e-09 0)
(8.66885e-12 -1.03451e-09 0)
(2.4303e-13 -1.07916e-09 0)
(2.57247e-11 -1.11179e-09 0)
(-6.53282e-11 -1.06232e-09 0)
(-1.30745e-10 -1.13904e-09 0)
(-2.58741e-11 -1.47964e-09 0)
(0 0 0)
(3.48847e-11 -1.08367e-09 0)
(-3.02676e-14 -2.21924e-11 0)
(-8.62607e-12 -2.05329e-09 0)
(-4.77143e-13 -8.59475e-11 0)
(-1.14753e-11 -1.09526e-09 0)
(0 0 0)
(-2.98009e-11 -1.08083e-09 0)
(-5.86391e-11 -2.33775e-09 0)
(-1.2228e-10 -1.00153e-09 0)
(-1.06246e-10 -1.02442e-09 0)
(5.77113e-09 3.40669e-08 0)
(1.97384e-09 -2.22767e-09 0)
(-5.75662e-10 -1.08176e-09 0)
(6.08221e-11 -1.02493e-09 0)
(2.13823e-11 -1.07026e-09 0)
(2.11067e-11 -1.05427e-09 0)
(0 0 0)
(-7.62982e-13 -1.63188e-10 0)
(-4.50427e-12 -7.84387e-10 0)
(2.16377e-10 -1.10275e-09 0)
(1.03584e-10 -2.69528e-09 0)
(-2.4366e-11 -1.16277e-09 0)
(2.82805e-11 -1.0669e-09 0)
(8.9318e-11 -2.70198e-09 0)
(-4.49225e-12 -1.00709e-09 0)
(1.65964e-11 -1.02165e-09 0)
(-7.16753e-11 -1.0902e-09 0)
(-1.85475e-12 -1.76496e-09 0)
(9.62602e-11 -1.52979e-09 0)
(3.57569e-11 -9.63086e-10 0)
(4.85866e-11 -1.00072e-09 0)
(9.70385e-12 -2.8592e-09 0)
(2.75049e-11 -1.09232e-09 0)
(1.76104e-11 -1.03687e-09 0)
(-3.23364e-12 -3.78393e-10 0)
(8.71335e-11 -3.49333e-09 0)
(2.12519e-11 -1.19893e-09 0)
(0 0 0)
(-2.01344e-11 -2.18728e-09 0)
(-8.03832e-12 -9.99582e-10 0)
(0 0 0)
(-1.93784e-12 -1.0288e-09 0)
(-3.74012e-13 -1.10495e-09 0)
(0 0 0)
(4.00331e-11 -2.57344e-09 0)
(3.61405e-12 -1.10095e-09 0)
(6.50958e-12 -1.09793e-09 0)
(3.32173e-11 -1.06555e-09 0)
(-1.76106e-11 -1.04929e-09 0)
(1.73917e-11 -1.02425e-09 0)
(-5.67795e-12 -1.08357e-09 0)
(-1.46467e-11 -1.07788e-09 0)
(-6.50051e-12 -1.08812e-09 0)
(7.23685e-12 -1.05782e-09 0)
(-1.35457e-11 -1.05342e-09 0)
(-1.38313e-11 -1.00497e-09 0)
(-8.19603e-12 -1.0318e-09 0)
(0 0 0)
(-3.21853e-11 -2.74393e-09 0)
(6.71234e-12 -1.08088e-09 0)
(-1.45814e-11 -8.78584e-10 0)
(1.34006e-12 -1.03263e-09 0)
(-1.7024e-11 -1.02457e-09 0)
(-1.03736e-11 -1.03684e-09 0)
(-2.68874e-11 -1.05727e-09 0)
(-6.22166e-11 -1.08631e-09 0)
(-9.33823e-11 -1.11722e-09 0)
(-3.75585e-11 -1.09997e-09 0)
(8.00041e-11 -2.6734e-09 0)
(4.16696e-12 -1.11555e-09 0)
(-1.96257e-11 -1.16684e-09 0)
(0 0 0)
(-5.98185e-11 -1.07937e-09 0)
(-5.66873e-11 -1.29967e-09 0)
(0 0 0)
(2.77847e-11 -1.15947e-09 0)
(3.97418e-11 -1.07375e-09 0)
(-3.98678e-11 -1.00617e-09 0)
(1.67921e-11 -9.84142e-10 0)
(-3.16819e-12 -1.03124e-09 0)
(-2.54768e-11 -2.24019e-09 0)
(-7.31827e-11 -1.08248e-09 0)
(-4.28086e-11 -5.84595e-10 0)
(-5.20799e-12 -7.03035e-11 0)
(-1.153e-10 -1.09253e-09 0)
(2.48313e-10 3.27161e-08 0)
(2.42098e-10 -1.64624e-09 0)
(-2.29471e-11 -2.38982e-10 0)
(1.1659e-10 -1.14263e-09 0)
(2.43928e-11 -1.01539e-09 0)
(6.54816e-11 -1.09405e-09 0)
(8.02235e-11 -1.059e-09 0)
(5.89859e-11 -1.11943e-09 0)
(3.71821e-11 -9.67558e-10 0)
(7.451e-11 -2.49198e-09 0)
(2.35199e-12 -1.16381e-09 0)
(6.37108e-11 -1.06209e-09 0)
(1.68493e-11 -9.56803e-10 0)
(6.62939e-12 -1.08277e-09 0)
(4.11054e-11 -1.12186e-09 0)
(8.03328e-11 -2.90031e-09 0)
(-1.37377e-11 -1.13776e-09 0)
(3.4065e-11 -9.96251e-10 0)
(1.69013e-11 -9.66549e-10 0)
(2.30795e-11 -1.02947e-09 0)
(1.4871e-11 -2.55909e-09 0)
(-3.38576e-11 -1.10038e-09 0)
(1.60572e-11 -1.06172e-09 0)
(-2.23304e-11 -1.01739e-09 0)
(3.7179e-11 -2.26932e-09 0)
(-5.79638e-11 -1.12365e-09 0)
(-3.35868e-12 -1.14531e-09 0)
(2.68868e-11 -1.10461e-09 0)
(0 0 0)
(-3.32281e-12 -1.07023e-09 0)
(0 0 0)
(5.46953e-11 -2.33299e-09 0)
(2.83152e-11 -1.00746e-09 0)
(0 0 0)
(7.31753e-11 -1.20171e-09 0)
(2.04001e-11 -1.15082e-09 0)
(1.54252e-11 -1.13156e-09 0)
(1.0938e-11 -1.1779e-09 0)
(1.99552e-12 -1.09937e-09 0)
(-7.56574e-12 -1.0842e-09 0)
(-2.83669e-11 -1.04605e-09 0)
(-2.7974e-11 -1.03311e-09 0)
(-1.69692e-11 -1.06385e-09 0)
(-1.94552e-11 -1.09664e-09 0)
(6.35259e-12 -1.10744e-09 0)
(-9.38843e-13 -1.08108e-09 0)
(-2.5707e-11 -1.04366e-09 0)
(-2.48242e-12 -1.00584e-09 0)
(-9.90225e-11 -2.64007e-09 0)
(4.76185e-11 -1.06292e-09 0)
(2.60578e-11 -9.7937e-10 0)
(-4.49583e-12 -1.05847e-09 0)
(-1.46137e-11 -1.07231e-09 0)
(-1.90029e-12 -1.06254e-09 0)
(-4.75186e-11 -1.08806e-09 0)
(-2.1573e-11 -1.11384e-09 0)
(-6.09692e-11 -1.1358e-09 0)
(-8.83904e-11 -1.11012e-09 0)
(-3.68014e-11 -1.15078e-09 0)
(1.64427e-11 -2.65627e-09 0)
(-1.31736e-11 -1.01568e-09 0)
(4.43235e-11 -1.03874e-09 0)
(2.31447e-11 -1.11295e-09 0)
(3.47972e-11 -1.27321e-09 0)
(0 0 0)
(4.62248e-11 -1.09293e-09 0)
(4.76505e-11 -2.47077e-09 0)
(0 0 0)
(2.53265e-11 -1.13215e-09 0)
(-2.20047e-11 -1.13661e-09 0)
(-3.45355e-11 -1.08985e-09 0)
(-3.90594e-11 -1.10775e-09 0)
(0 0 0)
(0 0 0)
(0 0 0)
(-8.15915e-09 3.56736e-08 0)
(-2.60215e-10 -4.47198e-12 0)
(3.58096e-10 -7.55674e-10 0)
(0 0 0)
(4.68295e-13 -1.06907e-09 0)
(3.19657e-11 -1.04012e-09 0)
(7.4517e-12 -1.0476e-09 0)
(2.6014e-11 -1.07434e-09 0)
(4.75377e-11 -1.11617e-09 0)
(3.42166e-12 -1.11199e-09 0)
(1.06197e-11 -1.15522e-09 0)
(7.86001e-11 -1.19112e-09 0)
(7.27751e-11 -1.13378e-09 0)
(8.77381e-12 -1.12485e-09 0)
(0 0 0)
(1.11374e-11 -2.75366e-09 0)
(1.65477e-11 -1.22258e-09 0)
(6.07977e-11 -2.39868e-09 0)
(4.2457e-11 -9.36792e-10 0)
(4.4547e-11 -1.00495e-09 0)
(-1.00602e-11 -1.10566e-09 0)
(-2.25377e-11 -1.15327e-09 0)
(-1.13267e-11 -1.127e-09 0)
(-1.27156e-11 -1.13799e-09 0)
(-1.7178e-11 -1.08704e-09 0)
(-1.47197e-11 -1.08939e-09 0)
(2.68212e-11 -1.13474e-09 0)
(6.96188e-11 -1.15884e-09 0)
(-5.74378e-12 -1.20619e-09 0)
(0 0 0)
(0 0 0)
(0 0 0)
(4.44034e-11 -1.06724e-09 0)
(9.331e-11 -1.15475e-09 0)
(0 0 0)
(0 0 0)
(-4.43882e-11 -1.23813e-09 0)
(2.1316e-11 -1.0335e-09 0)
(8.39361e-12 -1.00723e-09 0)
(-3.46577e-11 -1.14685e-09 0)
(-6.95447e-11 -2.32621e-09 0)
(-2.55236e-11 -1.01991e-09 0)
(-3.13663e-11 -1.19721e-09 0)
(0 0 0)
(1.9594e-11 -1.10512e-09 0)
(2.2826e-11 -1.13902e-09 0)
(-2.1802e-11 -1.13285e-09 0)
(-3.11296e-11 -1.11932e-09 0)
(-5.70559e-11 -1.15718e-09 0)
(-2.42923e-11 -1.14072e-09 0)
(0 0 0)
(6.27118e-12 -2.48057e-09 0)
(-1.89056e-11 -9.50833e-10 0)
(-1.24845e-11 -1.1355e-09 0)
(-5.20685e-12 -2.93917e-10 0)
(-4.57971e-11 -1.96442e-09 0)
(-4.09222e-11 -1.0484e-09 0)
(-6.45658e-11 -1.05275e-09 0)
(-5.34716e-11 -1.04487e-09 0)
(-4.80925e-11 -2.49716e-09 0)
(2.63601e-11 -1.01825e-09 0)
(6.92389e-11 -9.94122e-10 0)
(6.46775e-11 -1.03433e-09 0)
(6.16921e-11 -3.01903e-09 0)
(4.76545e-12 -1.10418e-09 0)
(-6.68682e-12 -9.47009e-10 0)
(1.21508e-11 -1.0357e-09 0)
(0 0 0)
(7.37308e-11 -1.11256e-09 0)
(-1.72381e-11 -1.22501e-09 0)
(-2.38216e-11 -1.09772e-09 0)
(2.01863e-12 -1.06673e-09 0)
(-3.55075e-11 -1.09578e-09 0)
(-1.66548e-11 -1.06586e-09 0)
(8.3266e-12 -1.10396e-09 0)
(-1.45489e-08 3.5274e-08 0)
(-1.19912e-09 2.09533e-09 0)
(5.09984e-10 -8.36567e-10 0)
(1.94188e-10 -1.00314e-09 0)
(1.51256e-11 -1.10042e-09 0)
(2.49691e-11 -1.08456e-09 0)
(-7.94572e-12 -1.08293e-09 0)
(3.88391e-11 -1.09436e-09 0)
(1.89206e-11 -1.12794e-09 0)
(-1.33588e-12 -1.17419e-09 0)
(0 0 0)
(1.98757e-11 -1.18053e-09 0)
(3.97983e-12 -1.15963e-09 0)
(-1.26038e-11 -1.19345e-09 0)
(-3.6984e-12 -2.8121e-10 0)
(-1.94525e-11 -2.41205e-09 0)
(3.10643e-11 -1.19077e-09 0)
(3.9958e-11 -9.67839e-10 0)
(6.03111e-11 -9.71429e-10 0)
(6.0095e-11 -1.16983e-09 0)
(-1.6474e-11 -1.27063e-09 0)
(-7.46572e-11 -1.20893e-09 0)
(-4.94702e-11 -1.08565e-09 0)
(-2.12109e-11 -1.00759e-09 0)
(1.1376e-12 -1.0602e-09 0)
(-1.66053e-11 -1.05119e-09 0)
(2.85942e-11 -1.107e-09 0)
(3.76055e-11 -1.39645e-09 0)
(0 0 0)
(3.84627e-11 -1.13017e-09 0)
(5.21153e-11 -1.05151e-09 0)
(4.78117e-11 -1.14983e-09 0)
(1.53611e-11 -3.53751e-10 0)
(6.10308e-11 -1.26977e-09 0)
(8.8932e-11 -2.06039e-09 0)
(9.1499e-12 -1.45433e-09 0)
(-1.48362e-11 -4.24258e-10 0)
(6.58522e-11 -1.32166e-09 0)
(1.57136e-10 -2.29398e-09 0)
(0 0 0)
(-5.67746e-12 -1.11794e-09 0)
(-5.64393e-12 -9.79212e-10 0)
(4.25641e-11 -1.04659e-09 0)
(3.38957e-11 -1.05633e-09 0)
(2.56999e-11 -1.06186e-09 0)
(-1.14329e-11 -1.13594e-09 0)
(0 0 0)
(-1.71568e-11 -1.08359e-09 0)
(-5.46335e-11 -1.13515e-09 0)
(-6.41682e-11 -1.15153e-09 0)
(2.05107e-11 -2.19631e-09 0)
(1.46953e-11 -9.5479e-10 0)
(0 0 0)
(-2.70543e-11 -1.1239e-09 0)
(4.39636e-12 -1.2068e-09 0)
(-1.76874e-11 -4.27834e-10 0)
(-1.97206e-11 -4.62157e-10 0)
(0 0 0)
(0 0 0)
(0 0 0)
(-6.95812e-12 -1.11925e-09 0)
(1.24753e-11 -1.02639e-09 0)
(6.78206e-12 -1.00244e-09 0)
(-3.70967e-11 -1.32504e-09 0)
(-5.43131e-13 -2.76117e-09 0)
(4.1478e-11 -1.00064e-09 0)
(2.87139e-11 -9.85715e-10 0)
(5.75854e-11 -1.02396e-09 0)
(3.12784e-11 -1.34586e-09 0)
(0 0 0)
(5.03141e-11 -1.10711e-09 0)