/*--------------------------------*- C++ -*----------------------------------*\
  =========                 |
  \\      /  F ield         | OpenFOAM: The Open Source CFD Toolbox
   \\    /   O peration     | Website:  https://openfoam.org
    \\  /    A nd           | Version:  12
     \\/     M anipulation  |
\*---------------------------------------------------------------------------*/
FoamFile
{
    format      ascii;
    class       volScalarField::Internal;
    location    "0.65";
    object      cloud:UCoeff;
}
// * * * * * * * * * * * * * * * * * * * * * * * * * * * * * * * * * * * * * //

dimensions      [1 0 0 0 0 0 0];

value           nonuniform List<scalar> 
3750
(
8.45863e-06
4.73197e-07
4.44727e-08
3.09215e-08
3.06143e-08
3.01113e-08
7.14657e-08
2.93082e-08
8.03504e-08
0
2.83161e-08
3.01983e-08
3.12801e-08
0
3.19595e-08
3.16738e-08
2.9745e-08
3.15382e-08
3.16754e-08
7.35549e-08
7.20476e-08
2.95966e-08
3.06317e-08
3.11674e-08
3.0455e-08
7.2405e-08
2.93762e-08
3.15349e-08
3.0148e-08
3.26853e-08
0
3.12671e-08
0
3.24974e-08
1.20641e-07
0
0
3.22113e-08
0
3.07376e-08
0
2.7914e-08
7.25074e-08
6.90529e-08
3.08187e-08
3.10361e-08
3.14799e-08
3.12846e-08
7.30662e-08
3.0681e-08
2.94688e-08
7.16473e-08
2.86189e-08
3.11425e-08
7.24654e-08
3.06479e-08
3.05879e-08
3.11588e-08
3.07273e-08
7.29964e-08
7.14583e-08
2.91631e-08
7.16043e-08
0
0
3.11652e-08
5.998e-08
3.60663e-08
7.01535e-08
2.9553e-08
6.9326e-08
0
3.04901e-08
3.09775e-08
3.19372e-08
1.84517e-05
6.20226e-07
1.65309e-08
3.04437e-08
3.00692e-08
0
2.8854e-08
8.03321e-08
1.04161e-08
5.20218e-08
7.17557e-08
3.06286e-08
0
0
3.08737e-08
0
3.13753e-08
0
3.1819e-08
3.16503e-08
1.28593e-07
3.02267e-08
0
3.16243e-08
0
3.08347e-08
0
0
3.10446e-08
3.09069e-08
0
0
7.2083e-08
2.97764e-08
3.03886e-08
2.94567e-08
0
0
3.10359e-08
0
3.07197e-08
1.2333e-07
2.81957e-08
3.05532e-08
0
0
0
0
3.11652e-08
0
7.59397e-08
0
3.18006e-08
3.23253e-08
3.20331e-08
3.0836e-08
3.04163e-08
0
0
0
3.06645e-08
3.0166e-08
7.38874e-08
3.0173e-08
3.22475e-08
3.27511e-08
0
3.02455e-08
7.20647e-08
7.10927e-08
7.06376e-08
2.83238e-08
3.00051e-08
0
3.13349e-08
3.42401e-06
6.17792e-07
0
7.09375e-08
7.16664e-08
3.51848e-08
2.41904e-08
3.13353e-08
3.27157e-08
3.1745e-08
2.93643e-08
4.64568e-08
3.2639e-08
4.72851e-08
3.12531e-08
7.28547e-08
0
0
3.69416e-08
7.05742e-08
7.70147e-08
0
3.13769e-08
3.04956e-08
0
7.20228e-08
7.43895e-08
3.03429e-08
3.10077e-08
0
3.13172e-08
0
7.16907e-08
0
3.04817e-08
2.97085e-08
7.21785e-08
0
0
8.58744e-08
5.72306e-08
0
7.18855e-08
2.90578e-08
3.02965e-08
3.07887e-08
0
3.12782e-08
0
7.28979e-08
7.37396e-08
0
3.1202e-08
0
3.12147e-08
3.12601e-08
2.92819e-08
1.22672e-07
7.145e-08
3.06621e-08
6.94246e-09
5.94846e-08
2.5868e-08
2.87701e-08
7.88561e-08
3.06583e-08
0
0
7.20426e-08
2.9929e-08
2.98306e-08
7.15659e-08
2.8988e-08
0
3.07578e-08
4.67199e-06
5.03596e-07
2.61604e-08
7.04848e-08
7.40932e-08
0
1.23819e-07
7.44339e-08
3.01119e-08
2.96977e-08
2.95727e-08
1.23526e-07
6.78854e-08
7.42539e-08
3.03306e-08
3.06614e-08
7.17487e-08
2.87252e-08
7.39169e-08
3.06314e-08
3.1503e-08
0
3.13389e-08
3.08332e-08
3.01987e-08
7.07065e-08
3.19606e-08
0
3.06635e-08
3.02821e-08
3.15178e-08
0
3.03262e-08
3.01538e-08
7.15907e-08
7.03208e-08
3.13946e-08
3.10009e-08
7.1855e-08
5.2812e-08
8.96791e-08
2.94915e-08
7.0771e-08
3.00857e-08
3.05255e-08
3.08819e-08
3.09714e-08
3.0708e-08
7.61743e-08
2.90312e-08
2.96168e-08
3.03297e-08
2.98926e-08
2.9786e-08
2.99468e-08
7.43469e-08
2.982e-08
2.94184e-08
0
3.06796e-08
3.03792e-08
0
2.97302e-08
7.33345e-08
3.15911e-08
3.1769e-08
3.02486e-08
7.20234e-08
2.86248e-08
7.19275e-08
2.87427e-08
2.93131e-08
2.93726e-08
3.15462e-08
0
6.28468e-06
7.8813e-07
5.23292e-08
3.09307e-08
3.06157e-08
3.19829e-08
3.12778e-08
0
3.20704e-08
3.20885e-08
3.02408e-08
0
0
3.12297e-08
3.07947e-08
7.56262e-08
2.94172e-08
2.97213e-08
3.27717e-08
3.33237e-08
0
3.28212e-08
3.20727e-08
3.06792e-08
2.97028e-08
2.93885e-08
1.24478e-08
9.40003e-09
3.01567e-08
7.69696e-08
3.03704e-08
2.91448e-08
2.95325e-08
7.22276e-08
2.94425e-08
3.00164e-08
7.91292e-08
3.12048e-08
2.92912e-08
2.86121e-08
3.06291e-08
0
7.3307e-08
3.08604e-08
4.21501e-08
5.69641e-08
3.00922e-08
6.96634e-08
7.67155e-08
3.04605e-08
2.93466e-08
0
7.35801e-08
2.88703e-08
7.63105e-08
3.04336e-08
3.02134e-08
3.00271e-08
0
3.11003e-08
3.08788e-08
3.08999e-08
7.31082e-08
3.04215e-08
3.01231e-08
3.04266e-08
7.43069e-08
1.25894e-08
4.30153e-08
2.96999e-08
2.99304e-08
0
2.98874e-08
3.30745e-08
0
7.31814e-06
6.3352e-07
5.22713e-08
3.0866e-08
3.09768e-08
3.0904e-08
0
3.09259e-08
3.08333e-08
0
3.12012e-08
3.12699e-08
4.24672e-08
6.06152e-08
3.0201e-08
2.99265e-08
2.95016e-08
3.12983e-08
3.47404e-08
8.04124e-10
7.94744e-08
3.40361e-08
0
2.76023e-08
7.28552e-08
2.96123e-08
3.04109e-08
3.09693e-08
7.45439e-08
2.97303e-08
3.02361e-08
3.04526e-08
0
0
0
0
3.25188e-08
3.14354e-08
0
0
0
0
0
2.97803e-08
3.07658e-08
2.99141e-08
2.87996e-08
2.96184e-08
0
3.1862e-08
5.27762e-08
4.77014e-08
2.9961e-08
2.94949e-08
3.09394e-08
3.14744e-08
3.14357e-08
3.10886e-08
3.08338e-08
3.0365e-08
3.10173e-08
3.09118e-08
3.04185e-08
3.01395e-08
7.34321e-08
7.29695e-08
2.94718e-08
2.95483e-08
2.94967e-08
6.1071e-09
1.89186e-08
3.0259e-08
0
3.16763e-08
3.16856e-08
6.24474e-06
2.00148e-07
9.03553e-08
3.10882e-08
3.12103e-08
3.73868e-08
7.03873e-08
7.06227e-08
3.09748e-09
2.58645e-08
3.07124e-08
3.12274e-08
3.14913e-08
0
2.97139e-08
2.88821e-08
2.90507e-08
3.08847e-08
3.47942e-08
0
3.2053e-08
0
3.10431e-08
3.00568e-08
3.02406e-08
3.07861e-08
7.46864e-08
3.00552e-08
7.46034e-08
0
0
3.11398e-08
7.48876e-08
3.07082e-08
3.07346e-08
7.79166e-08
3.02481e-08
3.00977e-08
7.15133e-08
5.69222e-08
3.80773e-08
2.90184e-08
7.14122e-08
2.97416e-08
7.27052e-08
2.97803e-08
2.9743e-08
3.01706e-08
3.06771e-08
3.09671e-08
3.12922e-08
0
3.1575e-08
7.16478e-08
2.9956e-08
3.14831e-08
3.16777e-08
3.08664e-08
3.03134e-08
3.02106e-08
3.1609e-08
0
3.03614e-08
3.11996e-08
3.04811e-08
3.04531e-08
3.03945e-08
3.07067e-08
3.04774e-08
3.08222e-08
3.04443e-08
3.07184e-08
1.69845e-08
5.50427e-10
3.13266e-08
8.48233e-06
6.06573e-07
2.88606e-08
6.37349e-08
7.7659e-08
0
3.08808e-08
8.24331e-09
5.40684e-08
3.02951e-08
3.04275e-08
0
3.1417e-08
3.09067e-08
7.35779e-08
2.89442e-08
2.94236e-08
3.1254e-08
3.28151e-08
3.29572e-08
3.16667e-08
3.00327e-08
7.47981e-08
0
0
3.09495e-08
7.50133e-08
3.0226e-08
0
3.07708e-08
3.02889e-08
3.10302e-08
0
7.50119e-08
7.38059e-08
3.00448e-08
0
3.05804e-08
3.02606e-08
2.98314e-08
2.9777e-08
0
2.99267e-08
2.91601e-08
2.95089e-08
3.08525e-08
3.01834e-08
2.96875e-08
3.0018e-08
3.00006e-08
7.62957e-08
7.79616e-08
2.92203e-08
2.84198e-08
2.84814e-08
3.12535e-08
3.13376e-08
3.01032e-08
2.99981e-08
2.98357e-08
0
7.27362e-08
3.12441e-08
3.25157e-08
3.13185e-08
3.14812e-08
0
3.07199e-08
3.09202e-08
3.071e-08
3.06682e-08
3.05368e-08
3.07465e-08
3.07211e-08
3.07144e-08
9.91468e-06
7.8462e-07
1.51289e-07
0
3.11239e-08
3.09313e-08
7.33856e-08
3.03813e-08
3.0931e-08
3.15187e-08
3.10528e-08
0
0
0
0
3.13119e-08
0
0
3.24788e-08
0
3.25188e-08
3.17605e-08
0
4.43573e-08
7.39355e-08
3.77593e-08
6.28649e-08
3.08787e-08
3.06481e-08
7.46315e-08
0
3.0348e-08
3.04702e-08
3.08196e-08
3.17164e-08
7.45651e-08
2.98599e-08
3.00446e-08
3.07083e-08
3.05514e-08
3.04563e-08
3.07027e-08
3.09694e-08
3.05359e-08
3.0163e-08
3.06127e-08
3.07442e-08
3.06046e-08
3.09018e-08
3.11572e-08
3.1315e-08
7.61803e-08
2.90277e-08
0
2.86911e-08
7.7503e-08
3.05279e-08
3.00391e-08
3.02714e-08
3.04078e-08
3.07445e-08
3.05973e-08
3.0649e-08
3.3477e-08
0
3.14277e-08
3.07147e-08
3.04722e-08
2.99025e-08
3.01076e-08
3.07487e-08
7.35956e-08
2.92739e-08
2.97103e-08
7.13063e-08
4.64107e-06
3.58244e-07
1.48077e-07
2.9887e-08
7.41879e-08
3.15555e-08
0
3.06793e-08
3.22208e-08
0
7.34328e-08
3.09985e-08
3.13095e-08
0
3.11087e-08
2.99283e-08
7.60988e-08
0
0
3.20003e-08
3.13601e-08
3.03739e-08
3.00909e-08
6.78481e-08
5.9082e-08
0
0
3.12287e-08
3.01001e-08
2.90414e-08
7.21653e-08
7.18248e-08
7.12131e-08
7.30689e-08
0
3.02775e-08
3.14598e-08
3.00918e-08
3.06028e-08
2.92962e-08
2.95162e-08
7.25962e-08
2.98989e-08
3.02971e-08
3.08966e-08
3.04489e-08
0
3.04141e-08
3.10569e-08
3.17382e-08
3.13443e-08
3.10376e-08
3.08654e-08
3.04903e-08
3.07919e-08
3.08952e-08
3.22837e-08
3.1461e-08
3.03035e-08
7.40895e-08
3.02261e-08
2.90725e-08
3.09498e-08
3.47139e-08
0
3.11778e-08
3.02037e-08
2.97526e-08
2.98478e-08
3.01912e-08
3.03957e-08
7.2775e-08
2.83268e-08
7.19885e-08
2.93906e-08
6.40848e-06
5.84094e-07
1.47998e-07
3.13152e-08
3.02383e-08
7.29846e-08
3.00903e-08
3.17188e-08
3.26709e-08
0
8.25899e-10
7.50447e-08
3.08953e-08
3.0411e-08
7.32925e-08
2.91325e-08
7.683e-08
2.95642e-08
3.99385e-08
5.90279e-08
3.01111e-08
3.10765e-08
3.13328e-08
3.06829e-08
0
3.04742e-08
7.45327e-08
7.24508e-08
3.01295e-08
7.13495e-08
2.99371e-08
0
3.01588e-08
3.03842e-08
3.09121e-08
3.1449e-08
3.15207e-08
0
7.23256e-08
2.91543e-08
2.98427e-08
3.06421e-08
3.08704e-08
3.08155e-08
3.03945e-08
2.99523e-08
3.0567e-08
2.98285e-08
5.08938e-08
4.04662e-08
2.30937e-09
2.99268e-08
3.0615e-08
3.00506e-08
3.00632e-08
3.04153e-08
7.74389e-08
3.11488e-08
3.00817e-08
3.05684e-08
3.09216e-08
3.04077e-08
3.12855e-08
3.45728e-08
0
3.06232e-08
6.20831e-10
5.77977e-08
2.42786e-09
3.07424e-08
0
3.05909e-08
7.2426e-08
2.97982e-08
3.00307e-08
4.65176e-06
7.99049e-07
9.42194e-08
2.99954e-08
3.04744e-08
3.03004e-08
0
4.58173e-09
2.21698e-08
3.10462e-08
7.61003e-08
3.14584e-08
3.04397e-08
7.61441e-08
2.97772e-08
2.99406e-08
3.07127e-08
5.03441e-08
4.82771e-08
2.92884e-08
2.97192e-08
7.76558e-08
3.07139e-08
3.01089e-08
1.1477e-08
1.00465e-07
3.18321e-08
0
7.08538e-08
2.96935e-08
0
3.00183e-08
3.08454e-08
0
7.48625e-08
3.08028e-08
3.07706e-08
3.04266e-08
3.02452e-08
2.99695e-08
3.06161e-08
3.05556e-08
3.06653e-08
3.0337e-08
3.02897e-08
2.97545e-08
3.00517e-08
0
7.65397e-08
3.05872e-08
2.82983e-08
3.00605e-08
2.9973e-08
3.01075e-08
3.03345e-08
3.06647e-08
3.10177e-08
3.07991e-08
7.58669e-08
3.09586e-08
3.15e-08
0
3.05886e-08
3.28576e-08
0
3.14248e-08
3.05179e-08
2.97757e-08
2.95212e-08
3.00452e-08
7.14054e-08
3.06309e-08
1.60037e-08
1.95934e-09
3.07776e-08
6.26162e-06
2.75769e-07
4.17779e-08
3.13073e-08
2.98728e-08
3.07498e-08
3.03827e-08
3.10162e-08
2.93398e-08
7.40273e-08
3.14667e-08
3.04041e-08
2.92108e-08
3.06076e-08
3.10335e-08
7.80748e-08
3.11945e-08
2.96623e-08
2.93219e-08
3.00285e-08
7.47119e-08
3.08022e-08
3.03806e-08
2.98945e-08
7.17061e-08
3.10603e-08
3.12731e-08
3.08454e-08
0
3.04718e-08
0
7.23897e-08
2.97857e-08
0
3.18814e-08
3.13327e-08
3.11293e-08
3.16136e-08
3.07858e-08
3.06231e-08
3.02123e-08
3.007e-08
3.04039e-08
3.07584e-08
3.08722e-08
3.05891e-08
3.01854e-08
2.97632e-08
7.554e-08
3.0404e-08
2.94696e-08
3.03439e-08
3.04954e-08
3.03882e-08
3.06756e-08
3.09424e-08
3.11902e-08
3.09381e-08
3.13366e-08
7.56726e-08
2.98738e-08
3.01382e-08
3.09334e-08
3.25873e-08
0
3.07273e-08
7.38189e-08
0
3.11374e-08
3.11837e-08
3.06895e-08
3.08828e-08
0
0
0
6.2922e-06
3.65145e-07
9.11188e-08
0
3.04591e-08
3.01483e-08
3.02253e-08
3.05197e-08
3.09759e-08
3.09206e-08
3.13774e-08
3.17765e-08
3.11762e-08
3.10575e-08
0
7.66372e-08
3.20732e-08
7.30747e-08
2.89903e-08
2.97643e-08
3.08535e-08
3.13588e-08
3.10805e-08
3.11968e-08
3.06548e-08
3.06797e-08
3.11651e-08
3.14365e-08
3.19047e-08
0
0
0
3.04494e-08
3.14114e-08
0
0
3.2238e-08
3.00725e-08
2.9779e-08
3.34388e-08
6.95959e-08
2.99233e-08
3.18167e-08
0
3.08491e-08
3.12092e-08
3.1144e-08
3.10031e-08
3.14121e-08
3.12275e-08
0
7.39121e-08
2.91429e-08
3.11704e-08
8.3261e-09
5.63542e-08
3.02425e-08
3.03031e-08
3.02102e-08
7.40841e-08
2.99051e-08
2.9659e-08
3.01015e-08
7.91748e-08
3.08374e-08
2.90971e-08
3.00951e-08
0
3.09527e-08
3.2098e-08
3.07709e-08
3.04338e-08
3.07535e-08
3.04257e-08
3.08352e-08
1.35186e-05
4.88126e-07
1.28328e-07
2.99407e-08
3.07981e-08
3.06297e-08
3.06094e-08
3.07395e-08
3.10915e-08
3.15746e-08
0
3.16421e-08
3.14231e-08
3.17745e-08
7.64099e-09
6.21439e-08
3.17505e-08
2.93442e-08
2.9397e-08
3.15452e-08
3.25579e-08
3.19563e-08
3.06506e-08
2.97852e-08
3.03627e-08
3.02657e-08
3.08713e-08
3.37915e-08
0
3.11204e-08
3.0282e-08
3.13308e-08
1.02944e-08
3.53726e-08
5.01068e-08
3.43349e-08
1.20818e-08
4.4068e-08
7.20168e-08
0
3.0984e-08
2.94641e-08
3.02235e-08
3.03265e-08
3.03842e-08
3.1175e-08
0
3.06176e-08
3.11799e-08
3.1357e-08
7.09295e-08
2.91873e-08
0
3.10506e-08
3.1911e-08
1.11452e-08
1.21324e-08
0
0
0
3.09981e-08
2.99924e-08
2.97254e-08
3.31004e-08
7.66536e-08
2.97146e-08
2.95421e-08
2.99826e-08
3.33023e-08
0
3.08808e-08
3.0326e-08
0
7.51876e-09
1.02786e-07
5.4637e-06
4.78253e-07
3.29543e-08
5.95882e-08
0
3.01145e-08
3.04873e-08
3.0964e-08
0
3.09475e-08
3.19477e-08
3.14026e-08
3.12846e-08
3.12651e-08
3.18986e-08
3.25624e-08
3.16633e-08
2.99219e-08
3.08372e-08
3.31793e-08
3.36721e-08
3.10902e-08
2.9217e-08
2.95521e-08
2.99398e-08
0
3.0965e-08
0
3.20718e-08
3.09012e-08
3.02906e-08
5.93687e-08
3.60146e-08
2.94858e-08
5.22757e-08
5.18223e-08
3.02519e-08
3.01451e-08
3.05321e-08
3.09489e-08
3.11017e-08
0
7.28097e-08
2.90552e-08
2.94072e-08
3.0141e-08
3.01239e-08
3.06079e-08
3.14499e-08
0
0
3.13082e-08
0
3.04746e-08
3.14249e-08
3.18324e-08
3.22821e-08
3.07671e-08
3.00581e-08
3.05219e-08
3.0541e-08
3.04674e-08
7.76244e-08
3.26e-08
3.16517e-08
3.02299e-08
2.97448e-08
3.02486e-08
3.19025e-08
3.12018e-08
3.03593e-08
3.03125e-08
3.0606e-08
0
3.03038e-08
2.53978e-05
2.02991e-07
4.49919e-08
3.59266e-08
2.48235e-08
3.02333e-08
3.04886e-08
3.17178e-08
0
3.1503e-08
3.20327e-08
3.17999e-08
3.12597e-08
3.1286e-08
3.08377e-08
3.08479e-08
3.15774e-08
3.14048e-08
3.10474e-08
3.05898e-08
3.23266e-08
3.14014e-08
0
3.04432e-08
3.01773e-08
3.12755e-08
0
3.16316e-08
3.17392e-08
3.1679e-08
3.05713e-08
7.51689e-08
2.9662e-08
2.98595e-08
7.56339e-08
3.09621e-08
0
2.98004e-08
3.05597e-08
7.75138e-08
2.99026e-08
2.84044e-08
7.18887e-08
2.79846e-08
7.13224e-08
3.03462e-08
3.13009e-08
3.5652e-08
2.47567e-08
3.08217e-08
3.05381e-08
3.03553e-08
0
3.13457e-08
0
3.11121e-08
3.05711e-08
3.06325e-08
3.0912e-08
3.08621e-08
6.40831e-08
3.04131e-08
3.45516e-08
3.23168e-08
2.97646e-08
2.95077e-08
3.02582e-08
3.03153e-08
3.07582e-08
3.0888e-08
7.38054e-08
3.0835e-08
0
2.97989e-08
2.98903e-08
3.41766e-06
3.30004e-07
7.56734e-08
3.13628e-08
3.03928e-08
0
3.01404e-08
3.11032e-08
3.17509e-08
0
3.12554e-08
3.14286e-08
3.14577e-08
7.51399e-08
2.97019e-08
3.09774e-08
3.22329e-08
3.13709e-08
3.03734e-08
3.08151e-08
3.14434e-08
0
3.11032e-08
3.07716e-08
1.54863e-08
2.70778e-09
3.17327e-08
3.83089e-08
2.46065e-08
3.09297e-08
3.04861e-08
3.10531e-08
3.06217e-08
4.17172e-08
6.25056e-08
3.10229e-08
3.02004e-08
3.11438e-08
3.13932e-08
3.13099e-08
3.0416e-08
2.99623e-08
7.26163e-08
2.87236e-08
6.96585e-08
7.64707e-08
3.02875e-08
2.99483e-08
3.18966e-08
2.85261e-08
2.97833e-08
2.93807e-08
2.98708e-08
3.02592e-08
3.09054e-08
7.4328e-08
3.03366e-08
4.93284e-08
4.65607e-08
3.01905e-08
3.62661e-08
0
3.1647e-08
3.24082e-08
0
7.24852e-08
2.93766e-08
7.22601e-08
5.11498e-08
4.6586e-08
2.98268e-08
2.90937e-08
7.41605e-08
3.05322e-08
2.96541e-08
1.83396e-05
1.29405e-07
1.0457e-07
2.98232e-08
3.01839e-08
3.07267e-08
3.10199e-08
3.10612e-08
3.12039e-08
3.11993e-08
3.10064e-08
3.10559e-08
3.09065e-08
7.32776e-08
2.88891e-08
7.79e-08
3.1885e-08
3.03731e-08
0
3.06084e-08
3.13157e-08
3.11347e-08
3.17638e-08
0
3.07156e-08
7.64966e-08
0
3.07657e-08
3.05886e-08
3.05958e-08
3.09568e-08
0
3.10627e-08
3.1067e-08
3.14215e-08
3.31884e-08
3.36371e-08
3.19738e-08
3.06553e-08
4.04161e-08
2.13755e-08
3.02099e-08
3.06133e-08
3.05546e-08
3.06414e-08
3.1209e-08
3.12046e-08
3.09198e-08
3.06939e-08
2.96803e-08
7.26499e-08
6.89584e-08
6.75756e-08
7.04979e-08
1.35392e-07
0
2.89634e-08
2.91032e-08
2.94494e-08
0
2.97502e-08
3.03319e-08
3.15373e-08
0
3.10866e-08
3.78811e-08
6.57953e-08
2.98004e-08
7.08557e-08
7.26237e-08
3.66304e-08
6.21296e-08
3.01104e-08
4.78459e-08
5.15764e-08
7.2808e-06
3.79215e-07
6.05982e-08
3.01879e-08
2.96435e-08
3.02812e-08
3.08255e-08
3.04493e-08
7.41614e-08
3.03217e-08
3.13689e-08
5.50765e-08
4.54364e-08
3.00634e-08
3.05642e-08
3.1338e-08
3.16686e-08
3.10441e-08
3.05027e-08
3.02601e-08
3.03481e-08
3.02427e-08
3.09463e-08
3.07899e-08
3.09697e-08
3.17485e-08
5.22405e-08
4.89264e-08
0
3.06704e-08
1.16231e-08
9.76296e-09
3.07349e-08
3.00556e-08
2.9871e-08
8.27675e-08
0
3.00245e-08
3.0087e-08
0
3.06828e-08
0
0
3.07818e-08
0
3.2005e-08
0
3.14851e-08
3.20773e-08
0
0
3.05089e-08
0
0
3.18581e-08
7.52666e-08
0
0
3.11868e-08
7.38951e-08
2.94877e-08
0
3.00403e-08
7.51034e-08
0
0
0
3.04687e-08
7.20415e-08
2.91391e-08
9.84153e-08
4.40056e-08
7.31459e-08
3.08182e-08
1.07598e-08
8.53235e-06
9.38571e-07
5.41136e-08
2.84791e-08
3.0147e-08
2.95718e-08
2.99341e-08
7.08387e-08
3.02815e-08
3.09581e-08
3.20565e-08
3.1643e-08
3.07278e-08
3.11655e-08
2.19669e-09
2.80116e-08
3.18291e-08
3.12779e-08
7.43439e-08
2.93484e-08
2.95161e-08
3.0404e-08
3.07706e-08
3.00154e-08
3.0479e-08
7.6974e-08
3.03801e-08
2.90437e-08
3.07947e-08
2.96722e-08
3.04615e-08
2.99642e-08
2.99528e-08
2.9477e-08
2.93754e-08
8.31003e-08
3.37644e-08
2.8829e-08
0
2.88244e-08
7.21168e-08
2.87344e-08
7.07648e-08
0
7.14609e-08
0
2.98339e-08
3.0955e-08
0
3.10874e-08
0
3.02574e-08
3.1106e-08
3.17155e-08
3.14192e-08
3.16565e-08
3.02494e-09
2.50779e-08
3.02167e-08
3.04687e-08
2.99112e-08
7.14936e-08
1.24748e-07
2.82941e-08
7.54934e-08
2.94946e-08
1.2571e-07
2.91425e-08
3.02988e-08
7.18453e-08
7.21278e-08
5.26069e-08
3.96006e-08
7.55363e-08
2.96942e-08
6.2999e-06
7.64908e-07
9.7837e-08
7.2184e-08
2.8945e-08
3.07626e-08
3.0829e-08
0
3.14686e-08
3.08974e-08
7.88127e-08
3.18263e-08
2.96801e-08
3.17285e-08
0
3.1231e-08
3.1194e-08
3.11505e-08
0
3.06288e-08
3.03536e-08
7.29948e-08
2.98518e-08
4.95637e-08
5.17195e-08
3.08693e-08
3.09021e-08
3.02117e-08
2.99075e-08
3.05528e-08
3.11545e-08
3.12908e-08
3.03262e-08
2.88569e-08
7.80802e-08
3.4003e-08
3.15991e-08
2.97943e-08
7.19788e-08
2.95832e-08
2.94953e-08
2.93717e-08
3.01917e-08
0
3.02914e-08
3.12091e-08
0
3.06572e-08
3.07367e-08
3.06727e-08
3.08075e-08
7.37218e-08
2.90882e-08
7.19644e-08
2.90518e-08
0
3.06545e-08
7.00349e-08
3.17753e-08
1.26063e-07
3.04151e-08
0
2.83653e-08
7.51307e-08
3.0652e-08
7.13347e-08
6.95105e-08
3.14374e-08
1.52241e-08
4.0662e-09
3.05708e-08
7.26292e-08
2.96169e-08
7.30262e-08
3.07739e-08
1.02105e-05
8.29297e-08
5.44016e-08
3.04443e-08
0
3.08814e-08
3.10978e-08
0
3.13246e-08
3.1227e-08
7.4891e-08
3.00724e-08
7.8601e-08
3.31827e-08
0
3.06528e-08
3.04753e-08
3.06784e-08
3.05676e-08
3.03051e-08
2.99725e-08
3.01011e-08
2.99767e-08
7.75958e-08
3.14263e-08
2.97679e-08
2.98816e-08
0
7.26941e-08
2.98988e-08
7.68899e-08
3.03912e-08
0
3.09619e-08
3.18719e-08
3.29618e-08
3.12576e-08
3.00118e-08
3.14583e-08
0
0
3.02797e-08
3.05608e-08
7.49955e-08
0
7.36963e-08
2.92293e-08
3.05117e-08
4.849e-08
4.86661e-08
7.31328e-08
2.95824e-08
2.9081e-08
2.92417e-08
3.13395e-08
7.62617e-08
2.89057e-08
2.88114e-08
2.95069e-08
3.04665e-08
3.11326e-08
3.05548e-08
3.11134e-08
3.1917e-08
3.05938e-08
0
0
0
0
0
0
0
3.13831e-08
3.07174e-08
7.39283e-08
9.48217e-06
2.69409e-07
4.22513e-08
0
3.07938e-08
0
4.11146e-08
5.81237e-08
4.55876e-08
5.41199e-08
3.12919e-08
3.16383e-08
3.18839e-08
3.31019e-08
3.26422e-08
3.13115e-08
3.01252e-08
3.04682e-08
3.05481e-08
3.5946e-08
4.88348e-08
4.13224e-08
2.99538e-08
3.10831e-08
3.15994e-08
3.0709e-08
2.97121e-08
3.01167e-08
3.10519e-08
0
7.57778e-08
3.08977e-08
2.99954e-08
3.04454e-08
3.11601e-08
3.14694e-08
3.16732e-08
3.08665e-08
3.13876e-08
3.13816e-08
3.06843e-08
3.02504e-08
0
3.2775e-08
3.25043e-08
7.35013e-08
2.87456e-08
7.21903e-08
0
3.05128e-08
7.37846e-08
3.10286e-08
7.67243e-09
5.53745e-08
3.10331e-08
3.05139e-08
3.02455e-08
2.95177e-08
2.97283e-08
3.00881e-08
3.06646e-08
3.09901e-08
3.13626e-08
3.20368e-08
3.17635e-08
3.10948e-08
3.0686e-08
3.12216e-08
3.12069e-08
3.17518e-08
0
3.13316e-08
0
0
3.11891e-08
6.23882e-06
6.18142e-07
1.04027e-07
2.99031e-08
3.06539e-08
3.03236e-08
9.17036e-08
5.0261e-08
3.01786e-08
3.12413e-08
3.21494e-08
3.20373e-08
3.21201e-08
7.8463e-08
3.07755e-08
2.98913e-08
2.90478e-08
2.92634e-08
5.09348e-08
4.79154e-08
2.99463e-08
2.98617e-08
3.04146e-08
3.09815e-08
3.13007e-08
0
3.08921e-08
2.94246e-08
2.97614e-08
7.83015e-08
0
3.01543e-08
3.06733e-08
0
3.08167e-08
3.13451e-08
3.20598e-08
3.12673e-08
3.11429e-08
2.99606e-08
2.92073e-08
2.95329e-08
3.01122e-08
8.06145e-08
3.13464e-08
2.95352e-08
3.02987e-08
0
7.16105e-08
3.18209e-08
3.00553e-08
7.60364e-08
3.01524e-08
0
2.9974e-08
2.98473e-08
3.03241e-08
7.3807e-08
2.9721e-08
3.02278e-08
3.08033e-08
3.15669e-08
3.26988e-08
3.26496e-08
3.13197e-08
3.01113e-08
2.98137e-08
7.65157e-08
2.97779e-08
0
7.51781e-08
2.99826e-08
2.95926e-08
2.85793e-08
0
3.36381e-06
3.75185e-07
1.12126e-07
4.1163e-08
5.66975e-08
2.97656e-08
2.97176e-08
2.92536e-08
2.99951e-08
3.16352e-08
3.40309e-08
3.45702e-08
3.29045e-08
3.0318e-08
7.58729e-08
2.95978e-08
7.19094e-08
2.94524e-08
2.96144e-08
3.00554e-08
3.11074e-08
2.95474e-08
3.07263e-08
0
3.12683e-08
0
7.20118e-08
2.91013e-08
3.0001e-08
3.10345e-08
3.27292e-08
3.09698e-08
3.03144e-08
3.07188e-08
3.04128e-08
3.01222e-08
3.12533e-08
3.14812e-08
3.08056e-08
0
7.25961e-08
2.87806e-08
2.99455e-08
3.20058e-08
3.26258e-08
0
0
3.06794e-08
0
3.11951e-08
3.16181e-08
0
3.22497e-08
3.06741e-08
7.36538e-08
0
3.08476e-08
3.08576e-08
3.04447e-08
0
0
3.16054e-08
3.43545e-08
0
0
0
0
7.2594e-08
5.11729e-08
9.59271e-08
0
5.28726e-08
9.36726e-08
2.91436e-08
2.87663e-08
1.348e-05
3.58423e-07
5.03937e-08
7.32709e-08
2.90468e-08
7.13576e-08
2.89453e-08
3.02379e-08
2.90243e-08
8.01883e-08
3.6155e-08
3.34097e-08
2.60713e-09
2.48645e-08
7.63815e-08
3.06327e-08
2.90232e-08
3.54775e-08
6.49953e-08
3.04298e-08
1.35064e-09
2.8464e-08
3.07619e-08
0
3.101e-08
5.52541e-08
4.02234e-08
3.12435e-08
0
3.10993e-08
0
3.204e-08
3.07554e-08
2.99999e-08
7.29593e-08
2.893e-08
7.45093e-08
2.96877e-08
2.99197e-08
3.04551e-08
3.05696e-08
3.01919e-08
4.18801e-08
6.28788e-08
0
3.09745e-08
1.06813e-08
1.15395e-08
3.09657e-08
0
3.12953e-08
5.65137e-08
4.3156e-08
2.90684e-08
0
7.31342e-08
3.04613e-08
3.07031e-08
3.13541e-08
3.12741e-08
3.1145e-08
0
0
0
3.26049e-08
3.07373e-08
7.47814e-08
0
0
3.05039e-08
3.10961e-08
3.08161e-08
2.99571e-08
7.2831e-08
2.94576e-08
8.43915e-06
3.62322e-07
5.44986e-08
3.09072e-08
3.04564e-08
2.96588e-08
7.15392e-08
2.92312e-08
2.94676e-08
8.03902e-08
3.52021e-08
0
0
2.98444e-08
3.13224e-08
3.14215e-08
3.09776e-08
2.98689e-08
3.03248e-08
4.3152e-08
1.72514e-08
3.08445e-08
3.11485e-08
0
3.13813e-08
3.13189e-08
3.06541e-08
3.08218e-08
0
3.08705e-08
3.25755e-08
3.29521e-08
7.33734e-08
7.25569e-08
0
2.9027e-08
7.31652e-08
3.00741e-08
3.03042e-08
3.09201e-08
3.05102e-08
3.09285e-08
7.48219e-08
3.04654e-08
3.07167e-08
3.10484e-08
2.99592e-08
3.08135e-08
2.99722e-08
7.32317e-08
7.33687e-08
3.11023e-08
3.03675e-08
2.96532e-08
7.2196e-08
2.99602e-08
3.02943e-08
3.10248e-08
0
3.05833e-08
3.0739e-08
3.06139e-08
3.07918e-08
7.96019e-08
3.06073e-08
2.956e-08
3.01477e-08
3.10639e-08
0
3.12053e-08
3.12428e-08
7.27267e-08
2.90635e-08
3.13653e-08
0
1.83248e-05
1.98563e-07
5.72407e-08
3.07681e-08
4.45703e-08
4.83222e-08
2.94778e-08
3.01654e-08
3.02392e-08
3.10095e-08
3.22148e-08
3.16976e-08
3.09872e-08
3.12602e-08
0
3.12337e-08
3.25903e-08
3.11013e-08
3.11239e-08
3.10134e-08
3.0718e-08
3.08297e-08
3.08111e-08
3.10527e-08
3.08987e-08
3.12922e-08
0
3.026e-08
2.91302e-08
2.96058e-08
7.84151e-08
3.14263e-08
0
2.93753e-08
2.95198e-08
2.97445e-08
3.00634e-08
7.71172e-08
2.99039e-08
2.90716e-08
3.06337e-08
3.15479e-08
3.1201e-08
5.3207e-08
6.52601e-09
3.02203e-08
3.08622e-08
7.35201e-08
4.25092e-08
1.90929e-08
3.0087e-08
3.04646e-08
3.10019e-08
3.07134e-08
3.05979e-08
3.09138e-08
0
0
3.11625e-08
3.10954e-08
3.08961e-08
3.03172e-08
3.08104e-08
3.16557e-08
3.19254e-08
3.09752e-08
3.10654e-08
3.12173e-08
0
7.17252e-08
7.22768e-08
2.92471e-08
2.89422e-08
3.10887e-08
0
4.60119e-06
2.87739e-07
2.69005e-08
7.58656e-08
2.8919e-08
2.8881e-08
3.04554e-08
0
3.07684e-08
3.16925e-08
0
3.23946e-08
1.43171e-08
3.98814e-08
3.08011e-08
3.9664e-08
2.2326e-08
3.11019e-08
3.08356e-08
3.08371e-08
3.08047e-08
3.07363e-08
3.05641e-08
3.09634e-08
3.09238e-08
3.05702e-08
3.09402e-08
7.3787e-08
2.92705e-08
3.00478e-08
3.11039e-08
7.60192e-08
2.95055e-08
2.94155e-08
3.0326e-08
0
3.04643e-08
7.55381e-08
2.97767e-08
2.91782e-08
7.57771e-08
3.0667e-08
3.07316e-08
3.01432e-08
2.98747e-08
5.35183e-08
4.49786e-08
3.15628e-08
3.02416e-08
3.07023e-08
3.06072e-08
3.06355e-08
3.03225e-08
3.00563e-08
3.09803e-08
0
3.18447e-08
1.63975e-08
1.89997e-08
5.41351e-08
2.97686e-08
2.99816e-08
3.15873e-08
3.18198e-08
3.12531e-08
0
3.08161e-08
5.34906e-08
4.33616e-08
2.95187e-08
2.97792e-08
3.05866e-08
2.96988e-08
3.02732e-08
3.01271e-08
2.5448e-05
2.04002e-07
1.26549e-07
3.03195e-08
2.9708e-08
3.03473e-08
3.06996e-08
2.99091e-08
3.04046e-08
3.06637e-08
0
3.18298e-08
0
3.17029e-08
3.10503e-08
3.06697e-08
3.0709e-08
3.13152e-08
3.05698e-08
3.07584e-08
3.0925e-08
3.07973e-08
3.08579e-08
0
0
3.10308e-08
6.1819e-08
3.86425e-08
2.95213e-08
3.01438e-08
3.0592e-08
3.08493e-08
3.07809e-08
3.01366e-08
3.04425e-08
3.03786e-08
2.99784e-08
3.05765e-08
5.28108e-08
4.50821e-08
3.01188e-08
3.0381e-08
7.77295e-08
3.0316e-08
2.91304e-08
2.97431e-08
3.19353e-08
3.37648e-08
1.60537e-08
3.84451e-08
3.12726e-08
3.02548e-08
3.00775e-08
3.02306e-08
8.92409e-09
1.43559e-08
3.06926e-08
3.11875e-08
3.10447e-08
3.46073e-08
2.72181e-08
3.05574e-08
3.09222e-08
3.13028e-08
3.09036e-08
3.09575e-08
0
4.87606e-08
5.14977e-08
7.28003e-08
2.92252e-08
2.96378e-08
2.99031e-08
3.02439e-08
2.78778e-09
2.16721e-05
1.42077e-07
2.80272e-08
3.10953e-08
0
3.08053e-08
0
3.05424e-08
3.09846e-08
3.07739e-08
0
3.08131e-08
3.10909e-08
7.46907e-08
3.14276e-08
3.00453e-08
7.42264e-08
2.9565e-08
3.00323e-08
3.09543e-08
3.06746e-08
5.87756e-08
3.93024e-08
3.01476e-08
1.2652e-08
4.11809e-08
7.77073e-08
0
3.03342e-08
3.04375e-08
0
3.09241e-08
7.22064e-08
2.93693e-08
3.03747e-08
7.39542e-08
2.94743e-08
2.96757e-08
0
3.02991e-08
3.08741e-08
3.09159e-08
3.13728e-08
3.14322e-08
3.07425e-08
2.92411e-08
7.82145e-08
3.54949e-08
0
3.10194e-08
3.01553e-08
3.05309e-08
3.07042e-08
4.71434e-08
5.39598e-08
3.11233e-08
0
3.12656e-08
3.08234e-08
0
3.1144e-08
7.3525e-08
7.50856e-08
3.01173e-08
2.98603e-08
0
3.15065e-08
3.04842e-08
2.98859e-08
3.00792e-08
3.03358e-08
3.02598e-08
3.03893e-08
3.05718e-08
3.09426e-08
1.16061e-05
2.88484e-07
2.80653e-08
0
7.12823e-08
7.12537e-08
2.95436e-08
2.91079e-08
3.02121e-08
3.10639e-08
3.03752e-08
3.05797e-08
3.11156e-08
1.30808e-08
4.81559e-08
3.05577e-08
2.9866e-08
2.98966e-08
3.03583e-08
3.08492e-08
7.51878e-08
2.97098e-08
3.0018e-08
2.96488e-08
2.9187e-08
3.00121e-08
3.22684e-08
3.16876e-08
3.0781e-08
3.04035e-08
0
3.09894e-08
0
7.18366e-08
2.99215e-08
3.01172e-08
7.32055e-08
2.95294e-08
2.97089e-08
3.04811e-08
3.07618e-08
3.04868e-08
3.08912e-08
3.12801e-08
3.08682e-08
3.0052e-08
5.07195e-08
5.72293e-08
0
3.10243e-08
3.03461e-08
4.00786e-08
2.08203e-08
3.04883e-08
3.08986e-08
3.13523e-08
3.15749e-08
3.12392e-08
2.97056e-08
3.01983e-08
2.98302e-08
0
7.74494e-08
3.04748e-08
2.92312e-08
0
7.47744e-08
2.98991e-08
3.01665e-08
0
0
0
0
0
3.03551e-08
5.4228e-06
2.00245e-07
2.57632e-08
2.95724e-08
3.04234e-08
2.99426e-08
7.38467e-08
2.91995e-08
2.87153e-08
7.38545e-08
2.96072e-08
3.01576e-08
0
3.10251e-08
3.16983e-08
3.14459e-08
3.10642e-08
0
3.12484e-08
3.19018e-08
3.17704e-08
3.14969e-08
3.07893e-08
2.9962e-08
2.92754e-08
7.6435e-08
3.06676e-08
2.97163e-08
3.01835e-08
3.08389e-08
3.79382e-09
2.33704e-08
7.07188e-08
7.18736e-08
2.92104e-08
2.99783e-08
0
3.103e-08
1.10284e-08
4.70923e-08
3.05747e-08
3.01585e-08
3.19035e-08
0
3.10393e-08
7.62883e-08
0
3.21142e-08
3.22731e-08
4.11202e-08
2.25743e-08
3.08371e-08
3.04406e-08
2.97903e-08
2.9808e-08
7.72909e-08
3.13462e-08
2.98286e-08
0
3.04065e-08
0
7.29916e-08
3.26316e-08
3.12174e-08
3.91082e-08
2.04193e-08
3.05231e-08
3.05916e-08
3.03584e-08
3.04207e-08
3.0903e-08
3.10084e-08
3.07209e-08
3.06047e-08
3.07832e-08
4.26698e-05
4.72692e-07
2.82523e-08
3.03756e-08
3.03653e-08
3.04856e-08
3.11742e-08
7.59748e-08
2.85678e-08
7.26408e-08
2.87093e-08
3.04246e-08
3.10371e-08
3.09489e-08
3.20651e-08
0
3.13486e-08
3.06955e-08
3.10672e-08
3.28039e-08
3.27587e-08
3.24084e-08
3.06958e-08
2.96486e-08
2.96658e-08
3.0011e-08
2.92944e-08
2.95028e-08
3.05124e-08
3.11029e-08
7.35081e-08
7.10729e-08
2.81954e-08
2.90071e-08
2.98978e-08
0
7.27984e-08
3.01777e-08
0
3.05684e-08
3.01623e-08
3.03028e-08
3.17134e-08
0
3.08869e-08
0
3.1843e-08
3.20617e-08
3.18627e-08
3.16386e-08
3.17273e-08
3.07443e-08
2.99821e-08
2.94472e-08
7.2631e-08
3.15191e-08
3.16078e-08
3.0844e-08
3.0401e-08
3.08874e-08
0
3.11201e-08
0
3.27613e-08
3.05404e-08
7.55963e-08
0
0
2.92913e-08
7.35833e-08
2.9852e-08
7.3324e-08
2.9534e-08
0
3.02976e-08
4.02036e-06
3.69595e-07
0
0
0
3.04436e-08
7.83013e-08
3.06111e-08
2.86972e-08
7.27932e-08
2.97589e-08
3.00534e-08
3.06661e-08
3.15523e-08
0
3.15837e-08
3.13366e-08
3.10241e-08
3.16321e-08
3.35341e-08
3.37554e-08
3.28798e-08
2.96195e-08
2.90566e-08
0
7.12051e-08
2.89093e-08
2.93335e-08
7.61813e-08
5.39983e-08
4.08165e-08
2.88057e-08
2.85733e-08
2.97273e-08
0
3.04248e-08
2.95658e-08
3.06699e-08
0
3.05305e-08
3.10443e-08
0
3.171e-08
1.29681e-08
7.47204e-09
3.21505e-08
3.19267e-08
3.18289e-08
3.16768e-08
3.19681e-08
3.17623e-08
0
7.48391e-08
2.97866e-08
3.0075e-08
3.07932e-08
3.08835e-08
3.13145e-08
3.09206e-08
3.10078e-08
3.08219e-08
3.00895e-08
3.26655e-08
0
3.18547e-08
3.19578e-08
3.03034e-08
3.00136e-08
0
3.10487e-08
3.00732e-08
3.02026e-08
3.03347e-08
2.98308e-08
7.41068e-08
1.34164e-05
9.34094e-08
2.79533e-08
7.21977e-08
2.87333e-08
0
0
7.51338e-08
2.9194e-08
3.01544e-08
3.03351e-08
7.19389e-08
3.08758e-08
3.19772e-08
0
3.09612e-08
3.12556e-08
3.22276e-08
3.3263e-08
0
3.14246e-08
3.23367e-08
0
3.02231e-08
7.12101e-08
2.93728e-08
2.96194e-08
3.01268e-08
3.0527e-08
3.32326e-08
7.1139e-08
3.02944e-08
2.95466e-08
7.14279e-08
2.90484e-08
3.02792e-08
0
3.04027e-08
3.08311e-08
3.16177e-08
0
3.11133e-08
3.12654e-08
3.1785e-08
0
3.12128e-08
3.15171e-08
3.26398e-08
5.39336e-08
7.455e-09
3.16022e-08
7.46869e-08
3.07805e-08
2.92472e-08
3.07514e-08
3.0687e-08
3.03604e-08
3.09564e-08
3.12902e-08
3.10492e-08
3.08439e-08
3.10645e-08
3.1678e-08