/*--------------------------------*- C++ -*----------------------------------*\
  =========                 |
  \\      /  F ield         | OpenFOAM: The Open Source CFD Toolbox
   \\    /   O peration     | Website:  https://openfoam.org
    \\  /    A nd           | Version:  12
     \\/     M anipulation  |
\*---------------------------------------------------------------------------*/
FoamFile
{
    format      ascii;
    class       volScalarField;
    location    "0.65";
    object      p;
}
// * * * * * * * * * * * * * * * * * * * * * * * * * * * * * * * * * * * * * //

dimensions      [0 2 -2 0 0 0 0];

internalField   nonuniform List<scalar> 
3750
(
1.41167
1.39991
1.39168
1.38212
1.37249
1.36132
1.34505
1.32386
1.32023
1.33655
1.32289
1.30951
1.29465
1.28094
1.27103
1.26263
1.25474
1.24672
1.23825
1.22794
1.22031
1.21554
1.20932
1.20144
1.19266
1.18341
1.17442
1.16564
1.15698
1.14834
1.1399
1.13178
1.12487
1.12251
1.08722
1.08617
1.07962
1.07165
1.06253
1.05087
1.03611
1.02289
1.0113
1.00109
0.991089
0.9814
0.972366
0.964606
0.958236
0.935479
0.928662
0.922156
0.914204
0.906131
0.897791
0.889727
0.881583
0.873502
0.86504
0.855474
0.8443
0.83368
0.820381
0.811074
0.805561
0.803154
0.801948
0.767054
0.762059
0.753067
0.742297
0.731015
0.718648
0.707854
0.699064
1.40972
1.39964
1.39207
1.38275
1.37356
1.36158
1.34104
1.32699
1.34918
1.32613
1.32363
1.31118
1.29276
1.27698
1.26945
1.26225
1.25462
1.24737
1.23955
1.22514
1.21592
1.21769
1.21103
1.20232
1.19289
1.18321
1.1742
1.16596
1.15708
1.14797
1.13925
1.1308
1.12154
1.11312
1.09628
1.08826
1.08068
1.07322
1.06509
1.05413
1.03476
1.02107
1.00997
1.00061
0.990788
0.980738
0.971279
0.962497
0.953582
0.939947
0.930362
0.923115
0.914583
0.906103
0.897508
0.889614
0.881868
0.874034
0.866059
0.857058
0.847243
0.832197
0.816506
0.807463
0.80096
0.802319
0.794948
0.777644
0.76612
0.755052
0.743108
0.732112
0.716995
0.705964
0.696445
1.40934
1.39805
1.39309
1.3838
1.37602
1.36993
1.33919
1.33633
1.34059
1.3307
1.32626
1.32112
1.28953
1.26442
1.26887
1.26216
1.25462
1.24714
1.24442
1.21678
1.21058
1.22495
1.21416
1.20377
1.19339
1.18242
1.17292
1.16778
1.1571
1.14731
1.13854
1.13016
1.12016
1.10997
1.09858
1.08919
1.08154
1.07589
1.07032
1.06552
1.02747
1.01805
1.00826
1.00125
0.990884
0.979522
0.969395
0.959954
0.951082
0.942437
0.933426
0.924848
0.914341
0.905095
0.896684
0.889216
0.882489
0.874725
0.867204
0.860513
0.856498
0.831352
0.806402
0.802025
0.795299
0.807877
0.797519
0.782171
0.768781
0.757576
0.744013
0.730844
0.714875
0.703685
0.693363
1.4086
1.39858
1.39195
1.38375
1.37801
1.36256
1.35072
1.34243
1.33846
1.32953
1.32174
1.31332
1.28497
1.26476
1.27441
1.26101
1.25519
1.24328
1.22807
1.23088
1.21973
1.22063
1.21537
1.20564
1.19434
1.18151
1.16744
1.17015
1.15573
1.14419
1.13936
1.13034
1.11927
1.10847
1.09803
1.08784
1.07939
1.08056
1.07418
1.06933
1.03178
1.0175
1.00806
1.00128
0.992315
0.977168
0.967017
0.95691
0.946817
0.94532
0.936693
0.925597
0.914917
0.902367
0.893891
0.890271
0.88375
0.874977
0.866286
0.859206
0.845067
0.831992
0.817095
0.809239
0.804224
0.803156
0.795814
0.784854
0.768667
0.758863
0.739085
0.729568
0.713635
0.701923
0.698489
1.40648
1.3971
1.39067
1.38208
1.37348
1.36322
1.35736
1.34713
1.33725
1.32638
1.31714
1.30728
1.2908
1.27248
1.26585
1.25468
1.25942
1.24058
1.2257
1.22669
1.21989
1.21931
1.21963
1.20909
1.19694
1.18573
1.17984
1.15543
1.14837
1.13392
1.14284
1.13035
1.11842
1.10712
1.09646
1.08592
1.07325
1.08463
1.07623
1.0616
1.04002
1.02417
1.01068
1.00359
1.00005
0.97006
0.964837
0.95456
0.940988
0.952476
0.941615
0.925539
0.917481
0.897144
0.885668
0.896028
0.884844
0.874582
0.865715
0.856679
0.843264
0.832421
0.82109
0.814856
0.808039
0.801648
0.796475
0.793156
0.762708
0.756879
0.737932
0.728455
0.714338
0.698854
0.707228
1.40306
1.39458
1.39051
1.3808
1.36986
1.35837
1.36232
1.34658
1.33607
1.32192
1.3136
1.306
1.30067
1.2695
1.26673
1.25886
1.24954
1.23169
1.21721
1.23756
1.20755
1.21748
1.22749
1.21228
1.19813
1.18634
1.17559
1.16066
1.15156
1.13692
1.13453
1.12586
1.11656
1.10516
1.09442
1.0846
1.08328
1.08206
1.07307
1.06041
1.04087
1.02417
1.01307
1.00342
0.993173
0.978308
0.967673
0.957553
0.949129
0.948969
0.945527
0.917861
0.915257
0.898023
0.889905
0.889849
0.882065
0.873194
0.863962
0.854204
0.842856
0.833871
0.82426
0.816272
0.80785
0.801947
0.795987
0.786152
0.771605
0.766063
0.734182
0.728625
0.719119
0.704478
0.700592
1.39943
1.38943
1.39558
1.38037
1.37163
1.37633
1.35978
1.33818
1.33911
1.31174
1.30932
1.30248
1.29374
1.28304
1.27561
1.25748
1.24485
1.22987
1.21754
1.23524
1.22337
1.21858
1.21706
1.21059
1.19801
1.18623
1.17385
1.16227
1.15264
1.14099
1.13151
1.12186
1.11389
1.10177
1.09375
1.08258
1.09302
1.08183
1.07203
1.06606
1.03504
1.0201
1.01378
1.00321
0.991863
0.981732
0.970191
0.959375
0.949432
0.941889
0.931631
0.925685
0.927557
0.894836
0.890378
0.885583
0.879773
0.871899
0.862642
0.852575
0.842895
0.835596
0.826199
0.818102
0.809582
0.80236
0.794142
0.783844
0.77193
0.760631
0.744303
0.73485
0.729782
0.700933
0.697797
1.39668
1.38569
1.40741
1.37115
1.36219
1.37571
1.36169
1.35248
1.32422
1.31629
1.30945
1.30168
1.29376
1.28621
1.27694
1.25849
1.24758
1.23685
1.23015
1.22964
1.22677
1.21802
1.21354
1.20924
1.1971
1.18618
1.17083
1.16133
1.15234
1.14138
1.12917
1.11739
1.10296
1.09169
1.09961
1.08981
1.08728
1.07752
1.06778
1.05701
1.04036
1.02481
1.01466
1.004
0.993035
0.982799
0.971844
0.960663
0.949306
0.937889
0.919734
0.924955
0.928967
0.904265
0.890346
0.881276
0.880736
0.871696
0.861921
0.851958
0.842953
0.834423
0.826549
0.820345
0.810643
0.803529
0.79464
0.783778
0.771604
0.759721
0.747524
0.73726
0.723548
0.709117
0.699528
1.40115
1.39162
1.39042
1.37712
1.36775
1.3667
1.35705
1.34505
1.32927
1.31976
1.31057
1.30067
1.2933
1.28566
1.27559
1.26312
1.25346
1.24266
1.23659
1.23025
1.22546
1.21839
1.21495
1.21604
1.19567
1.19046
1.16114
1.15865
1.15237
1.14325
1.12691
1.11737
1.1026
1.09704
1.09565
1.08957
1.08271
1.07403
1.06409
1.05272
1.03927
1.02616
1.01579
1.00509
0.994403
0.98388
0.973074
0.962217
0.951145
0.939122
0.926521
0.924518
0.915415
0.902746
0.887949
0.873005
0.883285
0.871908
0.861037
0.850606
0.842737
0.833199
0.823954
0.818637
0.812417
0.80712
0.797189
0.784089
0.771011
0.759552
0.7488
0.740042
0.720725
0.712218
0.699467
1.40654
1.39125
1.38595
1.37902
1.371
1.36191
1.35425
1.34119
1.32824
1.32397
1.31237
1.29721
1.29369
1.28581
1.27619
1.26552
1.25719
1.25026
1.2434
1.2291
1.22279
1.21557
1.21237
1.20308
1.17955
1.17655
1.16606
1.15956
1.15267
1.14375
1.12963
1.12265
1.10443
1.09907
1.09367
1.08789
1.08032
1.07207
1.0617
1.05043
1.03763
1.02563
1.01674
1.00575
0.995349
0.985283
0.97526
0.964346
0.954887
0.941327
0.927454
0.92064
0.909642
0.899599
0.887058
0.874542
0.871099
0.870246
0.860015
0.849331
0.841507
0.831734
0.818987
0.809245
0.825807
0.814735
0.802408
0.784936
0.768549
0.758529
0.749264
0.739801
0.725185
0.715496
0.695364
1.41744
1.38051
1.3869
1.382
1.37193
1.36057
1.35223
1.33776
1.32038
1.33009
1.31764
1.28228
1.29501
1.28554
1.27948
1.26886
1.25543
1.26523
1.25377
1.22037
1.21797
1.2123
1.2133
1.20322
1.18479
1.17037
1.16893
1.16171
1.15282
1.14341
1.13282
1.12359
1.11002
1.10138
1.09379
1.08683
1.07919
1.07297
1.06027
1.04962
1.03597
1.02457
1.01573
1.00579
0.996096
0.986714
0.977404
0.965127
0.962433
0.944256
0.920863
0.918142
0.909558
0.899266
0.887199
0.873729
0.859202
0.868477
0.856695
0.850023
0.836851
0.831703
0.818175
0.810539
0.828134
0.818723
0.812698
0.785113
0.75952
0.756512
0.749132
0.739858
0.728151
0.712465
0.695935
1.39607
1.3757
1.39848
1.38729
1.37266
1.36107
1.35225
1.34616
1.31717
1.31614
1.30425
1.29659
1.29225
1.27665
1.28377
1.27019
1.26732
1.27044
1.23735
1.22536
1.21644
1.20546
1.21681
1.20796
1.18947
1.15494
1.17213
1.16457
1.15359
1.14417
1.1341
1.12384
1.11225
1.10199
1.09348
1.08699
1.08081
1.07449
1.06165
1.04771
1.03212
1.02332
1.01516
1.0053
0.996151
0.987095
0.979406
0.961069
0.948709
0.950705
0.932917
0.921544
0.911364
0.901118
0.888649
0.875325
0.863244
0.85813
0.845579
0.850972
0.83089
0.837255
0.824017
0.817542
0.819761
0.814095
0.8038
0.783617
0.767819
0.759007
0.750517
0.74225
0.737083
0.705468
0.698222
1.3947
1.38021
1.39894
1.3871
1.37198
1.35987
1.34903
1.3376
1.32006
1.31355
1.29662
1.30618
1.29275
1.28075
1.2757
1.26214
1.27342
1.26171
1.2401
1.2282
1.21836
1.21262
1.21211
1.2022
1.1852
1.16929
1.16826
1.16115
1.15309
1.14483
1.13508
1.1247
1.11339
1.10132
1.09131
1.08629
1.0824
1.07697
1.06295
1.04806
1.02735
1.02345
1.01615
1.00421
0.996429
0.988191
0.977496
0.963419
0.95568
0.944466
0.935774
0.925352
0.912616
0.904271
0.891079
0.876056
0.862402
0.854592
0.847385
0.845749
0.830315
0.829707
0.82197
0.815547
0.818793
0.811676
0.803001
0.779799
0.769585
0.760996
0.75193
0.741936
0.731038
0.714191
0.702067
1.40731
1.39679
1.38965
1.3795
1.3682
1.3572
1.34655
1.33505
1.32154
1.31285
1.30214
1.30067
1.29228
1.28366
1.27298
1.26143
1.26834
1.25992
1.23858
1.22929
1.22172
1.21698
1.2089
1.19917
1.18643
1.17364
1.1646
1.1564
1.15463
1.1478
1.13689
1.12636
1.11525
1.0985
1.08385
1.08429
1.08779
1.0755
1.06326
1.05576
1.0234
1.02375
1.01882
1.00423
0.998097
0.989334
0.976676
0.965924
0.956933
0.944562
0.936398
0.929102
0.91145
0.908834
0.897908
0.872722
0.856763
0.853063
0.846558
0.839778
0.832531
0.82564
0.817493
0.807622
0.821296
0.811595
0.801876
0.777603
0.768657
0.765158
0.754321
0.742618
0.730915
0.718122
0.701287
1.42387
1.41759
1.38242
1.3724
1.36408
1.35457
1.34491
1.33432
1.32238
1.31365
1.30624
1.29977
1.29188
1.28882
1.27798
1.24908
1.26701
1.25542
1.24088
1.22579
1.22297
1.22231
1.21035
1.19892
1.18687
1.17464
1.1619
1.1496
1.15909
1.14897
1.13777
1.12908
1.1232
1.09591
1.06514
1.07936
1.10032
1.06506
1.05806
1.04923
1.036
1.02834
1.0206
1.00782
0.998716
0.989847
0.975453
0.966977
0.956332
0.945483
0.936511
0.928442
0.912472
0.904239
0.893951
0.886314
0.856324
0.853879
0.845714
0.838008
0.830284
0.822324
0.816292
0.813897
0.815728
0.809632
0.797971
0.779797
0.764218
0.771805
0.756699
0.741947
0.731165
0.72437
0.693024
1.43248
1.42044
1.39325
1.3649
1.36023
1.35193
1.34364
1.3351
1.32311
1.31497
1.30791
1.30081
1.29293
1.28467
1.27204
1.26099
1.2627
1.25138
1.23872
1.21666
1.22448
1.2319
1.21069
1.19956
1.18765
1.17504
1.16382
1.15466
1.15088
1.14402
1.13689
1.13388
1.10637
1.0974
1.08851
1.06843
1.07759
1.06559
1.05569
1.04628
1.04191
1.03273
1.02202
1.00922
0.999614
0.987761
0.97776
0.970558
0.955859
0.944712
0.935261
0.92633
0.910058
0.90051
0.892234
0.883155
0.867789
0.858674
0.847238
0.836916
0.826193
0.818022
0.811133
0.815361
0.81762
0.809916
0.797534
0.783675
0.770941
0.766074
0.755157
0.738899
0.727986
0.715607
0.695195
1.42936
1.42483
1.38559
1.38316
1.35569
1.34899
1.34318
1.3374
1.32314
1.31697
1.30958
1.30217
1.29396
1.28491
1.27157
1.26337
1.25764
1.25073
1.24059
1.22829
1.2257
1.22265
1.21127
1.20015
1.18962
1.17428
1.16475
1.15756
1.14587
1.13903
1.13157
1.12253
1.11099
1.10074
1.08795
1.07049
1.07162
1.06372
1.05401
1.041
1.04855
1.03467
1.02393
1.00687
1.00035
0.982555
0.984853
0.982113
0.951842
0.941746
0.933241
0.921092
0.905143
0.895375
0.893851
0.886469
0.87645
0.862383
0.847168
0.836274
0.819832
0.815734
0.803286
0.816395
0.8276
0.812625
0.798537
0.787167
0.777516
0.763936
0.754902
0.734088
0.726441
0.714927
0.698179
1.409
1.38847
1.41116
1.39303
1.36777
1.35047
1.34413
1.33693
1.32627
1.31878
1.31157
1.30407
1.29512
1.28631
1.26693
1.26143
1.25881
1.25314
1.24358
1.23393
1.22652
1.21955
1.21025
1.19991
1.19679
1.16853
1.16425
1.16322
1.13653
1.13462
1.12788
1.11802
1.10956
1.10572
1.07829
1.07147
1.06972
1.06505
1.05848
1.05098
1.04236
1.03188
1.02097
1.00795
0.995806
0.978856
0.990943
0.979522
0.967767
0.93725
0.933019
0.91843
0.900028
0.885943
0.89733
0.892077
0.886868
0.871444
0.842793
0.840729
0.840886
0.825084
0.8157
0.817261
0.82071
0.812205
0.797166
0.789116
0.785949
0.757243
0.754785
0.735273
0.724542
0.717597
0.700702
1.40752
1.39602
1.40261
1.39152
1.3722
1.35552
1.34588
1.33686
1.32731
1.32028
1.31382
1.30727
1.29591
1.28612
1.26581
1.25451
1.26538
1.25742
1.24601
1.2351
1.2262
1.21803
1.21129
1.19563
1.18827
1.17697
1.16489
1.1539
1.14227
1.13507
1.12706
1.11287
1.10351
1.09362
1.07834
1.07194
1.07454
1.07203
1.06618
1.06334
1.03421
1.02868
1.01918
1.00816
0.997092
0.986386
0.984682
0.974568
0.96192
0.945607
0.937122
0.918604
0.898865
0.891167
0.886105
0.899102
0.884499
0.867777
0.851983
0.843773
0.837191
0.828491
0.822228
0.817477
0.816657
0.816243
0.788745
0.786506
0.77979
0.766817
0.76442
0.72823
0.724398
0.72582
0.700701
1.40957
1.39953
1.39937
1.38355
1.37218
1.35825
1.34696
1.33634
1.3269
1.3214
1.31607
1.31535
1.29046
1.28182
1.27456
1.26303
1.26274
1.25681
1.24724
1.23446
1.22542
1.21648
1.20775
1.19501
1.18361
1.17461
1.17547
1.1454
1.14213
1.13647
1.13285
1.1031
1.09764
1.08668
1.07182
1.06079
1.08381
1.08217
1.0711
1.06
1.04357
1.02921
1.019
1.00855
0.998366
0.988814
0.980807
0.971375
0.959724
0.947075
0.935942
0.920664
0.906079
0.896996
0.890482
0.892197
0.884559
0.866897
0.854753
0.844375
0.835521
0.829587
0.824288
0.817371
0.813431
0.807694
0.795357
0.788152
0.779433
0.769317
0.765147
0.729644
0.719427
0.716342
0.71721
1.41284
1.40228
1.39541
1.38434
1.36935
1.35841
1.34784
1.3365
1.32587
1.31752
1.31124
1.30993
1.29629
1.28854
1.28942
1.26318
1.2624
1.25747
1.25076
1.2344
1.22538
1.21465
1.20496
1.19391
1.17759
1.16448
1.17368
1.15464
1.14205
1.13406
1.12422
1.10906
1.09741
1.08355
1.06728
1.0597
1.08497
1.09306
1.07464
1.0582
1.04725
1.02776
1.01902
1.00887
0.998466
0.989432
0.980308
0.970468
0.95858
0.945822
0.934495
0.921973
0.910862
0.90049
0.892923
0.890449
0.890063
0.860459
0.854803
0.840191
0.836799
0.830936
0.824524
0.817099
0.812568
0.807389
0.796831
0.790691
0.781066
0.765772
0.756026
0.746376
0.713256
0.705763
0.71577
1.41596
1.40245
1.39366
1.38547
1.36731
1.35858
1.34802
1.33568
1.32436
1.31196
1.30002
1.30869
1.29312
1.29201
1.29135
1.27727
1.26838
1.26031
1.25146
1.23733
1.22458
1.21206
1.20238
1.19785
1.17244
1.16925
1.16661
1.15391
1.14172
1.13081
1.11931
1.11313
1.0998
1.08313
1.06353
1.07424
1.09169
1.0795
1.07178
1.05687
1.04632
1.02939
1.01895
1.00941
0.99747
0.989349
0.980932
0.971667
0.958303
0.943134
0.933279
0.923649
0.915031
0.901948
0.88989
0.888129
0.885351
0.869188
0.861423
0.826187
0.841067
0.832523
0.82172
0.812704
0.81544
0.808206
0.79875
0.791714
0.788096
0.757723
0.751573
0.740607
0.724019
0.71337
0.709112
1.42048
1.40025
1.39156
1.38126
1.36996
1.36054
1.35019
1.33353
1.32343
1.30922
1.30145
1.29701
1.28403
1.29344
1.30247
1.2852
1.27331
1.26362
1.25366
1.24102
1.22431
1.20738
1.19575
1.18243
1.18632
1.17476
1.16365
1.1517
1.1398
1.12779
1.11282
1.12047
1.10488
1.08802
1.07803
1.08013
1.08067
1.06989
1.05684
1.06171
1.04431
1.0294
1.01857
1.01145
0.997153
0.990017
0.98173
0.974321
0.963035
0.935158
0.932629
0.926931
0.919273
0.902411
0.881746
0.886905
0.891525
0.869011
0.856169
0.839915
0.837644
0.829243
0.818296
0.807721
0.821177
0.809743
0.798568
0.789567
0.780499
0.76498
0.752278
0.741419
0.728831
0.718084
0.70902
1.35214
1.38855
1.38984
1.38117
1.37101
1.36266
1.35885
1.3249
1.32679
1.30105
1.30136
1.29805
1.29421
1.29508
1.29458
1.28599
1.27616
1.26708
1.25848
1.24925
1.22358
1.19807
1.1946
1.18706
1.18391
1.17434
1.16202
1.14983
1.13745
1.1267
1.1233
1.11989
1.10774
1.09202
1.08435
1.08064
1.07547
1.06736
1.05828
1.05364
1.03917
1.02604
1.01448
1.00545
1.00124
0.992222
0.981422
0.969238
0.955581
0.939356
0.936223
0.929777
0.932778
0.904865
0.891524
0.886389
0.881025
0.863369
0.855016
0.84398
0.835419
0.827171
0.819357
0.814786
0.816154
0.807457
0.796093
0.78567
0.779791
0.76813
0.750951
0.744443
0.732537
0.720848
0.710292
1.36442
1.37574
1.38948
1.38421
1.36942
1.36095
1.35653
1.32105
1.31727
1.30708
1.30458
1.30434
1.3026
1.2986
1.28864
1.28751
1.27823
1.27016
1.26453
1.23305
1.22372
1.20741
1.19752
1.18955
1.18184
1.17366
1.16118
1.14942
1.13602
1.12288
1.13482
1.11765
1.10863
1.09339
1.08702
1.08041
1.07371
1.06615
1.05985
1.05182
1.03475
1.02197
1.00859
0.995707
1.0069
0.995663
0.981778
0.967376
0.951981
0.936991
0.942132
0.928893
0.933427
0.912713
0.896927
0.885966
0.87493
0.861799
0.854555
0.844154
0.834058
0.824518
0.817346
0.819762
0.81551
0.806647
0.794327
0.778187
0.785712
0.766362
0.747617
0.754734
0.735667
0.721788
0.708715
1.36046
1.36335
1.39488
1.39368
1.36098
1.35493
1.34464
1.3263
1.31403
1.30438
1.30612
1.31226
1.31308
1.29867
1.28711
1.28979
1.28161
1.27152
1.25587
1.23945
1.22652
1.20941
1.19983
1.19245
1.1849
1.17393
1.15888
1.14948
1.13768
1.13024
1.13545
1.10894
1.10675
1.09594
1.08724
1.08021
1.07296
1.06353
1.05678
1.04871
1.03767
1.01998
1.01036
0.996413
1.00151
0.995023
0.982748
0.965165
0.953307
0.944542
0.941215
0.934783
0.92422
0.910464
0.896659
0.885667
0.87488
0.864023
0.854273
0.84378
0.832935
0.82043
0.811079
0.826954
0.819316
0.808458
0.796756
0.785787
0.786629
0.756026
0.75468
0.758781
0.728892
0.719419
0.7048
1.41023
1.38288
1.38682
1.38153
1.3668
1.35334
1.34095
1.32581
1.30908
1.29109
1.30667
1.32486
1.3367
1.2948
1.28217
1.29411
1.2858
1.27904
1.24789
1.24285
1.23318
1.20334
1.20018
1.1942
1.18976
1.18204
1.15136
1.14979
1.13561
1.12995
1.12465
1.11481
1.10838
1.09924
1.08711
1.07888
1.07267
1.05923
1.05425
1.04642
1.03714
1.02516
1.01954
0.985804
1.00207
0.994983
0.989192
0.958739
0.954305
0.946892
0.941929
0.94167
0.912421
0.903409
0.894073
0.885178
0.87543
0.865272
0.854699
0.843846
0.83323
0.823001
0.815516
0.817103
0.818966
0.811166
0.798209
0.785814
0.776086
0.762317
0.755501
0.748064
0.73341
0.719945
0.706042
1.39972
1.386
1.38412
1.37824
1.36904
1.35096
1.33963
1.32683
1.311
1.29347
1.31155
1.33334
1.32482
1.30249
1.29145
1.28837
1.2802
1.26958
1.25531
1.25068
1.2205
1.21061
1.20326
1.19557
1.1878
1.17711
1.16268
1.15118
1.1357
1.12642
1.12
1.11851
1.11046
1.10163
1.08591
1.07707
1.06692
1.0576
1.05384
1.04512
1.03505
1.02627
1.01901
1.00073
0.995163
0.989536
0.980286
0.966701
0.958624
0.945605
0.938618
0.93173
0.916626
0.903952
0.894851
0.885661
0.876364
0.866811
0.855536
0.843579
0.833495
0.824561
0.81611
0.80692
0.820207
0.810514
0.799202
0.785854
0.774298
0.7634
0.754214
0.744166
0.732208
0.719293
0.707399
1.38991
1.38385
1.38417
1.38057
1.37931
1.345
1.34013
1.33096
1.32028
1.31291
1.31631
1.32145
1.31611
1.29949
1.29328
1.28552
1.2728
1.26394
1.25359
1.24334
1.22742
1.21554
1.20559
1.19655
1.18734
1.17707
1.16704
1.15273
1.13693
1.12368
1.11213
1.12414
1.11382
1.10144
1.08719
1.07669
1.06465
1.05008
1.05641
1.04286
1.03085
1.02774
1.02171
1.0156
0.98872
0.987239
0.975652
0.969183
0.967472
0.938348
0.93535
0.928425
0.917605
0.906602
0.896443
0.886213
0.878084
0.870744
0.856664
0.84179
0.832979
0.825458
0.81838
0.812252
0.812446
0.804908
0.795649
0.790546
0.773657
0.762015
0.752402
0.742103
0.730701
0.718463
0.707851
1.38215
1.38522
1.38556
1.38281
1.37732
1.3577
1.34626
1.33657
1.32754
1.32116
1.31883
1.31831
1.31861
1.29075
1.29009
1.28951
1.26217
1.25955
1.25157
1.24185
1.23013
1.2186
1.207
1.19735
1.18773
1.17702
1.16743
1.15248
1.14033
1.12923
1.12027
1.11778
1.11166
1.1006
1.08826
1.07743
1.06555
1.05769
1.04931
1.03406
1.01875
1.02753
1.017
1.01208
0.998229
0.994058
0.965829
0.966558
0.963214
0.945076
0.936222
0.928509
0.918757
0.908718
0.898113
0.884783
0.878836
0.881002
0.858435
0.835264
0.830915
0.825749
0.819975
0.813826
0.808352
0.800902
0.790577
0.805782
0.765765
0.759051
0.751671
0.741653
0.731122
0.720297
0.708633
1.43836
1.40364
1.38639
1.39314
1.37919
1.36393
1.35159
1.34113
1.33217
1.32498
1.31955
1.31465
1.30847
1.29461
1.28669
1.27959
1.26692
1.25997
1.25132
1.24228
1.23263
1.2217
1.20647
1.19822
1.1892
1.17523
1.17137
1.14745
1.14317
1.13376
1.12427
1.11577
1.10829
1.09879
1.08896
1.07964
1.06686
1.06073
1.05433
1.02467
1.02019
1.01702
1.00472
1.01331
0.998255
0.984179
0.967002
0.966984
0.973754
0.94293
0.936974
0.929986
0.919938
0.911697
0.903265
0.876493
0.875534
0.872035
0.860919
0.853259
0.827055
0.82568
0.821855
0.81456
0.80889
0.801659
0.796131
0.798967
0.763519
0.757752
0.751453
0.742173
0.732422
0.72352
0.717841
1.43592
1.41319
1.39904
1.39159
1.38002
1.36704
1.35552
1.34416
1.33508
1.32714
1.31974
1.31289
1.30594
1.29298
1.2811
1.27669
1.26765
1.26044
1.25154
1.24332
1.2364
1.22941
1.20086
1.19993
1.19619
1.16436
1.15609
1.16354
1.15036
1.13811
1.12723
1.11599
1.10658
1.09754
1.08851
1.0808
1.06505
1.05894
1.04849
1.03222
1.02295
1.01358
1.00523
1.00378
0.993395
0.978328
0.957052
0.961227
0.977802
0.956087
0.941188
0.931787
0.918364
0.914819
0.885822
0.880378
0.876303
0.869912
0.860265
0.849522
0.836423
0.828074
0.822668
0.815813
0.811311
0.80231
0.794734
0.78713
0.771285
0.760782
0.752126
0.742552
0.732874
0.723224
0.712813
1.42828
1.41555
1.40296
1.39139
1.38026
1.36899
1.35931
1.34511
1.33685
1.32974
1.31802
1.31145
1.3095
1.29721
1.26523
1.27851
1.26916
1.25935
1.25052
1.24304
1.23755
1.22361
1.21245
1.2033
1.18872
1.16909
1.16568
1.16366
1.15266
1.14158
1.13042
1.11475
1.10526
1.09607
1.08777
1.07856
1.06562
1.05873
1.04921
1.03279
1.02415
1.01271
1.00516
0.999186
0.990587
0.980353
0.97013
0.946345
0.970153
0.957985
0.941315
0.936898
0.907729
0.903208
0.888584
0.879438
0.879044
0.871405
0.86064
0.84966
0.840597
0.830287
0.818615
0.827457
0.817265
0.801576
0.791989
0.785159
0.773478
0.76288
0.752947
0.743023
0.733321
0.723613
0.713386
1.42607
1.41527
1.40399
1.39199
1.38035
1.36965
1.36263
1.34649
1.33738
1.33196
1.31663
1.31164
1.30521
1.29199
1.27708
1.27325
1.26565
1.25719
1.24847
1.24106
1.23684
1.22846
1.22076
1.20878
1.18834
1.16675
1.17514
1.164
1.15383
1.1448
1.138
1.10736
1.10312
1.09527
1.08751
1.0772
1.06716
1.05955
1.05571
1.02586
1.02332
1.00834
1.00369
0.998451
0.98817
0.980271
0.965504
0.957905
0.95891
0.95826
0.929709
0.926418
0.912918
0.901325
0.88797
0.873665
0.884304
0.874124
0.86169
0.850799
0.841191
0.832329
0.827485
0.824872
0.826351
0.79672
0.790655
0.783463
0.774432
0.764405
0.753618
0.743394
0.734501
0.724646
0.71418
1.42668
1.41617
1.40533
1.39275
1.37963
1.36719
1.3573
1.35428
1.33927
1.33146
1.31931
1.31124
1.30273
1.29283
1.28419
1.26977
1.26368
1.25492
1.24484
1.23531
1.23451
1.23427
1.23296
1.21992
1.19304
1.17199
1.17054
1.16136
1.15287
1.14778
1.1283
1.11365
1.10522
1.09714
1.085
1.07545
1.06626
1.05739
1.04758
1.03251
1.02237
1.01043
1.00346
0.998016
0.985204
0.977828
0.967681
0.960097
0.95318
0.945096
0.932623
0.925273
0.915576
0.901209
0.890255
0.881466
0.879446
0.871302
0.860918
0.85089
0.841743
0.832388
0.825649
0.82572
0.820919
0.806317
0.792763
0.785368
0.776615
0.766633
0.75322
0.743072
0.735792
0.726056
0.715446
1.43083
1.41762
1.40813
1.39415
1.37832
1.36252
1.34952
1.35801
1.3435
1.32984
1.32078
1.31109
1.3019
1.29327
1.28491
1.27249
1.26323
1.25401
1.24237
1.22789
1.23315
1.24151
1.24809
1.22487
1.19853
1.18319
1.16479
1.15816
1.1467
1.15958
1.11382
1.11443
1.10626
1.09794
1.08047
1.07387
1.065
1.05448
1.04468
1.03405
1.0205
1.01124
1.00526
1.00403
0.976747
0.974469
0.96854
0.96126
0.94903
0.936359
0.930175
0.925056
0.917796
0.900617
0.89386
0.885277
0.876538
0.868678
0.859868
0.850806
0.841778
0.831945
0.820211
0.830215
0.819092
0.810722
0.799145
0.788546
0.779093
0.768625
0.754417
0.74487
0.737141
0.724573
0.716802
1.43336
1.42286
1.4099
1.39505
1.37596
1.36323
1.35471
1.35064
1.34032
1.32848
1.31894
1.30977
1.30117
1.2932
1.28469
1.27378
1.26302
1.25283
1.24796
1.24056
1.23835
1.23982
1.23859
1.22274
1.20652
1.18646
1.16856
1.16021
1.15348
1.1516
1.10365
1.11786
1.1072
1.09334
1.08118
1.07379
1.06559
1.05189
1.04232
1.03378
1.01713
1.01
1.00262
0.995192
0.98288
0.975862
0.970881
0.967788
0.946087
0.924672
0.927066
0.924153
0.917082
0.904933
0.896815
0.888721
0.874619
0.866276
0.85896
0.850397
0.84263
0.835066
0.828539
0.824283
0.808078
0.818268
0.803293
0.790653
0.779317
0.76916
0.75589
0.74607
0.73815
0.722862
0.716365
1.4354
1.42745
1.40975
1.39255
1.37788
1.36696
1.35786
1.34512
1.33598
1.32582
1.31601
1.30695
1.30064
1.29462
1.28579
1.27496
1.26345
1.24971
1.2604
1.24877
1.24219
1.23754
1.22969
1.21866
1.20826
1.19941
1.16658
1.16275
1.1589
1.14682
1.10681
1.10933
1.10605
1.08971
1.08251
1.07378
1.06714
1.04986
1.04161
1.02921
1.01514
1.00755
1.0001
0.992425
0.982948
0.975259
0.969322
0.954797
0.942884
0.929542
0.929111
0.926749
0.918125
0.908483
0.900928
0.897402
0.86761
0.861962
0.861065
0.848873
0.843035
0.83913
0.83508
0.833106
0.80351
0.80953
0.801791
0.791499
0.778455
0.768951
0.757747
0.748663
0.735188
0.723252
0.715899
1.4381
1.42775
1.41233
1.38839
1.379
1.36979
1.36493
1.33641
1.33259
1.32319
1.3121
1.30109
1.29977
1.29965
1.28917
1.27714
1.26614
1.2579
1.25795
1.25046
1.24463
1.23815
1.22405
1.2143
1.20513
1.19278
1.1752
1.16543
1.1573
1.13928
1.11614
1.1068
1.10117
1.09247
1.08416
1.0745
1.06747
1.05306
1.04121
1.02335
1.0109
1.0075
0.998293
0.990391
0.98114
0.973653
0.967387
0.95409
0.93653
0.925074
0.938159
0.929424
0.919422
0.909934
0.900871
0.89081
0.875742
0.857759
0.872398
0.838587
0.841838
0.844271
0.838426
0.830588
0.813108
0.807098
0.800217
0.794065
0.778434
0.770661
0.757949
0.754788
0.72621
0.722943
0.717029
1.43976
1.42407
1.40921
1.39146
1.37961
1.36874
1.35387
1.34359
1.33513
1.32321
1.30852
1.28901
1.29679
1.31104
1.29337
1.27787
1.26633
1.26429
1.25671
1.24867
1.2494
1.24586
1.21467
1.21034
1.20174
1.18994
1.17653
1.16529
1.15623
1.13615
1.11946
1.10717
1.09835
1.09465
1.08713
1.07614
1.06616
1.05469
1.04197
1.01896
1.00227
1.01081
0.99821
0.985965
0.9763
0.972774
0.967113
0.959028
0.927025
0.932591
0.935141
0.927786
0.91965
0.911522
0.901691
0.890623
0.877358
0.863651
0.857508
0.835453
0.843482
0.853483
0.841465
0.832094
0.813524
0.806682
0.799036
0.79058
0.781239
0.777225
0.748106
0.744339
0.732354
0.725661
0.718455
1.43832
1.42166
1.40546
1.39024
1.37932
1.37222
1.34117
1.35207
1.33766
1.32522
1.3117
1.29803
1.28833
1.30572
1.29229
1.27658
1.26129
1.27138
1.25649
1.24195
1.25174
1.24033
1.22148
1.21072
1.20018
1.18871
1.17552
1.16307
1.15166
1.1356
1.12182
1.10723
1.09284
1.10219
1.08985
1.07737
1.06677
1.05528
1.04309
1.02131
1.00904
1.00515
0.993753
0.979222
0.965809
0.974318
0.963028
0.94873
0.928776
0.939705
0.933194
0.927385
0.921217
0.914591
0.903733
0.892156
0.88026
0.867536
0.856657
0.846135
0.844273
0.843836
0.838094
0.829281
0.815844
0.806995
0.797789
0.788124
0.778019
0.767892
0.753707
0.742592
0.732073
0.729027
0.720694
1.43008
1.42576
1.39701
1.38494
1.37523
1.36768
1.3565
1.35095
1.33816
1.32592
1.31667
1.31276
1.2871
1.29232
1.28702
1.27657
1.26774
1.2643
1.25497
1.24727
1.24398
1.23589
1.22275
1.21065
1.20018
1.18944
1.17349
1.15879
1.14852
1.13676
1.1249
1.11108
1.10042
1.09712
1.0873
1.07716
1.06733
1.05327
1.04761
1.01603
1.01212
1.00502
0.990516
0.97493
0.96701
0.965478
0.958366
0.947164
0.934254
0.929899
0.926996
0.929816
0.927891
0.918051
0.905817
0.894192
0.883674
0.869431
0.859581
0.851476
0.84437
0.837445
0.830721
0.828383
0.817398
0.807271
0.796862
0.786188
0.774965
0.763233
0.757977
0.742474
0.728683
0.73773
0.724607
1.42308
1.41333
1.40011
1.38719
1.37712
1.36813
1.35874
1.34911
1.33877
1.32833
1.31881
1.30928
1.29569
1.29034
1.28425
1.27599
1.26889
1.26416
1.25394
1.24801
1.24102
1.23369
1.2231
1.20953
1.20013
1.1954
1.16973
1.15091
1.14811
1.14028
1.12944
1.11251
1.10319
1.09463
1.08463
1.07633
1.07218
1.0419
1.03657
1.0237
1.01643
1.01406
0.989003
0.96447
0.963774
0.95775
0.957791
0.947984
0.934652
0.917809
0.923657
0.931576
0.938057
0.920312
0.907206
0.896265
0.887296
0.870796
0.862551
0.85318
0.844539
0.832816
0.820942
0.831026
0.818005
0.807985
0.796537
0.785987
0.774782
0.753048
0.761361
0.749949
0.7363
0.7333
0.723407
1.42048
1.40819
1.39805
1.38764
1.37833
1.36935
1.36036
1.35059
1.34043
1.33081
1.32106
1.31038
1.29503
1.29174
1.28379
1.27421
1.26695
1.26757
1.24825
1.24845
1.24124
1.23199
1.22413
1.20656
1.19604
1.18224
1.16147
1.16257
1.14963
1.14589
1.1396
1.10728
1.10411
1.09541
1.08043
1.07158
1.06203
1.04587
1.03446
1.02535
1.01592
1.00506
0.98701
0.970053
0.960789
0.95359
0.965549
0.951477
0.93862
0.928761
0.927353
0.928349
0.927646
0.917083
0.906232
0.896464
0.887456
0.874901
0.865851
0.853203
0.84507
0.834263
0.824311
0.823775
0.815723
0.806277
0.795011
0.785903
0.786381
0.75185
0.748622
0.756912
0.738798
0.730808
0.722483
1.42069
1.40617
1.39616
1.38709
1.37855
1.37069
1.36253
1.35272
1.34251
1.33345
1.32427
1.31754
1.28273
1.29624
1.2844
1.26989
1.25725
1.25296
1.26645
1.25496
1.24228
1.23141
1.22096
1.20657
1.19487
1.18037
1.16591
1.15559
1.14232
1.15017
1.13488
1.11608
1.10633
1.10107
1.07034
1.0679
1.05815
1.04585
1.03429
1.02432
1.01589
1.00432
0.983819
0.96889
0.955534
0.965991
0.960612
0.950313
0.941421
0.935423
0.930505
0.925997
0.920812
0.912742
0.904059
0.895802
0.886581
0.877845
0.871068
0.853014
0.845319
0.835667
0.826784
0.820781
0.814609
0.805721
0.793725
0.780026
0.789132
0.763606
0.752034
0.747154
0.737546
0.728959
0.721435
1.42237
1.40248
1.39258
1.38606
1.37787
1.37352
1.36561
1.35502
1.34441
1.33612
1.32518
1.31374
1.29765
1.29602
1.28469
1.26479
1.247
1.25753
1.27134
1.25503
1.24162
1.23066
1.21999
1.20874
1.19724
1.17967
1.168
1.155
1.14535
1.14207
1.13022
1.11537
1.10365
1.09277
1.07663
1.06685
1.05626
1.04525
1.03405
1.02363
1.01616
1.01092
0.975671
0.970078
0.963517
0.963863
0.956827
0.947823
0.939959
0.939962
0.932553
0.924327
0.917661
0.909448
0.901119
0.892493
0.884105
0.881358
0.872242
0.857229
0.846132
0.836325
0.826794
0.819145
0.816542
0.808319
0.79742
0.788261
0.790781
0.758059
0.752211
0.743855
0.732135
0.724712
0.724026
1.43406
1.39379
1.38997
1.38314
1.37399
1.38354
1.37006
1.3576
1.34673
1.33704
1.3264
1.31505
1.30335
1.29739
1.2921
1.25933
1.2549
1.25751
1.26069
1.24702
1.23876
1.22909
1.22004
1.21163
1.20656
1.17456
1.16999
1.15526
1.14667
1.13835
1.12817
1.11192
1.10033
1.08907
1.0771
1.06652
1.05574
1.04436
1.03234
1.02132
1.01129
1.00256
0.981235
0.974436
0.968
0.962396
0.955003
0.945405
0.936071
0.947066
0.935863
0.924319
0.915277
0.906734
0.898194
0.889423
0.878588
0.887481
0.875062
0.860269
0.847296
0.836899
0.826144
0.813589
0.823277
0.812222
0.80022
0.790704
0.781291
0.763376
0.75228
0.739564
0.72279
0.719622
0.731764
1.42104
1.398
1.39037
1.38905