/*--------------------------------*- C++ -*----------------------------------*\
  =========                 |
  \\      /  F ield         | OpenFOAM: The Open Source CFD Toolbox
   \\    /   O peration     | Website:  https://openfoam.org
    \\  /    A nd           | Version:  12
     \\/     M anipulation  |
\*---------------------------------------------------------------------------*/
FoamFile
{
    format      ascii;
    class       surfaceScalarField;
    location    "0.65";
    object      phi.water_0;
}
// * * * * * * * * * * * * * * * * * * * * * * * * * * * * * * * * * * * * * //

dimensions      [0 3 -1 0 0 0 0];

internalField   nonuniform List<scalar> 
7375
(
-1.55941e-07
5.14308e-08
-7.1566e-08
-5.13292e-08
-1.16045e-08
-5.46992e-08
3.66488e-08
-4.81586e-08
7.36838e-08
-3.70734e-08
1.0721e-07
-3.21135e-08
2.49862e-08
-1.50168e-08
1.44605e-07
-2.23629e-08
3.02424e-07
1.29613e-07
4.51762e-08
-3.21351e-08
1.23563e-07
1.85832e-08
1.21779e-07
1.7458e-09
1.26259e-07
-5.71297e-09
1.38803e-07
-1.24191e-08
1.45988e-07
-5.73374e-09
1.53405e-07
-7.31326e-09
1.53673e-07
-2.84073e-10
1.39367e-07
1.41931e-08
1.34225e-07
6.50906e-09
1.30643e-07
4.91538e-09
1.34223e-07
-5.04032e-09
1.17497e-07
1.53514e-08
1.0747e-07
9.94763e-09
1.09628e-07
-2.17746e-09
1.17112e-07
-6.2504e-09
1.25823e-07
-8.67573e-09
1.36836e-07
-1.21679e-08
1.38695e-07
-1.83672e-09
1.45161e-07
-6.47825e-09
1.38344e-07
5.40403e-09
1.48885e-07
-1.04357e-08
1.39441e-07
9.39846e-09
1.59903e-07
-2.06701e-08
1.63889e-07
9.99542e-10
1.55876e-07
6.3079e-09
1.71713e-07
-2.07199e-08
1.81244e-07
-7.71866e-09
1.79258e-07
1.98544e-09
1.89448e-07
-1.01905e-08
1.84986e-07
4.48552e-09
1.93971e-07
-8.98439e-09
1.92958e-07
5.0542e-09
2.04925e-07
-9.74313e-09
2.06061e-07
-3.22433e-09
2.18955e-07
-1.48426e-08
2.14616e-07
4.29648e-09
2.036e-07
1.08903e-08
1.91209e-07
1.41733e-08
8.45353e-08
9.38435e-09
1.41839e-07
3.7796e-08
1.39644e-07
3.63844e-09
1.17336e-07
2.2127e-08
1.35608e-07
-1.94732e-08
1.39022e-07
-1.98236e-09
1.35184e-07
3.83356e-09
1.51009e-07
-1.71995e-08
1.50534e-07
4.92183e-10
1.55469e-07
-4.8645e-09
1.6116e-07
-3.99306e-09
1.53816e-07
8.88182e-09
1.31607e-07
2.06476e-08
1.2731e-07
4.27469e-09
1.33289e-07
-7.40791e-09
1.51254e-07
-2.08387e-08
1.60572e-07
-7.79093e-09
1.45807e-07
1.63814e-08
1.26877e-07
2.00212e-08
1.20834e-07
7.24399e-09
1.11431e-07
8.28893e-09
1.1126e-07
1.63909e-10
1.12512e-07
-2.50801e-09
1.22837e-07
-1.14611e-08
1.27442e-07
-3.33699e-09
1.39825e-07
-1.22578e-08
-1.35025e-08
-3.69591e-08
2.86842e-08
-4.31821e-08
-3.25087e-08
-8.91821e-09
-8.4024e-08
4.4617e-10
-5.81164e-08
1.09076e-08
-4.81376e-08
2.73104e-09
-2.39373e-08
-2.50368e-08
1.26763e-08
1.86436e-07
5.61491e-08
5.3438e-08
-2.60522e-08
4.51861e-08
-2.31983e-08
1.91793e-08
-5.31787e-08
5.08486e-08
-3.06385e-08
7.62026e-08
-3.1837e-08
9.9223e-08
-3.51508e-08
9.50954e-08
-1.56457e-09
1.07543e-07
-1.99635e-08
1.28961e-07
-2.16993e-08
1.38433e-07
4.67327e-09
1.35292e-07
1.1062e-08
1.1071e-07
3.20318e-08
1.32565e-07
-2.71254e-08
8.44633e-08
5.92811e-08
6.89324e-08
2.54782e-08
6.42816e-08
2.52025e-09
7.05876e-08
-1.24312e-08
8.27506e-08
-2.10899e-08
9.56157e-08
-2.6264e-08
9.2265e-08
2.47927e-09
8.90021e-08
-2.27426e-09
9.11125e-08
2.33995e-09
1.03357e-07
-2.38299e-08
1.04951e-07
9.8095e-09
8.16362e-08
3.54984e-09
9.21645e-08
-1.02571e-08
9.05665e-08
7.77729e-09
7.62573e-08
-7.40002e-09
8.90397e-08
-2.16971e-08
9.51861e-08
-3.22915e-09
9.71981e-08
-1.22024e-08
1.01326e-07
3.61121e-10
1.0908e-07
-1.37104e-08
1.14999e-07
-8.55822e-10
1.40432e-07
-3.78087e-08
1.64923e-07
-2.93643e-08
1.93163e-07
-4.50332e-08
2.18059e-07
-2.0851e-08
2.27796e-07
1.04421e-09
2.12476e-07
3.17937e-08
1.89362e-07
3.23093e-08
1.91285e-07
3.81895e-08
1.63927e-07
3.16044e-08
1.76507e-07
7.59164e-09
1.64937e-07
-6.10315e-09
1.52951e-07
9.903e-09
1.48352e-07
8.39355e-09
1.44339e-07
-1.31873e-08
1.46377e-07
-3.0387e-09
1.57271e-07
-1.77053e-08
1.62488e-07
-9.35646e-09
1.76421e-07
-3.50083e-09
1.76118e-07
2.23126e-08
1.68771e-07
1.34811e-08
1.45925e-07
1.55145e-08
1.26309e-07
-2.92429e-09
1.48068e-07
-2.99346e-08
9.53759e-08
6.81007e-08
9.1845e-08
2.33169e-08
8.45979e-08
1.60533e-08
8.35434e-08
1.02245e-08
9.3432e-08
-9.62304e-09
6.251e-08
2.74769e-08
5.74555e-08
-7.23461e-09
6.23856e-08
-8.90268e-09
7.72073e-08
-2.68082e-08
-1.31153e-08
-1.4225e-07
3.89501e-08
-8.49423e-08
-6.41059e-08
-6.56545e-08
-9.71128e-08
-5.07192e-08
-7.50248e-08
-5.88374e-08
-3.99085e-08
-4.099e-08
-4.10107e-08
-4.48063e-08
1.68356e-08
-6.92914e-09
1.78811e-08
-3.20827e-08
-1.16494e-09
-4.57203e-08
-9.32459e-09
-8.62604e-08
-1.20966e-08
-1.09687e-07
-7.36285e-09
-9.9246e-08
-4.40651e-08
-5.95689e-08
-7.59738e-08
-8.421e-08
2.28246e-08
-8.56661e-08
-1.78308e-08
-7.4866e-08
-3.11938e-08
-5.81599e-08
-1.27422e-08
9.50415e-09
-5.76875e-08
-1.29392e-07
7.22912e-08
1.22124e-07
1.11201e-07
-8.03666e-08
-2.52184e-08
-6.16187e-08
6.16993e-09
-6.84826e-08
1.00823e-08
-6.582e-08
-1.58843e-08
-7.46805e-08
-1.38203e-08
-3.22476e-08
-6.81982e-08
-6.03658e-08
3.06389e-08
-5.37922e-08
-8.29927e-09
-2.76656e-08
-2.37869e-08
-3.63682e-08
-1.52817e-08
-2.53235e-08
-1.37808e-09
-1.79634e-08
-3.92271e-09
1.17054e-09
-2.92096e-08
2.0732e-08
-1.18935e-08
2.18651e-08
-8.39567e-09
2.53062e-08
-2.56226e-08
2.98759e-08
-8.38873e-09
1.63206e-08
1.8382e-09
3.07e-08
-1.35299e-08
4.3713e-08
-2.80688e-08
9.14798e-08
-4.81229e-08
1.05476e-07
-5.13918e-08
1.20514e-07
-4.54776e-08
1.03855e-07
-2.88345e-08
1.10205e-07
-2.85379e-08
1.12343e-07
-1.08233e-09
1.16972e-07
2.74414e-08
1.12041e-07
3.87627e-08
9.84795e-08
5.43148e-08
7.59255e-08
5.20351e-08
5.27695e-08
3.00574e-08
4.36592e-08
3.09999e-09
4.86329e-08
4.92917e-09
5.98442e-08
-2.32173e-09
4.98337e-08
-3.20972e-09
2.48621e-08
2.24401e-08
5.77986e-09
1.25256e-09
-1.79055e-09
-1.98132e-09
-2.28234e-08
1.77473e-08
-1.20097e-08
1.13774e-08
-4.94973e-09
6.23305e-09
-1.12597e-08
2.17167e-08
-5.07515e-08
3.64213e-08
1.31072e-07
8.01488e-08
-5.54169e-08
-3.5111e-08
-1.93508e-08
-1.23182e-08
-1.88765e-08
1.53479e-08
-9.287e-09
3.35017e-10
-3.22331e-08
1.36551e-08
1.83527e-08
-2.32019e-08
-8.08273e-08
-5.35645e-09
-5.54179e-09
1.30037e-08
-3.16722e-08
-9.4824e-10
2.9452e-08
-8.20798e-08
2.10576e-08
-8.82891e-08
-3.8984e-08
-7.83042e-08
-1.0364e-07
-7.38512e-08
-7.94661e-08
-1.3039e-07
-7.81564e-08
-3.94139e-08
-3.61291e-08
-6.20278e-08
3.83927e-08
-6.91048e-08
2.59686e-08
-7.61906e-08
6.62536e-09
-1.05767e-07
2.02513e-08
-1.36669e-07
1.60159e-08
-2.59631e-07
1.44295e-08
-2.37398e-07
3.35622e-08
-5.77082e-08
3.94733e-08
-2.39606e-07
-8.36187e-08
-1.95916e-07
-6.3991e-08
-2.54531e-07
2.70989e-08
-2.51565e-07
-1.58082e-08
-1.97874e-08
2.44174e-09
-1.80439e-07
-5.65227e-08
-7.00093e-08
3.47704e-10
-7.92268e-08
-1.6256e-08
-8.92251e-08
1.53595e-08
-1.02379e-07
2.32356e-08
-9.94096e-08
-2.00301e-08
-1.37271e-07
2.41833e-08
5.7474e-08
2.72176e-08
-1.25807e-07
-7.20917e-08
-8.28544e-08
-5.25355e-08
-2.63404e-08
-8.1374e-08
-6.85404e-08
2.76175e-08
-6.13272e-08
-8.60538e-09
-5.70251e-08
-8.81041e-09
-6.18455e-08
-2.55791e-08
-6.80572e-08
-6.38326e-09
-5.83176e-08
-1.74338e-08
-4.06024e-08
-4.29193e-08
-8.4671e-08
3.47306e-08
-7.54978e-08
-7.31597e-09
-3.85844e-08
-5.03221e-08
-9.50141e-08
-6.96625e-08
8.0852e-09
-5.28431e-08
-1.62505e-08
-2.68025e-08
-2.57965e-08
-3.57659e-08
-3.89179e-08
-1.57131e-08
-5.66339e-08
-1.09334e-08
-6.78496e-08
1.01224e-08
-5.88214e-08
1.79967e-08
-2.37585e-08
4.14197e-09
-5.58473e-08
8.60918e-08
-6.42432e-08
5.99001e-08
-4.72268e-08
1.32127e-08
-9.10975e-08
4.74547e-08
-5.30014e-08
-3.31168e-08
-1.88191e-09
-5.40115e-08
-5.70882e-08
5.19964e-08
-3.87276e-08
4.66176e-09
-4.09632e-08
3.88036e-09
-3.60168e-08
-6.83876e-09
-1.02599e-07
-1.23479e-08
-2.00086e-08
2.54169e-08
-4.48222e-08
3.09836e-08
-5.66733e-08
3.28676e-08
-6.09884e-08
4.07365e-08
-4.31785e-09
2.32829e-08
-4.72924e-08
7.8637e-09
-6.71416e-08
6.78966e-09
-6.66327e-08
1.48442e-08
-6.67062e-08
4.08533e-10
-1.622e-07
1.18469e-08
-8.87764e-08
1.33875e-09
-1.17979e-07
2.36601e-08
-9.9129e-08
-5.84539e-09
-4.84798e-08
-5.11122e-08
5.26666e-08
-6.97665e-08
-8.56248e-09
-5.88117e-08
-3.41453e-08
-6.06565e-08
-9.73435e-08
-7.11948e-08
-6.74988e-08
-6.70646e-08
-8.14897e-08
1.57128e-08
-1.19276e-07
1.54306e-08
-5.79845e-08
6.08022e-08
-1.96657e-08
5.57388e-08
1.23086e-08
5.7051e-08
1.87473e-08
4.45181e-08
2.80941e-08
2.36341e-08
3.47829e-08
1.94446e-08
3.7651e-08
1.98261e-08
3.92877e-08
-7.82368e-08
1.36455e-08
5.4697e-08
9.49818e-08
-1.58695e-07
-4.92729e-08
-1.16342e-07
-5.81617e-08
-1.10392e-08
-1.02887e-07
-9.63161e-08
2.9436e-08
-2.24944e-08
-7.42241e-08
-3.50944e-08
-4.0518e-09
-6.57989e-08
4.55984e-08
-7.01912e-08
2.76275e-08
-7.81464e-08
-1.21998e-08
-6.22225e-08
8.64709e-09
-2.31088e-08
-1.18965e-08
-7.54744e-08
-2.06975e-08
-1.17914e-07
-1.14157e-08
7.7689e-08
1.49302e-08
-1.2239e-07
-6.2025e-08
-8.722e-08
-4.38637e-08
-7.81339e-08
-1.85049e-08
-9.57653e-08
-7.86664e-09
-8.06368e-08
-2.02629e-08
-9.47071e-08
-4.10991e-09
9.04856e-08
6.37952e-08
-9.92345e-08
-6.54015e-08
-6.23308e-08
-4.36991e-08
-6.68458e-08
-4.53445e-08
-8.75361e-08
-4.61865e-08
-9.73508e-08
-4.35714e-08
-9.32061e-08
-3.13511e-08
-1.0427e-07
-2.37512e-08
-1.06462e-07
-1.46073e-08
-1.34968e-07
1.7573e-08
-1.4416e-07
1.92209e-08
-1.61115e-07
3.32908e-08
4.69042e-08
8.87333e-08
-1.23302e-07
-3.31099e-08
-6.56531e-08
2.92111e-09
-6.84496e-08
1.54742e-08
-1.46153e-07
2.71504e-08
-1.08037e-07
2.54657e-08
6.47014e-08
6.51569e-08
-1.35093e-07
-3.83292e-08
-1.05442e-07
-2.49887e-08
-9.16682e-08
-8.95885e-09
-9.113e-08
-7.44614e-09
-1.0614e-07
1.73201e-09
-8.43605e-08
3.63764e-09
-7.20532e-08
1.82574e-08
-7.83153e-08
3.91296e-08
-5.95273e-08
2.23319e-08
-6.11075e-08
2.51195e-08
-8.79731e-08
3.41806e-08
-1.13551e-07
3.35382e-08
-1.12633e-07
1.37858e-08
-1.2545e-07
1.20639e-08
-1.23787e-07
1.12289e-08
-1.24552e-07
3.37412e-09
-9.1117e-08
-9.77385e-09
-1.14573e-07
1.65136e-08
8.07399e-08
4.16806e-08
-5.9368e-08
-7.23707e-08
-3.7932e-08
-3.46054e-08
-5.35761e-08
-6.36085e-08
-6.58413e-08
-8.92052e-08
-4.12535e-08
-1.26904e-07
-4.37914e-08
2.98541e-08
1.25906e-08
-1.43327e-07
-7.62481e-08
-9.62755e-08
-6.90853e-08
-4.70009e-08
-3.61184e-08
-2.46955e-08
-3.55864e-09
-1.65174e-08
1.96636e-08
-1.9821e-08
3.84409e-08
-1.80867e-08
3.61157e-08
-5.64411e-08
7.68495e-08
-7.10329e-08
2.88126e-08
-7.25842e-08
-7.46085e-10
-9.2718e-08
-2.91396e-08
-1.40938e-07
-9.94194e-09
1.18837e-07
2.13642e-08
-1.59867e-07
2.03084e-08
2.32912e-08
3.21115e-08
2.88918e-08
-1.00824e-08
-1.18383e-07
-9.3139e-08
-6.67252e-08
-2.59187e-08
-6.23718e-08
-1.65536e-08
-4.29104e-08
-1.01783e-08
-4.2688e-08
-1.23667e-08
-6.15446e-08
-2.46906e-09
-1.46485e-07
-2.40258e-08
-3.12893e-08
-2.58717e-09
-5.67877e-08
-3.61579e-08
-3.94199e-08
-6.08295e-08
-2.16871e-08
-3.63861e-08
2.21066e-08
-5.20232e-08
3.99011e-08
-3.8237e-08
8.38817e-08
-4.8174e-08
7.57943e-08
7.20876e-08
1.58449e-08
-5.61365e-09
-7.43097e-09
-2.05556e-08
-3.93082e-08
-1.31453e-08
-8.45971e-08
-4.44502e-10
-8.6006e-08
-4.25882e-08
-1.00387e-07
-1.77006e-08
-1.20125e-07
-5.03739e-09
-1.24983e-07
-9.84932e-09
-1.31005e-07
2.34152e-08
-1.35104e-07
2.33204e-08
-1.25845e-07
2.4976e-08
-6.54672e-08
2.74591e-08
-1.04898e-07
5.65312e-09
-8.67973e-08
-1.60653e-08
-9.23932e-08
2.10128e-08
-9.66374e-08
3.20601e-08
-9.73779e-08
2.64762e-08
-4.80778e-08
1.5192e-08
-8.29475e-08
-3.45967e-09
-1.02571e-07
-5.36479e-09
-1.05599e-07
-5.93098e-09
-1.15896e-07
2.77393e-09
-1.14832e-07
6.6786e-10
-1.05375e-07
-5.81946e-09
-1.13117e-07
2.57368e-08
-1.07597e-07
3.32106e-08
-1.0911e-07
2.27317e-08
-1.3574e-07
5.03512e-08
-1.31743e-07
3.15823e-08
-1.33711e-07
3.65086e-08
-1.22155e-07
2.37064e-09
-1.19577e-07
1.05827e-08
-1.0191e-07
-6.43834e-09
-9.86646e-08
-9.10716e-10
-8.71056e-08
-2.05432e-08
-6.40702e-08
-6.45563e-09
-1.69428e-08
-6.10001e-09
-3.18435e-08
-1.15431e-07
9.51341e-09
1.00193e-09
-4.28905e-08
-1.24284e-07
-3.82275e-08
-1.21589e-07
-4.18398e-08
-8.35453e-08
-8.26792e-08
-1.00294e-07
2.80293e-08
-1.36604e-07
-4.21317e-08
-1.52746e-07
-4.9452e-08
-1.31931e-07
-5.59568e-08
-1.0524e-07
-3.16321e-08
-7.53968e-08
-1.018e-08
-5.82036e-08
2.10327e-08
-5.95068e-08
3.80254e-08
-3.57213e-08
5.22873e-08
-1.20228e-07
1.68161e-08
-3.16449e-08
6.98005e-09
-5.59412e-08
-4.84381e-09
-9.05436e-08
2.46599e-08
1.48114e-07
7.01238e-08
-6.99355e-08
-4.74484e-08
-2.31077e-08
-1.55221e-08
9.89661e-09
-4.30872e-08
-3.17238e-08
-5.29079e-08
-2.57837e-08
-3.15375e-08
-3.15757e-08
-1.04861e-08
-3.66474e-08
-5.48091e-09
-4.11822e-08
-7.91371e-09
-4.10192e-08
-2.63064e-09
-6.04645e-08
-3.6721e-09
-2.89809e-08
-3.31676e-08
-3.32494e-08
-3.21823e-08
-2.04447e-08
-7.4182e-08
-6.51901e-08
-8.8407e-08
-2.37122e-08
-9.43291e-08
-1.00577e-07
3.75955e-08
8.92427e-08
5.34165e-08
-9.97887e-08
-2.84305e-08
-8.87865e-08
-1.75215e-08
-1.06763e-07
-2.79126e-09
-1.03442e-07
-1.65659e-08
-1.86744e-07
-1.44491e-08
-1.33355e-07
4.37572e-10
-1.53833e-07
2.59497e-09
-1.67226e-07
8.21948e-09
-2.06372e-07
2.92971e-08
-1.71262e-07
-9.59019e-09
-1.65548e-07
1.76068e-08
-1.49442e-07
8.86969e-09
-1.11153e-07
-1.05493e-08
-1.03874e-07
-1.62558e-09
-6.19748e-08
-5.79237e-08
-4.89843e-08
7.88978e-09
-8.96628e-08
7.13241e-08
-9.61343e-08
3.29476e-08
-6.76714e-08
-1.22902e-08
-6.30067e-08
-8.12447e-09
-7.70494e-08
8.67772e-09
-8.61292e-08
3.1488e-09
-9.19139e-08
8.55846e-09
-9.3226e-08
1.97983e-09
-1.19433e-07
2.13875e-08
-1.00323e-07
6.69482e-09
-9.44129e-08
2.62767e-08
-9.7169e-08
2.54878e-08
-9.32144e-08
4.58831e-08
-9.89965e-08
3.70423e-08
-8.94368e-08
2.66768e-08
-8.66749e-08
-3.91128e-10
-8.35635e-08
7.47137e-09
-8.76113e-08
-2.45603e-09
-7.25008e-08
-1.60209e-08
-7.87868e-08
-1.34528e-08
-5.99885e-08
-2.5318e-08
-4.50036e-08
-2.16968e-08
-2.39341e-08
-1.16087e-07
4.11561e-08
8.83811e-08
1.09788e-07
-1.6079e-07
-8.87763e-08
-2.04393e-07
-3.40836e-10
1.20323e-08
-5.21489e-09
-1.65229e-07
-8.08425e-08
-1.50905e-07
-5.67518e-08
-1.45821e-07
-5.55094e-08
-1.45524e-07
-5.8334e-08
-1.32535e-07
-4.31373e-08
-1.10617e-07
-3.09692e-08
-8.98466e-08
2.58741e-10
-6.3385e-08
1.05392e-08
-2.66388e-08
1.56428e-08
-1.17066e-07
9.83898e-09
-3.64272e-08
2.38448e-08
-4.35964e-08
2.30137e-09
-4.16939e-08
2.25271e-08
1.67216e-08
1.17078e-08
-8.44023e-09
-2.25412e-08
-8.69715e-08
-3.33011e-08
-6.32075e-09
-2.79327e-08
-3.36425e-08
-2.49824e-08
-2.23773e-08
-4.22373e-08
-1.16658e-08
-2.16425e-08
-1.15412e-08
-5.84263e-09
-2.14213e-08
2.06899e-09
-1.87723e-08
-4.86977e-09
-2.42909e-08
1.88334e-09
-3.18217e-08
-2.64934e-08
-1.82229e-08
-4.5644e-08
-6.93349e-08
-2.23626e-08
-9.75602e-08
3.50629e-08
6.1887e-08
3.77631e-08
-1.55242e-07
-3.78207e-08
-8.07727e-08
-1.93875e-08
-9.96518e-08
-9.55142e-09
-9.67592e-08
-2.14306e-08
-8.14087e-08
-1.81132e-08
-5.90055e-08
-3.89689e-08
-8.15607e-08
9.08566e-09
-6.46701e-08
-1.64529e-08
-8.22304e-08
1.94691e-08
-9.4947e-08
2.09361e-08
-9.41975e-08
2.82488e-08
-1.13306e-07
9.51838e-09
-1.09029e-07
1.33296e-08
-1.18021e-07
1.78617e-08
-1.53286e-07
2.47162e-08
-1.64164e-07
7.57726e-09
-1.10409e-08
8.07466e-08
-2.25883e-08
1.98367e-08
-1.81899e-07
-5.80639e-08
-1.35983e-07
-1.31705e-08
-1.28169e-07
-2.01042e-08
-6.89637e-08
-6.80237e-08
-9.64154e-08
3.61294e-08
-1.13783e-07
2.05164e-08
-1.04457e-07
-7.67893e-10
-9.6807e-08
-4.68256e-09
-9.85093e-08
2.20949e-08
-9.65984e-08
3.83762e-09
-7.19585e-08
2.62224e-09
-7.3673e-08
2.72023e-08
-5.62464e-08
2.81692e-08
-5.18148e-08
3.31395e-08
-4.672e-08
2.1582e-08
-6.14676e-08
1.388e-08
-6.87248e-08
1.47286e-08
-6.63576e-08
-4.82303e-09
-6.95994e-08
-1.27786e-08
-8.12294e-08
-1.84077e-09
-8.05277e-08
-2.6277e-08
-7.69021e-08
-2.53219e-08
-1.57275e-08
-6.67677e-08
8.71452e-09
-4.79353e-09
5.98174e-08
-6.63346e-08
-2.69339e-08
-1.0328e-07
3.86175e-08
-9.10932e-08
-1.85925e-08
-1.30925e-07
-4.31714e-08
-1.41297e-07
-4.59072e-08
-1.26641e-07
-6.92907e-08
-1.01514e-07
-8.28659e-08
-9.34875e-08
-5.0648e-08
-7.57217e-08
-4.84574e-08
-4.73307e-08
-2.76521e-08
-2.0867e-08
-1.61923e-08
-4.58209e-09
-7.98973e-10
3.57281e-09
1.53795e-09
3.17164e-08
-4.58641e-09
3.90786e-08
-5.51168e-09
5.83505e-08
3.61293e-09
6.64162e-08
3.52328e-09
6.47277e-08
-2.08531e-08
4.75424e-08
-1.54558e-08
5.25053e-08
-3.34318e-08
4.28505e-08
-1.50757e-08
2.16918e-08
-2.10664e-08
2.66328e-09
-2.86691e-09
-7.07672e-09
3.75933e-09
-2.06501e-08
1.54614e-08
-2.17502e-08
-3.55932e-09
-1.97088e-08
-3.40092e-10
-1.13821e-07
-2.85108e-08
-4.78046e-08
-1.53286e-08
-9.35062e-08
2.30867e-08
-4.80552e-08
-1.01338e-08
-3.46392e-08
2.42088e-08
-8.82267e-08
1.50985e-08
-1.00839e-07
-6.77557e-09
-8.1365e-08
-2.80937e-08
-1.03807e-07
1.01089e-09
-9.77578e-08
-2.41619e-08
-1.18478e-07
-1.82484e-08
-1.01263e-07
-8.12967e-09
-8.78654e-08
-3.03275e-08
-9.15394e-08
2.31432e-08
-8.95402e-08
1.8937e-08
-9.16665e-08
3.03752e-08
-1.14972e-07
3.28235e-08
-1.07725e-07
6.02131e-09
-1.05326e-07
1.5463e-08
-9.81116e-08
1.75017e-08
-1.01235e-07
1.07007e-08
-5.60892e-08
3.42048e-08
-1.37414e-07
3.65499e-09
-1.07302e-07
1.06295e-08
-1.06107e-07
-1.43649e-08
-1.37929e-07
9.22805e-09
5.14291e-08
3.45251e-08
-1.2461e-07
-7.72856e-08
-1.01119e-07
-2.97442e-09
-9.6937e-08
-4.9501e-09
-9.01574e-08
-1.15804e-08
-8.45204e-08
1.66832e-08
-9.08034e-08
1.00815e-08
-6.52139e-08
-2.29673e-08
-8.63502e-08
-4.70901e-08
-5.09284e-08
8.7204e-08
-6.78574e-08
4.9549e-08
-6.07814e-08
1.47264e-08
-6.10842e-08
1.41829e-08
-5.93063e-08
1.29509e-08
-7.22734e-08
8.14432e-09
-8.68761e-08
9.38133e-10
-1.70096e-07
-1.60888e-08
-9.30303e-08
-5.29608e-09
-1.37107e-07
1.7535e-08
-3.01352e-08
-1.03986e-07
5.12385e-09
-3.20674e-08
2.70837e-09
-6.69021e-08
1.11269e-08
-3.77772e-08
1.15483e-08
-5.68294e-08
4.59272e-10
-5.22311e-08
-4.71383e-08
-5.04417e-08
-4.72335e-08
-5.34887e-08
-6.67587e-08
-2.41041e-08
-1.12005e-07
-6.53918e-08
-9.92088e-09
-8.06968e-08
-3.34818e-08
-3.10342e-08
-7.75653e-08
-7.43098e-08
2.76757e-08
-5.04284e-08
-2.46889e-08
-5.13461e-08
1.97661e-09
-4.48371e-08
-1.15534e-08
-7.35098e-08
-7.42058e-08
-2.54989e-08
5.1975e-08
-3.39906e-08
1.17571e-08
-4.18848e-08
-1.36583e-08
-4.95322e-08
-7.80885e-09
-5.56739e-08
-2.72905e-08
-6.36005e-08
-7.95217e-09
-8.27431e-08
-2.77711e-09
-8.24855e-08
-1.37809e-09
-4.40497e-08
-3.3399e-08
-3.77551e-08
8.65299e-09
-6.36547e-08
2.21811e-08
-6.34807e-08
-5.14247e-10
-1.15996e-07
2.33501e-08
-1.34933e-07
2.05885e-09
-2.21458e-07
1.1301e-08
-1.48149e-07
1.46157e-08
-1.38937e-07
1.79556e-08
-1.15759e-07
-6.67685e-09
-1.30377e-07
6.73119e-09
-1.29354e-07
-2.91169e-08
-1.31397e-07
3.02297e-09
-1.34044e-07
-2.17361e-08
-1.62501e-07
1.02085e-08
-1.43195e-07
-2.88967e-08
-1.79489e-07
5.96634e-09
-1.39187e-07
-1.53268e-08
-1.25717e-07
5.46712e-09
-1.02795e-07
7.45245e-09
-9.38612e-08
2.48476e-08
-8.45593e-08
-3.28048e-09
-8.20164e-08
1.20574e-08
-5.48105e-08
-9.70416e-09
-6.04842e-08
1.63744e-08
-5.7666e-08
3.13866e-08
-6.73758e-08
1.33275e-08
-5.51673e-08
-1.57904e-09
-6.80443e-08
-1.63451e-09
-5.89331e-08
1.16777e-10
-1.80117e-08
-6.74848e-09
-4.4734e-08
-5.10845e-08
-7.78276e-08
3.01191e-08
-8.38969e-08
2.63235e-10
-1.00958e-07
5.48089e-09
-8.7455e-08
4.20987e-09
-1.00236e-07
2.28625e-08
-1.34186e-07
1.09822e-08
8.86401e-08
1.81092e-08
-1.13812e-07
4.47979e-09
-7.87951e-08
1.33715e-08
-6.55035e-08
1.42041e-09
-7.2313e-08
2.09926e-08
-6.02647e-08
9.02643e-10
-6.67081e-08
1.45879e-08
-7.43318e-08
7.72513e-09
-1.0695e-07
1.66965e-08
-1.029e-07
-9.39969e-09
-2.05766e-07
2.30992e-08
6.99433e-09
-1.03512e-07
-1.4668e-08
6.84994e-09
-9.27305e-08
-5.57447e-08
7.43583e-08
-4.64497e-08
3.95899e-09
-4.11789e-08
-5.23668e-09
-4.0827e-08
-4.74907e-08
-3.70602e-08
-5.05504e-08
-4.89836e-08
-5.4282e-08
9.86939e-08
2.82393e-08
-8.74412e-08
-1.09015e-07
-8.82322e-08
-3.44754e-08
1.05569e-07
1.96305e-08
-1.05863e-07
-5.08982e-08
-5.61976e-08
-7.59553e-08
-1.03987e-07
4.97651e-08
-1.23733e-07
7.99149e-09
2.16921e-08
7.30403e-08
-1.71791e-07
-4.31627e-08
-1.34726e-07
-2.68365e-08
-1.58017e-07
9.63197e-09
-1.13346e-07
-5.08681e-08
-8.42368e-08
-5.69815e-08
-1.30711e-07
3.85211e-08
-1.32081e-07
-3.09356e-11
-1.08984e-07
-2.42172e-08
-7.70528e-08
-6.89766e-08
-1.26889e-07
5.72702e-08
-1.42351e-07
3.85532e-08
-1.5701e-07
1.41395e-08
-1.46361e-07
1.27012e-08
-1.53899e-07
1.25106e-08
-1.35882e-07
-6.83035e-09
-1.17891e-07
-4.91007e-09
-1.06192e-07
6.0115e-09
-9.17231e-08
-2.14325e-08
-8.40983e-08
-8.93628e-10
-1.08906e-07
-3.19848e-09
-9.94792e-08
-7.40811e-09
-1.29831e-07
7.59041e-09
-1.09592e-07
-8.70548e-09
-1.16749e-07
-2.17405e-08
-1.18889e-07
8.04592e-09
-1.16074e-07
-1.81421e-08
-1.03646e-07
-6.9608e-09
-1.02734e-07
6.54047e-09
-1.00897e-07
2.30107e-08
-1.09604e-07
5.39353e-09
-8.98108e-08
-7.65771e-09
-4.42915e-08
-5.57927e-08
-8.3607e-08
5.56899e-08
-8.46483e-08
3.24279e-08
-6.48915e-08
-6.42942e-09
-7.56467e-08
9.17617e-09
-7.65816e-08
-6.99677e-10
-8.3435e-08
6.97019e-09
-1.08267e-07
1.69793e-08
7.42762e-08
5.8279e-08
-1.3294e-07
-5.23512e-08
-7.18377e-08
-6.14666e-08
-1.08032e-07
4.16189e-08
-6.35265e-08
-4.02953e-08
-8.91192e-08
4.79659e-08
-1.25003e-07
4.6866e-08
1.28218e-07
5.25098e-08
-1.04488e-07
-4.82926e-08
-7.82079e-08
-1.31769e-08
-6.11489e-08
-1.56385e-08
-5.77879e-08
1.7008e-08
-5.33748e-08
-3.51038e-09
-4.86187e-08
1.0328e-08
-5.18642e-08
1.10829e-08
-5.79344e-08
2.1477e-08
-8.93397e-08
2.17823e-08
-1.14476e-07
4.89117e-08
3.91484e-08
-1.52454e-07
1.87318e-08
1.85908e-07
-7.19469e-08
-8.23357e-08
2.82005e-08
-5.12494e-08
-2.54477e-08
-4.2348e-08
-1.41385e-08
-6.56815e-08
-2.3003e-08
-7.4959e-08
-4.05163e-08
-7.75945e-08
-5.24038e-08
-6.9734e-08
-7.6723e-08
-1.17416e-07
-6.4299e-08
-8.32873e-08
-6.896e-08
-9.23257e-08
2.93178e-08
-1.59965e-07
1.51085e-08
2.7981e-08
2.80054e-08
-1.63261e-07
-4.8716e-08
-8.62962e-08
-6.96844e-08
-7.81302e-08
6.41286e-08
-1.21286e-07
-1.24454e-09
-1.33033e-07
-1.50905e-08
-1.18138e-07
-4.00409e-09
-1.54809e-07
-1.59397e-08
3.28514e-08
4.72649e-08
-1.7e-07
-4.78922e-08
-2.32599e-07
-3.13687e-08
-1.77958e-07
1.27677e-08
-1.51959e-08
6.13553e-08
-2.14591e-07
-3.03496e-08
-1.62066e-07
-1.59978e-08
-1.62854e-07
1.31217e-08
-1.56647e-07
9.62367e-09
-1.4958e-07
5.38988e-09
-1.32558e-07
-2.57109e-08
-1.22811e-07
-1.34039e-08
-9.76286e-08
-1.99557e-08
-1.1268e-07
-7.38763e-09
-1.05078e-07
-7.34613e-09
-1.17596e-07
9.31993e-09
-1.28511e-07
3.43112e-09
-1.34115e-07
1.31167e-08
-1.22014e-07
-2.08061e-08
-1.02314e-07
-4.144e-08
-9.26011e-08
-1.66734e-09
-1.05924e-07
-4.81961e-09
-1.06957e-07
-5.92772e-09
-1.16798e-07
1.63816e-08
-8.30695e-08
-1.07175e-08
-1.73007e-07
7.86084e-10
-1.13854e-07
2.73771e-08
4.9388e-08
7.24455e-08
-1.29149e-07
-5.52057e-08
-8.22451e-08
-1.44765e-08
-8.49191e-08
-3.75549e-09
-7.98863e-08
4.14341e-09
-8.17556e-08
1.1696e-09
-8.86272e-08
1.38418e-08
-8.72355e-08
1.55876e-08
-5.66149e-08
2.70638e-08
-1.33339e-07
2.30126e-08
4.7956e-08
4.91455e-08
-2.52451e-07
-4.41525e-08
5.14635e-08
4.05037e-08
-1.34838e-07
-5.17437e-08
-8.83195e-08
-1.0283e-09
-1.76849e-08
-1.79442e-08
-5.0312e-08
-1.59917e-08
-7.24023e-08
8.40039e-09
-8.33331e-08
-4.91721e-09
-7.00692e-08
3.7063e-09
-7.1225e-08
-2.35444e-09
-7.24517e-08
1.08158e-08
-7.30955e-08
1.18414e-08
-7.40088e-08
2.38919e-08
-8.52667e-08
3.24931e-08
-6.61932e-08
2.86764e-08
3.26772e-08
-1.33227e-07
7.3607e-08
1.30053e-07
8.19675e-09
-6.82582e-08
-7.42096e-08
-3.3028e-08
-5.93762e-08
-3.76181e-08
-9.54878e-09
-4.7406e-08
-1.32155e-08
-6.94581e-08
-1.8878e-08
-1.01665e-07
-2.0732e-08
-8.60531e-08
3.09651e-09
-2.32695e-07
-1.49595e-08
2.80459e-08
5.86146e-08
-1.726e-07
-5.89665e-08
-1.31011e-07
-2.64805e-08
-1.00108e-07
-3.18364e-09
-1.48905e-07
-1.42406e-09
5.30681e-08
2.046e-08
-1.36216e-07
-3.60578e-08
-1.26173e-07
-1.14048e-08
-1.16752e-07
-2.43585e-08
-1.08897e-07
-1.29696e-08
-1.36033e-07
1.11949e-08
-8.16656e-08
-6.19689e-09
-1.36011e-07
6.45233e-09
-1.63022e-07
-6.02102e-09
-1.53882e-07
3.75959e-09
-1.03717e-07
1.15071e-08
-1.21667e-07
-1.23995e-08
-1.14127e-07
-2.25371e-08
-1.0125e-07
1.12581e-10
-1.10108e-07
1.83842e-08
-8.88477e-08
-1.65467e-08
-9.65608e-08
-1.87208e-08
-1.00642e-07
-7.31088e-09
-9.00919e-08
-3.07075e-08
-7.38942e-08
-2.41823e-08
-6.19052e-08
-1.91399e-08
-5.83598e-08
5.77446e-09
-1.14538e-07
-3.67005e-08
-7.64e-08
-2.50211e-08
-1.08627e-07
1.14214e-08
-7.3391e-08
1.98358e-08
-7.85425e-08
3.48412e-09
-9.49307e-08
1.15687e-08
-9.57245e-08
-5.08204e-09
-7.43885e-08
-4.95434e-09
-7.61696e-08
-8.9365e-09
-9.94091e-08
2.40257e-08
-6.9644e-08
-2.81918e-09
-1.05283e-07
1.00351e-08
-7.67059e-08
1.36013e-08
-7.64621e-08
-1.45716e-08
-9.86219e-08
1.8594e-08
-9.53739e-08
8.95335e-10
-1.02064e-07
7.85984e-09
-8.97795e-08
1.54144e-09
-9.79979e-08
2.40513e-08
-8.3171e-08
1.22369e-08
-8.92374e-08
2.9079e-08
-6.46155e-08
2.3363e-08
-2.02813e-07
-3.29083e-09
-7.3952e-08
1.00211e-08
-1.03478e-07
-2.27455e-08
-8.0808e-08
-2.36984e-08
-4.21281e-08
-5.67734e-08
-8.26175e-08
2.43363e-08
-9.09159e-08
1.49287e-08
-1.85552e-07
-5.67056e-09
-7.45376e-08
-9.99639e-09
-6.63923e-08
-1.126e-08
-6.51328e-08
9.5565e-09
-6.87664e-08
1.53547e-08
-5.63965e-08
1.20982e-08
-3.17481e-08
8.49465e-09
-1.48142e-08
1.15717e-08
9.8233e-09
-8.07232e-08
5.53717e-08
-2.37822e-09
-5.65238e-08
-5.01188e-08
-2.58332e-08
-5.05181e-08
-5.7965e-08
-4.98749e-08
-1.07078e-08
-4.94343e-08
-1.36564e-08
-6.80229e-08
-2.89865e-10
-8.14095e-08
-7.34586e-09
-8.62035e-08
7.89011e-09
-1.0421e-07
3.19966e-09
-4.62148e-08
6.12213e-10
-8.52852e-08
-1.98965e-08
-8.44181e-08
-2.73481e-08
-7.70556e-08
-9.76045e-09
-5.27983e-08
-2.5953e-08
4.84769e-09
-3.83367e-08
-9.30203e-08
6.08112e-08
-1.74749e-07
-2.69787e-08
-9.81464e-08
-2.8694e-09
-9.41862e-08
-1.69301e-08
-8.73522e-08
4.2462e-09
-9.39242e-08
3.74692e-10
-8.98529e-08
2.38064e-09
-1.0066e-07
4.7854e-09
-1.04878e-07
7.93923e-09
-9.11926e-08
-2.17871e-09
-8.64532e-08
-1.71392e-08
-5.18289e-08
-5.71617e-08
-9.28727e-08
4.16796e-08
-6.22046e-08
-1.16559e-08
-5.8855e-08
-2.00974e-08
-5.41536e-08
-2.38277e-08
-3.23612e-08
-2.93563e-08
-2.00953e-08
-4.30818e-08
3.74361e-08
-8.29293e-08
4.42628e-08
-2.55886e-08
-6.21402e-09
5.61302e-08
-4.29845e-08
7.07649e-11
-5.75127e-08
-1.06011e-08
-6.18823e-08
1.50067e-08
-4.74527e-08
5.40619e-09
-3.72449e-08
-6.23957e-09
-9.97902e-08
-2.11776e-08
-3.41747e-08
2.46396e-08
-3.66483e-08
-2.82936e-09
-6.10692e-08
1.54844e-08
-4.16171e-08
4.5275e-09
-4.64682e-08
2.0319e-09
-5.58721e-08
1.93367e-08
-5.67692e-08
1.50776e-08
-7.33342e-08
1.26555e-09
-1.4201e-07
-1.07883e-08
-7.70411e-08
3.33446e-08
-1.6432e-07
5.05056e-10
-8.65183e-08
1.82035e-08
-1.69047e-07
8.30017e-09
-9.24818e-08
3.37062e-08
-9.12111e-08
2.75275e-08
-9.07871e-08
2.17905e-08
-1.35341e-07
4.08757e-08
-1.0605e-07
-1.78896e-08
-1.25991e-07
-2.80443e-09
-1.40694e-07
-1.04299e-08
3.83408e-08
5.60986e-08
-1.6218e-07
-6.48763e-08
-1.21053e-07
-2.61983e-08
-2.12159e-07
-8.65199e-09
-1.02672e-07
-2.42468e-08
-5.73023e-08
-5.76771e-08
-9.12774e-08
4.30922e-08
-8.78314e-08
1.19092e-08
-7.8577e-08
2.8446e-09
-7.26655e-08
2.6439e-09
-6.51264e-08
4.10932e-09
-3.19042e-09
-6.63396e-08
4.36949e-08
-1.02664e-07
-9.83391e-10
-8.22032e-08
-3.81879e-08
-8.27446e-08
-5.60715e-08
-9.26216e-08
-8.22763e-10
-9.4764e-08
-1.15144e-08
-9.42011e-08
-8.5317e-10
-9.24149e-08
-9.13251e-09
-8.31652e-08
-1.34626e-09
-7.38309e-08
-5.38194e-09
-5.74496e-08
-1.57695e-08
-5.59358e-08
-2.19969e-08
-5.25493e-08
-3.07351e-08
-1.34959e-07
-2.2284e-08
-9.14431e-08
2.46821e-08
1.04966e-07
5.66134e-08
-1.4455e-07
-7.59831e-08
-8.25869e-08
7.64304e-09
-9.14866e-08
6.02982e-09
-2.38021e-08
-8.46151e-08
-2.77755e-08
8.21924e-09
-9.0711e-08
6.33097e-08
-9.95631e-08
1.12323e-08
-9.43972e-08
-3.80931e-10
-8.21822e-08
-4.27608e-09
-7.01539e-08
-1.40639e-08
-9.98867e-08
1.25933e-08
9.02676e-08
4.02811e-08
-1.01138e-07
-5.29268e-08
-6.56101e-08
-4.83343e-08
-5.21503e-08
-3.37624e-08
-3.91965e-08
-3.66248e-08
-5.18263e-08
-1.68973e-08
-1.0582e-07
9.30349e-09
6.10284e-08
4.12746e-08
3.84253e-08
-4.30513e-09
-1.30309e-07
-6.2463e-08
-1.01353e-07
-3.12731e-08
-1.04452e-07
-5.38068e-09
-7.28315e-08
-1.55589e-08
-8.01191e-08
1.18957e-08
-7.51682e-08
-1.10774e-08
-7.6135e-08
-2.04191e-08
-5.02034e-08
-1.04051e-09
-2.88507e-08
-2.4182e-08
-1.0026e-07
-8.39302e-09
-2.53935e-08
2.49979e-08
-4.35391e-08
1.99184e-08
-3.63439e-08
1.21416e-08
-3.49647e-08
1.32069e-08
-4.23797e-08
8.60494e-09
-7.40771e-08
2.22073e-08
-3.17588e-08
-8.88395e-09
-2.54517e-08
-6.12608e-09
-1.00439e-08
3.08394e-09
-2.39172e-08
2.20897e-08
-6.09219e-09
1.56993e-08
3.33002e-09
1.80717e-08
1.26371e-09
2.38777e-08
1.40799e-08
2.76595e-08
-1.123e-08
7.56402e-09
-2.4685e-08
1.06506e-08
-3.43188e-08
-8.04189e-10
-3.24971e-09
2.44241e-08
-8.31942e-08
1.50683e-08
-1.05432e-07
-3.11112e-09
-1.19082e-07
4.99756e-09
-1.39585e-07
-3.99116e-09
5.83571e-08
3.27153e-08
-1.26106e-07
-5.84558e-08
-8.74781e-08
-2.80046e-08
-6.79376e-08
-1.60021e-08
-6.22125e-08
-2.45156e-09
-5.79509e-08
-1.93129e-09
-2.01161e-08
-9.79794e-08
3.68263e-08
-1.84313e-07
3.38637e-09
-7.569e-08
-3.73233e-08
-1.17304e-07
-1.32491e-08
-9.07744e-08
-2.6168e-08
-8.91862e-08
-1.4029e-08
-7.68951e-08
-1.31447e-08
-8.3253e-08
-1.92573e-09
-5.20643e-08
-3.221e-08
-5.14093e-08
-6.56858e-09
-5.02863e-08
-1.70538e-08
-5.3726e-08
-1.85577e-08
-7.80246e-08
-6.43688e-09
-8.00383e-08
-2.02708e-08
-5.68285e-08
1.72368e-09
-1.27075e-08
1.19143e-08
-9.42492e-08
5.55816e-09
-7.72756e-08
-9.33104e-09
-1.79273e-07
1.17169e-08
4.33789e-08
7.79717e-08
3.89797e-08
1.26179e-08
-1.9348e-07
-8.94698e-08
-8.20823e-08
-3.81716e-09
-6.6567e-08
-1.58966e-08
-6.28777e-08
-7.32435e-09
-5.65062e-08
-2.04357e-08
-4.54495e-08
1.40909e-09
4.17565e-09
-9.34432e-09
-2.79305e-08
-2.13183e-08
-4.87724e-08
-2.74926e-08
-6.76494e-08
-1.48856e-08
-8.53392e-08
-2.00099e-08
-9.12946e-08
-1.11161e-08
-7.85787e-08
-2.48113e-09
-5.48826e-08
1.67685e-08
-6.6468e-08
7.2802e-09
-9.78239e-08
-3.07526e-08
-1.11624e-07
-1.71543e-08
-9.92997e-08
-1.76498e-08
-5.02392e-08
-6.54458e-08
-6.95558e-08
3.19218e-08
-8.33063e-08
1.8318e-09
-1.1524e-07
1.0767e-08
-8.60366e-08
-2.90682e-08
-9.52031e-08
-1.51703e-08
-8.64579e-08
-1.71382e-08
-6.91399e-08
7.93498e-09
-7.04218e-08
2.12004e-08
-6.85041e-08
1.09228e-08
-5.84701e-08
3.76349e-09