/*--------------------------------*- C++ -*----------------------------------*\
  =========                 |
  \\      /  F ield         | OpenFOAM: The Open Source CFD Toolbox
   \\    /   O peration     | Website:  https://openfoam.org
    \\  /    A nd           | Version:  12
     \\/     M anipulation  |
\*---------------------------------------------------------------------------*/
FoamFile
{
    format      ascii;
    class       surfaceScalarField;
    location    "0.65";
    object      phi.water;
}
// * * * * * * * * * * * * * * * * * * * * * * * * * * * * * * * * * * * * * //

dimensions      [0 3 -1 0 0 0 0];

internalField   nonuniform List<scalar> 
7375
(
-1.56824e-07
5.20397e-08
-7.52052e-08
-4.80937e-08
-1.23089e-08
-5.7376e-08
3.95263e-08
-5.1736e-08
8.63118e-08
-4.68128e-08
1.30666e-07
-4.25935e-08
1.08477e-07
2.21838e-08
1.20874e-07
-1.24233e-08
1.05619e-07
-8.29017e-08
1.48656e-07
5.12336e-08
1.50182e-07
5.37729e-12
1.61168e-07
-1.09914e-08
1.55526e-07
4.01569e-09
1.40566e-07
1.4811e-08
1.33466e-07
8.56047e-09
1.36654e-07
-3.12294e-09
1.36624e-07
1.62524e-11
1.28673e-07
7.90532e-09
1.35749e-07
-5.6899e-09
1.11645e-07
2.52603e-08
1.01153e-07
9.51111e-09
9.45542e-08
5.56752e-09
9.51114e-08
-5.28172e-10
1.02558e-07
-7.46131e-09
1.1215e-07
-8.39952e-09
1.20147e-07
-7.97145e-09
1.30726e-07
-1.1681e-08
1.30525e-07
1.9281e-10
1.35874e-07
-5.35346e-09
1.27669e-07
6.90177e-09
1.32687e-07
-4.96802e-09
1.17792e-07
1.48452e-08
1.13121e-07
5.87163e-09
3.43203e-07
6.65367e-08
1.11295e-07
-6.48016e-08
1.44648e-07
-3.59367e-08
1.62545e-07
-1.62726e-08
1.72335e-07
-9.79333e-09
1.96378e-07
-2.40436e-08
2.13575e-07
-1.71798e-08
2.10977e-07
2.59726e-09
2.00546e-07
1.49202e-08
2.06368e-07
-3.5878e-09
2.06604e-07
-2.33588e-09
2.18397e-07
-1.3763e-08
2.11692e-07
6.64598e-09
1.96367e-07
1.51592e-08
1.75651e-07
2.22667e-08
1.40531e-07
3.50496e-08
1.23209e-07
1.57627e-08
1.27169e-07
-2.6939e-09
1.06907e-07
2.01059e-08
1.21752e-07
-1.59414e-08
1.24957e-07
-1.91584e-09
1.2247e-07
2.50794e-09
1.34523e-07
-1.32888e-08
1.3618e-07
-1.64086e-09
1.43212e-07
-6.94421e-09
1.51275e-07
-6.4435e-09
1.55166e-07
-2.22556e-09
1.54532e-07
-9.26498e-10
1.46001e-07
8.44518e-09
1.29569e-07
1.52457e-08
1.22577e-07
4.44643e-09
1.13658e-07
1.0156e-08
8.6905e-08
2.87831e-08
3.06574e-07
7.14814e-08
8.29627e-08
-6.76173e-08
1.0238e-07
-1.95729e-08
1.13468e-07
-1.1079e-08
1.21462e-07
-9.37682e-09
1.32096e-07
-1.18603e-08
1.25648e-07
7.79549e-09
1.2967e-07
-3.97428e-09
1.55929e-09
-3.80878e-08
2.97787e-08
-4.62544e-08
-2.67142e-08
-1.411e-08
-8.42995e-08
-1.08364e-09
-6.54293e-08
1.74117e-08
-6.61602e-08
6.23367e-08
-8.84108e-08
6.08029e-08
2.44982e-08
-4.29117e-08
-6.01054e-09
1.6623e-07
9.44796e-08
-1.2499e-08
-5.85708e-08
1.99986e-08
-3.24917e-08
1.03103e-07
-9.63338e-08
1.16412e-07
-1.04676e-08
8.50803e-08
4.74681e-08
7.86687e-08
1.50381e-08
9.20681e-08
-1.66901e-08
1.1134e-07
-1.92555e-08
1.23417e-07
-4.12902e-09
1.68202e-07
-4.97224e-08
9.0427e-08
1.04623e-07
5.78814e-08
4.23998e-08
6.60239e-08
-4.38419e-09
6.19975e-08
3.49868e-09
6.18073e-08
-7.26852e-09
6.9148e-08
-1.55825e-08
7.79857e-08
-1.69909e-08
8.90492e-08
-2.38847e-08
8.71804e-08
2.96129e-09
8.41568e-08
-1.44033e-09
8.36675e-08
6.47179e-09
9.09243e-08
-1.31932e-08
8.9797e-08
1.76199e-08
7.79799e-08
1.88692e-08
1.34477e-07
8.479e-09
8.23337e-08
-1.19976e-08
6.20491e-08
-1.66518e-08
7.49556e-08
-3.04078e-08
8.22717e-08
-1.6189e-08
1.02615e-07
-4.43877e-08
1.61345e-07
-7.74746e-08
1.24895e-07
4.32676e-08
1.17299e-07
2.22846e-08
1.40072e-07
-2.90141e-08
1.64439e-07
-2.83564e-08
1.95555e-07
-4.68538e-08
2.17037e-07
-1.50533e-08
2.22774e-07
9.27057e-09
2.04947e-07
4.23436e-08
1.96983e-07
4.23054e-08
1.86181e-07
2.87352e-08
1.58381e-07
2.5657e-08
1.67915e-07
8.68106e-09
1.56461e-07
-2.77418e-09
1.44689e-07
9.75681e-09
1.36108e-07
1.10629e-08
1.3157e-07
-8.75001e-09
1.32984e-07
-4.41203e-09
1.43482e-07
-1.92799e-08
1.54005e-07
-1.72471e-08
1.71894e-07
-1.85369e-08
2.17122e-07
-4.43913e-08
2.11328e-07
1.65645e-08
1.40483e-07
8.50564e-08
1.04835e-07
3.87066e-08
7.55175e-08
3.99851e-08
8.39243e-08
1.952e-08
1.44894e-07
9.69209e-09
9.40651e-08
-1.42058e-08
8.3233e-08
-7.76111e-09
9.40388e-08
-2.1773e-08
7.26798e-08
1.11096e-08
6.79449e-08
-8.07047e-09
6.59638e-08
9.10288e-09
7.47015e-08
-1.25853e-08
1.98425e-08
-1.46483e-07
4.03464e-08
-8.5793e-08
-6.11711e-08
-7.04701e-08
-9.34023e-08
-6.61031e-08
-7.1945e-08
-9.31708e-08
-3.9781e-08
1.0671e-07
2.53894e-09
-9.25202e-08
-6.46659e-08
-9.28454e-08
-6.635e-09
-1.84563e-08
2.00912e-08
-7.5066e-08
-1.96057e-09
-1.28912e-07
2.03717e-08
2.32276e-08
4.43482e-08
8.33657e-09
4.12237e-09
-1.64777e-07
-6.85617e-08
-1.09016e-07
-4.18346e-08
-1.02339e-07
-2.2484e-08
-8.8813e-08
-3.11648e-08
-1.06691e-07
1.17336e-08
8.28412e-08
5.20904e-08
-4.5389e-08
-5.73832e-08
-1.19795e-07
1.98644e-08
-5.33913e-08
2.55023e-08
-5.97563e-08
9.35519e-09
-6.44954e-08
-1.87091e-09
-6.00183e-08
-2.08226e-08
-7.28438e-08
-5.592e-09
-7.24757e-08
-2.37479e-08
-5.65222e-08
-1.20988e-08
-5.49807e-08
-2.42072e-09
-3.79137e-08
-1.05951e-08
-4.55388e-08
-5.6247e-09
-2.27969e-08
-5.12249e-09
-7.9436e-09
3.66825e-09
1.99124e-08
-1.92968e-08
1.8414e-08
-1.04023e-08
7.88904e-09
-6.1087e-09
-3.21094e-09
-1.95883e-08
6.26121e-10
-2.01636e-08
-2.13572e-08
-2.30625e-08
2.26809e-07
-3.20573e-08
1.62204e-08
-4.02769e-08
7.92658e-08
-4.04106e-08
9.76563e-08
-4.7073e-08
1.19713e-07
-5.1409e-08
1.14318e-07
-4.1937e-08
1.11963e-07
-1.39947e-08
1.09246e-07
1.20816e-08
1.0879e-07
4.32358e-08
9.95854e-08
5.30513e-08
8.6414e-08
4.41198e-08
7.23852e-08
3.77847e-08
5.28939e-08
2.75291e-08
3.97829e-08
1.04705e-08
3.77377e-08
1.18021e-08
4.59321e-08
3.2535e-09
2.85793e-08
8.69154e-09
1.12886e-08
1.31092e-08
-1.06392e-08
2.33637e-09
-3.38327e-08
5.92694e-09
-6.69376e-08
1.47243e-08
1.00704e-07
7.79241e-08
9.4316e-08
2.17557e-08
-5.55112e-08
-5.29391e-08
-7.0664e-09
-1.04836e-08
-7.63168e-08
1.19331e-08
1.32156e-08
2.6941e-08
1.74374e-08
5.39205e-09
8.38375e-09
-4.94121e-09
1.59974e-09
-8.1058e-10
-8.9893e-09
-1.10912e-08
-1.81943e-08
2.00156e-08
-3.51713e-08
8.90609e-09
-2.90995e-08
3.68587e-09
-3.49215e-08
-6.89062e-09
3.72848e-09
-9.37031e-08
3.48892e-08
-9.87001e-08
-3.46651e-08
-8.81317e-08
-9.97918e-08
-8.59927e-08
-7.42282e-08
-6.78533e-08
-5.59242e-08
-2.0944e-08
-4.41332e-08
-7.44206e-08
-1.28553e-08
-8.66242e-08
7.03085e-09
-7.74498e-08
1.18011e-08
-1.16958e-07
3.75484e-08
-1.40468e-07
4.10163e-08
-1.56478e-07
5.76663e-08
-1.4561e-07
-4.96869e-09
-2.72641e-07
-3.73311e-08
-2.12595e-07
-2.78927e-09
-2.27778e-07
-9.49093e-09
-2.27999e-07
-3.12647e-08
-1.9412e-07
-2.16794e-08
-1.94944e-07
-4.49238e-08
-1.53562e-07
-4.66875e-10
-1.38296e-07
5.74885e-09
-1.03652e-07
-8.88327e-09
-8.85304e-08
-6.82346e-09
-9.27953e-08
2.39444e-09
-8.33144e-08
-3.13655e-08
-8.27324e-08
-6.11595e-09
-1.11745e-07
-8.88184e-08
-7.35029e-08
4.45467e-08
-7.72083e-08
5.35087e-10
-8.80903e-08
1.80813e-10
-6.98071e-08
-2.31956e-08
-5.41107e-08
-2.08705e-08
-4.78878e-08
-3.14409e-09
-5.39303e-08
-1.41457e-08
-6.55341e-08
5.25958e-10
-6.65855e-08
-4.38193e-09
-1.05181e-07
2.00914e-08
-9.94674e-08
-2.7098e-08
-1.118e-07
-1.21202e-08
1.43156e-07
8.18237e-09
-6.39789e-08
-1.26525e-07
-3.78397e-08
-6.6022e-08
-3.41279e-08
-5.08237e-08
-3.19164e-08
-5.32725e-08
-2.28444e-09
-7.23068e-08
-5.57569e-08
3.94776e-08
-6.84452e-08
2.48931e-08
-5.91216e-08
3.36522e-08
-7.76955e-08
7.29235e-08
-6.31515e-08
2.99183e-08
-5.0958e-08
2.52057e-08
-4.67929e-08
2.34061e-08
-5.85203e-08
2.24268e-08
-6.15216e-08
1.49239e-08
-7.99542e-08
2.10856e-08
-6.29947e-08
-8.26793e-09
-4.61022e-08
-3.14061e-09
-4.94793e-08
6.17067e-09
-4.50384e-08
1.41204e-09
-5.15749e-08
2.08014e-08
-5.70701e-09
3.21145e-08
-1.11525e-08
2.69816e-08
-6.41321e-08
-1.28068e-09
-8.09254e-08
6.30974e-09
-8.26972e-08
1.44086e-08
-5.77309e-08
1.97467e-09
-5.42242e-08
1.40142e-09
-1.88578e-08
-4.03585e-08
-6.43998e-08
4.42752e-08
-9.81488e-08
2.26579e-08
-7.57855e-08
-1.34651e-09
-9.22071e-08
2.49815e-08
-8.52704e-08
-3.25171e-09
-9.22646e-08
9.7426e-10
-1.4185e-08
-7.81686e-08
1.13883e-08
-6.84761e-08
-2.63266e-08
-6.47394e-08
-9.81881e-08
-7.474e-08
-6.28094e-08
-6.46534e-08
-6.54398e-08
-3.0611e-08
-7.86254e-08
4.00681e-08
-8.28353e-08
6.85233e-08
-2.14948e-08
6.42728e-08
1.67513e-08
5.2706e-08
4.86198e-08
4.30817e-08
5.02017e-08
5.68564e-08
4.21533e-08
7.79748e-08
-2.57219e-08
-2.5342e-08
6.71627e-08
-2.45034e-08
-3.87713e-09
-1.26349e-07
-4.94752e-09
-8.31596e-08
2.34646e-08
-9.9317e-08
-5.52132e-09
-1.2015e-07
-2.36314e-08
-5.70825e-08
-6.29518e-08
-8.82875e-08
3.69544e-08
-9.8327e-08
1.65502e-10
-5.88114e-08
-4.58706e-08
-5.53723e-08
-1.04412e-09
-6.7016e-08
-1.99246e-08
-8.05165e-08
7.4473e-09
8.59501e-08
3.27677e-08
-9.76744e-08
-5.73901e-08
-5.75765e-08
-4.15705e-08
-1.38632e-07
-1.60661e-08
-6.87269e-08
4.62359e-09
-7.35907e-08
-1.62195e-08
-7.12645e-08
-6.13466e-09
-8.50521e-08
-3.5451e-10
-7.83231e-08
-5.2868e-09
-6.72536e-08
-1.59304e-08
-1.40466e-07
-3.99871e-09
-4.93076e-08
-2.05139e-08
-3.60637e-08
-2.49857e-08
9.20231e-09
-3.6792e-08
-6.26027e-08
-5.22575e-08
-8.58551e-08
-4.32006e-08
-1.06653e-07
-3.00767e-08
-1.44655e-07
-1.56586e-08
3.91698e-08
3.57754e-08
-1.70601e-07
-4.00803e-08
-1.46939e-07
-2.67931e-10
-1.27645e-07
1.30418e-08
-1.83175e-07
3.13913e-08
-8.28208e-08
2.77429e-08
-3.08731e-08
-2.66995e-08
-7.16912e-08
6.35002e-08
-7.89944e-08
2.8991e-08
-7.31923e-08
9.18113e-09
-1.66083e-07
1.66739e-08
-1.06058e-07
2.97958e-08
-1.03986e-07
-5.21303e-09
-9.78496e-08
1.03287e-09
-9.87935e-08
2.37034e-09
-9.42406e-08
1.52407e-08
-7.07289e-08
8.60283e-09
-5.80357e-08
1.39716e-08
-8.20978e-08
2.27814e-08
-8.02367e-08
5.22177e-09
-8.48998e-08
1.92682e-08
-1.13732e-07
2.99524e-08
-1.52728e-07
4.03969e-08
3.58597e-08
6.19529e-08
-1.54921e-07
-5.38728e-08
-7.68442e-08
-5.56505e-08
-1.12301e-07
3.49002e-08
-6.9262e-08
-1.80585e-08
-5.79983e-08
-1.50693e-08
-1.32883e-07
-1.90948e-08
6.37198e-09
-8.81467e-08
8.69792e-10
-5.28786e-08
-3.97753e-08
-6.15215e-08
-8.59441e-08
-8.60911e-08
-3.76117e-08
-9.14041e-08
-6.01263e-08
-1.29348e-07
-1.37069e-07
-7.02089e-08
-4.71129e-08
-8.38657e-08
-8.77297e-09
-1.50501e-08
-5.19102e-08
-3.44885e-08
6.73783e-08
-3.18293e-08
4.71913e-08
-5.2895e-08
6.31101e-08
1.27449e-07
8.55766e-08
-9.51349e-08
-4.7708e-10
-7.61159e-08
-2.28954e-08
-1.11196e-07
3.01842e-08
-6.57224e-08
-2.20088e-08
-7.18734e-08
6.30367e-10
-1.95831e-07
4.01736e-09
9.53372e-08
3.08049e-08
-1.39679e-07
-1.1289e-07
-1.16023e-07
-2.20815e-08
-5.36734e-08
-1.28824e-08
-4.37533e-08
-1.19576e-08
-4.83182e-08
-1.53593e-08
-3.73775e-08
-3.00016e-09
-9.84833e-09
5.2929e-09
-5.26577e-08
-1.57031e-08
-8.95711e-08
-4.70533e-09
-8.54664e-08
-1.89001e-08
-5.92509e-08
-2.13737e-08
-3.54326e-08
-3.96763e-08
-1.05559e-08
-3.122e-08
2.30115e-08
-3.42574e-08
3.98892e-08
-2.2335e-08
3.26604e-08
-8.38357e-09
2.34967e-08
5.53893e-09
2.03237e-08
-1.75484e-08
8.97622e-09
-1.38691e-08
2.37179e-08
-5.221e-08
-5.16078e-08
2.38287e-08
-7.98355e-08
-1.51242e-08
-1.04856e-07
-5.61568e-09
-1.19453e-07
-2.13148e-09
-8.62239e-08
2.20368e-09
-1.29017e-07
2.71319e-09
-1.36063e-07
6.77772e-09
-1.33323e-07
1.15286e-08
-1.28601e-07
2.6352e-08
-1.4745e-07
4.3776e-08
4.59559e-08
7.18016e-08
-1.4026e-07
-3.864e-08
-6.15512e-08
-5.05289e-08
-1.09141e-07
5.67709e-08
-1.13912e-07
2.12752e-08
-9.40435e-08
9.92703e-09
-1.08054e-07
8.7973e-09
-1.10463e-07
3.44178e-09
-1.18958e-07
1.08903e-08
-1.08624e-07
4.90618e-09
-1.06272e-07
6.25118e-09
-1.13246e-07
2.07342e-08
-1.13161e-07
2.24641e-08
-1.18875e-07
9.72291e-09
-1.46058e-07
4.49458e-08
-1.41215e-07
2.66148e-08
-1.36646e-07
3.68564e-08
-9.0886e-08
1.61927e-08
-1.51763e-07
7.00466e-09
4.79471e-08
3.30789e-08
-1.34306e-07
-6.88583e-08
-9.28288e-08
-6.01436e-08
-3.16952e-08
-7.62038e-08
-8.74291e-08
3.59487e-08
-2.15408e-08
-1.11054e-07
2.45888e-08
-1.24668e-07
-6.82814e-10
-7.19508e-08
-1.33968e-07
-1.28046e-07
1.99525e-08
-1.89706e-07
-4.0599e-10
-4.91045e-08
1.35912e-08
-4.26235e-08
-5.35728e-08
-1.95868e-07
-1.44022e-07
-4.96515e-09
4.61674e-08
-1.57435e-07
-6.54821e-08
-1.00411e-07
-1.14387e-08
-6.53038e-08
2.77212e-08
-2.33184e-08
4.29567e-08
-4.50315e-08
2.12366e-08
-6.83184e-08
-6.79124e-11
-3.93409e-08
1.20733e-09
-3.99371e-08
-2.1412e-08
-1.6049e-08
-2.32571e-08
-9.60389e-08
-1.13221e-08
3.13053e-08
-1.2016e-09
-6.14528e-08
-1.91852e-08
-5.03428e-08
-3.3191e-08
-3.0861e-08
-3.33489e-08
-7.68042e-09
-3.47829e-08
-1.55422e-08
-7.26626e-09
-1.30291e-08
-5.64578e-09
-2.33544e-08
1.57812e-08
-4.02068e-08
9.77589e-10
-4.48589e-08
4.53193e-10
-3.20507e-08
-3.09314e-08
-3.34025e-08
-2.03455e-08
-2.30136e-08
-5.06406e-08
-3.8255e-08
-1.61341e-08
-5.19657e-08
-2.07173e-08
-3.81223e-08
-3.71745e-08
-1.29461e-07
-1.44335e-08
-6.55394e-08
3.88512e-08
-9.18159e-08
7.79128e-09
-1.32926e-07
2.57277e-08
6.07225e-08
4.68804e-08
-1.67306e-07
-3.74486e-08
-1.47263e-07
-3.64519e-08
-1.53468e-07
5.30585e-10
-1.60137e-07
4.46964e-09
-1.81302e-07
2.33685e-08
-1.61901e-07
-1.48381e-08
-1.6113e-07
6.00631e-09
-1.50006e-07
4.04841e-10
-1.22168e-07
-1.21716e-09
-1.01748e-07
2.33555e-08
-8.06774e-08
5.13455e-08
-1.33713e-07
1.31788e-08
6.57854e-08
4.05013e-08
-1.32459e-07
-3.45853e-08
-9.98134e-08
-1.13701e-08
-8.97414e-08
-1.44931e-10
-8.91809e-08
8.23681e-09
-9.05989e-08
4.8599e-09
-9.19529e-08
1.22443e-08
-9.41563e-08
7.10961e-09
-1.11262e-07
2.42447e-08
-9.97668e-08
9.33332e-09
-1.04879e-07
2.65584e-08
-1.06791e-07
1.16348e-08
-1.046e-07
4.22963e-08
-1.03535e-07
2.52781e-08
-8.57437e-08
1.88728e-08
-7.3333e-08
3.78197e-09
-7.57079e-08
9.3795e-09
-4.41593e-08
1.53032e-09
-8.05996e-08
-3.31208e-08
-1.16731e-07
-2.40124e-08
7.35133e-08
2.09522e-08
-9.79758e-08
-7.85736e-08
-4.26667e-08
-8.83906e-08
3.14685e-09
-2.19044e-07
5.03133e-08
2.76367e-08
3.03221e-08
-1.97809e-07
-4.53674e-08
-2.37397e-07
-5.56731e-08
-1.23656e-07
-2.55199e-09
-1.56356e-07
-2.18101e-08
-9.40361e-09
-2.04494e-09
-1.54245e-07
-9.79196e-08
-1.50903e-07
-6.94922e-08
-1.20998e-07
-4.01082e-08
-9.48885e-08
1.59608e-09
-6.56622e-08
1.26342e-08
-5.36675e-08
8.82165e-09
-6.34197e-08
9.58615e-09
-5.11948e-08
-1.037e-08
-4.59951e-08
-2.63423e-08
-6.05797e-08
-8.5843e-09
-7.00203e-08
-1.88093e-09
-3.82899e-08
-3.2611e-08
-4.34636e-08
-1.4011e-08
-5.87223e-08
-1.88694e-08
-5.99902e-08
-3.11413e-08
-6.65675e-09
-8.83349e-08
1.49778e-09
-1.56456e-08
3.59872e-08
-4.01621e-08
-1.48888e-08
6.64948e-08
-2.34495e-08
9.92975e-09
-1.76919e-08
-5.30879e-09
-2.88703e-08
-2.04576e-08
-2.15889e-08
-2.75532e-08
-4.67902e-08
-2.49619e-08
-5.28809e-08
-1.04145e-08
-1.47116e-07
-2.58456e-08
-1.08759e-07
2.32869e-08
-1.28006e-07
7.45171e-09
-9.72772e-08
8.1226e-09
-9.00187e-08
-4.59787e-10
-7.116e-08
6.60642e-09
-1.59378e-08
-8.82022e-09
-5.46862e-08
1.85755e-09
-6.37546e-08
-2.73836e-08
-7.86393e-08
1.47593e-08
-9.10488e-08
1.6879e-08
-9.10923e-08
2.31734e-08
-1.09043e-07
3.11242e-09
-1.07702e-07
4.66558e-09
-1.11999e-07
4.7011e-09
-1.24803e-07
1.15875e-08
-9.92518e-08
-3.20868e-09
-1.58066e-07
1.12284e-08
-1.43759e-07
6.43021e-10
-7.52288e-08
6.93344e-08
-1.16298e-07
6.41804e-09
-1.29452e-07
1.78413e-09
-1.30571e-07
9.84469e-10
-1.01357e-07
-2.09774e-08
-1.1303e-07
1.65329e-08
-1.04702e-07
3.91686e-09
-1.00059e-07
3.48728e-09
-1.01886e-07
2.50423e-08
-1.07952e-07
1.44458e-08
-9.37949e-08
1.35026e-08
-8.37024e-08
1.54228e-09
-7.00218e-08
2.83267e-08
-5.10849e-08
6.86234e-09
-3.82598e-08
6.04756e-09
-4.35348e-08
8.66654e-09
-5.24116e-08
1.82563e-08
-4.95455e-08
-1.33591e-09
-6.8249e-08
-1.44176e-08
-6.73455e-08
-2.51734e-08
-4.80758e-08
1.68157e-09
-8.02857e-08
-4.71656e-08
-2.259e-08
-7.37007e-08
-2.07365e-08
-7.52452e-08
6.93442e-08
-3.88962e-08
1.22945e-09
-1.02149e-07
1.90641e-08
-1.45502e-07
-1.29256e-08
-1.25006e-07
-2.43487e-08
-1.2197e-07
-2.45918e-08
-7.92178e-08
-4.35524e-08
-9.86611e-08
-7.84758e-08
-9.47755e-08
-7.26362e-08
-7.15715e-08
-6.32266e-08
-5.57918e-08
-1.36034e-08
-2.98147e-08
-1.36046e-08
-1.08749e-08
-1.02058e-08
1.42477e-08
-1.57424e-08
1.75146e-08
-1.36697e-08
3.17355e-08
-4.13001e-08
3.49717e-08
-1.13845e-08
5.40785e-08
-2.09681e-08
3.74071e-08
-1.5939e-08
2.05153e-08
3.26298e-09
1.56653e-08
-1.41787e-08
-2.92207e-08
1.37647e-08
1.00268e-07
7.46758e-08
-2.16067e-08
1.04812e-07
1.38643e-07
9.07824e-08
-6.33648e-08
-2.22912e-08
-4.42099e-08
-9.22493e-09
-4.75277e-08
-2.52974e-09
-6.01469e-08
-7.21828e-09
-5.41232e-08
-3.33057e-08
-6.9039e-08
-1.07074e-08
-7.77352e-08
-1.84337e-09
-1.17135e-07
1.39607e-08
-1.05849e-07
1.05753e-08
-1.09726e-07
1.13283e-08
-8.97141e-08
-1.0687e-08
-1.03228e-07
1.30538e-08
-8.81824e-08
-8.43911e-09
-9.61344e-08
-8.6836e-10
-8.5312e-08
-8.96496e-09
-8.45878e-08
-2.868e-08
-8.85653e-08
1.87366e-08
-8.71152e-08
1.54288e-08
-8.91723e-08
2.52304e-08
-1.10217e-07
2.41573e-08
-1.04515e-07
-1.02649e-09
-9.98408e-08
2.70102e-11
-7.91568e-08
-9.09659e-09
-7.95474e-08
-2.8182e-09
-1.01585e-07
3.21155e-08
-1.37956e-07
3.7007e-08
-7.76354e-08
1.12131e-08
-7.73758e-08
6.1584e-09
-8.63927e-08
9.13037e-09
-1.66568e-07
-1.61429e-08
-9.19259e-08
2.38983e-09
-9.78803e-08
2.24874e-08
-9.62329e-08
2.2695e-09
-9.85836e-08
5.89815e-09
-8.4834e-08
1.15482e-08
-9.0949e-08
2.04135e-08
-7.93707e-08
1.9242e-09
-9.62204e-08
1.93737e-08
-6.44563e-08
-3.40322e-09
-6.11156e-08
2.86407e-09
-3.79636e-08
-1.70429e-08
-3.77577e-08
8.46054e-09
-4.93864e-08
2.9885e-08
-6.50795e-08
1.43571e-08
-8.07313e-08
4.10329e-10
-1.11949e-07
6.10691e-09
-8.85925e-08
-2.05344e-08
-1.22102e-07
-1.50557e-08
1.96407e-09
-6.88087e-08
-7.69603e-08
-6.1609e-08
7.31239e-08
-7.85938e-08
2.27855e-08
-5.29666e-08
-4.50318e-09
-5.96683e-08
-6.22346e-09
-4.32955e-08
-4.00793e-08
-2.8284e-08
-3.93545e-08
-2.84665e-08
-4.36579e-08
-5.68948e-08
-4.94666e-08
-5.45355e-08
-7.47903e-08
-3.75754e-08
-8.07482e-08
-8.46559e-08
3.37223e-08
-7.88416e-08
-1.87528e-08
-5.48899e-08
-3.42599e-08
-5.1122e-08
-2.04387e-08
-4.23753e-08
-2.28481e-08
-8.44968e-08
1.28043e-09
-3.19162e-08
-6.29038e-08
2.78294e-09
-5.65602e-08
-5.92158e-08
4.59261e-08
-6.8578e-08
1.26257e-08
-7.64383e-08
-6.31796e-09
-6.66824e-08
3.46944e-09
1.33059e-08
-6.08169e-09
-1.26486e-07
-4.37928e-08
-3.78406e-08
1.6025e-09
-5.87445e-08
-1.78716e-09
-7.44386e-08
5.93068e-09
-7.27327e-08
-4.23542e-09
-1.04101e-07
2.34001e-08
-1.27762e-07
-1.1304e-08
-1.68249e-07
2.90628e-08
-1.57753e-07
-1.2231e-08
-1.53809e-07
1.32276e-08
-1.36245e-07
-5.43545e-09
-1.40965e-07
1.45427e-08
-1.32652e-07
-1.89996e-08
-1.28058e-07
8.37358e-09
-1.24486e-07
-1.21349e-08
-1.38363e-07
1.3009e-08
-1.32622e-07
-1.60599e-08
-1.6383e-07
2.52851e-09
-1.33338e-07
-1.00843e-08
-1.23624e-07
5.71436e-09
-1.03377e-07
4.98358e-09
-9.6637e-08
1.8403e-08
-8.28488e-08
-1.48148e-08
-8.56164e-08
1.94933e-09
-2.528e-08
-7.01487e-08
-3.10567e-08
2.95845e-09
-7.85368e-08
7.87917e-08
-7.12156e-08
2.93083e-08
-5.74138e-08
-2.58866e-09
-5.22128e-08
1.0202e-09
-4.27211e-08
-3.61311e-10
-7.44833e-08
1.5784e-08
-9.28633e-08
2.09839e-08
-7.46331e-08
4.25717e-09
-7.878e-08
5.61277e-09
-9.40315e-08
2.11496e-08
-8.78279e-08
6.30398e-09
-8.66114e-08
1.9197e-08
-9.08255e-08
6.13837e-09
-1.75742e-07
9.77297e-09
-7.85291e-08
-5.2601e-09
-6.74732e-08
-8.99308e-09
-1.59171e-08
-6.8599e-08
-2.47944e-08
1.73377e-08
-6.02226e-08
6.46536e-08
-7.20839e-08
2.62182e-08
-7.84531e-08
5.91852e-09
-8.44959e-08
1.2086e-08
-8.93816e-08
-1.58612e-08
-1.43902e-07
3.94641e-08
9.63939e-09
1.04087e-07
1.55234e-07
-1.17769e-07
-5.55173e-08
-8.34275e-08
-3.67672e-09
-4.85861e-08
-3.67907e-08
-3.44939e-08
-2.06036e-08
-2.89271e-08
-4.56457e-08
-1.25284e-08
-5.52949e-08
5.88785e-08
-1.15064e-07
-8.08731e-08
-5.14672e-09
-4.60452e-08
-1.50358e-08
1.19264e-07
4.36718e-08
-1.39277e-07
-9.29753e-08
-5.37541e-08
-7.96505e-09
-7.99256e-08
-9.34815e-09
-9.56463e-08
-4.7174e-09
-9.17235e-08
-2.67303e-08
-1.8347e-07
-4.28773e-09
-1.21073e-07
-2.92949e-08
2.30615e-08
9.06301e-08
-1.90413e-07
-2.97632e-08
-1.37203e-07
-4.05841e-08
-1.53622e-07
1.02061e-08
-1.25496e-07
-2.46562e-08
-8.595e-08
-4.46884e-08
-7.52771e-08
-5.44653e-08
-1.26128e-07
5.0935e-08
-1.38024e-07
8.6681e-09
-1.48483e-07
1.76306e-08
-1.5989e-07
7.12873e-09
-1.43506e-07
7.01579e-09
-1.55895e-07
4.21215e-09
-1.23894e-07
-3.23133e-09
-1.23321e-07
-1.39433e-08
-1.13191e-07
2.93283e-09
-1.04824e-07
-1.40005e-08
-9.36874e-08
3.40569e-09
-1.09413e-07
-2.1574e-09
-9.14181e-08
-1.05452e-08
-1.08889e-07
4.39403e-09
-9.07436e-08
-4.02592e-09
-1.08948e-07
2.14407e-09
-1.20539e-07
1.40941e-08
-1.16539e-07
-1.40842e-08
-1.07232e-07
-3.59314e-09
-1.06319e-07
4.07076e-09
-1.05034e-07
1.71172e-08
-1.05972e-07
-1.40277e-08
-1.4295e-07
3.70903e-08
9.47467e-09
7.00559e-08
1.75256e-08
-5.36803e-09
-1.35113e-07
-5.45814e-08
-7.83635e-08
-2.88193e-08
-7.70024e-08
-3.9498e-09
-6.58056e-08
-1.01767e-08
-6.34724e-08
-2.69444e-09
-5.5108e-08
6.85737e-09
-1.42673e-07
1.12463e-08
-7.19712e-08
3.1321e-08
-9.5914e-08
2.98602e-08
-9.01573e-08
1.51771e-08
-9.62049e-08
1.23517e-08
-6.65632e-08
-1.03392e-08
-6.71185e-08
6.69357e-09
-1.48765e-07
-3.37215e-09
-7.74205e-08
1.84921e-08
-1.11395e-07
2.41918e-08
5.97142e-08
4.92205e-08
5.45969e-08
2.18979e-08
-9.97402e-08
-6.70207e-08
-6.43594e-08
-9.52375e-09
-5.75855e-08
-8.64345e-10
-4.96431e-08
2.92559e-09
-3.22794e-08
-3.32262e-08
-8.94239e-08
9.55604e-08
3.22072e-08
-3.70455e-08
3.82414e-08
-1.01754e-07
-9.20384e-08
-1.18877e-08
1.45772e-08
-2.38758e-08
-2.45596e-08
-3.40352e-08
-1.04437e-08
-6.16443e-08
-1.69415e-08
-9.41827e-08
-2.27561e-08
7.8424e-08
-5.02237e-10
-1.45802e-07
-6.69318e-08
-1.095e-07
-5.46527e-08
-7.26005e-08
6.77307e-09
-1.23682e-07
-4.11529e-08
-1.11222e-07
-2.15584e-08
-1.81615e-07
-3.6257e-08
-1.10523e-07
2.24015e-08
-1.34849e-07
-2.42836e-09
-1.71475e-07
3.06332e-08
3.67182e-08
5.44195e-08
-1.22829e-07
-4.00502e-08
-1.2631e-07
-2.62821e-08
-1.33287e-07
-3.53262e-08
-2.04306e-07
-1.60766e-08
-1.36968e-07
6.39936e-09
-1.95858e-07
1.42025e-08
1.16232e-08
2.68196e-08
-2.64158e-07
-6.24929e-08
-1.7318e-07
1.83731e-08
-1.57619e-07
3.00043e-10
-1.64786e-07
1.25428e-08
-1.56065e-07
1.49656e-09
-1.4726e-07
-4.54686e-09
-1.22745e-07
-2.95833e-08
-1.17127e-07
-1.83666e-08
-1.02465e-07
-1.26366e-08
-1.2377e-07
6.24899e-09
-1.21527e-07
2.4255e-09
-1.33367e-07
9.68161e-09
-1.20395e-07
-2.36243e-08
-1.20267e-07
4.22102e-09
-9.62083e-08
-2.80847e-08
-1.02943e-07
8.87875e-09
-9.77502e-08
8.9011e-09
-1.01562e-07
-1.02725e-08
-1.10731e-07
5.57517e-09
-1.14555e-07
7.89557e-09
-8.97034e-08
-7.73494e-09
-1.22342e-07
1.98591e-08
-8.13714e-08
-4.70229e-09
-1.10419e-07
2.42487e-10
-4.37513e-08
2.54007e-08
-8.01164e-08
-1.87733e-08
-8.35833e-08
-2.53524e-08
-8.30064e-08
-4.52673e-09
-6.85436e-08
-2.46395e-08
-6.62993e-08
-4.93882e-09
-7.07423e-08
1.13003e-08
-9.34635e-08
3.38528e-08
-8.69388e-08
2.39093e-08
-1.6077e-07
6.38847e-09
-4.44985e-08
-3.17646e-09
-1.57983e-07
3.11381e-08
-8.57059e-08
1.27208e-08
-1.00504e-07
2.06176e-08
-1.01603e-07
-1.23691e-09
-7.57599e-08
-7.0927e-09
-7.18192e-08
1.94781e-08
-2.39147e-08
1.32952e-09
-2.95038e-08
2.72093e-08
-7.52513e-08
-2.1957e-08
-8.08946e-08
-4.70594e-09
-8.44915e-08
2.72333e-09
-1.06915e-07
2.62101e-08
7.05909e-08
7.70292e-08
-9.0716e-08
-2.88532e-08
1.38387e-08
-5.31471e-08
-2.06414e-08
-1.07784e-07
-1.27358e-07
1.63654e-08
-7.16317e-09
3.62387e-09
-1.18635e-08
-2.058e-08
1.37606e-08
-3.97932e-08
2.27213e-09
-5.96208e-08
-3.1601e-09
-5.73276e-08
-2.79493e-09
-8.86713e-08
-3.7175e-08
-1.16423e-07
-2.69005e-08
-1.86145e-07
-1.86959e-08
-1.23846e-07
-7.14157e-09
-1.19502e-07
-2.59013e-08
-1.34902e-07
-2.04871e-08
-1.03962e-07
-9.50077e-09
-1.85253e-07
-1.86314e-08
-1.05334e-07
4.89142e-08
-6.76388e-08
1.63363e-08
-1.0752e-07
-1.68616e-10
-1.04917e-07
-2.99543e-08
-1.30999e-07
-9.24401e-09
-1.39345e-07
-6.2298e-09
-1.34013e-07
1.06814e-09
-1.29979e-07
8.84244e-09
-1.05573e-07
2.41431e-09
-1.54174e-07
-1.21774e-08
-1.33115e-07
-2.68533e-09
-1.22668e-07
-8.8918e-09
-1.08417e-07
-1.83505e-09
-1.08404e-07
1.46858e-09
-8.71269e-08
-2.64821e-08
-8.61139e-08
-3.11729e-08
-8.28748e-08
-1.98816e-08
-8.30259e-08
-1.26131e-08
-9.67551e-08
1.88748e-08
-8.93983e-08
-4.88154e-09
-6.84925e-08
-1.12242e-08
-9.63615e-08
4.24459e-09
-6.5534e-08
-2.66066e-08
-5.03042e-08
-4.3761e-08
-7.86483e-08
3.72227e-08
-8.90946e-08
1.93474e-08
-9.48332e-08
-4.53402e-09
-1.004e-07
1.10293e-08
-8.34567e-08
-9.04784e-09
-7.14935e-08
-1.96982e-08
-7.39842e-08
2.23497e-08
-6.9987e-08
-9.46153e-09
-1.0042e-07
3.06727e-08
-6.41101e-08
-9.88475e-09
-7.3476e-08
-9.31241e-09
-9.23007e-08
-6.59499e-09
-1.05712e-07
8.88463e-09
-8.94349e-08
-4.09167e-08
-5.02418e-08
-4.41319e-08
-7.71398e-08
3.81982e-08
-8.92182e-08
4.59311e-08
-9.71081e-08
3.17993e-08
-1.15832e-07
2.38657e-08
-1.37769e-07
1.89558e-08
-1.1982e-07
1.45947e-08
-1.10398e-07
3.42779e-09
-9.53105e-08
5.53051e-09
-1.13122e-07
1.7911e-08
-9.12802e-08
-2.9006e-08
-8.33118e-08
9.72841e-09
-8.29553e-08
1.82789e-09
-5.94409e-08
4.48716e-09
-6.81787e-08
-1.38257e-08
-6.76938e-08
-5.19106e-09
-6.58462e-08
8.47636e-10
-4.73969e-08
8.24363e-09
1.7658e-08
1.17947e-08
3.57891e-10
-1.16699e-08
1.20383e-08
-8.80286e-08
-3.89814e-08
-3.59318e-08
-1.67815e-07
-4.35497e-08
3.29718e-09
-3.72073e-08
-1.73258e-08
-4.24391e-08
1.86132e-08
-4.48291e-08
4.66264e-09
-5.93823e-08
1.13935e-08
-6.05978e-08
-1.5789e-09
-8.5819e-08
-1.19532e-08
-9.84698e-08
-1.39748e-08
-1.01877e-07
-1.51334e-08
-8.85837e-08
-2.04346e-08
-8.96508e-08
-2.48336e-08
-7.81029e-08
-3.12376e-08
-3.45857e-08
-5.33667e-08
-1.42346e-07
8.89651e-08
-1.02061e-07
9.04074e-09
-1.08786e-07
2.30621e-08
-8.52822e-08
-2.25623e-08
-1.02356e-07
-1.28803e-08
-1.11655e-07
1.49639e-10
-1.03875e-07
-1.4009e-08
-9.22005e-08
-1.06057e-08
-8.42768e-08
9.19138e-10
-8.49871e-08
3.10039e-09
-9.28039e-08
-4.36028e-09
-9.29206e-08
-2.56826e-09
-1.03364e-07
1.55229e-09
-8.42473e-08
-1.99081e-08
-5.56921e-08
-2.65239e-08
-5.29983e-08
-2.94704e-08
-3.87241e-08
-4.56674e-08
1.56177e-08
-7.46183e-08
2.17186e-08
-1.90642e-08
-2.17533e-08
6.25665e-08
-3.43501e-08
7.49559e-09
1.67435e-08
-6.26683e-08
-3.78441e-08
5.88322e-08
-8.92068e-08
2.40917e-08
9.15928e-08
6.66594e-08
-9.94293e-08
-6.16188e-08
-5.84402e-08
-2.16418e-08
-5.29007e-08
-9.53395e-09
-4.04385e-08
-1.433e-09
-4.14783e-08
-8.42071e-09
-4.7732e-08
-1.34446e-08
-3.70094e-08
1.15096e-08
-4.86671e-08
2.19603e-09
-4.33986e-08
2.50912e-08
-6.1095e-08
8.43488e-09
-7.56235e-08
4.49765e-09
-9.95944e-08
1.65965e-08
-1.01341e-07
1.15292e-08
-1.6774e-07
2.54822e-08
4.58216e-08
3.1236e-08
-1.21729e-07
-8.31799e-08
-1.13737e-07
3.75557e-08
-1.06099e-07
2.39174e-08
-1.07428e-07
2.38553e-08
-1.3053e-07
4.14346e-08
-1.23735e-07
9.13206e-09
-1.3377e-07
1.34624e-08
-1.26224e-07
-3.3029e-09
-1.97197e-07
-8.41929e-09
-1.25651e-07
-2.55251e-09
-1.11977e-07
-3.94576e-09
-1.22114e-07
1.31918e-08
-9.39577e-08
-2.36235e-08
-9.96682e-08
-9.07393e-09
-8.05217e-08
-2.40921e-08
-7.49437e-08
-4.73069e-09
-6.6143e-08
-5.57954e-10
-5.17047e-08
-2.4987e-09
-1.90157e-08
-4.44785e-08
4.53838e-08
-9.44048e-08
-1.57408e-08
1.07981e-07
-1.59892e-08
-7.08298e-08
-1.23186e-07
-8.32384e-08
-3.64835e-09
-9.22853e-08
2.73812e-08
-9.53234e-08
7.70128e-09
-8.95916e-08
5.66225e-09
-8.00521e-08
-1.11179e-08
-8.86346e-08
-3.33616e-09
-8.57349e-08
-1.59993e-08
-7.51555e-08
-2.57123e-08
-6.79049e-08
-2.84514e-08
-6.25161e-08
-3.02219e-08
-1.09573e-07
1.582e-08
8.81078e-08
3.73377e-08
-1.59737e-07
-4.93359e-08
-4.29972e-08
-1.1389e-08
-3.50619e-08
1.48921e-08
-6.94226e-08
1.1799e-08
-1.01627e-07
1.93248e-08
-1.02748e-07
1.27117e-09
-8.36982e-08
-3.30585e-08
-9.00541e-08
-4.2494e-09
-7.8787e-08
-1.03476e-08
-6.67561e-08
-8.93005e-09
-5.60445e-08
-1.49194e-08
-5.17648e-08
-6.8476e-09
-1.1797e-07
-2.70719e-08
-5.46324e-08
1.20912e-08
-6.31486e-08
-1.88355e-08
-6.54707e-08
-2.74488e-08
-4.92154e-08
-6.30314e-08
6.30874e-08
1.02008e-07
5.30284e-08
-9.00516e-09
-1.18552e-07
-1.52004e-07
-1.69926e-07
5.89464e-08
5.19882e-08
1.00656e-07
-1.34902e-07
-4.45828e-08
-1.12702e-07
3.05337e-09
-4.59749e-08
3.96881e-10
-8.91137e-08
-1.89491e-08
-8.52603e-08
-2.52378e-08
-6.73083e-08
-2.77693e-08
-6.11864e-08
-7.56961e-09
-4.19094e-08
-2.76979e-08
-5.1623e-08
-3.20439e-09
-3.25672e-08
-7.54624e-09
-2.96619e-08
-1.04159e-09
-2.36511e-08
1.90803e-08
-3.63308e-08
2.05344e-08
-5.2827e-08
2.08254e-08
-4.34471e-08
8.02941e-09
-4.2802e-08
1.07752e-08
-3.07287e-08
1.29722e-08
-2.30697e-08
2.35768e-08
1.33799e-07
4.7516e-08
-4.82102e-08
-6.596e-08
-9.44809e-09
-1.52362e-08
-4.57217e-09
1.89301e-08
1.48892e-09
3.49088e-08
-2.45645e-08
3.52006e-08
-4.82215e-08
3.71193e-08
-6.86984e-08
1.73509e-08
-9.98228e-08
2.17726e-08
-1.02585e-07
2.09077e-10
-9.63603e-08
-9.12361e-09
-8.30377e-08
-1.31031e-10
-8.00887e-08
-2.68137e-08
-1.4318e-07
-4.08316e-08
-6.72862e-08
-4.64908e-09
-5.76834e-08
-1.50203e-08
-6.05573e-08
2.93291e-09
-7.93787e-08
1.63214e-08
1.05405e-07
5.93268e-08
-2.5582e-08
-1.06256e-07
-8.78952e-09
-4.40443e-08
-5.70666e-08
6.15158e-08
6.88784e-08
-1.20261e-07
-1.11337e-07
-1.03453e-07
1.04682e-08
-1.00408e-07
3.60115e-09
-8.66332e-08
-8.11191e-09
-7.41376e-08
-2.28567e-08
-6.21191e-08
-1.52007e-08
-6.39339e-08
-1.48177e-08
-6.29995e-08
-2.69084e-08
-6.65162e-08
-2.49342e-08
-8.58247e-08
-1.09128e-08
-6.08632e-08
-9.14099e-09
-2.16627e-08
-1.86227e-09
-6.95508e-08
-1.44724e-09
-8.08488e-08
-9.03803e-11
-5.26267e-08
-1.33295e-08
-4.37903e-08
2.96324e-09
-1.01459e-07
-1.93157e-08
-1.06936e-07
6.74882e-09
-5.95033e-08
1.58187e-08
-5.94772e-08
-4.23182e-09
-5.60214e-08
-1.38029e-08
-4.26242e-08
-2.1892e-08
-4.36855e-08
-1.38578e-08
-4.09981e-08
-9.46554e-09
-5.12903e-08
-1.67794e-08
-4.57146e-08
6.11596e-09
-6.80332e-08
3.48324e-09
-1.16743e-07
2.00705e-08
5.49099e-08
5.78186e-08
-9.5963e-08
-3.66084e-08
-8.82943e-08
-1.75745e-08
1.17321e-08
4.02916e-08
-1.87901e-07
-3.04694e-08
-8.25773e-08
-4.6205e-09
-1.13077e-07
-1.40831e-08
-1.00587e-07
-9.4683e-09
-8.86708e-08
-1.16335e-08
-7.20193e-08
-3.48661e-08
-8.01966e-08
-1.78704e-08
-8.19862e-08
-2.70856e-08
-8.90784e-08
3.58943e-10
-9.48092e-08
-2.21936e-08
-9.51417e-08
-2.87199e-09
-8.32586e-08
-1.95064e-08
-2.99005e-08
-5.49605e-08
-5.38664e-08
4.31554e-08
-5.81479e-08
2.5403e-08