/*--------------------------------*- C++ -*----------------------------------*\
  =========                 |
  \\      /  F ield         | OpenFOAM: The Open Source CFD Toolbox
   \\    /   O peration     | Website:  https://openfoam.org
    \\  /    A nd           | Version:  12
     \\/     M anipulation  |
\*---------------------------------------------------------------------------*/
FoamFile
{
    format      ascii;
    class       volVectorField;
    location    "0.65";
    object      U.water;
}
// * * * * * * * * * * * * * * * * * * * * * * * * * * * * * * * * * * * * * //

dimensions      [0 1 -1 0 0 0 0];

internalField   nonuniform List<vector> 
3750
(
(0.00485 -0.0256635 0)
(-0.00548821 -0.00443332 0)
(-0.00478211 -0.00738786 0)
(-0.00363757 0.00394044 0)
(-0.0031071 0.005025 0)
(-0.00268677 0.0102912 0)
(-0.000370773 0.00656096 0)
(-0.00281711 0.00707294 0)
(-0.00204044 0.00871016 0)
(0.00197742 0.0109361 0)
(-0.000645953 0.0084111 0)
(0.000175648 0.012846 0)
(0.00114755 0.0159153 0)
(0.00176786 0.015315 0)
(0.00103021 0.0119606 0)
(0.00151801 0.0122824 0)
(-5.70455e-05 0.0126652 0)
(0.00139357 0.0117632 0)
(-8.33651e-05 0.0133859 0)
(0.00209459 0.0120543 0)
(0.000260011 0.0108205 0)
(0.00049579 0.00977437 0)
(0.000258619 0.00820307 0)
(-0.000537379 0.0104346 0)
(-0.000860793 0.00982188 0)
(0.000107508 0.0108806 0)
(-0.000876299 0.0130641 0)
(0.000125952 0.0118133 0)
(-3.01583e-05 0.0129736 0)
(6.46134e-05 0.0134556 0)
(-0.000197294 0.0124798 0)
(0.00114549 0.0116347 0)
(-0.000229335 0.0122599 0)
(0.00304564 0.0203105 0)
(-0.00450387 0.0218607 0)
(-0.00262475 0.0121625 0)
(-0.000878339 0.0120613 0)
(-0.000240474 0.0161264 0)
(-0.00142931 0.017677 0)
(-0.000671582 0.0190749 0)
(-0.000460805 0.021029 0)
(-9.78795e-05 0.0204098 0)
(0.000843554 0.019837 0)
(0.000573746 0.0211913 0)
(0.000399734 0.0211798 0)
(0.00138137 0.0214718 0)
(0.00148292 0.0210686 0)
(0.00122188 0.016985 0)
(0.000366329 0.0151748 0)
(-0.000173657 0.0117562 0)
(-0.000244904 0.0106466 0)
(0.000933689 0.0114332 0)
(-0.000558387 0.0118094 0)
(6.41601e-05 0.0101854 0)
(0.000277748 0.0118072 0)
(-0.000280211 0.0117824 0)
(0.00131007 0.0114891 0)
(0.00119512 0.0140768 0)
(0.00144894 0.0137791 0)
(0.00132309 0.0133561 0)
(2.40198e-05 0.0142489 0)
(0.000261079 0.0135021 0)
(-0.000367389 0.0121924 0)
(-0.000764687 0.0119923 0)
(-0.000146782 0.0102216 0)
(0.000261731 0.0100396 0)
(0.00312477 0.0200011 0)
(-0.00448575 0.0182238 0)
(-0.000818846 0.00895187 0)
(-0.00126202 0.0114999 0)
(-0.00155254 0.0115177 0)
(0.000188073 0.0120532 0)
(-0.000713995 0.0122542 0)
(-0.000267569 0.0127466 0)
(9.33614e-05 0.012858 0)
(0.00430873 -0.00720811 0)
(-0.00218333 -0.00102044 0)
(-0.00566094 -0.00550542 0)
(-0.00532844 0.00177095 0)
(-0.0050685 -0.000923948 0)
(-0.00657729 0.00596395 0)
(0.00258037 0.00111821 0)
(-0.000650764 -6.78994e-06 0)
(0.000580899 0.00804173 0)
(-0.00103645 0.00585526 0)
(0.000217282 -0.00103882 0)
(-0.00473481 0.00662543 0)
(-0.000734029 0.0112675 0)
(0.00230861 0.0097646 0)
(5.19489e-05 0.00790669 0)
(-0.00211702 0.00844007 0)
(-2.78561e-05 0.00976175 0)
(0.000333274 0.0112979 0)
(-0.00223736 0.0142315 0)
(0.00382948 0.0122097 0)
(0.000418586 0.00778201 0)
(0.000588726 0.00633651 0)
(-2.62757e-05 0.00510528 0)
(-0.000939734 0.00599498 0)
(-0.00108503 0.00605178 0)
(-0.00180279 0.00637459 0)
(-0.001453 0.00920892 0)
(-0.000493975 0.00821759 0)
(-0.000722807 0.00894188 0)
(0.000974146 0.00848568 0)
(-0.00151037 0.00888246 0)
(0.00164077 0.0069952 0)
(0.00159036 0.00761952 0)
(0.00472053 0.0106628 0)
(-0.00283482 0.00862633 0)
(-0.00169728 0.00745994 0)
(-0.00215389 0.00657721 0)
(-0.00124223 0.00764914 0)
(-0.00307655 0.00962669 0)
(-0.00406558 0.0131697 0)
(0.00312841 0.0135531 0)
(0.00256661 0.012018 0)
(-0.00142885 0.0127818 0)
(-0.00178744 0.014789 0)
(-0.00331236 0.0175973 0)
(-3.26359e-05 0.0205662 0)
(0.00194243 0.0225489 0)
(0.00372636 0.0215663 0)
(0.00491671 0.020312 0)
(0.00252737 0.0176226 0)
(0.000718845 0.0162294 0)
(0.000774455 0.0162538 0)
(-0.00145296 0.0144964 0)
(-0.000219192 0.0144027 0)
(0.000200539 0.0139884 0)
(-0.0017692 0.0136192 0)
(-0.00159956 0.0124103 0)
(-0.00225596 0.0133383 0)
(-0.00232158 0.014855 0)
(-0.00151344 0.0164277 0)
(-0.0032529 0.020294 0)
(0.000841616 0.0204639 0)
(0.00525651 0.0178039 0)
(0.00174831 0.0129673 0)
(0.000940127 0.00675692 0)
(0.00391232 0.00844006 0)
(0.00477112 0.0117055 0)
(-0.00318247 0.011748 0)
(-0.000703953 0.00818531 0)
(-0.000447643 0.00635823 0)
(0.000635667 0.00812955 0)
(-0.00129541 0.0059996 0)
(0.000588574 0.00555401 0)
(-0.000410023 0.00717001 0)
(9.51255e-05 0.00587213 0)
(0.000527579 -0.0367465 0)
(-0.00319341 -8.90765e-05 0)
(-0.00778985 -0.0125269 0)
(-0.00774883 -0.00581023 0)
(-0.00738993 -0.00781225 0)
(-0.00365952 0.00272559 0)
(-0.00280687 -0.00110559 0)
(-0.000486145 -0.00733049 0)
(0.00311237 -0.00490531 0)
(-0.00254055 -0.00448836 0)
(-0.000664054 -0.0100479 0)
(-0.00368892 -0.00401779 0)
(-0.000534259 0.00145178 0)
(-0.00201567 -0.00681919 0)
(0.00112145 -0.015175 0)
(-0.0011561 -0.0106944 0)
(-0.0029367 -0.00782262 0)
(-0.000192526 -0.00952996 0)
(0.00112737 0.00101055 0)
(0.00341348 -0.00106586 0)
(0.00237146 -0.00626269 0)
(0.000761733 -0.00580222 0)
(0.000556415 -0.00804953 0)
(-0.000610156 -0.00503278 0)
(-0.00184922 -0.00664332 0)
(-0.00170737 -0.00732164 0)
(-0.00351178 -0.0051536 0)
(0.00140756 -0.00766936 0)
(0.000773343 -0.00522021 0)
(0.0007809 -0.00452202 0)
(-0.000772259 -0.00437306 0)
(0.00127823 -0.00305538 0)
(0.00202754 -0.00202909 0)
(0.000324506 0.000742139 0)
(-0.000882978 0.00206007 0)
(-0.00148864 0.00145325 0)
(-0.00343604 -0.000487688 0)
(-0.00230436 -0.000693768 0)
(-0.00425629 -0.000338002 0)
(-0.00582965 0.00892557 0)
(-0.000507783 0.0126337 0)
(0.000580567 0.00428847 0)
(-0.00219117 0.00689196 0)
(-0.00271272 0.0100923 0)
(-0.00526515 0.00943832 0)
(-0.00243877 0.0112432 0)
(-0.000203045 0.0103759 0)
(0.00397365 0.0116283 0)
(0.00405634 0.0111831 0)
(0.00419688 0.00761843 0)
(0.00264321 0.00766744 0)
(0.00157656 0.00635837 0)
(0.000965611 0.00364253 0)
(0.00199647 0.00457553 0)
(0.0020395 0.0039942 0)
(-0.000247397 0.0032432 0)
(0.000678202 0.00191397 0)
(-0.00103061 -5.40952e-05 0)
(-0.000760293 -0.00274528 0)
(0.00017073 -0.00469233 0)
(0.00310152 0.00176811 0)
(0.00276426 0.00955159 0)
(0.00316717 0.00205009 0)
(0.000820171 -0.00551554 0)
(0.00129321 -0.0038482 0)
(0.00146603 -0.00262674 0)
(0.000944853 -0.00102826 0)
(-0.00186169 0.00116381 0)
(-0.000830793 0.000356058 0)
(-0.00252512 0.00121316 0)
(0.00145343 -0.000930043 0)
(-0.00115879 -0.00152802 0)
(0.000749618 -0.0013675 0)
(-0.000436027 -0.00308508 0)
(0.00100851 -0.00532872 0)
(0.00720078 -0.0217205 0)
(-0.0054501 -0.00191693 0)
(-0.0109995 -0.013644 0)
(-0.00710667 -0.00871461 0)
(-0.00220726 -0.0066744 0)
(-0.000316255 -0.00132309 0)
(-0.00421773 -0.00739972 0)
(-3.53274e-05 -0.00540959 0)
(0.00231399 -0.00714385 0)
(0.00133346 -0.0101594 0)
(0.00214719 -0.0145475 0)
(0.00560524 -0.0110609 0)
(-3.71402e-05 -0.011425 0)
(-0.00445605 -0.0165247 0)
(-0.00238355 -0.0189776 0)
(-0.00242314 -0.0234041 0)
(-0.00194906 -0.0200542 0)
(-0.000862054 -0.0188929 0)
(0.000736108 -0.0143252 0)
(-0.00389344 -0.0131235 0)
(0.00225188 -0.0149774 0)
(-0.000644934 -0.0107561 0)
(-0.000462127 -0.0100793 0)
(0.000218335 -0.00830262 0)
(-0.00207255 -0.00884711 0)
(-0.000376461 -0.0094601 0)
(-0.00463251 -0.00503691 0)
(0.00222764 -0.00539499 0)
(-9.08414e-05 -0.00821391 0)
(-0.0027446 -0.0074298 0)
(-0.000229462 -0.00629121 0)
(-0.0019544 -0.00621856 0)
(-0.00130393 -0.00637061 0)
(-0.00307955 -0.00400388 0)
(-0.000635234 -0.00484079 0)
(-0.000746521 -0.00773757 0)
(-0.00171164 -0.00879248 0)
(-0.000820984 -0.00886789 0)
(-0.000185908 -0.0110153 0)
(-0.000358636 0.000368528 0)
(-0.00843216 0.00456777 0)
(-0.00552175 -0.00250752 0)
(-0.00524772 -0.00430568 0)
(-0.00563201 -0.0024477 0)
(-0.00555033 -0.00283846 0)
(0.000948263 -0.00266891 0)
(0.00237148 -0.0062553 0)
(0.00368714 -0.00772392 0)
(0.00425919 -0.00621153 0)
(0.00555865 -0.00563096 0)
(0.00517515 -0.0073362 0)
(0.00275326 -0.00610002 0)
(0.000708455 -0.00489992 0)
(0.000655406 -0.00526342 0)
(-0.00015159 -0.00799606 0)
(0.00078234 -0.00518086 0)
(0.00155879 -0.00492109 0)
(0.00157373 -0.00622723 0)
(0.00101762 -0.00604397 0)
(0.00143093 -0.00445747 0)
(0.00517826 -0.000900733 0)
(0.00220275 -0.00157344 0)
(-0.00350445 -0.00357753 0)
(0.00147757 -0.00549126 0)
(0.00295044 -0.00772464 0)
(-0.000586365 -0.0051776 0)
(-0.00143241 -0.00523003 0)
(-0.00208278 -0.00273929 0)
(0.00174054 -0.00535797 0)
(0.00104349 -0.00617591 0)
(0.00031183 -0.0062295 0)
(0.00288546 -0.00995042 0)
(-0.000390796 -0.00850219 0)
(-0.000294943 -0.00771382 0)
(0.0016429 -0.00878216 0)
(0.000186213 -0.0181691 0)
(-0.00304998 -0.000683466 0)
(-0.00938473 -0.0101237 0)
(-0.00663698 -0.00569285 0)
(-0.00556005 -0.00734271 0)
(-0.00763844 -0.00314807 0)
(-0.00331398 0.000178817 0)
(-8.78715e-05 0.00613554 0)
(0.00175867 0.00658965 0)
(0.00503888 0.00589623 0)
(0.00498863 0.00425801 0)
(0.00635785 0.00534642 0)
(-0.00169668 0.00673724 0)
(0.00284011 0.00426441 0)
(-0.00103085 -0.00353694 0)
(-0.000716394 -0.00515468 0)
(0.00192908 -0.0060147 0)
(-0.00129621 -0.0112021 0)
(-0.00238208 -0.00945159 0)
(-0.00598966 -0.00609816 0)
(6.63824e-05 -0.00675004 0)
(-0.000932472 -0.0100794 0)
(-0.000197456 -0.00739981 0)
(0.000982789 -0.00564768 0)
(-0.00223281 -0.00601352 0)
(0.000953849 -0.00659207 0)
(-0.00080666 0.00190068 0)
(-0.00166191 0.000558119 0)
(-0.00226018 -0.00873532 0)
(0.000453482 -0.00562872 0)
(0.0006703 -0.00596647 0)
(-0.000678624 -0.00834695 0)
(0.00161237 -0.00919929 0)
(0.00147311 -0.00731544 0)
(0.000894039 -0.00724802 0)
(0.000442777 -0.00961916 0)
(0.000446173 -0.00728084 0)
(-0.00248282 -0.00493018 0)
(-0.00197106 -0.00600037 0)
(-0.00184869 -0.00335789 0)
(-0.00759461 -0.000854878 0)
(-0.00694717 -0.00753191 0)
(-0.00525929 -0.0100781 0)
(-0.00276503 -0.0092668 0)
(-0.00101146 -0.00596909 0)
(-0.000201352 -0.00643193 0)
(0.00141165 -0.0149266 0)
(0.00249215 -0.0153337 0)
(0.00459014 -0.0113107 0)
(0.000282295 -0.0082155 0)
(-0.00117652 -0.00681204 0)
(0.00242674 -0.00682426 0)
(0.00216986 -0.00553862 0)
(0.0012343 -0.00578479 0)
(0.000954431 -0.00884341 0)
(0.000666575 -0.00876269 0)
(-0.00120412 -0.0117684 0)
(-0.000337085 -0.010631 0)
(-3.19943e-05 -0.00961888 0)
(0.00227746 -0.00939281 0)
(0.00205148 -0.00729784 0)
(0.00156824 -0.0076632 0)
(0.00108552 -0.00660076 0)
(0.000804806 -0.00652103 0)
(0.000498916 -0.00972593 0)
(0.00148718 -0.0109938 0)
(0.00302722 -0.0110966 0)
(0.00221775 -0.0056784 0)
(-0.000357587 -0.00692591 0)
(-0.000105023 -0.0114493 0)
(0.00169132 -0.00813703 0)
(-0.000620134 -0.0080905 0)
(-0.000746332 -0.0088011 0)
(-0.000833045 -0.00437184 0)
(-0.00102074 -0.00619533 0)
(0.00148706 -0.0174048 0)
(-0.00201601 -0.00168366 0)
(-0.0106905 -0.00827709 0)
(-0.00600934 -0.00720392 0)
(-0.00698017 -0.0106312 0)
(-0.0101746 -0.00572107 0)
(-0.00611188 -0.00777349 0)
(-0.00202749 -0.00767653 0)
(-0.000503041 -0.00443723 0)
(0.00612413 -0.00175833 0)
(0.00593625 -0.00351532 0)
(0.00461519 -0.00283937 0)
(0.00318828 0.0034358 0)
(0.00446949 0.00205982 0)
(0.000766868 -0.00862439 0)
(0.00298896 -0.00732902 0)
(-0.0011655 -0.00729117 0)
(-0.000505646 -0.00924723 0)
(-0.000768298 -0.007187 0)
(0.00165169 -0.00217266 0)
(-0.00257463 -0.00435228 0)
(-0.000263476 -0.00884247 0)
(-0.00196215 -0.00586704 0)
(-0.00109893 -0.00662487 0)
(-0.00264097 -0.00495647 0)
(-0.000517222 -0.00373854 0)
(0.00119572 -0.00331836 0)
(-0.00323271 -0.00450506 0)
(-0.00154205 -0.00646784 0)
(0.000784856 -0.00642442 0)
(-0.00162862 -0.00769253 0)
(-0.00348904 -0.00490306 0)
(-0.00372749 -0.00210858 0)
(-0.00163206 0.00054641 0)
(-0.00219159 0.00287139 0)
(-0.00317035 0.0039417 0)
(0.000498903 0.00285733 0)
(-0.00151927 0.0021762 0)
(-0.00404395 0.00124224 0)
(-0.00486904 0.00153046 0)
(-0.0017417 -0.000648451 0)
(-0.00261988 -0.00521496 0)
(0.000124021 -0.00805504 0)
(-0.00021908 -0.0109998 0)
(0.00174497 -0.0113111 0)
(-0.00119607 -0.010321 0)
(-0.000244898 -0.0129743 0)
(0.00103001 -0.0128052 0)
(0.00401548 -0.0124189 0)
(0.00280805 -0.013002 0)
(0.00200622 -0.0059552 0)
(0.00175695 -0.00378342 0)
(0.000228627 -0.00829436 0)
(0.00293806 -0.0090907 0)
(0.00428964 -0.0104579 0)
(0.00118418 -0.00985466 0)
(0.000114672 -0.00984328 0)
(0.000708281 -0.0105322 0)
(0.000323465 -0.0115814 0)
(0.000350085 -0.0116347 0)
(2.6257e-05 -0.0101197 0)
(0.00139779 -0.0110548 0)
(0.00120987 -0.010245 0)
(0.000320189 -0.0112596 0)
(0.0021178 -0.0135935 0)
(0.0037136 -0.0104135 0)
(0.00373789 -0.0128962 0)
(0.00310786 -0.0127608 0)
(-0.00146395 -0.0121139 0)
(-0.00186828 -0.00462788 0)
(-0.000358086 -0.00411595 0)
(-0.0047005 -0.0100722 0)
(-0.00391024 -0.00584 0)
(0.00219488 -0.00514149 0)
(-0.000917594 -0.00793416 0)
(-0.000188613 -0.0175838 0)
(-0.00291832 -0.00199917 0)
(-0.00854743 -0.00892859 0)
(-0.000566667 -0.00546149 0)
(-0.00201024 -0.0169922 0)
(-0.00235992 -0.0122513 0)
(-0.00580749 -0.00614265 0)
(-0.00764006 -0.00912799 0)
(-0.00142963 -0.00827884 0)
(0.000116439 -0.00905073 0)
(0.00106675 -0.0138399 0)
(0.00505874 -0.00966839 0)
(0.00643032 -0.00233778 0)
(-0.000525563 -0.00299463 0)
(-0.00247921 -0.00573912 0)
(0.000222136 -0.0035136 0)
(-0.00137803 -0.00509722 0)
(-0.000888702 -0.00599558 0)
(0.000347676 -0.00323857 0)
(0.000247551 -0.00244157 0)
(-0.00521922 -0.00396188 0)
(-0.00207572 -0.00447305 0)
(-0.003051 -0.0026996 0)
(-0.00197225 -0.00229148 0)
(-0.000290254 -0.00134659 0)
(0.000141132 -0.000397651 0)
(0.00200827 -0.00138644 0)
(0.000216392 -0.00297196 0)
(0.000327803 -0.00413525 0)
(-0.00288811 -0.00250704 0)
(-0.00329872 -0.00371193 0)
(-0.00487655 -0.00323815 0)
(-0.00367065 -0.00234429 0)
(-0.00484616 -0.00304208 0)
(-0.00173698 -0.00602237 0)
(4.45027e-05 -0.00557433 0)
(0.0014185 -0.00472228 0)
(0.000297679 -0.00996777 0)
(0.00221402 -0.0110776 0)
(0.00130131 -0.00410261 0)
(9.87911e-05 -0.00251222 0)
(-0.000474344 -0.0119374 0)
(-0.00100155 -0.0159904 0)
(-0.000604567 -0.015581 0)
(0.000895365 -0.0149689 0)
(-0.00112534 -0.0140753 0)
(0.00147661 -0.0169677 0)
(0.000240211 -0.0152651 0)
(6.61057e-05 -0.0125019 0)
(0.00323525 -0.0113013 0)
(0.00447526 -0.00904756 0)
(-0.000753569 -0.00971655 0)
(-0.000607053 -0.00448241 0)
(0.00161195 -0.00304206 0)
(-0.000350023 -0.0102749 0)
(0.00149964 -0.0112106 0)
(0.000762866 -0.00871422 0)
(-8.78016e-05 -0.00840643 0)
(0.00169303 -0.0100387 0)
(0.000572996 -0.0110976 0)
(0.00137776 -0.00826953 0)
(0.00184862 -0.0089699 0)
(0.00274205 -0.0121062 0)
(0.0018868 -0.00995972 0)
(0.00452578 -0.0102602 0)
(0.00189501 -0.0104509 0)
(0.00163615 -0.00900118 0)
(0.00100895 -0.00740967 0)
(0.000308249 -0.00824799 0)
(0.00156285 -0.0058122 0)
(-0.00592332 -0.00679402 0)
(-0.0036343 -0.00982255 0)
(-0.00350242 -0.00141702 0)
(-0.00247587 -0.00172311 0)
(-0.00312444 -0.0102458 0)
(0.00268836 -0.0180422 0)
(0.000548749 -0.00402998 0)
(-0.00353166 -0.00683473 0)
(-0.00172236 -0.00890968 0)
(-0.00258419 -0.0175923 0)
(0.00133948 -0.0121475 0)
(-0.00348156 -0.0146566 0)
(-0.0051517 -0.00873177 0)
(-0.00321493 -0.00719955 0)
(-0.00713606 -0.0142013 0)
(-0.00211336 -0.0147072 0)
(0.00192911 -0.0097293 0)
(0.00352669 -0.00755977 0)
(0.00064624 -0.00575778 0)
(0.00099475 -0.0037525 0)
(-0.000425207 -0.00439483 0)
(-0.00137907 -0.00709601 0)
(-0.001799 -0.00488285 0)
(-0.000454698 -0.00494847 0)
(-0.00110165 -0.00599594 0)
(-0.00146628 -0.0039009 0)
(-0.0020865 -0.00447227 0)
(-0.00236473 -0.00577104 0)
(-0.00488131 -0.00369446 0)
(-0.00116056 0.000487251 0)
(-0.00306202 0.00291676 0)
(0.00336343 0.00108967 0)
(0.000122295 -0.00129154 0)
(-0.0008882 -0.00204466 0)
(-0.00373349 -0.00167635 0)
(-1.40408e-05 -0.00276529 0)
(-0.0016064 -0.00188507 0)
(0.00143295 -0.00428374 0)
(-0.000393359 -0.00714794 0)
(0.000120315 -0.00882553 0)
(8.05465e-05 -0.0124992 0)
(0.000516792 -0.0124402 0)
(0.000529803 -0.0088924 0)
(0.00173342 -0.0057781 0)
(0.00250628 -0.00514234 0)
(-0.00124099 -0.00246409 0)
(-0.00247951 -0.00491763 0)
(0.00126329 -0.00669343 0)
(0.00218185 -0.00754402 0)
(0.00263311 -0.0100035 0)
(-0.00156366 -0.00864929 0)
(-0.0010888 -0.0104583 0)
(-0.000787009 -0.0138082 0)
(-0.000830706 -0.00967018 0)
(0.000500391 -0.00980137 0)
(0.00238177 -0.0118498 0)
(0.000217678 -0.0105982 0)
(0.00549862 -0.00856614 0)
(3.46317e-05 -0.0109396 0)
(-0.00107249 -0.0133224 0)
(-0.000136901 -0.0105388 0)
(0.0020307 -0.0134034 0)
(0.00118184 -0.0105538 0)
(0.00136075 -0.0097996 0)
(0.00132329 -0.0115394 0)
(0.00218447 -0.00899375 0)
(0.000176622 -0.0100518 0)
(0.00184688 -0.00979345 0)
(0.00107703 -0.00748392 0)
(0.00322401 -0.00841996 0)
(0.00137925 -0.00552239 0)
(0.00300613 -0.00450442 0)
(0.000410768 -0.00499748 0)
(0.00157859 -0.00362553 0)
(9.46729e-05 -0.00529813 0)
(-0.00269165 -0.00612798 0)
(-0.00249755 -0.00592525 0)
(0.00169884 -0.00501157 0)
(-0.00577043 -0.00646963 0)
(-0.00326711 -0.00913023 0)
(-0.00127378 -0.0149678 0)
(0.00973173 0.00106985 0)
(0.000144626 -0.00875398 0)
(-0.000421475 -0.00437787 0)
(-0.00218221 -0.0139371 0)
(-0.00123067 -0.0124573 0)
(-0.0015491 -0.013088 0)
(-0.00256516 -0.00850127 0)
(-0.00799511 -0.0094935 0)
(-0.00864821 -0.00865896 0)
(-0.0057275 -0.00782381 0)
(-0.000828952 -0.00659713 0)
(-0.000798589 -0.00370606 0)
(0.000878767 -0.00192252 0)
(0.000229621 -0.000390666 0)
(-0.00154757 0.00140517 0)
(-0.00247488 0.00158434 0)
(-0.000552212 0.0028514 0)
(-0.00225172 0.00472068 0)
(-0.00166075 0.0047217 0)
(7.06325e-05 0.00302646 0)
(-0.00362363 0.000910432 0)
(-0.0016715 -0.00162244 0)
(-0.00094318 0.00337903 0)
(0.0038294 0.00372459 0)
(0.00284152 0.00611201 0)
(0.002182 0.00354471 0)
(-4.96245e-05 -0.00413764 0)
(-0.000154675 -0.0061858 0)
(-0.00198473 -0.0021024 0)
(-0.00295102 -0.00559694 0)
(-0.00270353 -0.00703735 0)
(-0.000592149 -0.00635947 0)
(0.000579637 -0.0101606 0)
(0.000330766 -0.0101138 0)
(-0.000717208 -0.0097935 0)
(0.000518459 -0.00961095 0)
(0.00057451 -0.0121118 0)
(-7.54278e-05 -0.010369 0)
(-0.00170929 -0.00868014 0)
(-0.000478194 -0.0090052 0)
(-0.00262465 -0.00872287 0)
(0.00202053 -0.0073032 0)
(0.00211281 -0.00848504 0)
(0.00289165 -0.00998141 0)
(0.0027647 -0.00948715 0)
(0.00102935 -0.0100155 0)
(0.000853837 -0.0104362 0)
(0.00127818 -0.00877149 0)
(0.00040611 -0.00721152 0)
(0.00391123 -0.00993884 0)
(0.00126946 -0.00931292 0)
(0.0019621 -0.00768574 0)
(-0.00207914 -0.00954271 0)
(0.000983104 -0.0097273 0)
(-0.000393522 -0.00813787 0)
(-0.000508597 -0.00827976 0)
(0.00171199 -0.0100863 0)
(-0.000585932 -0.010121 0)
(-0.00059094 -0.00999205 0)
(0.00210812 -0.00810487 0)
(0.00278598 -0.00909317 0)
(0.000648045 -0.010086 0)
(0.000554336 -0.00596044 0)
(0.00100315 -0.00635539 0)
(0.00109976 -0.00642629 0)
(-0.000906869 -0.00516526 0)
(0.000585014 -0.00397082 0)
(0.00226064 -0.00404996 0)
(0.000196608 -0.00714018 0)
(-0.0011563 -0.00846147 0)
(-0.0013159 -0.00719288 0)
(-0.000437618 -0.0081131 0)
(-0.00404707 -0.0107638 0)
(-0.000673426 -0.0140744 0)
(-0.00459191 -0.0230958 0)
(0.00758254 0.000481805 0)
(0.00106058 -0.011015 0)
(0.00102378 -0.00242639 0)
(-0.000383332 -0.00975648 0)
(-0.00182626 -0.00224123 0)
(-0.00259091 -0.004579 0)
(-0.00539237 -0.00444857 0)
(-0.00717377 -0.00252095 0)
(-0.00393272 -0.00517584 0)
(-0.00701353 -0.00507608 0)
(6.51202e-05 -0.00510734 0)
(-0.0010371 -0.00772198 0)
(-0.00254515 -0.00588267 0)
(-0.00364984 -0.00606039 0)
(-0.00243442 -0.0070745 0)
(-0.00454186 -0.00597933 0)
(-0.00368725 -0.0043289 0)
(-0.00305589 -0.00405704 0)
(-3.08869e-05 -0.00163513 0)
(0.00128213 -0.00555998 0)
(0.000150886 -0.00629824 0)
(0.00181572 -0.00532485 0)
(0.0046298 -0.00505434 0)
(0.00399722 -0.00625467 0)
(0.00608942 -0.00720022 0)
(-0.000692398 -0.00646796 0)
(-0.00071805 -0.00553283 0)
(-0.00020481 -0.00684948 0)
(0.000724232 -0.00892651 0)
(-0.00315455 -0.0118787 0)
(0.00208743 -0.0114166 0)
(-0.000364772 -0.0133003 0)
(0.00204775 -0.0155868 0)
(0.00162765 -0.0134905 0)
(0.00236819 -0.0140765 0)
(-0.00115402 -0.0134283 0)
(0.00221405 -0.0126667 0)
(-0.00191339 -0.012947 0)
(0.00113354 -0.0116608 0)
(-0.00150486 -0.0121515 0)
(-0.00128507 -0.0133973 0)
(0.000518311 -0.0122162 0)
(0.000932386 -0.0141106 0)
(0.00131424 -0.0117246 0)
(0.00192598 -0.00933082 0)
(-0.000793731 -0.00838542 0)
(0.000100745 -0.00824024 0)
(-0.00443485 -0.00546816 0)
(-0.000218326 -0.00277739 0)
(0.00536139 -0.0056583 0)
(0.00439365 -0.00679152 0)
(0.00102929 -0.00460198 0)
(0.000618429 -0.00527464 0)
(0.000499975 -0.00499349 0)
(0.00162575 -0.00614139 0)
(0.000176518 -0.00644025 0)
(0.00215665 -0.00754686 0)
(0.00217839 -0.00933543 0)
(0.00169159 -0.0077252 0)
(0.000524037 -0.00653213 0)
(0.00127517 -0.0116528 0)
(-0.000907183 -0.0117065 0)
(0.000347173 -0.00738514 0)
(-0.000726356 -0.00876278 0)
(-0.000435495 -0.00878892 0)
(-0.00405548 -0.00547278 0)
(0.00187239 -0.00217446 0)
(0.005116 -0.00371851 0)
(0.00258916 -0.00799957 0)
(0.00116192 -0.00838978 0)
(0.00133986 -0.00762387 0)
(-0.00316268 -0.00977241 0)
(0.00301627 -0.00980895 0)
(0.000465975 -0.0104078 0)
(0.00357444 -0.0121103 0)
(0.00058653 0.0106185 0)
(0.00153 -0.015369 0)
(-0.00170414 -0.00107551 0)
(-0.00163516 -0.00891006 0)
(-0.00346388 -0.0013814 0)
(-0.00507279 -0.00129075 0)
(-0.0071496 0.000398021 0)
(-0.000349079 0.000573483 0)
(-0.00347287 -0.00411494 0)
(-0.00290542 0.000467956 0)
(-0.00311551 0.00283023 0)
(-0.000954534 -0.00638214 0)
(-0.00350028 -0.00839763 0)
(0.000129374 -0.00742452 0)
(-0.00109014 -0.00905795 0)
(-0.000761135 -0.0115406 0)
(-0.00571563 -0.00907817 0)
(0.00153765 -0.0069805 0)
(0.00192648 -0.00855043 0)
(-0.000699786 -0.0131447 0)
(-0.000277555 -0.0150248 0)
(-0.000789009 -0.0140771 0)
(-0.00270975 -0.0102537 0)
(-0.00479042 -0.00705511 0)
(-0.000865588 -0.00938802 0)
(-0.000498627 -0.0127669 0)
(0.00154359 -0.0134421 0)
(-0.000912463 -0.0152193 0)
(0.00293443 -0.0156502 0)
(0.00175156 -0.0153976 0)
(0.00239384 -0.012924 0)
(-0.00102529 -0.0119945 0)
(0.000987558 -0.0116373 0)
(-0.0023782 -0.0111987 0)
(0.000356045 -0.0112109 0)
(-0.000825204 -0.00742872 0)
(0.000264026 -0.00952995 0)
(-0.000524985 -0.00938018 0)
(0.00113478 -0.00790576 0)
(-0.00167002 -0.011924 0)
(0.00167312 -0.0114129 0)
(-0.00162098 -0.0114064 0)
(0.000302832 -0.0108392 0)
(-0.000151033 -0.010595 0)
(0.00146748 -0.0117028 0)
(-0.00204034 -0.00973752 0)
(0.00206318 -0.0114462 0)
(-0.00115594 -0.00742307 0)
(0.000635698 0.00290907 0)
(0.00136893 -0.00527637 0)
(-0.000603137 -0.0110478 0)
(0.000464711 -0.00721528 0)
(-0.000315261 -0.00666622 0)
(-0.000681955 -0.00752654 0)
(-0.000164378 -0.00726462 0)
(0.00180806 -0.0058244 0)
(0.00166172 -0.00649841 0)
(0.00088869 -0.00962566 0)
(0.00316519 -0.00976789 0)
(-1.78409e-05 -0.00732766 0)
(0.00128391 -0.00988296 0)
(0.00191657 -0.00975864 0)
(0.00114126 -0.00545505 0)
(0.000156161 -0.00796109 0)
(0.000369106 -0.0111757 0)
(-0.00120643 -0.00256522 0)
(0.00139268 0.0064523 0)
(-0.0010305 -0.00139723 0)
(0.000523063 -0.00841283 0)
(-0.000351186 -0.00602872 0)
(0.000205185 -0.00702698 0)
(-0.0027207 -0.00408195 0)
(0.00668509 -0.00479617 0)
(0.00146908 -0.0110412 0)
(0.00851939 -0.0267548 0)
(-0.00786393 0.0080227 0)
(0.00139578 -0.0108164 0)
(-0.00286615 0.000433446 0)
(-0.00204943 -0.00672828 0)
(-0.00347287 -0.0017889 0)
(-0.00479216 -0.00793358 0)
(-0.00498313 -0.00053212 0)
(-0.00116315 -0.00151024 0)
(-0.00453909 -0.0118305 0)
(0.00174607 -0.00833619 0)
(-0.0038539 -0.00798088 0)
(-0.00152452 -0.0139042 0)
(-0.000983449 -0.0110205 0)
(0.00103491 -0.00962519 0)
(-0.00163527 -0.0134402 0)
(0.00192908 -0.0152705 0)
(0.00140066 -0.00688603 0)
(0.00134258 -0.00362892 0)
(-0.00300321 -0.0116204 0)
(-0.00451126 -0.0145067 0)
(-0.000618286 -0.0126928 0)
(-0.000335891 -0.0127861 0)
(-0.000872918 -0.0128363 0)
(-0.00153098 -0.00629328 0)
(0.00125045 -0.00966685 0)
(0.00203313 -0.0148903 0)
(0.00191467 -0.0162905 0)
(0.0024025 -0.016158 0)
(-0.000801596 -0.0144477 0)
(-0.000828533 -0.0165093 0)
(-0.00328868 -0.0138273 0)
(-0.00189791 -0.0107202 0)
(-0.000684037 -0.0112868 0)
(-0.000224112 -0.0113057 0)
(0.00106666 -0.0106841 0)
(0.00138955 -0.0137452 0)
(-0.00245881 -0.0127182 0)
(0.00176391 -0.0115429 0)
(-0.00221063 -0.0113728 0)
(0.00112602 -0.00979359 0)
(0.00085496 -0.00931444 0)
(-0.000430488 -0.00909536 0)
(-0.00139867 -0.0100301 0)
(0.000332696 -0.0097134 0)
(-3.43074e-05 -0.0108071 0)
(0.000569225 -0.00856524 0)
(0.00138541 -0.00740998 0)
(0.00301424 -0.00776771 0)
(0.000390518 -0.00202191 0)
(-0.00347751 -0.00847002 0)
(-0.00298742 -0.00910265 0)
(-0.000548776 -0.00627642 0)
(-0.00140394 -0.00828391 0)
(-4.07472e-05 -0.00736218 0)
(0.00200936 -0.00635293 0)
(0.00421661 -0.00743519 0)
(0.00203093 -0.00980096 0)
(0.00126697 -0.00827199 0)
(0.000533568 -0.00843447 0)
(0.00175212 -0.00723568 0)
(0.000427119 -0.00809674 0)
(0.00168364 -0.00990926 0)
(0.000357818 -0.00723568 0)
(0.000529127 -0.00776314 0)
(0.0016029 -0.00786863 0)
(0.00261784 -0.003901 0)
(0.00244487 -0.00197116 0)
(-0.00395146 -0.00539564 0)
(-0.000322922 -0.00801859 0)
(0.000374521 -0.00957337 0)
(0.00223995 -0.00900839 0)
(0.00471997 -0.00067178 0)
(0.00329789 -0.000285444 0)
(0.00491086 -0.00839335 0)
(0.000657673 -0.0178087 0)
(-0.00941748 0.000865401 0)
(-0.000366018 -0.00687994 0)
(-0.00154642 0.000560765 0)
(0.00129539 -0.00314157 0)
(-0.000737475 -0.00108382 0)
(-0.00152781 -0.00545687 0)
(0.000348658 -0.00285356 0)
(-0.00521231 -0.00793264 0)
(-0.00300605 -0.0109914 0)
(0.000576808 -0.00914281 0)
(-0.00227693 -0.0105147 0)
(-0.00128972 -0.0128597 0)
(-0.00103085 -0.0128483 0)
(-0.000610736 -0.0125191 0)
(-0.000299448 -0.0108967 0)
(0.00184446 -0.00886768 0)
(0.00204983 -0.00878777 0)
(-0.00196645 -0.00912725 0)
(-0.00268335 -0.011594 0)
(-0.00152488 -0.0103195 0)
(0.000623392 -0.0114382 0)
(-4.01234e-06 -0.0146043 0)
(0.00135532 -0.0142477 0)
(0.00175677 -0.0107644 0)
(-0.00277421 -0.0117831 0)
(-0.000805843 -0.0155399 0)
(-0.00193565 -0.011814 0)
(-0.000226303 -0.0122485 0)
(-0.000270017 -0.0105963 0)
(-0.00075238 -0.00880026 0)
(-0.00204119 -0.0096461 0)
(-0.00168432 -0.00755658 0)
(-0.000980588 -0.00872653 0)
(0.00238547 -0.00894892 0)
(-0.000786978 -0.00860257 0)
(-0.001336 -0.00900954 0)
(-0.000521742 -0.00710678 0)
(-0.00147843 -0.00616199 0)
(-0.00339968 -0.00396298 0)
(0.00264878 -0.00559998 0)
(0.00136903 -0.00963327 0)
(-0.0010003 -0.0100211 0)
(0.000837066 -0.00791981 0)
(0.00046257 -0.00774357 0)
(-0.0012757 -0.00996715 0)
(0.00162895 -0.0065931 0)
(-0.000827485 -0.00757371 0)
(0.0023531 -0.00763974 0)
(-0.000351956 -0.00400826 0)
(-0.00275851 -0.00861356 0)
(-0.00159565 -0.00921547 0)
(-0.000388797 -0.00834682 0)
(-0.00356014 -0.00954967 0)
(-0.0027601 -0.00742029 0)
(0.00128661 -0.00607976 0)
(0.00371538 -0.00760261 0)
(0.00340143 -0.00908649 0)
(0.00358667 -0.0111001 0)
(-0.000152276 -0.0112719 0)
(0.00297301 -0.0105918 0)
(-0.000569705 -0.01287 0)
(0.000501482 -0.0126316 0)
(-0.000651055 -0.00907667 0)
(-0.000102228 -0.0092027 0)
(0.00224869 -0.0111271 0)
(0.000653434 -0.00608474 0)
(0.00160009 -0.0050455 0)
(-0.00138939 -0.00809945 0)
(-0.00115037 -0.00717603 0)
(0.000251346 -0.00712466 0)
(0.00169137 -0.00493743 0)
(0.00341826 -0.00136822 0)
(-0.00193192 0.000611971 0)
(0.000905243 -0.000173721 0)
(-0.00155146 -0.0193183 0)
(-0.0128733 0.000548735 0)
(-0.00176672 -0.00571022 0)
(-0.00193485 -0.00143956 0)
(0.000734319 -0.00539455 0)
(-7.84671e-05 -0.00322204 0)
(0.00103014 -0.00623537 0)
(-5.78062e-05 -0.00553948 0)
(-0.00250323 -0.00808853 0)
(-0.000715071 -0.00931523 0)
(-0.000812157 -0.00900547 0)
(-0.00257635 -0.0089707 0)
(-0.00394698 -0.0101849 0)
(-0.00441545 -0.00746964 0)
(-0.00208665 -0.00541627 0)
(0.00353291 -0.00730877 0)
(0.00268933 -0.0089567 0)
(0.00195622 -0.00943649 0)
(-0.000200362 -0.00700135 0)
(-0.0013369 -0.0111633 0)
(-0.000372454 -0.0111282 0)
(-0.00322095 -0.0100626 0)
(-0.000919031 -0.00923285 0)
(0.000469675 -0.00873559 0)
(0.00116213 -0.00854113 0)
(-0.00127898 -0.00858393 0)
(-0.000552521 -0.00883294 0)
(-0.000918959 -0.0115131 0)
(-0.000465283 -0.00813968 0)
(0.000474262 -0.00590437 0)
(-0.00320443 -0.00739645 0)
(-0.00407316 -0.00378204 0)
(-0.00436605 -0.000257731 0)
(-0.00205214 0.00146121 0)
(0.00211371 -0.000353839 0)
(0.000149722 -0.00183936 0)
(-0.0021085 -0.000548955 0)
(0.00363534 -0.00176997 0)
(-0.000360894 -0.00497328 0)
(0.00153618 0.000672919 0)
(-0.000937928 0.00157517 0)
(-0.00017496 -0.00901702 0)
(-7.23948e-05 -0.00492772 0)
(0.000519603 -0.0036383 0)
(-0.00140244 -0.00599473 0)
(-0.00145787 -0.00373416 0)
(0.00170184 -0.00351084 0)
(-0.000490586 -0.00377878 0)
(0.00237643 -0.00343215 0)
(0.000342317 -0.00380451 0)
(-0.00115128 -0.00718871 0)
(1.20486e-05 -0.00613479 0)
(0.00051979 -0.00921855 0)
(-0.000871265 -0.0120813 0)
(-0.00071768 -0.00495548 0)
(-0.00288205 -0.00265876 0)
(0.00381728 -0.00799219 0)
(0.00306743 -0.0119772 0)
(0.00203303 -0.012734 0)
(0.00294885 -0.0103076 0)
(7.46305e-05 -0.00957287 0)
(0.000367319 -0.0143278 0)
(-0.00021538 -0.0139527 0)
(2.65653e-05 -0.0121573 0)
(-0.00165297 -0.0103666 0)
(0.000424848 -0.0138183 0)
(0.000954149 -0.00953827 0)
(-0.00181982 -0.00706577 0)
(-0.00181424 -0.0104213 0)
(0.000218258 -0.00858707 0)
(0.000250104 -0.00775281 0)
(0.000436566 -0.00678711 0)
(0.000744842 -0.00560264 0)
(-0.00339345 -0.00502335 0)
(0.00255 -0.00546284 0)
(-0.00247371 -0.0130689 0)
(-0.010032 0.00736042 0)
(-0.00493572 0.00100111 0)
(-0.000599366 -0.00473995 0)
(0.00354476 -0.00924252 0)
(0.00113019 -0.00837645 0)
(0.0014088 -0.00953887 0)
(-0.000564418 -0.00790106 0)
(-7.50298e-05 -0.00863963 0)
(-0.00173158 -0.00771225 0)
(-0.00187365 -0.00773008 0)
(-0.00190898 -0.00877278 0)
(-0.00252644 -0.00949255 0)
(-0.0013731 -0.00692658 0)
(-0.00070511 -0.000482108 0)
(0.00100644 -0.00101385 0)
(0.00149631 -0.00472523 0)
(0.00249629 -0.00734465 0)
(-0.00136001 -0.00907392 0)
(-0.00157205 -0.00824792 0)
(-0.000899121 -0.00848979 0)
(-0.000755321 -0.00792343 0)
(0.00055108 -0.00769907 0)
(6.70482e-06 -0.00865725 0)
(-0.000505526 -0.00758699 0)
(-0.000574664 -0.00687449 0)
(-0.000132013 -0.00730316 0)