/*--------------------------------*- C++ -*----------------------------------*\
  =========                 |
  \\      /  F ield         | OpenFOAM: The Open Source CFD Toolbox
   \\    /   O peration     | Website:  https://openfoam.org
    \\  /    A nd           | Version:  12
     \\/     M anipulation  |
\*---------------------------------------------------------------------------*/
FoamFile
{
    format      ascii;
    class       volVectorField;
    location    "0.65";
    object      U.water_0;
}
// * * * * * * * * * * * * * * * * * * * * * * * * * * * * * * * * * * * * * //

dimensions      [0 1 -1 0 0 0 0];

internalField   nonuniform List<vector> 
3750
(
(0.00464449 -0.025628 0)
(-0.00566544 -0.00401776 0)
(-0.00464151 -0.00722381 0)
(-0.00337191 0.00368791 0)
(-0.00253797 0.00401448 0)
(-0.00197304 0.00757645 0)
(-0.000958525 0.00362057 0)
(-0.0022282 0.00833959 0)
(0.00567134 0.0174348 0)
(-0.00217611 0.016739 0)
(-0.00244987 0.00694253 0)
(-0.000215447 0.00920071 0)
(0.000306764 0.0123449 0)
(0.000407399 0.0137403 0)
(0.000410968 0.012192 0)
(0.00137401 0.0133852 0)
(-0.000139653 0.0139301 0)
(0.00164947 0.0128372 0)
(0.000328397 0.0138331 0)
(0.000912158 0.0129099 0)
(-0.000963672 0.0134347 0)
(0.00124654 0.0125142 0)
(0.000799113 0.00992617 0)
(-0.000284299 0.0114251 0)
(-0.000803101 0.0103395 0)
(6.64744e-05 0.0113492 0)
(-0.000928385 0.0136315 0)
(0.000213223 0.0124337 0)
(-4.27963e-05 0.0138047 0)
(-0.000118809 0.0144597 0)
(-0.000528271 0.0136987 0)
(0.000628404 0.0134451 0)
(-0.00147018 0.0155503 0)
(-0.000358239 0.0134657 0)
(-0.00104106 0.0151474 0)
(-0.00172862 0.0159348 0)
(-0.000487141 0.0139121 0)
(0.000247488 0.0171957 0)
(-0.000664117 0.0175846 0)
(0.000347725 0.0171395 0)
(-0.00102273 0.0187622 0)
(-0.000631314 0.0191458 0)
(0.000572283 0.0193769 0)
(0.000440348 0.021108 0)
(0.000360281 0.0211744 0)
(0.00126566 0.0216447 0)
(0.00130533 0.0216091 0)
(0.000924197 0.0181089 0)
(-0.000322305 0.0144793 0)
(0.000268239 0.0106059 0)
(-0.000174301 0.0116271 0)
(0.0011918 0.012291 0)
(-0.000420815 0.0128888 0)
(4.23406e-05 0.0111594 0)
(0.000217077 0.0129469 0)
(-0.000339189 0.0129262 0)
(0.00142558 0.0126304 0)
(0.00134218 0.0153395 0)
(0.00176451 0.0146217 0)
(0.00187109 0.013429 0)
(0.00103985 0.0133185 0)
(-7.13158e-05 0.0114705 0)
(-0.00170608 0.0111356 0)
(-0.00188745 0.0134558 0)
(-0.00154594 0.013724 0)
(-0.000239357 0.0152412 0)
(0.000481677 0.014049 0)
(-0.00077024 0.010936 0)
(0.000576469 0.0112499 0)
(-0.000854238 0.0118887 0)
(-0.00156493 0.0108858 0)
(0.000369245 0.0110406 0)
(-0.000905711 0.0117881 0)
(-0.000665481 0.0133362 0)
(-0.000707614 0.014603 0)
(0.00401755 -0.00710478 0)
(-0.0028567 -0.000405563 0)
(-0.00520946 -0.00501557 0)
(-0.00472604 0.00191458 0)
(-0.00359587 -0.00154357 0)
(-0.0024653 0.0020187 0)
(0.00130587 -0.00204146 0)
(0.00196122 0.00979255 0)
(0.00461688 0.0115054 0)
(-0.00341934 0.00276267 0)
(-0.000877488 0.00128103 0)
(-0.0018855 0.00390295 0)
(-0.00247298 0.00667483 0)
(-0.00318901 0.00837213 0)
(-0.000972222 0.00936077 0)
(-0.00249087 0.0100164 0)
(-3.38959e-06 0.0114064 0)
(0.000534747 0.0128215 0)
(0.000117071 0.0131873 0)
(-0.000405488 0.0113949 0)
(-0.00142519 0.0124565 0)
(0.00336381 0.0107764 0)
(0.00136794 0.00627299 0)
(-0.000240855 0.00642434 0)
(-0.000836486 0.00618236 0)
(-0.00206499 0.00661294 0)
(-0.00175084 0.00978282 0)
(4.26077e-06 0.0087655 0)
(-0.000861243 0.00946502 0)
(0.000622274 0.00911131 0)
(-0.00220825 0.00974384 0)
(0.000848552 0.00784598 0)
(-0.000497235 0.00812861 0)
(7.74164e-05 0.00830364 0)
(0.00109171 0.00632537 0)
(-0.000241061 0.00834677 0)
(-0.00141526 0.00799383 0)
(0.000146254 0.0089725 0)
(-0.000629828 0.0100275 0)
(0.000659791 0.00992259 0)
(-0.000346846 0.00970558 0)
(0.00129527 0.0110613 0)
(-0.00200731 0.0126786 0)
(-0.00157598 0.0147865 0)
(-0.00320963 0.0174791 0)
(-0.000408387 0.0205143 0)
(0.00131626 0.0228494 0)
(0.00291102 0.0221879 0)
(0.00375309 0.0202136 0)
(0.00339965 0.0174415 0)
(0.00131371 0.0169157 0)
(0.00130968 0.017029 0)
(-0.00160413 0.0152489 0)
(-0.000636625 0.0151564 0)
(-4.71077e-05 0.0150105 0)
(-0.00205962 0.0148754 0)
(-0.00130628 0.0136822 0)
(-0.0020145 0.0146794 0)
(-0.00191672 0.0159644 0)
(-4.24869e-05 0.0170909 0)
(0.00111834 0.0184516 0)
(0.000470014 0.016209 0)
(0.00051089 0.0159302 0)
(-0.00119225 0.0143085 0)
(-0.00165521 0.0109588 0)
(0.00463032 0.012353 0)
(0.00281673 0.00979781 0)
(0.0019739 0.00853937 0)
(0.00145158 0.00717825 0)
(0.000773283 0.00538875 0)
(0.000884486 0.00729925 0)
(-0.00168673 0.00475366 0)
(0.000175161 0.00449666 0)
(-0.00117184 0.00705838 0)
(-0.00159707 0.00701519 0)
(0.000680122 -0.0364669 0)
(-0.00343848 0.00135397 0)
(-0.00759332 -0.011274 0)
(-0.00755901 -0.0049822 0)
(-0.00619327 -0.00513517 0)
(-0.00256089 -0.00274985 0)
(-1.45441e-05 -0.00587609 0)
(0.00280622 -0.000585728 0)
(-0.00118004 -0.00127907 0)
(-0.00117568 -0.00353042 0)
(-0.00113363 -0.00626034 0)
(-0.0037686 -0.00841534 0)
(-0.00253698 -0.0104638 0)
(-0.00530636 -0.00767646 0)
(0.00183265 -0.00960536 0)
(-0.00181515 -0.00848964 0)
(-0.00277875 -0.00604459 0)
(-0.00116792 -0.00625353 0)
(-0.00111057 -0.00306263 0)
(0.00510161 -0.00449656 0)
(0.00388129 0.0034954 0)
(0.00181147 -0.000174635 0)
(0.00198078 -0.00835603 0)
(0.000444735 -0.00530007 0)
(-0.0013661 -0.00714533 0)
(-0.0020677 -0.0075129 0)
(-0.00501709 -0.00381108 0)
(0.00181542 -0.00685519 0)
(9.00224e-05 -0.00533606 0)
(-0.000357902 -0.00417135 0)
(-0.00106835 -0.00363862 0)
(0.000917032 -0.00262283 0)
(0.00080573 -0.00249676 0)
(-0.0013237 -0.000227875 0)
(-0.000447951 0.00151166 0)
(-0.00133825 0.00219117 0)
(-0.00363635 0.00150763 0)
(4.83731e-05 0.00193298 0)
(-0.00158443 0.00290678 0)
(-0.000996622 0.000986927 0)
(-0.00273346 0.00413811 0)
(-0.000222797 0.00590543 0)
(-0.00246598 0.00791786 0)
(-0.00220465 0.0105613 0)
(-0.00453096 0.0087068 0)
(-0.00345511 0.0105926 0)
(-0.00130735 0.0104198 0)
(0.00259959 0.0122082 0)
(0.00227794 0.012152 0)
(0.00536807 0.00849768 0)
(0.00391918 0.00821284 0)
(0.00173248 0.00639369 0)
(0.000553736 0.00363256 0)
(0.00101773 0.00528945 0)
(0.00127796 0.00515285 0)
(-0.000302396 0.00490348 0)
(0.00119891 0.00360788 0)
(-0.000873432 0.00145489 0)
(-0.00121047 -0.000560943 0)
(7.73384e-05 -0.000751486 0)
(0.00258881 -0.00111687 0)
(0.00318661 -0.00178249 0)
(0.00359518 -0.00164759 0)
(0.00135944 -0.00201411 0)
(0.00251768 0.00358446 0)
(0.00166627 0.00297321 0)
(0.00108335 -0.00258772 0)
(0.000429717 -0.00201349 0)
(-0.000211708 -0.00142171 0)
(-0.00173755 -0.000316739 0)
(0.000570251 -0.00313874 0)
(-0.00148104 -0.00317866 0)
(-0.000142654 -0.0022968 0)
(-0.00165313 -0.00384992 0)
(0.00142473 -0.00583436 0)
(0.00608623 -0.0209722 0)
(-0.00504438 -0.000881931 0)
(-0.0113298 -0.012844 0)
(-0.00747642 -0.00749568 0)
(-0.00283913 -0.00628619 0)
(-0.00258991 -0.00358239 0)
(0.00158598 -0.00827262 0)
(0.00299775 -0.00307181 0)
(0.0008258 -0.00534642 0)
(-6.3735e-05 -0.00936259 0)
(-0.000611766 -0.0137312 0)
(0.00053713 -0.0150482 0)
(0.000264996 -0.0192951 0)
(-0.0017086 -0.0151043 0)
(-0.00367682 -0.0150044 0)
(-0.00484167 -0.0224699 0)
(-0.0012947 -0.0186346 0)
(-0.00207298 -0.0199153 0)
(-0.00427022 -0.0126535 0)
(0.000600643 -0.01039 0)
(0.0045 -0.0113259 0)
(-0.00184444 -0.00647388 0)
(0.00131996 -0.00887991 0)
(0.00187774 -0.0087461 0)
(-0.00117377 -0.0100554 0)
(0.000703021 -0.0112307 0)
(-0.00219492 -0.00362656 0)
(-0.00215771 -0.00408668 0)
(-0.0029339 -0.00928845 0)
(-0.00635996 -0.00643078 0)
(0.000432614 -0.00457925 0)
(-0.00216477 -0.00624211 0)
(-0.00215075 -0.00728445 0)
(-0.00409481 -0.00469081 0)
(-0.00110549 -0.00514547 0)
(-0.00135763 -0.00740474 0)
(-0.00367606 -0.00503874 0)
(0.00129377 -0.00447606 0)
(0.00130113 -0.00814169 0)
(-0.00216091 -0.00771632 0)
(-0.0042896 -0.00495105 0)
(-0.00392939 -0.00157945 0)
(-0.00435645 -0.0030578 0)
(-0.00459927 -0.00138616 0)
(-0.00207517 -0.0044429 0)
(-0.00229727 -0.00460213 0)
(0.00104193 -0.00625095 0)
(0.00233707 -0.00770773 0)
(0.00174699 -0.00359366 0)
(0.00781199 -0.0026813 0)
(0.00744245 -0.00771122 0)
(0.00258586 -0.00698591 0)
(0.00113153 -0.00530747 0)
(-0.00106866 -0.00491473 0)
(-0.00262871 -0.00605621 0)
(0.00233524 -0.00248526 0)
(0.00204973 -0.00336249 0)
(0.00138731 -0.00580555 0)
(0.000432939 -0.00518749 0)
(-3.8595e-05 -0.00386163 0)
(0.000469329 -0.00226409 0)
(0.00236218 -0.00493179 0)
(0.00162407 -0.00537987 0)
(0.00540912 -0.00332666 0)
(0.00655877 -0.00382035 0)
(-0.00184773 -0.00219087 0)
(-0.00186097 -0.00493133 0)
(0.00192413 -0.00544827 0)
(-0.00048255 -0.00787993 0)
(0.000896625 -0.00863708 0)
(-0.00121249 -0.00822722 0)
(0.00275584 -0.0111919 0)
(-0.000863727 -0.0105173 0)
(-0.00178321 -0.00663834 0)
(0.00469674 -0.00703888 0)
(-0.00135153 -0.0176537 0)
(-0.0035646 0.000155414 0)
(-0.00953254 -0.00953599 0)
(-0.00707778 -0.00529979 0)
(-0.00726108 -0.00682343 0)
(-0.00811094 -0.0024018 0)
(0.000976324 0.000741757 0)
(0.00125371 0.00583058 0)
(0.00102456 0.00583524 0)
(0.00247745 0.00562874 0)
(0.00244057 0.00448465 0)
(0.00445018 0.00387331 0)
(0.00250654 0.00232136 0)
(0.00228619 0.00180133 0)
(-0.00405856 -0.0029122 0)
(-0.00227011 -0.000936103 0)
(0.000231563 -0.00295624 0)
(-0.00371897 -0.0130423 0)
(-0.0040345 -0.00757228 0)
(-0.00245921 -0.00253524 0)
(-0.00331055 -0.00339614 0)
(-0.00197463 -0.00453493 0)
(0.00294632 -0.00476896 0)
(0.00274209 -0.00674115 0)
(-0.00138515 -0.00710732 0)
(0.00213215 -0.00534 0)
(0.000801285 -0.00245514 0)
(-0.00448904 -0.0039147 0)
(-0.00419487 -0.00788239 0)
(-0.00156469 -0.00141265 0)
(-0.000438525 -0.00177763 0)
(-0.00217893 -0.0093731 0)
(0.000430697 -0.0104233 0)
(0.000348609 -0.00787314 0)
(-9.06769e-05 -0.00739095 0)
(-0.000344113 -0.0104573 0)
(0.00174027 -0.00231622 0)
(-0.00215897 0.00112504 0)
(-0.00237128 -0.00663067 0)
(-0.00498512 -0.00861426 0)
(-0.00390372 -0.00587772 0)
(-0.00528238 -0.00905566 0)
(-0.00419778 -0.00969054 0)
(-0.00200807 -0.00616926 0)
(-0.000550096 -0.0109311 0)
(0.000124295 -0.0119753 0)
(0.00168972 -0.0128623 0)
(0.0028432 -0.0158851 0)
(0.00567278 -0.00636694 0)
(0.00144782 -0.00265096 0)
(0.00187824 -0.00875066 0)
(-0.000283072 -0.00856258 0)
(0.00238041 -0.00689797 0)
(-0.000196891 -0.00793171 0)
(-0.00045967 -0.00412642 0)
(0.000747299 -0.00417956 0)
(-0.00181114 -0.0118538 0)
(-0.000950741 -0.0104546 0)
(-0.000536633 -0.00892663 0)
(0.00111953 -0.00955665 0)
(0.000809192 -0.00852674 0)
(0.00143053 -0.00887346 0)
(0.00330877 -0.00647209 0)
(0.00302351 -0.00454039 0)
(0.00166898 -0.00776112 0)
(0.00115273 -0.00913171 0)
(0.00278884 -0.00724805 0)
(0.00276403 -0.0105182 0)
(0.000856801 -0.012895 0)
(0.00314999 -0.012284 0)
(-0.00038359 -0.0103332 0)
(-0.00112991 -0.00882903 0)
(0.000659525 -0.0111363 0)
(-0.00052414 -0.00149141 0)
(-0.00124667 -0.00279051 0)
(-0.000861966 -0.0163264 0)
(-0.00322004 2.13396e-06 0)
(-0.00945856 -0.00763636 0)
(-0.0066662 -0.00756784 0)
(-0.00701952 -0.0104263 0)
(-0.00536092 -0.00204434 0)
(-0.00462049 -0.00691196 0)
(-0.00464086 -0.0106078 0)
(0.00027452 -0.00669049 0)
(0.00123442 -0.00285669 0)
(0.00340706 -0.00219559 0)
(0.00296041 -0.000320902 0)
(0.0036025 -0.00282716 0)
(0.00657796 -0.00385939 0)
(0.00268392 -0.00558903 0)
(0.00399643 -0.00503104 0)
(-0.00397444 -0.00680354 0)
(-0.00327871 -0.0100494 0)
(-0.00270647 0.000537926 0)
(0.0037801 -0.00121602 0)
(-0.00158278 -0.00502704 0)
(-0.000227359 0.00222908 0)
(-0.00251733 -0.00212359 0)
(-0.000542691 -0.00936779 0)
(-0.00225279 -0.00676393 0)
(-0.000692219 -0.00465499 0)
(-0.00157332 -0.00593779 0)
(-0.000868554 -0.00667182 0)
(-0.000819689 -0.00652756 0)
(0.00243059 -0.00461762 0)
(-0.00425731 -0.00555051 0)
(-0.00587926 -0.00496029 0)
(-0.00520129 -0.00268435 0)
(-0.002913 -5.32632e-05 0)
(-0.003078 0.00277402 0)
(-0.0037684 0.00638254 0)
(0.00550197 0.00771487 0)
(-0.00205746 0.00481593 0)
(-0.005196 0.000498926 0)
(-0.00326838 -0.00248744 0)
(-0.00388329 -0.00522821 0)
(-0.00394275 -0.00701404 0)
(0.000367353 -0.00795278 0)
(-0.00067327 -0.0106087 0)
(-0.00121454 -0.0133917 0)
(0.00271789 -0.0124199 0)
(0.00150934 -0.0129407 0)
(0.00239877 -0.0120972 0)
(0.00622023 -0.00914992 0)
(0.000351084 -0.00794384 0)
(-0.000827884 -0.0102359 0)
(0.00207743 -0.00755885 0)
(0.00400116 -0.0073077 0)
(0.000965826 -0.0102856 0)
(0.00476584 -0.00710676 0)
(-0.00137903 -0.00652928 0)
(-0.00136934 -0.00893444 0)
(-3.68181e-05 -0.00997033 0)
(-0.000520084 -0.0111706 0)
(-0.00105141 -0.0118032 0)
(-0.000629498 -0.0104798 0)
(0.00197772 -0.0109864 0)
(0.00251667 -0.00969687 0)
(0.00147427 -0.0101974 0)
(0.00245657 -0.0121729 0)
(0.00404181 -0.00873332 0)
(0.00311626 -0.0117104 0)
(-0.000172035 -0.0140677 0)
(0.00204068 -0.0120533 0)
(-0.00041803 -0.0103904 0)
(0.0013856 -0.00992618 0)
(-0.00290705 -0.00783066 0)
(0.000833226 -0.00703016 0)
(0.0015722 -0.00560571 0)
(-0.00360646 -0.00522178 0)
(-0.00268603 -0.0163541 0)
(-0.00475985 0.000797723 0)
(-0.00301036 -0.00802561 0)
(-0.00377696 -0.00623916 0)
(-0.0039217 -0.0111332 0)
(0.00161973 -0.00991297 0)
(-0.0060807 -0.0129878 0)
(-0.00527887 -0.0100515 0)
(-0.00525603 -0.0113342 0)
(-0.00161483 -0.012768 0)
(-0.000272589 -0.0103487 0)
(0.00348468 -0.00825123 0)
(0.00360341 -0.00315211 0)
(0.00451658 -0.0040539 0)
(0.000803561 -0.00620781 0)
(0.00173458 -0.00427346 0)
(-0.000813781 -0.00608664 0)
(0.000177783 -0.0070286 0)
(0.00232078 0.00366193 0)
(-0.00308459 0.00359961 0)
(7.19917e-05 -0.00252667 0)
(-0.00113432 -0.000595052 0)
(-0.00645899 0.000437673 0)
(-0.00224343 -0.00241999 0)
(-0.00045712 -0.00317612 0)
(-5.31645e-05 -0.0022454 0)
(-3.4974e-05 -0.00321722 0)
(0.000675175 -0.00383857 0)
(0.000820546 -0.00393073 0)
(-0.00224862 -0.00204126 0)
(-0.00475501 -0.00362747 0)
(-0.0067162 -0.00307493 0)
(-0.00628916 -0.00238349 0)
(-0.00779194 -0.00300105 0)
(-0.000798572 -0.00547305 0)
(0.00160449 -0.000209329 0)
(0.00245693 2.55292e-05 0)
(-0.00119968 -0.00995141 0)
(0.000513237 -0.00953295 0)
(0.000281554 -0.0103206 0)
(-3.15848e-05 -0.0105896 0)
(-0.000541088 -0.0110823 0)
(-0.000798895 -0.0147107 0)
(-0.000924875 -0.0157159 0)
(0.00048059 -0.01555 0)
(0.000167405 -0.0147919 0)
(0.00291322 -0.0175312 0)
(0.00129123 -0.0153656 0)
(0.000117314 -0.0118028 0)
(-9.48309e-05 -0.0107978 0)
(-0.00319557 -0.00818099 0)
(0.00177361 -0.00497635 0)
(0.00323938 -0.00821917 0)
(0.00331203 -0.00849105 0)
(-0.000477755 -0.0063989 0)
(-0.000979664 -0.00849632 0)
(0.000357938 -0.00694816 0)
(-0.000651712 -0.00753693 0)
(0.00108707 -0.00993055 0)
(-0.00019503 -0.0110326 0)
(0.00112343 -0.00751278 0)
(0.00174456 -0.00832719 0)
(0.00314786 -0.0115229 0)
(0.00294989 -0.00893966 0)
(0.00524317 -0.00916533 0)
(0.00257256 -0.00964983 0)
(0.0017563 -0.00886503 0)
(0.000359721 -0.00819951 0)
(0.000380592 -0.00934499 0)
(-0.000810897 -0.00839313 0)
(-0.00161344 -0.00863517 0)
(-0.00112172 -0.00745033 0)
(-0.00220295 -0.00602234 0)
(-0.000985656 -0.00645212 0)
(-0.00275611 -0.00678492 0)
(0.00250826 -0.0177439 0)
(0.000453065 0.00588348 0)
(-0.00451833 -0.00812328 0)
(-0.00216975 -0.0166893 0)
(-0.00402859 -0.00982453 0)
(-0.00198282 -0.00702673 0)
(-0.00455768 -0.0153765 0)
(-0.00289254 -0.01513 0)
(-0.00639791 -0.0135382 0)
(-0.00415666 -0.0126554 0)
(-0.00151418 -0.0132686 0)
(0.00142515 -0.008863 0)
(0.00303195 -0.00715542 0)
(0.00204506 -0.00557851 0)
(0.00227934 -0.00430803 0)
(0.00142772 -0.00494287 0)
(0.00118201 -0.00713898 0)
(0.00194717 -0.00418967 0)
(0.00413812 -0.00177851 0)
(-0.00234842 -0.00164186 0)
(-0.00110388 -0.000444849 0)
(-0.00227316 -0.00212928 0)
(-0.00272055 -0.00298013 0)
(-0.00263195 -0.00330692 0)
(-0.00188382 -0.00131776 0)
(-0.00134742 0.000161958 0)
(-0.00119684 -0.00083099 0)
(-0.00109985 -0.000998158 0)
(-0.000952364 -0.00208242 0)
(-0.00396064 -0.00184655 0)
(-0.00129466 -0.00301709 0)
(-0.00239186 -0.003018 0)
(-0.000447548 -0.00593256 0)
(-0.00112755 -0.00382949 0)
(0.000785396 -0.00439157 0)
(0.00153034 -0.00994196 0)
(-0.00202454 -0.0106696 0)
(-0.00179721 -0.00900088 0)
(-0.000706089 -0.00598126 0)
(-0.00188668 -0.00759188 0)
(0.001022 -0.00608216 0)
(-0.000725307 -0.00637991 0)
(0.00169584 -0.00678443 0)
(0.00257456 -0.00775893 0)
(0.00311611 -0.0104368 0)
(-0.00088181 -0.00890589 0)
(-0.000166813 -0.0106788 0)
(0.000178088 -0.0144352 0)
(-0.000305643 -0.0105678 0)
(-0.000505978 -0.0124786 0)
(0.000388388 -0.0100422 0)
(-0.000718646 -0.00253357 0)
(0.00217431 -0.0083142 0)
(0.00351499 -0.0161259 0)
(-0.00138587 -0.0141875 0)
(-0.00330799 -0.00758326 0)
(0.00249484 -0.0106105 0)
(0.000964099 -0.0102296 0)
(0.000770305 -0.00959883 0)
(0.000787925 -0.0113913 0)
(0.00193068 -0.00870728 0)
(-0.00064786 -0.00925321 0)
(0.00090405 -0.0080271 0)
(0.000870428 -0.00613919 0)
(0.00428751 -0.0074869 0)
(0.00314033 -0.00455601 0)
(0.00413446 -0.00473067 0)
(0.000497574 -0.00634045 0)
(0.00127249 -0.00522962 0)
(-0.000450411 -0.00688661 0)
(-0.00166921 -0.00700441 0)
(-0.00168474 -0.00661623 0)
(-0.00152466 -0.00718543 0)
(-0.00173717 -0.00783179 0)
(-0.00181392 -0.00815725 0)
(0.00207452 -0.0141863 0)
(0.0103972 0.00364419 0)
(-0.00692621 -0.00816611 0)
(0.00268247 -0.0056203 0)
(0.000242131 -0.0110916 0)
(-0.00481316 -0.00989543 0)
(-0.00399801 -0.0141938 0)
(-0.00641207 -0.0116196 0)
(-0.00614861 -0.0119678 0)
(-0.00593392 -0.00861881 0)
(-0.00442554 -0.00783612 0)
(-0.00196587 -0.00633802 0)
(-0.000767646 -0.00276566 0)
(0.00166704 -0.00127529 0)
(0.0011421 -0.000513515 0)
(-4.49626e-05 0.00196552 0)
(-0.000508254 0.00237143 0)
(0.00371351 0.00396887 0)
(0.00189254 0.00655855 0)
(-0.00151369 0.00676181 0)
(-0.00109389 0.00550777 0)
(-0.00513079 0.0041825 0)
(-0.00252421 0.00390016 0)
(-0.00330304 0.00293285 0)
(-0.00232961 0.00135474 0)
(-0.000157151 0.00056501 0)
(0.000780211 -0.00129596 0)
(-0.000845048 -0.00063867 0)
(1.78932e-05 -0.00501594 0)
(-0.00139937 -0.00266526 0)
(-0.0034313 -0.00606806 0)
(-0.00188268 -0.00757056 0)
(-0.000364004 -0.00635384 0)
(0.00234681 -0.00754984 0)
(-0.000785855 -0.00737431 0)
(-0.00141461 -0.00784781 0)
(-0.00157543 -0.00845284 0)
(-0.00121072 -0.0119873 0)
(-0.00202611 -0.01102 0)
(-0.00387432 -0.0101883 0)
(-0.00107159 -0.010819 0)
(-0.00220421 -0.00970492 0)
(0.00256326 -0.00748051 0)
(0.00256268 -0.00863738 0)
(0.00342401 -0.0103206 0)
(0.00360926 -0.00975726 0)
(0.00210401 -0.0102451 0)
(0.00212162 -0.0108558 0)
(0.00313141 -0.00999809 0)
(0.00126848 -0.00913345 0)
(0.005416 -0.00889415 0)
(0.000157567 -0.00578754 0)
(-0.00334006 -0.00713706 0)
(-0.00313742 -0.0119039 0)
(0.000302624 -0.0125896 0)
(-0.00247793 -0.00436926 0)
(-0.00340537 -0.00362241 0)
(0.00130502 -0.0102786 0)
(-0.00128526 -0.0103341 0)
(-0.00153899 -0.009613 0)
(0.00139575 -0.00760772 0)
(0.00227611 -0.00904198 0)
(-0.00145939 -0.00885675 0)
(-0.00212693 -0.00298459 0)
(0.00515503 -0.00336275 0)
(0.00463387 -0.00555799 0)
(0.00162672 -0.00672129 0)
(0.000850554 -0.00621896 0)
(0.00119364 -0.00578536 0)
(-0.000251977 -0.00837361 0)
(-0.000745915 -0.00888641 0)
(-0.000782716 -0.00889708 0)
(-0.000169387 -0.0095166 0)
(-0.00236612 -0.0107029 0)
(-0.00139326 -0.0131785 0)
(0.00124587 -0.0248664 0)
(0.00292282 -0.000171205 0)
(-0.000316395 -0.00908383 0)
(0.0028294 -0.000919929 0)
(0.00149174 -0.00901028 0)
(-0.00344991 -0.00178189 0)
(-0.00400755 -0.0056169 0)
(-0.00778477 -0.00674034 0)
(-0.00948343 -0.00223342 0)
(-0.00101907 -0.00418186 0)
(-0.00388388 -0.00747317 0)
(-0.00513342 -0.0054462 0)
(-0.000804007 -0.00533278 0)
(-0.00179619 -0.00488201 0)
(-0.00213929 -0.00606767 0)
(-0.000467432 -0.00644648 0)
(-0.0038478 -0.00303118 0)
(0.00248373 -0.00155314 0)
(0.00197312 -0.00506031 0)
(-0.00332645 -0.00258281 0)
(-0.00124576 -0.00371859 0)
(-0.00196741 -0.00362815 0)
(0.00052599 -0.00340804 0)
(-0.000447354 -0.0097551 0)
(0.000784689 -0.00867771 0)
(-0.0001386 -0.00542391 0)
(0.00225115 -0.00634444 0)
(0.000437394 -0.00368691 0)
(0.000249347 -0.00542271 0)
(0.00118164 -0.00969741 0)
(-0.00212538 -0.0117701 0)
(0.00295502 -0.0116249 0)
(0.000855549 -0.0139206 0)
(0.00268245 -0.0138257 0)
(0.000908505 -0.0116635 0)
(0.001328 -0.0124909 0)
(-0.00248832 -0.0127081 0)
(0.001435 -0.0126095 0)
(-0.00315925 -0.0135518 0)
(0.000286273 -0.0127176 0)
(-0.00222199 -0.0131369 0)
(-0.00167256 -0.0136706 0)
(0.000447476 -0.0122681 0)
(0.000972223 -0.0144071 0)
(0.00166434 -0.0118368 0)
(0.00263678 -0.00909951 0)
(0.000236998 -0.0082633 0)
(0.00148985 -0.00807812 0)
(-8.67363e-05 -0.00678536 0)
(0.0014269 -0.00581347 0)
(0.00318409 -0.00608379 0)
(0.00287265 -0.00575862 0)
(-0.00122516 -0.00444477 0)
(-0.000712057 -0.00587395 0)
(0.000164493 -0.00666919 0)
(0.00143652 -0.00538472 0)
(-0.00597803 -0.00203879 0)
(0.000469119 -0.00490674 0)
(0.000682645 -0.00959611 0)
(0.00122436 -0.007435 0)
(-0.00101161 -0.00576959 0)
(0.00114592 -0.0123392 0)
(-0.00193195 -0.0122613 0)
(-0.000905786 0.000334549 0)
(0.00297299 -0.00197193 0)
(0.00280483 -0.00949224 0)
(0.00129474 -0.00891239 0)
(0.002331 -0.00709986 0)
(0.00113054 -0.00605558 0)
(0.00164707 -0.00810688 0)
(0.00158543 -0.00823442 0)
(0.0018706 -0.00843108 0)
(-0.00118011 -0.0107437 0)
(0.00254159 -0.0119953 0)
(-0.000863111 -0.011849 0)
(-0.000737778 -0.0235976 0)
(-0.00473365 0.00808849 0)
(0.00490512 -0.0084574 0)
(0.000894095 0.000904364 0)
(-0.000786808 -0.00943023 0)
(-0.00355133 -0.00200711 0)
(-0.005134 -0.00311218 0)
(-0.00497158 -0.00347084 0)
(-0.00452302 0.00356424 0)
(-0.00589375 0.0011076 0)
(-0.00450383 -0.00757565 0)
(-0.00291433 0.000368066 0)
(-0.000458085 0.000664294 0)
(-0.00523933 -0.00631662 0)
(0.00225282 -0.00610861 0)
(0.000816281 -0.00925315 0)
(0.0027718 -0.00616405 0)
(1.15532e-05 -0.00340801 0)
(-0.00134995 -0.0145343 0)
(0.000780012 -0.014164 0)
(-0.00228315 -0.00947939 0)
(-0.00308761 -0.0105712 0)
(-0.000228707 -0.0112862 0)
(-0.00162715 -0.0126948 0)
(5.79743e-05 -0.0108499 0)
(-0.00699151 -0.00885191 0)
(0.00130058 -0.00984097 0)
(0.00321273 -0.0124112 0)
(-0.000580544 -0.0146948 0)
(0.00320411 -0.0156965 0)
(0.00318812 -0.0153698 0)
(0.0026064 -0.0133719 0)
(0.000247091 -0.0123915 0)
(0.00127863 -0.0110011 0)
(-0.00286546 -0.0102486 0)
(-0.000366334 -0.0099953 0)
(-0.00127963 -0.00605997 0)
(0.000403867 -0.00933182 0)
(-0.000735288 -0.0100478 0)
(0.00071133 -0.00884344 0)
(-0.00293055 -0.0131949 0)
(0.0010268 -0.0117291 0)
(-0.00209369 -0.0112229 0)
(-1.60783e-06 -0.0105899 0)
(-5.52822e-05 -0.0102705 0)
(0.00171496 -0.0113133 0)
(-0.0013594 -0.00930371 0)
(0.00159307 -0.00858159 0)
(-0.00247702 -0.00836841 0)
(0.00317751 -0.00549716 0)
(0.00323389 -0.0074656 0)
(-0.000244953 -0.007829 0)
(0.000912144 -0.0064534 0)
(0.00018389 -0.00708304 0)
(-0.000153252 -0.00914969 0)
(0.000197679 -0.00958492 0)
(-0.000361905 -0.00237609 0)
(-0.00186714 -0.00201341 0)
(-0.00329043 -0.00869173 0)
(0.00245821 -0.00941612 0)
(-0.001614 -0.00648495 0)
(0.00294085 -0.00934383 0)
(0.00368634 -0.00973279 0)
(0.00317415 0.0025075 0)
(-0.00167995 -0.000826247 0)
(-0.000249024 -0.00881161 0)
(-0.00108325 -0.00689833 0)
(0.00129858 -0.0051163 0)
(-0.000948733 -0.00452895 0)
(0.000937182 -0.00527915 0)
(0.000341983 -0.00509332 0)
(0.00135112 -0.0072483 0)
(0.00127457 -0.00648203 0)
(0.00302121 -0.00803609 0)
(0.00128183 -0.0129619 0)
(-0.000138922 -0.0302648 0)
(-0.0073661 0.0159688 0)
(0.0049352 -0.00221515 0)
(-0.00128986 -0.000441378 0)
(-0.00197816 -0.00871978 0)
(-0.0036509 -0.00230965 0)
(-0.00531404 -0.00673855 0)
(-0.00423968 -0.00676896 0)
(-0.00081648 -0.00585644 0)
(-0.00880256 -0.00827062 0)
(-0.00355228 -0.00788492 0)
(0.00345209 -0.00616537 0)
(-0.00107475 -0.0134637 0)
(-0.00229012 -0.00812871 0)
(0.000535255 -0.00590288 0)
(-0.00315143 -0.0115779 0)
(0.00604212 -0.00854246 0)
(0.000239911 -0.0101522 0)
(-0.00306331 -0.0116387 0)
(-0.000125286 -0.0112824 0)
(-0.00396446 -0.0144025 0)
(-0.000754047 -0.00755675 0)
(-0.000488662 -0.00706926 0)
(-0.00095464 -0.0128398 0)
(-0.00118321 -0.0156993 0)
(0.00114821 -0.0108617 0)
(0.00219163 -0.006962 0)
(0.00202072 -0.0159185 0)
(0.00275394 -0.0160987 0)
(-0.000341655 -0.0141874 0)
(9.50214e-05 -0.0166859 0)
(-0.00279638 -0.0144711 0)
(-0.00124962 -0.0114036 0)
(-0.00114012 -0.0113282 0)
(-0.00141772 -0.0103061 0)
(0.000492646 -0.00898005 0)
(0.00157287 -0.0121402 0)
(-0.00246773 -0.0124097 0)
(0.00206505 -0.0127147 0)
(-0.00229164 -0.0135117 0)
(-0.00112103 -0.0110995 0)
(0.000422193 -0.00883602 0)
(-0.000404265 -0.00877088 0)
(-0.00190969 -0.00974216 0)
(0.000597591 -0.00923643 0)
(0.000498503 -0.00998613 0)
(0.000548401 -0.00903103 0)
(0.000410066 -0.00924749 0)
(-0.000298023 -0.00594625 0)
(0.000729606 -0.00176718 0)
(0.00191525 -0.0111007 0)
(-0.000676648 -0.00950509 0)
(0.000531748 -0.00599912 0)
(0.000176688 -0.00880896 0)
(0.00139807 -0.00920754 0)
(0.00251372 -0.00819348 0)
(0.00505752 -0.00705812 0)
(-0.0012179 -0.00938031 0)
(-0.00171396 -0.00560334 0)
(-0.00125682 -0.00560619 0)
(0.000359265 -0.00401836 0)
(0.000288794 -0.00550447 0)
(0.00272173 -0.0100302 0)
(0.00103858 -0.00330629 0)
(-0.00211926 -0.00339472 0)
(-0.00136896 -0.0065805 0)
(-0.00160822 -0.00680748 0)
(0.00164854 -0.00692533 0)
(0.000284772 -0.00722869 0)
(0.00147315 -0.00746757 0)
(0.00146 -0.00867982 0)
(0.00301075 -0.00666874 0)
(0.00558694 -0.00645091 0)
(0.00366176 -0.00675206 0)
(0.00588318 -0.00637358 0)
(0.00400201 -0.0188466 0)
(-0.00282759 0.00876668 0)
(-0.00225507 0.000618947 0)
(-0.00381246 -0.000694715 0)
(-0.000208291 -0.00542522 0)
(-0.00193421 -0.00238211 0)
(-0.00318343 -0.00630461 0)
(-0.0028809 -0.00595658 0)
(-0.00218223 -0.00998196 0)
(-0.003043 -0.0109525 0)
(0.000177306 -0.00559865 0)
(-0.000648126 -0.00752683 0)
(-0.00127232 -0.0143646 0)
(0.000578304 -0.0118702 0)
(-0.00267955 -0.0116233 0)
(-0.00305739 -0.00616408 0)
(0.00121504 -0.00350038 0)
(-0.00212509 -0.0115871 0)
(-0.000512096 -0.0126783 0)
(-0.000977737 -0.0122015 0)
(0.000113732 -0.00956741 0)
(0.00366081 -0.00766586 0)
(-0.00144169 -0.0117497 0)
(-0.000684063 -0.016105 0)
(-0.000196489 -0.0146144 0)
(0.00294876 -0.0114599 0)
(-0.00226775 -0.0126905 0)
(-0.00372354 -0.0107709 0)
(0.000448661 -0.0114793 0)
(0.000978577 -0.0100848 0)
(0.000374017 -0.00868497 0)
(-0.00105134 -0.0103104 0)
(-0.000731228 -0.00891075 0)
(-0.00221747 -0.00993288 0)
(-0.00077368 -0.00815027 0)
(-0.00195744 -0.00608037 0)
(0.000431582 -0.00705921 0)
(-0.000579453 -0.00674037 0)
(-0.00119072 -0.00692752 0)
(-0.000653143 -0.00744428 0)
(-0.000868969 -0.0072049 0)
(0.000638756 -0.00770916 0)
(-0.000477014 -0.00991564 0)
(0.000653556 -0.00740261 0)
(0.00138264 -0.00638986 0)
(-0.000363063 -0.00985162 0)
(0.00133283 -0.00770152 0)
(3.10334e-06 -0.00784334 0)
(0.0040377 -0.00717175 0)
(-0.00193527 -0.00378956 0)
(-0.00188776 -0.00881301 0)
(0.000515056 -0.0102912 0)
(-0.000176221 -0.00830906 0)
(-0.000866518 -0.00961619 0)
(0.00109825 -0.0101106 0)
(3.61571e-05 -0.00899731 0)
(0.00199921 -0.00821854 0)
(0.00225324 -0.00833832 0)
(0.00378991 -0.00873894 0)
(-0.00246145 -0.00918328 0)
(0.00235463 -0.00798308 0)
(-0.00371696 -0.00993651 0)
(-0.00131966 -0.0116869 0)
(-0.00319146 -0.00494223 0)
(-0.000416884 -0.00538192 0)
(0.000980426 -0.0102652 0)
(-0.000411351 -0.00815354 0)
(0.000375386 -0.0081612 0)
(-0.00050142 -0.00865169 0)
(0.000853548 -0.00717526 0)
(0.00145873 -0.00715329 0)
(0.00174009 -0.00539623 0)
(0.00103567 -0.0042616 0)
(0.00198221 -0.00270086 0)
(0.00107672 -0.000720466 0)
(0.00740415 -0.018763 0)
(-0.000366868 0.00149471 0)
(-0.00646818 -0.00503021 0)
(-0.00626636 -0.00203369 0)
(-0.00206892 -0.00631761 0)
(-0.00193161 -0.00384942 0)
(-0.00034091 -0.00696583 0)
(-0.00121658 -0.0070844 0)
(-0.00158163 -0.00919735 0)
(-0.000128914 -0.00926936 0)
(0.00108046 -0.00696996 0)
(-0.00388647 -0.00680214 0)
(-0.00404003 -0.00976254 0)
(-0.00168899 -0.00689906 0)
(-4.01578e-05 -0.00599631 0)
(-0.000930926 -0.00378372 0)
(-0.000273398 -0.0036545 0)
(-0.000386748 -0.0105518 0)
(7.2226e-05 -0.00903748 0)
(-0.00157593 -0.0106885 0)
(0.00111381 -0.00961517 0)
(-0.000268822 -0.00836343 0)
(-0.00117639 -0.00854718 0)
(-4.583e-05 -0.00941818 0)
(0.00162256 -0.0103276 0)
(0.000431733 -0.00947143 0)
(-0.00212349 -0.00838991 0)
(-0.00336285 -0.00897398 0)
(0.00112922 -0.00507471 0)
(0.00193701 -0.00533456 0)
(-0.0022659 -0.00784955 0)
(-0.00232993 -0.00461384 0)
(-0.00101926 -0.0031661 0)
(-0.00370727 -0.00265968 0)
(-0.00573474 0.000653288 0)
(-0.00215932 0.00457583 0)
(0.00346644 0.00215676 0)
(0.000306189 -0.00292083 0)
(-0.00183119 -0.00332395 0)
(0.00149695 -0.00522009 0)
(0.000746475 -0.00311232 0)
(0.000445948 -0.00447858 0)
(0.000896556 -0.00403343 0)
(0.00136509 -0.0030294 0)
(-0.0011063 -0.00442955 0)
(-0.00115313 -0.00409087 0)
(0.00212043 -0.00413339 0)
(0.000872762 -0.00365502 0)
(0.00256669 -0.00412949 0)
(1.66359e-06 -0.00444803 0)
(-0.00174214 -0.00614668 0)
(0.000760576 -0.00711362 0)
(0.000738831 -0.00836844 0)
(-0.000111083 -0.00893934 0)
(0.000638353 -0.0106764 0)
(0.00123028 -0.0101247 0)
(0.00180224 -0.00746838 0)
(0.00307178 -0.00965801 0)
(0.00185919 -0.0111911 0)
(0.00132693 -0.00827325 0)
(-0.000829636 -0.00734572 0)
(-0.00231898 -0.0127984 0)
(-0.00204832 -0.0135077 0)
(-0.000382281 -0.00621578 0)
(-0.00256361 -0.0046486 0)
(0.000211931 -0.0133695 0)
(-0.000149095 -0.0123919 0)
(-0.00232401 -0.0101578 0)
(-0.00316267 -0.0090811 0)
(0.00278147 -0.00776678 0)
(0.00151329 -0.00886872 0)
(0.000290191 -0.00807823 0)
(0.000610121 -0.0075223 0)
(-9.39204e-05 -0.00887259 0)
(-0.00125243 -0.00754969 0)
(0.00523952 -0.0109638 0)
(-0.00223771 -0.000912539 0)
(-0.00238537 -0.00736089 0)
(-0.00539047 -0.00429749 0)
(0.000587329 -0.00897161 0)
(-0.000762166 -0.00826197 0)
(0.000238455 -0.00971796 0)
(-0.000906517 -0.00872811 0)
(0.000642512 -0.00895435 0)
(-0.000684691 -0.0067208 0)
(-0.000328485 -0.00637246 0)
(-0.0017144 -0.00775451 0)
(-0.00210979 -0.00690451 0)
(-0.000630194 -0.00372826 0)
(-0.000907809 -0.00660094 0)
(0.000941929 -0.00150683 0)
(4.18002e-05 0.0025948 0)
(-3.54063e-05 -0.00692395 0)
(-0.0021752 -0.0105794 0)
(-0.00469402 -0.00762531 0)
(-0.000375875 -0.00460681 0)
(0.00247031 -0.00588547 0)
(0.00143309 -0.00829024 0)
(0.000616526 -0.00983517 0)
(9.90004e-05 -0.00918676 0)
(-5.86482e-05 -0.00863504 0)
(-0.000231694 -0.00860145 0)