/*--------------------------------*- C++ -*----------------------------------*\
  =========                 |
  \\      /  F ield         | OpenFOAM: The Open Source CFD Toolbox
   \\    /   O peration     | Website:  https://openfoam.org
    \\  /    A nd           | Version:  12
     \\/     M anipulation  |
\*---------------------------------------------------------------------------*/
FoamFile
{
    format      ascii;
    class       IOPosition;
    location    "0.6/lagrangian/cloud";
    object      positions;
}
// * * * * * * * * * * * * * * * * * * * * * * * * * * * * * * * * * * * * * //

5175
(
(4.36879e-08 0.5 6.79931e-09 0.5) 0 7376 1
(4.36961e-08 0.5 6.27919e-09 0.5) 0 7376 1
(4.37041e-08 0.5 0.000214591 0.499785) 0 7376 2
(4.37119e-08 0.5 0.0206611 0.479339) 0 7376 2
(4.37195e-08 0.5 0.0397249 0.460275) 0 7376 2
(4.37269e-08 0.5 0.0878533 0.412147) 0 7376 2
(4.37341e-08 0.5 0.0620002 0.438) 0 7376 2
(4.37411e-08 0.5 0.133791 0.366209) 0 7376 2
(0.0667007 0.46665 0.0763742 0.390275) 0 7376 2
(0.188402 0.405799 0.00244 0.403359) 0 7376 2
(0.181438 0.409281 0.160612 0.248669) 0 7375 1
(0.187152 0.406424 0.0737436 0.33268) 0 7375 1
(0.193584 0.403208 0.150404 0.252804) 0 7375 1
(0.0435356 0.366491 0.478232 0.111741) 0 7375 2
(0.000442566 0.499779 0.357523 0.142255) 1 7377 1
(0.0876776 0.456161 0.159398 0.296764) 1 7377 1
(0.222362 0.375071 0.388819 0.0137475) 1 7377 2
(0.785302 0.0159216 0.107349 0.0914273) 1 7377 2
(0.258572 0.370714 0.027791 0.342923) 1 2 1
(0.498981 0.25051 0.181543 0.0689667) 2 7378 1
(0.593096 0.136566 0.203452 0.0668854) 2 4 2
(0.4211 0.0273345 0.262116 0.28945) 3 7 1
(0.454884 0.036445 0.236113 0.272558) 5 8 2
(0.169782 0.107115 0.415109 0.307995) 6 12 2
(0.436617 0.0257771 0.255914 0.281692) 7 15 1
(0.431661 0.28417 0.0190524 0.265117) 8 7384 1
(0.539381 0.23031 0.21073 0.0195791) 9 7385 1
(0.387452 0.306274 0.284318 0.021956) 10 7386 1
(0.524473 0.101892 0.237763 0.135871) 11 22 2
(0.418249 0.149863 0.290875 0.141012) 12 7388 2
(0.328903 0.335548 0.263945 0.0716036) 14 26 1
(0.404693 0.248225 0.0494284 0.297654) 15 31 1
(0.241716 0.379142 0.0590191 0.320123) 17 35 2
(0.133556 0.433222 0.260345 0.172877) 17 34 1
(0.227917 0.0621637 0.386042 0.323878) 18 36 2
(0.405258 0.195562 0.101809 0.297371) 19 39 1
(0.544481 0.22776 0.0716551 0.156104) 20 41 2
(0.0437659 0.478117 0.274989 0.203128) 20 40 1
(0.242352 0.378824 0.321507 0.057317) 21 42 1
(0.44162 0.0781578 0.27919 0.201032) 22 7398 2
(0.106257 0.446872 0.125524 0.321347) 24 46 1
(0.421674 0.289163 0.0292524 0.25991) 25 48 1
(0.184483 0.407759 0.169302 0.238457) 26 50 1
(0.101749 0.449125 0.164291 0.284834) 27 52 1
(0.0632184 0.468391 0.171622 0.296769) 28 54 1
(0.420886 0.228635 0.289557 0.0609216) 29 7405 2
(0.55317 0.160491 0.223415 0.0629236) 30 60 2
(0.220716 0.0634942 0.326148 0.389642) 33 64 2
(0.389723 0.244244 0.0608943 0.305139) 34 69 1
(0.488046 0.255977 0.186929 0.0690474) 35 7411 1
(0.404609 0.297695 0.288093 0.00960272) 36 7412 1
(0.118269 0.133344 0.307521 0.440865) 39 76 2
(0.242846 0.378577 0.211875 0.166702) 40 81 2
(0.104798 0.447601 0.154404 0.293197) 116 83 2
(0.00361235 0.498194 0.0857082 0.412486) 43 87 2
(0.198087 0.380266 0.0206907 0.400957) 117 231 2
(0.543326 0.228337 0.162827 0.0655093) 42 7418 1
(0.657438 0.171281 0.137474 0.0338065) 43 7419 1
(0.118761 0.44062 0.0283638 0.412256) 43 86 1
(0.726012 0.0342008 0.136994 0.102793) 44 7420 2
(0.108031 0.445985 0.228359 0.217625) 45 91 2
(0.111105 0.444447 0.24666 0.197787) 46 93 2
(0.178404 0.410798 0.140287 0.270511) 47 95 2
(0.197223 0.401388 0.0246525 0.376736) 48 97 2
(0.171893 0.0249199 0.389133 0.414053) 49 96 2
(0.187352 0.025628 0.380696 0.406324) 50 98 2
(0.151027 0.0949667 0.32952 0.424487) 51 100 2
(0.470614 0.0736896 0.264693 0.191004) 51 7427 2
(0.613678 0.193161 0.0719942 0.121167) 52 7428 1
(0.193158 0.403421 0.231645 0.171777) 53 104 1
(0.350092 0.324954 0.255479 0.0694753) 53 106 1
(0.279997 0.0879623 0.272039 0.360002) 54 109 1
(0.444086 0.277957 0.0499762 0.227981) 55 7431 1
(0.197069 0.0576853 0.401465 0.34378) 56 112 2
(0.305177 0.00844479 0.338967 0.347412) 57 115 1
(4.34429e-08 0.499999 1.01081e-06 0.5) 75 7451 1
(4.34738e-08 0.499999 1.01168e-06 0.5) 75 7451 1
(3.29433e-08 0.5 0.0426819 0.457318) 0 7376 2
(3.32243e-08 0.236525 0.263475 0.5) 0 7376 1
(0.199249 0.400376 0.172062 0.228314) 0 7375 1
(0.353655 0.323173 0.322483 0.000689554) 0 7376 2
(0.662366 0.168817 0.105712 0.0631051) 0 7376 2
(0.580822 0.120388 0.209589 0.0892014) 0 7375 2
(4.35045e-08 0.5 0.0722083 0.427792) 75 7451 2
(0.528589 0.235705 0.215611 0.0200944) 0 0 1
(0.0449243 0.477538 0.0853816 0.392156) 0 1 2
(0.170409 0.371707 0.414795 0.0430887) 75 1 1
(0.118488 0.241235 0.440756 0.199521) 75 1 1
(0.122706 0.195947 0.438647 0.2427) 75 1 1
(0.179726 0.352265 0.410137 0.0578715) 0 7375 2
(0.135185 0.174016 0.432407 0.258392) 75 1 1
(0.122899 0.118297 0.43855 0.320254) 75 1 1
(0.194275 0.402863 0.393684 0.00917904) 75 149 1
(0.160859 0.41957 0.0814741 0.338096) 1 7377 1
(0.906643 0.0409525 0.0466785 0.00572606) 1 2 2
(0.3572 0.161795 0.3214 0.159605) 76 3 1
(0.0161836 0.160513 0.491908 0.331396) 1 2 2
(0.336607 0.0587774 0.331697 0.272919) 76 3 1
(0.202808 0.398596 0.113137 0.285458) 76 151 1
(0.328428 0.335786 0.0973808 0.238405) 77 151 1
(0.0876687 0.456166 0.355512 0.100654) 81 13 2
(0.0217683 0.489116 0.167954 0.321162) 83 163 1
(0.0462085 0.476896 0.0901827 0.386713) 84 165 1
(0.073652 0.463174 0.201097 0.262077) 85 21 2
(0.0497369 0.212189 0.262943 0.475132) 11 23 1
(0.0372804 0.48136 0.0761981 0.405162) 13 27 2
(0.256122 0.200566 0.171373 0.371939) 84 168 1
(0.240455 0.0409317 0.379772 0.338841) 157 164 1
(0.417457 0.101072 0.1902 0.291271) 85 170 1
(0.366169 0.303166 0.0137495 0.316916) 86 172 1
(0.0290629 0.143277 0.485469 0.342191) 86 171 2
(0.0307841 0.484608 0.128431 0.356177) 91 179 1
(0.271944 0.364028 0.0428419 0.321186) 93 183 1
(0.350637 0.324682 0.233724 0.0909573) 94 187 1
(0.618719 0.115336 0.19064 0.0753042) 95 41 1
(0.0580913 0.32411 0.146844 0.470954) 21 43 1
(0.38245 0.308775 0.156757 0.152018) 96 43 2
(0.0458874 0.477056 0.184608 0.292448) 170 336 1
(0.273909 0.363045 0.323637 0.0394078) 96 192 2
(0.213828 0.393086 0.249736 0.14335) 97 191 1
(0.012992 0.493504 0.490204 0.00329987) 101 201 1
(0.16275 0.00523103 0.413394 0.418625) 28 57 1
(0.292296 0.10202 0.353852 0.251832) 104 59 1
(0.339927 0.0816346 0.330037 0.248402) 105 61 1
(0.458595 0.268843 0.270703 0.00185994) 108 67 1
(0.000266588 0.180686 0.31918 0.499867) 35 71 1
(0.155444 0.422278 0.112933 0.309345) 182 214 2
(0.0559555 0.288788 0.183235 0.472022) 108 216 1
(0.267966 0.366017 0.276431 0.0895858) 109 218 2
(0.363317 0.318342 0.081648 0.236694) 110 220 2
(0.129529 0.218709 0.435235 0.216527) 110 219 2
(0.460605 0.269697 0.257295 0.012402) 111 222 2
(0.174448 0.100473 0.412776 0.312303) 114 227 2
(0.0468902 0.476555 0.126047 0.350508) 117 234 2
(0.23434 0.157705 0.38283 0.225125) 117 233 2
(0.892017 0.0216651 0.0539914 0.0323263) 118 235 2
(0.541915 0.229042 0.106701 0.122342) 119 235 1
(0.699586 0.150207 0.0191716 0.131035) 190 378 1
(0.400822 0.274718 0.0248709 0.299589) 192 380 2
(0.365308 0.317346 0.130569 0.186778) 193 236 2
(0.106455 0.446772 0.114637 0.332135) 194 384 1
(0.300537 0.125165 0.349732 0.224567) 194 238 1
(0.358127 0.286243 0.320936 0.0346932) 195 240 1
(0.304173 0.347913 0.0249857 0.322928) 196 242 2
(0.0266017 0.486699 0.400703 0.0859962) 123 246 2
(0.159047 0.373259 0.0472178 0.420476) 124 248 1
(0.0364501 0.481775 0.12528 0.356495) 127 251 1
(0.146028 0.411333 0.0156532 0.426986) 126 252 1
(0.146122 0.302058 0.426939 0.124881) 200 250 1
(0.188985 0.405507 0.363324 0.042183) 202 254 2
(4.38095e-08 0.5 0.5 4.06112e-09) 150 7452 2
(4.38119e-08 0.5 0.5 3.88169e-09) 150 7452 2
(0.0178743 0.491063 0.0287464 0.462316) 75 7451 2
(4.38143e-08 0.5 0.14379 0.35621) 150 7452 2
(0.160257 0.0327313 0.419872 0.38714) 75 1 1
(0.156523 0.0507884 0.421738 0.37095) 75 1 1
(0.0850834 0.457458 0.176469 0.280989) 75 7451 2
(0.426672 0.286664 0.239427 0.047237) 75 1 2
(0.102434 0.448783 0.434495 0.0142883) 75 149 1
(0.562343 0.218828 0.168571 0.0502576) 75 1 2
(0.818723 0.0906387 0.0508202 0.0398184) 75 149 1
(0.237227 0.00375726 0.381386 0.377629) 75 1 1
(0.588362 0.205819 0.0970431 0.108776) 75 149 1
(0.123631 0.438185 0.336732 0.101453) 150 150 2
(0.219142 0.390429 0.166798 0.223631) 150 150 2
(0.0957831 0.419511 0.452108 0.0325974) 150 150 1
(0.109964 0.327268 0.445018 0.117751) 150 150 1
(0.575201 0.2124 0.107269 0.10513) 75 149 1
(0.240489 0.379756 0.273343 0.106413) 75 149 1
(0.015413 0.492294 0.446202 0.0460914) 75 149 1
(0.134017 0.432992 0.410835 0.0221562) 76 3 2
(0.243011 0.378495 0.33481 0.0436842) 76 3 2
(0.415255 0.292372 0.00383478 0.288538) 76 149 1
(0.954871 0.00662085 0.0225647 0.0159438) 76 151 2
(0.168134 0.283736 0.415933 0.132198) 151 152 1
(0.119783 0.440108 0.20623 0.233878) 151 300 1
(0.28683 0.356585 0.232314 0.124271) 152 154 2
(0.0617786 0.0335409 0.469111 0.43557) 152 154 1
(0.242807 0.003161 0.375435 0.378596) 78 156 1
(0.0615192 0.158486 0.310754 0.46924) 80 157 2
(0.254055 0.372972 0.0727896 0.300183) 81 162 2
(0.121619 0.43919 0.33131 0.10788) 230 309 2
(0.401521 0.299239 0.244482 0.0547575) 155 309 2
(0.351643 0.00234167 0.321837 0.324178) 156 308 2
(0.377673 0.266766 0.0443977 0.311164) 156 311 1
(0.121916 0.115204 0.323838 0.439042) 157 310 2
(0.139169 0.430416 0.232187 0.198229) 159 314 1
(0.258907 0.370547 0.104523 0.266024) 160 316 1
(0.669843 0.165078 0.153139 0.011939) 161 172 2
(0.413343 0.293328 0.105371 0.187958) 162 174 2
(0.176909 0.411545 0.0477336 0.363812) 163 322 1
(0.22257 0.00539142 0.388715 0.383323) 163 176 1
(0.182274 0.113673 0.408863 0.29519) 164 178 1
(0.0738757 0.463062 0.455024 0.00803828) 166 182 2
(0.429405 0.116269 0.285297 0.169028) 167 184 1
(0.254298 0.372851 0.170014 0.202837) 170 338 1
(0.0830636 0.458468 0.311366 0.147103) 172 194 2
(0.260308 0.0827023 0.287144 0.369846) 97 194 1
(0.446323 0.257854 0.0189844 0.276839) 100 200 1
(0.294376 0.131627 0.352812 0.221186) 101 201 2
(0.316288 0.274997 0.341856 0.0668589) 175 200 1
(0.0646179 0.064916 0.467691 0.402775) 176 202 1
(0.388478 0.305761 0.0343905 0.27137) 177 204 2
(0.0894164 0.455292 0.173633 0.281659) 252 353 2
(0.0208734 0.166736 0.322827 0.489563) 178 352 2
(0.260267 0.164275 0.205591 0.369866) 178 355 1
(0.386536 0.147627 0.159105 0.306732) 179 357 1
(0.207393 0.0375035 0.396303 0.3588) 180 358 2
(0.715126 0.142437 0.0739819 0.0684552) 184 367 2
(0.12552 0.43724 0.320483 0.116757) 186 368 1
(0.00939096 0.495305 0.410344 0.0849608) 186 370 1
(0.214923 0.103346 0.392539 0.289193) 187 224 1
(0.102255 0.448872 0.0172627 0.43161) 261 517 1
(0.005127 0.497437 0.469646 0.0277904) 261 519 1
(0.0157581 0.123381 0.492121 0.36874) 187 372 2
(0.407413 0.0855003 0.296294 0.210793) 263 375 1
(0.0125444 0.252201 0.241527 0.493728) 190 379 1
(0.0527532 0.245776 0.473623 0.227848) 266 381 1
(0.46337 0.268315 0.188039 0.0802762) 267 383 2
(0.171885 0.414058 0.0494789 0.364579) 268 531 1
(0.147776 0.426112 0.0335111 0.392601) 269 533 1
(0.320181 0.33991 0.0392135 0.300696) 270 535 1
(0.307044 0.346478 0.0490772 0.297401) 271 537 1
(0.309691 0.345154 0.296532 0.0486221) 272 393 2
(0.463288 0.268356 0.155626 0.11273) 273 395 2
(4.37596e-08 0.5 0.5 2.98571e-09) 225 7453 2
(4.37639e-08 0.5 0.5 2.85859e-09) 225 7453 2
(4.26327e-08 0.5 0.0519855 0.448014) 150 7452 2
(4.37682e-08 0.5 0.153335 0.346665) 225 7453 2
(4.26525e-08 0.5 0.00338616 0.496614) 150 7452 2
(0.100977 0.449511 0.157165 0.292346) 75 150 2
(0.102277 0.448862 0.445789 0.0030723) 150 150 2
(0.0906309 0.214871 0.239813 0.454685) 75 150 1
(0.0793849 0.167232 0.293076 0.460308) 75 150 1
(0.0697288 0.220356 0.24478 0.465136) 75 150 1
(0.0161145 0.113435 0.378507 0.491943) 75 150 1
(0.0212302 0.0799827 0.409402 0.489385) 75 150 1
(0.0243366 0.058828 0.429004 0.487832) 75 150 1
(0.173517 0.00402306 0.413242 0.409218) 150 150 1
(0.19943 0.163975 0.400285 0.23631) 225 299 1
(0.241415 0.379293 0.374458 0.00483467) 150 298 1
(0.736152 0.131924 0.115915 0.0160088) 150 298 1
(0.867354 0.0127939 0.066323 0.0535291) 150 298 2
(0.0210809 0.48946 0.0740781 0.415381) 151 298 1
(0.2973 0.35135 0.0861566 0.265193) 151 152 2
(0.231759 0.38412 0.105439 0.278681) 151 152 2
(0.200097 0.399951 0.0588859 0.341066) 151 152 2
(0.796839 0.10158 0.0785606 0.0230199) 151 298 1
(0.779732 0.110134 0.044476 0.065658) 226 301 2
(0.369523 0.22955 0.0856885 0.315238) 151 301 1
(0.44104 0.202436 0.27948 0.0770443) 151 300 2
(0.428516 0.285742 0.274375 0.0113674) 226 449 1
(0.25964 0.37018 0.275605 0.0945748) 226 449 1
(0.0788773 0.460561 0.449032 0.0115298) 227 449 1
(0.71804 0.0376296 0.14098 0.10335) 227 303 1
(0.66337 0.0705405 0.0977743 0.168315) 228 451 2
(0.385285 0.125536 0.181821 0.307357) 229 453 2
(0.163292 0.0698824 0.348471 0.418354) 230 455 2
(0.2702 0.312884 0.3649 0.052016) 305 458 1
(0.21944 0.0634013 0.326879 0.39028) 231 457 2
(0.212968 0.0319865 0.393516 0.36153) 231 459 2
(0.116358 0.033066 0.408755 0.441821) 232 462 1
(0.106227 0.0146139 0.446886 0.432272) 232 313 1
(0.31285 0.275345 0.343575 0.0682297) 233 315 1
(0.327222 0.336389 0.298206 0.0381829) 234 317 2
(0.0924058 0.453797 0.347056 0.106741) 234 465 1
(0.305861 0.115512 0.34707 0.231558) 235 319 1
(0.204391 0.187969 0.397804 0.209835) 236 321 1
(0.0362348 0.481883 0.208789 0.273094) 238 325 2
(0.0188964 0.490552 0.14734 0.343212) 239 327 2
(0.233635 0.383183 0.229283 0.1539) 165 329 2
(0.147468 0.426266 0.207587 0.218679) 241 331 2
(0.0403093 0.301524 0.479845 0.178321) 242 333 1
(0.212444 0.0355538 0.393778 0.358224) 243 335 1
(0.242176 0.378912 0.0650018 0.31391) 245 485 1
(0.000682161 0.499659 0.11522 0.384439) 171 341 2
(0.036004 0.0454792 0.481998 0.436519) 171 340 2
(0.00441065 0.108137 0.497795 0.389658) 172 342 2
(0.0667792 0.228272 0.238338 0.46661) 174 347 1
(0.834073 0.0829636 0.0316662 0.0512974) 250 498 2
(0.502215 0.248893 0.0283268 0.220566) 251 500 2
(0.234793 0.306803 0.0758007 0.382604) 252 502 1
(0.211113 0.332607 0.0618367 0.394444) 254 503 2
(0.323029 0.163974 0.174511 0.338485) 255 508 1
(0.739002 0.0450441 0.130499 0.0854549) 256 509 2
(0.180319 0.346232 0.40984 0.0636087) 257 511 2
(0.316688 0.341656 0.0508393 0.290817) 259 367 2
(0.124225 0.257837 0.180051 0.437887) 260 515 2
(0.0602482 0.469876 0.0635656 0.40631) 335 518 2
(0.160512 0.419744 0.410318 0.00942617) 261 520 2
(0.285263 0.357369 0.333831 0.0235372) 262 522 2
(0.0173642 0.176403 0.491318 0.314915) 263 523 2
(0.349398 0.160816 0.164485 0.325301) 265 525 2
(0.0342533 0.482873 0.406426 0.0764472) 265 528 2
(0.0529784 0.473511 0.315895 0.157616) 341 530 2
(0.0269658 0.486517 0.430778 0.0557393) 341 678 1
(0.0786678 0.460666 0.423135 0.0375312) 342 680 1
(0.147157 0.426421 0.110302 0.316119) 344 536 2
(0.32165 0.220825 0.339175 0.11835) 345 538 1
(0.526835 0.236582 0.0445449 0.192038) 346 540 2
(4.37383e-08 0.5 0.5 7.36762e-09) 300 7454 2
(4.37436e-08 0.5 0.5 7.14564e-09) 300 7454 2
(4.31182e-08 0.5 0.0280893 0.471911) 225 7453 2
(4.37489e-08 0.5 0.161481 0.338519) 300 7454 2
(4.31356e-08 0.5 0.0140023 0.485998) 225 7453 2
(0.0277495 0.486125 0.022251 0.463874) 150 299 2
(0.100713 0.449644 0.147997 0.301647) 225 299 2
(0.0996623 0.450169 0.147058 0.30311) 225 299 2
(0.192442 0.403779 0.368216 0.0355629) 225 447 1
(0.673798 0.00994219 0.163101 0.153159) 150 298 2
(0.217207 0.391396 0.357919 0.0334778) 225 447 1
(0.24974 0.37513 0.35827 0.0168603) 225 447 1
(0.190505 0.404747 0.391519 0.0132287) 225 447 1
(0.236913 0.381543 0.365716 0.0158274) 225 447 1
(0.20832 0.39584 0.376132 0.019708) 225 447 1
(0.244022 0.377989 0.365402 0.012587) 225 447 1
(0.206813 0.396594 0.388757 0.00783709) 225 447 1
(0.214842 0.392579 0.378652 0.0139267) 225 447 1
(0.674163 0.162918 0.106295 0.0566235) 225 447 1
(0.242279 0.378861 0.258939 0.119922) 150 299 2
(0.330649 0.334676 0.286769 0.0479068) 226 301 2
(0.429606 0.285197 0.24012 0.0450765) 226 301 2
(0.213687 0.393157 0.0904152 0.302742) 301 596 1
(0.542752 0.228624 0.0848587 0.143765) 301 450 2
(0.91185 0.0440749 0.0407816 0.00329332) 301 450 2
(0.173389 0.217678 0.413306 0.195627) 301 450 1
(0.394542 0.00964222 0.302729 0.293087) 301 450 1
(0.0232626 0.488369 0.266261 0.222108) 301 598 1
(0.0440666 0.477967 0.351016 0.126951) 302 598 1
(0.714458 0.142771 0.0345517 0.108219) 302 452 2
(0.0486999 0.358972 0.47565 0.116678) 302 600 2
(0.564193 0.0877463 0.130157 0.217903) 303 603 1
(0.349763 0.325119 0.301104 0.0240142) 304 605 2
(0.0608452 0.469577 0.447096 0.0224814) 305 607 2
(0.0552272 0.472386 0.386711 0.0856749) 306 609 2
(0.048565 0.475718 0.0770448 0.398673) 382 611 2
(0.206303 0.396848 0.167765 0.229084) 383 613 2
(0.297206 0.351397 0.194853 0.156544) 384 615 2
(0.318066 0.340967 0.160055 0.180911) 385 617 2
(0.324434 0.295967 0.337783 0.0418161) 310 468 1
(0.470082 0.264959 0.139489 0.12547) 311 470 2
(0.177098 0.411451 0.308269 0.103182) 311 618 1
(0.206875 0.396563 0.205054 0.191508) 237 472 2
(0.215275 0.392362 0.0132724 0.37909) 238 474 2
(0.0309884 0.101234 0.484506 0.383272) 238 473 2
(0.256454 0.113321 0.258452 0.371773) 239 476 1
(0.261809 0.345004 0.0240919 0.369096) 240 478 1
(0.226199 0.0891844 0.297716 0.3869) 241 480 1
(0.114452 0.0661761 0.442774 0.376598) 242 481 2
(0.0892062 0.455397 0.182105 0.273292) 244 486 2
(0.053695 0.473153 0.399381 0.0737712) 245 488 2
(0.197279 0.40136 0.32321 0.0781509) 246 490 2
(0.23495 0.107852 0.274673 0.382525) 247 492 1
(0.273724 0.363138 0.150115 0.213023) 249 496 2
(0.416397 0.291802 0.111084 0.180718) 325 498 2
(0.380895 0.221261 0.309553 0.0882913) 326 648 2
(0.204135 0.201362 0.397933 0.196571) 327 650 2
(0.246785 0.116645 0.259963 0.376608) 329 652 2
(0.33679 0.0355185 0.296087 0.331605) 330 654 2
(0.278588 0.0771633 0.283543 0.360706) 331 656 2
(0.103614 0.142187 0.306006 0.448193) 332 658 2
(0.145826 0.142223 0.427087 0.284864) 332 660 2
(0.379545 0.0628361 0.310227 0.247391) 333 662 2
(0.239584 0.172784 0.207424 0.380208) 334 665 1
(0.295346 0.104784 0.247543 0.352327) 335 667 1
(0.380254 0.26665 0.0432228 0.309873) 336 669 1
(0.434621 0.28269 0.0575074 0.225182) 337 671 2
(0.154602 0.14211 0.280589 0.422699) 338 670 2
(0.0958428 0.213231 0.452079 0.238848) 338 672 2
(0.172729 0.115395 0.413636 0.298241) 339 674 2
(0.00665484 0.495209 0.496673 0.00146358) 415 677 1
(0.0483182 0.475841 0.159481 0.31636) 416 679 2
(0.201891 0.399055 0.361598 0.0374571) 417 829 1
(0.227169 0.386415 0.274669 0.111747) 344 685 2
(0.0221715 0.488914 0.047 0.441914) 420 833 1
(4.37145e-08 0.5 0.5 3.58729e-08) 375 7455 2
(4.37211e-08 0.5 0.5 3.55352e-08) 375 7455 2
(4.3754e-08 0.5 0.0415229 0.458477) 300 7454 2
(4.37276e-08 0.5 0.167269 0.332731) 375 7455 2
(0.675153 0.162424 0.107138 0.0552855) 225 448 2
(4.3759e-08 0.5 0.000605841 0.499394) 300 7454 2
(0.518356 0.240822 0.0656156 0.175207) 225 448 2
(0.114353 0.442823 0.393651 0.0491719) 300 448 2
(0.194032 0.124465 0.402984 0.278519) 300 448 1
(0.204254 0.217197 0.397873 0.180676) 300 448 1
(0.219484 0.390258 0.38287 0.00738837) 300 596 1
(0.290808 0.0790687 0.354596 0.275527) 300 448 1
(0.273963 0.363018 0.35705 0.00596867) 300 596 1
(0.203695 0.398152 0.375226 0.0229263) 300 596 1
(0.248782 0.375609 0.375428 0.000181461) 300 596 1
(0.198005 0.400998 0.390737 0.0102608) 300 596 1
(0.208144 0.00407697 0.395928 0.391851) 300 448 1
(0.203496 0.398252 0.391778 0.00647362) 300 596 1
(0.216443 0.391779 0.375643 0.0161358) 300 596 1
(0.229063 0.385468 0.378516 0.00695197) 300 596 1
(0.295833 0.352084 0.337618 0.0144656) 300 596 1
(0.515658 0.242171 0.0172047 0.224966) 301 596 1
(0.336865 0.25914 0.0724275 0.331567) 301 596 2
(0.467819 0.26609 0.0816564 0.184434) 376 745 1
(0.642837 0.178581 0.160519 0.0180624) 376 599 2
(0.420914 0.289543 0.0028275 0.286716) 376 599 2
(0.31306 0.190175 0.34347 0.153295) 376 599 1
(0.355613 0.053594 0.322194 0.2686) 376 599 1
(0.433217 0.283392 0.171634 0.111758) 376 747 1
(0.160816 0.419592 0.083675 0.335917) 376 747 1
(0.206928 0.352806 0.0437299 0.396536) 377 747 2
(0.658606 0.170697 0.168636 0.00206139) 377 750 2
(0.57738 0.21131 0.11243 0.0988799) 378 752 2
(0.346142 0.300382 0.0265472 0.326929) 379 754 1
(0.335245 0.00379625 0.328581 0.332377) 380 756 1
(0.228764 0.0295199 0.356098 0.385618) 382 757 2
(0.0624946 0.468753 0.177307 0.291446) 383 762 2
(0.21384 0.39308 0.358858 0.0342221) 459 764 2
(0.399449 0.300276 0.253089 0.0471871) 460 766 2
(0.306812 0.346594 0.18534 0.161254) 461 768 2
(0.40341 0.298295 0.12871 0.169585) 387 621 2
(0.387923 0.306039 0.206988 0.0990504) 388 623 2
(0.30474 0.34763 0.0342567 0.313373) 389 771 1
(0.0865063 0.456747 0.272327 0.18442) 389 773 1
(0.292752 0.353624 0.205317 0.148307) 315 627 2
(0.266728 0.366636 0.144692 0.221944) 316 629 2
(0.281867 0.359066 0.0266391 0.332427) 317 631 2
(0.180436 0.0489265 0.360855 0.409782) 318 630 2
(0.0950926 0.0866246 0.365829 0.452454) 319 632 2
(0.0993916 0.0810883 0.369216 0.450304) 320 634 2
(0.0882269 0.0912591 0.364627 0.455887) 321 636 2
(0.186307 0.0477128 0.359134 0.406846) 322 638 2
(0.248462 0.375769 0.235821 0.139949) 323 643 2
(0.2545 0.316131 0.0566187 0.37275) 324 645 1
(0.0997339 0.450133 0.13409 0.316043) 401 649 2
(0.72517 0.0405312 0.0968836 0.137415) 402 800 1
(0.739683 0.130158 0.0672843 0.062874) 403 802 2
(0.463734 0.0808503 0.187283 0.268133) 404 801 2
(0.165758 0.141118 0.276003 0.417121) 405 803 2
(0.107867 0.180223 0.446067 0.265843) 405 805 2
(0.405516 0.00139433 0.297242 0.295848) 406 807 2
(0.484694 0.15345 0.104203 0.257653) 407 810 1
(0.0872879 0.456356 0.107938 0.348418) 483 812 2
(0.104591 0.447704 0.099315 0.348389) 484 814 2
(0.172202 0.413899 0.179756 0.234143) 485 816 2
(0.229807 0.385097 0.304621 0.0804755) 486 818 2
(0.0451908 0.477405 0.0704661 0.406939) 487 966 1
(0.235753 0.0741417 0.382124 0.307982) 487 820 1
(0.369193 0.199922 0.115481 0.315404) 413 822 1
(0.462456 0.268772 0.250057 0.0187147) 414 824 2
(0.17041 0.414795 0.381354 0.0334412) 490 826 2
(0.192526 0.0886721 0.403737 0.315065) 490 826 1
(0.213538 0.393231 0.0176458 0.375585) 491 828 2
(0.154684 0.422658 0.369969 0.0526892) 492 830 2
(0.184568 0.407716 0.0183437 0.389372) 493 978 1
(4.37596e-08 0.5 0.5 8.13339e-09) 450 7456 2
(4.3764e-08 0.5 0.5 7.88928e-09) 450 7456 2
(0.7191 0.0144898 0.12596 0.14045) 300 7454 1
(4.37682e-08 0.5 0.137766 0.362234) 450 7456 2
(4.37339e-08 0.5 0.0226105 0.47739) 375 7455 2
(0.142787 0.428607 0.291706 0.136901) 375 597 2
(0.149222 0.425389 0.0823159 0.343073) 375 597 2
(0.157034 0.421483 0.104174 0.317309) 375 597 2
(4.30267e-08 0.5 0.102403 0.397597) 375 7455 2
(0.535913 0.0905766 0.141467 0.232044) 300 7454 1
(0.253772 0.0083139 0.373114 0.3648) 375 597 1
(0.256938 0.00507261 0.371531 0.366459) 375 597 1
(0.4204 0.196894 0.2898 0.0929059) 375 597 1
(0.170528 0.414736 0.387423 0.0273129) 375 745 1
(0.209134 0.395433 0.371118 0.0243148) 375 745 1
(0.16266 0.41867 0.396009 0.0226614) 375 745 1
(0.132 0.434 0.377917 0.0560832) 375 745 1
(0.143083 0.428459 0.350079 0.0783792) 375 745 1
(0.408026 0.295987 0.184246 0.111741) 375 745 1
(0.171696 0.414152 0.270844 0.143308) 375 745 1
(0.199684 0.400158 0.360948 0.0392095) 375 745 1
(0.185288 0.407356 0.264183 0.143173) 375 745 1
(0.174982 0.412509 0.153002 0.259507) 376 745 1
(0.152346 0.423827 0.391267 0.0325599) 450 894 1
(0.0111077 0.494446 0.321339 0.173107) 450 894 1
(0.188213 0.405894 0.173619 0.232275) 451 894 1
(0.751994 0.124003 0.0533036 0.0706993) 451 894 1
(0.341031 0.185059 0.329484 0.144425) 451 748 1
(0.70196 0.14902 0.1457 0.0033197) 451 896 1
(0.573927 0.213037 0.143926 0.0691108) 451 896 1
(0.191917 0.404042 0.0571918 0.34685) 451 896 1
(0.00159361 0.427656 0.499203 0.0715469) 451 896 2
(0.451906 0.274047 0.132199 0.141848) 453 901 2
(0.380801 0.0559096 0.309599 0.25369) 454 902 2
(0.255901 0.154355 0.372049 0.217694) 455 904 2
(0.299135 0.0964173 0.350433 0.254015) 456 906 2
(0.411597 0.0144673 0.294202 0.279734) 457 908 2
(0.222323 0.388838 0.0631666 0.325672) 533 911 2
(0.174298 0.412851 0.0528259 0.360025) 534 913 2
(0.270997 0.364501 0.0780101 0.286491) 535 915 2
(0.256473 0.331821 0.371763 0.0399428) 536 917 1
(0.427566 0.0990604 0.286217 0.187157) 462 770 1
(0.239404 0.380298 0.328315 0.0519828) 463 920 1
(0.0220812 0.488959 0.148786 0.340173) 465 922 1
(0.0829585 0.0704987 0.458521 0.388022) 390 775 2
(0.00145195 0.124824 0.499274 0.37445) 391 777 2
(0.0976125 0.0798641 0.37133 0.451194) 393 779 2
(0.0846396 0.0906357 0.367045 0.45768) 394 781 2
(0.118243 0.0697057 0.371173 0.440878) 395 783 2
(0.263923 0.0039166 0.364122 0.368038) 396 785 2
(0.278806 0.360597 0.0130599 0.347537) 397 790 2
(0.114867 0.118203 0.324364 0.442566) 398 789 2
(0.0911699 0.0844101 0.370005 0.454415) 399 791 2
(0.807339 0.041388 0.0549423 0.0963303) 400 796 1
(0.266063 0.0734584 0.29351 0.366968) 401 798 1
(0.102896 0.272226 0.448552 0.176326) 477 948 2
(0.667872 0.0177356 0.166064 0.148328) 478 950 2
(0.649328 0.175336 0.0377186 0.137617) 479 953 2
(0.102918 0.240335 0.208206 0.448541) 480 952 2
(0.4671 0.0293325 0.26645 0.237117) 480 954 2
(0.0967928 0.451604 0.146262 0.305342) 556 957 2
(0.0977683 0.451116 0.184766 0.26635) 557 959 2
(0.162759 0.311729 0.106891 0.418621) 483 961 1
(0.109077 0.445462 0.0857726 0.359689) 559 963 2
(0.176636 0.411682 0.053001 0.358681) 560 1111 1
(0.0832958 0.458352 0.40601 0.0523419) 560 1113 1
(0.173931 0.0812529 0.413035 0.331782) 561 967 1
(0.289615 0.209568 0.355193 0.145624) 562 969 1
(0.276214 0.298891 0.0630023 0.361893) 488 971 1
(0.364173 0.317913 0.207475 0.110439) 489 973 2
(0.0860587 0.456971 0.132641 0.32433) 565 1121 1
(0.0458609 0.47707 0.103377 0.373693) 566 1123 1
(0.195999 0.402001 0.337617 0.064384) 566 1125 1
(0.261335 0.176495 0.369332 0.192838) 567 979 1
(0.0470705 0.353225 0.12324 0.476465) 493 981 1
(4.36878e-08 0.5 0.5 1.0464e-08) 525 7457 2
(4.3696e-08 0.5 0.5 1.01539e-08) 525 7457 2
(4.28389e-08 0.5 0.0415298 0.45847) 450 7456 2
(4.37041e-08 0.5 0.0999985 0.400001) 525 7457 2
(0.045722 0.477139 0.405631 0.0715075) 450 746 2
(0.0864542 0.456773 0.221719 0.235054) 450 746 2
(0.184326 0.407837 0.276016 0.131821) 375 597 2
(0.0707214 0.464639 0.245453 0.219186) 450 746 2
(0.119834 0.440083 0.135396 0.304687) 450 746 2
(0.840867 0.00977923 0.0795667 0.0697875) 375 745 2
(0.285926 0.357037 0.353608 0.00342853) 450 894 1
(0.299673 0.350163 0.344935 0.00522804) 450 894 1
(0.251052 0.374474 0.327134 0.0473398) 450 894 1
(0.246881 0.376559 0.330767 0.0457926) 450 894 1
(0.263984 0.368008 0.29713 0.070878) 450 894 1
(0.257113 0.371444 0.30773 0.0637134) 450 894 1
(0.0765848 0.461708 0.357281 0.104427) 525 895 2
(0.211951 0.342694 0.394024 0.0513308) 525 895 1
(0.252621 0.195545 0.37369 0.178145) 525 895 1
(0.264473 0.367764 0.321763 0.0460002) 450 894 1
(0.254904 0.372548 0.318033 0.0545152) 450 894 1
(0.304535 0.347732 0.291526 0.0562064) 450 894 1
(0.323001 0.00751628 0.338499 0.330983) 450 746 1
(0.248771 0.21271 0.375614 0.162905) 525 895 1
(0.379267 0.117423 0.310367 0.192944) 525 895 1
(0.809654 0.0951732 0.0748361 0.0203371) 525 1043 1
(0.19029 0.404855 0.272544 0.132311) 526 1043 1
(0.396151 0.301925 0.0534551 0.24847) 526 1046 2
(0.690993 0.154503 0.0621385 0.0923649) 526 1046 2
(0.384609 0.307695 0.160158 0.147538) 526 1045 1
(0.471321 0.26434 0.0766718 0.187668) 526 1045 1
(0.363741 0.293855 0.318129 0.0242743) 526 1045 2
(0.0846585 0.314843 0.457671 0.142828) 526 1045 2
(0.350869 0.324566 0.0913088 0.233257) 527 1045 1
(0.267739 0.36613 0.0662407 0.29989) 528 1049 1
(0.652842 0.173579 0.152929 0.0206503) 530 1051 1
(0.086778 0.311943 0.144668 0.456611) 530 1054 1
(0.250392 0.225488 0.149316 0.374804) 531 1056 1
(0.561484 0.219258 0.118164 0.101094) 532 1058 2
(0.209888 0.127646 0.26741 0.395056) 533 1060 1
(0.0887306 0.455635 0.00437406 0.451261) 536 1066 2
(0.575474 0.017625 0.212263 0.194638) 537 919 1
(0.388393 0.305803 0.228965 0.0768386) 539 923 2
(0.150833 0.424583 0.267244 0.157339) 541 927 2
(0.0811545 0.119907 0.459423 0.339516) 466 926 2
(0.294896 0.0045566 0.347996 0.352552) 467 929 1
(0.264365 0.0861423 0.281675 0.367818) 468 931 1
(0.248972 0.0607589 0.314755 0.375514) 469 933 1
(0.159252 0.0798676 0.340506 0.420374) 471 934 2
(0.291688 0.354156 0.0879104 0.266246) 472 939 2
(0.163453 0.418273 0.0424333 0.37584) 548 941 2
(0.227185 0.386408 0.126256 0.260152) 549 943 2
(0.396484 0.00916851 0.301758 0.292589) 474 942 2
(0.322391 0.118707 0.220097 0.338804) 475 945 1
(0.235002 0.382499 0.365118 0.0173814) 476 947 2
(0.265353 0.367324 0.0683746 0.298949) 477 949 2
(0.345851 0.00400902 0.323065 0.327074) 552 1095 2
(0.0846125 0.210955 0.457694 0.246739) 552 1097 2
(0.519181 0.0525077 0.187902 0.24041) 553 1100 1
(0.452177 0.273912 0.167975 0.105937) 554 1102 2
(0.130862 0.434569 0.384929 0.0496397) 630 1104 2
(0.0785965 0.460702 0.398294 0.0624078) 630 1252 1
(0.162625 0.418687 0.405698 0.0129889) 631 1254 1
(0.328805 0.335598 0.194983 0.140615) 558 1110 2
(0.161432 0.419284 0.339515 0.0797688) 633 1258 1
(0.188584 0.0210124 0.405708 0.384695) 634 1112 1
(0.10175 0.449125 0.177836 0.271289) 561 1116 2
(0.0809473 0.459526 0.317036 0.14249) 637 1118 2
(0.0083053 0.495847 0.12622 0.369628) 638 1266 1
(0.00858647 0.495707 0.10606 0.389646) 639 1268 1
(0.245072 0.377464 0.151158 0.226306) 640 1124 2
(0.250009 0.374995 0.100361 0.274634) 641 1126 2
(0.317506 0.285108 0.341247 0.0561393) 642 1128 1
(0.355645 0.127184 0.322178 0.194994) 643 1130 1
(0.682633 0.158683 0.0217635 0.13692) 569 1129 1
(4.35862e-08 0.5 0.5 4.59045e-09) 600 7458 2
(4.36022e-08 0.5 0.5 4.63044e-09) 600 7458 2
(0.00945669 0.495272 0.172918 0.322354) 525 7457 2
(4.36176e-08 0.5 0.0291419 0.470858) 600 7458 2
(0.0183146 0.490843 0.0193991 0.471444) 525 7457 2
(3.80841e-08 0.5 0.0203289 0.479671) 525 7457 2
(0.857082 0.0128576 0.0714588 0.0586012) 450 894 2
(0.292987 0.00361808 0.353506 0.349888) 525 895 1
(0.0513676 0.474316 0.453546 0.0207706) 525 895 2
(0.23892 0.38054 0.342504 0.0380365) 525 1043 1
(0.205943 0.397029 0.357637 0.0393913) 525 1043 1