/*--------------------------------*- C++ -*----------------------------------*\
  =========                 |
  \\      /  F ield         | OpenFOAM: The Open Source CFD Toolbox
   \\    /   O peration     | Website:  https://openfoam.org
    \\  /    A nd           | Version:  12
     \\/     M anipulation  |
\*---------------------------------------------------------------------------*/
FoamFile
{
    format      ascii;
    class       vectorField;
    location    "0.6/lagrangian/cloud";
    object      U;
}
// * * * * * * * * * * * * * * * * * * * * * * * * * * * * * * * * * * * * * //


5175
(
(-3.9128e-12 -2.26056e-05 0)
(-3.82097e-12 -2.26099e-05 0)
(-3.73131e-12 -2.26141e-05 0)
(-3.64377e-12 -2.26181e-05 0)
(-3.5583e-12 -2.26221e-05 0)
(-3.47485e-12 -2.26259e-05 0)
(-3.39338e-12 -2.26296e-05 0)
(-3.31383e-12 -2.26333e-05 0)
(0.000538392 -0.000766454 0)
(1.16049e-05 -0.00120115 0)
(0.00083041 -0.00107423 0)
(0.00383243 -0.00359357 0)
(0.001081 -0.000994955 0)
(0.000110045 -0.00382317 0)
(5.08832e-05 -0.00356086 0)
(-0.000893148 -0.00277995 0)
(-0.00144937 0.00162474 0)
(-0.00172853 -0.0042058 0)
(0.00347996 -0.00924731 0)
(-0.00671666 -0.00802083 0)
(-0.00275779 -0.0146691 0)
(-0.00315931 -0.0363659 0)
(-0.00108943 -0.0343776 0)
(-0.000421056 -0.0308528 0)
(-0.000534425 -0.0289293 0)
(-0.000716856 -0.0311229 0)
(-0.000867606 -0.0305164 0)
(-0.00112589 -0.0304028 0)
(-0.000376767 -0.0243111 0)
(-0.000786166 -0.0291775 0)
(0.000378267 -0.0294673 0)
(0.000269842 -0.0264164 0)
(-0.000676786 -0.0252498 0)
(0.000128051 -0.027435 0)
(0.000134147 -0.024077 0)
(0.00146073 -0.0251325 0)
(0.00109275 -0.0241889 0)
(0.000541719 -0.0245853 0)
(-0.00113137 -0.0250822 0)
(0.000884693 -0.0278322 0)
(-0.000665526 -0.032168 0)
(-0.000409014 -0.0301314 0)
(0.00035181 -0.0304751 0)
(0.00018984 -0.0279014 0)
(0.00159444 -0.0281618 0)
(-8.57047e-05 -0.0264818 0)
(1.46008e-06 -0.0268181 0)
(0.000397842 -0.0255281 0)
(0.00119256 -0.0247392 0)
(-0.000864082 -0.0270506 0)
(-0.00131812 -0.0263358 0)
(-0.000286849 -0.0232953 0)
(-0.00272104 -0.022837 0)
(-0.000738507 -0.0223548 0)
(0.000612087 -0.0150606 0)
(-0.00218404 -0.0199321 0)
(-0.0018024 -0.0241201 0)
(-0.00208776 -0.0164601 0)
(-0.000600882 -0.0171394 0)
(-0.000231424 -0.0153422 0)
(-0.00153152 -0.0167847 0)
(-0.000895958 -0.0169508 0)
(-0.000517363 -0.017807 0)
(-0.000235561 -0.0194299 0)
(0.000111428 -0.0220814 0)
(0.000474081 -0.0241288 0)
(6.58554e-05 -0.0250062 0)
(-0.00183574 -0.0233511 0)
(-0.00187573 -0.0275729 0)
(0.000431384 -0.0273674 0)
(0.000728216 -0.0265879 0)
(0.000292046 -0.024037 0)
(-0.00101498 -0.0286646 0)
(-0.00096082 -0.0212605 0)
(-8.36345e-05 -0.0208628 0)
(-1.7112e-12 -2.25044e-05 0)
(-1.63005e-12 -2.25204e-05 0)
(9.16161e-06 -1.70401e-05 0)
(8.94215e-06 -1.71862e-05 0)
(0.000835053 -0.000870893 0)
(0.000252324 -0.00169605 0)
(0.000126816 -0.00393547 0)
(0.000390655 -0.00257356 0)
(-1.55282e-12 -2.25364e-05 0)
(-7.4511e-05 -0.00231013 0)
(0.000197854 -0.00192849 0)
(0.00148866 -0.0045984 0)
(0.00126825 -0.00558979 0)
(0.00146492 -0.00560306 0)
(0.00185727 -0.00406663 0)
(0.00171633 -0.00547995 0)
(0.00186816 -0.00559947 0)
(0.00180497 -0.00507212 0)
(-0.000844837 0.0042583 0)
(0.000436989 -0.00378161 0)
(0.0132054 -0.00715883 0)
(-0.0040199 -0.00455055 0)
(0.000103317 -0.00482867 0)
(-0.0065118 -0.0078968 0)
(-0.0075059 -0.0139671 0)
(-0.000744812 -0.0305693 0)
(-0.000163908 -0.0297163 0)
(-0.000903584 -0.0283305 0)
(-0.00306465 -0.0255131 0)
(0.000553294 -0.0254585 0)
(-0.000615234 -0.0284787 0)
(-0.000379253 -0.0326087 0)
(-0.00257759 -0.0339915 0)
(9.65084e-05 -0.0319375 0)
(-0.00148298 -0.0359474 0)
(-0.000903578 -0.034903 0)
(-0.00052827 -0.027012 0)
(0.000784482 -0.0255437 0)
(0.00103117 -0.0275968 0)
(0.000310303 -0.0246561 0)
(0.000322626 -0.021597 0)
(7.53377e-05 -0.0238519 0)
(0.00129427 -0.0354602 0)
(0.0031235 -0.0299208 0)
(0.000149334 -0.0270851 0)
(-0.000844758 -0.0250749 0)
(0.000206215 -0.0252597 0)
(-0.000287702 -0.0267978 0)
(0.000473894 -0.0271975 0)
(0.000322883 -0.0239453 0)
(0.000951049 -0.02367 0)
(0.00196212 -0.0359403 0)
(0.00123376 -0.0300278 0)
(0.000120471 -0.0320983 0)
(0.000382316 -0.0301224 0)
(-0.000249656 -0.0283136 0)
(0.000368837 -0.0289239 0)
(-0.00049545 -0.0293884 0)
(-0.00113546 -0.0208622 0)
(-0.00113853 -0.0185172 0)
(-0.00151836 -0.0194605 0)
(-0.0016757 -0.0210967 0)
(-0.00448178 -0.0314625 0)
(-0.00173085 -0.0288649 0)
(-0.00168381 -0.0268047 0)
(-0.00249344 -0.0241323 0)
(-0.00497357 -0.021839 0)
(-0.00336682 -0.0241629 0)
(-0.00143553 -0.0239591 0)
(0.00272221 -0.0241993 0)
(0.000617499 -0.0256404 0)
(-0.000393966 -0.0237938 0)
(-0.000375279 -0.0278633 0)
(0.000514197 -0.0284574 0)
(0.000348474 -0.0257875 0)
(1.93634e-12 -2.26563e-05 0)
(1.91229e-12 -2.26575e-05 0)
(0.00165425 -0.000761628 0)
(1.88854e-12 -2.26588e-05 0)
(0.00218359 -0.00531248 0)
(0.00245381 -0.0050048 0)
(0.00223447 -0.000667541 0)
(0.00313304 -0.00264633 0)
(0.00115439 -0.00462701 0)
(0.00378949 -0.00293736 0)
(0.0047995 -0.00516092 0)
(0.00234548 -0.00401472 0)
(0.00428928 -0.00544268 0)
(0.00578056 -0.00787158 0)
(0.0079495 -0.00833829 0)
(0.00117037 -0.00300903 0)
(0.000102334 -0.00341629 0)
(0.00439055 -0.00545075 0)
(0.00281594 -0.00412866 0)
(0.0015838 -0.00391629 0)
(0.0018589 -0.00675395 0)
(-0.00105336 -0.00699053 0)
(-0.00153144 -0.0050166 0)
(-0.0089389 -0.00351474 0)
(-0.00450471 -0.0100544 0)
(-0.00281571 -0.00912163 0)
(0.00473686 -0.020479 0)
(0.00141267 -0.0372866 0)
(-0.00458704 -0.039444 0)
(-0.0023744 -0.0367718 0)
(0.000491021 -0.0330404 0)
(-0.00281363 -0.040021 0)
(-0.00348866 -0.0408939 0)
(-0.000107103 -0.0381753 0)
(-0.000176047 -0.036694 0)
(-0.00121503 -0.0371914 0)
(-0.00310422 -0.0378196 0)
(-0.00255755 -0.0397039 0)
(0.000333749 -0.0415277 0)
(0.00101166 -0.0378555 0)
(-0.000239398 -0.0391785 0)
(-0.00125302 -0.0372468 0)
(-0.00113627 -0.0359071 0)
(0.000918275 -0.0360711 0)
(-0.00126337 -0.0404823 0)
(0.00146105 -0.0354145 0)
(0.00251359 -0.0323684 0)
(0.0014337 -0.0310449 0)
(-0.000302917 -0.0365413 0)
(-0.00153206 -0.0335856 0)
(-0.000486632 -0.0379669 0)
(-0.00153502 -0.0359484 0)
(-0.00235453 -0.0347007 0)
(-0.000648551 -0.0418605 0)
(-0.000510025 -0.0411195 0)
(0.00151341 -0.0419812 0)
(0.000378189 -0.0434916 0)
(-0.00100213 -0.0437252 0)
(-0.000275132 -0.0383752 0)
(-0.000662158 -0.0319618 0)
(-0.000801462 -0.0305034 0)
(-0.00215509 -0.0298904 0)
(-0.00022593 -0.0351441 0)
(-0.00123453 -0.0354612 0)
(-0.00176185 -0.0353772 0)
(-0.00311291 -0.0398635 0)
(-0.00222253 -0.0329727 0)
(-0.00298187 -0.0340294 0)
(-0.00451 -0.0338979 0)
(-0.00403958 -0.0343263 0)
(-0.00246834 -0.0351391 0)
(-0.00230944 -0.0383473 0)
(-0.00057282 -0.0394921 0)
(0.00282935 -0.0383278 0)
(0.00451248 -0.0391976 0)
(1.26864e-14 -2.26357e-05 0)
(1.24453e-14 -2.26379e-05 0)
(4.25215e-06 -2.20611e-05 0)
(1.22088e-14 -2.26401e-05 0)
(4.19829e-06 -2.20712e-05 0)
(0.00295793 -0.0010389 0)
(0.00212042 -0.00239705 0)
(0.00200658 -0.00549599 0)
(0.00487549 -0.00530374 0)
(0.00492806 -0.00505989 0)
(0.00500012 -0.00561368 0)
(0.0051783 -0.00570691 0)
(0.00533692 -0.00573793 0)
(-0.00299292 0.00201755 0)
(-0.0051918 -0.0104337 0)
(0.0045804 -0.0144188 0)
(-0.00234556 0.00251869 0)
(-0.00220835 -0.00507388 0)
(0.00750214 -0.00871556 0)
(-0.00265898 0.000771413 0)
(-0.00216572 -0.00444565 0)
(-0.00307753 -0.0100122 0)
(-0.0029475 -0.00335336 0)
(0.00196956 -0.00286638 0)
(-0.00637282 -0.00944406 0)
(-0.0066411 -0.00627934 0)
(-0.00190991 -0.00946332 0)
(-0.00960281 -0.00988864 0)
(-0.0118823 -0.0352167 0)
(-0.00928234 -0.0360822 0)
(-0.00581748 -0.0422301 0)
(-0.00479068 -0.044111 0)
(-0.00268225 -0.0392328 0)
(-0.00287245 -0.0386488 0)
(-0.00106365 -0.03957 0)
(0.000130017 -0.0377343 0)
(0.000878492 -0.0343903 0)
(-0.00181266 -0.0366466 0)
(-0.00109061 -0.0376392 0)
(-0.000474244 -0.0410904 0)
(-0.000444989 -0.0416568 0)
(-0.000542654 -0.0421295 0)
(0.000235939 -0.0444152 0)
(-2.97375e-05 -0.0447475 0)
(-0.000994448 -0.0428405 0)
(-0.000979639 -0.046961 0)
(-0.000836172 -0.0476579 0)
(0.000265702 -0.0467153 0)
(-5.08813e-05 -0.047695 0)
(0.0014344 -0.0461411 0)
(0.00140811 -0.0441885 0)
(0.00201542 -0.0404905 0)
(0.00200271 -0.0436981 0)
(-0.000490567 -0.0447761 0)
(-0.00150935 -0.0436511 0)
(-0.000775884 -0.0451642 0)
(-0.000297815 -0.0410847 0)
(0.00113826 -0.0452864 0)
(2.72972e-05 -0.0437842 0)
(-0.00182275 -0.0405871 0)
(-0.00191719 -0.0430358 0)
(-0.00114098 -0.0400975 0)
(-0.00120648 -0.0412771 0)
(-0.00010436 -0.0391386 0)
(-3.55494e-06 -0.0387781 0)
(0.000697822 -0.0390372 0)
(-0.00320922 -0.0395529 0)
(-0.00379063 -0.0374816 0)
(-0.00421745 -0.0386839 0)
(-0.00307097 -0.0416914 0)
(-0.00302386 -0.0411707 0)
(-0.00204599 -0.041294 0)
(-0.00205778 -0.0411313 0)
(0.000547963 -0.0468961 0)
(0.00027684 -0.0459294 0)
(7.1626e-12 -2.26267e-05 0)
(7.02656e-12 -2.26295e-05 0)
(-1.14091e-06 -2.23218e-05 0)
(6.89313e-12 -2.26322e-05 0)
(-1.12113e-06 -2.23306e-05 0)
(-0.0040657 -0.00104309 0)
(0.00397804 -0.00825867 0)
(0.00426084 -0.00780743 0)
(-0.00250617 -0.00786761 0)
(0.000369169 -0.015758 0)
(-0.00244642 -0.00751559 0)
(-0.00204368 -0.00833482 0)
(-0.0024687 -0.00669427 0)
(-0.00143249 -0.00872652 0)
(-0.00145453 -0.00965505 0)
(-0.00133217 -0.00832382 0)
(-0.00032026 -0.00884673 0)
(-0.00118352 -0.00903749 0)
(-0.00104396 -0.00923345 0)
(0.00306206 -0.000377747 0)
(0.00110701 -0.0034284 0)
(0.00270653 -0.00707348 0)
(-0.00361195 -0.00237159 0)
(0.00670027 -0.0101635 0)
(-0.00170387 -0.000768518 0)
(-0.0045025 -0.00333114 0)
(-0.001969 -0.00679996 0)
(-0.00658799 -0.0114514 0)
(-0.00733229 -0.0130326 0)
(-0.00970938 -0.0302505 0)
(-0.00727541 -0.0384365 0)
(-0.00524751 -0.039185 0)
(-0.00597637 -0.0443505 0)
(-0.0046328 -0.0405092 0)
(-0.0041651 -0.041532 0)
(-0.00222209 -0.0378696 0)
(-0.000875043 -0.0369231 0)
(-0.00144667 -0.0387637 0)
(-0.000970922 -0.0376829 0)
(-0.000184408 -0.0376792 0)
(9.22009e-06 -0.0362362 0)
(0.00133887 -0.0382996 0)
(0.000770672 -0.0422551 0)
(0.000506814 -0.0421665 0)
(0.00111048 -0.0412629 0)
(0.000716463 -0.0426974 0)
(-0.00127566 -0.0456117 0)
(0.000461871 -0.04737 0)
(-0.000697857 -0.0475173 0)
(-0.00065366 -0.0481441 0)
(0.00112174 -0.0463536 0)
(-0.000421741 -0.0471444 0)
(0.00109913 -0.0464234 0)
(8.66053e-05 -0.0458389 0)
(-0.00150834 -0.0435741 0)
(-0.000335302 -0.0421719 0)
(0.000102085 -0.0422442 0)
(0.000717069 -0.0445612 0)
(0.000892489 -0.0431221 0)
(-0.000404059 -0.0433144 0)
(-0.000404384 -0.0416625 0)
(-0.000672822 -0.0408225 0)
(-0.00101629 -0.0400917 0)
(-2.45915e-05 -0.0401776 0)
(0.00140072 -0.0384014 0)
(0.000388951 -0.0397347 0)
(0.00097001 -0.0411135 0)
(-0.000401166 -0.0401894 0)
(-0.00169717 -0.0399362 0)
(-0.00462655 -0.0422103 0)
(-0.00288047 -0.0434013 0)
(-0.00244443 -0.0444052 0)
(-0.00234282 -0.0475224 0)
(0.000578132 -0.0450724 0)
(-0.00158606 -0.0466022 0)
(6.68412e-12 -2.26168e-05 0)
(6.54301e-12 -2.26202e-05 0)
(6.76225e-12 -2.26349e-05 0)
(6.40491e-12 -2.26236e-05 0)
(-0.00107286 -0.00831174 0)
(6.63387e-12 -2.26375e-05 0)
(-0.00108931 -0.00423487 0)
(0.00125926 -0.00421789 0)
(-3.9485e-05 -0.00643641 0)
(-0.000104428 -0.00533057 0)
(-0.00144601 -0.00856424 0)
(0.000642332 -0.00721862 0)
(-0.000236139 -0.00825312 0)
(-0.00131926 -0.00755816 0)
(-0.000776199 -0.00738906 0)
(-0.00163831 -0.00707236 0)
(-0.000377192 -0.0061985 0)
(-0.00160294 -0.00680138 0)
(-0.00113822 -0.00688804 0)
(-0.00115406 -0.00683865 0)
(-0.000782447 -0.00755477 0)
(-0.00454044 -0.00629154 0)
(-0.000432478 0.000693854 0)
(-0.00254694 -0.00493466 0)
(-0.00140117 -0.00296239 0)
(-0.000646975 -0.00314742 0)
(0.00264853 -0.00466092 0)
(-0.000509678 -0.00476161 0)
(-0.00465031 -0.00495353 0)
(-0.00448597 0.00119651 0)
(-0.00446015 -0.00552093 0)
(-0.00349182 -0.0342018 0)
(-0.00224416 -0.0447726 0)
(-0.00343353 -0.0470683 0)
(-0.00344183 -0.0481921 0)
(-0.00313867 -0.0455172 0)
(-0.00354115 -0.0448021 0)
(-0.00105023 -0.0465406 0)
(-0.0014228 -0.0479424 0)
(-0.000462191 -0.045291 0)
(0.000634364 -0.0388812 0)
(0.000130073 -0.0398427 0)
(0.000625896 -0.0407024 0)
(0.00100359 -0.0407972 0)
(0.000526911 -0.0410151 0)
(0.00024379 -0.0420977 0)
(0.000141169 -0.0430841 0)
(-9.10801e-05 -0.0440255 0)
(-0.000301685 -0.0450799 0)
(0.000133785 -0.0448459 0)
(-0.000206923 -0.045493 0)
(0.000329798 -0.0443168 0)
(-0.000243651 -0.0436987 0)
(8.79544e-05 -0.0431 0)
(0.000263774 -0.040086 0)
(0.00198903 -0.0398731 0)
(0.000878469 -0.041203 0)
(-1.05295e-05 -0.0429638 0)
(-0.000536963 -0.0420327 0)
(-0.00091353 -0.0399689 0)
(-0.000990571 -0.0386955 0)
(-0.00120121 -0.0403588 0)
(-0.00151409 -0.0370317 0)
(-0.000698998 -0.0389515 0)
(2.98761e-05 -0.0394371 0)
(0.00040028 -0.0393781 0)
(0.000284905 -0.0377009 0)
(-0.000463464 -0.0369106 0)
(0.000292848 -0.0393146 0)
(-0.000359194 -0.0418606 0)
(-0.00147205 -0.0421586 0)
(-0.00237168 -0.0428329 0)
(-0.00117128 -0.0444706 0)
(-0.000436873 -0.0463285 0)
(-0.0011585 -0.0458983 0)
(3.45394e-12 -2.26357e-05 0)
(3.3949e-12 -2.26379e-05 0)
(-0.00589692 -0.00313871 0)
(3.33687e-12 -2.26401e-05 0)
(6.26974e-12 -2.26268e-05 0)
(0.000908849 -0.00441291 0)
(0.00175472 -0.00561056 0)
(-0.000560071 -0.00552973 0)
(-2.51942e-06 -2.22858e-05 0)
(0.002148 -0.000554852 0)
(0.00195678 -0.0084882 0)
(0.00226577 -0.00839625 0)
(0.00174963 -0.00827106 0)
(0.000994905 -0.00937986 0)
(0.00103647 -0.0095895 0)
(0.000934102 -0.00896944 0)
(0.000790984 -0.00863204 0)
(0.000794822 -0.00864904 0)
(0.00146115 -0.0111074 0)
(0.000800457 -0.00869536 0)
(0.000884253 -0.00862283 0)
(0.000804444 -0.00850769 0)
(-0.000208696 -0.00835622 0)
(0.000737404 -0.0107157 0)
(0.000267352 -0.0107612 0)
(4.66627e-05 -0.0053969 0)
(-0.00191252 -0.00748469 0)
(-0.00218716 -0.00679781 0)
(-0.00278447 -0.00322292 0)
(-0.00437365 -0.00488029 0)
(-0.00547168 -0.0153876 0)
(-0.00614728 -0.0127966 0)
(-0.00126096 -0.0481485 0)
(-0.00397184 -0.0488825 0)
(-0.00300572 -0.0506114 0)
(-0.00268166 -0.0500452 0)
(-0.00348581 -0.048763 0)
(-0.00406555 -0.0485637 0)
(-0.00207359 -0.0485372 0)
(-0.001966 -0.049442 0)
(6.48747e-05 -0.0445589 0)
(0.00310767 -0.0438536 0)
(0.00245107 -0.0444837 0)
(0.00205086 -0.0425897 0)
(0.000692605 -0.0421696 0)
(-0.000384605 -0.0421258 0)
(-0.000466743 -0.0426184 0)
(-0.000364943 -0.0431211 0)
(-0.000214763 -0.0434675 0)
(-3.38814e-05 -0.0436647 0)
(7.06126e-05 -0.042872 0)
(0.000534891 -0.0419699 0)
(6.9127e-05 -0.0416502 0)
(0.00191741 -0.0388289 0)
(0.00160947 -0.0381547 0)
(0.00017704 -0.0377814 0)
(-0.000634563 -0.0363123 0)
(0.000800068 -0.0395688 0)
(-0.000659751 -0.040532 0)
(-0.00193824 -0.0375421 0)
(-0.00196599 -0.0398466 0)
(-0.0016874 -0.0398989 0)
(-0.00324686 -0.0395145 0)
(-0.00121758 -0.0426506 0)
(-0.00110886 -0.0417502 0)
(-0.000268683 -0.0394517 0)
(0.000308257 -0.0397208 0)
(0.000845723 -0.0424307 0)
(0.00129011 -0.0419668 0)
(0.000595281 -0.0448017 0)
(-0.000241997 -0.0454432 0)
(-0.00144385 -0.043626 0)
(-0.00202473 -0.0441063 0)
(-0.000428106 -0.044215 0)
(-0.000721225 -0.0448666 0)
(2.84141e-12 -2.26056e-05 0)
(2.77471e-12 -2.26099e-05 0)
(-1.17577e-06 -2.21523e-05 0)
(2.70958e-12 -2.2614e-05 0)
(0.00159707 -0.000493638 0)
(0.00220792 -0.00533113 0)
(0.00436746 -0.00278223 0)
(0.0016201 -0.00466001 0)
(0.00267954 -0.00648006 0)
(0.00407355 -0.0148787 0)
(0.00275276 -0.0131844 0)
(0.00315436 -0.0131191 0)
(0.00111472 -0.0104873 0)
(0.00110809 -0.0102093 0)
(0.00114314 -0.010157 0)
(0.000812081 -0.0101712 0)
(0.00241402 -0.00550277 0)
(-5.61006e-05 -0.00778477 0)
(1.99494e-05 -0.00891789 0)
(0.000842402 -0.0100305 0)
(0.000810334 -0.0097709 0)
(0.000890825 -0.0102609 0)
(0.00306129 -0.012427 0)
(-0.00015104 -0.00858225 0)
(0.000245882 -0.00970465 0)
(0.00182833 -0.0123397 0)
(0.000971741 -0.0086796 0)
(0.00387224 -0.00697213 0)
(0.0038663 -0.0060379 0)
(-0.00403419 -0.00820769 0)
(-0.00385869 -0.0112796 0)
(-0.00366596 -0.00609116 0)
(-0.00336748 -0.00848728 0)
(-0.0066639 -0.0348727 0)
(-0.00392694 -0.0480526 0)
(-0.00345824 -0.0491711 0)
(0.00303816 -0.0469755 0)
(-0.00447643 -0.051169 0)
(-0.00376172 -0.0513456 0)
(-0.0037511 -0.0482647 0)
(-0.000565639 -0.0456554 0)
(-0.000276558 -0.0444612 0)
(0.000578246 -0.0440253 0)
(0.000979696 -0.0397977 0)
(0.000352899 -0.0410197 0)
(6.28695e-05 -0.0403354 0)
(-0.000198291 -0.0422465 0)
(-0.000338197 -0.0433326 0)
(0.000240235 -0.0431269 0)
(0.00040155 -0.041373 0)
(-0.000432959 -0.0387417 0)
(-0.000535266 -0.0374128 0)
(-0.00084592 -0.0393811 0)
(0.000456095 -0.0376504 0)
(-0.00118115 -0.0384014 0)
(-0.000394967 -0.0384381 0)
(7.63329e-05 -0.0361807 0)
(-7.02392e-05 -0.0365762 0)
(0.000212587 -0.0350852 0)
(-0.000542086 -0.0385037 0)
(-0.000114393 -0.0398921 0)
(-0.000885766 -0.0399039 0)
(-0.0015734 -0.0420774 0)
(-0.000845964 -0.0451903 0)
(-5.4897e-05 -0.0448539 0)
(-0.00059248 -0.0442378 0)
(0.000259292 -0.0408149 0)
(0.000345157 -0.0437887 0)
(0.000106076 -0.0452157 0)
(-0.00174127 -0.0450558 0)
(-0.00156809 -0.0475185 0)
(-0.00137122 -0.0465303 0)
(-0.00118902 -0.0463992 0)
(-0.000910682 -0.0468064 0)
(-0.00160895 -0.0468735 0)
(-3.05942e-12 -2.25632e-05 0)
(-2.96019e-12 -2.25715e-05 0)
(0.000120654 -0.00216736 0)
(-2.8642e-12 -2.25795e-05 0)
(-0.000509123 -0.000465985 0)
(-1.02113e-06 -1.97705e-05 0)
(0.00347997 -0.0178808 0)
(0.000372418 -0.00988071 0)
(-0.000863721 -0.000629743 0)
(0.000373382 -0.0075207 0)
(0.000340451 -0.00702943 0)
(0.000273715 -0.00692409 0)
(0.000123437 -0.00791044 0)
(0.000133322 -0.00770035 0)
(0.000168993 -0.00756255 0)
(0.000273543 -0.00755338 0)
(0.000101751 -0.00264227 0)
(9.84785e-05 -0.00305637 0)
(0.000146017 -0.00291947 0)
(0.000108866 -0.00323435 0)
(0.000211739 -0.00259786 0)
(1.4791e-05 -0.00292196 0)
(-0.00133805 -0.00321759 0)
(0.000313397 -0.00780223 0)
(-0.00128321 -0.00229098 0)
(-0.00131201 -0.00196341 0)
(-0.00376223 -0.0078529 0)
(-0.00523651 -0.00450059 0)
(-0.00110384 -0.00337679 0)
(-0.00288276 -0.00487268 0)
(-0.000551662 -0.0102927 0)
(-0.000132939 -0.00855506 0)
(-0.00096292 -0.00605155 0)
(-0.00245748 -0.0122853 0)
(-0.00519701 -0.0351957 0)
(-8.3148e-05 -0.0447029 0)
(-0.0036728 -0.0446706 0)
(-0.00468784 -0.0503429 0)
(-0.00310958 -0.0477233 0)
(-0.00466332 -0.0488237 0)
(-0.00043976 -0.0474638 0)
(6.78303e-06 -0.0461638 0)
(7.01571e-05 -0.0403384 0)
(0.00113205 -0.0377814 0)
(-0.000299666 -0.0387952 0)
(-0.000733463 -0.0395016 0)
(-0.000363915 -0.040348 0)
(4.96923e-05 -0.0414418 0)
(4.48369e-05 -0.0409467 0)
(-0.00151359 -0.0385146 0)
(-6.01611e-05 -0.0375173 0)
(-0.000690903 -0.0368503 0)
(0.00100383 -0.0357961 0)
(0.00107599 -0.035688 0)
(0.000119979 -0.0339863 0)
(0.000181336 -0.0370809 0)
(0.00116116 -0.0369302 0)
(0.00131792 -0.0370747 0)
(0.000406232 -0.038589 0)
(-0.00012502 -0.0412797 0)
(1.67381e-05 -0.0430421 0)
(7.24522e-05 -0.0415381 0)
(0.000696788 -0.0427726 0)
(0.000207016 -0.0437515 0)
(6.02694e-05 -0.0423276 0)
(-0.000176177 -0.0430057 0)
(0.000382874 -0.0444389 0)
(0.000177597 -0.0470462 0)
(0.00118241 -0.0469591 0)
(-0.00102468 -0.0470545 0)
(-0.000758366 -0.0502732 0)
(-0.00110049 -0.046144 0)
(0.000878568 -0.0445398 0)
(0.00128856 -0.0465427 0)
(0.00264749 -0.0454093 0)
(-1.04442e-12 -2.26357e-05 0)
(-1.02658e-12 -2.26379e-05 0)
(0.00011345 -0.00106842 0)
(-1.00903e-12 -2.26401e-05 0)
(-0.000978081 -0.000183069 0)
(0.000106685 -0.000929493 0)
(-0.00135481 -0.00183535 0)
(3.45921e-05 -0.0024445 0)
(-0.000579294 -0.0056805 0)
(0.00194977 -0.00172847 0)
(-0.000681395 -0.00544907 0)
(5.47906e-05 -0.00153381 0)
(-7.63644e-05 -0.000796177 0)
(-8.52793e-05 -0.0013862 0)
(0.000397039 -0.00280395 0)
(4.28636e-05 -0.00468484 0)
(-0.00244275 -0.00475447 0)
(0.00451968 -0.0117778 0)
(-0.00122562 -0.00542364 0)
(0.00054304 -0.00131834 0)
(-0.00116981 -0.0136334 0)
(-0.000701837 -0.00985536 0)
(0.000559436 -0.00814307 0)
(-0.000335402 -0.00711567 0)
(-0.000458576 -0.00420019 0)
(-0.00158718 -0.00865838 0)
(-0.0013841 -0.00499558 0)
(-0.00367142 -0.00389823 0)
(0.000438694 -0.00750875 0)
(0.000271387 -0.00984856 0)
(-8.33504e-06 -0.00397909 0)
(4.00189e-05 0.0016397 0)
(-0.00114414 -0.0123932 0)
(-0.0114949 -0.0176343 0)
(-0.0140029 -0.0271357 0)
(0.000802265 -0.0446804 0)
(-0.0020235 -0.0434761 0)
(-0.0038908 -0.0445944 0)
(-0.0031978 -0.0445107 0)
(-0.00322496 -0.0464362 0)
(-0.000710394 -0.044593 0)
(-0.00139286 -0.0419371 0)
(-0.000223476 -0.042936 0)
(-0.000728022 -0.0426923 0)
(-0.000270388 -0.0416858 0)
(-0.00075278 -0.0386758 0)
(0.000786605 -0.0431314 0)
(-0.000887188 -0.0378487 0)
(-0.00190501 -0.0382719 0)
(-0.000380057 -0.0388585 0)
(-0.000454282 -0.0395335 0)
(-0.00116232 -0.0397255 0)
(-0.00143671 -0.0393764 0)
(-0.0011133 -0.0351479 0)
(-0.000468088 -0.0447505 0)
(-4.94702e-05 -0.041992 0)
(0.000364492 -0.0444489 0)
(0.000222906 -0.0432364 0)
(-5.77276e-05 -0.0449125 0)
(-7.29063e-06 -0.0439146 0)
(0.000608201 -0.0439828 0)
(0.00042869 -0.0447547 0)
(-0.000486831 -0.0447311 0)
(-0.000197688 -0.0484858 0)
(0.00110695 -0.0460025 0)
(0.00081615 -0.0448323 0)
(0.000229795 -0.0459051 0)
(-5.42005e-05 -0.0487158 0)
(-0.000328559 -0.0483347 0)
(-0.000941737 -0.0494872 0)
(-9.04303e-05 -0.0456167 0)
(0.000434938 -0.0467078 0)
(-0.000143496 -0.0486919 0)
(0.00138687 -0.0452988 0)
(0.000663302 -0.0487143 0)
(4.89229e-13 -2.26056e-05 0)
(4.77756e-13 -2.26099e-05 0)
(0.00158862 0.000264221 0)
(4.66554e-13 -2.2614e-05 0)
(0.000290392 -0.000753602 0)
(0.00707586 -0.00510174 0)
(-0.000548659 -0.00483822 0)
(0.00027686 -0.000660066 0)
(0.00539021 -0.0129452 0)
(-0.00105748 -0.00458277 0)
(0.000110959 -0.00462176 0)
(-8.35777e-05 -0.00585518 0)
(0.000161207 -0.00734989 0)
(0.000162655 -0.00516808 0)
(-0.00122067 -0.00260005 0)
(0.000127914 -0.00280787 0)
(0.000548615 -0.0120421 0)
(0.000543733 -0.00605061 0)
(0.000669023 -0.0048236 0)
(0.000634257 -0.00624279 0)
(0.000635944 -0.0105941 0)
(0.000582676 -0.00910651 0)
(0.000777247 -0.00203272 0)
(0.0010509 -0.00957325 0)
(-0.000132654 -0.0080148 0)
(-0.000631301 0.00368224 0)
(2.0834e-05 -0.0035416 0)
(-0.00214437 -0.00855243 0)
(1.54942e-06 -0.00726881 0)
(-0.00288544 -0.0268654 0)
(-0.00137788 -0.0316116 0)
(0.000421992 -0.036738 0)
(-0.00180202 -0.0385271 0)
(-0.0009994 -0.0419023 0)
(0.000442342 -0.0411133 0)
(2.5823e-05 -0.0408994 0)
(-0.00184633 -0.0413082 0)
(-0.00486649 -0.0412721 0)
(-0.00243757 -0.0437593 0)
(-0.00220995 -0.0438623 0)
(-0.00183178 -0.0405388 0)
(-0.000492182 -0.0412827 0)
(-0.000363413 -0.0410645 0)
(-0.000336056 -0.0411292 0)
(0.000503535 -0.0415886 0)
(0.00114768 -0.0413256 0)
(0.000558653 -0.0412797 0)
(-0.000130926 -0.0412536 0)
(-0.000338071 -0.0436666 0)
(-0.000585429 -0.0426519 0)
(-0.000985619 -0.0421815 0)
(-0.000277872 -0.0441414 0)
(-0.000329202 -0.0474532 0)
(-0.000261088 -0.0486534 0)
(-0.000391906 -0.0473988 0)
(-0.000723045 -0.0469007 0)
(0.000588433 -0.0470177 0)
(-0.000164424 -0.0475348 0)
(-0.000721638 -0.0475382 0)
(0.000218376 -0.0453928 0)
(0.00077052 -0.045506 0)
(0.000719909 -0.0476527 0)
(0.0020421 -0.0503729 0)
(0.000217655 -0.049494 0)
(-0.000732056 -0.0512205 0)
(-0.000665701 -0.0473241 0)
(-3.26781e-05 -0.046864 0)
(0.000487539 -0.0475539 0)
(-0.00054597 -0.048361 0)
(-0.000490944 -0.0492666 0)
(-0.000361106 -0.0474115 0)
(-7.61411e-05 -0.0467119 0)
(-0.000490115 -0.0474051 0)
(5.90602e-06 -0.0476459 0)
(0.000258154 -0.0464903 0)
(1.93718e-12 -2.26168e-05 0)
(1.89633e-12 -2.26202e-05 0)
(-0.000157172 -0.0021575 0)
(1.85634e-12 -2.26236e-05 0)
(-5.74154e-05 -0.00549594 0)
(-8.1597e-05 -0.00142263 0)
(0.000250758 -0.00698755 0)
(0.000148179 -0.00707524 0)
(-6.75502e-05 -0.00718621 0)
(-0.000242129 -0.00733959 0)
(0.000712509 -0.00531975 0)
(-0.00541796 -0.00332469 0)
(0.000503201 -0.00396828 0)
(0.000656855 -0.00361071 0)
(0.000438837 -0.00138159 0)
(0.000817144 -0.00534633 0)
(0.000925984 -0.0101076 0)
(-0.000502103 -0.0140293 0)
(0.000917808 -0.00363222 0)
(0.000913842 -0.00366031 0)
(0.000977159 -0.00304477 0)
(0.00115381 -0.00250094 0)
(0.00182994 -0.00590554 0)
(0.0015675 -0.00408783 0)
(0.000299486 -0.00114933 0)
(-0.000869773 -8.24336e-05 0)
(-0.00253954 -0.00189093 0)
(-0.00272266 -0.00337472 0)
(-0.00160376 -0.0134412 0)
(-0.00501921 -0.0251106 0)
(-0.000842548 -0.0367293 0)
(-7.27323e-05 -0.038619 0)
(-0.00284241 -0.039456 0)
(-0.00338781 -0.0410942 0)
(-0.0038244 -0.0393916 0)
(-0.0013719 -0.0400591 0)
(-0.00102149 -0.0408722 0)
(-0.00115314 -0.0427617 0)
(-0.000938736 -0.0438596 0)
(-0.00172916 -0.0408806 0)
(-0.00165425 -0.0426967 0)
(-9.72521e-06 -0.0452592 0)
(-0.000505745 -0.0451183 0)
(0.000126338 -0.0422761 0)
(-0.000307008 -0.0424524 0)
(0.000437657 -0.0442119 0)
(8.29421e-05 -0.0445061 0)
(0.000235412 -0.0439348 0)
(0.000267933 -0.0444122 0)
(0.000568273 -0.0452797 0)
(-0.00019204 -0.0465479 0)
(-0.000624532 -0.0471892 0)
(-0.000715297 -0.0470072 0)
(-0.000481823 -0.0459154 0)
(0.000335876 -0.0460796 0)
(-0.000463717 -0.0475749 0)
(-0.000626178 -0.0482993 0)
(-0.000145961 -0.0480295 0)
(0.00135307 -0.047857 0)
(0.000577883 -0.0478732 0)
(0.000469367 -0.0495144 0)
(0.000345031 -0.0499233 0)
(-0.00014325 -0.0487316 0)
(1.10227e-05 -0.0501673 0)
(-0.0012648 -0.0510225 0)
(-0.000373081 -0.0488025 0)
(0.000417816 -0.0462604 0)
(-0.000282651 -0.0459499 0)
(-1.93407e-05 -0.0468044 0)
(0.000358165 -0.0484241 0)
(-0.000231575 -0.0484001 0)
(-0.000379738 -0.0472416 0)
(-0.000771371 -0.0463147 0)
(-0.000464721 -0.0456066 0)
(0.000212328 -0.0446189 0)
(5.39536e-12 -2.26267e-05 0)
(5.29294e-12 -2.26295e-05 0)
(0.000983348 -0.00716372 0)
(5.19239e-12 -2.26314e-05 0)
(-0.000201591 -0.00301627 0)
(-0.000214353 -0.0012718 0)
(0.00135051 -0.00201668 0)
(0.00106337 -0.00742346 0)
(0.00139272 -0.00182196 0)
(6.39305e-05 -0.00194537 0)
(0.0013522 -0.00198856 0)
(0.00153031 -0.00294133 0)
(-9.76677e-05 -0.00226121 0)
(-0.00015212 -0.00314567 0)
(0.00121866 -0.00675729 0)
(0.00229898 -0.00991976 0)
(0.00256632 -0.00789495 0)
(0.00128794 -0.0067824 0)
(0.00172571 -0.005952 0)
(0.00180477 -0.0055609 0)
(0.00104695 -0.00653691 0)
(-1.60503e-05 -0.00377832 0)
(0.00154352 -0.00662051 0)
(-0.00405802 -0.00174805 0)
(-0.00275216 -0.00318278 0)
(-0.00229307 0.00267152 0)
(0.00367522 -0.00315392 0)
(-0.00563867 0.000385022 0)
(-0.00423121 -0.00408962 0)
(-0.00431756 0.00135249 0)
(-0.0099112 -0.0251365 0)
(-0.000590041 -0.0394796 0)
(-0.00410833 -0.0403876 0)
(-0.00405653 -0.0394425 0)
(-0.0034076 -0.0383614 0)
(-0.00175768 -0.0400393 0)
(-0.00133321 -0.0418082 0)
(-0.000870692 -0.0446167 0)
(-0.000949888 -0.0434345 0)
(-0.00110683 -0.0434932 0)
(-0.00135116 -0.0437255 0)
(-0.00100364 -0.0464884 0)
(-0.00078023 -0.0454391 0)
(-0.000521096 -0.0437623 0)
(7.75387e-05 -0.0456824 0)
(-0.000755234 -0.046179 0)
(0.000346298 -0.0466384 0)
(0.000247295 -0.0471263 0)
(0.000420684 -0.047464 0)
(0.000262258 -0.0454692 0)
(-0.000472895 -0.0454906 0)
(2.89067e-07 -0.0450131 0)
(-0.000688656 -0.0457347 0)
(-0.000651016 -0.0468695 0)
(-0.000390646 -0.0479504 0)
(3.68282e-05 -0.0464585 0)
(0.000192222 -0.046144 0)
(-0.000174348 -0.0471966 0)
(0.000864817 -0.0474475 0)
(0.000748494 -0.0470305 0)
(0.00128771 -0.0489491 0)
(0.00110001 -0.0495443 0)
(2.68864e-05 -0.0498444 0)
(-0.000421326 -0.0457935 0)
(0.000752969 -0.0482235 0)
(-2.68701e-05 -0.0476046 0)
(-8.79205e-05 -0.0468112 0)
(-0.000581431 -0.04626 0)
(-0.000807203 -0.0442054 0)
(-0.000252451 -0.044336 0)
(-0.000440698 -0.044404 0)
(-0.000449353 -0.0439307 0)
(-2.45346e-05 -0.0437153 0)
(-4.03648e-05 -0.0440738 0)
(-6.31994e-05 -0.0436274 0)
(2.04067e-12 -2.26267e-05 0)
(2.00192e-12 -2.26295e-05 0)
(0.00168265 -0.00309388 0)
(1.96391e-12 -2.26322e-05 0)
(0.000295526 -0.00264288 0)
(0.00113954 -0.00627311 0)
(0.00148037 -0.00565039 0)
(0.00154211 -0.00595703 0)
(0.00209346 -0.005462 0)
(0.00142557 -0.000568801 0)
(0.00409588 -0.00794773 0)
(0.00203217 -0.00559114 0)
(0.00289128 -0.0060126 0)
(0.00272416 -0.00689118 0)
(0.00296007 -0.00659351 0)
(0.0025646 -0.00794288 0)
(0.000843909 -0.0104909 0)
(0.000433501 -0.0088049 0)
(4.52563e-05 -0.00672294 0)
(0.000115601 -0.00663479 0)
(0.000231228 -0.00460654 0)
(1.88513e-05 -0.00745536 0)
(-0.000446312 -0.00674337 0)
(7.27384e-05 -0.00743245 0)
(-0.00208439 -0.000443936 0)
(0.00152881 0.000359073 0)
(-0.00458336 -0.00114146 0)
(-0.00310297 0.00198021 0)
(-0.00320068 0.00115578 0)
(-0.00296575 -0.00145035 0)
(-0.00219304 0.0044049 0)
(-0.00117899 -0.0311317 0)
(-0.00131214 -0.0398436 0)
(-9.85849e-05 -0.0406499 0)
(-0.000969408 -0.0412038 0)
(-0.002806 -0.0405162 0)
(-0.00152748 -0.0445052 0)
(-0.00024576 -0.0421693 0)
(-0.000300367 -0.0438168 0)
(-0.000372722 -0.0452951 0)
(1.97083e-05 -0.0467564 0)
(-0.00107048 -0.0473961 0)
(-0.000421079 -0.0458806 0)
(6.43615e-05 -0.0447276 0)
(-0.000163456 -0.0459986 0)
(5.21602e-05 -0.0453535 0)
(0.00109116 -0.0425546 0)
(-0.000601292 -0.0432341 0)
(0.000221277 -0.0444356 0)
(0.000641882 -0.0452297 0)
(-0.000399833 -0.0468165 0)
(0.000129859 -0.0447477 0)
(-0.000198351 -0.0438432 0)
(-0.000718242 -0.0446177 0)
(-0.000363212 -0.0450832 0)
(-0.000130436 -0.0456807 0)
(0.000201527 -0.0468535 0)
(0.000258798 -0.0469721 0)
(0.000193348 -0.0464792 0)
(0.000934315 -0.0471929 0)
(0.000575208 -0.0476179 0)
(-0.000193399 -0.0463225 0)
(0.000220827 -0.0433296 0)
(0.000142382 -0.0440363 0)
(0.000262941 -0.0438941 0)
(0.000494651 -0.0453128 0)
(-0.000685477 -0.0425944 0)
(-0.000142156 -0.040984 0)
(-0.00112524 -0.041442 0)
(-0.000564472 -0.0431011 0)
(-0.000343943 -0.0421644 0)
(0.000430895 -0.0411698 0)
(-0.000913163 -0.0420409 0)
(-0.000690944 -0.0428082 0)
(0.000535705 -0.0423353 0)
(-5.67618e-13 -2.2579e-05 0)
(-5.5118e-13 -2.25857e-05 0)
(0.000308723 -0.00379246 0)
(-5.35223e-13 -2.25921e-05 0)
(0.00184332 -0.00646575 0)
(0.000130899 -0.0039053 0)
(-0.000104181 -0.00666323 0)
(0.00136115 -0.00518966 0)
(0.00260774 -0.00512428 0)
(0.00188489 -0.00556277 0)
(0.000171805 -0.0073089 0)
(-0.00405671 -0.000976949 0)
(0.00280889 -0.0053612 0)
(-0.00324867 -0.00337542 0)
(-0.000773383 -0.00634088 0)
(-0.0008293 -0.00394616 0)
(-0.000900743 -0.00584822 0)
(-0.000965517 -0.00412775 0)
(-0.00105291 -0.00362783 0)
(-0.00101155 -0.00279289 0)
(-0.00103536 -0.00298894 0)
(-0.001051 -0.00240103 0)
(-0.00119936 -0.00718343 0)
(-0.00135713 -0.00691997 0)
(-0.00331422 -0.00694766 0)