/*--------------------------------*- C++ -*----------------------------------*\
  =========                 |
  \\      /  F ield         | OpenFOAM: The Open Source CFD Toolbox
   \\    /   O peration     | Website:  https://openfoam.org
    \\  /    A nd           | Version:  12
     \\/     M anipulation  |
\*---------------------------------------------------------------------------*/
FoamFile
{
    format      ascii;
    class       IOPosition;
    location    "0.35/lagrangian/cloud";
    object      positions;
}
// * * * * * * * * * * * * * * * * * * * * * * * * * * * * * * * * * * * * * //

4588
(
(3.55458e-07 0.5 0.5 8.06739e-09) 0 7376 2
(3.55629e-07 0.5 0.5 7.7679e-09) 0 7376 2
(3.55939e-07 0.5 0.000214421 0.499785) 0 7376 2
(0.00563965 0.49718 0.452645 0.0445349) 0 7375 1
(0.00490215 0.497549 0.452763 0.0447864) 0 7375 1
(0.0517421 0.474129 0.268549 0.20558) 0 7375 1
(0.00142772 0.499286 0.240284 0.259002) 0 7375 1
(0.194895 0.402553 0.0291024 0.37345) 0 7375 1
(0.316273 0.22597 0.341864 0.115894) 0 7375 2
(0.174381 0.41281 0.393352 0.0194578) 0 0 1
(0.204072 0.397964 0.193644 0.20432) 1 0 1
(0.717497 0.141251 0.0871087 0.0541426) 1 7377 1
(0.300433 0.349783 0.270792 0.0789912) 1 2 1
(0.184567 0.407717 0.36409 0.0436268) 2 4 1
(0.77778 0.11111 0.0999189 0.0111914) 4 7380 1
(0.328432 0.335784 0.164843 0.170941) 6 13 2
(0.568948 0.055646 0.15988 0.215526) 7 12 2
(0.127139 0.43643 0.192628 0.243802) 8 14 1
(0.358704 0.320648 0.233355 0.0872931) 8 16 1
(0.440881 0.163145 0.27956 0.116415) 9 7385 2
(0.19488 0.146419 0.40256 0.256141) 10 20 2
(0.241217 0.379392 0.0537856 0.325606) 12 25 2
(0.247908 0.376046 0.0612054 0.314841) 13 27 2
(0.380186 0.309907 0.0842289 0.225678) 14 29 2
(0.324802 0.0494134 0.288186 0.337599) 15 28 2
(0.240396 0.379802 0.244364 0.135438) 15 30 1
(0.549925 0.0960402 0.225038 0.128997) 16 7392 2
(0.454235 0.272883 0.00928917 0.263594) 17 7393 1
(0.705856 0.06898 0.147072 0.0780921) 18 36 2
(0.40286 0.29857 0.247213 0.0513566) 19 38 1
(0.789238 0.105381 0.0641252 0.041256) 21 42 1
(0.0762609 0.110855 0.351014 0.46187) 23 44 2
(0.408622 0.0399223 0.255767 0.295689) 24 46 2
(0.184102 0.407949 0.154527 0.253422) 25 48 1
(0.369073 0.119823 0.195641 0.315464) 25 51 1
(0.495067 0.19077 0.0616966 0.252467) 26 53 1
(0.626833 0.186584 0.00803575 0.178548) 27 55 2
(0.176608 0.411696 0.26633 0.145366) 27 54 1
(0.444601 0.0447458 0.277699 0.232954) 28 7404 2
(0.363137 0.264274 0.318431 0.0541569) 30 7406 2
(0.370616 0.314692 0.202953 0.111739) 31 62 1
(0.539542 0.0896495 0.230229 0.140579) 32 7408 2
(0.577971 0.211015 0.066109 0.144906) 33 7409 1
(0.427821 0.286089 0.207297 0.0787921) 34 7410 1
(0.672063 0.163968 0.127212 0.0367562) 35 7411 1
(0.692375 0.152715 0.153813 0.00109752) 36 7412 2
(0.0502861 0.41907 0.0557872 0.474857) 38 74 2
(0.0954864 0.231304 0.220953 0.452257) 40 78 2
(0.121188 0.3672 0.0722057 0.439406) 41 80 2
(0.303934 0.348033 0.251666 0.0963666) 41 82 1
(0.610297 0.194851 0.154873 0.0399778) 42 84 1
(0.0826685 0.216895 0.241771 0.458666) 44 89 1
(0.289919 0.183345 0.35504 0.171696) 120 91 1
(0.456143 0.271928 0.051583 0.220345) 121 93 2
(0.466685 0.0967412 0.169916 0.266658) 46 93 1
(0.366889 0.316556 0.137003 0.179552) 122 95 2
(0.266654 0.366673 0.146404 0.220269) 47 92 1
(0.691119 0.0109919 0.154441 0.143449) 47 7423 2
(0.506967 0.246517 0.0243681 0.222149) 48 94 1
(0.30624 0.34688 0.0393491 0.307531) 49 96 1
(0.0156181 0.351317 0.492191 0.140874) 50 100 2
(0.262057 0.0673819 0.30159 0.368972) 52 105 1
(0.0538797 0.102085 0.370975 0.47306) 54 106 2
(0.166344 0.0472678 0.36956 0.416828) 55 108 2
(0.222462 0.0394577 0.349311 0.388769) 56 110 2
(0.0344495 0.137468 0.345308 0.482775) 57 112 2
(0.488117 0.0301486 0.255941 0.225793) 57 114 2
(0.689812 0.152394 0.155094 0.00269995) 58 7434 2
(0.105 0.4475 0.298075 0.149425) 59 116 1
(0.676172 0.00949971 0.161914 0.152414) 59 7435 2
(0.511425 0.244287 0.193032 0.0512559) 60 7436 1
(0.241777 0.379111 0.0726754 0.306436) 61 123 2
(0.67111 0.164445 0.144584 0.0198611) 62 7438 1
(0.428683 0.285658 0.159848 0.125811) 63 127 2
(0.325703 0.337148 0.0574844 0.279664) 64 129 2
(3.564e-07 0.5 0.5 6.44262e-09) 75 7451 2
(3.56491e-07 0.5 0.5 6.03325e-09) 75 7451 2
(3.9372e-07 0.5 0.0464621 0.453538) 0 7376 2
(3.92352e-07 0.232951 0.267049 0.5) 0 7376 1
(0.605574 0.197213 0.127473 0.0697403) 0 0 1
(0.373103 0.313448 0.00496484 0.308483) 0 0 1
(0.391813 0.283287 0.304093 0.020806) 0 0 2
(0.826508 0.0867461 0.00123415 0.085512) 0 0 1
(0.0826354 0.458682 0.27369 0.184993) 75 1 2
(0.416875 0.198472 0.291563 0.0930911) 0 0 2
(0.0100346 0.494983 0.26777 0.227212) 0 1 2
(0.319582 0.340209 0.280858 0.0593505) 75 149 1
(0.165049 0.0253504 0.417476 0.392125) 75 1 1
(0.468872 0.265564 0.146935 0.118629) 76 3 2
(0.371769 0.314115 0.173656 0.140459) 2 5 2
(0.270184 0.364908 0.145507 0.219401) 77 151 1
(0.42242 0.28879 0.179888 0.108902) 77 153 1
(0.826158 0.0833149 0.086921 0.0036061) 78 7 1
(0.524407 0.237796 0.190042 0.0477549) 81 161 1
(0.199764 0.400118 0.378623 0.0214948) 82 163 1
(0.318298 0.340851 0.0283683 0.312483) 83 17 2
(0.276966 0.361517 0.313976 0.0475411) 84 19 2
(0.422342 0.126833 0.288829 0.161996) 84 167 2
(0.459477 0.202228 0.0680338 0.270261) 85 170 1
(0.461968 0.269016 0.0612224 0.207794) 86 172 2
(0.0206541 0.489673 0.308809 0.180864) 89 175 1
(0.365248 0.317376 0.0123865 0.30499) 90 31 2
(0.282103 0.358949 0.0126979 0.346251) 91 33 2
(0.28232 0.357058 0.35884 0.00178127) 92 35 1
(0.281797 0.359102 0.0125322 0.34657) 93 37 2
(0.226829 0.0645344 0.386585 0.322051) 94 39 1
(0.0410289 0.144723 0.334763 0.479486) 94 185 2
(0.18285 0.408575 0.206427 0.202148) 168 334 1
(0.140696 0.0591973 0.370454 0.429652) 94 188 1
(0.363472 0.318264 0.112754 0.20551) 95 190 2
(0.207649 0.163271 0.396175 0.232905) 95 189 2
(0.455913 0.13269 0.272044 0.139354) 98 47 1
(0.429606 0.0110403 0.285197 0.274156) 100 51 1
(0.303656 0.348172 0.322933 0.0252385) 102 55 2
(0.436836 0.178228 0.281582 0.103354) 102 55 1
(0.141023 0.429488 0.172476 0.257013) 103 203 1
(0.821574 0.0446224 0.089213 0.0445906) 103 57 1
(0.245538 0.15177 0.377231 0.225461) 103 205 2
(0.768253 0.080934 0.0349394 0.115873) 104 208 1
(0.823164 0.0881629 0.000255203 0.0884181) 105 207 2
(0.217017 0.391492 0.247089 0.144403) 109 69 2
(0.0620496 0.158982 0.468975 0.309993) 110 71 1
(0.121698 0.439151 0.348645 0.0905057) 112 75 2
(0.242289 0.378856 0.337564 0.0412916) 113 77 2
(0.392532 0.273011 0.303734 0.0307232) 115 81 1
(0.310401 0.170629 0.3448 0.174171) 116 83 1
(0.292001 0.353999 0.0164556 0.337544) 116 232 2
(0.255891 0.0299629 0.342092 0.372055) 116 232 1
(0.220774 0.342463 0.0471502 0.389613) 117 234 1
(0.124418 0.437791 0.374111 0.0636801) 118 236 2
(0.222977 0.388512 0.324012 0.0644991) 194 238 2
(0.571231 0.214384 0.100052 0.114332) 194 386 1
(0.0261917 0.0788334 0.408071 0.486904) 122 241 2
(0.519186 0.240407 0.0221516 0.218255) 122 243 1
(0.489798 0.255101 0.0444213 0.210679) 123 243 1
(0.357896 0.321052 0.281936 0.0391158) 123 245 1
(0.318574 0.265364 0.340713 0.0753496) 124 99 1
(0.409702 0.295149 0.281169 0.0139796) 199 248 2
(0.055256 0.0338955 0.438476 0.472372) 124 248 1
(0.240487 0.200832 0.178924 0.379757) 125 250 1
(0.295505 0.194176 0.158071 0.352248) 126 252 1
(0.29576 0.179881 0.172239 0.35212) 127 254 1
(0.304844 0.212518 0.13506 0.347578) 128 256 1
(0.320258 0.186426 0.153445 0.339871) 129 258 1
(0.119816 0.175243 0.440092 0.264849) 131 261 2
(0.380507 0.0871629 0.309747 0.222584) 132 263 2
(0.346364 0.326818 0.0843394 0.242479) 133 265 1
(0.255914 0.372043 0.14058 0.231463) 134 268 2
(0.430937 0.284531 0.127619 0.156912) 209 268 2
(0.259426 0.370287 0.225921 0.144366) 210 270 2
(3.55453e-07 0.5 0.5 8.76587e-09) 150 7452 2
(3.55624e-07 0.5 0.5 8.34645e-09) 150 7452 2
(2.34949e-07 0.5 0.0749276 0.425072) 75 7451 2
(3.55788e-07 0.5 0.14379 0.35621) 150 7452 2
(0.345279 0.32736 0.22396 0.1034) 75 149 1
(0.416272 0.291864 0.0599018 0.231962) 75 1 2
(1.42245e-07 0.5 0.20849 0.29151) 75 7451 2
(0.589181 0.205409 0.195037 0.0103724) 75 7451 2
(0.482623 0.22282 0.258688 0.0358685) 75 1 1
(0.629912 0.185044 0.130499 0.0545446) 75 7451 2
(0.428585 0.285708 0.260233 0.0254749) 75 149 1
(0.474118 0.262941 0.255925 0.00701605) 75 149 1
(0.499841 0.250079 0.222596 0.0274829) 75 149 1
(0.177646 0.0375363 0.411177 0.37364) 150 150 1
(0.130551 0.434724 0.388134 0.0465903) 150 298 1
(0.320697 0.339651 0.0530179 0.286633) 151 298 1
(0.42251 0.0975629 0.288745 0.191182) 151 152 1
(0.00724921 0.496375 0.185356 0.31102) 152 154 2
(0.100202 0.449899 0.112189 0.337711) 153 156 2
(0.0761052 0.461947 0.173034 0.288913) 154 158 2
(0.600023 0.0955996 0.104389 0.199988) 155 306 2
(0.267551 0.366225 0.142886 0.223339) 157 164 2
(0.143243 0.428379 0.0214329 0.406946) 158 166 2
(0.461008 0.269496 0.172668 0.0968274) 159 314 1
(0.137342 0.312656 0.431329 0.118673) 159 316 2
(0.426938 0.286531 0.258588 0.0279432) 161 172 2
(0.275903 0.362048 0.335824 0.0262239) 162 174 2
(0.0988604 0.45057 0.309898 0.140672) 162 322 1
(0.270004 0.0540772 0.364998 0.310921) 163 176 1
(0.28098 0.30834 0.35951 0.0511701) 164 178 1
(0.298732 0.350634 0.143601 0.207033) 165 326 1
(0.0350377 0.482481 0.350439 0.132042) 165 329 2
(0.247434 0.200549 0.175734 0.376283) 165 329 1
(0.366857 0.316571 0.0398231 0.276748) 166 331 2
(0.124102 0.0830303 0.437949 0.354919) 166 330 2
(0.0796512 0.0250745 0.4351 0.460174) 167 333 1
(0.255694 0.372153 0.152824 0.219329) 169 336 1
(0.107976 0.446012 0.289534 0.156478) 170 338 1
(0.294794 0.0594787 0.352603 0.293124) 171 192 1
(0.233407 0.221814 0.383297 0.161483) 172 194 1
(0.230244 0.33762 0.384878 0.0472583) 173 196 1
(0.210234 0.394883 0.0444963 0.350387) 174 198 2
(0.284399 0.357801 0.110746 0.247055) 175 200 2
(0.499244 0.129719 0.250378 0.120658) 176 202 1
(0.124663 0.437668 0.347846 0.0898223) 178 354 1
(0.0193603 0.345947 0.49032 0.144373) 180 210 1
(0.26042 0.0997163 0.270074 0.36979) 106 212 1
(0.0304247 0.484788 0.0948224 0.389965) 108 216 2
(0.19926 0.40037 0.344269 0.0561008) 110 220 2
(0.262707 0.368647 0.0173677 0.351279) 111 222 2
(0.394623 0.302689 0.164942 0.137746) 186 222 2
(0.147846 0.426077 0.0669349 0.359142) 187 370 1
(0.652241 0.17388 0.0511878 0.122692) 187 372 1
(0.607817 0.196092 0.00992843 0.186163) 188 375 2
(0.520266 0.138528 0.101339 0.239867) 189 374 2
(0.336156 0.161997 0.169925 0.331922) 190 376 2
(0.0155407 0.237001 0.255229 0.49223) 191 378 2
(0.0107854 0.184344 0.494607 0.310263) 191 380 2
(0.19606 0.40197 0.144502 0.257468) 269 387 2
(0.220034 0.389983 0.288232 0.101751) 270 389 2
(0.00504713 0.0326247 0.497476 0.464852) 195 388 2
(0.0507541 0.0759155 0.398707 0.474623) 196 391 1
(0.491759 0.121852 0.25412 0.132268) 271 539 2
(0.817568 0.0410138 0.050202 0.0912159) 272 542 1
(0.6623 0.108642 0.16885 0.0602079) 273 395 1
(0.0838375 0.373858 0.458081 0.0842232) 274 397 1
(0.343934 0.328033 0.265793 0.0622404) 200 399 2
(0.484422 0.257789 0.0369019 0.220887) 201 401 2
(0.276151 0.361924 0.0251861 0.336738) 202 403 2
(0.249306 0.375347 0.032304 0.343043) 203 405 2
(0.411112 0.285012 0.0094321 0.294444) 204 407 1
(0.363484 0.0849289 0.233329 0.318258) 205 409 1
(0.391344 0.049673 0.254655 0.304328) 206 411 1
(0.388794 0.171311 0.134292 0.305603) 207 413 1
(0.161484 0.239001 0.419258 0.180257) 283 415 1
(3.56113e-07 0.5 0.5 7.59101e-09) 225 7453 2
(3.56226e-07 0.5 0.5 7.25204e-09) 225 7453 2
(2.16528e-07 0.5 0.0514145 0.448585) 150 7452 2
(3.56334e-07 0.5 0.153335 0.346665) 225 7453 2
(0.235988 0.382006 0.089265 0.292741) 150 150 2
(0.278626 0.360687 0.0815291 0.279158) 150 150 2
(0.277215 0.361393 0.0319135 0.329479) 150 150 2
(0.211425 0.394287 0.351217 0.0430708) 150 298 1
(0.180547 0.409726 0.346825 0.0629013) 150 298 1
(0.174916 0.320601 0.412542 0.0919408) 150 150 1
(0.286729 0.0363965 0.356636 0.320239) 150 150 1
(0.224618 0.387691 0.334664 0.0530268) 150 298 1
(0.221181 0.38941 0.341249 0.0481605) 150 298 1
(0.279019 0.360491 0.109037 0.251454) 150 298 1
(0.172478 0.413761 0.383156 0.0306049) 225 447 1
(0.178498 0.410751 0.167085 0.243666) 150 298 1
(0.583241 0.19007 0.0183091 0.208379) 151 298 2
(0.245061 0.108127 0.37747 0.269343) 151 300 2
(0.342644 0.16791 0.160768 0.328678) 152 303 1
(0.244408 0.0198862 0.35791 0.377796) 153 305 1
(0.226033 0.386983 0.0110446 0.375939) 229 455 1
(0.315937 0.229952 0.342032 0.11208) 230 457 2
(0.0410474 0.208698 0.270779 0.479476) 232 459 2
(0.235211 0.0773113 0.305083 0.382394) 233 461 2
(0.290706 0.354647 0.208668 0.145979) 234 317 2
(0.223938 0.388031 0.194787 0.193244) 235 319 2
(0.133673 0.29368 0.433164 0.139484) 310 468 1
(0.207451 0.33989 0.396274 0.0563841) 311 470 1
(0.293018 0.353491 0.189973 0.163518) 312 472 2
(0.0835788 0.0610543 0.458211 0.397156) 237 471 2
(0.039738 0.300981 0.17915 0.480131) 238 474 1
(0.123738 0.438131 0.254877 0.183254) 239 476 2
(0.0180956 0.0501256 0.440827 0.490952) 240 475 2
(0.189615 0.140414 0.264778 0.405193) 240 478 1
(0.187199 0.267253 0.139148 0.406401) 241 480 1
(0.120403 0.297766 0.142032 0.439798) 242 482 1
(0.223551 0.259727 0.128498 0.388224) 243 484 1
(0.374371 0.253989 0.312814 0.0588249) 244 337 1
(0.373752 0.313124 0.0864254 0.226699) 245 339 2
(0.32605 0.336975 0.281181 0.0557936) 246 341 2
(0.0770078 0.461496 0.345453 0.116043) 246 489 1
(0.215608 0.0395763 0.392196 0.35262) 247 343 1
(0.0605714 0.469714 0.0707743 0.39894) 249 493 1
(0.20492 0.306626 0.39754 0.0909137) 250 349 1
(0.10922 0.0355852 0.409805 0.44539) 176 351 1
(0.153089 0.0628036 0.360652 0.423456) 177 353 1
(0.0865724 0.456714 0.0772481 0.379466) 179 357 2
(0.254601 0.372699 0.179303 0.193397) 180 359 2
(0.410501 0.294749 0.0926822 0.202067) 181 361 2
(0.271434 0.364283 0.09486 0.269423) 182 363 2
(0.363768 0.318116 0.152366 0.16575) 183 365 2
(0.295587 0.336109 0.0160975 0.352207) 184 367 1
(0.190985 0.290982 0.404508 0.113525) 260 369 1
(0.633266 0.0807392 0.183367 0.102628) 261 371 1
(0.555615 0.177188 0.0450043 0.222193) 262 522 1
(0.48539 0.257305 0.220616 0.036689) 263 524 2
(0.377374 0.311313 0.184371 0.126942) 264 526 2
(0.67796 0.0348662 0.126154 0.16102) 265 528 1
(0.0758178 0.221249 0.240842 0.462091) 267 529 2
(0.147482 0.282249 0.426259 0.14401) 267 531 2
(0.0568246 0.471588 0.329755 0.141833) 344 536 2
(0.0859334 0.457033 0.239686 0.217347) 270 538 2
(0.377683 0.311158 0.122041 0.189118) 345 686 1
(0.362079 0.25168 0.318961 0.0672804) 346 688 2
(0.366525 0.316738 0.129972 0.186765) 347 690 1
(0.0717828 0.464109 0.276791 0.187317) 348 692 1
(0.0664256 0.466787 0.44771 0.0190775) 275 545 1
(0.0183065 0.490847 0.213983 0.276864) 275 547 1
(0.259466 0.170272 0.199995 0.370267) 276 550 1
(0.3168 0.255283 0.0863176 0.3416) 277 552 1
(0.282845 0.358577 0.355382 0.00319546) 278 554 2
(0.079581 0.108243 0.460209 0.351967) 279 555 2
(0.0931524 0.285747 0.167677 0.453424) 281 557 2
(0.3746 0.204574 0.108126 0.3127) 282 559 2
(0.102235 0.0566125 0.39227 0.448882) 282 562 1
(3.55798e-07 0.5 0.5 1.10601e-08) 300 7454 2
(3.55937e-07 0.5 0.5 1.06626e-08) 300 7454 2
(3.33937e-07 0.5 0.0273996 0.4726) 225 7453 2
(3.56071e-07 0.5 0.161481 0.338519) 300 7454 2
(0.106957 0.446521 0.155527 0.290995) 225 299 2
(0.471343 0.264329 0.209041 0.055288) 225 299 2
(0.238119 0.38094 0.0696759 0.311264) 225 299 2
(0.260141 0.369929 0.159481 0.210448) 225 299 2
(0.166358 0.416821 0.350576 0.0662453) 225 447 1
(0.0223495 0.488825 0.419526 0.0692997) 150 299 2
(0.237636 0.381182 0.360237 0.0209451) 225 447 1
(0.206926 0.396537 0.395231 0.00130558) 225 447 1
(0.204673 0.397664 0.350053 0.0476107) 225 447 1
(0.400445 0.299777 0.212631 0.0871463) 225 447 1
(0.216455 0.391772 0.10314 0.288633) 225 447 1
(0.165118 0.417441 0.0211103 0.396331) 225 447 1
(0.350025 0.324987 0.23125 0.0937373) 226 447 1
(0.724066 0.0436287 0.0943382 0.137967) 226 450 1
(0.446518 0.276741 0.0827971 0.193944) 227 452 2
(0.491234 0.217893 0.0364904 0.254383) 228 454 1
(0.0719584 0.464021 0.430578 0.0334423) 229 456 2
(0.635581 0.15079 0.182209 0.0314189) 305 458 1
(0.52148 0.116927 0.122333 0.23926) 306 609 1
(0.300327 0.0740612 0.349837 0.275775) 307 610 2
(0.253233 0.108967 0.373384 0.264416) 308 612 2
(0.0424083 0.193611 0.478796 0.285185) 384 615 1
(0.174425 0.0725511 0.412788 0.340236) 385 617 1
(0.376962 0.11209 0.311519 0.199429) 386 619 1
(0.484058 0.257971 0.0188092 0.239162) 387 621 2
(0.345874 0.327063 0.281544 0.0455191) 388 623 2
(0.0283258 0.485837 0.194599 0.291238) 388 771 1
(0.471162 0.0904772 0.264419 0.173942) 389 625 1
(0.109566 0.445217 0.177894 0.267323) 390 627 2
(0.101903 0.449049 0.369682 0.0793664) 391 629 2
(0.0963138 0.00213649 0.449707 0.451843) 316 629 1
(0.0427999 0.0285269 0.4786 0.450073) 317 630 2
(0.141888 0.429056 0.242251 0.186805) 319 635 2
(0.137106 0.318841 0.112606 0.431447) 320 637 1
(0.273734 0.253674 0.109459 0.363133) 321 639 1
(0.201734 0.399133 0.310163 0.0889694) 322 492 2
(0.19609 0.401955 0.370375 0.0315795) 322 640 1
(0.322794 0.179257 0.338603 0.159346) 323 494 1
(0.106559 0.432202 0.0145185 0.446721) 249 496 1
(0.0802908 0.443192 0.0166623 0.459855) 250 498 1
(0.230443 0.384778 0.29519 0.0895886) 251 500 2
(0.223112 0.388444 0.197249 0.191195) 252 502 2
(0.210563 0.394719 0.32837 0.0663486) 253 504 2
(0.31129 0.234607 0.109748 0.344355) 254 506 1
(0.276106 0.222112 0.139835 0.361947) 255 508 1
(0.0595326 0.139653 0.330581 0.470234) 257 509 2
(0.0578333 0.181558 0.289525 0.471083) 258 511 2
(0.100962 0.122036 0.327483 0.449519) 259 513 2
(0.120206 0.439897 0.086945 0.352952) 335 518 2
(0.473193 0.263403 0.0525284 0.210875) 336 520 2
(0.738526 0.130737 0.0228279 0.107909) 337 671 2
(0.486255 0.256872 0.0707594 0.186113) 338 673 2
(0.401978 0.299011 0.188982 0.11003) 339 675 2
(0.502869 0.147007 0.101558 0.248566) 340 677 1
(0.451419 0.155844 0.118446 0.274291) 341 679 1
(0.467205 0.220279 0.046119 0.266398) 342 681 1
(0.273076 0.254476 0.108986 0.363462) 343 683 1
(0.114744 0.226543 0.442628 0.216085) 419 685 1
(0.377362 0.249255 0.311319 0.0620637) 420 687 1
(0.809621 0.0659068 0.0951897 0.029283) 421 689 1
(0.655626 0.148234 0.172187 0.0239532) 422 691 1
(0.381674 0.276061 0.309163 0.0331023) 423 693 1
(0.0397645 0.480118 0.00563651 0.474481) 424 695 2
(0.276345 0.361827 0.152325 0.209503) 350 697 2
(0.174591 0.271757 0.140948 0.412705) 351 696 2
(0.156536 0.232388 0.421732 0.189344) 351 698 2
(0.297593 0.0767789 0.274425 0.351204) 352 701 1
(0.287855 0.145509 0.210563 0.356073) 353 703 1
(0.742688 0.128656 0.0324387 0.0962175) 355 707 2
(0.59629 0.201855 0.0929248 0.10893) 356 706 1
(0.113145 0.184519 0.258909 0.443428) 357 708 2
(3.56113e-07 0.5 0.5 3.56017e-08) 375 7455 2
(3.56225e-07 0.5 0.5 3.52543e-08) 375 7455 2
(3.562e-07 0.5 0.0415227 0.458477) 300 7454 2
(3.56334e-07 0.5 0.167269 0.332731) 375 7455 2
(0.176976 0.411512 0.177325 0.234187) 300 448 2
(0.184956 0.407522 0.215555 0.191967) 300 448 2
(0.168582 0.415709 0.149851 0.265857) 300 448 2
(0.22248 0.38876 0.100507 0.288253) 300 448 2
(0.247427 0.121897 0.376287 0.254389) 300 448 1
(0.0863256 0.325263 0.456837 0.131574) 300 448 1
(0.107399 0.446301 0.384068 0.0622322) 300 596 1
(0.81386 0.0930701 0.0236057 0.0694644) 300 448 2
(0.165575 0.417213 0.334093 0.0831191) 300 596 1
(0.297514 0.351243 0.221294 0.129949) 300 596 1
(0.218231 0.390884 0.0299681 0.360916) 300 596 1
(0.241938 0.379031 0.00318116 0.37585) 300 596 1
(0.0511098 0.474445 0.445269 0.0291759) 301 596 1
(0.740684 0.0948608 0.0347973 0.129658) 301 596 2
(0.120322 0.212177 0.439839 0.227661) 301 598 2
(0.0421514 0.261381 0.478924 0.217543) 302 600 2
(0.458188 0.270906 0.0629449 0.207961) 304 605 2
(0.252007 0.373996 0.159011 0.214986) 305 607 2
(0.745854 0.127073 0.0215643 0.105509) 381 758 2
(0.565327 0.217336 0.0130518 0.204285) 382 760 2
(0.327395 0.336302 0.0200065 0.316296) 383 762 2
(0.107728 0.446136 0.0387335 0.407403) 384 764 2
(0.0681368 0.465932 0.456954 0.00897726) 459 912 1
(0.324911 0.146312 0.337545 0.191233) 460 766 1
(0.33385 0.114619 0.333075 0.218456) 461 768 1
(0.360764 0.0314741 0.319618 0.288144) 462 770 1
(0.480078 0.259961 0.127639 0.132322) 463 920 1
(0.627281 0.18636 0.0732226 0.113137) 464 922 1
(0.0742121 0.401088 0.061806 0.462894) 390 776 1
(0.110853 0.444574 0.360439 0.0841346) 391 778 2
(0.519014 0.0330196 0.207474 0.240493) 392 777 2
(0.773567 0.0361349 0.0770819 0.113217) 393 779 2
(0.33478 0.138524 0.33261 0.194085) 394 783 2
(0.161625 0.419187 0.190962 0.228226) 396 788 2
(0.237488 0.381256 0.285262 0.0959937) 397 790 2
(0.754345 0.121363 0.00146436 0.122828) 398 789 2
(0.31031 0.344845 0.129328 0.215517) 399 645 2
(0.26054 0.36973 0.160855 0.208875) 400 647 2
(0.228188 0.385906 0.0389449 0.346961) 401 795 1
(0.360636 0.0595343 0.319682 0.260148) 401 649 1
(0.271112 0.364444 0.142765 0.221679) 327 651 2
(0.251614 0.374193 0.0693976 0.304795) 328 653 2
(0.138367 0.0574468 0.37337 0.430817) 329 652 2
(0.0750168 0.0881696 0.462492 0.374322) 329 654 2
(0.12748 0.077136 0.43626 0.359124) 330 656 2
(0.189176 0.0649457 0.405412 0.340466) 331 658 2
(0.202195 0.139207 0.398902 0.259695) 332 660 2
(0.118037 0.268469 0.172512 0.440981) 334 662 2
(0.159766 0.420117 0.36992 0.0501968) 335 667 2
(0.192231 0.403884 0.0777704 0.326114) 411 669 2
(0.550994 0.101875 0.122628 0.224503) 412 817 2
(0.436407 0.281796 0.24657 0.0352265) 413 822 2
(0.335263 0.332369 0.323786 0.00858239) 414 824 2
(0.42633 0.286835 0.232444 0.0543905) 415 826 2
(0.374358 0.312821 0.155428 0.157393) 416 828 2
(0.344574 0.327713 0.121154 0.206558) 417 830 2
(0.261938 0.369031 0.172616 0.196415) 418 832 2
(0.200455 0.399773 0.253421 0.146352) 419 834 2
(0.363806 0.318097 0.00964947 0.308448) 495 982 1
(0.368537 0.315731 0.0569395 0.258792) 496 984 1
(0.179718 0.410141 0.191643 0.218498) 497 986 1
(0.0197433 0.490128 0.243613 0.246516) 498 988 1
(0.134221 0.43289 0.380597 0.0522929) 498 990 1
(0.0231644 0.0957905 0.392627 0.488418) 424 844 1
(0.277591 0.361205 0.197689 0.163516) 425 845 1
(0.473457 0.041336 0.263272 0.221936) 426 699 1
(0.309707 0.343132 0.00201499 0.345147) 427 850 1
(0.290641 0.354679 0.187395 0.167285) 428 852 2
(0.304893 0.347553 0.0384468 0.309106) 429 854 2
(0.237884 0.0138678 0.36719 0.381058) 430 853 2
(0.234482 0.00500393 0.377755 0.382759) 431 855 2
(3.56663e-07 0.5 0.5 1.17937e-08) 450 7456 2
(3.56736e-07 0.5 0.5 1.1406e-08) 450 7456 2
(0.0451077 0.0359976 0.441449 0.477446) 300 7454 1
(3.56807e-07 0.5 0.137766 0.362234) 450 7456 2
(0.406419 0.29679 0.05332 0.24347) 375 597 2
(0.407085 0.296457 0.0603141 0.236143) 375 597 2
(0.435865 0.282067 0.0321954 0.249872) 375 597 2
(0.311274 0.344363 0.0795644 0.264799) 375 597 2
(0.0979455 0.451027 0.395364 0.0556637) 375 597 2
(0.0447392 0.47763 0.0754937 0.402137) 375 597 2
(0.135288 0.432356 0.322402 0.109953) 375 745 1
(0.155407 0.422297 0.155822 0.266474) 375 745 1
(0.190182 0.272907 0.132002 0.404909) 375 746 1
(0.217759 0.391121 0.325851 0.0652692) 375 745 1
(0.224729 0.387636 0.21692 0.170716) 375 745 1
(0.1926 0.4037 0.216276 0.187424) 375 745 1
(0.203994 0.398003 0.327788 0.0702147) 376 745 1
(0.910949 0.000748028 0.0437775 0.0445256) 376 748 1
(0.277875 0.361063 0.172196 0.188867) 377 750 2
(0.26335 0.196104 0.172221 0.368325) 378 749 2
(0.0650674 0.333901 0.133565 0.467466) 379 751 2
(0.0180435 0.29312 0.490978 0.197859) 379 753 2
(0.010234 0.226399 0.268484 0.494883) 380 756 1
(0.203838 0.111083 0.286998 0.398081) 456 904 2
(0.00923285 0.236203 0.25918 0.495384) 456 907 1
(0.121757 0.436769 0.439122 0.002353) 532 909 1
(0.143777 0.428111 0.185416 0.242696) 533 911 2
(0.0962319 0.380464 0.07142 0.451884) 459 913 1
(0.0598476 0.166677 0.470076 0.303399) 535 915 1
(0.0972486 0.451376 0.0614334 0.389942) 537 1065 1
(0.438278 0.280861 0.22418 0.0566808) 538 1069 1
(0.283275 0.358362 0.189192 0.16917) 540 1071 1
(0.423575 0.0713936 0.216819 0.288212) 466 924 2
(0.104978 0.447511 0.406526 0.0409846) 467 926 1
(0.296719 0.351641 0.170217 0.181423) 467 928 1
(0.517177 0.0100523 0.241411 0.231359) 468 782 1
(0.405133 0.297433 0.193066 0.104367) 469 932 1
(0.163959 0.294266 0.123755 0.418021) 470 935 1
(0.238679 0.360731 0.0199294 0.380661) 471 937 1
(0.244223 0.377888 0.294488 0.0834006) 472 939 2
(0.280731 0.359635 0.255762 0.103873) 473 941 2
(0.191636 0.0830371 0.404182 0.321145) 474 794 1
(0.0702576 0.464871 0.382755 0.0821167) 475 944 1
(0.142864 0.428568 0.0686182 0.35995) 477 946 1
(0.168826 0.0513511 0.415587 0.364236) 402 799 2
(0.255823 0.0206661 0.351423 0.372089) 403 802 1
(0.202676 0.157086 0.241576 0.398662) 404 804 1
(0.305367 0.213183 0.134133 0.347316) 405 806 1
(0.26499 0.269221 0.0982841 0.367505) 406 808 1
(0.312849 0.225323 0.118252 0.343576) 407 810 1
(0.743695 0.128152 0.0597373 0.0684149) 408 812 2
(0.882516 0.0141862 0.0445557 0.0587419) 409 811 2
(0.471134 0.264433 0.216765 0.0476677) 410 816 2
(0.278784 0.360608 0.302437 0.0581704) 411 818 2
(0.0526915 0.411692 0.0619623 0.473654) 487 966 2
(0.293312 0.353344 0.1257 0.227644) 488 971 2
(0.288955 0.355523 0.202189 0.153334) 489 973 2
(0.331683 0.334158 0.0998525 0.234306) 490 975 2
(0.337792 0.331104 0.0305902 0.300514) 491 977 2
(0.321608 0.339196 0.0360252 0.303171) 492 979 2
(0.0792761 0.460362 0.376589 0.0837733) 568 981 2
(0.244342 0.377829 0.271581 0.106248) 569 983 2
(0.275368 0.362316 0.319195 0.0431211) 570 985 2
(0.211423 0.394289 0.0622467 0.332042) 571 1133 1
(0.298857 0.350571 0.213525 0.137047) 571 1135 1
(0.413716 0.293142 0.262674 0.0304677) 572 1137 1
(0.166787 0.416606 0.380735 0.0358714) 573 1139 1
(0.0771086 0.461446 0.431287 0.0301582) 574 1141 1
(0.177903 0.411049 0.289534 0.121515) 500 994 1
(0.448639 0.0541946 0.27568 0.221486) 501 848 1
(0.213095 0.341554 0.0518985 0.393452) 502 999 1
(0.252927 0.321569 0.0519673 0.373537) 503 1001 1
(0.267515 0.360014 0.00622864 0.366243) 504 1003 1
(0.266707 0.366647 0.360799 0.00584743) 505 1005 2
(0.371007 0.314496 0.306363 0.00813363) 506 1007 2
(3.55029e-07 0.5 0.5 1.28819e-08) 525 7457 2
(3.55244e-07 0.5 0.5 1.24426e-08) 525 7457 2
(3.56876e-07 0.5 0.0415194 0.45848) 450 7456 2
(3.5545e-07 0.5 0.0999984 0.400001) 525 7457 2
(0.536495 0.231753 0.211913 0.0198402) 450 746 2
(0.293283 0.351823 0.353358 0.00153499) 450 746 1
(0.811943 0.0940284 0.0144424 0.079586) 375 7455 2
(0.306752 0.346624 0.119873 0.226751) 450 746 2
(0.320574 0.339713 0.171069 0.168644) 450 746 2
(0.200519 0.39974 0.305162 0.0945784) 450 894 1
(0.197171 0.401414 0.322154 0.0792599) 450 894 1
(0.185036 0.407482 0.34069 0.0667918) 450 894 1
(0.265666 0.367167 0.128776 0.238391) 450 894 1
(0.25312 0.37344 0.317956 0.055484) 450 894 1
(0.209544 0.395228 0.216902 0.178325) 450 894 1
(0.0772775 0.461361 0.232755 0.228606) 451 894 1
(0.118535 0.405828 0.440733 0.0349043) 525 1043 2
(0.54303 0.228485 0.0724188 0.156066) 526 1043 1
(0.621462 0.189269 0.00963628 0.179633) 526 1045 1
(0.58822 0.0321435 0.173747 0.20589) 452 899 1
(0.5517 0.22415 0.210604 0.0135461) 453 901 2
(0.353688 0.0545018 0.268654 0.323156) 454 900 2
(0.387111 0.0249527 0.306444 0.281492) 454 902 2
(0.553131 0.0650976 0.223434 0.158337) 529 1051 2
(0.232288 0.383856 0.0952135 0.288642) 530 1054 2
(0.0526288 0.125781 0.347904 0.473686) 531 1053 2
(0.0937188 0.453141 0.417544 0.0355971) 532 1058 2
(0.240406 0.156387 0.22341 0.379797) 533 1060 1
(0.0519443 0.0927534 0.381274 0.474028) 535 1061 2
(0.172388 0.413806 0.161434 0.252372) 536 1066 2
(0.0218169 0.489092 0.00334558 0.485746) 612 1068 2
(0.34355 0.216887 0.328225 0.111338) 613 1070 1
(0.399326 0.148332 0.300337 0.152005) 614 1072 1
(0.0173122 0.249307 0.491344 0.242037) 615 1074 1
(0.128179 0.435911 0.107441 0.32847) 541 1075 1
(0.0359637 0.482018 0.237673 0.244345) 542 1077 1
(0.310777 0.217031 0.127581 0.344612) 543 1080 1
(0.0672242 0.466388 0.256885 0.209503) 544 1082 2
(0.15588 0.42206 0.123239 0.298821) 545 1084 2
(0.253519 0.37324 0.191563 0.181677) 546 1086 2
(0.497843 0.251079 0.0256245 0.225454) 548 1090 2
(0.150518 0.227119 0.424741 0.197622) 549 943 1
(0.183274 0.408363 0.319909 0.0884541) 551 947 2
(0.123904 0.374101 0.438048 0.0639475) 552 949 1
(0.279253 0.360374 0.269013 0.0913605) 478 951 2
(0.194655 0.402672 0.295877 0.106796) 479 953 2
(0.33234 0.33383 0.198519 0.135311) 480 955 2
(0.367045 0.316477 0.163028 0.153449) 481 957 2
(0.584413 0.207794 0.143556 0.0642378) 482 959 2
(0.0694313 0.465284 0.256903 0.208382) 558 961 2
(0.108376 0.385324 0.445812 0.0604885) 558 1109 2
(0.833042 0.0500396 0.0834792 0.0334396) 559 1111 2
(0.354183 0.322909 0.0600867 0.262822) 485 965 2
(0.132818 0.0594381 0.374153 0.433591) 485 965 1
(0.0766059 0.461697 0.0527173 0.40898) 561 967 2
(0.207311 0.396344 0.144895 0.251449) 562 969 2
(0.234313 0.0130523 0.382843 0.369791) 562 1117 2
(0.276608 0.0770216 0.284674 0.361696) 563 1120 1
(0.274721 0.104182 0.258458 0.362639) 564 1122 1
(0.284987 0.112145 0.245361 0.357507) 565 1124 1
(0.133475 0.045199 0.433262 0.388063) 641 1126 1
(0.183974 0.0400398 0.408013 0.367973) 642 1128 1
(0.284237 0.357882 0.208334 0.149548) 644 1132 2
(0.137736 0.431132 0.0334319 0.3977) 645 1134 2
(0.382271 0.308864 0.0354674 0.273397) 646 1282 1
(0.283811 0.358094 0.0644272 0.293667) 647 1284 1
(0.271842 0.364079 0.0936722 0.270407) 648 1140 2
(0.235533 0.289412 0.382233 0.0928219) 649 1142 1
(0.076691 0.0665237 0.395131 0.461654) 575 1144 1
(0.165173 0.00414208 0.413271 0.417413) 577 1145 2
(0.258934 0.370533 0.0456199 0.324913) 578 1150 2
(0.299706 0.350147 0.0191173 0.33103) 579 1152 2
(0.27709 0.361455 0.07229 0.289165) 580 1154 2
(0.311851 0.344075 0.0164464 0.327628) 581 1156 2
(0.0496931 0.475153 0.19025 0.284904) 581 1155 1
(3.56662e-07 0.5 0.5 1.07814e-08) 600 7458 2
(3.56735e-07 0.5 0.5 1.04284e-08) 600 7458 2
(3.60322e-07 0.5 0.171401 0.328599) 525 7457 2
(3.56806e-07 0.5 0.0291417 0.470858) 600 7458 2
(0.168534 0.415733 0.101678 0.314055) 525 895 2
(0.142337 0.428831 0.136528 0.292303) 525 895 2
(0.327438 0.336281 0.268303 0.0679774) 525 895 2
(0.283575 0.358212 0.354738 0.00347429) 525 1043 1
(0.246322 0.376839 0.126027 0.250812) 525 895 2
(0.135534 0.432233 0.388801 0.0434317) 525 1043 1
(0.153482 0.423259 0.370827 0.052432) 525 1043 1