/*--------------------------------*- C++ -*----------------------------------*\
  =========                 |
  \\      /  F ield         | OpenFOAM: The Open Source CFD Toolbox
   \\    /   O peration     | Website:  https://openfoam.org
    \\  /    A nd           | Version:  12
     \\/     M anipulation  |
\*---------------------------------------------------------------------------*/
FoamFile
{
    format      ascii;
    class       vectorField;
    location    "0.35/lagrangian/cloud";
    object      U;
}
// * * * * * * * * * * * * * * * * * * * * * * * * * * * * * * * * * * * * * //


4588
(
(1.08076e-11 -6.34311e-05 0)
(1.03943e-11 -6.34615e-05 0)
(9.999e-12 -6.35198e-05 0)
(0.000497031 -0.00280238 0)
(0.000452373 -0.00265705 0)
(0.000267601 -0.00726655 0)
(6.19207e-05 -0.00598047 0)
(0.000782831 -0.013689 0)
(0.000920789 -0.0188245 0)
(0.000155226 -0.0137782 0)
(0.00555569 -0.0214147 0)
(-0.000242832 -0.0147118 0)
(-0.000693915 -0.0154274 0)
(-0.00175446 -0.0332936 0)
(0.000785706 -0.0354848 0)
(0.00116713 -0.0357244 0)
(-0.000149284 -0.0337901 0)
(0.000114311 -0.0311744 0)
(-0.00101321 -0.0309022 0)
(0.000582329 -0.0294244 0)
(-0.00123756 -0.0319592 0)
(-0.000555824 -0.0300744 0)
(-0.000358747 -0.0300034 0)
(0.00116014 -0.0287432 0)
(0.00134219 -0.029688 0)
(0.000295615 -0.027754 0)
(0.000204677 -0.0279494 0)
(0.000258441 -0.0292553 0)
(-0.000706273 -0.0296567 0)
(-0.000269024 -0.0303602 0)
(0.000103896 -0.0291421 0)
(-0.000356387 -0.0315801 0)
(0.000544159 -0.0296921 0)
(-0.00057807 -0.0266971 0)
(0.0038578 -0.0260885 0)
(0.000714707 -0.0274456 0)
(0.000493452 -0.0251152 0)
(-0.00147167 -0.0247683 0)
(-6.77192e-05 -0.0282903 0)
(0.000110782 -0.0319532 0)
(0.000665552 -0.0314816 0)
(-0.000390386 -0.0285813 0)
(-0.00113196 -0.0283814 0)
(-0.0021628 -0.0277767 0)
(-0.0045316 -0.0259397 0)
(5.45547e-05 -0.0262447 0)
(0.000230067 -0.0293595 0)
(0.001074 -0.0285632 0)
(0.000181048 -0.0257459 0)
(0.000386092 -0.0261873 0)
(-8.3039e-05 -0.0257938 0)
(-0.00096045 -0.0185174 0)
(0.001668 -0.0186548 0)
(0.00371969 -0.0187789 0)
(0.00290437 -0.0174723 0)
(0.00466018 -0.0130363 0)
(0.000761582 -0.0222079 0)
(-0.0018518 -0.0203442 0)
(0.000388221 -0.0286391 0)
(-0.000637016 -0.0301076 0)
(0.000202781 -0.0324091 0)
(-0.000727253 -0.0318587 0)
(-3.70793e-05 -0.0307137 0)
(0.000533999 -0.0296219 0)
(0.000343136 -0.0288456 0)
(-0.00123015 -0.0299713 0)
(3.51989e-05 -0.0248424 0)
(-0.001522 -0.0252911 0)
(0.000652995 -0.0293414 0)
(-0.00216605 -0.0218777 0)
(-0.00321801 -0.0249566 0)
(0.000499642 -0.0268214 0)
(0.000125703 -0.02868 0)
(0.00404119 -0.0292338 0)
(0.00243712 -0.0305971 0)
(2.59697e-11 -6.35606e-05 0)
(2.52376e-11 -6.35768e-05 0)
(8.04102e-06 -7.03934e-05 0)
(7.72618e-06 -7.01439e-05 0)
(0.000326121 -0.0194968 0)
(0.00186752 -0.016489 0)
(0.000889026 -0.0177832 0)
(0.000433337 -0.0291966 0)
(-0.000718046 -0.00494946 0)
(0.000708512 -0.0147379 0)
(0.000119078 -0.00664619 0)
(0.00130016 -0.0156099 0)
(-0.00366039 -0.0156773 0)
(0.00618995 -0.0162508 0)
(-0.00568995 -0.0428856 0)
(-0.00785061 -0.047107 0)
(-0.00741419 -0.04293 0)
(-0.0107327 -0.0394889 0)
(0.00142879 -0.0363252 0)
(-0.000954891 -0.0351989 0)
(0.00035995 -0.0329691 0)
(-0.00131173 -0.0318185 0)
(-0.00272679 -0.0349979 0)
(-0.000435892 -0.0379783 0)
(-0.00167575 -0.0387225 0)
(0.00120821 -0.0322133 0)
(0.000908901 -0.0313032 0)
(-7.0267e-05 -0.0315122 0)
(-0.000290517 -0.0319337 0)
(-0.000254882 -0.031782 0)
(-0.00149637 -0.0255279 0)
(-0.000889297 -0.0388577 0)
(0.00215564 -0.0451034 0)
(0.000560884 -0.0362334 0)
(0.000268387 -0.0354624 0)
(0.000255673 -0.0394722 0)
(-0.00134861 -0.0350287 0)
(2.04018e-05 -0.0330539 0)
(-0.0016627 -0.0285006 0)
(-0.00296676 -0.0280041 0)
(0.000513032 -0.0323437 0)
(0.00045863 -0.0299799 0)
(0.000661578 -0.0360521 0)
(0.000382416 -0.0389986 0)
(0.000320379 -0.0406019 0)
(-0.00077903 -0.0322228 0)
(-0.00192747 -0.0259017 0)
(0.000549377 -0.0303465 0)
(-0.000375803 -0.0276397 0)
(-0.000381553 -0.0304421 0)
(-0.00288372 -0.022973 0)
(-0.00136542 -0.0325105 0)
(-0.000345878 -0.0299371 0)
(-0.00451037 -0.0345547 0)
(-0.00549104 -0.0348356 0)
(-0.00519214 -0.0314094 0)
(-0.00526817 -0.0343712 0)
(0.00648106 -0.0199384 0)
(0.00637013 -0.0166404 0)
(0.0035892 -0.0206994 0)
(0.00285849 -0.0234763 0)
(0.000832087 -0.0258944 0)
(0.00415431 -0.034144 0)
(0.00249705 -0.033608 0)
(0.00160148 -0.0343551 0)
(0.00178247 -0.0401349 0)
(0.000544156 -0.0413992 0)
(0.000714947 -0.0407795 0)
(0.000111859 -0.0396133 0)
(-0.000166164 -0.0383878 0)
(-0.000384933 -0.0317851 0)
(-0.00128822 -0.031232 0)
(-0.00240099 -0.0351875 0)
(-0.00148679 -0.0408473 0)
(-0.000364915 -0.0379235 0)
(3.52593e-12 -6.343e-05 0)
(3.39085e-12 -6.34605e-05 0)
(2.50374e-06 -4.1724e-05 0)
(3.26094e-12 -6.34898e-05 0)
(0.00102218 -0.0145858 0)
(-6.14127e-05 -0.0105852 0)
(6.94906e-06 -2.51323e-05 0)
(-0.00037936 -0.0167406 0)
(-0.00125421 -0.013583 0)
(-1.26776e-05 -0.0168192 0)
(0.000780074 -0.0251385 0)
(-0.000579773 -0.0253007 0)
(-0.000783598 -0.0251215 0)
(-0.00242102 -0.014954 0)
(-0.00242707 -0.0130791 0)
(-0.000602472 -0.0109259 0)
(-0.000220612 -0.0216029 0)
(-0.00435647 -0.0411265 0)
(-0.00513649 -0.0441995 0)
(-0.00433847 -0.0438506 0)
(-0.00406543 -0.0505193 0)
(-0.00158364 -0.0433957 0)
(-9.47892e-05 -0.0432573 0)
(-0.00152573 -0.0449033 0)
(-0.000804082 -0.0420605 0)
(-0.00255624 -0.0413756 0)
(-0.00322063 -0.0411814 0)
(-0.00144382 -0.040226 0)
(0.000199661 -0.039455 0)
(-0.000440426 -0.0400938 0)
(-0.00169352 -0.0432881 0)
(0.00187824 -0.0435588 0)
(0.000396077 -0.0421273 0)
(0.00107228 -0.0456968 0)
(-0.000996448 -0.0470141 0)
(-0.00045467 -0.0526815 0)
(0.00144889 -0.0439294 0)
(0.00114005 -0.046592 0)
(0.000381455 -0.0443738 0)
(-0.000216069 -0.0447956 0)
(0.000114684 -0.0462484 0)
(0.000487732 -0.0470532 0)
(-0.000236042 -0.0464204 0)
(-0.00473547 -0.0498603 0)
(0.00167416 -0.0462362 0)
(2.09699e-05 -0.0439843 0)
(-0.000246655 -0.0481329 0)
(-0.00198123 -0.0454816 0)
(-0.000499295 -0.0393333 0)
(-0.00192862 -0.0401726 0)
(0.00199594 -0.0436454 0)
(0.000660553 -0.047642 0)
(-0.000350414 -0.0426434 0)
(0.00301442 -0.0469694 0)
(0.00119377 -0.0487638 0)
(-0.0001562 -0.0470906 0)
(1.63842e-05 -0.0434855 0)
(-0.00277566 -0.0424947 0)
(-0.00634841 -0.0452961 0)
(-0.00417981 -0.0402283 0)
(-0.00142588 -0.0398022 0)
(0.00297499 -0.0383187 0)
(0.00536241 -0.0453557 0)
(0.0071983 -0.0458794 0)
(0.00769087 -0.0437196 0)
(0.00846713 -0.0431874 0)
(0.005285 -0.0432676 0)
(0.00384759 -0.0441884 0)
(0.00174138 -0.0460374 0)
(0.00129031 -0.0453973 0)
(0.00155975 -0.0458207 0)
(-4.12434e-05 -0.0484689 0)
(-0.000349699 -0.0466832 0)
(-0.000526361 -0.0459016 0)
(-0.000940505 -0.0455939 0)
(2.20171e-11 -6.3521e-05 0)
(2.13277e-11 -6.3541e-05 0)
(8.8942e-06 -3.86381e-05 0)
(2.06599e-11 -6.35604e-05 0)
(-0.00302119 -0.00971259 0)
(-0.00291615 -0.0103487 0)
(-0.00335312 -0.0105916 0)
(-0.00196044 -0.0123628 0)
(-0.00134992 -0.0102671 0)
(-0.00230231 -0.0139555 0)
(0.00153838 -0.0123349 0)
(-0.00250261 -0.0132862 0)
(-0.00240498 -0.0125648 0)
(-0.00214921 -0.0130485 0)
(0.00902931 -0.0197455 0)
(-0.00247749 -0.0119556 0)
(-0.00808144 -0.0149538 0)
(-0.00616678 -0.0291873 0)
(-0.00431685 -0.0462098 0)
(-0.00425694 -0.0445964 0)
(-0.00643519 -0.049775 0)
(-0.00406437 -0.0477567 0)
(-0.00194187 -0.0480346 0)
(-0.00121729 -0.0469341 0)
(-0.00114046 -0.0456612 0)
(-0.00247671 -0.0432312 0)
(-0.00122558 -0.0457505 0)
(-0.0001864 -0.0444123 0)
(0.000663247 -0.0441189 0)
(0.000734065 -0.0436192 0)
(-0.000627855 -0.0413669 0)
(0.000220205 -0.0446293 0)
(0.00142342 -0.0438836 0)
(0.000433892 -0.0463204 0)
(-0.000943232 -0.0507698 0)
(-0.000707344 -0.0527729 0)
(-0.00039054 -0.0521503 0)
(0.00130925 -0.0519892 0)
(0.000583391 -0.0526628 0)
(-0.0005997 -0.0525634 0)
(0.00101552 -0.0522615 0)
(0.000321275 -0.0513434 0)
(-0.00103455 -0.0520001 0)
(-0.000116815 -0.0524331 0)
(0.00468924 -0.0547046 0)
(-0.000867609 -0.0540499 0)
(0.00142154 -0.0522141 0)
(0.000452435 -0.0532941 0)
(0.000649404 -0.054351 0)
(-0.00219902 -0.0545204 0)
(-0.000453578 -0.053398 0)
(-0.00107397 -0.054772 0)
(-0.000951978 -0.0541444 0)
(-0.00233544 -0.0485843 0)
(0.00147 -0.0494288 0)
(0.00300893 -0.0479307 0)
(0.00177031 -0.0471437 0)
(-0.00234414 -0.0449262 0)
(-0.00251184 -0.0463517 0)
(-0.00505176 -0.0486246 0)
(-0.00216706 -0.0503977 0)
(-0.002481 -0.0480741 0)
(-0.000532948 -0.0537745 0)
(0.00644149 -0.0526946 0)
(0.00600484 -0.0513197 0)
(0.00722132 -0.0531069 0)
(0.00748408 -0.0448351 0)
(0.00358704 -0.0449521 0)
(0.00370803 -0.0476225 0)
(0.000441455 -0.0471508 0)
(-6.27508e-05 -0.0471234 0)
(0.000273003 -0.0511495 0)
(0.000920484 -0.0485371 0)
(0.00127151 -0.0503652 0)
(0.0014795 -0.0479392 0)
(6.04865e-12 -6.34776e-05 0)
(5.83853e-12 -6.35023e-05 0)
(3.34857e-05 -5.96233e-05 0)
(5.6357e-12 -6.35261e-05 0)
(-0.00541348 -0.00837007 0)
(-0.000728453 -0.0143855 0)
(0.000635592 -0.00904052 0)
(0.000229833 -0.00762144 0)
(0.00507703 -0.0117059 0)
(-0.00113012 -0.00567978 0)
(0.00912729 -0.0260329 0)
(-0.00491081 -0.0118739 0)
(0.000968563 -0.00983897 0)
(0.00186305 -0.0184911 0)
(3.88822e-05 -0.0144232 0)
(-0.000230418 -0.0130152 0)
(0.00200401 -0.0207998 0)
(-0.0100937 -0.0242153 0)
(-0.000543371 -0.0522516 0)
(-0.00318824 -0.048997 0)
(-0.00577477 -0.050983 0)
(-0.00529528 -0.0473261 0)
(-0.00352702 -0.0500845 0)
(-0.00111258 -0.0477639 0)
(-0.00319163 -0.0465416 0)
(-0.00233604 -0.0444194 0)
(-0.00218381 -0.0457796 0)
(-0.00264069 -0.0452613 0)
(-0.00248404 -0.0458015 0)
(-0.00126201 -0.0450997 0)
(0.00139677 -0.046014 0)
(0.00386738 -0.0416839 0)
(0.00502586 -0.0408344 0)
(0.0039877 -0.0416027 0)
(0.000870464 -0.0500678 0)
(0.000205603 -0.0521045 0)
(0.000961214 -0.0517756 0)
(0.000724318 -0.0526461 0)
(0.00150392 -0.0510494 0)
(0.000439112 -0.0542505 0)
(0.000646322 -0.0523765 0)
(-0.000682487 -0.052045 0)
(-0.00171248 -0.0522583 0)
(-0.000107651 -0.0521177 0)
(-0.000610955 -0.0534251 0)
(0.000123961 -0.0533906 0)
(0.00102398 -0.0548433 0)
(0.000765677 -0.0556652 0)
(0.000399181 -0.053711 0)
(-8.32593e-05 -0.0547151 0)
(0.000439341 -0.0548996 0)
(-0.000466865 -0.0556347 0)
(-0.00438351 -0.0505834 0)
(-0.00476867 -0.0506905 0)
(0.000855239 -0.0500661 0)
(0.00174246 -0.0491114 0)
(7.76672e-05 -0.0480394 0)
(-0.000342065 -0.0485139 0)
(-0.000677209 -0.0497443 0)
(-0.00225358 -0.050471 0)
(-0.00274306 -0.0533997 0)
(-0.00270972 -0.0535633 0)
(-0.00152512 -0.0546441 0)
(0.00255998 -0.0534471 0)
(0.00354319 -0.0547988 0)
(0.00714578 -0.0553603 0)
(0.00630755 -0.053179 0)
(0.003346 -0.0517319 0)
(0.00183538 -0.0509266 0)
(0.00203107 -0.0500893 0)
(0.000455442 -0.0490229 0)
(0.000531342 -0.0496899 0)
(5.43762e-05 -0.0495728 0)
(-0.000654966 -0.0509751 0)
(-0.000495918 -0.0521069 0)
(-1.00003e-11 -6.35209e-05 0)
(-9.68728e-12 -6.3541e-05 0)
(5.4399e-12 -6.35491e-05 0)
(-9.38408e-12 -6.35603e-05 0)
(0.00363663 -0.0103283 0)
(0.00393044 -0.0097368 0)
(-0.00381263 -0.00880407 0)
(0.00355283 -0.0101633 0)
(-0.00195222 -0.0130008 0)
(0.00122727 -0.00898305 0)
(-0.0027885 -0.0142813 0)
(-0.000743603 -0.017332 0)
(-0.00116478 -0.0134079 0)
(-0.00226208 -0.0150812 0)
(-0.00267706 -0.0128282 0)
(-0.00257797 -0.0128701 0)
(-0.00389532 -0.0163359 0)
(-0.00470483 -0.0298421 0)
(-0.00179678 -0.0386146 0)
(-0.00357139 -0.0511555 0)
(-0.00228645 -0.0506374 0)
(-0.00240315 -0.0467663 0)
(-0.00042275 -0.0471304 0)
(-0.000281274 -0.0473177 0)
(-0.00398896 -0.0488164 0)
(-0.00408933 -0.0481763 0)
(-0.00360563 -0.0473223 0)
(-0.00432768 -0.0481101 0)
(-0.00249258 -0.0518532 0)
(-0.00225381 -0.0529676 0)
(0.000206114 -0.0508146 0)
(0.0027309 -0.0450086 0)
(0.00300826 -0.0422446 0)
(0.00231588 -0.0425593 0)
(0.00362616 -0.0478185 0)
(0.00577259 -0.0497366 0)
(0.00114348 -0.051687 0)
(0.000440435 -0.0502914 0)
(0.000552833 -0.0509004 0)
(-0.000100484 -0.0510881 0)
(-0.00132525 -0.0526795 0)
(-0.000292169 -0.0520182 0)
(-0.0018692 -0.0518239 0)
(-0.00214276 -0.0486691 0)
(-0.000330278 -0.0491362 0)
(-4.51162e-05 -0.0488315 0)
(0.000128817 -0.0486456 0)
(0.000349453 -0.0493479 0)
(-0.000506657 -0.0507327 0)
(-6.54387e-06 -0.0522841 0)
(0.00142866 -0.0548422 0)
(0.000878956 -0.056084 0)
(-0.0041779 -0.0486471 0)
(-0.00549863 -0.0449524 0)
(-0.00327994 -0.0460709 0)
(0.00157139 -0.0489093 0)
(0.000576575 -0.0486448 0)
(-0.000203755 -0.0500476 0)
(-0.000206546 -0.05174 0)
(0.000121505 -0.0548124 0)
(-0.00172318 -0.0560028 0)
(-0.00203623 -0.0540838 0)
(-0.00152817 -0.0544066 0)
(-0.00192777 -0.0534484 0)
(0.00141861 -0.0537651 0)
(0.00486383 -0.0521604 0)
(0.00620628 -0.0537625 0)
(0.00437187 -0.0517514 0)
(0.00423576 -0.0505322 0)
(0.00112055 -0.0500108 0)
(1.76137e-05 -0.0511682 0)
(4.13919e-05 -0.0534214 0)
(0.000169492 -0.0541957 0)
(-0.000165564 -0.0549942 0)
(0.000375317 -0.0552026 0)
(-2.12225e-11 -6.35969e-05 0)
(-2.06835e-11 -6.36099e-05 0)
(0.000435516 0.00119002 0)
(-2.01582e-11 -6.36226e-05 0)
(-0.00219171 -0.0123743 0)
(-0.0023289 -0.0112072 0)
(-0.00255227 -0.0115387 0)
(0.00414574 -0.0101484 0)
(-0.00286946 -0.00254182 0)
(-0.00928756 -0.0126538 0)
(-0.00331185 -0.00962231 0)
(-0.00383704 -0.00873526 0)
(-0.00483509 -0.0072754 0)
(0.00479202 -0.0119224 0)
(-0.00320281 -0.00812713 0)
(-0.00359056 -0.0186858 0)
(-0.0089984 -0.0246108 0)
(-0.00633007 -0.0323023 0)
(-0.00621339 -0.0499308 0)
(-0.00496253 -0.0477055 0)
(-0.00368159 -0.0493432 0)
(-0.00307329 -0.04802 0)
(-0.00293569 -0.0449101 0)
(-0.00342813 -0.048663 0)
(-0.00297669 -0.0494199 0)
(-0.00163144 -0.0490321 0)
(-0.00130521 -0.0531122 0)
(-0.00249064 -0.0567982 0)
(-0.000713676 -0.0558826 0)
(-0.00312186 -0.0591319 0)
(-0.00041546 -0.0555089 0)
(0.00126034 -0.0534808 0)
(0.00618647 -0.0486283 0)
(0.00374762 -0.0473254 0)
(0.00294615 -0.0471316 0)
(0.00285623 -0.0489898 0)
(0.00270935 -0.0507882 0)
(0.000837744 -0.05051 0)
(0.00028615 -0.0505879 0)
(0.000600526 -0.0500176 0)
(0.00100667 -0.0496813 0)
(-0.00107767 -0.0515209 0)
(-0.000806468 -0.0515937 0)
(-0.000713956 -0.0500845 0)
(0.000360396 -0.0500274 0)
(0.000333539 -0.0465222 0)
(-0.000124415 -0.0457645 0)
(0.000590178 -0.0467143 0)
(0.001334 -0.0484422 0)
(0.00132344 -0.0497294 0)
(0.00481711 -0.0503542 0)
(-0.00114074 -0.050582 0)
(-0.00191531 -0.0474742 0)
(-0.00226568 -0.0416162 0)
(-0.00454165 -0.0454091 0)
(-0.00070026 -0.0485256 0)
(-0.000347245 -0.0504825 0)
(0.000188252 -0.0508267 0)
(0.000370451 -0.0532338 0)
(-0.000958316 -0.055168 0)
(-0.0018306 -0.0545917 0)
(-0.00256008 -0.0544618 0)
(-0.00186482 -0.0540319 0)
(-0.0014077 -0.0529073 0)
(0.00117444 -0.0518158 0)
(0.00361791 -0.0524898 0)
(0.00680907 -0.0549493 0)
(0.00630747 -0.0525431 0)
(0.00245562 -0.0535153 0)
(-0.000392881 -0.0493373 0)
(0.000552808 -0.0533497 0)
(1.57594e-05 -0.0538023 0)
(2.30395e-06 -0.0538471 0)
(-0.000146489 -0.0539702 0)
(-0.000382568 -0.0531991 0)
(-4.62303e-11 -6.33691e-05 0)
(-4.42745e-11 -6.34075e-05 0)
(-1.96462e-11 -6.36349e-05 0)
(-4.24013e-11 -6.34442e-05 0)
(-0.000416088 -0.0123208 0)
(-0.00241728 -0.0136214 0)
(-0.00154304 -0.0116148 0)
(-0.00153816 -0.011169 0)
(-0.00119815 -0.0101018 0)
(0.00128436 -0.00897749 0)
(-0.00122913 -0.012703 0)
(-0.00362429 -0.0155524 0)
(-0.00352325 -0.0127017 0)
(-0.00343088 -0.0111134 0)
(-0.00357115 -0.0097028 0)
(-0.00403559 -0.02159 0)
(-0.00369251 -0.0248779 0)
(-0.00934477 -0.014988 0)
(-0.00647418 -0.018387 0)
(-0.00196052 -0.0505393 0)
(-0.00159293 -0.0462299 0)
(-0.00309189 -0.0497706 0)
(-0.00613189 -0.0472045 0)
(-0.00419375 -0.0512961 0)
(-0.00384564 -0.0539238 0)
(-0.000866223 -0.0508585 0)
(-0.00123659 -0.0539593 0)
(-0.000224588 -0.0596244 0)
(-0.000469458 -0.0617278 0)
(-0.00377626 -0.0619953 0)
(-0.00251864 -0.0620163 0)
(-0.00313036 -0.0629927 0)
(-0.000721259 -0.0592361 0)
(0.00057445 -0.0573644 0)
(0.00366343 -0.0535733 0)
(0.0034573 -0.0491169 0)
(0.00511367 -0.0509001 0)
(0.00193421 -0.0520576 0)
(0.000897225 -0.052472 0)
(0.00027492 -0.0533689 0)
(0.00284929 -0.0524008 0)
(-0.000480942 -0.0512847 0)
(-0.00161849 -0.0503591 0)
(5.2425e-05 -0.0476098 0)
(-0.000636164 -0.0488833 0)
(-0.000171474 -0.0494843 0)
(0.000379452 -0.0485533 0)
(0.000799754 -0.0482535 0)
(3.02849e-06 -0.0464954 0)
(-0.000284047 -0.0446023 0)
(-0.0038087 -0.0459371 0)
(-0.00465771 -0.0416241 0)
(-0.00407189 -0.0422713 0)
(-0.00361107 -0.0428653 0)
(-0.00346238 -0.0454362 0)
(-0.00241608 -0.0475412 0)
(-0.000479764 -0.0502264 0)
(-2.63091e-05 -0.0517051 0)
(-0.000156838 -0.0528928 0)
(-0.000137405 -0.0533593 0)
(-0.00133337 -0.0526386 0)
(-0.000730215 -0.0519431 0)
(-0.00211496 -0.0544837 0)
(-0.000424427 -0.0557837 0)
(0.000425581 -0.0558811 0)
(-0.000251479 -0.0570764 0)
(0.00337659 -0.0529941 0)
(0.00445288 -0.0525415 0)
(0.00279898 -0.0533497 0)
(0.00119304 -0.0534709 0)
(0.000458963 -0.0536328 0)
(0.000320107 -0.0531085 0)
(-0.00065904 -0.0534039 0)
(-6.44549e-05 -0.0527813 0)
(-0.00107019 -0.0514652 0)
(-5.65841e-12 -6.35969e-05 0)
(-5.51531e-12 -6.36099e-05 0)
(1.99502e-06 -6.43248e-05 0)
(-5.37582e-12 -6.36225e-05 0)
(-0.00211005 -0.0100278 0)
(-0.00264204 -0.00832603 0)
(-0.00203873 -0.00891826 0)
(-0.00341227 -0.0152182 0)
(-0.00236869 -0.00824792 0)
(-0.00421024 -0.0150027 0)
(-0.00240584 -0.0123376 0)
(-0.00343929 -0.0131685 0)
(-0.00183601 -0.0107598 0)
(-0.00380118 -0.0127441 0)
(-0.00369749 -0.0124364 0)
(-0.00363884 -0.0128956 0)
(-0.00355871 -0.0108034 0)
(-0.00375723 -0.0230953 0)
(-0.0071202 -0.0208183 0)
(-0.00681663 -0.0223172 0)
(-0.0046145 -0.0343114 0)
(-0.00416695 -0.0547568 0)
(-0.00249808 -0.0539274 0)
(-0.00347581 -0.0529526 0)
(-0.00177299 -0.0536718 0)
(-0.000458664 -0.0554539 0)
(-0.000466983 -0.0589712 0)
(0.000714203 -0.0581015 0)
(0.000287393 -0.05864 0)
(0.000103917 -0.0593276 0)
(-0.00032839 -0.0600497 0)
(0.000372053 -0.0628109 0)
(-0.00151837 -0.0614294 0)
(-0.00102044 -0.0595954 0)
(0.00194211 -0.0559534 0)
(0.00272176 -0.0543757 0)
(0.00416856 -0.0569166 0)
(0.00283501 -0.0547585 0)
(0.00349884 -0.0544441 0)
(-0.00154079 -0.0530305 0)
(0.000126016 -0.0506577 0)
(0.000229774 -0.0521736 0)
(3.47834e-05 -0.0484222 0)
(-0.00051057 -0.0482463 0)
(0.00036845 -0.0488434 0)
(4.23909e-05 -0.0476106 0)
(-0.0010108 -0.0453481 0)
(-0.00259221 -0.0451092 0)
(-0.00433888 -0.0441785 0)
(-0.0041587 -0.0412461 0)
(-0.000170727 -0.0451918 0)
(-0.00252257 -0.0499315 0)
(-0.00268347 -0.0456438 0)
(-0.00175996 -0.0475445 0)
(-0.000329114 -0.0493192 0)
(0.00047521 -0.0532083 0)
(0.000271538 -0.0528627 0)
(1.32669e-05 -0.0528487 0)
(-0.000120718 -0.0525648 0)
(0.000977771 -0.0524243 0)
(-0.000716868 -0.0530347 0)
(-0.000810094 -0.0496864 0)
(-7.78272e-05 -0.0504118 0)
(0.000889739 -0.0514719 0)
(0.00177988 -0.0515404 0)
(0.0025068 -0.0551047 0)
(0.00470503 -0.055709 0)
(0.00527885 -0.0534558 0)
(0.00305566 -0.0536359 0)
(0.00115286 -0.0540111 0)
(0.000444668 -0.0533104 0)
(0.000171553 -0.0517782 0)
(-0.000583775 -0.0515115 0)
(-0.00158759 -0.0508913 0)
(3.60021e-05 -0.0494389 0)
(-3.02537e-11 -6.35209e-05 0)
(-2.93072e-11 -6.3541e-05 0)
(-1.95623e-06 -5.38995e-05 0)
(-2.83901e-11 -6.35603e-05 0)
(-0.00249062 -0.0182931 0)
(0.000174808 0.00076366 0)
(-0.0024226 -0.0114681 0)
(-0.000242327 -0.00225475 0)
(-0.00386205 -0.0120444 0)
(-0.0025209 -0.0141643 0)
(-0.00422504 -0.00858716 0)
(0.00118075 -0.00654643 0)
(-0.00325145 -0.00672156 0)
(-0.00383523 -0.0222105 0)
(-0.00165223 -0.01308 0)
(-0.00402171 -0.0154165 0)
(-0.00414713 -0.0139005 0)
(-0.00376521 -0.000631991 0)
(-0.00442329 -0.0120602 0)
(-0.00466874 -0.0333318 0)
(-0.00225709 -0.0359397 0)
(-0.000942875 -0.0514029 0)
(-0.00140716 -0.0511651 0)
(-0.000415953 -0.0520337 0)
(3.10147e-06 -0.0535815 0)
(0.00219416 -0.056671 0)
(0.00102477 -0.0565771 0)
(0.000537588 -0.0580343 0)
(0.00102433 -0.0526172 0)
(5.22926e-05 -0.053685 0)
(-0.000321765 -0.0554421 0)
(-0.00107701 -0.0549015 0)
(-0.00111304 -0.056945 0)
(0.000239618 -0.0581311 0)
(0.00034584 -0.0567465 0)
(0.00165796 -0.0574034 0)
(0.0022437 -0.0554271 0)
(0.00213452 -0.0540394 0)
(0.0013403 -0.0546923 0)
(-0.000906216 -0.0536925 0)
(-0.000313851 -0.0499707 0)
(9.01647e-05 -0.0498318 0)
(-0.000259329 -0.0518014 0)
(-0.000399793 -0.048967 0)
(2.80235e-05 -0.0487422 0)
(-0.00108245 -0.0455988 0)
(0.000154798 -0.0517837 0)
(-0.000951173 -0.0469611 0)
(0.00241965 -0.0526775 0)
(-0.000472306 -0.0496692 0)
(-0.00141305 -0.0509574 0)
(-0.00106164 -0.0510988 0)
(-0.00138697 -0.0529803 0)
(-0.00135729 -0.0515606 0)
(-0.000467147 -0.0525514 0)
(-0.000328245 -0.0530046 0)
(-0.000271478 -0.0519949 0)
(-0.000611494 -0.0527503 0)
(-0.000663192 -0.0533399 0)
(-0.000786968 -0.0534098 0)
(-0.000652898 -0.0515909 0)
(-0.000597251 -0.0524972 0)
(-0.00138601 -0.0545682 0)
(0.00212363 -0.053684 0)
(0.00259605 -0.0521668 0)
(0.00354009 -0.05714 0)
(0.00437475 -0.0574701 0)
(0.00460654 -0.0562252 0)
(0.00134493 -0.0528368 0)
(0.00399744 -0.0525002 0)
(0.00072599 -0.0522432 0)
(0.000399194 -0.0513322 0)
(-0.000633317 -0.0535184 0)
(-0.000539424 -0.0513169 0)
(-0.00133154 -0.0512381 0)
(-5.75575e-11 -6.34301e-05 0)
(-5.53494e-11 -6.34606e-05 0)
(-0.00274048 -0.00946035 0)
(-5.32258e-11 -6.34899e-05 0)
(-1.15623e-06 -3.30211e-05 0)
(-0.00260802 -0.0190757 0)
(0.00426709 -0.0134917 0)
(-0.00138424 -0.0081866 0)
(-0.00127225 -0.00998338 0)
(-0.000666901 -0.00960054 0)
(-0.00246544 -0.0206216 0)
(-0.00229786 -0.021102 0)
(-0.006232 -0.011826 0)
(0.00431584 -0.0194133 0)
(-0.00237595 -0.0214617 0)
(-0.00228429 -0.0153081 0)
(-0.00226107 -0.0139578 0)
(-0.00732609 -0.0234753 0)
(-0.00873792 -0.0294207 0)
(-0.00398972 -0.0496585 0)
(-0.00143232 -0.0485526 0)
(-0.000654285 -0.0507377 0)
(-0.00245441 -0.0529087 0)
(0.00305481 -0.0522684 0)
(0.00385739 -0.0540942 0)
(0.00185188 -0.0512974 0)
(0.000493201 -0.0510202 0)
(-0.000380139 -0.0530674 0)
(-0.000356451 -0.0515327 0)
(-0.000395257 -0.0480652 0)
(-0.000855536 -0.0479989 0)
(-6.96404e-05 -0.0482701 0)
(-0.000867111 -0.0528028 0)
(-0.000374401 -0.05272 0)
(0.000269164 -0.0541515 0)
(0.000577029 -0.0548797 0)
(-6.19372e-06 -0.0534545 0)
(0.000876167 -0.0532607 0)
(0.000575042 -0.0519548 0)
(0.000891819 -0.0524204 0)
(-0.00176534 -0.0503323 0)
(-0.00072292 -0.0501251 0)
(0.000445645 -0.0487224 0)
(-0.00141001 -0.0495167 0)
(-0.00150884 -0.0482201 0)
(-0.00138623 -0.0493109 0)
(-0.0010356 -0.0514248 0)
(-0.000462116 -0.0530014 0)
(-0.00101909 -0.0527085 0)
(0.000520134 -0.0543261 0)
(-0.000541732 -0.0541665 0)
(0.000425782 -0.0536856 0)
(-0.000496503 -0.0542818 0)
(-0.000285676 -0.0559911 0)
(-3.23301e-05 -0.056958 0)
(0.00017172 -0.055611 0)
(0.000195807 -0.0537672 0)
(-9.1982e-05 -0.0540313 0)
(-0.000119337 -0.0562799 0)
(-0.000155696 -0.0562704 0)
(-7.77955e-05 -0.0575652 0)
(-0.000297093 -0.0521547 0)
(-0.00245505 -0.0556938 0)
(0.00407765 -0.0569292 0)
(0.0031594 -0.0572883 0)
(0.00266667 -0.0577193 0)
(0.00147896 -0.0581703 0)
(0.00129035 -0.0575448 0)
(0.000877307 -0.0537555 0)
(0.000890185 -0.0524378 0)
(-8.45658e-05 -0.0498022 0)
(3.13864e-05 -0.0497425 0)
(-0.000220756 -0.0501476 0)
(-0.000973035 -0.0497602 0)
(-0.000152285 -0.0484341 0)
(3.01276e-12 -6.35545e-05 0)
(2.9283e-12 -6.3571e-05 0)
(4.91626e-05 -2.57673e-05 0)
(2.84621e-12 -6.35871e-05 0)
(4.70823e-05 -2.73773e-05 0)
(-0.0054008 -0.00960502 0)
(0.00281167 -0.0102564 0)
(-0.000768833 -0.00789203 0)
(-0.00111058 -0.00811296 0)
(-0.00113097 -0.00849232 0)
(-0.00254762 -0.0111635 0)
(0.00711255 -0.0204329 0)
(-0.00210183 -0.013149 0)
(-0.00227539 -0.0170141 0)
(-0.00342478 -0.0132014 0)
(-0.0024465 0.00200007 0)
(-0.000660783 0.00376418 0)
(-0.005053 -0.0129762 0)
(-0.00253408 -0.0261506 0)
(-0.00231346 -0.0488829 0)
(-0.00100588 -0.0469671 0)
(-0.00335338 -0.0507785 0)
(-0.001308 -0.0501633 0)
(0.000752667 -0.0517399 0)
(-2.70575e-05 -0.0513626 0)
(0.000563486 -0.0475844 0)
(-2.12914e-05 -0.0495483 0)
(-0.000810359 -0.0501167 0)
(-0.000186887 -0.0504322 0)
(-0.00034882 -0.0471295 0)
(-0.00182072 -0.0505922 0)
(-0.00060211 -0.050225 0)
(-0.000524055 -0.0516994 0)
(0.00046271 -0.0510531 0)
(-0.000262435 -0.0507052 0)
(0.000373251 -0.0504374 0)
(0.000353995 -0.0499732 0)
(0.000173035 -0.0489672 0)
(-0.000173784 -0.0473849 0)
(0.00101433 -0.0481476 0)
(0.0031326 -0.0483086 0)
(-0.00010673 -0.0520723 0)
(0.000790262 -0.0490503 0)
(-0.000328395 -0.0482598 0)
(-0.000438723 -0.0508985 0)
(-0.000590202 -0.0524244 0)
(-0.000419029 -0.0533417 0)
(-0.000746399 -0.0528411 0)
(-0.000399254 -0.0547655 0)
(0.000201509 -0.0536564 0)
(0.000683141 -0.0542987 0)
(0.000878351 -0.0538147 0)
(-0.000115065 -0.0523313 0)
(0.000265035 -0.0539404 0)
(0.000128126 -0.0545704 0)
(-0.000327384 -0.0557367 0)
(-0.000421004 -0.0558793 0)
(-0.000184144 -0.055967 0)
(-0.000206797 -0.0573178 0)
(0.00022865 -0.0549271 0)
(0.00160293 -0.0581063 0)
(0.000910662 -0.054493 0)
(0.00126421 -0.0575589 0)
(0.000453941 -0.0578907 0)
(0.00202715 -0.0578289 0)
(0.00132402 -0.0564757 0)
(-5.6324e-05 -0.054884 0)
(0.00119836 -0.0518855 0)
(0.000580373 -0.0515918 0)
(0.000638228 -0.0492745 0)
(-0.000222429 -0.0494444 0)
(-0.000349843 -0.0490049 0)
(-0.00057789 -0.0491986 0)
(-0.000507654 -0.0489719 0)
(-0.0001677 -0.0503178 0)
(-4.9722e-11 -6.34301e-05 0)
(-4.78163e-11 -6.34605e-05 0)
(-0.00110629 -0.00994506 0)
(-4.59835e-11 -6.34898e-05 0)
(0.0013694 0.0011249 0)
(-5.18109e-07 -4.0114e-05 0)
(-0.000392007 -0.0157224 0)
(0.000102021 -0.0100853 0)
(-0.00264814 -0.0108027 0)
(-0.00147614 -0.00469403 0)
(-0.00262173 -0.00854974 0)
(-0.00312688 -0.0111978 0)
(-0.00189393 -0.0144662 0)
(-0.00267742 -0.0143033 0)
(-0.00282739 -0.012825 0)
(-0.00274433 -0.0137185 0)
(-0.00312656 -0.0222739 0)
(-0.00866222 -0.0147538 0)
(-0.00319147 -0.0300665 0)
(-0.00294164 -0.0511383 0)
(-0.00154016 -0.0491967 0)
(-0.000401088 -0.0510926 0)
(-0.000260637 -0.0517371 0)
(-0.000116552 -0.0501761 0)
(-0.000217449 -0.0489656 0)
(2.95284e-05 -0.0468967 0)
(0.000420307 -0.0480169 0)
(-0.000386782 -0.0497641 0)
(-0.000139509 -0.0504859 0)
(-0.000391079 -0.0514985 0)
(-0.000891958 -0.0512881 0)
(-0.000666522 -0.0507141 0)
(-0.000394661 -0.0486972 0)
(0.000248116 -0.0489723 0)
(0.000616378 -0.0481894 0)
(0.0019981 -0.0488419 0)
(0.00169868 -0.0493574 0)
(0.00240942 -0.0494857 0)
(0.00139203 -0.0470394 0)
(0.000921174 -0.0469589 0)
(-0.000130799 -0.049309 0)
(-0.000556391 -0.0527885 0)
(-0.0017936 -0.0506668 0)
(-0.000427391 -0.0527353 0)
(-0.00032759 -0.051844 0)
(-9.42998e-05 -0.0533379 0)
(-0.000209865 -0.0528255 0)
(-0.000250959 -0.0516452 0)
(0.000445515 -0.0536063 0)
(0.000748876 -0.0541982 0)
(0.000684242 -0.0535303 0)
(0.000228533 -0.0534641 0)
(8.75678e-05 -0.0532558 0)
(-0.000311434 -0.0524583 0)
(-0.000445162 -0.0520128 0)
(-0.000636248 -0.054253 0)
(-0.000295102 -0.0545884 0)
(-0.000594801 -0.05592 0)
(-6.29017e-05 -0.0563991 0)
(0.000316955 -0.0585373 0)
(-0.00109806 -0.0584921 0)
(0.000119989 -0.0589814 0)
(0.000252652 -0.0548651 0)
(0.000146433 -0.0560691 0)
(0.000297651 -0.0546118 0)
(9.27883e-05 -0.0531131 0)
(-4.19867e-05 -0.051747 0)
(-0.000438534 -0.0514201 0)
(-0.00103418 -0.0487131 0)
(-0.000399961 -0.0485291 0)
(-0.000199896 -0.0499194 0)
(-5.74346e-05 -0.0474703 0)
(-0.000789404 -0.0479567 0)
(-0.000836944 -0.0490222 0)
(0.000124578 -0.0490756 0)
(1.94485e-11 -6.36602e-05 0)
(1.90511e-11 -6.36686e-05 0)
(-0.000511823 -0.00988837 0)
(1.86619e-11 -6.36767e-05 0)
(-0.00055398 -0.00861523 0)
(-0.00212501 -0.0128166 0)
(-0.00120454 -0.00949997 0)
(-0.00122612 -0.00893244 0)
(-0.00218436 -0.0133442 0)
(-0.00300272 -0.0123675 0)
(0.00229413 -0.0047607 0)
(0.000983985 -0.00913808 0)
(-0.00162515 -0.0278411 0)
(-0.00125992 -0.0121043 0)
(-0.00115842 -0.0123499 0)
(-0.00126131 -0.0135914 0)
(-0.00201049 -0.021833 0)
(-0.00290857 -0.026063 0)
(-0.0129519 -0.0205089 0)
(-0.00241547 -0.0343695 0)
(-0.00189057 -0.0527913 0)
(-0.000779031 -0.0530592 0)
(0.000196156 -0.0519 0)
(-6.16196e-05 -0.05104 0)
(0.000675845 -0.0499861 0)
(-0.000101275 -0.0477531 0)
(-0.00019973 -0.0460041 0)
(0.000258022 -0.0498836 0)
(-0.000323765 -0.0520856 0)
(-0.000365873 -0.0541114 0)
(-0.000537159 -0.0538589 0)
(0.00108054 -0.0538855 0)
(-0.0007545 -0.050783 0)
(-0.000265533 -0.0522629 0)
(0.000254806 -0.0521109 0)
(0.000602272 -0.0497658 0)
(0.00281191 -0.0519011 0)
(0.00146104 -0.0521248 0)
(0.00133333 -0.0528086 0)
(0.00117404 -0.0533797 0)
(-0.000201605 -0.0526104 0)
(-0.000605469 -0.0512486 0)
(-0.00165905 -0.0522471 0)
(-0.000217363 -0.0553013 0)
(4.62223e-05 -0.0531718 0)
(0.000135413 -0.0519091 0)
(0.00144169 -0.0505087 0)
(0.00117145 -0.0511252 0)
(0.0003651 -0.0508703 0)
(-0.000664974 -0.0517345 0)
(0.000678641 -0.0534798 0)
(0.000229614 -0.0532387 0)
(-0.000651823 -0.0536111 0)
(-0.000315051 -0.0526468 0)
(0.000152789 -0.0522597 0)
(-0.000827692 -0.0540693 0)
(-0.000681892 -0.0555182 0)
(0.00120148 -0.0547784 0)
(-0.00030542 -0.0563192 0)
(-0.00111912 -0.0563958 0)
(-2.91758e-05 -0.0565619 0)
(-3.47759e-05 -0.0546881 0)
(0.00067692 -0.0513535 0)
(1.35866e-06 -0.0523445 0)
(8.58654e-05 -0.0512317 0)
(0.000221167 -0.0515702 0)
(0.000264487 -0.0492258 0)
(0.000752767 -0.0465296 0)
(-0.000355737 -0.0466714 0)
(9.26911e-05 -0.0486407 0)
(-0.000324136 -0.0504079 0)
(0.000295184 -0.0508812 0)
(0.000327834 -0.0519968 0)
(-0.000541661 -0.0495914 0)
(-0.00107883 -0.0497513 0)
(-2.43712e-11 -6.3529e-05 0)
(-2.3611e-11 -6.35484e-05 0)
(-1.38111e-07 -4.31672e-05 0)
(-2.28744e-11 -6.35672e-05 0)
(0.00116655 -0.00814223 0)
(0.000961055 0.001565 0)
(0.000510211 -0.023982 0)
(-0.0058914 -0.00459578 0)
(0.00132469 -0.00119463 0)
(0.00127801 -0.0167365 0)
(-0.000911882 -0.0130367 0)
(-0.00083114 -0.0179201 0)
(-0.0008252 -0.0175916 0)
(-0.00105091 -0.015832 0)
(-0.00100134 -0.0157277 0)
(-0.000294865 -0.0124279 0)
(0.000487505 -0.0122175 0)
(0.00319057 0.00234078 0)
(0.00520156 -0.0120043 0)
(-0.0038707 -0.0295887 0)
(-0.00189484 -0.0523541 0)
(-0.000868374 -0.0529425 0)
(-0.000674443 -0.0535065 0)
(-0.000289343 -0.053264 0)
(7.80012e-05 -0.0527789 0)
(-0.000218436 -0.052421 0)
(-0.000662183 -0.0521066 0)
(0.000842491 -0.0527615 0)
(-0.00025109 -0.0523205 0)
(0.00015432 -0.053032 0)
(1.92514e-05 -0.0536703 0)
(-0.000172188 -0.0539482 0)
(-0.00340666 -0.0549548 0)
(0.00179494 -0.0566486 0)
(0.000841931 -0.0553595 0)
(-0.00128145 -0.0539307 0)
(-0.00108957 -0.0544815 0)