/*--------------------------------*- C++ -*----------------------------------*\
  =========                 |
  \\      /  F ield         | OpenFOAM: The Open Source CFD Toolbox
   \\    /   O peration     | Website:  https://openfoam.org
    \\  /    A nd           | Version:  12
     \\/     M anipulation  |
\*---------------------------------------------------------------------------*/
FoamFile
{
    format      ascii;
    class       IOPosition;
    location    "0.85/lagrangian/cloud";
    object      positions;
}
// * * * * * * * * * * * * * * * * * * * * * * * * * * * * * * * * * * * * * //

5669
(
(4.74907e-08 0.5 8.52758e-09 0.5) 0 7376 1
(4.75382e-08 0.5 7.96593e-09 0.5) 0 7376 1
(4.75829e-08 0.5 0.000214591 0.499785) 0 7376 2
(4.7625e-08 0.5 0.0206611 0.479339) 0 7376 2
(4.76647e-08 0.5 0.0397249 0.460275) 0 7376 2
(4.77021e-08 0.5 0.0878533 0.412147) 0 7376 2
(4.77373e-08 0.5 0.0620002 0.438) 0 7376 2
(4.77705e-08 0.5 0.133791 0.366209) 0 7376 2
(4.78017e-08 0.5 0.139754 0.360246) 0 7376 2
(4.78311e-08 0.5 0.109959 0.390041) 0 7376 2
(0.198194 0.400903 0.207163 0.19374) 0 7375 1
(0.228367 0.385817 0.103055 0.282762) 0 7375 1
(0.230688 0.384656 0.0865079 0.298148) 0 7375 1
(0.207786 0.396107 0.0504518 0.345655) 0 7375 1
(0.0260712 0.378248 0.486964 0.108717) 0 7375 2
(0.0104775 0.0075406 0.494761 0.487221) 0 7375 2
(0.000444725 0.499778 0.317665 0.182113) 1 7377 1
(0.0780398 0.46098 0.255295 0.205685) 1 7377 1
(0.636749 0.181626 0.0726646 0.108961) 1 7377 1
(0.586775 0.206613 0.00432324 0.202289) 1 7377 1
(0.79861 0.100695 0.0204911 0.0802041) 1 7377 1
(0.922657 0.0386716 0.0347486 0.00392302) 1 2 1
(0.841303 0.0367625 0.0793485 0.042586) 1 2 2
(0.375191 0.154754 0.157651 0.312405) 1 3 1
(0.206723 0.277611 0.396638 0.119027) 1 2 2
(0.194757 0.402622 0.292502 0.11012) 2 2 1
(0.451548 0.274226 0.102783 0.171443) 2 7378 1
(0.235038 0.382481 0.270131 0.11235) 2 4 1
(0.635481 0.18226 0.0922025 0.0900571) 4 9 2
(0.36949 0.315255 0.280804 0.0344507) 5 7381 1
(0.611947 0.194027 0.166136 0.0278906) 6 12 1
(0.570303 0.0688 0.146048 0.214848) 8 17 1
(0.18708 0.386856 0.0196037 0.40646) 10 21 1
(0.327651 0.336175 0.0843074 0.251867) 11 20 1
(0.249407 0.368155 0.00714114 0.375297) 12 25 1
(0.365056 0.317472 0.272153 0.0453191) 13 27 2
(0.240087 0.379956 0.359537 0.0204194) 14 29 2
(0.499614 0.198941 0.250193 0.0512526) 14 7390 2
(0.482013 0.258994 0.0360913 0.222902) 15 28 1
(0.121338 0.439331 0.22512 0.214212) 15 30 1
(0.573615 0.0738502 0.213193 0.139342) 16 7392 2
(0.52104 0.23948 0.138773 0.100707) 17 7393 1
(0.424231 0.287885 0.251965 0.0359193) 18 7394 1
(0.369762 0.315119 0.165962 0.149157) 19 7395 1
(0.381878 0.273604 0.309061 0.0354568) 20 7396 2
(0.339447 0.20168 0.330277 0.128597) 22 7398 2
(0.309074 0.244392 0.101071 0.345463) 24 46 2
(0.112574 0.245277 0.443713 0.198436) 26 52 2
(0.291108 0.329906 0.0245399 0.354446) 28 57 1
(0.209568 0.395216 0.277793 0.117422) 28 56 1
(0.455907 0.0446195 0.272047 0.227427) 29 7405 2
(0.30222 0.0481395 0.300751 0.34889) 33 64 2
(0.201733 0.248355 0.150778 0.399134) 34 69 1
(0.16131 0.419345 0.414543 0.00480234) 111 73 2
(0.139833 0.430083 0.408393 0.0216903) 38 77 2
(0.301071 0.349464 0.228967 0.120497) 111 221 1
(0.502652 0.144801 0.248674 0.103873) 35 7411 2
(0.465816 0.267092 0.198498 0.0685941) 37 7413 1
(0.448652 0.083872 0.275674 0.191802) 38 7414 2
(0.609346 0.195327 0.118268 0.0770589) 39 7415 1
(0.283468 0.246199 0.112067 0.358266) 40 81 1
(0.228396 0.00413298 0.385802 0.381669) 41 82 2
(0.213819 0.013141 0.379949 0.393091) 43 84 2
(0.178851 0.410575 0.160265 0.25031) 44 89 2
(0.0374754 0.481262 0.234774 0.246489) 45 91 2
(0.192972 0.403514 0.376944 0.0265699) 121 93 2
(0.264839 0.36758 0.134409 0.233171) 121 241 1
(0.496093 0.251953 0.131835 0.120118) 45 7421 1
(0.0970017 0.451499 0.230409 0.22109) 46 90 1
(0.559892 0.220054 0.210183 0.00987113) 46 92 1
(0.553441 0.223279 0.127019 0.0962601) 47 7423 1
(0.237869 0.362502 0.381066 0.018564) 124 99 1
(0.413703 0.293149 0.00494594 0.288203) 48 7424 1
(0.116588 0.0819691 0.359737 0.441706) 51 100 2
(0.0509785 0.128589 0.474511 0.345921) 51 102 2
(4.62734e-08 0.499997 2.92542e-06 0.5) 75 7451 1
(4.67017e-08 0.499997 2.94971e-06 0.5) 75 7451 1
(2.84604e-08 0.5 0.0429848 0.457015) 0 7376 2
(2.96164e-08 0.23626 0.26374 0.5) 0 7376 1
(0.242338 0.378831 0.0506745 0.328156) 0 7375 1
(0.282524 0.352377 0.00636099 0.358738) 0 7376 1
(0.38885 0.305575 0.23572 0.0698553) 0 7376 2
(0.434766 0.0380913 0.282617 0.244526) 0 7375 2
(4.7053e-08 0.5 0.0722121 0.427788) 75 7451 2
(0.406759 0.29662 0.290203 0.00641733) 0 0 1
(0.0175691 0.491215 0.257492 0.233724) 0 1 2
(4.73411e-08 0.5 0.179329 0.320671) 75 7451 2
(4.75775e-08 0.5 0.143139 0.356861) 75 7451 2
(4.77713e-08 0.5 0.136682 0.363318) 75 7451 2
(0.237277 0.222953 0.381362 0.158409) 0 7375 2
(4.79303e-08 0.5 0.127007 0.372993) 75 7451 2
(0.0194747 0.490263 0.0783721 0.411891) 75 7451 2
(0.098507 0.450747 0.0297503 0.420996) 75 7451 2
(0.00335189 0.498324 0.341006 0.157318) 1 7377 1
(0.0434798 0.47826 0.201035 0.277225) 1 7377 1
(0.0321963 0.0969416 0.483902 0.38696) 75 1 1
(0.708818 0.145335 0.145591 0.000255908) 1 7377 2
(0.0729381 0.019355 0.444176 0.463531) 0 1 1
(0.0206347 0.489683 0.458552 0.0311303) 76 3 2
(0.0431988 0.478401 0.431029 0.0473721) 76 3 2
(0.550624 0.020385 0.204303 0.224688) 1 3 1
(0.0705347 0.0448108 0.464733 0.419922) 76 3 1
(0.111131 0.444434 0.213564 0.23087) 2 5 2
(0.00489594 0.0873549 0.410197 0.497552) 3 4 2
(0.10622 0.353719 0.44689 0.0931715) 79 9 1
(0.0491621 0.102782 0.372637 0.475419) 5 11 1
(0.0260466 0.369173 0.117804 0.486977) 77 151 2
(0.700612 0.0105963 0.139098 0.149694) 76 152 1
(0.703973 0.0998375 0.0481758 0.148013) 77 151 2
(0.463256 0.161169 0.268372 0.107204) 77 153 2
(0.875043 0.0575807 0.00489801 0.0624787) 78 156 1
(0.13055 0.434725 0.178426 0.256299) 84 19 2
(0.228732 0.385634 0.0565774 0.329056) 86 23 2
(0.687362 0.156319 0.0933339 0.0629852) 88 27 2
(0.574592 0.212704 0.0460164 0.166688) 89 175 1
(0.000317723 0.499841 0.364234 0.135607) 91 33 2
(0.396816 0.301592 0.041965 0.259627) 90 177 1
(0.00605984 0.297922 0.199048 0.49697) 85 170 1
(0.0833814 0.38217 0.458309 0.0761388) 163 176 1
(0.144793 0.427603 0.404243 0.0233605) 91 179 1
(0.171766 0.414117 0.0663627 0.347754) 95 41 2
(0.0440611 0.477969 0.455275 0.0226947) 22 45 2
(0.324846 0.337577 0.270467 0.0671098) 98 47 2
(0.279567 0.360216 0.289455 0.0707614) 99 49 2
(0.0535391 0.152804 0.47323 0.320426) 102 55 1
(0.00445373 0.497773 0.0493458 0.448427) 105 61 2
(0.110099 0.153601 0.444951 0.29135) 173 196 1
(0.131925 0.072976 0.434037 0.361061) 100 199 2
(0.119948 0.371475 0.0685511 0.440026) 102 204 1
(0.249757 0.375121 0.116225 0.258896) 103 206 2
(0.252365 0.132631 0.373818 0.241187) 103 205 2
(0.489079 0.0777078 0.177753 0.25546) 104 208 1
(0.177248 0.194443 0.411376 0.216933) 107 213 2
(0.103976 0.448012 0.059856 0.388156) 111 222 2
(0.467755 0.139433 0.126689 0.266122) 112 221 2
(0.241628 0.379186 0.136251 0.242935) 113 223 1
(0.181298 0.409351 0.0196874 0.389664) 114 79 2
(0.249298 0.375351 0.159071 0.21628) 183 216 2
(0.243963 0.213842 0.378018 0.164176) 184 218 1
(0.197467 0.0220509 0.401266 0.379215) 186 222 1
(0.0773865 0.0744689 0.461307 0.386838) 187 224 1
(0.190026 0.0661141 0.338873 0.404987) 113 226 1
(0.431709 0.0107388 0.284145 0.273407) 114 227 2
(0.474323 0.159766 0.103072 0.262838) 115 230 1
(0.135714 0.0785429 0.432143 0.3536) 117 233 2
(0.0510547 0.474473 0.149946 0.324527) 194 238 2
(0.593995 0.203002 0.0385583 0.164444) 122 243 1
(0.131247 0.434376 0.196258 0.238118) 196 388 1
(0.337456 0.331272 0.285332 0.0459397) 195 240 2
(0.706355 0.0573389 0.146823 0.0894838) 196 390 2
(4.79861e-08 0.5 0.5 2.40481e-09) 150 7452 2
(4.79894e-08 0.5 0.5 2.27032e-09) 150 7452 2
(6.21703e-08 0.5 0.0324584 0.467542) 75 7451 2
(4.79926e-08 0.5 0.14379 0.35621) 150 7452 2
(0.122866 0.438567 0.0269441 0.411623) 75 7451 2
(0.168802 0.415599 0.00804793 0.407551) 75 7451 2
(7.70667e-08 0.5 0.210331 0.289669) 75 7451 2
(7.1936e-08 0.5 0.272535 0.227465) 75 7451 2
(0.127819 0.43609 0.369752 0.066338) 75 1 2
(7.52869e-08 0.5 0.361136 0.138864) 75 7451 2
(7.04833e-08 0.5 0.320006 0.179994) 75 7451 2
(0.174932 0.412534 0.359379 0.0531556) 75 1 2
(0.0200143 0.489993 0.343273 0.14672) 75 7451 2
(0.430525 0.218055 0.284738 0.0666827) 150 150 1
(0.337688 0.331156 0.304865 0.0262916) 150 298 1
(0.375098 0.312451 0.288402 0.0240487) 150 298 1
(0.433122 0.134224 0.283439 0.149215) 150 150 1
(0.0962392 0.45188 0.257917 0.193964) 75 7451 2
(0.153195 0.423403 0.290994 0.132408) 75 1 2
(0.219146 0.0646204 0.325807 0.390427) 0 1 1
(0.0232925 0.488354 0.090051 0.398303) 75 1 2
(0.0282884 0.485856 0.0157207 0.470135) 75 1 2
(0.162941 0.0359109 0.382619 0.41853) 0 1 1
(0.0813936 0.0429071 0.416396 0.459303) 0 1 1
(0.157448 0.0251504 0.396126 0.421276) 0 1 1
(0.123712 0.438144 0.421738 0.0164057) 150 298 1
(0.120664 0.439668 0.341105 0.0985636) 151 152 2
(0.0601985 0.469901 0.276613 0.193288) 151 152 2
(0.131474 0.434263 0.133507 0.300756) 76 149 1
(0.469523 0.255266 0.00997202 0.265238) 76 149 2
(0.894291 0.0405735 0.0122808 0.0528543) 76 149 2
(0.11752 0.44124 0.155735 0.285505) 151 298 1
(0.0788365 0.460582 0.19348 0.267102) 151 152 2
(0.366383 0.316808 0.224699 0.092109) 151 152 2
(0.224829 0.387586 0.0587102 0.328875) 151 152 2
(0.391417 0.304291 0.119162 0.185129) 151 152 2
(0.357067 0.158959 0.321467 0.162508) 76 151 2
(0.0353658 0.482317 0.395424 0.0868933) 151 300 1
(0.533305 0.233348 0.153436 0.0799121) 152 154 2
(0.0615224 0.469239 0.447828 0.0214108) 152 302 1
(0.0114901 0.494255 0.477622 0.0166334) 154 158 2
(0.0213762 0.128898 0.489312 0.360414) 79 157 2
(0.00285883 0.195758 0.302812 0.498571) 81 159 2
(0.334624 0.00062962 0.332059 0.332688) 81 162 1
(0.180565 0.131385 0.278332 0.409717) 83 166 1
(0.16581 0.215724 0.417095 0.201371) 161 172 1
(0.0259837 0.487008 0.27758 0.209428) 163 324 1
(0.173062 0.413469 0.0558325 0.357637) 165 326 1
(0.327293 0.336354 0.12556 0.210794) 92 184 2
(0.446242 0.189884 0.0869947 0.276879) 94 185 2
(0.546188 0.226906 0.0139816 0.212924) 166 182 2
(0.0111747 0.126216 0.494413 0.368196) 168 186 1
(0.347747 0.284856 0.326126 0.0412703) 169 188 1
(0.0202931 0.489853 0.343992 0.145862) 242 333 2
(0.0212782 0.112742 0.489361 0.376619) 243 335 1
(0.154621 0.42269 0.397858 0.0248314) 169 337 2
(0.0571079 0.137206 0.33424 0.471446) 170 336 2
(0.380016 0.151842 0.15815 0.309992) 170 339 1
(0.00441219 0.362599 0.497794 0.135195) 174 346 2
(0.165709 0.417145 0.256534 0.160612) 178 352 1
(0.285945 0.357028 0.0229536 0.334074) 179 208 2
(0.341112 0.235766 0.0936777 0.329444) 105 210 1
(0.0626325 0.468684 0.388666 0.080018) 252 353 2
(0.101239 0.449381 0.105525 0.343855) 253 355 2
(0.308623 0.0279054 0.317783 0.345688) 179 357 1
(0.239678 0.380161 0.0367268 0.343434) 180 359 2
(0.24501 0.0145056 0.362989 0.377495) 181 361 1
(0.173383 0.413308 0.059632 0.353676) 183 365 2
(0.387711 0.306145 0.0765674 0.229577) 258 365 2
(0.0185866 0.490707 0.478809 0.0118976) 184 367 2
(0.166157 0.307409 0.109512 0.416922) 185 369 1
(0.119591 0.0725769 0.367628 0.440204) 186 371 1
(0.235043 0.00716814 0.382479 0.375311) 187 372 2
(0.340723 0.155375 0.329639 0.174263) 188 374 2
(0.555551 0.178047 0.0441775 0.222225) 189 377 1
(4.78591e-08 0.499999 9.99691e-07 0.5) 225 7453 1
(4.78686e-08 0.499999 1.00105e-06 0.5) 225 7453 1
(3.46023e-08 0.5 0.0514839 0.448516) 150 7452 2
(4.78779e-08 0.5 0.153336 0.346664) 225 7453 2
(3.48113e-08 0.5 0.00290142 0.497099) 150 7452 2
(5.35137e-08 0.16602 0.33398 0.5) 75 7451 1
(3.5017e-08 0.5 0.0655953 0.434405) 150 7452 2
(0.108968 0.160948 0.284568 0.445516) 75 7451 1
(0.0430592 0.0653551 0.413115 0.47847) 75 7451 1
(7.04413e-08 0.121879 0.378121 0.5) 75 7451 1
(0.247518 0.0387708 0.33747 0.376241) 75 7451 1
(0.375205 0.0541385 0.258259 0.312397) 75 7451 1
(0.459113 0.0270632 0.24338 0.270444) 75 7451 1
(0.41601 0.291995 0.0761846 0.21581) 75 150 2
(0.225109 0.387445 0.00915585 0.378289) 225 299 2
(0.369325 0.315337 0.147455 0.167882) 75 150 2
(0.107325 0.136363 0.446338 0.309975) 150 150 1
(0.796471 0.101764 0.0888015 0.0129629) 150 298 1
(0.351549 0.324226 0.305086 0.0191399) 150 298 1
(0.134934 0.120147 0.432533 0.312386) 150 150 1
(0.21135 0.394325 0.292155 0.10217) 75 150 2
(0.0849866 0.0558987 0.401608 0.457507) 75 150 1
(0.331298 0.334351 0.228561 0.10579) 75 150 2
(0.198491 0.400754 0.388677 0.0120774) 225 447 1
(0.348009 0.325996 0.246509 0.0794864) 75 150 2
(0.0680428 0.286279 0.179699 0.465979) 75 150 1
(0.202273 0.398864 0.13746 0.261404) 226 447 1
(0.099271 0.450365 0.195626 0.254739) 226 447 1
(0.184766 0.407617 0.221299 0.186318) 226 447 1
(0.25582 0.37209 0.304546 0.0675441) 226 447 1
(0.382858 0.308571 0.0779729 0.230598) 226 447 1
(0.444319 0.277841 0.175976 0.101865) 226 301 2
(0.568486 0.215757 0.160261 0.0554966) 226 301 2
(0.76398 0.11801 0.0460611 0.0719489) 226 447 1
(0.450569 0.271856 0.274715 0.00285916) 226 301 1
(0.776626 0.111687 0.0595737 0.0521131) 226 301 2
(0.221625 0.302579 0.0866085 0.389188) 226 450 1
(0.55569 0.222155 0.0166891 0.205466) 151 152 2
(0.899471 0.0382977 0.0502646 0.0119669) 151 152 1
(0.510069 0.121355 0.244965 0.12361) 151 300 2
(0.277187 0.206311 0.361407 0.155096) 151 300 2
(0.0369056 0.146237 0.481547 0.335311) 151 300 2
(0.210895 0.394552 0.292136 0.102416) 227 303 2
(0.271755 0.364123 0.0344263 0.329696) 153 305 2
(0.157223 0.421388 0.125109 0.29628) 154 307 2
(0.456068 0.0614294 0.271966 0.210536) 154 306 2
(0.2817 0.35915 0.167297 0.191853) 155 309 2
(0.199265 0.0626863 0.337681 0.400367) 156 308 2
(0.207166 0.0504801 0.345937 0.396417) 157 310 2
(0.248646 0.375677 0.15315 0.222527) 158 315 2
(0.253635 0.000207601 0.373182 0.372975) 159 316 2
(0.233344 0.383328 0.0682443 0.315084) 161 321 2
(0.0992327 0.450384 0.0489663 0.401417) 237 469 1
(0.0260314 0.486984 0.26356 0.223425) 164 327 2
(0.791686 0.104157 0.0766956 0.0274615) 239 476 2
(0.359902 0.320049 0.215968 0.104081) 240 478 2
(0.311021 0.275448 0.0690416 0.344489) 242 482 1
(0.15143 0.037868 0.424285 0.386417) 243 483 2
(0.337684 0.331158 0.0289974 0.302161) 245 488 2
(0.367501 0.31625 0.141769 0.174481) 246 487 1
(0.299208 0.350396 0.0584227 0.291973) 247 343 2
(0.0840473 0.457976 0.052085 0.405891) 249 347 2
(0.244655 0.275395 0.102278 0.377673) 250 495 2
(0.135595 0.412813 0.432202 0.0193894) 325 498 1
(0.215529 0.134284 0.257952 0.392236) 251 500 1
(0.176758 0.0733302 0.338291 0.411621) 252 502 1
(0.208944 0.00255209 0.395528 0.392976) 253 503 2
(0.785072 0.107464 0.0991925 0.00827146) 255 359 2
(0.0320432 0.258842 0.483978 0.225137) 330 508 1
(0.410698 0.294651 0.034849 0.259802) 256 510 2
(0.0944186 0.0874153 0.365375 0.452791) 257 509 2
(0.0813531 0.459323 0.124885 0.334438) 333 514 2
(0.468134 0.265933 0.264413 0.00152043) 259 516 2
(0.345038 0.327481 0.285399 0.0420815) 260 518 2
(0.231836 0.384082 0.290905 0.093177) 261 520 2
(4.12849e-08 0.5 0.499993 6.53695e-06) 300 7454 2
(4.13177e-08 0.5 0.499993 6.58923e-06) 300 7454 2
(3.55154e-08 0.5 0.0278274 0.472173) 225 7453 2
(4.1377e-08 0.5 0.161473 0.338527) 300 7454 2
(3.58474e-08 0.5 0.0137521 0.486248) 225 7453 2
(0.0888797 0.45556 0.0368638 0.418696) 150 299 2
(0.0850873 0.457456 0.0478632 0.409593) 225 7453 2
(0.183774 0.408113 0.351809 0.0563039) 225 299 2
(0.203604 0.398198 0.382969 0.015229) 225 447 1
(0.923778 0.0381109 0.0193658 0.0187452) 150 298 1
(0.200541 0.39973 0.380137 0.0195924) 225 447 1
(0.194285 0.402858 0.382832 0.0200256) 225 447 1
(0.221665 0.389167 0.37097 0.0181978) 225 447 1
(0.184358 0.407821 0.399789 0.00803169) 225 447 1
(0.201856 0.399072 0.380044 0.0190279) 225 447 1
(0.201181 0.399409 0.378158 0.0212518) 225 447 1
(0.222197 0.388901 0.371642 0.0172591) 225 447 1
(0.165144 0.417428 0.397022 0.0204055) 225 447 1
(0.79368 0.0522141 0.10316 0.0509458) 225 299 1
(0.622579 0.18871 0.165308 0.0234026) 150 298 1
(0.257473 0.371264 0.34659 0.0246732) 225 447 1
(0.253845 0.373077 0.341682 0.0313957) 225 447 1
(0.0846139 0.457693 0.308737 0.148956) 300 448 2
(0.519354 0.215012 0.240323 0.0253108) 300 448 1
(0.716307 0.0516836 0.141847 0.0901629) 300 448 1
(0.290081 0.35496 0.21405 0.14091) 300 596 1
(0.534118 0.232941 0.0706232 0.162318) 300 596 1
(0.159185 0.420407 0.16205 0.258357) 300 596 1
(0.0416157 0.479192 0.369724 0.109468) 301 596 1
(0.231553 0.384224 0.359203 0.0250203) 301 596 1
(0.299311 0.350344 0.124079 0.226265) 301 596 1
(0.279553 0.360224 0.317352 0.0428717) 301 596 1
(0.414696 0.292652 0.192276 0.100376) 301 596 1
(0.544267 0.227867 0.146072 0.0817949) 301 596 1
(0.686266 0.156867 0.120459 0.036408) 301 450 2
(0.463362 0.268319 0.143237 0.125082) 301 450 2
(0.531526 0.234237 0.195343 0.0388935) 301 599 2
(0.514368 0.110589 0.132227 0.242816) 301 599 1
(0.090246 0.341469 0.113408 0.454877) 302 598 2
(0.182944 0.253501 0.408528 0.155027) 226 449 2
(0.0229962 0.488502 0.0255166 0.462985) 227 452 2
(0.22689 0.20514 0.386555 0.181415) 302 452 1
(0.658045 0.117569 0.0534089 0.170977) 227 452 1
(0.361954 0.258269 0.0607535 0.319023) 228 454 1
(0.326547 0.336726 0.224482 0.112245) 229 456 2
(0.143043 0.0712538 0.428479 0.357225) 229 455 2
(0.236918 0.381541 0.317402 0.0641389) 230 458 2
(0.0763418 0.126969 0.461829 0.33486) 230 457 2
(0.325422 0.180607 0.156682 0.337289) 231 460 1
(0.286686 0.295867 0.0607901 0.356657) 232 462 1
(0.272743 0.0594191 0.363628 0.304209) 233 463 2
(0.00698725 0.161757 0.334749 0.496506) 235 465 2
(0.197858 0.04705 0.354021 0.401071) 236 467 2
(0.281249 0.0448569 0.359376 0.314519) 237 471 2
(0.276905 0.318686 0.361548 0.0428618) 314 476 1
(0.460018 0.142639 0.269991 0.127352) 316 628 2
(0.337293 0.0834831 0.247871 0.331354) 317 631 1
(0.34693 0.0424632 0.284072 0.326535) 318 633 1
(0.278983 0.0178282 0.360509 0.34268) 319 634 2
(0.240369 0.0525605 0.379816 0.327255) 320 636 2
(0.344053 0.0568968 0.271077 0.327973) 321 639 1
(0.347114 0.232649 0.0937938 0.326443) 322 641 1
(0.305649 0.347176 0.213966 0.13321) 323 643 2
(0.260892 0.369554 0.110711 0.258843) 324 645 2
(0.170044 0.0716139 0.343364 0.414978) 325 647 1
(0.253341 0.243483 0.129846 0.373329) 326 649 1
(0.272259 0.36387 0.290574 0.0732966) 327 651 2
(0.294248 0.352876 0.13858 0.214296) 328 653 2
(0.346181 0.32691 0.0145169 0.312393) 329 655 2
(0.380228 0.309886 0.010937 0.298949) 330 657 2
(0.265523 0.367239 0.145115 0.222124) 331 659 2
(0.104621 0.0900938 0.357596 0.447689) 332 658 2
(0.194094 0.0169056 0.386047 0.402953) 333 660 2
(0.288533 0.355733 0.323911 0.0318227) 334 662 1
(0.716981 0.14151 0.0229881 0.118522) 335 667 2
(4.13519e-08 0.499986 1.43611e-05 0.5) 375 7455 1
(4.1385e-08 0.499986 1.44514e-05 0.5) 375 7455 1
(5.16176e-09 0.5 0.0470713 0.452929) 300 7454 2
(4.14046e-08 0.5 0.16728 0.33272) 375 7455 2
(0.546512 0.226744 0.168475 0.0582688) 225 299 2
(0.000159742 0.49992 0.00342265 0.496497) 300 7454 2
(0.590958 0.204521 0.124194 0.0803274) 225 299 2
(1.57687e-06 0.499999 0.0811764 0.418823) 300 7454 2
(0.230755 0.384622 0.187206 0.197416) 300 448 2
(0.352601 0.3237 0.0702307 0.253469) 300 448 2
(0.366642 0.236302 0.316679 0.0803774) 300 448 1
(0.383827 0.19377 0.308086 0.114316) 300 448 1
(0.374955 0.109228 0.312523 0.203295) 300 448 1
(0.352595 0.323702 0.284527 0.0391752) 300 596 1
(0.23244 0.38378 0.258787 0.124992) 300 596 1
(0.192154 0.403923 0.258775 0.145148) 300 596 1
(0.169436 0.415282 0.260932 0.15435) 300 596 1
(0.226468 0.386766 0.277755 0.109011) 300 596 1
(0.156735 0.421632 0.285328 0.136304) 300 596 1
(0.171589 0.414206 0.296367 0.117839) 300 596 1
(0.189267 0.405367 0.28939 0.115977) 300 596 1
(0.202861 0.398569 0.288944 0.109626) 300 596 1
(0.300019 0.00850528 0.34999 0.341485) 300 596 2
(0.702557 0.0473046 0.101417 0.148721) 375 7455 1
(0.764729 0.117636 0.0228198 0.0948158) 375 746 2
(0.860237 0.0610257 0.0698814 0.00885569) 375 745 2
(0.541653 0.229173 0.0591818 0.169992) 375 745 1
(0.542569 0.228715 0.155926 0.0727891) 375 745 1
(0.110255 0.444872 0.357703 0.0871692) 375 746 2
(0.158742 0.395321 0.0253083 0.420629) 376 745 2
(0.0376913 0.228141 0.481154 0.253013) 450 746 1
(0.036046 0.481977 0.474558 0.0074191) 451 748 2
(0.317799 0.263391 0.077709 0.3411) 376 745 2
(0.231037 0.340319 0.0441623 0.384482) 376 745 2
(0.280222 0.359889 0.0407462 0.319143) 376 745 1
(0.113623 0.443188 0.215106 0.228082) 301 599 2
(0.117165 0.441418 0.111814 0.329603) 376 599 2
(0.0241088 0.487946 0.0643726 0.423573) 376 599 2
(0.191719 0.220202 0.183938 0.404141) 301 599 1
(0.090019 0.45499 0.0897388 0.365252) 377 747 1
(0.196101 0.237177 0.164772 0.401949) 302 601 1
(0.0802176 0.308661 0.15123 0.459891) 303 603 1
(0.0652609 0.229291 0.46737 0.238078) 379 605 1
(0.256387 0.371807 0.327168 0.044639) 380 755 1
(0.379637 0.310182 0.0132605 0.296921) 306 609 2
(0.354797 0.322602 0.0242235 0.298378) 307 611 2
(0.022143 0.155887 0.333042 0.488929) 308 610 2
(0.347669 0.0841852 0.24198 0.326165) 308 613 1
(0.266684 0.366658 0.288244 0.0784146) 309 615 2
(0.103289 0.0940961 0.354259 0.448355) 310 614 2
(0.30452 0.0983228 0.249417 0.34774) 310 617 1
(0.29084 0.298637 0.0559427 0.35458) 311 619 1
(0.293457 0.332542 0.0207296 0.353272) 312 621 1
(0.376202 0.0139124 0.311899 0.297987) 313 622 2
(0.114803 0.442598 0.0658462 0.376752) 391 629 2
(0.345105 0.0439313 0.327447 0.283516) 392 779 2
(0.505004 0.16907 0.0784281 0.247498) 393 782 1
(0.439201 0.2804 0.12551 0.15489) 394 784 2
(0.216036 0.0919029 0.300079 0.391982) 395 783 2
(0.222376 0.0610095 0.388812 0.327803) 395 785 2
(0.290031 0.185975 0.16901 0.354984) 396 788 1
(0.28384 0.35808 0.311866 0.0462139) 397 790 2
(0.273328 0.363336 0.201679 0.161657) 398 792 2
(0.342748 0.328626 0.322867 0.00575913) 399 794 2
(0.278373 0.295086 0.0657282 0.360814) 400 796 1
(0.251065 0.239972 0.134495 0.374467) 401 798 1
(0.274553 0.170788 0.191936 0.362723) 402 800 1
(0.274068 0.0426107 0.362966 0.320355) 403 801 2
(0.618502 0.0416516 0.149097 0.190749) 404 804 1
(0.57946 0.21027 0.0896265 0.120643) 405 806 2
(0.218166 0.301281 0.390917 0.0896358) 480 806 1
(0.107808 0.446096 0.0450538 0.401042) 481 808 2
(0.147023 0.426488 0.317584 0.108904) 482 810 2
(0.235973 0.201327 0.382013 0.180686) 482 810 1
(0.048546 0.353064 0.475727 0.122663) 483 812 1
(4.77419e-08 0.499975 2.54543e-05 0.5) 450 7456 1
(4.77582e-08 0.499975 2.47999e-05 0.5) 450 7456 1
(0.399074 0.300463 0.194181 0.106282) 300 7454 2
(4.77739e-08 0.5 0.13779 0.36221) 450 7456 2
(1.02524e-08 0.5 0.0253327 0.474667) 375 7455 2
(0.0710598 0.46447 0.0609751 0.403495) 375 7455 2
(0.176696 0.411652 0.301365 0.110287) 375 597 2
(0.15409 0.422955 0.259876 0.163079) 375 597 2
(0.00046388 0.499768 0.0944592 0.405309) 375 7455 2
(0.397889 0.301056 0.22309 0.0779658) 300 7454 2
(0.33453 0.332735 0.0929498 0.239785) 375 597 2
(0.350157 0.324921 0.0574609 0.267461) 375 597 2
(0.423815 0.288092 0.0735941 0.214498) 375 597 2
(0.402549 0.167702 0.298726 0.131024) 375 597 1
(0.521333 0.239333 0.164169 0.0751647) 375 745 1
(0.449834 0.275083 0.197303 0.07778) 375 745 1
(0.396898 0.301551 0.140657 0.160894) 375 745 1
(0.34626 0.32687 0.125281 0.201589) 375 745 1
(0.322536 0.290273 0.338732 0.0484592) 375 745 2
(0.305935 0.307831 0.347032 0.0392016) 375 745 2
(0.276408 0.361796 0.113613 0.248183) 375 745 1
(0.27362 0.36319 0.0110333 0.352157) 375 745 1
(0.269159 0.30622 0.36542 0.0592005) 375 745 2
(0.44202 0.145901 0.27899 0.13309) 450 746 1
(0.603247 0.198377 0.0758488 0.122528) 450 746 2
(0.500848 0.0839372 0.249576 0.165639) 450 894 2
(0.24237 0.218606 0.378815 0.160209) 450 894 2
(0.487013 0.256493 0.0961171 0.160376) 451 894 1
(0.455514 0.0861385 0.186105 0.272243) 451 894 2
(0.477688 0.0758436 0.185312 0.261156) 451 894 2
(0.95582 0.00606551 0.0160243 0.0220898) 376 748 1
(0.124403 0.226598 0.437799 0.2112) 451 748 1
(0.219567 0.345046 0.390216 0.04517) 451 748 1
(0.275451 0.114419 0.362274 0.247856) 451 748 1
(0.652324 0.173838 0.171529 0.00230951) 451 896 1
(0.0933684 0.453316 0.248312 0.205004) 451 896 1
(0.110669 0.444665 0.43807 0.00659501) 451 896 1
(0.0885987 0.455701 0.427816 0.0278851) 451 896 1
(0.029152 0.485424 0.329209 0.156215) 451 896 1
(0.0992092 0.450395 0.126563 0.323832) 452 896 1
(0.587475 0.206263 0.0456217 0.160641) 452 896 1
(0.721794 0.139103 0.119127 0.0199763) 377 601 2
(0.0444525 0.153522 0.324252 0.477774) 378 749 2
(0.167156 0.416422 0.319711 0.0967112) 379 754 2
(0.223874 0.388063 0.231416 0.156647) 381 758 2
(0.359959 0.32002 0.0296594 0.290361) 382 760 2
(0.301857 0.349072 0.0300322 0.31904) 383 762 2
(0.258793 0.0101474 0.360456 0.370604) 384 761 2
(0.103671 0.065162 0.383002 0.448164) 385 763 2
(0.00850156 0.108588 0.495749 0.387161) 385 765 2
(0.131812 0.0607993 0.434094 0.373295) 386 767 2
(0.242717 0.0127309 0.378642 0.365911) 387 769 2
(0.238904 0.0131923 0.367356 0.380548) 388 772 1
(0.812401 0.0573875 0.0364118 0.0937994) 390 776 1
(0.275145 0.362427 0.00214638 0.360281) 392 780 2
(0.442407 0.00270794 0.278797 0.276089) 468 930 2
(0.364726 0.305719 0.011918 0.317637) 469 933 1
(0.313751 0.343125 0.0567528 0.286372) 470 935 2
(0.223031 0.0475704 0.388485 0.340914) 470 934 2
(0.352959 0.32352 0.294998 0.0285229) 471 937 2
(0.0670419 0.466479 0.346464 0.120015) 546 1085 1
(0.0382737 0.480863 0.458453 0.0224104) 547 1087 1
(0.0318015 0.248246 0.235853 0.484099) 474 940 2
(0.0891021 0.214435 0.455449 0.241014) 474 942 2
(0.00599154 0.231555 0.497004 0.26545) 550 945 1
(0.033311 0.142073 0.483345 0.341271) 551 947 1
(0.105401 0.372523 0.4473 0.0747766) 552 949 1
(0.00659002 0.496705 0.181906 0.314798) 553 1097 1
(0.403343 0.086123 0.212205 0.298328) 478 951 1
(0.419658 0.290171 0.162456 0.127715) 479 953 2
(0.399498 0.223056 0.300251 0.0771951) 554 953 1
(0.264149 0.367925 0.142318 0.225607) 555 955 2
(0.279764 0.360118 0.334425 0.025693) 556 957 2
(0.0605439 0.469728 0.0971754 0.372553) 557 1105 1
(0.232775 0.00656945 0.377043 0.383613) 483 958 2
(4.78904e-08 0.5 0.5 1.28206e-07) 525 7457 2
(4.78981e-08 0.5 0.5 1.2843e-07) 525 7457 2
(1.76301e-08 0.5 0.0369406 0.463059) 450 7456 2
(4.79055e-08 0.5 0.0999985 0.400002) 525 7457 2
(1.8659e-08 0.5 0.00442289 0.495577) 450 7456 2
(0.26081 0.369595 0.0990806 0.270514) 450 746 2
(0.0625341 0.468733 0.179068 0.289665) 375 597 2
(0.30033 0.349835 0.062785 0.28705) 450 746 2
(0.326412 0.336794 0.0347588 0.302035) 450 746 2
(0.267422 0.273979 0.0923102 0.366289) 375 7455 1
(0.201895 0.353078 0.399052 0.0459743) 450 894 2
(0.163259 0.362394 0.418371 0.0559769) 450 894 2
(0.156511 0.347304 0.421745 0.0744407) 450 894 2
(0.15967 0.341466 0.420165 0.0786988) 450 894 2
(0.163725 0.280966 0.418137 0.137172) 450 894 2
(0.177935 0.297147 0.411033 0.113886) 450 894 2
(4.79129e-08 0.5 0.0480336 0.451966) 525 7457 2
(0.390169 0.304916 0.175647 0.129268) 525 895 2
(0.491107 0.134661 0.254446 0.119786) 525 895 1
(0.194004 0.29323 0.402998 0.109768) 450 894 2
(0.193767 0.284888 0.403116 0.118228) 450 894 2
(0.202257 0.32789 0.398871 0.0709814) 450 894 2
(0.241418 0.326723 0.379291 0.0525674) 450 894 2
(0.507247 0.0532745 0.246377 0.193102) 525 895 1
(0.247318 0.366215 0.376341 0.0101262) 525 1043 2
(0.432736 0.0241197 0.283632 0.259513) 525 1043 2
(0.339132 0.0321236 0.298311 0.330434) 525 1044 1
(0.084296 0.457852 0.141231 0.316621) 600 7458 2
(0.134517 0.432742 0.340668 0.0920736) 600 1044 2
(0.382323 0.308839 0.141411 0.167428) 526 897 2
(0.542176 0.228912 0.0357317 0.19318) 526 897 2
(0.0559279 0.420462 0.472036 0.051574) 600 1044 1
(0.91667 0.0200699 0.0416649 0.021595) 526 897 1
(0.319406 0.318855 0.340297 0.0214424) 526 897 1
(0.0227969 0.488602 0.462454 0.0261474) 526 1045 1
(0.213873 0.110099 0.393063 0.282965) 451 896 2
(0.010669 0.494665 0.210002 0.284663) 527 1045 1
(0.00515383 0.497423 0.0992626 0.39816) 527 1045 1
(0.0538406 0.391444 0.47308 0.0816354) 526 1045 2
(0.00528556 0.00864908 0.488708 0.497357) 452 896 2
(0.650685 0.174658 0.0862083 0.0884493) 527 1045 1
(0.724006 0.0445166 0.0934804 0.137997) 452 899 1
(0.221794 0.065518 0.323585 0.389103) 453 898 2
(0.195735 0.402133 0.0045131 0.39762) 456 907 2
(0.10389 0.234756 0.448055 0.213299) 456 906 2
(0.0553669 0.170177 0.472317 0.30214) 457 908 2
(0.0323637 0.14937 0.483818 0.334448) 458 910 2
(0.00210052 0.128505 0.370445 0.49895) 460 912 2
(0.211079 0.00411702 0.390343 0.39446) 461 914 2
(0.209954 0.395023 0.228043 0.166981) 462 919 2
(0.276674 0.0844088 0.277254 0.361663) 463 921 1
(0.212531 0.393734 0.00322962 0.390505) 540 1071 1
(0.444451 0.277774 0.134643 0.143132) 465 925 2
(0.375532 0.312234 0.125308 0.186926) 466 927 2
(0.331096 0.334452 0.0131241 0.321328) 467 929 2
(0.0182646 0.166431 0.490868 0.324436) 467 928 2
(0.519616 0.240192 0.173274 0.0669178) 543 1080 2
(0.397368 0.301316 0.0384137 0.262902) 544 1082 2
(0.232687 0.0396872 0.383656 0.343969) 544 1081 2
(0.318087 0.340956 0.321506 0.0194504) 545 1084 2
(0.19441 0.402795 0.322845 0.0799501) 620 1232 1
(0.252786 0.172991 0.373607 0.200616) 621 1086 1
(0.235947 0.333406 0.382027 0.0486207) 622 1088 1
(0.371132 0.204705 0.109729 0.314434) 548 1090 1
(0.00397667 0.498012 0.138906 0.359106) 624 1238 1
(0.218164 0.390918 0.044813 0.346105) 550 1094 2
(0.363381 0.318309 0.136663 0.181646) 551 1096 2
(0.210523 0.136403 0.394739 0.258336) 626 1096 1
(0.327699 0.33615 0.0691614 0.266989) 627 1098 2
(0.264014 0.367993 0.220344 0.147649) 628 1100 2
(0.26878 0.36561 0.355847 0.00976281) 629 1102 2
(0.142947 0.428527 0.0671145 0.361412) 630 1250 1
(0.118036 0.440982 0.02573 0.415252) 631 1106 2
(0.206091 0.379809 0.396954 0.017145) 632 1108 1
(0.48065 0.259675 0.107795 0.15188) 558 961 2
(4.73414e-08 0.499859 0.000141376 0.5) 600 7458 1
(4.73911e-08 0.499865 0.000134696 0.5) 600 7458 1
(0.0139511 0.493024 0.145639 0.347386) 525 7457 2
(4.74379e-08 0.5 0.0292701 0.47073) 600 7458 2
(0.159698 0.420151 0.247203 0.172948) 525 895 2
(0.0241693 0.487915 0.0990463 0.388869) 450 895 2
(0.214289 0.036899 0.392855 0.355956) 450 894 2
(0.218906 0.356066 0.390547 0.0344816) 525 1043 2
(0.203004 0.398498 0.144943 0.253555) 525 895 2
(0.199168 0.37443 0.400416 0.0259862) 525 1043 2