/*--------------------------------*- C++ -*----------------------------------*\
  =========                 |
  \\      /  F ield         | OpenFOAM: The Open Source CFD Toolbox
   \\    /   O peration     | Website:  https://openfoam.org
    \\  /    A nd           | Version:  12
     \\/     M anipulation  |
\*---------------------------------------------------------------------------*/
FoamFile
{
    format      ascii;
    class       vectorField;
    location    "0.85/lagrangian/cloud";
    object      U;
}
// * * * * * * * * * * * * * * * * * * * * * * * * * * * * * * * * * * * * * //


5669
(
(-8.49708e-12 -2.31584e-05 0)
(-8.03774e-12 -2.31815e-05 0)
(-7.60318e-12 -2.32033e-05 0)
(-7.19208e-12 -2.32238e-05 0)
(-6.80316e-12 -2.32432e-05 0)
(-6.43524e-12 -2.32614e-05 0)
(-6.08717e-12 -2.32785e-05 0)
(-5.7579e-12 -2.32947e-05 0)
(-5.4464e-12 -2.33099e-05 0)
(-5.15172e-12 -2.33242e-05 0)
(-0.000319162 -0.00353947 0)
(-0.000273895 -0.00374033 0)
(-0.000218311 -0.00355256 0)
(-6.266e-05 -0.00305661 0)
(0.000150269 -0.001203 0)
(0.000200567 -0.00100493 0)
(0.00025206 0.00166541 0)
(0.00706656 0.000694197 0)
(-0.00579841 -0.0146616 0)
(0.00486666 -0.00410932 0)
(0.0089581 0.000624811 0)
(0.00103296 -0.0107565 0)
(-0.00637111 -0.00924396 0)
(-0.000812089 -0.0153661 0)
(-0.00208305 -0.0143181 0)
(0.00725062 -0.0235302 0)
(-1.40205e-05 -0.0157601 0)
(0.00195417 -0.022162 0)
(-0.00098804 -0.0357377 0)
(-0.00182156 -0.0301935 0)
(-0.00117132 -0.0299937 0)
(0.000131766 -0.0282348 0)
(-5.16509e-05 -0.0284492 0)
(0.000597492 -0.0294673 0)
(0.000613528 -0.0263224 0)
(0.000251104 -0.0256252 0)
(0.00112476 -0.0213807 0)
(-0.000226827 -0.0256748 0)
(-0.00128773 -0.0268202 0)
(-0.000588531 -0.0263729 0)
(-0.000174062 -0.0256514 0)
(-0.000195439 -0.0299665 0)
(-0.000664162 -0.0311092 0)
(0.00023092 -0.0321446 0)
(-4.94268e-05 -0.0317904 0)
(0.000126894 -0.0274886 0)
(-0.000511066 -0.0266883 0)
(0.000177914 -0.0252383 0)
(-0.000404334 -0.0216097 0)
(0.000652296 -0.026513 0)
(0.000993677 -0.0265522 0)
(0.000251055 -0.0234795 0)
(0.000331936 -0.0222654 0)
(-0.000650444 -0.0157735 0)
(0.00129105 -0.0194594 0)
(-0.000606656 -0.018901 0)
(0.000770324 -0.0279037 0)
(0.000564231 -0.0283678 0)
(4.92623e-06 -0.0244039 0)
(-0.000423509 -0.0248004 0)
(2.06518e-05 -0.0225894 0)
(-0.000483342 -0.0217488 0)
(-0.000532747 -0.0181763 0)
(0.000417339 -0.0164488 0)
(0.00500145 -0.0125189 0)
(0.00154794 -0.00926652 0)
(0.00230655 -0.00939292 0)
(0.000579468 -0.0223246 0)
(0.000442906 -0.022965 0)
(0.000243124 -0.0208837 0)
(-0.00242251 -0.0234628 0)
(0.00327331 -0.0144463 0)
(0.000257444 -0.0302307 0)
(0.000707386 -0.0226312 0)
(-0.000547278 -0.0217522 0)
(3.86421e-11 -2.27235e-05 0)
(3.30489e-11 -2.29333e-05 0)
(1.38805e-05 -1.38831e-05 0)
(1.31133e-05 -1.44465e-05 0)
(-0.00017148 -0.00349831 0)
(-0.000286334 -0.00381097 0)
(-0.000464927 -0.00491535 0)
(-0.000157667 -0.00515762 0)
(2.82546e-11 -2.31053e-05 0)
(0.000137421 -0.00443937 0)
(0.000105767 -0.000770549 0)
(2.41478e-11 -2.32464e-05 0)
(2.06318e-11 -2.33622e-05 0)
(1.76235e-11 -2.34572e-05 0)
(2.19704e-05 -0.00330561 0)
(1.50509e-11 -2.3535e-05 0)
(9.7642e-05 -0.000642245 0)
(0.000489788 -0.0012057 0)
(0.000819021 -0.00413793 0)
(-0.00244025 -0.00990506 0)
(-2.13095e-05 -0.00933949 0)
(-0.00466718 -0.0148495 0)
(-0.00155634 -0.0062222 0)
(0.00831864 -0.0138964 0)
(-0.000208135 -0.0138432 0)
(0.0149528 -0.0125167 0)
(0.000278137 -0.0116501 0)
(-0.00380582 -0.018568 0)
(-0.0024482 -0.0295483 0)
(-0.00106102 -0.0351285 0)
(-7.23097e-05 -0.029947 0)
(0.00323897 -0.0139024 0)
(0.00255397 -0.00867499 0)
(0.000673073 -0.0194411 0)
(-0.00282231 -0.0248583 0)
(-0.00283587 -0.0352349 0)
(0.000412902 -0.0279538 0)
(0.000169597 -0.0279146 0)
(-0.000797728 -0.026872 0)
(0.000498474 -0.0260918 0)
(-0.000258587 -0.0214177 0)
(-0.000147053 -0.0260917 0)
(-0.0017595 -0.0378154 0)
(0.000512905 -0.0361216 0)
(0.00125024 -0.0240082 0)
(7.66116e-05 -0.026186 0)
(-0.0001886 -0.0228787 0)
(-0.000147312 -0.0248804 0)
(-0.000541049 -0.025691 0)
(7.44908e-05 -0.0219635 0)
(-0.000502559 -0.0205696 0)
(-6.11342e-05 -0.0320898 0)
(-0.000382515 -0.0296002 0)
(-0.000911066 -0.0263995 0)
(-0.000389195 -0.0247558 0)
(-6.801e-05 -0.0247516 0)
(-0.000524581 -0.0269036 0)
(-0.000814204 -0.0270951 0)
(5.12175e-05 -0.0236787 0)
(0.00050416 -0.0261265 0)
(0.000263607 -0.023371 0)
(-0.00210912 -0.0190583 0)
(-0.000926309 -0.0266423 0)
(-0.00175264 -0.0273275 0)
(0.0010362 -0.0276582 0)
(0.00167613 -0.0281978 0)
(0.000959336 -0.0275273 0)
(-0.000986714 -0.0217232 0)
(-0.00164693 -0.0282844 0)
(-0.00387929 -0.0256749 0)
(-0.00167837 -0.0216001 0)
(0.0023687 -0.0108759 0)
(-0.000830093 -0.0298617 0)
(-0.0017601 -0.0216172 0)
(-0.000119632 -0.0214432 0)
(2.56212e-12 -2.33447e-05 0)
(2.52429e-12 -2.33463e-05 0)
(-1.72503e-05 -3.03827e-05 0)
(2.48702e-12 -2.33478e-05 0)
(0.000537495 -0.00143965 0)
(0.000767466 -0.00180831 0)
(-1.42798e-05 -3.7733e-05 0)
(-1.20351e-05 -3.52326e-05 0)
(0.00056623 -0.00217988 0)
(-1.19062e-05 -3.68857e-05 0)
(-1.00357e-05 -3.45413e-05 0)
(0.000811193 -0.00231345 0)
(4.13307e-05 -0.000955816 0)
(0.0114881 -0.0126949 0)
(0.00298166 -0.00695026 0)
(0.00302954 -0.00760634 0)
(-0.00728437 -0.00275691 0)
(0.000423272 -0.00150396 0)
(0.00066926 -0.00321252 0)
(-0.00105778 -0.00589449 0)
(-0.000170383 -0.0048178 0)
(-0.000313057 -0.00530152 0)
(-0.00148382 -0.00536058 0)
(-0.00208609 -0.00478239 0)
(-0.00201825 -0.00464603 0)
(0.00117967 -0.010538 0)
(-0.000307563 -0.00553979 0)
(-0.00141071 -0.00309469 0)
(-0.00924331 -0.0130662 0)
(-0.011148 -0.00115999 0)
(-0.0029689 -0.01317 0)
(0.000497014 -0.00750067 0)
(-0.000820196 -0.00889276 0)
(0.000362235 -0.00344964 0)
(-0.00302894 -0.00398457 0)
(-0.00136696 -0.00494026 0)
(0.000443913 -0.00880009 0)
(0.0029395 -0.0107226 0)
(0.00619381 -0.0153128 0)
(-0.00241989 -0.035483 0)
(-0.00445638 -0.0345169 0)
(-0.00383325 -0.0371631 0)
(-0.000898843 -0.0354291 0)
(-0.0010724 -0.0357737 0)
(-0.000534361 -0.0361495 0)
(-0.00227323 -0.0357823 0)
(0.001486 -0.0343348 0)
(3.1869e-05 -0.0364387 0)
(0.000136475 -0.0302589 0)
(-0.000246623 -0.0282229 0)
(-0.000146923 -0.0363957 0)
(0.000397306 -0.0288407 0)
(-0.000317258 -0.0281152 0)
(-0.00196479 -0.0389675 0)
(-4.55738e-05 -0.0357021 0)
(-1.26133e-05 -0.0342231 0)
(0.00108338 -0.0351334 0)
(-0.00063979 -0.0355305 0)
(-0.000926292 -0.037569 0)
(0.00184307 -0.0297934 0)
(-0.000978225 -0.0280297 0)
(-0.000555727 -0.0252943 0)
(0.000355995 -0.0339978 0)
(0.000602189 -0.0337076 0)
(-0.000137789 -0.0319434 0)
(-0.00139687 -0.0330228 0)
(-0.000188105 -0.0372855 0)
(0.000737915 -0.0342886 0)
(-0.000295366 -0.0395108 0)
(0.000193327 -0.0353133 0)
(0.000101582 -0.0392304 0)
(0.00252117 -0.0343129 0)
(0.00187241 -0.0327987 0)
(0.000251141 -0.0339585 0)
(0.000468321 -0.0350075 0)
(4.28779e-12 -2.32966e-05 0)
(4.18078e-12 -2.33012e-05 0)
(-1.68191e-06 -1.68087e-05 0)
(4.07644e-12 -2.33057e-05 0)
(-1.65655e-06 -1.69108e-05 0)
(-6.65988e-05 -2.61184e-05 0)
(-1.63158e-06 -1.70112e-05 0)
(0.000221243 -0.00128364 0)
(-9.20468e-05 -0.000985722 0)
(-5.09175e-05 -3.44611e-05 0)
(0.000987159 -0.00225232 0)
(0.00143237 -0.00297854 0)
(0.00163774 -0.00340257 0)
(0.00141253 -0.00397417 0)
(0.00291657 -0.0022137 0)
(0.00114674 -0.00441448 0)
(-0.00184565 -0.00765584 0)
(0.00282077 -0.0169517 0)
(0.00301666 -0.00984444 0)
(0.00423833 -0.0114532 0)
(0.000552475 -0.00503962 0)
(0.00125451 -0.0107282 0)
(0.000348473 -0.00407101 0)
(0.00403414 -0.00620945 0)
(0.00024772 -0.00417725 0)
(-0.000190715 -0.00702976 0)
(0.00596388 -0.00960769 0)
(0.00533724 -0.00983249 0)
(0.00603635 -0.00652657 0)
(0.00586508 -0.009615 0)
(0.006543 -0.00507439 0)
(0.00188531 -0.0103359 0)
(0.00147543 -0.00894557 0)
(0.0050538 -0.00825426 0)
(0.00309197 -0.00326269 0)
(0.00230614 -0.00602343 0)
(-0.00695969 0.00172527 0)
(-0.00108833 -0.00454431 0)
(-0.0020327 -0.00380613 0)
(-0.00164848 -0.00798103 0)
(-0.0015645 -0.00777479 0)
(0.00134544 -0.0098819 0)
(-0.00820999 -0.0206807 0)
(-0.00350622 -0.0395226 0)
(-0.00349959 -0.0382755 0)
(-0.00375881 -0.0371782 0)
(-0.00300275 -0.0409997 0)
(-0.000997336 -0.0430577 0)
(-0.000352607 -0.0455913 0)
(-0.000884508 -0.0459368 0)
(-0.000758794 -0.0439093 0)
(-0.00181016 -0.0431535 0)
(-0.00156882 -0.043708 0)
(-0.000390564 -0.0409793 0)
(0.000404834 -0.0449628 0)
(0.000709176 -0.0441339 0)
(-0.00114245 -0.0399364 0)
(-0.000192153 -0.0372771 0)
(-0.00043542 -0.0412052 0)
(-0.00282754 -0.0407204 0)
(-0.0012887 -0.0397799 0)
(-0.000686931 -0.0382102 0)
(-0.000271437 -0.0404192 0)
(0.000426064 -0.039 0)
(0.000112167 -0.0415141 0)
(0.000268367 -0.0386618 0)
(9.17573e-05 -0.0405436 0)
(-0.00351239 -0.0381499 0)
(-0.00177247 -0.0391164 0)
(-0.000206812 -0.0404656 0)
(0.000327376 -0.0402481 0)
(0.000541933 -0.0381292 0)
(0.00213185 -0.0420399 0)
(0.00191707 -0.0427136 0)
(0.00166745 -0.0408666 0)
(5.52964e-10 -1.97787e-05 0)
(1.08245e-09 -1.97945e-05 0)
(2.19784e-06 -1.72185e-05 0)
(1.72745e-09 -1.98247e-05 0)
(2.14249e-06 -1.7382e-05 0)
(0.0045683 -0.0023546 0)
(-0.000730049 -0.000979815 0)
(-0.00127272 -0.0020048 0)
(0.00471852 -0.00579465 0)
(0.00328523 -0.0196165 0)
(0.00546225 -0.0046107 0)
(0.00525317 -0.00429087 0)
(0.00479971 -0.00483142 0)
(0.00399432 -0.00979091 0)
(0.00446505 -0.00342603 0)
(0.00486639 -0.00392055 0)
(0.00489947 -0.00369271 0)
(0.00437449 -0.00220149 0)
(0.00867861 -0.00302642 0)
(0.00330916 -0.0119129 0)
(0.00556034 -0.00274141 0)
(0.00567655 -0.00395431 0)
(0.000546058 -0.00365294 0)
(0.000851064 -0.00779195 0)
(0.000891599 -0.0090517 0)
(0.00160612 -0.00636639 0)
(0.00111993 -0.0061636 0)
(0.00137798 -0.00618023 0)
(0.00272412 0.003732 0)
(0.00309036 -0.00100392 0)
(0.00330429 0.00134594 0)
(0.00313061 -0.00539208 0)
(0.00241256 -0.00436367 0)
(0.00340072 -0.00487504 0)
(0.0297232 -0.00476747 0)
(-0.00167685 -0.00684564 0)
(0.007689 0.00334458 0)
(0.00721408 -0.00397571 0)
(-0.00272035 -0.0132886 0)
(-0.00043229 0.00528234 0)
(0.00424044 0.00788449 0)
(-0.00164332 -0.0289567 0)
(0.000170934 -0.0300852 0)
(-0.00186377 -0.0415552 0)
(-0.0018144 -0.0408893 0)
(-0.00161523 -0.0384028 0)
(-0.00182443 -0.0378754 0)
(-0.000669589 -0.0391813 0)
(-1.62219e-05 -0.0402088 0)
(-0.000313691 -0.0421646 0)
(-0.000137176 -0.0436384 0)
(0.000112117 -0.0427867 0)
(-4.70588e-05 -0.0443339 0)
(-0.00133875 -0.0424287 0)
(-0.000545505 -0.0428275 0)
(-0.00137404 -0.0412664 0)
(-0.000528744 -0.0407629 0)
(-0.000322818 -0.0414066 0)
(-0.00117635 -0.0408975 0)
(-0.00160233 -0.0392187 0)
(-0.000349533 -0.0389246 0)
(-5.84574e-05 -0.0398415 0)
(-0.000156989 -0.0411253 0)
(0.000462351 -0.0414052 0)
(0.000798112 -0.0394521 0)
(-0.000272743 -0.0409729 0)
(-0.000103058 -0.0422914 0)
(0.000490124 -0.0427514 0)
(0.000717268 -0.0427586 0)
(-4.76579e-05 -0.0387982 0)
(-0.00162685 -0.039047 0)
(-0.000745461 -0.0387617 0)
(0.000197873 -0.0345719 0)
(0.00133479 -0.0406436 0)
(0.00123649 -0.0372039 0)
(-1.68328e-11 -1.98152e-05 0)
(-2.46758e-11 -1.98311e-05 0)
(9.06279e-05 -1.33121e-06 0)
(3.23646e-11 -1.98397e-05 0)
(0.00264129 -0.00456261 0)
(0.000456795 -0.000832828 0)
(0.00278271 -0.00515987 0)
(0.000319689 -6.99739e-05 0)
(0.0011891 -0.00255026 0)
(0.00124531 -0.00521519 0)
(0.00149805 -0.00647424 0)
(0.00153442 -0.00677453 0)
(0.00279953 -0.0047448 0)
(0.00252464 -0.00478556 0)
(0.00228148 -0.00434225 0)
(0.00231482 -0.00394863 0)
(0.00228161 -0.00358227 0)
(0.00264136 -0.00368625 0)
(0.00267157 -0.00350674 0)
(0.00283601 -0.00362575 0)
(0.00287796 -0.00357863 0)
(0.00295281 -0.00347117 0)
(0.00187516 -0.00517812 0)
(-0.00226287 -0.0118606 0)
(-0.001223 -0.00802249 0)
(-0.00188798 -0.00899863 0)
(-0.00244132 -0.00836905 0)
(-0.00229589 -0.00801039 0)
(0.00147543 -0.00481496 0)
(0.014355 -0.00265775 0)
(0.00398867 -0.00678643 0)
(0.00909856 -0.00613787 0)
(0.0076354 -0.0050703 0)
(0.0144924 -0.00429557 0)
(0.0178863 -0.00701761 0)
(0.00616692 -0.00046592 0)
(0.004343 -0.0111687 0)
(0.00502358 -0.00601814 0)
(0.00134866 -0.00755419 0)
(0.00197973 -0.00591848 0)
(-0.00360005 -0.0298789 0)
(-0.00481835 -0.04183 0)
(-0.00275532 -0.0378307 0)
(-0.00225502 -0.0381454 0)
(-0.00192354 -0.0370412 0)
(-0.00102988 -0.0363487 0)
(-0.000878278 -0.0360347 0)
(0.000468096 -0.0332418 0)
(-0.000624944 -0.0344847 0)
(-0.000380399 -0.0341661 0)
(0.000620401 -0.0338163 0)
(-0.000759442 -0.0360243 0)
(0.000600466 -0.0378793 0)
(-0.000257238 -0.0410474 0)
(-0.000284126 -0.0415299 0)
(-0.000887233 -0.0376771 0)
(0.000157903 -0.0384153 0)
(-0.000521843 -0.0405757 0)
(-0.000625821 -0.0397655 0)
(-0.000938187 -0.0370235 0)
(-0.000590472 -0.038708 0)
(-0.000652535 -0.0401109 0)
(-0.000200582 -0.04032 0)
(-0.000151772 -0.0408404 0)
(0.000547456 -0.0388244 0)
(0.000556634 -0.0395554 0)
(0.000454907 -0.038724 0)
(-0.00129148 -0.0380932 0)
(0.000240523 -0.0355414 0)
(-0.000569306 -0.0367367 0)
(-0.000894945 -0.0373442 0)
(-0.000887991 -0.0368236 0)
(-0.00153491 -0.0346165 0)
(-0.00125406 -0.034592 0)
(-0.00167692 -0.0335798 0)
(1.5829e-05 -2.3262e-05 0)
(1.53313e-05 -2.32695e-05 0)
(0.000637446 -0.00152169 0)
(1.48494e-05 -2.32767e-05 0)
(0.000162681 -4.86988e-06 0)
(0.000297246 -0.00221129 0)
(7.53809e-05 -0.00381548 0)
(-9.73525e-06 -0.00401338 0)
(0.00107045 -0.000666144 0)
(0.000465697 -0.00171746 0)
(-0.000837241 -0.00734606 0)
(-0.000927892 -0.00787266 0)
(-0.000909958 -0.00852674 0)
(-0.00142893 -0.00942212 0)
(-0.00150001 -0.00785943 0)
(-0.00133818 -0.00748707 0)
(-0.00114533 -0.0072258 0)
(-0.000959994 -0.00706281 0)
(0.000308623 -0.00676442 0)
(0.000637349 -0.00665804 0)
(-0.000140591 -0.0067693 0)
(6.55986e-05 -0.0067623 0)
(0.00132895 -0.00656343 0)
(0.00222855 -0.00447974 0)
(0.000849878 -0.00385869 0)
(0.000124226 -0.00408318 0)
(0.000578997 -0.00329908 0)
(-0.00175452 -0.00625004 0)
(0.00272527 -0.00563722 0)
(0.00295554 -0.00392113 0)
(-0.00292335 -0.0115765 0)
(-0.0006949 0.000535975 0)
(0.000353984 -0.00448257 0)
(0.000456606 -0.00339139 0)
(0.00218078 -0.00565867 0)
(-0.00202608 -0.00361581 0)
(-0.00182527 -0.00573628 0)
(-0.00213223 -0.00634196 0)
(-0.00276853 9.47353e-06 0)
(-0.00444131 -0.00508835 0)
(-0.00527599 -0.00733968 0)
(-0.0183458 -0.0143691 0)
(-0.00225169 -0.041088 0)
(-0.00424153 -0.0392528 0)
(-0.00326265 -0.0386687 0)
(-0.00195826 -0.039324 0)
(-0.00126601 -0.039245 0)
(-0.00083899 -0.0376076 0)
(-0.000684643 -0.036507 0)
(0.00110696 -0.0358109 0)
(0.000638606 -0.036365 0)
(1.60089e-05 -0.0363819 0)
(-0.000245158 -0.0384025 0)
(-0.000905976 -0.0400168 0)
(0.000249812 -0.0385683 0)
(-0.000894424 -0.0336285 0)
(-0.00062105 -0.0357363 0)
(-0.000106557 -0.0347869 0)
(-0.00107959 -0.0336788 0)
(-0.000613338 -0.0345443 0)
(-6.1229e-05 -0.0351966 0)
(-0.000712962 -0.0356692 0)
(-9.50121e-05 -0.0370777 0)
(-7.58576e-06 -0.0365241 0)
(-3.25357e-05 -0.0333097 0)
(-0.00102976 -0.0333018 0)
(0.000664896 -0.0348267 0)
(0.00125369 -0.0360892 0)
(5.14602e-06 -0.0364367 0)
(-0.000501369 -0.0366774 0)
(0.00037993 -0.0376703 0)
(0.000154872 -0.0384068 0)
(-3.23623e-05 -0.0398467 0)
(-0.000488018 -0.0406149 0)
(-0.00190273 -0.039966 0)
(8.1464e-12 -2.33084e-05 0)
(7.96322e-12 -2.33121e-05 0)
(2.77919e-05 -8.45215e-06 0)
(7.78415e-12 -2.33158e-05 0)
(2.69828e-05 -8.95933e-06 0)
(0.000461067 -0.00169958 0)
(0.00126181 -0.00298849 0)
(0.000425517 -0.00178123 0)
(0.000285238 -0.00176685 0)
(0.000760612 -0.00280456 0)
(0.000473464 -0.00260366 0)
(0.000630994 -0.00375206 0)
(0.000770822 -0.00436225 0)
(0.000824296 -0.00513438 0)
(0.00106884 -0.00599246 0)
(0.000953206 -0.00604676 0)
(7.6091e-12 -2.33193e-05 0)
(0.000710836 -0.00507721 0)
(0.00367979 -0.0021001 0)
(0.000927348 -0.00609997 0)
(0.000989354 -0.00600133 0)
(0.000773912 -0.00610148 0)
(0.000639929 -0.00633882 0)
(0.00423873 -0.00222239 0)
(0.00484481 -0.00782006 0)
(0.00546322 -0.00911426 0)
(0.00158373 -0.00761842 0)
(0.000659897 -0.00229847 0)
(0.00110939 -0.00316835 0)
(0.00187563 -0.00194129 0)
(0.000782017 0.000102553 0)
(0.00263647 -0.00605521 0)
(0.00119936 -0.00346288 0)
(0.00151511 0.000169885 0)
(-0.00152958 0.00157399 0)
(-0.00143904 -0.0027249 0)
(-0.00226967 -0.00379233 0)
(-0.00191648 0.000323875 0)
(0.000334165 -0.005194 0)
(-0.00199266 -0.00187188 0)
(-0.00424365 -0.00270312 0)
(-0.00951316 -0.0200191 0)
(0.000606913 -0.0396392 0)
(-0.00485556 -0.0398687 0)
(-0.00347605 -0.0392032 0)
(-0.00211144 -0.0402513 0)
(-0.00122532 -0.038175 0)
(-0.00043315 -0.0367798 0)
(0.000223998 -0.0368031 0)
(1.36843e-05 -0.0369101 0)
(-0.000203144 -0.0366802 0)
(0.0006164 -0.0363365 0)
(0.000698967 -0.036609 0)
(3.86735e-05 -0.036686 0)
(6.664e-05 -0.0371568 0)
(0.000344571 -0.0359385 0)
(0.0006559 -0.0339261 0)
(0.000195682 -0.032663 0)
(-0.000612743 -0.0326236 0)
(-0.000822086 -0.0335257 0)
(5.0354e-05 -0.0333093 0)
(0.000391777 -0.0345274 0)
(0.000801449 -0.03546 0)
(0.000170216 -0.0353594 0)
(-0.00104349 -0.0369661 0)
(-0.00108036 -0.0353353 0)
(0.000284612 -0.0373633 0)
(-0.000262723 -0.0397161 0)
(5.82292e-05 -0.0400485 0)
(7.00116e-05 -0.0427326 0)
(-0.000148478 -0.0439813 0)
(4.11484e-05 -0.0446198 0)
(0.000204781 -0.041792 0)
(0.000960171 -0.0434583 0)
(-0.00203628 -0.0430219 0)
(2.87666e-05 -2.31607e-05 0)
(2.73391e-05 -2.31807e-05 0)
(-0.000131894 -0.00273365 0)
(2.59832e-05 -2.31995e-05 0)
(-0.00216387 -0.00276701 0)
(0.00156333 -0.000731914 0)
(0.00219305 -0.00545261 0)
(0.00142321 -0.00645458 0)
(-0.00259985 -0.00291724 0)
(0.00208804 -0.00608847 0)
(0.00177108 -0.0058345 0)
(0.000262079 -0.000943577 0)
(7.27857e-05 -0.000987615 0)
(-0.000275858 -0.000932502 0)
(-0.000605754 -0.000829079 0)
(0.00555062 -0.000809644 0)
(2.46954e-05 -2.32171e-05 0)
(2.3472e-05 -2.32337e-05 0)
(2.23098e-05 -2.32495e-05 0)
(2.12057e-05 -2.32643e-05 0)
(2.01568e-05 -2.32784e-05 0)
(1.91601e-05 -2.32917e-05 0)
(0.000320324 -0.00212534 0)
(0.00580408 -0.000772937 0)
(0.000311468 -0.00456548 0)
(0.000340965 -0.00605796 0)
(0.000958994 -0.00243852 0)
(0.0004834 -0.0078237 0)
(4.25344e-05 -0.00338645 0)
(-0.00118083 -0.00256756 0)
(-0.0018158 0.0031841 0)
(-0.00194103 -8.82154e-05 0)
(-0.00201056 0.00324001 0)
(-0.00263688 -0.00914524 0)
(-2.96312e-05 -0.00173652 0)
(-0.0017679 -0.00483126 0)
(0.000615074 -0.0109925 0)
(-0.00257299 -0.00455323 0)
(-0.00263107 -0.00442998 0)
(0.00205832 -0.00115647 0)
(-0.00230744 -0.00275414 0)
(-0.0123074 -0.00585495 0)
(-0.00355956 -0.0387165 0)
(-0.00395318 -0.0392283 0)
(-0.00259231 -0.0397787 0)
(-0.0021649 -0.0373463 0)
(-0.00056301 -0.0368371 0)
(-0.000120404 -0.0365005 0)
(-0.000151579 -0.034701 0)
(0.000631607 -0.034394 0)
(-0.0003374 -0.0334687 0)
(-0.00133459 -0.0289401 0)
(-0.000599379 -0.0336113 0)
(0.000716734 -0.0303503 0)
(0.000187381 -0.0314375 0)
(0.000742021 -0.0323352 0)
(0.000148984 -0.0330897 0)
(1.80238e-05 -0.0332725 0)
(-0.00034017 -0.0332697 0)
(-0.00110889 -0.0336124 0)
(0.000310698 -0.0346705 0)
(0.000493882 -0.0357313 0)
(-0.000387639 -0.0370859 0)
(0.000337 -0.040904 0)
(-0.000104841 -0.0418594 0)
(-0.000333276 -0.0427511 0)
(-0.000342616 -0.0393024 0)
(0.000346098 -0.042106 0)
(9.98395e-05 -0.0447609 0)
(0.00111291 -0.0451714 0)
(-0.000175036 -0.0454198 0)
(0.000177168 -0.0428054 0)
(4.92081e-05 -0.0447707 0)
(-0.00028962 -0.043437 0)
(5.7592e-06 -0.044121 0)
(1.94955e-11 -2.32329e-05 0)
(1.87422e-11 -2.32442e-05 0)
(0.000225944 -1.88539e-05 0)
(1.8018e-11 -2.32551e-05 0)
(0.000265684 -9.2379e-05 0)
(5.99748e-06 -2.97887e-06 0)
(0.000362843 -0.00843838 0)
(0.000821254 -0.00123301 0)
(0.000659945 -0.0078315 0)
(0.000513058 -0.006677 0)
(0.0010399 -0.00645749 0)
(0.00140897 -0.000994517 0)
(0.00077841 -0.0059708 0)
(-3.22925e-05 -0.00406306 0)
(1.73218e-11 -2.32655e-05 0)
(-0.000529742 -0.00188277 0)
(-0.000306776 -0.00169157 0)
(0.000189043 -0.00155782 0)
(-0.000802962 -0.00208511 0)
(0.000307174 -0.00229059 0)
(0.00128517 -0.00450575 0)
(0.00442771 -0.00542259 0)
(0.00365588 -0.00474992 0)
(0.00299822 -0.00408763 0)
(-0.000752608 -0.00295787 0)
(-0.000777377 -0.00302848 0)
(-0.000611904 -0.00220441 0)
(-0.00160201 -0.0055787 0)
(-5.18772e-05 -0.00440548 0)
(-0.000744201 -0.00443148 0)
(-5.69203e-05 -0.00484009 0)
(-0.000709869 0.000885952 0)
(-0.00190559 -0.0020751 0)
(-0.00177032 -0.00438158 0)
(-0.00264511 -0.00489115 0)
(-0.00676846 -0.00395585 0)
(-0.00250813 -0.00448114 0)
(-0.00215337 -0.00238256 0)
(-0.00258388 -0.00196285 0)
(-0.00217088 -0.00261167 0)
(-0.00432772 -0.00368346 0)
(-0.0048589 -0.00684054 0)
(-0.00510185 -0.031545 0)
(-0.00427368 -0.0384635 0)
(-0.00519324 -0.0388548 0)
(-0.00349163 -0.0358342 0)
(-0.00559788 -0.0315158 0)
(-0.00412122 -0.0326747 0)
(-0.0023862 -0.0336043 0)
(-0.000282926 -0.0353565 0)
(0.000582251 -0.0343326 0)
(0.000405496 -0.0340323 0)
(-0.00114585 -0.0305872 0)
(-0.000571548 -0.0348727 0)
(-0.000484597 -0.0422156 0)
(0.00102035 -0.0397071 0)
(0.0011607 -0.0390961 0)
(0.000264722 -0.0399548 0)
(0.000515429 -0.0399937 0)
(0.0011315 -0.0416856 0)
(-0.000914849 -0.0411004 0)
(0.000252323 -0.0393877 0)
(0.00105996 -0.0413327 0)
(0.00166872 -0.0448941 0)
(0.00160766 -0.0450322 0)
(0.0016477 -0.0445343 0)
(0.00255604 -0.0451379 0)
(0.00158388 -0.0425489 0)
(0.00108498 -0.0462082 0)
(0.000478666 -0.045215 0)
(0.000751133 -0.044916 0)
(-8.90922e-06 -0.0451293 0)
(-2.83279e-05 -0.0453288 0)
(0.000777425 -0.0454836 0)
(-9.10098e-05 -0.044811 0)
(1.25527e-11 -2.32325e-05 0)
(1.2069e-11 -2.32439e-05 0)
(-0.000958759 -0.000912874 0)
(1.16039e-11 -2.32547e-05 0)
(0.000638422 -0.00151902 0)
(0.00284392 -0.00363828 0)
(7.33221e-05 -0.00354755 0)
(0.000987528 -0.00180855 0)
(-0.001688 -0.0022457 0)
(-0.00162497 -0.00213048 0)
(0.000897785 -0.0017978 0)
(0.000219239 -0.00166052 0)
(0.0018256 -0.0049926 0)
(1.11566e-11 -2.32652e-05 0)
(1.07266e-11 -2.32752e-05 0)
(0.00159184 -0.00426465 0)
(0.00144283 -0.00368808 0)
(0.00416099 -0.00560818 0)
(0.00392688 -0.00530643 0)
(0.00357941 -0.00506526 0)
(0.00349528 -0.00491395 0)
(0.00334259 -0.00492706 0)
(0.00326863 -0.0048423 0)
(0.00171503 -0.00328916 0)
(0.00162245 -0.00313618 0)
(0.00293006 -0.0060527 0)
(-0.00259227 -0.00341096 0)
(0.000127451 -0.00425919 0)
(-0.000857327 -0.00654506 0)
(-0.00406057 -0.0042948 0)
(-0.00333716 -0.00288396 0)
(-0.00181334 -8.62361e-05 0)
(-0.00424238 -0.00508704 0)
(-0.00165142 -0.00164206 0)
(-0.00197562 -0.00427498 0)
(-0.00209276 0.000950423 0)
(-0.00135498 -0.00221596 0)
(0.00165293 -0.00346388 0)
(0.00177589 -0.00269795 0)
(-0.000669713 -0.0075513 0)
(-0.00244086 -0.0146541 0)
(0.000329846 -0.0370629 0)
(-0.00115923 -0.0394976 0)
(-0.00396479 -0.0376522 0)
(-0.00441701 -0.0357544 0)
(-0.00605619 -0.0337851 0)
(-0.00636563 -0.032207 0)
(-0.00587899 -0.0334121 0)
(-0.00579259 -0.0379452 0)
(-0.00389878 -0.0382074 0)
(-0.00205192 -0.0395332 0)
(-0.00089372 -0.0439931 0)
(-0.00140113 -0.0437057 0)
(-0.000307658 -0.0455871 0)
(-0.00105518 -0.048946 0)
(-0.000882 -0.0470388 0)
(-0.000394 -0.0460146 0)
(-0.000585948 -0.0475363 0)
(-0.000668813 -0.0474711 0)
(0.000233478 -0.0449919 0)
(3.57359e-05 -0.0464029 0)
(0.000269681 -0.0460908 0)
(0.000976981 -0.0489866 0)
(0.00171103 -0.0448985 0)
(0.00113759 -0.0452947 0)
(0.00236361 -0.0464198 0)
(0.00363426 -0.047815 0)
(0.00213292 -0.0453082 0)
(0.000901942 -0.0478946 0)
(0.000289962 -0.048179 0)
(3.81222e-05 -0.0462024 0)
(-2.92841e-05 -0.0450789 0)
(-0.000133711 -0.0442351 0)
(-0.000153407 -0.0436204 0)
(-0.000212172 -0.0435432 0)
(-2.00185e-12 -2.32966e-05 0)
(-1.9517e-12 -2.33012e-05 0)
(-0.000245544 -0.000728351 0)
(-1.90279e-12 -2.33057e-05 0)
(0.000213743 -0.00201626 0)
(-1.86905e-05 -0.00172645 0)
(0.00196421 -0.00381209 0)
(0.00183889 -0.00358393 0)
(0.00270281 -0.00391261 0)
(0.00273445 -0.00413656 0)
(0.000818755 -0.00181476 0)
(-7.38611e-05 -0.000709232 0)
(0.00224146 -0.00296138 0)
(0.000635211 -0.00349672 0)
(-0.00160098 -0.00219569 0)
(-0.00176998 -0.00186273 0)
(0.000952352 -0.00206394 0)
(0.00149772 -0.00173115 0)
(7.33452e-05 -0.00247271 0)
(0.000267592 -0.00203232 0)
(0.000378426 -0.00166916 0)
(0.000330151 -0.00126926 0)
(0.000620975 -0.0041312 0)
(0.000662104 -0.0021014 0)
(0.000693604 -0.000957395 0)
(0.000635956 -0.00562601 0)
(0.00121833 -0.00404538 0)
(0.000943082 -0.00365993 0)
(-0.00194821 -0.0025776 0)
(-0.0021729 -0.00713208 0)
(-0.000969811 0.00233838 0)
(-0.0011496 -0.00116051 0)
(-0.00201448 -0.000299078 0)
(-0.0022399 -0.0032404 0)
(-0.00201012 -0.00561293 0)
(-0.00161015 -0.00625085 0)
(0.000938638 -0.00471057 0)
(-0.000194612 -0.00828753 0)
(-0.000253319 -0.00583998 0)
(0.00182359 -0.0140466 0)
(-0.00571977 -0.0134288 0)
(-0.00162467 -0.0164368 0)
(-0.00259907 -0.0246344 0)
(0.00335614 -0.035572 0)
(-0.00199772 -0.0378635 0)
(-0.00339924 -0.0374858 0)
(-0.0045072 -0.0395939 0)
(-0.00561119 -0.0415398 0)
(-0.00386514 -0.043362 0)
(-0.00272896 -0.0433697 0)
(-0.00066163 -0.0446508 0)
(4.19942e-05 -0.0448978 0)
(-0.000944769 -0.0468758 0)
(-0.00126508 -0.0484471 0)
(-0.00105666 -0.0467365 0)
(-5.83038e-05 -0.045453 0)
(-0.000319754 -0.0471684 0)
(-0.000699595 -0.0481879 0)
(-0.00137967 -0.0463364 0)
(-0.000329082 -0.0488118 0)
(0.00023617 -0.049182 0)
(-0.00031499 -0.0483379 0)
(0.000579155 -0.0492642 0)
(0.00228519 -0.0477835 0)
(-0.00107393 -0.0474236 0)
(0.000637064 -0.0472251 0)
(-0.000170852 -0.0428464 0)
(5.36043e-05 -0.0436035 0)
(0.000195039 -0.0447028 0)
(1.13753e-05 -0.0452176 0)
(-0.000269138 -0.0448718 0)
(-5.7361e-06 -0.0439284 0)
(0.000109501 -0.0434785 0)
(-3.64631e-05 -0.0429397 0)
(-0.000178674 -0.0423963 0)
(6.60102e-12 -2.32684e-05 0)
(6.39648e-12 -2.32756e-05 0)
(0.00311616 -0.00340936 0)
(6.19827e-12 -2.32825e-05 0)
(0.000156106 -0.00186578 0)
(0.000146596 -0.00187021 0)
(0.000169148 -0.000891847 0)
(0.00366243 -0.00262517 0)
(0.000534046 -0.000524171 0)
(0.000427371 -0.00221127 0)
(0.000468287 -0.000317123 0)
(0.000954787 -0.000233818 0)
(0.000441421 -0.00365199 0)
(7.96304e-05 -0.00355439 0)
(0.00045378 -0.00308053 0)
(0.000450214 -0.00334672 0)
(0.00287958 -0.00710978 0)
(0.00229752 -0.00612471 0)
(0.00190612 -0.00515664 0)
(0.00181629 -0.00469502 0)
(0.00169797 -0.00418751 0)
(0.00183081 -0.00415348 0)
(0.00171439 -0.0039982 0)
(-0.00134249 -0.00723437 0)
(-0.00161032 -0.00841373 0)
(0.000660081 -0.00489241 0)
(-0.00294559 -0.00124068 0)
(0.00196633 -0.00766112 0)
(-0.00131541 -0.00720729 0)
(0.000396133 -0.00349063 0)
(-0.00128164 -0.00521229 0)
(-0.000455348 0.000665569 0)
(-0.00163868 -0.00797853 0)
(-0.00174763 -0.00502737 0)
(-0.00100469 -0.00756071 0)
(0.000637146 0.0020081 0)
(0.00133909 -0.00993673 0)
(0.0019012 -0.00849904 0)
(-0.00124075 -0.00613256 0)
(-0.00140451 -0.00994049 0)
(-0.00249927 -0.0141461 0)
(-0.0049168 -0.0100878 0)
(-0.000508544 -0.0119465 0)
(-0.000470236 -0.0263384 0)
(1.15424e-05 -0.0400285 0)
(-0.00327362 -0.0430864 0)
(-0.00166755 -0.0422019 0)
(-0.00118298 -0.042969 0)
(-0.000100492 -0.046453 0)
(-0.000155192 -0.0440218 0)
(-0.000507363 -0.0447095 0)
(-0.00104362 -0.0446234 0)
(-0.00071449 -0.0462625 0)
(-0.000526657 -0.0443655 0)
(-0.000320772 -0.0433217 0)
(-0.000822159 -0.0453351 0)
(-0.000247526 -0.0471327 0)
(-0.000242654 -0.0451909 0)
(-0.000938584 -0.0470045 0)
(-0.000645555 -0.0483917 0)
(0.000111072 -0.0480483 0)
(0.000487278 -0.0486401 0)
(-9.28249e-05 -0.0473942 0)
(0.000255159 -0.0456223 0)
(-0.000642444 -0.041214 0)
(0.000331409 -0.0416303 0)
(3.12697e-06 -0.0411913 0)
(-0.00114521 -0.0408209 0)
(0.000447632 -0.0384897 0)
(-0.000467423 -0.0386953 0)
(2.66208e-05 -0.0378385 0)
(-8.15764e-05 -0.038414 0)
(-0.000901399 -0.0382422 0)
(-0.00140806 -0.0366297 0)
(-0.000218924 -0.0385894 0)
(3.20768e-12 -2.32685e-05 0)
(3.10833e-12 -2.32757e-05 0)
(0.000368301 -0.000930566 0)
(3.01205e-12 -2.32826e-05 0)
(0.000332547 -0.000917586 0)
(0.00205484 -0.00404654 0)
(0.000693161 -0.00233776 0)
(0.000793705 -0.00469327 0)
(0.00204498 -0.00338742 0)
(0.000593957 9.63529e-07 0)
(0.00199789 -0.00393334 0)
(0.00167591 -0.00368559 0)
(0.00063901 -0.0017356 0)
(0.000470639 -0.00229507 0)
(0.00077346 -0.0024972 0)
(0.00115884 -0.00255987 0)
(0.000275382 -0.0034603 0)
(-1.03606e-07 -0.002895 0)
(0.000312823 -0.00256426 0)
(0.000411486 -0.00249238 0)
(0.000113996 -0.00187543 0)
(-0.000385819 -0.00196446 0)
(5.11958e-05 -0.0017286 0)
(-0.000139554 -0.00615494 0)
(-0.000273319 5.14602e-05 0)
(-0.000569019 -0.00500433 0)
(-0.00167543 -0.00522276 0)
(1.30687e-05 -0.00541705 0)
(-0.00183125 -0.00128894 0)
(-0.00276875 -0.00830324 0)
(7.82026e-05 -0.00815244 0)
(-0.00197916 -0.00657394 0)
(-9.09161e-05 -0.000352994 0)
(-0.00386043 -0.00111079 0)
(-0.000430971 -7.79094e-06 0)
(0.000374454 -3.09543e-05 0)
(-0.000499444 -0.00731421 0)
(-0.00224011 -0.00521162 0)
(0.00243676 -0.00229242 0)
(0.00144432 -0.00716062 0)
(0.0065405 -0.011864 0)
(0.00527787 -0.0130386 0)
(0.00373305 -0.0154121 0)
(0.00151017 -0.0197747 0)
(-0.000919907 -0.0386234 0)
(-0.00107164 -0.0415175 0)
(-0.00147949 -0.0411998 0)
(-0.00329591 -0.0409107 0)
(-0.00176181 -0.0424791 0)
(-0.000898808 -0.0419387 0)
(-0.0011332 -0.0427837 0)
(-0.000763128 -0.0428131 0)
(2.21445e-05 -0.0413902 0)
(0.000169311 -0.0407543 0)
(0.000198793 -0.0425564 0)
(-0.000248818 -0.0435727 0)
(-0.0004145 -0.0440421 0)
(-0.000658966 -0.0440759 0)
(-0.000771667 -0.0462611 0)
(9.14285e-05 -0.0460051 0)
(-8.27292e-05 -0.0456127 0)
(0.000105644 -0.0460503 0)
(-0.00115043 -0.0394365 0)
(-0.000232091 -0.0390951 0)
(-9.31734e-06 -0.0393489 0)
(-0.000333922 -0.039425 0)
(0.000703869 -0.0361471 0)
(0.000151212 -0.0338972 0)
(0.000222002 -0.0339208 0)
(0.00119515 -0.0337889 0)
(7.78445e-05 -0.0349303 0)
(-0.00028131 -0.0358726 0)
(-0.000160441 -0.0354381 0)
(-0.000340111 -0.0361043 0)
(-0.0001425 -0.0384062 0)
(1.0776e-12 -2.32684e-05 0)
(1.04421e-12 -2.32756e-05 0)
(-0.000708264 0.000503784 0)
(1.01184e-12 -2.32825e-05 0)
(0.000979739 -0.00285503 0)
(-0.000110619 -0.00168981 0)
(-0.000254136 -0.00610968 0)
(4.34502e-05 -0.00167152 0)
(0.00033039 -0.00235215 0)
(0.000995654 -0.000813864 0)
(-0.000736334 -0.00557615 0)
(0.000358859 -0.00177583 0)
(9.80479e-13 -2.32893e-05 0)
(9.50087e-13 -2.32958e-05 0)
(9.20635e-13 -2.33021e-05 0)
(8.92095e-13 -2.33083e-05 0)
(8.64439e-13 -2.33142e-05 0)
(3.11142e-05 -0.00202882 0)
(-0.000116701 -0.00204555 0)
(-5.78534e-05 -0.00266579 0)
(3.37161e-05 -0.0040153 0)