/*--------------------------------*- C++ -*----------------------------------*\
  =========                 |
  \\      /  F ield         | OpenFOAM: The Open Source CFD Toolbox
   \\    /   O peration     | Website:  https://openfoam.org
    \\  /    A nd           | Version:  12
     \\/     M anipulation  |
\*---------------------------------------------------------------------------*/
FoamFile
{
    format      ascii;
    class       IOPosition;
    location    "0.1/lagrangian/cloud";
    object      positions;
}
// * * * * * * * * * * * * * * * * * * * * * * * * * * * * * * * * * * * * * //

3522
(
(0.230048 0.224699 0.160277 0.384976) 0 15075 1
(0.150712 0.329122 0.424644 0.0955221) 0 0 2
(0.319534 0.340233 0.0505826 0.28965) 1 2 1
(0.0893061 0.455347 0.147692 0.307655) 2 4 1
(0.126665 0.436668 0.375645 0.0610228) 4 6 1
(0.929216 0.0353921 0.0294349 0.00595719) 5 10 1
(0.825331 0.0425561 0.0447783 0.0873344) 6 10 2
(0.402407 0.21385 0.0849468 0.298796) 7 12 2
(0.373743 0.313129 0.268675 0.0444534) 8 14 1
(0.311672 0.344164 0.170391 0.173773) 9 16 1
(0.29821 0.350895 0.212872 0.138023) 10 18 1
(0.594566 0.18775 0.0149667 0.202717) 11 20 2
(0.756458 0.0756508 0.0461203 0.121771) 12 22 2
(0.832468 0.0680141 0.0157518 0.0837659) 13 27 1
(0.836931 0.0815343 0.0456828 0.0358515) 14 29 2
(0.681095 0.00206912 0.157383 0.159452) 15 28 2
(0.448473 0.156143 0.11962 0.275764) 16 30 2
(0.389732 0.267003 0.038131 0.305134) 17 32 2
(0.427321 0.223551 0.0627888 0.28634) 18 34 2
(0.0391154 0.420103 0.0603393 0.480442) 19 36 2
(0.156797 0.421601 0.0732331 0.348368) 19 38 1
(0.0575404 0.47123 0.283596 0.187633) 21 40 1
(0.152963 0.423518 0.273152 0.150366) 22 42 1
(0.511276 0.160128 0.0842344 0.244362) 23 44 2
(0.46069 0.136772 0.132883 0.269655) 24 46 2
(0.109797 0.268916 0.176185 0.445101) 25 48 2
(0.269119 0.214544 0.36544 0.150897) 25 50 2
(0.584551 0.108173 0.207724 0.0995516) 26 52 2
(0.719488 0.140256 0.0560032 0.0842528) 27 54 1
(0.333514 0.333243 0.15381 0.179433) 28 56 1
(0.198939 0.40053 0.138903 0.261627) 29 58 1
(0.272701 0.36365 0.10672 0.25693) 30 60 1
(0.0623695 0.468815 0.408411 0.0604045) 32 62 1
(0.211624 0.362813 0.0313757 0.394188) 33 64 2
(0.106264 0.38899 0.0578785 0.446868) 34 66 2
(0.272011 0.267762 0.096233 0.363995) 35 68 2
(0.0822372 0.336982 0.458881 0.1219) 35 70 2
(0.41965 0.138117 0.290175 0.152058) 36 72 2
(0.526382 0.108292 0.236809 0.128518) 37 74 2
(0.749948 0.00311479 0.125026 0.121911) 38 76 2
(0.822722 0.0285235 0.0886388 0.0601153) 39 78 2
(0.888886 0.0247614 0.0555572 0.0307958) 40 7415 2
(0.68733 0.156335 0.111582 0.0447535) 41 82 1
(0.436556 0.281722 0.116343 0.165379) 42 84 1
(0.212647 0.393676 0.0835121 0.310164) 43 86 1
(0.434855 0.282573 0.218656 0.0639165) 45 88 1
(0.420642 0.289679 0.280121 0.00955824) 46 90 1
(0.224132 0.300805 0.0871295 0.387934) 47 92 2
(0.0440488 0.37093 0.107046 0.477976) 48 94 2
(0.228395 0.385802 0.00496915 0.380833) 48 96 1
(0.198982 0.400509 0.0612537 0.339255) 49 98 1
(0.22548 0.38726 0.167344 0.219916) 51 100 1
(0.506408 0.246796 0.0623024 0.184494) 52 102 1
(0.850405 0.0747975 0.0615031 0.0132945) 53 104 1
(0.866399 0.0668004 0.0013877 0.0654127) 54 109 2
(0.509664 0.173257 0.071911 0.245168) 55 108 2
(0.859781 0.0701095 0.0429601 0.0271494) 56 110 1
(0.46011 0.171899 0.0980456 0.269945) 57 112 2
(0.0938883 0.316228 0.136828 0.453056) 58 114 2
(0.316219 0.308078 0.34189 0.0338121) 58 116 2
(0.0800456 0.459977 0.358631 0.101346) 60 118 1
(0.140734 0.429633 0.017411 0.412222) 60 120 1
(0.0356886 0.360398 0.482156 0.121758) 61 122 2
(0.292614 0.179987 0.173706 0.353693) 63 124 2
(0.209693 0.227342 0.167811 0.395153) 64 126 2
(0.396555 0.185295 0.116428 0.301723) 65 128 2
(0.219771 0.390114 0.374955 0.0151592) 66 130 1
(0.448125 0.275937 0.238289 0.0376485) 67 7442 1
(0.514558 0.242721 0.180309 0.0624123) 68 7443 1
(0.960492 0.0125059 0.019754 0.00724807) 69 7444 2
(0.865102 0.0179988 0.0494502 0.067449) 70 141 1
(0.694984 0.152508 0.0758584 0.0766494) 71 143 2
(0.774824 0.0458963 0.0666917 0.112588) 75 15076 1
(0.914607 0.0291129 0.0426965 0.0135836) 76 3 1
(0.610338 0.194831 0.0132345 0.181596) 77 5 2
(0.498852 0.250574 0.0214225 0.229152) 78 7 2
(0.687624 0.156188 0.0411444 0.115044) 79 155 1
(0.575878 0.112723 0.0993379 0.212061) 80 157 2
(0.736134 0.0762864 0.0556468 0.131933) 81 162 1
(0.8979 0.0401339 0.0109161 0.0510501) 82 164 1
(0.775514 0.062205 0.0500381 0.112243) 83 163 2
(0.597898 0.201051 0.187171 0.0138797) 84 165 1
(0.517423 0.241288 0.117757 0.123531) 85 167 1
(0.672279 0.16386 0.0806417 0.0832188) 86 23 2
(0.784279 0.107861 0.0235034 0.0843572) 87 25 2
(0.768377 0.114751 0.0010603 0.115811) 88 176 1
(0.711516 0.128958 0.0152842 0.144242) 89 178 1
(0.59919 0.154446 0.200405 0.045959) 90 179 2
(0.837796 0.0663151 0.0147871 0.0811022) 91 182 1
(0.667628 0.166186 0.119403 0.0467831) 92 184 2
(0.81066 0.0566905 0.0379797 0.0946702) 93 186 1
(0.752941 0.12353 0.0143235 0.109206) 94 187 1
(0.753834 0.123083 0.0192301 0.103853) 95 189 1
(0.922727 0.0386363 0.0090168 0.0296195) 96 43 2
(0.575159 0.114669 0.0977515 0.212421) 97 191 2
(0.429332 0.0854305 0.199903 0.285334) 98 193 2
(0.453344 0.0899425 0.183386 0.273328) 99 195 2
(0.644739 0.0305004 0.14713 0.17763) 100 197 2
(0.620898 0.108374 0.0811772 0.189551) 101 199 2
(0.80926 0.0953699 0.0582082 0.0371617) 102 55 2
(0.775867 0.112067 0.00235169 0.109715) 103 203 1
(0.783463 0.108268 0.0230597 0.0852088) 104 59 2
(0.749584 0.105594 0.125208 0.0196146) 105 61 1
(0.75901 0.120495 0.067738 0.0527572) 106 63 2
(0.35807 0.267811 0.0531543 0.320965) 107 211 2
(0.407458 0.199535 0.0967358 0.296271) 108 213 2
(0.204033 0.24831 0.149673 0.397984) 109 215 2
(0.21092 0.229294 0.165246 0.39454) 110 217 2
(0.46464 0.131757 0.135923 0.26768) 111 219 2
(0.530661 0.110152 0.124518 0.23467) 112 221 2
(0.32048 0.224899 0.114861 0.33976) 113 223 2
(0.401589 0.245625 0.0535805 0.299206) 114 225 2
(0.75614 0.12193 0.0938576 0.0280725) 115 81 2
(0.667495 0.166253 0.157719 0.00853307) 116 83 2
(0.623865 0.188068 0.144653 0.0434148) 117 85 2
(0.578482 0.210759 0.0234715 0.187287) 118 87 2
(0.597544 0.201228 0.0101584 0.191069) 119 89 2
(0.86803 0.0659848 0.0347029 0.0312819) 120 237 1
(0.711341 0.0236121 0.120717 0.144329) 121 239 2
(0.749735 0.125133 0.0499046 0.075228) 122 244 2
(0.872763 0.0539844 0.0636187 0.00963429) 123 245 2
(0.812856 0.0556553 0.093572 0.0379167) 124 99 1
(0.621087 0.189457 0.117768 0.0716881) 125 101 2
(0.568049 0.215975 0.205691 0.0102841) 126 103 2
(0.00188316 0.442807 0.499058 0.0562517) 126 251 2
(0.244703 0.229063 0.377649 0.148586) 127 253 2
(0.163738 0.266218 0.418131 0.151913) 128 255 2
(0.196103 0.3763 0.0256481 0.401948) 130 257 2
(0.186865 0.206708 0.406567 0.199859) 130 259 2
(0.350798 0.0591261 0.324601 0.265475) 131 261 2
(0.233555 0.237659 0.383222 0.145563) 132 263 2
(0.408061 0.295969 0.0983008 0.197669) 133 265 1
(0.291447 0.354276 0.126523 0.227753) 134 267 1
(0.316482 0.341759 0.12767 0.214089) 135 269 1
(0.344796 0.327602 0.15849 0.169112) 137 271 1
(0.594997 0.202501 0.166811 0.0356903) 138 127 2
(0.710879 0.128934 0.14456 0.0156267) 139 129 1
(0.773518 0.113241 0.0679055 0.0453355) 140 279 1
(0.67901 0.151395 0.160495 0.0091001) 141 133 1
(0.518772 0.240614 0.106202 0.134412) 142 281 1
(0.174052 0.412974 0.046047 0.366927) 142 283 1
(0.0806697 0.363863 0.459665 0.0958021) 143 285 2
(0.19923 0.212751 0.187634 0.400385) 145 287 2
(0.333114 0.333443 0.259838 0.0736051) 150 15077 2
(0.712173 0.143914 0.102383 0.0415306) 151 152 2
(0.679074 0.160463 0.112704 0.0477592) 152 154 2
(0.4204 0.2898 0.086013 0.203787) 153 302 1
(0.220927 0.389536 0.220926 0.168611) 154 304 1
(0.423147 0.228905 0.0595215 0.288426) 155 306 2
(0.303954 0.235583 0.11244 0.348023) 156 308 2
(0.41891 0.136181 0.154364 0.290545) 157 310 2
(0.234603 0.297691 0.0850076 0.382699) 158 312 2
(0.134785 0.4085 0.0241077 0.432608) 159 314 2
(0.177108 0.411446 0.242332 0.169114) 160 316 1
(0.0593434 0.470328 0.227959 0.242369) 161 318 1
(0.0773756 0.461312 0.226789 0.234523) 161 320 1
(0.028174 0.420243 0.485913 0.0656703) 162 322 2
(0.0468085 0.309459 0.167137 0.476596) 164 324 2
(0.18819 0.388219 0.0176855 0.405905) 165 326 2
(0.0865171 0.424044 0.456741 0.032697) 165 328 2
(0.0226281 0.375461 0.488686 0.113225) 166 330 2
(0.638859 0.112982 0.067588 0.18057) 168 332 2
(0.503267 0.248366 0.215268 0.0330981) 169 334 1
(0.239283 0.36855 0.0118082 0.380359) 170 336 2
(0.338835 0.202996 0.127587 0.330583) 171 338 2
(0.131018 0.225076 0.209415 0.434491) 172 340 2
(0.00764589 0.342708 0.496177 0.153469) 172 342 2
(0.0811354 0.385328 0.0741039 0.459432) 174 344 2
(0.153041 0.317045 0.106434 0.423479) 175 346 2
(0.486252 0.249039 0.00783478 0.256874) 176 348 2
(0.411072 0.294464 0.1648 0.129664) 177 350 1
(0.196163 0.401919 0.239728 0.162191) 178 352 1
(0.0605716 0.469714 0.330117 0.139597) 179 354 1
(0.0631971 0.443604 0.0247975 0.468401) 180 356 2
(0.183937 0.287261 0.408031 0.12077) 180 358 2
(0.12256 0.277294 0.161426 0.43872) 182 360 2
(0.179743 0.393346 0.0167821 0.410128) 183 362 2
(0.0653307 0.451475 0.0158597 0.467335) 184 364 2
(0.229019 0.309847 0.0756439 0.385491) 185 366 2
(0.417961 0.222902 0.0681179 0.29102) 186 368 2
(0.483704 0.13221 0.125938 0.258148) 187 370 2
(0.576197 0.149256 0.062646 0.211902) 188 372 2
(0.598239 0.200881 0.0414324 0.159448) 189 374 1
(0.602947 0.198527 0.180524 0.0180023) 190 230 2
(0.491026 0.254487 0.100295 0.154192) 191 378 1
(0.375427 0.312286 0.245648 0.0666384) 192 234 2
(0.506201 0.246899 0.206443 0.0404567) 193 236 2
(0.406699 0.29665 0.0939577 0.202693) 194 384 1
(0.0272792 0.481437 0.00492363 0.48636) 195 386 2
(0.227535 0.282655 0.103578 0.386232) 196 388 2
(0.0556586 0.406998 0.0651729 0.472171) 197 390 2
(0.251512 0.344503 0.374244 0.0297409) 197 392 2
(0.33784 0.269376 0.33108 0.0617035) 198 394 2
(0.197897 0.364635 0.401052 0.0364168) 199 396 2
(0.341009 0.251317 0.329495 0.0781781) 200 398 2
(0.450728 0.201623 0.274636 0.073013) 201 400 2
(0.617559 0.123414 0.191221 0.0678065) 202 402 2
(0.32065 0.295906 0.339675 0.0437692) 203 404 2
(0.0754985 0.462251 0.00172276 0.460528) 204 406 1
(0.3281 0.251907 0.33595 0.0840429) 205 408 2
(0.0158715 0.301587 0.492064 0.190477) 206 410 2
(0.610025 0.00951401 0.185473 0.194988) 208 412 2
(0.631068 0.184466 0.170212 0.0142544) 209 414 1
(0.566015 0.156364 0.060628 0.216992) 210 416 2
(0.0623433 0.468828 0.436147 0.032681) 211 418 1
(0.0749414 0.462529 0.146188 0.316341) 212 420 1
(0.197417 0.401292 0.249998 0.151294) 212 422 1
(0.59421 0.202895 0.174115 0.0287798) 213 424 1
(0.894469 0.00835476 0.0527654 0.0444106) 214 278 1
(0.809127 0.0275151 0.0679215 0.0954365) 215 426 2
(0.775014 0.0332427 0.0792504 0.112493) 216 428 2
(0.852692 0.0736541 0.0324716 0.0411825) 217 284 2
(0.783218 0.0310594 0.108391 0.0773318) 218 286 1
(0.51098 0.24451 0.0279632 0.216547) 219 436 1
(0.0406565 0.479672 0.320663 0.159009) 225 15078 2
(0.332349 0.333825 0.141552 0.192273) 226 447 1
(0.450031 0.274985 0.170751 0.104233) 227 449 1
(0.334804 0.332598 0.204013 0.128585) 228 451 1
(0.126343 0.436828 0.273715 0.163113) 229 453 1
(0.0641194 0.46794 0.402872 0.065068) 230 455 1
(0.202299 0.256281 0.398851 0.142569) 230 457 2
(0.0907178 0.275305 0.454641 0.179336) 231 459 2
(0.0913036 0.34442 0.109929 0.454348) 233 461 2
(0.0758985 0.462051 0.456775 0.00527579) 234 463 1
(0.00143499 0.499283 0.471898 0.0273847) 235 465 1
(0.061205 0.469397 0.0339718 0.435426) 235 467 1
(0.34285 0.328575 0.178301 0.150274) 236 469 1
(0.315913 0.342044 0.0919898 0.250054) 237 471 1
(0.638589 0.0188441 0.180706 0.161861) 238 473 2
(0.626435 0.107232 0.0795498 0.186782) 239 476 1
(0.612557 0.193722 0.0284454 0.165276) 240 477 1
(0.320576 0.339712 0.100869 0.238843) 241 479 1
(0.474196 0.262902 0.0622727 0.200629) 242 481 1
(0.218029 0.390985 0.335699 0.0552865) 244 483 1
(0.00757349 0.496213 0.0400597 0.456154) 244 485 1
(0.465985 0.116521 0.267008 0.150487) 245 487 2
(0.503605 0.0283286 0.219869 0.248198) 246 490 1
(0.271298 0.206533 0.364351 0.157818) 247 491 2
(0.202429 0.385003 0.398785 0.0137821) 248 493 2
(0.320124 0.255112 0.339938 0.0848262) 249 495 2
(0.111403 0.371705 0.444298 0.072593) 250 497 2
(0.290881 0.345872 0.354559 0.00868725) 251 499 2
(0.439055 0.280472 0.141388 0.139085) 252 501 1
(0.473788 0.263106 0.184575 0.0785309) 253 503 1
(0.427356 0.286322 0.0258626 0.260459) 254 505 1
(0.485845 0.158729 0.257077 0.0983486) 255 507 2
(0.060161 0.398792 0.0711272 0.469919) 257 509 2
(0.100329 0.449835 0.374932 0.0749038) 258 511 1
(0.131933 0.434033 0.420146 0.0138875) 259 513 1
(0.183524 0.408238 0.398083 0.0101555) 260 515 1
(0.319331 0.327928 0.0124071 0.340335) 261 517 2
(0.495266 0.112181 0.140186 0.252367) 262 519 2
(0.672945 0.153412 0.0101151 0.163528) 263 521 2
(0.566363 0.216818 0.0375977 0.179221) 264 523 1
(0.488959 0.255521 0.166898 0.0886223) 265 525 1
(0.350609 0.324696 0.236117 0.0885791) 266 527 1
(0.249033 0.375483 0.194932 0.180551) 267 529 1
(0.0137468 0.493127 0.109746 0.38338) 267 531 1
(0.412494 0.28579 0.293753 0.00796282) 268 533 2
(0.144938 0.348405 0.427531 0.079126) 269 535 2
(0.0811996 0.308104 0.4594 0.151296) 270 537 2
(0.203425 0.278069 0.398287 0.120218) 271 539 2
(0.241409 0.246618 0.379295 0.132678) 272 541 2
(0.166686 0.32594 0.416657 0.0907173) 273 543 2
(0.384511 0.307744 0.0199516 0.287793) 274 545 1
(0.291857 0.354072 0.0210877 0.332984) 275 547 1
(0.28265 0.26904 0.358675 0.0896353) 276 549 2
(0.484986 0.257507 0.0454311 0.212076) 277 551 1
(0.314572 0.342714 0.110707 0.232007) 278 553 1
(0.0726008 0.387223 0.4637 0.0764763) 279 555 2
(0.273471 0.329301 0.363264 0.033964) 280 557 2
(0.143283 0.428358 0.151902 0.276456) 281 559 1
(0.484461 0.25777 0.0981803 0.159589) 283 561 1
(0.112901 0.3826 0.0609495 0.44355) 284 563 2
(0.251698 0.174839 0.199312 0.374151) 285 565 2
(0.364679 0.224134 0.0935258 0.31766) 286 567 2
(0.115363 0.442319 0.431483 0.010836) 287 569 1
(0.176529 0.259994 0.411736 0.151742) 287 571 2
(0.400101 0.0735037 0.299949 0.226446) 288 573 2
(0.54097 0.105752 0.229515 0.123763) 289 575 2
(0.945422 0.0244816 0.0272888 0.00280723) 290 577 2
(0.503689 0.248156 0.115564 0.132592) 291 579 1
(0.475633 0.262184 0.172234 0.0899495) 292 581 1
(0.589151 0.205425 0.156088 0.0493363) 293 583 1
(0.500602 0.249699 0.0198201 0.229879) 294 585 1
(0.150376 0.424812 0.226822 0.197991) 300 596 1
(0.396796 0.301602 0.0201799 0.281422) 301 598 1
(0.231914 0.372903 0.384043 0.0111402) 302 600 2
(0.540682 0.229659 0.0609413 0.168718) 303 602 1
(0.829075 0.0224986 0.0854627 0.0629641) 304 604 2
(0.653795 0.0808484 0.173102 0.092254) 305 606 2
(0.342796 0.265787 0.328602 0.0628147) 306 608 2
(0.196103 0.268304 0.401949 0.133644) 307 610 2
(0.321269 0.24347 0.339366 0.0958955) 308 612 2
(0.187842 0.306714 0.406079 0.0993648) 309 614 2
(0.246472 0.329173 0.376764 0.0475915) 310 616 2
(0.445622 0.277189 0.016272 0.260917) 311 618 1
(0.719371 0.140315 0.00902106 0.131294) 312 620 1
(0.660757 0.169621 0.106164 0.0634578) 313 623 2
(0.648619 0.175691 0.148177 0.0275139) 314 625 2
(0.710075 0.144963 0.101709 0.0432539) 315 626 1
(0.700613 0.0363909 0.149693 0.113303) 316 480 1
(0.779297 0.015536 0.110352 0.0948157) 317 482 1
(0.865941 0.0655637 0.0670297 0.001466) 318 632 2
(0.755959 0.0137932 0.12202 0.108227) 319 634 2
(0.692579 0.153711 0.143371 0.0103391) 320 637 2
(0.72763 0.0315329 0.104652 0.136185) 321 639 1
(0.089041 0.372142 0.0833371 0.455479) 323 640 2
(0.203207 0.322674 0.398396 0.075722) 323 642 2
(0.231214 0.3558 0.384393 0.0285924) 324 644 2
(0.16533 0.417335 0.0414226 0.375912) 325 646 1
(0.0346686 0.482666 0.449499 0.0331669) 327 648 1
(0.199677 0.38422 0.0159418 0.400162) 328 650 2
(0.172364 0.403775 0.0100432 0.413818) 329 652 2
(0.168664 0.415668 0.0042377 0.41143) 329 654 1
(0.411855 0.294073 0.074321 0.219752) 330 656 1
(0.252846 0.373577 0.1888 0.184777) 332 658 1
(0.170159 0.41492 0.228863 0.186058) 333 660 1
(0.208605 0.395697 0.384107 0.0115903) 334 662 1
(0.287632 0.356184 0.324439 0.0317448) 335 664 1
(0.405041 0.29748 0.224818 0.0726617) 336 666 1
(0.623207 0.188396 0.162515 0.025881) 337 668 1
(0.710322 0.0164053 0.128434 0.144839) 338 670 2
(0.360651 0.230677 0.0889979 0.319674) 339 672 2
(0.279123 0.344825 0.0156136 0.360438) 340 674 2
(0.12659 0.436705 0.424507 0.0121978) 341 676 1
(0.164478 0.398799 0.417761 0.0189623) 341 678 2
(0.335105 0.298572 0.332447 0.0338757) 342 680 2
(0.337973 0.315883 0.331014 0.0151311) 343 682 2
(0.304218 0.315707 0.347891 0.0321842) 344 684 2
(0.166418 0.343084 0.416791 0.073707) 345 686 2
(0.0616121 0.469194 0.459228 0.0099656) 347 688 1
(0.469504 0.265248 0.167156 0.0980922) 348 690 1
(0.85117 0.0255779 0.048837 0.0744149) 349 692 2
(0.658356 0.0129228 0.157899 0.170822) 350 694 2
(0.319181 0.185996 0.154413 0.340409) 351 696 2
(0.465504 0.267248 0.255649 0.0115984) 352 698 1
(0.37505 0.312475 0.250283 0.0621922) 353 700 1
(0.0765289 0.461736 0.452206 0.0095297) 354 702 1
(0.00648105 0.33586 0.160899 0.496759) 355 704 2
(0.118236 0.337287 0.103596 0.440882) 356 706 2
(0.0596708 0.470165 0.367291 0.102873) 357 708 1
(0.222072 0.388964 0.0971971 0.291767) 357 710 1
(0.039587 0.480207 0.00843068 0.471776) 358 712 1
(0.189695 0.298361 0.106792 0.405152) 360 714 2
(0.156962 0.23664 0.184879 0.421519) 361 716 2
(0.0224012 0.3012 0.1876 0.488799) 362 718 2
(0.140742 0.284462 0.429629 0.145167) 362 720 2
(0.0560153 0.262672 0.471992 0.20932) 363 722 2
(0.317116 0.200959 0.341442 0.140483) 364 724 2
(0.647593 0.176203 0.0413089 0.134894) 365 726 1
(0.400659 0.29967 0.199454 0.100216) 366 728 1
(0.615642 0.192179 0.0955145 0.0966644) 367 730 1
(0.865618 0.0567091 0.067191 0.0104819) 368 732 2
(0.533378 0.233311 0.0749326 0.158378) 369 734 1
(0.481841 0.00745516 0.25908 0.251624) 375 597 1
(0.627416 0.109519 0.186292 0.0767732) 376 747 2
(0.398321 0.0747145 0.300839 0.226125) 377 749 2
(0.585281 0.0961086 0.20736 0.111251) 378 751 2
(0.878398 0.060801 0.0167288 0.0440722) 379 753 1
(0.685449 0.157276 0.065052 0.0922237) 380 755 1
(0.437327 0.281337 0.0552205 0.226116) 381 757 1
(0.219346 0.390327 0.00640026 0.383927) 382 759 1
(0.269784 0.337962 0.365108 0.0271457) 383 761 2
(0.098512 0.419543 0.450744 0.0312009) 384 763 2
(0.150544 0.294289 0.424728 0.130439) 385 765 2
(0.276509 0.168118 0.361745 0.193627) 386 767 2
(0.320257 0.112496 0.339871 0.227376) 387 769 2
(0.641251 0.0383668 0.179374 0.141008) 388 771 2
(0.535726 0.0695673 0.232137 0.162569) 389 773 2
(0.108271 0.404825 0.445864 0.0410399) 390 775 2
(0.495972 0.252014 0.122108 0.129906) 391 777 1
(0.827126 0.020329 0.086437 0.0661081) 392 631 1
(0.512081 0.225138 0.24396 0.0188215) 393 781 2
(0.666963 0.0996491 0.166519 0.0668696) 394 783 2
(0.54583 0.227085 0.0237022 0.203383) 395 785 1
(0.448111 0.275944 0.0802794 0.195665) 396 787 1
(0.016841 0.49158 0.0594587 0.432121) 397 789 1
(0.322347 0.338826 0.301799 0.0370274) 399 791 1
(0.386766 0.306617 0.264189 0.0424278) 400 793 1
(0.422322 0.288839 0.277851 0.0109882) 401 795 1
(0.032319 0.48384 0.41547 0.0683702) 402 797 1
(0.211339 0.39433 0.249883 0.144447) 403 799 1
(0.240881 0.379559 0.217668 0.161891) 404 801 1
(0.17931 0.38959 0.0207554 0.410345) 405 803 2
(0.399376 0.300312 0.234644 0.0656682) 406 805 1
(0.359095 0.320453 0.261738 0.0587151) 407 807 1
(0.0313821 0.484309 0.481866 0.00244341) 408 809 1
(0.0745958 0.449107 0.013595 0.462702) 409 811 2
(0.232008 0.383996 0.282757 0.101239) 410 813 1
(0.355785 0.322107 0.16895 0.153158) 411 815 1
(0.395947 0.302026 0.230335 0.0716909) 412 817 1
(0.337816 0.196968 0.134124 0.331092) 413 819 2
(0.126396 0.280165 0.156637 0.436802) 414 821 2
(0.0357661 0.297315 0.482117 0.184802) 414 823 2
(0.00120514 0.366947 0.499397 0.13245) 415 825 2
(0.136891 0.412819 0.431555 0.0187358) 416 827 2
(0.282839 0.35858 0.00741761 0.351163) 417 829 1
(0.348956 0.325522 0.0548477 0.270674) 418 831 1
(0.338599 0.3307 0.07252 0.25818) 419 833 1
(0.160705 0.419647 0.0992946 0.320353) 420 835 1
(0.249757 0.375122 0.180255 0.194866) 422 837 1
(0.049697 0.475152 0.340308 0.134844) 423 839 1
(0.457708 0.176334 0.271146 0.094812) 423 841 2
(0.046138 0.306113 0.170818 0.476931) 425 843 2
(0.333478 0.24418 0.0890813 0.333261) 426 845 2
(0.307286 0.346357 0.326932 0.0194246) 427 847 1
(0.0318476 0.411244 0.484076 0.0728323) 427 849 2
(0.0215921 0.383478 0.489204 0.105726) 428 851 2
(0.0218802 0.283996 0.48906 0.205064) 429 853 2
(0.0625241 0.276019 0.192719 0.468738) 431 855 2
(0.0710648 0.302229 0.162239 0.464468) 432 857 2
(0.145183 0.427408 0.014786 0.412622) 432 859 1
(0.311494 0.344253 0.172707 0.171546) 433 861 1
(0.131418 0.434291 0.176102 0.258189) 434 863 1
(0.124262 0.376729 0.0611398 0.437869) 436 865 2
(0.365655 0.317173 0.0169335 0.300239) 437 870 2
(0.204156 0.0802123 0.31771 0.397922) 438 869 2
(0.0450105 0.21286 0.264635 0.477495) 439 871 2
(0.197653 0.344285 0.0568883 0.401174) 440 873 2
(0.0784424 0.460779 0.0115201 0.449259) 440 875 1
(0.273994 0.227509 0.363003 0.135494) 441 877 2
(0.661604 0.026142 0.143056 0.169198) 442 880 1
(0.846157 0.0412063 0.0769216 0.0357153) 443 881 2
(0.545521 0.227239 0.208567 0.0186724) 444 883 1
(0.493545 0.253227 0.063155 0.190072) 450 894 1
(0.698752 0.150624 0.11136 0.0392637) 451 896 1
(0.0274072 0.465673 0.0206238 0.486296) 453 898 2
(0.137757 0.331835 0.0992862 0.431122) 454 900 2
(0.186414 0.37304 0.406793 0.0337525) 454 902 2
(0.465215 0.267392 0.0819298 0.185463) 455 904 1
(0.185519 0.402313 0.407241 0.00492794) 456 906 2
(0.306173 0.247601 0.346913 0.0993126) 457 908 2
(0.332258 0.333871 0.0347858 0.299085) 458 910 1
(0.111201 0.4444 0.0430015 0.401398) 459 912 1
(0.243943 0.22729 0.378028 0.150738) 460 914 2
(0.239328 0.207217 0.380336 0.173119) 461 916 2
(0.200308 0.254615 0.399846 0.145231) 462 918 2
(0.107689 0.271464 0.174691 0.446156) 464 920 2
(0.0356172 0.308742 0.173449 0.482191) 465 922 2
(0.529353 0.235323 0.191575 0.0437482) 466 924 1
(0.403187 0.298406 0.225394 0.0730122) 467 926 1
(0.0917277 0.454136 0.452319 0.00181687) 468 928 1
(0.00841558 0.450191 0.495792 0.0456017) 468 930 2
(0.105127 0.431938 0.0154985 0.447436) 470 932 2
(0.153684 0.423158 0.321843 0.101315) 471 934 1
(0.0338218 0.483089 0.37078 0.112309) 472 936 1
(0.229111 0.385445 0.257187 0.128258) 473 938 1
(0.158213 0.420894 0.315289 0.105605) 474 940 1
(0.22776 0.38612 0.282585 0.103535) 475 942 1
(0.411564 0.294218 0.286972 0.00724557) 476 944 1
(0.718332 0.0671511 0.0736827 0.140834) 477 946 2
(0.589956 0.205022 0.158466 0.046556) 478 948 1
(0.257385 0.371308 0.239361 0.131946) 479 950 1
(0.0232973 0.488351 0.391855 0.0964962) 480 952 1
(0.0974081 0.451296 0.0754623 0.375834) 480 954 1
(0.106322 0.446839 0.0478338 0.399005) 481 956 1
(0.2684 0.3658 0.0484847 0.317315) 482 958 1
(0.0689184 0.465541 0.391582 0.0739591) 484 960 1
(0.194291 0.402855 0.331879 0.0709756) 485 962 1
(0.0290064 0.485497 0.0049121 0.480585) 485 964 1
(0.20929 0.322773 0.395355 0.0725815) 486 966 2
(0.173728 0.247854 0.165282 0.413136) 488 968 2
(0.0436537 0.318384 0.15979 0.478173) 489 970 2
(0.120539 0.330537 0.43973 0.109194) 489 972 2
(0.0387435 0.46687 0.0137582 0.480628) 491 974 2
(0.018794 0.490603 0.0170551 0.473548) 491 976 1
(0.21072 0.374817 0.39464 0.0198236) 492 978 2
(0.393267 0.303367 0.000299342 0.303067) 493 980 1
(0.327943 0.336029 0.0458191 0.290209) 494 982 1
(0.158347 0.420827 0.0509838 0.369843) 495 984 1
(0.366547 0.251586 0.316727 0.0651408) 496 986 2
(0.631445 0.130718 0.184278 0.0535594) 497 988 2
(0.646639 0.17668 0.067063 0.109617) 498 990 1
(0.122386 0.438807 0.058912 0.379895) 499 992 1
(0.0944217 0.452789 0.387779 0.0650097) 501 994 1
(0.182781 0.40861 0.0049686 0.403641) 501 996 1
(0.107314 0.340148 0.446343 0.106196) 502 998 2
(0.243455 0.272629 0.378273 0.105644) 503 1000 2
(0.114483 0.292537 0.442758 0.150221) 504 1002 2
(0.0814197 0.267849 0.191441 0.45929) 506 1004 2
(0.157132 0.228837 0.192597 0.421434) 507 1006 2
(0.123513 0.427461 0.438244 0.0107827) 507 1008 2
(0.245337 0.377331 0.248422 0.128909) 508 1010 1
(0.384849 0.307576 0.196656 0.110919) 509 1012 1
(0.691755 0.154122 0.0204226 0.1337) 510 1014 1
(0.667304 0.0984532 0.0678947 0.166348) 511 1017 1
(0.56985 0.0266711 0.188404 0.215075) 512 1019 1
(0.328492 0.127446 0.335754 0.208308) 513 1020 2
(0.137797 0.26782 0.431101 0.163281) 514 1022 2
(0.151765 0.216348 0.424118 0.20777) 515 1024 2
(0.243237 0.101586 0.378381 0.276796) 516 1026 2
(0.206086 0.179143 0.396957 0.217814) 517 1028 2
(0.236068 0.381966 0.175559 0.206407) 518 1030 1
(0.173284 0.413358 0.27767 0.135688) 519 1032 1
(0.650337 0.103409 0.174832 0.0714229) 525 1043 2
(0.482462 0.138391 0.258769 0.120378) 526 897 1
(0.624421 0.104034 0.18779 0.0837552) 527 899 1
(0.587498 0.128423 0.206251 0.0778283) 528 1049 2
(0.2027 0.261644 0.39865 0.137006) 529 1051 2
(0.374334 0.312833 0.0436155 0.269218) 530 1053 1
(0.17214 0.41393 0.0950617 0.318868) 531 1055 1
(0.211461 0.39427 0.0597411 0.334529) 532 1057 1
(0.364145 0.317928 0.0453963 0.272531) 533 1059 1
(0.450649 0.263669 0.274676 0.0110071) 534 1061 2
(0.355569 0.17072 0.322216 0.151496) 535 1063 2
(0.176566 0.265635 0.411717 0.146082) 536 1065 2
(0.19015 0.33755 0.404925 0.0673746) 537 1067 2
(0.0349491 0.349804 0.132721 0.482525) 539 1069 2
(0.273742 0.276803 0.0863256 0.363129) 540 1071 2
(0.355029 0.322485 0.176243 0.146242) 541 1073 1
(0.206382 0.396809 0.306951 0.0898582) 542 1075 1
(0.0404466 0.476142 0.00363492 0.479777) 543 1077 2
(0.357462 0.321269 0.29319 0.0280791) 544 1079 1
(0.0946941 0.452653 0.430685 0.021968) 545 1081 1
(0.15238 0.409429 0.42381 0.0143814) 545 1083 2
(0.0973016 0.451349 0.0691066 0.382243) 546 1085 1
(0.0899644 0.455018 0.127176 0.327842) 547 1087 1
(0.141058 0.429471 0.267591 0.16188) 549 1089 1
(0.181885 0.409057 0.204481 0.204576) 550 1091 1
(0.203791 0.398104 0.171353 0.226751) 551 1093 1
(0.0334931 0.456716 0.483253 0.026537) 551 1095 2
(0.15663 0.257668 0.421685 0.164017) 552 1097 2
(0.21047 0.155158 0.394765 0.239607) 553 1099 2
(0.405557 0.104955 0.297222 0.192266) 554 1101 2
(0.152075 0.423962 0.0624407 0.361522) 555 1103 1
(0.263122 0.368439 0.109023 0.259415) 556 1105 1
(0.51583 0.242085 0.1558 0.0862854) 557 1107 1
(0.652937 0.0400861 0.173532 0.133445) 558 961 1
(0.72012 0.13994 0.113763 0.0261776) 559 1111 1
(0.85996 0.0700198 0.0271462 0.0428737) 560 1113 1
(0.539031 0.213715 0.230485 0.0167701) 561 1115 2
(0.704609 0.0732349 0.147696 0.0744607) 562 1117 2
(0.578958 0.150777 0.210521 0.0597443) 563 1119 2
(0.295508 0.336295 0.352246 0.0159511) 564 1121 2
(0.232792 0.229888 0.383604 0.153716) 565 1123 2
(0.178611 0.201854 0.410695 0.20884) 566 1125 2
(0.283492 0.225858 0.358254 0.132397) 567 1127 2
(0.344593 0.279594 0.327704 0.04811) 568 1129 2
(0.376102 0.285983 0.311949 0.0259662) 569 1131 2
(0.123166 0.385715 0.438417 0.0527014) 570 1133 2
(0.393905 0.261714 0.303047 0.0413338) 571 1135 2
(0.6718 0.1641 0.0586417 0.105458) 572 1137 1
(0.701298 0.0428093 0.149351 0.106541) 573 991 1
(0.549214 0.225393 0.119852 0.10554) 574 1141 1
(0.64962 0.151836 0.17519 0.0233537) 575 1143 2
(0.475131 0.204645 0.262434 0.0577891) 576 1145 2
(0.216256 0.391872 0.00538619 0.386486) 577 1147 1
(0.435896 0.2474 0.282052 0.0346517) 578 1149 2
(0.206426 0.315626 0.396787 0.0811612) 579 1151 2
(0.0336226 0.426424 0.0567644 0.483189) 581 1153 2
(0.563535 0.0334482 0.184784 0.218232) 582 1155 2
(0.323637 0.173758 0.164423 0.338181) 583 1157 2
(0.137899 0.193273 0.237777 0.431051) 584 1159 2
(0.281686 0.135165 0.359157 0.223991) 584 1161 2
(0.606482 0.0345293 0.196759 0.16223) 585 1163 2
(0.667805 0.0673124 0.166098 0.0987853) 586 1165 2
(0.710951 0.119661 0.144524 0.0248638) 587 1167 2
(0.276763 0.322831 0.361618 0.0387877) 588 1169 2
(0.0828761 0.379961 0.458562 0.0786005) 589 1171 2
(0.0209892 0.427368 0.489505 0.0621379) 590 1173 2
(0.247901 0.304175 0.071875 0.37605) 592 1175 2
(0.429882 0.285059 0.26615 0.0189091) 593 1177 1
(0.542782 0.228609 0.14423 0.0843796) 594 1033 2
(0.345493 0.327254 0.189855 0.137399) 595 1181 1
(0.289402 0.211772 0.143527 0.355299) 601 1192 2
(0.218348 0.390826 0.0555313 0.335295) 601 1194 1
(0.595702 0.202149 0.121962 0.0801864) 602 1196 1
(0.426289 0.286855 0.0931075 0.193748) 603 1198 1
(0.251512 0.374244 0.318254 0.0559903) 605 1200 1
(0.185497 0.337886 0.0693658 0.407252) 606 1202 2
(0.0251247 0.408644 0.487438 0.0787939) 606 1204 2
(0.417688 0.291156 0.0312587 0.259898) 607 1206 1
(0.305549 0.347226 0.0889363 0.258289) 608 1208 1
(0.324704 0.337648 0.067753 0.269895) 609 1210 1
(0.35825 0.293306 0.320875 0.0275689) 610 1212 2
(0.0971632 0.359667 0.451418 0.0917518) 611 1214 2
(0.059383 0.41633 0.470308 0.0539785) 612 1216 2
(0.0894929 0.455254 0.0814012 0.373852) 613 1218 1
(0.221382 0.389309 0.223181 0.166129) 615 1220 1
(0.434831 0.226839 0.055746 0.282585) 616 1222 2
(0.135581 0.26649 0.16572 0.43221) 617 1224 2
(0.116308 0.316572 0.441846 0.125274) 617 1226 2
(0.135026 0.432487 0.0562543 0.376233) 618 1228 1
(0.0411831 0.479408 0.0424896 0.436919) 619 1230 1
(0.148583 0.394531 0.425709 0.0311775) 620 1232 2
(0.245394 0.377303 0.0333157 0.343987) 621 1234 1
(0.130986 0.434507 0.173795 0.260712) 622 1236 1
(0.103476 0.448262 0.233096 0.215166) 624 1238 1
(0.0714275 0.464286 0.267124 0.197162) 625 1240 1
(0.383817 0.305818 0.308091 0.00227293) 625 1242 2
(0.62988 0.124992 0.18506 0.0600682) 626 1244 2
(0.690833 0.120429 0.154583 0.0341539) 627 1246 2
(0.586511 0.0832741 0.206744 0.12347) 628 1248 2
(0.524426 0.09517 0.237787 0.142617) 629 1250 2
(0.598539 0.0281465 0.200731 0.172584) 630 1252 2
(0.714597 0.0234778 0.119224 0.142701) 631 1255 1
(0.76188 0.0506286 0.11906 0.0684315) 632 1256 2
(0.865303 0.0673486 0.020903 0.0464456) 633 1258 1
(0.806324 0.0934245 0.096838 0.00341347) 634 1112 1
(0.764418 0.117791 0.0594373 0.0583539) 635 1260 1
(0.745028 0.127486 0.11233 0.0151563) 636 1262 1
(0.741914 0.129043 0.113263 0.0157803) 637 1264 1
(0.797442 0.101279 0.0514515 0.0498276) 638 1266 1
(0.874333 0.0182551 0.0628336 0.0445785) 639 1122 1