/*--------------------------------*- C++ -*----------------------------------*\
  =========                 |
  \\      /  F ield         | OpenFOAM: The Open Source CFD Toolbox
   \\    /   O peration     | Website:  https://openfoam.org
    \\  /    A nd           | Version:  12
     \\/     M anipulation  |
\*---------------------------------------------------------------------------*/
FoamFile
{
    format      ascii;
    class       vectorField;
    location    "0.1/lagrangian/cloud";
    object      U;
}
// * * * * * * * * * * * * * * * * * * * * * * * * * * * * * * * * * * * * * //


3522
(
(0.00421153 -0.025442 0)
(0.00440937 -0.0279094 0)
(1.62009e-06 -0.0315476 0)
(-0.00195591 -0.0355638 0)
(-0.00339497 -0.0286313 0)
(-0.000513191 -0.0111105 0)
(0.00138565 -0.0144316 0)
(0.000428642 -0.023145 0)
(0.000396075 -0.0217869 0)
(-0.00181711 -0.0256292 0)
(-0.00315036 -0.0275295 0)
(-0.00205252 -0.0251333 0)
(-0.00133161 -0.0175548 0)
(0.00613976 -0.0107201 0)
(0.00432892 -0.00931002 0)
(0.0033409 -0.0135179 0)
(0.00191743 -0.0235681 0)
(0.00315679 -0.0256634 0)
(0.000833327 -0.0235012 0)
(0.00153011 -0.0266754 0)
(-0.000265404 -0.0303682 0)
(-0.00215129 -0.0298186 0)
(-0.0034127 -0.0294479 0)
(-0.000794587 -0.0236492 0)
(0.00121667 -0.0217944 0)
(0.00416993 -0.0274572 0)
(0.00350158 -0.0282329 0)
(0.00271588 -0.0294288 0)
(0.000684041 -0.03245 0)
(-0.00186188 -0.0361522 0)
(-0.00303049 -0.0358954 0)
(-0.00225299 -0.033329 0)
(-0.00127136 -0.0307436 0)
(0.000319712 -0.0273547 0)
(0.000717284 -0.02952 0)
(0.00208235 -0.0284114 0)
(0.00257528 -0.0294778 0)
(0.00178304 -0.0290562 0)
(0.00293157 -0.0324544 0)
(0.00322738 -0.032187 0)
(0.00200478 -0.0350354 0)
(-0.000334125 -0.0341964 0)
(-0.000869837 -0.0360347 0)
(-0.00268243 -0.0365523 0)
(-0.00222777 -0.0355856 0)
(-0.00197516 -0.0303405 0)
(-0.00172285 -0.0258261 0)
(-2.37475e-06 -0.0254304 0)
(0.00137964 -0.0270422 0)
(0.000838169 -0.0285029 0)
(-0.000886386 -0.0333434 0)
(-0.00349248 -0.0291391 0)
(-0.00448539 -0.0251228 0)
(-0.00386259 -0.0142182 0)
(0.000565612 -0.00974061 0)
(-0.000592195 -0.0223599 0)
(0.000424866 -0.0142327 0)
(0.000937523 -0.0263638 0)
(0.00268318 -0.0271141 0)
(0.00280087 -0.0300165 0)
(-0.000712646 -0.0335235 0)
(-0.00172972 -0.0357636 0)
(0.000912668 -0.0346282 0)
(0.00205673 -0.0298549 0)
(0.00369682 -0.0283321 0)
(0.00327501 -0.0269984 0)
(0.00123556 -0.0267668 0)
(-0.00456089 -0.0252243 0)
(-0.00491467 -0.0223753 0)
(-0.00562136 -0.0143358 0)
(0.000650309 -0.00797188 0)
(0.00140712 -0.0111482 0)
(0.00415881 -0.0384176 0)
(0.000507983 -0.0349297 0)
(-0.00231198 -0.0348422 0)
(-0.00490717 -0.0363636 0)
(-0.00689711 -0.0388144 0)
(2.46934e-05 -0.0476877 0)
(0.00337491 -0.0379469 0)
(0.00658172 -0.0415414 0)
(0.00483244 -0.0453057 0)
(0.000488888 -0.0420618 0)
(-0.00426159 -0.0434991 0)
(-0.00344667 -0.0395078 0)
(-0.00531647 -0.0364552 0)
(0.00229952 -0.0366127 0)
(0.00378064 -0.0362032 0)
(0.000541353 -0.0341219 0)
(0.00373469 -0.0374812 0)
(0.00270841 -0.0354563 0)
(0.004276 -0.0370186 0)
(0.00188959 -0.0305995 0)
(-0.000610818 -0.0296064 0)
(-0.00503708 -0.0356225 0)
(0.00233207 -0.0455814 0)
(0.00390536 -0.0459182 0)
(0.00311973 -0.0469156 0)
(0.00446306 -0.0476128 0)
(0.00327054 -0.0440481 0)
(-0.00144421 -0.038598 0)
(-0.000609235 -0.0379285 0)
(-0.00535987 -0.0370273 0)
(-0.00450949 -0.0365377 0)
(-0.00285133 -0.038059 0)
(-0.00268101 -0.0463244 0)
(0.00245737 -0.0476829 0)
(0.000550854 -0.0495162 0)
(0.00182691 -0.0484445 0)
(0.0042049 -0.0470953 0)
(0.00555789 -0.0470664 0)
(0.00393566 -0.0455203 0)
(0.00258544 -0.0465484 0)
(-0.00212033 -0.0436766 0)
(-0.00458086 -0.0396568 0)
(-0.00410197 -0.0414103 0)
(-0.00400277 -0.038955 0)
(-0.0050681 -0.0356717 0)
(-0.00464571 -0.0352489 0)
(0.0023558 -0.0447029 0)
(0.00328438 -0.0418704 0)
(0.00275844 -0.0356716 0)
(-0.00265496 -0.0333701 0)
(-0.00417137 -0.0392644 0)
(-0.00907396 -0.0408674 0)
(-0.00122047 -0.0453771 0)
(-0.000482474 -0.0485905 0)
(0.0015213 -0.0529466 0)
(0.00261623 -0.0499733 0)
(0.00124723 -0.0492639 0)
(0.00342241 -0.0488971 0)
(0.00551562 -0.0477107 0)
(0.00266267 -0.0449663 0)
(-0.000290515 -0.0501529 0)
(-0.00211352 -0.0478835 0)
(-0.00412807 -0.0525544 0)
(-0.00477217 -0.0471278 0)
(-0.00463787 -0.0401195 0)
(-0.00138531 -0.0333748 0)
(-0.00416153 -0.0382651 0)
(-0.000978745 -0.0425953 0)
(-0.00150241 -0.0386556 0)
(-0.00140474 -0.0534779 0)
(0.000656189 -0.052766 0)
(2.32123e-05 -0.0481531 0)
(-0.00530922 -0.0420192 0)
(-0.00378558 -0.03921 0)
(-0.00289755 -0.0416448 0)
(-0.00505387 -0.045128 0)
(0.00118265 -0.0474886 0)
(0.000697758 -0.0478567 0)
(0.00438393 -0.0473248 0)
(0.00286411 -0.047086 0)
(0.00186552 -0.0458574 0)
(-0.00205648 -0.0475584 0)
(-0.00388991 -0.046682 0)
(-0.00582332 -0.0480595 0)
(-0.00405923 -0.052261 0)
(0.00192918 -0.0497051 0)
(0.00256966 -0.0467102 0)
(4.63502e-05 -0.0498837 0)
(0.000561419 -0.0520252 0)
(0.00442857 -0.0500001 0)
(0.00163765 -0.0424345 0)
(-0.000569544 -0.0480475 0)
(0.00314413 -0.048165 0)
(0.00453704 -0.0447866 0)
(0.0039004 -0.0506563 0)
(0.0023021 -0.0498159 0)
(0.00291085 -0.049543 0)
(0.0018799 -0.0457957 0)
(-0.0010742 -0.0455682 0)
(-0.00260233 -0.0468548 0)
(-0.00325296 -0.0474625 0)
(-0.0019714 -0.0488311 0)
(-0.000610834 -0.0478477 0)
(0.00316493 -0.0495893 0)
(0.00211409 -0.0495525 0)
(-0.000136146 -0.0496343 0)
(0.000206478 -0.048679 0)
(0.00183388 -0.0488575 0)
(0.00320635 -0.0466169 0)
(0.00544307 -0.0474758 0)
(-7.93389e-05 -0.048028 0)
(-0.00645675 -0.042028 0)
(-0.00469097 -0.0445035 0)
(-0.0081788 -0.0428346 0)
(-0.00737453 -0.0423076 0)
(-0.00827282 -0.0429881 0)
(-0.00145467 -0.0493021 0)
(0.00171257 -0.0491314 0)
(0.00291795 -0.0478346 0)
(0.00251518 -0.0482992 0)
(0.0019355 -0.0510777 0)
(0.0019301 -0.0547054 0)
(0.000943689 -0.0496654 0)
(0.000410133 -0.0495919 0)
(0.000823689 -0.0505533 0)
(0.000689613 -0.0558133 0)
(0.000222363 -0.0517553 0)
(0.000539342 -0.0495953 0)
(0.00154784 -0.053956 0)
(0.00479186 -0.0476637 0)
(0.00333692 -0.0441231 0)
(0.0018611 -0.0435622 0)
(-0.00131621 -0.0456082 0)
(-0.00456254 -0.0537137 0)
(-0.00489784 -0.0529572 0)
(-0.00590019 -0.0492365 0)
(-0.00296946 -0.0555729 0)
(0.0034219 -0.0601419 0)
(0.00102422 -0.0627187 0)
(0.000909034 -0.0587028 0)
(-0.00258922 -0.0584088 0)
(-0.0035168 -0.056093 0)
(-0.00286983 -0.0488473 0)
(-0.00587395 -0.0477934 0)
(-0.00609109 -0.0466903 0)
(-0.00274231 -0.0419977 0)
(-0.00231804 -0.0465959 0)
(-0.00303716 -0.0467208 0)
(-0.000131288 -0.0505476 0)
(0.0030571 -0.0510804 0)
(0.00449391 -0.0502864 0)
(0.00184415 -0.0462483 0)
(-0.000869005 -0.0470669 0)
(-0.00181532 -0.0474663 0)
(-0.00247277 -0.0474496 0)
(-0.00186559 -0.0530971 0)
(0.000453885 -0.0543002 0)
(0.00218233 -0.0552 0)
(0.00202533 -0.0528463 0)
(7.64316e-05 -0.0552088 0)
(-0.00210095 -0.0526359 0)
(1.12375e-05 -0.048373 0)
(0.00019237 -0.0498962 0)
(0.00147159 -0.0488424 0)
(0.00255303 -0.0543959 0)
(0.00477783 -0.0542769 0)
(0.00294281 -0.0540672 0)
(0.0012287 -0.0510466 0)
(0.00146603 -0.0546503 0)
(0.00164492 -0.05018 0)
(-0.00123083 -0.0484363 0)
(-0.0020577 -0.0510523 0)
(-0.00261907 -0.0521933 0)
(-0.00142231 -0.0502717 0)
(0.00352239 -0.0506785 0)
(4.53627e-05 -0.0495185 0)
(-0.00223924 -0.0485571 0)
(0.000203196 -0.0488763 0)
(-0.000103255 -0.0483374 0)
(0.000150585 -0.0468224 0)
(0.00535109 -0.0475585 0)
(-0.00465726 -0.0430511 0)
(-0.00449209 -0.0429854 0)
(-0.00419339 -0.0472791 0)
(-0.00293596 -0.0456151 0)
(-0.00384767 -0.0453722 0)
(-0.00183059 -0.0459052 0)
(0.000338145 -0.0538702 0)
(0.00312214 -0.0529329 0)
(0.0030858 -0.0515754 0)
(0.00411709 -0.0501909 0)
(0.00353758 -0.0531039 0)
(0.00248646 -0.0499242 0)
(-0.000502953 -0.0505549 0)
(0.0011148 -0.0500718 0)
(0.000648183 -0.050331 0)
(-0.00098263 -0.0534194 0)
(-0.00119147 -0.0491884 0)
(0.00114035 -0.0490093 0)
(-5.92144e-05 -0.0541563 0)
(-0.00440515 -0.0482878 0)
(-0.00337533 -0.0506954 0)
(0.00288624 -0.0463031 0)
(0.00413298 -0.0486828 0)
(0.00120519 -0.0464041 0)
(0.00254061 -0.048523 0)
(0.00466971 -0.0506445 0)
(0.003753 -0.0525459 0)
(0.00237511 -0.0555973 0)
(-0.00174269 -0.0561591 0)
(-0.00341998 -0.0531214 0)
(-0.00321379 -0.0511476 0)
(-0.00243659 -0.0585523 0)
(-0.00506156 -0.0500262 0)
(-0.0034049 -0.0490509 0)
(0.000916419 -0.0522725 0)
(-0.000191458 -0.0470043 0)
(-8.54322e-05 -0.0524687 0)
(0.000824121 -0.0554435 0)
(0.00184122 -0.0555893 0)
(0.00219986 -0.0547881 0)
(0.00153577 -0.0496881 0)
(0.00192405 -0.0535598 0)
(0.000866461 -0.0498542 0)
(-0.00028352 -0.0483705 0)
(-0.000329277 -0.0534208 0)
(0.00397036 -0.0552486 0)
(0.00597179 -0.0622823 0)
(0.00203993 -0.0563533 0)
(-0.00371897 -0.0558351 0)
(-0.0029667 -0.0569647 0)
(-0.00284278 -0.0536239 0)
(7.13623e-05 -0.0579 0)
(0.002266 -0.0594174 0)
(0.00292219 -0.059761 0)
(0.00176948 -0.0541187 0)
(0.00170941 -0.051435 0)
(0.00205731 -0.0508234 0)
(0.000297621 -0.0548029 0)
(-0.0011954 -0.0485707 0)
(7.05255e-05 -0.0476866 0)
(0.000461179 -0.0488052 0)
(-0.000470774 -0.047362 0)
(-0.000821655 -0.0480583 0)
(-0.000894062 -0.0509386 0)
(-0.00345388 -0.0492794 0)
(-0.00204144 -0.0484355 0)
(0.00030597 -0.0488956 0)
(-0.00105116 -0.0483626 0)
(-0.00139679 -0.047933 0)
(0.00260515 -0.0450174 0)
(0.00116945 -0.043704 0)
(0.00179019 -0.048052 0)
(-0.000533554 -0.0475414 0)
(4.98366e-06 -0.0500221 0)
(0.000327461 -0.0485286 0)
(0.0003299 -0.0495042 0)
(0.00036606 -0.0523359 0)
(0.000638441 -0.0537822 0)
(0.00240537 -0.0495066 0)
(0.000740838 -0.0480812 0)
(0.00243868 -0.0405665 0)
(0.00231401 -0.0399459 0)
(0.00349718 -0.044407 0)
(0.00331914 -0.0501212 0)
(-0.000776259 -0.0480867 0)
(-0.00142934 -0.0451885 0)
(0.00252624 -0.0484905 0)
(0.00267389 -0.0493146 0)
(0.000512465 -0.0486868 0)
(-0.00210002 -0.048565 0)
(-0.00265371 -0.0538639 0)
(0.000425669 -0.0521712 0)
(0.00210405 -0.0503003 0)
(0.00468583 -0.0481016 0)
(0.00578616 -0.0491587 0)
(0.0057265 -0.0515609 0)
(0.00435354 -0.0504855 0)
(0.00192073 -0.0522386 0)
(-0.00225397 -0.055156 0)
(-0.00390903 -0.050895 0)
(-0.00220526 -0.0550312 0)
(-0.00212107 -0.0592751 0)
(-0.00706133 -0.0507706 0)
(-0.00228976 -0.0525149 0)
(0.000595337 -0.0548914 0)
(0.00371858 -0.0481513 0)
(0.00257103 -0.0560413 0)
(-0.00165921 -0.0541051 0)
(-0.000784214 -0.0549936 0)
(-0.000610264 -0.0552714 0)
(0.000341713 -0.0499715 0)
(0.00153427 -0.0527975 0)
(0.00212166 -0.0494125 0)
(0.00266503 -0.047692 0)
(0.00380032 -0.0517786 0)
(0.0043203 -0.0527383 0)
(0.00361458 -0.0520546 0)
(0.00132983 -0.0532286 0)
(-0.00117395 -0.049562 0)
(-0.00146631 -0.0552566 0)
(-0.00153462 -0.0542989 0)
(0.000905811 -0.0531241 0)
(0.000616562 -0.0548767 0)
(-0.00105808 -0.0552947 0)
(-0.00259317 -0.0531179 0)
(-6.80747e-05 -0.0515563 0)
(-0.000393002 -0.0505196 0)
(-0.00116184 -0.0475875 0)
(-0.00142938 -0.0469928 0)
(3.47684e-05 -0.0460618 0)
(-0.0036929 -0.0473724 0)
(-0.00290131 -0.0474398 0)
(-0.00102688 -0.0467023 0)
(-0.000257942 -0.0463983 0)
(-0.00193959 -0.046354 0)
(1.4247e-05 -0.0508672 0)
(-0.00089354 -0.0482038 0)
(-0.00407516 -0.0498352 0)
(-0.00317565 -0.0490774 0)
(0.00275683 -0.047754 0)
(0.00270937 -0.0479589 0)
(0.00324764 -0.0511576 0)
(0.00273303 -0.05079 0)
(0.0020919 -0.0497219 0)
(0.000244127 -0.0483268 0)
(-0.000641066 -0.0490215 0)
(-3.71029e-05 -0.0514215 0)
(-0.00100881 -0.0534129 0)
(-0.00149981 -0.0496846 0)
(-0.00334412 -0.0473608 0)
(-0.00138294 -0.0474151 0)
(0.00185226 -0.0508418 0)
(0.00401646 -0.0493805 0)
(0.00152557 -0.0477595 0)
(0.000420174 -0.0471713 0)
(0.00103153 -0.0492289 0)
(0.0040861 -0.0501658 0)
(0.00446929 -0.0496293 0)
(0.00340226 -0.0485876 0)
(0.000975034 -0.0490758 0)
(-0.00234297 -0.0504673 0)
(-0.00436576 -0.0536375 0)
(-0.00164219 -0.0498649 0)
(0.0086064 -0.0484474 0)
(0.00767324 -0.0472141 0)
(0.00731986 -0.0481116 0)
(0.00357569 -0.0512455 0)
(0.000775299 -0.0497849 0)
(0.00204583 -0.0470748 0)
(0.00575534 -0.0480784 0)
(0.000986532 -0.0520655 0)
(-0.0018192 -0.057206 0)
(0.000295005 -0.0447765 0)
(-0.00119762 -0.0544761 0)
(-0.00182577 -0.0556043 0)
(0.00193114 -0.0516694 0)
(0.00141452 -0.0481071 0)
(-0.00125363 -0.0487192 0)
(-0.00222883 -0.0549078 0)
(-0.000109127 -0.0496815 0)
(0.00105609 -0.0507024 0)
(2.29345e-05 -0.052344 0)
(0.00210638 -0.048172 0)
(0.00308221 -0.0504397 0)
(0.00428883 -0.0536707 0)
(0.00208692 -0.0501397 0)
(0.00361736 -0.0482622 0)
(0.000175114 -0.0524584 0)
(-0.0011265 -0.0493492 0)
(-0.00126688 -0.0473175 0)
(0.00086098 -0.0503858 0)
(0.000654397 -0.0493745 0)
(-0.000830011 -0.0482958 0)
(-0.00215893 -0.0469836 0)
(-0.00233784 -0.0493229 0)
(-0.00198887 -0.0485314 0)
(-0.00310293 -0.0469784 0)
(-0.00235521 -0.0481215 0)
(0.00109015 -0.0439308 0)
(-1.98493e-07 -0.0431296 0)
(-0.00119546 -0.0451726 0)
(-0.00323172 -0.0481086 0)
(-0.00291658 -0.05069 0)
(-0.00180737 -0.0498686 0)
(-0.00153319 -0.05009 0)
(-0.000907856 -0.0523381 0)
(-0.00211158 -0.0515466 0)
(-0.00191498 -0.0482946 0)
(0.000243532 -0.0515666 0)
(0.00320894 -0.0512102 0)
(0.00339718 -0.0513092 0)
(0.00335366 -0.052595 0)
(0.00304851 -0.0501157 0)
(0.00040807 -0.0485726 0)
(0.000909253 -0.0461519 0)
(0.000476998 -0.0480846 0)
(-6.17041e-05 -0.0505627 0)
(-0.000934912 -0.0526548 0)
(0.000418369 -0.0503421 0)
(0.000337804 -0.0487726 0)
(-0.000615697 -0.0515205 0)
(-0.00143971 -0.0556362 0)
(-0.000659884 -0.0501817 0)
(-0.00128545 -0.0491249 0)
(0.00110429 -0.0502028 0)
(0.000906048 -0.0492072 0)
(0.00232933 -0.0521027 0)
(0.00289767 -0.0486464 0)
(0.00537816 -0.0482425 0)
(0.00400744 -0.0469653 0)
(-0.00180154 -0.0487592 0)
(-0.00417822 -0.0500227 0)
(-0.00267722 -0.0506242 0)
(0.00508639 -0.0575362 0)
(0.00316519 -0.058578 0)
(0.00435106 -0.0537973 0)
(0.00494291 -0.0538853 0)
(0.0032932 -0.0512629 0)
(0.00358748 -0.0491011 0)
(0.00572652 -0.0536323 0)
(0.00133288 -0.0539889 0)
(-0.00435272 -0.0538314 0)
(0.00636851 -0.0515723 0)
(-0.00181548 -0.0553185 0)
(-0.00397543 -0.0560244 0)
(-0.00288043 -0.0549871 0)
(0.00195362 -0.0567842 0)
(0.00125146 -0.0505401 0)
(-0.00156651 -0.0547988 0)
(-0.00166805 -0.0518233 0)
(-0.000910705 -0.0510979 0)
(-0.000922267 -0.0495559 0)
(0.000727503 -0.0516134 0)
(0.00370216 -0.0533272 0)
(0.00343227 -0.0513779 0)
(0.000229202 -0.0488474 0)
(0.0027026 -0.049434 0)
(-0.00187056 -0.0492754 0)
(-0.00283637 -0.0460473 0)
(-0.00164575 -0.0476377 0)
(0.000203759 -0.0519227 0)
(-0.000734135 -0.0499676 0)
(-0.000970709 -0.0501235 0)
(-0.00195846 -0.0486734 0)
(-0.00386304 -0.0503945 0)
(-0.00438985 -0.04907 0)
(-0.00329343 -0.0474238 0)
(-0.0048522 -0.048115 0)
(-0.00271567 -0.0484624 0)
(0.000564914 -0.0524755 0)
(0.00419435 -0.050174 0)
(0.00562788 -0.0482287 0)
(9.38241e-06 -0.0534712 0)
(-0.00140598 -0.0510004 0)
(-0.00103869 -0.050317 0)
(-0.00235185 -0.05453 0)
(-0.00333316 -0.05278 0)
(-0.00217032 -0.0526436 0)
(0.000997952 -0.0568089 0)
(0.00137897 -0.0586869 0)
(0.00288075 -0.0538017 0)
(0.00188628 -0.0566685 0)
(0.00153378 -0.0568406 0)
(0.00342091 -0.0513305 0)
(0.00361999 -0.0494472 0)
(0.00216598 -0.0506675 0)
(0.000878383 -0.0509903 0)
(0.00156472 -0.0534552 0)
(0.00202373 -0.0490333 0)
(0.000546744 -0.0512346 0)
(-0.00152455 -0.0557094 0)
(-0.00308062 -0.0536056 0)
(-0.00254293 -0.0558604 0)
(0.00111815 -0.0569302 0)
(0.000712566 -0.05452 0)
(-3.09857e-05 -0.0518732 0)
(0.00137515 -0.054835 0)
(0.001649 -0.0488 0)
(0.00397575 -0.0460951 0)
(0.00463007 -0.0457682 0)
(0.0051995 -0.0456019 0)
(0.00466465 -0.0455207 0)
(0.00311871 -0.0506502 0)
(0.00200429 -0.0531451 0)
(0.00294619 -0.0566513 0)
(0.0019391 -0.0543923 0)
(0.00269281 -0.0539559 0)
(0.00252652 -0.0514126 0)
(0.000814848 -0.0505297 0)
(0.00238414 -0.0494649 0)
(-0.00516206 -0.0399614 0)
(-0.00596479 -0.0459806 0)
(0.00455181 -0.0505824 0)
(0.00126471 -0.0474433 0)
(-0.000957113 -0.0499289 0)
(-0.00312009 -0.0545822 0)
(-0.00176286 -0.0529896 0)
(0.000680873 -0.0501839 0)
(0.00154371 -0.0477771 0)
(0.000838121 -0.0477987 0)
(-0.000775121 -0.0521179 0)
(-0.00224957 -0.0506846 0)
(-0.000409907 -0.0517552 0)
(0.000824316 -0.0532188 0)
(0.00223885 -0.0507613 0)
(0.000847856 -0.0504724 0)
(-0.00263585 -0.0491624 0)
(-0.00223704 -0.0477995 0)
(0.000831781 -0.0454829 0)
(0.00323759 -0.0492916 0)
(6.01135e-05 -0.0527549 0)
(-0.000342963 -0.0509863 0)
(-0.00141977 -0.0510735 0)
(-0.00136635 -0.0506264 0)
(-0.0033349 -0.0529782 0)
(-0.00678923 -0.0494906 0)
(-0.00431401 -0.0490135 0)
(-0.00144218 -0.0471812 0)
(0.000550878 -0.0501124 0)
(0.00167985 -0.0519398 0)
(0.002588 -0.055408 0)
(0.00374264 -0.0528681 0)
(0.00335145 -0.0508397 0)
(0.00340578 -0.053473 0)
(0.0015246 -0.0548983 0)
(0.000551583 -0.0533772 0)
(-0.00552456 -0.0568879 0)
(-0.00476931 -0.0603243 0)
(-0.000334265 -0.0648338 0)
(-0.000565788 -0.0651469 0)
(-0.000319584 -0.0642236 0)
(-0.000277509 -0.0600412 0)
(-0.00148026 -0.0563129 0)
(0.00199492 -0.0556427 0)
(0.00415565 -0.0520188 0)
(0.00104342 -0.0504326 0)
(-9.91441e-05 -0.0500858 0)
(0.00305152 -0.0543275 0)
(0.00378345 -0.0502719 0)
(0.000440255 -0.0518089 0)
(-0.00533031 -0.0549188 0)
(-0.0062903 -0.0563167 0)
(-0.00318497 -0.053994 0)
(-0.000690262 -0.0562909 0)
(-0.00048824 -0.0547006 0)
(-0.000548472 -0.0537637 0)
(-0.00210653 -0.0548292 0)
(-0.00306184 -0.0538013 0)
(0.00101612 -0.0502296 0)
(0.0035961 -0.0543 0)
(0.0061718 -0.0509144 0)
(0.00629457 -0.0495983 0)
(0.00439911 -0.050526 0)
(0.00128118 -0.0524674 0)
(0.0013572 -0.050609 0)
(0.00194181 -0.050829 0)
(0.00344539 -0.0512298 0)
(0.00131822 -0.0509649 0)
(0.000195936 -0.0496194 0)
(-0.00322986 -0.0490754 0)
(-0.00463993 -0.0476104 0)
(-0.00322087 -0.0480008 0)
(0.00182095 -0.0493249 0)
(0.000630686 -0.0489861 0)
(0.000970303 -0.0451556 0)
(-0.00208594 -0.0481095 0)
(-0.00134123 -0.0482026 0)
(-0.00280083 -0.0472416 0)
(0.00245734 -0.0477368 0)
(0.00459501 -0.0471119 0)
(-0.00034397 -0.0451069 0)
(-0.00187445 -0.0449514 0)
(-0.00163963 -0.050433 0)
(-0.00257398 -0.0522495 0)
(-0.00198259 -0.0503244 0)
(0.00195217 -0.0438369 0)
(-0.0013188 -0.0457401 0)
(-0.00082072 -0.0499548 0)
(0.00108087 -0.0514453 0)
(0.00514184 -0.0534881 0)
(0.00147367 -0.0527875 0)
(-0.000874234 -0.0516795 0)
(-0.000132425 -0.0509499 0)
(-0.000357589 -0.0514822 0)
(-0.00328324 -0.0536428 0)
(-0.00524536 -0.0503946 0)
(-0.00167114 -0.0506403 0)
(0.00333648 -0.0560691 0)
(0.00727877 -0.0551314 0)
(-0.00146019 -0.0562121 0)
(-0.000123026 -0.0600428 0)
(0.00380033 -0.0613891 0)
(0.00229884 -0.0595108 0)
(0.00233093 -0.0583959 0)
(0.00226344 -0.0568511 0)
(0.00218207 -0.0548094 0)
(0.00626804 -0.056418 0)
(0.00266939 -0.058059 0)
(0.00227681 -0.0552478 0)
(-0.0031402 -0.0600953 0)
(-0.00355093 -0.0538142 0)
(-0.00585716 -0.0553177 0)
(-0.00261968 -0.0559004 0)
(-0.00132505 -0.0554438 0)
(0.000553688 -0.0509179 0)
(-0.000579956 -0.0496886 0)
(0.00113583 -0.0495824 0)
(0.00278619 -0.0523858 0)
(0.00405318 -0.0505408 0)
(0.00238378 -0.0484956 0)
(0.00193653 -0.0456657 0)
(-0.000467832 -0.0546688 0)
(-0.00564723 -0.0567022 0)
(-0.0013422 -0.0543005 0)
(-0.00193535 -0.0549591 0)
(-0.00242662 -0.0569436 0)
(-0.00336761 -0.0552446 0)
(-0.0030209 -0.0496659 0)
(-0.000934851 -0.0558431 0)
(0.00200075 -0.0543561 0)
(0.00435452 -0.0518552 0)
(0.00568956 -0.0491202 0)
(0.00470037 -0.0500067 0)
(-0.00161702 -0.0506033 0)
(-0.00214016 -0.0487646 0)
(0.00218093 -0.043597 0)
(0.00577096 -0.0430319 0)
(0.00275854 -0.04222 0)
(-0.000609233 -0.0457592 0)
(-0.00521795 -0.0490082 0)
(-0.00634236 -0.0444338 0)
(-0.00299232 -0.0462472 0)
(0.000990991 -0.0512825 0)
(-0.00112425 -0.0481816 0)
(-0.00103852 -0.0474803 0)
(-0.000586327 -0.0504864 0)
(-0.00249997 -0.047301 0)
(-0.00458275 -0.0480325 0)
(-0.00068039 -0.0492518 0)
(0.00239101 -0.0517739 0)
(0.00200928 -0.0508676 0)
(0.00224352 -0.0476784 0)
(0.0042266 -0.0497549 0)
(-0.000359077 -0.0500781 0)
(-0.00455795 -0.053211 0)
(-0.00552577 -0.0504555 0)
(0.00529669 -0.0448757 0)
(0.00681348 -0.0465815 0)
(0.00135522 -0.0476928 0)
(-0.00053631 -0.049752 0)
(0.00287782 -0.0415641 0)
(0.00268278 -0.0426282 0)
(0.00114926 -0.0443977 0)
(0.0051314 -0.0452381 0)
(0.000726986 -0.0483056 0)
(-0.00221004 -0.0457078 0)
(-0.00176956 -0.0465816 0)
(0.00109921 -0.0494616 0)
(0.00468624 -0.0547801 0)
(0.00383817 -0.0538456 0)
(0.00337111 -0.052122 0)
(0.00270092 -0.0553403 0)
(0.00208448 -0.0566353 0)
(0.000969127 -0.0551171 0)
(0.000440501 -0.0542405 0)
(0.00242813 -0.0537524 0)
(0.00321022 -0.0504932 0)
(0.00280744 -0.0503557 0)
(0.00116722 -0.0563548 0)
(-0.000734209 -0.0548966 0)
(-0.00597772 -0.0568497 0)
(-0.00748872 -0.053607 0)
(-0.00285135 -0.0511331 0)
(-0.00110776 -0.0506091 0)
(0.000265474 -0.0498383 0)
(0.000852054 -0.0521725 0)
(-6.52041e-05 -0.0541737 0)
(0.00233562 -0.0519579 0)
(0.00124896 -0.0527871 0)
(0.00226921 -0.0504453 0)
(0.00465806 -0.046445 0)
(0.00499119 -0.0481093 0)
(0.00368611 -0.0461168 0)
(-0.000614555 -0.0503838 0)
(-0.00242358 -0.0502502 0)
(-0.00197277 -0.0483604 0)
(-0.00531658 -0.0533741 0)
(-0.0054228 -0.0502199 0)
(-0.00183293 -0.048345 0)
(0.000285867 -0.0528574 0)
(-0.00182925 -0.0561471 0)
(0.000310759 -0.0506448 0)
(0.000786604 -0.0486871 0)
(0.00313551 -0.0471094 0)
(-0.000539361 -0.0473308 0)
(-0.00389375 -0.0469999 0)
(-0.00126814 -0.0475155 0)
(0.000982121 -0.044479 0)
(0.00220346 -0.0367509 0)
(0.000239009 -0.0378406 0)
(-0.000763354 -0.0404016 0)
(0.00269601 -0.0464837 0)
(0.000498205 -0.0479164 0)
(0.000101742 -0.0503269 0)
(0.000979755 -0.0488719 0)
(0.0018284 -0.0520681 0)
(0.000978096 -0.0518787 0)
(-0.000186783 -0.048744 0)
(0.000678805 -0.0472765 0)
(0.00162819 -0.0497667 0)
(0.00230346 -0.0502606 0)
(0.00195026 -0.0523395 0)
(0.000929831 -0.0543311 0)
(0.00409307 -0.0529508 0)
(-0.000160305 -0.0512159 0)
(-0.00552055 -0.0517015 0)
(-0.00635366 -0.0514183 0)
(-0.0031333 -0.05351 0)
(0.0029585 -0.0504761 0)
(0.00427313 -0.0479314 0)
(-0.0028617 -0.0505163 0)
(-0.00428686 -0.0513891 0)
(-0.00137619 -0.0484733 0)
(0.0024011 -0.0468958 0)
(0.00600472 -0.0465866 0)
(0.00414593 -0.0489297 0)
(0.00252389 -0.0440201 0)
(0.0032631 -0.0453478 0)
(0.00396028 -0.0480117 0)
(0.00592352 -0.0517667 0)
(0.00494874 -0.0539613 0)
(0.00274852 -0.0533441 0)
(0.00146513 -0.0541933 0)
(0.0019581 -0.0541268 0)
(-0.00115976 -0.0530435 0)
(0.000258987 -0.0517163 0)
(0.00412422 -0.0507375 0)
(0.00416952 -0.0487295 0)
(0.00611995 -0.0506231 0)
(0.000529988 -0.0570301 0)
(-0.00418118 -0.0494192 0)
(-0.00600365 -0.0504442 0)
(-0.00816002 -0.0538622 0)
(-0.00407399 -0.0515581 0)
(-6.85761e-05 -0.0565821 0)
(0.00207541 -0.050166 0)
(0.00206252 -0.0544379 0)
(-0.000196878 -0.0555272 0)
(-0.000729693 -0.052606 0)
(-0.00264625 -0.0536583 0)
(-0.00111491 -0.0508801 0)
(0.00224797 -0.048706 0)
(0.00379527 -0.0487414 0)
(0.00327099 -0.0473073 0)
(0.00297954 -0.0505357 0)
(-0.000620839 -0.0503223 0)
(-0.0028714 -0.0513026 0)
(-0.00451282 -0.0508081 0)
(-0.00451611 -0.0505093 0)
(-0.00120341 -0.0550829 0)
(-0.000671161 -0.0512005 0)
(-0.000682848 -0.0504332 0)
(-0.000397629 -0.0482702 0)
(0.000993733 -0.0535867 0)
(0.00222463 -0.0499427 0)
(-0.00223923 -0.0473415 0)
(-0.0055158 -0.0464536 0)
(-0.00532612 -0.0473004 0)
(-0.00451497 -0.0432792 0)
(0.000591351 -0.0404626 0)
(0.00623377 -0.0400863 0)
(0.0063278 -0.0419462 0)
(0.00610958 -0.0474907 0)
(0.00258267 -0.0492021 0)
(0.000263276 -0.0543882 0)
(0.00202785 -0.0539449 0)
(-0.00150726 -0.0519233 0)
(-0.00185636 -0.0508493 0)
(0.00132008 -0.0504889 0)
(0.00231213 -0.0510167 0)
(0.00381422 -0.0473178 0)
(0.00313919 -0.0462641 0)
(0.00136117 -0.0554503 0)
(0.0011022 -0.0503589 0)
(-0.00366047 -0.0502279 0)
(-0.00485156 -0.0529447 0)
(-0.00795645 -0.0493451 0)
(-0.00507981 -0.0546366 0)
(-0.000844819 -0.0556419 0)
(0.00172334 -0.052672 0)
(-0.000220478 -0.0487268 0)
(-0.00235192 -0.0512544 0)
(-0.00176186 -0.0522297 0)
(0.000626879 -0.0546638 0)
(0.00101068 -0.0500964 0)
(0.00338783 -0.0493483 0)
(0.00332913 -0.0462868 0)
(0.00640537 -0.0483791 0)
(0.00769089 -0.0502173 0)
(0.00835358 -0.0550921 0)
(0.00599313 -0.0528743 0)
(0.00338542 -0.0511009 0)
(0.000168484 -0.0539662 0)
(-0.000126163 -0.0504802 0)
(-0.00229475 -0.0500206 0)
(-0.000139207 -0.0471902 0)
(0.00247691 -0.0469691 0)
(0.00286487 -0.0461678 0)
(4.23895e-05 -0.0432373 0)
(-0.00344064 -0.0391586 0)
(-0.00709837 -0.0431803 0)
(-0.00451169 -0.0432212 0)
(-0.00374428 -0.0430292 0)
(-0.00198676 -0.0518508 0)
(6.47291e-05 -0.0578491 0)
(0.0027159 -0.0528376 0)
(0.00124916 -0.0512613 0)
(-0.00202996 -0.0513209 0)
(-0.00359485 -0.0536491 0)
(-0.00414867 -0.0504724 0)
(-0.00285443 -0.0496532 0)
(0.00064759 -0.0502401 0)
(0.00292231 -0.0500073 0)
(0.00528845 -0.0537788 0)
(0.00606715 -0.0511668 0)
(0.000685615 -0.050513 0)
(-0.00339182 -0.0534052 0)
(-0.00617965 -0.0501368 0)
(-0.00373651 -0.0478847 0)
(-0.000960906 -0.0547657 0)
(-0.00228448 -0.0514101 0)
(-0.000990481 -0.0488247 0)
(0.000181156 -0.0505279 0)
(-0.000450466 -0.0557126 0)
(-0.000413374 -0.0489848 0)
(-0.00576118 -0.044265 0)
(-0.00750831 -0.042749 0)
(-0.00790173 -0.0466392 0)
(-0.00592778 -0.0459994 0)
(-0.00298733 -0.0468005 0)
(0.00257857 -0.0488718 0)
(0.00845801 -0.0474525 0)
(0.00899978 -0.0469669 0)
(0.00506747 -0.0505351 0)
(0.000736272 -0.050492 0)
(0.000576044 -0.0538214 0)
(-0.0031796 -0.0515867 0)
(-0.00140169 -0.0511417 0)
(0.00145091 -0.0524044 0)
(0.00142854 -0.0551239 0)
(0.000422574 -0.0491277 0)
(0.00346028 -0.0500358 0)
(0.00522102 -0.0513188 0)
(0.00366533 -0.0508075 0)
(0.000982934 -0.0507265 0)
(-0.000213735 -0.0486096 0)
(-0.00527113 -0.0517427 0)
(-0.00536522 -0.0581946 0)
(-0.00338998 -0.05664 0)
(-0.00144952 -0.0514906 0)
(0.000376994 -0.049748 0)
(-0.00384878 -0.0552218 0)
(-0.00513316 -0.0581375 0)
(-0.00255782 -0.0560042 0)
(-0.00218874 -0.0531062 0)
(0.00152871 -0.0522063 0)
(0.00561662 -0.0540119 0)
(0.00828608 -0.0556091 0)
(0.00904912 -0.053018 0)
(0.00849365 -0.0539956 0)
(0.00473582 -0.0495512 0)
(0.000709331 -0.0470987 0)
(-0.000414945 -0.0492806 0)
(-0.00250902 -0.0489606 0)
(-0.00697962 -0.0433229 0)
(0.000977487 -0.038658 0)
(0.00393086 -0.035714 0)
(0.00221072 -0.043607 0)
(-0.00128019 -0.036836 0)
(-6.57349e-05 -0.0426123 0)
(0.00381279 -0.0480158 0)
(0.00459916 -0.0482281 0)
(0.0056194 -0.0431948 0)
(0.00443535 -0.0492948 0)
(-8.18574e-05 -0.0565762 0)
(-0.00282467 -0.0520854 0)
(-0.00276358 -0.0473701 0)
(-0.00285453 -0.0497034 0)
(-0.00415168 -0.0494869 0)
(-0.00298154 -0.0495274 0)
(-0.000436278 -0.0492219 0)
(0.00134052 -0.0536042 0)
(0.00240317 -0.0523923 0)
(0.00403337 -0.0550235 0)
(0.00401572 -0.0493209 0)
(-0.000948559 -0.0476944 0)
(-0.0041428 -0.0489723 0)
(-0.005017 -0.0482667 0)
(-0.00375076 -0.0463409 0)
(0.000178636 -0.0504837 0)
(0.000585657 -0.0550453 0)
(0.000728362 -0.0515894 0)
(0.0011212 -0.0502707 0)
(-0.00247883 -0.0550031 0)
(-0.00591116 -0.0498821 0)
(-0.00631942 -0.0480888 0)
(-0.0037151 -0.0535209 0)
(-0.00467976 -0.0502753 0)
(-0.00501644 -0.0507689 0)
(-0.00259962 -0.0472809 0)
(0.00255236 -0.0511334 0)
(0.00531049 -0.055169 0)
(0.00752495 -0.0507074 0)
(0.00610113 -0.0499564 0)
(0.0015504 -0.0486182 0)
(0.00469873 -0.0457113 0)
(0.00372493 -0.0471369 0)
(0.00373292 -0.0455902 0)
(0.00222612 -0.0494701 0)
(0.000889114 -0.0525924 0)
(-0.0008394 -0.0555692 0)
(-0.00119793 -0.0525384 0)
(0.000843617 -0.0528969 0)
(0.00447493 -0.0552975 0)
(0.00398156 -0.0514556 0)
(0.00156866 -0.051217 0)
(0.000764302 -0.0486733 0)
(-0.00230753 -0.0493556 0)
(-0.00567432 -0.0545823 0)
(-0.00648804 -0.0520592 0)
(0.000867224 -0.050552 0)
(0.00501619 -0.0517165 0)
(0.00202693 -0.050635 0)
(-0.00214505 -0.0516132 0)
(-0.00426575 -0.05537 0)
(-0.00257206 -0.0532428 0)
(0.00134498 -0.0519591 0)
(0.00317321 -0.0529736 0)
(0.00453401 -0.0519279 0)
(0.00391057 -0.0469404 0)
(0.00332844 -0.0427587 0)
(0.00204033 -0.0454757 0)
(-0.00435775 -0.0431626 0)
(-0.00743823 -0.0424904 0)
(-0.00622595 -0.0396219 0)
(-0.0090267 -0.0444292 0)
(-0.00588365 -0.0477926 0)
(-0.00090717 -0.0474628 0)
(0.00537855 -0.0468766 0)
(0.00522646 -0.0481458 0)
(0.00503941 -0.0468972 0)
(0.00323098 -0.051964 0)
(0.00581857 -0.0479233 0)
(0.00795949 -0.0457766 0)
(0.00343495 -0.0484388 0)
(-0.00512274 -0.0479077 0)
(-0.00765854 -0.0446635 0)
(-0.00606857 -0.0462203 0)
(-0.00286609 -0.0464167 0)
(-0.00333216 -0.0477169 0)
(-0.000965682 -0.048027 0)
(0.000771183 -0.0484304 0)
(0.00307057 -0.0533716 0)
(0.00195383 -0.0531002 0)
(-0.00177129 -0.0539153 0)
(-0.00383959 -0.050844 0)
(0.000107443 -0.04421 0)
(-0.00133359 -0.0443208 0)
(0.00501749 -0.0448265 0)
(0.00467997 -0.04892 0)
(0.0026855 -0.0495062 0)
(-0.000864041 -0.0557471 0)
(-0.00356201 -0.0498335 0)
(-0.00247631 -0.0477843 0)
(-0.00414091 -0.0488308 0)
(-0.00293677 -0.0461832 0)
(-0.00174511 -0.0527716 0)
(-0.0018505 -0.0561937 0)
(-0.00563302 -0.0526255 0)
(-0.00503501 -0.0522341 0)
(0.000484166 -0.0614452 0)
(0.00156029 -0.0636852 0)
(0.00333734 -0.0644828 0)
(0.0039802 -0.0575136 0)
(0.00306158 -0.0546907 0)
(0.00705405 -0.0489644 0)
(0.00729547 -0.0486434 0)
(0.00731898 -0.046043 0)
(0.00576365 -0.0487072 0)
(0.000937242 -0.0532365 0)
(-0.00134247 -0.0522127 0)
(-0.00149855 -0.0498277 0)
(0.00094727 -0.0558013 0)
(0.00237269 -0.0544371 0)
(0.00120471 -0.0524327 0)
(0.000630424 -0.0514589 0)
(0.00214898 -0.0488505 0)
(-0.00190183 -0.0477467 0)
(-0.00363515 -0.0502354 0)
(-0.00570221 -0.0511885 0)
(-0.00241934 -0.0550892 0)
(0.0014993 -0.0511016 0)
(0.00129863 -0.0477384 0)
(-0.00119706 -0.0495946 0)
(-0.00253849 -0.0500614 0)
(-0.00161219 -0.0484327 0)
(0.00113315 -0.0509828 0)
(0.00173546 -0.0538897 0)
(0.0015535 -0.0496429 0)
(0.000430663 -0.0477042 0)
(0.000641791 -0.0469901 0)
(0.00497807 -0.0455281 0)
(-0.00274886 -0.040175 0)
(-0.00327275 -0.0424669 0)
(-0.0041677 -0.0481804 0)
(-0.00260418 -0.0485446 0)
(-0.00203481 -0.049512 0)
(-0.000593528 -0.0538601 0)
(0.00231566 -0.0536758 0)
(0.00511205 -0.0486216 0)
(0.00513115 -0.0490137 0)
(0.00211224 -0.0525293 0)
(-0.00204889 -0.0482994 0)
(0.0016564 -0.0398596 0)
(-0.0033971 -0.0365505 0)
(-0.00555667 -0.0395016 0)
(-0.00666289 -0.0435594 0)
(0.000834896 -0.0490613 0)
(0.00263838 -0.0487284 0)
(0.00534894 -0.0501187 0)
(0.00445733 -0.0482304 0)
(0.00159225 -0.0495669 0)
(0.00287337 -0.0532616 0)
(0.0014559 -0.0501437 0)
(-0.00377347 -0.0500533 0)
(-0.00636025 -0.0498011 0)
(-0.00586836 -0.0481691 0)