/*--------------------------------*- C++ -*----------------------------------*\
  =========                 |
  \\      /  F ield         | OpenFOAM: The Open Source CFD Toolbox
   \\    /   O peration     | Website:  https://openfoam.org
    \\  /    A nd           | Version:  12
     \\/     M anipulation  |
\*---------------------------------------------------------------------------*/
FoamFile
{
    format      ascii;
    class       volVectorField::Internal;
    location    "0.6";
    object      cloud:UTrans;
}
// * * * * * * * * * * * * * * * * * * * * * * * * * * * * * * * * * * * * * //

dimensions      [1 1 -1 0 0 0 0];

value           nonuniform List<vector> 
3750
(
(-4.51133e-14 -1.82802e-11 0)
(-2.55721e-12 -8.75987e-10 0)
(-8.35776e-12 -9.56612e-10 0)
(-7.48591e-12 -9.6963e-10 0)
(-8.12881e-12 -9.3325e-10 0)
(3.0335e-12 -8.07872e-10 0)
(-8.82738e-12 -8.87659e-10 0)
(-1.42742e-11 -8.33499e-10 0)
(1.54529e-12 -1.03725e-09 0)
(-4.24055e-12 -1.03962e-09 0)
(-8.63825e-13 -1.06386e-09 0)
(-4.01984e-12 -9.94185e-10 0)
(-2.91012e-11 -2.04917e-09 0)
(3.47896e-11 -1.80666e-09 0)
(3.83796e-12 -7.63654e-10 0)
(2.22283e-11 -8.21041e-10 0)
(-8.0722e-12 -9.24046e-10 0)
(-8.59624e-12 -9.33521e-10 0)
(-3.99062e-12 -9.5282e-10 0)
(-1.90544e-12 -9.66811e-10 0)
(-5.55967e-12 -9.90506e-10 0)
(7.52831e-12 -1.01744e-09 0)
(-2.71675e-12 -9.68695e-10 0)
(-4.1679e-11 -1.98123e-09 0)
(-1.84867e-11 -8.38705e-10 0)
(-2.2792e-11 -8.6685e-10 0)
(8.38795e-12 -8.79583e-10 0)
(-2.39186e-11 -1.11955e-09 0)
(-2.53107e-11 -8.79416e-10 0)
(1.58383e-11 -8.38475e-10 0)
(-1.45133e-11 -9.08057e-10 0)
(4.28794e-12 -9.01015e-10 0)
(-2.79602e-12 -9.42886e-10 0)
(1.38105e-11 -8.98942e-10 0)
(2.72596e-11 -2.03989e-09 0)
(1.34221e-11 -9.16079e-10 0)
(0 0 0)
(-4.67728e-11 -1.82234e-09 0)
(-4.45094e-11 -1.20568e-09 0)
(0 0 0)
(4.57886e-12 -8.88894e-10 0)
(-1.45212e-12 -9.27181e-10 0)
(2.24704e-11 -9.22753e-10 0)
(1.36082e-11 -9.31157e-10 0)
(-1.13549e-10 -1.25188e-09 0)
(-8.16852e-11 -1.71667e-09 0)
(-1.55567e-11 -9.1349e-10 0)
(-1.54705e-11 -9.23427e-10 0)
(2.38924e-11 -9.04621e-10 0)
(5.70316e-14 -1.4323e-10 0)
(2.11668e-13 -6.56828e-10 0)
(-2.63938e-12 -8.89547e-10 0)
(-8.19434e-11 -1.98722e-09 0)
(-2.38649e-13 -8.05817e-10 0)
(0 0 0)
(0 0 0)
(0 0 0)
(0 0 0)
(0 0 0)
(0 0 0)
(0 0 0)
(0 0 0)
(0 0 0)
(0 0 0)
(0 0 0)
(0 0 0)
(0 0 0)
(0 0 0)
(0 0 0)
(0 0 0)
(0 0 0)
(0 0 0)
(0 0 0)
(0 0 0)
(0 0 0)
(0 0 0)
(4.78756e-12 -9.81952e-10 0)
(-2.51932e-12 -9.88057e-10 0)
(-1.67809e-11 -8.68351e-10 0)
(-1.75297e-11 -9.07177e-10 0)
(-5.1199e-11 -2.20993e-09 0)
(5.01139e-11 -9.82365e-10 0)
(0 0 0)
(3.28254e-11 -1.05018e-09 0)
(0 0 0)
(2.00132e-11 -1.00662e-09 0)
(1.14875e-11 -9.38911e-10 0)
(2.2038e-11 -8.72449e-10 0)
(-7.54323e-13 -8.29598e-10 0)
(-1.98644e-10 -3.17044e-09 0)
(-1.00593e-10 -1.74312e-09 0)
(-9.88013e-11 -2.04208e-09 0)
(-1.37767e-12 -8.49718e-10 0)
(0 0 0)
(0 0 0)
(0 0 0)
(5.37966e-12 -9.60477e-10 0)
(2.91035e-11 -9.56699e-10 0)
(3.02384e-11 -9.29885e-10 0)
(-1.02314e-11 -9.37489e-10 0)
(0 0 0)
(5.08425e-12 -2.00015e-09 0)
(3.41452e-12 -2.47868e-09 0)
(0 0 0)
(0 0 0)
(0 0 0)
(-1.35259e-11 -9.27924e-10 0)
(-7.96613e-11 -1.95306e-09 0)
(-5.84234e-11 -1.76768e-09 0)
(-2.76468e-11 -1.71664e-09 0)
(-2.00352e-11 -7.77361e-10 0)
(6.08902e-11 -1.07073e-09 0)
(0 0 0)
(0 0 0)
(-6.24196e-11 -9.17694e-10 0)
(1.4488e-11 -9.29914e-10 0)
(5.79435e-11 -1.71618e-09 0)
(3.79439e-11 -1.09194e-09 0)
(-4.09374e-11 -9.67867e-10 0)
(-1.7537e-12 -9.32698e-10 0)
(-7.06741e-12 -9.38578e-10 0)
(1.24709e-11 -9.38655e-10 0)
(0 0 0)
(-3.66465e-11 -2.07549e-09 0)
(0 0 0)
(0 0 0)
(0 0 0)
(0 0 0)
(0 0 0)
(0 0 0)
(0 0 0)
(0 0 0)
(0 0 0)
(0 0 0)
(0 0 0)
(0 0 0)
(0 0 0)
(0 0 0)
(0 0 0)
(0 0 0)
(0 0 0)
(0 0 0)
(0 0 0)
(0 0 0)
(0 0 0)
(0 0 0)
(0 0 0)
(0 0 0)
(0 0 0)
(0 0 0)
(0 0 0)
(1.85743e-11 -9.9069e-10 0)
(3.24787e-11 -2.1272e-09 0)
(0 0 0)
(0 0 0)
(-3.39658e-12 -8.57461e-10 0)
(2.73933e-11 -9.72024e-10 0)
(1.48505e-11 -1.05527e-09 0)
(1.50222e-10 -2.00736e-09 0)
(-1.36117e-11 -1.04177e-09 0)
(-1.83266e-11 -1.00393e-09 0)
(0 0 0)
(-4.552e-12 -9.51699e-10 0)
(0 0 0)
(-3.09115e-11 -1.79151e-09 0)
(-4.02155e-11 -8.44643e-10 0)
(0 0 0)
(-6.19682e-11 -8.44871e-10 0)
(2.09357e-11 -9.1192e-10 0)
(2.01791e-11 -9.60755e-10 0)
(4.04187e-11 -9.9306e-10 0)
(3.66467e-11 -9.48888e-10 0)
(3.56951e-11 -9.52909e-10 0)
(0 0 0)
(-2.39894e-11 -1.96205e-09 0)
(-1.5523e-10 -1.91942e-09 0)
(-2.19789e-10 -2.10954e-09 0)
(-7.80044e-11 -9.51419e-10 0)
(2.64116e-11 -1.37976e-09 0)
(1.84888e-11 -6.0376e-10 0)
(4.12033e-12 -9.79579e-10 0)
(-3.10036e-12 -9.19606e-10 0)
(-2.70671e-11 -1.93381e-09 0)
(-2.97025e-11 -9.51347e-10 0)
(0 0 0)
(-3.14968e-12 -7.98279e-10 0)
(-3.4653e-11 -2.50839e-09 0)
(0 0 0)
(-8.92148e-13 -9.67817e-10 0)
(9.28154e-12 -9.17806e-10 0)
(9.7773e-12 -8.88848e-10 0)
(-2.08712e-11 -9.26554e-10 0)
(3.36639e-11 -2.29465e-09 0)
(-4.1808e-11 -9.07272e-10 0)
(-1.41478e-11 -8.63886e-10 0)
(-2.12117e-11 -9.63308e-10 0)
(-1.84012e-11 -7.86124e-10 0)
(0 0 0)
(0 0 0)
(0 0 0)
(0 0 0)
(0 0 0)
(0 0 0)
(0 0 0)
(0 0 0)
(0 0 0)
(0 0 0)
(0 0 0)
(0 0 0)
(0 0 0)
(0 0 0)
(0 0 0)
(0 0 0)
(0 0 0)
(0 0 0)
(0 0 0)
(0 0 0)
(0 0 0)
(0 0 0)
(0 0 0)
(0 0 0)
(0 0 0)
(0 0 0)
(0 0 0)
(0 0 0)
(1.35964e-12 -9.42003e-10 0)
(0 0 0)
(4.57195e-11 -1.01892e-09 0)
(-4.65551e-11 -9.84717e-10 0)
(0 0 0)
(-6.85712e-11 -2.12509e-09 0)
(-8.09118e-12 -8.96232e-10 0)
(0 0 0)
(4.78867e-11 -1.07778e-09 0)
(0 0 0)
(-1.75659e-11 -9.70448e-10 0)
(-9.43277e-12 -9.43841e-10 0)
(0 0 0)
(-2.93122e-11 -2.14786e-09 0)
(-1.41525e-11 -7.70171e-10 0)
(-1.48698e-11 -8.48031e-10 0)
(-4.35099e-11 -8.67913e-10 0)
(-3.15349e-11 -9.47117e-10 0)
(-1.77544e-11 -9.57777e-10 0)
(7.10263e-12 -9.55184e-10 0)
(3.43404e-12 -9.01956e-10 0)
(1.63377e-11 -1.97703e-09 0)
(7.6494e-11 -2.00111e-09 0)
(2.06963e-11 -1.87913e-09 0)
(-5.06743e-12 -9.1026e-10 0)
(-7.29642e-11 -9.66391e-10 0)
(-1.0288e-10 -9.9208e-10 0)
(-6.9256e-11 -9.91188e-10 0)
(-1.71905e-11 -1.48409e-09 0)
(4.37708e-12 -5.12685e-10 0)
(4.78955e-13 -9.76623e-10 0)
(7.31951e-13 -9.43821e-10 0)
(5.11145e-12 -9.14498e-10 0)
(-1.54227e-11 -9.22883e-10 0)
(-1.45867e-11 -8.85338e-10 0)
(-4.24877e-11 -9.07392e-10 0)
(-4.65933e-11 -9.8672e-10 0)
(2.76544e-11 -9.901e-10 0)
(1.45196e-11 -9.51368e-10 0)
(-1.28448e-11 -9.21606e-10 0)
(-3.1563e-11 -9.03608e-10 0)
(-5.3897e-11 -9.07863e-10 0)
(5.86063e-11 -2.38701e-09 0)
(1.60356e-12 -9.35901e-10 0)
(-2.67043e-11 -8.53908e-10 0)
(0 0 0)
(0 0 0)
(0 0 0)
(0 0 0)
(0 0 0)
(0 0 0)
(0 0 0)
(0 0 0)
(0 0 0)
(0 0 0)
(0 0 0)
(0 0 0)
(0 0 0)
(0 0 0)
(0 0 0)
(0 0 0)
(0 0 0)
(0 0 0)
(0 0 0)
(0 0 0)
(0 0 0)
(0 0 0)
(0 0 0)
(0 0 0)
(0 0 0)
(0 0 0)
(0 0 0)
(0 0 0)
(0 0 0)
(0 0 0)
(0 0 0)
(2.69985e-11 -8.97132e-10 0)
(1.44793e-11 -1.15757e-09 0)
(0 0 0)
(5.63512e-11 -9.13491e-10 0)
(-9.85713e-13 -8.66599e-10 0)
(1.64977e-11 -8.11954e-10 0)
(2.31646e-11 -8.68698e-10 0)
(1.90861e-11 -1.01239e-09 0)
(6.53685e-11 -1.1296e-09 0)
(3.19942e-12 -1.79096e-10 0)
(1.11447e-11 -6.6833e-10 0)
(-2.43776e-11 -9.81513e-10 0)
(0 0 0)
(-2.15658e-11 -1.99564e-09 0)
(-2.26212e-11 -8.5459e-10 0)
(-3.48804e-11 -8.39639e-10 0)
(-3.64782e-11 -8.78484e-10 0)
(-3.51089e-11 -8.92536e-10 0)
(-1.58637e-11 -2.10795e-09 0)
(-1.43992e-11 -8.45011e-10 0)
(-2.80357e-11 -8.84221e-10 0)
(-1.31001e-11 -8.6327e-10 0)
(4.61114e-11 -9.07949e-10 0)
(2.38466e-11 -1.15067e-09 0)
(0 0 0)
(-3.54958e-11 -1.03005e-09 0)
(-3.81341e-11 -9.88439e-10 0)
(-2.08129e-11 -9.97614e-10 0)
(1.16549e-11 -9.68955e-10 0)
(-3.13928e-11 -9.61305e-10 0)
(-2.15297e-11 -9.35914e-10 0)
(-4.12144e-11 -9.57137e-10 0)
(-2.5692e-11 -2.20653e-09 0)
(-2.73564e-11 -8.61254e-10 0)
(-2.56923e-12 -8.89597e-10 0)
(1.24938e-12 -9.22693e-10 0)
(1.6718e-11 -9.5272e-10 0)
(7.17075e-12 -9.44222e-10 0)
(0 0 0)
(0 0 0)
(0 0 0)
(-9.38881e-11 -2.2513e-09 0)
(5.78318e-11 -1.0226e-09 0)
(-3.92779e-11 -9.47473e-10 0)
(-4.9433e-11 -8.37466e-10 0)
(0 0 0)
(0 0 0)
(0 0 0)
(0 0 0)
(0 0 0)
(0 0 0)
(0 0 0)
(0 0 0)
(0 0 0)
(0 0 0)
(0 0 0)
(0 0 0)
(0 0 0)
(0 0 0)
(0 0 0)
(0 0 0)
(0 0 0)
(0 0 0)
(0 0 0)
(0 0 0)
(0 0 0)
(0 0 0)
(0 0 0)
(0 0 0)
(0 0 0)
(0 0 0)
(0 0 0)
(0 0 0)
(0 0 0)
(-3.28983e-12 -8.99751e-10 0)
(1.65389e-11 -1.03786e-09 0)
(0 0 0)
(3.39864e-11 -1.13767e-09 0)
(1.99071e-11 -9.12064e-10 0)
(3.24839e-11 -9.10482e-10 0)
(3.01288e-11 -9.57071e-10 0)
(0 0 0)
(1.09082e-11 -9.69095e-10 0)
(6.50717e-11 -1.05097e-09 0)
(1.2885e-10 -1.07948e-09 0)
(2.64763e-11 -1.03929e-09 0)
(-1.21846e-11 -9.76579e-10 0)
(3.76726e-12 -8.7134e-10 0)
(-6.0267e-11 -8.44782e-10 0)
(-6.46527e-11 -1.99135e-09 0)
(-3.1007e-11 -7.95355e-10 0)
(-3.82346e-11 -8.57708e-10 0)
(-4.77894e-11 -8.92035e-10 0)
(-4.93516e-11 -9.08544e-10 0)
(-4.62568e-11 -9.16005e-10 0)
(-2.78664e-12 -8.80064e-10 0)
(7.87511e-12 -9.1232e-10 0)
(-2.70683e-12 -8.87391e-10 0)
(1.69267e-11 -2.74762e-09 0)
(0 0 0)
(3.49088e-11 -1.0472e-09 0)
(-1.86536e-11 -9.69555e-10 0)
(-3.81108e-11 -9.97347e-10 0)
(-3.69346e-11 -9.7339e-10 0)
(-3.64772e-11 -9.5058e-10 0)
(-4.59105e-11 -9.48952e-10 0)
(-4.49384e-11 -9.51518e-10 0)
(-2.53796e-11 -9.52311e-10 0)
(-2.91088e-11 -9.53758e-10 0)
(-2.92474e-11 -9.47943e-10 0)
(-1.30558e-11 -9.58252e-10 0)
(-9.69532e-12 -9.51565e-10 0)
(-3.82844e-12 -8.94526e-10 0)
(-5.0813e-12 -9.37336e-10 0)
(5.13115e-12 -9.17981e-10 0)
(-7.86461e-11 -1.95263e-09 0)
(0 0 0)
(1.37275e-11 -1.16223e-09 0)
(0 0 0)
(-9.53509e-12 -9.21885e-10 0)
(0 0 0)
(0 0 0)
(0 0 0)
(0 0 0)
(0 0 0)
(0 0 0)
(0 0 0)
(0 0 0)
(0 0 0)
(0 0 0)
(0 0 0)
(0 0 0)
(0 0 0)
(0 0 0)
(0 0 0)
(0 0 0)
(0 0 0)
(0 0 0)
(0 0 0)
(0 0 0)
(0 0 0)
(0 0 0)
(0 0 0)
(0 0 0)
(0 0 0)
(0 0 0)
(0 0 0)
(0 0 0)
(0 0 0)
(1.55031e-11 -8.91679e-10 0)
(5.24717e-11 -9.06934e-10 0)
(4.15994e-11 -1.03023e-09 0)
(7.00799e-11 -9.5312e-10 0)
(6.00108e-11 -8.917e-10 0)
(3.86993e-11 -9.07535e-10 0)
(3.72079e-11 -9.39205e-10 0)
(6.20302e-11 -9.70985e-10 0)
(7.70694e-11 -1.00854e-09 0)
(3.78196e-11 -9.93526e-10 0)
(7.63872e-11 -2.61156e-09 0)
(-7.10597e-12 -9.73713e-10 0)
(-7.48575e-11 -7.91087e-10 0)
(-5.7775e-11 -8.25049e-10 0)
(-6.59501e-11 -1.94104e-09 0)
(-3.25689e-11 -8.5737e-10 0)
(-5.52682e-13 -1.94779e-10 0)
(-1.54503e-12 -4.82805e-10 0)
(-2.87717e-11 -9.31206e-10 0)
(-3.80798e-11 -9.41103e-10 0)
(-3.08693e-11 -9.42315e-10 0)
(1.9665e-12 -9.5362e-10 0)
(-1.83467e-11 -9.29848e-10 0)
(-5.25368e-12 -9.35063e-10 0)
(-6.06516e-12 -1.04848e-09 0)
(8.54622e-11 -1.10467e-09 0)
(-3.17675e-12 -1.03418e-09 0)
(-2.95223e-11 -9.58817e-10 0)
(-4.29907e-11 -9.54572e-10 0)
(-4.45924e-11 -9.3573e-10 0)
(-6.24554e-11 -9.34331e-10 0)
(-4.60601e-11 -9.5864e-10 0)
(-2.99273e-11 -9.91014e-10 0)
(0 0 0)
(-1.25003e-11 -9.80031e-10 0)
(-4.20832e-11 -9.60225e-10 0)
(-1.44408e-14 -2.05882e-09 0)
(-1.8969e-11 -9.00718e-10 0)
(-2.83923e-11 -8.88505e-10 0)
(-6.13746e-12 -8.50192e-10 0)
(-1.34735e-11 -2.01534e-09 0)
(-9.79597e-12 -8.85638e-10 0)
(-1.7389e-11 -9.38111e-10 0)
(-3.65323e-11 -9.59726e-10 0)
(0 0 0)
(3.56366e-11 -9.91125e-10 0)
(0 0 0)
(0 0 0)
(0 0 0)
(0 0 0)
(0 0 0)
(0 0 0)
(0 0 0)
(0 0 0)
(0 0 0)
(0 0 0)
(0 0 0)
(0 0 0)
(0 0 0)
(0 0 0)
(0 0 0)
(0 0 0)
(0 0 0)
(0 0 0)
(0 0 0)
(0 0 0)
(0 0 0)
(0 0 0)
(0 0 0)
(0 0 0)
(0 0 0)
(0 0 0)
(0 0 0)
(0 0 0)
(0 0 0)
(5.77067e-11 -9.09399e-10 0)
(3.17024e-11 -9.05232e-10 0)
(2.4798e-11 -9.771e-10 0)
(1.45932e-10 -9.57578e-10 0)
(1.17053e-10 -8.76601e-10 0)
(0 0 0)
(3.45323e-11 -9.47392e-10 0)
(3.16078e-11 -9.24326e-10 0)
(-1.27938e-11 -2.45848e-09 0)
(-2.59989e-11 -9.50025e-10 0)
(-3.28134e-11 -2.18654e-09 0)
(1.09596e-10 -1.98592e-09 0)
(-6.16946e-11 -2.09273e-09 0)
(9.68641e-13 -1.92365e-09 0)
(0 0 0)
(-7.85338e-12 -8.79329e-10 0)
(-3.15247e-11 -8.93436e-10 0)
(-1.35812e-11 -9.66956e-10 0)
(0 0 0)
(-2.40314e-11 -9.45873e-10 0)
(-1.57094e-11 -9.58924e-10 0)
(8.99746e-13 -9.77147e-10 0)
(2.38459e-13 -9.50255e-10 0)
(-1.89373e-12 -9.73899e-10 0)
(4.42204e-11 -1.01903e-09 0)
(9.83356e-11 -1.14137e-09 0)
(6.09839e-11 -1.16291e-09 0)
(-6.16894e-11 -1.06405e-09 0)
(-3.76042e-11 -9.39201e-10 0)
(-2.56177e-11 -9.60161e-10 0)
(0 0 0)
(-5.21406e-11 -9.70416e-10 0)
(-5.36962e-11 -9.35385e-10 0)
(-4.63829e-11 -9.40993e-10 0)
(-4.69839e-11 -9.78719e-10 0)
(-3.5055e-11 -9.85852e-10 0)
(-3.19601e-11 -9.5614e-10 0)
(-3.03767e-11 -9.15063e-10 0)
(-2.16078e-11 -8.87347e-10 0)
(-3.11851e-11 -8.91559e-10 0)
(-4.75388e-11 -8.99461e-10 0)
(6.50205e-12 -8.7122e-10 0)
(-7.55135e-11 -2.15276e-09 0)
(-1.1795e-11 -8.6572e-10 0)
(4.18731e-11 -9.31913e-10 0)
(3.34815e-11 -8.86653e-10 0)
(0 0 0)
(0 0 0)
(0 0 0)
(0 0 0)
(0 0 0)
(0 0 0)
(0 0 0)
(0 0 0)
(0 0 0)
(0 0 0)
(0 0 0)
(0 0 0)
(0 0 0)
(0 0 0)
(0 0 0)
(0 0 0)
(0 0 0)
(0 0 0)
(0 0 0)
(0 0 0)
(0 0 0)
(0 0 0)
(0 0 0)
(0 0 0)
(0 0 0)
(0 0 0)
(0 0 0)
(0 0 0)
(0 0 0)
(1.40767e-11 -3.4145e-10 0)
(3.85234e-11 -1.95517e-09 0)
(5.34554e-11 -1.97782e-09 0)
(1.91125e-10 -1.93203e-09 0)
(7.55401e-11 -8.04209e-10 0)
(1.28189e-10 -9.04465e-10 0)
(-4.36833e-11 -9.78103e-10 0)
(-5.79674e-11 -1.0368e-09 0)
(-8.75457e-11 -1.04888e-09 0)
(-1.61666e-11 -9.80384e-10 0)
(-5.84781e-11 -1.96002e-09 0)
(-3.56145e-11 -2.46436e-09 0)
(4.00496e-11 -9.52171e-10 0)
(0 0 0)
(5.72669e-11 -8.32743e-10 0)
(-6.8801e-13 -9.98314e-10 0)
(0 0 0)
(-1.48894e-11 -9.13819e-10 0)
(-7.76664e-12 -9.90902e-10 0)
(0 0 0)
(-9.37573e-12 -9.29121e-10 0)
(-1.44548e-11 -9.42239e-10 0)
(1.93935e-12 -9.29202e-10 0)
(1.63763e-11 -9.22396e-10 0)
(2.12055e-11 -8.88659e-10 0)
(1.08793e-10 -2.65283e-09 0)
(5.76056e-12 -1.18469e-09 0)
(0 0 0)
(-2.22556e-11 -9.30662e-10 0)
(-2.22841e-11 -9.23038e-10 0)
(-3.1697e-11 -9.57903e-10 0)
(-2.26462e-11 -9.14044e-10 0)
(-3.75471e-11 -9.40024e-10 0)
(-6.35175e-11 -9.46273e-10 0)
(-4.1803e-11 -9.92576e-10 0)
(0 0 0)
(-1.58979e-11 -9.59023e-10 0)
(-3.24846e-11 -9.65921e-10 0)
(-1.57987e-11 -9.8769e-10 0)
(-2.81859e-11 -1.00082e-09 0)
(0 0 0)
(-3.14054e-11 -9.40828e-10 0)
(-2.19499e-11 -9.63095e-10 0)
(-1.92596e-11 -9.27329e-10 0)
(3.19421e-11 -8.9092e-10 0)
(3.57607e-11 -8.58676e-10 0)
(0 0 0)
(0 0 0)
(0 0 0)
(0 0 0)
(0 0 0)
(0 0 0)
(0 0 0)
(0 0 0)
(0 0 0)
(0 0 0)
(0 0 0)
(0 0 0)
(0 0 0)
(0 0 0)
(0 0 0)
(0 0 0)
(0 0 0)
(0 0 0)
(0 0 0)
(0 0 0)
(0 0 0)
(0 0 0)
(0 0 0)
(0 0 0)
(0 0 0)
(0 0 0)
(0 0 0)
(0 0 0)
(0 0 0)
(6.11907e-13 -8.47369e-10 0)
(2.17576e-11 -2.00124e-09 0)
(3.28088e-12 -2.01089e-09 0)
(4.50491e-11 -1.47783e-09 0)
(1.61244e-11 -1.02173e-09 0)
(1.06788e-10 -2.39425e-09 0)
(4.71885e-11 -9.75179e-10 0)
(2.79327e-12 -9.16571e-10 0)
(-6.06668e-12 -1.19511e-10 0)
(-4.00612e-11 -7.67957e-10 0)
(-7.32966e-11 -1.6721e-09 0)
(-1.30609e-11 -2.38655e-10 0)
(2.77364e-11 -1.01752e-09 0)
(5.2816e-11 -9.15773e-10 0)
(1.65398e-11 -8.77999e-10 0)
(-4.3036e-12 -9.6066e-10 0)
(0 0 0)
(-2.89075e-12 -9.36619e-10 0)
(0 0 0)
(5.09544e-12 -9.1651e-10 0)
(-1.51362e-11 -9.29606e-10 0)
(-1.16181e-11 -1.00323e-09 0)
(0 0 0)
(2.16502e-12 -2.07849e-09 0)
(-2.29224e-11 -9.19089e-10 0)
(-3.1787e-11 -1.00568e-09 0)
(5.08635e-11 -1.14994e-09 0)
(2.38362e-10 -2.5804e-09 0)
(-2.92964e-11 -8.85152e-10 0)
(-2.68747e-11 -9.60522e-10 0)
(0 0 0)
(-1.31564e-11 -8.83439e-10 0)
(-3.56132e-11 -9.37332e-10 0)
(0 0 0)
(-2.46328e-11 -8.93384e-10 0)
(-2.13357e-11 -9.19288e-10 0)
(-8.85763e-12 -1.03743e-09 0)
(0 0 0)
(-8.26819e-12 -9.30084e-10 0)
(-1.44025e-11 -1.03255e-09 0)
(0 0 0)
(-2.73456e-11 -9.67324e-10 0)
(-1.53147e-11 -9.94589e-10 0)
(-5.21175e-13 -9.40546e-10 0)
(-8.26128e-13 -8.89164e-10 0)
(2.90287e-11 -9.17332e-10 0)
(3.21268e-11 -8.90411e-10 0)
(0 0 0)
(0 0 0)
(0 0 0)
(0 0 0)
(0 0 0)
(0 0 0)
(0 0 0)
(0 0 0)
(0 0 0)
(0 0 0)
(0 0 0)
(0 0 0)
(0 0 0)
(0 0 0)
(0 0 0)
(0 0 0)
(0 0 0)
(0 0 0)
(0 0 0)
(0 0 0)
(0 0 0)
(0 0 0)
(0 0 0)
(0 0 0)
(0 0 0)
(0 0 0)
(0 0 0)
(0 0 0)
(5.12769e-12 -2.10486e-09 0)
(-3.40279e-11 -8.96884e-10 0)
(-4.18761e-11 -9.06287e-10 0)
(-4.82924e-11 -2.01661e-09 0)
(-4.85462e-11 -2.02317e-09 0)
(-3.84067e-11 -1.9459e-09 0)
(4.81355e-11 -8.78335e-10 0)
(1.58492e-10 -2.45246e-09 0)
(-4.30546e-11 -8.70161e-10 0)
(-2.10745e-11 -9.30189e-10 0)
(0 0 0)
(-5.70646e-11 -9.69239e-10 0)
(2.00668e-11 -2.09069e-09 0)
(1.69072e-11 -8.0793e-10 0)
(1.63628e-11 -7.9544e-10 0)
(0 0 0)
(6.13002e-11 -8.56313e-10 0)
(3.79715e-11 -8.87536e-10 0)
(5.11125e-11 -9.19977e-10 0)
(-9.40114e-12 -9.66126e-10 0)
(-5.71978e-11 -9.2724e-10 0)
(0 0 0)
(9.52049e-12 -9.3612e-10 0)
(0 0 0)
(3.04376e-11 -9.80442e-10 0)
(-1.3219e-11 -1.06173e-09 0)
(-3.24067e-11 -1.09099e-09 0)
(1.94776e-10 -2.73413e-09 0)
(1.37063e-11 -9.62758e-10 0)
(-1.59774e-11 -9.07019e-10 0)
(-1.94218e-11 -2.06854e-09 0)
(-8.17679e-12 -8.9549e-10 0)
(0 0 0)
(-2.45891e-12 -9.06116e-10 0)
(-8.12795e-12 -9.18304e-10 0)
(-1.40185e-11 -9.57078e-10 0)
(2.06126e-11 -1.01063e-09 0)
(0 0 0)
(3.94226e-12 -8.82243e-10 0)
(6.35642e-12 -1.02212e-09 0)
(0 0 0)
(-2.07945e-11 -9.04124e-10 0)
(0 0 0)
(-1.1862e-11 -9.38983e-10 0)
(-1.02217e-11 -8.7161e-10 0)
(-1.65251e-11 -9.38041e-10 0)
(-1.83008e-11 -9.62872e-10 0)
(-2.87033e-12 -9.01559e-10 0)
(0 0 0)
(0 0 0)
(0 0 0)
(0 0 0)
(0 0 0)
(0 0 0)
(0 0 0)
(0 0 0)
(0 0 0)
(0 0 0)
(0 0 0)
(0 0 0)
(0 0 0)
(0 0 0)
(0 0 0)
(0 0 0)
(0 0 0)
(0 0 0)
(0 0 0)
(0 0 0)
(0 0 0)
(0 0 0)
(0 0 0)
(0 0 0)
(0 0 0)
(0 0 0)
(0 0 0)
(-4.59581e-11 -9.57407e-10 0)
(-3.2756e-11 -9.60683e-10 0)
(-4.10286e-11 -9.94421e-10 0)
(-5.82723e-11 -9.80167e-10 0)
(-3.93457e-11 -9.76685e-10 0)
(-3.0055e-11 -9.36576e-10 0)
(-2.99478e-11 -1.00441e-09 0)
(-1.28333e-11 -2.50702e-09 0)
(2.95868e-11 -9.70982e-10 0)
(5.7618e-11 -9.29594e-10 0)
(-5.5019e-11 -2.065e-09 0)
(-7.4025e-11 -1.77486e-09 0)
(0 0 0)
(3.66282e-11 -9.2403e-10 0)
(2.79181e-11 -9.04884e-10 0)
(2.48656e-11 -9.64371e-10 0)
(1.28619e-11 -9.03996e-10 0)
(3.299e-11 -9.01201e-10 0)
(4.96696e-11 -9.35189e-10 0)
(1.82866e-11 -9.61868e-10 0)
(0 0 0)
(-2.48824e-11 -8.92601e-10 0)
(1.46347e-11 -8.80027e-10 0)
(3.84926e-11 -9.9615e-10 0)
(0 0 0)
(-3.62452e-12 -1.16448e-09 0)
(-6.69508e-11 -1.13687e-09 0)
(-2.4053e-11 -1.06103e-09 0)
(8.30479e-11 -1.30153e-09 0)
(-7.67405e-14 -2.2153e-09 0)
(-1.4725e-11 -8.49248e-10 0)
(-1.62347e-11 -8.39422e-10 0)
(-1.58442e-11 -8.90213e-10 0)
(-2.0842e-11 -9.05814e-10 0)
(-3.35964e-12 -9.148e-10 0)
(-1.44555e-11 -9.79186e-10 0)
(0 0 0)
(1.55352e-11 -9.13722e-10 0)
(-6.42124e-11 -2.0313e-09 0)
(5.62999e-12 -9.80414e-10 0)
(0 0 0)
(0 0 0)
(-6.60601e-11 -2.06531e-09 0)
(-7.47731e-12 -8.9555e-10 0)
(-4.07795e-13 -1.88326e-09 0)
(-3.95996e-11 -8.63479e-10 0)
(-5.21701e-11 -8.84138e-10 0)
(0 0 0)
(0 0 0)
(0 0 0)
(0 0 0)
(0 0 0)
(0 0 0)
(0 0 0)
(0 0 0)
(0 0 0)
(0 0 0)
(0 0 0)
(0 0 0)
(0 0 0)
(0 0 0)
(0 0 0)
(0 0 0)
(0 0 0)
(0 0 0)
(0 0 0)
(0 0 0)
(0 0 0)
(0 0 0)
(0 0 0)
(0 0 0)
(0 0 0)
(0 0 0)
(0 0 0)
(0 0 0)
(0 0 0)
(0 0 0)
(0 0 0)
(0 0 0)
(0 0 0)
(0 0 0)
(0 0 0)
(1.20486e-12 -1.12015e-09 0)
(1.21711e-10 -1.21412e-09 0)
(0 0 0)
(0 0 0)
(0 0 0)
(-3.98444e-11 -1.94734e-09 0)
(1.30304e-11 -8.79688e-10 0)
(1.86055e-11 -9.11621e-10 0)
(3.0928e-11 -9.36956e-10 0)
(3.10185e-11 -9.36756e-10 0)
(2.20162e-11 -9.0776e-10 0)
(1.1208e-10 -1.99918e-09 0)
(-1.14828e-10 -2.04676e-09 0)
(-3.02438e-12 -8.28617e-10 0)
(6.15459e-12 -8.31414e-10 0)
(2.49292e-11 -8.60811e-10 0)
(-2.19874e-12 -9.69876e-10 0)
(-4.29239e-11 -1.13606e-09 0)
(9.08633e-12 -1.08502e-09 0)
(2.4865e-11 -9.87721e-10 0)
(1.13641e-11 -2.96474e-10 0)
(5.06178e-11 -2.14866e-09 0)
(-7.94088e-12 -1.04564e-09 0)
(-1.57709e-11 -8.17009e-10 0)
(-1.67449e-11 -8.49341e-10 0)
(-1.4191e-11 -8.77315e-10 0)
(-1.1407e-12 -8.90084e-10 0)
(1.2373e-11 -9.05493e-10 0)
(6.84941e-12 -1.00502e-09 0)
(0 0 0)
(0 0 0)
(0 0 0)
(-3.74242e-11 -9.00332e-10 0)
(-2.03883e-11 -9.59652e-10 0)
(-1.2838e-12 -2.15027e-09 0)
(-3.85658e-11 -8.4598e-10 0)
(-6.26846e-11 -1.94021e-09 0)
(-7.61129e-11 -2.06945e-09 0)
(-2.40276e-11 -8.48754e-10 0)
(0 0 0)
(0 0 0)
(0 0 0)
(0 0 0)
(0 0 0)
(0 0 0)
(0 0 0)
(0 0 0)
(0 0 0)
(0 0 0)
(0 0 0)
(0 0 0)
(0 0 0)
(0 0 0)
(0 0 0)
(0 0 0)
(0 0 0)
(0 0 0)
(0 0 0)
(0 0 0)
(0 0 0)
(0 0 0)
(0 0 0)
(0 0 0)
(0 0 0)
(0 0 0)
(0 0 0)
(0 0 0)
(0 0 0)
(3.25426e-11 -9.27921e-10 0)
(1.82622e-11 -1.02564e-09 0)
(-1.81796e-11 -5.11404e-10 0)
(-4.54783e-12 -1.27811e-10 0)
(-5.96266e-11 -2.06948e-09 0)
(-1.29546e-12 -8.97629e-10 0)
(-1.36606e-11 -9.94201e-10 0)
(2.51463e-11 -9.14964e-10 0)
(-4.30487e-11 -9.53229e-10 0)
(3.56552e-13 -1.02346e-09 0)
(1.06366e-12 -9.06329e-10 0)
(-1.69644e-11 -1.9945e-09 0)
(-2.13124e-11 -8.68075e-10 0)
(-2.57089e-11 -9.2717e-10 0)
(-5.26599e-11 -9.34001e-10 0)
(-4.35506e-11 -9.08394e-10 0)
(-4.68795e-11 -8.71566e-10 0)
(-1.62108e-11 -8.4657e-10 0)
(-1.04935e-10 -2.22563e-09 0)
(-5.18509e-11 -8.61041e-10 0)
(1.6939e-12 -8.35146e-10 0)
(1.38842e-11 -7.71799e-10 0)
(5.00675e-11 -8.71874e-10 0)
(4.23242e-11 -9.78979e-10 0)
(-8.90475e-11 -1.07193e-09 0)
(-6.39494e-11 -1.0282e-09 0)
(9.7719e-11 -2.23519e-09 0)
(2.18736e-11 -1.1588e-09 0)
(0 0 0)
(4.97572e-11 -1.16712e-09 0)
(2.2878e-11 -9.94891e-10 0)
(1.67354e-12 -9.59885e-10 0)
(5.74689e-11 -9.19377e-10 0)
(3.08867e-11 -8.95294e-10 0)
(9.04463e-12 -9.00411e-10 0)
(1.82598e-11 -9.03031e-10 0)
(3.48496e-11 -9.30096e-10 0)
(5.33223e-11 -9.06747e-10 0)
(2.14983e-11 -9.68877e-10 0)
(0 0 0)
(0 0 0)
(-4.77341e-11 -8.9684e-10 0)
(-5.06162e-11 -1.00564e-09 0)
(-8.16828e-11 -9.45574e-10 0)
(-6.90602e-11 -9.35692e-10 0)
(0 0 0)
(0 0 0)
(0 0 0)
(0 0 0)
(0 0 0)
(0 0 0)
(0 0 0)
(0 0 0)
(0 0 0)
(0 0 0)
(0 0 0)
(0 0 0)
(0 0 0)
(0 0 0)
(0 0 0)
(0 0 0)
(0 0 0)
(0 0 0)
(0 0 0)
(0 0 0)
(0 0 0)
(0 0 0)
(0 0 0)
(0 0 0)
(0 0 0)
(0 0 0)
(0 0 0)
(0 0 0)
(0 0 0)
(0 0 0)
(-1.09052e-11 -2.77939e-10 0)
(5.1282e-11 -3.06828e-09 0)
(-2.9882e-11 -9.39914e-10 0)
(1.16112e-11 -7.78267e-10 0)
(-1.15207e-12 -8.07614e-10 0)
(-7.27617e-12 -8.41457e-10 0)
(-1.60855e-11 -9.10535e-10 0)
(-2.82615e-11 -1.17108e-09 0)
(0 0 0)
(-9.56894e-11 -1.01241e-09 0)
(1.94611e-11 -9.18578e-10 0)
(5.43766e-11 -9.02833e-10 0)
(2.97637e-11 -8.86237e-10 0)
(1.91025e-11 -9.35421e-10 0)
(-2.51646e-11 -9.24685e-10 0)
(-3.53915e-11 -9.11033e-10 0)
(-3.34112e-11 -9.66031e-10 0)
(-1.33542e-11 -9.36624e-10 0)
(-8.91424e-11 -2.14713e-09 0)
(8.7992e-12 -9.04838e-10 0)
(2.25447e-11 -8.32985e-10 0)
(3.05157e-11 -8.02399e-10 0)
(3.05328e-11 -8.14362e-10 0)
(-5.65159e-11 -2.48757e-09 0)
(1.28252e-11 -9.90073e-10 0)
(-6.66553e-12 -9.23406e-10 0)
(-4.28425e-11 -8.65707e-10 0)
(-6.9214e-12 -9.89979e-10 0)
(4.51662e-11 -1.09629e-09 0)
(5.92847e-11 -1.1859e-09 0)
(2.76666e-12 -5.74841e-11 0)
(4.67584e-11 -9.39965e-10 0)
(4.01013e-11 -2.14922e-09 0)
(6.87444e-12 -8.77204e-10 0)
(1.89487e-11 -8.36156e-10 0)
(1.91961e-11 -8.74916e-10 0)
(2.56707e-11 -2.10479e-09 0)
(6.91193e-11 -8.39586e-10 0)
(5.30463e-11 -2.0472e-09 0)
(3.42629e-11 -8.76257e-10 0)
(-2.46388e-11 -2.13862e-09 0)
(-9.42516e-12 -1.57692e-09 0)
(-3.65977e-11 -8.67102e-10 0)
(0 0 0)
(0 0 0)
(0 0 0)
(0 0 0)
(0 0 0)
(0 0 0)
(0 0 0)
(0 0 0)
(0 0 0)
(0 0 0)
(0 0 0)
(0 0 0)
(0 0 0)
(0 0 0)
(0 0 0)
(0 0 0)
(0 0 0)
(0 0 0)
(0 0 0)
(0 0 0)
(0 0 0)
(0 0 0)
(0 0 0)
(0 0 0)
(0 0 0)
(0 0 0)
(0 0 0)
(0 0 0)
(0 0 0)
(0 0 0)
(0 0 0)
(0 0 0)
(0 0 0)
(-2.52161e-11 -9.24717e-10 0)
(1.74747e-11 -9.66135e-10 0)
(8.02363e-12 -2.52322e-09 0)
(-4.36993e-11 -1.46576e-09 0)
(2.73782e-11 -8.37187e-10 0)
(-1.97555e-11 -8.81886e-10 0)
(-2.91592e-11 -1.03744e-09 0)
(-3.80645e-12 -1.08767e-09 0)
(3.00107e-11 -9.80365e-10 0)
(2.02525e-11 -9.42706e-10 0)
(3.12091e-11 -9.27829e-10 0)
(1.71383e-11 -9.24039e-10 0)
(1.69558e-11 -9.62721e-10 0)
(0 0 0)
(-8.42629e-12 -9.20951e-10 0)
(0 0 0)
(-4.26462e-11 -1.00745e-09 0)
(-6.79787e-11 -9.6054e-10 0)
(2.87797e-11 -9.82686e-10 0)
(-1.28684e-11 -9.21691e-10 0)
(-4.03999e-12 -8.62019e-10 0)
(-2.76962e-11 -8.92617e-10 0)
(-8.54032e-11 -2.17224e-09 0)
(3.62287e-11 -2.24115e-09 0)
(1.29929e-11 -8.35565e-10 0)
(6.01211e-12 -8.98662e-10 0)
(-1.2889e-11 -9.26634e-10 0)
(0 0 0)
(2.15203e-11 -1.09761e-09 0)
(7.65262e-11 -1.09312e-09 0)
(5.77335e-11 -1.00302e-09 0)
(1.30273e-11 -9.56113e-10 0)
(9.99512e-12 -9.2172e-10 0)
(3.96356e-11 -2.08822e-09 0)
(1.30187e-12 -8.86876e-10 0)
(-5.43358e-12 -8.26608e-10 0)
(5.90622e-11 -8.80337e-10 0)
(1.92038e-11 -2.08886e-09 0)
(3.00568e-11 -8.36234e-10 0)
(7.43413e-12 -1.93161e-09 0)
(-3.84029e-13 -8.00862e-10 0)
(6.1432e-12 -8.54139e-10 0)
(0 0 0)
(0 0 0)
(0 0 0)
(0 0 0)
(0 0 0)
(0 0 0)
(0 0 0)
(0 0 0)
(0 0 0)
(0 0 0)
(0 0 0)
(0 0 0)
(0 0 0)
(0 0 0)
(0 0 0)
(0 0 0)
(0 0 0)
(0 0 0)
(0 0 0)
(0 0 0)
(0 0 0)
(0 0 0)
(0 0 0)
(0 0 0)
(0 0 0)
(0 0 0)
(0 0 0)
(0 0 0)
(0 0 0)
(0 0 0)
(0 0 0)
(0 0 0)
(8.35933e-12 -9.39748e-10 0)
(-3.40494e-11 -9.73696e-10 0)
(-2.33908e-11 -9.80756e-10 0)
(-2.85894e-11 -9.62031e-10 0)
(0 0 0)
(-2.23695e-11 -9.37764e-10 0)
(-3.35657e-11 -9.92824e-10 0)
(-5.42264e-11 -9.96015e-10 0)
(2.37219e-11 -1.24073e-09 0)
(3.12187e-11 -2.17452e-09 0)
(0 0 0)
(9.58905e-12 -9.44315e-10 0)
(1.5668e-11 -9.43511e-10 0)
(6.21942e-12 -1.00685e-09 0)
(0 0 0)
(7.74346e-12 -9.24202e-10 0)
(-6.18809e-12 -1.00256e-09 0)
(0 0 0)
(-1.08244e-11 -9.55278e-10 0)
(1.60575e-11 -8.49826e-10 0)
(-1.84831e-11 -8.34083e-10 0)
(-1.11954e-11 -8.9503e-10 0)
(-3.02764e-11 -2.12411e-09 0)
(-3.06832e-11 -8.9273e-10 0)
(-7.69662e-12 -9.37053e-10 0)
(1.56306e-11 -8.51471e-10 0)
(1.71069e-11 -9.35025e-10 0)
(2.10134e-11 -9.73185e-10 0)
(4.06834e-11 -1.02651e-09 0)
(8.1001e-11 -1.01641e-09 0)
(5.01819e-11 -1.06675e-09 0)
(1.60301e-11 -1.01302e-09 0)
(-4.2036e-12 -9.70534e-10 0)
(-4.96718e-12 -9.37911e-10 0)
(-3.52752e-11 -9.38275e-10 0)
(-3.08497e-11 -9.20709e-10 0)
(-3.26261e-11 -8.65342e-10 0)
(7.71686e-11 -2.03555e-09 0)
(1.30577e-10 -2.07883e-09 0)
(2.93326e-12 -1.94335e-09 0)
(3.76562e-13 -7.39602e-10 0)
(3.66179e-11 -8.33435e-10 0)
(6.48822e-11 -8.98221e-10 0)
(1.17859e-11 -9.8997e-10 0)
(0 0 0)
(0 0 0)
(0 0 0)
(0 0 0)
(0 0 0)
(0 0 0)
(0 0 0)
(0 0 0)
(0 0 0)
(0 0 0)
(0 0 0)
(0 0 0)
(0 0 0)
(0 0 0)
(0 0 0)
(0 0 0)
(0 0 0)
(0 0 0)
(0 0 0)
(0 0 0)
(0 0 0)
(0 0 0)
(0 0 0)
(0 0 0)
(0 0 0)
(0 0 0)
(0 0 0)
(0 0 0)
(0 0 0)
(0 0 0)
(0 0 0)
(9.46601e-12 -9.42484e-10 0)
(-2.16168e-11 -9.19704e-10 0)
(-2.60622e-11 -9.59975e-10 0)
(-1.54955e-11 -9.53584e-10 0)
(-1.75384e-11 -9.69647e-10 0)
(-3.47199e-11 -1.0041e-09 0)
(0 0 0)
(-3.4014e-11 -1.00023e-09 0)
(-2.80734e-11 -1.00885e-09 0)
(-3.57706e-12 -9.86009e-10 0)
(2.59923e-11 -9.80038e-10 0)
(0 0 0)
(2.48302e-11 -9.59097e-10 0)
(4.72608e-11 -9.66864e-10 0)
(4.82547e-11 -9.63841e-10 0)
(3.08514e-11 -8.5439e-10 0)
(3.60979e-12 -9.32838e-10 0)
(-1.80047e-12 -9.37357e-10 0)
(-3.2617e-11 -9.28823e-10 0)
(-2.91137e-11 -9.43239e-10 0)
(-3.00956e-11 -9.33388e-10 0)
(-4.08617e-11 -9.63323e-10 0)
(-1.56725e-11 -9.781e-10 0)
(0 0 0)
(-2.14179e-12 -9.381e-10 0)
(8.66619e-13 -9.50993e-10 0)
(0 0 0)
(4.92584e-11 -2.0601e-09 0)
(8.08749e-11 -9.86496e-10 0)
(2.98595e-10 -2.4016e-09 0)
(2.28132e-11 -1.04265e-09 0)
(4.64448e-13 -1.36801e-09 0)
(-1.31415e-11 -1.65049e-09 0)
(3.48906e-12 -8.72132e-10 0)
(0 0 0)
(0 0 0)
(-1.43318e-11 -8.93815e-10 0)
(-3.03203e-11 -8.45263e-10 0)
(-7.65897e-11 -2.37585e-09 0)
(-2.56324e-11 -9.50475e-10 0)
(-2.37326e-11 -7.71194e-10 0)
(1.67301e-11 -8.02593e-10 0)
(5.78477e-11 -2.37561e-09 0)
(-7.47971e-12 -9.53812e-10 0)
(0 0 0)
(0 0 0)
(0 0 0)
(0 0 0)
(0 0 0)
(0 0 0)
(0 0 0)
(0 0 0)
(0 0 0)
(0 0 0)
(0 0 0)
(0 0 0)
(0 0 0)
(0 0 0)
(0 0 0)
(0 0 0)
(0 0 0)
(0 0 0)
(0 0 0)
(0 0 0)
(0 0 0)
(0 0 0)
(0 0 0)
(0 0 0)
(0 0 0)
(0 0 0)
(0 0 0)
(0 0 0)
(0 0 0)
(0 0 0)
(0 0 0)
(-6.49086e-12 -9.20037e-10 0)
(-3.25744e-11 -9.17971e-10 0)
(-1.47233e-11 -9.02064e-10 0)
(-1.99889e-11 -9.66559e-10 0)
(-2.62192e-11 -1.07395e-09 0)
(0 0 0)
(-1.47939e-11 -9.93824e-10 0)
(-1.78234e-11 -1.07212e-09 0)
(0 0 0)
(-2.09606e-11 -9.20933e-10 0)
(1.37451e-11 -9.66702e-10 0)
(2.94684e-11 -9.64452e-10 0)
(4.13132e-11 -9.59564e-10 0)
(5.29259e-11 -9.43626e-10 0)
(1.12406e-10 -2.25053e-09 0)
(5.32993e-11 -9.20546e-10 0)
(1.37569e-12 -9.25521e-10 0)
(-7.91307e-12 -9.72978e-10 0)
(0 0 0)
(-9.03265e-12 -9.21857e-10 0)
(-1.94873e-11 -9.6868e-10 0)
(0 0 0)
(-2.7398e-11 -9.35168e-10 0)
(-1.38473e-11 -1.01246e-09 0)
(-1.38741e-12 -3.21601e-10 0)
(-1.87141e-12 -4.38524e-10 0)
(0 0 0)
(0 0 0)
(4.99185e-11 -2.00608e-09 0)
(5.77413e-11 -2.53727e-09 0)
(5.09689e-11 -1.09231e-09 0)
(1.87182e-11 -1.04489e-09 0)
(6.94995e-12 -2.01905e-09 0)
(-1.49286e-11 -8.13833e-10 0)
(-1.47391e-12 -9.7659e-10 0)
(0 0 0)
(-8.14944e-11 -3.20877e-09 0)
(-3.75052e-11 -7.59085e-10 0)
(-4.37051e-11 -9.06514e-10 0)
(3.93965e-12 -1.02247e-09 0)
(-1.32486e-11 -9.06881e-10 0)
(-1.12933e-11 -8.7951e-10 0)
(-3.20799e-11 -9.70726e-10 0)
(1.1888e-11 -1.00292e-09 0)
(0 0 0)
(0 0 0)
(0 0 0)
(0 0 0)
(0 0 0)
(0 0 0)
(0 0 0)
(0 0 0)
(0 0 0)
(0 0 0)
(0 0 0)
(0 0 0)
(0 0 0)
(0 0 0)
(0 0 0)
(0 0 0)
(0 0 0)
(0 0 0)
(0 0 0)
(0 0 0)
(0 0 0)
(0 0 0)
(0 0 0)
(0 0 0)
(0 0 0)
(0 0 0)
(0 0 0)
(0 0 0)
(0 0 0)
(0 0 0)
(0 0 0)
(-2.11373e-11 -9.75822e-10 0)
(-3.85219e-11 -9.1397e-10 0)
(2.24947e-11 -9.23954e-10 0)
(4.78891e-12 -9.75248e-10 0)
(-3.2563e-11 -1.03936e-09 0)
(0 0 0)
(-4.46303e-12 -9.65595e-10 0)
(-1.79065e-12 -1.04157e-09 0)
(-5.67522e-12 -1.47905e-10 0)
(-3.38961e-11 -1.79642e-09 0)
(2.75925e-11 -8.9798e-10 0)
(2.05899e-11 -9.64283e-10 0)
(3.42757e-11 -9.32018e-10 0)
(5.06748e-11 -9.41769e-10 0)
(4.74274e-11 -9.57384e-10 0)
(3.0738e-11 -1.05131e-09 0)
(-5.08726e-11 -9.88091e-10 0)
(0 0 0)
(-1.93014e-11 -9.30405e-10 0)
(4.71072e-11 -9.35991e-10 0)
(0 0 0)
(2.15339e-11 -9.61858e-10 0)
(-4.14153e-11 -9.5286e-10 0)
(-1.8318e-11 -9.73483e-10 0)
(1.07978e-11 -9.92345e-10 0)
(1.47669e-11 -9.977e-10 0)
(0 0 0)
(-4.61424e-11 -2.29309e-09 0)
(-7.54346e-11 -1.61631e-09 0)
(-4.76716e-11 -9.23855e-10 0)
(1.13072e-10 -2.63777e-09 0)
(4.30955e-11 -9.76287e-10 0)
(-2.60098e-11 -8.74836e-10 0)
(-3.61e-11 -8.56979e-10 0)
(1.74826e-11 -2.0352e-09 0)
(1.72648e-11 -1.8909e-09 0)
(-5.51534e-11 -8.69181e-10 0)
(-2.14465e-11 -9.7444e-10 0)
(0 0 0)
(-6.02845e-11 -2.20064e-09 0)
(-2.77881e-11 -8.92752e-10 0)
(-4.86521e-11 -2.164e-09 0)
(1.72335e-11 -9.3225e-10 0)
(0 0 0)
(7.41109e-12 -9.57042e-10 0)
(0 0 0)
(0 0 0)
(0 0 0)
(0 0 0)
(0 0 0)
(0 0 0)
(0 0 0)
(0 0 0)
(0 0 0)
(0 0 0)
(0 0 0)
(0 0 0)
(0 0 0)
(0 0 0)
(0 0 0)
(0 0 0)
(0 0 0)
(0 0 0)
(0 0 0)
(0 0 0)
(0 0 0)
(0 0 0)
(0 0 0)
(0 0 0)
(0 0 0)
(0 0 0)
(0 0 0)
(0 0 0)
(0 0 0)
(0 0 0)
(-2.61749e-11 -8.85502e-10 0)
(-1.14769e-11 -8.52423e-10 0)
(1.42061e-11 -8.68059e-10 0)
(3.56521e-11 -9.36105e-10 0)
(-3.39728e-11 -1.02032e-09 0)