/*--------------------------------*- C++ -*----------------------------------*\
  =========                 |
  \\      /  F ield         | OpenFOAM: The Open Source CFD Toolbox
   \\    /   O peration     | Website:  https://openfoam.org
    \\  /    A nd           | Version:  12
     \\/     M anipulation  |
\*---------------------------------------------------------------------------*/
FoamFile
{
    format      ascii;
    class       volScalarField::Internal;
    location    "0.6";
    object      cloud:UCoeff;
}
// * * * * * * * * * * * * * * * * * * * * * * * * * * * * * * * * * * * * * //

dimensions      [1 0 0 0 0 0 0];

value           nonuniform List<scalar> 
3750
(
5.04914e-10
2.40663e-08
2.5485e-08
2.56188e-08
2.5243e-08
2.3891e-08
2.47622e-08
2.41763e-08
2.62997e-08
2.63233e-08
2.65619e-08
2.58685e-08
5.99115e-08
5.73893e-08
2.33911e-08
2.40408e-08
2.51469e-08
2.52459e-08
2.54458e-08
2.55896e-08
2.58313e-08
2.61026e-08
2.56089e-08
5.91709e-08
2.42343e-08
2.45415e-08
2.46757e-08
2.71033e-08
2.46774e-08
2.42312e-08
2.49795e-08
2.49039e-08
2.53429e-08
2.48829e-08
5.98106e-08
2.50639e-08
0
4.88161e-08
3.33003e-08
0
2.4775e-08
2.51793e-08
2.51358e-08
2.52219e-08
3.36807e-08
5.01519e-08
2.5037e-08
2.51414e-08
2.49453e-08
3.90229e-09
1.79549e-08
2.47819e-08
5.92772e-08
2.38681e-08
0
0
0
0
0
0
0
0
0
0
0
0
0
0
0
0
0
0
0
0
0
0
2.57444e-08
2.58064e-08
2.45563e-08
2.49708e-08
6.15041e-08
2.57615e-08
0
2.64325e-08
0
2.59959e-08
2.53024e-08
2.46017e-08
2.4132e-08
1.01966e-07
5.67361e-08
5.98429e-08
2.43525e-08
0
0
0
2.55247e-08
2.54903e-08
2.52127e-08
2.52874e-08
0
5.94089e-08
6.40488e-08
0
0
0
2.51881e-08
5.89137e-08
5.69797e-08
5.64176e-08
2.35503e-08
2.6646e-08
0
0
2.51021e-08
2.5209e-08
4.85271e-08
3.11185e-08
2.56094e-08
2.5237e-08
2.52984e-08
2.52998e-08
0
6.01755e-08
0
0
0
0
0
0
0
0
0
0
0
0
0
0
0
0
0
0
0
0
0
0
0
0
0
0
0
2.58348e-08
6.06871e-08
0
0
2.44368e-08
2.56469e-08
2.97968e-08
5.53391e-08
2.63454e-08
2.59685e-08
0
2.54342e-08
0
5.72341e-08
2.43076e-08
0
2.43244e-08
2.50216e-08
2.55296e-08
2.58653e-08
2.54124e-08
2.54535e-08
0
5.90169e-08
5.86437e-08
6.06223e-08
2.54642e-08
3.61133e-08
1.55798e-08
2.57202e-08
2.51e-08
5.87267e-08
2.54353e-08
0
2.37837e-08
6.43072e-08
0
2.56e-08
2.50815e-08
2.4775e-08
2.51752e-08
6.23085e-08
2.49802e-08
2.45075e-08
2.5556e-08
2.36492e-08
0
0
0
0
0
0
0
0
0
0
0
0
0
0
0
0
0
0
0
0
0
0
0
0
0
0
0
0
2.53337e-08
0
2.61274e-08
2.57836e-08
0
6.06663e-08
2.48534e-08
0
2.67082e-08
0
2.56285e-08
2.53533e-08
0
6.08431e-08
2.3467e-08
2.43355e-08
2.45616e-08
2.53922e-08
2.54985e-08
2.54704e-08
2.49138e-08
5.91738e-08
5.94218e-08
5.81634e-08
2.50017e-08
2.56135e-08
2.5901e-08
2.58625e-08
3.85347e-08
1.32896e-08
2.569e-08
2.53526e-08
2.50464e-08
2.51356e-08
2.47382e-08
2.49818e-08
2.58039e-08
2.5831e-08
2.54318e-08
2.51218e-08
2.49371e-08
2.49931e-08
6.32021e-08
2.52703e-08
2.44026e-08
0
0
0
0
0
0
0
0
0
0
0
0
0
0
0
0
0
0
0
0
0
0
0
0
0
0
0
0
0
0
0
2.48669e-08
2.74623e-08
0
2.5054e-08
2.45356e-08
2.39384e-08
2.45616e-08
2.60535e-08
2.72147e-08
4.66568e-09
1.74409e-08
2.57429e-08
0
5.93619e-08
2.44088e-08
2.42503e-08
2.46717e-08
2.48211e-08
6.04896e-08
2.43025e-08
2.47297e-08
2.45007e-08
2.49895e-08
2.73987e-08
0
2.62343e-08
2.58176e-08
2.59053e-08
2.56123e-08
2.55384e-08
2.5273e-08
2.57873e-08
6.10973e-08
2.44825e-08
2.47824e-08
2.51323e-08
2.54462e-08
2.5357e-08
0
0
0
6.19058e-08
2.61703e-08
2.53989e-08
2.42345e-08
0
0
0
0
0
0
0
0
0
0
0
0
0
0
0
0
0
0
0
0
0
0
0
0
0
0
0
0
0
2.48905e-08
2.6307e-08
0
2.72783e-08
2.50229e-08
2.501e-08
2.54944e-08
0
2.56136e-08
2.64552e-08
2.67889e-08
2.63233e-08
2.56903e-08
2.45868e-08
2.43221e-08
5.93305e-08
2.37576e-08
2.44486e-08
2.4822e-08
2.49976e-08
2.50744e-08
2.46805e-08
2.50236e-08
2.47589e-08
6.64694e-08
0
2.6404e-08
2.56196e-08
2.59077e-08
2.56641e-08
2.54298e-08
2.54172e-08
2.54432e-08
2.54439e-08
2.546e-08
2.53999e-08
2.55026e-08
2.54332e-08
2.4835e-08
2.52854e-08
2.5083e-08
5.89462e-08
0
2.75061e-08
0
2.51244e-08
0
0
0
0
0
0
0
0
0
0
0
0
0
0
0
0
0
0
0
0
0
0
0
0
0
0
0
0
0
2.4806e-08
2.49824e-08
2.62384e-08
2.54754e-08
2.48263e-08
2.49815e-08
2.53123e-08
2.56526e-08
2.60427e-08
2.5869e-08
6.52778e-08
2.56606e-08
2.37426e-08
2.41041e-08
5.88094e-08
2.44424e-08
5.57076e-09
1.39305e-08
2.5226e-08
2.53324e-08
2.53422e-08
2.5454e-08
2.5209e-08
2.52617e-08
2.64108e-08
2.69899e-08
2.62694e-08
2.55122e-08
2.54738e-08
2.52796e-08
2.52757e-08
2.55171e-08
2.58409e-08
0
2.57255e-08
2.55315e-08
6.00059e-08
2.49028e-08
2.47756e-08
2.43579e-08
5.95647e-08
2.47407e-08
2.52949e-08
2.5524e-08
0
2.5844e-08
0
0
0
0
0
0
0
0
0
0
0
0
0
0
0
0
0
0
0
0
0
0
0
0
0
0
0
0
0
2.50118e-08
2.49543e-08
2.56981e-08
2.56085e-08
2.47268e-08
0
2.53961e-08
2.51551e-08
6.38746e-08
2.54205e-08
6.12778e-08
5.92962e-08
6.03568e-08
5.86199e-08
0
2.46729e-08
2.48292e-08
2.55921e-08
0
2.5377e-08
2.55099e-08
2.56954e-08
2.54192e-08
2.56622e-08
2.61278e-08
2.73485e-08
2.75266e-08
2.65814e-08
2.53125e-08
2.55248e-08
0
2.56409e-08
2.5281e-08
2.53351e-08
2.57228e-08
2.57903e-08
2.54854e-08
2.50575e-08
2.47612e-08
2.48091e-08
2.49006e-08
2.45857e-08
6.09549e-08
2.4527e-08
2.52386e-08
2.47577e-08
0
0
0
0
0
0
0
0
0
0
0
0
0
0
0
0
0
0
0
0
0
0
0
0
0
0
0
0
0
9.52498e-09
5.89492e-08
5.91881e-08
5.88035e-08
2.38897e-08
2.50358e-08
2.5715e-08
2.63113e-08
2.64507e-08
2.57297e-08
5.89997e-08
6.39247e-08
2.54478e-08
0
2.41882e-08
2.59102e-08
0
2.50403e-08
2.58355e-08
0
2.52001e-08
2.53373e-08
2.52004e-08
2.51307e-08
2.47751e-08
6.5622e-08
2.77155e-08
0
2.52185e-08
2.51387e-08
2.55035e-08
2.50444e-08
2.5321e-08
2.54001e-08
2.5861e-08
0
2.5511e-08
2.55861e-08
2.58039e-08
2.59394e-08
0
2.5327e-08
2.5554e-08
2.51829e-08
2.48026e-08
2.44579e-08
0
0
0
0
0
0
0
0
0
0
0
0
0
0
0
0
0
0
0
0
0
0
0
0
0
0
0
0
0
2.43269e-08
5.94187e-08
5.95172e-08
4.48046e-08
3.17992e-08
6.32838e-08
2.56869e-08
2.50681e-08
3.13189e-09
2.01288e-08
4.48178e-08
6.13645e-09
2.61071e-08
2.50757e-08
2.466e-08
2.55266e-08
0
2.52778e-08
0
2.50676e-08
2.52059e-08
2.59605e-08
0
6.02008e-08
2.50975e-08
2.59894e-08
2.74001e-08
6.5046e-08
2.47401e-08
2.55289e-08
0
2.47177e-08
2.52922e-08
0
2.48264e-08
2.50992e-08
2.63019e-08
0
2.521e-08
2.62541e-08
0
2.55988e-08
2.58737e-08
2.53186e-08
2.47778e-08
2.50809e-08
2.47972e-08
0
0
0
0
0
0
0
0
0
0
0
0
0
0
0
0
0
0
0
0
0
0
0
0
0
0
0
0
6.04625e-08
2.48668e-08
2.49698e-08
5.95804e-08
5.96467e-08
5.88572e-08
2.46761e-08
6.38612e-08
2.45855e-08
2.52132e-08
0
2.56317e-08
6.03225e-08
2.38936e-08
2.37536e-08
0
2.4448e-08
2.47691e-08
2.51187e-08
2.55831e-08
2.51984e-08
0
2.5273e-08
0
2.57337e-08
2.65419e-08
2.68307e-08
6.64221e-08
2.55491e-08
2.49688e-08
6.01e-08
2.48455e-08
0
2.49578e-08
2.50866e-08
2.54906e-08
2.60363e-08
0
2.47039e-08
2.61493e-08
0
2.49393e-08
0
2.53032e-08
2.45903e-08
2.52941e-08
2.5551e-08
2.49096e-08
0
0
0
0
0
0
0
0
0
0
0
0
0
0
0
0
0
0
0
0
0
0
0
0
0
0
0
2.55043e-08
2.55324e-08
2.58794e-08
2.57437e-08
2.56987e-08
2.52823e-08
2.5976e-08
6.43116e-08
2.5637e-08
2.52232e-08
6.00457e-08
5.70485e-08
0
2.51539e-08
2.49493e-08
2.55679e-08
2.49363e-08
2.49122e-08
2.52766e-08
2.55407e-08
0
2.48181e-08
2.46814e-08
2.58958e-08
0
2.75263e-08
2.72846e-08
2.65368e-08
3.10211e-08
5.88745e-08
2.43488e-08
2.42417e-08
2.47905e-08
2.49571e-08
2.50494e-08
2.57172e-08
0
2.50394e-08
5.97333e-08
2.57288e-08
0
0
6.00806e-08
2.48461e-08
5.81973e-08
2.45117e-08
2.47406e-08
0
0
0
0
0
0
0
0
0
0
0
0
0
0
0
0
0
0
0
0
0
0
0
0
0
0
0
0
0
0
0
0
0
0
0
2.71065e-08
2.80436e-08
0
0
0
5.88729e-08
2.46775e-08
2.50179e-08
2.52866e-08
2.52845e-08
2.4978e-08
5.9429e-08
5.99214e-08
2.41212e-08
2.41522e-08
2.44769e-08
2.56208e-08
2.72657e-08
2.67688e-08
2.58061e-08
7.34871e-09
5.09241e-08
2.63832e-08
2.39944e-08
2.43502e-08
2.46522e-08
2.47876e-08
2.49521e-08
2.5978e-08
0
0
0
2.49048e-08
2.55183e-08
6.09127e-08
2.43213e-08
5.88071e-08
6.0122e-08
2.43457e-08
0
0
0
0
0
0
0
0
0
0
0
0
0
0
0
0
0
0
0
0
0
0
0
0
0
0
0
0
0
2.51929e-08
2.61859e-08
1.29513e-08
3.26258e-09
6.00822e-08
2.48679e-08
2.58695e-08
2.50547e-08
2.54599e-08
2.61626e-08
2.49601e-08
5.93492e-08
2.45544e-08
2.51829e-08
2.5266e-08
2.49929e-08
2.46027e-08
2.43198e-08
6.16758e-08
2.44924e-08
2.4193e-08
2.34855e-08
2.46079e-08
2.57233e-08
2.6677e-08
2.62296e-08
6.17637e-08
2.7475e-08
0
2.75613e-08
2.58783e-08
2.55185e-08
2.51164e-08
2.48487e-08
2.48979e-08
2.49271e-08
2.52166e-08
2.4981e-08
2.56132e-08
0
0
2.4873e-08
2.59968e-08
2.54072e-08
2.52946e-08
0
0
0
0
0
0
0
0
0
0
0
0
0
0
0
0
0
0
0
0
0
0
0
0
0
0
0
0
0
0
8.18587e-09
8.55241e-08
2.5317e-08
2.35587e-08
2.38881e-08
2.42626e-08
2.50059e-08
2.75913e-08
0
2.60973e-08
2.50913e-08
2.49404e-08
2.47519e-08
2.52673e-08
2.51568e-08
2.50169e-08
2.55875e-08
2.65754e-08
5.92176e-08
2.49448e-08
2.41726e-08
2.38363e-08
2.39697e-08
6.41326e-08
2.58276e-08
2.514e-08
2.45374e-08
2.5826e-08
2.68864e-08
2.77403e-08
1.45487e-09
2.37735e-08
6.08948e-08
2.46501e-08
2.42065e-08
2.46275e-08
6.04636e-08
2.42729e-08
5.989e-08
2.46468e-08
6.61723e-08
4.96934e-08
2.45494e-08
0
0
0
0
0
0
0
0
0
0
0
0
0
0
0
0
0
0
0
0
0
0
0
0
0
0
0
0
0
0
0
0
0
2.51571e-08
2.55844e-08
7.4751e-08
4.39479e-08
2.42204e-08
2.47023e-08
2.63055e-08
2.6794e-08
2.57328e-08
2.53433e-08
2.51916e-08
2.51481e-08
2.55492e-08
0
2.51144e-08
0
2.60113e-08
2.55499e-08
2.57561e-08
2.51227e-08
2.44862e-08
2.48192e-08
6.11473e-08
6.18137e-08
2.41987e-08
2.4879e-08
2.51745e-08
0
2.68921e-08
2.68726e-08
2.59743e-08
2.54806e-08
2.51227e-08
6.03e-08
2.47534e-08
2.40992e-08
2.47046e-08
6.03052e-08
2.42109e-08
5.87016e-08
2.38126e-08
2.44008e-08
0
0
0
0
0
0
0
0
0
0
0
0
0
0
0
0
0
0
0
0
0
0
0
0
0
0
0
0
0
0
0
0
2.53107e-08
2.56662e-08
2.57349e-08
2.55449e-08
0
2.52924e-08
2.58604e-08
2.59018e-08
3.20732e-08
5.64168e-08
0
2.53582e-08
2.53507e-08
2.59964e-08
0
2.51484e-08
2.59532e-08
0
2.54717e-08
2.43553e-08
2.41836e-08
2.4841e-08
6.06571e-08
2.48214e-08
2.52826e-08
2.43731e-08
2.52628e-08
2.56572e-08
2.62009e-08
2.61243e-08
2.66019e-08
2.60594e-08
2.56278e-08
2.52913e-08
2.53019e-08
2.51169e-08
2.45287e-08
5.97823e-08
6.02447e-08
5.88235e-08
2.31133e-08
2.41831e-08
2.4899e-08
2.58264e-08
0
0
0
0
0
0
0
0
0
0
0
0
0
0
0
0
0
0
0
0
0
0
0
0
0
0
0
0
0
0
0
2.53392e-08
2.51036e-08
2.5523e-08
2.54549e-08
2.56203e-08
2.59746e-08
0
2.59353e-08
2.60202e-08
2.57856e-08
2.57283e-08
0
2.55137e-08
2.5602e-08
2.55716e-08
2.44094e-08
2.52384e-08
2.52854e-08
2.52024e-08
2.53512e-08
2.52491e-08
2.55627e-08
2.57063e-08
0
2.52932e-08
2.54268e-08
0
6.00186e-08
2.58241e-08
6.35011e-08
2.63557e-08
3.62276e-08
4.76944e-08
2.45953e-08
0
0
2.48286e-08
2.43098e-08
6.31052e-08
2.54251e-08
2.34813e-08
2.3834e-08
6.30935e-08
2.54562e-08
0
0
0
0
0
0
0
0
0
0
0
0
0
0
0
0
0
0
0
0
0
0
0
0
0
0
0
0
0
0
0
2.51047e-08
2.50888e-08
2.49162e-08
2.55891e-08
2.66637e-08
0
2.58659e-08
2.66441e-08
0
2.51164e-08
2.55895e-08
2.55701e-08
2.55244e-08
2.53659e-08
6.19207e-08
2.5126e-08
2.51619e-08
2.56531e-08
0
2.5124e-08
2.56108e-08
0
2.52668e-08
2.60535e-08
8.25371e-09
1.13018e-08
0
0
5.94773e-08
6.45922e-08
2.68504e-08
2.6377e-08
5.95919e-08
2.39589e-08
2.56897e-08
0
1.02288e-07
2.33492e-08
2.49731e-08
2.61527e-08
2.49669e-08
2.46753e-08
2.56351e-08
2.59574e-08
0
0
0
0
0
0
0
0
0
0
0
0
0
0
0
0
0
0
0
0
0
0
0
0
0
0
0
0
0
0
0
2.56842e-08
2.50492e-08
2.51484e-08
2.5676e-08
2.63257e-08
0
2.55773e-08
2.63425e-08
4.16404e-09
5.12157e-08
2.48761e-08
2.5566e-08
2.52364e-08
2.53454e-08
2.55048e-08
2.6443e-08
2.582e-08
0
2.52151e-08
2.52835e-08
0
2.55413e-08
2.54554e-08
2.56597e-08
2.58504e-08
2.5905e-08
0
6.94631e-08
4.84402e-08
2.51573e-08
6.55411e-08
2.56963e-08
2.46285e-08
2.44397e-08
5.97635e-08
5.82779e-08
2.45823e-08
2.567e-08
0
6.14093e-08
2.48206e-08
6.10533e-08
2.52339e-08
0
2.54896e-08
0
0
0
0
0
0
0
0
0
0
0
0
0
0
0
0
0
0
0
0
0
0
0
0
0
0
0
0
0
0
2.47428e-08
2.43828e-08
2.45526e-08
2.52795e-08
2.61368e-08
2.52312e-08
2.55545e-08
2.70098e-08
0
2.54479e-08
2.49564e-08
2.49379e-08
2.49791e-08
2.52572e-08
2.59542e-08
2.72182e-08
0
2.56163e-08
2.52315e-08
2.52712e-08
2.49017e-08
2.5601e-08
3.2218e-09
2.01548e-08
2.5674e-08
2.53305e-08
6.08261e-08
2.41014e-08
2.48284e-08
6.04763e-08
2.55286e-08
2.67798e-08
2.59687e-08
2.47187e-08
0
2.47709e-08
2.59923e-08
2.50938e-08
2.66659e-08
0
0
0
0
2.54243e-08
2.53846e-08
2.49346e-08
0
0
0
0
0
0
0
0
0
0
0
0
0
0
0
0
0
0
0
0
0
0
0
0
0
0
0
0
0
6.03788e-08
2.32119e-08
2.40764e-08
6.28048e-08
2.48646e-08
2.37356e-08
2.57397e-08
2.70106e-08
0
2.51205e-08
2.48126e-08
2.51631e-08
2.42076e-08
2.4992e-08
2.70308e-08
2.84577e-08
0
2.52739e-08
2.44347e-08
2.44936e-08
5.82472e-08
2.38863e-08
2.5007e-08
2.62441e-08
2.67272e-08
2.57172e-08
2.51045e-08
2.52403e-08
2.55313e-08
2.53564e-08
2.59746e-08
2.75862e-08
2.98981e-09
2.05896e-08
2.49008e-08
2.72314e-08
0
2.5352e-08
2.53053e-08
2.5892e-08
2.54243e-08
2.48194e-08
2.48492e-08
6.04251e-08
2.44404e-08
2.48843e-08
2.4439e-08
0
0
0
0
0
0
0
0
0
0
0
0
0
0
0
0
0
0
0
0
0
0
0
0
0
0
0
0
6.11316e-08
2.4108e-08
2.46947e-08
6.19357e-08
2.40737e-08
2.51463e-08
2.6377e-08
6.37188e-08
2.40964e-08
2.40024e-08
2.47364e-08
2.45807e-08
2.41153e-08
2.51755e-08
2.87778e-08
0
2.77644e-08
5.84853e-08
5.62044e-08
2.25162e-08
5.83674e-08
2.43964e-08
2.52945e-08
2.71247e-08
0
2.53087e-08
0
2.53238e-08
2.5543e-08
1.27417e-08
3.64755e-09
2.68011e-08
0
2.57078e-08
2.52937e-08
2.59812e-08
2.57983e-08
2.63095e-08
0
2.56818e-08
2.55211e-08
2.55973e-08
2.62964e-08
2.47561e-08
2.4397e-08
2.45333e-08
2.43764e-08
0
0
0
0
0
0
0
0
0
0
0
0
0
0
0
0
0
0
0
0
0
0
0
0
0
0
0
0
0
2.51151e-08
2.78231e-08
2.60993e-08
2.34843e-08
3.24563e-08
1.72527e-08
6.211e-08
2.45572e-08
2.41537e-08
2.43759e-08
5.93066e-08
2.38951e-08
2.42929e-08
2.56792e-08
6.65599e-08
6.10666e-08
5.76128e-08
2.34283e-08
0
2.477e-08
2.5234e-08
2.60872e-08
0
2.66303e-08
0
2.479e-08
0
2.50315e-08
2.61437e-08
0
2.59833e-08
2.61688e-08
2.75085e-08
2.70553e-08
0
2.54627e-08
2.52715e-08
2.54867e-08
2.5285e-08
2.51576e-08
2.52555e-08
2.63031e-08
2.62877e-08
2.52521e-08
2.49776e-08
2.46359e-08
0
0
0
0
0
0
0
0
0
0
0
0
0
0
0
0
0
0
0
0
0
0
0
0
0
0
0
0
5.32768e-08
0
2.56042e-08
2.65248e-08
2.54387e-08
2.5758e-08
2.56717e-08
2.57333e-08
2.50919e-08
5.86197e-08
2.43434e-08
5.85483e-08
5.67827e-08
5.88596e-08
2.50832e-08
6.5203e-08
2.44071e-08
2.37678e-08
0
2.45759e-08
0
2.46341e-08
2.55674e-08
2.50127e-08
6.04358e-08
2.40032e-08
2.36795e-08
5.94989e-08
2.50953e-08
2.47831e-08
2.54584e-08
2.54658e-08
2.55457e-08
2.78035e-08
5.43821e-09
1.634e-08
2.5403e-08
2.50455e-08
2.51859e-08
2.48502e-08
2.49939e-08
2.51232e-08
6.47042e-08
2.55708e-08
2.41811e-08
2.41863e-08
0
0
0
0
0
0
0
0
0
0
0
0
0
0
0
0
0
0
0
0
0
0
0
0
0
0
0
0
0
0
5.86527e-08
0
2.52654e-08
2.60678e-08
0
2.56201e-08
6.1739e-08
2.42697e-08
2.4834e-08
2.48931e-08
2.44677e-08
2.46633e-08
2.4768e-08
1.09246e-07
2.54821e-08
2.47943e-08
2.45675e-08
2.42793e-08
0
2.52093e-08
2.43178e-08
6.04366e-08
6.11498e-08
2.52518e-08
2.49479e-08
2.50892e-08
2.5534e-08
2.65389e-08
0
2.53362e-08
2.49988e-08
2.52517e-08
2.67983e-08
2.61764e-08
6.041e-08
2.41377e-08
2.45631e-08
2.47186e-08
6.07349e-08
2.64645e-08
0
2.59779e-08
2.60765e-08
2.5454e-08
0
0
0
0
0
0
0
0
0
0
0
0
0
0
0
0
0
0
0
0
0
0
0
0
0
0
0
0
0
0
6.03291e-08
2.51949e-08
2.54096e-08
2.59539e-08
0
2.59855e-08
2.56191e-08
2.5429e-08
2.54874e-08
2.50374e-08
2.49253e-08
2.46939e-08
0
2.58283e-08
2.76129e-08
0
5.84822e-08
1.0093e-07
5.66178e-08
2.31785e-08
2.41218e-08
0
0
2.56492e-08
2.57352e-08
2.57991e-08
0
2.48589e-08
6.4545e-08
2.62838e-08
0
5.98301e-08
2.46557e-08
6.08304e-08
2.50365e-08
2.53209e-08
2.54247e-08
2.52146e-08
2.47594e-08
2.58863e-08
2.76478e-08
0
2.57894e-08
2.59301e-08
0
2.5236e-08
0
0
0
0
0
0
0
0
0
0
0
0
0
0
0
0
0
0
0
0
0
0
0
0
0
0
0
0
0
2.71177e-08
0
2.56713e-08
2.55927e-08
2.68269e-08
2.59683e-08
2.49079e-08
2.44961e-08
2.47792e-08
6.02889e-08
2.43626e-08
0
2.53569e-08
2.71247e-08
2.70528e-08
2.53496e-08
2.50084e-08
2.48707e-08
2.49872e-08
6.00346e-08
2.39727e-08
2.46423e-08
2.5422e-08
0
2.50826e-08
2.57475e-08
0
2.5451e-08
0
2.63924e-08
6.11701e-08
2.41534e-08
6.05508e-08
2.48836e-08
0
2.40555e-08
2.53229e-08
2.58618e-08
0
2.5529e-08
2.62095e-08
2.64835e-08
2.59559e-08
2.56096e-08
2.55261e-08
2.51977e-08
0
0
0
0
0
0
0
0
0
0
0
0
0
0
0
0
0
0
0
0
0
0
0
0
0
0
0
0
0
6.51537e-09
1.46811e-08
2.62652e-08
2.54677e-08
2.57957e-08
2.4884e-08
2.44225e-08
4.28658e-08
3.65048e-08
2.45512e-08
2.45342e-08
2.57101e-08
0
2.65896e-08
3.86055e-08
4.38537e-08
2.49903e-08
0
2.54717e-08
2.47946e-08
2.4401e-08
2.57939e-08
0
6.03618e-08
6.1315e-08
2.50246e-08
2.49316e-08
2.46562e-08
6.00039e-08
6.18524e-08
5.942e-08
2.34487e-08
2.44741e-08
5.93162e-08
5.94861e-08
2.47707e-08
2.51309e-08
0
2.5046e-08
2.69538e-08
0
2.62265e-08
2.62516e-08
0
0
2.43725e-08
4.34733e-08
6.69524e-09
0
0
0
0
0
0
0
0
0
0
0
0
0
0
0
0
0
0
0
0
0
0
0
0
0
0
0
2.55543e-08
2.53202e-08
2.54e-08
2.52499e-08
6.17857e-08
2.51691e-08
2.4387e-08
2.4659e-08
2.46832e-08
2.47836e-08
2.47466e-08
2.44658e-08
6.32327e-08
2.70983e-08
5.97835e-08
0
2.47313e-08
0
2.51931e-08
2.55343e-08
0
0
6.0661e-08
2.51687e-08
6.24966e-08
2.50707e-08
2.55442e-08
0
2.63625e-08
9.5509e-09
3.98793e-08
2.42802e-08
2.45349e-08
0
0
6.14154e-08
0
2.5074e-08
5.98378e-08
2.61497e-08
2.71099e-08
0
2.59942e-08
0
6.1157e-08
6.00372e-08
2.35581e-08
0
0
0
0
0
0
0
0
0
0
0
0
0
0
0
0
0
0
0
0
0
0
0
0
0
0
0
0
2.53901e-08
0
2.55087e-08
2.57056e-08
4.04503e-08
4.25236e-08
2.49011e-08
2.49141e-08
0
0
6.05605e-08
2.42002e-08
2.60095e-08
2.60117e-08
2.54195e-08
2.49777e-08
0
2.52902e-08
2.52082e-08
2.52806e-08
2.57964e-08
0
2.51659e-08
0
6.22437e-08
6.03927e-08
2.40226e-08
5.97959e-08
2.55155e-08
6.10189e-08
2.42453e-08
2.46428e-08
2.50749e-08
2.52255e-08
2.54805e-08
2.55251e-08
2.56064e-08
0
2.50211e-08
2.58463e-08
2.64252e-08
2.58334e-08
2.55962e-08
1.38669e-10
2.54546e-08
2.56567e-08
0
0
0
0
0
0
0
0
0
0
0
0
0
0
0
0
0
0
0
0
0
0
0
0
0
0
0
0
0
2.51921e-08
2.52948e-08
2.53848e-08
6.00408e-08
6.06429e-08
2.40339e-08
2.44124e-08
0
2.52136e-08
6.10525e-08
2.47495e-08
2.53123e-08
2.56491e-08
2.56193e-08
2.6192e-08
0
2.53788e-08
2.52011e-08
2.52252e-08
2.53336e-08
0
2.49723e-08
2.50272e-08
6.2533e-08
6.23538e-08
2.42114e-08
4.105e-08
3.82632e-08
2.4553e-08
2.52447e-08
2.50917e-08
2.54309e-08
2.55074e-08
2.53979e-08
2.52859e-08
2.52653e-08
2.51596e-08
2.48593e-08
2.48524e-08
2.61964e-08
2.4885e-08
6.11304e-08
2.54856e-08
2.53297e-08
9.00939e-09
9.52863e-09
0
0
0
0
0
0
0
0
0
0
0
0
0
0
0
0
0
0
0
0
0
0
0
0
0
0
0
0
0
0
3.35599e-08
5.06824e-08
4.41945e-09
4.99494e-08
2.44148e-08
2.57814e-08
0
2.53629e-08
2.61384e-08
0
2.55435e-08
2.58295e-08
0
2.54385e-08
2.53444e-08
2.56305e-08
2.55124e-08
0
5.91889e-08
3.54529e-08
4.44202e-08
5.79968e-08
6.39925e-08
2.58419e-08
3.23589e-08
5.02332e-08
2.4494e-08
2.52458e-08
2.57585e-08
2.5883e-08
2.56901e-08
2.47762e-08
2.49189e-08
2.51248e-08
2.51807e-08
2.49761e-08
2.46557e-08
2.55064e-08
2.55783e-08
2.51999e-08
6.37713e-08
2.78632e-08
5.97652e-08
0
0
0
0
0
0
0
0
0
0
0
0
0
0
0
0
0
0
0
0
0
0
0
0
0
0
0
0
0
0
0
2.53365e-08
2.54538e-08
2.56233e-08
1.04245e-07
0
0
2.53472e-08
2.53677e-08
2.52919e-08
1.19627e-08
3.9912e-09
2.5679e-08
0
2.59009e-08
2.49027e-08
2.46621e-08
2.49834e-08
2.49429e-08
2.48692e-08
4.33764e-08
6.7611e-09
0
0
0
0
2.737e-08
2.66122e-08
5.8916e-08
2.43582e-08
6.39693e-08
2.56498e-08
2.43563e-08
2.44343e-08
2.50908e-08
2.50158e-08
2.51971e-08
2.50677e-08
2.49805e-08
0
4.58838e-08
3.56628e-08
2.59491e-08
2.60608e-08
2.59639e-08
2.59637e-08
0
0
0
0
0
0
0
0
0
0
0
0
0
0
0
0
0
0
0
0
0
0
0
0
0
0
0
0
0
0
0
2.5995e-08
2.66983e-08
0
2.44324e-08
2.49578e-08
2.52745e-08
2.45271e-08
2.46839e-08
2.52318e-08
2.56541e-08
2.64211e-08
0
6.05188e-08
2.46471e-08
2.45989e-08
6.0456e-08
0
0
0
2.56144e-08
2.48775e-08
2.44221e-08
2.42497e-08
1.11737e-07
2.69513e-08
0
2.4126e-08
2.47495e-08
2.58151e-08
6.39694e-08
2.46001e-08
2.46962e-08
2.50072e-08
2.51282e-08
2.49581e-08
2.47675e-08
0
6.05531e-08
2.47301e-08
2.43811e-08
2.49505e-08
2.66628e-08
6.22395e-08
2.60254e-08
0
0
0
0
0
0
0
0
0
0
0
0
0
0
0
0
0
0
0
0
0
0
0
0
0
0
0
0
0
0
2.49663e-08
6.38925e-08
2.61932e-08
0
5.83323e-08
5.76403e-08
5.75513e-08
5.90528e-08
2.48391e-08
2.5426e-08
2.56223e-08
2.55967e-08
2.52915e-08
6.06271e-08
2.41361e-08
6.0314e-08
0
6.01852e-08
2.5553e-08
8.154e-09
1.11915e-08
2.54903e-08
2.48308e-08
5.97574e-08
2.60681e-08
6.41226e-08
2.53742e-08
2.52899e-08
2.52715e-08
2.6361e-08
2.61511e-08
0
2.49326e-08
2.51182e-08
6.13263e-08
2.46408e-08
2.45009e-08
5.9101e-08
2.42983e-08
2.44191e-08
2.45007e-08
2.50383e-08
2.76413e-08
2.75249e-08
2.62306e-08
0
0
0
0
0
0
0
0
0
0
0
0
0
0
0
0
0
0
0
0
0
0
0
0
0
0
0
0
0
0
1.03928e-07
0
2.53963e-08
2.56097e-08
2.44026e-08
2.37656e-08
2.40541e-08
2.48158e-08
2.46507e-08
2.52506e-08
6.17473e-08
2.46665e-08
2.49454e-08
2.52106e-08
3.64906e-08
4.71607e-08
2.4285e-08
2.44728e-08
2.44611e-08
2.51897e-08
1.24773e-09
2.22845e-08
6.12721e-08
1.31646e-08
2.15879e-09
2.62827e-08
2.62323e-08
2.5699e-08
2.64444e-08
2.71296e-08
0
6.01283e-08
2.4348e-08
2.45876e-08
2.54871e-08
6.15155e-08
2.4548e-08
2.46357e-08
2.45428e-08
2.44234e-08
2.4076e-08
6.4128e-08
2.85211e-08
2.77865e-08
2.61693e-08
0
0
0
0
0
0
0
0
0
0
0
0
0
0
0
0
0
0
0
0
0
0
0
0
0
0
0
0
0
0
2.52485e-08
2.54812e-08
2.5299e-08
2.56655e-08
2.53358e-08
2.48431e-08
2.43137e-08
2.4689e-08
2.50779e-08
2.54417e-08
2.54632e-08
2.52746e-08
6.10706e-08
2.50118e-08
2.51935e-08
2.50917e-08
6.04983e-08
2.45814e-08
0
5.90072e-08
5.96627e-08
5.89388e-08
2.3724e-08
2.44657e-08
2.59006e-08
0
2.62311e-08
2.57939e-08
0
6.4548e-08
2.56501e-08
2.38283e-08
2.36864e-08
2.47551e-08
6.24381e-08
0
2.51891e-08
2.43197e-08
2.48939e-08
2.47557e-08
2.48082e-08
2.53586e-08
2.64549e-08
2.68195e-08
2.66223e-08
0
0
0
0
0
0
0
0
0
0
0
0
0
0
0
0
0
0
0
0
0
0
0
0
0
0
0
0
0
0
2.48223e-08
2.52989e-08
2.52737e-08
0
1.04449e-07
2.35089e-08
2.42714e-08
2.47926e-08
2.50163e-08
6.07499e-08
2.437e-08
2.42683e-08
2.48809e-08
6.18519e-08
2.53752e-08
2.51384e-08
2.50428e-08
2.46774e-08
6.00479e-08
2.44336e-08
2.43842e-08
2.45939e-08
2.51795e-08
0
0
2.60982e-08
2.53574e-08
2.55163e-08
6.15545e-08
2.63807e-08
2.57123e-08
2.5194e-08
3.83803e-10
5.79869e-08
2.51431e-08
2.52519e-08
5.9508e-08
2.41627e-08
5.86259e-08
2.4642e-08
6.05814e-08
2.43364e-08
2.51845e-08
2.57113e-08
2.66013e-08
0
0
0
0
0
0
0
0
0
0
0
0
0
0
0
0
0
0
0
0
0
0
0
0
0
0
0
0
0
0
2.54751e-08
2.55731e-08
2.57477e-08
0
2.51904e-08
2.50309e-08
2.52611e-08
2.51317e-08
6.14994e-08
0
6.02688e-08
2.37461e-08
2.45859e-08
2.59322e-08
2.62537e-08
2.51231e-08
0
2.52353e-08
2.51257e-08
6.10916e-08
2.43359e-08
0
2.44948e-08
2.72458e-08
0
2.57864e-08
2.53643e-08
2.58842e-08
2.61408e-08
2.62524e-08
2.60827e-08
2.57544e-08
5.94637e-08
2.50179e-08
6.03776e-08
6.12446e-08
0
0
2.49848e-08
4.71332e-08
3.33658e-08
2.50684e-08
2.54076e-08
2.69556e-08
2.79301e-08
0
2.5985e-08
0
0
0
0
0
0
0
0
0
0
0
0
0
0
0
0
0
0
0
0
0
0
0
0
0
0
0
0
2.52269e-08
6.08375e-08
2.46201e-08
2.48997e-08
0
2.41144e-08
2.53647e-08
2.54849e-08
2.51264e-08
2.55676e-08
2.48031e-08
2.40426e-08
6.02462e-08
6.30002e-08
2.58797e-08
0
2.50699e-08
0
2.5457e-08
2.54765e-08
2.5214e-08
6.0379e-08
2.51656e-08
2.49093e-08
2.51895e-08
2.49874e-08
2.50066e-08
2.48389e-08
2.5638e-08
2.64532e-08
2.58661e-08
0
2.48244e-08
0
2.57924e-08
2.61993e-08
4.3689e-08
3.7304e-08
2.4601e-08
5.90968e-08
2.44341e-08
2.49328e-08
4.37723e-08
6.72803e-09
2.71708e-08
2.64408e-08
2.57131e-08
0
0
0
0
0
0
0
0
0
0
0
0
0
0
0
0
0
0
0
0
0
0
0
0
0
0
0
0
2.50477e-08
0
5.91364e-08
5.95482e-08
5.9337e-08
2.45178e-08
2.49543e-08
0
0
2.44341e-08
2.40893e-08
2.53036e-08
2.58401e-08
2.57787e-08
6.26723e-08
2.42982e-08
2.40363e-08
2.58442e-08
0
2.55313e-08
2.54597e-08
2.5182e-08
2.53555e-08
2.48536e-08
2.51022e-08
2.56847e-08
5.92698e-08
2.48629e-08
2.56583e-08
3.31752e-08
1.98747e-08
2.57166e-08
0
2.67745e-08
2.45706e-08
2.60212e-08
2.55271e-08
6.03019e-08
2.50667e-08
2.47081e-08
2.51934e-08
2.53585e-08
2.54243e-08
2.53949e-08
2.60376e-08
2.60723e-08
2.59486e-08
0
0
0
0
0
0
0
0
0
0
0
0
0
0
0
0
0
0
0
0
0
0
0
0
0
0
0
0
2.53425e-08
2.54557e-08
0
2.60808e-08
2.6546e-08
2.53688e-08
2.54638e-08
2.52068e-08
2.53603e-08
0
0
2.62809e-08
2.66017e-08
0
2.58636e-08
2.56615e-08
2.51171e-08
3.12456e-08
3.94048e-08
4.47166e-09
2.5157e-08
0
2.54324e-08
0
2.56262e-08
2.55946e-08
2.5402e-08
2.50323e-08
6.6295e-08
2.64789e-08
2.41514e-08
0
2.54297e-08
1.10328e-08
1.62514e-08
1.43001e-08
2.54256e-08
9.82967e-09
3.81468e-08
2.47616e-08
5.56586e-09
1.4483e-08
2.53184e-08
2.55482e-08
2.57475e-08
2.57671e-08
2.60386e-08
0
0
0
0
0
0
0
0
0
0
0
0
0
0
0
0
0
0
0
0
0
0
0
0
0
0
0
0
2.43924e-08
2.4709e-08
2.50579e-08
2.68469e-08
0
2.53538e-08
2.48982e-08
2.53296e-08
0
2.53334e-08
2.54544e-08
2.57487e-08
0
2.561e-08
2.59698e-08
2.57939e-08
6.1496e-08
2.45889e-08
2.48142e-08
2.48608e-08
0
5.9229e-08
2.42361e-08
2.48427e-08
0
2.53963e-08
2.51503e-08
2.48263e-08
6.62609e-08
2.59555e-08
0
6.08464e-08
2.53603e-08
2.51609e-08
2.45563e-08
2.56492e-08
0
6.09643e-08
2.41453e-08
2.46791e-08
2.4814e-08
2.5479e-08
2.54819e-08
2.5582e-08
2.51833e-08
2.64083e-08
0
0
0
0
0
0
0
0
0
0
0
0
0
0
0
0
0
0
0
0
0
0
0
0
0
0
0
0
0
2.44882e-08
2.48124e-08
0
2.60157e-08
2.62316e-08
2.54089e-08
2.51539e-08
0
5.86699e-08
4.75606e-08
7.53754e-08
2.41744e-08
2.46176e-08
2.49016e-08
2.54202e-08
2.56932e-08
2.55445e-08
2.53431e-08
2.56709e-08
2.53468e-08
2.52888e-08
0
5.85391e-08
2.42926e-08
2.52465e-08
2.57867e-08
2.64045e-08
2.59215e-08
0
0
2.48206e-08
6.53187e-08
2.54984e-08
5.93233e-08
2.44333e-08
2.49815e-08
2.58716e-08
0
2.51602e-08
2.68761e-08
5.98463e-08
0
2.52338e-08
0
2.51103e-08
2.47282e-08
6.50698e-08
0
0
0
0
0
0
0
0
0
0
0
0
0
0
0
0
0
0
0
0
0
0
0
0
0
0
0
0
2.4663e-08
2.47367e-08
2.55653e-08
2.53003e-08
2.52298e-08
2.47515e-08
2.51889e-08
2.47615e-08
2.46733e-08
2.60041e-08
0
2.61308e-08
2.52537e-08
2.47958e-08
2.56514e-08
2.60151e-08
2.55273e-08
2.56906e-08
2.53515e-08
2.50285e-08
2.49381e-08
2.46098e-08
2.45555e-08
2.41853e-08
6.30688e-08
0
2.53245e-08
2.50704e-08
2.56088e-08
2.59879e-08
2.5818e-08
2.75054e-08
2.6632e-08
2.50478e-08
2.52831e-08
2.38904e-08
2.36495e-08
5.87264e-08
2.56444e-08
2.51956e-08
2.49715e-08
2.487e-08
2.49897e-08
6.05384e-08
2.46366e-08
0
2.59157e-08
2.68874e-08
2.51528e-08
0
0
0
0
0
0
0
0
0
0
0
0
0
0
0
0
0
0
0
0
0
0
0
0
0
0
6.01776e-08
2.45722e-08
2.47288e-08
2.50248e-08
5.92084e-08
2.47237e-08
2.48943e-08
8.82679e-09
8.66964e-09
2.60734e-08
2.68637e-08
2.39789e-08
2.46021e-08
2.63577e-08
0
2.46345e-08
2.55468e-08
2.6055e-08
2.59888e-08
2.55915e-08
2.53507e-08
2.51123e-08
2.51369e-08
3.95781e-08
1.04813e-08
6.12287e-08
5.90126e-08
5.85442e-08
2.43875e-08
2.54604e-08
0
2.75474e-08
0
2.58533e-08
2.53708e-08
0
2.54271e-08
2.53913e-08
2.53735e-08
0
0
0
2.57164e-08
2.56028e-08
2.53969e-08
3.90914e-08
4.38254e-08
2.49815e-08
2.37317e-08
0
0
0
0
0
0
0
0
0
0
0
0
0
0
0
0
0
0
0
0
0
0
0
0
0
0
0
2.46619e-08
2.5339e-08
2.55104e-08
2.51824e-08
5.83695e-08
5.64371e-08
2.55292e-08
0
2.57047e-08
2.49297e-08
2.37739e-08
2.26951e-08
2.58225e-08
6.11594e-08
0
0
2.54247e-08
2.65942e-08
2.53575e-08
2.53246e-08
2.51824e-08
2.52936e-08
2.5523e-08
0
2.59221e-08
2.57162e-08
2.47742e-08
2.37394e-08
0
5.88756e-08
2.68302e-08
6.18946e-08
2.56473e-08
2.53514e-08
2.49801e-08
2.50047e-08
2.5112e-08
2.45836e-08
0
0
2.46577e-08
2.51027e-08
2.48521e-08
0
2.58088e-08
0
2.52892e-08
3.85527e-08
1.13872e-08
0
2.56914e-08
0
0
0
0
0
0
0
0
0
0
0
0
0
0
0
0
0
0
0
0
0
0
0
2.51755e-08
0
2.58265e-08
0
0
2.49842e-08
2.43157e-08
2.35785e-08
5.98713e-08
2.44193e-08
2.46721e-08
6.00248e-08
0
2.66285e-08
2.46288e-08
5.90403e-08
6.2319e-08
0
2.66517e-08
0
0
0
2.51679e-08
2.52465e-08
2.55689e-08
2.56321e-08
2.54771e-08
6.00312e-08
2.47958e-08
2.53074e-08
0
0
2.51376e-08
6.64498e-08
1.06017e-08
7.27769e-08
2.37119e-08
0
0
0
5.93032e-08
2.51016e-08
2.5271e-08
6.03265e-08
2.41291e-08
2.72884e-08
6.18017e-08
5.9614e-08
0
2.53104e-08
2.5677e-08
3.54625e-09
1.80129e-08
2.56973e-08
0
0
0
0
0
0
0
0
0
0
0
0
0
0
0
0
0
0
0
0
0
2.43736e-08
2.50142e-08
2.53401e-08
2.54464e-08
2.55797e-08
2.53094e-08
5.88317e-08
2.37808e-08
2.38323e-08
2.45066e-08
5.76927e-08
2.49881e-08
0
2.37503e-08
2.57347e-08
2.43162e-08
6.54002e-08
2.80927e-08
0
2.52322e-08
2.48598e-08
2.53049e-08
2.51277e-08
5.85153e-08
2.4621e-08
0
2.57948e-08
2.53029e-08
2.55924e-08
2.5694e-08
2.63827e-08
2.52996e-08
2.4556e-08
2.48271e-08
2.3457e-08
2.4167e-08
0
2.53926e-08
0
5.87775e-08
2.46717e-08
2.45004e-08
5.77021e-08
2.34347e-08
0
6.24493e-08
0
2.5692e-08
2.50396e-08
2.49843e-08
5.96871e-08
2.48549e-08
2.50043e-08
2.47074e-08
2.54711e-08
0
0
0
0
0
0
0
0
0
0
0
0
0
0
0
0
0
0
0
0
)
;


// ************************************************************************* //
