/*--------------------------------*- C++ -*----------------------------------*\
  =========                 |
  \\      /  F ield         | OpenFOAM: The Open Source CFD Toolbox
   \\    /   O peration     | Website:  https://openfoam.org
    \\  /    A nd           | Version:  12
     \\/     M anipulation  |
\*---------------------------------------------------------------------------*/
FoamFile
{
    format      ascii;
    class       volScalarField;
    location    "0.6";
    object      p;
}
// * * * * * * * * * * * * * * * * * * * * * * * * * * * * * * * * * * * * * //

dimensions      [0 2 -2 0 0 0 0];

internalField   nonuniform List<scalar> 
3750
(
0.719155
0.671009
0.67139
0.662662
0.656055
0.64642
0.642677
0.63454
0.624755
0.61779
0.611378
0.604542
0.597486
0.590506
0.570807
0.558734
0.54847
0.534372
0.525012
0.516678
0.508504
0.500715
0.492173
0.479158
0.465884
0.458576
0.452594
0.451687
0.452658
0.439541
0.428738
0.416793
0.405801
0.396017
0.387021
0.379546
0.377176
0.381379
0.335555
0.339247
0.335179
0.329439
0.315477
0.311158
0.313996
0.267939
0.2692
0.266098
0.262611
0.263398
0.215252
0.215209
0.209461
0.197161
0.190206
0.181716
0.172993
0.164182
0.155165
0.146008
0.136764
0.12746
0.118113
0.108733
0.0993242
0.0898905
0.0804344
0.0709636
0.0615011
0.0520636
0.0426027
0.0331103
0.023826
0.0142104
0.00469638
0.70334
0.68445
0.677359
0.662787
0.658285
0.652882
0.645168
0.63624
0.621837
0.61737
0.612243
0.604505
0.596409
0.587499
0.574355
0.55726
0.549729
0.533244
0.525188
0.516526
0.508088
0.500042
0.49248
0.478295
0.46517
0.460499
0.450504
0.442482
0.463843
0.440098
0.426567
0.416009
0.404953
0.395384
0.384907
0.374465
0.36865
0.369724
0.352472
0.343566
0.336819
0.339381
0.302207
0.30346
0.299784
0.283691
0.273149
0.266302
0.25843
0.249402
0.229049
0.218805
0.20983
0.199747
0.191104
0.182278
0.173394
0.164401
0.155294
0.146093
0.136823
0.127503
0.118145
0.108758
0.0993434
0.0899042
0.0804427
0.0709477
0.0614672
0.0520764
0.0426271
0.0331715
0.0237559
0.0141926
0.00467856
0.698625
0.686462
0.677935
0.666745
0.661794
0.655885
0.650108
0.645597
0.608461
0.62002
0.615296
0.604696
0.595751
0.586435
0.574188
0.560497
0.547534
0.535264
0.525684
0.516517
0.506998
0.498403
0.489429
0.47759
0.467418
0.462168
0.456402
0.457232
0.469254
0.4228
0.421612
0.415297
0.405796
0.393779
0.382084
0.369009
0.355878
0.374794
0.357673
0.343993
0.333361
0.323448
0.307801
0.305875
0.301084
0.290455
0.272849
0.266669
0.256979
0.246212
0.232694
0.221509
0.211421
0.201557
0.192232
0.183042
0.173887
0.164717
0.155503
0.14624
0.13693
0.127581
0.118204
0.108803
0.0993811
0.089937
0.0804718
0.0709892
0.0615167
0.0520776
0.0426312
0.0331862
0.0237395
0.0141986
0.00466006
0.694924
0.68358
0.675347
0.671424
0.666171
0.656037
0.647178
0.632646
0.610462
0.632001
0.622233
0.603383
0.594875
0.587161
0.572205
0.562009
0.548646
0.536037
0.525555
0.516448
0.504385
0.49555
0.487538
0.472712
0.467516
0.46561
0.462223
0.461303
0.466235
0.420936
0.421791
0.417317
0.409645
0.392343
0.379762
0.370675
0.364038
0.363701
0.354047
0.341893
0.329357
0.314518
0.297389
0.315324
0.303251
0.291004
0.277215
0.267086
0.25666
0.245719
0.234108
0.223124
0.212784
0.202825
0.193202
0.183762
0.17441
0.16509
0.15577
0.146433
0.137073
0.127689
0.118285
0.108866
0.0994362
0.0899888
0.0805249
0.0710508
0.061578
0.0521144
0.0426512
0.0331966
0.0237387
0.0141984
0.00465249
0.692805
0.677834
0.664675
0.682877
0.669737
0.655898
0.644155
0.631863
0.621291
0.624186
0.630073
0.59285
0.593434
0.586256
0.574706
0.56482
0.549382
0.535343
0.524298
0.51568
0.499957
0.491899
0.482126
0.469603
0.463754
0.470866
0.465932
0.459714
0.452889
0.435188
0.427507
0.422529
0.423128
0.383596
0.376315
0.371746
0.365743
0.359235
0.350687
0.339871
0.327826
0.314598
0.301999
0.303131
0.304169
0.292876
0.279618
0.267922
0.256824
0.245821
0.234817
0.224107
0.213774
0.203752
0.193986
0.184391
0.1749
0.165464
0.156053
0.146646
0.137235
0.127814
0.118384
0.10895
0.099508
0.0900498
0.0805792
0.0711012
0.0616237
0.0521476
0.0426732
0.0332085
0.023745
0.0142008
0.00464767
0.693207
0.677097
0.669156
0.677469
0.667364
0.653987
0.641694
0.632664
0.623566
0.61746
0.613968
0.607829
0.599621
0.589557
0.580403
0.568431
0.548397
0.530966
0.520503
0.511038
0.499578
0.489836
0.478678
0.466346
0.45445
0.478561
0.469463
0.458731
0.450992
0.43977
0.430481
0.422313
0.413354
0.393161
0.381675
0.374112
0.366974
0.358894
0.349852
0.339135
0.327489
0.315042
0.301897
0.288939
0.310567
0.295467
0.280537
0.268279
0.256936
0.245979
0.23523
0.224711
0.214451
0.204425
0.194597
0.184917
0.175334
0.165814
0.156331
0.146866
0.137407
0.127949
0.118494
0.109045
0.0995885
0.0901176
0.0806378
0.0711538
0.0616679
0.0521819
0.0426971
0.033223
0.0237546
0.0142041
0.00464662
0.695053
0.675798
0.661356
0.679965
0.665702
0.651552
0.64005
0.629628
0.619481
0.614007
0.600564
0.617637
0.607046
0.594388
0.583275
0.56935
0.55897
0.519663
0.515651
0.508426
0.499157
0.489284
0.476682
0.466941
0.459822
0.465729
0.467927
0.459313
0.45242
0.442417
0.432251
0.422741
0.413703
0.394256
0.384733
0.376185
0.368321
0.360421
0.3508
0.339377
0.327312
0.31618
0.305202
0.297239
0.300303
0.291141
0.279288
0.267734
0.256684
0.245946
0.235411
0.225061
0.214895
0.204903
0.195062
0.185342
0.175706
0.166129
0.156593
0.147081
0.137584
0.128096
0.118618
0.109147
0.0996703
0.0901855
0.0806962
0.0712041
0.0617097
0.0522148
0.0427218
0.0332402
0.0237655
0.0142084
0.00464695
0.690255
0.677047
0.666623
0.667934
0.65741
0.646718
0.638265
0.626472
0.609516
0.62348
0.607595
0.605717
0.608943
0.596486
0.579057
0.56687
0.549424
0.533519
0.517539
0.507862
0.49944
0.491076
0.474827
0.466751
0.459662
0.454978
0.463902
0.467734
0.456711
0.444897
0.433895
0.422705
0.411156
0.397113
0.386787
0.377642
0.370031
0.362724
0.353333
0.34017
0.326909
0.316979
0.307956
0.301744
0.29584
0.287388
0.277252
0.26669
0.256148
0.245716
0.235409
0.225226
0.21517
0.205235
0.19541
0.185676
0.176013
0.166403
0.156832
0.147286
0.137758
0.128244
0.118743
0.10925
0.0997546
0.0902563
0.0807563
0.0712548
0.061752
0.0522491
0.0427483
0.0332592
0.0237778
0.0142139
0.00464813
0.678154
0.676789
0.672154
0.663033
0.647189
0.638556
0.641112
0.632842
0.624534
0.61841
0.607429
0.58686
0.611683
0.591223
0.575434
0.564975
0.546812
0.535293
0.522682
0.506873
0.49998
0.491224
0.475126
0.465934
0.456474
0.439448
0.460708
0.4812
0.460816
0.446936
0.43536
0.42287
0.411159
0.399109
0.388123
0.380207
0.371307
0.363979
0.356643
0.34156
0.324317
0.317397
0.309302
0.301851
0.294311
0.285425
0.275675
0.265627
0.255479
0.245358
0.235286
0.225274
0.215332
0.205464
0.19567
0.185941
0.176266
0.166637
0.157041
0.147471
0.137919
0.128383
0.118861
0.109349
0.0998393
0.0903276
0.0808166
0.0713056
0.0617943
0.0522837
0.0427755
0.0332793
0.0237911
0.0142204
0.00464988
0.689207
0.680331
0.677186
0.669028
0.628154
0.622366
0.647961
0.640726
0.640155
0.606925
0.616524
0.580563
0.592484
0.584358
0.572717
0.561019
0.547026
0.535364
0.523862
0.510041
0.501312
0.493816
0.476364
0.466792
0.458725
0.451272
0.45814
0.467219
0.462526
0.449711
0.437536
0.422102
0.411412
0.400684
0.389947
0.380271
0.370927
0.365014
0.35589
0.34342
0.326877
0.319063
0.310365
0.302479
0.293709
0.284241
0.274439
0.264633
0.254808
0.244959
0.235099
0.225246
0.215413
0.205615
0.195861
0.186148
0.176474
0.166835
0.157224
0.147637
0.138067
0.128512
0.118973
0.109446
0.0999217
0.0903973
0.0808752
0.0713549
0.0618365
0.0523188
0.0428032
0.0332998
0.0238051
0.0142275
0.00465203
0.690374
0.680432
0.67104
0.657448
0.638206
0.62983
0.635342
0.63266
0.63031
0.616891
0.608957
0.59419
0.587245
0.5818
0.57065
0.558665
0.546474
0.534529
0.522933
0.511362
0.502424
0.492921
0.47955
0.46885
0.459447
0.456707
0.455505
0.452622
0.471676
0.451263
0.438435
0.420724
0.412359
0.401402
0.390854
0.380803
0.371335
0.364821
0.354535
0.342941
0.332365
0.321719
0.311874
0.303151
0.29342
0.283049
0.27328
0.263712
0.254176
0.244581
0.234907
0.225192
0.215456
0.205723
0.196008
0.186315
0.176647
0.167003
0.157382
0.147782
0.138202
0.128636
0.119083
0.10954
0.100001
0.0904644
0.0809303
0.0714006
0.0618765
0.0523537
0.0428309
0.0333204
0.0238193
0.0142349
0.00465432
0.690585
0.679856
0.668712
0.6552
0.642359
0.632944
0.624759
0.615045
0.633601
0.618866
0.609057
0.599254
0.588604
0.579296
0.56828
0.556387
0.545375
0.534168
0.522115
0.512998
0.503887
0.492523
0.479854
0.469339
0.453848
0.459337
0.465505
0.462495
0.466575
0.441174
0.433543
0.423615
0.413013
0.402083
0.391397
0.381081
0.372719
0.363683
0.353587
0.343265
0.334989
0.323702
0.313476
0.303787
0.293575
0.281243
0.271871
0.262807
0.253645
0.244272
0.234759
0.225151
0.215494
0.205815
0.196131
0.186454
0.176793
0.167147
0.157518
0.147909
0.138317
0.128743
0.11918
0.109625
0.100075
0.0905288
0.080986
0.0714479
0.061915
0.0523827
0.0428538
0.0333398
0.0238338
0.014242
0.00465662
0.692208
0.679839
0.669558
0.652617
0.643251
0.632869
0.623566
0.616165
0.619431
0.612518
0.612644
0.60224
0.589748
0.578561
0.567303
0.556477
0.544789
0.531521
0.517511
0.51623
0.506423
0.493257
0.479772
0.466254
0.443674
0.462222
0.481767
0.469228
0.432954
0.455468
0.439454
0.426208
0.413563
0.402247
0.391697
0.381723
0.373846
0.36345
0.354001
0.345141
0.33609
0.324185
0.315128
0.304248
0.294333
0.27675
0.270224
0.262125
0.253297
0.244106
0.234699
0.225159
0.21555
0.205904
0.196242
0.186576
0.176917
0.167269
0.157635
0.148019
0.138418
0.128837
0.119266
0.109701
0.100141
0.0905867
0.0810367
0.0714913
0.0619496
0.0524096
0.0428759
0.0333581
0.0238472
0.0142489
0.00465871
0.695118
0.677594
0.683835
0.642627
0.640098
0.63146
0.622356
0.614739
0.613954
0.604302
0.620471
0.603789
0.589532
0.578073
0.567158
0.556556
0.545355
0.531152
0.506067
0.524377
0.508916
0.493543
0.479117
0.466513
0.463878
0.465462
0.463766
0.445718
0.452898
0.449161
0.446007
0.425441
0.412392
0.402055
0.391812
0.382456
0.373428
0.36226
0.354313
0.347581
0.339307
0.321912
0.316089
0.303351
0.29041
0.275834
0.269972
0.262048
0.253325
0.244168
0.234776
0.225249
0.215649
0.206011
0.196355
0.186693
0.177033
0.16738
0.157737
0.148108
0.138504
0.128919
0.119343
0.10977
0.100202
0.0906402
0.0810837
0.0715313
0.0619823
0.0524356
0.0428973
0.0333759
0.0238594
0.0142551
0.0046606
0.704634
0.656989
0.681613
0.65873
0.639732
0.631585
0.621402
0.607845
0.626543
0.612681
0.609827
0.599254
0.58791
0.577127
0.566943
0.557089
0.548538
0.545868
0.504628
0.5155
0.506198
0.49388
0.478828
0.461907
0.481284
0.469242
0.458333
0.446638
0.443692
0.436613
0.463248
0.415026
0.408289
0.400991
0.39139
0.382903
0.375167
0.359481
0.353932
0.351279
0.351315
0.307958
0.308833
0.301625
0.291592
0.280267
0.27164
0.262874
0.253786
0.244462
0.234984
0.225414
0.21579
0.206137
0.196471
0.186803
0.17714
0.167485
0.157842
0.148212
0.138597
0.128999
0.119411
0.10983
0.100255
0.0906881
0.0811252
0.0715667
0.062012
0.0524604
0.0429187
0.0333928
0.0238684
0.0142594
0.00466219
0.694237
0.680775
0.678074
0.673849
0.630632
0.631617
0.626516
0.620691
0.624911
0.612257
0.602544
0.594401
0.585201
0.575542
0.566368
0.556115
0.546894
0.537659
0.52069
0.514809
0.504998
0.495786
0.483924
0.473519
0.478749
0.465266
0.456319
0.447582
0.439933
0.435657
0.438277
0.422133
0.409083
0.399486
0.38938
0.381877
0.372315
0.360558
0.354443
0.348548
0.338974
0.315585
0.309208
0.303083
0.29414
0.28363
0.273717
0.264077
0.254498
0.244906
0.235282
0.225629
0.215956
0.206274
0.19659
0.186909
0.177237
0.167576
0.157928
0.148294
0.138674
0.129068
0.119472
0.109883
0.100303
0.0907294
0.0811611
0.0715977
0.0620384
0.0524826
0.0429371
0.0334069
0.0238774
0.0142641
0.00466402
0.693907
0.683581
0.674061
0.664906
0.646767
0.638439
0.63301
0.630442
0.635564
0.600222
0.594507
0.59056
0.583089
0.574448
0.565897
0.554319
0.545253
0.536704
0.525608
0.517803
0.505886
0.497741
0.48849
0.48092
0.47485
0.462628
0.453735
0.445097
0.437086
0.432912
0.432352
0.424652
0.406814
0.397681
0.388867
0.379357
0.368645
0.355923
0.349351
0.34839
0.333814
0.317284
0.306503
0.307254
0.298304
0.286504
0.275523
0.265206
0.255217
0.245378
0.235607
0.225863
0.216132
0.206412
0.196702
0.187006
0.177323
0.167654
0.158001
0.148362
0.138737
0.129124
0.119522
0.109929
0.100343
0.0907643
0.0811913
0.0716238
0.0620609
0.0525015
0.0429524
0.0334186
0.0238852
0.0142682
0.0046656
0.692608
0.68404
0.674757
0.665112
0.653503
0.642834
0.636871
0.63172
0.62569
0.60834
0.597772
0.590267
0.582147
0.5741
0.567326
0.551113
0.544818
0.537077
0.527915
0.51881
0.508514
0.500468
0.494991
0.481329
0.475554
0.459421
0.451222
0.442001
0.430615
0.425206
0.43433
0.437599
0.396224
0.39538
0.389261
0.377309
0.366907
0.351727
0.337868
0.353619
0.336975
0.318054
0.298087
0.314412
0.302748
0.288381
0.276667
0.266005
0.255788
0.245788
0.235904
0.226083
0.216297
0.206539
0.196805
0.18709
0.177394
0.167716
0.158058
0.148414
0.138785
0.129168
0.119562
0.109964
0.100375
0.0907927
0.0812164
0.0716454
0.0620791
0.052517
0.042965
0.0334284
0.0238921
0.014272
0.00466714
0.690639
0.685198
0.676293
0.666871
0.658998
0.645042
0.639445
0.633993
0.6274
0.608707
0.598645
0.589983
0.581095
0.572524
0.565646
0.550117
0.545151
0.538549
0.530233
0.520936
0.511746
0.503935
0.495364
0.485217
0.487418
0.449108
0.44938
0.44106
0.419816
0.407265
0.43177
0.431468
0.410311
0.398059
0.38962
0.374432
0.367974
0.349946
0.34406
0.346912
0.336726
0.321867
0.306516
0.307181
0.298757
0.287733
0.276874
0.266377
0.256151
0.246091
0.23614
0.22626
0.21643
0.206642
0.196887
0.187159
0.177447
0.167763
0.158106
0.148459
0.138824
0.129203
0.119594
0.109993
0.1004
0.0908149
0.0812358
0.0716622
0.0620933
0.0525287
0.0429743
0.0334356
0.023897
0.0142748
0.00466823
0.699391
0.689314
0.677841
0.668343
0.661033
0.651113
0.642131
0.63706
0.640814
0.599907
0.597984
0.590298
0.579622
0.56901
0.559867
0.54966
0.547132
0.541575
0.532434
0.522739
0.514845
0.507755
0.497298
0.481277
0.474737
0.460736
0.455912
0.452527
0.410013
0.407685
0.408076
0.430872
0.414983
0.398154
0.385149
0.374477
0.365404
0.352238
0.344251
0.347501
0.339314
0.326834
0.309909
0.304928
0.296372
0.286729
0.276646
0.266475
0.256348
0.246286
0.236299
0.22638
0.21652
0.206708
0.196938
0.187199
0.17748
0.167786
0.158119
0.148472
0.138842
0.129222
0.119611
0.110009
0.100416
0.0908294
0.081249
0.0716738
0.0621033
0.052537
0.042981
0.0334406
0.0239008
0.014277
0.00466915
0.713937
0.693074
0.677852
0.666314
0.666551
0.655041
0.640891
0.632013
0.635537
0.615472
0.603164
0.59246
0.578112
0.564196
0.554513
0.54711
0.555029
0.547007
0.534773
0.523394
0.515711
0.511489
0.506298
0.468336
0.470669
0.464446
0.458245
0.442227
0.424777
0.414453
0.407465
0.413427
0.416226
0.394958
0.380811
0.369542
0.36736
0.352518
0.337967
0.356709
0.343233
0.327633
0.313027
0.303631
0.295224
0.286345
0.276621
0.266606
0.256479
0.246404
0.236389
0.226442
0.21656
0.206733
0.196955
0.187213
0.177493
0.167794
0.158126
0.148481
0.138852
0.129232
0.11962
0.110018
0.100424
0.0908368
0.0812559
0.07168
0.0621086
0.0525415
0.0429846
0.0334431
0.0239027
0.0142781
0.00466954
0.710902
0.689102
0.675405
0.658516
0.676367
0.658361
0.635286
0.628008
0.644355
0.621939
0.605479
0.594429
0.576227
0.558399
0.548258
0.544839
0.568103
0.552784
0.536762
0.523459
0.513442
0.505368
0.492292
0.475011
0.477026
0.46821
0.457685
0.444451
0.432655
0.422585
0.405722
0.399212
0.430442
0.382488
0.374095
0.360121
0.377389
0.360804
0.346746
0.347085
0.341636
0.326042
0.311137
0.301855
0.295
0.286441
0.276785
0.266736
0.256581
0.246457
0.236408
0.22644
0.216548
0.206718
0.196941
0.1872
0.177485
0.167794
0.158126
0.148481
0.138851
0.129229
0.119617
0.110017
0.100424
0.0908374
0.0812568
0.0716812
0.0621099
0.0525426
0.0429854
0.0334435
0.023903
0.0142784
0.00466978
0.701994
0.686826
0.674858
0.6741
0.673553
0.658279
0.627209
0.642091
0.634209
0.619287
0.604422
0.590456
0.573966
0.557458
0.536662
0.557732
0.566523
0.555072
0.536988
0.521222
0.509679
0.500304
0.485999
0.470415
0.489854
0.471654
0.459251
0.447171
0.438419
0.437696
0.398436
0.399949
0.405303
0.389851
0.380569
0.36927
0.367816
0.361335
0.348455
0.342467
0.334589
0.322766
0.312745
0.300932
0.296518
0.287516
0.277419
0.267015
0.256674
0.246446
0.23635
0.226368
0.216478
0.206656
0.196887
0.187156
0.17745
0.167767
0.158107
0.148465
0.138834
0.129214
0.119604
0.110006
0.100417
0.0908319
0.0812508
0.0716767
0.0621062
0.0525395
0.042983
0.0334416
0.0239014
0.0142778
0.00466948
0.699971
0.683895
0.67024
0.691255
0.679645
0.672562
0.628504
0.634531
0.62734
0.615271
0.601634
0.587299
0.574846
0.560661
0.546782
0.546871
0.569842
0.557064
0.537011
0.518342
0.507126
0.495479
0.483229
0.484371
0.485077
0.468361
0.457211
0.446721
0.437202
0.427879
0.41326
0.404925
0.397935
0.38978
0.390722
0.372851
0.364802
0.35734
0.34795
0.339805
0.329981
0.317878
0.307533
0.30701
0.299774
0.289204
0.278148
0.267281
0.256669
0.246308
0.236177
0.2262
0.216332
0.206537
0.196792
0.187081
0.177393
0.167724
0.158072
0.148434
0.138806
0.129191
0.119589
0.109993
0.100402
0.0908183
0.0812395
0.0716664
0.062098
0.052533
0.0429778
0.0334373
0.0238983
0.0142761
0.00466904
0.695825
0.688402
0.681921
0.685282
0.675262
0.661819
0.643168
0.635085
0.623539
0.611961
0.599382
0.585795
0.57429
0.56094
0.552514
0.563891
0.562394
0.554049
0.536636
0.517785
0.50511
0.492179
0.47561
0.496187
0.485571
0.462007
0.455093
0.444626
0.435489
0.42813
0.417184
0.406325
0.39427
0.383621
0.410697
0.364403
0.361424
0.354822
0.346461
0.338071
0.325848
0.313801
0.298827
0.317326
0.304893
0.290874
0.278774
0.267284
0.256395
0.245971
0.235858
0.225933
0.216119
0.206371
0.196664
0.186983
0.177318
0.167665
0.158021
0.148389
0.138773
0.129163
0.119559
0.109965
0.100379
0.0907987
0.0812226
0.0716519
0.0620858
0.0525226
0.0429691
0.0334304
0.0238931
0.0142733
0.00466818
0.711986
0.695178
0.686577
0.679495
0.672593
0.656773
0.646976
0.63814
0.620202
0.610313
0.597954
0.585508
0.572513
0.559037
0.555278
0.580753
0.563585
0.551211
0.534752
0.517156
0.503663
0.493489
0.483707
0.486194
0.477991
0.462368
0.452172
0.441143
0.432008
0.433534
0.422004
0.408784
0.396212
0.38621
0.388556
0.370954
0.362426
0.353596
0.344733
0.335365
0.32142
0.316963
0.310324
0.311269
0.302923
0.290991
0.278822
0.266736
0.255667
0.24531
0.235339
0.225548
0.215838
0.206165
0.196509
0.186864
0.177225
0.16759
0.15796
0.148337
0.138724
0.129118
0.119522
0.109933
0.10035
0.0907726
0.0812002
0.0716327
0.0620688
0.0525082
0.0429576
0.0334212
0.0238865
0.0142696
0.00466714
0.710969
0.695785
0.685158
0.676335
0.669213
0.659274
0.649519
0.637787
0.622189
0.610794
0.597469
0.585806
0.571985
0.556703
0.580243
0.576854
0.562198
0.551138
0.533833
0.515619
0.503211
0.494491
0.48716
0.481326
0.473235
0.462259
0.451118
0.437445
0.422905
0.441298
0.426679
0.410574
0.398501
0.386716
0.381326
0.370584
0.360627
0.352241
0.343687
0.330141
0.313888
0.330917
0.317416
0.308305
0.300887
0.290144
0.278527
0.265289
0.254242
0.244263
0.234634
0.225082
0.215523
0.205944
0.196347
0.18674
0.177128
0.167512
0.157892
0.148276
0.138668
0.12907
0.11948
0.109894
0.100314
0.0907401
0.0811716
0.0716078
0.0620473
0.0524904
0.0429431
0.0334098
0.0238784
0.0142649
0.00466582
0.713575
0.691329
0.682038
0.672376
0.663183
0.66318
0.654208
0.641723
0.621123
0.611887
0.595673
0.588133
0.580661
0.576042
0.5808
0.566073
0.556018
0.546254
0.532905
0.516784
0.501741
0.493979
0.486745
0.479159
0.470934
0.462439
0.452518
0.441685
0.434566
0.433416
0.420612
0.40853
0.399891
0.384831
0.37824
0.368995
0.35907
0.350564
0.343691
0.333645
0.322543
0.32354
0.316622
0.307827
0.29933
0.290012
0.279982
0.261556
0.251725
0.242868
0.233855
0.224617
0.215226
0.205739
0.196196
0.186625
0.177035
0.167431
0.15782
0.148211
0.138607
0.129016
0.119431
0.109849
0.100272
0.0907019
0.0811377
0.071578
0.0620217
0.052469
0.0429259
0.0333964
0.023869
0.0142594
0.0046643
0.724052
0.681689
0.679532
0.669425
0.65741
0.673828
0.660928
0.65381
0.609115
0.608141
0.597876
0.588727
0.58529
0.591781
0.589347
0.548561
0.548388
0.54135
0.531372
0.514831
0.503946
0.493315
0.486367
0.477748
0.469397
0.464051
0.454769
0.445697
0.439897
0.436299
0.415965
0.400497
0.395504
0.385334
0.37743
0.368601
0.358039
0.349728
0.342736
0.337005
0.326224
0.320571
0.315522
0.30838
0.298322
0.290583
0.290313
0.249441
0.248295
0.241658
0.233297
0.224301
0.21502
0.205592
0.196083
0.186529
0.176949
0.167353
0.15775
0.148145
0.138546
0.128957
0.119375
0.109796
0.100224
0.0906582
0.0810983
0.0715431
0.0619918
0.0524443
0.042906
0.0333809
0.0238582
0.014253
0.00466252
0.712231
0.695124
0.685263
0.676306
0.669792
0.663589
0.653524
0.640252
0.619389
0.610409
0.601507
0.589524
0.580933
0.611459
0.570203
0.552574
0.546756
0.53861
0.528107
0.514276
0.504254
0.492575
0.483702
0.476192
0.469301
0.465271
0.45636
0.446668
0.442368
0.446603
0.40299
0.396571
0.393831
0.385993
0.377644
0.370089
0.356601
0.348869
0.340939
0.334291
0.329073
0.320624
0.31719
0.311004
0.294792
0.284561
0.277613
0.259942
0.250606
0.242131
0.233359
0.224267
0.214963
0.205529
0.196016
0.186461
0.176878
0.167281
0.157679
0.148078
0.138482
0.128893
0.119312
0.109737
0.100169
0.0906082
0.0810534
0.0715031
0.0619575
0.0524163
0.0428834
0.0333636
0.0238463
0.0142458
0.0046605
0.711154
0.70056
0.690147
0.683931
0.684405
0.647067
0.644496
0.634216
0.619201
0.612422
0.60559
0.591675
0.58793
0.590865
0.574557
0.557499
0.548301
0.538257
0.526987
0.514748
0.50263
0.489725
0.480082
0.473802
0.47067
0.467402
0.458382
0.442533
0.436902
0.432907
0.410777
0.40216
0.394823
0.386742
0.377864
0.368872
0.357718
0.347949
0.337903
0.329699
0.332059
0.323286
0.321223
0.323498
0.286513
0.278448
0.271929
0.261556
0.252061
0.242933
0.233748
0.22445
0.215039
0.205545
0.195997
0.186417
0.176819
0.167213
0.157606
0.148004
0.138407
0.128821
0.119243
0.10967
0.100107
0.0905525
0.0810024
0.0714565
0.0619184
0.0523857
0.0428588
0.033344
0.0238323
0.0142376
0.00465809
0.71348
0.706068
0.690818
0.684884
0.672406
0.650669
0.64346
0.634598
0.623198
0.614445
0.60589
0.595773
0.589744
0.584656
0.57666
0.559634
0.55047
0.53901
0.526858
0.51621
0.502814
0.48271
0.47301
0.467361
0.478248
0.47208
0.466636
0.428169
0.429828
0.426137
0.41589
0.406985
0.397421
0.388017
0.378405
0.368678
0.358196
0.347336
0.334655
0.318557
0.33495
0.321043
0.323915
0.31076
0.312037
0.271396
0.269995
0.262247
0.253096
0.243692
0.234244
0.224741
0.215194
0.20561
0.196003
0.186386
0.176765
0.167145
0.157529
0.147921
0.138324
0.128739
0.119166
0.109599
0.100041
0.0904903
0.0809455
0.0714061
0.0618751
0.0523502
0.0428304
0.0333216
0.0238164
0.0142283
0.00465532
0.716873
0.71918
0.682479
0.692296
0.654884
0.65153
0.644025
0.637158
0.628043
0.619484
0.604114
0.596164
0.589994
0.583442
0.574984
0.562312
0.554227
0.540666
0.527405
0.520611
0.509816
0.466522
0.462683
0.453559
0.482204
0.482149
0.444688
0.436144
0.42844
0.421671
0.422059
0.412803
0.4003
0.389384
0.379081
0.369114
0.358925
0.348313
0.337179
0.327238
0.318423
0.307046
0.334312
0.287085
0.309705
0.286577
0.274493
0.264328
0.254407
0.244576
0.234804
0.225079
0.215379
0.205694
0.196021
0.186358
0.176709
0.16707
0.157444
0.147831
0.138233
0.128649
0.119078
0.109518
0.0999661
0.0904209
0.0808831
0.0713522
0.0618286
0.0523102
0.0427975
0.0332964
0.0237982
0.014218
0.00465211
0.713828
0.70669
0.692377
0.683758
0.66672
0.656409
0.647555
0.638182
0.632373
0.633095
0.593852
0.594465
0.590721
0.583867
0.575773
0.561745
0.553342
0.542143
0.531498
0.52977
0.485124
0.472857
0.463094
0.45504
0.458407
0.463768
0.457282
0.444106
0.428568
0.415606
0.434551
0.419302
0.40098
0.389712
0.379408
0.369849
0.359967
0.350105
0.341921
0.340799
0.300963
0.304594
0.311102
0.298856
0.300829
0.289352
0.277224
0.266157
0.255619
0.245368
0.235318
0.22539
0.215547
0.205764
0.196024
0.186316
0.176638
0.166981
0.157344
0.147727
0.138131
0.12855
0.118982
0.109427
0.0998819
0.0903445
0.0808159
0.0712948
0.0617785
0.0522652
0.04276
0.0332682
0.0237782
0.0142066
0.00464858
0.708894
0.69897
0.697158
0.684979
0.671159
0.659753
0.651138
0.635841
0.630985
0.622936
0.60602
0.597874
0.593221
0.586059
0.575336
0.562503
0.55041
0.543069
0.531683
0.518944
0.491662
0.47672
0.465984
0.453286
0.434958
0.456206
0.472107
0.451121
0.436531
0.429172
0.429739
0.415842
0.398426
0.38918
0.379035
0.370947
0.360917
0.35037
0.339887
0.328857
0.310372
0.30447
0.303501
0.301576
0.298896
0.290364
0.278863
0.267497
0.256551
0.245991
0.235707
0.225615
0.215656
0.205791
0.195994
0.186248
0.176543
0.166872
0.157227
0.147608
0.138014
0.128437
0.118877
0.109329
0.0997914
0.0902624
0.0807421
0.07123
0.0617225
0.0522172
0.0427206
0.0332378
0.0237565
0.0141944
0.00464471
0.700242
0.688416
0.706354
0.687264
0.673235
0.6605
0.64902
0.637562
0.629803
0.621101
0.610674
0.600088
0.594293
0.588696
0.575281
0.562223
0.546489
0.543316
0.533435
0.528722
0.486692
0.475361
0.468233
0.458506
0.444419
0.451181
0.456744
0.447497
0.438108
0.433513
0.428617
0.4134
0.401057
0.389597
0.377165
0.370998
0.361803
0.350372
0.338355
0.324702
0.308573
0.29612
0.297882
0.303053
0.30591
0.294002
0.280461
0.268366
0.257096
0.246336
0.235911
0.22571
0.215672
0.205751
0.195913
0.18614
0.176416
0.166733
0.157085
0.147466
0.137872
0.128305
0.118754
0.109218
0.0996911
0.0901723
0.080663
0.0711604
0.0616616
0.0521657
0.0426786
0.0332052
0.0237335
0.0141815
0.00464065
0.700927
0.695065
0.69636
0.684963
0.674048
0.659937
0.647156
0.637792
0.629524
0.620856
0.612391
0.599568
0.595291
0.587896
0.586208
0.549523
0.543309
0.53826
0.53049
0.521983
0.513402
0.470053
0.471156
0.470514
0.438442
0.447281
0.448512
0.442973
0.435389
0.432677
0.430559
0.417664
0.406013
0.391277
0.370446
0.371703
0.364314
0.351439
0.338258
0.323479
0.304608
0.279703
0.29078
0.304784
0.318427
0.293799
0.280317
0.268356
0.257124
0.246346
0.235885
0.22565
0.215578
0.205628
0.195768
0.185978
0.176245
0.16656
0.156914
0.147301
0.137717
0.12816
0.118622
0.109095
0.0995787
0.0900738
0.080577
0.0710851
0.0615969
0.0521116
0.0426341
0.0331701
0.0237094
0.0141682
0.00463654
0.702289
0.695963
0.690417
0.682817
0.675668
0.658096
0.643081
0.63662
0.629013
0.620851
0.609705
0.599054
0.593568
0.581829
0.573167
0.558269
0.548682
0.53462
0.528879
0.519029
0.507131
0.48326
0.470272
0.463575
0.453421
0.451149
0.447581
0.441286
0.43253
0.421375
0.441249
0.42388
0.414465
0.40086
0.353255
0.379773
0.366552
0.352184
0.339062
0.325536
0.308681
0.291784
0.292102
0.296537
0.29909
0.289487
0.278923
0.267726
0.256716
0.246043
0.235639
0.225431
0.215367
0.205413
0.195547
0.185755
0.176025
0.166347
0.15671
0.147109
0.137538
0.127994
0.11847
0.108957
0.0994556
0.0899665
0.0804848
0.0710056
0.0615291
0.0520552
0.0425868
0.0331324
0.0236852
0.0141554
0.00463268
0.702703
0.695178
0.687791
0.680224
0.673106
0.65529
0.64444
0.636362
0.628496
0.621828
0.606498
0.59601
0.58788
0.578583
0.566007
0.5597
0.549065
0.536643
0.527274
0.518427
0.503813
0.485777
0.469212
0.459961
0.461403
0.455884
0.44907
0.442288
0.434526
0.430948
0.435396
0.428155
0.426797
0.383707
0.373914
0.377337
0.365648
0.353
0.341618
0.330593
0.311805
0.296693
0.293081
0.288329
0.284261
0.287542
0.278104
0.266819
0.255948
0.245468
0.235199
0.225067
0.215042
0.205107
0.195253
0.185472
0.175754
0.166089
0.15647
0.146887
0.137336
0.12781
0.118303
0.108808
0.0993239
0.089852
0.0803862
0.070921
0.0614582
0.0519971
0.0425393
0.0330947
0.0236592
0.0141414
0.00462856
0.702176
0.69346
0.685378
0.677317
0.668397
0.655368
0.645269
0.636009
0.626929
0.617759
0.605541
0.590593
0.582771
0.572236
0.570551
0.561062
0.550664
0.539108
0.527716
0.51734
0.499384
0.488289
0.469158
0.451912
0.472367
0.4608
0.450659
0.443799
0.43876
0.435478
0.431527
0.425886
0.417785
0.398918
0.38522
0.379376
0.366941
0.351237
0.344029
0.343011
0.302132
0.301145
0.295373
0.27978
0.267527
0.289213
0.276893
0.265112
0.254792
0.244683
0.234625
0.224602
0.214629
0.204721
0.194886
0.185123
0.175426
0.165785
0.156191
0.146634
0.137109
0.12761
0.118123
0.108647
0.0991852
0.0897328
0.0802817
0.0708319
0.061385
0.0519376
0.0424912
0.033057
0.0236327
0.0141271
0.00462435
0.701292
0.692012
0.682875
0.674271
0.665563
0.655615
0.645665
0.635906
0.625873
0.615386
0.600502
0.589058
0.578413
0.561368
0.580361
0.564164
0.552714
0.5411
0.52769
0.513717
0.499587
0.490386
0.473965
0.459669
0.464868
0.458369
0.450249
0.44394
0.441261
0.439877
0.429913
0.425778
0.419749
0.409137
0.389728
0.381822
0.380349
0.340875
0.341294
0.33321
0.315439
0.306936
0.307137
0.268461
0.269419
0.274853
0.270733
0.262536
0.253437
0.243855
0.234023
0.22409
0.214151
0.204261
0.194445
0.184708
0.17504
0.165432
0.155872
0.14635
0.136857
0.127386
0.117929
0.108481
0.099041
0.0896062
0.0801717
0.0707402
0.0613106
0.0518769
0.0424426
0.0330197
0.0236063
0.0141134
0.00462026
0.700302
0.690648
0.678965
0.671275
0.664649
0.655964
0.646158
0.636105
0.625537
0.61245
0.595886
0.587338
0.578601
0.570898
0.570499
0.564639
0.55544
0.544982
0.528099
0.509073
0.49889
0.490425
0.480078
0.465419
0.461764
0.455267
0.447184
0.439989
0.439884
0.455524
0.423684
0.42702
0.426226
0.428168
0.380627
0.375073
0.370886
0.35707
0.342776
0.332663
0.318977
0.302897
0.295125
0.280294
0.274709
0.27146
0.267189
0.260614
0.252528
0.24329
0.23353
0.223586
0.213627
0.203731
0.193927
0.184222
0.174595
0.165031
0.155517
0.146037
0.136584
0.12715
0.117726
0.108307
0.0988918
0.0894791
0.0800651
0.0706501
0.0612337
0.051814
0.0423935
0.032983
0.023581
0.0141
0.00461641
0.698437
0.689592
0.673541
0.665409
0.665585
0.657226
0.646807
0.636272
0.624067
0.60667
0.594781
0.586128
0.581491
0.573514
0.567193
0.563086
0.558585
0.558539
0.527009
0.494971
0.496146
0.489901
0.480213
0.470994
0.4624
0.453832
0.443792
0.430138
0.421692
0.455586
0.44268
0.432904
0.429772
0.434997
0.39656
0.365709
0.370961
0.373962
0.338549
0.335216
0.32932
0.290309
0.290239
0.282889
0.276308
0.270037
0.26543
0.260417
0.252812
0.243279
0.233227
0.223098
0.213042
0.203112
0.19332
0.183655
0.174085
0.164582
0.155126
0.145701
0.136294
0.126899
0.11751
0.108125
0.0987396
0.0893522
0.0799588
0.0705604
0.0611587
0.0517529
0.0423457
0.0329478
0.0235573
0.0140876
0.00461305
0.696909
0.685797
0.669716
0.656676
0.67484
0.659739
0.646089
0.635452
0.617692
0.604469
0.587632
0.587945
0.58237
0.573826
0.566983
0.561278
0.555819
0.543277
0.527475
0.509784
0.500638