/*--------------------------------*- C++ -*----------------------------------*\
  =========                 |
  \\      /  F ield         | OpenFOAM: The Open Source CFD Toolbox
   \\    /   O peration     | Website:  https://openfoam.org
    \\  /    A nd           | Version:  12
     \\/     M anipulation  |
\*---------------------------------------------------------------------------*/
FoamFile
{
    format      ascii;
    class       surfaceScalarField;
    location    "0.6";
    object      phi.water;
}
// * * * * * * * * * * * * * * * * * * * * * * * * * * * * * * * * * * * * * //

dimensions      [0 3 -1 0 0 0 0];

internalField   nonuniform List<scalar> 
7375
(
3.72716e-07
7.85494e-08
9.03294e-08
-7.40456e-08
1.27087e-07
-3.58378e-08
1.23098e-07
3.98884e-09
1.19778e-07
3.32316e-09
1.26521e-07
-6.81382e-09
1.36228e-07
-9.71685e-09
1.39815e-07
-3.54508e-09
1.35423e-07
4.39311e-09
1.21725e-07
1.35706e-08
1.24076e-07
-2.35828e-09
1.21008e-07
4.30269e-09
1.16859e-07
5.31765e-09
1.02894e-07
1.27429e-08
1.1083e-07
-9.18008e-09
1.10521e-07
3.1275e-10
1.12731e-07
-2.2438e-09
1.02121e-07
1.06175e-08
9.68043e-08
5.26961e-09
9.57273e-08
1.06805e-09
9.0801e-08
4.88268e-09
8.80604e-08
2.74519e-09
9.89681e-08
-9.91581e-09
9.43673e-08
4.56961e-09
9.64198e-08
-3.02557e-09
1.0448e-07
-7.97294e-09
1.15572e-07
-1.12137e-08
9.03082e-08
2.54679e-08
1.31847e-07
-4.10931e-08
1.20859e-07
1.09098e-08
1.06005e-07
1.46949e-08
1.01399e-07
4.60241e-09
9.92277e-08
2.16917e-09
1.08569e-07
-8.34676e-09
9.44162e-08
1.42494e-08
7.19965e-08
2.07091e-08
4.85993e-08
2.38877e-08
3.16282e-07
9.56502e-08
2.74275e-08
-7.39762e-08
5.49964e-08
-2.75687e-08
7.49038e-08
-1.93586e-08
1.34217e-07
-5.99138e-08
8.1164e-08
5.30564e-08
2.9796e-08
5.16956e-08
2.98086e-07
9.54293e-08
9.97045e-09
-7.50002e-08
1.94422e-08
-9.47519e-09
1.88952e-09
1.73719e-08
-2.85547e-08
3.07604e-08
2.37837e-07
9.03379e-08
-4.96456e-08
-6.82614e-08
-3.13401e-08
-1.8938e-08
-3.3879e-08
2.50565e-09
-3.15022e-08
-1.69773e-09
-2.76269e-08
-3.56045e-09
-2.1202e-08
-6.42465e-09
-1.25088e-08
-8.69339e-09
-1.46569e-09
-1.10428e-08
8.14687e-09
-9.61279e-09
1.79189e-08
-9.77172e-09
2.70522e-08
-9.13358e-09
3.53323e-08
-8.27988e-09
4.2989e-08
-7.65709e-09
5.12075e-08
-8.21836e-09
6.13673e-08
-1.01602e-08
7.21747e-08
-1.08073e-08
8.17911e-08
-9.61685e-09
8.48815e-08
-3.09028e-09
7.5775e-08
9.10629e-09
5.71762e-08
1.85991e-08
3.39623e-08
2.32138e-08
8.83323e-09
2.5129e-08
-1.5539e-08
2.43717e-08
-3.52033e-08
1.96636e-08
5.239e-09
1.35434e-07
1.9756e-08
8.09684e-08
-1.89534e-08
6.97399e-08
-2.48626e-08
6.98699e-08
3.8201e-09
7.14224e-08
2.47418e-09
6.7204e-08
-2.59526e-09
7.80261e-08
-2.20205e-08
1.35238e-07
-6.13761e-08
9.81647e-08
4.18442e-08
1.01551e-07
1.01846e-08
1.06945e-07
-6.71666e-09
1.10937e-07
3.07752e-10
1.04523e-07
1.1678e-08
1.09069e-07
1.01884e-08
8.039e-08
2.05499e-08
7.26248e-08
7.16942e-09
4.67806e-08
2.26187e-08
5.16027e-08
4.79186e-09
5.0892e-08
5.46628e-09
5.64404e-08
-4.5363e-09
6.49813e-08
-3.08826e-09
8.29903e-08
-1.46008e-08
8.48412e-08
-1.17667e-08
9.34727e-08
-4.06696e-09
9.4206e-08
-4.76861e-09
8.04719e-08
6.64086e-09
8.90531e-08
-1.82356e-08
2.45408e-08
-3.24533e-08
1.63828e-07
-6.41166e-08
8.13223e-08
9.33064e-08
6.61393e-08
3.0699e-08
5.87321e-08
1.32835e-08
4.4953e-08
1.65825e-08
1.26184e-08
2.36546e-08
-6.79524e-09
3.30455e-08
-9.78173e-09
2.37649e-08
-2.01572e-08
3.50701e-08
6.82603e-08
5.52168e-09
1.16657e-08
-1.66922e-08
-8.17478e-09
-7.89043e-09
-4.14438e-08
1.34876e-08
1.96941e-07
6.54892e-08
-3.56242e-08
-7.72522e-08
1.55802e-08
4.91249e-10
8.89179e-08
2.11181e-08
1.89112e-08
-4.99351e-09
-1.55922e-09
1.10112e-08
-8.44916e-09
2.39349e-08
-1.33557e-08
3.53532e-08
4.82877e-08
2.80585e-08
-1.22309e-08
-7.7428e-09
-2.43425e-08
-6.63684e-09
-2.75414e-08
5.65447e-09
-3.44181e-08
5.19607e-09
-4.08813e-08
2.90273e-09
-4.7372e-08
6.61844e-11
-5.1217e-08
-4.84832e-09
-5.18141e-08
-1.04456e-08
-4.89859e-08
-1.24411e-08
-4.53714e-08
-1.33861e-08
-4.18231e-08
-1.26819e-08
-3.81204e-08
-1.19826e-08
-3.28695e-08
-1.29082e-08
-2.41463e-08
-1.69416e-08
-1.20733e-08
-2.22335e-08
1.30198e-09
-2.41827e-08
1.29984e-08
-2.13135e-08
1.75141e-08
-7.60604e-09
9.57272e-09
1.70475e-08
-7.69192e-09
3.58638e-08
-2.94447e-08
4.49665e-08
-4.76356e-08
4.33197e-08
-5.3108e-08
2.98435e-08
-5.44559e-08
2.10108e-08
2.7282e-09
-2.11186e-08
1.20609e-08
-4.14668e-08
7.49328e-10
-4.83317e-08
-1.74992e-08
-4.68423e-08
3.29204e-09
-3.80942e-08
-6.67935e-09
-4.07988e-08
-2.55213e-10
-8.39989e-08
2.03227e-08
1.4895e-07
6.81278e-08
-1.0988e-07
-6.09216e-08
-3.47645e-08
-6.41721e-08
-6.31585e-09
-3.51008e-08
-5.68258e-09
-3.25419e-10
9.7506e-10
4.90246e-09
1.14273e-08
-1.49892e-10
1.39925e-08
1.76789e-08
1.33601e-08
7.44968e-09
1.30161e-08
2.27344e-08
5.43585e-09
1.25049e-08
1.73205e-09
9.22587e-09
3.18147e-10
-3.16862e-09
-6.32589e-09
3.52429e-09
-1.5602e-08
-5.37947e-09
-2.14802e-08
-5.72791e-09
-3.01005e-08
4.29274e-09
-4.59428e-08
1.02899e-08
-5.98104e-08
2.0434e-08
-9.5985e-08
1.87434e-08
-1.43144e-07
1.45553e-08
1.58378e-07
-4.18696e-09
-1.09908e-07
4.45029e-09
-7.49683e-08
-5.04883e-09
-5.51151e-08
-7.13199e-09
-3.64469e-08
-2.25668e-09
-3.77969e-08
2.55206e-08
-3.18074e-08
2.67222e-08
-1.68157e-08
8.2771e-09
-1.03529e-07
1.58739e-09
-7.43603e-10
2.26514e-08
-3.32845e-08
1.56707e-08
-5.54123e-08
1.42373e-08
-7.11551e-08
2.92303e-08
-3.97125e-08
3.29734e-08
-1.36456e-07
1.96946e-08
-1.06542e-07
-2.80309e-08
-9.5736e-08
1.03122e-08
-1.05851e-07
5.06963e-09
-1.10138e-07
1.62566e-08
-9.57028e-08
1.06005e-08
-8.0824e-08
1.97676e-08
-5.98048e-08
7.0394e-09
-6.33685e-08
-4.17907e-09
-6.57845e-08
-4.22071e-09
-6.38196e-08
3.68961e-09
-6.67333e-08
8.10987e-09
-7.40264e-08
1.01958e-08
-8.22449e-08
8.28475e-09
-8.91811e-08
2.08797e-09
-9.3233e-08
-6.39364e-09
-9.40891e-08
-1.15849e-08
-9.39123e-08
-1.35629e-08
-9.41089e-08
-1.24854e-08
-9.32949e-08
-1.27966e-08
-8.91147e-08
-1.70884e-08
-8.17218e-08
-2.43346e-08
-7.49496e-08
-2.90058e-08
-6.95981e-08
-2.95344e-08
-6.71709e-08
-2.37409e-08
-6.93588e-08
-5.41823e-09
-7.47274e-08
2.2416e-08
-7.7635e-08
3.87714e-08
-7.54742e-08
4.28056e-08
-6.85086e-08
3.63537e-08
-6.28807e-08
2.42149e-08
-5.82578e-08
1.63871e-08
-4.83691e-11
-8.37588e-08
1.5073e-09
-7.59183e-08
-7.09058e-09
-1.02764e-07
8.75057e-09
-7.7062e-08
-2.13715e-08
-6.61038e-08
-1.83724e-08
-7.56628e-08
8.62261e-09
-5.65518e-08
2.56061e-09
1.36414e-08
-2.75326e-09
-1.16294e-07
-4.96856e-08
-2.46964e-08
-3.69566e-08
1.69936e-08
-7.70427e-08
-3.65994e-08
5.3096e-08
-3.64612e-08
4.39618e-09
-4.55717e-08
8.49567e-09
-3.50027e-08
7.47073e-09
-2.85903e-08
1.03739e-09
-1.92105e-08
1.35866e-08
-2.13071e-08
1.46016e-08
-3.10874e-08
1.90062e-08
-4.25792e-08
8.40904e-09
-6.11606e-08
2.14817e-08
-8.52303e-08
1.78118e-08
-1.11473e-07
2.02444e-08
-1.14587e-07
8.60015e-09
-1.03773e-07
5.40085e-10
-1.03765e-07
2.00125e-08
-1.01652e-07
1.64391e-08
-1.23345e-07
3.49903e-08
1.51305e-07
8.34344e-08
-1.21478e-07
-8.06894e-08
-1.00107e-07
-2.76595e-08
-8.25986e-08
-2.46405e-08
-2.09572e-08
-6.45335e-08
-6.38518e-08
6.84152e-08
-5.74032e-08
2.05462e-08
-6.51845e-08
1.60584e-08
-8.34708e-08
1.98574e-08
-6.36664e-08
3.07807e-09
-6.67922e-08
1.87965e-08
-7.08161e-08
1.80767e-08
-6.42671e-08
2.24523e-08
-4.72929e-08
1.536e-08
-1.6235e-07
1.34241e-08
-7.7745e-08
9.04618e-09
-8.74351e-08
2.08944e-08
-8.11036e-08
-4.42863e-10
-7.33868e-08
8.37729e-09
-6.59327e-08
3.14654e-09
-5.42196e-08
8.05456e-09
-5.0105e-08
2.92482e-09
-5.3217e-08
-1.06698e-09
-5.60971e-08
-1.34055e-09
-5.77293e-08
5.32194e-09
-6.13302e-08
1.17108e-08
-6.78254e-08
1.66911e-08
-7.64535e-08
1.69129e-08
-8.65264e-08
1.2161e-08
-9.5581e-08
2.66092e-09
-1.01451e-07
-5.71491e-09
-1.05434e-07
-9.58002e-09
-1.08558e-07
-9.36136e-09
-1.09511e-07
-1.18435e-08
-1.0574e-07
-2.08595e-08
-1.00269e-07
-2.98053e-08
-9.70489e-08
-3.22264e-08
-9.61711e-08
-3.04124e-08
-9.95351e-08
-2.03771e-08
-1.03352e-07
-1.60141e-09
-1.00323e-07
1.93871e-08
-9.29609e-08
3.1409e-08
-8.24675e-08
3.2312e-08
-7.15182e-08
2.5404e-08
-6.55644e-08
1.82602e-08
-6.06547e-08
1.14767e-08
-1.88185e-09
-6.06355e-08
-1.2247e-08
-5.32572e-08
-1.51591e-08
-1.19533e-07
-4.33377e-08
-4.12045e-08
1.91141e-08
-5.83703e-08
-1.81409e-09
-5.7821e-08
7.98547e-09
-5.06683e-08
-4.59192e-09
-4.11457e-08
-1.21796e-08
-7.3902e-08
-1.69291e-08
-1.00908e-07
-1.03278e-08
1.41033e-07
3.96541e-08
-8.74364e-08
-7.48744e-08
-5.57591e-08
-2.75594e-08
-4.68286e-08
-9.93418e-10
-3.80495e-08
-1.79101e-09
-3.38497e-08
-2.8028e-09
-3.36179e-08
1.33549e-08
-5.35813e-08
3.4565e-08
-6.94043e-08
3.41211e-08
-8.84279e-08
2.74327e-08
-8.59027e-08
1.98587e-08
-8.8688e-08
2.04154e-08
-8.1908e-08
1.32579e-08
-8.97268e-08
1.63312e-08
-9.51147e-08
6.96948e-09
-6.1043e-08
-1.39186e-08
-5.39692e-08
8.74257e-09
-4.25969e-08
2.3618e-08
1.32226e-08
2.67637e-08
-5.04967e-08
-1.77933e-08
-7.40669e-08
-4.08928e-09
-1.1468e-07
1.48027e-08
1.06726e-07
7.78482e-08
-1.39929e-07
-4.60954e-08
-1.12373e-07
-7.00922e-09
-1.05373e-07
9.05759e-09
-8.14372e-08
-4.07801e-09
-7.82275e-08
-1.31661e-10
-6.08277e-08
2.0172e-09
-4.46513e-08
2.35123e-09
-3.01743e-08
7.82912e-09
-2.35183e-08
8.24499e-09
-4.56999e-08
3.48656e-08
-5.35114e-08
1.73239e-08
-3.61959e-08
3.54275e-09
-3.54099e-08
-8.72039e-10
-3.51129e-08
8.43431e-09
-3.7745e-08
5.77871e-09
-3.53534e-08
5.66305e-09
-3.54786e-08
3.0501e-09
-3.96967e-08
3.15116e-09
-4.51736e-08
4.13644e-09
-4.88245e-08
8.97287e-09
-5.24218e-08
1.53081e-08
-5.82348e-08
2.25042e-08
-6.56396e-08
2.43178e-08
-7.51142e-08
2.16356e-08
-8.70892e-08
1.46359e-08
-9.91255e-08
6.32146e-09
-1.07788e-07
-9.17831e-10
-1.11853e-07
-5.29563e-09
-1.11029e-07
-1.26679e-08
-1.05575e-07
-2.63136e-08
-1.01474e-07
-3.39061e-08
-9.86355e-08
-3.50652e-08
-9.82357e-08
-3.08124e-08
-1.01352e-07
-1.72607e-08
-1.03776e-07
8.22618e-10
-9.88192e-08
1.44297e-08
-8.85838e-08
2.11735e-08
-7.76831e-08
2.14111e-08
-6.97691e-08
1.74895e-08
-6.51213e-08
1.36116e-08
-6.18816e-08
8.23625e-09
-2.00447e-09
-5.22063e-08
-1.92991e-08
-5.94036e-08
-7.35518e-09
-1.04174e-07
1.43344e-09
-4.53423e-08
-4.05853e-08
-3.8342e-08
-8.81423e-09
-3.2216e-08
1.85963e-09
-3.44068e-08
-2.05003e-09
-3.50977e-08
-1.14886e-08
-3.70805e-08
-1.53043e-08
-5.7259e-08
9.85069e-09
-2.46335e-08
7.10115e-09
-4.29708e-08
-5.73009e-08
-5.78425e-08
-1.26877e-08
-6.54699e-08
6.62397e-09
-8.45522e-08
1.66165e-08
-9.14949e-08
4.13991e-09
-2.80383e-08
-4.91683e-08
-8.22213e-08
8.78518e-08
-9.06198e-08
4.25196e-08
-9.13413e-08
2.78744e-08
-9.52054e-08
2.37228e-08
-8.06663e-08
5.87628e-09
-8.01015e-08
1.26932e-08
-6.21944e-08
-2.21038e-09
-1.63891e-07
-1.09075e-08
-5.55034e-08
-1.9781e-09
-5.76596e-08
1.03325e-08
-4.52358e-08
1.11942e-08
-2.98846e-08
1.14126e-08
-4.36016e-08
-4.07629e-09
-5.97631e-08
1.20721e-08
-6.47326e-08
1.97723e-08
-1.89553e-08
3.12767e-08
-6.94539e-08
4.35868e-09
-7.73652e-08
9.02099e-10
-7.77606e-08
9.45297e-09
-7.82648e-08
-3.61076e-09
-7.94591e-08
1.06268e-09
-7.79702e-08
5.28207e-10
-7.83006e-08
2.70565e-09
-7.76875e-08
6.57034e-09
-6.80273e-08
-6.29147e-10
-3.35676e-08
7.40831e-10
-1.20771e-07
-1.46087e-08
-1.72035e-08
1.86011e-08
-3.3594e-08
1.56857e-08
-3.15894e-08
6.76559e-09
-3.27865e-08
6.97583e-09
-3.21724e-08
5.04901e-09
-3.30857e-08
3.96349e-09
-3.52716e-08
5.33714e-09
-3.91856e-08
8.05054e-09
-4.33012e-08
1.30885e-08
-4.74408e-08
1.94478e-08
-5.09468e-08
2.60102e-08
-5.46535e-08
2.80246e-08
-5.99037e-08
2.68858e-08
-6.70041e-08
2.17363e-08
-7.61987e-08
1.55162e-08
-8.59347e-08
8.81812e-09
-9.17327e-08
5.02451e-10
-9.12466e-08
-1.31541e-08
-8.76709e-08
-2.98894e-08
-8.63487e-08
-3.52283e-08
-8.64484e-08
-3.49657e-08
-8.92817e-08
-2.79792e-08
-9.31192e-08
-1.34234e-08
-9.31735e-08
8.76748e-10
-8.83296e-08
9.58569e-09
-8.06132e-08
1.34569e-08
-7.33885e-08
1.41861e-08
-6.837e-08
1.24706e-08
-6.48917e-08
1.01324e-08
-6.29251e-08
6.26888e-09
-1.58096e-09
-6.44858e-08
-3.22507e-09
-5.83714e-08
-1.34689e-08
-1.39122e-07
-3.78262e-08
-4.74034e-08
-1.22784e-08
-5.32946e-08
-2.9228e-09
-5.63232e-08
4.83896e-09
-4.64055e-08
-1.19676e-08
-4.80521e-08
-9.95917e-09
-7.56963e-08
1.24672e-08
-4.41671e-08
-2.2129e-08
-1.39599e-07
-1.89248e-08
-7.38148e-08
-1.65194e-09
-1.0632e-07
2.00214e-08
-1.1804e-07
1.73164e-08
-1.29524e-07
2.78146e-08
-1.61292e-07
3.71868e-08
6.90933e-08
7.98183e-08
-1.50297e-07
-4.91985e-08
-1.09373e-07
6.21781e-11
-9.99092e-08
1.84106e-08
-9.03597e-08
1.41733e-08
-8.93219e-08
4.83848e-09
-8.83637e-08
1.1735e-08
-8.38759e-08
-6.69812e-09
-1.04271e-07
9.59844e-09
-9.3964e-08
-1.23049e-08
-8.81141e-08
4.48268e-09
-6.92337e-08
-7.68625e-09
-5.89475e-08
1.12631e-09
-6.31689e-08
1.45147e-10
-6.54923e-08
1.425e-08
-6.28651e-08
1.71451e-08
-5.66272e-08
2.56164e-08
-6.36393e-08
1.13707e-08
-7.37938e-08
1.04073e-08
-8.01977e-08
1.50387e-08
-9.44065e-08
1.05981e-08
-9.83873e-08
6.0066e-09
-1.00545e-07
2.68613e-09
-1.05486e-07
6.5703e-09
-1.11937e-07
1.30212e-08
-1.10252e-07
-1.16562e-09
-1.00547e-07
-9.04935e-09
-1.12928e-07
-1.07509e-09
-8.62725e-08
-7.86673e-09
-7.6688e-08
6.00345e-09
-6.87631e-08
-3.92522e-10
-6.41144e-08
2.32712e-09
-5.97155e-08
6.50207e-10
-5.77267e-08
1.97478e-09
-5.61291e-08
3.73959e-09
-5.58452e-08
7.7667e-09
-5.60385e-08
1.32818e-08
-5.5199e-08
1.86084e-08
-5.38165e-08
2.46277e-08
-5.35419e-08
2.77501e-08
-5.35371e-08
2.6881e-08
-5.47175e-08
2.29167e-08
-5.78134e-08
1.86121e-08
-6.2344e-08
1.33487e-08
-6.60801e-08
4.23865e-09
-6.81982e-08
-1.1036e-08
-7.03012e-08
-2.77864e-08
-7.29485e-08
-3.2581e-08
-7.65194e-08
-3.13949e-08
-8.15242e-08
-2.29746e-08
-8.53526e-08
-9.59509e-09
-8.45824e-08
1.0636e-10
-8.04476e-08
5.45077e-09
-7.57213e-08
8.73039e-09
-7.14634e-08
9.92796e-09
-6.80396e-08
9.04638e-09
-6.54653e-08
7.55725e-09
-6.39847e-08
4.78748e-09
-1.21316e-09
-7.84183e-08
4.76721e-08
-8.10241e-08
-1.09744e-08
-8.9882e-08
-2.92664e-08
-6.77417e-08
-3.47731e-08
-7.96219e-08
9.76981e-09
-7.80577e-08
3.27493e-09
-8.52208e-08
-5.60066e-09
-7.96409e-08
-1.63515e-08
-1.69309e-07
-1.91275e-08
-1.00179e-07
2.94725e-08
-1.4358e-07
2.34329e-08
-1.86204e-07
4.09548e-08
-1.67736e-07
1.74353e-09
-1.685e-07
2.13263e-08
-1.47646e-07
8.38169e-09
-1.21956e-07
9.99048e-09
-7.20011e-08
2.95617e-08
-1.15674e-07
-4.84765e-09
-1.12459e-07
-3.15237e-09
-1.08415e-07
1.30857e-08
-9.90331e-08
4.79129e-09
-1.07821e-07
1.36266e-08
-9.60811e-08
-5.08472e-12
-9.58458e-08
-6.93339e-09
-9.64439e-08
1.01966e-08
-1.31165e-07
2.2647e-08
-1.28252e-07
1.56968e-09
-8.93129e-08
-4.61543e-08
-7.7986e-08
-1.02006e-08
-7.49071e-08
-2.16955e-09
-6.92984e-08
8.64134e-09
-6.31588e-08
1.02985e-08
-5.36365e-08
1.60941e-08
-6.08292e-08
1.86794e-08
-6.82911e-08
1.78692e-08
-7.91214e-08
2.56076e-08
-8.25569e-08
1.39255e-08
-9.15184e-08
1.4968e-08
-9.7704e-08
8.87174e-09
-9.32443e-08
2.11059e-09
-1.03425e-07
2.28359e-08
-1.11116e-07
5.39169e-09
-1.25756e-07
5.59062e-09
-1.26328e-07
7.80491e-10
-1.26987e-07
-7.28804e-09
-1.16911e-07
-2.88044e-09
-1.08557e-07
-7.57682e-09
-1.02701e-07
-3.52889e-09
-9.84897e-08
-3.56141e-09
-9.61082e-08
-4.06677e-10
-9.41344e-08
1.76587e-09
-9.10002e-08
4.63248e-09
-8.59303e-08
8.21196e-09
-7.84779e-08
1.11561e-08
-6.99162e-08
1.6066e-08
-6.21847e-08
2.00186e-08
-5.60615e-08
2.07579e-08
-5.2145e-08
1.90003e-08
-5.08136e-08
1.72807e-08
-5.1871e-08
1.44061e-08
-5.41506e-08
6.5183e-09
-5.8228e-08
-6.95873e-09
-6.37609e-08
-2.22536e-08
-6.85657e-08
-2.77762e-08
-7.29513e-08
-2.70095e-08
-7.69507e-08
-1.89753e-08
-7.92434e-08
-7.30259e-09
-7.83331e-08
-8.04027e-10
-7.56869e-08
2.80442e-09
-7.2893e-08
5.93631e-09
-7.02294e-08
7.26405e-09
-6.78331e-08
6.6496e-09
-6.59378e-08
5.6611e-09
-6.48127e-08
3.66156e-09
-9.02463e-10
-1.59735e-07
-7.21841e-08
-1.46708e-07
-2.74423e-08
-1.47836e-07
-2.84429e-08
-1.00184e-07
-8.17436e-08
-1.5055e-07
6.11584e-08
-1.61494e-07
1.43991e-08
-1.49688e-07
-1.74064e-08
-1.45392e-07
-2.06479e-08
-1.12197e-07
-5.21269e-08
-1.48803e-07
6.3909e-08
-1.06494e-07
-2.04259e-08
-2.62535e-07
7.56292e-08
-1.57188e-07
2.06863e-08
-1.5226e-07
1.61829e-08
-1.45834e-07
4.87675e-10
-1.43469e-07
9.08868e-09
-1.14752e-07
8.36445e-10
-1.15873e-07
-4.89649e-09
-1.1731e-07
-5.46004e-10
-9.99318e-08
-4.29207e-09
-1.02984e-07
6.82431e-09
-1.0568e-07
1.63228e-08
-1.10546e-07
4.81137e-09
-1.18861e-07
1.39596e-09
-1.12211e-07
2.40132e-09
-1.81596e-07
-2.923e-08
-1.69363e-07
-7.08324e-09
-8.43402e-08
-1.24897e-08
-8.92622e-08
-6.13907e-09
-8.77991e-08
-3.63262e-09
-7.61692e-08
-2.87118e-09
-7.52254e-08
9.35469e-09
-7.65579e-08
1.74266e-08
-8.10851e-08
2.29722e-08
-8.17575e-08
1.93757e-08
-6.70476e-08
1.08977e-08
-6.4497e-08
1.06908e-08
-6.82768e-08
1.85585e-08
-7.40556e-08
1.46506e-08
-7.8817e-08
7.67602e-09
-7.38964e-08
1.77362e-08
-7.58714e-08
6.61279e-09
-7.36688e-08
3.33103e-09
-7.76934e-08
4.80514e-09
-7.63044e-08
-8.67707e-09
-7.26426e-08
-5.80111e-09
-6.84432e-08
-1.11615e-08
-6.74505e-08
-4.52148e-09
-6.92617e-08
-1.75016e-09
-7.23544e-08
2.68604e-09
-7.73929e-08
6.80442e-09
-8.15855e-08
8.82509e-09
-8.3255e-08
9.8815e-09
-8.19378e-08
9.83901e-09
-7.60685e-08
1.01968e-08
-6.62919e-08
1.02419e-08
-5.5856e-08
1.0322e-08
-4.79494e-08
1.10937e-08
-4.35728e-08
1.2904e-08
-4.28496e-08
1.3683e-08
-4.59559e-08
9.62457e-09
-5.31848e-08
2.70212e-10
-6.14753e-08
-1.39631e-08
-6.59985e-08
-2.32531e-08
-6.92658e-08
-2.37423e-08
-7.25948e-08
-1.56464e-08
-7.4762e-08
-5.13553e-09
-7.49906e-08
-5.75586e-10
-7.36972e-08
1.5109e-09
-7.17671e-08
4.00598e-09
-6.97897e-08
5.28641e-09
-6.79327e-08
4.79211e-09
-6.64148e-08
4.14233e-09
-6.54665e-08
2.71241e-09
-6.69619e-10
-1.29796e-07
-1.2941e-08
-1.68291e-07
9.60215e-09
-2.21305e-07
2.43174e-08
8.34532e-09
5.60965e-08
-2.2736e-07
-6.62935e-08
-2.9061e-07
-4.40682e-08
-1.94704e-07
9.67881e-09
-2.29861e-07
1.46584e-08
3.67069e-09
7.43806e-08
-2.41145e-07
-5.01505e-08
3.96334e-08
5.92888e-08
-1.89289e-07
-5.30525e-08
-1.51594e-07
-1.91356e-08
-1.33169e-07
-2.07621e-09
-1.34795e-07
2.11321e-09
-1.27531e-07
3.0944e-09
-1.10887e-07
-1.57993e-08
-1.14849e-07
-8.93703e-10
-1.10314e-07
-5.08127e-09
-1.01989e-07
-1.37864e-08
-1.06656e-07
1.14914e-08
-1.10309e-07
2.08888e-08
-1.05119e-07
-1.44083e-09
-1.14503e-07
9.5979e-09
-1.13819e-07
2.88526e-09
-1.41197e-07
-1.55337e-09
-1.43342e-07
-6.40045e-09
-1.38196e-07
-1.79495e-08
-8.6006e-08
-5.69196e-08
-9.37003e-08
5.01757e-09
-9.23655e-08
-4.24892e-09
-9.39903e-08
1.00372e-08
-8.78075e-08
1.20169e-08
-8.10855e-08
1.62502e-08
-7.16442e-08
9.10714e-09
-6.0577e-08
-5.83735e-11
-6.51945e-08
1.59735e-08
-5.33755e-08
6.67202e-09
-4.57212e-08
6.45173e-09
-4.9418e-08
1.1877e-08
-4.57084e-08
1.40638e-08
-4.65348e-08
6.97288e-09
-4.65049e-08
3.26782e-09
-4.93255e-08
7.62571e-09
-5.19134e-08
-6.08918e-09
-6.03341e-08
2.61966e-09
-6.87119e-08
-2.19659e-09
-6.93772e-08
-3.20118e-09
-7.34782e-08
2.35089e-09
-7.6258e-08
5.46584e-09
-7.85229e-08
9.06934e-09
-7.88347e-08
9.13696e-09
-7.71136e-08
8.16049e-09
-7.3828e-08
6.55345e-09
-6.7375e-08
3.74379e-09
-5.71423e-08
9.2425e-12
-4.57082e-08
-1.11213e-09
-3.49469e-08
3.32422e-10
-2.71395e-08
5.0967e-09
-2.36651e-08
1.02086e-08
-2.4118e-08
1.00775e-08
-2.95833e-08
5.73553e-09
-3.9735e-08
-3.81143e-09
-4.95156e-08
-1.34726e-08
-5.80969e-08
-1.51611e-08
-6.52175e-08
-8.52597e-09
-6.91049e-08
-1.24821e-09
-7.09927e-08
1.31206e-09
-7.14477e-08
1.96577e-09
-7.05964e-08
3.15448e-09
-6.91667e-08
3.85638e-09
-6.78317e-08
3.45659e-09
-6.66692e-08
2.97898e-09
-6.5943e-08
1.98548e-09
-4.70027e-10
-9.5986e-08
1.45379e-08
-1.04027e-07
1.85254e-08
-1.05176e-07
2.41449e-08
-8.27569e-08
3.2247e-08
-1.50748e-07
9.96947e-10
-1.98369e-07
5.56128e-09
-1.9791e-07
9.22441e-09
-2.09843e-07
2.68679e-08
-1.22992e-07
-1.03294e-08
-1.54061e-07
-1.80209e-08
-9.63254e-08
9.63855e-10
-1.41396e-07
-1.10615e-08
-1.58382e-07
-2.12745e-09
-1.47879e-07
-1.09636e-08
-1.44132e-07
-1.6286e-10
-1.28597e-07
-1.24407e-08
-1.30976e-07
-1.48931e-08
-1.18239e-07
-1.36312e-08
-1.04558e-07
-1.88134e-08
-9.49153e-08
-2.34294e-08
-9.52158e-08
1.26343e-08
-7.99833e-08
5.65631e-09
-8.05667e-08
-8.66117e-10
-7.20595e-08
9.93779e-10
-7.42165e-08
4.26364e-09
-7.15369e-08
-4.23302e-09
-5.47922e-08
-2.37041e-08
-1.38629e-07
-5.51903e-08
-2.61695e-08
-4.84333e-08
-9.74826e-08
7.53361e-08
-1.1566e-07
1.38842e-08
-1.09413e-07
6.08665e-09
-9.91534e-08
1.75748e-09
-8.64242e-08
2.6752e-09
-7.95149e-08
2.19779e-09
-7.60728e-08
-3.50042e-09
-7.47097e-08
1.52173e-08
-6.13504e-08
-6.61996e-09
-5.46677e-08
-8.65666e-10
-4.57167e-08
3.39238e-09
-3.35399e-08
2.00867e-09
-2.81032e-08
1.46581e-09
-2.8906e-08
4.11218e-09
-2.73798e-08
5.80461e-09
-3.42189e-08
7.57632e-10
-4.39076e-08
1.23084e-08
-6.03165e-08
1.42123e-08
-7.46569e-08
1.17484e-08
-8.21561e-08
1.05966e-08
-8.54384e-08
8.7482e-09
-8.57112e-08
9.34216e-09
-8.38422e-08
7.26803e-09
-8.00071e-08
4.32539e-09
-7.27876e-08
-6.65994e-10
-6.2869e-08
-6.17482e-09
-5.17035e-08
-1.11563e-08
-4.04928e-08
-1.23228e-08
-3.03516e-08
-9.80877e-09
-2.16491e-08
-3.60586e-09
-1.54691e-08
4.02863e-09
-1.36257e-08
8.23409e-09
-1.62112e-08
8.32103e-09
-2.47525e-08
4.72978e-09
-3.90399e-08
8.14812e-10
-5.43618e-08
1.60642e-10
-6.49041e-08
2.0163e-09
-6.92135e-08
3.06097e-09
-7.08333e-08
2.93173e-09
-7.1319e-08
2.45139e-09
-7.05754e-08
2.41069e-09
-6.90632e-08
2.34395e-09
-6.78611e-08
2.25398e-09
-6.69126e-08
2.02965e-09
-6.63135e-08
1.38549e-09
-3.16405e-10
-5.72984e-08
1.15354e-08
-5.00822e-08
1.11957e-08
-3.37784e-08
7.7623e-09
-3.80583e-08
3.58326e-08
-5.46335e-08
1.73848e-08
-6.50299e-08
1.57405e-08
-6.51243e-08
8.56715e-09
-1.59387e-07
-4.08841e-10
-8.02618e-08
3.2197e-08
-1.05443e-07
6.02313e-09
-1.09305e-07
3.67175e-09
-1.02714e-07
-1.53101e-08
-9.66637e-08
-7.19118e-09
-9.47153e-08
-1.38982e-08
-8.44553e-08
-1.04228e-08
-8.91508e-08
-7.87201e-09
-8.84599e-08
-1.5584e-08
-8.55218e-08
-1.65692e-08
-9.12298e-08
-1.32404e-08
-1.11782e-07
-1.75438e-09
-9.32531e-08
-5.89491e-09
-8.32903e-08
-5.20011e-09
-7.56551e-08
-8.50137e-09
-6.77743e-08
-6.18542e-09
-8.9218e-08
2.57074e-08
-8.81466e-08
-6.21457e-09
-7.33462e-08
-3.85046e-08
-8.22318e-08
-4.65806e-08
8.96691e-08
1.43454e-07
-1.28958e-07
-6.70284e-08
-9.49451e-08
-2.02702e-08
-8.78515e-08
-1.00693e-09
-8.84976e-08
2.42154e-09
-9.03212e-08
4.49874e-09
-8.7149e-08
-9.74372e-10
-8.81181e-08
-1.6324e-09
-6.74911e-08
-5.35566e-09
-6.45896e-08
-1.0826e-08
-6.45847e-08
-8.61701e-10
-6.38912e-08
4.00958e-09
-5.82437e-08
-3.03039e-09
-5.87333e-08
7.82026e-10
-7.04988e-08
1.53146e-08
-7.4302e-08
9.66769e-09
-8.97503e-08
1.63748e-08
-9.77435e-08
2.12173e-08
-1.01774e-07
1.90863e-08
-1.0106e-07
1.1934e-08
-1.00152e-07
9.68922e-09
-9.86159e-08
7.21196e-09
-9.54456e-08
6.17195e-09
-8.98969e-08
1.71935e-09
-8.14911e-08
-4.08042e-09
-6.97868e-08
-1.23703e-08
-5.71407e-08
-1.88209e-08
-4.54155e-08
-2.28815e-08
-3.47144e-08
-2.30239e-08
-2.66214e-08
-1.79017e-08
-2.09742e-08
-9.25305e-09
-1.77032e-08
7.5762e-10
-1.9446e-08
9.97682e-09
-2.4811e-08
1.3686e-08
-3.46312e-08
1.455e-08
-4.82136e-08
1.43972e-08
-5.9979e-08
1.19259e-08
-6.62861e-08
8.32331e-09
-6.90217e-08
5.79648e-09
-7.0111e-08
4.02083e-09
-7.03651e-08
2.7054e-09
-6.97096e-08
1.75498e-09
-6.8698e-08
1.33212e-09
-6.78785e-08
1.43398e-09
-6.70172e-08
1.16753e-09
-6.65804e-08
9.47795e-10
-1.96888e-10
-1.19367e-08
-1.57745e-08
7.49584e-09
-8.43253e-09
7.08503e-08
-5.62316e-08
4.67787e-08
5.95462e-08
4.57545e-08
1.86074e-08
5.67294e-08
4.65477e-09
6.14868e-08
4.38272e-09
5.94817e-08
2.22778e-09
6.90213e-08
2.19533e-08
6.046e-08
1.39739e-08
6.85724e-08
-4.5596e-09
6.46321e-08
-9.97061e-09
5.51336e-08
2.89947e-09
3.60599e-08
4.61305e-09
1.32253e-08
1.24118e-08
-4.18848e-09
9.54182e-09
-2.04951e-08
7.22602e-10
-4.38127e-08
6.30141e-09
-9.20969e-08
3.44498e-08
-1.11485e-07
1.85832e-08
-1.08774e-07
-7.52872e-09
-1.06618e-07
-7.35649e-09
-1.04232e-07
-1.08869e-08
-8.19783e-08
-2.84394e-08
-1.413e-07
-3.47342e-08
-1.4189e-07
-5.62486e-09
-1.16216e-07
5.6423e-08
1.05154e-07
9.21255e-08
-1.5548e-07
-7.66952e-08
-6.2738e-08
-3.97448e-08
-6.54711e-08
-1.7537e-08
-7.9216e-08
1.27379e-08
-8.17567e-08
4.96224e-09
-8.27725e-08
5.51451e-09
-7.56753e-08
-8.07159e-09
-6.95406e-08
-7.05766e-09
-4.77485e-08
-2.67197e-08
-4.12071e-08
-1.74334e-08
-3.18009e-08
-1.06753e-08
-2.58361e-08
-2.25669e-09
-1.79047e-08
-1.10624e-08
-4.83382e-08
3.12235e-08
-7.5002e-08
4.15503e-08
-1.07043e-07
4.06055e-08
-1.24454e-07
3.47206e-08
-1.25909e-07
2.49712e-08
-1.22848e-07
1.70931e-08
-1.18192e-07
7.27832e-09
-1.11007e-07
2.50449e-09
-1.06249e-07
2.45378e-09
-9.72602e-08
-2.81681e-09
-8.81258e-08
-7.41502e-09
-7.80406e-08
-1.41657e-08
-6.89188e-08
-2.1492e-08
-6.02702e-08
-2.74696e-08
-5.26368e-08
-3.05149e-08
-4.53983e-08
-3.02624e-08
-3.90251e-08
-2.4275e-08
-3.40853e-08
-1.41928e-08
-3.27922e-08
-5.3545e-10
-3.8323e-08
1.55076e-08
-4.76076e-08
2.29705e-08
-5.80272e-08
2.49696e-08
-6.67365e-08
2.31063e-08
-7.03614e-08
1.55507e-08
-7.0344e-08
8.30583e-09
-6.99609e-08
5.4133e-09
-6.9909e-08
3.96878e-09
-6.97893e-08
2.58553e-09
-6.92687e-08
1.2342e-09
-6.85859e-08
6.49143e-10
-6.78559e-08
7.03416e-10
-6.71669e-08
4.77664e-10
-6.67797e-08
5.5984e-10
-1.21757e-10
-4.25796e-08
-4.83699e-08
-1.3738e-07
8.71721e-08
1.08256e-07
5.65311e-08
-9.28001e-08
-9.61738e-08
-6.79689e-08
-6.98835e-09
-5.5461e-08
-7.11218e-09
-6.11646e-08
1.01311e-08
-7.79623e-08
1.90256e-08
-2.84823e-08
-2.72487e-08
-1.28343e-07
-6.04872e-09
-3.61088e-08
2.28173e-08
-5.52512e-08
9.06902e-09
-5.53381e-08
3.52045e-09
-5.11604e-08
4.35427e-10
-5.79517e-08
1.92031e-08
-5.74458e-08
9.036e-09
-6.86858e-08
1.19626e-08
-2.73043e-08
-3.5723e-08
-1.89527e-07
7.50545e-08
-1.04008e-07
5.48339e-08
-1.08258e-07
-3.27829e-09
-9.59009e-08
-1.97139e-08
-8.62205e-08
-2.05672e-08
-8.73383e-08
-2.76032e-08
-9.54886e-08
-2.65838e-08
-8.35875e-08
-1.83788e-08
-3.60932e-08
8.92875e-09
-7.62331e-08
1.33858e-08
-6.28916e-08
2.87767e-08
-8.08076e-08
-2.24704e-08
-1.50084e-08
-8.33363e-08
-6.17611e-08
5.88898e-08
-7.18311e-08
1.51872e-08
-7.69157e-08
1.05991e-08
-7.39302e-08
-1.10571e-08
-7.18543e-08
-9.13356e-09
-7.56975e-08
-2.33877e-08
-7.2841e-08
-2.04678e-08
-5.40863e-08
-2.9286e-08
-3.6496e-08
-1.94784e-08
2.26293e-08
-7.20107e-08
-3.46625e-08
8.84276e-08
-3.07493e-08
3.76371e-08
-2.94304e-08
3.84798e-08
-3.40196e-08
3.89058e-08
-4.11489e-08
3.21909e-08
-4.15524e-08
1.74967e-08
-4.76613e-08
1.33872e-08
-5.31354e-08
7.97864e-09
-5.59604e-08
5.27877e-09
-5.62866e-08
-2.4906e-09
-5.69931e-08
-6.70853e-09
-5.91978e-08
-1.1961e-08
-6.51056e-08
-1.55841e-08
-7.08308e-08
-2.17444e-08
-7.47294e-08
-2.66164e-08
-7.68005e-08
-2.81912e-08
-7.58786e-08
-2.51969e-08
-7.25098e-08
-1.75616e-08
-6.98563e-08
-3.18894e-09
-6.94256e-08
1.50769e-08
-7.13195e-08
2.48644e-08
-7.3263e-08
2.69131e-08
-7.38113e-08
2.36546e-08
-7.24324e-08
1.41718e-08
-7.09286e-08
6.80198e-09
-6.99341e-08
4.41867e-09
-6.94032e-08
3.43769e-09
-6.90762e-08
2.25837e-09
-6.86217e-08
7.79559e-10
-6.80561e-08
8.33257e-11
-6.75274e-08
1.74167e-10
-6.71147e-08
6.40869e-11
-6.68737e-08
3.18085e-10
-3.60539e-11
1.19177e-07
7.71412e-08
-2.06325e-07
-7.23763e-08
-3.1504e-08
3.84137e-09
-5.58169e-08
-7.4359e-08
-1.16838e-07
5.41046e-08
-1.25147e-07
1.19688e-09
-1.11472e-07
-3.54409e-09
-1.78749e-07
-3.18995e-08
-7.2935e-08
-1.42493e-08
-1.02619e-07
2.28918e-08
-9.68535e-08
1.70513e-08
-9.28794e-08
5.00248e-09
-9.18822e-08
2.5232e-09
-8.25835e-08
-8.86324e-09
-8.17317e-08
1.8166e-08
-8.52005e-08
1.25049e-08
-1.11404e-07
3.6656e-08
1.24711e-07
9.19499e-08
-1.16442e-07
-4.59076e-08
-5.13743e-08
-1.02336e-08
-4.88592e-08
-5.79334e-09
-5.31776e-08
-1.53954e-08
-4.46294e-08
-2.95707e-08
-1.56666e-07
-3.72125e-08
-5.79065e-08
-3.75804e-09
-7.54911e-08
-7.94199e-10
-7.75445e-08
1.08911e-08
-7.79376e-08
1.37789e-08
-4.213e-08
-6.66933e-09
-1.7576e-07
-8.86558e-09
1.39229e-07
8.03565e-08
-9.79768e-08
-6.13345e-08
-8.22235e-08
-1.57589e-09
-7.20883e-08
1.30272e-09
-7.69592e-08
-6.24996e-09
-9.30704e-08
6.02815e-09
-1.26647e-07
1.01892e-08
-1.36595e-07
-1.06219e-08
-1.61305e-07
-4.62348e-09
-1.91525e-07
8.28113e-09
4.19949e-08
6.19408e-08
-1.79196e-07
-5.13154e-08
-1.28202e-07
-1.2049e-08
-8.90438e-08
2.19045e-10
-6.90207e-08
1.84937e-08
-4.84231e-08
1.15933e-08
-4.50398e-08
1.41134e-08
-4.31022e-08
1.14496e-08
-4.55893e-08
1.04657e-08
-4.80313e-08
7.72075e-09
-5.33583e-08
2.83639e-09
-5.96374e-08
-4.29441e-10
-6.73032e-08
-4.29513e-09
-7.55791e-08
-7.30823e-09
-8.27072e-08
-1.46163e-08
-8.80909e-08
-2.12327e-08
-9.26603e-08
-2.36218e-08
-9.70871e-08
-2.07702e-08
-1.00344e-07
-1.43048e-08
-9.95003e-08
-4.03253e-09
-9.40999e-08
9.67647e-09
-8.86631e-08
1.94276e-08
-8.38647e-08
2.21146e-08
-7.8697e-08
1.84869e-08
-7.48543e-08
1.0329e-08
-7.28295e-08
4.77706e-09
-7.13e-08
2.88911e-09
-7.00129e-08
2.15042e-09
-6.90356e-08
1.28098e-09
-6.8415e-08
1.58712e-10
-6.79588e-08
-3.73099e-10
-6.75076e-08
-2.77557e-10
-6.72214e-08
-2.22977e-10
-6.69905e-08
8.64026e-11
9.60656e-12
-3.17654e-08
2.73222e-08
-1.23462e-07
1.97352e-08
-1.37141e-07
1.47226e-08
8.24461e-08
7.36306e-08
-1.59749e-07
-6.47978e-08
-1.32446e-07
-2.61058e-08
-1.18495e-07
-1.74959e-08
-1.26061e-07
-2.43329e-08
-6.16715e-08
-7.95963e-08
-1.00844e-07
6.20648e-08
-1.01928e-07
1.79516e-08
-1.02162e-07
5.23685e-09
-9.80786e-08
-1.56034e-09
-9.48465e-08
-1.11277e-08
-6.89332e-08
-7.66991e-09
-5.97361e-08
3.21404e-09
-4.26415e-08
1.95613e-08
1.9012e-08
2.86313e-08
-2.70888e-08
1.93169e-10
-2.26298e-08
-1.46926e-08
-2.50022e-08
-3.42087e-09
-3.29388e-08
-7.45878e-09
-4.38599e-08
-1.92939e-08
-8.96136e-08
8.00111e-09
-8.92414e-08
-3.20662e-09
-9.24917e-08
3.36662e-09
-9.01546e-08
8.55396e-09
-7.54116e-08
-1.94737e-10
-7.88726e-08
-3.20833e-09
-8.25911e-08
-5.95167e-09
-2.62461e-11
-2.20832e-09
-2.99257e-08
-3.20608e-08
-4.36166e-08
1.21311e-08
-4.62216e-08
3.43616e-09
-6.84381e-08
1.59666e-08
-7.57034e-08
1.39916e-08
-8.21773e-08
1.65591e-08
-1.0478e-07
1.10239e-08
-1.20843e-07
1.16072e-08
-1.24935e-07
1.2459e-08
-8.97002e-08
2.54287e-08
-1.24819e-07
-1.52816e-08
-1.13768e-07
-2.19388e-08
-9.42387e-08
-1.83568e-08
-7.43413e-08
-1.40369e-09
-6.49505e-08
2.20258e-09
-5.86022e-08
7.76515e-09
-5.61779e-08
9.02533e-09
-5.63572e-08
1.06451e-08
-5.86972e-08
1.00607e-08
-6.35758e-08
7.71504e-09
-6.96584e-08
5.65309e-09