/*--------------------------------*- C++ -*----------------------------------*\
  =========                 |
  \\      /  F ield         | OpenFOAM: The Open Source CFD Toolbox
   \\    /   O peration     | Website:  https://openfoam.org
    \\  /    A nd           | Version:  12
     \\/     M anipulation  |
\*---------------------------------------------------------------------------*/
FoamFile
{
    format      ascii;
    class       surfaceScalarField;
    location    "0.6";
    object      phi.water_0;
}
// * * * * * * * * * * * * * * * * * * * * * * * * * * * * * * * * * * * * * //

dimensions      [0 3 -1 0 0 0 0];

internalField   nonuniform List<scalar> 
7375
(
1.485e-07
-3.72343e-09
1.43145e-07
6.86236e-09
1.38799e-07
4.33209e-09
1.404e-07
-1.59195e-09
1.26435e-07
1.39681e-08
1.36937e-07
2.9758e-08
1.32558e-07
4.35246e-09
1.25524e-07
6.96982e-09
1.36266e-07
-1.07429e-08
1.25039e-07
1.11249e-08
1.26569e-07
-1.53495e-09
1.23052e-07
4.77326e-09
1.20012e-07
4.23802e-09
8.45543e-08
-6.1727e-09
9.81152e-08
2.60777e-08
1.01078e-07
-3.00063e-09
9.2127e-08
9.0315e-09
9.90583e-08
-6.9147e-09
9.59712e-08
3.06741e-09
9.54756e-08
4.91907e-10
9.30408e-08
2.41718e-09
8.9923e-08
3.12073e-09
9.06558e-08
1.6697e-10
8.22449e-08
8.38305e-09
9.6831e-08
-1.54233e-08
1.07064e-07
-1.0113e-08
1.36788e-07
-3.00177e-08
1.52422e-07
-5.62088e-08
1.09722e-07
4.22855e-08
9.6895e-08
1.27288e-08
9.20225e-08
4.82256e-09
9.0235e-08
1.78346e-09
9.11462e-08
-9.46315e-10
1.08259e-07
-1.62053e-08
1.01452e-07
6.80627e-09
1.06243e-07
-6.92109e-09
1.21047e-07
-1.48042e-08
1.03412e-07
1.97509e-08
8.5855e-08
1.65098e-08
8.60932e-08
-1.10542e-09
9.37838e-08
-6.82682e-09
9.11964e-08
2.59567e-09
1.11558e-07
-2.05696e-08
9.68241e-08
1.47625e-08
8.06878e-08
1.69046e-08
6.71882e-08
1.34886e-08
5.27104e-08
1.37878e-08
3.06092e-08
2.18706e-08
2.27291e-08
7.72554e-09
1.01652e-08
1.24381e-08
-2.53896e-09
1.26934e-08
-9.07e-09
6.38241e-09
-6.48616e-08
1.52402e-08
-3.13655e-08
7.41628e-09
-2.74542e-08
-3.59757e-09
-2.33363e-08
-4.11817e-09
-1.62785e-08
-7.05761e-09
-6.09633e-09
-1.01825e-08
2.99459e-09
-9.09071e-09
1.24126e-08
-9.41821e-09
2.12941e-08
-8.88132e-09
2.93897e-08
-8.09576e-09
3.69023e-08
-7.51238e-09
4.49953e-08
-8.0931e-09
5.50512e-08
-1.00555e-08
6.57647e-08
-1.07135e-08
7.5297e-08
-9.53198e-09
7.8392e-08
-3.0951e-09
6.93648e-08
9.0274e-09
5.06321e-08
1.87325e-08
2.72431e-08
2.33891e-08
1.69578e-09
2.55474e-08
-2.2385e-08
2.40813e-08
-4.208e-08
1.96955e-08
5.20292e-09
7.31628e-08
-6.30899e-09
8.38734e-08
-3.10242e-09
6.72578e-08
-1.92575e-08
8.27603e-08
2.26824e-08
7.99566e-08
1.74097e-08
7.90424e-08
-9.74884e-09
8.14248e-08
3.32964e-10
9.54881e-08
-7.09364e-09
1.10629e-07
-2.63063e-08
1.13711e-07
8.04205e-09
1.05355e-07
7.98147e-09
1.0903e-07
1.08743e-09
1.02614e-07
1.06104e-08
9.12671e-08
7.02752e-09
6.8785e-08
8.52309e-09
8.89247e-08
1.6779e-08
3.75833e-08
1.88413e-08
5.14723e-08
1.82962e-08
4.73085e-08
6.75354e-09
5.4417e-08
-6.68847e-09
6.42222e-08
-6.83845e-09
8.58929e-08
-1.78949e-08
7.78092e-08
-3.17578e-08
9.3057e-08
-6.88015e-09
1.06702e-07
9.95377e-09
7.92088e-08
1.8365e-08
2.66954e-08
2.3833e-08
2.16888e-07
7.44552e-08
2.71379e-08
-4.76602e-08
5.0279e-08
-1.0646e-08
5.37364e-08
1.87301e-09
4.99918e-08
6.58624e-09
3.14354e-08
1.81209e-08
5.44685e-10
1.4367e-08
-1.20144e-08
1.90929e-08
-8.5697e-09
-1.02432e-08
3.47052e-08
-5.91879e-08
-1.00569e-09
5.49173e-08
-1.5171e-09
1.68444e-08
7.24385e-09
-9.89315e-09
7.25059e-09
-6.83349e-09
2.83055e-08
-1.81705e-08
2.20976e-08
-1.45112e-08
4.15097e-08
-4.87514e-09
3.99503e-08
1.8464e-08
1.74698e-08
3.58314e-08
6.55122e-09
2.46396e-08
1.36434e-09
2.68005e-08
-2.00738e-08
2.90849e-08
-1.81214e-08
1.08869e-08
-2.06693e-08
1.51144e-08
-2.62519e-08
1.19011e-08
-2.8575e-08
1.72586e-08
-3.49356e-08
1.37026e-08
-4.46566e-08
6.1235e-09
-5.14121e-08
2.63715e-09
-5.56755e-08
-2.79416e-09
-5.67807e-08
-9.07738e-09
-5.43711e-08
-1.15003e-08
-5.10743e-08
-1.27151e-08
-4.77661e-08
-1.21895e-08
-4.42497e-08
-1.16121e-08
-3.91594e-08
-1.26026e-08
-3.0575e-08
-1.66775e-08
-1.86048e-08
-2.20256e-08
-5.2932e-09
-2.40249e-08
6.39491e-09
-2.12199e-08
1.08086e-08
-7.50871e-09
2.60821e-09
1.72279e-08
-1.45389e-08
3.58795e-08
-3.62392e-08
4.50895e-08
-5.42129e-08
4.35213e-08
-5.99377e-08
2.98066e-08
-6.12978e-08
2.10562e-08
2.65744e-09
-4.75062e-08
-5.80263e-09
-4.19175e-08
-9.50703e-09
-5.89223e-08
-1.64568e-09
-3.43531e-08
-9.4507e-10
-2.99995e-08
1.2582e-08
-3.40852e-08
-5.93037e-09
-7.1727e-08
-2.03386e-09
-2.76848e-08
-1.13663e-08
1.09832e-08
-6.49743e-08
-2.02128e-08
3.8812e-08
-2.36182e-08
1.16277e-08
-1.33515e-08
-9.17938e-09
-2.31494e-11
-2.82511e-09
-2.66938e-09
9.74513e-09
-5.10608e-09
1.07565e-08
3.58716e-09
7.93001e-09
-5.8481e-09
2.80863e-08
-3.05042e-09
1.54388e-08
-2.81682e-09
6.58882e-09
-5.57873e-09
-3.99484e-09
-4.33812e-09
-8.14884e-09
-4.2945e-09
-1.81234e-08
-3.74015e-08
1.74857e-09
-2.94534e-08
-1.528e-08
-3.24092e-08
1.2272e-08
-4.73565e-08
3.33475e-08
-6.78328e-08
4.45517e-08
-2.68018e-08
3.33566e-08
-6.70162e-08
-7.93206e-09
-7.14097e-08
-6.36107e-09
-6.26144e-08
-6.90313e-09
-5.76806e-08
1.06407e-09
-5.60801e-08
1.63336e-08
-5.69842e-08
1.62781e-08
-5.1817e-08
1.37329e-08
-8.24878e-08
1.90574e-08
1.17074e-07
6.34111e-08
-8.53341e-08
-6.01384e-08
-5.61341e-08
-1.30542e-08
-6.80686e-08
2.04131e-09
-8.41e-08
9.19795e-09
-9.05403e-08
-1.26539e-08
-8.78213e-08
-5.81003e-08
-1.16105e-07
6.43128e-08
-1.26163e-07
2.8522e-08
-1.45708e-07
1.52124e-08
-1.15766e-07
3.55246e-08
-1.03827e-07
1.6019e-08
-9.44664e-08
1.9143e-08
-8.89707e-08
5.39118e-09
-7.87842e-08
4.92776e-09
-7.36698e-08
6.78668e-09
-6.89895e-08
1.25782e-08
-7.01249e-08
1.48379e-08
-7.84313e-08
1.44298e-08
-8.71117e-08
1.13175e-08
-9.42922e-08
4.38629e-09
-9.86743e-08
-4.69528e-09
-9.98116e-08
-1.0363e-08
-9.98287e-08
-1.26981e-08
-1.00191e-07
-1.18271e-08
-9.95497e-08
-1.22534e-08
-9.55284e-08
-1.66238e-08
-8.82498e-08
-2.3956e-08
-8.15615e-08
-2.87137e-08
-7.62875e-08
-2.92988e-08
-7.39138e-08
-2.35934e-08
-7.60986e-08
-5.32376e-09
-8.14038e-08
2.25331e-08
-8.44168e-08
3.88925e-08
-8.2251e-08
4.29238e-08
-7.52158e-08
3.64865e-08
-6.96672e-08
2.42586e-08
-6.50428e-08
1.64324e-08
-1.03745e-10
-1.06499e-07
-7.87728e-09
-8.57755e-08
-3.02311e-08
-7.12263e-08
-5.70621e-08
-8.38758e-08
5.2028e-08
-7.62138e-08
4.27728e-09
-9.27842e-08
9.85434e-09
-8.18647e-08
-1.11717e-08
-9.3908e-08
6.76974e-10
1.1311e-07
4.66265e-08
-7.96225e-08
-8.52914e-08
-4.09092e-08
-2.76161e-08
-3.94818e-08
-1.02977e-08
-3.67626e-08
-5.91567e-09
-7.796e-08
1.01386e-08
-4.71439e-08
2.08472e-08
-5.008e-08
1.08661e-08
-3.73944e-08
1.56871e-08
-3.09229e-08
8.96726e-09
-3.44959e-08
1.01618e-08
-5.33852e-08
1.50479e-08
-6.23486e-08
1.78495e-10
-8.8587e-08
7.20192e-09
-1.28061e-07
3.94514e-10
-1.03623e-07
1.86571e-09
-7.52644e-08
-1.51548e-08
-7.95028e-08
3.68695e-08
-6.34295e-08
2.8024e-08
-5.10285e-08
2.09556e-08
-6.4115e-08
5.15452e-09
-7.1016e-08
5.39936e-10
-8.01894e-08
2.27029e-09
-8.07691e-08
1.64382e-09
-7.36509e-08
9.04879e-09
-7.70843e-08
1.99147e-08
-5.85841e-08
-4.62719e-09
-6.21229e-08
2.25962e-08
-1.7921e-08
1.85624e-08
-7.05617e-08
-8.11123e-09
-8.64514e-08
2.83548e-09
-9.22987e-08
7.80897e-09
-9.84087e-08
1.51534e-08
-1.29586e-07
1.70273e-08
7.29047e-08
6.40353e-08
-1.28143e-07
-5.5451e-08
-1.07308e-07
8.7816e-09
-1.01054e-07
9.97888e-09
-8.54108e-08
1.95259e-08
-7.75098e-08
8.11792e-09
-6.83732e-08
1.00064e-08
-6.80197e-08
5.0376e-09
-6.72778e-08
4.1858e-09
-6.59083e-08
5.41714e-09
-6.50001e-08
1.167e-08
-6.71444e-08
1.69821e-08
-7.33896e-08
2.06749e-08
-8.20226e-08
1.99505e-08
-9.21675e-08
1.45312e-08
-1.01366e-07
4.5032e-09
-1.07401e-07
-4.32757e-09
-1.11552e-07
-8.54764e-09
-1.14819e-07
-8.55964e-09
-1.15911e-07
-1.11617e-08
-1.12279e-07
-2.02556e-08
-1.06894e-07
-2.9341e-08
-1.03737e-07
-3.18706e-08
-1.02882e-07
-3.01537e-08
-1.06253e-07
-2.02223e-08
-1.10108e-07
-1.46839e-09
-1.07085e-07
1.95096e-08
-9.97377e-08
3.15454e-08
-8.92577e-08
3.24439e-08
-7.82839e-08
2.5513e-08
-7.23513e-08
1.83267e-08
-6.74349e-08
1.15166e-08
-1.91244e-09
-9.54504e-08
-7.1875e-09
-1.12364e-07
-1.45999e-08
1.08055e-07
4.10648e-08
-1.03055e-07
-5.36975e-08
-8.41129e-08
-1.56732e-08
-7.53974e-08
1.03817e-09
-7.21997e-08
-1.43695e-08
-5.78961e-08
-1.34823e-08
2.05943e-09
-1.33291e-08
-4.23722e-08
-4.12977e-08
-2.95628e-08
-4.04256e-08
-3.90218e-08
-1.14032e-09
-4.76043e-08
3.09207e-09
-5.39314e-08
1.58186e-08
-5.00261e-08
1.6386e-08
-5.79682e-08
1.95176e-08
-6.02007e-08
1.79196e-08
-6.73223e-08
1.60888e-08
-7.50982e-08
1.71716e-08
-1.14842e-07
1.43707e-08
-9.23851e-08
1.89018e-08
-9.68926e-08
1.16359e-08
-9.51829e-08
-1.31925e-09
-8.50463e-08
-8.28995e-09
-3.40716e-08
-6.64599e-08
-4.73904e-08
4.96866e-08
-4.34011e-08
2.35512e-08
-3.63598e-08
1.39144e-08
-4.36162e-08
1.24109e-08
-4.90726e-08
5.99634e-09
-5.68452e-08
1.0043e-08
-6.57686e-08
1.05672e-08
-7.86723e-08
2.11499e-08
-1.19001e-07
1.98223e-08
-1.04307e-07
2.19022e-08
-9.89235e-08
1.72123e-08
-7.47583e-08
-5.60279e-09
-8.06036e-08
-2.26595e-09
-7.3996e-08
-3.01721e-09
-6.35693e-08
-1.97577e-09
-5.53848e-08
6.88629e-09
-4.88938e-08
9.57993e-09
-1.79337e-09
1.56101e-08
2.21129e-09
-5.94374e-08
-5.02335e-08
6.0608e-08
-5.85192e-08
1.89634e-08
-5.192e-08
1.35118e-08
-5.21618e-08
8.35966e-09
-4.95395e-08
7.38399e-09
-4.97399e-08
5.238e-09
-5.22205e-08
6.66627e-09
-5.53689e-08
8.56551e-09
-5.71714e-08
1.34724e-08
-5.95433e-08
1.93539e-08
-6.47663e-08
2.58979e-08
-7.19073e-08
2.70914e-08
-8.12709e-08
2.38947e-08
-9.32337e-08
1.6466e-08
-1.05347e-07
7.78522e-09
-1.1412e-07
2.26289e-10
-1.18304e-07
-4.37574e-09
-1.17605e-07
-1.18616e-08
-1.12227e-07
-2.56327e-08
-1.0816e-07
-3.34082e-08
-1.05352e-07
-3.46786e-08
-1.04956e-07
-3.05491e-08
-1.08082e-07
-1.70961e-08
-1.10529e-07
9.78464e-10
-1.05607e-07
1.4588e-08
-9.53856e-08
2.13236e-08
-8.4484e-08
2.15426e-08
-7.65629e-08
1.75923e-08
-7.19223e-08
1.36868e-08
-6.86778e-08
8.27277e-09
-2.01659e-09
-9.26934e-08
-7.43469e-09
-8.85773e-08
-1.78129e-08
2.08969e-08
-6.84098e-08
-5.61025e-08
2.29671e-08
-6.28285e-08
-8.9473e-09
-5.23689e-08
-9.42163e-09
-5.25016e-08
-1.37012e-08
-4.14304e-08
-2.45536e-08
-2.29488e-08
-3.22335e-08
-4.24114e-08
-2.18352e-08
-7.60738e-09
-7.64217e-08
-4.62494e-08
3.75017e-08
-6.4489e-08
2.13317e-08
-7.59259e-08
2.74168e-08
-9.66687e-08
3.63462e-08
-1.31601e-07
1.40289e-08
-8.65645e-08
1.40905e-08
-9.32526e-08
2.27769e-08
-9.52094e-08
1.91284e-08
-9.85174e-08
1.75321e-08
-1.00016e-07
2.04002e-08
-9.10462e-08
2.66628e-09
-9.75305e-08
5.16501e-09
-1.14517e-07
7.52799e-09
9.46695e-08
4.67452e-08
-9.36773e-08
-7.92568e-08
-6.18842e-08
-9.19748e-09
-4.3894e-08
-4.07591e-09
-4.98143e-08
1.83312e-08
-5.16284e-08
7.81053e-09
-6.16113e-08
2.00259e-08
-6.9904e-08
1.88599e-08
-7.75344e-08
2.87804e-08
-7.821e-08
2.00907e-08
-7.41187e-08
1.78109e-08
-7.64437e-08
1.95373e-08
-8.1399e-08
-6.54169e-10
-8.44434e-08
7.78558e-10
-8.90425e-08
1.58189e-09
-9.32967e-08
2.25821e-09
-9.6885e-08
9.65498e-09
-9.23239e-08
6.06915e-09
-9.39184e-08
1.79793e-08
1.0401e-07
6.0683e-08
-9.59348e-08
-5.57203e-08
-6.46954e-08
-1.25948e-08
-5.05637e-08
2.68178e-11
-4.81164e-08
5.91239e-09
-4.59856e-08
5.25308e-09
-4.59355e-08
5.18789e-09
-4.68451e-08
7.57575e-09
-4.92798e-08
1.10002e-08
-5.20966e-08
1.62891e-08
-5.52716e-08
2.25288e-08
-5.81657e-08
2.8792e-08
-6.15048e-08
3.04305e-08
-6.65451e-08
2.89349e-08
-7.35345e-08
2.34553e-08
-8.26923e-08
1.6943e-08
-9.24644e-08
9.99845e-09
-9.83452e-08
1.50507e-09
-9.79465e-08
-1.22603e-08
-9.43893e-08
-2.91897e-08
-9.30843e-08
-3.47132e-08
-9.31842e-08
-3.45785e-08
-9.60131e-08
-2.77201e-08
-9.98763e-08
-1.32327e-08
-9.9959e-08
1.06131e-09
-9.51385e-08
9.76754e-09
-8.74322e-08
1.36175e-08
-8.02084e-08
1.43189e-08
-7.51906e-08
1.2575e-08
-7.17107e-08
1.02076e-08
-6.97455e-08
6.30814e-09
-1.58133e-09
-1.14008e-07
-2.99603e-08
-1.23983e-07
-7.83844e-09
1.02938e-07
2.40383e-08
-1.13853e-07
-8.03101e-08
-7.99245e-08
-4.28759e-08
-7.14763e-08
-1.76894e-08
-5.85605e-08
-2.66171e-08
-5.74772e-08
-2.58874e-08
-3.07287e-08
-5.959e-08
-1.15823e-07
6.2077e-08
7.35223e-08
5.82003e-08
-1.41101e-07
-6.9401e-08
-1.25621e-07
5.91178e-09
-1.31827e-07
3.26104e-08
-1.30939e-07
-4.91235e-09
-1.4024e-07
2.59537e-08
-1.14883e-07
2.83377e-08
-1.17152e-07
2.38741e-08
-1.00178e-07
2.13232e-09
-1.0204e-07
1.93942e-08
-9.60517e-08
1.44118e-08
-1.00756e-07
7.37096e-09
-9.72806e-08
1.68918e-09
-8.21154e-08
-7.63718e-09
-2.97779e-08
-6.0692e-09
-5.57529e-08
-5.40903e-08
-8.84458e-08
-1.65132e-08
-7.2641e-08
2.01279e-08
-7.14025e-08
1.70927e-08
-7.36973e-08
1.01053e-08
-7.55012e-08
2.16094e-08
-7.577e-08
1.91287e-08
-1.06097e-07
2.01812e-08
-7.60731e-08
2.96714e-08
-7.66228e-08
1.75846e-08
-8.39338e-08
2.59921e-08
-9.92335e-08
1.46456e-08
-1.05922e-07
8.47924e-09
-1.12693e-07
8.35273e-09
-1.21401e-07
9.7282e-09
-1.25532e-07
1.37856e-08
-1.2507e-07
6.82656e-09
-1.06276e-07
-6.38613e-10
-6.0566e-08
1.55913e-08
-9.23276e-08
-2.45214e-08
-9.48948e-08
-1.00015e-08
-8.53653e-08
-8.55404e-09
-7.83587e-08
-1.09425e-09
-7.25527e-08
-5.52946e-10
-6.96074e-08
2.24257e-09
-6.70407e-08
5.00896e-09
-6.5744e-08
9.70336e-09
-6.50186e-08
1.55637e-08
-6.34359e-08
2.09461e-08
-6.14962e-08
2.68523e-08
-6.08414e-08
2.97756e-08
-6.05849e-08
2.86785e-08
-6.16039e-08
2.44742e-08
-6.46026e-08
1.99417e-08
-6.90935e-08
1.44893e-08
-7.28231e-08
5.23469e-09
-7.4942e-08
-1.01414e-08
-7.70349e-08
-2.70968e-08
-7.96893e-08
-3.20588e-08
-8.3268e-08
-3.09997e-08
-8.82934e-08
-2.26947e-08
-9.21583e-08
-9.3677e-09
-9.14169e-08
3.20033e-10
-8.7291e-08
5.64179e-09
-8.25662e-08
8.89283e-09
-7.83103e-08
1.00633e-08
-7.48875e-08
9.15261e-09
-7.23121e-08
7.63289e-09
-7.08321e-08
4.82877e-09
-1.20754e-09
-9.96846e-08
-1.90039e-08
-9.43512e-08
-1.33081e-08
-5.62552e-08
-1.4203e-08
-9.37525e-08
-4.32543e-08
-9.12879e-08
-4.44094e-08
-7.75575e-08
-3.14199e-08
-1.0298e-07
-1.98598e-09
-1.45813e-07
1.54578e-08
4.09894e-08
7.69748e-08
-1.81457e-07
-3.78139e-08
-1.25954e-07
8.06892e-10
-1.37952e-07
-5.81259e-08
-1.92693e-07
6.00894e-08
-1.86459e-07
-1.00334e-08
-1.64491e-07
1.46561e-08
-1.5449e-07
1.42746e-08
-1.25037e-07
-8.1783e-10
-1.34811e-07
-4.98489e-09
-1.1983e-07
2.67558e-08
-1.11142e-07
9.38794e-09
-1.03509e-07
6.77888e-09
-1.37527e-07
1.37986e-09
-1.05019e-07
9.1896e-09
-9.77257e-08
-1.49303e-08
-8.48553e-08
-1.89395e-08
-6.23806e-08
-7.73542e-08
-6.70047e-08
-1.18891e-08
-1.06913e-07
5.94298e-08
-9.8304e-08
8.48378e-09
-9.39197e-08
6.67923e-09
-8.56713e-08
1.3361e-08
-7.84388e-08
1.10222e-08
-7.42507e-08
1.59931e-08
-7.12827e-08
2.70062e-08
-8.07892e-08
2.7091e-08
-8.48161e-08
2.97159e-08
-8.7341e-08
1.70211e-08
-1.01797e-07
2.29347e-08
-1.16911e-07
2.34669e-08
-1.09455e-07
2.27281e-09
-1.1184e-07
1.58677e-08
-1.16346e-07
1.01454e-08
-1.268e-07
9.81575e-09
-1.15874e-07
5.95873e-09
-1.28178e-07
-1.24678e-08
-1.26292e-07
-1.05987e-08
-1.20519e-07
-1.30646e-08
-1.14711e-07
-6.90242e-09
-1.10031e-07
-5.23283e-09
-1.07056e-07
-7.32502e-10
-1.04448e-07
2.40108e-09
-1.00641e-07
5.89642e-09
-9.49235e-08
9.84597e-09
-8.69084e-08
1.2931e-08
-7.7887e-08
1.78308e-08
-6.98048e-08
2.16934e-08
-6.34181e-08
2.22918e-08
-5.93098e-08
2.03658e-08
-5.78468e-08
1.84787e-08
-5.88194e-08
1.54619e-08
-6.10398e-08
7.4551e-09
-6.50569e-08
-6.12441e-09
-7.05716e-08
-2.1582e-08
-7.53768e-08
-2.72535e-08
-7.97721e-08
-2.66043e-08
-8.37861e-08
-1.86806e-08
-8.61018e-08
-7.05185e-09
-8.52057e-08
-5.75981e-10
-8.25631e-08
2.9993e-09
-7.97692e-08
6.09914e-09
-7.71064e-08
7.40071e-09
-7.47098e-08
6.75636e-09
-7.28131e-08
5.73694e-09
-7.16877e-08
3.70402e-09
-8.93494e-10
-1.1614e-07
-7.42515e-09
-1.25246e-07
-5.54995e-09
-1.46832e-07
7.23414e-09
-1.50466e-07
-3.81074e-08
-1.57482e-07
-3.62277e-08
-1.0792e-07
-8.21402e-08
-1.59006e-07
4.90995e-08
-1.60165e-07
1.66172e-08
-1.11508e-07
2.72543e-08
-1.6306e-07
1.2074e-08
-1.9842e-07
3.41141e-08
-1.62377e-09
7.10886e-08
-2.18203e-07
-8.17782e-08
-1.84934e-07
-3.59715e-09
-1.60016e-07
-1.19986e-08
-1.72271e-07
-1.1722e-08
-1.38219e-07
4.68764e-09
-1.37851e-07
-6.76255e-09
-1.39364e-07
-9.94389e-09
-1.03181e-07
1.28096e-08
-1.07742e-07
1.02865e-08
-1.30581e-07
2.4219e-08
-1.14502e-07
-6.81921e-09
-1.29053e-07
-3.83263e-10
-1.71804e-07
2.20579e-08
6.04193e-09
6.81674e-08
1.32953e-08
-1.93397e-08
-1.54057e-07
-9.09725e-08
-1.17752e-07
-2.93933e-08
-1.06479e-07
-4.59349e-09
-9.51861e-08
2.18228e-09
-9.12158e-08
7.05192e-09
-9.46979e-08
1.94752e-08
-9.76615e-08
2.96672e-08
-9.22802e-08
2.26512e-08
-7.69013e-08
1.4337e-08
-7.08694e-08
1.02047e-08
-7.37883e-08
2.55926e-08
-9.02739e-08
-5.59289e-11
-1.05055e-07
1.81253e-08
-7.60087e-08
2.6162e-08
-7.87633e-08
1.21246e-08
-7.54163e-08
6.36862e-09
-7.93391e-08
9.88145e-09
-8.02309e-08
-1.1576e-08
-8.05878e-08
-9.4198e-09
-7.78397e-08
-1.51585e-08
-7.73909e-08
-7.35129e-09
-7.93175e-08
-3.30624e-09
-8.21986e-08
2.14849e-09
-8.69066e-08
7.10905e-09
-9.07135e-08
9.70327e-09
-9.19896e-08
1.11221e-08
-9.03076e-08
1.12489e-08
-8.41232e-08
1.16464e-08
-7.40769e-08
1.16471e-08
-6.34086e-08
1.16235e-08
-5.53146e-08
1.22718e-08
-5.07874e-08
1.39514e-08
-4.99529e-08
1.46275e-08
-5.29681e-08
1.04703e-08
-6.01373e-08
1.04483e-09
-6.84102e-08
-1.33091e-08
-7.29215e-08
-2.27422e-08
-7.61766e-08
-2.33491e-08
-7.9498e-08
-1.5359e-08
-8.16714e-08
-4.87829e-09
-8.1904e-08
-3.43311e-10
-8.06111e-08
1.70656e-09
-7.86797e-08
4.16787e-09
-7.67006e-08
5.42181e-09
-7.48407e-08
4.89696e-09
-7.33203e-08
4.21723e-09
-7.23698e-08
2.75412e-09
-6.58998e-10
-1.30779e-07
-1.35004e-09
-1.52385e-07
1.45423e-08
-1.91201e-07
7.12476e-09
-1.86921e-07
-1.96625e-09
-2.29955e-07
4.4817e-09
-2.01413e-08
3.41355e-08
-2.15968e-07
-7.49369e-08
-1.80997e-07
-1.6677e-08
-1.43089e-07
-1.06538e-08
-1.42237e-07
9.76241e-09
-1.26118e-07
1.74681e-08
-8.10466e-08
2.52923e-08
-1.44358e-07
-1.86573e-08
-1.43551e-07
-4.44102e-09
-1.48305e-07
-7.244e-09
-1.52831e-07
-5.57986e-09
-1.27391e-07
-2.07055e-08
-1.33432e-07
-6.60168e-10
-1.31817e-07
-1.15588e-08
-1.08122e-07
-1.20999e-08
-1.11586e-07
1.37509e-08
-1.41841e-07
1.57519e-08
-1.16084e-07
5.85554e-09
-1.31592e-07
1.37864e-08
-1.23175e-07
1.49838e-08
-7.30568e-08
1.73536e-08
-6.63928e-08
-2.6681e-08
-1.08465e-07
-9.11991e-08
-1.24703e-07
2.79599e-08
-1.3027e-07
2.30226e-09
-1.21047e-07
-7.11174e-09
-1.09598e-07
-5.63248e-09
-1.05526e-07
1.63139e-08
-9.53976e-08
1.95384e-08
-8.59358e-08
1.22161e-08
-6.83622e-08
-3.09035e-09
-7.72837e-08
1.99147e-08
-6.00327e-08
8.25819e-09
-6.49133e-08
4.21226e-09
-8.81672e-08
2.27012e-09
-5.23409e-08
2.99025e-08
-5.2799e-08
1.20487e-08
-5.48367e-08
8.32143e-09
-5.31529e-08
8.19764e-09
-5.73686e-08
-7.3603e-09
-6.7673e-08
8.84553e-10
-7.70516e-08
-5.14859e-09
-7.80607e-08
-5.62812e-09
-8.24818e-08
1.11487e-09
-8.53898e-08
5.05638e-09
-8.75679e-08
9.28718e-09
-8.76711e-08
9.80645e-09
-8.5675e-08
9.12594e-09
-8.21271e-08
7.701e-09
-7.54394e-08
4.95864e-09
-6.49932e-08
1.20086e-09
-5.33639e-08
-5.77356e-12
-4.24376e-08
1.34546e-09
-3.44806e-08
5.99439e-09
-3.08823e-08
1.10291e-08
-3.1233e-08
1.0821e-08
-3.66047e-08
6.41647e-09
-4.67159e-08
-3.19788e-09
-5.64795e-08
-1.29785e-08
-6.50417e-08
-1.47868e-08
-7.2163e-08
-8.23761e-09
-7.60549e-08
-9.86291e-10
-7.79378e-08
1.53972e-09
-7.83912e-08
2.16e-09
-7.75417e-08
3.31859e-09
-7.61087e-08
3.989e-09
-7.47699e-08
3.55859e-09
-7.36038e-08
3.0518e-09
-7.28747e-08
2.02568e-09
-4.58734e-10
-1.09138e-07
2.12378e-08
-1.13996e-07
2.03646e-08
-1.24548e-07
1.63333e-08
-1.4726e-07
1.92277e-08
-1.58322e-07
1.53837e-08
-1.34713e-07
1.18061e-08
-1.79194e-07
-3.09096e-08
-1.54171e-07
-8.2977e-08
-1.65662e-07
4.23104e-08
-1.57768e-07
3.47737e-09
-1.38541e-07
-1.77662e-09
-1.33633e-07
1.77894e-08
-1.69465e-07
1.69992e-08
-1.59312e-07
-1.28651e-08
-1.57981e-07
-6.96387e-09
-1.45958e-07
-1.76027e-08
-1.50022e-07
-1.83412e-08
-1.30071e-07
-2.06118e-08
-1.183e-07
-2.34476e-08
-9.97556e-08
-3.06441e-08
-1.05133e-07
1.99968e-08
-9.66289e-08
7.2476e-09
-9.10605e-08
2.90105e-10
-7.28341e-08
-4.57925e-09
-4.7902e-08
-1.05834e-08
-3.82516e-08
7.70317e-09
-9.32427e-08
2.73589e-08
8.66823e-08
5.3183e-08
-1.32086e-07
-7.42246e-08
-1.20428e-07
-1.06935e-08
-1.46022e-07
-2.2012e-08
-1.30105e-07
2.12764e-08
-1.15469e-07
1.67811e-09
-9.98212e-08
2.91189e-09
-9.22658e-08
4.6608e-09
-8.79169e-08
-7.43926e-09
-9.02349e-08
2.29194e-08
-7.1649e-08
-1.02443e-08
-6.82075e-08
4.0275e-11
-7.06718e-08
5.45535e-09
-4.46892e-08
4.17965e-09
-3.84187e-08
5.65656e-09
-3.64383e-08
6.40562e-09
-3.60098e-08
7.39739e-09
-4.43786e-08
1.01894e-09
-4.96919e-08
6.19781e-09
-6.6559e-08
1.17185e-08
-8.23595e-08
1.08445e-08
-9.04204e-08
9.99923e-09
-9.39764e-08
8.61231e-09
-9.43275e-08
9.63821e-09
-9.23962e-08
7.87513e-09
-8.84389e-08
5.16864e-09
-8.10524e-08
3.14519e-10
-7.09636e-08
-5.13022e-09
-5.96183e-08
-1.01445e-08
-4.82435e-08
-1.13805e-08
-3.79443e-08
-8.95373e-09
-2.91028e-08
-2.84712e-09
-2.2787e-08
4.71328e-09
-2.08295e-08
8.86359e-09
-2.33202e-08
8.90712e-09
-3.17806e-08
5.26256e-09
-4.60275e-08
1.2684e-09
-6.13451e-08
5.30921e-10
-7.19127e-08
2.33009e-09
-7.62326e-08
3.33368e-09
-7.78584e-08
3.16562e-09
-7.83364e-08
2.63816e-09
-7.75733e-08
2.5556e-09
-7.60402e-08
2.45616e-09
-7.48275e-08
2.34635e-09
-7.38776e-08
2.10252e-09
-7.32724e-08
1.42117e-09
-3.05358e-10
-7.07619e-08
1.95766e-08
-6.51453e-08
1.45986e-08
-6.08092e-08
1.18757e-08
-6.25809e-08
2.0593e-08
-6.56893e-08
1.81498e-08
-7.01523e-08
1.59855e-08
-1.15731e-07
1.33521e-08
7.51026e-08
5.04118e-08
-1.39264e-07
-6.41569e-08
-1.14618e-07
-2.2113e-08
-1.30805e-07
1.29112e-08
-1.14903e-07
4.37474e-09
-1.03923e-07
7.07863e-09
-1.03819e-07
-1.40293e-08
-9.8827e-08
-1.19555e-08
-1.02818e-07
-1.37917e-08
-1.05871e-07
-1.52882e-08
-1.03452e-07
-2.30301e-08
-9.52392e-08
-3.19871e-08
-1.26929e-07
2.36454e-09
-1.11571e-07
4.63942e-09
-1.04325e-07
-1.06304e-09
-9.27374e-08
-1.12977e-08
-1.12526e-07
-2.36974e-08
-1.64123e-08
-6.70931e-08
-1.30306e-08
4.15405e-09
-5.70005e-08
7.13287e-08
-8.95772e-09
4.55121e-09
-2.43858e-08
-5.96538e-08
-1.23562e-07
4.8062e-08
-1.19066e-07
1.49856e-08
-1.07984e-07
1.01941e-08
-1.0529e-07
-9.99113e-10
-1.05752e-07
3.37466e-09
-9.9847e-08
-1.24451e-09
-1.03059e-07
-3.17544e-09
-7.44749e-08
-5.60844e-09
-7.32103e-08
-1.29875e-08
-7.49919e-08
1.80323e-09
-8.11314e-08
1.31876e-08
-7.51363e-08
-1.01442e-09
-6.84387e-08
-2.51636e-09
-8.30501e-08
2.03776e-08
-8.13329e-08
5.75645e-09
-1.05739e-07
2.56895e-08
-1.03225e-07
4.76299e-09
-1.08484e-07
1.79013e-08
-1.08248e-07
1.15848e-08
-1.07927e-07
9.67778e-09
-1.06747e-07
7.43252e-09
-1.03764e-07
6.6549e-09
-9.82753e-08
2.38673e-09
-8.98419e-08
-3.26474e-09
-7.80395e-08
-1.14879e-08
-6.52389e-08
-1.79308e-08
-5.33585e-08
-2.20249e-08
-4.25021e-08
-2.2237e-08
-3.42583e-08
-1.71975e-08
-2.84878e-08
-8.61759e-09
-2.50863e-08
1.31176e-09
-2.67236e-08
1.05008e-08
-3.19969e-08
1.41805e-08
-4.1741e-08
1.50067e-08
-5.52832e-08
1.48106e-08
-6.70442e-08
1.2292e-08
-7.33472e-08
8.63312e-09
-7.60746e-08
6.0612e-09
-7.71512e-08
4.24241e-09
-7.73924e-08
2.87947e-09
-7.67247e-08
1.88799e-09
-7.57035e-08
1.43523e-09
-7.48763e-08
1.51957e-09
-7.40027e-08
1.22965e-09
-7.3564e-08
9.83031e-10
-1.86738e-10
-3.05943e-08
9.89505e-10
-8.4974e-10
-1.54469e-08
1.76631e-08
-6.75623e-09
3.50146e-08
3.06614e-09
3.23852e-08
2.10178e-08
5.03925e-08
-2.20381e-09
6.4958e-08
-7.04556e-10
1.19767e-07
-4.24931e-09
7.01547e-08
-1.52599e-08
1.00938e-07
-5.39157e-08
5.33247e-08
6.08749e-08
4.60802e-08
1.27073e-08
4.60078e-08
7.69885e-09
2.7065e-08
4.44415e-09
7.76528e-10
1.43329e-08
-2.28317e-08
9.81642e-09
-4.48118e-08
6.69191e-09
-7.09044e-08
2.33918e-09
-5.40026e-08
-4.99605e-08
-1.30035e-07
7.89536e-08
-1.33112e-07
9.09021e-09
-1.31986e-07
-2.18897e-09
-1.34203e-07
-9.08076e-09
-1.82873e-07
-1.50358e-08
3.69371e-08
7.24888e-08
3.48075e-08
6.28371e-09
-1.81685e-07
-7.11278e-08
-7.54504e-08
-6.28407e-08
9.11551e-08
9.53474e-08
-1.65027e-07
-5.72525e-08
-1.12674e-07
2.64108e-09
-1.06677e-07
4.19633e-09
-1.01122e-07
-6.55389e-09
-9.57669e-08
-1.98019e-09
-8.57917e-08
-1.12197e-08
-8.08201e-08
-7.32252e-09
-5.66141e-08
-2.92993e-08
-4.69215e-08
-2.2778e-08
-3.73462e-08
-8.26417e-09
-3.31384e-08
8.51204e-09
-3.79303e-08
3.34596e-09
-5.77989e-08
1.73263e-08
-8.21439e-08
4.42664e-08
-1.1316e-07
3.56061e-08
-1.53764e-07
2.67745e-08
-1.30633e-07
2.42941e-08
-1.29002e-07
1.73973e-08
-1.25112e-07
7.69436e-09
-1.1847e-07
3.03552e-09
-1.14194e-07
3.1564e-09
-1.05456e-07
-2.08222e-09
-9.64409e-08
-6.62876e-09
-8.63498e-08
-1.33559e-08
-7.71345e-08
-2.07031e-08
-6.8354e-08
-2.67113e-08
-6.05769e-08
-2.9802e-08
-5.32012e-08
-2.96127e-08
-4.66985e-08
-2.37003e-08
-4.1623e-08
-1.36931e-08
-4.02404e-08
-7.07644e-11
-4.56509e-08
1.59113e-08
-5.48627e-08
2.33923e-08
-6.52323e-08
2.53763e-08
-7.39137e-08
2.34921e-08
-7.75241e-08
1.59025e-08
-7.74758e-08
8.58499e-09
-7.70587e-08
5.64414e-09
-7.69769e-08
4.16073e-09
-7.68415e-08
2.74419e-09
-7.63111e-08
1.35774e-09
-7.56172e-08
7.41592e-10
-7.48764e-08
7.79162e-10
-7.41773e-08
5.3127e-10
-7.3786e-08
5.92316e-10
-1.13024e-10
-8.32434e-08
-2.99735e-09
-4.32217e-08
-5.63352e-08
-8.4068e-08
7.3626e-08
-7.25048e-08
-1.00634e-08
-6.29466e-08
-2.87447e-08
-5.81838e-08
-6.347e-09
-5.87274e-08
-1.68227e-10
-1.69233e-08
-4.60534e-08
-1.01493e-07
6.86094e-08
9.79304e-08
6.61794e-08
-1.10673e-07
-5.10983e-08
-8.16707e-08
-1.61637e-08
-6.78435e-08
-5.37366e-09
-5.97057e-08
-3.69368e-09
-6.54209e-08
2.00481e-08
-6.84841e-08
1.28796e-08
-9.51454e-08
3.33532e-08
-1.46463e-07
5.21622e-08
4.4795e-08
8.35248e-08
-1.6864e-07
-2.89419e-08
-1.40862e-07
-1.86877e-08
-1.24614e-07
-1.84375e-08
-1.11401e-07
-2.22939e-08
-5.55579e-08
-7.16091e-08
-4.69956e-08
6.39265e-08
-4.83999e-08
7.19428e-09
-1.65691e-07
5.74282e-09
8.63847e-08
4.53279e-08
-7.60068e-08
-6.00598e-08
-4.84284e-08
-8.56063e-08
-8.51146e-08
3.89301e-08
-8.65841e-08
5.66576e-09
-8.46076e-08
-8.61831e-09
-8.77844e-08
1.19669e-09
-8.14056e-08
-1.75986e-08
-7.74311e-08
-1.12969e-08
-8.22319e-08
-2.50531e-08
-7.14971e-08
-3.37451e-08
-5.03685e-08
-2.92618e-08
-3.72544e-08
-4.22585e-09
-2.99219e-08
-4.40729e-09
-3.21465e-08
1.92655e-08
-4.01049e-08
1.22163e-08
-4.03776e-08
3.51568e-08
-5.7609e-08
4.3873e-08
-4.03776e-08
4.66042e-08
-4.49658e-08
2.19855e-08
-5.35166e-08
1.62451e-08
-6.02263e-08
9.74513e-09
-6.36637e-08
6.59386e-09
-6.4307e-08
-1.43895e-09
-6.51318e-08
-5.80397e-09
-6.73268e-08
-1.11609e-08
-7.31865e-08
-1.48434e-08
-7.88446e-08
-2.10533e-08
-8.26562e-08
-2.59904e-08
-8.46401e-08
-2.76287e-08
-8.36351e-08
-2.47052e-08
-8.01742e-08
-1.7154e-08
-7.7376e-08
-2.86895e-09
-7.68617e-08
1.5397e-08
-7.8688e-08
2.52186e-08
-8.0564e-08
2.72523e-08
-8.10621e-08
2.39902e-08
-7.96448e-08
1.44853e-08
-7.80994e-08
7.03964e-09
-7.70677e-08
4.61258e-09
-7.65073e-08
3.60044e-09
-7.61598e-08
2.39682e-09
-7.56948e-08
8.92813e-10
-7.51289e-08
1.75923e-10
-7.45954e-08
2.46081e-10
-7.41597e-08
9.62692e-11
-7.39022e-08
3.35465e-10
-2.86149e-11
-1.18895e-07
2.05873e-08
7.56927e-08
7.45729e-08
-1.4081e-07
-7.07419e-08
-1.18978e-07
8.19728e-09
-1.28989e-07
2.17901e-08
-1.36344e-07
1.00776e-09
-1.61011e-07
2.44983e-08
5.55704e-08
5.68667e-08
-1.42488e-07
-5.01685e-08
-7.0323e-08
-7.4389e-09
-1.07227e-07
-1.41941e-08
-1.06525e-07
-1.67013e-08
-1.01889e-07
-1.001e-08
-8.77427e-08
-1.78395e-08
-8.5211e-08
1.73394e-08
-8.27306e-08
1.03991e-08
-7.80043e-08
2.83378e-08
-7.01422e-08
4.35845e-08
-2.48811e-08
3.74028e-08
-5.48049e-08
1.23577e-09
-6.56169e-08
-7.87578e-09
-8.17906e-08
-2.26379e-09
-1.07868e-07
2.68268e-09
8.61831e-08
5.83083e-08
-1.23057e-07
-4.82735e-08
-8.80013e-08
-2.78612e-08
-8.71015e-08
4.78448e-09
-4.36726e-08
1.8989e-09
-9.8662e-08
-5.62577e-09
1.015e-07
3.32646e-08
-1.08397e-07
-6.80085e-08
-8.27669e-08
-2.19149e-08
-9.09579e-08
-4.273e-10
-8.0249e-08
-8.58431e-09
-8.17253e-08
-1.62884e-08
-9.58233e-08
1.82347e-09
-1.50448e-07
-1.08491e-08
-1.27713e-07
-1.62397e-08
-1.50465e-07
-6.57757e-09
-1.42566e-07
-1.20875e-08
-1.55639e-07
7.08966e-09
-1.2869e-07
-6.07999e-09
-1.21134e-07
7.20863e-09
-8.99175e-08
4.80025e-09
-7.6488e-08
3.00048e-08
-5.27951e-08
2.29114e-08
-5.08916e-08
2.00819e-08
-4.99648e-08
1.53184e-08
-5.31913e-08
1.29716e-08
-5.6007e-08
9.40955e-09
-6.15145e-08
4.06855e-09
-6.78471e-08
5.28637e-10
-7.54949e-08
-3.51306e-09
-8.37186e-08
-6.61977e-09
-9.07804e-08
-1.39914e-08
-9.60815e-08
-2.06893e-08
-1.00545e-07
-2.31648e-08
-1.04863e-07
-2.03871e-08
-1.08034e-07
-1.39839e-08
-1.07139e-07
-3.76341e-09
-1.0165e-07
9.90754e-09
-9.61125e-08
1.96814e-08
-9.12399e-08
2.23797e-08
-8.60108e-08
1.87611e-08
-8.2106e-08
1.05806e-08
-8.00363e-08
4.96997e-09
-7.84693e-08
3.04573e-09
-7.715e-08
2.28125e-09
-7.61456e-08
1.3925e-09
-7.55031e-08
2.50519e-10
-7.50253e-08
-3.01703e-10
-7.45547e-08
-2.24011e-10
-7.42645e-08
-1.93315e-10
-7.4031e-08
1.02577e-10
1.68764e-11
-7.12331e-08
1.82465e-08
-6.75697e-08
2.86522e-08
-1.09794e-07
1.03703e-08
-1.16035e-07
1.32423e-08
-1.1269e-07
1.94403e-08
-1.19079e-07
8.5471e-09
-1.08812e-07
1.4231e-08
-7.09043e-08
1.89588e-08
-1.10975e-07
-1.06101e-08
-1.05439e-07
-1.31087e-08
-1.01012e-07
-1.84327e-08
-1.06982e-07
-1.07309e-08
-1.04876e-07
-1.21158e-08
-1.03707e-07
-1.79514e-08
-7.62571e-08
-1.0009e-08
-6.58299e-08
-1.34477e-10
-4.98577e-08
1.23656e-08
-3.12678e-08
2.42387e-08
-1.80846e-08
2.3838e-08
-3.24962e-08
1.56473e-08
-3.89952e-08
-1.37677e-09
-4.9669e-08
8.41e-09
-5.78289e-08
1.03582e-08
-4.1156e-08
4.06102e-08
-1.20899e-07
-8.52685e-09
-1.03769e-07
-3.7496e-09
-9.34093e-08
-5.57532e-09
-7.58075e-08
-1.49296e-08
-6.44331e-08
-1.70002e-08
-8.0195e-09
-2.38063e-08
-4.8667e-08
-2.80548e-08
-5.63622e-08
-1.42197e-08
-5.51934e-08
-1.59175e-09
-5.60895e-08
-8.26039e-09
-8.27886e-08
1.04106e-08
-8.41973e-08
4.07674e-09
-9.2642e-08
-2.2937e-09
-9.7121e-08
-1.28829e-08
-1.22687e-07
1.92543e-08
-1.32037e-07
-2.86198e-09
-1.49172e-07
-1.62686e-08
-1.26195e-07
1.25353e-08
-1.05366e-07
-1.2546e-08
-9.61205e-08
-3.42595e-09
-8.24592e-08
1.63435e-08
-7.28959e-08
1.33481e-08
-6.69998e-08
1.41858e-08
-6.46066e-08
1.29252e-08
-6.48097e-08
1.31747e-08
-6.71713e-08
1.17712e-08
-7.20283e-08
8.92554e-09
-7.8065e-08
6.56535e-09
-8.37235e-08
2.14545e-09
-8.84598e-08
-1.88345e-09