/*--------------------------------*- C++ -*----------------------------------*\
  =========                 |
  \\      /  F ield         | OpenFOAM: The Open Source CFD Toolbox
   \\    /   O peration     | Website:  https://openfoam.org
    \\  /    A nd           | Version:  12
     \\/     M anipulation  |
\*---------------------------------------------------------------------------*/
FoamFile
{
    format      ascii;
    class       volVectorField;
    location    "0.6";
    object      U.water_0;
}
// * * * * * * * * * * * * * * * * * * * * * * * * * * * * * * * * * * * * * //

dimensions      [0 1 -1 0 0 0 0];

internalField   nonuniform List<vector> 
3750
(
(-0.000438217 0.0149964 0)
(0.00055428 0.0134978 0)
(0.000193639 0.0139216 0)
(0.00029045 0.013989 0)
(0.000494405 0.0123575 0)
(-0.000196769 0.012446 0)
(-0.000244266 0.0127033 0)
(0.000923797 0.0117829 0)
(3.45063e-07 0.0123623 0)
(0.000774818 0.0132621 0)
(-0.000359806 0.0129205 0)
(0.000136879 0.0119704 0)
(-0.000378655 0.0103946 0)
(-0.00106108 0.00929525 0)
(-0.000634678 0.00923403 0)
(-0.000887188 0.0100018 0)
(-0.00030357 0.00866611 0)
(0.000725956 0.00937656 0)
(0.000578251 0.010416 0)
(0.000172266 0.00921448 0)
(0.000581636 0.00891337 0)
(-4.51392e-05 0.0095845 0)
(-0.000903154 0.00827011 0)
(-7.70876e-05 0.00797458 0)
(0.000147082 0.00896161 0)
(0.00123984 0.00907507 0)
(-0.000742878 0.0110061 0)
(-0.00216987 0.0136759 0)
(0.00263838 0.0123303 0)
(0.00137931 0.00892899 0)
(5.03161e-06 0.0083442 0)
(-0.000396184 0.00706179 0)
(-0.00126749 0.00851586 0)
(-0.00222552 0.010163 0)
(-0.00168401 0.00978227 0)
(-0.00130887 0.0108449 0)
(-0.00134083 0.0110485 0)
(0.0018552 0.00891573 0)
(0.00127409 0.00909966 0)
(0.000289335 0.00708878 0)
(-0.000898247 0.00650568 0)
(0.000653057 0.00862111 0)
(-0.000667595 0.0088624 0)
(0.000837633 0.00978642 0)
(0.00031513 0.0085469 0)
(0.00168529 0.00660759 0)
(0.000431311 0.00650227 0)
(0.0003841 0.00302007 0)
(-0.000806133 0.00344107 0)
(0.000259953 0.0019046 0)
(0.000566185 0.000309839 0)
(0.000118153 -0.00122892 0)
(0.00120435 -0.00193436 0)
(-0.000335917 -0.00176873 0)
(-0.00107902 -0.00377367 0)
(-0.0010163 -0.00381694 0)
(-0.000719168 -0.00220539 0)
(-0.00069856 -0.000963812 0)
(-0.000325021 -0.000132644 0)
(-0.000390653 0.000722152 0)
(-0.00044799 0.00170299 0)
(-0.000447842 0.00251165 0)
(-0.000459453 0.00338784 0)
(-0.000426374 0.00402873 0)
(-0.000398679 0.00497918 0)
(-0.000303935 0.00600801 0)
(-0.000191081 0.00705228 0)
(0.000122684 0.00784537 0)
(0.000677808 0.00766353 0)
(0.000880411 0.00633758 0)
(0.000835471 0.00380159 0)
(0.000782726 0.00164532 0)
(0.00131435 -0.00098026 0)
(0.00119567 -0.00426689 0)
(0.000614316 -0.00468283 0)
(-0.000119486 0.00617198 0)
(-0.000120322 0.00614428 0)
(-0.00074281 0.00688697 0)
(0.000874434 0.00754969 0)
(0.00079033 0.00570257 0)
(0.00128127 0.00597916 0)
(-0.000607726 0.00852124 0)
(0.00028178 0.00851785 0)
(-0.00213923 0.00961305 0)
(0.00137738 0.0104452 0)
(0.000645695 0.0105256 0)
(0.000817317 0.0110846 0)
(0.000992957 0.00975292 0)
(0.00111766 0.00891959 0)
(0.000813 0.00786577 0)
(0.000415573 0.0048949 0)
(0.000606728 0.00428459 0)
(0.000246873 0.00376031 0)
(0.00068622 0.00340266 0)
(-0.000109686 0.00469056 0)
(-0.000223 0.00620161 0)
(-0.000180978 0.00554863 0)
(-0.001121 0.00682072 0)
(0.000185772 0.00783976 0)
(-0.000440689 0.00873553 0)
(-0.000259296 0.00645777 0)
(-0.00107653 0.00415963 0)
(0.000940758 0.0129253 0)
(0.000111961 0.0107051 0)
(0.000586134 0.00344354 0)
(0.000653176 0.00526321 0)
(0.000847627 0.00504078 0)
(0.00105043 0.00297872 0)
(0.000270738 0.00242636 0)
(0.00199237 -0.00177862 0)
(-0.000317813 -0.000850917 0)
(-0.00326357 0.00145684 0)
(0.00392756 0.0016035 0)
(0.00182983 0.00129927 0)
(-0.000431481 0.00019615 0)
(-0.00103382 0.00142555 0)
(-0.00115188 0.00216381 0)
(-0.00335544 0.00223908 0)
(0.000431806 0.00369131 0)
(0.00189728 0.00347291 0)
(0.00181026 0.00273956 0)
(0.00157553 0.00192329 0)
(0.00273901 -0.000350277 0)
(0.0019877 -0.000749779 0)
(0.00168452 -0.00161118 0)
(0.00168039 -0.00317954 0)
(0.00140195 -0.00239609 0)
(0.00226403 -0.0022049 0)
(0.001122 -0.00242145 0)
(0.000219973 -0.00343025 0)
(-0.000160065 -0.00485464 0)
(-0.000624976 -0.00548533 0)
(-0.00121255 -0.00570885 0)
(-0.00140219 -0.00554181 0)
(-0.00142947 -0.00527629 0)
(-0.00128764 -0.00498559 0)
(-0.00112945 -0.00463345 0)
(-0.00100898 -0.0041959 0)
(-0.00116579 -0.00351405 0)
(-0.00162493 -0.00246732 0)
(-0.00193369 -0.00118861 0)
(-0.00185257 5.72118e-05 0)
(-0.000856576 0.000995812 0)
(0.00093168 0.000997231 0)
(0.00270414 -0.000222053 0)
(0.00389779 -0.00241215 0)
(0.00427964 -0.00457646 0)
(0.00331873 -0.00580572 0)
(0.00251596 -0.00722799 0)
(0.000340748 -0.00581665 0)
(-0.00136379 -0.00409993 0)
(-0.000105484 -0.00598317 0)
(-0.00103605 -0.00445671 0)
(0.00157998 -0.00351273 0)
(0.00204286 -0.00449044 0)
(6.24721e-05 -0.00341446 0)
(0.000603176 -0.00191139 0)
(-0.000600983 -0.00310214 0)
(-0.00477243 -0.00101556 0)
(0.00230301 -0.000443013 0)
(0.00110395 -0.00289316 0)
(-0.000744574 -0.00163801 0)
(0.000447813 -0.000278642 0)
(-0.000139692 2.68407e-05 0)
(0.00314149 -2.85882e-05 0)
(0.00181614 -0.000277833 0)
(0.00247011 -0.000413046 0)
(0.000918565 0.000180664 0)
(-6.77471e-05 0.000168522 0)
(-0.000652897 -0.000765775 0)
(-0.0016552 -0.000236081 0)
(-0.00313094 -0.00139921 0)
(-0.00138236 -0.00126366 0)
(-0.000856176 -0.00163094 0)
(0.000786344 -0.00328544 0)
(0.00228312 -0.00473927 0)
(0.00346729 -0.00348686 0)
(0.00438933 -0.0032719 0)
(-0.00368504 -0.00506642 0)
(-0.00126779 -0.00634787 0)
(-8.83704e-05 -0.00721178 0)
(0.000723981 -0.00704251 0)
(0.00325328 -0.00735278 0)
(0.00240917 -0.00441866 0)
(0.00220934 -0.00448645 0)
(-0.000136049 -0.0072957 0)
(-0.000219405 0.00226856 0)
(-0.0011158 0.000887897 0)
(-0.000715449 -0.00676901 0)
(-0.000719954 -0.00640434 0)
(2.20951e-05 -0.0068202 0)
(-0.00247577 -0.00817458 0)
(-0.0035188 -0.00675976 0)
(0.00219705 -0.00591432 0)
(0.00155701 -0.00954349 0)
(0.00211503 -0.0101612 0)
(0.00266703 -0.00918302 0)
(0.00198128 -0.00996954 0)
(0.00297377 -0.0100055 0)
(0.000796917 -0.00915263 0)
(0.000965666 -0.00862947 0)
(0.000871239 -0.00756966 0)
(0.00129475 -0.00712685 0)
(0.00140412 -0.00688754 0)
(0.00120284 -0.00729155 0)
(0.00076445 -0.0082178 0)
(-1.69102e-05 -0.0091691 0)
(-0.000720212 -0.00976612 0)
(-0.00100722 -0.00999678 0)
(-0.00121108 -0.009962 0)
(-0.00122396 -0.0100256 0)
(-0.00125307 -0.0100496 0)
(-0.00155778 -0.00982763 0)
(-0.00218646 -0.00915156 0)
(-0.00279641 -0.00838449 0)
(-0.00287495 -0.00787152 0)
(-0.00234262 -0.00751286 0)
(-0.000548999 -0.00759994 0)
(0.00264057 -0.00791194 0)
(0.00440466 -0.00826666 0)
(0.0048534 -0.0083852 0)
(0.00429091 -0.00761314 0)
(0.00274879 -0.00701455 0)
(0.0018781 -0.00792817 0)
(0.000152309 -0.00615118 0)
(-0.000206489 -0.00907373 0)
(-0.00203993 -0.00858891 0)
(-0.0034256 -0.00589967 0)
(0.00263064 -0.00298779 0)
(0.00128749 -0.00808371 0)
(0.000600691 -0.00810571 0)
(0.000513425 -0.00532894 0)
(-0.00100774 -0.00868347 0)
(-9.73759e-05 0.000574407 0)
(-0.00278782 0.00222916 0)
(-0.000769612 -0.00659877 0)
(-0.00123399 -0.00355322 0)
(-0.000615864 -0.00419609 0)
(0.000337698 -0.00360517 0)
(0.000141497 -0.00347096 0)
(0.00104629 -0.00594234 0)
(0.00197917 -0.0036461 0)
(0.00165556 -0.00299563 0)
(0.000809022 -0.00287602 0)
(-0.000635014 -0.00380654 0)
(3.81924e-05 -0.00647445 0)
(-0.000440044 -0.00736155 0)
(-0.000573191 -0.00832442 0)
(-0.00103365 -0.00883611 0)
(0.000765904 -0.00806588 0)
(0.00494343 -0.00845442 0)
(0.00430339 -0.00683286 0)
(0.0023241 -0.0052348 0)
(-0.000436245 -0.00518553 0)
(-0.000666017 -0.00681813 0)
(-0.000844306 -0.00751439 0)
(-0.000281531 -0.0073706 0)
(-0.000183679 -0.00800993 0)
(8.68572e-05 -0.00700874 0)
(-0.000131217 -0.00668229 0)
(0.00237711 -0.00584413 0)
(0.00497213 -0.00305085 0)
(-0.00253496 -0.00591519 0)
(0.000298589 -0.00775658 0)
(0.001401 -0.00907036 0)
(0.00182182 -0.0102755 0)
(0.00122175 -0.0092726 0)
(0.000813759 -0.00278223 0)
(-0.000141748 -0.00265135 0)
(0.00156719 -0.0111126 0)
(0.00146692 -0.010561 0)
(0.0017526 -0.00941181 0)
(0.000387644 -0.00843963 0)
(0.000789652 -0.00707521 0)
(0.000290934 -0.00672802 0)
(0.000322401 -0.00669399 0)
(0.000366778 -0.00657241 0)
(0.00108086 -0.00652547 0)
(0.00156674 -0.00655359 0)
(0.00172217 -0.00695486 0)
(0.00156703 -0.00764781 0)
(0.000934159 -0.00868979 0)
(-0.000197658 -0.00979526 0)
(-0.0010084 -0.0105115 0)
(-0.00123901 -0.0108982 0)
(-0.00107648 -0.0114338 0)
(-0.00116207 -0.0116149 0)
(-0.00174987 -0.0115164 0)
(-0.00264533 -0.010867 0)
(-0.00299042 -0.0104708 0)
(-0.00295271 -0.0102839 0)
(-0.00221999 -0.0103765 0)
(-0.000398915 -0.0110549 0)
(0.00209814 -0.0111253 0)
(0.00363467 -0.0104496 0)
(0.0039357 -0.00946235 0)
(0.00307996 -0.00789295 0)
(0.00208075 -0.00732495 0)
(0.00132592 -0.00815825 0)
(-0.000164286 -0.00647851 0)
(-0.000663802 -0.00795001 0)
(-0.00259615 -0.0106792 0)
(-0.000626493 0.000496891 0)
(0.000456164 0.000807799 0)
(-0.00141666 -0.00900858 0)
(0.000478588 -0.00772349 0)
(-0.00213621 -0.00729483 0)
(-0.00132272 -0.00608157 0)
(0.000729774 -0.00297804 0)
(-0.00656017 -0.000916994 0)
(-0.00373121 -0.00254017 0)
(0.000117953 -0.00428225 0)
(-5.83564e-05 -0.00378286 0)
(0.00201267 -0.00530602 0)
(0.0014115 -0.00426971 0)
(0.00045289 -0.00388651 0)
(0.00115569 -0.00608804 0)
(0.00126704 -0.00671607 0)
(0.00128191 -0.00787302 0)
(0.000946232 -0.00778659 0)
(0.000269182 -0.00691865 0)
(0.00188663 -0.00842566 0)
(1.88045e-05 -0.0103498 0)
(-0.000502993 -0.00881358 0)
(-0.00465371 -0.00301367 0)
(0.00355409 -0.00216791 0)
(0.00231563 -0.00510136 0)
(0.00198435 -0.00392547 0)
(0.00120273 -0.00354049 0)
(0.000392646 -0.00378715 0)
(0.00133759 -0.00541892 0)
(0.000742809 -0.00578269 0)
(0.00173401 -0.00745221 0)
(0.00126977 -0.00716052 0)
(0.000575113 -0.00794575 0)
(0.00156192 -0.00868612 0)
(0.00059812 -0.0087266 0)
(-0.000818763 -0.00889868 0)
(-0.000162936 -0.00760202 0)
(-0.00011737 -0.00698441 0)
(0.00134846 -0.00559654 0)
(0.00150138 -0.00545369 0)
(0.00372721 -0.00190166 0)
(-0.00557263 0.00164061 0)
(0.00304643 -0.003358 0)
(0.00099573 -0.00613318 0)
(0.00137848 -0.00551712 0)
(0.00107953 -0.00581372 0)
(0.000956604 -0.00497838 0)
(0.000433143 -0.00501696 0)
(0.000555848 -0.00511057 0)
(0.000725919 -0.00541651 0)
(0.0012685 -0.00571221 0)
(0.00180493 -0.00585741 0)
(0.00234325 -0.00617104 0)
(0.00238691 -0.0067552 0)
(0.00196894 -0.00762317 0)
(0.00110935 -0.0086839 0)
(0.000147564 -0.00996285 0)
(-0.000524215 -0.0111048 0)
(-0.000685038 -0.0117877 0)
(-0.00108186 -0.0119532 0)
(-0.00227026 -0.0115214 0)
(-0.00320987 -0.0109293 0)
(-0.00336957 -0.010649 0)
(-0.00305503 -0.0104104 0)
(-0.00181923 -0.0105999 0)
(6.69058e-05 -0.0111252 0)
(0.00171065 -0.0111051 0)
(0.00261467 -0.0102042 0)
(0.00261312 -0.00884959 0)
(0.00205147 -0.00764689 0)
(0.00159894 -0.0072321 0)
(0.00096951 -0.00815824 0)
(-0.000213478 -0.00676829 0)
(-0.000649546 -0.00920013 0)
(-0.000774888 -0.00647485 0)
(-0.00141936 -0.0019018 0)
(-0.00173841 -0.00259202 0)
(-0.000704321 -0.00658564 0)
(-0.000849777 -0.00574605 0)
(-0.000625855 -0.00329239 0)
(-0.000119591 -0.00304538 0)
(-0.0015762 -0.00405349 0)
(-0.00229247 -0.00322817 0)
(-0.00671904 -0.00190091 0)
(0.000739216 -0.00273297 0)
(0.00046976 -0.0061844 0)
(0.00104876 -0.0051317 0)
(0.00160136 -0.00698852 0)
(0.000933942 -0.0091181 0)
(0.00164819 -0.00743402 0)
(0.00166067 -0.00846152 0)
(0.00184739 -0.00942074 0)
(0.00202084 -0.00995535 0)
(0.00158203 -0.00932679 0)
(0.000161675 -0.00952936 0)
(-0.000182488 -0.00945622 0)
(0.000381131 -0.0100849 0)
(-0.000348686 -0.00036698 0)
(-0.00160085 0.000221055 0)
(0.000553393 -0.00787861 0)
(0.000883357 -0.0044161 0)
(0.00207682 -0.00473257 0)
(0.000837246 -0.004545 0)
(0.000620614 -0.00544896 0)
(0.00135525 -0.00596884 0)
(0.00203863 -0.00767602 0)
(0.00275463 -0.00784641 0)
(0.0017444 -0.00722034 0)
(0.00143648 -0.00743638 0)
(-0.000747364 -0.00758454 0)
(3.92923e-05 -0.00846671 0)
(-0.000530945 -0.00844673 0)
(-0.000371985 -0.00901079 0)
(-7.58061e-05 -0.00953024 0)
(0.0011204 -0.00925241 0)
(0.00266031 -0.00900295 0)
(-0.000503097 0.00127231 0)
(0.00105458 0.00136952 0)
(0.000799722 -0.00776731 0)
(0.000980912 -0.00544894 0)
(0.000799111 -0.00546135 0)
(0.000595947 -0.00471298 0)
(0.00048067 -0.00466969 0)
(0.000725742 -0.00460587 0)
(0.000943945 -0.00492562 0)
(0.00139995 -0.00503606 0)
(0.00205146 -0.00545648 0)
(0.00280416 -0.00569447 0)
(0.00299375 -0.00590775 0)
(0.00276873 -0.00638679 0)
(0.00212616 -0.00696274 0)
(0.00135202 -0.00777401 0)
(0.000566687 -0.0088041 0)
(-0.000214264 -0.0097361 0)
(-0.00136285 -0.0100398 0)
(-0.00296426 -0.00958408 0)
(-0.00353433 -0.00930048 0)
(-0.00357083 -0.00924269 0)
(-0.00300891 -0.00938121 0)
(-0.00154596 -0.00982794 0)
(0.000135373 -0.0101741 0)
(0.00119037 -0.00997789 0)
(0.00162267 -0.00921168 0)
(0.00166784 -0.00823637 0)
(0.00145443 -0.00744209 0)
(0.0011564 -0.00713687 0)
(0.000707284 -0.00822671 0)
(-0.000173559 -0.0069268 0)
(-0.00177481 -0.012484 0)
(-0.0013768 -0.0109605 0)
(-0.0026583 -0.000584674 0)
(-0.0029166 -0.000408664 0)
(-0.0026158 -0.009494 0)
(-0.00133102 -0.00762483 0)
(-0.00173386 -0.00535724 0)
(-0.0034493 -0.00529345 0)
(-0.0054404 -0.00494764 0)
(0.00113122 -0.00740121 0)
(-0.00088944 -0.00202157 0)
(-0.00221193 -0.00120832 0)
(0.00227083 -0.0105503 0)
(0.00254143 -0.0131488 0)
(0.00208071 -0.0135308 0)
(0.00321465 -0.0109787 0)
(0.00128537 -0.0117383 0)
(0.00166741 -0.0115758 0)
(0.00185597 -0.0104149 0)
(0.00196459 -0.00981145 0)
(0.00182478 -0.00970036 0)
(0.000188951 -0.00983397 0)
(0.00111925 -0.00958521 0)
(-0.000302848 -0.00948842 0)
(0.00159508 -0.00601262 0)
(-0.00685306 -0.00338528 0)
(-0.00099366 -0.00419316 0)
(0.00119169 -0.00540516 0)
(0.00161194 -0.00627576 0)
(0.000930842 -0.00906766 0)
(0.00267562 -0.00820627 0)
(0.00200558 -0.00613318 0)
(0.00172973 -0.00638599 0)
(0.00165412 -0.00670197 0)
(0.00151842 -0.00760259 0)
(0.0019644 -0.00824377 0)
(0.000557269 -0.00815613 0)
(0.000859267 -0.00861882 0)
(0.0010011 -0.0113035 0)
(0.00101137 -0.0121918 0)
(0.000913664 -0.0116895 0)
(0.000136832 -0.0115218 0)
(3.63985e-05 -0.0119977 0)
(0.00351273 -0.00708451 0)
(-0.00419329 -0.00666552 0)
(-0.00128753 -0.00931804 0)
(-0.00059592 -0.00831553 0)
(0.00029435 -0.00844697 0)
(0.000407586 -0.00747768 0)
(0.000540266 -0.00718585 0)
(0.000810581 -0.00677569 0)
(0.00130395 -0.00678221 0)
(0.00188988 -0.00653627 0)
(0.00249827 -0.00647687 0)
(0.00298667 -0.0061714 0)
(0.00309655 -0.00608713 0)
(0.002987 -0.00606339 0)
(0.00257039 -0.00606008 0)
(0.00205481 -0.00624114 0)
(0.00145509 -0.00669735 0)
(0.000525628 -0.00717397 0)
(-0.00105795 -0.00747853 0)
(-0.00282289 -0.00759832 0)
(-0.00334673 -0.0077745 0)
(-0.00331144 -0.00808068 0)
(-0.00254541 -0.0085417 0)
(-0.00115377 -0.00909145 0)
(6.26695e-05 -0.00935351 0)
(0.000710445 -0.0090724 0)
(0.00104366 -0.00853752 0)
(0.00115303 -0.00794031 0)
(0.00105177 -0.00737428 0)
(0.000871233 -0.00714708 0)
(0.000548156 -0.00835059 0)
(-0.000135503 -0.00702804 0)
(-0.00248898 -0.0101625 0)
(-0.000740668 -0.00958169 0)
(0.000404339 -0.00540486 0)
(-0.00597964 -0.00434304 0)
(-0.00434167 -0.00803143 0)
(-0.00178734 -0.00839746 0)
(-0.00129767 -0.00944163 0)
(-0.000359413 -0.0114702 0)
(0.00118493 -0.0058652 0)
(0.00151616 -0.00552971 0)
(0.00288133 -0.0136218 0)
(-0.00654601 -0.01204 0)
(0.00245556 -0.0143707 0)
(0.000963965 -0.0182033 0)
(0.00053731 -0.0167412 0)
(0.000585177 -0.0162902 0)
(0.000714528 -0.0130111 0)
(0.000853206 -0.010433 0)
(0.000282097 -0.0111649 0)
(0.00184223 -0.0111239 0)
(0.0014023 -0.010431 0)
(0.000878814 -0.00890748 0)
(-0.000352504 -0.00850291 0)
(-0.00073363 -0.00959295 0)
(-0.00080732 -0.00845505 0)
(-0.0059745 -0.00516161 0)
(-0.000811976 -0.003718 0)
(0.0044611 -0.00750321 0)
(0.0013758 -0.0105529 0)
(0.000788872 -0.008105 0)
(0.00207773 -0.00783351 0)
(0.00164094 -0.00868636 0)
(0.00212459 -0.00804634 0)
(0.000894362 -0.00813508 0)
(0.00178098 -0.00616019 0)
(0.00231638 -0.006866 0)
(0.00219837 -0.00742225 0)
(0.00111956 -0.00760598 0)
(0.000571235 -0.0092287 0)
(0.000631374 -0.0107909 0)
(0.00214688 -0.0118437 0)
(0.000443558 -0.0113236 0)
(0.000963883 -0.0097762 0)
(0.000809221 -0.0112496 0)
(-0.00202947 -0.012561 0)
(-0.00112652 -0.0126058 0)
(-0.00102331 -0.0124494 0)
(-0.00048336 -0.0118537 0)
(-0.000467925 -0.011291 0)
(-5.3689e-05 -0.010902 0)
(0.000191598 -0.0106671 0)
(0.000573948 -0.0104416 0)
(0.00113599 -0.00984616 0)
(0.00159089 -0.0092295 0)
(0.00230833 -0.00821209 0)
(0.00283907 -0.00731163 0)
(0.00278385 -0.00657971 0)
(0.00237113 -0.00608743 0)
(0.00199626 -0.00577678 0)
(0.00150873 -0.00581989 0)
(0.000571792 -0.00596458 0)
(-0.000927255 -0.00629088 0)
(-0.0024996 -0.0068026 0)
(-0.00299734 -0.0072735 0)
(-0.00285614 -0.00773189 0)
(-0.00198713 -0.00816512 0)
(-0.000746271 -0.00856372 0)
(-5.53846e-07 -0.00867855 0)
(0.000405383 -0.0084896 0)
(0.000721857 -0.0081642 0)
(0.000855185 -0.00775675 0)
(0.000782069 -0.00732976 0)
(0.00066063 -0.00716075 0)
(0.000423324 -0.00844818 0)
(-0.000103407 -0.00710676 0)
(-0.000850523 -0.0107957 0)
(-0.00162149 -0.0126925 0)
(-0.000934592 -0.0129092 0)
(-0.00370316 -0.0136461 0)
(-0.00403518 -0.0144343 0)
(-0.00619782 -0.0124414 0)
(0.00208173 -0.0134982 0)
(0.0020603 -0.0122254 0)
(0.00624999 -0.00999678 0)
(-0.000345167 -0.0138309 0)
(0.00135361 -0.0185887 0)
(0.000207688 -0.00927347 0)
(-0.000700739 -0.008736 0)
(-0.000704762 -0.0196717 0)
(-0.00168411 -0.0166616 0)
(-0.000757278 -0.0125952 0)
(0.00163261 -0.013359 0)
(-0.000176334 -0.0132731 0)
(0.001301 -0.0105459 0)
(0.000958836 -0.00968943 0)
(0.000456961 -0.0105501 0)
(0.00126095 -0.0110461 0)
(0.000363939 -0.0118941 0)
(-0.000848472 -0.0120579 0)
(0.000240491 -0.0147398 0)
(-0.000643144 -0.00794986 0)
(-0.00141092 0.000984934 0)
(-0.00285953 -0.00743205 0)
(-0.000538384 -0.0132243 0)
(0.000279023 -0.0104999 0)
(0.000807254 -0.00963694 0)
(0.000869679 -0.00922779 0)
(0.00144562 -0.0102418 0)
(0.00410028 -0.00970295 0)
(0.00259861 -0.00666803 0)
(0.00229965 -0.00744671 0)
(0.00106467 -0.00728333 0)
(0.00265608 -0.00618069 0)
(0.00120556 -0.0074486 0)
(0.000489188 -0.00743914 0)
(0.00230334 -0.00770617 0)
(0.00178901 -0.008521 0)
(0.000474298 -0.00732654 0)
(0.000423325 -0.00596604 0)
(-0.000893964 -0.00626259 0)
(-0.000945658 -0.00821891 0)
(-0.00171866 -0.00789165 0)
(-0.000823315 -0.00811126 0)
(-0.000516874 -0.00810679 0)
(-7.70544e-05 -0.0080795 0)
(0.000309601 -0.00848286 0)
(0.000677375 -0.00905624 0)
(0.000929084 -0.0092275 0)
(0.00108696 -0.00924179 0)
(0.00134436 -0.00882524 0)
(0.00156227 -0.00798884 0)
(0.00170958 -0.00687551 0)
(0.00173425 -0.00581006 0)
(0.00171413 -0.00520097 0)
(0.00156095 -0.00498325 0)
(0.00089636 -0.00504876 0)
(-0.000292895 -0.00558476 0)
(-0.00188145 -0.00654781 0)
(-0.00252826 -0.00707561 0)
(-0.00250383 -0.00739649 0)
(-0.00175281 -0.00777266 0)
(-0.000647249 -0.00811567 0)
(-0.000110036 -0.00826318 0)
(0.000184224 -0.00823915 0)
(0.000482945 -0.00801767 0)
(0.000612965 -0.00768333 0)
(0.000565993 -0.00733013 0)
(0.000488311 -0.00719137 0)
(0.000319088 -0.00852836 0)
(-7.4663e-05 -0.00716643 0)
(-0.000835234 -0.0116355 0)
(0.00103537 -0.0135989 0)
(0.000806068 -0.0140344 0)
(-0.00185104 -0.0166766 0)
(-0.000940519 -0.019975 0)
(-0.00242172 -0.0123405 0)
(-0.000470448 -0.0114079 0)
(-0.000177149 -0.0162968 0)
(0.00130573 -0.014412 0)
(0.000854968 -0.0148703 0)
(0.00381459 -0.0134608 0)
(0.00442771 -0.00967994 0)
(-0.00689947 -0.0108195 0)
(-0.00208577 -0.014478 0)
(-0.00053699 -0.014292 0)
(-0.000114469 -0.0129272 0)
(-0.00165005 -0.0131555 0)
(-0.000507896 -0.0116485 0)
(-0.000899936 -0.0107812 0)
(-0.00023659 -0.012655 0)
(0.000716976 -0.0102327 0)
(0.0015664 -0.00872816 0)
(0.000845298 -0.0105161 0)
(0.00136728 -0.01028 0)
(0.00120439 -0.00860654 0)
(0.00411649 -0.00862523 0)
(-0.00292956 -0.00702068 0)
(-0.00852845 -0.00673664 0)
(0.000320961 -0.00858106 0)
(0.00114079 -0.00994242 0)
(-0.000216641 -0.0102171 0)
(0.000283621 -0.0118859 0)
(0.00158259 -0.00813408 0)
(0.0023895 -0.00900416 0)
(0.00121507 -0.00960074 0)
(0.000439455 -0.00800683 0)
(0.000883903 -0.00498772 0)
(0.00288354 -0.0047689 0)
(0.00105968 -0.00700636 0)
(0.000727072 -0.00430147 0)
(0.0018228 -0.00430851 0)
(0.000436502 -0.00668031 0)
(0.0005434 -0.00362891 0)
(0.00103016 -0.00312869 0)
(-0.000873832 -0.00561988 0)
(-0.00106231 -0.00675964 0)
(-0.00112185 -0.00745825 0)
(-0.000687244 -0.00776878 0)
(-8.59626e-05 -0.00847324 0)
(0.000563233 -0.00848212 0)
(0.00108288 -0.00872683 0)
(0.00123174 -0.00881108 0)
(0.00122354 -0.00876301 0)
(0.00111286 -0.00848208 0)
(0.000953516 -0.00797086 0)
(0.000737311 -0.00712889 0)
(0.000601207 -0.00596997 0)
(0.00073661 -0.00472649 0)
(0.00112763 -0.00369488 0)
(0.00140539 -0.00322976 0)
(0.00118505 -0.00302791 0)
(0.000477876 -0.00330252 0)
(-0.000826112 -0.00412183 0)
(-0.00202499 -0.00513263 0)
(-0.00215929 -0.0060348 0)
(-0.00131024 -0.00692002 0)
(-0.000319731 -0.00751733 0)
(3.85024e-05 -0.0077533 0)
(0.000162264 -0.00791466 0)
(0.00036092 -0.00787591 0)
(0.000477332 -0.00759467 0)
(0.000416316 -0.00730788 0)
(0.000358344 -0.00720002 0)
(0.000235588 -0.00858403 0)
(-5.44195e-05 -0.00721315 0)
(0.000208402 -0.00879521 0)
(0.000613442 -0.00891508 0)
(0.000769948 -0.0114931 0)
(-0.000473309 -0.0125261 0)
(-0.000109107 -0.0136347 0)
(0.00196877 -0.0150254 0)
(-0.00645449 -0.0160906 0)
(-0.00563195 -0.0157461 0)
(0.00147451 -0.0139458 0)
(0.000569743 -0.0144408 0)
(9.44939e-05 -0.0140496 0)
(0.00182584 -0.015129 0)
(0.000196126 -0.011465 0)
(-0.000127793 -0.0120822 0)
(-2.55917e-05 -0.0155926 0)
(-0.000460994 -0.0145359 0)
(-0.00143039 -0.0147747 0)
(-0.000598173 -0.0140182 0)
(-0.000778262 -0.0116468 0)
(-0.000856253 -0.00972068 0)
(0.00288872 -0.00971623 0)
(0.00138744 -0.00979533 0)
(-0.000328599 -0.00911796 0)
(0.000918782 -0.00761769 0)
(5.00784e-05 -0.00588354 0)
(0.00144038 -0.00438992 0)
(0.000603628 -0.0047397 0)
(-0.00170677 0.00116939 0)
(-0.00233887 -0.00145707 0)
(-0.000309413 -0.0110903 0)
(-0.00165005 -0.0120992 0)
(0.000548044 -0.0106291 0)
(0.0010964 -0.0111173 0)
(0.00042726 -0.0116236 0)
(0.00095024 -0.00948784 0)
(-0.000253776 -0.00826774 0)
(0.00221243 -0.00593203 0)
(-0.000932531 -0.00547614 0)
(-0.000122505 -0.00836021 0)
(0.00115562 -0.00395915 0)
(0.00227843 -0.00419075 0)
(0.00188785 -0.00449845 0)
(0.0012545 -0.001954 0)
(0.000836904 -0.0023027 0)
(-0.000627909 -0.00313609 0)
(0.000978171 -0.00415495 0)
(0.000131272 -0.00673859 0)
(-0.000245261 -0.00780227 0)
(0.00033726 -0.00871616 0)
(0.00048081 -0.00957207 0)
(0.000767067 -0.00963095 0)
(0.000730255 -0.00933101 0)
(0.000644461 -0.0091483 0)
(0.000399386 -0.00869893 0)
(2.47811e-05 -0.00765571 0)
(-0.000493474 -0.00662198 0)
(-0.000600275 -0.00540277 0)
(-0.000465912 -0.00433259 0)
(6.13341e-05 -0.003379 0)
(0.000834185 -0.00250367 0)
(0.00105684 -0.0021195 0)
(0.000873764 -0.00211684 0)
(0.000225155 -0.00256806 0)
(-0.000512943 -0.00373612 0)
(-0.000746225 -0.00534475 0)
(-0.000313803 -0.00690878 0)
(0.000111927 -0.0075282 0)
(0.000262474 -0.00775104 0)
(0.000257601 -0.00787406 0)
(0.000286249 -0.00787777 0)
(0.000311318 -0.00758374 0)
(0.000288655 -0.00731064 0)
(0.000254249 -0.0072148 0)
(0.000169003 -0.00863002 0)
(-3.69834e-05 -0.00724797 0)
(0.00357188 -0.00753092 0)
(0.00241416 -0.00627066 0)
(0.00251748 -0.00647039 0)
(0.00346856 -0.00702172 0)
(0.00248332 -0.00554788 0)
(0.00232008 -0.00641863 0)
(-3.62078e-05 -0.00793502 0)
(-0.000709558 -0.00111436 0)
(-0.00117233 -0.00289785 0)
(-0.0017392 -0.0128892 0)
(5.44941e-05 -0.0108937 0)
(0.000634392 -0.00962161 0)
(0.000953755 -0.0102268 0)
(-0.00242966 -0.0102703 0)
(-0.00200923 -0.00916696 0)
(-0.00268843 -0.00858054 0)
(-0.00223981 -0.0097843 0)
(-0.00248801 -0.0083401 0)
(-0.00313794 -0.00995772 0)
(-0.0019376 -0.00991032 0)
(0.000642933 -0.00903783 0)
(-0.000364649 -0.0118725 0)
(-0.000940997 -0.00958133 0)
(-0.00213548 -0.00660689 0)
(-0.00347059 -0.00379235 0)
(0.000820974 -0.0017206 0)
(0.00530063 -0.00267315 0)
(0.00249026 -0.0028669 0)
(-0.00634302 -0.00203651 0)
(0.00145785 -0.00462754 0)
(0.000942859 -0.00789389 0)
(0.00105971 -0.00900009 0)
(-0.000432999 -0.00978276 0)
(0.000476574 -0.0109859 0)
(8.64029e-05 -0.0101956 0)
(-0.000162313 -0.0076549 0)
(0.00125802 -0.00709733 0)
(-0.00136316 -0.00755507 0)
(-0.000454996 -0.00719636 0)
(0.00034431 -0.00496992 0)
(-0.000617913 -0.00559267 0)
(-0.000888146 -0.00757602 0)
(0.000624625 -0.00530028 0)
(-8.55225e-05 -0.00651745 0)
(0.000554944 -0.00844388 0)
(0.000465253 -0.0086512 0)
(0.0020431 -0.0113139 0)
(0.00193622 -0.0107933 0)
(0.00151715 -0.0113666 0)
(0.00113219 -0.0108542 0)
(0.00118972 -0.0106172 0)
(0.000853989 -0.0103045 0)
(0.000401446 -0.00941401 0)
(-0.000320992 -0.0083843 0)
(-0.00103861 -0.00722069 0)
(-0.00153438 -0.00597388 0)
(-0.00163401 -0.0046059 0)
(-0.00130044 -0.00387181 0)
(-0.000620762 -0.00311555 0)
(0.000115046 -0.00262869 0)
(0.000678975 -0.00251138 0)
(0.00086736 -0.00284134 0)
(0.000797401 -0.00353409 0)
(0.000774577 -0.00473066 0)
(0.000854415 -0.00624036 0)
(0.000784783 -0.0071839 0)
(0.00057737 -0.00755145 0)
(0.000387224 -0.00770055 0)
(0.000281717 -0.00780237 0)
(0.000230388 -0.00779187 0)
(0.000179642 -0.00751218 0)
(0.000188853 -0.00728934 0)
(0.000163112 -0.00722501 0)
(0.000118895 -0.00866319 0)
(-2.35875e-05 -0.00727351 0)
(0.000526358 -0.00479387 0)
(0.000347531 -0.0011716 0)
(0.00144648 0.00106035 0)
(0.00144294 0.00249628 0)
(0.000106823 0.00364155 0)
(2.96105e-07 0.00436212 0)
(0.000935587 0.00528416 0)
(0.00175784 0.00884845 0)
(-0.00333456 0.00939993 0)
(-0.00276343 0.00833065 0)
(0.00403921 0.00790601 0)
(0.000454411 0.0047029 0)
(-0.000805854 0.00416204 0)
(4.83283e-05 0.00343992 0)
(0.000129283 0.00114767 0)
(0.000145896 -8.46962e-05 0)
(-3.74859e-05 -0.00285069 0)
(-0.00123009 -0.00611163 0)
(-0.00490194 -0.00732026 0)
(0.00348125 -0.00668575 0)
(0.000516147 -0.0115818 0)
(0.000284367 -0.0139252 0)
(-0.000261428 -0.0128992 0)
(-0.000870147 -0.0121016 0)
(0.000489959 -0.00429113 0)
(0.000328599 0.00282451 0)
(-0.0009463 -0.00358502 0)
(-0.00237917 -0.00974214 0)
(0.00190514 6.6219e-05 0)
(-0.000228105 -1.44697e-05 0)
(0.000492361 -0.00989404 0)
(0.00107318 -0.00862146 0)
(0.000972977 -0.0101661 0)
(8.04355e-05 -0.0105944 0)
(-0.000485463 -0.00874409 0)
(0.000160986 -0.00645076 0)
(-0.00163086 -0.00513748 0)
(-0.000839633 -0.0053767 0)
(0.00103187 -0.00406808 0)
(0.0014247 -0.00201279 0)
(0.000599442 -0.00372977 0)
(0.000178756 -0.00380548 0)
(0.00295935 -0.0049686 0)
(0.0012721 -0.0100416 0)
(0.00167296 -0.0108004 0)
(0.00107199 -0.0104831 0)
(0.00146062 -0.0113531 0)
(0.000227096 -0.013255 0)
(0.00018144 -0.0122837 0)
(0.000240766 -0.011702 0)
(5.31249e-05 -0.0110081 0)
(-0.000417703 -0.010395 0)
(-0.00109336 -0.00894351 0)
(-0.00205332 -0.00816965 0)
(-0.00262011 -0.00718168 0)
(-0.00295517 -0.00650473 0)
(-0.00292684 -0.00559578 0)
(-0.00223584 -0.00500272 0)
(-0.00117075 -0.00436658 0)
(0.000146559 -0.00407468 0)
(0.00136125 -0.00409757 0)
(0.001943 -0.00491695 0)
(0.00219089 -0.00595325 0)
(0.00212394 -0.00703417 0)
(0.00154758 -0.00769061 0)
(0.000898368 -0.00780467 0)
(0.000595844 -0.0077333 0)
(0.000434286 -0.00771182 0)
(0.000280556 -0.00777389 0)
(0.000149583 -0.00774146 0)
(0.000107921 -0.00750074 0)
(0.000109965 -0.00727884 0)
(8.27115e-05 -0.00723655 0)
(7.67626e-05 -0.00869297 0)
(-1.48224e-05 -0.00729105 0)
(-0.00107414 -0.00889289 0)
(-0.00447856 -0.00534742 0)
(0.00230215 -0.00595011 0)
(-0.000262078 -0.00847895 0)
(0.00016748 -0.0055523 0)
(-0.000320788 -0.00562968 0)
(-0.000519378 -0.00760572 0)
(-0.00192486 -0.00315904 0)
(0.00263453 -0.00467873 0)
(5.90604e-05 5.25337e-05 0)
(-0.000434525 -0.00127268 0)
(-0.000498483 -0.00886655 0)
(0.00117602 -0.00703997 0)
(0.000769248 -0.00668834 0)
(0.00233102 -0.00586545 0)
(0.00179088 -0.00586498 0)
(0.00176422 -0.00715618 0)
(0.00308692 -0.010722 0)
(0.00243753 -0.00516629 0)
(0.00345168 -0.00492414 0)
(-3.63253e-05 -0.01386 0)
(-0.00124274 -0.0141305 0)
(-0.00184912 -0.0106726 0)
(-0.00386338 -0.00658989 0)
(0.00595554 -0.0053101 0)
(0.000662762 -0.0058828 0)
(-0.00290763 -0.0070321 0)
(-0.00108897 -0.00102589 0)
(0.00163564 -5.43266e-05 0)
(-0.00645737 -0.00595025 0)
(0.00185502 -0.00633647 0)
(4.36901e-05 -0.00811711 0)
(-0.00167559 -0.00817392 0)
(0.00017668 -0.00885425 0)
(-0.0010566 -0.00785172 0)
(-0.0015575 -0.00745427 0)
(-0.00481728 -0.00845346 0)
(-0.00333523 -0.00714453 0)
(-0.0025444 -0.00578734 0)
(0.000811729 -0.00426174 0)
(0.000586087 -0.00380889 0)
(0.00230867 -0.00337005 0)
(0.00228777 -0.00158512 0)
(0.00480432 -0.00391265 0)
(0.00445281 -0.00296483 0)
(0.00360603 -0.00322961 0)
(0.00123158 -0.00484591 0)
(0.000980797 -0.00524816 0)
(0.000413555 -0.00589758 0)
(0.000422941 -0.00634139 0)
(-0.000429258 -0.00650612 0)
(-0.00083865 -0.00651797 0)
(-0.00153901 -0.00651807 0)
(-0.00204352 -0.00698675 0)
(-0.00264524 -0.00756953 0)
(-0.00291321 -0.00818296 0)
(-0.00291923 -0.00840899 0)
(-0.00249877 -0.00853204 0)
(-0.00167544 -0.00829862 0)
(-0.000180868 -0.00795764 0)
(0.00171584 -0.00756232 0)
(0.00261348 -0.00772635 0)
(0.00277798 -0.00792631 0)
(0.00252118 -0.00810345 0)
(0.00161154 -0.0080648 0)
(0.000805892 -0.00789015 0)
(0.000539178 -0.00775414 0)
(0.000414709 -0.00768377 0)
(0.000276445 -0.00771184 0)
(0.000118825 -0.00767188 0)
(4.17941e-05 -0.00744728 0)
(4.87694e-05 -0.00722937 0)
(2.58007e-05 -0.00722794 0)
(4.47808e-05 -0.00870498 0)
(-6.09806e-06 -0.0073035 0)
(0.00173491 -0.0109359 0)
(0.000587171 -0.00187228 0)
(0.000640568 -0.00160967 0)
(0.000145922 -0.00944244 0)
(-0.000170401 -0.0101456 0)
(7.26196e-05 -0.0134483 0)
(0.001991 -0.0150071 0)
(0.000420484 -0.00510644 0)
(0.00132908 -0.00418957 0)
(0.00347154 -0.00963074 0)
(-0.00269091 -0.00851652 0)
(-0.00101615 -0.0109095 0)
(-0.00148979 -0.0101842 0)
(-0.0012204 -0.00897495 0)
(0.0020226 -0.0086566 0)
(0.000591038 -0.00879086 0)
(0.00318358 -0.00626749 0)
(0.00419055 -0.00615317 0)
(0.00487231 -0.00346343 0)
(-0.00158498 -0.00209372 0)
(-0.00205767 -0.00641753 0)