/*--------------------------------*- C++ -*----------------------------------*\
  =========                 |
  \\      /  F ield         | OpenFOAM: The Open Source CFD Toolbox
   \\    /   O peration     | Website:  https://openfoam.org
    \\  /    A nd           | Version:  12
     \\/     M anipulation  |
\*---------------------------------------------------------------------------*/
FoamFile
{
    format      ascii;
    class       volVectorField;
    location    "0.6";
    object      U.water;
}
// * * * * * * * * * * * * * * * * * * * * * * * * * * * * * * * * * * * * * //

dimensions      [0 1 -1 0 0 0 0];

internalField   nonuniform List<vector> 
3750
(
(0.00367482 0.0235703 0)
(-0.00330372 0.0221961 0)
(-0.00129429 0.0107277 0)
(3.61662e-05 0.0125948 0)
(0.00019872 0.0113527 0)
(-0.000556598 0.0115528 0)
(-0.000304929 0.0123359 0)
(0.000387195 0.0128272 0)
(0.000749576 0.0130931 0)
(0.0009256 0.0130639 0)
(-0.000544674 0.012608 0)
(0.000125693 0.0118273 0)
(-0.000276525 0.0101443 0)
(-0.000619021 0.0103773 0)
(-0.000596165 0.011141 0)
(-0.000233046 0.0111185 0)
(-0.000597873 0.0103344 0)
(0.000761297 0.0106335 0)
(0.000412957 0.0105978 0)
(0.000236213 0.0092881 0)
(0.000676161 0.00883421 0)
(0.000228595 0.00936525 0)
(-0.000586787 0.00872353 0)
(0.00018498 0.00918483 0)
(-1.38935e-05 0.0096 0)
(0.00031144 0.00900888 0)
(-0.000724353 0.00933335 0)
(-0.00128284 0.00940836 0)
(-0.000301299 0.0107801 0)
(0.00137779 0.0110826 0)
(0.000570943 0.0102722 0)
(-0.000119829 0.0086854 0)
(-0.000905707 0.0096228 0)
(-0.00199176 0.010643 0)
(-0.00107996 0.00952103 0)
(1.64362e-05 0.00874655 0)
(0.000869409 0.00605797 0)
(0.00538017 0.0162816 0)
(-0.00354633 0.0165527 0)
(-0.000823301 0.00275092 0)
(-0.00129215 0.00489956 0)
(-0.00214343 0.0100577 0)
(0.00303396 0.00965105 0)
(0.00297786 0.00523169 0)
(0.00453341 0.0160339 0)
(-0.0027683 0.0147017 0)
(-0.000780163 0.00202358 0)
(0.000254901 9.37584e-05 0)
(0.000337753 -0.000661415 0)
(0.00420074 0.0105571 0)
(-0.00350571 0.00963189 0)
(-0.00116869 -0.0041698 0)
(0.000586883 -0.00281745 0)
(-0.000795747 -0.00243907 0)
(-0.00108616 -0.00404096 0)
(-0.00107688 -0.00335811 0)
(-0.00079939 -0.00179232 0)
(-0.000743032 -0.000549176 0)
(-0.000353214 0.000352985 0)
(-0.000409385 0.00125581 0)
(-0.00046086 0.00226686 0)
(-0.000457135 0.00309707 0)
(-0.000466137 0.00398883 0)
(-0.000431767 0.00464406 0)
(-0.000403356 0.00560542 0)
(-0.000307705 0.00664446 0)
(-0.000193507 0.00769687 0)
(0.000128582 0.00849593 0)
(0.00068563 0.0083091 0)
(0.000875636 0.00698629 0)
(0.000828126 0.00446488 0)
(0.000764996 0.00225747 0)
(0.00132985 -0.000325743 0)
(0.00119655 -0.00353217 0)
(0.000616591 -0.0040101 0)
(0.00508978 0.00943024 0)
(-0.00486021 0.00919401 0)
(-0.00262394 0.00730167 0)
(-0.000302595 0.00738011 0)
(-0.00017076 0.00457884 0)
(0.000269272 0.00535659 0)
(-0.00162606 0.00796037 0)
(-0.00316189 0.0103516 0)
(0.00217824 0.0110834 0)
(0.000958927 0.00939793 0)
(-0.000306023 0.0100816 0)
(0.000809927 0.0112736 0)
(0.00127759 0.0100201 0)
(0.00173203 0.00998086 0)
(0.000560096 0.00997177 0)
(0.000296978 0.00563828 0)
(0.000873531 0.00531632 0)
(0.000132059 0.0051827 0)
(0.000602171 0.00370637 0)
(-8.14182e-06 0.00511697 0)
(0.000123267 0.0064011 0)
(0.000404656 0.00559191 0)
(-0.000347037 0.00728226 0)
(0.000334301 0.00860649 0)
(-0.00100139 0.00825043 0)
(-0.00128538 0.00655836 0)
(-0.00276891 0.00428507 0)
(-0.0016269 0.00549424 0)
(-0.00485388 0.00840767 0)
(0.0053936 0.00898638 0)
(0.0025699 0.00748543 0)
(0.00134996 0.00645217 0)
(0.00119397 0.00401982 0)
(0.000965831 0.00314139 0)
(0.00328721 -0.000877466 0)
(0.00228203 -0.00125012 0)
(0.0016899 -0.00135596 0)
(0.00694392 0.00210932 0)
(-0.00394809 0.0039888 0)
(-0.00165906 8.1042e-05 0)
(-0.000569599 -0.00187687 0)
(0.000442265 0.00769376 0)
(-0.00142883 0.00804573 0)
(0.00158556 -0.000345047 0)
(0.00586905 0.00450491 0)
(-0.00420248 0.00529531 0)
(8.53158e-05 0.00171857 0)
(0.00254924 -0.000898966 0)
(0.00351353 -0.000721285 0)
(0.00648092 0.00193866 0)
(-0.0034328 0.00082857 0)
(-0.00079019 -0.00176386 0)
(0.00107365 -0.00210489 0)
(0.000278236 -0.00242578 0)
(2.57663e-05 -0.00330471 0)
(-0.000363482 -0.00448224 0)
(-0.000807746 -0.00505962 0)
(-0.00132378 -0.00523738 0)
(-0.00147406 -0.00502501 0)
(-0.00147953 -0.00472205 0)
(-0.00132389 -0.00440293 0)
(-0.00115639 -0.00402971 0)
(-0.00103096 -0.0035754 0)
(-0.00118536 -0.00287931 0)
(-0.00164125 -0.00182044 0)
(-0.00194557 -0.000531729 0)
(-0.00185968 0.000728308 0)
(-0.000859179 0.00167456 0)
(0.000929586 0.00165417 0)
(0.00269749 0.000431286 0)
(0.00388282 -0.00174014 0)
(0.00424591 -0.00391466 0)
(0.00333486 -0.00511883 0)
(0.00251204 -0.00650034 0)
(0.000348789 -0.00515028 0)
(0.000619741 -0.00269481 0)
(-0.000492044 -0.00446111 0)
(-0.000897709 -0.00407907 0)
(-0.000472321 -0.00389961 0)
(0.000300587 -0.00524784 0)
(-0.000980949 -0.00429942 0)
(0.000184953 -0.00478041 0)
(0.000186441 0.0032882 0)
(-0.00257751 0.00290906 0)
(-0.000746332 -0.00595277 0)
(-0.00142373 -0.00278017 0)
(-0.00029938 -0.000466895 0)
(0.000902877 0.000227932 0)
(3.22292e-05 0.000673678 0)
(0.00297726 0.0012151 0)
(0.000756295 0.00138124 0)
(0.00282765 0.00127134 0)
(0.000695593 0.00116399 0)
(0.000231819 0.000593714 0)
(-0.00047702 -0.000248697 0)
(-0.000922232 0.000180471 0)
(-0.00231472 -0.00118834 0)
(-0.000584266 -0.00120048 0)
(0.000145297 -0.00170671 0)
(0.000655293 -0.00385781 0)
(0.00146373 -0.00599999 0)
(0.000574869 -0.00671227 0)
(0.000218149 -0.0109266 0)
(-0.00491917 0.000752828 0)
(0.00430908 0.00289151 0)
(0.00135287 -0.00968112 0)
(0.000512924 -0.00723849 0)
(0.00209119 -0.00601444 0)
(0.00360119 -0.00275346 0)
(0.00347613 -0.00275987 0)
(0.000826856 -0.00559411 0)
(0.00110261 -0.00256098 0)
(0.000619162 -0.00231884 0)
(-0.00103927 -0.00369651 0)
(-0.000247065 -0.00453165 0)
(0.00187414 -0.00563194 0)
(0.00396703 -0.00531379 0)
(-0.00382549 -0.00639872 0)
(-0.000593431 -0.0084236 0)
(0.000823749 -0.00914517 0)
(6.54117e-05 -0.00758748 0)
(0.00136186 -0.00775854 0)
(0.00175427 -0.00981971 0)
(0.00333377 -0.00893953 0)
(0.00172346 -0.00701615 0)
(-0.000641433 -0.0063938 0)
(-0.000600293 -0.00640068 0)
(0.000255974 -0.00646997 0)
(0.000683347 -0.0064553 0)
(0.000808514 -0.00690254 0)
(0.000473405 -0.00775647 0)
(-0.000231862 -0.00867095 0)
(-0.000870843 -0.00923866 0)
(-0.00111494 -0.00943654 0)
(-0.00128828 -0.00937868 0)
(-0.00128186 -0.00942796 0)
(-0.00129839 -0.00943366 0)
(-0.00159583 -0.00919357 0)
(-0.00221889 -0.00850388 0)
(-0.00282137 -0.00772828 0)
(-0.00289437 -0.00720636 0)
(-0.0023558 -0.00683964 0)
(-0.000561977 -0.00692326 0)
(0.00262278 -0.00723879 0)
(0.00439496 -0.00759302 0)
(0.00484247 -0.00771114 0)
(0.00427447 -0.00694648 0)
(0.00274811 -0.00632566 0)
(0.00187242 -0.00720028 0)
(0.000158151 -0.00548655 0)
(0.00105952 -0.00749428 0)
(-0.00044392 -0.00742854 0)
(-0.00122058 -0.00707325 0)
(-0.000610753 -0.00507602 0)
(-0.000589005 -0.00810515 0)
(0.000196103 -0.007346 0)
(0.00164515 -0.00406649 0)
(0.00327597 -0.00426308 0)
(-0.00373044 -0.00185865 0)
(-0.00393308 -0.00328079 0)
(-0.00508612 -0.00356094 0)
(0.00224746 -0.000382286 0)
(0.00013981 -0.00421743 0)
(0.000502939 -0.00315351 0)
(0.000138671 -0.00255458 0)
(0.000330916 -0.0045779 0)
(0.00142696 -0.00170821 0)
(0.00165996 -0.00164587 0)
(0.00132292 -0.00225954 0)
(-0.000107121 -0.00304223 0)
(0.00133862 -0.00573843 0)
(0.000648348 -0.00736639 0)
(0.000800236 -0.00775447 0)
(0.00109411 -0.00903516 0)
(0.00210269 -0.0103362 0)
(0.00328351 -0.0110419 0)
(0.00242329 -0.00997861 0)
(0.00232169 -0.0107645 0)
(0.00462778 0.00194815 0)
(-0.00399702 0.00140128 0)
(-0.00230514 -0.0110559 0)
(-0.0020684 -0.00850814 0)
(-0.00476146 -0.00548789 0)
(0.00357821 -0.00378113 0)
(0.001259 -0.00599809 0)
(0.00180754 -0.00623258 0)
(0.00329834 -0.0050696 0)
(0.000849438 -0.00713697 0)
(0.0020071 -0.00642705 0)
(0.00248164 -0.00700782 0)
(0.003188 -0.00751599 0)
(0.00323939 -0.00585737 0)
(0.0016591 -0.00655488 0)
(0.000436118 -0.00703048 0)
(0.000697542 -0.00932147 0)
(0.000446795 -0.00854006 0)
(0.000232019 -0.00774453 0)
(-2.62278e-05 -0.00724335 0)
(0.000738577 -0.0057908 0)
(0.000279066 -0.00512506 0)
(-0.000425168 -0.00509706 0)
(-0.00051685 -0.00538026 0)
(0.00032226 -0.00567132 0)
(0.000969075 -0.00589802 0)
(0.00131205 -0.00638574 0)
(0.00126271 -0.00709186 0)
(0.000698598 -0.0081303 0)
(-0.000376123 -0.00922441 0)
(-0.0011383 -0.00992334 0)
(-0.00133305 -0.0102963 0)
(-0.00114871 -0.0108136 0)
(-0.00122266 -0.0109831 0)
(-0.00180318 -0.0108692 0)
(-0.00268866 -0.0102076 0)
(-0.00302306 -0.00980482 0)
(-0.00297824 -0.0096129 0)
(-0.00223639 -0.00970599 0)
(-0.000410975 -0.0103824 0)
(0.00208591 -0.0104465 0)
(0.00362027 -0.00977139 0)
(0.00392146 -0.00878798 0)
(0.00306751 -0.00722296 0)
(0.00207533 -0.00663344 0)
(0.00132249 -0.00742889 0)
(-0.00016069 -0.00581422 0)
(-0.000477921 -0.00562251 0)
(-0.00145031 -0.00809244 0)
(0.000218768 -0.00409447 0)
(-0.00068039 -0.00356031 0)
(-0.00161164 -0.00700053 0)
(0.000963697 -0.00558059 0)
(-0.00101294 -0.00536241 0)
(-0.000861524 -0.00437931 0)
(-0.00195697 -0.00463886 0)
(-0.00371512 -0.00712193 0)
(-0.00205493 0.00215914 0)
(-0.000944124 0.001966 0)
(-0.00103872 -0.00663884 0)
(0.00138973 -0.00542786 0)
(0.000348325 -0.00395944 0)
(-0.000547677 -0.00282175 0)
(0.000687305 -0.00368949 0)
(0.00238423 -0.00468702 0)
(0.00245048 -0.00694988 0)
(0.00219984 -0.00652147 0)
(0.00127562 -0.00599477 0)
(0.00289392 -0.00816163 0)
(0.00165693 -0.00926125 0)
(0.00118805 -0.00888469 0)
(-0.00161001 -0.00717824 0)
(0.00158791 -0.0063789 0)
(0.00127598 -0.00650709 0)
(0.00307774 -0.00476225 0)
(0.00583582 -0.00107924 0)
(-0.00473234 -0.00111038 0)
(-0.000870441 -0.00636199 0)
(-0.00034556 -0.00909521 0)
(0.000986662 -0.000878799 0)
(0.000842404 0.000518717 0)
(7.81881e-06 -0.0103241 0)
(0.000735893 -0.0100749 0)
(0.000189953 -0.0093539 0)
(0.000488296 -0.00895234 0)
(0.00103058 -0.00681809 0)
(0.000635923 -0.00538431 0)
(0.00175494 -0.0034015 0)
(0.00124039 -0.00314329 0)
(0.00289003 -0.00305058 0)
(-0.000296891 -0.00254117 0)
(0.00154744 -0.0046631 0)
(-0.000275414 -0.00424577 0)
(0.000645149 -0.00350581 0)
(0.000704225 -0.00421337 0)
(0.000780159 -0.0035448 0)
(0.000244808 -0.00359241 0)
(0.000116077 -0.00377002 0)
(0.000166118 -0.00428028 0)
(0.000725389 -0.00478412 0)
(0.00133884 -0.00508248 0)
(0.00197516 -0.00548779 0)
(0.00209658 -0.00611531 0)
(0.0017376 -0.00700194 0)
(0.000925377 -0.00806932 0)
(4.5401e-06 -0.00934529 0)
(-0.000632551 -0.010478 0)
(-0.000769605 -0.0111474 0)
(-0.00115573 -0.0113026 0)
(-0.00233649 -0.0108582 0)
(-0.0032576 -0.0102616 0)
(-0.00340651 -0.00997858 0)
(-0.00308078 -0.00973865 0)
(-0.00183487 -0.00992843 0)
(5.40996e-05 -0.0104522 0)
(0.00169653 -0.0104262 0)
(0.00260118 -0.00952283 0)
(0.00260028 -0.00817281 0)
(0.00204137 -0.00697339 0)
(0.00159181 -0.00653834 0)
(0.000965505 -0.00742682 0)
(-0.00021147 -0.00610323 0)
(-0.00116751 -0.0058911 0)
(-0.000550423 -0.00466534 0)
(-0.00102877 -0.0053033 0)
(-0.000925937 -0.00569996 0)
(0.000330201 -0.00496538 0)
(0.000275132 -0.00364615 0)
(0.0003301 -0.00204964 0)
(0.00033602 -0.00245413 0)
(-0.00131774 -0.00403212 0)
(6.16988e-05 -0.00461645 0)
(0.000389953 -0.0027918 0)
(-0.00521394 -0.00230012 0)
(-0.0025298 -0.00578624 0)
(-0.000649286 -0.00469714 0)
(0.000230116 -0.00649295 0)
(-0.000373052 -0.00726677 0)
(-0.00160942 -0.00340169 0)
(0.00613249 -0.00546324 0)
(0.00388813 -0.00867091 0)
(0.00336308 -0.00934702 0)
(0.0019468 -0.00875778 0)
(0.000919157 -0.00879286 0)
(0.000818646 -0.00809963 0)
(0.00110272 -0.00878647 0)
(0.00110639 -0.00672509 0)
(8.74816e-05 -0.00617908 0)
(0.000818945 -0.00784221 0)
(0.00110461 -0.00425854 0)
(0.00240466 -0.00381693 0)
(-0.000951953 -0.00317306 0)
(-0.00041552 -0.00498098 0)
(0.00164571 -0.00566256 0)
(0.00501336 -0.00448585 0)
(-0.0011742 -0.00446046 0)
(-0.000313463 -0.0069611 0)
(0.000464038 -0.00767403 0)
(-0.00103737 -0.00750602 0)
(2.07299e-05 -0.00806102 0)
(-0.000317567 -0.00764763 0)
(-0.000167807 -0.00771566 0)
(2.22464e-05 -0.00783891 0)
(0.000599893 -0.00708999 0)
(0.00174261 -0.00690357 0)
(0.000958336 -0.00389541 0)
(0.00177351 -0.00317842 0)
(0.00104527 -0.00499379 0)
(0.000944275 -0.00294848 0)
(0.00071694 -0.00371159 0)
(0.000499694 -0.00324449 0)
(0.000315658 -0.00333421 0)
(0.000438347 -0.0033837 0)
(0.000574816 -0.00384046 0)
(0.00101522 -0.00409137 0)
(0.00169591 -0.00462452 0)
(0.00249556 -0.00494076 0)
(0.00273509 -0.00520417 0)
(0.00255352 -0.00571232 0)
(0.001949 -0.00630405 0)
(0.00120764 -0.00712326 0)
(0.000449334 -0.00815388 0)
(-0.000311483 -0.00907989 0)
(-0.00144823 -0.00937305 0)
(-0.00303198 -0.00891125 0)
(-0.00358416 -0.00862687 0)
(-0.0036094 -0.00856882 0)
(-0.00303457 -0.0087093 0)
(-0.00156307 -0.00915448 0)
(0.000118545 -0.00949684 0)
(0.00117331 -0.00929667 0)
(0.00160714 -0.00852921 0)
(0.00165497 -0.00755769 0)
(0.00144419 -0.00676603 0)
(0.00114898 -0.00644075 0)
(0.000703468 -0.00749232 0)
(-0.000173214 -0.00626039 0)
(-0.000968314 -0.00699121 0)
(-0.00134782 -0.0074285 0)
(-0.00216192 -0.00462352 0)
(-0.000822308 -0.00430633 0)
(-0.000296914 -0.00719502 0)
(0.000282455 -0.0055517 0)
(-0.000923882 -0.00409661 0)
(-0.00212855 -0.00431586 0)
(-0.00262598 -0.00477049 0)
(0.000262537 -0.00677027 0)
(0.000896717 -0.00588319 0)
(-0.00160551 -0.00514012 0)
(0.000287937 -0.00922122 0)
(0.00127144 -0.0116792 0)
(0.00169331 -0.0128246 0)
(0.00321431 -0.0117774 0)
(0.00132049 -0.00371996 0)
(0.00145581 -0.00416423 0)
(0.00225669 -0.0125651 0)
(0.00240333 -0.0101804 0)
(0.00200311 -0.00932951 0)
(0.000253958 -0.00893992 0)
(0.0017256 -0.00855031 0)
(-0.000309769 -0.00915621 0)
(0.00122588 -0.00916073 0)
(-0.00169101 -0.00886207 0)
(0.000615499 -0.00718105 0)
(-0.000673837 -0.00616607 0)
(0.000508238 -0.00583014 0)
(-0.000153058 -0.00773348 0)
(0.00194112 -0.00704086 0)
(0.00199284 -0.00540997 0)
(0.00226034 -0.00398614 0)
(0.000491798 -0.00410638 0)
(0.000387315 -0.00696834 0)
(0.00135059 -0.00790896 0)
(0.00018189 -0.00791628 0)
(0.000503881 -0.00824001 0)
(0.000643122 -0.0103385 0)
(0.000894406 -0.0107779 0)
(0.000875816 -0.0102722 0)
(-0.000430965 -0.0102333 0)
(-0.00147037 -0.0110606 0)
(0.00090504 -0.00942593 0)
(-0.00138733 -0.00904438 0)
(0.000432327 -0.00822607 0)
(1.92487e-05 -0.00662621 0)
(0.000519474 -0.00690147 0)
(0.000451456 -0.00612222 0)
(0.000464237 -0.00594892 0)
(0.000634944 -0.005636 0)
(0.00105934 -0.00573996 0)
(0.00161555 -0.00559164 0)
(0.00222663 -0.00561572 0)
(0.00273536 -0.00537548 0)
(0.00287464 -0.00533784 0)
(0.00279496 -0.00534659 0)
(0.00240657 -0.00536295 0)
(0.00191666 -0.00555795 0)
(0.00133805 -0.00602086 0)
(0.000423801 -0.00649966 0)
(-0.00114904 -0.00680346 0)
(-0.00289286 -0.006923 0)
(-0.00339912 -0.00710042 0)
(-0.00335059 -0.00740716 0)
(-0.00257203 -0.00786643 0)
(-0.0011739 -0.00841337 0)
(4.26434e-05 -0.00867072 0)
(0.000692047 -0.00838717 0)
(0.00102787 -0.00785255 0)
(0.0011399 -0.00725888 0)
(0.00104139 -0.00669515 0)
(0.000863765 -0.00644785 0)
(0.000544136 -0.00761304 0)
(-0.000135841 -0.00635985 0)
(0.00199626 -0.00604385 0)
(-0.000815474 -0.00811732 0)
(-0.00167683 -0.00687838 0)
(-0.00327996 -0.00568105 0)
(-0.000102821 -0.00696757 0)
(0.0010625 -0.0078076 0)
(-0.00145666 -0.00851056 0)
(-0.0010479 -0.00887918 0)
(-0.000266799 -0.00824658 0)
(0.000405969 -0.00803503 0)
(0.00140662 -0.0130374 0)
(0.000109541 -0.0153822 0)
(0.00188659 -0.0160179 0)
(0.00112265 -0.0161501 0)
(0.00163736 -0.0149016 0)
(0.00201893 -0.0138796 0)
(0.00464193 -0.00912976 0)
(-0.00322837 -0.00710048 0)
(-0.00122219 -0.00972944 0)
(0.00182445 -0.0107139 0)
(0.00127985 -0.0102308 0)
(0.000683378 -0.00776023 0)
(4.47015e-05 -0.00725602 0)
(-0.000535483 -0.00935075 0)
(-2.19743e-05 -0.00928665 0)
(-0.00040968 -0.00992627 0)
(0.000841545 -0.0107737 0)
(0.000315222 -0.010034 0)
(-0.000220406 -0.00883612 0)
(-5.74112e-05 -0.00632413 0)
(0.00144832 -0.00626148 0)
(0.00148813 -0.00707407 0)
(0.00253963 -0.00602548 0)
(0.000102358 -0.00640839 0)
(0.00111542 -0.00531783 0)
(0.00169869 -0.00636276 0)
(0.00180762 -0.00709929 0)
(0.000955288 -0.00721169 0)
(0.000128219 -0.00822167 0)
(0.00027171 -0.00917006 0)
(0.00224895 -0.0105626 0)
(-2.28429e-05 -0.0107218 0)
(-8.51968e-05 -0.00984115 0)
(-0.000421465 -0.0119761 0)
(-0.000794447 -0.0130233 0)
(5.50875e-05 -0.0120824 0)
(-0.000337047 -0.0113859 0)
(-0.000147819 -0.0106535 0)
(-0.00033244 -0.0101118 0)
(-5.15621e-05 -0.00977682 0)
(9.65993e-05 -0.00960321 0)
(0.000414782 -0.00944229 0)
(0.000941155 -0.00891362 0)
(0.00138714 -0.00835762 0)
(0.00211083 -0.0073912 0)
(0.00265416 -0.00653234 0)
(0.00261639 -0.0058312 0)
(0.00222439 -0.00536111 0)
(0.00186942 -0.00506749 0)
(0.00139839 -0.00512095 0)
(0.000474456 -0.00527272 0)
(-0.00101343 -0.00560486 0)
(-0.00256734 -0.00612022 0)
(-0.00304937 -0.00659229 0)
(-0.00289571 -0.00705091 0)
(-0.00201601 -0.00748273 0)
(-0.000770775 -0.00787925 0)
(-2.31275e-05 -0.00799142 0)
(0.000386006 -0.0078011 0)
(0.000705649 -0.00747614 0)
(0.000841581 -0.00707212 0)
(0.000771415 -0.00664743 0)
(0.000653042 -0.00645835 0)
(0.000419123 -0.00770756 0)
(-0.000104145 -0.00643638 0)
(-0.000816736 -0.00386071 0)
(-0.00266357 -0.0159435 0)
(-0.00347573 -0.0141615 0)
(-0.00563943 -0.0113847 0)
(0.00291366 -0.0119164 0)
(-0.000743663 -0.0147359 0)
(0.000519293 -0.0158303 0)
(-0.000977624 -0.0124244 0)
(-0.0014466 -0.0102649 0)
(0.00323031 -0.0132463 0)
(-0.00149859 -0.014337 0)
(0.00673814 -0.0126251 0)
(0.00276309 -0.0137152 0)
(0.00144924 -0.0165313 0)
(-5.29087e-05 -0.0145607 0)
(0.000734568 -0.010586 0)
(0.00247017 -0.0107665 0)
(-0.000701922 -0.0113714 0)
(0.000262616 -0.00858924 0)
(0.000593156 -0.00861117 0)
(0.000298901 -0.0103294 0)
(0.000869514 -0.0096429 0)
(0.000271715 -0.0104773 0)
(-0.000720283 -0.0113633 0)
(0.000477823 -0.0126007 0)
(0.00028416 -0.012957 0)
(-0.000149368 -0.0116808 0)
(-0.00225665 -0.011179 0)
(-0.00191082 -0.00944656 0)
(-0.00079553 -0.00819912 0)
(0.000309096 -0.00779105 0)
(0.000934459 -0.00745183 0)
(0.00138272 -0.00849121 0)
(0.00336117 -0.0081558 0)
(0.0020731 -0.00584516 0)
(0.00210814 -0.00675086 0)
(0.00105178 -0.00647574 0)
(0.00232601 -0.00579856 0)
(0.000913455 -0.00671461 0)
(0.000186959 -0.00543643 0)
(0.00211218 -0.00639918 0)
(0.00128711 -0.00833706 0)
(0.000101859 -0.00717604 0)
(0.000106632 -0.00616182 0)
(-0.000611342 -0.00633343 0)
(-0.00042574 -0.00768129 0)
(-0.00125578 -0.00702688 0)
(-0.000518609 -0.00712705 0)
(-0.000360624 -0.00709153 0)
(-3.69165e-05 -0.00708167 0)
(0.000263452 -0.00751498 0)
(0.000569288 -0.00812307 0)
(0.000784587 -0.00833419 0)
(0.000926974 -0.00838629 0)
(0.00118329 -0.00800334 0)
(0.00140929 -0.00719617 0)
(0.00156907 -0.00610797 0)
(0.0016074 -0.00506401 0)
(0.00160143 -0.00447253 0)
(0.00146075 -0.00426738 0)
(0.000807165 -0.00434292 0)
(-0.000372823 -0.0048871 0)
(-0.00194734 -0.00585312 0)
(-0.00257958 -0.00638176 0)
(-0.00254419 -0.00670578 0)
(-0.00178222 -0.00708252 0)
(-0.00067257 -0.00742511 0)
(-0.000132923 -0.0075717 0)
(0.000164907 -0.00754682 0)
(0.000466813 -0.0073259 0)
(0.000599478 -0.00699508 0)
(0.000555485 -0.00664432 0)
(0.000480793 -0.00648564 0)
(0.000314884 -0.00778464 0)
(-7.5672e-05 -0.00649362 0)
(-0.00457596 -0.0096275 0)
(-0.000207211 -0.0147845 0)
(0.00091262 -0.016566 0)
(-0.000601321 -0.00857036 0)
(0.000898327 -0.0113559 0)
(-0.000200127 -0.0207642 0)
(0.00105124 -0.0188325 0)
(0.000256925 -0.0197637 0)
(-0.000250529 -0.00994267 0)
(0.00104222 -0.012404 0)
(0.00334053 -0.0101577 0)
(0.00258651 -0.00647072 0)
(-0.00256484 -0.0163653 0)
(0.000100397 -0.0144761 0)
(0.000372986 -0.0131878 0)
(0.00097059 -0.0113026 0)
(-0.00129532 -0.011325 0)
(-0.000248589 -0.0101837 0)
(-0.00091475 -0.00920433 0)
(-0.00079087 -0.0113485 0)
(0.000412037 -0.0100358 0)
(0.00149124 -0.00749807 0)
(0.000411783 -0.00876159 0)
(0.00112354 -0.00972023 0)
(0.000511794 -0.00871613 0)
(0.000446266 -0.0123057 0)
(-0.00187066 -0.0143348 0)
(-0.00281016 -0.0119626 0)
(-0.00180092 -0.00864414 0)
(0.000629707 -0.00729216 0)
(-0.000565086 -0.00754314 0)
(0.0004584 -0.00982617 0)
(0.00139711 -0.00688343 0)
(0.00204383 -0.00769802 0)
(0.00093907 -0.00817722 0)
(0.000564541 -0.00694311 0)
(0.000910985 -0.00477256 0)
(0.00244249 -0.00459755 0)
(0.00102466 -0.00592574 0)
(0.000599164 -0.0025644 0)
(0.000756122 -0.00321769 0)
(-0.000153531 -0.00622441 0)
(0.000203772 -0.00343157 0)
(0.00065127 -0.00318406 0)
(-0.000787472 -0.0052806 0)
(-0.000683558 -0.00609583 0)
(-0.000793904 -0.00665727 0)
(-0.000446922 -0.00691592 0)
(5.12781e-05 -0.00757444 0)
(0.000608779 -0.00757074 0)
(0.00105625 -0.00781664 0)
(0.00115301 -0.0079163 0)
(0.00111266 -0.00789346 0)
(0.000984638 -0.00763878 0)
(0.000820003 -0.00715261 0)
(0.000606856 -0.00633233 0)
(0.000479838 -0.00519373 0)
(0.000627297 -0.00396923 0)
(0.00103028 -0.00295329 0)
(0.00131667 -0.00250182 0)
(0.00110488 -0.00231056 0)
(0.000404997 -0.0025952 0)
(-0.000890445 -0.0034218 0)
(-0.00207516 -0.00443514 0)
(-0.00219706 -0.00534064 0)
(-0.00133793 -0.00622651 0)
(-0.000345571 -0.00682176 0)
(1.55383e-05 -0.00705836 0)
(0.000142845 -0.00721975 0)
(0.000344853 -0.00718114 0)
(0.00046389 -0.00690308 0)
(0.000405952 -0.00661891 0)
(0.00035095 -0.00649115 0)
(0.000231494 -0.00783733 0)
(-5.55334e-05 -0.00653777 0)
(-0.000570201 -0.00754475 0)
(0.000557606 -0.00822724 0)
(0.0024985 -0.0102055 0)
(0.00406611 -0.008491 0)
(-0.00399311 -0.0103074 0)
(-0.000342453 -0.0177083 0)
(-0.00153835 -0.0201432 0)
(-4.02778e-05 -0.0192138 0)
(0.00424481 -0.0144814 0)
(-0.00277321 -0.0125897 0)
(0.00214512 -0.011878 0)
(-0.00362649 -0.0133477 0)
(0.000182048 -0.0125892 0)
(0.000705661 -0.0124536 0)
(0.000672732 -0.0146127 0)
(0.000262466 -0.0130324 0)
(-0.00107474 -0.0129761 0)
(-0.000325894 -0.0125101 0)
(-0.000400069 -0.0104938 0)
(-0.0012176 -0.00892515 0)
(0.00231275 -0.00902051 0)
(0.00182142 -0.00848306 0)
(-0.000222873 -0.0077803 0)
(0.00105921 -0.00714743 0)
(0.000683182 -0.00716698 0)
(-0.000584585 -0.00727854 0)
(-0.00128327 -0.00812005 0)
(-0.00154806 -0.00636063 0)
(-0.00344032 -0.00376536 0)
(0.00317993 -0.00707743 0)
(-0.000894496 -0.00959075 0)
(0.000152646 -0.00872035 0)
(0.000835385 -0.00984818 0)
(0.00038397 -0.010129 0)
(0.000967761 -0.00818011 0)
(-0.000368196 -0.00730865 0)
(0.00182669 -0.00571568 0)
(-0.000840746 -0.00510598 0)
(0.000124099 -0.00726645 0)
(0.000876461 -0.00299185 0)
(0.00118607 -0.00329179 0)
(0.0013446 -0.00355475 0)
(0.000887307 -0.00155824 0)
(0.000735983 -0.00204362 0)
(-0.000467407 -0.00245527 0)
(0.00138173 -0.00343725 0)
(0.000403348 -0.00607789 0)
(-5.51223e-05 -0.00706283 0)
(0.000434264 -0.00792461 0)
(0.000510854 -0.00872338 0)
(0.00074177 -0.00876784 0)
(0.000668248 -0.00847333 0)
(0.000555236 -0.00829906 0)
(0.000293411 -0.00786214 0)
(-8.78365e-05 -0.00683685 0)
(-0.000603473 -0.00582075 0)
(-0.000703953 -0.00461847 0)
(-0.000559463 -0.00356461 0)
(-2.09594e-05 -0.00262527 0)
(0.000758754 -0.0017646 0)
(0.000987354 -0.00139285 0)
(0.0008095 -0.00140045 0)
(0.000167288 -0.00186132 0)
(-0.000561674 -0.00303627 0)
(-0.000783574 -0.00464846 0)
(-0.000343946 -0.00620909 0)
(8.54308e-05 -0.00682626 0)
(0.000239315 -0.00704868 0)
(0.000238463 -0.00717025 0)
(0.000270823 -0.00717686 0)
(0.000299125 -0.0068883 0)
(0.000278943 -0.00661835 0)
(0.000246958 -0.00650284 0)
(0.00016521 -0.00788033 0)
(-3.80997e-05 -0.00657008 0)
(0.0028794 -0.00648992 0)
(0.00224382 -0.00485502 0)
(0.00240174 -0.00432275 0)
(0.00498894 -0.00438102 0)
(0.00155407 -0.00381526 0)
(0.00157656 -0.00571425 0)
(0.00245243 -0.00789019 0)
(0.00286555 -0.0070867 0)
(0.00190664 -0.00703718 0)
(-0.000729656 -0.0111604 0)
(-0.000824721 -0.00975708 0)
(-0.00180802 -0.0085402 0)
(-6.49053e-05 -0.00946412 0)
(-0.0022164 -0.00946376 0)
(-0.00157699 -0.00812611 0)
(-0.00252083 -0.0073414 0)
(-0.00218388 -0.00844369 0)
(-0.00211908 -0.00690436 0)
(-0.00195725 -0.00902045 0)
(-0.0027396 -0.00955503 0)
(-0.000222562 -0.00802826 0)
(-0.000481469 -0.00992454 0)
(-0.000666659 -0.00807967 0)
(-0.00120544 -0.00547695 0)
(-0.000578219 -0.00600724 0)
(-0.000415922 -0.00793945 0)
(-0.000301551 -0.00780363 0)
(-0.00241291 -0.00729907 0)
(0.00256008 0.00131252 0)
(0.00142135 -0.000187981 0)
(0.000183806 -0.0091706 0)
(0.00023152 -0.00798601 0)
(-0.00052226 -0.00819318 0)
(0.000563301 -0.0094017 0)
(0.000136593 -0.00887186 0)
(-0.00030473 -0.0069728 0)
(0.000858392 -0.00662196 0)
(-0.00126889 -0.00681883 0)
(-0.000578063 -0.00654764 0)
(-0.000179668 -0.00460194 0)
(-0.00114366 -0.00469942 0)
(-0.000892709 -0.00636274 0)
(0.000411925 -0.00468771 0)
(7.90776e-05 -0.00610892 0)
(0.000568379 -0.00762924 0)
(0.00132828 -0.00790033 0)
(0.00226374 -0.0107032 0)
(0.00203262 -0.0100986 0)
(0.00155836 -0.0106015 0)
(0.00113214 -0.0100533 0)
(0.00115179 -0.00979542 0)
(0.000790056 -0.00946859 0)
(0.000318198 -0.00857762 0)
(-0.000416757 -0.00755471 0)
(-0.00113702 -0.00640197 0)
(-0.00162854 -0.00517108 0)
(-0.00172062 -0.00382034 0)
(-0.00137832 -0.00309985 0)
(-0.000690458 -0.00235702 0)
(5.30455e-05 -0.00188267 0)
(0.00062263 -0.00177718 0)
(0.000814602 -0.00211787 0)
(0.000749295 -0.00281945 0)
(0.000732861 -0.00402307 0)
(0.00081823 -0.00553481 0)
(0.000752932 -0.00647679 0)
(0.000549784 -0.00684573 0)
(0.000364213 -0.00699538 0)
(0.00026373 -0.00709805 0)
(0.000216352 -0.00708987 0)
(0.000168888 -0.00681412 0)
(0.000179961 -0.00659506 0)
(0.000156379 -0.00651011 0)
(0.000115339 -0.00791047 0)
(-2.46404e-05 -0.0065933 0)
(-0.000358941 -0.00354493 0)
(0.000673115 0.000186096 0)
(-0.00321286 0.00412681 0)
(0.00480617 0.00574325 0)
(0.00116211 0.00480164 0)
(0.000302923 0.00524122 0)
(0.00121558 0.00541381 0)
(0.00208538 0.00608278 0)
(0.00106 0.00645157 0)
(-5.08059e-05 0.00617839 0)
(0.00183695 0.00677723 0)
(-0.000764374 0.00629394 0)
(-0.0011591 0.00574324 0)
(-3.47755e-05 0.00454755 0)
(7.31174e-05 0.0020169 0)
(-0.000206469 0.0010011 0)
(-0.000476837 -0.000887549 0)
(-0.00113006 -0.00355495 0)
(-0.00152593 -0.00748981 0)
(0.00140226 -0.00812905 0)
(-0.000551692 -0.0102395 0)
(-2.59627e-05 -0.0114573 0)
(-0.00021246 -0.0104918 0)
(-0.000385126 -0.00899519 0)
(-0.0013917 -0.00790547 0)
(-0.00083109 -0.00859473 0)
(-0.000349731 -0.0104912 0)
(0.000670663 -0.00252343 0)
(0.00602069 0.00256016 0)
(-0.00328717 -0.00550914 0)
(-0.00257237 -0.00816565 0)
(0.00115014 -0.00605546 0)
(0.00147069 -0.00802255 0)
(0.000428259 -0.00897768 0)
(-0.000373195 -0.00768217 0)
(6.0606e-05 -0.00593493 0)
(-0.00154492 -0.00463801 0)
(-0.00071986 -0.00469927 0)
(0.00061199 -0.00357807 0)
(0.000530012 -0.0014634 0)
(-0.000413383 -0.00239408 0)
(0.00119601 -0.00263442 0)
(0.00294648 -0.00450089 0)
(0.00168411 -0.00964994 0)
(0.00213254 -0.00949174 0)
(0.00178791 -0.00953168 0)
(0.00160314 -0.0113525 0)
(0.000263584 -0.0126152 0)
(0.000170144 -0.0115607 0)
(0.000199044 -0.0109309 0)
(-7.31963e-06 -0.0102008 0)
(-0.000490958 -0.00956594 0)
(-0.0011751 -0.00811259 0)
(-0.00213567 -0.00734358 0)
(-0.00270128 -0.00636738 0)
(-0.00303314 -0.00570342 0)
(-0.00299729 -0.00480942 0)
(-0.00229836 -0.0042293 0)
(-0.00122543 -0.00360572 0)
(9.99763e-05 -0.00332395 0)
(0.00131521 -0.00335827 0)
(0.00189812 -0.00418855 0)
(0.00214827 -0.00523104 0)
(0.002084 -0.00631575 0)
(0.00151163 -0.00697362 0)
(0.000869039 -0.00708945 0)
(0.000571498 -0.00702168 0)
(0.000413783 -0.00700338 0)
(0.000263852 -0.00706735 0)
(0.000136809 -0.00703645 0)
(9.81254e-05 -0.00679984 0)
(0.000101889 -0.00658232 0)
(7.69366e-05 -0.00651914 0)
(7.3358e-05 -0.00793753 0)
(-1.57908e-05 -0.0066086 0)
(-0.00432789 -0.00625256 0)
(0.00150708 -0.00773308 0)
(0.00039923 -0.000768442 0)
(-0.00244307 2.24313e-05 0)
(0.00012845 -0.00694959 0)
(-0.00043542 -0.00571302 0)
(-0.00041723 -0.00753456 0)
(-0.000678924 -0.00476316 0)
(0.00132859 -0.00632916 0)
(0.000212587 -0.00484858 0)
(0.000333168 -0.00409929 0)
(0.000142027 -0.00592172 0)
(0.00147315 -0.00513071 0)
(0.000931056 -0.00562184 0)
(0.00220305 -0.00510216 0)
(0.00148984 -0.00500973 0)
(0.000524532 -0.00538831 0)
(-0.00126459 -0.00552513 0)
(0.0060321 -0.00654854 0)
(0.00371147 -0.00892757 0)
(-7.27073e-05 -0.0111511 0)
(-0.00158823 -0.0110759 0)
(-0.00204205 -0.00837145 0)
(-0.00347865 -0.00728148 0)
(-0.00111554 -0.00921072 0)
(-0.000949009 -0.00963617 0)
(0.00203259 -0.00791383 0)
(0.00543896 -0.00221276 0)
(-0.00126872 -0.00270301 0)
(-0.00432207 -0.00845689 0)
(-0.00382841 -0.00439489 0)
(0.00369574 -0.0035298 0)
(6.5334e-05 -0.00631299 0)
(0.000822908 -0.00767354 0)
(-0.000823817 -0.00697785 0)
(-0.0015115 -0.00683109 0)
(-0.00474335 -0.00781761 0)
(-0.00255599 -0.00693221 0)
(-0.00258381 -0.00609953 0)
(-0.000509915 -0.00438801 0)
(-0.00359366 -0.00108299 0)
(0.00661296 -0.00116591 0)
(0.00372692 -0.00154877 0)
(0.00522877 -0.00297711 0)
(0.00473878 -0.00183719 0)
(0.00296412 -0.00275159 0)
(0.0010975 -0.00490215 0)
(0.000858444 -0.00473867 0)
(0.00030154 -0.00524153 0)
(0.00032064 -0.00559956 0)
(-0.000520294 -0.00571746 0)
(-0.000924717 -0.00570879 0)
(-0.00161941 -0.00570466 0)
(-0.00211954 -0.00617636 0)
(-0.00271669 -0.00676575 0)
(-0.00297912 -0.00738523 0)
(-0.00297976 -0.00762125 0)
(-0.00255264 -0.00775192 0)
(-0.00172094 -0.0075267 0)
(-0.000217137 -0.00719664 0)
(0.00167978 -0.00681431 0)
(0.00257468 -0.006986 0)
(0.00274108 -0.00719272 0)
(0.0024852 -0.00737746 0)
(0.00157767 -0.00734133 0)
(0.000780002 -0.00717081 0)
(0.000517863 -0.00703899 0)
(0.000396807 -0.00697167 0)
(0.000261498 -0.00700182 0)
(0.000106922 -0.00696412 0)
(3.25416e-05 -0.00674308 0)
(4.13662e-05 -0.00652784 0)
(2.15354e-05 -0.00650576 0)
(4.22896e-05 -0.00794722 0)
(-6.92007e-06 -0.00661893 0)
(0.00214282 -0.00201834 0)
(0.000547961 0.000768321 0)
(0.00291327 -0.00674408 0)
(-0.008776 -0.00432916 0)
(0.00181021 -0.00698875 0)
(-0.000128773 -0.0125078 0)
(0.000785422 -0.0133689 0)
(-0.00113739 -0.0093487 0)
(-0.00136268 -0.0080181 0)
(0.00252401 -0.00975694 0)
(0.000950237 -0.00929436 0)
(0.000944421 -0.00977073 0)
(-0.000582795 -0.00902859 0)
(-0.000656512 -0.00824492 0)
(0.00203175 -0.00822318 0)
(0.000617965 -0.00878885 0)
(0.00269766 -0.00835916 0)
(0.00259874 0.00113551 0)