/*--------------------------------*- C++ -*----------------------------------*\
  =========                 |
  \\      /  F ield         | OpenFOAM: The Open Source CFD Toolbox
   \\    /   O peration     | Website:  https://openfoam.org
    \\  /    A nd           | Version:  12
     \\/     M anipulation  |
\*---------------------------------------------------------------------------*/
FoamFile
{
    format      ascii;
    class       volVectorField::Internal;
    location    "0.45";
    object      cloud:UTrans;
}
// * * * * * * * * * * * * * * * * * * * * * * * * * * * * * * * * * * * * * //

dimensions      [1 1 -1 0 0 0 0];

value           nonuniform List<vector> 
3750
(
(-9.92373e-09 6.00421e-08 0)
(1.4717e-09 1.01599e-10 0)
(1.55812e-10 -1.95038e-09 0)
(1.69088e-11 -2.0455e-09 0)
(-3.5774e-11 -1.97107e-09 0)
(1.83628e-12 -2.10578e-09 0)
(-7.30469e-11 -2.02085e-09 0)
(-6.84322e-11 -2.14878e-09 0)
(5.94021e-12 -4.43458e-10 0)
(1.53393e-11 -1.0952e-09 0)
(-4.13933e-13 -2.00056e-09 0)
(3.33348e-11 -2.03048e-09 0)
(4.69043e-12 -4.92275e-09 0)
(5.57696e-11 -2.0485e-09 0)
(3.7629e-11 -1.64102e-09 0)
(-1.20981e-11 -1.8343e-09 0)
(5.2972e-11 -1.7303e-09 0)
(-3.53099e-13 -1.79116e-09 0)
(5.65588e-12 -1.98716e-09 0)
(-1.00444e-10 -2.40812e-09 0)
(0 0 0)
(8.04637e-12 -2.04196e-09 0)
(-1.54847e-10 -4.90903e-09 0)
(1.61555e-10 -2.14336e-09 0)
(1.10705e-10 -1.95348e-09 0)
(9.54305e-11 -3.05047e-09 0)
(9.5327e-12 -2.24665e-10 0)
(-6.45844e-12 -2.06626e-09 0)
(6.98572e-11 -1.99736e-09 0)
(-7.46621e-12 -1.95422e-09 0)
(8.39189e-12 -1.97741e-09 0)
(1.05845e-11 -1.89308e-09 0)
(-1.41355e-10 -2.07339e-09 0)
(-1.97113e-11 -4.70784e-09 0)
(0 0 0)
(8.1393e-12 -2.24434e-09 0)
(0 0 0)
(3.7251e-11 -2.197e-09 0)
(1.45383e-11 -2.00308e-09 0)
(1.9766e-12 -1.95179e-09 0)
(-1.15031e-11 -1.46552e-09 0)
(0 0 0)
(-4.63269e-12 -2.06672e-09 0)
(0 0 0)
(0 0 0)
(1.99461e-12 -5.82163e-09 0)
(3.15066e-11 -3.53542e-09 0)
(0 0 0)
(4.1099e-11 -2.11298e-09 0)
(2.21177e-11 -2.16257e-09 0)
(-1.51584e-11 -7.96688e-10 0)
(-1.03456e-11 -4.90676e-10 0)
(-2.05049e-11 -1.96587e-09 0)
(-2.89021e-11 -2.11994e-09 0)
(-1.66234e-11 -2.10508e-09 0)
(-9.41164e-12 -4.66412e-09 0)
(-1.02376e-10 -1.92683e-09 0)
(1.08944e-10 -4.06694e-09 0)
(9.49436e-11 -2.05235e-09 0)
(-7.61313e-12 -2.07493e-09 0)
(-7.56519e-13 -2.19436e-09 0)
(-4.2096e-11 -2.13551e-09 0)
(8.48842e-13 -2.16312e-09 0)
(5.37441e-12 -2.1249e-09 0)
(-2.25382e-11 -4.88868e-09 0)
(-4.97724e-11 -2.0517e-09 0)
(-1.67559e-11 -1.88632e-09 0)
(1.08969e-11 -1.92336e-09 0)
(-1.39927e-11 -1.94447e-09 0)
(0 0 0)
(-1.28131e-11 -2.01142e-09 0)
(-3.70381e-11 -2.07683e-09 0)
(6.44844e-11 -4.93438e-09 0)
(1.43097e-11 -2.09412e-09 0)
(-7.94742e-13 -1.87396e-09 0)
(-5.91978e-09 8.76366e-08 0)
(4.5056e-10 4.42377e-10 0)
(-1.4882e-10 -4.34878e-09 0)
(0 0 0)
(7.04991e-11 -3.97912e-09 0)
(1.41339e-10 -4.27441e-09 0)
(2.98768e-11 -4.43855e-09 0)
(1.66571e-10 -1.77721e-09 0)
(0 0 0)
(0 0 0)
(9.18706e-12 -2.06159e-09 0)
(0 0 0)
(-1.27077e-10 -2.17795e-09 0)
(1.56882e-11 -2.21365e-09 0)
(-4.25114e-11 -1.97e-09 0)
(-1.40601e-10 -4.25533e-09 0)
(-4.92358e-10 -4.71453e-09 0)
(5.92643e-12 -1.9311e-09 0)
(0 0 0)
(0 0 0)
(3.01334e-11 -2.07699e-09 0)
(0 0 0)
(-1.49966e-10 -2.23401e-09 0)
(0 0 0)
(-3.15079e-10 -4.12572e-09 0)
(-3.10896e-10 -5.77692e-09 0)
(3.13538e-11 -4.10367e-09 0)
(2.15744e-11 -1.8076e-09 0)
(5.52765e-12 -1.99154e-09 0)
(0 0 0)
(0 0 0)
(1.6339e-10 -4.48232e-09 0)
(3.96185e-11 -2.22481e-09 0)
(0 0 0)
(2.93005e-11 -1.97731e-09 0)
(-1.03491e-11 -2.01341e-09 0)
(0 0 0)
(-6.77238e-11 -4.18806e-09 0)
(-1.51093e-10 -1.76433e-09 0)
(-1.76642e-10 -4.16222e-09 0)
(1.12813e-10 -4.34756e-09 0)
(4.90605e-11 -1.82094e-09 0)
(0 0 0)
(6.87321e-11 -2.02044e-09 0)
(4.8274e-11 -1.86862e-09 0)
(3.04941e-10 -2.33144e-09 0)
(1.18174e-11 -4.19098e-09 0)
(1.37391e-11 -2.0672e-09 0)
(-2.96919e-12 -2.79583e-10 0)
(-1.36556e-10 -4.15399e-09 0)
(-6.10237e-11 -1.88746e-09 0)
(0 0 0)
(0 0 0)
(1.77207e-11 -2.09107e-09 0)
(5.74542e-11 -2.05911e-09 0)
(-6.95549e-11 -3.52912e-09 0)
(7.56111e-12 -4.15935e-10 0)
(0 0 0)
(0 0 0)
(5.36008e-11 -2.24042e-09 0)
(-2.43285e-10 -5.01452e-09 0)
(0 0 0)
(-2.94295e-15 -2.08306e-09 0)
(0 0 0)
(0 0 0)
(-1.13551e-10 -2.0515e-09 0)
(-1.09341e-10 -1.79923e-09 0)
(-3.77566e-10 -6.74666e-09 0)
(-6.92099e-11 -1.72182e-09 0)
(-6.55632e-11 -2.03932e-09 0)
(-9.97168e-12 -2.24025e-09 0)
(0 0 0)
(4.55658e-11 -2.22203e-09 0)
(9.58487e-11 -2.11385e-09 0)
(0 0 0)
(7.51419e-09 6.02758e-08 0)
(6.55249e-10 2.26626e-09 0)
(-6.37649e-11 -2.18727e-10 0)
(0 0 0)
(0 0 0)
(-1.55699e-10 -4.63757e-09 0)
(0 0 0)
(8.32087e-11 -1.89081e-09 0)
(1.70319e-10 -2.56076e-09 0)
(1.88931e-10 -3.7475e-09 0)
(4.58214e-11 -1.79153e-09 0)
(-2.39269e-10 -7.66271e-09 0)
(-5.84865e-11 -1.89917e-09 0)
(-6.28072e-11 -1.95752e-09 0)
(-9.75532e-11 -2.35797e-09 0)
(-1.53516e-10 -1.96122e-09 0)
(-1.41496e-10 -2.08461e-09 0)
(9.41663e-11 -1.72655e-09 0)
(8.71043e-11 -1.86398e-09 0)
(1.15287e-10 -3.27511e-09 0)
(1.39716e-10 -3.79602e-09 0)
(-2.62523e-11 -7.83399e-10 0)
(4.01861e-11 -3.14473e-09 0)
(0 0 0)
(-9.59377e-11 -2.2833e-09 0)
(-7.50919e-11 -1.68895e-09 0)
(1.58934e-10 -3.88007e-09 0)
(2.07311e-11 -2.11803e-09 0)
(5.39402e-12 -1.62902e-09 0)
(3.58587e-11 -1.98687e-09 0)
(-1.05144e-10 -2.03192e-09 0)
(5.451e-11 -2.20895e-09 0)
(1.13014e-10 -2.24409e-09 0)
(2.68112e-11 -1.6894e-09 0)
(4.68196e-10 -3.29014e-09 0)
(2.03183e-10 -2.07932e-09 0)
(8.30804e-11 -1.99558e-09 0)
(4.32696e-11 -2.15227e-09 0)
(0 0 0)
(0 0 0)
(1.07054e-10 -1.98451e-09 0)
(3.17943e-10 -1.89157e-09 0)
(1.05019e-10 -2.25807e-09 0)
(4.38727e-11 -2.13164e-09 0)
(3.65923e-11 -1.9767e-09 0)
(6.52215e-10 -4.43505e-09 0)
(4.55273e-11 -2.02276e-09 0)
(-2.44072e-11 -1.84078e-09 0)
(7.33224e-11 -2.13561e-09 0)
(0 0 0)
(-2.43957e-10 -2.05366e-09 0)
(-9.76913e-11 -1.99093e-09 0)
(-5.33753e-12 -2.04651e-09 0)
(6.04545e-11 -2.01422e-09 0)
(0 0 0)
(5.32372e-12 -2.00136e-09 0)
(6.05725e-11 -3.39471e-09 0)
(9.00525e-12 -3.63348e-10 0)
(-8.94099e-11 -2.10382e-09 0)
(3.76882e-11 -8.95538e-09 0)
(5.1741e-12 -1.6911e-10 0)
(5.22737e-11 -3.40431e-09 0)
(2.62645e-11 -2.3335e-09 0)
(6.68907e-11 -3.10574e-09 0)
(2.01471e-10 -2.00686e-09 0)
(-2.58497e-11 -2.13889e-09 0)
(-1.80567e-10 -2.37326e-09 0)
(-1.11056e-10 -2.39047e-09 0)
(-5.21896e-13 -8.46085e-10 0)
(6.91352e-11 -2.06691e-09 0)
(1.01052e-10 -2.14841e-09 0)
(9.98907e-11 -2.06966e-09 0)
(-8.73982e-11 -4.82389e-09 0)
(-1.02288e-10 -2.16501e-09 0)
(-1.747e-10 -2.0954e-09 0)
(4.41185e-09 6.43745e-08 0)
(7.3255e-10 -7.00333e-11 0)
(-2.17666e-10 -1.92264e-09 0)
(1.31129e-10 -2.29588e-09 0)
(5.2254e-11 -2.09513e-09 0)
(0 0 0)
(3.64651e-11 -4.15648e-09 0)
(0 0 0)
(4.02636e-11 -1.89965e-09 0)
(-2.8594e-11 -1.9478e-09 0)
(-1.97321e-10 -3.10502e-09 0)
(-2.15068e-10 -2.62226e-09 0)
(-2.56071e-10 -5.35925e-09 0)
(-1.17923e-10 -1.86972e-09 0)
(-1.16029e-10 -1.9084e-09 0)
(-3.38245e-11 -1.96074e-09 0)
(-8.23311e-11 -3.36531e-09 0)
(-6.55491e-11 -2.50182e-09 0)
(4.92538e-11 -1.71756e-09 0)
(-1.35654e-10 -1.72648e-09 0)
(-7.78299e-11 -4.50612e-09 0)
(1.16738e-10 -4.54954e-09 0)
(-5.50171e-13 -1.95431e-09 0)
(1.34044e-11 -2.80419e-09 0)
(1.6908e-11 -3.39909e-09 0)
(-2.52435e-11 -1.90746e-09 0)
(3.46381e-11 -2.06905e-09 0)
(1.78594e-11 -2.11435e-09 0)
(-9.0831e-12 -2.10472e-09 0)
(0 0 0)
(5.85209e-11 -1.99668e-09 0)
(-6.90891e-11 -4.4454e-09 0)
(2.2769e-10 -1.64314e-09 0)
(1.64333e-10 -1.95596e-09 0)
(1.6104e-10 -1.96013e-09 0)
(0 0 0)
(1.85937e-10 -2.01037e-09 0)
(1.40779e-10 -2.24355e-09 0)
(1.7919e-10 -2.37723e-09 0)
(6.49226e-11 -1.89889e-09 0)
(-4.39387e-11 -1.76651e-09 0)
(-2.73871e-11 -1.72191e-09 0)
(-1.69157e-11 -4.98539e-09 0)
(3.92076e-11 -2.02617e-09 0)
(0 0 0)
(2.36483e-10 -2.17228e-09 0)
(1.27305e-10 -1.83906e-09 0)
(-6.72779e-11 -2.78512e-09 0)
(-8.26116e-11 -3.98998e-09 0)
(0 0 0)
(-4.99499e-11 -2.03432e-09 0)
(2.67752e-12 -1.99798e-09 0)
(-1.91551e-11 -1.95688e-09 0)
(-4.79983e-11 -1.86064e-09 0)
(1.88029e-11 -4.13085e-09 0)
(2.53052e-12 -4.78592e-09 0)
(6.31006e-11 -3.55809e-09 0)
(2.2171e-10 -1.68224e-09 0)
(-5.22786e-11 -1.99758e-09 0)
(-6.57476e-11 -2.23108e-09 0)
(-8.03919e-11 -2.14386e-09 0)
(-4.88612e-12 -1.94515e-09 0)
(-5.43658e-11 -2.05998e-09 0)
(2.6929e-11 -2.50304e-09 0)
(4.85556e-13 -2.16227e-09 0)
(-9.32135e-11 -2.06641e-09 0)
(-1.184e-10 -1.9095e-09 0)
(0 0 0)
(-7.68425e-11 -2.00676e-09 0)
(2.57901e-11 -2.00172e-09 0)
(3.49809e-11 -1.82889e-09 0)
(-2.91918e-10 -8.15771e-09 0)
(-4.28018e-11 -2.16716e-09 0)
(-6.69483e-12 -2.18249e-09 0)
(-7.62866e-11 -1.00901e-09 0)
(5.95781e-09 8.01824e-08 0)
(4.40028e-10 -1.68047e-09 0)
(0 0 0)
(1.3352e-10 -1.80628e-09 0)
(1.73365e-10 -2.07873e-09 0)
(5.6605e-11 -2.08621e-09 0)
(4.05579e-11 -1.97597e-09 0)
(1.60426e-10 -4.28159e-09 0)
(1.57062e-10 -1.74167e-09 0)
(0 0 0)
(0 0 0)
(-3.57633e-11 -2.21765e-09 0)
(0 0 0)
(0 0 0)
(0 0 0)
(0 0 0)
(-1.25908e-10 -1.94959e-09 0)
(-1.97629e-10 -4.65512e-09 0)
(-6.12641e-11 -1.78759e-09 0)
(0 0 0)
(0 0 0)
(0 0 0)
(-2.89986e-11 -2.16708e-09 0)
(6.64374e-12 -2.10576e-09 0)
(-5.39114e-12 -2.02728e-09 0)
(-2.94775e-11 -2.02158e-09 0)
(-2.051e-11 -1.99779e-09 0)
(3.67756e-11 -3.21429e-09 0)
(-1.84574e-11 -2.63031e-09 0)
(-6.20876e-12 -4.01968e-10 0)
(8.45287e-11 -2.053e-09 0)
(-7.79768e-12 -2.03816e-09 0)
(-1.52446e-11 -1.76506e-09 0)
(3.40051e-10 -1.69818e-09 0)
(2.29962e-11 -1.65006e-09 0)
(9.73886e-11 -2.27885e-09 0)
(1.19675e-10 -2.31888e-09 0)
(1.02476e-10 -2.0174e-09 0)
(2.07219e-10 -1.87817e-09 0)
(9.95517e-12 -1.88473e-09 0)
(-1.52051e-12 -1.9563e-09 0)
(-6.06204e-11 -1.72995e-09 0)
(-1.16841e-10 -2.01199e-09 0)
(-1.84482e-11 -1.81115e-09 0)
(0 0 0)
(1.18131e-10 -1.87748e-09 0)
(1.68302e-10 -2.01471e-09 0)
(1.46656e-11 -4.81484e-09 0)
(-6.49781e-11 -5.00859e-09 0)
(0 0 0)
(4.19219e-11 -2.12606e-09 0)
(-1.21049e-10 -1.81684e-09 0)
(-4.97645e-11 -1.87911e-09 0)
(0 0 0)
(-6.54311e-11 -1.87615e-09 0)
(0 0 0)
(6.57825e-11 -2.83091e-09 0)
(1.00757e-10 -3.63159e-09 0)
(-1.52139e-11 -2.40786e-09 0)
(-5.26935e-11 -2.30684e-09 0)
(0 0 0)
(-2.29336e-10 -4.14371e-09 0)
(-1.3929e-10 -2.69691e-09 0)
(-1.2988e-10 -3.43573e-09 0)
(-2.11374e-10 -5.48737e-09 0)
(-8.64492e-12 -2.09305e-09 0)
(-1.57872e-11 -1.10657e-09 0)
(-5.43855e-13 -3.43453e-11 0)
(2.8923e-12 -2.00716e-09 0)
(-1.30737e-11 -1.95145e-09 0)
(-1.80653e-12 -1.0127e-10 0)
(-7.85094e-11 -2.55053e-09 0)
(-5.66915e-11 -3.94928e-09 0)
(7.39441e-11 -2.08413e-09 0)
(-4.12066e-11 -2.00522e-09 0)
(6.25713e-09 8.09816e-08 0)
(1.3393e-10 -8.32868e-11 0)
(3.75231e-10 -1.77285e-09 0)
(2.55805e-10 -2.08834e-09 0)
(1.97896e-10 -2.32717e-09 0)
(2.12655e-10 -3.10598e-09 0)
(-2.11611e-11 -3.31935e-09 0)
(1.95457e-11 -4.91337e-10 0)
(1.47261e-10 -3.28483e-09 0)
(8.53084e-11 -1.84322e-09 0)
(-1.68883e-11 -2.02469e-09 0)
(-2.18897e-10 -5.03086e-09 0)
(-8.45022e-11 -2.12873e-09 0)
(-1.22345e-10 -1.92628e-09 0)
(-1.92454e-11 -1.95485e-09 0)
(-5.06538e-11 -4.15075e-09 0)
(-1.83567e-10 -1.99043e-09 0)
(-1.03301e-10 -2.00803e-09 0)
(1.95191e-10 -2.23384e-09 0)
(-6.6525e-11 -2.01106e-09 0)
(-5.32511e-12 -2.04756e-09 0)
(7.29821e-11 -5.57351e-09 0)
(0 0 0)
(7.35583e-11 -2.11984e-09 0)
(3.04373e-11 -2.07115e-09 0)
(-4.95439e-12 -2.53215e-09 0)
(-1.02629e-11 -3.37048e-09 0)
(2.19265e-11 -3.01393e-09 0)
(1.56213e-10 -1.91996e-09 0)
(5.98922e-12 -1.78599e-09 0)
(-3.91739e-11 -2.02767e-09 0)
(2.59995e-12 -1.82777e-10 0)
(1.14062e-11 -3.82458e-09 0)
(9.31258e-12 -2.11494e-09 0)
(9.98412e-12 -1.97902e-09 0)
(1.77223e-10 -2.03351e-09 0)
(1.08946e-10 -2.06796e-09 0)
(1.2656e-10 -2.0876e-09 0)
(1.29393e-10 -2.08436e-09 0)
(1.64708e-10 -2.08852e-09 0)
(0 0 0)
(7.11593e-11 -2.10518e-09 0)
(-3.41211e-11 -2.09887e-09 0)
(-1.20759e-10 -1.97964e-09 0)
(-2.09895e-10 -3.44233e-09 0)
(3.84633e-11 -2.81799e-09 0)
(-2.11301e-11 -3.0829e-09 0)
(-8.57743e-11 -4.62111e-09 0)
(-1.40581e-10 -1.90273e-09 0)
(-9.75864e-11 -5.01782e-09 0)
(-3.56059e-11 -2.21669e-09 0)
(0 0 0)
(-1.17187e-11 -4.09626e-09 0)
(8.52269e-12 -3.85959e-09 0)
(-6.94577e-11 -1.59906e-09 0)
(-2.58097e-11 -1.86076e-09 0)
(-2.76437e-11 -1.91082e-09 0)
(-5.93399e-11 -1.96263e-09 0)
(-9.24156e-11 -2.09649e-09 0)
(-5.93236e-11 -2.13812e-09 0)
(-9.96736e-11 -2.13494e-09 0)
(-1.01033e-10 -1.92984e-09 0)
(-2.39726e-10 -4.7988e-09 0)
(1.54644e-11 -2.23589e-09 0)
(-5.76708e-13 -3.25443e-11 0)
(-3.25337e-11 -2.07723e-09 0)
(9.28818e-11 -1.92794e-09 0)
(8.95627e-11 -2.02622e-09 0)
(3.00006e-11 -2.02204e-09 0)
(-3.25024e-11 -2.00742e-09 0)
(-9.87405e-11 -4.56172e-09 0)
(-8.77597e-11 -1.89735e-09 0)
(-9.56445e-11 -2.97726e-09 0)
(-2.47345e-11 -4.21198e-09 0)
(-3.60166e-11 -2.15103e-09 0)
(-3.32188e-09 7.41137e-08 0)
(3.11107e-11 -5.79635e-11 0)
(1.4352e-10 -2.00381e-09 0)
(2.14755e-10 -2.289e-09 0)
(1.92834e-10 -2.19571e-09 0)
(2.19635e-10 -2.10336e-09 0)
(-7.68997e-12 -2.05243e-09 0)
(6.41599e-11 -1.99036e-09 0)
(-2.08013e-11 -1.85277e-09 0)
(-1.0282e-10 -2.06505e-09 0)
(8.61453e-11 -2.22256e-09 0)
(-1.05441e-11 -2.03549e-09 0)
(6.4205e-11 -4.42616e-09 0)
(1.74031e-10 -4.18316e-09 0)
(2.9188e-10 -4.5837e-09 0)
(-3.45033e-11 -1.92281e-09 0)
(-4.44621e-11 -2.01013e-09 0)
(-8.4534e-11 -1.96802e-09 0)
(-8.41722e-11 -2.01004e-09 0)
(-2.12162e-11 -2.07452e-09 0)
(-8.0121e-12 -7.53428e-10 0)
(-8.6466e-12 -8.02024e-10 0)
(9.4946e-11 -2.2212e-09 0)
(8.12427e-11 -2.07085e-09 0)
(3.94036e-11 -2.03973e-09 0)
(3.30136e-11 -2.02909e-09 0)
(-1.28635e-11 -2.03198e-09 0)
(3.12095e-11 -1.93029e-09 0)
(4.24248e-11 -2.0618e-09 0)
(0 0 0)
(9.63954e-13 -3.37478e-11 0)
(1.32956e-11 -4.25236e-09 0)
(-3.23111e-11 -2.84889e-09 0)
(-2.85919e-11 -4.3858e-09 0)
(2.72726e-10 -3.02945e-09 0)
(1.38389e-10 -1.9806e-09 0)
(9.97426e-11 -2.06963e-09 0)
(4.93753e-11 -2.12088e-09 0)
(0 0 0)
(2.90996e-11 -3.35554e-10 0)
(1.89958e-10 -2.12162e-09 0)
(1.98477e-10 -4.43572e-09 0)
(-6.18307e-11 -1.97277e-09 0)
(-7.79683e-11 -1.81185e-09 0)
(-1.91186e-11 -1.76544e-09 0)
(5.42307e-11 -1.49799e-09 0)
(-3.96717e-11 -1.68872e-09 0)
(-9.57369e-11 -1.82687e-09 0)
(-1.59158e-10 -2.14511e-09 0)
(-1.51601e-10 -2.1964e-09 0)
(-3.18579e-11 -2.23761e-09 0)
(1.51259e-10 -2.15786e-09 0)
(8.51792e-11 -1.95756e-09 0)
(-1.17669e-11 -1.8569e-09 0)
(0 0 0)
(-6.13333e-11 -1.97953e-09 0)
(-1.31592e-11 -2.05693e-09 0)
(-3.81599e-11 -2.04672e-09 0)
(-7.77975e-11 -2.73667e-09 0)
(6.94721e-11 -4.50987e-09 0)
(0 0 0)
(-1.17742e-10 -1.95054e-09 0)
(-1.99646e-10 -2.08568e-09 0)
(-2.23463e-10 -2.30358e-09 0)
(1.59407e-11 -2.53784e-09 0)
(-3.59563e-13 -1.74735e-09 0)
(7.33848e-11 -1.98361e-09 0)
(6.61965e-11 -2.05221e-09 0)
(1.91232e-11 -2.03936e-09 0)
(-5.9286e-11 -2.08798e-09 0)
(-1.17441e-10 -2.05539e-09 0)
(-5.97209e-11 -2.14393e-09 0)
(-5.42358e-11 -9.07941e-10 0)
(-1.53507e-10 -3.65031e-09 0)
(4.83342e-12 -5.82459e-10 0)
(5.36394e-09 9.20097e-08 0)
(3.35815e-10 3.99231e-10 0)
(1.63295e-10 -2.03119e-09 0)
(2.56791e-10 -2.02433e-09 0)
(1.30592e-10 -2.17154e-09 0)
(7.15688e-11 -2.08716e-09 0)
(-7.13011e-12 -2.05836e-09 0)
(-3.77821e-11 -1.9412e-09 0)
(-1.27631e-10 -4.23465e-09 0)
(-1.15676e-10 -2.12817e-09 0)
(-1.04389e-10 -1.81046e-09 0)
(1.71366e-10 -4.18552e-09 0)
(0 0 0)
(1.46488e-10 -2.04679e-09 0)
(0 0 0)
(-8.28267e-11 -2.10158e-09 0)
(-8.98868e-11 -2.05231e-09 0)
(0 0 0)
(-1.9868e-11 -1.97763e-09 0)
(-2.55167e-11 -2.16524e-09 0)
(0 0 0)
(8.77354e-12 -2.17324e-09 0)
(-4.71683e-11 -4.7481e-09 0)
(-2.81056e-11 -2.02544e-09 0)
(9.76908e-11 -2.01091e-09 0)
(1.06439e-10 -2.04415e-09 0)
(4.00181e-11 -2.10389e-09 0)
(1.98501e-11 -2.014e-09 0)
(4.38194e-12 -5.00491e-09 0)
(-9.05219e-11 -1.70045e-09 0)
(1.57797e-10 -4.37659e-09 0)
(0 0 0)
(0 0 0)
(5.03458e-11 -2.32419e-09 0)
(1.35113e-10 -4.0037e-09 0)
(7.53974e-11 -1.87827e-09 0)
(0 0 0)
(4.45955e-13 -4.56466e-11 0)
(2.11491e-11 -2.01204e-09 0)
(8.99756e-11 -2.08048e-09 0)
(1.29827e-10 -4.59259e-09 0)
(2.50131e-10 -4.93404e-09 0)
(5.33865e-11 -1.94512e-09 0)
(-5.86912e-12 -1.82672e-09 0)
(-4.72043e-11 -1.69471e-09 0)
(0 0 0)
(0 0 0)
(-1.25542e-10 -1.98082e-09 0)
(-5.91071e-11 -1.03665e-09 0)
(-2.88873e-11 -8.83978e-10 0)
(6.0915e-12 -2.07264e-09 0)
(1.79553e-10 -4.56447e-09 0)
(2.54682e-11 -1.90978e-09 0)
(1.72508e-11 -1.85978e-09 0)
(0 0 0)
(-8.3939e-11 -1.95505e-09 0)
(-7.89161e-11 -1.98941e-09 0)
(-6.73612e-11 -1.98959e-09 0)
(-2.94024e-10 -4.47424e-09 0)
(-2.25776e-10 -2.06905e-09 0)
(3.50339e-11 -4.58672e-09 0)
(-6.34669e-11 -1.86863e-09 0)
(-3.16033e-10 -2.05138e-09 0)
(-1.68479e-10 -2.19248e-09 0)
(-6.97422e-11 -1.99508e-09 0)
(5.5655e-11 -2.02492e-09 0)
(1.9514e-11 -1.99441e-09 0)
(1.40452e-12 -1.98783e-09 0)
(-3.43392e-11 -2.14789e-09 0)
(-5.58264e-11 -2.23993e-09 0)
(-1.43104e-10 -2.0748e-09 0)
(-5.30962e-11 -1.18843e-09 0)
(-4.76435e-11 -2.87164e-09 0)
(0 0 0)
(-2.0141e-12 -2.24223e-09 0)
(-2.95404e-09 8.85686e-08 0)
(-1.07315e-09 1.44043e-09 0)
(5.16253e-11 -2.02498e-09 0)
(1.90435e-10 -5.3562e-09 0)
(8.63115e-11 -2.03791e-09 0)
(8.54893e-12 -1.89818e-09 0)
(6.39766e-11 -2.01602e-09 0)
(0 0 0)
(1.68811e-11 -2.05121e-09 0)
(0 0 0)
(-4.24158e-11 -1.94739e-09 0)
(-6.2898e-11 -2.01845e-09 0)
(1.07465e-11 -1.97937e-09 0)
(1.24963e-10 -1.96251e-09 0)
(-2.35885e-10 -4.36834e-09 0)
(2.13289e-11 -2.11077e-09 0)
(-1.17618e-10 -2.24226e-09 0)
(-7.9164e-11 -2.03134e-09 0)
(6.27677e-11 -4.38187e-09 0)
(4.22799e-11 -1.9634e-09 0)
(0 0 0)
(0 0 0)
(0 0 0)
(0 0 0)
(8.34859e-11 -2.13667e-09 0)
(0 0 0)
(0 0 0)
(0 0 0)
(-1.87691e-11 -2.25136e-09 0)
(-1.54728e-11 -2.11698e-09 0)
(0 0 0)
(1.62664e-10 -1.99066e-09 0)
(4.04952e-11 -4.31799e-09 0)
(-2.3182e-11 -1.95198e-09 0)
(-2.88869e-11 -1.9038e-09 0)
(6.65059e-12 -1.90498e-09 0)
(2.02238e-10 -5.19125e-09 0)
(1.06621e-11 -1.93117e-09 0)
(0 0 0)
(9.83473e-11 -1.88272e-09 0)
(0 0 0)
(1.46985e-10 -5.14412e-09 0)
(-1.75055e-10 -1.72442e-09 0)
(-1.6921e-11 -1.78334e-09 0)
(-1.84379e-10 -3.93871e-09 0)
(-8.15776e-11 -1.98958e-09 0)
(-7.6733e-11 -2.01117e-09 0)
(-3.62704e-11 -2.08745e-09 0)
(-2.96405e-12 -1.77746e-09 0)
(0 0 0)
(3.96154e-11 -2.11299e-09 0)
(2.29885e-11 -2.19766e-09 0)
(4.1797e-11 -2.02153e-09 0)
(3.19547e-11 -4.84796e-09 0)
(-8.62986e-11 -1.8963e-09 0)
(-1.92928e-11 -2.00551e-09 0)
(-5.59539e-11 -2.00459e-09 0)
(-8.98573e-11 -2.00211e-09 0)
(-1.5682e-10 -1.9929e-09 0)
(-1.62461e-10 -2.01136e-09 0)
(-1.78974e-10 -3.19247e-09 0)
(-1.39551e-10 -3.41105e-09 0)
(0 0 0)
(3.67761e-11 -2.14175e-09 0)
(4.00735e-11 -2.01495e-09 0)
(-5.37486e-11 -1.97173e-09 0)
(-1.30224e-12 -4.50168e-09 0)
(-4.87855e-11 -2.18515e-09 0)
(-4.78416e-11 -2.36991e-09 0)
(-1.13181e-10 -2.20501e-09 0)
(-1.6058e-10 -1.88744e-09 0)
(-9.94081e-12 -6.1933e-10 0)
(-2.16834e-11 -1.13205e-09 0)
(7.89519e-11 -2.43487e-09 0)
(4.52212e-11 -2.09483e-09 0)
(-2.52227e-09 6.85602e-08 0)
(-7.12861e-10 -3.80716e-10 0)
(4.37946e-11 -2.02441e-09 0)
(2.36343e-11 -2.20251e-09 0)
(9.91263e-11 -2.27676e-09 0)
(8.23206e-12 -2.10778e-09 0)
(6.66579e-12 -1.99478e-09 0)
(8.73107e-11 -1.98826e-09 0)
(1.33127e-10 -2.03993e-09 0)
(-4.43941e-12 -4.53296e-09 0)
(5.39044e-11 -2.6115e-09 0)
(0 0 0)
(-7.60757e-11 -1.98075e-09 0)
(0 0 0)
(4.86194e-11 -2.02329e-09 0)
(5.13592e-11 -2.23372e-09 0)
(0 0 0)
(-1.5784e-11 -2.05862e-09 0)
(6.44227e-11 -2.05308e-09 0)
(1.02451e-10 -1.8862e-09 0)
(7.96551e-11 -2.15117e-09 0)
(1.43532e-10 -2.32041e-09 0)
(1.68297e-12 -6.31286e-11 0)
(7.68784e-11 -3.38048e-09 0)
(-2.09277e-11 -3.07517e-09 0)
(1.39972e-10 -1.90413e-09 0)
(2.57825e-11 -7.18776e-10 0)
(3.09647e-11 -8.22153e-10 0)
(3.71317e-11 -2.11129e-09 0)
(-1.22511e-10 -2.07235e-09 0)
(-1.58136e-12 -1.95312e-09 0)
(-3.15894e-11 -4.23977e-09 0)
(-2.77333e-11 -2.00519e-09 0)
(-1.70434e-13 -1.98373e-09 0)
(8.70831e-12 -1.97326e-09 0)
(0 0 0)
(3.72101e-11 -2.39859e-09 0)
(9.90205e-11 -2.09434e-09 0)
(1.41339e-10 -1.77908e-09 0)
(2.88312e-11 -4.42362e-09 0)
(-2.97871e-11 -4.62523e-09 0)
(5.00472e-11 -4.98444e-09 0)
(1.10327e-10 -1.90305e-09 0)
(-3.26921e-11 -5.85471e-10 0)
(-3.92153e-11 -6.30551e-10 0)
(-2.78541e-11 -1.92745e-09 0)
(-8.02191e-11 -1.89393e-09 0)
(-3.25121e-10 -4.06819e-09 0)
(-1.2273e-10 -2.11014e-09 0)
(-2.70886e-11 -2.1223e-09 0)
(1.08459e-10 -2.3168e-09 0)
(4.80209e-12 -1.24206e-10 0)
(7.58311e-11 -1.99872e-09 0)
(-4.80748e-11 -2.08153e-09 0)
(-4.03584e-11 -2.03354e-09 0)
(-1.19046e-11 -2.04659e-09 0)
(-8.40066e-11 -2.00909e-09 0)
(-9.35537e-11 -2.00707e-09 0)
(-1.2488e-10 -1.98258e-09 0)
(-9.07266e-11 -2.06677e-09 0)
(-1.3207e-10 -2.03169e-09 0)
(-1.6735e-10 -2.10653e-09 0)
(-7.31641e-12 -2.21489e-09 0)
(2.36143e-11 -2.16361e-09 0)
(-6.31188e-11 -2.14693e-09 0)
(0 0 0)
(-1.11444e-10 -4.59076e-09 0)
(-9.76562e-11 -2.0128e-09 0)
(-5.17694e-11 -2.12061e-09 0)
(-2.31068e-11 -2.23886e-09 0)
(-1.92665e-11 -2.10816e-09 0)
(-2.5536e-12 -2.09144e-09 0)
(-1.83153e-11 -2.07804e-09 0)
(5.46347e-11 -2.12354e-09 0)
(5.20142e-11 -2.09e-09 0)
(-3.64734e-09 6.48353e-08 0)
(5.8371e-10 -2.25067e-09 0)
(3.07246e-10 -1.74516e-09 0)
(-2.61084e-11 -2.10859e-09 0)
(2.48798e-11 -2.38277e-09 0)
(0 0 0)
(4.12049e-11 -2.06279e-09 0)
(8.25654e-11 -2.00579e-09 0)
(0 0 0)
(-6.84789e-11 -4.53101e-09 0)
(-2.2374e-10 -3.06759e-09 0)
(9.16813e-11 -3.25207e-09 0)
(1.0864e-10 -1.9358e-09 0)
(-1.00243e-12 -7.07427e-11 0)
(-3.80467e-11 -2.0431e-09 0)
(-7.5602e-11 -2.31009e-09 0)
(6.28029e-13 -2.26383e-09 0)
(0 0 0)
(0 0 0)
(1.02361e-10 -2.28759e-09 0)
(9.35777e-11 -2.09026e-09 0)
(6.64436e-11 -2.00984e-09 0)
(3.61826e-10 -5.13283e-09 0)
(9.04619e-11 -1.86267e-09 0)
(1.08386e-10 -1.78657e-09 0)
(5.41547e-11 -1.78038e-09 0)
(8.98075e-11 -1.89573e-09 0)
(-3.12868e-11 -3.70973e-09 0)
(-8.0655e-12 -2.78655e-09 0)
(3.87497e-11 -1.83128e-09 0)
(5.95828e-11 -1.90876e-09 0)
(3.41204e-11 -2.05102e-09 0)
(-3.60547e-11 -2.06398e-09 0)
(1.93161e-11 -2.0062e-09 0)
(1.43528e-11 -1.99101e-09 0)
(4.81148e-11 -1.97366e-09 0)
(8.33619e-11 -2.13231e-09 0)
(1.76126e-10 -2.11468e-09 0)
(5.15888e-11 -1.86665e-09 0)
(-1.67683e-10 -2.07803e-09 0)
(-1.10135e-11 -2.08424e-09 0)
(5.62676e-12 -1.5607e-10 0)
(8.83275e-11 -1.82902e-09 0)
(2.97828e-11 -1.99782e-09 0)
(-1.24399e-10 -1.91456e-09 0)
(-1.77929e-10 -1.96008e-09 0)
(-8.75885e-12 -2.21923e-10 0)
(-6.54971e-11 -1.43313e-09 0)
(-7.50523e-11 -2.01989e-09 0)
(-8.27774e-11 -2.03899e-09 0)
(-1.05387e-11 -2.03121e-09 0)
(3.40627e-10 -5.28805e-09 0)
(9.44075e-11 -2.10543e-09 0)
(-8.25868e-11 -1.86115e-09 0)
(-1.31006e-11 -1.91439e-09 0)
(-1.45095e-12 -4.6266e-10 0)
(-1.72819e-10 -3.50978e-09 0)
(-7.98136e-11 -1.87088e-09 0)
(-6.35204e-11 -1.98406e-09 0)
(-7.29689e-11 -2.12203e-09 0)
(-5.02652e-11 -2.03316e-09 0)
(-1.15809e-10 -2.14296e-09 0)
(-1.959e-11 -2.17602e-09 0)
(-2.36932e-11 -2.12199e-09 0)
(-1.01896e-10 -2.20447e-09 0)
(-7.45614e-11 -1.99029e-09 0)
(-1.24215e-10 -2.04085e-09 0)
(-1.68746e-10 -3.09032e-09 0)
(-7.24581e-11 -1.10723e-09 0)
(-5.74368e-11 -2.17861e-09 0)
(1.1229e-11 -2.13928e-09 0)
(5.37244e-11 -2.08482e-09 0)
(2.12331e-11 -2.12527e-09 0)
(4.21268e-11 -2.2588e-09 0)
(2.41897e-10 -2.21944e-09 0)
(-3.12484e-09 6.07646e-08 0)
(2.28045e-09 -2.13022e-10 0)
(1.20581e-10 -2.16187e-09 0)
(0 0 0)
(5.11327e-11 -2.1019e-09 0)
(7.70043e-11 -2.09267e-09 0)
(9.60231e-11 -2.02235e-09 0)
(8.70604e-11 -1.95649e-09 0)
(2.43443e-10 -4.59473e-09 0)
(5.14021e-12 -2.00367e-09 0)
(1.35727e-10 -1.89722e-09 0)
(1.72879e-10 -3.25649e-09 0)
(1.51028e-10 -3.07744e-09 0)
(-8.22259e-13 -6.55912e-10 0)
(-5.60596e-12 -9.24698e-10 0)
(-6.45931e-11 -2.09909e-09 0)
(1.31477e-11 -2.49807e-09 0)
(7.43836e-11 -2.97315e-09 0)
(9.62411e-11 -3.23702e-09 0)
(-7.74059e-11 -1.88686e-09 0)
(-5.62202e-11 -5.05173e-09 0)
(1.35116e-11 -1.89261e-09 0)
(4.22784e-11 -2.04267e-09 0)
(1.33067e-10 -3.72281e-09 0)
(1.01865e-10 -2.53001e-09 0)
(9.02761e-11 -1.85962e-09 0)
(1.00758e-11 -2.18456e-09 0)
(1.31977e-11 -1.99258e-09 0)
(-2.86631e-11 -1.9387e-09 0)
(2.0119e-11 -1.8513e-09 0)
(4.92381e-11 -1.87775e-09 0)
(3.24121e-11 -4.95854e-09 0)
(2.08469e-11 -1.8687e-09 0)
(1.23279e-11 -7.80301e-10 0)
(1.23284e-11 -9.56914e-10 0)
(-3.2518e-11 -3.49443e-09 0)
(-6.54704e-12 -4.17523e-09 0)
(-5.13309e-11 -4.4739e-09 0)
(8.93091e-11 -4.87537e-09 0)
(0 0 0)
(-1.36098e-10 -1.99668e-09 0)
(-4.62734e-11 -1.8937e-09 0)
(1.94328e-11 -2.32351e-09 0)
(0 0 0)
(-1.50638e-10 -4.43146e-09 0)
(-6.4149e-11 -1.84157e-09 0)
(-3.05442e-11 -1.91726e-09 0)
(-9.63246e-11 -1.97739e-09 0)
(8.43058e-12 -2.10383e-09 0)
(-2.9629e-11 -2.04157e-09 0)
(-4.71028e-11 -2.01607e-09 0)
(1.93644e-11 -2.07459e-09 0)
(2.5239e-10 -5.4299e-09 0)
(4.25352e-12 -2.00586e-10 0)
(3.47787e-11 -2.7943e-09 0)
(-7.90259e-13 -7.32769e-10 0)
(-6.34705e-12 -1.99668e-09 0)
(-7.21886e-11 -2.012e-09 0)
(-3.08713e-11 -2.0215e-09 0)
(-8.76027e-12 -2.04364e-09 0)
(3.71505e-11 -2.04201e-09 0)
(-4.65663e-11 -3.14279e-09 0)
(-2.41714e-10 -3.23783e-09 0)
(-5.47087e-11 -2.78971e-09 0)
(-1.88473e-11 -1.92775e-09 0)
(-8.13637e-11 -1.86565e-09 0)
(-9.87836e-11 -1.99613e-09 0)
(-1.12161e-10 -2.02125e-09 0)
(-7.25882e-11 -2.0531e-09 0)
(-5.49185e-11 -2.03841e-09 0)
(8.35693e-12 -2.11892e-09 0)
(-2.40583e-11 -1.92754e-09 0)
(2.78965e-12 -6.87351e-10 0)
(3.78563e-12 -7.49193e-10 0)
(-8.7501e-11 -5.14083e-09 0)
(9.15134e-10 8.18156e-08 0)
(-2.11339e-10 -9.57839e-10 0)
(3.38449e-10 -2.79396e-09 0)
(9.78636e-11 -3.14128e-09 0)
(9.84458e-11 -1.88025e-09 0)
(6.7444e-11 -1.80276e-09 0)
(7.71197e-11 -1.88956e-09 0)
(8.70894e-11 -1.92736e-09 0)
(1.24044e-10 -2.34871e-09 0)
(0 0 0)
(1.22933e-10 -2.12292e-09 0)
(-3.56194e-12 -1.96289e-09 0)
(8.52008e-11 -2.06461e-09 0)
(7.49643e-11 -2.31068e-09 0)
(4.94007e-11 -2.15151e-09 0)
(1.32511e-11 -2.09044e-09 0)
(-6.59808e-11 -1.96445e-09 0)
(-2.69793e-10 -5.18666e-09 0)
(-1.83959e-10 -1.94478e-09 0)
(-3.31437e-11 -2.15889e-09 0)
(-1.86201e-10 -1.89666e-09 0)
(-2.43994e-11 -2.02492e-09 0)
(4.47654e-11 -5.05923e-09 0)
(2.7257e-11 -1.96909e-09 0)
(1.88842e-11 -1.88073e-09 0)
(9.21307e-11 -1.93106e-09 0)
(-1.45842e-11 -1.95531e-09 0)
(-5.35139e-12 -2.02525e-09 0)
(4.70123e-11 -3.80608e-09 0)
(4.57009e-11 -2.29628e-09 0)
(1.87251e-11 -1.94461e-09 0)
(-7.88883e-11 -2.11482e-09 0)
(7.30643e-12 -2.0024e-09 0)
(2.85149e-11 -2.95892e-09 0)
(1.22026e-11 -2.98104e-09 0)
(-1.50243e-10 -1.78172e-09 0)
(1.83743e-12 -2.17386e-09 0)
(-5.65115e-13 -4.11425e-11 0)
(-3.82564e-11 -2.07777e-09 0)
(0 0 0)
(1.77309e-11 -4.53218e-09 0)
(-2.59561e-11 -1.844e-09 0)
(-5.0811e-11 -2.17705e-09 0)
(0 0 0)
(4.69131e-11 -2.05006e-09 0)
(-1.73548e-11 -1.88002e-09 0)
(3.41381e-11 -2.14604e-09 0)
(4.1634e-11 -2.03348e-09 0)
(5.08094e-11 -2.10877e-09 0)
(-3.12325e-11 -2.162e-09 0)
(-9.96295e-11 -3.67001e-09 0)
(4.867e-11 -3.02157e-09 0)
(4.1363e-11 -2.16199e-09 0)
(1.55999e-10 -2.15444e-09 0)
(-1.09694e-11 -2.0715e-09 0)
(-8.42911e-11 -1.98646e-09 0)
(-9.2497e-11 -1.89522e-09 0)
(-8.78383e-11 -2.49034e-09 0)
(-6.05556e-11 -2.36587e-09 0)
(2.08829e-12 -1.64591e-09 0)
(-1.18425e-10 -2.48321e-09 0)
(-4.42925e-10 -3.75723e-09 0)
(-2.47695e-11 -6.6026e-10 0)
(-3.46305e-11 -8.43264e-10 0)
(-1.64091e-11 -1.98485e-09 0)
(-5.26947e-11 -3.24236e-09 0)
(-9.05416e-11 -3.29832e-09 0)
(-1.41911e-10 -2.00901e-09 0)
(-7.58956e-11 -1.96675e-09 0)
(-3.29294e-11 -1.94036e-09 0)
(7.45912e-12 -1.95752e-09 0)
(7.4413e-12 -2.06114e-09 0)
(4.95894e-11 -2.09944e-09 0)
(-3.27177e-11 -2.10174e-09 0)
(0 0 0)
(8.51016e-10 8.15095e-08 0)
(-4.54047e-10 1.32848e-10 0)
(2.78659e-10 -1.93134e-09 0)
(9.33909e-11 -2.15016e-09 0)
(3.95522e-10 -4.78309e-09 0)
(7.33305e-11 -1.88456e-09 0)
(1.06179e-10 -2.05624e-09 0)
(0 0 0)
(4.89632e-11 -2.11013e-09 0)
(2.38339e-10 -2.41535e-09 0)
(1.50815e-11 -2.01952e-09 0)
(-6.27271e-11 -1.98128e-09 0)
(-4.35048e-11 -2.00368e-09 0)
(-6.79943e-11 -2.33028e-09 0)
(2.14949e-11 -2.86901e-09 0)
(-1.2863e-12 -3.71891e-09 0)
(-4.40269e-11 -1.96967e-09 0)
(-1.60991e-11 -5.27725e-10 0)
(-3.16091e-11 -2.04107e-09 0)
(6.80037e-12 -2.04548e-09 0)
(-1.07507e-10 -4.33138e-09 0)
(-1.64315e-12 -2.76326e-10 0)
(-1.38415e-11 -1.67426e-09 0)
(5.35128e-11 -2.2393e-09 0)
(1.16067e-10 -3.3872e-09 0)
(3.18633e-11 -2.81198e-09 0)
(-9.54136e-11 -1.88706e-09 0)
(-4.19442e-11 -2.08892e-09 0)
(-1.0518e-11 -2.03496e-09 0)
(5.12541e-11 -3.29957e-09 0)
(6.09798e-11 -3.16618e-09 0)
(3.38465e-12 -5.32963e-10 0)
(8.91344e-12 -1.16337e-09 0)
(-1.69526e-11 -1.95961e-09 0)
(-3.44588e-11 -1.9834e-09 0)
(-7.16032e-11 -1.97991e-09 0)
(-5.48414e-11 -2.07409e-09 0)
(4.23832e-11 -2.17149e-09 0)
(5.0208e-11 -2.19497e-09 0)
(0 0 0)
(0 0 0)
(3.13494e-12 -2.00384e-09 0)
(2.39027e-12 -2.15588e-09 0)
(0 0 0)
(0 0 0)
(6.65233e-11 -2.04259e-09 0)
(9.82606e-11 -1.95641e-09 0)
(3.70585e-11 -2.66656e-09 0)
(8.59443e-11 -4.29871e-09 0)
(-3.41388e-12 -2.03863e-09 0)
(4.46594e-12 -1.94378e-09 0)
(1.67522e-11 -9.52933e-10 0)
(1.25957e-11 -4.92263e-10 0)
(6.24931e-12 -2.32984e-09 0)
(-5.8582e-11 -2.1082e-09 0)
(-6.9547e-11 -2.08521e-09 0)
(-5.16022e-11 -2.03644e-09 0)
(-5.48362e-11 -1.9702e-09 0)
(-1.55218e-10 -1.97663e-09 0)
(-1.80297e-10 -4.7287e-09 0)
(-2.0288e-10 -3.17652e-09 0)
(-2.63582e-11 -7.47773e-10 0)
(1.38214e-12 -2.02138e-09 0)
(9.55167e-12 -1.9794e-09 0)
(1.26867e-11 -5.08825e-09 0)
(-7.59879e-11 -1.99855e-09 0)
(-8.02718e-11 -1.96991e-09 0)
(-6.45428e-11 -2.00636e-09 0)
(-7.15451e-11 -2.00867e-09 0)
(-3.7915e-11 -2.10679e-09 0)
(-7.78318e-12 -1.99487e-09 0)
(8.0227e-12 -2.82306e-09 0)
(2.87391e-11 -3.93837e-09 0)
(-4.87388e-11 -1.98198e-09 0)
(-6.72518e-11 -1.95983e-09 0)
(4.53414e-10 8.17143e-08 0)
(-2.8964e-10 -1.20993e-09 0)
(2.93793e-10 -1.80573e-09 0)
(7.66425e-11 -2.04132e-09 0)
(1.66925e-10 -2.15744e-09 0)
(8.44699e-11 -2.12696e-09 0)
(3.71751e-11 -2.04495e-09 0)
(1.13269e-10 -2.0123e-09 0)
(1.58559e-10 -1.94139e-09 0)
(9.39528e-11 -2.77371e-09 0)
(1.77392e-11 -2.68447e-09 0)
(-6.01978e-12 -7.36566e-10 0)
(4.65318e-11 -2.14164e-09 0)
(-5.6562e-11 -1.56013e-09 0)
(8.45155e-11 -1.98157e-09 0)
(-9.68379e-11 -2.25101e-09 0)
(-7.84466e-11 -2.02503e-09 0)
(-2.80401e-11 -1.97798e-09 0)
(-1.42538e-11 -2.11112e-09 0)
(5.48285e-11 -2.17764e-09 0)
(-6.03988e-11 -2.24393e-09 0)
(0 0 0)
(-3.40461e-11 -2.28018e-09 0)
(2.36262e-11 -2.22896e-09 0)
(6.24389e-11 -2.13708e-09 0)
(2.01379e-11 -2.11604e-09 0)
(2.27548e-11 -2.02572e-09 0)
(-2.2577e-11 -2.06537e-09 0)
(-1.04278e-11 -2.05275e-09 0)
(-1.7228e-11 -4.67041e-09 0)
(-2.88293e-11 -2.01003e-09 0)
(3.5565e-11 -2.12217e-09 0)
(-4.36624e-11 -2.05725e-09 0)
(-2.72713e-11 -1.99449e-09 0)
(0 0 0)