/*--------------------------------*- C++ -*----------------------------------*\
  =========                 |
  \\      /  F ield         | OpenFOAM: The Open Source CFD Toolbox
   \\    /   O peration     | Website:  https://openfoam.org
    \\  /    A nd           | Version:  12
     \\/     M anipulation  |
\*---------------------------------------------------------------------------*/
FoamFile
{
    format      ascii;
    class       volScalarField::Internal;
    location    "0.45";
    object      cloud:UCoeff;
}
// * * * * * * * * * * * * * * * * * * * * * * * * * * * * * * * * * * * * * //

dimensions      [1 0 0 0 0 0 0];

value           nonuniform List<scalar> 
3750
(
1.18203e-05
9.91411e-08
5.67075e-08
5.76762e-08
5.68701e-08
5.83204e-08
5.74235e-08
5.87866e-08
1.28151e-08
3.23766e-08
5.71879e-08
5.75161e-08
1.4138e-07
5.77157e-08
5.30966e-08
5.53413e-08
5.41521e-08
5.48491e-08
5.70425e-08
6.14531e-08
0
5.76375e-08
1.41536e-07
5.87825e-08
5.67079e-08
9.8408e-08
7.69025e-09
5.78987e-08
5.71663e-08
5.66815e-08
5.69361e-08
5.60035e-08
5.80266e-08
1.39482e-07
0
5.9767e-08
0
5.92831e-08
5.72167e-08
5.66532e-08
5.0941e-08
0
5.79034e-08
0
0
2.21704e-07
1.26319e-07
0
5.84012e-08
5.89214e-08
2.27253e-08
1.45765e-08
5.68097e-08
5.84727e-08
5.83137e-08
1.38883e-07
5.6409e-08
1.32614e-07
5.77728e-08
5.79915e-08
5.92525e-08
5.86397e-08
5.89258e-08
5.85218e-08
1.41308e-07
5.77488e-08
5.59284e-08
5.63407e-08
5.65744e-08
0
5.73071e-08
5.80152e-08
1.41614e-07
5.81969e-08
5.5789e-08
7.6699e-06
1.62119e-07
2.23374e-07
0
1.31824e-07
1.35002e-07
1.36676e-07
5.47791e-08
0
0
5.78486e-08
0
5.91198e-08
5.94538e-08
5.68599e-08
1.34765e-07
1.39789e-07
5.64263e-08
0
0
5.80159e-08
0
5.97157e-08
0
1.33481e-07
2.22644e-07
1.33123e-07
5.50389e-08
5.70905e-08
0
0
1.37188e-07
5.95722e-08
0
5.69373e-08
5.73287e-08
0
1.34033e-07
5.46153e-08
1.33861e-07
1.35756e-07
5.51973e-08
0
5.74173e-08
5.5736e-08
6.08601e-08
1.34082e-07
5.79092e-08
7.94524e-09
1.22073e-07
5.59513e-08
0
0
5.81647e-08
5.78305e-08
1.01163e-07
1.25705e-08
0
0
5.97366e-08
1.42623e-07
0
5.8078e-08
0
0
5.77741e-08
5.49798e-08
2.3204e-07
5.40625e-08
5.76204e-08
5.97284e-08
0
5.95444e-08
5.84295e-08
0
1.18263e-05
2.06459e-07
1.9711e-08
0
0
1.38761e-07
0
5.59984e-08
7.43601e-08
1.15462e-07
5.48603e-08
2.41244e-07
5.60813e-08
5.67283e-08
6.09499e-08
5.68246e-08
5.81462e-08
5.41317e-08
5.56997e-08
9.32176e-08
1.01396e-07
2.06363e-08
9.51151e-08
0
6.01914e-08
5.36792e-08
1.30709e-07
6.47544e-08
4.67758e-08
5.7043e-08
5.75583e-08
5.94101e-08
5.97972e-08
5.87867e-08
1.17345e-07
5.81444e-08
5.71533e-08
5.88162e-08
0
0
5.70455e-08
5.62838e-08
6.19371e-08
5.66018e-08
5.69319e-08
1.37349e-07
5.74354e-08
5.54166e-08
5.86498e-08
0
5.79189e-08
5.71099e-08
5.76865e-08
5.73472e-08
0
5.71975e-08
1.0041e-07
1.12546e-08
5.83198e-08
2.53512e-07
4.85184e-09
1.00149e-07
6.16699e-08
7.85021e-08
5.73673e-08
5.86729e-08
6.96439e-08
7.16005e-08
2.60891e-08
5.7918e-08
5.87962e-08
5.79609e-08
1.4066e-07
5.89713e-08
5.82886e-08
8.74577e-06
1.67791e-07
5.64686e-08
6.03367e-08
5.8214e-08
0
1.33703e-07
0
5.60813e-08
5.6613e-08
9.15995e-08
8.90896e-08
1.4598e-07
5.57831e-08
5.62134e-08
5.67563e-08
1.0045e-07
8.01267e-08
5.40045e-08
5.41633e-08
1.37431e-07
1.37872e-07
5.66824e-08
8.2056e-08
1.05242e-07
5.61655e-08
5.79316e-08
5.84121e-08
5.83094e-08
0
5.71559e-08
1.36777e-07
5.33055e-08
5.67767e-08
5.68191e-08
0
5.73889e-08
5.98079e-08
6.11895e-08
5.60805e-08
5.45717e-08
5.405e-08
1.42267e-07
5.7471e-08
0
5.91565e-08
5.54453e-08
8.35156e-08
1.08966e-07
0
5.75616e-08
5.71606e-08
5.67117e-08
5.56461e-08
1.33449e-07
1.53763e-07
1.14011e-07
5.37538e-08
5.71638e-08
5.96435e-08
5.87395e-08
5.65815e-08
5.78386e-08
6.23697e-08
5.89168e-08
5.7923e-08
5.62273e-08
0
5.72721e-08
5.72031e-08
5.52838e-08
2.46043e-07
5.89726e-08
5.9129e-08
2.75808e-08
9.12197e-06
2.29847e-07
0
5.5079e-08
5.81097e-08
5.81202e-08
5.69248e-08
1.35224e-07
5.43603e-08
0
0
5.94973e-08
0
0
0
0
5.66753e-08
1.3893e-07
5.48203e-08
0
0
0
5.89695e-08
5.83203e-08
5.74788e-08
5.74194e-08
5.71596e-08
8.93262e-08
7.34605e-08
1.14115e-08
5.77751e-08
5.75965e-08
5.45496e-08
5.41664e-08
5.32016e-08
6.01459e-08
6.05643e-08
5.74001e-08
5.59645e-08
5.591e-08
5.67043e-08
5.4154e-08
5.73499e-08
5.50789e-08
0
5.58703e-08
6.00329e-08
1.3714e-07
1.42509e-07
0
5.85398e-08
5.51889e-08
5.58542e-08
0
5.58265e-08
0
8.67412e-08
1.01826e-07
6.14287e-08
6.04174e-08
0
1.33615e-07
7.90868e-08
9.74986e-08
1.58928e-07
5.81853e-08
3.08771e-08
9.98791e-10
5.72605e-08
5.66513e-08
2.93802e-09
7.43712e-08
1.1284e-07
5.81039e-08
5.72442e-08
8.86597e-06
1.45925e-07
1.00485e-07
5.83015e-08
6.07026e-08
8.9187e-08
9.9652e-08
1.46111e-08
1.02317e-07
5.54649e-08
5.77656e-08
1.42347e-07
5.85815e-08
5.64159e-08
5.99518e-08
1.29448e-07
5.71708e-08
5.7299e-08
5.97501e-08
5.73149e-08
5.76975e-08
1.47952e-07
0
5.84834e-08
5.79534e-08
7.13704e-08
9.33709e-08
8.37991e-08
5.63732e-08
5.47899e-08
5.74872e-08
5.46781e-09
1.21786e-07
5.84181e-08
5.6954e-08
5.76296e-08
5.79477e-08
5.8168e-08
5.81354e-08
5.82064e-08
0
5.83268e-08
5.825e-08
5.70006e-08
1.04192e-07
9.5398e-08
1.06565e-07
1.38605e-07
5.66301e-08
1.41991e-07
5.94876e-08
0
1.33035e-07
1.30455e-07
5.26053e-08
5.56426e-08
5.62033e-08
5.67837e-08
5.82428e-08
5.86714e-08
5.86542e-08
5.64417e-08
1.40464e-07
5.96843e-08
8.91727e-10
5.70182e-08
5.64164e-08
5.74888e-08
5.74245e-08
5.72663e-08
1.37994e-07
5.60737e-08
8.2761e-08
1.14997e-07
5.88023e-08
5.61471e-06
1.83794e-07
8.11421e-08
6.03315e-08
5.93554e-08
5.84166e-08
5.77503e-08
5.70889e-08
5.55517e-08
5.79127e-08
5.95628e-08
5.75678e-08
1.36533e-07
1.34055e-07
1.38291e-07
5.63377e-08
5.72982e-08
5.6853e-08
5.7311e-08
5.79882e-08
2.02986e-08
2.20631e-08
5.95526e-08
5.79649e-08
5.76173e-08
5.75013e-08
5.753e-08
5.64201e-08
5.78555e-08
0
1.04608e-09
1.33086e-07
8.9462e-08
1.36823e-07
9.18775e-08
5.70239e-08
5.79606e-08
5.84868e-08
0
9.28131e-09
5.94618e-08
1.22188e-07
5.68958e-08
5.51049e-08
5.45542e-08
5.1357e-08
5.36635e-08
5.52857e-08
5.87988e-08
5.93283e-08
5.97034e-08
5.89266e-08
5.67386e-08
5.55974e-08
0
5.69695e-08
5.77989e-08
5.76925e-08
7.65978e-08
1.226e-07
0
5.66803e-08
5.82081e-08
6.04873e-08
6.97289e-08
4.76917e-08
5.70188e-08
5.77591e-08
5.76103e-08
5.81399e-08
5.78181e-08
5.87327e-08
2.4158e-08
9.49669e-08
1.66097e-08
8.98292e-06
2.39323e-07
5.75919e-08
5.76227e-08
5.90557e-08
5.81355e-08
5.7814e-08
5.65419e-08
1.34562e-07
6.16429e-08
5.2119e-08
1.33882e-07
0
5.7745e-08
0
5.82931e-08
5.777e-08
0
5.69394e-08
5.89495e-08
0
5.9032e-08
1.39891e-07
5.74609e-08
5.73272e-08
5.76908e-08
5.83043e-08
5.73358e-08
1.42449e-07
5.38244e-08
1.36118e-07
0
0
6.57482e-08
1.25728e-07
5.58545e-08
0
1.26395e-09
5.58918e-08
5.80718e-08
1.38391e-07
1.41835e-07
5.65892e-08
5.52551e-08
5.37359e-08
0
0
5.70169e-08
2.69604e-08
2.3864e-08
5.65208e-08
1.30648e-07
5.61913e-08
5.56305e-08
0
5.67105e-08
5.70843e-08
5.70817e-08
1.3718e-07
5.80605e-08
1.38243e-07
5.57414e-08
5.79995e-08
5.93003e-08
5.71424e-08
5.74615e-08
5.71228e-08
5.70499e-08
5.87686e-08
5.97322e-08
5.80431e-08
3.2139e-08
7.52683e-08
0
5.97493e-08
6.62446e-06
2.6745e-07
5.7461e-08
1.45925e-07
5.76135e-08
5.60603e-08
5.73679e-08
0
5.77378e-08
0
5.66111e-08
5.73939e-08
5.69577e-08
5.68163e-08
1.3608e-07
5.83743e-08
5.9781e-08
5.75395e-08
1.36133e-07
5.67874e-08
0
0
0
0
5.86647e-08
0
0
0
5.98444e-08
5.84401e-08
0
5.71536e-08
1.35432e-07
5.66582e-08
5.61253e-08
5.61361e-08
1.44339e-07
5.64272e-08
0
5.59163e-08
0
1.43859e-07
5.41797e-08
5.47598e-08
1.3138e-07
5.70875e-08
5.73196e-08
5.81283e-08
5.30368e-08
0
5.84008e-08
5.92881e-08
5.74212e-08
1.40877e-07
5.60612e-08
5.72436e-08
5.72411e-08
5.72276e-08
5.71728e-08
5.73777e-08
9.35461e-08
9.60935e-08
0
5.87046e-08
5.73496e-08
5.68818e-08
1.37333e-07
5.9162e-08
6.10531e-08
5.93937e-08
5.60167e-08
1.63829e-08
3.02159e-08
6.17085e-08
5.82091e-08
1.02266e-05
2.82862e-07
5.74529e-08
5.93381e-08
6.01257e-08
5.8342e-08
5.71259e-08
5.70756e-08
5.76625e-08
1.37716e-07
6.91009e-08
0
5.69887e-08
0
5.74419e-08
5.96672e-08
0
5.78173e-08
5.77679e-08
5.59575e-08
5.88156e-08
6.05929e-08
1.71631e-09
9.3188e-08
9.32115e-08
5.61841e-08
1.95797e-08
2.28499e-08
5.83826e-08
5.8003e-08
5.66693e-08
1.346e-07
5.72412e-08
5.70051e-08
5.68908e-08
0
6.13386e-08
5.82239e-08
5.47751e-08
1.36583e-07
1.38648e-07
1.42308e-07
5.61501e-08
1.79372e-08
2.00805e-08
5.6388e-08
5.60318e-08
1.32894e-07
6.0121e-08
5.84972e-08
6.0538e-08
3.32559e-09
5.35387e-08
5.8068e-08
5.75507e-08
5.76876e-08
5.73006e-08
5.72834e-08
5.70358e-08
5.79255e-08
5.7573e-08
5.83988e-08
5.94661e-08
5.89324e-08
5.87657e-08
0
1.383e-07
5.73475e-08
5.84844e-08
5.9715e-08
5.83467e-08
5.81678e-08
5.80255e-08
5.85162e-08
5.81594e-08
1.02743e-05
2.63553e-07
5.46302e-08
5.83517e-08
6.11791e-08
0
5.78659e-08
5.72641e-08
0
1.37673e-07
8.39065e-08
9.85069e-08
5.65119e-08
1.92715e-09
5.55027e-08
6.04555e-08
5.99709e-08
0
0
6.02373e-08
5.81776e-08
5.73017e-08
1.43854e-07
5.56867e-08
5.48343e-08
5.47348e-08
5.77946e-08
1.04952e-07
7.9923e-08
5.53118e-08
5.61885e-08
5.77379e-08
5.78776e-08
5.72512e-08
5.70852e-08
5.69012e-08
5.86185e-08
5.84931e-08
5.57148e-08
5.80973e-08
5.80914e-08
4.3006e-09
5.0551e-08
5.71614e-08
5.62878e-08
5.68348e-08
6.5662e-09
4.31653e-08
5.74139e-08
5.76234e-08
5.75214e-08
1.45338e-07
5.83392e-08
5.56655e-08
5.62412e-08
1.36483e-08
1.06327e-07
5.57736e-08
5.702e-08
5.8506e-08
5.7549e-08
5.87466e-08
5.90619e-08
5.84939e-08
5.93825e-08
5.70921e-08
5.76661e-08
8.65657e-08
2.99906e-08
5.90958e-08
5.86753e-08
5.81047e-08
5.85282e-08
5.9923e-08
5.96493e-08
7.52629e-06
4.01238e-07
5.89474e-08
0
5.8286e-08
5.81961e-08
5.74502e-08
5.67278e-08
1.38375e-07
5.72227e-08
5.61038e-08
9.6278e-08
9.00629e-08
1.78915e-08
2.57756e-08
5.82599e-08
6.9201e-08
8.27298e-08
9.65782e-08
5.59515e-08
1.42955e-07
5.59985e-08
5.76498e-08
1.08343e-07
7.54413e-08
5.56524e-08
5.91506e-08
5.71022e-08
5.65125e-08
5.55351e-08
5.58389e-08
1.42001e-07
5.57311e-08
2.25738e-08
2.95724e-08
1.13819e-07
1.33895e-07
1.37074e-07
1.41224e-07
0
5.71968e-08
5.60164e-08
6.05812e-08
0
1.36654e-07
5.54365e-08
5.62753e-08
5.69615e-08
5.82998e-08
5.76354e-08
5.73632e-08
5.79884e-08
1.46631e-07
5.86567e-09
8.15871e-08
2.06921e-08
5.71466e-08
5.73273e-08
5.74188e-08
5.76556e-08
5.76414e-08
8.43367e-08
8.88543e-08
7.73411e-08
5.639e-08
5.57157e-08
5.71672e-08
5.74474e-08
5.77712e-08
5.7607e-08
5.846e-08
5.63883e-08
1.9304e-08
2.16805e-08
1.438e-07
8.83132e-06
1.56213e-07
9.67744e-08
8.07672e-08
5.58884e-08
5.49965e-08
5.59815e-08
5.64066e-08
6.08682e-08
0
5.85401e-08
5.67768e-08
5.78996e-08
6.04623e-08
5.88098e-08
5.81576e-08
5.68062e-08
1.4433e-07
5.66737e-08
5.88845e-08
5.61454e-08
5.74548e-08
1.4299e-07
5.68469e-08
5.5866e-08
5.64502e-08
5.6694e-08
5.74569e-08
1.10827e-07
7.09463e-08
5.65763e-08
5.84321e-08
5.72089e-08
9.00218e-08
9.27936e-08
5.4814e-08
5.90385e-08
1.12086e-09
5.67737e-08
0
1.37692e-07
5.54534e-08
5.90776e-08
0
5.77304e-08
5.5858e-08
5.87492e-08
5.75503e-08
5.83585e-08
5.89167e-08
1.06507e-07
8.19474e-08
5.89181e-08
5.88944e-08
5.79551e-08
5.70546e-08
5.60525e-08
7.23419e-08
6.73915e-08
4.54461e-08
7.06886e-08
1.08914e-07
1.83346e-08
2.40611e-08
5.70182e-08
9.37759e-08
9.53165e-08
5.73354e-08
5.68353e-08
5.65317e-08
5.67178e-08
5.78438e-08
5.82592e-08
5.82801e-08
0
6.61669e-06
2.64555e-07
5.66507e-08
5.88105e-08
1.40374e-07
5.59239e-08
5.78206e-08
0
5.83728e-08
6.1619e-08
5.73954e-08
5.69892e-08
5.72278e-08
6.66086e-08
8.04477e-08
1.0399e-07
5.68566e-08
1.37474e-08
5.4081e-08
5.5788e-08
1.23845e-07
7.47974e-09
4.54374e-08
5.97251e-08
9.79644e-08
8.69511e-08
5.5963e-08
5.81455e-08
5.75621e-08
9.84814e-08
8.85837e-08
1.44648e-08
3.2224e-08
5.67415e-08
5.70048e-08
5.69776e-08
5.79901e-08
5.90178e-08
5.92646e-08
0
0
5.72244e-08
5.88497e-08
0
0
5.76558e-08
5.67328e-08
7.7389e-08
1.18453e-07
5.76015e-08
5.65664e-08
2.54119e-08
1.34179e-08
6.06442e-08
5.8355e-08
5.81137e-08
5.75849e-08
5.68655e-08
5.69944e-08
1.39729e-07
9.22493e-08
2.13749e-08
5.74151e-08
5.6958e-08
1.43294e-07
5.71827e-08
5.68719e-08
5.72632e-08
5.72909e-08
5.83349e-08
5.71269e-08
8.16801e-08
1.1152e-07
5.69927e-08
5.67558e-08
8.86119e-06
2.77086e-07
5.52879e-08
5.76457e-08
5.89343e-08
5.85627e-08
5.76733e-08
5.73512e-08
5.66117e-08
7.60414e-08
7.57247e-08
2.18476e-08
6.53576e-08
4.57108e-08
5.70015e-08
5.98608e-08
5.7471e-08
5.69444e-08
5.83775e-08
5.9085e-08
5.97745e-08
0
6.01411e-08
5.96128e-08
5.86616e-08
5.84303e-08
5.74632e-08
5.78904e-08
5.77539e-08
1.39092e-07
5.72939e-08
5.84974e-08
5.78071e-08
5.71247e-08
0
5.69658e-08
5.79925e-08
5.85437e-08
5.97054e-08
6.14731e-08
2.4276e-08
1.47936e-08
6.87674e-08
4.67267e-08
6.87053e-08
1.26668e-07
5.57546e-08
5.65824e-08
5.9204e-08
5.93764e-08
5.53346e-08
5.76954e-08
6.17234e-08
0
5.82902e-08
5.69643e-08
5.72019e-08
5.69539e-08
5.75844e-08
5.85677e-08
0
0
5.93467e-08
5.74478e-08
5.8278e-08
0
5.83255e-08
5.78207e-08
5.75591e-08
5.72667e-08
5.72643e-08
5.67399e-08
5.86727e-08
6.04822e-08
5.89097e-08
7.51358e-06
2.85918e-07
5.50644e-08
5.85603e-08
5.86673e-08
5.86983e-08
5.81026e-08
5.76362e-08
5.70098e-08
1.45556e-07
5.7224e-08
5.45338e-08
5.48948e-08
5.63738e-08
6.20109e-08
0
5.89147e-08
5.77319e-08
5.86524e-08
6.18933e-08
0
5.87391e-08
5.79344e-08
5.61561e-08
5.85606e-08
5.76356e-08
5.75048e-08
5.75453e-08
5.75401e-08
5.79811e-08
1.13016e-07
7.56947e-08
5.76177e-08
5.5746e-08
0
5.78209e-08
0
5.75287e-08
5.7865e-08
7.35001e-08
1.26225e-07
5.60103e-08
5.57135e-08
5.61236e-08
8.39156e-08
7.7353e-08
7.71085e-08
5.71058e-08
6.15896e-08
0
5.71978e-08
5.60137e-08
1.43626e-07
5.86537e-08
5.64229e-08
5.65701e-08
1.57619e-08
2.68063e-08
5.75456e-08
0
5.99255e-08
5.91023e-08
6.03948e-08
5.96773e-08
0
1.41858e-07
0
0
5.75875e-08
5.8291e-08
5.75066e-08
5.74173e-08
5.95012e-08
0
5.77375e-08
8.52323e-06
6.32842e-07
5.32011e-08
5.93487e-08
5.93946e-08
5.91669e-08
5.93032e-08
7.65659e-08
8.52027e-08
4.31317e-08
1.03085e-07
5.58709e-08
5.42009e-08
5.63761e-08
6.29026e-08
0
5.77722e-08
5.79633e-08
5.96377e-08
6.27935e-08
0
5.85865e-08
6.54852e-08
1.3144e-07
5.66372e-08
5.58706e-08
5.64656e-08
5.63791e-08
5.77926e-08
1.51064e-08
6.72425e-08
2.21204e-08
5.86682e-08
5.66355e-08
5.77107e-08
1.32084e-08
3.40041e-08
5.82073e-08
5.85681e-08
5.79903e-08
1.40074e-07
5.65879e-08
5.66515e-08
5.6835e-08
5.66467e-08
5.56094e-08
5.84914e-08
5.83972e-08
5.78637e-08
1.44918e-07
5.44592e-08
5.54712e-08
5.69648e-08
1.43875e-07
5.57258e-08
5.49428e-08
5.51394e-08
5.57155e-08
5.53436e-08
5.80087e-08
5.84235e-08
5.84627e-08
5.92899e-08
0
5.82848e-08
5.8269e-08
5.83134e-08
2.18066e-07
5.78556e-08
0
5.81184e-08
1.07665e-07
8.04799e-08
5.78587e-08
5.98715e-08
3.00278e-06
2.76397e-07
1.28455e-07
5.61916e-08
6.05933e-08
6.14317e-08
2.90961e-09
5.45261e-08
5.7281e-08
5.88078e-08
5.89259e-08
5.81808e-08
5.56074e-08
5.656e-08
5.96491e-08
5.99193e-08
5.79024e-08
1.59422e-08
2.74819e-08
6.12394e-08
5.86021e-08
5.89175e-08
6.58914e-08
1.29275e-07
5.52529e-08
5.60861e-08
5.69948e-08
5.71976e-08
5.85494e-08
6.03236e-08
0
5.7827e-08
5.8118e-08
2.35812e-08
1.47275e-08
5.8683e-08
5.81531e-08
5.79132e-08
5.78346e-08
5.80726e-08
5.80128e-08
5.80005e-08
5.75545e-08
5.67867e-08
5.60217e-08
1.14405e-07
7.34646e-08
5.9725e-08
5.62664e-08
5.58758e-08
5.68421e-08
1.37606e-07
5.6316e-08
1.41486e-07
5.6226e-08
5.60014e-08
5.59061e-08
7.41437e-08
3.84811e-08
5.78758e-08
5.77795e-08
5.85878e-08
5.90244e-08
5.88959e-08
5.59601e-08
1.32046e-07
1.32425e-07
7.43739e-08
5.46138e-08
0
5.83292e-08
6.58757e-09
4.47941e-08
5.67796e-08
1.4249e-07
1.38875e-05
2.63383e-07
7.05338e-08
8.55032e-08
8.913e-08
0
6.21385e-08
5.78875e-08
0
5.83343e-08
5.95911e-08
5.88409e-08
5.67805e-08
6.02172e-08
2.59631e-08
4.71325e-08
7.21484e-08
5.90115e-08
8.2353e-08
6.0167e-08
5.63479e-08
5.44723e-08
7.74199e-08
1.13062e-07
5.79189e-08
5.71723e-08
5.78947e-08
5.81822e-08
5.82072e-08
5.96914e-08
1.932e-08
2.36578e-08
5.74712e-08
5.77484e-08
5.76492e-08
5.7952e-08
5.71516e-08
5.66115e-08
5.76915e-08
5.86194e-08
0
5.78611e-08
5.84075e-08
5.75012e-08
5.77026e-08
5.75278e-08
5.87432e-08
5.9325e-08
1.42295e-07
1.96437e-08
9.95273e-08
5.76373e-08
5.77761e-08
5.81737e-08
5.74457e-08
5.82083e-08
2.47574e-08
1.15957e-08
5.6803e-08
1.3376e-07
1.36662e-07
1.37671e-07
1.38779e-07
5.58313e-08
1.39132e-07
0
4.83658e-08
5.8623e-08
2.3938e-08
9.1658e-08
1.57825e-08
4.04386e-08
4.59412e-08
5.52477e-08
1.43746e-07
7.53295e-06
2.71852e-07
5.60502e-08
5.76672e-08
5.7513e-08
5.93995e-08
6.19318e-08
0
5.73143e-08
5.72626e-08
5.75066e-08
5.78116e-08
0
5.77212e-08
5.84035e-08
5.85504e-08
5.74905e-08
5.77065e-08
6.62694e-08
1.36028e-07
5.76063e-08
5.65248e-08
9.02482e-08
9.94698e-08
5.74667e-08
5.51013e-08
5.78688e-08
5.85435e-08
5.80689e-08
5.7673e-08
5.86465e-08
5.75928e-08
5.74366e-08
5.68298e-08
5.76675e-08
5.77149e-08
5.7565e-08
5.72016e-08
5.7121e-08
0
5.71655e-08
5.86318e-08
5.85415e-08
5.83562e-08
5.66574e-08
0
0
5.83888e-08
6.11894e-08
5.88399e-08
0
0
0
0
5.88605e-08
5.93692e-08
2.3071e-08
1.58792e-08
0
5.73754e-08
0
5.86429e-08
6.34154e-08
1.83059e-08
2.67629e-08
0
0
1.40011e-07
1.09851e-07
7.57792e-09
4.58258e-09
1.23381e-07
8.21522e-08
1.0447e-07
5.79294e-08
7.82578e-06
2.57264e-07
5.5143e-08
5.7046e-08
5.77661e-08
5.92531e-08
1.37143e-07
1.36788e-07
1.33893e-07
5.38871e-08
5.64392e-08
5.63344e-08
5.6029e-08
5.75735e-08
5.83343e-08
5.8362e-08
5.86316e-08
5.86427e-08
5.83482e-08
5.82062e-08
9.17284e-08
9.79641e-08
5.74147e-08
0
5.86204e-08
5.77206e-08
5.69013e-08
1.43663e-07
5.74213e-08
5.67724e-08
5.702e-08
5.54771e-08
5.55754e-08
5.69601e-08
5.80512e-08
5.82735e-08
5.71398e-08
5.55827e-08
5.79284e-08
5.71901e-08
5.89686e-08
5.82611e-08
5.84776e-08
5.51926e-08
5.55115e-08
1.37928e-07
5.62647e-08
5.62449e-08
6.0318e-08
5.7837e-08
5.73119e-08
2.35087e-08
8.65556e-08
1.44401e-07
5.48496e-09
4.73661e-08
5.87891e-08
8.64105e-09
4.31231e-08
5.82761e-08
1.50813e-08
5.89629e-08
6.71552e-08
2.2801e-08
5.89626e-08
5.76846e-08
5.61046e-08
5.82775e-08
5.71363e-08
1.55762e-07
1.12115e-07
1.34227e-07
5.49085e-08
5.67617e-08
1.43306e-07
8.34116e-06
1.73592e-07
1.07192e-07
2.86428e-09
1.4413e-07
5.64412e-08
5.65471e-08
5.69955e-08
5.75272e-08
6.58449e-08
1.25772e-07
1.34497e-07
5.48314e-08
5.83219e-08
1.35163e-07
1.36965e-07
5.72603e-08
5.97425e-08
5.9435e-08
5.89109e-08
5.8833e-08
1.08128e-07
4.45472e-09
5.74404e-08
5.76595e-08
5.80356e-08
5.90386e-08
0
5.87851e-08
5.80844e-08
1.07281e-07
7.35004e-08
5.42719e-08
5.84248e-08
5.59819e-08
1.42424e-07
5.62937e-08
5.5672e-08
9.64351e-08
0
1.034e-07
8.12531e-08
5.75202e-08
5.52982e-08
5.72581e-08
5.6261e-08
1.4251e-07
5.76513e-08
5.66608e-08
1.3983e-07
5.50663e-08
1.29759e-07
5.70548e-08
0
5.78172e-08
5.77905e-08
5.82372e-08
8.29271e-09
4.15877e-08
5.79225e-08
1.35839e-07
5.35936e-08
5.6341e-08
5.78183e-08
0
1.35382e-07
1.36012e-07
5.64931e-08
5.76551e-08
5.83866e-08
5.81727e-08
5.82649e-08
5.80015e-08
5.843e-08
5.90794e-08
1.04052e-05
2.314e-07
1.03355e-07
8.0617e-08
3.25846e-08
0
0
0
0
5.73705e-08
7.30641e-08
4.22359e-08
5.93992e-08
2.69222e-08
8.93472e-09
0
6.01588e-08
6.06308e-08
5.96892e-08
5.83207e-08
5.76916e-08
5.5144e-08
5.61349e-08
5.68828e-08
5.84018e-08
6.19952e-08
5.87505e-08
5.88429e-08
5.8425e-08
5.7218e-08
5.74218e-08
5.68357e-08
5.68563e-08
5.74122e-08
5.81333e-08
5.76131e-08
5.81241e-08
1.35625e-07
8.16891e-08
5.2609e-08
5.39476e-08
5.71273e-08
0
5.71904e-08
6.39953e-08
7.66671e-08
3.35178e-08
5.90878e-08
5.92661e-08
0
5.93068e-08
5.82371e-08
5.71865e-08
5.84894e-08
5.7614e-08
5.73442e-08
5.68129e-08
2.30687e-07
1.3271e-07
5.56246e-08
1.31002e-07
5.24371e-08
6.06221e-08
0
1.37595e-07
5.59557e-08
5.70915e-08
5.93365e-08
5.94592e-08
5.78708e-08
5.77136e-08
5.8662e-08
5.72086e-08
5.75147e-08
0
8.85397e-06
2.80601e-07
0
1.41428e-07
5.74384e-08
5.7199e-08
5.66342e-08
1.08114e-07
7.33922e-08
0
0
5.91594e-08
0
5.93849e-08
5.82387e-08
6.6707e-08
1.31876e-07
6.18274e-08
0
5.79016e-08
5.73451e-08
5.7187e-08
5.74294e-08
5.78829e-08
5.81843e-08
5.76289e-08
5.85661e-08
5.82124e-08
5.81225e-08
5.66706e-08
5.77009e-08
5.75236e-08
9.39453e-08
9.76849e-08
5.71238e-08
5.66342e-08
0
5.79879e-08
5.66515e-08
1.34853e-07
5.5512e-08
1.00914e-08
1.23799e-07
5.71785e-08
5.92267e-08
5.67891e-08
5.68413e-08
5.72015e-08
5.78528e-08
5.96003e-08
5.98847e-08
1.53233e-08
1.10513e-07
5.63065e-08
5.5507e-08
5.56186e-08
1.36273e-07
5.41216e-08
5.48193e-08
1.40442e-07
5.44194e-08
0
5.65509e-08
5.89987e-08
5.82768e-08
5.7966e-08
5.92379e-08
6.07069e-08
5.96193e-08
5.76306e-08
5.73363e-08
5.79509e-08
5.79423e-08
5.61657e-08
1.43885e-07
8.92948e-06
1.82676e-07
6.08942e-08
0
5.8901e-08
5.81287e-08
5.721e-08
5.64479e-08
1.37679e-07
5.66977e-08
1.35679e-07
5.5867e-08
5.56422e-08
1.40755e-07
5.85118e-08
5.62392e-08
5.74975e-08
5.83946e-08
5.88041e-08
5.78868e-08
5.77284e-08
5.77048e-08
5.77806e-08
5.73592e-08
1.42218e-07
5.76323e-08
5.55224e-08
5.6657e-08
5.74527e-08
5.7555e-08
5.73746e-08
5.80501e-08
5.83464e-08
5.82699e-08
5.84035e-08
5.68636e-08
5.55207e-08
5.64401e-08
5.60837e-08
5.64053e-08
5.63017e-08
0
5.96285e-08
6.03073e-08
5.86091e-08
5.92622e-08
5.7833e-08
5.74907e-08
5.80873e-08
6.13785e-08
6.10523e-08
5.98966e-08
5.78065e-08
5.7111e-08
5.73942e-08
5.73424e-08
0
5.72285e-08
5.76408e-08
1.4062e-07
5.46552e-08
5.59406e-08
0
1.0841e-07
7.6509e-08
5.88615e-08
6.15266e-08
6.15713e-08
2.33593e-08
4.57629e-08
8.45559e-08
7.91987e-08
5.65154e-08
5.52907e-08
5.67151e-08
5.66588e-06
1.75016e-07
1.06775e-07
0
5.78795e-08
5.72978e-08
5.74741e-08
5.75572e-08
5.73243e-08
5.61836e-08
1.41305e-07
5.43816e-08
5.5034e-08
1.41975e-07
6.01112e-08
0
5.73122e-08
5.78064e-08
5.86705e-08
5.85579e-08
5.82334e-08
5.84903e-08
5.84624e-08
1.38041e-07
5.6289e-08
1.39549e-07
5.77002e-08
5.88585e-08
5.90333e-08
0
5.71921e-08
5.79258e-08
5.82035e-08
5.85902e-08
0
1.36162e-07
5.69449e-08
5.80143e-08
5.78819e-08
5.67976e-08
5.65529e-08
5.62591e-08
5.79987e-08
5.80948e-08
5.68347e-08
5.8619e-08
5.82622e-08
5.70106e-08
1.36683e-07
5.73206e-08
5.82542e-08
5.87079e-08
5.80236e-08
5.83319e-08
0
0
5.76779e-08
5.75837e-08
5.74771e-08
0
5.76325e-08
5.66153e-08
1.47705e-07
5.75102e-08
6.06966e-08
6.03455e-08
1.6919e-08
2.97599e-08
0
0
5.83008e-08
5.97847e-08
0
0
0
1.18591e-05
1.87399e-07
5.75706e-08
6.0768e-08
5.86215e-08
5.81784e-08
5.71508e-08
5.7314e-08
0
5.63247e-08
1.41265e-07
8.19076e-08
1.0325e-07
5.6306e-08
5.87309e-08
5.83666e-08
5.73823e-08
5.71656e-08
5.71251e-08
6.95453e-08
8.21712e-08
1.02317e-07
5.81322e-08
5.51069e-08
5.49167e-08
5.71972e-08
5.70082e-08
1.44435e-07
8.82407e-09
4.3804e-08
5.70376e-08
6.07451e-08
0
5.70296e-08
5.63227e-08
5.65297e-08
5.88566e-08
6.14436e-08
0
0
5.60874e-08
1.44305e-07
5.58926e-08
1.4008e-07
5.56866e-08
5.78651e-08
5.70863e-08
5.68879e-08
5.7839e-08
5.82531e-08
5.80314e-08
5.82681e-08
5.71684e-08
5.66965e-08
5.93105e-08
7.22976e-09
4.66921e-08
5.74911e-08
5.83753e-08
5.81665e-08
5.64977e-08
5.77233e-08
5.70448e-08
0
5.80226e-08
5.81945e-08
5.83375e-08
5.95566e-08
5.82083e-08
5.81551e-08
0
0
5.84682e-08
1.40493e-07
5.67783e-08
6.366e-06
8.08957e-07
1.18491e-07
5.83928e-08
5.84177e-08
0
5.64848e-08
5.64656e-08
5.79652e-08
0
6.06489e-08
5.77091e-08
5.57824e-08
5.62022e-08
5.82232e-08
5.79814e-08
5.77686e-08
6.1429e-08
9.17687e-08
1.01121e-07
0
5.73815e-08
5.76146e-08
5.67247e-08
5.67691e-08
5.95179e-08
5.75898e-08
6.20149e-08
6.06142e-08
0
5.46785e-08
5.75584e-08
5.74417e-08
1.3509e-07
0
5.62281e-08
5.73266e-08
1.87937e-08
5.91293e-08
9.76135e-08
5.41096e-08
1.39528e-07
5.83036e-08
5.75249e-08
5.66686e-08
5.72593e-08
5.75481e-08
5.76045e-08
5.92072e-08
5.84433e-08
5.79934e-08
5.73637e-08
8.0532e-08
6.79253e-08
9.4502e-08
5.77247e-08
5.72815e-08
5.56315e-08
1.33252e-07
1.36695e-07
5.49316e-08
5.39291e-08
5.45395e-08
1.33707e-07
5.6781e-08
5.75519e-08
0
5.87104e-08
5.822e-08
5.69342e-08
1.42997e-07
5.78714e-08
5.72416e-08
5.66603e-08
5.62458e-08
6.55491e-06
1.31321e-06
5.19604e-08
5.93377e-08
5.83301e-08
5.88693e-08
5.78946e-08
5.78297e-08
5.90327e-08
6.25039e-08
1.54327e-08
3.3449e-08
5.74263e-08
1.35569e-07
5.65025e-08
5.68489e-08
5.71878e-08
5.89412e-08
6.01069e-08
6.00119e-08
9.72657e-08
1.98342e-08
0
0
1.71769e-08
7.81644e-08
3.01674e-08
3.57076e-08
6.0224e-08
5.98454e-08
5.7054e-08
5.75252e-08
5.84273e-08
5.83377e-08
5.78206e-08
0
5.60105e-08
5.67061e-08
1.41099e-07
5.591e-08
5.6192e-08
0
5.73028e-08
5.80612e-08
5.67824e-08
5.82708e-08
5.80982e-08
5.84016e-08
1.1026e-07
7.31555e-08
5.57945e-08
5.6453e-08
5.59758e-08
5.59027e-08
2.29255e-08
8.84446e-08
1.39536e-07
2.44273e-08
7.88406e-08
5.92069e-08
5.95307e-08
0
9.2514e-08
6.02835e-08
5.53941e-08
1.71358e-08
0
5.91523e-08
5.80325e-08
5.77624e-08
5.88292e-08
5.93526e-08
5.80393e-08
5.66478e-08
5.64043e-08
4.85063e-06
1.86516e-07
5.63425e-08
1.03382e-07
8.39499e-08
0
5.72859e-08
5.74464e-08
5.79993e-08
5.92394e-08
5.94902e-08
5.61933e-08
5.60056e-08
5.63974e-08
5.59425e-08
5.61157e-08
5.73075e-08
6.16742e-08
6.25687e-08
0
5.82856e-08
5.7677e-08
5.6344e-08
6.85826e-08
5.28949e-08
5.6528e-08
6.56537e-08
6.31153e-08
6.28211e-08
6.3275e-08
4.43328e-08
4.92639e-08
5.78346e-08
5.81175e-08
6.12522e-08
1.33306e-07
5.57947e-08
5.65047e-08
5.72545e-08
5.61651e-08
1.40591e-07
5.8601e-08
6.0272e-08
0
5.79123e-08
5.91432e-08
5.78758e-08
1.41396e-07
5.60008e-08
5.44845e-08
5.54301e-08
5.68218e-08
5.66233e-08
5.55529e-08
1.4195e-07
5.67721e-08
5.72345e-08
5.64566e-08
5.37344e-08
5.80889e-08
5.9495e-08
5.85981e-08
5.75497e-08
5.67328e-08
5.72868e-08
0
1.37231e-07
1.34985e-07
5.61043e-08
7.24829e-08
4.21881e-08
5.98996e-08
5.86949e-08
5.65567e-08
5.62661e-08
1.57928e-05
1.63305e-07
5.69917e-08
5.76547e-08
5.71363e-08
5.74926e-08
5.82646e-08
5.8042e-08
6.16135e-08
5.91816e-08
5.42018e-08
1.36425e-07
5.52387e-08
5.4149e-08
5.44842e-08
5.48873e-08
5.72292e-08
6.07241e-08
6.17115e-08
6.10895e-08
5.86637e-08
5.71935e-08
7.88521e-08
1.06334e-07
5.49327e-08
5.79347e-08
5.9117e-08
5.86913e-08
5.82119e-08
5.80615e-08
5.79663e-08
5.77712e-08
0
0
1.39547e-07
5.56641e-08
5.48113e-08
5.62997e-08
5.71257e-08
5.60861e-08
5.65689e-08
5.93841e-08
6.0224e-08
1.69134e-08
1.06202e-07
5.71882e-08
5.69462e-08
5.72108e-08
8.14042e-08
1.05701e-07
5.61266e-08
5.67516e-08
5.6749e-08
5.69957e-08
5.83576e-08
5.85166e-08
5.74605e-08
5.67356e-08
5.70627e-08
5.77412e-08
5.8754e-08
5.94491e-08
5.7846e-08
5.68078e-08
5.71991e-08
6.04344e-08
0
5.7283e-08
5.5806e-08
5.64319e-08
6.15984e-08
6.00156e-08
5.62042e-08
5.46968e-08
0
1.17622e-05
9.0353e-08
5.47152e-08
5.59301e-08
5.65209e-08
1.42402e-07
0
5.57417e-08
5.7768e-08
5.69491e-08
5.87043e-08
0
5.82782e-08
1.35311e-07
4.76983e-09
1.21744e-07
5.47146e-08
6.27164e-08
0
6.10318e-08
5.71439e-08
1.44306e-07
5.72374e-08
5.63551e-08
5.55713e-08
1.43603e-07
5.78062e-08
5.44476e-08
5.56936e-08
5.72803e-08
5.75228e-08
5.98081e-08
1.40391e-07
5.54322e-08
5.56654e-08
5.65996e-08
5.67832e-08
5.59661e-08
5.60165e-08
0
1.39289e-07
5.62541e-08
5.70554e-08
5.91152e-08
5.87406e-08
5.85507e-08
5.79432e-08
5.78812e-08
5.73729e-08
5.69992e-08
5.7849e-08
5.79233e-08
5.68239e-08
5.77895e-08
5.80442e-08
5.81693e-08
5.72983e-08
5.6582e-08
5.74986e-08
6.05709e-08
6.0614e-08
5.93627e-08
5.65897e-08
5.6332e-08
5.80848e-08
5.92353e-08
5.65151e-08
0
0
1.34851e-07
1.39077e-07
5.85035e-08
5.75252e-08
5.5728e-08
5.64438e-08
4.65055e-06
2.95709e-07
5.62968e-08
5.90836e-08
5.67276e-08
5.84265e-08
1.40019e-07
5.50562e-08
1.34926e-07
5.35537e-08
5.73407e-08
6.05928e-08
0
5.6496e-08
5.75934e-08
6.58532e-08
1.27917e-07
6.24367e-08
6.10666e-08
0
5.80249e-08
5.74735e-08
5.77903e-08
1.06559e-07
8.43236e-08
5.76833e-08
5.66078e-08
5.54213e-08
5.49806e-08
5.67829e-08
1.42925e-07
5.61695e-08
5.70394e-08
5.65216e-08
5.7574e-08
5.84227e-08
5.75784e-08
5.6578e-08
5.73385e-08
0
5.83848e-08
5.67415e-08
5.87528e-08
5.85794e-08
5.87915e-08
5.79449e-08
5.72146e-08
6.16727e-08
5.25469e-08
1.04935e-07
7.84638e-08
5.67034e-08
5.60037e-08
5.67359e-08
5.79797e-08
5.72977e-08
5.68181e-08
5.73105e-08
5.70441e-08
5.62546e-08
5.71478e-08
5.77675e-08
6.03587e-08
6.04482e-08
5.96452e-08
5.6507e-08
5.64175e-08
0
5.75307e-08
5.82248e-08
5.83708e-08
5.71013e-08
5.65675e-08
5.44978e-08
5.65987e-08
5.22338e-06
3.62894e-07
5.10138e-08
5.71919e-08
5.89439e-08
6.15495e-08
0
1.36025e-07
5.6091e-08
5.62049e-08
5.66904e-08
5.82944e-08
5.87707e-08
5.82706e-08
1.10414e-07
7.05942e-08
1.34574e-07
5.84331e-08
5.96434e-08
5.79793e-08
5.80006e-08
5.72533e-08
5.89995e-08
6.1176e-08
0
5.82007e-08
5.72563e-08
5.65828e-08
6.09808e-08
6.11038e-08
5.84638e-08
5.6836e-08
5.62022e-08
5.64444e-08
5.71422e-08
8.3887e-08
1.06502e-07
5.57819e-08
5.65608e-08
0
0
1.38945e-07
5.67332e-08
1.42121e-07
5.6371e-08
0
0
5.75478e-08
1.37369e-07
0
5.59886e-08
5.78181e-08
5.8087e-08
5.86579e-08
5.83885e-08
5.81624e-08
5.79389e-08
5.66234e-08
5.56687e-08
5.61193e-08
5.58013e-08
5.78401e-08
5.94999e-08
6.1067e-08
6.05505e-08
5.85424e-08
5.70868e-08
5.7496e-08
5.83014e-08
0
5.77965e-08
8.15802e-09
1.30822e-07
7.40363e-08
2.63237e-08
1.17499e-05
1.76583e-07
5.83823e-08
5.85349e-08
5.86593e-08
5.76559e-08
5.84098e-08
5.90527e-08
5.79652e-08
5.77159e-08
0
5.88064e-08
5.76e-08
5.72119e-08
7.74635e-08
1.12434e-07
5.57357e-08
1.41881e-07
5.64373e-08
5.67077e-08
6.93108e-09
4.6607e-08
5.84604e-08
5.89195e-08
6.14687e-08
2.61581e-08
2.91097e-08
3.7644e-08
5.78419e-08
5.88402e-08
5.96957e-08
5.81832e-08
5.79377e-08
5.72747e-08
5.7299e-08
9.08944e-08
9.74384e-08
5.48713e-08
5.55997e-08
5.68709e-08
2.38178e-07
5.69158e-08
5.62369e-08
5.77325e-08
5.79278e-08
5.7219e-08
5.58918e-08
5.59184e-08
0
1.35801e-07
5.90242e-08
0
5.87633e-08
2.2472e-08
1.76522e-08
5.81853e-08
5.93864e-08
5.78449e-08
5.58812e-08
7.96162e-08
1.02943e-07
5.62467e-08
5.78475e-08
6.06672e-08
6.11371e-08
5.99069e-08
5.86081e-08
5.78201e-08
7.14246e-08
4.47626e-08
5.61032e-08
0
5.78969e-08
5.58573e-08
1.36834e-07
6.55745e-06
2.63531e-07
5.84555e-08
5.80716e-08
5.75784e-08
5.80579e-08
5.88529e-08
5.87632e-08
5.85688e-08
0
5.97025e-08
0
0
5.9232e-08
5.60058e-08
0
1.3803e-07
5.57658e-08
5.66225e-08
5.57811e-08
5.99873e-08
0
5.84078e-08
6.00237e-08
6.18876e-08
0
5.8431e-08
5.79082e-08
5.84292e-08
5.81157e-08
5.82065e-08
5.77793e-08
5.7678e-08
5.77138e-08
5.63598e-08
1.4148e-07
5.59396e-08
5.60772e-08
8.64061e-08
1.2773e-07
1.06302e-07
5.82108e-08
5.79555e-08
5.81271e-08
0