/*--------------------------------*- C++ -*----------------------------------*\
  =========                 |
  \\      /  F ield         | OpenFOAM: The Open Source CFD Toolbox
   \\    /   O peration     | Website:  https://openfoam.org
    \\  /    A nd           | Version:  12
     \\/     M anipulation  |
\*---------------------------------------------------------------------------*/
FoamFile
{
    format      ascii;
    class       volScalarField;
    location    "0.45";
    object      p;
}
// * * * * * * * * * * * * * * * * * * * * * * * * * * * * * * * * * * * * * //

dimensions      [0 2 -2 0 0 0 0];

internalField   nonuniform List<scalar> 
3750
(
1.48903
1.47721
1.46768
1.45838
1.44669
1.43758
1.43071
1.42222
1.41281
1.3935
1.38352
1.37332
1.36255
1.36355
1.35211
1.3397
1.32695
1.32539
1.31134
1.29747
1.29594
1.28274
1.26918
1.26848
1.25686
1.24598
1.22676
1.21645
1.20471
1.19416
1.18325
1.17321
1.16427
1.15533
1.14598
1.13605
1.12639
1.11699
1.10781
1.09844
1.08893
1.07904
1.06877
1.05819
1.04837
1.03919
1.03056
1.02149
1.01235
1.00173
0.991492
0.972413
0.96444
0.955988
0.946806
0.936676
0.924176
0.9136
0.905112
0.89683
0.888414
0.876877
0.866827
0.857968
0.850705
0.83849
0.825209
0.814717
0.802793
0.79285
0.783089
0.773047
0.76256
0.763476
0.751647
1.48809
1.47709
1.46511
1.45921
1.44756
1.43591
1.43205
1.42227
1.41092
1.3958
1.3837
1.37367
1.36678
1.36143
1.3521
1.3414
1.33096
1.32227
1.31132
1.30017
1.29109
1.28336
1.2721
1.265
1.25438
1.2429
1.22947
1.21792
1.20482
1.19333
1.18208
1.17164
1.16433
1.15717
1.14554
1.13575
1.12612
1.11674
1.1081
1.09861
1.08899
1.07936
1.06908
1.05759
1.04755
1.0382
1.03115
1.02146
1.01351
0.999405
0.988902
0.975298
0.965803
0.956792
0.94766
0.938973
0.92228
0.912225
0.903999
0.896157
0.890662
0.876895
0.866194
0.855756
0.849574
0.839466
0.828647
0.815866
0.802444
0.792846
0.783228
0.774047
0.765701
0.761205
0.751205
1.48942
1.47966
1.46486
1.45805
1.44818
1.43799
1.43114
1.42158
1.41241
1.39604
1.38324
1.37142
1.36908
1.36203
1.35288
1.34281
1.3331
1.32238
1.31126
1.30126
1.28549
1.28668
1.27072
1.26321
1.25229
1.24171
1.23065
1.22093
1.20344
1.19193
1.18078
1.16838
1.16448
1.1614
1.143
1.13426
1.12539
1.11665
1.10886
1.09917
1.08918
1.07953
1.07078
1.05555
1.04621
1.03546
1.03201
1.01961
1.00858
0.999683
0.98951
0.977866
0.967403
0.957504
0.947769
0.937883
0.925785
0.909611
0.902352
0.894855
0.894732
0.878836
0.864908
0.850107
0.849679
0.840856
0.832474
0.816759
0.80127
0.793121
0.783638
0.77374
0.766568
0.760642
0.752851
1.48965
1.47676
1.46809
1.45864
1.44896
1.44014
1.43048
1.42031
1.40944
1.39802
1.388
1.37224
1.36603
1.36404
1.35408
1.34389
1.33579
1.32163
1.30994
1.2981
1.2883
1.28228
1.27278
1.26534
1.24981
1.24093
1.23036
1.21996
1.20727
1.19157
1.18137
1.1707
1.16342
1.15515
1.14299
1.13235
1.12466
1.11745
1.11049
1.09992
1.08893
1.07866
1.06721
1.05997
1.0477
1.03647
1.02839
1.01776
1.00289
1.00169
0.99055
0.979711
0.968993
0.957986
0.94797
0.938942
0.921722
0.909356
0.902282
0.895995
0.891407
0.878837
0.865734
0.852007
0.847256
0.840253
0.831748
0.817417
0.804923
0.795056
0.785003
0.771514
0.766274
0.760494
0.758327
1.49381
1.47201
1.47065
1.45978
1.45024
1.44113
1.43031
1.4198
1.4083
1.3971
1.38723
1.37578
1.36889
1.3639
1.35383
1.34295
1.33368
1.32375
1.30936
1.29878
1.28879
1.27963
1.27302
1.26349
1.25214
1.2421
1.23075
1.22118
1.20887
1.19091
1.18258
1.17335
1.16204
1.15187
1.14176
1.12829
1.12359
1.11788
1.1129
1.10108
1.08921
1.07854
1.07005
1.05911
1.04673
1.03635
1.02563
1.00785
1.00697
0.99993
0.990489
0.981754
0.970447
0.957726
0.947091
0.936455
0.924686
0.90518
0.90177
0.89667
0.892355
0.879075
0.868771
0.857602
0.840201
0.837952
0.835461
0.815971
0.80594
0.797098
0.789668
0.775881
0.765358
0.756561
0.754447
1.4897
1.47678
1.46816
1.45946
1.45112
1.44381
1.42983
1.42026
1.40684
1.39516
1.388
1.37565
1.36898
1.36645
1.35378
1.3404
1.33227
1.32212
1.31055
1.3002
1.28892
1.27698
1.27381
1.26281
1.2529
1.24461
1.23002
1.21468
1.20988
1.1945
1.18577
1.17675
1.1596
1.14916
1.14341
1.13013
1.12402
1.11712
1.10967
1.09991
1.0883
1.07738
1.07067
1.05944
1.05044
1.03553
1.0206
1.0094
1.01065
0.992489
0.989365
0.985196
0.972184
0.957433
0.945768
0.935205
0.923939
0.911183
0.903265
0.895011
0.889942
0.877723
0.864009
0.858143
0.85261
0.835619
0.828965
0.817137
0.806922
0.797954
0.789212
0.778814
0.770084
0.753178
0.754765
1.48979
1.47977
1.46521
1.45866
1.45077
1.44138
1.43036
1.41948
1.40842
1.39639
1.38346
1.37758
1.36854
1.36144
1.34902
1.34378
1.33254
1.3218
1.3112
1.30212
1.2911
1.27674
1.27144
1.26109
1.25183
1.24175
1.22982
1.21831
1.20758
1.1969
1.18969
1.1753
1.16494
1.15229
1.13886
1.13108
1.12405
1.11698
1.10754
1.10032
1.08671
1.07266
1.07148
1.05825
1.04868
1.03581
1.02409
1.01291
1.00772
0.996552
0.989004
0.981668
0.970235
0.957723
0.944124
0.935308
0.9251
0.914924
0.906973
0.891079
0.889613
0.876717
0.866165
0.858534
0.852225
0.834772
0.82621
0.815939
0.806796
0.798443
0.79004
0.780028
0.769845
0.754441
0.756076
1.48762
1.47725
1.46683
1.45812
1.45174
1.44065
1.43067
1.42037
1.4098
1.4008
1.3846
1.37818
1.36679
1.35945
1.34996
1.34147
1.33158
1.32136
1.31109
1.3012
1.29043
1.27984
1.27212
1.25988
1.25077
1.24074
1.22994
1.21848
1.205
1.19881
1.18833
1.17716
1.16645
1.15672
1.14071
1.13029
1.12403
1.11962
1.1036
1.09551
1.08547
1.07676
1.07073
1.05967
1.04984
1.03547
1.02584
1.01586
1.01063
0.998409
0.988134
0.977324
0.967527
0.955971
0.944805
0.936151
0.926172
0.916369
0.906748
0.89601
0.888488
0.873255
0.86621
0.857649
0.848408
0.836202
0.825318
0.813423
0.805878
0.799002
0.792189
0.783141
0.763962
0.760808
0.752519
1.48656
1.47634
1.4666
1.45561
1.45453
1.44042
1.43114
1.42142
1.41102
1.40061
1.38812
1.37982
1.36788
1.35833
1.34883
1.33851
1.33101
1.32101
1.31066
1.29947
1.29014
1.27951
1.27312
1.26129
1.25003
1.24051
1.23017
1.21747
1.20645
1.19698
1.18797
1.1775
1.16695
1.15616
1.14361
1.1315
1.12103
1.11959
1.10379
1.09283
1.08376
1.07604
1.07477
1.06061
1.04949
1.03751
1.02791
1.01277
1.0084
0.997943
0.987469
0.979729
0.967177
0.954215
0.949286
0.937861
0.927003
0.917462
0.907782
0.898409
0.888543
0.869283
0.8671
0.85733
0.84743
0.835872
0.825504
0.80927
0.804985
0.79949
0.795335
0.784524
0.766045
0.759894
0.751725
1.48522
1.47659
1.4673
1.45731
1.45084
1.44199
1.43176
1.42175
1.41181
1.40237
1.38879
1.3825
1.36869
1.35729
1.34502
1.33501
1.33213
1.32045
1.30968
1.2964
1.29038
1.27735
1.2766
1.26312
1.24794
1.24107
1.23274
1.21542
1.20525
1.19753
1.18782
1.17758
1.16764
1.15685
1.14499
1.13172
1.11991
1.11846
1.10414
1.08991
1.08371
1.07795
1.07558
1.06406
1.04766
1.0384
1.02846
1.01631
1.01038
0.99722
0.985591
0.983058
0.967285
0.957998
0.949885
0.939055
0.927165
0.917537
0.908225
0.899569
0.886226
0.871603
0.865815
0.856671
0.847878
0.834812
0.8262
0.812536
0.80487
0.798385
0.791672
0.78158
0.769067
0.758977
0.749385
1.48263
1.4778
1.46738
1.45857
1.44826
1.44375
1.43226
1.42176
1.41184
1.40259
1.38848
1.37881
1.36678
1.35869
1.34242
1.3358
1.32999
1.31898
1.30728
1.29444
1.28979
1.27851
1.27016
1.26539
1.25022
1.24219
1.23262
1.21822
1.20183
1.19967
1.18806
1.17724
1.16968
1.15778
1.14591
1.13141
1.11981
1.11413
1.10349
1.09479
1.08741
1.07936
1.06796
1.0621
1.04997
1.03969
1.03109
1.01509
1.00728
0.996829
0.985781
0.975725
0.971053
0.96205
0.951069
0.941281
0.925473
0.917439
0.907776
0.897586
0.885988
0.874152
0.864521
0.854137
0.847853
0.835763
0.826251
0.817805
0.803887
0.797371
0.789344
0.77988
0.769135
0.757315
0.747141
1.4848
1.47541
1.4657
1.4597
1.45095
1.44184
1.43159
1.4212
1.41112
1.40335
1.39155
1.38169
1.36187
1.35943
1.34371
1.33704
1.33121
1.31764
1.3052
1.29567
1.28567
1.28142
1.27026
1.26567
1.24607
1.2428
1.22709
1.22162
1.20848
1.19873
1.18642
1.17522
1.17316
1.16051
1.14454
1.12849
1.11962
1.11387
1.10141
1.09935
1.08856
1.07788
1.06587
1.06332
1.05048
1.03952
1.02882
1.01698
1.00704
0.997333
0.986574
0.974563
0.968165
0.966725
0.951174
0.936728
0.927578
0.918663
0.907887
0.896967
0.886126
0.876103
0.864783
0.848966
0.848596
0.835567
0.824546
0.817416
0.806995
0.797981
0.788863
0.779458
0.770397
0.754423
0.744335
1.48648
1.47658
1.46873
1.45423
1.45276
1.4403
1.43077
1.42051
1.40911
1.40471
1.39226
1.38128
1.36563
1.35383
1.34713
1.33638
1.32965
1.31643
1.31018
1.29808
1.28732
1.27914
1.26742
1.26468
1.24964
1.24094
1.228
1.22084
1.2128
1.19739
1.18385
1.17781
1.17012
1.15966
1.14139
1.1302
1.11913
1.11837
1.10182
1.09742
1.0889
1.07925
1.06901
1.06026
1.0499
1.03918
1.02785
1.01707
1.00599
0.99901
0.989435
0.971412
0.96874
0.960001
0.94988
0.938623
0.929683
0.921725
0.907993
0.896008
0.885961
0.869833
0.869097
0.851218
0.845437
0.838684
0.820798
0.819285
0.808726
0.798644
0.788825
0.778524
0.766644
0.757396
0.747895
1.48757
1.47683
1.46765
1.45701
1.45049
1.44057
1.43064
1.42123
1.41084
1.40296
1.39171
1.37991
1.36809
1.35719
1.34547
1.3315
1.33179
1.32064
1.3098
1.29854
1.28725
1.27986
1.26665
1.2619
1.25327
1.23892
1.22777
1.21985
1.21126
1.20155
1.18186
1.18185
1.16592
1.15585
1.1429
1.13193
1.12187
1.1147
1.10391
1.09658
1.09023
1.08006
1.07163
1.05844
1.04967
1.03831
1.02662
1.01771
1.00172
1.00047
0.989154
0.975978
0.963537
0.95866
0.94962
0.939324
0.929366
0.918777
0.906804
0.894149
0.891322
0.872754
0.865976
0.85432
0.843075
0.84002
0.824693
0.818481
0.808882
0.799117
0.789307
0.779956
0.76176
0.759998
0.750136
1.48695
1.47715
1.4679
1.45815
1.4495
1.44063
1.43142
1.42177
1.41187
1.40414
1.39257
1.37714
1.36971
1.35352
1.34365
1.33615
1.33016
1.31916
1.30821
1.29768
1.29012
1.2807
1.27007
1.26068
1.25118
1.23969
1.22881
1.21975
1.21046
1.2005
1.18518
1.17715
1.16814
1.15594
1.14361
1.13302
1.12302
1.11367
1.10355
1.09445
1.09305
1.07914
1.07288
1.0575
1.05185
1.03631
1.0239
1.01414
1.00286
0.999645
0.990211
0.975635
0.961993
0.961153
0.950512
0.940795
0.929418
0.917277
0.905973
0.895281
0.887301
0.875439
0.865981
0.855428
0.845833
0.838591
0.826186
0.817528
0.808862
0.799631
0.789487
0.778515
0.765834
0.758858
0.75019
1.4843
1.47815
1.4682
1.45803
1.44904
1.44075
1.43226
1.42253
1.41083
1.39807
1.39288
1.37989
1.36856
1.35455
1.34175
1.33988
1.32947
1.31812
1.30666
1.29485
1.29309
1.28267
1.27158
1.25933
1.25115
1.2394
1.22953
1.22006
1.21051
1.20065
1.18951
1.17184
1.16964
1.15687
1.14442
1.13342
1.12271
1.11361
1.10473
1.09734
1.08372
1.08061
1.07079
1.05976
1.05229
1.03715
1.02222
1.01283
1.00136
0.999012
0.990965
0.976138
0.963266
0.96204
0.951997
0.944021
0.931489
0.915027
0.905046
0.894805
0.885079
0.875513
0.866583
0.854822
0.846843
0.838028
0.824994
0.815557
0.809167
0.801031
0.790552
0.779148
0.765894
0.758916
0.748985
1.47599
1.48247
1.46846
1.45715
1.44776
1.44062
1.4347
1.42547
1.41097
1.39796
1.38508
1.38276
1.3685
1.35504
1.34209
1.34063
1.32962
1.31701
1.30547
1.29335
1.29333
1.2839
1.27443
1.25482
1.25165
1.2382
1.22963
1.22018
1.21082
1.20179
1.1893
1.17335
1.16772
1.15754
1.14602
1.13519
1.12088
1.11334
1.1048
1.0961
1.08642
1.07673
1.06842
1.05861
1.04866
1.03631
1.02253
1.01391
1.00561
0.995474
0.992273
0.977008
0.966473
0.957307
0.95609
0.944633
0.930848
0.917402
0.904554
0.893839
0.883834
0.87483
0.865916
0.856191
0.847236
0.837618
0.825969
0.81262
0.812505
0.803064
0.792437
0.781796
0.76144
0.759184
0.74596
1.48439
1.47802
1.46822
1.45627
1.44362
1.43962
1.43877
1.42158
1.40992
1.39908
1.38857
1.38027
1.36788
1.35536
1.3477
1.33983
1.33076
1.31739
1.30097
1.29519
1.2931
1.28459
1.27551
1.25653
1.24815
1.23832
1.22928
1.22008
1.2108
1.19783
1.19221
1.17719
1.16741
1.159
1.1432
1.13365
1.12327
1.1142
1.10509
1.09599
1.0866
1.07611
1.06709
1.05747
1.04735
1.03706
1.018
1.01512
1.01191
0.996882
0.987869
0.978561
0.968675
0.957529
0.956495
0.945
0.931649
0.919435
0.902097
0.892174
0.88188
0.874014
0.86617
0.858039
0.847465
0.839299
0.828963
0.820978
0.813769
0.802885
0.794451
0.782931
0.762922
0.755893
0.746125
1.48679
1.47823
1.4709
1.45677
1.44361
1.4364
1.43166
1.42359
1.41012
1.3998
1.38996
1.37841
1.36866
1.35556
1.35439
1.34072
1.32905
1.3151
1.29876
1.2967
1.29545
1.28473
1.27515
1.25501
1.24795
1.23778
1.22887
1.22008
1.21131
1.20036
1.19341
1.17574
1.16591
1.15579
1.14443
1.13437
1.12457
1.11508
1.10557
1.09627
1.08614
1.07563
1.06622
1.05678
1.04622
1.03514
1.02313
1.01654
1.01158
0.999962
0.983437
0.981001
0.970919
0.961189
0.954628
0.945805
0.933395
0.915388
0.903491
0.89209
0.879119
0.873305
0.866092
0.862323
0.845936
0.842383
0.830231
0.819903
0.819007
0.800047
0.798828
0.780808
0.763297
0.753632
0.744329
1.48839
1.47759
1.46832
1.45652
1.44578
1.43648
1.42761
1.42398
1.41109
1.39991
1.38844
1.37573
1.3708
1.35772
1.35002
1.33925
1.3283
1.31593
1.30887
1.29749
1.29367
1.2837
1.2728
1.25222
1.24962
1.23733
1.22843
1.21965
1.21303
1.20191
1.19097
1.17719
1.16489
1.15383
1.1445
1.13489
1.12554
1.11614
1.10625
1.09657
1.08589
1.07405
1.0663
1.05643
1.0456
1.03462
1.02434
1.01625
1.0089
1.0015
0.989647
0.981219
0.971084
0.962372
0.95428
0.944004
0.934259
0.916104
0.904435
0.894177
0.883972
0.874065
0.864547
0.862755
0.845836
0.839569
0.830096
0.821434
0.818704
0.802569
0.795251
0.777884
0.767479
0.751681
0.744577
1.49032
1.4774
1.46759
1.45536
1.44472
1.43763
1.42888
1.42153
1.41095
1.40037
1.38804
1.37755
1.36823
1.35775
1.34782
1.33784
1.32887
1.31502
1.31223
1.30207
1.29554
1.28128
1.26852
1.25445
1.24786
1.23776
1.22802
1.21814
1.21574
1.20291
1.19107
1.17741
1.16415
1.15209
1.14388
1.13463
1.12735
1.11781
1.10764
1.09638
1.08564
1.07007
1.06793
1.05607
1.04518
1.03382
1.02314
1.01557
1.00739
1.00463
0.993912
0.983552
0.969177
0.962238
0.956056
0.940787
0.932112
0.921838
0.904018
0.896588
0.889566
0.875743
0.864531
0.854818
0.846902
0.83849
0.829235
0.819921
0.817248
0.80783
0.788526
0.779345
0.765467
0.754457
0.744403
1.47841
1.47599
1.46929
1.45307
1.44197
1.43976
1.43011
1.42039
1.41078
1.40258
1.38692
1.37846
1.36614
1.3566
1.34603
1.33647
1.32761
1.31759
1.31155
1.30249
1.29351
1.28379
1.26627
1.25596
1.24715
1.23788
1.22827
1.21993
1.21335
1.20298
1.19305
1.17612
1.16317
1.15279
1.14393
1.133
1.12943
1.11935
1.11042
1.09576
1.08612
1.06795
1.06722
1.05491
1.04552
1.03358
1.01963
1.01535
1.01085
0.999902
0.995834
0.982576
0.970935
0.962634
0.953791
0.942361
0.932159
0.923347
0.904212
0.898938
0.890142
0.874883
0.863781
0.856563
0.847562
0.83826
0.828981
0.820807
0.814152
0.80357
0.790229
0.778835
0.767164
0.75682
0.747862
1.48806
1.47105
1.46681
1.45813
1.44347
1.43819
1.42949
1.42009
1.40923
1.40046
1.39116
1.37632
1.36654
1.35691
1.34362
1.33615
1.32579
1.31862
1.31249
1.3026
1.29216
1.28109
1.26829
1.25727
1.24733
1.23834
1.22908
1.22017
1.21135
1.20147
1.19042
1.17781
1.16501
1.15313
1.14598
1.13538
1.12727
1.1188
1.10588
1.09324
1.08316
1.07192
1.06331
1.05557
1.04818
1.03587
1.02109
1.01527
1.00834
0.998728
0.991895
0.982094
0.970782
0.9637
0.95389
0.942796
0.932008
0.92154
0.905078
0.902624
0.891505
0.876149
0.862351
0.859321
0.848312
0.83794
0.828452
0.820506
0.81258
0.802093
0.790062
0.77856
0.768155
0.757703
0.748493
1.48298
1.46902
1.46716
1.45764
1.44742
1.43839
1.42941
1.42132
1.40567
1.39818
1.38891
1.37765
1.36556
1.35558
1.34687
1.33896
1.32119
1.31857
1.31512
1.30269
1.29133
1.28
1.26858
1.25758
1.24702
1.23936
1.22977
1.21983
1.21022
1.20009
1.18929
1.17827
1.16827
1.15064
1.14849
1.13613
1.12719
1.11859
1.10727
1.09533
1.0827
1.07522
1.05823
1.05643
1.04482
1.03966
1.02634
1.01633
1.00704
0.99642
0.989952
0.983712
0.968487
0.965858
0.954601
0.942849
0.931468
0.920925
0.908701
0.899422
0.894111
0.877131
0.865839
0.858862
0.847931
0.836782
0.826326
0.820375
0.813867
0.802084
0.789499
0.777309
0.769431
0.757863
0.746683
1.48162
1.47102
1.46194
1.45906
1.44859
1.43829
1.42856
1.41863
1.40698
1.39698
1.38676
1.37813
1.36529
1.35226
1.34926
1.34025
1.32777
1.31997
1.31245
1.30175
1.29048
1.27912
1.26848
1.25755
1.245
1.24095
1.23006
1.21935
1.20973
1.19933
1.18842
1.17766
1.16736
1.15545
1.1473
1.1343
1.13021
1.1187
1.10769
1.09635
1.08388
1.07438
1.06334
1.05635
1.04641
1.03815
1.02734
1.01686
1.00717
0.992722
0.988268
0.981984
0.975048
0.964964
0.953614
0.942418
0.931262
0.920736
0.910276
0.900866
0.889749
0.878131
0.867605
0.861171
0.844377
0.835703
0.824455
0.820588
0.819253
0.802823
0.788752
0.773341
0.772058
0.758135
0.748664
1.48132
1.47299
1.4589
1.45782
1.44794
1.43783
1.42785
1.41757
1.40671
1.39608
1.38493
1.37994
1.36488
1.35146
1.34816
1.34403
1.33094
1.32095
1.31145
1.30132
1.28975
1.27747
1.26873
1.25982
1.24755
1.23874
1.22876
1.21756
1.21002
1.19889
1.18755
1.17641
1.16813
1.15774
1.14739
1.13651
1.12796
1.11764
1.10864
1.09677
1.08479
1.07448
1.0669
1.05781
1.04723
1.03794
1.02799
1.01786
1.00741
0.996363
0.988803
0.981452
0.973597
0.962887
0.95211
0.942059
0.930412
0.920145
0.910425
0.900927
0.889106
0.878568
0.866912
0.861023
0.843324
0.837212
0.832988
0.818168
0.812793
0.801187
0.789246
0.778425
0.771679
0.760384
0.749319
1.4781
1.47179
1.46215
1.45573
1.44583
1.43782
1.42751
1.41704
1.40641
1.39607
1.38617
1.38178
1.36387
1.35499
1.34794
1.34109
1.33123
1.32159
1.31123
1.30229
1.29005
1.273
1.26908
1.26382
1.24769
1.23665
1.22752
1.21421
1.21304
1.19757
1.18644
1.17398
1.16901
1.15934
1.14858
1.13752
1.12683
1.11623
1.1104
1.09684
1.08397
1.07269
1.06949
1.05986
1.04744
1.03842
1.02878
1.01901
1.0091
0.999152
0.989575
0.981044
0.972351
0.961143
0.949829
0.942507
0.928152
0.919205
0.909768
0.900772
0.889035
0.879948
0.869654
0.860003
0.846849
0.837467
0.829187
0.818803
0.810009
0.799468
0.788711
0.780997
0.771823
0.761976
0.749288
1.4735
1.47121
1.46226
1.45667
1.44316
1.43818
1.42694
1.41636
1.40617
1.39546
1.38688
1.38112
1.36631
1.35715
1.34805
1.33928
1.33029
1.32301
1.30997
1.29586
1.29292
1.28018
1.27093
1.26216
1.2473
1.2352
1.22769
1.21124
1.20799
1.20151
1.18713
1.17475
1.16521
1.16107
1.14972
1.13812
1.12746
1.11957
1.10766
1.09572
1.08301
1.0733
1.06832
1.05994
1.04946
1.03954
1.02979
1.02017
1.01089
0.999841
0.989347
0.980705
0.973676
0.959647
0.945318
0.937077
0.930289
0.920305
0.909003
0.897555
0.890855
0.882813
0.872395
0.860537
0.848114
0.836657
0.826489
0.818535
0.808414
0.798139
0.786098
0.783313
0.772796
0.762
0.750024
1.483
1.46524
1.46467
1.4565
1.444
1.43526
1.42586
1.41596
1.40741
1.39546
1.39412
1.37805
1.36664
1.35747
1.3476
1.33763
1.32767
1.31796
1.30972
1.30196
1.29578
1.28125
1.27251
1.26297
1.25139
1.23765
1.22657
1.21187
1.20594
1.19814
1.18655
1.17487
1.1655
1.15877
1.14956
1.13836
1.12682
1.11676
1.1046
1.0991
1.08425
1.07376
1.06841
1.06118
1.05047
1.04046
1.03062
1.0211
1.01519
0.999602
0.987302
0.978887
0.969845
0.958355
0.947469
0.931996
0.929669
0.925838
0.906891
0.892612
0.890247
0.886938
0.876415
0.861687
0.84852
0.834789
0.827427
0.819657
0.807658
0.798964
0.787679
0.781593
0.772925
0.761811
0.750119
1.48025
1.46911
1.46464
1.45755
1.44314
1.43264
1.42498
1.41547
1.40604
1.398
1.39384
1.37834
1.36781
1.35823
1.34728
1.33597
1.32493
1.313
1.30969
1.30634
1.29472
1.28365
1.27477
1.26621
1.2499
1.23813
1.22741
1.21633
1.2065
1.19656
1.18557
1.17277
1.16565
1.1581
1.15047
1.13742
1.12604
1.1164
1.10555
1.09631
1.08152
1.07505
1.06943
1.0636
1.04966
1.04161
1.03154
1.01986
1.01651
1.00119
0.98716
0.977681
0.967967
0.956644
0.943568
0.938483
0.92922
0.92038
0.907326
0.89488
0.888687
0.882812
0.87353
0.861319
0.84947
0.837953
0.830398
0.820648
0.809743
0.801199
0.785471
0.780662
0.774459
0.762113
0.749663
1.47406
1.47316
1.46413
1.45459
1.44396
1.4331
1.42625
1.41573
1.40389
1.39918
1.39496
1.37596
1.3721
1.36016
1.34724
1.33438
1.32282
1.31347
1.31008
1.30367
1.29305
1.28351
1.27682
1.26078
1.2488
1.23747
1.22863
1.21951
1.20721
1.19659
1.18625
1.17616
1.16585
1.15881
1.14651
1.14017
1.12805
1.11686
1.10628
1.09587
1.08475
1.0763
1.07081
1.06163
1.04505
1.04349
1.0335
1.02338
1.01716
0.998944
0.984775
0.97709
0.967428
0.956818
0.946205
0.938319
0.928386
0.917838
0.905889
0.893243
0.886197
0.879923
0.873058
0.860892
0.8503
0.839122
0.834936
0.821798
0.810407
0.799218
0.785139
0.781585
0.777905
0.762368
0.748208
1.47074
1.47151
1.46316
1.45294
1.44403
1.43255
1.43002
1.41817
1.40733
1.39839
1.39129
1.37674
1.37197
1.36249
1.34942
1.33193
1.31973
1.31124
1.3113
1.30362
1.29201
1.27982
1.27478
1.26124
1.24784
1.23659
1.22999
1.22337
1.20621
1.1964
1.18687
1.18034
1.16356
1.16186
1.14788
1.13955
1.12823
1.11683
1.10645
1.09652
1.0877
1.07613
1.06918
1.05977
1.04953
1.04248
1.03343
1.02414
1.01386
0.999415
0.984287
0.978385
0.967577
0.957583
0.947354
0.93775
0.927663
0.916881
0.905279
0.888354
0.883855
0.8776
0.872792
0.859549
0.852288
0.844447
0.835258
0.821181
0.811004
0.800284
0.789435
0.782436
0.774488
0.761276
0.747891
1.46783
1.46625
1.46241
1.45085
1.44705
1.43543
1.43013
1.41994
1.4101
1.39746
1.38781
1.37542
1.37335
1.36159
1.349
1.33536
1.31493
1.31133
1.30936
1.30496
1.29158
1.27956
1.27091
1.26138
1.24586
1.24305
1.23091
1.21934
1.20393
1.19628
1.18699
1.1822
1.16957
1.16117
1.14971
1.13981
1.12783
1.11612
1.10627
1.09657
1.08734
1.0774
1.06913
1.05992
1.0528
1.04255
1.03346
1.02569
1.0105
1.00101
0.982772
0.980295
0.967549
0.958231
0.947831
0.937783
0.927616
0.916539
0.905885
0.890059
0.881987
0.873981
0.863947
0.858412
0.85345
0.849644
0.834581
0.822731
0.811888
0.8015
0.791733
0.783534
0.772858
0.760462
0.747527
1.46242
1.46689
1.46542
1.45413
1.44532
1.43461
1.43205
1.42077
1.41025
1.39772
1.38698
1.37726
1.37037
1.36073
1.35129
1.33336
1.31987
1.311
1.3088
1.30085
1.29019
1.27824
1.26764
1.25665
1.25276
1.24417
1.23066
1.21647
1.20197
1.19727
1.19317
1.18088
1.17099
1.16079
1.1508
1.14268
1.12674
1.11456
1.10603
1.09626
1.08613
1.07912
1.06979
1.05925
1.05664
1.04324
1.03228
1.0227
1.01104
1.0002
0.988356
0.979385
0.968523
0.958933
0.947758
0.937933
0.928314
0.917169
0.905606
0.892443
0.880005
0.871578
0.862659
0.857264
0.852639
0.846965
0.83545
0.824161
0.812972
0.802036
0.792789
0.78614
0.772906
0.760104
0.745959
1.47272
1.46781
1.46286
1.45413
1.44522
1.4364
1.42988
1.4202
1.41012
1.39788
1.38728
1.37788
1.36872
1.35971
1.35041
1.33272
1.32312
1.31211
1.31023
1.29841
1.28909
1.27573
1.26682
1.25769
1.25146
1.24615
1.23105
1.21525
1.20599
1.19842
1.19105
1.17996
1.17036
1.16035
1.15013
1.14165
1.12764
1.11575
1.10703
1.09556
1.08273
1.0813
1.07113
1.06175
1.05537
1.04437
1.03148
1.02172
1.01093
1.00058
0.991211
0.97882
0.969721
0.961481
0.945909
0.937665
0.927788
0.918465
0.905622
0.894934
0.87686
0.870455
0.860613
0.855583
0.851375
0.845574
0.837496
0.825301
0.814281
0.800867
0.791594
0.783383
0.772655
0.761288
0.749886
1.4792
1.46993
1.46296
1.45378
1.44535
1.43684
1.42858
1.41956
1.41096
1.39802
1.38704
1.37686
1.36715
1.35905
1.3467
1.3353
1.32753
1.31509
1.30878
1.29851
1.28281
1.27827
1.26662
1.25738
1.24778
1.24472
1.23191
1.21953
1.20981
1.19941
1.18897
1.17919
1.17019
1.16013
1.14796
1.13597
1.13066
1.11884
1.11068
1.09614
1.08199
1.0778
1.07212
1.06312
1.05422
1.04403
1.03296
1.02162
1.01034
0.999927
0.990423
0.981503
0.969743
0.959693
0.94812
0.938876
0.925578
0.922236
0.903696
0.892626
0.880029
0.87211
0.855327
0.853247
0.85193
0.846119
0.842217
0.82488
0.807881
0.803733
0.791651
0.783075
0.773013
0.762611
0.752293
1.48134
1.47158
1.46479
1.45297
1.44537
1.43703
1.42861
1.41994
1.40991
1.40111
1.38695
1.37365
1.36497
1.35696
1.34816
1.33496
1.33016
1.31756
1.30867
1.30117
1.28283
1.27485
1.2638
1.2571
1.2507
1.2397
1.23282
1.22101
1.21391
1.20035
1.18639
1.17778
1.17164
1.16201
1.14586
1.1362
1.12763
1.11867
1.10932
1.09658
1.08517
1.07531
1.07432
1.06377
1.05434
1.04431
1.03427
1.02187
1.00941
0.998682
0.988275
0.986251
0.967598
0.960235
0.948511
0.938042
0.926654
0.918202
0.905329
0.892233
0.880815
0.870515
0.860544
0.852701
0.855785
0.844867
0.833567
0.824008
0.810789
0.802088
0.792606
0.783276
0.773798
0.763883
0.753578
1.48158
1.47107
1.46479
1.45505
1.44605
1.4373
1.4289
1.42181
1.40684
1.39895
1.38584
1.37132
1.36715
1.35545
1.35185
1.33851
1.32692
1.31578
1.30875
1.30037
1.28839
1.2741
1.25788
1.2567
1.25232
1.23685
1.23326
1.21939
1.21302
1.20113
1.18983
1.17663
1.17481
1.15852
1.14965
1.13517
1.12481
1.11769
1.1113
1.09576
1.08706
1.07832
1.0721
1.06334
1.05489
1.04593
1.03661
1.02136
1.00927
0.998435
0.989192
0.982073
0.967035
0.963783
0.948372
0.938041
0.926987
0.916636
0.905963
0.89181
0.881364
0.870657
0.861868
0.854604
0.851297
0.843055
0.833545
0.816796
0.814376
0.803039
0.792933
0.78312
0.775779
0.765498
0.755041
1.48145
1.4695
1.46797
1.45647
1.44649
1.43725
1.42791
1.41933
1.40884
1.40095
1.38455
1.37206
1.36617
1.35764
1.35276
1.33798
1.32906
1.31063
1.30969
1.29942
1.2855
1.2744
1.26323
1.25923
1.24795
1.23695
1.2285
1.21761
1.21464
1.20172
1.18975
1.17812
1.17027
1.15865
1.1479
1.13597
1.12437
1.11579
1.11015
1.0994
1.08923
1.07966
1.07081
1.06219
1.05565
1.04693
1.03446
1.02419
1.0145
0.997588
0.989778
0.980165
0.967701
0.964325
0.948855
0.938656
0.926749
0.916096
0.905257
0.892606
0.881313
0.868853
0.86171
0.855348
0.849403
0.84214
0.828783
0.818836
0.813224
0.805114
0.793785
0.781691
0.778564
0.767063
0.756971
1.48255
1.47218
1.46571
1.45565
1.44612
1.43729
1.42744
1.41807
1.4088
1.39915
1.386
1.37443
1.36588
1.35748
1.34997
1.33997
1.32899
1.3136
1.30722
1.2972
1.28615
1.27481
1.26369
1.25614
1.24394
1.2405
1.22927
1.2199
1.21267
1.20097
1.18917
1.17865
1.16883
1.15787
1.14738
1.13578
1.12271
1.11397
1.11258
1.10202
1.09084
1.08041
1.07004
1.06076
1.05794
1.04583
1.03461
1.02472
1.01542
1.00114
0.991714
0.981118
0.970272
0.96178
0.948573
0.941495
0.925161
0.915692
0.905023
0.89321
0.881651
0.865569
0.861405
0.855655
0.849022
0.847049
0.82366
0.818505
0.812108
0.807348
0.794784
0.783764
0.776316
0.76704
0.759422
1.48298
1.47296
1.46585
1.45408
1.4464
1.43765
1.42651
1.41586
1.40907
1.40054
1.38584
1.37525
1.36543
1.35621
1.34984
1.34084
1.32832
1.31459
1.30668
1.29574
1.28834
1.27317
1.26211
1.25429
1.24433
1.23995
1.23086
1.22183
1.2147
1.19997
1.18758
1.17867
1.16859
1.1567
1.14834
1.13667
1.11988
1.1156
1.11365
1.10219
1.09186
1.0812
1.07087
1.06195
1.05794
1.04327
1.03486
1.02555
1.01656
1.00491
0.993937
0.982258
0.970832
0.962952
0.945285
0.940065
0.927494
0.916587
0.905796
0.893376
0.880977
0.869434
0.862407
0.855827
0.846228
0.846176
0.8266
0.819497
0.810119
0.802757
0.793817
0.784415
0.774762
0.765293
0.757769
1.48237
1.47186
1.46394
1.45517
1.4477
1.44026
1.42522
1.41185
1.41119
1.40237
1.38689
1.3751
1.36443
1.35379
1.35104
1.33962
1.32799
1.31297
1.3084
1.29663
1.28607
1.27407
1.26284
1.25382
1.2446
1.24208
1.23162
1.2217
1.21241
1.20114
1.18983
1.17966
1.17029
1.15267
1.15142
1.13219
1.12828
1.11675
1.10829
1.1011
1.09329
1.08136
1.07054
1.0594
1.05401
1.04644
1.03547
1.02655
1.01805
1.00841
0.997036
0.982979
0.967868
0.962969
0.952136
0.936326
0.926738
0.91729
0.908156
0.892132
0.879931
0.871585
0.863287
0.854239
0.847781
0.841393
0.830395
0.822733
0.805928
0.798338
0.792562
0.785893
0.773196
0.761752
0.759438
1.47906
1.47009
1.46215
1.45575
1.44923
1.43895
1.42431
1.41835
1.4174
1.40094
1.38386
1.37398
1.3642
1.35535
1.34717
1.33734
1.32644
1.31451
1.30613
1.29785
1.28524
1.27264
1.26252
1.25371
1.24699
1.24486
1.23059
1.22212
1.21076
1.20209
1.191
1.17996
1.16868
1.15557
1.14956
1.13746
1.12938
1.1183
1.10362
1.10043
1.09811
1.07973
1.07059
1.05282
1.05286
1.05016
1.03365
1.02682
1.02107
1.0038
1.00049
0.984812
0.969807
0.968936
0.952574
0.935722
0.925127
0.91769
0.905581
0.893054
0.881044
0.87375
0.863764
0.853353
0.8506
0.840393
0.830366
0.821948
0.804052
0.793917
0.791981
0.791119
0.770987
0.759681
0.75946
1.47407
1.46858
1.46005
1.4564
1.4532
1.44286
1.42987
1.42018
1.41184
1.39949
1.38507
1.37327
1.36378
1.35557
1.34395
1.33575
1.32534
1.31567
1.30387
1.3001
1.28423
1.27058
1.26109
1.25269
1.24734
1.2484
1.23421
1.22515
1.20679
1.20328
1.19152
1.18058
1.16935
1.15597
1.15061
1.13902
1.12919
1.11937
1.10745
1.09901
1.09237
1.08051
1.06859
1.05512
1.05426
1.04781
1.0303
1.02594
1.02203
1.00783
0.999212
0.986478
0.974143
0.96662
0.952902
0.939226
0.923987
0.921883
0.903447
0.892656
0.880836
0.878828
0.860689
0.859922
0.846431
0.84068
0.829624
0.818789
0.80638
0.796201
0.789029
0.787851
0.77197
0.758495
0.758834
1.47145
1.47592
1.46462
1.45779
1.45054
1.44931
1.43293
1.42045
1.40781
1.39854
1.38372
1.37073
1.3627
1.35335
1.34308
1.33477
1.32547
1.31858
1.30392
1.29999
1.281
1.26954
1.25857
1.25001
1.25082
1.25178
1.23644
1.22456
1.21119
1.20239
1.1917
1.18152
1.17202
1.16031
1.14616
1.13825
1.12946
1.12021
1.1107
1.09823
1.08995
1.07993
1.06869
1.05743
1.0523
1.04152
1.03792
1.0262
1.0188
1.00775
0.998168
0.987908
0.976622
0.967158
0.954438
0.938524
0.926095
0.917648
0.90495
0.893545
0.883924
0.876315
0.864714
0.856571
0.845275
0.844014
0.829774
0.817337
0.806885
0.797574
0.789694
0.782143
0.771123
0.760236
0.759871
1.4792
1.47103
1.46374
1.4615
1.45155
1.44403
1.43194
1.42039
1.41043
1.39813
1.38216
1.36944
1.36072
1.35147
1.34376
1.33253
1.32741
1.31517
1.30604
1.3005
1.28203
1.2704
1.25627
1.25374
1.25205
1.25213
1.23955
1.22614
1.21329
1.20164
1.19069
1.18182
1.1724
1.16236
1.14575
1.1383
1.1301
1.12115
1.1113
1.09959
1.08957
1.07993
1.07023
1.05708
1.05321
1.04085
1.03765
1.02593
1.01647
1.0051
0.997822
0.990209
0.977851
0.966099
0.953272
0.945748
0.927246
0.916193
0.905065
0.894178
0.884464
0.875474
0.865715
0.854985
0.844971
0.843958
0.830246
0.815815
0.805874
0.797476
0.790254
0.779003
0.770663
0.760936
0.754515
1.48061
1.46898
1.46938
1.46046
1.45104
1.44166
1.42984
1.41808
1.41041
1.3979
1.38267
1.36922
1.35949
1.3484
1.34695
1.33575
1.32563
1.31022
1.30458
1.30026
1.27723
1.2723
1.26736
1.25816
1.25057
1.25027
1.24086
1.22778
1.21372
1.19993
1.18841
1.18265
1.1719
1.16012
1.14765
1.13926
1.13156
1.12293
1.11189
1.10005
1.08965
1.08004
1.06981
1.05936
1.05244
1.04119
1.03407
1.0248
1.01541
1.00096
0.997901
0.994216
0.976274
0.964504
0.953801
0.951461
0.93202
0.915318
0.905089
0.893898
0.884232
0.874947
0.866423
0.85462
0.846021
0.84033
0.831914
0.815837
0.802522
0.796036
0.788767
0.779232
0.771889
0.756722
0.753448
1.48327
1.47298
1.46797
1.45905
1.45017
1.4423
1.42664
1.41461
1.41051
1.39613
1.38334
1.37086
1.35985
1.34897
1.34829
1.33887
1.32244
1.31241
1.30192
1.29322
1.27973
1.27472
1.26945
1.26104
1.25246
1.24656
1.23765
1.22534
1.21363
1.20241
1.18856
1.18719
1.17197
1.15841
1.1442
1.13945
1.13412
1.12725
1.11324
1.09927