/*--------------------------------*- C++ -*----------------------------------*\
  =========                 |
  \\      /  F ield         | OpenFOAM: The Open Source CFD Toolbox
   \\    /   O peration     | Website:  https://openfoam.org
    \\  /    A nd           | Version:  12
     \\/     M anipulation  |
\*---------------------------------------------------------------------------*/
FoamFile
{
    format      ascii;
    class       surfaceScalarField;
    location    "0.45";
    object      phi.water;
}
// * * * * * * * * * * * * * * * * * * * * * * * * * * * * * * * * * * * * * //

dimensions      [0 3 -1 0 0 0 0];

internalField   nonuniform List<scalar> 
7375
(
-2.365e-07
5.80133e-08
-1.14821e-07
-7.13169e-08
-4.07528e-08
-7.46606e-08
3.52148e-08
-7.53054e-08
4.7273e-08
-1.22474e-08
5.4246e-08
-7.09133e-09
5.52076e-08
-9.81621e-10
4.81329e-08
7.10837e-09
1.83771e-07
1.59055e-08
7.27214e-08
-4.05284e-08
8.7841e-08
-1.43756e-08
1.10298e-07
-2.10568e-08
7.57469e-08
-1.70148e-08
1.12195e-07
1.39587e-08
1.10196e-07
1.99362e-09
1.17084e-07
-6.94681e-09
8.27206e-08
-1.6921e-08
1.33686e-07
1.52044e-10
1.42563e-07
-8.80993e-09
1.11256e-07
-2.08443e-08
1.47155e-07
1.47745e-08
1.45026e-07
5.08149e-09
8.95431e-08
3.8766e-09
1.14125e-07
2.55031e-08
9.45483e-08
2.07906e-08
2.18317e-07
2.97743e-08
1.13116e-07
-4.95224e-08
1.45499e-07
-3.12254e-08
1.37864e-07
7.6892e-09
1.30798e-07
6.99656e-09
1.20921e-07
9.77812e-09
1.16726e-07
4.20365e-09
1.1717e-07
6.86208e-10
1.30638e-07
-1.45652e-08
1.45195e-07
-1.5877e-08
1.4383e-07
1.37536e-09
1.51431e-07
-7.52541e-09
1.48583e-07
4.45281e-09
1.4321e-07
5.36117e-09
1.41951e-07
1.24031e-09
1.49557e-07
-9.27292e-09
1.7093e-07
-2.13735e-08
2.0264e-07
-3.17067e-08
2.18863e-07
-1.84331e-08
2.24345e-07
1.25852e-09
2.09971e-07
1.90552e-08
1.81927e-07
2.22033e-08
1.52289e-07
2.78013e-08
1.43465e-07
1.04772e-08
8.84631e-08
5.50039e-08
2.0374e-07
3.62071e-08
8.57286e-08
-3.36727e-08
1.00806e-07
-1.40769e-08
1.0642e-07
-5.6282e-09
1.17851e-07
-1.02407e-08
1.47399e-07
-2.98125e-08
1.29894e-07
1.7094e-08
1.16278e-07
1.36655e-08
1.23784e-07
-8.51235e-09
1.33606e-07
-9.83086e-09
1.32294e-07
1.36055e-09
1.27073e-07
5.18086e-09
1.22986e-07
4.07638e-09
1.11251e-07
1.2719e-08
9.04151e-08
2.06044e-08
9.07688e-08
-1.32145e-09
1.07053e-07
-1.63144e-08
1.03693e-07
3.36916e-09
9.79506e-08
4.70117e-09
1.02551e-07
-4.59983e-09
1.08341e-07
-4.74816e-09
1.19363e-07
-9.69073e-09
8.32525e-08
-1.53814e-08
1.17282e-07
1.62436e-08
2.30539e-09
-1.18167e-07
2.04814e-08
-4.82265e-08
-1.23217e-07
-1.20433e-07
-5.19103e-08
-7.91574e-08
-6.36316e-08
-6.66044e-08
-2.60338e-08
-9.66901e-08
-2.93354e-08
-4.71574e-08
2.17846e-09
-2.29384e-08
-1.63948e-08
3.93742e-08
-4.72815e-08
1.98722e-08
-2.10373e-08
4.31709e-08
-3.79113e-08
4.28915e-08
-2.12048e-08
3.59722e-08
-9.48369e-09
4.34908e-08
6.44101e-09
2.77978e-08
1.79709e-08
1.26806e-08
8.30196e-09
-1.97107e-09
-2.39936e-09
1.47729e-08
-1.67216e-08
2.39566e-08
-1.82349e-08
3.07258e-08
-2.76499e-08
2.1963e-08
2.37781e-08
5.60093e-08
-2.8964e-08
2.98733e-08
3.02402e-08
3.40593e-08
2.14452e-08
1.81823e-08
3.73939e-08
2.74772e-08
2.02668e-08
-6.36097e-09
-1.69353e-08
1.15245e-08
-4.9551e-08
-5.61376e-10
1.95813e-08
-5.24543e-09
1.1734e-08
-1.27196e-09
5.73894e-09
-9.61568e-09
1.25345e-08
1.00509e-09
-9.84676e-09
4.46471e-08
-5.86523e-08
1.69987e-08
1.20647e-08
1.17772e-08
6.47686e-09
1.14627e-08
-7.17138e-09
1.34235e-08
2.61019e-09
9.8267e-10
1.74963e-08
1.69416e-09
5.40665e-10
2.17951e-08
-2.93917e-08
5.14856e-08
-5.20297e-08
1.096e-07
-9.07375e-08
1.18286e-07
-2.59252e-08
1.47374e-07
-2.78163e-08
1.44879e-07
2.2873e-08
1.17622e-07
4.9231e-08
8.28021e-08
6.17048e-08
1.54808e-07
9.20424e-08
2.67766e-08
2.91667e-08
4.954e-08
1.29382e-08
2.67686e-08
-1.15115e-08
2.31458e-08
-1.01838e-08
2.5836e-08
-8.08204e-09
2.67086e-08
-1.07313e-08
1.51357e-07
-5.59424e-10
8.58565e-08
-7.25539e-08
9.02306e-08
9.0184e-09
9.3396e-08
-1.07665e-08
9.29801e-08
-7.66979e-09
1.12896e-07
-1.97193e-08
1.03949e-07
1.29878e-08
8.37426e-08
2.44893e-08
4.55335e-08
5.04684e-08
4.50584e-08
2.13311e-08
3.06948e-08
1.35018e-08
3.44018e-08
-1.95187e-08
1.34986e-08
2.42726e-08
-2.12153e-08
3.87445e-08
-2.1485e-08
-4.3766e-09
-2.36556e-10
-2.59941e-08
1.01377e-08
-2.00655e-08
1.37717e-08
-1.89495e-08
2.97888e-08
-7.80086e-11
1.8581e-08
-1.38323e-07
7.44693e-09
-2.15942e-08
-4.91707e-08
-1.16465e-07
-1.06181e-07
-1.06193e-07
-7.46492e-08
-8.30983e-08
-5.07766e-08
-8.8148e-08
-2.36864e-08
-6.82506e-08
-1.7022e-08
-8.32693e-08
-2.89161e-09
2.13826e-08
2.73407e-09
-1.01652e-07
-5.20056e-08
-7.63399e-08
-6.54483e-08
-1.55714e-07
5.69227e-09
-1.43092e-07
3.25958e-08
-1.36193e-07
-4.57219e-10
-1.2938e-07
1.11588e-08
-1.20861e-07
-3.0085e-10
-9.27644e-08
-3.07851e-08
-1.20943e-07
1.14581e-08
-1.60666e-07
1.96632e-08
-7.41508e-08
4.07049e-08
-2.27289e-07
-2.73679e-08
-7.8578e-08
2.70684e-08
-1.79519e-07
-2.05581e-08
-1.27157e-07
-3.10131e-08
-1.40318e-07
4.88775e-08
-1.50156e-07
2.81599e-08
-1.78559e-07
9.80178e-09
-8.15292e-08
1.12547e-08
-1.67033e-07
-4.61119e-08
-1.54287e-07
-2.56932e-09
-1.35584e-07
-1.29054e-08
-1.39521e-07
-3.52061e-08
-1.51404e-07
4.92143e-10
-3.73588e-08
3.35699e-08
-1.42686e-07
-3.57984e-08
-1.25481e-07
-1.06197e-08
-1.11341e-07
-2.13846e-08
-9.54983e-08
-1.22849e-08
-5.13058e-08
-2.61783e-08
-3.56438e-08
-1.56451e-08
-3.24358e-08
-3.26636e-08
-3.45279e-08
-5.029e-08
6.41374e-08
-3.62186e-08
-8.93875e-09
-1.05517e-07
4.04134e-08
-7.60714e-08
3.78856e-08
-2.63174e-08
8.02031e-08
5.72151e-08
6.82584e-08
7.44086e-08
3.88392e-08
1.21065e-07
-4.42445e-09
7.17063e-08
-3.44391e-08
4.29078e-08
-4.87126e-08
2.64469e-09
-5.50614e-08
-3.93881e-09
-5.64344e-08
-6.13325e-09
-5.26175e-08
-1.46965e-08
-3.25971e-08
-2.18899e-08
1.82791e-08
3.07878e-08
-9.03278e-08
-3.44884e-08
-9.26227e-08
-1.13926e-08
-1.56717e-07
4.16852e-09
-2.83427e-08
6.00665e-08
-3.39687e-08
1.87464e-08
-1.44173e-08
4.93796e-09
-1.45549e-07
-2.26471e-08
-9.02651e-08
1.74556e-08
-1.05978e-07
2.81332e-08
-1.78299e-08
4.74874e-08
-2.81362e-08
3.42037e-08
-1.06308e-07
-3.51035e-08
-8.75416e-08
-2.42276e-08
-8.46618e-08
-2.88738e-08
-8.85229e-08
-1.76734e-08
-1.11885e-07
4.41115e-09
-1.04327e-07
-6.49513e-09
-1.81346e-08
-1.28929e-07
-4.36542e-08
-1.10373e-07
-4.1544e-08
-1.2562e-07
-8.88581e-08
-1.28098e-07
-7.29316e-08
-1.18783e-07
-5.93976e-08
-9.07905e-08
-5.23555e-08
-7.29077e-08
-3.52638e-08
-4.70842e-08
-2.82636e-08
-3.11035e-08
-1.37541e-08
-7.5559e-08
-8.23622e-09
-7.02128e-09
2.09529e-08
-1.50122e-07
-6.35346e-09
-1.81244e-07
1.18781e-08
-1.6481e-07
3.57837e-08
-1.6882e-07
1.50167e-08
-1.86774e-07
1.55896e-08
-9.30581e-08
3.06537e-08
-2.1153e-07
-2.29247e-08
-2.05346e-07
1.34792e-08
-1.99248e-07
3.18356e-08
-2.42001e-07
1.27598e-08
-2.20837e-07
8.31344e-09
-2.43971e-07
2.34093e-09
-1.365e-07
1.63504e-08
-2.10241e-07
-2.95594e-08
-1.72052e-07
-1.00291e-08
-1.62147e-07
-2.02015e-10
-1.27423e-07
-2.38275e-08
-1.59088e-07
-1.32936e-08
-1.683e-07
6.57613e-09
-1.6766e-07
-1.69724e-08
-1.81247e-07
-2.16185e-08
-1.67048e-07
-1.18578e-08
-1.2549e-07
-8.33045e-09
-1.30515e-07
-2.94419e-08
-1.1838e-07
-2.27552e-08
-1.10773e-07
-3.01991e-08
-1.02994e-07
-2.00644e-08
-7.77672e-08
-5.16718e-08
-6.57808e-08
-2.77913e-08
-7.06272e-08
-2.78173e-08
-7.67842e-08
-4.49165e-08
-9.48559e-08
-6.94918e-08
-8.1728e-08
-6.67298e-08
-7.49891e-08
-8.19825e-08
-1.01349e-07
-4.54166e-10
-1.05476e-07
6.0887e-08
-3.33838e-08
1.57471e-07
-1.72736e-07
5.83543e-08
-1.11421e-07
6.11713e-08
-1.00624e-07
3.0974e-08
-1.06663e-07
8.68301e-09
-1.11777e-07
1.1756e-09
-1.29761e-07
1.04208e-08
-1.65919e-07
1.78896e-08
-6.91599e-08
3.94386e-08
-1.36291e-07
-5.51176e-08
-1.75362e-07
4.23095e-09
-1.69373e-07
-1.73814e-08
-1.61416e-07
-3.87307e-09
-1.00426e-07
-9.1467e-10
-9.08916e-08
9.30755e-09
-6.33927e-08
-2.27934e-08
-1.05435e-07
-3.21225e-08
-1.31343e-07
9.45534e-08
-1.38134e-07
3.49243e-08
-7.94823e-08
-1.08381e-08
-9.0901e-08
4.51663e-08
-1.19205e-07
-8.08504e-09
-1.2378e-07
-1.96525e-08
-1.04346e-07
-5.04364e-08
-1.36032e-07
-3.82447e-08
-1.50139e-07
2.12474e-08
-1.75708e-07
1.90734e-08
6.61161e-08
-3.81364e-08
4.88102e-08
-1.68469e-07
-1.12007e-07
-1.19265e-07
-8.48421e-08
-1.28086e-07
-6.53266e-08
-1.24823e-07
-6.266e-08
-9.66801e-08
-8.18673e-08
-1.03492e-07
-2.91476e-08
-6.55908e-08
-6.6455e-08
-5.81e-08
-1.99823e-08
-3.07117e-08
-3.53137e-08
1.57828e-08
-2.63285e-08
-2.16939e-08
3.15064e-08
-3.76033e-08
2.8048e-08
-2.55683e-08
2.36278e-08
-3.1599e-08
2.13245e-08
-8.86095e-08
7.22817e-08
-1.13804e-07
5.34715e-08
-1.69849e-07
3.31204e-08
-1.61496e-07
8.50765e-09
-1.32129e-07
3.80338e-09
-1.24989e-07
5.42017e-09
-1.30578e-07
1.2685e-08
-1.23261e-07
-6.24383e-09
-1.0425e-07
-2.82687e-09
-1.26177e-07
-7.63236e-09
-1.0602e-07
-3.04962e-08
-1.20524e-07
1.30724e-08
-6.80359e-08
7.88388e-08
-6.56486e-08
-1.43167e-08
-1.66637e-07
-4.43889e-08
-1.4986e-07
-3.5449e-08
-1.31818e-07
-3.94406e-08
-1.40598e-07
-3.07717e-09
-1.26238e-07
-2.26907e-08
-1.08073e-07
-4.76065e-08
-1.21917e-07
-6.03338e-08
-1.12986e-07
-3.91305e-08
-1.15219e-07
-1.78321e-08
-1.1418e-07
-1.52013e-09
-1.18231e-07
-2.374e-08
-1.18717e-07
-2.70564e-08
-1.26136e-07
-3.74971e-08
-1.35084e-07
-5.98356e-08
-1.40594e-07
-5.97852e-08
-1.52998e-07
-7.11251e-08
-1.8151e-07
2.48997e-08
-9.52416e-08
1.29772e-07
-1.8788e-07
4.32373e-08
-1.52579e-07
2.48822e-08
-1.30059e-07
9.14833e-08
-1.23626e-07
2.32135e-08
-1.11486e-07
-3.42199e-09
-1.10377e-07
1.20521e-09
-1.0983e-07
9.9747e-09
-1.20583e-07
2.857e-08
-1.04121e-07
2.11287e-08
-2.3058e-08
1.79004e-08
-1.55366e-07
-6.79869e-08
-1.40499e-07
-3.2249e-08
-1.5754e-07
1.47751e-08
-1.55796e-07
4.64424e-08
-1.88294e-07
3.82584e-08
-1.4065e-07
8.60952e-08
-4.73107e-08
3.11422e-08
-2.02298e-07
-1.08309e-07
-2.01764e-07
3.40426e-08
-6.7098e-08
5.99422e-08
-1.57493e-07
-1.60032e-08
-1.6706e-07
-1.24854e-10
-1.79962e-07
-6.75005e-09
-9.07125e-08
1.40284e-08
-1.04901e-07
-2.32766e-08
-1.80665e-07
-5.7144e-08
-2.00812e-07
3.92194e-08
2.14519e-08
-1.31982e-07
1.04756e-08
-1.03454e-07
-1.16813e-07
-1.2951e-07
-5.75271e-08
-1.34901e-07
-5.86136e-08
-1.4758e-07
-5.14861e-08
-5.25578e-08
-2.17346e-08
-1.72998e-07
-6.17417e-08
-5.25968e-08
-3.26065e-08
-1.60581e-07
-6.55682e-08
-1.48981e-07
-4.87938e-08
-4.6605e-08
2.61791e-08
-1.49619e-07
-1.85749e-08
-1.41882e-07
2.08102e-08
-1.41728e-07
7.42173e-08
-5.53014e-08
9.1213e-08
-1.58911e-07
2.36228e-08
-1.38267e-07
3.28283e-08
-1.2963e-07
2.41462e-08
-1.33015e-07
1.18925e-08
-1.30528e-07
1.35633e-09
-1.14053e-07
-1.21623e-08
-1.71617e-07
2.02231e-08
-1.25756e-07
3.02225e-10
-1.22668e-07
-7.19725e-09
-1.39846e-07
8.11933e-09
-5.16072e-08
3.64194e-08
-4.69515e-08
8.9436e-09
-1.47606e-07
-2.60723e-08
-9.75946e-08
-1.31373e-08
-1.23623e-07
-1.86228e-08
-1.30305e-07
-2.87669e-08
-3.79149e-08
2.17406e-08
-1.15218e-07
-8.01626e-08
-1.22124e-07
-6.76661e-08
-9.7133e-08
-2.14066e-08
-1.13047e-07
-4.44199e-08
-1.2355e-07
-2.86273e-08
-1.22398e-07
-1.89847e-08
-1.26558e-07
2.61306e-09
-1.08901e-07
-4.02855e-08
-1.0918e-07
-2.67782e-08
-1.48141e-07
3.50616e-10
-1.70132e-07
-3.78452e-08
-2.01145e-07
-3.08247e-08
-1.37814e-07
1.85448e-08
-1.52151e-07
4.06571e-08
-2.0819e-07
3.03446e-08
-2.68986e-07
4.95422e-08
-1.02237e-07
6.75214e-08
-1.95953e-07
-1.75855e-08
-1.82658e-07
1.17812e-08
-1.71405e-07
3.42682e-08
-2.01152e-07
2.71122e-08
-1.95444e-07
6.44235e-09
-1.84863e-07
1.97817e-08
-1.6741e-07
3.89165e-09
-1.41188e-07
-8.5047e-09
-1.77119e-07
-3.20559e-08
-1.64113e-07
-4.57209e-08
-1.86687e-07
3.73492e-08
-1.60126e-07
2.01496e-08
-1.64757e-07
4.0818e-08
-1.6284e-07
3.15734e-08
-1.50463e-07
2.01086e-08
-7.21126e-08
1.90318e-08
-1.90439e-07
3.45406e-10
-1.44623e-07
1.21833e-08
-1.63898e-07
3.10785e-09
-1.70459e-07
6.43682e-09
-1.84397e-07
5.30678e-09
-1.75796e-07
5.42695e-09
-1.91845e-07
-7.39266e-09
-1.07707e-07
1.38709e-08
-2.76238e-07
4.08744e-09
-1.39707e-08
-2.1908e-07
4.45384e-08
-6.83918e-08
-7.20068e-08
-1.84253e-07
-9.25562e-08
-1.62263e-07
-8.06036e-08
-1.51474e-07
-6.22746e-08
-1.35817e-07
-3.71692e-08
-1.68115e-07
-2.94431e-08
-1.69089e-07
-3.16313e-08
-1.83664e-07
-5.15183e-08
-1.61321e-07
-7.18697e-08
-1.5357e-07
-3.2695e-08
-1.61218e-07
-1.27003e-08
-1.65033e-07
2.26918e-08
-1.33597e-07
4.31052e-08
-1.50277e-07
5.60357e-08
-1.26813e-07
5.28832e-08
-1.21648e-07
2.76637e-08
-1.21866e-07
2.4119e-08
-1.22615e-07
1.2642e-08
-1.43904e-07
2.26463e-08
-3.85099e-08
3.60404e-08
-1.40762e-07
-2.97483e-08
-1.18944e-07
-2.31854e-08
-1.21896e-07
-4.24436e-09
-1.07211e-07
-6.56552e-09
-7.67561e-08
5.59392e-09
-6.76874e-08
-1.24724e-10
-9.83979e-08
4.63864e-09
-1.1276e-07
2.3999e-09
-1.17084e-07
-1.4299e-08
-1.55762e-08
2.23305e-08
-1.15552e-07
-3.26995e-08
-1.48293e-08
-2.56204e-08
3.06985e-09
-8.63018e-08
-1.13975e-07
-5.79641e-08
-1.06878e-07
-5.15169e-08
-1.11422e-07
-2.38405e-08
-1.00332e-07
-2.9051e-08
-1.33304e-07
3.52295e-08
-5.74262e-08
3.60473e-08
-7.21004e-08
-1.25048e-08
-1.9492e-07
-8.2433e-08
-1.54763e-07
-2.68115e-08
-1.59513e-07
-2.60754e-08
-1.41219e-07
6.1529e-11
-1.44069e-07
4.26571e-08
-1.70025e-07
5.57323e-08
-1.88579e-07
6.75906e-08
-1.35445e-07
1.36989e-08
-1.61829e-07
8.79829e-09
-1.62482e-07
1.24338e-08
-1.63322e-07
3.54582e-08
-1.607e-07
2.42137e-08
-1.54603e-07
1.85654e-09
-1.34622e-07
-1.97269e-10
-1.32636e-07
5.32552e-10
-1.37823e-07
-3.31733e-09
-1.66838e-07
-4.74245e-09
-7.82141e-08
2.10258e-08
-2.0829e-07
-3.44136e-08
-1.50603e-07
1.32699e-08
-1.53436e-07
4.21147e-08
-1.62956e-07
4.07715e-08
-1.77016e-07
3.23627e-08
-4.7757e-08
4.54192e-08
-1.68307e-07
-3.0639e-08
-1.50102e-07
-7.73909e-09
-1.56095e-07
9.10112e-09
-1.63594e-07
1.39351e-08
-1.68405e-07
1.01181e-08
-1.60304e-07
-2.72973e-09
-1.53708e-07
-1.39894e-08
-6.79073e-08
8.14981e-08
-2.50111e-07
-1.82841e-08
2.33445e-08
-1.36867e-07
2.74152e-08
-1.26704e-07
-5.42413e-08
-1.59379e-07
-5.6003e-08
-2.02424e-07
-3.79453e-08
-2.09913e-07
-5.47844e-08
-2.27483e-07
-1.95993e-08
-2.43748e-07
-1.31766e-08
-2.58415e-07
-1.94021e-08
-2.6702e-07
-4.56648e-08
-1.52288e-07
-2.68488e-08
-2.42615e-07
-9.52995e-08
-2.00395e-07
-5.53546e-08
-1.50329e-07
-2.55798e-08
-1.29191e-07
2.13127e-08
-1.25074e-07
5.18775e-08
-1.18079e-07
4.46134e-08
-1.19753e-07
3.05603e-08
-1.14494e-07
1.88607e-08
-1.17189e-07
1.43155e-08
-1.17396e-07
2.40518e-08
-9.2943e-08
1.1472e-08
-1.23053e-07
-2.12286e-09
-1.41449e-07
-4.74003e-09
-1.25032e-07
-1.90236e-08
-1.22689e-07
-8.90815e-09
-1.047e-07
-1.22695e-08
-9.61921e-08
-8.54511e-09
-9.80681e-08
5.45883e-09
-1.37292e-07
-1.00943e-08
-1.07769e-07
7.52443e-09
-6.99408e-08
-1.46259e-08
-6.49155e-08
-3.63627e-08
-6.11327e-08
-3.07275e-08
2.1255e-08
-1.3276e-08
-1.35022e-07
-5.54751e-08
-1.55252e-07
-2.97028e-08
-1.70149e-07
-9.03563e-09
-6.68872e-08
2.02054e-08
-1.61146e-07
-2.19545e-08
-1.30085e-07
2.01474e-09
-1.29824e-07
-1.39602e-08
-1.80819e-07
-3.04135e-08
-1.5111e-07
-5.46753e-08
-1.44349e-07
-3.2837e-08
-1.51964e-07
9.32163e-09
-1.36692e-07
2.87651e-08
-1.34245e-07
5.19052e-08
-1.55633e-07
8.76089e-08
-8.78797e-08
9.85121e-08
-1.18476e-07
3.89967e-08
-1.09439e-07
3.39721e-09
-1.87896e-07
-3.96562e-08
-1.57252e-07
-6.4302e-09
-1.58022e-07
4.28178e-09
-1.31693e-07
-2.65282e-08
-1.29159e-07
-3.34487e-09
-1.3323e-07
7.53851e-10
-1.4966e-07
1.01615e-08
-1.44379e-07
1.55281e-08
-1.75617e-07
-3.49438e-09
-1.58378e-07
-3.87168e-09
-1.71356e-07
5.67082e-08
-1.63961e-07
3.30393e-08
-1.55555e-07
2.39565e-08
-1.24384e-07
1.37854e-08
-1.50272e-07
-5.06357e-09
-1.40849e-07
-1.7339e-08
-1.58104e-07
2.63557e-08
-1.60043e-07
1.58743e-08
-1.64618e-07
1.46924e-08
-1.70411e-07
3.06292e-09
-4.52138e-08
1.43838e-08
-1.66993e-07
2.1623e-10
-1.53731e-07
1.91263e-08
-1.15483e-08
-1.61841e-07
2.10242e-08
-1.57141e-07
-2.91959e-08
-1.80235e-07
-2.99378e-08
-2.29328e-07
-4.05694e-08
-2.19961e-07
-1.06207e-08
-2.28251e-07
-1.13089e-08
-2.2629e-07
-1.28283e-08
-2.25938e-07
-1.97539e-08
-2.48226e-07
-2.2683e-08
-2.24207e-07
-5.11122e-08
-2.40789e-07
-8.28203e-08
-2.3185e-07
-6.3085e-08
-2.18045e-07
-3.9645e-08
-1.90715e-07
-7.8823e-09
-1.78055e-07
3.97532e-08
-1.70199e-07
3.85744e-08
-1.53906e-07
1.41243e-08
-1.54929e-07
1.84965e-08
-1.70465e-07
2.98517e-08
-1.51025e-07
7.89204e-09
-1.27864e-07
-1.02804e-08
-1.20079e-07
-9.98593e-09
-5.94241e-08
-6.59593e-08
-4.62162e-08
-3.2831e-08
-5.62649e-08
1.24358e-09
-3.3581e-08
-3.46139e-08
8.88583e-09
-5.14403e-08
3.01208e-09
1.13085e-08
-2.54606e-08
1.85124e-08
-2.0232e-08
2.50247e-09
-3.89905e-08
4.28051e-09
-7.49102e-08
-1.99609e-09
-1.0039e-07
-5.56399e-09
-1.02181e-07
-1.0326e-08
-1.46584e-07
-1.10715e-08
-1.69144e-07
-8.77921e-09
-2.22798e-07
-7.19286e-09
-1.44207e-07
-3.4508e-09
-1.52429e-07
-1.39541e-08
-1.55227e-07
4.89102e-09
-1.51409e-07
-1.93622e-08
-2.0212e-07
-3.30082e-08
-1.82651e-07
-2.08919e-08
-1.86298e-07
-3.10907e-08
-2.16525e-07
3.91449e-08
-1.90711e-07
5.45352e-09
-1.64981e-07
2.67053e-08
-1.65371e-07
3.88918e-08
-1.59355e-07
-7.31493e-09
-1.3408e-07
1.21119e-08
-1.40776e-07
8.72518e-09
-1.21546e-07
-5.88857e-08
-1.39762e-07
1.0255e-08
-1.66871e-07
-2.03272e-08
-1.42133e-07
1.3561e-09
-1.3478e-07
-1.06977e-08
-1.40561e-07
6.53473e-09
-1.36601e-07
6.20209e-09
-1.36009e-07
1.47772e-08
-1.69571e-07
2.83383e-08
-7.02576e-08
5.2009e-08
-2.03944e-07
-1.15697e-08
-1.41056e-07
2.08244e-08
-1.33466e-07
1.49275e-08
-1.27285e-07
7.60446e-09
-1.42915e-07
9.01667e-09
-1.49702e-07
-1.06626e-08
-1.57319e-07
-1.56897e-08
-1.61739e-07
2.02939e-08
-1.71177e-07
2.41302e-08
-1.66641e-07
4.9717e-08
-3.50933e-08
3.67642e-08
-1.5387e-07
-3.30286e-08
-1.3559e-07
-5.28521e-10
5.36789e-09
-1.55333e-07
3.14446e-08
-1.20306e-07
-3.16039e-08
-1.25111e-07
-2.145e-08
-1.56895e-07
-8.3716e-09
-1.67662e-07
1.47586e-10
-1.67824e-07
-1.10345e-08
-1.72348e-07
-8.30296e-09
-1.74489e-07
-1.78145e-08
-1.76284e-07
-2.24562e-08
-1.99793e-07
-3.05035e-08
-1.561e-07
-1.94083e-08
-1.60898e-07
-6.03591e-09
-1.7643e-07
-2.3954e-08
-1.38559e-07
-4.57531e-08
-1.51937e-07
5.07948e-08
-1.75783e-07
1.30245e-08
-1.30589e-07
1.96037e-08
-1.29186e-07
1.56033e-08
-1.30454e-07
3.0505e-08
-1.3855e-07
1.59886e-08
-1.44077e-07
-4.85838e-09
-1.8618e-07
-1.91738e-08
-7.28318e-08
2.50369e-08
-6.73683e-08
-3.86289e-08
-1.75447e-07
-4.42482e-08
-1.73212e-07
-3.72014e-08
-4.24707e-08
-2.89977e-08
-1.36717e-07
-4.63514e-08
-1.55522e-07
3.59231e-08
-1.39165e-07
-1.38541e-08
-1.3613e-07
-9.90414e-11
-1.48054e-07
9.92795e-09
-1.43695e-07
-8.35606e-09
-1.37243e-07
-1.67781e-08
-1.26749e-07
-2.02724e-08
-1.29734e-07
-5.79342e-09
-1.87352e-07
-2.01592e-09
-1.25332e-07
-1.42805e-08
-1.28007e-07
-1.27275e-08
-1.64055e-07
-1.24695e-08
-1.8158e-07
-2.21825e-09
-2.01035e-07
-1.13418e-08
-2.21693e-07
5.24729e-08
-1.38493e-07
4.06933e-08
-2.31121e-07
-2.06431e-08
-2.25635e-07
-2.39064e-09
-1.8921e-07
-1.16504e-08
-2.13256e-07
6.01205e-08
-1.22277e-07
5.89826e-08
-1.30186e-07
2.13916e-08
-1.64801e-07
-7.84992e-09
-5.3202e-08
3.51786e-08
-1.38069e-07
-5.68986e-08
-1.31829e-07
-2.77677e-08
-1.14156e-07
-1.63174e-08
-9.07947e-08
-3.40589e-08
-1.10043e-07
2.5783e-08
-1.09909e-07
6.06866e-09
-1.12558e-07
1.74254e-08
-1.09011e-07
2.47918e-08
-8.50474e-08
2.75147e-08
-1.14537e-07
1.79202e-08
-1.10751e-07
1.72508e-08
-1.2244e-07
2.66164e-08
-1.35157e-07
2.17006e-08
-1.33205e-07
5.71923e-09
-1.58026e-07
1.28954e-08
-1.43452e-07
-2.89475e-08
-1.58917e-07
3.53973e-08
-1.55342e-07
2.05551e-08
-1.23783e-07
1.81577e-08
-9.3015e-08
5.9954e-09
-1.17005e-07
-9.37633e-09
-1.27119e-07
9.58469e-09
5.31571e-09
-2.2155e-07
1.75916e-08
-1.3079e-07
-2.2892e-08
-1.21745e-07
-2.64909e-08
-1.10279e-07
-1.9637e-08
-1.45325e-07
-1.45139e-08
-1.10328e-07
4.64235e-09
-1.13349e-07
-6.40619e-09
-1.13538e-07
-1.64673e-08
-1.11216e-07
-2.61641e-08
-1.27482e-07
-1.50695e-08
-9.64956e-08
-4.88951e-08
-1.62953e-07
-9.41714e-08
-1.97278e-07
1.03716e-08
-5.81973e-08
-3.11347e-08
-1.56224e-07
-3.1665e-09
-1.47733e-07
2.94042e-09
-9.99846e-08
-2.7201e-08
-8.16291e-08
-1.92712e-09
-8.40658e-08
3.21181e-08
-1.27795e-07
7.67058e-09
-1.20212e-07
3.91492e-08
-1.27878e-07
-1.28126e-08
-1.378e-07
-1.67585e-08
-1.05835e-07
-1.81821e-08
-1.69444e-07
1.93614e-08
-1.94282e-07
-1.43454e-08
-1.01131e-07
3.3006e-08
-1.09049e-07
-3.78741e-08
-2.11246e-07
-6.66417e-08
-1.72969e-07
-9.399e-10
-1.72423e-07
-6.44626e-10
-1.77383e-07
1.49386e-08
-1.6286e-07
-2.28785e-08
-1.30585e-07
-4.9053e-08
-1.36586e-07
-1.42708e-08
-1.62222e-07
1.97832e-08
-1.60337e-07
-3.94094e-09
-1.58747e-07
-1.60342e-08
-1.81668e-07
1.02977e-08
-1.89436e-07
-4.52781e-09
-2.04456e-07
1.2824e-08
-1.08857e-07
4.78567e-08
-2.04904e-07
-3.50005e-09
-1.64233e-07
-2.0474e-09
-1.82432e-07
-2.68254e-09
-2.03964e-07
1.91413e-08
-9.58903e-08
3.48256e-08
-1.83258e-07
-5.1393e-09
-1.48509e-07
2.17622e-08
-1.37883e-07
1.07652e-08
-1.43543e-07
-3.6539e-09
-1.44e-07
-1.60823e-08
-1.51579e-07
2.7874e-09
-1.28838e-07
-5.05085e-08
-1.36711e-07
-8.44379e-09
-6.22205e-08
4.45668e-08
-1.66206e-07
-2.38031e-08
-1.43761e-07
-1.63761e-08
-1.26716e-07
3.80364e-10
-1.18112e-07
1.61888e-08
-1.09782e-07
1.91839e-08
-9.70694e-08
5.26176e-09
-9.59503e-08
1.61317e-08
-1.39602e-07
7.02679e-08
-1.32396e-07
1.44941e-08
-1.38745e-07
1.21265e-08
-1.58695e-07
3.10948e-08
-6.20792e-08
3.02308e-08
-1.59774e-07
-1.8301e-08
-1.42644e-07
1.79471e-09
-1.27516e-07
3.02928e-09
-1.16289e-07
-5.23321e-09
-1.02015e-07
-2.36513e-08
-1.1647e-07
2.37969e-08
2.40543e-08
-1.70751e-07
1.21748e-08
-1.19746e-07
-4.13558e-08
-1.25551e-07
-6.63857e-08
-1.13705e-07
1.91904e-08
-1.10562e-07
-1.88158e-08
-9.94105e-08
-6.46136e-09
-9.45507e-08
-1.12653e-08
-1.04389e-07
-7.69297e-09
-1.18655e-07
-1.21679e-08
-1.07298e-07
-2.48077e-08
-1.39033e-07
-1.85786e-08
-6.68817e-08
-1.11676e-08
-1.98769e-07
-6.18196e-08
-4.2386e-08
1.7677e-08
-1.53138e-07
-4.44662e-08
-1.61364e-07
7.95891e-09
-6.9851e-08
3.64405e-08
-7.24962e-08
1.42626e-09
-1.53021e-07
-4.05999e-08
-1.45982e-07
-8.56831e-10
-1.64375e-07
5.82425e-09
-1.55834e-07
3.15148e-08
-1.94754e-07
2.05558e-08
-6.39529e-08
6.17123e-09
-1.98794e-07
-4.99063e-08
-1.5758e-07
-4.3686e-09
-1.61823e-07
-1.42774e-08
-1.48209e-07
-2.97542e-10
-1.67295e-07
-4.80454e-08
-1.72233e-07
3.99895e-09
-1.80782e-07
6.06002e-09
-2.12985e-07
-4.57695e-09
-2.11015e-07
2.85153e-08
-1.08007e-07
1.52626e-09
-1.48581e-07
2.63034e-08
-2.53465e-07
-3.149e-08
-2.53935e-07
-6.08886e-09
-2.13783e-07
-5.57717e-08
-2.5082e-07
4.01492e-10
-2.27816e-07
2.54179e-08
-2.1899e-07
1.6905e-09
-1.75466e-07
4.33293e-09
-2.06942e-07
-2.11388e-08
-1.83371e-07
2.2971e-08
-2.03949e-07
1.60051e-08
-1.87559e-07
4.83229e-09
-1.57678e-07
4.94461e-09
-1.56564e-07
-6.30623e-09
-1.44994e-07
1.01925e-08
-1.31171e-07
-3.05782e-09
-1.07781e-07
-2.73227e-08
-1.48533e-07
2.3318e-08
-1.77185e-07
-2.02782e-08
-7.01502e-08
4.90256e-08
-7.40654e-08
-3.773e-09
-1.44773e-07
-3.67461e-08
-1.49037e-07
-2.10158e-08
-1.28765e-07
-3.70262e-08
-1.26858e-07
-1.52657e-09
-1.23917e-07
1.32482e-08
-1.34232e-07
2.81292e-08
-9.12486e-08
1.17432e-07
-7.49078e-08
7.21856e-10
-2.20303e-07
1.07916e-08
-1.68304e-07
1.36855e-08
-1.33149e-07
-2.32666e-08
-1.48349e-07
4.62949e-08
-1.30353e-07
1.19262e-08
-1.48214e-07
-6.26968e-10
-1.47972e-07
1.55323e-09
-1.46787e-07
1.84323e-09
-1.578e-07
5.77849e-09
-6.4464e-08
3.72406e-08
-1.64091e-07
-3.02547e-08
1.47564e-09
-1.46716e-07
4.90232e-09
-1.39986e-07
-1.93955e-08
-4.45743e-08
-3.75729e-09
-1.75112e-07
-5.43821e-08
-1.25401e-07
-1.75152e-08
-1.2047e-07
-1.13914e-08
-1.12327e-07
-1.94072e-08
-1.06897e-07
-1.29907e-08
-1.41573e-07
-2.71125e-08
-8.9621e-08
-2.60859e-08
-8.77759e-08
-2.13373e-08
-9.24916e-08
-6.33734e-09
-1.25204e-07
-2.91063e-08
-1.11323e-07
-4.78826e-08
-1.01425e-07
-3.62626e-09
-1.39645e-07
4.61795e-08
-1.13973e-07
9.2343e-09
-1.3753e-07
-2.67337e-08
-1.3302e-07
7.4842e-09
-1.3908e-07
5.20327e-09
-1.7381e-07
4.04957e-08
-1.3623e-07
-7.4543e-09
-1.86897e-07
1.93061e-08
-1.30348e-07
2.65739e-09
-1.40152e-07
-4.05151e-08
-1.54222e-07
9.70175e-09
-1.77355e-07
8.85642e-09
-1.86099e-07
6.54737e-09
-9.31494e-08
1.41598e-08
-1.72521e-07
-6.99636e-08
-1.86653e-07
2.01919e-08
-1.71348e-07
-1.98353e-08
-1.90996e-07
4.57484e-08
-7.76074e-08
4.32921e-08
-1.90534e-07
-1.35492e-08
-2.0864e-07
-1.3384e-08
-2.49253e-07
-1.66047e-08
-1.34992e-07
3.66751e-08
-2.40889e-07
-4.3293e-08
-2.08622e-07
-1.10211e-08
-1.99996e-07
-8.99239e-09
-1.84867e-07
-8.75617e-09
-1.88129e-07
-1.59572e-08
-1.59217e-07
-5.65282e-09
-1.43314e-07
-1.66818e-09
-1.40774e-07
2.29208e-09
-1.34957e-07
-8.71925e-10
-1.18456e-07
-2.30423e-08
-1.41023e-07
3.27595e-08
-1.54959e-07
9.29741e-09
-5.12864e-08
2.41583e-08
-1.69439e-07
-6.27674e-08
-1.56435e-07
1.79313e-08
-1.16767e-07
9.35788e-09
-1.20892e-07
3.5243e-10
-1.53559e-07
-4.45426e-09
-1.81323e-07
4.89818e-09
-1.0771e-07
4.45147e-08
-1.24794e-07
1.66562e-08
-1.38038e-07
2.6766e-08
-9.39199e-08
-1.6154e-08
-2.10918e-07
2.81837e-08
-5.84261e-08
5.35873e-08
-1.81312e-07
-1.83431e-08
-1.87233e-07
1.60104e-08
-7.33636e-08
1.80175e-08
-2.01759e-07
-2.9323e-08
-1.60513e-07
2.18707e-08
-1.66127e-07
4.9869e-09
-1.67776e-07
3.20184e-09
-1.62038e-07
-3.89529e-09
-1.31079e-07
-2.54409e-08
-1.34038e-07
4.01972e-08
-1.4089e-07
-2.22738e-08
6.2159e-09
-1.97115e-07
2.11583e-08
-1.53379e-07
-2.83527e-08
-1.14636e-07
-3.77669e-08
-1.51671e-07
-1.88944e-08
-1.60071e-07
-9.1144e-09
-1.46652e-07
-2.31767e-08
-1.46902e-07
-1.76583e-08
-1.34652e-07
-2.52402e-08
-1.3329e-07
-2.98472e-08
-1.10748e-07
-4.93979e-08
-1.19724e-07
-1.23599e-08
-1.49248e-07
2.29527e-08
-1.6699e-07
-1.32019e-08
-1.12042e-07
5.17903e-08
-1.06166e-07
-8.35785e-09
-2.22733e-07
-4.20147e-08
-1.82674e-07
2.03664e-08
-1.02787e-07
4.72239e-08
-1.07232e-07
1.19299e-08
-1.03258e-07
1.22963e-09
-2.00832e-07
-1.55009e-08
-6.94727e-08
1.53108e-08
-1.66666e-07
-3.57159e-08
-1.63928e-07
-3.45248e-09
-7.24634e-08
2.31751e-08
-1.86116e-07
-2.94768e-08
-1.69589e-07
-7.67071e-09
-1.66492e-07
3.451e-09
-1.62777e-07
8.64016e-09
-8.91823e-08
1.17168e-08
-2.36894e-07
-3.59477e-08
-8.71932e-08
3.6115e-08
-1.72982e-07
-2.04834e-08
-1.32362e-07
4.65876e-10
-1.49699e-07
3.74974e-09
-1.56985e-07
-6.0973e-09
-1.79377e-07
5.78727e-09
-1.46666e-07
3.96425e-09
-1.6675e-07
-2.19498e-08
-1.55673e-07
-2.06377e-08
-1.11384e-07
-5.47627e-08
-1.2812e-07
6.77495e-09
-1.0602e-07
-3.73576e-08
-1.09364e-07
-1.24856e-09
-7.65448e-08
-3.59549e-08
-9.8751e-08
2.37173e-08
-1.2481e-07
2.39133e-08
-3.59195e-08
4.32217e-08
-1.80377e-07
-2.71786e-08
-1.3147e-07
1.15807e-08
-1.20451e-07
1.28931e-08
-4.23004e-08
1.30847e-08
-1.29467e-07
-4.69222e-08
-1.03581e-07
-1.76687e-08
-1.05179e-07
1.94967e-09
-1.18793e-07
9.16053e-09
-1.20932e-07
7.03634e-09
-1.13861e-07
3.699e-08
-1.34057e-07
3.54846e-08
-1.92927e-07
3.1929e-08
-6.82646e-08
6.80469e-08
-1.80288e-07
-1.10131e-08
-1.25151e-07
-3.38886e-09
-1.45178e-07
1.59605e-11
-1.78249e-07
-2.6369e-09
-1.30342e-07
2.2704e-08
-1.74416e-07
1.47502e-08
-1.65042e-07
1.24969e-08
-1.62621e-07
2.56591e-09
-1.67725e-07
8.30581e-09
-1.84476e-07
1.09731e-08
-8.33579e-08
2.85934e-08
-2.09476e-07
-3.75968e-08
-1.9651e-07
1.59489e-08
-6.09657e-09
-1.36392e-07
6.15418e-09
-1.31695e-07
-5.04097e-09
-1.23878e-07
-4.15532e-08
-1.29127e-07
-1.36447e-08
-1.29669e-07
-8.47875e-09
-1.35871e-07
-1.69745e-08
-1.43105e-07
-1.0424e-08
-1.44271e-07
-2.43303e-08
-1.7267e-07
-3.20976e-09
-1.11217e-07
4.47659e-08
-1.1231e-07
-8.98632e-09
-2.18169e-07
-2.54117e-08
-9.86256e-08
2.11776e-08
-1.66623e-07
-3.17591e-08
-1.49174e-07
-2.75061e-08
-1.73281e-07
-1.77254e-08
-1.54244e-07
1.32925e-09
-1.26935e-07
1.99157e-08
-1.2556e-07
1.05555e-08
-1.37324e-07
1.29944e-08
-1.55435e-07
4.15376e-09
-1.2561e-07
-1.45133e-08
-1.37707e-07
-2.52635e-08
-1.37244e-07
-3.91495e-09
-1.11408e-07
-2.89766e-09
-1.3559e-07
-5.29385e-09
-1.4088e-07
-2.38037e-09
-1.41708e-07
4.2792e-09
-1.38052e-07
3.57667e-09
-1.22833e-07
-3.62297e-09
-1.33348e-07
-2.44282e-08
-1.38381e-07
4.11481e-08
-1.45451e-07
-1.36229e-08
-1.40202e-07
-3.3521e-09
-1.29453e-07
-6.92886e-09
-1.33402e-07
-3.46935e-09
-1.41727e-07
1.39699e-08
-1.39512e-07
1.74912e-09
-1.46e-07
-1.54617e-08
-1.67152e-07
-5.14111e-08
-6.84389e-08
5.14251e-08
-1.7772e-07
-3.77591e-08
-7.422e-08
1.32297e-08
-1.8235e-07
-4.62432e-08
-4.59866e-08
-1.96169e-08
-1.56071e-07
-1.93003e-08
-1.53707e-07
2.15495e-08
-1.30478e-07
1.95516e-08
-1.63486e-07
5.82871e-09
-1.40079e-07
-1.17066e-08
-1.29618e-07
2.43254e-09
-1.09964e-07
-6.57024e-09
-1.85714e-07
-2.11619e-08
-1.26328e-07
-2.63816e-08
-1.21384e-07
-4.28296e-09
-1.05602e-07
-6.62126e-09
-8.37071e-08
-1.48589e-08
-9.36229e-08
4.6432e-08
-9.63384e-08
3.82e-08
-9.81557e-08
3.40743e-08
-6.43493e-08
3.42031e-08
-8.17543e-08
5.63075e-09
-8.71196e-08
1.14237e-09
-9.22937e-08
5.18994e-09
-1.06179e-07
1.2233e-08
-1.06704e-07
2.34663e-08
-1.35006e-07
4.15392e-08
-1.4485e-07
2.21159e-08
-1.48946e-07
6.66106e-09
-1.55793e-07
1.51525e-08
-1.51406e-07
6.58627e-09
-1.32266e-07
9.15995e-09
-1.80508e-07
1.06436e-08
-1.76891e-07
1.22074e-08
-9.37803e-09
-2.11174e-07
5.54752e-08
-1.57993e-07
-1.92769e-08
-1.36702e-07
-5.80079e-08
-1.34449e-07
-1.58969e-08
-1.42421e-07
-5.05941e-10
-1.56704e-07
-2.69095e-09
-1.473e-07
-1.98278e-08
-1.37352e-07
-3.46314e-08
-1.40237e-07
-1.7543e-09
-1.54063e-07
6.4132e-09
-1.6904e-07
5.87534e-08
-1.74592e-07
-2.01184e-08
-1.48619e-07
-5.01047e-09
-1.54621e-07
-2.60803e-08
-2.02831e-07
-2.84169e-08
-1.49189e-07
-2.04869e-08
-1.4114e-07
-8.24096e-09
-1.35438e-07
1.42149e-08
-1.40847e-07
1.59646e-08
-1.87173e-07
1.004e-08
-1.39437e-07
7.02151e-09
-1.36374e-07
-1.9146e-08
-1.11134e-07
-5.10236e-08
-1.40166e-07
2.51177e-08
-1.31303e-07
-1.17607e-08
-1.29291e-07
-7.30528e-09
-1.29447e-07
-2.22387e-09
-1.28023e-07
2.85596e-09
-1.27013e-07
2.56712e-09
-1.21501e-07
-1.03373e-08
-2.72799e-08
3.65046e-08
-1.88578e-07
-2.01616e-09
-1.41547e-07
-9.46307e-09
-1.33712e-07
-9.82339e-09
-1.21434e-07
-1.92769e-08
-1.03358e-07
-2.17294e-08
-1.16402e-07
2.67441e-08
-1.25645e-07
9.80502e-09
-1.51407e-07
8.75547e-09
-7.47004e-08
2.70361e-08
-1.72063e-07
-5.57811e-08
-1.61985e-07
2.96798e-09
-1.45358e-07
-3.53149e-09
-1.87466e-07
-6.5197e-09
-8.43151e-08
3.25882e-08
-9.34302e-08
-9.32509e-09
-1.84134e-07
-4.13175e-08
-1.59319e-07
-5.26388e-09